ITEM: TIMESTEP
100000
ITEM: NUMBER OF ATOMS
17640
ITEM: BOX BOUNDS pp pp pp
-3.8785658408785773e-01 2.7727856584086631e+01
-4.7201350329979705e+00 3.3280013503299341e+02
-4.0087840221463594e-01 2.7740878402213987e+01
ITEM: ATOMS id type q x y z
1 2 2.2208 5.26391 0.639135 5.21947
2 1 -1.1104 1.22938 -3.48846 0.986721
3 1 -1.1104 0.893721 2.09717 0.987221
6 1 -1.1104 1.17998 -3.28653 3.70352
7 1 -1.1104 1.1401 2.28418 3.89782
10 1 -1.1104 1.06449 -0.778305 0.850107
12 2 2.2208 5.34187 -1.86489 2.3574
14 1 -1.1104 1.07474 -0.382162 3.88551
16 1 -1.1104 4.09782 -3.33996 0.930487
17 1 -1.1104 3.78365 2.18447 0.914727
18 2 2.2208 2.38822 0.821057 2.40209
19 1 -1.1104 4.0967 -3.39524 3.70212
20 1 -1.1104 3.78418 2.21347 3.78237
21 2 2.2208 2.54263 -1.97196 5.31192
23 1 -1.1104 3.80765 -0.436168 1.1321
24 1 -1.1104 3.90369 -0.557447 3.89623
22 2 2.2208 2.51036 3.52703 5.22702
13 2 2.2208 5.29827 3.74155 2.41953
8929 2 2.2208 10.9709 -4.67528 5.18039
26 2 2.2208 -0.171175 0.828381 5.33192
232 2 2.2208 13.6746 9.23976 5.30831
349 2 2.2208 8.12581 20.3932 -0.409567
313 2 2.2208 -0.293749 14.9229 8.06546
25 2 2.2208 -0.336478 -1.95123 2.37539
384 2 2.2208 10.9454 6.37563 -0.479799
8926 2 2.2208 5.47924 -4.77531 5.28136
52 2 2.2208 13.6422 9.32211 10.8507
118 1 -1.1104 6.67554 16.1547 6.68233
8 1 -1.1104 6.70875 -3.3268 3.8683
4 1 -1.1104 6.59797 -3.23305 0.975756
5 1 -1.1104 6.56065 2.27331 1.03991
11 1 -1.1104 6.69073 -0.367834 1.11024
9 1 -1.1104 6.81109 2.05915 3.85612
15 1 -1.1104 6.82813 -0.608579 3.88177
31 2 2.2208 10.8826 0.842098 5.3285
32 1 -1.1104 12.3139 -3.39916 1.14161
33 1 -1.1104 12.2996 2.17345 1.21086
34 1 -1.1104 12.4023 -3.2114 3.91059
35 1 -1.1104 12.3736 2.18472 4.08051
36 1 -1.1104 12.3201 -0.55546 0.97691
37 2 2.2208 10.8949 -1.90388 2.34488
39 1 -1.1104 12.179 -0.399994 3.7959
40 1 -1.1104 9.41539 -3.26053 0.901203
41 1 -1.1104 9.54746 2.27547 0.93735
42 2 2.2208 8.17398 0.884954 2.41703
43 1 -1.1104 9.56136 -3.41669 3.69912
44 1 -1.1104 9.55067 2.32307 3.81571
45 2 2.2208 8.10329 -1.94862 5.19379
47 1 -1.1104 9.44674 -0.380736 1.07376
48 1 -1.1104 9.49208 -0.625583 3.75935
46 2 2.2208 8.16835 3.63054 5.27105
38 2 2.2208 10.9772 3.54779 2.62066
369 2 2.2208 11.0355 0.951707 -0.3705
8925 2 2.2208 2.64177 -4.77789 2.27503
29 2 2.2208 -0.305976 6.43274 10.8735
81 2 2.2208 -0.219113 6.43206 5.35
331 2 2.2208 11.1654 17.6347 10.8863
54 2 2.2208 5.40426 6.38533 5.3008
55 2 2.2208 5.25149 12.0427 5.31735
56 1 -1.1104 0.931288 7.88606 1.08938
58 1 -1.1104 0.997841 7.85817 3.87731
60 1 -1.1104 1.13052 5.12472 1.03824
61 1 -1.1104 1.24511 10.6764 1.185
66 2 2.2208 5.20374 9.16694 2.45729
67 1 -1.1104 1.2868 5.05513 3.79613
68 1 -1.1104 0.993941 10.9008 4.15372
71 1 -1.1104 3.87709 7.88059 1.17016
72 2 2.2208 2.57164 6.42883 2.5705
73 2 2.2208 2.49871 12.1044 2.43809
74 1 -1.1104 3.79822 7.82192 3.94603
75 2 2.2208 2.22929 9.29905 5.26947
76 1 -1.1104 4.01537 4.96407 1.21675
77 1 -1.1104 3.85163 10.5332 1.03691
79 1 -1.1104 4.03803 4.92937 3.90171
80 1 -1.1104 3.70702 10.4634 3.72426
8927 2 2.2208 -0.330827 -4.76855 5.20124
202 2 2.2208 13.6418 6.42397 8.05774
375 2 2.2208 2.64872 20.4349 -0.314419
82 2 2.2208 -0.361041 9.35537 2.42831
135 2 2.2208 -0.187968 15.0936 2.36582
27 2 2.2208 -0.253874 3.68563 2.27655
64 1 -1.1104 6.67001 10.4449 1.09588
70 1 -1.1104 6.58315 10.6853 3.84595
59 1 -1.1104 6.64475 7.69965 3.74521
57 1 -1.1104 6.8286 7.74723 1.08148
69 1 -1.1104 6.89227 4.93965 3.78806
63 1 -1.1104 6.63204 5.01808 0.912853
84 2 2.2208 10.8837 6.35516 5.28228
85 2 2.2208 10.9338 12.0959 5.20689
86 1 -1.1104 12.2182 7.80956 1.02311
87 1 -1.1104 12.3398 7.82184 3.84082
88 1 -1.1104 12.251 4.9022 1.11751
89 1 -1.1104 12.0884 10.5443 1.0494
91 2 2.2208 10.8419 9.31754 2.45253
92 1 -1.1104 12.2217 5.10989 3.87211
93 1 -1.1104 12.2527 10.6587 3.85528
94 1 -1.1104 9.54979 7.86471 0.989287
95 2 2.2208 8.11 6.42368 2.40787
96 2 2.2208 8.02111 11.9423 2.4092
97 1 -1.1104 9.35856 7.90048 3.78856
98 2 2.2208 8.05747 9.23763 5.34215
99 1 -1.1104 9.58175 4.93286 1.17641
100 1 -1.1104 9.30589 10.5179 1.08533
102 1 -1.1104 9.47926 5.00794 3.86216
103 1 -1.1104 9.42999 10.6813 3.90686
338 2 2.2208 5.18316 -2.01334 13.7654
314 1 -1.1104 9.53037 16.0949 9.34401
330 1 -1.1104 12.5317 13.4688 12.2447
51 2 2.2208 -0.430803 12.0207 10.9464
311 2 2.2208 -0.184184 20.5074 7.91982
106 2 2.2208 5.34853 17.5126 5.29266
107 1 -1.1104 1.12807 13.5503 0.89437
109 1 -1.1104 1.17238 19.11 0.978942
113 1 -1.1104 1.18887 13.6337 3.69893
114 1 -1.1104 1.15209 19.0743 3.85021
116 1 -1.1104 1.28508 16.3552 1.15741
119 2 2.2208 5.29545 14.8297 2.34259
120 2 2.2208 5.39545 20.4172 2.28392
121 1 -1.1104 1.09978 16.4514 3.8524
123 1 -1.1104 3.71377 13.7154 1.11788
125 1 -1.1104 4.0644 19.0944 0.983132
127 2 2.2208 2.67239 17.6837 2.52257
128 1 -1.1104 3.93567 13.3976 3.84791
129 1 -1.1104 4.01868 19.0575 3.73388
130 2 2.2208 2.35023 14.9737 5.19775
131 2 2.2208 2.45664 20.3737 5.1873
132 1 -1.1104 4.04771 16.4388 0.927756
134 1 -1.1104 3.92192 16.1597 3.82479
137 2 2.2208 -0.326258 17.6332 5.14047
138 1 -1.1104 6.85605 19.0068 1.10244
115 1 -1.1104 6.4955 13.5765 3.94181
139 1 -1.1104 6.83945 19.0676 3.89097
122 1 -1.1104 6.89104 16.2637 3.74255
111 1 -1.1104 6.65591 13.4791 6.65883
353 2 2.2208 2.65038 12.2577 13.7459
321 1 -1.1104 9.73977 19.0444 12.2624
110 1 -1.1104 6.70232 13.351 1.14621
140 1 -1.1104 6.71982 16.128 0.972571
141 2 2.2208 10.8263 17.6145 5.24125
142 1 -1.1104 12.3678 13.2734 0.932144
144 1 -1.1104 12.2917 18.8848 0.960825
146 1 -1.1104 12.1592 13.5721 3.75047
147 1 -1.1104 12.2745 18.9231 3.80744
148 1 -1.1104 12.2823 16.2304 1.232
150 2 2.2208 10.8358 14.9825 2.43029
151 2 2.2208 11.1291 20.3894 2.38646
152 1 -1.1104 12.4445 16.2038 3.88315
153 1 -1.1104 9.55812 13.4471 1.0761
155 1 -1.1104 9.6806 19.1124 0.837412
157 2 2.2208 8.29111 17.5799 2.46266
158 1 -1.1104 9.41527 13.3764 3.87577
159 1 -1.1104 9.66221 18.9053 3.76951
160 2 2.2208 8.09662 14.7372 5.15072
161 2 2.2208 8.09115 20.5219 5.20847
162 1 -1.1104 9.49713 16.177 1.05959
164 1 -1.1104 9.67232 16.0807 4.07565
386 2 2.2208 10.8514 12.1414 -0.335253
312 2 2.2208 -0.133443 17.796 10.8876
385 2 2.2208 8.14023 9.18265 -0.37625
167 1 -1.1104 1.21811 2.20983 6.77441
200 2 2.2208 -0.340278 -1.81951 8.00952
379 2 2.2208 5.26878 6.5801 -0.395716
174 1 -1.1104 3.70952 -0.797546 6.82129
170 1 -1.1104 1.06724 -0.510304 6.5863
166 1 -1.1104 0.884122 -3.51643 6.79055
172 1 -1.1104 3.91757 -3.45419 6.64069
173 1 -1.1104 3.92025 2.00543 6.64919
352 2 2.2208 5.26853 9.37263 13.6885
175 2 2.2208 5.25426 0.841661 10.9049
176 1 -1.1104 0.946489 -3.44161 12.629
177 1 -1.1104 1.20402 2.19918 12.4184
180 1 -1.1104 0.968346 -3.33331 9.6699
181 1 -1.1104 0.960842 2.34068 9.53846
184 1 -1.1104 1.14047 -0.525198 12.1375
186 2 2.2208 5.43712 -2.1852 8.09855
188 1 -1.1104 1.22441 -0.666445 9.52736
190 1 -1.1104 3.72747 -3.26547 12.2484
191 1 -1.1104 3.94995 2.39486 12.3651
192 2 2.2208 2.4932 0.727471 8.1038
193 1 -1.1104 3.9604 -3.45319 9.45531
194 1 -1.1104 4.00677 2.41449 9.62194
195 2 2.2208 2.44963 -2.01839 11.0336
197 1 -1.1104 3.8911 -0.314719 12.3639
198 1 -1.1104 3.93833 -0.648189 9.51257
196 2 2.2208 2.53894 3.76327 11.0841
187 2 2.2208 5.28224 3.69036 8.16826
207 1 -1.1104 12.4791 -0.377015 6.3988
206 1 -1.1104 12.1566 2.23217 6.98784
168 1 -1.1104 6.79156 -3.49223 6.81214
171 1 -1.1104 6.60426 -0.753663 6.74865
209 1 -1.1104 9.38046 2.28824 6.82152
185 1 -1.1104 6.58781 -0.749235 12.2958
189 1 -1.1104 6.68093 -0.584143 9.42869
169 1 -1.1104 6.67057 2.41638 6.60563
182 1 -1.1104 6.85832 -3.44424 9.64137
183 1 -1.1104 6.72294 2.19126 9.41226
179 1 -1.1104 6.76825 1.97155 12.1687
208 1 -1.1104 9.5161 -3.41696 6.70786
205 1 -1.1104 12.3078 -3.21176 6.6022
210 1 -1.1104 9.34378 -0.635438 6.56495
178 1 -1.1104 6.45581 -3.49481 12.3268
211 2 2.2208 11.0851 0.868269 10.7643
212 1 -1.1104 12.1308 -3.30019 12.1687
213 1 -1.1104 12.271 2.38822 12.3192
214 1 -1.1104 12.3789 -3.25408 9.38354
215 1 -1.1104 12.281 2.45487 9.59934
216 1 -1.1104 12.5271 -0.404898 12.0999
217 2 2.2208 10.9613 -1.95481 8.02894
219 1 -1.1104 12.4885 -0.690293 9.47897
220 1 -1.1104 9.41126 -3.24846 12.1933
221 1 -1.1104 9.63209 2.26566 12.3268
222 2 2.2208 7.94928 0.736147 7.98475
223 1 -1.1104 9.58681 -3.32347 9.35014
224 1 -1.1104 9.3943 2.14353 9.50812
225 2 2.2208 8.1384 -1.93595 10.7953
227 1 -1.1104 9.84357 -0.477218 12.1304
228 1 -1.1104 9.58977 -0.523976 9.23841
218 2 2.2208 10.7637 3.59047 8.19817
226 2 2.2208 7.98281 3.51269 11.0081
324 2 2.2208 11.0281 20.4548 8.13063
317 2 2.2208 8.10705 14.7618 10.7712
238 1 -1.1104 3.84629 7.94165 6.65392
236 1 -1.1104 1.16374 4.98424 6.76934
78 1 -1.1104 3.74864 10.733 6.81962
62 1 -1.1104 0.907203 10.6685 6.78423
239 1 -1.1104 3.96083 4.88277 6.72779
30 2 2.2208 -0.464526 9.26581 8.09649
234 1 -1.1104 1.15337 7.74537 6.71449
240 2 2.2208 5.38161 6.47281 10.8658
241 2 2.2208 5.19519 12.0907 10.8763
242 1 -1.1104 1.02329 7.97187 12.1654
244 1 -1.1104 1.00716 8.10886 9.49909
246 1 -1.1104 1.09863 5.07349 12.6834
247 1 -1.1104 1.03352 10.7882 12.2563
250 2 2.2208 5.23155 9.35845 8.08025
251 1 -1.1104 1.26198 5.20511 9.71328
252 1 -1.1104 1.0554 10.7175 9.40653
255 1 -1.1104 3.92753 8.14198 12.3946
256 2 2.2208 2.46507 6.51678 8.12195
257 2 2.2208 2.46398 12.3231 7.9857
258 1 -1.1104 3.94444 7.88119 9.45879
259 2 2.2208 2.45245 9.40625 10.9168
260 1 -1.1104 3.81389 5.04945 12.3784
261 1 -1.1104 4.01949 10.7964 12.3856
262 1 -1.1104 3.90188 5.19955 9.64683
263 1 -1.1104 3.96747 10.7555 9.63237
245 1 -1.1104 6.81496 8.02503 9.45728
243 1 -1.1104 6.85768 7.93277 12.5294
163 1 -1.1104 9.46259 16.1485 6.63267
267 1 -1.1104 9.5537 7.86026 6.80215
235 1 -1.1104 6.60228 7.95961 6.70419
269 1 -1.1104 9.46719 5.09797 6.86415
65 1 -1.1104 6.67281 10.6265 6.71823
249 1 -1.1104 6.79135 10.6145 12.1807
90 1 -1.1104 12.2462 10.5777 6.73994
265 1 -1.1104 12.2493 7.7801 6.67628
266 1 -1.1104 12.386 5.03265 6.7439
248 1 -1.1104 6.70257 4.91667 12.4704
253 1 -1.1104 6.57628 5.09048 9.43474
254 1 -1.1104 6.6731 10.8322 9.52383
237 1 -1.1104 6.80024 5.08317 6.72321
101 1 -1.1104 9.48341 10.6552 6.70144
264 1 -1.1104 9.62044 10.7416 9.38796
268 1 -1.1104 9.39527 5.07401 9.52996
270 1 -1.1104 9.52236 10.7461 12.2125
271 1 -1.1104 9.45314 5.02792 12.2236
272 2 2.2208 8.16398 9.36444 10.8515
273 1 -1.1104 9.65232 7.96047 9.62471
274 2 2.2208 8.06618 11.9556 8.09131
275 2 2.2208 8.18797 6.40075 8.18399
276 2 2.2208 10.8929 6.48447 11.0205
277 2 2.2208 11.0563 12.0549 10.8349
278 1 -1.1104 12.3061 7.79323 12.4492
279 1 -1.1104 12.384 7.92498 9.47008
280 1 -1.1104 12.2844 5.05938 12.3709
281 1 -1.1104 12.4265 10.5793 12.2938
282 2 2.2208 10.9086 9.21606 7.9703
283 1 -1.1104 12.2222 5.13923 9.42066
284 1 -1.1104 12.4561 10.7735 9.51448
285 1 -1.1104 9.5413 7.86825 12.3599
290 1 -1.1104 6.53625 13.5954 9.45113
318 1 -1.1104 9.85907 18.8741 9.37319
108 1 -1.1104 1.0812 13.5266 6.57631
126 1 -1.1104 3.88509 18.9397 6.64506
117 1 -1.1104 0.88973 16.3653 6.71177
302 1 -1.1104 1.05872 19.1871 6.57815
133 1 -1.1104 3.8093 16.2823 6.61937
124 1 -1.1104 3.84368 13.5572 6.55948
293 2 2.2208 5.35707 20.4462 8.12579
295 2 2.2208 5.23079 14.9621 8.10097
294 1 -1.1104 0.958988 13.424 9.52527
298 1 -1.1104 1.12871 18.9591 12.3344
291 1 -1.1104 1.18173 19.27 9.47405
310 2 2.2208 2.56663 14.929 10.8898
309 2 2.2208 2.65329 20.5066 10.8426
308 1 -1.1104 3.94138 16.3451 12.2296
307 1 -1.1104 1.08338 16.2814 12.283
305 1 -1.1104 3.79325 13.513 9.45144
304 1 -1.1104 4.01731 16.3971 9.50215
303 2 2.2208 2.49862 17.6953 8.01947
301 1 -1.1104 3.94725 19.2222 9.38434
300 2 2.2208 5.41109 17.6982 10.8937
292 1 -1.1104 1.36092 16.322 9.36589
299 1 -1.1104 1.08336 13.5581 12.2384
286 1 -1.1104 4.08121 19.2523 12.2347
287 1 -1.1104 4.0066 13.5194 12.3118
289 1 -1.1104 6.7096 16.2403 9.55778
325 2 2.2208 10.9901 14.9156 7.99787
316 2 2.2208 8.22361 20.5367 10.9157
297 1 -1.1104 6.85028 13.4806 12.2255
319 1 -1.1104 9.44978 13.3487 9.42478
156 1 -1.1104 9.50608 18.9909 6.54348
329 1 -1.1104 12.5289 19.2208 12.1334
320 2 2.2208 8.00535 17.5693 7.95724
323 1 -1.1104 12.403 16.3639 9.41584
296 1 -1.1104 6.87781 18.8974 12.2386
326 1 -1.1104 12.6657 16.3237 12.2139
288 1 -1.1104 6.86203 18.951 9.46699
306 1 -1.1104 6.96486 16.1486 12.3739
154 1 -1.1104 9.55519 13.2668 6.64795
143 1 -1.1104 12.4097 13.4312 6.68785
327 1 -1.1104 12.5944 19.1787 9.56524
112 1 -1.1104 6.65799 19.0406 6.5765
149 1 -1.1104 12.3038 16.4135 6.62796
145 1 -1.1104 12.3119 19.4589 6.70686
315 1 -1.1104 9.87307 16.2441 12.3839
322 1 -1.1104 9.57486 13.4296 12.3456
328 1 -1.1104 12.502 13.6169 9.45546
367 2 2.2208 -0.368475 9.30452 13.6114
383 2 2.2208 -0.38272 6.44023 -0.224013
362 2 2.2208 8.28131 17.6422 13.5327
372 2 2.2208 8.02115 3.55826 -0.204805
381 2 2.2208 5.35779 11.9351 -0.383526
340 2 2.2208 13.8066 0.709325 13.7139
371 2 2.2208 -0.170836 17.7883 -0.267753
388 2 2.2208 5.20572 0.944162 16.5976
389 1 -1.1104 0.85986 -3.17856 17.9638
390 1 -1.1104 0.944358 2.31934 17.961
393 1 -1.1104 1.017 -3.48367 15.1054
395 1 -1.1104 0.97217 2.28939 15.1404
401 1 -1.1104 1.13422 -0.535182 17.7149
403 2 2.2208 5.23954 -1.90901 19.3237
404 2 2.2208 4.97033 3.57424 19.3229
405 1 -1.1104 0.967606 -0.646344 15.0316
409 1 -1.1104 3.80715 -3.45883 17.9443
410 1 -1.1104 3.67406 2.24153 17.8964
411 2 2.2208 2.33228 0.878946 19.2299
412 1 -1.1104 3.83016 -3.34191 15.1473
414 1 -1.1104 3.83036 2.49232 15.1726
416 2 2.2208 2.59505 -1.94076 16.5338
418 1 -1.1104 4.08421 -0.342387 18.0453
419 1 -1.1104 4.00241 -0.447348 15.2072
417 2 2.2208 2.29063 3.68029 16.6295
334 2 2.2208 -0.431549 -2.0062 13.8028
710 2 2.2208 13.5903 6.33256 25.0548
341 2 2.2208 5.21894 3.78469 13.8387
355 2 2.2208 10.8262 9.34788 13.7104
9017 2 2.2208 10.8781 -4.86152 22.1009
645 2 2.2208 -0.214007 20.4259 25.0061
9087 2 2.2208 -0.311372 -4.69395 16.6936
622 2 2.2208 -0.287719 9.38665 19.5061
342 2 2.2208 -0.179684 14.972 13.7154
648 2 2.2208 -0.328611 12.0212 16.4992
399 1 -1.1104 6.61753 2.29149 15.042
391 1 -1.1104 6.5163 -3.37393 17.9119
402 1 -1.1104 6.74506 -0.345347 17.8247
423 2 2.2208 13.7096 3.76798 22.0349
407 1 -1.1104 6.63918 -0.660525 15.0574
397 1 -1.1104 6.64521 -3.49643 15.2608
392 1 -1.1104 6.61168 2.16832 18.1619
431 2 2.2208 10.8226 0.852879 16.5633
432 1 -1.1104 12.1389 -3.40879 17.8041
433 1 -1.1104 12.3616 2.10666 17.8953
434 1 -1.1104 12.1412 -3.42857 14.9927
436 1 -1.1104 12.4087 2.11491 15.1633
438 1 -1.1104 12.219 -0.556571 17.9228
439 2 2.2208 10.9457 -1.99023 19.1932
441 1 -1.1104 12.3087 -0.552474 14.9773
443 1 -1.1104 9.41036 -3.45856 17.8259
444 1 -1.1104 9.34532 2.24141 18.0354
445 2 2.2208 8.0396 0.897168 19.3885
446 1 -1.1104 9.34798 -3.38646 15.0847
448 1 -1.1104 9.36291 2.18069 15.2897
450 2 2.2208 8.00006 -2.02328 16.5646
452 1 -1.1104 9.29162 -0.620304 18.1012
453 1 -1.1104 9.60795 -0.503328 15.1946
440 2 2.2208 10.7348 3.76961 19.2263
451 2 2.2208 7.94725 3.54898 16.638
8952 2 2.2208 2.46074 -4.70658 13.7607
398 1 -1.1104 6.74412 -3.29775 20.7685
408 1 -1.1104 6.54336 -0.414905 20.6792
449 1 -1.1104 9.22474 2.57983 20.5964
350 2 2.2208 10.7717 3.593 13.6791
339 2 2.2208 2.50306 0.885935 13.7696
9019 2 2.2208 2.53724 -4.60489 24.7225
464 2 2.2208 5.1497 6.61154 16.5076
465 2 2.2208 5.34803 12.0163 16.4641
466 1 -1.1104 1.21074 7.99008 18.0012
468 1 -1.1104 1.23124 8.16559 15.1753
472 1 -1.1104 0.923008 5.16205 18.1133
473 1 -1.1104 1.00012 10.8324 17.9806
476 2 2.2208 5.33077 9.36369 19.4376
477 1 -1.1104 1.18506 5.18253 15.261
479 1 -1.1104 1.28113 10.9627 15.1974
485 1 -1.1104 4.14992 8.11552 18.0233
486 2 2.2208 2.36181 6.46557 19.6
487 2 2.2208 2.56214 12.1504 19.4589
488 1 -1.1104 3.9372 7.82818 15.0932
490 2 2.2208 2.52352 9.47474 16.545
491 1 -1.1104 3.64595 5.03928 17.9589
492 1 -1.1104 3.9184 10.7973 18.133
493 1 -1.1104 3.82784 5.18403 15.3737
495 1 -1.1104 3.94647 10.7344 15.1484
364 2 2.2208 5.16856 0.866527 27.9415
651 2 2.2208 13.7839 6.47458 19.3663
483 1 -1.1104 6.76343 10.6632 15.1066
621 2 2.2208 -0.300729 6.53461 16.6937
373 2 2.2208 2.58319 15.0663 27.8004
356 2 2.2208 8.15159 12.1446 13.6136
475 1 -1.1104 6.79537 10.7756 17.9372
347 2 2.2208 8.2201 14.9436 27.8483
470 1 -1.1104 6.64924 8.01279 15.1169
474 1 -1.1104 6.49481 4.91796 17.9441
481 1 -1.1104 6.56075 5.08203 15.1171
467 1 -1.1104 6.75371 7.8887 17.9433
500 2 2.2208 10.8765 6.38937 16.4436
501 2 2.2208 10.9527 12.1681 16.5668
502 1 -1.1104 12.3004 7.9108 17.8881
503 1 -1.1104 12.4035 7.8748 15.1731
505 1 -1.1104 12.4026 5.05551 18.2032
506 1 -1.1104 12.3548 10.7642 17.8699
507 2 2.2208 10.953 9.23172 19.2602
508 1 -1.1104 12.2237 4.93522 15.1603
510 1 -1.1104 12.3665 10.8144 15.0553
512 1 -1.1104 9.48621 7.75615 17.9765
513 2 2.2208 7.99446 6.55201 19.2816
514 2 2.2208 8.1182 12.0965 19.358
515 1 -1.1104 9.59828 7.84634 15.1897
517 2 2.2208 8.19511 9.37915 16.5036
518 1 -1.1104 9.37028 5.17415 17.786
519 1 -1.1104 9.47391 10.8017 17.7687
520 1 -1.1104 9.4102 4.94475 15.2504
522 1 -1.1104 9.60485 10.7745 14.9991
586 1 -1.1104 9.45924 16.2539 20.8236
650 2 2.2208 13.7423 12.1025 19.2548
547 1 -1.1104 6.46733 16.227 20.6632
358 2 2.2208 5.40126 20.6565 13.6548
359 2 2.2208 5.48754 14.8521 13.7027
587 2 2.2208 8.2491 17.6827 24.8531
527 2 2.2208 5.38328 17.7278 16.3724
528 1 -1.1104 1.08396 13.4968 17.8384
529 1 -1.1104 1.20009 19.0077 17.8853
532 1 -1.1104 1.06825 13.5559 14.994
534 1 -1.1104 1.19904 19.2283 15.1501
540 1 -1.1104 1.02849 16.3197 18.0034
542 2 2.2208 5.24911 14.9025 19.2983
543 2 2.2208 5.2356 20.3278 19.3881
544 1 -1.1104 1.29706 16.4356 15.082
548 1 -1.1104 4.04208 13.5306 17.8533
549 1 -1.1104 3.91206 19.1445 17.8746
550 2 2.2208 2.52321 17.7156 19.2342
551 1 -1.1104 4.00676 13.6098 15.0449
553 1 -1.1104 3.95395 19.1638 15.1023
555 2 2.2208 2.70001 14.9409 16.4477
556 2 2.2208 2.54789 20.6616 16.4892
557 1 -1.1104 3.83688 16.4533 17.7097
558 1 -1.1104 4.14914 16.2605 15.0013
357 2 2.2208 2.64305 17.7594 13.6769
653 2 2.2208 13.6292 -1.9241 22.23
456 2 2.2208 -0.295988 17.6775 16.4911
680 1 -1.1104 6.65805 16.248 23.4934
499 1 -1.1104 12.5737 18.9561 26.3039
536 1 -1.1104 6.63528 13.4907 15.1317
538 1 -1.1104 6.68618 19.2314 14.9901
457 2 2.2208 -0.378774 14.983 19.2963
531 1 -1.1104 6.63579 19.0983 17.8896
541 1 -1.1104 6.54777 16.3827 18.0821
530 1 -1.1104 6.82103 13.3505 17.8313
546 1 -1.1104 6.86395 16.3461 15.1431
563 2 2.2208 10.8897 17.685 16.4952
564 1 -1.1104 12.5618 13.7665 17.9328
565 1 -1.1104 12.3431 19.2889 17.8075
566 1 -1.1104 12.5007 13.6353 14.9883
568 1 -1.1104 12.3501 19.1571 14.9833
570 1 -1.1104 12.1277 16.408 17.9382
571 2 2.2208 10.8005 14.965 19.4301
572 2 2.2208 10.8764 20.5001 19.4075
573 1 -1.1104 12.2473 16.4381 15.0942
575 1 -1.1104 9.62464 13.7217 18.0392
576 1 -1.1104 9.60123 19.3632 17.8696
577 2 2.2208 8.1124 17.7511 19.4298
578 1 -1.1104 9.50574 13.5022 15.0228
580 1 -1.1104 9.54136 19.2743 14.909
582 2 2.2208 8.09576 14.8887 16.7116
583 2 2.2208 8.08376 20.464 16.4582
584 1 -1.1104 9.36964 16.4346 17.9926
585 1 -1.1104 9.52711 16.428 15.3005
589 1 -1.1104 9.39533 13.4222 26.4438
415 1 -1.1104 3.84096 2.31338 20.8757
413 1 -1.1104 3.75114 -3.31164 20.8759
394 1 -1.1104 1.10547 -3.2722 20.6899
462 2 2.2208 10.8584 17.6142 22.0912
425 2 2.2208 -0.440331 -1.63739 19.2201
406 1 -1.1104 0.904074 -0.378262 20.6187
420 1 -1.1104 3.70857 -0.549814 20.8509
396 1 -1.1104 0.964794 2.35651 20.8453
591 2 2.2208 5.30473 0.876991 22.1623
592 1 -1.1104 1.09149 -3.32969 23.4036
593 1 -1.1104 0.878936 2.39455 23.5609
596 1 -1.1104 1.35236 -3.238 26.2826
597 1 -1.1104 1.22825 2.20198 26.3578
600 1 -1.1104 0.914905 -0.516812 23.3621
602 2 2.2208 5.09623 -1.85326 24.829
604 1 -1.1104 0.922319 -0.549428 26.1449
606 1 -1.1104 3.70157 -3.3568 23.2825
607 1 -1.1104 3.63612 2.20512 23.5177
608 2 2.2208 2.38647 0.840761 24.8853
609 1 -1.1104 3.95076 -3.46385 26.1944
610 1 -1.1104 3.96181 2.43123 26.1948
611 2 2.2208 2.36636 -1.90781 21.9709
613 1 -1.1104 3.82264 -0.505563 23.6547
614 1 -1.1104 3.85645 -0.619906 26.3322
603 2 2.2208 5.3903 3.57776 24.7805
612 2 2.2208 2.38301 3.61666 22.141
361 2 2.2208 11.0188 14.833 13.5767
569 1 -1.1104 12.3654 19.2878 20.8287
454 1 -1.1104 9.48593 -0.396247 20.683
601 1 -1.1104 6.72828 -0.570151 23.4089
599 1 -1.1104 6.73199 2.05969 26.279
437 1 -1.1104 12.2468 2.43333 20.619
447 1 -1.1104 9.40716 -3.34148 20.5627
435 1 -1.1104 12.336 -3.38622 20.6307
594 1 -1.1104 6.54658 -3.19668 23.5342
598 1 -1.1104 6.73833 -3.35225 26.3027
400 1 -1.1104 6.44562 2.43889 20.8566
442 1 -1.1104 12.3259 -0.508168 20.6748
605 1 -1.1104 6.73713 -0.628373 26.4394
595 1 -1.1104 6.60073 2.11033 23.4976
627 2 2.2208 10.9076 1.13231 21.9585
628 1 -1.1104 12.0156 -3.29643 23.5633
629 1 -1.1104 12.2253 2.33404 23.4353
630 1 -1.1104 12.3939 -3.27598 26.3484
631 1 -1.1104 12.329 2.22126 26.3726
632 1 -1.1104 12.1878 -0.479567 23.3188
633 2 2.2208 10.8861 -1.89753 25.0171
634 2 2.2208 10.9518 3.70451 24.942
635 1 -1.1104 12.3447 -0.487673 26.1929
636 1 -1.1104 9.19971 -3.1017 23.5998
637 1 -1.1104 9.29781 2.5783 23.5194
638 2 2.2208 8.05603 0.789862 24.8665
639 1 -1.1104 9.69902 -3.45141 26.425
640 1 -1.1104 9.55544 2.09943 26.3174
641 2 2.2208 8.0731 -1.93681 21.9674
643 1 -1.1104 9.55743 -0.312357 23.5219
644 1 -1.1104 9.50471 -0.598557 26.2971
642 2 2.2208 7.86184 3.83563 22.0905
537 1 -1.1104 6.75325 13.5324 20.7531
480 1 -1.1104 1.13712 10.8546 20.6605
489 1 -1.1104 3.85503 7.82338 20.8147
478 1 -1.1104 0.748712 5.22286 20.8373
421 2 2.2208 -0.405104 6.51802 22.1297
494 1 -1.1104 3.72562 4.97872 20.8355
646 2 2.2208 -0.390036 14.8688 24.9892
469 1 -1.1104 1.07101 7.88154 20.8654
496 1 -1.1104 3.90037 10.7328 20.8568
656 2 2.2208 5.23181 6.53754 22.267
657 2 2.2208 5.21729 12.1358 22.1199
658 1 -1.1104 0.883882 7.92529 23.393
660 1 -1.1104 1.03507 7.64315 26.2608
662 1 -1.1104 1.07162 5.11829 23.5226
663 1 -1.1104 0.902892 10.49 23.5796
666 2 2.2208 5.34288 9.32492 24.8691
667 1 -1.1104 1.01998 4.907 26.5444
668 1 -1.1104 0.979202 10.7123 26.4651
671 1 -1.1104 3.90712 7.93319 23.5888
672 2 2.2208 2.41036 6.45108 24.8759
673 2 2.2208 2.41316 12.0188 25.0409
674 1 -1.1104 3.8702 8.13182 26.3383
675 2 2.2208 2.442 9.32567 22.2822
676 1 -1.1104 3.73277 5.03019 23.7313
677 1 -1.1104 3.67057 10.7679 23.5177
678 1 -1.1104 3.8214 5.32601 26.4575
679 1 -1.1104 3.8419 10.7756 26.2725
471 1 -1.1104 6.74032 7.9966 20.816
574 1 -1.1104 12.2553 16.3959 20.8287
521 1 -1.1104 9.45283 5.27521 20.6103
617 1 -1.1104 9.61789 16.2214 23.5326
516 1 -1.1104 9.55369 8.05851 20.6868
511 1 -1.1104 12.3549 10.7201 20.6561
523 1 -1.1104 9.45944 10.7784 20.8759
482 1 -1.1104 6.50529 5.40169 20.6215
669 1 -1.1104 6.68465 4.96049 26.2285
484 1 -1.1104 6.60825 10.6943 20.7962
509 1 -1.1104 12.2634 5.14502 20.878
665 1 -1.1104 6.75031 10.5209 23.6009
661 1 -1.1104 6.66078 7.89898 26.3193
664 1 -1.1104 6.3946 4.93323 23.4631
670 1 -1.1104 6.54217 10.5112 26.3776
659 1 -1.1104 6.66396 7.72553 23.6136
504 1 -1.1104 12.4674 7.8763 20.4262
687 1 -1.1104 9.2978 10.668 26.3716
688 1 -1.1104 9.60038 5.05608 26.2857
689 1 -1.1104 9.4507 10.8183 23.5787
690 1 -1.1104 9.26359 5.13568 23.49
691 2 2.2208 8.16667 9.2475 22.1895
692 1 -1.1104 9.5116 7.75978 26.2251
693 2 2.2208 8.02519 12.0252 24.9664
694 2 2.2208 7.97851 6.51674 25.0861
695 2 2.2208 10.7994 6.45498 22.0779
696 2 2.2208 10.9809 12.1356 22.1671
697 1 -1.1104 12.2141 7.96876 23.2106
698 1 -1.1104 12.2906 7.93725 26.1315
699 1 -1.1104 11.9156 5.23146 23.6834
700 1 -1.1104 12.2282 10.6827 23.6033
701 2 2.2208 10.8449 9.28055 24.9445
702 1 -1.1104 12.4499 5.08336 26.4956
703 1 -1.1104 12.1118 10.8755 26.2684
704 1 -1.1104 9.53047 7.98779 23.5441
588 1 -1.1104 6.7531 19.0373 26.2455
545 1 -1.1104 0.887421 16.3012 20.6219
533 1 -1.1104 1.06485 13.6287 20.8256
559 1 -1.1104 3.79171 16.2862 20.6054
554 1 -1.1104 3.86106 18.9384 20.7432
535 1 -1.1104 1.18262 19.1115 20.7499
552 1 -1.1104 3.91006 13.5105 20.6712
647 2 2.2208 2.40792 14.937 22.1818
649 2 2.2208 2.65296 20.4121 22.0771
652 1 -1.1104 3.81413 16.2484 23.5703
655 1 -1.1104 1.08669 16.264 23.5689
681 1 -1.1104 4.0872 13.4093 26.5045
682 1 -1.1104 4.02947 16.2287 26.351
683 2 2.2208 2.55142 17.6504 24.8915
686 1 -1.1104 3.86463 19.0525 26.2997
705 2 2.2208 5.33192 17.5888 22.1226
706 1 -1.1104 1.11245 13.5908 23.6227
707 1 -1.1104 1.22862 19.0424 23.5451
711 1 -1.1104 4.04872 19.1168 23.4463
713 1 -1.1104 3.782 13.6266 23.5443
715 1 -1.1104 1.2742 19.0574 26.2623
716 1 -1.1104 1.22628 16.2705 26.351
717 1 -1.1104 1.15953 13.4779 26.2464
719 2 2.2208 5.16029 20.5328 25.0271
720 2 2.2208 5.39862 14.8464 25.0169
712 1 -1.1104 6.79191 13.4407 26.5372
714 1 -1.1104 6.75792 16.2929 26.4089
463 1 -1.1104 12.3734 13.512 23.4606
718 1 -1.1104 6.691 19.0853 23.4696
616 2 2.2208 8.12589 20.5279 22.2271
620 1 -1.1104 9.42877 16.3672 26.3717
539 1 -1.1104 6.88013 19.0371 20.8221
709 1 -1.1104 6.55664 13.341 23.625
615 2 2.2208 7.99517 14.8567 22.1932
561 1 -1.1104 9.50996 13.5123 23.5679
524 1 -1.1104 12.4729 16.3839 23.5056
562 1 -1.1104 9.46622 19.0983 23.3445
498 1 -1.1104 12.1974 13.4906 26.3228
497 1 -1.1104 12.4704 19.1572 23.5185
581 1 -1.1104 9.55525 19.1375 20.7868
567 1 -1.1104 12.3379 13.4363 20.5447
579 1 -1.1104 9.52944 13.4538 20.8376
526 2 2.2208 11.1693 20.486 25.0064
525 2 2.2208 10.8 14.8135 24.9751
560 1 -1.1104 12.3957 16.3091 26.2417
590 1 -1.1104 9.76156 18.9696 26.106
685 2 2.2208 -0.338727 12.0885 22.018
626 2 2.2208 -0.344347 3.58076 25.0175
624 2 2.2208 -0.336934 -2.11241 24.824
708 2 2.2208 13.6269 12.1817 24.9364
458 2 2.2208 -0.195567 20.4862 19.4307
336 2 2.2208 13.5011 6.42898 13.8731
461 2 2.2208 13.6984 20.5815 22.1106
360 2 2.2208 10.8883 20.5667 13.7732
365 2 2.2208 2.56069 -1.9204 27.6462
370 2 2.2208 8.04255 -1.89793 27.64
348 2 2.2208 10.9648 17.6111 27.6784
335 2 2.2208 -0.174716 20.638 13.8563
374 2 2.2208 5.42361 17.6512 27.7115
382 2 2.2208 -0.255503 12.1028 27.7021
354 2 2.2208 8.06431 6.45063 13.855
343 2 2.2208 7.98548 0.772255 13.7967
380 2 2.2208 2.28503 9.2035 27.6302
351 2 2.2208 2.55481 6.42271 13.8011
346 2 2.2208 10.8542 -2.05064 13.6062
387 2 2.2208 13.6235 9.38847 27.6665
368 2 2.2208 -0.361761 0.85318 27.65
366 2 2.2208 2.60815 3.77836 27.8143
721 2 2.2208 5.19527 23.2719 5.34742
722 2 2.2208 5.24559 28.8921 5.33324
723 1 -1.1104 1.30174 24.6903 0.981118
724 1 -1.1104 1.26746 24.7845 3.57844
725 1 -1.1104 1.05794 21.8409 1.14425
726 1 -1.1104 1.06965 27.2247 0.936038
727 2 2.2208 5.48651 26.1642 2.4955
728 1 -1.1104 1.16899 21.9281 3.88218
729 1 -1.1104 1.192 27.4805 3.76718
730 1 -1.1104 4.02221 24.7098 1.01381
731 2 2.2208 2.65424 23.2336 2.46204
732 2 2.2208 2.55866 28.7902 2.4195
733 1 -1.1104 3.92866 24.477 3.86269
734 2 2.2208 2.51946 26.0038 5.16124
735 1 -1.1104 3.90482 21.8302 1.04026
736 1 -1.1104 3.9936 27.5268 1.26122
737 1 -1.1104 3.94307 21.8428 3.79276
738 1 -1.1104 3.91387 27.4271 3.85164
1066 2 2.2208 5.22751 23.2457 -0.395351
1070 2 2.2208 5.30445 29.0373 -0.134874
743 1 -1.1104 6.73977 24.6758 4.07481
1053 2 2.2208 5.29494 31.6662 13.6217
744 1 -1.1104 6.55634 21.8626 1.00494
746 1 -1.1104 6.71033 21.8233 3.78125
1078 2 2.2208 5.06479 34.5336 -0.259342
1636 1 -1.1104 12.3179 47.1219 12.3691
1446 1 -1.1104 12.2977 47.0988 3.91554
747 1 -1.1104 6.83845 27.6013 3.90501
742 1 -1.1104 6.86734 24.6606 1.19716
745 1 -1.1104 6.65129 27.5105 1.06172
748 2 2.2208 10.9318 23.2406 5.4273
749 2 2.2208 10.9984 28.9791 5.29749
750 1 -1.1104 12.4942 24.6434 1.1966
751 1 -1.1104 12.3656 24.5542 4.12237
752 1 -1.1104 12.4273 21.6982 1.0847
753 1 -1.1104 12.4358 27.3254 1.28523
754 2 2.2208 11.1027 26.0687 2.62445
755 1 -1.1104 12.6056 21.7462 3.79966
756 1 -1.1104 12.2114 27.4662 3.98646
757 1 -1.1104 9.60101 24.4282 1.44217
758 2 2.2208 8.09691 23.2241 2.57819
759 2 2.2208 8.13657 28.9432 2.48688
760 1 -1.1104 9.56127 24.6375 3.97532
761 2 2.2208 8.12055 26.1685 5.37233
762 1 -1.1104 9.44703 21.7252 1.01636
763 1 -1.1104 9.49226 27.3538 1.31722
764 1 -1.1104 9.75092 21.7306 4.02149
765 1 -1.1104 9.47947 27.712 4.0092
1075 2 2.2208 10.9053 28.8932 -0.237944
1073 2 2.2208 8.1219 25.9853 -0.179125
1072 2 2.2208 10.9026 23.091 -0.155005
1443 1 -1.1104 12.4764 47.1173 0.868749
1076 2 2.2208 2.32302 37.5603 -0.166286
1077 2 2.2208 2.29665 31.6731 -0.140502
769 2 2.2208 5.18052 34.5063 5.40692
770 1 -1.1104 1.04524 30.1568 1.07303
771 1 -1.1104 0.98199 35.9699 1.21682
773 1 -1.1104 0.991122 30.296 3.81114
774 1 -1.1104 0.950656 36.1059 3.96971
776 1 -1.1104 0.975109 33.1264 1.1105
777 2 2.2208 5.0459 31.8313 2.55614
778 2 2.2208 5.27509 37.335 2.5667
779 1 -1.1104 0.947769 33.1905 3.72598
781 1 -1.1104 3.86555 30.4331 1.29639
782 1 -1.1104 3.77366 35.8789 1.20258
783 2 2.2208 2.32117 34.7539 2.60049
784 1 -1.1104 3.78596 30.3062 3.93402
785 1 -1.1104 3.86472 35.9389 3.85819
786 2 2.2208 2.48115 31.6532 5.22564
787 2 2.2208 2.54014 37.2855 5.45194
788 1 -1.1104 3.80581 33.0888 0.971974
789 1 -1.1104 3.73729 33.0596 3.85743
794 1 -1.1104 6.60956 30.2838 3.86069
1071 2 2.2208 -0.287631 28.814 -0.306531
772 1 -1.1104 6.84562 35.8799 1.16921
739 2 2.2208 -0.182786 26.1247 2.39641
1421 1 -1.1104 3.83519 47.211 1.07941
1009 1 -1.1104 9.4006 44.5957 12.5081
1010 2 2.2208 8.05998 31.8218 -0.13911
780 1 -1.1104 6.59394 33.1694 3.8969
793 1 -1.1104 6.74728 30.4017 1.23289
1059 2 2.2208 8.06282 37.4417 -0.164322
775 1 -1.1104 6.53705 35.9813 3.88636
795 1 -1.1104 6.64401 33.1769 1.2208
796 2 2.2208 11.0862 34.5485 5.51877
797 1 -1.1104 12.3187 30.3782 1.18421
798 1 -1.1104 12.4455 36.0385 1.29881
799 1 -1.1104 12.2032 30.4245 4.01874
800 1 -1.1104 12.4072 36.1399 4.1561
801 1 -1.1104 12.2212 33.1343 0.787891
802 2 2.2208 10.7247 31.7727 2.58256
803 2 2.2208 11.0162 37.5432 2.61257
804 1 -1.1104 12.2084 33.2953 3.9788
805 1 -1.1104 9.44207 30.3341 1.17573
806 1 -1.1104 9.63608 35.8735 1.3814
807 2 2.2208 8.11173 34.5497 2.69818
808 1 -1.1104 9.40633 30.323 3.93695
809 1 -1.1104 9.64495 36.0402 4.12941
810 2 2.2208 8.07641 31.7521 5.45217
811 2 2.2208 8.0797 37.1517 5.52485
812 1 -1.1104 9.49915 33.1919 1.16857
813 1 -1.1104 9.54283 33.1401 3.95186