ITEM: TIMESTEP
10000
ITEM: NUMBER OF ATOMS
17640
ITEM: BOX BOUNDS pp pp pp
-3.5717861578061472e-01 2.7697178615780590e+01
-4.4014555614542905e+00 3.3248145556145317e+02
-3.5363944217457177e-01 2.7693639442174231e+01
ITEM: ATOMS id type q x y z
1 2 2.2208 5.2571 1.31208 5.21979
2 1 -1.1104 1.00582 -2.97856 0.937835
3 1 -1.1104 0.91082 2.61361 0.887155
6 1 -1.1104 0.922125 -3.01646 3.82794
7 1 -1.1104 1.03817 2.63455 3.80327
10 1 -1.1104 0.93479 -0.136647 0.929779
12 2 2.2208 5.10299 -1.58758 2.41267
14 1 -1.1104 0.878469 -0.0387736 3.78389
16 1 -1.1104 3.80643 -2.93645 0.981856
17 1 -1.1104 3.6894 2.66329 0.78818
18 2 2.2208 2.32274 1.21007 2.37675
19 1 -1.1104 3.84054 -2.98524 3.75862
20 1 -1.1104 3.85862 2.68634 3.5632
21 2 2.2208 2.43783 -1.65275 5.14939
22 2 2.2208 2.38918 4.06204 5.26639
23 1 -1.1104 3.78598 -0.0424143 1.02985
24 1 -1.1104 3.76765 -0.225613 3.83002
11 1 -1.1104 6.72297 -0.15325 0.833058
13 2 2.2208 5.08907 4.01536 2.26222
174 1 -1.1104 3.64489 -0.185313 6.72322
8 1 -1.1104 6.43825 -2.80396 3.96788
361 2 2.2208 10.6407 15.3018 13.6258
166 1 -1.1104 0.899005 -2.95065 6.49398
172 1 -1.1104 3.71682 -3.087 6.45489
173 1 -1.1104 3.79556 2.60259 6.53719
169 1 -1.1104 6.52554 2.59905 6.40766
105 2 2.2208 13.6765 6.84598 2.33195
8926 2 2.2208 5.19544 -4.37081 5.19019
15 1 -1.1104 6.57217 0.025469 3.63768
360 2 2.2208 10.8282 20.7892 13.512
171 1 -1.1104 6.65446 -0.0136256 6.40504
4 1 -1.1104 6.5167 -2.88502 1.03945
5 1 -1.1104 6.57034 2.73664 1.09193
9 1 -1.1104 6.62532 2.77193 3.80603
31 2 2.2208 10.7933 1.23977 5.04078
32 1 -1.1104 12.2331 -2.91992 0.970343
33 1 -1.1104 12.1903 2.69029 0.924449
34 1 -1.1104 12.2051 -2.93853 3.79922
35 1 -1.1104 12.2502 2.87892 3.67212
36 1 -1.1104 12.203 -0.215746 0.839951
37 2 2.2208 10.7559 -1.51822 2.33906
38 2 2.2208 10.8808 4.16581 2.31655
39 1 -1.1104 12.312 -0.0626471 3.6792
40 1 -1.1104 9.34312 -2.99406 1.06943
41 1 -1.1104 9.40949 2.62471 0.753092
42 2 2.2208 7.98433 1.36722 2.26357
43 1 -1.1104 9.32065 -2.80416 3.78099
44 1 -1.1104 9.35972 2.78059 3.67934
45 2 2.2208 7.98283 -1.43244 5.02501
46 2 2.2208 7.9763 4.04553 5.14585
47 1 -1.1104 9.44108 -0.245012 0.758344
48 1 -1.1104 9.48116 -0.103561 3.6272
208 1 -1.1104 9.331 -2.8951 6.60134
49 2 2.2208 13.5923 1.2861 2.22842
206 1 -1.1104 12.1756 2.78444 6.45472
210 1 -1.1104 9.45605 -0.0962434 6.45162
209 1 -1.1104 9.33061 2.5634 6.55897
356 2 2.2208 7.9964 12.5934 13.5723
332 2 2.2208 13.566 18.0893 7.93446
54 2 2.2208 5.22165 6.81463 5.20516
55 2 2.2208 5.24853 12.4308 5.02568
56 1 -1.1104 0.983762 8.15853 0.964311
58 1 -1.1104 0.816349 8.2853 3.7205
60 1 -1.1104 0.983312 5.47758 1.14445
61 1 -1.1104 0.942022 11.0616 0.892707
66 2 2.2208 5.17096 9.58039 2.28006
67 1 -1.1104 0.988477 5.35488 3.78551
68 1 -1.1104 0.920068 11.1343 3.83972
71 1 -1.1104 3.85291 8.23645 0.972544
72 2 2.2208 2.40335 6.83292 2.53863
73 2 2.2208 2.24979 12.4818 2.40539
74 1 -1.1104 3.76754 8.14717 3.72808
75 2 2.2208 2.40766 9.66406 5.20146
76 1 -1.1104 3.8729 5.43353 0.748321
77 1 -1.1104 3.67272 11.0542 0.968495
79 1 -1.1104 3.80826 5.39303 3.78337
80 1 -1.1104 3.99065 10.9281 3.64801
63 1 -1.1104 6.49221 5.58001 0.903372
78 1 -1.1104 3.81069 10.9604 6.52402
239 1 -1.1104 3.83043 5.50103 6.46222
59 1 -1.1104 6.6007 8.30217 3.93208
70 1 -1.1104 6.64441 11.0339 3.77083
62 1 -1.1104 0.950725 11.0302 6.63593
236 1 -1.1104 0.895241 5.5452 6.63305
297 1 -1.1104 6.6472 13.8796 12.1868
340 2 2.2208 13.6007 1.32425 13.4966
57 1 -1.1104 6.67212 8.32323 0.897994
69 1 -1.1104 6.69873 5.60321 3.67352
64 1 -1.1104 6.57406 11.0278 0.997021
84 2 2.2208 10.9168 6.95 5.14909
85 2 2.2208 10.7952 12.4756 5.13969
86 1 -1.1104 12.1938 8.27409 0.942876
87 1 -1.1104 12.2674 8.24214 3.71837
88 1 -1.1104 12.153 5.52895 0.92209
89 1 -1.1104 12.1618 11.1727 0.938208
91 2 2.2208 10.8239 9.64739 2.46752
92 1 -1.1104 12.2524 5.60546 3.87135
93 1 -1.1104 12.104 11.1483 3.60658
94 1 -1.1104 9.42383 8.20418 1.02929
95 2 2.2208 8.09701 6.87562 2.38813
96 2 2.2208 8.0033 12.4204 2.25552
97 1 -1.1104 9.38822 8.2778 3.78964
98 2 2.2208 8.01442 9.63643 5.23394
99 1 -1.1104 9.48595 5.41872 0.871419
100 1 -1.1104 9.51241 11.078 1.00075
102 1 -1.1104 9.53262 5.47986 3.83492
103 1 -1.1104 9.36826 11.1093 3.77335
266 1 -1.1104 12.2148 5.60034 6.60335
101 1 -1.1104 9.51628 10.9905 6.62353
267 1 -1.1104 9.33328 8.12257 6.53837
50 2 2.2208 13.6818 -1.49245 5.14547
90 1 -1.1104 12.3222 11.0704 6.47807
269 1 -1.1104 9.33573 5.43456 6.53546
52 2 2.2208 13.5822 9.62996 10.7825
106 2 2.2208 5.14244 17.8857 5.1334
107 1 -1.1104 1.04071 13.8436 0.801204
109 1 -1.1104 0.847882 19.3589 0.935995
113 1 -1.1104 0.908013 13.9618 3.70543
114 1 -1.1104 0.853463 19.6336 3.80825
116 1 -1.1104 0.968859 16.6868 0.98181
119 2 2.2208 5.16183 15.2222 2.35295
120 2 2.2208 5.03558 20.7905 2.4475
121 1 -1.1104 0.960427 16.6221 3.76851
123 1 -1.1104 3.75498 13.8341 0.966155
125 1 -1.1104 3.67253 19.429 0.920812
127 2 2.2208 2.34703 18.1277 2.3169
128 1 -1.1104 3.79165 13.7511 3.72687
129 1 -1.1104 3.60782 19.4708 3.88333
130 2 2.2208 2.35606 15.1069 5.10937
131 2 2.2208 2.25223 20.8613 5.17827
132 1 -1.1104 3.73714 16.7338 0.87673
134 1 -1.1104 3.63114 16.6074 3.76498
117 1 -1.1104 0.999512 16.6994 6.53636
126 1 -1.1104 3.78612 19.3521 6.60741
115 1 -1.1104 6.59427 13.7837 3.66459
122 1 -1.1104 6.61008 16.5137 3.74554
139 1 -1.1104 6.34591 19.3208 3.73829
112 1 -1.1104 6.57908 19.3448 6.4556
124 1 -1.1104 3.66326 13.7191 6.51932
203 2 2.2208 13.6446 4.08869 10.6647
362 2 2.2208 7.99762 18.0048 13.6132
110 1 -1.1104 6.58923 13.876 0.929696
319 1 -1.1104 9.34707 13.9521 9.48688
138 1 -1.1104 6.44186 19.4163 0.937878
118 1 -1.1104 6.57437 16.6639 6.56156
140 1 -1.1104 6.38163 16.6474 0.926634
141 2 2.2208 10.6753 17.9954 5.12109
142 1 -1.1104 12.248 14.0395 0.858802
144 1 -1.1104 12.2199 19.4276 0.921995
146 1 -1.1104 12.1818 13.8888 3.69493
147 1 -1.1104 12.0167 19.3523 3.71711
148 1 -1.1104 12.0759 16.805 0.958009
150 2 2.2208 10.8077 15.256 2.31765
151 2 2.2208 10.6648 20.8838 2.36552
152 1 -1.1104 12.1766 16.6498 3.65792
153 1 -1.1104 9.26065 13.857 0.873249
155 1 -1.1104 9.14727 19.344 0.895279
157 2 2.2208 7.85972 18.0653 2.38392
158 1 -1.1104 9.44728 13.8674 3.90288
159 1 -1.1104 9.32345 19.4491 3.58297
160 2 2.2208 7.97668 15.0734 5.0789
161 2 2.2208 7.99406 20.8315 5.11645
162 1 -1.1104 9.27322 16.5966 0.856135
164 1 -1.1104 9.31614 16.5941 3.75182
154 1 -1.1104 9.29697 13.7718 6.55312
163 1 -1.1104 9.25982 16.5826 6.58447
145 1 -1.1104 12.0395 19.299 6.44759
156 1 -1.1104 9.47834 19.538 6.59719
296 1 -1.1104 6.63711 19.384 12.2263
8931 2 2.2208 2.28539 -4.31714 7.94968
204 2 2.2208 13.5495 15.2579 4.89508
306 1 -1.1104 6.54111 16.7178 12.2999
328 1 -1.1104 12.0862 13.9033 9.30358
168 1 -1.1104 6.48086 -2.81576 6.66119
289 1 -1.1104 6.46368 16.7332 9.40882
170 1 -1.1104 1.05764 -0.224585 6.55627
167 1 -1.1104 0.959774 2.60977 6.60228
175 2 2.2208 5.20515 1.35888 10.8144
176 1 -1.1104 1.03461 -2.95286 12.0921
177 1 -1.1104 0.977992 2.87769 12.2611
180 1 -1.1104 0.914815 -2.88621 9.25705
181 1 -1.1104 1.05399 2.63773 9.43116
184 1 -1.1104 0.991208 -0.127473 12.1619
186 2 2.2208 5.21054 -1.34962 7.91774
187 2 2.2208 5.28209 4.08369 7.95249
188 1 -1.1104 0.93992 -0.186009 9.39158
190 1 -1.1104 3.81183 -2.99903 12.2052
191 1 -1.1104 3.82055 2.60334 12.0572
192 2 2.2208 2.32166 1.35296 8.0101
193 1 -1.1104 3.83299 -2.81182 9.23037
194 1 -1.1104 3.72694 2.86009 9.23935
195 2 2.2208 2.36545 -1.4221 10.7651
196 2 2.2208 2.46114 4.2452 10.6964
197 1 -1.1104 3.7949 -0.101091 12.2113
198 1 -1.1104 3.87876 0.0027174 9.49064
185 1 -1.1104 6.56552 -0.195112 12.1195
189 1 -1.1104 6.69693 -0.0182195 9.33722
178 1 -1.1104 6.49299 -2.966 12.1541
179 1 -1.1104 6.64656 2.64309 12.1519
323 1 -1.1104 12.0631 16.6778 9.35657
230 2 2.2208 13.6708 -1.56594 10.706
8929 2 2.2208 10.7015 -4.21336 5.19132
338 2 2.2208 5.11811 -1.49603 13.5427
327 1 -1.1104 12.1333 19.4863 9.32316
343 2 2.2208 7.93616 1.2012 13.4904
229 2 2.2208 13.5304 1.32435 7.79657
205 1 -1.1104 12.1191 -3.0222 6.66203
183 1 -1.1104 6.57169 2.75044 9.38041
182 1 -1.1104 6.65525 -2.96246 9.41277
207 1 -1.1104 12.2175 -0.129554 6.49458
211 2 2.2208 10.7994 1.21968 10.6187
212 1 -1.1104 12.3749 -2.92322 12.1854
213 1 -1.1104 12.3367 2.50338 12.0859
214 1 -1.1104 12.2341 -2.81088 9.42829
215 1 -1.1104 12.1442 2.69838 9.25304
216 1 -1.1104 12.2382 -0.0995696 11.9766
217 2 2.2208 10.8306 -1.51448 7.87696
218 2 2.2208 10.7218 3.94936 7.90013
219 1 -1.1104 12.258 -0.0878353 9.25576
220 1 -1.1104 9.39544 -2.84427 12.158
221 1 -1.1104 9.4029 2.64505 11.9281
222 2 2.2208 7.92107 1.28542 7.87977
223 1 -1.1104 9.42904 -2.90409 9.35658
224 1 -1.1104 9.32686 2.50525 9.1659
225 2 2.2208 8.04118 -1.45161 10.7301
226 2 2.2208 8.0529 4.0682 10.6747
227 1 -1.1104 9.42 -0.0827838 12.0283
228 1 -1.1104 9.47492 -0.231362 9.18947
330 1 -1.1104 12.2461 13.762 12.0276
355 2 2.2208 10.646 9.70475 13.5382
350 2 2.2208 10.6951 4.00823 13.4794
53 2 2.2208 13.6744 12.54 7.87261
333 2 2.2208 13.5714 15.282 10.7542
353 2 2.2208 2.27308 12.5702 13.6293
234 1 -1.1104 0.880213 8.33585 6.45392
238 1 -1.1104 3.6078 8.31592 6.61517
240 2 2.2208 5.24069 6.91218 10.7461
241 2 2.2208 5.16573 12.4334 10.7295
242 1 -1.1104 1.02236 8.30132 12.2919
244 1 -1.1104 0.866174 8.37321 9.4719
246 1 -1.1104 1.0973 5.56221 12.2741
247 1 -1.1104 0.85586 11.2065 12.3529
250 2 2.2208 5.12419 9.65662 7.97593
251 1 -1.1104 0.968585 5.5512 9.32478
252 1 -1.1104 0.725524 11.1131 9.39973
255 1 -1.1104 3.72944 8.14102 12.0143
256 2 2.2208 2.31629 6.9678 7.99455
257 2 2.2208 2.4511 12.4636 7.9265
258 1 -1.1104 3.66338 8.29768 9.23532
259 2 2.2208 2.34276 9.62421 10.858
260 1 -1.1104 3.88739 5.50373 12.3863
261 1 -1.1104 3.64615 11.1137 12.0193
262 1 -1.1104 3.79702 5.58482 9.42195
263 1 -1.1104 3.73126 10.9686 9.29193
235 1 -1.1104 6.48752 8.22417 6.69458
65 1 -1.1104 6.60202 11.0028 6.52505
249 1 -1.1104 6.53805 11.0132 12.2166
253 1 -1.1104 6.56017 5.46287 9.2119
351 2 2.2208 2.37174 6.75363 13.6752
352 2 2.2208 5.16975 9.63039 13.5382
325 2 2.2208 10.6901 15.2473 7.95688
237 1 -1.1104 6.69927 5.44394 6.50448
265 1 -1.1104 12.1113 8.32295 6.51994
243 1 -1.1104 6.56588 8.18045 12.1071
245 1 -1.1104 6.45781 8.37858 9.3892
341 2 2.2208 5.32122 4.0271 13.605
254 1 -1.1104 6.48416 10.9976 9.50215
248 1 -1.1104 6.52246 5.28341 11.985
264 1 -1.1104 9.40817 11.0021 9.37814
268 1 -1.1104 9.41019 5.4341 9.30129
270 1 -1.1104 9.27474 10.9622 12.2577
271 1 -1.1104 9.32813 5.28832 12.0759
272 2 2.2208 7.81312 9.6653 10.8081
273 1 -1.1104 9.21434 8.17158 9.33061
274 2 2.2208 8.02272 12.3183 8.05088
275 2 2.2208 8.03483 6.73321 7.82595
276 2 2.2208 10.7928 6.74815 10.7926
277 2 2.2208 10.9009 12.4281 10.7925
278 1 -1.1104 12.2154 8.19074 12.1078
279 1 -1.1104 12.041 8.14308 9.37753
280 1 -1.1104 12.1506 5.34083 12.2327
281 1 -1.1104 12.0847 11.0143 12.2662
282 2 2.2208 10.7807 9.52401 8.00466
283 1 -1.1104 12.1142 5.39251 9.32522
284 1 -1.1104 12.1001 10.9157 9.44595
285 1 -1.1104 9.25063 8.29547 12.1084
354 2 2.2208 7.91332 6.91444 13.5508
8934 2 2.2208 8.01909 -4.22802 7.98672
336 2 2.2208 13.596 6.86659 13.5489
346 2 2.2208 10.8494 -1.55024 13.4059
316 2 2.2208 8.11234 20.764 10.845
329 1 -1.1104 12.1943 19.3922 12.1047
108 1 -1.1104 0.851954 13.944 6.44056
302 1 -1.1104 1.01214 19.5755 6.65613
133 1 -1.1104 3.82796 16.5047 6.36462
288 1 -1.1104 6.43895 19.4082 9.31627
290 1 -1.1104 6.5342 13.7382 9.34839
8936 2 2.2208 13.5798 -4.30103 8.0414
293 2 2.2208 5.19965 20.748 7.9866
298 1 -1.1104 1.04514 19.4994 12.2305
295 2 2.2208 5.26089 15.2005 7.96139
291 1 -1.1104 0.78811 19.5114 9.42416
294 1 -1.1104 1.12929 13.7859 9.32011
310 2 2.2208 2.4209 15.2703 10.682
309 2 2.2208 2.34548 20.8934 10.9094
308 1 -1.1104 3.79108 16.7584 12.0556
307 1 -1.1104 0.972461 16.818 12.2698
305 1 -1.1104 3.8625 13.9147 9.38197
304 1 -1.1104 3.71998 16.5278 9.27167
303 2 2.2208 2.36173 18.0429 7.90157
301 1 -1.1104 3.7515 19.4226 9.416
300 2 2.2208 5.16144 18.0436 10.7985
292 1 -1.1104 0.823578 16.6485 9.37579
299 1 -1.1104 0.844877 14.0249 12.0741
286 1 -1.1104 3.81192 19.4436 12.2479
287 1 -1.1104 3.77949 13.9371 12.0951
358 2 2.2208 5.12993 20.9011 13.5389
202 2 2.2208 13.5661 6.89171 7.90413
357 2 2.2208 2.33693 18.1101 13.6883
324 2 2.2208 10.7893 20.7498 7.86461
315 1 -1.1104 9.39574 16.5293 12.0074
314 1 -1.1104 9.26781 16.6458 9.22825
322 1 -1.1104 9.41009 13.7649 12.2833
331 2 2.2208 10.7387 18.0133 10.7374
111 1 -1.1104 6.50103 13.6996 6.46985
318 1 -1.1104 9.36301 19.3117 9.30208
320 2 2.2208 7.82107 18.0338 7.91348
149 1 -1.1104 12.1721 16.5689 6.56838
143 1 -1.1104 12.0639 13.8883 6.44539
317 2 2.2208 7.85432 15.2848 10.8374
321 1 -1.1104 9.44637 19.3442 12.138
326 1 -1.1104 12.2092 16.6765 12.2866
233 2 2.2208 13.6452 4.23411 5.15402
104 2 2.2208 13.571 12.4764 2.18955
25 2 2.2208 -0.513694 -1.52156 2.32079
231 2 2.2208 13.5904 20.9358 5.16149
232 2 2.2208 13.6329 9.69781 5.09978
342 2 2.2208 -0.481606 15.2695 13.4916
137 2 2.2208 -0.390139 17.9869 5.03718
26 2 2.2208 -0.404494 1.26002 5.11175
311 2 2.2208 -0.379586 20.7776 8.03149
363 2 2.2208 13.6002 18.1656 13.5841
28 2 2.2208 13.6128 20.8947 10.7324
369 2 2.2208 10.8942 1.27201 -0.594222
347 2 2.2208 7.95465 15.3209 -0.502686
388 2 2.2208 5.18287 1.25581 16.3601
389 1 -1.1104 1.12864 -3.00238 17.7628
390 1 -1.1104 0.950604 2.64509 17.7344
393 1 -1.1104 0.974529 -2.80358 14.9893
395 1 -1.1104 1.11951 2.82962 14.978
401 1 -1.1104 1.12055 -0.195451 17.9095
403 2 2.2208 5.27246 -1.42755 19.1618
404 2 2.2208 5.18505 4.06116 19.1963
405 1 -1.1104 1.00879 -0.0179276 15.0251
409 1 -1.1104 3.81291 -2.79391 17.9219
410 1 -1.1104 3.70533 2.76536 17.7487
411 2 2.2208 2.40844 1.35122 19.1543
412 1 -1.1104 3.80096 -3.09822 15.1329
414 1 -1.1104 3.742 2.59052 15.1165
416 2 2.2208 2.47042 -1.53322 16.5557
417 2 2.2208 2.30168 4.16276 16.463
418 1 -1.1104 3.96452 -0.000317335 17.8897
419 1 -1.1104 3.81462 -0.168959 14.9854
399 1 -1.1104 6.67261 2.62103 14.887
397 1 -1.1104 6.60337 -2.78832 14.8225
623 2 2.2208 -0.510281 18.0907 21.9443
396 1 -1.1104 0.881542 2.55135 20.5632
392 1 -1.1104 6.66036 2.5846 17.6761
402 1 -1.1104 6.67266 -0.131355 17.8558
408 1 -1.1104 6.60356 -0.154908 20.4766
589 1 -1.1104 9.37117 13.7862 26.1746
406 1 -1.1104 0.935755 -0.244287 20.6309
420 1 -1.1104 3.82321 -0.122347 20.6272
400 1 -1.1104 6.57549 2.6254 20.6028
415 1 -1.1104 3.71485 2.69012 20.5659
463 1 -1.1104 12.067 13.841 23.2988
407 1 -1.1104 6.71287 -0.0448187 15.0725
708 2 2.2208 13.5593 12.4781 24.7385
378 2 2.2208 13.5967 4.13327 27.5958
459 2 2.2208 13.6057 -1.66393 16.361
391 1 -1.1104 6.52442 -2.91009 17.7148
431 2 2.2208 10.7719 1.2707 16.2082
432 1 -1.1104 12.2107 -2.7997 17.7884
433 1 -1.1104 12.3347 2.60499 17.5866
434 1 -1.1104 12.1527 -2.98429 14.9318
436 1 -1.1104 12.1055 2.68392 14.9487
438 1 -1.1104 12.0749 -0.155454 17.7672
439 2 2.2208 10.8002 -1.57183 19.1194
440 2 2.2208 10.825 3.99542 19.0563
441 1 -1.1104 12.2252 -0.0808807 14.8822
443 1 -1.1104 9.4046 -2.95698 17.8508
444 1 -1.1104 9.47209 2.63407 17.7388
445 2 2.2208 7.98156 1.15079 19.042
446 1 -1.1104 9.33584 -2.82689 14.9227
448 1 -1.1104 9.22409 2.74062 14.7923
450 2 2.2208 8.02581 -1.64239 16.2822
451 2 2.2208 7.9879 4.06403 16.3202
452 1 -1.1104 9.34461 -0.173467 17.6773
453 1 -1.1104 9.51225 -0.108717 14.7818
442 1 -1.1104 12.1365 -0.24351 20.5341
447 1 -1.1104 9.40419 -2.86768 20.5663
398 1 -1.1104 6.55559 -2.90655 20.5938
454 1 -1.1104 9.27609 -0.0931235 20.6122
429 2 2.2208 13.6597 4.05726 16.2128
437 1 -1.1104 12.1652 2.64965 20.4251
435 1 -1.1104 12.194 -2.98916 20.463
449 1 -1.1104 9.43592 2.73015 20.3474
464 2 2.2208 5.12189 6.87428 16.3853
465 2 2.2208 5.17963 12.6043 16.3758
466 1 -1.1104 0.987786 8.1905 17.5509
468 1 -1.1104 0.868205 8.31682 14.9216
472 1 -1.1104 0.826258 5.41279 17.8785
473 1 -1.1104 0.901334 11.0876 17.7318
476 2 2.2208 5.05788 9.66279 19.1534
477 1 -1.1104 1.03515 5.61543 15.0361
479 1 -1.1104 0.966809 11.1402 15.0437
485 1 -1.1104 3.72616 8.36709 17.7562
486 2 2.2208 2.42143 6.80713 19.2052
487 2 2.2208 2.27302 12.3347 19.1577
488 1 -1.1104 3.87291 8.13708 15.0369
490 2 2.2208 2.4367 9.65674 16.2828
491 1 -1.1104 3.74224 5.5936 17.726
492 1 -1.1104 3.76431 11.1236 17.6412
493 1 -1.1104 3.8257 5.39978 15.0628
495 1 -1.1104 3.75011 11.1677 14.8688
467 1 -1.1104 6.55301 8.17826 17.6831
474 1 -1.1104 6.52829 5.34615 17.7581
475 1 -1.1104 6.50298 10.9697 17.8086
470 1 -1.1104 6.56442 8.25361 14.8553
489 1 -1.1104 3.65247 8.3118 20.5332
469 1 -1.1104 0.848946 8.17017 20.4665
480 1 -1.1104 0.894252 10.9338 20.4729
478 1 -1.1104 1.09304 5.32447 20.5986
496 1 -1.1104 3.54767 11.042 20.6761
590 1 -1.1104 9.47297 19.4184 26.0783
348 2 2.2208 10.6961 17.948 27.5513
483 1 -1.1104 6.57631 11.2582 15.0943
482 1 -1.1104 6.59457 5.58599 20.5422
481 1 -1.1104 6.62344 5.34467 14.8724
500 2 2.2208 10.6557 6.78754 16.3867
501 2 2.2208 10.7532 12.4382 16.2991
502 1 -1.1104 12.1401 8.38294 17.663
503 1 -1.1104 12.1341 8.40124 14.7798
505 1 -1.1104 12.1286 5.46098 17.637
506 1 -1.1104 12.1139 11.0893 17.8254
507 2 2.2208 10.636 9.54361 19.2408
508 1 -1.1104 12.1008 5.49328 15.0384
510 1 -1.1104 12.0486 11.0972 15.018
512 1 -1.1104 9.35696 8.21256 17.7714
513 2 2.2208 7.97021 6.91633 19.1737
514 2 2.2208 7.91828 12.4764 19.3385
515 1 -1.1104 9.26689 8.20641 14.9858
517 2 2.2208 7.95884 9.65952 16.3657
518 1 -1.1104 9.27279 5.50479 17.6708
519 1 -1.1104 9.32506 11.0805 17.7399
520 1 -1.1104 9.36392 5.5041 14.7058
522 1 -1.1104 9.18937 11.1196 14.8958
516 1 -1.1104 9.27725 8.34404 20.7109
521 1 -1.1104 9.27725 5.47637 20.4264
509 1 -1.1104 12.0675 5.44173 20.3883
504 1 -1.1104 12.3597 8.21818 20.5303
9055 2 2.2208 7.96506 -4.2624 19.2385
527 2 2.2208 5.11223 18.163 16.4018
528 1 -1.1104 0.985371 13.9643 17.8672
529 1 -1.1104 0.947847 19.6965 17.7805
532 1 -1.1104 0.887712 13.9497 14.7968
534 1 -1.1104 0.990658 19.5776 15.0092
540 1 -1.1104 0.909226 16.8679 17.8918
542 2 2.2208 5.0676 15.2791 19.2208
543 2 2.2208 5.07805 20.9763 19.0998
544 1 -1.1104 0.971605 16.7358 15.0785
548 1 -1.1104 3.74638 13.9038 17.7655
549 1 -1.1104 3.82078 19.5256 17.7559
550 2 2.2208 2.26557 18.2268 19.2323
551 1 -1.1104 3.61637 14.0363 15.0688
553 1 -1.1104 3.7668 19.6813 14.9489
555 2 2.2208 2.29399 15.3 16.5211
556 2 2.2208 2.37548 20.9624 16.4035
557 1 -1.1104 3.58628 16.6546 17.7757
558 1 -1.1104 3.72564 16.8285 15.0642
538 1 -1.1104 6.56944 19.4628 14.9705
545 1 -1.1104 0.982573 16.7563 20.7345
535 1 -1.1104 0.956746 19.6513 20.3663
533 1 -1.1104 1.02593 13.7188 20.5702
531 1 -1.1104 6.57447 19.5282 17.7848
546 1 -1.1104 6.42047 16.5921 15.07
539 1 -1.1104 6.46052 19.6517 20.6134
562 1 -1.1104 9.41222 19.5032 23.2387
615 2 2.2208 7.86893 15.3892 21.8799
567 1 -1.1104 12.1426 13.9521 20.4797
530 1 -1.1104 6.53596 13.8318 17.9558
541 1 -1.1104 6.46927 16.7835 17.9536
536 1 -1.1104 6.45726 14.1147 14.9909
563 2 2.2208 10.7795 17.999 16.3956
564 1 -1.1104 12.0476 13.873 17.7647
565 1 -1.1104 12.2787 19.4109 17.9071
566 1 -1.1104 12.2377 13.9552 14.9476
568 1 -1.1104 12.3598 19.5847 15.0693
570 1 -1.1104 12.0903 16.6941 17.7672
571 2 2.2208 10.6765 15.3455 19.1044
572 2 2.2208 10.6131 20.8925 19.113
573 1 -1.1104 12.1364 16.7553 14.9361
575 1 -1.1104 9.38933 13.8394 17.6983
576 1 -1.1104 9.47079 19.4887 17.6499
577 2 2.2208 7.97319 18.0448 19.1505
578 1 -1.1104 9.28457 14.0064 14.9559
580 1 -1.1104 9.3468 19.4847 14.8527
582 2 2.2208 7.94321 15.2259 16.4654
583 2 2.2208 7.93203 20.8963 16.3577
584 1 -1.1104 9.30401 16.5893 17.842
585 1 -1.1104 9.27112 16.6632 15.0161
586 1 -1.1104 9.32677 16.6788 20.6441
547 1 -1.1104 6.47958 16.7879 20.6385
569 1 -1.1104 12.1732 19.5061 20.6389
413 1 -1.1104 3.89892 -2.90179 20.5309
394 1 -1.1104 1.07368 -2.92651 20.6823
591 2 2.2208 5.29991 1.29526 21.9336
592 1 -1.1104 1.0275 -2.84146 23.3945
593 1 -1.1104 1.04202 2.75124 23.2692
596 1 -1.1104 0.91018 -2.92465 26.2423
597 1 -1.1104 0.997585 2.81789 26.1665
600 1 -1.1104 1.06388 0.00600247 23.5339
602 2 2.2208 5.23673 -1.54872 24.6643
603 2 2.2208 5.17189 4.04645 24.7801
604 1 -1.1104 0.966632 0.00488922 26.1873
606 1 -1.1104 3.70716 -3.03346 23.3751
607 1 -1.1104 3.79863 2.56645 23.3635
608 2 2.2208 2.50431 1.33312 24.8345
609 1 -1.1104 3.80578 -2.97055 26.2857
610 1 -1.1104 3.92516 2.65337 26.2428
611 2 2.2208 2.39165 -1.56864 21.9827
612 2 2.2208 2.45569 4.13911 21.9599
613 1 -1.1104 3.93368 -0.165088 23.4434
614 1 -1.1104 3.82215 -0.163172 26.3467
605 1 -1.1104 6.6005 -0.23158 26.1359
595 1 -1.1104 6.65244 2.66426 23.383
594 1 -1.1104 6.64572 -2.91962 23.3508
601 1 -1.1104 6.64308 -0.105764 23.1411
599 1 -1.1104 6.71747 2.65169 26.2368
364 2 2.2208 5.17387 1.28866 27.6195
365 2 2.2208 2.38828 -1.5037 27.6859
598 1 -1.1104 6.65447 -3.01762 26.2656
423 2 2.2208 13.5984 4.0856 21.8118
627 2 2.2208 10.7576 1.21632 21.8297
628 1 -1.1104 12.2442 -2.9697 23.4106
629 1 -1.1104 12.0889 2.69392 23.2253
630 1 -1.1104 12.2314 -2.92955 26.2838
631 1 -1.1104 12.2296 2.74193 26.0549
632 1 -1.1104 12.3347 -0.0203988 23.294
633 2 2.2208 10.8871 -1.59698 24.9418
634 2 2.2208 10.7611 3.99875 24.7036
635 1 -1.1104 12.3066 -0.155674 26.1269
636 1 -1.1104 9.44732 -2.88439 23.3874
637 1 -1.1104 9.26646 2.47631 23.1359
638 2 2.2208 7.9876 1.22956 24.8688
639 1 -1.1104 9.47663 -3.06324 26.2579
640 1 -1.1104 9.38086 2.60616 26.0296
641 2 2.2208 8.12334 -1.49275 21.9685
642 2 2.2208 8.02248 4.07023 21.9563
643 1 -1.1104 9.57639 -0.203139 23.4359
644 1 -1.1104 9.44045 -0.241865 26.2556
387 2 2.2208 13.5427 9.77711 27.504
525 2 2.2208 10.6953 15.1906 24.5504
370 2 2.2208 7.99772 -1.63796 27.6013
9087 2 2.2208 -0.458941 -4.35556 16.2282
372 2 2.2208 7.9468 4.04176 27.6284
9020 2 2.2208 5.23591 -4.28427 22.046
494 1 -1.1104 3.80759 5.51317 20.5248
656 2 2.2208 5.19038 6.93123 22.0241
657 2 2.2208 5.07 12.4989 22.0345
658 1 -1.1104 1.12703 8.13421 23.3704
660 1 -1.1104 0.930396 8.19259 26.0264
662 1 -1.1104 1.11019 5.32498 23.4225
663 1 -1.1104 0.933772 11.0229 23.3798
666 2 2.2208 5.29244 9.64752 24.7978
667 1 -1.1104 0.994986 5.58444 26.2751
668 1 -1.1104 0.976159 11.0829 26.2267
671 1 -1.1104 3.89514 8.2805 23.406
672 2 2.2208 2.47074 6.90192 24.7275
673 2 2.2208 2.48004 12.5377 24.8095
674 1 -1.1104 3.85169 8.24865 26.2041
675 2 2.2208 2.35074 9.6382 21.9484
676 1 -1.1104 3.99821 5.39849 23.2694
677 1 -1.1104 3.68517 11.0144 23.3781
678 1 -1.1104 3.87366 5.45838 25.9888
679 1 -1.1104 3.77536 11.0193 26.293
661 1 -1.1104 6.64111 8.32372 25.9404
664 1 -1.1104 6.73443 5.47721 23.3344
665 1 -1.1104 6.56132 11.0697 23.5928
669 1 -1.1104 6.75696 5.52888 26.1625
380 2 2.2208 2.37669 9.72963 27.628
460 2 2.2208 13.569 20.9013 16.5128
385 2 2.2208 8.07712 9.65574 27.6074
620 1 -1.1104 9.43915 16.6677 25.9424
484 1 -1.1104 6.38588 11.2385 20.5755
471 1 -1.1104 6.42425 8.35511 20.4803
523 1 -1.1104 9.3648 11.1016 20.5988
428 2 2.2208 13.4622 1.23384 19.0464
670 1 -1.1104 6.7027 11.0647 26.1923
659 1 -1.1104 6.69861 8.33671 23.2318
511 1 -1.1104 12.1096 11.0942 20.7711
687 1 -1.1104 9.34578 11.0336 26.2714
688 1 -1.1104 9.36608 5.4095 26.2641
689 1 -1.1104 9.38879 11.1827 23.373
690 1 -1.1104 9.48789 5.5533 23.3584
691 2 2.2208 7.94268 9.84023 22.0381
692 1 -1.1104 9.53523 8.2834 26.111
693 2 2.2208 8.02299 12.5784 24.7298
694 2 2.2208 8.12653 6.8647 24.791
695 2 2.2208 10.9274 6.93683 22.0531
696 2 2.2208 10.7901 12.5024 21.9036
697 1 -1.1104 12.349 8.40871 23.3095
698 1 -1.1104 12.2929 8.18318 26.1348
699 1 -1.1104 12.3353 5.45756 23.2946
700 1 -1.1104 12.2315 11.0779 23.3602
701 2 2.2208 10.8106 9.75773 24.7672
702 1 -1.1104 12.0762 5.54152 26.1594
703 1 -1.1104 12.0701 10.9925 26.1966
704 1 -1.1104 9.38232 8.40122 23.4265
375 2 2.2208 2.1621 20.874 27.7122
9016 2 2.2208 8.03003 -4.30292 24.8433
616 2 2.2208 7.92958 20.83 21.9142
366 2 2.2208 2.33386 4.14163 27.6867
552 1 -1.1104 3.69027 13.8819 20.596
554 1 -1.1104 3.52572 19.6661 20.6364
579 1 -1.1104 9.31315 13.9497 20.5682
709 1 -1.1104 6.55465 13.7958 23.3853
559 1 -1.1104 3.59535 16.6765 20.5872
647 2 2.2208 2.39992 15.2335 22.0849
649 2 2.2208 2.19922 20.9143 21.8885
652 1 -1.1104 3.75167 16.7234 23.438
655 1 -1.1104 1.03091 16.812 23.4006
681 1 -1.1104 3.97522 13.9281 26.0368
682 1 -1.1104 3.67901 16.7003 26.2286
683 2 2.2208 2.33514 18.2201 24.7932
686 1 -1.1104 3.68746 19.5912 26.041
705 2 2.2208 4.86667 18.199 21.911
706 1 -1.1104 1.05424 14.024 23.4069
707 1 -1.1104 0.839486 19.7086 23.3236
711 1 -1.1104 3.60043 19.6041 23.4372
713 1 -1.1104 3.70979 13.7867 23.4509
715 1 -1.1104 0.880779 19.5748 26.1166
716 1 -1.1104 1.00453 16.753 26.294
717 1 -1.1104 1.16143 13.9028 26.0788
719 2 2.2208 5.16059 20.8065 24.6933
720 2 2.2208 5.13147 15.44 24.7859
617 1 -1.1104 9.27295 16.5712 23.2693
650 2 2.2208 13.4604 12.5017 19.1706
384 2 2.2208 10.8286 6.92036 27.6198
499 1 -1.1104 12.1601 19.3597 26.0783
680 1 -1.1104 6.3593 16.6384 23.3273
498 1 -1.1104 12.1592 13.894 26.0524
537 1 -1.1104 6.37819 14.0226 20.6906
574 1 -1.1104 12.0526 16.7491 20.4533
581 1 -1.1104 9.33075 19.4762 20.4305
718 1 -1.1104 6.50143 19.3344 23.2906
588 1 -1.1104 6.55682 19.4038 26.0469
714 1 -1.1104 6.51809 16.7882 26.1972
712 1 -1.1104 6.56889 13.9172 26.1136
560 1 -1.1104 12.1842 16.6132 26.172
524 1 -1.1104 12.0873 16.604 23.2661
526 2 2.2208 10.7016 20.9309 24.7322
561 1 -1.1104 9.31904 13.9096 23.3869
587 2 2.2208 8.10419 18.0894 24.6524
497 1 -1.1104 12.1173 19.4333 23.324
462 2 2.2208 10.7321 18.0434 21.9224
386 2 2.2208 10.7702 12.5271 27.5517
461 2 2.2208 13.5449 20.9368 21.9815
379 2 2.2208 5.36841 7.03182 27.5033
381 2 2.2208 5.08129 12.5343 27.5347
457 2 2.2208 -0.447897 15.2748 19.1928
374 2 2.2208 5.13929 18.0867 27.6029
653 2 2.2208 13.585 -1.53362 21.9443
373 2 2.2208 2.36507 15.2645 27.5713
349 2 2.2208 7.8 20.8757 27.6005
645 2 2.2208 -0.391294 20.9923 24.8264
654 2 2.2208 13.7195 1.37001 24.6755
8944 2 2.2208 5.14551 -4.33973 27.7071
618 2 2.2208 13.5555 18.1369 19.1607
710 2 2.2208 13.6843 6.9136 24.736
426 2 2.2208 13.5089 9.80468 16.3742
430 2 2.2208 13.5359 15.2382 21.8473
339 2 2.2208 2.40384 1.37824 13.572
359 2 2.2208 5.03851 15.2845 13.5184
345 2 2.2208 13.5096 20.8654 27.5707
721 2 2.2208 5.22054 23.5242 5.22
722 2 2.2208 5.16513 29.1405 5.27131
723 1 -1.1104 0.995944 25.104 0.767781
724 1 -1.1104 0.919572 25.0438 3.76962
725 1 -1.1104 0.904639 22.1822 0.93066
726 1 -1.1104 0.843707 27.8501 0.976328
727 2 2.2208 5.12171 26.4469 2.55145
728 1 -1.1104 0.684804 22.3709 3.84746
729 1 -1.1104 0.960448 27.9151 3.62061
730 1 -1.1104 3.7524 25.0605 1.10905
731 2 2.2208 2.29041 23.5968 2.37401
732 2 2.2208 2.43043 29.2 2.39644
733 1 -1.1104 3.66174 24.9743 3.90294
734 2 2.2208 2.41808 26.3844 5.10834
735 1 -1.1104 3.66199 22.2316 0.9428
736 1 -1.1104 3.57377 27.8749 1.03552
737 1 -1.1104 3.5679 22.2778 3.6876
738 1 -1.1104 3.86227 27.8305 3.80228
862 1 -1.1104 1.06074 25.0542 6.65212
870 1 -1.1104 3.58688 27.7537 6.61448
865 1 -1.1104 0.940476 27.912 6.5999
864 1 -1.1104 0.956054 22.1708 6.63289
743 1 -1.1104 6.38672 24.8795 3.64804
745 1 -1.1104 6.52766 27.7798 1.11405
867 1 -1.1104 6.57204 27.7895 6.57024
869 1 -1.1104 3.81455 22.2844 6.64352
1018 2 2.2208 10.8796 43.1337 8.07817
747 1 -1.1104 6.61182 27.6938 3.86928
746 1 -1.1104 6.55758 22.0491 3.77794
742 1 -1.1104 6.65701 25.0674 0.945712
744 1 -1.1104 6.5119 22.1851 1.15819
748 2 2.2208 10.843 23.6389 5.12809
749 2 2.2208 10.7837 29.2581 5.14331
750 1 -1.1104 12.1847 25.1542 0.990702
751 1 -1.1104 12.0213 25.1187 3.81112
752 1 -1.1104 12.0267 22.2686 1.0083
753 1 -1.1104 12.2813 27.8753 0.886315
754 2 2.2208 10.8455 26.4648 2.32697
755 1 -1.1104 12.2278 22.1759 3.80265
756 1 -1.1104 12.2269 27.871 3.61735
757 1 -1.1104 9.48077 25.011 0.913524
758 2 2.2208 7.96943 23.6989 2.31069
759 2 2.2208 8.03272 29.2586 2.40255
760 1 -1.1104 9.26853 24.9576 3.59459
761 2 2.2208 7.97734 26.3504 5.29739
762 1 -1.1104 9.26189 22.2614 0.981299
763 1 -1.1104 9.4665 27.8603 1.00814
764 1 -1.1104 9.31032 22.2139 3.74024
765 1 -1.1104 9.43033 27.7591 3.7793
895 1 -1.1104 12.328 24.9389 6.61776
866 1 -1.1104 6.52614 22.1283 6.67566
897 1 -1.1104 12.0793 27.7614 6.58266
863 1 -1.1104 6.75184 24.7682 6.402
898 1 -1.1104 9.58189 25.0491 6.58394
1040 2 2.2208 -0.432148 32.0531 8.14346
1598 1 -1.1104 6.60877 47.5401 6.42831
1015 1 -1.1104 9.60031 41.7246 12.4987
769 2 2.2208 5.21492 34.8244 5.24475
770 1 -1.1104 0.947066 30.6468 0.79922
771 1 -1.1104 1.0552 36.3203 1.19615
773 1 -1.1104 1.02162 30.666 3.65322
774 1 -1.1104 0.799332 36.2506 3.852
776 1 -1.1104 0.827991 33.4407 0.91429
777 2 2.2208 5.20979 32.1216 2.41241
778 2 2.2208 5.26877 37.6715 2.3279
779 1 -1.1104 0.99644 33.4052 3.85333
781 1 -1.1104 3.70062 30.6338 1.16463
782 1 -1.1104 3.8023 36.2861 1.03521
783 2 2.2208 2.36982 34.8909 2.48756
784 1 -1.1104 3.69688 30.5912 3.79958
785 1 -1.1104 3.65113 36.3823 3.71856
786 2 2.2208 2.38175 32.0031 5.17992
787 2 2.2208 2.3176 37.662 5.11193
788 1 -1.1104 3.66278 33.5346 1.03574
789 1 -1.1104 3.84497 33.5685 3.74385
925 1 -1.1104 3.82894 30.589 6.41736
919 1 -1.1104 1.09525 30.67 6.57748
926 1 -1.1104 3.82186 36.1862 6.69205
920 1 -1.1104 1.20117 36.3359 6.60492
923 1 -1.1104 0.88772 33.3698 6.61182
795 1 -1.1104 6.52903 33.5647 1.00441
922 1 -1.1104 6.59851 36.332 6.31323
1028 2 2.2208 10.9261 45.9795 10.8755
927 1 -1.1104 3.71896 33.3753 6.58528
794 1 -1.1104 6.57317 30.5713 3.78444
775 1 -1.1104 6.53887 36.29 3.61822
780 1 -1.1104 6.68355 33.502 3.81323
793 1 -1.1104 6.44533 30.6611 0.882184
772 1 -1.1104 6.63253 36.3081 0.932658
796 2 2.2208 10.8477 34.7879 5.1535
797 1 -1.1104 12.2768 30.7642 0.987183
798 1 -1.1104 12.2505 36.2199 0.963476
799 1 -1.1104 12.2268 30.7458 3.71172
800 1 -1.1104 12.2466 36.1278 3.7152
801 1 -1.1104 12.2597 33.4775 0.844623
802 2 2.2208 10.8614 32.0616 2.30831
803 2 2.2208 10.9144 37.5464 2.31174
804 1 -1.1104 12.3943 33.4484 3.72984
805 1 -1.1104 9.43496 30.6426 0.945511
806 1 -1.1104 9.48071 36.2866 0.983566
807 2 2.2208 8.00667 34.8861 2.43038
808 1 -1.1104 9.45919 30.5994 3.8572
809 1 -1.1104 9.62633 36.3117 3.80859
810 2 2.2208 8.01362 32.0376 5.10827