ITEM: TIMESTEP
10000
ITEM: NUMBER OF ATOMS
22500
ITEM: BOX BOUNDS pp pp pp
-4.4075685634843637e-01 2.7780756856348592e+01
-6.4793628422842637e+00 4.1657936284228765e+02
-4.4206101355807520e-01 2.7782061013557900e+01
ITEM: ATOMS id type q x y z
2 2 2.2208 5.34662 -0.887511 5.13907
3 1 -1.1104 1.09911 -4.85997 0.771386
5 1 -1.1104 0.953046 0.802916 0.979884
10 1 -1.1104 0.883247 -5.14364 3.49129
11 1 -1.1104 1.08861 0.539719 3.64295
13 1 -1.1104 1.23875 -1.93518 0.732258
18 2 2.2208 5.53349 -3.6129 2.40016
19 1 -1.1104 0.899122 -2.29738 3.71677
21 1 -1.1104 3.7926 -4.59692 0.508853
23 1 -1.1104 3.95192 0.796036 0.955029
25 2 2.2208 2.44849 -0.757467 2.26218
26 1 -1.1104 4.16726 -5.234 3.38995
27 1 -1.1104 3.89934 0.456025 3.63082
28 2 2.2208 2.45177 -3.73625 5.01661
29 1 -1.1104 4.30782 -1.83578 1.21391
31 1 -1.1104 3.87877 -2.51516 3.98086
15 1 -1.1104 6.93693 -2.18271 0.979228
20 1 -1.1104 6.85332 -2.19916 3.80046
41 1 -1.1104 7.01565 -4.98931 3.69225
24 1 -1.1104 4.09619 0.698139 6.52542
14 1 -1.1104 1.10542 -2.28059 6.48989
30 1 -1.1104 3.79712 -2.1831 6.82653
12 1 -1.1104 6.5842 0.5033 3.61978
8 1 -1.1104 6.85146 0.586637 0.725309
839 2 2.2208 -0.102876 -3.67489 13.5406
21697 2 2.2208 -0.146051 -6.39075 10.7133
4 1 -1.1104 1.22681 -5.14601 6.44028
22 1 -1.1104 3.91793 -4.72401 6.42217
40 1 -1.1104 6.72239 -4.85366 6.61167
16 1 -1.1104 6.76566 -2.21601 6.69502
7 1 -1.1104 6.79545 -4.92659 0.839975
42 2 2.2208 11.0696 -0.687366 5.33388
43 1 -1.1104 12.4034 -5.01716 1.18201
45 1 -1.1104 12.302 0.493343 0.839444
47 1 -1.1104 12.4383 -4.88808 3.9359
48 1 -1.1104 12.4029 0.775679 4.03251
49 1 -1.1104 12.5404 -2.25157 0.944561
51 2 2.2208 11.1158 -3.44033 2.38494
52 1 -1.1104 12.6494 -2.16178 3.96768
53 1 -1.1104 9.41142 -4.71207 0.846996
55 1 -1.1104 9.82204 0.78429 1.02154
57 2 2.2208 8.47923 -0.714989 2.20501
59 1 -1.1104 9.72019 -5.14975 3.74415
60 1 -1.1104 9.52974 0.673552 3.80934
61 2 2.2208 8.40867 -3.78153 5.2651
63 1 -1.1104 9.80235 -2.19009 1.03159
65 1 -1.1104 9.85361 -2.20096 3.98585
21699 2 2.2208 2.70017 -6.21195 8.06387
21733 2 2.2208 16.6255 -6.39153 5.32434
21632 2 2.2208 16.8848 -6.00297 10.6426
21734 2 2.2208 19.4341 -6.4739 2.15537
46 1 -1.1104 12.4703 0.679144 7.01758
56 1 -1.1104 9.53825 0.699586 6.78083
21662 2 2.2208 11.2799 -6.22403 10.7451
21698 2 2.2208 5.38963 -6.44605 10.8459
845 2 2.2208 25.1655 -0.852028 13.5688
58 2 2.2208 13.9754 -0.791885 2.32991
62 2 2.2208 13.8592 -3.61987 5.35625
844 2 2.2208 19.5284 -0.777797 13.5668
73 2 2.2208 16.5884 -0.773001 5.16272
74 1 -1.1104 18.1629 -5.16445 0.805557
76 1 -1.1104 18.1333 0.65568 0.937443
78 1 -1.1104 17.8838 -4.84826 3.78798
79 1 -1.1104 18.1845 0.699206 3.64841
80 1 -1.1104 17.8754 -2.21907 0.835665
82 2 2.2208 16.594 -3.555 2.47878
83 1 -1.1104 18.017 -2.13671 3.81384
84 1 -1.1104 15.2329 -4.86359 0.640909
86 1 -1.1104 15.3963 0.655324 1.03108
88 2 2.2208 19.4241 -0.794883 2.16361
89 1 -1.1104 15.2223 -5.0918 3.7953
90 1 -1.1104 15.0413 0.784473 3.62758
91 2 2.2208 19.5456 -3.3099 5.02019
92 1 -1.1104 15.1319 -2.06087 0.9539
94 1 -1.1104 15.2689 -2.26727 3.92316
106 1 -1.1104 20.903 -2.27818 0.999597
93 1 -1.1104 15.432 -2.21403 6.6855
81 1 -1.1104 18.3014 -2.26887 6.46559
87 1 -1.1104 15.2609 0.548796 6.38525
101 1 -1.1104 20.9818 -4.91162 6.39196
21735 2 2.2208 10.9444 -6.39004 5.24005
105 1 -1.1104 20.8624 0.704571 3.80205
108 1 -1.1104 20.8066 -2.03098 3.74717
104 1 -1.1104 20.7098 -4.98803 3.56062
100 1 -1.1104 20.9976 -5.01898 0.706831
102 1 -1.1104 20.722 0.401072 0.884676
1 2 2.2208 -0.200984 -0.890748 5.34404
17 2 2.2208 -0.314397 -3.63485 2.33596
109 2 2.2208 22.4651 -0.681401 5.19125
110 1 -1.1104 23.8127 -4.96469 0.834543
112 1 -1.1104 23.3926 0.6218 0.928252
114 1 -1.1104 23.7161 -5.06207 3.55019
115 1 -1.1104 23.6341 0.71332 3.66898
116 1 -1.1104 23.7554 -2.22824 0.701415
118 2 2.2208 22.3916 -3.68331 2.30918
119 1 -1.1104 23.8273 -2.34958 3.58401
120 1 -1.1104 26.4673 -5.19927 0.705431
122 1 -1.1104 26.3516 0.704961 0.95058
124 2 2.2208 25.0764 -0.716911 2.13362
125 1 -1.1104 26.5807 -4.83462 3.55695
126 1 -1.1104 26.3504 0.576618 3.64394
127 2 2.2208 25.1428 -3.6693 5.07807
128 1 -1.1104 26.4805 -2.17299 0.930806
130 1 -1.1104 26.4936 -2.08445 3.66326
117 1 -1.1104 23.9281 -2.1855 6.44897
22449 2 2.2208 14.0133 -6.30995 13.578
21700 2 2.2208 22.129 -6.3368 4.93756
129 1 -1.1104 26.4577 -2.37138 6.49785
123 1 -1.1104 26.8636 0.604359 6.50318
137 2 2.2208 5.34497 5.032 5.00448
138 1 -1.1104 1.00596 6.43219 0.750408
142 1 -1.1104 1.01806 6.1928 3.61691
144 1 -1.1104 1.10165 3.64138 0.721518
146 1 -1.1104 1.09955 9.15135 0.735788
154 2 2.2208 5.44649 2.06757 2.21167
155 2 2.2208 5.34661 7.78608 2.05622
156 1 -1.1104 1.34014 3.30948 3.42896
157 1 -1.1104 1.07047 9.00559 3.59812
158 1 -1.1104 6.66272 3.40855 3.7997
160 1 -1.1104 3.91753 6.26153 0.870955
162 2 2.2208 2.45584 4.90616 2.12346
163 1 -1.1104 3.92452 6.42969 3.59499
164 2 2.2208 2.72023 2.06361 4.92008
165 2 2.2208 2.54525 7.58622 5.09985
166 1 -1.1104 3.93846 3.66162 0.853238
168 1 -1.1104 3.91095 9.05904 0.502931
170 1 -1.1104 3.89531 3.50689 3.47274
171 1 -1.1104 4.01077 9.01377 3.46683
147 1 -1.1104 1.00573 9.21258 6.37358
148 1 -1.1104 6.69811 3.3071 0.894411
159 1 -1.1104 6.67957 8.95855 3.54053
143 1 -1.1104 6.86646 6.19065 3.60619
152 2 2.2208 -0.322779 2.07189 2.41509
169 1 -1.1104 3.85118 9.16162 6.37966
149 1 -1.1104 6.8251 3.24806 6.41722
22453 2 2.2208 2.72702 -6.25636 13.489
21760 2 2.2208 8.3316 -6.13429 2.34528
150 1 -1.1104 6.76133 9.14036 0.801703
140 1 -1.1104 6.92648 6.14581 0.871304
176 2 2.2208 10.92 4.8302 5.1431
177 1 -1.1104 12.5137 6.31854 0.941164
179 1 -1.1104 12.6521 6.26046 3.63182
180 1 -1.1104 12.4952 3.35612 0.571719
182 1 -1.1104 12.2268 9.07355 0.957471
184 2 2.2208 11.1755 2.17692 2.36812
185 2 2.2208 11.1048 7.80916 2.27855
186 1 -1.1104 12.2593 3.62753 3.64861
187 1 -1.1104 12.4663 9.13757 3.73819
188 1 -1.1104 9.61816 6.43105 1.01488
190 2 2.2208 8.32209 4.96438 2.34857
192 1 -1.1104 9.63461 6.32291 3.65161
193 2 2.2208 8.03654 1.95322 4.97736
194 2 2.2208 8.23593 7.6383 5.03481
196 1 -1.1104 9.77812 3.56887 0.991033
198 1 -1.1104 9.53141 9.13875 1.14442
200 1 -1.1104 9.47023 3.69956 3.70864
201 1 -1.1104 9.69138 9.22161 3.58517
199 1 -1.1104 9.34503 9.15278 6.39272
189 1 -1.1104 9.73387 6.38949 6.44323
151 1 -1.1104 6.58041 9.04865 6.50559
197 1 -1.1104 9.84986 3.55575 6.53295
181 1 -1.1104 12.33 3.28319 6.59308
191 2 2.2208 13.7013 4.85895 2.27276
195 2 2.2208 13.8646 2.0202 5.43163
205 2 2.2208 13.9655 7.8108 4.93939
206 2 2.2208 16.7328 4.87801 5.08077
207 1 -1.1104 18.1471 6.19633 0.920788
209 1 -1.1104 18.0138 6.33839 3.72822
210 1 -1.1104 18.125 3.60366 0.857725
212 1 -1.1104 17.7753 8.87378 0.744113
214 2 2.2208 16.765 2.05863 2.26072
215 2 2.2208 16.5671 7.70389 2.36531
216 1 -1.1104 18.0588 3.34429 3.80688
217 1 -1.1104 18.0343 9.13282 3.57236
218 1 -1.1104 15.1746 6.44922 0.704337
220 2 2.2208 19.5 4.68477 2.3232
221 1 -1.1104 15.1671 6.35696 3.59044
222 2 2.2208 19.5758 1.83888 5.06032
223 2 2.2208 19.3917 7.74487 4.93608
224 1 -1.1104 15.3485 3.61209 0.927287
226 1 -1.1104 14.9462 9.21575 0.773906
228 1 -1.1104 15.4479 3.67908 3.74692
229 1 -1.1104 15.2052 9.12585 3.72235
238 1 -1.1104 20.9532 3.04274 0.800819
242 1 -1.1104 20.7782 3.48572 3.65141
243 1 -1.1104 20.8646 9.15971 3.53728
235 1 -1.1104 21.0289 6.17735 1.0048
213 1 -1.1104 18.0185 9.11143 6.57976
211 1 -1.1104 17.9415 3.42959 6.52216
225 1 -1.1104 15.0117 3.45934 6.72531
219 1 -1.1104 15.1929 6.27988 6.3831
236 1 -1.1104 20.8048 6.29259 6.40005
22442 2 2.2208 25.3466 -6.26212 13.5049
153 2 2.2208 -0.415032 7.79091 2.25365
237 1 -1.1104 20.9549 6.17303 3.85455
239 1 -1.1104 20.8613 3.41439 6.58068
240 1 -1.1104 20.5988 9.0229 0.935859
136 2 2.2208 -0.419062 4.91966 5.17624
244 2 2.2208 22.3107 4.71165 5.06533
245 1 -1.1104 23.6364 6.4482 1.01763
247 1 -1.1104 23.6373 6.35415 3.82694
248 1 -1.1104 23.6244 3.38811 0.912225
250 1 -1.1104 23.3732 9.02477 0.773081
252 2 2.2208 22.4139 2.06282 2.40827
253 2 2.2208 22.0593 7.59063 2.34739
254 1 -1.1104 23.734 3.44344 3.83129
255 1 -1.1104 23.725 9.34254 3.97165
256 1 -1.1104 26.2493 6.38596 0.951343
258 2 2.2208 25.0654 5.14768 2.33498
259 1 -1.1104 26.4901 6.36561 3.66211
260 2 2.2208 25.0819 1.87324 5.16277
261 2 2.2208 24.9855 7.79337 5.22483
262 1 -1.1104 26.4483 3.68166 1.08883
264 1 -1.1104 26.3077 9.30665 0.747523
266 1 -1.1104 26.7133 3.26344 4.05048
267 1 -1.1104 26.3852 9.16526 3.49192
265 1 -1.1104 26.46 9.13656 6.33836
251 1 -1.1104 23.6155 9.01282 6.89803
241 1 -1.1104 20.8482 9.19989 6.36033
246 1 -1.1104 23.6603 6.34588 6.62936
21663 2 2.2208 8.23083 -6.15499 8.13696
21762 2 2.2208 -0.189098 -6.48052 5.17266
6 1 -1.1104 1.21547 0.663205 6.51964
805 2 2.2208 25.1036 4.74732 13.6009
846 2 2.2208 22.4176 -3.61126 13.5418
272 2 2.2208 5.41693 -0.637111 10.6027
273 1 -1.1104 1.4532 -4.87554 12.2469
274 1 -1.1104 1.32612 0.841525 12.2565
276 1 -1.1104 1.30575 -4.76146 9.3199
277 1 -1.1104 1.09244 0.87909 9.45279
279 1 -1.1104 1.15789 -2.08319 12.0471
280 1 -1.1104 6.78365 -2.15814 12.2276
282 2 2.2208 5.43899 -3.47552 7.92682
283 1 -1.1104 1.17793 -1.95647 9.50138
285 1 -1.1104 4.16226 -4.959 12.1396
286 1 -1.1104 4.04727 0.74279 11.9729
287 2 2.2208 2.64365 -0.660697 7.97365
288 1 -1.1104 4.15659 -4.73701 9.45309
289 1 -1.1104 4.05535 0.715114 9.24169
290 2 2.2208 2.64189 -3.50808 10.8679
291 1 -1.1104 3.97222 -2.17772 12.3715
292 1 -1.1104 3.86276 -1.91368 9.53728
284 1 -1.1104 6.80335 -2.07497 9.35947
21661 2 2.2208 19.6515 -6.318 7.87249
21664 2 2.2208 13.8865 -6.32825 8.0102
825 2 2.2208 10.813 7.64922 13.6007
21794 2 2.2208 2.45046 -6.44171 2.17796
54 1 -1.1104 9.72614 -5.00103 6.8912
372 1 -1.1104 23.8178 6.06005 12.2082
9 1 -1.1104 6.80453 0.587921 6.46438
278 1 -1.1104 6.80887 0.725601 9.40372
300 1 -1.1104 6.85412 -5.00887 12.1561
301 1 -1.1104 6.80888 -4.73586 9.39522
275 1 -1.1104 6.81108 0.796029 12.091
64 1 -1.1104 9.51588 -2.16228 6.6081
44 1 -1.1104 12.4059 -5.09079 6.50654
50 1 -1.1104 12.3448 -2.12293 6.75104
302 2 2.2208 10.9692 -0.639899 10.9258
303 1 -1.1104 12.6029 -4.7838 12.3357
304 1 -1.1104 12.5172 0.949706 12.6586
305 1 -1.1104 12.6013 -4.90078 9.50631
306 1 -1.1104 12.4492 0.661019 9.71266
307 1 -1.1104 12.7171 -1.9951 12.1959
308 2 2.2208 11.0691 -3.51118 8.17114
309 1 -1.1104 12.6083 -2.09797 9.26572
310 1 -1.1104 9.66544 -4.60727 12.1509
311 1 -1.1104 9.64397 0.844254 12.4248
312 2 2.2208 8.30133 -0.760254 8.02524
314 1 -1.1104 9.70548 -4.95026 9.58668
315 1 -1.1104 9.54381 0.836198 9.4823
316 2 2.2208 8.2862 -3.37847 10.9479
318 1 -1.1104 9.65623 -1.90795 12.4021
319 1 -1.1104 9.69393 -2.0148 9.44453
22445 2 2.2208 19.5713 -6.23168 13.6242
806 2 2.2208 -0.32801 7.58696 13.5436
313 2 2.2208 13.8995 -0.659945 8.10825
317 2 2.2208 14.0035 -3.40827 10.8289
103 1 -1.1104 21.1677 0.87865 6.55042
77 1 -1.1104 18.2745 0.570445 6.40323
85 1 -1.1104 15.3391 -5.00823 6.59958
75 1 -1.1104 18.1605 -5.02685 6.37655
328 2 2.2208 16.936 -0.763843 10.7726
329 1 -1.1104 18.2809 -4.67067 12.2403
330 1 -1.1104 18.0878 0.750959 12.1304
331 1 -1.1104 18.2836 -4.96261 9.31427
332 1 -1.1104 18.069 0.595053 9.33012
333 1 -1.1104 18.0749 -2.23751 11.9534
334 2 2.2208 16.9232 -3.7303 7.85866
335 1 -1.1104 18.0292 -2.22871 9.14778
336 1 -1.1104 15.464 -4.76081 12.0924
337 1 -1.1104 15.2748 0.800067 12.0579
338 2 2.2208 19.7393 -0.677968 7.74697
339 1 -1.1104 15.3577 -5.0345 9.19621
340 1 -1.1104 15.2624 0.886492 9.35036
341 2 2.2208 19.5697 -3.53579 10.7138
342 1 -1.1104 15.3651 -2.10918 12.3719
343 1 -1.1104 15.3609 -1.97687 9.54883
349 1 -1.1104 21.1646 -4.90318 12.0148
354 1 -1.1104 20.9428 -2.34597 9.2917
352 1 -1.1104 21.1588 0.571245 9.24561
21793 2 2.2208 5.56257 -6.23117 5.11814
351 1 -1.1104 21.1281 -4.90082 9.22609
810 2 2.2208 22.1626 7.5303 13.5869
132 1 -1.1104 26.6137 6.13056 12.3636
107 1 -1.1104 21.1243 -2.20667 6.60327
808 2 2.2208 5.47627 -0.884616 -0.328963
111 1 -1.1104 23.9085 -5.11332 6.39656
113 1 -1.1104 23.8548 0.514235 6.43342
121 1 -1.1104 26.655 -5.11468 6.27742
21732 2 2.2208 25.0757 -6.33708 2.22103
353 1 -1.1104 20.992 -2.20158 12.1387
350 1 -1.1104 20.9146 0.551302 11.8962
21761 2 2.2208 13.7463 -6.37957 2.5591
271 2 2.2208 -0.300934 -0.606017 10.8282
281 2 2.2208 -0.159535 -3.6557 7.84606
355 2 2.2208 22.3025 -1.02938 10.7305
356 1 -1.1104 23.941 -5.07636 12.0215
357 1 -1.1104 23.7628 0.692773 12.2643
358 1 -1.1104 24.105 -4.98387 9.06618
359 1 -1.1104 23.8116 0.444008 9.27843
360 1 -1.1104 23.7914 -2.29713 11.9542
361 2 2.2208 22.4407 -3.70726 7.97617
362 1 -1.1104 23.974 -2.31992 9.18414
363 1 -1.1104 26.6534 -4.97053 12.184
364 1 -1.1104 26.6905 0.546185 12.216
365 2 2.2208 25.2656 -0.890811 7.85928
366 1 -1.1104 26.7973 -5.00057 9.15577
367 1 -1.1104 26.4588 0.622535 9.47712
368 2 2.2208 25.1576 -3.64126 10.7358
369 1 -1.1104 26.545 -2.17127 12.2892
370 1 -1.1104 26.588 -2.02905 9.40282
161 1 -1.1104 4.03647 6.32529 6.59239
135 2 2.2208 25.1075 5.0162 7.94585
849 2 2.2208 -0.380091 2.12782 13.6535
139 1 -1.1104 1.36111 6.34245 6.25608
141 1 -1.1104 6.92294 6.1629 6.41968
145 1 -1.1104 1.19225 3.54694 6.43197
167 1 -1.1104 3.97218 3.4603 6.44392
376 2 2.2208 5.37322 4.92522 10.7528
377 1 -1.1104 1.01941 6.27144 12.1915
378 1 -1.1104 6.6903 6.31979 12.2817
379 1 -1.1104 1.09378 6.37525 9.33702
381 1 -1.1104 0.865605 3.54824 12.2838
382 1 -1.1104 1.12 9.22014 12.1361
383 1 -1.1104 6.66011 3.66211 12.1341
386 2 2.2208 5.50828 2.11196 7.89788
387 2 2.2208 5.35902 7.83382 7.97697
388 1 -1.1104 1.31411 3.64837 9.51453
389 1 -1.1104 1.0579 8.96082 9.31378
391 1 -1.1104 6.7633 9.52271 9.21338
392 1 -1.1104 3.81427 6.3096 12.1119
393 2 2.2208 2.63662 4.99694 8.00832
394 1 -1.1104 3.93516 6.44581 9.44375
395 2 2.2208 2.529 2.06674 10.6401
396 2 2.2208 2.46268 7.68454 10.8247
397 1 -1.1104 3.77865 3.3887 12.0914
398 1 -1.1104 4.14415 9.18002 12.0239
399 1 -1.1104 3.93476 3.60649 9.4327
400 1 -1.1104 3.92648 9.14889 9.41532
384 1 -1.1104 6.66431 9.21748 12.0659
66 2 2.2208 -0.345861 4.98067 10.8613
380 1 -1.1104 6.88063 6.41057 9.34719
39 2 2.2208 27.7621 7.78758 7.92097
99 1 -1.1104 23.8102 3.42152 9.50772
183 1 -1.1104 12.3118 9.05863 6.27376
178 1 -1.1104 12.411 6.33495 6.35764
390 1 -1.1104 6.88872 3.49117 9.25066
203 1 -1.1104 9.63831 6.48092 9.07146
230 2 2.2208 8.30805 4.71628 7.79348
231 1 -1.1104 9.69762 6.21453 11.8823
232 1 -1.1104 12.3835 9.35098 9.32213
233 1 -1.1104 12.4488 3.52536 9.28024
234 2 2.2208 10.8567 7.91831 7.75012
268 2 2.2208 11.0036 2.06881 8.03148
269 1 -1.1104 12.2554 9.3394 12.098
270 1 -1.1104 12.4493 3.52358 12.2358
296 1 -1.1104 12.3126 6.49243 9.11208
297 1 -1.1104 12.3503 6.43862 12.0313
299 2 2.2208 11.0034 5.06885 10.6475
323 2 2.2208 8.29887 2.16164 10.8783
324 2 2.2208 8.20476 7.97931 10.6337
346 1 -1.1104 9.5295 3.70658 12.3235
348 1 -1.1104 9.62043 9.0099 12.0168
373 1 -1.1104 9.74704 3.53798 9.30316
374 1 -1.1104 9.52625 9.37875 9.20817
32 2 2.2208 13.6285 7.80413 10.597
204 2 2.2208 13.585 5.0691 7.92797
847 2 2.2208 2.39487 4.88703 13.5654
208 1 -1.1104 18.1485 6.37071 6.59737
294 2 2.2208 25.1756 1.89218 10.8929
327 2 2.2208 13.8756 2.20095 10.8484
325 1 -1.1104 20.5757 3.20982 12.5258
227 1 -1.1104 15.2914 9.19389 6.56422
33 2 2.2208 16.6171 4.78218 10.8528
34 1 -1.1104 18.1533 6.25994 12.2887
35 1 -1.1104 15.0009 6.2099 9.33056
36 1 -1.1104 17.9719 6.378 9.50522
37 2 2.2208 19.6378 2.0357 10.7193
38 1 -1.1104 17.6824 3.5727 12.4187
69 2 2.2208 19.3574 7.69398 10.7539
70 1 -1.1104 17.8329 9.19141 12.2729
71 1 -1.1104 15.0288 3.61728 12.2768
97 2 2.2208 16.6624 2.1341 8.08967
98 1 -1.1104 14.8932 9.37202 12.0233
133 2 2.2208 16.4558 7.69136 7.98129
134 1 -1.1104 18.1783 3.55025 9.36132
172 1 -1.1104 15.4523 3.39916 9.45785
173 1 -1.1104 17.9061 9.13636 9.31381
174 1 -1.1104 14.9686 8.99341 9.23186
175 1 -1.1104 15.3128 6.4973 12.0315
202 2 2.2208 19.4436 4.84171 7.96869
321 1 -1.1104 20.9535 6.17865 9.36293
344 1 -1.1104 20.9116 3.35281 9.57538
347 1 -1.1104 20.951 6.25425 12.1758
326 1 -1.1104 20.6167 8.92771 12.1669
257 1 -1.1104 26.5546 6.30163 6.49135
850 2 2.2208 5.29129 7.76503 13.4981
385 2 2.2208 -0.195347 2.20947 7.89564
298 1 -1.1104 26.4445 3.36383 12.2328
96 2 2.2208 21.9646 7.58507 7.80259
67 1 -1.1104 23.7689 6.11338 9.35508
263 1 -1.1104 26.3157 3.37635 6.87716
375 1 -1.1104 26.4058 9.24721 9.20273
72 1 -1.1104 23.3351 8.84678 12.1287
95 2 2.2208 22.4222 2.11682 8.11309
843 2 2.2208 16.7306 -3.68974 13.5855
320 1 -1.1104 26.3547 8.8925 11.9735
345 1 -1.1104 20.6815 9.00024 9.2716
68 1 -1.1104 23.862 3.5133 12.2627
295 2 2.2208 24.8589 7.51803 10.845
293 1 -1.1104 26.3409 6.43073 9.41196
249 1 -1.1104 23.7273 3.50856 6.56767
322 1 -1.1104 26.6617 3.70929 9.37522
131 1 -1.1104 23.4331 8.98803 9.39996
371 2 2.2208 22.3412 4.80825 10.764
822 2 2.2208 8.46594 2.03879 -0.405781
22448 2 2.2208 8.36561 -6.40403 13.4673
848 2 2.2208 5.25412 2.0506 13.4138
837 2 2.2208 2.65008 -0.63719 13.5209
834 2 2.2208 22.3336 4.87427 -0.415483
827 2 2.2208 13.6727 4.99598 13.5108
801 2 2.2208 22.2504 1.91251 13.491
838 2 2.2208 5.54645 -3.56642 13.502
815 2 2.2208 19.3123 -3.71518 -0.379797
803 2 2.2208 16.5589 7.72616 13.5067
835 2 2.2208 25.0038 2.09737 -0.424931
823 2 2.2208 8.25424 7.68828 -0.387407
841 2 2.2208 11.1613 -3.67612 13.5996
828 2 2.2208 11.0018 4.99119 -0.443537
820 2 2.2208 2.42699 2.27202 -0.416195
402 2 2.2208 5.47077 -0.800398 16.4391
403 1 -1.1104 1.17447 -5.07969 17.8951
404 1 -1.1104 1.26303 0.616955 17.9024
405 1 -1.1104 6.72709 -5.01952 17.8318
407 1 -1.1104 1.05881 -5.11046 14.9872
408 1 -1.1104 1.13585 0.624099 14.9306
411 1 -1.1104 1.16353 -2.27672 17.9726
414 2 2.2208 5.26206 -3.47844 19.2859
415 1 -1.1104 1.00475 -2.27998 15.1075
416 1 -1.1104 6.75056 -2.18139 14.9366
417 1 -1.1104 4.20001 -4.82366 17.735
418 1 -1.1104 4.09539 0.631372 17.9656
419 2 2.2208 2.42873 -0.69851 19.4159
420 1 -1.1104 4.22207 -5.00027 14.9449
421 1 -1.1104 3.95947 0.52513 15.0137
422 2 2.2208 2.43649 -3.6618 16.4217
423 1 -1.1104 3.85846 -2.10187 17.8304
424 1 -1.1104 3.65223 -2.30877 14.8493
583 1 -1.1104 0.966267 0.639811 20.9567
831 2 2.2208 13.8843 2.19691 27.7265
413 2 2.2208 -0.217389 -3.70594 19.1958
401 2 2.2208 -0.331707 -0.799145 16.4365
22423 2 2.2208 -0.169271 -6.43117 16.3866
582 1 -1.1104 1.16785 -5.06893 20.7753
584 1 -1.1104 6.77457 -4.82723 20.7978
585 1 -1.1104 6.55835 0.535445 20.4655
22460 2 2.2208 16.5609 -6.37209 27.5904
802 2 2.2208 19.4498 4.83285 13.6622
22438 2 2.2208 19.2629 -6.21137 25.0902
406 1 -1.1104 7.09015 0.489992 17.673
409 1 -1.1104 7.18262 -5.03464 14.9752
412 1 -1.1104 6.71261 -2.30495 17.7416
587 1 -1.1104 6.66592 -1.98497 20.6997
410 1 -1.1104 6.76702 0.754829 14.8875
428 2 2.2208 11.0189 -0.792085 16.617
429 1 -1.1104 12.6138 -5.07454 18.0564
430 1 -1.1104 12.5149 0.340619 17.8852
431 1 -1.1104 12.4659 -4.96582 15.2506
432 1 -1.1104 12.6604 0.557141 15.4658
433 1 -1.1104 12.4722 -2.25037 17.8473
434 2 2.2208 11.1824 -3.52597 19.155
435 1 -1.1104 12.4302 -2.18011 15.0921
436 1 -1.1104 9.30522 -5.11559 18.08
437 1 -1.1104 9.75787 0.591654 18.3912
438 2 2.2208 8.3044 -0.822879 19.4157
440 1 -1.1104 9.69726 -4.90582 14.9489
441 1 -1.1104 9.8608 0.867324 15.3141
442 2 2.2208 8.21628 -3.66974 16.3694
444 1 -1.1104 9.8085 -2.50926 17.798
445 1 -1.1104 9.52668 -2.01486 15.1092
443 2 2.2208 13.8805 -3.59102 16.5911
622 1 -1.1104 12.3645 -1.7153 20.6144
620 1 -1.1104 12.4648 -4.90631 20.4929
621 1 -1.1104 12.6461 1.02058 20.8172
439 2 2.2208 13.9063 -0.567295 19.3148
22434 2 2.2208 11.1431 -6.33428 22.1245
446 1 -1.1104 20.7108 9.22096 23.5897
817 2 2.2208 25.0686 -3.64424 27.6347
787 1 -1.1104 26.5475 9.13518 26.0727
450 2 2.2208 16.6123 -0.733308 16.4728
451 1 -1.1104 18.131 -4.74475 18.0021
452 1 -1.1104 18.1213 0.646436 17.9921
453 1 -1.1104 18.0639 -4.89509 15.0845
454 1 -1.1104 17.9467 0.881648 15.1511
455 1 -1.1104 18.0778 -1.97888 17.8772
456 2 2.2208 16.6597 -3.45082 19.3
457 1 -1.1104 18.1314 -2.15175 14.8246
458 1 -1.1104 15.459 -5.02429 17.791
459 1 -1.1104 15.4526 0.651921 17.9903
460 2 2.2208 19.5354 -0.627371 19.3316
461 1 -1.1104 15.2431 -4.79782 15.0171
462 1 -1.1104 15.3359 0.738803 14.9825
463 2 2.2208 19.3917 -3.36624 16.4062
464 1 -1.1104 15.1937 -2.23456 18.1048
465 1 -1.1104 15.1212 -2.11674 15.2051
469 1 -1.1104 20.8189 -5.08475 17.6349
474 1 -1.1104 21.0362 -2.24787 15.058
470 1 -1.1104 20.9504 0.676404 17.7763
473 1 -1.1104 20.8432 -2.13113 17.7946
22427 2 2.2208 19.4573 -6.36677 19.1087
647 1 -1.1104 18.1331 0.838209 20.638
651 1 -1.1104 15.3591 -2.11121 20.8577
646 1 -1.1104 18.2535 -4.92723 20.6828
648 1 -1.1104 18.1046 -2.0874 20.5721
671 1 -1.1104 20.9472 0.814829 20.6383
824 2 2.2208 11.1101 2.23427 13.833
800 1 -1.1104 23.6955 9.18175 23.407
471 1 -1.1104 20.9746 -4.94745 14.7133
472 1 -1.1104 20.882 0.718252 14.8187
475 2 2.2208 22.3415 -0.830932 16.4455
476 1 -1.1104 23.8255 -5.06158 17.6709
477 1 -1.1104 23.8201 0.561146 17.8659
478 1 -1.1104 23.8411 -4.9588 14.9552
479 1 -1.1104 23.8101 0.348861 14.8465
480 1 -1.1104 23.6115 -2.38656 17.5757
481 2 2.2208 22.3067 -3.4217 19.0788
482 1 -1.1104 23.7068 -2.13815 14.8638
483 1 -1.1104 26.6403 -4.96862 17.7719
484 1 -1.1104 26.7683 0.789104 17.9383
485 2 2.2208 25.2464 -0.707424 19.2346
486 1 -1.1104 26.7158 -4.93728 15.0501
487 1 -1.1104 26.5377 0.571738 15.1069
488 2 2.2208 25.1871 -3.67109 16.3702
489 1 -1.1104 26.4863 -1.82465 17.769
490 1 -1.1104 26.5187 -2.14989 15.1882
674 1 -1.1104 23.7231 0.670659 20.8236
672 1 -1.1104 20.9203 -1.84058 20.5611
676 1 -1.1104 26.7298 -5.09919 20.5235
797 1 -1.1104 23.4978 9.17535 26.1577
670 1 -1.1104 20.9858 -4.66866 20.656
675 1 -1.1104 23.6785 -2.18117 20.4259
678 1 -1.1104 26.5189 -2.15045 20.7924
677 1 -1.1104 26.5598 0.622956 20.6246
22468 2 2.2208 5.38664 -6.22639 27.5929
492 2 2.2208 5.40679 4.88944 16.3001
493 1 -1.1104 1.22139 6.17545 17.7516
495 1 -1.1104 1.23318 6.22551 15.0502
497 1 -1.1104 1.01411 3.33716 17.8656
498 1 -1.1104 1.25871 8.96483 17.8797
499 1 -1.1104 6.66145 3.61247 17.7127
500 1 -1.1104 6.82531 9.33991 17.5941
502 2 2.2208 5.2921 2.17697 19.0376
503 2 2.2208 5.29316 7.74999 18.7761
504 1 -1.1104 1.20022 3.3968 14.9819
505 1 -1.1104 1.17384 9.10895 14.8311
508 1 -1.1104 4.19626 6.28932 17.6016
509 2 2.2208 2.48866 4.80552 19.2092
510 1 -1.1104 4.05156 6.40438 14.865
511 2 2.2208 2.49992 1.97366 16.379
512 2 2.2208 2.63383 7.60364 16.3788
513 1 -1.1104 3.85726 3.5358 17.8409
514 1 -1.1104 4.09942 9.08821 17.5017
515 1 -1.1104 3.92686 3.3504 15.109
516 1 -1.1104 3.92808 9.20164 14.891
494 1 -1.1104 6.95243 6.53181 17.6946
501 2 2.2208 -0.304986 2.11845 19.4012
22439 2 2.2208 22.1892 -6.28601 22.1194
703 1 -1.1104 1.12602 3.54253 20.7281
506 1 -1.1104 6.69953 3.55583 14.8624
507 1 -1.1104 6.70178 9.29133 14.8453
496 1 -1.1104 6.91031 6.48281 14.9196
517 2 2.2208 11.0491 4.93672 16.5418
518 1 -1.1104 12.5191 6.3097 17.6123
519 1 -1.1104 12.3092 6.23934 14.9773
520 1 -1.1104 12.3096 3.43422 17.8988
521 1 -1.1104 12.4801 9.36434 17.7822
522 2 2.2208 10.9479 2.0711 19.522
523 2 2.2208 11.1712 7.72329 19.208
524 1 -1.1104 12.4814 3.54078 15.1868
525 1 -1.1104 12.3567 9.05123 15.0626
526 1 -1.1104 9.61061 6.25848 17.9627
527 2 2.2208 8.07106 4.97233 19.2061
529 1 -1.1104 9.58069 6.15102 15.1386
530 2 2.2208 8.1788 2.24527 16.2988
531 2 2.2208 8.14836 7.81501 16.3262
533 1 -1.1104 9.48123 3.43477 17.7864
534 1 -1.1104 9.55 8.96739 17.6992
535 1 -1.1104 9.71839 3.53229 15.0054
536 1 -1.1104 9.22778 9.23216 14.8002
532 2 2.2208 13.8676 2.10319 16.5143
537 2 2.2208 13.8664 7.675 16.467
528 2 2.2208 13.8974 4.90375 19.1619
741 1 -1.1104 9.42762 9.11999 20.8156
792 2 2.2208 25.2578 2.15935 22.2444
793 1 -1.1104 26.5528 6.44473 26.3359
22426 2 2.2208 8.02307 -6.39673 19.1525
538 2 2.2208 16.7951 4.77851 16.3311
539 1 -1.1104 18.1935 6.3012 17.6281
540 1 -1.1104 18.1287 6.13639 15.0064
541 1 -1.1104 18.1624 3.44149 17.713
542 1 -1.1104 18.1254 9.29236 17.9041
543 2 2.2208 16.8017 2.23944 19.1683
544 2 2.2208 16.6504 7.68067 19.1184
545 1 -1.1104 18.3297 3.40979 15.1476
546 1 -1.1104 18.0845 8.91185 14.9813
547 1 -1.1104 15.4387 6.303 17.8306
548 2 2.2208 19.7116 4.8272 19.2995
549 1 -1.1104 15.1595 6.26997 14.9347
550 2 2.2208 19.5453 2.00512 16.4176
551 2 2.2208 19.395 7.70748 16.3012
552 1 -1.1104 15.3773 3.42003 17.9199
553 1 -1.1104 15.313 9.15491 17.9328
554 1 -1.1104 15.1314 3.41689 14.8437
555 1 -1.1104 15.0245 9.23524 15.0802
558 1 -1.1104 20.8491 6.41971 15.156
557 1 -1.1104 21.0098 6.4617 17.9943
765 1 -1.1104 18.0398 9.01301 20.7054
561 1 -1.1104 21.0736 3.40274 15.0163
766 1 -1.1104 15.3501 6.34854 20.6335
562 1 -1.1104 20.9263 9.33253 14.9615
764 1 -1.1104 18.1625 3.62643 20.4272
617 1 -1.1104 21.0489 8.97554 20.7455
468 1 -1.1104 23.7443 3.4182 20.573
556 2 2.2208 -0.464532 7.78377 19.2452
559 1 -1.1104 20.9167 3.38084 17.6606
560 1 -1.1104 20.8034 9.05818 17.9324
491 2 2.2208 -0.155245 4.81507 16.5159
563 2 2.2208 22.1767 4.8739 16.3445
564 1 -1.1104 23.8181 6.37881 17.7777
565 1 -1.1104 23.5444 6.052 14.9805
566 1 -1.1104 23.6137 3.43416 17.8232
567 1 -1.1104 23.9034 9.26746 17.7603
568 2 2.2208 22.2977 2.06393 19.1822
569 2 2.2208 22.4011 7.87163 19.2855
570 1 -1.1104 23.5935 3.36099 15.0894
571 1 -1.1104 23.6367 8.81326 15.0912
572 1 -1.1104 26.5659 6.30683 17.8931
573 2 2.2208 25.1724 4.93837 19.0724
574 1 -1.1104 26.6849 6.10862 15.128
575 2 2.2208 25.0798 1.98641 16.4341
576 2 2.2208 25.1257 7.51868 16.2479
577 1 -1.1104 26.6008 3.47176 18.0228
578 1 -1.1104 26.7661 8.95666 17.4412
579 1 -1.1104 26.4692 3.49155 15.1024
580 1 -1.1104 26.5211 9.14974 14.798
467 1 -1.1104 23.8108 9.20765 20.7081
592 1 -1.1104 23.9131 6.40255 20.6641
448 1 -1.1104 26.5034 3.55515 20.8031
447 1 -1.1104 26.4548 9.24908 20.3055
619 1 -1.1104 21.0682 6.35454 20.7857
618 1 -1.1104 21.0168 3.5105 20.6922
449 1 -1.1104 26.7359 6.26863 20.6556
22424 2 2.2208 13.8587 -6.38221 19.362
586 1 -1.1104 1.13894 -2.31846 20.6626
589 1 -1.1104 3.76225 0.775531 20.6898
22432 2 2.2208 -0.231766 -6.3026 22.0527
22467 2 2.2208 -0.203484 -6.29808 27.6141
22436 2 2.2208 13.8796 -6.42352 24.7922
590 1 -1.1104 3.89487 -2.3026 20.7537
588 1 -1.1104 3.86915 -5.30111 20.4837
594 2 2.2208 5.4104 -0.60347 22.1035
595 1 -1.1104 1.19395 -4.80852 23.4388
596 1 -1.1104 1.07337 0.711327 23.6789
599 1 -1.1104 1.12576 -4.96029 26.1616
600 1 -1.1104 0.934914 0.880438 26.277
602 1 -1.1104 6.79953 0.728432 26.207
603 1 -1.1104 1.10546 -2.06656 23.5958
606 2 2.2208 5.33467 -3.40383 24.8159
607 1 -1.1104 0.949349 -2.07393 26.2959
609 1 -1.1104 3.94097 -5.04576 23.3517
610 1 -1.1104 3.86017 0.75367 23.73
611 2 2.2208 2.35117 -0.559707 25.1103
612 1 -1.1104 3.86785 -5.09694 26.0263
613 1 -1.1104 3.84363 0.80813 26.4192
614 2 2.2208 2.60428 -3.50253 22.0156
615 1 -1.1104 3.94075 -1.91613 23.4652
616 1 -1.1104 3.77136 -2.07398 26.5429
604 1 -1.1104 6.92017 -2.1216 23.6186
608 1 -1.1104 6.71424 -2.06581 26.3933
605 2 2.2208 -0.215263 -3.45951 24.7752
804 2 2.2208 16.7113 2.16311 13.6946
644 2 2.2208 22.4168 5.08664 22.0631
22437 2 2.2208 16.6667 -6.23752 22.1276
623 1 -1.1104 9.6093 -4.78703 20.9689
625 1 -1.1104 9.54712 -2.02973 20.8974
22431 2 2.2208 2.62136 -6.44223 24.6885
597 1 -1.1104 6.63108 -4.92992 23.5407
601 1 -1.1104 6.71023 -4.923 26.2376
598 1 -1.1104 6.89044 0.655275 23.2855
624 1 -1.1104 9.59666 0.828682 21.0137
626 2 2.2208 10.8949 -0.673057 22.3291
627 1 -1.1104 12.4158 -4.96361 23.6326
628 1 -1.1104 12.6274 0.630034 23.5435
629 1 -1.1104 12.5309 -5.04889 26.1817
630 1 -1.1104 12.5748 0.791727 26.3283
631 1 -1.1104 12.3795 -2.17033 23.582
632 2 2.2208 10.9202 -3.44498 25.026
633 1 -1.1104 12.4484 -2.02267 26.1739
634 1 -1.1104 9.27579 -4.89801 23.5847
635 1 -1.1104 9.5866 0.989365 23.6269
636 2 2.2208 8.09208 -0.599393 24.9109
638 1 -1.1104 9.87701 -4.96448 26.4164
639 1 -1.1104 9.69369 0.80771 26.2879
640 2 2.2208 8.24044 -3.48886 22.2547
642 1 -1.1104 9.45293 -1.88774 23.6132
643 1 -1.1104 9.4223 -1.99648 26.2741
637 2 2.2208 13.905 -0.740006 24.9259
427 1 -1.1104 20.6762 3.75369 23.5781
829 2 2.2208 16.5823 4.99986 27.7523
819 2 2.2208 5.24986 4.95164 27.6413
641 2 2.2208 13.876 -3.43163 22.0938
649 1 -1.1104 15.206 -4.88332 20.6707
650 1 -1.1104 15.4012 0.809097 20.6776
652 2 2.2208 16.7427 -0.546905 22.0806
653 1 -1.1104 18.0706 -4.90632 23.5776
654 1 -1.1104 18.0273 0.672722 23.4252
655 1 -1.1104 17.9288 -4.76594 26.2247
656 1 -1.1104 17.9184 0.67242 26.2787
657 1 -1.1104 18.1116 -1.95314 23.302
658 2 2.2208 16.8221 -3.29432 24.7052
659 1 -1.1104 18.1922 -2.10052 26.283
660 1 -1.1104 15.2287 -4.89599 23.3734
661 1 -1.1104 15.3047 0.759747 23.6831
662 2 2.2208 19.4513 -0.587136 24.7881
663 1 -1.1104 15.0964 -5.08466 26.1854
664 1 -1.1104 15.1947 0.56263 26.4129
665 2 2.2208 19.5459 -3.35888 21.9087
666 1 -1.1104 15.2496 -2.0181 23.4799
667 1 -1.1104 15.416 -2.22751 26.2372
683 1 -1.1104 20.9068 -1.93319 23.3302
682 1 -1.1104 20.8274 0.633482 26.1706
795 1 -1.1104 26.2147 6.27047 23.3994
796 1 -1.1104 21.0069 6.05322 26.4255
818 2 2.2208 -0.331935 4.902 27.6731
680 1 -1.1104 20.9627 0.53794 23.5044
681 1 -1.1104 20.8729 -4.83252 26.3539
22428 2 2.2208 16.7046 -6.2933 16.392
679 1 -1.1104 20.8339 -4.87639 23.4143
684 1 -1.1104 20.6011 -2.20872 26.4358
673 1 -1.1104 23.7192 -4.78548 20.7597
593 2 2.2208 -0.212214 -0.900557 22.0876
685 2 2.2208 22.3433 -0.586715 21.961
686 1 -1.1104 23.724 -5.04081 23.6701
687 1 -1.1104 23.8594 0.845456 23.6081
688 1 -1.1104 23.6301 -4.74515 26.2323
689 1 -1.1104 23.755 0.931449 26.3962
690 1 -1.1104 23.5836 -1.91842 23.3139
691 2 2.2208 21.9871 -3.5224 24.9492
692 1 -1.1104 23.5586 -1.84154 26.1284
693 1 -1.1104 26.5913 -4.91973 23.4935
694 1 -1.1104 26.4899 0.551216 23.426
695 2 2.2208 25.1122 -0.696766 24.8108
696 1 -1.1104 26.4074 -4.8984 26.3735
697 1 -1.1104 26.5101 0.601358 26.283
698 2 2.2208 25.1199 -3.51915 22.2608
699 1 -1.1104 26.5692 -2.26442 23.3965
700 1 -1.1104 26.327 -1.95826 26.37
22440 2 2.2208 25.144 -6.44317 24.8941
710 2 2.2208 -0.397144 4.85335 22.1362
22430 2 2.2208 25.207 -6.2661 19.3641
701 1 -1.1104 1.11395 6.29878 20.5901