ITEM: TIMESTEP
20000
ITEM: NUMBER OF ATOMS
22500
ITEM: BOX BOUNDS pp pp pp
-4.4280475321772650e-01 2.7782804753218137e+01
-6.6453789951800033e+00 4.1674537899518833e+02
-4.3561901882853987e-01 2.7775619018828195e+01
ITEM: ATOMS id type q x y z
2 2 2.2208 4.97159 -1.11 5.32965
3 1 -1.1104 0.779132 -5.28404 1.34426
5 1 -1.1104 0.852163 0.371086 1.12837
10 1 -1.1104 0.902813 -5.30198 3.9073
11 1 -1.1104 0.742673 0.446422 4.05583
13 1 -1.1104 0.671197 -2.31523 1.07184
18 2 2.2208 5.06728 -3.8859 2.68881
19 1 -1.1104 0.687273 -2.39243 3.96931
21 1 -1.1104 3.46468 -5.27985 1.27142
23 1 -1.1104 3.644 0.198099 1.39206
25 2 2.2208 2.10916 -1.11843 2.62572
26 1 -1.1104 3.50155 -5.32841 4.01283
27 1 -1.1104 3.55165 0.374355 4.02692
28 2 2.2208 2.21585 -3.97644 5.34769
29 1 -1.1104 3.65867 -2.57539 1.37511
31 1 -1.1104 3.68324 -2.41506 4.02601
41 1 -1.1104 6.4642 -5.136 3.88789
20 1 -1.1104 6.48658 -2.45636 4.117
12 1 -1.1104 6.32883 0.304556 4.05538
8 1 -1.1104 6.52083 0.411431 1.13468
7 1 -1.1104 6.48375 -5.38553 1.19623
809 2 2.2208 2.20392 -3.93039 -0.081356
808 2 2.2208 5.03269 -0.967058 -0.196156
15 1 -1.1104 6.61723 -2.44273 1.17536
42 2 2.2208 10.679 -0.774197 5.3807
43 1 -1.1104 12.2116 -5.1399 1.22241
45 1 -1.1104 11.81 0.298883 1.32992
47 1 -1.1104 11.9894 -5.21213 4.06842
48 1 -1.1104 12.2413 0.374923 4.02598
49 1 -1.1104 11.9102 -2.26337 1.23286
51 2 2.2208 10.6753 -3.876 2.60688
52 1 -1.1104 12.006 -2.25043 4.01834
53 1 -1.1104 9.35704 -5.00472 1.25463
55 1 -1.1104 9.12549 0.44898 1.3609
57 2 2.2208 7.82733 -0.807634 2.62336
59 1 -1.1104 9.22561 -5.16112 4.02078
60 1 -1.1104 9.18131 0.764155 3.95454
61 2 2.2208 7.98982 -3.76453 5.49442
63 1 -1.1104 9.31001 -2.40279 1.16245
65 1 -1.1104 9.30731 -2.20336 4.12432
62 2 2.2208 13.4244 -3.80335 5.51796
58 2 2.2208 13.4001 -1.02929 2.68587
811 2 2.2208 10.5616 -0.924614 -0.173919
813 2 2.2208 13.4709 -3.87368 -0.186036
812 2 2.2208 7.9408 -3.80904 -0.200971
21735 2 2.2208 10.4945 -6.61529 5.42047
21760 2 2.2208 7.72643 -6.63385 2.5519
73 2 2.2208 16.2922 -1.10097 5.40033
74 1 -1.1104 17.7241 -5.18715 1.2101
76 1 -1.1104 17.7324 0.640416 1.17056
78 1 -1.1104 17.3685 -5.35013 3.93179
79 1 -1.1104 17.7844 0.488994 3.99697
80 1 -1.1104 17.6594 -2.49379 1.2258
82 2 2.2208 16.238 -3.71425 2.519
83 1 -1.1104 17.6228 -2.36766 4.02802
84 1 -1.1104 15.0656 -5.3358 1.24692
86 1 -1.1104 14.8961 0.419416 1.02767
88 2 2.2208 19.201 -0.863921 2.61717
89 1 -1.1104 14.5473 -5.0102 4.01422
90 1 -1.1104 14.8785 0.566126 3.88129
91 2 2.2208 18.9757 -3.72873 5.35589
92 1 -1.1104 14.818 -2.56297 1.09194
94 1 -1.1104 14.8685 -2.32231 4.02036
104 1 -1.1104 20.5368 -5.3193 3.97589
108 1 -1.1104 20.5154 -2.50434 4.08052
106 1 -1.1104 20.6789 -2.34576 1.26635
105 1 -1.1104 20.5839 0.448488 4.44128
100 1 -1.1104 20.4473 -5.1271 1.29041
102 1 -1.1104 20.6066 0.344652 1.30993
22460 2 2.2208 16.4024 -6.62644 -0.0969309
814 2 2.2208 16.3954 -1.05653 -0.152392
815 2 2.2208 19.2337 -3.92542 -0.251863
817 2 2.2208 24.7706 -3.97041 -0.0776614
1 2 2.2208 27.6878 -0.965758 5.44181
17 2 2.2208 27.4846 -3.86461 2.86368
109 2 2.2208 21.9966 -1.10628 5.40609
110 1 -1.1104 23.2063 -5.49613 1.41628
112 1 -1.1104 23.6281 0.366724 1.03224
114 1 -1.1104 23.4626 -5.374 4.24838
115 1 -1.1104 23.3989 0.0747698 4.01797
116 1 -1.1104 23.4768 -2.57145 1.57474
118 2 2.2208 21.9406 -4.01467 2.81132
119 1 -1.1104 23.2609 -2.85404 4.27452
120 1 -1.1104 26.1254 -5.07679 1.37197
122 1 -1.1104 26.394 0.297013 1.35463
124 2 2.2208 24.9322 -0.985367 2.64255
125 1 -1.1104 26.1538 -5.65364 4.06956
126 1 -1.1104 26.3323 0.542891 4.01712
127 2 2.2208 24.7791 -3.84894 5.68702
128 1 -1.1104 26.1764 -2.3625 1.39645
130 1 -1.1104 26.1247 -2.37152 4.08523
807 2 2.2208 27.4604 -0.970813 -0.259644
816 2 2.2208 22.0936 -1.10981 -0.0449481
22467 2 2.2208 27.5766 -6.6439 0.0343018
819 2 2.2208 5.00463 4.70636 -0.362253
137 2 2.2208 4.92047 4.60109 5.35718
138 1 -1.1104 0.787627 6.29913 1.31973
142 1 -1.1104 0.90014 6.00685 4.24731
144 1 -1.1104 0.761511 3.27728 1.22309
146 1 -1.1104 0.763628 8.84055 1.03063
154 2 2.2208 4.96254 1.74612 2.67873
155 2 2.2208 4.89729 7.39393 2.58645
156 1 -1.1104 0.82949 3.05061 4.11812
157 1 -1.1104 0.817054 9.07437 3.86676
160 1 -1.1104 3.47346 6.03377 0.9184
162 2 2.2208 2.22049 4.59702 2.50436
163 1 -1.1104 3.50213 6.04926 3.88457
164 2 2.2208 2.20079 1.85758 5.43756
165 2 2.2208 2.04445 7.47664 5.45961
166 1 -1.1104 3.60614 3.15622 1.12967
168 1 -1.1104 3.64189 8.7929 1.12204
170 1 -1.1104 3.64207 3.15888 4.04789
171 1 -1.1104 3.49476 8.86667 4.04522
158 1 -1.1104 6.36724 3.08159 3.84699
150 1 -1.1104 6.58531 8.79517 0.962448
148 1 -1.1104 6.22939 3.07349 0.897364
159 1 -1.1104 6.43997 8.62462 3.76495
140 1 -1.1104 6.24299 5.96748 1.36061
143 1 -1.1104 6.22028 5.74344 3.935
149 1 -1.1104 6.3226 3.24584 6.60406
821 2 2.2208 1.98814 7.57666 -0.25545
820 2 2.2208 2.21892 1.71842 -0.148516
822 2 2.2208 7.72692 1.83604 -0.279918
823 2 2.2208 7.7971 7.22985 -0.255762
831 2 2.2208 13.3957 1.72118 -0.264573
176 2 2.2208 10.7342 4.7429 5.43861
177 1 -1.1104 12.034 5.98637 1.13055
179 1 -1.1104 12.0698 6.20856 3.88916
180 1 -1.1104 12.0452 3.10764 1.20234
182 1 -1.1104 12.1595 8.9863 1.15344
184 2 2.2208 10.7258 1.72092 2.6363
185 2 2.2208 10.7448 7.52905 2.49771
186 1 -1.1104 11.9935 3.22499 3.90668
187 1 -1.1104 12.0243 8.98999 3.85416
188 1 -1.1104 9.16215 6.11004 1.06006
190 2 2.2208 7.88123 4.6582 2.67937
192 1 -1.1104 9.03552 6.16042 3.98661
193 2 2.2208 7.66729 1.95709 5.44763
194 2 2.2208 7.803 7.4065 5.48429
196 1 -1.1104 9.1806 3.02222 0.959532
198 1 -1.1104 9.41072 8.84642 1.23744
200 1 -1.1104 9.40796 3.54729 4.04467
201 1 -1.1104 9.14103 8.8728 4.15323
195 2 2.2208 13.4519 1.84632 5.36788
205 2 2.2208 13.4241 7.54016 5.30948
828 2 2.2208 10.6015 4.60794 -0.198098
191 2 2.2208 13.3777 4.62117 2.63828
832 2 2.2208 13.63 7.4003 -0.337129
830 2 2.2208 19.2184 1.83835 -0.267077
833 2 2.2208 19.2582 7.48416 -0.281703
206 2 2.2208 16.2988 4.53905 5.45255
207 1 -1.1104 17.5712 6.10964 1.09237
209 1 -1.1104 17.7452 5.89826 3.96588
210 1 -1.1104 17.8361 3.3298 1.12595
212 1 -1.1104 17.7846 8.8074 1.14507
214 2 2.2208 16.1453 1.98991 2.51209
215 2 2.2208 16.4826 7.27138 2.67629
216 1 -1.1104 17.8259 3.24195 3.88134
217 1 -1.1104 17.7076 8.9007 4.21053
218 1 -1.1104 14.9633 6.07431 1.29789
220 2 2.2208 19.2359 4.60808 2.60361
221 1 -1.1104 14.8553 5.93866 4.12265
222 2 2.2208 19.1931 1.85841 5.34651
223 2 2.2208 18.9801 7.37867 5.44783
224 1 -1.1104 14.6857 3.39762 1.22676
226 1 -1.1104 14.8971 8.6811 0.990713
228 1 -1.1104 14.8982 3.19722 4.06768
229 1 -1.1104 14.8725 8.67348 3.7839
243 1 -1.1104 20.4181 8.7915 3.96989
240 1 -1.1104 20.594 8.96145 1.01093
238 1 -1.1104 20.5925 3.50778 1.04274
235 1 -1.1104 20.4436 6.1909 1.15733
242 1 -1.1104 20.7047 3.09957 3.92256
237 1 -1.1104 20.5637 5.85929 4.05441
829 2 2.2208 16.304 4.63375 -0.146421
818 2 2.2208 27.7087 4.70695 -0.22813
834 2 2.2208 22.0958 4.6997 -0.229572
835 2 2.2208 24.7281 1.90782 -0.270959
152 2 2.2208 27.677 1.74523 2.54813
153 2 2.2208 27.4896 7.57581 2.57385
136 2 2.2208 27.4772 4.6327 5.47021
244 2 2.2208 22.0251 4.71034 5.46671
245 1 -1.1104 23.3024 6.02716 1.29366
247 1 -1.1104 23.6279 5.85591 4.02526
248 1 -1.1104 23.3656 3.17747 1.13864
250 1 -1.1104 23.4453 8.6247 1.15834
252 2 2.2208 22.0277 1.71117 2.60255
253 2 2.2208 21.8002 7.46332 2.59791
254 1 -1.1104 23.4727 3.17428 4.05852
255 1 -1.1104 23.2707 8.74889 3.85026
256 1 -1.1104 26.2763 5.92518 1.12852
258 2 2.2208 24.9403 4.73417 2.6438
259 1 -1.1104 26.4495 6.03036 3.96099
260 2 2.2208 24.8425 1.74879 5.47493
261 2 2.2208 24.6618 7.51581 5.48415
262 1 -1.1104 26.4701 3.03928 1.0613
264 1 -1.1104 26.1983 8.63711 1.01953
266 1 -1.1104 26.0092 3.29722 4.12013
267 1 -1.1104 26.1384 8.87721 4.01009
836 2 2.2208 24.7796 7.34242 -0.258576
4 1 -1.1104 0.745634 -5.2972 7.03428
30 1 -1.1104 3.702 -2.54451 6.71758
24 1 -1.1104 3.71959 0.321403 6.70621
6 1 -1.1104 0.92222 0.319492 6.79638
22 1 -1.1104 3.47265 -5.4998 6.98675
14 1 -1.1104 0.876449 -2.50401 6.7398
272 2 2.2208 4.78371 -0.966914 11.0864
273 1 -1.1104 0.570554 -5.3813 12.2903
274 1 -1.1104 0.667967 0.348561 12.4157
276 1 -1.1104 0.648128 -5.19976 9.74052
277 1 -1.1104 0.852855 0.289985 9.62779
279 1 -1.1104 0.620515 -2.40225 12.3518
282 2 2.2208 5.16092 -3.76141 8.41193
283 1 -1.1104 0.801446 -2.34798 9.57123
285 1 -1.1104 3.4556 -5.15555 12.7462
286 1 -1.1104 3.43863 0.442843 12.4826
287 2 2.2208 2.23172 -1.13886 8.08434
288 1 -1.1104 3.63375 -5.17529 9.82827
289 1 -1.1104 3.57587 0.497639 9.58347
290 2 2.2208 2.10295 -3.84668 11.1607
291 1 -1.1104 3.30991 -2.42593 12.6224
292 1 -1.1104 3.58823 -2.45659 9.55149
301 1 -1.1104 6.39844 -5.16826 9.76411
300 1 -1.1104 6.24964 -5.44791 12.596
16 1 -1.1104 6.57131 -2.23347 6.95609
280 1 -1.1104 6.03256 -2.35491 12.5183
40 1 -1.1104 6.30285 -5.15812 6.95378
278 1 -1.1104 6.49408 0.420019 9.66334
284 1 -1.1104 6.46102 -2.33658 9.72295
275 1 -1.1104 6.24754 0.274508 12.4984
21698 2 2.2208 5.13458 -6.59671 10.9442
9 1 -1.1104 6.43766 0.445813 6.84418
54 1 -1.1104 9.17675 -5.04977 7.01408
50 1 -1.1104 12.0699 -2.34747 6.71613
56 1 -1.1104 9.28314 0.701365 6.75806
64 1 -1.1104 9.40386 -2.22617 7.04678
44 1 -1.1104 12.0963 -5.68832 6.9709
46 1 -1.1104 12.0365 0.350939 6.64339
302 2 2.2208 10.715 -0.989365 11.1766
303 1 -1.1104 11.824 -5.18895 12.4232
304 1 -1.1104 12.1333 0.516688 12.5833
305 1 -1.1104 12.055 -5.21672 9.86487
306 1 -1.1104 12.1006 0.286157 9.62352
307 1 -1.1104 12.0006 -2.27453 12.5699
308 2 2.2208 10.7387 -3.76386 8.22625
309 1 -1.1104 12.3225 -2.46792 9.62648
310 1 -1.1104 8.94912 -5.48175 12.3869
311 1 -1.1104 9.06161 0.426073 12.5154
312 2 2.2208 7.84568 -1.09849 8.34241
314 1 -1.1104 9.07321 -5.06486 9.55071
315 1 -1.1104 9.3941 0.339846 9.85284
316 2 2.2208 7.73769 -3.82007 11.1
318 1 -1.1104 9.195 -2.57997 12.5214
319 1 -1.1104 9.29224 -2.20794 9.79289
317 2 2.2208 13.4664 -4.01961 11.0761
313 2 2.2208 13.4818 -1.00591 8.12176
21662 2 2.2208 10.6037 -6.62427 10.9978
21663 2 2.2208 7.78515 -6.53228 8.15794
85 1 -1.1104 14.9261 -5.36495 6.91293
75 1 -1.1104 17.7222 -5.36016 6.84727
93 1 -1.1104 14.742 -2.51406 6.9322
87 1 -1.1104 14.9694 0.477136 6.88938
81 1 -1.1104 17.6704 -2.50717 6.88077
101 1 -1.1104 20.5213 -5.30682 6.7784
103 1 -1.1104 20.6616 0.0157711 7.25149
107 1 -1.1104 20.6046 -2.66229 6.85878
77 1 -1.1104 17.8108 0.378044 6.72739
328 2 2.2208 16.2129 -0.958983 10.943
329 1 -1.1104 17.8304 -5.40295 12.3881
330 1 -1.1104 17.5553 0.514229 12.4716
331 1 -1.1104 17.6761 -5.29992 9.59926
332 1 -1.1104 17.8046 0.437203 9.42479
333 1 -1.1104 17.5817 -2.47724 12.4549
334 2 2.2208 16.1352 -4.04055 8.20723
335 1 -1.1104 17.6636 -2.43756 9.67937
336 1 -1.1104 14.6885 -5.53578 12.1063
337 1 -1.1104 14.7893 0.0841394 12.2303
338 2 2.2208 19.0474 -1.14632 8.16411
339 1 -1.1104 14.8571 -5.38875 9.69848
340 1 -1.1104 14.812 0.425564 9.51305
341 2 2.2208 19.1235 -3.87954 11.0979
342 1 -1.1104 14.9178 -2.66039 12.4826
343 1 -1.1104 14.952 -2.46056 9.6271
354 1 -1.1104 20.6798 -2.34134 9.74547
350 1 -1.1104 20.4091 0.208392 12.4496
349 1 -1.1104 20.5698 -5.08493 12.4828
351 1 -1.1104 20.3793 -5.13065 9.65907
352 1 -1.1104 20.6775 0.648851 9.8205
353 1 -1.1104 20.3549 -2.3356 12.4851
123 1 -1.1104 26.3347 0.414011 6.73103
111 1 -1.1104 23.4247 -5.47734 6.91114
117 1 -1.1104 23.5662 -2.47859 7.072
271 2 2.2208 27.5052 -0.893939 11.0578
113 1 -1.1104 23.5282 0.143303 6.94892
121 1 -1.1104 26.2695 -5.26124 6.88464
281 2 2.2208 27.6694 -3.77026 8.34738
129 1 -1.1104 26.3212 -2.31276 7.04541
355 2 2.2208 22.0135 -1.05893 11.1158
356 1 -1.1104 23.3006 -5.18444 12.6868
357 1 -1.1104 23.2466 0.43246 12.4314
358 1 -1.1104 23.2015 -5.34183 9.78324
359 1 -1.1104 23.3768 0.222949 9.83275
360 1 -1.1104 23.2581 -2.39333 12.6381
361 2 2.2208 21.9706 -3.89999 8.28086
362 1 -1.1104 23.4196 -2.63573 9.63382
363 1 -1.1104 26.1247 -5.36532 12.417
364 1 -1.1104 26.1001 0.351229 12.369
365 2 2.2208 24.8442 -1.10975 8.40257
366 1 -1.1104 26.0384 -5.30436 9.78208
367 1 -1.1104 26.1056 0.366374 9.46532
368 2 2.2208 24.8357 -3.98161 11.1869
369 1 -1.1104 26.0432 -2.36124 12.4847
370 1 -1.1104 26.0959 -2.53395 9.84036
147 1 -1.1104 0.989904 8.76961 6.75114
139 1 -1.1104 0.521571 5.89522 6.91673
169 1 -1.1104 3.87696 8.86262 6.74674
145 1 -1.1104 0.793281 3.12015 6.89216
167 1 -1.1104 3.68757 3.39721 7.02714
151 1 -1.1104 6.50127 8.82195 6.94664
161 1 -1.1104 3.57892 6.17598 6.63272
376 2 2.2208 4.92072 4.65004 11.2693
377 1 -1.1104 0.803382 6.01339 12.4322
379 1 -1.1104 0.724447 5.99179 9.44216
381 1 -1.1104 0.842835 3.33948 12.405
382 1 -1.1104 0.605353 8.69978 12.4656
386 2 2.2208 5.01559 1.84702 8.18813
387 2 2.2208 4.87719 7.36069 8.14969
388 1 -1.1104 0.695666 3.27059 9.57379
389 1 -1.1104 0.757456 8.95583 9.64906
392 1 -1.1104 3.53077 5.94678 12.5839
393 2 2.2208 2.24668 4.68004 8.24963
394 1 -1.1104 3.49442 5.95924 9.77032
395 2 2.2208 2.09244 1.89304 11.1326
396 2 2.2208 2.15177 7.39822 11.0935
397 1 -1.1104 3.44285 3.27698 12.5419
398 1 -1.1104 3.58161 8.8512 12.2933
399 1 -1.1104 3.53629 3.26471 9.76167
400 1 -1.1104 3.47308 8.64974 9.44967
380 1 -1.1104 6.21904 5.97285 9.55205
390 1 -1.1104 6.29397 3.3199 9.68491
391 1 -1.1104 6.30296 8.51904 9.58006
384 1 -1.1104 6.28204 8.78869 12.1829
378 1 -1.1104 6.25716 6.01128 12.4806
383 1 -1.1104 6.42012 3.23541 12.3714
141 1 -1.1104 6.58471 6.11608 6.68291
183 1 -1.1104 12.0423 8.5645 6.76032
178 1 -1.1104 12.1058 5.99997 6.92566
189 1 -1.1104 9.29444 6.05739 6.8915
197 1 -1.1104 9.09247 3.2278 6.71476
199 1 -1.1104 9.29394 8.74297 6.77523
181 1 -1.1104 12.1562 3.26678 6.67912
203 1 -1.1104 9.03353 6.05304 9.80026
230 2 2.2208 7.82957 4.84538 8.27374
231 1 -1.1104 9.46185 5.79909 12.5748
232 1 -1.1104 12.2164 8.77938 9.67764
233 1 -1.1104 12.2704 2.98625 9.63117
234 2 2.2208 10.7085 7.32992 8.3568
268 2 2.2208 10.8083 1.69948 8.23361
269 1 -1.1104 11.9228 8.99786 12.6859
270 1 -1.1104 12.024 3.10331 12.6221
296 1 -1.1104 11.9163 5.85463 9.71089
297 1 -1.1104 12.1484 6.11034 12.5067
299 2 2.2208 10.5882 4.41927 11.0684
323 2 2.2208 7.88109 1.91433 11.0176
324 2 2.2208 7.74509 7.53858 11.0031
346 1 -1.1104 9.32545 3.11824 12.4745
348 1 -1.1104 9.19292 8.74068 12.4373
373 1 -1.1104 9.26244 3.278 9.5681
374 1 -1.1104 9.33901 8.81406 9.62385
32 2 2.2208 13.3661 7.27105 10.9367
327 2 2.2208 13.5406 1.6724 11.0308
239 1 -1.1104 20.5876 3.0945 6.81428
227 1 -1.1104 14.7416 8.80051 6.87624
208 1 -1.1104 17.7038 5.99954 6.94548
225 1 -1.1104 15.0066 3.10772 6.80845
204 2 2.2208 13.7227 4.48178 8.24524
326 1 -1.1104 20.4044 8.63292 12.6938
211 1 -1.1104 17.9686 3.40015 6.75228
219 1 -1.1104 14.9828 5.93929 6.76562
241 1 -1.1104 20.507 8.65712 6.69572
344 1 -1.1104 20.6134 3.45845 9.6516
325 1 -1.1104 20.2619 3.22703 12.5309
345 1 -1.1104 20.4368 8.83594 9.72779
321 1 -1.1104 20.6127 6.09873 9.58262
213 1 -1.1104 17.5801 8.86637 7.02252
33 2 2.2208 16.4495 4.51813 11.0915
34 1 -1.1104 17.8931 5.88026 12.4075
35 1 -1.1104 14.8166 5.9991 9.56689
36 1 -1.1104 17.738 5.79873 9.66104
37 2 2.2208 19.1134 1.85939 11.189
38 1 -1.1104 17.497 3.3119 12.4931
69 2 2.2208 19.1379 7.30485 11.0413
70 1 -1.1104 17.8137 8.699 12.4901
71 1 -1.1104 14.8053 2.97238 12.331
97 2 2.2208 16.489 1.81551 8.08296
98 1 -1.1104 14.8439 8.80374 12.3345
133 2 2.2208 16.3874 7.30035 8.30932
134 1 -1.1104 17.7594 3.00678 9.60993
172 1 -1.1104 15.0131 3.33965 9.47561
173 1 -1.1104 17.7326 8.63152 9.61837
174 1 -1.1104 14.9542 8.84516 9.51811
175 1 -1.1104 14.8172 5.93467 12.4408
202 2 2.2208 19.113 4.53265 8.14498
236 1 -1.1104 20.5573 5.96243 6.78705
68 1 -1.1104 23.0151 3.41784 12.4025
293 1 -1.1104 26.0347 6.0915 9.533
72 1 -1.1104 23.2276 8.89803 12.1236
375 1 -1.1104 26.0589 8.85285 9.55396
96 2 2.2208 21.7881 7.33311 8.14435
295 2 2.2208 24.7269 7.32805 10.8837
246 1 -1.1104 23.2428 5.87923 6.88836
99 1 -1.1104 23.3285 3.13945 9.5567
249 1 -1.1104 23.3302 2.96671 6.74961
265 1 -1.1104 26.2789 8.77483 6.85105
257 1 -1.1104 26.0589 5.96816 6.81624
263 1 -1.1104 26.1227 3.2083 6.9228
251 1 -1.1104 23.2725 8.68786 6.732
135 2 2.2208 24.6481 4.54052 8.18589
371 2 2.2208 21.9428 4.62792 10.8854
385 2 2.2208 27.648 1.77475 8.08805
95 2 2.2208 22.0593 1.57871 8.25367
66 2 2.2208 27.4966 4.48089 10.8881
347 1 -1.1104 20.9007 5.96201 12.298
320 1 -1.1104 26.1913 8.61114 12.4409
67 1 -1.1104 23.4459 5.94203 9.67699
298 1 -1.1104 26.0617 3.23164 12.421
294 2 2.2208 24.6529 1.82519 11.1243
322 1 -1.1104 26.1035 3.04953 9.75694
131 1 -1.1104 23.3306 8.84614 9.41624
39 2 2.2208 27.5559 7.46598 8.14326
372 1 -1.1104 23.4247 6.18103 12.3453
132 1 -1.1104 26.2615 5.90575 12.1758
402 2 2.2208 5.08064 -1.02152 16.7847
403 1 -1.1104 0.715435 -5.40762 18.0973
404 1 -1.1104 0.520003 0.512638 17.8109
407 1 -1.1104 0.822394 -5.44959 15.262
408 1 -1.1104 0.644561 0.227804 15.1527
411 1 -1.1104 0.849773 -2.51343 17.9029
414 2 2.2208 4.93255 -3.88586 19.7098
415 1 -1.1104 0.680559 -2.82186 15.2441
417 1 -1.1104 3.56629 -5.17896 18.1727
418 1 -1.1104 3.5994 0.285355 18.1863
419 2 2.2208 2.06939 -1.15484 19.4925
420 1 -1.1104 3.8432 -5.38521 15.4013
421 1 -1.1104 3.69601 0.113826 15.1515
422 2 2.2208 2.16018 -3.90129 16.6544
423 1 -1.1104 3.45415 -2.29087 18.0331
424 1 -1.1104 3.66312 -2.46343 15.2057
405 1 -1.1104 6.29297 -5.19086 18.1766
406 1 -1.1104 6.49506 0.478109 17.9847
412 1 -1.1104 6.3688 -2.46393 18.144
410 1 -1.1104 6.49117 0.505207 15.2816
416 1 -1.1104 6.55651 -2.34967 15.2982
409 1 -1.1104 6.44485 -5.09566 15.5578
838 2 2.2208 4.77532 -3.90727 14.0716
837 2 2.2208 2.21489 -0.956704 13.7866
428 2 2.2208 10.7252 -0.98169 16.7449
429 1 -1.1104 12.2002 -5.83034 17.9234
430 1 -1.1104 12.2442 0.298768 18.1382
431 1 -1.1104 11.9217 -5.26953 15.2201
432 1 -1.1104 12.0667 0.246654 15.3567
433 1 -1.1104 12.1915 -2.71233 18.2044
434 2 2.2208 10.6893 -3.93166 19.4053
435 1 -1.1104 12.0339 -2.61141 15.2105
436 1 -1.1104 9.14503 -5.16325 18.0566
437 1 -1.1104 9.42977 0.555049 18.1924
438 2 2.2208 7.95786 -0.986375 19.4164
440 1 -1.1104 9.17765 -5.29003 15.1135
441 1 -1.1104 9.00686 0.482267 15.1395
442 2 2.2208 7.71224 -3.65439 16.8078
444 1 -1.1104 9.2928 -2.30424 18.1336
445 1 -1.1104 9.29293 -2.50756 15.1612
620 1 -1.1104 12.3839 -4.91237 20.4917
443 2 2.2208 13.4828 -3.81951 16.5013
439 2 2.2208 13.4641 -1.1323 19.5446
22449 2 2.2208 13.3269 -6.53752 13.9284
22424 2 2.2208 13.4865 -6.58037 19.5115
841 2 2.2208 10.5185 -3.844 13.7774
840 2 2.2208 7.77356 -1.11247 13.7609
842 2 2.2208 13.4628 -1.15417 13.7619
450 2 2.2208 16.3041 -1.01933 16.7101
451 1 -1.1104 17.4656 -5.50325 18.2632
452 1 -1.1104 17.7036 0.271745 18.3229
453 1 -1.1104 17.5681 -5.31237 15.3043
454 1 -1.1104 17.4788 0.591826 15.1706
455 1 -1.1104 17.9267 -2.65417 18.2459
456 2 2.2208 16.2555 -3.90546 19.5409
457 1 -1.1104 17.705 -2.30433 15.323
458 1 -1.1104 14.8089 -5.24103 17.882
459 1 -1.1104 14.682 0.273565 18.0761
460 2 2.2208 19.1885 -0.967194 19.8175
461 1 -1.1104 14.8046 -5.04004 14.9908
462 1 -1.1104 14.7685 0.22641 15.1401
463 2 2.2208 18.9994 -3.95734 16.7206
464 1 -1.1104 15.3751 -2.52809 17.988
465 1 -1.1104 14.7411 -2.43703 15.1478
474 1 -1.1104 20.4325 -2.54094 15.3509
469 1 -1.1104 20.4701 -5.20458 18.1949
470 1 -1.1104 20.3509 0.544047 18.2513
473 1 -1.1104 20.701 -2.32348 18.1683
472 1 -1.1104 20.4153 0.48015 15.2901
471 1 -1.1104 20.4894 -5.08544 15.2288
844 2 2.2208 19.0157 -0.853573 13.9812
843 2 2.2208 16.4028 -3.84145 13.7553
839 2 2.2208 27.4897 -3.9488 13.6872
846 2 2.2208 21.809 -3.72635 13.9026
413 2 2.2208 27.6402 -4.0491 19.5328
401 2 2.2208 27.4876 -1.21116 16.7193
475 2 2.2208 21.8503 -1.10645 16.8541
476 1 -1.1104 23.3873 -5.40872 18.3578
477 1 -1.1104 23.221 0.336821 18.1268
478 1 -1.1104 23.5952 -5.48422 15.5333
479 1 -1.1104 23.2956 0.323121 15.2501
480 1 -1.1104 23.4654 -2.48465 18.1932
481 2 2.2208 22.0005 -3.86742 19.557
482 1 -1.1104 23.3255 -2.5228 15.3985
483 1 -1.1104 26.3198 -5.20975 18.1332
484 1 -1.1104 25.9727 0.471956 18.089
485 2 2.2208 24.7007 -0.999824 19.3934
486 1 -1.1104 26.2609 -5.23686 15.3706
487 1 -1.1104 25.9231 0.183369 15.3227
488 2 2.2208 24.8265 -3.87642 16.8637
489 1 -1.1104 26.1272 -2.38561 18.0851
490 1 -1.1104 26.1331 -2.56935 15.2718
845 2 2.2208 24.7184 -1.14995 13.799
492 2 2.2208 4.93992 4.49125 16.5661
493 1 -1.1104 0.798714 6.00916 17.9235
495 1 -1.1104 0.930722 6.05608 15.0655
497 1 -1.1104 0.753082 3.10631 17.9885
498 1 -1.1104 0.721049 8.85195 17.896
502 2 2.2208 5.04726 1.69997 19.4983
503 2 2.2208 4.88863 7.38109 19.4402
504 1 -1.1104 0.560251 3.08509 15.2266
505 1 -1.1104 0.620143 8.94728 15.0975
508 1 -1.1104 3.52846 5.75043 18.1746
509 2 2.2208 2.19408 4.27551 19.3787
510 1 -1.1104 3.66573 5.97459 15.3632
511 2 2.2208 2.03723 1.68281 16.45
512 2 2.2208 2.18842 7.40582 16.6851
513 1 -1.1104 3.52073 3.05018 17.9007
514 1 -1.1104 3.44851 8.68864 18.0358
515 1 -1.1104 3.54118 3.06735 15.2608
516 1 -1.1104 3.6198 8.87818 15.1735
709 1 -1.1104 3.60794 8.79012 20.5865
500 1 -1.1104 6.51934 8.88062 18.2063
506 1 -1.1104 6.0597 3.38515 15.1071
494 1 -1.1104 6.42822 6.1312 18.1808
507 1 -1.1104 6.24786 8.86342 15.1997
499 1 -1.1104 6.41136 3.27488 17.9843
496 1 -1.1104 6.45523 6.1844 15.273
847 2 2.2208 2.14067 4.64731 13.9491
848 2 2.2208 4.85674 1.86773 13.7959
708 1 -1.1104 3.41458 2.90394 20.7153
704 1 -1.1104 0.686973 8.41889 20.641
850 2 2.2208 4.82104 7.54275 13.8567
825 2 2.2208 10.7703 7.52204 13.9652
827 2 2.2208 13.4609 4.28542 13.8569
530 2 2.2208 7.69198 1.89002 16.5781
517 2 2.2208 10.7123 4.63481 16.7637
518 1 -1.1104 12.1396 5.74407 18.0321
519 1 -1.1104 11.9971 6.16861 15.2531
520 1 -1.1104 12.2673 3.18533 18.0512
521 1 -1.1104 12.1196 8.61363 18.1079
522 2 2.2208 10.8112 1.875 19.7234
523 2 2.2208 10.6486 7.43101 19.5057
524 1 -1.1104 11.7245 3.17629 15.3793
525 1 -1.1104 12.1825 8.83507 15.353
526 1 -1.1104 9.20885 6.1721 18.1168
527 2 2.2208 7.8506 4.77711 19.3414
529 1 -1.1104 9.26164 6.04315 15.5108
531 2 2.2208 7.68318 7.5447 16.8217
533 1 -1.1104 9.19108 3.33366 18.1575
534 1 -1.1104 9.25422 8.93485 17.9024
535 1 -1.1104 9.04454 3.30312 15.2038
536 1 -1.1104 9.26419 8.71968 15.1145
532 2 2.2208 13.4802 1.78462 16.7611
537 2 2.2208 13.537 7.43478 16.5898
528 2 2.2208 13.4453 4.77943 19.6849
824 2 2.2208 10.4997 1.66143 13.8986
826 2 2.2208 7.96607 4.60277 13.8644
803 2 2.2208 16.3315 7.32883 13.6864
804 2 2.2208 16.1384 1.74001 13.8549
538 2 2.2208 16.1839 4.53224 16.676
539 1 -1.1104 17.6328 6.04053 18.0454
540 1 -1.1104 17.7579 5.98614 15.0884
541 1 -1.1104 17.6515 3.1211 18.1689
542 1 -1.1104 17.5204 8.79443 18.2455
543 2 2.2208 16.2261 1.68458 19.5047
544 2 2.2208 16.1503 7.43049 19.336
545 1 -1.1104 17.8699 3.29529 15.584
546 1 -1.1104 17.7119 8.56446 15.1703
547 1 -1.1104 14.7569 5.88241 18.079
548 2 2.2208 19.0203 4.7406 19.3789
549 1 -1.1104 14.6982 5.91028 15.0362
550 2 2.2208 19.1926 1.87363 16.8734
551 2 2.2208 19.1103 7.44724 16.5345
552 1 -1.1104 14.9544 3.21271 18.2037
553 1 -1.1104 14.7344 8.81531 17.9763
554 1 -1.1104 14.8364 3.18207 15.1183
555 1 -1.1104 15.0523 8.76692 15.2539
562 1 -1.1104 20.3885 8.92212 15.3541
561 1 -1.1104 20.3304 3.26455 15.2412
557 1 -1.1104 20.385 6.08256 17.9561
559 1 -1.1104 20.4509 3.37754 18.1944
560 1 -1.1104 20.5115 9.102 18.0726
802 2 2.2208 19.2199 4.69999 13.8398
558 1 -1.1104 20.508 6.03431 15.1133
619 1 -1.1104 20.3556 5.94692 20.6366
849 2 2.2208 27.4497 1.59398 13.8289
810 2 2.2208 21.9664 7.30141 13.7431
805 2 2.2208 24.6839 4.74596 13.8243
491 2 2.2208 27.3793 4.36469 16.5533
556 2 2.2208 27.611 7.24941 19.3676
501 2 2.2208 27.3135 1.97626 19.4263
563 2 2.2208 22.0226 4.5917 16.5877
564 1 -1.1104 23.2468 5.85227 18.172
565 1 -1.1104 23.4419 5.94114 15.2096
566 1 -1.1104 23.3625 3.05592 17.9595
567 1 -1.1104 23.2312 8.63786 18.0995
568 2 2.2208 21.8639 1.95208 19.5123
569 2 2.2208 21.81 7.37385 19.4121
570 1 -1.1104 23.1771 3.20568 15.3524
571 1 -1.1104 23.3484 8.66805 15.3739
572 1 -1.1104 25.9868 5.94113 18.0517
573 2 2.2208 24.7985 4.59662 19.5358
574 1 -1.1104 26.1416 5.78555 15.2985
575 2 2.2208 24.5137 1.64477 16.6945
576 2 2.2208 24.6716 7.22286 16.6989
577 1 -1.1104 26.0125 3.12051 17.8808
578 1 -1.1104 26.201 8.66799 17.85
579 1 -1.1104 25.9248 3.0003 15.2304
580 1 -1.1104 26.2244 8.88764 15.0428
806 2 2.2208 27.6768 7.18822 13.8288
447 1 -1.1104 26.0928 8.57084 20.5522
801 2 2.2208 21.8621 1.84048 13.748
583 1 -1.1104 0.484709 0.156252 20.8666
588 1 -1.1104 3.53622 -5.24521 21.0233
586 1 -1.1104 0.765439 -2.5301 20.9936
585 1 -1.1104 6.45318 0.409294 21.0329
582 1 -1.1104 0.521597 -5.38231 20.9718
587 1 -1.1104 6.22574 -2.51828 21.1907
22433 2 2.2208 4.88747 -6.60448 22.4622
590 1 -1.1104 3.4187 -2.36595 20.9452
589 1 -1.1104 3.50436 0.0134175 21.0582
584 1 -1.1104 6.48875 -5.34441 20.9047
594 2 2.2208 4.87929 -0.947818 22.4834
595 1 -1.1104 0.749807 -5.23808 23.7387
596 1 -1.1104 0.640673 0.102497 23.706
599 1 -1.1104 0.635797 -5.51016 26.5375
600 1 -1.1104 0.858939 0.337605 26.4775
603 1 -1.1104 0.719415 -2.49952 23.8432
606 2 2.2208 5.07655 -3.77277 25.2513
607 1 -1.1104 0.791599 -2.41067 26.6363
609 1 -1.1104 3.61797 -5.34045 24.0597
610 1 -1.1104 3.36322 0.519958 23.7004
611 2 2.2208 2.13718 -1.01343 25.1853
612 1 -1.1104 3.60806 -5.41643 26.8248
613 1 -1.1104 3.61581 0.321331 26.436
614 2 2.2208 1.96465 -3.78951 22.4773
615 1 -1.1104 3.55744 -2.42022 23.976
616 1 -1.1104 3.79345 -2.59594 26.7363
597 1 -1.1104 6.43878 -5.11778 23.8359
601 1 -1.1104 6.42825 -5.3728 26.6197
598 1 -1.1104 6.27831 0.372984 23.8116
608 1 -1.1104 6.40474 -2.3696 26.6878
602 1 -1.1104 6.40157 0.582069 26.566
604 1 -1.1104 6.35816 -2.35169 23.7638
625 1 -1.1104 9.10038 -2.647 20.8263
623 1 -1.1104 9.3427 -5.37635 20.8881
624 1 -1.1104 9.3209 0.627972 21.0794
621 1 -1.1104 11.9807 0.388207 21.0303
622 1 -1.1104 11.9129 -2.28595 21.0126
626 2 2.2208 10.6509 -1.24935 22.4002
627 1 -1.1104 11.9936 -5.53296 23.6151
628 1 -1.1104 12.0734 0.338661 23.9144
629 1 -1.1104 11.9448 -5.46391 26.6296
630 1 -1.1104 12.0094 0.292677 26.676
631 1 -1.1104 11.9935 -2.7309 23.8467
632 2 2.2208 10.5264 -3.99831 25.2297
633 1 -1.1104 12.1277 -2.53758 26.6304
634 1 -1.1104 9.1971 -5.17208 23.8664
635 1 -1.1104 9.25515 0.367595 23.8422
636 2 2.2208 7.79858 -0.860315 25.3295
638 1 -1.1104 9.08416 -5.1773 26.5883
639 1 -1.1104 9.28542 0.488387 26.6501
640 2 2.2208 7.77991 -3.91756 22.4813
642 1 -1.1104 9.26616 -2.48519 23.8058
643 1 -1.1104 9.21639 -2.36184 26.5329
637 2 2.2208 13.5122 -1.0124 25.3243
641 2 2.2208 13.3207 -4.06449 22.1855
22435 2 2.2208 7.61316 -6.56905 25.0447
670 1 -1.1104 20.7016 -5.04161 21.0028
651 1 -1.1104 14.7417 -2.51276 20.9594
648 1 -1.1104 17.7597 -2.47895 21.0771
672 1 -1.1104 20.442 -2.38879 21.0095
646 1 -1.1104 17.9264 -5.45277 21.1701
647 1 -1.1104 17.642 0.554324 21.2473
671 1 -1.1104 20.5193 0.505642 20.9699
650 1 -1.1104 14.9455 0.357118 20.9754
649 1 -1.1104 14.9302 -5.19765 20.8243
652 2 2.2208 16.1293 -1.10826 22.4253
653 1 -1.1104 17.5971 -5.46165 24.0488
654 1 -1.1104 17.6851 0.242871 23.9529
655 1 -1.1104 17.7011 -5.26338 26.7068
656 1 -1.1104 17.6898 0.309786 26.7401
657 1 -1.1104 17.4642 -2.52472 23.9833
658 2 2.2208 16.2512 -4.0612 25.2389
659 1 -1.1104 17.9411 -2.6793 26.6754
660 1 -1.1104 14.7659 -5.52949 23.8572
661 1 -1.1104 14.9139 0.257537 23.7195
662 2 2.2208 19.0861 -1.15567 25.256
663 1 -1.1104 15.0261 -5.13538 26.7456
664 1 -1.1104 14.8783 0.525904 26.6228
665 2 2.2208 19.216 -3.89811 22.4571
666 1 -1.1104 14.8104 -2.67851 23.8324
667 1 -1.1104 15.2661 -2.36275 26.6275
683 1 -1.1104 20.4375 -2.44004 23.8963
679 1 -1.1104 20.5163 -5.3273 23.6782
682 1 -1.1104 20.4655 0.293216 26.7624
681 1 -1.1104 20.7093 -5.37205 26.4755
684 1 -1.1104 20.6569 -2.37673 26.5841
680 1 -1.1104 20.4428 0.188211 23.9058
677 1 -1.1104 26.0226 0.336375 20.8022
674 1 -1.1104 23.1043 0.469064 21.0498
673 1 -1.1104 23.251 -5.23415 21.1231
678 1 -1.1104 26.1829 -2.58523 20.8965
676 1 -1.1104 26.0238 -5.18141 21.0027
605 2 2.2208 27.616 -3.81474 25.3285
675 1 -1.1104 23.3151 -2.43505 20.9559
593 2 2.2208 27.4582 -1.15436 22.2058
685 2 2.2208 21.8833 -1.09361 22.2613
686 1 -1.1104 23.2387 -5.37307 23.8178
687 1 -1.1104 23.2476 0.18302 23.838
688 1 -1.1104 23.4845 -5.35703 26.8155
689 1 -1.1104 23.4197 0.4941 26.5763
690 1 -1.1104 23.2711 -2.42426 23.6164
691 2 2.2208 22.0303 -3.77098 25.1647
692 1 -1.1104 23.3718 -2.54489 26.4745
693 1 -1.1104 26.1396 -5.54895 24.085
694 1 -1.1104 25.9825 0.222744 23.5672
695 2 2.2208 24.6751 -1.09746 25.1515
696 1 -1.1104 26.1357 -5.19619 26.9293
697 1 -1.1104 26.1921 0.401858 26.6239
698 2 2.2208 24.6497 -3.91859 22.3247
699 1 -1.1104 26.276 -2.83068 23.8193
700 1 -1.1104 26.143 -2.34318 26.5828
707 1 -1.1104 3.65527 6.19944 20.8293
705 1 -1.1104 6.22431 3.28485 20.7876
703 1 -1.1104 0.629831 2.89034 20.7266
701 1 -1.1104 1.02546 5.63575 20.7655
702 1 -1.1104 6.45222 6.08792 20.7322
711 2 2.2208 4.76898 4.60508 22.0972
712 1 -1.1104 0.762498 5.87066 23.6629
714 1 -1.1104 0.751212 6.02219 26.7255
716 1 -1.1104 0.589658 2.94171 23.7941
717 1 -1.1104 0.713312 8.87791 23.2657
721 2 2.2208 4.83287 1.86928 24.9493
722 2 2.2208 4.96338 7.37147 24.8648
723 1 -1.1104 0.740804 3.17924 26.4688
724 1 -1.1104 0.726235 8.95328 26.0005
727 1 -1.1104 3.40908 6.15074 23.6364
728 2 2.2208 2.03616 4.47041 25.1363
729 1 -1.1104 3.71312 5.62581 26.3283
730 2 2.2208 2.12712 1.54968 22.1589
731 2 2.2208 2.19764 7.41179 22.1588
732 1 -1.1104 3.35252 3.24792 23.2658
733 1 -1.1104 3.52441 8.79442 23.5478
734 1 -1.1104 3.45044 2.97595 26.4149
735 1 -1.1104 3.59795 8.77293 26.4977
718 1 -1.1104 6.26409 3.15407 23.5508
715 1 -1.1104 6.46827 6.00884 26.6097
725 1 -1.1104 6.33654 3.28717 26.4201
719 1 -1.1104 6.3418 8.8709 23.7135
706 1 -1.1104 6.31391 8.87775 20.8351
713 1 -1.1104 6.3084 6.00288 23.68
726 1 -1.1104 6.32419 8.71799 26.4053
737 1 -1.1104 12.0806 3.28629 20.8911
741 1 -1.1104 9.22839 8.80109 20.9449
739 1 -1.1104 9.09961 6.02392 20.7248
736 1 -1.1104 11.9894 6.07044 20.8607
740 1 -1.1104 9.25372 3.14449 20.8936
738 1 -1.1104 12.0196 8.80191 20.9588
742 2 2.2208 10.7989 4.70011 22.261