ITEM: TIMESTEP
20000
ITEM: NUMBER OF ATOMS
17640
ITEM: BOX BOUNDS pp pp pp
-4.4795652068507535e-01 2.7787956520685068e+01
-5.2315263126353653e+00 3.3331152631262813e+02
-4.4411125822503056e-01 2.7784111258225423e+01
ITEM: ATOMS id type q x y z
1 2 2.2208 5.30264 0.392213 5.18666
2 1 -1.1104 1.13013 -3.52782 1.33145
6 1 -1.1104 1.05326 -3.78375 4.03621
10 1 -1.1104 1.17562 -0.792307 0.916285
12 2 2.2208 5.15511 -2.3599 2.4046
14 1 -1.1104 1.04623 -0.852302 3.75202
16 1 -1.1104 3.66314 -3.9533 0.875636
18 2 2.2208 2.45751 0.499942 2.48439
19 1 -1.1104 3.75695 -3.84215 3.77286
21 2 2.2208 2.47264 -2.39065 5.21225
23 1 -1.1104 3.85172 -1.09637 1.05488
24 1 -1.1104 3.99031 -0.888337 3.88063
174 1 -1.1104 3.8918 -1.1 6.43262
166 1 -1.1104 0.774029 -3.62678 6.72666
8996 2 2.2208 11.0347 -5.20297 5.19288
8 1 -1.1104 6.53286 -3.7293 3.89659
8992 2 2.2208 2.36204 -5.19638 2.45415
136 2 2.2208 -0.382159 19.9632 2.2596
335 2 2.2208 -0.346816 20.0638 13.3314
367 2 2.2208 -0.444369 8.74693 13.6189
11 1 -1.1104 6.54911 -1.03307 1.05396
15 1 -1.1104 6.65247 -0.923574 3.77036
4 1 -1.1104 6.61718 -3.82449 1.01827
31 2 2.2208 10.7505 0.665979 5.34453
32 1 -1.1104 12.2614 -3.93084 1.07348
34 1 -1.1104 12.4504 -3.95073 3.743
36 1 -1.1104 12.2825 -0.989827 1.14961
37 2 2.2208 10.9308 -2.37094 2.61381
39 1 -1.1104 12.1165 -1.11243 4.07837
40 1 -1.1104 9.51864 -3.6514 1.15943
42 2 2.2208 7.99252 0.331846 2.45581
43 1 -1.1104 9.48893 -3.79185 3.95431
45 2 2.2208 8.05798 -2.38846 5.25832
47 1 -1.1104 9.54542 -0.933982 1.02594
48 1 -1.1104 9.41516 -1.12128 3.59417
210 1 -1.1104 9.43398 -0.6945 6.5572
207 1 -1.1104 12.1564 -0.776593 6.93375
205 1 -1.1104 12.3179 -3.86034 6.52776
372 2 2.2208 8.10648 3.21077 -0.270128
208 1 -1.1104 9.5818 -3.70083 6.54357
3 1 -1.1104 1.01112 2.12326 0.762975
7 1 -1.1104 1.09271 2.023 3.69081
13 2 2.2208 5.28308 3.36458 2.42846
17 1 -1.1104 3.81462 2.04868 1.00198
20 1 -1.1104 4.0348 1.89121 3.78205
22 2 2.2208 2.32594 3.40333 5.20393
54 2 2.2208 5.12455 6.1141 5.12416
56 1 -1.1104 0.976042 7.58344 1.02285
60 1 -1.1104 1.02818 4.78104 0.923682
67 1 -1.1104 1.09652 4.64111 3.6871
71 1 -1.1104 3.94731 7.55903 1.02423
72 2 2.2208 2.26055 6.17369 2.21259
74 1 -1.1104 3.70374 7.80961 3.84439
76 1 -1.1104 3.92121 4.98136 0.958399
79 1 -1.1104 3.94072 4.8632 3.77572
58 1 -1.1104 0.988757 7.46031 3.83373
239 1 -1.1104 3.84827 4.55538 6.57655
312 2 2.2208 -0.359225 17.2205 10.7598
9002 2 2.2208 10.6963 -5.16853 10.8192
236 1 -1.1104 1.158 4.885 6.55711
238 1 -1.1104 3.5738 7.58239 6.80948
167 1 -1.1104 0.76904 2.06228 6.5214
235 1 -1.1104 6.45349 7.4798 6.58886
8994 2 2.2208 -0.451156 -4.91389 5.2996
57 1 -1.1104 6.73013 7.50728 0.97089
5 1 -1.1104 6.4285 1.66384 1.09478
9 1 -1.1104 6.84267 1.9186 3.89872
59 1 -1.1104 6.67578 7.35738 3.89321
63 1 -1.1104 6.68131 4.68409 1.01695
69 1 -1.1104 6.62577 4.77416 3.84088
33 1 -1.1104 12.3388 1.76875 0.924552
35 1 -1.1104 12.3412 1.74569 3.86833
38 2 2.2208 11.0309 3.28545 2.42721
41 1 -1.1104 9.34332 1.78605 1.05325
44 1 -1.1104 9.48954 2.02998 3.9917
46 2 2.2208 7.8362 3.29054 5.45977
84 2 2.2208 10.8834 5.93448 5.28945
86 1 -1.1104 12.236 7.32773 1.14357
87 1 -1.1104 12.1574 7.54737 3.88469
88 1 -1.1104 12.3118 4.47443 0.986563
92 1 -1.1104 12.4299 4.70983 3.75793
94 1 -1.1104 9.38989 7.3961 1.03436
95 2 2.2208 8.06095 5.98388 2.41285
99 1 -1.1104 9.4574 4.58109 1.10241
102 1 -1.1104 9.75109 4.63019 3.72709
97 1 -1.1104 9.38547 7.29245 3.89117
237 1 -1.1104 6.26863 4.69453 6.59002
209 1 -1.1104 9.41607 2.00428 6.69366
8995 2 2.2208 8.16792 -5.16817 2.48612
55 2 2.2208 5.11005 11.7547 5.16197
61 1 -1.1104 0.774523 10.3531 0.957359
66 2 2.2208 5.21119 8.89742 2.60383
68 1 -1.1104 0.780068 10.3361 3.97328
73 2 2.2208 2.33867 11.6918 2.486
75 2 2.2208 2.26443 9.17052 5.2029
77 1 -1.1104 3.59828 10.3008 0.941374
80 1 -1.1104 3.70693 10.3999 3.84444
107 1 -1.1104 0.844627 12.8488 1.12691
113 1 -1.1104 0.896298 13.178 3.93827
123 1 -1.1104 3.88156 12.9711 0.943877
128 1 -1.1104 3.71356 13.0394 3.809
78 1 -1.1104 3.63178 10.245 6.68839
379 2 2.2208 5.30618 6.08603 -0.31137
62 1 -1.1104 0.891004 10.085 6.783
8998 2 2.2208 2.369 -5.08086 8.08546
333 2 2.2208 13.598 14.4937 10.9779
70 1 -1.1104 6.49277 10.3886 3.76219
115 1 -1.1104 6.31054 13.2323 3.99606
110 1 -1.1104 6.67592 13.0651 1.05472
64 1 -1.1104 6.5417 10.3551 0.959132
85 2 2.2208 10.7817 11.5707 5.05456
89 1 -1.1104 12.2482 10.0821 1.26569
91 2 2.2208 10.7663 8.74265 2.54018
93 1 -1.1104 12.0391 10.1585 3.95077
96 2 2.2208 7.93847 11.7519 2.21947
98 2 2.2208 7.89648 8.77433 5.23776
100 1 -1.1104 9.44139 10.3234 0.840236
103 1 -1.1104 9.02359 10.1537 3.66292
142 1 -1.1104 12.147 13.0185 1.02489
146 1 -1.1104 12.0195 12.9414 3.6794
153 1 -1.1104 9.52271 13.0046 0.942159
158 1 -1.1104 9.20153 13.2202 3.48214
160 2 2.2208 7.98038 14.4579 5.04952
90 1 -1.1104 12.1776 10.1793 6.6521
143 1 -1.1104 12.251 13.2223 6.70681
104 2 2.2208 13.569 11.5037 2.55964
9007 2 2.2208 10.8558 -5.23712 -0.193178
119 2 2.2208 5.12145 14.3832 2.40694
106 2 2.2208 5.33981 17.0885 5.08043
109 1 -1.1104 0.967585 18.5499 0.970719
114 1 -1.1104 0.907631 18.6484 3.8066
116 1 -1.1104 0.845682 15.4748 0.81569
120 2 2.2208 5.21484 19.8685 2.44807
121 1 -1.1104 1.16054 15.8224 3.80649
125 1 -1.1104 3.7398 18.6213 1.29706
127 2 2.2208 2.35622 17.1895 2.36133
129 1 -1.1104 3.77992 18.4726 3.79352
130 2 2.2208 2.5118 14.5801 5.35193
131 2 2.2208 2.41338 19.9839 5.09443
132 1 -1.1104 3.89702 15.7782 1.04891
134 1 -1.1104 4.08204 15.7773 3.85712
302 1 -1.1104 0.867252 18.531 6.75955
25 2 2.2208 -0.433587 -2.40012 2.40129
366 2 2.2208 2.48942 3.29922 -0.474883
231 2 2.2208 13.6742 20.1727 5.21663
53 2 2.2208 13.3735 11.6511 7.99376
27 2 2.2208 -0.342574 3.11082 2.27188
122 1 -1.1104 6.90325 15.8225 3.70833
150 2 2.2208 10.9297 14.5383 2.30334
140 1 -1.1104 6.81127 15.9531 0.948039
138 1 -1.1104 6.86731 18.7322 0.945938
139 1 -1.1104 6.71874 18.5152 3.83496
141 2 2.2208 10.9262 17.1273 5.28025
144 1 -1.1104 12.3196 18.731 0.967269
147 1 -1.1104 12.2375 18.5015 3.79304
148 1 -1.1104 12.4566 15.9452 1.01045
151 2 2.2208 10.8663 20.1674 2.28838
152 1 -1.1104 12.4921 15.7973 3.84883
155 1 -1.1104 9.51257 18.7177 0.765016
157 2 2.2208 8.1954 17.153 2.37794
159 1 -1.1104 9.40458 18.7381 3.61629
161 2 2.2208 7.90118 19.9647 5.29821
162 1 -1.1104 9.59232 15.911 0.956857
164 1 -1.1104 9.67419 15.8572 3.96558
118 1 -1.1104 6.99742 15.8938 6.49563
9001 2 2.2208 7.90135 -5.2028 8.1717
203 2 2.2208 13.6777 3.30216 11.0494
8993 2 2.2208 5.25142 -5.22248 5.1509
156 1 -1.1104 9.38238 18.5169 6.60684
170 1 -1.1104 1.03319 -0.835675 6.47153
172 1 -1.1104 3.86101 -3.71185 6.74401
171 1 -1.1104 6.68513 -1.06983 6.51209
339 2 2.2208 2.29175 0.498693 13.5176
168 1 -1.1104 6.85291 -3.84173 6.74961
50 2 2.2208 13.6927 -2.494 5.16846
175 2 2.2208 5.29326 0.419859 10.9258
176 1 -1.1104 1.09704 -3.82087 12.4388
180 1 -1.1104 0.779332 -3.72634 9.65979
184 1 -1.1104 0.963166 -0.914825 12.0836
186 2 2.2208 5.2296 -2.45683 8.09082
188 1 -1.1104 0.944145 -0.930191 9.30271
190 1 -1.1104 3.77998 -3.60383 12.2443
192 2 2.2208 2.30545 0.378541 7.89517
193 1 -1.1104 3.78559 -3.9001 9.63036
195 2 2.2208 2.28688 -2.36687 10.8355
197 1 -1.1104 3.8868 -0.96663 12.2548
198 1 -1.1104 3.86453 -1.02518 9.28885
320 2 2.2208 7.97361 17.3727 8.07318
370 2 2.2208 8.01159 -2.41057 -0.363828
288 1 -1.1104 6.66147 18.5072 9.56382
315 1 -1.1104 9.58277 15.9337 12.3986
321 1 -1.1104 9.33975 18.7025 12.4607
189 1 -1.1104 6.50424 -1.12647 9.47437
182 1 -1.1104 6.48723 -3.90177 9.71493
178 1 -1.1104 6.54048 -3.80992 12.3027
185 1 -1.1104 6.75864 -0.899645 12.3183
211 2 2.2208 10.8104 0.334113 10.829
212 1 -1.1104 12.2303 -3.75546 12.0556
214 1 -1.1104 12.4173 -3.93784 9.07797
216 1 -1.1104 12.3514 -1.0053 12.3256
217 2 2.2208 10.8535 -2.43364 8.03281
219 1 -1.1104 12.0734 -1.17729 9.51218
220 1 -1.1104 9.12525 -3.84855 12.2174
222 2 2.2208 7.89862 0.327412 8.04478
223 1 -1.1104 9.51559 -3.85955 9.33751
225 2 2.2208 7.86971 -2.45826 10.8481
227 1 -1.1104 9.52467 -0.926449 12.3701
228 1 -1.1104 9.23509 -0.940916 9.57206
317 2 2.2208 8.01598 14.4846 10.8735
173 1 -1.1104 3.73012 1.60219 6.5868
318 1 -1.1104 9.46802 18.8113 9.43379
234 1 -1.1104 0.910727 7.56177 6.69318
177 1 -1.1104 0.929472 1.89969 12.2898
181 1 -1.1104 0.738293 1.81442 9.34169
187 2 2.2208 4.93203 3.09505 7.92346
191 1 -1.1104 3.74716 1.85297 12.2142
194 1 -1.1104 3.51889 1.77475 9.43446
196 2 2.2208 2.18758 3.29274 10.7048
240 2 2.2208 5.207 5.85943 10.9135
242 1 -1.1104 0.903572 7.49697 12.1645
246 1 -1.1104 0.831212 4.6426 12.2603
251 1 -1.1104 0.747291 4.50996 9.3574
255 1 -1.1104 3.62717 7.54272 12.3954
256 2 2.2208 2.30153 6.01224 8.09967
260 1 -1.1104 3.56462 4.68057 12.1482
262 1 -1.1104 3.49504 4.52708 9.33129
258 1 -1.1104 4.05646 7.31667 9.81498
244 1 -1.1104 1.01591 7.50498 9.48918
169 1 -1.1104 6.5291 1.91049 6.66178
245 1 -1.1104 6.80691 7.30775 9.40582
296 1 -1.1104 6.55399 18.7861 12.2307
267 1 -1.1104 9.34048 7.41818 6.53219
179 1 -1.1104 6.63261 1.93303 12.2527
183 1 -1.1104 6.42466 1.58851 9.37759
253 1 -1.1104 6.26155 4.3203 9.45846
269 1 -1.1104 9.25393 4.67084 6.73811
266 1 -1.1104 12.428 4.72776 6.51607
265 1 -1.1104 12.0171 7.38814 6.75171
206 1 -1.1104 12.3799 2.14384 6.90455
248 1 -1.1104 6.58162 4.57113 12.3715
243 1 -1.1104 6.21757 7.27786 12.4487
213 1 -1.1104 11.8664 2.06801 12.3099
215 1 -1.1104 11.9782 1.6038 9.42009
218 2 2.2208 10.8582 3.30162 8.1195
221 1 -1.1104 9.39631 1.77972 12.2121
224 1 -1.1104 9.31143 1.75884 9.4689
226 2 2.2208 7.96672 3.1507 10.9184
268 1 -1.1104 9.58522 4.72573 9.50629
271 1 -1.1104 9.29538 4.79523 12.4112
273 1 -1.1104 9.52226 7.35311 9.65636
275 2 2.2208 7.94853 5.97684 7.99294
276 2 2.2208 10.7918 6.016 11.2234
278 1 -1.1104 12.0416 7.68025 12.5204
279 1 -1.1104 12.26 7.44234 9.64162
280 1 -1.1104 12.1466 4.72053 12.312
283 1 -1.1104 12.1741 4.57758 9.46904
285 1 -1.1104 9.08787 7.64867 12.7403
314 1 -1.1104 9.42937 16.012 9.66146
329 1 -1.1104 12.2722 18.7799 12.2363
232 2 2.2208 13.4901 8.71095 5.18497
108 1 -1.1104 0.820398 13.0311 6.62293
124 1 -1.1104 3.67844 13.016 6.72271
305 1 -1.1104 3.80976 13.0979 9.54697
294 1 -1.1104 0.955781 12.9095 9.4068
241 2 2.2208 5.21954 11.5461 10.7859
247 1 -1.1104 1.04383 10.2569 12.3692
250 2 2.2208 5.01486 8.69948 8.19624
252 1 -1.1104 0.918532 10.2355 9.63885
257 2 2.2208 2.33634 11.6743 8.02219
259 2 2.2208 2.29021 8.81421 10.8661
261 1 -1.1104 3.91214 10.231 12.3365
263 1 -1.1104 3.73414 10.1884 9.45821
299 1 -1.1104 0.877111 13.0639 12.2316
287 1 -1.1104 3.78335 13.1927 12.3709
310 2 2.2208 2.302 14.2602 10.898
229 2 2.2208 13.4325 0.48607 8.06291
325 2 2.2208 10.8014 14.5741 8.09197
29 2 2.2208 -0.388406 6.11247 10.778
111 1 -1.1104 6.49661 13.3341 6.59608
249 1 -1.1104 6.73085 10.2531 12.3193
65 1 -1.1104 6.47156 10.5189 6.62686
101 1 -1.1104 9.48111 10.2799 6.62379
290 1 -1.1104 6.5622 12.9298 9.37179
154 1 -1.1104 9.18183 12.9176 6.5563
254 1 -1.1104 6.5825 10.0456 9.42173
297 1 -1.1104 6.49666 12.96 12.0278
330 1 -1.1104 12.1131 13.0843 12.257
328 1 -1.1104 12.0491 13.0351 9.45497
322 1 -1.1104 9.33303 13.393 12.2858
319 1 -1.1104 9.14066 13.1645 9.52513
264 1 -1.1104 9.48876 10.2159 9.39859
270 1 -1.1104 9.48131 10.2727 12.3375
272 2 2.2208 7.93913 8.95022 11.017
274 2 2.2208 7.97959 11.685 7.95063
277 2 2.2208 10.7671 11.5919 10.9139
281 1 -1.1104 12.4111 10.4493 12.3076
282 2 2.2208 10.7835 8.80221 7.98146
284 1 -1.1104 11.9844 10.1462 9.61676
306 1 -1.1104 6.78984 15.9281 12.1722
112 1 -1.1104 6.61042 18.678 6.72091
344 2 2.2208 13.7071 14.4389 -0.297986
133 1 -1.1104 4.00717 15.8931 6.82035
327 1 -1.1104 12.3355 18.8246 9.52765
126 1 -1.1104 3.67899 18.636 6.59083
117 1 -1.1104 0.906357 15.8406 6.7746
307 1 -1.1104 1.27775 15.8163 12.3678
304 1 -1.1104 3.7782 15.7404 9.83356
309 2 2.2208 2.51049 20.2361 10.7017
298 1 -1.1104 1.21581 18.6907 11.9668
303 2 2.2208 2.51607 17.1485 8.25408
295 2 2.2208 5.25543 14.4556 8.20638
293 2 2.2208 5.17663 20.0617 7.88395
308 1 -1.1104 4.18682 16.1375 12.6385
301 1 -1.1104 3.85109 18.6845 9.29952
300 2 2.2208 5.17315 17.2226 10.7617
286 1 -1.1104 3.85428 18.5636 12.1911
291 1 -1.1104 1.19684 18.7292 9.23207
292 1 -1.1104 1.07746 15.735 9.40262
289 1 -1.1104 6.66976 15.7936 9.44079
81 2 2.2208 -0.380117 6.12036 5.24304
149 1 -1.1104 12.4777 15.8488 6.76757
145 1 -1.1104 12.2448 18.6794 6.79067
324 2 2.2208 10.8203 20.0435 7.98197
316 2 2.2208 7.99465 20.1276 10.9141
326 1 -1.1104 12.3795 15.9638 12.3356
163 1 -1.1104 9.62766 15.8099 6.77009
323 1 -1.1104 12.2304 16.0563 9.5367
331 2 2.2208 10.7914 17.3098 10.935
49 2 2.2208 13.7159 0.294043 2.50185
369 2 2.2208 10.8382 0.316503 -0.451908
52 2 2.2208 13.5774 8.95859 11.0548
311 2 2.2208 -0.370066 20.0656 8.11053
230 2 2.2208 13.7186 -2.26909 10.9278
385 2 2.2208 8.01419 8.80181 -0.499338
347 2 2.2208 7.98152 14.3255 -0.417469
346 2 2.2208 10.8403 -2.48263 13.5677
341 2 2.2208 5.19027 3.11443 13.575
368 2 2.2208 -0.400098 0.502706 -0.367621
380 2 2.2208 2.3694 8.96974 -0.364556
361 2 2.2208 10.8699 14.5915 13.4826
364 2 2.2208 5.14689 0.286582 -0.253077
340 2 2.2208 13.503 0.606165 13.5929
388 2 2.2208 5.24069 0.477422 16.5206
389 1 -1.1104 0.942121 -3.87339 18.1022
393 1 -1.1104 1.06288 -3.75225 15.3132
401 1 -1.1104 0.958951 -1.19886 17.8964
403 2 2.2208 5.37288 -2.41637 19.537
405 1 -1.1104 0.983016 -0.767422 14.9298
409 1 -1.1104 3.6649 -3.99479 18.1784
411 2 2.2208 2.32251 0.558673 19.3321
412 1 -1.1104 3.63666 -3.83045 15.407
416 2 2.2208 2.45926 -2.35372 16.5046
418 1 -1.1104 4.0256 -1.11739 17.9879
419 1 -1.1104 3.83539 -1.22019 15.0926
420 1 -1.1104 3.81361 -1.08714 20.9973
397 1 -1.1104 6.61441 -3.77047 15.4457
422 2 2.2208 13.5391 8.65616 22.2249
9089 2 2.2208 10.9454 -5.07845 22.3069
354 2 2.2208 7.83724 6.21394 13.7131
360 2 2.2208 10.6438 20.3141 13.7064
394 1 -1.1104 0.978541 -3.71224 20.9839
423 2 2.2208 13.6684 3.20657 22.1343
402 1 -1.1104 6.65542 -0.921338 17.7716
407 1 -1.1104 6.54614 -1.063 15.0958
391 1 -1.1104 6.5706 -3.94078 18.2474
431 2 2.2208 10.7669 0.375919 16.5637
432 1 -1.1104 12.3337 -3.65822 17.8469
434 1 -1.1104 12.3403 -3.85816 14.8497
438 1 -1.1104 12.4654 -1.0422 17.7702
439 2 2.2208 11.0482 -2.33686 19.3354
441 1 -1.1104 11.9252 -1.0799 15.0089
443 1 -1.1104 9.53273 -3.63744 17.7796
445 2 2.2208 8.0395 0.558459 19.3768
446 1 -1.1104 9.40417 -4.02472 14.9199
450 2 2.2208 8.04242 -2.5229 16.3908
452 1 -1.1104 9.60464 -0.915998 18.2083
453 1 -1.1104 9.34541 -1.0833 15.2819
408 1 -1.1104 6.58345 -0.964761 20.6807
357 2 2.2208 2.53232 17.1456 13.8347
9126 2 2.2208 -0.339356 -5.1338 22.2327
435 1 -1.1104 12.5742 -3.66042 20.8732
442 1 -1.1104 12.4223 -0.739743 20.755
623 2 2.2208 -0.400865 17.2761 21.9553
390 1 -1.1104 0.850058 1.58996 17.9396
395 1 -1.1104 0.870002 1.8368 15.189
404 2 2.2208 5.14759 3.22736 19.3179
410 1 -1.1104 3.59368 1.96711 17.9014
414 1 -1.1104 3.86168 1.53423 14.9527
417 2 2.2208 2.18786 3.28628 16.4605
464 2 2.2208 5.18566 6.04766 16.599
466 1 -1.1104 1.15884 7.38233 17.7288
468 1 -1.1104 0.832956 7.37778 15.1747
472 1 -1.1104 0.976209 4.50062 18.0093
477 1 -1.1104 0.943105 4.62695 15.0805
485 1 -1.1104 3.92041 7.38427 17.8751
486 2 2.2208 2.48307 6.03568 19.3421
488 1 -1.1104 3.75889 7.38305 15.1358
491 1 -1.1104 3.6224 4.61074 18.1258
493 1 -1.1104 3.99106 4.40379 15.2212
9158 2 2.2208 5.06957 -5.20206 16.8112
470 1 -1.1104 6.45824 7.65672 15.2972
625 2 2.2208 -0.216826 0.329643 22.2089
494 1 -1.1104 3.91727 4.65532 20.7883
415 1 -1.1104 3.75344 1.92917 20.5092
396 1 -1.1104 1.00224 1.84135 20.797
462 2 2.2208 10.901 17.461 22.3187
399 1 -1.1104 6.54981 1.82225 15.2049
474 1 -1.1104 6.52947 4.64279 18.0362
481 1 -1.1104 6.62019 4.72025 15.1106
467 1 -1.1104 6.70954 7.37165 18.1881
392 1 -1.1104 6.64186 1.86531 17.9372
433 1 -1.1104 12.2638 1.97847 17.9344
436 1 -1.1104 12.2167 1.93495 15.2215
440 2 2.2208 10.9052 3.15914 19.3064
444 1 -1.1104 9.47856 1.6929 17.9877
448 1 -1.1104 9.33106 1.72125 15.4625
451 2 2.2208 7.74869 3.23441 16.4796
500 2 2.2208 10.8029 6.03012 16.5739
502 1 -1.1104 12.435 7.50087 18.007
503 1 -1.1104 12.3187 7.35974 15.2562
505 1 -1.1104 12.1019 4.73729 17.9756
508 1 -1.1104 12.1687 4.62151 15.2246
512 1 -1.1104 9.39365 7.48186 18.0172
513 2 2.2208 7.95926 5.92779 19.4177
515 1 -1.1104 9.26733 7.54052 15.3502
518 1 -1.1104 9.35715 4.57909 18.0831
520 1 -1.1104 9.17271 4.67599 15.2622
482 1 -1.1104 6.6309 4.53746 20.8317
400 1 -1.1104 6.65799 1.93532 20.7161
471 1 -1.1104 6.76634 7.45996 20.928
437 1 -1.1104 12.3804 1.89605 20.6586
449 1 -1.1104 9.41953 1.81246 20.6254
560 1 -1.1104 12.2505 15.6548 26.6401
465 2 2.2208 5.21304 11.7894 16.4722
473 1 -1.1104 1.10074 10.4008 17.8972
476 2 2.2208 5.24726 8.90903 19.2136
479 1 -1.1104 0.993661 10.5648 15.0772
487 2 2.2208 2.51341 11.5948 19.3939
490 2 2.2208 2.2457 8.98492 16.3119
492 1 -1.1104 3.71338 10.5703 17.7223
495 1 -1.1104 3.66917 10.2668 15.0392
528 1 -1.1104 1.05075 13.2136 17.8879
532 1 -1.1104 0.881871 13.1617 15.1872
548 1 -1.1104 3.96039 13.3136 17.9652
551 1 -1.1104 3.85328 13.102 15.0521
475 1 -1.1104 6.39668 10.2686 17.7424
536 1 -1.1104 6.84897 13.1441 15.0654
355 2 2.2208 10.867 8.83451 13.9367
480 1 -1.1104 1.03757 10.3972 20.682
421 2 2.2208 -0.392993 6.15582 22.055
530 1 -1.1104 6.73486 13.1746 18.0447
483 1 -1.1104 6.66773 10.4357 15.0529
501 2 2.2208 10.9221 11.739 16.435
506 1 -1.1104 11.8975 10.3279 17.8948
507 2 2.2208 10.713 8.91293 19.3126
510 1 -1.1104 12.3032 10.1147 15.0901
514 2 2.2208 8.17707 11.7067 19.2732
517 2 2.2208 7.85597 8.78318 16.7458
519 1 -1.1104 9.32613 10.1747 18.0011
522 1 -1.1104 9.58347 10.4195 14.989
564 1 -1.1104 12.2691 13.1518 18.0879
566 1 -1.1104 12.3714 13.0719 15.0911
575 1 -1.1104 9.61583 12.886 17.92
578 1 -1.1104 9.58592 13.2781 15.0186
579 1 -1.1104 9.23984 13.0484 20.7447
484 1 -1.1104 6.74687 10.2199 20.468
537 1 -1.1104 6.74447 13.0745 20.8027
511 1 -1.1104 12.2881 10.3531 20.8295
375 2 2.2208 2.41744 19.9693 27.6921
336 2 2.2208 13.7126 6.05393 13.7849
542 2 2.2208 5.22408 14.5387 19.4673
527 2 2.2208 5.24108 17.2434 16.6891
529 1 -1.1104 0.871892 18.9946 17.8958
534 1 -1.1104 0.986707 18.6856 14.9016
540 1 -1.1104 0.785386 16.1672 17.9489
543 2 2.2208 5.09761 20.1082 19.3912
544 1 -1.1104 1.02962 15.9213 15.1476
549 1 -1.1104 3.65606 18.7816 17.8274
550 2 2.2208 2.33146 17.4397 19.2331
553 1 -1.1104 3.85323 18.4814 15.1181
555 2 2.2208 2.38796 14.436 16.4777
556 2 2.2208 2.45185 20.2048 16.3996
557 1 -1.1104 3.62132 16.0688 18.1036
558 1 -1.1104 3.91756 15.816 15.3271
559 1 -1.1104 3.83536 15.959 20.7794
545 1 -1.1104 1.09224 15.8526 20.7271
622 2 2.2208 -0.327546 9.00217 19.2776
362 2 2.2208 7.92938 17.2295 13.9665
626 2 2.2208 -0.408863 3.27141 25.0385
571 2 2.2208 10.853 14.5295 19.6422
547 1 -1.1104 6.56002 16.067 20.9014
541 1 -1.1104 6.73658 15.8565 18.017
538 1 -1.1104 6.81588 18.7707 15.2429
531 1 -1.1104 6.63976 18.6361 18.0174
546 1 -1.1104 6.51188 15.8185 15.1909
568 1 -1.1104 12.3902 19.3034 14.9585
563 2 2.2208 10.8664 17.5111 16.5781
565 1 -1.1104 12.2435 18.9031 17.882
570 1 -1.1104 12.4135 16.1168 18.1008
572 2 2.2208 10.871 19.9881 19.3149
573 1 -1.1104 12.3359 16.1094 15.1782
576 1 -1.1104 9.44671 18.4993 18.069
577 2 2.2208 8.01722 17.2295 19.455
580 1 -1.1104 9.38168 18.7939 15.2106
582 2 2.2208 7.99119 14.5753 16.5064
583 2 2.2208 7.96467 20.1435 16.6762
584 1 -1.1104 9.33399 15.7122 18.339
585 1 -1.1104 9.44075 15.975 15.4389
586 1 -1.1104 9.68025 15.9165 21.0186
685 2 2.2208 -0.308291 11.6413 22.206
581 1 -1.1104 9.38346 18.5306 20.7493
539 1 -1.1104 6.71697 18.871 20.6956
569 1 -1.1104 12.1741 18.7134 20.7476
9157 2 2.2208 2.33419 -5.22334 19.5322
406 1 -1.1104 1.08269 -0.993052 20.9966
413 1 -1.1104 3.94525 -3.69842 20.9173
624 2 2.2208 -0.336044 -2.43123 25.2165
650 2 2.2208 13.5982 11.6357 19.5944
353 2 2.2208 2.48197 11.7717 13.7024
359 2 2.2208 5.34245 14.5704 13.6877
621 2 2.2208 -0.260768 5.96648 16.5198
591 2 2.2208 5.233 0.507252 22.1541
592 1 -1.1104 1.16536 -3.64171 23.9312
596 1 -1.1104 0.883806 -3.75801 26.6282
600 1 -1.1104 1.09028 -0.803189 23.6652
602 2 2.2208 5.18626 -2.4081 25.0707
604 1 -1.1104 0.934714 -1.00331 26.354
606 1 -1.1104 3.77206 -3.7219 23.5838
608 2 2.2208 2.45217 0.518533 25.082
609 1 -1.1104 3.80683 -3.7617 26.5745
611 2 2.2208 2.32556 -2.33277 22.2548
613 1 -1.1104 4.05047 -1.06868 23.7426
614 1 -1.1104 3.77334 -0.962206 26.4422
334 2 2.2208 -0.331844 -2.29606 13.8526
9127 2 2.2208 8.1563 -5.09289 19.4577
525 2 2.2208 10.9333 14.3991 24.9014
398 1 -1.1104 6.96865 -3.8865 21.0666
447 1 -1.1104 10.011 -3.90521 20.5941
454 1 -1.1104 9.38322 -1.02145 20.9072
594 1 -1.1104 6.6064 -3.59809 23.8415
601 1 -1.1104 6.96339 -0.822025 23.662
598 1 -1.1104 6.7425 -4.19436 26.5756
605 1 -1.1104 6.57794 -1.26641 26.5018
627 2 2.2208 11.0104 0.379519 22.1718
628 1 -1.1104 12.2285 -3.72289 23.7913
630 1 -1.1104 12.2818 -3.91393 26.4245
632 1 -1.1104 12.4359 -0.943633 23.6716
633 2 2.2208 11.0733 -2.40063 25.1746
635 1 -1.1104 12.3905 -1.00698 26.6565
636 1 -1.1104 9.50585 -3.81772 23.5276
638 2 2.2208 8.18588 0.546295 25.0854
639 1 -1.1104 9.65082 -4.00922 26.3461
641 2 2.2208 8.15057 -2.28894 22.2856
643 1 -1.1104 9.68448 -1.12469 23.6402
644 1 -1.1104 9.52096 -0.944037 26.401
645 2 2.2208 -0.222516 20.0635 24.6465
429 2 2.2208 13.5101 3.47556 16.6898
338 2 2.2208 5.33112 -2.32833 13.7439
489 1 -1.1104 3.89452 7.51457 20.5508
478 1 -1.1104 1.0333 4.58119 20.7338
469 1 -1.1104 0.995768 7.41271 20.6325
593 1 -1.1104 1.28932 2.09683 23.6717
597 1 -1.1104 1.04672 1.97888 26.4439
603 2 2.2208 5.29496 3.33396 25.0593
607 1 -1.1104 3.96832 1.87658 23.3097
610 1 -1.1104 3.66205 1.89418 26.388
612 2 2.2208 2.53508 3.3056 22.1082
656 2 2.2208 5.18403 6.05639 22.0918
658 1 -1.1104 1.18031 7.50842 23.4355
660 1 -1.1104 0.854628 7.46951 26.4015
662 1 -1.1104 1.06817 4.76482 23.4153
667 1 -1.1104 0.945973 4.61003 26.4362
671 1 -1.1104 3.87887 7.49171 23.4918
672 2 2.2208 2.33215 6.02302 24.88
676 1 -1.1104 3.82056 4.67824 23.5788
678 1 -1.1104 3.96738 4.70222 26.4696
674 1 -1.1104 3.75836 7.57839 26.3943
669 1 -1.1104 6.89448 4.52568 26.4177
659 1 -1.1104 6.50996 7.44464 23.6444
664 1 -1.1104 6.68036 4.81701 23.5668
714 1 -1.1104 6.69485 15.7852 26.2587
425 2 2.2208 -0.428011 -2.12097 19.3572
497 1 -1.1104 12.4857 18.8536 23.5346
457 2 2.2208 -0.373529 14.6259 19.4169
595 1 -1.1104 6.65294 2.15 23.7839
521 1 -1.1104 9.44107 4.75977 20.9499
599 1 -1.1104 6.62138 1.6252 26.492
661 1 -1.1104 6.70566 7.2756 26.4785
509 1 -1.1104 12.2274 4.60456 20.5889
504 1 -1.1104 12.0106 7.46333 20.9479
516 1 -1.1104 9.47273 7.60267 20.8228
629 1 -1.1104 12.3698 1.84569 23.4532
631 1 -1.1104 12.0985 1.82427 26.4018
634 2 2.2208 10.741 3.35176 25.0178
637 1 -1.1104 9.65668 1.86588 23.5406
640 1 -1.1104 9.43994 1.74519 26.44
642 2 2.2208 8.16968 3.38669 22.1275
688 1 -1.1104 9.4074 4.52706 26.4606
690 1 -1.1104 9.44626 4.63959 23.6076
692 1 -1.1104 9.41215 7.43528 26.2974
694 2 2.2208 7.89987 6.08412 25.012
695 2 2.2208 10.6059 6.17627 22.3396
697 1 -1.1104 12.2627 7.45553 23.7941
698 1 -1.1104 12.2485 7.32172 26.5368
699 1 -1.1104 12.1689 4.57404 23.6029
702 1 -1.1104 12.1996 4.46684 26.4691
704 1 -1.1104 9.29799 7.4925 23.5994
684 2 2.2208 -0.360098 8.75166 24.9649
616 2 2.2208 8.1987 20.0915 22.2567
496 1 -1.1104 3.92555 10.2521 20.6554
378 2 2.2208 13.5677 3.17722 27.7321
718 1 -1.1104 6.73913 18.5607 23.5678
533 1 -1.1104 1.03027 13.1529 20.7315
552 1 -1.1104 3.85663 13.0359 20.8011
657 2 2.2208 5.21348 11.5719 21.9409
663 1 -1.1104 0.955951 10.1678 23.5292
666 2 2.2208 5.1529 8.821 24.9629
668 1 -1.1104 1.05979 10.146 26.2164
673 2 2.2208 2.33539 11.7007 24.9193
675 2 2.2208 2.5285 8.84051 22.1539
677 1 -1.1104 3.87392 10.2327 23.3901
679 1 -1.1104 3.80552 10.1999 26.335
681 1 -1.1104 3.94207 12.9146 26.4674
706 1 -1.1104 1.0099 13.1841 23.6093
713 1 -1.1104 3.86261 12.9645 23.4278
717 1 -1.1104 1.00344 12.9841 26.182
712 1 -1.1104 6.87518 12.757 26.6111
665 1 -1.1104 6.60682 10.4505 23.7174
567 1 -1.1104 12.2419 13.0862 20.8013
523 1 -1.1104 9.5191 10.4299 20.6024
709 1 -1.1104 6.54107 13.2558 23.4472
670 1 -1.1104 6.51647 10.1374 26.3668
687 1 -1.1104 9.49806 10.21 26.3693
689 1 -1.1104 9.36828 10.1716 23.4496
691 2 2.2208 7.92834 8.87366 22.1669
693 2 2.2208 8.12506 11.6121 25.1126
696 2 2.2208 10.8267 11.4997 22.1621
700 1 -1.1104 12.0704 10.3191 23.887
701 2 2.2208 10.6429 8.82328 24.9827
703 1 -1.1104 12.2496 10.2377 26.6009
589 1 -1.1104 9.50769 12.9873 26.2631
463 1 -1.1104 12.4822 12.9825 23.361
498 1 -1.1104 12.5734 12.9955 26.1993
561 1 -1.1104 9.47504 12.9304 23.5832
617 1 -1.1104 9.4473 15.8346 23.6591
524 1 -1.1104 12.1439 16.1991 23.8671
620 1 -1.1104 9.36955 15.728 26.3472
651 2 2.2208 13.5756 5.92583 19.4473
351 2 2.2208 2.2589 6.07526 13.76
590 1 -1.1104 9.4923 18.6936 26.3345
535 1 -1.1104 1.1742 18.9288 20.6196
554 1 -1.1104 3.78557 18.7157 20.9077
647 2 2.2208 2.54952 14.3462 22.069
649 2 2.2208 2.5152 20.0422 22.0943
652 1 -1.1104 3.84664 15.7238 23.7045
655 1 -1.1104 0.909543 15.7339 23.4262
682 1 -1.1104 3.66828 15.5678 26.4804
683 2 2.2208 2.45662 17.0749 25.0357
686 1 -1.1104 3.73352 18.3957 26.4375
705 2 2.2208 5.20365 17.4047 22.2202
707 1 -1.1104 1.13313 18.6526 23.4328
711 1 -1.1104 3.95363 18.7029 23.5202
715 1 -1.1104 0.943721 18.5052 26.1691
716 1 -1.1104 0.890934 15.8927 26.3481
719 2 2.2208 5.31661 20.0924 24.9685
720 2 2.2208 5.27717 14.1931 24.9317
574 1 -1.1104 12.3602 15.9892 20.845
588 1 -1.1104 6.65226 18.6437 26.3277
562 1 -1.1104 9.58175 18.6451 23.6417
499 1 -1.1104 12.4411 18.5174 26.447
680 1 -1.1104 6.57788 15.9054 23.5895
615 2 2.2208 8.14006 14.4021 22.173
526 2 2.2208 10.9298 19.9998 24.9657
587 2 2.2208 8.09695 17.1618 24.8539
343 2 2.2208 8.18406 0.392682 13.8303
373 2 2.2208 2.26358 14.2924 27.75
348 2 2.2208 10.7162 17.1865 27.7024
358 2 2.2208 5.18805 19.9677 13.7799
427 2 2.2208 -0.367635 3.16944 19.5219
376 2 2.2208 13.69 11.5787 13.7747
458 2 2.2208 -0.391646 20.2387 19.1341
381 2 2.2208 5.15692 11.476 27.7172
356 2 2.2208 8.00608 11.714 13.8766
350 2 2.2208 10.648 3.20213 13.8551
374 2 2.2208 5.28855 17.0204 27.7059
349 2 2.2208 8.04215 20.1708 27.6026
9019 2 2.2208 2.32341 -5.08787 13.8085
352 2 2.2208 5.17879 8.93769 13.9126
384 2 2.2208 10.817 6.02385 27.7752
365 2 2.2208 2.33408 -2.34173 27.742
386 2 2.2208 10.7768 11.623 27.6484
721 2 2.2208 5.06542 22.9292 5.16287
723 1 -1.1104 0.988663 24.3785 0.803735
724 1 -1.1104 1.06453 24.2837 3.76698
725 1 -1.1104 1.06817 21.3895 0.794619
727 2 2.2208 5.0436 25.5901 2.29053
728 1 -1.1104 1.08361 21.1831 3.60548
730 1 -1.1104 3.64247 24.3325 0.940282
731 2 2.2208 2.35229 22.7834 2.29783
733 1 -1.1104 3.68836 24.3403 3.82064
734 2 2.2208 2.35875 25.6368 5.14007
735 1 -1.1104 3.75822 21.474 0.848857
737 1 -1.1104 3.81594 21.4136 3.83073
738 1 -1.1104 3.49609 27.1754 3.56227
746 1 -1.1104 6.71669 21.15 3.739
742 1 -1.1104 6.57643 24.2583 0.939641
729 1 -1.1104 0.748145 27.0927 3.69863
726 1 -1.1104 1.01326 27.1463 0.83874
747 1 -1.1104 6.58938 26.9882 3.72643
1615 1 -1.1104 6.6923 46.8197 6.93207
866 1 -1.1104 6.61377 21.4732 6.58505
870 1 -1.1104 3.82977 26.7704 6.49332
865 1 -1.1104 0.974225 26.9674 6.67903
1002 2 2.2208 -0.25106 42.6592 8.1524
744 1 -1.1104 6.58864 21.6091 0.816476
743 1 -1.1104 6.30091 24.0183 3.65548
748 2 2.2208 10.8217 22.7983 5.1489
750 1 -1.1104 12.1825 24.2362 0.941898
751 1 -1.1104 12.2069 24.5183 3.95827
752 1 -1.1104 12.3922 21.4901 0.92537
754 2 2.2208 10.8773 25.7511 2.18425
755 1 -1.1104 12.1692 21.4927 3.729
757 1 -1.1104 9.26427 24.1419 1.02595
758 2 2.2208 7.99292 22.8423 2.20614
760 1 -1.1104 9.38224 24.382 3.93018
761 2 2.2208 8.09168 25.904 4.97731
762 1 -1.1104 9.35951 21.4589 0.770444
764 1 -1.1104 9.50963 21.411 3.46148
763 1 -1.1104 9.32004 27.0742 0.771759
753 1 -1.1104 12.3253 27.1323 0.983889
765 1 -1.1104 9.48892 27.2456 3.48952
745 1 -1.1104 6.55629 27.0564 0.96388
1063 2 2.2208 11.0405 42.6236 13.5479
756 1 -1.1104 12.5329 27.3056 3.96519
1037 2 2.2208 -0.245081 28.5948 10.7919
767 2 2.2208 13.6359 28.5091 2.27879
1024 1 -1.1104 9.28507 43.7575 6.53637
896 1 -1.1104 12.4057 21.4228 6.5985
1668 1 -1.1104 9.51373 46.9301 9.39513
736 1 -1.1104 3.63705 27.2023 0.746338
722 2 2.2208 5.22596 28.7248 4.85078
732 2 2.2208 2.195 28.5263 2.28886
770 1 -1.1104 1.21091 29.9684 0.787572
773 1 -1.1104 0.811849 29.8909 3.70195
776 1 -1.1104 1.04469 32.6313 1.25343
777 2 2.2208 5.16588 31.385 2.30109
779 1 -1.1104 1.16147 32.5908 3.79421
781 1 -1.1104 3.89101 29.8427 1.12377
784 1 -1.1104 3.58055 30.0237 3.67449
786 2 2.2208 2.36796 31.3548 5.28567
788 1 -1.1104 3.82133 32.7678 0.961494
789 1 -1.1104 3.80946 32.7654 3.94365
793 1 -1.1104 6.77679 29.9412 0.90588
795 1 -1.1104 6.65285 32.6762 0.736214
920 1 -1.1104 3.88694 29.8809 6.53593
794 1 -1.1104 6.67027 29.9093 3.49041
1013 1 -1.1104 9.59174 41.2532 12.3576
922 1 -1.1104 3.61664 32.7873 6.70534
1014 1 -1.1104 12.418 43.9134 9.19391
1043 2 2.2208 13.5398 45.3853 7.77412
1623 1 -1.1104 6.81308 46.7743 9.73287
780 1 -1.1104 6.4979 32.7673 3.73982
749 2 2.2208 10.8375 28.5535 5.13078
759 2 2.2208 8.11568 28.5679 2.16903
797 1 -1.1104 12.3938 29.9846 0.852826
799 1 -1.1104 12.4758 29.9262 3.72548
801 1 -1.1104 12.1265 32.6984 0.935865
802 2 2.2208 10.9242 31.4022 2.35912
804 1 -1.1104 12.5555 32.818 3.86428
805 1 -1.1104 9.51967 29.941 0.797088
808 1 -1.1104 9.77954 30.0421 3.66276
810 2 2.2208 7.96237 31.5448 5.11292
812 1 -1.1104 9.41433 32.7362 1.19856
813 1 -1.1104 9.64625 32.6608 3.74458
948 1 -1.1104 12.284 29.9611 6.59135
1040 2 2.2208 -0.355541 34.2145 10.928
769 2 2.2208 5.23117 34.2291 5.29285
771 1 -1.1104 0.994729 35.6301 0.881066
774 1 -1.1104 1.13368 35.4413 3.82624
778 2 2.2208 5.07194 37.0285 2.36118
782 1 -1.1104 3.8524 35.5769 0.954671
783 2 2.2208 2.46638 34.1066 2.32345
785 1 -1.1104 3.96241 35.604 3.8061
787 2 2.2208 2.45289 37.166 5.08789
815 2 2.2208 5.1905 39.7477 5.03279
821 1 -1.1104 0.955315 38.3186 0.899259
826 1 -1.1104 1.04247 38.3528 3.63595
831 2 2.2208 2.48672 39.7793 2.11292
835 1 -1.1104 3.74237 38.4937 0.835756