ITEM: TIMESTEP
90000
ITEM: NUMBER OF ATOMS
30000
ITEM: BOX BOUNDS pp pp pp
-3.9793462002948454e-01 2.7737934620028405e+01
-7.7886550611460716e+00 5.5458865506113409e+02
-3.9665551379935204e-01 2.7736655513799814e+01
ITEM: ATOMS id type q x y z
1 2 2.2208 5.13543 -2.32718 5.24338
2 1 -1.1104 0.706233 -6.39429 0.928847
4 1 -1.1104 0.886088 -6.56351 3.88584
6 1 -1.1104 0.934242 -3.75794 1.13992
7 2 2.2208 5.08136 -5.23986 2.62298
8 1 -1.1104 1.12755 -3.75262 3.918
9 1 -1.1104 3.45333 -6.48569 1.09529
11 2 2.2208 2.32777 -2.41723 2.53356
12 1 -1.1104 3.8465 -6.79812 3.98193
14 2 2.2208 2.3143 -5.33628 5.3063
15 1 -1.1104 3.81942 -3.69632 1.31288
16 1 -1.1104 3.78393 -3.96845 4.04272
5 1 -1.1104 1.00538 -0.799237 3.9447
13 1 -1.1104 3.9002 -0.824094 3.84762
19 1 -1.1104 6.23837 -6.49199 1.25248
10 1 -1.1104 3.55265 -0.955837 1.11791
22 1 -1.1104 6.57845 -1.13146 3.89094
17 2 2.2208 5.11689 -2.30631 -0.243987
24 1 -1.1104 6.40503 -3.90932 3.88718
21 1 -1.1104 6.63531 -6.74 4.00674
23 1 -1.1104 6.56777 -3.69527 1.04279
42 2 2.2208 7.90203 -5.08987 -0.276191
150 2 2.2208 24.8727 0.484055 -0.332046
3 1 -1.1104 0.741532 -1.04648 1.35419
20 1 -1.1104 6.51557 -0.865165 1.10302
1061 2 2.2208 27.6926 3.33396 -0.319905
25 2 2.2208 10.7855 -2.28319 5.45573
26 1 -1.1104 11.9498 -6.63099 1.14922
28 1 -1.1104 12.0008 -6.51253 3.9911
30 1 -1.1104 12.086 -4.03225 1.15365
31 2 2.2208 10.4566 -5.00943 2.59861
32 1 -1.1104 12.0159 -3.5576 3.87243
33 1 -1.1104 9.14607 -6.37017 1.10201
35 2 2.2208 7.82989 -2.21449 2.4911
36 1 -1.1104 9.32735 -6.65007 3.96116
38 2 2.2208 7.79952 -5.17886 5.33359
39 1 -1.1104 9.28386 -3.62758 1.04365
40 1 -1.1104 9.10493 -3.71041 3.92951
29 1 -1.1104 12.165 -0.82582 3.82238
34 1 -1.1104 9.2845 -0.968198 0.878544
27 1 -1.1104 12.1862 -1.13117 0.840829
277 1 -1.1104 12.2867 -3.84222 6.73953
44 2 2.2208 13.4353 -2.37569 2.5157
46 2 2.2208 13.4844 -5.11941 5.26722
585 2 2.2208 5.11922 11.8034 13.6158
37 1 -1.1104 9.31772 -0.749618 3.74449
279 1 -1.1104 9.43628 -1.02181 6.64422
278 1 -1.1104 9.2879 -6.42989 6.86473
276 1 -1.1104 12.2139 -1.06747 6.84109
275 1 -1.1104 12.1082 -6.56586 6.65903
105 2 2.2208 2.39516 0.551922 -0.332361
559 1 -1.1104 20.6244 13.0992 12.544
47 2 2.2208 16.3489 -2.19066 5.45889
48 1 -1.1104 17.7151 -6.57682 1.17762
50 1 -1.1104 17.5575 -6.36854 4.14763
52 1 -1.1104 17.6514 -3.84468 1.16573
53 2 2.2208 16.1212 -5.10063 2.58361
54 1 -1.1104 17.8807 -3.66293 3.96101
55 1 -1.1104 14.8267 -6.45302 1.04172
59 2 2.2208 19.1681 -2.39317 2.56406
60 1 -1.1104 14.8344 -6.52305 3.7688
64 2 2.2208 19.1129 -5.10418 5.27251
65 1 -1.1104 14.9813 -3.79274 0.997977
67 1 -1.1104 14.7824 -3.74447 3.81283
61 1 -1.1104 14.8251 -0.941841 4.03965
51 1 -1.1104 17.5453 -0.8477 4.06826
56 1 -1.1104 14.9779 -0.966091 1.15698
563 1 -1.1104 26.0901 7.44662 9.58992
68 1 -1.1104 20.655 -3.60547 4.05201
63 1 -1.1104 20.4228 -0.95323 4.07453
49 1 -1.1104 17.7893 -0.942415 1.01923
58 1 -1.1104 20.6148 -0.914224 1.14968
307 1 -1.1104 17.7225 -3.64963 6.64254
308 1 -1.1104 14.9577 -6.64263 6.69281
312 1 -1.1104 15.0005 -3.66269 6.7376
311 1 -1.1104 20.4059 -1.05798 6.6641
999 2 2.2208 5.16485 3.28131 -0.364148
70 2 2.2208 -0.391389 -2.36156 5.43214
71 2 2.2208 27.5836 -4.99877 2.48806
568 2 2.2208 24.8194 9.10447 8.12256
62 1 -1.1104 20.3259 -6.63164 3.9791
57 1 -1.1104 20.48 -6.64 1.32208
66 1 -1.1104 20.5324 -3.81344 1.13037
75 2 2.2208 21.9131 -2.31078 5.31343
76 1 -1.1104 23.2817 -6.51662 0.97849
78 1 -1.1104 23.3442 -6.55794 3.92475
80 1 -1.1104 23.3563 -3.72643 1.17242
81 2 2.2208 21.8743 -5.03216 2.52085
82 1 -1.1104 23.4195 -3.87613 3.90905
83 1 -1.1104 26.0734 -6.5956 1.18919
85 2 2.2208 24.8887 -2.39517 2.46991
86 1 -1.1104 26.2951 -6.46109 3.84134
88 2 2.2208 24.8923 -5.02187 5.09817
89 1 -1.1104 26.2811 -3.84606 1.22641
90 1 -1.1104 26.3682 -3.66227 3.87926
77 1 -1.1104 23.4864 -1.00018 1.10221
84 1 -1.1104 26.1757 -1.00951 1.08363
343 1 -1.1104 23.4598 -3.62658 6.65501
346 1 -1.1104 26.1049 -3.60457 6.73223
79 1 -1.1104 23.5832 -1.00968 3.80831
87 1 -1.1104 26.3553 -0.748464 3.91685
342 1 -1.1104 23.4112 -0.968031 6.58759
91 2 2.2208 5.18946 3.28031 5.37797
92 1 -1.1104 0.997849 4.60101 0.969943
93 1 -1.1104 1.06833 4.56431 3.93655
94 1 -1.1104 1.12741 1.83263 1.2171
95 2 2.2208 5.16303 0.577268 2.35846
96 2 2.2208 5.08739 6.124 2.56076
97 1 -1.1104 0.923046 1.94362 3.99983
98 1 -1.1104 3.60535 4.83351 0.90005
99 2 2.2208 2.46186 3.38908 2.36854
100 1 -1.1104 3.74999 4.73628 3.86191
101 2 2.2208 2.31023 0.524405 5.26852
102 2 2.2208 2.16986 6.10797 5.33871
103 1 -1.1104 3.94282 1.80416 1.00925
104 1 -1.1104 3.78926 2.07376 3.60936
152 2 2.2208 27.7183 0.580126 2.5529
369 1 -1.1104 1.09628 1.99949 6.81966
371 1 -1.1104 3.98165 1.92903 6.85816
368 1 -1.1104 0.804369 4.82347 6.58781
108 1 -1.1104 6.70694 1.83849 1.03132
106 1 -1.1104 6.53761 4.40478 1.24832
389 1 -1.1104 6.61644 4.65338 6.82139
1060 2 2.2208 24.8894 6.11471 -0.292163
109 1 -1.1104 6.42067 1.73076 4.04005
107 1 -1.1104 6.55403 4.50535 4.03098
110 2 2.2208 10.6524 3.27209 5.29052
111 1 -1.1104 12.0684 4.77322 0.908116
112 1 -1.1104 12.1223 4.72536 3.96559
113 1 -1.1104 12.3368 1.77201 1.01839
114 2 2.2208 10.7697 0.531853 2.5192
115 2 2.2208 10.6983 6.04227 2.41746
116 1 -1.1104 12.2098 1.96927 3.92823
117 1 -1.1104 9.35289 4.71512 1.0607
118 2 2.2208 8.01647 3.09569 2.67688
119 1 -1.1104 9.29417 4.65092 3.93067
120 2 2.2208 7.91854 0.469707 5.43261
122 1 -1.1104 9.3782 2.0077 0.990996
123 1 -1.1104 9.37303 1.80257 3.86604
121 2 2.2208 7.88564 6.14806 5.26027
130 2 2.2208 13.5909 6.18056 5.35702
565 1 -1.1104 26.3666 7.57214 12.3365
129 2 2.2208 13.6476 0.542143 5.23904
18 2 2.2208 2.16145 -5.24392 -0.371445
567 1 -1.1104 26.2161 10.3489 9.5308
128 2 2.2208 13.6144 3.55343 2.52593
131 2 2.2208 16.2828 3.31514 5.41834
132 1 -1.1104 17.7271 4.72 1.1799
133 1 -1.1104 17.8675 4.75724 4.11073
134 1 -1.1104 17.776 1.9421 1.11918
135 2 2.2208 16.2396 0.335133 2.48126
136 2 2.2208 16.3397 6.28471 2.6554
137 1 -1.1104 17.7566 1.96231 3.77346
138 1 -1.1104 14.9288 4.61442 1.01247
140 2 2.2208 19.1213 3.40657 2.56964
141 1 -1.1104 14.9747 4.81508 3.86277
143 2 2.2208 19.0737 0.603784 5.32943
145 1 -1.1104 15.1424 1.74864 0.880928
147 1 -1.1104 14.9944 1.98749 3.95142
144 2 2.2208 19.2627 6.22238 5.3821
139 1 -1.1104 20.3481 4.83415 1.25544
148 1 -1.1104 20.6726 1.9197 3.90977
416 1 -1.1104 17.6803 4.77239 6.71787
421 1 -1.1104 20.5877 1.87521 6.54126
811 2 2.2208 24.7867 11.8472 -0.346842
564 1 -1.1104 26.1931 13.2416 12.2283
151 2 2.2208 27.628 3.3659 5.38934
153 2 2.2208 -0.309676 6.15752 2.52494
142 1 -1.1104 20.639 4.83883 3.9733
146 1 -1.1104 20.4306 1.97133 1.09326
154 2 2.2208 21.9694 3.41714 5.34933
155 1 -1.1104 23.4192 4.58767 1.14736
156 1 -1.1104 23.2576 4.81535 3.93748
157 1 -1.1104 23.4518 2.01986 1.06829
158 2 2.2208 22.0044 0.47376 2.54915
159 2 2.2208 21.9268 6.1818 2.5225
160 1 -1.1104 23.5967 1.77084 3.89022
161 1 -1.1104 26.4289 4.81014 1.09635
162 2 2.2208 24.9234 3.25351 2.35891
163 1 -1.1104 26.3788 4.85558 3.74322
164 2 2.2208 24.9453 0.381405 5.35664
165 2 2.2208 24.8382 6.17677 5.26388
166 1 -1.1104 26.3415 1.94117 0.966105
167 1 -1.1104 26.3057 2.03173 3.8208
450 1 -1.1104 26.4311 1.88289 6.73812
449 1 -1.1104 26.07 4.69074 6.63461
448 1 -1.1104 23.4692 1.85919 6.72813
575 1 -1.1104 23.4933 10.5657 9.63903
172 1 -1.1104 1.00115 13.3184 1.11126
168 2 2.2208 4.9394 8.877 5.4228
169 1 -1.1104 1.04754 10.3813 1.15157
170 1 -1.1104 0.815701 10.5232 3.91252
171 1 -1.1104 0.955797 7.57964 1.15397
173 2 2.2208 5.24466 11.8087 2.70522
174 1 -1.1104 0.922827 7.67829 3.94938
175 1 -1.1104 1.06457 13.3308 3.89709
176 1 -1.1104 3.92338 10.4759 1.09387
177 2 2.2208 2.45593 8.95806 2.50804
178 1 -1.1104 3.67857 10.3807 4.04824
179 2 2.2208 2.35544 11.7962 5.14448
180 1 -1.1104 3.69872 7.74547 1.09927
181 1 -1.1104 3.62903 13.3202 1.07441
182 1 -1.1104 3.7185 7.45709 3.9667
183 1 -1.1104 3.83624 13.238 3.63262
230 2 2.2208 27.6146 8.97951 5.23636
476 1 -1.1104 3.66092 10.5771 6.78959
478 1 -1.1104 3.73964 13.1906 6.42299
189 1 -1.1104 6.5832 13.1762 4.17772
186 1 -1.1104 6.58302 7.46166 0.98036
187 1 -1.1104 6.53269 12.9797 1.21081
185 1 -1.1104 6.49709 10.2228 3.93755
508 1 -1.1104 6.2609 7.43899 6.56361
477 1 -1.1104 3.5837 7.63271 6.7425
507 1 -1.1104 6.613 10.1531 6.69044
188 1 -1.1104 6.37304 7.61111 3.66962
184 1 -1.1104 6.68258 10.2785 1.0077
206 1 -1.1104 9.48039 13.137 3.81544
190 2 2.2208 10.7236 8.92368 5.24849
191 1 -1.1104 12.3826 10.2758 1.12261
192 1 -1.1104 12.1841 10.3249 3.85367
193 1 -1.1104 12.3223 7.48156 0.985919
194 1 -1.1104 12.0561 13.0928 1.33063
195 2 2.2208 10.8892 11.5084 2.4208
196 1 -1.1104 12.1169 7.57627 3.81298
197 1 -1.1104 12.2082 13.2188 3.98571
198 1 -1.1104 9.37269 10.2777 1.16371
199 2 2.2208 7.88624 8.81456 2.43966
200 1 -1.1104 9.28581 10.185 3.90891
201 2 2.2208 8.02743 11.7269 5.33241
203 1 -1.1104 9.39755 7.60606 1.21863
204 1 -1.1104 9.39942 13.2537 0.870499
205 1 -1.1104 9.19828 7.39772 3.91925
513 1 -1.1104 9.46386 10.3373 6.63214
510 1 -1.1104 12.1645 10.2342 6.65424
515 1 -1.1104 9.2995 13.2958 6.5572
514 1 -1.1104 9.20205 7.64359 6.71502
509 1 -1.1104 6.62543 13.1269 6.9636
1129 2 2.2208 13.5195 11.7057 -0.270251
570 1 -1.1104 23.2676 13.3411 9.49359
207 2 2.2208 13.7225 8.99869 2.526
202 2 2.2208 13.5063 11.8914 5.36805
215 1 -1.1104 17.7212 13.2649 3.98782
208 2 2.2208 16.2107 9.10974 5.43225
209 1 -1.1104 17.8803 10.1821 1.11407
210 1 -1.1104 17.7272 10.5275 3.98967
211 1 -1.1104 17.7825 7.59392 1.2217
212 1 -1.1104 17.8237 13.1416 1.2812
213 2 2.2208 16.4142 11.9712 2.56993
214 1 -1.1104 17.7743 7.61108 4.08551
216 1 -1.1104 15.136 10.3628 1.17755
218 2 2.2208 19.2037 9.06257 2.67217
219 1 -1.1104 14.9179 10.3611 3.74086
221 2 2.2208 19.2216 11.8939 5.34385
222 1 -1.1104 14.9701 7.38664 1.27733
223 1 -1.1104 14.9662 13.307 1.06992
226 1 -1.1104 14.9198 7.53275 4.07297
227 1 -1.1104 15.0113 13.0676 4.16131
546 1 -1.1104 14.9501 13.2047 6.80224
225 1 -1.1104 20.5507 13.1836 1.09966
220 1 -1.1104 20.7259 10.3991 3.93576
543 1 -1.1104 14.9755 10.4358 6.6875
545 1 -1.1104 14.917 7.6409 6.90906
529 2 2.2208 16.3246 11.8182 8.12304
579 1 -1.1104 23.3191 7.64378 6.90849
582 1 -1.1104 26.1935 7.51325 6.68127
231 2 2.2208 27.6809 11.9085 2.4579
217 1 -1.1104 20.7597 10.2409 1.06983
224 1 -1.1104 20.6663 7.49726 1.09048
229 1 -1.1104 20.6404 13.1622 3.96826
228 1 -1.1104 20.6132 7.64011 4.02038
232 2 2.2208 21.976 8.98351 5.41859
233 1 -1.1104 23.6289 10.4245 1.18945
234 1 -1.1104 23.3592 10.398 3.94958
235 1 -1.1104 23.4482 7.62724 1.05035
236 1 -1.1104 23.4738 13.2166 1.0434
237 2 2.2208 22.0209 11.6909 2.53068
238 1 -1.1104 23.413 7.55729 3.93751
239 1 -1.1104 23.3722 13.2308 3.93014
240 1 -1.1104 26.4503 10.3072 1.17546
241 2 2.2208 24.8333 9.04149 2.5133
242 1 -1.1104 26.2277 10.449 3.88327
243 2 2.2208 24.8987 11.7061 5.2525
244 1 -1.1104 26.2304 7.62907 1.0238
245 1 -1.1104 26.2679 13.1545 1.11794
246 1 -1.1104 26.2556 7.53904 3.9814
247 1 -1.1104 26.3027 13.1272 3.85451
581 1 -1.1104 26.2339 10.3154 6.65937
578 1 -1.1104 23.3189 10.3421 6.68118
583 1 -1.1104 26.1373 13.2354 6.67374
548 1 -1.1104 20.5174 13.3673 6.82022
253 1 -1.1104 3.68394 -3.85885 6.80519
250 1 -1.1104 0.836362 -3.66235 6.74439
251 1 -1.1104 3.5449 -6.57344 6.68223
252 1 -1.1104 3.83708 -0.969549 6.86458
249 1 -1.1104 1.09946 -0.762623 6.69021
272 1 -1.1104 6.43062 -6.54511 6.78678
562 1 -1.1104 26.0821 13.1321 9.40546
574 1 -1.1104 23.2391 7.53758 12.3547
248 1 -1.1104 0.810125 -6.46737 6.87258
254 2 2.2208 4.83868 -2.08551 11.0803
255 1 -1.1104 0.836902 -6.56646 12.4146
257 1 -1.1104 0.878011 -6.59566 9.65743
259 1 -1.1104 0.839158 -3.71467 12.213
260 2 2.2208 5.00962 -5.16502 8.1971
261 1 -1.1104 0.887813 -3.81936 9.47943
262 1 -1.1104 3.78874 -6.50682 12.2929
264 2 2.2208 2.3359 -2.26996 7.97909
265 1 -1.1104 3.71829 -6.49825 9.56512
267 2 2.2208 2.24717 -5.10746 10.7659
268 1 -1.1104 3.41614 -3.62609 12.4211
269 1 -1.1104 3.89453 -3.65488 9.59918
256 1 -1.1104 0.794401 -0.831664 12.2962
263 1 -1.1104 3.51306 -0.853151 12.4604
347 2 2.2208 27.644 -2.35291 10.9182
258 1 -1.1104 0.854301 -1.1864 9.50186
266 1 -1.1104 3.66777 -0.817094 9.63321
285 1 -1.1104 6.19465 -3.73493 12.4162
282 1 -1.1104 6.29093 -0.750156 12.5936
274 1 -1.1104 6.64453 -3.72979 6.56897
281 1 -1.1104 6.57939 -6.53906 12.3528
286 1 -1.1104 6.5963 -3.91758 9.67575
348 2 2.2208 27.519 -5.02782 7.97565
284 1 -1.1104 6.53159 -1.0977 9.80065
573 1 -1.1104 23.4655 13.1835 12.3933
280 1 -1.1104 9.48132 -3.95847 6.94386
547 1 -1.1104 20.5051 7.54194 6.93219
283 1 -1.1104 6.44046 -6.52281 9.49374
287 2 2.2208 10.6514 -2.4009 11.0615
288 1 -1.1104 12.0689 -6.74607 12.32
290 1 -1.1104 12.2164 -6.74606 9.39075
292 1 -1.1104 12.1153 -3.91975 12.3299
293 2 2.2208 10.8586 -5.34337 8.16644
294 1 -1.1104 12.3431 -3.98421 9.54091
295 1 -1.1104 9.24812 -6.66218 12.2203
297 2 2.2208 7.91904 -2.41523 8.31339
298 1 -1.1104 9.2504 -6.69931 9.53883
300 2 2.2208 7.87574 -5.27601 10.9608
301 1 -1.1104 9.26048 -3.75897 12.6681
302 1 -1.1104 9.56113 -3.87504 9.71288
296 1 -1.1104 9.14253 -1.23885 12.3544
299 1 -1.1104 9.30319 -0.872929 9.4712
273 1 -1.1104 6.54069 -0.825895 6.92146
289 1 -1.1104 12.0999 -1.09145 12.4586
291 1 -1.1104 11.9457 -1.16353 9.63387
580 1 -1.1104 23.3921 13.04 6.50788
306 1 -1.1104 17.6792 -0.829153 6.68542
305 1 -1.1104 17.8025 -6.58986 6.83843
309 1 -1.1104 14.8181 -0.739571 7.00298
315 2 2.2208 13.5638 -5.36759 10.9437
314 2 2.2208 13.6146 -2.33515 8.21606
316 2 2.2208 16.3496 -2.5085 10.9271
317 1 -1.1104 17.773 -6.44532 12.3791
319 1 -1.1104 17.8207 -6.57928 9.65411
321 1 -1.1104 17.74 -3.71723 12.4004
322 2 2.2208 16.2902 -5.07457 8.04794
323 1 -1.1104 17.8524 -3.81648 9.55059
324 1 -1.1104 14.9181 -6.65277 12.3273
328 2 2.2208 19.1885 -2.29543 8.03126
329 1 -1.1104 15.0222 -6.71035 9.53689
333 2 2.2208 19.0712 -5.0456 10.8878
334 1 -1.1104 14.9442 -3.7866 12.4534
336 1 -1.1104 14.9642 -3.89216 9.42226
318 1 -1.1104 17.734 -0.961518 12.4089
330 1 -1.1104 15.0028 -1.0155 9.73824
313 1 -1.1104 20.5629 -3.77109 6.68507
310 1 -1.1104 20.5488 -6.54282 6.57782
335 1 -1.1104 20.4699 -3.36521 12.4198
332 1 -1.1104 20.4259 -0.62305 9.34676
325 1 -1.1104 14.8598 -1.15472 12.344
320 1 -1.1104 17.6962 -1.06525 9.43963
327 1 -1.1104 20.5063 -0.716735 12.236
843 2 2.2208 -0.380294 8.8894 -0.229616
572 2 2.2208 21.8917 11.8034 8.17307
569 1 -1.1104 26.1062 10.3464 12.2848
566 2 2.2208 24.8203 11.8596 10.9052
544 1 -1.1104 20.501 10.4577 6.82988
341 1 -1.1104 23.3455 -6.6188 6.65505
345 1 -1.1104 26.4459 -1.01908 6.69239
344 1 -1.1104 26.1816 -6.53155 6.56495
149 2 2.2208 27.694 11.7554 7.99483
326 1 -1.1104 20.4618 -6.39091 12.3403
337 1 -1.1104 20.5779 -3.48868 9.62621
331 1 -1.1104 20.62 -6.6501 9.37061
349 2 2.2208 21.9878 -2.26314 10.9896
350 1 -1.1104 23.2365 -6.54405 12.359
352 1 -1.1104 23.4591 -6.24322 9.56548
354 1 -1.1104 23.2566 -3.75514 12.326
355 2 2.2208 21.9685 -5.20288 8.08129
356 1 -1.1104 23.2297 -3.7139 9.40079
357 1 -1.1104 26.1832 -6.60344 12.3552
359 2 2.2208 24.6956 -2.28274 8.16008
360 1 -1.1104 26.0732 -6.60059 9.56778
362 2 2.2208 24.6859 -5.13623 10.9959
363 1 -1.1104 26.0971 -3.60767 12.2279
364 1 -1.1104 26.1762 -3.9109 9.57685
361 1 -1.1104 26.3256 -0.749767 9.46602
351 1 -1.1104 23.2519 -0.966985 12.369
353 1 -1.1104 23.3467 -0.911196 9.60367
271 2 2.2208 5.12999 -5.16164 13.6469
390 1 -1.1104 6.68159 2.07916 6.85663
370 1 -1.1104 3.64644 4.73588 6.69506
372 2 2.2208 5.0389 3.36518 10.9679
373 1 -1.1104 0.93873 4.85563 12.2458
374 1 -1.1104 0.746061 4.91898 9.39586
375 1 -1.1104 0.871723 1.85181 12.1126
376 2 2.2208 5.13048 0.537252 8.31724
377 2 2.2208 5.07259 6.04592 8.08011
378 1 -1.1104 0.761939 2.04012 9.40725
379 1 -1.1104 3.7023 4.84729 12.276
380 2 2.2208 2.19844 3.42524 8.11664
381 1 -1.1104 3.64329 4.93722 9.56742
382 2 2.2208 2.22681 0.428499 10.8456
383 2 2.2208 2.15949 6.30615 10.7352
384 1 -1.1104 3.56454 2.06973 12.3335
385 1 -1.1104 3.58077 2.05237 9.60742
397 1 -1.1104 6.54495 1.96094 12.3281
398 1 -1.1104 6.44745 1.64585 9.57627
396 1 -1.1104 6.41222 4.61425 9.48746
532 1 -1.1104 17.6228 10.4695 9.51686
577 2 2.2208 21.947 8.9438 11.0507
538 2 2.2208 19.1753 11.8843 10.8053
499 2 2.2208 13.6328 11.6874 10.9522
530 1 -1.1104 17.9594 13.3059 12.1658
551 2 2.2208 19.0643 8.93665 8.04259
391 1 -1.1104 12.1332 4.94523 6.9619
393 1 -1.1104 9.4243 4.66245 6.68464
394 1 -1.1104 9.52555 1.75114 6.82126
392 1 -1.1104 12.1181 2.02296 6.52199
395 1 -1.1104 6.4331 4.79765 12.3354
399 2 2.2208 10.7181 3.24775 11.0071
400 1 -1.1104 12.0755 4.69834 12.3964
401 1 -1.1104 12.1393 4.54679 9.62155
402 1 -1.1104 12.0052 1.86862 12.2642
403 2 2.2208 10.7482 0.424286 8.07079
405 1 -1.1104 12.0667 1.69833 9.41261
406 1 -1.1104 9.42019 4.75099 12.3568
407 2 2.2208 7.93728 3.23623 8.25349
408 1 -1.1104 9.33383 4.75347 9.6436
409 2 2.2208 7.86992 0.422088 11.0401
411 1 -1.1104 9.31309 1.88425 12.5933
412 1 -1.1104 9.29408 1.86557 9.69563
404 2 2.2208 10.6115 6.16936 8.15576
410 2 2.2208 7.93581 6.18725 10.9739
422 2 2.2208 13.5075 3.37834 8.15796
424 2 2.2208 13.4138 5.94981 10.859
423 2 2.2208 13.4176 0.336801 10.9148
554 1 -1.1104 17.6949 13.3337 9.39653
418 1 -1.1104 14.795 4.69431 6.67487
420 1 -1.1104 14.9499 2.09816 6.81462
419 1 -1.1104 20.5733 4.76001 6.76944
417 1 -1.1104 17.7761 2.01315 6.7167
425 2 2.2208 16.2668 3.28269 10.906
426 1 -1.1104 17.6842 4.84898 12.4656
427 1 -1.1104 17.7127 4.78918 9.41363
428 1 -1.1104 17.7415 1.93647 12.253
429 2 2.2208 16.5494 0.500583 8.23862
431 1 -1.1104 17.6796 1.94173 9.51078
432 1 -1.1104 14.9969 4.64856 12.3133
434 2 2.2208 19.1161 3.2909 8.11915
435 1 -1.1104 15 4.66548 9.46913
437 2 2.2208 18.993 0.526271 10.9577
439 1 -1.1104 14.8462 1.70256 12.3316
441 1 -1.1104 15.0286 1.86843 9.68405
430 2 2.2208 16.2514 6.24042 8.11428
438 2 2.2208 19.1372 6.16029 10.899
436 1 -1.1104 20.5568 4.80896 9.64746
440 1 -1.1104 20.4703 1.9307 12.4318
442 1 -1.1104 20.628 2.11777 9.46796
552 1 -1.1104 20.6229 10.2497 12.3629
534 2 2.2208 16.244 8.84453 11.0626
549 1 -1.1104 20.472 13.298 9.55413
447 1 -1.1104 23.2227 4.78462 6.6816
452 2 2.2208 -0.386508 0.471716 8.12912
451 2 2.2208 27.5396 3.44589 10.8417
358 1 -1.1104 26.2125 -0.838516 12.5387
453 2 2.2208 27.5815 6.22363 8.02453
433 1 -1.1104 20.7332 4.52547 12.4446
465 2 2.2208 24.8593 6.24574 10.943
454 2 2.2208 22.0107 3.17907 11.0363
455 1 -1.1104 23.4255 4.64595 12.3513
456 1 -1.1104 23.4274 4.7189 9.45151
457 1 -1.1104 23.2949 1.93342 12.4984
458 2 2.2208 22.0936 0.463266 8.0363
459 2 2.2208 21.8552 6.23127 8.30864
460 1 -1.1104 23.3266 1.92028 9.62711
461 1 -1.1104 26.2042 4.82239 12.5334
462 2 2.2208 24.6961 3.45154 8.03237
463 1 -1.1104 26.1599 4.80253 9.61279
464 2 2.2208 24.8684 0.690917 11.0218
466 1 -1.1104 26.2197 1.95362 12.3439
467 1 -1.1104 25.9469 2.08796 9.61151
576 1 -1.1104 23.3516 10.4197 12.3608
475 1 -1.1104 0.927481 13.2913 6.61655
474 1 -1.1104 0.67704 7.60146 6.71931
473 1 -1.1104 0.850053 10.4683 6.51042
584 2 2.2208 27.4933 9.04483 11.0877
494 1 -1.1104 3.5263 13.3154 9.30384
479 2 2.2208 4.83747 9.04217 10.8372
480 1 -1.1104 0.831823 10.4258 12.1301
481 1 -1.1104 0.865742 10.4306 9.51961
482 1 -1.1104 0.692287 7.67034 12.3117
483 1 -1.1104 0.950583 13.2386 12.1467
484 2 2.2208 5.2298 11.8435 8.03513
485 1 -1.1104 0.597962 7.70904 9.48551
486 1 -1.1104 0.817724 13.1276 9.47778
487 1 -1.1104 3.66745 10.5955 12.2682
488 2 2.2208 2.10187 9.01737 8.09005
489 1 -1.1104 3.73134 10.5347 9.40063
490 2 2.2208 2.268 11.847 10.8883
491 1 -1.1104 3.476 7.57806 12.1541
492 1 -1.1104 3.54243 13.317 12.229
493 1 -1.1104 3.52671 7.70921 9.33996
516 1 -1.1104 6.30284 10.4062 12.1128
520 1 -1.1104 6.26807 7.61284 9.44452
531 1 -1.1104 17.8207 7.69874 12.302
571 1 -1.1104 23.3333 7.62508 9.47551
553 1 -1.1104 14.8263 10.2596 12.3835
512 1 -1.1104 12.1371 13.2493 6.79722
511 1 -1.1104 12.12 7.56676 6.62801
521 1 -1.1104 6.47323 13.3324 9.52361
518 1 -1.1104 6.2375 7.65186 12.4276
519 1 -1.1104 6.38252 13.151 12.2146
517 1 -1.1104 6.60018 10.5748 9.46761
495 1 -1.1104 9.40258 13.0411 9.44729
496 1 -1.1104 9.19772 7.66288 9.63894
497 1 -1.1104 9.17991 13.0538 12.2593
498 1 -1.1104 9.19238 7.44056 12.2706
500 2 2.2208 7.98675 11.706 10.8963
501 1 -1.1104 9.40276 10.2784 9.44307
503 2 2.2208 7.83616 8.93418 8.14948
504 1 -1.1104 9.24665 10.3795 12.4243
505 1 -1.1104 12.1717 13.1673 9.58505
506 1 -1.1104 12.0891 7.49494 9.43239
522 2 2.2208 10.6228 9.00237 10.9449
523 1 -1.1104 11.9826 10.4297 12.4668
524 1 -1.1104 12.2835 10.3953 9.5182
525 1 -1.1104 12.2223 7.55522 12.288
526 1 -1.1104 12.1694 13.2482 12.4569
527 2 2.2208 10.8133 11.5981 8.16266
502 2 2.2208 13.5004 8.88218 8.29752
535 1 -1.1104 20.6641 7.52571 12.3885
542 1 -1.1104 17.724 13.2572 6.67751
540 1 -1.1104 17.7444 10.4356 6.60736
541 1 -1.1104 17.6764 7.71067 6.67975
557 1 -1.1104 15.047 13.1105 9.37473
537 1 -1.1104 14.8779 7.51663 12.5564
555 1 -1.1104 17.8011 7.54246 9.49963
558 1 -1.1104 14.9361 7.46556 9.63431
556 1 -1.1104 20.5303 7.70239 9.6134
536 1 -1.1104 15.0552 13.0375 12.35
550 1 -1.1104 14.8743 10.0666 9.61931
533 1 -1.1104 17.6421 10.5979 12.2122
539 1 -1.1104 20.6452 10.4247 9.56419
43 2 2.2208 19.1387 -5.15539 -0.236941
1102 2 2.2208 7.94669 11.864 -0.196918
1078 2 2.2208 2.46528 11.8651 -0.187373
74 2 2.2208 22.0322 -2.35614 -0.23329
72 2 2.2208 24.8477 -5.20047 -0.372965
1128 2 2.2208 19.2095 11.6626 -0.207308
1018 2 2.2208 8.08145 6.18778 -0.269923
1130 2 2.2208 16.4727 8.87468 -0.267347
810 2 2.2208 22.1307 9.05829 -0.295997
1149 2 2.2208 16.4854 3.24039 -0.236538
1042 2 2.2208 19.2222 6.38578 -0.21613
126 2 2.2208 13.5708 0.438496 -0.32147
1150 2 2.2208 21.9455 3.22757 -0.107997
586 2 2.2208 2.06396 8.99061 13.6328
1103 2 2.2208 10.7075 8.9448 -0.234847
127 2 2.2208 19.1547 0.350235 -0.269734
560 2 2.2208 19.2059 8.97503 13.6781
73 2 2.2208 27.589 -2.28448 -0.155737
902 2 2.2208 27.5999 11.8408 13.5351
365 2 2.2208 21.9434 -4.97377 13.6449
45 2 2.2208 16.2869 -2.39407 -0.23507
124 2 2.2208 7.97118 0.442753 -0.38881
588 2 2.2208 5.20737 -2.24553 16.5972
589 1 -1.1104 0.987617 -6.55972 17.8714
591 1 -1.1104 0.842146 -6.32363 15.1903
595 1 -1.1104 0.952335 -3.72712 17.9721
596 2 2.2208 5.22223 -5.10901 19.4038
597 1 -1.1104 0.906525 -3.41453 15.2503
599 1 -1.1104 3.75656 -6.3547 18.0432
601 2 2.2208 2.3993 -2.40623 19.4622
602 1 -1.1104 3.59433 -6.34945 15.06
606 2 2.2208 2.40936 -5.07541 16.5653
607 1 -1.1104 3.78829 -3.65319 18.1512
608 1 -1.1104 3.65945 -3.61282 15.3084
593 1 -1.1104 0.704846 -0.722514 15.1651
609 1 -1.1104 3.82453 -3.66707 20.8785
616 1 -1.1104 6.58407 -3.72827 18.0077
612 1 -1.1104 6.4128 -6.36844 15.1355
590 1 -1.1104 1.01691 -0.968638 17.9806
617 1 -1.1104 6.52772 -3.68429 15.0982
614 1 -1.1104 6.57347 -0.95179 15.2755
611 1 -1.1104 6.58703 -0.846282 18.0414
387 2 2.2208 5.08385 0.569089 13.8977
604 1 -1.1104 3.68499 -0.763879 15.092
600 1 -1.1104 4.00766 -0.937806 17.9995
594 1 -1.1104 0.868495 -1.02127 20.5898
592 1 -1.1104 0.913459 -6.49818 20.7715
338 2 2.2208 13.5539 -2.48969 13.7324
610 1 -1.1104 6.507 -6.45284 17.9569
619 2 2.2208 10.7713 -2.33662 16.6713
620 1 -1.1104 12.2185 -6.53779 17.9536
622 1 -1.1104 12.1419 -6.50659 15.2405
626 1 -1.1104 12.2758 -3.66578 17.9671
627 2 2.2208 10.8053 -5.08385 19.3966
628 1 -1.1104 12.2336 -3.67275 15.2813
630 1 -1.1104 9.38041 -6.56255 17.8906
632 2 2.2208 8.01207 -2.26768 19.4385
633 1 -1.1104 9.40399 -6.59586 15.0774
637 2 2.2208 7.94406 -5.03713 16.5545
638 1 -1.1104 9.34392 -3.63571 17.983
639 1 -1.1104 9.18468 -3.63229 15.1982
640 1 -1.1104 9.35253 -3.67018 20.6264
631 1 -1.1104 9.29721 -0.835229 18.0562
624 1 -1.1104 12.0915 -0.94911 15.2171
641 2 2.2208 13.6495 -2.3782 19.2288
621 1 -1.1104 12.1509 -0.910183 18.0385
635 1 -1.1104 9.36171 -0.804619 15.1844
636 1 -1.1104 9.51756 -0.751722 20.9362
339 2 2.2208 19.1345 -2.22698 13.8409
623 1 -1.1104 12.0644 -6.65182 20.6813
468 2 2.2208 -0.409705 0.5861 13.6913
642 2 2.2208 13.4008 -5.12696 16.5972
643 2 2.2208 16.291 -2.38594 16.3484
644 1 -1.1104 17.8266 -6.53273 17.8885
646 1 -1.1104 17.8158 -6.60862 15.1797
650 1 -1.1104 17.9057 -3.56478 18.0117
651 2 2.2208 16.3462 -5.1184 19.3189
652 1 -1.1104 17.768 -3.67968 15.0989
654 1 -1.1104 14.9188 -6.62245 18.0903
658 2 2.2208 19.3843 -2.27466 19.3625
659 1 -1.1104 14.9332 -6.54346 15.1549
667 2 2.2208 19.231 -5.11517 16.6719
668 1 -1.1104 15.1106 -3.76452 17.7574
670 1 -1.1104 14.8692 -3.8471 15.1449
645 1 -1.1104 17.9387 -0.991035 18.0166
655 1 -1.1104 15.1245 -0.927964 17.8502
648 1 -1.1104 17.471 -1.01247 15.2374
649 1 -1.1104 17.8778 -0.977039 20.8832
661 1 -1.1104 14.7892 -1.15845 15.1792
653 1 -1.1104 17.8723 -3.89159 20.7707
669 1 -1.1104 20.6935 -3.59925 18.0315
663 1 -1.1104 20.5693 -6.45821 15.0525
656 1 -1.1104 20.5773 -6.4941 18.0747
672 1 -1.1104 20.7324 -3.79904 15.3043
657 1 -1.1104 20.6478 -0.777364 17.9049
647 1 -1.1104 17.9302 -6.58232 20.7992
662 1 -1.1104 14.8848 -0.993693 20.5054
413 2 2.2208 10.7222 0.405816 13.7374
674 2 2.2208 27.596 -2.33477 16.4745
303 2 2.2208 10.8179 -5.20882 13.7615
675 2 2.2208 27.6861 -5.17589 19.253
676 2 2.2208 22.1729 -2.4493 16.6004
677 1 -1.1104 23.2952 -6.61827 17.8655
679 1 -1.1104 23.2493 -6.4777 15.0442
683 1 -1.1104 23.4354 -3.80774 18.0879
684 2 2.2208 21.9978 -5.31071 19.4492
685 1 -1.1104 23.3242 -3.6885 15.1645
687 1 -1.1104 26.325 -6.57084 18.0113
689 2 2.2208 24.7917 -2.35315 19.4122
690 1 -1.1104 25.9874 -6.77056 15.2499
694 2 2.2208 24.7484 -5.24687 16.5698
695 1 -1.1104 26.2389 -3.94085 17.9453
696 1 -1.1104 26.2248 -3.88849 15.1223
681 1 -1.1104 23.2397 -0.943274 15.0522
692 1 -1.1104 26.143 -1.01594 15.2415
688 1 -1.1104 26.1972 -0.892027 18.0274
691 1 -1.1104 26.0801 -6.56797 20.7693
665 1 -1.1104 20.4142 -0.897237 15.0634
697 1 -1.1104 26.2457 -3.79949 20.6596
678 1 -1.1104 23.4248 -0.948245 18.0651
693 1 -1.1104 26.1387 -0.985387 20.6961
680 1 -1.1104 23.3264 -6.608 20.7724
682 1 -1.1104 23.2796 -0.911113 20.688
388 2 2.2208 5.04836 6.09412 13.7795
698 2 2.2208 5.08104 3.25829 16.5955
699 1 -1.1104 0.861646 4.74634 17.81
700 1 -1.1104 0.607848 4.64619 15.1373
702 1 -1.1104 0.821347 1.9331 18.0004
703 2 2.2208 5.22851 0.460768 19.3921
704 2 2.2208 5.03196 6.21964 19.2599
705 1 -1.1104 1.00067 1.95512 15.1747
707 1 -1.1104 3.80124 4.78915 18.0005
708 2 2.2208 2.13234 3.28071 19.4619
709 1 -1.1104 3.62858 4.82691 15.067
711 2 2.2208 2.32142 0.439915 16.6436
713 1 -1.1104 3.7583 1.86567 17.9366
714 1 -1.1104 3.72044 1.9639 15.1897
712 2 2.2208 2.245 6.08132 16.4744
710 1 -1.1104 3.55047 4.76354 20.771
715 1 -1.1104 3.8055 1.97646 20.6658
706 1 -1.1104 0.915566 1.91248 20.8517
701 1 -1.1104 0.777205 4.67659 20.7787
719 1 -1.1104 6.65356 1.96978 18.0026
717 1 -1.1104 6.31615 4.67 15.274
716 1 -1.1104 6.40986 4.68733 18.0157
720 1 -1.1104 6.5424 2.023 15.1198
722 2 2.2208 10.6284 3.36346 16.6227
723 1 -1.1104 12.0638 4.69495 17.9886
724 1 -1.1104 11.9527 4.63905 15.1263
726 1 -1.1104 12.1325 1.70661 18.0544
727 2 2.2208 10.6079 0.548387 19.3878
728 2 2.2208 10.7439 6.24659 19.3477
729 1 -1.1104 12.0756 1.90894 15.1472
731 1 -1.1104 9.28647 4.79844 17.8736
732 2 2.2208 7.89224 3.48725 19.2719
733 1 -1.1104 9.20696 4.76368 15.0715
735 2 2.2208 7.9625 0.625985 16.6357
737 1 -1.1104 9.30663 1.94757 17.9165
738 1 -1.1104 9.35685 1.9612 15.2836
736 2 2.2208 7.75172 6.11034 16.5171
718 1 -1.1104 6.33686 4.8094 20.9178
739 1 -1.1104 9.35908 2.0224 20.586
742 2 2.2208 13.4974 6.08059 16.574
741 2 2.2208 13.4838 0.437154 16.527
721 1 -1.1104 6.50217 1.82641 20.6815
340 2 2.2208 16.3666 -5.20565 13.7864
443 2 2.2208 16.3762 0.400937 13.6617
740 2 2.2208 13.4296 3.12317 19.2972
743 2 2.2208 16.4052 3.19541 16.8055
744 1 -1.1104 17.8537 4.69416 18.1711
745 1 -1.1104 17.6157 4.44955 15.1611
747 1 -1.1104 17.8151 1.91774 18.1003
748 2 2.2208 16.2994 0.352718 19.4991
749 2 2.2208 16.3725 6.10012 19.4359
750 1 -1.1104 17.7864 1.57627 15.0421
752 1 -1.1104 15.0181 4.68003 17.9649
754 2 2.2208 19.1731 3.27236 19.4478
755 1 -1.1104 14.8562 4.59466 15.2718
759 2 2.2208 19.0585 0.49209 16.5713
761 1 -1.1104 15.1417 1.90887 18.1343
763 1 -1.1104 14.891 1.80581 15.184
760 2 2.2208 19.1982 6.05794 16.7098
746 1 -1.1104 17.7808 4.68616 20.9547
762 1 -1.1104 20.5819 1.94517 18.2068
765 1 -1.1104 20.5479 1.86579 15.2313
766 1 -1.1104 20.7044 1.72271 21.0062
758 1 -1.1104 20.5876 4.66783 20.7888
366 2 2.2208 24.6751 -2.3546 13.6484
446 2 2.2208 19.1606 3.28453 13.8295
769 2 2.2208 27.4743 6.07034 19.4094
768 2 2.2208 27.6408 0.393255 19.1694
767 2 2.2208 27.5916 3.35776 16.5253
757 1 -1.1104 20.5633 4.64327 15.405
753 1 -1.1104 20.5717 4.69275 18.0086
770 2 2.2208 22.0733 3.28012 16.5517
771 1 -1.1104 23.5251 4.59251 17.8932
772 1 -1.1104 23.2674 4.74615 15.2144
774 1 -1.1104 23.4718 1.83548 17.8836
775 2 2.2208 21.9806 0.444782 19.373
777 1 -1.1104 23.5285 1.876 15.212
779 1 -1.1104 26.2603 4.88778 18.0182
780 2 2.2208 24.7004 3.36669 19.4325
781 1 -1.1104 25.908 4.67099 15.1439
783 2 2.2208 24.9605 0.587278 16.4891
785 1 -1.1104 26.3903 2.07853 17.9261
786 1 -1.1104 26.3981 1.90154 15.0728
784 2 2.2208 24.7533 6.21187 16.5393
776 2 2.2208 21.9543 6.14167 19.4313
782 1 -1.1104 26.1725 4.64789 20.8484
778 1 -1.1104 23.353 1.90382 20.7198
773 1 -1.1104 23.2956 4.77655 20.8644
808 1 -1.1104 3.70654 13.0714 14.9053
793 1 -1.1104 0.993237 13.3149 17.7745
788 2 2.2208 5.04972 8.98751 16.4683
789 1 -1.1104 0.839618 10.2319 17.8757
790 1 -1.1104 0.949305 10.575 15.0622
792 1 -1.1104 0.844111 7.52005 17.8301
794 2 2.2208 5.14522 11.7897 19.2362
795 1 -1.1104 0.761025 7.50297 15.1594
797 1 -1.1104 0.892453 13.115 15.0613
799 1 -1.1104 3.62744 10.3225 17.7501
800 2 2.2208 2.40559 8.90788 19.3196
801 1 -1.1104 3.65681 10.288 14.9118
803 2 2.2208 2.3438 11.787 16.3018
804 1 -1.1104 3.72907 7.50044 17.8566
805 1 -1.1104 3.57258 13.1171 17.9811
806 1 -1.1104 3.71106 7.56668 15.1605
802 1 -1.1104 3.68134 10.4232 20.6187
798 1 -1.1104 0.906961 13.2303 20.651
815 1 -1.1104 6.46832 7.4654 17.8644
816 1 -1.1104 6.33441 13.0373 17.6147
879 2 2.2208 27.6816 11.6873 19.1065