LAMMPS (29 Oct 2020)
OMP_NUM_THREADS environment is not set. Defaulting to 1 thread. (../comm.cpp:94)
  using 1 OpenMP thread(s) per MPI task
OMP_NUM_THREADS environment is not set. Defaulting to 1 thread. (../comm.cpp:94)
  using 1 OpenMP thread(s) per MPI task
Reading data file ...
  orthogonal box = (-0.4942814 -5.6287200 -0.48339694) to (27.834281 333.70872 27.823397)
  2 by 13 by 2 MPI processor grid
  reading atoms ...
  18000 atoms
  reading velocities ...
  18000 velocities
Finding 1-2 1-3 1-4 neighbors ...
  special bond factors lj:    0.0      0.0      0.0     
  special bond factors coul:  0.0      0.0      0.0     
     0 = max # of 1-2 neighbors
     0 = max # of 1-3 neighbors
     0 = max # of 1-4 neighbors
     1 = max # of special neighbors
  special bonds CPU = 0.003 seconds
  read_data CPU = 0.058 seconds
Setting atom values ...
  12000 settings made for charge
Setting atom values ...
  6000 settings made for charge
PPPM initialization ...
  using 12-bit tables for long-range coulomb (../kspace.cpp:328)
  G vector (1/distance) = 0.29836551
  grid = 40 240 40
  stencil order = 5
  estimated absolute RMS force accuracy = 0.00016150949
  estimated relative force accuracy = 1.1216213e-05
  using single precision MKL FFT
  3d grid and FFT values/proc = 15000 7600
Neighbor list info ...
  update every 1 steps, delay 0 steps, check yes
  max neighbors/atom: 2000, page size: 100000
  master list distance cutoff = 11.3
  ghost atom cutoff = 11.3
  binsize = 5.65, bins = 6 61 6
  2 neighbor lists, perpetual/occasional/extra = 2 0 0
  (1) pair coul/long, perpetual
      attributes: half, newton on
      pair build: half/bin/newton
      stencil: half/bin/3d/newton
      bin: standard
  (2) pair eam/alloy, perpetual, copy from (1)
      attributes: half, newton on
      pair build: copy
      stencil: none
      bin: none
Setting up Verlet run ...
  Unit style    : metal
  Current step  : 0
  Time step     : 0.001
Per MPI rank memory allocation (min/avg/max) = 8.149 | 8.171 | 8.185 Mbytes
Step Temp E_pair E_mol TotEng Press 
       0         1500   -233149.34            0   -229659.51      999.707 
  100000    1506.2718    -233170.4            0   -229665.98    646.69338 
Loop time of 688.249 on 52 procs for 100000 steps with 18000 atoms

Performance: 12.554 ns/day, 1.912 hours/ns, 145.296 timesteps/s
99.8% CPU use with 52 MPI tasks x 1 OpenMP threads

MPI task timing breakdown:
Section |  min time  |  avg time  |  max time  |%varavg| %total
---------------------------------------------------------------
Pair    | 452.13     | 463.53     | 476.61     |  28.8 | 67.35
Bond    | 0.0072613  | 0.010442   | 0.018009   |   1.9 |  0.00
Kspace  | 137.93     | 152.79     | 164.6      |  58.2 | 22.20
Neigh   | 44.911     | 47.205     | 50.435     |  19.1 |  6.86
Comm    | 19.052     | 20.177     | 22.361     |  15.8 |  2.93
Output  | 5.6128e-05 | 6.1889e-05 | 0.00029516 |   0.0 |  0.00
Modify  | 2.1014     | 2.9708     | 5.1479     |  54.4 |  0.43
Other   |            | 1.565      |            |       |  0.23

Nlocal:        346.154 ave         367 max         332 min
Histogram: 3 11 11 4 5 4 5 2 5 2
Nghost:        3996.98 ave        4116 max        3940 min
Histogram: 13 13 5 2 7 3 2 2 2 3
Neighs:        69672.3 ave       76873 max       64545 min
Histogram: 6 8 5 4 10 6 5 3 4 1

Total # of neighbors = 3622960
Ave neighs/atom = 201.27556
Ave special neighs/atom = 0.0000000
Neighbor list builds = 25005
Dangerous builds = 0
12000 atoms in group oxygen
PPPM initialization ...
  using 12-bit tables for long-range coulomb (../kspace.cpp:328)
  G vector (1/distance) = 0.29836551
  grid = 40 240 40
  stencil order = 5
  estimated absolute RMS force accuracy = 0.00016150949
  estimated relative force accuracy = 1.1216213e-05
  using single precision MKL FFT
  3d grid and FFT values/proc = 15000 7600
Setting up Verlet run ...
  Unit style    : metal
  Current step  : 0
  Time step     : 0.001
Per MPI rank memory allocation (min/avg/max) = 8.400 | 8.422 | 8.436 Mbytes
Step f_2 Temp v_Tdiff v_deltaT 
       0            0    1506.2718            0            0 
  100000    1630.1771    1506.3432  0.061959762    719.34709 
  200000    3175.2968     1500.134   0.07425642    862.11014 
  300000    4704.4924    1503.3418  0.075394589    875.32417 
  400000    6242.7718    1510.8027  0.073941329    858.45197 
  500000    7778.6925    1509.9143  0.074872273    869.26013 
  600000    9312.2432    1509.4401  0.076073553    883.20688 
  700000    10870.237    1499.6901  0.074848631    868.98566 
  800000    12427.371    1505.3652   0.07457792    865.84272 
  900000    13970.428    1495.0694  0.074704844     867.3163 
 1000000    15511.133    1504.5167  0.074443998    864.28791 
 1100000    17047.218    1505.1229  0.076235751    885.08999 
 1200000    18592.087    1508.4841  0.075614085    877.87251 
 1300000    20139.977    1509.4923  0.076083719    883.32491 
 1400000    21673.797     1503.472  0.075612343    877.85227 
 1500000    23219.736    1518.9127  0.074971531    870.41251 
Loop time of 10253.5 on 52 procs for 1500000 steps with 18000 atoms

Performance: 12.640 ns/day, 1.899 hours/ns, 146.292 timesteps/s
99.8% CPU use with 52 MPI tasks x 1 OpenMP threads

MPI task timing breakdown:
Section |  min time  |  avg time  |  max time  |%varavg| %total
---------------------------------------------------------------
Pair    | 6692.9     | 6874.2     | 7065.5     | 115.5 | 67.04
Bond    | 0.10392    | 0.156      | 0.23418    |   7.4 |  0.00
Kspace  | 2111.1     | 2308.2     | 2507.3     | 215.5 | 22.51
Neigh   | 682.51     | 712.55     | 756.05     |  65.7 |  6.95
Comm    | 283.82     | 302.85     | 342.1      |  84.1 |  2.95
Output  | 0.0017113  | 0.0017911  | 0.003593   |   0.6 |  0.00
Modify  | 8.3786     | 9.2739     | 10.361     |  15.4 |  0.09
Other   |            | 46.24      |            |       |  0.45

Nlocal:        346.154 ave         368 max         329 min
Histogram: 3 5 6 13 4 7 6 4 3 1
Nghost:        3990.60 ave        4078 max        3940 min
Histogram: 11 6 8 8 7 4 0 1 1 6
Neighs:        69656.9 ave       75794 max       63868 min
Histogram: 3 6 4 5 12 6 5 4 4 3

Total # of neighbors = 3622158
Ave neighs/atom = 201.23100
Ave special neighs/atom = 0.0000000
Neighbor list builds = 378973
Dangerous builds = 0
Total wall time: 3:02:22
