ITEM: TIMESTEP
60000
ITEM: NUMBER OF ATOMS
17820
ITEM: BOX BOUNDS pp pp pp
-3.6012993238547741e-01 2.7700129932385863e+01
-4.2388482606457432e+00 3.3231884826064226e+02
-3.6300203182032681e-01 2.7703002031819512e+01
ITEM: ATOMS id type q x y z
1 2 2.2208 5.23715 1.33565 5.25751
2 1 -1.1104 1.05024 -2.72158 1.03952
3 1 -1.1104 1.24367 2.88599 1.18116
6 1 -1.1104 1.00002 -2.85777 3.87143
7 1 -1.1104 1.17948 2.81157 3.88931
10 1 -1.1104 1.1222 -0.0113141 1.13675
12 2 2.2208 5.18824 -1.5417 2.45719
13 2 2.2208 5.19467 4.28987 2.46597
14 1 -1.1104 1.14448 -0.112548 3.90968
16 1 -1.1104 3.85993 -2.82386 1.14095
17 1 -1.1104 3.82403 2.79418 1.16857
18 2 2.2208 2.62224 1.19516 2.57419
19 1 -1.1104 3.8194 -2.91623 3.94227
20 1 -1.1104 3.925 2.78226 3.77739
21 2 2.2208 2.48262 -1.49481 5.41725
22 2 2.2208 2.50444 4.22071 5.3124
23 1 -1.1104 3.86757 -0.111006 1.07403
24 1 -1.1104 4.11271 -0.187095 4.1296
26 2 2.2208 -0.352155 1.37715 5.22676
25 2 2.2208 -0.287341 -1.50171 2.55879
27 2 2.2208 -0.26108 4.20094 2.4879
173 1 -1.1104 3.7822 2.88685 6.68172
166 1 -1.1104 1.04117 -2.87302 6.70929
174 1 -1.1104 3.91231 -0.0689839 6.80312
30 2 2.2208 13.7301 15.4398 11.0095
203 2 2.2208 13.7029 12.6141 8.30611
365 2 2.2208 -0.276241 1.44224 -0.213192
8505 2 2.2208 11.0158 -4.30973 10.7672
361 2 2.2208 5.40088 1.4133 -0.282156
11 1 -1.1104 6.72601 0.0134193 1.02905
9 1 -1.1104 6.62271 2.64953 3.93048
15 1 -1.1104 6.67546 -0.0405418 3.99658
4 1 -1.1104 6.64747 -2.785 0.936636
5 1 -1.1104 6.62132 2.75687 1.22954
8 1 -1.1104 6.59523 -2.86362 3.88655
31 2 2.2208 10.934 1.32885 5.20361
32 1 -1.1104 12.1071 -2.71144 0.949362
33 1 -1.1104 12.2694 2.72975 1.10646
34 1 -1.1104 12.2448 -2.85847 3.74478
35 1 -1.1104 12.3039 2.67021 3.91139
36 1 -1.1104 12.2946 -0.0782792 1.05609
37 2 2.2208 10.8924 -1.4504 2.33458
38 2 2.2208 10.9078 4.14196 2.46816
39 1 -1.1104 12.4302 -0.208618 3.81754
40 1 -1.1104 9.44761 -2.76216 1.13482
41 1 -1.1104 9.43499 2.83609 1.05025
42 2 2.2208 8.16159 1.45702 2.44815
43 1 -1.1104 9.52102 -2.84422 3.88945
44 1 -1.1104 9.60007 2.80535 3.9048
45 2 2.2208 8.08685 -1.4716 5.30373
46 2 2.2208 7.97805 4.02153 5.26986
47 1 -1.1104 9.57378 0.0120133 0.945907
48 1 -1.1104 9.50067 0.0552828 3.81359
171 1 -1.1104 6.65219 -0.113096 6.72829
208 1 -1.1104 9.45801 -2.96078 6.63846
8500 2 2.2208 8.09325 -4.12669 2.39743
346 2 2.2208 13.648 1.29934 13.7213
367 2 2.2208 10.9243 1.39191 -0.403465
206 1 -1.1104 12.2555 2.64877 6.85556
169 1 -1.1104 6.67523 2.76189 6.64023
205 1 -1.1104 12.219 -2.79979 6.75337
209 1 -1.1104 9.38357 2.59991 6.59915
135 2 2.2208 -0.31758 15.394 2.61826
320 2 2.2208 8.1579 18.1572 8.08598
82 2 2.2208 -0.282526 9.73717 2.4747
54 2 2.2208 5.28858 7.00427 5.42593
55 2 2.2208 5.25912 12.4561 5.34576
56 1 -1.1104 1.1551 8.43845 1.04404
58 1 -1.1104 1.13746 8.41577 3.82152
60 1 -1.1104 0.957732 5.7372 1.13893
61 1 -1.1104 0.982469 11.1315 1.02918
66 2 2.2208 5.30567 9.84476 2.61773
67 1 -1.1104 1.10127 5.49291 3.91959
68 1 -1.1104 0.969645 11.213 3.86419
71 1 -1.1104 4.02075 8.42599 1.0514
72 2 2.2208 2.53051 7.06253 2.43874
73 2 2.2208 2.47345 12.4891 2.42262
74 1 -1.1104 4.02472 8.28499 3.88728
75 2 2.2208 2.4047 9.87156 5.31407
76 1 -1.1104 3.88909 5.70053 1.01168
77 1 -1.1104 3.97706 11.1436 1.11736
79 1 -1.1104 3.98298 5.68879 3.97101
80 1 -1.1104 3.72035 11.2163 3.84834
238 1 -1.1104 3.81293 8.4959 6.76735
81 2 2.2208 -0.383765 6.96457 5.34639
78 1 -1.1104 3.88822 11.1747 6.74023
236 1 -1.1104 1.15077 5.5277 6.69694
380 2 2.2208 -0.345621 7.03159 -0.331394
63 1 -1.1104 6.72163 5.59163 0.979592
383 2 2.2208 10.877 12.5871 -0.223351
64 1 -1.1104 6.61104 11.2747 1.22594
69 1 -1.1104 6.75293 5.55069 3.89002
70 1 -1.1104 6.57871 11.0962 3.9454
57 1 -1.1104 6.73867 8.38366 1.04846
59 1 -1.1104 6.81235 8.43462 3.85874
84 2 2.2208 10.8661 6.77011 5.25171
85 2 2.2208 10.8475 12.5988 5.38111
86 1 -1.1104 12.2306 8.25091 1.31317
87 1 -1.1104 12.3744 8.24845 4.0516
88 1 -1.1104 12.2664 5.5196 1.10334
89 1 -1.1104 12.3179 11.1118 1.08545
91 2 2.2208 10.8781 9.75318 2.57622
92 1 -1.1104 12.3394 5.46818 3.90696
93 1 -1.1104 12.2777 11.2687 3.89732
94 1 -1.1104 9.54071 8.41283 0.992033
95 2 2.2208 8.02862 6.94725 2.39864
96 2 2.2208 8.05301 12.5595 2.52949
97 1 -1.1104 9.53666 8.30612 3.81397
98 2 2.2208 8.01248 9.68764 5.36553
99 1 -1.1104 9.32407 5.61158 0.831012
100 1 -1.1104 9.45292 11.12 1.25103
102 1 -1.1104 9.55167 5.60174 3.6794
103 1 -1.1104 9.39923 11.133 3.84508
235 1 -1.1104 6.72483 8.33044 6.66241
267 1 -1.1104 9.50795 8.19408 6.61017
101 1 -1.1104 9.4552 11.2018 6.76946
237 1 -1.1104 6.79365 5.5019 6.70957
265 1 -1.1104 12.3038 8.22864 6.70797
381 2 2.2208 10.8335 6.81294 -0.174458
106 2 2.2208 5.22787 18.1612 5.40136
107 1 -1.1104 0.951293 13.8952 1.1803
109 1 -1.1104 1.07789 19.7303 1.05098
113 1 -1.1104 1.07416 14.0081 3.91049
114 1 -1.1104 1.10803 19.5075 3.88924
116 1 -1.1104 1.0914 16.7914 1.19565
119 2 2.2208 5.20824 15.3741 2.51365
120 2 2.2208 5.39544 21.0583 2.36198
121 1 -1.1104 1.09625 16.7725 3.97471
123 1 -1.1104 3.82646 13.9985 1.10265
125 1 -1.1104 4.0338 19.5642 1.15151
127 2 2.2208 2.54109 18.2073 2.53825
128 1 -1.1104 3.88204 13.9858 3.8053
129 1 -1.1104 3.92888 19.5063 4.01853
130 2 2.2208 2.47187 15.3612 5.27145
131 2 2.2208 2.54703 20.9747 5.43204
132 1 -1.1104 3.81357 16.7434 1.18421
134 1 -1.1104 3.80858 16.76 3.94548
302 1 -1.1104 1.29623 19.6854 6.62747
133 1 -1.1104 3.76792 16.6174 6.55259
233 1 -1.1104 12.2932 14.1003 12.3615
137 2 2.2208 -0.264575 18.3376 5.29313
126 1 -1.1104 4.04494 19.6217 6.7907
341 2 2.2208 10.8895 18.2112 -0.228593
139 1 -1.1104 6.63006 19.7021 3.98383
156 1 -1.1104 9.63901 19.5879 6.7366
110 1 -1.1104 6.72326 13.9854 1.11498
140 1 -1.1104 6.76267 16.7628 1.06575
122 1 -1.1104 6.63404 16.8548 3.9811
138 1 -1.1104 6.6412 19.6127 1.17879
115 1 -1.1104 6.59478 14.034 3.99227
141 2 2.2208 10.9345 18.097 5.35452
142 1 -1.1104 12.3541 13.9712 1.08006
144 1 -1.1104 12.3448 19.5859 1.18154
146 1 -1.1104 12.3655 13.9341 3.92831
147 1 -1.1104 12.3009 19.5368 4.06993
148 1 -1.1104 12.3151 16.752 1.03464
150 2 2.2208 10.8145 15.3987 2.59753
151 2 2.2208 10.9174 20.9752 2.69227
152 1 -1.1104 12.2057 16.7819 3.93663
153 1 -1.1104 9.58444 13.9497 1.22262
155 1 -1.1104 9.42798 19.7262 1.00145
157 2 2.2208 8.20023 18.3338 2.67178
158 1 -1.1104 9.37273 13.9317 4.01502
159 1 -1.1104 9.50581 19.5871 4.00446
160 2 2.2208 8.00825 15.3764 5.32164
161 2 2.2208 8.06038 20.8946 5.43594
162 1 -1.1104 9.64578 16.7729 1.16282
164 1 -1.1104 9.50383 16.9133 3.88565
111 1 -1.1104 6.58295 13.9915 6.58666
143 1 -1.1104 12.2881 13.9728 6.79904
145 1 -1.1104 12.4043 19.5559 6.69025
364 2 2.2208 8.14985 20.9781 -0.30574
167 1 -1.1104 1.03567 2.80211 6.63866
172 1 -1.1104 3.92642 -2.85305 6.86404
326 1 -1.1104 12.1654 16.9043 12.4103
170 1 -1.1104 1.18852 -0.0584245 6.78792
8502 2 2.2208 2.4129 -4.19745 8.20995
200 2 2.2208 -0.350025 -1.41115 8.15419
199 2 2.2208 -0.339978 4.21802 8.07454
175 2 2.2208 5.29796 1.33833 10.7983
176 1 -1.1104 1.20609 -2.82622 12.4451
177 1 -1.1104 1.09255 2.86858 12.4756
180 1 -1.1104 0.963093 -2.70018 9.60228
181 1 -1.1104 1.15995 2.7468 9.5198
184 1 -1.1104 1.01608 0.0864403 12.3101
186 2 2.2208 5.31087 -1.63879 8.17318
188 1 -1.1104 1.04363 0.0293855 9.55082
190 1 -1.1104 3.90489 -2.94485 12.3461
191 1 -1.1104 3.91394 2.6263 12.3328
192 2 2.2208 2.52189 1.37365 8.09804
193 1 -1.1104 3.84295 -2.8808 9.45843
194 1 -1.1104 3.91657 2.78569 9.48846
195 2 2.2208 2.46853 -1.39693 10.9288
196 2 2.2208 2.47545 4.11443 11.0389
197 1 -1.1104 3.91243 -0.125541 12.2735
198 1 -1.1104 3.85397 -0.203434 9.49264
187 2 2.2208 5.20115 4.07129 8.20469
201 2 2.2208 -0.326623 1.48304 10.7662
179 1 -1.1104 6.64489 2.73456 12.1954
185 1 -1.1104 6.69496 -0.0218648 12.2927
8503 2 2.2208 5.21134 -4.22833 10.92
8498 2 2.2208 2.4749 -4.21883 2.42637
330 2 2.2208 13.7384 4.07668 5.37142
317 2 2.2208 8.04416 15.3988 10.8522
232 2 2.2208 13.7064 4.22616 10.9323
207 1 -1.1104 12.2535 -0.118947 6.61063
210 1 -1.1104 9.46436 -0.125898 6.59446
105 2 2.2208 13.7083 6.91323 2.57358
182 1 -1.1104 6.72011 -2.85181 9.54166
104 2 2.2208 13.7605 12.5997 2.56608
168 1 -1.1104 6.65844 -2.91047 6.73629
183 1 -1.1104 6.627 2.63792 9.36669
189 1 -1.1104 6.76187 -0.217704 9.61262
178 1 -1.1104 6.59401 -2.84447 12.4976
211 2 2.2208 10.7989 1.35654 10.8757
212 1 -1.1104 12.2862 -2.88337 12.2988
213 1 -1.1104 12.2722 2.88272 12.2799
214 1 -1.1104 12.3474 -2.72563 9.5999
215 1 -1.1104 12.3705 2.81768 9.58868
216 1 -1.1104 12.3459 0.0497803 12.3694
217 2 2.2208 10.8503 -1.47387 8.18228
219 1 -1.1104 12.2555 0.0740121 9.48394
220 1 -1.1104 9.53325 -2.78077 12.3217
221 1 -1.1104 9.42144 2.66001 12.3439
222 2 2.2208 8.02023 1.28051 8.10154
223 1 -1.1104 9.59051 -2.92054 9.52324
224 1 -1.1104 9.37847 2.7423 9.36307
225 2 2.2208 8.19398 -1.5281 10.8006
226 2 2.2208 8.14507 4.22694 10.8667
227 1 -1.1104 9.59053 -0.0687915 12.1507
228 1 -1.1104 9.5725 -0.0499958 9.54042
218 2 2.2208 10.7759 4.11188 8.00337
50 2 2.2208 13.6879 -1.3926 5.4026
322 1 -1.1104 9.6354 13.7888 12.4571
62 1 -1.1104 1.03244 11.0741 6.77952
239 1 -1.1104 4.03141 5.65106 6.77327
234 1 -1.1104 1.06549 8.3186 6.62501
29 2 2.2208 -0.198859 6.94188 10.9596
52 2 2.2208 -0.327101 12.5948 10.8465
51 2 2.2208 -0.428894 9.77519 8.03814
240 2 2.2208 5.21006 6.91025 10.9097
241 2 2.2208 5.31553 12.5471 11.0933
242 1 -1.1104 1.25016 8.12934 12.4332
244 1 -1.1104 1.03172 8.29238 9.57532
246 1 -1.1104 1.02083 5.513 12.3091
247 1 -1.1104 1.14015 11.2313 12.2085
250 2 2.2208 5.23005 9.86808 8.16557
251 1 -1.1104 0.993913 5.39065 9.58157
252 1 -1.1104 1.02628 11.193 9.41553
255 1 -1.1104 3.91762 8.2904 12.393
256 2 2.2208 2.49596 6.93497 8.22965
257 2 2.2208 2.42098 12.5578 8.05073
258 1 -1.1104 3.91566 8.36361 9.60031
259 2 2.2208 2.43482 9.73906 10.9386
260 1 -1.1104 3.79925 5.39593 12.4366
261 1 -1.1104 3.86249 11.0829 12.2589
262 1 -1.1104 3.76863 5.52162 9.62899
263 1 -1.1104 3.78817 11.1719 9.59783
248 1 -1.1104 6.74216 5.54775 12.1199
65 1 -1.1104 6.72306 11.2171 6.76048
243 1 -1.1104 6.62001 8.24486 12.3531
266 1 -1.1104 12.1426 5.38863 6.66291
269 1 -1.1104 9.35197 5.30283 6.63518
249 1 -1.1104 6.66909 11.1073 12.4407
90 1 -1.1104 12.2717 11.2667 6.77275
254 1 -1.1104 6.57706 11.1598 9.6555
245 1 -1.1104 6.6602 8.36978 9.47064
253 1 -1.1104 6.612 5.58372 9.43696
264 1 -1.1104 9.34971 11.127 9.49492
268 1 -1.1104 9.56484 5.48685 9.33242
270 1 -1.1104 9.45083 10.9656 12.2709
271 1 -1.1104 9.56687 5.49463 12.1601
272 2 2.2208 8.06003 9.58786 10.8429
273 1 -1.1104 9.45249 8.27396 9.30421
274 2 2.2208 8.01103 12.5835 8.2501
275 2 2.2208 8.09249 6.81652 7.93393
276 2 2.2208 10.9858 6.89465 10.9568
277 2 2.2208 10.8026 12.5186 11.0577
278 1 -1.1104 12.2755 8.41065 12.4125
279 1 -1.1104 12.261 8.3323 9.59502
280 1 -1.1104 12.3555 5.66231 12.3171
281 1 -1.1104 12.3083 11.1763 12.3853
282 2 2.2208 10.9118 9.74255 8.07208
283 1 -1.1104 12.3147 5.57616 9.37007
284 1 -1.1104 12.1689 11.1261 9.64011
285 1 -1.1104 9.54794 8.32428 12.3462
311 2 2.2208 -0.293848 21.0051 8.12882
124 1 -1.1104 3.96137 13.8662 6.75486
312 2 2.2208 -0.147476 18.2223 10.9941
112 1 -1.1104 6.80379 19.5543 6.84331
117 1 -1.1104 1.17072 16.7953 6.81748
313 2 2.2208 -0.36561 15.4858 8.11096
108 1 -1.1104 1.23855 13.8536 6.56086
309 2 2.2208 2.56163 20.9672 10.9471
304 1 -1.1104 3.83514 16.7676 9.34575
299 1 -1.1104 1.08501 13.975 12.3536
303 2 2.2208 2.59739 18.1795 8.04653
310 2 2.2208 2.39623 15.3893 10.9004
308 1 -1.1104 3.90079 16.8536 12.1579
307 1 -1.1104 1.16104 16.8014 12.3368
305 1 -1.1104 3.88071 13.892 9.46941
295 2 2.2208 5.29896 15.2773 8.13122
294 1 -1.1104 1.07346 13.9635 9.55546
300 2 2.2208 5.26235 18.1615 10.9488
301 1 -1.1104 3.94519 19.5948 9.62186
298 1 -1.1104 1.10278 19.645 12.1979
286 1 -1.1104 3.85572 19.6548 12.5064
287 1 -1.1104 3.93443 14.0419 12.3188
291 1 -1.1104 1.10347 19.6124 9.51784
292 1 -1.1104 0.989169 16.775 9.47648
293 2 2.2208 5.43217 21.0622 8.15795
323 1 -1.1104 12.2563 16.7595 9.63255
163 1 -1.1104 9.51788 16.718 6.76451
288 1 -1.1104 6.64749 19.459 9.74963
319 1 -1.1104 9.51196 13.9758 9.62079
321 1 -1.1104 9.62167 19.6497 12.3253
306 1 -1.1104 6.71744 16.9374 12.2675
325 2 2.2208 10.9249 15.3018 8.12954
315 1 -1.1104 9.51306 16.7083 12.2569
289 1 -1.1104 6.70047 16.744 9.45058
118 1 -1.1104 6.63754 16.6685 6.86098
154 1 -1.1104 9.51423 13.9714 6.78528
290 1 -1.1104 6.69722 13.9656 9.52656
296 1 -1.1104 6.84563 19.7003 12.4521
318 1 -1.1104 9.45869 19.6468 9.53179
314 1 -1.1104 9.34569 16.8185 9.49791
316 2 2.2208 8.15675 20.9555 10.9405
204 2 2.2208 10.8683 18.212 10.8985
324 2 2.2208 10.9484 20.9639 8.1259
149 1 -1.1104 12.4449 16.7543 6.66395
329 1 -1.1104 12.4897 19.5637 12.3725
328 1 -1.1104 12.3622 14.0435 9.63067
327 1 -1.1104 12.4673 19.6613 9.45027
297 1 -1.1104 6.80437 13.9366 12.2943
340 2 2.2208 8.26033 15.5139 -0.1761
713 2 2.2208 -0.250485 18.1462 -0.256821
8512 2 2.2208 5.15456 -4.1783 -0.44412
363 2 2.2208 2.55203 4.14055 -0.285771
372 2 2.2208 8.13304 4.19066 -0.338079
378 2 2.2208 5.25094 12.5983 -0.291048
376 2 2.2208 5.31858 7.0839 -0.499539
377 2 2.2208 2.56021 9.79345 -0.290084
382 2 2.2208 8.11822 9.80295 -0.194284
369 2 2.2208 5.30945 18.1649 -0.159452
370 2 2.2208 2.6078 20.9589 -0.293593
368 2 2.2208 2.45476 15.3987 -0.280543
384 2 2.2208 5.32346 1.45401 16.6173
385 1 -1.1104 1.10328 -2.91127 17.8782
386 1 -1.1104 1.12729 2.68276 17.8573
389 1 -1.1104 1.01006 -2.88837 15.2042
391 1 -1.1104 0.998685 2.641 15.1834
397 1 -1.1104 1.03392 -0.17138 17.9282
399 2 2.2208 5.26135 -1.38955 19.2122
400 2 2.2208 5.39893 4.23063 19.3222
401 1 -1.1104 1.00979 0.0397861 14.9917
405 1 -1.1104 3.90394 -2.84289 17.9328
406 1 -1.1104 3.96588 2.78414 17.9432
407 2 2.2208 2.41663 1.28818 19.2137
408 1 -1.1104 3.78251 -2.93317 15.1261
410 1 -1.1104 3.98241 2.73962 15.0365
412 2 2.2208 2.40316 -1.50682 16.5418
413 2 2.2208 2.4618 4.12169 16.4851
414 1 -1.1104 3.93779 -0.0260748 17.8577
415 1 -1.1104 3.71146 -0.0115261 15.1625
493 1 -1.1104 12.3991 19.6453 26.3748
402 1 -1.1104 1.09246 0.0500468 20.699
611 1 -1.1104 9.45353 16.9115 23.5748
556 1 -1.1104 9.27782 19.5837 23.5458
585 2 2.2208 8.11134 15.3178 22.1482
8614 2 2.2208 2.46772 -4.30419 19.1624
390 1 -1.1104 1.21295 -2.76563 20.6406
339 2 2.2208 5.26068 4.0893 13.6767
644 1 -1.1104 12.244 13.7866 23.5458
335 2 2.2208 -0.242178 -1.3401 13.6444
395 1 -1.1104 6.72147 2.7292 14.9336
706 2 2.2208 13.7499 7.03425 24.8916
8610 2 2.2208 8.06576 -4.29532 19.3379
393 1 -1.1104 6.65007 -2.89965 15.1583
388 1 -1.1104 6.83425 2.96527 17.8526
403 1 -1.1104 6.48384 -0.0607414 15.1529
387 1 -1.1104 6.64045 -2.95601 17.8414
398 1 -1.1104 6.73305 0.0808996 17.8605
427 2 2.2208 10.8098 1.29171 16.6094
428 1 -1.1104 12.4062 -2.96604 17.8976
429 1 -1.1104 12.3612 2.82873 17.8504
430 1 -1.1104 12.2401 -2.8506 15.0045
432 1 -1.1104 12.3367 2.67821 15.059
434 1 -1.1104 12.4167 -0.0338265 17.9429
435 2 2.2208 10.7803 -1.40938 19.3171
436 2 2.2208 10.97 4.18413 19.2661
437 1 -1.1104 12.1643 -0.0178059 15.1876
439 1 -1.1104 9.49439 -2.81973 17.9635
440 1 -1.1104 9.69007 2.83393 17.9736
441 2 2.2208 8.07999 1.38092 19.198
442 1 -1.1104 9.457 -2.8798 15.2996
444 1 -1.1104 9.4683 2.74847 15.1239
446 2 2.2208 8.01087 -1.42314 16.5181
447 2 2.2208 8.23976 4.19915 16.5293
448 1 -1.1104 9.50402 -0.0932765 17.9528
449 1 -1.1104 9.40686 -0.0839267 15.1469
433 1 -1.1104 12.3598 2.90457 20.6108
438 1 -1.1104 12.3665 0.00316579 20.5363
404 1 -1.1104 6.82669 0.163431 20.6503
445 1 -1.1104 9.47715 2.63833 20.5861
394 1 -1.1104 6.69272 -2.78868 20.7477
345 2 2.2208 10.9684 -1.48713 13.7069
373 2 2.2208 -0.264531 9.79262 13.8136
459 1 -1.1104 12.3671 14.3009 26.229
460 2 2.2208 5.38729 7.0064 16.5407
461 2 2.2208 5.41903 12.595 16.5026
462 1 -1.1104 0.916114 8.54273 17.8964
464 1 -1.1104 1.03919 8.35153 15.0995
468 1 -1.1104 0.985182 5.54613 17.8021
469 1 -1.1104 1.24592 11.2937 17.9544
472 2 2.2208 5.22726 9.93636 19.3474
473 1 -1.1104 1.08679 5.43645 15.0452
475 1 -1.1104 1.16296 11.2329 15.0756
481 1 -1.1104 3.75515 8.46601 18.0053
482 2 2.2208 2.33336 7.01256 19.193
483 2 2.2208 2.42041 12.6257 19.3535
484 1 -1.1104 3.76257 8.33973 15.2559
486 2 2.2208 2.4719 9.80531 16.5127
487 1 -1.1104 3.72468 5.56256 17.8131
488 1 -1.1104 3.9138 11.2652 17.9249
489 1 -1.1104 4.0929 5.70517 15.085
491 1 -1.1104 3.9408 11.2049 15.0895
424 2 2.2208 -0.366946 12.6888 16.6
583 1 -1.1104 9.61331 14.0857 26.3815
350 2 2.2208 2.44095 12.5755 13.6463
466 1 -1.1104 6.78633 8.28408 15.1705
492 1 -1.1104 3.88289 11.2913 20.7378
490 1 -1.1104 3.76202 5.6649 20.6271
349 2 2.2208 5.2742 9.62196 13.7568
348 2 2.2208 2.51908 6.88779 13.8345
351 2 2.2208 8.13743 6.89351 13.6954
471 1 -1.1104 6.66593 11.2281 17.8868
477 1 -1.1104 6.81152 5.44975 15.1048
463 1 -1.1104 6.55045 8.49891 18.0235
470 1 -1.1104 6.74994 5.58822 17.8428
479 1 -1.1104 6.57612 11.0088 15.1624
496 2 2.2208 10.8869 6.97705 16.5031
497 2 2.2208 10.7801 12.593 16.5895
498 1 -1.1104 12.2465 8.46606 18.0731
499 1 -1.1104 12.4562 8.37061 15.2646
501 1 -1.1104 12.3298 5.61396 17.9322
502 1 -1.1104 12.3195 11.2761 18.0447
503 2 2.2208 10.8981 9.78851 19.429
504 1 -1.1104 12.262 5.65713 15.0968
506 1 -1.1104 11.9675 11.1707 15.2607
508 1 -1.1104 9.36858 8.37678 17.9298
509 2 2.2208 8.21906 6.97738 19.3803
510 2 2.2208 8.01366 12.4104 19.3199
511 1 -1.1104 9.40864 8.29045 15.1269
513 2 2.2208 8.00776 9.77515 16.5174
514 1 -1.1104 9.44339 5.66238 17.8405
515 1 -1.1104 9.47588 11.1446 17.993
516 1 -1.1104 9.56468 5.52138 15.0089
518 1 -1.1104 9.39286 11.3169 15.1869
519 1 -1.1104 9.42041 11.0783 20.7451
507 1 -1.1104 12.2505 11.2227 20.6767
478 1 -1.1104 6.54015 5.68147 20.6036
353 2 2.2208 8.03181 12.5478 13.8104
352 2 2.2208 10.9348 9.75834 13.7119
617 2 2.2208 -0.294965 21.049 19.2964
616 2 2.2208 -0.193019 15.3184 19.3134
523 2 2.2208 5.3589 18.2795 16.5332
524 1 -1.1104 0.937214 13.9323 17.9126
525 1 -1.1104 1.14365 19.5602 17.89
528 1 -1.1104 1.00554 14.0753 15.0434
530 1 -1.1104 1.16374 19.714 15.1034
536 1 -1.1104 1.16118 16.6903 17.8839
538 2 2.2208 5.22542 15.403 19.3025
539 2 2.2208 5.29826 20.9352 19.3391
540 1 -1.1104 1.19275 16.8699 15.1942
544 1 -1.1104 3.8419 14.1167 17.8527
545 1 -1.1104 4.07108 19.719 17.9742
546 2 2.2208 2.44927 18.0792 19.3412
547 1 -1.1104 3.81168 13.9884 15.0911
549 1 -1.1104 3.9777 19.7167 15.2112
551 2 2.2208 2.54998 15.4762 16.4891
552 2 2.2208 2.59597 21.0521 16.5403
553 1 -1.1104 3.94776 16.8766 17.9017
554 1 -1.1104 4.01211 16.8558 15.1358
531 1 -1.1104 1.14798 19.5827 20.7444
555 1 -1.1104 3.82708 16.8684 20.894
550 1 -1.1104 3.83768 19.4903 20.7095
541 1 -1.1104 0.947668 16.688 20.6538
535 1 -1.1104 6.68472 19.6604 20.8499
548 1 -1.1104 3.76576 14.0322 20.763
494 1 -1.1104 12.252 16.7186 23.5311
522 1 -1.1104 9.47035 14.1054 23.67
534 1 -1.1104 6.71291 19.6025 15.167
542 1 -1.1104 6.62618 16.7113 15.291
526 1 -1.1104 6.54614 14.0512 18.0362
532 1 -1.1104 6.72784 13.9452 15.0458
537 1 -1.1104 6.67433 16.8963 17.9501
527 1 -1.1104 6.70754 19.6428 17.9477
559 2 2.2208 10.991 18.1158 16.5932
560 1 -1.1104 12.3112 14.1077 17.9966
561 1 -1.1104 12.364 19.5705 17.8867
562 1 -1.1104 12.258 13.886 15.1747
564 1 -1.1104 12.3242 19.4829 15.1392
566 1 -1.1104 12.3419 16.809 17.9122
567 2 2.2208 10.8789 15.3413 19.351
568 2 2.2208 10.9975 21.0642 19.1687
569 1 -1.1104 12.3526 16.7001 15.1164
571 1 -1.1104 9.34975 13.9266 17.9993
572 1 -1.1104 9.61982 19.6191 17.9106
573 2 2.2208 8.29057 18.1745 19.2836
574 1 -1.1104 9.47378 14.0013 15.1991
576 1 -1.1104 9.56201 19.6779 15.1022
578 2 2.2208 7.99831 15.3382 16.7068
579 2 2.2208 8.20277 21.2133 16.4877
580 1 -1.1104 9.59853 16.7424 17.9817
581 1 -1.1104 9.57594 16.9337 15.2405
577 1 -1.1104 9.52801 19.5721 20.6309
533 1 -1.1104 6.56902 13.8876 20.7997
582 1 -1.1104 9.46585 16.7112 20.7604
358 2 2.2208 10.9013 15.35 13.7486
563 1 -1.1104 12.2801 13.9222 20.8078
575 1 -1.1104 9.44881 13.9792 20.7804
359 2 2.2208 8.11814 18.2394 13.7386
392 1 -1.1104 1.10231 2.92355 20.5784
416 1 -1.1104 3.96275 0.0778724 20.6331
409 1 -1.1104 3.94343 -2.62385 20.7235
8575 2 2.2208 2.4535 -4.02131 24.7968
454 2 2.2208 -0.241398 18.2329 16.4691
8609 2 2.2208 5.16106 -4.12722 22.1262
411 1 -1.1104 3.8415 2.88119 20.8037
621 2 2.2208 -0.110416 1.57062 22.0674
622 2 2.2208 -0.351335 4.27442 25.0103
620 2 2.2208 -0.371546 -1.36687 24.8846
587 2 2.2208 5.40405 1.48232 22.0763
588 1 -1.1104 1.05553 -2.62292 23.4888
589 1 -1.1104 1.12893 3.02774 23.6293
592 1 -1.1104 0.978948 -2.79595 26.2215
593 1 -1.1104 1.05093 2.67107 26.3108
596 1 -1.1104 1.14149 0.216163 23.4404
598 2 2.2208 5.344 -1.25174 24.8994
600 1 -1.1104 1.05699 -0.0169582 26.1729
602 1 -1.1104 3.81919 -2.63076 23.4711
603 1 -1.1104 3.89585 2.86754 23.573
604 2 2.2208 2.55901 1.42042 24.9825
605 1 -1.1104 3.90263 -2.66383 26.2844
606 1 -1.1104 3.91736 2.79116 26.2961
607 2 2.2208 2.59727 -1.27947 22.0676
608 2 2.2208 2.42976 4.21886 22.0888
609 1 -1.1104 3.85155 0.216275 23.4439
610 1 -1.1104 3.9074 0.0547833 26.2304
520 2 2.2208 10.835 20.9488 24.9453
614 1 -1.1104 12.3295 19.7412 23.5636
431 1 -1.1104 12.3082 -2.94657 20.802
396 1 -1.1104 6.69046 2.82656 20.5418
443 1 -1.1104 9.46844 -2.91769 20.7216
455 2 2.2208 13.7638 -1.45637 16.4713
8573 2 2.2208 8.06243 -4.13834 25.0288
594 1 -1.1104 6.68247 -2.63292 26.3144
591 1 -1.1104 6.74841 3.0115 23.4545
595 1 -1.1104 6.77057 2.7948 26.4002
597 1 -1.1104 6.68229 0.135443 23.4623
590 1 -1.1104 6.59861 -2.78649 23.568
601 1 -1.1104 6.67446 -0.0400158 26.2391
450 1 -1.1104 9.56071 -0.175785 20.629
623 2 2.2208 10.9326 1.32065 22.1334
624 1 -1.1104 12.1946 -3.06253 23.3751
625 1 -1.1104 12.2323 2.81976 23.3777
626 1 -1.1104 12.3959 -2.68053 26.1516
627 1 -1.1104 12.3042 2.73512 26.278
628 1 -1.1104 12.1823 -0.0577682 23.4143
629 2 2.2208 10.8724 -1.46961 24.8894
631 1 -1.1104 12.2254 -0.0252979 26.2925
632 1 -1.1104 9.5229 -2.88478 23.6301
633 1 -1.1104 9.6493 2.62629 23.4739
634 2 2.2208 8.07405 1.38639 24.8804
635 1 -1.1104 9.49616 -2.72443 26.3474
636 1 -1.1104 9.45784 2.9471 26.3545
637 2 2.2208 8.06112 -1.43596 22.1225
638 2 2.2208 8.26841 4.16014 22.102
639 1 -1.1104 9.3216 0.00646073 23.5103
640 1 -1.1104 9.43788 0.0195828 26.1904
630 2 2.2208 10.9125 4.1783 24.8787
371 2 2.2208 8.03024 -1.34572 27.5516
702 1 -1.1104 6.61779 13.8715 23.6525
474 1 -1.1104 0.926978 5.53654 20.6749
476 1 -1.1104 1.055 11.2157 20.739
467 1 -1.1104 6.79066 8.37037 20.9521
645 1 -1.1104 6.70159 19.642 23.6911
710 1 -1.1104 6.73089 16.8173 26.3073
599 2 2.2208 5.34692 4.17861 24.9875
465 1 -1.1104 1.06182 8.27302 20.6578
485 1 -1.1104 4.04177 8.48685 20.8041
680 2 2.2208 -0.183435 9.71218 25.05
615 2 2.2208 10.9807 18.1101 22.1043
708 1 -1.1104 6.76592 14.1162 26.4607
652 2 2.2208 5.26365 6.97566 22.0676
653 2 2.2208 5.20408 12.5743 22.1803
654 1 -1.1104 1.05257 8.48037 23.7057
656 1 -1.1104 1.14576 8.32152 26.4283
658 1 -1.1104 1.09773 5.71461 23.4003
659 1 -1.1104 1.115 11.2532 23.4547
662 2 2.2208 5.13116 9.9057 24.8926
663 1 -1.1104 1.06847 5.62916 26.2397
664 1 -1.1104 1.2185 11.0995 26.4034
667 1 -1.1104 3.84996 8.40842 23.5764
668 2 2.2208 2.37489 6.96825 24.8725
669 2 2.2208 2.52213 12.6293 25.0559
670 1 -1.1104 3.85013 8.40557 26.2636
671 2 2.2208 2.47931 9.74687 22.2517
672 1 -1.1104 3.79752 5.53409 23.5376
673 1 -1.1104 3.75826 11.3238 23.4924
674 1 -1.1104 3.8986 5.476 26.2347
675 1 -1.1104 3.82461 11.1314 26.388
657 1 -1.1104 6.84217 8.60889 26.2827
655 1 -1.1104 6.57683 8.47335 23.5529
665 1 -1.1104 6.61066 5.74382 26.2948
661 1 -1.1104 6.56103 11.2891 23.5959
666 1 -1.1104 6.72164 11.3256 26.3739
570 1 -1.1104 12.2381 16.6797 20.7658
480 1 -1.1104 6.60936 11.1666 20.7843
505 1 -1.1104 12.1765 5.63383 20.7958
512 1 -1.1104 9.65048 8.27204 20.6955
517 1 -1.1104 9.38246 5.50696 20.6773
500 1 -1.1104 12.3274 8.50881 20.8214
660 1 -1.1104 6.72781 5.66988 23.4439
683 1 -1.1104 9.54672 11.3781 26.4012
684 1 -1.1104 9.48592 5.64435 26.3003
685 1 -1.1104 9.3653 11.0065 23.6024
686 1 -1.1104 9.50404 5.57431 23.4871
687 2 2.2208 8.04265 9.76106 22.2374
688 1 -1.1104 9.47405 8.53654 26.3715
689 2 2.2208 8.04844 12.6008 25.0572
690 2 2.2208 8.14496 7.11061 25.0128
691 2 2.2208 10.9432 7.02073 22.122
692 2 2.2208 10.8528 12.5932 22.2162
693 1 -1.1104 12.357 8.35935 23.6787
694 1 -1.1104 12.3965 8.37288 26.4196
695 1 -1.1104 12.3044 5.54727 23.6019
696 1 -1.1104 12.2709 11.2496 23.4229
697 2 2.2208 10.7769 9.82134 25.0262
698 1 -1.1104 12.2793 5.51293 26.4489
699 1 -1.1104 12.2516 11.3153 26.3809
700 1 -1.1104 9.50933 8.38129 23.5477
558 1 -1.1104 6.65278 19.6619 26.4607
529 1 -1.1104 1.07413 14.0304 20.7388
9208 2 2.2208 -0.186026 20.9408 24.9155
648 1 -1.1104 6.67106 16.572 23.4345
9494 2 2.2208 -0.291429 18.0736 22.1987
619 2 2.2208 -0.385982 15.2646 25.0482
711 1 -1.1104 1.20299 19.6508 26.3777
709 1 -1.1104 3.91366 13.9665 23.6504
613 1 -1.1104 1.007 16.8049 26.4743
641 2 2.2208 2.45004 15.2794 22.2108
642 2 2.2208 2.51771 20.9428 22.0748
643 1 -1.1104 3.88625 16.6854 23.6723
647 1 -1.1104 1.04562 16.6795 23.375
651 1 -1.1104 3.97881 13.8967 26.3778
676 1 -1.1104 3.9056 16.7344 26.3765
677 2 2.2208 2.49374 18.059 24.9523
678 1 -1.1104 3.96451 19.5814 26.3634
679 2 2.2208 5.27033 18.1734 22.1241
682 1 -1.1104 1.10144 13.9737 23.6649
701 1 -1.1104 1.11409 19.518 23.6603
703 2 2.2208 5.38984 15.3535 24.9619
704 1 -1.1104 1.07764 14.02 26.5666
705 2 2.2208 5.38929 21.042 24.9316
707 1 -1.1104 3.89112 19.5294 23.4694
495 2 2.2208 10.9051 15.4518 25.0074
612 1 -1.1104 9.4896 16.913 26.4952
565 1 -1.1104 12.1873 19.4927 20.75
584 1 -1.1104 9.53071 19.5714 26.2467
521 1 -1.1104 12.4452 17.1006 26.3043
543 1 -1.1104 6.75628 16.8037 20.6485
586 2 2.2208 8.04801 20.9984 22.108
557 2 2.2208 8.02684 18.214 24.9619
362 2 2.2208 2.49416 -1.49143 27.6155
336 2 2.2208 5.23476 -1.4547 13.7403
337 2 2.2208 2.58445 1.32732 13.7421
343 2 2.2208 -0.37921 4.122 13.6778
344 2 2.2208 8.05909 1.33405 13.6573
347 2 2.2208 10.8479 4.07056 13.6683
355 2 2.2208 5.30165 21.0911 13.7775
354 2 2.2208 2.50976 18.0946 13.8188
452 2 2.2208 -0.28892 21.0791 13.6745
356 2 2.2208 5.2643 15.4627 13.7406
357 2 2.2208 11.0108 20.9476 13.7129
714 2 2.2208 5.36959 23.8513 5.21519
715 2 2.2208 5.18033 29.6313 5.37003
716 1 -1.1104 1.11207 25.1899 1.03454
717 1 -1.1104 1.19659 25.021 3.79523
718 1 -1.1104 1.10949 22.3187 1.0403
719 1 -1.1104 1.03957 27.8353 0.969795
720 2 2.2208 5.31351 26.7543 2.43979
721 1 -1.1104 1.20138 22.3423 3.83006
722 1 -1.1104 1.11847 27.8953 3.81567
723 1 -1.1104 3.87598 25.2647 1.06885
724 2 2.2208 2.4894 23.786 2.44351
725 2 2.2208 2.40624 29.3749 2.43489
726 1 -1.1104 3.99508 25.142 3.95023
727 2 2.2208 2.48979 26.6038 5.19114
728 1 -1.1104 3.97529 22.3866 1.08925
729 1 -1.1104 3.88979 27.9927 0.928449
730 1 -1.1104 3.90603 22.318 3.88334
731 1 -1.1104 4.07118 28.0102 3.85351
858 1 -1.1104 1.12602 27.8552 6.61801
734 2 2.2208 -0.307751 26.5616 2.43173
737 1 -1.1104 6.84052 22.4222 1.12344
735 1 -1.1104 6.69247 25.2144 0.991065
736 1 -1.1104 6.74668 25.2828 3.74916
733 2 2.2208 -0.299428 23.7458 5.16234
9787 2 2.2208 -0.260204 29.1582 5.31841
856 1 -1.1104 6.86685 25.1464 6.59475
859 1 -1.1104 6.7129 22.3078 6.64697
1070 2 2.2208 5.25347 23.7596 -0.355935
1619 1 -1.1104 3.50899 47.7373 12.3592
739 1 -1.1104 6.77998 22.4132 3.96086
740 1 -1.1104 6.78304 28.1664 3.82454
756 1 -1.1104 6.76448 28.0354 0.996473
741 2 2.2208 10.8896 23.682 5.33533
742 2 2.2208 10.9071 29.4814 5.24571
743 1 -1.1104 12.5514 25.0303 0.879332
744 1 -1.1104 12.3795 24.9643 3.83861
745 1 -1.1104 12.4287 22.354 1.06275
746 1 -1.1104 12.4863 27.6526 0.966216
747 2 2.2208 11.1426 26.4373 2.32593
748 1 -1.1104 12.2979 22.3138 3.98543
749 1 -1.1104 12.2047 27.9395 3.78163
750 1 -1.1104 9.67192 25.4389 0.90101
751 2 2.2208 8.13243 23.8643 2.58382
752 2 2.2208 8.03425 29.5776 2.5383
753 1 -1.1104 9.65493 25.1343 3.77596
754 2 2.2208 8.16504 26.6205 5.20863
755 1 -1.1104 9.59604 22.6265 1.24215
757 1 -1.1104 9.5428 22.331 3.97181
758 1 -1.1104 9.58029 27.9373 3.41484
893 1 -1.1104 9.62831 28.0477 6.54382
891 1 -1.1104 9.44788 25.2245 6.53317
890 1 -1.1104 12.3274 27.9511 6.62388
892 1 -1.1104 9.48504 22.3027 6.71645
888 1 -1.1104 12.3504 25.0629 6.53282
1074 2 2.2208 10.9145 23.7835 -0.336545
1079 2 2.2208 5.29906 35.1209 -0.310441
1077 2 2.2208 2.53893 37.7244 -0.139738
762 2 2.2208 5.0962 34.978 5.34609
763 1 -1.1104 1.00926 30.869 0.906272
764 1 -1.1104 0.977645 36.3356 1.23257
766 1 -1.1104 0.928793 30.6552 3.7267
767 1 -1.1104 1.02704 36.4113 3.86361
769 1 -1.1104 0.81092 33.5126 1.09922
770 2 2.2208 5.15967 32.2056 2.50206
771 2 2.2208 5.17605 37.8397 2.64882
772 1 -1.1104 1.00519 33.6617 3.97954
774 1 -1.1104 3.78832 30.8718 1.02175
775 1 -1.1104 3.80211 36.4318 1.24677
776 2 2.2208 2.3791 34.8904 2.49139
777 1 -1.1104 3.8509 30.7428 3.73376
778 1 -1.1104 3.74572 36.4207 3.96992
779 2 2.2208 2.16183 32.1566 5.35053
780 2 2.2208 2.44073 37.9298 5.31184
781 1 -1.1104 3.71134 33.5388 0.991756
782 1 -1.1104 3.84257 33.5574 3.92027
912 1 -1.1104 1.05317 30.5912 6.53303
768 1 -1.1104 6.55373 36.4622 4.00937
786 1 -1.1104 6.54141 30.8154 1.24218
765 1 -1.1104 6.58836 36.5009 1.04179
787 1 -1.1104 6.56323 30.8295 3.88182
773 1 -1.1104 6.4805 33.6703 3.83292
916 1 -1.1104 0.817769 33.7526 6.61954
913 1 -1.1104 0.936884 36.4376 6.78867
914 1 -1.1104 6.71274 30.7209 6.66702
915 1 -1.1104 6.54503 36.2647 6.80323
1042 2 2.2208 13.5975 40.6404 8.05283
1006 1 -1.1104 9.34537 44.7853 9.51473
1078 2 2.2208 2.47956 32.2957 -0.362972
1073 2 2.2208 10.8688 35.0958 -0.292249
788 1 -1.1104 6.62655 33.5324 1.11092
789 2 2.2208 10.8615 35.0563 5.2081
790 1 -1.1104 9.53078 30.8208 1.08685
791 1 -1.1104 12.1715 36.6045 1.06724
792 1 -1.1104 12.1971 30.7111 3.50004
793 1 -1.1104 12.1398 36.3703 3.79952
794 1 -1.1104 12.0373 33.741 1.17664
795 2 2.2208 10.7782 32.2873 2.49422
796 2 2.2208 10.7777 37.8985 2.44658
797 1 -1.1104 12.1631 33.5021 3.92374
799 1 -1.1104 9.31492 36.3414 1.09214
800 2 2.2208 7.87832 35.0479 2.58375
801 1 -1.1104 9.36491 30.91 3.99726
802 1 -1.1104 9.37209 36.4749 3.8566
803 2 2.2208 7.99889 32.2423 5.48166