ITEM: TIMESTEP
100000
ITEM: NUMBER OF ATOMS
17820
ITEM: BOX BOUNDS pp pp pp
-3.5979995639338530e-01 2.7699799956394255e+01
-4.3353447465953012e+00 3.3241534474659153e+02
-3.5308726254271056e-01 2.7693087262541749e+01
ITEM: ATOMS id type q x y z
1 2 2.2208 5.10778 1.31872 5.33165
2 1 -1.1104 0.931445 -2.74221 1.08016
3 1 -1.1104 1.1989 2.83225 1.10373
6 1 -1.1104 0.777961 -2.91572 3.88048
7 1 -1.1104 1.03183 2.82342 3.88718
10 1 -1.1104 1.10934 0.0370265 1.11878
12 2 2.2208 5.20682 -1.40608 2.36385
13 2 2.2208 5.28145 4.11408 2.47526
14 1 -1.1104 0.961551 0.0192729 3.90261
16 1 -1.1104 3.805 -2.81885 1.04449
17 1 -1.1104 3.9137 2.69911 1.05788
18 2 2.2208 2.48554 1.49428 2.46854
19 1 -1.1104 3.72498 -2.93437 3.80088
20 1 -1.1104 4.01558 2.72439 3.91434
21 2 2.2208 2.42228 -1.48071 5.17142
22 2 2.2208 2.47492 4.18967 5.36431
23 1 -1.1104 3.92042 -0.000549392 1.04655
24 1 -1.1104 3.68032 0.000492103 3.86491
372 2 2.2208 8.168 4.21905 -0.348403
369 2 2.2208 5.34277 18.1915 -0.279952
15 1 -1.1104 6.65676 -0.163625 3.74938
170 1 -1.1104 1.01327 -0.1072 6.66544
4 1 -1.1104 6.61522 -2.90539 1.00282
329 1 -1.1104 12.4359 19.4763 12.3941
8498 2 2.2208 2.37988 -4.27905 2.47825
173 1 -1.1104 3.92397 2.62263 6.77859
364 2 2.2208 8.11444 21.013 -0.304485
363 2 2.2208 2.62294 4.25207 -0.365869
11 1 -1.1104 6.66742 0.0127499 1.03903
9 1 -1.1104 6.73709 2.74343 3.93286
8 1 -1.1104 6.59531 -2.91164 3.86981
5 1 -1.1104 6.73972 2.81087 1.1683
31 2 2.2208 10.9473 1.35117 5.28739
32 1 -1.1104 12.0691 -2.86789 1.0317
33 1 -1.1104 12.337 2.79465 1.14344
34 1 -1.1104 12.3951 -2.8842 3.74472
35 1 -1.1104 12.3507 2.72022 3.9679
36 1 -1.1104 12.1031 -0.168372 1.11794
37 2 2.2208 10.7942 -1.51266 2.53342
39 1 -1.1104 12.3334 -0.139294 3.86468
40 1 -1.1104 9.33357 -2.8151 1.1487
41 1 -1.1104 9.63981 2.73693 0.963444
42 2 2.2208 8.01243 1.36525 2.49388
43 1 -1.1104 9.48129 -2.76561 3.91528
44 1 -1.1104 9.51388 2.77853 3.87383
45 2 2.2208 8.01408 -1.53789 5.13372
47 1 -1.1104 9.45199 0.0782955 1.22931
48 1 -1.1104 9.42311 -0.0457549 3.85685
46 2 2.2208 8.0433 4.11819 5.31467
38 2 2.2208 10.9967 4.05033 2.50976
208 1 -1.1104 9.40681 -2.77943 6.73194
205 1 -1.1104 12.2411 -2.73846 6.65027
210 1 -1.1104 9.40758 -0.0604293 6.67636
17414 2 2.2208 13.7115 -4.21799 2.48626
82 2 2.2208 -0.331653 9.70123 2.65779
378 2 2.2208 5.07175 12.5511 -0.344154
8500 2 2.2208 8.03629 -4.26307 2.39332
54 2 2.2208 5.21696 7.02816 5.19411
55 2 2.2208 5.3407 12.5601 5.21613
56 1 -1.1104 1.07489 8.23811 1.01931
58 1 -1.1104 1.00692 8.275 3.93378
60 1 -1.1104 1.04559 5.6087 1.03239
61 1 -1.1104 1.14486 11.0911 0.8701
66 2 2.2208 5.34482 9.73556 2.50376
67 1 -1.1104 0.978422 5.52632 3.86455
68 1 -1.1104 1.05086 11.0755 3.89664
71 1 -1.1104 3.84438 8.36368 1.10662
72 2 2.2208 2.43542 6.93805 2.41974
73 2 2.2208 2.41926 12.4274 2.57757
74 1 -1.1104 3.85713 8.39018 3.81418
75 2 2.2208 2.4322 9.72756 5.30253
76 1 -1.1104 3.947 5.58749 1.04858
77 1 -1.1104 3.98741 11.1604 1.07216
79 1 -1.1104 3.77637 5.47062 3.8888
80 1 -1.1104 3.94675 11.1662 3.87149
8505 2 2.2208 10.9953 -4.31896 10.9043
62 1 -1.1104 1.18343 11.1256 6.79695
78 1 -1.1104 4.01693 11.1652 6.58894
376 2 2.2208 5.28736 6.91654 -0.298597
323 1 -1.1104 12.3881 16.6729 9.41519
8502 2 2.2208 2.51066 -4.31571 8.06424
52 2 2.2208 -0.327959 12.631 10.9657
312 2 2.2208 -0.295873 18.2515 10.8412
321 1 -1.1104 9.63876 19.5835 12.2099
59 1 -1.1104 6.66186 8.28391 3.87659
63 1 -1.1104 6.64762 5.47129 1.04075
57 1 -1.1104 6.69716 8.15817 1.16977
70 1 -1.1104 6.74622 11.135 3.99641
69 1 -1.1104 6.54268 5.52289 3.91987
64 1 -1.1104 6.88896 10.8699 1.11548
84 2 2.2208 10.8055 6.89101 5.36111
85 2 2.2208 11.0079 12.536 5.22691
86 1 -1.1104 12.2518 8.4823 1.20774
87 1 -1.1104 12.3169 8.22991 3.96115
88 1 -1.1104 12.2883 5.53831 1.16233
89 1 -1.1104 12.2713 11.3085 1.12272
91 2 2.2208 10.8804 9.78454 2.56411
92 1 -1.1104 12.1244 5.50753 3.85857
93 1 -1.1104 12.3911 11.1054 3.88546
94 1 -1.1104 9.42323 8.31015 1.12806
95 2 2.2208 8.13798 6.86457 2.62762
96 2 2.2208 8.18635 12.4853 2.46713
97 1 -1.1104 9.48328 8.36411 4.03353
98 2 2.2208 8.01343 9.68458 5.25021
99 1 -1.1104 9.55846 5.45625 1.26497
100 1 -1.1104 9.49537 11.176 0.992099
102 1 -1.1104 9.30833 5.54957 3.97631
103 1 -1.1104 9.62289 11.1313 3.85702
237 1 -1.1104 6.62375 5.65067 6.70876
17415 2 2.2208 -0.425916 -4.28574 5.29842
83 2 2.2208 -0.449509 12.5163 5.43531
382 2 2.2208 8.09334 9.5971 -0.372917
106 2 2.2208 5.24556 18.0209 5.26722
107 1 -1.1104 1.07665 13.9801 1.19798
109 1 -1.1104 1.00898 19.4456 1.10877
113 1 -1.1104 0.991198 13.8158 3.86131
114 1 -1.1104 1.02341 19.4486 3.93579
116 1 -1.1104 1.29219 16.6909 1.25283
119 2 2.2208 5.22604 15.2262 2.42064
120 2 2.2208 5.22119 20.9042 2.52073
121 1 -1.1104 1.046 16.6344 3.87252
123 1 -1.1104 3.71486 13.8259 1.1758
125 1 -1.1104 3.85622 19.5953 1.08514
127 2 2.2208 2.50343 18.0304 2.45935
128 1 -1.1104 4.10155 13.9435 3.94418
129 1 -1.1104 3.97516 19.6089 3.96792
130 2 2.2208 2.45967 15.3363 5.33886
131 2 2.2208 2.52496 21.0963 5.29623
132 1 -1.1104 3.98346 16.7001 1.17389
134 1 -1.1104 3.82941 16.6863 4.00289
361 2 2.2208 5.30444 1.36943 -0.302218
108 1 -1.1104 1.11206 13.9706 6.76036
133 1 -1.1104 3.80686 16.7367 6.91631
126 1 -1.1104 3.98819 19.5716 6.78647
117 1 -1.1104 0.893211 16.7147 6.76173
327 1 -1.1104 12.4129 19.5915 9.52408
17413 2 2.2208 -0.414134 -4.2506 10.9491
345 2 2.2208 10.8673 -1.54894 13.696
115 1 -1.1104 6.6938 13.893 3.7478
118 1 -1.1104 6.77115 16.8509 6.69961
139 1 -1.1104 6.78844 19.4254 4.04173
138 1 -1.1104 6.66905 19.6926 1.01095
140 1 -1.1104 6.79678 16.7532 1.27632
110 1 -1.1104 6.70871 13.669 1.03643
122 1 -1.1104 6.634 16.755 3.93149
141 2 2.2208 10.9729 18.1714 5.37103
142 1 -1.1104 12.2652 14.0013 0.894615
144 1 -1.1104 11.9888 19.5437 1.15266
146 1 -1.1104 12.377 13.7816 3.83207
147 1 -1.1104 12.3552 19.474 3.89612
148 1 -1.1104 12.4064 16.7188 1.13961
150 2 2.2208 10.947 15.4201 2.54932
151 2 2.2208 10.9327 21.0209 2.44968
152 1 -1.1104 12.4307 16.6456 4.03278
153 1 -1.1104 9.52592 13.9282 1.06076
155 1 -1.1104 9.34466 19.5905 1.16107
157 2 2.2208 8.15116 18.1591 2.56604
158 1 -1.1104 9.59922 13.9728 3.88301
159 1 -1.1104 9.67857 19.6597 3.93075
160 2 2.2208 8.11884 15.3655 5.28878
161 2 2.2208 8.22931 20.9033 5.31976
162 1 -1.1104 9.43781 16.7615 1.21762
164 1 -1.1104 9.60196 16.8274 4.04183
112 1 -1.1104 6.69986 19.6573 6.73318
201 2 2.2208 -0.503743 1.42638 10.9779
167 1 -1.1104 0.987425 2.64163 6.74764
172 1 -1.1104 3.89971 -2.7512 6.58716
168 1 -1.1104 6.59061 -2.78273 6.71382
8503 2 2.2208 5.19226 -4.31295 10.8719
174 1 -1.1104 3.70331 0.0401888 6.7604
166 1 -1.1104 1.1065 -2.8527 6.65698
175 2 2.2208 5.19216 1.33738 10.8074
176 1 -1.1104 0.930234 -2.86397 12.2273
177 1 -1.1104 0.945802 2.84303 12.2639
180 1 -1.1104 1.08836 -2.82328 9.4945
181 1 -1.1104 1.00671 2.84322 9.50523
184 1 -1.1104 1.00178 -0.00989769 12.2569
186 2 2.2208 5.23376 -1.4602 8.05073
188 1 -1.1104 1.16543 0.0638279 9.49633
190 1 -1.1104 3.64223 -2.89419 12.2518
191 1 -1.1104 3.81048 2.57913 12.4225
192 2 2.2208 2.42169 1.25852 8.11215
193 1 -1.1104 4.0335 -2.97774 9.53765
194 1 -1.1104 3.709 2.87188 9.37756
195 2 2.2208 2.39712 -1.39733 10.9306
196 2 2.2208 2.36908 4.16966 10.7968
197 1 -1.1104 3.89217 -0.138067 12.1987
198 1 -1.1104 3.97929 -0.102233 9.4561
187 2 2.2208 5.22655 4.23572 8.1116
27 2 2.2208 -0.357384 4.12585 2.43081
169 1 -1.1104 6.67063 2.8919 6.72245
206 1 -1.1104 12.2943 2.7294 6.7641
209 1 -1.1104 9.5677 2.75096 6.55458
207 1 -1.1104 12.1648 0.0609775 6.64611
171 1 -1.1104 6.54917 -0.0139203 6.523
183 1 -1.1104 6.62251 2.84227 9.47863
179 1 -1.1104 6.58766 2.74892 12.4177
185 1 -1.1104 6.65889 -0.0280778 12.2706
182 1 -1.1104 6.74397 -2.84361 9.44078
178 1 -1.1104 6.57103 -2.8709 12.4355
189 1 -1.1104 6.61385 0.0264676 9.37784
211 2 2.2208 10.9185 1.23708 10.8089
212 1 -1.1104 12.1012 -2.99412 12.2147
213 1 -1.1104 12.3972 2.75532 12.4163
214 1 -1.1104 12.1526 -2.91189 9.41451
215 1 -1.1104 12.3096 2.67992 9.49526
216 1 -1.1104 12.3694 -0.255864 12.3446
217 2 2.2208 10.833 -1.42115 8.06121
219 1 -1.1104 12.2378 0.0879734 9.40722
220 1 -1.1104 9.27492 -2.78938 12.266
221 1 -1.1104 9.47171 2.87883 12.1303
222 2 2.2208 8.0482 1.27227 8.0064
223 1 -1.1104 9.49745 -2.94746 9.40494
224 1 -1.1104 9.3532 2.7092 9.43345
225 2 2.2208 8.05041 -1.46846 10.787
227 1 -1.1104 9.54616 -0.0772371 12.2338
228 1 -1.1104 9.51951 -0.0519988 9.43654
218 2 2.2208 10.8053 4.0504 8.15922
226 2 2.2208 7.99091 4.28035 10.8983
199 2 2.2208 -0.545749 4.15841 8.20281
331 2 2.2208 13.6802 9.7205 5.18162
136 2 2.2208 -0.370337 20.9336 2.48652
81 2 2.2208 -0.401866 6.92871 5.19375
239 1 -1.1104 3.71242 5.45781 6.71356
238 1 -1.1104 3.77454 8.50669 6.90092
370 2 2.2208 2.50032 20.9322 -0.330294
713 2 2.2208 -0.329289 18.0481 -0.194555
234 1 -1.1104 1.09364 8.28941 6.7257
236 1 -1.1104 1.02623 5.58797 6.5268
240 2 2.2208 5.15897 7.01411 10.9913
241 2 2.2208 5.27416 12.5676 10.8446
242 1 -1.1104 0.920847 8.27617 12.458
244 1 -1.1104 1.11597 8.32219 9.52128
246 1 -1.1104 1.11597 5.64184 12.3216
247 1 -1.1104 1.06432 11.0746 12.4088
250 2 2.2208 5.27836 9.86239 8.21772
251 1 -1.1104 0.855111 5.4789 9.50242
252 1 -1.1104 1.06761 11.1004 9.57909
255 1 -1.1104 3.73632 8.30739 12.1628
256 2 2.2208 2.39619 6.91506 8.11438
257 2 2.2208 2.43677 12.662 8.25694
258 1 -1.1104 3.93941 8.48893 9.48489
259 2 2.2208 2.51838 9.76296 10.9039
260 1 -1.1104 3.81734 5.39063 12.2492
261 1 -1.1104 3.89887 11.1039 12.2274
262 1 -1.1104 3.7934 5.7406 9.45192
263 1 -1.1104 3.70976 11.2346 9.44229
254 1 -1.1104 6.66715 11.1859 9.61925
243 1 -1.1104 6.77551 8.24201 12.2498
50 2 2.2208 13.7375 -1.45522 5.25334
265 1 -1.1104 12.3018 8.26211 6.70223
235 1 -1.1104 6.57473 8.45799 6.57891
269 1 -1.1104 9.45408 5.57845 6.79991
101 1 -1.1104 9.67625 11.2154 6.52525
266 1 -1.1104 12.1742 5.50017 6.50588
65 1 -1.1104 6.71345 11.1482 6.8676
90 1 -1.1104 12.2894 11.0181 6.6759
267 1 -1.1104 9.469 8.35783 6.77007
253 1 -1.1104 6.48422 5.56544 9.49078
245 1 -1.1104 6.72955 8.47728 9.56681
248 1 -1.1104 6.56825 5.52693 12.3956
249 1 -1.1104 6.67244 11.0906 12.3309
264 1 -1.1104 9.52106 11.3134 9.37174
268 1 -1.1104 9.30319 5.64997 9.53015
270 1 -1.1104 9.53818 11.1437 12.2367
271 1 -1.1104 9.36306 5.69935 12.2214
272 2 2.2208 8.14172 9.73782 10.91
273 1 -1.1104 9.44169 8.42583 9.54578
274 2 2.2208 8.08734 12.5435 8.08646
275 2 2.2208 7.9276 6.9925 8.15831
276 2 2.2208 10.844 6.969 10.9511
277 2 2.2208 10.956 12.5537 10.8815
278 1 -1.1104 12.3447 8.19711 12.4348
279 1 -1.1104 12.2532 8.32493 9.57049
280 1 -1.1104 12.2546 5.47124 12.2423
281 1 -1.1104 12.3155 11.0946 12.2753
282 2 2.2208 10.981 9.78648 8.09618
283 1 -1.1104 12.2929 5.42621 9.37038
284 1 -1.1104 12.3076 11.1013 9.49821
285 1 -1.1104 9.51228 8.32779 12.3963
124 1 -1.1104 3.96135 13.9045 6.73977
25 2 2.2208 -0.564388 -1.46022 2.56884
135 2 2.2208 -0.432366 15.2211 2.61201
289 1 -1.1104 6.63725 16.8905 9.47885
302 1 -1.1104 1.14454 19.5413 6.76965
313 2 2.2208 -0.392138 15.3639 8.27838
334 2 2.2208 13.7402 15.346 -0.318181
149 1 -1.1104 12.2866 16.5745 6.76581
309 2 2.2208 2.51812 20.8777 10.8395
304 1 -1.1104 3.83441 16.6544 9.57763
299 1 -1.1104 0.956774 14.0514 12.2171
303 2 2.2208 2.5306 18.1476 8.22557
310 2 2.2208 2.46931 15.3423 10.9873
308 1 -1.1104 3.85385 16.8311 12.3043
307 1 -1.1104 1.10555 16.7803 12.3642
305 1 -1.1104 3.85902 13.9526 9.47581
295 2 2.2208 5.28139 15.4206 8.06092
294 1 -1.1104 1.08749 13.9947 9.47665
300 2 2.2208 5.34681 18.2561 10.9438
301 1 -1.1104 3.97061 19.6467 9.54043
298 1 -1.1104 1.16948 19.5325 12.2831
286 1 -1.1104 4.00068 19.5511 12.3519
287 1 -1.1104 3.80474 13.9073 12.1507
291 1 -1.1104 1.10123 19.5667 9.44354
292 1 -1.1104 1.06378 16.8267 9.52437
293 2 2.2208 5.294 21.0249 8.12326
111 1 -1.1104 6.64733 14.1235 6.62263
296 1 -1.1104 6.78423 19.5453 12.1462
318 1 -1.1104 9.58283 19.571 9.55203
326 1 -1.1104 12.2712 16.7846 12.2826
314 1 -1.1104 9.47536 16.7777 9.46588
324 2 2.2208 10.9559 21.0901 8.12396
319 1 -1.1104 9.67885 13.9078 9.53829
322 1 -1.1104 9.41678 14.0478 12.3462
290 1 -1.1104 6.76095 13.9894 9.52714
163 1 -1.1104 9.42593 16.8947 6.82253
154 1 -1.1104 9.38598 13.9667 6.70396
143 1 -1.1104 12.2668 13.904 6.67163
288 1 -1.1104 6.72964 19.76 9.50068
156 1 -1.1104 9.62963 19.6718 6.61745
145 1 -1.1104 12.3717 19.5601 6.6911
317 2 2.2208 8.09608 15.4314 10.9011
320 2 2.2208 8.06263 18.302 8.04361
325 2 2.2208 10.8668 15.3538 8.13508
306 1 -1.1104 6.7673 16.6627 12.3029
315 1 -1.1104 9.5189 16.7854 12.2099
233 1 -1.1104 12.3528 13.8312 12.4002
204 2 2.2208 11.0132 18.1485 10.7416
316 2 2.2208 8.26552 21.0654 10.9579
297 1 -1.1104 6.60441 13.8537 12.3839
328 1 -1.1104 12.3576 13.9304 9.45638
330 2 2.2208 13.6793 4.06514 5.36248
17412 2 2.2208 13.7689 -4.34431 8.04355
232 2 2.2208 13.6759 4.08541 10.7733
380 2 2.2208 -0.339005 6.88072 -0.335188
311 2 2.2208 -0.213327 20.9722 8.06157
105 2 2.2208 13.7482 6.99982 2.5941
377 2 2.2208 2.46265 9.59068 -0.342973
362 2 2.2208 2.45389 -1.31348 -0.317904
348 2 2.2208 2.26505 6.99485 13.811
352 2 2.2208 10.8358 9.68007 13.6961
351 2 2.2208 8.05228 7.01244 13.7871
368 2 2.2208 2.47896 15.3623 -0.263718
338 2 2.2208 13.6641 12.4536 13.7208
371 2 2.2208 7.86544 -1.47027 -0.447266
341 2 2.2208 10.8525 18.2004 -0.282823
383 2 2.2208 10.8194 12.5347 -0.293704
384 2 2.2208 5.16715 1.40251 16.4416
385 1 -1.1104 0.887682 -3.10548 17.9729
386 1 -1.1104 1.01357 2.75849 17.8361
389 1 -1.1104 1.08367 -2.92677 15.136
391 1 -1.1104 1.08566 2.67315 15.1534
397 1 -1.1104 1.04262 -0.157841 17.8529
399 2 2.2208 5.17783 -1.42569 19.1422
400 2 2.2208 5.20288 3.97187 19.2404
401 1 -1.1104 0.981881 -0.106959 14.9117
405 1 -1.1104 3.62029 -2.90803 17.8886
406 1 -1.1104 3.77372 2.64731 17.8898
407 2 2.2208 2.3535 1.36767 19.3425
408 1 -1.1104 3.77979 -2.80922 15.1157
410 1 -1.1104 3.84475 2.88243 15.1344
412 2 2.2208 2.42081 -1.42983 16.4115
413 2 2.2208 2.38612 4.10799 16.3328
414 1 -1.1104 3.78466 -0.073625 17.7554
415 1 -1.1104 3.6578 -0.0312064 15.0553
339 2 2.2208 5.20626 4.16869 13.673
392 1 -1.1104 0.954892 2.68776 20.7897
355 2 2.2208 5.38981 21.0326 13.6421
409 1 -1.1104 3.80003 -2.80592 20.6318
416 1 -1.1104 3.87793 -0.0892523 20.6415
398 1 -1.1104 6.52507 0.061184 17.7958
8573 2 2.2208 7.91591 -4.22154 24.9013
337 2 2.2208 2.46473 1.30405 13.6765
359 2 2.2208 8.06132 18.2099 13.6698
350 2 2.2208 2.53715 12.4808 13.6968
336 2 2.2208 5.0849 -1.44789 13.6766
357 2 2.2208 11.0363 20.9714 13.7564
8612 2 2.2208 10.835 -4.32362 16.5774
395 1 -1.1104 6.57714 2.83755 15.158
563 1 -1.1104 12.2102 13.8358 20.7333
393 1 -1.1104 6.60424 -2.76099 15.1594
387 1 -1.1104 6.48513 -2.91605 17.8533
388 1 -1.1104 6.51554 2.64731 17.9159
403 1 -1.1104 6.63418 0.103737 14.9878
427 2 2.2208 10.8587 1.24071 16.5046
428 1 -1.1104 12.2843 -2.84166 17.9369
429 1 -1.1104 12.1278 2.78192 18.0896
430 1 -1.1104 12.2467 -2.86712 15.2274
432 1 -1.1104 12.2842 2.53869 15.2157
434 1 -1.1104 12.2016 -0.190336 17.8411
435 2 2.2208 10.7634 -1.45044 19.3921
436 2 2.2208 10.8099 4.09713 19.364
437 1 -1.1104 12.1751 -0.17499 15.1219
439 1 -1.1104 9.24571 -2.80619 17.8553
440 1 -1.1104 9.48299 2.75583 17.8265
441 2 2.2208 8.08045 1.34911 19.3921
442 1 -1.1104 9.67099 -2.97843 15.1945
444 1 -1.1104 9.44821 2.52127 14.9354
446 2 2.2208 7.88684 -1.42355 16.5811
447 2 2.2208 8.15675 4.07594 16.4829
448 1 -1.1104 9.5191 0.0591678 18.0353
449 1 -1.1104 9.31143 -0.178915 15.0835
438 1 -1.1104 12.2219 -0.157677 20.709
433 1 -1.1104 12.2133 2.65501 20.7539
450 1 -1.1104 9.44604 -0.0137401 20.7769
8610 2 2.2208 7.96784 -4.32726 19.2991
8614 2 2.2208 2.40128 -4.29787 19.2642
460 2 2.2208 5.16203 6.97247 16.4623
461 2 2.2208 5.27093 12.5214 16.4238
462 1 -1.1104 0.864508 8.33261 17.979
464 1 -1.1104 0.982291 8.33856 15.2606
468 1 -1.1104 1.02508 5.50286 17.8617
469 1 -1.1104 1.0074 11.2411 17.9185
472 2 2.2208 5.33102 9.69147 19.3155
473 1 -1.1104 1.02222 5.65655 15.1294
475 1 -1.1104 0.90293 11.0742 15.1544
481 1 -1.1104 3.84885 8.37629 17.9485
482 2 2.2208 2.31354 6.80888 19.2432
483 2 2.2208 2.3215 12.4297 19.3364
484 1 -1.1104 3.70916 8.45132 15.0115
486 2 2.2208 2.41098 9.90319 16.5001
487 1 -1.1104 3.76348 5.53173 17.8268
488 1 -1.1104 3.85007 11.1009 17.9193
489 1 -1.1104 3.64177 5.7168 15.084
491 1 -1.1104 3.84524 11.1884 15.213
615 2 2.2208 10.8944 18.1389 22.0631
8629 2 2.2208 5.27903 -4.36158 16.4034
477 1 -1.1104 6.60728 5.58855 15.0946
471 1 -1.1104 6.70467 11.1198 18.0328
8575 2 2.2208 2.54651 -4.22045 25.016
463 1 -1.1104 6.62946 8.38706 17.8082
470 1 -1.1104 6.70326 5.46373 17.8431
466 1 -1.1104 6.52643 8.4516 15.1279
479 1 -1.1104 6.87075 11.1177 15.0745
496 2 2.2208 10.9187 6.89786 16.485
497 2 2.2208 10.9179 12.4553 16.3322
498 1 -1.1104 12.2655 8.27495 17.8547
499 1 -1.1104 12.2992 8.21472 15.0019
501 1 -1.1104 12.2302 5.49223 17.9002
502 1 -1.1104 12.3386 11.0039 17.8004
503 2 2.2208 10.8734 9.63601 19.292
504 1 -1.1104 12.1559 5.50099 15.0826
506 1 -1.1104 12.2532 11.0557 15.1013
508 1 -1.1104 9.42756 8.3171 17.843
509 2 2.2208 8.09971 6.79947 19.1993
510 2 2.2208 8.1052 12.5428 19.2772
511 1 -1.1104 9.35934 8.29727 15.2323
513 2 2.2208 7.96895 9.62142 16.5323
514 1 -1.1104 9.51964 5.43343 17.7647
515 1 -1.1104 9.56788 11.1104 17.9403
516 1 -1.1104 9.37419 5.39962 14.903
518 1 -1.1104 9.56336 10.9856 15.1088
500 1 -1.1104 12.2816 8.17675 20.884
353 2 2.2208 8.09888 12.5137 13.7389
618 2 2.2208 13.7415 20.8206 16.6448
456 2 2.2208 -0.421045 4.03439 19.3179
584 1 -1.1104 9.54052 19.6129 26.4126
8574 2 2.2208 10.754 -4.26148 22.2025
523 2 2.2208 5.34067 18.2076 16.4702
524 1 -1.1104 0.964006 13.9603 18.0319
525 1 -1.1104 1.1332 19.4136 17.9544
528 1 -1.1104 1.15953 13.8139 15.1478
530 1 -1.1104 1.10182 19.6782 15.1853
536 1 -1.1104 0.840926 16.7146 18.0106
538 2 2.2208 5.25368 15.2871 19.2164
539 2 2.2208 5.22619 20.9555 19.3327
540 1 -1.1104 1.00047 16.8498 15.195
544 1 -1.1104 3.71156 13.8341 17.7832
545 1 -1.1104 3.97779 19.5113 17.9269
546 2 2.2208 2.4581 17.9749 19.3128
547 1 -1.1104 3.85395 14.0008 14.9796
549 1 -1.1104 4.00219 19.6726 15.1413
551 2 2.2208 2.28783 15.4885 16.5677
552 2 2.2208 2.55265 21.0886 16.5158
553 1 -1.1104 3.84095 16.6738 17.907
554 1 -1.1104 3.80981 16.8417 15.146
555 1 -1.1104 3.87809 16.5349 20.7909
9250 2 2.2208 13.6416 18.2908 24.9124
527 1 -1.1104 6.69485 19.6905 17.9147
541 1 -1.1104 1.07106 16.6668 20.7855
356 2 2.2208 5.20046 15.3365 13.626
493 1 -1.1104 12.3178 19.604 26.4396
532 1 -1.1104 6.73053 13.9521 15.2677
534 1 -1.1104 6.8722 19.6634 15.0102
526 1 -1.1104 6.6747 13.8878 17.9411
537 1 -1.1104 6.81641 16.8361 17.807
542 1 -1.1104 6.58806 16.7493 15.0316
559 2 2.2208 10.8266 18.1468 16.4878
560 1 -1.1104 12.347 13.9547 17.9318
561 1 -1.1104 12.3832 19.6648 18.0679
562 1 -1.1104 12.18 13.8465 15.1457
564 1 -1.1104 12.3734 19.4395 15.1476
566 1 -1.1104 12.2067 16.8024 17.9602
567 2 2.2208 10.8231 15.2865 19.281
568 2 2.2208 10.787 20.9998 19.3786
569 1 -1.1104 12.3649 16.7614 15.076
571 1 -1.1104 9.48665 13.9157 17.8755
572 1 -1.1104 9.64737 19.5581 17.806
573 2 2.2208 8.08753 18.217 19.1913
574 1 -1.1104 9.503 13.9139 14.9773
576 1 -1.1104 9.62895 19.5394 15.1461
578 2 2.2208 8.1367 15.4249 16.4394
579 2 2.2208 8.20201 21.0289 16.4966
580 1 -1.1104 9.46039 16.6918 17.8559
581 1 -1.1104 9.34363 16.8578 15.1333
575 1 -1.1104 9.49565 14.0191 20.7426
543 1 -1.1104 6.65365 16.6241 20.6774
17576 2 2.2208 13.6855 -4.30668 19.2665
419 2 2.2208 13.73 9.71754 22.1343
585 2 2.2208 8.02791 15.2302 22.1545
522 1 -1.1104 9.42604 13.855 23.5503
402 1 -1.1104 1.07365 -0.0394996 20.8164
390 1 -1.1104 1.01498 -2.90003 20.8377
411 1 -1.1104 3.77159 2.73832 20.6447
616 2 2.2208 -0.449102 15.3528 19.4041
587 2 2.2208 5.24103 1.23081 22.1697
588 1 -1.1104 1.12815 -2.7342 23.5726
589 1 -1.1104 1.0703 2.75215 23.5741
592 1 -1.1104 1.06006 -2.75102 26.2173
593 1 -1.1104 1.02899 2.73227 26.3042
596 1 -1.1104 1.09323 0.0450562 23.5002
598 2 2.2208 5.18561 -1.36011 24.9768
600 1 -1.1104 0.9442 -0.0689617 26.3705
602 1 -1.1104 3.92441 -2.87488 23.5722
603 1 -1.1104 3.88188 2.56244 23.4939
604 2 2.2208 2.42653 1.32655 24.9137
605 1 -1.1104 3.73396 -2.71448 26.2855
606 1 -1.1104 3.8669 2.86023 26.2861
607 2 2.2208 2.41207 -1.59027 22.0919
609 1 -1.1104 3.80045 -0.180609 23.4721
610 1 -1.1104 3.6832 0.128838 26.3478
599 2 2.2208 5.37224 4.17024 24.9697
608 2 2.2208 2.36939 4.16963 22.2028
644 1 -1.1104 12.1843 13.9345 23.6288
595 1 -1.1104 6.67754 2.59637 26.4582
590 1 -1.1104 6.62438 -2.91227 23.4603
597 1 -1.1104 6.60956 -0.0812209 23.5762
601 1 -1.1104 6.62271 0.0221875 26.3186
358 2 2.2208 10.9103 15.3476 13.7031
354 2 2.2208 2.52777 18.2066 13.7051
583 1 -1.1104 9.39296 14.0129 26.3343
570 1 -1.1104 12.1966 16.7337 20.7154
451 2 2.2208 13.6806 9.64265 16.5295
404 1 -1.1104 6.61465 -0.0636248 20.8004
445 1 -1.1104 9.48732 2.64041 20.7068
396 1 -1.1104 6.55509 2.767 20.6456
394 1 -1.1104 6.55917 -2.81832 20.5769
431 1 -1.1104 12.2817 -2.97848 20.9127
443 1 -1.1104 9.39384 -2.86893 20.7739
591 1 -1.1104 6.67001 2.73274 23.629
594 1 -1.1104 6.37055 -2.82324 26.3453
623 2 2.2208 10.8281 1.28897 22.2422
624 1 -1.1104 12.1524 -3.02828 23.5554
625 1 -1.1104 12.2463 2.60163 23.4804
626 1 -1.1104 12.1902 -2.87925 26.3312
627 1 -1.1104 12.2827 2.84334 26.3482
628 1 -1.1104 12.195 -0.144721 23.4606
629 2 2.2208 10.9206 -1.57301 24.8911
631 1 -1.1104 12.0848 0.0105977 26.207
632 1 -1.1104 9.33707 -2.82264 23.4872
633 1 -1.1104 9.56047 2.71987 23.482
634 2 2.2208 8.12735 1.25568 24.9653
635 1 -1.1104 9.25859 -2.83305 26.2983
636 1 -1.1104 9.39529 2.69882 26.3091
637 2 2.2208 7.96386 -1.5977 22.1175
638 2 2.2208 8.03555 4.04662 22.1886
639 1 -1.1104 9.34917 -0.253084 23.585
640 1 -1.1104 9.49602 -0.198524 26.4612
630 2 2.2208 10.8423 4.18385 24.9386
521 1 -1.1104 12.2707 16.7789 26.2483
422 2 2.2208 -0.401237 9.7376 19.3815
614 1 -1.1104 12.2867 19.769 23.6042
474 1 -1.1104 0.876671 5.50322 20.5899
490 1 -1.1104 3.73663 5.4996 20.63
485 1 -1.1104 3.88679 8.34042 20.732
17545 2 2.2208 -0.322119 -4.36997 16.4893
492 1 -1.1104 3.87216 11.2367 20.59
465 1 -1.1104 1.12313 8.14262 20.6847
476 1 -1.1104 1.10732 10.9177 20.7468
418 2 2.2208 -0.36428 6.86255 22.1137
652 2 2.2208 5.28324 6.79065 22.0037
653 2 2.2208 5.19751 12.5168 22.1717
654 1 -1.1104 1.22359 8.22526 23.4352
656 1 -1.1104 1.10467 8.36596 26.2093
658 1 -1.1104 1.07502 5.52828 23.5585
659 1 -1.1104 1.0687 11.1544 23.5993
662 2 2.2208 5.32867 9.6735 24.8933
663 1 -1.1104 1.07072 5.61317 26.3659
664 1 -1.1104 1.05878 11.1729 26.311
667 1 -1.1104 3.85394 8.19294 23.5125
668 2 2.2208 2.36927 6.87347 24.9546
669 2 2.2208 2.43499 12.5212 25.0123
670 1 -1.1104 3.81913 8.12285 26.2816
671 2 2.2208 2.60613 9.69869 22.0283
672 1 -1.1104 3.8053 5.41411 23.4132
673 1 -1.1104 3.85073 11.0085 23.6458
674 1 -1.1104 3.92737 5.5716 26.3528
675 1 -1.1104 3.74596 10.9881 26.3823
507 1 -1.1104 12.1795 11.0366 20.7208
512 1 -1.1104 9.52908 8.38537 20.6524
480 1 -1.1104 6.674 11.1278 20.91
505 1 -1.1104 12.312 5.55116 20.6969
517 1 -1.1104 9.48626 5.54569 20.6219
666 1 -1.1104 6.51799 11.1064 26.4038
519 1 -1.1104 9.4397 11.0941 20.7106
478 1 -1.1104 6.84588 5.43179 20.6096
657 1 -1.1104 6.80373 8.33123 26.3122
467 1 -1.1104 6.749 8.40726 20.6036
660 1 -1.1104 6.70349 5.43579 23.5441
665 1 -1.1104 6.73644 5.5893 26.2426
661 1 -1.1104 6.6703 11.1968 23.6067
655 1 -1.1104 6.5886 8.15672 23.3973
683 1 -1.1104 9.43804 11.0942 26.2853
684 1 -1.1104 9.57541 5.53022 26.3235
685 1 -1.1104 9.48935 11.1005 23.6361
686 1 -1.1104 9.549 5.57416 23.5048
687 2 2.2208 8.20246 9.69195 22.1535
688 1 -1.1104 9.59466 8.33513 26.3358
689 2 2.2208 8.11333 12.4934 24.9963
690 2 2.2208 8.17558 6.89418 24.8701
691 2 2.2208 10.8382 6.75237 22.0394
692 2 2.2208 10.7792 12.4214 22.0415
693 1 -1.1104 12.2075 8.15345 23.6145
694 1 -1.1104 12.4686 8.43107 26.553
695 1 -1.1104 12.4193 5.50279 23.4923
696 1 -1.1104 12.4282 11.1266 23.457
697 2 2.2208 10.9168 9.61638 24.8777
698 1 -1.1104 12.2792 5.49971 26.3402
699 1 -1.1104 12.2284 11.0731 26.2647
700 1 -1.1104 9.44994 8.21904 23.4534
494 1 -1.1104 12.2778 16.7911 23.605
710 1 -1.1104 6.55653 16.8018 26.3474
550 1 -1.1104 3.79594 19.3735 20.8401
529 1 -1.1104 0.975377 13.8192 20.8526
531 1 -1.1104 1.07947 19.5926 20.6497
558 1 -1.1104 6.60035 19.4767 26.336
702 1 -1.1104 6.60651 14.0228 23.6449
586 2 2.2208 7.95566 20.8976 22.163
344 2 2.2208 8.09406 1.27726 13.5854
548 1 -1.1104 3.75609 13.8009 20.7313
9493 2 2.2208 13.7311 18.1595 19.4005
711 1 -1.1104 1.08069 19.4155 26.4735
709 1 -1.1104 3.90255 13.8264 23.4599
613 1 -1.1104 0.982362 16.6816 26.4861
641 2 2.2208 2.50223 15.2893 22.162
642 2 2.2208 2.49493 21.0477 22.2058
643 1 -1.1104 3.81726 16.6588 23.6159
647 1 -1.1104 1.10961 16.7425 23.8638
651 1 -1.1104 3.79309 13.9998 26.2518
676 1 -1.1104 3.90071 16.7157 26.5036
677 2 2.2208 2.41765 18.0991 25.0551
678 1 -1.1104 3.89911 19.4803 26.4104
679 2 2.2208 5.22855 18.1072 22.1466
682 1 -1.1104 0.933658 14.0189 23.5877
701 1 -1.1104 1.00793 19.4615 23.608
703 2 2.2208 5.20075 15.2619 24.9429
704 1 -1.1104 0.953364 14.043 26.4369
705 2 2.2208 5.25643 20.8669 25.015
707 1 -1.1104 3.79607 19.4244 23.6753
708 1 -1.1104 6.597 14.0313 26.3563
612 1 -1.1104 9.4531 16.7137 26.4441
535 1 -1.1104 6.61899 19.4683 20.6854
611 1 -1.1104 9.47418 16.6909 23.5456
645 1 -1.1104 6.62386 19.5244 23.5041
557 2 2.2208 8.06761 18.1127 24.9662
648 1 -1.1104 6.7451 16.7807 23.5162
520 2 2.2208 10.8522 21.1073 24.9953
459 1 -1.1104 12.1646 13.8833 26.2641
556 1 -1.1104 9.4396 19.5865 23.6317
565 1 -1.1104 12.3403 19.5931 20.7483
577 1 -1.1104 9.53865 19.5723 20.6823
533 1 -1.1104 6.74097 13.9526 20.9243
495 2 2.2208 10.8036 15.3636 25.006
582 1 -1.1104 9.4466 16.7646 20.6122
457 2 2.2208 13.6683 1.16386 19.2143
454 2 2.2208 -0.309064 18.2596 16.485
622 2 2.2208 -0.297718 4.03965 24.9073
617 2 2.2208 -0.342547 20.8851 19.4153
649 2 2.2208 13.6582 -1.453 22.08
620 2 2.2208 -0.303543 -1.41762 24.8609
420 2 2.2208 -0.419 1.31356 16.3455
453 2 2.2208 -0.43988 15.4513 13.725
9208 2 2.2208 -0.410208 20.7783 25.0032
425 2 2.2208 13.7234 12.5703 19.3824
367 2 2.2208 10.8338 1.24437 27.8553
365 2 2.2208 -0.367051 1.37481 27.661
8512 2 2.2208 5.21453 -4.36208 27.7991
349 2 2.2208 5.25518 9.68456 13.6872
381 2 2.2208 10.8817 6.96856 27.8843
8516 2 2.2208 2.46667 -4.34696 13.7242
347 2 2.2208 10.8898 4.11277 13.5976
340 2 2.2208 8.06433 15.3997 27.9058
373 2 2.2208 -0.424855 9.67659 13.7332
714 2 2.2208 5.41834 23.7213 5.38621
715 2 2.2208 5.28304 29.5441 5.2428
716 1 -1.1104 1.11098 25.2149 1.15647
717 1 -1.1104 0.976934 24.9534 3.78097
718 1 -1.1104 1.23485 22.3243 1.12382
719 1 -1.1104 0.980801 27.8701 1.08621
720 2 2.2208 5.52215 26.5051 2.62365
721 1 -1.1104 1.15061 22.1095 3.82914
722 1 -1.1104 1.31301 27.909 3.8546
723 1 -1.1104 3.99883 25.0638 1.03015
724 2 2.2208 2.58759 23.8312 2.47039
725 2 2.2208 2.5283 29.3133 2.49801
726 1 -1.1104 4.07373 25.2594 3.87718
727 2 2.2208 2.64005 26.5184 5.23917
728 1 -1.1104 3.89869 22.4152 1.0236
729 1 -1.1104 4.12899 27.8886 1.13165
730 1 -1.1104 4.03427 22.4048 3.85079
731 1 -1.1104 4.08498 27.9942 3.88355
858 1 -1.1104 1.26022 27.7667 6.58194
733 2 2.2208 -0.288747 23.6757 5.23351
740 1 -1.1104 6.78006 28.0869 3.87005
862 1 -1.1104 3.99717 22.3466 6.56496
857 1 -1.1104 1.0471 22.3292 6.63876
863 1 -1.1104 3.95188 28.2254 6.65932
1405 1 -1.1104 1.09721 47.6374 1.05228
737 1 -1.1104 6.86031 22.5739 1.09874
9787 2 2.2208 -0.245476 29.3341 5.18217
859 1 -1.1104 6.85262 22.3866 6.65225
945 2 2.2208 -0.411533 37.7467 8.0993
739 1 -1.1104 6.75137 22.1848 3.85547
736 1 -1.1104 6.79416 25.1564 3.92212
735 1 -1.1104 6.86607 25.2735 0.981484
756 1 -1.1104 7.17191 28.0788 1.04827
741 2 2.2208 11.023 23.7493 5.34505
742 2 2.2208 11.0221 29.3459 5.32672
743 1 -1.1104 12.433 25.2025 1.23144
744 1 -1.1104 12.4129 25.1028 4.07129
745 1 -1.1104 12.2024 22.4441 1.18361
746 1 -1.1104 12.371 28.0774 1.18071
747 2 2.2208 11.1369 26.5655 2.6633
748 1 -1.1104 12.4775 22.3402 3.94687
749 1 -1.1104 12.4813 27.945 3.87959
750 1 -1.1104 9.71005 25.5139 0.977013
751 2 2.2208 8.21762 23.7774 2.57168
752 2 2.2208 8.20427 29.4982 2.57747
753 1 -1.1104 9.52468 25.2206 3.86556
754 2 2.2208 8.1936 26.679 5.2546
755 1 -1.1104 9.55437 22.6109 0.97342
757 1 -1.1104 9.51574 22.4237 3.92786
758 1 -1.1104 9.55764 27.9568 3.58965
893 1 -1.1104 9.37732 28.0221 6.50791
856 1 -1.1104 6.89657 25.2791 6.79239
891 1 -1.1104 9.59388 25.2467 6.57693
890 1 -1.1104 12.3048 28.0743 6.64153
1074 2 2.2208 10.9696 23.8787 -0.329826
762 2 2.2208 5.11292 34.9857 5.36532
763 1 -1.1104 1.10425 30.7024 1.08506
764 1 -1.1104 0.910292 36.1228 1.01913
766 1 -1.1104 1.10687 30.6542 3.88587
767 1 -1.1104 1.19368 36.5435 3.83088
769 1 -1.1104 1.26594 33.4188 1.10466
770 2 2.2208 5.26031 32.2231 2.47152
771 2 2.2208 5.16994 37.8149 2.50516
772 1 -1.1104 1.08499 33.6528 3.69742
774 1 -1.1104 3.9413 30.5864 1.07888
775 1 -1.1104 3.72122 36.2249 1.00705
776 2 2.2208 2.47878 34.9871 2.47699
777 1 -1.1104 3.95153 30.8545 3.93116
778 1 -1.1104 3.83833 36.4275 3.96848
779 2 2.2208 2.34423 32.2125 5.39817
780 2 2.2208 2.5045 37.8107 5.20888
781 1 -1.1104 4.14449 33.4147 0.943372
782 1 -1.1104 3.78297 33.5781 3.86638
912 1 -1.1104 1.08839 30.7517 6.6576
916 1 -1.1104 0.945542 33.7831 6.64515
913 1 -1.1104 1.06862 36.5895 6.69903
786 1 -1.1104 6.66306 30.9024 1.24537
773 1 -1.1104 6.6689 33.6038 3.99947
768 1 -1.1104 6.6837 36.2473 3.92729
788 1 -1.1104 6.72753 33.751 1.18565
787 1 -1.1104 6.73428 30.9096 4.08926
765 1 -1.1104 6.4707 36.4075 1.18142
1073 2 2.2208 10.974 34.893 -0.162186
9780 2 2.2208 -0.282394 35.0797 5.13558
918 1 -1.1104 3.88127 30.8768 6.66926
915 1 -1.1104 6.43921 36.5144 6.63789
1402 2 2.2208 -0.303262 23.7851 -0.188182
789 2 2.2208 10.8559 34.938 5.36983
790 1 -1.1104 9.5311 30.836 1.12904
791 1 -1.1104 12.2906 36.4627 1.26715
792 1 -1.1104 12.2621 30.8375 3.56311
793 1 -1.1104 12.2137 36.3474 4.12201
794 1 -1.1104 12.4107 33.7251 1.24659
795 2 2.2208 10.8514 32.2541 2.55582
796 2 2.2208 10.8916 37.8175 2.52271
797 1 -1.1104 12.3421 33.6356 3.97293