ITEM: TIMESTEP
20000
ITEM: NUMBER OF ATOMS
17820
ITEM: BOX BOUNDS pp pp pp
-3.6113950249753268e-01 2.7701139502497895e+01
-4.2854894072979057e+00 3.3236548940729551e+02
-3.5905662773026592e-01 2.7699056627729906e+01
ITEM: ATOMS id type q x y z
1 2 2.2208 5.24857 1.25381 5.29226
2 1 -1.1104 1.03647 -2.89905 1.21715
3 1 -1.1104 1.14534 2.61235 1.0749
6 1 -1.1104 0.982227 -2.78609 4.06459
7 1 -1.1104 1.00827 2.72213 3.85063
10 1 -1.1104 1.02921 -0.1331 1.21182
12 2 2.2208 5.33941 -1.52689 2.56946
13 2 2.2208 5.07385 4.08508 2.57767
14 1 -1.1104 1.11653 -0.0619758 3.98335
16 1 -1.1104 3.83171 -2.92355 1.02589
17 1 -1.1104 3.88247 2.67158 1.26516
18 2 2.2208 2.45275 1.23627 2.62248
19 1 -1.1104 3.75869 -2.93635 3.96158
20 1 -1.1104 3.69245 2.72216 4.02806
21 2 2.2208 2.52193 -1.49936 5.35593
22 2 2.2208 2.44733 4.06736 5.30821
23 1 -1.1104 3.8398 -0.0596181 1.12005
24 1 -1.1104 3.95362 -0.0667821 3.89683
173 1 -1.1104 3.93197 2.76069 6.66456
8501 2 2.2208 10.9374 -4.32123 5.38322
381 2 2.2208 10.8528 6.89481 -0.342564
171 1 -1.1104 6.77129 -0.189391 6.72154
27 2 2.2208 -0.316674 4.08342 2.51394
199 2 2.2208 -0.179446 4.02257 8.12771
170 1 -1.1104 1.12259 -0.15369 6.90216
8500 2 2.2208 8.09653 -4.40042 2.50508
369 2 2.2208 5.26855 18.1253 -0.259633
137 2 2.2208 -0.266739 18.039 5.22514
17415 2 2.2208 -0.341132 -4.27327 5.40955
8 1 -1.1104 6.51454 -3.01986 4.0248
11 1 -1.1104 6.67195 -0.0415791 1.23874
169 1 -1.1104 6.70526 2.588 6.6751
4 1 -1.1104 6.62299 -2.82133 1.25957
5 1 -1.1104 6.69816 2.59526 1.06756
15 1 -1.1104 6.69778 -0.231066 4.01407
9 1 -1.1104 6.44669 2.57204 3.88767
31 2 2.2208 10.9123 1.27798 5.16831
32 1 -1.1104 12.4739 -2.86966 1.13867
33 1 -1.1104 12.1652 2.77539 1.05105
34 1 -1.1104 12.3837 -2.87708 3.95162
35 1 -1.1104 12.3218 2.77986 3.77047
36 1 -1.1104 12.1352 -0.107484 0.898282
37 2 2.2208 10.844 -1.59201 2.47779
38 2 2.2208 10.8496 4.10282 2.35855
39 1 -1.1104 12.2749 -0.108085 3.78757
40 1 -1.1104 9.62869 -2.92616 1.01705
41 1 -1.1104 9.62471 2.75843 1.06019
42 2 2.2208 8.09731 1.28781 2.56159
43 1 -1.1104 9.49605 -2.94064 3.87487
44 1 -1.1104 9.38968 2.74723 3.91085
45 2 2.2208 8.03155 -1.66734 5.40299
46 2 2.2208 8.00818 4.0671 5.31685
47 1 -1.1104 9.42102 -0.0596085 1.13118
48 1 -1.1104 9.4634 -0.201828 3.82696
206 1 -1.1104 12.302 2.77329 6.7873
210 1 -1.1104 9.45917 -0.0899436 6.65155
372 2 2.2208 8.17608 4.03873 -0.328299
289 1 -1.1104 6.48941 16.6315 9.52965
8502 2 2.2208 2.38397 -4.46233 8.29068
54 2 2.2208 5.29233 6.86833 5.39879
55 2 2.2208 5.23196 12.4444 5.44357
56 1 -1.1104 1.18878 8.27721 1.27078
58 1 -1.1104 0.989436 8.27163 3.9446
60 1 -1.1104 1.06231 5.48951 1.11439
61 1 -1.1104 1.04482 11.056 1.16165
66 2 2.2208 5.26378 9.54539 2.59911
67 1 -1.1104 0.938959 5.54678 3.86518
68 1 -1.1104 1.22364 10.9995 3.87313
71 1 -1.1104 3.96948 8.39772 1.02478
72 2 2.2208 2.41839 6.98601 2.57949
73 2 2.2208 2.55986 12.4476 2.55072
74 1 -1.1104 3.84691 8.29543 3.95834
75 2 2.2208 2.56069 9.62385 5.27996
76 1 -1.1104 3.71781 5.60188 1.15411
77 1 -1.1104 3.77725 11.1927 1.09839
79 1 -1.1104 3.71687 5.68894 4.0997
80 1 -1.1104 4.03627 10.9361 3.81697
230 2 2.2208 13.7482 -1.62628 10.8984
57 1 -1.1104 6.68142 8.189 0.992233
380 2 2.2208 -0.247327 6.82932 -0.0903243
8499 2 2.2208 5.38881 -4.43227 5.47965
362 2 2.2208 2.46331 -1.41678 -0.211567
59 1 -1.1104 6.56298 8.1724 3.87936
64 1 -1.1104 6.66002 10.8953 1.08903
70 1 -1.1104 6.81681 10.9718 4.0094
63 1 -1.1104 6.51926 5.37121 1.17664
69 1 -1.1104 6.51443 5.51031 4.00859
84 2 2.2208 10.812 6.84766 5.1266
85 2 2.2208 10.8316 12.4938 5.10986
86 1 -1.1104 12.3273 8.31797 1.02968
87 1 -1.1104 12.1656 8.33562 3.72219
88 1 -1.1104 12.1965 5.57643 1.10379
89 1 -1.1104 12.1954 11.1208 0.918278
91 2 2.2208 10.9831 9.69713 2.40669
92 1 -1.1104 12.4426 5.504 3.83359
93 1 -1.1104 12.3117 11.0611 3.92402
94 1 -1.1104 9.58491 8.25978 1.01043
95 2 2.2208 7.94516 6.88411 2.39786
96 2 2.2208 8.09888 12.4613 2.45954
97 1 -1.1104 9.30685 8.1886 3.83216
98 2 2.2208 8.19998 9.60614 5.30166
99 1 -1.1104 9.42732 5.52666 0.93455
100 1 -1.1104 9.48328 11.1517 0.962626
102 1 -1.1104 9.35481 5.55296 3.66006
103 1 -1.1104 9.61458 11.1068 3.8357
265 1 -1.1104 12.4336 8.21367 6.67555
235 1 -1.1104 6.70708 8.2344 6.70979
90 1 -1.1104 12.2176 11.1046 6.68132
314 1 -1.1104 9.34147 16.4895 9.30904
266 1 -1.1104 12.25 5.41241 6.67216
237 1 -1.1104 6.75569 5.5076 6.74678
311 2 2.2208 -0.235084 21.0467 8.24905
363 2 2.2208 2.32425 4.10623 -0.230632
106 2 2.2208 5.25915 18.0784 5.18717
107 1 -1.1104 1.12322 13.9319 1.13125
109 1 -1.1104 1.17442 19.6374 1.10456
113 1 -1.1104 1.18617 13.787 3.99172
114 1 -1.1104 1.06383 19.4917 3.83968
116 1 -1.1104 1.08776 16.7449 1.10836
119 2 2.2208 5.29992 15.1758 2.44595
120 2 2.2208 5.46188 20.8652 2.47852
121 1 -1.1104 1.07716 16.6079 3.93039
123 1 -1.1104 4.03083 13.9208 1.09733
125 1 -1.1104 3.97456 19.4849 1.08524
127 2 2.2208 2.47679 17.896 2.50242
128 1 -1.1104 3.96703 13.8588 3.83953
129 1 -1.1104 3.75286 19.501 3.85143
130 2 2.2208 2.51518 15.2677 5.33439
131 2 2.2208 2.52983 20.7718 5.19279
132 1 -1.1104 3.81296 16.5979 1.09773
134 1 -1.1104 3.69529 16.5052 3.8657
8498 2 2.2208 2.50697 -4.233 2.61147
122 1 -1.1104 6.61702 16.6331 3.93799
318 1 -1.1104 9.59161 19.2917 9.44374
321 1 -1.1104 9.48926 19.4633 12.2704
117 1 -1.1104 1.07197 16.7778 6.8796
126 1 -1.1104 3.8983 19.4004 6.7933
376 2 2.2208 5.27357 6.82075 -0.386631
52 2 2.2208 -0.432028 12.4188 10.8954
110 1 -1.1104 6.76749 13.7498 1.05368
138 1 -1.1104 6.76926 19.5428 1.06157
140 1 -1.1104 6.57466 16.5653 1.04197
115 1 -1.1104 6.72729 13.8617 3.86726
139 1 -1.1104 6.64256 19.4301 3.87248
141 2 2.2208 10.8328 18.1106 5.22459
142 1 -1.1104 12.1895 13.8447 1.03132
144 1 -1.1104 12.3024 19.2111 1.07277
146 1 -1.1104 12.201 13.8714 3.71584
147 1 -1.1104 12.2221 19.4852 3.86558
148 1 -1.1104 12.2564 16.6139 1.04946
150 2 2.2208 10.7571 15.3676 2.41437
151 2 2.2208 10.866 20.8108 2.48559
152 1 -1.1104 12.1694 16.6971 3.75077
153 1 -1.1104 9.5051 14.0734 0.98371
155 1 -1.1104 9.46632 19.5033 0.927436
157 2 2.2208 8.21453 18.0696 2.40094
158 1 -1.1104 9.50391 13.9724 3.92571
159 1 -1.1104 9.4132 19.4274 3.8963
160 2 2.2208 8.00279 15.205 5.33495
161 2 2.2208 8.10949 20.8343 5.37097
162 1 -1.1104 9.36632 16.7431 0.891545
164 1 -1.1104 9.46101 16.6652 3.76099
163 1 -1.1104 9.43865 16.6635 6.52997
156 1 -1.1104 9.46969 19.4023 6.69727
313 2 2.2208 -0.210602 15.2546 8.14821
112 1 -1.1104 6.71609 19.4262 6.67843
26 2 2.2208 -0.282233 1.24543 5.39156
81 2 2.2208 -0.405335 6.85626 5.30376
105 2 2.2208 13.757 6.90159 2.47154
370 2 2.2208 2.60543 20.8192 -0.286147
174 1 -1.1104 3.89291 -0.083868 6.5488
167 1 -1.1104 1.26363 2.59996 6.70782
172 1 -1.1104 3.82363 -2.87017 7.01418
166 1 -1.1104 1.03828 -3.05813 6.84689
175 2 2.2208 5.23899 1.27315 11.0853
176 1 -1.1104 1.0799 -2.8474 12.3179
177 1 -1.1104 1.02416 2.68263 12.4156
180 1 -1.1104 1.09783 -3.13445 9.71555
181 1 -1.1104 1.20709 2.66938 9.5445
184 1 -1.1104 1.03901 -0.0620037 12.3977
186 2 2.2208 5.29713 -1.5607 8.21023
187 2 2.2208 5.27255 4.08257 8.16565
188 1 -1.1104 1.10377 -0.223298 9.54951
190 1 -1.1104 3.8183 -2.88927 12.5928
191 1 -1.1104 3.82903 2.68101 12.3458
192 2 2.2208 2.58542 1.30974 8.07089
193 1 -1.1104 3.97439 -2.90715 9.66859
194 1 -1.1104 4.00495 2.59135 9.44925
195 2 2.2208 2.54906 -1.68956 10.9475
196 2 2.2208 2.50206 4.07173 10.983
197 1 -1.1104 3.6857 -0.115852 12.378
198 1 -1.1104 3.99203 -0.0718322 9.52759
185 1 -1.1104 6.45099 -0.0671426 12.4414
200 2 2.2208 -0.219945 -1.69885 8.2476
312 2 2.2208 -0.3745 18.1119 10.9492
207 1 -1.1104 12.2622 0.110869 6.60679
205 1 -1.1104 12.1769 -2.85344 6.7383
209 1 -1.1104 9.44513 2.73638 6.67759
364 2 2.2208 8.0625 20.9297 -0.393594
179 1 -1.1104 6.80052 2.5689 12.1326
168 1 -1.1104 6.66921 -2.9792 6.85817
208 1 -1.1104 9.46913 -2.9 6.67986
183 1 -1.1104 6.64848 2.668 9.50222
189 1 -1.1104 6.58126 -0.27309 9.54843
178 1 -1.1104 6.59648 -2.83426 12.4167
182 1 -1.1104 6.84164 -2.92838 9.6625
211 2 2.2208 10.9504 1.38207 10.901
212 1 -1.1104 12.3064 -2.94347 12.3428
213 1 -1.1104 12.2818 2.64577 12.2986
214 1 -1.1104 12.3702 -2.83574 9.49249
215 1 -1.1104 12.2935 2.61482 9.55206
216 1 -1.1104 12.1841 -0.0598883 12.2891
217 2 2.2208 10.8016 -1.38452 8.03906
219 1 -1.1104 12.3481 -0.123111 9.50896
220 1 -1.1104 9.33094 -2.94569 12.2533
221 1 -1.1104 9.43198 2.55838 12.2829
222 2 2.2208 8.07163 1.22339 8.04001
223 1 -1.1104 9.61054 -2.71066 9.48439
224 1 -1.1104 9.49317 2.73084 9.29728
225 2 2.2208 8.04094 -1.42026 10.9953
226 2 2.2208 8.14834 4.05293 10.883
227 1 -1.1104 9.40655 -0.265422 12.3454
228 1 -1.1104 9.43464 0.042746 9.59588
218 2 2.2208 10.9078 4.05987 7.98302
320 2 2.2208 8.12516 18.0142 8.11209
204 2 2.2208 10.9086 17.9785 10.821
238 1 -1.1104 3.88246 8.23467 6.7755
234 1 -1.1104 1.08528 8.27925 6.83265
236 1 -1.1104 1.13169 5.45228 6.66694
319 1 -1.1104 9.44538 13.8768 9.46228
29 2 2.2208 -0.310927 6.81024 10.8996
51 2 2.2208 -0.298483 9.77589 8.07495
78 1 -1.1104 3.81137 10.982 6.72601
62 1 -1.1104 1.07732 11.1211 6.76319
239 1 -1.1104 3.83002 5.51457 6.82458
382 2 2.2208 8.09382 9.64291 -0.429443
240 2 2.2208 5.25727 6.83102 10.9186
241 2 2.2208 5.42209 12.5452 10.9252
242 1 -1.1104 1.01735 8.34417 12.3586
244 1 -1.1104 1.06625 8.13047 9.63431
246 1 -1.1104 1.14596 5.48485 12.4008
247 1 -1.1104 1.02232 11.1599 12.2147
250 2 2.2208 5.28408 9.54511 8.18138
251 1 -1.1104 1.27765 5.47301 9.53357
252 1 -1.1104 1.12355 11.0566 9.70027
255 1 -1.1104 3.9332 8.25295 12.3051
256 2 2.2208 2.55127 6.756 8.12402
257 2 2.2208 2.46255 12.3371 8.15296
258 1 -1.1104 3.83793 8.08358 9.54147
259 2 2.2208 2.50331 9.59305 10.9071
260 1 -1.1104 3.92934 5.51407 12.3489
261 1 -1.1104 3.95305 11.0219 12.3345
262 1 -1.1104 3.8611 5.42301 9.52384
263 1 -1.1104 3.94937 10.8989 9.52286
101 1 -1.1104 9.41046 11.0936 6.60448
65 1 -1.1104 6.62386 11.0167 6.72756
267 1 -1.1104 9.55117 8.33228 6.59378
243 1 -1.1104 6.75364 8.14462 12.2851
269 1 -1.1104 9.44329 5.55542 6.63076
245 1 -1.1104 6.71655 8.32715 9.58877
254 1 -1.1104 6.73488 11.1329 9.56172
253 1 -1.1104 6.5583 5.40264 9.57205
248 1 -1.1104 6.77622 5.49867 12.328
249 1 -1.1104 6.65402 10.9459 12.2474
264 1 -1.1104 9.43166 11.0243 9.492
268 1 -1.1104 9.47948 5.48184 9.4002
270 1 -1.1104 9.42061 11.0756 12.0621
271 1 -1.1104 9.65466 5.43952 12.3736
272 2 2.2208 8.08345 9.58413 10.9116
273 1 -1.1104 9.58028 8.23971 9.37289
274 2 2.2208 7.97492 12.5678 8.11987
275 2 2.2208 8.17782 6.90513 8.07913
276 2 2.2208 10.8563 6.8855 10.9009
277 2 2.2208 11.0103 12.4798 10.7858
278 1 -1.1104 12.2633 8.26378 12.2622
279 1 -1.1104 12.2485 8.33493 9.57922
280 1 -1.1104 12.3572 5.3409 12.376
281 1 -1.1104 12.3535 11.0228 12.2177
282 2 2.2208 10.8684 9.67765 8.03661
283 1 -1.1104 12.0372 5.41403 9.4688
284 1 -1.1104 12.4211 11.1358 9.33107
285 1 -1.1104 9.59916 8.3051 12.2477
324 2 2.2208 10.8374 20.785 8.07494
316 2 2.2208 8.00648 20.883 10.9251
296 1 -1.1104 6.70218 19.6846 12.3256
327 1 -1.1104 12.4752 19.4103 9.5754
124 1 -1.1104 3.88759 13.7612 6.72435
111 1 -1.1104 6.56019 13.8496 6.75461
328 1 -1.1104 12.3065 13.8905 9.34681
201 2 2.2208 -0.23455 1.28926 10.9027
315 1 -1.1104 9.44369 16.7379 12.176
302 1 -1.1104 1.25306 19.528 6.7883
108 1 -1.1104 1.11667 13.972 6.77648
133 1 -1.1104 3.77205 16.6652 6.50231
309 2 2.2208 2.44206 21.0312 11.0008
304 1 -1.1104 3.60954 16.6273 9.36026
299 1 -1.1104 1.19228 13.9444 12.338
303 2 2.2208 2.44038 18.1727 8.11472
310 2 2.2208 2.46434 15.1073 10.8234
308 1 -1.1104 3.89484 16.6703 12.2961
307 1 -1.1104 1.11647 16.6411 12.3226
305 1 -1.1104 3.92568 13.7416 9.51247
295 2 2.2208 5.15721 15.381 8.10864
294 1 -1.1104 1.05734 13.7414 9.53503
300 2 2.2208 5.15872 18.1179 10.9138
301 1 -1.1104 3.8436 19.4974 9.55632
298 1 -1.1104 1.13723 19.5808 12.4027
286 1 -1.1104 3.84155 19.6029 12.1639
287 1 -1.1104 3.9102 13.8515 12.3422
291 1 -1.1104 1.09977 19.5124 9.63233
292 1 -1.1104 0.954961 16.5879 9.50548
293 2 2.2208 5.26938 20.7478 8.09977
49 2 2.2208 13.5484 1.31432 2.45823
118 1 -1.1104 6.5407 16.6764 6.64383
322 1 -1.1104 9.7085 13.9321 12.1284
149 1 -1.1104 12.2376 16.5815 6.5938
306 1 -1.1104 6.62476 16.615 12.2574
329 1 -1.1104 12.2847 19.4565 12.3071
326 1 -1.1104 12.2922 16.6718 12.2272
297 1 -1.1104 6.79706 13.8588 12.2487
145 1 -1.1104 12.2325 19.5216 6.68118
143 1 -1.1104 12.2422 13.903 6.64549
325 2 2.2208 10.8877 15.2211 7.93174
233 1 -1.1104 12.3452 13.7894 12.1283
154 1 -1.1104 9.40065 13.8087 6.76928
288 1 -1.1104 6.71331 19.3603 9.543
323 1 -1.1104 12.2943 16.7614 9.30174
317 2 2.2208 8.02046 15.3188 10.8144
290 1 -1.1104 6.44111 13.9135 9.46385
345 2 2.2208 10.7388 -1.47412 13.6633
371 2 2.2208 7.99999 -1.4319 -0.272063
9159 2 2.2208 13.6107 20.782 -0.310296
379 2 2.2208 -0.207595 12.5629 -0.304322
378 2 2.2208 5.25763 12.4708 -0.273822
348 2 2.2208 2.52574 6.89598 13.6876
350 2 2.2208 2.52633 12.5023 13.592
344 2 2.2208 8.06572 1.24254 13.7247
365 2 2.2208 -0.363052 1.19259 -0.267059
384 2 2.2208 5.26138 1.38153 16.5336
385 1 -1.1104 1.12 -2.95713 17.8996
386 1 -1.1104 1.11594 2.7689 18.0243
389 1 -1.1104 1.11698 -2.93151 15.1393
391 1 -1.1104 1.12744 2.65349 15.2771
397 1 -1.1104 1.13481 -0.0713992 18.1217
399 2 2.2208 5.26161 -1.43142 19.3595
400 2 2.2208 5.29324 4.16218 19.378
401 1 -1.1104 1.05852 -0.0979591 15.3507
405 1 -1.1104 3.89027 -2.90946 17.9864
406 1 -1.1104 3.96576 2.64478 18.0335
407 2 2.2208 2.40328 1.40912 19.4212
408 1 -1.1104 3.93515 -2.98138 15.3073
410 1 -1.1104 4.02438 2.67612 15.2242
412 2 2.2208 2.56731 -1.52285 16.6549
413 2 2.2208 2.49932 4.05403 16.4927
414 1 -1.1104 3.83347 -0.106687 18.0198
415 1 -1.1104 3.75235 0.0150069 15.19
421 2 2.2208 -0.306331 -1.44081 19.4584
456 2 2.2208 -0.308607 4.11343 19.213
420 2 2.2208 -0.297632 1.3193 16.6698
336 2 2.2208 5.20311 -1.48729 13.7818
454 2 2.2208 -0.275672 18.1382 16.4169
8610 2 2.2208 8.07558 -4.33776 19.2851
9494 2 2.2208 -0.2799 18.0791 22.1252
394 1 -1.1104 6.69092 -2.78548 20.7458
398 1 -1.1104 6.54794 -0.20943 18.0194
395 1 -1.1104 6.74745 2.66233 15.0654
393 1 -1.1104 6.75478 -2.75133 15.0467
388 1 -1.1104 6.79928 2.4329 17.9733
403 1 -1.1104 6.58985 -0.00138931 15.222
387 1 -1.1104 6.63331 -2.93763 18.0086
427 2 2.2208 10.804 1.16541 16.6459
428 1 -1.1104 12.3465 -2.96412 18.0373
429 1 -1.1104 12.3381 2.75926 17.9913
430 1 -1.1104 12.1981 -2.82308 15.2768
432 1 -1.1104 12.3201 2.62976 15.1555
434 1 -1.1104 12.2301 -0.0794746 18.0043
435 2 2.2208 10.8457 -1.53017 19.3154
436 2 2.2208 10.8351 4.00103 19.3535
437 1 -1.1104 12.1604 -0.0925065 15.1362
439 1 -1.1104 9.5843 -2.74418 17.958
440 1 -1.1104 9.52363 2.54369 18.0019
441 2 2.2208 8.00825 1.20946 19.3672
442 1 -1.1104 9.50609 -2.81771 15.0799
444 1 -1.1104 9.51339 2.54055 15.1959
446 2 2.2208 8.08668 -1.35788 16.5122
447 2 2.2208 8.17408 4.0695 16.5238
448 1 -1.1104 9.47326 -0.148292 17.9304
449 1 -1.1104 9.34598 -0.07356 15.0713
396 1 -1.1104 6.6683 2.65607 20.659
433 1 -1.1104 12.3181 2.58991 20.728
368 2 2.2208 2.50671 15.3035 27.7016
352 2 2.2208 10.9091 9.65689 13.7145
438 1 -1.1104 12.1782 -0.243637 20.8948
404 1 -1.1104 6.6021 -0.00453406 20.8252
346 2 2.2208 13.6292 1.24969 13.6579
621 2 2.2208 -0.412012 1.28903 22.2455
9209 2 2.2208 13.7113 20.9488 22.051
460 2 2.2208 5.308 6.70431 16.4525
461 2 2.2208 5.30386 12.4631 16.3936
462 1 -1.1104 1.16613 8.42169 17.8034
464 1 -1.1104 1.26237 8.18524 15.0749
468 1 -1.1104 1.08549 5.49216 17.8864
469 1 -1.1104 1.20428 11.119 17.8355
472 2 2.2208 5.38172 9.72164 19.3539
473 1 -1.1104 1.09376 5.37206 15.0558
475 1 -1.1104 1.07923 10.8782 14.9608
481 1 -1.1104 4.04225 8.09155 17.9349
482 2 2.2208 2.53095 6.89832 19.2848
483 2 2.2208 2.53214 12.4522 19.1506
484 1 -1.1104 3.98311 8.3057 15.0597
486 2 2.2208 2.61519 9.57814 16.6212
487 1 -1.1104 3.88275 5.41023 17.9151
488 1 -1.1104 3.91074 11.1055 17.8879
489 1 -1.1104 3.83148 5.44013 15.074
491 1 -1.1104 3.9453 11.0061 15.1162
417 2 2.2208 -0.265008 6.92825 16.56
358 2 2.2208 10.8721 15.2027 13.5392
485 1 -1.1104 3.89224 8.24848 20.7546
359 2 2.2208 7.99964 18.0988 13.5867
349 2 2.2208 5.25102 9.57742 13.7422
470 1 -1.1104 6.61991 5.41221 17.8235
466 1 -1.1104 6.81359 8.3359 15.0712
479 1 -1.1104 6.87404 10.9986 14.9983
463 1 -1.1104 6.90706 8.39485 17.8814
471 1 -1.1104 6.71372 11.1376 17.6863
477 1 -1.1104 6.52667 5.303 15.2162
496 2 2.2208 10.8995 7.03354 16.448
497 2 2.2208 11.1073 12.4705 16.4469
498 1 -1.1104 12.3771 8.22424 17.7915
499 1 -1.1104 12.249 8.3251 15.0659
501 1 -1.1104 12.239 5.43691 17.9663
502 1 -1.1104 12.4433 11.1118 17.9869
503 2 2.2208 10.9297 9.62558 19.1559
504 1 -1.1104 12.2723 5.56729 15.1672
506 1 -1.1104 12.4088 11.1206 15.0756
508 1 -1.1104 9.54358 8.26581 17.6909
509 2 2.2208 8.06702 6.90559 19.2891
510 2 2.2208 8.07556 12.5672 19.3351
511 1 -1.1104 9.52831 8.34283 15.0475
513 2 2.2208 8.27694 9.69983 16.4387
514 1 -1.1104 9.44179 5.39141 17.9132
515 1 -1.1104 9.62752 11.0443 17.7595
516 1 -1.1104 9.63626 5.38818 15.0146
518 1 -1.1104 9.64013 11.0298 14.914
507 1 -1.1104 12.3204 11.0409 20.6659
519 1 -1.1104 9.4579 10.9196 20.5475
517 1 -1.1104 9.54465 5.37297 20.6596
478 1 -1.1104 6.78312 5.54417 20.7063
500 1 -1.1104 12.4929 8.12499 20.7087
467 1 -1.1104 6.72994 8.34571 20.7236
355 2 2.2208 5.3015 21.0061 13.677
353 2 2.2208 8.21399 12.4792 13.4865
523 2 2.2208 5.28206 18.0821 16.5486
524 1 -1.1104 1.00698 13.8808 17.9557
525 1 -1.1104 1.14674 19.4925 17.9633
528 1 -1.1104 1.15117 13.78 15.0865
530 1 -1.1104 1.1045 19.538 15.049
536 1 -1.1104 1.18684 16.6522 18.0144
538 2 2.2208 5.29341 15.2567 19.3082
539 2 2.2208 5.32099 20.7615 19.275
540 1 -1.1104 1.06758 16.6791 15.1245
544 1 -1.1104 3.823 13.9168 17.8209
545 1 -1.1104 3.81576 19.5116 17.881
546 2 2.2208 2.47621 18.1 19.3359
547 1 -1.1104 3.96385 13.9055 14.9907
549 1 -1.1104 3.81705 19.5309 15.0238
551 2 2.2208 2.46411 15.214 16.4094
552 2 2.2208 2.49335 20.844 16.3901
553 1 -1.1104 3.80968 16.7021 17.7788
554 1 -1.1104 3.90279 16.6733 15.0343
453 2 2.2208 -0.234087 15.2629 13.555
550 1 -1.1104 3.90556 19.4229 20.664
8612 2 2.2208 10.8801 -4.22501 16.6038
542 1 -1.1104 6.5976 16.7253 15.0379
534 1 -1.1104 6.57045 19.465 14.9981
532 1 -1.1104 6.92235 13.8852 15.0614
611 1 -1.1104 9.31033 16.6801 23.3901
563 1 -1.1104 12.3817 13.7876 20.6402
337 2 2.2208 2.32787 1.24277 13.7691
537 1 -1.1104 6.70528 16.6197 17.9504
526 1 -1.1104 6.52102 13.9013 17.9673
527 1 -1.1104 6.64568 19.432 17.737
559 2 2.2208 10.8476 17.9995 16.5027
560 1 -1.1104 12.1854 13.9694 17.8368
561 1 -1.1104 12.2982 19.3697 17.8605
562 1 -1.1104 12.3507 13.8499 14.9801
564 1 -1.1104 12.1681 19.3936 15.0645
566 1 -1.1104 12.2944 16.76 17.7484
567 2 2.2208 11.0277 15.2423 19.3415
568 2 2.2208 10.8368 20.7798 19.2803
569 1 -1.1104 12.1763 16.6285 14.8668
571 1 -1.1104 9.37664 13.811 17.9423
572 1 -1.1104 9.47881 19.2968 17.8388
573 2 2.2208 8.15037 17.8887 19.2366
574 1 -1.1104 9.59512 13.9418 15.0104
576 1 -1.1104 9.29773 19.4359 15.0135
578 2 2.2208 8.13878 15.1036 16.5398
579 2 2.2208 8.02884 20.7931 16.4817
580 1 -1.1104 9.54786 16.5279 17.965
581 1 -1.1104 9.4042 16.8229 15.185
582 1 -1.1104 9.70358 16.4857 20.6862
347 2 2.2208 11.0009 3.9459 13.7523
8614 2 2.2208 2.56371 -4.25763 19.4055
411 1 -1.1104 3.90998 2.77559 20.7225
586 2 2.2208 8.18637 20.7749 22.0978
390 1 -1.1104 1.01949 -2.9726 20.8205
402 1 -1.1104 1.15417 -0.140639 20.8699
392 1 -1.1104 1.04475 2.65526 20.735
409 1 -1.1104 3.87897 -2.78787 20.7322
416 1 -1.1104 3.82018 -0.0157038 20.8047
587 2 2.2208 5.24892 1.32264 22.1759
588 1 -1.1104 1.11669 -2.96672 23.7174
589 1 -1.1104 1.04931 2.7971 23.5644
592 1 -1.1104 1.22337 -2.88062 26.4216
593 1 -1.1104 1.05321 2.72014 26.3514
596 1 -1.1104 1.14503 -0.151482 23.6513
598 2 2.2208 5.33457 -1.57541 24.894
599 2 2.2208 5.21582 4.10067 24.9946
600 1 -1.1104 0.993759 -0.062602 26.4769
602 1 -1.1104 3.99113 -2.85664 23.4905
603 1 -1.1104 3.6728 2.65364 23.4754
604 2 2.2208 2.48578 1.22578 24.9425
605 1 -1.1104 3.99094 -2.82877 26.2488
606 1 -1.1104 3.84973 2.76717 26.5644
607 2 2.2208 2.42301 -1.41618 22.2819
608 2 2.2208 2.4029 4.13388 22.1287
609 1 -1.1104 3.87398 -0.210495 23.6385
610 1 -1.1104 3.78225 -0.00605609 26.4371
8629 2 2.2208 5.31754 -4.2536 16.5322
373 2 2.2208 -0.362056 9.69576 13.7167
495 2 2.2208 10.8535 15.2022 24.9094
557 2 2.2208 8.1039 18.1324 24.812
8573 2 2.2208 8.19383 -4.22889 24.9624
431 1 -1.1104 12.3452 -2.97111 20.7173
710 1 -1.1104 6.59479 16.5415 26.317
594 1 -1.1104 6.67556 -2.74339 26.5076
443 1 -1.1104 9.42496 -2.91892 20.5577
450 1 -1.1104 9.47727 -0.119456 20.7253
445 1 -1.1104 9.40179 2.62845 20.8146
601 1 -1.1104 6.6644 -0.018454 26.4971
595 1 -1.1104 6.67685 2.75606 26.4518
591 1 -1.1104 6.56421 2.74707 23.5221
590 1 -1.1104 6.62257 -2.88432 23.4623
597 1 -1.1104 6.64641 -0.054819 23.5942
623 2 2.2208 10.7822 1.18519 22.1859
624 1 -1.1104 12.2107 -2.88985 23.4986
625 1 -1.1104 12.2336 2.74595 23.5119
626 1 -1.1104 12.1471 -2.92416 26.4443
627 1 -1.1104 12.2919 2.77745 26.3494
628 1 -1.1104 12.2999 -0.0301128 23.5424
629 2 2.2208 10.9034 -1.56727 24.9891
631 1 -1.1104 12.1892 -0.0599051 26.1971
632 1 -1.1104 9.41544 -2.93931 23.4266
633 1 -1.1104 9.34919 2.65427 23.551
634 2 2.2208 8.0462 1.36545 25.0009
635 1 -1.1104 9.4445 -2.82774 26.358
636 1 -1.1104 9.51253 2.63109 26.2694
637 2 2.2208 8.07136 -1.47573 22.1299
638 2 2.2208 8.15355 4.00993 22.0494
639 1 -1.1104 9.42438 -0.182596 23.6057
640 1 -1.1104 9.50543 -0.0812302 26.3538
630 2 2.2208 10.7927 4.13733 24.905
8574 2 2.2208 10.8927 -4.24437 22.0001
465 1 -1.1104 1.15969 8.33077 20.7631
492 1 -1.1104 3.86041 11.0659 20.7482
622 2 2.2208 -0.375432 4.12385 24.9369
476 1 -1.1104 1.14409 11.0952 20.739
490 1 -1.1104 3.86549 5.54078 20.7978
474 1 -1.1104 1.00605 5.51424 20.7364
343 2 2.2208 -0.34701 4.14507 13.8132
652 2 2.2208 5.26133 6.89177 22.1333
653 2 2.2208 5.31877 12.5365 22.1285
654 1 -1.1104 1.06146 8.41728 23.6679
656 1 -1.1104 1.10629 8.25062 26.5075
658 1 -1.1104 1.05769 5.62401 23.6287
659 1 -1.1104 1.20774 11.0236 23.6017
662 2 2.2208 5.25742 9.65335 25.0376
663 1 -1.1104 1.06475 5.53789 26.5692
664 1 -1.1104 1.13581 10.9143 26.4266
667 1 -1.1104 3.79495 8.27126 23.4699
668 2 2.2208 2.55757 6.81141 25.0005
669 2 2.2208 2.53686 12.352 24.8572
670 1 -1.1104 3.91504 8.19271 26.3951
671 2 2.2208 2.51479 9.64531 22.1674
672 1 -1.1104 4.0221 5.45642 23.564
673 1 -1.1104 3.95002 11.0206 23.5257
674 1 -1.1104 3.78301 5.48243 26.372
675 1 -1.1104 3.90898 11.0192 26.3354
657 1 -1.1104 6.79672 8.22017 26.3301
615 2 2.2208 10.7807 17.9154 22.0109
708 1 -1.1104 6.59214 13.808 26.3152
505 1 -1.1104 12.1724 5.43564 20.8234
558 1 -1.1104 6.76682 19.4912 26.3238
702 1 -1.1104 6.66641 13.8701 23.4909
661 1 -1.1104 6.72071 11.1977 23.4617
480 1 -1.1104 6.6984 11.191 20.5221
512 1 -1.1104 9.55335 8.20306 20.5892
665 1 -1.1104 6.57467 5.44465 26.2219
660 1 -1.1104 6.76518 5.57003 23.4519
666 1 -1.1104 6.7047 10.9774 26.4652
655 1 -1.1104 6.6434 8.38054 23.6107
683 1 -1.1104 9.54806 11.1757 26.2532
684 1 -1.1104 9.55526 5.49852 26.3108
685 1 -1.1104 9.51767 11.0957 23.4078
686 1 -1.1104 9.56611 5.47102 23.4494
687 2 2.2208 8.19795 9.6263 22.0242
688 1 -1.1104 9.5154 8.33894 26.2269
689 2 2.2208 8.08663 12.3704 24.8367
690 2 2.2208 8.16845 6.91371 24.8682
691 2 2.2208 10.9 6.93505 22.1283
692 2 2.2208 10.9817 12.3785 22.1072
693 1 -1.1104 12.2547 8.22083 23.3824
694 1 -1.1104 12.2632 8.27386 26.3194
695 1 -1.1104 12.2045 5.44217 23.5672
696 1 -1.1104 12.2774 10.9269 23.6254
697 2 2.2208 10.8826 9.65674 24.9026
698 1 -1.1104 12.1157 5.58307 26.143
699 1 -1.1104 12.1987 10.9598 26.3565
700 1 -1.1104 9.51462 8.27777 23.4594
356 2 2.2208 5.2539 15.4118 13.6837
339 2 2.2208 5.27605 4.02481 13.8573
529 1 -1.1104 1.03087 13.8 20.7292
555 1 -1.1104 4.07782 16.606 20.7744
548 1 -1.1104 3.79794 13.8975 20.6936
531 1 -1.1104 1.14699 19.4865 20.7235
541 1 -1.1104 1.11061 16.7161 20.7462
613 1 -1.1104 1.05469 16.7632 26.3331
641 2 2.2208 2.49113 15.2104 22.1262
642 2 2.2208 2.51547 20.9091 22.0642
643 1 -1.1104 3.85407 16.5756 23.4644
647 1 -1.1104 1.05734 16.6349 23.4714
651 1 -1.1104 3.81222 13.7935 26.1674
676 1 -1.1104 3.76358 16.8699 26.3486
677 2 2.2208 2.45438 18.0976 24.8338
678 1 -1.1104 3.96833 19.6325 26.2679
679 2 2.2208 5.29012 18.0065 22.1702
682 1 -1.1104 1.04007 13.9258 23.5418
701 1 -1.1104 1.10726 19.5274 23.5436
703 2 2.2208 5.25093 15.2477 24.8747
704 1 -1.1104 1.1666 13.8902 26.3902
705 2 2.2208 5.19609 20.9951 24.7892
707 1 -1.1104 3.74239 19.5769 23.523
709 1 -1.1104 3.82961 13.8444 23.4043
711 1 -1.1104 1.03036 19.4443 26.3397
494 1 -1.1104 12.3379 16.415 23.5595
522 1 -1.1104 9.54004 13.881 23.4612
648 1 -1.1104 6.59439 16.5976 23.5841
459 1 -1.1104 12.269 13.9078 26.3359
533 1 -1.1104 6.77518 13.822 20.6686
575 1 -1.1104 9.50146 13.8169 20.7388
570 1 -1.1104 12.4397 16.6006 20.6626
535 1 -1.1104 6.8376 19.4193 20.6124
543 1 -1.1104 6.70742 16.7096 20.7428
584 1 -1.1104 9.57517 19.5077 26.2133
565 1 -1.1104 12.2418 19.5015 20.755
583 1 -1.1104 9.36352 13.8214 26.219
577 1 -1.1104 9.46419 19.3071 20.5938
614 1 -1.1104 12.151 19.346 23.4398
520 2 2.2208 10.9234 20.8514 24.9391
612 1 -1.1104 9.38285 16.6694 26.2914
644 1 -1.1104 12.2794 13.6772 23.6027
556 1 -1.1104 9.44342 19.432 23.4697
521 1 -1.1104 12.2827 16.6818 26.3788
585 2 2.2208 8.05196 15.2212 22.1095
645 1 -1.1104 6.73498 19.4842 23.4393
493 1 -1.1104 12.3375 19.4406 26.3135
425 2 2.2208 13.8066 12.5002 19.2982
418 2 2.2208 -0.399224 7.02403 22.1804
342 2 2.2208 13.6389 7.01504 13.7416
422 2 2.2208 -0.214854 9.75399 19.2609
360 2 2.2208 13.6898 18.136 13.6901
452 2 2.2208 -0.19676 20.9407 13.7068
377 2 2.2208 2.50185 9.54127 27.7795
713 2 2.2208 -0.306068 18.1131 27.7898
383 2 2.2208 10.8549 12.4902 27.7396
340 2 2.2208 7.92495 15.2571 27.616
357 2 2.2208 10.9102 20.9019 13.6391
367 2 2.2208 10.9257 1.27937 27.7029
341 2 2.2208 10.8255 18.0082 27.6282
361 2 2.2208 5.27591 1.29429 27.8495
335 2 2.2208 -0.328845 -1.54213 13.7879
354 2 2.2208 2.49394 18.0296 13.6446
351 2 2.2208 8.11739 6.87031 13.6925
714 2 2.2208 5.31008 23.6566 5.28648
715 2 2.2208 5.25303 29.3766 5.34553
716 1 -1.1104 1.12554 25.1955 0.958541
717 1 -1.1104 1.12767 25.0683 3.64019
718 1 -1.1104 1.13648 22.2639 1.15208
719 1 -1.1104 1.04951 27.8884 1.03625
720 2 2.2208 5.25238 26.5184 2.37777
721 1 -1.1104 1.20253 22.211 3.84886
722 1 -1.1104 0.897575 27.9361 3.97745
723 1 -1.1104 3.96641 25.1098 0.987195
724 2 2.2208 2.57682 23.6853 2.28876
725 2 2.2208 2.47119 29.291 2.5354
726 1 -1.1104 3.96936 25.2187 3.80985
727 2 2.2208 2.51897 26.4844 5.36246
728 1 -1.1104 4.00366 22.276 0.945493
729 1 -1.1104 3.86483 28.0223 1.10898
730 1 -1.1104 4.13346 22.2254 3.80821
731 1 -1.1104 3.75005 27.8696 3.9259
855 1 -1.1104 1.09013 25.0158 6.52647
735 1 -1.1104 6.72835 25.0978 0.943216
736 1 -1.1104 6.66552 25.2077 3.8031
859 1 -1.1104 6.80237 22.3348 6.69856
1633 1 -1.1104 11.9681 47.6016 6.79374
862 1 -1.1104 3.94817 22.2375 6.67381
861 1 -1.1104 3.8712 24.9922 6.73769
863 1 -1.1104 3.79739 27.8002 6.6016
1065 2 2.2208 13.6624 40.5982 13.6069
1078 2 2.2208 2.42456 32.1391 -0.347089
739 1 -1.1104 6.74548 22.3594 3.78011
740 1 -1.1104 6.49349 27.9271 3.94885
737 1 -1.1104 6.69698 22.3086 0.932302
741 2 2.2208 10.9402 23.6153 5.23722
742 2 2.2208 10.8348 29.3933 5.18439
743 1 -1.1104 12.3353 24.9158 1.23531
744 1 -1.1104 12.3386 25.0826 3.95369
745 1 -1.1104 12.3129 22.1893 0.958151
746 1 -1.1104 12.5285 27.6906 1.16635
747 2 2.2208 10.9474 26.4206 2.53903
748 1 -1.1104 12.1747 22.2898 3.84847
749 1 -1.1104 12.2227 27.8514 3.96938
750 1 -1.1104 9.4515 25.3772 1.04894
751 2 2.2208 8.026 23.7564 2.49302
752 2 2.2208 7.89127 29.5114 2.59138
753 1 -1.1104 9.53815 25.1554 3.99962
754 2 2.2208 8.04858 26.533 5.40934
755 1 -1.1104 9.49656 22.3431 1.07853
756 1 -1.1104 6.87121 27.9357 0.938017
757 1 -1.1104 9.45298 22.2908 3.94122
758 1 -1.1104 9.429 27.8867 3.42367
860 1 -1.1104 6.76273 27.9169 6.6226
891 1 -1.1104 9.45753 25.185 6.90233
893 1 -1.1104 9.30566 28.1393 6.35289
889 1 -1.1104 12.3854 22.3102 6.69044
888 1 -1.1104 12.3865 25.1241 6.7169
1326 2 2.2208 10.8192 40.4651 -0.330684
1041 2 2.2208 13.5691 46.353 8.1336
1040 2 2.2208 13.6809 37.856 10.9812
1403 2 2.2208 8.00338 37.8289 -0.230092
762 2 2.2208 5.06479 34.9854 5.29668
763 1 -1.1104 0.939832 30.6878 0.882531
764 1 -1.1104 1.00225 36.1928 1.04085
766 1 -1.1104 1.13171 30.5068 3.91707
767 1 -1.1104 0.825789 36.2238 3.85425
769 1 -1.1104 0.874334 33.4035 1.11763
770 2 2.2208 5.05864 32.2276 2.47506
771 2 2.2208 5.12589 37.7291 2.57222
772 1 -1.1104 0.924437 33.4255 3.77601
774 1 -1.1104 3.81451 30.8013 1.00843
775 1 -1.1104 3.83166 36.4377 1.11515
776 2 2.2208 2.32684 34.8522 2.59212
777 1 -1.1104 3.75442 30.6683 3.7777
778 1 -1.1104 3.7717 36.3196 3.92147
779 2 2.2208 2.36221 32.0743 5.35673
780 2 2.2208 2.27779 37.7693 5.43718
781 1 -1.1104 3.8449 33.6693 1.08206
782 1 -1.1104 3.83263 33.4953 3.9827
912 1 -1.1104 1.1229 30.6327 6.52799
916 1 -1.1104 1.15353 33.8793 6.38065
788 1 -1.1104 6.47177 33.6349 1.09783
918 1 -1.1104 3.91987 30.7602 6.7276
920 1 -1.1104 3.8377 33.4447 6.71438
834 2 2.2208 -0.507494 40.637 5.2772
1050 2 2.2208 13.6311 43.3934 -0.32735
1027 1 -1.1104 12.289 41.881 12.202
773 1 -1.1104 6.43253 33.4943 3.89308
787 1 -1.1104 6.54743 30.7015 3.92378
786 1 -1.1104 6.56479 30.8698 0.989747
768 1 -1.1104 6.64927 36.2163 3.83975
765 1 -1.1104 6.53614 36.4342 1.08165
789 2 2.2208 10.8038 34.8511 5.28982
790 1 -1.1104 9.31421 30.6674 1.21967
791 1 -1.1104 12.1849 36.439 1.10987
792 1 -1.1104 12.3686 30.6434 3.46435
793 1 -1.1104 12.3527 36.1839 3.93205
794 1 -1.1104 12.0382 33.7255 1.09742
795 2 2.2208 10.7244 32.2055 2.40459
796 2 2.2208 10.7838 37.6126 2.51372
797 1 -1.1104 12.2164 33.3835 3.86504
799 1 -1.1104 9.40012 36.4317 1.10171
800 2 2.2208 7.96255 34.8899 2.42476
801 1 -1.1104 9.30776 30.7248 4.02093
802 1 -1.1104 9.63034 36.1823 3.89732
803 2 2.2208 7.93122 32.2347 5.29903
804 2 2.2208 8.04475 37.7268 5.1995
805 1 -1.1104 9.39991 33.5577 1.18354
806 1 -1.1104 9.51254 33.4901 3.97043
1073 2 2.2208 10.7109 35.0932 -0.205136