ITEM: TIMESTEP
40000
ITEM: NUMBER OF ATOMS
17820
ITEM: BOX BOUNDS pp pp pp
-3.5746405708892642e-01 2.7697464057089370e+01
-4.3168189664875500e+00 3.3239681896648449e+02
-3.5614068436168522e-01 2.7696140684361161e+01
ITEM: ATOMS id type q x y z
1 2 2.2208 5.20535 1.44908 5.30829
2 1 -1.1104 0.919135 -2.90965 1.10709
3 1 -1.1104 0.867736 2.88121 1.06936
6 1 -1.1104 0.992406 -2.68956 3.90638
7 1 -1.1104 1.01681 2.95233 3.74063
10 1 -1.1104 1.03754 -0.0889444 0.889482
12 2 2.2208 5.16164 -1.44207 2.42732
13 2 2.2208 5.25192 4.21663 2.4335
14 1 -1.1104 0.968427 0.24714 3.71694
16 1 -1.1104 3.64845 -2.85741 0.87036
17 1 -1.1104 3.93914 2.80558 1.14311
18 2 2.2208 2.34402 1.43567 2.38844
19 1 -1.1104 3.87837 -2.72116 3.83188
20 1 -1.1104 3.78184 2.83569 4.02482
21 2 2.2208 2.52331 -1.50154 5.23727
22 2 2.2208 2.32713 4.08075 5.25545
23 1 -1.1104 3.99452 -0.0824493 0.900809
24 1 -1.1104 3.69644 -0.0505149 3.73936
9 1 -1.1104 6.60305 2.74946 3.91623
15 1 -1.1104 6.48285 0.0335834 3.94804
11 1 -1.1104 6.72228 -0.0361972 1.0464
8 1 -1.1104 6.71735 -2.88774 3.8468
4 1 -1.1104 6.42082 -2.78022 0.970355
5 1 -1.1104 6.56112 2.78243 0.880787
172 1 -1.1104 3.84716 -2.80246 6.59785
168 1 -1.1104 6.709 -2.85476 6.57396
359 2 2.2208 7.90198 18.1208 13.6889
171 1 -1.1104 6.55557 -0.0846508 6.66408
166 1 -1.1104 1.08938 -2.81393 6.6812
8501 2 2.2208 10.7945 -4.37606 5.33418
31 2 2.2208 10.7672 1.41622 5.31089
32 1 -1.1104 12.1442 -2.93169 1.03746
33 1 -1.1104 12.1679 2.70926 0.941388
34 1 -1.1104 12.3183 -2.85086 3.80003
35 1 -1.1104 12.2819 2.70315 3.79375
36 1 -1.1104 12.1546 -0.172254 1.16311
37 2 2.2208 10.8462 -1.58314 2.56625
38 2 2.2208 10.7732 4.26832 2.48371
39 1 -1.1104 12.1648 -0.0999818 3.95547
40 1 -1.1104 9.3169 -2.783 1.09058
41 1 -1.1104 9.31308 2.7368 1.05235
42 2 2.2208 8.01654 1.36632 2.4214
43 1 -1.1104 9.54198 -2.76574 3.98597
44 1 -1.1104 9.44188 2.99764 3.85582
45 2 2.2208 8.07313 -1.36399 5.28188
46 2 2.2208 7.83044 4.16763 5.2176
47 1 -1.1104 9.33806 -0.0681919 1.04686
48 1 -1.1104 9.41844 0.062836 3.9968
50 2 2.2208 13.6758 -1.61907 5.22051
330 2 2.2208 13.7679 4.10151 5.28526
49 2 2.2208 13.5812 1.28973 2.49836
209 1 -1.1104 9.38478 2.5092 6.70305
206 1 -1.1104 12.1182 2.66305 6.67132
210 1 -1.1104 9.42646 -0.158943 6.80406
355 2 2.2208 5.22096 20.8909 13.6335
360 2 2.2208 13.5541 18.1344 13.5119
8499 2 2.2208 5.1456 -4.27466 5.1804
323 1 -1.1104 12.3059 16.7769 9.38573
8498 2 2.2208 2.37527 -4.27037 2.42553
54 2 2.2208 5.2674 7.06841 5.17595
55 2 2.2208 5.3392 12.4907 5.27815
56 1 -1.1104 1.00281 8.50638 1.13658
58 1 -1.1104 1.01239 8.50945 3.80143
60 1 -1.1104 1.02857 5.64298 0.969952
61 1 -1.1104 0.99316 11.1882 1.10311
66 2 2.2208 5.33426 9.77755 2.44553
67 1 -1.1104 1.02165 5.67924 3.76945
68 1 -1.1104 0.974748 11.2076 3.85863
71 1 -1.1104 3.8333 8.45941 1.1065
72 2 2.2208 2.4648 7.13079 2.51309
73 2 2.2208 2.37868 12.4875 2.46411
74 1 -1.1104 3.74624 8.32345 4.02692
75 2 2.2208 2.4423 9.75426 5.1927
76 1 -1.1104 3.82568 5.59337 0.974745
77 1 -1.1104 3.79088 11.212 1.06037
79 1 -1.1104 3.92894 5.65324 3.78383
80 1 -1.1104 3.89234 11.1829 3.78511
57 1 -1.1104 6.61208 8.39423 1.07628
69 1 -1.1104 6.59701 5.54302 3.94282
70 1 -1.1104 6.61283 11.1476 3.93643
59 1 -1.1104 6.67326 8.28826 3.80776
64 1 -1.1104 6.49276 11.2449 1.20774
63 1 -1.1104 6.61427 5.66561 1.02896
237 1 -1.1104 6.5023 5.60841 6.67755
235 1 -1.1104 6.46071 8.30606 6.789
234 1 -1.1104 0.988242 8.36854 6.56146
65 1 -1.1104 6.61991 11.1196 6.67878
239 1 -1.1104 3.88705 5.6516 6.64973
233 1 -1.1104 12.3304 13.936 12.1362
377 2 2.2208 2.41869 9.83738 -0.313393
331 2 2.2208 13.6309 9.71317 5.39177
84 2 2.2208 10.7972 6.86297 5.45226
85 2 2.2208 10.894 12.5155 5.38202
86 1 -1.1104 12.0666 8.30468 1.21074
87 1 -1.1104 12.2207 8.32283 4.04275
88 1 -1.1104 12.2719 5.61861 1.03284
89 1 -1.1104 12.28 11.0143 1.03513
91 2 2.2208 10.7525 9.79909 2.62539
92 1 -1.1104 12.1778 5.55616 3.83948
93 1 -1.1104 12.1268 11.1746 4.01667
94 1 -1.1104 9.29246 8.38751 0.990034
95 2 2.2208 8.0479 7.01559 2.50343
96 2 2.2208 7.97129 12.5962 2.36975
97 1 -1.1104 9.4079 8.37953 3.93324
98 2 2.2208 8.04332 9.73624 5.3624
99 1 -1.1104 9.53217 5.61536 1.0034
100 1 -1.1104 9.31757 11.1504 1.17007
102 1 -1.1104 9.416 5.66768 4.00279
103 1 -1.1104 9.29206 11.0977 4.00862
104 2 2.2208 13.7308 12.4821 2.32423
105 2 2.2208 13.5843 6.89696 2.53313
101 1 -1.1104 9.58256 11.0607 6.7032
267 1 -1.1104 9.42175 8.2179 6.78672
266 1 -1.1104 12.4872 5.59571 6.68408
322 1 -1.1104 9.46723 13.9245 12.2489
8500 2 2.2208 7.94833 -4.29163 2.58054
106 2 2.2208 5.14618 18.145 5.29085
107 1 -1.1104 0.941003 13.9546 0.999372
109 1 -1.1104 0.878856 19.6895 0.960111
113 1 -1.1104 0.890462 13.945 3.84018
114 1 -1.1104 0.867484 19.4423 3.78709
116 1 -1.1104 1.01475 16.8654 0.916251
119 2 2.2208 5.06328 15.4185 2.42566
120 2 2.2208 5.19813 20.9463 2.37696
121 1 -1.1104 0.929676 16.7006 3.63442
123 1 -1.1104 3.67786 13.9631 1.04427
125 1 -1.1104 3.83143 19.4223 0.934715
127 2 2.2208 2.34187 18.0938 2.32161
128 1 -1.1104 3.73103 14.0106 3.95861
129 1 -1.1104 3.76616 19.4449 3.84794
130 2 2.2208 2.2826 15.3369 5.14043
131 2 2.2208 2.33447 20.8479 5.16893
132 1 -1.1104 3.72942 16.745 1.05103
134 1 -1.1104 3.71528 16.7329 3.77889
115 1 -1.1104 6.48042 14.0104 3.75974
110 1 -1.1104 6.6262 14.147 1.01165
140 1 -1.1104 6.66315 16.8898 0.993853
122 1 -1.1104 6.46369 16.775 3.84452
138 1 -1.1104 6.68828 19.636 0.97296
139 1 -1.1104 6.67886 19.5576 3.62232
126 1 -1.1104 3.8785 19.6274 6.63152
133 1 -1.1104 3.77349 16.8167 6.55648
112 1 -1.1104 6.71108 19.5051 6.53317
117 1 -1.1104 1.0037 16.6337 6.55917
118 1 -1.1104 6.63164 16.7957 6.66926
108 1 -1.1104 1.01754 13.8926 6.64062
124 1 -1.1104 3.72142 13.9317 6.57051
149 1 -1.1104 12.0538 16.7744 6.60238
8502 2 2.2208 2.38952 -4.24922 8.05249
141 2 2.2208 10.7649 18.1308 5.12688
142 1 -1.1104 12.2461 13.9166 1.16205
144 1 -1.1104 12.397 19.4113 0.882167
146 1 -1.1104 12.1373 13.8824 3.85433
147 1 -1.1104 12.3467 19.566 3.93806
148 1 -1.1104 12.298 16.7254 1.09432
150 2 2.2208 10.8137 15.2886 2.44662
151 2 2.2208 10.919 20.9352 2.40306
152 1 -1.1104 12.0239 16.7228 3.75147
153 1 -1.1104 9.35593 13.8657 1.16722
155 1 -1.1104 9.47604 19.6546 1.12632
157 2 2.2208 8.03142 18.0561 2.43009
158 1 -1.1104 9.44265 13.8572 3.77057
159 1 -1.1104 9.50637 19.5426 3.88174
160 2 2.2208 7.8671 15.4456 5.1448
161 2 2.2208 8.08351 20.9126 5.08489
162 1 -1.1104 9.35733 16.6848 1.08104
164 1 -1.1104 9.30598 16.7851 3.86487
333 2 2.2208 13.4856 15.3719 5.25883
165 2 2.2208 13.6778 18.2077 2.508
156 1 -1.1104 9.38717 19.4422 6.66981
154 1 -1.1104 9.32234 14.0376 6.56146
143 1 -1.1104 12.1139 13.9897 6.67051
8503 2 2.2208 5.22564 -4.21614 10.8724
173 1 -1.1104 3.7089 2.75776 6.75737
167 1 -1.1104 0.954214 2.71365 6.55524
170 1 -1.1104 1.09097 -0.176722 6.52881
30 2 2.2208 13.6648 15.4513 10.8121
174 1 -1.1104 3.76584 0.00553696 6.51042
169 1 -1.1104 6.55604 2.79237 6.69035
175 2 2.2208 5.2283 1.25163 10.7337
176 1 -1.1104 1.0892 -2.8477 12.2483
177 1 -1.1104 1.03283 2.73864 12.309
180 1 -1.1104 1.11118 -2.82587 9.42203
181 1 -1.1104 0.95084 2.64407 9.62078
184 1 -1.1104 1.13197 0.00377975 12.3417
186 2 2.2208 5.30515 -1.43642 7.96945
188 1 -1.1104 0.852078 -0.154471 9.50771
190 1 -1.1104 3.85883 -2.8578 12.2917
191 1 -1.1104 3.85052 2.7698 12.2462
192 2 2.2208 2.38288 1.37958 7.95154
193 1 -1.1104 3.81113 -2.81941 9.59891
194 1 -1.1104 3.80399 2.79502 9.40131
195 2 2.2208 2.44607 -1.45155 10.8665
196 2 2.2208 2.46122 4.0649 10.7752
197 1 -1.1104 3.7978 -0.128411 12.261
198 1 -1.1104 3.75405 -0.0176421 9.31153
185 1 -1.1104 6.61858 -0.0654 12.2686
189 1 -1.1104 6.68229 -0.0880794 9.42866
178 1 -1.1104 6.60067 -2.79139 12.132
182 1 -1.1104 6.56958 -2.73891 9.35829
183 1 -1.1104 6.52024 2.7423 9.42469
179 1 -1.1104 6.59481 2.61861 12.2344
53 2 2.2208 13.5618 18.1869 7.99688
357 2 2.2208 10.6529 20.9575 13.6228
28 2 2.2208 13.6698 20.942 10.8757
205 1 -1.1104 12.1909 -3.14309 6.59856
208 1 -1.1104 9.37443 -2.97841 6.78469
207 1 -1.1104 12.2633 -0.0993871 6.59344
230 2 2.2208 13.722 -1.59269 10.8225
211 2 2.2208 10.911 1.26767 10.9286
212 1 -1.1104 12.2998 -3.02367 12.3682
213 1 -1.1104 12.2055 2.54201 12.3143
214 1 -1.1104 12.0624 -2.97957 9.58089
215 1 -1.1104 12.1844 2.72083 9.39695
216 1 -1.1104 12.3632 -0.294981 12.1556
217 2 2.2208 10.9139 -1.53506 8.11499
219 1 -1.1104 12.285 -0.194111 9.54824
220 1 -1.1104 9.47081 -2.74257 12.3325
221 1 -1.1104 9.46446 2.80093 12.2672
222 2 2.2208 8.05419 1.2676 8.12146
223 1 -1.1104 9.33465 -2.97202 9.55038
224 1 -1.1104 9.42022 2.68524 9.51594
225 2 2.2208 8.0229 -1.49205 10.8718
226 2 2.2208 7.98007 4.01534 10.8635
227 1 -1.1104 9.43239 0.00770547 12.3148
228 1 -1.1104 9.44703 -0.10232 9.61009
218 2 2.2208 10.7802 3.97781 8.06522
232 2 2.2208 13.6212 4.12508 10.8173
229 2 2.2208 13.6244 1.31127 8.02208
200 2 2.2208 -0.360371 -1.45509 8.0144
321 1 -1.1104 9.11922 19.6745 12.235
328 1 -1.1104 12.186 13.9537 9.44223
317 2 2.2208 7.91393 15.3582 10.9194
382 2 2.2208 7.95394 9.67585 -0.359912
325 2 2.2208 10.6796 15.4255 8.05942
236 1 -1.1104 0.957036 5.44028 6.43061
187 2 2.2208 5.09979 4.23192 8.00745
78 1 -1.1104 3.8187 11.1087 6.64624
238 1 -1.1104 3.70992 8.3978 6.7463
62 1 -1.1104 1.02313 11.0305 6.43082
240 2 2.2208 5.11807 7.02574 10.9574
241 2 2.2208 5.17837 12.5504 10.7821
242 1 -1.1104 0.966373 8.33274 12.2196
244 1 -1.1104 0.897416 8.3693 9.38264
246 1 -1.1104 0.934137 5.55502 12.3322
247 1 -1.1104 1.01247 11.1105 12.3393
250 2 2.2208 5.1765 9.73721 8.16361
251 1 -1.1104 1.02204 5.42225 9.42368
252 1 -1.1104 0.819172 11.1356 9.33704
255 1 -1.1104 3.88704 8.47712 12.3654
256 2 2.2208 2.36658 6.93086 8.12568
257 2 2.2208 2.43302 12.4909 8.03961
258 1 -1.1104 3.68052 8.31824 9.54585
259 2 2.2208 2.32838 9.71718 10.8999
260 1 -1.1104 3.75359 5.57255 12.0755
261 1 -1.1104 3.88122 11.2391 12.4077
262 1 -1.1104 3.81552 5.58475 9.50032
263 1 -1.1104 3.7052 11.0476 9.51294
253 1 -1.1104 6.66121 5.4403 9.44474
248 1 -1.1104 6.60497 5.54332 12.2345
249 1 -1.1104 6.62257 11.1346 12.1816
243 1 -1.1104 6.56795 8.28027 12.2745
245 1 -1.1104 6.60298 8.37726 9.50905
254 1 -1.1104 6.65204 11.2159 9.45472
320 2 2.2208 7.94139 18.0451 8.03566
315 1 -1.1104 9.32236 16.714 12.0857
269 1 -1.1104 9.37578 5.41748 6.75306
324 2 2.2208 10.6483 20.9737 7.99035
90 1 -1.1104 12.4326 11.0858 6.69758
265 1 -1.1104 12.1945 8.27816 6.83477
264 1 -1.1104 9.54513 11.1004 9.38391
268 1 -1.1104 9.61002 5.51317 9.54651
270 1 -1.1104 9.37296 11.2464 12.0989
271 1 -1.1104 9.45143 5.51066 12.2791
272 2 2.2208 7.99045 9.78643 10.7195
273 1 -1.1104 9.33022 8.25957 9.60563
274 2 2.2208 8.05971 12.502 7.97061
275 2 2.2208 8.02649 6.90429 8.09696
276 2 2.2208 10.7543 6.9179 10.9122
277 2 2.2208 10.9212 12.6234 10.814
278 1 -1.1104 12.1616 8.22064 12.3821
279 1 -1.1104 12.1837 8.41651 9.50735
280 1 -1.1104 12.2404 5.46612 12.3114
281 1 -1.1104 12.2216 11.0107 12.063
282 2 2.2208 10.8612 9.76054 8.12815
283 1 -1.1104 12.2319 5.62137 9.53192
284 1 -1.1104 12.3534 11.2079 9.41285
285 1 -1.1104 9.3736 8.41061 12.3092
202 2 2.2208 13.7218 9.83267 10.8739
203 2 2.2208 13.7225 12.5871 8.01447
231 2 2.2208 13.6595 7.01997 8.19421
163 1 -1.1104 9.28665 16.7815 6.73616
353 2 2.2208 8.04627 12.6215 13.6269
145 1 -1.1104 12.1712 19.6081 6.70243
354 2 2.2208 2.33097 18.2063 13.6756
302 1 -1.1104 1.03363 19.4166 6.65394
111 1 -1.1104 6.52822 13.9967 6.59407
289 1 -1.1104 6.72284 16.5681 9.34679
297 1 -1.1104 6.52679 13.8944 12.1406
288 1 -1.1104 6.60503 19.5907 9.45676
309 2 2.2208 2.43173 20.8439 10.7559
304 1 -1.1104 3.95588 16.6368 9.48117
299 1 -1.1104 0.939516 13.8839 12.1994
303 2 2.2208 2.44078 18.1227 7.99243
310 2 2.2208 2.35452 15.2781 10.8675
308 1 -1.1104 3.79268 16.7881 12.2868
307 1 -1.1104 0.913662 16.5612 12.1943
305 1 -1.1104 3.85345 13.8999 9.28142
295 2 2.2208 5.24949 15.2841 7.99089
294 1 -1.1104 0.932399 14.0081 9.45512
300 2 2.2208 5.09102 17.9785 10.895
301 1 -1.1104 3.91295 19.5132 9.44988
298 1 -1.1104 0.950176 19.5201 12.2294
286 1 -1.1104 3.71314 19.4311 12.2006
287 1 -1.1104 3.75242 14.0352 12.1983
291 1 -1.1104 1.19757 19.4701 9.36786
292 1 -1.1104 1.15143 16.6878 9.40363
293 2 2.2208 5.15375 20.9037 8.05214
306 1 -1.1104 6.63651 16.7067 12.3242
290 1 -1.1104 6.50255 13.919 9.52063
296 1 -1.1104 6.51675 19.425 12.2296
314 1 -1.1104 9.50369 16.7662 9.45804
316 2 2.2208 7.96379 20.9456 10.7979
327 1 -1.1104 12.2572 19.5117 9.48975
319 1 -1.1104 9.2907 14.0281 9.33524
326 1 -1.1104 11.988 16.756 12.3719
204 2 2.2208 10.7339 18.1912 10.9115
329 1 -1.1104 12.0519 19.5529 12.2155
318 1 -1.1104 9.27823 19.5195 9.50541
356 2 2.2208 5.17754 15.3276 13.693
8509 2 2.2208 10.7461 -4.42591 -0.252841
335 2 2.2208 -0.429269 -1.43036 13.7979
338 2 2.2208 13.7142 12.6021 13.6427
350 2 2.2208 2.35875 12.5194 13.6943
366 2 2.2208 13.5936 9.67682 -0.389711
372 2 2.2208 8.03576 4.15618 -0.441684
336 2 2.2208 5.32981 -1.54286 13.6217
340 2 2.2208 7.91854 15.3878 -0.467133
376 2 2.2208 5.19877 6.97898 -0.338881
362 2 2.2208 2.47865 -1.38311 -0.449155
347 2 2.2208 10.6723 4.10252 13.7521
374 2 2.2208 13.6305 -1.50655 -0.380695
384 2 2.2208 5.17217 1.30622 16.4126
385 1 -1.1104 1.00362 -2.77871 17.8515
386 1 -1.1104 0.866498 2.7345 17.9717
389 1 -1.1104 1.02898 -2.83333 14.9571
391 1 -1.1104 1.0309 2.77842 15.1917
397 1 -1.1104 1.11717 0.0351692 17.7825
399 2 2.2208 5.1224 -1.45255 19.2665
400 2 2.2208 5.22388 4.20881 19.264
401 1 -1.1104 0.935933 0.0448495 15.0402
405 1 -1.1104 3.82181 -3.05428 17.9149
406 1 -1.1104 3.79437 2.75154 17.9097
407 2 2.2208 2.28514 1.35796 19.2224
408 1 -1.1104 3.69492 -2.97196 15.0944
410 1 -1.1104 3.72808 2.93764 15.1301
412 2 2.2208 2.44643 -1.49786 16.4653
413 2 2.2208 2.38925 4.17399 16.5222
414 1 -1.1104 3.90719 -0.170481 17.8443
415 1 -1.1104 3.8355 -0.0664932 15.0147
398 1 -1.1104 6.59444 -0.190239 17.7132
388 1 -1.1104 6.61815 2.66942 17.9808
387 1 -1.1104 6.77891 -2.86504 17.757
395 1 -1.1104 6.51722 2.75291 15.1269
393 1 -1.1104 6.58097 -2.92685 15.1502
394 1 -1.1104 6.67478 -2.79575 20.5929
403 1 -1.1104 6.61836 -0.117345 14.933
404 1 -1.1104 6.51074 0.0701953 20.5569
392 1 -1.1104 0.898175 2.92416 20.7685
409 1 -1.1104 3.86751 -2.81871 20.5934
411 1 -1.1104 3.74088 2.68706 20.6518
396 1 -1.1104 6.46425 2.87639 20.8317
17609 2 2.2208 13.6844 -4.39288 24.8939
495 2 2.2208 10.7239 15.301 24.8479
8575 2 2.2208 2.48226 -4.25667 24.8722
427 2 2.2208 10.7767 1.29898 16.5552
428 1 -1.1104 12.1692 -2.97253 17.9356
429 1 -1.1104 12.1844 2.73568 18.026
430 1 -1.1104 12.3909 -2.89962 15.0914
432 1 -1.1104 12.1352 2.86138 15.1886
434 1 -1.1104 12.0171 -0.0217354 17.9212
435 2 2.2208 10.7364 -1.54036 19.3394
436 2 2.2208 10.7002 4.15684 19.2946
437 1 -1.1104 12.3088 0.0100697 15.0852
439 1 -1.1104 9.447 -2.85962 17.8147
440 1 -1.1104 9.44691 2.65852 17.9151
441 2 2.2208 7.82756 1.18521 19.2159
442 1 -1.1104 9.46622 -2.96245 15.106
444 1 -1.1104 9.41467 2.79703 15.0726
446 2 2.2208 8.05909 -1.52232 16.5107
447 2 2.2208 7.89989 4.08045 16.5734
448 1 -1.1104 9.31289 -0.132867 17.8663
449 1 -1.1104 9.50397 -0.00608105 14.9747
455 2 2.2208 13.591 -1.42022 16.478
351 2 2.2208 7.96546 7.00562 13.6466
438 1 -1.1104 12.1761 -0.264276 20.517
450 1 -1.1104 9.33929 -0.123142 20.6593
460 2 2.2208 5.19352 7.10693 16.3927
461 2 2.2208 5.20872 12.6133 16.432
462 1 -1.1104 0.936452 8.23209 17.8156
464 1 -1.1104 0.898588 8.24229 15.0856
468 1 -1.1104 0.798693 5.45523 17.9566
469 1 -1.1104 1.08084 11.1082 17.8091
472 2 2.2208 5.15275 9.84033 19.4439
473 1 -1.1104 1.04923 5.43518 15.1177
475 1 -1.1104 0.821051 11.1386 15.1729
481 1 -1.1104 3.74495 8.43029 17.8641
482 2 2.2208 2.31208 6.95872 19.2196
483 2 2.2208 2.3228 12.5511 19.1691
484 1 -1.1104 3.78217 8.45665 15.0703
486 2 2.2208 2.35574 9.7274 16.5287
487 1 -1.1104 3.74684 5.62541 17.9391
488 1 -1.1104 3.68774 11.1084 18.0386
489 1 -1.1104 3.92597 5.58174 15.1175
491 1 -1.1104 3.74114 11.2366 15.141
477 1 -1.1104 6.70151 5.45807 14.8379
479 1 -1.1104 6.54346 11.218 15.2043
470 1 -1.1104 6.58529 5.55058 17.7093
471 1 -1.1104 6.53756 11.2216 18.0222
463 1 -1.1104 6.44877 8.59168 17.754
466 1 -1.1104 6.53739 8.33736 15.0917
480 1 -1.1104 6.60401 11.084 20.6609
563 1 -1.1104 12.2067 13.917 20.4811
467 1 -1.1104 6.586 8.39189 20.6704
465 1 -1.1104 1.03518 8.32568 20.6107
485 1 -1.1104 3.82398 8.4309 20.621
492 1 -1.1104 3.69541 11.3871 20.7669
451 2 2.2208 13.5806 9.86888 16.4723
496 2 2.2208 10.7943 7.01062 16.4777
497 2 2.2208 10.7611 12.625 16.5007
498 1 -1.1104 12.2539 8.4002 17.7459
499 1 -1.1104 12.1761 8.50523 15.063
501 1 -1.1104 12.2329 5.43019 17.9521
502 1 -1.1104 12.1745 11.2531 17.8146
503 2 2.2208 10.837 9.76609 19.3168
504 1 -1.1104 12.3211 5.69785 15.1397
506 1 -1.1104 12.1755 11.2739 15.0207
508 1 -1.1104 9.20969 8.3567 17.8317
509 2 2.2208 7.87982 7.01323 19.1675
510 2 2.2208 8.05595 12.4501 19.2455
511 1 -1.1104 9.39471 8.44618 15.0572
513 2 2.2208 7.96832 9.73991 16.4198
514 1 -1.1104 9.24616 5.63656 17.802
515 1 -1.1104 9.44524 11.0755 17.9263
516 1 -1.1104 9.57189 5.57025 15.0771
518 1 -1.1104 9.30916 11.2667 15.1202
425 2 2.2208 13.7043 12.6959 19.1679
426 2 2.2208 13.6278 7.02877 19.2958
517 1 -1.1104 9.32864 5.65427 20.6693
519 1 -1.1104 9.57719 11.134 20.7131
505 1 -1.1104 12.1529 5.58061 20.7454
523 2 2.2208 5.07665 18.1727 16.5129
524 1 -1.1104 0.930111 13.9214 17.7695
525 1 -1.1104 0.849844 19.4437 17.8646
528 1 -1.1104 0.915811 13.9638 14.9938
530 1 -1.1104 1.013 19.5932 15.0846
536 1 -1.1104 1.0229 16.6577 17.7994
538 2 2.2208 5.20832 15.4031 19.2791
539 2 2.2208 5.24105 21.0048 19.2896
540 1 -1.1104 0.935259 16.7329 15.0845
544 1 -1.1104 3.75423 13.9705 17.8718
545 1 -1.1104 3.64079 19.5272 17.9257
546 2 2.2208 2.22089 18.2174 19.2529
547 1 -1.1104 3.91191 14.0783 15.1221
549 1 -1.1104 3.76366 19.3496 15.0451
551 2 2.2208 2.28627 15.3828 16.4619
552 2 2.2208 2.36882 20.9267 16.4492
553 1 -1.1104 3.80055 16.8613 17.9334
554 1 -1.1104 3.62265 16.6969 15.1283
527 1 -1.1104 6.54629 19.5714 17.9966
532 1 -1.1104 6.61024 13.9896 15.0385
542 1 -1.1104 6.49452 16.8666 15.0697
537 1 -1.1104 6.52698 16.782 17.9689
526 1 -1.1104 6.53677 14.0476 17.8381
548 1 -1.1104 3.77652 14.1884 20.6389
534 1 -1.1104 6.45046 19.5199 15.1708
555 1 -1.1104 3.69625 16.8652 20.6948
529 1 -1.1104 0.966785 13.8947 20.7405
543 1 -1.1104 6.47581 16.847 20.736
550 1 -1.1104 3.76761 19.7693 20.7792
531 1 -1.1104 0.888009 19.4412 20.6267
9493 2 2.2208 13.6565 18.212 19.2727
559 2 2.2208 10.65 17.9821 16.3478
560 1 -1.1104 12.2481 13.9193 17.8317
561 1 -1.1104 12.0849 19.451 17.8004
562 1 -1.1104 12.3064 14.0232 14.9394
564 1 -1.1104 12.0596 19.3527 14.9981
566 1 -1.1104 12.2954 16.8045 17.8859
567 2 2.2208 10.7871 15.2643 19.2115
568 2 2.2208 10.8637 21.0328 19.3088
569 1 -1.1104 12.0779 16.682 15.0625
571 1 -1.1104 9.25788 13.9486 17.7457
572 1 -1.1104 9.48335 19.5837 17.8568
573 2 2.2208 7.97277 18.216 19.2654
574 1 -1.1104 9.41395 13.9479 14.9353
576 1 -1.1104 9.31672 19.5078 14.9389
578 2 2.2208 7.9649 15.4152 16.4435
579 2 2.2208 8.08905 20.8804 16.492
580 1 -1.1104 9.31307 16.773 17.7213
581 1 -1.1104 9.2997 16.7347 15.08
8614 2 2.2208 2.42433 -4.31767 19.3738
646 2 2.2208 13.6201 15.4005 16.4787
575 1 -1.1104 9.44954 13.9717 20.5499
565 1 -1.1104 12.1626 19.5696 20.6016
570 1 -1.1104 12.0646 16.8468 20.7995
611 1 -1.1104 9.32582 16.8561 23.5161
390 1 -1.1104 0.92183 -3.04303 20.7472
9159 2 2.2208 13.7561 21.0605 27.5782
416 1 -1.1104 3.64398 -0.0112222 20.6692
522 1 -1.1104 9.35339 13.7927 23.4955
402 1 -1.1104 0.881924 -0.110402 20.6389
587 2 2.2208 5.0661 1.39444 22.0085
588 1 -1.1104 0.984496 -2.80891 23.4857
589 1 -1.1104 0.872702 2.61957 23.56
592 1 -1.1104 0.901943 -2.82582 26.382
593 1 -1.1104 0.964795 2.76273 26.2325
596 1 -1.1104 0.823345 -0.158333 23.4242
598 2 2.2208 5.22179 -1.39592 24.8282
599 2 2.2208 5.11414 4.15185 24.8123
600 1 -1.1104 0.914276 -0.00254055 26.2014
602 1 -1.1104 3.81432 -2.88796 23.5305
603 1 -1.1104 3.65003 2.71676 23.4337
604 2 2.2208 2.25771 1.21658 24.8402
605 1 -1.1104 3.82313 -2.85679 26.1457
606 1 -1.1104 3.71528 2.59417 26.3711
607 2 2.2208 2.34976 -1.47378 22.1345
608 2 2.2208 2.29629 4.1765 22.0847
609 1 -1.1104 3.77601 -0.0662978 23.4649
610 1 -1.1104 3.79216 -0.0672843 26.2493
590 1 -1.1104 6.68286 -2.826 23.4685
591 1 -1.1104 6.51187 2.75694 23.4236
595 1 -1.1104 6.5638 2.63077 26.0815
594 1 -1.1104 6.56519 -2.87107 26.3251
597 1 -1.1104 6.4527 -0.0535852 23.279
601 1 -1.1104 6.71835 -0.109044 26.171
337 2 2.2208 2.41223 1.45419 13.715
614 1 -1.1104 12.2578 19.5113 23.4838
341 2 2.2208 10.8773 18.1652 27.7289
445 1 -1.1104 9.16369 2.76113 20.6458
443 1 -1.1104 9.40706 -2.86897 20.7823
649 2 2.2208 13.6824 -1.55718 22.2099
433 1 -1.1104 12.1028 2.84324 20.7787
8629 2 2.2208 5.25943 -4.39114 16.4941
431 1 -1.1104 12.2045 -2.86386 20.7757
623 2 2.2208 10.821 1.36427 22.1049
624 1 -1.1104 12.2285 -2.82106 23.7151
625 1 -1.1104 12.032 2.82582 23.713
626 1 -1.1104 12.123 -3.05966 26.3319
627 1 -1.1104 12.0793 2.72168 26.3341
628 1 -1.1104 12.1756 -0.071987 23.472
629 2 2.2208 10.7785 -1.45872 24.9334
631 1 -1.1104 12.3019 -0.071804 26.185
632 1 -1.1104 9.34786 -2.86902 23.6488
633 1 -1.1104 9.26844 2.68889 23.5204
634 2 2.2208 7.91869 1.25923 24.7792
635 1 -1.1104 9.39921 -2.87716 26.3559
636 1 -1.1104 9.38897 2.87958 26.3668
637 2 2.2208 8.09755 -1.49926 22.1232
638 2 2.2208 7.9537 4.15578 22.0587
639 1 -1.1104 9.37339 -0.0406784 23.4894
640 1 -1.1104 9.48953 -0.0344975 26.3014
630 2 2.2208 10.6722 4.14262 24.9136
423 2 2.2208 13.4637 4.11686 22.1861
344 2 2.2208 7.94033 1.2381 13.5667
476 1 -1.1104 0.923504 11.1526 20.7152
474 1 -1.1104 0.973628 5.59094 20.7479
490 1 -1.1104 3.70448 5.56577 20.6782
652 2 2.2208 5.10995 6.92261 22.1649
653 2 2.2208 5.23578 12.7307 22.0034
654 1 -1.1104 0.942818 8.21408 23.5251
656 1 -1.1104 0.975002 8.42678 26.3152
658 1 -1.1104 0.907308 5.45788 23.5663
659 1 -1.1104 0.902765 11.1789 23.4833
662 2 2.2208 5.14736 9.7808 24.983
663 1 -1.1104 0.918768 5.6862 26.3456
664 1 -1.1104 1.10486 11.0477 26.3281
667 1 -1.1104 3.70934 8.43203 23.4353
668 2 2.2208 2.23915 6.91944 24.9191
669 2 2.2208 2.4375 12.6015 24.8679
670 1 -1.1104 3.76706 8.39967 26.2931
671 2 2.2208 2.42622 9.79838 22.1749
672 1 -1.1104 3.6202 5.69865 23.417
673 1 -1.1104 3.73511 11.2341 23.4995
674 1 -1.1104 3.65102 5.50162 26.2204
675 1 -1.1104 3.85417 11.1587 26.3033
478 1 -1.1104 6.55983 5.65457 20.663
660 1 -1.1104 6.41859 5.60684 23.4833
657 1 -1.1104 6.64756 8.25974 26.2515
655 1 -1.1104 6.63469 8.36439 23.6149
665 1 -1.1104 6.49499 5.51784 26.3279
661 1 -1.1104 6.55128 11.3985 23.5485
666 1 -1.1104 6.67938 10.9608 26.3616
8610 2 2.2208 8.08715 -4.2903 19.2996
512 1 -1.1104 9.25363 8.47495 20.6104
712 2 2.2208 13.568 12.5323 24.8546
507 1 -1.1104 12.3688 11.0878 20.6078
706 2 2.2208 13.5876 6.87884 25.0017
500 1 -1.1104 12.0426 8.42699 20.7137
683 1 -1.1104 9.36449 11.2384 26.2869
684 1 -1.1104 9.2502 5.62699 26.3149
685 1 -1.1104 9.40057 11.0394 23.4496
686 1 -1.1104 9.33332 5.61322 23.5203
687 2 2.2208 7.94825 9.66123 22.1551
688 1 -1.1104 9.56392 8.5054 26.4059
689 2 2.2208 7.98425 12.4707 24.9426
690 2 2.2208 7.88926 6.90926 24.8606
691 2 2.2208 10.801 7.02381 22.1926
692 2 2.2208 10.8762 12.526 22.1439
693 1 -1.1104 12.2974 8.45631 23.5711
694 1 -1.1104 12.264 8.38139 26.3021
695 1 -1.1104 12.0591 5.56914 23.6054
696 1 -1.1104 12.1911 11.1645 23.5109
697 2 2.2208 10.7612 9.83788 25.0267
698 1 -1.1104 12.0407 5.6534 26.3211
699 1 -1.1104 12.2303 11.2613 26.323
700 1 -1.1104 9.44594 8.34837 23.5481
419 2 2.2208 13.6727 9.83497 22.136
583 1 -1.1104 9.43437 14.0652 26.2779
381 2 2.2208 10.7696 7.06562 27.7134
370 2 2.2208 2.2409 20.8844 27.6345
533 1 -1.1104 6.68385 14.0017 20.5363
541 1 -1.1104 0.977267 16.6424 20.6766
708 1 -1.1104 6.56677 13.7407 26.3446
711 1 -1.1104 0.8146 19.497 26.2722
709 1 -1.1104 3.78637 13.9415 23.4602
613 1 -1.1104 0.765856 16.7089 26.2054
641 2 2.2208 2.38358 15.3314 22.012
642 2 2.2208 2.43965 20.9965 22.1182
643 1 -1.1104 3.59397 16.7398 23.5842
647 1 -1.1104 0.962841 16.7151 23.4759
651 1 -1.1104 3.90654 13.9777 26.2594
676 1 -1.1104 3.72603 16.746 26.3955
677 2 2.2208 2.11999 18.0776 24.9229
678 1 -1.1104 3.85071 19.6832 26.4481
679 2 2.2208 5.02621 18.1372 22.0406
682 1 -1.1104 1.0151 14.0524 23.5758
701 1 -1.1104 0.880496 19.6791 23.4339
703 2 2.2208 5.12089 15.4543 24.7721
704 1 -1.1104 1.20389 13.9272 26.2899
705 2 2.2208 5.16755 20.9044 24.8705
707 1 -1.1104 3.57785 19.4071 23.5162
648 1 -1.1104 6.46431 16.9144 23.493
710 1 -1.1104 6.56737 16.686 26.1917
702 1 -1.1104 6.62557 14.245 23.4077
645 1 -1.1104 6.40905 19.5672 23.5071
558 1 -1.1104 6.60378 19.6426 26.1561
584 1 -1.1104 9.46359 19.5854 26.4239
17576 2 2.2208 13.5548 -4.33273 19.1976
9250 2 2.2208 13.6402 18.2671 24.9273
582 1 -1.1104 9.45673 16.8494 20.6461
586 2 2.2208 7.9251 20.9542 22.0697
459 1 -1.1104 12.098 13.874 26.3129
493 1 -1.1104 12.2853 19.7455 26.2133
535 1 -1.1104 6.62684 19.6506 20.7122
521 1 -1.1104 12.1146 16.7835 26.4062
577 1 -1.1104 9.28553 19.5857 20.6625
644 1 -1.1104 12.1811 13.9619 23.3952
612 1 -1.1104 9.29961 16.8696 26.3264
615 2 2.2208 10.7184 18.2039 22.0706
585 2 2.2208 7.97544 15.4733 21.9948
494 1 -1.1104 12.1495 16.8662 23.5265
9251 2 2.2208 13.5878 15.4408 22.0932
557 2 2.2208 7.95502 18.3111 24.895
520 2 2.2208 10.7823 21.0198 24.8918
9209 2 2.2208 13.5218 21.0272 22.0946
556 1 -1.1104 9.36389 19.6958 23.5407
8609 2 2.2208 5.25583 -4.19003 21.9325
458 2 2.2208 13.5458 4.16508 16.362
650 2 2.2208 13.5659 1.28708 24.9976
367 2 2.2208 10.7345 1.28681 27.7709
339 2 2.2208 5.26789 4.12472 13.7362
342 2 2.2208 13.5892 6.99162 13.6556
8512 2 2.2208 5.1825 -4.27704 27.7565
8516 2 2.2208 2.48141 -4.25443 13.791
369 2 2.2208 5.24959 18.148 27.6845
378 2 2.2208 5.15051 12.5446 27.7347
349 2 2.2208 5.19125 9.80163 13.6659
345 2 2.2208 10.9527 -1.49481 13.6248
364 2 2.2208 8.02905 20.9944 27.69
358 2 2.2208 10.8197 15.2437 13.5589
346 2 2.2208 13.7045 1.44426 13.6598
380 2 2.2208 -0.48823 6.9734 27.7346
361 2 2.2208 5.24023 1.30214 27.6813
352 2 2.2208 10.7753 9.86898 13.576
363 2 2.2208 2.34621 4.16707 27.6833
371 2 2.2208 8.00767 -1.51903 27.7391
383 2 2.2208 10.7497 12.4865 27.686
348 2 2.2208 2.4705 6.9725 13.6712
368 2 2.2208 2.39509 15.372 27.6721
714 2 2.2208 5.22387 23.7479 5.10337
715 2 2.2208 5.09483 29.415 5.23905
716 1 -1.1104 0.96868 25.1889 0.823591
717 1 -1.1104 1.14209 25.0228 3.58393
718 1 -1.1104 0.87293 22.4634 1.01533
719 1 -1.1104 1.24717 27.9954 0.885972
720 2 2.2208 5.33164 26.5985 2.34223
721 1 -1.1104 1.05117 22.1476 3.7369
722 1 -1.1104 0.961541 27.9105 3.63695
723 1 -1.1104 3.86669 24.8749 1.0742
724 2 2.2208 2.39247 23.6277 2.2752
725 2 2.2208 2.58571 29.344 2.30875
726 1 -1.1104 3.84263 25.1709 3.76262
727 2 2.2208 2.44741 26.4944 5.18601
728 1 -1.1104 3.75734 22.2289 0.975903
729 1 -1.1104 4.01804 27.8197 0.937526
730 1 -1.1104 3.83594 22.3101 3.77708
731 1 -1.1104 3.91138 27.9654 3.77837
858 1 -1.1104 1.07501 27.7606 6.38006
736 1 -1.1104 6.6718 25.2431 3.55958
739 1 -1.1104 6.7441 22.5168 3.72587
862 1 -1.1104 3.82557 22.2352 6.59707
737 1 -1.1104 6.68738 22.4433 0.947985
735 1 -1.1104 6.61528 25.3019 0.791726
857 1 -1.1104 1.02326 22.2914 6.53756
856 1 -1.1104 6.64497 25.163 6.35935
855 1 -1.1104 1.07767 25.0445 6.43139
861 1 -1.1104 3.83366 25.0816 6.63455
863 1 -1.1104 3.84377 27.8857 6.48784
860 1 -1.1104 6.74806 27.8983 6.4574
9713 2 2.2208 -0.469062 34.9017 10.9027
1037 2 2.2208 -0.223269 26.475 7.77626
740 1 -1.1104 6.59355 28.0482 3.6382
756 1 -1.1104 7.2379 28.1879 0.828648
741 2 2.2208 10.8065 23.5868 5.20998
742 2 2.2208 10.8953 29.5379 5.12377
743 1 -1.1104 12.4281 25.1571 0.964136
744 1 -1.1104 12.2986 25.0834 3.68306
745 1 -1.1104 12.3058 22.213 1.10711
746 1 -1.1104 12.5336 28.0144 1.11609
747 2 2.2208 11.101 26.6604 2.49764
748 1 -1.1104 12.3305 22.4265 3.88466
749 1 -1.1104 12.4276 28.0243 3.91816
750 1 -1.1104 9.61098 25.6681 1.06193
751 2 2.2208 8.10502 23.8405 2.38771
752 2 2.2208 8.11502 29.5559 2.40601
753 1 -1.1104 9.60363 25.1239 3.60888
754 2 2.2208 8.0938 26.6686 5.05532
755 1 -1.1104 9.61066 22.5589 1.07229
757 1 -1.1104 9.53296 22.2742 3.74176
758 1 -1.1104 9.50324 28.0361 3.49165
893 1 -1.1104 9.62656 27.9553 6.42813
1077 2 2.2208 2.59992 37.8657 -0.377595
889 1 -1.1104 12.1413 22.3234 6.66912
1031 2 2.2208 13.9191 32.4011 5.33685
1610 1 -1.1104 6.53497 47.6848 9.48836
890 1 -1.1104 12.2502 28.1928 6.57047
891 1 -1.1104 9.53362 25.1308 6.42517
1055 2 2.2208 8.01889 35.0249 13.6028
1057 2 2.2208 10.7669 32.2145 13.6953
762 2 2.2208 5.19245 35.0876 5.18061
763 1 -1.1104 1.11741 30.8146 0.922082
764 1 -1.1104 0.970969 36.4956 0.916944
766 1 -1.1104 1.29841 30.8024 3.806
767 1 -1.1104 1.23131 36.3804 3.64997
769 1 -1.1104 1.0981 33.6621 0.900621
770 2 2.2208 5.19827 32.3326 2.45047
771 2 2.2208 5.42222 37.9371 2.44131
772 1 -1.1104 1.1238 33.6743 3.79337
774 1 -1.1104 3.89273 30.7476 0.786036
775 1 -1.1104 3.89532 36.3869 0.924657
776 2 2.2208 2.54197 35.1271 2.41853
777 1 -1.1104 3.88497 30.9147 3.85429
778 1 -1.1104 3.84871 36.4364 3.86645
779 2 2.2208 2.38397 32.2548 5.39642
780 2 2.2208 2.5605 37.8349 5.20624
781 1 -1.1104 3.92026 33.6048 1.01077
782 1 -1.1104 3.72163 33.6678 3.73589
912 1 -1.1104 1.08554 30.4913 6.39824
916 1 -1.1104 1.10546 33.9117 6.5665
788 1 -1.1104 6.70155 33.735 0.927431
765 1 -1.1104 6.70958 36.4834 0.972138
787 1 -1.1104 6.75189 30.8717 3.84912
773 1 -1.1104 6.60832 33.7713 3.95323
768 1 -1.1104 6.7104 36.6589 3.82723
786 1 -1.1104 6.60935 30.8318 1.01818
920 1 -1.1104 3.87533 33.7387 6.55461
913 1 -1.1104 0.862549 36.6247 6.52924
919 1 -1.1104 3.72087 36.3497 6.6016
915 1 -1.1104 6.70423 36.4231 6.65014
917 1 -1.1104 6.51209 33.6074 6.60969
1619 1 -1.1104 3.89212 47.7156 12.2617
1051 2 2.2208 5.26942 32.1755 13.6772
1076 2 2.2208 8.14651 43.4647 -0.372112
789 2 2.2208 10.9918 35.082 5.2695
790 1 -1.1104 9.39313 30.9807 0.962833
791 1 -1.1104 12.2687 36.3739 1.18222
792 1 -1.1104 12.2223 30.7892 3.14216
793 1 -1.1104 12.2729 36.4937 3.94534
794 1 -1.1104 12.1236 33.678 1.07226