ITEM: TIMESTEP
80000
ITEM: NUMBER OF ATOMS
17820
ITEM: BOX BOUNDS pp pp pp
-3.5771462837693763e-01 2.7697714628377586e+01
-4.3425138744640570e+00 3.3242251387445708e+02
-3.6196449155623800e-01 2.7701964491555216e+01
ITEM: ATOMS id type q x y z
1 2 2.2208 5.30863 1.16184 5.24073
2 1 -1.1104 1.1933 -2.96851 0.918876
3 1 -1.1104 0.90972 2.61849 1.02141
6 1 -1.1104 1.11294 -2.8729 3.72413
7 1 -1.1104 1.19752 2.53583 3.79567
10 1 -1.1104 1.21646 -0.147327 1.05266
12 2 2.2208 5.41007 -1.60104 2.42417
13 2 2.2208 5.18447 4.00796 2.39074
14 1 -1.1104 1.11466 -0.049033 3.84696
16 1 -1.1104 3.9004 -2.92046 1.02922
17 1 -1.1104 3.67901 2.67022 1.08831
18 2 2.2208 2.45551 1.21454 2.43558
19 1 -1.1104 3.90463 -2.82637 3.84114
20 1 -1.1104 3.91823 2.73761 3.82842
21 2 2.2208 2.44565 -1.6835 5.22836
22 2 2.2208 2.48038 3.90639 5.26336
23 1 -1.1104 3.98714 -0.0606989 1.03182
24 1 -1.1104 3.88156 -0.14788 3.91729
15 1 -1.1104 6.69304 -0.376111 3.84355
9 1 -1.1104 6.71253 2.38577 3.79979
11 1 -1.1104 6.80057 -0.190514 1.10971
4 1 -1.1104 6.6642 -3.03816 1.00756
8 1 -1.1104 6.70245 -3.09963 3.9068
5 1 -1.1104 6.56949 2.74039 1.11488
171 1 -1.1104 6.75448 -0.222083 6.64945
168 1 -1.1104 6.68515 -3.02513 6.69865
373 2 2.2208 -0.247192 9.61874 13.8183
174 1 -1.1104 3.88795 -0.366983 6.71337
173 1 -1.1104 3.89299 2.49004 6.74859
170 1 -1.1104 1.11245 -0.144941 6.79127
366 2 2.2208 13.9037 9.61367 -0.502738
31 2 2.2208 10.9491 1.1242 5.2008
32 1 -1.1104 12.2017 -2.912 1.05699
33 1 -1.1104 12.1865 2.6535 0.893162
34 1 -1.1104 12.1787 -3.13643 3.82917
35 1 -1.1104 12.4068 2.6028 3.78543
36 1 -1.1104 12.2834 -0.242837 1.00019
37 2 2.2208 10.8253 -1.66347 2.37306
39 1 -1.1104 12.1251 -0.324611 3.76438
40 1 -1.1104 9.47717 -3.04517 1.04589
41 1 -1.1104 9.6284 2.4932 0.992807
42 2 2.2208 8.17111 1.22864 2.36508
43 1 -1.1104 9.37293 -3.02679 3.91131
44 1 -1.1104 9.61833 2.66687 3.79462
45 2 2.2208 8.10891 -1.59863 5.29549
47 1 -1.1104 9.47648 -0.225206 1.05975
48 1 -1.1104 9.44657 -0.178056 3.90996
46 2 2.2208 8.09462 4.00119 5.18379
17414 2 2.2208 13.6552 -4.44746 2.56304
330 2 2.2208 13.7072 4.03083 5.25764
8501 2 2.2208 10.7432 -4.43776 5.26568
38 2 2.2208 11.0309 4.05173 2.43765
206 1 -1.1104 12.3248 2.63967 6.63599
208 1 -1.1104 9.45099 -3.03806 6.68299
210 1 -1.1104 9.57268 -0.288344 6.7162
8502 2 2.2208 2.45131 -4.43745 7.98887
54 2 2.2208 5.31628 6.8347 5.1573
55 2 2.2208 5.46872 12.5359 5.23383
56 1 -1.1104 1.10758 8.20342 1.13035
58 1 -1.1104 1.1533 8.1288 3.89546
60 1 -1.1104 1.19789 5.39431 0.968028
61 1 -1.1104 0.986018 11.1302 1.05267
66 2 2.2208 5.41079 9.6966 2.38331
67 1 -1.1104 1.07163 5.42503 3.88872
68 1 -1.1104 1.14368 10.9368 3.81058
71 1 -1.1104 4.02769 8.24815 0.9949
72 2 2.2208 2.53808 6.83455 2.47173
73 2 2.2208 2.4939 12.3632 2.51491
74 1 -1.1104 3.98143 8.29263 3.78835
75 2 2.2208 2.54847 9.70718 5.29968
76 1 -1.1104 3.97733 5.44625 0.938539
77 1 -1.1104 3.88385 11.0432 1.11175
79 1 -1.1104 3.99651 5.41371 3.89101
80 1 -1.1104 4.00492 11.0402 3.94798
59 1 -1.1104 6.71352 8.39174 3.8745
57 1 -1.1104 6.7438 8.26303 0.995923
63 1 -1.1104 6.81142 5.4675 1.07802
70 1 -1.1104 6.79204 11.2547 3.71339
69 1 -1.1104 6.76167 5.35618 3.84967
64 1 -1.1104 6.75042 11.2283 0.991744
237 1 -1.1104 6.81107 5.4474 6.58827
65 1 -1.1104 6.75496 11.0763 6.63764
234 1 -1.1104 1.19324 8.33937 6.70453
235 1 -1.1104 6.60952 8.2333 6.61868
8500 2 2.2208 8.0423 -4.46133 2.33054
83 2 2.2208 -0.27094 12.35 5.29459
377 2 2.2208 2.58253 9.59447 -0.416284
84 2 2.2208 10.9387 6.84795 5.31394
85 2 2.2208 10.9044 12.4679 5.11503
86 1 -1.1104 12.5018 8.28994 0.837256
87 1 -1.1104 12.3211 8.40093 3.72626
88 1 -1.1104 12.345 5.3833 1.04343
89 1 -1.1104 12.3515 11.0171 0.875875
91 2 2.2208 10.9764 9.57682 2.32242
92 1 -1.1104 12.3808 5.52452 3.6831
93 1 -1.1104 12.3687 11.2165 3.84894
94 1 -1.1104 9.41906 8.19895 0.854882
95 2 2.2208 8.12704 6.88528 2.55764
96 2 2.2208 8.29237 12.5369 2.28999
97 1 -1.1104 9.524 8.28841 3.78872
98 2 2.2208 8.14527 9.71077 5.11885
99 1 -1.1104 9.50729 5.55651 1.06329
100 1 -1.1104 9.64722 11.1783 0.941681
102 1 -1.1104 9.58052 5.51991 3.83208
103 1 -1.1104 9.62196 10.9942 3.70868
345 2 2.2208 10.8393 -1.56868 13.8299
135 2 2.2208 -0.179285 15.1963 2.55847
202 2 2.2208 13.7602 9.72966 10.8239
101 1 -1.1104 9.43762 11.0384 6.59203
267 1 -1.1104 9.42837 8.35815 6.59689
269 1 -1.1104 9.48734 5.33301 6.63951
265 1 -1.1104 12.3392 8.24839 6.69674
266 1 -1.1104 12.2441 5.44616 6.66679
51 2 2.2208 -0.263488 9.65738 8.11353
106 2 2.2208 5.30996 17.9376 5.38675
107 1 -1.1104 1.24263 13.9171 1.07782
109 1 -1.1104 1.13187 19.5001 1.0063
113 1 -1.1104 1.08553 13.6948 3.9772
114 1 -1.1104 1.20961 19.4354 3.77448
116 1 -1.1104 1.18845 16.6648 1.21486
119 2 2.2208 5.39452 15.2546 2.46864
120 2 2.2208 5.39807 20.8684 2.45142
121 1 -1.1104 1.29358 16.6507 3.99104
123 1 -1.1104 4.06705 13.6634 1.04933
125 1 -1.1104 4.05557 19.4556 1.11042
127 2 2.2208 2.62925 18.0652 2.40776
128 1 -1.1104 4.01275 13.8732 3.92839
129 1 -1.1104 4.04757 19.5283 3.92043
130 2 2.2208 2.54932 15.1595 5.2032
131 2 2.2208 2.62175 20.83 5.31901
132 1 -1.1104 3.89303 16.5634 1.02167
134 1 -1.1104 4.02858 16.7385 3.85374
140 1 -1.1104 6.67497 16.7512 1.21117
139 1 -1.1104 6.9397 19.5063 3.63684
115 1 -1.1104 6.68561 14.0316 3.88633
110 1 -1.1104 6.83018 14.0272 1.09042
122 1 -1.1104 6.81546 16.796 3.99095
138 1 -1.1104 6.86283 19.7091 0.974006
118 1 -1.1104 6.82775 16.5455 6.72466
133 1 -1.1104 3.85498 16.6067 6.72679
117 1 -1.1104 1.14334 16.542 6.79759
112 1 -1.1104 6.75392 19.2608 6.52254
124 1 -1.1104 4.10349 13.7836 6.68344
382 2 2.2208 8.186 9.53303 -0.637052
336 2 2.2208 5.39398 -1.64539 13.714
346 2 2.2208 13.6651 1.11869 13.6908
163 1 -1.1104 9.68122 16.5871 6.61304
52 2 2.2208 -0.278936 12.4267 10.8664
141 2 2.2208 10.881 17.9873 5.20667
142 1 -1.1104 12.5053 13.8147 0.915417
144 1 -1.1104 12.4428 19.5062 1.1447
146 1 -1.1104 12.2905 13.9137 3.77929
147 1 -1.1104 12.4709 19.4097 3.88333
148 1 -1.1104 12.4834 16.7459 0.873687
150 2 2.2208 11.0877 15.311 2.36828
151 2 2.2208 10.9529 20.8599 2.48179
152 1 -1.1104 12.2819 16.7938 3.73873
153 1 -1.1104 9.77347 13.9626 0.999027
155 1 -1.1104 9.60498 19.4901 0.886872
157 2 2.2208 8.20749 18.1328 2.45731
158 1 -1.1104 9.59616 13.7979 3.70441
159 1 -1.1104 9.65155 19.3865 3.85657
160 2 2.2208 8.22303 15.2548 5.15118
161 2 2.2208 8.23834 20.8077 5.31237
162 1 -1.1104 9.54729 16.7385 0.916837
164 1 -1.1104 9.55312 16.6273 3.72167
149 1 -1.1104 12.4264 16.6179 6.57083
329 1 -1.1104 12.2783 19.4929 12.2038
143 1 -1.1104 12.2811 13.9446 6.4242
156 1 -1.1104 9.54819 19.3453 6.5455
145 1 -1.1104 12.3781 19.4731 6.54934
167 1 -1.1104 1.1548 2.5246 6.65418
166 1 -1.1104 0.983669 -3.05356 6.59016
172 1 -1.1104 3.86718 -3.00767 6.66311
169 1 -1.1104 6.60685 2.69566 6.66786
175 2 2.2208 5.22174 1.275 10.8882
176 1 -1.1104 1.08533 -2.94472 12.0883
177 1 -1.1104 1.24824 2.57465 12.3129
180 1 -1.1104 1.12965 -2.95952 9.31329
181 1 -1.1104 1.14538 2.74328 9.466
184 1 -1.1104 1.10969 -0.181194 12.2322
186 2 2.2208 5.26346 -1.59095 8.12494
188 1 -1.1104 1.1427 0.0132018 9.61031
190 1 -1.1104 3.97989 -2.92064 12.315
191 1 -1.1104 3.9816 2.67752 12.4491
192 2 2.2208 2.54824 1.16448 8.24217
193 1 -1.1104 3.87637 -2.96957 9.54117
194 1 -1.1104 3.93827 2.71938 9.49182
195 2 2.2208 2.45568 -1.6006 10.898
196 2 2.2208 2.51075 4.04649 10.93
197 1 -1.1104 3.8771 -0.198778 12.2356
198 1 -1.1104 3.83082 -0.18435 9.42704
187 2 2.2208 5.33085 4.04311 8.06528
189 1 -1.1104 6.5872 -0.173195 9.54988
178 1 -1.1104 6.66571 -3.04282 12.3162
185 1 -1.1104 6.72524 -0.272161 12.3314
182 1 -1.1104 6.55758 -3.01022 9.36138
179 1 -1.1104 6.67829 2.73188 12.242
183 1 -1.1104 6.6724 2.5297 9.33937
370 2 2.2208 2.53649 20.8996 -0.349016
230 2 2.2208 13.6547 -1.74229 11.0842
209 1 -1.1104 9.39982 2.53726 6.51205
205 1 -1.1104 12.1602 -2.90617 6.65964
321 1 -1.1104 9.64612 19.4305 12.206
328 1 -1.1104 12.4618 13.6782 9.31113
207 1 -1.1104 12.244 -0.213502 6.74401
50 2 2.2208 13.6623 -1.60974 5.31309
322 1 -1.1104 9.45837 13.8623 12.2241
229 2 2.2208 13.6637 1.21609 8.12379
211 2 2.2208 10.8512 1.1461 10.8293
212 1 -1.1104 12.4153 -3.12502 12.3674
213 1 -1.1104 12.1729 2.4758 12.2374
214 1 -1.1104 12.2767 -2.91726 9.45648
215 1 -1.1104 12.1899 2.66252 9.42251
216 1 -1.1104 12.4223 -0.285108 12.402
217 2 2.2208 10.839 -1.59352 8.0931
219 1 -1.1104 12.1661 -0.0984989 9.59266
220 1 -1.1104 9.53173 -2.90272 12.4077
221 1 -1.1104 9.38013 2.57226 12.1113
222 2 2.2208 8.09176 1.16837 7.9806
223 1 -1.1104 9.36778 -3.04836 9.53518
224 1 -1.1104 9.47573 2.57687 9.34455
225 2 2.2208 7.99773 -1.7489 10.8263
226 2 2.2208 8.09398 4.04758 10.6745
227 1 -1.1104 9.63684 -0.213586 12.3285
228 1 -1.1104 9.36263 -0.289627 9.50403
218 2 2.2208 10.9655 3.96232 7.9879
233 1 -1.1104 12.2367 13.8617 12.1159
320 2 2.2208 8.16946 17.9606 7.98642
324 2 2.2208 10.9785 20.75 7.95768
316 2 2.2208 8.16902 20.7734 10.8208
325 2 2.2208 11.0299 15.0816 7.98776
78 1 -1.1104 4.09693 11.1843 6.74981
239 1 -1.1104 3.95022 5.45578 6.66894
315 1 -1.1104 9.69657 16.6724 12.215
62 1 -1.1104 1.18436 11.0908 6.75023
238 1 -1.1104 3.95101 8.40259 6.66029
236 1 -1.1104 1.13598 5.37151 6.59114
240 2 2.2208 5.2956 6.89725 10.8043
241 2 2.2208 5.3092 12.5268 10.9393
242 1 -1.1104 0.996578 8.32765 12.2945
244 1 -1.1104 1.09088 8.33831 9.46072
246 1 -1.1104 1.08078 5.45684 12.2545
247 1 -1.1104 0.94365 11.1742 12.3949
250 2 2.2208 5.38018 9.77514 8.0739
251 1 -1.1104 1.14747 5.48926 9.45756
252 1 -1.1104 1.29592 11.1088 9.48679
255 1 -1.1104 3.7467 8.34472 12.3712
256 2 2.2208 2.55283 6.8565 8.10956
257 2 2.2208 2.59816 12.493 8.0837
258 1 -1.1104 3.959 8.26536 9.57119
259 2 2.2208 2.46137 9.74344 10.9057
260 1 -1.1104 3.89003 5.49045 12.2818
261 1 -1.1104 3.76527 11.1803 12.1756
262 1 -1.1104 3.90315 5.60297 9.50819
263 1 -1.1104 3.96435 10.9556 9.52269
253 1 -1.1104 6.67117 5.52658 9.39222
254 1 -1.1104 6.66345 11.1459 9.5221
243 1 -1.1104 6.68506 8.41207 12.1463
245 1 -1.1104 6.76063 8.36895 9.35347
249 1 -1.1104 6.69715 11.2009 12.3473
248 1 -1.1104 6.6367 5.42886 12.1331
90 1 -1.1104 12.315 11.0883 6.65382
323 1 -1.1104 12.2226 16.6147 9.28436
199 2 2.2208 -0.287432 3.9384 8.15311
105 2 2.2208 13.7676 6.89129 2.30441
264 1 -1.1104 9.51264 11.0275 9.41073
268 1 -1.1104 9.51597 5.53908 9.47651
270 1 -1.1104 9.42045 11.087 12.3543
271 1 -1.1104 9.52335 5.38672 12.1243
272 2 2.2208 8.08861 9.7356 10.8304
273 1 -1.1104 9.49397 8.30373 9.31611
274 2 2.2208 8.15982 12.5011 8.06452
275 2 2.2208 8.14081 6.78213 8.08935
276 2 2.2208 10.9313 6.9435 10.9296
277 2 2.2208 10.8492 12.4143 10.9044
278 1 -1.1104 12.2421 8.29541 12.2752
279 1 -1.1104 12.3495 8.26959 9.41473
280 1 -1.1104 12.1806 5.45666 12.2839
281 1 -1.1104 12.2416 11.0551 12.2477
282 2 2.2208 10.9114 9.738 7.95459
283 1 -1.1104 12.3445 5.54675 9.46591
284 1 -1.1104 12.2226 10.9995 9.42022
285 1 -1.1104 9.55772 8.33857 12.2458
314 1 -1.1104 9.49299 16.6162 9.52074
318 1 -1.1104 9.53462 19.2947 9.45548
355 2 2.2208 5.41623 20.9235 13.6752
302 1 -1.1104 1.33595 19.4782 6.54085
126 1 -1.1104 3.86318 19.4415 6.70412
111 1 -1.1104 6.90886 13.7312 6.58453
108 1 -1.1104 1.18393 13.8809 6.72131
290 1 -1.1104 6.81151 13.7423 9.48228
296 1 -1.1104 6.90623 19.4406 12.1926
288 1 -1.1104 6.79032 19.4876 9.43144
309 2 2.2208 2.63992 20.9173 10.8742
304 1 -1.1104 4.05057 16.6523 9.47739
299 1 -1.1104 0.944301 13.9773 12.2262
303 2 2.2208 2.50596 17.8851 8.10218
310 2 2.2208 2.46325 15.3713 10.9199
308 1 -1.1104 3.97634 16.7224 12.2223
307 1 -1.1104 1.0731 16.9016 12.3271
305 1 -1.1104 3.93358 13.9574 9.51419
295 2 2.2208 5.44066 15.0829 8.04463
294 1 -1.1104 1.07848 13.6817 9.47191
300 2 2.2208 5.55712 18.1883 10.8844
301 1 -1.1104 3.98086 19.4484 9.459
298 1 -1.1104 1.41105 19.6173 12.3657
286 1 -1.1104 4.05313 19.4677 12.2542
287 1 -1.1104 3.87961 13.8799 12.2704
291 1 -1.1104 1.18653 19.3519 9.45541
292 1 -1.1104 1.09739 16.6037 9.60699
293 2 2.2208 5.38159 20.9588 8.00462
289 1 -1.1104 6.77094 16.7126 9.43938
306 1 -1.1104 6.76603 16.7583 12.3139
297 1 -1.1104 6.7642 13.995 12.1434
326 1 -1.1104 12.4017 16.7696 12.2257
154 1 -1.1104 9.49014 13.8915 6.52234
327 1 -1.1104 12.4629 19.4246 9.33508
319 1 -1.1104 9.6294 13.7633 9.49658
204 2 2.2208 10.9781 18.0028 10.7968
317 2 2.2208 8.14212 15.3261 10.8156
81 2 2.2208 -0.257201 6.7622 5.36785
313 2 2.2208 -0.33177 15.2631 8.16528
356 2 2.2208 5.35936 15.2507 13.7257
29 2 2.2208 -0.30019 6.79413 10.8939
311 2 2.2208 -0.260578 20.7594 8.16422
27 2 2.2208 -0.361243 4.02937 2.38503
352 2 2.2208 10.8944 9.634 13.6303
353 2 2.2208 8.10667 12.4882 13.6313
713 2 2.2208 -0.165397 17.9902 -0.235683
137 2 2.2208 -0.207405 18.0814 5.31385
362 2 2.2208 2.50575 -1.58614 -0.418277
231 2 2.2208 13.809 6.87412 8.05971
339 2 2.2208 5.22997 4.14516 13.7293
358 2 2.2208 11.0623 15.2691 13.7097
367 2 2.2208 10.9302 1.2148 -0.437158
337 2 2.2208 2.44589 1.20929 13.7036
368 2 2.2208 2.72198 15.2039 -0.429463
342 2 2.2208 13.6992 7.02093 13.6966
371 2 2.2208 8.0996 -1.57414 -0.297854
374 2 2.2208 13.6436 -1.59261 -0.44129
363 2 2.2208 2.4852 4.06998 -0.405878
364 2 2.2208 8.17189 20.9553 -0.500143
369 2 2.2208 5.45759 18.0948 -0.4929
384 2 2.2208 5.25049 1.19561 16.5093
385 1 -1.1104 0.850944 -2.94482 17.7725
386 1 -1.1104 1.16164 2.89098 18.0167
389 1 -1.1104 1.07892 -2.97521 14.9676
391 1 -1.1104 1.15687 2.66931 15.0692
397 1 -1.1104 1.01481 0.0364571 18.0144
399 2 2.2208 5.1394 -1.55964 19.2936
400 2 2.2208 5.21542 3.92346 19.2853
401 1 -1.1104 1.0276 -0.202109 15.0917
405 1 -1.1104 3.64663 -2.90098 17.9269
406 1 -1.1104 3.73943 2.59115 17.9963
407 2 2.2208 2.47352 1.19835 19.2998
408 1 -1.1104 3.90516 -2.9728 15.1148
410 1 -1.1104 3.83822 2.67923 15.2052
412 2 2.2208 2.44467 -1.53674 16.3492
413 2 2.2208 2.44446 4.05151 16.6027
414 1 -1.1104 3.73382 -0.158709 17.8207
415 1 -1.1104 3.77936 -0.181492 14.8451
388 1 -1.1104 6.57739 2.60539 17.8925
403 1 -1.1104 6.56588 -0.115703 15.042
393 1 -1.1104 6.7136 -2.89219 15.1275
395 1 -1.1104 6.62237 2.59531 15.064
387 1 -1.1104 6.46078 -2.99602 17.9468
396 1 -1.1104 6.58263 2.34526 20.6637
409 1 -1.1104 3.82849 -2.84127 20.6554
8629 2 2.2208 5.24052 -4.39499 16.5839
9494 2 2.2208 -0.171234 17.9901 22.2794
455 2 2.2208 13.7744 -1.54769 16.4482
9208 2 2.2208 -0.261551 20.8007 25.0095
404 1 -1.1104 6.63711 -0.372648 20.653
394 1 -1.1104 6.55756 -3.02868 20.7884
620 2 2.2208 -0.374069 -1.63647 24.9311
520 2 2.2208 11.0217 20.839 24.8678
398 1 -1.1104 6.75412 -0.277405 17.8607
614 1 -1.1104 12.4438 19.5814 23.5479
426 2 2.2208 13.7234 6.88784 19.2948
427 2 2.2208 10.8275 1.33471 16.4524
428 1 -1.1104 12.2759 -2.82673 17.8672
429 1 -1.1104 12.2593 2.68687 17.9006
430 1 -1.1104 12.267 -2.83741 15.049
432 1 -1.1104 12.2553 2.73125 14.9641
434 1 -1.1104 12.2205 -0.0694216 17.8255
435 2 2.2208 10.7563 -1.53131 19.3704
436 2 2.2208 10.8007 3.9175 19.2195
437 1 -1.1104 12.2559 0.00886778 15.0833
439 1 -1.1104 9.30197 -2.91777 17.9655
440 1 -1.1104 9.35029 2.66084 17.8926
441 2 2.2208 7.95023 1.21124 19.2607
442 1 -1.1104 9.54582 -2.98038 15.1895
444 1 -1.1104 9.36782 2.5949 15.1478
446 2 2.2208 8.11409 -1.54758 16.4829
447 2 2.2208 8.01989 3.9913 16.4312
448 1 -1.1104 9.5151 -0.101822 17.9043
449 1 -1.1104 9.45297 -0.19448 15.0477
619 2 2.2208 -0.245973 15.1093 25.0462
372 2 2.2208 8.14111 3.99319 27.7204
438 1 -1.1104 12.1975 -0.264298 20.7329
493 1 -1.1104 12.4177 19.4591 26.3389
585 2 2.2208 8.07771 15.2766 22.0125
460 2 2.2208 5.30873 6.91467 16.5003
461 2 2.2208 5.36265 12.3427 16.5091
462 1 -1.1104 0.922109 8.23063 17.938
464 1 -1.1104 1.12147 8.28844 15.0746
468 1 -1.1104 1.01749 5.47462 17.9332
469 1 -1.1104 1.04719 11.0027 17.9264
472 2 2.2208 5.3417 9.53873 19.3135
473 1 -1.1104 0.943894 5.61351 14.992
475 1 -1.1104 1.20622 11.0573 15.0689
481 1 -1.1104 3.86614 8.25166 18.0111
482 2 2.2208 2.40104 7.01971 19.3684
483 2 2.2208 2.53295 12.3576 19.312
484 1 -1.1104 4.05976 8.38543 15.2427
486 2 2.2208 2.51393 9.83513 16.5087
487 1 -1.1104 3.76985 5.4783 17.9399
488 1 -1.1104 4.01264 11.0399 17.9675
489 1 -1.1104 3.90279 5.60615 15.1122
491 1 -1.1104 3.94924 11.0025 14.971
471 1 -1.1104 6.86065 10.9609 17.9718
479 1 -1.1104 6.76209 10.876 15.1427
463 1 -1.1104 6.71908 8.11847 17.8466
470 1 -1.1104 6.6764 5.37544 17.7734
466 1 -1.1104 6.76534 8.08146 14.946
477 1 -1.1104 6.8096 5.51602 15.0537
490 1 -1.1104 3.86189 5.47063 20.5748
522 1 -1.1104 9.46729 13.8275 23.2452
485 1 -1.1104 3.86598 8.23483 20.8618
478 1 -1.1104 6.6527 5.21567 20.7255
480 1 -1.1104 6.59393 11.0867 20.7348
474 1 -1.1104 1.0089 5.46736 20.739
467 1 -1.1104 6.67903 8.11266 20.5794
615 2 2.2208 10.8716 18.0242 22.117
496 2 2.2208 10.9163 6.68414 16.296
497 2 2.2208 10.8422 12.3375 16.4415
498 1 -1.1104 12.3482 8.2446 17.934
499 1 -1.1104 12.339 8.24594 15.1237
501 1 -1.1104 12.3209 5.51091 17.6908
502 1 -1.1104 12.3713 11.0542 17.6984
503 2 2.2208 10.9114 9.50743 19.2406
504 1 -1.1104 12.2763 5.50684 14.8665
506 1 -1.1104 12.1754 11.1201 14.949
508 1 -1.1104 9.58691 8.25525 17.79
509 2 2.2208 8.07418 6.70118 19.1605
510 2 2.2208 8.24734 12.2959 19.3208
511 1 -1.1104 9.56036 8.24768 15.039
513 2 2.2208 8.16081 9.503 16.4564
514 1 -1.1104 9.5473 5.51396 17.6815
515 1 -1.1104 9.49182 11.0389 17.7944
516 1 -1.1104 9.37787 5.40406 14.889
518 1 -1.1104 9.48702 10.9997 15.0935
457 2 2.2208 13.7383 1.14883 19.3238
681 2 2.2208 -0.204352 12.3895 22.0757
459 1 -1.1104 12.423 13.8736 26.1517
507 1 -1.1104 12.3824 10.9483 20.5503
512 1 -1.1104 9.51973 8.20012 20.5666
505 1 -1.1104 12.2694 5.27731 20.4912
517 1 -1.1104 9.41016 5.47702 20.608
500 1 -1.1104 12.3034 8.13948 20.604
710 1 -1.1104 6.79062 16.7925 26.2487
644 1 -1.1104 12.2876 13.9138 23.3185
523 2 2.2208 5.307 18.1522 16.468
524 1 -1.1104 1.10024 13.8173 17.8787
525 1 -1.1104 0.932894 19.4538 17.9077
528 1 -1.1104 1.07458 13.8373 15.133
530 1 -1.1104 1.21234 19.4276 15.0627
536 1 -1.1104 1.17976 16.5453 17.8791
538 2 2.2208 5.37846 15.1722 19.3001
539 2 2.2208 5.21779 20.9136 19.3152
540 1 -1.1104 1.01126 16.625 15.2285
544 1 -1.1104 3.92664 13.696 17.8071
545 1 -1.1104 3.7971 19.6883 17.8596
546 2 2.2208 2.57274 18.173 19.3319
547 1 -1.1104 3.84628 13.7277 15.0555
549 1 -1.1104 4.09476 19.5996 15.0419
551 2 2.2208 2.58208 15.2486 16.4811
552 2 2.2208 2.49024 20.9039 16.4821
553 1 -1.1104 3.89511 16.7626 17.9227
554 1 -1.1104 3.83816 16.5447 14.9604
537 1 -1.1104 6.67333 16.7148 17.9951
532 1 -1.1104 6.74087 13.7885 15.0051
527 1 -1.1104 6.63197 19.6969 17.7568
534 1 -1.1104 6.93092 19.541 14.9562
542 1 -1.1104 6.75134 16.641 15.2156
526 1 -1.1104 6.65099 13.8034 17.8195
543 1 -1.1104 6.80993 16.757 20.6543
548 1 -1.1104 3.90521 13.8107 20.5762
531 1 -1.1104 1.12787 19.5251 20.7014
550 1 -1.1104 3.98159 19.5411 20.7199
555 1 -1.1104 4.08179 16.4332 20.8556
586 2 2.2208 8.2047 20.9132 22.0029
559 2 2.2208 10.8935 18.0344 16.4468
560 1 -1.1104 12.2639 13.7725 17.8396
561 1 -1.1104 12.3192 19.4995 17.9575
562 1 -1.1104 12.4307 13.9419 14.984
564 1 -1.1104 12.5151 19.4716 15.0153
566 1 -1.1104 12.3068 16.6781 17.7173
567 2 2.2208 10.8093 15.1308 19.1817
568 2 2.2208 10.7672 20.8807 19.1653
569 1 -1.1104 12.3179 16.7395 15.0939
571 1 -1.1104 9.62736 13.7195 17.8131
572 1 -1.1104 9.3776 19.2964 17.9697
573 2 2.2208 8.19418 18.0425 19.4174
574 1 -1.1104 9.44736 13.805 15.0172
576 1 -1.1104 9.7292 19.6761 15.1304
578 2 2.2208 7.98909 15.0943 16.4812
579 2 2.2208 8.11515 20.8333 16.5173
580 1 -1.1104 9.48618 16.4874 17.9551
581 1 -1.1104 9.52508 16.7116 14.979
347 2 2.2208 10.9128 3.98921 13.5938
458 2 2.2208 13.6953 3.95764 16.5066
575 1 -1.1104 9.52992 13.7972 20.5527
617 2 2.2208 -0.44606 20.9079 19.3134
565 1 -1.1104 12.334 19.3503 20.6312
570 1 -1.1104 12.353 16.5941 20.636
563 1 -1.1104 12.469 13.688 20.5324
582 1 -1.1104 9.5074 16.5947 20.6648
577 1 -1.1104 9.48104 19.5738 20.736
392 1 -1.1104 1.03389 2.6353 20.7454
521 1 -1.1104 12.3473 16.6048 26.1178
390 1 -1.1104 1.10901 -3.09225 20.6633
411 1 -1.1104 3.83425 2.61363 20.7853
402 1 -1.1104 0.837257 -0.221235 20.7079
557 2 2.2208 8.18736 18.065 24.864
351 2 2.2208 8.0357 6.81856 13.5148
416 1 -1.1104 3.73322 -0.147019 20.6718
587 2 2.2208 5.21969 1.13545 22.1492
588 1 -1.1104 1.07023 -2.94921 23.5693
589 1 -1.1104 1.16204 2.50298 23.5268
592 1 -1.1104 0.939874 -3.22385 26.2542
593 1 -1.1104 1.16045 2.51338 26.4634
596 1 -1.1104 0.955562 -0.300197 23.5049
598 2 2.2208 5.10764 -1.72426 24.8853
600 1 -1.1104 1.0061 -0.323494 26.3539
602 1 -1.1104 3.7922 -3.06187 23.572
603 1 -1.1104 3.86562 2.65329 23.4537
604 2 2.2208 2.41624 1.15574 24.885
605 1 -1.1104 3.58409 -3.28349 26.3208
606 1 -1.1104 3.8734 2.56798 26.2361
607 2 2.2208 2.3702 -1.49591 22.0384
609 1 -1.1104 3.78521 -0.286122 23.412
610 1 -1.1104 3.85376 -0.277794 26.1506
599 2 2.2208 5.22041 3.93416 24.9895
608 2 2.2208 2.355 3.97903 22.0516
597 1 -1.1104 6.37149 -0.155123 23.6352
591 1 -1.1104 6.64112 2.60807 23.4931
594 1 -1.1104 6.5482 -3.05024 26.2955
601 1 -1.1104 6.62136 -0.282656 26.3538
595 1 -1.1104 6.61047 2.45399 26.3374
451 2 2.2208 13.7019 9.62922 16.376
423 2 2.2208 13.6954 3.88288 22.0475
495 2 2.2208 11.0073 15.2505 24.7999
433 1 -1.1104 12.0063 2.40403 20.622
445 1 -1.1104 9.29466 2.70674 20.5929
590 1 -1.1104 6.62988 -3.03705 23.5311
431 1 -1.1104 12.2626 -2.95852 20.592
443 1 -1.1104 9.30842 -2.9261 20.7283
422 2 2.2208 -0.480041 9.6296 19.3261
450 1 -1.1104 9.40233 -0.149194 20.917
341 2 2.2208 11.0087 18.1388 27.6253
623 2 2.2208 10.8155 1.17515 22.243
624 1 -1.1104 12.0466 -3.15325 23.4132
625 1 -1.1104 12.3124 2.37973 23.4686
626 1 -1.1104 12.2675 -3.07214 26.2038
627 1 -1.1104 12.2837 2.5792 26.1646
628 1 -1.1104 12.1841 -0.38374 23.5177
629 2 2.2208 10.8842 -1.73489 25.0138
631 1 -1.1104 12.3802 -0.0928785 26.3484
632 1 -1.1104 9.23143 -2.95982 23.5217
633 1 -1.1104 9.41663 2.49354 23.5118
634 2 2.2208 7.96729 1.128 24.9242
635 1 -1.1104 9.43705 -3.07295 26.4339
636 1 -1.1104 9.50993 2.55884 26.3098
637 2 2.2208 8.04767 -1.54242 22.1601
638 2 2.2208 7.92855 3.92581 22.1245
639 1 -1.1104 9.37382 -0.169923 23.5672
640 1 -1.1104 9.50752 -0.18167 26.4709
630 2 2.2208 10.8267 3.88009 24.8607
584 1 -1.1104 9.6168 19.4414 26.287
424 2 2.2208 -0.361359 12.508 16.4431
556 1 -1.1104 9.39789 19.3245 23.448
343 2 2.2208 -0.389833 3.97236 13.6561
465 1 -1.1104 1.16021 8.25737 20.7301
476 1 -1.1104 1.19724 11.0839 20.6811
492 1 -1.1104 3.91827 11.0047 20.738
652 2 2.2208 5.30593 6.77916 22.0459
653 2 2.2208 5.39431 12.4563 22.093
654 1 -1.1104 1.07963 8.25415 23.5348
656 1 -1.1104 1.16647 8.12791 26.4239
658 1 -1.1104 1.09436 5.41774 23.4702
659 1 -1.1104 1.19816 10.9423 23.5354
662 2 2.2208 5.20247 9.62958 24.897
663 1 -1.1104 1.04998 5.3236 26.262
664 1 -1.1104 1.19284 11.0066 26.3376
667 1 -1.1104 3.98865 8.23306 23.5257
668 2 2.2208 2.42043 6.7872 24.8212
669 2 2.2208 2.5393 12.3369 24.8605
670 1 -1.1104 3.98026 8.34014 26.3039
671 2 2.2208 2.48289 9.63321 22.2672
672 1 -1.1104 3.8261 5.41256 23.4775
673 1 -1.1104 3.84173 11.0127 23.5563
674 1 -1.1104 3.85581 5.37327 26.3003
675 1 -1.1104 3.98471 11.0864 26.358
657 1 -1.1104 6.84723 8.01455 26.1886
655 1 -1.1104 6.7082 8.10821 23.423
661 1 -1.1104 6.72654 10.9099 23.5353
660 1 -1.1104 6.68115 5.41725 23.5077
666 1 -1.1104 6.68667 10.891 26.298
665 1 -1.1104 6.63744 5.21669 26.2884
649 2 2.2208 13.6182 -1.55437 22.0946
519 1 -1.1104 9.53899 10.8664 20.7752
650 2 2.2208 13.6616 1.16674 24.9393
683 1 -1.1104 9.37955 11.0829 26.2339
684 1 -1.1104 9.48535 5.30177 26.2932
685 1 -1.1104 9.60835 11.0201 23.4691
686 1 -1.1104 9.6324 5.37207 23.5347
687 2 2.2208 8.09494 9.47626 22.1237
688 1 -1.1104 9.62005 8.1884 26.1287
689 2 2.2208 8.268 12.4503 24.8151
690 2 2.2208 8.0873 6.67833 24.8431
691 2 2.2208 10.8946 6.67189 21.9632
692 2 2.2208 10.9926 12.4676 22.004
693 1 -1.1104 12.394 8.11257 23.3176
694 1 -1.1104 12.371 8.36892 26.0573
695 1 -1.1104 12.3028 5.28538 23.3773
696 1 -1.1104 12.3925 11.0284 23.3854
697 2 2.2208 10.9566 9.57542 24.7885
698 1 -1.1104 12.253 5.42539 26.325
699 1 -1.1104 12.206 11.0393 26.1905
700 1 -1.1104 9.4916 8.02106 23.4328
378 2 2.2208 5.41357 12.3868 27.6626
616 2 2.2208 -0.322664 15.2072 19.3802
612 1 -1.1104 9.63125 16.7376 26.3208
454 2 2.2208 -0.300904 18.0552 16.5323
680 2 2.2208 -0.32214 9.59333 24.9785
535 1 -1.1104 6.70096 19.4679 20.626
529 1 -1.1104 1.12078 13.9217 20.8182
541 1 -1.1104 1.16625 16.85 20.5833
533 1 -1.1104 6.68855 13.9094 20.581
708 1 -1.1104 6.88021 13.9529 26.2584
648 1 -1.1104 6.9314 16.6145 23.4932
702 1 -1.1104 6.8384 13.8343 23.364
558 1 -1.1104 6.78809 19.4813 26.156
711 1 -1.1104 1.33886 19.4872 26.3065
709 1 -1.1104 4.01294 13.6827 23.4904
613 1 -1.1104 1.16539 16.5305 26.4437
641 2 2.2208 2.70282 15.2159 22.0246
642 2 2.2208 2.44834 20.9129 22.0169
643 1 -1.1104 4.1225 16.5968 23.4754
647 1 -1.1104 1.4152 16.6066 23.4405
651 1 -1.1104 4.05783 13.8512 26.2297
676 1 -1.1104 4.03688 16.6304 26.358
677 2 2.2208 2.70654 17.9708 24.9075
678 1 -1.1104 4.04544 19.4578 26.2227
679 2 2.2208 5.35403 18.0573 22.1173
682 1 -1.1104 1.21827 13.7534 23.5579
701 1 -1.1104 1.24386 19.2933 23.6236
703 2 2.2208 5.44523 15.1648 24.8715
704 1 -1.1104 1.2074 13.6939 26.3716
705 2 2.2208 5.39674 20.8211 24.7022
707 1 -1.1104 3.96402 19.4146 23.5104
645 1 -1.1104 6.83823 19.3996 23.3941
344 2 2.2208 8.12939 1.18667 13.5751
611 1 -1.1104 9.52441 16.6575 23.3851
583 1 -1.1104 9.63609 13.9731 26.2018
494 1 -1.1104 12.3783 16.7104 23.3847
453 2 2.2208 -0.325607 15.2537 13.6377
357 2 2.2208 11.0511 20.8921 13.6466
340 2 2.2208 8.2115 15.2739 27.6357
376 2 2.2208 5.24894 6.88841 27.738
381 2 2.2208 10.9314 6.81361 27.645
383 2 2.2208 11.003 12.3783 27.6059
379 2 2.2208 -0.18393 12.5327 27.8061
350 2 2.2208 2.47021 12.554 13.6422
452 2 2.2208 -0.207352 20.8632 13.6049
361 2 2.2208 5.34974 1.29337 27.8037
359 2 2.2208 8.19236 18.1808 13.597
349 2 2.2208 5.30005 9.69537 13.5902
348 2 2.2208 2.37371 6.86872 13.741
354 2 2.2208 2.5879 18.1536 13.7148
714 2 2.2208 5.37216 23.6084 5.23481
715 2 2.2208 5.33404 29.3015 5.30066
716 1 -1.1104 1.23214 25.0239 1.13089
717 1 -1.1104 1.16621 25.104 3.89373
718 1 -1.1104 1.17996 22.3411 0.980573
719 1 -1.1104 1.17382 27.8852 1.09525
720 2 2.2208 5.32635 26.5254 2.53531
721 1 -1.1104 1.2301 22.3331 3.98008
722 1 -1.1104 1.03866 27.9144 3.90449
723 1 -1.1104 3.90308 25.1227 0.876541
724 2 2.2208 2.70176 23.6011 2.41211
725 2 2.2208 2.53479 29.3624 2.47916
726 1 -1.1104 3.98643 24.9877 3.89279
727 2 2.2208 2.56509 26.4773 5.17723
728 1 -1.1104 4.10573 22.3369 0.985575
729 1 -1.1104 4.30344 27.925 1.15228
730 1 -1.1104 3.9062 22.1862 3.78451
731 1 -1.1104 3.86645 27.8299 3.72817
737 1 -1.1104 6.85747 22.3627 0.930238
855 1 -1.1104 1.22531 25.0219 6.58299
736 1 -1.1104 6.79894 25.2177 3.6713
740 1 -1.1104 6.70305 28.1243 3.94197
859 1 -1.1104 6.6916 22.1534 6.54121
861 1 -1.1104 4.07918 25.1347 6.72784
863 1 -1.1104 4.09183 27.8269 6.44685
858 1 -1.1104 1.27474 27.793 6.59906
1601 1 -1.1104 1.06687 47.5001 6.78248
1030 2 2.2208 13.6413 37.6788 5.21196
735 1 -1.1104 6.63204 25.0863 0.968577
739 1 -1.1104 6.83903 22.4077 3.87404
733 2 2.2208 -0.178893 23.636 5.29045
756 1 -1.1104 7.49638 27.9282 0.999648
741 2 2.2208 10.875 23.6859 5.31606
742 2 2.2208 10.9355 29.1915 5.30739
743 1 -1.1104 12.5264 24.9157 1.06209
744 1 -1.1104 12.3747 24.8112 3.8909
745 1 -1.1104 12.3658 22.1891 1.02502
746 1 -1.1104 12.4817 27.6744 1.19816
747 2 2.2208 11.0791 26.4744 2.54145
748 1 -1.1104 12.4256 22.1292 3.95296
749 1 -1.1104 12.4638 27.7597 4.03001
750 1 -1.1104 9.5577 25.5104 1.03192
751 2 2.2208 8.06287 23.7728 2.44237
752 2 2.2208 8.09302 29.5187 2.47684
753 1 -1.1104 9.59227 25.1681 3.86506
754 2 2.2208 8.22744 26.5475 5.3356
755 1 -1.1104 9.61707 22.5933 1.13398
757 1 -1.1104 9.67754 22.3531 3.82383
758 1 -1.1104 9.5171 28.0041 3.5271
893 1 -1.1104 9.58249 27.9943 6.57875
1040 2 2.2208 13.8511 37.7026 10.9695
892 1 -1.1104 9.46687 22.3087 6.68109
891 1 -1.1104 9.51658 25.1236 6.73138
888 1 -1.1104 12.3212 25.046 6.64807
856 1 -1.1104 6.71008 25.1154 6.60538
860 1 -1.1104 6.75259 27.7633 6.70937
889 1 -1.1104 12.2367 22.2344 6.63038
1082 2 2.2208 8.06932 32.2735 -0.363864
762 2 2.2208 5.32942 34.9083 5.21088
763 1 -1.1104 1.10117 30.7688 1.0022
764 1 -1.1104 1.25128 36.2383 1.03104
766 1 -1.1104 1.16857 30.6992 3.75128
767 1 -1.1104 1.06798 36.3218 3.89155
769 1 -1.1104 1.07711 33.4915 1.03984
770 2 2.2208 5.31508 32.1275 2.58869
771 2 2.2208 5.23832 37.6465 2.56483
772 1 -1.1104 1.29966 33.5719 3.94688
774 1 -1.1104 3.74517 30.6351 0.924806
775 1 -1.1104 3.89209 36.4658 1.16224
776 2 2.2208 2.5404 34.8865 2.51547
777 1 -1.1104 3.89803 30.7459 3.82977
778 1 -1.1104 3.86757 36.2204 3.8024
779 2 2.2208 2.50325 32.1731 5.41128
780 2 2.2208 2.56172 37.6533 5.22413
781 1 -1.1104 3.81039 33.5317 1.18356
782 1 -1.1104 3.91083 33.4275 3.95594
768 1 -1.1104 6.69409 36.3546 3.88825
788 1 -1.1104 6.6629 33.5149 1.12034
786 1 -1.1104 6.47768 30.5754 1.1337
773 1 -1.1104 6.65445 33.6444 3.84649
765 1 -1.1104 6.66953 36.159 1.02022
912 1 -1.1104 1.12958 30.5988 6.44468
916 1 -1.1104 1.0476 33.6647 6.59625
918 1 -1.1104 4.07684 30.7295 6.60472
913 1 -1.1104 1.10185 36.3662 6.62566
917 1 -1.1104 6.75934 33.5179 6.70143
919 1 -1.1104 3.87595 36.1552 6.75715
1622 1 -1.1104 3.95739 47.496 9.50928
1603 1 -1.1104 4.0202 47.5782 6.76668
787 1 -1.1104 6.83388 30.9164 3.89395
789 2 2.2208 10.9416 34.9237 5.30813
790 1 -1.1104 9.33553 30.7909 1.0961
791 1 -1.1104 12.2185 36.3144 1.12466
792 1 -1.1104 12.277 30.5252 3.55634
793 1 -1.1104 12.3254 36.1969 3.85269
794 1 -1.1104 12.1032 33.5066 1.1641
795 2 2.2208 10.7843 32.2083 2.50428
796 2 2.2208 10.8438 37.8178 2.43757
797 1 -1.1104 12.1473 33.3064 3.98081
799 1 -1.1104 9.44769 36.3515 0.899001
800 2 2.2208 8.11935 35.0596 2.45938
801 1 -1.1104 9.5651 30.7539 3.96391
802 1 -1.1104 9.41318 36.4665 3.72778
803 2 2.2208 8.09341 32.2088 5.33905
804 2 2.2208 7.93011 37.7245 5.40881
805 1 -1.1104 9.41818 33.5691 1.09871
806 1 -1.1104 9.4976 33.5727 3.95481
1447 1 -1.1104 12.331 47.5482 1.00502
1633 1 -1.1104 12.2821 47.435 6.56505