LAMMPS (29 Oct 2020)
OMP_NUM_THREADS environment is not set. Defaulting to 1 thread. (../comm.cpp:94)
  using 1 OpenMP thread(s) per MPI task
OMP_NUM_THREADS environment is not set. Defaulting to 1 thread. (../comm.cpp:94)
  using 1 OpenMP thread(s) per MPI task
Lattice spacing in x,y,z = 5.5788000 5.5788000 5.5788000
Created orthogonal box = (0.0000000 0.0000000 0.0000000) to (27.894000 334.72800 27.894000)
  2 by 13 by 2 MPI processor grid
Changing box ...
  triclinic box = (0.0000000 0.0000000 0.0000000) to (27.894000 334.72800 27.894000) with tilt (0.0000000 0.0000000 0.0000000)
Created 12000 atoms
  create_atoms CPU = 0.008 seconds
Lattice spacing in x,y,z = 5.5788000 5.5788000 5.5788000
Created 6000 atoms
  create_atoms CPU = 0.002 seconds
12000 atoms in group oxygen
6000 atoms in group uranium
Setting atom values ...
  45 settings made for type/ratio
Setting atom values ...
  45 settings made for type/ratio
45 atoms in group anti_oxygen
45 atoms in group anti_uranium
Setting atom values ...
  45 settings made for type
Setting atom values ...
  45 settings made for type
Setting atom values ...
  12000 settings made for charge
Setting atom values ...
  6000 settings made for charge
PPPM initialization ...
  using 12-bit tables for long-range coulomb (../kspace.cpp:328)
  G vector (1/distance) = 0.29916851
  grid = 40 240 40
  stencil order = 5
  estimated absolute RMS force accuracy = 0.00015502622
  estimated relative force accuracy = 1.0765975e-05
  using single precision MKL FFT
  3d grid and FFT values/proc = 18225 7600
Neighbor list info ...
  update every 1 steps, delay 0 steps, check yes
  max neighbors/atom: 2000, page size: 100000
  master list distance cutoff = 13
  ghost atom cutoff = 13
  binsize = 6.5, bins = 5 52 5
  2 neighbor lists, perpetual/occasional/extra = 2 0 0
  (1) pair coul/long, perpetual
      attributes: half, newton on
      pair build: half/bin/newton/tri
      stencil: half/bin/3d/newton/tri
      bin: standard
  (2) pair eam/alloy, perpetual, copy from (1)
      attributes: half, newton on
      pair build: copy
      stencil: none
      bin: none
Setting up cg style minimization ...
  Unit style    : metal
  Current step  : 0
WARNING: Energy due to 3 extra global DOFs will be included in minimizer energies
Per MPI rank memory allocation (min/avg/max) = 10.42 | 10.45 | 10.47 Mbytes
Step Temp E_pair E_mol TotEng Press Volume 
       0            0   -231588.92            0   -231588.92    19820.881    260443.57 
     623            0   -235362.08            0   -235362.08     28.76818    263894.89 
Loop time of 9.21039 on 52 procs for 623 steps with 18000 atoms

99.6% CPU use with 52 MPI tasks x 1 OpenMP threads

Minimization stats:
  Stopping criterion = linesearch alpha is zero
  Energy initial, next-to-last, final = 
     -231588.917151428  -235362.084353346  -235362.084353362
  Force two-norm initial, final = 5677.1781 31.292485
  Force max component initial, final = 3614.4358 10.221723
  Final line search alpha, max atom move = 1.2081061e-11 1.2348926e-10
  Iterations, force evaluations = 623 779

MPI task timing breakdown:
Section |  min time  |  avg time  |  max time  |%varavg| %total
---------------------------------------------------------------
Pair    | 5.0281     | 5.1855     | 5.3357     |   3.4 | 56.30
Bond    | 7.0958e-05 | 0.00010437 | 0.00014872 |   0.0 |  0.00
Kspace  | 1.6036     | 1.7623     | 1.926      |   5.9 | 19.13
Neigh   | 0.039969   | 0.045825   | 0.049865   |   1.0 |  0.50
Comm    | 0.18481    | 0.19027    | 0.19494    |   0.6 |  2.07
Output  | 0          | 0          | 0          |   0.0 |  0.00
Modify  | 0          | 0          | 0          |   0.0 |  0.00
Other   |            | 2.026      |            |       | 22.00

Nlocal:        346.154 ave         380 max         304 min
Histogram: 1 1 6 6 7 7 6 9 7 2
Nghost:        5626.13 ave        5719 max        5527 min
Histogram: 7 11 3 2 2 0 1 8 9 9
Neighs:       111451.0 ave      121831 max       97496 min
Histogram: 1 1 5 7 7 5 8 10 4 4

Total # of neighbors = 5795457
Ave neighs/atom = 321.96983
Ave special neighs/atom = 0.0000000
Neighbor list builds = 12
Dangerous builds = 0
PPPM initialization ...
  using 12-bit tables for long-range coulomb (../kspace.cpp:328)
  G vector (1/distance) = 0.29893969
  grid = 40 240 40
  stencil order = 5
  estimated absolute RMS force accuracy = 0.00015680388
  estimated relative force accuracy = 1.0889427e-05
  using single precision MKL FFT
  3d grid and FFT values/proc = 18225 7600
Setting up Verlet run ...
  Unit style    : metal
  Current step  : 0
  Time step     : 0.001
Per MPI rank memory allocation (min/avg/max) = 10.56 | 10.59 | 10.61 Mbytes
Step Dt Time Atoms Temp PotEng KinEng Press Volume v_latt 
       0        0.001            0    18000          900   -235362.09     2093.898    8503.4093    263894.89    5.6033365 
   50000        0.001           50    18000    897.62374   -234176.26    2088.3695   -1526.7873     269164.8    5.6403893 
  100000        0.001          100    18000      904.305   -234217.44    2103.9138     1918.833    268599.92    5.6364402 
Loop time of 950.422 on 52 procs for 100000 steps with 18000 atoms

Performance: 9.091 ns/day, 2.640 hours/ns, 105.216 timesteps/s
99.8% CPU use with 52 MPI tasks x 1 OpenMP threads

MPI task timing breakdown:
Section |  min time  |  avg time  |  max time  |%varavg| %total
---------------------------------------------------------------
Pair    | 555.42     | 566.35     | 582.15     |  26.0 | 59.59
Bond    | 0.009151   | 0.014453   | 0.019451   |   2.3 |  0.00
Kspace  | 199.82     | 215.78     | 226.73     |  43.3 | 22.70
Neigh   | 6.5189     | 6.7534     | 7.1544     |   7.3 |  0.71
Comm    | 27.281     | 27.794     | 28.392     |   4.6 |  2.92
Output  | 0.0080478  | 0.0080631  | 0.0083961  |   0.1 |  0.00
Modify  | 118.2      | 122.18     | 129.53     |  25.6 | 12.86
Other   |            | 11.54      |            |       |  1.21

Nlocal:        346.154 ave         372 max         332 min
Histogram: 5 12 5 12 1 10 2 3 0 2
Nghost:        5582.71 ave        5673 max        5479 min
Histogram: 2 5 17 4 0 0 1 3 8 12
Neighs:       108830.0 ave      117232 max      103705 min
Histogram: 4 7 12 9 5 7 2 4 0 2

Total # of neighbors = 5659170
Ave neighs/atom = 314.39833
Ave special neighs/atom = 0.0000000
Neighbor list builds = 1689
Dangerous builds = 0
System init for write_data ...
PPPM initialization ...
  using 12-bit tables for long-range coulomb (../kspace.cpp:328)
  G vector (1/distance) = 0.29859428
  grid = 40 240 40
  stencil order = 5
  estimated absolute RMS force accuracy = 0.00015969871
  estimated relative force accuracy = 1.1090462e-05
  using single precision MKL FFT
  3d grid and FFT values/proc = 18225 7600
Total wall time: 0:16:00
