ITEM: TIMESTEP
80000
ITEM: NUMBER OF ATOMS
17640
ITEM: BOX BOUNDS pp pp pp
-4.0199461358921817e-01 2.7741994613589238e+01
-4.8998445797211518e+00 3.3297984457972342e+02
-4.0265104937171203e-01 2.7742651049371965e+01
ITEM: ATOMS id type q x y z
1 2 2.2208 4.95864 0.550188 5.094
2 1 -1.1104 0.976443 -3.57577 0.832006
6 1 -1.1104 1.00678 -3.48875 3.57691
10 1 -1.1104 0.973576 -0.54332 0.671569
12 2 2.2208 5.10345 -2.08948 2.13399
14 1 -1.1104 0.912456 -0.711446 3.52353
16 1 -1.1104 3.58693 -3.63571 0.87969
18 2 2.2208 2.23462 0.759032 2.11789
19 1 -1.1104 3.69496 -3.57436 3.73639
21 2 2.2208 2.1585 -2.06604 5.04167
23 1 -1.1104 3.83311 -0.725109 0.677558
24 1 -1.1104 3.68881 -0.851354 3.77333
3 1 -1.1104 0.791515 2.15953 0.910275
7 1 -1.1104 0.763669 2.0276 3.67617
13 2 2.2208 5.12077 3.54129 2.17168
17 1 -1.1104 3.61452 2.05076 0.917339
20 1 -1.1104 3.70638 2.05159 3.71887
11 1 -1.1104 6.77796 -0.719483 0.798696
5 1 -1.1104 6.2673 2.07964 0.858057
8 1 -1.1104 6.53084 -3.35242 3.60127
15 1 -1.1104 6.35275 -0.558994 3.50583
173 1 -1.1104 3.76272 2.13271 6.36415
4 1 -1.1104 6.39047 -3.59245 0.842598
168 1 -1.1104 6.69525 -3.43548 6.33077
171 1 -1.1104 6.20569 -0.744991 6.42694
9 1 -1.1104 6.54452 2.19445 3.5714
167 1 -1.1104 0.959359 2.15298 6.48167
172 1 -1.1104 3.71903 -3.70422 6.41338
22 2 2.2208 2.33658 3.52301 5.08716
30 2 2.2208 13.4157 3.52329 4.77826
166 1 -1.1104 1.03469 -3.46163 6.42025
170 1 -1.1104 0.836466 -0.583025 6.34351
319 2 2.2208 2.1369 17.5745 13.4875
50 2 2.2208 13.6604 -1.97605 5.17171
31 2 2.2208 10.6948 0.649417 5.0652
32 1 -1.1104 12.2259 -3.46601 0.650065
34 1 -1.1104 12.1565 -3.49041 3.41082
36 1 -1.1104 12.2835 -0.751301 0.582077
37 2 2.2208 10.8325 -2.23605 2.17493
39 1 -1.1104 12.2629 -0.783534 3.53072
40 1 -1.1104 9.28997 -3.64287 0.987718
42 2 2.2208 7.81763 0.704291 2.1622
43 1 -1.1104 9.27837 -3.63011 3.8561
45 2 2.2208 7.72905 -1.8744 4.94852
47 1 -1.1104 9.45514 -0.938004 0.540185
48 1 -1.1104 9.35521 -0.764435 3.48985
33 1 -1.1104 12.0206 2.11769 0.741813
35 1 -1.1104 12.093 1.9705 3.58711
41 1 -1.1104 9.08753 1.90993 0.754699
44 1 -1.1104 9.34273 2.15807 3.6198
46 2 2.2208 7.93238 3.40487 5.05163
209 1 -1.1104 9.35784 1.87524 6.5561
9106 2 2.2208 13.359 20.2807 10.8684
38 2 2.2208 10.659 3.36728 2.19968
49 2 2.2208 13.4375 0.685257 2.19654
318 2 2.2208 10.6899 9.12061 13.5615
205 1 -1.1104 12.2127 -3.43664 6.38611
208 1 -1.1104 9.51082 -3.71299 6.65134
210 1 -1.1104 9.3119 -0.969636 6.40687
206 1 -1.1104 12.1416 2.01785 6.31504
9142 2 2.2208 13.6195 14.8991 10.8177
447 2 2.2208 2.32152 11.931 13.4948
54 2 2.2208 5.09649 6.27634 4.99232
56 1 -1.1104 0.87168 7.53195 0.935059
58 1 -1.1104 0.672527 7.79388 3.73494
60 1 -1.1104 0.94951 4.9026 0.762613
67 1 -1.1104 1.01993 4.81782 3.56065
71 1 -1.1104 3.57675 7.76207 0.561048
72 2 2.2208 2.24937 6.34596 2.25239
74 1 -1.1104 3.5974 7.82216 3.38981
76 1 -1.1104 3.67271 5.07577 0.948315
79 1 -1.1104 3.60352 4.9513 3.65454
55 2 2.2208 5.20241 11.949 4.96698
61 1 -1.1104 0.775127 10.4067 0.785084
66 2 2.2208 5.0226 9.21905 2.19028
68 1 -1.1104 0.7044 10.5879 3.57841
73 2 2.2208 2.04289 11.9564 2.07537
75 2 2.2208 2.38129 9.19432 4.83799
77 1 -1.1104 3.68566 10.644 0.876181
80 1 -1.1104 3.62247 10.8115 3.53735
62 1 -1.1104 0.912915 10.6682 6.46552
70 1 -1.1104 6.48455 10.3971 3.66913
63 1 -1.1104 6.5326 4.94443 0.927304
59 1 -1.1104 6.30055 7.63371 3.65737
57 1 -1.1104 6.44893 7.79501 0.892844
236 1 -1.1104 1.05251 4.95643 6.32903
69 1 -1.1104 6.51541 4.83244 3.64851
78 1 -1.1104 3.85962 10.4559 6.24555
235 1 -1.1104 6.7708 7.60351 6.38013
65 1 -1.1104 6.53442 10.3975 6.36163
64 1 -1.1104 6.42055 10.6015 0.957649
239 1 -1.1104 3.76091 5.05419 6.63673
234 1 -1.1104 0.891723 7.72442 6.60869
238 1 -1.1104 3.70765 7.70172 6.2576
8872 2 2.2208 13.4212 17.6618 2.35046
84 2 2.2208 10.6812 6.27493 5.0615
86 1 -1.1104 11.9364 7.67767 0.748688
87 1 -1.1104 12.0047 7.63509 3.55095
88 1 -1.1104 12.2149 4.71879 0.963481
92 1 -1.1104 11.9283 4.83755 3.71284
94 1 -1.1104 9.29874 7.66607 0.876613
95 2 2.2208 7.84312 6.33176 2.26893
97 1 -1.1104 9.18681 7.73534 3.68896
99 1 -1.1104 9.23411 4.73228 0.74523
102 1 -1.1104 9.16012 5.03799 3.66338
85 2 2.2208 10.8354 12.0422 5.14632
89 1 -1.1104 12.0848 10.443 0.774108
91 2 2.2208 10.7778 9.08248 2.36911
93 1 -1.1104 12.1827 10.6628 3.77466
96 2 2.2208 7.9416 11.8076 2.29669
98 2 2.2208 7.90158 9.09801 4.95426
100 1 -1.1104 9.09937 10.3665 0.954409
103 1 -1.1104 9.33392 10.4518 3.69167
269 1 -1.1104 9.33613 4.64905 6.16547
101 1 -1.1104 9.37625 10.6416 6.56649
9147 2 2.2208 13.5165 12.0968 2.41946
327 2 2.2208 13.6031 6.37612 2.18414
237 1 -1.1104 6.5867 4.8257 6.59922
265 1 -1.1104 12.189 7.66671 6.39026
267 1 -1.1104 9.47472 7.70547 6.38629
266 1 -1.1104 11.9639 4.93485 6.51473
107 1 -1.1104 0.676362 13.3515 0.813261
113 1 -1.1104 0.801518 13.4163 3.60083
123 1 -1.1104 3.42681 13.3036 0.768198
128 1 -1.1104 3.73978 13.3961 3.625
106 2 2.2208 5.0875 17.7328 5.10323
109 1 -1.1104 0.705759 19.0432 0.978506
114 1 -1.1104 0.827948 19.08 3.77893
116 1 -1.1104 0.867384 16.2762 0.929273
119 2 2.2208 5.00619 14.6732 2.40934
120 2 2.2208 5.01321 20.4086 2.30255
121 1 -1.1104 0.680136 16.3578 3.76576
125 1 -1.1104 3.6697 18.998 1.15935
127 2 2.2208 2.1321 17.5914 2.45776
129 1 -1.1104 3.70916 19.0106 3.87672
130 2 2.2208 2.22452 14.8336 5.02234
131 2 2.2208 2.31653 20.3739 5.03126
132 1 -1.1104 3.72715 16.0197 0.941899
134 1 -1.1104 3.60914 16.1298 3.83317
115 1 -1.1104 6.5584 13.301 3.68662
139 1 -1.1104 6.4592 19.0054 3.75663
140 1 -1.1104 6.5305 16.2966 1.15844
122 1 -1.1104 6.31963 16.1246 3.74195
124 1 -1.1104 3.59062 13.3829 6.59011
138 1 -1.1104 6.49018 19.1085 1.04506
110 1 -1.1104 6.29108 13.328 0.916168
117 1 -1.1104 0.644144 16.1025 6.45584
133 1 -1.1104 3.72792 16.3531 6.52057
302 1 -1.1104 0.837784 19.0211 6.55615
108 1 -1.1104 0.927573 13.5545 6.53333
322 2 2.2208 13.4926 6.21175 7.89976
378 2 2.2208 5.12698 3.33865 13.5025
112 1 -1.1104 6.46684 19.1851 6.46616
142 1 -1.1104 11.9809 13.2266 1.06528
146 1 -1.1104 12.0529 13.4235 3.69531
153 1 -1.1104 9.30269 13.2787 1.08145
158 1 -1.1104 9.3541 13.2243 3.7405
141 2 2.2208 10.6135 17.5744 5.23125
144 1 -1.1104 11.9449 18.9662 0.906998
147 1 -1.1104 11.8525 18.9865 3.83039
148 1 -1.1104 12.102 16.1646 0.951616
150 2 2.2208 10.5462 14.8517 2.3061
151 2 2.2208 10.458 20.3137 2.32446
152 1 -1.1104 11.9687 16.009 3.86737
155 1 -1.1104 9.12973 19.0687 1.01099
157 2 2.2208 7.79467 17.5981 2.49009
159 1 -1.1104 9.11877 18.9423 3.90968
160 2 2.2208 7.8507 14.651 5.17817
161 2 2.2208 7.86659 20.5098 5.08594
162 1 -1.1104 9.1725 16.293 0.948192
164 1 -1.1104 9.18686 16.0603 3.73123
8921 2 2.2208 13.358 20.3129 5.1856
154 1 -1.1104 9.31918 13.3987 6.45709
143 1 -1.1104 12.1724 13.4156 6.6255
8942 2 2.2208 13.5415 14.6603 5.11673
156 1 -1.1104 9.26278 19.1885 6.85044
149 1 -1.1104 12.0825 16.2112 6.64112
174 1 -1.1104 3.46316 -0.662776 6.5997
409 2 2.2208 7.95167 0.576776 13.4081
175 2 2.2208 5.15155 0.583119 10.7753
176 1 -1.1104 0.877176 -3.39063 12.0303
180 1 -1.1104 0.910285 -3.49846 9.1847
184 1 -1.1104 0.737767 -0.622259 11.9722
186 2 2.2208 5.04508 -2.15533 7.9347
188 1 -1.1104 0.936362 -0.503185 9.24946
190 1 -1.1104 3.81821 -3.44995 12.2789
192 2 2.2208 2.25958 0.805197 7.90694
193 1 -1.1104 3.75949 -3.40322 9.33774
195 2 2.2208 2.24472 -2.11446 10.7727
197 1 -1.1104 3.71167 -0.769109 12.2155
198 1 -1.1104 3.51221 -0.788612 9.34872
177 1 -1.1104 0.913234 2.02204 12.3927
181 1 -1.1104 0.845704 2.29323 9.36475
191 1 -1.1104 3.59899 1.8189 12.1139
194 1 -1.1104 3.84207 2.05695 9.33029
196 2 2.2208 2.39554 3.44334 10.7232
187 2 2.2208 5.10753 3.52958 7.86031
183 1 -1.1104 6.60044 1.93862 9.31791
182 1 -1.1104 6.5268 -3.71012 9.23145
185 1 -1.1104 6.46295 -0.727248 12.0967
179 1 -1.1104 6.71084 1.9326 11.9503
189 1 -1.1104 6.2939 -0.768977 9.36739
8451 2 2.2208 10.7412 -4.82161 10.6766
52 2 2.2208 7.78945 14.7581 10.7195
229 2 2.2208 13.4719 0.676223 7.85673
207 1 -1.1104 12.1828 -0.624376 6.51762
474 2 2.2208 7.9584 6.29285 13.3578
658 2 2.2208 10.7288 -2.14187 13.6386
178 1 -1.1104 6.44886 -3.43661 11.8827
230 2 2.2208 13.6243 -2.20829 10.7456
169 1 -1.1104 6.56516 1.99981 6.57354
211 2 2.2208 10.817 0.533812 10.7413
212 1 -1.1104 12.0714 -3.44976 12.1198
214 1 -1.1104 12.2398 -3.6014 9.07442
216 1 -1.1104 12.2079 -0.701417 12.0738
217 2 2.2208 10.7809 -2.21951 7.83265
219 1 -1.1104 12.2115 -0.850717 9.29873
220 1 -1.1104 9.50016 -3.50832 12.2826
222 2 2.2208 7.96179 0.627569 7.82198
223 1 -1.1104 9.41172 -3.5192 9.44037
225 2 2.2208 7.84396 -2.01273 10.6424
227 1 -1.1104 9.42509 -0.911836 12.1939
228 1 -1.1104 9.26058 -0.663301 9.07486
213 1 -1.1104 12.0295 2.12293 12.0844
215 1 -1.1104 12.1301 2.07605 9.41175
221 1 -1.1104 9.55348 1.90718 12.0889
224 1 -1.1104 9.25754 2.11848 9.40026
226 2 2.2208 7.99949 3.48982 10.5536
218 2 2.2208 10.6772 3.54287 7.8302
9158 2 2.2208 13.4054 11.9736 13.6291
317 2 2.2208 7.76937 12.1519 13.5419
446 2 2.2208 5.1736 9.00297 13.4572
310 2 2.2208 13.5503 0.614783 13.4836
240 2 2.2208 5.13595 6.18933 10.6776
242 1 -1.1104 0.999855 7.82206 12.0279
244 1 -1.1104 0.789027 7.82382 9.23291
246 1 -1.1104 1.04622 4.9375 12.1583
251 1 -1.1104 0.855769 4.97573 9.22311
255 1 -1.1104 3.68747 7.61228 11.9778
256 2 2.2208 2.37479 6.43144 7.98141
258 1 -1.1104 3.8026 7.75571 9.27428
260 1 -1.1104 3.74201 4.68193 12.2073
262 1 -1.1104 3.79652 4.80414 9.43448
241 2 2.2208 5.13634 11.985 10.6412
247 1 -1.1104 0.773082 10.6126 11.9741
250 2 2.2208 5.17125 9.02752 7.80241
252 1 -1.1104 0.965836 10.6198 9.22108
257 2 2.2208 2.26532 11.8857 7.89424
259 2 2.2208 2.40542 9.05039 10.7239
261 1 -1.1104 3.68869 10.6032 11.9965
263 1 -1.1104 3.89492 10.5897 9.12648
249 1 -1.1104 6.53251 10.5289 12.1452
254 1 -1.1104 6.49659 10.4725 9.22827
243 1 -1.1104 6.41038 7.82436 11.8112
245 1 -1.1104 6.5449 7.60744 9.16603
248 1 -1.1104 6.36476 4.76115 12.1925
253 1 -1.1104 6.61473 4.88699 9.30373
445 2 2.2208 2.35105 6.20223 13.4492
9060 2 2.2208 13.5838 9.06497 10.655
324 2 2.2208 7.80057 17.4986 13.6079
376 2 2.2208 5.04982 -2.22924 13.5505
334 2 2.2208 2.26377 0.660358 13.594
29 2 2.2208 13.4775 3.50573 10.6117
90 1 -1.1104 12.2201 10.4842 6.55023
268 1 -1.1104 9.31272 4.90943 9.04724
271 1 -1.1104 9.4951 4.79808 11.8482
273 1 -1.1104 9.36197 7.58487 9.26607
275 2 2.2208 8.01958 6.21521 7.76693
276 2 2.2208 10.8553 6.46229 10.6688
278 1 -1.1104 12.2459 7.76108 11.9468
279 1 -1.1104 12.1654 7.72325 9.20257
280 1 -1.1104 12.2959 5.16834 11.9099
283 1 -1.1104 12.1156 4.96669 9.30364
285 1 -1.1104 9.36115 7.65479 12.2427
264 1 -1.1104 9.33363 10.4892 9.32032
270 1 -1.1104 9.40668 10.6571 12.1189
272 2 2.2208 7.93758 9.16379 10.7775
274 2 2.2208 7.91066 11.8821 7.80417
277 2 2.2208 10.7336 12.0309 10.7956
281 1 -1.1104 12.1328 10.6729 12.2325
282 2 2.2208 10.7035 9.09091 7.90321
284 1 -1.1104 12.172 10.441 9.31798
9056 2 2.2208 13.3603 12.013 8.02746
137 1 -1.1104 12.0955 16.3131 9.42914
320 2 2.2208 5.05994 20.3287 13.6685
306 1 -1.1104 6.26897 16.1431 12.2832
290 1 -1.1104 6.55609 13.2931 9.44507
126 1 -1.1104 3.80809 19.033 6.55848
297 1 -1.1104 6.42877 13.4266 12.0777
321 2 2.2208 4.91826 14.9005 13.5883
111 1 -1.1104 6.44535 13.2877 6.5444
83 1 -1.1104 12.1554 13.3249 9.56472
309 2 2.2208 2.13301 20.4049 10.7413
308 1 -1.1104 3.61253 16.2465 12.1419
307 1 -1.1104 0.893751 16.2724 11.9896
304 1 -1.1104 3.64945 16.1675 9.26994
303 2 2.2208 2.14585 17.5831 7.89214
287 1 -1.1104 3.71909 13.4617 12.1478
294 1 -1.1104 0.921385 13.3487 9.29595
299 1 -1.1104 0.875558 13.3585 12.1638
305 1 -1.1104 3.78208 13.3795 9.23969
233 2 2.2208 2.35966 14.6275 10.5573
286 1 -1.1104 3.83262 19.1322 12.0415
291 1 -1.1104 0.611417 18.9346 9.3107
292 1 -1.1104 0.893928 16.1417 9.39243
293 2 2.2208 5.01925 20.3641 7.93755
295 2 2.2208 5.13475 14.7506 7.88645
298 1 -1.1104 0.70546 18.9912 12.0364
300 2 2.2208 5.01326 17.5586 10.7639
301 1 -1.1104 3.36098 18.8135 9.41525
288 1 -1.1104 6.38386 19.0782 9.43308
8782 2 2.2208 13.5581 -4.86941 13.4873
316 2 2.2208 10.8228 3.60938 13.3579
9155 2 2.2208 13.5633 17.5929 13.4902
203 1 -1.1104 9.21122 16.1147 9.40825
118 1 -1.1104 6.59561 16.2385 6.72847
104 1 -1.1104 12.1436 19.0327 9.41648
51 1 -1.1104 9.17394 19.0633 9.53502
145 1 -1.1104 12.0025 18.8336 6.7597
204 1 -1.1104 9.30404 13.2574 9.41117
163 1 -1.1104 9.31537 16.2557 6.48217
202 1 -1.1104 9.13384 16.2154 12.2871
9143 2 2.2208 13.4987 17.579 7.9956
105 1 -1.1104 12.0034 16.324 12.3277
165 1 -1.1104 9.24295 13.4812 12.1032
135 2 2.2208 10.795 14.8586 8.12369
136 2 2.2208 10.7656 20.4639 7.98884
82 1 -1.1104 11.976 19.0871 12.3303
53 2 2.2208 7.8061 20.3609 10.8015
81 1 -1.1104 12.129 13.5228 12.2882
231 2 2.2208 7.82824 17.7506 7.99784
27 2 2.2208 10.5774 17.6053 10.8032
232 1 -1.1104 9.48885 18.8916 12.4472
296 1 -1.1104 6.64354 18.9613 12.3875
289 1 -1.1104 6.38326 16.2959 9.63368
200 2 2.2208 -0.392288 -1.95172 7.91903
8873 2 2.2208 13.3423 9.10342 5.09923
315 2 2.2208 -0.325949 6.38305 10.6974
333 2 2.2208 -0.412267 3.58194 13.6021
8448 2 2.2208 5.04151 -4.88955 10.6091
8466 2 2.2208 10.7146 -4.80047 -0.380573
325 2 2.2208 7.8013 14.5788 -0.347631
328 2 2.2208 7.83565 9.08869 -0.391666
323 2 2.2208 10.7619 14.8091 13.6308
336 2 2.2208 5.15237 0.530337 16.3347
337 1 -1.1104 0.909638 -3.58374 17.7416
341 1 -1.1104 0.974161 -3.60305 15.0551
349 1 -1.1104 1.04435 -0.673138 17.7941
351 2 2.2208 4.98102 -2.29159 19.1041
353 1 -1.1104 0.875187 -0.832805 14.9887
357 1 -1.1104 3.62105 -3.54277 17.6607
359 2 2.2208 2.31924 0.691549 19.1671
360 1 -1.1104 3.76576 -3.59345 15.0297
364 2 2.2208 2.35872 -2.14701 16.3557
366 1 -1.1104 3.80116 -0.853085 17.6925
367 1 -1.1104 3.69799 -0.733118 14.8747
338 1 -1.1104 0.968209 2.06566 17.8107
343 1 -1.1104 0.90951 2.13689 14.9844
358 1 -1.1104 3.80375 2.04626 17.7038
362 1 -1.1104 3.70693 1.93006 14.9752
365 2 2.2208 2.29329 3.32233 16.3102
352 2 2.2208 5.11493 3.39124 19.134
342 1 -1.1104 0.82365 -3.50601 20.5655
339 1 -1.1104 6.55875 -3.58028 17.845
347 1 -1.1104 6.44959 1.90707 14.9473
355 1 -1.1104 6.49809 -0.974949 14.953
340 1 -1.1104 6.62964 2.09264 17.6344
345 1 -1.1104 6.64323 -3.58908 14.7765
350 1 -1.1104 6.5668 -0.81329 18.0025
363 1 -1.1104 3.78572 2.10405 20.4852
348 1 -1.1104 6.36046 2.17545 20.6165
356 1 -1.1104 6.51683 -0.784575 20.7249
354 1 -1.1104 1.09936 -0.909739 20.4326
346 1 -1.1104 6.48481 -3.61109 20.444
368 1 -1.1104 3.86234 -0.804149 20.4488
379 2 2.2208 10.6974 0.564475 16.3357
380 1 -1.1104 12.2604 -3.59194 17.972
382 1 -1.1104 12.2589 -3.51799 15.0303
386 1 -1.1104 12.1351 -0.874397 17.6258
387 2 2.2208 10.7282 -2.18286 19.3244
389 1 -1.1104 12.0704 -0.659501 14.9906
391 1 -1.1104 9.47384 -3.61392 17.9193
393 2 2.2208 8.03432 0.559118 19.1174
394 1 -1.1104 9.29309 -3.42166 14.9455
398 2 2.2208 7.88576 -2.19062 16.299
400 1 -1.1104 9.32723 -0.833669 17.7892
401 1 -1.1104 9.25751 -0.628433 15.0432
381 1 -1.1104 12.056 1.96374 17.8023
384 1 -1.1104 12.1224 2.09402 14.9169
388 2 2.2208 10.6889 3.33188 19.2785
392 1 -1.1104 9.42778 1.9847 17.8544
396 1 -1.1104 9.21566 2.08613 15.0366
399 2 2.2208 7.92438 3.37836 16.3761
385 1 -1.1104 12.2311 1.86479 20.5871
390 1 -1.1104 12.2043 -0.83297 20.5995
402 1 -1.1104 9.37646 -0.866385 20.5661
375 2 2.2208 13.5026 3.44686 16.3372
403 2 2.2208 13.4078 0.644301 19.0684
9454 2 2.2208 13.3549 9.15649 22.0135
407 2 2.2208 13.6152 -2.23894 16.3464
383 1 -1.1104 12.1576 -3.61769 20.7293
563 2 2.2208 2.41202 -2.15866 27.5691
335 2 2.2208 13.4357 20.2058 27.7424
412 2 2.2208 5.19824 6.13104 16.1527
414 1 -1.1104 0.926922 7.82023 17.7613
416 1 -1.1104 0.945524 7.71363 15.0537
420 1 -1.1104 0.937813 4.97577 17.4685
425 1 -1.1104 1.07497 4.99616 14.8417
433 1 -1.1104 3.72595 7.56405 17.639
434 2 2.2208 2.31792 6.14838 19.0156
436 1 -1.1104 3.85735 7.59645 14.8024
439 1 -1.1104 3.86351 5.03459 17.788
441 1 -1.1104 3.63789 4.69868 15.0018
413 2 2.2208 4.98394 11.7038 16.3243
421 1 -1.1104 0.824832 10.6913 17.907
424 2 2.2208 5.13172 8.92127 19.2459
427 1 -1.1104 0.871897 10.3898 14.914
435 2 2.2208 2.15222 11.9257 19.1092
438 2 2.2208 2.39577 9.05286 16.4957
440 1 -1.1104 3.585 10.4503 17.8699
443 1 -1.1104 3.65377 10.3578 14.9167
422 1 -1.1104 6.49264 4.8668 17.5969
417 1 -1.1104 0.981555 7.56327 20.614
419 1 -1.1104 6.58938 7.69701 20.5396
415 1 -1.1104 6.651 7.65183 17.6062
423 1 -1.1104 6.15936 10.2057 17.4685
431 1 -1.1104 6.52356 10.6483 14.7948
418 1 -1.1104 6.51309 7.69333 14.63
442 1 -1.1104 3.57125 4.87116 20.5913
444 1 -1.1104 3.95059 10.5536 20.7029
429 1 -1.1104 6.66074 4.84537 14.8718
432 1 -1.1104 6.65276 10.392 20.4531
426 1 -1.1104 0.7053 4.92169 20.2937
430 1 -1.1104 6.63581 5.00182 20.5427
437 1 -1.1104 3.60694 7.61322 20.3399
662 2 2.2208 10.695 0.603689 27.5574
448 2 2.2208 10.7151 6.36325 16.2705
450 1 -1.1104 12.0792 7.64548 17.7738
451 1 -1.1104 11.962 7.64124 14.8082
453 1 -1.1104 12.2105 4.67724 17.8237
456 1 -1.1104 11.9891 4.8567 14.7011
460 1 -1.1104 9.20809 7.634 17.5946
461 2 2.2208 7.94184 6.22814 19.0496
463 1 -1.1104 9.34003 7.75818 15.0138
466 1 -1.1104 9.24898 5.02087 17.7539
468 1 -1.1104 9.24574 4.97619 14.9131
449 2 2.2208 10.5201 11.8263 16.3653
454 1 -1.1104 11.7266 10.3552 17.7916
455 2 2.2208 10.6032 8.87416 19.224
458 1 -1.1104 11.9967 10.449 14.9573
462 2 2.2208 7.88987 12.0321 19.0964
465 2 2.2208 7.92638 9.07523 16.278
467 1 -1.1104 8.98918 10.4079 17.648
470 1 -1.1104 9.16042 10.5339 14.8445
452 1 -1.1104 12.1778 7.66988 20.6328
471 1 -1.1104 9.23408 10.5739 20.443
9241 2 2.2208 13.4771 14.7056 22.2319
565 2 2.2208 13.5464 6.21521 19.1541
459 1 -1.1104 12.0175 10.597 20.6409
464 1 -1.1104 9.42526 7.6694 20.5707
469 1 -1.1104 9.23955 4.6327 20.55
476 1 -1.1104 0.756052 13.386 17.7704
480 1 -1.1104 0.892253 13.3314 14.9755
496 1 -1.1104 3.60319 13.2822 17.822
499 1 -1.1104 3.64809 13.2416 15.0518
475 2 2.2208 4.90688 17.5527 16.3857
477 1 -1.1104 0.729842 18.9078 17.7731
482 1 -1.1104 0.768047 18.9645 15.1075
488 1 -1.1104 0.83305 16.1873 17.9875
490 2 2.2208 4.79153 14.852 19.1337
491 2 2.2208 4.99296 20.5198 19.355
492 1 -1.1104 0.766031 16.1744 14.797
497 1 -1.1104 3.61838 19.0638 17.9507
498 2 2.2208 2.13335 17.6846 19.1619
501 1 -1.1104 3.42062 18.8927 15.0506
503 2 2.2208 2.12041 14.7381 16.2827
504 2 2.2208 2.18422 20.3033 16.4696
505 1 -1.1104 3.43167 16.0662 17.7421
506 1 -1.1104 3.61546 16.0516 14.9596
483 1 -1.1104 0.720742 18.9461 20.5844
478 1 -1.1104 6.50353 13.2755 17.7018
479 1 -1.1104 6.3462 19.001 18.0132
486 1 -1.1104 6.38553 18.8523 15.1128
484 1 -1.1104 6.44777 13.6142 14.8508
481 1 -1.1104 0.619168 13.2335 20.5732
493 1 -1.1104 0.526138 16.1941 20.6861
485 1 -1.1104 6.41516 13.2158 20.5634
500 1 -1.1104 3.55995 13.4265 20.7776
489 1 -1.1104 6.15281 16.1916 17.9616
502 1 -1.1104 3.67876 19.0084 20.6056
9272 2 2.2208 13.415 -2.29063 22.0655
528 1 -1.1104 9.31738 18.8313 20.9037
369 2 2.2208 13.5982 3.55617 22.0062
659 2 2.2208 13.4944 9.09151 27.6517
9344 2 2.2208 13.4925 20.3655 16.5233
494 1 -1.1104 6.40152 16.2115 15.1115
512 1 -1.1104 12.0144 13.2697 17.6929
514 1 -1.1104 11.8334 13.3403 14.9933
522 1 -1.1104 9.29766 13.443 17.9374
525 1 -1.1104 9.12987 13.2663 15.1435
529 2 2.2208 7.71128 14.8151 16.3248
511 2 2.2208 10.5822 17.5337 16.5639
513 1 -1.1104 11.9619 19.0023 18.1438
516 1 -1.1104 12.1786 19.1196 15.1627
517 1 -1.1104 11.9694 16.2043 17.8883
518 2 2.2208 10.5806 14.7812 19.2474
519 2 2.2208 10.5151 20.3186 19.422
520 1 -1.1104 12.1825 16.2076 15.0774
523 1 -1.1104 9.15803 19.0232 18.0864
524 2 2.2208 7.59074 17.5081 19.3532
527 1 -1.1104 9.16278 18.9824 15.1837
530 2 2.2208 7.73935 20.253 16.4893
531 1 -1.1104 9.07033 16.2823 17.8018
532 1 -1.1104 9.12998 16.1574 15.0021
495 1 -1.1104 6.27607 16.0142 20.7743
515 1 -1.1104 12.0715 13.4886 20.4754
533 1 -1.1104 9.06503 16.2365 20.6845
9271 2 2.2208 13.2896 11.9778 19.2826
9274 2 2.2208 13.4336 9.02623 16.4094
344 1 -1.1104 0.898374 2.02935 20.6019
361 1 -1.1104 3.61542 -3.76596 20.4171
538 2 2.2208 4.98379 0.646894 21.9547
539 1 -1.1104 0.874448 -3.51766 23.3898
543 1 -1.1104 1.03591 -3.39602 25.9153
547 1 -1.1104 0.958405 -0.855143 23.3655
549 2 2.2208 4.9929 -2.18982 24.5805
551 1 -1.1104 0.395984 -0.560425 26.2849
553 1 -1.1104 3.764 -3.60762 23.1724
555 2 2.2208 2.23651 0.609812 24.7544
556 1 -1.1104 3.91946 -3.74425 26.3087
558 2 2.2208 2.26492 -2.26451 21.8199
560 1 -1.1104 3.66949 -0.689364 23.2873
561 1 -1.1104 3.58477 -0.875543 26.0858
540 1 -1.1104 0.866349 2.09854 23.3423
544 1 -1.1104 0.849689 2.2905 26.1992
554 1 -1.1104 3.64867 2.08451 23.3717
557 1 -1.1104 3.62687 2.02111 26.1298
559 2 2.2208 2.35093 3.49762 21.8426
552 1 -1.1104 6.3423 -0.556187 26.1763
548 1 -1.1104 6.30578 -0.747039 23.343
541 1 -1.1104 6.48733 -3.44007 23.2717
546 1 -1.1104 6.50158 2.06423 26.3018
545 1 -1.1104 6.6197 -3.3658 26.0446
550 2 2.2208 4.96176 3.52873 24.7434
542 1 -1.1104 6.36181 2.10681 23.6106
8463 2 2.2208 -0.394051 -4.7852 27.569
562 2 2.2208 5.06606 0.849758 27.5696
627 2 2.2208 5.07541 6.39268 27.5051
408 2 2.2208 7.81487 14.8371 21.973
594 2 2.2208 7.83717 3.55744 27.504
9204 2 2.2208 13.3574 0.654393 24.7356
406 1 -1.1104 9.12031 18.8344 26.3776
395 1 -1.1104 9.4749 -3.53961 20.67
397 1 -1.1104 9.38216 1.81663 20.5208
574 2 2.2208 10.6154 0.550001 22.0758
575 1 -1.1104 12.195 -3.74506 23.5406
577 1 -1.1104 12.0966 -3.60467 26.1665
579 1 -1.1104 12.0209 -0.727364 23.4609
580 2 2.2208 10.7131 -2.15859 24.9373
582 1 -1.1104 12.0837 -0.792275 26.2002
583 1 -1.1104 9.48997 -3.21595 23.2878
585 2 2.2208 7.92321 0.623854 24.8157
586 1 -1.1104 9.3958 -3.64732 26.3852
588 2 2.2208 7.77493 -2.16956 21.8794
590 1 -1.1104 9.21194 -0.730284 23.2018
591 1 -1.1104 9.18134 -0.659121 25.9974
576 1 -1.1104 11.8363 2.00681 23.5189
578 1 -1.1104 12.176 2.16028 26.2127
581 2 2.2208 10.6634 3.45746 24.8572
584 1 -1.1104 9.22186 1.99609 23.3214
587 1 -1.1104 9.31511 2.13305 26.1999
589 2 2.2208 7.79348 3.37324 22.0576
630 1 -1.1104 12.2152 13.2812 23.4183
326 2 2.2208 10.6999 17.4001 27.5254
595 2 2.2208 7.76628 17.437 24.9205
404 1 -1.1104 6.38106 18.8735 26.3305
428 1 -1.1104 0.855897 10.4626 20.5918
331 2 2.2208 5.12494 11.8916 27.6699
655 1 -1.1104 11.995 15.9177 23.5954
603 2 2.2208 5.24981 6.29501 21.9627
605 1 -1.1104 0.882629 7.73864 23.4396
607 1 -1.1104 0.783034 7.78998 26.3019
609 1 -1.1104 1.0419 4.90142 23.0379
614 1 -1.1104 0.876718 5.02182 26.2005
618 1 -1.1104 3.79532 7.71772 23.2338
619 2 2.2208 2.27462 6.39171 24.6908
621 1 -1.1104 3.60655 7.60028 26.0128
623 1 -1.1104 3.70479 5.06926 23.4907
625 1 -1.1104 3.78831 4.75484 26.2738
604 2 2.2208 5.16218 11.9561 21.9633
610 1 -1.1104 0.75992 10.5084 23.1636
613 2 2.2208 5.24218 9.13505 24.7078
615 1 -1.1104 0.89645 10.4891 26.2011
620 2 2.2208 2.27975 12.0141 24.8012
622 2 2.2208 2.30708 9.09541 21.8837
624 1 -1.1104 3.50852 10.4916 23.4784
626 1 -1.1104 3.72576 10.6054 26.1366
611 1 -1.1104 6.44212 4.91507 23.2718
617 1 -1.1104 6.39728 10.4365 26.2957
608 1 -1.1104 6.34047 7.72558 26.2263
612 1 -1.1104 6.47331 10.4959 23.1535
606 1 -1.1104 6.67407 7.79067 23.368
631 1 -1.1104 12.101 18.7617 23.5655
628 2 2.2208 2.34104 9.00619 27.3815
9276 2 2.2208 -0.301734 -2.15692 19.0968
313 2 2.2208 2.15379 20.4818 27.6789
311 2 2.2208 2.06212 14.6366 27.634
661 2 2.2208 7.82626 20.3676 27.724
616 1 -1.1104 6.57727 5.07246 26.2251
657 2 2.2208 13.5024 6.33476 24.7828
9386 2 2.2208 13.5346 11.9906 24.9875
457 1 -1.1104 12.1096 4.88371 20.4866
635 1 -1.1104 9.26898 4.83459 26.1029
637 1 -1.1104 9.19096 4.85123 23.4628
639 1 -1.1104 9.17325 7.69251 26.1301
641 2 2.2208 7.78166 6.28931 24.7308
642 2 2.2208 10.7608 6.16717 22.1113
644 1 -1.1104 12.0154 7.65867 23.4844
645 1 -1.1104 12.249 7.72835 26.2974
646 1 -1.1104 12.1351 4.78578 23.3363
649 1 -1.1104 11.992 5.01465 26.126
651 1 -1.1104 9.39191 7.66792 23.2812
634 1 -1.1104 9.10249 10.3686 26.1696
636 1 -1.1104 9.04232 10.5258 23.3022
638 2 2.2208 7.89613 9.09475 21.9067
640 2 2.2208 7.69812 11.9445 24.8152
643 2 2.2208 10.5977 11.8961 22.1237
647 1 -1.1104 12.0207 10.5303 23.4772
648 2 2.2208 10.5572 9.09213 24.677
650 1 -1.1104 11.7543 10.3631 26.0866
537 2 2.2208 13.3671 17.341 24.9199
633 1 -1.1104 11.7503 18.8082 26.2047
507 1 -1.1104 3.58368 16.2656 20.5437
487 1 -1.1104 6.47329 18.798 20.6746
593 2 2.2208 7.86415 -2.20735 27.5155
472 1 -1.1104 6.4106 16.1136 23.5487
592 1 -1.1104 6.43157 18.8838 23.5837
570 1 -1.1104 6.53624 13.464 23.5392
652 1 -1.1104 6.48615 16.0534 26.3716
473 1 -1.1104 3.50108 13.3956 26.1786
535 1 -1.1104 1.07448 13.4417 23.5077
599 1 -1.1104 0.537968 13.4075 26.2181
653 1 -1.1104 3.79327 13.413 23.5866
371 2 2.2208 2.12379 14.9006 21.9202
373 1 -1.1104 3.49765 19.1184 23.5894
374 2 2.2208 2.14518 20.4594 22.2045
410 1 -1.1104 3.34773 16.314 23.3063
411 1 -1.1104 0.519929 16.2263 23.3279
508 1 -1.1104 3.69583 16.3103 26.3112
509 2 2.2208 2.203 17.6349 24.9313
510 1 -1.1104 3.66784 18.9913 26.5173
534 2 2.2208 4.79885 17.6612 22.0746
536 1 -1.1104 0.819044 19.0061 23.5544
571 2 2.2208 5.05844 14.703 24.9483
572 2 2.2208 5.04088 20.355 25.1049
602 1 -1.1104 0.770859 16.1558 26.1488
629 1 -1.1104 0.940073 19.0249 26.2021
654 1 -1.1104 6.40718 13.2509 26.3214
601 2 2.2208 10.603 14.5934 24.8597
598 1 -1.1104 12.0983 16.0751 26.3773
596 1 -1.1104 9.06965 18.985 23.713
405 1 -1.1104 9.15202 13.0724 26.3367
521 1 -1.1104 11.8558 16.625 20.498
526 1 -1.1104 9.31395 13.403 20.872
600 2 2.2208 10.86 20.3281 24.7186
566 2 2.2208 7.79164 20.2223 22.2427
567 1 -1.1104 9.23418 16.0864 23.4279
573 2 2.2208 10.621 17.6129 22.1933
632 1 -1.1104 11.9799 13.2032 26.0789
8504 2 2.2208 10.7045 -4.91382 22.1322
568 1 -1.1104 9.41803 15.8672 26.3121
597 1 -1.1104 9.23112 13.2722 23.5932
332 2 2.2208 10.6885 6.22726 27.5357
564 2 2.2208 2.42954 3.52492 27.6496
9341 2 2.2208 13.3811 14.6882 16.3494
330 2 2.2208 10.5863 11.6888 27.6228
9505 2 2.2208 13.5302 3.44634 27.5394
9343 2 2.2208 13.6164 17.288 19.3224
9152 2 2.2208 13.4496 14.5752 27.5955
8490 2 2.2208 7.89412 -4.87459 24.9233
569 2 2.2208 2.345 -4.89126 24.6545
372 2 2.2208 -0.36854 0.603692 16.3064
660 2 2.2208 10.5907 20.4544 13.7367
312 2 2.2208 5.07392 17.5593 27.6947
663 2 2.2208 5.21143 23.2397 5.22837
665 1 -1.1104 0.915399 24.5099 0.88359
666 1 -1.1104 0.801453 24.6277 3.77239
667 1 -1.1104 0.66266 21.9327 1.12574
668 1 -1.1104 0.965954 27.3671 1.0248
669 2 2.2208 5.07155 26.0586 2.31242
670 1 -1.1104 0.815267 21.9562 3.863
671 1 -1.1104 0.900876 27.3393 3.5843
672 1 -1.1104 3.75312 24.6292 1.0487
673 2 2.2208 2.28147 23.1603 2.37287
675 1 -1.1104 3.69068 24.7857 3.76474
676 2 2.2208 2.3035 25.885 5.13985
677 1 -1.1104 3.55579 21.7738 0.862612
678 1 -1.1104 3.66599 27.4355 1.01659
679 1 -1.1104 3.74538 21.9682 3.71315
680 1 -1.1104 3.76036 27.5551 3.68313
664 2 2.2208 5.06632 28.8718 5.30455
674 2 2.2208 2.29526 28.7444 2.4606
687 1 -1.1104 6.52681 27.5445 0.937014
688 1 -1.1104 6.44275 21.8689 3.65107
809 1 -1.1104 3.77291 21.7431 6.53369
808 1 -1.1104 3.75796 24.688 6.48534
802 1 -1.1104 0.891546 24.4313 6.66505
810 1 -1.1104 3.61731 27.3897 6.48467
803 1 -1.1104 6.59221 24.6618 6.6263
684 1 -1.1104 6.49264 24.7688 0.85227
686 1 -1.1104 6.20149 21.9006 0.936885
805 1 -1.1104 0.84203 27.4183 6.37387
807 1 -1.1104 6.3317 27.3398 6.62152
806 1 -1.1104 6.5188 21.8268 6.52008
1345 1 -1.1104 9.51218 47.1779 3.58906
685 1 -1.1104 6.6066 24.5942 3.7357
689 1 -1.1104 6.5735 27.4409 3.74943
690 2 2.2208 10.6303 23.1973 5.0643
692 1 -1.1104 12.1943 24.7321 0.986129
693 1 -1.1104 12.0638 24.5819 3.81179
694 1 -1.1104 12.0153 21.7285 0.968521
695 1 -1.1104 11.9347 27.4387 0.996785
696 2 2.2208 10.5963 26.0481 2.33362
697 1 -1.1104 11.9515 21.8298 3.60174
698 1 -1.1104 12.2234 27.5191 3.80956
699 1 -1.1104 9.21097 24.6822 0.843577
700 2 2.2208 7.88431 23.2602 2.17887
702 1 -1.1104 9.4389 24.8263 3.6087
703 2 2.2208 7.84764 26.1815 5.20902
704 1 -1.1104 9.02949 21.8258 0.868849
705 1 -1.1104 9.30748 27.4024 1.07057
706 1 -1.1104 9.21189 21.9212 3.74052
707 1 -1.1104 9.54808 27.4086 3.80741
691 2 2.2208 10.8427 28.7475 5.25553
701 2 2.2208 7.82438 28.7838 2.52743
837 1 -1.1104 9.3064 24.6076 6.46437
839 1 -1.1104 9.19178 27.5739 6.52151
9716 2 2.2208 13.376 37.2388 10.8707
9820 2 2.2208 13.4676 23.0726 2.30658
9821 2 2.2208 13.4805 28.9553 2.41914
713 1 -1.1104 0.979653 30.3806 0.977965
716 1 -1.1104 0.753495 30.2746 3.83022
719 1 -1.1104 0.900072 33.0248 0.925103
720 2 2.2208 5.05589 31.564 2.42162
722 1 -1.1104 0.895072 33.0842 3.62311
724 1 -1.1104 3.74156 30.2736 1.01803
727 1 -1.1104 3.55865 30.2123 3.82529
729 2 2.2208 2.291 31.7295 5.13412
731 1 -1.1104 3.70829 33.2303 0.931177
732 1 -1.1104 3.72778 33.0575 3.77136
712 2 2.2208 4.96653 34.533 5.12634
714 1 -1.1104 0.867047 36.0598 0.992637
717 1 -1.1104 1.0537 35.7567 3.76471
721 2 2.2208 5.13485 37.4896 2.34866
725 1 -1.1104 3.91053 36.0806 0.959635
726 2 2.2208 2.45635 34.7033 2.25642
728 1 -1.1104 3.74996 36.0004 3.77423
730 2 2.2208 2.15776 37.3109 5.29074
718 1 -1.1104 6.38796 36.0691 3.7754
737 1 -1.1104 6.56837 33.0475 1.02098
864 1 -1.1104 3.55403 35.9119 6.61477
863 1 -1.1104 3.7577 30.2891 6.62878
715 1 -1.1104 6.56851 35.8959 0.930371
736 1 -1.1104 6.48005 30.3223 3.929
860 1 -1.1104 6.21219 35.9132 6.66125
861 1 -1.1104 0.785297 33.0762 6.36385
862 1 -1.1104 6.4635 33.1367 6.61173
1286 2 2.2208 2.40492 45.6336 13.5983
735 1 -1.1104 6.51622 30.3117 1.2376
723 1 -1.1104 6.33896 33.1122 3.81279
739 1 -1.1104 12.2408 30.2722 0.875286
742 1 -1.1104 11.9223 33.1407 1.24034
743 2 2.2208 10.6207 31.4244 2.24636
745 1 -1.1104 9.31416 30.2788 0.780295
748 1 -1.1104 9.18802 30.1747 3.78844
750 2 2.2208 7.99995 31.6604 5.19886
752 1 -1.1104 9.32333 32.9484 1.08973
753 1 -1.1104 9.47405 32.9843 3.75407
893 1 -1.1104 11.9119 30.2617 3.80083
738 2 2.2208 10.5044 34.3543 5.25269
740 1 -1.1104 12.1504 35.8125 0.778344
741 1 -1.1104 11.7771 35.2718 3.6581
744 2 2.2208 10.6829 37.1703 2.49053
746 1 -1.1104 9.32838 35.8634 1.08177
747 2 2.2208 7.75356 34.3992 2.37336
749 1 -1.1104 9.14966 36.0331 4.00411
751 2 2.2208 7.73486 37.2756 5.2562
896 1 -1.1104 9.22763 33.0212 6.52433