ITEM: TIMESTEP
70000
ITEM: NUMBER OF ATOMS
17910
ITEM: BOX BOUNDS pp pp pp
-4.0347908000869437e-01 2.7743479080008822e+01
-4.8075799114908966e+00 3.3288757991149896e+02
-4.0489218467104782e-01 2.7744892184671507e+01
ITEM: ATOMS id type q x y z
1 2 2.2208 5.28012 0.81242 5.23859
2 1 -1.1104 1.10042 -3.464 0.84714
6 1 -1.1104 1.19041 -3.4834 3.90978
10 1 -1.1104 1.25838 -0.316529 1.04415
12 2 2.2208 5.31447 -1.91078 2.54783
14 1 -1.1104 1.07133 -0.491469 3.87389
16 1 -1.1104 3.83593 -3.31244 1.19549
18 2 2.2208 2.50594 1.14137 2.42547
19 1 -1.1104 3.79999 -3.15198 3.88179
21 2 2.2208 2.56875 -1.97904 5.24062
23 1 -1.1104 3.90485 -0.475239 1.19286
24 1 -1.1104 3.99859 -0.4521 3.95619
3 1 -1.1104 1.05909 2.35552 1.10459
7 1 -1.1104 1.23649 2.26353 3.96906
17 1 -1.1104 3.86344 2.3925 0.90785
20 1 -1.1104 4.04277 2.49574 3.99755
22 2 2.2208 2.54146 3.69992 5.43382
13 2 2.2208 5.49201 3.78839 2.47844
567 2 2.2208 2.66379 3.78742 -0.36571
336 2 2.2208 2.68222 -1.97447 -0.384143
11 1 -1.1104 6.66552 -0.570092 1.18625
8 1 -1.1104 6.65188 -3.41607 3.87709
8535 2 2.2208 8.21551 -4.79936 2.52676
8534 2 2.2208 -0.209313 -4.75723 5.33357
565 2 2.2208 5.29305 0.917696 -0.398066
25 2 2.2208 -0.194383 -2.13879 2.53682
8551 2 2.2208 5.40227 -4.76176 -0.277924
8539 2 2.2208 5.30218 -4.77084 11.0306
635 2 2.2208 -0.351921 6.36105 -0.234332
311 2 2.2208 10.9397 17.9083 10.7467
630 2 2.2208 2.45258 9.23847 -0.465797
5 1 -1.1104 6.66126 2.15638 1.2212
15 1 -1.1104 6.74516 -0.766407 4.0768
597 2 2.2208 8.05195 3.63852 -0.297009
4 1 -1.1104 6.68792 -3.49949 1.02392
9 1 -1.1104 6.86837 2.12494 4.06908
31 2 2.2208 10.9667 1.00651 5.40445
32 1 -1.1104 12.222 -3.58078 1.12194
34 1 -1.1104 12.4133 -3.44735 3.91913
36 1 -1.1104 12.5128 -0.719283 1.14237
37 2 2.2208 10.8598 -1.91732 2.67788
39 1 -1.1104 12.2211 -0.546668 4.0143
40 1 -1.1104 9.59123 -3.29167 1.12386
42 2 2.2208 8.00191 0.777117 2.52086
43 1 -1.1104 9.47226 -3.47553 3.98903
45 2 2.2208 8.05763 -2.0501 5.46267
47 1 -1.1104 9.42637 -0.637732 1.29286
48 1 -1.1104 9.64591 -0.534588 3.99938
33 1 -1.1104 12.233 2.13341 1.0115
35 1 -1.1104 12.4154 2.26624 4.10133
41 1 -1.1104 9.51306 2.21793 1.05955
44 1 -1.1104 9.48982 2.25623 4.17179
46 2 2.2208 8.15426 3.69859 5.49636
38 2 2.2208 10.9878 3.61295 2.60573
8538 2 2.2208 2.54689 -4.69294 8.22739
596 2 2.2208 8.14167 -2.01728 -0.19101
8533 2 2.2208 5.34999 -4.78836 5.54844
684 2 2.2208 5.23987 17.7988 -0.325784
656 2 2.2208 10.7731 12.099 -0.178362
632 2 2.2208 -0.296988 12.1356 -0.409244
289 1 -1.1104 6.7708 16.5681 9.70829
8540 2 2.2208 -0.237108 -4.85101 11.074
316 2 2.2208 8.08264 20.6772 10.9043
54 2 2.2208 5.29045 6.60086 5.26709
56 1 -1.1104 1.1322 7.87607 1.18297
58 1 -1.1104 1.28366 7.83594 4.14525
60 1 -1.1104 1.24835 5.09178 1.14893
67 1 -1.1104 1.11298 5.01319 4.10228
71 1 -1.1104 3.91948 8.0257 1.06039
72 2 2.2208 2.49789 6.59359 2.57622
74 1 -1.1104 4.07993 7.99626 3.90053
76 1 -1.1104 3.98993 5.19404 1.19727
79 1 -1.1104 3.97371 5.17078 4.04519
55 2 2.2208 5.25526 12.189 5.22665
61 1 -1.1104 1.00398 10.5566 1.15749
66 2 2.2208 5.22322 9.3139 2.48565
68 1 -1.1104 1.11214 10.597 3.96821
73 2 2.2208 2.42911 12.1366 2.48046
75 2 2.2208 2.64089 9.35949 5.31364
77 1 -1.1104 3.95142 10.7531 1.01378
80 1 -1.1104 3.88375 10.7404 3.8682
239 1 -1.1104 3.87564 5.08046 6.92554
312 1 -1.1104 12.5161 13.3803 12.3725
685 2 2.2208 2.54697 14.8372 -0.465124
325 2 2.2208 10.8684 14.8894 8.0483
238 1 -1.1104 3.73379 7.87404 6.84962
654 2 2.2208 10.8052 6.49908 -0.20353
8536 2 2.2208 10.9175 -4.86646 5.34285
69 1 -1.1104 6.85256 5.16837 3.85144
57 1 -1.1104 6.82726 7.75141 1.34707
63 1 -1.1104 6.77723 4.98893 1.11747
64 1 -1.1104 6.82527 10.4891 1.24058
59 1 -1.1104 6.87094 7.98841 4.11399
70 1 -1.1104 6.52351 10.7477 4.11509
84 2 2.2208 10.9057 6.53671 5.50575
86 1 -1.1104 12.3033 7.83435 1.25465
87 1 -1.1104 12.4824 7.75592 4.1048
88 1 -1.1104 12.3266 5.0112 1.14284
92 1 -1.1104 12.2642 5.02353 3.97231
94 1 -1.1104 9.58494 7.8682 1.13025
95 2 2.2208 8.35158 6.53593 2.67763
97 1 -1.1104 9.60762 7.92861 4.14353
99 1 -1.1104 9.46744 5.02654 1.29089
102 1 -1.1104 9.56607 5.12256 4.01534
85 2 2.2208 10.9914 12.2118 5.44897
89 1 -1.1104 12.3017 10.603 1.15122
91 2 2.2208 11.0504 9.1726 2.74662
93 1 -1.1104 12.4994 10.6484 4.01629
96 2 2.2208 8.02968 11.9371 2.64987
98 2 2.2208 8.07301 9.3467 5.45974
100 1 -1.1104 9.48468 10.7329 1.45462
103 1 -1.1104 9.59684 10.7513 4.14308
143 1 -1.1104 12.4079 13.5605 6.62377
9108 2 2.2208 -0.251511 20.5472 2.27793
538 2 2.2208 11.0868 15.0989 13.8207
135 2 2.2208 -0.213118 14.9546 2.46328
8600 2 2.2208 10.8897 -4.84828 -0.191266
107 1 -1.1104 1.08207 13.3547 1.09825
113 1 -1.1104 1.08499 13.3763 3.82993
123 1 -1.1104 3.88571 13.668 1.11903
128 1 -1.1104 3.72601 13.5802 3.84886
106 2 2.2208 5.33519 17.8099 5.21399
109 1 -1.1104 1.22842 19.1986 0.949738
114 1 -1.1104 1.01371 19.1918 3.86868
116 1 -1.1104 1.11826 16.2845 0.991793
119 2 2.2208 5.18036 15.0157 2.45514
120 2 2.2208 5.29967 20.6643 2.44927
121 1 -1.1104 1.03716 16.5705 3.73513
125 1 -1.1104 3.98446 19.2387 1.08328
127 2 2.2208 2.52801 17.7906 2.44653
129 1 -1.1104 3.90781 19.2044 3.92196
130 2 2.2208 2.29856 14.8151 5.17935
131 2 2.2208 2.28075 20.5879 5.28888
132 1 -1.1104 3.76709 16.2863 1.06618
134 1 -1.1104 3.78787 16.3172 3.95075
323 1 -1.1104 12.4275 16.3564 9.32786
319 1 -1.1104 9.48903 13.6899 9.55605
122 1 -1.1104 6.58001 16.2546 3.8089
126 1 -1.1104 3.89359 19.1599 6.59091
133 1 -1.1104 3.87261 16.2864 6.75132
8542 2 2.2208 10.819 -4.87707 11.1345
138 1 -1.1104 6.63171 19.2406 1.08027
115 1 -1.1104 6.5954 13.4631 3.88308
139 1 -1.1104 6.85735 19.1857 4.00296
110 1 -1.1104 6.64572 13.4194 1.22842
140 1 -1.1104 6.67103 16.3606 1.20659
142 1 -1.1104 12.1623 13.5223 1.25653
146 1 -1.1104 12.3089 13.5863 4.00008
153 1 -1.1104 9.34307 13.5345 1.07359
158 1 -1.1104 9.42404 13.4177 3.84686
141 2 2.2208 10.8862 17.8865 5.22792
144 1 -1.1104 12.3791 19.3396 1.1538
147 1 -1.1104 12.3203 19.3232 3.944
148 1 -1.1104 12.3609 16.5635 1.25747
150 2 2.2208 10.7842 14.829 2.56937
151 2 2.2208 10.8774 20.6757 2.37163
152 1 -1.1104 12.2436 16.3972 3.80037
155 1 -1.1104 9.53463 19.0618 1.12438
157 2 2.2208 8.09624 17.8094 2.51627
159 1 -1.1104 9.62718 19.2292 3.95628
160 2 2.2208 7.97321 14.8387 5.20343
161 2 2.2208 8.10931 20.6349 5.34919
162 1 -1.1104 9.55578 16.3037 1.2432
164 1 -1.1104 9.32969 16.3029 3.95345
165 2 2.2208 13.7944 17.8273 2.49802
380 2 2.2208 10.8173 17.6943 -0.225244
317 2 2.2208 8.12266 14.9948 11.0654
168 1 -1.1104 6.74897 -3.41139 6.68481
199 2 2.2208 -0.276686 3.62966 8.29481
200 2 2.2208 -0.235123 -2.04463 8.25147
167 1 -1.1104 1.01445 2.16343 6.86185
172 1 -1.1104 4.05805 -3.40134 6.80687
166 1 -1.1104 1.23241 -3.21408 6.73989
174 1 -1.1104 3.9518 -0.566918 6.71018
170 1 -1.1104 1.15841 -0.587562 6.72316
173 1 -1.1104 3.86809 2.09709 6.60266
175 2 2.2208 5.22833 0.956415 11.0718
176 1 -1.1104 1.02741 -3.54865 12.475
180 1 -1.1104 1.27139 -3.5264 9.80231
184 1 -1.1104 1.22857 -0.68168 12.5516
186 2 2.2208 5.24544 -1.95213 8.2114
188 1 -1.1104 1.1632 -0.712691 9.60225
190 1 -1.1104 3.85219 -3.36509 12.4412
192 2 2.2208 2.5749 0.829236 8.09034
193 1 -1.1104 3.97904 -3.34881 9.60438
195 2 2.2208 2.61429 -2.0517 10.9309
197 1 -1.1104 4.00935 -0.521711 12.3324
198 1 -1.1104 3.82864 -0.477282 9.43608
177 1 -1.1104 1.11018 2.14833 12.3443
181 1 -1.1104 1.05983 2.18996 9.57941
191 1 -1.1104 3.94382 2.38269 12.4654
194 1 -1.1104 3.88781 2.37432 9.42215
196 2 2.2208 2.57619 3.59753 11.0153
187 2 2.2208 5.38032 3.65876 8.25901
185 1 -1.1104 6.65949 -0.304383 12.4542
178 1 -1.1104 6.66633 -3.15145 12.3984
182 1 -1.1104 6.68794 -3.43061 9.62907
179 1 -1.1104 6.55938 2.53621 12.2512
8532 2 2.2208 2.43991 -4.72756 2.53611
27 2 2.2208 -0.158716 3.64571 2.68021
171 1 -1.1104 6.82166 -0.571454 6.83427
207 1 -1.1104 12.3907 -0.368666 6.85676
209 1 -1.1104 9.46211 2.15442 6.84789
169 1 -1.1104 6.60443 2.41294 6.80889
208 1 -1.1104 9.5975 -3.29628 6.66242
183 1 -1.1104 6.74242 2.23743 9.45729
205 1 -1.1104 12.2754 -3.23322 6.64208
210 1 -1.1104 9.38244 -0.554354 6.83996
206 1 -1.1104 12.2014 2.52841 6.72178
189 1 -1.1104 6.84746 -0.701956 9.70047
211 2 2.2208 10.7051 0.850525 11.0495
212 1 -1.1104 12.1673 -3.44615 12.3898
214 1 -1.1104 12.1756 -3.4478 9.6137
216 1 -1.1104 12.2179 -0.551824 12.6469
217 2 2.2208 10.9518 -1.93273 8.17877
219 1 -1.1104 12.3222 -0.63876 9.58324
220 1 -1.1104 9.51911 -3.36845 12.4008
222 2 2.2208 8.05567 0.849466 8.20699
223 1 -1.1104 9.44201 -3.24336 9.4807
225 2 2.2208 8.09553 -2.04794 10.981
227 1 -1.1104 9.41729 -0.625264 12.5706
228 1 -1.1104 9.6994 -0.472233 9.44511
213 1 -1.1104 12.1424 2.1815 12.5617
215 1 -1.1104 12.2296 2.15279 9.7854
218 2 2.2208 10.9709 3.80546 8.28856
221 1 -1.1104 9.38943 2.32464 12.4673
224 1 -1.1104 9.53587 2.46366 9.6533
226 2 2.2208 8.03352 3.83246 11.0668
338 2 2.2208 -0.384516 0.723477 -0.162283
230 2 2.2208 13.6518 -1.7724 11.0164
26 2 2.2208 -0.46224 0.749315 5.38768
28 2 2.2208 -0.310244 6.46944 11.029
231 1 -1.1104 12.3771 13.5769 9.40652
236 1 -1.1104 1.1766 5.17891 6.78918
234 1 -1.1104 0.972458 7.89105 6.92563
78 1 -1.1104 4.15799 10.6931 6.48592
62 1 -1.1104 1.09428 10.8706 6.68951
240 2 2.2208 5.25234 6.63712 10.9105
242 1 -1.1104 0.995018 7.84059 12.4777
244 1 -1.1104 1.07435 7.93729 9.73295
246 1 -1.1104 0.976238 4.90086 12.3414
251 1 -1.1104 1.22509 5.10414 9.41528
255 1 -1.1104 3.88691 7.91693 12.389
256 2 2.2208 2.44518 6.60051 8.25738
258 1 -1.1104 3.83583 7.97495 9.7131
260 1 -1.1104 3.83823 5.11984 12.3897
262 1 -1.1104 3.95617 5.15364 9.70376
241 2 2.2208 5.37657 12.2124 10.9619
247 1 -1.1104 1.13047 10.7704 12.5034
250 2 2.2208 5.47372 9.44601 8.17738
252 1 -1.1104 1.02203 10.756 9.56676
257 2 2.2208 2.49864 12.1093 7.93485
259 2 2.2208 2.43246 9.45406 10.9818
261 1 -1.1104 3.85214 10.8217 12.3355
263 1 -1.1104 4.00314 10.7904 9.51148
253 1 -1.1104 6.66662 5.14624 9.71436
237 1 -1.1104 6.88491 5.15601 6.96012
254 1 -1.1104 6.84705 10.7767 9.55609
245 1 -1.1104 6.63131 7.94248 9.67434
249 1 -1.1104 6.59484 11.0008 12.2924
235 1 -1.1104 6.56319 7.95987 6.77785
90 1 -1.1104 12.3338 10.6855 6.7856
65 1 -1.1104 6.83802 10.9646 6.74752
101 1 -1.1104 9.4563 10.7871 6.87952
266 1 -1.1104 12.511 5.17498 6.90125
265 1 -1.1104 12.2074 7.80561 6.84359
243 1 -1.1104 6.56947 8.03421 12.4302
248 1 -1.1104 6.63078 5.19643 12.3342
267 1 -1.1104 9.41217 7.71694 6.82903
269 1 -1.1104 9.76001 5.15111 6.86953
268 1 -1.1104 9.49231 5.15451 9.65378
271 1 -1.1104 9.42329 5.16363 12.5135
273 1 -1.1104 9.41245 8.11584 9.63291
275 2 2.2208 8.21018 6.43621 8.33875
276 2 2.2208 10.8503 6.48855 10.9474
278 1 -1.1104 12.2908 7.59772 12.4745
279 1 -1.1104 12.3193 7.95336 9.59126
280 1 -1.1104 12.2401 4.93419 12.4049
283 1 -1.1104 12.242 5.15417 9.54204
285 1 -1.1104 9.54429 7.86483 12.3826
264 1 -1.1104 9.52449 10.8227 9.7383
270 1 -1.1104 9.39329 10.9326 12.4446
272 2 2.2208 8.06237 9.50583 11.0933
274 2 2.2208 8.06645 12.1627 8.2162
277 2 2.2208 10.9048 12.2362 11.0826
281 1 -1.1104 12.3015 10.563 12.4774
282 2 2.2208 10.9064 9.31907 8.10497
284 1 -1.1104 12.3402 10.8029 9.45727
8950 2 2.2208 -0.229223 17.7304 11.051
306 1 -1.1104 6.84725 16.3174 12.438
302 1 -1.1104 0.954534 18.9735 6.65225
108 1 -1.1104 0.980955 13.5776 6.5369
124 1 -1.1104 3.83007 13.4439 6.60591
117 1 -1.1104 1.04587 16.1362 6.64689
287 1 -1.1104 3.95732 13.6839 12.3828
294 1 -1.1104 1.14238 13.782 9.37435
299 1 -1.1104 1.15311 13.4109 12.3508
305 1 -1.1104 3.76068 13.5659 9.48586
286 1 -1.1104 3.85007 19.2729 12.3669
291 1 -1.1104 1.19265 19.2537 9.38427
292 1 -1.1104 1.03592 16.6821 9.40871
293 2 2.2208 5.30668 20.5244 8.04838
295 2 2.2208 5.27786 15.0958 8.11558
298 1 -1.1104 1.14874 19.3469 12.2263
300 2 2.2208 5.47582 17.8629 11.0182
301 1 -1.1104 4.01047 19.1955 9.54079
303 2 2.2208 2.53835 17.636 7.98628
304 1 -1.1104 3.94923 16.3591 9.56782
307 1 -1.1104 1.14262 16.472 12.2744
308 1 -1.1104 4.11621 16.4093 12.4196
309 2 2.2208 2.51454 20.4736 10.9363
310 2 2.2208 2.57426 14.9462 10.9339
8975 2 2.2208 -0.377609 20.4148 8.01318
605 2 2.2208 13.794 3.52811 -0.179053
318 1 -1.1104 9.37484 19.1925 9.61253
154 1 -1.1104 9.53829 13.5848 6.68987
321 1 -1.1104 9.66337 19.2317 12.3288
233 1 -1.1104 12.9614 16.3003 12.3464
290 1 -1.1104 6.58042 13.8131 9.79889
296 1 -1.1104 6.82582 19.17 12.4448
156 1 -1.1104 9.49457 19.3789 6.64668
163 1 -1.1104 9.51816 16.2917 6.67719
297 1 -1.1104 7.01324 13.5515 12.5958
145 1 -1.1104 12.3231 19.2236 6.60707
322 1 -1.1104 9.76757 13.7882 12.4703
320 2 2.2208 8.17176 17.7543 8.06398
232 1 -1.1104 12.4042 19.2268 9.3301
314 1 -1.1104 9.48114 16.5253 9.57805
315 1 -1.1104 9.7354 16.4016 12.2711
313 1 -1.1104 12.2295 18.9844 12.3664
112 1 -1.1104 6.61519 19.1636 6.74979
288 1 -1.1104 6.70522 19.3152 9.52153
118 1 -1.1104 6.65097 16.3879 6.78189
111 1 -1.1104 6.65328 13.6992 6.90569
149 1 -1.1104 12.48 16.3696 6.54363
324 2 2.2208 10.8796 20.6968 7.99705
104 2 2.2208 13.793 12.1358 2.58354
83 2 2.2208 -0.357252 12.0528 5.22121
82 2 2.2208 -0.267801 9.37662 2.56368
9210 2 2.2208 13.8405 20.5118 10.8861
81 2 2.2208 -0.20706 6.44598 5.47136
137 2 2.2208 13.7041 17.808 7.93744
29 2 2.2208 -0.263223 9.45211 8.11492
595 2 2.2208 10.8107 0.665993 -0.278128
201 2 2.2208 -0.277929 0.674743 11.0464
658 2 2.2208 13.7124 9.39628 -0.277926
9170 2 2.2208 -0.219728 12.186 10.79
631 2 2.2208 5.32273 12.0709 -0.241804
378 2 2.2208 7.94387 14.9784 -0.238378
326 2 2.2208 -0.436889 -1.89496 14.0091
629 2 2.2208 5.36983 6.51594 -0.130594
340 2 2.2208 5.28423 0.799651 16.5668
341 1 -1.1104 1.15779 -3.16848 18.1885
345 1 -1.1104 0.950879 -3.08567 15.4171
353 1 -1.1104 0.981031 -0.476657 18.0319
355 2 2.2208 5.22005 -1.87176 19.4468
357 1 -1.1104 1.26105 -0.272272 15.2309
361 1 -1.1104 3.99983 -3.17924 18.046
363 2 2.2208 2.45817 0.875724 19.3725
364 1 -1.1104 3.85359 -3.3221 15.3354
368 2 2.2208 2.47176 -1.76094 16.7273
370 1 -1.1104 3.8827 -0.27595 17.8581
371 1 -1.1104 3.91852 -0.471173 15.1449
342 1 -1.1104 1.13854 2.42742 18.1301
347 1 -1.1104 1.09305 2.30662 15.1907
362 1 -1.1104 4.00233 2.20797 17.9674
366 1 -1.1104 3.9656 2.14154 15.1487
356 2 2.2208 5.20511 3.61763 19.4992
369 2 2.2208 2.52214 3.53378 16.5473
354 1 -1.1104 6.46919 -0.622819 18.0971
349 1 -1.1104 6.73896 -3.31437 15.4058
331 2 2.2208 2.40993 6.42819 13.646
346 1 -1.1104 1.03136 -3.38198 20.9172
337 2 2.2208 -0.386758 3.66764 13.8044
9337 2 2.2208 -0.545371 3.86071 19.5596
329 2 2.2208 5.17635 3.75099 13.7927
451 2 2.2208 10.9261 9.33983 13.8076
487 1 -1.1104 6.66708 13.586 20.812
327 2 2.2208 5.41237 -1.94055 13.8147
335 2 2.2208 2.50534 17.8871 13.6925
476 2 2.2208 7.8051 6.45546 13.8768
332 2 2.2208 5.20683 9.39871 13.7977
359 1 -1.1104 6.81933 -0.461315 15.2313
344 1 -1.1104 6.74635 2.3413 18.0615
8634 2 2.2208 2.5373 -4.83409 24.9788
351 1 -1.1104 6.65389 2.30117 15.1149
343 1 -1.1104 6.68382 -3.39701 18.09
383 2 2.2208 10.7564 0.865993 16.7843
384 1 -1.1104 12.3023 -3.53552 18.0874
386 1 -1.1104 12.4133 -3.39001 15.2506
390 1 -1.1104 12.1637 -0.509031 18.0148
391 2 2.2208 10.957 -2.00896 19.4902
393 1 -1.1104 12.3978 -0.628151 15.3185
395 1 -1.1104 9.43578 -3.30859 17.9743
397 2 2.2208 8.03339 0.847329 19.4679
398 1 -1.1104 9.62431 -3.30211 15.3503
402 2 2.2208 7.98502 -1.95405 16.8004
404 1 -1.1104 9.3712 -0.54281 18.0937
405 1 -1.1104 9.69169 -0.569719 15.4155
385 1 -1.1104 12.2439 2.20345 18.1323
388 1 -1.1104 12.0556 2.25236 15.4017
396 1 -1.1104 9.34772 2.27003 18.0103
400 1 -1.1104 9.4221 2.22627 15.1997
403 2 2.2208 7.86103 3.54017 16.6511
392 2 2.2208 10.8118 3.67835 19.3362
414 2 2.2208 10.8444 -1.84746 13.9476
9410 2 2.2208 -0.356877 6.36501 16.7175
8635 2 2.2208 5.41499 -4.639 22.1851
413 2 2.2208 7.95974 0.926138 13.8569
408 1 -1.1104 12.2315 13.4038 23.7916
416 2 2.2208 4.97358 6.38728 16.516
418 1 -1.1104 1.02342 7.77795 18.5016
420 1 -1.1104 1.18791 7.75593 15.4544
423 1 -1.1104 1.11533 5.01929 18.023
428 1 -1.1104 1.02195 5.03771 15.1755
435 1 -1.1104 3.69553 7.78416 17.9139
436 2 2.2208 2.51631 6.32416 19.3472
438 1 -1.1104 3.82279 7.90036 15.1901
441 1 -1.1104 3.80166 4.94435 18.1799
443 1 -1.1104 3.8314 4.91205 15.2295
417 2 2.2208 5.24723 12.2144 16.7911
424 1 -1.1104 1.05681 10.6304 18.1631
427 2 2.2208 5.21923 9.29391 19.4388
430 1 -1.1104 1.03274 10.7517 15.3277
437 2 2.2208 2.61401 12.1209 19.4525
440 2 2.2208 2.57295 9.30553 16.7141
442 1 -1.1104 3.78597 10.6138 18.2037
445 1 -1.1104 3.85302 10.7008 15.2275
9375 2 2.2208 -0.398855 12.1725 16.6043
9478 2 2.2208 -0.368004 14.8821 19.348
8637 2 2.2208 -0.362437 -4.64625 22.2835
446 1 -1.1104 4.08608 10.9822 20.7056
439 1 -1.1104 3.51459 7.75339 20.6754
339 2 2.2208 -0.242529 17.7221 27.8145
566 2 2.2208 11.1911 20.4799 25.1704
659 2 2.2208 13.6053 6.45515 25.1111
431 1 -1.1104 6.5344 4.97792 15.1667
419 1 -1.1104 6.36117 7.83723 17.9657
433 1 -1.1104 6.617 10.6083 15.1965
421 1 -1.1104 6.57641 7.75585 15.3453
426 1 -1.1104 6.6558 10.8853 17.9163
425 1 -1.1104 6.39476 5.03623 17.9286
452 2 2.2208 10.7244 6.49241 16.5144
454 1 -1.1104 12.1616 8.12279 17.8773
455 1 -1.1104 12.3401 7.95145 15.2296
457 1 -1.1104 12.0719 5.1604 18.0069
460 1 -1.1104 12.126 5.11022 15.2838
464 1 -1.1104 9.29279 7.90744 18.0607
465 2 2.2208 7.95945 6.36047 19.4063
467 1 -1.1104 9.34499 7.88248 15.2184
470 1 -1.1104 9.26039 5.10015 18.0051
472 1 -1.1104 9.25829 5.14185 15.1813
453 2 2.2208 11.083 12.2097 16.5464
458 1 -1.1104 12.1674 10.7599 18.0059
459 2 2.2208 10.8972 9.18507 19.4506
462 1 -1.1104 12.2669 10.8161 15.0783
466 2 2.2208 8.15414 12.02 19.4852
469 2 2.2208 7.93938 9.30318 16.8657
471 1 -1.1104 9.27271 10.4918 18.1407
474 1 -1.1104 9.48559 10.8023 15.3189
8708 2 2.2208 5.2111 -4.65296 16.6514
572 2 2.2208 13.4895 0.847913 13.8669
8586 2 2.2208 8.14866 -4.86233 25.1568
334 2 2.2208 5.48333 14.9055 13.6407
8559 2 2.2208 2.49572 -4.69786 13.8868
512 2 2.2208 5.26496 20.5159 13.7296
478 1 -1.1104 1.04633 13.4874 18.046
482 1 -1.1104 1.07266 13.571 15.2408
498 1 -1.1104 3.88169 13.5991 18.0515
501 1 -1.1104 4.01598 13.6492 15.2292
492 2 2.2208 5.25941 15.0119 19.5227
477 2 2.2208 5.37765 17.6537 16.5079
479 1 -1.1104 1.09106 19.2862 17.7364
484 1 -1.1104 1.11612 19.4427 14.9553
490 1 -1.1104 1.21227 16.2675 18.0458
493 2 2.2208 5.35668 20.7677 19.3743
494 1 -1.1104 1.20477 16.4286 14.9746
499 1 -1.1104 3.97601 19.0666 17.9708
500 2 2.2208 2.46573 17.6775 19.5226
503 1 -1.1104 3.94253 19.1037 15.1394
505 2 2.2208 2.40863 14.9164 16.6624
506 2 2.2208 2.55269 20.7272 16.5279
507 1 -1.1104 3.99783 16.292 18.1015
508 1 -1.1104 3.94735 16.3029 15.4767
481 1 -1.1104 6.86367 19.4657 18.1176
633 2 2.2208 -0.335249 9.34152 24.9411
483 1 -1.1104 1.02001 13.2902 20.7148
502 1 -1.1104 3.81786 13.7602 20.8706
695 1 -1.1104 9.54054 13.384 26.4026
491 1 -1.1104 6.74815 16.4131 17.9905
488 1 -1.1104 6.77712 19.1851 15.2374
9477 2 2.2208 -0.0895878 20.6638 19.3624
486 1 -1.1104 6.66524 13.4028 15.3475
480 1 -1.1104 6.68777 13.637 18.1131
496 1 -1.1104 6.87183 16.3399 15.1558
514 1 -1.1104 12.3656 13.5426 18.1001
516 1 -1.1104 12.5186 13.7817 15.2569
525 1 -1.1104 9.58552 13.5707 18.0944
528 1 -1.1104 9.52114 13.649 15.371
521 2 2.2208 10.8171 15.0555 19.3839
513 2 2.2208 10.8499 17.8512 16.7503
515 1 -1.1104 12.2772 19.2926 17.9457
518 1 -1.1104 12.1455 19.1288 15.2065
520 1 -1.1104 12.4344 16.5187 17.9886
522 2 2.2208 11.0618 20.6653 19.3273
523 1 -1.1104 12.5805 16.3902 15.2475
526 1 -1.1104 9.59487 19.3917 18.1233
527 2 2.2208 8.21178 17.9425 19.4005
530 1 -1.1104 9.4926 19.2015 15.1621
532 2 2.2208 8.2306 15.0222 16.6844
533 2 2.2208 8.14188 20.7243 16.7379
534 1 -1.1104 9.44633 16.5805 18.0977
535 1 -1.1104 9.73836 16.4653 15.3608
689 2 2.2208 -0.220958 17.6941 22.1323
537 2 2.2208 10.7669 20.5407 13.7589
489 1 -1.1104 6.75951 19.3425 20.9746
365 1 -1.1104 3.78829 -3.36219 20.8733
358 1 -1.1104 1.21895 -0.469281 20.7464
688 2 2.2208 -0.280815 20.5672 24.8274
372 1 -1.1104 3.87134 -0.50421 20.7229
367 1 -1.1104 3.64352 2.17836 20.8182
348 1 -1.1104 0.89819 2.38951 20.7127
541 2 2.2208 5.1918 1.00576 22.1657
542 1 -1.1104 1.08638 -3.29185 23.5307
546 1 -1.1104 1.29811 -3.31833 26.2767
550 1 -1.1104 1.08907 -0.498522 23.6103
552 2 2.2208 5.4497 -1.91409 24.9879
554 1 -1.1104 0.934175 -0.543837 26.4366
556 1 -1.1104 3.96489 -3.2932 23.6584
558 2 2.2208 2.47933 0.98615 25.1222
559 1 -1.1104 4.13756 -3.23782 26.5048
561 2 2.2208 2.474 -1.87368 22.3016
563 1 -1.1104 4.09081 -0.709625 23.5471
564 1 -1.1104 3.87917 -0.370181 26.3724
543 1 -1.1104 0.982502 2.11533 23.7544
547 1 -1.1104 0.981869 2.34574 26.5182
557 1 -1.1104 3.79609 2.19595 23.5681
560 1 -1.1104 3.90897 2.39971 26.4245
562 2 2.2208 2.35976 3.70809 22.1345
553 2 2.2208 5.29814 3.8183 25.0509
328 2 2.2208 2.5793 0.848432 13.8256
382 2 2.2208 11.0325 17.7192 22.2435
377 2 2.2208 -0.293361 -1.94825 19.4222
551 1 -1.1104 6.76066 -0.430775 23.6567
549 1 -1.1104 6.69941 2.44157 26.3475
667 1 -1.1104 6.61279 19.151 23.6832
690 1 -1.1104 9.39703 16.3788 26.5573
360 1 -1.1104 6.61371 -0.598761 20.8506
401 1 -1.1104 9.55053 1.99795 20.8222
389 1 -1.1104 12.2935 2.05697 21.0332
350 1 -1.1104 6.75766 -3.34739 20.8343
544 1 -1.1104 6.85407 -3.28302 23.5824
352 1 -1.1104 6.69434 2.24494 20.8335
387 1 -1.1104 12.4397 -3.28117 20.9254
406 1 -1.1104 9.68196 -0.715406 20.9388
399 1 -1.1104 9.57405 -3.42576 20.7822
548 1 -1.1104 6.86017 -3.31623 26.4509
394 1 -1.1104 12.55 -0.598936 20.9168
555 1 -1.1104 6.70667 -0.37762 26.5642
545 1 -1.1104 6.67781 2.3582 23.6014
577 2 2.2208 10.9055 0.718423 22.3775
578 1 -1.1104 12.4144 -3.61981 23.6897
580 1 -1.1104 12.51 -3.36662 26.4863
582 1 -1.1104 12.355 -0.662179 23.6415
583 2 2.2208 11.068 -2.04782 25.0915
585 1 -1.1104 12.1942 -0.583014 26.5256
586 1 -1.1104 9.67666 -3.28168 23.6457
588 2 2.2208 8.10433 0.694206 25.0896
589 1 -1.1104 9.54835 -3.47414 26.4645
591 2 2.2208 8.14613 -1.9306 22.2656
593 1 -1.1104 9.54312 -0.572349 23.8453
594 1 -1.1104 9.51218 -0.743829 26.5305
579 1 -1.1104 12.33 2.06259 23.8867
581 1 -1.1104 12.1732 2.08761 26.64
587 1 -1.1104 9.51554 2.08899 23.7097
590 1 -1.1104 9.43147 2.02515 26.5438
584 2 2.2208 10.8905 3.55012 25.2101
592 2 2.2208 8.08948 3.64416 22.2534
697 2 2.2208 8.15406 17.845 25.1362
9252 2 2.2208 -0.429422 20.7316 13.7162
694 1 -1.1104 9.58601 19.1676 26.5609
444 1 -1.1104 3.82262 4.92687 20.8202
429 1 -1.1104 0.778576 5.42674 20.7636
687 1 -1.1104 9.73818 19.1024 23.8094
606 2 2.2208 5.09374 6.68128 22.2942
608 1 -1.1104 0.846447 7.75478 23.5995
610 1 -1.1104 0.99407 7.91144 26.5191
612 1 -1.1104 0.805666 4.84836 23.4354
617 1 -1.1104 1.07629 5.09181 26.5853
621 1 -1.1104 4.03391 7.81994 23.779
622 2 2.2208 2.2819 6.36845 25.0243
624 1 -1.1104 3.75797 7.74127 26.3927
625 1 -1.1104 3.56297 5.02154 23.6258
627 1 -1.1104 3.97673 5.10821 26.4673
607 2 2.2208 5.41236 12.1895 22.3567
613 1 -1.1104 1.02139 10.8422 23.4094
616 2 2.2208 5.22572 9.33256 24.9188
618 1 -1.1104 1.06925 10.6473 26.2023
623 2 2.2208 2.56439 12.0629 24.9622
626 1 -1.1104 4.30783 11.0281 23.7166
628 1 -1.1104 3.80473 10.6207 26.5007
463 1 -1.1104 12.3413 10.6646 20.9783
432 1 -1.1104 6.66753 4.98063 20.7907
614 1 -1.1104 6.62497 5.34191 23.7301
620 1 -1.1104 6.44502 10.8989 26.311
434 1 -1.1104 6.84793 10.7202 20.9276
461 1 -1.1104 12.289 4.81704 20.9357
473 1 -1.1104 9.47989 4.88596 20.8729
468 1 -1.1104 9.54842 7.9043 20.9338
422 1 -1.1104 6.55497 7.69021 20.7459
475 1 -1.1104 9.53325 10.7737 20.8813
456 1 -1.1104 12.3246 7.80731 20.7415
619 1 -1.1104 6.8269 5.107 26.4764
611 1 -1.1104 6.71569 7.91968 26.6814
615 1 -1.1104 6.98188 10.7223 23.6511
609 1 -1.1104 6.66499 7.99002 23.7021
637 1 -1.1104 9.49391 4.98676 26.5217
639 1 -1.1104 9.37734 4.91095 23.7909
641 1 -1.1104 9.49298 7.85241 26.6018
643 2 2.2208 7.98653 6.6225 25.1251
644 2 2.2208 10.9127 6.26349 22.3722
646 1 -1.1104 12.1767 7.82418 23.5838
647 1 -1.1104 12.4557 7.93686 26.4185
648 1 -1.1104 12.2693 4.9022 23.6393
651 1 -1.1104 12.1528 5.11752 26.6387
653 1 -1.1104 9.4372 7.84884 23.7308
636 1 -1.1104 9.27859 10.5503 26.5197
638 1 -1.1104 9.78423 10.7311 23.574
640 2 2.2208 8.27113 9.31705 22.2685
642 2 2.2208 8.09051 12.2718 25.0699
645 2 2.2208 10.9166 12.1758 22.1657
649 1 -1.1104 12.4028 10.5078 23.7304
650 2 2.2208 10.8071 9.46706 25.0538
652 1 -1.1104 12.2831 10.6885 26.4644
686 2 2.2208 -0.28075 14.9934 24.896
509 1 -1.1104 3.87835 16.3963 20.9249
415 2 2.2208 10.7233 3.64777 13.7349
504 1 -1.1104 3.81376 19.2266 20.7501
485 1 -1.1104 1.2494 19.1791 20.7241
495 1 -1.1104 1.11552 16.1082 20.849
661 1 -1.1104 6.68195 13.4961 26.6665
662 1 -1.1104 4.06461 13.7887 23.5863
666 1 -1.1104 1.25513 13.387 26.442
672 1 -1.1104 1.14119 13.5179 23.5357
677 1 -1.1104 4.07762 13.5373 26.3157
660 1 -1.1104 3.90677 19.175 23.6726
664 1 -1.1104 1.00445 19.0685 26.4034
665 1 -1.1104 1.27249 16.0119 26.1804
668 2 2.2208 5.40193 20.7298 24.9952
669 2 2.2208 5.34498 15.041 24.9933
671 1 -1.1104 1.03075 19.3173 23.4384
673 2 2.2208 5.44203 17.7879 22.209
674 1 -1.1104 3.82679 19.2882 26.3778
675 2 2.2208 2.57628 17.7979 24.8819
676 1 -1.1104 4.04426 16.2685 26.4708
679 1 -1.1104 1.17863 16.4727 23.6388
680 1 -1.1104 3.88853 16.4745 23.6519
681 2 2.2208 2.59285 20.6169 22.1413
682 2 2.2208 2.45977 14.8582 22.2222
9479 2 2.2208 -0.284467 17.864 16.5504
536 1 -1.1104 9.64874 16.3473 21.0073
529 1 -1.1104 9.46094 13.6691 20.9755
510 1 -1.1104 12.4393 16.2582 23.5943
573 1 -1.1104 9.4581 13.7026 23.7326
691 1 -1.1104 9.68891 16.2979 23.7624
693 2 2.2208 8.1686 15.0406 22.1681
670 1 -1.1104 6.77729 13.7447 23.7004
696 1 -1.1104 6.7157 19.2704 26.472
570 1 -1.1104 12.1722 16.2707 26.54
447 1 -1.1104 12.4789 19.215 23.5064
678 1 -1.1104 6.77641 16.3935 23.4486
663 1 -1.1104 6.74108 16.4803 26.4641
497 1 -1.1104 6.83395 16.6047 20.7986
449 1 -1.1104 12.5383 19.3071 26.46
692 2 2.2208 8.22297 20.5184 22.3747
524 1 -1.1104 12.4463 16.3232 20.7858
517 1 -1.1104 12.3535 13.4119 20.9401
531 1 -1.1104 9.59846 19.1895 20.971
519 1 -1.1104 12.1977 18.9897 20.6613
511 2 2.2208 10.8759 14.9157 25.0345
448 1 -1.1104 12.3512 13.3758 26.6362
410 2 2.2208 13.6532 6.37241 19.4815
412 2 2.2208 13.7388 9.30028 16.7045
574 2 2.2208 -0.25144 -1.98076 25.0021
598 2 2.2208 13.6162 3.7377 16.5873
375 2 2.2208 13.5884 3.38687 22.342
603 2 2.2208 13.7627 -2.09097 22.3334
381 2 2.2208 8.12136 20.6236 27.8058
655 2 2.2208 8.11441 9.22307 28.0626
539 2 2.2208 8.14982 17.7813 13.8353
683 2 2.2208 2.37199 20.7498 27.7095
9251 2 2.2208 -0.167295 15.0113 13.8412
333 2 2.2208 2.58194 12.1546 13.9588
450 2 2.2208 8.05401 12.0466 13.9815
698 2 2.2208 5.28677 23.3405 5.37228
700 1 -1.1104 1.15354 24.8191 0.895329
701 1 -1.1104 1.10289 24.9613 3.74542
702 1 -1.1104 1.09678 22.1438 0.865308
703 1 -1.1104 1.1295 27.5878 1.09365
704 2 2.2208 5.47215 26.0959 2.35471
705 1 -1.1104 1.14951 22.0244 3.59259
707 1 -1.1104 3.98528 24.7311 0.942013
708 2 2.2208 2.61683 23.4194 2.33304
710 1 -1.1104 4.15219 24.4731 3.82796
711 2 2.2208 2.42701 26.1883 5.25748
712 1 -1.1104 3.77816 21.9776 1.07636
714 1 -1.1104 3.76622 21.7144 3.92793
715 1 -1.1104 3.88095 27.3832 3.52183
706 1 -1.1104 1.13603 27.6695 3.82317
713 1 -1.1104 4.08663 27.4747 0.772478
699 2 2.2208 5.29776 29.0496 5.31776
709 2 2.2208 2.4764 28.999 2.44217
724 1 -1.1104 6.6329 27.5929 3.98808
1317 2 2.2208 8.13649 37.4745 -0.540949
1318 2 2.2208 8.18749 31.938 -0.258177
984 2 2.2208 -0.346481 43.1245 8.01277
720 1 -1.1104 6.79675 24.756 4.04771
722 1 -1.1104 6.88601 27.7449 1.12345
817 1 -1.1104 12.2227 38.867 12.1514
1013 2 2.2208 8.01399 45.978 13.7094
842 1 -1.1104 1.13116 27.5105 6.73395
1050 2 2.2208 2.39371 23.4713 13.8159
1002 2 2.2208 5.47151 31.8378 13.6623
719 1 -1.1104 6.74932 24.7792 1.1019
723 1 -1.1104 6.77688 21.9513 3.73176
721 1 -1.1104 6.72328 21.9905 1.0135
725 2 2.2208 10.9961 23.4013 5.13833
727 1 -1.1104 12.5417 25.0791 0.93123
728 1 -1.1104 12.543 24.7835 3.80666
729 1 -1.1104 12.4969 22.0663 1.0038
731 2 2.2208 11.044 26.2252 2.34614
732 1 -1.1104 12.4332 22.1038 3.75895
734 1 -1.1104 9.76239 24.8701 1.03075
735 2 2.2208 8.11943 23.3434 2.45004
737 1 -1.1104 9.58175 24.7681 3.68073
738 2 2.2208 8.08953 26.1207 5.45475
739 1 -1.1104 9.68584 22.135 1.0622
740 1 -1.1104 9.57491 27.6903 0.81455
741 1 -1.1104 9.61513 21.8733 3.75759
730 1 -1.1104 12.278 27.8442 1.02732
726 2 2.2208 10.9607 28.9259 5.41361
733 1 -1.1104 12.3784 27.5754 3.80569
736 2 2.2208 8.06706 29.1303 2.42075
742 1 -1.1104 9.40861 27.3935 3.83224
1347 2 2.2208 5.26925 40.3401 -0.633515
9767 2 2.2208 -0.384766 26.2304 8.04273
1001 2 2.2208 13.8014 46.0093 8.0755
837 1 -1.1104 12.2498 44.5279 12.1845
875 1 -1.1104 9.47673 24.7311 6.88019
747 1 -1.1104 0.951546 30.3889 0.996103
750 1 -1.1104 1.26187 30.48 3.90815
753 1 -1.1104 1.26773 33.1408 1.08767
754 2 2.2208 5.29127 31.947 2.64619
756 1 -1.1104 1.09916 33.3975 3.94867
758 1 -1.1104 3.62797 30.4358 1.13248
761 1 -1.1104 4.02188 30.4997 4.03206
763 2 2.2208 2.39133 31.8754 5.49813
765 1 -1.1104 4.07623 33.2711 1.28664
766 1 -1.1104 3.83298 33.3449 4.18696
746 2 2.2208 5.24886 34.8142 5.29517
748 1 -1.1104 1.07479 36.1345 1.11236
751 1 -1.1104 1.08743 36.0783 3.78629
755 2 2.2208 5.21303 37.4839 2.363
759 1 -1.1104 3.98766 36.103 1.03772
760 2 2.2208 2.49101 34.5286 2.56306
762 1 -1.1104 3.78704 36.2187 3.90902
764 2 2.2208 2.35121 37.5427 5.26095
9829 2 2.2208 -0.2895 32.0152 8.19564
771 1 -1.1104 6.74502 30.494 3.88234
899 1 -1.1104 6.78594 36.0185 6.53209
767 1 -1.1104 9.68965 39.0532 6.48067
9633 2 2.2208 13.7506 37.59 5.26844
926 2 2.2208 -0.536978 37.5802 8.06171
9898 2 2.2208 13.7111 46.2288 2.41505
972 1 -1.1104 6.61833 41.7015 9.34163
10258 2 2.2208 -0.282137 34.7264 -0.380923
757 1 -1.1104 6.60578 33.2573 4.01017
749 1 -1.1104 6.63083 35.9761 1.08639
772 1 -1.1104 6.69705 33.2539 1.24088
770 1 -1.1104 6.47659 30.4568 1.08497
752 1 -1.1104 6.58334 36.3085 3.85288
774 1 -1.1104 12.4077 30.6104 1.12501
776 1 -1.1104 12.3567 30.4733 4.07348
778 1 -1.1104 12.4018 33.5411 1.11913
779 2 2.2208 11.0021 31.9581 2.5346
781 1 -1.1104 12.2032 33.3201 3.98019
782 1 -1.1104 9.38048 30.6075 1.0712