ITEM: TIMESTEP
90000
ITEM: NUMBER OF ATOMS
17910
ITEM: BOX BOUNDS pp pp pp
-3.8716681307875223e-01 2.7727166813079172e+01
-4.8165851969717997e+00 3.3289658519698162e+02
-4.0211792449419387e-01 2.7742117924494622e+01
ITEM: ATOMS id type q x y z
1 2 2.2208 5.21807 0.816506 5.41774
2 1 -1.1104 0.938774 -3.35818 0.934186
6 1 -1.1104 1.14184 -3.50653 3.77376
10 1 -1.1104 1.02211 -0.613288 1.0642
12 2 2.2208 5.0936 -2.06046 2.49044
14 1 -1.1104 1.00564 -0.630118 3.84016
16 1 -1.1104 3.57056 -3.44974 1.02391
18 2 2.2208 2.34041 0.775855 2.4905
19 1 -1.1104 3.92471 -3.37269 4.00102
21 2 2.2208 2.37841 -1.8812 5.2793
23 1 -1.1104 3.81582 -0.676573 0.977032
24 1 -1.1104 3.66875 -0.608656 3.76223
3 1 -1.1104 0.812759 2.23497 0.965559
7 1 -1.1104 1.07662 2.23128 3.72822
17 1 -1.1104 3.55523 2.02237 0.956642
20 1 -1.1104 3.84176 2.19553 3.96899
22 2 2.2208 2.40119 3.55588 5.29337
13 2 2.2208 5.02136 3.60863 2.35206
11 1 -1.1104 6.52482 -0.735245 1.0734
597 2 2.2208 7.96123 3.56459 -0.297064
4 1 -1.1104 6.5005 -3.39873 0.975822
683 2 2.2208 2.4208 20.6596 -0.347475
8 1 -1.1104 6.70947 -3.49007 3.94307
202 2 2.2208 13.5804 14.955 5.28217
28 2 2.2208 -0.403462 6.62269 10.9119
8536 2 2.2208 10.8149 -4.7678 5.16509
5 1 -1.1104 6.38712 2.05743 0.929757
9 1 -1.1104 6.58158 2.21555 3.98717
15 1 -1.1104 6.36648 -0.557353 3.82287
629 2 2.2208 5.25818 6.38998 -0.298871
31 2 2.2208 10.9091 0.802602 5.13707
32 1 -1.1104 12.1763 -3.35219 1.0913
34 1 -1.1104 12.3356 -3.4583 3.80013
36 1 -1.1104 12.2472 -0.744368 1.02392
37 2 2.2208 10.7316 -2.00232 2.43229
39 1 -1.1104 12.1919 -0.724727 3.75408
40 1 -1.1104 9.34333 -3.5252 0.707185
42 2 2.2208 8.05094 0.78996 2.43875
43 1 -1.1104 9.42182 -3.37943 3.69608
45 2 2.2208 7.94217 -1.93228 5.24448
47 1 -1.1104 9.3657 -0.780782 0.954309
48 1 -1.1104 9.37497 -0.657447 3.86539
33 1 -1.1104 12.1376 2.08072 1.09041
35 1 -1.1104 12.0647 2.15722 3.79348
41 1 -1.1104 9.29615 2.24002 0.937849
44 1 -1.1104 9.34737 2.10049 3.73001
38 2 2.2208 10.8368 3.68237 2.43225
46 2 2.2208 8.02299 3.5768 5.13991
329 2 2.2208 5.11384 3.37078 13.6029
332 2 2.2208 5.10072 9.16238 13.5717
205 1 -1.1104 12.2763 -3.42378 6.47642
207 1 -1.1104 12.2559 -0.534941 6.46693
50 2 2.2208 13.6853 -2.12455 5.01111
8554 2 2.2208 13.4257 -4.72152 13.5933
8542 2 2.2208 10.846 -4.77686 10.7272
229 2 2.2208 13.6 0.842703 7.96582
54 2 2.2208 5.07374 6.47728 5.20362
56 1 -1.1104 1.04173 7.92397 1.13887
58 1 -1.1104 1.01267 7.82495 3.90455
60 1 -1.1104 1.10301 5.03653 0.810727
67 1 -1.1104 1.12186 5.10624 3.76735
71 1 -1.1104 3.76837 7.80513 1.02648
72 2 2.2208 2.42947 6.45311 2.30247
74 1 -1.1104 3.7572 7.78993 3.7961
76 1 -1.1104 3.9009 5.07172 0.805538
79 1 -1.1104 3.88605 5.14783 3.69699
55 2 2.2208 5.28803 12.0398 5.30966
61 1 -1.1104 0.9091 10.7435 1.00814
66 2 2.2208 5.0562 9.17402 2.47088
68 1 -1.1104 1.12975 10.8292 3.97087
73 2 2.2208 2.33509 12.1386 2.29417
75 2 2.2208 2.34066 9.36356 5.26394
77 1 -1.1104 3.76742 10.5987 0.9377
80 1 -1.1104 3.78206 10.5755 3.73594
64 1 -1.1104 6.71133 10.5287 1.33199
57 1 -1.1104 6.56188 7.7725 1.02445
630 2 2.2208 2.35311 9.35526 -0.379532
154 1 -1.1104 9.47584 13.3614 6.55045
59 1 -1.1104 6.65097 7.93554 3.78671
70 1 -1.1104 6.60134 10.6892 4.18298
325 2 2.2208 10.8194 14.8335 7.92524
81 2 2.2208 -0.275497 6.41154 5.16022
78 1 -1.1104 3.96065 10.6952 6.50743
105 2 2.2208 13.6277 6.44208 2.33994
204 2 2.2208 13.6878 3.61995 5.07997
156 1 -1.1104 9.49048 19.0244 6.57483
69 1 -1.1104 6.51597 5.05047 3.98809
30 2 2.2208 13.5028 9.23175 10.8899
63 1 -1.1104 6.62029 4.96562 1.05028
84 2 2.2208 10.6698 6.37981 5.21169
86 1 -1.1104 12.3742 7.71432 0.960479
87 1 -1.1104 12.1322 7.65999 3.83746
88 1 -1.1104 12.11 4.90139 1.0581
92 1 -1.1104 12.164 5.05747 3.90421
94 1 -1.1104 9.42304 7.67884 1.07073
95 2 2.2208 7.93373 6.39712 2.48917
97 1 -1.1104 9.18774 7.86637 3.96453
99 1 -1.1104 9.43645 5.07442 1.09005
102 1 -1.1104 9.44213 4.91659 3.76911
85 2 2.2208 10.8856 12.023 5.25102
89 1 -1.1104 12.0897 10.5723 0.656513
91 2 2.2208 10.7691 9.13805 2.43541
93 1 -1.1104 12.1386 10.4826 3.84674
96 2 2.2208 8.13015 11.9643 2.54467
98 2 2.2208 7.81981 9.11221 5.31682
100 1 -1.1104 9.45737 10.6024 0.944011
103 1 -1.1104 9.39186 10.536 3.73454
90 1 -1.1104 12.2812 10.7839 6.65451
269 1 -1.1104 9.30134 5.01286 6.50967
9025 2 2.2208 13.4826 20.4675 5.27728
595 2 2.2208 10.9124 0.689298 -0.224153
8533 2 2.2208 5.36578 -4.76487 5.31867
107 1 -1.1104 0.940834 13.5166 0.881076
113 1 -1.1104 0.913413 13.4688 3.77315
123 1 -1.1104 3.73683 13.5239 1.13645
128 1 -1.1104 3.85179 13.3995 3.83095
106 2 2.2208 5.19793 17.8606 5.08912
109 1 -1.1104 0.875126 19.0249 0.924106
114 1 -1.1104 0.969174 19.113 3.81593
116 1 -1.1104 0.913617 16.3031 0.88793
119 2 2.2208 5.28549 14.8099 2.46404
120 2 2.2208 5.1088 20.5231 2.4686
121 1 -1.1104 0.886004 16.2854 3.78763
125 1 -1.1104 3.79941 19.1174 1.12734
127 2 2.2208 2.31691 17.7033 2.37279
129 1 -1.1104 3.74221 19.2298 3.95294
130 2 2.2208 2.48478 14.9253 5.0547
131 2 2.2208 2.30574 20.6489 5.23992
132 1 -1.1104 3.83998 16.2198 1.23345
134 1 -1.1104 3.82425 16.2984 3.82278
110 1 -1.1104 6.5767 13.5424 0.873082
122 1 -1.1104 6.71914 16.2349 3.73812
140 1 -1.1104 6.56617 16.4943 0.938551
302 1 -1.1104 0.916248 19.083 6.62715
115 1 -1.1104 6.649 13.4593 3.6078
138 1 -1.1104 6.66813 19.2363 0.983266
139 1 -1.1104 6.73179 19.1886 3.81706
8949 2 2.2208 -0.26191 14.9001 7.92103
112 1 -1.1104 6.65308 19.0924 6.58264
49 2 2.2208 13.5783 0.774911 2.54459
512 2 2.2208 5.32958 20.3621 13.6273
142 1 -1.1104 12.1498 13.39 1.00687
146 1 -1.1104 12.2928 13.3243 3.77208
153 1 -1.1104 9.2245 13.5056 0.971383
158 1 -1.1104 9.53359 13.3564 3.7394
141 2 2.2208 10.7392 17.7284 5.29885
144 1 -1.1104 12.3747 19.0073 0.932631
147 1 -1.1104 12.2155 19.0043 3.92727
148 1 -1.1104 12.2804 16.2078 0.927054
150 2 2.2208 10.802 14.8305 2.32145
151 2 2.2208 10.7803 20.5085 2.46128
152 1 -1.1104 12.1822 16.2314 3.9494
155 1 -1.1104 9.39961 19.1667 0.855216
157 2 2.2208 7.97316 17.6844 2.32568
159 1 -1.1104 9.36917 19.2224 3.83525
160 2 2.2208 7.84458 14.8505 5.18076
161 2 2.2208 8.0354 20.5733 5.20168
162 1 -1.1104 9.25046 16.4258 1.13395
164 1 -1.1104 9.43443 16.3859 3.84873
149 1 -1.1104 12.2129 16.3488 6.71074
631 2 2.2208 5.21399 11.9599 -0.333165
565 2 2.2208 5.17375 0.793382 -0.407861
8975 2 2.2208 -0.428509 20.5905 8.01498
317 2 2.2208 8.06124 14.9285 10.7985
53 2 2.2208 13.5682 3.60126 10.7001
174 1 -1.1104 3.6655 -0.548068 6.6984
173 1 -1.1104 3.6473 2.21648 6.73114
9170 2 2.2208 -0.304013 12.0412 10.7214
169 1 -1.1104 6.76156 2.2002 6.6947
171 1 -1.1104 6.55899 -0.563237 6.67178
167 1 -1.1104 0.823728 1.90676 6.54455
172 1 -1.1104 3.674 -3.37737 6.60142
170 1 -1.1104 0.861272 -0.577022 6.5991
166 1 -1.1104 0.793613 -3.43025 6.70415
175 2 2.2208 5.06001 0.741522 10.8487
176 1 -1.1104 1.05056 -3.18751 12.1519
180 1 -1.1104 0.884779 -3.29184 9.53241
184 1 -1.1104 1.05097 -0.539152 12.1389
186 2 2.2208 5.18609 -1.9795 8.02284
188 1 -1.1104 0.80096 -0.454223 9.44009
190 1 -1.1104 3.85775 -3.50545 12.2535
192 2 2.2208 2.30386 0.825199 8.04324
193 1 -1.1104 3.61081 -3.1923 9.29084
195 2 2.2208 2.29913 -1.89932 10.7409
197 1 -1.1104 3.73503 -0.645362 12.1983
198 1 -1.1104 3.71871 -0.37479 9.33812
177 1 -1.1104 0.934187 2.31081 12.1981
181 1 -1.1104 1.0895 2.39554 9.42678
191 1 -1.1104 3.84029 2.15497 12.2565
194 1 -1.1104 3.74606 2.34625 9.59243
196 2 2.2208 2.35076 3.56597 10.7919
187 2 2.2208 5.21662 3.73167 8.01057
178 1 -1.1104 6.58163 -3.65763 12.2406
168 1 -1.1104 6.67479 -3.33852 6.74511
179 1 -1.1104 6.51326 2.1264 12.129
189 1 -1.1104 6.60908 -0.624894 9.3937
183 1 -1.1104 6.39302 2.2023 9.41442
209 1 -1.1104 9.49314 2.18331 6.56996
185 1 -1.1104 6.58809 -0.677921 12.1613
206 1 -1.1104 12.265 2.17789 6.59101
208 1 -1.1104 9.58395 -3.42759 6.65054
182 1 -1.1104 6.40368 -3.29198 9.42159
210 1 -1.1104 9.37626 -0.644539 6.60465
211 2 2.2208 10.8245 0.692882 10.7608
212 1 -1.1104 12.0635 -3.49688 12.1626
214 1 -1.1104 12.018 -3.35206 9.50966
216 1 -1.1104 12.3764 -0.576002 12.2017
217 2 2.2208 10.8705 -1.99368 7.89737
219 1 -1.1104 12.2057 -0.631943 9.21076
220 1 -1.1104 9.35402 -3.30741 12.1997
222 2 2.2208 8.09269 0.646569 7.90304
223 1 -1.1104 9.21796 -3.48534 9.41071
225 2 2.2208 8.01984 -1.94073 10.8696
227 1 -1.1104 9.50938 -0.574892 12.2763
228 1 -1.1104 9.34021 -0.88304 9.32552
213 1 -1.1104 11.9933 2.2494 12.2057
215 1 -1.1104 12.27 2.22384 9.35795
221 1 -1.1104 9.28251 2.12313 12.2132
224 1 -1.1104 9.41146 1.9959 9.28359
218 2 2.2208 10.8214 3.50938 7.97464
230 2 2.2208 13.4999 -1.90844 10.904
238 1 -1.1104 3.61924 8.29922 6.74962
65 1 -1.1104 6.77817 10.5026 6.91314
236 1 -1.1104 0.950164 4.87136 6.6305
239 1 -1.1104 3.65988 5.28411 6.59759
62 1 -1.1104 0.961161 10.5794 6.7287
234 1 -1.1104 0.857139 7.74974 6.63673
240 2 2.2208 5.00648 6.3266 10.9507
242 1 -1.1104 1.04966 7.87494 12.3544
244 1 -1.1104 0.897218 8.02384 9.55554
246 1 -1.1104 0.730766 5.20638 12.3743
251 1 -1.1104 0.838076 5.09611 9.60771
255 1 -1.1104 3.82598 7.77144 12.2546
256 2 2.2208 2.23906 6.54672 8.0092
258 1 -1.1104 3.70292 7.80383 9.47986
260 1 -1.1104 3.75085 4.90571 12.3103
262 1 -1.1104 3.56336 5.01999 9.34075
241 2 2.2208 5.19408 12.0598 10.8057
247 1 -1.1104 0.782068 10.6824 12.1279
250 2 2.2208 5.19464 9.29711 8.11809
252 1 -1.1104 1.08695 10.6281 9.52616
257 2 2.2208 2.45478 11.9424 7.89823
259 2 2.2208 2.36825 9.30592 10.9482
261 1 -1.1104 3.52966 10.6912 12.3616
263 1 -1.1104 3.82343 10.6839 9.65364
243 1 -1.1104 6.60117 7.7508 12.0564
235 1 -1.1104 6.33524 7.61952 6.7079
253 1 -1.1104 6.328 5.18127 9.38036
254 1 -1.1104 6.62009 10.4917 9.57411
245 1 -1.1104 6.60069 7.70682 9.32457
248 1 -1.1104 6.51648 4.81468 12.1433
203 2 2.2208 13.6389 9.28691 5.27174
27 2 2.2208 -0.351735 3.64324 2.28754
226 2 2.2208 7.82731 3.47389 10.8411
265 1 -1.1104 12.2188 7.93674 6.64532
266 1 -1.1104 12.1225 5.22301 6.58197
101 1 -1.1104 9.30184 10.5534 6.75702
249 1 -1.1104 6.40978 10.6029 12.3905
237 1 -1.1104 6.60419 4.8475 6.70796
267 1 -1.1104 9.28412 7.7097 6.83462
268 1 -1.1104 9.28244 5.03207 9.36726
271 1 -1.1104 9.31694 4.93569 12.2569
273 1 -1.1104 9.4054 7.95911 9.55502
275 2 2.2208 7.75061 6.3248 8.07083
276 2 2.2208 10.6764 6.42862 10.8542
278 1 -1.1104 11.9776 8.0734 12.1884
279 1 -1.1104 12.1776 7.74138 9.34885
280 1 -1.1104 12.2122 5.16407 12.2217
283 1 -1.1104 11.9926 4.87744 9.4502
285 1 -1.1104 9.27437 7.84482 12.3919
264 1 -1.1104 9.44621 10.6587 9.62196
270 1 -1.1104 9.19881 10.7203 12.1775
272 2 2.2208 7.92753 9.13825 10.8665
274 2 2.2208 8.07314 11.9889 8.09066
277 2 2.2208 10.8788 12.0424 10.8332
281 1 -1.1104 12.0625 10.7005 12.1491
282 2 2.2208 10.7127 9.12404 8.04304
284 1 -1.1104 12.07 10.5077 9.40223
289 1 -1.1104 6.63821 16.3058 9.43683
8950 2 2.2208 -0.306657 17.6874 10.7579
312 1 -1.1104 12.1646 13.486 12.1691
288 1 -1.1104 6.55829 19.0948 9.34425
124 1 -1.1104 3.929 13.5731 6.59034
108 1 -1.1104 1.22348 13.5219 6.49564
290 1 -1.1104 6.67876 13.5304 9.33231
118 1 -1.1104 6.3556 16.1797 6.69321
296 1 -1.1104 6.51189 19.0205 12.2093
117 1 -1.1104 1.11551 16.1572 6.60704
126 1 -1.1104 3.83266 19.1333 6.55139
133 1 -1.1104 3.74707 16.3177 6.59754
111 1 -1.1104 6.66438 13.4022 6.69672
605 2 2.2208 13.5263 3.58167 -0.257617
287 1 -1.1104 3.76808 13.2766 12.1154
294 1 -1.1104 1.03809 13.4993 9.36515
299 1 -1.1104 1.04515 13.3333 12.1275
305 1 -1.1104 3.92726 13.3832 9.32305
286 1 -1.1104 3.9193 18.9368 12.1522
291 1 -1.1104 1.07422 19.1816 9.28639
292 1 -1.1104 0.981554 16.473 9.30299
293 2 2.2208 5.13168 20.6219 7.91696
295 2 2.2208 5.06777 14.8805 8.20821
298 1 -1.1104 1.18649 19.1719 12.2389
300 2 2.2208 5.18679 17.5695 10.7961
301 1 -1.1104 3.70541 19.1727 9.27175
303 2 2.2208 2.29533 17.8118 7.85455
304 1 -1.1104 3.84132 16.2883 9.54316
307 1 -1.1104 0.986301 16.2939 12.2107
308 1 -1.1104 3.88014 16.2148 12.39
309 2 2.2208 2.56582 20.4275 10.8327
310 2 2.2208 2.40547 14.8205 10.6932
311 2 2.2208 10.8254 17.649 10.8201
319 1 -1.1104 9.82578 13.6013 9.57368
313 1 -1.1104 12.3243 19.1752 12.3593
231 1 -1.1104 12.3477 13.2422 9.44987
322 1 -1.1104 9.40422 13.5557 12.3907
324 2 2.2208 10.8515 20.4263 8.10112
315 1 -1.1104 9.53998 16.4997 12.1821
318 1 -1.1104 9.36304 19.0367 9.29867
320 2 2.2208 8.01543 17.6509 7.93972
314 1 -1.1104 9.21466 16.1887 9.25372
306 1 -1.1104 6.6489 16.1732 12.1327
323 1 -1.1104 12.1454 16.0659 9.56024
104 2 2.2208 13.5785 12.0886 2.29583
143 1 -1.1104 12.5273 13.6068 6.77552
163 1 -1.1104 9.34733 16.1428 6.44171
145 1 -1.1104 12.2439 19.0897 6.62185
233 1 -1.1104 12.592 16.3971 12.2181
232 1 -1.1104 12.1674 18.8002 9.39827
297 1 -1.1104 6.60152 13.3939 12.1096
321 1 -1.1104 9.41771 19.0838 12.0279
316 2 2.2208 7.85052 20.4414 10.6239
199 2 2.2208 -0.376497 3.58664 7.98681
328 2 2.2208 2.3671 0.748364 13.6549
655 2 2.2208 8.01468 9.17091 -0.255412
52 2 2.2208 13.4699 6.49099 7.94085
136 2 2.2208 13.5728 14.7474 10.7545
415 2 2.2208 10.7198 3.67999 13.6045
8559 2 2.2208 2.3238 -4.62597 13.6137
414 2 2.2208 10.7265 -2.00147 13.6592
9252 2 2.2208 -0.238497 20.4284 13.6712
569 2 2.2208 13.5095 12.0868 13.5232
380 2 2.2208 10.7731 17.6529 -0.327814
539 2 2.2208 7.98996 17.8049 13.5644
537 2 2.2208 10.8676 20.6457 13.5983
602 2 2.2208 13.5508 -2.01237 -0.302948
413 2 2.2208 7.9106 0.70639 13.6181
8553 2 2.2208 -0.380947 -4.85526 -0.405766
538 2 2.2208 10.9119 15.004 13.5028
450 2 2.2208 8.03345 12.0587 13.5915
340 2 2.2208 5.19472 0.785455 16.5369
341 1 -1.1104 0.909469 -3.31297 17.6874
345 1 -1.1104 0.788723 -3.21138 14.8752
353 1 -1.1104 0.893697 -0.476051 17.8603
355 2 2.2208 5.13962 -1.95756 19.4055
357 1 -1.1104 1.18502 -0.362906 15.1746
361 1 -1.1104 3.60653 -3.41525 18.2428
363 2 2.2208 2.33046 0.971002 19.1367
364 1 -1.1104 3.75933 -3.47748 15.1558
368 2 2.2208 2.45217 -1.90142 16.4546
370 1 -1.1104 3.90434 -0.58125 17.7555
371 1 -1.1104 3.87123 -0.705925 14.9765
342 1 -1.1104 1.09675 2.23815 17.6863
347 1 -1.1104 0.930065 2.163 14.971
362 1 -1.1104 3.82299 2.21131 17.846
366 1 -1.1104 3.85713 2.14645 15.0505
369 2 2.2208 2.51026 3.49344 16.4268
356 2 2.2208 5.39214 3.62419 19.2681
351 1 -1.1104 6.53317 2.17116 14.8965
8551 2 2.2208 5.0743 -4.6967 27.6582
8586 2 2.2208 7.95655 -4.83374 24.8073
8710 2 2.2208 -0.368452 -4.76137 16.3491
344 1 -1.1104 6.60016 2.17594 17.8395
343 1 -1.1104 6.35769 -3.44098 17.6425
354 1 -1.1104 6.58461 -0.703757 17.9376
8704 2 2.2208 10.7325 -4.79887 16.3875
633 2 2.2208 -0.210945 9.3014 24.9488
8635 2 2.2208 5.26938 -4.59163 22.1393
359 1 -1.1104 6.68889 -0.660959 15.0745
634 2 2.2208 -0.326808 12.141 22.2012
349 1 -1.1104 6.69483 -3.53422 15.0597
383 2 2.2208 10.923 0.718999 16.3983
384 1 -1.1104 11.888 -3.30886 18.0132
386 1 -1.1104 12.0104 -3.4169 15.048
390 1 -1.1104 12.4092 -0.830078 17.9815
391 2 2.2208 10.7364 -1.99472 19.3273
393 1 -1.1104 12.206 -0.5824 14.8425
395 1 -1.1104 9.30949 -3.41015 17.9596
397 2 2.2208 8.04421 0.911245 19.3614
398 1 -1.1104 9.50788 -3.39743 15.078
402 2 2.2208 8.14132 -1.96363 16.4962
404 1 -1.1104 9.4382 -0.675684 17.9723
405 1 -1.1104 9.38365 -0.610417 14.9693
385 1 -1.1104 12.1498 2.05688 17.8714
388 1 -1.1104 12.374 2.12319 15.2433
396 1 -1.1104 9.18628 2.10936 17.6618
400 1 -1.1104 9.51175 2.29461 15.1493
403 2 2.2208 8.10026 3.65963 16.3112
392 2 2.2208 10.8681 3.56527 19.3427
451 2 2.2208 10.6616 9.34087 13.6121
331 2 2.2208 2.28058 6.29449 13.7658
635 2 2.2208 -0.323577 6.47828 27.6483
394 1 -1.1104 12.0333 -0.432623 20.4936
8601 2 2.2208 13.6046 -4.70096 25.0023
8598 2 2.2208 10.7838 -4.68868 22.2489
9479 2 2.2208 -0.372008 17.6028 16.475
9375 2 2.2208 -0.244923 11.959 16.6518
416 2 2.2208 5.33087 6.363 16.385
418 1 -1.1104 0.748869 7.78361 18.0782
420 1 -1.1104 0.856189 7.58866 15.2177
423 1 -1.1104 1.06583 5.06301 17.8207
428 1 -1.1104 0.995887 4.89892 15.0596
435 1 -1.1104 3.61528 7.66537 17.8386
436 2 2.2208 2.51691 6.24664 19.1464
438 1 -1.1104 3.68258 7.74364 15.1146
441 1 -1.1104 3.87763 4.90192 17.6924
443 1 -1.1104 3.85647 5.01504 15.0132
417 2 2.2208 5.30882 12.0564 16.2652
424 1 -1.1104 0.927354 10.7368 18.4469
427 2 2.2208 5.24532 9.26312 19.294
430 1 -1.1104 0.967239 10.5098 15.2214
437 2 2.2208 2.6826 12.0793 19.2708
440 2 2.2208 2.43738 9.09962 16.5536
442 1 -1.1104 3.81928 10.6074 17.8167
445 1 -1.1104 3.74204 10.6387 14.9194
426 1 -1.1104 6.59939 10.7626 17.815
425 1 -1.1104 6.63545 4.89761 17.7491
446 1 -1.1104 3.91296 10.6596 20.5587
439 1 -1.1104 3.79557 7.58839 20.5439
429 1 -1.1104 0.745965 5.60189 20.4099
444 1 -1.1104 3.78704 4.80712 20.5411
573 1 -1.1104 9.16143 13.3993 23.4115
9337 2 2.2208 -0.379398 3.70102 18.9802
419 1 -1.1104 6.60383 7.7048 17.6355
433 1 -1.1104 6.55311 10.486 15.0386
421 1 -1.1104 6.55921 7.86895 14.8989
431 1 -1.1104 6.51561 4.87866 15.0611
452 2 2.2208 10.8602 6.38437 16.4329
454 1 -1.1104 12.1308 7.77217 17.9005
455 1 -1.1104 12.165 7.74679 15.1097
457 1 -1.1104 12.0768 4.98043 17.9226
460 1 -1.1104 12.1365 4.87434 14.9827
464 1 -1.1104 9.43849 7.88033 17.7881
465 2 2.2208 7.95705 6.40463 19.1394
467 1 -1.1104 9.16442 8.04701 15.041
470 1 -1.1104 9.28774 5.08912 17.7756
472 1 -1.1104 9.49032 5.21075 15.0955
453 2 2.2208 10.848 12.1735 16.4002
458 1 -1.1104 12.1704 10.6768 17.7711
459 2 2.2208 10.6427 9.22613 19.2701
462 1 -1.1104 12.2561 10.6857 15.0719
466 2 2.2208 7.99623 11.9776 19.3189
469 2 2.2208 8.03384 9.31436 16.4755
471 1 -1.1104 9.32347 10.7129 18.004
474 1 -1.1104 9.67491 10.9342 14.9148
412 2 2.2208 13.5972 9.18167 16.366
434 1 -1.1104 6.75493 10.8177 20.801
432 1 -1.1104 6.65301 5.2377 20.5361
410 2 2.2208 13.3101 6.33478 19.3057
599 2 2.2208 13.5478 14.9345 27.677
567 2 2.2208 2.27415 3.58823 27.6384
381 2 2.2208 7.90349 20.4326 27.6993
657 2 2.2208 13.5957 12.0944 24.862
696 1 -1.1104 6.64817 19.1445 26.2213
448 1 -1.1104 12.3094 13.4881 26.4095
478 1 -1.1104 1.31934 13.3413 18.0275
482 1 -1.1104 1.004 13.3764 15.1724
498 1 -1.1104 3.89893 13.3138 17.606
501 1 -1.1104 3.70157 13.2808 14.9171
492 2 2.2208 5.30748 14.9627 19.2933
477 2 2.2208 5.20705 17.7488 16.5404
479 1 -1.1104 1.00007 18.9951 17.8992
484 1 -1.1104 1.12163 19.0008 14.9943
490 1 -1.1104 1.04339 16.2 17.8173
493 2 2.2208 5.28032 20.4081 19.3113
494 1 -1.1104 1.02443 16.2317 15.0835
499 1 -1.1104 3.80306 19.1285 17.8544
500 2 2.2208 2.33128 17.5295 19.4271
503 1 -1.1104 3.84217 18.9492 14.9684
505 2 2.2208 2.36192 14.8721 16.4309
506 2 2.2208 2.38018 20.5063 16.5159
507 1 -1.1104 3.82825 16.3031 17.9116
508 1 -1.1104 3.84518 16.0797 15.1677
488 1 -1.1104 6.62243 18.8894 15.0093
695 1 -1.1104 9.50715 13.4757 26.1652
491 1 -1.1104 6.64589 16.4461 17.7639
481 1 -1.1104 6.65582 19.2456 17.7138
496 1 -1.1104 6.66768 16.2823 14.9011
480 1 -1.1104 6.64337 13.6813 17.8437
495 1 -1.1104 0.841505 16.2103 20.6424
504 1 -1.1104 3.71162 19.0877 20.7679
485 1 -1.1104 0.929393 18.8228 20.8288
483 1 -1.1104 1.04764 13.0671 20.6752
487 1 -1.1104 6.7392 13.5259 20.7751
536 1 -1.1104 9.45057 16.342 20.8905
379 2 2.2208 13.6082 17.6008 19.1965
529 1 -1.1104 9.53767 13.5523 20.6815
571 2 2.2208 13.6562 0.718506 19.0863
486 1 -1.1104 6.73154 13.2769 15.0473
514 1 -1.1104 12.196 13.438 17.7713
516 1 -1.1104 12.2941 13.6339 14.8932
525 1 -1.1104 9.39671 13.2625 17.8552
528 1 -1.1104 9.56545 13.7921 15.0791
521 2 2.2208 10.739 14.8333 19.2961
513 2 2.2208 10.8604 17.8216 16.3871
515 1 -1.1104 12.4709 19.2125 17.9588
518 1 -1.1104 12.1773 19.2492 15.1758
520 1 -1.1104 12.424 16.3349 17.5464
522 2 2.2208 10.9825 20.5712 19.2831
523 1 -1.1104 12.4294 16.2583 15.0824
526 1 -1.1104 9.50687 19.1341 17.9276
527 2 2.2208 8.10387 17.7439 19.394
530 1 -1.1104 9.37949 19.3018 15.0318
532 2 2.2208 8.05176 14.9217 16.4231
533 2 2.2208 8.05866 20.5521 16.5862
534 1 -1.1104 9.4898 16.2407 17.9022
535 1 -1.1104 9.67643 16.5382 15.0023
604 2 2.2208 13.5646 0.706016 24.9351
517 1 -1.1104 12.3075 13.4115 20.6529
692 2 2.2208 8.31866 20.5287 22.2109
334 2 2.2208 5.26932 14.7601 13.6085
367 1 -1.1104 3.82456 2.10353 20.8144
346 1 -1.1104 1.00126 -3.31107 20.4621
372 1 -1.1104 3.72662 -0.409523 20.7376
358 1 -1.1104 0.80218 -0.421819 20.6312
348 1 -1.1104 1.20849 2.63257 20.468
691 1 -1.1104 9.52459 16.336 23.6195
365 1 -1.1104 3.77818 -3.39878 20.8725
541 2 2.2208 5.06477 0.924255 22.2552
542 1 -1.1104 0.894527 -3.44289 23.3592
546 1 -1.1104 1.18775 -3.34834 26.1707
550 1 -1.1104 0.819638 -0.5988 23.3756
552 2 2.2208 5.17265 -1.97449 24.8899
554 1 -1.1104 0.876396 -0.500044 26.379
556 1 -1.1104 3.82484 -3.37956 23.5539
558 2 2.2208 2.39827 0.672229 24.8767
559 1 -1.1104 3.91629 -3.02439 26.5367
561 2 2.2208 2.33876 -1.91892 21.8161
563 1 -1.1104 3.71157 -0.650983 23.5855
564 1 -1.1104 3.70237 -0.485633 26.2885
543 1 -1.1104 1.13878 2.07147 23.4293
547 1 -1.1104 0.970468 2.21078 26.2923
557 1 -1.1104 3.87965 2.14317 23.6529
560 1 -1.1104 3.73271 2.12669 26.4903
553 2 2.2208 5.08702 3.70058 24.8589
562 2 2.2208 2.35592 3.59095 22.17
352 1 -1.1104 6.69764 2.44032 20.5667
551 1 -1.1104 6.53766 -0.501935 23.5363
548 1 -1.1104 6.65043 -3.41625 26.4351
544 1 -1.1104 6.6197 -3.26716 23.5051
555 1 -1.1104 6.70853 -0.39144 26.373
549 1 -1.1104 6.44994 2.35723 26.3586
511 2 2.2208 10.741 14.8675 24.87
360 1 -1.1104 6.46323 -0.508496 20.6831
401 1 -1.1104 9.38679 2.16593 20.6576
406 1 -1.1104 9.3009 -0.664992 20.7612
9293 2 2.2208 13.6175 20.5742 22.1677
350 1 -1.1104 6.62418 -3.32401 20.6558
545 1 -1.1104 6.55019 2.28998 23.5561
389 1 -1.1104 12.1805 2.29069 20.7063
399 1 -1.1104 9.37779 -3.38635 20.7389
387 1 -1.1104 12.2138 -3.28106 20.7217
577 2 2.2208 10.8489 0.941396 22.1875
578 1 -1.1104 12.0753 -3.36342 23.4935
580 1 -1.1104 12.2187 -3.40503 26.4498
582 1 -1.1104 12.1781 -0.799021 23.5274
583 2 2.2208 10.7938 -1.82419 25.003
585 1 -1.1104 12.1315 -0.441745 26.3412
586 1 -1.1104 9.2447 -3.34245 23.5796
588 2 2.2208 7.92228 0.865547 25.0082
589 1 -1.1104 9.40127 -3.46363 26.0761
591 2 2.2208 8.09385 -1.91944 22.1596
593 1 -1.1104 9.31486 -0.525235 23.5841
594 1 -1.1104 9.39332 -0.544812 26.3068
579 1 -1.1104 12.3383 2.17329 23.5625
581 1 -1.1104 12.1107 2.35532 26.4063
587 1 -1.1104 9.37534 2.27891 23.3841
590 1 -1.1104 9.35497 2.31102 26.3344
584 2 2.2208 10.8576 3.71521 24.8346
592 2 2.2208 7.89529 3.76076 22.1218
654 2 2.2208 10.6777 6.41024 27.6899
382 2 2.2208 10.9561 17.7297 22.0655
449 1 -1.1104 12.3201 19.063 26.2563
519 1 -1.1104 12.2911 19.1705 20.6291
606 2 2.2208 4.99752 6.45329 21.9845
608 1 -1.1104 0.65769 7.48639 23.4566
610 1 -1.1104 0.877869 8.07158 26.4322
612 1 -1.1104 0.9521 4.8013 23.2793
617 1 -1.1104 0.826171 5.33258 26.0833
621 1 -1.1104 4.05337 7.74829 23.6598
622 2 2.2208 2.3546 6.52801 24.9101
624 1 -1.1104 3.7312 7.82938 26.3749
625 1 -1.1104 3.74411 4.96161 23.323
627 1 -1.1104 3.65721 5.02731 26.2287
607 2 2.2208 5.25729 12.083 22.2547
613 1 -1.1104 0.938623 10.8162 23.6029
616 2 2.2208 5.25853 9.18104 24.9413
618 1 -1.1104 0.906993 10.8199 26.3942
623 2 2.2208 2.31189 12.0823 24.9244
626 1 -1.1104 3.95749 10.8959 23.7194
628 1 -1.1104 3.7954 10.5046 26.3822
614 1 -1.1104 6.46653 5.03927 23.5216
620 1 -1.1104 6.74559 10.8122 26.441
411 2 2.2208 13.5112 -2.14287 16.3957
686 2 2.2208 -0.384486 14.961 24.9375
524 1 -1.1104 12.2722 16.3768 20.6798
422 1 -1.1104 6.65 7.83898 20.5083
468 1 -1.1104 9.44976 7.91006 20.6706
473 1 -1.1104 9.29228 5.12118 20.5742
619 1 -1.1104 6.45037 5.18093 26.3628
463 1 -1.1104 12.2991 10.3915 20.4989
461 1 -1.1104 12.1443 4.77927 20.8527
456 1 -1.1104 12.3029 7.50901 20.8933
615 1 -1.1104 6.67124 10.712 23.5858
611 1 -1.1104 6.60416 8.07053 26.3154
475 1 -1.1104 9.64474 10.5874 20.7772
609 1 -1.1104 6.73558 7.75829 23.4249
637 1 -1.1104 9.01937 4.99804 26.1476
639 1 -1.1104 9.15156 5.00528 23.4779
641 1 -1.1104 9.42107 7.87603 26.3892
643 2 2.2208 7.81221 6.46467 24.9478
644 2 2.2208 10.6856 6.3696 22.1363
646 1 -1.1104 12.1973 7.87115 23.714
647 1 -1.1104 12.1939 7.78828 26.3483
648 1 -1.1104 12.0243 5.17405 23.5891
651 1 -1.1104 12.1359 5.0244 26.3735
653 1 -1.1104 9.51035 7.89687 23.5611
636 1 -1.1104 9.35119 10.6228 26.3389
638 1 -1.1104 9.3585 10.499 23.4426
640 2 2.2208 8.16192 9.11778 22.031
642 2 2.2208 7.99935 12.0312 24.8644
645 2 2.2208 10.9022 12.0013 22.152
649 1 -1.1104 12.4894 10.7623 23.3986
650 2 2.2208 10.7314 9.28906 24.9875
652 1 -1.1104 12.2961 10.4748 26.1949
408 1 -1.1104 11.8945 13.3331 23.691
693 2 2.2208 8.02124 14.8318 22.1114
663 1 -1.1104 6.49801 16.2813 26.1524
502 1 -1.1104 3.72646 13.5993 20.7266
489 1 -1.1104 6.60333 19.1147 20.523
678 1 -1.1104 6.81952 16.3281 23.4957
509 1 -1.1104 3.80974 16.3069 20.773
662 1 -1.1104 3.72623 13.6207 23.6661
666 1 -1.1104 0.813111 13.4352 26.2179
672 1 -1.1104 0.957017 13.585 23.5811
677 1 -1.1104 3.69124 13.3854 26.4713
660 1 -1.1104 3.81705 19.2121 23.5491
664 1 -1.1104 0.87757 19.1322 26.3124
665 1 -1.1104 1.07936 16.3469 26.346
668 2 2.2208 5.36562 20.5467 24.9268
669 2 2.2208 5.12909 14.8928 24.915
671 1 -1.1104 1.21768 19.2488 23.4952
673 2 2.2208 5.24504 17.727 22.2702
674 1 -1.1104 3.8251 19.1157 26.465
675 2 2.2208 2.33871 17.7619 24.8858
676 1 -1.1104 3.70191 16.4633 26.4095
679 1 -1.1104 0.927997 16.4634 23.508
680 1 -1.1104 3.7601 16.2747 23.6468
681 2 2.2208 2.39718 20.5991 22.1118
682 2 2.2208 2.37918 14.9941 22.0476
667 1 -1.1104 6.71633 19.173 23.5339
670 1 -1.1104 6.43909 13.5323 23.4907
661 1 -1.1104 6.72976 13.4222 26.3552
687 1 -1.1104 9.44048 19.1653 23.4301
497 1 -1.1104 6.67231 16.2997 20.5288
375 2 2.2208 13.5677 3.61068 22.2075
694 1 -1.1104 9.50485 19.0208 26.2885
566 2 2.2208 10.8202 20.3701 24.998
510 1 -1.1104 12.2368 16.1392 23.4843
447 1 -1.1104 12.3562 18.9769 23.3447
690 1 -1.1104 9.22283 16.3317 26.6033
570 1 -1.1104 12.2773 16.41 26.402
531 1 -1.1104 9.60419 19.1603 20.681
697 2 2.2208 8.08017 17.7264 24.9246
336 2 2.2208 2.31769 -1.90478 27.6934
327 2 2.2208 5.26862 -2.14584 13.7326
378 2 2.2208 7.87949 14.8325 27.7167
684 2 2.2208 5.13697 17.7427 27.7426
476 2 2.2208 7.98203 6.36583 13.6586
656 2 2.2208 10.708 11.9585 27.6189
596 2 2.2208 7.89078 -2.05449 27.6966
568 2 2.2208 13.5647 6.50132 13.7253
333 2 2.2208 2.31653 12.0047 13.7417
572 2 2.2208 13.4637 0.803641 13.6525
335 2 2.2208 2.48864 17.5902 13.7225
685 2 2.2208 2.3734 14.9005 27.681
698 2 2.2208 5.29194 23.4266 5.26096
700 1 -1.1104 1.09372 24.7365 1.06359
701 1 -1.1104 1.18376 24.8111 3.8297
702 1 -1.1104 1.11826 21.8282 1.1231
703 1 -1.1104 1.02251 27.4855 0.839617
704 2 2.2208 5.27586 26.1164 2.39502
705 1 -1.1104 0.940134 22.1266 3.86553
707 1 -1.1104 3.93214 24.5901 1.12963
708 2 2.2208 2.38063 23.4324 2.39807
710 1 -1.1104 3.97155 24.6702 3.89089
711 2 2.2208 2.58318 26.172 5.32729
712 1 -1.1104 3.75845 21.8745 1.05345
714 1 -1.1104 3.78549 22.0239 3.91702
715 1 -1.1104 3.75232 27.6109 3.66865
706 1 -1.1104 1.13238 27.58 3.87125
713 1 -1.1104 3.84143 27.5776 0.894349
699 2 2.2208 5.35742 28.9669 5.2269
709 2 2.2208 2.42499 28.9183 2.45382
846 1 -1.1104 3.57797 22.0205 6.62076
719 1 -1.1104 6.66424 24.7283 1.01767
721 1 -1.1104 6.5533 21.8718 0.943627
724 1 -1.1104 6.70403 27.6074 3.90045
723 1 -1.1104 6.72138 21.9763 3.7381
1317 2 2.2208 8.08747 37.3946 -0.379807
839 1 -1.1104 1.17193 24.7367 6.66854
847 1 -1.1104 3.72088 27.7089 6.48236
843 1 -1.1104 6.566 21.9342 6.54597
9896 2 2.2208 -0.284335 42.9764 2.3859
988 1 -1.1104 9.3524 38.567 9.63749
1347 2 2.2208 5.17595 40.2746 -0.344925
722 1 -1.1104 6.67819 27.6202 1.08885
720 1 -1.1104 6.57535 24.8855 4.07251
844 1 -1.1104 6.59116 27.6158 6.86701
9767 2 2.2208 -0.391662 26.0845 7.98887
725 2 2.2208 10.7832 23.2598 5.36448
727 1 -1.1104 12.0867 24.6084 1.09167
728 1 -1.1104 12.0966 24.7128 4.04203
729 1 -1.1104 12.3979 21.7878 1.26387
731 2 2.2208 10.928 26.1575 2.48249
732 1 -1.1104 12.1093 21.9416 3.88463
734 1 -1.1104 9.29015 24.8923 0.925459
735 2 2.2208 8.08451 23.3518 2.43114
737 1 -1.1104 9.39594 24.6206 3.87862
738 2 2.2208 8.09412 26.142 5.28021
739 1 -1.1104 9.4216 21.9357 1.07276
740 1 -1.1104 9.53588 27.6312 1.1871
741 1 -1.1104 9.42131 21.769 3.79799
730 1 -1.1104 12.1848 27.6412 1.28822
726 2 2.2208 10.9738 28.9748 5.26718
733 1 -1.1104 12.3392 27.4498 4.0153
736 2 2.2208 8.04535 28.9264 2.32582
742 1 -1.1104 9.51678 27.3597 3.90537
872 1 -1.1104 12.1381 24.6678 6.75799
9633 2 2.2208 13.6342 37.4552 5.32879
9731 2 2.2208 13.625 28.8035 8.0195
1209 2 2.2208 13.5705 40.2901 13.6228
9732 2 2.2208 13.6136 23.3084 8.08411
747 1 -1.1104 1.11189 30.3505 0.8319
750 1 -1.1104 1.0222 30.5536 3.8048
753 1 -1.1104 0.972363 33.0986 1.12724
754 2 2.2208 5.07298 31.7988 2.47242
756 1 -1.1104 1.14241 33.1611 3.9354
758 1 -1.1104 3.86419 30.3749 1.15568
761 1 -1.1104 3.91801 30.4946 4.05575
763 2 2.2208 2.46959 31.8011 5.37182
765 1 -1.1104 3.65646 33.2316 1.08844
766 1 -1.1104 3.74104 33.1975 4.1256
746 2 2.2208 5.1161 34.7597 5.08534
748 1 -1.1104 0.998686 35.9972 0.836818
751 1 -1.1104 0.999332 35.8841 3.80626
755 2 2.2208 5.1853 37.3448 2.40897
759 1 -1.1104 3.72838 36.0696 0.945938
760 2 2.2208 2.25207 34.5989 2.30814
762 1 -1.1104 3.71805 35.9432 3.88257
764 2 2.2208 2.42921 37.4802 5.26539
757 1 -1.1104 6.56774 33.1365 3.93121
752 1 -1.1104 6.60214 36.103 3.80515
897 1 -1.1104 0.924921 35.9746 6.66487
896 1 -1.1104 1.10183 30.4634 6.71215
770 1 -1.1104 6.56704 30.4034 1.0783
903 1 -1.1104 3.75631 36.1884 6.67591
900 1 -1.1104 0.990584 33.2271 6.76719
9768 2 2.2208 -0.310817 23.3005 10.704
744 1 -1.1104 12.2326 41.5758 9.53307
772 1 -1.1104 6.37411 33.1138 1.23899
771 1 -1.1104 6.67083 30.2889 3.86632
898 1 -1.1104 6.6053 30.539 6.55334
749 1 -1.1104 6.43478 35.8906 1.05772
774 1 -1.1104 12.4795 30.3775 1.09622
776 1 -1.1104 12.4488 30.3271 3.8383
778 1 -1.1104 12.192 33.1793 1.00183
779 2 2.2208 10.8789 31.7237 2.58426
781 1 -1.1104 12.3032 32.9694 3.8937
782 1 -1.1104 9.5574 30.3049 0.989314
785 1 -1.1104 9.55405 30.3498 3.99683
787 2 2.2208 8.01763 31.8012 5.2074
789 1 -1.1104 9.30776 33.065 1.20081
790 1 -1.1104 9.53533 33.1471 3.87187
773 2 2.2208 10.7676 34.6301 5.19171
775 1 -1.1104 12.1721 36.1059 1.10222
777 1 -1.1104 12.1238 36.0645 3.94173
780 2 2.2208 10.8594 37.4244 2.54256
783 1 -1.1104 9.24699 35.7926 0.906597
784 2 2.2208 8.03267 34.4221 2.43571