ITEM: TIMESTEP
30000
ITEM: NUMBER OF ATOMS
17910
ITEM: BOX BOUNDS pp pp pp
-3.9469961351464239e-01 2.7734699613514742e+01
-4.8155722854141221e+00 3.3289557228541571e+02
-3.9794184456742127e-01 2.7737941844567437e+01
ITEM: ATOMS id type q x y z
1 2 2.2208 5.51142 0.952656 5.4745
2 1 -1.1104 1.08187 -3.28912 1.20201
6 1 -1.1104 1.14441 -3.38132 4.04368
10 1 -1.1104 1.30188 -0.590374 1.13429
12 2 2.2208 5.30853 -1.99561 2.60788
14 1 -1.1104 1.0881 -0.603006 3.89579
16 1 -1.1104 3.90661 -3.29941 1.12235
18 2 2.2208 2.71695 0.766256 2.54121
19 1 -1.1104 3.84097 -3.46292 4.04415
21 2 2.2208 2.36832 -1.93421 5.29958
23 1 -1.1104 4.0265 -0.627797 1.16925
24 1 -1.1104 4.0136 -0.650408 4.06058
11 1 -1.1104 6.71465 -0.522981 1.07874
3 1 -1.1104 1.10674 2.28537 1.07732
7 1 -1.1104 1.31618 2.11474 3.89922
17 1 -1.1104 4.00286 2.21807 1.16984
20 1 -1.1104 3.93608 2.202 3.95397
13 2 2.2208 5.34565 3.63243 2.62168
22 2 2.2208 2.56455 3.58818 5.45373
322 1 -1.1104 9.54572 13.642 12.2047
336 2 2.2208 2.54305 -1.92606 -0.190083
9 1 -1.1104 6.76009 2.16414 3.99604
200 2 2.2208 -0.192027 -1.99733 8.09674
25 2 2.2208 -0.248692 -1.96137 2.4443
338 2 2.2208 -0.0994905 0.894475 -0.114444
26 2 2.2208 -0.137133 0.918745 5.40408
632 2 2.2208 -0.367551 11.9861 -0.352365
174 1 -1.1104 4.11841 -0.715432 6.72354
655 2 2.2208 8.07203 9.39671 -0.252512
15 1 -1.1104 6.73519 -0.582546 4.05586
5 1 -1.1104 6.84412 2.21996 1.22761
136 2 2.2208 13.6485 14.8173 10.8183
8 1 -1.1104 6.60474 -3.47351 3.83926
4 1 -1.1104 6.60701 -3.5382 1.16396
168 1 -1.1104 6.63773 -3.37862 6.67434
31 2 2.2208 10.9969 0.832952 5.54581
32 1 -1.1104 12.2938 -3.55541 1.09885
34 1 -1.1104 12.152 -3.37584 3.98435
36 1 -1.1104 12.3005 -0.610958 1.2164
37 2 2.2208 10.8919 -1.9298 2.50939
39 1 -1.1104 12.3761 -0.59441 4.01729
40 1 -1.1104 9.5183 -3.34824 1.19832
42 2 2.2208 8.1577 1.0132 2.49063
43 1 -1.1104 9.40347 -3.56369 4.02384
45 2 2.2208 8.12905 -1.84265 5.40281
47 1 -1.1104 9.5409 -0.605988 1.03435
48 1 -1.1104 9.36423 -0.558446 3.72486
33 1 -1.1104 12.3065 2.20585 1.28669
35 1 -1.1104 12.3725 2.4177 4.05364
41 1 -1.1104 9.58495 2.15519 1.21248
44 1 -1.1104 9.69695 2.27234 4.02208
46 2 2.2208 8.13202 3.55689 5.48039
38 2 2.2208 11.0135 3.80811 2.69744
512 2 2.2208 5.17428 20.5219 13.5569
596 2 2.2208 8.08198 -1.99262 -0.229647
8553 2 2.2208 -0.244214 -4.64971 -0.304261
206 1 -1.1104 12.3152 2.02741 6.94097
8534 2 2.2208 -0.409179 -4.77898 5.31026
8949 2 2.2208 -0.34171 14.8953 8.25431
54 2 2.2208 5.20312 6.56347 5.35431
56 1 -1.1104 1.05814 7.6067 1.04476
58 1 -1.1104 1.02823 7.68425 3.90296
60 1 -1.1104 1.0159 5.01928 1.24222
67 1 -1.1104 1.02595 4.88342 4.12676
71 1 -1.1104 3.64389 7.79635 1.31189
72 2 2.2208 2.47954 6.22525 2.68399
74 1 -1.1104 3.90436 7.82128 3.94564
76 1 -1.1104 3.79239 5.03258 1.33581
79 1 -1.1104 4.00062 5.02991 4.1992
55 2 2.2208 5.17609 12.0413 5.31397
61 1 -1.1104 0.969481 10.5799 1.08161
66 2 2.2208 5.16258 9.23215 2.61355
68 1 -1.1104 1.12841 10.6034 3.92428
73 2 2.2208 2.34965 11.9522 2.44277
75 2 2.2208 2.40262 9.21704 5.26731
77 1 -1.1104 3.68276 10.532 1.33594
80 1 -1.1104 3.73273 10.5517 3.93909
565 2 2.2208 5.32556 0.856609 -0.330644
656 2 2.2208 10.8883 11.9802 -0.208983
595 2 2.2208 10.9683 0.792952 -0.182827
201 2 2.2208 -0.304307 0.714412 10.994
81 2 2.2208 -0.306308 6.56469 5.31584
319 1 -1.1104 9.56475 13.3888 9.56828
69 1 -1.1104 6.86451 4.98764 3.89097
57 1 -1.1104 6.67777 7.90708 1.36255
70 1 -1.1104 6.58406 10.6165 4.03042
63 1 -1.1104 6.52532 5.10698 1.14017
59 1 -1.1104 6.6048 7.8392 4.13411
64 1 -1.1104 6.64129 10.7985 1.29999
84 2 2.2208 10.9703 6.466 5.36555
86 1 -1.1104 12.2147 7.86957 1.22383
87 1 -1.1104 12.3235 7.99235 4.14116
88 1 -1.1104 12.3011 5.06072 1.2457
92 1 -1.1104 12.3668 5.15703 4.10825
94 1 -1.1104 9.49683 7.77829 1.28418
95 2 2.2208 8.12316 6.43752 2.5197
97 1 -1.1104 9.67966 7.87472 3.9897
99 1 -1.1104 9.35184 4.86518 1.30913
102 1 -1.1104 9.62084 5.19955 4.11156
85 2 2.2208 10.8805 12.1063 5.25357
89 1 -1.1104 12.187 10.6556 1.10902
91 2 2.2208 11.0544 9.25129 2.60774
93 1 -1.1104 12.4589 10.8322 3.88046
96 2 2.2208 8.06701 12.0214 2.47156
98 2 2.2208 7.9654 9.22579 5.38947
100 1 -1.1104 9.4788 10.5761 1.16091
103 1 -1.1104 9.54181 10.6745 3.88707
29 2 2.2208 -0.231319 9.1423 8.14916
265 1 -1.1104 12.2647 8.03524 6.81685
306 1 -1.1104 6.54786 16.2152 12.3034
202 2 2.2208 13.6446 14.9887 5.32699
8532 2 2.2208 2.40113 -4.81099 2.67732
135 2 2.2208 -0.23056 14.7052 2.45756
107 1 -1.1104 1.16054 13.2592 1.10833
113 1 -1.1104 1.10956 13.4421 3.89488
123 1 -1.1104 3.88352 13.5675 1.07277
128 1 -1.1104 3.80422 13.3717 3.82576
106 2 2.2208 5.2184 17.6637 5.39367
109 1 -1.1104 1.27761 18.9322 1.00768
114 1 -1.1104 1.48073 18.8177 3.87591
116 1 -1.1104 1.17017 16.2183 1.29443
119 2 2.2208 5.17738 14.9908 2.54075
120 2 2.2208 5.30305 20.4181 2.65854
121 1 -1.1104 0.985102 16.1733 3.88931
125 1 -1.1104 3.94391 19.034 1.13861
127 2 2.2208 2.52699 17.5547 2.3464
129 1 -1.1104 4.08939 19.0284 4.12876
130 2 2.2208 2.41008 14.865 5.36551
131 2 2.2208 2.61102 20.3857 5.16607
132 1 -1.1104 3.95241 16.3521 0.964495
134 1 -1.1104 3.90324 16.3031 3.9946
82 2 2.2208 -0.144374 9.1253 2.4655
597 2 2.2208 8.18508 3.61021 -0.210866
339 2 2.2208 -0.344531 17.7882 -0.362138
108 1 -1.1104 0.96269 13.5845 6.59236
126 1 -1.1104 3.77527 18.8503 6.76012
9108 2 2.2208 -0.185706 20.4044 2.38982
145 1 -1.1104 12.169 19.0644 6.7451
115 1 -1.1104 6.70347 13.4205 3.96495
138 1 -1.1104 6.77194 19.1817 1.12293
140 1 -1.1104 6.78572 16.3287 1.02686
110 1 -1.1104 6.69601 13.5149 1.10286
139 1 -1.1104 6.76409 18.9998 3.82009
122 1 -1.1104 6.6519 16.411 3.78368
142 1 -1.1104 12.2807 13.5374 1.22312
146 1 -1.1104 12.2831 13.5392 4.05143
153 1 -1.1104 9.42981 13.6818 1.30337
158 1 -1.1104 9.35322 13.5489 4.15982
141 2 2.2208 10.7284 17.6839 5.28447
144 1 -1.1104 12.4443 19.0826 0.989635
147 1 -1.1104 12.4581 19.0687 3.78074
148 1 -1.1104 12.3635 16.3234 1.07326
150 2 2.2208 10.9807 14.9022 2.53072
151 2 2.2208 10.9796 20.4665 2.57004
152 1 -1.1104 12.2714 16.3534 4.03311
155 1 -1.1104 9.6129 19.0732 1.03864
157 2 2.2208 8.13197 17.7284 2.32767
159 1 -1.1104 9.5696 19.1087 3.9858
160 2 2.2208 7.82121 14.8856 5.29464
161 2 2.2208 8.11055 20.417 5.20979
162 1 -1.1104 9.48267 16.5867 0.907339
164 1 -1.1104 9.30836 16.2779 3.84905
8533 2 2.2208 5.25983 -4.64116 5.37147
170 1 -1.1104 1.22198 -0.601461 6.79335
167 1 -1.1104 1.16701 2.14631 6.94839
172 1 -1.1104 3.73203 -3.33867 6.82643
166 1 -1.1104 0.879115 -3.44407 6.65197
173 1 -1.1104 3.9174 2.1283 6.87179
175 2 2.2208 5.46104 0.787554 10.9732
176 1 -1.1104 1.21624 -3.55438 12.394
180 1 -1.1104 0.987983 -3.34016 9.6443
184 1 -1.1104 1.16534 -0.568882 12.5248
186 2 2.2208 5.27297 -2.08866 8.02782
188 1 -1.1104 1.2603 -0.579416 9.45282
190 1 -1.1104 3.88057 -3.20937 12.4794
192 2 2.2208 2.63477 0.872881 8.19604
193 1 -1.1104 3.90463 -3.3991 9.60778
195 2 2.2208 2.52877 -2.00432 10.945
197 1 -1.1104 3.93849 -0.511159 12.3431
198 1 -1.1104 3.83007 -0.70715 9.55312
177 1 -1.1104 1.08039 2.23319 12.6679
181 1 -1.1104 1.07721 2.32188 9.71317
191 1 -1.1104 3.98602 2.29377 12.4091
194 1 -1.1104 3.87949 2.34618 9.58866
196 2 2.2208 2.43302 3.63845 10.971
187 2 2.2208 5.35052 3.76324 8.32069
567 2 2.2208 2.58286 3.64285 -0.302455
318 1 -1.1104 9.30358 19.0959 9.4409
199 2 2.2208 -0.329179 3.61321 8.0638
629 2 2.2208 5.23926 6.54201 -0.221721
182 1 -1.1104 6.87178 -3.59695 9.63707
185 1 -1.1104 6.92053 -0.49757 12.47
189 1 -1.1104 6.60704 -0.694332 9.45222
171 1 -1.1104 6.81526 -0.436898 6.91679
169 1 -1.1104 6.64742 2.20866 6.98164
210 1 -1.1104 9.48385 -0.560329 6.7372
209 1 -1.1104 9.50133 2.13389 6.84406
207 1 -1.1104 12.3888 -0.5015 6.71669
208 1 -1.1104 9.44149 -3.31828 6.75183
178 1 -1.1104 6.80123 -3.36932 12.3446
183 1 -1.1104 6.72989 2.25064 9.667
179 1 -1.1104 6.93939 2.23747 12.4646
205 1 -1.1104 12.0793 -3.39345 6.69506
211 2 2.2208 10.9621 0.80662 11.0596
212 1 -1.1104 12.2662 -3.33992 12.2983
214 1 -1.1104 12.5062 -3.27154 9.48532
216 1 -1.1104 12.0758 -0.640978 12.4379
217 2 2.2208 10.898 -2.12743 8.1886
219 1 -1.1104 12.2462 -0.558817 9.46193
220 1 -1.1104 9.54086 -3.31463 12.2549
222 2 2.2208 8.17767 0.739166 8.33197
223 1 -1.1104 9.50404 -3.41127 9.47953
225 2 2.2208 8.18995 -2.03461 10.8553
227 1 -1.1104 9.49396 -0.58335 12.3996
228 1 -1.1104 9.60298 -0.628175 9.67332
213 1 -1.1104 12.3192 2.24071 12.4571
215 1 -1.1104 12.3073 2.16508 9.76974
218 2 2.2208 10.8877 3.55621 8.2872
221 1 -1.1104 9.50992 2.20331 12.3529
224 1 -1.1104 9.55124 2.16847 9.61575
226 2 2.2208 8.16393 3.57663 11.0573
28 2 2.2208 -0.188515 6.3692 10.9517
654 2 2.2208 10.8188 6.45841 -0.12363
236 1 -1.1104 1.12537 4.83989 6.86522
239 1 -1.1104 3.93119 5.13169 6.87184
62 1 -1.1104 0.987866 10.6014 6.71008
234 1 -1.1104 1.14163 7.78365 6.66153
238 1 -1.1104 3.88245 7.78595 6.73866
78 1 -1.1104 3.72253 10.5805 6.67827
118 1 -1.1104 6.52523 16.2944 6.66651
240 2 2.2208 5.32877 6.51278 11.0271
242 1 -1.1104 1.16208 7.77762 12.5033
244 1 -1.1104 1.03957 7.7883 9.63149
246 1 -1.1104 1.19983 5.0886 12.372
251 1 -1.1104 1.19116 5.09685 9.60898
255 1 -1.1104 3.90157 7.95634 12.5585
256 2 2.2208 2.5802 6.48902 8.23929
258 1 -1.1104 3.94044 7.91555 9.76
260 1 -1.1104 4.03143 4.90568 12.3672
262 1 -1.1104 3.98698 5.27573 9.5845
241 2 2.2208 5.3342 12.0833 11.035
247 1 -1.1104 0.908939 10.5493 12.3936
250 2 2.2208 5.41428 9.33953 8.3306
252 1 -1.1104 1.1401 10.4351 9.41783
257 2 2.2208 2.46579 12.0406 8.09927
259 2 2.2208 2.44894 9.15253 10.9928
261 1 -1.1104 3.73924 10.6424 12.282
263 1 -1.1104 3.88368 10.6609 9.4955
237 1 -1.1104 6.77054 4.80437 6.8086
235 1 -1.1104 6.62566 7.94831 6.8034
65 1 -1.1104 6.54194 10.6507 6.81617
266 1 -1.1104 12.3978 5.19988 7.00176
249 1 -1.1104 6.53822 10.4975 12.2826
267 1 -1.1104 9.38001 7.66684 6.7704
269 1 -1.1104 9.62799 4.86512 6.94332
101 1 -1.1104 9.37406 10.5144 6.70333
90 1 -1.1104 12.2511 10.689 6.66952
243 1 -1.1104 6.63682 7.8659 12.7071
245 1 -1.1104 6.79392 7.8122 9.76666
253 1 -1.1104 6.84437 5.10431 9.58751
248 1 -1.1104 6.84188 4.9974 12.4151
254 1 -1.1104 6.70882 10.7112 9.6108
268 1 -1.1104 9.62093 5.29207 9.74063
271 1 -1.1104 9.65118 5.00877 12.3001
273 1 -1.1104 9.57524 7.79593 9.53279
275 2 2.2208 8.24512 6.3316 8.19123
276 2 2.2208 10.9913 6.5618 10.9362
278 1 -1.1104 12.286 8.05852 12.4117
279 1 -1.1104 12.2878 7.97883 9.55884
280 1 -1.1104 12.4313 5.11514 12.4169
283 1 -1.1104 12.4431 5.01329 9.70474
285 1 -1.1104 9.43826 7.79862 12.389
264 1 -1.1104 9.43881 10.569 9.6921
270 1 -1.1104 9.45555 10.7181 12.3571
272 2 2.2208 8.08713 9.21389 11.108
274 2 2.2208 8.15893 12.0151 8.15982
277 2 2.2208 10.8114 12.019 11.0049
281 1 -1.1104 12.345 10.7363 12.3342
282 2 2.2208 10.8517 9.30973 8.15933
284 1 -1.1104 12.2967 10.6984 9.42808
156 1 -1.1104 9.47351 19.0563 6.71567
149 1 -1.1104 12.1426 16.2462 6.69376
8539 2 2.2208 5.27783 -4.72121 11.0439
378 2 2.2208 8.09111 14.9927 -0.313751
124 1 -1.1104 3.81058 13.3281 6.4797
133 1 -1.1104 3.80974 16.0154 6.6709
117 1 -1.1104 0.924895 16.407 6.70133
302 1 -1.1104 0.915876 19.0305 6.60531
287 1 -1.1104 4.06448 13.6222 12.1472
294 1 -1.1104 1.01407 13.3149 9.50682
299 1 -1.1104 1.07999 13.417 12.2773
305 1 -1.1104 3.69976 13.5242 9.43873
286 1 -1.1104 3.77533 19.2477 11.9925
291 1 -1.1104 0.962212 19.279 9.58707
292 1 -1.1104 1.13616 16.447 9.54272
293 2 2.2208 5.27989 20.4417 8.0944
295 2 2.2208 5.16315 14.7101 8.10289
298 1 -1.1104 0.989742 18.9755 12.4388
300 2 2.2208 5.24074 17.5664 10.855
301 1 -1.1104 3.62492 19.3031 9.44311
303 2 2.2208 2.28197 17.7589 8.05635
304 1 -1.1104 3.75347 16.1652 9.47902
307 1 -1.1104 1.07099 16.092 12.3187
308 1 -1.1104 3.71396 16.2881 12.4697
309 2 2.2208 2.47872 20.6635 10.8472
310 2 2.2208 2.36206 14.8987 10.9566
233 1 -1.1104 12.4922 16.3793 12.4001
313 1 -1.1104 12.1631 19.2377 12.3967
312 1 -1.1104 12.3459 13.6442 12.2652
231 1 -1.1104 12.3452 13.5149 9.28632
314 1 -1.1104 9.35582 16.3364 9.50849
311 2 2.2208 10.6957 17.6815 11.0423
315 1 -1.1104 9.31947 16.2121 12.414
290 1 -1.1104 6.68731 13.5017 9.47916
316 2 2.2208 8.04322 20.5841 10.9683
317 2 2.2208 7.96728 14.8789 10.9004
324 2 2.2208 10.9152 20.4369 7.97854
325 2 2.2208 10.8013 14.8186 8.02248
232 1 -1.1104 12.2203 18.9561 9.58357
321 1 -1.1104 9.36212 19.1305 12.3556
163 1 -1.1104 9.24297 16.135 6.66878
288 1 -1.1104 6.39899 19.133 9.51076
297 1 -1.1104 6.81598 13.3367 12.2958
112 1 -1.1104 6.58499 19.1415 6.70764
296 1 -1.1104 6.50315 19.087 12.2728
289 1 -1.1104 6.72423 16.2287 9.46144
154 1 -1.1104 9.39491 13.3084 6.8694
320 2 2.2208 8.01394 17.6824 7.92925
323 1 -1.1104 12.0465 16.1024 9.54739
111 1 -1.1104 6.54716 13.4264 6.70689
143 1 -1.1104 12.1327 13.4611 6.55837
683 2 2.2208 2.54929 20.4861 -0.189302
137 2 2.2208 13.6077 17.6435 8.18464
8538 2 2.2208 2.40658 -4.69127 8.21514
8600 2 2.2208 10.7493 -4.73873 -0.241511
83 2 2.2208 -0.259763 12.1031 5.38697
631 2 2.2208 5.28371 12.153 -0.184026
8950 2 2.2208 -0.325197 17.7908 10.8837
539 2 2.2208 8.01277 17.6358 13.6105
27 2 2.2208 -0.304713 3.61179 2.48787
685 2 2.2208 2.39909 14.8132 -0.29248
9210 2 2.2208 13.5685 20.6827 11.025
684 2 2.2208 5.34226 17.678 -0.389328
9252 2 2.2208 -0.394158 20.561 13.4672
605 2 2.2208 13.6473 3.60272 -0.186045
105 2 2.2208 13.6048 6.51822 2.61698
50 2 2.2208 13.6096 -2.01789 5.36778
658 2 2.2208 13.5875 9.33866 -0.299253
635 2 2.2208 -0.314804 6.40636 -0.323728
538 2 2.2208 10.9896 14.8793 13.5662
340 2 2.2208 5.47156 0.888045 16.53
341 1 -1.1104 1.34207 -3.49055 18.001
345 1 -1.1104 1.02034 -3.31068 15.2214
353 1 -1.1104 1.19333 -0.579758 18.0633
355 2 2.2208 5.31276 -2.10265 19.6313
357 1 -1.1104 1.11586 -0.49685 15.3431
361 1 -1.1104 4.05934 -3.39402 18.2003
363 2 2.2208 2.63429 0.851174 19.3894
364 1 -1.1104 3.89784 -3.34653 15.312
368 2 2.2208 2.5472 -1.9685 16.6584
370 1 -1.1104 3.9002 -0.636492 17.9373
371 1 -1.1104 3.85635 -0.549386 15.1071
342 1 -1.1104 1.22683 2.29823 18.1715
347 1 -1.1104 1.13238 2.2829 15.213
362 1 -1.1104 3.97261 2.13751 18.0218
366 1 -1.1104 4.06005 2.20383 15.247
369 2 2.2208 2.67185 3.46234 16.5852
356 2 2.2208 5.50798 3.65401 19.504
476 2 2.2208 8.14231 6.47396 13.9081
8586 2 2.2208 8.05563 -4.78893 25.3241
376 2 2.2208 -0.265078 0.94074 16.5475
8704 2 2.2208 11.0524 -4.78786 16.6465
332 2 2.2208 5.23275 9.29704 13.7487
574 2 2.2208 -0.281012 -1.79016 25.1118
358 1 -1.1104 1.15621 -0.438468 20.769
633 2 2.2208 -0.332933 9.30446 24.8359
686 2 2.2208 -0.375328 14.9972 25.1028
689 2 2.2208 -0.331327 17.5895 22.1402
328 2 2.2208 2.50166 0.875463 13.9292
8635 2 2.2208 5.54651 -4.70126 22.357
359 1 -1.1104 6.78643 -0.500997 15.2979
337 2 2.2208 -0.256838 3.70357 13.7776
354 1 -1.1104 6.84721 -0.540738 17.9896
349 1 -1.1104 6.6534 -3.35206 15.021
344 1 -1.1104 6.73743 2.33629 17.901
343 1 -1.1104 6.98029 -3.31631 17.9431
351 1 -1.1104 6.89188 2.32228 15.1089
383 2 2.2208 11.0215 0.79067 16.6325
384 1 -1.1104 12.6894 -3.44227 18.0704
386 1 -1.1104 12.425 -3.2586 15.225
390 1 -1.1104 12.3255 -0.626069 17.8526
391 2 2.2208 11.0134 -2.10724 19.4367
393 1 -1.1104 12.271 -0.530884 15.0199
395 1 -1.1104 9.71678 -3.5975 18.1146
397 2 2.2208 8.06121 0.740271 19.5035
398 1 -1.1104 9.24522 -3.46892 15.3184
402 2 2.2208 8.04202 -1.91345 16.5069
404 1 -1.1104 9.53674 -0.723067 18.1155
405 1 -1.1104 9.51631 -0.641323 15.3799
385 1 -1.1104 12.3792 2.16769 18.1205
388 1 -1.1104 12.6817 2.15516 15.3196
396 1 -1.1104 9.4891 2.04749 17.927
400 1 -1.1104 9.98721 2.08788 15.0673
403 2 2.2208 8.31535 3.6774 16.5861
413 2 2.2208 8.36643 0.853936 13.9247
414 2 2.2208 10.832 -2.06647 13.8352
415 2 2.2208 11.0909 3.69768 13.7066
8555 2 2.2208 8.09546 -4.78551 13.9145
416 2 2.2208 5.41796 6.60904 16.6562
418 1 -1.1104 0.991513 7.71776 18.4192
420 1 -1.1104 1.00486 7.78029 15.3951
423 1 -1.1104 1.26065 4.87058 17.9415
428 1 -1.1104 1.22758 5.11169 15.1854
435 1 -1.1104 3.83695 7.97654 18.0253
436 2 2.2208 2.65459 6.38167 19.3442
438 1 -1.1104 3.90236 7.9526 15.2277
441 1 -1.1104 4.24437 5.12543 17.9746
443 1 -1.1104 3.79968 5.12888 15.2269
439 1 -1.1104 3.98163 7.58041 20.6968
444 1 -1.1104 3.83864 4.74676 20.7937
417 2 2.2208 5.31416 12.0941 16.5211
424 1 -1.1104 0.985013 10.5915 18.3534
427 2 2.2208 5.13345 9.30879 19.4718
430 1 -1.1104 1.07584 10.7124 15.3137
437 2 2.2208 2.7723 12.2825 19.2865
440 2 2.2208 2.3816 9.31516 16.6564
442 1 -1.1104 3.95931 10.7136 17.7834
445 1 -1.1104 3.77955 10.6873 15.0843
335 2 2.2208 2.45329 17.6733 13.7166
434 1 -1.1104 6.77115 10.7705 20.8454
569 2 2.2208 13.6435 12.1991 13.7469
8710 2 2.2208 -0.0968584 -4.70906 16.5783
9478 2 2.2208 -0.291874 14.9532 19.4626
334 2 2.2208 5.21935 14.9269 13.7772
429 1 -1.1104 1.12584 5.49429 20.9846
9251 2 2.2208 -0.264125 14.8731 13.8461
392 2 2.2208 10.8833 3.73438 19.3901
419 1 -1.1104 6.68509 7.90635 18.2034
433 1 -1.1104 6.76681 10.6408 15.2407
421 1 -1.1104 6.66877 7.9868 15.3201
425 1 -1.1104 6.93739 5.03956 18.1045
431 1 -1.1104 6.69425 5.06954 15.2084
426 1 -1.1104 6.66022 10.6697 18.0214
452 2 2.2208 11.0138 6.51481 16.8702
454 1 -1.1104 12.3434 7.91191 17.9116
455 1 -1.1104 12.4697 7.76977 15.1539
457 1 -1.1104 12.4327 4.92749 17.9294
460 1 -1.1104 12.5814 5.06807 15.1497
464 1 -1.1104 9.36818 7.96775 18.0802
465 2 2.2208 8.08644 6.50264 19.4509
467 1 -1.1104 9.4769 7.75446 15.3225
470 1 -1.1104 9.57931 5.20385 17.9971
472 1 -1.1104 9.6256 4.95087 15.2307
453 2 2.2208 10.8306 11.9925 16.575
458 1 -1.1104 12.2355 10.6484 17.9861
459 2 2.2208 10.8807 9.42337 19.5204
462 1 -1.1104 12.3297 10.7367 15.1264
466 2 2.2208 8.13108 12.0393 19.6515
469 2 2.2208 8.11191 9.39847 16.727
471 1 -1.1104 9.37128 10.8282 18.1408
474 1 -1.1104 9.6621 10.3957 15.4169
461 1 -1.1104 12.4357 4.95946 20.7469
326 2 2.2208 -0.298407 -1.99772 13.7471
690 1 -1.1104 9.48731 16.1717 26.3058
9375 2 2.2208 -0.379943 12.1167 16.689
8707 2 2.2208 2.69901 -4.75117 19.3827
329 2 2.2208 5.47936 3.59343 13.796
576 2 2.2208 -0.319467 3.41183 25.0798
630 2 2.2208 2.25207 9.16351 27.7416
478 1 -1.1104 1.27494 13.5853 17.912
482 1 -1.1104 1.211 13.4952 15.1083
498 1 -1.1104 4.1315 13.6297 17.9659
501 1 -1.1104 3.93708 13.5506 15.0687
492 2 2.2208 5.5634 14.9459 19.3899
477 2 2.2208 5.39132 17.7914 16.4473
479 1 -1.1104 0.909238 18.8284 17.96
484 1 -1.1104 1.11703 18.9869 15.2398
490 1 -1.1104 1.28945 16.1779 18.1029
493 2 2.2208 5.15315 20.5949 19.232
494 1 -1.1104 1.12145 16.3389 15.1336
499 1 -1.1104 3.87316 19.2876 17.8857
500 2 2.2208 2.68133 17.67 19.2134
503 1 -1.1104 3.90034 19.0087 15.1346
505 2 2.2208 2.49825 14.9419 16.5002
506 2 2.2208 2.45072 20.507 16.5129
507 1 -1.1104 4.08226 16.3547 17.8437
508 1 -1.1104 3.81808 16.423 15.0877
504 1 -1.1104 3.83482 19.0516 20.7107
485 1 -1.1104 0.934009 19.001 20.6253
529 1 -1.1104 9.66154 13.3397 20.8108
687 1 -1.1104 9.26498 19.2835 23.6777
481 1 -1.1104 6.62408 19.0529 17.8209
491 1 -1.1104 6.82523 16.3674 17.7648
496 1 -1.1104 6.48912 16.4214 15.0247
694 1 -1.1104 9.55242 19.0247 26.4309
377 2 2.2208 -0.14107 -1.90592 19.4852
448 1 -1.1104 12.4586 13.5225 26.3482
486 1 -1.1104 6.69284 13.4922 15.0839
480 1 -1.1104 6.87389 13.4463 17.9476
514 1 -1.1104 12.3344 13.4505 17.9636
516 1 -1.1104 12.3276 13.687 15.2182
525 1 -1.1104 9.67273 13.6337 17.8454
528 1 -1.1104 9.53161 13.3909 14.9456
521 2 2.2208 11.0052 14.8714 19.3431
488 1 -1.1104 6.82179 19.3624 14.9145
513 2 2.2208 10.933 17.8022 16.4963
515 1 -1.1104 12.2023 19.1623 17.9272
518 1 -1.1104 12.3155 19.3905 15.1937
520 1 -1.1104 12.4285 16.2591 17.9506
522 2 2.2208 10.9158 20.5834 19.356
523 1 -1.1104 12.6182 16.5071 15.1621
526 1 -1.1104 9.28881 19.2633 17.8272
527 2 2.2208 8.22256 17.7294 19.4053
530 1 -1.1104 9.58661 19.2019 14.9849
532 2 2.2208 8.17731 14.9117 16.4965
533 2 2.2208 8.05207 20.5408 16.4805
534 1 -1.1104 9.66695 16.4141 17.8306
535 1 -1.1104 9.55354 16.1874 14.9777
408 1 -1.1104 12.3956 13.4989 23.5875
531 1 -1.1104 9.50877 19.122 20.7839
497 1 -1.1104 6.80038 16.5508 20.7106
348 1 -1.1104 0.959045 2.60665 21.0095
517 1 -1.1104 12.3171 13.2682 20.9402
573 1 -1.1104 9.54937 13.5537 23.5329
372 1 -1.1104 4.06739 -0.679908 20.7659
365 1 -1.1104 3.78892 -3.31713 21.037
346 1 -1.1104 1.09853 -3.34103 20.7969
367 1 -1.1104 3.98473 2.10894 20.9013
541 2 2.2208 5.46106 0.87726 22.2969
542 1 -1.1104 1.20131 -3.37568 23.7912
546 1 -1.1104 1.29765 -3.32937 26.5342
550 1 -1.1104 1.15181 -0.619711 23.6469
552 2 2.2208 5.29347 -2.01938 25.0435
554 1 -1.1104 1.1991 -0.370626 26.5554
556 1 -1.1104 3.99947 -3.30994 23.6475
558 2 2.2208 2.70927 0.863536 25.0822
559 1 -1.1104 4.03959 -3.57705 26.4369
561 2 2.2208 2.44927 -1.857 22.2265
563 1 -1.1104 3.93139 -0.360769 23.5726
564 1 -1.1104 4.00938 -0.562864 26.334
543 1 -1.1104 1.07314 2.09613 23.6765
547 1 -1.1104 1.27895 2.31885 26.4893
553 2 2.2208 5.53886 3.67345 25.0785
557 1 -1.1104 4.08777 2.24928 23.6214
560 1 -1.1104 4.06896 2.27293 26.4735
562 2 2.2208 2.49695 3.79334 22.3076
9410 2 2.2208 -0.320642 6.42525 16.6191
555 1 -1.1104 6.64337 -0.518326 26.3558
566 2 2.2208 10.9219 20.4852 24.9067
603 2 2.2208 13.5753 -2.00541 22.2161
447 1 -1.1104 12.5123 19.1125 23.3274
350 1 -1.1104 6.82531 -3.4511 20.8276
352 1 -1.1104 6.67305 2.40549 20.8614
399 1 -1.1104 9.48463 -3.4771 20.8986
401 1 -1.1104 9.44707 2.39829 20.7125
387 1 -1.1104 12.3536 -3.55221 20.8044
696 1 -1.1104 6.74677 19.1111 26.1701
544 1 -1.1104 6.80282 -3.30746 23.7287
549 1 -1.1104 6.81364 2.18238 26.6675
394 1 -1.1104 12.3668 -0.679376 20.727
360 1 -1.1104 6.74923 -0.594448 20.9681
389 1 -1.1104 12.0932 2.19839 20.8237
548 1 -1.1104 6.83804 -3.32891 26.5023
551 1 -1.1104 6.7551 -0.532373 23.7187
545 1 -1.1104 6.84444 2.29866 23.8385
406 1 -1.1104 9.47182 -0.615773 20.936
577 2 2.2208 10.9318 0.878059 22.1529
578 1 -1.1104 12.2886 -3.5714 23.882
580 1 -1.1104 12.2585 -3.38693 26.4962
582 1 -1.1104 12.2001 -0.69589 23.6728
583 2 2.2208 11.0231 -2.09812 25.1406
585 1 -1.1104 12.2905 -0.708582 26.5799
586 1 -1.1104 9.53172 -3.60689 23.6841
588 2 2.2208 8.15216 0.678997 24.9997
589 1 -1.1104 9.50485 -3.40666 26.4522
591 2 2.2208 8.12881 -2.20454 22.2777
593 1 -1.1104 9.55007 -0.780908 23.6153
594 1 -1.1104 9.52607 -0.708629 26.5463
579 1 -1.1104 12.4921 2.16781 23.623
581 1 -1.1104 12.3047 2.15253 26.7181
584 2 2.2208 10.9117 3.59469 25.1354
587 1 -1.1104 9.46614 2.05151 23.7695
590 1 -1.1104 9.64734 2.25696 26.4979
592 2 2.2208 8.03921 3.67492 22.3545
449 1 -1.1104 12.326 19.0254 26.2363
667 1 -1.1104 6.62229 19.22 23.3031
451 2 2.2208 10.7705 9.17445 13.9101
446 1 -1.1104 3.92637 10.7545 20.6742
606 2 2.2208 5.271 6.55334 22.4199
608 1 -1.1104 0.789809 7.66931 23.8326
610 1 -1.1104 0.855837 7.7626 26.5448
612 1 -1.1104 0.90377 4.97636 23.7736
617 1 -1.1104 1.02967 5.09556 26.5181
621 1 -1.1104 4.09597 7.59568 24.0847
622 2 2.2208 2.39725 6.53329 24.9897
624 1 -1.1104 3.75168 8.01862 26.5681
625 1 -1.1104 3.80097 5.00255 23.6632
627 1 -1.1104 4.02195 5.20021 26.5547
607 2 2.2208 5.26523 11.9019 22.2116
613 1 -1.1104 1.03641 10.673 23.4118
616 2 2.2208 5.114 9.27973 25.1494
618 1 -1.1104 1.02287 10.6389 26.3129
623 2 2.2208 2.33231 12.0455 24.9115
626 1 -1.1104 3.98796 10.6645 23.8788
628 1 -1.1104 3.62881 10.8696 26.5305
695 1 -1.1104 9.59318 13.2375 26.2886
432 1 -1.1104 6.69992 5.19619 20.9923
614 1 -1.1104 6.76141 5.15045 23.6417
615 1 -1.1104 6.91478 10.6877 23.5664
422 1 -1.1104 6.64256 7.93728 21.0571
473 1 -1.1104 9.59659 4.99855 20.9696
463 1 -1.1104 12.4157 10.6892 20.7564
475 1 -1.1104 9.65432 10.5832 21.0492
456 1 -1.1104 12.0861 7.88602 20.7997
468 1 -1.1104 9.35551 7.87815 20.888
619 1 -1.1104 6.73307 5.24877 26.5176
620 1 -1.1104 6.59168 10.7676 26.439
611 1 -1.1104 6.76215 8.05286 26.643
609 1 -1.1104 6.78166 7.97432 23.763
637 1 -1.1104 9.44713 4.91024 26.4438
639 1 -1.1104 9.6271 5.03026 23.7838
641 1 -1.1104 9.52762 7.63498 26.496
643 2 2.2208 8.11028 6.57498 25.054
644 2 2.2208 11.0318 6.36988 22.1577
646 1 -1.1104 12.3919 7.79508 23.7233
647 1 -1.1104 12.4566 7.97112 26.5689
648 1 -1.1104 12.356 4.94382 23.6117
651 1 -1.1104 12.1994 5.16078 26.4575
653 1 -1.1104 9.45282 7.9044 23.6986
636 1 -1.1104 9.53759 10.4462 26.4637
638 1 -1.1104 9.73566 10.8057 23.8403
640 2 2.2208 8.16478 9.17668 22.2944
642 2 2.2208 8.12985 11.8869 25.0864
645 2 2.2208 11.1494 12.0346 22.2888
649 1 -1.1104 12.5266 10.5926 23.5627
650 2 2.2208 10.9879 9.19149 25.0342
652 1 -1.1104 12.2892 10.7819 26.2239
663 1 -1.1104 6.71267 16.3852 26.2306
661 1 -1.1104 6.87691 13.5291 26.589
483 1 -1.1104 1.17034 13.0083 20.7241
502 1 -1.1104 3.95589 13.4012 20.8498
509 1 -1.1104 4.00287 16.2597 20.6309
688 2 2.2208 -0.244288 20.4989 24.9987
495 1 -1.1104 1.23088 15.9546 20.8008
662 1 -1.1104 3.8214 13.3937 23.7279
666 1 -1.1104 0.956625 13.5024 26.2863
672 1 -1.1104 1.03407 13.6326 23.555
677 1 -1.1104 3.99419 13.5347 26.4356
660 1 -1.1104 3.85962 19.0938 23.4603
664 1 -1.1104 1.0402 18.8186 26.2779
665 1 -1.1104 0.968959 16.2628 26.595
668 2 2.2208 5.38218 20.6405 24.8538
669 2 2.2208 5.29815 14.7634 25.1082
671 1 -1.1104 0.954654 19.1205 23.463
673 2 2.2208 5.30184 17.7535 21.9572
674 1 -1.1104 3.94141 19.0644 26.6221
675 2 2.2208 2.68345 17.6871 25.0493
676 1 -1.1104 3.96976 16.2586 26.348
679 1 -1.1104 1.13139 16.3704 23.5552
680 1 -1.1104 3.97308 16.1012 23.4873
681 2 2.2208 2.35517 20.4017 21.9737
682 2 2.2208 2.68337 14.7982 22.2044
450 2 2.2208 8.12577 12.0957 13.7636
519 1 -1.1104 12.3657 19.2704 20.5596
692 2 2.2208 8.04439 20.5686 22.0134
570 1 -1.1104 12.355 16.3103 26.434
511 2 2.2208 10.7748 14.8736 24.9863
382 2 2.2208 10.7829 17.7495 22.2016
510 1 -1.1104 12.2201 16.2858 23.5192
693 2 2.2208 8.22141 14.8324 22.1721
489 1 -1.1104 6.51029 19.3276 20.5408
697 2 2.2208 8.0163 17.7537 24.7922
678 1 -1.1104 6.59826 16.1428 23.5031
670 1 -1.1104 6.69271 13.3175 23.6558
691 1 -1.1104 9.56917 16.5914 23.4927
524 1 -1.1104 12.4298 16.1906 20.7077
487 1 -1.1104 6.84842 13.7429 20.805
536 1 -1.1104 9.62073 16.2121 20.6355
537 2 2.2208 11.057 20.7135 13.9891
331 2 2.2208 2.4488 6.37028 13.9037
604 2 2.2208 13.6588 0.74088 25.1045
575 2 2.2208 -0.34201 0.856156 22.3551
379 2 2.2208 13.5622 17.7739 19.3228
571 2 2.2208 13.6673 0.864109 19.3134
8637 2 2.2208 -0.227544 -4.78049 22.1273
380 2 2.2208 11.0331 17.6972 27.688
333 2 2.2208 2.25743 11.9423 13.7296
327 2 2.2208 5.25163 -1.90168 13.7256
330 2 2.2208 -0.236577 9.19971 13.7303
381 2 2.2208 8.12487 20.4823 27.6921
698 2 2.2208 5.2578 23.3975 5.2259
700 1 -1.1104 0.972503 24.4178 1.16126
701 1 -1.1104 1.29133 24.7304 3.84483
702 1 -1.1104 1.22475 21.6692 1.12708
703 1 -1.1104 1.01748 27.4068 1.01432
704 2 2.2208 5.37529 26.0939 2.51992
705 1 -1.1104 1.01321 21.7239 3.90928
707 1 -1.1104 3.75989 24.637 0.967515
708 2 2.2208 2.63022 23.0917 2.53949
710 1 -1.1104 4.01861 24.6361 3.91537
711 2 2.2208 2.53506 26.2132 5.24039
712 1 -1.1104 4.06122 21.7374 1.19562
714 1 -1.1104 3.84788 21.7949 3.86995
715 1 -1.1104 3.97033 27.3985 3.83344
706 1 -1.1104 1.20607 27.5363 3.76317
713 1 -1.1104 4.01386 27.4365 1.10762
699 2 2.2208 5.28677 29.0144 5.10025
709 2 2.2208 2.54138 28.8106 2.19345
9896 2 2.2208 -0.257717 43.1555 2.30015
816 1 -1.1104 12.3197 41.6216 6.76011
9894 2 2.2208 -0.403184 37.5502 2.27492
1050 2 2.2208 2.52326 23.3163 13.6374
9888 2 2.2208 -0.233272 26.0045 2.38847
719 1 -1.1104 6.63712 24.7379 1.21244
720 1 -1.1104 6.88557 24.8259 3.72518
723 1 -1.1104 6.7286 21.9804 4.20329
721 1 -1.1104 6.68813 21.9101 1.0962
722 1 -1.1104 6.57528 27.778 1.34812
724 1 -1.1104 6.72519 27.7149 4.05911
725 2 2.2208 11.0139 23.3831 5.35044
727 1 -1.1104 12.2472 24.7174 0.934696
728 1 -1.1104 12.3341 24.8374 3.90633
729 1 -1.1104 12.626 21.9348 1.044
731 2 2.2208 10.9322 26.0709 2.43161
732 1 -1.1104 12.3666 22.0304 3.8688
734 1 -1.1104 9.41012 24.6552 1.17397
735 2 2.2208 8.23359 23.3572 2.56762
737 1 -1.1104 9.54605 24.6236 4.00438
738 2 2.2208 8.1503 26.1337 5.20204
739 1 -1.1104 9.64646 21.9945 1.27703
740 1 -1.1104 9.29225 27.5826 1.21994
741 1 -1.1104 9.63619 21.8707 3.95644
730 1 -1.1104 12.3714 27.2857 0.950478
726 2 2.2208 10.9164 28.9237 5.05709
733 1 -1.1104 12.4783 27.6234 3.80263
736 2 2.2208 8.04953 29.1138 2.3241
742 1 -1.1104 9.68886 27.5529 3.72944
874 1 -1.1104 12.3765 27.5106 6.75361
873 1 -1.1104 12.4735 21.8515 6.75516
876 1 -1.1104 9.74247 21.9022 6.64677
837 1 -1.1104 12.2526 44.5802 12.1511
1010 2 2.2208 5.42947 43.0851 13.6578
984 2 2.2208 -0.294773 43.0989 8.00364
818 2 2.2208 -0.28979 40.3059 5.23609
747 1 -1.1104 1.07372 30.4163 0.896416
750 1 -1.1104 1.2103 30.3957 3.74709
753 1 -1.1104 1.29682 33.432 0.964415
754 2 2.2208 5.32478 31.965 2.44806
756 1 -1.1104 1.05335 33.2329 3.78083
758 1 -1.1104 3.96565 30.2468 0.81586
761 1 -1.1104 3.91728 30.4753 3.60671
763 2 2.2208 2.56377 31.8244 5.15457
765 1 -1.1104 3.86836 33.1556 1.04308
766 1 -1.1104 4.09911 33.086 4.09081
757 1 -1.1104 6.89667 33.1955 3.87696
746 2 2.2208 5.56307 34.6657 5.20155
748 1 -1.1104 1.3058 36.1593 0.940428
751 1 -1.1104 1.11866 36.0369 3.7786
755 2 2.2208 5.38482 37.5754 2.40323
759 1 -1.1104 4.11612 36.0162 0.952038
760 2 2.2208 2.51439 34.6943 2.40565
762 1 -1.1104 4.13304 35.967 3.82523
764 2 2.2208 2.65136 37.469 5.21494
771 1 -1.1104 6.58433 30.5002 3.69414
9768 2 2.2208 -0.295842 23.4344 10.7984
926 2 2.2208 -0.277297 37.5386 8.01905
985 2 2.2208 -0.315845 45.8402 10.7641
9893 2 2.2208 -0.135575 31.9279 2.40223
770 1 -1.1104 6.63883 30.61 0.988614
752 1 -1.1104 7.06057 35.9109 3.80725
749 1 -1.1104 6.90891 36.2656 0.911981
996 1 -1.1104 12.294 44.5148 9.35357
772 1 -1.1104 6.64208 33.3321 0.94827
774 1 -1.1104 12.1821 30.0782 1.24221
776 1 -1.1104 12.2331 30.2596 3.84006
778 1 -1.1104 12.257 33.1629 0.736869
779 2 2.2208 10.8856 31.6398 2.52421
781 1 -1.1104 12.437 33.1174 3.93957
782 1 -1.1104 9.45284 30.3929 0.97608
785 1 -1.1104 9.39001 30.2899 3.70783
787 2 2.2208 8.30477 31.8609 5.12406
789 1 -1.1104 9.36054 33.1347 1.05593
790 1 -1.1104 9.68554 33.2072 3.66851
773 2 2.2208 10.9318 34.7086 4.99032
775 1 -1.1104 12.4414 36.1536 0.85998
777 1 -1.1104 12.4723 36.0666 3.89472
780 2 2.2208 10.9639 37.5054 2.34883
783 1 -1.1104 9.69702 35.9656 1.0103