ITEM: TIMESTEP
40000
ITEM: NUMBER OF ATOMS
17910
ITEM: BOX BOUNDS pp pp pp
-4.0138890002348476e-01 2.7741388900023775e+01
-4.7703599234983907e+00 3.3285035992350282e+02
-4.1159735161909650e-01 2.7751597351619214e+01
ITEM: ATOMS id type q x y z
1 2 2.2208 5.29031 1.07508 5.15238
2 1 -1.1104 0.855394 -3.21133 1.01147
6 1 -1.1104 1.09699 -3.35918 3.84731
10 1 -1.1104 1.0067 -0.560677 0.905178
12 2 2.2208 5.22409 -1.84024 2.36711
14 1 -1.1104 0.988385 -0.439332 3.81707
16 1 -1.1104 3.77793 -3.37443 0.859928
18 2 2.2208 2.49631 0.973641 2.35165
19 1 -1.1104 3.82627 -3.32542 3.78005
21 2 2.2208 2.39657 -1.77914 5.11684
23 1 -1.1104 3.65021 -0.380603 1.02321
24 1 -1.1104 3.88293 -0.368516 3.68582
3 1 -1.1104 1.16846 2.33753 0.892012
7 1 -1.1104 0.940761 2.34466 3.82028
17 1 -1.1104 3.79423 2.36835 0.907559
20 1 -1.1104 3.81512 2.49717 3.63924
13 2 2.2208 5.18595 3.87483 2.14327
22 2 2.2208 2.19501 3.79849 5.24872
172 1 -1.1104 3.96927 -3.20322 6.54207
11 1 -1.1104 6.35614 -0.70171 0.861898
15 1 -1.1104 6.85293 -0.339761 3.86686
174 1 -1.1104 3.76596 -0.251046 6.6779
173 1 -1.1104 3.86134 2.33845 6.57257
167 1 -1.1104 0.86371 2.33912 6.57161
170 1 -1.1104 1.19574 -0.59838 6.64973
9 1 -1.1104 6.59182 2.5228 3.75497
169 1 -1.1104 6.80347 2.52915 6.64944
4 1 -1.1104 6.51508 -3.38473 0.894035
8 1 -1.1104 6.58495 -3.08092 3.68927
5 1 -1.1104 6.68196 2.3793 0.916398
8554 2 2.2208 13.7411 -4.71846 13.6457
168 1 -1.1104 6.64068 -3.44533 6.66997
171 1 -1.1104 6.4859 -0.457549 6.7162
8976 2 2.2208 -0.451444 17.743 5.13006
136 2 2.2208 13.7233 15.1505 10.7113
31 2 2.2208 10.7791 0.952244 5.13312
32 1 -1.1104 12.1744 -3.43067 0.893788
34 1 -1.1104 12.135 -3.36755 3.73297
36 1 -1.1104 12.0642 -0.53457 0.954917
37 2 2.2208 10.8212 -1.89901 2.32076
39 1 -1.1104 12.3256 -0.488896 3.73167
40 1 -1.1104 9.33682 -3.34577 0.996521
42 2 2.2208 8.10968 0.851782 2.29324
43 1 -1.1104 9.61245 -3.13865 4.02566
45 2 2.2208 7.95326 -1.87968 5.19397
47 1 -1.1104 9.26099 -0.579688 0.851781
48 1 -1.1104 9.61723 -0.342907 3.50916
33 1 -1.1104 12.2625 2.26743 0.789608
35 1 -1.1104 12.5002 2.31272 3.73862
41 1 -1.1104 9.48303 2.4119 0.909028
44 1 -1.1104 9.58137 2.18439 3.59083
46 2 2.2208 8.08943 3.76971 5.03786
38 2 2.2208 10.9839 3.8431 2.33833
207 1 -1.1104 12.0506 -0.439998 6.67116
413 2 2.2208 7.98986 0.742016 13.5729
205 1 -1.1104 12.2949 -3.4589 6.61466
206 1 -1.1104 12.4775 2.21368 6.52074
209 1 -1.1104 9.45059 2.49453 6.35692
208 1 -1.1104 9.38508 -3.35366 6.5096
210 1 -1.1104 9.54259 -0.428456 6.70358
50 2 2.2208 13.6451 -1.92461 4.97679
137 2 2.2208 13.5952 17.9103 7.94464
54 2 2.2208 5.13172 6.60086 4.93801
56 1 -1.1104 0.976459 7.95894 1.00998
58 1 -1.1104 0.965621 7.98225 3.81239
60 1 -1.1104 0.95801 5.07276 0.728437
67 1 -1.1104 0.821064 5.25889 3.67952
71 1 -1.1104 3.72993 7.98837 1.15631
72 2 2.2208 2.39746 6.56699 2.28332
74 1 -1.1104 3.8956 8.09975 3.76599
76 1 -1.1104 3.89236 5.09039 0.833677
79 1 -1.1104 3.68335 5.13756 3.51504
55 2 2.2208 5.07959 12.1221 5.1098
61 1 -1.1104 1.066 10.7231 1.06021
66 2 2.2208 5.30846 9.35351 2.335
68 1 -1.1104 0.946115 10.6799 3.77347
73 2 2.2208 2.38301 12.1905 2.32384
75 2 2.2208 2.35586 9.28341 5.19928
77 1 -1.1104 3.94108 10.7282 1.04276
80 1 -1.1104 3.66754 10.8616 3.76815
70 1 -1.1104 6.52972 10.7221 3.85328
69 1 -1.1104 6.50521 5.17669 3.64138
57 1 -1.1104 6.53444 7.7469 1.22945
78 1 -1.1104 3.69775 10.7698 6.69845
62 1 -1.1104 0.758232 10.8774 6.57475
234 1 -1.1104 1.08775 8.01901 6.63582
237 1 -1.1104 6.3651 5.21811 6.43672
63 1 -1.1104 6.8753 5.07859 0.902669
59 1 -1.1104 6.81238 7.98951 3.81962
65 1 -1.1104 6.49759 10.659 6.45549
235 1 -1.1104 6.68024 7.82616 6.4943
236 1 -1.1104 0.857309 5.18099 6.69329
105 2 2.2208 13.6835 6.56085 2.3162
64 1 -1.1104 6.78691 10.4484 0.993185
84 2 2.2208 11.0216 6.59727 5.10875
86 1 -1.1104 12.0814 8.00027 0.95262
87 1 -1.1104 12.2945 7.98907 3.6674
88 1 -1.1104 12.4661 5.00131 1.03181
92 1 -1.1104 12.376 5.14143 3.84017
94 1 -1.1104 9.37918 7.8992 0.929271
95 2 2.2208 8.1094 6.61807 2.44718
97 1 -1.1104 9.63727 8.01343 3.74984
99 1 -1.1104 9.55793 5.16124 0.964999
102 1 -1.1104 9.45911 5.06295 3.58452
85 2 2.2208 10.7804 12.2127 5.16724
89 1 -1.1104 12.3746 10.9424 0.918052
91 2 2.2208 10.8749 9.40631 2.42653
93 1 -1.1104 12.1036 10.6422 3.85345
96 2 2.2208 8.03196 12.0982 2.38318
98 2 2.2208 8.0608 9.27497 5.23142
100 1 -1.1104 9.67901 10.656 0.918017
103 1 -1.1104 9.4963 10.7581 3.8173
267 1 -1.1104 9.5808 8.12222 6.50091
101 1 -1.1104 9.24499 10.7845 6.67136
269 1 -1.1104 9.27823 5.41871 6.21583
266 1 -1.1104 12.1866 4.89758 6.47189
568 2 2.2208 13.6784 6.39966 13.6957
265 1 -1.1104 12.1911 7.93195 6.54145
90 1 -1.1104 12.3518 10.9216 6.47775
337 2 2.2208 -0.488965 3.76584 13.5419
107 1 -1.1104 1.0395 13.5188 0.914536
113 1 -1.1104 0.991684 13.5022 3.63184
123 1 -1.1104 3.77467 13.5515 1.06669
128 1 -1.1104 3.7796 13.7709 3.87277
106 2 2.2208 5.11923 17.8092 5.09294
109 1 -1.1104 1.11045 19.336 0.906412
114 1 -1.1104 1.10611 19.2313 3.56417
116 1 -1.1104 1.0663 16.4754 1.07894
119 2 2.2208 5.14358 15.1098 2.40118
120 2 2.2208 5.23249 20.6407 2.31182
121 1 -1.1104 0.925188 16.2417 3.76021
125 1 -1.1104 4.04099 19.2182 1.07765
127 2 2.2208 2.39472 17.709 2.32787
129 1 -1.1104 3.93256 19.2015 3.80804
130 2 2.2208 2.30682 14.9388 5.14764
131 2 2.2208 2.42896 20.6956 5.01973
132 1 -1.1104 3.95654 16.4764 0.849198
134 1 -1.1104 3.65125 16.5263 3.72244
110 1 -1.1104 6.69446 13.2603 1.03774
126 1 -1.1104 3.75462 19.2673 6.72239
117 1 -1.1104 0.890273 16.3072 6.58853
139 1 -1.1104 6.58 19.2205 3.71645
122 1 -1.1104 6.56238 16.3842 3.83731
302 1 -1.1104 1.06196 19.0384 6.38007
111 1 -1.1104 6.46732 13.4441 6.52104
118 1 -1.1104 6.42184 16.3575 6.53237
138 1 -1.1104 6.80731 19.0351 0.958828
140 1 -1.1104 6.61503 16.0663 1.10623
124 1 -1.1104 3.80093 13.5533 6.62492
133 1 -1.1104 3.64243 16.4124 6.42905
115 1 -1.1104 6.63862 13.5236 3.88043
112 1 -1.1104 6.71093 19.2281 6.3844
142 1 -1.1104 12.3781 13.6599 0.884116
146 1 -1.1104 12.2453 13.4224 3.77284
153 1 -1.1104 9.57896 13.4734 0.953132
158 1 -1.1104 9.46222 13.6007 3.85525
141 2 2.2208 10.8381 17.8273 5.11398
144 1 -1.1104 12.1102 19.2988 0.844763
147 1 -1.1104 12.2242 19.1168 3.55658
148 1 -1.1104 12.2705 16.4162 0.998722
150 2 2.2208 10.9247 14.8378 2.53833
151 2 2.2208 10.8095 20.4815 2.30502
152 1 -1.1104 12.2937 16.2447 3.78258
155 1 -1.1104 9.42021 19.0879 0.856272
157 2 2.2208 8.1529 17.7426 2.41578
159 1 -1.1104 9.35673 19.1566 3.56897
160 2 2.2208 7.92488 14.9452 5.23482
161 2 2.2208 8.10841 20.6338 4.97894
162 1 -1.1104 9.54862 16.2122 1.08238
164 1 -1.1104 9.41378 16.4768 3.84737
149 1 -1.1104 12.137 16.438 6.49958
145 1 -1.1104 12.3152 19.2218 6.50779
163 1 -1.1104 9.47426 16.4868 6.53304
30 2 2.2208 13.5843 9.25846 10.8773
8537 2 2.2208 13.6083 -4.82202 2.409
156 1 -1.1104 9.55373 19.2866 6.23755
154 1 -1.1104 9.24463 13.6521 6.66331
166 1 -1.1104 1.12656 -3.20942 6.58736
9251 2 2.2208 -0.464222 14.9006 13.7009
328 2 2.2208 2.31295 1.05361 13.5953
175 2 2.2208 5.20316 0.933288 10.8338
176 1 -1.1104 1.01265 -3.19606 12.3546
180 1 -1.1104 1.09926 -3.11318 9.50281
184 1 -1.1104 0.89406 -0.535885 12.2848
186 2 2.2208 5.06305 -1.86293 8.01404
188 1 -1.1104 0.901312 -0.339292 9.35512
190 1 -1.1104 3.77201 -3.24158 12.1075
192 2 2.2208 2.48166 0.919837 8.07254
193 1 -1.1104 3.66147 -3.31638 9.33782
195 2 2.2208 2.38096 -1.77119 10.8151
197 1 -1.1104 3.88724 -0.356068 12.256
198 1 -1.1104 3.75433 -0.53697 9.39514
177 1 -1.1104 1.04336 2.40783 12.1272
181 1 -1.1104 1.06752 2.32585 9.25665
191 1 -1.1104 3.92277 2.40436 12.1884
194 1 -1.1104 3.96028 2.22249 9.27049
196 2 2.2208 2.47365 3.86768 10.6877
187 2 2.2208 5.31292 3.69899 7.7528
178 1 -1.1104 6.70013 -3.22863 12.4096
183 1 -1.1104 6.74572 2.33302 9.38496
182 1 -1.1104 6.50033 -3.25802 9.35875
179 1 -1.1104 6.74147 2.30989 12.3345
189 1 -1.1104 6.5081 -0.495485 9.71815
185 1 -1.1104 6.59269 -0.602651 12.2958
329 2 2.2208 5.41922 3.70337 13.4924
51 2 2.2208 13.6487 12.1571 8.04455
538 2 2.2208 10.8182 14.9183 13.4895
230 2 2.2208 13.6834 -1.99391 10.8332
331 2 2.2208 2.35258 6.462 13.5729
476 2 2.2208 7.87794 6.53919 13.4972
211 2 2.2208 10.9733 0.743976 10.7133
212 1 -1.1104 12.2851 -3.2289 12.275
214 1 -1.1104 12.2924 -3.31614 9.29879
216 1 -1.1104 12.096 -0.557616 12.092
217 2 2.2208 10.8127 -2.08024 7.96455
219 1 -1.1104 12.4166 -0.464442 9.25455
220 1 -1.1104 9.37593 -3.36153 12.1502
222 2 2.2208 8.02846 0.884504 8.04553
223 1 -1.1104 9.47616 -3.58052 9.36104
225 2 2.2208 7.96551 -1.97204 10.8717
227 1 -1.1104 9.40651 -0.644904 12.3062
228 1 -1.1104 9.41006 -0.720572 9.43575
213 1 -1.1104 12.3037 2.19016 12.155
215 1 -1.1104 12.3428 2.12723 9.40421
218 2 2.2208 10.9493 3.6546 7.9467
221 1 -1.1104 9.47646 2.21697 11.977
224 1 -1.1104 9.47845 2.13957 9.3088
226 2 2.2208 8.06583 3.68989 10.6145
8538 2 2.2208 2.28934 -4.65648 8.02143
9108 2 2.2208 -0.229029 20.6326 2.2742
415 2 2.2208 10.7306 3.54306 13.5302
8539 2 2.2208 5.1615 -4.57609 10.7797
233 1 -1.1104 12.5891 16.4859 12.0429
239 1 -1.1104 3.67383 5.02777 6.47381
238 1 -1.1104 3.81083 7.81155 6.51203
52 2 2.2208 13.7435 6.4434 7.88182
332 2 2.2208 5.30262 9.28571 13.4314
240 2 2.2208 5.32986 6.49051 10.7227
242 1 -1.1104 0.956403 7.70054 12.4367
244 1 -1.1104 1.17015 7.8644 9.31555
246 1 -1.1104 0.927874 5.08763 12.1819
251 1 -1.1104 1.06767 4.99613 9.22669
255 1 -1.1104 3.77965 7.9088 12.2271
256 2 2.2208 2.50489 6.43751 7.90215
258 1 -1.1104 3.91762 7.94464 9.55579
260 1 -1.1104 3.83118 5.20352 12.0516
262 1 -1.1104 3.90985 5.18994 9.2805
241 2 2.2208 5.01173 12.1405 10.6512
247 1 -1.1104 1.0304 10.6753 12.2881
250 2 2.2208 5.12064 9.25723 7.95338
252 1 -1.1104 0.909126 10.6953 9.2581
257 2 2.2208 2.33268 12.2587 7.82846
259 2 2.2208 2.50445 9.37616 10.8804
261 1 -1.1104 3.70906 10.7518 12.1061
263 1 -1.1104 3.67274 10.8737 9.29061
245 1 -1.1104 6.68334 7.82374 9.23764
248 1 -1.1104 6.6631 5.07103 12.1166
249 1 -1.1104 6.7028 10.6896 12.1899
243 1 -1.1104 6.79737 7.92785 12.1162
254 1 -1.1104 6.61355 10.6114 9.21819
253 1 -1.1104 6.75021 4.92191 9.27789
8535 2 2.2208 8.06368 -4.5974 2.4489
8536 2 2.2208 10.8079 -4.75809 5.25425
8541 2 2.2208 7.96625 -4.72822 8.06301
8542 2 2.2208 10.9124 -4.59861 10.879
325 2 2.2208 10.6814 14.9714 8.06636
314 1 -1.1104 9.33376 16.3144 9.38433
268 1 -1.1104 9.24591 5.08708 9.13961
271 1 -1.1104 9.1901 5.07132 12.0623
273 1 -1.1104 9.49785 7.83314 9.26664
275 2 2.2208 7.9812 6.46891 7.78313
276 2 2.2208 10.7884 6.36961 10.6399
278 1 -1.1104 12.4971 7.80095 12.1899
279 1 -1.1104 12.247 7.79126 9.38749
280 1 -1.1104 12.1919 5.02379 12.3279
283 1 -1.1104 12.3119 4.88191 9.41072
285 1 -1.1104 9.75132 7.97104 12.0184
264 1 -1.1104 9.39747 10.6993 9.41346
270 1 -1.1104 9.37972 10.8841 12.1577
272 2 2.2208 8.12979 9.37135 10.7637
274 2 2.2208 7.95368 12.1867 7.86509
277 2 2.2208 10.7233 12.0812 10.8309
281 1 -1.1104 12.133 10.6978 12.2183
282 2 2.2208 10.7742 9.34204 7.97077
284 1 -1.1104 12.0775 10.871 9.44361
9210 2 2.2208 13.6842 20.5321 10.7082
451 2 2.2208 10.7161 9.38205 13.7134
108 1 -1.1104 0.879943 13.5149 6.5027
334 2 2.2208 5.24716 14.9284 13.6211
512 2 2.2208 5.2498 20.6263 13.5282
290 1 -1.1104 6.5542 13.4499 9.35697
296 1 -1.1104 6.45031 19.1919 12.0991
288 1 -1.1104 6.66671 19.2163 9.27904
287 1 -1.1104 3.64232 13.4283 12.1281
294 1 -1.1104 1.1778 13.4327 9.36111
299 1 -1.1104 1.03475 13.563 12.3134
305 1 -1.1104 3.78795 13.8236 9.32856
286 1 -1.1104 3.80052 18.9296 12.238
291 1 -1.1104 1.05351 19.2313 9.18212
292 1 -1.1104 0.940975 16.4639 9.42447
293 2 2.2208 5.34909 20.481 7.80013
295 2 2.2208 5.15404 14.9706 7.77177
298 1 -1.1104 1.03355 18.9321 12.1748
300 2 2.2208 5.24415 17.7554 10.7431
301 1 -1.1104 3.92721 19.3298 9.45067
303 2 2.2208 2.32509 17.8706 7.82286
304 1 -1.1104 3.82198 16.5829 9.28791
307 1 -1.1104 0.9219 16.2245 12.1929
308 1 -1.1104 3.65106 16.0126 12.1707
309 2 2.2208 2.44278 20.5676 10.7121
310 2 2.2208 2.36904 15.0615 10.8012
289 1 -1.1104 6.59036 16.364 9.03244
306 1 -1.1104 6.60114 16.4436 12.1104
297 1 -1.1104 6.38758 13.476 12.0867
450 2 2.2208 8.01639 12.2735 13.4891
311 2 2.2208 10.8149 17.8812 10.7906
143 1 -1.1104 12.1164 13.6466 6.43815
323 1 -1.1104 12.2694 16.4145 9.22479
320 2 2.2208 7.9988 17.7682 8.03385
200 2 2.2208 -0.348677 -1.86795 7.81905
319 1 -1.1104 9.387 13.6159 9.39853
315 1 -1.1104 9.40647 16.5717 12.3715
9025 2 2.2208 13.6489 20.8039 5.05212
231 1 -1.1104 12.3267 13.6311 9.27397
317 2 2.2208 7.91514 14.9408 10.6603
232 1 -1.1104 12.2037 19.2863 9.42531
324 2 2.2208 10.9501 20.675 8.00006
313 1 -1.1104 12.2735 19.2085 12.1206
316 2 2.2208 7.94756 20.6471 10.7151
8534 2 2.2208 -0.250327 -4.71998 5.17398
321 1 -1.1104 9.44384 19.345 12.1359
318 1 -1.1104 9.61312 19.1537 9.23146
322 1 -1.1104 9.3667 13.7432 12.2606
312 1 -1.1104 12.1157 13.6129 11.9459
539 2 2.2208 8.05384 17.9198 13.5631
572 2 2.2208 13.6363 0.926073 13.513
229 2 2.2208 13.8231 0.824744 7.81383
8949 2 2.2208 -0.411125 15.0336 8.07296
26 2 2.2208 -0.350532 0.903922 5.11608
165 2 2.2208 13.523 17.8557 2.25721
630 2 2.2208 2.33509 9.43847 -0.255861
8559 2 2.2208 2.33142 -4.65983 13.5889
569 2 2.2208 13.6856 12.0921 13.4426
335 2 2.2208 2.46772 17.7606 13.5042
333 2 2.2208 2.4622 12.2663 13.5563
537 2 2.2208 11.0243 20.6302 13.4436
655 2 2.2208 8.17124 9.45 -0.377974
595 2 2.2208 10.761 0.913614 -0.44362
658 2 2.2208 13.4634 9.36009 -0.289928
599 2 2.2208 13.6288 14.946 -0.335892
340 2 2.2208 5.26876 0.896038 16.4658
341 1 -1.1104 0.848079 -3.34378 17.9471
345 1 -1.1104 0.875801 -3.25868 15.1963
353 1 -1.1104 1.03939 -0.457604 17.9849
355 2 2.2208 5.19812 -1.89912 19.3019
357 1 -1.1104 0.966245 -0.49448 14.9817
361 1 -1.1104 3.68129 -3.55218 17.831
363 2 2.2208 2.36837 0.895783 19.2201
364 1 -1.1104 3.78125 -3.15247 14.962
368 2 2.2208 2.43398 -1.99611 16.4602
370 1 -1.1104 3.74611 -0.463283 17.9554
371 1 -1.1104 3.75069 -0.643895 15.091
342 1 -1.1104 0.985348 2.34251 17.667
347 1 -1.1104 1.04097 2.28189 15.0441
362 1 -1.1104 3.77545 2.37073 17.8059
366 1 -1.1104 3.75382 2.26661 15.0217
369 2 2.2208 2.54327 3.73346 16.2677
356 2 2.2208 5.14065 3.65969 19.2067
354 1 -1.1104 6.4924 -0.46066 17.8797
343 1 -1.1104 6.5057 -3.25164 17.8851
344 1 -1.1104 6.68932 2.16312 17.7855
349 1 -1.1104 6.56209 -3.43558 15.2633
359 1 -1.1104 6.67683 -0.475105 15.0361
365 1 -1.1104 3.83065 -3.19154 20.7532
372 1 -1.1104 3.81037 -0.401089 20.5879
346 1 -1.1104 0.998275 -3.1776 20.6322
360 1 -1.1104 6.46875 -0.587786 20.5653
367 1 -1.1104 3.84588 2.20015 20.5561
348 1 -1.1104 0.926701 2.32996 20.6118
358 1 -1.1104 0.837757 -0.472659 20.6817
350 1 -1.1104 6.49388 -3.48762 20.7463
8704 2 2.2208 10.6769 -4.69691 16.5763
351 1 -1.1104 6.43336 2.38663 15.199
411 2 2.2208 13.6214 -2.1322 16.5311
383 2 2.2208 10.8532 0.952876 16.3374
384 1 -1.1104 12.1152 -3.35254 17.9124
386 1 -1.1104 12.0772 -3.45693 15.136
390 1 -1.1104 12.2922 -0.811688 17.7709
391 2 2.2208 10.6521 -1.92412 19.2147
393 1 -1.1104 12.3266 -0.700143 15.073
395 1 -1.1104 9.3471 -3.4086 17.8433
397 2 2.2208 8.00704 0.861092 19.3374
398 1 -1.1104 9.23277 -3.43888 15.1034
402 2 2.2208 7.99472 -1.97413 16.4685
404 1 -1.1104 9.53366 -0.335523 17.8541
405 1 -1.1104 9.36633 -0.668666 15.1764
385 1 -1.1104 12.1621 2.27286 17.8007
388 1 -1.1104 12.3478 2.19147 14.9449
396 1 -1.1104 9.52441 2.29811 17.7284
400 1 -1.1104 9.50437 2.13726 15.0335
403 2 2.2208 7.92886 3.64236 16.4225
392 2 2.2208 10.9869 3.61012 19.1559
394 1 -1.1104 12.412 -0.476266 20.5789
406 1 -1.1104 9.43998 -0.672724 20.6635
401 1 -1.1104 9.45786 2.20686 20.5114
387 1 -1.1104 11.9503 -3.32921 20.855
399 1 -1.1104 9.26336 -3.51881 20.6371
8667 2 2.2208 7.91488 -4.83243 19.4118
9292 2 2.2208 13.6166 20.6133 27.6176
8707 2 2.2208 2.30299 -4.61714 19.2501
416 2 2.2208 5.22844 6.5016 16.4706
418 1 -1.1104 0.899267 8.04025 18.3569
420 1 -1.1104 0.930979 8.01983 15.4054
423 1 -1.1104 1.00307 5.1054 17.6856
428 1 -1.1104 1.10216 5.12035 15.0179
435 1 -1.1104 3.5721 7.93554 17.7452
436 2 2.2208 2.39755 6.47226 19.2587
438 1 -1.1104 3.73362 7.79363 14.8765
441 1 -1.1104 3.97641 5.15818 17.7478
443 1 -1.1104 3.99854 5.02508 14.9064
439 1 -1.1104 3.8 8.03733 20.5114
417 2 2.2208 5.27072 12.3328 16.319
424 1 -1.1104 0.841192 10.9192 18.3107
427 2 2.2208 5.28258 9.38469 19.263
430 1 -1.1104 1.20744 10.8537 15.3388
437 2 2.2208 2.56322 12.3811 19.3008
440 2 2.2208 2.61305 9.44758 16.4443
442 1 -1.1104 3.93081 10.7434 17.6356
445 1 -1.1104 3.86551 10.654 14.8175
419 1 -1.1104 6.52716 7.84209 17.9086
425 1 -1.1104 6.57084 5.0079 17.8633
431 1 -1.1104 6.77896 5.07029 14.9938
429 1 -1.1104 1.00726 5.23656 20.4538
433 1 -1.1104 6.54967 10.6739 14.8415
421 1 -1.1104 6.6835 7.84985 15.0092
446 1 -1.1104 3.98711 11.1035 20.3666
432 1 -1.1104 6.7229 4.89694 20.6504
426 1 -1.1104 6.71313 10.8254 17.7238
422 1 -1.1104 6.72277 7.74704 20.7109
444 1 -1.1104 3.70462 5.1469 20.7638
434 1 -1.1104 6.91668 10.667 20.6358
688 2 2.2208 -0.290722 20.617 24.8731
9337 2 2.2208 -0.325637 3.63201 19.2662
452 2 2.2208 10.9393 6.38533 16.5084
454 1 -1.1104 12.2342 7.82104 17.7575
455 1 -1.1104 12.1509 7.74383 14.9825
457 1 -1.1104 12.3575 5.13646 17.8308
460 1 -1.1104 12.3637 4.99529 15.0275
464 1 -1.1104 9.19485 7.79175 17.7528
465 2 2.2208 8.0025 6.44168 19.1836
467 1 -1.1104 9.38727 7.87375 14.7948
470 1 -1.1104 9.43453 4.93391 17.7738
472 1 -1.1104 9.47198 5.13965 14.8692
453 2 2.2208 10.7526 12.1712 16.5101
458 1 -1.1104 12.4385 10.588 17.8006
459 2 2.2208 10.7225 9.23413 19.1683
462 1 -1.1104 12.2524 10.5763 15.109
466 2 2.2208 8.13038 12.1507 19.2646
469 2 2.2208 7.97785 9.49866 16.3698
471 1 -1.1104 9.5888 10.6647 17.756
474 1 -1.1104 9.38365 10.9596 15.0255
475 1 -1.1104 9.47289 10.7409 20.769
473 1 -1.1104 9.49307 4.99643 20.7055
468 1 -1.1104 9.47551 7.82678 20.5
461 1 -1.1104 12.2175 5.19604 20.567
456 1 -1.1104 12.3438 8.02934 20.6359
575 2 2.2208 -0.489979 0.796638 22.0635
378 2 2.2208 8.11895 14.8644 27.6477
463 1 -1.1104 12.1846 10.6839 20.5559
478 1 -1.1104 1.05628 13.4847 17.9709
482 1 -1.1104 1.15225 13.665 15.1739
498 1 -1.1104 3.9056 13.7951 17.7876
501 1 -1.1104 3.91094 13.4276 14.9188
492 2 2.2208 5.35915 15.043 19.2581
477 2 2.2208 5.13971 17.7812 16.4576
479 1 -1.1104 1.1493 18.9588 17.8955
484 1 -1.1104 1.09678 19.0181 15.267
490 1 -1.1104 1.03852 16.2885 17.9666
493 2 2.2208 5.13878 20.4767 19.3464
494 1 -1.1104 1.00289 16.3399 15.1565
499 1 -1.1104 3.9581 19.2445 17.7288
500 2 2.2208 2.50809 17.6922 19.3722
503 1 -1.1104 3.92153 19.0963 14.8162
505 2 2.2208 2.47564 15.0752 16.4961
506 2 2.2208 2.3359 20.7464 16.3748
507 1 -1.1104 3.80208 16.5306 17.8784
508 1 -1.1104 3.85638 16.3425 14.9385
481 1 -1.1104 6.55643 19.2602 17.9287
491 1 -1.1104 6.53834 16.4041 17.7564
504 1 -1.1104 3.61924 19.2643 20.6967
485 1 -1.1104 0.920812 19.0348 20.7485
497 1 -1.1104 6.66511 16.4511 20.6362
480 1 -1.1104 6.70805 13.6894 17.8565
509 1 -1.1104 3.75648 16.4115 20.8679
486 1 -1.1104 6.77531 13.7002 14.9311
488 1 -1.1104 6.83254 19.2779 15.0306
487 1 -1.1104 6.73113 13.5367 20.7179
483 1 -1.1104 1.01222 13.4635 20.8645
502 1 -1.1104 3.91099 13.9269 20.7205
495 1 -1.1104 1.22023 16.3847 20.7541
489 1 -1.1104 6.61048 19.2191 20.7052
496 1 -1.1104 6.59926 16.5195 15.0407
654 2 2.2208 10.7932 6.40923 27.7423
631 2 2.2208 5.2307 12.1286 27.7288
514 1 -1.1104 12.3099 13.4802 17.7414
516 1 -1.1104 12.2169 13.3656 14.9539
525 1 -1.1104 9.34686 13.5384 18.0768
528 1 -1.1104 9.43337 13.6565 15.1278
521 2 2.2208 10.8094 14.8667 19.2273
513 2 2.2208 10.9468 17.8008 16.3793
515 1 -1.1104 12.0524 19.1401 17.8497
518 1 -1.1104 12.0684 19.1909 14.8814
520 1 -1.1104 12.389 16.4379 17.5987
522 2 2.2208 11.0089 20.5493 19.3223
523 1 -1.1104 12.4 16.2197 14.7591
526 1 -1.1104 9.40053 19.2574 17.9737
527 2 2.2208 8.07459 17.9231 19.1232
530 1 -1.1104 9.44373 19.1103 15.0803
532 2 2.2208 7.95327 15.0539 16.4353
533 2 2.2208 8.06979 20.5907 16.4885
534 1 -1.1104 9.56503 16.3895 17.8409
535 1 -1.1104 9.54544 16.3001 15.0898
517 1 -1.1104 12.2517 13.3746 20.716
529 1 -1.1104 9.53572 13.4716 20.7453
519 1 -1.1104 12.2228 19.1209 20.7622
524 1 -1.1104 12.0656 16.3303 20.4892
603 2 2.2208 13.5459 -2.03475 22.1676
536 1 -1.1104 9.49822 16.2944 20.6254
531 1 -1.1104 9.46664 19.1103 20.6405
352 1 -1.1104 6.49919 2.26074 20.6071
9410 2 2.2208 -0.383198 6.38899 16.5231
565 2 2.2208 5.21443 0.83505 27.7009
541 2 2.2208 5.19664 0.945696 21.9525
542 1 -1.1104 0.887828 -3.47129 23.3896
546 1 -1.1104 0.913457 -3.36112 26.2639
550 1 -1.1104 1.07391 -0.639662 23.5257
552 2 2.2208 5.26384 -2.03485 24.8478
554 1 -1.1104 1.02627 -0.478602 26.2618
556 1 -1.1104 3.75044 -3.52668 23.4198
558 2 2.2208 2.48506 0.910453 24.9232
559 1 -1.1104 3.76957 -3.47468 26.1605
561 2 2.2208 2.39463 -2.01689 21.9725
563 1 -1.1104 3.93562 -0.606849 23.3565
564 1 -1.1104 3.74516 -0.594528 26.4004
543 1 -1.1104 1.09289 2.01018 23.4463
547 1 -1.1104 1.00282 2.40041 26.2467
553 2 2.2208 5.26232 3.70578 24.9307
557 1 -1.1104 4.08517 2.31317 23.4445
560 1 -1.1104 3.79307 2.29645 26.3149
562 2 2.2208 2.58084 3.468 22.1189
555 1 -1.1104 6.73188 -0.514462 26.1915
549 1 -1.1104 6.43184 2.30337 26.3496
548 1 -1.1104 6.66582 -3.36888 26.2215
551 1 -1.1104 6.59225 -0.572604 23.3662
545 1 -1.1104 6.83396 2.27532 23.5636
544 1 -1.1104 6.67566 -3.37533 23.3802
691 1 -1.1104 9.42559 16.3843 23.5204
336 2 2.2208 2.47592 -1.96487 27.7547
574 2 2.2208 -0.339892 -2.02906 24.8052
690 1 -1.1104 9.61903 16.4822 26.4079
389 1 -1.1104 12.2928 2.44786 20.6822
633 2 2.2208 -0.257054 9.32171 24.8077
382 2 2.2208 10.7909 17.718 22.0367
597 2 2.2208 8.20149 3.86194 27.7537
381 2 2.2208 8.09854 20.6452 27.7302
511 2 2.2208 10.8277 15.1363 24.858
577 2 2.2208 10.7383 0.782606 21.9037
578 1 -1.1104 12.2858 -3.57193 23.568
580 1 -1.1104 12.1636 -3.49681 26.2194
582 1 -1.1104 12.1119 -0.644101 23.4729
583 2 2.2208 10.7228 -1.90315 25.0206
585 1 -1.1104 12.228 -0.607623 26.3264
586 1 -1.1104 9.36264 -3.32424 23.4677
588 2 2.2208 8.06652 0.930335 24.9302
589 1 -1.1104 9.51595 -3.57088 26.3204
591 2 2.2208 8.10701 -1.98565 22.1203
593 1 -1.1104 9.47405 -0.479479 23.4284
594 1 -1.1104 9.37787 -0.520154 26.1942
579 1 -1.1104 12.5076 2.32483 23.4732
581 1 -1.1104 12.1332 2.24692 26.2575
587 1 -1.1104 9.57442 2.35989 23.348
590 1 -1.1104 9.39583 2.31042 26.1674
592 2 2.2208 8.10666 3.64413 22.0263
584 2 2.2208 11.0402 3.73469 24.8965
570 1 -1.1104 12.314 16.2346 26.3241
380 2 2.2208 10.8586 17.7175 27.7014
598 2 2.2208 13.5997 3.70193 16.5395
573 1 -1.1104 9.46774 13.5394 23.5007
407 2 2.2208 13.6933 14.8291 16.4575
629 2 2.2208 5.38095 6.62735 27.4903
606 2 2.2208 5.2569 6.49005 22.206
608 1 -1.1104 0.781426 7.91242 23.449
610 1 -1.1104 0.952003 7.93672 26.288
612 1 -1.1104 0.963521 4.79581 23.1943
617 1 -1.1104 0.993195 5.14003 26.0065
621 1 -1.1104 3.91523 7.909 23.6595
622 2 2.2208 2.41006 6.60357 24.9247
624 1 -1.1104 3.76707 7.83982 26.4604
625 1 -1.1104 3.75048 5.1589 23.4923
627 1 -1.1104 3.89951 5.18827 26.1935
607 2 2.2208 5.34679 11.9793 22.2475
613 1 -1.1104 1.16745 10.9701 23.3249
616 2 2.2208 5.11633 9.37419 24.9331
618 1 -1.1104 1.08686 10.6723 26.3584
623 2 2.2208 2.50001 12.1595 24.9938
626 1 -1.1104 4.21112 11.0246 23.8564
628 1 -1.1104 3.6893 10.6883 26.5718
619 1 -1.1104 7.00055 5.37377 26.1803
614 1 -1.1104 6.60151 5.09175 23.4848
620 1 -1.1104 6.5767 10.8324 26.343
615 1 -1.1104 6.75298 10.7019 23.5121
684 2 2.2208 5.33255 17.925 27.7014
692 2 2.2208 7.97348 20.5918 22.0253
409 2 2.2208 13.6179 11.9671 19.3155
566 2 2.2208 10.8062 20.4812 24.8555
693 2 2.2208 8.16605 15.046 22.122
635 2 2.2208 -0.367054 6.51158 27.5769
609 1 -1.1104 6.73219 7.8279 23.3863
510 1 -1.1104 12.1991 16.3267 23.4138
601 2 2.2208 13.565 14.9527 21.9412
611 1 -1.1104 6.50128 8.13122 26.4699
683 2 2.2208 2.3784 20.708 27.5691
637 1 -1.1104 9.6192 5.10724 26.3266
639 1 -1.1104 9.57321 5.11825 23.5024
641 1 -1.1104 9.38822 8.01351 26.2238
643 2 2.2208 8.2525 6.61503 24.7867
644 2 2.2208 10.9243 6.60413 22.0659
646 1 -1.1104 12.2559 8.06998 23.3374
647 1 -1.1104 12.2118 7.98457 26.3025
648 1 -1.1104 12.3966 5.2303 23.5851
651 1 -1.1104 12.2545 5.1522 26.3601
653 1 -1.1104 9.46823 7.8986 23.3427
636 1 -1.1104 9.32778 10.6673 26.2032
638 1 -1.1104 9.52717 10.7627 23.4959
640 2 2.2208 8.14987 9.10545 21.9492
642 2 2.2208 8.08019 12.0436 24.843
645 2 2.2208 10.8512 12.2189 22.1196
649 1 -1.1104 12.4851 10.8662 23.3974
650 2 2.2208 10.9123 9.46196 24.9231
652 1 -1.1104 12.2134 10.8301 26.2598
412 2 2.2208 13.5813 9.26854 16.2435
408 1 -1.1104 12.439 13.5725 23.4235
685 2 2.2208 2.3878 14.9214 27.7793
571 2 2.2208 13.5873 0.68823 19.0092
687 1 -1.1104 9.47317 19.327 23.3838
667 1 -1.1104 6.59343 19.2192 23.5254
696 1 -1.1104 6.60261 19.2323 26.4184
661 1 -1.1104 6.55399 13.7192 26.4238
662 1 -1.1104 3.81674 13.6764 23.768
666 1 -1.1104 0.985907 13.6086 26.3773
672 1 -1.1104 0.99762 13.6398 23.6822
677 1 -1.1104 3.78104 13.5325 26.6042
660 1 -1.1104 3.89788 19.1977 23.5119
664 1 -1.1104 1.0729 19.3506 26.3764
665 1 -1.1104 0.980747 16.497 26.4798
668 2 2.2208 5.11784 20.7255 24.8091
669 2 2.2208 5.26306 15.0642 24.901
671 1 -1.1104 1.19531 19.0899 23.5238
673 2 2.2208 5.15082 17.7334 22.2939
674 1 -1.1104 3.87232 19.2741 26.362
675 2 2.2208 2.46712 17.7447 24.9758
676 1 -1.1104 3.9261 16.5543 26.3664
679 1 -1.1104 0.861163 16.3754 23.5474
680 1 -1.1104 3.75321 16.4592 23.7016
681 2 2.2208 2.44969 20.5661 22.1091
682 2 2.2208 2.4566 14.9668 22.321
663 1 -1.1104 6.85206 16.5547 26.2287
670 1 -1.1104 6.6007 13.6866 23.4934
678 1 -1.1104 6.69357 16.5359 23.4358
449 1 -1.1104 12.2793 19.1731 26.3194
694 1 -1.1104 9.46272 19.2407 26.236
448 1 -1.1104 12.3225 13.628 26.3265
697 2 2.2208 8.05196 17.9401 24.8477
567 2 2.2208 2.34024 3.71272 27.5446
447 1 -1.1104 12.4156 19.3365 23.5616
695 1 -1.1104 9.40459 13.5517 26.1792
327 2 2.2208 5.28171 -1.81989 13.6547
9479 2 2.2208 -0.313299 17.7825 16.62
377 2 2.2208 -0.410114 -1.89431 19.185
373 2 2.2208 -0.424529 6.43371 22.1685
600 2 2.2208 13.5434 17.7169 24.9415
338 2 2.2208 -0.30694 0.913293 27.6705
656 2 2.2208 10.8504 12.2187 27.7403
330 2 2.2208 -0.388633 9.10696 13.7679
602 2 2.2208 13.6257 -2.05009 27.5288
414 2 2.2208 10.7361 -2.0463 13.6498
9252 2 2.2208 -0.366834 20.525 13.7556
596 2 2.2208 7.92583 -2.0866 27.6486
698 2 2.2208 5.11263 23.5146 4.948
700 1 -1.1104 0.811176 24.7895 0.892209
701 1 -1.1104 1.21746 24.7465 3.77714
702 1 -1.1104 0.852063 22.1421 0.943564
703 1 -1.1104 1.04729 27.7785 0.964789
704 2 2.2208 5.33863 26.2804 2.45046
705 1 -1.1104 1.2382 22.1018 3.64788
707 1 -1.1104 3.81352 24.9265 0.866413
708 2 2.2208 2.45938 23.4354 2.23926
710 1 -1.1104 3.93701 25.0589 3.58143
711 2 2.2208 2.42107 26.2303 5.04797
712 1 -1.1104 3.68289 22.2425 0.858325
714 1 -1.1104 3.99836 22.0025 3.69721
715 1 -1.1104 3.84992 27.6231 3.8471
706 1 -1.1104 0.990704 27.554 3.79435
713 1 -1.1104 3.82799 27.8045 1.0772
699 2 2.2208 5.15535 29.029 5.09675
709 2 2.2208 2.28424 28.9533 2.47353
847 1 -1.1104 3.6649 27.5796 6.54201
719 1 -1.1104 6.73583 24.8231 0.957341
724 1 -1.1104 6.61133 27.5626 3.86927
846 1 -1.1104 3.9022 22.0579 6.34636
720 1 -1.1104 6.81873 24.8364 3.6405
843 1 -1.1104 6.70398 22.1428 6.3649
721 1 -1.1104 6.57313 21.9227 0.92936
723 1 -1.1104 6.57854 21.9931 3.60966
842 1 -1.1104 0.856069 27.7495 6.73726
716 2 2.2208 13.6487 43.1765 10.7363
839 1 -1.1104 1.04809 24.9182 6.67859
1001 2 2.2208 13.4854 45.9452 8.18036
722 1 -1.1104 6.67165 27.6859 1.05554
840 1 -1.1104 6.79175 24.7095 6.44272
844 1 -1.1104 6.64844 27.5918 6.60908
725 2 2.2208 11.0669 23.2829 5.09311
727 1 -1.1104 12.2204 25.0976 1.00065
728 1 -1.1104 12.2761 24.7759 3.74763
729 1 -1.1104 12.3406 21.8835 0.7772
731 2 2.2208 10.7705 26.4626 2.35436
732 1 -1.1104 12.2556 21.9186 3.64263
734 1 -1.1104 9.4917 24.8634 0.860549
735 2 2.2208 7.97756 23.3989 2.40721
737 1 -1.1104 9.63535 24.8542 3.72736
738 2 2.2208 8.12755 26.146 5.17011
739 1 -1.1104 9.58912 21.9939 1.0237
740 1 -1.1104 9.39885 27.6478 0.713569
741 1 -1.1104 9.46744 22.0374 3.64978
730 1 -1.1104 12.1111 27.9482 1.24892
726 2 2.2208 11.0471 29.0273 5.21505
733 1 -1.1104 12.4602 27.6236 4.0282
736 2 2.2208 8.12889 28.9902 2.37464
742 1 -1.1104 9.52525 27.7131 3.58267
876 1 -1.1104 9.68301 21.9638 6.49451
873 1 -1.1104 12.3054 22.087 6.6136
998 2 2.2208 13.6967 37.3941 10.8621
9766 2 2.2208 -0.39999 29.0495 10.983
875 1 -1.1104 9.5629 24.756 6.54383
874 1 -1.1104 12.401 27.662 6.71802
872 1 -1.1104 12.465 24.8576 6.58507
877 1 -1.1104 9.74703 27.5151 6.52572
747 1 -1.1104 0.932561 30.6116 1.02141
750 1 -1.1104 0.949821 30.5973 3.67858
753 1 -1.1104 1.01018 33.4629 1.08652
754 2 2.2208 5.28598 31.8507 2.48817
756 1 -1.1104 0.871004 33.3648 3.7127
758 1 -1.1104 3.80299 30.5172 0.878839
761 1 -1.1104 3.89832 30.5104 3.80668
763 2 2.2208 2.30149 31.9339 5.14085
765 1 -1.1104 3.85984 33.3493 1.07253
766 1 -1.1104 3.95218 33.2929 3.93508
746 2 2.2208 5.27177 34.6919 5.14972
748 1 -1.1104 1.1456 36.4022 0.884021
751 1 -1.1104 0.976375 36.0214 3.73613
755 2 2.2208 5.04706 37.5591 2.24629
759 1 -1.1104 3.80959 36.1692 0.881312
760 2 2.2208 2.38088 34.6642 2.4483
762 1 -1.1104 3.63207 36.0715 3.87091
764 2 2.2208 2.28239 37.6451 5.03526
752 1 -1.1104 6.53494 36.3494 3.54065
772 1 -1.1104 6.6801 33.3604 0.957141
900 1 -1.1104 0.859389 33.3732 6.50631
903 1 -1.1104 3.79509 35.9453 6.58669
898 1 -1.1104 6.5497 30.1178 6.52759
896 1 -1.1104 0.926166 30.5511 6.36707
899 1 -1.1104 6.63224 35.7972 6.54073
1007 2 2.2208 7.81663 34.8262 13.5058
902 1 -1.1104 3.83004 30.2827 6.80592
897 1 -1.1104 0.963462 36.2227 6.52057
770 1 -1.1104 6.79136 30.6496 1.00605
771 1 -1.1104 6.55754 30.343 3.77176
749 1 -1.1104 6.69064 36.0491 0.897696
757 1 -1.1104 6.72289 33.3038 4.10625
774 1 -1.1104 12.3066 30.3971 0.922655
776 1 -1.1104 12.3324 30.5811 3.73729
778 1 -1.1104 12.3898 33.349 1.12744
779 2 2.2208 10.8265 31.8798 2.25456
781 1 -1.1104 12.0693 33.286 3.76083
782 1 -1.1104 9.58939 30.4081 1.05753
785 1 -1.1104 9.49618 30.3288 3.84707
787 2 2.2208 8.01356 31.6071 5.2466
789 1 -1.1104 9.40289 33.244 0.729863
790 1 -1.1104 9.15298 33.0119 3.68651