ITEM: TIMESTEP
100000
ITEM: NUMBER OF ATOMS
17910
ITEM: BOX BOUNDS pp pp pp
-4.0818191601023962e-01 2.7748181916010704e+01
-4.8051154325612568e+00 3.3288511543257283e+02
-4.0745164250361077e-01 2.7747451642504185e+01
ITEM: ATOMS id type q x y z
1 2 2.2208 5.27217 0.88469 5.40905
2 1 -1.1104 0.911506 -3.53027 1.08089
6 1 -1.1104 1.14788 -3.30018 3.7912
10 1 -1.1104 0.836906 -0.857484 1.21222
12 2 2.2208 5.08252 -1.98595 2.52948
14 1 -1.1104 0.767697 -0.511331 3.93099
16 1 -1.1104 3.72685 -3.42719 1.11614
18 2 2.2208 2.39664 0.765388 2.30842
19 1 -1.1104 3.90381 -3.53373 3.7497
21 2 2.2208 2.43209 -1.86769 5.16083
23 1 -1.1104 3.6552 -0.65766 0.847773
24 1 -1.1104 3.57911 -0.730257 3.63051
104 2 2.2208 13.6471 12.0519 2.31276
4 1 -1.1104 6.54771 -3.37462 0.944454
8542 2 2.2208 10.7053 -4.70998 10.8216
15 1 -1.1104 6.45289 -0.650884 3.99305
233 1 -1.1104 12.4308 16.362 12.3115
174 1 -1.1104 3.97107 -0.456646 6.64791
172 1 -1.1104 3.91895 -3.30586 6.54301
166 1 -1.1104 1.14505 -3.35037 6.451
8534 2 2.2208 -0.348439 -4.76478 5.12232
11 1 -1.1104 6.56156 -0.696422 1.10491
8 1 -1.1104 6.58743 -3.14245 3.99225
31 2 2.2208 10.8523 0.865577 5.06443
32 1 -1.1104 12.3623 -3.29712 0.949888
34 1 -1.1104 12.1642 -3.30465 3.92402
36 1 -1.1104 12.3686 -0.478675 0.956768
37 2 2.2208 10.812 -1.92612 2.30162
39 1 -1.1104 12.076 -0.605694 3.74343
40 1 -1.1104 9.50309 -3.15511 0.982711
42 2 2.2208 7.9361 0.863933 2.34599
43 1 -1.1104 9.46506 -3.34265 3.98301
45 2 2.2208 8.0217 -1.89767 5.3339
47 1 -1.1104 9.42293 -0.474849 0.746625
48 1 -1.1104 9.33614 -0.633328 3.65817
208 1 -1.1104 9.57402 -3.31696 6.63294
205 1 -1.1104 12.283 -3.47387 6.70467
200 2 2.2208 -0.35534 -2.13068 7.91466
171 1 -1.1104 6.70563 -0.633994 6.76123
168 1 -1.1104 6.8429 -3.34346 6.81199
207 1 -1.1104 12.3382 -0.479071 6.54129
336 2 2.2208 2.26784 -2.15643 -0.360189
3 1 -1.1104 1.08645 2.13033 0.769202
7 1 -1.1104 0.900671 2.17343 3.64584
17 1 -1.1104 3.64526 2.084 1.08176
20 1 -1.1104 3.79761 2.1911 3.99936
22 2 2.2208 2.32896 3.65894 5.31582
13 2 2.2208 5.1203 3.61633 2.43986
5 1 -1.1104 6.73201 2.19292 1.00665
173 1 -1.1104 3.87197 2.3654 6.67939
9 1 -1.1104 6.583 2.28418 3.94207
54 2 2.2208 5.06681 6.38907 5.17859
56 1 -1.1104 0.858731 7.93406 1.01524
58 1 -1.1104 0.913797 7.95011 3.82594
60 1 -1.1104 0.7664 4.96277 0.950764
67 1 -1.1104 0.926348 4.95208 3.95474
71 1 -1.1104 3.50566 7.80641 0.850945
72 2 2.2208 2.20884 6.24325 2.2412
74 1 -1.1104 3.82109 7.52304 3.71803
76 1 -1.1104 3.74409 4.98043 1.05251
79 1 -1.1104 3.81808 4.92542 3.77455
236 1 -1.1104 0.77949 5.02526 6.62913
239 1 -1.1104 3.57079 4.98822 6.61148
63 1 -1.1104 6.67321 5.01066 1.02659
167 1 -1.1104 1.09192 2.15148 6.47125
238 1 -1.1104 3.71351 7.84394 6.69216
230 2 2.2208 13.6198 -2.04862 10.9094
8949 2 2.2208 -0.361754 15.0537 8.06474
33 1 -1.1104 12.3089 2.20926 0.874849
35 1 -1.1104 12.543 2.23915 3.61987
41 1 -1.1104 9.54171 2.39554 0.926474
44 1 -1.1104 9.36748 2.15585 3.77392
38 2 2.2208 10.8961 3.6202 2.39216
46 2 2.2208 8.0383 3.60668 5.26231
59 1 -1.1104 6.64251 7.81959 3.54003
57 1 -1.1104 6.29935 7.91326 0.818552
69 1 -1.1104 6.57703 5.03573 3.82707
84 2 2.2208 10.7474 6.44861 5.24447
86 1 -1.1104 12.1372 7.97004 0.943607
87 1 -1.1104 12.2508 7.7047 3.72099
88 1 -1.1104 12.3156 5.16451 1.05456
92 1 -1.1104 12.1317 4.79702 4.00928
94 1 -1.1104 9.28534 7.72437 0.933299
95 2 2.2208 8.12399 6.3415 2.40449
97 1 -1.1104 9.38586 7.93595 3.90817
99 1 -1.1104 9.56129 5.11431 1.05624
102 1 -1.1104 9.26922 4.90366 3.74149
267 1 -1.1104 9.18152 7.82808 6.66522
235 1 -1.1104 6.33171 8.07327 6.30928
169 1 -1.1104 6.6417 2.24869 6.66855
265 1 -1.1104 12.1891 7.90291 6.70755
55 2 2.2208 5.18854 12.1411 5.17183
61 1 -1.1104 0.816837 10.6061 0.923952
66 2 2.2208 5.01502 9.21966 2.36636
68 1 -1.1104 1.04717 10.8145 3.73472
73 2 2.2208 2.33116 11.8897 2.2336
75 2 2.2208 2.32078 9.24863 5.32442
77 1 -1.1104 3.59125 10.5179 0.974895
80 1 -1.1104 3.95437 10.6572 3.84938
64 1 -1.1104 6.35172 10.7472 1.17368
62 1 -1.1104 0.926597 10.4641 6.41844
107 1 -1.1104 0.947659 13.4917 0.952056
113 1 -1.1104 1.23924 13.6745 3.6234
123 1 -1.1104 3.71103 13.3114 0.986631
128 1 -1.1104 3.79802 13.2644 3.70767
110 1 -1.1104 6.40918 13.4647 1.15128
115 1 -1.1104 6.63844 13.6893 3.82035
315 1 -1.1104 9.63841 16.0949 12.3754
78 1 -1.1104 3.69148 10.8614 6.49092
124 1 -1.1104 3.84342 13.6066 6.62564
8541 2 2.2208 8.14779 -4.77365 8.0641
8538 2 2.2208 2.5136 -4.74519 8.10334
70 1 -1.1104 6.70618 10.8057 3.8689
85 2 2.2208 10.8805 12.0715 5.24819
89 1 -1.1104 12.3592 10.7658 0.823626
91 2 2.2208 10.8207 9.25791 2.42915
93 1 -1.1104 12.2395 10.6982 3.87727
96 2 2.2208 7.97675 12.1618 2.49159
98 2 2.2208 7.96227 9.19262 5.08479
100 1 -1.1104 9.34113 10.3715 0.799209
103 1 -1.1104 9.64017 10.7168 3.69484
142 1 -1.1104 12.2312 13.4346 1.04189
146 1 -1.1104 12.1205 13.5975 3.81391
153 1 -1.1104 9.2218 13.6184 1.04324
158 1 -1.1104 9.40787 13.3707 3.8924
111 1 -1.1104 6.81185 13.4925 6.58535
90 1 -1.1104 12.2296 10.5844 6.64313
65 1 -1.1104 6.52503 10.6943 6.4675
51 2 2.2208 13.5687 12.0171 8.1662
30 2 2.2208 13.6236 9.32699 10.9344
106 2 2.2208 5.2712 17.8819 5.2886
109 1 -1.1104 1.01132 18.9605 0.979887
114 1 -1.1104 1.04975 19.2318 3.82027
116 1 -1.1104 1.05539 16.1971 0.948133
119 2 2.2208 5.11643 15.0554 2.5029
120 2 2.2208 5.25856 20.5884 2.421
121 1 -1.1104 0.833957 16.3631 3.85608
125 1 -1.1104 3.81813 19.3234 1.04182
127 2 2.2208 2.27823 17.5684 2.46876
129 1 -1.1104 3.80053 19.1066 3.87886
130 2 2.2208 2.41851 14.952 5.19904
131 2 2.2208 2.43919 20.495 5.26948
132 1 -1.1104 3.81874 16.3442 0.755069
134 1 -1.1104 3.55282 16.3126 3.88369
138 1 -1.1104 6.54866 19.2258 1.13875
133 1 -1.1104 3.82886 16.2981 6.73159
112 1 -1.1104 6.5254 19.1711 6.55372
139 1 -1.1104 6.62687 19.1671 3.7213
140 1 -1.1104 6.58023 16.3909 1.14262
232 1 -1.1104 12.1708 19.2648 9.46725
118 1 -1.1104 6.65904 16.2727 6.70436
203 2 2.2208 13.4557 9.10359 5.22184
163 1 -1.1104 9.35705 16.4748 6.47374
156 1 -1.1104 9.38556 19.2935 6.58636
8533 2 2.2208 5.3525 -4.67256 5.25838
122 1 -1.1104 6.55639 16.4796 3.9874
141 2 2.2208 10.8943 17.8575 5.19973
144 1 -1.1104 12.0717 19.1693 1.06555
147 1 -1.1104 12.3698 19.2891 3.86665
148 1 -1.1104 12.1866 16.292 1.09809
150 2 2.2208 10.7916 14.9134 2.41738
151 2 2.2208 10.8475 20.5639 2.33122
152 1 -1.1104 12.182 16.4523 3.7402
155 1 -1.1104 9.42586 19.2401 0.944633
157 2 2.2208 8.04036 17.8077 2.40235
159 1 -1.1104 9.3676 19.1394 3.76449
160 2 2.2208 8.04105 15.0295 5.2271
161 2 2.2208 8.00212 20.5329 5.29388
162 1 -1.1104 9.45674 16.2385 0.919763
164 1 -1.1104 9.46991 16.4299 3.7328
149 1 -1.1104 12.3724 16.2824 6.48559
8535 2 2.2208 8.06429 -4.6433 2.50704
145 1 -1.1104 12.1945 19.327 6.71975
52 2 2.2208 13.651 6.35908 8.09087
170 1 -1.1104 0.997975 -0.439215 6.68468
378 2 2.2208 7.87503 14.8721 -0.262544
335 2 2.2208 2.37297 17.7384 13.5959
175 2 2.2208 5.19357 0.881283 10.8151
176 1 -1.1104 1.01539 -3.22115 11.9515
180 1 -1.1104 1.03677 -3.41276 9.21385
184 1 -1.1104 0.729837 -0.482428 12.1525
186 2 2.2208 5.14529 -1.88789 8.03061
188 1 -1.1104 0.698249 -0.557909 9.41939
190 1 -1.1104 3.82331 -3.40008 12.3866
192 2 2.2208 2.31452 0.96398 8.06917
193 1 -1.1104 3.78842 -3.38799 9.46706
195 2 2.2208 2.46845 -1.93355 10.7829
197 1 -1.1104 3.81932 -0.611467 12.1877
198 1 -1.1104 3.68439 -0.442437 9.44043
182 1 -1.1104 6.53607 -3.26457 9.66981
185 1 -1.1104 6.43353 -0.576098 12.3633
189 1 -1.1104 6.49846 -0.42985 9.63138
178 1 -1.1104 6.63227 -3.42697 12.3974
204 2 2.2208 13.6452 3.52833 5.22965
82 2 2.2208 -0.368294 9.36351 2.41031
476 2 2.2208 7.97475 6.46916 13.6608
8554 2 2.2208 13.6707 -4.63965 13.5977
8536 2 2.2208 10.9345 -4.7488 5.21394
202 2 2.2208 13.5497 14.7864 5.24117
210 1 -1.1104 9.31482 -0.458526 6.43729
211 2 2.2208 10.8224 0.758542 10.8665
212 1 -1.1104 12.104 -3.4794 12.3022
214 1 -1.1104 12.1943 -3.31428 9.52941
216 1 -1.1104 12.3628 -0.624231 12.1738
217 2 2.2208 10.8914 -1.91142 7.89929
219 1 -1.1104 12.0306 -0.455789 9.42505
220 1 -1.1104 9.3677 -3.28942 12.2915
222 2 2.2208 7.86136 0.834534 8.10373
223 1 -1.1104 9.44558 -3.41117 9.41302
225 2 2.2208 8.04113 -1.85004 10.8983
227 1 -1.1104 9.49647 -0.686486 12.315
228 1 -1.1104 9.27708 -0.565184 9.42031
81 2 2.2208 -0.390645 6.47243 5.2966
381 2 2.2208 7.96409 20.6122 -0.299301
316 2 2.2208 7.94001 20.5168 10.9671
631 2 2.2208 4.95822 11.9699 -0.381235
237 1 -1.1104 6.57935 5.13369 6.6208
177 1 -1.1104 0.926262 2.41894 12.1249
181 1 -1.1104 0.950663 2.49586 9.25956
191 1 -1.1104 3.7765 2.40465 12.2423
194 1 -1.1104 3.70784 2.32123 9.34943
196 2 2.2208 2.40328 3.74215 10.7042
187 2 2.2208 5.19424 3.70546 7.98418
183 1 -1.1104 6.49859 2.42977 9.30566
53 2 2.2208 13.6237 3.68555 10.7443
234 1 -1.1104 0.812742 7.82273 6.77008
240 2 2.2208 5.14986 6.50496 10.8095
242 1 -1.1104 0.906643 7.9324 12.2623
244 1 -1.1104 1.177 8.03516 9.50781
246 1 -1.1104 0.989583 5.07791 12.1068
251 1 -1.1104 0.981434 5.32708 9.36996
255 1 -1.1104 3.70651 7.87682 12.2193
256 2 2.2208 2.29798 6.56544 8.04237
258 1 -1.1104 3.7992 8.06112 9.25031
260 1 -1.1104 3.78896 5.16233 12.2987
262 1 -1.1104 3.77026 5.15024 9.43488
245 1 -1.1104 6.59397 7.94445 9.24345
311 2 2.2208 10.7705 17.6886 10.949
451 2 2.2208 10.7811 9.15486 13.5947
380 2 2.2208 10.8022 17.6965 -0.250257
266 1 -1.1104 12.1495 5.14726 6.61094
269 1 -1.1104 9.38802 5.02821 6.76387
209 1 -1.1104 9.37856 2.12727 6.66024
206 1 -1.1104 12.2259 2.29023 6.51979
179 1 -1.1104 6.57991 2.20883 12.1126
213 1 -1.1104 12.3472 2.20388 12.1753
215 1 -1.1104 12.2582 2.18226 9.25216
221 1 -1.1104 9.40565 2.1418 12.3274
224 1 -1.1104 9.44778 2.33892 9.53083
218 2 2.2208 10.8219 3.5882 7.95158
226 2 2.2208 7.99753 3.71078 10.6376
248 1 -1.1104 6.56806 5.01622 12.344
318 1 -1.1104 9.52143 19.1515 9.58185
243 1 -1.1104 6.61042 7.75545 12.1093
253 1 -1.1104 6.60435 5.21205 9.48242
268 1 -1.1104 9.3743 4.95058 9.5751
271 1 -1.1104 9.46769 5.10733 12.2157
273 1 -1.1104 9.47874 7.90228 9.35388
275 2 2.2208 8.09597 6.52676 8.09953
276 2 2.2208 10.8957 6.43271 10.8865
278 1 -1.1104 12.2207 7.68186 12.5051
279 1 -1.1104 12.3175 7.95105 9.42916
280 1 -1.1104 12.1653 4.91033 12.2436
283 1 -1.1104 12.3114 5.118 9.49264
285 1 -1.1104 9.42919 8.0905 12.075
654 2 2.2208 10.7769 6.37228 -0.361903
317 2 2.2208 8.15332 14.8959 10.8781
324 2 2.2208 10.8598 20.6454 8.12505
9170 2 2.2208 -0.373163 12.2301 10.9045
108 1 -1.1104 0.932311 13.506 6.55165
297 1 -1.1104 6.70588 13.3945 12.3729
290 1 -1.1104 6.81974 13.3991 9.53307
328 2 2.2208 2.2602 0.830012 13.6451
241 2 2.2208 5.06855 12.0575 10.7427
247 1 -1.1104 0.970929 10.7925 12.1525
250 2 2.2208 5.11385 9.35039 7.92822
252 1 -1.1104 0.921601 10.7605 9.45165
257 2 2.2208 2.23862 12.1679 7.91377
259 2 2.2208 2.372 9.35502 10.8208
261 1 -1.1104 3.86508 10.5943 12.2581
263 1 -1.1104 3.74414 10.7412 9.45296
254 1 -1.1104 6.72939 10.6532 9.29318
287 1 -1.1104 3.80982 13.4054 12.217
294 1 -1.1104 0.963981 13.4647 9.28222
299 1 -1.1104 1.09832 13.5063 12.2231
305 1 -1.1104 3.97143 13.4642 9.40982
326 2 2.2208 -0.392144 -1.87857 13.6678
322 1 -1.1104 9.5163 13.4879 12.3707
101 1 -1.1104 9.46536 10.8189 6.52964
143 1 -1.1104 12.1393 13.417 6.77126
154 1 -1.1104 9.44181 13.7504 6.62395
320 2 2.2208 8.09469 17.7421 8.00055
629 2 2.2208 5.22375 6.42072 -0.393328
249 1 -1.1104 6.57135 10.7269 12.333
264 1 -1.1104 9.32112 10.7054 9.39178
270 1 -1.1104 9.49299 10.6921 12.1373
272 2 2.2208 7.94271 9.38583 10.7383
274 2 2.2208 7.99165 12.1929 7.96223
277 2 2.2208 10.7941 12.0614 10.8483
281 1 -1.1104 12.2074 10.6653 12.2938
282 2 2.2208 10.7928 9.35827 7.93583
284 1 -1.1104 12.1834 10.7302 9.46161
312 1 -1.1104 12.3884 13.631 12.4694
231 1 -1.1104 12.3381 13.5554 9.47163
319 1 -1.1104 9.51497 13.576 9.43798
325 2 2.2208 10.843 14.941 8.02339
296 1 -1.1104 6.72015 19.2418 12.189
117 1 -1.1104 0.900853 16.2554 6.70163
126 1 -1.1104 3.81907 19.232 6.80464
314 1 -1.1104 9.52698 16.3866 9.40846
288 1 -1.1104 6.80119 19.2199 9.49001
302 1 -1.1104 1.10423 19.0638 6.67315
286 1 -1.1104 3.75892 19.1295 12.1493
291 1 -1.1104 0.940089 18.9783 9.34646
292 1 -1.1104 0.858235 16.2336 9.60075
293 2 2.2208 5.27276 20.4444 8.13656
295 2 2.2208 5.33385 15.0143 8.03229
298 1 -1.1104 0.924682 19.1292 12.4028
300 2 2.2208 5.26403 17.6304 10.9446
301 1 -1.1104 3.96323 19.1527 9.51995
303 2 2.2208 2.38478 17.6833 7.94139
304 1 -1.1104 3.75771 16.3669 9.45827
307 1 -1.1104 1.10625 16.109 12.2399
308 1 -1.1104 3.88797 16.3167 12.219
309 2 2.2208 2.43022 20.6177 10.9326
310 2 2.2208 2.41563 14.9529 10.8031
323 1 -1.1104 12.319 16.5019 9.44616
306 1 -1.1104 6.84046 16.3344 12.1615
289 1 -1.1104 6.56451 16.1492 9.44523
332 2 2.2208 5.18565 9.20979 13.4422
321 1 -1.1104 9.47285 19.1023 12.367
313 1 -1.1104 12.2022 19.178 12.312
105 2 2.2208 13.6547 6.51277 2.26324
9025 2 2.2208 13.5209 20.6329 5.21529
165 2 2.2208 13.5375 17.6269 2.37625
9108 2 2.2208 -0.310117 20.451 2.35428
450 2 2.2208 8.11945 12.1099 13.6077
414 2 2.2208 10.7391 -1.99465 13.6036
683 2 2.2208 2.46559 20.7396 -0.401564
537 2 2.2208 10.7506 20.5895 13.666
595 2 2.2208 10.8719 0.728701 -0.354312
415 2 2.2208 10.7683 3.59286 13.5679
340 2 2.2208 5.09295 0.917152 16.4428
341 1 -1.1104 1.04271 -3.25122 17.6575
345 1 -1.1104 0.962192 -3.43358 14.8704
353 1 -1.1104 1.05626 -0.369362 17.767
355 2 2.2208 5.1267 -2.03859 19.2294
357 1 -1.1104 0.946703 -0.582672 15.1053
361 1 -1.1104 3.78376 -3.39693 17.8781
363 2 2.2208 2.44442 0.906465 19.1933
364 1 -1.1104 3.72739 -3.47734 15.2336
368 2 2.2208 2.42788 -1.96075 16.4333
370 1 -1.1104 3.81047 -0.631384 17.6725
371 1 -1.1104 3.72106 -0.50354 14.8876
343 1 -1.1104 6.56078 -3.5259 18.0772
349 1 -1.1104 6.71355 -3.39374 15.2701
358 1 -1.1104 0.959224 -0.73 20.6505
346 1 -1.1104 0.903501 -3.56159 20.5786
360 1 -1.1104 6.59617 -0.462657 20.7053
409 2 2.2208 13.5498 12.1244 19.4286
596 2 2.2208 8.04294 -2.14934 27.5902
359 1 -1.1104 6.55865 -0.718843 15.0914
354 1 -1.1104 6.69023 -0.730752 17.9998
383 2 2.2208 10.9352 0.747991 16.529
384 1 -1.1104 12.2667 -3.50112 17.9352
386 1 -1.1104 12.2575 -3.41721 15.0963
390 1 -1.1104 12.3092 -0.500396 17.9054
391 2 2.2208 10.8521 -1.90811 19.2543
393 1 -1.1104 12.3164 -0.612533 14.9348
395 1 -1.1104 9.48587 -3.51328 18.0583
397 2 2.2208 7.99654 0.781912 19.3057
398 1 -1.1104 9.41363 -3.1878 15.3469
402 2 2.2208 8.02279 -1.95112 16.5827
404 1 -1.1104 9.53472 -0.473441 17.9856
405 1 -1.1104 9.3727 -0.587068 15.0258
387 1 -1.1104 12.3008 -3.23563 20.6586
394 1 -1.1104 12.2707 -0.369293 20.6312
406 1 -1.1104 9.43837 -0.670343 20.6584
399 1 -1.1104 9.38544 -3.33698 20.8102
8555 2 2.2208 8.09899 -4.7543 13.7942
342 1 -1.1104 0.867052 2.38468 17.7239
347 1 -1.1104 0.885987 2.30266 15.0816
362 1 -1.1104 3.87641 2.24582 17.7107
366 1 -1.1104 3.48569 2.3528 14.9921
356 2 2.2208 5.12564 3.69096 19.3296
369 2 2.2208 2.29599 3.7428 16.4378
348 1 -1.1104 0.907019 2.37208 20.6424
416 2 2.2208 5.26285 6.46685 16.4351
418 1 -1.1104 1.11309 7.8975 18.5108
420 1 -1.1104 0.816922 7.7992 15.4554
423 1 -1.1104 0.998214 5.12406 17.8923
428 1 -1.1104 0.842103 5.16503 14.9748
435 1 -1.1104 3.83323 7.75232 17.6706
436 2 2.2208 2.58581 6.20846 19.1867
438 1 -1.1104 3.48731 8.02878 15.0298
441 1 -1.1104 3.73024 5.00946 17.7582
443 1 -1.1104 3.71108 5.28405 14.9965
431 1 -1.1104 6.74341 4.78592 15.148
439 1 -1.1104 3.71629 7.67429 20.5004
367 1 -1.1104 3.67809 2.23661 20.398
352 1 -1.1104 6.52973 2.42811 20.7954
600 2 2.2208 13.6013 17.743 24.9465
351 1 -1.1104 6.24565 2.12317 14.9742
344 1 -1.1104 6.49831 2.30465 17.8714
385 1 -1.1104 12.1417 2.35741 17.8403
388 1 -1.1104 12.2844 2.4178 15.0287
396 1 -1.1104 9.50245 2.19271 17.8581
400 1 -1.1104 9.30861 2.09388 15.0705
403 2 2.2208 8.11768 3.63486 16.5952
392 2 2.2208 10.7229 3.68618 19.2312
401 1 -1.1104 9.34584 2.13758 20.6691
421 1 -1.1104 6.47922 7.79508 14.9003
419 1 -1.1104 6.76683 7.78605 17.7198
425 1 -1.1104 6.43912 5.04447 17.9205
452 2 2.2208 10.7935 6.50452 16.562
454 1 -1.1104 12.3413 7.72234 18.0333
455 1 -1.1104 12.3301 7.84619 15.1992
457 1 -1.1104 12.2597 4.98725 18.0521
460 1 -1.1104 12.171 5.02741 15.1596
464 1 -1.1104 9.65476 7.96151 17.8608
465 2 2.2208 7.96786 6.49836 19.2612
467 1 -1.1104 9.30018 7.85114 14.9151
470 1 -1.1104 9.35892 5.08225 17.845
472 1 -1.1104 9.40615 5.11898 14.9214
468 1 -1.1104 9.32455 7.92042 20.5834
422 1 -1.1104 6.39183 7.88381 20.4983
473 1 -1.1104 9.33459 5.18366 20.4376
432 1 -1.1104 6.51109 5.14057 20.6886
456 1 -1.1104 12.1109 7.9349 20.6193
417 2 2.2208 5.19589 12.1901 16.5745
424 1 -1.1104 1.00572 10.7309 18.0321
427 2 2.2208 5.21759 9.20093 19.242
430 1 -1.1104 1.09561 10.7188 15.0137
437 2 2.2208 2.50742 12.1007 19.2741
440 2 2.2208 2.41856 9.4033 16.6933
442 1 -1.1104 3.79514 10.6809 17.8578
445 1 -1.1104 3.87418 10.7295 15.1166
446 1 -1.1104 4.04866 10.7791 20.5694
426 1 -1.1104 6.58305 10.5061 17.9526
512 2 2.2208 5.27278 20.53 13.6895
478 1 -1.1104 0.921226 13.555 17.9434
482 1 -1.1104 1.07048 13.5746 15.0452
498 1 -1.1104 3.64864 13.5569 17.8742
501 1 -1.1104 3.81933 13.5337 14.9773
480 1 -1.1104 6.46239 13.5813 17.9535
486 1 -1.1104 6.4425 13.7537 15.1728
502 1 -1.1104 3.74362 13.7352 20.633
574 2 2.2208 -0.403294 -2.13031 24.9395
433 1 -1.1104 6.87056 10.8164 15.0611
453 2 2.2208 10.7949 12.1373 16.5375
458 1 -1.1104 12.2123 10.6173 17.8838
459 2 2.2208 10.8846 9.30249 19.3132
462 1 -1.1104 12.2055 10.6946 15.1394
466 2 2.2208 7.91048 12.0394 19.3326
469 2 2.2208 8.03632 9.22003 16.5298
471 1 -1.1104 9.28572 10.6166 18.0368
474 1 -1.1104 9.6872 10.787 15.0795
475 1 -1.1104 9.41793 10.5767 20.7917
434 1 -1.1104 6.74181 10.5413 20.6482
487 1 -1.1104 6.56416 13.5243 20.7784
514 1 -1.1104 12.0774 13.3804 18.1568
516 1 -1.1104 11.9908 13.5761 15.4101
525 1 -1.1104 9.23166 13.5402 18.0552
528 1 -1.1104 9.2777 13.6089 15.1047
334 2 2.2208 5.16842 14.9536 13.7101
630 2 2.2208 2.2712 9.03606 27.6705
492 2 2.2208 5.28321 15.1406 19.3761
477 2 2.2208 5.23613 17.8025 16.4786
479 1 -1.1104 1.04134 18.9841 17.8777
484 1 -1.1104 0.969646 19.2463 15.0092
490 1 -1.1104 0.964879 16.3371 17.8796
493 2 2.2208 5.2594 20.5611 19.3187
494 1 -1.1104 1.08973 16.3575 15.06
499 1 -1.1104 3.88784 19.3694 17.748
500 2 2.2208 2.33967 17.6381 19.2999
503 1 -1.1104 3.88508 19.1792 15.0041
505 2 2.2208 2.44043 14.996 16.4718
506 2 2.2208 2.32136 20.5979 16.5502
507 1 -1.1104 3.9526 16.46 17.9364
508 1 -1.1104 3.78937 16.3733 15.0627
488 1 -1.1104 6.52396 19.088 15.1918
485 1 -1.1104 0.867615 19.1305 20.6005
491 1 -1.1104 6.54046 16.4582 17.8036
495 1 -1.1104 1.06206 16.2032 20.5968
489 1 -1.1104 6.57955 19.113 20.6571
481 1 -1.1104 6.55366 19.226 17.8675
496 1 -1.1104 6.68004 16.3322 15.0468
374 2 2.2208 13.6007 9.33972 22.1619
663 1 -1.1104 6.64539 16.3955 26.3433
8634 2 2.2208 2.3874 -4.71434 24.9469
567 2 2.2208 2.42673 3.54374 27.6396
540 2 2.2208 13.6153 17.9335 13.6885
521 2 2.2208 10.6967 14.9479 19.4483
513 2 2.2208 10.8761 17.6949 16.5679
515 1 -1.1104 12.0919 19.1222 17.9019
518 1 -1.1104 12.1208 19.2185 15.1227
520 1 -1.1104 12.2241 16.1574 17.8405
522 2 2.2208 10.9404 20.5823 19.4206
523 1 -1.1104 12.6805 16.3399 15.0784
526 1 -1.1104 9.42696 19.1751 18.0496
527 2 2.2208 7.98892 17.8546 19.3869
530 1 -1.1104 9.25871 19.0498 15.1445
532 2 2.2208 8.03942 15.0116 16.5281
533 2 2.2208 8.06264 20.606 16.5396
534 1 -1.1104 9.32102 16.3094 17.9928
535 1 -1.1104 9.63051 16.4121 15.1791
531 1 -1.1104 9.23301 19.2467 20.8564
519 1 -1.1104 12.2155 18.9338 20.7589
539 2 2.2208 8.10014 17.6091 13.8546
8707 2 2.2208 2.47825 -4.65173 19.2116
365 1 -1.1104 3.91283 -3.19113 20.7584
8667 2 2.2208 8.05866 -4.79032 19.3916
379 2 2.2208 13.6105 17.6926 19.2978
372 1 -1.1104 3.96288 -0.440618 20.6221
541 2 2.2208 5.2498 0.865134 22.083
542 1 -1.1104 1.15594 -3.40153 23.4436
546 1 -1.1104 0.918158 -3.53514 26.3927
550 1 -1.1104 0.787202 -0.70834 23.5185
552 2 2.2208 5.3494 -2.10741 25.0125
554 1 -1.1104 0.868293 -0.66425 26.3733
556 1 -1.1104 3.83521 -3.2384 23.6159
558 2 2.2208 2.33924 0.809244 24.9953
559 1 -1.1104 3.77524 -3.23828 26.2887
561 2 2.2208 2.51001 -1.92456 22.1995
563 1 -1.1104 3.66249 -0.351918 23.5494
564 1 -1.1104 3.6792 -0.612988 26.1131
350 1 -1.1104 6.60812 -3.40657 20.7211
551 1 -1.1104 6.5737 -0.897923 23.4382
548 1 -1.1104 6.57973 -3.40328 26.3791
555 1 -1.1104 6.6142 -0.712961 26.3562
524 1 -1.1104 12.2028 16.1357 20.6014
9293 2 2.2208 13.6112 20.6308 22.1321
544 1 -1.1104 6.76231 -3.46347 23.5745
577 2 2.2208 10.7704 0.722246 22.0751
578 1 -1.1104 12.5055 -3.61011 23.4659
580 1 -1.1104 12.2647 -3.25778 26.2928
582 1 -1.1104 12.1537 -0.496024 23.4366
583 2 2.2208 10.7957 -2.04615 24.8989
585 1 -1.1104 12.2722 -0.570006 26.2224
586 1 -1.1104 9.48234 -3.48947 23.6487
588 2 2.2208 7.97889 0.682512 24.8648
589 1 -1.1104 9.49151 -3.58463 26.3927
591 2 2.2208 8.03325 -2.01545 22.0235
593 1 -1.1104 9.32409 -0.67808 23.5404
594 1 -1.1104 9.42593 -0.748627 26.1585
9439 2 2.2208 13.5184 20.6928 16.548
690 1 -1.1104 9.32107 16.2822 26.4393
678 1 -1.1104 6.77954 16.4834 23.5858
444 1 -1.1104 3.82154 4.89293 20.7892
429 1 -1.1104 0.887002 5.28837 20.7289
543 1 -1.1104 0.98379 2.07439 23.3988
547 1 -1.1104 1.02851 2.18683 26.3254
557 1 -1.1104 3.94988 2.38936 23.2332
560 1 -1.1104 3.91234 2.08224 26.4137
553 2 2.2208 5.45874 3.60553 24.9726
562 2 2.2208 2.42517 3.61122 22.0121
549 1 -1.1104 6.72192 2.14659 26.3742
606 2 2.2208 5.04419 6.61119 22.1636
608 1 -1.1104 0.692798 7.56923 23.4353
610 1 -1.1104 0.825327 7.76697 26.0751
612 1 -1.1104 0.916137 4.69159 23.3831
617 1 -1.1104 1.05887 5.05173 26.2754
621 1 -1.1104 3.77289 7.90091 23.5987
622 2 2.2208 2.49614 6.4418 24.9102
624 1 -1.1104 3.80279 7.76466 26.3659
625 1 -1.1104 3.88795 5.06848 23.5644
627 1 -1.1104 3.9814 4.90136 26.294
536 1 -1.1104 9.35514 16.5077 20.8424
571 2 2.2208 13.5939 0.894178 19.4876
461 1 -1.1104 12.2387 5.091 20.7541
545 1 -1.1104 6.58872 2.14352 23.5375
389 1 -1.1104 12.12 2.22622 20.778
579 1 -1.1104 12.2192 2.37909 23.2532
581 1 -1.1104 12.5049 2.00635 26.2093
587 1 -1.1104 9.21277 2.36441 23.3989
590 1 -1.1104 9.61943 1.97462 26.1666
584 2 2.2208 10.7914 3.52966 24.7667
592 2 2.2208 8.07093 3.61632 21.9462
619 1 -1.1104 6.76608 4.9184 26.5515
447 1 -1.1104 12.1822 19.1705 23.6385
684 2 2.2208 5.25384 17.7745 27.7645
614 1 -1.1104 6.7192 4.98882 23.552
611 1 -1.1104 6.69034 7.75834 26.2189
609 1 -1.1104 6.65188 7.79986 23.4007
637 1 -1.1104 9.46892 4.79448 26.2157
639 1 -1.1104 9.53168 4.9965 23.3104
641 1 -1.1104 9.62475 7.53213 26.2679
643 2 2.2208 8.08033 6.3477 24.7591
644 2 2.2208 10.9034 6.55983 22.0465
646 1 -1.1104 12.2159 7.90112 23.4218
647 1 -1.1104 12.2968 7.91829 26.3269
648 1 -1.1104 12.4016 5.12421 23.611
651 1 -1.1104 12.2441 4.91392 26.369
653 1 -1.1104 9.45733 7.73108 23.4189
407 2 2.2208 13.5945 15.0747 16.5758
382 2 2.2208 10.7945 17.8365 22.3529
511 2 2.2208 10.8823 14.8503 25.1536
449 1 -1.1104 12.398 19.1769 26.4165
483 1 -1.1104 0.975916 13.0009 20.7968
670 1 -1.1104 6.63366 13.5379 23.6587
413 2 2.2208 7.95265 0.731936 13.7027
607 2 2.2208 5.30025 12.0323 22.0983
613 1 -1.1104 0.841943 10.9918 23.5241
616 2 2.2208 5.16469 9.3676 24.9397
618 1 -1.1104 0.865717 10.6955 26.2618
623 2 2.2208 2.26325 12.0124 24.8564
626 1 -1.1104 4.0976 10.7902 23.732
628 1 -1.1104 3.61496 10.6186 26.5133
615 1 -1.1104 6.81227 10.5983 23.618
667 1 -1.1104 6.64212 19.1998 23.5247
662 1 -1.1104 3.76444 13.5679 23.4763
666 1 -1.1104 0.950813 13.4588 26.1643
672 1 -1.1104 0.923602 13.8734 23.4282
677 1 -1.1104 3.60263 13.4429 26.3801
408 1 -1.1104 12.5044 13.4043 23.7248
463 1 -1.1104 12.1224 10.7059 20.8766
695 1 -1.1104 9.27039 13.4726 26.461
517 1 -1.1104 12.191 13.452 20.9898
448 1 -1.1104 12.3721 13.5922 26.3667
661 1 -1.1104 6.4309 13.5049 26.3745
573 1 -1.1104 9.66546 13.5738 23.7516
620 1 -1.1104 6.5382 10.5398 26.3635
636 1 -1.1104 9.37476 10.795 26.353
638 1 -1.1104 9.37684 10.6568 23.5782
640 2 2.2208 8.15414 9.26705 22.1331
642 2 2.2208 7.82223 12.0486 25.1032
645 2 2.2208 10.8077 12.1315 22.3143
649 1 -1.1104 12.2008 10.6848 23.4833
650 2 2.2208 10.8155 9.18408 24.9302
652 1 -1.1104 12.1698 10.7017 26.356
412 2 2.2208 13.5761 9.10706 16.6251
529 1 -1.1104 9.39817 13.7042 20.8282
696 1 -1.1104 6.7158 19.3084 26.3919
504 1 -1.1104 3.74678 19.4059 20.6823
497 1 -1.1104 6.68184 16.2387 20.5745
685 2 2.2208 2.36255 14.8383 27.5953
509 1 -1.1104 4.01945 16.5352 20.7624
660 1 -1.1104 3.77222 19.102 23.4266
664 1 -1.1104 1.10614 19.3311 26.2406
665 1 -1.1104 0.998644 16.338 26.2476
668 2 2.2208 5.28448 20.5881 25.0764
669 2 2.2208 5.23239 14.9477 24.7745
671 1 -1.1104 1.0187 19.259 23.5464
673 2 2.2208 5.34449 17.7899 22.1353
674 1 -1.1104 3.86324 19.1325 26.373
675 2 2.2208 2.50789 17.7874 24.9043
676 1 -1.1104 4.0017 16.3011 26.2463
679 1 -1.1104 1.08956 16.4526 23.5623
680 1 -1.1104 3.94368 16.3764 23.2411
681 2 2.2208 2.41642 20.5668 22.0562
682 2 2.2208 2.44999 14.9931 22.0788
570 1 -1.1104 12.2455 16.2632 26.5011
697 2 2.2208 8.009 17.8691 25.058
692 2 2.2208 7.94055 20.8276 22.2759
687 1 -1.1104 9.35327 19.4649 23.6784
693 2 2.2208 8.131 14.9196 22.2613
566 2 2.2208 10.9828 20.5251 25.1429
691 1 -1.1104 9.71696 16.6073 23.7129
510 1 -1.1104 12.488 16.1953 23.8001
694 1 -1.1104 9.47686 19.2996 26.515
569 2 2.2208 13.5821 11.9983 13.8553
597 2 2.2208 8.017 3.62067 27.6998
9479 2 2.2208 -0.314609 17.8129 16.4416
689 2 2.2208 -0.334171 17.786 22.02
688 2 2.2208 -0.418623 20.5366 24.8989
375 2 2.2208 13.6052 3.69609 22.0402
410 2 2.2208 13.6465 6.39663 19.3078
330 2 2.2208 -0.389028 9.31091 13.7078
329 2 2.2208 5.12466 3.54804 13.6846
333 2 2.2208 2.53817 12.0893 13.6866
655 2 2.2208 8.01599 9.15823 27.6346
656 2 2.2208 10.9135 12.0121 27.7382
331 2 2.2208 2.28615 6.48128 13.7268
327 2 2.2208 5.31728 -2.08842 13.818
568 2 2.2208 13.6007 6.29736 13.8385
538 2 2.2208 10.8887 14.8213 13.786
565 2 2.2208 5.23218 0.539652 27.7002
339 2 2.2208 -0.327677 17.708 27.6776
698 2 2.2208 5.29104 23.3049 5.19288
700 1 -1.1104 1.08208 24.9456 1.15207
701 1 -1.1104 1.02734 24.7465 3.79992
702 1 -1.1104 0.996582 21.7572 0.966779
703 1 -1.1104 0.813965 27.7121 1.10977
704 2 2.2208 5.01507 26.1673 2.41936
705 1 -1.1104 1.07964 21.9511 3.85589
707 1 -1.1104 3.77775 24.831 0.864216
708 2 2.2208 2.51421 23.3122 2.45155
710 1 -1.1104 3.83438 24.7001 3.77706
711 2 2.2208 2.20848 26.1652 5.35216
712 1 -1.1104 3.7621 22.1625 0.990061
714 1 -1.1104 3.91173 22.085 3.67129
713 1 -1.1104 3.56959 27.6653 1.14169
724 1 -1.1104 6.51088 27.6992 3.80338
720 1 -1.1104 6.70067 24.5884 3.69145
723 1 -1.1104 6.66866 21.7724 3.75883
719 1 -1.1104 6.54064 24.8957 1.07845
841 1 -1.1104 0.830439 21.9556 6.52538
721 1 -1.1104 6.61138 21.9715 1.0245
1228 2 2.2208 5.32785 23.4269 -0.323563
722 1 -1.1104 6.46511 27.5432 1.02148
725 2 2.2208 10.7265 23.4641 5.15444
727 1 -1.1104 12.401 24.9198 0.772314
728 1 -1.1104 12.3686 24.7662 3.8944
729 1 -1.1104 12.3058 22.056 0.794508
731 2 2.2208 10.8925 26.1888 2.50741
732 1 -1.1104 12.0656 22.2301 3.59808
734 1 -1.1104 9.59395 24.6827 1.15571
735 2 2.2208 8.15346 23.3476 2.43552
737 1 -1.1104 9.56977 24.8584 4.0159
738 2 2.2208 7.99507 26.2981 5.19105
739 1 -1.1104 9.41842 22.0241 1.13542
740 1 -1.1104 9.35452 27.4687 1.02621
741 1 -1.1104 9.43683 22.0316 3.90655
730 1 -1.1104 12.187 27.6051 1.17245
733 1 -1.1104 12.1064 27.6913 3.85467
742 1 -1.1104 9.42685 27.5027 3.8137
9795 2 2.2208 13.4662 32.0058 10.8761
1415 1 -1.1104 9.54664 47.0338 3.86089
843 1 -1.1104 6.49601 21.8637 6.66236
1013 2 2.2208 7.85148 45.8975 13.5759
10261 2 2.2208 13.5044 37.4462 -0.143065
715 1 -1.1104 3.58386 27.4415 3.88362
706 1 -1.1104 0.876906 27.6205 4.02766
699 2 2.2208 4.9565 29.1095 5.27461
709 2 2.2208 2.3386 29.0455 2.39576
747 1 -1.1104 0.96319 30.485 0.976861
750 1 -1.1104 0.765734 30.4951 3.84558
753 1 -1.1104 0.785602 33.2123 1.01629
754 2 2.2208 5.15601 31.8726 2.50498
756 1 -1.1104 0.812089 33.319 4.11797
758 1 -1.1104 3.82859 30.5973 1.20323
761 1 -1.1104 3.48246 30.4735 3.87116
763 2 2.2208 2.23172 31.9028 5.37772
765 1 -1.1104 3.71316 33.3302 1.07709
766 1 -1.1104 3.96987 33.201 3.78918
904 1 -1.1104 3.9288 33.1083 6.51014
771 1 -1.1104 6.49852 30.4101 3.81431
770 1 -1.1104 6.62889 30.4821 0.951308
757 1 -1.1104 6.57548 33.1698 3.98042
769 1 -1.1104 11.9404 44.4814 6.8854
896 1 -1.1104 0.744132 30.5837 6.51043
902 1 -1.1104 3.63652 30.4875 6.71828
989 1 -1.1104 9.29999 44.5171 12.334
1593 1 -1.1104 12.1883 47.2271 9.68744
726 2 2.2208 10.6023 29.1173 5.24941
736 2 2.2208 7.94775 28.932 2.55109
9898 2 2.2208 13.6361 46.0205 2.67045
772 1 -1.1104 6.47736 33.3342 1.12742
774 1 -1.1104 12.2019 30.4214 1.09899
776 1 -1.1104 12.0008 30.2199 3.71978
778 1 -1.1104 11.9521 33.1146 0.977991
779 2 2.2208 10.8222 31.8964 2.38656
781 1 -1.1104 12.2354 33.2302 4.0443
782 1 -1.1104 9.33548 30.361 1.00612
785 1 -1.1104 9.26193 30.7814 3.85164
787 2 2.2208 7.90242 31.9247 5.49542
789 1 -1.1104 9.25907 33.4217 0.853978
790 1 -1.1104 9.36268 33.4833 3.75386
744 1 -1.1104 12.2016 41.8253 9.75447
927 1 -1.1104 12.2883 30.45 6.67816
10248 2 2.2208 13.5841 43.2408 -0.162538
1230 2 2.2208 5.19735 29.117 -0.312116
987 1 -1.1104 9.282 44.347 9.54769
746 2 2.2208 5.15441 34.8034 5.01753
748 1 -1.1104 0.895984 36.1133 1.02507
751 1 -1.1104 1.00241 36.0619 3.85778
755 2 2.2208 5.10688 37.529 2.47078
759 1 -1.1104 3.687 36.3212 1.05855
760 2 2.2208 2.38296 34.7743 2.383
762 1 -1.1104 3.77529 36.0604 3.76117
764 2 2.2208 2.18777 37.435 5.27002
749 1 -1.1104 6.4676 35.9999 1.21488
752 1 -1.1104 6.50782 36.3329 3.86176
9633 2 2.2208 13.4962 37.4157 5.30689
798 1 -1.1104 1.02659 38.8196 1.07872
803 1 -1.1104 0.811422 38.7861 3.90883
792 2 2.2208 5.1644 40.2573 5.36161
808 2 2.2208 2.35494 40.2577 2.63199
812 1 -1.1104 3.91658 39.1236 1.17183
814 1 -1.1104 3.50458 38.8891 4.03058
800 1 -1.1104 6.63336 38.8052 0.959297
9891 2 2.2208 13.6211 26.1247 5.26106
1346 2 2.2208 2.36177 43.0986 -0.287459
991 2 2.2208 7.92743 43.0989 10.9151
9890 2 2.2208 13.4555 28.9911 2.51386
837 1 -1.1104 12.2304 44.4944 12.3229
773 2 2.2208 10.7461 34.5933 5.36219
775 1 -1.1104 12.0533 36.1688 1.04646