ITEM: TIMESTEP
10000
ITEM: NUMBER OF ATOMS
17910
ITEM: BOX BOUNDS pp pp pp
-3.9675171297587558e-01 2.7736751712975749e+01
-4.8685214672796526e+00 3.3294852146727811e+02
-3.9764121850346201e-01 2.7737641218503637e+01
ITEM: ATOMS id type q x y z
1 2 2.2208 5.03986 0.637502 5.08481
2 1 -1.1104 0.991793 -3.4734 0.734275
3 1 -1.1104 0.739474 2.26635 0.971668
6 1 -1.1104 0.972476 -3.45854 3.48391
7 1 -1.1104 0.958033 2.07778 3.93975
10 1 -1.1104 0.784469 -0.467739 0.910166
12 2 2.2208 5.08623 -2.18194 2.36866
13 2 2.2208 5.02258 3.53836 2.13634
14 1 -1.1104 1.09083 -0.678099 3.56685
16 1 -1.1104 3.7254 -3.44613 0.794275
17 1 -1.1104 3.63827 2.28561 0.774809
18 2 2.2208 2.21521 0.815674 2.16282
19 1 -1.1104 3.83246 -3.55395 3.78195
20 1 -1.1104 3.69364 2.19874 3.60055
21 2 2.2208 2.23509 -2.07183 5.0225
22 2 2.2208 2.28945 3.53114 5.00252
23 1 -1.1104 3.55752 -0.541823 0.701193
24 1 -1.1104 3.77775 -0.766573 3.63746
11 1 -1.1104 6.25897 -0.719001 0.909067
15 1 -1.1104 6.605 -0.794765 3.79138
9252 2 2.2208 -0.361371 20.5432 13.5326
9 1 -1.1104 6.61183 2.32251 3.66745
173 1 -1.1104 3.80527 1.9793 6.45794
5 1 -1.1104 6.30635 2.08241 1.02575
229 2 2.2208 13.4638 0.805798 7.99709
169 1 -1.1104 6.37444 2.16075 6.49792
8536 2 2.2208 10.7404 -4.81687 5.1487
167 1 -1.1104 0.979456 2.1643 6.42154
172 1 -1.1104 3.59485 -3.54395 6.53312
171 1 -1.1104 6.57779 -0.542731 6.5776
51 2 2.2208 13.4149 11.9977 7.99775
8539 2 2.2208 4.8699 -4.83637 10.7877
572 2 2.2208 13.4566 0.715491 13.5677
569 2 2.2208 13.5624 11.9549 13.6052
4 1 -1.1104 6.45306 -3.41068 1.04018
8950 2 2.2208 -0.311542 17.545 10.8452
199 2 2.2208 -0.412473 3.42033 7.75841
8 1 -1.1104 6.68404 -3.53778 3.83449
31 2 2.2208 10.719 0.785136 5.15562
32 1 -1.1104 12.1554 -3.38154 0.938425
33 1 -1.1104 11.9314 2.20171 1.01703
34 1 -1.1104 12.16 -3.43929 3.7975
35 1 -1.1104 12.2266 2.01437 3.93468
36 1 -1.1104 11.9674 -0.745777 0.73778
37 2 2.2208 10.5989 -1.95834 2.27293
38 2 2.2208 10.6635 3.67792 2.29553
39 1 -1.1104 12.1671 -0.676795 3.79999
40 1 -1.1104 9.17405 -3.48343 0.987991
41 1 -1.1104 9.10187 2.27881 0.978938
42 2 2.2208 7.82338 0.779372 2.39997
43 1 -1.1104 9.4919 -3.39487 3.81723
44 1 -1.1104 9.32221 2.30094 3.70288
45 2 2.2208 7.9625 -2.08376 5.18335
47 1 -1.1104 9.25401 -0.648469 0.665818
48 1 -1.1104 9.21502 -0.511594 3.60815
46 2 2.2208 7.83307 3.64956 5.10952
540 2 2.2208 13.6367 17.7461 13.3937
50 2 2.2208 13.4544 -2.08963 5.147
210 1 -1.1104 9.37816 -0.541382 6.60605
207 1 -1.1104 12.1451 -0.685251 6.43858
52 2 2.2208 13.5488 6.52868 7.9808
230 2 2.2208 13.6317 -2.0601 10.852
476 2 2.2208 7.83995 6.49518 13.5436
54 2 2.2208 5.11947 6.36084 5.13698
55 2 2.2208 5.14157 12.1481 5.11665
56 1 -1.1104 0.76851 7.84798 1.00874
58 1 -1.1104 1.0049 7.844 3.84931
60 1 -1.1104 1.06608 5.1106 0.963256
61 1 -1.1104 1.1748 10.6853 1.02288
66 2 2.2208 5.205 9.36864 2.34419
67 1 -1.1104 0.903194 4.87323 3.67902
68 1 -1.1104 1.00375 10.8448 3.84889
71 1 -1.1104 3.7206 7.85308 1.07114
72 2 2.2208 2.42766 6.31811 2.31794
73 2 2.2208 2.39394 12.1782 2.30444
74 1 -1.1104 4.00764 7.80449 3.91096
75 2 2.2208 2.36165 9.19263 5.15445
76 1 -1.1104 3.60216 5.10916 0.760495
77 1 -1.1104 3.77947 10.7521 0.824136
79 1 -1.1104 3.72022 4.85223 3.67838
80 1 -1.1104 3.88386 10.5875 3.73228
64 1 -1.1104 6.66046 10.7958 0.668478
59 1 -1.1104 6.94066 8.01786 3.65462
63 1 -1.1104 6.25111 4.83813 0.792949
57 1 -1.1104 6.62385 7.98557 0.774048
450 2 2.2208 8.03214 12.0958 13.617
69 1 -1.1104 6.4759 5.21649 3.60943
65 1 -1.1104 6.65689 10.6751 6.34755
237 1 -1.1104 6.55313 4.99568 6.46474
49 2 2.2208 13.6122 0.790593 2.44258
104 2 2.2208 13.5954 12.0969 2.36715
70 1 -1.1104 6.75644 10.8455 3.567
84 2 2.2208 10.805 6.57396 5.21568
85 2 2.2208 10.904 12.0472 5.20569
86 1 -1.1104 12.2492 7.9467 0.985629
87 1 -1.1104 12.3804 7.6609 3.83629
88 1 -1.1104 12.0958 5.11138 0.768894
89 1 -1.1104 12.2549 10.7975 0.943404
91 2 2.2208 10.9019 9.20889 2.42394
92 1 -1.1104 12.1274 4.85029 3.75033
93 1 -1.1104 12.1923 10.6238 3.76519
94 1 -1.1104 9.36576 7.80025 0.941224
95 2 2.2208 7.88177 6.60946 2.29245
96 2 2.2208 7.98245 12.1995 2.39241
97 1 -1.1104 9.54069 8.06603 3.7453
98 2 2.2208 8.07354 9.48291 5.00538
99 1 -1.1104 9.10908 5.0793 0.894736
100 1 -1.1104 9.43261 10.6897 1.03229
102 1 -1.1104 9.27525 5.20854 3.69329
103 1 -1.1104 9.52804 10.8073 3.80833
145 1 -1.1104 12.1537 19.0517 6.50334
321 1 -1.1104 9.32532 19.1005 12.1551
90 1 -1.1104 12.1281 10.5559 6.54024
325 2 2.2208 10.881 14.9047 7.99554
106 2 2.2208 5.3103 17.7735 5.04826
107 1 -1.1104 0.923311 13.4887 1.23315
109 1 -1.1104 0.965801 19.1555 0.95721
113 1 -1.1104 0.89609 13.666 3.97195
114 1 -1.1104 0.814727 19.3636 3.97628
116 1 -1.1104 1.01304 16.4235 0.96896
119 2 2.2208 5.20696 14.8469 2.29237
120 2 2.2208 5.23915 20.6193 2.46933
121 1 -1.1104 1.11756 16.4276 3.85063
123 1 -1.1104 3.80041 13.6635 0.763479
125 1 -1.1104 3.8076 19.3184 1.16154
127 2 2.2208 2.41146 17.8334 2.37653
128 1 -1.1104 3.87011 13.4283 3.61067
129 1 -1.1104 3.7692 19.3205 3.85434
130 2 2.2208 2.43828 15.0512 5.08276
131 2 2.2208 2.4143 20.6771 5.39211
132 1 -1.1104 3.91933 16.5573 0.874009
134 1 -1.1104 3.93899 16.2834 3.65522
139 1 -1.1104 6.63123 19.2416 3.76882
140 1 -1.1104 6.85292 16.381 0.836637
115 1 -1.1104 6.59865 13.466 3.6172
138 1 -1.1104 6.6063 19.2363 0.855519
110 1 -1.1104 6.60063 13.5096 0.902132
122 1 -1.1104 6.64477 16.289 3.53461
302 1 -1.1104 1.31295 19.3112 6.79604
112 1 -1.1104 6.68586 19.1434 6.50617
118 1 -1.1104 6.52882 16.2887 6.45787
117 1 -1.1104 0.930745 16.5482 6.70146
8541 2 2.2208 8.05278 -4.79345 7.93019
141 2 2.2208 10.8897 17.7654 4.97927
142 1 -1.1104 12.0034 13.4855 0.771214
144 1 -1.1104 12.2473 19.1347 1.12016
146 1 -1.1104 12.1533 13.5865 3.73368
147 1 -1.1104 12.2828 19.1847 3.85158
148 1 -1.1104 12.1957 16.4006 0.852345
150 2 2.2208 10.7083 14.8286 2.32938
151 2 2.2208 10.8717 20.5855 2.3428
152 1 -1.1104 12.2358 16.3738 3.56945
153 1 -1.1104 9.25024 13.5401 1.01607
155 1 -1.1104 9.46461 19.0441 0.975239
157 2 2.2208 8.13677 17.7175 2.33664
158 1 -1.1104 9.36891 13.4436 3.88912
159 1 -1.1104 9.29755 19.1208 3.64687
160 2 2.2208 7.97362 14.9581 5.20158
161 2 2.2208 8.00142 20.5443 5.06506
162 1 -1.1104 9.49215 16.2543 1.14158
164 1 -1.1104 9.48601 16.2706 3.91154
154 1 -1.1104 9.61064 13.5532 6.68343
328 2 2.2208 2.29312 0.858506 13.5394
335 2 2.2208 2.43972 17.6637 13.6158
156 1 -1.1104 9.26775 19.2562 6.62829
163 1 -1.1104 9.4485 16.5511 6.58517
149 1 -1.1104 12.162 16.2603 6.58614
143 1 -1.1104 12.2822 13.554 6.59962
166 1 -1.1104 0.842969 -3.42674 6.36855
174 1 -1.1104 3.81312 -0.907277 6.45617
170 1 -1.1104 0.866323 -0.737853 6.38124
175 2 2.2208 4.98367 0.712749 10.7659
176 1 -1.1104 0.838868 -3.33101 12.2547
177 1 -1.1104 0.885164 2.21612 12.2087
180 1 -1.1104 0.724173 -3.40987 9.35803
181 1 -1.1104 0.937458 2.12931 9.22467
184 1 -1.1104 0.825703 -0.590383 11.9872
186 2 2.2208 5.15238 -2.0546 7.93488
188 1 -1.1104 0.794413 -0.680947 9.15213
190 1 -1.1104 3.63018 -3.52474 12.1481
191 1 -1.1104 3.60686 2.1998 12.1631
192 2 2.2208 2.23185 0.591835 7.95071
193 1 -1.1104 3.74647 -3.56626 9.38664
194 1 -1.1104 3.67187 2.21058 9.38137
195 2 2.2208 2.15399 -2.07358 10.6951
196 2 2.2208 2.27576 3.70417 10.8133
197 1 -1.1104 3.63458 -0.806398 12.0116
198 1 -1.1104 3.6241 -0.612162 9.22508
111 1 -1.1104 6.72852 13.558 6.5416
179 1 -1.1104 6.40583 2.01564 11.8509
189 1 -1.1104 6.50957 -0.795392 9.41104
9210 2 2.2208 13.6249 20.6582 10.8187
297 1 -1.1104 6.71075 13.4736 12.0536
8535 2 2.2208 7.85726 -4.82245 2.39789
168 1 -1.1104 6.62162 -3.31941 6.51425
538 2 2.2208 10.8029 14.9245 13.5851
539 2 2.2208 8.12301 17.6865 13.4683
8543 2 2.2208 13.4667 -4.75205 7.99773
182 1 -1.1104 6.61104 -3.56594 9.35308
185 1 -1.1104 6.58462 -0.737703 12.222
205 1 -1.1104 12.1744 -3.49356 6.5104
206 1 -1.1104 12.0787 2.20418 6.71063
208 1 -1.1104 9.36032 -3.41575 6.52615
178 1 -1.1104 6.32569 -3.34885 12.1001
183 1 -1.1104 6.59853 2.25869 9.20641
209 1 -1.1104 9.39746 2.21289 6.46051
211 2 2.2208 10.746 0.770231 10.7278
212 1 -1.1104 12.0838 -3.49732 12.319
213 1 -1.1104 11.981 2.14036 12.2547
214 1 -1.1104 12.2541 -3.3718 9.46181
215 1 -1.1104 12.0928 2.07824 9.42895
216 1 -1.1104 12.1498 -0.686749 12.2246
217 2 2.2208 10.8276 -2.04471 7.95442
218 2 2.2208 10.6518 3.48991 7.95596
219 1 -1.1104 12.3362 -0.827176 9.26419
220 1 -1.1104 9.28794 -3.51336 12.3535
221 1 -1.1104 9.14657 1.89698 12.1071
222 2 2.2208 7.82243 0.778745 7.8901
223 1 -1.1104 9.39603 -3.44002 9.47794
224 1 -1.1104 9.24069 2.2152 9.33908
225 2 2.2208 7.91816 -2.17047 10.6321
226 2 2.2208 7.84933 3.65084 10.6057
227 1 -1.1104 9.29261 -0.811038 12.0756
228 1 -1.1104 9.42909 -0.724056 9.26321
81 2 2.2208 -0.396658 6.33718 5.1501
318 1 -1.1104 9.41385 19.1403 9.42442
78 1 -1.1104 3.96221 10.5262 6.49076
238 1 -1.1104 3.72927 7.86107 6.48712
235 1 -1.1104 6.60374 7.72357 6.50873
83 2 2.2208 -0.386619 12.1692 5.30557
187 2 2.2208 5.06585 3.53224 7.89174
62 1 -1.1104 1.03413 10.5566 6.52848
236 1 -1.1104 1.08845 4.96738 6.57807
234 1 -1.1104 1.11874 7.74377 6.48159
239 1 -1.1104 3.72045 4.97703 6.52326
240 2 2.2208 5.13689 6.55643 10.6112
241 2 2.2208 5.28756 12.1534 10.7076
242 1 -1.1104 1.06478 7.991 12.0177
244 1 -1.1104 0.971377 7.73733 9.27423
246 1 -1.1104 0.950562 5.02939 12.2887
247 1 -1.1104 0.677656 10.7627 12.3309
250 2 2.2208 5.35037 9.22721 7.87072
251 1 -1.1104 0.894083 4.79396 9.40909
252 1 -1.1104 1.03634 10.6262 9.47448
255 1 -1.1104 3.79032 7.82026 12.1145
256 2 2.2208 2.32259 6.28191 7.94302
257 2 2.2208 2.46343 11.9245 7.86308
258 1 -1.1104 3.81535 7.93831 9.35706
259 2 2.2208 2.46507 9.18257 10.6994
260 1 -1.1104 3.69326 5.1711 12.2488
261 1 -1.1104 3.78596 10.674 12.0782
262 1 -1.1104 3.81094 4.96066 9.54717
263 1 -1.1104 4.01666 10.6141 9.22031
249 1 -1.1104 6.70244 10.7391 11.9933
245 1 -1.1104 6.66409 7.82631 9.1429
253 1 -1.1104 6.44029 4.94277 9.32993
243 1 -1.1104 6.60434 7.94288 11.7991
248 1 -1.1104 6.39576 4.98381 12.1173
254 1 -1.1104 6.7516 10.7999 9.18641
451 2 2.2208 10.5802 9.34874 13.5643
101 1 -1.1104 9.31874 10.7313 6.68851
266 1 -1.1104 12.1166 5.20763 6.74254
204 2 2.2208 13.4865 3.55132 5.14424
327 2 2.2208 5.21952 -2.0931 13.4725
319 1 -1.1104 9.4783 13.5158 9.38896
265 1 -1.1104 12.0974 7.96339 6.67238
269 1 -1.1104 9.32236 5.18646 6.45217
267 1 -1.1104 9.25409 7.93917 6.59092
264 1 -1.1104 9.41953 10.6828 9.56141
268 1 -1.1104 9.17978 4.90345 9.27781
270 1 -1.1104 9.4123 10.6198 12.1402
271 1 -1.1104 9.00553 4.94711 12.1177
272 2 2.2208 7.94077 9.3798 10.6375
273 1 -1.1104 9.50748 7.66142 9.23368
274 2 2.2208 8.07241 12.1331 7.95003
275 2 2.2208 7.88325 6.29732 7.91391
276 2 2.2208 10.686 6.33993 10.7656
277 2 2.2208 10.8424 11.9704 10.86
278 1 -1.1104 11.9416 7.79758 12.2649
279 1 -1.1104 12.1772 7.76822 9.4552
280 1 -1.1104 12.0346 4.89198 12.3394
281 1 -1.1104 12.1873 10.7189 12.2134
282 2 2.2208 10.7431 9.25235 8.03014
283 1 -1.1104 11.9751 4.87892 9.51575
284 1 -1.1104 12.1037 10.6506 9.363
285 1 -1.1104 9.30655 7.82707 11.968
9025 2 2.2208 13.5493 20.5717 5.16063
684 2 2.2208 5.26033 17.838 -0.350791
135 2 2.2208 -0.368599 15.0631 2.39024
108 1 -1.1104 1.13004 13.484 6.58694
124 1 -1.1104 3.88523 13.384 6.37818
296 1 -1.1104 6.55735 19.1236 12.1925
306 1 -1.1104 6.73349 16.2499 12.3448
133 1 -1.1104 3.76953 16.2205 6.58614
290 1 -1.1104 6.59956 13.8192 9.26232
126 1 -1.1104 3.93271 19.0212 6.65556
286 1 -1.1104 3.91364 19.0206 12.241
287 1 -1.1104 3.85813 13.52 12.1473
291 1 -1.1104 0.9066 18.9198 9.41056
292 1 -1.1104 0.945535 16.07 9.30194
293 2 2.2208 5.21702 20.6433 8.05373
294 1 -1.1104 1.03572 13.1895 9.2882
295 2 2.2208 5.17502 14.8554 7.91681
298 1 -1.1104 1.18612 19.1322 12.2551
299 1 -1.1104 0.981896 13.4787 12.1926
300 2 2.2208 5.2642 17.6372 10.9496
301 1 -1.1104 3.85073 19.2459 9.39042
303 2 2.2208 2.52294 17.8038 8.04853
304 1 -1.1104 3.86765 16.2372 9.40902
305 1 -1.1104 3.90264 13.4346 9.43496
307 1 -1.1104 1.05628 16.2902 12.1061
308 1 -1.1104 3.92457 16.2177 12.2294
309 2 2.2208 2.34457 20.4899 10.7617
310 2 2.2208 2.43507 14.8516 10.7259
288 1 -1.1104 6.58814 19.2807 9.23718
289 1 -1.1104 6.66022 16.4786 9.328
322 1 -1.1104 9.41166 13.5954 12.2537
232 1 -1.1104 12.2098 19.2634 9.40097
233 1 -1.1104 12.3008 16.329 12.1435
323 1 -1.1104 12.3388 16.2488 9.42392
329 2 2.2208 5.01529 3.66849 13.5016
312 1 -1.1104 12.3096 13.4052 12.3466
314 1 -1.1104 9.63502 16.2211 9.50245
137 2 2.2208 13.5988 17.6023 7.95783
316 2 2.2208 8.02925 20.5785 10.8697
317 2 2.2208 8.04575 14.8558 10.6846
313 1 -1.1104 12.2508 19.1572 11.9834
311 2 2.2208 10.8716 17.707 10.8056
324 2 2.2208 10.9944 20.4546 7.91816
315 1 -1.1104 9.55734 16.3223 12.2389
320 2 2.2208 8.08053 17.7726 7.89704
231 1 -1.1104 12.3217 13.3885 9.49544
53 2 2.2208 13.4089 3.59257 10.7974
332 2 2.2208 5.01858 9.32804 13.5287
413 2 2.2208 7.85861 0.702759 13.3939
415 2 2.2208 10.5102 3.37787 13.4036
333 2 2.2208 2.24697 12.1766 13.544
28 2 2.2208 -0.3135 6.49101 10.7583
8976 2 2.2208 -0.34409 17.6768 5.22862
30 2 2.2208 13.3519 9.26519 10.864
414 2 2.2208 10.6685 -2.08194 13.6214
537 2 2.2208 10.9745 20.5399 13.5932
340 2 2.2208 5.16603 0.788277 16.4066
341 1 -1.1104 0.850299 -3.43521 17.984
342 1 -1.1104 0.887147 2.08957 17.5985
345 1 -1.1104 0.949504 -3.42688 15.1629
347 1 -1.1104 0.776942 2.10174 15.0057
353 1 -1.1104 0.880251 -0.759991 17.8231
355 2 2.2208 5.01166 -2.09191 19.2914
357 1 -1.1104 1.0027 -0.594711 14.9937
361 1 -1.1104 3.62899 -3.26778 17.9037
362 1 -1.1104 3.83887 2.46366 17.6999
363 2 2.2208 2.31232 0.797357 19.07
364 1 -1.1104 3.65699 -3.68588 15.0433
366 1 -1.1104 3.46732 2.10505 14.9883
368 2 2.2208 2.40385 -2.04729 16.2889
369 2 2.2208 2.29309 3.65828 16.4667
370 1 -1.1104 3.74065 -0.443325 17.693
371 1 -1.1104 4.01074 -0.732836 14.6895
356 2 2.2208 5.1513 3.55355 19.2127
343 1 -1.1104 6.50989 -3.44385 17.7682
354 1 -1.1104 6.43352 -0.703157 18.0251
604 2 2.2208 13.3853 0.887849 24.9275
359 1 -1.1104 6.55674 -0.534555 15.1094
344 1 -1.1104 6.52503 2.04913 17.7716
351 1 -1.1104 6.37156 2.22612 14.9242
659 2 2.2208 13.53 6.40951 24.7983
656 2 2.2208 10.6693 11.8712 27.7026
346 1 -1.1104 0.861974 -3.51365 20.612
372 1 -1.1104 3.64163 -0.685919 20.4168
367 1 -1.1104 3.82158 2.12257 20.4337
352 1 -1.1104 6.59851 2.26049 20.5114
380 2 2.2208 10.7815 17.7535 27.6344
349 1 -1.1104 6.30848 -3.60409 14.9251
374 2 2.2208 13.6145 9.38886 21.9606
381 2 2.2208 7.96734 20.5244 27.6903
383 2 2.2208 10.6611 0.718073 16.4277
384 1 -1.1104 11.9981 -3.52245 17.7404
385 1 -1.1104 12.0329 2.14268 17.63
386 1 -1.1104 12.1412 -3.42359 14.9966
388 1 -1.1104 12.0791 2.03477 15.0046
390 1 -1.1104 12.0139 -0.723704 17.8576
391 2 2.2208 10.7369 -1.98956 19.2647
392 2 2.2208 10.6687 3.51816 19.2904
393 1 -1.1104 12.2067 -0.691415 15.0416
395 1 -1.1104 9.15843 -3.49381 17.8788
396 1 -1.1104 9.23387 2.14964 17.8889
397 2 2.2208 7.89037 0.751127 19.2144
398 1 -1.1104 9.17075 -3.27171 15.209
400 1 -1.1104 9.14677 2.04223 14.7742
402 2 2.2208 7.84633 -1.91878 16.5324
403 2 2.2208 8.02004 3.49499 16.4348
404 1 -1.1104 9.19636 -0.660601 17.8408
405 1 -1.1104 9.33075 -0.6588 14.9287
331 2 2.2208 2.26166 6.45411 13.6977
9477 2 2.2208 -0.348125 20.4155 19.2892
8635 2 2.2208 5.23679 -4.88163 21.9942
399 1 -1.1104 9.52746 -3.61078 20.4659
387 1 -1.1104 12.2249 -3.3697 20.6203
658 2 2.2208 13.5569 9.38322 27.7228
8704 2 2.2208 10.6765 -4.85136 16.4714
378 2 2.2208 8.10282 14.9094 27.6058
631 2 2.2208 5.21248 12.1679 27.5903
416 2 2.2208 5.17219 6.47687 16.3934
417 2 2.2208 5.0699 12.1995 16.3734
418 1 -1.1104 0.825127 7.59713 18.3238
420 1 -1.1104 0.758665 7.76681 15.1055
423 1 -1.1104 0.8773 4.81542 17.812
424 1 -1.1104 0.888133 10.6787 18.0248
427 2 2.2208 4.97403 9.14212 19.2165
428 1 -1.1104 0.896184 4.97061 15.0001
430 1 -1.1104 1.00579 10.7517 15.2119
435 1 -1.1104 3.49555 7.84844 17.8523
436 2 2.2208 2.46384 6.40084 19.2464
437 2 2.2208 2.34586 12.1565 19.0822
438 1 -1.1104 3.64208 7.93545 15.0335
440 2 2.2208 2.26668 9.19912 16.4757
441 1 -1.1104 3.8237 5.12171 17.7479
442 1 -1.1104 3.63544 10.7398 17.7382
443 1 -1.1104 3.68613 4.86632 14.9667
445 1 -1.1104 3.70778 10.6838 14.7174
446 1 -1.1104 3.56863 10.733 20.4277
431 1 -1.1104 6.35862 5.00221 14.8948
425 1 -1.1104 6.61439 4.93159 17.7621
439 1 -1.1104 3.74717 7.71477 20.442
419 1 -1.1104 6.39359 7.71562 17.8049
421 1 -1.1104 6.45412 7.75558 14.8457
433 1 -1.1104 6.56773 10.5267 14.7589
426 1 -1.1104 6.42586 10.7324 17.686
434 1 -1.1104 6.6041 10.6969 20.5621
429 1 -1.1104 0.948548 5.42578 20.7659
444 1 -1.1104 3.71825 4.96703 20.543
432 1 -1.1104 6.49698 5.13006 20.4571
692 2 2.2208 7.99416 20.6752 22.1625
629 2 2.2208 5.12011 6.26034 27.6137
452 2 2.2208 10.8336 6.26728 16.3695
453 2 2.2208 10.7587 12.0884 16.3968
454 1 -1.1104 12.2536 7.9206 17.8841
455 1 -1.1104 12.2586 7.84434 15.0458
457 1 -1.1104 12.0777 4.92251 17.6297
458 1 -1.1104 12.2526 10.793 17.7105
459 2 2.2208 10.8825 9.33414 19.1677
460 1 -1.1104 12.0695 4.97128 15.0481
462 1 -1.1104 12.0774 10.6148 15.0086
464 1 -1.1104 9.36928 8.05378 17.7459
465 2 2.2208 7.96222 6.46752 19.2738
466 2 2.2208 7.7775 12.0665 19.1373
467 1 -1.1104 9.27186 7.86009 15.0013
469 2 2.2208 7.9889 9.36487 16.3652
470 1 -1.1104 9.25707 5.16752 17.8998
471 1 -1.1104 9.26537 10.7392 17.8406
472 1 -1.1104 9.33949 5.0498 15.0153
474 1 -1.1104 9.34108 10.7905 15.0009
633 2 2.2208 -0.326854 9.29819 24.9786
567 2 2.2208 2.21037 3.63778 27.3888
697 2 2.2208 8.02515 17.8618 24.8806
687 1 -1.1104 9.35286 19.0025 23.4034
696 1 -1.1104 6.61735 19.1644 26.1658
477 2 2.2208 5.06892 17.8282 16.3578
478 1 -1.1104 0.783811 13.4873 17.8721
479 1 -1.1104 1.07823 18.9145 17.9438
482 1 -1.1104 0.84949 13.451 15.1314
484 1 -1.1104 1.05625 18.8856 15.1555
490 1 -1.1104 1.07559 16.352 17.9709
492 2 2.2208 5.16604 14.9711 19.2279
493 2 2.2208 5.16861 20.5488 19.3192
494 1 -1.1104 0.979404 16.292 14.9225
498 1 -1.1104 3.72673 13.5692 17.8076
499 1 -1.1104 3.80256 19.0481 17.8556
500 2 2.2208 2.48172 17.6429 19.2587
501 1 -1.1104 3.73565 13.6461 14.9318
503 1 -1.1104 3.82541 19.3042 14.9678
505 2 2.2208 2.29623 14.955 16.445
506 2 2.2208 2.40191 20.5015 16.5284
507 1 -1.1104 3.91482 16.0871 17.7317
508 1 -1.1104 3.69333 16.3513 15.1261
481 1 -1.1104 6.6051 19.2182 17.9808
483 1 -1.1104 0.687148 13.0348 20.6853
488 1 -1.1104 6.58041 19.0369 15.1226
487 1 -1.1104 6.51437 13.544 20.2442
509 1 -1.1104 3.61859 16.2797 20.7387
491 1 -1.1104 6.48874 16.2184 17.8981
486 1 -1.1104 6.47133 13.3717 14.8019
480 1 -1.1104 6.52759 13.3662 17.5497
496 1 -1.1104 6.61864 16.2305 14.8992
497 1 -1.1104 6.62721 16.4968 20.6899
495 1 -1.1104 0.798599 16.0582 20.6235
502 1 -1.1104 3.70555 13.4878 20.7381
504 1 -1.1104 3.66224 19.0553 20.6951
573 1 -1.1104 9.34139 13.4692 23.7227
408 1 -1.1104 12.1699 13.306 23.3267
449 1 -1.1104 12.2485 19.0909 26.3282
382 2 2.2208 10.726 17.5828 22.0698
519 1 -1.1104 12.1785 18.8859 20.7389
536 1 -1.1104 9.44674 16.3787 20.7125
513 2 2.2208 10.8329 17.7809 16.2962
514 1 -1.1104 12.1734 13.4413 17.72
515 1 -1.1104 12.333 19.082 17.9019
516 1 -1.1104 12.3381 13.4966 15.2
518 1 -1.1104 12.3653 19.0866 14.8379
520 1 -1.1104 12.1271 16.3675 17.7614
521 2 2.2208 10.7731 14.8038 19.1644
522 2 2.2208 10.6903 20.5112 19.2382
523 1 -1.1104 12.3454 16.2474 14.8666
525 1 -1.1104 9.27891 13.6663 17.6969
526 1 -1.1104 9.50372 19.2731 17.6365
527 2 2.2208 7.9448 17.7196 19.2621
528 1 -1.1104 9.32831 13.4721 14.8329
530 1 -1.1104 9.41378 19.1956 14.8247
532 2 2.2208 7.94513 14.9597 16.204
533 2 2.2208 7.97772 20.5201 16.5314
534 1 -1.1104 9.1455 16.4549 17.7536
535 1 -1.1104 9.55135 16.264 15.0238
529 1 -1.1104 9.32736 13.4964 20.8642
524 1 -1.1104 12.3668 16.1058 20.6324
9293 2 2.2208 13.5355 20.4657 22.3089
531 1 -1.1104 9.30062 19.1466 20.5459
694 1 -1.1104 9.39472 19.1191 26.3222
601 2 2.2208 13.5475 14.7238 22.0378
571 2 2.2208 13.4971 0.721813 19.1855
365 1 -1.1104 3.80613 -3.49275 20.6585
360 1 -1.1104 6.55564 -0.584198 20.757
348 1 -1.1104 1.05407 2.49319 20.2832
358 1 -1.1104 0.85045 -0.443237 20.4515
541 2 2.2208 4.95874 0.636466 21.8664
542 1 -1.1104 0.799366 -3.49579 23.2555
543 1 -1.1104 0.892768 2.11202 23.3081
546 1 -1.1104 0.912087 -3.5581 26.1751
547 1 -1.1104 0.909624 2.17284 26.109
550 1 -1.1104 0.751453 -0.496851 23.3448
552 2 2.2208 4.95376 -2.11457 24.8283
553 2 2.2208 5.1102 3.72294 24.7776
554 1 -1.1104 0.893927 -0.706264 26.1953
556 1 -1.1104 3.74512 -3.69072 23.3962
557 1 -1.1104 3.79901 2.077 23.3372
558 2 2.2208 2.26442 0.789445 24.7332
559 1 -1.1104 3.6477 -3.58254 26.2555
560 1 -1.1104 3.58449 2.1592 26.0908
561 2 2.2208 2.18174 -2.15831 21.8422
562 2 2.2208 2.345 3.56276 21.935
563 1 -1.1104 3.58078 -0.999057 23.0776
564 1 -1.1104 3.74716 -0.642741 26.0194
544 1 -1.1104 6.4379 -3.36234 23.3042
548 1 -1.1104 6.58257 -3.40826 26.0723
549 1 -1.1104 6.38598 2.12795 26.2312
350 1 -1.1104 6.53856 -3.39346 20.4278
545 1 -1.1104 6.45569 2.28375 23.2911
555 1 -1.1104 6.38702 -0.697162 26.3045
551 1 -1.1104 6.26113 -0.53616 23.5453
9439 2 2.2208 13.6103 20.675 16.4368
598 2 2.2208 13.5845 3.29817 16.3351
517 1 -1.1104 12.1564 13.2706 20.5328
448 1 -1.1104 12.2582 13.6458 26.0571
603 2 2.2208 13.4362 -2.10129 22.0214
8708 2 2.2208 5.23512 -4.81932 16.3721
389 1 -1.1104 12.1969 2.25977 20.5147
406 1 -1.1104 9.25006 -0.636161 20.653
394 1 -1.1104 12.0843 -0.676218 20.6434
401 1 -1.1104 9.44362 2.20805 20.7347
577 2 2.2208 10.7075 0.689253 22.1193
578 1 -1.1104 12.0952 -3.67399 23.3467
579 1 -1.1104 12.1402 2.02345 23.4736
580 1 -1.1104 12.176 -3.65841 26.2476
581 1 -1.1104 11.8311 2.2135 26.2151
582 1 -1.1104 12.0791 -0.782262 23.2997
583 2 2.2208 10.7579 -2.02315 24.847
584 2 2.2208 10.6087 3.55999 24.8203
585 1 -1.1104 11.9329 -0.523324 26.3378
586 1 -1.1104 9.2604 -3.50029 23.4885
587 1 -1.1104 9.37199 2.24064 23.4712
588 2 2.2208 7.74032 0.834709 24.8226
589 1 -1.1104 9.38026 -3.54904 26.216
590 1 -1.1104 9.2149 2.19376 26.2443
591 2 2.2208 7.91176 -2.05082 21.9729
592 2 2.2208 7.92587 3.54748 21.9532
593 1 -1.1104 9.13035 -0.588171 23.3276
594 1 -1.1104 9.2344 -0.70219 26.1212
605 2 2.2208 13.4403 3.46532 27.5483
336 2 2.2208 2.25394 -2.02947 27.5948
606 2 2.2208 5.0355 6.42012 21.8879
607 2 2.2208 5.14903 11.9088 21.8799
608 1 -1.1104 0.592155 7.79484 23.4424
610 1 -1.1104 1.05204 7.7055 26.1619
612 1 -1.1104 0.922188 5.08209 23.5022
613 1 -1.1104 1.0207 10.7316 23.6957
616 2 2.2208 5.07175 9.22276 24.7054
617 1 -1.1104 0.827003 5.07678 26.1601
618 1 -1.1104 0.871028 10.6951 26.4438
621 1 -1.1104 3.81173 7.66298 23.3752
622 2 2.2208 2.3164 6.6354 24.7104
623 2 2.2208 2.27534 12.1761 24.8593
624 1 -1.1104 3.87243 7.80125 26.3395
625 1 -1.1104 3.64068 4.92765 23.3082
626 1 -1.1104 4.01354 11.0287 23.6784
627 1 -1.1104 3.5771 5.01083 26.1928
628 1 -1.1104 3.62981 10.5219 26.3382
620 1 -1.1104 6.37661 10.7007 25.9806
619 1 -1.1104 6.55494 4.86536 26.1884
615 1 -1.1104 6.58695 10.7945 23.2094
614 1 -1.1104 6.40801 5.12046 23.2308
422 1 -1.1104 6.54662 8.07553 20.5967
611 1 -1.1104 6.61989 7.60945 26.1766
609 1 -1.1104 6.48664 7.85341 23.5411
511 2 2.2208 10.8262 14.8366 24.9224
473 1 -1.1104 9.22102 4.886 20.6925
475 1 -1.1104 9.34145 10.7674 20.5612
8667 2 2.2208 7.88442 -4.82871 19.0993
468 1 -1.1104 9.41706 7.61359 20.5044
463 1 -1.1104 12.1017 10.5 20.5807
456 1 -1.1104 12.2492 7.87997 20.5727
461 1 -1.1104 12.0148 5.05697 20.6091
636 1 -1.1104 9.24399 10.6274 26.1885
637 1 -1.1104 9.3466 4.78704 26.2224
638 1 -1.1104 9.2861 10.6032 23.3064
639 1 -1.1104 9.35632 4.86483 23.3936
640 2 2.2208 8.01157 9.24663 21.8634
641 1 -1.1104 9.38992 7.71125 26.1332
642 2 2.2208 7.79886 12.0445 24.7694
643 2 2.2208 8.00344 6.29805 24.7126
644 2 2.2208 10.7682 6.29647 21.9243
645 2 2.2208 10.6885 11.9952 22.0465
646 1 -1.1104 12.2325 7.87714 23.3842
647 1 -1.1104 12.1658 7.79556 26.4005
648 1 -1.1104 12.1081 4.92108 23.2975
649 1 -1.1104 12.1749 10.6722 23.3575
650 2 2.2208 10.7828 9.35325 24.7351
651 1 -1.1104 12.0925 4.9685 26.0154
652 1 -1.1104 12.0407 10.6726 26.2233
653 1 -1.1104 9.34223 7.8126 23.2779
695 1 -1.1104 9.50889 13.4854 26.3134
691 1 -1.1104 9.5585 16.2921 23.6036
411 2 2.2208 13.5704 -2.19153 16.5312
693 2 2.2208 8.03591 15.0103 22.0667
447 1 -1.1104 12.3118 19.1676 23.5944
485 1 -1.1104 0.893571 19.2706 20.7574
670 1 -1.1104 6.57459 13.661 23.1787
489 1 -1.1104 6.59257 19.3194 20.6926
661 1 -1.1104 6.62367 13.568 25.9476
663 1 -1.1104 6.51911 16.4325 26.2924
660 1 -1.1104 3.70464 19.1237 23.3803
662 1 -1.1104 3.6931 13.5855 23.4309
664 1 -1.1104 0.760114 19.1737 26.3725
665 1 -1.1104 0.84908 16.3335 26.281
666 1 -1.1104 0.955467 13.7027 26.3612
668 2 2.2208 5.10922 20.6661 24.8065
669 2 2.2208 5.24529 14.9827 24.7502
671 1 -1.1104 0.822218 19.1347 23.729
672 1 -1.1104 0.843746 13.4937 23.5872
673 2 2.2208 5.17176 17.7417 22.0698
674 1 -1.1104 3.7591 19.2103 26.6335
675 2 2.2208 2.20019 17.6987 24.8592
676 1 -1.1104 3.74626 16.3522 26.0927
677 1 -1.1104 3.77878 13.5803 26.2294
679 1 -1.1104 0.886649 16.1107 23.5984
680 1 -1.1104 3.50219 16.3729 23.405
681 2 2.2208 2.39636 20.7488 22.0172
682 2 2.2208 2.22422 14.7946 22.124
667 1 -1.1104 6.50532 19.239 23.4705
635 2 2.2208 -0.368047 6.46142 27.7139
678 1 -1.1104 6.63389 16.3587 23.5613
683 2 2.2208 2.20379 20.6069 27.6351
510 1 -1.1104 12.2224 16.3544 23.3899
690 1 -1.1104 9.42773 16.3545 26.3849
565 2 2.2208 5.09484 0.774711 27.6084
566 2 2.2208 10.9707 20.5785 24.9118
570 1 -1.1104 12.4056 16.418 26.3099
568 2 2.2208 13.4064 6.4447 13.6848
655 2 2.2208 7.97654 9.06531 27.5186
410 2 2.2208 13.4735 6.35099 19.3115
412 2 2.2208 13.6162 9.29601 16.338
597 2 2.2208 7.84248 3.55052 27.684
375 2 2.2208 13.5484 3.44711 22.0117
630 2 2.2208 2.29463 9.1253 27.6869
602 2 2.2208 13.5521 -2.07083 27.6143
599 2 2.2208 13.4921 14.9143 27.5513
596 2 2.2208 7.8715 -1.90565 27.617
685 2 2.2208 2.33118 15.0978 27.5107
654 2 2.2208 10.6725 6.3458 27.4633
8555 2 2.2208 7.86422 -4.87182 13.6964
512 2 2.2208 5.17549 20.6525 13.7201
334 2 2.2208 5.19128 14.9017 13.7422
595 2 2.2208 10.5644 0.701139 27.6393
337 2 2.2208 -0.401521 3.54524 13.7577
698 2 2.2208 5.05565 23.2322 5.21874
699 2 2.2208 5.22687 28.9588 5.25486
700 1 -1.1104 0.915757 24.9475 0.864827
701 1 -1.1104 0.978495 24.9675 3.73144
702 1 -1.1104 0.916403 22.0856 0.820859
703 1 -1.1104 0.913445 27.6845 1.02812
704 2 2.2208 5.19335 26.2874 2.32876
705 1 -1.1104 0.97951 22.1077 3.64173
706 1 -1.1104 1.00711 27.6883 3.77655
707 1 -1.1104 4.0302 24.965 1.09552
708 2 2.2208 2.34354 23.4718 2.47052
709 2 2.2208 2.40196 28.892 2.36879
710 1 -1.1104 3.77544 24.882 3.77838
711 2 2.2208 2.42258 26.1722 5.26824
712 1 -1.1104 3.61236 22.0858 0.952997
713 1 -1.1104 3.77506 27.6664 0.933687
714 1 -1.1104 3.65252 21.8635 3.92427
715 1 -1.1104 3.75805 27.6058 3.90356
842 1 -1.1104 0.987471 27.6423 6.5842
846 1 -1.1104 3.77029 21.9015 6.66651
724 1 -1.1104 6.55087 27.4791 3.93794
723 1 -1.1104 6.53892 21.9798 3.72973
719 1 -1.1104 6.72406 24.9019 1.08539
722 1 -1.1104 6.54048 27.7227 1.04328
721 1 -1.1104 6.60115 22.0184 1.02602
839 1 -1.1104 0.948566 24.8896 6.68346
845 1 -1.1104 3.93808 24.6937 6.80684
841 1 -1.1104 0.949796 22.0692 6.58968
1584 1 -1.1104 11.9572 47.1096 6.72389
10069 2 2.2208 -0.347631 45.8747 -0.395665
720 1 -1.1104 6.62507 24.7519 4.10093
725 2 2.2208 10.8661 23.4323 5.24305
726 2 2.2208 10.9258 29.0061 5.22909
727 1 -1.1104 12.2172 24.7807 1.00422
728 1 -1.1104 12.3237 24.7295 3.67521
729 1 -1.1104 12.1906 21.9572 1.05837
730 1 -1.1104 12.1036 27.4346 0.970862
731 2 2.2208 10.7786 26.1834 2.30608
732 1 -1.1104 12.2511 21.9431 3.82558
733 1 -1.1104 12.1209 27.5572 3.7093
734 1 -1.1104 9.54113 24.7282 1.18765
735 2 2.2208 8.15202 23.3476 2.47432
736 2 2.2208 7.9885 28.9223 2.44902
737 1 -1.1104 9.48975 24.7265 3.98232
738 2 2.2208 8.0418 26.2015 5.07202
739 1 -1.1104 9.35988 21.831 1.00952
740 1 -1.1104 9.11175 27.529 1.03179
741 1 -1.1104 9.4606 21.875 3.7619
742 1 -1.1104 9.52023 27.5973 3.84038
840 1 -1.1104 6.50763 24.7537 6.72629
872 1 -1.1104 12.2962 24.5294 6.55785
874 1 -1.1104 12.0143 27.3035 6.55849
875 1 -1.1104 9.36309 24.8683 6.74469
877 1 -1.1104 9.29954 27.7842 6.4425
876 1 -1.1104 9.3874 22.1026 6.46348
1288 2 2.2208 2.36341 31.8744 -0.382924
746 2 2.2208 5.14583 34.6452 5.15812
747 1 -1.1104 0.83852 30.5082 1.11298
748 1 -1.1104 0.893423 36.1581 1.10182
750 1 -1.1104 0.721827 30.601 3.93034
751 1 -1.1104 0.963805 36.08 3.85376
753 1 -1.1104 1.05704 33.4102 0.909638
754 2 2.2208 5.20305 31.9029 2.53569
755 2 2.2208 5.05602 37.2959 2.34865
756 1 -1.1104 0.949045 33.3266 3.63444
758 1 -1.1104 3.88489 30.3946 0.993546
759 1 -1.1104 3.77192 35.9702 0.876284
760 2 2.2208 2.36636 34.746 2.40998
761 1 -1.1104 3.90331 30.4443 3.80222
762 1 -1.1104 3.81285 35.9015 3.69899
763 2 2.2208 2.26072 31.8305 5.08107
764 2 2.2208 2.24157 37.3637 5.29376
765 1 -1.1104 3.86967 33.243 1.03708
766 1 -1.1104 3.72354 33.2332 4.13003
897 1 -1.1104 0.827496 36.0546 6.76811
903 1 -1.1104 3.68404 35.998 6.42336
900 1 -1.1104 1.1719 33.2534 6.60079
757 1 -1.1104 6.71385 33.1216 3.92648
749 1 -1.1104 6.44542 35.9109 0.997736
770 1 -1.1104 6.59399 30.4448 1.02952
902 1 -1.1104 3.91392 30.0951 6.66633
896 1 -1.1104 0.911075 30.4016 6.72596
904 1 -1.1104 3.69812 33.2031 7.03221
1001 2 2.2208 13.5237 45.9204 7.94798
771 1 -1.1104 6.5754 30.3447 3.72725
772 1 -1.1104 6.73055 33.2183 1.02487
752 1 -1.1104 6.75083 36.019 3.80082
773 2 2.2208 10.7198 34.7565 5.25148
774 1 -1.1104 12.2101 30.2982 1.21286
775 1 -1.1104 12.2263 36.0889 0.992535
776 1 -1.1104 12.1116 30.4574 3.99963
777 1 -1.1104 12.1633 35.97 3.58898
778 1 -1.1104 12.0037 33.1383 1.02924
779 2 2.2208 10.6834 31.849 2.55464
780 2 2.2208 10.9518 37.5817 2.57449
781 1 -1.1104 12.3619 33.1926 3.77526
782 1 -1.1104 9.43432 30.2718 1.07972
783 1 -1.1104 9.26303 35.9576 0.942178
784 2 2.2208 8.07352 34.5301 2.41215
785 1 -1.1104 9.33583 30.3706 3.87588
786 1 -1.1104 9.48925 36.0721 3.79667
787 2 2.2208 8.11179 31.7689 5.29627
788 2 2.2208 8.01634 37.6257 5.13809
789 1 -1.1104 9.35132 33.1901 1.0895
790 1 -1.1104 9.51526 33.2729 3.76806
928 1 -1.1104 12.119 35.8632 6.46379