ITEM: TIMESTEP
50000
ITEM: NUMBER OF ATOMS
17910
ITEM: BOX BOUNDS pp pp pp
-3.9056642376432832e-01 2.7730566423764763e+01
-4.8672765257610662e+00 3.3294727652576688e+02
-4.0811676882300613e-01 2.7748116768823152e+01
ITEM: ATOMS id type q x y z
1 2 2.2208 5.04812 0.784833 5.27741
2 1 -1.1104 0.71546 -3.65871 0.958415
6 1 -1.1104 0.918324 -3.18921 3.91357
10 1 -1.1104 0.96136 -0.72467 0.748633
12 2 2.2208 5.15225 -2.08606 2.34483
14 1 -1.1104 1.0063 -0.578981 3.55677
16 1 -1.1104 3.69369 -3.33926 0.868917
18 2 2.2208 2.49016 0.837402 2.22273
19 1 -1.1104 3.64767 -3.4484 3.69904
21 2 2.2208 2.32507 -1.84539 5.08333
23 1 -1.1104 3.67544 -0.705559 1.05126
24 1 -1.1104 3.71084 -0.547708 3.8399
3 1 -1.1104 1.07319 2.24196 0.649421
7 1 -1.1104 0.774608 2.08307 3.71095
17 1 -1.1104 3.79133 2.11885 0.992541
20 1 -1.1104 3.63602 2.35812 3.74991
22 2 2.2208 2.2374 3.71241 4.97752
13 2 2.2208 5.07546 3.67191 2.34017
538 2 2.2208 10.9072 14.8482 13.4837
8 1 -1.1104 6.42294 -3.5343 3.94314
9 1 -1.1104 6.4655 2.22161 3.80019
11 1 -1.1104 6.31229 -0.712651 0.70339
135 2 2.2208 -0.387261 14.8964 2.46653
165 2 2.2208 13.6306 17.5905 2.4546
8542 2 2.2208 10.5819 -4.75147 10.8073
167 1 -1.1104 0.978001 2.26407 6.57787
166 1 -1.1104 0.97055 -3.33551 6.45218
8532 2 2.2208 2.22142 -4.72435 2.49487
4 1 -1.1104 6.61301 -3.53038 1.12362
15 1 -1.1104 6.5612 -0.70409 3.61722
5 1 -1.1104 6.51948 2.22424 1.01675
9108 2 2.2208 -0.361877 20.5138 2.4013
31 2 2.2208 10.7888 0.736363 5.13644
32 1 -1.1104 12.1369 -3.533 0.876321
34 1 -1.1104 11.9236 -3.58708 3.67385
36 1 -1.1104 12.0333 -0.724905 1.02373
37 2 2.2208 10.7033 -2.06222 2.30338
39 1 -1.1104 12.1853 -0.674531 3.79402
40 1 -1.1104 9.59448 -3.40247 0.743858
42 2 2.2208 7.78452 0.754015 2.32613
43 1 -1.1104 9.17303 -3.27124 3.6026
45 2 2.2208 7.87752 -2.13647 5.07539
47 1 -1.1104 9.11599 -0.752549 0.896976
48 1 -1.1104 9.51061 -0.339339 3.56668
33 1 -1.1104 12.1292 2.03868 0.990159
35 1 -1.1104 12.2197 2.16648 3.6479
41 1 -1.1104 9.28281 2.17337 0.843183
44 1 -1.1104 9.21469 2.31627 3.6282
46 2 2.2208 7.88213 3.51477 5.23378
38 2 2.2208 10.7329 3.58526 2.41116
52 2 2.2208 13.5054 6.40134 7.83501
8559 2 2.2208 2.33235 -4.84904 13.5522
9170 2 2.2208 -0.362836 12.0647 10.8016
229 2 2.2208 13.4384 0.661384 8.03234
327 2 2.2208 4.96054 -2.01535 13.5439
51 2 2.2208 13.6172 11.947 7.95452
331 2 2.2208 2.28373 6.40023 13.5415
50 2 2.2208 13.5341 -2.20285 5.08856
54 2 2.2208 5.17768 6.29245 5.04644
56 1 -1.1104 0.919454 7.91232 1.06191
58 1 -1.1104 0.956088 7.78725 3.75157
60 1 -1.1104 0.85822 4.97489 0.964175
67 1 -1.1104 0.929854 4.89699 3.57082
71 1 -1.1104 3.81858 7.84332 1.06993
72 2 2.2208 2.34453 6.35945 2.30785
74 1 -1.1104 3.645 7.76438 3.87975
76 1 -1.1104 3.7308 4.89457 0.84914
79 1 -1.1104 3.79253 5.12929 3.7237
55 2 2.2208 5.17438 11.8854 5.1526
61 1 -1.1104 1.21423 10.5275 1.0732
66 2 2.2208 5.2251 9.268 2.1981
68 1 -1.1104 0.977671 10.6928 3.7752
73 2 2.2208 2.36139 11.9974 2.32209
75 2 2.2208 2.41334 9.24261 5.06183
77 1 -1.1104 3.84783 10.6351 0.918099
80 1 -1.1104 3.96103 10.6403 3.6383
70 1 -1.1104 6.60067 10.6218 3.63941
64 1 -1.1104 6.68731 10.8223 0.806652
63 1 -1.1104 6.4684 5.14523 1.15796
59 1 -1.1104 6.6573 7.65164 3.71601
57 1 -1.1104 6.60224 7.91851 0.778471
62 1 -1.1104 1.09544 10.6885 6.60077
239 1 -1.1104 3.71428 4.91902 6.55835
451 2 2.2208 10.8116 9.24318 13.6082
8536 2 2.2208 10.6103 -4.77695 4.99125
332 2 2.2208 5.1113 9.03936 13.5998
49 2 2.2208 13.5502 0.649299 2.52037
324 2 2.2208 10.8814 20.5146 8.06512
512 2 2.2208 5.16066 20.4201 13.5134
69 1 -1.1104 6.58917 5.0007 3.89504
84 2 2.2208 10.7746 6.43241 4.99114
86 1 -1.1104 12.0597 7.71168 0.863638
87 1 -1.1104 12.0189 7.62754 3.46089
88 1 -1.1104 12.3101 4.81264 0.83386
92 1 -1.1104 12.2308 4.94597 3.67474
94 1 -1.1104 9.39733 7.85345 0.836008
95 2 2.2208 7.98461 6.29247 2.33228
97 1 -1.1104 9.43066 7.98751 3.66256
99 1 -1.1104 9.29325 4.87409 0.901459
102 1 -1.1104 9.36888 5.05301 3.69658
85 2 2.2208 10.7929 11.9029 5.16912
89 1 -1.1104 12.1787 10.5626 0.926117
91 2 2.2208 10.7274 9.24283 2.24794
93 1 -1.1104 12.1566 10.6014 3.7378
96 2 2.2208 8.03875 12.0439 2.2354
98 2 2.2208 8.04628 9.24773 5.14885
100 1 -1.1104 9.48774 10.6232 0.831085
103 1 -1.1104 9.36799 10.7492 3.64165
204 2 2.2208 13.5391 3.48681 5.10678
328 2 2.2208 2.42407 0.807239 13.4203
104 2 2.2208 13.5345 11.9542 2.30357
317 2 2.2208 7.98986 14.9522 10.7582
329 2 2.2208 5.16055 3.64004 13.5322
476 2 2.2208 8.0663 6.37443 13.6503
107 1 -1.1104 1.10298 13.4826 0.805728
113 1 -1.1104 1.13602 13.57 3.69353
123 1 -1.1104 3.94325 13.3604 0.78232
128 1 -1.1104 3.82815 13.4197 3.72802
106 2 2.2208 5.08278 17.6922 5.28525
109 1 -1.1104 0.803047 18.9025 0.865491
114 1 -1.1104 1.1401 19.0972 3.82282
116 1 -1.1104 0.968485 16.2361 0.980985
119 2 2.2208 5.23062 14.898 2.35691
120 2 2.2208 5.22791 20.3797 2.45421
121 1 -1.1104 0.99689 16.3181 3.89157
125 1 -1.1104 3.83145 19.1755 0.874798
127 2 2.2208 2.42632 17.5556 2.30823
129 1 -1.1104 3.94164 18.9941 3.87295
130 2 2.2208 2.24997 14.8267 5.30569
131 2 2.2208 2.35384 20.4096 5.21451
132 1 -1.1104 3.817 16.2307 0.821531
134 1 -1.1104 3.77238 16.2797 3.63387
115 1 -1.1104 6.57774 13.3086 3.66124
140 1 -1.1104 6.57078 16.453 0.875131
139 1 -1.1104 6.65166 19.0816 3.97619
302 1 -1.1104 0.91487 18.9677 6.72413
122 1 -1.1104 6.63065 16.3245 3.78989
112 1 -1.1104 6.5329 18.9396 6.76459
314 1 -1.1104 9.47249 16.3431 9.53651
133 1 -1.1104 3.49075 16.338 6.56518
117 1 -1.1104 0.768843 16.2574 6.65021
230 2 2.2208 13.5579 -2.1191 10.9735
154 1 -1.1104 9.40977 13.5002 6.51623
138 1 -1.1104 6.76796 19.0569 0.887673
110 1 -1.1104 6.78279 13.6389 0.770439
142 1 -1.1104 12.4174 13.5118 0.987427
146 1 -1.1104 12.1699 13.4198 3.77549
153 1 -1.1104 9.54911 13.2061 0.882678
158 1 -1.1104 9.36354 13.6516 3.65687
141 2 2.2208 10.9174 17.5586 5.29713
144 1 -1.1104 12.2936 19.1147 1.0452
147 1 -1.1104 12.3139 19.016 3.69857
148 1 -1.1104 12.1571 16.2096 1.07908
150 2 2.2208 10.8125 14.7095 2.47978
151 2 2.2208 10.8763 20.2336 2.34859
152 1 -1.1104 12.5425 16.0446 3.9333
155 1 -1.1104 9.46122 18.8175 1.10113
157 2 2.2208 8.01665 17.6732 2.41146
159 1 -1.1104 9.38568 18.9484 3.84892
160 2 2.2208 8.08287 14.7587 5.15921
161 2 2.2208 8.02871 20.2247 5.24079
162 1 -1.1104 9.27389 15.9903 1.04745
164 1 -1.1104 9.53317 16.169 3.8059
145 1 -1.1104 12.2466 19.0448 6.49206
156 1 -1.1104 9.26323 18.9197 6.64457
149 1 -1.1104 12.3949 16.219 6.57916
539 2 2.2208 8.07042 17.5434 13.6716
170 1 -1.1104 0.95379 -0.434529 6.46477
173 1 -1.1104 3.71745 2.2334 6.48089
168 1 -1.1104 6.51257 -3.59511 6.55733
325 2 2.2208 10.8887 14.9348 7.88322
169 1 -1.1104 6.46515 2.07602 6.65357
174 1 -1.1104 3.58981 -0.708333 6.55274
172 1 -1.1104 3.7059 -3.516 6.53969
175 2 2.2208 5.17105 0.714818 10.6829
176 1 -1.1104 0.709951 -3.35363 12.257
180 1 -1.1104 0.864478 -3.21773 9.45633
184 1 -1.1104 0.940952 -0.449529 12.0414
186 2 2.2208 5.07945 -2.03466 7.85201
188 1 -1.1104 0.959224 -0.470006 9.13502
190 1 -1.1104 3.59059 -3.30359 12.2428
192 2 2.2208 2.40349 0.80158 7.85202
193 1 -1.1104 3.58719 -3.60213 9.45945
195 2 2.2208 2.34871 -1.98648 10.8006
197 1 -1.1104 3.65145 -0.471938 12.0582
198 1 -1.1104 3.85771 -0.812452 9.33988
177 1 -1.1104 0.941277 2.34531 12.2243
181 1 -1.1104 0.955321 2.10237 9.34726
191 1 -1.1104 3.73593 2.30998 12.0763
194 1 -1.1104 3.60135 2.30909 9.28911
196 2 2.2208 2.2986 3.70406 10.7965
187 2 2.2208 5.2386 3.59284 8.06129
178 1 -1.1104 6.44312 -3.62878 12.1821
171 1 -1.1104 6.63778 -0.753702 6.48501
183 1 -1.1104 6.55379 2.12592 9.47421
182 1 -1.1104 6.52105 -3.40266 9.24085
189 1 -1.1104 6.58966 -0.722782 9.17228
185 1 -1.1104 6.63154 -0.787128 12.1196
323 1 -1.1104 12.4121 16.258 9.28749
206 1 -1.1104 12.2838 2.19911 6.44849
210 1 -1.1104 9.53416 -0.643578 6.46858
9025 2 2.2208 13.5879 20.4237 5.28257
105 2 2.2208 13.6526 6.24113 2.13005
179 1 -1.1104 6.45335 2.04566 12.3299
205 1 -1.1104 12.2807 -3.4531 6.54881
207 1 -1.1104 12.2458 -0.721662 6.54326
209 1 -1.1104 9.41258 2.24065 6.35153
208 1 -1.1104 9.42162 -3.45073 6.4091
211 2 2.2208 10.7263 0.755816 10.7461
212 1 -1.1104 11.9927 -3.42036 12.1467
214 1 -1.1104 12.1117 -3.52921 9.47645
216 1 -1.1104 12.1496 -0.718669 12.3231
217 2 2.2208 10.6914 -2.17791 7.93597
219 1 -1.1104 11.9891 -0.78529 9.27263
220 1 -1.1104 9.26197 -3.28587 12.0512
222 2 2.2208 8.05649 0.535898 7.8365
223 1 -1.1104 9.31117 -3.48893 9.07286
225 2 2.2208 8.02379 -1.97403 10.582
227 1 -1.1104 9.30057 -0.519966 12.1167
228 1 -1.1104 9.31501 -0.593263 9.26633
213 1 -1.1104 11.9573 2.26995 12.1407
215 1 -1.1104 12.2609 2.18969 9.34789
218 2 2.2208 10.801 3.67359 7.87083
221 1 -1.1104 9.26434 2.09799 12.2616
224 1 -1.1104 9.40259 2.08841 9.19734
226 2 2.2208 8.10313 3.56796 10.737
8975 2 2.2208 -0.353444 20.3543 8.13737
238 1 -1.1104 3.74986 7.85758 6.69796
78 1 -1.1104 3.70086 10.6377 6.41287
234 1 -1.1104 1.15036 7.90358 6.45783
236 1 -1.1104 0.803163 4.95788 6.43062
237 1 -1.1104 6.55161 4.83841 6.5433
240 2 2.2208 5.25011 6.3685 10.7986
242 1 -1.1104 1.08713 7.88327 12.2957
244 1 -1.1104 1.16852 7.85116 9.46582
246 1 -1.1104 0.889353 4.94853 12.0919
251 1 -1.1104 1.03796 5.07502 9.33722
255 1 -1.1104 3.9222 7.5025 12.4569
256 2 2.2208 2.29802 6.4097 7.86764
258 1 -1.1104 3.9638 7.91471 9.56066
260 1 -1.1104 3.67998 4.99775 11.9974
262 1 -1.1104 3.90427 4.99266 9.2799
241 2 2.2208 5.17338 11.8962 10.7118
247 1 -1.1104 1.06103 10.5029 12.2179
250 2 2.2208 5.21298 9.19117 7.96598
252 1 -1.1104 1.09255 10.6202 9.35694
257 2 2.2208 2.44517 12.0452 7.92617
259 2 2.2208 2.41805 9.18044 10.6429
261 1 -1.1104 3.91335 10.455 12.159
263 1 -1.1104 3.7403 10.6302 9.39006
248 1 -1.1104 6.58523 4.82079 12.1184
249 1 -1.1104 6.64918 10.6428 12.1529
254 1 -1.1104 6.70915 10.5513 9.25877
235 1 -1.1104 6.61089 7.86615 6.4229
90 1 -1.1104 12.2485 10.4538 6.48607
267 1 -1.1104 9.5396 7.78079 6.65135
65 1 -1.1104 6.57708 10.7217 6.5889
253 1 -1.1104 6.8855 4.98787 9.26972
269 1 -1.1104 9.34222 5.11196 6.44579
265 1 -1.1104 12.3364 7.88875 6.60211
101 1 -1.1104 9.36095 10.6501 6.53226
245 1 -1.1104 6.56174 7.70048 9.29448
243 1 -1.1104 6.62376 7.7566 12.1847
266 1 -1.1104 12.179 5.00518 6.50892
268 1 -1.1104 9.64119 4.85232 9.45237
271 1 -1.1104 9.46762 4.9198 12.2492
273 1 -1.1104 9.3959 7.82213 9.50665
275 2 2.2208 7.99437 6.49971 7.89794
276 2 2.2208 10.8254 6.34715 10.8444
278 1 -1.1104 12.2361 7.73549 12.1944
279 1 -1.1104 12.1621 7.84806 9.35017
280 1 -1.1104 12.3221 5.01837 12.2734
283 1 -1.1104 12.2485 4.97471 9.24008
285 1 -1.1104 9.3221 7.82603 12.2275
264 1 -1.1104 9.52129 10.7245 9.305
270 1 -1.1104 9.37386 10.6732 12.1601
272 2 2.2208 8.01771 9.25949 10.7762
274 2 2.2208 8.03876 12.1903 7.92604
277 2 2.2208 10.9304 12.013 10.6028
281 1 -1.1104 12.1885 10.4782 12.1308
282 2 2.2208 10.8566 9.20501 7.81032
284 1 -1.1104 12.2501 10.6161 9.3716
311 2 2.2208 11.0197 17.7686 10.733
83 2 2.2208 -0.33006 12.0652 5.18457
537 2 2.2208 10.8555 20.5923 13.6266
306 1 -1.1104 6.66358 16.3489 12.2297
124 1 -1.1104 3.79306 13.5886 6.69102
111 1 -1.1104 6.45399 13.41 6.39208
118 1 -1.1104 6.31189 16.2898 6.65688
126 1 -1.1104 3.74784 18.994 6.59864
108 1 -1.1104 0.98692 13.3651 6.40272
287 1 -1.1104 3.96964 13.3589 12.1294
294 1 -1.1104 1.04571 13.4295 9.32585
299 1 -1.1104 1.13599 13.2474 12.1413
305 1 -1.1104 3.8396 13.4094 9.37631
286 1 -1.1104 3.64367 19.1141 12.2495
291 1 -1.1104 1.12125 18.8681 9.5373
292 1 -1.1104 1.16392 16.2548 9.51311
293 2 2.2208 5.09019 20.5039 7.99518
295 2 2.2208 4.98292 14.8764 7.99604
298 1 -1.1104 0.898777 18.9245 12.3852
300 2 2.2208 5.24459 17.5323 10.8343
301 1 -1.1104 3.74815 19.1246 9.41316
303 2 2.2208 2.23094 17.6161 8.01361
304 1 -1.1104 3.82443 16.2942 9.3922
307 1 -1.1104 0.98304 16.1364 12.1466
308 1 -1.1104 3.80702 16.0268 12.3324
309 2 2.2208 2.51061 20.5066 10.9587
310 2 2.2208 2.49813 14.7338 10.807
288 1 -1.1104 6.52629 18.8329 9.46113
290 1 -1.1104 6.66641 13.2583 9.52364
297 1 -1.1104 6.73701 13.5689 12.1394
316 2 2.2208 7.96787 20.4663 10.9085
313 1 -1.1104 12.3213 19.1529 12.2703
318 1 -1.1104 9.56256 18.9886 9.43079
315 1 -1.1104 9.64274 16.3876 12.114
320 2 2.2208 8.01554 17.6291 8.12221
296 1 -1.1104 6.50485 19.0176 12.2992
321 1 -1.1104 9.47044 19.2159 12.2128
143 1 -1.1104 12.0621 13.2733 6.48176
163 1 -1.1104 9.43088 16.311 6.6032
233 1 -1.1104 12.354 16.3392 12.1378
312 1 -1.1104 12.1941 13.4205 12.0084
319 1 -1.1104 9.45037 13.5585 9.27453
232 1 -1.1104 12.249 19.0697 9.35396
322 1 -1.1104 9.35863 13.484 12.3228
289 1 -1.1104 6.44289 16.0999 9.40755
231 1 -1.1104 12.3639 13.5433 9.27337
8539 2 2.2208 5.03506 -4.79432 10.6961
30 2 2.2208 13.5762 9.19542 10.7585
413 2 2.2208 7.92361 0.664086 13.5895
53 2 2.2208 13.4353 3.62807 10.8071
8950 2 2.2208 -0.191019 17.6408 10.9317
380 2 2.2208 10.8998 17.6898 -0.291869
569 2 2.2208 13.6346 11.7371 13.5568
8555 2 2.2208 7.74283 -4.75843 13.5414
8551 2 2.2208 5.05916 -4.81541 -0.320456
335 2 2.2208 2.44437 17.6021 13.5437
333 2 2.2208 2.49706 11.9846 13.4599
540 2 2.2208 13.6405 17.6297 13.5645
630 2 2.2208 2.35682 9.2641 -0.283946
340 2 2.2208 5.13331 0.67399 16.343
341 1 -1.1104 0.659785 -3.56516 18.0296
345 1 -1.1104 1.05376 -3.57312 14.9378
353 1 -1.1104 0.830639 -0.947855 17.8129
355 2 2.2208 4.9389 -2.0477 19.1015
357 1 -1.1104 1.00733 -0.851764 15.058
361 1 -1.1104 3.53244 -3.64724 17.6989
363 2 2.2208 2.25071 0.553379 19.0222
364 1 -1.1104 3.74599 -3.5236 15.0062
368 2 2.2208 2.35947 -2.17966 16.2334
370 1 -1.1104 3.5251 -0.712864 17.6952
371 1 -1.1104 3.67585 -0.577189 14.8197
342 1 -1.1104 1.00054 2.0713 17.6939
347 1 -1.1104 0.823584 2.07145 14.9595
362 1 -1.1104 3.6591 2.06065 17.9219
366 1 -1.1104 3.81743 2.14512 15.0132
369 2 2.2208 2.34654 3.56839 16.2762
356 2 2.2208 5.17009 3.24791 19.1315
344 1 -1.1104 6.67412 2.08847 17.764
365 1 -1.1104 3.59271 -3.28553 20.5789
632 2 2.2208 -0.366948 12.148 27.5217
631 2 2.2208 5.19158 12.1568 27.5386
343 1 -1.1104 6.41113 -3.59334 17.8837
349 1 -1.1104 6.5668 -3.41955 15.1614
359 1 -1.1104 6.36634 -0.799456 14.9438
411 2 2.2208 13.5087 -2.01909 16.3496
8707 2 2.2208 2.23097 -4.79685 19.144
375 2 2.2208 13.609 3.50841 22.0407
348 1 -1.1104 0.881091 2.22522 20.5912
367 1 -1.1104 3.84663 2.13542 20.6301
629 2 2.2208 5.06076 6.42718 27.7028
571 2 2.2208 13.4696 0.659909 19.3154
378 2 2.2208 8.30027 14.8229 27.6426
510 1 -1.1104 12.2236 16.1635 23.4981
354 1 -1.1104 6.45247 -0.700056 17.8164
352 1 -1.1104 6.59298 1.91768 20.6954
689 2 2.2208 -0.303802 17.6048 21.9518
351 1 -1.1104 6.57448 2.27274 14.9596
383 2 2.2208 10.7746 0.825391 16.5347
384 1 -1.1104 12.1352 -3.43441 17.7381
386 1 -1.1104 12.16 -3.3504 14.8485
390 1 -1.1104 12.2146 -0.473364 17.8421
391 2 2.2208 10.7897 -2.17697 19.0519
393 1 -1.1104 12.2994 -0.754985 15.031
395 1 -1.1104 9.31841 -3.68461 17.8816
397 2 2.2208 8.02101 0.613996 19.3036
398 1 -1.1104 9.40862 -3.34516 15.2327
402 2 2.2208 7.94678 -2.05644 16.6724
404 1 -1.1104 9.36967 -0.795734 17.7349
405 1 -1.1104 9.28277 -0.630262 14.9304
385 1 -1.1104 12.0299 2.20455 17.9013
388 1 -1.1104 12.2076 1.90058 15.1334
396 1 -1.1104 9.36557 1.97854 17.9864
400 1 -1.1104 9.32889 2.19742 15.1495
403 2 2.2208 7.92766 3.62079 16.4014
392 2 2.2208 10.7522 3.49521 19.1728
654 2 2.2208 10.7769 6.30263 27.6584
655 2 2.2208 7.89185 9.38133 27.6009
8706 2 2.2208 13.4843 -4.84407 19.256
536 1 -1.1104 9.30911 16.1409 20.5075
350 1 -1.1104 6.41412 -3.62173 20.4947
567 2 2.2208 2.39004 3.58776 27.433
601 2 2.2208 13.6496 14.7729 22.1432
416 2 2.2208 5.24037 6.40498 16.4995
418 1 -1.1104 1.00769 8.01885 18.021
420 1 -1.1104 0.976963 7.91868 15.0467
423 1 -1.1104 1.01245 4.95273 17.8159
428 1 -1.1104 1.12676 4.92623 14.8562
435 1 -1.1104 3.7046 7.70373 17.7214
436 2 2.2208 2.43506 6.17211 19.0385
438 1 -1.1104 3.60694 7.78539 14.9745
441 1 -1.1104 3.79928 4.95122 17.6595
443 1 -1.1104 3.87349 4.86148 15.0179
417 2 2.2208 5.27516 11.9436 16.347
424 1 -1.1104 0.805068 10.6299 18.112
427 2 2.2208 4.9584 9.25033 19.3453
430 1 -1.1104 0.92802 10.6749 15.2265
437 2 2.2208 2.28727 11.96 19.115
440 2 2.2208 2.43636 9.27199 16.3817
442 1 -1.1104 3.71212 10.5494 17.7487
445 1 -1.1104 3.79552 10.5184 15.0464
439 1 -1.1104 3.35148 7.69732 20.4856
419 1 -1.1104 6.45182 7.86481 17.8405
421 1 -1.1104 6.61849 7.75449 14.8477
433 1 -1.1104 6.6481 10.5775 14.9422
519 1 -1.1104 12.127 18.9855 20.6258
685 2 2.2208 2.52716 14.6866 27.5943
596 2 2.2208 7.81262 -2.08922 27.705
529 1 -1.1104 9.28735 13.3785 20.7639
656 2 2.2208 10.8872 11.9096 27.6042
9439 2 2.2208 13.4498 20.3815 16.4694
431 1 -1.1104 6.57499 5.03958 15.0131
425 1 -1.1104 6.42903 4.97307 17.8571
426 1 -1.1104 6.72114 10.667 17.7981
452 2 2.2208 10.7902 6.25891 16.3829
454 1 -1.1104 12.3241 7.64757 17.9831
455 1 -1.1104 12.2644 7.6279 15.2128
457 1 -1.1104 12.096 4.93687 17.7037
460 1 -1.1104 12.1457 4.77426 14.9448
464 1 -1.1104 9.36135 7.70922 17.7308
465 2 2.2208 7.90567 6.32434 19.3563
467 1 -1.1104 9.65836 7.64712 15.092
470 1 -1.1104 9.14949 4.83285 17.7733
472 1 -1.1104 9.48247 4.94522 15.0157
453 2 2.2208 10.957 11.8661 16.4038
458 1 -1.1104 12.2754 10.4808 17.9208
459 2 2.2208 10.8292 9.04108 19.3104
462 1 -1.1104 12.3472 10.3902 15.1378
466 2 2.2208 7.97426 11.9387 19.1929
469 2 2.2208 7.94362 9.22573 16.5397
471 1 -1.1104 9.5308 10.5435 17.6887
474 1 -1.1104 9.4128 10.4108 14.894
657 2 2.2208 13.6445 11.8743 24.9151
517 1 -1.1104 12.3565 13.253 21.0205
456 1 -1.1104 12.265 7.8447 20.7235
468 1 -1.1104 9.3305 7.74448 20.7501
475 1 -1.1104 9.38708 10.4776 20.5369
599 2 2.2208 13.5965 14.8253 27.604
687 1 -1.1104 9.56997 18.9546 23.5006
478 1 -1.1104 0.854955 13.4125 17.8938
482 1 -1.1104 0.818642 13.4524 15.1318
498 1 -1.1104 3.85641 13.47 17.7108
501 1 -1.1104 3.71805 13.4537 14.983
492 2 2.2208 5.0603 14.8875 19.2195
477 2 2.2208 5.2185 17.7558 16.4858
479 1 -1.1104 0.821136 18.925 17.9146
484 1 -1.1104 1.19323 19.0891 14.9871
490 1 -1.1104 0.946151 16.1662 17.8432
493 2 2.2208 5.11416 20.4457 19.1597
494 1 -1.1104 1.16864 16.2796 14.932
499 1 -1.1104 3.65968 19.206 17.7858
500 2 2.2208 2.3836 17.4963 19.1628
503 1 -1.1104 3.84119 19.0702 14.9311
505 2 2.2208 2.38377 14.8706 16.3105
506 2 2.2208 2.3731 20.3043 16.4699
507 1 -1.1104 3.71077 16.193 17.7059
508 1 -1.1104 3.98214 16.311 15.0961
488 1 -1.1104 6.58528 19.0097 15.127
480 1 -1.1104 6.75202 13.427 17.6888
491 1 -1.1104 6.47174 16.2998 17.8193
481 1 -1.1104 6.74538 19.2115 17.8548
496 1 -1.1104 6.71321 16.2777 14.9732
502 1 -1.1104 3.51566 13.5545 20.4055
486 1 -1.1104 6.69621 13.4373 15.0293
489 1 -1.1104 6.66199 19.0286 20.6754
382 2 2.2208 10.8505 17.6713 22.2075
633 2 2.2208 -0.225473 9.28492 24.8503
604 2 2.2208 13.4189 0.603266 24.8373
693 2 2.2208 7.73808 14.9428 22.0102
695 1 -1.1104 9.38517 13.3354 26.2411
448 1 -1.1104 12.2566 13.303 26.3837
565 2 2.2208 5.23838 0.880924 27.5209
514 1 -1.1104 12.1232 13.3312 18.0939
516 1 -1.1104 12.0694 13.2171 15.034
525 1 -1.1104 9.4471 13.3221 17.8878
528 1 -1.1104 9.36382 13.3367 15.0716
521 2 2.2208 10.6595 14.6338 19.4755
513 2 2.2208 10.668 17.4783 16.5352
515 1 -1.1104 12.029 19.0424 17.6366
518 1 -1.1104 12.2895 18.8881 14.9623
520 1 -1.1104 11.9876 15.9689 17.9615
522 2 2.2208 10.7845 20.2625 19.3012
523 1 -1.1104 12.2561 16.0909 14.9821
526 1 -1.1104 9.40631 18.8211 17.8609
527 2 2.2208 7.89457 17.6198 19.3715
530 1 -1.1104 9.36928 18.9536 15.0587
532 2 2.2208 8.01021 14.8424 16.3547
533 2 2.2208 8.06509 20.3405 16.3183
534 1 -1.1104 9.31107 16.0802 17.895
535 1 -1.1104 9.4148 15.9589 15.0439
531 1 -1.1104 9.31114 18.9792 20.7628
524 1 -1.1104 12.1474 16.162 20.798
573 1 -1.1104 9.39151 13.3628 23.5692
358 1 -1.1104 0.729652 -0.6243 20.5441
658 2 2.2208 13.5708 9.05697 27.6501
8601 2 2.2208 13.4442 -4.68306 24.7685
346 1 -1.1104 0.892025 -3.30117 20.7256
360 1 -1.1104 6.57575 -0.675581 20.4862
372 1 -1.1104 3.61439 -0.609607 20.4972
541 2 2.2208 5.09286 0.723177 21.9055
542 1 -1.1104 0.939685 -3.45073 23.4495
546 1 -1.1104 0.693025 -3.47961 26.5188
550 1 -1.1104 0.807739 -0.646562 23.4412
552 2 2.2208 5.04832 -2.15345 24.7877
554 1 -1.1104 1.08593 -0.692199 26.1299
556 1 -1.1104 3.72614 -3.48615 23.3721
558 2 2.2208 2.47785 0.763813 24.8081
559 1 -1.1104 3.65746 -3.45259 26.2037
561 2 2.2208 2.18354 -1.87589 21.9349
563 1 -1.1104 3.5841 -0.77503 23.3867
564 1 -1.1104 3.65774 -0.705763 26.237
543 1 -1.1104 1.15176 2.12101 23.3612
547 1 -1.1104 1.15197 2.30921 25.9515
557 1 -1.1104 3.81366 1.97352 23.429
560 1 -1.1104 3.82574 2.1147 26.3675
562 2 2.2208 2.36201 3.51538 22.0748
551 1 -1.1104 6.3683 -0.764631 23.4329
549 1 -1.1104 6.66815 2.17309 26.242
545 1 -1.1104 6.58833 2.01753 23.5258
667 1 -1.1104 6.85326 18.94 23.4016
336 2 2.2208 2.47392 -1.90873 27.6215
401 1 -1.1104 9.45421 2.00822 20.5977
389 1 -1.1104 12.1484 2.05623 20.7128
570 1 -1.1104 12.2959 16.3505 26.3136
544 1 -1.1104 6.41768 -3.63504 23.3506
548 1 -1.1104 6.45762 -3.46145 26.3203
555 1 -1.1104 6.54723 -0.59294 26.2068
394 1 -1.1104 12.0648 -0.700509 20.7048
399 1 -1.1104 9.306 -3.79495 20.4817
387 1 -1.1104 12.0729 -3.54001 20.4829
406 1 -1.1104 9.35666 -0.968886 20.5808
577 2 2.2208 10.7795 0.574049 22.126
578 1 -1.1104 12.0319 -3.46663 23.2449
580 1 -1.1104 12.1441 -3.51576 26.0883
582 1 -1.1104 12.1651 -0.764281 23.4844
583 2 2.2208 10.5895 -2.32204 24.888
585 1 -1.1104 12.1024 -0.820676 26.1692
586 1 -1.1104 9.26411 -3.56292 23.3819
588 2 2.2208 7.84869 0.58469 24.7797
589 1 -1.1104 9.17092 -3.51898 26.273
591 2 2.2208 7.96263 -2.24837 21.9765
593 1 -1.1104 9.27794 -0.748642 23.3727
594 1 -1.1104 9.32654 -0.794102 26.247
579 1 -1.1104 12.2093 2.04834 23.3821
581 1 -1.1104 12.2591 1.97936 26.259
587 1 -1.1104 9.3499 1.98081 23.3648
590 1 -1.1104 9.39218 2.01376 26.1122
592 2 2.2208 8.13065 3.49295 21.9284
584 2 2.2208 10.6749 3.57157 24.9331
603 2 2.2208 13.646 -2.07016 22.0543
444 1 -1.1104 3.69571 4.70665 20.5189
446 1 -1.1104 3.78804 10.8247 20.5037
429 1 -1.1104 0.879581 5.56175 20.5358
434 1 -1.1104 6.45297 10.4216 20.5787
553 2 2.2208 5.24145 3.6069 24.7624
606 2 2.2208 5.02566 6.35161 21.8073
608 1 -1.1104 0.872583 7.68751 23.4978
610 1 -1.1104 0.897823 7.8104 26.3573
612 1 -1.1104 0.905836 4.91968 23.3232
617 1 -1.1104 0.910706 5.0531 26.1659
621 1 -1.1104 3.78808 7.56762 23.5684
622 2 2.2208 2.3168 6.44952 24.8902
624 1 -1.1104 3.692 7.85121 26.4458
625 1 -1.1104 3.86412 4.93768 23.2391
627 1 -1.1104 3.87454 5.01503 26.1154
607 2 2.2208 5.10656 11.8792 22.0073
613 1 -1.1104 0.884903 10.8924 23.3605
616 2 2.2208 5.09421 9.20651 24.7727
618 1 -1.1104 0.914761 10.6367 26.587
623 2 2.2208 2.5119 12.0657 24.7456
626 1 -1.1104 3.82803 10.6042 23.5615
628 1 -1.1104 3.76132 10.7919 26.4043
614 1 -1.1104 6.54905 4.9035 23.3367
620 1 -1.1104 6.57202 10.6552 25.9672
615 1 -1.1104 6.53995 10.5201 23.2322
422 1 -1.1104 6.41247 7.69565 20.7495
611 1 -1.1104 6.56019 7.78362 26.2087
697 2 2.2208 7.93078 17.4775 24.9162
595 2 2.2208 10.57 0.632361 27.6815
690 1 -1.1104 9.60331 16.2625 26.2908
432 1 -1.1104 6.58584 4.77629 20.5846
463 1 -1.1104 12.2903 10.5728 20.7428
473 1 -1.1104 9.37312 4.90929 20.5995
461 1 -1.1104 12.0142 4.86321 20.6307
619 1 -1.1104 6.6284 4.96404 26.3176
609 1 -1.1104 6.60187 7.58621 23.367
637 1 -1.1104 9.51976 5.05795 26.2656
639 1 -1.1104 9.31319 4.92356 23.5716
641 1 -1.1104 9.35871 7.89948 26.2628
643 2 2.2208 7.9743 6.47844 24.7797
644 2 2.2208 10.7163 6.32929 22.1704
646 1 -1.1104 12.1066 7.84772 23.4268
647 1 -1.1104 12.3253 7.73481 26.2848
648 1 -1.1104 12.1011 4.9449 23.3215
651 1 -1.1104 12.3272 4.88189 26.3042
653 1 -1.1104 9.44554 7.67521 23.4252
636 1 -1.1104 9.35251 10.5791 26.1585
638 1 -1.1104 9.37253 10.464 23.3314
640 2 2.2208 7.90165 9.14924 21.9057
642 2 2.2208 8.02663 11.9398 24.7477
645 2 2.2208 10.8805 11.8769 22.238
649 1 -1.1104 12.1164 10.6875 23.5155
650 2 2.2208 10.6475 9.13949 24.8309
652 1 -1.1104 12.1321 10.5242 26.3616
9410 2 2.2208 -0.304431 6.36818 16.3199
694 1 -1.1104 9.50927 19.0165 26.4911
696 1 -1.1104 6.54101 19.1096 26.2788
408 1 -1.1104 12.2095 13.4671 23.8659
663 1 -1.1104 6.5052 16.1523 26.1748
485 1 -1.1104 1.01901 19.0231 20.7219
566 2 2.2208 10.8419 20.5735 24.8785
487 1 -1.1104 6.29566 13.4414 20.5024
483 1 -1.1104 0.733739 13.0064 20.5925
509 1 -1.1104 3.64448 16.3793 20.6638
495 1 -1.1104 1.01565 16.0242 20.567
504 1 -1.1104 3.76198 19.0483 20.639
662 1 -1.1104 3.86337 13.3338 23.3024
666 1 -1.1104 1.02408 13.5542 26.1498
672 1 -1.1104 0.900069 13.5886 23.42
677 1 -1.1104 3.74736 13.5166 26.0157
660 1 -1.1104 3.75824 19.0388 23.5022
664 1 -1.1104 0.993169 19.0185 26.5202
665 1 -1.1104 1.05737 16.1364 26.1477
668 2 2.2208 5.14659 20.374 24.9742
669 2 2.2208 5.08387 15.0167 24.8956
671 1 -1.1104 1.00766 19.1146 23.5718
673 2 2.2208 5.21744 17.7116 21.9984
674 1 -1.1104 3.70947 18.9428 26.2655
675 2 2.2208 2.32708 17.5764 24.8716
676 1 -1.1104 3.70543 16.2556 26.2144
679 1 -1.1104 0.85444 16.2168 23.3139
680 1 -1.1104 3.66115 16.2745 23.5898
681 2 2.2208 2.30882 20.4491 22.1799
682 2 2.2208 2.28121 14.7089 21.8747
670 1 -1.1104 6.58328 13.3304 23.2739
661 1 -1.1104 6.51684 13.4926 26.2648
678 1 -1.1104 6.53184 16.1843 23.4217
497 1 -1.1104 6.34436 16.2357 20.5512
691 1 -1.1104 9.31778 16.2321 23.2107
449 1 -1.1104 12.3657 18.9395 26.4536
511 2 2.2208 10.7464 14.8142 24.9283
447 1 -1.1104 12.3235 19.1094 23.445
692 2 2.2208 8.02466 20.3706 22.0847
9252 2 2.2208 -0.385245 20.3834 13.7343
683 2 2.2208 2.37937 20.4534 27.6316
379 2 2.2208 13.4846 17.4838 19.3904
598 2 2.2208 13.5456 3.53484 16.5758
9251 2 2.2208 -0.346433 14.7532 13.7246
412 2 2.2208 13.6687 9.00893 16.4986
684 2 2.2208 5.23392 17.6051 27.6337
9293 2 2.2208 13.5515 20.6464 22.0024
381 2 2.2208 7.92008 20.4371 27.7434
407 2 2.2208 13.288 14.6726 16.5606
602 2 2.2208 13.5062 -2.14383 27.5828
597 2 2.2208 7.88466 3.54546 27.6149
415 2 2.2208 10.6779 3.51916 13.6793
334 2 2.2208 5.23619 14.8259 13.7088
568 2 2.2208 13.4951 6.30773 13.7604
572 2 2.2208 13.5416 0.6676 13.6786
450 2 2.2208 8.05011 11.9843 13.685
605 2 2.2208 13.5227 3.37506 27.68
414 2 2.2208 10.7113 -2.04369 13.7279
698 2 2.2208 5.28235 23.203 5.22365
700 1 -1.1104 1.0882 24.5726 1.12928
701 1 -1.1104 0.819449 24.8123 3.88515
702 1 -1.1104 1.16418 21.5837 1.01613
703 1 -1.1104 0.996993 27.5206 1.04708
704 2 2.2208 5.16396 26.0293 2.4399
705 1 -1.1104 1.18192 21.8815 3.7225
707 1 -1.1104 3.88633 24.5085 0.955376
708 2 2.2208 2.43775 23.0624 2.32239
710 1 -1.1104 3.7169 24.6048 3.61812
711 2 2.2208 2.39864 26.1576 5.22922
712 1 -1.1104 3.83033 21.9845 0.769082
714 1 -1.1104 3.82503 21.7825 3.84484
715 1 -1.1104 3.86708 27.562 3.66718
706 1 -1.1104 1.10855 27.5307 3.92413
713 1 -1.1104 3.85404 27.4052 1.01153
699 2 2.2208 5.22951 28.8086 5.0471
709 2 2.2208 2.28659 28.92 2.42768
720 1 -1.1104 6.6503 24.4503 3.88591
843 1 -1.1104 6.618 21.8175 6.56382
841 1 -1.1104 1.11764 21.8137 6.56109
847 1 -1.1104 3.81752 27.4835 6.48276
845 1 -1.1104 3.76709 24.881 6.40628
842 1 -1.1104 1.14685 27.5562 6.72794
839 1 -1.1104 1.05443 24.7197 6.76593
840 1 -1.1104 6.62793 24.563 6.55281
817 1 -1.1104 12.2882 38.5451 12.1312
9887 2 2.2208 -0.225187 23.3683 5.28913
9886 2 2.2208 -0.205474 28.8319 5.27489
724 1 -1.1104 6.66726 27.3302 3.71473
723 1 -1.1104 6.67913 21.7309 3.92709
719 1 -1.1104 6.56943 24.6112 0.977916
722 1 -1.1104 6.71927 27.6278 0.951418
721 1 -1.1104 6.51763 21.7995 1.09028
725 2 2.2208 10.8072 23.0734 5.162
727 1 -1.1104 12.3686 24.6723 1.16293
728 1 -1.1104 12.2013 24.7843 3.85735
729 1 -1.1104 12.1897 21.9458 0.950935
731 2 2.2208 10.8158 25.9484 2.43881
732 1 -1.1104 12.4028 21.7826 3.78833
734 1 -1.1104 9.63046 24.7588 1.0346
735 2 2.2208 7.84416 23.0861 2.50775
737 1 -1.1104 9.36822 24.4798 3.8598
738 2 2.2208 8.19088 26.0038 5.29057
739 1 -1.1104 9.39105 21.7921 0.8809
740 1 -1.1104 9.6723 27.4947 1.02278
741 1 -1.1104 9.65311 21.5991 3.8011
730 1 -1.1104 12.3318 27.477 0.816113
726 2 2.2208 10.8815 28.9438 5.18657
733 1 -1.1104 12.0823 27.6021 3.70088
736 2 2.2208 8.121 28.8358 2.37362
742 1 -1.1104 9.42879 27.2916 3.85899
844 1 -1.1104 6.7209 27.4303 6.63317
837 1 -1.1104 12.2419 44.3909 12.1863
716 2 2.2208 13.6552 42.8046 10.8106
874 1 -1.1104 12.3034 27.4514 6.66213
872 1 -1.1104 12.2082 24.5015 6.62679
877 1 -1.1104 9.48222 27.4653 6.45028
873 1 -1.1104 12.2784 21.7892 6.57751
876 1 -1.1104 9.5344 21.7997 6.65553
993 2 2.2208 7.95428 45.775 8.12294
747 1 -1.1104 1.08876 30.198 1.07838
750 1 -1.1104 0.964324 30.1614 3.78752
753 1 -1.1104 1.01216 33.1517 1.07795
754 2 2.2208 5.44507 31.7934 2.50274
756 1 -1.1104 0.911019 33.0178 3.7682
758 1 -1.1104 3.95471 30.083 1.10139
761 1 -1.1104 3.91807 30.3496 3.86866
763 2 2.2208 2.43862 31.6528 5.11196
765 1 -1.1104 3.9597 33.1391 1.18391
766 1 -1.1104 3.81132 33.143 4.21745
746 2 2.2208 5.33411 34.5153 5.43235
748 1 -1.1104 0.948421 35.8612 1.20206
751 1 -1.1104 1.10794 35.8236 3.98533
755 2 2.2208 5.19069 37.2671 2.52209
759 1 -1.1104 3.90559 35.8368 1.02219
760 2 2.2208 2.42264 34.5546 2.53293
762 1 -1.1104 3.70445 35.9778 3.78185
764 2 2.2208 2.41027 37.2808 5.31983
903 1 -1.1104 3.92134 35.7066 6.74321
897 1 -1.1104 1.00433 36.1041 6.73277
772 1 -1.1104 6.74572 33.0774 1.13737
771 1 -1.1104 6.8747 30.1458 3.74309
749 1 -1.1104 6.80112 35.8429 0.983238
770 1 -1.1104 6.64269 30.4501 0.975343
798 1 -1.1104 0.955034 38.6656 1.15975
1560 1 -1.1104 6.57099 46.932 9.42517
1259 2 2.2208 8.17891 25.9541 -0.353942
1399 1 -1.1104 12.1326 46.8689 1.11229
752 1 -1.1104 6.79921 35.7996 3.75073
757 1 -1.1104 6.62808 33.0904 3.97103
899 1 -1.1104 6.73529 35.9644 6.76359
774 1 -1.1104 12.099 30.122 0.995072
776 1 -1.1104 12.1433 30.3801 3.71196
778 1 -1.1104 12.3581 33.0886 0.907037
779 2 2.2208 10.9488 31.6568 2.30422
781 1 -1.1104 12.4946 33.0831 3.88324
782 1 -1.1104 9.31117 30.3477 0.889401
785 1 -1.1104 9.63703 30.3433 3.66823
787 2 2.2208 8.03174 31.6552 5.12438
789 1 -1.1104 9.49079 33.0176 0.846179
790 1 -1.1104 9.44546 33.0402 3.69154
773 2 2.2208 11.0085 34.3605 5.12578
775 1 -1.1104 12.2488 35.8082 0.986537
777 1 -1.1104 12.2824 35.6569 3.69367
780 2 2.2208 10.8863 37.2139 2.46581