ITEM: TIMESTEP
60000
ITEM: NUMBER OF ATOMS
17910
ITEM: BOX BOUNDS pp pp pp
-4.0000629521886988e-01 2.7740006295219111e+01
-4.8238997341802854e+00 3.3290389973419104e+02
-3.9544880973988622e-01 2.7735448809740152e+01
ITEM: ATOMS id type q x y z
1 2 2.2208 5.22221 0.915249 5.31806
2 1 -1.1104 1.10361 -3.39384 0.91253
6 1 -1.1104 0.97839 -3.24859 3.81968
10 1 -1.1104 0.974201 -0.666791 0.983103
12 2 2.2208 5.37621 -1.91261 2.43282
14 1 -1.1104 1.0459 -0.454746 3.90486
16 1 -1.1104 3.86968 -3.56654 1.03939
18 2 2.2208 2.41163 0.813115 2.47193
19 1 -1.1104 3.89898 -3.23485 3.88909
21 2 2.2208 2.27727 -1.9393 5.26454
23 1 -1.1104 3.86304 -0.561173 0.92041
24 1 -1.1104 3.97227 -0.659653 3.82911
3 1 -1.1104 1.14892 2.11719 1.01834
7 1 -1.1104 0.942979 2.29354 3.84119
17 1 -1.1104 3.9153 2.27967 0.977764
20 1 -1.1104 3.93954 2.23477 3.82206
22 2 2.2208 2.37027 3.79705 5.44658
13 2 2.2208 5.23576 3.52739 2.51022
8 1 -1.1104 6.70886 -3.41869 3.85573
174 1 -1.1104 3.67658 -0.4947 6.7329
167 1 -1.1104 1.24798 2.37377 6.61435
11 1 -1.1104 6.81619 -0.794464 0.987044
8541 2 2.2208 8.24015 -4.77568 8.1314
8536 2 2.2208 11.0111 -4.7564 5.42288
654 2 2.2208 10.8279 6.5676 -0.252125
172 1 -1.1104 3.89809 -3.19847 6.71236
166 1 -1.1104 1.08294 -3.46871 6.61895
170 1 -1.1104 0.811547 -0.459723 6.61343
4 1 -1.1104 6.633 -3.55628 1.20341
635 2 2.2208 -0.298539 6.33598 -0.322525
15 1 -1.1104 6.90434 -0.539958 3.73016
5 1 -1.1104 6.57569 2.09192 1.03543
9 1 -1.1104 6.56604 2.28265 3.67979
31 2 2.2208 10.9536 0.972627 5.22545
32 1 -1.1104 12.3275 -3.42698 0.65509
34 1 -1.1104 12.3296 -3.33828 3.65515
36 1 -1.1104 12.5077 -0.624366 0.968567
37 2 2.2208 10.9749 -2.00832 2.47964
39 1 -1.1104 12.2873 -0.694328 3.72408
40 1 -1.1104 9.50673 -3.46953 1.03084
42 2 2.2208 8.24906 0.821928 2.38075
43 1 -1.1104 9.66936 -3.56023 3.7685
45 2 2.2208 8.08641 -2.04509 5.05544
47 1 -1.1104 9.76155 -0.469735 1.07943
48 1 -1.1104 9.51301 -0.581966 3.87306
33 1 -1.1104 12.4739 2.25617 1.37267
35 1 -1.1104 12.2487 2.34379 3.99621
41 1 -1.1104 9.6726 2.32126 1.26521
44 1 -1.1104 9.36825 2.23394 4.04248
46 2 2.2208 8.09661 3.84693 5.28188
169 1 -1.1104 6.6959 2.12343 6.59219
207 1 -1.1104 12.2987 -0.588715 6.55773
38 2 2.2208 10.8843 3.78124 2.51963
206 1 -1.1104 12.3163 2.1806 6.61616
210 1 -1.1104 9.48799 -0.471128 6.62212
208 1 -1.1104 9.55573 -3.37394 6.58355
209 1 -1.1104 9.41951 2.50493 6.80114
205 1 -1.1104 12.5264 -3.3826 6.69991
82 2 2.2208 -0.223744 9.16448 2.45706
165 2 2.2208 13.5975 17.6125 2.4035
684 2 2.2208 5.29497 17.8323 -0.304116
8534 2 2.2208 -0.349442 -4.70146 5.15097
54 2 2.2208 5.17939 6.47269 5.31484
56 1 -1.1104 1.03417 7.63172 1.13515
58 1 -1.1104 0.962032 7.80421 4.03047
60 1 -1.1104 1.07365 4.98033 1.00474
67 1 -1.1104 0.883381 5.07959 3.8938
71 1 -1.1104 3.8233 7.72854 1.06153
72 2 2.2208 2.51548 6.45998 2.48671
74 1 -1.1104 3.93166 7.88913 3.89909
76 1 -1.1104 3.89625 5.00105 1.03434
79 1 -1.1104 3.81641 5.05307 3.80155
55 2 2.2208 5.13228 12.0386 5.35479
61 1 -1.1104 1.01401 10.7224 1.15819
66 2 2.2208 5.23361 9.23337 2.50179
68 1 -1.1104 1.23116 10.8022 4.17067
73 2 2.2208 2.48193 12.1008 2.61495
75 2 2.2208 2.49347 9.13715 5.37912
77 1 -1.1104 3.96423 10.5124 1.10953
80 1 -1.1104 3.81496 10.5246 4.02372
78 1 -1.1104 3.7243 10.7134 6.81269
201 2 2.2208 -0.282347 1.0186 11.0586
8975 2 2.2208 -0.312739 20.4053 7.95466
414 2 2.2208 10.8833 -1.98293 13.5579
8537 2 2.2208 13.6616 -4.76264 2.40361
239 1 -1.1104 3.98471 5.09152 6.65448
65 1 -1.1104 6.49472 10.702 6.67072
8538 2 2.2208 2.68843 -4.8173 7.9576
63 1 -1.1104 6.81712 4.96141 1.14158
59 1 -1.1104 6.67477 7.70349 4.03678
57 1 -1.1104 6.70578 7.96317 1.10704
64 1 -1.1104 6.52619 10.7847 1.0256
69 1 -1.1104 6.59273 4.88785 4.00593
70 1 -1.1104 6.76617 10.568 3.77761
84 2 2.2208 10.9273 6.64189 5.37679
86 1 -1.1104 12.1572 7.96242 1.08368
87 1 -1.1104 12.1798 7.74073 3.9146
88 1 -1.1104 12.2854 5.05937 1.09426
92 1 -1.1104 12.4309 5.02349 3.94801
94 1 -1.1104 9.34966 7.90415 1.14289
95 2 2.2208 7.98187 6.48588 2.43309
97 1 -1.1104 9.51383 7.92501 4.02067
99 1 -1.1104 9.51812 5.06412 1.1005
102 1 -1.1104 9.48394 5.17223 3.77568
85 2 2.2208 10.8891 12.0348 5.23065
89 1 -1.1104 12.1144 10.7356 1.03552
91 2 2.2208 10.6873 9.29039 2.45375
93 1 -1.1104 12.1738 10.4947 3.96542
96 2 2.2208 8.07909 12.0785 2.35214
98 2 2.2208 8.04126 9.26444 5.30936
100 1 -1.1104 9.27913 10.6818 1.04305
103 1 -1.1104 9.53105 10.8853 3.95244
101 1 -1.1104 9.32495 10.7115 6.59832
104 2 2.2208 13.6772 12.0465 2.4597
269 1 -1.1104 9.57839 5.22191 6.74569
202 2 2.2208 13.6048 14.8855 5.23717
8532 2 2.2208 2.41141 -4.7026 2.47723
331 2 2.2208 2.54923 6.46961 13.6194
107 1 -1.1104 1.19811 13.606 1.18859
113 1 -1.1104 0.896205 13.5548 3.83195
123 1 -1.1104 3.81521 13.446 1.04302
128 1 -1.1104 3.78278 13.3524 3.94595
106 2 2.2208 5.05732 17.6909 5.06166
109 1 -1.1104 0.848237 19.0382 1.18649
114 1 -1.1104 1.17768 18.8709 3.93125
116 1 -1.1104 0.80364 16.2948 0.977621
119 2 2.2208 5.11416 14.735 2.43067
120 2 2.2208 5.19866 20.604 2.40214
121 1 -1.1104 0.946297 16.3349 3.76208
125 1 -1.1104 3.7296 19.0885 1.12856
127 2 2.2208 2.31573 17.5905 2.46968
129 1 -1.1104 4.03397 19.1948 3.79063
130 2 2.2208 2.26774 14.98 5.27545
131 2 2.2208 2.4875 20.6102 5.13678
132 1 -1.1104 3.76664 16.3397 1.14247
134 1 -1.1104 3.67377 16.2951 3.70398
117 1 -1.1104 0.977499 16.1741 6.9143
316 2 2.2208 8.00224 20.6031 10.7693
138 1 -1.1104 6.74343 19.0881 0.913878
140 1 -1.1104 6.56555 16.1939 0.984645
126 1 -1.1104 3.7711 18.9623 6.60954
124 1 -1.1104 3.58909 13.4931 6.74945
108 1 -1.1104 1.01921 13.377 6.55522
112 1 -1.1104 6.54869 18.9418 6.52018
230 2 2.2208 13.6009 -2.0459 10.8949
115 1 -1.1104 6.53349 13.436 3.80541
110 1 -1.1104 7.00405 13.5706 1.12898
139 1 -1.1104 6.62354 19.1033 3.68004
122 1 -1.1104 6.73014 16.1861 3.75165
142 1 -1.1104 12.3591 13.4513 0.917652
146 1 -1.1104 12.3721 13.4331 3.81338
153 1 -1.1104 9.62146 13.4998 1.0272
158 1 -1.1104 9.59539 13.5478 3.58528
141 2 2.2208 10.8382 17.6336 5.11491
144 1 -1.1104 12.3594 19.1867 0.904814
147 1 -1.1104 12.2319 19.0616 3.92028
148 1 -1.1104 12.1525 16.3294 0.949196
150 2 2.2208 10.7543 14.9865 2.43861
151 2 2.2208 10.7134 20.6808 2.37673
152 1 -1.1104 12.2765 16.0996 3.67216
155 1 -1.1104 9.44443 19.2416 1.14074
157 2 2.2208 7.97044 17.6712 2.29131
159 1 -1.1104 9.36221 19.0856 3.77968
160 2 2.2208 8.01243 14.8996 5.00944
161 2 2.2208 7.95835 20.5021 5.19222
162 1 -1.1104 9.33582 16.4499 1.05237
164 1 -1.1104 9.42898 16.2095 3.75328
199 2 2.2208 -0.370004 3.75606 8.12994
154 1 -1.1104 9.30787 13.4097 6.76363
118 1 -1.1104 6.52777 16.3916 6.59307
145 1 -1.1104 12.2204 19.2043 6.71608
565 2 2.2208 5.28102 0.808886 -0.442439
9025 2 2.2208 13.5255 20.4492 5.19266
314 1 -1.1104 9.42644 16.4275 9.5063
149 1 -1.1104 12.2631 16.4204 6.68715
105 2 2.2208 13.6817 6.2456 2.48675
312 1 -1.1104 12.3366 13.5703 12.2932
323 1 -1.1104 12.1084 16.3158 9.36653
173 1 -1.1104 3.94909 2.40091 6.5512
175 2 2.2208 5.09441 0.783069 10.8925
176 1 -1.1104 0.95275 -3.37534 12.1551
180 1 -1.1104 1.02321 -3.20553 9.34437
184 1 -1.1104 1.00032 -0.376116 12.532
186 2 2.2208 5.30263 -1.9026 8.20618
188 1 -1.1104 1.17811 -0.569441 9.60147
190 1 -1.1104 3.81769 -3.29231 12.3399
192 2 2.2208 2.28663 0.850287 7.9165
193 1 -1.1104 3.78873 -3.49343 9.4832
195 2 2.2208 2.48733 -1.91955 10.8883
197 1 -1.1104 3.82032 -0.573788 12.4264
198 1 -1.1104 3.84008 -0.648279 9.57081
177 1 -1.1104 1.08749 2.23167 12.6177
181 1 -1.1104 1.03129 2.46414 9.52792
191 1 -1.1104 3.86633 2.47352 12.0269
194 1 -1.1104 3.82884 2.12728 9.27188
196 2 2.2208 2.54742 3.68336 10.7175
187 2 2.2208 5.36479 3.73553 7.98889
182 1 -1.1104 6.5358 -3.45562 9.24863
179 1 -1.1104 6.71432 2.27154 12.1275
306 1 -1.1104 6.46465 16.5178 12.2663
168 1 -1.1104 6.85827 -3.37164 6.67182
8533 2 2.2208 5.37859 -4.51446 5.2572
232 1 -1.1104 12.3041 19.1993 9.55151
183 1 -1.1104 6.69068 2.36749 9.34025
171 1 -1.1104 6.56798 -0.614318 6.8003
185 1 -1.1104 6.73813 -0.603529 12.2553
189 1 -1.1104 6.59067 -0.430151 9.52476
178 1 -1.1104 6.8454 -3.46584 12.0219
211 2 2.2208 10.8561 0.941987 10.8709
212 1 -1.1104 12.1673 -3.39506 12.269
214 1 -1.1104 12.1223 -3.52936 9.51664
216 1 -1.1104 12.2778 -0.449198 12.0818
217 2 2.2208 10.7785 -1.89871 8.03462
219 1 -1.1104 12.261 -0.561918 9.45598
220 1 -1.1104 9.55904 -3.57251 12.2627
222 2 2.2208 8.09826 0.878449 7.98203
223 1 -1.1104 9.57494 -3.42331 9.32449
225 2 2.2208 8.00698 -2.02137 10.7815
227 1 -1.1104 9.57197 -0.331948 12.3899
228 1 -1.1104 9.32053 -0.55249 9.54702
213 1 -1.1104 12.3478 2.18639 12.1338
215 1 -1.1104 12.1075 2.24528 9.43965
218 2 2.2208 10.9289 3.59161 8.05849
221 1 -1.1104 9.49417 2.42018 12.3563
224 1 -1.1104 9.44947 2.21353 9.55225
226 2 2.2208 8.13014 3.60417 10.7642
630 2 2.2208 2.53373 9.32929 -0.435274
233 1 -1.1104 12.1994 16.541 12.2825
655 2 2.2208 7.91908 9.31679 -0.355175
321 1 -1.1104 9.4889 19.252 12.151
629 2 2.2208 5.33416 6.29485 -0.376269
415 2 2.2208 11.0073 3.67844 13.6992
234 1 -1.1104 1.08007 7.74153 6.72652
231 1 -1.1104 12.2723 13.4146 9.36661
236 1 -1.1104 0.806127 5.08224 6.81758
62 1 -1.1104 0.948763 10.654 6.71767
238 1 -1.1104 4.00106 7.89811 6.59899
240 2 2.2208 5.23208 6.35214 10.9985
242 1 -1.1104 1.15349 7.84255 12.3404
244 1 -1.1104 1.16462 8.01872 9.4181
246 1 -1.1104 1.18546 5.13333 12.2521
251 1 -1.1104 1.10284 5.21563 9.40303
255 1 -1.1104 3.92218 7.8924 12.2538
256 2 2.2208 2.45867 6.41636 8.05652
258 1 -1.1104 3.77915 7.96076 9.34601
260 1 -1.1104 3.94435 5.04524 12.2294
262 1 -1.1104 3.87548 4.91486 9.51662
241 2 2.2208 5.18616 12.1129 10.8295
247 1 -1.1104 0.901966 10.6796 12.5347
250 2 2.2208 5.23635 9.40741 8.07786
252 1 -1.1104 1.07055 10.5531 9.64607
257 2 2.2208 2.41605 12.1202 8.23251
259 2 2.2208 2.5302 9.23532 10.8488
261 1 -1.1104 3.71287 10.805 12.3197
263 1 -1.1104 3.81752 10.8939 9.50036
249 1 -1.1104 6.60745 10.6197 12.2607
243 1 -1.1104 6.70123 7.82758 12.2309
237 1 -1.1104 6.7904 5.05125 6.73091
254 1 -1.1104 6.61509 10.7574 9.42016
320 2 2.2208 7.89532 17.6614 8.00512
288 1 -1.1104 6.56114 19.1599 9.29282
90 1 -1.1104 12.1938 10.8036 6.74842
235 1 -1.1104 6.62979 7.90954 6.53415
266 1 -1.1104 12.4795 5.17446 6.755
245 1 -1.1104 6.60126 8.04165 9.4116
253 1 -1.1104 6.74647 4.98246 9.47597
248 1 -1.1104 6.87848 5.0302 12.4216
267 1 -1.1104 9.52205 8.04442 6.85555
265 1 -1.1104 12.1643 7.98285 6.82703
268 1 -1.1104 9.55455 5.02836 9.44428
271 1 -1.1104 9.65148 5.04847 12.2638
273 1 -1.1104 9.5035 7.76574 9.59576
275 2 2.2208 8.19609 6.47956 8.08976
276 2 2.2208 10.9466 6.51388 10.887
278 1 -1.1104 12.2234 7.72399 12.4199
279 1 -1.1104 12.2636 7.90721 9.66335
280 1 -1.1104 12.5967 4.91974 12.5312
283 1 -1.1104 12.2058 5.00512 9.50478
285 1 -1.1104 9.51125 7.8623 12.2031
264 1 -1.1104 9.45536 10.6566 9.57024
270 1 -1.1104 9.33907 10.8518 12.2068
272 2 2.2208 8.16343 9.29098 10.8634
274 2 2.2208 7.87006 12.2093 8.0798
277 2 2.2208 10.8347 12.1207 10.7328
281 1 -1.1104 12.3234 10.5867 12.3918
282 2 2.2208 10.7873 9.53189 8.07282
284 1 -1.1104 12.3546 10.598 9.53451
322 1 -1.1104 9.66402 13.544 12.27
324 2 2.2208 10.8036 20.4682 7.95627
111 1 -1.1104 6.53115 13.566 6.54678
133 1 -1.1104 3.71645 16.2348 6.44037
302 1 -1.1104 0.900302 19.0172 6.64782
287 1 -1.1104 3.7613 13.5096 12.3234
294 1 -1.1104 0.988052 13.5229 9.69327
299 1 -1.1104 0.942345 13.4771 12.1906
305 1 -1.1104 3.87225 13.6978 9.4273
286 1 -1.1104 3.75748 19.2518 12.2071
291 1 -1.1104 0.999154 19.1198 9.60742
292 1 -1.1104 1.07836 16.3239 9.64349
293 2 2.2208 5.18269 20.4385 7.96172
295 2 2.2208 5.09251 14.9545 7.90847
298 1 -1.1104 1.07424 19.3928 12.3006
300 2 2.2208 5.28488 17.8504 10.8111
301 1 -1.1104 3.82709 19.2535 9.38037
303 2 2.2208 2.42334 17.7164 8.03648
304 1 -1.1104 3.77386 16.4042 9.4167
307 1 -1.1104 1.04896 16.4099 12.3354
308 1 -1.1104 3.85438 16.4436 12.2234
309 2 2.2208 2.36614 20.6814 10.8723
310 2 2.2208 2.49872 15.0987 10.9479
297 1 -1.1104 6.73901 13.5197 12.2722
290 1 -1.1104 6.50114 13.5533 9.39273
289 1 -1.1104 6.56207 16.4264 9.40791
296 1 -1.1104 6.65327 19.4797 12.1739
632 2 2.2208 -0.289371 12.1858 -0.285306
156 1 -1.1104 9.29038 19.2008 6.63171
319 1 -1.1104 9.46235 13.4081 9.47763
163 1 -1.1104 9.3617 16.3634 6.52282
325 2 2.2208 10.7389 14.9361 7.9454
313 1 -1.1104 12.1522 19.3429 12.345
143 1 -1.1104 12.0458 13.5879 6.53592
318 1 -1.1104 9.34701 19.1426 9.40108
315 1 -1.1104 9.23222 16.3231 12.3557
317 2 2.2208 7.88171 14.8909 10.9388
311 2 2.2208 10.7468 17.8009 10.8986
137 2 2.2208 13.6609 17.7729 8.06285
336 2 2.2208 2.45719 -2.07235 -0.430579
538 2 2.2208 10.7955 14.8808 13.5888
9170 2 2.2208 -0.387472 12.1287 10.9101
52 2 2.2208 13.6731 6.60132 8.10487
27 2 2.2208 -0.277481 3.65875 2.45766
335 2 2.2208 2.28119 17.7719 13.6824
9210 2 2.2208 13.6238 20.6835 10.9388
136 2 2.2208 13.5678 14.9967 10.8277
203 2 2.2208 13.5912 9.24798 5.30614
28 2 2.2208 -0.344138 6.48059 10.8926
476 2 2.2208 8.11488 6.39699 13.7347
631 2 2.2208 5.08908 12.0363 -0.3649
413 2 2.2208 8.12586 1.05491 13.5777
450 2 2.2208 8.08354 12.0238 13.5817
597 2 2.2208 8.15211 3.56055 -0.144978
599 2 2.2208 13.6127 15.0194 -0.464476
381 2 2.2208 7.99967 20.5968 -0.33068
333 2 2.2208 2.30341 12.0838 13.6134
9251 2 2.2208 -0.467195 14.8747 13.5738
8949 2 2.2208 -0.270846 14.9693 8.19944
512 2 2.2208 5.00987 20.6159 13.479
380 2 2.2208 10.7661 17.7817 -0.265274
605 2 2.2208 13.6104 3.57792 -0.331621
595 2 2.2208 11.1305 0.781794 -0.287296
340 2 2.2208 5.30611 0.930652 16.4867
341 1 -1.1104 0.988444 -3.46708 17.9568
345 1 -1.1104 1.05391 -3.32674 15.1301
353 1 -1.1104 0.979234 -0.596171 18.0168
355 2 2.2208 5.17777 -2.04972 19.2571
357 1 -1.1104 1.20655 -0.577599 15.2232
361 1 -1.1104 3.73803 -3.37292 17.6985
363 2 2.2208 2.50324 0.823304 19.1985
364 1 -1.1104 3.92007 -3.22105 14.9468
368 2 2.2208 2.27496 -2.08181 16.448
370 1 -1.1104 3.70833 -0.722102 17.9758
371 1 -1.1104 3.83148 -0.41176 15.3847
342 1 -1.1104 1.27967 2.43932 17.948
347 1 -1.1104 1.10501 2.29361 15.3045
362 1 -1.1104 4.00283 2.24753 17.8674
366 1 -1.1104 3.97338 2.20538 14.8658
356 2 2.2208 5.24296 3.65903 19.1713
367 1 -1.1104 3.68784 2.14682 20.5703
354 1 -1.1104 6.67942 -0.655593 17.8321
350 1 -1.1104 6.78814 -3.47844 20.6612
574 2 2.2208 -0.449703 -1.97763 24.8057
658 2 2.2208 13.6759 9.1247 27.7922
409 2 2.2208 13.6294 12.1309 19.3781
358 1 -1.1104 1.22272 -0.26684 20.7379
348 1 -1.1104 0.970788 2.42036 20.833
372 1 -1.1104 4.00036 -0.660163 20.8412
365 1 -1.1104 3.9312 -3.45354 20.5458
346 1 -1.1104 1.11615 -3.22709 20.8515
360 1 -1.1104 6.76129 -0.779847 20.7004
537 2 2.2208 10.5781 20.6622 13.7301
8667 2 2.2208 8.11606 -4.60208 19.1952
376 2 2.2208 -0.229048 0.693373 16.495
351 1 -1.1104 6.75186 2.25855 15.0017
359 1 -1.1104 6.61046 -0.391729 15.0499
349 1 -1.1104 6.51461 -3.17602 15.111
344 1 -1.1104 6.8474 2.05149 17.76
343 1 -1.1104 6.52189 -3.37912 17.8744
383 2 2.2208 10.8354 0.885349 16.4468
384 1 -1.1104 12.0721 -3.40531 17.8045
386 1 -1.1104 12.1245 -3.33114 14.9557
390 1 -1.1104 12.2586 -0.642186 17.7174
391 2 2.2208 10.8416 -1.92442 19.061
393 1 -1.1104 12.4349 -0.582058 14.929
395 1 -1.1104 9.15002 -3.08661 17.6957
397 2 2.2208 8.01046 0.76108 19.4729
398 1 -1.1104 9.32164 -3.42694 14.8567
402 2 2.2208 7.98679 -1.7929 16.3011
404 1 -1.1104 9.45438 -0.50832 17.9165
405 1 -1.1104 9.59992 -0.531164 15.0279
385 1 -1.1104 12.2587 2.23751 17.9652
388 1 -1.1104 12.24 2.25681 15.0681
396 1 -1.1104 9.50008 2.15108 17.9113
400 1 -1.1104 9.45925 2.46104 15.0999
403 2 2.2208 8.20157 3.57103 16.4672
392 2 2.2208 10.8483 3.62924 19.2802
375 2 2.2208 13.5993 3.59288 22.0444
352 1 -1.1104 6.33598 2.11974 20.5805
387 1 -1.1104 12.3445 -3.26543 20.5977
401 1 -1.1104 9.24939 2.20294 20.6375
369 2 2.2208 2.46065 3.71802 16.4157
8598 2 2.2208 11.0461 -4.8106 21.9172
416 2 2.2208 5.29468 6.47042 16.4878
418 1 -1.1104 1.10027 7.76306 18.2335
420 1 -1.1104 0.954973 7.89221 15.2834
423 1 -1.1104 1.14445 5.15549 17.7607
428 1 -1.1104 0.953665 5.21442 14.9614
435 1 -1.1104 3.86466 7.98515 17.742
436 2 2.2208 2.61204 6.3886 19.2233
438 1 -1.1104 3.745 7.88318 15.1097
441 1 -1.1104 3.98263 5.0889 17.8484
443 1 -1.1104 3.57197 4.94863 14.9227
417 2 2.2208 5.19692 12.2126 16.4903
424 1 -1.1104 1.03242 10.6384 18.4014
427 2 2.2208 5.12585 9.22165 19.4351
430 1 -1.1104 0.77578 10.6041 15.3639
437 2 2.2208 2.54779 12.259 19.2707
440 2 2.2208 2.39238 9.24109 16.6454
442 1 -1.1104 3.74245 10.7222 17.9516
445 1 -1.1104 3.90108 10.6625 15.0909
439 1 -1.1104 3.89286 7.71549 20.4112
433 1 -1.1104 6.40212 10.8292 14.9845
446 1 -1.1104 3.97459 10.9423 20.4491
444 1 -1.1104 3.67736 5.0291 20.8715
429 1 -1.1104 0.761842 5.6027 20.2786
379 2 2.2208 13.6128 17.7237 19.4192
332 2 2.2208 5.17474 9.37808 13.628
8710 2 2.2208 -0.247201 -4.81383 16.3889
9478 2 2.2208 -0.425726 14.827 19.2962
426 1 -1.1104 6.8469 10.5225 18.0163
421 1 -1.1104 6.73094 7.72261 15.0323
419 1 -1.1104 6.64984 7.75169 17.9761
431 1 -1.1104 6.41306 5.03501 15.0741
425 1 -1.1104 6.71549 5.01883 17.749
452 2 2.2208 10.8418 6.44869 16.4778
454 1 -1.1104 12.455 7.70326 17.7592
455 1 -1.1104 12.3562 7.92051 15.0484
457 1 -1.1104 12.2337 5.00098 17.9413
460 1 -1.1104 12.2254 5.09638 15.1264
464 1 -1.1104 9.57005 7.85356 17.804
465 2 2.2208 7.98617 6.45493 19.2828
467 1 -1.1104 9.56302 7.91488 15.1143
470 1 -1.1104 9.30607 4.97625 17.8848
472 1 -1.1104 9.36465 5.17283 15.043
453 2 2.2208 10.8323 12.1401 16.5889
458 1 -1.1104 12.2313 10.5398 17.8321
459 2 2.2208 10.8536 9.23674 19.2258
462 1 -1.1104 12.442 10.7647 14.9583
466 2 2.2208 8.01159 11.852 19.3742
469 2 2.2208 7.85085 9.40728 16.3284
471 1 -1.1104 9.46769 10.677 17.9002
474 1 -1.1104 9.32997 10.6602 14.9181
434 1 -1.1104 6.52857 10.5008 20.5938
461 1 -1.1104 12.2431 5.11532 20.6981
463 1 -1.1104 12.146 10.7665 20.4955
475 1 -1.1104 9.38261 10.6077 20.7361
8559 2 2.2208 2.52881 -4.69062 13.6719
8551 2 2.2208 5.25399 -4.80747 27.7462
373 2 2.2208 -0.450852 6.3859 22.2094
8586 2 2.2208 8.12881 -4.75962 24.6849
8634 2 2.2208 2.47731 -4.63868 24.8174
8708 2 2.2208 5.15527 -4.60765 16.4037
478 1 -1.1104 1.05852 13.3746 17.8613
482 1 -1.1104 1.04434 13.675 15.045
498 1 -1.1104 3.79622 13.6537 17.9185
501 1 -1.1104 3.79874 13.6491 14.9848
492 2 2.2208 5.30937 14.9496 19.4069
477 2 2.2208 5.2563 17.5811 16.5179
479 1 -1.1104 0.889142 19.1215 18.0533
484 1 -1.1104 0.963185 19.1422 15.0475
490 1 -1.1104 1.00521 16.1981 17.9506
493 2 2.2208 5.30722 20.4511 19.2166
494 1 -1.1104 1.03824 16.3567 15.1153
499 1 -1.1104 3.8877 19.1649 17.8411
500 2 2.2208 2.28916 17.6665 19.3319
503 1 -1.1104 3.62072 19.1761 14.9909
505 2 2.2208 2.51154 15.0165 16.6103
506 2 2.2208 2.44397 20.6071 16.4231
507 1 -1.1104 3.89035 16.289 18.1157
508 1 -1.1104 3.77049 16.394 15.3122
502 1 -1.1104 3.68625 13.5967 20.8892
491 1 -1.1104 6.65682 16.1698 17.9084
485 1 -1.1104 1.00457 18.8526 20.7984
495 1 -1.1104 1.21247 16.2441 20.7932
596 2 2.2208 8.29643 -1.93694 27.6292
575 2 2.2208 -0.185777 0.792643 22.1615
691 1 -1.1104 9.54861 16.3194 23.6688
481 1 -1.1104 6.74366 19.0484 17.787
536 1 -1.1104 9.58042 16.0924 20.7448
517 1 -1.1104 12.3505 13.5723 20.7121
496 1 -1.1104 6.71866 16.378 15.0494
486 1 -1.1104 6.77771 13.4902 15.057
480 1 -1.1104 6.43321 13.3242 17.9755
488 1 -1.1104 6.56163 19.1144 15.0918
514 1 -1.1104 12.2039 13.5561 17.7944
516 1 -1.1104 12.4247 13.6244 15.0188
525 1 -1.1104 9.39302 13.4251 17.9102
528 1 -1.1104 9.48267 13.3536 15.0302
521 2 2.2208 10.9107 14.8927 19.4021
513 2 2.2208 10.9379 17.7437 16.5744
515 1 -1.1104 12.103 19.2546 17.8738
518 1 -1.1104 12.1716 19.1994 15.0499
520 1 -1.1104 12.2232 16.4332 17.9008
522 2 2.2208 10.8529 20.6526 19.3469
523 1 -1.1104 12.2599 16.4395 15.0968
526 1 -1.1104 9.34533 19.3419 17.9355
527 2 2.2208 7.99185 17.7269 19.1025
530 1 -1.1104 9.4109 19.1084 15.1098
532 2 2.2208 8.19191 14.7483 16.4585
533 2 2.2208 7.856 20.5775 16.4856
534 1 -1.1104 9.49181 16.2648 17.9208
535 1 -1.1104 9.41931 16.1528 15.1577
529 1 -1.1104 9.29455 13.3451 20.9309
497 1 -1.1104 6.64134 16.3604 20.5851
487 1 -1.1104 6.47426 13.5389 20.7774
531 1 -1.1104 9.38034 18.9783 20.715
489 1 -1.1104 6.55461 19.2438 20.6811
374 2 2.2208 13.6174 9.17134 22.0874
694 1 -1.1104 9.50429 19.0685 26.2852
540 2 2.2208 13.606 17.7949 13.7242
9439 2 2.2208 13.3872 20.5723 16.4765
541 2 2.2208 5.25807 0.859002 22.0604
542 1 -1.1104 1.001 -3.31952 23.4126
546 1 -1.1104 1.03595 -3.12239 26.1236
550 1 -1.1104 1.10028 -0.753155 23.671
552 2 2.2208 5.37997 -2.07775 24.9119
554 1 -1.1104 1.14474 -0.491921 26.4224
556 1 -1.1104 4.1915 -3.58113 23.336
558 2 2.2208 2.43938 0.731896 24.9646
559 1 -1.1104 3.83679 -3.31146 26.2763
561 2 2.2208 2.43713 -1.99425 22.1043
563 1 -1.1104 3.8493 -0.819616 23.5937
564 1 -1.1104 3.91657 -0.435213 26.3309
543 1 -1.1104 0.990045 2.10844 23.6333
547 1 -1.1104 1.05994 2.30187 26.3249
557 1 -1.1104 3.71753 2.06457 23.4451
560 1 -1.1104 3.87861 2.10504 26.2724
562 2 2.2208 2.49056 3.55276 22.1837
553 2 2.2208 5.25731 3.53842 25.1056
548 1 -1.1104 6.79312 -3.20409 26.2935
549 1 -1.1104 6.73266 2.1595 26.4741
692 2 2.2208 8.10084 20.4873 22.2785
678 1 -1.1104 6.77669 16.2146 23.4239
334 2 2.2208 5.31222 14.9003 13.6546
9375 2 2.2208 -0.383569 12.1257 16.5213
659 2 2.2208 13.6665 6.42121 24.9775
566 2 2.2208 10.9341 20.4634 24.8849
399 1 -1.1104 9.64927 -3.32005 20.579
389 1 -1.1104 12.2569 2.28681 20.7784
382 2 2.2208 10.8863 17.7164 22.1106
690 1 -1.1104 9.48734 16.3127 26.6036
661 1 -1.1104 6.66945 13.4446 26.386
519 1 -1.1104 12.3374 19.0887 20.8042
551 1 -1.1104 6.86629 -0.465529 23.5372
394 1 -1.1104 12.3287 -0.681974 20.5022
406 1 -1.1104 9.64969 -0.566062 20.5603
545 1 -1.1104 6.5133 2.19152 23.575
555 1 -1.1104 6.78454 -0.526579 26.1766
544 1 -1.1104 6.83813 -3.17953 23.4634
577 2 2.2208 11.0372 0.778907 22.1081
578 1 -1.1104 12.4375 -3.42535 23.3858
580 1 -1.1104 12.4254 -3.57192 26.1665
582 1 -1.1104 12.439 -0.641424 23.2855
583 2 2.2208 10.8887 -2.00268 24.7759
585 1 -1.1104 12.5555 -0.626201 26.1827
586 1 -1.1104 9.62057 -3.40299 23.4257
588 2 2.2208 8.20504 0.966196 24.9524
589 1 -1.1104 9.50973 -3.35391 26.2355
591 2 2.2208 8.1626 -1.92681 22.0984
593 1 -1.1104 9.65195 -0.558908 23.5644
594 1 -1.1104 9.7129 -0.49637 26.4698
579 1 -1.1104 12.2252 2.12211 23.7202
581 1 -1.1104 12.3561 2.24374 26.5258
587 1 -1.1104 9.36722 2.18628 23.4734
590 1 -1.1104 9.63443 2.19566 26.4139
584 2 2.2208 10.927 3.57768 25.0861
656 2 2.2208 10.8395 12.1213 27.7493
432 1 -1.1104 6.7055 4.85386 20.5207
606 2 2.2208 5.32542 6.40935 22.287
608 1 -1.1104 0.629745 7.54206 23.8732
610 1 -1.1104 1.17634 7.64053 26.3914
612 1 -1.1104 1.11874 4.9638 23.2551
617 1 -1.1104 1.21725 5.02454 26.2357
621 1 -1.1104 4.05432 7.51571 23.6692
622 2 2.2208 2.53076 6.40346 24.9592
624 1 -1.1104 3.71322 7.72823 26.2793
625 1 -1.1104 3.98776 5.00701 23.581
627 1 -1.1104 3.93164 4.97343 26.4133
607 2 2.2208 5.23566 11.9667 22.1469
613 1 -1.1104 0.954708 10.7508 23.5854
616 2 2.2208 5.27388 9.16588 24.8913
618 1 -1.1104 0.955853 10.5817 26.508
623 2 2.2208 2.58882 12.0684 24.9198
626 1 -1.1104 4.14079 10.6166 23.7905
628 1 -1.1104 3.89317 10.4957 26.2739
633 2 2.2208 -0.322243 9.25372 24.8947
657 2 2.2208 13.6596 12.1224 24.8122
667 1 -1.1104 6.57799 19.199 23.7265
592 2 2.2208 7.9981 3.67973 22.0482
620 1 -1.1104 6.69594 10.5858 26.4682
456 1 -1.1104 12.1784 7.745 20.6967
614 1 -1.1104 6.86864 5.01871 23.5358
422 1 -1.1104 6.83637 7.74097 20.8144
468 1 -1.1104 9.50896 8.00805 20.6755
473 1 -1.1104 9.47161 5.12486 20.6561
611 1 -1.1104 6.51506 7.59215 26.4602
619 1 -1.1104 6.59071 4.74321 26.5384
615 1 -1.1104 6.79483 10.6278 23.4499
609 1 -1.1104 6.8299 7.85806 23.6237
637 1 -1.1104 9.63692 5.10353 26.4246
639 1 -1.1104 9.46402 5.05923 23.6017
641 1 -1.1104 9.24109 7.90134 26.4336
643 2 2.2208 8.05049 6.3863 25.0583
644 2 2.2208 10.8412 6.46358 22.219
646 1 -1.1104 12.3169 7.76507 23.7164
647 1 -1.1104 12.2487 7.85732 26.439
648 1 -1.1104 12.2561 4.9803 23.6241
651 1 -1.1104 12.3724 5.10088 26.3449
653 1 -1.1104 9.52469 7.8501 23.5755
636 1 -1.1104 9.59689 10.6981 26.5657
638 1 -1.1104 9.44309 10.4776 23.6867
640 2 2.2208 8.14572 9.15014 22.1577
642 2 2.2208 8.06661 12.0734 24.8133
645 2 2.2208 10.8431 12.0805 22.0938
649 1 -1.1104 12.5234 10.733 23.3623
650 2 2.2208 10.8201 9.07597 25.0633
652 1 -1.1104 12.2657 10.4648 26.2697
570 1 -1.1104 12.2432 16.3786 26.2533
663 1 -1.1104 6.58633 16.2771 26.3838
670 1 -1.1104 6.57355 13.4994 23.5697
509 1 -1.1104 3.95984 16.6301 20.6596
483 1 -1.1104 0.85529 13.4322 20.9308
504 1 -1.1104 3.61517 19.3725 20.669
662 1 -1.1104 3.78393 13.6763 23.5264
666 1 -1.1104 1.17473 13.4584 26.5686
672 1 -1.1104 0.993018 13.6136 23.7111
677 1 -1.1104 3.94929 13.3402 26.2536
660 1 -1.1104 3.90019 19.0674 23.429
664 1 -1.1104 1.0011 19.1369 26.3742
665 1 -1.1104 1.08052 16.1273 26.3801
668 2 2.2208 5.23581 20.3854 24.9818
669 2 2.2208 5.25265 14.796 24.9838
671 1 -1.1104 1.1169 19.1635 23.6566
673 2 2.2208 5.24402 17.8657 22.0484
674 1 -1.1104 3.93735 19.1653 26.4575
675 2 2.2208 2.49905 17.8792 24.9894
676 1 -1.1104 3.82707 16.2499 26.2335
679 1 -1.1104 1.09679 16.4187 23.5681
680 1 -1.1104 3.90908 16.2844 23.6773
681 2 2.2208 2.52317 20.5013 22.1561
682 2 2.2208 2.35876 14.9483 22.1409
693 2 2.2208 7.95521 14.7654 22.1184
448 1 -1.1104 12.2174 13.7146 26.372
697 2 2.2208 8.12098 17.7505 25.0014
687 1 -1.1104 9.44153 19.0124 23.5355
449 1 -1.1104 12.2403 19.1827 26.3937
408 1 -1.1104 12.2307 13.386 23.4925
447 1 -1.1104 12.2324 19.0933 23.5279
510 1 -1.1104 12.4886 16.1479 23.3356
696 1 -1.1104 6.74603 19.163 26.3955
524 1 -1.1104 12.4283 16.1814 20.6299
695 1 -1.1104 9.36961 13.5882 26.2405
511 2 2.2208 10.9387 14.9899 24.9214
573 1 -1.1104 9.46551 13.2872 23.5096
576 2 2.2208 -0.392313 3.72671 24.9931
378 2 2.2208 8.03324 14.9073 27.661
451 2 2.2208 10.8599 9.20174 13.7592
683 2 2.2208 2.39274 20.4995 27.751
9337 2 2.2208 -0.348211 3.69917 19.1521
686 2 2.2208 -0.267079 14.9546 24.8045
338 2 2.2208 -0.31434 0.66273 27.7073
407 2 2.2208 13.5997 15.0188 16.4081
411 2 2.2208 13.6113 -2.18519 16.2578
328 2 2.2208 2.52705 0.800097 13.8027
539 2 2.2208 8.03004 17.9343 13.7098
8553 2 2.2208 -0.346389 -4.60794 27.5429
327 2 2.2208 5.29817 -1.78713 13.7809
329 2 2.2208 5.33761 3.58254 13.6961
567 2 2.2208 2.45592 3.71521 27.6645
685 2 2.2208 2.47822 15.1368 27.7235
337 2 2.2208 -0.292361 3.65905 13.8116
698 2 2.2208 5.18969 23.2759 5.2575
700 1 -1.1104 0.904208 24.6906 0.945304
701 1 -1.1104 0.839048 24.6806 3.97506
702 1 -1.1104 0.825444 21.9209 0.960868
703 1 -1.1104 0.946472 27.2837 1.15746
704 2 2.2208 5.04999 25.9198 2.23901
705 1 -1.1104 0.877641 21.928 3.806
707 1 -1.1104 3.73733 24.5365 0.925701
708 2 2.2208 2.25448 23.3147 2.44962
710 1 -1.1104 3.61111 24.5286 3.8722
711 2 2.2208 2.30729 26.0909 5.24593
712 1 -1.1104 3.74512 21.842 0.94947
714 1 -1.1104 3.81172 21.9648 3.78613
715 1 -1.1104 3.80051 27.3252 3.83852
706 1 -1.1104 0.858149 27.3634 3.84428
713 1 -1.1104 3.74047 27.3721 1.08878
699 2 2.2208 5.16819 28.8737 5.06766
709 2 2.2208 2.17357 28.7598 2.49677
722 1 -1.1104 6.69042 27.6753 0.983047
720 1 -1.1104 6.54625 24.7395 3.72617
721 1 -1.1104 6.41142 21.9128 0.927897
724 1 -1.1104 6.5877 27.5609 3.57222
9898 2 2.2208 13.7212 45.8705 2.67294
839 1 -1.1104 1.07934 24.802 6.73622
840 1 -1.1104 6.56775 24.7552 6.66897
9899 2 2.2208 13.6878 40.3012 2.63471
9894 2 2.2208 -0.422156 37.4063 2.45017
719 1 -1.1104 6.64251 24.7539 0.931883
723 1 -1.1104 6.75493 21.9857 3.87597
725 2 2.2208 10.631 23.5389 5.23929
727 1 -1.1104 12.3397 24.8254 1.18738
728 1 -1.1104 12.1563 24.6262 3.87109
729 1 -1.1104 12.1953 21.956 0.911338
731 2 2.2208 10.8673 26.1477 2.39675
732 1 -1.1104 12.2341 21.9803 3.80171
734 1 -1.1104 9.48914 24.7732 1.10584
735 2 2.2208 8.01295 23.4021 2.51188
737 1 -1.1104 9.47088 24.871 3.87848
738 2 2.2208 7.98757 26.2055 5.29323
739 1 -1.1104 9.321 21.9288 1.03458
740 1 -1.1104 9.50201 27.537 1.00408
741 1 -1.1104 9.46002 22.2026 3.87679
730 1 -1.1104 12.3435 27.6121 0.915861
726 2 2.2208 10.7979 28.8837 5.19833
733 1 -1.1104 12.1261 27.4667 3.75683
736 2 2.2208 8.0514 29.0015 2.50979
742 1 -1.1104 9.32975 27.5386 3.94279
874 1 -1.1104 12.2693 27.5084 6.72923
873 1 -1.1104 12.2426 21.9764 6.40526
1317 2 2.2208 8.04052 37.4643 -0.287552
9673 2 2.2208 13.6089 42.9361 5.41975
9891 2 2.2208 13.6478 26.2136 5.13027
1231 2 2.2208 10.7285 40.1873 -0.148898
747 1 -1.1104 0.92269 30.2683 0.9602
750 1 -1.1104 0.856002 30.1546 3.8059
753 1 -1.1104 1.10101 33.0816 1.4084
754 2 2.2208 5.17417 31.9217 2.47672
756 1 -1.1104 1.08766 32.9549 3.95446
758 1 -1.1104 3.65003 30.2853 1.17831
761 1 -1.1104 3.69034 30.2068 3.81701
763 2 2.2208 2.29119 31.7097 5.43659
765 1 -1.1104 3.80316 33.2338 1.0907
766 1 -1.1104 3.74464 33.2124 4.03857
746 2 2.2208 5.14978 34.6756 5.32854
748 1 -1.1104 0.976202 35.9544 1.02586
751 1 -1.1104 1.08929 36.0306 3.77377
755 2 2.2208 5.2797 37.4259 2.43972
759 1 -1.1104 3.7323 35.9362 1.10166
760 2 2.2208 2.42121 34.6066 2.5915
762 1 -1.1104 3.86121 36.0346 3.81529
764 2 2.2208 2.40677 37.3175 5.24296
900 1 -1.1104 1.00622 33.3708 6.75057
903 1 -1.1104 3.66801 35.917 6.5951
902 1 -1.1104 3.98408 30.3303 6.60367
770 1 -1.1104 6.52079 30.3934 1.20593
771 1 -1.1104 6.63963 30.3987 4.21061
1318 2 2.2208 8.03542 31.7623 -0.311184
772 1 -1.1104 6.70903 33.1736 1.11924
1399 1 -1.1104 12.1821 47.091 1.2841
749 1 -1.1104 6.60106 36.0631 1.07773
994 2 2.2208 7.99825 40.18 8.16242
9795 2 2.2208 13.6994 31.8225 11.0623
757 1 -1.1104 6.51878 33.0923 3.90194
899 1 -1.1104 6.41454 35.9739 6.64791
752 1 -1.1104 6.79047 35.8649 3.7461
774 1 -1.1104 12.3176 30.4044 1.05418
776 1 -1.1104 12.4766 30.5048 3.69241
778 1 -1.1104 12.5938 33.3246 0.922723
779 2 2.2208 10.8347 31.7227 2.64009
781 1 -1.1104 12.3612 33.0916 3.70718
782 1 -1.1104 9.48162 30.2434 1.06999
785 1 -1.1104 9.58051 30.407 3.86399
787 2 2.2208 8.0528 31.8618 5.41776
789 1 -1.1104 9.67993 33.146 1.05812
790 1 -1.1104 9.41954 33.2124 3.88664
773 2 2.2208 11.0182 34.7017 5.29541
775 1 -1.1104 12.1487 36.1368 0.86487
777 1 -1.1104 12.3738 35.9818 3.83581