ITEM: TIMESTEP
80000
ITEM: NUMBER OF ATOMS
17910
ITEM: BOX BOUNDS pp pp pp
-4.0378164019263219e-01 2.7743781640192950e+01
-4.9010313061399531e+00 3.3298103130614811e+02
-3.9625657738722675e-01 2.7736256577387618e+01
ITEM: ATOMS id type q x y z
1 2 2.2208 5.19072 0.65394 5.09927
2 1 -1.1104 0.758814 -3.51841 0.948281
6 1 -1.1104 1.10593 -3.56696 3.82223
10 1 -1.1104 0.958499 -0.545683 0.996678
12 2 2.2208 5.17575 -2.17937 2.37566
14 1 -1.1104 0.916889 -0.758761 3.80291
16 1 -1.1104 3.76332 -3.53152 0.918212
18 2 2.2208 2.36477 0.776736 2.23725
19 1 -1.1104 3.80911 -3.60391 3.81202
21 2 2.2208 2.41064 -2.14926 5.20507
23 1 -1.1104 3.73478 -0.713328 1.01608
24 1 -1.1104 3.81152 -0.72788 3.69631
3 1 -1.1104 0.967855 2.23741 1.01369
7 1 -1.1104 0.906263 2.07078 3.74267
17 1 -1.1104 3.66822 1.98342 0.847243
20 1 -1.1104 3.61202 2.15788 3.71425
22 2 2.2208 2.17025 3.40782 5.19613
13 2 2.2208 5.1587 3.50588 2.32821
4 1 -1.1104 6.58363 -3.59183 1.03989
15 1 -1.1104 6.53535 -0.742171 3.67334
8 1 -1.1104 6.6674 -3.6875 3.82216
168 1 -1.1104 6.4785 -3.53368 6.65056
5 1 -1.1104 6.41676 2.14152 0.844077
172 1 -1.1104 3.88102 -3.61222 6.61572
11 1 -1.1104 6.56272 -0.732602 0.812498
166 1 -1.1104 0.885121 -3.46326 6.5329
171 1 -1.1104 6.57462 -0.804928 6.57226
9 1 -1.1104 6.40447 2.16062 3.64061
170 1 -1.1104 0.860241 -0.635977 6.74775
167 1 -1.1104 0.882442 2.194 6.59429
173 1 -1.1104 3.76078 2.06819 6.42143
8559 2 2.2208 2.22322 -4.83386 13.4359
331 2 2.2208 2.35021 6.47971 13.5353
169 1 -1.1104 6.61663 2.17018 6.41564
49 2 2.2208 13.4974 0.73982 2.44832
31 2 2.2208 10.6279 0.920774 5.08038
32 1 -1.1104 12.1561 -3.57992 1.12198
34 1 -1.1104 12.2359 -3.42217 3.81222
36 1 -1.1104 12.043 -0.567467 1.01231
37 2 2.2208 10.7036 -1.95615 2.35645
39 1 -1.1104 11.9969 -0.609669 4.00642
40 1 -1.1104 9.36279 -3.33074 1.00903
42 2 2.2208 7.77941 0.708187 2.25487
43 1 -1.1104 9.32815 -3.53406 3.67432
45 2 2.2208 7.97528 -1.93529 5.19254
47 1 -1.1104 9.29067 -0.427466 0.846535
48 1 -1.1104 9.12378 -0.586815 3.68579
33 1 -1.1104 12.1903 2.04053 0.974752
35 1 -1.1104 12.2714 2.20041 3.50275
41 1 -1.1104 9.18541 2.1889 0.874342
44 1 -1.1104 9.28812 2.1694 3.64083
46 2 2.2208 7.99499 3.56987 4.98892
38 2 2.2208 10.6579 3.61491 2.35496
210 1 -1.1104 9.3269 -0.464879 6.60598
206 1 -1.1104 12.166 2.13516 6.46561
205 1 -1.1104 12.3886 -3.70805 6.4562
207 1 -1.1104 12.0588 -0.690777 6.74808
209 1 -1.1104 9.2852 2.23733 6.39982
202 2 2.2208 13.5927 14.668 5.18726
165 2 2.2208 13.5503 17.6419 2.45333
54 2 2.2208 5.18737 6.23775 5.19461
56 1 -1.1104 0.892073 7.82895 0.921876
58 1 -1.1104 0.885901 7.57225 3.697
60 1 -1.1104 0.664164 4.86316 0.852968
67 1 -1.1104 0.866252 4.92658 3.65861
71 1 -1.1104 3.96583 7.6786 1.02355
72 2 2.2208 2.4848 6.36539 2.46595
74 1 -1.1104 3.67685 8.01321 3.69177
76 1 -1.1104 3.60054 4.70061 0.977071
79 1 -1.1104 3.88818 5.04918 3.72136
55 2 2.2208 5.1403 11.9201 5.17255
61 1 -1.1104 1.11287 10.7427 0.822139
66 2 2.2208 5.22029 9.1076 2.374
68 1 -1.1104 1.03386 10.4759 3.68143
73 2 2.2208 2.47485 11.9695 2.36974
75 2 2.2208 2.25833 9.158 5.21822
77 1 -1.1104 3.86008 10.6366 0.877072
80 1 -1.1104 3.90154 10.6551 3.49692
70 1 -1.1104 6.8118 10.5114 3.68944
63 1 -1.1104 6.63351 4.95769 0.964306
64 1 -1.1104 6.48903 10.7087 0.967286
57 1 -1.1104 6.75689 7.80348 1.08287
239 1 -1.1104 3.71866 4.87913 6.57797
62 1 -1.1104 0.851654 10.5618 6.48805
238 1 -1.1104 3.52984 7.7335 6.49425
78 1 -1.1104 3.67865 10.4165 6.37941
237 1 -1.1104 6.59552 5.02045 6.64098
235 1 -1.1104 6.52965 7.714 6.41072
69 1 -1.1104 6.49925 4.92472 3.68888
236 1 -1.1104 0.875849 4.88103 6.62793
136 2 2.2208 13.5648 14.7462 10.7596
59 1 -1.1104 6.58162 7.6844 3.8311
84 2 2.2208 10.7238 6.23325 5.2732
86 1 -1.1104 12.2709 7.47646 0.988039
87 1 -1.1104 12.1592 7.65518 3.88797
88 1 -1.1104 12.1733 4.71824 0.967599
92 1 -1.1104 12.1788 4.83877 3.92222
94 1 -1.1104 9.40689 7.65293 1.20372
95 2 2.2208 7.98357 6.24635 2.41951
97 1 -1.1104 9.29736 7.8294 3.69656
99 1 -1.1104 9.41012 4.83088 0.922864
102 1 -1.1104 9.41944 5.05069 3.65972
85 2 2.2208 10.7072 12.0033 5.06163
89 1 -1.1104 12.1022 10.4305 0.94848
91 2 2.2208 10.8684 9.04415 2.38333
93 1 -1.1104 12.376 10.521 3.82744
96 2 2.2208 7.9745 11.9169 2.2309
98 2 2.2208 8.03329 9.10986 5.09398
100 1 -1.1104 9.40854 10.5568 0.963988
103 1 -1.1104 9.63011 10.4353 3.9713
265 1 -1.1104 11.9605 7.67392 6.78658
269 1 -1.1104 9.21812 5.0828 6.52095
90 1 -1.1104 12.1259 10.6184 6.49633
8976 2 2.2208 -0.332951 17.637 5.17921
267 1 -1.1104 9.241 7.69776 6.52215
266 1 -1.1104 12.1155 4.94173 6.59667
631 2 2.2208 5.14578 12.0745 -0.373781
101 1 -1.1104 9.24767 10.5062 6.73708
65 1 -1.1104 6.40611 10.6635 6.62129
107 1 -1.1104 1.00653 13.425 0.847741
113 1 -1.1104 1.12109 13.3626 3.70842
123 1 -1.1104 3.98543 13.4435 1.0839
128 1 -1.1104 4.02124 13.5815 3.79467
106 2 2.2208 5.37405 17.6952 5.19348
109 1 -1.1104 0.971604 19.0832 1.0937
114 1 -1.1104 0.842068 19.1974 3.85154
116 1 -1.1104 1.04946 16.1764 1.02646
119 2 2.2208 5.15798 14.9197 2.27064
120 2 2.2208 5.31241 20.5093 2.18013
121 1 -1.1104 1.08338 16.2769 3.7029
125 1 -1.1104 3.87665 19.0553 0.853452
127 2 2.2208 2.39322 17.672 2.56835
129 1 -1.1104 3.66441 19.0372 3.72948
130 2 2.2208 2.57075 14.9772 5.25916
131 2 2.2208 2.53816 20.5325 5.15888
132 1 -1.1104 3.75926 16.3339 1.11185
134 1 -1.1104 3.88625 16.4291 3.94783
139 1 -1.1104 6.4789 19.0036 3.69057
140 1 -1.1104 6.59715 16.1704 0.837852
110 1 -1.1104 6.57543 13.4932 0.90424
126 1 -1.1104 3.89738 19.1097 6.61786
124 1 -1.1104 3.7002 13.2377 6.63088
138 1 -1.1104 6.72847 19.1154 0.955516
122 1 -1.1104 6.64958 16.0541 3.76148
112 1 -1.1104 6.80721 18.9218 6.74428
117 1 -1.1104 1.01189 16.2979 6.76564
302 1 -1.1104 1.10766 19.0733 6.41342
118 1 -1.1104 6.66727 16.0657 6.65186
115 1 -1.1104 6.69564 13.1916 3.87552
133 1 -1.1104 3.90827 16.3218 6.6355
108 1 -1.1104 1.07689 13.3632 6.50122
111 1 -1.1104 6.5524 13.3954 6.65456
325 2 2.2208 10.859 14.81 8.11439
149 1 -1.1104 12.2388 15.9806 6.7361
142 1 -1.1104 12.2025 13.2361 0.978594
146 1 -1.1104 12.245 13.3111 3.5961
153 1 -1.1104 9.40985 13.3901 0.898913
158 1 -1.1104 9.36526 13.2989 3.77903
141 2 2.2208 10.9126 17.4969 5.16818
144 1 -1.1104 12.1853 19.0451 0.841422
147 1 -1.1104 12.1667 18.9602 3.7847
148 1 -1.1104 12.2472 16.0068 0.873968
150 2 2.2208 10.8222 14.5534 2.28331
151 2 2.2208 10.898 20.3072 2.27334
152 1 -1.1104 12.2446 16.3204 3.727
155 1 -1.1104 9.32735 18.9837 1.01862
157 2 2.2208 7.9256 17.5071 2.41629
159 1 -1.1104 9.49971 18.8676 3.85418
160 2 2.2208 8.06186 14.7616 5.12691
161 2 2.2208 8.07179 20.3955 5.03087
162 1 -1.1104 9.53507 16.2471 1.11782
164 1 -1.1104 9.6127 16.0867 3.79662
143 1 -1.1104 12.2631 13.3509 6.57547
163 1 -1.1104 9.45361 16.0712 6.477
154 1 -1.1104 9.37286 13.191 6.55664
204 2 2.2208 13.5763 3.46653 5.16386
52 2 2.2208 13.5988 6.38486 7.95474
156 1 -1.1104 9.57877 18.8651 6.55182
174 1 -1.1104 3.73475 -0.700799 6.44714
568 2 2.2208 13.6444 6.30206 13.5912
8536 2 2.2208 10.8153 -4.71112 5.14175
329 2 2.2208 5.22633 3.61495 13.5069
175 2 2.2208 4.99887 0.806677 10.7401
176 1 -1.1104 0.990994 -3.51121 12.0613
180 1 -1.1104 0.973206 -3.39585 9.41863
184 1 -1.1104 0.749552 -0.728286 12.155
186 2 2.2208 5.12929 -2.01096 7.89524
188 1 -1.1104 0.971925 -0.61316 9.4356
190 1 -1.1104 3.63785 -3.42801 11.969
192 2 2.2208 2.33521 0.837502 7.97682
193 1 -1.1104 3.7868 -3.30639 9.3421
195 2 2.2208 2.32096 -1.99608 10.7836
197 1 -1.1104 3.78617 -0.641152 12.0737
198 1 -1.1104 3.68861 -0.396368 9.15152
177 1 -1.1104 1.00708 2.09435 12.3281
181 1 -1.1104 0.892625 2.10787 9.55477
191 1 -1.1104 3.9121 2.22527 12.0233
194 1 -1.1104 3.73636 2.32438 9.39235
196 2 2.2208 2.31691 3.55977 10.7718
187 2 2.2208 5.17828 3.60335 7.85054
189 1 -1.1104 6.54659 -0.520796 9.18634
183 1 -1.1104 6.56097 2.19262 9.39509
182 1 -1.1104 6.63625 -3.40668 9.33819
178 1 -1.1104 6.51693 -3.4519 12.2012
208 1 -1.1104 9.50104 -3.27484 6.56836
313 1 -1.1104 12.164 18.958 12.4885
569 2 2.2208 13.5729 11.7201 13.5635
230 2 2.2208 13.5876 -2.11206 10.8847
654 2 2.2208 10.9339 6.21648 -0.388896
135 2 2.2208 -0.369952 14.6974 2.27729
185 1 -1.1104 6.56025 -0.59676 12.1467
179 1 -1.1104 6.64818 2.38565 12.1673
8538 2 2.2208 2.38936 -4.78667 7.98337
211 2 2.2208 10.866 0.785296 10.8135
212 1 -1.1104 12.0672 -3.37274 12.2063
214 1 -1.1104 12.1577 -3.59082 9.36722
216 1 -1.1104 12.2724 -0.67379 12.3053
217 2 2.2208 10.5976 -2.07398 8.1038
219 1 -1.1104 12.3201 -0.686708 9.57959
220 1 -1.1104 9.22344 -3.34117 12.3907
222 2 2.2208 7.96632 0.8559 7.97418
223 1 -1.1104 9.438 -3.46955 9.3769
225 2 2.2208 7.99475 -2.04639 10.8049
227 1 -1.1104 9.42741 -0.584172 12.0982
228 1 -1.1104 9.63884 -0.554866 9.33461
213 1 -1.1104 12.1302 2.20011 12.259
215 1 -1.1104 12.1706 2.00439 9.20253
221 1 -1.1104 9.51233 2.30203 12.189
224 1 -1.1104 9.4412 2.30159 9.33314
226 2 2.2208 7.93251 3.52418 10.6841
218 2 2.2208 10.4702 3.66443 7.93855
53 2 2.2208 13.5992 3.46866 10.8124
315 1 -1.1104 9.51598 16.0961 12.1813
414 2 2.2208 10.8583 -2.00472 13.535
8539 2 2.2208 5.11209 -4.74105 10.8014
234 1 -1.1104 1.0556 7.8566 6.68578
9108 2 2.2208 -0.330133 20.5285 2.26324
240 2 2.2208 5.11682 6.35554 10.804
242 1 -1.1104 0.91849 7.66816 12.4414
244 1 -1.1104 0.827692 7.89858 9.65145
246 1 -1.1104 0.928235 4.77064 12.3283
251 1 -1.1104 0.996797 4.90416 9.34323
255 1 -1.1104 3.8737 7.94431 12.2992
256 2 2.2208 2.26683 6.34024 8.1054
258 1 -1.1104 3.67285 7.89732 9.56051
260 1 -1.1104 3.45734 5.03045 12.1031
262 1 -1.1104 3.80015 5.10012 9.32677
241 2 2.2208 5.11399 12.0342 10.8912
247 1 -1.1104 0.980156 10.3387 12.4275
250 2 2.2208 5.14729 9.09868 7.89855
252 1 -1.1104 0.847624 10.5111 9.55699
257 2 2.2208 2.40997 11.8956 8.01016
259 2 2.2208 2.33467 9.20307 10.9609
261 1 -1.1104 3.76494 10.5613 12.3308
263 1 -1.1104 3.64994 10.6334 9.42233
249 1 -1.1104 6.49569 10.6102 12.2565
253 1 -1.1104 6.4478 4.9102 9.17039
248 1 -1.1104 6.32712 4.99824 11.9781
245 1 -1.1104 6.60699 7.69667 9.37393
243 1 -1.1104 6.67184 7.78696 12.292
9252 2 2.2208 -0.315385 20.4379 13.5933
254 1 -1.1104 6.41921 10.5209 9.4777
30 2 2.2208 13.4932 9.03474 10.897
8975 2 2.2208 -0.2471 20.4329 7.94999
476 2 2.2208 7.92204 6.40673 13.5863
8949 2 2.2208 -0.330762 14.7902 7.89424
231 1 -1.1104 12.2761 13.4214 9.36313
203 2 2.2208 13.4229 9.20001 5.23047
8537 2 2.2208 13.6068 -4.78172 2.42545
268 1 -1.1104 9.26055 4.94103 9.37298
271 1 -1.1104 9.48714 4.97887 12.0427
273 1 -1.1104 9.36044 7.77289 9.4135
275 2 2.2208 8.04144 6.33341 8.09407
276 2 2.2208 10.8345 6.28569 10.7604
278 1 -1.1104 12.0034 7.65678 12.2176
279 1 -1.1104 12.1199 7.76511 9.33027
280 1 -1.1104 12.2439 5.04374 12.1637
283 1 -1.1104 12.344 4.95096 9.3032
285 1 -1.1104 9.24122 7.66805 12.1417
264 1 -1.1104 9.3108 10.5126 9.48181
270 1 -1.1104 9.29673 10.4524 12.2841
272 2 2.2208 7.90222 9.26508 10.8098
274 2 2.2208 7.88704 11.8527 8.00694
277 2 2.2208 10.88 12.0141 10.7647
281 1 -1.1104 12.2292 10.4841 12.2511
282 2 2.2208 10.8002 9.34834 7.9723
284 1 -1.1104 12.3284 10.5393 9.41301
451 2 2.2208 10.7759 9.09141 13.6642
512 2 2.2208 5.3161 20.4195 13.4332
8555 2 2.2208 7.95412 -4.82553 13.6164
306 1 -1.1104 6.71441 15.9741 12.3021
289 1 -1.1104 6.64281 16.1271 9.43774
296 1 -1.1104 6.6333 18.9352 12.1089
287 1 -1.1104 3.92723 13.4154 12.2877
294 1 -1.1104 1.04158 13.3574 9.26147
299 1 -1.1104 1.02538 13.0724 12.1765
305 1 -1.1104 3.83358 13.1961 9.43368
286 1 -1.1104 3.80573 18.9257 12.3557
291 1 -1.1104 0.997138 19.0027 9.48457
292 1 -1.1104 0.951205 16.1773 9.52506
293 2 2.2208 5.24915 20.4178 7.95052
295 2 2.2208 5.28397 14.8407 8.07207
298 1 -1.1104 1.19979 19.0698 12.2608
300 2 2.2208 5.21149 17.6208 10.6756
301 1 -1.1104 3.84316 19.0498 9.42565
303 2 2.2208 2.33923 17.6337 7.96794
304 1 -1.1104 3.61832 16.2692 9.30193
307 1 -1.1104 0.948311 16.0292 12.314
308 1 -1.1104 4.03555 16.3359 12.1528
309 2 2.2208 2.48678 20.2049 10.7446
310 2 2.2208 2.21282 14.602 10.8443
297 1 -1.1104 6.74996 13.4058 12.4068
290 1 -1.1104 6.74767 13.2113 9.57762
335 2 2.2208 2.38692 17.4637 13.5815
322 1 -1.1104 9.58757 13.5636 12.4029
145 1 -1.1104 12.349 18.9522 6.69307
321 1 -1.1104 9.36053 18.7877 12.2186
104 2 2.2208 13.6591 11.84 2.37811
82 2 2.2208 -0.382213 9.17755 2.2439
314 1 -1.1104 9.47451 16.1442 9.42048
320 2 2.2208 8.04559 17.4832 7.9087
288 1 -1.1104 6.63783 18.9471 9.34275
9210 2 2.2208 13.6369 20.2812 10.9604
317 2 2.2208 8.07521 14.689 10.9936
311 2 2.2208 10.8903 17.5294 10.8998
324 2 2.2208 10.956 20.3749 7.81793
318 1 -1.1104 9.62067 18.8795 9.31124
232 1 -1.1104 12.3609 18.8548 9.71105
233 1 -1.1104 12.4519 16.0657 12.2894
316 2 2.2208 8.17695 20.172 10.7116
323 1 -1.1104 12.1703 16.0612 9.63434
327 2 2.2208 5.0786 -1.92065 13.4975
319 1 -1.1104 9.48538 13.2326 9.35146
312 1 -1.1104 12.2345 13.2211 12.1439
229 2 2.2208 13.5427 0.628194 8.14224
83 2 2.2208 -0.309864 11.9576 5.20152
413 2 2.2208 8.01749 0.781656 13.5843
630 2 2.2208 2.46608 9.15595 -0.384423
684 2 2.2208 5.1937 17.6292 -0.368272
334 2 2.2208 5.18271 14.7636 13.6195
539 2 2.2208 8.00531 17.5598 13.6378
450 2 2.2208 7.92108 11.9727 13.6657
340 2 2.2208 5.24546 0.82461 16.3813
341 1 -1.1104 1.08434 -3.32126 17.8212
345 1 -1.1104 0.926203 -3.61852 14.9482
353 1 -1.1104 0.970779 -0.49599 17.6777
355 2 2.2208 5.30883 -2.26651 19.1472
357 1 -1.1104 1.05118 -0.777005 14.948
361 1 -1.1104 4.0379 -3.63953 17.8455
363 2 2.2208 2.47142 0.603388 19.1601
364 1 -1.1104 3.72433 -3.27273 14.901
368 2 2.2208 2.34007 -2.09282 16.4246
370 1 -1.1104 3.78049 -0.757226 17.8238
371 1 -1.1104 3.82715 -0.56171 14.9744
342 1 -1.1104 0.9168 2.13161 17.9103
347 1 -1.1104 0.937998 2.11846 15.0488
362 1 -1.1104 3.76952 2.13477 17.7108
366 1 -1.1104 3.69425 2.16573 15.098
356 2 2.2208 5.05106 3.46253 19.2364
369 2 2.2208 2.31943 3.76228 16.3754
351 1 -1.1104 6.64274 2.15965 14.9096
352 1 -1.1104 6.47639 2.30881 20.703
372 1 -1.1104 3.93268 -0.723607 20.5011
367 1 -1.1104 3.63608 2.09164 20.5688
358 1 -1.1104 0.910063 -0.579387 20.5809
344 1 -1.1104 6.62896 2.21056 17.7373
359 1 -1.1104 6.59483 -0.582374 15.0124
343 1 -1.1104 6.63073 -3.58611 17.6817
350 1 -1.1104 6.6606 -3.2748 20.6694
8634 2 2.2208 2.30354 -4.83407 24.8781
409 2 2.2208 13.6487 11.861 19.145
8704 2 2.2208 10.9861 -4.72249 16.4652
8598 2 2.2208 10.8563 -4.77513 22.053
694 1 -1.1104 9.51566 18.9416 26.3952
354 1 -1.1104 6.56975 -0.714233 17.7168
349 1 -1.1104 6.32833 -3.2104 14.9805
383 2 2.2208 10.7227 0.814472 16.4301
384 1 -1.1104 12.512 -3.57689 17.9245
386 1 -1.1104 12.2767 -3.51494 14.9698
390 1 -1.1104 12.2922 -0.697776 17.6225
391 2 2.2208 11.0583 -2.05054 19.1683
393 1 -1.1104 12.2432 -0.816977 15.0908
395 1 -1.1104 9.67865 -3.60207 17.9365
397 2 2.2208 8.01459 0.698756 19.148
398 1 -1.1104 9.4177 -3.35541 15.1607
402 2 2.2208 7.73648 -2.10802 16.2419
404 1 -1.1104 9.46977 -0.669268 17.6331
405 1 -1.1104 9.48319 -0.531961 14.9845
385 1 -1.1104 12.2399 2.15791 17.7919
388 1 -1.1104 11.9933 2.11656 15.0599
396 1 -1.1104 9.39153 2.12616 17.8695
400 1 -1.1104 9.24783 2.35423 15.1056
403 2 2.2208 7.96677 3.49538 16.4354
392 2 2.2208 10.8937 3.52458 19.3024
399 1 -1.1104 9.5392 -3.43847 20.5703
389 1 -1.1104 12.3165 2.25446 20.4976
401 1 -1.1104 9.42694 2.10055 20.59
387 1 -1.1104 12.2508 -3.34503 20.8513
629 2 2.2208 5.16887 6.26292 27.711
656 2 2.2208 10.7845 12.0496 27.6931
406 1 -1.1104 9.71039 -0.772896 20.8193
8635 2 2.2208 5.3518 -4.81901 22.1773
412 2 2.2208 13.591 9.07042 16.532
416 2 2.2208 5.38987 6.48041 16.4509
418 1 -1.1104 0.922187 7.77291 18.352
420 1 -1.1104 0.667003 8.00629 15.4516
423 1 -1.1104 1.01874 5.06947 17.749
428 1 -1.1104 0.992377 5.24088 15.0046
435 1 -1.1104 3.59639 7.57677 17.7002
436 2 2.2208 2.43782 6.33648 19.1767
438 1 -1.1104 3.68482 7.80497 14.9738
441 1 -1.1104 3.91471 4.86276 17.7416
443 1 -1.1104 3.92116 5.05241 14.7353
417 2 2.2208 5.17913 11.9417 16.5194
424 1 -1.1104 0.825097 10.6596 18.202
427 2 2.2208 5.14507 9.11709 19.5034
430 1 -1.1104 1.0086 10.7056 15.4364
437 2 2.2208 2.41666 12.0011 19.1641
440 2 2.2208 2.46793 9.22096 16.5969
442 1 -1.1104 3.74068 10.4957 17.8186
445 1 -1.1104 3.67073 10.5766 15.1592
446 1 -1.1104 3.62119 10.7176 20.5469
444 1 -1.1104 3.62338 4.9803 20.627
439 1 -1.1104 3.81277 7.59569 20.5471
426 1 -1.1104 6.59949 10.4071 18.1773
429 1 -1.1104 0.963409 5.20251 20.4137
431 1 -1.1104 6.5632 4.95702 14.8077
421 1 -1.1104 6.67201 7.83469 15.1457
433 1 -1.1104 6.56904 10.5568 15.1744
422 1 -1.1104 6.74018 7.8041 20.7635
434 1 -1.1104 6.4895 10.6292 21.0313
425 1 -1.1104 6.65713 4.98194 17.8686
419 1 -1.1104 6.56314 7.80883 17.8812
432 1 -1.1104 6.4142 5.11232 20.4764
452 2 2.2208 10.7486 6.34221 16.5007
454 1 -1.1104 12.0849 7.69021 17.7977
455 1 -1.1104 12.1286 8.01464 15.1022
457 1 -1.1104 12.2749 4.93794 17.8436
460 1 -1.1104 12.1104 4.97629 14.9639
464 1 -1.1104 9.46878 7.71883 18.0722
465 2 2.2208 7.99337 6.31177 19.4313
467 1 -1.1104 9.37629 7.65774 15.086
470 1 -1.1104 9.56201 4.90946 17.7178
472 1 -1.1104 9.24545 5.09468 14.9866
453 2 2.2208 10.8452 11.9814 16.348
458 1 -1.1104 12.2627 10.5312 17.9547
459 2 2.2208 10.7915 9.22233 19.3288
462 1 -1.1104 12.1328 10.5781 15.005
466 2 2.2208 8.03861 11.8815 19.2547
469 2 2.2208 8.0787 9.11973 16.504
471 1 -1.1104 9.47405 10.4931 17.762
474 1 -1.1104 9.43656 10.5364 15.1036
461 1 -1.1104 12.247 4.93026 20.5247
456 1 -1.1104 12.2514 7.7518 20.7021
463 1 -1.1104 12.3262 10.4897 20.7871
475 1 -1.1104 9.47337 10.6348 20.7799
473 1 -1.1104 9.53442 5.00861 20.6788
633 2 2.2208 -0.300519 9.10789 24.8222
468 1 -1.1104 9.54119 7.93136 20.8014
336 2 2.2208 2.27345 -2.07254 27.528
483 1 -1.1104 1.01061 13.0938 20.7183
478 1 -1.1104 0.95161 13.6294 17.9288
482 1 -1.1104 0.934001 13.5288 14.9933
498 1 -1.1104 3.8185 13.4756 17.7682
501 1 -1.1104 3.84438 13.1945 15.1185
492 2 2.2208 5.20152 14.6945 19.2025
477 2 2.2208 5.24124 17.4952 16.3422
479 1 -1.1104 1.07414 18.8681 17.7476
484 1 -1.1104 1.00527 18.9169 14.8883
490 1 -1.1104 0.800609 16.2121 17.8428
493 2 2.2208 5.22143 20.3097 19.2223
494 1 -1.1104 0.979827 16.2328 15.1593
499 1 -1.1104 3.92265 19.1108 17.8791
500 2 2.2208 2.43148 17.5774 19.312
503 1 -1.1104 3.84921 18.7955 14.9795
505 2 2.2208 2.27982 14.8237 16.496
506 2 2.2208 2.49509 20.3715 16.2825
507 1 -1.1104 3.67583 16.3015 17.7693
508 1 -1.1104 3.73335 16.0333 14.9737
502 1 -1.1104 3.73036 13.3651 20.481
496 1 -1.1104 6.60868 16.3053 15.0489
480 1 -1.1104 6.76024 13.2511 17.8627
495 1 -1.1104 0.945197 16.0642 20.5195
488 1 -1.1104 6.49497 19.0547 14.8853
481 1 -1.1104 6.84402 18.793 17.6409
486 1 -1.1104 6.64323 13.3563 15.173
489 1 -1.1104 6.77717 19.0091 20.5253
509 1 -1.1104 3.82378 16.0934 20.5666
485 1 -1.1104 1.07797 19.0364 20.6845
497 1 -1.1104 6.65769 16.2103 20.7214
504 1 -1.1104 3.8932 18.6842 20.8102
8667 2 2.2208 8.0971 -4.87071 19.3093
491 1 -1.1104 6.57602 16.1362 17.8103
536 1 -1.1104 9.49586 16.2693 20.4114
524 1 -1.1104 12.2546 16.2493 20.6852
514 1 -1.1104 12.1501 13.134 17.9799
516 1 -1.1104 12.3287 13.3498 15.0576
525 1 -1.1104 9.52071 13.3626 17.6292
528 1 -1.1104 9.39512 13.4027 15.0602
521 2 2.2208 10.7271 14.6719 19.1652
513 2 2.2208 10.8155 17.5575 16.4472
515 1 -1.1104 12.2091 19.0363 17.906
518 1 -1.1104 12.2161 19.098 15.2435
520 1 -1.1104 12.1996 16.0517 17.9881
522 2 2.2208 10.8633 20.4649 19.2426
523 1 -1.1104 12.6438 16.1305 14.9799
526 1 -1.1104 9.52493 19.1331 17.9404
527 2 2.2208 8.06803 17.5645 19.2015
530 1 -1.1104 9.45964 18.9573 15.1495
532 2 2.2208 8.02802 14.752 16.6128
533 2 2.2208 8.13991 20.3662 16.4826
534 1 -1.1104 9.46425 16.2917 17.7387
535 1 -1.1104 9.58388 16.2165 15.0036
517 1 -1.1104 12.2868 13.4307 20.8283
519 1 -1.1104 12.3122 19.0615 20.6603
407 2 2.2208 13.6152 14.6387 16.6741
9439 2 2.2208 13.5409 20.4561 16.5483
529 1 -1.1104 9.61452 13.3496 20.5796
531 1 -1.1104 9.5282 19.0954 20.8268
379 2 2.2208 13.5731 17.6726 19.4291
346 1 -1.1104 0.995761 -3.41907 20.6191
365 1 -1.1104 3.70042 -3.39777 20.6382
348 1 -1.1104 0.890161 2.32251 20.442
360 1 -1.1104 6.6798 -0.50637 20.6203
541 2 2.2208 5.12315 0.65791 22.1038
542 1 -1.1104 0.920272 -3.39388 23.546
546 1 -1.1104 0.87527 -3.56885 26.2533
550 1 -1.1104 0.751361 -0.725123 23.4377
552 2 2.2208 5.1792 -2.16758 24.7701
554 1 -1.1104 0.914471 -0.804505 26.1729
556 1 -1.1104 3.5847 -3.45949 23.3432
558 2 2.2208 2.29081 0.675689 24.7824
559 1 -1.1104 3.7365 -3.56002 26.1023
561 2 2.2208 2.28192 -2.11698 22.0541
563 1 -1.1104 3.66345 -0.779581 23.3801
564 1 -1.1104 3.78205 -0.708692 26.4382
543 1 -1.1104 0.967137 1.94758 23.3079
547 1 -1.1104 0.830528 2.27146 26.3064
557 1 -1.1104 3.6827 2.07979 23.5554
560 1 -1.1104 3.60403 2.09299 26.2555
553 2 2.2208 4.97315 3.56791 24.6844
555 1 -1.1104 6.4066 -0.612344 26.0185
544 1 -1.1104 6.5352 -3.48486 23.3471
562 2 2.2208 2.2326 3.58459 22.0521
549 1 -1.1104 6.68786 2.1977 26.2948
548 1 -1.1104 6.42631 -3.55802 26.3328
545 1 -1.1104 6.56746 2.04303 23.3688
551 1 -1.1104 6.55258 -0.704299 23.3722
567 2 2.2208 2.29813 3.53563 27.6909
378 2 2.2208 7.95149 14.7497 27.6113
394 1 -1.1104 12.4883 -0.683168 20.2736
697 2 2.2208 7.99221 17.6098 25.0413
632 2 2.2208 -0.351587 11.942 27.5734
691 1 -1.1104 9.52032 16.1177 23.4457
692 2 2.2208 8.21238 20.459 21.9942
337 2 2.2208 -0.387388 3.59522 13.6809
9293 2 2.2208 13.6665 20.3459 22.0933
577 2 2.2208 10.8621 0.693538 21.9445
578 1 -1.1104 12.1521 -3.43574 23.5805
580 1 -1.1104 12.1497 -3.55753 26.318
582 1 -1.1104 12.2759 -0.718911 23.5152
583 2 2.2208 10.7907 -1.9444 24.9091
585 1 -1.1104 12.2172 -0.567634 26.2688
586 1 -1.1104 9.27448 -3.55067 23.5575
588 2 2.2208 8.08523 0.747413 24.8786
589 1 -1.1104 9.2668 -3.41992 26.2666
591 2 2.2208 8.08729 -2.10997 22.0601
593 1 -1.1104 9.4625 -0.618024 23.498
594 1 -1.1104 9.37713 -0.619177 26.3432
579 1 -1.1104 12.2277 2.24063 23.3538
581 1 -1.1104 12.2733 2.15438 26.3138
587 1 -1.1104 9.48152 2.05914 23.3923
590 1 -1.1104 9.57618 2.21989 26.2803
584 2 2.2208 10.8585 3.54032 24.7218
592 2 2.2208 8.05545 3.49259 22.0302
604 2 2.2208 13.5624 0.763928 24.8722
410 2 2.2208 13.6032 6.42373 19.1769
447 1 -1.1104 12.3643 19.0307 23.4014
600 2 2.2208 13.6096 17.6674 24.8006
687 1 -1.1104 9.77533 19.0791 23.694
596 2 2.2208 8.00701 -1.97516 27.6261
328 2 2.2208 2.27302 0.715328 13.6891
8707 2 2.2208 2.4692 -4.88334 19.3022
606 2 2.2208 5.12132 6.40169 22.082
608 1 -1.1104 0.810364 7.50128 23.2497
610 1 -1.1104 0.98187 7.80424 26.3539
612 1 -1.1104 0.833435 4.76472 23.356
617 1 -1.1104 0.98419 5.09767 26.3111
621 1 -1.1104 4.01412 7.54665 23.7202
622 2 2.2208 2.33411 6.41215 24.8488
624 1 -1.1104 3.76257 7.86476 26.4857
625 1 -1.1104 3.65495 4.85493 23.4822
627 1 -1.1104 3.61465 4.91719 26.3481
607 2 2.2208 5.05066 11.9222 22.0847
613 1 -1.1104 0.95244 10.6568 23.5042
616 2 2.2208 5.12822 9.22382 24.8497
618 1 -1.1104 1.00207 10.4018 26.329
623 2 2.2208 2.33926 11.9904 24.9286
626 1 -1.1104 3.90417 10.6726 23.4932
628 1 -1.1104 3.59195 10.7449 26.2866
615 1 -1.1104 6.8203 10.6262 23.5585
614 1 -1.1104 6.34293 4.90999 23.3619
611 1 -1.1104 6.61431 7.8148 26.3391
655 2 2.2208 8.0063 9.17826 27.7322
620 1 -1.1104 6.62596 10.6438 26.3066
619 1 -1.1104 6.52327 4.78757 26.1552
538 2 2.2208 10.9527 14.9002 13.6998
609 1 -1.1104 6.65885 7.80391 23.3594
637 1 -1.1104 9.31274 5.13166 26.3479
639 1 -1.1104 9.20701 4.91916 23.4818
641 1 -1.1104 9.42885 7.91099 26.1476
643 2 2.2208 7.95975 6.36753 24.8218
644 2 2.2208 10.9015 6.48899 21.9814
646 1 -1.1104 12.3833 7.73162 23.5151
647 1 -1.1104 12.2288 7.71711 26.1313
648 1 -1.1104 12.2131 4.99579 23.2012
651 1 -1.1104 12.3437 4.88934 26.0856
653 1 -1.1104 9.5714 7.67151 23.7
636 1 -1.1104 9.36729 10.7087 26.2589
638 1 -1.1104 9.47683 10.636 23.4782
640 2 2.2208 8.13909 9.15363 22.2646
642 2 2.2208 7.85402 12.0994 24.9134
645 2 2.2208 10.9414 12.0075 22.1813
649 1 -1.1104 12.2094 10.4753 23.4606
650 2 2.2208 10.8757 9.27956 24.9192
652 1 -1.1104 12.2199 10.6421 26.4006
598 2 2.2208 13.5244 3.6038 16.5024
570 1 -1.1104 12.1542 16.3624 26.2366
693 2 2.2208 8.14664 14.8376 22.1806
573 1 -1.1104 9.28606 13.4769 23.4908
683 2 2.2208 2.45136 20.4329 27.6602
487 1 -1.1104 6.73929 13.2439 20.6236
663 1 -1.1104 6.70752 16.1866 26.3411
8706 2 2.2208 13.6616 -4.80944 19.3282
661 1 -1.1104 6.70977 13.4925 26.2335
696 1 -1.1104 6.59346 18.9076 26.4442
662 1 -1.1104 3.79535 13.5228 23.6104
666 1 -1.1104 1.09442 13.3129 26.4008
672 1 -1.1104 1.12054 13.6836 23.5643
677 1 -1.1104 3.73275 13.4098 26.4684
660 1 -1.1104 3.88681 19.0382 23.453
664 1 -1.1104 0.952483 18.9112 26.2715
665 1 -1.1104 1.13734 16.2177 26.5456
668 2 2.2208 5.34377 20.4271 24.9326
669 2 2.2208 5.18374 14.8153 24.8175
671 1 -1.1104 0.980906 19.1865 23.4038
673 2 2.2208 5.43549 17.6554 22.0981
674 1 -1.1104 3.8329 19.203 26.156
675 2 2.2208 2.3613 17.6709 24.9801
676 1 -1.1104 4.00191 16.3549 26.4088
679 1 -1.1104 0.848564 16.4301 23.5355
680 1 -1.1104 3.73565 16.2129 23.4297
681 2 2.2208 2.455 20.4908 21.9227
682 2 2.2208 2.3672 14.8374 21.8636
678 1 -1.1104 6.77033 16.14 23.5146
670 1 -1.1104 6.40463 13.6158 23.3328
381 2 2.2208 8.27616 20.3218 27.5715
690 1 -1.1104 9.56319 16.1836 26.3832
510 1 -1.1104 12.2931 16.0726 23.4693
408 1 -1.1104 12.1888 13.3497 23.4794
566 2 2.2208 10.9429 20.5392 24.9169
449 1 -1.1104 12.3713 19.2107 26.1583
511 2 2.2208 10.9312 14.786 24.9315
667 1 -1.1104 6.82216 19.0869 23.4162
602 2 2.2208 13.5159 -1.8987 27.6275
595 2 2.2208 10.7737 0.933564 27.6792
382 2 2.2208 10.9579 17.6196 22.0446
448 1 -1.1104 12.3044 13.5304 26.2617
695 1 -1.1104 9.50095 13.5889 26.3577
572 2 2.2208 13.5601 0.778783 13.6999
8600 2 2.2208 10.7127 -4.81807 27.6825
657 2 2.2208 13.577 11.9203 24.9427
597 2 2.2208 8.01226 3.64399 27.5429
332 2 2.2208 5.14924 9.22738 13.7262
565 2 2.2208 5.05362 0.806558 27.5596
333 2 2.2208 2.31157 11.8868 13.7967
658 2 2.2208 13.6469 9.11041 27.6936
375 2 2.2208 13.6213 3.5726 21.8559
659 2 2.2208 13.6428 6.28019 24.692
415 2 2.2208 10.7515 3.65773 13.6994
685 2 2.2208 2.35995 14.7163 27.7
537 2 2.2208 10.7943 20.3185 13.6961
380 2 2.2208 10.9829 17.5299 27.6987
698 2 2.2208 5.28065 23.2017 5.3376
700 1 -1.1104 0.931717 24.6523 1.01553
701 1 -1.1104 0.94325 24.6321 3.95188
702 1 -1.1104 1.11074 21.9256 0.930413
703 1 -1.1104 1.09065 27.3061 0.89214
704 2 2.2208 5.247 26.0602 2.40971
705 1 -1.1104 1.01994 21.8232 3.95567
707 1 -1.1104 3.91195 24.5941 0.912466
708 2 2.2208 2.47873 23.256 2.54663
710 1 -1.1104 3.87371 24.5707 3.80952
711 2 2.2208 2.37786 25.9904 5.34414
712 1 -1.1104 4.01185 21.9881 0.953475
714 1 -1.1104 4.10223 21.8104 3.93532
715 1 -1.1104 3.69472 27.4479 3.89157
706 1 -1.1104 0.97745 27.4029 3.73943
713 1 -1.1104 3.94993 27.4581 0.96886
699 2 2.2208 5.26453 28.8953 5.1522
709 2 2.2208 2.49654 28.8094 2.37155
719 1 -1.1104 6.73345 24.6219 0.984198
722 1 -1.1104 6.7084 27.4811 1.07656
724 1 -1.1104 6.39762 27.308 3.80196
842 1 -1.1104 0.853221 27.3417 6.77535
841 1 -1.1104 0.954013 21.784 6.53522
723 1 -1.1104 6.76185 21.8984 3.61422
720 1 -1.1104 6.67399 24.5265 3.85714
843 1 -1.1104 6.66861 21.7645 6.50028
846 1 -1.1104 3.82748 21.9131 6.63916
839 1 -1.1104 0.867491 24.48 6.69839
847 1 -1.1104 3.7487 27.4888 6.87672
845 1 -1.1104 3.88444 24.776 6.62655
844 1 -1.1104 6.43069 27.3654 6.36892
1014 2 2.2208 7.84701 40.0597 13.6141
1363 1 -1.1104 1.11827 47.0095 3.65858
840 1 -1.1104 6.44749 24.58 6.57556
721 1 -1.1104 6.68793 21.8499 0.779618
725 2 2.2208 10.8046 23.1095 5.10798
727 1 -1.1104 12.303 24.5756 0.977667
728 1 -1.1104 12.1937 24.7037 3.71361
729 1 -1.1104 12.3653 21.785 0.986123
731 2 2.2208 10.8548 26.0589 2.24495
732 1 -1.1104 12.1774 21.7273 3.62834
734 1 -1.1104 9.53334 24.5539 1.00889
735 2 2.2208 8.131 23.14 2.28512
737 1 -1.1104 9.52633 24.5964 3.5893
738 2 2.2208 8.10627 25.9611 5.02039
739 1 -1.1104 9.74604 21.8674 1.08731
740 1 -1.1104 9.33702 27.3743 1.05625
741 1 -1.1104 9.44691 21.652 3.66756
730 1 -1.1104 12.1901 27.4662 0.813228
726 2 2.2208 10.866 28.8658 5.16857
733 1 -1.1104 12.1699 27.5564 3.61605
736 2 2.2208 8.08027 28.9224 2.3787
742 1 -1.1104 9.42804 27.4378 3.74193
877 1 -1.1104 9.49272 27.6428 6.48052
876 1 -1.1104 9.5089 21.7164 6.54952
873 1 -1.1104 12.2948 21.6872 6.43094
872 1 -1.1104 12.0031 24.4329 6.75187
985 2 2.2208 -0.230273 45.6085 10.7775
996 1 -1.1104 12.1862 44.2488 9.46518
875 1 -1.1104 9.33272 24.7016 6.60263
874 1 -1.1104 12.1951 27.4281 6.39167
747 1 -1.1104 1.23956 30.0988 0.905862
750 1 -1.1104 1.04691 30.1523 3.75299
753 1 -1.1104 1.0448 33.1137 0.836588
754 2 2.2208 5.23949 31.6305 2.42748
756 1 -1.1104 1.08719 33.0207 3.64135
758 1 -1.1104 3.90473 30.1832 1.04295
761 1 -1.1104 3.84616 30.3562 3.74345
763 2 2.2208 2.2229 31.5492 5.26663
765 1 -1.1104 3.85594 32.8848 0.822261
766 1 -1.1104 3.90499 33.2941 3.82391
746 2 2.2208 5.219 34.4872 5.26696
748 1 -1.1104 1.05116 35.936 0.845494
751 1 -1.1104 1.02231 35.6561 3.66207
755 2 2.2208 5.30594 37.1546 2.31583
759 1 -1.1104 3.90235 35.8735 0.948196
760 2 2.2208 2.48222 34.503 2.32643
762 1 -1.1104 3.81452 36.0611 3.81073
764 2 2.2208 2.35159 37.1264 5.14859
771 1 -1.1104 6.58808 30.1649 3.71236
903 1 -1.1104 3.90167 35.7025 6.51857
770 1 -1.1104 6.78188 30.3696 1.06909
902 1 -1.1104 3.57844 30.2685 6.74268
897 1 -1.1104 0.983437 35.746 6.41359
900 1 -1.1104 0.998779 32.9548 6.62724
752 1 -1.1104 6.63477 35.6425 3.85
898 1 -1.1104 6.60136 30.2215 6.5685
896 1 -1.1104 0.855438 30.1865 6.72258
904 1 -1.1104 3.82684 32.8071 6.69991
1378 1 -1.1104 3.74437 46.9996 0.927089
1051 2 2.2208 5.38642 25.956 13.5834
899 1 -1.1104 6.67715 35.925 6.52732
757 1 -1.1104 6.70835 33.0085 3.9258
772 1 -1.1104 6.5909 33.2464 1.2364
1015 2 2.2208 10.7301 42.9552 13.5034
749 1 -1.1104 6.77995 35.9133 1.02104
774 1 -1.1104 12.2291 30.1358 0.800274
776 1 -1.1104 12.0932 30.484 3.92481
778 1 -1.1104 12.2171 32.9538 0.84384
779 2 2.2208 10.7626 31.73 2.27507
781 1 -1.1104 12.4317 33.084 3.69906
782 1 -1.1104 9.62455 30.0585 0.97498
785 1 -1.1104 9.31575 30.2758 3.80461
787 2 2.2208 8.0721 31.7082 5.29562
789 1 -1.1104 9.20658 32.9751 0.931317
790 1 -1.1104 9.42702 33.0257 3.77095
773 2 2.2208 10.9121 34.5036 5.16322