ITEM: TIMESTEP
20000
ITEM: NUMBER OF ATOMS
17910
ITEM: BOX BOUNDS pp pp pp
-4.0486321394785368e-01 2.7744863213947671e+01
-4.8519604763107784e+00 3.3293196047631096e+02
-4.0743438615607031e-01 2.7747434386156129e+01
ITEM: ATOMS id type q x y z
1 2 2.2208 5.29104 0.691403 5.14858
2 1 -1.1104 0.974295 -3.49051 1.14834
6 1 -1.1104 0.997277 -3.51002 3.89234
10 1 -1.1104 0.943048 -0.571973 1.02341
12 2 2.2208 5.18107 -2.00595 2.45063
14 1 -1.1104 0.958784 -0.770791 3.80543
16 1 -1.1104 3.7074 -3.33631 1.15118
18 2 2.2208 2.51446 0.768673 2.20519
19 1 -1.1104 3.897 -3.36559 4.06799
21 2 2.2208 2.3772 -2.14138 5.29456
23 1 -1.1104 3.87686 -0.48941 1.09
24 1 -1.1104 3.74901 -0.57635 3.84778
3 1 -1.1104 0.925359 2.23168 0.815815
7 1 -1.1104 1.13897 2.12436 3.73235
17 1 -1.1104 3.93143 2.10907 0.907723
20 1 -1.1104 3.98381 2.04425 3.64523
13 2 2.2208 5.28682 3.57307 2.295
22 2 2.2208 2.51769 3.32029 5.16412
174 1 -1.1104 3.88591 -0.806205 6.55586
170 1 -1.1104 0.956119 -0.666169 6.66861
173 1 -1.1104 3.93685 1.94938 6.7965
172 1 -1.1104 3.68917 -3.4784 6.87322
167 1 -1.1104 1.0083 2.13183 6.66536
104 2 2.2208 13.7585 11.924 2.46981
171 1 -1.1104 6.62159 -0.689397 6.50834
201 2 2.2208 -0.402042 0.955519 10.8127
8559 2 2.2208 2.30047 -4.82801 13.5705
8540 2 2.2208 -0.540557 -4.7581 10.7532
329 2 2.2208 5.28932 3.48737 13.7508
9 1 -1.1104 6.69034 1.87503 3.72242
169 1 -1.1104 6.68078 2.11265 6.4336
15 1 -1.1104 6.63654 -0.740046 3.71294
11 1 -1.1104 6.73751 -0.74751 1.12249
5 1 -1.1104 6.55722 2.11425 0.891832
4 1 -1.1104 6.55364 -3.32678 0.819839
8 1 -1.1104 6.6378 -3.49199 3.80756
31 2 2.2208 10.9457 0.892731 5.1789
32 1 -1.1104 12.0652 -3.45861 0.96804
34 1 -1.1104 12.4789 -3.42813 3.81403
36 1 -1.1104 12.288 -0.58828 1.03619
37 2 2.2208 10.7012 -1.99325 2.32307
39 1 -1.1104 12.1132 -0.720843 4.02483
40 1 -1.1104 9.21843 -3.39331 0.850524
42 2 2.2208 8.10512 0.625368 2.33387
43 1 -1.1104 9.55507 -3.29916 3.83151
45 2 2.2208 8.04742 -1.99717 5.1559
47 1 -1.1104 9.64336 -0.709008 0.784036
48 1 -1.1104 9.50543 -0.646807 3.63662
33 1 -1.1104 12.1782 2.24412 1.03002
35 1 -1.1104 12.283 2.11051 3.76801
41 1 -1.1104 9.25313 2.17316 1.12171
44 1 -1.1104 9.44806 2.09883 3.70727
46 2 2.2208 8.07918 3.5573 5.10969
38 2 2.2208 10.892 3.63223 2.29332
205 1 -1.1104 12.2038 -3.32268 6.77381
206 1 -1.1104 12.3356 2.35288 6.68369
207 1 -1.1104 12.3344 -0.43734 6.63078
137 2 2.2208 13.6303 17.4349 8.15237
26 2 2.2208 -0.267711 0.716103 5.16871
168 1 -1.1104 6.56504 -3.44511 6.65665
209 1 -1.1104 9.32961 1.96 6.38433
54 2 2.2208 5.30373 6.30576 5.09896
56 1 -1.1104 0.961495 7.74289 0.919889
58 1 -1.1104 0.972975 7.92133 3.75168
60 1 -1.1104 0.925674 4.98545 0.82234
67 1 -1.1104 1.18837 4.97806 3.73034
71 1 -1.1104 3.74841 7.72742 1.00629
72 2 2.2208 2.53707 6.30982 2.24565
74 1 -1.1104 4.05668 7.68692 3.70106
76 1 -1.1104 3.83706 5.01413 0.90217
79 1 -1.1104 3.99768 4.83205 3.74851
55 2 2.2208 5.16641 11.8295 5.06609
61 1 -1.1104 1.08449 10.5962 1.03375
66 2 2.2208 5.25784 9.17983 2.41606
68 1 -1.1104 0.892541 10.6715 3.72289
73 2 2.2208 2.31952 11.9577 2.56642
75 2 2.2208 2.30369 9.10003 5.13117
77 1 -1.1104 3.8571 10.6246 1.07874
80 1 -1.1104 3.87804 10.2783 3.92505
78 1 -1.1104 3.71891 10.5837 6.77585
65 1 -1.1104 6.65235 10.5924 6.36139
596 2 2.2208 7.97727 -1.99187 -0.510629
28 2 2.2208 -0.325658 6.32993 10.7807
8542 2 2.2208 10.655 -4.88724 10.8825
9210 2 2.2208 13.5705 20.527 10.7675
236 1 -1.1104 0.9136 4.90487 6.55002
239 1 -1.1104 3.87367 4.64216 6.44198
238 1 -1.1104 3.85791 7.69456 6.61666
235 1 -1.1104 6.74973 7.77283 6.40432
69 1 -1.1104 6.81047 4.99686 3.75579
59 1 -1.1104 6.87295 7.92828 3.7743
64 1 -1.1104 6.5673 10.7342 0.828845
63 1 -1.1104 6.58632 5.05994 0.999606
70 1 -1.1104 6.48918 10.6703 3.57881
57 1 -1.1104 6.47492 7.8347 1.00362
84 2 2.2208 10.9559 6.32442 5.09519
86 1 -1.1104 12.3066 7.74943 0.919789
87 1 -1.1104 12.3109 7.74551 3.54734
88 1 -1.1104 12.2858 4.98798 1.02017
92 1 -1.1104 12.3021 4.98919 3.77509
94 1 -1.1104 9.49052 7.74015 1.10935
95 2 2.2208 8.15866 6.36843 2.34693
97 1 -1.1104 9.48019 7.69763 3.78692
99 1 -1.1104 9.43499 5.04207 1.01124
102 1 -1.1104 9.48996 4.93899 3.73971
85 2 2.2208 10.7131 12.1054 5.14171
89 1 -1.1104 12.3216 10.3584 0.982512
91 2 2.2208 10.8389 9.20591 2.33655
93 1 -1.1104 12.1309 10.6571 3.97246
96 2 2.2208 8.07838 11.9701 2.28837
98 2 2.2208 8.10429 9.33426 5.16068
100 1 -1.1104 9.54957 10.6369 0.999493
103 1 -1.1104 9.34268 10.7337 3.79588
237 1 -1.1104 6.64835 4.86881 6.62817
269 1 -1.1104 9.44636 4.80827 6.60801
266 1 -1.1104 12.3452 5.1294 6.59765
101 1 -1.1104 9.59825 10.7104 6.67781
267 1 -1.1104 9.58856 7.79657 6.51352
135 2 2.2208 -0.688272 14.9376 2.38968
25 2 2.2208 -0.465859 -2.15357 2.47594
202 2 2.2208 13.4632 14.5786 5.07317
107 1 -1.1104 1.01457 13.5124 1.16852
113 1 -1.1104 0.949605 13.5263 3.70097
123 1 -1.1104 4.05005 13.3273 0.91767
128 1 -1.1104 3.73711 13.2641 3.92132
106 2 2.2208 5.0928 17.5246 5.29401
109 1 -1.1104 0.967756 19.153 0.91938
114 1 -1.1104 0.727802 19.0487 3.82188
116 1 -1.1104 0.95057 16.3046 1.04507
119 2 2.2208 5.16898 14.6829 2.35254
120 2 2.2208 5.16306 20.5029 2.53032
121 1 -1.1104 0.694835 16.2746 3.93562
125 1 -1.1104 3.79459 19.0087 1.04827
127 2 2.2208 2.3105 17.5592 2.65723
129 1 -1.1104 3.64038 18.9737 3.96953
130 2 2.2208 2.25536 14.8705 5.29028
131 2 2.2208 2.30589 20.6784 5.17401
132 1 -1.1104 3.76305 16.125 1.01798
134 1 -1.1104 3.56108 16.0678 3.8763
140 1 -1.1104 6.51115 16.2251 1.05745
115 1 -1.1104 6.44714 13.5109 3.97982
117 1 -1.1104 0.822751 16.4594 6.77733
139 1 -1.1104 6.60138 19.0724 3.85625
122 1 -1.1104 6.41642 16.2565 3.81518
133 1 -1.1104 3.73911 16.0916 6.61704
51 2 2.2208 13.5948 11.9425 8.08817
118 1 -1.1104 6.68064 16.2187 6.6267
331 2 2.2208 2.45366 6.26841 13.6156
136 2 2.2208 13.7005 14.7769 10.9504
111 1 -1.1104 6.72203 13.2714 6.70436
138 1 -1.1104 6.52688 19.0944 0.947563
110 1 -1.1104 6.64559 13.4465 1.23516
142 1 -1.1104 12.0918 13.4058 0.937557
146 1 -1.1104 12.2198 13.2178 3.65747
153 1 -1.1104 9.29546 13.3878 1.02148
158 1 -1.1104 9.43507 13.5561 3.86539
141 2 2.2208 10.8508 17.5039 5.11103
144 1 -1.1104 11.9706 18.8713 1.11558
147 1 -1.1104 12.2812 18.8486 3.90903
148 1 -1.1104 12.1237 16.0802 0.934977
150 2 2.2208 10.6521 14.9044 2.24089
151 2 2.2208 10.9036 20.3436 2.57446
152 1 -1.1104 11.9418 15.9362 3.80524
155 1 -1.1104 9.36614 19.0766 1.03714
157 2 2.2208 7.77445 17.7609 2.49289
159 1 -1.1104 9.43588 19.1108 3.89894
160 2 2.2208 7.95522 14.8041 5.16084
161 2 2.2208 8.07008 20.3613 5.25933
162 1 -1.1104 9.404 16.202 0.955208
164 1 -1.1104 9.31363 16.2755 3.6986
154 1 -1.1104 9.51209 13.6312 6.60271
143 1 -1.1104 12.4239 13.1367 6.43437
156 1 -1.1104 9.48723 19.2015 6.77291
8976 2 2.2208 -0.661093 17.7322 5.24222
199 2 2.2208 -0.29357 3.58584 8.12557
149 1 -1.1104 12.2613 16.0905 6.6083
231 1 -1.1104 12.2687 13.4271 9.41142
684 2 2.2208 5.21518 17.5936 -0.402834
450 2 2.2208 8.0918 12.1806 13.6661
204 2 2.2208 13.746 3.65969 5.16718
381 2 2.2208 8.18538 20.3882 -0.438787
312 1 -1.1104 12.2983 13.3631 12.2761
288 1 -1.1104 6.66948 19.0678 9.46674
166 1 -1.1104 0.909352 -3.50833 6.65106
175 2 2.2208 5.20617 0.585501 10.6448
176 1 -1.1104 0.867097 -3.28713 12.025
180 1 -1.1104 0.978071 -3.35452 9.3078
184 1 -1.1104 0.931064 -0.492182 12.2812
186 2 2.2208 5.21125 -2.0499 8.14548
188 1 -1.1104 0.779264 -0.582134 9.57717
190 1 -1.1104 3.69182 -3.47474 12.2212
192 2 2.2208 2.49085 0.696443 8.11575
193 1 -1.1104 3.75828 -3.48173 9.53431
195 2 2.2208 2.23661 -1.91294 10.7743
197 1 -1.1104 3.75716 -0.591364 12.213
198 1 -1.1104 3.64866 -0.68706 9.52702
177 1 -1.1104 1.0331 2.43121 12.3526
181 1 -1.1104 1.0979 2.15155 9.39045
191 1 -1.1104 3.71025 2.17046 12.4133
194 1 -1.1104 3.8777 2.21059 9.44026
196 2 2.2208 2.64158 3.64057 10.7732
187 2 2.2208 5.22743 3.50391 7.81687
183 1 -1.1104 6.59384 2.25647 9.28139
182 1 -1.1104 6.48666 -3.36111 9.51269
289 1 -1.1104 6.5494 16.1366 9.34525
233 1 -1.1104 12.2786 16.1542 12.2964
316 2 2.2208 8.19605 20.4069 10.9162
476 2 2.2208 8.14305 6.34997 13.6606
311 2 2.2208 10.894 17.5935 10.8195
208 1 -1.1104 9.38963 -3.62438 6.68952
210 1 -1.1104 9.53391 -0.697222 6.70118
326 2 2.2208 -0.715066 -2.02527 13.7021
296 1 -1.1104 6.73634 19.0133 12.2718
319 1 -1.1104 9.47806 13.4487 9.44473
185 1 -1.1104 6.65576 -0.70061 12.0107
179 1 -1.1104 6.65572 2.06744 12.248
189 1 -1.1104 6.75466 -0.510479 9.29639
178 1 -1.1104 6.70613 -3.32914 12.3819
211 2 2.2208 10.6795 0.815528 10.9465
212 1 -1.1104 12.1415 -3.24874 12.3989
214 1 -1.1104 11.9905 -3.50707 9.622
216 1 -1.1104 12.1453 -0.550654 12.3333
217 2 2.2208 10.8432 -2.06427 8.05451
219 1 -1.1104 12.1568 -0.586884 9.4002
220 1 -1.1104 9.32555 -3.28773 12.3264
222 2 2.2208 8.11787 0.806883 7.86887
223 1 -1.1104 9.26292 -3.347 9.49041
225 2 2.2208 8.08603 -2.06331 10.8598
227 1 -1.1104 9.36477 -0.691968 12.3212
228 1 -1.1104 9.47155 -0.649271 9.69294
213 1 -1.1104 12.1919 2.13063 12.4654
215 1 -1.1104 12.4265 2.24623 9.62397
218 2 2.2208 10.8785 3.58371 7.89948
221 1 -1.1104 9.25616 2.24614 11.974
224 1 -1.1104 9.4996 2.06919 9.02303
226 2 2.2208 7.93928 3.59605 10.5591
232 1 -1.1104 12.2987 18.898 9.46552
314 1 -1.1104 9.4997 16.1837 9.10231
317 2 2.2208 8.18419 14.74 10.7668
62 1 -1.1104 0.962322 10.6594 6.58847
234 1 -1.1104 1.06301 7.60436 6.61548
328 2 2.2208 2.31684 0.820983 13.6114
313 1 -1.1104 12.1831 18.8567 12.1639
323 1 -1.1104 12.1724 16.1355 9.55519
240 2 2.2208 5.32263 6.33602 10.8892
242 1 -1.1104 0.953874 7.66391 12.3308
244 1 -1.1104 1.13798 7.75646 9.38988
246 1 -1.1104 1.2484 5.07014 12.0861
251 1 -1.1104 1.13323 5.01356 9.42321
255 1 -1.1104 3.72328 7.56729 12.298
256 2 2.2208 2.43609 6.45665 7.99302
258 1 -1.1104 4.00498 7.734 9.43603
260 1 -1.1104 4.06389 4.88288 12.0585
262 1 -1.1104 3.90044 5.10619 9.24866
241 2 2.2208 5.25866 11.8221 10.8479
247 1 -1.1104 0.862121 10.3567 12.422
250 2 2.2208 5.27302 9.01704 7.91509
252 1 -1.1104 1.0245 10.5657 9.55061
257 2 2.2208 2.41484 12.0336 8.08308
259 2 2.2208 2.4439 9.07522 10.77
261 1 -1.1104 3.66703 10.4125 12.1365
263 1 -1.1104 3.9265 10.5069 9.39332
245 1 -1.1104 6.74498 7.86017 9.3782
306 1 -1.1104 6.83808 16.1618 12.1187
297 1 -1.1104 6.56854 13.5121 12.3025
321 1 -1.1104 9.56979 19.1225 12.2196
90 1 -1.1104 12.2243 10.5353 6.85851
265 1 -1.1104 12.421 7.85694 6.41451
163 1 -1.1104 9.37921 16.3492 6.46607
325 2 2.2208 10.8066 14.7934 7.92449
253 1 -1.1104 6.57725 5.02328 9.43358
249 1 -1.1104 6.60957 10.6457 12.1684
248 1 -1.1104 6.82644 5.00409 12.1805
254 1 -1.1104 6.72864 10.5128 9.13635
243 1 -1.1104 6.60012 7.76446 12.2534
268 1 -1.1104 9.38558 4.81927 9.22711
271 1 -1.1104 9.54744 5.09176 12.2225
273 1 -1.1104 9.66634 7.67858 9.38497
275 2 2.2208 7.96787 6.30224 7.92433
276 2 2.2208 10.9833 6.27379 10.8083
278 1 -1.1104 12.2347 7.82147 12.1962
279 1 -1.1104 12.3858 7.87373 9.35952
280 1 -1.1104 12.2696 4.83215 12.3224
283 1 -1.1104 12.2753 4.98168 9.55269
285 1 -1.1104 9.36614 7.80503 12.2945
264 1 -1.1104 9.6991 10.5814 9.46285
270 1 -1.1104 9.366 10.6165 12.0628
272 2 2.2208 8.12849 9.12539 10.7043
274 2 2.2208 8.1229 12.0736 7.95854
277 2 2.2208 10.8478 12.0142 10.7469
281 1 -1.1104 12.2762 10.5936 12.4753
282 2 2.2208 10.915 9.01924 7.95116
284 1 -1.1104 12.5995 10.589 9.61032
145 1 -1.1104 12.242 18.9535 6.74733
108 1 -1.1104 0.92041 13.4827 6.6061
302 1 -1.1104 1.03029 19.0718 6.64261
318 1 -1.1104 9.555 18.9889 9.44357
112 1 -1.1104 6.57094 18.9239 6.58608
327 2 2.2208 5.17224 -2.05577 13.6276
124 1 -1.1104 3.64865 13.3845 6.58017
126 1 -1.1104 3.76197 18.9929 6.54019
287 1 -1.1104 3.86677 13.1021 12.3549
294 1 -1.1104 0.929118 13.2926 9.45648
299 1 -1.1104 0.920493 13.4078 12.3164
305 1 -1.1104 3.77135 13.3653 9.62659
286 1 -1.1104 3.72 18.9587 12.0266
291 1 -1.1104 1.18689 19.0997 9.54876
292 1 -1.1104 0.883053 16.217 9.58777
293 2 2.2208 5.16321 20.3888 8.07083
295 2 2.2208 5.21971 14.682 8.12427
298 1 -1.1104 0.900854 18.9261 12.3116
300 2 2.2208 5.2465 17.4086 10.6744
301 1 -1.1104 3.68668 19.0394 9.28949
303 2 2.2208 2.34365 17.6834 8.04448
304 1 -1.1104 3.54673 16.1011 9.28653
307 1 -1.1104 1.0135 16.2215 12.4416
308 1 -1.1104 3.92979 16.0875 12.1292
309 2 2.2208 2.5111 20.5019 10.7503
310 2 2.2208 2.25522 14.7305 10.8851
290 1 -1.1104 6.59611 13.2839 9.63256
322 1 -1.1104 9.6649 13.3578 12.1281
320 2 2.2208 8.04409 17.6418 7.87749
324 2 2.2208 10.9371 20.4428 8.17456
315 1 -1.1104 9.56519 16.2564 12.3295
50 2 2.2208 13.7237 -2.02596 5.22218
414 2 2.2208 10.8239 -2.06356 13.761
200 2 2.2208 -0.330262 -2.02031 7.98798
654 2 2.2208 10.9004 6.27027 -0.496399
81 2 2.2208 -0.625828 6.36721 5.25533
9170 2 2.2208 -0.526777 11.9455 11.0224
229 2 2.2208 13.6144 0.752621 8.11466
27 2 2.2208 -0.448346 3.70563 2.39003
451 2 2.2208 10.8069 9.14638 13.6212
334 2 2.2208 5.21397 14.7287 13.5856
602 2 2.2208 13.589 -2.01329 -0.53884
415 2 2.2208 10.898 3.57425 13.7063
635 2 2.2208 -0.409902 6.39499 -0.539518
512 2 2.2208 5.31147 20.2728 13.6031
597 2 2.2208 7.94633 3.58995 -0.446977
333 2 2.2208 2.35228 11.8347 13.7237
685 2 2.2208 2.43434 14.8079 -0.386935
683 2 2.2208 2.44781 20.3656 -0.538539
340 2 2.2208 5.2707 0.733591 16.461
341 1 -1.1104 1.02301 -3.36954 17.5757
345 1 -1.1104 0.852166 -3.5771 14.8039
353 1 -1.1104 1.14382 -0.63025 17.9468
355 2 2.2208 5.27298 -2.04451 19.3006
357 1 -1.1104 0.701928 -0.732901 15.0719
361 1 -1.1104 4.0912 -3.3275 17.7673
363 2 2.2208 2.36485 0.648026 19.1906
364 1 -1.1104 3.72553 -3.47777 15.0561
368 2 2.2208 2.42128 -1.93941 16.4099
370 1 -1.1104 4.0637 -0.552113 17.884
371 1 -1.1104 3.75532 -0.574212 15.1306
342 1 -1.1104 0.933786 2.11725 17.7465
347 1 -1.1104 0.953906 2.06538 15.0116
362 1 -1.1104 3.71822 2.05852 17.8886
366 1 -1.1104 3.72982 2.15253 15.0603
369 2 2.2208 2.52675 3.55234 16.2741
356 2 2.2208 5.17014 3.46101 19.3605
8708 2 2.2208 5.31752 -4.76759 16.4541
365 1 -1.1104 4.01467 -3.46974 20.7738
346 1 -1.1104 1.0916 -3.33688 20.5457
358 1 -1.1104 0.93072 -0.599667 20.7663
348 1 -1.1104 0.984515 2.16829 20.5135
349 1 -1.1104 6.47897 -3.32394 15.1997
9477 2 2.2208 -0.516766 20.5223 19.3305
601 2 2.2208 13.6903 14.6688 22.2562
691 1 -1.1104 9.61576 16.3971 23.6324
372 1 -1.1104 3.74174 -0.671738 20.5541
350 1 -1.1104 6.71016 -3.40529 20.6067
9479 2 2.2208 -0.463746 17.5812 16.497
343 1 -1.1104 6.64792 -3.72693 17.9923
359 1 -1.1104 6.48233 -0.607108 14.9794
344 1 -1.1104 6.68931 2.08472 17.7946
354 1 -1.1104 6.84242 -0.616853 17.66
351 1 -1.1104 6.68502 2.1172 15.1943
383 2 2.2208 10.776 0.712197 16.5107
384 1 -1.1104 12.3237 -3.52824 17.9562
386 1 -1.1104 12.2158 -3.59858 15.2043
390 1 -1.1104 12.2813 -0.668621 17.8389
391 2 2.2208 10.8459 -2.09068 19.3284
393 1 -1.1104 12.3121 -0.815068 15.1468
395 1 -1.1104 9.59829 -3.46958 17.7024
397 2 2.2208 8.07297 0.796144 19.1643
398 1 -1.1104 9.34279 -3.61014 15.0214
402 2 2.2208 7.95068 -2.035 16.4072
404 1 -1.1104 9.51983 -0.687243 17.8957
405 1 -1.1104 9.41464 -0.799841 15.0386
385 1 -1.1104 12.3931 2.07602 17.7551
388 1 -1.1104 12.0886 2.20495 15.144
392 2 2.2208 10.877 3.59716 19.2976
396 1 -1.1104 9.54472 2.24391 17.941
400 1 -1.1104 9.38468 2.10508 14.9872
403 2 2.2208 8.02878 3.52569 16.3865
401 1 -1.1104 9.4262 2.24965 20.7342
406 1 -1.1104 9.57055 -0.596959 20.6049
394 1 -1.1104 12.2565 -0.560742 20.7814
8601 2 2.2208 13.7567 -4.86614 25.0116
633 2 2.2208 -0.46329 9.22403 24.8774
9409 2 2.2208 -0.530135 9.01419 19.2443
658 2 2.2208 13.6138 9.14956 27.8348
510 1 -1.1104 12.1759 15.9061 23.2619
416 2 2.2208 5.35011 6.39015 16.4893
418 1 -1.1104 1.10028 7.63243 18.377
420 1 -1.1104 1.2392 7.6641 15.3413
423 1 -1.1104 1.0811 4.72031 17.743
428 1 -1.1104 1.00583 4.84978 14.9019
435 1 -1.1104 3.94021 7.56401 17.8897
436 2 2.2208 2.67817 6.32909 19.1307
438 1 -1.1104 3.97216 7.96593 15.28
441 1 -1.1104 3.88423 4.93057 17.6834
443 1 -1.1104 3.85761 5.12461 15.0069
417 2 2.2208 5.44887 11.9823 16.4538
424 1 -1.1104 1.04897 10.2943 18.1571
427 2 2.2208 5.25779 9.14634 19.3641
430 1 -1.1104 0.902486 10.5662 15.1107
437 2 2.2208 2.42303 11.9356 19.1441
440 2 2.2208 2.51392 9.18289 16.5746
442 1 -1.1104 3.91859 10.5176 17.8363
445 1 -1.1104 3.88245 10.5582 15.1395
446 1 -1.1104 3.93765 10.7386 20.3893
444 1 -1.1104 3.73127 4.85036 20.6732
433 1 -1.1104 6.74508 10.5774 15.1035
694 1 -1.1104 9.48036 18.9903 26.4254
603 2 2.2208 13.7087 -2.07455 22.1968
431 1 -1.1104 6.46477 5.0511 15.0064
419 1 -1.1104 6.63049 7.80303 17.9677
426 1 -1.1104 6.73506 10.5848 17.8207
425 1 -1.1104 6.65702 4.99167 17.7696
421 1 -1.1104 6.82413 7.79256 15.0277
452 2 2.2208 10.9068 6.31327 16.5275
454 1 -1.1104 12.3037 7.73795 18.0314
455 1 -1.1104 12.4258 7.72307 15.0697
457 1 -1.1104 12.1807 4.85875 17.7881
460 1 -1.1104 12.3052 4.91213 14.994
464 1 -1.1104 9.56192 7.68422 17.9462
465 2 2.2208 8.15211 6.3304 19.3834
467 1 -1.1104 9.66169 7.60436 15.1867
470 1 -1.1104 9.4278 5.02175 17.9436
472 1 -1.1104 9.42465 4.84631 15.0626
453 2 2.2208 10.9841 11.8374 16.5028
458 1 -1.1104 12.3439 10.2809 17.8679
459 2 2.2208 10.8745 9.22949 19.4178
462 1 -1.1104 12.3404 10.6487 15.2235
466 2 2.2208 7.99396 11.8791 19.1496
469 2 2.2208 8.17594 9.02877 16.476
471 1 -1.1104 9.47667 10.5835 17.7451
474 1 -1.1104 9.42901 10.4195 15.0972
456 1 -1.1104 12.2362 7.65828 20.6769
434 1 -1.1104 6.60379 10.4995 20.6795
468 1 -1.1104 9.45639 7.86192 20.7854
475 1 -1.1104 9.51653 10.6578 20.5945
461 1 -1.1104 12.3268 4.93155 20.5836
422 1 -1.1104 6.61874 7.46846 20.7249
697 2 2.2208 8.08115 17.7867 24.8333
478 1 -1.1104 1.05151 13.244 17.857
482 1 -1.1104 1.06568 13.417 15.0646
498 1 -1.1104 4.00295 13.4514 17.7385
501 1 -1.1104 3.77354 13.3792 14.9606
477 2 2.2208 5.27563 17.5079 16.4111
479 1 -1.1104 0.812823 19.0569 17.8845
484 1 -1.1104 1.0223 18.8403 15.0888
490 1 -1.1104 0.918718 16.1755 17.9984
492 2 2.2208 5.35754 14.7833 19.3046
493 2 2.2208 5.21377 20.4244 19.296
494 1 -1.1104 1.03625 16.1659 15.2626
499 1 -1.1104 3.70911 18.9668 17.7231
500 2 2.2208 2.30044 17.5278 19.1993
503 1 -1.1104 3.86988 18.9817 14.9422
505 2 2.2208 2.41262 14.7327 16.4759
506 2 2.2208 2.34492 20.2913 16.3116
507 1 -1.1104 3.8072 16.0957 17.8897
508 1 -1.1104 4.01746 16.3028 14.7161
483 1 -1.1104 0.638281 12.8594 20.4784
502 1 -1.1104 3.57773 13.3837 20.7065
488 1 -1.1104 6.66733 19.0353 15.034
491 1 -1.1104 6.67293 16.1193 17.8178
511 2 2.2208 10.7452 14.7783 24.9261
487 1 -1.1104 6.44776 13.4628 20.7097
485 1 -1.1104 0.923583 18.8868 20.6487
495 1 -1.1104 1.21272 16.0558 20.7834
690 1 -1.1104 9.2743 16.2405 26.3284
489 1 -1.1104 6.62585 19.1029 20.8857
537 2 2.2208 10.8497 20.4393 13.5959
536 1 -1.1104 9.48411 16.2779 20.8489
447 1 -1.1104 12.3105 18.799 23.5753
531 1 -1.1104 9.44423 19.2017 20.6306
480 1 -1.1104 6.78176 13.495 17.9037
481 1 -1.1104 6.41389 18.8919 17.872
486 1 -1.1104 6.67472 13.3238 15.0543
496 1 -1.1104 6.57727 16.0919 15.1675
514 1 -1.1104 12.5914 13.2257 17.8941
516 1 -1.1104 12.3281 13.487 15.0134
525 1 -1.1104 9.7032 13.4221 18.1094
528 1 -1.1104 9.5881 13.3086 15.2996
513 2 2.2208 10.8109 17.6864 16.4767
515 1 -1.1104 12.0622 19.0027 18.1144
518 1 -1.1104 12.1306 19.0831 15.0171
520 1 -1.1104 12.496 16.3361 17.8112
521 2 2.2208 10.8289 14.7331 19.4776
522 2 2.2208 10.8165 20.4204 19.428
523 1 -1.1104 12.2778 16.3599 14.9432
526 1 -1.1104 9.26297 19.0282 17.7743
527 2 2.2208 8.11863 17.5044 19.2305
530 1 -1.1104 9.38914 19.0254 14.8954
532 2 2.2208 8.09757 14.7518 16.536
533 2 2.2208 8.096 20.4294 16.4027
534 1 -1.1104 9.56888 16.2167 17.9458
535 1 -1.1104 9.43022 16.0785 15.1121
529 1 -1.1104 9.31709 13.323 20.8604
524 1 -1.1104 12.2661 16.0805 20.5477
517 1 -1.1104 12.317 13.2554 20.806
408 1 -1.1104 12.1738 13.4189 23.7189
9439 2 2.2208 13.5156 20.5333 16.6478
539 2 2.2208 8.02428 17.6008 13.6335
576 2 2.2208 -0.395854 3.46167 24.8181
367 1 -1.1104 3.6945 2.05137 20.5596
631 2 2.2208 5.19509 12.0087 27.5785
695 1 -1.1104 9.33766 13.4868 26.359
574 2 2.2208 -0.405078 -2.03577 24.8594
541 2 2.2208 5.18609 0.608664 22.0434
542 1 -1.1104 0.973702 -3.6588 23.4968
546 1 -1.1104 0.981096 -3.52262 26.4559
550 1 -1.1104 1.09925 -0.92902 23.4285
552 2 2.2208 5.24209 -2.0719 24.8346
554 1 -1.1104 0.998631 -0.640949 26.282
556 1 -1.1104 3.66854 -3.55895 23.4311
558 2 2.2208 2.39325 0.606486 24.7279
559 1 -1.1104 3.79435 -3.60555 26.3159
561 2 2.2208 2.4753 -2.09224 21.9873
563 1 -1.1104 3.92804 -0.709164 23.4052
564 1 -1.1104 3.73114 -0.782102 26.3391
543 1 -1.1104 1.12573 1.92241 23.1456
547 1 -1.1104 0.950745 2.16838 25.9911
553 2 2.2208 5.12782 3.54631 24.7788
557 1 -1.1104 3.96894 2.2807 23.3466
560 1 -1.1104 3.74328 2.08794 26.1754
562 2 2.2208 2.441 3.45949 22.008
570 1 -1.1104 12.2917 16.0725 26.1793
573 1 -1.1104 9.38616 13.479 23.6223
407 2 2.2208 13.7868 14.7759 16.535
575 2 2.2208 -0.40481 0.626063 21.975
373 2 2.2208 -0.347926 6.26692 22.3188
338 2 2.2208 -0.410593 0.979386 27.6293
696 1 -1.1104 6.72717 19.092 26.3311
352 1 -1.1104 6.65077 2.0521 20.5153
387 1 -1.1104 12.3923 -3.43841 20.6758
389 1 -1.1104 12.1917 2.10033 20.5576
382 2 2.2208 10.8278 17.6407 22.1278
595 2 2.2208 10.9318 0.845162 27.8345
376 2 2.2208 -0.421081 0.782196 16.3615
551 1 -1.1104 6.53779 -0.665953 23.4894
545 1 -1.1104 6.52963 2.08776 23.4325
360 1 -1.1104 6.67368 -0.833212 20.5263
549 1 -1.1104 6.58145 2.08379 26.3022
548 1 -1.1104 6.52626 -3.40864 26.2432
399 1 -1.1104 9.53472 -3.47012 20.5143
555 1 -1.1104 6.71018 -0.575394 26.5019
544 1 -1.1104 6.50308 -3.46823 23.5375
577 2 2.2208 10.8543 0.763629 22.0666
578 1 -1.1104 12.2345 -3.36643 23.5016
580 1 -1.1104 12.1992 -3.36072 26.0985
582 1 -1.1104 12.2994 -0.624624 23.4825
583 2 2.2208 10.9174 -2.03205 24.9796
585 1 -1.1104 12.3766 -0.654532 26.2773
586 1 -1.1104 9.34803 -3.52197 23.4496
588 2 2.2208 8.14426 0.855236 24.9917
589 1 -1.1104 9.44806 -3.34784 26.3693
591 2 2.2208 8.06458 -2.19139 21.9697
593 1 -1.1104 9.35116 -0.730254 23.5115
594 1 -1.1104 9.54216 -0.445456 26.1941
579 1 -1.1104 12.3303 2.16683 23.2828
581 1 -1.1104 12.117 2.04222 26.2208
584 2 2.2208 10.974 3.40369 24.8961
587 1 -1.1104 9.58977 2.06479 23.6257
590 1 -1.1104 9.38102 2.22112 26.5142
592 2 2.2208 8.09145 3.52669 22.141
9293 2 2.2208 13.886 20.2139 22.2719
667 1 -1.1104 6.5609 18.8299 23.574
439 1 -1.1104 3.81078 7.61525 20.5393
429 1 -1.1104 1.05892 5.49916 20.695
432 1 -1.1104 6.60349 4.67239 20.6296
687 1 -1.1104 9.50129 19.1516 23.5194
689 2 2.2208 -0.433712 17.5536 22.1892
606 2 2.2208 5.05616 6.41129 22.0748
608 1 -1.1104 0.708098 7.71354 23.6087
610 1 -1.1104 1.00888 7.87109 26.3275
612 1 -1.1104 0.932714 4.67962 23.4281
617 1 -1.1104 1.1142 4.82992 26.2246
621 1 -1.1104 3.82995 7.46401 23.4344
622 2 2.2208 2.34832 6.36302 24.8547
624 1 -1.1104 3.94679 7.92538 26.5323
625 1 -1.1104 3.74874 4.83368 23.5577
627 1 -1.1104 4.21289 5.10803 26.1565
607 2 2.2208 5.07437 11.9932 22.1644
613 1 -1.1104 0.705029 10.9614 23.4418
616 2 2.2208 4.87622 9.14206 24.7794
618 1 -1.1104 0.872707 10.5641 26.2636
623 2 2.2208 2.31167 12.0071 24.8772
626 1 -1.1104 3.84133 10.8823 23.5977
628 1 -1.1104 3.67126 10.569 26.3294
620 1 -1.1104 6.49737 10.5867 26.1544
540 2 2.2208 13.5457 17.6729 13.5823
692 2 2.2208 7.98145 20.5256 21.9998
519 1 -1.1104 12.3105 18.9315 20.8666
678 1 -1.1104 6.78851 16.1341 23.315
600 2 2.2208 13.7514 17.6014 25.0477
463 1 -1.1104 12.174 10.5778 20.8795
473 1 -1.1104 9.60036 5.01167 20.8532
448 1 -1.1104 12.1769 13.2931 26.5438
611 1 -1.1104 6.84435 7.89013 26.499
614 1 -1.1104 6.6163 5.1225 23.6058
615 1 -1.1104 6.69895 10.6821 23.3636
619 1 -1.1104 6.67914 5.00483 26.4343
609 1 -1.1104 6.44808 7.83466 23.5596
637 1 -1.1104 9.58904 5.17477 26.2526
639 1 -1.1104 9.48468 4.7463 23.4612
641 1 -1.1104 9.49121 7.94983 26.4658
643 2 2.2208 8.00097 6.49971 24.9424
644 2 2.2208 10.9374 6.2454 22.2049
646 1 -1.1104 12.3239 7.75372 23.5439
647 1 -1.1104 12.2307 7.75576 26.2979
648 1 -1.1104 12.4343 4.95513 23.5672
651 1 -1.1104 12.4709 4.82716 26.2247
653 1 -1.1104 9.24561 7.65626 23.4616
636 1 -1.1104 9.3704 10.7581 26.275
638 1 -1.1104 9.494 10.6182 23.7177
640 2 2.2208 7.91457 9.20582 22.0912
642 2 2.2208 7.98383 11.973 24.9558
645 2 2.2208 10.7693 11.9758 22.2123
649 1 -1.1104 12.1431 10.6453 23.7223
650 2 2.2208 10.8125 9.13162 24.8864
652 1 -1.1104 12.1213 10.5258 26.3315
9410 2 2.2208 -0.316014 6.22151 16.4544
693 2 2.2208 8.0542 14.8066 22.1766
504 1 -1.1104 3.87405 18.8151 20.719
497 1 -1.1104 6.84369 16.2551 20.6698
509 1 -1.1104 4.08798 16.0397 20.8514
663 1 -1.1104 6.56027 16.2974 26.2858
662 1 -1.1104 3.62122 13.7091 23.6174
666 1 -1.1104 0.936412 13.3536 26.3621
672 1 -1.1104 1.04076 13.4047 23.5029
677 1 -1.1104 3.5892 13.3848 26.3358
660 1 -1.1104 3.64534 19.154 23.5146
664 1 -1.1104 1.17766 18.9879 26.2476
665 1 -1.1104 0.982973 16.1358 26.3276
668 2 2.2208 5.05645 20.3726 24.9501
669 2 2.2208 5.26408 14.7263 24.8791
671 1 -1.1104 0.986009 18.8404 23.5108
673 2 2.2208 5.35895 17.4996 22.0242
674 1 -1.1104 3.82882 18.9118 26.444
675 2 2.2208 2.48504 17.5173 24.8293
676 1 -1.1104 3.94653 16.0211 26.1811
679 1 -1.1104 1.05431 16.1251 23.6258
680 1 -1.1104 4.00064 16.5718 23.4567
681 2 2.2208 2.3671 20.2279 22.0332
682 2 2.2208 2.40914 14.8536 22.2037
661 1 -1.1104 6.58469 13.4386 26.473
670 1 -1.1104 6.52524 13.4099 23.5538
566 2 2.2208 10.9516 20.4294 24.8659
449 1 -1.1104 12.2812 19.0503 26.5294
688 2 2.2208 -0.455283 20.4596 24.9337
335 2 2.2208 2.58352 17.5418 13.4108
569 2 2.2208 13.7024 12.1143 13.6713
629 2 2.2208 5.19129 6.53317 27.7663
375 2 2.2208 13.903 3.52913 22.0583
411 2 2.2208 13.6489 -2.11854 16.5435
378 2 2.2208 7.98238 14.8547 27.7136
655 2 2.2208 7.89257 9.38123 27.7576
656 2 2.2208 10.8833 11.9278 27.7106
336 2 2.2208 2.18995 -2.07791 27.8186
330 2 2.2208 -0.41195 9.13413 13.8224
567 2 2.2208 2.50214 3.39152 27.558
565 2 2.2208 5.23323 0.726751 27.7183
332 2 2.2208 5.19408 9.16645 13.5484
413 2 2.2208 8.08652 0.700973 13.4599
337 2 2.2208 -0.374459 3.72051 13.5246
630 2 2.2208 2.50048 9.27349 27.8749
538 2 2.2208 10.8943 14.8426 13.664
380 2 2.2208 10.7626 17.6162 27.7107
568 2 2.2208 13.8367 6.30957 13.6494
698 2 2.2208 5.23765 23.2654 5.28472
700 1 -1.1104 0.894681 24.7614 1.18515
701 1 -1.1104 0.95213 24.8775 3.89907
702 1 -1.1104 0.950499 21.8021 0.938906
703 1 -1.1104 1.0357 27.6212 1.10556
704 2 2.2208 5.29077 26.0371 2.34357
705 1 -1.1104 1.0044 21.9828 3.80492
707 1 -1.1104 3.80085 24.7147 0.976114
708 2 2.2208 2.28964 23.4855 2.47974
710 1 -1.1104 3.85627 24.6906 3.88985
711 2 2.2208 2.30981 26.1866 5.30567
712 1 -1.1104 3.7172 22.0498 1.00153
714 1 -1.1104 3.82248 21.9461 3.72967
715 1 -1.1104 3.7706 27.4444 3.97175
699 2 2.2208 5.22221 28.7963 5.18394
706 1 -1.1104 1.07175 27.7129 3.89684
709 2 2.2208 2.42992 28.9966 2.5245
713 1 -1.1104 3.89581 27.7265 1.27648
723 1 -1.1104 6.50356 21.7799 3.88398
724 1 -1.1104 6.69844 27.4585 3.74648
9829 2 2.2208 -0.350758 31.718 7.93099
721 1 -1.1104 6.44733 21.9115 0.997845
1555 1 -1.1104 0.960199 47.2491 12.4008
1415 1 -1.1104 9.60191 47.096 3.69492
841 1 -1.1104 0.932105 21.7682 6.60113
720 1 -1.1104 6.78463 24.5721 3.80408
722 1 -1.1104 6.75526 27.4307 1.06241
719 1 -1.1104 6.54384 24.6653 0.997533
725 2 2.2208 10.7156 23.3519 5.34376
727 1 -1.1104 12.3827 24.5127 1.05309
728 1 -1.1104 12.1685 24.3944 3.96039
729 1 -1.1104 12.1883 21.856 1.15531
731 2 2.2208 10.7616 26.1082 2.38102
732 1 -1.1104 12.237 21.8165 3.95147
734 1 -1.1104 9.48933 24.5419 0.982883
735 2 2.2208 8.02774 23.1509 2.47541
737 1 -1.1104 9.37111 24.7848 3.90274
738 2 2.2208 8.06445 26.1027 5.19879
739 1 -1.1104 9.53961 21.7195 1.22043
740 1 -1.1104 9.25679 27.5328 0.947367
741 1 -1.1104 9.5333 21.83 3.79574
726 2 2.2208 10.6839 28.9198 5.20819
730 1 -1.1104 12.1165 27.2962 0.889483
733 1 -1.1104 12.4897 27.2456 3.56921
736 2 2.2208 7.90878 28.9139 2.36894
742 1 -1.1104 9.47215 27.5881 3.73528
10248 2 2.2208 13.817 43.0651 -0.399229
1000 2 2.2208 13.6416 40.0996 8.07223
1346 2 2.2208 2.37139 42.9338 -0.368549
9972 2 2.2208 -0.33591 26.0007 13.7027
1551 1 -1.1104 1.13405 46.9239 6.75834
1399 1 -1.1104 12.1833 47.0265 1.2593
747 1 -1.1104 1.07639 30.3705 1.07075
750 1 -1.1104 0.879591 30.4516 3.83016
753 1 -1.1104 0.891854 33.1374 0.928623
754 2 2.2208 5.24853 31.7313 2.49651
756 1 -1.1104 0.953294 33.2202 3.80551
758 1 -1.1104 3.89868 30.4342 1.09586
761 1 -1.1104 3.79885 30.2821 3.9076
763 2 2.2208 2.21999 31.8799 5.31502
765 1 -1.1104 3.73736 33.1208 1.08288
766 1 -1.1104 3.7381 33.1627 3.7796
746 2 2.2208 5.13155 34.587 5.25518
748 1 -1.1104 0.966415 35.9576 0.81108
751 1 -1.1104 0.95009 36.1642 3.58725
755 2 2.2208 5.13739 37.2043 2.41058
759 1 -1.1104 3.84561 35.8974 0.990719
760 2 2.2208 2.33039 34.5894 2.3907
762 1 -1.1104 3.59844 35.8913 3.97949
764 2 2.2208 2.26901 37.4948 5.34263
903 1 -1.1104 3.57452 36.0535 6.63191
772 1 -1.1104 6.58661 33.2189 1.05395
749 1 -1.1104 6.77325 35.9576 1.02076
10069 2 2.2208 -0.375705 45.816 -0.476854
770 1 -1.1104 6.65769 30.3285 1.06569
1287 2 2.2208 2.48679 37.1831 -0.457615
1258 2 2.2208 10.8377 23.2191 -0.313378
900 1 -1.1104 0.850574 33.3804 6.71782
1229 2 2.2208 2.26214 26.0967 -0.379092
1358 1 -1.1104 0.977595 47.0402 1.1131
9886 2 2.2208 -0.434895 28.9206 5.20326
757 1 -1.1104 6.66703 33.1564 4.01409
771 1 -1.1104 6.74095 30.3696 3.76789
752 1 -1.1104 6.48949 35.7181 3.87863
774 1 -1.1104 12.3723 30.1211 0.95092
776 1 -1.1104 12.2603 30.1312 3.81639
778 1 -1.1104 12.1977 32.9762 1.12451
779 2 2.2208 10.9181 31.5043 2.43802
781 1 -1.1104 12.4558 32.9909 3.91817
782 1 -1.1104 9.49981 30.2055 1.0511
785 1 -1.1104 9.49478 30.3373 3.83279
787 2 2.2208 8.12261 31.751 5.13884
789 1 -1.1104 9.4812 32.9109 1.19079
790 1 -1.1104 9.61302 33.1492 3.89277
773 2 2.2208 10.8736 34.3804 5.24502
775 1 -1.1104 12.4892 35.8386 1.10556
777 1 -1.1104 12.1183 35.5824 3.63989
780 2 2.2208 10.8176 37.2243 2.53543
783 1 -1.1104 9.60068 35.7059 1.13293
784 2 2.2208 8.06584 34.5756 2.61805
786 1 -1.1104 9.32226 36.0375 3.86539
788 2 2.2208 7.94044 37.2815 5.10352
931 1 -1.1104 9.43227 35.9067 6.4311
716 2 2.2208 13.6174 42.9788 10.8836
1264 2 2.2208 10.8543 28.9252 -0.382697
1361 1 -1.1104 6.53759 47.063 0.911447