LAMMPS (29 Oct 2020)
OMP_NUM_THREADS environment is not set. Defaulting to 1 thread. (../comm.cpp:94)
  using 1 OpenMP thread(s) per MPI task
OMP_NUM_THREADS environment is not set. Defaulting to 1 thread. (../comm.cpp:94)
  using 1 OpenMP thread(s) per MPI task
Lattice spacing in x,y,z = 5.5788000 5.5788000 5.5788000
Created orthogonal box = (0.0000000 0.0000000 0.0000000) to (27.894000 334.72800 27.894000)
  2 by 13 by 2 MPI processor grid
Changing box ...
  triclinic box = (0.0000000 0.0000000 0.0000000) to (27.894000 334.72800 27.894000) with tilt (0.0000000 0.0000000 0.0000000)
Created 12000 atoms
  create_atoms CPU = 0.007 seconds
Lattice spacing in x,y,z = 5.5788000 5.5788000 5.5788000
Created 6000 atoms
  create_atoms CPU = 0.001 seconds
12000 atoms in group oxygen
6000 atoms in group uranium
Setting atom values ...
  22 settings made for type/ratio
Setting atom values ...
  22 settings made for type/ratio
22 atoms in group anti_oxygen
22 atoms in group anti_uranium
Setting atom values ...
  22 settings made for type
Setting atom values ...
  22 settings made for type
Setting atom values ...
  12000 settings made for charge
Setting atom values ...
  6000 settings made for charge
PPPM initialization ...
  using 12-bit tables for long-range coulomb (../kspace.cpp:328)
  G vector (1/distance) = 0.29916851
  grid = 40 240 40
  stencil order = 5
  estimated absolute RMS force accuracy = 0.00015502622
  estimated relative force accuracy = 1.0765975e-05
  using single precision MKL FFT
  3d grid and FFT values/proc = 18225 7600
Neighbor list info ...
  update every 1 steps, delay 0 steps, check yes
  max neighbors/atom: 2000, page size: 100000
  master list distance cutoff = 13
  ghost atom cutoff = 13
  binsize = 6.5, bins = 5 52 5
  2 neighbor lists, perpetual/occasional/extra = 2 0 0
  (1) pair coul/long, perpetual
      attributes: half, newton on
      pair build: half/bin/newton/tri
      stencil: half/bin/3d/newton/tri
      bin: standard
  (2) pair eam/alloy, perpetual, copy from (1)
      attributes: half, newton on
      pair build: copy
      stencil: none
      bin: none
Setting up cg style minimization ...
  Unit style    : metal
  Current step  : 0
WARNING: Energy due to 3 extra global DOFs will be included in minimizer energies
Per MPI rank memory allocation (min/avg/max) = 10.42 | 10.45 | 10.47 Mbytes
Step Temp E_pair E_mol TotEng Press Volume 
       0            0   -232429.76            0   -232429.76    14303.058    260443.57 
     829            0   -235528.01            0   -235528.01    138.17647    263794.26 
Loop time of 13.334 on 52 procs for 829 steps with 18000 atoms

99.7% CPU use with 52 MPI tasks x 1 OpenMP threads

Minimization stats:
  Stopping criterion = linesearch alpha is zero
  Energy initial, next-to-last, final = 
     -232429.763555041  -235528.010984748  -235528.010984748
  Force two-norm initial, final = 5386.2722 45.547724
  Force max component initial, final = 3798.0178 23.180158
  Final line search alpha, max atom move = 4.4688628e-12 1.0358894e-10
  Iterations, force evaluations = 829 1162

MPI task timing breakdown:
Section |  min time  |  avg time  |  max time  |%varavg| %total
---------------------------------------------------------------
Pair    | 7.4614     | 7.8619     | 8.3753     |   8.1 | 58.96
Bond    | 9.1314e-05 | 0.00015523 | 0.00025598 |   0.0 |  0.00
Kspace  | 1.78       | 2.2945     | 2.694      |  15.0 | 17.21
Neigh   | 0.020645   | 0.023132   | 0.027574   |   1.0 |  0.17
Comm    | 0.18781    | 0.19415    | 0.20339    |   0.7 |  1.46
Output  | 0          | 0          | 0          |   0.0 |  0.00
Modify  | 0          | 0          | 0          |   0.0 |  0.00
Other   |            | 2.96       |            |       | 22.20

Nlocal:        346.154 ave         412 max         300 min
Histogram: 4 9 5 5 10 8 8 1 1 1
Nghost:        5656.83 ave        5820 max        5500 min
Histogram: 2 10 7 1 1 11 9 3 5 3
Neighs:       111624.0 ave      132960 max       96226 min
Histogram: 2 9 7 4 10 9 8 1 1 1

Total # of neighbors = 5804426
Ave neighs/atom = 322.46811
Ave special neighs/atom = 0.0000000
Neighbor list builds = 6
Dangerous builds = 0
PPPM initialization ...
  using 12-bit tables for long-range coulomb (../kspace.cpp:328)
  G vector (1/distance) = 0.29898277
  grid = 40 240 40
  stencil order = 5
  estimated absolute RMS force accuracy = 0.00015628065
  estimated relative force accuracy = 1.0853091e-05
  using single precision MKL FFT
  3d grid and FFT values/proc = 18225 7600
Setting up Verlet run ...
  Unit style    : metal
  Current step  : 0
  Time step     : 0.001
Per MPI rank memory allocation (min/avg/max) = 10.56 | 10.59 | 10.61 Mbytes
Step Dt Time Atoms Temp PotEng KinEng Press Volume v_latt 
       0        0.001            0    18000          900   -235528.02     2093.898    8616.1109    263794.26    5.6026464 
   50000        0.001           50    18000    897.02822   -234402.81     2086.984   -1989.1886    268504.65    5.6357738 
  100000        0.001          100    18000    889.60529   -234399.27    2069.7142    564.59235    268116.72    5.6330587 
Loop time of 877.38 on 52 procs for 100000 steps with 18000 atoms

Performance: 9.847 ns/day, 2.437 hours/ns, 113.976 timesteps/s
99.8% CPU use with 52 MPI tasks x 1 OpenMP threads

MPI task timing breakdown:
Section |  min time  |  avg time  |  max time  |%varavg| %total
---------------------------------------------------------------
Pair    | 550.38     | 560.3      | 577.69     |  26.7 | 63.86
Bond    | 0.0098307  | 0.014181   | 0.021327   |   1.9 |  0.00
Kspace  | 148.51     | 166.13     | 176.31     |  50.0 | 18.93
Neigh   | 6.1283     | 6.3653     | 6.8433     |   7.0 |  0.73
Comm    | 17.099     | 17.553     | 18.004     |   4.7 |  2.00
Output  | 0.0074812  | 0.0074899  | 0.0077934  |   0.0 |  0.00
Modify  | 113.69     | 118.12     | 123.36     |  25.2 | 13.46
Other   |            | 8.897      |            |       |  1.01

Nlocal:        346.154 ave         370 max         332 min
Histogram: 3 14 9 6 2 7 4 3 3 1
Nghost:        5602.65 ave        5704 max        5519 min
Histogram: 9 13 4 2 0 0 3 10 8 3
Neighs:       109269.0 ave      117046 max      104664 min
Histogram: 6 10 10 7 2 7 3 4 2 1

Total # of neighbors = 5681976
Ave neighs/atom = 315.66533
Ave special neighs/atom = 0.0000000
Neighbor list builds = 1587
Dangerous builds = 0
System init for write_data ...
PPPM initialization ...
  using 12-bit tables for long-range coulomb (../kspace.cpp:328)
  G vector (1/distance) = 0.29862782
  grid = 40 240 40
  stencil order = 5
  estimated absolute RMS force accuracy = 0.0001594245
  estimated relative force accuracy = 1.1071419e-05
  using single precision MKL FFT
  3d grid and FFT values/proc = 18225 7600
Total wall time: 0:14:51
