ITEM: TIMESTEP
50000
ITEM: NUMBER OF ATOMS
18000
ITEM: BOX BOUNDS pp pp pp
-4.4695087496567293e-01 2.7786950874965562e+01
-5.4417402103684429e+00 3.3352174021036706e+02
-4.6216703358684413e-01 2.7802167033586617e+01
ITEM: ATOMS id type x y z
3673 2 5.26814 -0.0481614 5.17728
6 1 0.892134 -0.906284 1.1386
14 2 5.25924 -2.71265 2.37203
8 1 0.993459 -1.28614 3.8004
9 1 3.59748 -1.38241 0.843833
63 2 2.46123 0.1223 2.31952
10 1 3.76362 -4.18663 3.90656
3604 2 2.22472 -2.87002 5.09963
12 1 3.93108 -1.23602 3.52391
3551 1 1.06381 -3.97859 2.48524
3553 1 3.90532 -4.03196 0.988723
7468 2 13.4822 19.7368 10.9677
145 2 10.8016 5.58913 -0.454256
4 2 2.15751 -2.97256 -0.140941
20 1 6.66097 -1.13562 3.71673
17948 1 -0.622216 -3.45612 0.328329
3619 1 6.71659 -1.41322 6.92843
7457 1 6.78148 18.1673 12.1355
7455 2 7.88787 16.9145 13.6078
7226 2 10.7463 -2.88368 13.7521
3560 1 6.55916 -3.82036 3.91437
17 1 6.52923 -1.31359 0.85993
17964 1 6.58564 -4.21678 1.19659
18 1 9.31154 -1.51075 3.76689
19 1 9.43095 -1.35211 0.852853
3685 2 10.7751 -0.0967175 5.27581
31 1 12.3388 -1.49242 1.12019
26 2 10.7583 -2.92103 2.57953
21 1 9.47191 -4.066 0.925185
75 2 7.98054 0.113498 2.40439
22 1 12.1673 -1.60412 4.10316
3616 2 7.93528 -2.87485 5.28354
3564 1 9.33969 -4.32385 3.89419
14430 1 12.1803 -4.52234 1.09952
3572 1 12.1066 -4.32336 3.71748
3621 1 9.50864 -4.34086 6.97353
3813 1 13.1505 11.6745 5.11295
3811 1 11.5343 16.1412 8.02827
3628 2 13.5236 -2.85204 5.36197
65 1 0.966561 4.35402 1.12534
66 1 1.02126 1.53355 3.71811
7 1 0.754 1.90125 0.883477
74 2 5.11908 2.99545 2.42641
69 1 3.6778 4.16705 1.02214
70 1 3.94311 1.47639 3.82795
3664 2 2.11036 2.87668 5.32162
11 1 3.61294 1.49839 0.882841
3733 2 5.13129 5.46512 5.16539
126 1 1.00963 6.93688 3.80772
67 1 0.654393 7.16816 0.816182
68 1 0.783182 4.23016 3.96905
123 2 2.25152 5.56541 2.33629
72 1 3.61242 4.10689 3.96138
129 1 3.63835 7.05423 0.898498
130 1 3.69168 6.93015 3.87056
7322 2 -0.411832 8.33349 13.6922
138 1 6.45163 7.07811 3.97686
73 2 5.07865 0.0490451 -0.559066
78 1 6.64638 1.59839 3.76105
137 1 6.50503 7.21801 0.88995
3602 2 -0.346714 -2.82491 8.27363
79 2 8.066 2.8812 -0.332427
7228 2 13.6728 -2.69255 10.8888
3747 2 13.5805 5.73361 8.02236
77 1 6.58019 1.65391 1.02196
71 1 6.67939 4.41852 0.899563
80 1 6.54198 4.46638 3.60134
23 1 12.313 1.26794 1.00554
35 1 12.3284 4.02616 1.15659
32 1 12.3017 1.28512 3.86747
89 1 12.1055 4.10436 3.83479
90 1 9.38566 4.37143 3.77421
86 2 10.898 2.90241 2.4254
81 1 9.51781 4.21901 0.959859
82 1 9.3389 1.48611 1.15874
3676 2 7.97319 2.7116 5.05581
24 1 9.50065 1.44909 3.98531
3745 2 10.7831 5.52912 5.31516
150 1 12.1182 6.92174 3.71879
135 2 7.93256 5.88205 2.51747
83 1 12.1037 6.78835 0.982886
84 1 9.23338 7.33911 4.09829
141 1 9.24626 6.942 1.04856
3679 1 6.44258 4.17482 6.60765
3691 1 9.29078 4.12311 6.61278
7288 2 13.4854 2.89823 11.0343
3793 2 4.95001 11.3428 5.29206
125 1 0.910606 10.0184 1.08203
134 2 5.0029 8.25842 2.35044
128 1 0.781528 9.74939 3.77233
183 2 2.33018 11.2742 2.57879
3724 2 2.30227 8.30228 5.24966
131 1 3.65228 9.88134 0.943285
132 1 3.48208 9.58815 3.54177
186 1 0.955076 12.5834 4.00684
190 1 3.696 12.6254 3.8047
197 1 3.48209 12.6586 0.941381
127 1 0.740158 13.4017 0.582341
203 1 6.33764 12.4971 0.910723
140 1 6.18623 9.87449 3.86521
194 2 5.11158 14.1118 2.3037
3727 1 0.933475 9.79324 6.65229
3687 2 13.6288 -0.0717499 8.08784
198 1 6.30752 12.8207 3.79024
139 1 6.28726 9.83149 1.00521
153 1 13.2906 8.9573 2.29979
149 1 10.8585 9.22323 0.379807
3805 2 10.4903 11.4114 2.05338
151 1 12.5037 11.1047 0.656029
146 2 10.7246 8.20133 2.45474
152 1 11.398 10.0875 3.73455
195 2 7.41434 11.2647 2.60204
3736 2 7.74827 8.35579 5.3212
143 1 10.8147 13.409 0.343738
3743 1 9.32788 11.7621 3.96704
144 1 8.91665 9.50304 2.42216
210 1 11.9934 12.9908 2.86022
14544 1 8.95816 11.3009 0.48859
3795 2 10.8284 11.4748 5.56885
187 1 -0.288238 16.0689 1.40718
3741 1 9.17193 9.97067 6.53546
202 1 8.76282 13.5242 2.17163
196 2 8.23701 13.4994 -0.27088
3748 2 13.5817 8.4751 4.95532
88 2 13.6237 2.75578 -0.269333
3803 1 9.17643 15.5262 6.58665
3784 2 2.14688 14.1878 5.29069
7274 2 5.0854 2.88225 13.621
3853 2 4.90527 16.8075 5.03927
245 1 1.06952 18.6324 0.829824
246 1 0.751189 18.3561 3.55449
188 1 0.858892 15.4307 3.92936
249 1 3.8696 18.4793 0.781708
243 2 2.11856 16.9282 2.04894
250 1 3.45664 18.2413 3.54848
3844 2 2.1565 19.8307 5.19039
192 1 3.62717 15.184 3.76398
199 1 3.55701 15.5188 0.845449
254 2 5.12292 19.7921 2.28746
200 1 6.42965 15.6303 3.36433
258 1 6.20546 18.3114 3.573
317 1 6.8263 18.369 0.766628
7408 2 13.6027 14.1347 11.3574
7334 2 5.16556 8.51669 13.6313
3849 1 3.60942 18.309 6.54077
3791 1 3.63349 15.3643 6.71882
3600 1 -0.386673 -3.39479 4.82257
7312 2 -0.449726 0.0714625 10.9291
3809 1 11.228 13.9454 5.74101
3796 2 7.98597 14.0513 5.17121
201 1 6.7135 15.5471 0.585888
257 1 9.42717 18.5239 0.356432
266 2 10.7122 20.0545 2.32485
3856 2 7.91469 19.8468 5.07209
3865 2 10.6941 16.8482 5.64373
14662 1 12.3332 18.5581 0.814526
270 1 11.8658 18.5651 3.75704
211 1 12.3783 15.6214 0.863242
206 2 10.7702 14.7633 2.26275
212 1 12.2902 15.894 3.62131
261 1 9.62754 16.2276 0.905173
255 2 7.85309 17.1484 2.62532
262 1 9.19878 18.7114 3.57525
204 1 9.38646 15.8923 3.94933
85 2 10.8791 -0.157458 -0.337436
7396 2 7.84205 14.0898 10.861
3815 1 12.9253 15.8451 6.31806
7469 1 12.0555 18.2502 12.0874
148 2 13.0555 8.67692 -0.272501
3609 1 3.82452 -4.25114 6.83012
3869 1 12.0554 18.6505 6.50327
3607 1 1.06213 -1.39447 6.65684
3611 1 3.92976 -1.47671 6.59283
3605 1 1.26455 -4.05497 6.87687
7273 2 5.14848 -0.227593 10.9703
7205 1 0.995068 -4.32494 12.3274
3606 1 1.10476 -1.49373 9.56238
7207 1 0.600814 -1.58877 12.262
3614 2 5.22779 -2.83538 8.08034
7209 1 3.76626 -4.26316 12.3371
3663 2 2.42236 -0.093983 8.09295
3610 1 3.77402 -4.30203 9.53402
7204 2 2.36745 -2.96817 10.87
7211 1 3.72047 -1.44093 12.2552
3612 1 3.87112 -1.46166 9.52263
7148 1 0.959485 -4.30849 9.61521
3620 1 6.60304 -1.50498 9.69033
3808 2 13.383 14.0351 4.96697
7381 2 -0.452135 11.37 10.7628
7219 1 6.59637 -1.35619 12.4151
3623 1 9.36784 -1.46575 6.7209
3629 1 12.4355 -4.34852 6.62238
3617 1 6.46053 -4.17834 6.60402
3631 1 12.0273 -1.55166 6.6686
3618 1 6.71782 -4.38356 9.5548
7217 1 6.57589 -4.16293 12.2231
7285 2 10.7142 0.062863 10.9705
7229 1 12.0102 -4.25111 12.3429
3630 1 12.2848 -4.19449 9.46876
7231 1 12.1168 -1.55156 12.2896
3626 2 10.6628 -2.67501 8.12951
3632 1 12.3167 -1.16334 9.49439
7221 1 9.43046 -4.258 12.4435
3675 2 7.87238 0.0534762 8.08479
3622 1 9.33768 -4.15572 9.53562
7216 2 8.06538 -2.96809 10.9735
7223 1 9.48403 -1.54434 12.4445
3624 1 9.35528 -1.15598 9.41954
3818 2 13.3775 14.3251 8.24246
3667 1 0.956997 4.29718 6.70733
3725 1 0.817218 7.04979 6.71111
7403 1 9.27094 15.5943 12.3237
3812 1 13.6586 16.0135 9.83551
3671 1 3.67627 4.21232 6.69324
3729 1 3.75802 6.8803 6.57133
3669 1 3.70247 1.33904 6.68984
3665 1 0.884907 1.46166 6.6305
7265 1 0.952358 1.4384 12.4098
3666 1 0.758731 4.38353 9.48991
3674 2 5.15944 2.70039 8.13805
3608 1 0.715605 1.56816 9.52147
7269 1 3.91976 1.31277 12.1723
3670 1 3.60313 1.49277 9.46112
7264 2 2.32218 2.70282 10.8483
7333 2 5.20389 5.64164 10.8504
7325 1 0.953137 6.99807 12.3909
7267 1 0.763745 4.09528 11.9532
7329 1 3.89358 6.92249 12.4971
3723 2 2.38287 5.57226 8.05581
3730 1 3.71619 6.99969 9.4499
7271 1 3.49694 4.21273 12.3057
3672 1 3.68702 4.28162 9.66928
3726 1 0.902328 7.0667 9.60143
7277 1 6.61192 1.31995 12.2414
3738 1 6.51122 7.00118 9.49757
7337 1 6.59756 7.10715 12.2283
3868 2 13.5533 19.9488 5.1817
3683 1 9.34021 7.08665 6.86578
3804 1 9.20441 15.6518 9.36152
92 1 12.1851 6.926 6.41538
7279 1 6.48154 4.16721 12.2616
3680 1 6.36645 4.19101 9.38611
3690 1 12.2511 1.15951 6.6358
3737 1 6.56741 6.87482 6.67046
3689 1 12.2117 4.02534 6.73521
3681 1 9.4365 1.37971 6.72503
3677 1 6.42573 1.42858 6.59029
3678 1 6.53433 1.37659 9.40426
7291 1 12.2665 1.26605 12.2284
3750 1 12.1666 7.23652 9.2709
3682 1 9.63485 1.57032 9.59183
3749 1 12.2401 4.45983 9.41679
7289 1 12.5121 1.53322 9.38948
3686 2 10.9435 2.66892 8.01018
7281 1 9.36127 1.25318 12.426
7276 2 7.9018 2.8659 10.9126
3684 1 9.31762 4.21966 9.55845
7283 1 9.06867 4.07351 12.552
3742 1 9.53322 7.04057 9.61512
3735 2 7.92903 5.53403 8.1368
7345 2 10.6789 5.53329 11.0058
3692 1 11.8038 3.76793 12.1514
7341 1 9.32557 6.98759 12.3658
7349 1 11.9743 7.03655 11.8509
3866 2 10.6884 19.8033 8.04525
7443 2 2.40519 17.0242 13.5448
3731 1 3.63277 9.82037 6.52109
3785 1 0.71205 12.7208 6.65873
3789 1 3.51525 12.4976 6.48963
7393 2 5.02964 11.1783 10.826
7327 1 1.00043 9.73104 12.1206
3734 2 5.06834 8.33944 8.01889
3728 1 0.97491 9.88432 9.39421
3783 2 2.10645 11.3691 7.9415
7324 2 2.32551 8.46199 10.9271
7331 1 3.79806 9.71451 12.1436
3732 1 3.68669 9.83642 9.38292
7389 1 3.66279 12.6173 12.2506
7385 1 0.812049 12.7458 12.106
3786 1 0.917534 12.7832 9.34048
3800 1 3.60423 12.5134 9.53141
3797 1 6.6782 12.8336 6.65616
3739 1 6.51986 9.91167 6.76059
7397 1 6.46115 12.6236 12.1173
3790 1 6.30684 12.7295 9.44547
7384 2 2.27676 14.2155 10.7719
3806 2 10.2964 14.026 8.06691
3807 2 13.7727 11.0156 8.10649
142 1 12.045 9.5409 6.59995
3810 1 11.6348 14.164 9.84357
3740 1 6.47469 9.83479 9.53954
7339 1 6.59743 9.97903 12.25
3801 1 9.12059 12.6396 6.71446
3802 1 9.09368 12.686 9.38601
3751 1 11.8693 12.4987 7.60756
7401 1 9.50739 12.7233 12.1835
3744 1 9.31393 9.84516 9.42301
7343 1 9.41732 9.83938 12.2834
7336 2 8.02831 8.33023 10.8113
7405 2 10.7306 11.3783 10.8741
7351 1 12.1269 9.82272 12.0459
3746 2 10.7399 8.50477 8.01071
3752 1 12.0867 9.96097 9.39303
3798 2 7.77714 11.2301 8.14077
7409 1 12.1148 12.5931 12.3546
3862 1 9.23944 18.4243 9.49003
7456 2 7.80214 19.8222 10.8387
3787 1 0.859295 15.7491 6.57563
3857 1 6.56505 18.2211 6.31687
3864 1 6.4831 18.4728 9.32438
3845 1 0.857428 18.5418 6.4789
3794 2 5.23692 14.1432 8.0023
7441 2 -0.112037 16.9791 10.9344
7459 1 3.92949 18.5574 9.21178
7444 2 2.37192 19.8373 10.7144
7391 1 3.73499 15.441 12.2162
3792 1 3.7838 15.2909 9.32433
3788 1 0.536129 15.4846 9.33817
7449 1 4.02012 18.475 12.1379
3846 1 0.745109 18.5826 9.47048
3854 2 5.12506 19.8348 7.85578
7445 1 0.885565 18.5246 12.3775
7453 2 5.01261 16.9185 10.7867
3850 1 2.17186 16.9011 10.6152
3843 2 2.3011 16.9306 8.24762
7387 1 0.809767 15.4726 12.3863
3799 1 6.39641 15.4349 6.47827
7348 2 13.4477 8.2563 10.7934
7461 1 9.3558 18.8672 12.3033
7465 2 10.7767 16.7828 10.582
3855 2 7.79203 17.0653 8.001
3858 1 6.47806 15.6193 9.47946
3861 1 9.07284 18.5153 6.58651
3870 1 12.1209 18.4932 9.22884
7399 1 6.60546 15.3857 12.3392
7411 1 12.1017 15.38 12.3983
136 2 8.03741 8.51334 -0.501038
147 2 13.6714 5.56422 2.36823
3867 2 13.5435 17.3376 7.89386
3661 2 -0.258713 0.112161 5.2875
3688 2 13.4206 2.78548 5.13911
28 2 13.5486 -3.02452 -0.340984
7394 2 5.08588 13.9597 13.581
7395 2 8.09021 11.2621 13.5247
7383 2 2.334 11.1788 13.5753
7454 2 5.17475 19.7031 13.6178
133 2 5.15531 5.72283 -0.378929
10873 2 5.16199 -0.0764295 16.62
10805 1 0.991554 -4.31544 17.9303
7206 1 0.834151 -4.28198 15.0182
10807 1 0.922765 -1.47906 17.8934
10814 2 5.08303 -2.92596 19.2358
7208 1 1.0762 -1.36926 15.038
10809 1 3.7401 -4.41507 17.8058
10863 2 2.32051 0.0335134 19.3239
7210 1 3.65319 -4.1338 15.1225
10804 2 2.37597 -2.92417 16.5248
10811 1 3.67643 -1.43529 17.8477
7212 1 3.66495 -1.44415 15.0386
7218 1 6.45315 -4.27615 15.2457
7220 1 6.56905 -1.4518 15.1956
10819 1 6.57583 -1.48987 18.0577
10817 1 6.50018 -4.28103 18.0702
10818 1 6.62167 -4.1461 20.7982
10808 1 0.780656 -1.34611 20.7121
10820 1 6.55449 -1.56965 20.8885
191 1 1.35204 16.4925 27.6955
7466 2 10.6986 19.6639 13.7341
256 2 8.10055 16.848 27.6716
10885 2 10.7545 -0.00955158 16.4936
10829 1 12.4712 -4.06446 18.0021
7230 1 12.1223 -4.2006 15.1794
10831 1 12.0665 -1.29808 18.0484
10826 2 10.8313 -2.75068 19.2624
7232 1 12.236 -1.5052 15.0548
10821 1 9.48578 -4.15219 18.0436
10875 2 7.98975 -0.0324036 19.5371
7222 1 9.34287 -4.24608 15.1272
10816 2 7.95089 -2.8709 16.7666
10823 1 9.3777 -1.33303 18.1506
7224 1 9.49421 -1.37403 15.3093
10830 1 12.1415 -4.16487 20.6965
10822 1 9.26919 -4.25307 20.6425
10824 1 9.5347 -1.4753 20.8242
244 2 2.39189 19.9124 27.6611
10865 1 0.926505 1.21333 17.9674
7266 1 0.972488 1.46127 14.9963
10874 2 5.21913 2.78577 19.4396
10869 1 3.79797 1.55822 17.7651
7270 1 3.72835 1.31049 14.949
10864 2 2.30017 2.95255 16.3667
10933 2 5.15428 5.66063 16.5084
10925 1 1.03596 7.0399 18.0725
7326 1 0.905859 6.94546 15.3104
10867 1 1.0028 4.19882 17.9074
7268 1 0.869238 4.22597 15.0759
10923 2 2.41424 5.66354 19.2447
7330 1 3.76935 7.23558 15.1262
10871 1 3.94312 4.40881 17.9647
7272 1 3.56376 4.27825 15.0791
10929 1 3.68933 7.13595 18.1303
7338 1 6.56905 7.20327 14.9514
14658 1 6.54077 18.4461 26.3426
7278 1 6.28032 1.36548 15.1025
64 2 2.27893 2.82499 27.6184
10868 1 1.01795 4.30036 20.7839
10870 1 3.82621 1.31681 20.9173
10930 1 3.67614 7.09154 20.8805
10872 1 3.96935 4.22588 20.9334
10880 1 6.59375 4.20015 20.7163
14403 2 2.32345 -5.39184 24.9017
10862 2 -0.375295 2.92154 19.3961
10877 1 6.46539 1.15687 18.2169
10879 1 6.7122 4.18163 17.9847
7280 1 6.39693 4.44251 15.0639
10937 1 6.48517 6.961 18.0013
7290 1 11.9808 1.23332 15.0079
10889 1 12.3061 1.48301 17.9078
10886 2 10.8053 2.75942 19.3171
10881 1 9.5079 1.29338 17.822
7282 1 9.0845 1.27222 15.1543
10876 2 7.94197 2.60969 16.5719
10945 2 10.8988 5.43452 16.6719
10949 1 12.3459 6.88506 17.9512
10891 1 12.196 4.09284 18.0688
7292 1 11.8949 3.87566 15.3806
10941 1 9.21043 7.3104 17.9557
10935 2 8.09469 5.75923 19.2445
7342 1 9.3854 6.82156 15.0425
10883 1 9.3693 4.27507 18.0312
7284 1 9.26946 4.06665 15.3068
7350 1 11.936 7.11629 15.4323
10884 1 9.42709 4.03931 20.8483
10942 1 9.4322 6.94688 20.6997
265 2 11.1637 17.0265 27.6792
10882 1 9.22938 1.2995 20.9951
10938 1 6.60421 7.08721 20.8725
14548 2 13.5472 8.37846 22.0039
7263 2 2.31604 0.0986669 13.6902
7286 2 10.5512 2.69665 13.9911
14612 1 12.2554 15.6505 26.126
10993 2 5.05925 11.2783 16.251
10927 1 0.773981 9.82973 17.8978
10934 2 5.31883 8.50962 19.4042
7328 1 0.948271 9.81083 14.9649
10983 2 2.29663 11.4054 19.1918
10924 2 2.44723 8.40314 16.5691
10931 1 3.59773 10.0814 17.7488
7332 1 3.63386 9.88178 14.8896
10985 1 0.958855 12.641 17.7718
7386 1 0.920366 12.5115 14.8804
10989 1 3.70026 12.6522 17.9042
7390 1 3.41648 12.7108 15.1457
10939 1 6.4887 9.81506 17.8245
7340 1 6.63322 9.91785 14.9521
10887 2 13.5798 0.135697 19.4729
7214 2 5.13524 -2.77859 13.8668
10990 1 3.85731 12.8271 20.6793
14668 2 13.4565 19.9121 22.2293
14522 2 -0.60077 7.90321 24.9897
14402 2 -0.40495 -2.88464 24.9065
7398 1 6.43308 12.7118 14.9807
10997 1 6.67829 12.7448 17.8366
11005 2 10.8666 11.2754 16.4508
10951 1 12.452 9.77445 17.5532
10946 2 10.8246 8.29247 19.1533
7352 1 12.3708 9.77361 14.8322
10995 2 8.00585 11.2779 19.2253
10936 2 7.95783 8.54247 16.4166
10943 1 9.39117 10.0766 17.7969
7344 1 9.47572 9.83043 15.1331
11009 1 12.3178 12.6262 17.849
7410 1 12.3629 12.6075 15.0408
11001 1 9.44747 12.6483 17.6211
7402 1 9.28856 12.6468 14.9996
10944 1 9.47966 9.69253 20.649
10998 1 6.64715 12.735 20.75
14461 2 -0.555453 -0.0340465 22.111
7275 2 7.93961 -0.110064 13.773
10994 2 5.17813 14.082 19.2046
10984 2 2.24682 14.1242 16.3134
11053 2 5.40696 16.8726 16.5086
11045 1 0.619715 18.4388 17.7129
7446 1 0.903322 18.2561 15.1239
10987 1 0.787255 15.5608 17.7907
11054 2 5.02228 20.0236 19.0321
7388 1 0.767492 15.5156 14.9867
11049 1 3.75761 18.3502 17.6761
11043 2 2.48625 17.0427 19.1078
7450 1 3.79021 18.188 14.8618
11044 2 2.3361 19.8012 16.3488
10991 1 3.88703 15.6738 17.9862
7392 1 3.5556 15.5697 15.0605
11050 1 3.84843 18.5578 20.4268
11046 1 1.06129 18.5552 20.5732
10999 1 6.57457 15.4297 17.9749
10988 1 1.15394 15.6423 20.4333
14526 1 -0.149996 9.42873 26.7363
7406 2 10.7854 13.9786 13.8889
184 2 2.4457 13.8102 27.4781
11070 1 12.3317 18.3377 20.6751
11006 2 10.8997 14.2451 19.1938
11057 1 6.48374 18.3615 17.7958
7400 1 6.29679 15.4319 14.9138
7458 1 6.54188 18.2712 14.9365
10996 2 7.92913 14.118 16.3237
11065 2 10.8377 17.0214 16.4769
11069 1 12.2637 18.534 17.9729
7470 1 12.0506 18.3251 15.2284
11011 1 12.2398 15.6426 17.7949
11066 2 10.8015 19.8476 19.2032
7412 1 12.424 15.5364 15.1942
11061 1 9.46954 18.425 17.818
11055 2 7.90876 17.1392 19.3622
7462 1 9.32541 18.0704 14.9098
11056 2 7.92071 19.8065 16.4278
11003 1 9.43988 15.6224 17.9689
7404 1 9.35025 15.5389 15.0535
14521 2 -0.500728 5.57053 22.1227
10947 2 13.6099 5.56129 19.3037
11062 1 9.37686 18.3143 20.5226
14655 2 7.97072 17.2121 24.4825
11012 1 12.2878 15.5518 20.4964
11000 1 6.60921 15.6175 20.7209
10888 2 13.6401 2.83752 16.6484
14656 2 7.89722 19.9485 22.069
10810 1 3.87167 -4.31194 20.6813
10812 1 3.85187 -1.61228 20.5963
10806 1 1.04466 -4.22446 20.6118
14473 2 5.36074 -0.0104295 22.2431
14405 1 0.986058 -4.10679 23.3407
14407 1 0.852492 -1.40665 23.5021
14414 2 5.28437 -2.64964 24.9609
14409 1 3.76527 -4.12747 23.4532
14463 2 2.4235 0.0379171 24.836
14410 1 0.942261 -4.1835 26.4012
14404 2 2.32932 -2.79092 22.0132
14411 1 3.66323 -1.47146 23.3978
14412 1 3.80635 -1.26206 26.1154
14406 1 0.923968 -1.47481 26.4816
17960 1 3.73615 -4.27326 26.4541
14419 1 6.79636 -1.37576 23.5835
14608 2 13.5965 14.1305 22.0603
14417 1 6.51677 -4.14504 23.6336
14418 1 6.68004 -4.2581 26.3963
10832 1 12.3773 -1.23957 20.8927
14420 1 6.70526 -1.38023 26.3422
14434 1 12.2737 -4.44493 26.3383
14485 2 10.7881 0.04454 22.2892
14429 1 12.3327 -4.28085 23.5204
14431 1 12.2083 -1.37004 23.6778
14426 2 10.9473 -2.95009 24.9331
14432 1 12.1544 -1.70078 26.642
14421 1 9.29481 -4.21662 23.5297
14475 2 8.16125 -0.0572719 25.1085
14422 1 9.51834 -4.07225 26.3841
14416 2 8.08255 -2.86266 22.0788
14423 1 9.52226 -1.44934 23.7571
14424 1 9.61678 -1.3993 26.3452
209 2 10.7115 14.1888 24.9395
11004 1 9.28666 15.6225 20.7369
14596 2 8.03141 14.0896 21.8989
10866 1 0.936392 1.44285 20.7706
14661 1 9.3668 18.5723 23.2246
10926 1 1.08836 6.99415 20.7382
14470 1 3.80628 1.45108 26.2202
14408 1 0.980453 1.29852 26.4038
14465 1 0.936699 1.48001 23.5454
14466 1 0.928319 4.00105 26.3717
14474 2 5.23357 2.71974 24.9578
14469 1 3.86102 1.3235 23.5996
14464 2 2.51705 2.87265 22.2118
14533 2 5.15129 5.71773 22.0448
14467 1 0.998132 4.26441 23.5067
14468 1 0.844427 6.7519 26.3017
14523 2 2.46252 5.41959 24.9674
14471 1 3.81974 4.15192 23.6926
14472 1 3.81596 4.22562 26.4638
14530 1 3.79662 6.98094 26.3604
14525 1 1.02137 6.86978 23.5529
14529 1 3.70822 7.07245 23.5786
14479 1 6.50854 4.08064 23.5817
14480 1 6.69533 4.36805 26.4147
14669 1 12.2117 18.3752 23.4554
14462 2 -0.418747 2.74536 24.9997
10950 1 12.2871 6.86903 20.8189
10890 1 12.0542 1.51129 20.7444
10892 1 12.1782 4.24804 20.9349
10878 1 6.53057 1.36372 20.8668
14478 1 6.80052 1.35555 26.3973
14477 1 6.68405 1.2035 23.6463
14538 1 6.71477 7.08791 26.3044
14537 1 6.45417 7.04691 23.6346
14489 1 12.3398 1.32591 23.5278
14490 1 12.349 1.35161 26.5306
14481 1 9.4225 1.34463 23.7566
14482 1 9.45469 1.45162 26.648
14476 2 8.01798 2.87435 22.1229
76 2 11.0245 2.73033 25.2179
14486 1 9.46301 4.20351 26.6019
14483 1 9.55238 4.13834 23.6428
14535 2 7.89828 5.52564 24.889
14545 2 10.8924 5.5881 22.3733
14549 1 11.9005 7.06725 23.7105
14550 1 12.1907 7.05748 26.4779
14491 1 12.2802 4.28829 23.8905
14492 1 12.2988 4.11737 26.6289
14541 1 9.24859 6.89756 23.4715
14484 1 9.60773 7.24581 26.5204
14657 1 6.50083 18.6031 23.3366
10986 1 0.855142 12.7934 20.7055
7335 2 7.9357 5.7458 13.611
14488 2 13.6607 2.74839 22.1456
14665 2 10.9486 16.9986 22.0147
10932 1 3.73235 10.0579 20.5005
10928 1 1.06146 9.84467 20.6471
14603 1 9.40091 15.5651 23.3976
14528 1 1.0344 9.92692 23.9253
124 2 2.22086 8.57928 27.7404
14590 1 4.03942 12.5466 26.4364
14593 2 5.21106 11.3402 21.9105
14534 2 5.17595 8.34262 24.9578
14583 2 2.60344 11.334 24.7332
14524 2 2.38826 8.41893 22.1126
14531 1 3.83596 9.9221 23.246
14532 1 3.6557 9.81066 26.1817
14589 1 3.62908 12.7799 23.3173
14585 1 0.827632 12.552 23.6498
189 1 1.51835 11.392 26.6402
14597 1 6.5436 12.9819 23.3134
14540 1 6.507 9.84352 26.3024
14606 1 9.43242 15.3795 26.4703
14604 1 9.3239 18.3554 25.9212
11058 1 6.62106 18.4394 20.5236
10940 1 6.62084 9.92735 20.7885
11010 1 12.4218 12.7884 20.4648
10952 1 12.3535 9.77047 20.3867
11002 1 9.50956 12.5743 20.4693
14539 1 6.66634 9.91436 23.5081
14598 1 6.64863 12.7611 26.1871
205 2 10.8986 11.4074 27.3653
14542 1 9.33011 9.99798 26.322
14601 1 9.30035 12.7223 23.618
14602 1 9.46135 12.6908 26.258
14610 1 12.3476 12.91 26.3286
14609 1 12.2069 12.7415 23.3413
14543 1 9.48906 9.92348 23.5622
14536 2 8.08276 8.22129 22.0968
14595 2 7.93734 11.25 24.8801
14605 2 10.9845 11.257 21.8765
14551 1 12.3507 9.88802 23.4055
14546 2 10.7146 8.61393 25.0119
14552 1 12.3155 10.0027 26.2642
14670 1 11.986 18.4465 26.191
14666 2 10.6966 19.8175 24.753
14600 1 6.6047 15.9013 26.1536
14428 2 13.6178 -2.75135 22.1708
14611 1 12.2131 15.6241 23.3609
10992 1 3.76459 15.7328 20.6793
14599 1 6.50714 15.8346 23.4491
14586 1 1.52759 14.5424 25.624
14584 2 2.3868 14.2531 21.9942
14594 2 5.30411 14.2823 24.8735
14644 2 2.18201 19.9143 21.961
14591 1 3.74953 15.5799 23.4197
14654 2 4.91305 19.7931 24.663
14587 1 0.947182 15.5611 23.161
14649 1 3.72611 18.5762 23.022
14646 1 0.937379 18.8366 26.0474
14645 1 0.928584 18.5097 23.3561
14653 2 5.10528 17.0957 21.901
14650 1 3.61244 18.3316 26.0877
14643 2 2.31038 16.8321 24.7605
14592 1 4.01942 15.3967 26.3359
7346 2 10.9378 8.40764 13.6902
14547 2 13.694 5.57145 25.109
193 2 5.11324 11.1728 27.6573
10802 2 -0.434632 -2.8629 19.1984
253 2 4.94619 17.046 27.6541
7323 2 2.27692 5.64512 13.7112
259 2 7.91323 20.0289 27.4808
16 2 8.03346 -2.70628 27.7273
7287 2 13.5258 0.150445 13.813
3913 2 5.29698 22.6482 5.10934
305 1 0.653516 24.1432 0.895003
306 1 0.873887 23.8023 3.62742
247 1 0.709674 21.2513 0.672871
314 2 5.1634 25.5091 2.23619
248 1 0.861044 21.1569 3.772
309 1 3.56638 23.9923 0.891821
303 2 2.24456 22.5589 2.39765
310 1 3.79396 23.9595 3.75989
3904 2 2.48221 25.2765 5.07117
251 1 3.61048 21.203 0.978746
252 1 3.73053 21.2131 3.74832
357 1 0.82186 27.1784 0.853425
308 1 0.843292 26.747 3.79697
377 1 6.44998 23.989 0.847915
311 1 3.60295 26.7503 0.901023
312 1 3.5636 26.9729 3.62285
3909 1 3.9442 24.1501 6.65097
3851 1 3.65599 21.2682 6.49595
3847 1 0.73349 21.2839 6.53332
318 1 6.611 24.085 3.88283
320 1 6.57704 27.2032 3.85263
14782 1 6.3266 27.1049 1.01691
4107 2 13.545 39.77 8.05881
7514 2 5.17927 25.6885 13.6695
561 1 6.57461 46.5334 0.950121
3905 1 1.01869 24.044 6.49883
3859 1 6.55493 21.1255 6.30918
327 2 13.6048 22.6425 2.28852
260 1 6.71694 21.1573 3.46579
14720 1 6.11363 21.1276 0.61121
319 1 7.8474 25.7422 2.47046
3925 2 10.675 22.6409 5.18198
329 1 12.1283 24.3091 1.12271
330 1 12.1559 23.9499 3.95313
271 1 11.9797 21.4196 0.753164
326 2 10.5177 25.4768 2.41308
272 1 12.182 21.3249 3.64244
321 1 9.3851 24.0719 0.850021
315 2 7.86794 22.7749 2.38297
322 1 9.38336 24.12 3.88449
3916 2 7.90307 25.6049 5.078
264 1 9.35229 21.5054 3.75889
263 1 9.2329 21.3094 0.95527
323 1 9.43041 27.0457 0.725707
331 1 12.2072 27.1226 1.0047
7588 2 13.4834 31.2798 10.8475
4169 1 12.2271 46.7736 6.64176
324 1 9.56377 26.9727 3.88603
332 1 12.2836 26.6957 3.73743
546 1 0.812158 46.7441 3.67509
567 2 13.6314 45.2512 2.31824
3871 1 12.1292 21.3069 6.66471
3923 1 9.40825 27.1572 6.70193
3973 2 5.1347 28.407 5.04704
307 1 0.903343 30.0091 1.00604
363 2 2.22967 28.3535 2.24332
426 1 0.898361 32.3912 3.77325
367 1 0.683212 32.8447 1.06599
374 2 5.18468 31.161 2.24248
368 1 0.921832 29.7441 3.73658
369 1 3.64545 29.5868 1.02592
3964 2 2.69455 31.2895 5.15017
371 1 3.60296 32.5224 0.857044
372 1 3.87932 32.6262 3.63695
3965 1 3.67715 29.9468 3.68962
380 1 6.73182 32.811 3.86176
379 1 6.48275 32.7306 0.96537
3968 1 1.10043 32.5205 6.4825
3967 1 0.96571 29.7218 6.19173
3969 1 3.70983 29.9358 6.55401
562 1 9.50942 46.5415 3.50364
7745 1 0.998316 46.6026 12.0439
7648 2 13.6121 36.7367 10.854
14778 1 6.42813 29.8548 0.79873
370 1 6.5754 29.9106 3.67422
3985 2 10.9003 28.4014 4.96185
375 2 7.93115 28.1265 2.47295
378 1 9.52624 29.6655 3.6332
390 1 12.1097 29.8548 0.94339
386 2 10.9478 31.2502 2.2704
392 1 12.0139 32.4578 4.13121
381 1 9.24061 29.6728 0.831372
382 1 12.1311 29.6292 3.75349
3976 2 8.0922 31.1664 5.11033
383 1 9.34498 32.4679 1.04579
384 1 9.43351 32.6782 3.77408
4141 2 -0.276186 45.3799 5.03006
4047 2 13.6418 34.1165 8.0281
3981 1 9.30589 29.8739 6.61756
4033 2 5.22692 34.1289 5.14633
425 1 0.860214 35.6151 1.10279
434 2 5.17561 36.8736 2.47937
429 1 3.7465 35.2936 1.0265
423 2 2.30801 33.9893 2.43129
430 1 3.75025 35.4992 3.88557
4024 2 2.30454 36.8758 5.19811
428 1 1.023 35.1852 3.93424
486 1 0.715577 38.2708 3.74241
427 1 0.875092 38.2026 0.90515
431 1 3.68442 38.3546 0.901273
432 1 3.64233 38.1953 3.76782
483 2 2.13036 39.5508 2.44074
4093 2 5.17532 39.5121 5.16827
438 1 6.49017 35.4379 3.79207
437 1 6.68279 35.2574 0.755168
440 1 6.60238 38.2791 3.78758
7503 2 2.23628 22.5926 13.669
4025 1 0.940156 35.4211 6.67494
4029 1 3.52526 35.2419 6.56287
4031 1 3.63484 37.9759 6.88769
4027 1 0.834431 38.325 6.41808
4039 1 6.6085 38.2559 6.72631
4037 1 6.41395 35.5761 6.45844
545 1 0.921252 46.5774 1.03277
439 1 6.47358 38.1031 0.833569
447 2 13.4631 33.9049 2.89573
362 2 -0.475472 31.0104 5.05044
4045 2 10.6551 34.1938 5.11651
449 1 11.7673 33.7608 1.23952
450 1 12.2361 35.4281 3.94522
446 2 10.9593 36.832 2.34316
441 1 9.30606 35.5945 0.878008
435 2 7.948 33.9884 2.37553
442 1 9.40119 35.4492 3.65261
4036 2 7.97398 36.8847 5.11889
4105 2 10.9121 39.5499 5.25561
451 1 12.1466 38.4337 0.806754
452 1 12.2303 38.121 3.6845
443 1 9.37433 38.2441 1.00467
444 1 9.35546 38.2266 3.82451
495 2 7.98983 39.5264 2.39126
4162 1 9.3335 46.7642 9.20363
7741 2 -0.328688 45.1992 10.9233
4041 1 9.29805 35.4976 6.59705
4049 1 12.1495 35.3851 6.52518
7757 1 6.48913 46.7795 12.1095
3988 2 13.5362 31.1932 5.18172
7528 2 13.3424 25.4224 11.0627
570 1 12.1647 46.6218 3.80054
4153 2 5.21978 45.3717 5.12667
485 1 0.819591 40.9301 0.931694
487 1 1.05117 43.6027 1.00966
494 2 5.19298 42.3665 2.38402
488 1 0.94398 43.8925 3.71119
489 1 3.8059 41.1285 0.852793
543 2 2.38416 45.1283 2.27654
490 1 3.86529 40.9749 3.83556
4084 1 0.92187 41.0544 3.89952
491 1 3.66774 43.8578 0.787524
492 1 3.6912 43.8366 3.7006
482 2 2.22548 42.2568 5.27525
499 1 6.49498 43.9146 0.837359
498 1 6.66522 41.1742 3.77993
500 1 6.70143 43.9103 3.62884
7709 1 12.4718 41.0329 11.9867
4085 1 0.905653 41.0809 6.6517
7501 2 -0.389139 22.7468 10.8501
497 1 6.66827 40.9471 0.844906
4165 2 10.7403 45.1914 5.09268
509 1 12.3409 41.0335 1.21804
510 1 12.3644 41.0923 3.88782
511 1 12.338 43.8611 1.12183
506 2 10.8521 42.4925 2.24414
501 1 9.36562 40.8088 0.968142
555 2 7.9236 45.1929 2.29629
502 1 9.66957 41.1014 3.93714
4096 2 7.92626 42.4644 5.07136
503 1 9.39251 43.7428 1.00315
504 1 9.42546 43.8966 3.78744
565 1 12.1343 43.7153 3.89946
507 2 13.6277 39.7043 2.52723
316 2 7.99246 25.5854 -0.292826
557 1 6.6019 46.5742 3.87094
4097 1 6.50001 41.223 6.59233
4099 1 6.59614 43.8731 6.51152
4109 1 12.1379 40.9269 6.62946
4103 1 9.36852 43.8154 6.89733
328 2 13.5987 25.369 -0.332765
4100 1 6.74438 43.8459 9.39283
7513 2 5.14617 22.5696 10.8141
7505 1 1.0467 24.1564 12.1629
3906 1 1.03477 23.9449 9.29535
7447 1 0.994681 21.3177 11.9964
3914 2 5.27394 25.5508 7.93716
7509 1 3.75269 21.2147 12.3132
3903 2 2.28076 22.59 7.94187
3910 1 3.71967 24.1617 9.37547
7504 2 2.61082 25.6004 10.8256
7451 1 3.67757 21.2764 9.34622
3852 1 1.03693 21.239 9.37474
7517 1 4.27416 24.222 12.0796
3911 1 3.73305 27.0027 6.46661
3907 1 0.905051 26.8196 6.64594
7507 1 0.916952 26.9112 12.2733
7511 1 3.87622 26.9268 12.178
7519 1 6.60788 26.7538 12.0364
3908 1 1.11131 26.8816 9.57689
3912 1 3.88327 26.9806 9.24074
3928 2 13.4862 25.3817 5.02801
3929 1 12.1059 24.1409 6.65798
3931 1 12.5266 27.0544 6.56968
3863 1 9.30072 21.2415 6.6531
4150 1 3.73401 46.5576 9.46536
3917 1 6.64813 24.0696 6.55474
3918 1 6.79189 24.1643 9.58596
3860 1 6.43679 21.2962 9.23704
3921 1 9.29424 24.0525 6.67809
7515 1 6.52137 21.2607 12.1481
7525 2 10.7543 22.7161 10.7947
7529 1 11.9561 24.172 12.3271
3930 1 12.1791 24.3539 9.43329
7471 1 11.8278 21.1484 12.2304
3926 2 10.7084 25.6492 7.89732
3872 1 12.329 21.3371 9.54235
7521 1 9.34915 24.2118 12.2957
3915 2 8.00104 22.6795 8.04748
3922 1 9.50494 24.1626 9.35763
7516 2 8.1533 25.5838 10.7516
7463 1 9.28558 21.2945 9.65685
7523 1 9.37443 27.0343 12.3572
3919 1 6.49946 26.8066 6.43796
7531 1 11.8913 26.8798 12.4817
3990 1 12.2827 27.1695 9.74041
3920 1 6.75989 26.8983 9.39826
3924 1 9.60296 26.9795 9.50635
505 2 10.7176 39.5561 -0.391341
3971 1 4.01721 32.7208 6.65116
7573 2 5.27516 28.4462 10.7846
3963 2 2.46891 28.2122 7.93022
7565 1 1.00246 29.6021 11.7713
3966 1 0.831067 29.5437 9.09328
7567 1 0.859043 32.5862 9.27464
3974 2 5.31419 31.2249 8.13109
7569 1 3.7279 29.7295 12.1111
3970 1 3.77767 29.8522 9.41922
7564 2 2.31907 31.2476 10.8056
7571 1 1.1456 32.9494 11.8836
3972 1 3.73658 32.6272 9.58683
7572 1 3.56853 32.6196 12.5885
3979 1 6.76471 32.5378 6.7039
3980 1 6.40919 32.7513 9.6362
7579 1 6.39227 32.6593 12.5566
7577 1 6.52458 29.5688 12.5612
387 2 13.5073 28.308 2.47533
4155 2 7.94305 45.2103 8.03427
3989 1 12.0589 29.8316 6.51534
3977 1 6.56105 29.6902 6.64408
3978 1 6.59883 29.9266 9.42673
3991 1 12.4173 32.571 6.72715
3983 1 9.51702 32.651 6.60327
7585 2 10.6957 28.4768 10.9927
3975 2 8.09703 28.4517 8.10785
7589 1 12.1186 29.9259 12.2206
7591 1 12.2077 32.6998 12.4111
3986 2 10.7301 31.2151 8.04347
3992 1 12.1878 32.5737 9.54856
7581 1 9.08531 29.8353 12.3821
3982 1 9.33883 29.6872 9.5222
7576 2 7.92791 31.372 10.9231
7583 1 12.1681 29.9185 9.40882
3984 1 9.30398 32.5714 9.24735
7635 1 9.55395 32.4365 12.1053
550 1 3.82564 46.4533 3.804
4101 1 9.18048 41.1841 6.96646
4104 1 9.53439 43.8066 9.72433
3902 2 -0.483692 25.4856 8.19895
7633 2 4.96078 34.0184 11.096
7625 1 0.926994 35.4716 12.1758
4026 1 0.771747 35.2419 9.53065
4034 2 5.08866 36.7294 8.10835
7629 1 3.55769 35.4216 12.3846
4023 2 2.34542 34.0072 8.14716
4030 1 3.70294 35.5151 9.50903