ITEM: TIMESTEP
50000
ITEM: NUMBER OF ATOMS
18000
ITEM: BOX BOUNDS xy xz yz pp pp pp
-1.3774417222580693e-01 2.8031744172226208e+01 0.0000000000000000e+00
-1.6597618782964669e+00 3.3638776187829131e+02 0.0000000000000000e+00
-1.3920517986774536e-01 2.8033205179867885e+01 0.0000000000000000e+00
ITEM: ATOMS id type x y z
1 1 1.37687 -0.397315 1.59001
2 1 4.1654 -0.415394 1.35508
3 1 3.9087 -0.1543 4.21108
4 1 0.932116 -0.316497 4.3589
5 1 1.204 2.46008 1.42032
6 1 4.06022 2.41954 1.24631
7 1 4.05926 2.56595 4.14824
8 1 1.11591 2.36731 4.39081
9 1 6.90123 -0.375306 1.25623
10 1 9.56436 -0.454064 1.24131
11 1 9.55358 -0.193377 4.21422
12 1 6.73272 -0.346915 4.07954
13 1 6.99416 2.49443 1.27085
14 1 9.68729 2.42931 1.29739
15 1 9.6609 2.6416 4.02821
16 1 6.799 2.51212 4.14073
17 1 12.3423 -0.296773 1.32572
18 1 12.4021 -0.325677 4.04341
19 1 12.6912 2.55316 1.32242
20 1 12.4462 2.41211 4.1652
21 1 1.29078 5.35504 1.26656
22 1 4.11046 5.2742 1.22689
23 1 3.97704 5.53276 4.08078
24 1 1.13587 5.2307 4.16479
25 1 1.3158 8.16173 1.23835
26 1 4.10151 8.20561 1.29137
27 1 4.00429 8.22816 4.15329
28 1 1.11176 8.0686 4.11454
29 1 7.04429 5.48795 1.22385
30 1 9.75071 5.48606 1.24768
31 1 9.61326 5.37201 4.02161
32 1 6.88346 5.3014 4.03819
33 1 6.97915 8.19311 1.66216
34 1 9.52559 8.44719 1.21812
35 1 9.75757 8.23323 4.22033
36 1 6.89727 8.26076 4.20989
37 1 12.5042 5.32524 1.49928
38 1 12.4604 5.30312 4.30952
39 1 12.4528 8.01644 1.37421
40 1 12.3395 11.1253 4.16906
41 1 1.26511 11.0063 1.37813
42 1 4.01193 11.059 1.3481
43 1 4.24338 11.0416 4.23397
44 1 1.23489 11.052 4.28031
45 1 1.0461 13.6114 1.36325
46 1 3.92659 13.8593 1.274
47 1 4.09714 13.7844 4.12841
48 1 1.16012 13.8005 4.019
49 1 6.85298 10.9928 1.35842
50 1 9.83432 11.06 1.60704
51 1 9.68911 11.0892 4.32257
52 1 6.97127 11.0563 4.15564
53 1 6.64836 13.7634 1.46634
54 1 9.45113 13.8605 1.35553
55 1 9.58257 14.0213 4.12338
56 1 6.90865 13.9448 4.36557
57 1 12.4067 10.9624 1.28152
58 1 12.3325 13.8563 4.21504
59 1 12.3636 13.7694 1.39455
60 1 12.3479 16.7204 4.07399
61 1 0.961503 16.7161 1.59716
62 1 3.99767 16.5283 1.35573
63 1 3.82385 16.659 4.13904
64 1 1.05633 16.8186 4.27846
65 1 1.1784 19.4408 1.40363
66 1 4.03162 19.4589 1.46272
67 1 3.80588 19.3248 4.21272
68 1 1.08584 19.5794 4.23325
69 1 6.62572 16.7311 1.29732
70 1 9.57424 16.5981 1.54652
71 1 9.54481 16.8328 4.33305
72 1 6.59651 16.6372 4.07446
73 1 6.82216 19.4273 1.38914
74 1 9.51859 19.4238 1.33588
75 1 9.62388 19.6198 4.13558
76 1 6.76667 19.6241 4.27008
77 1 12.4733 16.5978 1.27798
78 1 12.5607 19.3251 4.26029
79 1 12.3035 22.1655 1.34289
80 1 12.3207 19.4721 1.33714
81 1 1.14137 22.2347 1.34116
82 1 3.84803 22.4262 1.35271
83 1 3.77737 22.2735 4.28131
84 1 0.985421 22.3474 4.39448
85 1 6.46674 22.39 1.38943
86 1 9.54511 22.2367 1.30949
87 1 9.50298 22.3785 3.95773
88 1 6.5233 22.4143 4.30912
12103 2 5.46498 -1.64717 11.2682
90 1 12.3423 22.1552 4.23601
91 1 1.32886 -0.309836 7.08986
92 1 4.09924 -0.238525 6.82425
93 1 3.85421 -0.396948 9.74564
94 1 1.39298 -0.386258 9.76318
95 1 1.40865 2.47389 7.04042
96 1 3.98502 2.57545 6.98706
97 1 1.24022 5.23014 9.77458
98 1 1.22766 2.39746 9.77786
99 1 6.80849 -0.361812 6.93769
100 1 9.71092 -0.165153 6.97067
101 1 9.83825 2.41237 9.86905
102 1 7.02259 2.36336 9.85122
103 1 6.87426 2.47606 6.97179
104 1 9.67556 2.50228 6.97065
105 1 9.57309 5.15002 9.97003
106 1 4.09298 2.24575 9.85066
107 1 12.6244 -0.219735 6.79516
108 1 12.6618 2.49718 9.87279
109 1 12.444 2.51542 6.98162
110 1 12.5272 5.24577 10.0052
111 1 1.33916 5.37797 6.98572
112 1 4.06965 5.41996 6.8185
113 1 9.69944 8.24291 9.73087
114 1 3.65446 7.37539 9.43819
115 1 1.22655 8.20061 7.05624
116 1 4.18235 8.17699 6.93219
117 1 6.07409 8.78963 9.23569
118 1 1.19793 8.13176 9.82767
119 1 7.01746 5.35397 6.59628
120 1 9.75872 5.36101 6.99903
121 1 12.1719 8.0858 7.11262
122 1 6.64351 7.94462 12.3843
123 1 7.04071 8.13309 6.76988
124 1 9.54469 8.10471 6.86804
125 1 12.5552 8.07896 9.83149
126 2 5.4217 6.79887 10.897
127 1 12.5828 5.32495 7.08726
12006 2 8.19951 1.00565 -0.0656587
129 1 12.4581 8.11961 4.23337
130 1 12.5023 10.8866 9.95913
131 1 0.987896 10.7722 6.85526
132 1 3.92536 10.7817 6.80293
133 1 3.86716 10.6762 9.85397
134 1 1.16863 10.9422 9.84511
135 1 1.1201 13.5754 6.896
136 1 4.00598 13.6886 6.85806
137 1 3.97924 13.8528 9.60839
138 1 1.13819 13.6856 9.85757
139 1 6.74805 11.0397 6.9116
140 1 9.56547 10.926 7.06743
141 1 9.87951 11.2329 10.0573
142 1 7.33743 11.0064 9.79222
143 1 6.83949 13.8449 7.17458
144 1 9.69917 13.7947 7.09582
145 1 9.68976 14.0621 9.89032
146 1 7.03383 13.9285 9.85426
147 1 12.4694 10.9189 7.0981
15052 2 13.8673 -1.59444 8.34665
149 1 12.4164 13.7882 6.99742
150 1 12.5072 13.9221 9.95795
151 1 1.22415 16.5286 7.11133
152 1 3.89359 16.5897 7.14765
153 1 4.06193 16.5063 9.85197
154 1 1.26017 16.708 9.85148
155 1 1.21817 19.361 7.1929
156 1 3.96188 19.6313 7.07056
157 1 4.23735 19.377 9.71732
158 1 1.53691 19.7733 10.0017
159 1 6.71352 16.6895 7.0609
160 1 9.57117 16.5737 7.1812
161 1 9.59008 16.7233 9.83934
162 1 6.8697 16.6243 9.68199
163 1 6.87379 19.5058 7.09782
164 1 9.73383 19.428 6.90228
165 1 9.67894 19.5948 9.89324
166 1 6.95143 19.4565 9.8612
167 1 12.4741 16.6373 7.009
168 1 12.3886 16.8416 9.91685
169 1 12.4874 19.2421 7.10672
170 1 12.5288 19.3507 9.80023
171 1 1.12589 22.328 7.05434
172 1 3.96205 22.3085 7.1616
173 1 3.99668 22.2966 9.95044
174 1 1.37064 22.5884 9.83077
175 1 6.74331 22.1746 7.28158
176 1 9.57422 22.2517 7.16216
177 1 9.49586 22.1626 9.99983
178 1 6.66855 22.2968 10.0005
179 1 12.3874 22.1835 7.01778
180 1 12.3193 22.2192 9.78418
181 1 1.22354 -0.408272 12.7188
182 1 4.08301 -0.283371 12.6482
183 1 1.10016 2.51328 12.6155
184 1 3.93862 2.63308 12.6848
185 1 6.76545 2.46228 12.515
186 1 9.53935 -0.368968 12.5357
187 1 9.6924 5.45028 12.6793
188 1 9.57432 2.40898 12.7657
189 1 12.3301 -0.30535 12.903
190 1 12.3265 2.51322 12.6272
191 1 1.26962 5.35905 12.6923
192 1 7.31758 6.69666 9.59635
193 1 1.05082 8.1705 12.627
194 1 3.92631 8.12257 12.0998
195 1 5.72304 4.68004 9.01873
196 1 12.3919 5.29573 12.8307
197 1 4.40846 5.49333 12.7605
198 1 9.54475 8.40218 12.6274
15081 2 13.7641 17.864 5.54801
200 1 12.4804 8.14 12.5796
201 1 1.17403 10.8979 12.5897
202 1 3.99844 10.7107 12.8055
203 1 1.00424 13.8837 12.4722
204 1 3.81398 13.7116 12.5833
205 1 5.57001 12.3679 11.0947
206 1 9.7809 10.9911 12.8101
207 1 6.86594 13.9988 12.8924
208 1 9.63705 13.6647 12.8825
209 1 12.557 11.1477 12.6683
210 1 12.2735 13.8889 12.7633
211 1 1.0758 16.938 12.6236
212 1 3.9994 16.5091 12.7303
213 1 1.25219 19.6088 12.5999
214 1 4.00885 19.422 12.7565
215 1 7.01098 16.67 12.7092
216 1 9.86632 16.6926 12.6127
217 1 6.74618 19.6168 12.5467
218 1 9.64663 19.4748 12.8376
219 1 12.5358 16.65 12.7216
220 1 12.4651 19.6304 12.6199
221 1 1.15117 22.3042 12.6897
222 1 3.9622 22.2534 12.6559
223 1 6.73615 22.365 12.7593
224 1 9.72427 22.298 12.6881
225 1 12.3874 22.3025 12.5748
12125 2 10.9709 20.8922 11.2564
12110 2 11.0187 3.7291 11.2682
12019 2 11.23 3.89109 -0.00986848
12124 2 8.22087 23.5534 11.4112
12042 2 2.59133 23.7133 -0.108829
12109 2 8.66363 6.84495 11.2426
12035 2 5.35496 15.1203 0.0213405
12008 2 5.30926 1.05676 2.81637
12049 2 10.8706 20.7902 -0.0346414
12010 2 11.0953 0.976975 2.68545
12123 2 5.31583 20.8012 11.1638
12108 2 5.33218 3.56203 11.1256
12013 2 2.52232 3.8304 2.76213
12122 2 2.66551 23.8496 11.2488
12107 2 2.28688 6.70427 11.2929
12112 2 2.59681 12.3327 11.209
12017 2 8.29861 3.95428 2.64393
12018 2 5.45362 6.82865 2.84888
12104 2 8.26181 0.988896 11.3496
12020 2 10.9618 6.93785 2.70737
15121 2 13.9453 23.6754 11.2745
15116 2 13.9419 18.0701 11.3482
12023 2 2.70454 9.51457 2.65805
12120 2 11.0755 15.2748 11.3386
12102 2 2.61026 1.08029 11.074
12113 2 5.50899 10.0786 11.3516
12027 2 8.30507 9.68565 2.79035
12028 2 5.40781 12.4056 2.82649
12100 2 11.1526 23.5687 8.29152
12030 2 10.9673 12.5866 2.88085
12099 2 10.8651 20.77 5.54049
12098 2 5.3596 23.7691 8.55825
12033 2 2.53115 15.1143 2.71314
15031 2 13.7082 18.0133 0.0390526
12097 2 8.18396 20.8275 8.5359
12096 2 8.14438 23.6855 5.46795
12037 2 8.208 15.2231 2.89556
12038 2 5.23843 17.9533 2.73415
12095 2 5.3679 20.9352 5.78341
12040 2 10.8704 18.1266 3.00738
15092 2 13.5731 20.6576 8.37493
12093 2 2.4841 20.8964 8.40796
12043 2 2.53842 20.7947 2.91386
15042 2 13.7496 20.7054 2.66111
12092 2 2.53417 23.5781 5.68268
231 1 3.45971 4.8465 10.4837
12047 2 8.10307 20.8231 2.61686
12048 2 5.30175 23.9456 2.78313
12090 2 10.923 18.132 8.46301
12050 2 11.01 23.5788 2.71783
12119 2 8.24938 18.0764 11.1947
12052 2 2.5251 1.1587 5.63735
12088 2 5.36286 17.9773 8.46177
12118 2 5.48954 14.9385 11.0787
12087 2 8.35829 15.2949 8.43103
12056 2 8.24586 1.19624 5.4455
12029 2 11.0637 9.48475 -0.0963834
12058 2 5.38654 1.04984 8.23256
243 1 7.11748 10.6941 12.6875
12060 2 11.0836 1.08866 8.29678
12117 2 2.70024 18.0408 11.2134
12062 2 2.61978 6.84464 5.62874
12063 2 2.79522 3.95424 8.44679
12089 2 11.0346 15.3281 5.61255
12065 2 5.39818 4.0318 5.38175
12066 2 8.30232 6.66559 5.59232
12067 2 8.02014 3.72891 8.32669
12068 2 5.60057 6.6993 7.87788
12069 2 11.0883 3.90812 5.56671
12070 2 11.088 6.68986 8.63546
12115 2 11.1852 9.54235 11.3805
12072 2 2.62084 12.2838 5.54959
12073 2 2.7936 9.34394 8.31006
12114 2 8.21245 12.4601 11.5122
12075 2 5.57657 9.68666 5.52946
12076 2 8.29294 12.3037 5.79987
12077 2 8.18505 9.40185 8.35797
12078 2 5.63622 12.4071 8.59926
12079 2 10.9956 9.72715 5.55724
12080 2 11.1468 12.4199 8.68889
5725 1 9.89231 -0.28339 9.68127
12082 2 2.49915 18.0211 5.72375
12083 2 2.57244 15.1034 8.33267
5726 1 6.86927 -0.245168 9.80276
12085 2 5.41436 15.2848 5.71739
12086 2 8.14132 17.9869 5.81965
12046 2 8.07774 23.657 0.0323612
15071 2 13.7884 12.4372 5.87491
5730 1 12.5496 -0.0798182 9.85771
233 1 6.90277 5.09382 11.8781
15032 2 13.8237 15.0913 2.96275
5772 1 6.93281 -0.365179 12.6817
12045 2 5.10487 20.9271 0.0458739
12036 2 8.10181 18.0019 -0.0533297
12011 2 -0.128721 3.90265 -0.0268283
15091 2 13.886 23.6137 5.55208
12032 2 2.69814 18.0925 0.0375024
12025 2 5.60512 9.44626 0.110883
12016 2 8.30438 6.68357 -0.00448171
12057 2 8.26795 -1.61479 8.40602
15022 2 13.7712 9.65702 2.79613
15021 2 13.6828 12.3639 0.0208682
15072 2 13.8334 9.51999 8.44146
15062 2 13.8769 3.85014 8.35573
15061 2 13.6819 6.74126 5.58148
15041 2 13.8163 23.6797 0.00169815
12039 2 11.1099 15.3612 -0.0813002
15082 2 13.7943 15.2491 8.51802
12012 2 2.79933 6.80293 -0.0600624
12022 2 2.52381 12.2144 -0.051434
15001 2 13.9065 1.116 -0.0959271
12059 2 11.0212 -1.60853 5.56578
12105 2 11.0889 -1.61802 11.176
15011 2 13.8822 6.71349 -0.0919907
12021 2 -0.112104 9.51207 -0.0615937
12121 2 -0.0584051 20.8863 11.3747
12054 2 -0.0597777 1.03182 8.27492
12014 2 -0.102906 6.66207 2.82
12074 2 -0.0441996 12.1973 8.35874
15012 2 13.8387 3.91927 2.9608
12133 2 8.18551 3.81134 13.9374
12026 2 8.27219 12.3266 -0.0185183
226 1 3.96805 -0.312332 15.493
227 1 1.03218 -0.422939 15.5498
228 1 4.05438 2.50346 15.4009
229 1 1.25752 2.53759 15.4704
230 1 9.65785 -0.368566 15.5693
15182 2 13.8279 15.1997 19.6274
232 1 9.85615 2.59481 15.3697
12129 2 5.40185 1.1472 14.0738
234 1 12.4911 -0.243065 15.4035
235 1 12.5374 2.57013 15.3449
236 1 4.21971 5.12006 15.2751
237 1 1.47378 5.29267 15.6879
238 1 3.82137 8.0077 15.1704
239 1 1.22419 8.21642 15.5426
240 1 9.73762 5.35073 15.6216
241 1 7.03077 8.34388 15.3266
242 1 9.82189 8.26849 15.4193
15242 2 13.7551 20.8635 25.4461
244 1 12.712 5.24516 15.6298
245 1 12.769 8.20606 15.3761
246 1 4.07149 10.7519 15.5015
247 1 1.14712 10.887 15.4221
248 1 4.07406 13.8633 15.3636
249 1 1.17073 13.6046 15.3173
250 1 9.53985 11.0823 15.633
251 1 6.8851 11.0855 15.3743
252 1 9.71788 13.8155 15.6716
253 1 6.85521 13.7 15.4063
254 1 12.4917 10.8994 15.4197
255 1 12.4172 13.8607 15.4974
256 1 4.17375 16.69 15.4323
257 1 1.08744 16.6109 15.5145
258 1 3.87824 19.4231 15.4706
259 1 1.16629 19.4201 15.5322
260 1 9.48925 16.5776 15.4863
261 1 6.65425 16.6386 15.6375
262 1 9.53605 19.5616 15.5682
263 1 6.78283 19.6159 15.4924
264 1 12.3612 16.5714 15.4503
265 1 12.3433 19.5873 15.353
266 1 4.14434 22.3375 15.5072
267 1 1.19345 22.3352 15.6595
268 1 9.70017 22.3618 15.3799
269 1 6.88815 22.4158 15.4478
270 1 12.5354 22.4023 15.6254
271 1 0.928234 -0.19586 18.2054
272 1 3.80988 -0.272071 18.2368
273 1 3.90408 -0.421173 21.1546
274 1 1.25677 -0.333792 21.0874
275 1 1.17864 2.60191 18.4418
276 1 4.05136 2.42924 18.3151
277 1 3.91955 2.48313 20.9519
278 1 1.10667 2.52957 21.2197
279 1 6.73036 2.58953 15.3563
280 1 9.49832 -0.20095 18.2639
281 1 9.69569 -0.296421 21.1286
282 1 6.86595 2.62757 18.2738
283 1 7.02857 5.32721 15.2478
284 1 9.7001 2.53539 18.2909
285 1 9.44046 2.41013 21.1807
286 1 7.11615 5.43539 18.4958
287 1 12.4838 -0.26404 18.2053
288 1 12.5599 -0.361779 21.0546
289 1 12.5232 2.40403 18.1948
290 1 12.3175 2.48254 21.1146
291 1 1.13955 5.34701 18.3404
292 1 3.96716 5.15363 18.372
293 1 4.00965 5.26279 21.1226
294 1 1.00187 5.43778 21.1472
295 1 1.31026 8.22852 18.4508
296 1 4.08068 8.33454 18.4915
297 1 4.11099 8.14543 21.1529
298 1 1.31947 8.09578 21.0259
299 1 5.41501 6.87053 16.844
300 1 9.73546 5.34753 18.4794
301 1 9.86502 5.24918 21.1782
302 1 6.83715 5.21581 21.1905
303 1 7.12731 8.44925 18.2332
304 1 9.77921 8.13189 18.2002
305 1 9.71862 8.27542 21.0913
306 1 6.90331 8.12582 20.9516
307 1 12.3556 5.39482 18.2298
308 1 12.4741 5.32816 21.0306
309 1 12.581 8.17621 18.2599
310 1 12.4098 8.16358 21.1678
311 1 1.18813 11.002 18.1739
312 1 4.01966 11.0659 18.3004
313 1 4.08576 11.0871 21.2193
314 1 1.31135 11.0838 21.141
315 1 1.32059 13.7563 18.1113
316 1 4.06297 13.8431 18.2539
317 1 4.01647 13.7845 21.1581
318 1 1.28201 13.718 21.1247
319 1 6.86546 11.1957 18.2959
320 1 9.88362 10.9965 18.2095
321 1 9.74648 11.0152 21.1361
322 1 6.93001 11.0311 21.1221
323 1 6.8408 13.8626 18.4176
324 1 9.76241 13.7217 18.3081
325 1 9.85919 13.8456 21.11
326 1 6.88585 13.8346 21.2702
327 1 12.6318 10.8658 18.3823
328 1 12.4624 11.1002 21.1312
329 1 12.4647 13.6691 18.2463
330 1 12.4711 13.9607 20.9902
331 1 1.1467 16.5086 18.2639
332 1 3.81834 16.8202 18.2198
333 1 3.96179 16.6489 21.0302
334 1 1.22542 16.7406 21.0769
335 1 1.2448 19.3137 18.2645
336 1 4.1726 19.6635 18.403
337 1 3.90837 19.5241 21.1527
338 1 1.11378 19.4778 21.0534
339 1 6.90152 16.7735 18.3396
340 1 9.54452 16.6914 18.1319
341 1 9.73121 16.8355 21.1782
342 1 6.76933 16.7776 21.1309
343 1 6.74222 19.5007 18.2682
344 1 9.66668 19.6167 18.3166
345 1 9.50199 19.5278 21.2058
346 1 6.82511 19.5744 21.0851
347 1 12.2461 16.4983 18.2334
348 1 12.4444 16.6895 21.0268
349 1 12.3879 19.374 18.3825
350 1 12.3584 19.7142 21.0975
351 1 1.25042 22.1094 18.2404
352 1 4.17378 22.5179 18.2776
353 1 4.01513 22.2802 21.03
354 1 1.13783 22.4171 21.1785
355 1 7.04158 22.3425 18.3553
356 1 9.78625 22.204 18.36
357 1 9.69815 22.3462 21.033
358 1 6.89526 22.4784 21.2706
359 1 12.433 22.4344 18.3231
360 1 12.57 22.2933 21.1505
361 1 1.17005 -0.163426 24.0261
362 1 3.89687 -0.401707 23.9608
363 1 4.09975 -0.51682 26.6919
364 1 1.39923 -0.296086 26.9436
365 1 1.17117 2.53623 24.0242
366 1 4.10364 2.44723 23.9197
367 1 3.79417 2.60455 26.674
368 1 1.1739 2.44013 26.7052
369 1 6.74676 2.38591 21.4237
370 1 9.52663 -0.562692 23.9127
371 1 9.6684 -0.309612 26.7809
372 1 6.88876 -0.18157 26.6091
373 1 6.81662 2.6806 24.1525
374 1 9.62975 2.68234 23.9962
375 1 9.66917 2.64698 26.7063
376 1 6.79753 2.47025 26.6684
377 1 12.3651 -0.377663 23.9885
378 1 12.4512 -0.340364 26.8009
379 1 12.5932 2.41776 23.9862
380 1 12.3181 2.41823 26.7562
381 1 1.24719 5.29025 23.9971
382 1 4.05241 5.39034 24.0318
383 1 3.94739 5.33279 26.7079
384 1 1.20063 5.34386 26.8476
385 1 1.42481 8.09213 24.046
386 1 4.18391 8.27735 23.9355
387 1 4.17964 8.10436 26.8323
388 1 1.35456 8.25589 26.8524
389 1 6.8254 5.34612 23.9107
390 1 9.57489 5.57119 24.0742
391 1 9.91621 5.41948 26.8819
392 1 6.75222 5.3516 26.5638
393 1 6.98873 8.13706 23.9509
394 1 9.79184 8.38082 23.7759
395 1 9.69853 8.07125 26.7231
396 1 6.94775 8.22276 26.8883
397 1 12.3606 5.31828 24.0795
398 1 12.7515 5.32458 26.7707
399 1 12.5162 8.24267 23.9587
400 1 12.5697 8.20182 26.7441
401 1 1.15774 10.9404 23.9607
402 1 4.11858 11.041 24.0513
403 1 4.17592 10.9245 26.7946
404 1 1.19283 10.8586 26.7304
405 1 1.31467 13.6159 24.0898
406 1 4.0415 14.0224 23.8558
407 1 4.08069 13.7669 26.7479
408 1 1.19445 13.7923 26.7071
409 1 6.91921 10.8785 23.9235
410 1 9.76319 11.0814 24.0732
411 1 9.58055 10.9033 26.861
412 1 6.88218 10.9642 26.6605
413 1 6.94057 13.7724 24.0373
414 1 9.74701 14.134 23.9707
415 1 9.69315 13.8127 26.6924
416 1 6.85553 13.9479 26.8286
417 1 12.5502 10.9209 23.7035
418 1 12.4962 11.0772 26.6684
419 1 12.4688 13.8042 23.8615
420 1 12.6302 14.0715 26.8731
421 1 1.42542 16.3982 23.9518
422 1 4.07795 16.8917 23.9594
423 1 4.015 16.6893 26.7814
424 1 1.18832 16.7422 26.8455
425 1 1.16441 19.0667 24.0011
426 1 3.96244 19.5369 23.9926
427 1 4.09353 19.4542 26.7856
428 1 1.33619 19.5463 26.7611
429 1 6.90456 16.7173 23.8645
430 1 9.55255 16.8886 24.0189
431 1 9.81093 16.7393 26.8177
432 1 7.00624 16.7494 26.6553
433 1 6.61081 19.4321 24.0786
434 1 9.69908 19.4977 23.9778
435 1 9.54979 19.3699 26.7512
436 1 6.61035 19.4608 26.8786
437 1 12.4252 16.5269 23.8262
438 1 12.3243 16.563 26.588
439 1 12.4387 19.3118 23.9683
440 1 12.4125 19.4929 26.5991
441 1 1.23066 22.2088 23.8993
442 1 4.07335 22.3512 23.9515
443 1 3.8605 22.2277 26.7462
444 1 1.10867 22.3903 26.7588
445 1 6.91029 22.2544 24.2021
446 1 9.69038 22.3575 23.853
447 1 9.29473 22.407 26.7701
448 1 6.48123 22.3126 26.8361
449 1 12.5115 22.2925 23.93
450 1 12.1678 22.0411 26.7375
5818 1 6.64202 -0.0625534 15.5698
15192 2 13.9259 20.7897 19.6348
5906 1 6.8515 -0.415281 21.0822
12250 2 10.9381 23.6667 25.3713
5993 1 6.76425 -0.248065 23.8297
12146 2 2.54754 20.8923 14.0753
12249 2 11.0908 21.0098 22.3787
12139 2 5.56054 12.3356 14.0682
15211 2 13.828 6.68282 22.4415
15162 2 13.6744 3.9172 19.5038
15232 2 13.7568 15.1416 25.2589
12248 2 5.60131 23.7749 25.364
12223 2 2.83366 9.54619 25.3772
15241 2 13.9013 23.6657 22.6158
12149 2 5.26914 23.6196 14.0328
12141 2 2.68346 15.2485 14.1674
12015 2 5.547 3.90478 27.9638
12222 2 2.53582 12.2966 22.6406
12131 2 2.68553 3.91852 14.1703
12233 2 2.5215 15.1753 25.5783
12236 2 8.04123 18.2055 22.5702
12134 2 5.53545 6.79124 14.3179
12161 2 -0.127434 3.99473 16.9856
12226 2 8.37109 12.3177 22.5361
15126 2 13.7972 -1.61304 14.0058
12247 2 8.13289 20.5933 25.3748
12152 2 2.63319 1.13416 16.965
12232 2 2.61654 17.9559 22.4983
12246 2 8.26733 23.7494 22.6272
12230 2 11.1054 12.4274 25.3825
12156 2 8.20288 1.19337 16.8971
15146 2 13.7513 20.8671 14.159
12158 2 5.3323 0.978493 19.774
15151 2 13.9396 1.0611 16.8358
12160 2 11.0254 1.11717 19.7739
12245 2 5.28762 21.0475 22.6149
12162 2 2.74798 6.73634 16.9187
12163 2 2.5245 3.94986 19.8672
12229 2 11.1593 9.59485 22.3893
12165 2 5.55705 4.09537 16.8987
12166 2 8.14615 6.6657 16.891
12167 2 8.4242 3.99013 19.8023
12168 2 5.40211 6.71588 19.5875
12169 2 11.0793 3.86341 16.8845
12170 2 11.164 6.76932 19.6674
12243 2 2.52362 20.8638 25.4015
12172 2 2.56686 12.363 16.6821
12173 2 2.51567 9.73235 19.7343
12242 2 2.59469 23.6996 22.5132
12175 2 5.46329 9.47518 17.0203
12176 2 8.17924 12.332 16.9663
12177 2 8.49301 9.56876 19.7446
12178 2 5.60124 12.4677 19.7909
12179 2 11.2689 9.5208 16.8808
12180 2 11.1089 12.4719 19.6885
12150 2 11.0401 23.8112 14.1377
12182 2 2.45607 18.2 16.8136
12183 2 2.54181 15.2047 19.6813
12225 2 5.51458 9.55017 22.503
12185 2 5.32182 15.2824 16.8685
12186 2 8.22298 18.0344 16.8143
12187 2 8.12542 15.3357 19.7218
12188 2 5.39315 18.0281 19.6759
12189 2 10.9512 15.1004 16.903
12190 2 10.8622 18.0352 19.6491
15191 2 13.9524 23.7966 17.0565
12192 2 2.55374 23.8741 16.9181
12193 2 2.55116 20.9273 19.5224
12227 2 8.38231 9.55379 25.3412
12195 2 5.4854 20.9678 16.921
12196 2 8.41954 23.6896 16.9701
12197 2 8.27828 20.9972 19.759
12198 2 5.46054 23.662 19.7604
12199 2 11.0733 20.9987 16.9963
12200 2 11.0012 23.7063 19.7767
12240 2 11.0716 17.9442 25.1861
12202 2 2.63495 1.16579 22.5412
12135 2 11.3259 6.67514 14.2676
12239 2 11.1389 15.2973 22.3998
12235 2 5.33411 15.3116 22.4765
12206 2 8.22574 0.966269 22.6343
5903 1 6.82267 -0.214308 18.2586
12208 2 5.41505 1.19651 25.3646
12228 2 5.45437 12.3998 25.2646
12210 2 10.9896 1.00786 25.3718
12238 2 5.40223 18.064 25.5223
12212 2 2.57146 6.77106 22.6121
12213 2 2.54408 3.98689 25.3436
12237 2 8.25324 15.2665 25.3775
12215 2 5.40806 3.97026 22.6661
12216 2 8.36276 6.86634 22.5176
12217 2 8.33152 4.00819 25.2804
12218 2 5.70447 6.78203 25.3443
12219 2 11.122 3.81194 22.5742
12220 2 11.2867 6.8848 25.4264
12140 2 11.147 12.4515 14.0893
12138 2 8.52534 9.67042 14.1426
15231 2 13.8292 18.0975 22.5818
12154 2 -0.160257 1.23662 19.7363
12127 2 -0.0913883 1.11671 13.9815
15181 2 13.8928 18.0199 16.9647
15141 2 13.8511 15.1596 14.1039
15152 2 13.9381 -1.5782 19.7297
12148 2 8.2515 20.9802 14.1482
12145 2 11.0674 18.0575 14.1959
12136 2 2.54004 9.45301 14.04
12143 2 8.27177 15.077 14.2458
15171 2 13.8256 12.3193 16.7806
15201 2 13.8892 1.12669 22.3912
12241 2 -0.101607 20.6938 22.5805
12130 2 11.1155 1.19196 14.1421
12214 2 -0.102096 6.82801 25.3832
12194 2 -0.106641 23.5699 19.7744
12132 2 -0.122074 6.4809 14.1168
12144 2 5.5501 18.1533 14.0176
12002 2 2.66062 1.05748 28.0339
451 1 1.18483 25.1918 1.43257
452 1 3.93861 25.4117 1.51928
453 1 3.89518 25.0289 4.38834
454 1 1.1827 25.1979 4.24392
455 1 6.83648 25.1024 1.29328
456 1 9.63993 25.1226 1.30483
457 1 9.62771 25.1631 4.13565
458 1 6.69399 25.17 3.94703
12371 2 8.08683 32.307 13.9275
460 1 12.471 24.9565 4.1684
461 1 0.988595 27.842 1.37843
462 1 4.01804 27.9276 1.31614
463 1 3.99958 28.0399 4.06347
464 1 1.34851 27.8463 4.2376
465 1 1.24869 30.5806 1.37765
466 1 3.97677 30.6211 1.2712
467 1 3.95036 30.8288 4.34546
468 1 1.24962 30.8388 4.11129
469 1 6.95875 28.1357 1.46115
470 1 9.73402 28.0474 1.09563
471 1 9.71168 27.9741 4.07484
472 1 6.79711 28.0084 4.13575
473 1 6.59247 30.7265 1.2877
474 1 9.17641 30.9339 1.14033
475 1 9.72689 30.802 4.01721
476 1 6.71155 30.7677 4.17721
477 1 12.5074 27.6575 1.43624
478 1 12.4395 27.6519 4.45156
15262 2 13.7318 32.2514 3.24891
480 1 11.965 32.1215 1.71051
481 1 1.3477 33.5249 1.03483
482 1 4.05592 33.3967 1.41599
483 1 3.98444 33.7694 4.37166
484 1 1.1571 33.4002 3.89977
12266 2 8.2687 34.9573 0.040019
486 1 0.976 36.1075 1.57081
487 1 3.99241 36.5669 4.04136
488 1 1.1828 36.3181 4.40038
489 1 6.82508 33.4153 1.31132
490 1 9.60963 33.6163 1.55912
491 1 9.54821 33.5158 4.35584
492 1 6.65457 33.5159 4.3465
493 1 3.83144 36.388 1.23004
494 1 9.6711 36.3521 1.41901
495 1 9.50878 36.284 4.0288
496 1 6.68072 36.4279 4.27384
12293 2 5.41172 49.0884 0.0605131
498 1 12.3467 33.5612 4.32942
499 1 12.4098 36.6735 1.41334
500 1 12.3975 36.2607 4.12532
501 1 1.24864 39.0453 1.45054
502 1 3.99718 39.0417 1.34755
503 1 4.04811 39.4105 4.13937
504 1 1.25341 39.2544 4.30193
505 1 1.17078 41.7872 1.29524
506 1 4.05637 41.8347 1.52247
507 1 4.22676 42.0008 4.25939
508 1 1.24819 42.0529 4.11279
509 1 6.7472 39.111 1.33627
510 1 9.6943 39.2764 1.49987
511 1 9.79732 39.2619 4.27597
512 1 6.75645 39.3733 4.37989
513 1 6.93636 41.9736 1.43305
514 1 9.6892 41.9422 1.17973
515 1 9.58154 42.0676 4.02116
516 1 6.86019 42.006 4.22756
517 1 12.6526 39.2621 1.29826
518 1 12.5656 39.2928 4.03031
519 1 12.4269 42.0223 1.25497
520 1 12.4454 42.0807 4.14741
521 1 1.4668 44.7049 1.25861
522 1 4.29851 44.8663 1.35442
523 1 4.05809 44.9066 4.19478
524 1 1.2908 44.882 4.1186
525 1 1.41103 47.6148 1.46987
526 1 4.15433 47.7084 1.40957
527 1 4.0741 47.5773 4.3507
528 1 1.26584 47.6354 4.27353
529 1 7.00054 44.7572 1.51292
530 1 9.73373 44.6233 1.34355
531 1 9.64716 44.7019 4.17564
532 1 6.75339 45.0299 4.28473
533 1 6.94355 47.6496 1.45642
534 1 9.71267 47.6776 1.38476
535 1 9.65436 47.5084 4.16653
536 1 6.92586 47.8425 4.32865
537 1 12.5336 44.901 1.36692
538 1 12.5822 45.0241 4.15491
539 1 12.5727 47.6785 1.20763
540 1 12.4949 47.6938 4.08697
541 1 1.07476 25.2875 7.11654
542 1 3.88898 25.1052 7.06149
543 1 4.02985 25.2557 9.79395
544 1 1.15961 25.3992 9.97049
545 1 6.84191 25.0858 6.83244
546 1 9.54724 24.8777 6.80762
547 1 9.84367 24.8954 9.75076
548 1 6.96561 25.092 9.76055
549 1 12.4744 25.0176 7.08096
550 1 12.5385 25.1431 9.71544
551 1 1.20602 28.0342 7.0238
552 1 3.92511 27.9284 6.83194
553 1 3.84504 28.1332 9.75916
554 1 0.983573 28.0568 9.93146
555 1 1.10926 31.0419 6.97959
556 1 3.90606 30.7973 6.97081
557 1 3.96872 30.7418 9.77759
558 1 1.14597 30.8028 9.77373
559 1 6.64898 27.9708 6.89778
560 1 9.45846 27.7333 6.93872
561 1 9.47289 27.8447 9.70697
562 1 6.67664 27.9238 9.70362
563 1 6.85947 30.8142 6.92702
564 1 9.55692 30.8483 6.76331
565 1 9.52765 30.6325 9.65079
566 1 6.70116 30.8541 9.67443
567 1 12.2917 27.8282 7.23746
568 1 12.4623 28.0815 9.8631
569 1 12.4947 30.6303 4.31921
570 1 12.1896 30.9043 7.13298
571 1 1.08298 33.8281 6.73932
572 1 3.95309 33.5899 7.04616
573 1 3.99245 33.7064 9.81416
574 1 1.3661 33.6098 9.77455
575 1 1.1709 36.5382 7.16426
576 1 4.11644 36.5388 7.05998
577 1 3.99225 36.5763 9.68674
578 1 1.07668 36.5372 9.6873
579 1 6.77011 33.646 6.99053
580 1 9.43785 33.5838 6.96602
581 1 9.66048 33.5624 9.62622
582 1 6.85786 33.6468 9.73835
583 1 6.96255 36.706 6.91067
584 1 9.54256 36.3563 6.70925
585 1 9.72597 36.2761 9.78608
586 1 6.81783 36.5373 9.89888
587 1 12.25 33.8824 6.8757
588 1 12.5302 33.5449 9.64934
589 1 12.3921 36.6192 6.93745
590 1 12.4554 36.3404 9.82926
591 1 1.29999 39.2436 6.96455
592 1 4.03645 39.3935 7.01246
593 1 4.15971 39.2495 9.9454
594 1 1.19243 39.2713 9.7026
595 1 1.09405 42.0963 7.00099
596 1 4.01146 42.0947 7.02903
597 1 4.1045 42.089 9.79415
598 1 1.4071 41.9404 9.74899
599 1 6.93164 39.2191 7.10167
600 1 9.70547 39.2825 7.05303
601 1 9.76719 39.0699 9.87098
602 1 6.92532 39.2731 10.0042
603 1 7.08985 41.9553 7.09362
604 1 9.81314 42.102 6.86684
605 1 9.89268 41.8728 9.74496
606 1 7.04842 42.0767 9.94145
607 1 12.3873 39.4175 6.77379
608 1 12.6414 39.3036 9.74452
609 1 12.696 42.2269 6.90406
610 1 12.5822 42.0273 9.77604
611 1 1.41108 44.5963 6.79352
612 1 4.10983 44.7108 7.07834
613 1 4.02942 45.1143 9.9548
614 1 1.16404 44.8968 9.8961
615 1 1.27049 47.3823 7.17305
616 1 3.94891 47.6345 7.06156
617 1 4.06795 47.8214 10.0306
618 1 1.26403 47.5853 9.90439
619 1 6.96481 44.8403 7.07863
620 1 9.64243 44.8305 7.07721
621 1 9.76073 44.7235 9.78813
622 1 6.8982 44.8602 9.92018
623 1 6.80857 47.5628 7.05816
624 1 9.72576 47.6698 7.09327
625 1 9.81913 47.5913 9.73812
626 1 6.99341 47.5831 9.8658
627 1 12.5855 44.7823 6.87564
628 1 12.4255 44.8449 9.56925
629 1 12.4739 47.7356 6.82492
630 1 12.6496 47.6844 9.72624
631 1 1.28749 25.0972 12.8108
632 1 4.02559 25.1448 12.5609
633 1 6.7863 25.0074 12.7851
634 1 9.59677 25.1346 12.6385
635 1 12.3626 25.2397 12.7041
636 1 1.1321 28.0237 12.8666
637 1 3.69115 27.8119 12.8352
638 1 1.2581 30.7878 12.7198
639 1 3.93653 30.4946 12.5689
640 1 6.63217 27.9339 12.4796
641 1 9.62154 27.8956 12.5818
642 1 6.76577 30.8289 12.4119
643 1 9.64679 30.8056 12.6227
644 1 12.3756 27.7855 12.6996
645 1 12.5046 30.6594 12.4958
646 1 1.25333 33.5434 12.5263
647 1 4.03094 33.4503 12.7048
648 1 1.27538 36.4637 12.4379
649 1 3.89262 36.2777 12.7999
650 1 6.83349 33.5799 12.4995
651 1 9.56064 33.6231 12.5242
652 1 6.86786 36.2972 12.6705
653 1 9.70592 36.4272 12.6684
654 1 12.3359 33.652 12.4631
655 1 12.3067 36.3224 12.564
656 1 1.24917 39.3019 12.6209
657 1 4.17611 39.0704 12.6067
658 1 1.45918 42.0401 12.6991
659 1 4.19787 41.9455 12.6957
660 1 7.06782 39.0505 12.6582
661 1 9.95953 39.3801 12.6173
662 1 7.09214 41.985 12.5553
663 1 9.93129 42.1207 12.6545
664 1 12.8153 39.0918 12.3959
665 1 12.5782 41.9733 12.6044
666 1 1.12792 44.7468 12.8446
667 1 3.87533 44.8181 12.4891
668 1 1.2036 47.7001 12.9342
669 1 3.9847 47.7206 12.7228
670 1 6.61742 44.7539 12.7422
671 1 9.67498 44.9246 12.6139
672 1 7.00403 47.6551 12.5362
673 1 9.59881 47.6782 12.5535
674 1 12.572 44.9346 12.478
675 1 12.3795 47.7004 12.7043
12363 2 11.1575 49.0836 11.0391
12272 2 2.7646 40.5545 -0.0704698
12253 2 2.67327 26.6656 2.91692
12362 2 5.41692 49.1216 11.4574
15346 2 13.916 35.0577 11.3177
1001 1 1.14199 50.3971 7.19807
12257 2 8.40463 26.6525 2.62094
12258 2 5.34244 29.4033 2.75001
89 1 12.5178 25.0514 1.35818
12260 2 11.1385 29.6493 2.46131
12360 2 11.1796 43.2752 11.0185
12282 2 2.6984 46.2335 0.00150253
12263 2 2.70693 32.1187 2.8643
12359 2 8.47262 46.3366 11.091
15336 2 13.8937 49.1933 8.1486
12274 2 -0.0903359 40.5804 2.85842
12267 2 8.06028 32.0976 2.88726
12268 2 5.38542 34.9705 2.85253
12345 2 11.068 26.5461 11.0712
12270 2 11.2386 34.8897 2.68161
12358 2 5.41051 43.4771 11.185
12344 2 8.11329 29.3227 11.0496
12273 2 2.65333 37.7477 2.75809
12357 2 2.51145 46.2799 11.2765
12343 2 5.23127 26.6493 11.1752
12285 2 5.65185 43.4697 -0.0354213
12277 2 8.06761 37.7708 2.87461
12278 2 5.5715 40.6167 2.91884
12279 2 10.9918 37.7779 0.0739554
12280 2 11.1194 40.6263 2.74616
12355 2 11.186 37.8518 11.2181
15261 2 13.7899 35.5223 0.0470208
12283 2 2.80925 43.5642 2.9602
12354 2 8.34801 40.7567 11.2828
479 2 13.8598 32.2801 0.0202203
1011 1 9.75209 50.3079 9.68677
12287 2 8.32288 43.3929 2.69228
12288 2 5.60337 46.3124 2.76368
15252 2 13.8302 26.4672 2.93301
12290 2 11.1918 46.362 2.73795
12353 2 5.55966 37.9098 11.2315
12292 2 2.67146 49.0566 2.72203
12295 2 11.0201 49.1536 -0.0960897
12294 2 8.38191 49.1637 2.8498
6554 1 12.339 30.8405 9.65159
15297 2 13.8746 26.7649 8.55905
12297 2 2.52678 29.487 5.61732
12298 2 2.60682 26.551 8.342
15326 2 13.9329 46.2787 5.64688
12300 2 5.35371 26.6543 5.47642
12301 2 8.19286 29.4626 5.35771
12302 2 8.414 26.2636 8.33228
12303 2 5.26816 29.1616 8.31271
12304 2 11.0766 26.4062 5.6078
12305 2 10.8961 29.2708 8.29988
12352 2 2.76336 40.6323 11.2041
12307 2 2.78152 34.982 5.7075
12308 2 2.57713 32.2767 8.38497
12289 2 11.1593 43.4211 -0.0998931
12310 2 5.46724 32.1323 5.61638
12311 2 8.22186 34.9483 5.49517
12312 2 8.2431 32.1892 8.38783