ITEM: TIMESTEP
100000
ITEM: NUMBER OF ATOMS
18000
ITEM: BOX BOUNDS xy xz yz pp pp pp
-1.4085355453176301e-01 2.8034853554532269e+01 0.0000000000000000e+00
-1.7010451408418235e+00 3.3642904514082431e+02 0.0000000000000000e+00
-1.3777792031713443e-01 2.8031777920317197e+01 0.0000000000000000e+00
ITEM: ATOMS id type x y z
1 1 1.39413 -0.16595 1.12056
2 1 4.2953 -0.182139 1.23715
3 1 4.29879 -0.292135 4.01862
4 1 1.49546 -0.272497 4.01671
5 1 1.34899 2.50903 1.20775
6 1 4.17549 2.54224 1.41643
7 1 4.31208 2.5079 4.07861
8 1 1.45479 2.38207 4.19559
9 1 7.12149 -0.217781 1.06578
10 1 9.83326 -0.32116 1.30863
11 1 9.77948 -0.328489 4.35154
12 1 7.00624 -0.225616 3.78655
13 1 7.13273 2.66547 1.35176
14 1 9.86785 2.34483 1.24579
15 1 10.0438 2.53405 4.20017
16 1 6.92744 2.44426 4.11143
17 1 12.6404 -0.177133 1.42852
18 1 12.7395 -0.337575 4.04728
19 1 12.8527 2.51839 1.03779
20 1 12.7722 2.41777 4.02361
21 1 1.40027 5.38453 1.18001
22 1 4.1011 5.22328 1.20396
23 1 4.32848 5.253 4.1356
24 1 1.44447 5.3419 4.05562
25 1 1.44699 8.13326 1.17885
26 1 4.17122 8.3053 1.20519
27 1 4.24283 8.00204 4.03999
28 1 1.42646 8.18281 3.87853
29 1 7.02023 5.43962 1.23376
30 1 9.85933 5.03581 1.18614
31 1 9.86247 5.53867 4.06615
32 1 7.00957 5.2777 3.98639
33 1 6.98003 8.10389 1.28707
34 1 9.7925 7.97278 1.39234
35 1 9.89773 8.03273 4.02467
36 1 6.9183 8.22548 4.0126
37 1 12.7108 5.28217 1.41051
38 1 12.7638 5.081 4.02886
39 1 12.6184 8.05512 1.30925
40 1 12.7058 10.9067 4.02026
41 1 1.1843 11.1979 1.02068
42 1 4.0908 10.9736 0.983517
43 1 4.14087 10.8266 3.7993
44 1 1.34922 11.0442 3.79624
45 1 1.32346 13.866 1.12958
46 1 4.16107 13.8693 1.2165
47 1 4.28321 13.7396 3.93028
48 1 1.37636 13.7595 3.99477
49 1 7.00655 10.858 1.17261
50 1 9.75304 10.8477 1.44056
51 1 9.64146 10.8509 4.10163
52 1 6.86632 10.9514 3.80137
53 1 7.06494 13.8947 1.00996
54 1 9.91671 13.6027 1.21158
55 1 9.61432 13.553 3.93549
56 1 7.01174 13.7053 4.12738
57 1 12.6719 10.7709 1.12762
58 1 12.6648 13.9555 4.14275
59 1 12.7086 13.752 1.23725
60 1 12.5659 16.5285 4.13085
61 1 1.43172 16.6782 1.21598
62 1 3.94683 16.418 1.13159
63 1 4.16454 16.6443 3.94819
64 1 1.32266 16.5896 4.13463
65 1 1.37006 19.4958 1.43323
66 1 4.15973 19.4315 1.23123
67 1 4.00357 19.4158 4.22937
68 1 1.2548 19.4563 4.02137
69 1 6.69537 16.5701 1.37763
70 1 9.73967 16.6147 1.15251
71 1 9.72067 16.2702 4.03645
72 1 6.987 16.5921 4.08743
73 1 7.03752 19.5062 1.23467
74 1 9.77194 19.2385 1.30413
75 1 9.62398 19.0556 4.03595
76 1 6.75627 19.3918 4.07561
77 1 12.5933 16.612 1.30963
78 1 12.5956 19.3472 3.91789
79 1 12.5641 22.2787 1.28458
80 1 12.5676 19.3587 1.14152
81 1 1.19656 22.3615 1.21289
82 1 4.07995 22.3357 1.12736
83 1 4.02455 22.3168 4.02684
84 1 1.18322 22.2392 4.20735
85 1 6.98747 22.1873 1.20087
86 1 9.71299 22.0003 1.2159
87 1 9.58196 22.0623 4.12634
88 1 6.76841 22.1848 4.37745
12074 2 0.108931 12.3445 8.27557
90 1 12.6513 22.235 4.10287
91 1 1.43114 -0.273005 6.88968
92 1 4.54524 -0.311468 6.80487
93 1 4.25534 -0.330588 9.63842
94 1 1.44804 -0.279193 9.77181
95 1 1.24395 2.53848 6.98741
96 1 4.14163 2.68685 6.71318
97 1 1.52324 5.64659 9.43474
98 1 1.2862 2.56497 9.82158
99 1 7.25694 -0.353655 6.83496
100 1 10.0642 -0.31063 7.06369
101 1 9.76809 2.4569 9.94894
102 1 7.11818 2.57426 9.69435
103 1 7.12359 2.5099 6.97548
104 1 9.89435 2.65055 7.04435
105 1 10.0991 5.34782 9.69422
106 1 4.22878 2.29701 9.54262
107 1 12.8161 -0.163789 7.12324
108 1 12.6636 2.58914 9.84889
109 1 12.6583 2.46747 6.96387
110 1 12.845 5.16569 9.63982
111 1 1.41935 5.54074 6.64118
112 1 4.29408 5.30827 6.87134
113 1 10.1125 8.17911 9.71831
114 1 4.19842 7.71442 9.78984
115 1 1.38854 8.36892 6.72376
116 1 4.20649 8.08828 6.70167
117 1 7.06452 8.31159 9.86164
118 1 1.51411 8.26455 9.53528
119 1 7.09451 5.35602 6.56963
120 1 9.89174 5.34509 6.97239
121 1 12.7223 8.26805 6.82274
122 1 7.00461 8.01463 12.5398
123 1 7.21497 8.28893 6.79008
124 1 10.0102 8.20274 6.83887
125 1 12.6506 8.00621 9.61516
126 2 5.9674 6.6339 11.1284
127 1 12.8553 5.42787 6.78963
12106 2 0.021981 4.00521 11.0556
129 1 12.6961 8.09691 4.1205
130 1 12.911 10.9387 9.70585
131 1 1.70238 11.267 6.97392
132 1 4.40357 10.8881 6.64552
133 1 4.30065 10.6327 9.70946
134 1 1.53319 11.0793 9.92393
135 1 1.51962 13.8939 6.8711
136 1 4.32336 13.7102 6.85639
137 1 4.31887 13.8289 9.59838
138 1 1.67042 13.8569 9.71599
139 1 7.12915 10.9733 6.77079
140 1 9.98232 11.1206 6.88871
141 1 10.104 10.9603 9.74314
142 1 7.35052 10.9269 9.58013
143 1 6.99509 13.8871 6.96321
144 1 9.89272 13.8102 6.84249
145 1 10.106 14.0243 9.67608
146 1 7.31059 13.7429 9.77949
147 1 12.7801 11.1587 6.97397
12057 2 8.42366 -1.73905 8.45985
149 1 12.7351 13.9189 6.75756
150 1 12.7416 13.9611 9.69201
151 1 1.45581 16.6181 6.85896
152 1 4.1442 16.6885 6.78111
153 1 4.23906 16.5128 9.62212
154 1 1.52054 16.6563 9.81921
155 1 1.21778 19.3909 7.00725
156 1 4.11785 19.5879 6.85309
157 1 4.16188 19.421 9.64781
158 1 1.35267 19.5136 9.63685
159 1 6.96649 16.6433 6.92613
160 1 9.8408 16.7221 6.76517
161 1 9.87689 16.627 9.68025
162 1 7.03252 16.7105 9.66401
163 1 7.09847 19.357 6.95664
164 1 9.95982 19.3209 6.94743
165 1 9.95217 19.4403 9.75794
166 1 7.07828 19.4618 9.80673
167 1 12.5903 16.8503 6.85132
168 1 12.9398 16.8735 9.63498
169 1 12.7534 19.6271 6.78136
170 1 12.5351 19.4282 9.54158
171 1 1.31527 21.9866 6.7219
172 1 4.08718 22.3611 6.86972
173 1 4.09306 22.2641 9.58845
174 1 1.20452 22.3246 9.70813
175 1 7.0772 22.2972 6.8553
176 1 9.91687 22.121 7.03831
177 1 9.89469 22.2995 9.6848
178 1 6.9838 22.353 9.60235
179 1 12.4971 22.3972 7.01759
180 1 12.6259 22.2393 9.761
181 1 1.5165 -0.303678 12.3969
182 1 4.30068 -0.451873 12.6055
183 1 1.48011 2.27856 12.6352
184 1 4.24021 2.2315 12.6613
185 1 6.91889 2.56656 12.345
186 1 9.94075 -0.419109 12.5561
187 1 10.0734 5.38222 12.4874
188 1 9.85 2.49286 12.7764
189 1 12.8087 -0.206152 12.7008
190 1 12.7445 2.74208 12.5605
191 1 1.26352 5.47545 12.7065
192 1 7.52488 5.84639 9.39316
193 1 1.29642 8.10656 12.5102
194 1 4.24539 8.14245 12.4491
195 1 5.11042 5.05177 9.55816
196 1 12.5585 5.44015 12.526
197 1 5.0082 5.49622 12.7194
198 1 10.0888 8.14319 12.7184
12055 2 5.74128 -1.68816 5.3955
200 1 12.9927 8.25239 12.3751
201 1 1.28807 10.852 12.6751
202 1 4.12655 11.1287 12.7526
203 1 1.21802 13.7846 12.5289
204 1 3.90646 14.0823 12.5234
205 1 5.6455 12.2408 11.2464
206 1 9.91263 10.9805 12.6356
207 1 7.30272 13.8285 12.7282
208 1 10.0751 13.8179 12.5909
209 1 12.5786 11.1634 12.3587
210 1 12.8897 13.8672 12.4874
211 1 1.47693 16.6648 12.7439
212 1 4.4303 16.5888 12.5895
213 1 1.47904 19.4711 12.5027
214 1 4.14455 19.5556 12.2482
215 1 7.0927 16.7052 12.7002
216 1 9.75774 16.6446 12.4621
217 1 6.96501 19.7542 12.4905
218 1 9.71977 19.537 12.5454
219 1 12.7065 16.5959 12.4647
220 1 12.7342 19.449 12.4526
221 1 1.35312 22.1352 12.5175
222 1 4.15759 22.5551 12.4436
223 1 6.85141 22.3011 12.4301
224 1 9.75713 22.3452 12.4115
225 1 12.6282 22.2255 12.5282
12125 2 11.1444 21.0039 11.0227
12110 2 11.3861 3.93173 11.1641
15146 2 14.0062 20.7907 13.953
12124 2 8.25045 23.7772 11.0801
15041 2 13.8988 23.6117 -0.176364
12109 2 9.18504 6.84084 11.0964
12116 2 0.13244 15.0688 11.0826
12008 2 5.54055 1.18984 2.63404
12121 2 0.0148915 20.7149 10.921
12010 2 11.294 1.07799 2.83862
12123 2 5.60491 21.008 11.0311
12108 2 5.28939 3.37377 11.1352
12013 2 2.79352 3.92876 2.79868
12122 2 2.55261 23.6955 11.0678
12107 2 2.61011 6.80793 11.2022
12112 2 2.97531 12.4454 11.1542
12017 2 8.56924 3.69789 2.77226
12018 2 5.57796 6.57523 2.62692
12104 2 8.52451 1.1102 11.2196
12020 2 11.2601 6.56587 2.75195
12003 2 2.82239 -1.47784 2.72534
12053 2 2.82228 -1.57951 8.20957
12023 2 2.77879 9.55604 2.59028
12120 2 11.3777 15.138 11.0588
12102 2 2.84963 0.863628 11.1455
12113 2 5.96441 9.89856 11.1959
12027 2 8.33519 9.48505 2.74467
12028 2 5.56956 12.2825 2.50019
12100 2 11.0187 23.8044 8.20538
12030 2 11.1899 12.2872 2.70468
12099 2 11.2011 20.8297 5.5366
12098 2 5.589 23.5432 8.12699
12033 2 2.66482 15.1784 2.64367
12011 2 0.111188 3.93348 -0.142066
12097 2 8.51417 20.7595 8.46621
12096 2 8.10718 23.6998 5.28696
12037 2 8.26031 14.9221 2.62808
12038 2 5.45388 18.0183 2.74722
12095 2 5.48696 20.8109 5.56937
12040 2 11.0105 17.7939 2.77225
15092 2 13.6765 20.8836 8.35332
12093 2 2.73334 20.7861 8.30182
12043 2 2.64978 21.0008 2.59187
12145 2 11.091 18.1433 13.8813
12092 2 2.41632 23.58 5.50087
231 1 2.87134 4.39174 11.2678
12047 2 8.41108 20.5888 2.6219
12048 2 5.68058 23.6899 2.5475
12090 2 11.3222 18.0748 8.2585
12050 2 11.2443 23.7367 2.63774
12119 2 8.3778 18.0152 11.0469
12052 2 2.87163 1.20744 5.38768
12088 2 5.48803 17.8653 8.24005
12118 2 5.72871 14.979 11.1023
12087 2 8.47867 15.329 8.23008
12056 2 8.40558 1.17737 5.49898
12006 2 8.42875 1.07102 -0.23962
12058 2 5.80606 1.16846 8.17265
243 1 7.27116 10.7699 12.6536
12060 2 11.2399 1.11891 8.45978
12117 2 2.94396 17.8884 11.1338
12062 2 2.70869 6.93858 5.35808
12063 2 2.78265 4.02646 8.44316
12089 2 11.2053 15.1379 5.35601
12065 2 5.6518 4.0005 5.52237
12066 2 8.50649 6.80024 5.43495
12067 2 8.42983 4.11361 8.49498
12068 2 5.67296 6.68959 7.91094
12069 2 11.2728 4.05427 5.55431
12070 2 11.4093 6.66356 8.08264
12115 2 11.5629 9.66035 11.2411
12072 2 3.01998 12.3751 5.36425
12073 2 2.8433 9.61416 8.18715
12114 2 8.33123 12.2996 11.2874
12075 2 5.60164 9.40171 5.43215
12076 2 8.23159 12.3714 5.58978
12077 2 8.77458 9.45028 8.26609
12078 2 5.61503 12.2373 8.4424
12079 2 11.2716 9.58305 5.46473
12080 2 11.4919 12.5247 8.35928
5725 1 9.87396 -0.350152 9.7291
12082 2 2.66609 18.0448 5.47702
12083 2 2.85817 15.2604 8.20346
5726 1 7.02952 -0.213223 9.65417
12085 2 5.54435 15.1955 5.4597
12086 2 8.28072 18.0746 5.52604
12127 2 0.265265 0.967937 14.0319
12024 2 -0.0327714 12.51 2.39618
5730 1 12.566 -0.184087 9.99049
233 1 7.58951 5.24174 11.876
12091 2 -0.218851 20.8135 5.42686
5772 1 7.05665 -0.506873 12.5511
12064 2 0.0311278 6.82209 8.13398
12084 2 -0.173798 18.0058 8.38253
12105 2 11.4392 -1.70358 11.1359
12029 2 11.1342 9.45228 0.00518186
12061 2 -0.0381854 3.89712 5.4835
12071 2 0.0069041 9.76838 5.23888
12051 2 0.0188441 -1.6941 5.54221
12131 2 2.758 3.92261 13.8359
12081 2 0.0873471 15.1891 5.29381
12034 2 -0.0433176 18.0694 2.79019
12014 2 0.0503867 6.71114 2.56006
12004 2 -0.0261679 0.987053 2.60367
12044 2 -0.150161 23.6465 2.57899
12054 2 -0.0301206 1.04357 8.5688
12045 2 5.66051 21.0006 -0.231425
12002 2 2.93031 1.24038 -0.102441
12146 2 2.88327 20.9191 13.8573
12026 2 8.546 12.2677 -0.186667
12129 2 5.67645 0.863563 13.9333
12036 2 8.37746 17.9689 -0.211747
12147 2 -0.0403678 23.6897 13.7558
12015 2 5.66672 3.96934 0.0812522
12016 2 8.52539 6.60993 -0.0734734
12142 2 -0.108353 18.1997 13.8411
226 1 4.24022 -0.431439 15.4337
227 1 1.59927 -0.397193 15.2794
228 1 4.35833 2.29496 15.3525
229 1 1.47123 2.73555 15.4494
230 1 9.97149 -0.152825 15.2533
12224 2 0.04029 12.4732 25.1466
232 1 9.90929 2.70183 15.6437
12031 2 0.016619 15.3608 27.8859
234 1 12.7716 -0.469391 15.347
235 1 12.8563 2.40797 15.3796
236 1 4.22714 5.13504 15.1276
237 1 1.58888 5.30743 15.3108
238 1 4.43202 8.47669 15.3008
239 1 1.6551 8.0846 15.5485
240 1 9.84282 5.39752 15.342
241 1 7.53307 8.00255 15.1674
242 1 10.0929 8.2953 15.5048
12144 2 5.71578 18.0456 13.997
244 1 12.7689 5.38587 15.4223
245 1 12.8395 8.06028 15.1396
246 1 4.39224 11.0177 15.4604
247 1 1.56055 11.1101 15.4018
248 1 4.28998 13.8925 15.3431
249 1 1.3526 13.9321 15.2393
250 1 10.003 11.1428 15.3565
251 1 7.09684 10.9518 15.5458
252 1 9.9561 13.866 15.2871
253 1 7.2284 13.6747 15.6105
254 1 12.722 10.8099 15.1591
255 1 12.7497 13.7436 15.3202
256 1 4.28612 16.7855 15.2946
257 1 1.55434 16.9002 15.3471
258 1 4.374 19.5763 15.2531
259 1 1.42512 19.5506 15.2666
260 1 9.92464 16.7461 15.4028
261 1 7.03091 16.6466 15.3233
262 1 9.72773 19.5322 15.3775
263 1 7.05176 19.4499 15.3032
264 1 12.6135 16.5869 15.2341
265 1 12.3628 19.394 15.4411
266 1 4.24472 22.074 15.3205
267 1 1.22754 22.2727 15.2014
268 1 9.75401 22.4563 15.161
269 1 7.07736 22.3519 15.3511
270 1 12.6379 22.112 15.3161
271 1 1.52059 -0.22621 18.1583
272 1 4.26843 -0.265383 18.2225
273 1 4.46013 -0.390783 20.9559
274 1 1.65883 -0.425509 20.9041
275 1 1.57091 2.43829 18.0902
276 1 4.3365 2.40327 18.2195
277 1 4.27913 2.37858 21.0211
278 1 1.45116 2.64547 20.8861
279 1 7.24181 2.28887 15.2
280 1 9.76627 -0.356385 18.2395
281 1 9.88672 -0.345829 21.1685
282 1 7.23239 2.61415 18.0073
283 1 6.8882 5.11431 15.0054
284 1 9.87455 2.38563 18.2779
285 1 9.89811 2.43715 21.061
286 1 7.19672 5.19064 18.3056
287 1 12.6464 -0.338287 18.069
288 1 12.6772 -0.156953 20.8811
289 1 12.7173 2.35405 18.2892
290 1 12.6808 2.59946 21.0862
291 1 1.37806 5.36689 18.2026
292 1 4.21372 4.97332 18.0728
293 1 4.32568 5.31703 20.9702
294 1 1.38586 5.34001 20.712
295 1 1.44302 8.15416 18.2016
296 1 4.10777 8.16518 18.4818
297 1 4.22656 8.41706 21.1367
298 1 1.27797 8.13366 20.9646
299 1 5.51084 6.75382 16.7875
300 1 9.90786 5.52039 18.1881
301 1 10.0961 5.09321 20.9017
302 1 7.15586 5.19841 21.0938
303 1 7.36015 8.24645 18.0059
304 1 9.85355 8.07468 18.1614
305 1 9.85082 7.95931 21.0839
306 1 7.08692 7.90456 20.7219
307 1 12.7537 5.23909 18.2071
308 1 12.8423 5.43985 21.1817
309 1 12.92 8.03989 18.257
310 1 12.6587 8.33273 21.015
311 1 1.51366 10.9343 18.1451
312 1 4.28869 11.0827 18.2271
313 1 4.28656 11.3588 20.9702
314 1 1.31809 11.035 21.0727
315 1 1.42395 13.8305 18.0352
316 1 4.16707 14.0012 18.0996
317 1 4.11981 14.0066 20.8803
318 1 1.34222 13.7785 21.0378
319 1 7.15347 11.1163 18.2861
320 1 10.1373 10.9639 17.9928
321 1 9.89069 10.7852 21.05
322 1 7.10598 10.753 20.9479
323 1 7.0477 13.8303 18.2404
324 1 9.91842 13.6638 18.0718
325 1 9.75371 13.467 20.9146
326 1 6.98295 13.8198 21.0642
327 1 12.8117 10.8317 18.2513
328 1 12.7376 11.1031 20.9351
329 1 12.7242 13.67 18.1958
330 1 12.6175 13.8651 21.0954
331 1 1.34317 16.7777 18.1315
332 1 4.29656 16.8441 18.1987
333 1 4.06673 16.7602 20.971
334 1 1.32446 16.5655 20.8193
335 1 1.50629 19.538 18.2093
336 1 4.14577 19.6311 17.9676
337 1 4.21219 19.3274 20.9351
338 1 1.28841 19.3764 21.0642
339 1 7.20486 16.7129 18.0354
340 1 9.90602 16.5075 18.2708
341 1 9.75633 16.5611 20.8745
342 1 6.87923 16.6497 20.786
343 1 7.05452 19.5934 17.9748
344 1 9.96013 19.3943 18.0649
345 1 9.88414 19.4911 20.886
346 1 7.04541 19.4499 20.8667
347 1 12.7823 16.6805 18.1757
348 1 12.4763 16.614 21.0187
349 1 12.6355 19.3454 18.0087
350 1 12.5824 19.5275 20.8288
351 1 1.49928 22.1537 17.998
352 1 4.38812 22.4555 18.143
353 1 4.27808 22.1812 21.0069
354 1 1.49672 22.2588 20.8534
355 1 7.10048 22.1862 18.1148
356 1 9.92823 22.1472 18.0911
357 1 9.90035 22.2258 20.996
358 1 7.14705 22.4495 21.021
359 1 12.4651 22.255 18.2052
360 1 12.6175 22.1596 20.9339
361 1 1.47595 -0.368391 23.6109
362 1 4.32621 -0.407201 23.8044
363 1 4.2451 -0.247328 26.7374
364 1 1.41886 -0.219649 26.51
365 1 1.48703 2.55189 23.7084
366 1 4.30878 2.49967 23.7512
367 1 4.29184 2.43046 26.7447
368 1 1.42924 2.4804 26.6098
369 1 7.11226 2.3399 21.095
370 1 9.80727 -0.30281 23.8888
371 1 9.76225 -0.231164 26.6546
372 1 6.79144 -0.309143 26.6518
373 1 7.01257 2.66522 23.883
374 1 9.85066 2.68925 23.7678
375 1 9.6107 2.52861 26.432
376 1 6.98718 2.43901 26.5714
377 1 12.5846 -0.300382 23.8768
378 1 12.4173 -0.455702 26.5953
379 1 12.7159 2.55972 23.759
380 1 12.526 2.49783 26.6357
381 1 1.47594 5.43557 23.7943
382 1 4.12212 5.2403 23.5346
383 1 4.2481 5.3905 26.592
384 1 1.46445 5.25737 26.5566
385 1 1.28992 8.30265 23.8459
386 1 4.18087 8.04075 23.8721
387 1 4.32989 8.19361 26.7375
388 1 1.46727 8.0873 26.6083
389 1 6.97617 5.36062 23.7385
390 1 9.78942 5.53528 23.9204
391 1 9.92137 5.39315 26.4749
392 1 7.16239 5.55992 26.62
393 1 7.24053 8.27142 23.7698
394 1 10.039 8.26324 23.9375
395 1 9.95857 8.20591 26.6289
396 1 7.15006 8.24024 26.7651
397 1 12.6161 5.42048 23.9503
398 1 12.7198 5.38921 26.6873
399 1 12.832 8.10475 23.9008
400 1 12.7921 8.21924 26.828
401 1 1.41877 10.9356 23.807
402 1 4.25917 10.8763 23.7043
403 1 4.28818 10.9826 26.4788
404 1 1.3471 11.0656 26.5058
405 1 1.48345 13.999 23.7506
406 1 4.39433 13.7784 23.7737
407 1 4.28169 13.7325 26.6335
408 1 1.28396 14.0829 26.5579
409 1 7.02441 10.8529 23.9584
410 1 9.89669 11.1262 23.7038
411 1 9.92047 11.0363 26.7831
412 1 7.15703 10.9318 26.6552
413 1 7.19114 13.8477 23.6848
414 1 9.8261 13.6714 23.6744
415 1 9.81949 13.9732 26.6449
416 1 6.91483 13.7857 26.5077
417 1 12.7043 10.9674 23.9319
418 1 12.5655 11.0683 26.588
419 1 12.7431 13.9504 23.7422
420 1 12.6522 13.7859 26.6014
421 1 1.22598 16.6913 23.6881
422 1 4.20525 16.5762 23.682
423 1 4.33833 16.5351 26.4408
424 1 1.39441 16.9547 26.4254
425 1 1.34945 19.5801 23.6979
426 1 4.10409 19.1723 23.8691
427 1 4.38612 19.3257 26.6238
428 1 1.48085 19.7381 26.64
429 1 7.13495 16.7266 23.872
430 1 9.92572 16.5162 23.6178
431 1 9.80248 16.5934 26.5595
432 1 6.99043 16.5449 26.562
433 1 6.90716 19.5633 23.6052
434 1 9.65915 19.6027 23.5526
435 1 10.043 19.2223 26.4025
436 1 7.31183 19.3102 26.373
437 1 12.702 16.7372 23.7831
438 1 12.4878 16.5347 26.6285
439 1 12.6494 19.5084 23.6899
440 1 12.7308 19.3384 26.4695
441 1 1.37376 22.1671 23.7376
442 1 4.50546 22.2881 23.669
443 1 4.14518 22.1853 26.334
444 1 1.31842 22.2044 26.5367
445 1 7.21026 22.2033 23.8195
446 1 10.0299 22.2767 23.6603
447 1 9.94286 22.3028 26.3365
448 1 7.02295 22.2812 26.7342
449 1 12.6222 22.6787 23.544
450 1 12.5295 22.2412 26.6571
5818 1 7.22309 -0.383468 15.3932
12049 2 11.2682 20.7085 28.0052
5906 1 7.0186 -0.382693 21.0495
12250 2 11.2825 23.7376 25.1248
5993 1 7.19567 -0.219173 23.8867
15031 2 14.0046 17.9377 27.9861
12249 2 11.2337 20.8987 22.2659
12174 2 -0.0223557 12.4164 19.5615
15181 2 13.9577 18.0282 16.6146
12159 2 11.2398 -1.67306 16.7369
12244 2 0.0102593 23.5772 25.0984
12248 2 5.72815 23.6727 25.0359
12223 2 2.7885 9.57318 25.1772
12204 2 0.103297 1.13763 25.2909
12042 2 2.711 23.6044 27.8405
12221 2 -0.100538 9.52457 22.2849
12143 2 8.49388 15.181 13.992
12222 2 2.78115 12.5118 22.4305
12130 2 11.3337 1.09293 13.8748
12233 2 2.70785 15.4628 25.2016
12236 2 8.37299 18.0433 22.2651
12134 2 5.74907 6.86467 14.4761
12209 2 11.2413 -1.73185 22.5366
12226 2 8.37243 12.3074 22.3407
12161 2 -0.0186329 3.96629 16.8008
12247 2 8.56879 20.7551 25.1496
12152 2 2.88753 1.07368 16.7273
12232 2 2.747 18.0426 22.2395
12246 2 8.52384 23.6036 22.3807
12230 2 11.3023 12.4409 25.253
12156 2 8.46192 1.10097 16.818
12164 2 -0.0792957 6.82356 19.5042
12158 2 5.75779 0.966293 19.5135
12220 2 11.4159 6.77535 25.4043
12160 2 11.1952 1.0244 19.5965
12245 2 5.55434 20.8124 22.2218
12162 2 3.05873 6.73886 16.9105
12163 2 2.84097 3.72876 19.4593
12229 2 11.2088 9.5219 22.4903
12165 2 5.69112 3.9135 16.751
12166 2 8.44575 6.72771 16.8286
12167 2 8.51419 3.85839 19.6864
12168 2 5.6787 6.55843 19.4113
12169 2 11.2151 3.97397 16.7722
12170 2 11.39 6.55199 19.7521
12243 2 2.77216 20.8123 25.0726
12172 2 2.95117 12.3566 16.6959
12173 2 2.81691 9.78367 19.6235
12242 2 2.9259 23.6098 22.1445
12175 2 5.70576 9.4743 16.9679
12176 2 8.57354 12.2841 16.8769
12177 2 8.52889 9.48488 19.6257
12178 2 5.52017 12.5062 19.5106
12179 2 11.4804 9.43617 16.8591
12180 2 11.2977 12.3672 19.6311
12219 2 11.35 4.07374 22.499
12182 2 2.75545 18.1107 16.6524
12183 2 2.83976 15.3356 19.3992
12225 2 5.83554 9.5047 22.4499
12185 2 5.70355 15.342 16.7652
12186 2 8.48852 17.9214 16.7157
12187 2 8.37856 15.1575 19.5599
12188 2 5.7025 18.2815 19.4024
12189 2 11.3266 15.0717 16.7325
12190 2 11.2524 17.8933 19.45
12132 2 -0.0341876 6.64212 14.0312
12192 2 2.74822 23.5843 16.579
12193 2 2.79333 20.7529 19.5952
12227 2 8.49468 9.51642 25.3029
12195 2 5.70757 20.9287 16.6395
12196 2 8.45243 23.6185 16.7472
12197 2 8.49918 20.8827 19.499
12198 2 5.75345 23.6308 19.4604
12199 2 11.2108 20.7935 16.7106
12200 2 11.1068 23.6496 19.4871
12240 2 11.2572 17.9177 25.1514
12202 2 2.90945 1.12579 22.4318
12181 2 -0.115704 15.3095 16.6739
12239 2 11.1204 15.047 22.3583
12235 2 5.45941 15.2534 22.2241
12206 2 8.49448 1.0844 22.3525
5903 1 7.07656 -0.302469 18.2411
12208 2 5.70614 1.0862 25.1091
12228 2 5.68662 12.308 25.2343
12210 2 11.1076 1.07779 25.2594
12238 2 5.72263 17.9672 25.1751
12212 2 2.89121 6.81888 22.1435
12213 2 2.92878 4.09434 25.1322
12237 2 8.34523 15.046 25.2033
12215 2 5.70493 3.89035 22.3818
12216 2 8.49443 6.72736 22.5131
12217 2 8.49657 4.00219 25.1252
12218 2 5.69408 6.76288 25.3345
12035 2 5.48557 15.0979 28.0224
12191 2 -0.0816406 20.81 16.8054
12194 2 0.0177607 23.5715 19.3105
12184 2 0.0201577 18.07 19.5679
12039 2 11.1368 15.2305 28.0204
12137 2 0.0922018 12.5573 13.9162
12241 2 -0.0428494 20.891 22.2513
12022 2 2.79202 12.4757 27.8556
12211 2 0.0206425 4.01311 22.39
12135 2 11.3884 6.70793 14.0546
12214 2 0.0482773 6.85548 25.186
12201 2 0.0684431 -1.68354 22.4813
12171 2 0.120686 9.33032 16.6275
12012 2 2.80049 6.756 28.0288
12025 2 5.56931 9.46264 27.9828
12128 2 8.67649 -1.84531 13.9847
12154 2 -0.0535824 0.987834 19.639
12231 2 -0.00909909 15.1594 22.4706
12139 2 5.76929 12.4543 13.8936
12046 2 8.54574 23.6159 28.0217
12032 2 2.82554 18.1863 27.9472
12140 2 11.3107 12.356 13.9168
12021 2 -0.0883207 9.70253 27.9254
12136 2 2.8006 9.55429 14.0807
12141 2 2.86052 15.3398 13.9877
12148 2 8.37444 20.9836 13.991
12138 2 8.6569 9.48791 14.056
12149 2 5.55449 23.6888 13.9654
12133 2 8.50999 3.89954 13.964
12150 2 11.2781 23.7793 13.9908
12019 2 11.255 3.88033 27.9286
451 1 1.42489 25.1774 1.08124
452 1 4.30031 25.2077 1.25443
453 1 4.00767 25.059 3.90933
454 1 1.15009 24.9116 3.91822
455 1 7.09204 25.1587 1.11875
456 1 9.83173 25.1125 1.13183
457 1 9.76557 24.9578 4.02783
458 1 6.86093 25.1068 3.91175
12329 2 -0.0826644 46.2884 8.20048
460 1 12.4088 25.1935 4.00982
461 1 1.46622 27.8281 1.07911
462 1 4.14211 28.0074 1.33777
463 1 4.01178 27.79 4.10921
464 1 1.1462 27.8059 3.86431
465 1 1.20074 30.6369 1.0637
466 1 4.26356 30.7072 1.24661
467 1 4.0983 30.5865 4.20255
468 1 1.3336 30.8013 3.80908
469 1 7.02421 27.9576 1.23395
470 1 9.76057 27.9459 1.225
471 1 9.86085 27.7852 3.86497
472 1 7.04992 27.9247 4.14307
473 1 6.83796 30.4722 1.16911
474 1 9.57187 30.5956 1.34624
475 1 9.72989 30.71 3.97774
476 1 7.01853 30.8125 4.24142
477 1 12.6298 27.7518 1.11419
478 1 12.5115 28.1281 4.19748
15341 2 13.87 29.234 10.9726
480 1 12.1015 32.2054 1.50812
481 1 1.31017 33.6751 0.897662
482 1 3.99759 33.5802 1.32121
483 1 4.15211 33.4786 3.99557
484 1 1.36697 33.6259 3.83064
12381 2 8.40105 43.4136 13.6595
486 1 1.2145 36.4588 1.13185
487 1 4.16074 36.4294 3.87114
488 1 1.48062 36.282 4.15335
489 1 6.87064 33.3259 1.19667
490 1 9.71953 33.5346 1.33932
491 1 9.85842 33.5572 4.04733
492 1 7.066 33.7194 3.99029
493 1 4.19573 36.4631 1.11478
494 1 9.95535 36.3924 1.1009
495 1 9.83166 36.2549 4.02325
496 1 7.1213 36.3855 3.97545
12309 2 -0.0702917 34.9788 8.30668
498 1 12.6169 33.5289 4.2472
499 1 12.6175 36.7263 1.27552
500 1 12.741 36.3693 3.98816
501 1 1.34427 39.398 1.09507
502 1 4.28339 39.1562 1.12706
503 1 4.22954 39.2806 3.93541
504 1 1.44606 39.2672 4.1341
505 1 1.39966 42.139 1.24465
506 1 4.29446 42.0931 0.991053
507 1 3.93543 41.9233 3.64171
508 1 1.34012 42.1102 4.15201
509 1 6.96034 39.0676 1.09384
510 1 9.55232 39.1958 1.15782
511 1 9.63058 39.3805 3.87612
512 1 6.85633 39.188 3.9884
513 1 6.85604 42.0321 0.918893
514 1 9.76791 42.0763 0.870521
515 1 9.73164 42.1646 3.92674
516 1 6.99465 42.0802 3.72091
517 1 12.5956 39.6197 1.18282
518 1 12.3718 39.2504 4.09223
519 1 12.5908 42.1104 1.01212
520 1 12.5837 42.185 3.76667
521 1 1.21846 44.9493 1.11298
522 1 4.18462 44.8754 0.98109
523 1 4.11952 44.7987 3.81842
524 1 1.29866 44.8187 3.83884
525 1 1.25577 47.5423 1.22824
526 1 4.07508 47.7666 1.17081
527 1 4.15966 47.6981 4.04826
528 1 1.36814 47.5868 4.05103
529 1 6.75243 44.8442 1.27047
530 1 9.55518 44.9323 0.923326
531 1 9.76603 44.9026 3.94538
532 1 6.88477 44.9652 4.11321
533 1 6.99258 47.7695 1.11885
534 1 9.6893 47.6627 1.00757
535 1 9.89927 47.879 4.05735
536 1 7.03442 47.9231 3.95408
537 1 12.4977 44.7831 1.16265
538 1 12.5197 44.8104 3.87887
539 1 12.5781 47.7673 0.993501
540 1 12.5576 47.5636 3.75289
541 1 1.01584 24.9972 6.8306
542 1 3.83048 25.0437 6.72534
543 1 4.281 25.1478 9.4846
544 1 1.17509 25.105 9.59197
545 1 6.68308 25.053 6.70332
546 1 9.42113 25.1422 6.86965
547 1 9.65541 25.0923 9.75206
548 1 7.04322 24.9802 9.39506
549 1 12.615 25.1803 6.76145
550 1 12.4406 25.0159 9.52295
551 1 1.34595 27.9372 6.72336
552 1 3.8611 27.774 7.05956
553 1 3.82473 27.9274 9.71213
554 1 1.19365 27.8472 9.61471
555 1 1.16588 30.9187 6.89354
556 1 3.9627 30.5099 6.93897
557 1 4.13432 30.5363 9.7528
558 1 1.2394 30.9269 9.61258
559 1 6.67834 27.827 6.63515
560 1 9.57239 27.8738 6.74214
561 1 9.71074 27.9908 9.51415
562 1 6.79235 27.9177 9.5831
563 1 6.93501 30.7389 6.92673
564 1 9.69801 30.63 6.74681
565 1 9.70524 30.7878 9.45546
566 1 6.82944 30.6895 9.54715
567 1 12.448 27.9586 6.93656
568 1 12.4479 28.012 9.76819
569 1 12.6674 30.7829 4.20551
570 1 12.4418 30.5256 6.95975
571 1 1.31708 33.6407 6.8421
572 1 4.12399 33.3875 6.86894
573 1 3.90773 33.3341 9.65506
574 1 1.12997 33.5981 9.71817
575 1 1.2357 36.2605 6.94428
576 1 3.92877 36.3047 6.91423
577 1 4.3183 36.4264 9.66911
578 1 1.43557 36.546 9.55953
579 1 7.04756 33.4901 6.80131
580 1 9.87081 33.5497 6.81861
581 1 9.67511 33.6004 9.64545
582 1 6.75653 33.5313 9.58346
583 1 6.73701 36.1921 6.73925
584 1 9.86374 36.3461 6.7373
585 1 9.77391 36.3801 9.50533
586 1 7.00092 36.3243 9.63019
587 1 12.4818 33.4996 7.16285
588 1 12.5742 33.4861 9.8454
589 1 12.6649 36.2284 6.98013
590 1 12.6521 36.6537 9.81057
591 1 1.40244 39.1809 6.83358
592 1 4.36021 39.1203 6.74454
593 1 4.23104 39.1661 9.59133
594 1 1.39348 39.1661 9.78015
595 1 1.2408 42.032 7.06171
596 1 4.18253 41.9493 6.51743
597 1 4.26224 42.0336 9.55192
598 1 1.46246 42.1662 9.78574
599 1 6.96781 39.2209 6.90841
600 1 9.93177 39.365 6.66892
601 1 9.65581 39.24 9.44284
602 1 6.95433 39.0719 9.67694
603 1 6.87967 42.1384 6.64469
604 1 9.79048 41.9966 6.73752
605 1 9.81731 42.219 9.41946
606 1 6.88292 42.0865 9.51091
607 1 12.6445 39.1188 6.5865
608 1 12.5675 39.3655 9.44357
609 1 12.6051 41.9945 6.68262
610 1 12.6986 42.0852 9.63282
611 1 1.43713 45.0048 6.78411
612 1 3.97274 44.8535 6.63368
613 1 4.13364 44.7162 9.52505
614 1 1.39327 44.7857 9.69241
615 1 1.36285 47.7195 6.86179
616 1 4.15667 47.6211 6.75506
617 1 3.97202 47.6155 9.46025
618 1 1.27845 47.5798 9.63009
619 1 6.82033 44.9633 7.01079
620 1 9.70403 44.7583 6.8725
621 1 9.84885 45.0523 9.75586
622 1 7.01595 44.9627 9.57836
623 1 6.86643 47.7474 6.6211
624 1 9.75544 47.7211 6.94863
625 1 9.76475 47.5864 9.63827
626 1 6.92158 47.6962 9.4657
627 1 12.5028 44.9524 6.62659
628 1 12.5072 44.8962 9.49664
629 1 12.5997 47.6841 6.7102
630 1 12.5691 47.673 9.56135
631 1 1.22717 25.0112 12.3139
632 1 4.11198 25.1487 12.4533
633 1 6.91722 25.2585 12.3765
634 1 9.82988 25.0321 12.6579
635 1 12.7263 25.0385 12.5024
636 1 1.30106 27.9299 12.5844
637 1 3.95392 28.0321 12.7447
638 1 1.11846 30.5321 12.4523
639 1 4.06877 30.6739 12.5677
640 1 6.79057 27.7794 12.5806
641 1 9.59666 28.0014 12.3961
642 1 7.06153 30.9037 12.4574
643 1 9.89386 30.8315 12.228
644 1 12.3936 27.9064 12.5944
645 1 12.5504 30.6345 12.4862
646 1 1.30025 33.3684 12.5356
647 1 4.18848 33.5487 12.662
648 1 1.38818 36.3308 12.4014
649 1 4.15518 36.3687 12.4834
650 1 7.03232 33.5255 12.2989
651 1 9.84625 33.6749 12.6387
652 1 6.8623 36.332 12.4138
653 1 9.75613 36.4271 12.4661
654 1 12.6054 33.5822 12.5741
655 1 12.7671 36.4875 12.7551
656 1 1.45955 39.2097 12.4917
657 1 4.19387 39.3482 12.4078
658 1 1.35655 42.0688 12.8421
659 1 4.16913 42.1026 12.3424
660 1 7.09833 39.1512 12.3731
661 1 9.75208 39.3299 12.4148
662 1 6.9298 41.8658 12.3794
663 1 9.61263 42.0123 12.3597
664 1 12.7064 39.2918 12.48
665 1 12.5923 42.2745 12.372
666 1 1.6759 44.8246 12.5294
667 1 4.34608 44.7903 12.417
668 1 1.35559 47.4515 12.4488
669 1 4.14914 47.6874 12.1332
670 1 6.97526 44.7174 12.3959
671 1 9.68009 45.0001 12.3961
672 1 7.02211 47.765 12.4283
673 1 9.70602 47.817 12.5402
674 1 12.4418 44.977 12.2242
675 1 12.4746 47.5704 12.5777
12363 2 11.0219 49.0988 10.9808
12373 2 11.243 35.1433 13.9734
12253 2 2.84735 26.4388 2.51234
12362 2 5.51593 49.1329 10.9112
12366 2 8.18684 26.4897 13.9203
12378 2 11.1955 40.7064 13.8223
12257 2 8.35821 26.3933 2.56661
12258 2 5.64359 29.2633 2.78267
89 1 12.4229 25.086 1.20001
12260 2 11.4644 29.5537 2.40649
12360 2 11.1603 43.57 11.0667
12274 2 -0.017727 40.818 2.70852
12263 2 2.6375 32.0941 2.4663
12359 2 8.31552 46.4312 10.9324
15346 2 13.9187 35.1338 11.1028
15297 2 13.8807 26.4195 8.21319
12267 2 8.2701 32.102 2.53582
12268 2 5.64616 34.9625 2.68463
12345 2 11.0266 26.5241 10.9538
12270 2 11.3874 34.8737 2.51999
12358 2 5.55929 43.3621 10.9427
12344 2 8.33424 29.3942 10.9154
12273 2 2.73251 37.945 2.60978
12357 2 2.80038 46.2125 10.9325
12343 2 5.48195 26.5016 11.0489
12341 2 -0.150958 26.5561 11.0506
12277 2 8.37517 37.7538 2.52689
12278 2 5.54295 40.6867 2.62271
15327 2 13.9817 43.5845 8.14621
12280 2 11.1798 40.7792 2.57564
12355 2 11.156 38.0656 10.9409
12374 2 2.85302 37.8052 13.9937
12283 2 2.76345 43.5702 2.47852
12354 2 8.44974 40.6142 10.9021
12384 2 2.63374 49.1149 13.8753
12379 2 2.78551 43.4976 13.9961
12287 2 8.48057 43.6024 2.43727
12288 2 5.54259 46.3553 2.51595
12316 2 -0.00269574 37.7588 5.41314
12290 2 11.2573 46.3581 2.33957
12353 2 5.58156 37.8597 10.9481
12292 2 2.69306 49.1269 2.57205
12382 2 5.43247 46.3135 13.6312
12294 2 8.47161 49.1516 2.29317
6554 1 12.3279 30.6768 9.80142
855 1 6.85953 36.3941 1.20121
12297 2 2.67966 29.2363 5.39457
12298 2 2.62577 26.391 8.28828
12351 2 -0.0435799 37.6691 11.0434
12300 2 5.46321 26.2593 5.46191
12301 2 8.35438 29.3272 5.34371
12302 2 8.05929 26.6012 8.12893
12303 2 5.41429 29.1865 8.26409
12304 2 11.1635 26.6449 5.32801
12305 2 10.9972 29.289 8.23012
12352 2 2.73062 40.6424 11.1397
12307 2 2.72822 34.904 5.49447
12308 2 2.78143 32.0587 8.22988
12264 2 -0.154362 35.0058 2.83513
12310 2 5.53601 32.028 5.46899