ITEM: TIMESTEP
100000
ITEM: NUMBER OF ATOMS
18000
ITEM: BOX BOUNDS xy xz yz pp pp pp
-1.3462723703811683e-01 2.8028627237038673e+01 0.0000000000000000e+00
-1.6020327632455864e+00 3.3633003276323217e+02 0.0000000000000000e+00
-1.3867189683424738e-01 2.8032671896834049e+01 0.0000000000000000e+00
ITEM: ATOMS id type q mass x y z
126 1 -1.1104 15.9994 1.20337 -1.2231 1.05543
14 3 -1.1104 15.9994 9.72802 10.6444 1.05238
39 3 -1.1104 15.9994 9.63963 -0.856597 1.29902
4 1 -1.1104 15.9994 6.94098 21.9398 12.3742
5 1 -1.1104 15.9994 4.26498 21.7605 12.4331
6 1 -1.1104 15.9994 1.28031 22.0586 12.4186
9612 2 2.2208 232.038 -0.0166079 0.754182 13.7765
8 2 2.2208 232.038 5.51473 0.60211 2.55645
9 1 -1.1104 15.9994 12.4277 19.0648 12.3918
10 2 2.2208 232.038 11.106 0.464503 2.77048
217 1 -1.1104 15.9994 2.50452 -1.61401 6.45569
324 1 -1.1104 15.9994 13.4119 6.38756 13.6931
13 2 2.2208 232.038 2.57066 3.23061 2.48472
893 1 -1.1104 15.9994 1.76533 22.5482 8.4456
8962 2 2.2208 232.038 -0.0895224 3.16105 5.46911
16 1 -1.1104 15.9994 9.67321 19.1571 12.4042
17 2 2.2208 232.038 8.28528 3.09697 2.75404
18 2 2.2208 232.038 5.15797 6.26037 2.67739
19 1 -1.1104 15.9994 6.9349 19.1518 12.3338
20 2 2.2208 232.038 11.7843 6.12701 2.43406
21 4 2.2208 232.038 2.65704 17.7287 2.85881
61 1 -1.1104 15.9994 13.3407 8.91674 11.2005
23 2 2.2208 232.038 2.57949 9.01966 2.65318
24 4 2.2208 232.038 8.51785 6.5229 2.18488
342 2 2.2208 232.038 2.7255 3.2423 13.8218
26 1 -1.1104 15.9994 9.63202 16.0582 12.4812
27 2 2.2208 232.038 8.21685 9.72821 2.4886
28 2 2.2208 232.038 5.48153 12.0852 2.62309
29 1 -1.1104 15.9994 4.08054 16.1391 12.4707
30 2 2.2208 232.038 11.2451 12.0494 2.57821
351 2 2.2208 232.038 11.069 11.547 13.6966
32 1 -1.1104 15.9994 3.96829 19.1548 12.2291
33 2 2.2208 232.038 2.59643 14.6643 2.5115
34 3 -1.1104 15.9994 4.35572 4.79777 12.5632
219 1 -1.1104 15.9994 4.45992 -1.39959 8.09446
94 2 2.2208 232.038 10.9912 6.71181 13.8754
37 2 2.2208 232.038 8.35177 14.8298 2.56954
38 2 2.2208 232.038 5.76048 17.8094 2.33714
648 1 -1.1104 15.9994 8.82926 4.38552 0.986739
40 2 2.2208 232.038 11.2615 17.4863 2.62157
41 1 -1.1104 15.9994 1.15403 19.056 12.6258
42 2 2.2208 232.038 2.85227 23.5055 0.0881184
43 2 2.2208 232.038 2.84933 20.9224 2.49758
44 1 -1.1104 15.9994 4.07728 16.391 9.59026
330 1 -1.1104 15.9994 6.56324 10.5897 12.4623
46 1 -1.1104 15.9994 1.0884 16.2426 12.3582
47 2 2.2208 232.038 8.46357 20.6714 2.70705
48 2 2.2208 232.038 5.59708 23.4287 2.46445
49 1 -1.1104 15.9994 12.4293 13.5066 12.7664
50 2 2.2208 232.038 11.3625 22.8696 2.79347
8951 4 2.2208 232.038 0.0340861 20.2611 8.2211
52 2 2.2208 232.038 2.66139 0.62263 4.94073
22 2 2.2208 232.038 2.60594 11.8992 0.18566
54 4 2.2208 232.038 2.74472 0.136567 8.10669
8941 2 2.2208 232.038 -0.173263 3.30495 10.8184
56 2 2.2208 232.038 8.38755 0.506649 5.4352
8968 2 2.2208 232.038 0.101045 23.4713 2.59042
58 2 2.2208 232.038 5.925 0.464627 8.25753
349 2 2.2208 232.038 8.15587 9.1542 13.7881
60 2 2.2208 232.038 11.0762 0.562752 8.33916
340 2 2.2208 232.038 5.46331 0.349279 13.8774
62 2 2.2208 232.038 2.48093 6.0796 5.07659
63 2 2.2208 232.038 2.47179 3.65025 8.44982
64 3 -1.1104 15.9994 12.563 1.87749 6.89831
65 2 2.2208 232.038 5.05264 3.05137 5.77896
66 2 2.2208 232.038 8.19555 6.22612 5.54799
67 2 2.2208 232.038 8.43573 3.16955 8.30361
68 2 2.2208 232.038 5.65624 6.1194 8.05805
69 2 2.2208 232.038 11.1462 3.26884 5.67925
70 2 2.2208 232.038 10.7967 5.86488 8.2184
801 1 -1.1104 15.9994 2.83279 23.3636 2.45475
72 2 2.2208 232.038 2.42468 12.1327 5.54855
73 2 2.2208 232.038 2.49396 6.78236 8.28089
74 3 -1.1104 15.9994 4.33253 21.7088 3.95066
75 2 2.2208 232.038 5.2501 9.38217 5.41644
76 2 2.2208 232.038 8.19208 11.9754 5.43666
77 2 2.2208 232.038 7.69765 9.07299 8.12511
78 2 2.2208 232.038 5.45549 12.1394 8.21768
79 2 2.2208 232.038 11.1012 9.0165 4.73306
80 2 2.2208 232.038 11.1489 12.3397 8.21454
81 4 2.2208 232.038 2.46148 9.78563 8.33676
82 2 2.2208 232.038 2.6432 18.0227 6.12968
83 2 2.2208 232.038 2.7042 14.9524 8.23489
329 1 -1.1104 15.9994 6.8005 13.5247 12.3106
85 2 2.2208 232.038 5.3705 14.8819 5.43953
86 2 2.2208 232.038 8.38019 17.7565 5.52677
87 2 2.2208 232.038 8.21432 14.8131 8.29764
88 2 2.2208 232.038 5.61594 17.8164 8.31207
89 2 2.2208 232.038 11.1949 14.8237 5.27504
90 2 2.2208 232.038 11.1893 17.6528 8.21153
91 3 -1.1104 15.9994 9.9362 21.8465 9.69256
92 2 2.2208 232.038 2.70788 23.5455 5.292
93 2 2.2208 232.038 3.21898 20.7791 8.19936
331 1 -1.1104 15.9994 9.37018 10.3539 12.3457
95 2 2.2208 232.038 5.64059 20.5412 5.38678
96 2 2.2208 232.038 8.51534 23.3875 5.42078
97 2 2.2208 232.038 8.44573 20.5876 8.21867
98 2 2.2208 232.038 5.53907 23.4583 8.2235
99 2 2.2208 232.038 11.3332 20.4977 5.61013
100 2 2.2208 232.038 11.4166 23.2579 8.41551
101 3 -1.1104 15.9994 9.69952 13.3991 4.00201
102 2 2.2208 232.038 2.52921 0.660148 11.2693
8273 3 -1.1104 15.9994 9.57034 -0.818516 9.65317
104 2 2.2208 232.038 8.38567 0.511762 11.3528
347 2 2.2208 232.038 2.46071 9.15379 13.8654
106 4 2.2208 232.038 11.0828 9.16018 7.79686
107 2 2.2208 232.038 2.63269 6.2036 11.4691
108 2 2.2208 232.038 5.33006 3.36351 10.8911
109 2 2.2208 232.038 8.10239 6.39369 10.7879
110 2 2.2208 232.038 11.3047 3.39558 10.7054
111 1 -1.1104 15.9994 12.6843 21.7635 12.4481
112 2 2.2208 232.038 2.50772 12.0842 11.1664
113 2 2.2208 232.038 5.22902 9.22808 11.0526
114 2 2.2208 232.038 8.2414 11.9728 10.8959
115 2 2.2208 232.038 11.0979 8.87424 11.021
116 1 -1.1104 15.9994 9.77177 21.8935 12.3362
117 2 2.2208 232.038 2.29323 17.9337 10.8884
118 2 2.2208 232.038 5.37782 14.8312 11.0314
119 2 2.2208 232.038 8.34948 17.7781 10.9707
120 2 2.2208 232.038 11.0905 14.8038 10.8944
485 1 -1.1104 15.9994 3.938 13.4951 12.4796
122 2 2.2208 232.038 2.65218 23.5336 10.8967
123 2 2.2208 232.038 5.54898 20.5694 11.0406
124 2 2.2208 232.038 8.38138 23.3805 10.9515
125 2 2.2208 232.038 11.2131 20.5237 11.011
490 1 -1.1104 15.9994 11.4564 8.9477 13.3516
127 1 -1.1104 15.9994 4.0323 -0.77609 1.19141
128 1 -1.1104 15.9994 1.45083 -0.894808 3.67059
129 1 -1.1104 15.9994 4.24997 -0.96237 4.12582
130 1 -1.1104 15.9994 1.28288 1.80835 1.09487
131 1 -1.1104 15.9994 4.04523 2.0103 1.13953
132 1 -1.1104 15.9994 1.19624 1.92695 3.83729
133 1 -1.1104 15.9994 4.15795 1.96305 3.87059
134 1 -1.1104 15.9994 6.7712 -0.8295 1.28512
135 1 -1.1104 15.9994 12.4828 -0.954644 1.31597
136 1 -1.1104 15.9994 6.95208 -0.820452 4.02153
137 1 -1.1104 15.9994 9.804 -0.984426 4.06256
138 1 -1.1104 15.9994 6.78653 2.08354 1.21802
139 1 -1.1104 15.9994 9.68396 1.84485 1.18581
140 1 -1.1104 15.9994 6.70711 2.21932 4.03336
141 1 -1.1104 15.9994 9.67603 1.88132 4.07005
216 1 -1.1104 15.9994 0.596862 -1.56698 8.29682
143 1 -1.1104 15.9994 12.5844 -0.920946 4.07283
144 1 -1.1104 15.9994 12.4315 1.82635 1.28614
145 1 -1.1104 15.9994 12.6224 1.71945 4.2015
146 1 -1.1104 15.9994 1.25894 4.77452 1.18329
147 1 -1.1104 15.9994 4.04141 4.76779 1.09949
148 1 -1.1104 15.9994 1.10277 4.74472 4.12513
149 1 -1.1104 15.9994 3.92079 4.74474 3.93787
150 1 -1.1104 15.9994 1.15032 7.65012 1.19803
151 1 -1.1104 15.9994 3.95349 7.54485 1.32635
152 1 -1.1104 15.9994 1.1975 7.58373 3.7945
153 1 -1.1104 15.9994 3.92109 7.67849 4.19482
154 1 -1.1104 15.9994 7.16836 5.19967 3.55106
155 1 -1.1104 15.9994 8.33025 8.26068 0.679293
156 1 -1.1104 15.9994 6.56138 7.73685 6.19133
157 1 -1.1104 15.9994 9.83522 5.07326 3.51561
803 1 -1.1104 15.9994 1.45052 21.8933 4.19942
159 1 -1.1104 15.9994 6.59145 6.14791 0.858646
160 1 -1.1104 15.9994 10.2606 6.28008 0.498678
161 1 -1.1104 15.9994 8.69496 7.96082 4.06777
162 1 -1.1104 15.9994 12.6355 4.54523 1.05061
163 1 -1.1104 15.9994 12.5559 4.56268 3.90921
164 1 -1.1104 15.9994 12.9501 7.62098 1.0776
165 1 -1.1104 15.9994 12.7345 7.59329 3.88788
166 1 -1.1104 15.9994 1.1931 10.7316 1.44532
167 1 -1.1104 15.9994 3.99455 10.2756 1.00416
168 1 -1.1104 15.9994 1.31723 10.4661 4.13254
169 1 -1.1104 15.9994 4.12118 10.5363 3.8619
170 1 -1.1104 15.9994 1.08386 13.3909 1.18722
171 1 -1.1104 15.9994 4.07535 13.3474 1.28331
172 1 -1.1104 15.9994 1.17898 13.2932 3.9624
173 1 -1.1104 15.9994 3.98634 13.2318 3.99754
174 1 -1.1104 15.9994 6.80913 10.7778 1.07605
175 1 -1.1104 15.9994 10.4658 8.1606 2.39121
176 1 -1.1104 15.9994 6.84777 10.7334 4.05169
177 1 -1.1104 15.9994 6.50258 8.16303 2.74701
178 1 -1.1104 15.9994 7.01591 13.3504 1.23863
179 1 -1.1104 15.9994 9.90214 13.5057 1.1124
180 1 -1.1104 15.9994 6.9062 13.4657 4.044
181 1 -1.1104 15.9994 9.79288 10.7035 3.81117
182 1 -1.1104 15.9994 12.5217 10.4 1.16617
183 1 -1.1104 15.9994 12.6807 10.4192 3.76588
184 1 -1.1104 15.9994 12.6243 13.2601 1.19384
185 1 -1.1104 15.9994 12.5123 13.3537 3.96803
186 1 -1.1104 15.9994 1.00705 16.148 3.58494
187 1 -1.1104 15.9994 1.53329 16.5064 1.23846
188 1 -1.1104 15.9994 3.87647 13.3176 6.86378
189 1 -1.1104 15.9994 4.19486 16.3281 1.65023
190 1 -1.1104 15.9994 1.26729 19.3282 1.54826
191 1 -1.1104 15.9994 3.97844 19.0296 1.46236
328 1 -1.1104 15.9994 1.12275 13.3348 12.5911
193 1 -1.1104 15.9994 3.57823 16.2215 4.23698
194 1 -1.1104 15.9994 7.27553 16.2531 1.23516
195 1 -1.1104 15.9994 9.99077 16.349 1.00034
196 1 -1.1104 15.9994 6.64551 16.3435 3.8605
197 1 -1.1104 15.9994 9.78922 16.1583 3.9771
198 1 -1.1104 15.9994 7.05969 19.2388 1.12622
199 1 -1.1104 15.9994 9.72922 19.0613 1.30862
200 1 -1.1104 15.9994 6.98479 19.305 3.9736
201 1 -1.1104 15.9994 9.71047 19.0164 3.91718
202 1 -1.1104 15.9994 12.7606 16.1273 1.03915
203 1 -1.1104 15.9994 12.6071 16.1278 3.83826
204 1 -1.1104 15.9994 12.617 19.1457 1.24544
205 1 -1.1104 15.9994 12.4381 18.9349 4.21132
206 1 -1.1104 15.9994 1.36286 21.9039 0.844604
207 1 -1.1104 15.9994 4.42617 21.8414 1.0018
208 1 -1.1104 15.9994 1.25304 18.9824 4.10585
209 1 -1.1104 15.9994 4.11016 18.9408 4.12866
210 1 -1.1104 15.9994 7.07835 22.0676 1.13196
211 1 -1.1104 15.9994 9.75628 21.8757 1.19265
212 1 -1.1104 15.9994 7.01131 22.0998 3.98715
213 1 -1.1104 15.9994 9.91474 21.8262 4.2073
214 1 -1.1104 15.9994 12.531 21.8069 1.29629
215 1 -1.1104 15.9994 12.7997 21.8744 4.19008
333 1 -1.1104 15.9994 11.7311 11.2601 11.5552
36 2 2.2208 232.038 8.46499 17.6942 0.000874138
354 2 2.2208 232.038 7.91617 14.9111 13.7192
84 2 2.2208 232.038 11.2588 23.3993 13.8533
220 1 -1.1104 15.9994 1.05741 0.596244 6.64219
221 1 -1.1104 15.9994 4.29813 0.764296 6.51382
9005 2 2.2208 232.038 13.7687 11.9097 5.39694
223 1 -1.1104 15.9994 4.2933 0.993336 9.77388
224 1 -1.1104 15.9994 6.94238 -0.987366 6.73791
225 1 -1.1104 15.9994 9.63961 -0.966047 6.89611
226 1 -1.1104 15.9994 6.87026 -1.03445 9.7929
227 1 -1.1104 15.9994 12.4259 -1.02694 9.69126
228 1 -1.1104 15.9994 6.81129 1.7976 6.6865
229 1 -1.1104 15.9994 9.62737 1.68252 6.87392
230 1 -1.1104 15.9994 7.11641 1.83813 9.69723
231 1 -1.1104 15.9994 9.76353 1.79542 9.95861
232 1 -1.1104 15.9994 12.5179 -0.885444 6.88296
465 1 -1.1104 15.9994 2.46094 0.41419 13.8769
234 1 -1.1104 15.9994 11.0878 3.51616 8.30485
235 1 -1.1104 15.9994 12.6859 1.76455 9.76956
222 1 -1.1104 15.9994 0.133505 0.544477 10.7268
237 1 -1.1104 15.9994 2.6299 2.82913 6.1752
238 1 -1.1104 15.9994 1.61251 1.59513 9.15257
239 1 -1.1104 15.9994 4.71924 2.99943 8.23122
240 1 -1.1104 15.9994 1.15106 5.31309 7.07418
241 1 -1.1104 15.9994 3.78355 5.2746 6.87404
242 1 -1.1104 15.9994 1.0668 5.47032 9.7218
243 1 -1.1104 15.9994 3.90108 5.47421 9.58529
244 1 -1.1104 15.9994 6.50418 4.73672 6.29639
245 1 -1.1104 15.9994 9.32288 4.4521 6.48328
246 1 -1.1104 15.9994 6.78317 4.65317 9.54667
247 1 -1.1104 15.9994 9.5053 4.73337 9.86068
248 1 -1.1104 15.9994 4.15149 8.11375 7.4805
249 1 -1.1104 15.9994 9.24882 9.85566 6.59919
250 1 -1.1104 15.9994 6.39497 7.7828 9.51531
251 1 -1.1104 15.9994 8.20528 6.49389 7.8794
252 1 -1.1104 15.9994 12.5563 5.08606 6.6214
253 1 -1.1104 15.9994 12.9275 4.96073 9.62428
254 1 -1.1104 15.9994 10.2975 7.40886 6.38917
255 1 -1.1104 15.9994 12.1313 7.62715 9.03818
256 1 -1.1104 15.9994 0.93031 10.7013 6.75698
257 1 -1.1104 15.9994 1.69519 7.82962 6.35926
258 1 -1.1104 15.9994 0.780266 8.14631 8.96396
259 1 -1.1104 15.9994 3.39882 8.17905 9.94646
260 1 -1.1104 15.9994 1.19942 13.5584 6.81254
261 1 -1.1104 15.9994 3.82135 10.8154 6.79884
262 1 -1.1104 15.9994 0.946087 10.8186 9.7577
263 1 -1.1104 15.9994 3.91462 10.8291 9.64128
264 1 -1.1104 15.9994 6.60117 10.6187 6.97404
265 1 -1.1104 15.9994 11.8025 10.9548 6.326
266 1 -1.1104 15.9994 6.68817 10.5809 9.6527
267 1 -1.1104 15.9994 9.5401 8.0549 9.35282
268 1 -1.1104 15.9994 6.77454 13.3468 6.82689
269 1 -1.1104 15.9994 9.66619 13.2184 6.7789
270 1 -1.1104 15.9994 6.90935 13.3522 9.57462
271 1 -1.1104 15.9994 9.66052 10.6911 9.05695
272 1 -1.1104 15.9994 12.7997 8.27694 6.50085
273 1 -1.1104 15.9994 12.5983 10.4564 9.13831
274 1 -1.1104 15.9994 12.6267 13.6249 6.81705
275 1 -1.1104 15.9994 12.4207 13.2729 9.895
276 1 -1.1104 15.9994 1.34297 16.2092 6.7386
277 1 -1.1104 15.9994 4.12148 16.1596 6.85237
278 1 -1.1104 15.9994 1.29001 13.3459 9.6887
279 1 -1.1104 15.9994 4.11701 13.5766 9.55674
280 1 -1.1104 15.9994 1.8835 18.3628 8.33538
281 1 -1.1104 15.9994 4.42437 19.1486 6.9494
282 1 -1.1104 15.9994 1.17787 15.9937 9.65587
283 1 -1.1104 15.9994 4.26976 19.2513 9.50473
284 1 -1.1104 15.9994 6.91423 16.2175 6.73898
285 1 -1.1104 15.9994 9.67244 16.1583 6.81597
286 1 -1.1104 15.9994 6.90591 16.2862 9.65606
287 1 -1.1104 15.9994 9.75253 13.3887 9.72073
288 1 -1.1104 15.9994 7.10033 19.1171 6.80499
289 1 -1.1104 15.9994 9.9304 19.073 6.82415
290 1 -1.1104 15.9994 6.98362 19.2654 9.57561
291 1 -1.1104 15.9994 9.7021 16.1575 9.54394
292 1 -1.1104 15.9994 12.4253 16.3451 6.70908
293 1 -1.1104 15.9994 12.6065 16.1667 9.71862
294 1 -1.1104 15.9994 12.5782 19.1781 6.92053
295 1 -1.1104 15.9994 12.5655 18.8959 9.72841
296 1 -1.1104 15.9994 1.79741 20.2684 6.50782
297 1 -1.1104 15.9994 4.30379 22.1114 6.69023
298 1 -1.1104 15.9994 1.65871 20.3663 9.92726
299 1 -1.1104 15.9994 4.33933 22.0983 9.69882
300 1 -1.1104 15.9994 7.01536 22.0407 6.87994
301 1 -1.1104 15.9994 9.86018 21.9426 6.95999
302 1 -1.1104 15.9994 7.04116 21.7721 9.59172
303 1 -1.1104 15.9994 9.71835 19.0881 9.49676
304 1 -1.1104 15.9994 12.9379 22.0359 7.0182
305 1 -1.1104 15.9994 12.794 21.8972 9.76085
332 1 -1.1104 15.9994 9.75739 13.2177 12.7718
307 1 -1.1104 15.9994 4.22216 -0.82639 12.1499
308 1 -1.1104 15.9994 1.06879 2.25817 12.3816
309 1 -1.1104 15.9994 4.11437 2.02063 12.4997
310 1 -1.1104 15.9994 7.05899 -0.988052 12.3315
311 1 -1.1104 15.9994 9.72203 -1.2067 12.6677
312 1 -1.1104 15.9994 6.82183 2.05094 12.2901
313 1 -1.1104 15.9994 11.442 1.55276 12.1998
314 1 -1.1104 15.9994 12.6291 -1.11493 12.6057
315 1 -1.1104 15.9994 12.6746 3.99384 12.4054
316 1 -1.1104 15.9994 2.56566 3.57276 10.7203
344 2 2.2208 232.038 7.88735 3.44955 13.637
318 1 -1.1104 15.9994 1.15679 7.74833 12.2015
319 1 -1.1104 15.9994 3.95816 7.67684 12.5646
320 1 -1.1104 15.9994 6.95826 5.14702 12.4238
321 1 -1.1104 15.9994 9.84084 4.30168 12.9371
322 1 -1.1104 15.9994 6.69932 7.97328 12.2719
323 1 -1.1104 15.9994 9.29045 7.54947 12.4248
218 1 -1.1104 15.9994 2.51382 -1.3686 9.9665
325 1 -1.1104 15.9994 11.5762 6.64937 11.6102
326 1 -1.1104 15.9994 1.06324 10.5813 12.4682
327 1 -1.1104 15.9994 3.64964 10.715 12.5151
15 1 -1.1104 15.9994 12.3141 16.196 12.6637
499 1 -1.1104 15.9994 6.91144 16.5523 12.3863
472 1 -1.1104 15.9994 1.64914 5.19268 13.2823
336 2 2.2208 232.038 5.49247 6.41266 13.9251
236 1 -1.1104 15.9994 -0.0417005 3.03288 8.21187
469 1 -1.1104 15.9994 9.19145 1.45508 13.6976
365 2 2.2208 232.038 5.33244 11.9467 13.8206
11 2 2.2208 232.038 5.27788 17.7269 13.676
360 2 2.2208 232.038 5.59012 23.4646 13.7689
45 2 2.2208 232.038 8.74135 23.3294 -0.0973172
8996 2 2.2208 232.038 13.8146 3.31968 8.32121
357 2 2.2208 232.038 2.77385 20.7129 13.7901
352 2 2.2208 232.038 2.57693 14.8221 13.8516
9045 2 2.2208 232.038 13.947 11.6996 10.9574
9229 1 -1.1104 15.9994 -0.0602272 18.5039 10.2979
9040 2 2.2208 232.038 13.7806 6.31484 11.3061
682 2 2.2208 232.038 11.1824 8.98942 -0.0467411
8975 2 2.2208 232.038 -0.179229 9.14574 -0.249913
359 2 2.2208 232.038 8.21783 20.594 13.7336
681 2 2.2208 232.038 2.94327 17.5885 27.6974
338 4 2.2208 232.038 2.70845 11.6151 25.2888
339 3 -1.1104 15.9994 1.14868 4.66796 26.4206
667 1 -1.1104 15.9994 7.46669 16.3647 26.4019
678 1 -1.1104 15.9994 3.75658 21.8047 23.3661
677 1 -1.1104 15.9994 1.15115 21.7832 23.6976
684 2 2.2208 232.038 11.4375 20.4823 28.0049
158 1 -1.1104 15.9994 6.78184 7.49311 26.5404
676 1 -1.1104 15.9994 12.8118 19.007 26.6526
346 3 -1.1104 15.9994 1.77505 10.2025 26.912
356 2 2.2208 232.038 11.0835 3.3567 27.7863
348 3 -1.1104 15.9994 9.6452 10.4064 23.7245
71 2 2.2208 232.038 8.44847 12.0329 28.0754
35 2 2.2208 232.038 5.46386 14.586 27.8828
675 1 -1.1104 15.9994 12.6816 19.0274 23.7098
660 1 -1.1104 15.9994 3.05431 15.0059 27.3994
353 3 -1.1104 15.9994 7.44375 19.2306 26.6013
341 2 2.2208 232.038 14.0024 11.8889 22.3462
674 1 -1.1104 15.9994 12.9514 16.2056 26.5211
673 1 -1.1104 15.9994 12.5538 16.2223 23.6974
672 1 -1.1104 15.9994 10.1261 18.8545 26.7887
358 3 -1.1104 15.9994 9.69504 4.75604 20.8177
31 3 -1.1104 15.9994 4.16131 16.3266 15.2537
462 1 -1.1104 15.9994 0.923216 -1.03603 15.3425
680 1 -1.1104 15.9994 4.42023 22.082 26.2752
652 1 -1.1104 15.9994 9.85629 13.2024 26.4921
363 2 2.2208 232.038 2.50593 0.556714 16.5159
651 1 -1.1104 15.9994 7.17356 13.309 26.7241
679 1 -1.1104 15.9994 1.71325 21.5976 26.3009
317 1 -1.1104 15.9994 3.82481 4.88393 15.1973
367 2 2.2208 232.038 8.36925 0.887567 16.3393
12 2 2.2208 232.038 2.60594 6.12852 28.0216
369 2 2.2208 232.038 5.34253 0.757813 19.5074
654 1 -1.1104 15.9994 12.692 10.3431 26.5793
371 2 2.2208 232.038 11.0422 0.68179 19.3214
666 1 -1.1104 15.9994 9.74818 16.4263 23.6051
373 2 2.2208 232.038 2.73464 6.31643 16.702
374 2 2.2208 232.038 2.6232 3.45226 19.3838
650 1 -1.1104 15.9994 9.721 13.2499 23.7336
376 2 2.2208 232.038 5.41794 3.43359 16.6349
377 2 2.2208 232.038 8.35268 6.1571 16.6576
378 2 2.2208 232.038 8.11983 3.47641 19.4929
379 2 2.2208 232.038 5.47623 6.34718 19.4958
380 2 2.2208 232.038 11.0257 3.59477 17.1624
381 2 2.2208 232.038 11.0816 6.36808 19.6082
382 3 -1.1104 15.9994 4.14639 -0.742228 15.509
383 2 2.2208 232.038 2.5831 11.8303 16.7881
384 2 2.2208 232.038 2.65839 9.17681 19.4922
337 2 2.2208 232.038 13.8925 0.393173 27.9112
386 2 2.2208 232.038 5.51851 9.224 16.6889
387 2 2.2208 232.038 8.21657 12.0087 16.6734
388 2 2.2208 232.038 8.35337 9.12275 19.4744
389 2 2.2208 232.038 5.45003 11.9783 19.37
390 2 2.2208 232.038 11.0829 9.24907 16.7694
391 2 2.2208 232.038 11.1872 11.7845 19.6824
659 1 -1.1104 15.9994 0.863506 15.7596 26.3197
393 2 2.2208 232.038 2.65483 17.6712 16.5141
394 2 2.2208 232.038 2.58136 14.8259 19.398
395 4 2.2208 232.038 8.67248 17.7569 25.1198
396 2 2.2208 232.038 5.38859 14.8109 16.6392
397 2 2.2208 232.038 8.27029 17.6482 16.55
398 2 2.2208 232.038 8.22471 14.8336 19.3359
399 2 2.2208 232.038 5.41456 17.6295 19.3596
400 2 2.2208 232.038 11.2212 14.771 17.1766
401 2 2.2208 232.038 11.2988 17.6906 19.5261
665 1 -1.1104 15.9994 7.19669 16.2071 23.7127
403 2 2.2208 232.038 2.74674 23.3943 16.7357
404 2 2.2208 232.038 2.69053 20.4715 19.4562
653 1 -1.1104 15.9994 12.4603 10.3177 23.7719
406 2 2.2208 232.038 5.40449 20.5026 16.5286
407 2 2.2208 232.038 8.43656 23.4052 16.5988
408 2 2.2208 232.038 8.34952 20.4991 19.3496
409 2 2.2208 232.038 5.69931 23.2098 19.5478
410 2 2.2208 232.038 11.1871 20.5228 16.7259
411 2 2.2208 232.038 11.5531 23.2105 19.6174
350 2 2.2208 232.038 11.5041 14.7869 27.8439
413 2 2.2208 232.038 2.50836 0.570689 22.2452
671 1 -1.1104 15.9994 5.15079 17.0271 27.4155
664 1 -1.1104 15.9994 4.50934 19.3796 26.3573
493 1 -1.1104 15.9994 6.7116 16.295 15.1542
417 2 2.2208 232.038 8.17325 0.429744 22.3608
655 1 -1.1104 15.9994 12.7214 13.1619 23.7614
419 2 2.2208 232.038 5.40955 0.534304 25.1979
670 1 -1.1104 15.9994 9.87092 19.2959 24.0427
421 2 2.2208 232.038 11.0444 0.50489 25.0794
422 3 -1.1104 15.9994 9.7405 19.1821 15.4059
423 2 2.2208 232.038 2.60162 6.24466 22.2037
424 2 2.2208 232.038 2.60742 3.3281 25.0922
425 4 2.2208 232.038 2.87354 23.0465 24.9731
426 2 2.2208 232.038 5.4974 3.46434 22.219
427 2 2.2208 232.038 8.29455 6.18039 22.2641
428 2 2.2208 232.038 8.34644 3.14568 25.0106
429 2 2.2208 232.038 5.37644 6.21349 25.1965
430 2 2.2208 232.038 11.0136 3.27018 22.2908
431 2 2.2208 232.038 11.084 6.09109 24.9655
432 1 -1.1104 15.9994 12.8156 21.7864 26.694
433 2 2.2208 232.038 2.66958 11.9795 22.0756
434 2 2.2208 232.038 2.49535 8.53454 25.1976
435 1 -1.1104 15.9994 12.8332 21.8516 23.8619
436 2 2.2208 232.038 5.46828 9.05671 22.1311
437 2 2.2208 232.038 8.32421 11.7652 22.241
438 2 2.2208 232.038 8.40346 9.01548 25.1082
439 2 2.2208 232.038 5.82538 11.9503 25.278
440 2 2.2208 232.038 11.0276 8.98045 22.3604
441 2 2.2208 232.038 11.2262 11.8422 25.1518
442 1 -1.1104 15.9994 10.0008 21.9126 26.7136
443 2 2.2208 232.038 2.66015 17.6227 22.2136
444 2 2.2208 232.038 2.68112 15.0408 25.0487
445 1 -1.1104 15.9994 7.27894 22.1603 26.5542
446 2 2.2208 232.038 5.58713 14.6835 22.283
447 2 2.2208 232.038 8.34833 17.4343 22.0229
448 2 2.2208 232.038 8.4307 14.523 25.0698
449 2 2.2208 232.038 5.38141 17.2539 25.145
450 2 2.2208 232.038 11.2313 14.7685 22.1914
451 2 2.2208 232.038 11.7565 17.7383 25.1891
452 1 -1.1104 15.9994 10.0631 22.1164 23.9095
453 2 2.2208 232.038 2.61114 23.2186 21.8726
454 2 2.2208 232.038 2.84129 19.9234 25.0626
455 1 -1.1104 15.9994 6.761 21.7268 23.9473
456 2 2.2208 232.038 5.5063 20.4476 22.3055
457 3 -1.1104 15.9994 4.05465 13.2795 15.263
458 2 2.2208 232.038 8.58484 20.9486 25.0593
459 2 2.2208 232.038 6.08101 23.5819 25.1109
460 2 2.2208 232.038 11.2806 20.5936 22.3344
461 2 2.2208 232.038 11.447 23.3914 24.9903
372 4 2.2208 232.038 11.2583 3.08558 14.0601
669 1 -1.1104 15.9994 7.29232 18.7993 23.8396
464 1 -1.1104 15.9994 1.0532 2.40096 15.2
661 1 -1.1104 15.9994 3.08259 17.379 25.5056
466 1 -1.1104 15.9994 6.96527 -0.746921 15.3575
467 1 -1.1104 15.9994 9.69388 -1.12952 15.4031
468 1 -1.1104 15.9994 6.6803 2.08224 15.1766
656 1 -1.1104 15.9994 12.7206 13.2007 26.5014
470 1 -1.1104 15.9994 12.4962 -1.19433 15.4371
658 1 -1.1104 15.9994 4.07758 16.1613 23.4278
663 1 -1.1104 15.9994 1.30238 18.8051 26.6717
473 1 -1.1104 15.9994 4.04187 2.13734 15.3236
474 1 -1.1104 15.9994 1.17107 7.34512 15.3598
475 1 -1.1104 15.9994 3.97578 7.75078 15.3077
476 1 -1.1104 15.9994 6.8038 4.94213 15.2578
477 1 -1.1104 15.9994 10.5865 5.37355 15.6105
478 1 -1.1104 15.9994 6.82773 7.61922 15.2243
479 1 -1.1104 15.9994 9.65794 7.89383 15.3993
480 1 -1.1104 15.9994 12.9678 3.85823 15.3686
481 1 -1.1104 15.9994 12.5968 7.81587 15.7401
482 1 -1.1104 15.9994 1.10493 10.4558 15.364
483 1 -1.1104 15.9994 3.88939 10.5331 15.1692
484 1 -1.1104 15.9994 1.26523 13.3478 15.3496
662 1 -1.1104 15.9994 4.25237 18.9785 23.6065
486 1 -1.1104 15.9994 6.7094 10.6317 15.1848
487 1 -1.1104 15.9994 9.60032 10.6977 15.2316
488 1 -1.1104 15.9994 6.73663 13.5492 15.1555
489 1 -1.1104 15.9994 9.70628 13.5279 15.4243
9301 2 2.2208 232.038 13.8226 0.550414 16.4568
657 1 -1.1104 15.9994 1.273 16.0273 23.4504
492 1 -1.1104 15.9994 1.2541 16.3009 15.1099
491 1 -1.1104 15.9994 12.5975 10.8059 15.2213
494 1 -1.1104 15.9994 1.28414 19.2306 15.2565
495 1 -1.1104 15.9994 4.06726 19.2464 15.1604
496 1 -1.1104 15.9994 9.50098 16.4442 14.8399
497 1 -1.1104 15.9994 11.9486 16.3937 15.3161
498 1 -1.1104 15.9994 6.95019 19.0878 15.0216
9652 3 -1.1104 15.9994 1.26257 18.8984 23.6415
500 1 -1.1104 15.9994 12.3455 13.6777 15.3495
501 1 -1.1104 15.9994 12.6911 19.138 15.3617
502 1 -1.1104 15.9994 1.40731 22.1114 15.1712
503 1 -1.1104 15.9994 4.28498 22.0505 15.2381
504 1 -1.1104 15.9994 6.96717 21.9876 15.1468
505 1 -1.1104 15.9994 9.78094 21.8529 14.9808
506 1 -1.1104 15.9994 12.4376 21.977 15.5254
507 1 -1.1104 15.9994 1.19353 -0.694508 18.1874
508 1 -1.1104 15.9994 4.10436 -0.911656 18.293
509 1 -1.1104 15.9994 1.03821 -1.07954 20.9757
510 1 -1.1104 15.9994 4.01195 -0.995808 21.0437
511 1 -1.1104 15.9994 1.33702 1.88023 18.1434
512 1 -1.1104 15.9994 4.02517 2.0145 17.9375
513 1 -1.1104 15.9994 1.22025 1.94991 20.8382
514 1 -1.1104 15.9994 3.88897 2.09614 20.8964
515 1 -1.1104 15.9994 6.69358 -0.855786 18.1982
516 1 -1.1104 15.9994 9.61845 -0.990423 18.3227
517 1 -1.1104 15.9994 6.67254 -0.638715 21.126
518 1 -1.1104 15.9994 9.63207 -1.15322 20.9991
519 1 -1.1104 15.9994 6.85061 2.0148 18.0338
520 1 -1.1104 15.9994 11.0433 1.58428 16.0012
521 1 -1.1104 15.9994 6.78129 2.18231 20.951
522 1 -1.1104 15.9994 9.60383 1.82672 20.9386
523 1 -1.1104 15.9994 12.3432 -0.945696 18.2313
524 1 -1.1104 15.9994 12.2871 -0.975753 20.9388
525 1 -1.1104 15.9994 12.5518 1.90929 18.1891
526 1 -1.1104 15.9994 12.7436 1.80149 20.7033
527 1 -1.1104 15.9994 1.35 4.80713 17.7764
528 1 -1.1104 15.9994 4.18355 4.95697 18.1041
529 1 -1.1104 15.9994 1.05009 4.73661 20.7032
530 1 -1.1104 15.9994 4.03497 4.98365 20.8128
531 1 -1.1104 15.9994 1.28803 7.68572 18.0196
532 1 -1.1104 15.9994 3.94942 7.70962 18.0269
533 1 -1.1104 15.9994 1.3694 7.74199 20.7433
534 1 -1.1104 15.9994 4.11718 7.69566 20.9918
535 1 -1.1104 15.9994 6.82406 4.75483 18.111
536 1 -1.1104 15.9994 9.07302 3.22685 15.6081
537 1 -1.1104 15.9994 6.68211 4.97479 20.8573
538 1 -1.1104 15.9994 9.57209 1.97658 18.2757
539 1 -1.1104 15.9994 6.89424 7.78285 18.2908
540 1 -1.1104 15.9994 9.52983 4.90613 18.1514
541 1 -1.1104 15.9994 7.03241 7.79487 20.97
542 1 -1.1104 15.9994 9.67392 7.68337 20.9401
543 1 -1.1104 15.9994 12.477 4.98114 18.0198
544 1 -1.1104 15.9994 12.3976 4.51136 20.7096
545 1 -1.1104 15.9994 12.4508 7.80726 18.404
546 1 -1.1104 15.9994 12.3013 7.63024 21.0615
547 1 -1.1104 15.9994 1.21923 10.5245 18.1841
548 1 -1.1104 15.9994 4.00412 10.5525 18.124
549 1 -1.1104 15.9994 1.18981 10.5392 21.0316
550 1 -1.1104 15.9994 4.12075 10.4468 20.7866
551 1 -1.1104 15.9994 1.17762 13.3694 18.1836
552 1 -1.1104 15.9994 4.17529 13.3321 18.2302
553 1 -1.1104 15.9994 1.35495 13.3586 20.944
554 1 -1.1104 15.9994 4.07713 13.4467 20.9037
555 1 -1.1104 15.9994 6.84689 10.5604 18.0849
556 1 -1.1104 15.9994 9.6866 10.5904 18.1455
557 1 -1.1104 15.9994 6.89059 10.5898 20.7693
558 1 -1.1104 15.9994 9.70855 10.4072 21.041
559 1 -1.1104 15.9994 6.97284 13.4111 18.0561
560 1 -1.1104 15.9994 9.7301 13.3651 18.1903
561 1 -1.1104 15.9994 6.98349 13.2144 20.7404
562 1 -1.1104 15.9994 9.87831 13.3153 21.0123
563 1 -1.1104 15.9994 12.6322 10.5251 18.0943
564 1 -1.1104 15.9994 12.5115 10.5103 20.9393
565 1 -1.1104 15.9994 12.6925 13.3596 18.2328
566 1 -1.1104 15.9994 12.5089 13.445 20.9914
567 1 -1.1104 15.9994 1.32786 16.1114 17.8153
568 1 -1.1104 15.9994 4.11119 16.1951 17.9056
569 1 -1.1104 15.9994 1.23947 16.2972 20.6908
570 1 -1.1104 15.9994 4.03487 16.2499 20.718
571 1 -1.1104 15.9994 1.41889 19.0888 18.0714
572 1 -1.1104 15.9994 4.01507 19.0381 18.0321
573 1 -1.1104 15.9994 1.31543 19.0145 20.7783
574 1 -1.1104 15.9994 4.02995 19.105 20.9027
575 1 -1.1104 15.9994 6.85673 16.2071 17.9214
576 1 -1.1104 15.9994 9.61045 16.2304 17.93
577 1 -1.1104 15.9994 6.89701 16.0461 20.8997
578 1 -1.1104 15.9994 9.83669 16.0722 20.6714
579 1 -1.1104 15.9994 6.9253 19.0828 17.9811
580 1 -1.1104 15.9994 9.91868 18.99 18.1811
581 1 -1.1104 15.9994 6.88339 18.7101 20.8003
582 1 -1.1104 15.9994 9.71705 18.8539 21.1327
583 1 -1.1104 15.9994 12.5151 16.2871 18.2699
584 1 -1.1104 15.9994 12.5859 16.1727 20.8342
585 1 -1.1104 15.9994 12.7187 19.0592 18.2606
586 1 -1.1104 15.9994 12.6278 19.0102 20.9992
587 1 -1.1104 15.9994 1.35123 22.0074 18.2352
588 1 -1.1104 15.9994 4.11234 21.9099 17.8937
589 1 -1.1104 15.9994 1.20995 21.7984 20.9151
590 1 -1.1104 15.9994 4.2289 21.8181 20.6804
591 1 -1.1104 15.9994 6.99425 21.9618 18.1005
592 1 -1.1104 15.9994 9.95516 21.9013 17.8331
593 1 -1.1104 15.9994 7.01865 21.4322 21.0533
594 1 -1.1104 15.9994 10.2836 21.4028 20.5568
595 1 -1.1104 15.9994 12.9458 22.0316 18.2633
596 1 -1.1104 15.9994 12.8725 21.942 21.0047
597 1 -1.1104 15.9994 1.22291 -0.78513 23.5679
598 1 -1.1104 15.9994 3.95696 -0.88466 23.7562
599 1 -1.1104 15.9994 1.29376 -1.02612 26.5308
600 1 -1.1104 15.9994 4.04965 -0.832454 26.4841
601 1 -1.1104 15.9994 1.18081 1.92895 23.766
602 1 -1.1104 15.9994 3.94884 1.88818 23.7816
603 1 -1.1104 15.9994 1.23389 1.80628 26.46
604 1 -1.1104 15.9994 3.95476 2.05695 26.6267
605 1 -1.1104 15.9994 6.89568 -0.863214 23.8996
606 1 -1.1104 15.9994 9.5637 -0.934298 23.832
607 1 -1.1104 15.9994 6.9489 -0.958449 26.7619
608 1 -1.1104 15.9994 9.74016 -0.901489 26.6169
609 1 -1.1104 15.9994 6.79012 1.82595 23.741
610 1 -1.1104 15.9994 9.59245 1.90686 23.666
611 1 -1.1104 15.9994 6.77085 1.97994 26.5085
612 1 -1.1104 15.9994 9.56553 1.79448 26.3814
613 1 -1.1104 15.9994 12.485 -0.929746 23.8723
614 1 -1.1104 15.9994 12.5101 -0.840718 26.581
615 1 -1.1104 15.9994 12.5385 2.0137 23.7314
616 1 -1.1104 15.9994 12.4271 1.78828 26.4689
617 1 -1.1104 15.9994 1.50667 4.73551 23.5389
618 1 -1.1104 15.9994 4.22317 4.86078 23.6372
619 3 -1.1104 15.9994 9.67725 7.6485 18.1131
620 1 -1.1104 15.9994 3.87655 4.76478 26.4874
621 1 -1.1104 15.9994 1.06244 7.3648 23.6119
622 1 -1.1104 15.9994 4.08082 7.51972 23.7685
623 1 -1.1104 15.9994 1.05067 7.46445 26.6132
624 1 -1.1104 15.9994 3.91755 7.50419 26.5983
625 1 -1.1104 15.9994 6.96838 4.66829 23.579
626 1 -1.1104 15.9994 9.64736 4.69586 23.5966
627 1 -1.1104 15.9994 6.84679 4.6149 26.2284
628 1 -1.1104 15.9994 9.72225 4.63182 26.2637
629 1 -1.1104 15.9994 6.86907 7.69738 23.6627
630 1 -1.1104 15.9994 9.6236 7.59848 23.6118
683 2 2.2208 232.038 8.32049 6.08099 27.4576
632 1 -1.1104 15.9994 9.65167 7.44645 26.2534
633 1 -1.1104 15.9994 12.4338 4.68475 23.7684
634 1 -1.1104 15.9994 12.3612 4.68517 26.4987
635 1 -1.1104 15.9994 12.5244 7.40291 23.5825
636 1 -1.1104 15.9994 12.6347 7.3577 26.4329
637 1 -1.1104 15.9994 3.74145 10.4678 23.383
638 1 -1.1104 15.9994 3.97184 13.058 23.9092
639 1 -1.1104 15.9994 1.20847 10.3124 24.2427
640 1 -1.1104 15.9994 4.45008 10.152 25.9708
641 1 -1.1104 15.9994 1.3335 13.243 23.9782
642 1 -1.1104 15.9994 5.10444 14.8922 25.5228