ITEM: TIMESTEP
100000
ITEM: NUMBER OF ATOMS
18000
ITEM: BOX BOUNDS pp pp pp
-4.5993132076499615e-01 2.7799931320765761e+01
-5.3993654648522478e+00 3.3347936546484937e+02
-4.4724945338107691e-01 2.7787249453380955e+01
ITEM: ATOMS id type x y z
3673 2 5.02479 0.218008 5.26701
6 1 1.769 -2.53009 1.689
14 2 5.09299 -2.17335 2.32439
9 1 3.77873 -1.04281 0.963417
63 2 2.12648 -0.0534424 2.33066
10 1 3.73827 -1.21413 3.84988
3604 2 2.29786 -2.7478 5.17694
12 1 0.977181 -1.25738 3.97794
3551 1 3.35691 -4.1197 3.57353
58 1 0.72005 -4.07215 3.85659
3547 1 4.27202 -3.85186 0.743243
3 2 1.6217 -4.82036 1.99571
17 1 5.97049 -3.73541 4.12501
148 2 13.3377 8.86892 -0.436546
19 1 6.67609 -1.12275 0.709586
20 1 6.53625 -1.12747 3.64278
14418 1 6.87854 -3.9396 1.44441
18 1 9.24903 -3.94098 3.57839
3685 2 10.7736 0.26938 5.08959
31 1 12.1409 -1.40602 0.785099
26 2 10.7313 -2.48207 2.23521
32 1 12.0677 -1.25075 3.6004
21 1 9.50666 -1.14059 0.786619
75 2 7.96396 0.212504 2.26118
3616 2 7.86513 -2.58348 5.18061
24 1 9.30676 -1.11484 3.60654
3629 1 12.0998 -4.19386 3.73985
3571 1 11.9612 -4.18163 0.727797
3562 1 9.31692 -3.8666 0.783557
3621 1 9.23383 -3.90379 6.65573
3619 1 6.51426 -1.1277 6.47012
3630 1 12.076 -1.14587 6.47943
3623 1 9.22758 -0.947326 6.42879
196 2 7.65125 14.3353 -0.223562
7348 2 13.3862 8.63719 10.8642
3627 2 13.7451 -5.35427 7.92843
65 1 0.685531 4.62699 1.08149
66 1 3.8856 1.41678 3.54704
74 2 4.96271 2.85381 2.20483
69 1 3.61714 4.81655 0.827695
3664 2 2.16534 2.96156 5.11052
3733 2 5.0899 5.8716 5.05829
68 1 0.774851 4.40761 3.79525
123 2 2.27694 5.87867 2.38006
72 1 3.57048 4.28403 3.68686
7 1 0.735777 1.92059 0.90266
130 1 3.76447 7.31475 3.8626
14470 1 3.5333 1.90353 0.79123
8 1 0.899511 1.51952 3.92437
126 1 1.00918 7.23734 3.79581
129 1 3.53183 7.37832 1.21262
119 1 0.406247 7.5301 0.847858
138 1 6.45279 7.25049 3.66323
71 1 6.28739 7.27403 0.913522
3671 1 3.4381 4.39716 6.52042
70 1 6.43441 1.52567 3.55902
11 1 6.31403 1.52183 0.808979
77 1 6.27765 4.31962 0.972742
3725 1 0.509182 7.14102 6.58559
7408 2 13.4811 14.4413 11.0004
80 1 6.37847 4.48242 3.7619
78 1 9.37521 1.71956 3.81103
89 1 11.9524 1.4423 1.0124
90 1 12.1924 1.64031 3.78335
86 2 10.5453 3.11552 2.32829
81 1 9.34458 4.62308 0.987623
82 1 9.17908 4.39686 3.69581
3676 2 7.8532 2.9619 5.17003
23 1 9.16037 1.75535 1.00046
3745 2 10.6482 5.80599 5.11813
149 1 11.9278 7.14335 3.6316
91 1 12.1629 4.48118 0.783155
92 1 11.9925 4.43828 3.82197
135 2 7.67312 5.84274 2.10118
83 1 8.94736 7.2433 0.968038
150 1 9.27208 7.21853 3.72791
14492 1 11.779 7.2577 1.06829
84 1 9.08151 7.42717 6.54376
3691 1 11.9688 7.32632 6.31436
147 2 13.3764 5.8335 2.35515
3681 1 9.19671 1.86593 6.44281
3631 1 11.9895 1.70507 6.83525
3683 1 9.19132 4.49195 6.53299
3870 1 11.972 18.3283 9.3185
7461 1 9.2283 18.5104 12.1918
3628 2 13.409 -2.47704 5.133
3793 2 4.58016 11.8557 5.07082
139 1 4.06463 12.5011 2.795
134 2 4.98449 8.8486 2.46027
128 1 0.712245 10.0514 4.00388
183 2 2.03787 11.4031 2.5774
3724 2 2.16287 8.69014 5.22463
131 1 0.713364 9.98831 0.978471
132 1 3.50179 10.0212 3.9023
186 1 0.140811 12.4553 2.35622
189 1 2.36444 12.2923 0.385592
3789 1 1.97801 12.2803 4.54916
137 1 3.83571 10.1183 0.951235
5 2 5.21936 -5.31675 2.34917
193 2 4.78744 11.7304 -0.480279
3785 1 0.240735 14.1613 4.61996
124 2 2.51281 8.79505 -0.389414
241 2 -0.490007 17.3305 -0.17759
7288 2 13.4203 3.02457 10.9093
3748 2 13.3629 8.72293 5.05453
29 2 13.6176 -5.3447 2.30509
140 1 6.50678 10.2994 4.11424
142 1 6.53235 9.95832 1.18764
143 1 6.5796 12.5688 0.66127
198 1 6.71923 12.9241 4.04077
3805 2 11.2163 11.6385 5.28412
151 1 12.0852 10.0679 0.995195
146 2 10.5701 8.66522 2.32638
152 1 11.8647 10.1001 3.72357
195 2 7.94226 11.6708 2.19254
3736 2 7.81625 8.45404 5.11563
3743 1 9.15078 10.0878 4.06867
144 1 9.3346 10.1087 1.11467
210 1 11.9262 13.2999 3.6467
213 1 12.281 12.9176 0.80789
201 1 9.48413 13.1849 0.863351
3795 2 7.99943 11.5468 5.41231
202 1 9.45898 12.7352 3.91539
207 2 13.5472 11.6684 2.40792
3688 2 13.4383 3.02728 5.22683
3741 1 9.54044 10.3424 6.57034
7323 2 2.06838 5.74409 13.675
253 2 4.41882 16.9284 0.0714162
190 1 4.36046 14.47 4.7655
187 1 0.0256247 14.307 0.121094
14598 1 4.62833 14.6192 0.164172
194 2 5.29321 14.4058 2.66813
3844 2 2.18721 19.9813 5.26523
3853 2 4.73401 17.0839 5.27363
245 1 0.783069 18.8695 1.01753
246 1 0.64074 18.9362 3.82226
254 2 5.06867 20.341 2.16351
188 1 0.209267 16.5174 2.59159
249 1 3.74005 18.9435 1.11479
243 2 2.12653 17.6632 2.5837
250 1 3.80064 18.7951 4.09022
3784 2 2.22908 14.4447 5.60784
191 1 2.07845 16.6073 0.363876
192 1 2.12687 16.6172 4.74614
199 1 4.14918 16.3385 2.42007
3849 1 3.46311 18.6429 6.83997
257 1 6.41377 18.9901 0.185259
3625 2 10.8215 -5.41557 5.24805
3857 1 6.43728 18.4442 6.39017
268 2 13.5657 20.208 -0.403253
206 2 10.6255 14.4881 2.28015
197 1 7.686 14.6106 2.28141
200 1 6.47167 16.2859 4.02361
258 1 7.02102 19.2317 3.19429
14604 1 6.59758 16.4332 0.80918
14664 1 12.0592 18.7136 0.967156
3865 2 10.8033 17.3172 5.17271
270 1 12.2988 18.5489 3.95435
266 2 10.7606 20.172 2.3019
212 1 12.3382 15.8716 3.58642
261 1 9.1707 18.7743 0.985468
255 2 8.0968 17.2952 2.65136
262 1 9.47889 18.7196 3.88624
3796 2 7.65616 14.7182 5.15465
3856 2 7.84438 20.0434 5.15391
204 1 9.49029 15.8624 3.87573
211 1 12.0002 15.7388 0.957503
203 1 9.30005 16.1364 0.671854
3861 1 9.27041 18.5858 6.75803
3808 2 13.3684 14.5072 5.16513
87 2 13.4945 0.172191 2.25519
7228 2 13.4119 -2.64287 10.7972
3609 1 3.67945 -4.22326 6.69182
3611 1 3.64945 -1.22263 6.5947
3607 1 0.920641 -1.22479 6.58187
3605 1 0.64239 -4.15411 6.7017
7273 2 5.12127 0.366824 10.7844
7205 1 0.860633 -3.99654 12.0816
3606 1 0.809678 -1.51701 9.42046
7207 1 0.706281 -1.09097 12.2881
3614 2 5.10694 -2.49813 7.93734
7209 1 3.47613 -4.05223 12.0709
3663 2 2.09532 0.248932 7.93929
3610 1 3.60572 -4.02434 9.2797
7204 2 2.26195 -2.69676 10.7938
7211 1 3.73135 -1.15328 12.2364
3612 1 3.68586 -1.1964 9.35621
3658 1 0.616563 -4.21086 9.56064
7217 1 6.37072 -4.15213 12.0739
7219 1 6.62468 -1.26732 12.0949
3618 1 6.4061 -4.16389 9.32902
3572 1 12.011 -3.95141 6.55041
7275 2 7.90804 0.122252 13.4773
3620 1 6.70034 -1.09726 9.25948
3617 1 6.45893 -4.10727 6.65374
7171 1 11.9208 -4.24586 9.35664
7285 2 10.7382 0.170129 10.8499
7229 1 12.0559 -3.96597 12.0957
7231 1 11.9732 -1.30608 12.1585
3626 2 10.613 -2.66925 8.04027
3632 1 12.1571 -1.25277 9.38782
7221 1 9.27632 -4.13257 12.1376
3675 2 7.89417 0.403307 7.77212
3622 1 9.06772 -3.96432 9.45039
7216 2 7.91382 -2.80319 10.7897
7223 1 9.35856 -1.32815 11.9838
3624 1 9.39088 -1.16792 9.22277
3687 2 13.4984 0.282322 7.9132
7465 2 10.537 17.0141 10.764
3667 1 0.599244 4.47115 6.46613
3665 1 0.620349 1.53334 6.68565
3677 1 6.41007 1.68425 6.55406
3669 1 3.63406 1.5836 6.50033
3729 1 3.57045 7.27876 6.81636
7265 1 0.708969 1.64967 12.2223
3666 1 0.665039 4.30963 9.12913
3674 2 4.97195 3.05095 8.06276
3608 1 0.805525 1.60164 9.36385
7269 1 3.42482 1.52183 12.351
3670 1 3.68005 1.77274 9.37215
7264 2 2.14741 3.1806 10.6823
7333 2 5.0331 5.83177 10.7496
7325 1 0.727831 7.28859 12.2015
7267 1 0.739806 4.23623 12.1422
3723 2 2.1437 5.85307 7.92872
3730 1 3.6102 7.00627 9.54009
7271 1 3.58981 4.42663 12.1517
3672 1 3.55057 4.39763 9.40583
7329 1 3.34812 7.06246 12.2187
3668 1 0.685462 7.30346 9.31018
7279 1 6.40133 4.5886 12.2573
7337 1 6.29121 7.42937 12.2467
3680 1 6.49474 4.3627 9.541
3679 1 6.41269 4.34204 6.76255
7277 1 6.37784 1.72682 12.093
3737 1 6.33522 7.06847 6.54412
3689 1 11.9194 4.51213 6.69607
3738 1 6.33718 7.22829 9.54016
3678 1 6.43769 1.63508 9.252
7289 1 12.1009 1.47273 12.1388
3690 1 12.0466 1.71647 9.43209
3686 2 10.5782 3.14539 7.99842
7281 1 9.27657 1.54507 12.139
3682 1 9.47136 1.64347 9.17304
7276 2 7.92029 3.01749 10.8125
3684 1 9.17527 4.54341 9.43827
7283 1 9.05224 4.27478 12.2663
3742 1 8.97084 7.3504 9.33149
3735 2 7.80007 5.74954 8.04976
7345 2 10.6166 5.89479 10.91
7291 1 11.8107 4.34038 12.2506
3692 1 12.1564 4.73913 9.44666
7341 1 8.95558 7.03899 12.0051
3750 1 11.9718 7.53159 9.33175
7349 1 11.7421 7.47809 11.8534
3813 1 13.5456 12.0371 5.30269
3747 2 13.3898 5.97568 7.98048
7382 2 -0.520691 14.3209 13.757
3731 1 3.85039 10.046 6.62787
3866 2 10.8097 19.9439 8.18587
3727 1 0.887782 9.90289 6.80155
3801 1 6.20215 12.5616 6.76278
3797 1 3.62324 12.8194 6.82364
3780 1 0.703759 12.7867 6.94188
7393 2 5.07779 11.4233 10.9446
3726 1 0.88177 10.0505 9.67789
7327 1 0.829113 9.97244 12.3564
3734 2 5.0597 8.63443 8.19254
3728 1 0.686458 12.8489 9.64691
3783 2 2.18236 11.2696 8.04129
7324 2 2.21191 8.60675 10.9558
7331 1 3.59406 9.95403 12.4484
3732 1 3.45793 10.0019 9.51962
7389 1 3.57302 12.7335 12.1536
3786 1 3.68312 12.8977 9.56267
7385 1 0.821007 12.7251 12.5126
7339 1 6.41775 10.054 12.2267
7397 1 6.53451 12.8234 12.2172
3790 1 6.40945 12.8729 9.49124
3794 2 5.00929 14.4001 8.21328
7456 2 7.85912 20.0201 10.9759
7403 1 9.03488 15.6881 12.288
3751 1 8.80402 13.119 6.65432
3740 1 6.32867 10.0925 9.50677
3749 1 12.3519 10.1406 6.78718
3809 1 11.6956 13.0916 6.82814
3807 2 13.2807 11.7543 7.97342
3739 1 7.01694 9.90312 6.91969
7401 1 9.28331 12.941 12.1721
3744 1 9.21669 10.0755 9.65238
7343 1 9.20996 10.121 12.2454
7336 2 7.62994 8.59236 10.8922
7405 2 10.8042 11.6428 10.8912
7351 1 12.1626 10.3941 12.4366
3746 2 10.5515 8.68764 8.09554
3752 1 11.9756 10.3539 9.44747
3798 2 7.82514 11.5666 8.4186
3802 1 9.32131 13.0743 9.37594
7409 1 12.1068 13.1471 12.3902
3810 1 12.3307 13.026 9.65876
7411 1 11.9604 15.873 12.333
7457 1 6.4817 18.3089 12.2191
3800 1 6.55642 15.6631 9.40743
3858 1 6.3119 18.6248 9.34046
3791 1 3.61107 15.8151 6.91569
3845 1 0.766933 18.6717 6.56222
3787 1 0.653208 15.7903 6.81525
7444 2 2.47575 20.1704 10.9114
7384 2 2.31087 14.1936 10.894
7449 1 3.64207 18.5735 12.2874
3846 1 0.800727 18.6014 9.57683
3788 1 0.902054 15.7747 9.50074
3854 2 5.03674 19.9747 8.01521
7445 1 0.832865 18.7756 12.4829
7453 2 4.93347 17.1331 10.8377
3850 1 3.53872 18.5878 9.49701
3843 2 2.16222 17.1711 8.10818
3792 1 3.55601 15.658 9.57394
7387 1 0.728783 16.0012 12.1614
7391 1 3.81259 15.6467 12.3156
7399 1 6.41246 15.5368 12.3453
7274 2 5.03291 3.10262 13.5846
3867 2 13.521 17.2104 8.08287
3803 1 9.07953 15.7764 6.55626
3811 1 11.9493 15.7388 6.53627
3869 1 12.1251 18.6762 6.68082
3799 1 6.39105 15.5691 6.72903
3855 2 7.75835 17.1756 8.02041
3862 1 9.28201 18.4055 9.45826
3804 1 9.13588 15.7097 9.28051
7396 2 7.78746 14.1813 10.948
7469 1 11.8714 18.7797 12.2018
3812 1 12.0699 15.7673 9.44911
3806 2 10.4286 14.5532 7.95994
185 2 -0.311641 12.2068 0.225737
136 2 7.67396 8.76558 -0.450523
7263 2 2.27769 0.0524456 13.6403
7202 2 -0.497069 -2.73512 13.6827
3842 2 -0.4724 20.1282 8.12149
3603 2 2.10736 -5.32653 8.14004
3868 2 13.3918 20.1282 5.3951
7214 2 5.05141 -2.70514 13.5253
7287 2 13.4873 0.13386 13.5337
209 2 10.7896 11.8168 -0.573315
145 2 10.5102 6.12245 -0.420424
7286 2 10.6197 3.06188 13.5395
7346 2 10.6392 8.6415 13.5362
244 2 2.38851 20.1392 -0.224274
7466 2 10.6334 20.0593 13.6181
17952 1 1.63967 -4.72778 -0.421402
14408 1 0.968435 -1.03516 -0.3043
10873 2 5.14716 0.257282 16.3497
10805 1 0.890274 -4.01708 17.7312
7206 1 0.794085 -4.00727 14.9943
10807 1 0.592755 -1.10188 17.9065
10814 2 5.0424 -2.67978 19.2477
7208 1 0.85518 -1.3694 15.125
10809 1 3.67128 -4.22307 17.8402
10863 2 2.26938 0.169616 19.1316
7210 1 3.59717 -4.13336 14.9678
10804 2 2.28014 -2.76035 16.3692
10811 1 3.50238 -1.26846 17.9282
7212 1 3.6939 -1.4355 15.0972
10808 1 1.10624 -1.16681 20.4799
10806 1 0.829679 -4.16048 20.4998
10817 1 6.45156 -3.96136 17.6265
7220 1 6.45734 -1.13764 14.8004
10820 1 6.6637 -1.27287 20.6427
14425 2 10.6315 -5.48667 21.9821
10825 2 10.5603 -5.31638 16.4269
10819 1 6.53686 -1.08929 17.6853
7218 1 6.2318 -4.16819 14.8934
10885 2 10.5736 0.247535 16.3379
10829 1 12.0847 -3.94068 17.7029
7230 1 12.0143 -3.89253 14.9146
10831 1 11.8946 -1.15276 17.6887
10826 2 10.7562 -2.75482 19.2482
7232 1 12.1934 -1.23266 14.9887
10821 1 9.2525 -3.86407 17.825
10875 2 7.83403 0.308211 19.2231
7222 1 9.1118 -4.06479 14.8845
10816 2 7.8258 -2.60395 16.3476
10823 1 9.18638 -1.00116 17.4862
7224 1 9.2171 -1.24854 14.7586
10824 1 9.40091 -1.36557 20.5452
10830 1 12.116 -3.90835 20.5303
10822 1 9.2328 -4.11856 20.6068
7443 2 2.16331 17.2284 13.5285
7467 2 13.4527 17.2472 13.6505
25 2 10.7522 -5.20047 27.4869
10865 1 0.682517 1.78536 17.6568
7266 1 0.885917 1.40905 15.1616
10874 2 5.18348 3.19738 19.2032
10869 1 3.57416 1.66701 17.8469
7270 1 3.53382 1.4884 14.9807
10864 2 2.27111 2.87323 16.3215
10933 2 4.83756 5.85889 16.2839
10867 1 0.931314 4.41969 17.8094
7268 1 0.826645 4.24839 15.1613
10929 1 3.4185 7.32688 17.772
10923 2 2.15325 5.96123 19.0992
7330 1 3.58968 7.28349 14.9017
10871 1 3.73889 4.57849 17.7909
7272 1 3.61217 4.46263 15.0129
10925 1 0.429278 7.30612 17.8471
7326 1 0.656599 7.10147 15.1192
10926 1 0.784079 7.37541 20.5718
10872 1 3.65662 4.62419 20.5261
10877 1 6.28611 1.63303 17.8643
7338 1 6.36164 7.25496 15.0608
7280 1 6.17716 4.43636 14.9392
10878 1 6.48473 1.56943 20.6695
10868 1 0.513707 4.64577 20.499
10937 1 6.38712 7.09913 18.0154
10879 1 6.64775 4.42484 17.948
7278 1 6.22433 1.62194 14.8794
14427 2 13.5535 -5.43187 24.8255
14656 2 7.94185 20.0805 22.1048
10930 1 3.63525 7.33324 20.6494
133 2 5.09532 5.85153 27.756
7290 1 12.0461 1.51167 14.827
10889 1 11.8807 1.62577 17.6365
10886 2 10.7468 3.22604 19.3293
10881 1 9.30454 1.63741 17.8792
7282 1 9.18361 1.54908 14.892
10876 2 8.02213 3.082 16.4672
10945 2 10.606 6.05032 16.4335
10949 1 11.8378 7.36395 17.8744
10891 1 12.0105 4.70457 18.0033
7292 1 11.7044 4.37233 15.1464
10935 2 7.78388 5.98116 19.4184
10883 1 9.24681 4.50907 17.9384
7284 1 9.07772 4.58654 15.0435
10941 1 9.20666 7.36808 17.8942
7342 1 9.19105 7.49302 14.8644
10884 1 9.36618 4.70312 20.7075
7350 1 11.9767 7.58543 15.2549
10947 2 13.534 5.90175 19.2245
265 2 11.1216 17.2359 27.8016
7395 2 7.84603 11.3956 13.705
10993 2 5.17398 11.543 16.4541
10927 1 0.827072 10.1548 17.7522
10934 2 4.97565 8.57557 19.2817
7328 1 0.574468 10.0528 14.9977
10983 2 2.21272 11.4543 19.1374
10924 2 2.07373 8.76952 16.3818
10931 1 3.7457 9.96015 17.8535
7332 1 3.6373 9.92199 15.0728
10985 1 0.689567 12.9514 17.9176
7386 1 0.929297 12.7348 15.3978
10989 1 3.46086 12.9507 18.0735
7390 1 3.66574 12.8457 15.1038
10928 1 0.976083 10.2286 20.6341
10990 1 3.52667 12.9245 20.6655
10939 1 6.55255 9.93614 17.8481
7340 1 6.50669 10.0603 14.9287
7394 2 5.07528 14.2301 13.7611
10984 2 2.11027 14.2435 16.4303
10994 2 4.91379 14.2856 19.3956
10998 1 6.44265 13.0029 20.7207
14662 1 9.60791 18.9489 26.8044
10997 1 6.30515 12.7792 18.1151
7398 1 6.51852 12.7809 15.0539
11005 2 10.6539 11.5517 16.6354
10951 1 11.8535 10.2488 17.9848
10946 2 10.5761 8.58144 19.3357
7352 1 12.2052 10.4169 15.4273
10995 2 7.79675 11.4563 19.4314
10936 2 7.78903 8.67991 16.5089
10943 1 9.13082 10.1043 17.857
7344 1 9.4821 10.161 14.9564
11009 1 12.1151 13.2141 17.9724
7410 1 12.1679 13.1145 15.2438
11001 1 9.30769 12.9881 17.96
7402 1 9.19106 13.1224 15.1374
14458 1 -0.250408 -0.357388 25.8022
10996 2 7.91527 14.2646 16.5961
85 2 10.6828 0.235997 27.6327
10944 1 9.23931 9.97172 20.8634
14607 2 13.5771 11.6792 25.0458
11053 2 4.9864 17.0267 16.4975
11045 1 0.855018 18.7582 18.0323
7446 1 0.737851 18.5801 15.1118
10987 1 0.83604 15.7665 17.8148
11054 2 5.12274 19.9319 19.2309
7388 1 0.697336 15.8744 14.9934
11049 1 3.65053 18.43 17.819
11043 2 2.22289 17.1872 19.2278
7450 1 3.57687 18.4808 14.9934
11044 2 2.35884 19.9576 16.5333
10991 1 3.47129 15.6324 17.8634
7392 1 3.53035 15.685 14.9427
11050 1 3.52022 18.6472 20.7092
10999 1 6.28599 15.6803 17.9765
11046 1 0.561665 18.8451 20.7526
10988 1 0.657468 15.9898 20.5878
7458 1 6.39286 18.5382 15.0995
7334 2 5.02949 8.72672 13.6677
7400 1 6.43527 15.4838 15.2547
11067 2 13.5522 17.1926 19.2722
7455 2 7.78624 17.0024 13.6488
14608 2 13.3858 14.4233 22.072
14603 1 9.23077 15.8423 23.2742
11000 1 6.23325 15.8419 20.9108
11057 1 6.46487 18.3841 17.8277
11006 2 10.5938 14.3776 19.2679
11065 2 10.6868 17.3268 16.5298
11069 1 12.0768 18.802 17.8011
7470 1 12.0053 18.7156 14.9999
11011 1 12.087 16.0335 18.0571
11066 2 10.6519 20.0332 19.2713
7412 1 11.9254 15.7534 15.2308
11061 1 9.10135 18.6974 18.0869
11055 2 7.71 17.1872 19.3126
7462 1 9.20466 18.4037 15.0134
11003 1 9.31715 15.7714 17.7994
7404 1 9.05537 15.7957 15.1258
11056 2 7.89199 19.9259 16.351
7226 2 10.608 -2.74727 13.4813
7406 2 10.668 14.3208 13.7836
11068 2 13.3691 20.1044 16.4306
205 2 10.57 14.5423 24.8535
4 2 2.62981 -2.53359 27.7912
10810 1 3.7014 -4.03652 20.4429
10812 1 3.7284 -1.21366 20.6661
17948 1 1.50851 -2.53492 25.6035
14473 2 5.17341 0.333881 22.0325
14405 1 0.724625 -4.06883 23.1932
14407 1 1.00641 -1.15461 23.2425
14414 2 5.05764 -2.72876 24.8042
14409 1 3.54397 -3.95158 23.3898
14463 2 2.15966 0.215338 24.9545
14410 1 3.681 -1.02075 26.2941
14404 2 2.32227 -2.49249 22.0142
14411 1 3.65731 -1.24106 23.4978
17960 1 3.67236 -4.02948 26.1665
14417 1 6.4044 -4.07354 23.588
17964 1 6.58142 -4.01752 26.584
10887 2 13.375 0.296966 19.1373
11008 2 13.3837 14.5648 16.5342
10818 1 6.43992 -4.02924 20.6769
10888 2 13.2744 3.26484 16.28
14428 2 13.6676 -2.57029 21.811
14419 1 6.36597 -1.2819 23.3101
10832 1 12.0438 -1.08205 20.4801
14420 1 6.55343 -1.20714 26.2566
14485 2 10.7566 0.424731 22.0268
14429 1 12.0744 -4.02273 23.2141
14430 1 12.104 -3.85448 26.103
14431 1 11.9463 -0.997855 23.4187
14426 2 10.7766 -2.41611 24.6254
14432 1 12.0667 -1.08131 25.9978
14421 1 9.11256 -3.92232 23.2701
14475 2 7.90987 0.193121 24.885
14422 1 9.43846 -4.04508 26.0082
14416 2 7.85384 -2.64737 21.9036
14423 1 9.12904 -1.04522 23.3411
14424 1 9.22426 -1.10672 26.3551
14403 2 1.93044 -5.01664 24.7786
10870 1 3.84771 1.79024 20.7672
10880 1 6.43904 4.45989 20.7549
14670 1 12.3469 18.7497 26.4261
10866 1 0.940664 1.78703 20.5133
14469 1 3.74567 1.68471 23.5021
14465 1 1.01505 1.47622 23.2787
14466 1 0.832805 2.09124 26.1988
14474 2 4.95982 3.03645 24.7759
14464 2 2.27431 2.91066 22.0513
14412 1 3.56231 1.80249 26.3975
14533 2 4.96798 5.96892 22.2268
14525 1 1.08727 7.20149 23.4065
14467 1 0.915364 4.29404 23.4702
14523 2 2.09603 5.83328 24.9232
14530 1 3.74189 7.39109 26.6473
14471 1 3.48969 4.53661 23.3318
14472 1 3.8512 4.61612 26.0823
67 1 1.38855 4.91237 26.7037
14529 1 3.61282 7.42156 23.5537
10938 1 6.44694 7.32105 20.7737
14478 1 6.41694 1.69761 26.1297
14479 1 6.31331 4.59661 23.5043
14538 1 6.4612 7.26845 26.4306
14477 1 6.55873 1.70175 23.3553
7335 2 7.7051 5.83416 13.6861
11007 2 13.4539 11.5062 19.3505
10890 1 12.1294 1.69489 20.5756
10892 1 12.1621 4.34392 20.6404
10948 2 13.5112 8.63866 16.6169
10882 1 9.36921 1.64902 20.7231
10942 1 9.10626 7.36283 20.7054
10950 1 12.1371 7.22556 20.5968
14537 1 6.47668 7.37531 23.6243
14480 1 6.67065 4.6263 26.3665
14489 1 12.1567 1.68375 23.5094
14490 1 11.9906 1.69857 26.4324
14481 1 9.40056 1.7989 23.4766
14482 1 9.24805 1.56746 26.1519
14476 2 7.8375 3.32186 22.033
76 2 10.6131 3.11271 24.952
14486 1 12.0111 4.70643 26.2246
14484 1 9.37753 4.33088 26.3496
14483 1 9.1772 4.65425 23.6131
14535 2 7.83176 5.92529 24.8971
14545 2 10.5698 5.98298 22.0936
14549 1 12.0011 7.46206 23.3706
14491 1 11.9441 4.57808 23.3185
14541 1 9.15592 7.35467 23.4726
14542 1 9.20103 7.52761 26.4108
14550 1 12.0031 7.43688 26.5354
14488 2 13.5142 3.13048 22.1348
14547 2 13.2781 6.10926 24.8814
14666 2 10.9756 20.0277 24.8257
125 1 0.726537 7.89356 26.3764
10932 1 3.77711 9.96636 20.6337
10986 1 0.684231 12.994 20.7595
14637 1 0.615673 12.5909 23.2812
14590 1 3.64835 13.0743 26.3444
14593 2 4.90926 11.5071 22.0594
14526 1 0.865732 9.9988 24.0734
14534 2 4.99259 8.67366 25.0061
14528 1 0.408181 10.863 26.6515
14583 2 2.49043 11.6392 24.7583
14524 2 2.34574 8.71694 22.134
14531 1 3.73295 10.0965 23.475
14532 1 3.47153 10.2699 26.1941
14589 1 3.62831 13.1025 23.4732
14586 1 1.03139 13.1888 25.7292
10940 1 6.63656 10.3128 20.7883
14602 1 6.34512 13.0949 26.1675
14597 1 6.22613 13.2614 23.3448
11002 1 9.16871 12.9497 20.771
11010 1 12.2034 12.9468 20.7278
10952 1 11.9625 10.0881 20.7914
14655 2 7.88223 17.2549 24.5219
14596 2 7.79201 14.3608 21.8964
14548 2 13.3876 8.72024 22.0295
14540 1 6.39158 10.3438 26.4668
14539 1 6.36185 10.2572 23.5944
141 1 9.20719 10.298 26.3637
14601 1 9.34688 13.0889 23.6138
14609 1 11.9532 13.0782 23.822
14610 1 12.02 13.2077 26.4848
14544 1 9.18128 13.4977 26.473
14543 1 9.12957 10.3028 23.587
14536 2 7.87647 8.75148 22.1095
14595 2 7.75678 11.7339 24.8258
14605 2 10.6717 11.7509 22.2035
14551 1 11.9808 10.4145 23.6009
14546 2 10.4704 8.89786 24.9003
14552 1 12.1084 10.3364 26.2976
11058 1 6.23235 18.4289 20.5384
14599 1 6.23833 15.85 23.6145
14600 1 6.69347 16.1662 26.316
10992 1 3.45859 15.7099 20.7764
14645 1 0.768456 18.5551 23.5369
14654 2 5.18126 19.8388 25.0421
14649 1 3.49803 18.6527 23.5618
14594 2 4.98592 14.4214 24.9104
14584 2 2.16171 14.4276 22.0819
14587 1 0.680757 15.6775 23.6431
184 2 2.18581 14.416 27.457
14591 1 3.44214 15.7886 23.5388
14643 2 2.22606 17.2632 25.1514
14592 1 3.58242 15.7425 26.2747
14644 2 2.20094 20.072 22.2335
14588 1 0.935194 15.8606 26.287
14650 1 3.80927 18.6262 26.4331
14653 2 4.76206 17.2491 22.186
14646 1 0.943387 18.6791 26.4799
14657 1 6.46371 18.4655 23.3012
14612 1 12.1759 15.9317 26.1782
14661 1 9.39133 18.7379 23.5278
14658 1 7.00481 18.8528 25.8391
14667 2 13.6092 17.3564 24.8748
14611 1 12.0611 16.0251 23.4003
14665 2 10.6892 17.2499 22.0012
11012 1 11.9691 15.7915 20.716
11004 1 9.02827 15.8852 20.6673
11070 1 12.3415 18.7272 20.7875
11062 1 9.32272 18.4998 20.9195
14606 1 9.39641 16.4197 26.0236
14669 1 12.3089 18.689 23.5613
10828 2 13.5841 -2.47823 16.3168
7407 2 13.5146 11.5747 13.946
16 2 7.97891 -2.63916 27.5583
14668 2 13.6977 20.1372 22.1134
14487 2 13.5735 0.182449 24.7433
64 2 2.2241 3.27656 27.8644
28 2 13.3619 -2.66272 27.5798
256 2 7.87874 17.4911 27.5789
79 2 7.92586 3.09795 27.6194
73 2 5.12204 0.2526 27.6393
88 2 13.4393 2.92063 27.6832
208 2 13.6164 14.4134 27.5628
259 2 7.87991 20.6189 27.6506
7383 2 2.15999 11.387 13.8831
7454 2 4.9547 19.9588 13.7038
3913 2 5.01674 22.9395 5.24153
305 1 0.88256 24.4422 1.08133
306 1 1.07893 24.3451 3.73666
247 1 0.931646 21.6149 0.906843
314 2 4.90666 25.5972 2.43282
248 1 0.928889 21.4709 3.65284
309 1 3.54146 24.4236 1.05202
303 2 2.40983 22.881 2.34329
310 1 3.73878 24.2959 3.90777
3904 2 2.2387 25.7633 5.36337
251 1 3.73914 21.6844 1.04449
252 1 3.73095 21.5871 3.62662
3851 1 3.59973 21.3306 6.52829
320 1 6.59327 27.1932 3.6586
308 1 0.812339 27.0259 3.85012
3917 1 6.55449 24.2263 6.49538
260 1 6.43679 21.7856 3.91212
3859 1 6.40267 21.4323 6.60083
311 1 3.51087 27.2436 0.975203
312 1 3.55904 27.1333 3.9438
318 1 6.49026 24.4605 3.70165
388 2 13.7887 31.7748 -0.281375
7696 2 7.87496 42.7639 11.0831
433 2 5.36405 34.2365 -0.453845
14720 1 6.32783 24.3535 1.04252
317 1 6.43151 21.6392 0.900945
3925 2 10.7064 22.8805 5.1865
329 1 12.0022 24.2738 0.902744
330 1 12.1975 24.2205 3.94029
271 1 12.2192 21.5518 0.971563
326 2 10.7693 25.7709 2.29686
272 1 12.0632 21.5296 3.80535
321 1 9.26028 24.4023 0.997569
315 2 7.84192 23.0396 2.63391
322 1 9.29729 24.2895 3.93626
3916 2 7.92528 25.6776 5.21058
263 1 9.13391 21.7105 1.03586
264 1 9.25622 21.4576 3.77274
323 1 9.23093 27.2712 1.06544
3871 1 12.1212 21.5844 6.68317
3921 1 9.32497 24.2012 6.58512
324 1 9.57187 27.3615 3.94522
7514 2 5.4579 25.7595 13.6716
319 1 6.4417 27.1385 1.16314
332 1 12.1009 27.2173 4.23835
3962 2 -0.319891 31.4016 8.092
7588 2 13.6723 31.332 10.9283
3902 2 -0.319765 25.7638 8.00444
4086 1 1.09284 41.4359 9.5644
3928 2 13.4266 25.6434 5.42232
307 1 0.776002 27.324 1.0774
313 2 5.04965 23.0121 -0.60441
3973 2 4.99019 28.4812 5.18846
363 2 2.17823 28.6856 2.44992
367 1 0.898092 32.9114 0.868463
374 2 5.17403 31.4566 2.43021
368 1 0.882972 30.3777 1.10356
369 1 3.821 29.9357 1.03446
370 1 3.52641 30.0502 3.88333
3964 2 2.45243 31.3545 5.31516
371 1 3.77217 32.8133 1.01355
372 1 4.03076 32.8841 3.72351
3965 1 0.798517 29.8949 3.90289
3967 1 1.24885 32.6921 3.78286
4025 1 1.13118 32.685 6.732
379 1 6.67048 32.9761 0.890873
378 1 6.45202 30.0138 4.02874
380 1 6.79374 32.7967 3.75893
377 1 6.73783 29.9768 1.29432
3969 1 3.84831 29.9089 6.57615
553 2 5.2726 45.5614 -0.499916
3979 1 6.61614 32.5837 6.66235
7634 2 5.15161 37.1373 13.771
331 1 12.1438 27.4824 0.831515
3985 2 10.8481 28.6134 5.44976
375 2 7.97723 28.6377 2.54197
390 1 12.7463 30.1032 1.28263
391 1 12.4342 32.8546 1.14155
386 2 11.0645 31.4387 2.42544
392 1 12.4521 32.5732 3.87636
381 1 9.63112 30.0771 0.843574
382 1 9.29711 30.1966 3.69211
3976 2 8.10253 31.5202 5.0992
383 1 9.43814 32.9052 0.939993
384 1 9.47681 32.8892 3.63503
3989 1 12.2231 29.8016 3.86879
3990 1 12.1243 30.0325 6.65971
3991 1 12.2636 32.8488 6.66839
7703 1 9.5896 43.9986 12.2916
4155 2 8.0675 45.4581 8.18396
4110 1 12.22 41.3369 9.40992
4033 2 5.49158 34.1291 5.34435
425 1 1.00196 35.5608 0.964326
426 1 1.03421 35.6342 3.9783
434 2 5.27566 37.0112 2.61109
429 1 4.02191 35.4967 1.00623
423 2 2.57329 34.2363 2.38514
430 1 3.84315 35.8497 3.6869
4024 2 2.39062 37.131 5.21932
486 1 1.10266 38.2796 3.83514
427 1 1.0535 38.2034 1.1969
431 1 3.78039 38.4677 1.02819
432 1 3.91535 38.5628 3.90588
4093 2 5.37383 39.9349 5.44214
483 2 2.48587 39.8301 2.31965
440 1 6.64437 38.6488 3.92621
4031 1 3.79713 38.7785 6.71845
4029 1 3.93866 35.699 6.61504
438 1 6.8803 35.6812 3.65198
4027 1 0.917481 38.3505 6.59257
4037 1 6.67622 35.732 6.63564
439 1 6.72126 38.5699 1.09831
437 1 6.76727 35.7274 0.905143
4098 1 6.69502 41.5743 9.67266
4102 1 9.53589 41.2451 9.60351
4039 1 6.63474 38.398 6.88541
4045 2 10.9751 34.1588 5.25797
449 1 12.3853 35.5252 1.20254
450 1 12.3275 35.5791 3.83727
446 2 10.9432 37.0366 2.42013
441 1 9.64836 35.6596 1.0985
435 2 8.14745 34.2053 2.25847
442 1 9.49623 35.7283 3.93696
4036 2 8.09532 36.9007 5.28812
4105 2 10.7904 39.8336 5.30837
509 1 12.5919 38.2698 1.04513
452 1 12.1815 38.4329 3.93121
443 1 9.55323 38.2997 1.1041
444 1 9.32983 38.4731 3.99307
495 2 8.05293 39.8535 2.47476
4041 1 9.40602 35.5088 6.6531
4043 1 9.46343 38.3181 6.77755
4051 1 12.4714 38.3605 6.64768
4112 2 11.0603 42.5365 10.9246
4145 1 1.24299 46.816 6.69209
558 1 6.56479 47.0259 4.00256
4047 2 13.6899 34.2428 8.23316
4153 2 5.15823 45.5316 5.19386
485 1 0.880244 40.924 1.18347
487 1 1.08293 44.1286 0.870258
494 2 5.1996 42.8362 2.36097
488 1 0.886053 43.7339 3.77897
489 1 3.52686 41.1816 0.798482
543 2 2.3173 45.4572 2.4299
490 1 4.03286 41.2229 3.83301
4084 1 1.06977 40.9781 3.87397
491 1 4.07597 44.0311 0.780556
492 1 3.77011 43.999 3.72395
482 2 2.46241 42.5966 5.13189
4085 1 1.00093 41.2887 6.77703
4087 1 1.10404 43.9455 6.62786
499 1 6.75182 44.201 1.12745
497 1 6.56497 41.3959 1.163
362 2 -0.415618 31.5778 2.71338
498 1 6.68521 41.5433 4.04341
4170 1 12.3345 46.8808 9.57423
327 2 13.7078 22.8098 2.60534
4091 1 3.87331 44.1028 6.56725
335 1 13.6529 25.9642 2.3357
7697 1 6.79589 41.171 12.3639
445 2 10.9535 34.305 -0.323132
7687 1 0.925311 44.1729 12.0731
500 1 6.56004 44.3712 3.65017
4097 1 6.83122 41.3576 6.88317
4099 1 6.81504 43.9442 6.49642
569 1 12.3985 43.8651 0.986545
4165 2 10.9546 45.4649 5.34666
510 1 12.5787 41.1993 3.88253
511 1 12.3241 41.0034 0.907603
506 2 11.0161 42.626 2.42372
501 1 9.54593 41.2185 1.12178
555 2 8.10688 45.7056 2.49688
502 1 9.7377 41.2523 3.74232
4096 2 8.15486 42.7222 5.11469
503 1 9.61373 44.1529 1.14859
504 1 9.60056 44.1483 4.01421
565 1 12.2051 43.9792 3.84216
4101 1 9.59454 41.3071 6.60593
7765 2 11.0238 45.7654 11.0696
3988 2 13.536 31.2209 5.33955
4103 1 9.63299 44.1045 6.87867
387 2 13.5839 28.1928 2.91136
4111 1 12.3751 43.9591 9.51552
3847 1 0.860799 21.5145 6.69627
3907 1 0.947797 27.3259 6.68048
3911 1 3.77459 26.8424 6.66275
3909 1 3.69488 24.2191 6.69307
3905 1 0.892262 24.421 6.55998
3919 1 6.54868 27.0696 6.63314
4106 2 11.0958 42.6035 7.78758
328 2 13.6168 25.6007 -0.114
3852 1 1.02189 21.4504 9.39137
7513 2 5.15554 22.999 10.9141
7505 1 1.23601 24.5131 12.2339
3906 1 0.900288 24.3171 9.40042
7447 1 0.758035 21.6074 12.3336
7459 1 3.68423 21.412 9.43843
3914 2 5.29624 25.6302 7.93836
7509 1 3.92859 24.4549 12.311
3903 2 2.33142 22.8571 8.01822
3910 1 3.56887 24.2142 9.60333
7504 2 2.32775 25.729 10.7946
7451 1 3.57028 21.6233 12.1936
7515 1 6.11908 21.079 12.1454
7507 1 0.959284 27.1657 12.1986
7517 1 6.61077 24.3819 12.1533
3908 1 0.797892 27.2043 9.31553
3912 1 3.66686 27.1544 9.39762
7511 1 3.84889 27.2796 12.2596
3860 1 6.44121 21.2601 9.35527
3918 1 6.23932 24.1578 9.228
7519 1 6.9429 27.1109 12.2506
3863 1 9.15884 21.4628 6.60531
3931 1 12.0727 27.0138 6.96297
3923 1 9.33563 26.9973 6.62508
3927 2 13.6126 22.8499 8.23254
3929 1 12.2001 24.1991 6.72478
7528 2 13.2422 25.6824 10.9913
7525 2 10.5497 22.6758 10.897
7529 1 12.5269 24.3411 12.6434
3930 1 12.066 24.1252 9.37793
7471 1 12.075 21.5253 12.1815
3926 2 10.713 25.6298 8.12305
3872 1 12.1607 21.3129 9.44092
7521 1 10.1355 24.6509 11.9836
3915 2 7.85048 22.7372 7.95854
3922 1 9.08469 24.0703 9.51544
7516 2 8.1746 25.5799 10.9701
3864 1 9.396 21.3082 9.38874
7463 1 9.28325 21.3892 12.1519
7531 1 12.4811 27.2897 12.4367
3932 1 12.175 27.0511 9.61796
3920 1 6.55976 26.8947 9.38972
3924 1 9.3177 27.0333 9.35526
3968 1 0.966596 30.018 6.52257
3971 1 3.96452 32.7176 6.45642
3977 1 6.4692 29.7788 6.75899
4109 1 12.523 41.1948 6.64805
3987 2 13.5814 28.502 8.20234
7573 2 5.39351 28.4289 10.8527
3963 2 2.36505 28.5583 8.13122
7565 1 1.18829 29.9453 12.0285
3966 1 1.10411 30.0154 9.20512
7567 1 1.04838 32.9838 9.59224
3974 2 5.33445 31.2419 7.92661
7569 1 4.02305 30.1815 12.4246
3970 1 4.05354 29.8779 9.3974
7564 2 2.71916 31.2826 10.8517
7571 1 3.08362 32.9584 12.2021
3972 1 3.92424 32.8455 9.29214
7579 1 6.16482 32.616 12.187
3980 1 6.44744 32.8209 9.53328
3978 1 6.6737 29.8423 9.44775
7577 1 6.83094 29.9362 12.1688
3981 1 9.3576 29.8717 6.64015
3983 1 9.42155 32.6926 6.65801
7523 1 9.75795 26.9971 12.3667
7585 2 10.7696 28.5967 11.0703
3975 2 7.92547 28.3481 8.14627
7589 1 12.3614 29.9775 12.2277
7591 1 12.4605 32.8248 12.1893