LAMMPS (29 Oct 2020)
OMP_NUM_THREADS environment is not set. Defaulting to 1 thread. (../comm.cpp:94)
  using 1 OpenMP thread(s) per MPI task
OMP_NUM_THREADS environment is not set. Defaulting to 1 thread. (../comm.cpp:94)
  using 1 OpenMP thread(s) per MPI task
Lattice spacing in x,y,z = 5.5788000 5.5788000 5.5788000
Created orthogonal box = (0.0000000 0.0000000 0.0000000) to (27.894000 334.72800 27.894000)
  2 by 13 by 2 MPI processor grid
Changing box ...
  triclinic box = (0.0000000 0.0000000 0.0000000) to (27.894000 334.72800 27.894000) with tilt (0.0000000 0.0000000 0.0000000)
Created 12000 atoms
  create_atoms CPU = 0.006 seconds
Lattice spacing in x,y,z = 5.5788000 5.5788000 5.5788000
Created 6000 atoms
  create_atoms CPU = 0.002 seconds
12000 atoms in group oxygen
6000 atoms in group uranium
Setting atom values ...
  22 settings made for type/ratio
Setting atom values ...
  22 settings made for type/ratio
22 atoms in group anti_oxygen
22 atoms in group anti_uranium
Setting atom values ...
  22 settings made for type
Setting atom values ...
  22 settings made for type
Setting atom values ...
  12000 settings made for charge
Setting atom values ...
  6000 settings made for charge
PPPM initialization ...
  using 12-bit tables for long-range coulomb (../kspace.cpp:328)
  G vector (1/distance) = 0.29916851
  grid = 40 240 40
  stencil order = 5
  estimated absolute RMS force accuracy = 0.00015502622
  estimated relative force accuracy = 1.0765975e-05
  using single precision MKL FFT
  3d grid and FFT values/proc = 18225 7600
Neighbor list info ...
  update every 1 steps, delay 0 steps, check yes
  max neighbors/atom: 2000, page size: 100000
  master list distance cutoff = 13
  ghost atom cutoff = 13
  binsize = 6.5, bins = 5 52 5
  2 neighbor lists, perpetual/occasional/extra = 2 0 0
  (1) pair coul/long, perpetual
      attributes: half, newton on
      pair build: half/bin/newton/tri
      stencil: half/bin/3d/newton/tri
      bin: standard
  (2) pair eam/alloy, perpetual, copy from (1)
      attributes: half, newton on
      pair build: copy
      stencil: none
      bin: none
Setting up cg style minimization ...
  Unit style    : metal
  Current step  : 0
WARNING: Energy due to 3 extra global DOFs will be included in minimizer energies
Per MPI rank memory allocation (min/avg/max) = 10.42 | 10.45 | 10.47 Mbytes
Step Temp E_pair E_mol TotEng Press Volume 
       0            0   -232429.76            0   -232429.76    14303.058    260443.57 
     829            0   -235528.01            0   -235528.01    138.17647    263794.26 
Loop time of 14.0721 on 52 procs for 829 steps with 18000 atoms

99.6% CPU use with 52 MPI tasks x 1 OpenMP threads

Minimization stats:
  Stopping criterion = linesearch alpha is zero
  Energy initial, next-to-last, final = 
     -232429.763555041  -235528.010984748  -235528.010984748
  Force two-norm initial, final = 5386.2722 45.547724
  Force max component initial, final = 3798.0178 23.180158
  Final line search alpha, max atom move = 4.4688628e-12 1.0358894e-10
  Iterations, force evaluations = 829 1162

MPI task timing breakdown:
Section |  min time  |  avg time  |  max time  |%varavg| %total
---------------------------------------------------------------
Pair    | 7.4609     | 7.8933     | 8.4496     |   7.9 | 56.09
Bond    | 9.9637e-05 | 0.00015721 | 0.00025528 |   0.0 |  0.00
Kspace  | 2.32       | 2.8823     | 3.3193     |  13.2 | 20.48
Neigh   | 0.020878   | 0.023581   | 0.028279   |   1.0 |  0.17
Comm    | 0.27027    | 0.27736    | 0.28715    |   0.6 |  1.97
Output  | 0          | 0          | 0          |   0.0 |  0.00
Modify  | 0          | 0          | 0          |   0.0 |  0.00
Other   |            | 2.995      |            |       | 21.29

Nlocal:        346.154 ave         412 max         300 min
Histogram: 4 9 5 5 10 8 8 1 1 1
Nghost:        5656.83 ave        5820 max        5500 min
Histogram: 2 10 7 1 1 11 9 3 5 3
Neighs:       111624.0 ave      132960 max       96226 min
Histogram: 2 9 7 4 10 9 8 1 1 1

Total # of neighbors = 5804426
Ave neighs/atom = 322.46811
Ave special neighs/atom = 0.0000000
Neighbor list builds = 6
Dangerous builds = 0
PPPM initialization ...
  using 12-bit tables for long-range coulomb (../kspace.cpp:328)
  G vector (1/distance) = 0.29898277
  grid = 40 240 40
  stencil order = 5
  estimated absolute RMS force accuracy = 0.00015628065
  estimated relative force accuracy = 1.0853091e-05
  using single precision MKL FFT
  3d grid and FFT values/proc = 18225 7600
Setting up Verlet run ...
  Unit style    : metal
  Current step  : 0
  Time step     : 0.001
Per MPI rank memory allocation (min/avg/max) = 10.56 | 10.59 | 10.61 Mbytes
Step Dt Time Atoms Temp PotEng KinEng Press Volume v_latt 
       0        0.001            0    18000         1200   -235528.02     2791.864    11442.214    263794.26    5.6026464 
   50000        0.001           50    18000    1211.5653   -233592.26    2818.7713    -759.2886    270958.36    5.6528892 
  100000        0.001          100    18000    1198.4569   -233599.56    2788.2739   -1477.7857     270986.2    5.6530824 
Loop time of 946.095 on 52 procs for 100000 steps with 18000 atoms

Performance: 9.132 ns/day, 2.628 hours/ns, 105.698 timesteps/s
99.8% CPU use with 52 MPI tasks x 1 OpenMP threads

MPI task timing breakdown:
Section |  min time  |  avg time  |  max time  |%varavg| %total
---------------------------------------------------------------
Pair    | 548.38     | 561.5      | 580.87     |  26.4 | 59.35
Bond    | 0.0099304  | 0.014802   | 0.019592   |   1.8 |  0.00
Kspace  | 193.72     | 213.81     | 227.59     |  44.7 | 22.60
Neigh   | 10.365     | 10.805     | 11.443     |   9.6 |  1.14
Comm    | 26.765     | 27.953     | 29.16      |  10.3 |  2.95
Output  | 0.0094933  | 0.0095076  | 0.0098447  |   0.0 |  0.00
Modify  | 114.79     | 121.52     | 127.43     |  26.1 | 12.84
Other   |            | 10.49      |            |       |  1.11

Nlocal:        346.154 ave         370 max         325 min
Histogram: 1 2 12 7 10 4 5 5 5 1
Nghost:        5515.23 ave        5660 max        5367 min
Histogram: 4 1 8 6 8 5 7 7 2 4
Neighs:       107576.0 ave      116241 max      100084 min
Histogram: 1 2 13 11 6 5 3 6 3 2

Total # of neighbors = 5593965
Ave neighs/atom = 310.77583
Ave special neighs/atom = 0.0000000
Neighbor list builds = 2707
Dangerous builds = 0
System init for write_data ...
PPPM initialization ...
  using 12-bit tables for long-range coulomb (../kspace.cpp:328)
  G vector (1/distance) = 0.29843271
  grid = 40 240 40
  stencil order = 5
  estimated absolute RMS force accuracy = 0.0001610067
  estimated relative force accuracy = 1.1181297e-05
  using single precision MKL FFT
  3d grid and FFT values/proc = 18225 7600
Total wall time: 0:16:00
