ITEM: TIMESTEP
500000
ITEM: NUMBER OF ATOMS
18000
ITEM: BOX BOUNDS xy xz yz pp pp pp
-1.4202534649797732e-01 2.8036025346498917e+01 0.0000000000000000e+00
-1.5623036317369574e+00 3.3629030363175048e+02 0.0000000000000000e+00
-1.4192016164528973e-01 2.8035920161647571e+01 0.0000000000000000e+00
ITEM: ATOMS id type x y z
1 1 1.17031 0.0141617 1.28888
2 1 4.05842 -0.0400955 1.3514
3 1 3.95088 -0.10729 4.12322
4 1 1.29266 -0.00917187 4.10251
5 1 1.1654 2.62537 1.16265
6 1 3.87647 2.57076 1.13696
7 1 4.08404 2.56018 3.97113
8 1 1.30576 2.82949 4.08446
12016 2 8.10352 6.73885 -0.191752
10 1 9.57646 2.48449 1.13921
11 1 9.40529 -0.073812 3.95107
12 1 6.82935 2.61717 4.01631
13 1 6.78312 5.48994 1.18281
14 1 9.62893 5.47985 1.15875
15 1 9.67875 2.66601 3.92143
16 1 6.8273 5.4418 4.04768
20 1 12.3291 2.46895 3.97695
18 1 12.3417 -0.513602 4.11016
19 1 12.4381 5.48957 3.9233
15042 2 13.6741 20.7765 2.69234
21 1 0.866328 5.64729 1.10385
22 1 3.87816 5.3614 0.985442
23 1 3.97897 5.17831 3.70664
24 1 1.07689 5.45386 3.90702
25 1 1.01504 8.36144 1.13845
26 1 3.86298 8.13729 1.24413
27 1 3.90008 8.228 4.09131
28 1 1.16764 8.36585 4.1375
6131 1 12.5039 16.3739 6.64571
30 1 6.74677 8.29428 1.17085
31 1 9.6807 5.5342 4.15876
32 1 6.67471 8.27193 3.95228
12141 2 2.36333 15.2123 13.9074
34 1 9.47164 8.15531 0.936264
35 1 9.71093 8.35178 3.8302
36 1 6.53954 11.1153 6.73666
37 1 12.3497 5.73996 1.12672
38 1 12.4405 8.27183 3.89146
39 1 12.3683 8.50584 1.10858
40 1 12.4164 11.0544 4.06958
41 1 1.06922 11.2057 1.16116
42 1 3.71135 11.0804 1.1095
43 1 3.77778 10.9127 4.0764
44 1 1.03148 11.1139 4.00834
45 1 1.2717 13.8982 1.40492
46 1 3.97355 13.9251 1.22184
47 1 3.76272 13.7361 4.17819
48 1 1.05334 13.8983 4.17732
49 1 6.63961 11.1396 3.83028
50 1 9.57281 11.1723 1.28599
51 1 9.68554 11.1378 3.88945
52 1 8.11618 9.7141 5.53606
53 1 6.60059 13.9576 1.28897
54 1 9.54661 13.9771 1.13951
15121 2 13.6827 23.7061 10.9584
56 1 6.55383 13.9692 3.93542
57 1 12.5088 11.2946 1.27184
55 1 12.165 13.6398 4.46678
59 1 12.3813 13.8959 1.26331
15116 2 13.7722 18.0787 11.2111
61 1 1.25985 16.7771 1.30919
62 1 4.03337 16.5708 1.32388
63 1 3.96549 16.5397 4.17285
64 1 1.14587 16.8711 4.00597
65 1 1.17399 19.6604 1.39608
66 1 4.01551 19.4511 1.23438
67 1 4.06316 19.4433 4.10815
68 1 1.12381 19.6281 4.09721
69 1 6.80079 16.7005 1.20261
70 1 9.55939 16.7505 1.09593
71 1 9.51348 16.8018 4.03739
72 1 6.56158 16.6667 3.99819
73 1 6.64038 19.31 1.18084
74 1 9.56208 19.6695 1.30956
75 1 9.45218 19.6855 4.05905
76 1 6.7071 19.5222 4.11591
77 1 12.3575 16.9211 0.973899
78 1 12.074 22.1532 3.99437
79 1 12.3828 19.6226 1.21573
5726 1 6.7665 -0.248178 9.62654
81 1 1.09021 22.5458 1.26446
82 1 3.98687 22.197 1.38912
83 1 3.89396 22.2805 4.26906
84 1 0.993026 22.2549 4.14371
85 1 6.58382 22.2808 1.17215
86 1 9.53119 22.3325 1.19123
87 1 9.20339 22.4826 3.91024
88 1 6.61757 22.2935 4.20652
372 1 6.6275 0.0472291 1.12569
15072 2 13.6862 9.66591 8.24032
91 1 1.14076 -0.144614 6.84425
92 1 3.94547 -0.197977 6.73545
93 1 3.97831 2.66685 9.63079
94 1 3.93501 -0.0828059 9.53739
95 1 1.20289 2.59705 6.96381
96 1 3.95538 2.51113 6.89041
97 1 7.06689 5.51468 6.94503
98 1 1.25206 2.42419 9.6555
99 1 6.7482 2.66416 6.83653
100 1 9.41919 -0.219936 6.8263
101 1 9.59542 -0.241057 9.5866
102 1 6.79857 2.54127 9.6701
103 1 6.76793 8.14668 7.3666
104 1 9.57893 2.53887 6.67767
105 1 9.59438 2.63668 9.60874
106 1 6.85368 5.55316 9.81889
107 1 12.4415 -0.217555 6.93968
108 1 12.4588 -0.147416 9.69975
109 1 12.4354 2.53524 6.94745
110 1 12.4208 2.46683 9.73228
111 1 1.40342 5.29479 6.83155
112 1 4.17251 5.44364 6.68725
113 1 3.94613 5.49849 9.54538
114 1 1.18387 5.31284 9.73053
115 1 0.979656 8.11327 6.78043
116 1 3.82122 8.15323 6.75859
117 1 4.02158 8.43218 9.64164
118 1 1.22429 7.94338 9.54722
119 1 9.59526 11.4184 6.86261
120 1 9.51402 8.15025 7.14917
121 1 9.63108 5.55353 7.04551
122 1 9.57022 8.08311 9.84004
123 1 6.97544 8.26637 9.79634
124 1 12.3151 8.36428 6.78202
125 1 9.4717 5.31266 9.6624
126 2 8.2559 6.86298 8.48329
127 1 12.5278 5.45076 6.90584
128 1 12.4778 5.38775 9.69907
15111 2 13.5326 12.5691 11.1563
130 1 12.477 8.04736 9.67973
131 1 1.0013 11.0434 6.76234
132 1 3.83824 10.8155 6.90045
133 1 3.82081 11.0217 9.63581
134 1 1.14314 10.8513 9.65675
135 1 1.07098 13.9659 6.78406
136 1 3.7969 13.8851 6.86598
137 1 3.80199 13.8921 9.72916
138 1 1.00056 13.6008 9.54714
139 1 9.75657 14.1864 7.09858
12088 2 5.4995 17.8581 8.34709
141 1 9.67196 11.1508 9.84795
142 1 6.70743 11.172 9.50368
143 1 6.6858 13.7709 6.71505
144 1 9.26963 13.8243 4.4184
145 1 9.4409 13.9427 9.63598
146 1 6.66329 13.9032 9.6448
15106 2 13.7824 6.78207 11.1927
148 1 12.4235 10.9593 9.68291
149 1 9.46181 16.7435 6.80875
150 1 12.3658 13.9599 9.55977
151 1 1.06908 16.7758 6.80906
152 1 3.91409 16.6052 6.86845
153 1 3.99442 16.7963 9.78557
154 1 1.07837 16.6137 9.47846
155 1 0.928665 19.3971 6.76885
156 1 3.94334 19.4361 6.86997
157 1 3.73076 19.6029 9.77337
158 1 0.910472 19.5271 9.72741
159 1 6.64288 16.4454 6.96886
160 1 12.2175 19.3875 4.17192
161 1 9.38474 16.8982 9.77864
162 1 6.9421 16.7176 9.61064
163 1 6.75594 19.2319 6.89798
164 1 9.49818 19.2983 6.8543
165 1 9.3636 19.5137 9.71744
166 1 6.36694 19.5113 9.78008
12050 2 10.7678 23.7345 2.56953
168 1 12.3431 16.8101 9.74896
169 1 12.2162 22.0333 6.76854
170 1 12.2229 19.5749 9.73312
171 1 1.0049 22.3155 6.94024
172 1 3.59038 22.3479 6.93842
173 1 3.86214 22.3007 9.54864
174 1 1.12084 22.163 9.92041
175 1 6.58365 22.1737 7.12008
176 1 9.49507 22.2723 6.82996
177 1 9.67876 22.1915 9.74903
178 1 6.85512 22.3228 9.80348
412 1 6.61906 11.1785 1.19809
180 1 12.3666 22.429 9.51884
181 1 1.08741 -0.141337 12.4128
182 1 3.87835 -0.155967 12.4486
183 1 1.1622 2.7818 12.4251
184 1 4.08891 2.52652 12.4294
185 1 6.73472 -0.274111 12.4966
186 1 9.57419 -0.292245 12.2647
187 1 6.86576 2.53961 12.4812
188 1 9.52244 2.62312 12.4722
189 1 12.4385 0.0240638 12.4826
190 1 12.3711 2.8503 12.4324
191 1 1.15201 5.38897 12.5306
192 1 3.87694 5.38662 12.5448
193 1 0.974642 8.24376 12.178
194 1 3.74214 8.17343 12.3804
195 1 6.92824 5.32235 12.6234
196 1 9.72059 5.39928 12.6318
197 1 6.63173 8.09683 12.4381
198 1 9.62722 8.27506 12.5828
199 1 12.645 5.40156 12.5646
200 1 12.3715 8.36478 12.4911
201 1 1.14212 11.2044 12.3935
202 1 3.97647 11.1076 12.4361
203 1 0.970993 13.9421 12.3406
204 1 3.79077 13.8956 12.5017
205 1 6.62301 11.0526 12.5673
206 1 9.63364 11.0125 12.5537
207 1 6.72054 13.825 12.5043
208 1 9.50482 13.8525 12.4331
209 1 12.2158 11.1048 12.5225
210 1 12.1299 13.9263 12.457
211 1 1.09349 16.7338 12.45
212 1 3.94184 16.6756 12.9319
213 1 1.11642 19.4355 12.4552
214 1 3.88281 19.4337 12.6293
215 1 6.71038 16.6303 12.3521
216 1 9.47756 16.7955 12.6086
217 1 6.75192 19.4893 12.5514
218 1 9.67136 19.5768 12.5955
219 1 12.3565 16.5928 12.5225
220 1 12.3913 19.5856 12.5493
221 1 1.04481 22.084 12.6344
222 1 3.95963 22.4214 12.5448
223 1 6.70795 22.1408 12.6551
224 1 9.54226 22.3443 12.4623
225 1 12.5329 22.3334 12.3323
12125 2 11.0321 20.7956 11.1308
12110 2 10.9999 3.98728 11.0245
17 1 12.4259 2.75073 1.2173
12124 2 8.25135 23.6782 11.2662
6111 1 12.2397 10.9701 6.86781
12109 2 8.35025 6.71914 11.5802
60 1 13.5693 17.9097 2.92202
12008 2 5.45494 1.31173 2.56978
5723 1 6.78328 0.0673166 6.75895
12010 2 10.9364 1.1566 2.49546
12123 2 5.34644 20.9434 11.1131
12108 2 5.40872 4.03527 11.1609
12013 2 2.54023 4.03937 2.34828
12122 2 2.49231 23.7058 11.3253
12107 2 2.48843 6.79388 11.1516
12112 2 2.57189 12.2739 11.027
12017 2 8.29119 4.01629 2.51423
12018 2 5.21555 6.93543 2.55717
12104 2 8.18068 1.06523 10.9234
12020 2 11.1124 7.00983 2.60526
167 1 12.4334 19.2098 6.96387
5634 1 9.60836 -0.34373 1.15788
12023 2 2.35806 9.62255 2.62134
12120 2 10.6607 15.3587 11.1035
12102 2 2.65303 1.22498 11.1273
12113 2 5.32682 9.76411 11.1624
12027 2 7.99798 9.73497 2.56207
12028 2 5.22507 12.4459 2.58371
12100 2 10.9677 23.5775 8.16318
12030 2 11.1058 12.423 2.6848
12099 2 10.887 20.9156 5.43698
12098 2 5.23956 23.7463 8.43889
12033 2 2.52708 15.3112 2.69872
15101 2 13.8307 1.11423 11.0514
12097 2 7.969 20.8219 8.31356
12096 2 8.106 23.731 5.47695
12037 2 8.11717 15.2015 2.54451
12038 2 5.46121 18.0211 2.64231
12095 2 5.21457 20.8039 5.56132
12040 2 11.0632 18.1721 2.52027
5633 1 6.78994 -0.0687599 3.90934
12093 2 2.29909 20.9842 8.2999
12043 2 2.65441 20.9129 2.73343
89 1 12.45 22.2744 1.25399
12092 2 2.48246 23.7812 5.47108
12087 2 8.12251 15.2113 8.10123
12047 2 7.98627 20.9886 2.64424
12048 2 5.22717 23.7036 2.56195
12090 2 10.8919 18.1359 8.44116
5639 1 12.2907 -0.229065 1.36414
12119 2 8.0921 18.2123 11.0703
12052 2 2.5143 1.17075 5.46386
12086 2 8.02714 17.9215 5.4426
12118 2 5.23361 15.2705 11.0719
15091 2 13.7628 23.5985 5.45744
12056 2 8.20137 1.19751 5.33944
5718 1 1.0738 -0.246263 9.59523
12058 2 5.3354 1.15838 8.0809
9 1 6.88622 2.78152 1.12909
12060 2 11.114 1.23297 8.28646
12117 2 2.50622 18.1723 11.056
12062 2 2.48233 6.84974 5.41522
12063 2 2.66217 3.97523 8.36574
12089 2 10.4924 15.2635 5.34554
12065 2 5.36128 3.94149 5.32393
12066 2 8.24491 6.9307 5.13738
12067 2 8.19973 3.65587 8.12284
12068 2 4.94836 6.84711 8.27095
12069 2 11.0497 4.07879 5.46776
12070 2 11.3694 6.72674 8.32784
12115 2 11.0269 9.68179 11.0715
12072 2 2.42189 12.338 5.42365
12073 2 2.47653 9.44531 8.1289
12114 2 8.11213 12.3912 11.2722
12075 2 5.32601 9.57636 5.46534
12076 2 8.0396 12.1366 5.26543
12077 2 8.09659 10.0044 7.96555
12078 2 5.12542 12.4762 8.05225
12079 2 10.7293 9.60627 5.36814
12080 2 11.0879 12.5277 8.21895
12003 2 2.60708 -1.57419 2.65147
12082 2 2.41513 18.1435 5.44037
12083 2 2.45964 15.2452 8.17323
140 1 12.7471 13.7437 6.9246
12085 2 5.251 15.2133 5.33927
12134 2 5.39141 6.73702 13.917
15012 2 13.822 4.05043 2.6544
15092 2 13.7191 20.817 8.32407
147 1 12.2508 16.1899 3.96308
15032 2 13.7552 15.694 2.13426
12129 2 5.40847 1.14836 13.8698
15051 2 13.7766 1.14936 5.55153
15083 2 13.678 15.0636 5.28572
12055 2 5.38322 -1.54725 5.46722
15022 2 13.7876 9.68637 2.60983
15052 2 13.9538 -1.61873 8.31539
12004 2 -0.168526 1.45024 2.51939
12061 2 -0.0288982 3.97022 5.46711
15081 2 13.8895 18.0659 5.30294
15071 2 13.7528 12.0139 5.44182
12032 2 2.52022 18.1473 0.00107328
15061 2 13.851 6.89982 5.42414
15082 2 13.7639 15.4105 8.5438
12130 2 11.0175 1.26025 13.6343
15141 2 13.8099 15.289 13.9032
15136 2 13.7478 9.68444 13.9098
12148 2 8.19627 20.91 14.0422
15146 2 13.9265 20.9681 13.8876
15001 2 13.7192 1.28979 -0.0424682
12136 2 2.63006 9.42268 13.6472
12135 2 11.0315 6.82352 13.9665
12150 2 10.8064 23.6002 13.8642
226 1 3.97149 -0.102939 15.2403
227 1 1.18249 -0.0577634 15.1492
228 1 3.84562 2.70833 15.4718
229 1 0.930394 2.79449 15.1331
230 1 9.74661 -0.062371 15.0873
231 1 6.57116 -0.244247 15.3653
232 1 9.61835 2.62285 15.1698
233 1 6.67895 2.69877 15.3412
234 1 12.494 -0.243772 15.2614
235 1 12.513 2.31866 15.1766
236 1 3.80196 5.50339 15.21
237 1 1.13076 5.44803 15.2181
238 1 3.81483 8.27526 15.2856
239 1 0.969576 8.20227 15.0512
240 1 9.56807 5.52014 15.2842
241 1 6.68532 5.57967 15.462
242 1 9.47507 8.19701 15.5734
243 1 6.81913 8.38784 15.3582
244 1 12.4105 5.4981 15.2402
245 1 12.4702 8.16922 15.1871
246 1 4.08426 10.9834 15.3486
247 1 1.14944 10.9335 15.1335
248 1 3.94651 13.8615 15.3576
249 1 1.02081 13.7837 15.1567
250 1 9.58576 10.8312 15.4022
251 1 6.81953 11.1507 15.2597
252 1 9.66731 13.8027 15.3735
253 1 6.97607 13.9681 15.3186
254 1 12.3972 10.9615 15.3634
255 1 12.3937 13.9359 15.1757
256 1 3.79309 16.7744 15.4005
257 1 0.972512 16.6675 15.3277
258 1 3.8358 19.6493 15.4883
259 1 1.02999 19.4363 15.2538
260 1 9.52994 16.6373 15.4076
261 1 6.71176 16.7396 15.2342
262 1 9.64109 19.4083 15.5777
263 1 6.79639 19.5207 15.3864
264 1 12.2776 16.7165 15.3681
265 1 12.304 19.5224 15.3458
266 1 3.84237 22.4365 15.3693
267 1 1.12996 22.3328 15.4066
268 1 9.41873 22.1281 15.2944
269 1 6.65618 22.4934 15.5304
270 1 12.3847 22.3221 15.1964
271 1 1.12985 -0.177544 17.956
272 1 3.91866 -0.0283646 18.0761
273 1 3.95268 -0.0617023 20.9809
274 1 1.03225 -0.00253902 20.8021
275 1 1.03063 2.51244 17.9363
276 1 4.22239 2.73806 18.0218
277 1 3.98952 2.62131 20.9291
278 1 1.13444 2.58387 20.7576
279 1 6.82954 0.0201112 18.2454
280 1 9.76577 -0.142392 17.8807
281 1 9.69226 -0.141743 20.6154
282 1 6.81492 -0.325629 20.9023
283 1 7.05452 2.64818 18.1041
284 1 9.62784 2.72116 17.9887
285 1 9.53731 2.73327 21.0487
286 1 6.60283 2.53232 21.0772
287 1 12.3692 -0.260367 18.0697
288 1 12.4754 -0.148174 20.9347
289 1 12.4205 2.62658 17.9534
290 1 12.4196 2.63187 20.9947
291 1 1.14853 5.49392 17.9662
292 1 3.72775 5.498 17.9897
293 1 3.88417 5.44671 20.9103
294 1 1.15513 5.37945 20.8307
295 1 1.14126 8.47498 17.9614
296 1 3.83876 8.29658 18.1382
297 1 4.13289 8.3358 20.8347
298 1 1.07446 8.01486 20.8988
299 1 6.70061 5.41317 18.2529
300 1 9.49852 5.45518 18.2209
301 1 9.68322 5.52067 21.0232
302 1 6.78897 5.44159 21.0493
303 1 6.80931 8.18572 18.1414
304 1 9.80432 8.2978 18.194
305 1 9.59221 8.31701 20.9811
306 1 6.8982 8.41942 20.8855
307 1 12.2654 5.38141 18.1477
308 1 12.4307 5.52044 20.8979
309 1 12.4113 8.16384 18.2365
310 1 12.3379 8.28247 20.9212
311 1 1.24659 11.2828 18.1274
312 1 3.88979 11.1098 18.2291
313 1 3.93659 11.0337 20.9053
314 1 1.18686 11.0058 20.9558
315 1 1.14556 14.0394 17.9998
316 1 4.13888 13.938 17.9283
317 1 3.97699 13.7349 20.8112
318 1 1.08516 13.9571 20.749
319 1 6.82235 11.1052 18.0595
320 1 9.6639 11.1932 18.1019
321 1 9.72941 11.2182 20.8988
322 1 6.87443 11.2286 20.8681
323 1 6.75112 13.9539 18.1167
324 1 9.51166 14.1351 18.2725
325 1 9.55508 13.858 21.1051
326 1 6.60044 14.0203 20.9344
327 1 12.3525 11.0508 18.1319
328 1 12.4022 11.2921 21.0024
329 1 12.3382 14.0834 18.1061
330 1 12.415 13.9077 20.824
331 1 1.16379 16.9563 18.1491
332 1 4.01882 16.766 18.098
333 1 3.82493 16.5948 21.1562
334 1 1.19249 16.6263 21.0135
335 1 1.19168 19.6275 18.1245
336 1 3.90067 19.4572 18.197
337 1 3.95094 19.488 21.187
338 1 1.32836 19.5529 21.0853
339 1 6.87806 16.6208 18.0826
340 1 9.49176 16.6842 18.1464
341 1 9.37235 16.5548 21.0641
342 1 6.5267 16.832 21.1582
343 1 6.84965 19.3973 18.2963
344 1 9.43164 19.3492 18.4105
345 1 9.46288 19.495 20.9153
346 1 6.62301 19.7245 21.0294
347 1 12.2501 16.797 18.1852
348 1 12.3621 16.6848 20.9401
349 1 12.34 19.9224 18.0786
350 1 12.1998 19.5759 20.9542
351 1 1.11217 22.6245 18.1602
352 1 3.94709 22.2856 18.2804
353 1 3.96682 22.4632 21.1843
354 1 1.09104 22.3718 20.9262
355 1 6.78775 22.2339 18.3104
356 1 9.49146 22.3699 18.1391
357 1 9.66913 22.2694 21.1383
358 1 6.79488 22.5511 21.1441
359 1 12.3344 22.5659 18.0686
360 1 12.3225 22.444 20.8913
361 1 1.14172 -0.273448 23.6644
362 1 3.89263 0.0605655 23.7638
363 1 3.92352 -0.160699 26.5745
364 1 1.16662 -0.316599 26.6736
365 1 1.06278 2.63127 23.6807
366 1 3.97243 2.85464 23.8385
367 1 3.86437 2.71652 26.5787
368 1 0.864243 2.7432 26.585
369 1 6.70746 -0.0883642 26.6864
370 1 9.83188 0.107205 23.5971
371 1 9.51155 -0.167405 26.4294
15231 2 13.8405 18.1248 22.2389
373 1 6.93302 2.64212 23.8168
374 1 9.76408 2.95524 24.0137
375 1 9.44257 2.70393 26.7131
376 1 6.69309 2.84648 26.6493
377 1 12.5196 -0.101478 23.8851
378 1 12.406 -0.0689835 26.6223
379 1 12.52 2.4658 23.7822
380 1 12.5035 2.79653 26.6681
381 1 0.932349 5.55232 23.6177
382 1 3.74765 5.51878 23.7871
383 1 3.95215 5.4073 26.3166
384 1 0.975529 5.48827 26.5184
385 1 1.06789 8.31189 23.6472
386 1 3.79619 8.2291 23.4553
387 1 3.79058 8.1883 26.4627
388 1 1.04691 8.26477 26.3209
389 1 6.63442 5.37191 23.8703
390 1 9.71371 5.59332 23.8563
391 1 9.37723 5.50571 26.6169
392 1 6.85239 8.24973 26.723
393 1 6.86463 8.12999 23.7914
394 1 9.71629 8.33483 23.611
395 1 9.72965 8.41708 26.5172
396 1 5.15609 9.8823 25.1679
397 1 12.5612 5.43432 23.6755
398 1 12.2001 5.76114 26.4592
399 1 12.3648 8.50605 23.6594
400 1 12.5633 8.46067 26.5834
401 1 1.02269 11.321 23.6412
402 1 3.96396 11.2014 23.587
403 1 3.78411 11.5356 26.4348
404 1 1.11456 11.2394 26.4325
405 1 1.11349 14.0519 23.7318
406 1 3.95974 14.1986 23.5851
407 1 4.06065 14.1051 26.5109
408 1 0.894127 14.0692 26.6318
409 1 6.8292 11.1937 23.505
410 1 9.5185 11.0037 23.7001
411 1 9.78012 11.2376 26.6791
15241 2 13.8618 23.7977 22.423
413 1 6.68967 13.9997 23.6114
414 1 9.81657 13.8233 23.9854
415 1 9.63924 13.9929 26.5497
416 1 6.8483 13.8965 26.3942
417 1 12.3402 11.3664 23.6938
418 1 12.6355 11.277 26.2489
419 1 12.6049 14.2742 23.6625
420 1 12.3848 13.9808 26.6143
421 1 1.03952 16.9468 23.7809
422 1 3.90943 16.8359 23.8268
423 1 4.02538 16.9022 26.6083
424 1 1.03435 16.902 26.8577
425 1 1.13381 19.689 23.8873
426 1 3.87685 19.671 23.8648
427 1 3.91677 19.5893 26.5647
428 1 1.00269 19.7643 26.7331
429 1 6.77704 16.7866 23.8456
430 1 9.6759 16.7288 23.7472
431 1 9.42486 16.7244 26.52
432 1 6.86057 16.7338 26.5898
433 1 6.86215 19.5567 23.7285
434 1 9.47132 19.5486 23.7607
435 1 9.6587 19.6138 26.536
436 1 6.68714 19.5424 26.6876
437 1 12.466 16.9164 23.7508
438 1 12.2434 16.8198 26.6358
439 1 12.4584 19.5524 23.7084
440 1 12.3315 19.4646 26.6276
441 1 1.05317 22.4549 23.7008
442 1 3.85597 22.4201 23.8691
443 1 3.90958 22.545 26.7667
444 1 0.951214 22.5238 26.5869
445 1 6.5855 22.4069 23.9846
446 1 9.3316 22.153 23.7022
447 1 9.46435 22.3263 26.6916
448 1 6.78038 22.3409 26.6899
449 1 12.4166 22.3293 23.8514
450 1 12.4737 22.2834 26.4185
15242 2 13.9003 20.8945 25.0302
12250 2 11.0812 23.6741 25.1647
12021 2 -0.178018 9.80007 27.7356
12009 2 10.8988 -1.64467 27.9721
15172 2 13.8048 9.59177 19.6609
15171 2 13.7003 12.4982 16.684
12249 2 11.0152 20.8353 22.5534
15182 2 13.6963 15.2904 19.6451
15191 2 13.7743 23.7951 16.843
15192 2 13.6371 21.0329 19.5316
15181 2 13.7403 18.2507 16.6562
12248 2 5.4099 23.8968 25.2712
5993 1 6.76906 -0.0299784 23.7568
15221 2 13.8653 12.6784 22.2884
15021 2 13.7524 12.5526 27.9617
12138 2 8.03393 9.72377 14.0811
15151 2 13.8485 1.09937 16.6367
12139 2 5.33594 12.5533 14.0007
12207 2 8.05155 -1.43843 25.1973
15212 2 13.7823 4.0578 25.1821
12159 2 11.0822 -1.52559 16.686
12019 2 10.9748 4.09132 27.9353
12223 2 2.69302 9.71542 25.0649
12232 2 2.52377 18.2144 22.4453
12225 2 5.3271 9.68858 22.3508
12247 2 8.07605 20.8433 25.3108
12152 2 2.54853 1.21616 16.5443
12006 2 8.09768 1.30017 27.9902
12246 2 8.35284 23.7808 22.4728
12235 2 5.32335 15.3616 22.3738
12156 2 8.33238 1.26411 16.8341
12227 2 7.94338 9.65477 25.2748
12158 2 5.42139 1.14632 19.4348
12230 2 11.0287 12.4096 25.0553
12160 2 11.1481 1.28519 19.4647
12245 2 5.41032 20.9657 22.477
12162 2 2.42218 6.94763 16.6573
12163 2 2.58776 3.90295 19.3659
15211 2 13.6716 6.99354 22.437
12165 2 5.39698 4.09917 16.7085
12166 2 8.25532 6.76462 16.7989
12167 2 8.17031 4.11896 19.6362
12168 2 5.08432 6.7591 19.4646
12169 2 11.0605 4.09054 16.675
12170 2 10.995 6.9232 19.6466
12243 2 2.44246 21.0516 25.2337
12172 2 2.5441 12.4387 16.7135
12173 2 2.58723 9.62279 19.5325
12242 2 2.40522 23.7809 22.4522
12175 2 5.30332 9.71584 16.8639
12176 2 8.24799 12.6056 16.8666
12177 2 8.171 9.66112 19.522
12178 2 5.48593 12.4107 19.4898
12179 2 11.0114 9.65645 16.7219
12180 2 11.0531 12.5624 19.4476
12233 2 2.63454 15.3918 25.2621
12182 2 2.53243 18.1155 16.7189
12183 2 2.60213 15.3624 19.4681
12222 2 2.49499 12.622 22.3462
12185 2 5.43738 15.2872 16.681
12186 2 8.14921 18.053 16.7686
12187 2 8.14418 15.2969 19.7192
12188 2 5.25804 18.2561 19.6748
12189 2 11.0448 15.2853 16.7696
12190 2 10.8607 18.0551 19.56
12226 2 8.20005 12.4449 22.3562
12192 2 2.54408 23.7579 16.8916
12193 2 2.65852 21.0855 19.7009
12229 2 10.9753 9.77837 22.2594
12195 2 5.32835 20.9795 16.7256
12196 2 8.05391 23.7073 16.8982
12197 2 8.23269 20.9229 19.6514
12198 2 5.39044 23.7213 19.6513
12199 2 10.8772 20.9273 16.5543
12200 2 10.9808 23.7422 19.6222
12240 2 10.957 18.1884 25.1546
12202 2 2.47666 1.23245 22.2573
12236 2 8.12792 18.185 22.3823
12239 2 10.9961 15.2883 22.532
12228 2 5.38075 12.4145 24.9412
12206 2 8.24739 1.19774 22.3101
29 1 6.69303 5.58029 26.5948
12208 2 5.39552 1.37966 25.2175
33 1 6.88579 11.1866 26.5171
12210 2 11.0402 1.21216 25.1815
12238 2 5.35006 18.2179 25.2541
12212 2 2.56226 6.77862 22.3464
12213 2 2.5146 3.99601 25.136
12237 2 8.16376 15.2743 25.2017
12215 2 5.36066 4.05998 22.4476
12216 2 8.25575 6.91209 22.3871
12217 2 8.20894 4.21441 25.192
12218 2 5.32909 7.0116 25.2464
12219 2 11.1761 4.0393 22.5643
12220 2 10.8648 7.07231 25.2119
12205 2 5.36966 -1.46752 22.4186
15162 2 13.8015 4.01502 19.4467
12029 2 10.9723 9.83358 27.9624
15011 2 13.7614 6.93789 27.9288
12025 2 5.25242 9.60268 27.7809
12153 2 2.58296 -1.44232 19.4654
12209 2 11.0163 -1.41874 22.4078
12042 2 2.3753 23.8403 27.9836
15161 2 13.7698 6.90024 16.7482
12140 2 10.8285 12.4505 14.0575
15232 2 13.8037 15.4274 25.315
15201 2 13.8428 1.16887 22.4401
12022 2 2.52675 12.5617 28.0119
12146 2 2.51465 20.9624 14.0021
12026 2 8.06746 12.4978 27.9971
12143 2 8.14322 15.4291 13.9959
12149 2 5.34002 23.6605 14.0821
12131 2 2.3988 3.96012 13.8529
12002 2 2.63872 1.21197 27.9856
12045 2 5.2458 20.9703 27.9618
15031 2 13.7576 18.2053 27.8501
12039 2 10.9438 15.2567 27.8654
12012 2 2.37607 6.76446 27.862
12035 2 5.35517 15.4293 27.9141
12184 2 -0.0675935 18.2 19.5386
12015 2 5.43689 4.05113 27.9311
12145 2 10.9425 18.0761 14.0009
12133 2 8.22492 3.96748 14.0185
12049 2 11.0916 21.0095 27.7357
12046 2 8.17351 23.7702 27.8616
12036 2 8.31198 18.2556 28.0161
15131 2 13.935 3.84596 13.9743
12144 2 5.42183 18.169 13.965
15041 2 13.9636 23.6214 27.9612
451 1 1.00546 25.1055 1.2477
452 1 3.76042 25.0792 1.18064
453 1 3.98228 25.1113 4.07388
454 1 1.18273 25.0814 3.95115
455 1 6.85698 24.9969 1.1862
456 1 9.74723 25.4301 1.27481
457 1 9.44606 25.1085 4.05559
458 1 6.57736 25.2451 3.97661
15282 2 13.7598 43.5787 2.86189
460 1 12.3633 25.1399 4.03223
461 1 1.18564 28.0503 1.40863
462 1 4.05477 27.7492 1.44299
463 1 4.01107 28.0987 4.2408
464 1 0.996759 27.8377 4.15014
465 1 1.15544 30.8485 1.51482
466 1 3.90026 30.5676 1.29429
467 1 1.33911 30.8465 4.03265
468 1 1.05707 33.7461 4.12116
469 1 6.92663 27.8257 1.22394
470 1 9.69443 28.0692 1.25479
471 1 9.61236 28.0682 3.91862
472 1 6.84779 28.0792 4.08761
473 1 6.83726 30.5951 1.31298
15272 2 13.8946 37.8499 2.81444
475 1 9.59192 33.4263 3.86368
476 1 6.9922 30.8819 3.84476
477 1 9.9487 30.7878 4.1365
15326 2 13.7868 46.3678 5.77003
479 2 11.0662 32.2256 2.55021
480 1 12.5702 30.8896 3.64881
481 1 1.01792 33.6916 1.34478
12265 2 5.31907 31.6071 -0.0895625
483 1 3.91593 33.6302 3.99225
484 1 1.29537 36.3161 4.04622
15363 2 13.6959 26.4939 13.9081
486 1 3.79184 35.7256 1.66491
487 1 4.08183 36.6101 4.22466
488 1 0.953732 36.672 1.15743
489 1 4.02355 30.915 4.05202
490 1 5.51556 33.1408 1.73737
491 1 8.08729 34.8721 2.26216
492 1 6.70863 33.793 4.26032
493 1 6.46202 36.4585 1.02235
494 1 9.90033 36.6172 1.28383
495 1 9.48086 36.3841 4.23247
496 1 6.69482 36.6356 4.14628
12368 2 10.8778 29.3657 13.7905
498 1 12.1563 33.718 4.23721
499 1 12.4944 36.4523 1.37
500 1 12.3168 36.6158 4.28845
501 1 1.07805 39.4369 1.26257
502 1 4.10117 39.0287 1.40679
503 1 3.91966 39.4397 4.04296
504 1 1.10364 39.2717 4.14319
505 1 1.01718 42.3023 1.5574
506 1 3.83544 41.977 1.54032
507 1 3.73211 42.1644 4.5127
508 1 0.873557 42.0979 4.33214
509 1 6.85774 39.2618 1.38113
510 1 9.81271 39.2826 1.40465
511 1 9.54725 39.2956 4.1448
512 1 6.81408 39.4061 4.25671
513 1 6.66384 42.0477 1.18739
514 1 9.61943 42.1502 1.24246
515 1 9.29118 41.931 4.06781
516 1 6.55776 42.2351 4.0958
517 1 12.4882 39.3394 1.46125
518 1 12.4457 39.4056 4.24633
519 1 12.4183 42.2701 1.4541
520 1 12.262 42.1958 4.20468
521 1 1.07044 45.0956 1.36672
522 1 4.01253 44.9298 1.30551
523 1 4.03261 44.9403 4.12511
524 1 1.24335 45.1679 4.11071
525 1 1.11209 47.6136 1.42912
526 1 3.84056 47.685 1.51975
527 1 3.98639 47.7636 4.414
528 1 1.11834 47.9552 4.30137
529 1 6.75766 44.8845 1.31005
530 1 9.62532 45.0908 1.31188
531 1 9.4725 45.0026 4.16131
532 1 6.87091 45.0092 3.89646
533 1 6.57193 47.7689 1.29023
534 1 9.27272 47.9422 1.24015
535 1 9.50856 47.8344 4.16193
536 1 6.6424 47.7424 3.98633
537 1 12.3404 44.8462 1.36729
538 1 12.313 44.9818 4.18472
539 1 12.3201 47.6915 1.23884
540 1 12.4147 47.8212 4.0198
541 1 1.15497 25.24 6.88424
542 1 4.09003 25.1388 6.89055
543 1 4.12214 25.2112 9.65412
544 1 1.11036 25.0301 9.59031
545 1 6.93752 25.138 7.01747
546 1 9.72101 25.0401 6.7059
547 1 9.71988 24.9498 9.65463
548 1 6.87069 25.099 9.9995
549 1 12.3979 27.83 6.78782
550 1 12.5143 25.2891 9.62656
551 1 1.2429 28.0744 6.68661
552 1 4.05004 27.9736 7.12791
553 1 4.01509 27.9905 9.79386
554 1 1.2554 27.9557 9.76372
555 1 1.23921 30.7671 6.79029
556 1 4.06334 31.0498 7.0923
557 1 3.98577 30.6711 9.74373
558 1 1.05947 30.6294 9.74295
559 1 6.79019 28.1231 6.90274
560 1 9.50993 27.8924 7.05858
561 1 9.68653 27.9172 9.83803
562 1 6.9089 27.9926 9.61787
563 1 6.8424 30.7696 6.76072
564 1 9.50179 30.6902 7.07217
565 1 9.65776 30.7533 9.71152
566 1 6.83504 30.8863 9.7361
567 1 12.3998 27.8454 3.95044
568 1 12.2862 27.9216 9.70195
569 1 12.3413 30.7807 6.65662
570 1 12.437 30.7843 9.58037
571 1 1.26065 33.5478 7.12497
572 1 4.0083 33.734 6.73931
573 1 3.95044 33.7072 9.61583
574 1 1.38535 33.5777 9.86667
575 1 1.16394 36.4296 6.90327
576 1 4.14584 36.7798 7.20227
577 1 4.0774 36.4725 9.96302
578 1 0.909938 36.3094 9.81139
579 1 6.65927 33.553 6.91953
580 1 9.36479 33.6522 6.97459
581 1 9.55222 33.6688 9.66929
582 1 6.70681 33.5569 9.75593
583 1 6.82668 36.3114 6.96115
584 1 9.5866 36.5624 6.90811
585 1 9.55822 36.439 9.73044
586 1 6.74396 36.5181 9.82679
587 1 12.1799 33.5419 7.13765
588 1 12.6054 33.5479 9.96475
589 1 12.3316 36.4098 7.02623
590 1 12.3359 36.3197 9.74105
591 1 1.26036 39.3318 7.16712
592 1 4.08115 39.4347 6.87387
593 1 3.89422 39.2957 9.68692
594 1 1.16847 39.0512 9.88961
595 1 1.22447 42.102 7.16806
596 1 3.94964 42.1996 7.11601
597 1 3.81801 42.1201 9.85827
598 1 1.06579 42.0314 10.1382
599 1 6.69127 39.2233 6.9176
600 1 9.37099 39.3857 7.1328
601 1 9.63304 39.198 9.78994
602 1 6.78331 39.2563 9.77014
603 1 6.8005 42.0628 7.07719
604 1 9.40713 42.1832 7.04296
605 1 9.47287 42.1603 9.80241
606 1 6.57229 42.0143 9.71784
607 1 12.1641 39.0713 6.95247
608 1 12.3444 39.1147 9.74679
609 1 12.3556 42.0822 6.95861
610 1 12.4462 42.0027 9.83622
611 1 1.17036 44.8691 6.74706
612 1 3.98258 44.9685 7.24393
613 1 3.72124 45.1862 9.87713
614 1 1.04833 44.9046 9.62016
615 1 0.893076 47.8228 7.09316
616 1 3.86511 47.6194 7.10561
617 1 3.77319 47.8633 9.93573
618 1 0.980771 47.7265 9.78335
619 1 6.72899 44.8526 6.7267
620 1 9.41196 45.0477 7.11051
621 1 9.33824 44.7457 9.75133
622 1 6.46456 45.0683 9.78808
623 1 6.68626 47.756 6.8653
624 1 9.53209 47.9077 6.97609
625 1 9.46971 47.7794 9.97916
626 1 6.7561 47.8581 9.88421
627 1 12.1449 44.9734 7.06803
628 1 12.1447 44.7938 9.80023
629 1 12.5912 47.6709 7.23985
630 1 12.1574 47.7291 10.0964
631 1 0.906775 24.9626 12.6004
632 1 3.92079 25.1607 12.5059
633 1 6.6873 24.8923 12.6134
634 1 9.56325 25.0032 12.6114
635 1 12.3347 25.1332 12.4779
636 1 1.24313 27.767 12.4538
637 1 4.23295 28.122 12.5775
638 1 1.15513 30.7418 12.4809
639 1 3.90228 30.862 12.3762
640 1 6.89702 28.011 12.398
641 1 9.48374 27.852 12.5153
642 1 6.89904 30.7523 12.4349
643 1 9.61308 30.9935 12.2474
644 1 12.5281 27.8216 12.6693
15351 2 13.713 40.6276 11.1448
646 1 1.20297 33.5815 12.6088
647 1 3.90352 33.6377 12.3227
648 1 1.23887 36.4216 12.5689
649 1 3.92451 36.3965 12.568
650 1 6.77296 33.4633 12.3811
651 1 9.58308 33.9101 12.4816
652 1 6.7227 36.4438 12.5106
653 1 9.61814 36.5901 12.6518
654 1 12.526 33.7322 12.7482
655 1 12.4379 36.6869 12.8373
656 1 1.28751 39.4069 12.6343
657 1 4.13765 39.3338 12.6025
658 1 1.08571 42.3867 12.8702
659 1 3.84947 42.0872 12.7386
660 1 7.0806 39.2743 12.4756
661 1 9.63233 39.3421 12.5798
662 1 6.67323 42.2616 12.4723
663 1 9.65251 42.0652 12.6325
664 1 12.3376 39.2971 12.3633
665 1 12.428 42.0683 12.4841
666 1 0.829404 45.1615 12.5088
667 1 3.78108 44.9211 12.6601
668 1 1.25119 47.8717 12.6
669 1 3.93879 47.6685 12.6188
670 1 6.53831 44.8018 12.5621
671 1 9.31814 44.8701 12.546
672 1 6.67046 47.6694 12.5403
673 1 9.5653 47.7193 12.7153
674 1 12.1546 44.8696 12.772
675 1 12.1862 47.63 12.7989
12363 2 10.8205 49.0749 11.3159
6553 1 12.4717 33.7816 1.40517
12253 2 2.56825 26.4004 2.53457
12362 2 5.168 49.2961 11.077
15296 2 13.7735 29.2722 5.53646
15297 2 13.8037 26.5547 8.26457
12257 2 8.21693 26.4778 2.80008
12258 2 5.37307 29.3976 2.7753
645 1 12.5058 30.6348 12.4325
12260 2 11.0621 29.1006 2.59753
12360 2 10.9692 43.6363 11.3193
179 1 12.3656 25.0131 6.81729
12263 2 2.59164 32.2085 2.73098
12359 2 8.10624 46.4035 11.2271
12286 2 8.17878 46.3504 -0.158568
15336 2 13.76 49.2957 8.5919
12267 2 7.89134 32.4415 2.4306
12268 2 5.44455 35.1562 3.09203
12345 2 11.0161 26.4999 11.1815
12270 2 10.872 35.2909 2.66953
12358 2 5.17927 43.5827 11.1653
12344 2 8.33077 29.3546 10.9549
12273 2 2.53893 37.7047 2.67406
12357 2 2.53225 46.3785 11.2954
12343 2 5.52369 26.6343 11.3342
917 1 12.3532 50.6671 1.38246
12277 2 8.16555 37.956 2.92925
12278 2 5.37357 40.7177 2.84328
15306 2 13.7077 35.1117 5.64858
12280 2 11.0787 40.7331 2.74286
12355 2 10.9027 37.8552 11.1937
6463 1 12.4737 30.8774 1.17872
12283 2 2.35018 43.6054 2.79278
12354 2 8.14069 40.7789 10.8643
902 1 3.83999 50.6817 1.24025
459 1 12.3677 27.6993 1.34492
12287 2 8.06706 43.484 2.68205
12288 2 5.28541 46.2879 2.70598
478 1 9.79701 30.7702 1.29101
12290 2 10.8611 46.4059 2.77808
12353 2 5.39563 37.861 11.2536
12292 2 2.46838 49.1158 2.84204
12342 2 2.52867 29.3114 11.0899
12294 2 8.06147 49.1997 2.65516
15316 2 13.7164 40.8469 5.6342
474 1 7.51718 32.9685 -0.0483569
12297 2 2.50132 29.4106 5.59313
12298 2 2.58896 26.566 8.31531
6451 1 12.3978 24.9632 1.09291
12300 2 5.35198 26.4574 5.42488
12301 2 8.26454 29.2611 5.50523
12302 2 8.22745 26.6273 8.38132
12303 2 5.4602 29.4698 8.35264
12304 2 11.0775 26.4407 5.49938
12305 2 11.0249 29.3905 8.37871
12352 2 2.6782 40.8142 11.3192
12307 2 2.52235 35.0008 5.50898
12308 2 2.56268 32.1425 8.38519
15356 2 13.637 46.3753 11.4854
12310 2 5.37626 32.2339 5.33744
12311 2 8.18821 35.1005 5.54276