ITEM: TIMESTEP
250000
ITEM: NUMBER OF ATOMS
18000
ITEM: BOX BOUNDS xy xz yz pp pp pp
-1.2333548046647420e-01 2.8017335480466290e+01 0.0000000000000000e+00
-1.6400540018229808e+00 3.3636805400181970e+02 0.0000000000000000e+00
-1.3754048980129047e-01 2.8031540489803067e+01 0.0000000000000000e+00
ITEM: ATOMS id type x y z
1 1 1.26859 -0.156867 1.27747
2 1 4.17762 -0.336984 1.16051
3 1 4.21713 -0.38076 4.0364
4 1 1.32979 -0.188179 3.96382
5 1 1.26654 2.74382 1.19783
6 1 4.1302 2.53747 1.16053
7 1 3.93565 2.57774 4.00766
8 1 1.18119 2.51427 3.90585
15121 2 14.0406 23.6806 11.1386
10 1 9.80556 2.45041 1.18106
11 1 9.9644 -0.166584 4.23673
12 1 6.9369 2.73823 4.03757
13 1 7.04686 5.51028 1.13972
14 1 10.0227 5.22253 1.32565
15 1 9.8691 2.84345 3.94344
16 1 6.90571 5.55859 3.83753
20 1 12.6135 2.67117 4.14639
18 1 12.8366 -0.155464 3.9025
19 1 12.7231 5.54262 4.00363
15011 2 13.9946 6.77509 -0.177939
21 1 1.28577 5.41091 1.47576
22 1 3.9993 5.32987 1.16655
23 1 4.10471 5.4691 4.10888
24 1 1.33775 5.22117 4.22618
25 1 1.36994 8.14529 1.25891
26 1 4.24538 7.98806 1.05915
27 1 4.07691 8.30119 4.03064
28 1 1.40225 8.11344 4.0501
12081 2 -0.134163 15.3542 5.55253
30 1 7.08085 8.20271 1.39917
31 1 9.98841 5.69039 4.18669
32 1 6.77104 8.29247 4.13319
12053 2 2.83618 -1.68598 8.32067
34 1 9.96387 8.02657 1.0219
35 1 9.81454 8.31719 3.67746
36 1 6.77865 11.321 7.09342
37 1 12.6904 5.4531 1.1613
38 1 12.4262 8.18214 3.94886
39 1 12.5309 8.33741 1.14653
40 1 12.59 11.0931 4.24704
41 1 1.3289 11.0592 1.29894
42 1 4.08374 10.9316 1.28131
43 1 4.18469 11.1928 4.08316
44 1 1.54233 10.9403 4.18855
45 1 1.33065 13.7065 1.17012
46 1 4.07726 13.8541 1.15958
47 1 4.10334 14.0097 3.94536
48 1 1.13345 13.9198 4.05423
49 1 6.94542 11.2649 4.04353
50 1 9.62771 11.0385 1.36383
51 1 9.90567 11.0575 4.05032
52 1 8.56947 9.4603 5.88632
53 1 6.83787 13.7344 1.34968
54 1 9.80851 13.8169 1.1491
12148 2 8.31314 20.9085 14.025
56 1 6.79683 13.9366 4.03704
57 1 12.485 11.1964 1.23005
55 1 12.6095 13.8924 4.04522
59 1 12.6182 14.0126 1.19347
60 1 12.7542 16.4561 3.88273
61 1 1.15753 16.544 1.31543
62 1 3.90966 16.7033 1.37791
63 1 3.91315 16.8067 4.09009
64 1 1.27974 16.6265 3.97469
65 1 1.25261 19.3807 1.14613
66 1 4.10907 19.643 1.46136
67 1 3.94619 19.5148 4.18379
68 1 1.1756 19.6113 4.25084
69 1 6.88152 16.9152 1.49038
70 1 9.77148 16.5242 1.14832
71 1 9.66099 16.7127 3.82938
72 1 6.98119 16.7281 4.10749
73 1 6.86112 19.5325 1.26138
74 1 9.73556 19.4941 1.0215
75 1 9.70321 19.5208 3.91141
76 1 6.94472 19.6695 4.03647
77 1 12.568 16.8143 1.02261
78 1 12.4662 22.3606 4.0376
79 1 12.4536 19.7033 1.10174
5726 1 6.79599 -0.128577 9.76341
81 1 1.37581 22.1797 1.24238
82 1 4.3526 22.2029 1.37786
83 1 4.03746 22.2756 4.14098
84 1 1.17681 22.2818 4.13049
85 1 7.05889 22.466 1.36493
86 1 9.76161 22.2024 1.26581
87 1 9.72397 22.4343 4.14344
88 1 6.98583 22.4278 4.03068
372 1 6.80851 -0.359732 1.33334
6133 1 11.4082 17.7017 5.30189
91 1 1.26236 -0.267313 6.83068
92 1 4.03451 -0.247692 6.8868
93 1 4.07723 2.7262 9.72673
94 1 4.02775 -0.0400816 9.75972
95 1 1.47665 2.5656 6.74284
96 1 4.16451 2.63131 7.10705
97 1 7.14819 5.48718 6.80674
98 1 1.36395 2.59282 9.71393
99 1 6.95559 2.6812 7.03301
100 1 9.8606 -0.38576 7.0259
101 1 9.83216 -0.04213 9.78911
102 1 6.78633 2.58777 9.89858
103 1 7.03075 8.2229 7.26937
104 1 9.95772 2.44558 6.83925
105 1 9.70626 2.656 9.88707
106 1 7.14558 5.43423 9.65194
107 1 12.5423 -0.22733 6.81441
108 1 12.4821 -0.260572 9.72847
109 1 12.558 2.73811 6.97583
110 1 12.4901 2.62534 9.78421
111 1 1.3319 5.27902 7.03193
112 1 4.17116 5.647 6.89015
113 1 4.26339 5.37114 9.68145
114 1 1.35432 5.26806 9.70721
115 1 1.40498 8.23316 6.77958
116 1 4.40392 8.4226 7.01349
117 1 4.01375 8.26532 9.7937
118 1 1.31172 8.16977 9.6251
119 1 9.9753 11.3355 6.79058
120 1 10.0862 7.63324 6.68875
121 1 9.95809 5.13072 7.49929
122 1 9.89463 8.47178 9.20397
123 1 7.01477 7.89185 9.87473
124 1 12.7648 8.35401 6.75615
125 1 9.90062 5.84864 10.06
126 2 8.53841 6.80432 8.43265
127 1 12.5966 5.56017 6.6003
128 1 12.5941 5.33272 9.67098
15101 2 14.0386 1.20116 11.3017
130 1 12.5541 8.22873 9.69949
131 1 1.2767 11.0442 7.04646
132 1 4.13526 11.0178 7.00166
133 1 4.16305 11.3158 9.95462
134 1 1.45903 11.1535 9.6715
135 1 1.5331 13.7735 6.9796
136 1 4.14701 13.8125 6.90107
137 1 3.79391 13.8568 9.76965
138 1 1.21983 14.0458 9.6595
139 1 9.9308 14.3658 6.82172
12088 2 5.43634 18.136 8.23391
141 1 9.53792 11.2322 9.67739
142 1 6.85057 10.7614 9.82173
143 1 7.18505 14.0125 6.76572
144 1 9.72492 13.935 3.91329
145 1 9.57757 13.9004 9.79997
146 1 6.71579 13.69 9.7884
15081 2 13.6283 18.4135 5.45382
148 1 12.3449 11.0677 9.74009
149 1 9.57044 16.8439 6.99253
150 1 12.4049 13.8209 9.77498
151 1 1.26057 16.5814 6.77678
152 1 4.18594 16.7395 6.78389
153 1 4.13944 16.822 9.67857
154 1 1.24857 16.8306 9.62289
155 1 1.17077 19.4963 7.00803
156 1 3.98943 19.6055 6.87031
157 1 4.35063 19.7018 9.68377
158 1 1.30183 19.6989 9.66795
159 1 6.94363 16.7421 6.94438
160 1 12.5151 19.7599 3.76712
161 1 9.64046 16.5888 9.62822
162 1 6.96781 16.676 9.69429
163 1 6.93986 19.6224 6.68531
164 1 9.70427 19.4923 6.66336
165 1 9.78608 19.5205 9.59007
166 1 7.01173 19.45 9.56338
12050 2 11.1323 23.77 2.68375
168 1 12.3963 16.6662 9.87258
169 1 12.4401 22.484 6.93404
170 1 12.4529 19.4123 9.88661
171 1 1.20757 22.2282 6.99739
172 1 3.99652 22.344 6.84819
173 1 4.14608 22.4627 9.80473
174 1 1.22694 22.473 9.85781
175 1 6.69961 22.4232 6.82341
176 1 9.57499 22.3848 7.07367
177 1 9.81601 22.4368 9.81897
178 1 7.10677 22.1662 9.73312
412 1 6.89317 10.9218 1.22662
180 1 12.6005 22.3034 9.78014
181 1 1.35812 -0.197176 12.5397
182 1 3.97249 -0.237765 12.6001
183 1 1.3814 2.68605 12.3733
184 1 4.10417 2.50487 12.513
185 1 6.78802 -0.144593 12.5942
186 1 9.75222 -0.237025 12.5161
187 1 6.96659 2.60533 12.5255
188 1 9.64922 2.55404 12.6758
189 1 12.7081 -0.16792 12.7324
190 1 12.6805 2.62795 12.5769
191 1 1.27803 5.51408 12.399
192 1 4.14656 5.30979 12.6322
193 1 1.30699 8.22989 12.5732
194 1 4.09122 8.293 12.6695
195 1 6.63745 5.50305 12.4596
196 1 9.47328 5.2237 12.5691
197 1 6.80105 8.31845 12.6431
198 1 9.68831 8.12811 12.3597
199 1 12.6331 5.34069 12.5981
200 1 12.5003 8.02846 12.4937
201 1 1.28455 11.1354 12.5476
202 1 4.08285 11.0573 12.6683
203 1 1.27237 13.8051 12.5574
204 1 4.07877 13.8254 12.3718
205 1 6.92401 10.9725 12.6106
206 1 9.76622 11.0148 12.5071
207 1 6.89996 13.7178 12.7165
208 1 9.60978 13.7214 12.4852
209 1 12.3666 10.8136 12.451
210 1 12.4242 13.8512 12.4515
211 1 1.35439 16.7713 12.5383
212 1 4.15817 16.5498 12.4547
213 1 1.44113 19.492 12.5051
214 1 4.23054 19.3983 12.3732
215 1 6.91426 16.5138 12.51
216 1 9.73334 16.6795 12.6557
217 1 6.99632 19.4397 12.5339
218 1 9.77268 19.4925 12.6448
219 1 12.426 16.6026 12.6926
220 1 12.312 19.3713 12.4274
221 1 1.29784 22.2627 12.4576
222 1 4.22014 22.1772 12.5561
223 1 6.80208 22.3075 12.5563
224 1 9.62902 22.3735 12.6174
225 1 12.5227 22.2623 12.6184
12125 2 11.0489 20.9487 11.1176
12110 2 11.2174 4.03392 11.1048
17 1 12.4071 2.61348 1.35187
12124 2 8.33486 23.6407 11.037
6111 1 12.6154 11.0674 7.22544
12109 2 8.1689 6.76917 11.5753
12055 2 5.43738 -1.59724 5.62411
12008 2 5.30033 1.21174 2.60256
5723 1 7.01577 0.0128935 6.94546
12010 2 11.1058 1.12873 2.78189
12123 2 5.63178 20.934 11.1706
12108 2 5.41867 3.98471 11.1719
12013 2 2.73829 3.92384 2.53078
12122 2 2.67923 23.6076 11.2666
12107 2 2.67162 6.7353 11.1863
12112 2 2.73915 12.4279 11.1916
12017 2 8.45688 3.90943 2.39002
12018 2 5.58666 6.80579 2.53912
12104 2 8.26733 1.09535 11.1146
12020 2 11.3235 6.7455 2.47375
167 1 12.4753 19.6966 7.14028
5634 1 9.72574 -0.426356 1.29962
12023 2 2.73056 9.45498 2.60538
12120 2 11.1633 15.2104 11.3365
12102 2 2.79606 1.23205 11.0489
12113 2 5.48937 9.70265 11.1596
12027 2 8.3613 9.78368 2.73683
12028 2 5.43062 12.3719 2.75222
12100 2 11.0484 23.6893 8.1989
12030 2 11.1922 12.6861 2.70265
12099 2 11.0103 20.8722 5.33971
12098 2 5.33309 23.7881 8.2555
12033 2 2.65537 15.3121 2.70535
12061 2 -0.114736 3.90391 5.47816
12097 2 8.29125 20.8395 8.30923
12096 2 8.34582 23.8223 5.54674
12037 2 8.14401 15.2872 2.56862
12038 2 5.40813 18.2255 2.76053
12095 2 5.45369 20.9155 5.44101
12040 2 11.0595 18.1522 2.6106
5633 1 7.06421 -0.164598 4.13178
12093 2 2.72473 20.9606 8.3427
12043 2 2.4996 20.8565 2.83092
89 1 12.5071 22.5315 1.0295
12092 2 2.57464 23.7715 5.39409
12087 2 8.31305 15.2855 8.31494
12047 2 8.39591 20.9697 2.63583
12048 2 5.55866 23.6189 2.82658
12090 2 11.0091 18.1344 8.29834
5639 1 12.4763 -0.21228 1.27173
12119 2 8.44896 18.11 11.0572
12052 2 2.72838 1.03589 5.37304
12086 2 8.30525 18.0464 5.44719
12118 2 5.47932 15.2331 11.1639
12150 2 11.1153 23.6304 13.8652
12056 2 8.35876 1.15385 5.36593
5718 1 1.2763 -0.321794 9.63802
12058 2 5.54714 1.20598 8.38437
9 1 6.91283 2.60027 1.18562
12060 2 11.1921 1.20766 8.34706
12117 2 2.72124 18.1241 11.2216
12062 2 2.77081 6.76301 5.46604
12063 2 2.71694 3.96253 8.24601
12089 2 10.9507 15.623 5.41389
12065 2 5.46562 4.08012 5.58506
12066 2 8.34748 7.03394 5.10639
12067 2 8.2864 3.64952 8.32626
12068 2 5.50855 6.97257 8.51313
12069 2 11.1952 3.95618 5.49735
12070 2 11.5536 6.79117 8.1885
12115 2 11.0231 9.59734 10.979
12072 2 2.81626 12.3941 5.54417
12073 2 2.66471 9.72588 8.29148
12114 2 8.28152 12.4371 11.3214
12075 2 5.64274 9.7297 5.59766
12076 2 8.41661 12.4927 5.31753
12077 2 8.27972 10.0871 8.20045
12078 2 5.31292 12.5492 8.41792
12079 2 10.8569 9.40519 5.4091
12080 2 10.9766 12.6682 8.27154
12094 2 -0.252556 23.6427 8.3988
12082 2 2.76232 18.0954 5.53101
12083 2 2.75372 15.3227 8.29017
140 1 12.6693 13.8595 6.72523
12085 2 5.65309 15.2443 5.49457
12116 2 -0.156123 15.2707 11.1842
12042 2 2.65693 23.5553 -0.298847
147 1 12.7636 16.5786 6.91474
12101 2 0.036098 -1.85117 11.0839
15116 2 13.8827 18.0505 11.2255
12064 2 -0.114818 6.61509 8.43021
12144 2 5.59652 17.9712 13.951
15091 2 13.8918 23.6475 5.51225
12074 2 -0.0785562 12.5011 8.45904
12012 2 2.54708 6.59147 -0.118011
12039 2 10.9618 15.1347 -0.253775
12054 2 0.0084252 1.19512 8.30991
12084 2 -0.201127 18.1498 8.2508
12121 2 -0.0358909 20.864 11.171
12024 2 0.079745 12.3364 2.67398
12071 2 -0.0291304 9.45032 5.37837
12019 2 11.164 3.82086 -0.181517
15071 2 13.9629 12.0829 5.65573
15106 2 13.9969 6.6656 11.0595
15082 2 13.9727 15.1599 8.77204
12045 2 5.62519 20.8966 -0.0708058
12132 2 -0.0695251 6.8265 13.9223
15092 2 13.9171 20.8359 8.37886
12006 2 8.25696 1.14855 -0.139426
12147 2 0.0324904 23.8098 13.8362
12146 2 2.78719 20.8107 13.9755
12141 2 2.72965 14.9614 13.9502
12041 2 -0.222077 20.7476 -0.113735
226 1 4.05186 -0.173618 15.4309
227 1 1.26794 -0.368919 15.3254
228 1 4.06904 2.67502 15.3264
229 1 1.11836 2.6213 15.2816
230 1 9.80881 -0.244778 15.383
231 1 7.07774 -0.396694 15.4846
232 1 9.64828 2.56168 15.4805
233 1 6.77638 2.5212 15.2943
234 1 12.5316 -0.343497 15.4128
235 1 12.4439 2.53393 15.3518
236 1 4.04064 5.36066 15.563
237 1 1.2089 5.364 15.2696
238 1 4.02101 8.19417 15.3085
239 1 1.26961 8.14581 15.4191
240 1 9.85488 5.27166 15.3591
241 1 6.86607 5.2161 15.3968
242 1 9.79393 8.14582 15.0817
243 1 7.0656 7.91977 15.2511
244 1 12.6283 5.32721 15.3527
245 1 12.5766 8.06849 15.3723
246 1 4.0724 11.1442 15.3623
247 1 1.2353 11.1212 15.3376
248 1 4.20851 13.6593 15.2865
249 1 1.47628 13.9635 15.6197
250 1 9.48952 10.9943 15.2908
251 1 6.86172 10.6969 15.5507
252 1 9.53381 13.8311 15.4895
253 1 6.83032 13.6225 15.5729
254 1 12.4507 10.8425 15.4409
255 1 12.3883 14.0094 15.3236
256 1 4.158 16.403 15.2411
257 1 1.22681 16.6943 15.2983
258 1 4.01109 19.4498 15.3271
259 1 1.29139 19.7145 15.2341
260 1 9.75851 16.532 15.5887
261 1 6.90774 16.5256 15.317
262 1 9.68955 19.4784 15.3905
263 1 6.94285 19.3387 15.2858
264 1 12.7179 16.8287 15.4883
265 1 12.7747 19.3342 15.3514
266 1 4.11467 22.278 15.2662
267 1 1.37928 22.4919 15.5646
268 1 9.82469 22.2321 15.3738
269 1 6.93684 22.2236 15.3645
270 1 12.6491 22.1235 15.3939
271 1 1.01438 -0.245399 17.9411
272 1 3.93287 -0.208103 18.0075
273 1 4.11702 -0.146626 20.8169
274 1 1.3465 -0.355272 20.8524
275 1 1.21836 2.53891 18.1853
276 1 4.19161 2.34259 18.0602
277 1 4.15928 2.52284 20.9225
278 1 1.19907 2.54041 20.795
279 1 6.87124 -0.200428 18.1637
280 1 9.73218 -0.415954 18.2271
281 1 9.86083 -0.309385 21.0985
282 1 6.88888 -0.242949 21.0802
283 1 7.03947 2.49526 18.2004
284 1 9.80148 2.50785 18.2317
285 1 9.70446 2.46087 20.9815
286 1 6.96407 2.49819 20.874
287 1 12.4436 -0.419787 18.2342
288 1 12.5013 -0.385136 20.9443
289 1 12.665 2.35946 18.1232
290 1 12.34 2.56461 20.8672
291 1 1.07789 5.34331 18.1304
292 1 4.12202 5.04401 18.3866
293 1 3.99878 5.44693 21.0575
294 1 1.18015 5.28874 21.0138
295 1 1.12834 8.2607 18.1386
296 1 3.89463 7.91066 18.1829
297 1 4.12489 8.24244 20.9297
298 1 1.11482 8.15879 20.6965
299 1 6.88641 5.36353 18.1103
300 1 9.70907 5.30804 18.0431
301 1 9.66075 5.23945 20.9375
302 1 6.78737 5.40335 20.8295
303 1 6.81528 8.15576 18.0218
304 1 9.60927 7.97868 18.0696
305 1 9.75519 8.11849 20.7698
306 1 7.00189 8.02773 20.8888
307 1 12.4266 5.2059 18.3432
308 1 12.5094 5.43113 20.9498
309 1 12.4241 8.1779 18.1694
310 1 12.5445 8.04016 20.9781
311 1 1.33337 11.1157 18.2566
312 1 4.06043 10.801 18.0603
313 1 3.91927 11.054 20.9034
314 1 1.0926 11.0506 20.9399
315 1 1.33716 13.9279 18.2587
316 1 4.02019 13.7389 18.1854
317 1 4.13364 13.8184 21.0245
318 1 1.32224 13.7553 21.1159
319 1 6.79951 11.1042 18.0371
320 1 9.72554 10.9041 18.2713
321 1 9.43823 10.976 21.0986
322 1 6.74286 10.8222 20.8227
323 1 6.91541 13.7352 18.3634
324 1 9.60592 13.9484 18.2371
325 1 9.70043 13.8654 21.0592
326 1 6.80949 13.8143 21.1918
327 1 12.482 10.8523 18.0563
328 1 12.2649 10.9261 21.0492
329 1 12.2734 13.8873 18.272
330 1 12.3945 13.7625 21.0135
331 1 1.34847 16.8211 18.0488
332 1 4.09242 16.426 18.009
333 1 4.08065 16.7058 21.0457
334 1 1.34689 16.6144 21.0597
335 1 1.25695 19.5032 17.9817
336 1 4.07124 19.3974 18.0446
337 1 4.06187 19.4796 20.779
338 1 1.13353 19.3491 20.8234
339 1 6.91143 16.811 18.1764
340 1 9.73907 16.8144 18.4322
341 1 9.80929 16.7213 20.988
342 1 6.99978 16.5033 21.0769
343 1 7.06291 19.4432 18.2635
344 1 9.96683 19.4342 18.2665
345 1 9.80362 19.6398 21.0461
346 1 6.98877 19.3986 21.0786
347 1 12.6634 16.8924 18.1894
348 1 12.78 16.5633 20.9535
349 1 12.6821 19.5054 18.0994
350 1 12.5987 19.4431 20.9529
351 1 1.33254 22.4448 18.2028
352 1 4.04202 22.2557 18.0087
353 1 3.97967 22.3617 20.7228
354 1 1.37018 22.2384 21.0698
355 1 6.95495 22.1147 18.0291
356 1 9.90213 22.2829 18.0774
357 1 9.6031 22.2818 21.0101
358 1 6.83597 22.2251 20.9059
359 1 12.6704 22.135 18.2449
360 1 12.5156 22.109 20.8918
361 1 1.19495 -0.194203 23.8143
362 1 3.98849 -0.282706 23.6614
363 1 3.9706 -0.0923909 26.5042
364 1 1.07318 -0.363145 26.5237
365 1 1.09553 2.47346 23.6878
366 1 3.86665 2.35033 23.6771
367 1 3.78619 2.63703 26.5129
368 1 1.00996 2.56749 26.7238
369 1 6.9448 -0.221887 26.6069
370 1 9.75209 -0.307787 23.8055
371 1 9.87895 -0.0468064 26.819
12181 2 -0.00763234 15.2837 16.8957
373 1 6.78471 2.41417 23.5883
374 1 9.66568 2.45076 23.8094
375 1 9.57119 2.50633 26.4977
376 1 6.74792 2.64251 26.6335
377 1 12.5306 -0.221164 23.8376
378 1 12.5062 -0.190489 26.5909
379 1 12.3528 2.37683 23.6034
380 1 12.6612 2.66293 26.4969
381 1 1.20284 5.34922 23.7502
382 1 4.07704 5.24912 23.7092
383 1 4.132 5.30749 26.53
384 1 1.05995 5.23537 26.6363
385 1 1.19612 8.15033 23.6869
386 1 3.84055 8.01695 23.6411
387 1 3.89693 8.13312 26.6759
388 1 1.1774 8.22859 26.5654
389 1 6.66112 5.17252 23.674
390 1 9.63909 5.33756 23.7406
391 1 9.74681 5.22769 26.7869
392 1 7.03622 8.00825 26.8399
393 1 7.01386 7.8028 23.6926
394 1 9.78946 8.15916 23.7187
395 1 9.71001 8.14373 26.4792
396 1 5.66899 9.43993 25.2382
397 1 12.5458 5.28444 23.7979
398 1 12.663 5.5397 26.4753
399 1 12.2744 8.14664 23.9073
400 1 12.5582 8.36296 26.7483
401 1 1.33946 10.874 23.6197
402 1 4.05071 10.8853 23.6419
403 1 3.97209 10.9527 26.7669
404 1 1.33735 11.0537 26.4784
405 1 1.16269 13.9389 23.7581
406 1 4.02181 13.7706 23.7655
407 1 3.8953 13.786 26.6315
408 1 1.19531 13.7636 26.6464
409 1 7.10779 10.8542 23.5042
410 1 9.69257 11.0029 23.835
411 1 9.86718 10.8992 26.489
15171 2 13.8396 12.3159 16.83
413 1 7.06149 13.6066 23.9904
414 1 9.65724 14.0363 23.653
415 1 9.69293 13.7106 26.59
416 1 6.93041 13.8309 26.7915
417 1 12.7737 10.7023 23.6347
418 1 12.6447 11.1331 26.5275
419 1 12.5631 13.8133 23.5886
420 1 12.57 13.8033 26.4964
421 1 1.22149 16.5428 23.9249
422 1 4.13571 16.5772 23.9882
423 1 4.08244 16.6072 26.7693
424 1 1.25991 16.6556 26.6707
425 1 1.42073 19.4018 23.7564
426 1 4.22742 19.5253 23.6068
427 1 4.06693 19.4596 26.7249
428 1 1.12376 19.4333 26.6493
429 1 6.9792 16.6134 23.7157
430 1 9.73809 16.7278 23.8698
431 1 9.54589 16.4985 26.6625
432 1 6.90781 16.5094 26.7427
433 1 7.13824 19.427 23.9009
434 1 9.90631 19.6396 23.9142
435 1 9.78467 19.5174 26.4983
436 1 6.93421 19.6651 26.5503
437 1 12.5589 16.532 23.6254
438 1 12.6891 16.5495 26.5669
439 1 12.6435 19.4077 23.798
440 1 12.5201 19.4858 26.6605
441 1 1.15901 22.2159 23.7619
442 1 4.14852 22.1422 23.6763
443 1 4.12608 22.3611 26.6497
444 1 1.17247 22.2545 26.6108
445 1 6.92708 22.2047 23.8084
446 1 9.70169 22.3154 23.7981
447 1 9.83445 22.3345 26.5647
448 1 6.9912 22.44 26.7156
449 1 12.5123 22.2518 23.6458
450 1 12.5825 22.5429 26.4505
12032 2 2.58561 18.0597 28.1323
12250 2 11.0903 23.7194 25.151
12174 2 -0.200605 12.3701 19.5854
15131 2 14.0001 3.98468 13.9156
12029 2 11.0081 9.60934 27.9117
12140 2 11.1034 12.3481 14.016
12249 2 11.1679 20.9942 22.4183
15041 2 14.0154 23.9238 27.9269
12164 2 -0.258337 6.62932 19.5349
12133 2 8.37803 3.93034 14.0494
12022 2 2.71003 12.3247 28.0051
12248 2 5.60837 23.6625 25.287
5993 1 7.008 -0.413327 23.8361
15211 2 13.8271 6.77458 22.4033
12046 2 8.39612 23.8375 28.055
12002 2 2.59594 1.08822 27.9216
12241 2 -0.133163 20.8581 22.3675
12134 2 5.40608 6.61876 14.0574
12131 2 2.63512 3.95368 13.9041
12143 2 8.3892 15.1993 14.0732
15172 2 13.8764 9.48834 19.3978
12015 2 5.5153 4.03347 27.7627
12223 2 2.74504 9.55237 25.1476
12232 2 2.63864 17.9195 22.3702
12225 2 5.46916 9.33451 22.5366
12247 2 8.49603 20.9143 25.1892
12152 2 2.6402 1.16592 16.6837
15232 2 13.84 15.112 25.1233
12246 2 8.32036 23.6543 22.2892
12235 2 5.41694 15.1148 22.5743
12156 2 8.19577 1.12429 16.7432
12227 2 8.1057 9.50114 25.1662
12158 2 5.57967 1.05499 19.5918
12230 2 11.1307 12.205 25.2
12160 2 11.0704 0.993629 19.5472
12245 2 5.63599 20.703 22.5281
12162 2 2.53266 6.6291 16.7487
12163 2 2.66907 3.75578 19.6387
15182 2 14.0505 15.1661 19.5591
12165 2 5.4427 3.92347 16.9468
12166 2 8.30448 6.53541 16.8237
12167 2 8.37186 3.93143 19.5718
12168 2 5.44893 6.79876 19.6692
12169 2 11.2127 3.94216 16.846
12170 2 11.1309 6.69159 19.4952
12243 2 2.70576 20.7888 25.2018
12172 2 2.71342 12.3045 16.8816
12173 2 2.66978 9.45294 19.603
12242 2 2.77189 23.7169 22.3225
12175 2 5.46183 9.44653 16.7552
12176 2 8.29151 12.4191 16.8501
12177 2 8.28089 9.53664 19.5087
12178 2 5.40642 12.2672 19.6607
12179 2 10.9108 9.49597 16.7715
12180 2 10.982 12.5429 19.6568
12233 2 2.73569 15.1405 25.3563
12182 2 2.64395 18.0336 16.5727
12183 2 2.57698 15.0724 19.7883
12222 2 2.63025 12.2804 22.3814
12185 2 5.45557 15.1272 16.7104
12186 2 8.36908 18.0719 16.8576
12187 2 8.38863 15.1775 19.8273
12188 2 5.56468 17.994 19.6554
12189 2 11.1655 15.5231 16.9166
12190 2 11.2516 18.1672 19.7117
12226 2 8.36314 12.3789 22.5373
12192 2 2.69527 23.7682 16.8686
12193 2 2.6739 20.6647 19.4933
12229 2 11.0695 9.44917 22.374
12195 2 5.4063 20.7741 16.7324
12196 2 8.3405 23.5961 16.7596
12197 2 8.38137 20.8072 19.5617
12198 2 5.51253 23.5959 19.5257
12199 2 11.2807 20.8542 16.7337
12200 2 11.354 23.621 19.5339
12240 2 11.195 18.2339 25.2426
12202 2 2.45868 1.18326 22.2556
12236 2 8.43243 17.9322 22.4346
12239 2 11.0519 15.275 22.4094
12228 2 5.5997 12.0069 25.1708
12206 2 8.31276 1.07756 22.2998
29 1 7.00534 5.1833 26.4384
12208 2 5.42863 1.16945 25.0636
33 1 7.24748 11.0542 26.5683
12210 2 11.0426 1.0114 25.1762
12238 2 5.54603 18.0479 25.3127
12212 2 2.42908 6.75379 22.3627
12213 2 2.41412 3.98969 25.1678
12237 2 8.40762 15.04 25.214
12215 2 5.50747 3.88538 22.2132
12216 2 8.29326 6.66886 22.2185
12217 2 8.35591 3.91363 25.0439
12218 2 5.46093 6.72131 25.2415
12219 2 11.042 3.91548 22.4126
12220 2 11.0879 6.73902 25.3495
12145 2 11.1286 18.1046 14.0497
12036 2 8.29103 18.0291 28.102
12026 2 8.41803 12.3964 28.0861
12138 2 8.32491 9.61089 14.0753
12139 2 5.62384 12.2864 14.1312
12025 2 5.51875 9.68215 27.8715
12135 2 11.2725 6.72492 13.9203
12142 2 -0.183019 17.9666 13.9519
15031 2 14.0962 17.95 27.8772
12194 2 -0.0666236 23.6461 19.5528
12035 2 5.51921 15.3405 28.2422
12191 2 -0.0595452 20.948 16.608
12136 2 2.69758 9.65773 13.9714
12130 2 11.0984 1.12752 14.0733
12016 2 8.46427 6.74073 27.867
12129 2 5.50776 1.08278 14.0359
12149 2 5.5231 23.6238 14.0837
12049 2 11.1126 20.8202 27.8759
451 1 1.39358 24.927 0.97142
452 1 4.23527 25.0032 1.47722
453 1 4.01165 24.93 4.06245
454 1 1.26961 24.9435 3.87314
455 1 6.93067 25.2969 1.46503
456 1 9.57902 25.1416 1.23825
457 1 9.68058 25.3708 4.03509
458 1 6.85849 25.2854 4.25867
1018 1 12.4681 50.4767 9.64128
460 1 12.4611 25.0434 4.24062
461 1 1.08833 27.861 1.1841
462 1 3.99773 27.8178 1.45551
463 1 4.11934 27.9442 4.28727
464 1 1.35103 27.8495 3.99016
465 1 1.33603 30.6871 1.11822
466 1 3.94608 30.7808 1.26515
467 1 1.27285 30.5923 3.91198
468 1 1.21194 33.2 4.0156
469 1 6.74079 27.9445 1.35496
470 1 9.6872 28.0777 1.19991
471 1 9.51018 28.113 4.20628
472 1 6.80274 27.9185 4.17094
473 1 6.75928 30.5138 1.09521
12376 2 8.37065 37.9456 13.9054
475 1 9.55931 31.3179 4.12497
476 1 6.89264 30.6709 4.04037
477 1 9.92649 30.792 1.49778
12377 2 5.63014 40.7868 13.6817
479 2 11.2564 32.179 2.86297
480 1 12.1821 30.62 4.18032
481 1 1.06413 33.5409 1.16654
12369 2 2.75241 32.3101 13.9992
483 1 4.03745 33.8366 3.82966
484 1 1.11484 36.1515 4.06227
12381 2 8.27621 43.5351 13.9029
486 1 4.36578 36.2597 1.24207
487 1 3.95694 36.4603 3.92944
488 1 1.26031 36.27 1.31614
489 1 3.98285 30.679 4.03911
490 1 6.09911 33.3696 1.32843
491 1 8.555 34.3076 2.398
492 1 6.84936 33.6118 4.3008
493 1 6.99827 36.4367 1.25149
494 1 10.0652 36.4584 1.03401
495 1 9.77665 36.494 4.13121
496 1 6.82712 36.7424 4.15973
497 1 10.694 33.5341 1.28114
498 1 10.3782 33.9091 4.32338
499 1 12.6965 36.6361 1.27352
500 1 12.4614 36.5781 4.19451
501 1 1.41911 39.0903 1.083
502 1 4.16174 39.3021 1.39445
503 1 4.07569 39.2671 4.10596
504 1 1.22554 39.0793 3.99854
505 1 1.28025 42.2605 1.10367
506 1 3.98013 42.045 1.23355
507 1 3.92725 42.0757 4.07413
508 1 1.12453 41.9227 3.86821
509 1 6.99625 39.2356 1.08449
510 1 9.73478 39.1545 1.30109
511 1 9.86337 39.3275 4.13958
512 1 6.94164 39.274 3.79572
513 1 6.86052 42.075 1.27243
514 1 9.71642 41.9975 1.36143
515 1 9.51977 41.9602 4.03502
516 1 6.74735 41.9837 3.94114
517 1 12.8124 39.3763 1.35651
518 1 12.6026 39.3861 4.13554
519 1 12.4577 41.9395 0.975385
520 1 12.6313 42.1366 4.1332
521 1 1.35852 44.8111 1.25103
522 1 4.17798 44.6984 1.34668
523 1 4.01028 44.9321 4.02901
524 1 1.21708 44.8446 4.19528
525 1 1.08738 47.5562 1.14862
526 1 3.97438 47.7865 1.3004
527 1 4.11598 47.8587 3.95344
528 1 1.17599 47.7243 4.07225
529 1 6.8435 44.911 1.22863
530 1 9.66906 44.752 1.3449
531 1 9.63453 44.833 4.13092
532 1 6.76486 44.5818 4.02105
533 1 6.84469 47.7012 1.32335
534 1 9.62288 47.8938 1.11553
535 1 9.50639 47.6342 3.97262
536 1 6.94735 47.5309 4.01817
537 1 12.4022 44.8125 1.2846
538 1 12.514 44.888 4.12478
539 1 12.1846 47.5378 1.30296
540 1 12.3388 47.5601 4.08654
541 1 1.1572 25.1048 6.82076
542 1 4.09231 25.0751 6.66962
543 1 4.01138 25.2643 9.676
544 1 1.26905 25.0954 9.50333
545 1 7.01261 25.2058 7.08504
546 1 9.74452 25.0871 6.69131
547 1 9.59933 25.2095 9.60234
548 1 6.80852 25.1521 9.81281
549 1 12.378 27.937 6.81832
550 1 12.5004 25.2124 9.69968
551 1 1.01359 27.9662 6.77189
552 1 3.97572 27.7467 6.81396
553 1 4.07361 28.0609 9.76415
554 1 1.32237 28.1156 9.57467
555 1 1.18252 30.7914 6.83929
556 1 4.12805 30.6535 6.75082
557 1 4.1363 30.8266 9.7019
558 1 1.42489 30.7022 9.63978
559 1 6.72497 27.9836 7.05023
560 1 9.60031 27.9771 6.94888
561 1 9.69386 27.9246 9.63337
562 1 6.84512 27.8866 9.85618
563 1 6.79564 30.7747 6.98862
564 1 9.6688 30.7548 6.89099
565 1 9.59531 30.7955 9.79083
566 1 6.89097 30.7102 9.83402
567 1 12.4812 27.9048 4.04457
568 1 12.4167 27.9194 9.61907
569 1 12.5442 30.7232 7.08141
570 1 12.3511 30.8411 9.66458
571 1 1.12644 33.6869 6.93819
572 1 3.84629 33.3748 6.55949
573 1 4.08684 33.6657 9.39925
574 1 1.24637 33.4419 9.67197
575 1 1.25846 36.3928 6.68767
576 1 4.0441 36.3684 6.66092
577 1 3.99435 36.4933 9.55296
578 1 1.36853 36.2867 9.43079
579 1 6.65083 33.4634 6.90067
580 1 9.56016 33.4744 6.91617
581 1 9.78423 33.7736 9.45817
582 1 6.97792 33.5193 9.68315
583 1 6.88101 36.3743 6.85036
584 1 9.88866 36.3386 6.96216
585 1 9.65263 36.4859 9.79639
586 1 6.83081 36.3591 9.61776
587 1 12.5653 33.7249 6.84714
588 1 12.6195 33.5836 9.66576
589 1 12.6677 36.5975 6.84917
590 1 12.4152 36.3935 9.67066
591 1 1.30644 39.2185 6.75306
592 1 4.15931 39.289 6.89445
593 1 3.8735 39.2713 9.67969
594 1 1.29226 39.0824 9.57806
595 1 1.1112 42.0761 6.70622
596 1 3.99091 42.1049 6.81061
597 1 4.04705 42.0917 9.62476
598 1 1.35588 41.7346 9.72365
599 1 7.00157 39.3003 6.76453
600 1 9.86772 39.2213 6.89313
601 1 9.82025 39.3316 9.79865
602 1 6.77517 39.2518 9.32528
603 1 6.8501 41.922 6.87403
604 1 9.69209 41.9888 6.74987
605 1 9.83622 42.1345 9.58656
606 1 6.92736 42.1183 9.77153
607 1 12.6906 39.3431 6.80512
608 1 12.3933 38.9878 9.65094
609 1 12.708 42.1105 7.0389
610 1 12.8046 41.972 9.76773
611 1 1.28923 44.982 6.82314
612 1 4.12322 44.9249 6.73839
613 1 4.05609 44.9605 9.58973
614 1 1.08743 44.8207 9.48774
615 1 1.1038 47.7042 6.79758
616 1 4.06812 47.6448 6.63467
617 1 3.86239 47.6458 9.44267
618 1 1.13791 47.7512 9.62712
619 1 6.8613 44.8556 6.81187
620 1 9.888 44.8909 6.88237
621 1 9.72652 44.9268 9.68836
622 1 6.85114 44.7824 9.75931
623 1 7.0069 47.675 6.83048
624 1 9.74834 47.5738 6.75922
625 1 9.53456 47.6957 9.59615
626 1 6.81325 47.7008 9.69562
627 1 12.6615 45.0789 7.05839
628 1 12.4463 44.8538 9.65488
629 1 12.574 47.8199 6.56173
630 1 12.3453 47.7866 9.60293
631 1 1.4491 25.1713 12.3038
632 1 4.14106 25.1049 12.7821
633 1 6.90897 25.0764 12.5055
634 1 9.75175 25.0633 12.4483
635 1 12.5711 25.0853 12.5395
636 1 1.30011 28.1224 12.3713
637 1 4.07634 28.111 12.7653
638 1 1.20302 30.8496 12.7496
639 1 3.83538 31.0285 12.4955
640 1 6.72295 27.7858 12.5564
641 1 9.39993 27.9498 12.5663
642 1 6.7186 30.8061 12.6494
643 1 9.77669 30.7637 12.6017
644 1 12.3061 27.8039 12.458
12385 2 8.25751 49.0369 13.8719
646 1 1.09192 33.5447 12.5854
647 1 4.15056 33.6191 12.3834
648 1 1.19271 36.2952 12.3471
649 1 4.15201 36.2933 12.3063
650 1 6.9894 33.7202 12.5585
651 1 9.68962 33.6469 12.6671
652 1 6.83839 36.5141 12.4057
653 1 9.78635 36.3556 12.5928
654 1 12.3633 33.5416 12.4826
655 1 12.4646 36.3682 12.5913
656 1 1.35319 39.1884 12.4963
657 1 4.03226 39.1427 12.5659
658 1 1.32442 42.2028 12.4835
659 1 4.11273 42.0334 12.5147
660 1 6.83241 39.3673 12.3687
661 1 9.62204 39.1619 12.4789
662 1 7.03688 42.111 12.499
663 1 9.75215 42.0798 12.5913
664 1 12.5642 39.0805 12.5
665 1 12.5938 41.8632 12.3846
666 1 1.25053 44.8634 12.4247
667 1 4.07223 44.7762 12.5667
668 1 1.28364 47.6428 12.4649
669 1 4.13726 47.7419 12.5005
670 1 6.88338 44.8586 12.754
671 1 9.70324 44.9684 12.3828
672 1 6.80648 47.388 12.4683
673 1 9.69938 47.5978 12.4698
674 1 12.5452 44.8655 12.4705
675 1 12.5841 47.6211 12.6139
12363 2 11.0653 49.0208 11.1381
6553 1 12.9742 33.2087 4.33749
12253 2 2.82363 26.4034 2.79941
12362 2 5.33269 49.0657 11.1216
15341 2 13.7156 29.2138 11.0684
12329 2 -0.341715 46.2144 8.05376
12257 2 8.23364 26.6194 2.82066
12258 2 5.45519 29.3007 2.74263
645 1 12.4784 30.6775 12.5463
12260 2 11.0126 29.1012 2.73713
12360 2 11.2108 43.4139 11.1859
179 1 12.4079 25.2187 6.99967
12263 2 2.63241 32.0449 2.61008
12359 2 8.19067 46.1952 10.9975
1109 1 12.4824 50.3565 12.5207
12379 2 2.57287 43.4669 13.8618
12267 2 7.90586 32.1242 2.34069
12268 2 5.73839 35.2452 2.91653
12345 2 10.9853 26.4097 10.9987
12270 2 11.0887 35.4362 2.71521
12358 2 5.49984 43.5851 11.1072
12344 2 8.08088 29.2769 11.0396
12273 2 2.6132 37.6827 2.73647
12357 2 2.69303 46.5108 11.0765
12343 2 5.39465 26.4748 11.306
12365 2 -0.172415 29.5162 13.913
12277 2 8.37518 37.9579 2.63099
12278 2 5.44435 40.7515 2.73723
15297 2 13.8467 26.4321 8.3319
12280 2 11.1703 40.6821 2.54802
12355 2 11.1504 37.7235 11.1016
6463 1 12.929 33.9463 1.90739
12283 2 2.4997 43.4591 2.73262
12354 2 8.27284 40.7161 11.1059
12373 2 11.1961 35.033 14.0071
459 1 12.3271 28.0357 1.35746
12287 2 8.19927 43.3908 2.51002
12288 2 5.49164 46.1707 2.59618
15296 2 13.9354 29.4684 5.57786
12290 2 10.9904 46.2181 2.60099
12353 2 5.37526 37.8746 10.9482
12292 2 2.7242 49.0231 2.56417
12252 2 2.62468 29.1493 -0.0801214
12294 2 8.28246 49.0996 2.66293
482 1 3.61531 33.5201 0.75761
12266 2 8.66942 34.8091 0.10118
12297 2 2.40108 29.3874 5.50009
12298 2 2.53331 26.371 8.1567
6451 1 12.4572 25.1976 1.33744
12300 2 5.55597 26.6264 5.56856
12301 2 8.14745 29.4706 5.65811
12302 2 8.1964 26.6345 8.38736
12303 2 5.33578 29.2555 8.41938
12304 2 11.0623 26.358 5.48374
12305 2 11.0604 29.3917 8.32837
12352 2 2.69558 40.7379 11.1868
12307 2 2.58568 34.8664 5.30437
12308 2 2.7447 32.0438 8.24977
903 1 4.06866 50.5912 4.16657
12310 2 5.39989 32.0502 5.40936
12311 2 8.47478 34.8893 5.54199
12312 2 8.25952 32.2195 8.41061
12313 2 5.43742 35.0245 8.15314
12314 2 11.3024 32.2636 5.87897
12315 2 11.1952 34.964 8.38159
12309 2 -0.168465 34.9712 8.28087
12317 2 2.54721 40.6183 5.48738
12318 2 2.65384 37.778 8.07117
12350 2 11.0055 32.1669 11.0951
12320 2 5.44046 37.9988 5.56142
12321 2 8.26101 40.6828 5.40593
12322 2 8.39352 37.7863 8.21771
12323 2 5.44889 40.732 8.19299
12324 2 11.2958 38.0382 5.5687
12325 2 11.301 40.6192 8.2929
12349 2 8.41955 35.1163 11.1445