LAMMPS (29 Oct 2020)
OMP_NUM_THREADS environment is not set. Defaulting to 1 thread. (../comm.cpp:94)
  using 1 OpenMP thread(s) per MPI task
#---------------------------------------
#
# This script is used to calculate the thermal conuctivity of UO2 using Muller-Plathe method
# By Ziqiang Wang on 03/18/2022 on Jilin university
#
#---------------------------------------

variable     Nevery    equal   50
variable     T         equal   300

clear
OMP_NUM_THREADS environment is not set. Defaulting to 1 thread. (../comm.cpp:94)
  using 1 OpenMP thread(s) per MPI task
units          metal
boundary       p p p
atom_style     full

read_data vac_0.02_relaxed.dat
Reading data file ...
  orthogonal box = (-0.32246406 -3.9748880 -0.32541939) to (27.662464 332.05489 27.665419)
  2 by 13 by 2 MPI processor grid
  reading atoms ...
  17640 atoms
  reading velocities ...
  17640 velocities
Finding 1-2 1-3 1-4 neighbors ...
  special bond factors lj:    0.0      0.0      0.0     
  special bond factors coul:  0.0      0.0      0.0     
     0 = max # of 1-2 neighbors
     0 = max # of 1-3 neighbors
     0 = max # of 1-4 neighbors
     1 = max # of special neighbors
  special bonds CPU = 0.004 seconds
  read_data CPU = 0.074 seconds

set           type     1    charge     -1.1104
Setting atom values ...
  11760 settings made for charge
set           type     2    charge      2.2208
Setting atom values ...
  5880 settings made for charge

kspace_style    pppm   1.0e-05
pair_style      hybrid/overlay  coul/long  11.0  eam/alloy
pair_coeff      * * coul/long
pair_coeff      * * eam/alloy CeThUNpPuAmCmO.eam.alloy O Th
newton          on
neighbor        0.3 bin
neigh_modify    delay 0 check yes every 1

#The first equilation
velocity        all create $T 10005 mom yes rot yes dist gaussian
velocity        all create 300 10005 mom yes rot yes dist gaussian
fix             nvt  all  nvt  temp  $T $T  0.1
fix             nvt  all  nvt  temp  300 $T  0.1
fix             nvt  all  nvt  temp  300 300  0.1

run             50000
PPPM initialization ...
  using 12-bit tables for long-range coulomb (../kspace.cpp:328)
  G vector (1/distance) = 0.298943
  grid = 40 240 40
  stencil order = 5
  estimated absolute RMS force accuracy = 0.00015518835
  estimated relative force accuracy = 1.0777234e-05
  using single precision MKL FFT
  3d grid and FFT values/proc = 15000 7600
Neighbor list info ...
  update every 1 steps, delay 0 steps, check yes
  max neighbors/atom: 2000, page size: 100000
  master list distance cutoff = 11.3
  ghost atom cutoff = 11.3
  binsize = 5.65, bins = 5 60 5
  2 neighbor lists, perpetual/occasional/extra = 2 0 0
  (1) pair coul/long, perpetual
      attributes: half, newton on
      pair build: half/bin/newton
      stencil: half/bin/3d/newton
      bin: standard
  (2) pair eam/alloy, perpetual, copy from (1)
      attributes: half, newton on
      pair build: copy
      stencil: none
      bin: none
Per MPI rank memory allocation (min/avg/max) = 8.153 | 8.181 | 8.197 Mbytes
Step Temp E_pair E_mol TotEng Press 
       0          300   -230855.73            0   -230171.72   -351.20734 
   50000    298.80885   -230852.53            0   -230171.24   -34.907671 
Loop time of 313.174 on 52 procs for 50000 steps with 17640 atoms

Performance: 13.794 ns/day, 1.740 hours/ns, 159.656 timesteps/s
99.8% CPU use with 52 MPI tasks x 1 OpenMP threads

MPI task timing breakdown:
Section |  min time  |  avg time  |  max time  |%varavg| %total
---------------------------------------------------------------
Pair    | 215.57     | 220.79     | 228.44     |  21.3 | 70.50
Bond    | 0.0032045  | 0.0052642  | 0.0078076  |   1.4 |  0.00
Kspace  | 62.983     | 71.177     | 76.455     |  41.9 | 22.73
Neigh   | 11.068     | 12.042     | 13.184     |  14.7 |  3.85
Comm    | 6.5255     | 6.9915     | 7.994      |  15.0 |  2.23
Output  | 5.03e-05   | 5.5354e-05 | 0.00026186 |   0.0 |  0.00
Modify  | 0.8779     | 1.5346     | 2.3829     |  40.6 |  0.49
Other   |            | 0.6376     |            |       |  0.20

Nlocal:        339.231 ave         365 max         315 min
Histogram: 3 2 8 5 10 9 3 5 2 5
Nghost:        4126.08 ave        4253 max        3933 min
Histogram: 1 2 1 5 10 9 5 7 4 8
Neighs:        67309.9 ave       73454 max       61462 min
Histogram: 2 3 5 9 8 7 11 1 3 3

Total # of neighbors = 3500116
Ave neighs/atom = 198.41927
Ave special neighs/atom = 0.0000000
Neighbor list builds = 5766
Dangerous builds = 0
unfix           nvt
reset_timestep  0

# the second run
fix             1 all nve

group           oxygen type 1
11760 atoms in group oxygen
fix             2 oxygen thermal/conductivity ${Nevery} y 20
fix             2 oxygen thermal/conductivity 50 y 20

compute         ke all ke/atom
variable        temp atom c_ke/1.5
compute         layers all chunk/atom bin/1d y lower 0.05 units reduced
fix             3      all ave/chunk  2000 50 100000 layers v_temp file profile_${T}K.mp
fix             3      all ave/chunk  2000 50 100000 layers v_temp file profile_300K.mp

variable        Tdiff    equal     f_3[11][3]-f_3[1][3]
variable        deltaT   equal     v_Tdiff*1.5/0.0001292

timestep        0.001
thermo_style    custom step f_2 temp v_Tdiff v_deltaT
thermo          100000

run             1000000
PPPM initialization ...
  using 12-bit tables for long-range coulomb (../kspace.cpp:328)
  G vector (1/distance) = 0.298943
  grid = 40 240 40
  stencil order = 5
  estimated absolute RMS force accuracy = 0.00015518835
  estimated relative force accuracy = 1.0777234e-05
  using single precision MKL FFT
  3d grid and FFT values/proc = 15000 7600
Per MPI rank memory allocation (min/avg/max) = 8.404 | 8.432 | 8.448 Mbytes
Step f_2 Temp v_Tdiff v_deltaT 
       0            0    298.80885            0            0 
  100000    344.88689    303.52878   0.00938939    109.00995 
  200000    681.06415    300.05513  0.010628278    123.39332 
  300000    1022.5435    299.91802  0.010222006    118.67654 
  400000    1359.1868    302.18072  0.010307958    119.67443 
  500000    1699.4718    301.79866  0.010308207    119.67733 
  600000    2041.2205    302.50319 0.0098647489    114.52882 
  700000    2381.9671    303.55148 0.0099985612    116.08237 
  800000    2722.7127    305.98176  0.010267162     119.2008 
  900000     3064.464    304.63235  0.010072745    116.94363 
 1000000    3408.4016    303.99391 0.0099963637    116.05685 
Loop time of 6224 on 52 procs for 1000000 steps with 17640 atoms

Performance: 13.882 ns/day, 1.729 hours/ns, 160.668 timesteps/s
99.8% CPU use with 52 MPI tasks x 1 OpenMP threads

MPI task timing breakdown:
Section |  min time  |  avg time  |  max time  |%varavg| %total
---------------------------------------------------------------
Pair    | 4265.8     | 4369.4     | 4538       |  99.7 | 70.20
Bond    | 0.066908   | 0.10483    | 0.15018    |   5.8 |  0.00
Kspace  | 1253.8     | 1431.6     | 1556.6     | 192.9 | 23.00
Neigh   | 229.07     | 249.34     | 271.9      |  64.7 |  4.01
Comm    | 130.26     | 139.63     | 160.59     |  73.1 |  2.24
Output  | 0.0010597  | 0.0011148  | 0.0023468  |   0.5 |  0.00
Modify  | 5.3231     | 5.7076     | 6.2539     |   9.4 |  0.09
Other   |            | 28.19      |            |       |  0.45

Nlocal:        339.231 ave         367 max         321 min
Histogram: 7 7 6 9 5 6 5 3 1 3
Nghost:        4158.85 ave        4287 max        3992 min
Histogram: 2 2 2 4 14 5 4 8 8 3
Neighs:        67300.8 ave       74609 max       62384 min
Histogram: 7 5 3 8 16 5 2 3 2 1

Total # of neighbors = 3499644
Ave neighs/atom = 198.39252
Ave special neighs/atom = 0.0000000
Neighbor list builds = 118594
Dangerous builds = 0

Total wall time: 1:48:57
