ITEM: TIMESTEP
20000
ITEM: NUMBER OF ATOMS
17910
ITEM: BOX BOUNDS pp pp pp
-3.6110888473563107e-01 2.7701108884735628e+01
-4.2382708003577800e+00 3.3231827080035032e+02
-3.5186933165744144e-01 2.7691869331657614e+01
ITEM: ATOMS id type q x y z
1 2 2.2208 5.34698 1.3458 5.30006
2 1 -1.1104 1.20808 -3.08012 1.01364
3 1 -1.1104 1.05583 2.66823 1.15836
6 1 -1.1104 1.19457 -2.91349 3.75222
7 1 -1.1104 1.0843 2.69634 3.93156
10 1 -1.1104 1.09875 -0.144901 1.10222
12 2 2.2208 5.39484 -1.47458 2.56014
13 2 2.2208 5.2835 4.20255 2.512
14 1 -1.1104 1.09633 -0.168357 4.0323
16 1 -1.1104 4.06972 -2.68296 1.08214
17 1 -1.1104 3.88325 2.76704 1.22519
18 2 2.2208 2.53145 1.37145 2.48617
19 1 -1.1104 4.03236 -2.77404 3.78198
20 1 -1.1104 3.82968 2.81571 3.89171
21 2 2.2208 2.45955 -1.4056 5.32183
22 2 2.2208 2.34337 4.11358 5.3521
23 1 -1.1104 3.97335 0.0203091 1.01629
24 1 -1.1104 3.95395 0.04983 3.5788
27 2 2.2208 -0.217266 4.16881 2.5481
9772 2 2.2208 -0.336471 1.38688 5.1958
25 2 2.2208 -0.209859 -1.57945 2.55443
11 1 -1.1104 6.7153 -0.0203183 1.24441
565 2 2.2208 2.49305 -1.55819 -0.234363
166 1 -1.1104 1.03664 -2.83955 6.63821
4 1 -1.1104 6.70727 -2.84612 1.14475
15 1 -1.1104 6.76369 -0.0406157 3.88506
9 1 -1.1104 6.6886 2.65335 3.79196
5 1 -1.1104 6.70182 2.77873 1.05188
8 1 -1.1104 6.7217 -2.86229 3.86775
31 2 2.2208 11.0036 1.48734 5.19774
32 1 -1.1104 12.4633 -2.76789 1.08422
33 1 -1.1104 12.3868 2.80756 0.970509
34 1 -1.1104 12.3577 -2.95688 3.80511
35 1 -1.1104 12.3102 2.89965 3.73299
36 1 -1.1104 12.2611 -0.034298 1.09629
37 2 2.2208 10.9661 -1.47927 2.44771
38 2 2.2208 10.9514 4.20555 2.4159
39 1 -1.1104 12.3708 -0.0540233 3.7101
40 1 -1.1104 9.53305 -2.82167 0.991762
41 1 -1.1104 9.68357 2.63683 1.16587
42 2 2.2208 8.14694 1.30151 2.41914
43 1 -1.1104 9.47375 -2.82714 3.96234
44 1 -1.1104 9.51173 2.71897 3.89331
45 2 2.2208 8.09892 -1.31735 5.44598
46 2 2.2208 8.01952 4.13669 5.21131
47 1 -1.1104 9.5334 -0.112719 1.01813
48 1 -1.1104 9.48828 -0.0709484 3.86163
595 2 2.2208 8.1194 -1.46594 -0.328521
596 2 2.2208 8.24932 4.16376 -0.249191
171 1 -1.1104 6.79943 0.0204707 6.70644
208 1 -1.1104 9.40812 -2.88628 6.67243
210 1 -1.1104 9.53532 -0.0172203 6.74689
205 1 -1.1104 12.1554 -2.87273 6.67328
206 1 -1.1104 12.3899 2.97129 6.56754
54 2 2.2208 5.18212 6.98231 5.37008
55 2 2.2208 5.368 12.5331 5.22827
56 1 -1.1104 1.2757 8.34833 1.12068
58 1 -1.1104 1.03326 8.51061 3.88399
60 1 -1.1104 1.29894 5.38843 1.19224
61 1 -1.1104 0.98031 11.2147 1.13012
66 2 2.2208 5.23761 9.83691 2.48475
67 1 -1.1104 1.10548 5.52422 3.8442
68 1 -1.1104 1.19379 11.2347 3.97542
71 1 -1.1104 3.97689 8.50384 1.09762
72 2 2.2208 2.57696 6.96656 2.45909
73 2 2.2208 2.45103 12.5753 2.44019
74 1 -1.1104 3.85893 8.30616 3.91107
75 2 2.2208 2.55022 9.75827 5.33672
76 1 -1.1104 4.06688 5.63747 1.07302
77 1 -1.1104 3.9166 11.2356 1.04142
79 1 -1.1104 3.84603 5.55208 3.73112
80 1 -1.1104 3.92625 11.0607 4.04458
9774 2 2.2208 -0.382795 6.96436 5.24623
82 2 2.2208 -0.373293 9.83668 2.4531
83 2 2.2208 -0.406988 12.6578 5.29967
57 1 -1.1104 6.70462 8.4249 1.04961
64 1 -1.1104 6.61652 11.2551 1.07989
59 1 -1.1104 6.62538 8.50686 3.87363
234 1 -1.1104 0.99327 8.26186 6.71802
238 1 -1.1104 3.8797 8.45515 6.79628
236 1 -1.1104 1.05954 5.57069 6.61138
65 1 -1.1104 6.7617 11.124 6.76663
629 2 2.2208 5.41206 6.95432 -0.425326
69 1 -1.1104 6.60277 5.61406 3.9654
63 1 -1.1104 6.80846 5.65626 1.0531
70 1 -1.1104 6.74252 11.2736 3.90794
84 2 2.2208 10.8768 6.97802 5.31702
85 2 2.2208 10.8559 12.5085 5.31223
86 1 -1.1104 12.3499 8.27998 1.07668
87 1 -1.1104 12.1735 8.24351 3.77316
88 1 -1.1104 12.3481 5.5561 1.18757
89 1 -1.1104 12.2923 11.2598 1.19246
91 2 2.2208 10.905 9.75996 2.52411
92 1 -1.1104 12.4029 5.49155 3.88703
93 1 -1.1104 12.3089 11.084 3.83064
94 1 -1.1104 9.51329 8.48631 1.08664
95 2 2.2208 8.04323 7.14348 2.44698
96 2 2.2208 8.00374 12.6072 2.36788
97 1 -1.1104 9.29562 8.29919 3.93971
98 2 2.2208 8.12896 9.74382 5.32264
99 1 -1.1104 9.51715 5.60797 1.1076
100 1 -1.1104 9.54342 11.2259 1.04148
102 1 -1.1104 9.45599 5.38982 3.74632
103 1 -1.1104 9.50174 11.054 4.01944
654 2 2.2208 10.9913 7.00586 -0.320255
90 1 -1.1104 12.351 11.1501 6.64762
101 1 -1.1104 9.45983 11.1278 6.77199
269 1 -1.1104 9.33369 5.56388 6.51253
106 2 2.2208 5.24977 18.3123 5.20917
107 1 -1.1104 1.18218 14.0694 1.08867
109 1 -1.1104 1.23077 19.4747 1.14384
113 1 -1.1104 1.11566 14.0302 3.75726
114 1 -1.1104 1.22283 19.6626 3.8646
116 1 -1.1104 1.11568 16.9291 1.155
119 2 2.2208 5.29814 15.4062 2.41487
120 2 2.2208 5.37452 21.1309 2.49002
121 1 -1.1104 1.19812 16.8638 3.99927
123 1 -1.1104 3.82797 13.9675 0.91573
125 1 -1.1104 3.97876 19.6571 1.18158
127 2 2.2208 2.51896 18.2428 2.57521
128 1 -1.1104 3.91603 13.8452 3.89698
129 1 -1.1104 4.05201 19.5369 3.92418
130 2 2.2208 2.58973 15.4064 5.29215
131 2 2.2208 2.60389 20.945 5.2535
132 1 -1.1104 3.94967 16.8826 1.01225
134 1 -1.1104 4.01728 16.662 3.75339
302 1 -1.1104 1.01486 19.6009 6.59127
135 2 2.2208 -0.256944 15.3573 2.46164
108 1 -1.1104 1.0879 13.8853 6.54202
126 1 -1.1104 4.06044 19.5882 6.82455
138 1 -1.1104 6.80509 19.6956 1.15441
139 1 -1.1104 6.74662 19.7946 3.76832
112 1 -1.1104 6.65352 19.3981 6.59515
685 2 2.2208 2.55134 15.4227 -0.350859
683 2 2.2208 2.49405 21.0362 -0.291683
115 1 -1.1104 6.88355 14.115 3.80608
122 1 -1.1104 6.73326 16.8856 3.88479
110 1 -1.1104 6.7599 13.9642 1.01824
140 1 -1.1104 6.57485 16.8452 1.06467
141 2 2.2208 10.9722 18.1808 5.07286
142 1 -1.1104 12.1727 14.047 0.914188
144 1 -1.1104 12.3555 19.61 1.02179
146 1 -1.1104 12.2533 13.8509 3.89922
147 1 -1.1104 12.3047 19.6001 3.8953
148 1 -1.1104 12.3431 16.7697 0.962773
150 2 2.2208 10.8833 15.347 2.40735
151 2 2.2208 10.9655 20.9807 2.50111
152 1 -1.1104 12.5699 16.7598 3.83455
153 1 -1.1104 9.44555 14.0548 1.09337
155 1 -1.1104 9.58295 19.6968 1.14071
157 2 2.2208 8.11346 18.1864 2.61732
158 1 -1.1104 9.55972 14.0155 3.91938
159 1 -1.1104 9.61949 19.5097 3.922
160 2 2.2208 8.11088 15.3631 5.37248
161 2 2.2208 8.08781 20.9106 5.2479
162 1 -1.1104 9.57102 16.8179 1.15758
164 1 -1.1104 9.6241 16.7812 3.80276
163 1 -1.1104 9.35275 16.7375 6.80588
145 1 -1.1104 12.3678 19.3463 6.76711
156 1 -1.1104 9.5308 19.514 6.56736
332 2 2.2208 2.49573 -4.21891 13.7365
9775 2 2.2208 -0.348401 -1.38731 8.17145
170 1 -1.1104 1.1713 -0.0174512 6.86434
173 1 -1.1104 3.81731 2.66993 6.75402
174 1 -1.1104 3.9356 -0.0305006 6.60046
172 1 -1.1104 3.92979 -2.7174 6.78855
167 1 -1.1104 0.977398 2.79149 6.74032
175 2 2.2208 5.21538 1.41424 10.935
176 1 -1.1104 0.981449 -2.79721 12.3154
177 1 -1.1104 1.07834 2.79141 12.2261
180 1 -1.1104 0.977882 -2.9549 9.40242
181 1 -1.1104 0.869178 2.81394 9.42217
184 1 -1.1104 1.04468 0.0328593 12.3995
186 2 2.2208 5.311 -1.52951 8.12726
187 2 2.2208 5.14774 4.19883 8.0905
188 1 -1.1104 1.06586 0.0135123 9.53024
190 1 -1.1104 3.89957 -2.82433 12.3304
191 1 -1.1104 3.83292 2.86405 12.4143
192 2 2.2208 2.3301 1.36342 8.1423
193 1 -1.1104 3.7228 -2.7577 9.61087
194 1 -1.1104 3.72486 2.95031 9.53517
195 2 2.2208 2.38954 -1.4195 10.9156
196 2 2.2208 2.3497 4.22316 10.866
197 1 -1.1104 3.70018 0.0366806 12.3419
198 1 -1.1104 3.71899 0.0654333 9.54577
199 2 2.2208 -0.48615 4.15396 8.02396
9776 2 2.2208 -0.482752 1.41235 10.81
711 2 2.2208 -0.357323 4.06947 13.7786
379 2 2.2208 5.27274 4.21369 13.7139
9784 2 2.2208 -0.303597 -1.35479 13.6642
207 1 -1.1104 12.2653 -0.0277321 6.65147
179 1 -1.1104 6.67446 2.82068 12.3129
182 1 -1.1104 6.52662 -2.88506 9.65235
209 1 -1.1104 9.4198 2.68668 6.647
168 1 -1.1104 6.61645 -2.7008 6.7293
169 1 -1.1104 6.51423 2.68457 6.85742
178 1 -1.1104 6.53495 -2.85426 12.2868
189 1 -1.1104 6.63191 -0.0672062 9.45444
183 1 -1.1104 6.6469 2.69996 9.51229
185 1 -1.1104 6.56157 -0.0366535 12.2275
211 2 2.2208 10.8528 1.27067 10.8408
212 1 -1.1104 12.2326 -2.94815 12.3089
213 1 -1.1104 12.1973 2.65304 12.3021
214 1 -1.1104 12.4073 -2.89115 9.5298
215 1 -1.1104 12.2705 2.58227 9.45074
216 1 -1.1104 12.1621 -0.163484 12.2577
217 2 2.2208 10.8052 -1.55287 8.14828
218 2 2.2208 10.6767 4.21527 8.01188
219 1 -1.1104 12.3359 -0.187027 9.4198
220 1 -1.1104 9.40759 -2.89186 12.2142
221 1 -1.1104 9.50977 2.67991 12.384
222 2 2.2208 8.11828 1.36792 8.15263
223 1 -1.1104 9.32809 -2.95901 9.3961
224 1 -1.1104 9.40653 2.63797 9.58988
225 2 2.2208 7.96274 -1.49885 10.9633
227 1 -1.1104 9.36755 -0.079511 12.4066
228 1 -1.1104 9.46863 -0.204533 9.52088
226 2 2.2208 7.89259 4.20056 10.8895
334 2 2.2208 8.06905 -4.25247 13.6179
336 2 2.2208 10.9155 -1.43926 13.6953
410 2 2.2208 8.14649 1.41497 13.6959
239 1 -1.1104 3.72822 5.64343 6.66918
78 1 -1.1104 3.85105 11.1804 6.8162
62 1 -1.1104 0.94939 11.1501 6.65195
9701 2 2.2208 -0.377337 12.5161 10.9104
9708 2 2.2208 -0.352684 9.76909 8.05938
9709 2 2.2208 -0.369564 7.01389 11.0423
240 2 2.2208 5.18272 6.97709 10.9164
241 2 2.2208 5.23302 12.4491 10.9779
242 1 -1.1104 1.01263 8.37963 12.4519
244 1 -1.1104 1.02665 8.37984 9.46172
246 1 -1.1104 1.10003 5.57457 12.3438
247 1 -1.1104 1.12531 11.1089 12.3023
250 2 2.2208 5.33381 9.71378 8.14853
251 1 -1.1104 0.965755 5.54972 9.57467
252 1 -1.1104 0.961097 11.1169 9.51155
255 1 -1.1104 3.85049 8.44842 12.2442
256 2 2.2208 2.24751 6.94 8.12519
257 2 2.2208 2.43982 12.5306 8.08965
258 1 -1.1104 3.90946 8.36926 9.61137
259 2 2.2208 2.40747 9.70278 11.033
260 1 -1.1104 3.79831 5.63082 12.2481
261 1 -1.1104 3.98181 11.2824 12.4431
262 1 -1.1104 3.85448 5.5454 9.42974
263 1 -1.1104 3.79785 11.2046 9.79106
448 2 2.2208 2.4984 12.448 13.7247
267 1 -1.1104 9.51585 8.27304 6.70951
265 1 -1.1104 12.3238 8.4876 6.78995
266 1 -1.1104 12.1552 5.75911 6.84431
243 1 -1.1104 6.54334 8.31669 12.2344
235 1 -1.1104 6.65759 8.37443 6.81375
237 1 -1.1104 6.57152 5.47656 6.79098
245 1 -1.1104 6.66843 8.38817 9.57797
248 1 -1.1104 6.60496 5.64371 12.3694
254 1 -1.1104 6.69533 11.1658 9.52416
253 1 -1.1104 6.72685 5.58824 9.47113
249 1 -1.1104 6.7266 11.1503 12.548
264 1 -1.1104 9.44162 11.2373 9.57063
268 1 -1.1104 9.42451 5.42063 9.36871
270 1 -1.1104 9.55632 11.1355 12.2922
271 1 -1.1104 9.3188 5.62345 12.2712
272 2 2.2208 8.05537 9.75409 10.9798
273 1 -1.1104 9.38715 8.40286 9.53137
274 2 2.2208 8.07964 12.6477 8.10442
275 2 2.2208 8.04613 6.88716 8.14076
276 2 2.2208 10.7113 7.08881 10.9868
277 2 2.2208 10.8966 12.5537 10.8831
278 1 -1.1104 12.1757 8.28028 12.3725
279 1 -1.1104 12.1866 8.26722 9.58418
280 1 -1.1104 12.1834 5.58095 12.5057
281 1 -1.1104 12.3893 11.1248 12.3467
282 2 2.2208 10.8073 9.73353 8.04023
283 1 -1.1104 12.1754 5.40923 9.59722
284 1 -1.1104 12.1924 11.0034 9.30295
285 1 -1.1104 9.35468 8.33134 12.3551
473 2 2.2208 8.03277 6.97662 13.7483
117 1 -1.1104 1.11876 16.5883 6.79684
133 1 -1.1104 3.86347 16.943 6.62259
297 1 -1.1104 6.51247 14.1249 12.1976
118 1 -1.1104 6.58091 16.7607 6.6315
111 1 -1.1104 6.74079 13.9832 6.70708
296 1 -1.1104 6.75305 19.5536 12.2072
124 1 -1.1104 3.90157 13.9451 6.71228
312 2 2.2208 -0.288896 18.1328 10.9923
286 1 -1.1104 3.92356 19.7027 12.4287
287 1 -1.1104 3.73359 14.0201 12.4077
291 1 -1.1104 0.966787 19.4551 9.49603
292 1 -1.1104 1.06875 16.741 9.61989
293 2 2.2208 5.32996 20.8943 8.1357
294 1 -1.1104 0.954223 13.9795 9.44509
295 2 2.2208 5.13997 15.3043 8.07636
298 1 -1.1104 1.20889 19.4373 12.3281
299 1 -1.1104 1.1341 13.9224 12.2516
300 2 2.2208 5.27446 18.1976 10.8266
301 1 -1.1104 3.74991 19.5659 9.56319
303 2 2.2208 2.39513 18.2346 8.16262
304 1 -1.1104 3.89692 16.7171 9.40616
305 1 -1.1104 3.76963 13.9072 9.61983
307 1 -1.1104 1.23407 16.7422 12.3652
308 1 -1.1104 3.99971 16.8848 12.282
309 2 2.2208 2.52877 20.9974 10.9095
310 2 2.2208 2.603 15.4216 10.8914
511 2 2.2208 5.16827 15.4859 13.6402
409 2 2.2208 -0.144123 15.3104 13.7051
321 1 -1.1104 9.45607 19.6012 12.2499
9773 2 2.2208 13.7532 15.306 10.8224
325 2 2.2208 10.863 15.4128 8.15773
318 1 -1.1104 9.47731 19.6428 9.44777
317 2 2.2208 7.98815 15.4018 10.8586
319 1 -1.1104 9.48491 14.041 9.54537
315 1 -1.1104 9.50908 16.77 12.2498
316 2 2.2208 8.06716 20.9463 10.8876
324 2 2.2208 10.9488 20.9753 7.97733
306 1 -1.1104 6.71575 16.8376 12.2592
288 1 -1.1104 6.55908 19.4977 9.42543
320 2 2.2208 8.05376 18.1548 8.11115
149 1 -1.1104 12.2218 16.6037 6.52114
154 1 -1.1104 9.61239 13.8106 6.79693
290 1 -1.1104 6.48955 13.8259 9.39304
314 1 -1.1104 9.63233 16.8787 9.43011
204 1 -1.1104 12.2609 13.9118 9.38706
289 1 -1.1104 6.74224 16.6103 9.38744
229 1 -1.1104 12.3096 19.5625 9.45367
230 1 -1.1104 12.2266 16.7101 12.2033
322 1 -1.1104 9.28199 13.7697 12.2963
81 2 2.2208 10.8254 18.3004 10.9027
331 2 2.2208 13.6584 20.9546 10.9158
323 1 -1.1104 12.4352 16.6877 9.45309
201 1 -1.1104 12.2123 19.5434 12.2619
143 1 -1.1104 12.386 13.957 6.75886
200 1 -1.1104 12.1325 14.0012 12.2193
536 2 2.2208 10.7584 21.0168 13.6216
337 2 2.2208 5.31074 1.39678 16.6212
338 1 -1.1104 1.13323 -2.8516 17.875
339 1 -1.1104 1.09217 2.75483 17.914
342 1 -1.1104 1.08432 -2.55129 15.1654
344 1 -1.1104 1.11182 2.77464 15.0921
350 1 -1.1104 0.92623 -0.0108123 18.0687
352 2 2.2208 5.20004 -1.44925 19.3509
353 2 2.2208 5.28895 4.13346 19.4079
354 1 -1.1104 1.03453 0.156737 15.3513
358 1 -1.1104 3.7923 -2.7578 17.9608
359 1 -1.1104 3.90035 2.86271 17.8762
360 2 2.2208 2.38104 1.40236 19.3492
361 1 -1.1104 3.90318 -2.80998 15.0586
363 1 -1.1104 3.83228 2.7751 15.243
365 2 2.2208 2.40846 -1.24022 16.5828
366 2 2.2208 2.40502 4.26429 16.6056
367 1 -1.1104 3.78771 0.10357 17.9136
368 1 -1.1104 3.91999 -0.0634609 15.2205
9854 2 2.2208 -0.376693 4.1561 19.3447
10137 2 2.2208 -0.314772 1.48868 16.599
10138 2 2.2208 -0.373092 -1.41476 19.394
355 1 -1.1104 1.08961 -0.104699 20.7073
345 1 -1.1104 1.01986 2.80803 20.798
362 1 -1.1104 3.92074 -3.00635 20.7171
364 1 -1.1104 3.80555 2.8283 20.7051
357 1 -1.1104 6.533 -0.00741117 20.6853
333 2 2.2208 5.24298 -1.48849 13.788
378 2 2.2208 2.4561 1.48397 13.7128
346 1 -1.1104 6.78098 -2.84794 15.0816
356 1 -1.1104 6.67589 0.044686 15.1008
341 1 -1.1104 6.70982 2.67876 17.9408
348 1 -1.1104 6.73899 2.87365 15.119
351 1 -1.1104 6.74993 -0.219849 18.1165
340 1 -1.1104 6.76047 -2.92819 17.9295
380 2 2.2208 10.9261 1.47008 16.6994
381 1 -1.1104 12.2763 -2.94494 17.7383
382 1 -1.1104 12.4223 2.85777 17.9825
383 1 -1.1104 12.3484 -2.8218 15.0102
385 1 -1.1104 12.2065 2.74312 15.253
387 1 -1.1104 12.3188 -0.113989 17.962
388 2 2.2208 11.031 -1.35507 19.335
389 2 2.2208 10.9006 4.26101 19.4696
390 1 -1.1104 12.2287 -0.028291 15.0807
392 1 -1.1104 9.56863 -2.8872 17.7714
393 1 -1.1104 9.52923 2.87122 18.0604
394 2 2.2208 8.10578 1.3493 19.3478
395 1 -1.1104 9.59764 -2.71452 15.0571
397 1 -1.1104 9.53332 2.56875 15.1921
399 2 2.2208 8.24274 -1.50106 16.6088
400 2 2.2208 7.9991 4.04936 16.5422
401 1 -1.1104 9.64203 0.0292698 18.0191
402 1 -1.1104 9.39358 -0.0584416 15.2658
412 2 2.2208 10.7009 4.14655 13.7614
349 1 -1.1104 6.6234 2.81755 20.849
398 1 -1.1104 9.51681 2.78049 20.7009
396 1 -1.1104 9.41524 -2.85684 20.5651
347 1 -1.1104 6.61498 -2.88315 20.6196
386 1 -1.1104 12.356 2.72087 20.7473
391 1 -1.1104 12.3617 -0.0324241 20.7294
447 2 2.2208 5.19912 9.70154 13.691
413 2 2.2208 5.1486 6.92532 16.6403
414 2 2.2208 5.22926 12.4846 16.5402
415 1 -1.1104 1.02609 8.34841 18.0159
417 1 -1.1104 1.05882 8.49489 15.2981
421 1 -1.1104 0.974154 5.60477 17.8377
422 1 -1.1104 1.05148 11.1388 17.9814
425 2 2.2208 5.29366 9.83418 19.3377
426 1 -1.1104 0.921314 5.59396 15.149
428 1 -1.1104 1.18362 11.1716 15.1742
434 1 -1.1104 4.00147 8.42593 17.9962
435 2 2.2208 2.47526 7.06631 19.4841
436 2 2.2208 2.45944 12.5027 19.3453
437 1 -1.1104 3.83504 8.37082 15.0317
439 2 2.2208 2.53437 9.75933 16.6055
440 1 -1.1104 3.68111 5.67553 18.0105
441 1 -1.1104 3.90459 11.1291 17.9718
442 1 -1.1104 3.82788 5.54693 15.1367
444 1 -1.1104 3.9315 11.1806 15.2324
9926 2 2.2208 -0.373097 9.73482 19.3286
9927 2 2.2208 -0.395377 6.95843 16.5806
446 2 2.2208 2.35693 6.93701 13.616
427 1 -1.1104 1.06532 5.56433 20.7075
9930 2 2.2208 -0.348106 9.74426 13.8152
423 1 -1.1104 6.53315 5.55956 17.9773
424 1 -1.1104 6.7503 11.0998 17.9883
438 1 -1.1104 3.94535 8.28728 20.7574
418 1 -1.1104 1.13071 8.38219 20.7098
429 1 -1.1104 1.15748 11.0331 20.7724
445 1 -1.1104 4.01797 11.1411 20.7965
431 1 -1.1104 6.67798 5.63886 20.6944
416 1 -1.1104 6.60776 8.31126 17.9036
419 1 -1.1104 6.71445 8.27346 15.153
432 1 -1.1104 6.65362 11.1078 15.2553
430 1 -1.1104 6.58435 5.6119 15.1668
449 2 2.2208 10.8129 6.94252 16.4978
450 2 2.2208 10.7517 12.6443 16.3552
451 1 -1.1104 12.373 8.42485 17.8818
452 1 -1.1104 12.156 8.39786 15.108
454 1 -1.1104 12.1068 5.60766 18.0129
455 1 -1.1104 12.3298 11.2362 17.9284
456 2 2.2208 10.9334 9.82889 19.2077
457 1 -1.1104 12.2897 5.53969 15.1013
459 1 -1.1104 12.2698 11.193 15.1418
461 1 -1.1104 9.66715 8.33114 17.9723
462 2 2.2208 8.12881 6.9324 19.3573
463 2 2.2208 8.21698 12.5493 19.3238
464 1 -1.1104 9.43817 8.36222 15.0974
466 2 2.2208 7.97273 9.75678 16.4865
467 1 -1.1104 9.29376 5.53402 17.9628
468 1 -1.1104 9.45429 11.1 17.7512
469 1 -1.1104 9.4177 5.47924 15.1712
471 1 -1.1104 9.54476 11.181 15.1101
474 2 2.2208 10.8952 9.73559 13.8003
475 2 2.2208 8.15346 12.5532 13.7528
714 2 2.2208 13.5707 6.99644 19.3029
460 1 -1.1104 12.4002 11.2991 20.792
476 2 2.2208 5.39846 18.1308 16.4735
477 1 -1.1104 1.07833 13.8462 17.9856
478 1 -1.1104 1.19771 19.4024 18.0106
481 1 -1.1104 0.943661 13.8952 15.125
483 1 -1.1104 1.14958 19.6031 15.1075
489 1 -1.1104 1.04068 16.6823 17.9322
491 2 2.2208 5.32402 15.2753 19.3982
492 2 2.2208 5.36371 21.0042 19.2875
493 1 -1.1104 1.14844 16.6673 15.1293
497 1 -1.1104 3.88578 13.8536 17.9665
498 1 -1.1104 4.04276 19.4338 17.9738
499 2 2.2208 2.51854 18.0087 19.3059
500 1 -1.1104 3.87584 13.9495 15.2169
502 1 -1.1104 3.99787 19.5618 15.2247
504 2 2.2208 2.39452 15.3222 16.5968
505 2 2.2208 2.54074 20.8814 16.6036
506 1 -1.1104 4.00229 16.5993 17.7594
507 1 -1.1104 3.84681 16.8389 15.0855
411 2 2.2208 -0.39318 18.1566 16.4195
722 2 2.2208 -0.398429 15.2393 19.2389
508 1 -1.1104 3.81491 16.7457 20.6169
501 1 -1.1104 3.82524 13.8935 20.6723
494 1 -1.1104 1.00077 16.6972 20.6139
482 1 -1.1104 1.10774 13.8471 20.8009
509 2 2.2208 2.50778 18.2616 13.7229
407 2 2.2208 -0.267008 21.0624 13.7213
510 2 2.2208 5.29375 21.0537 13.8564
488 1 -1.1104 6.68609 19.568 20.7058
523 1 -1.1104 12.3214 16.8592 20.7639
479 1 -1.1104 6.74005 13.9727 17.9017
485 1 -1.1104 6.62045 14.1019 14.9806
487 1 -1.1104 6.77356 19.6404 15.0423
495 1 -1.1104 6.74197 16.7842 15.1496
480 1 -1.1104 6.75059 19.7134 17.8676
490 1 -1.1104 6.82105 16.7865 17.9635
512 2 2.2208 10.9553 18.0957 16.6205
513 1 -1.1104 12.3243 13.9798 17.857
514 1 -1.1104 12.4621 19.6592 17.9547
515 1 -1.1104 12.2813 14.0323 14.9989
517 1 -1.1104 12.1429 19.5238 15.1317
519 1 -1.1104 12.4415 16.838 17.8607
520 2 2.2208 10.8731 15.428 19.3348
521 2 2.2208 11.0496 20.9588 19.1456
522 1 -1.1104 12.3043 16.8753 15.1945
524 1 -1.1104 9.56854 14.0428 17.8117
525 1 -1.1104 9.58786 19.5425 17.88
526 2 2.2208 8.0881 18.3088 19.3
527 1 -1.1104 9.45313 13.9341 15.0063
529 1 -1.1104 9.42197 19.5759 15.0434
531 2 2.2208 8.07917 15.3947 16.4494
532 2 2.2208 8.16637 20.9499 16.5301
533 1 -1.1104 9.67606 16.8292 17.9291
534 1 -1.1104 9.4956 16.7622 15.0473
538 2 2.2208 8.03177 18.2509 13.7227
486 1 -1.1104 6.66694 13.9345 20.5993
530 1 -1.1104 9.62885 19.6311 20.6068
516 1 -1.1104 12.1609 14.0446 20.7167
518 1 -1.1104 12.4312 19.6199 20.6264
535 1 -1.1104 9.50443 16.9262 20.7588
537 2 2.2208 10.8367 15.3934 13.6121
568 2 2.2208 -0.316622 -4.42492 22.1793
573 2 2.2208 -0.232379 -1.61787 24.9466
369 1 -1.1104 3.83215 -0.0884447 20.6569
343 1 -1.1104 1.0904 -3.01311 20.7866
540 2 2.2208 5.12449 1.38564 22.1774
541 1 -1.1104 1.28794 -2.88931 23.5641
542 1 -1.1104 0.927691 2.68531 23.6498
545 1 -1.1104 0.881763 -3.01118 26.3756
546 1 -1.1104 1.03291 2.69375 26.4635
549 1 -1.1104 1.15106 -0.126674 23.3823
551 2 2.2208 5.29054 -1.55113 24.9234
552 2 2.2208 5.33657 4.18955 25.0197
553 1 -1.1104 1.20747 -0.266397 26.266
555 1 -1.1104 3.89705 -3.0394 23.5733
556 1 -1.1104 3.71643 2.63437 23.5171
557 2 2.2208 2.46413 1.20857 24.9385
558 1 -1.1104 3.77561 -2.83629 26.3987
559 1 -1.1104 3.78935 2.82323 26.3579
560 2 2.2208 2.54943 -1.47425 22.1913
561 2 2.2208 2.37003 4.04029 22.2121
562 1 -1.1104 3.99509 -0.112679 23.479
563 1 -1.1104 3.89607 0.0271574 26.336
9812 2 2.2208 -0.316153 4.15826 25.0262
9816 2 2.2208 -0.332037 1.40103 22.1249
550 1 -1.1104 6.78551 0.0602237 23.4279
564 2 2.2208 5.33476 1.22803 27.8355
566 2 2.2208 2.57193 4.13255 27.8448
572 2 2.2208 -0.352673 1.27321 27.6718
403 1 -1.1104 9.47691 0.1145 20.6766
384 1 -1.1104 12.2419 -2.92461 20.5514
544 1 -1.1104 6.49222 2.75713 23.5681
554 1 -1.1104 6.69891 -0.181481 26.2491
548 1 -1.1104 6.83206 2.73553 26.4004
543 1 -1.1104 6.67623 -2.91452 23.5031
547 1 -1.1104 6.70658 -3.1366 26.3888
576 2 2.2208 10.8691 1.39557 22.2068
577 1 -1.1104 12.0489 -3.03192 23.3668
578 1 -1.1104 12.3997 2.68665 23.5448
579 1 -1.1104 12.3786 -2.87908 26.2758
580 1 -1.1104 12.3225 2.64004 26.247
581 1 -1.1104 12.38 -0.0464395 23.4297
582 2 2.2208 10.9357 -1.53193 24.7891
583 2 2.2208 11.0294 4.0799 25.0033
584 1 -1.1104 12.3554 -0.192671 26.1597
585 1 -1.1104 9.3835 -2.95781 23.6504
586 1 -1.1104 9.57507 2.77581 23.4974
587 2 2.2208 8.09114 1.34876 24.9301
588 1 -1.1104 9.46663 -2.91744 26.3001
589 1 -1.1104 9.46191 2.76227 26.2758
590 2 2.2208 7.99485 -1.51995 21.9135
591 2 2.2208 8.13049 4.16629 22.1547
592 1 -1.1104 9.41329 -0.151469 23.5338
593 1 -1.1104 9.47276 -0.197327 26.2151
594 2 2.2208 10.9165 1.28276 27.6383
443 1 -1.1104 3.79985 5.59644 20.8007
633 2 2.2208 -0.240306 9.74167 24.9971
10105 2 2.2208 -0.286292 7.02946 22.1742
605 2 2.2208 5.31888 6.81256 22.1341
606 2 2.2208 5.36469 12.6406 22.1722
607 1 -1.1104 0.890815 8.36391 23.6745
609 1 -1.1104 1.08173 8.3374 26.2632
611 1 -1.1104 1.08067 5.49735 23.5854
612 1 -1.1104 1.07105 11.1748 23.5468
615 2 2.2208 5.13763 9.72707 24.9333
616 1 -1.1104 1.03967 5.49368 26.3062
617 1 -1.1104 0.972325 11.1071 26.479
620 1 -1.1104 3.63488 8.27185 23.6736
621 2 2.2208 2.42138 6.85998 25.0766
622 2 2.2208 2.50649 12.5586 24.9444
623 1 -1.1104 3.94737 8.43348 26.4033
624 2 2.2208 2.50662 9.67266 22.1292
625 1 -1.1104 4.01953 5.50516 23.5256
626 1 -1.1104 3.93495 11.1652 23.5986
627 1 -1.1104 4.01951 5.55652 26.3725
628 1 -1.1104 3.85999 11.2576 26.2977
630 2 2.2208 2.57407 9.83787 27.7868
420 1 -1.1104 6.58674 8.47586 20.7009
610 1 -1.1104 6.7524 8.36617 26.2894
613 1 -1.1104 6.85207 5.50107 23.5714
608 1 -1.1104 6.59556 8.2209 23.507
631 2 2.2208 5.25293 12.5539 27.6689
635 2 2.2208 -0.284689 7.03701 27.7547
433 1 -1.1104 6.767 11.2049 20.7428
458 1 -1.1104 12.2937 5.4993 20.8902
453 1 -1.1104 12.2773 8.2865 20.7375
465 1 -1.1104 9.46971 8.31449 20.8133
470 1 -1.1104 9.54898 5.57259 20.6981
619 1 -1.1104 6.71061 11.1502 26.2378
614 1 -1.1104 6.77985 11.3669 23.6273
618 1 -1.1104 6.87495 5.57294 26.2658
472 1 -1.1104 9.49425 11.2016 20.5195
636 1 -1.1104 9.48364 11.2673 26.3162
637 1 -1.1104 9.52958 5.51614 26.2692
638 1 -1.1104 9.5843 11.142 23.3809
639 1 -1.1104 9.6786 5.58196 23.5542
640 2 2.2208 8.01663 9.67535 22.0625
641 1 -1.1104 9.59742 8.44481 26.3034
642 2 2.2208 8.0891 12.6512 24.8508
643 2 2.2208 8.21659 7.0497 24.9465
644 2 2.2208 10.8812 7.05608 22.1835
645 2 2.2208 10.8993 12.5705 22.084
646 1 -1.1104 12.183 8.4282 23.4742
647 1 -1.1104 12.5142 8.31381 26.4311
648 1 -1.1104 12.443 5.5008 23.7589
649 1 -1.1104 12.3592 11.2921 23.51
650 2 2.2208 10.9732 9.79012 24.9137
651 1 -1.1104 12.2859 5.46106 26.439
652 1 -1.1104 12.3102 11.0691 26.3651
653 1 -1.1104 9.33841 8.45541 23.4706
655 2 2.2208 8.1168 9.86079 27.7533
656 2 2.2208 10.9406 12.6544 27.6765
678 1 -1.1104 6.57963 16.8676 23.4709
503 1 -1.1104 4.04964 19.512 20.8047
484 1 -1.1104 1.21522 19.4566 20.6783
686 2 2.2208 -0.276631 15.3668 24.801
682 2 2.2208 2.46344 15.3717 22.0298
681 2 2.2208 2.60173 21.0337 22.0603
680 1 -1.1104 3.86731 16.8402 23.4086
679 1 -1.1104 1.09522 16.7222 23.4023
677 1 -1.1104 3.8992 13.9491 26.2408
676 1 -1.1104 4.03838 16.9049 26.187
675 2 2.2208 2.43849 18.1124 24.8677
668 2 2.2208 5.32342 21.0674 24.8374
674 1 -1.1104 3.85897 19.7104 26.3921
673 2 2.2208 5.293 18.1694 22.0242
672 1 -1.1104 1.0701 13.9772 23.4794
666 1 -1.1104 1.08672 13.9745 26.2813
665 1 -1.1104 1.12861 16.7989 26.1741
671 1 -1.1104 1.03268 19.6169 23.5395
664 1 -1.1104 1.07747 19.5592 26.3231
669 2 2.2208 5.27934 15.4614 24.878
660 1 -1.1104 3.78484 19.545 23.5584
662 1 -1.1104 3.96822 14.2284 23.4792
689 2 2.2208 -0.256457 18.1666 21.8948
688 2 2.2208 -0.33495 20.9744 24.9036
661 1 -1.1104 6.58649 13.9995 26.2822
684 2 2.2208 5.21818 18.3173 27.7119
704 1 -1.1104 12.3333 19.547 26.089
370 2 2.2208 13.6498 15.3942 22.2662
705 1 -1.1104 12.3413 13.8528 26.1779
696 1 -1.1104 6.65812 19.5801 26.3448
496 1 -1.1104 6.61421 16.699 20.6804
701 2 2.2208 10.8545 20.9726 24.8041
693 2 2.2208 8.19085 15.5225 22.0891
528 1 -1.1104 9.45353 14.1033 20.6857
702 2 2.2208 10.9418 15.3868 24.8691
691 1 -1.1104 9.59304 16.8396 23.528
706 1 -1.1104 12.1919 19.4378 23.3888
699 1 -1.1104 9.47416 14.0622 23.6011
692 2 2.2208 8.13648 21.0673 22.1511
703 1 -1.1104 12.3467 16.6832 23.623
697 2 2.2208 8.06897 18.2866 24.8488
667 1 -1.1104 6.69627 19.6408 23.4543
700 1 -1.1104 12.3992 16.7964 26.3103
698 1 -1.1104 9.43308 19.7643 23.5134
708 2 2.2208 10.8918 18.2072 21.9974
707 1 -1.1104 12.2833 13.9515 23.4718
694 1 -1.1104 9.31375 19.6507 26.3842
690 1 -1.1104 9.55913 16.8325 26.358
695 1 -1.1104 9.56417 13.9394 26.1846
663 1 -1.1104 6.84151 16.851 26.3393
670 1 -1.1104 6.78844 14.197 23.5001
374 2 2.2208 13.8078 15.4757 27.6651
574 2 2.2208 10.9257 18.2113 27.7006
575 2 2.2208 8.06546 20.9709 27.8202
408 2 2.2208 8.10129 15.336 27.6562
723 2 2.2208 5.27626 23.883 5.22128
724 2 2.2208 5.19857 29.36 5.19184
725 1 -1.1104 0.951635 25.1923 0.947644
726 1 -1.1104 1.26047 25.3182 3.65284
727 1 -1.1104 1.14016 22.4353 1.01088
728 1 -1.1104 1.08486 28.07 0.878137
729 2 2.2208 5.28839 26.5833 2.43368
730 1 -1.1104 1.05157 22.5196 3.94206
731 1 -1.1104 1.24899 28.1767 3.82047
732 1 -1.1104 3.87543 25.1063 1.19116
733 2 2.2208 2.49029 23.8327 2.40022
734 2 2.2208 2.50499 29.479 2.36275
735 1 -1.1104 3.9754 25.0525 3.82745
736 2 2.2208 2.57926 26.5099 5.23165
737 1 -1.1104 3.94103 22.3111 1.13684
738 1 -1.1104 4.05156 27.8958 0.835509
739 1 -1.1104 3.85109 22.4237 3.84405
740 1 -1.1104 3.93238 27.989 3.72201
871 1 -1.1104 3.9082 22.4294 6.70827
742 2 2.2208 -0.154881 23.7886 5.23867
870 1 -1.1104 3.96381 25.2013 6.73264
1268 2 2.2208 5.18325 23.8145 -0.3307
872 1 -1.1104 3.83586 28.0107 6.6291
865 1 -1.1104 6.76288 25.0453 6.65603
1271 2 2.2208 -0.218399 29.3811 -0.430726
1269 2 2.2208 2.44341 26.6386 -0.44167
1270 2 2.2208 5.409 29.4562 -0.445095
746 1 -1.1104 6.63712 22.4915 1.01746
745 1 -1.1104 6.67085 25.3917 3.87452
749 1 -1.1104 6.77892 28.0831 3.70581
744 1 -1.1104 6.64203 25.2095 1.03589
747 1 -1.1104 6.85781 27.9246 1.01058
748 1 -1.1104 6.58838 22.5451 3.9095
750 2 2.2208 10.9444 23.8622 5.06945
751 2 2.2208 11.0295 29.4099 5.28728
752 1 -1.1104 12.4276 25.2915 1.01563
753 1 -1.1104 12.4022 25.3493 3.85788
754 1 -1.1104 12.3871 22.421 0.984727
755 1 -1.1104 12.4358 28.006 0.901858
756 2 2.2208 10.9722 26.6121 2.45438
757 1 -1.1104 12.5157 22.5406 3.74139
758 1 -1.1104 12.2968 28.0611 3.87274
759 1 -1.1104 9.52641 25.2854 1.14212
760 2 2.2208 8.1055 23.7501 2.48275
761 2 2.2208 8.18213 29.4072 2.36575
762 1 -1.1104 9.5455 25.1156 3.84946
763 2 2.2208 8.10592 26.6612 5.16524
764 1 -1.1104 9.52361 22.5162 1.04471
765 1 -1.1104 9.68203 28.0657 1.00175
766 1 -1.1104 9.64635 22.206 3.81685
767 1 -1.1104 9.50444 28.0208 3.85714
899 1 -1.1104 12.3444 28.1414 6.62974
901 1 -1.1104 9.50926 22.3316 6.63372
898 1 -1.1104 12.3931 22.4525 6.47473
900 1 -1.1104 9.5603 25.081 6.56971
1299 2 2.2208 8.2018 26.6032 -0.281346
771 2 2.2208 5.33988 35.0291 5.30132
772 1 -1.1104 1.0812 30.7232 1.07098
773 1 -1.1104 1.03998 36.4202 1.10446
775 1 -1.1104 1.05373 30.8596 3.87054
776 1 -1.1104 1.20267 36.3446 3.90073
778 1 -1.1104 1.03838 33.702 1.07461
779 2 2.2208 5.32395 32.1881 2.50991
780 2 2.2208 5.27493 37.8982 2.4952
781 1 -1.1104 1.00281 33.6486 3.85021
783 1 -1.1104 3.94768 30.8207 1.23074
784 1 -1.1104 3.79484 36.5194 1.04204
785 2 2.2208 2.48917 35.0193 2.48126
786 1 -1.1104 3.86435 30.7953 3.87491
787 1 -1.1104 3.89285 36.5015 3.96805
788 2 2.2208 2.44085 32.2597 5.14366
789 2 2.2208 2.44779 37.7897 5.28133
790 1 -1.1104 3.86606 33.5787 1.17012
791 1 -1.1104 3.92367 33.7402 3.91697
793 2 2.2208 -0.322029 32.2957 2.47485
921 1 -1.1104 1.2121 30.7552 6.64938
927 1 -1.1104 3.86186 30.8602 6.5741
782 1 -1.1104 6.72287 33.6016 3.89518
777 1 -1.1104 6.71971 36.5072 3.91388
795 1 -1.1104 6.82178 30.8059 1.03866
797 1 -1.1104 6.57438 33.6179 1.12011
1327 2 2.2208 2.48745 37.8932 -0.391978
1328 2 2.2208 2.55864 32.2187 -0.381364
1329 2 2.2208 5.1691 35.0309 -0.211398
796 1 -1.1104 6.60414 30.849 3.82462
774 1 -1.1104 6.56862 36.3521 1.15963
798 2 2.2208 10.9643 35.1428 5.31146
799 1 -1.1104 12.3178 30.8504 1.03243
800 1 -1.1104 12.2384 36.4089 0.954618
801 1 -1.1104 12.3958 30.8371 3.94549
802 1 -1.1104 12.2242 36.3277 3.67826
803 1 -1.1104 12.3394 33.5683 1.01738
804 2 2.2208 11.0237 32.1956 2.39322
805 2 2.2208 10.7861 37.7619 2.44195
806 1 -1.1104 12.3159 33.6843 3.8322
807 1 -1.1104 9.59358 30.8538 0.945233
808 1 -1.1104 9.41653 36.4168 1.02946
809 2 2.2208 8.09605 34.9556 2.44127
810 1 -1.1104 9.64282 30.8625 3.70751
811 1 -1.1104 9.55885 36.4136 3.90572
812 2 2.2208 8.0904 32.1363 5.29095
813 2 2.2208 8.06426 37.8099 5.22118
814 1 -1.1104 9.54506 33.6031 0.893676
815 1 -1.1104 9.49963 33.7445 3.85547
959 1 -1.1104 9.44704 36.444 6.8018
957 1 -1.1104 12.316 33.7365 6.67119
958 1 -1.1104 9.5167 30.5774 6.59505
960 1 -1.1104 9.58231 33.5724 6.55121
956 1 -1.1104 12.2494 36.4981 6.74845
1041 2 2.2208 13.7879 32.2054 5.24703
816 2 2.2208 13.6775 34.9992 2.46576
1357 2 2.2208 7.85798 37.8648 -0.266922
1354 2 2.2208 13.6416 37.7347 -0.443391
817 2 2.2208 5.30409 40.6011 5.29175
818 2 2.2208 5.30671 46.2811 5.25303