ITEM: TIMESTEP
100000
ITEM: NUMBER OF ATOMS
17910
ITEM: BOX BOUNDS pp pp pp
-3.5339854544250188e-01 2.7693398545441120e+01
-4.3488873054424557e+00 3.3242888730544547e+02
-3.5864523107181778e-01 2.7698645231071733e+01
ITEM: ATOMS id type q x y z
1 2 2.2208 5.29035 1.34338 5.23982
2 1 -1.1104 1.20599 -3.04334 1.12598
3 1 -1.1104 1.06343 2.63319 1.13369
6 1 -1.1104 1.10042 -2.97954 3.77967
7 1 -1.1104 1.16525 2.613 3.87248
10 1 -1.1104 1.04789 -0.314558 0.946975
12 2 2.2208 5.21872 -1.60258 2.36566
13 2 2.2208 5.296 3.98314 2.46505
14 1 -1.1104 1.06312 -0.18914 3.68354
16 1 -1.1104 3.98417 -2.95431 0.985478
17 1 -1.1104 3.9132 2.54318 1.07064
18 2 2.2208 2.49388 1.24895 2.39956
19 1 -1.1104 3.91812 -2.94342 3.71383
20 1 -1.1104 3.892 2.60455 3.7464
21 2 2.2208 2.22514 -1.63434 5.21835
23 1 -1.1104 3.94914 -0.127392 0.943803
24 1 -1.1104 3.80546 -0.118247 3.74604
22 2 2.2208 2.54072 4.08567 5.23533
25 2 2.2208 -0.24492 -1.57183 2.23005
321 1 -1.1104 9.5392 19.4989 12.3381
9772 2 2.2208 -0.357709 1.21764 5.10754
29 2 2.2208 5.24852 -4.16398 5.2321
231 2 2.2208 8.06491 -4.41269 8.06423
30 2 2.2208 -0.364123 -4.39689 5.1426
203 2 2.2208 5.33753 -4.50199 10.8826
4 1 -1.1104 6.72007 -2.79668 0.915923
28 2 2.2208 2.58225 -4.4242 2.34875
9 1 -1.1104 6.83148 2.77429 3.76127
330 2 2.2208 13.7623 9.61168 10.8192
5 1 -1.1104 6.75246 2.57271 0.930018
8 1 -1.1104 6.62409 -2.88612 3.77393
11 1 -1.1104 6.55983 -0.227209 1.02924
15 1 -1.1104 6.76627 -0.00255504 3.8031
31 2 2.2208 10.8825 1.29496 5.12237
32 1 -1.1104 12.2952 -2.88699 1.13923
33 1 -1.1104 12.2994 2.56845 1.0978
34 1 -1.1104 12.2755 -2.92998 3.93213
35 1 -1.1104 12.2722 2.61603 3.88148
36 1 -1.1104 12.3345 -0.136928 1.05301
37 2 2.2208 10.8034 -1.54303 2.43843
38 2 2.2208 10.9943 4.03234 2.39965
39 1 -1.1104 12.3316 -0.245915 3.81954
40 1 -1.1104 9.45322 -2.9932 0.970392
41 1 -1.1104 9.47663 2.64021 0.932918
42 2 2.2208 8.09612 1.14156 2.35008
43 1 -1.1104 9.50005 -2.95157 3.87108
44 1 -1.1104 9.46674 2.60593 3.64024
45 2 2.2208 7.93537 -1.53665 5.22487
46 2 2.2208 8.14159 4.07401 5.22582
47 1 -1.1104 9.55448 -0.148468 1.01915
48 1 -1.1104 9.47632 -0.285196 3.84565
594 2 2.2208 11.0204 1.27657 -0.410845
297 1 -1.1104 6.7139 13.8722 12.4877
210 1 -1.1104 9.48054 -0.105408 6.51569
209 1 -1.1104 9.58831 2.63523 6.4822
54 2 2.2208 5.35912 6.62163 5.22339
55 2 2.2208 5.25435 12.5136 5.35297
56 1 -1.1104 0.998079 8.20555 1.01083
58 1 -1.1104 1.18374 8.22533 3.76764
60 1 -1.1104 1.14788 5.46875 1.11594
61 1 -1.1104 1.20588 11.1279 1.09285
66 2 2.2208 5.31899 9.59836 2.52276
67 1 -1.1104 1.09176 5.45307 3.78844
68 1 -1.1104 1.08116 11.1716 3.88448
71 1 -1.1104 3.80281 8.29793 1.10759
72 2 2.2208 2.50674 6.79553 2.46477
73 2 2.2208 2.53674 12.5324 2.47752
74 1 -1.1104 3.89875 8.19229 3.86828
75 2 2.2208 2.55252 9.72007 5.10769
76 1 -1.1104 3.85619 5.16602 1.08787
77 1 -1.1104 3.95985 11.0723 1.14634
79 1 -1.1104 3.96165 5.47999 3.7361
80 1 -1.1104 3.78231 11.1298 3.80686
83 2 2.2208 -0.404843 12.5566 5.29639
9774 2 2.2208 -0.254686 6.92724 5.20551
569 2 2.2208 5.33258 -4.29493 -0.378701
62 1 -1.1104 1.09041 11.1488 6.55824
57 1 -1.1104 6.57194 8.18102 1.19225
70 1 -1.1104 6.63666 10.9818 3.90932
82 2 2.2208 -0.335114 9.80168 2.36155
629 2 2.2208 5.16028 6.85567 -0.172275
64 1 -1.1104 6.69445 10.963 1.25518
59 1 -1.1104 6.64837 8.17058 3.98802
69 1 -1.1104 6.89572 5.29946 3.73476
63 1 -1.1104 6.68194 5.40685 0.951609
84 2 2.2208 10.896 6.81202 5.22702
85 2 2.2208 10.9384 12.3476 5.38123
86 1 -1.1104 12.444 8.11181 1.25676
87 1 -1.1104 12.3264 8.31623 3.92509
88 1 -1.1104 12.3256 5.39369 1.11525
89 1 -1.1104 12.2602 10.8942 0.926755
91 2 2.2208 10.9857 9.58091 2.48814
92 1 -1.1104 12.5983 5.46553 3.8965
93 1 -1.1104 12.4054 11.0549 3.86993
94 1 -1.1104 9.55875 8.19478 1.13094
95 2 2.2208 8.0771 6.775 2.40149
96 2 2.2208 8.22189 12.3674 2.55218
97 1 -1.1104 9.37969 8.13365 3.88922
98 2 2.2208 7.88585 9.66008 5.34759
99 1 -1.1104 9.42092 5.46644 1.06027
100 1 -1.1104 9.56217 11.0167 1.22603
102 1 -1.1104 9.75628 5.34807 3.90247
103 1 -1.1104 9.51803 10.9719 4.12759
105 2 2.2208 13.8744 6.75127 2.45974
654 2 2.2208 10.952 6.71536 -0.305736
269 1 -1.1104 9.56194 5.44626 6.62886
656 2 2.2208 10.9617 12.5054 -0.334025
137 2 2.2208 -0.337771 18.1544 5.32405
135 2 2.2208 -0.366947 15.4466 2.53843
106 2 2.2208 5.31698 17.9376 5.42098
107 1 -1.1104 1.18302 13.9306 1.16302
109 1 -1.1104 1.12002 19.405 1.26167
113 1 -1.1104 1.03332 14.0678 3.9602
114 1 -1.1104 0.996598 19.4394 3.89543
116 1 -1.1104 1.04361 16.6502 1.00575
119 2 2.2208 5.4397 15.15 2.4803
120 2 2.2208 5.18253 20.8106 2.539
121 1 -1.1104 1.01685 16.8165 3.99791
123 1 -1.1104 3.93777 13.8667 1.13791
125 1 -1.1104 3.83877 19.5653 1.03621
127 2 2.2208 2.51921 18.1076 2.53944
128 1 -1.1104 3.94286 13.8589 3.90129
129 1 -1.1104 3.75752 19.4512 3.90902
130 2 2.2208 2.54939 15.426 5.32441
131 2 2.2208 2.46765 20.9016 5.35499
132 1 -1.1104 3.81751 16.7234 1.05683
134 1 -1.1104 3.94213 16.7058 4.05019
136 2 2.2208 -0.284393 20.8918 2.49105
302 1 -1.1104 0.957046 19.5464 6.71205
122 1 -1.1104 6.72439 16.4576 4.00604
684 2 2.2208 5.33419 18.0691 -0.282918
230 1 -1.1104 12.2015 16.7554 12.3282
139 1 -1.1104 6.46506 19.1833 3.94443
138 1 -1.1104 6.817 19.4603 1.18719
110 1 -1.1104 6.80716 13.7744 1.09531
115 1 -1.1104 6.72003 13.8585 4.00172
140 1 -1.1104 6.75373 16.5155 1.02035
141 2 2.2208 10.9321 17.963 5.41413
142 1 -1.1104 12.4016 13.8325 1.17223
144 1 -1.1104 12.3716 19.3477 1.08368
146 1 -1.1104 12.251 13.7073 3.96368
147 1 -1.1104 12.1077 19.4711 3.85397
148 1 -1.1104 12.3009 16.5761 1.31157
150 2 2.2208 10.9417 15.1469 2.53275
151 2 2.2208 10.753 20.7939 2.55044
152 1 -1.1104 12.3802 16.6146 3.88678
153 1 -1.1104 9.61229 13.7987 1.04706
155 1 -1.1104 9.5078 19.2725 1.16269
157 2 2.2208 8.13963 17.852 2.54608
158 1 -1.1104 9.52038 13.904 3.89074
159 1 -1.1104 9.2751 19.3755 4.06027
160 2 2.2208 8.1323 15.3225 5.34296
161 2 2.2208 7.9079 20.6778 5.3098
162 1 -1.1104 9.51229 16.4266 1.05882
164 1 -1.1104 9.69063 16.8109 3.92278
145 1 -1.1104 12.1614 19.3759 6.76077
574 2 2.2208 11.0206 18.0105 -0.199119
149 1 -1.1104 12.21 16.5785 6.70826
143 1 -1.1104 12.2835 13.6885 6.7163
306 1 -1.1104 6.77977 16.7119 12.6055
289 1 -1.1104 6.80637 16.5554 9.75115
408 2 2.2208 8.17039 15.245 -0.357373
9777 2 2.2208 -0.294816 -4.35595 10.8795
167 1 -1.1104 1.02287 2.6632 6.68878
173 1 -1.1104 3.94248 2.69202 6.72183
202 2 2.2208 2.38714 -4.49068 8.15128
315 1 -1.1104 9.47213 16.6055 12.5437
174 1 -1.1104 3.88575 -0.0751535 6.61385
166 1 -1.1104 1.10531 -3.07463 6.52535
170 1 -1.1104 0.993815 -0.273511 6.5325
172 1 -1.1104 3.76223 -3.09703 6.50865
199 2 2.2208 -0.382735 3.97013 7.97077
175 2 2.2208 5.23953 1.14092 10.902
176 1 -1.1104 1.22117 -3.03494 12.3024
177 1 -1.1104 1.13395 2.70541 12.3471
180 1 -1.1104 1.00026 -2.97146 9.47875
181 1 -1.1104 1.29606 2.67795 9.35886
184 1 -1.1104 1.22804 -0.0833601 12.1148
186 2 2.2208 5.28207 -1.62894 7.96103
187 2 2.2208 5.33387 3.96175 8.03837
188 1 -1.1104 1.0984 -0.182946 9.40464
190 1 -1.1104 3.9288 -2.92905 12.042
191 1 -1.1104 3.87861 2.84197 12.282
192 2 2.2208 2.61422 1.27123 8.0502
193 1 -1.1104 3.87652 -2.97824 9.35161
194 1 -1.1104 4.06745 2.68469 9.56822
195 2 2.2208 2.5425 -1.54269 10.6651
196 2 2.2208 2.55346 4.13342 10.878
197 1 -1.1104 4.02296 -0.0574908 12.43
198 1 -1.1104 4.02395 -0.262446 9.47174
9776 2 2.2208 -0.165898 1.32954 10.8563
324 2 2.2208 10.8245 20.9387 8.08784
296 1 -1.1104 6.61781 19.5038 12.3263
185 1 -1.1104 6.70712 -0.133106 12.4332
204 1 -1.1104 12.3206 13.9167 9.62596
207 1 -1.1104 12.2098 -0.242541 6.66385
314 1 -1.1104 9.4963 16.6274 9.74706
178 1 -1.1104 6.72404 -2.94375 12.2638
171 1 -1.1104 6.62723 -0.126154 6.59036
169 1 -1.1104 6.79517 2.58856 6.45855
205 1 -1.1104 12.1418 -3.1138 6.67293
206 1 -1.1104 12.2854 2.61071 6.71741
208 1 -1.1104 9.45892 -2.94621 6.58711
189 1 -1.1104 6.61608 -0.131227 9.36641
168 1 -1.1104 6.57285 -2.99363 6.62169
182 1 -1.1104 6.64739 -2.98878 9.4217
183 1 -1.1104 6.85648 2.6391 9.27521
179 1 -1.1104 6.69148 2.612 12.1744
211 2 2.2208 10.9787 1.25452 10.9617
212 1 -1.1104 12.2807 -3.00987 12.3013
213 1 -1.1104 12.2949 2.54032 12.2344
214 1 -1.1104 12.1779 -2.90686 9.52136
215 1 -1.1104 12.4042 2.62332 9.51528
216 1 -1.1104 12.3765 -0.257787 12.341
217 2 2.2208 10.9799 -1.57332 8.07453
218 2 2.2208 10.8602 4.0629 8.12357
219 1 -1.1104 12.3586 -0.194697 9.61512
220 1 -1.1104 9.46242 -2.93351 12.2089
221 1 -1.1104 9.45438 2.75326 12.2438
222 2 2.2208 8.13362 1.18899 7.95244
223 1 -1.1104 9.51555 -3.10923 9.32279
224 1 -1.1104 9.56139 2.53172 9.4488
225 2 2.2208 8.05951 -1.58881 10.8077
227 1 -1.1104 9.52002 -0.205502 12.3187
228 1 -1.1104 9.53946 -0.113531 9.47319
226 2 2.2208 8.08149 4.00388 10.8777
78 1 -1.1104 3.76153 11.1135 6.53171
236 1 -1.1104 0.966514 5.46557 6.53716
239 1 -1.1104 3.91411 5.40347 6.51797
238 1 -1.1104 3.9894 8.25681 6.68557
234 1 -1.1104 1.13575 8.16864 6.68663
9701 2 2.2208 -0.351553 12.5377 10.9034
9709 2 2.2208 -0.204317 7.00762 10.9335
240 2 2.2208 5.32109 6.82427 10.7741
241 2 2.2208 5.39928 12.6301 10.9807
242 1 -1.1104 1.22303 8.39696 12.2055
244 1 -1.1104 1.04761 8.43931 9.48374
246 1 -1.1104 1.22314 5.54393 12.3016
247 1 -1.1104 1.02648 11.0742 12.2531
250 2 2.2208 5.2443 9.65101 8.07186
251 1 -1.1104 1.09882 5.38343 9.39483
252 1 -1.1104 1.11829 11.1073 9.37605
255 1 -1.1104 3.98951 8.31247 12.1163
256 2 2.2208 2.43446 6.92544 8.13617
257 2 2.2208 2.44422 12.5859 8.06308
258 1 -1.1104 3.75005 8.23724 9.60489
259 2 2.2208 2.48149 9.85785 10.7886
260 1 -1.1104 4.05976 5.61478 12.1681
261 1 -1.1104 3.86683 11.1218 12.1691
262 1 -1.1104 3.89738 5.38802 9.23749
263 1 -1.1104 4.02382 11.2581 9.24015
9708 2 2.2208 -0.368851 9.61284 8.02499
447 2 2.2208 5.25498 9.65321 13.6426
319 1 -1.1104 9.58777 13.8715 9.7705
267 1 -1.1104 9.45566 8.19211 6.66332
237 1 -1.1104 6.77463 5.37405 6.70056
90 1 -1.1104 12.363 10.9779 6.70654
65 1 -1.1104 6.58009 11.0053 6.70653
265 1 -1.1104 12.4062 8.19304 6.88976
320 2 2.2208 8.12977 18.1045 8.2096
243 1 -1.1104 6.66896 8.34223 12.3301
101 1 -1.1104 9.27354 11.103 6.73624
235 1 -1.1104 6.71544 8.1429 6.72368
248 1 -1.1104 6.72232 5.49476 12.2939
254 1 -1.1104 6.68127 11.0909 9.51758
245 1 -1.1104 6.70793 8.30711 9.47939
253 1 -1.1104 6.62018 5.401 9.49944
266 1 -1.1104 12.2988 5.39826 6.54389
249 1 -1.1104 6.70451 11.1932 12.3818
264 1 -1.1104 9.44066 10.9554 9.60659
268 1 -1.1104 9.56765 5.40247 9.52279
270 1 -1.1104 9.46881 11.0625 12.3894
271 1 -1.1104 9.52174 5.4928 12.3019
272 2 2.2208 8.00351 9.72223 10.9242
273 1 -1.1104 9.67032 8.10032 9.44545
274 2 2.2208 8.13894 12.4973 8.28473
275 2 2.2208 8.12719 6.84875 8.11389
276 2 2.2208 10.9225 6.71387 10.8578
277 2 2.2208 10.8195 12.4335 11.0034
278 1 -1.1104 12.1504 8.0784 12.3417
279 1 -1.1104 12.3191 8.14711 9.62032
280 1 -1.1104 12.3784 5.2703 12.1456
281 1 -1.1104 12.3547 11.0153 12.3079
282 2 2.2208 10.9573 9.50418 8.11634
283 1 -1.1104 12.3431 5.43144 9.33142
284 1 -1.1104 12.152 11.0128 9.51986
285 1 -1.1104 9.50615 8.20916 12.1556
201 1 -1.1104 12.3013 19.3766 12.3795
311 2 2.2208 -0.280852 21.0344 8.08855
124 1 -1.1104 3.82931 14.0097 6.73923
108 1 -1.1104 0.927579 13.8934 6.6704
133 1 -1.1104 3.94718 16.6823 6.87484
111 1 -1.1104 6.70974 13.8351 6.86386
126 1 -1.1104 3.77451 19.4697 6.73468
313 2 2.2208 -0.288766 15.3747 8.09833
312 2 2.2208 -0.320639 18.0371 11.0079
117 1 -1.1104 1.14084 16.7709 6.66882
286 1 -1.1104 3.87774 19.5882 12.4675
287 1 -1.1104 3.84797 13.9034 12.2986
291 1 -1.1104 1.17062 19.5051 9.65268
292 1 -1.1104 1.07159 16.6833 9.48368
293 2 2.2208 5.28657 20.9102 8.14383
294 1 -1.1104 1.24133 13.8893 9.55489
295 2 2.2208 5.40569 15.3203 8.226
298 1 -1.1104 1.07999 19.5207 12.4043
299 1 -1.1104 1.01106 13.8306 12.3197
300 2 2.2208 5.37755 18.1368 11.025
301 1 -1.1104 3.83164 19.6447 9.69593
303 2 2.2208 2.40209 18.215 8.09667
304 1 -1.1104 3.78049 16.737 9.69209
305 1 -1.1104 4.05248 13.9046 9.61396
307 1 -1.1104 1.25873 16.5089 12.416
308 1 -1.1104 4.04276 16.6525 12.3623
309 2 2.2208 2.54582 20.8901 11.1706
310 2 2.2208 2.51033 15.2879 10.9579
323 1 -1.1104 12.2777 16.5953 9.52182
154 1 -1.1104 9.51055 14.0082 6.65376
156 1 -1.1104 9.42304 19.6351 6.85846
118 1 -1.1104 6.74482 16.7608 6.85083
112 1 -1.1104 6.59996 19.3539 6.62729
163 1 -1.1104 9.45297 16.6396 6.90099
325 2 2.2208 10.8586 15.3035 8.24862
229 1 -1.1104 12.214 19.5023 9.46598
290 1 -1.1104 6.93447 13.9559 9.54486
318 1 -1.1104 9.39154 19.4848 9.63038
288 1 -1.1104 6.65585 19.339 9.55739
200 1 -1.1104 12.2947 13.7615 12.3962
322 1 -1.1104 9.5569 13.7372 12.4424
81 2 2.2208 10.7738 18.1146 11.0043
317 2 2.2208 8.09245 15.2552 11.1066
316 2 2.2208 8.14749 20.8622 11.0208
658 2 2.2208 13.5967 9.58593 -0.340024
333 2 2.2208 5.2465 -1.55652 13.6084
711 2 2.2208 -0.223104 4.20236 13.6764
412 2 2.2208 10.9902 4.01379 13.5045
336 2 2.2208 10.9154 -1.56064 13.624
601 2 2.2208 13.7615 -1.60028 -0.323858
410 2 2.2208 8.15016 1.32982 13.6815
446 2 2.2208 2.71393 6.99699 13.6798
475 2 2.2208 8.20973 12.4378 13.7845
474 2 2.2208 11.0266 9.5508 13.7164
409 2 2.2208 -0.175178 15.192 13.7844
511 2 2.2208 5.26665 15.3009 13.8461
510 2 2.2208 5.28611 20.9212 13.8367
567 2 2.2208 -0.183538 -4.46649 -0.36659
604 2 2.2208 13.8464 3.9458 -0.331256
564 2 2.2208 5.24154 1.30188 -0.364535
565 2 2.2208 2.59423 -1.51517 -0.378488
596 2 2.2208 8.04006 4.07673 -0.338265
595 2 2.2208 8.10415 -1.51678 -0.383477
598 2 2.2208 10.8825 -4.36999 -0.34843
632 2 2.2208 -0.207525 12.645 -0.253363
631 2 2.2208 5.35749 12.2796 -0.349098
635 2 2.2208 -0.343346 6.80614 -0.378045
687 2 2.2208 -0.210741 18.1854 -0.321197
683 2 2.2208 2.30009 20.8896 -0.376107
685 2 2.2208 2.56955 15.2181 -0.323651
337 2 2.2208 5.29517 1.27507 16.4351
338 1 -1.1104 1.10783 -3.0724 17.79
339 1 -1.1104 1.20388 2.69732 17.8378
342 1 -1.1104 1.05512 -3.06047 15.2015
344 1 -1.1104 1.22342 2.62274 14.9983
350 1 -1.1104 1.269 -0.337696 17.9344
352 2 2.2208 5.35367 -1.48041 19.28
353 2 2.2208 5.27144 4.03504 19.2137
354 1 -1.1104 1.04372 -0.238468 14.9984
358 1 -1.1104 3.84294 -2.90566 17.8717
359 1 -1.1104 3.79042 2.82261 17.7163
360 2 2.2208 2.4997 1.22079 19.2439
361 1 -1.1104 3.94407 -3.11108 15.0868
363 1 -1.1104 3.99445 2.65299 14.9285
365 2 2.2208 2.44598 -1.66282 16.481
366 2 2.2208 2.52006 4.24082 16.3805
367 1 -1.1104 4.05399 -0.0699766 17.8694
368 1 -1.1104 3.73742 -0.247549 15.0832
10137 2 2.2208 -0.164693 1.19342 16.4694
10138 2 2.2208 -0.214903 -1.6322 19.311
406 2 2.2208 8.09102 -4.35277 19.2307
9854 2 2.2208 -0.271973 4.09157 19.2384
371 2 2.2208 5.33355 -4.28195 16.497
364 1 -1.1104 3.89291 2.56838 20.5223
343 1 -1.1104 1.0809 -2.98144 20.6411
369 1 -1.1104 3.92616 -0.197115 20.6731
372 2 2.2208 2.46535 -4.41031 19.2407
9784 2 2.2208 -0.270703 -1.56037 13.6584
708 2 2.2208 10.8021 18.1033 22.1977
340 1 -1.1104 6.79052 -2.83791 17.8601
349 1 -1.1104 6.6509 2.64835 20.7262
351 1 -1.1104 6.74411 -0.0721755 17.6546
348 1 -1.1104 6.71834 2.53232 15.0306
356 1 -1.1104 6.78049 -0.164459 14.9281
346 1 -1.1104 6.73422 -2.97793 15.0917
341 1 -1.1104 6.62114 2.65643 17.8394
380 2 2.2208 10.8985 1.24011 16.5561
381 1 -1.1104 12.415 -2.92575 17.9265
382 1 -1.1104 12.1685 2.78741 17.7612
383 1 -1.1104 12.313 -3.1135 15.0548
385 1 -1.1104 12.3675 2.5528 14.9227
387 1 -1.1104 12.4655 -0.138692 17.8571
388 2 2.2208 10.9463 -1.49059 19.2334
389 2 2.2208 10.8413 4.11115 19.2714
390 1 -1.1104 12.3926 -0.149682 15.0977
392 1 -1.1104 9.56786 -2.96896 17.8074
393 1 -1.1104 9.47145 2.66478 17.6742
394 2 2.2208 8.02442 1.2204 19.0943
395 1 -1.1104 9.47804 -3.04388 15.0844
397 1 -1.1104 9.53895 2.6836 15.0638
399 2 2.2208 8.17878 -1.53106 16.367
401 1 -1.1104 9.55236 -0.106863 17.9647
402 1 -1.1104 9.53747 -0.142337 15.0147
400 2 2.2208 8.18603 4.09694 16.3881
405 2 2.2208 10.9608 -4.40479 16.4741
10136 2 2.2208 -0.382867 -4.4805 16.4896
704 1 -1.1104 12.4 19.3801 26.341
670 1 -1.1104 6.66722 13.7479 23.5917
391 1 -1.1104 12.3167 -0.0576846 20.7139
396 1 -1.1104 9.61793 -2.86152 20.608
357 1 -1.1104 6.61584 -0.0416181 20.4903
398 1 -1.1104 9.41724 2.6084 20.5841
9927 2 2.2208 -0.316152 6.79791 16.5377
413 2 2.2208 5.42517 6.86975 16.4507
414 2 2.2208 5.27527 12.335 16.5379
415 1 -1.1104 0.968908 8.20183 17.6583
417 1 -1.1104 1.259 8.24657 15.0343
421 1 -1.1104 1.02226 5.47387 17.876
422 1 -1.1104 1.01761 10.959 18.0901
425 2 2.2208 5.10956 9.63064 19.3346
426 1 -1.1104 1.02473 5.47433 15.1397
428 1 -1.1104 1.0768 11.1441 15.1833
434 1 -1.1104 3.78596 8.33903 17.9285
435 2 2.2208 2.35158 6.87314 19.3183
436 2 2.2208 2.50054 12.5004 19.3096
437 1 -1.1104 3.90223 8.25178 15.1107
439 2 2.2208 2.46521 9.68746 16.491
440 1 -1.1104 3.76811 5.51991 17.801
441 1 -1.1104 3.83657 11.0985 17.9997
442 1 -1.1104 4.08011 5.52911 14.9202
444 1 -1.1104 3.86836 10.9412 14.9231
9926 2 2.2208 -0.390984 9.50487 19.3949
717 2 2.2208 -0.359473 12.4172 16.5631
448 2 2.2208 2.56631 12.3395 13.7292
423 1 -1.1104 6.72469 5.41004 17.9665
427 1 -1.1104 1.02072 5.49074 20.6729
445 1 -1.1104 3.85901 11.0467 20.9177
438 1 -1.1104 3.81088 8.13865 20.6773
693 2 2.2208 8.01997 15.2528 22.1736
419 1 -1.1104 6.7479 8.25884 15.0877
416 1 -1.1104 6.7354 8.21185 17.9502
430 1 -1.1104 6.75999 5.51552 15.121
424 1 -1.1104 6.7369 10.9489 18.0608
432 1 -1.1104 6.61511 11.0513 15.0601
449 2 2.2208 10.8966 6.93835 16.3943
450 2 2.2208 10.7899 12.4108 16.6012
451 1 -1.1104 12.2529 8.07946 18.1097
452 1 -1.1104 12.3496 8.20999 15.0813
454 1 -1.1104 12.2977 5.54115 17.8607
455 1 -1.1104 12.0798 10.9763 17.9396
456 2 2.2208 10.6646 9.60063 19.2994
457 1 -1.1104 12.1923 5.46457 15.1134
459 1 -1.1104 12.2745 10.9767 15.1699
461 1 -1.1104 9.46635 8.32454 17.8332
462 2 2.2208 8.06941 6.86067 19.2989
463 2 2.2208 7.98261 12.458 19.4235
464 1 -1.1104 9.50972 8.29566 15.0634
466 2 2.2208 7.99471 9.64309 16.5983
467 1 -1.1104 9.47088 5.57282 17.9568
468 1 -1.1104 9.38531 11.2118 18.0549
469 1 -1.1104 9.45441 5.55081 14.9403
471 1 -1.1104 9.38187 11.0555 15.2623
460 1 -1.1104 12.2059 11.0647 20.8276
472 1 -1.1104 9.38352 10.9808 20.7827
431 1 -1.1104 6.66841 5.54385 20.6581
453 1 -1.1104 12.2923 8.19957 20.6962
700 1 -1.1104 12.4296 16.628 26.4992
701 2 2.2208 10.8178 20.8067 25.0496
411 2 2.2208 -0.195378 18.033 16.6616
721 2 2.2208 -0.447543 20.88 19.3513
476 2 2.2208 5.14038 18.0128 16.7192
477 1 -1.1104 1.06323 13.885 17.9402
478 1 -1.1104 0.96644 19.5757 17.9983
481 1 -1.1104 1.04787 13.7451 15.1731
483 1 -1.1104 1.20622 19.346 15.051
489 1 -1.1104 1.1407 16.7034 18.1384
491 2 2.2208 5.19895 15.2502 19.337
492 2 2.2208 5.14837 20.9444 19.3544
493 1 -1.1104 1.07803 16.6135 15.197
497 1 -1.1104 3.92177 13.8073 17.9132
498 1 -1.1104 3.6709 19.6134 18.0891
499 2 2.2208 2.62501 18.0444 19.5279
500 1 -1.1104 3.79274 13.6775 15.128
502 1 -1.1104 3.93989 19.2916 15.2974
504 2 2.2208 2.38953 15.1279 16.6188
505 2 2.2208 2.4833 20.8672 16.5113
506 1 -1.1104 3.77268 16.5804 18.0234
507 1 -1.1104 3.8146 16.5155 15.3956
494 1 -1.1104 1.04607 16.6241 20.8245
501 1 -1.1104 3.78783 13.7381 20.712
722 2 2.2208 -0.436328 15.2384 19.3111
694 1 -1.1104 9.50812 19.4317 26.4991
407 2 2.2208 -0.322935 20.8107 13.8504
707 1 -1.1104 12.278 13.8802 23.6325
530 1 -1.1104 9.48275 19.5645 20.8632
480 1 -1.1104 6.43242 19.4077 17.9737
485 1 -1.1104 6.6546 13.8341 15.3119
495 1 -1.1104 6.47277 16.7284 15.1409
487 1 -1.1104 6.8 19.5119 15.2098
479 1 -1.1104 6.69267 13.781 18.1064
490 1 -1.1104 6.49733 16.5609 17.9768
512 2 2.2208 10.8326 17.9289 16.5779
513 1 -1.1104 12.2129 13.7893 18.0966
514 1 -1.1104 12.1354 19.2454 17.9785
515 1 -1.1104 12.27 13.8226 15.0947
517 1 -1.1104 12.2005 19.506 15.3811
519 1 -1.1104 12.2499 16.4827 17.9051
520 2 2.2208 10.8225 15.263 19.2586
521 2 2.2208 10.806 20.9257 19.4833
522 1 -1.1104 12.4051 16.6043 15.171
524 1 -1.1104 9.41856 14.1299 17.867
525 1 -1.1104 9.38613 19.4864 17.7834
526 2 2.2208 7.94473 18.1688 19.4046
527 1 -1.1104 9.41967 13.8067 15.182
529 1 -1.1104 9.45592 19.4035 15.1921
531 2 2.2208 7.98465 15.2346 16.518
532 2 2.2208 7.99185 20.9894 16.571
533 1 -1.1104 9.28635 16.7396 18.0853
534 1 -1.1104 9.48846 16.5855 15.1397
528 1 -1.1104 9.48502 13.659 20.8243
516 1 -1.1104 12.2998 13.8865 20.8306
536 2 2.2208 10.7698 20.7501 13.8495
523 1 -1.1104 12.154 16.6081 20.8207
538 2 2.2208 8.02798 18.0672 13.8805
537 2 2.2208 10.8191 15.1682 13.7299
355 1 -1.1104 1.263 -0.121268 20.6196
345 1 -1.1104 0.986771 2.63451 20.7031
535 1 -1.1104 9.39836 16.6669 20.8667
9812 2 2.2208 -0.277148 4.0222 24.9392
362 1 -1.1104 3.82998 -3.05096 20.6979
540 2 2.2208 5.34032 1.28458 22.0537
541 1 -1.1104 1.04171 -2.90594 23.6159
542 1 -1.1104 1.06932 2.78803 23.3421
545 1 -1.1104 1.18044 -2.91421 26.3483
546 1 -1.1104 1.0057 2.59575 26.2076
549 1 -1.1104 1.05899 -0.0582872 23.3494
551 2 2.2208 5.19353 -1.47757 24.854
552 2 2.2208 5.31811 4.00739 24.9095
553 1 -1.1104 1.16696 -0.0226142 26.1481
555 1 -1.1104 3.75859 -2.98556 23.5314
556 1 -1.1104 3.99097 2.66628 23.4674
557 2 2.2208 2.47657 1.26606 24.7327
558 1 -1.1104 4.00083 -2.98143 26.2863
559 1 -1.1104 3.68429 2.52037 26.3206
560 2 2.2208 2.295 -1.57987 22.1308
562 1 -1.1104 3.81703 -0.22443 23.4616
563 1 -1.1104 3.94672 -0.155805 26.1494
561 2 2.2208 2.50467 4.05473 21.9252
573 2 2.2208 -0.283589 -1.48699 24.9915
692 2 2.2208 8.08721 20.9107 22.1854
347 1 -1.1104 6.74006 -2.85361 20.5862
9816 2 2.2208 -0.322194 1.31211 22.0657
703 1 -1.1104 12.2425 16.6691 23.6366
554 1 -1.1104 6.73624 -0.151949 26.3359
698 1 -1.1104 9.40507 19.4633 23.6048
403 1 -1.1104 9.44096 -0.186848 20.7635
384 1 -1.1104 12.4216 -2.80648 20.6915
699 1 -1.1104 9.61805 13.777 23.5384
547 1 -1.1104 6.72771 -3.01856 26.2978
600 2 2.2208 7.99375 -4.21222 24.8077
599 2 2.2208 10.8939 -4.24298 22.1188
386 1 -1.1104 12.2764 2.70905 20.6899
544 1 -1.1104 6.69124 2.51526 23.5659
548 1 -1.1104 6.57501 2.56451 26.2541
550 1 -1.1104 6.55365 -0.295535 23.5081
543 1 -1.1104 6.58558 -2.94249 23.4916
576 2 2.2208 10.808 1.23321 22.085
577 1 -1.1104 12.353 -2.89422 23.4337
578 1 -1.1104 12.188 2.50224 23.4838
579 1 -1.1104 12.3568 -2.9208 26.2396
580 1 -1.1104 12.3355 2.59786 26.3332
581 1 -1.1104 12.3526 -0.144166 23.6779
582 2 2.2208 10.8546 -1.55443 24.9163
583 2 2.2208 10.7858 3.94824 24.9231
584 1 -1.1104 12.3722 -0.107488 26.3997
585 1 -1.1104 9.39821 -2.9419 23.2753
586 1 -1.1104 9.37703 2.7064 23.3484
587 2 2.2208 8.00195 1.14015 24.9222
588 1 -1.1104 9.47106 -3.05104 26.1597
589 1 -1.1104 9.43805 2.52499 26.2846
590 2 2.2208 7.95917 -1.49395 21.9689
591 2 2.2208 8.12184 4.07389 21.9534
592 1 -1.1104 9.33412 -0.203058 23.5271
593 1 -1.1104 9.51797 -0.162527 26.3216
702 2 2.2208 10.9099 15.2207 24.9313
691 1 -1.1104 9.39697 16.6398 23.4814
706 1 -1.1104 12.3293 19.4996 23.74
429 1 -1.1104 0.94562 10.9276 20.8124
418 1 -1.1104 1.11282 8.1657 20.5768
443 1 -1.1104 3.83459 5.42471 20.6475
634 2 2.2208 -0.381889 12.3196 22.1778
10105 2 2.2208 -0.317067 6.77474 22.1151
605 2 2.2208 5.21837 6.89276 22.1617
606 2 2.2208 5.29671 12.2908 22.2021
607 1 -1.1104 0.952806 8.2145 23.4311
609 1 -1.1104 1.01753 8.27935 26.0723
611 1 -1.1104 1.10162 5.60361 23.5723
612 1 -1.1104 1.18535 11.0189 23.5227
615 2 2.2208 5.26738 9.54376 24.9713
616 1 -1.1104 1.04537 5.44384 26.3911
617 1 -1.1104 1.14264 11.0843 26.1889
620 1 -1.1104 3.82052 8.19017 23.5281
621 2 2.2208 2.46704 6.86372 24.944
622 2 2.2208 2.46907 12.3785 24.7517
623 1 -1.1104 3.78538 8.05367 26.3903
624 2 2.2208 2.44973 9.52078 22.2036
625 1 -1.1104 3.90664 5.50031 23.5006
626 1 -1.1104 3.89574 10.8657 23.6131
627 1 -1.1104 3.8415 5.3416 26.3606
628 1 -1.1104 3.97886 10.8987 26.4849
705 1 -1.1104 12.3383 13.8653 26.4211
633 2 2.2208 -0.355576 9.76355 24.9216
690 1 -1.1104 9.66695 16.6099 26.2695
696 1 -1.1104 6.70117 19.3417 26.3644
667 1 -1.1104 6.72369 19.3689 23.6269
470 1 -1.1104 9.48684 5.46559 20.7128
458 1 -1.1104 12.2544 5.43919 20.6861
465 1 -1.1104 9.48071 8.14309 20.6081
433 1 -1.1104 6.59711 11.0816 20.8209
663 1 -1.1104 6.8345 16.5846 26.3522
614 1 -1.1104 6.60031 10.9992 23.7263
420 1 -1.1104 6.65932 8.38029 20.6978
613 1 -1.1104 6.71652 5.35128 23.4851
608 1 -1.1104 6.5514 8.14124 23.6036
610 1 -1.1104 6.70488 8.20692 26.6092
619 1 -1.1104 6.82489 11.0094 26.4585
618 1 -1.1104 6.49694 5.47211 26.1692
636 1 -1.1104 9.54298 11.023 26.3882
637 1 -1.1104 9.51544 5.31285 26.2549
638 1 -1.1104 9.53274 11.0176 23.575
639 1 -1.1104 9.45056 5.53221 23.4234
640 2 2.2208 8.04104 9.62619 22.2662
641 1 -1.1104 9.52075 8.09263 26.4239
642 2 2.2208 8.04082 12.4173 24.9484
643 2 2.2208 8.01998 6.80418 24.9112
644 2 2.2208 10.9101 6.88875 22.0398
645 2 2.2208 10.8448 12.3536 22.1286
646 1 -1.1104 12.0981 8.2502 23.4791
647 1 -1.1104 12.2662 8.15676 26.3112
648 1 -1.1104 12.2132 5.34578 23.5117
649 1 -1.1104 12.2519 10.9538 23.5246
650 2 2.2208 10.9178 9.58017 25.0489
651 1 -1.1104 12.2966 5.44319 26.2101
652 1 -1.1104 12.3982 11.0114 26.2544
653 1 -1.1104 9.3575 8.23502 23.7001
508 1 -1.1104 3.94219 16.6286 20.8183
484 1 -1.1104 1.13109 19.4019 20.7552
503 1 -1.1104 3.81598 19.5734 20.8477
482 1 -1.1104 1.00055 13.8936 20.7969
678 1 -1.1104 6.60175 16.5623 23.6408
689 2 2.2208 -0.362788 17.9195 22.1899
688 2 2.2208 -0.431764 20.8762 24.9647
686 2 2.2208 -0.462583 15.2108 24.9153
682 2 2.2208 2.41025 15.2002 22.2304
681 2 2.2208 2.30339 20.8524 22.2068
680 1 -1.1104 3.7223 16.6704 23.5448
679 1 -1.1104 0.915711 16.5363 23.5733
677 1 -1.1104 3.96775 13.6855 26.185
676 1 -1.1104 3.95022 16.6369 26.3139
675 2 2.2208 2.52818 17.9763 25.0458
668 2 2.2208 5.24622 20.7828 24.9771
674 1 -1.1104 3.96669 19.3566 26.3072
673 2 2.2208 5.24852 17.9429 22.2514
672 1 -1.1104 0.941644 13.8232 23.6157
666 1 -1.1104 1.12777 13.8315 26.3849
665 1 -1.1104 1.20795 16.6358 26.272
671 1 -1.1104 1.0076 19.3748 23.6114
664 1 -1.1104 1.0896 19.5211 26.4646
669 2 2.2208 5.27704 15.1658 24.9182
660 1 -1.1104 3.88347 19.4057 23.5266
662 1 -1.1104 3.94431 13.8548 23.5141
695 1 -1.1104 9.43315 13.6471 26.337
697 2 2.2208 8.16932 17.9939 25.0094
661 1 -1.1104 6.72924 13.8687 26.428
486 1 -1.1104 6.6244 13.884 20.9179
496 1 -1.1104 6.72565 16.6598 20.5965
488 1 -1.1104 6.59852 19.463 20.8894
518 1 -1.1104 12.1607 19.4773 20.8818
566 2 2.2208 2.42267 3.9373 27.6941
572 2 2.2208 -0.236405 1.25902 27.5867
630 2 2.2208 2.41245 9.57873 27.7103
655 2 2.2208 8.09839 9.53402 27.8476
575 2 2.2208 8.02298 20.7079 27.7947
379 2 2.2208 5.37676 4.06459 13.6708
378 2 2.2208 2.599 1.25135 13.633
9930 2 2.2208 -0.364334 9.61138 13.7203
473 2 2.2208 8.1119 6.92098 13.6061
509 2 2.2208 2.57976 17.9131 13.7949
723 2 2.2208 5.30803 23.6633 5.42656
724 2 2.2208 5.22308 29.1385 5.4704
725 1 -1.1104 0.691915 25.1446 1.04548
726 1 -1.1104 0.900712 25.0977 3.93905
727 1 -1.1104 0.998417 22.1791 1.06645
728 1 -1.1104 1.17122 27.7495 1.03734
729 2 2.2208 5.21349 26.4587 2.59001
730 1 -1.1104 1.02749 22.2555 3.94297
731 1 -1.1104 0.827436 27.9958 3.71826
732 1 -1.1104 3.59168 24.9515 1.12246
733 2 2.2208 2.39288 23.6946 2.57075
734 2 2.2208 2.29487 29.2548 2.4835
735 1 -1.1104 3.74206 25.1566 4.01682
736 2 2.2208 2.37976 26.5269 5.35552
737 1 -1.1104 3.80938 22.2416 1.26061
738 1 -1.1104 3.89621 27.6771 1.2185
739 1 -1.1104 3.95415 22.3475 3.98369
740 1 -1.1104 3.71456 27.9859 4.01464
1025 1 -1.1104 12.3255 38.9245 9.6146
742 2 2.2208 -0.460504 23.6792 5.3069
743 2 2.2208 -0.520501 26.3559 2.49631
1689 1 -1.1104 9.61844 47.4853 12.2794
864 1 -1.1104 1.15923 25.2614 6.8285
872 1 -1.1104 3.8629 27.7449 6.76818
1270 2 2.2208 5.27099 29.2122 -0.352532
1647 1 -1.1104 0.972483 47.606 9.64401
749 1 -1.1104 6.67137 27.7991 4.00848
745 1 -1.1104 6.58713 25.0826 3.94326
746 1 -1.1104 6.68455 22.1136 1.15092
744 1 -1.1104 6.49788 25.0862 1.18238
748 1 -1.1104 6.57572 22.2092 3.95836
747 1 -1.1104 6.55146 27.8693 1.22389
750 2 2.2208 10.7459 23.6169 5.51157
751 2 2.2208 10.9174 29.2999 5.29356
752 1 -1.1104 12.2058 25.184 1.31142
753 1 -1.1104 11.9718 25.1287 4.09644
754 1 -1.1104 12.2185 22.3767 1.07773
755 1 -1.1104 12.1446 27.9979 1.37108
756 2 2.2208 10.7371 26.3992 2.63466
757 1 -1.1104 12.0088 22.2654 3.87399
758 1 -1.1104 12.242 27.9922 3.97799
759 1 -1.1104 9.44925 24.9416 1.10113
760 2 2.2208 8.01868 23.5953 2.53028
761 2 2.2208 7.85809 29.3204 2.59601
762 1 -1.1104 9.33085 24.9842 3.91223
763 2 2.2208 8.06915 26.4849 5.40867
764 1 -1.1104 9.4166 22.144 1.2639
765 1 -1.1104 9.47751 27.858 1.13402
766 1 -1.1104 9.3348 22.1286 4.04934
767 1 -1.1104 9.54538 27.9064 4.02695
868 1 -1.1104 6.69446 22.179 6.8445
898 1 -1.1104 12.2355 22.3197 6.77464
865 1 -1.1104 6.81601 24.9524 6.96978
899 1 -1.1104 12.3932 27.7832 6.81575
1304 2 2.2208 10.8541 29.2839 -0.159389
1298 2 2.2208 10.8417 23.6977 -0.198326
1299 2 2.2208 8.12661 26.4662 -0.250156
793 2 2.2208 -0.434427 32.0054 2.5414
771 2 2.2208 5.26181 34.914 5.47203
772 1 -1.1104 0.950976 30.6425 1.00652
773 1 -1.1104 1.02588 36.235 1.14485
775 1 -1.1104 0.875185 30.7301 3.76053
776 1 -1.1104 1.01763 36.3717 3.92915
778 1 -1.1104 0.911634 33.4785 1.1647
779 2 2.2208 5.02874 32.1978 2.6245
780 2 2.2208 5.24204 37.7664 2.51258
781 1 -1.1104 1.00925 33.5761 4.0377
783 1 -1.1104 3.69583 30.5951 1.00439
784 1 -1.1104 3.92884 36.2946 1.25955
785 2 2.2208 2.37084 34.9039 2.55185
786 1 -1.1104 3.67602 30.7699 3.89208
787 1 -1.1104 3.81642 36.3555 4.09744
788 2 2.2208 2.49451 32.1853 5.36885
789 2 2.2208 2.505 37.7191 5.39798
790 1 -1.1104 3.65982 33.4156 1.18411
791 1 -1.1104 3.85707 33.462 4.18641
792 2 2.2208 -0.24624 37.8411 2.52793
927 1 -1.1104 3.67967 30.7612 6.75637
794 2 2.2208 -0.36695 34.8929 5.32911
925 1 -1.1104 0.952658 33.5066 6.79016
922 1 -1.1104 1.06273 36.2973 6.60693
1449 1 -1.1104 1.16744 47.5316 3.85309
1329 2 2.2208 5.3831 34.9538 -0.260444
777 1 -1.1104 6.72316 36.2937 3.99176
928 1 -1.1104 3.93656 36.3705 6.78694
921 1 -1.1104 0.979112 30.7126 6.638
1327 2 2.2208 2.45605 37.6463 -0.248948
796 1 -1.1104 6.57099 30.6574 4.02803
782 1 -1.1104 6.68333 33.5565 3.95861
795 1 -1.1104 6.46598 30.6948 1.0738
923 1 -1.1104 6.54043 30.5375 6.81747
774 1 -1.1104 6.59963 36.3047 0.994535
926 1 -1.1104 6.5147 33.4614 6.77275