ITEM: TIMESTEP
70000
ITEM: NUMBER OF ATOMS
17910
ITEM: BOX BOUNDS pp pp pp
-3.5913491102165607e-01 2.7699134911021094e+01
-4.3469328858335334e+00 3.3242693288583661e+02
-3.5290807461929602e-01 2.7692908074619716e+01
ITEM: ATOMS id type q x y z
1 2 2.2208 5.41316 1.41231 5.33504
2 1 -1.1104 1.30975 -3.0765 1.19913
3 1 -1.1104 1.20545 2.63293 1.10193
6 1 -1.1104 1.25527 -3.06426 3.88317
7 1 -1.1104 1.17229 2.53273 3.82163
10 1 -1.1104 1.12979 -0.103799 1.14338
12 2 2.2208 5.40086 -1.49659 2.55871
13 2 2.2208 5.50874 4.26212 2.38396
14 1 -1.1104 1.21338 -0.259284 3.9256
16 1 -1.1104 4.09093 -2.99928 1.25689
17 1 -1.1104 4.08936 2.68426 1.04587
18 2 2.2208 2.58595 1.27985 2.56674
19 1 -1.1104 4.13391 -2.79465 3.95212
20 1 -1.1104 3.96531 2.81532 3.82999
21 2 2.2208 2.62 -1.58574 5.24566
23 1 -1.1104 3.82646 -0.142097 1.2616
24 1 -1.1104 4.03674 0.0294789 4.00501
22 2 2.2208 2.65575 4.17476 5.23435
174 1 -1.1104 4.03029 -0.122181 6.74571
9772 2 2.2208 -0.111928 1.19786 5.24662
27 2 2.2208 -0.31513 4.01655 2.46053
25 2 2.2208 -0.198613 -1.54049 2.49716
202 2 2.2208 2.5756 -4.41521 8.03113
173 1 -1.1104 3.85392 2.75558 6.62075
167 1 -1.1104 1.17871 2.56404 6.72454
567 2 2.2208 -0.183118 -4.43559 -0.225068
565 2 2.2208 2.49045 -1.51361 -0.309959
572 2 2.2208 -0.114626 1.26281 -0.183392
5 1 -1.1104 6.84973 2.89759 0.986422
11 1 -1.1104 6.71162 -0.093847 1.01283
9 1 -1.1104 6.89638 2.93877 3.8948
8 1 -1.1104 6.86568 -2.92666 3.79747
4 1 -1.1104 6.79326 -2.79765 0.871104
15 1 -1.1104 6.86679 0.00805752 3.88346
31 2 2.2208 11.0582 1.28685 5.24113
32 1 -1.1104 12.3725 -2.79664 1.03045
33 1 -1.1104 12.2767 2.7836 0.974217
34 1 -1.1104 12.633 -2.8523 3.87142
35 1 -1.1104 12.3527 2.74631 3.82283
36 1 -1.1104 12.2108 0.0179146 1.13464
37 2 2.2208 11.0331 -1.47498 2.50812
38 2 2.2208 11.0142 4.11167 2.37188
39 1 -1.1104 12.4383 -0.141175 4.00107
40 1 -1.1104 9.62497 -2.99832 1.07089
41 1 -1.1104 9.52985 2.68851 0.947468
42 2 2.2208 8.17871 1.44231 2.43791
43 1 -1.1104 9.72503 -2.72659 3.83981
44 1 -1.1104 9.64297 2.57759 3.90462
45 2 2.2208 8.26365 -1.58349 5.26549
46 2 2.2208 8.28806 4.1051 5.24543
47 1 -1.1104 9.38719 -0.0735202 1.1658
48 1 -1.1104 9.55925 -0.0833183 4.00369
207 1 -1.1104 12.4016 -0.113171 6.70081
596 2 2.2208 8.21824 4.08227 -0.381951
595 2 2.2208 8.1753 -1.54535 -0.44749
325 2 2.2208 11.0994 15.3854 8.27878
208 1 -1.1104 9.60826 -3.00649 6.61699
594 2 2.2208 10.8588 1.31358 -0.366613
54 2 2.2208 5.46185 6.9381 5.357
55 2 2.2208 5.40343 12.5192 5.41671
56 1 -1.1104 1.23854 8.22324 1.25396
58 1 -1.1104 1.0731 8.39271 3.93366
60 1 -1.1104 1.19164 5.30594 0.824584
61 1 -1.1104 1.30267 11.004 1.09156
66 2 2.2208 5.38118 9.69792 2.55377
67 1 -1.1104 1.2259 5.5277 3.78407
68 1 -1.1104 1.24878 11.2601 3.97613
71 1 -1.1104 4.11353 8.1477 1.09397
72 2 2.2208 2.62685 6.9049 2.46459
73 2 2.2208 2.67499 12.4924 2.4457
74 1 -1.1104 4.05799 8.26248 3.86237
75 2 2.2208 2.56354 9.78767 5.45044
76 1 -1.1104 3.9648 5.29916 1.04122
77 1 -1.1104 4.0844 10.9228 1.21971
79 1 -1.1104 4.03219 5.61991 3.90107
80 1 -1.1104 3.97021 11.0214 4.05422
78 1 -1.1104 4.12299 11.078 6.73736
236 1 -1.1104 1.27379 5.44215 6.68927
82 2 2.2208 -0.171861 9.75424 2.55476
9774 2 2.2208 -0.181404 6.91785 5.26781
83 2 2.2208 -0.267791 12.5262 5.43073
62 1 -1.1104 1.25227 11.0083 6.85398
203 2 2.2208 5.48178 -4.36161 10.8889
629 2 2.2208 5.42294 6.78242 -0.398524
630 2 2.2208 2.55472 9.52969 -0.202061
51 2 2.2208 8.18929 -4.40806 2.52608
69 1 -1.1104 6.83157 5.7288 3.8419
64 1 -1.1104 6.9369 11.0772 1.20811
70 1 -1.1104 6.86661 11.0991 4.0279
57 1 -1.1104 6.79437 8.39624 1.06585
63 1 -1.1104 6.8771 5.61719 0.98999
59 1 -1.1104 6.81283 8.36579 3.85365
84 2 2.2208 10.8927 6.96553 5.31184
85 2 2.2208 10.9165 12.5003 5.36349
86 1 -1.1104 12.2436 8.20158 1.03694
87 1 -1.1104 12.3962 8.2402 3.68257
88 1 -1.1104 12.3914 5.50429 1.06398
89 1 -1.1104 12.2761 11.0993 1.09539
91 2 2.2208 10.88 9.57782 2.49754
92 1 -1.1104 12.4621 5.62779 3.93952
93 1 -1.1104 12.3279 11.0173 3.87442
94 1 -1.1104 9.46155 8.2293 0.99625
95 2 2.2208 8.10923 6.8749 2.389
96 2 2.2208 8.17943 12.488 2.63741
97 1 -1.1104 9.51995 8.31331 3.8493
98 2 2.2208 8.18126 9.78078 5.36277
99 1 -1.1104 9.65857 5.47732 1.0601
100 1 -1.1104 9.6026 11.0714 1.20737
102 1 -1.1104 9.66186 5.34089 3.87069
103 1 -1.1104 9.65596 11.102 3.96003
569 2 2.2208 5.41152 -4.30522 -0.379365
235 1 -1.1104 6.77736 8.21297 6.68218
101 1 -1.1104 9.56415 11.072 6.77682
90 1 -1.1104 12.4508 11.0942 6.74493
106 2 2.2208 5.29024 18.1781 5.34551
107 1 -1.1104 1.44663 13.857 1.11848
109 1 -1.1104 1.11827 19.5142 1.18491
113 1 -1.1104 1.16781 13.937 3.83013
114 1 -1.1104 1.09191 19.4454 3.98232
116 1 -1.1104 1.1558 16.6749 1.14314
119 2 2.2208 5.51109 15.2338 2.60903
120 2 2.2208 5.32003 20.8269 2.54479
121 1 -1.1104 1.17048 16.6202 4.12912
123 1 -1.1104 4.12496 13.7944 1.13399
125 1 -1.1104 4.00771 19.5148 1.13667
127 2 2.2208 2.55991 18.1031 2.53153
128 1 -1.1104 4.18995 13.8288 3.97177
129 1 -1.1104 3.84685 19.4811 3.89288
130 2 2.2208 2.59444 15.2491 5.40697
131 2 2.2208 2.56216 20.8447 5.305
132 1 -1.1104 3.91709 16.5636 1.12313
134 1 -1.1104 3.9783 16.664 3.9236
108 1 -1.1104 1.04943 13.743 6.70583
137 2 2.2208 -0.171793 18.0799 5.2695
136 2 2.2208 -0.321089 20.8881 2.53403
135 2 2.2208 -0.16441 15.3059 2.57122
133 1 -1.1104 3.94534 16.6168 6.6994
302 1 -1.1104 1.0785 19.3673 6.82684
117 1 -1.1104 1.26834 16.5144 6.88395
29 2 2.2208 5.33418 -4.31253 5.25379
30 2 2.2208 -0.202442 -4.34005 5.25872
110 1 -1.1104 6.73424 14.0587 1.17003
122 1 -1.1104 6.77552 16.7424 3.93891
139 1 -1.1104 6.64081 19.5322 3.93967
140 1 -1.1104 6.74473 16.8143 1.17602
115 1 -1.1104 6.78389 13.7654 3.97344
138 1 -1.1104 6.73708 19.3954 1.19469
141 2 2.2208 10.8467 18.0239 5.34444
142 1 -1.1104 12.3314 13.8565 1.08359
144 1 -1.1104 12.2069 19.5322 1.15842
146 1 -1.1104 12.2568 13.8211 3.86975
147 1 -1.1104 12.2113 19.5094 3.98653
148 1 -1.1104 12.4096 16.7476 1.01882
150 2 2.2208 11.0096 15.3042 2.53701
151 2 2.2208 10.9825 20.9104 2.498
152 1 -1.1104 12.3028 16.6733 3.88032
153 1 -1.1104 9.66629 13.8157 1.16422
155 1 -1.1104 9.34965 19.4928 1.23067
157 2 2.2208 8.11916 18.1686 2.56015
158 1 -1.1104 9.57653 13.8471 3.84694
159 1 -1.1104 9.61139 19.4519 3.8945
160 2 2.2208 8.01895 15.2985 5.49179
161 2 2.2208 8.19797 20.8802 5.23143
162 1 -1.1104 9.59643 16.671 1.0906
164 1 -1.1104 9.44431 16.6574 4.08259
156 1 -1.1104 9.42388 19.3968 6.72948
149 1 -1.1104 12.4196 16.5666 6.8241
118 1 -1.1104 6.78513 16.752 6.77856
166 1 -1.1104 1.32931 -2.94236 6.72013
536 2 2.2208 10.954 20.8668 13.8455
172 1 -1.1104 4.01657 -3.0628 6.73404
9776 2 2.2208 -0.163613 1.28333 10.8843
9775 2 2.2208 -0.280436 -1.5749 8.13105
170 1 -1.1104 1.29326 -0.351106 6.65251
175 2 2.2208 5.46042 1.27631 10.9292
176 1 -1.1104 1.31247 -2.88151 12.228
177 1 -1.1104 1.13384 2.66534 12.4007
180 1 -1.1104 1.27889 -2.94598 9.44219
181 1 -1.1104 1.24006 2.67017 9.59886
184 1 -1.1104 1.15154 -0.048213 12.2929
186 2 2.2208 5.36569 -1.65472 8.00865
187 2 2.2208 5.37566 4.10747 8.04178
188 1 -1.1104 1.21116 -0.0282702 9.46191
190 1 -1.1104 4.13697 -2.83715 12.3889
191 1 -1.1104 3.85685 2.79053 12.2322
192 2 2.2208 2.62614 1.32248 8.04218
193 1 -1.1104 4.07649 -3.03707 9.60504
194 1 -1.1104 4.04654 2.77885 9.46844
195 2 2.2208 2.71286 -1.60413 10.8889
196 2 2.2208 2.59447 4.04682 10.9444
197 1 -1.1104 4.14503 0.0370112 12.3553
198 1 -1.1104 4.10092 -0.168946 9.56132
199 2 2.2208 -0.182776 3.99896 8.05963
189 1 -1.1104 6.79393 0.0911839 9.40105
297 1 -1.1104 6.57629 13.876 12.2696
168 1 -1.1104 6.76218 -3.06835 6.59535
171 1 -1.1104 6.81485 -0.305349 6.6961
206 1 -1.1104 12.5297 2.64987 6.72175
209 1 -1.1104 9.68702 2.68451 6.63335
316 2 2.2208 8.16238 20.8645 10.9147
232 2 2.2208 11.1017 -4.43185 10.8273
210 1 -1.1104 9.67147 -0.156802 6.64396
205 1 -1.1104 12.4622 -2.96083 6.64774
169 1 -1.1104 6.74549 2.69411 6.69147
185 1 -1.1104 6.84006 -0.0092129 12.3122
182 1 -1.1104 6.9392 -2.9521 9.37146
183 1 -1.1104 6.8223 2.80322 9.44033
179 1 -1.1104 6.82038 2.83018 12.3103
178 1 -1.1104 6.85566 -2.77871 12.2345
211 2 2.2208 11.0497 1.1915 10.8052
212 1 -1.1104 12.464 -3.0083 12.2704
213 1 -1.1104 12.3878 2.80367 12.2593
214 1 -1.1104 12.5902 -2.87112 9.44568
215 1 -1.1104 12.5549 2.50223 9.46124
216 1 -1.1104 12.566 0.0179185 12.211
217 2 2.2208 10.9706 -1.62211 8.0493
218 2 2.2208 11.0604 4.07644 7.98123
219 1 -1.1104 12.4651 -0.2365 9.38836
220 1 -1.1104 9.74532 -3.01185 12.1793
221 1 -1.1104 9.63817 2.56263 12.005
222 2 2.2208 8.18029 1.3477 7.99697
223 1 -1.1104 9.76048 -2.99837 9.52091
224 1 -1.1104 9.69609 2.81528 9.34142
225 2 2.2208 8.15875 -1.44173 10.8284
227 1 -1.1104 9.76975 -0.210002 12.191
228 1 -1.1104 9.56609 -0.0790593 9.36707
226 2 2.2208 8.26776 4.08714 10.7748
238 1 -1.1104 4.04405 8.2911 6.7934
234 1 -1.1104 1.17788 8.34946 6.63955
239 1 -1.1104 4.0156 5.55947 6.66847
9709 2 2.2208 -0.175438 6.85938 10.9979
9701 2 2.2208 -0.217779 12.4742 10.9205
240 2 2.2208 5.45252 6.81289 10.9555
241 2 2.2208 5.26807 12.5083 10.9632
242 1 -1.1104 1.15284 8.24549 12.3593
244 1 -1.1104 1.12782 8.28578 9.55954
246 1 -1.1104 1.16784 5.46745 12.2683
247 1 -1.1104 1.11574 11.0145 12.3119
250 2 2.2208 5.39408 9.60977 8.19482
251 1 -1.1104 1.19561 5.49859 9.48897
252 1 -1.1104 1.26117 10.9986 9.62261
255 1 -1.1104 4.03227 8.34351 12.2167
256 2 2.2208 2.65684 6.87858 8.12557
257 2 2.2208 2.62975 12.3943 8.188
258 1 -1.1104 4.00943 8.28929 9.55594
259 2 2.2208 2.58196 9.58128 10.8804
260 1 -1.1104 3.94267 5.56342 12.411
261 1 -1.1104 3.96206 11.1357 12.235
262 1 -1.1104 4.11704 5.45662 9.54794
263 1 -1.1104 3.9271 11.0955 9.57601
9708 2 2.2208 -0.262892 9.62669 8.15052
306 1 -1.1104 6.80133 16.7198 12.412
237 1 -1.1104 6.82584 5.51818 6.66672
267 1 -1.1104 9.42755 8.28105 6.7064
269 1 -1.1104 9.63053 5.63578 6.64131
265 1 -1.1104 12.2707 8.30856 6.71145
266 1 -1.1104 12.4516 5.6192 6.65108
65 1 -1.1104 6.87198 11.0658 6.88645
253 1 -1.1104 6.99443 5.53162 9.51691
254 1 -1.1104 6.66113 11.2205 9.60501
243 1 -1.1104 6.85224 8.24718 12.2747
248 1 -1.1104 6.80753 5.63904 12.4122
245 1 -1.1104 6.76278 8.33772 9.56177
249 1 -1.1104 6.82927 11.1414 12.3146
264 1 -1.1104 9.52966 11.1692 9.6393
268 1 -1.1104 9.82217 5.55452 9.39267
270 1 -1.1104 9.61277 11.0808 12.2475
271 1 -1.1104 9.55801 5.39772 12.2551
272 2 2.2208 8.1677 9.77294 10.9568
273 1 -1.1104 9.60288 8.28079 9.50067
274 2 2.2208 8.12883 12.501 8.13817
275 2 2.2208 8.23742 6.84529 7.97885
276 2 2.2208 11.0244 6.80068 10.9057
277 2 2.2208 10.9423 12.4165 10.9188
278 1 -1.1104 12.4802 8.23986 12.3535
279 1 -1.1104 12.3158 8.28833 9.45996
280 1 -1.1104 12.316 5.44668 12.2039
281 1 -1.1104 12.3419 11.0102 12.2938
282 2 2.2208 10.955 9.71743 8.12179
283 1 -1.1104 12.5913 5.36389 9.39436
284 1 -1.1104 12.4341 11.0962 9.51375
285 1 -1.1104 9.63842 8.33921 12.3814
510 2 2.2208 5.25223 20.7151 13.6401
124 1 -1.1104 3.95681 13.8692 6.74916
313 2 2.2208 -0.289621 15.2452 8.1514
312 2 2.2208 -0.380568 18.0294 10.9317
311 2 2.2208 -0.232844 20.7826 8.20345
126 1 -1.1104 3.97144 19.4314 6.75292
286 1 -1.1104 3.80387 19.2046 12.2589
287 1 -1.1104 3.8333 13.8091 12.4585
291 1 -1.1104 1.06708 19.3745 9.58344
292 1 -1.1104 1.14592 16.516 9.72187
293 2 2.2208 5.26901 20.8183 8.13803
294 1 -1.1104 1.23843 13.8547 9.50466
295 2 2.2208 5.35705 15.2838 8.12059
298 1 -1.1104 1.05973 19.4394 12.3842
299 1 -1.1104 1.0531 13.8569 12.5427
300 2 2.2208 5.25888 17.9677 10.869
301 1 -1.1104 3.86668 19.4358 9.54771
303 2 2.2208 2.46574 17.9671 8.25506
304 1 -1.1104 3.89357 16.5604 9.6002
305 1 -1.1104 3.83449 13.993 9.55647
307 1 -1.1104 1.08033 16.6208 12.2189
308 1 -1.1104 4.03137 16.5146 12.2699
309 2 2.2208 2.54456 20.7177 10.9828
310 2 2.2208 2.47977 15.0846 11.0328
290 1 -1.1104 6.58243 13.9481 9.61019
407 2 2.2208 -0.265697 21.0266 13.6554
315 1 -1.1104 9.65203 16.6542 12.4634
229 1 -1.1104 12.2846 19.6212 9.65169
204 1 -1.1104 12.2993 13.9341 9.58607
200 1 -1.1104 12.3832 13.7533 12.3017
314 1 -1.1104 9.53038 16.6905 9.74239
143 1 -1.1104 12.3585 13.891 6.85337
154 1 -1.1104 9.54831 13.8161 6.75634
145 1 -1.1104 12.2542 19.2717 6.78747
318 1 -1.1104 9.48571 19.4589 9.57387
321 1 -1.1104 9.39384 19.5167 12.4308
317 2 2.2208 8.09845 15.2062 10.9374
81 2 2.2208 10.8877 18.1627 11.0755
319 1 -1.1104 9.3428 13.8021 9.49805
323 1 -1.1104 12.4949 16.8201 9.52173
322 1 -1.1104 9.40578 13.9227 12.3312
289 1 -1.1104 6.65957 16.6905 9.51815
230 1 -1.1104 12.2823 16.54 12.3332
112 1 -1.1104 6.68876 19.5005 6.67465
111 1 -1.1104 6.73251 14.0253 6.76205
163 1 -1.1104 9.60339 16.7122 6.94906
320 2 2.2208 8.09184 17.947 8.25354
324 2 2.2208 10.8884 20.7515 8.2405
201 1 -1.1104 12.2783 19.452 12.4185
288 1 -1.1104 6.75387 19.5486 9.57763
296 1 -1.1104 6.56954 19.465 12.3199
379 2 2.2208 5.31875 4.20683 13.8048
378 2 2.2208 2.55308 1.27029 13.5765
410 2 2.2208 8.37986 1.37991 13.6383
475 2 2.2208 8.15895 12.4847 13.7466
473 2 2.2208 8.27746 6.90687 13.8139
511 2 2.2208 5.35249 15.3071 13.6742
408 2 2.2208 8.18788 15.3541 -0.310423
564 2 2.2208 5.33325 1.34215 -0.537135
566 2 2.2208 2.5889 3.91887 -0.400822
635 2 2.2208 -0.167022 6.86885 -0.231724
632 2 2.2208 -0.195895 12.5195 -0.163205
655 2 2.2208 8.12698 9.63908 -0.285559
687 2 2.2208 -0.457486 18.1291 -0.0956638
337 2 2.2208 5.44365 1.22321 16.3948
338 1 -1.1104 1.26131 -2.89288 18.0034
339 1 -1.1104 1.24816 2.53239 17.9872
342 1 -1.1104 1.11013 -3.05579 15.0908
344 1 -1.1104 1.0465 2.668 15.2164
350 1 -1.1104 1.23831 -0.214418 17.8535
352 2 2.2208 5.52789 -1.57636 19.2287
353 2 2.2208 5.28639 3.92857 19.2682
354 1 -1.1104 1.17355 -0.157171 15.1228
358 1 -1.1104 4.02819 -2.94965 17.9519
359 1 -1.1104 3.96736 2.8857 17.8966
360 2 2.2208 2.64173 1.12401 19.2468
361 1 -1.1104 4.11292 -2.82891 15.149
363 1 -1.1104 3.89698 2.77749 14.926
365 2 2.2208 2.62181 -1.53269 16.4323
366 2 2.2208 2.52708 4.07913 16.5249
367 1 -1.1104 4.08293 -0.0972807 17.866
368 1 -1.1104 3.86059 -0.0643759 15.1374
374 2 2.2208 13.7332 15.2942 27.8123
9854 2 2.2208 -0.238923 4.12861 19.4849
10138 2 2.2208 -0.186127 -1.53984 19.3302
599 2 2.2208 11.0234 -4.3198 22.0257
345 1 -1.1104 1.18005 2.70864 20.74
333 2 2.2208 5.53229 -1.56221 13.703
570 2 2.2208 5.32823 -4.42738 22.0323
711 2 2.2208 -0.251676 4.26132 13.5722
602 2 2.2208 13.7918 -1.55126 22.1713
412 2 2.2208 11.1181 4.03063 13.6842
356 1 -1.1104 6.79133 -0.131844 14.9653
341 1 -1.1104 6.89347 2.65911 17.8821
351 1 -1.1104 6.80958 -0.165537 17.7671
340 1 -1.1104 6.89542 -3.08186 17.924
348 1 -1.1104 6.74993 2.74981 15.1971
346 1 -1.1104 6.98955 -2.86196 15.1449
380 2 2.2208 11.0687 1.19587 16.444
381 1 -1.1104 12.5393 -3.07081 18.034
382 1 -1.1104 12.5269 2.62989 17.805
383 1 -1.1104 12.5013 -2.89619 15.2334
385 1 -1.1104 12.5923 2.76842 15.1032
387 1 -1.1104 12.2978 -0.241697 17.8877
388 2 2.2208 11.0239 -1.49988 19.3495
389 2 2.2208 10.9454 4.04448 19.1729
390 1 -1.1104 12.5798 0.00635565 15.0983
392 1 -1.1104 9.72014 -2.83997 17.7785
393 1 -1.1104 9.63639 2.55033 17.7822
394 2 2.2208 8.17033 1.30888 19.3121
395 1 -1.1104 9.73917 -2.81166 14.8487
397 1 -1.1104 9.73906 2.53392 15.0959
399 2 2.2208 8.3527 -1.44277 16.4505
401 1 -1.1104 9.60938 -0.0951328 17.9623
402 1 -1.1104 9.726 -0.115806 15.0249
400 2 2.2208 8.19919 3.96238 16.5155
391 1 -1.1104 12.3222 -0.0808323 20.7692
349 1 -1.1104 6.63753 2.53711 20.478
336 2 2.2208 11.0411 -1.419 13.642
568 2 2.2208 -0.13746 -4.30882 22.1706
717 2 2.2208 -0.13843 12.6097 16.5198
413 2 2.2208 5.41942 6.91697 16.5407
414 2 2.2208 5.32064 12.5467 16.5827
415 1 -1.1104 1.33265 8.19059 18.0079
417 1 -1.1104 1.16837 8.35013 15.1749
421 1 -1.1104 1.12412 5.37139 17.8761
422 1 -1.1104 1.182 11.1727 17.857
425 2 2.2208 5.38122 9.69945 19.2231
426 1 -1.1104 1.43536 5.53371 14.9628
428 1 -1.1104 1.30676 11.0403 15.0736
434 1 -1.1104 4.06114 8.42292 17.9701
435 2 2.2208 2.65359 6.92627 19.3639
436 2 2.2208 2.6147 12.7276 19.2667
437 1 -1.1104 3.95384 8.48085 14.9424
439 2 2.2208 2.57915 9.76197 16.5623
440 1 -1.1104 4.07101 5.57953 17.9546
441 1 -1.1104 3.98548 11.2147 17.921
442 1 -1.1104 4.02542 5.65331 15.2928
444 1 -1.1104 4.01225 11.2265 15.1522
427 1 -1.1104 1.15831 5.57357 20.6845
9926 2 2.2208 -0.220667 9.76218 19.5512
445 1 -1.1104 3.9188 11.2367 20.7474
9927 2 2.2208 -0.215054 6.84394 16.5869
447 2 2.2208 5.41982 9.83267 13.7239
448 2 2.2208 2.58749 12.4146 13.8052
9930 2 2.2208 -0.166774 9.73076 13.7399
474 2 2.2208 11.0798 9.67664 13.6721
423 1 -1.1104 6.82487 5.5232 17.8757
432 1 -1.1104 6.80701 11.1353 15.1054
416 1 -1.1104 6.92677 8.18336 17.8666
419 1 -1.1104 6.79387 8.2936 15.085
430 1 -1.1104 6.89772 5.53752 15.276
424 1 -1.1104 6.7998 10.9902 17.9583
449 2 2.2208 10.994 6.95699 16.5542
450 2 2.2208 11.0827 12.5311 16.4319
451 1 -1.1104 12.283 8.29447 17.9106
452 1 -1.1104 12.5149 8.39948 15.1575
454 1 -1.1104 12.3468 5.51746 17.8403
455 1 -1.1104 12.4355 11.1504 17.8487
456 2 2.2208 11.0163 9.74598 19.1934
457 1 -1.1104 12.2879 5.65858 15.0248
459 1 -1.1104 12.4413 11.1845 15.0433
461 1 -1.1104 9.55104 8.39422 18.0211
462 2 2.2208 8.18628 6.8696 19.3108
463 2 2.2208 8.32336 12.593 19.2276
464 1 -1.1104 9.66729 8.35195 15.2067
466 2 2.2208 8.19116 9.64622 16.5195
467 1 -1.1104 9.54509 5.4955 17.9314
468 1 -1.1104 9.66937 11.111 17.7478
469 1 -1.1104 9.66345 5.32689 15.209
471 1 -1.1104 9.67102 11.106 14.9954
458 1 -1.1104 12.3363 5.51662 20.6597
10137 2 2.2208 -0.323427 1.37095 16.4211
420 1 -1.1104 6.78795 8.35862 20.7102
460 1 -1.1104 12.2435 11.2062 20.7106
574 2 2.2208 10.8469 18.0243 27.6967
721 2 2.2208 -0.379427 20.8733 19.3903
476 2 2.2208 5.30686 17.9765 16.4627
477 1 -1.1104 1.13181 13.9056 18.0394
478 1 -1.1104 0.930757 19.7222 17.77
481 1 -1.1104 0.997132 14.0351 15.1346
483 1 -1.1104 1.14878 19.4257 15.2449
489 1 -1.1104 1.06387 16.6707 17.9203
491 2 2.2208 5.27054 15.3806 19.4525
492 2 2.2208 5.28726 20.9336 19.2596
493 1 -1.1104 1.24744 16.6528 15.0191
497 1 -1.1104 4.06106 13.9666 17.8078
498 1 -1.1104 3.80692 19.5031 17.8764
499 2 2.2208 2.42352 18.2394 19.2667
500 1 -1.1104 3.92448 13.9848 15.1887
502 1 -1.1104 3.88312 19.4151 15.0806
504 2 2.2208 2.48931 15.4491 16.4723
505 2 2.2208 2.44529 20.9923 16.461
506 1 -1.1104 3.86383 16.7568 17.7877
507 1 -1.1104 3.87988 16.8333 15.0305
503 1 -1.1104 3.80629 19.6191 20.6343
411 2 2.2208 -0.256413 18.1876 16.3783
722 2 2.2208 -0.362261 15.3444 19.3475
487 1 -1.1104 6.66256 19.4206 15.1593
508 1 -1.1104 3.82343 16.8744 20.9022
409 2 2.2208 -0.387803 15.3942 13.7523
705 1 -1.1104 12.3 14.0371 26.2791
490 1 -1.1104 6.59603 16.5643 17.9725
479 1 -1.1104 6.88987 13.8078 17.96
480 1 -1.1104 6.62845 19.4565 17.9048
485 1 -1.1104 6.7578 13.9209 15.2175
495 1 -1.1104 6.81277 16.55 15.1081
523 1 -1.1104 12.2139 16.9302 20.8902
516 1 -1.1104 12.462 14.1981 20.6688
512 2 2.2208 10.8897 18.1453 16.5587
513 1 -1.1104 12.2926 13.85 17.9628
514 1 -1.1104 12.2164 19.5204 17.9193
515 1 -1.1104 12.4559 13.986 15.223
517 1 -1.1104 12.2493 19.5293 15.1297
519 1 -1.1104 12.2716 16.714 17.9579
520 2 2.2208 10.8714 15.4301 19.398
521 2 2.2208 10.9259 20.8699 19.42
522 1 -1.1104 12.4295 16.7551 15.2188
524 1 -1.1104 9.63996 14.021 17.8839
525 1 -1.1104 9.40661 19.6852 18.0157
526 2 2.2208 7.98408 18.1946 19.257
527 1 -1.1104 9.51695 13.9991 15.1163
529 1 -1.1104 9.49583 19.5602 15.2538
531 2 2.2208 8.07536 15.2484 16.5655
532 2 2.2208 8.0457 20.9187 16.5
533 1 -1.1104 9.46202 16.9133 17.9915
534 1 -1.1104 9.57465 16.8625 15.207
530 1 -1.1104 9.43319 19.5858 20.8651
488 1 -1.1104 6.64983 19.5952 20.7234
496 1 -1.1104 6.55599 16.7131 20.7286
537 2 2.2208 10.979 15.2425 13.7989
362 1 -1.1104 4.11125 -2.8858 20.7312
571 2 2.2208 2.49586 -4.36979 25.0655
343 1 -1.1104 1.36745 -3.02015 20.7919
369 1 -1.1104 4.0712 -0.154279 20.6388
573 2 2.2208 -0.250867 -1.61585 25.0098
9816 2 2.2208 -0.0866162 1.24804 22.0697
355 1 -1.1104 1.23786 -0.194304 20.7301
364 1 -1.1104 3.83995 2.48583 20.6943
540 2 2.2208 5.36834 1.27039 22.0778
541 1 -1.1104 1.19905 -2.91129 23.6788
542 1 -1.1104 1.24932 2.78694 23.5062
545 1 -1.1104 1.10423 -2.9927 26.4631
546 1 -1.1104 1.15905 2.59086 26.356
549 1 -1.1104 1.10559 -0.128698 23.4648
551 2 2.2208 5.36497 -1.59013 24.9229
552 2 2.2208 5.37631 4.04868 24.766
553 1 -1.1104 1.19151 -0.143221 26.337
555 1 -1.1104 4.01251 -3.01535 23.4906
556 1 -1.1104 3.92672 2.66678 23.496
557 2 2.2208 2.47726 1.18313 24.8449
558 1 -1.1104 3.89632 -2.91724 26.2447
559 1 -1.1104 3.96308 2.68152 26.3117
560 2 2.2208 2.54913 -1.67553 22.1076
562 1 -1.1104 3.98703 -0.177765 23.5477
563 1 -1.1104 3.94271 -0.0555202 26.2481
9812 2 2.2208 -0.16641 4.18466 25.0111
561 2 2.2208 2.64624 3.96004 22.0297
691 1 -1.1104 9.51881 16.6869 23.5585
699 1 -1.1104 9.58405 13.9626 23.5563
347 1 -1.1104 6.75672 -2.99927 20.6085
403 1 -1.1104 9.56609 -0.252742 20.8307
398 1 -1.1104 9.68552 2.58139 20.5075
386 1 -1.1104 12.4608 2.60312 20.7192
600 2 2.2208 8.16607 -4.38877 24.901
357 1 -1.1104 6.78525 -0.207667 20.6698
550 1 -1.1104 6.87336 -0.165067 23.5481
544 1 -1.1104 6.83536 2.6675 23.3621
543 1 -1.1104 6.67263 -2.97341 23.4359
548 1 -1.1104 6.90914 2.79684 26.1208
554 1 -1.1104 6.63982 -0.155435 26.2931
547 1 -1.1104 6.73566 -2.82713 26.2506
384 1 -1.1104 12.4006 -2.94932 20.6347
396 1 -1.1104 9.60756 -2.99135 20.7473
576 2 2.2208 11.0392 1.19313 22.1472
577 1 -1.1104 12.3059 -2.87791 23.3974
578 1 -1.1104 12.3065 2.72877 23.5174
579 1 -1.1104 12.4897 -2.96894 26.2942
580 1 -1.1104 12.4065 2.57856 26.2177
581 1 -1.1104 12.3686 -0.142942 23.5556
582 2 2.2208 11.027 -1.62202 24.9416
583 2 2.2208 11.078 4.0346 24.8936
584 1 -1.1104 12.2684 -0.239167 26.466
585 1 -1.1104 9.57305 -2.84851 23.5726
586 1 -1.1104 9.63671 2.7305 23.4727
587 2 2.2208 8.16885 1.30665 24.9099
588 1 -1.1104 9.65642 -2.91648 26.2731
589 1 -1.1104 9.59171 2.7483 26.259
590 2 2.2208 8.20122 -1.55219 22.1061
591 2 2.2208 8.23023 4.04465 22.0669
592 1 -1.1104 9.64504 -0.0488787 23.5277
593 1 -1.1104 9.50982 -0.0174941 26.2371
429 1 -1.1104 1.18351 11.291 20.8453
704 1 -1.1104 12.2329 19.5292 26.4331
633 2 2.2208 -0.154532 9.61692 24.9349
418 1 -1.1104 1.3282 8.43936 20.6431
438 1 -1.1104 4.05464 8.27772 20.7321
634 2 2.2208 -0.297712 12.614 22.2081
10105 2 2.2208 -0.202622 6.78793 22.14
443 1 -1.1104 4.11404 5.3629 20.7822
605 2 2.2208 5.52592 6.89146 21.9874
606 2 2.2208 5.32527 12.4744 22.187
607 1 -1.1104 1.12773 8.26949 23.4712
609 1 -1.1104 1.34437 8.13683 26.3401
611 1 -1.1104 1.2316 5.51623 23.5222
612 1 -1.1104 1.22499 11.2187 23.7072
615 2 2.2208 5.32222 9.58871 24.9603
616 1 -1.1104 1.23484 5.50831 26.171
617 1 -1.1104 1.14439 11.0091 26.4432
620 1 -1.1104 3.86134 8.33377 23.4458
621 2 2.2208 2.64291 6.87538 24.8342
622 2 2.2208 2.65843 12.5797 25.0511
623 1 -1.1104 4.05177 8.25307 26.3714
624 2 2.2208 2.64561 9.83031 22.2415
625 1 -1.1104 4.10407 5.57126 23.5617
626 1 -1.1104 3.97449 11.1751 23.7852
627 1 -1.1104 4.14474 5.28037 26.3321
628 1 -1.1104 3.89312 11.0563 26.6016
700 1 -1.1104 12.3781 16.723 26.3902
472 1 -1.1104 9.52012 11.0657 20.5986
465 1 -1.1104 9.50006 8.11303 20.7833
433 1 -1.1104 6.68891 11.164 20.682
431 1 -1.1104 6.74204 5.37389 20.6246
453 1 -1.1104 12.4462 8.43407 20.8018
470 1 -1.1104 9.60099 5.30746 20.65
619 1 -1.1104 6.74732 11.0483 26.2315
614 1 -1.1104 6.77164 11.1053 23.5104
608 1 -1.1104 6.75737 8.20464 23.5273
613 1 -1.1104 6.96676 5.36532 23.3324
610 1 -1.1104 6.95671 8.34162 26.267
618 1 -1.1104 6.89733 5.48127 26.1859
636 1 -1.1104 9.50632 11.1414 26.248
637 1 -1.1104 9.73875 5.54749 26.1768
638 1 -1.1104 9.57746 11.2629 23.5167
639 1 -1.1104 9.64014 5.51114 23.4254
640 2 2.2208 8.19447 9.74891 22.1164
641 1 -1.1104 9.58993 8.37461 26.2233
642 2 2.2208 8.20475 12.5208 24.9565
643 2 2.2208 8.18817 6.8643 24.8207
644 2 2.2208 10.9875 6.8496 22.1948
645 2 2.2208 10.894 12.5492 22.1521
646 1 -1.1104 12.4839 8.28156 23.5761
647 1 -1.1104 12.396 8.4287 26.3765
648 1 -1.1104 12.3324 5.48576 23.6859
649 1 -1.1104 12.4095 11.1618 23.5479
650 2 2.2208 10.9098 9.8162 24.9266
651 1 -1.1104 12.4025 5.34446 26.4494
652 1 -1.1104 12.2369 11.0806 26.2834
653 1 -1.1104 9.73741 8.449 23.4748
694 1 -1.1104 9.62454 19.6062 26.5492
484 1 -1.1104 1.02007 19.653 20.6426
689 2 2.2208 -0.331341 18.118 22.2038
501 1 -1.1104 3.72277 13.9739 20.7544
686 2 2.2208 -0.39777 15.4022 24.9464
494 1 -1.1104 0.987951 16.8125 20.7482
482 1 -1.1104 1.0675 14.0536 20.8414
682 2 2.2208 2.48934 15.3362 22.3292
681 2 2.2208 2.41618 20.9525 22.1334
680 1 -1.1104 3.85437 16.8861 23.5962
679 1 -1.1104 1.13366 16.8948 23.6047
677 1 -1.1104 3.8394 13.8914 26.4324
676 1 -1.1104 3.85089 16.7365 26.356
675 2 2.2208 2.47778 18.1847 24.9603
668 2 2.2208 5.22317 20.8974 25.0645
674 1 -1.1104 3.86524 19.5708 26.3998
673 2 2.2208 5.18232 18.2388 22.1713
672 1 -1.1104 1.09204 13.8497 23.5913
666 1 -1.1104 0.915004 14.0145 26.311
665 1 -1.1104 0.890925 16.8833 26.4749
671 1 -1.1104 1.11942 19.6096 23.4493
664 1 -1.1104 0.994827 19.639 26.3612
669 2 2.2208 5.43699 15.364 25.0315
660 1 -1.1104 3.76974 19.5832 23.5504
662 1 -1.1104 4.03837 13.9981 23.6791
688 2 2.2208 -0.36049 20.8618 24.95
684 2 2.2208 5.30998 18.0781 27.8672
528 1 -1.1104 9.50286 13.9878 20.7997
685 2 2.2208 2.48391 15.2651 27.7191
707 1 -1.1104 12.299 13.9678 23.4857
663 1 -1.1104 6.68032 16.8541 26.3275
667 1 -1.1104 6.60531 19.5675 23.5121
670 1 -1.1104 6.79218 13.9141 23.7008
678 1 -1.1104 6.54104 16.7405 23.4603
696 1 -1.1104 6.80562 19.5273 26.4651
661 1 -1.1104 6.77067 14.0405 26.4273
701 2 2.2208 10.9447 20.9245 25.0436
518 1 -1.1104 12.252 19.5687 20.7357
486 1 -1.1104 6.56336 14.0126 20.9032
708 2 2.2208 10.8793 18.1522 22.222
703 1 -1.1104 12.2266 16.9071 23.7175
693 2 2.2208 8.06649 15.4595 22.129
692 2 2.2208 8.01092 21.0497 22.2045
698 1 -1.1104 9.49242 19.5871 23.8086
706 1 -1.1104 12.3504 19.5208 23.6794
702 2 2.2208 10.9658 15.3392 24.9982
690 1 -1.1104 9.50366 16.6866 26.3438
697 2 2.2208 8.07971 18.2514 24.986
695 1 -1.1104 9.5276 13.6762 26.4439
535 1 -1.1104 9.48225 16.8128 20.7371
538 2 2.2208 8.11094 18.0548 13.8515
631 2 2.2208 5.56687 12.4446 27.721
654 2 2.2208 10.9239 6.96863 27.6858
656 2 2.2208 11.0031 12.3978 27.8062
683 2 2.2208 2.42332 20.7923 27.7571
575 2 2.2208 8.03247 21.0681 27.8574
9784 2 2.2208 -0.156979 -1.35853 13.6798
446 2 2.2208 2.6388 7.00465 13.7148
509 2 2.2208 2.44412 18.0717 13.7171
723 2 2.2208 5.34704 23.5927 5.31445
724 2 2.2208 5.43818 29.3113 5.35886
725 1 -1.1104 1.07487 25.0871 1.24351
726 1 -1.1104 1.22376 25.018 4.21932
727 1 -1.1104 1.09955 22.2532 1.088
728 1 -1.1104 1.15241 27.8017 1.2113
729 2 2.2208 5.29093 26.625 2.59754
730 1 -1.1104 1.21341 22.2446 3.95155
731 1 -1.1104 1.37116 27.7855 3.86989
732 1 -1.1104 3.85573 25.0302 1.01646
733 2 2.2208 2.52597 23.7095 2.55946
734 2 2.2208 2.58124 29.2777 2.53033
735 1 -1.1104 4.02552 24.9696 3.88654
736 2 2.2208 2.65788 26.4994 5.33373
737 1 -1.1104 3.82283 22.3348 1.26827
738 1 -1.1104 3.8777 27.6767 1.19928
739 1 -1.1104 4.06595 22.1474 4.02362
740 1 -1.1104 4.09039 27.8855 3.93931
742 2 2.2208 -0.26208 23.7242 5.42387
741 2 2.2208 -0.127775 29.3637 5.2809
743 2 2.2208 -0.266223 26.5319 2.61831
866 1 -1.1104 1.07913 22.1528 6.69206
870 1 -1.1104 4.05022 25.0659 6.61433
864 1 -1.1104 1.17784 25.0192 6.94318
1246 2 2.2208 8.20899 46.1011 13.7404
1272 2 2.2208 -0.278745 23.6961 -0.244723
744 1 -1.1104 6.76905 25.1121 0.953265
749 1 -1.1104 6.85589 27.9196 3.85253
747 1 -1.1104 6.51772 27.9538 1.08442
746 1 -1.1104 6.67811 22.3186 1.10439
748 1 -1.1104 6.72978 22.3303 3.98023
745 1 -1.1104 6.75417 25.0979 3.78546
869 1 -1.1104 6.71591 27.8648 6.69519
750 2 2.2208 10.9202 23.7081 5.44759
751 2 2.2208 11.0261 29.3004 5.23025
752 1 -1.1104 12.2142 25.2106 0.996777
753 1 -1.1104 12.4097 25.1656 3.86746
754 1 -1.1104 12.3954 22.4778 1.14327
755 1 -1.1104 12.3996 28.0787 1.1985
756 2 2.2208 10.8938 26.5242 2.47172
757 1 -1.1104 12.2983 22.4318 4.0016
758 1 -1.1104 12.2896 28.0459 3.87712
759 1 -1.1104 9.57798 25.1108 1.26557
760 2 2.2208 8.02466 23.7337 2.48738
761 2 2.2208 8.13507 29.3039 2.44055
762 1 -1.1104 9.58554 25.209 4.01852
763 2 2.2208 8.03132 26.3504 5.28487
764 1 -1.1104 9.55309 22.4255 1.24959
765 1 -1.1104 9.55642 27.9208 1.00302
766 1 -1.1104 9.65189 22.3833 3.90154
767 1 -1.1104 9.54327 27.9226 3.70294
865 1 -1.1104 6.76566 25.1337 6.62443
899 1 -1.1104 12.2917 27.8563 6.72871
900 1 -1.1104 9.52144 25.0946 6.75925
868 1 -1.1104 6.70587 22.3331 6.8055
897 1 -1.1104 12.2559 25.1178 6.73792
898 1 -1.1104 12.4075 22.3103 6.88493
793 2 2.2208 -0.30241 32.2227 2.40913
771 2 2.2208 5.44094 34.8309 5.35789
772 1 -1.1104 1.11483 30.6694 1.06565
773 1 -1.1104 1.12767 36.5659 1.13882
775 1 -1.1104 1.19158 30.7615 3.92478
776 1 -1.1104 1.23281 36.4181 3.84117
778 1 -1.1104 1.16698 33.6369 1.01094
779 2 2.2208 5.28262 32.0609 2.42128
780 2 2.2208 5.40435 37.7492 2.38425
781 1 -1.1104 1.14731 33.6138 3.72081
783 1 -1.1104 3.86926 30.6894 1.05908
784 1 -1.1104 4.02697 36.2589 1.00011
785 2 2.2208 2.64765 34.9643 2.39445
786 1 -1.1104 3.96441 30.7847 3.83905
787 1 -1.1104 3.98917 36.2056 3.80551
788 2 2.2208 2.57586 32.274 5.29401
789 2 2.2208 2.75646 37.7593 5.26778
790 1 -1.1104 4.05836 33.3999 0.890643
791 1 -1.1104 3.92791 33.6184 3.84809
792 2 2.2208 -0.255635 37.8046 2.56631
794 2 2.2208 -0.189509 34.9924 5.07897
929 1 -1.1104 4.02521 33.6343 6.66601
925 1 -1.1104 1.19103 33.6174 6.59453
922 1 -1.1104 1.20387 36.2924 6.62843
927 1 -1.1104 3.89979 30.8053 6.70198
921 1 -1.1104 1.21123 30.7594 6.65678
928 1 -1.1104 3.94452 36.2536 6.70114
926 1 -1.1104 6.91451 33.4784 6.6949
797 1 -1.1104 6.71903 33.6608 1.17615
795 1 -1.1104 6.7189 30.7838 1.17258
777 1 -1.1104 6.71948 36.1822 3.80347
782 1 -1.1104 6.76254 33.4273 3.96901
774 1 -1.1104 6.78938 36.3915 1.00523
796 1 -1.1104 6.66604 30.529 3.92667
798 2 2.2208 10.9788 34.9078 5.31869
799 1 -1.1104 12.2669 30.7481 0.916495
800 1 -1.1104 12.2927 36.3747 1.16194
801 1 -1.1104 12.4337 30.7188 3.76331
802 1 -1.1104 12.1713 36.3608 3.91105
803 1 -1.1104 12.2839 33.6246 1.08601
804 2 2.2208 10.8868 32.1332 2.45852
805 2 2.2208 10.9116 37.5809 2.50825