ITEM: TIMESTEP
90000
ITEM: NUMBER OF ATOMS
17910
ITEM: BOX BOUNDS pp pp pp
-3.5726285554779930e-01 2.7697262855546704e+01
-4.3002292512473090e+00 3.3238022925125119e+02
-3.4891780992019489e-01 2.7688917809920245e+01
ITEM: ATOMS id type q x y z
1 2 2.2208 5.1133 1.25174 5.04349
2 1 -1.1104 0.855155 -2.85748 0.829771
3 1 -1.1104 0.860346 2.67749 0.894859
6 1 -1.1104 0.708075 -3.00635 3.60591
7 1 -1.1104 0.855044 2.80617 3.63764
10 1 -1.1104 1.0651 -0.108007 0.922324
12 2 2.2208 5.0236 -1.45392 2.31495
13 2 2.2208 5.13281 4.19833 2.2891
14 1 -1.1104 0.977454 -8.06984e-05 3.69768
16 1 -1.1104 3.63638 -3.03068 1.04233
17 1 -1.1104 3.73878 2.86394 0.878524
18 2 2.2208 2.35567 1.4033 2.37049
19 1 -1.1104 3.63167 -2.83755 3.74317
20 1 -1.1104 3.75226 2.70226 3.67555
21 2 2.2208 2.3012 -1.45553 4.99495
23 1 -1.1104 3.80894 -0.182914 0.958703
24 1 -1.1104 3.70051 -0.0470388 3.66352
22 2 2.2208 2.3546 4.12013 5.19182
174 1 -1.1104 3.73063 0.0092551 6.44842
8 1 -1.1104 6.57933 -2.8834 3.70666
9 1 -1.1104 6.42593 2.7547 3.79074
11 1 -1.1104 6.56013 -0.0447909 0.833499
15 1 -1.1104 6.39796 -0.0771731 3.59879
172 1 -1.1104 3.72898 -2.87645 6.52479
166 1 -1.1104 1.01377 -2.89051 6.46499
539 2 2.2208 13.5429 18.202 13.5736
4 1 -1.1104 6.53188 -2.8626 0.968572
5 1 -1.1104 6.52761 2.81383 0.784633
169 1 -1.1104 6.4049 2.77239 6.53248
173 1 -1.1104 3.62725 2.65736 6.46154
171 1 -1.1104 6.50397 -0.00315786 6.55004
170 1 -1.1104 0.92801 -0.102281 6.4892
167 1 -1.1104 0.825051 2.6902 6.44649
168 1 -1.1104 6.52242 -2.91273 6.50133
137 2 2.2208 -0.406639 18.1306 5.15128
53 2 2.2208 13.5095 -4.30503 2.28143
31 2 2.2208 10.7523 1.48435 5.06623
32 1 -1.1104 12.2599 -2.87317 0.831651
33 1 -1.1104 12.1279 2.76621 0.971072
34 1 -1.1104 12.0669 -2.81845 3.73093
35 1 -1.1104 12.0755 2.82162 3.66679
36 1 -1.1104 12.1747 -0.0132 0.869944
37 2 2.2208 10.7056 -1.39861 2.47742
38 2 2.2208 10.6405 4.18588 2.25267
39 1 -1.1104 12.0992 0.00688504 3.70506
40 1 -1.1104 9.26492 -2.86828 0.933674
41 1 -1.1104 9.3334 2.82114 0.967467
42 2 2.2208 7.85301 1.47549 2.26312
43 1 -1.1104 9.28856 -2.96707 3.66373
44 1 -1.1104 9.31605 2.68097 3.67915
45 2 2.2208 7.92109 -1.46338 5.06145
46 2 2.2208 7.8115 4.18659 5.03636
47 1 -1.1104 9.31849 -0.0220602 0.943213
48 1 -1.1104 9.29204 -0.0459594 3.70724
210 1 -1.1104 9.45519 -0.0446597 6.40531
9479 2 2.2208 13.4389 4.18036 5.0578
50 2 2.2208 13.4623 -1.51416 5.22048
49 2 2.2208 13.6276 1.2824 2.2868
205 1 -1.1104 12.0045 -2.8852 6.51575
206 1 -1.1104 12.1315 2.88141 6.41091
208 1 -1.1104 9.19542 -2.84877 6.57997
209 1 -1.1104 9.30274 2.76893 6.45667
207 1 -1.1104 12.1909 -0.0430508 6.50957
54 2 2.2208 5.04487 6.97881 5.16065
55 2 2.2208 5.21317 12.5929 5.20126
56 1 -1.1104 0.93391 8.30685 1.02779
58 1 -1.1104 0.861199 8.31043 3.84635
60 1 -1.1104 0.83799 5.56103 0.940145
61 1 -1.1104 0.931139 11.1238 1.08652
66 2 2.2208 4.99305 9.65773 2.32608
67 1 -1.1104 0.974586 5.52962 3.66499
68 1 -1.1104 1.20884 11.0482 3.90353
71 1 -1.1104 3.63131 8.23185 0.832122
72 2 2.2208 2.24116 6.89844 2.21825
73 2 2.2208 2.39102 12.4813 2.38863
74 1 -1.1104 3.54527 8.38876 3.63112
75 2 2.2208 2.43632 9.70064 5.31057
76 1 -1.1104 3.68308 5.54307 0.973084
77 1 -1.1104 3.70079 11.1665 0.878284
79 1 -1.1104 3.78001 5.57791 3.7606
80 1 -1.1104 3.92459 11.2302 3.72708
236 1 -1.1104 0.888911 5.56904 6.45076
64 1 -1.1104 6.34341 11.0642 1.02274
70 1 -1.1104 6.50905 11.1123 3.77392
57 1 -1.1104 6.48744 8.28226 0.8725
235 1 -1.1104 6.57077 8.3876 6.46556
234 1 -1.1104 0.979992 8.40601 6.57791
239 1 -1.1104 3.69722 5.57052 6.54511
59 1 -1.1104 6.41472 8.30429 3.77252
69 1 -1.1104 6.58521 5.54648 3.63217
63 1 -1.1104 6.54387 5.55001 0.826852
237 1 -1.1104 6.4746 5.60439 6.31381
238 1 -1.1104 3.7617 8.26452 6.70803
65 1 -1.1104 6.44064 11.1599 6.59005
105 2 2.2208 13.46 7.13825 2.29772
326 2 2.2208 13.5471 9.74465 5.24425
84 2 2.2208 10.6349 7.03406 5.05193
85 2 2.2208 10.7096 12.5818 5.32271
86 1 -1.1104 12.1482 8.46798 0.714438
87 1 -1.1104 12.0486 8.43557 3.54187
88 1 -1.1104 12.1998 5.51671 0.801077
89 1 -1.1104 12.0395 11.2792 1.01881
91 2 2.2208 10.6561 9.81538 2.36322
92 1 -1.1104 11.9594 5.64267 3.64746
93 1 -1.1104 12.0438 11.1721 3.90154
94 1 -1.1104 9.26633 8.40593 0.819576
95 2 2.2208 7.84779 7.04418 2.31082
96 2 2.2208 7.85293 12.567 2.40101
97 1 -1.1104 9.27063 8.42307 3.67535
98 2 2.2208 7.76832 9.72314 5.04954
99 1 -1.1104 9.33964 5.76409 0.818804
100 1 -1.1104 9.22844 11.1202 1.05157
102 1 -1.1104 9.20309 5.63489 3.73411
103 1 -1.1104 9.25292 11.2133 3.78693
104 2 2.2208 13.3567 12.5771 2.29942
266 1 -1.1104 11.9592 5.56646 6.58604
101 1 -1.1104 9.22645 11.2686 6.50009
269 1 -1.1104 9.19035 5.61378 6.506
265 1 -1.1104 12.1544 8.37114 6.54181
267 1 -1.1104 9.27445 8.3176 6.46198
106 2 2.2208 5.08474 18.0775 5.15085
107 1 -1.1104 1.06228 13.9526 0.907129
109 1 -1.1104 0.99667 19.5873 0.933293
113 1 -1.1104 0.911915 13.9472 3.70625
114 1 -1.1104 0.868282 19.3742 3.72574
116 1 -1.1104 0.968524 16.795 0.806686
119 2 2.2208 5.18341 15.2455 2.47381
120 2 2.2208 5.1812 20.9545 2.29995
121 1 -1.1104 0.949425 16.8262 3.68746
123 1 -1.1104 3.7283 13.8649 1.13356
125 1 -1.1104 3.88887 19.5087 0.73295
127 2 2.2208 2.37306 18.2074 2.22796
128 1 -1.1104 3.7486 13.901 4.01067
129 1 -1.1104 3.74225 19.5432 3.76651
130 2 2.2208 2.20185 15.354 5.22454
131 2 2.2208 2.21191 20.8211 5.10222
132 1 -1.1104 3.6763 16.7173 0.885944
134 1 -1.1104 3.68224 16.7603 3.64098
139 1 -1.1104 6.54853 19.5235 3.69565
122 1 -1.1104 6.65911 16.7697 3.89915
138 1 -1.1104 6.54117 19.4983 0.90906
110 1 -1.1104 6.63318 13.9682 0.90349
115 1 -1.1104 6.56636 13.9813 3.73153
126 1 -1.1104 3.56526 19.4455 6.56735
140 1 -1.1104 6.41649 16.8244 1.02076
111 1 -1.1104 6.65338 13.8462 6.56988
124 1 -1.1104 3.76382 13.9814 6.73546
133 1 -1.1104 3.69616 16.6743 6.48737
112 1 -1.1104 6.39869 19.5236 6.59758
141 2 2.2208 10.8234 18.0822 5.17585
142 1 -1.1104 12.082 13.9303 0.78798
144 1 -1.1104 12.2389 19.3721 1.03972
146 1 -1.1104 12.0821 13.985 3.71422
147 1 -1.1104 12.1458 19.5892 3.79985
148 1 -1.1104 12.0874 16.6054 0.902102
150 2 2.2208 10.7312 15.2354 2.39854
151 2 2.2208 10.736 21.0233 2.36378
152 1 -1.1104 12.1324 16.8297 3.77984
153 1 -1.1104 9.40085 14.0045 0.832822
155 1 -1.1104 9.32778 19.534 1.06557
157 2 2.2208 7.87997 18.1257 2.44168
158 1 -1.1104 9.30085 13.8518 3.97458
159 1 -1.1104 9.23325 19.6184 3.66871
160 2 2.2208 7.95404 15.4501 5.21179
161 2 2.2208 7.9601 20.9153 5.16396
162 1 -1.1104 9.181 16.6143 0.944078
164 1 -1.1104 9.28338 16.7188 3.72697
328 2 2.2208 13.5346 15.3857 5.25614
165 2 2.2208 13.5184 18.1464 2.29189
156 1 -1.1104 9.13361 19.5875 6.53859
327 2 2.2208 13.6115 20.8367 5.15253
154 1 -1.1104 9.40383 13.9838 6.75184
149 1 -1.1104 12.3175 16.7707 6.62377
332 2 2.2208 2.17303 -4.22322 13.5711
26 2 2.2208 13.7102 18.1134 7.93469
379 2 2.2208 4.97227 4.05134 13.5594
333 2 2.2208 5.0654 -1.58431 13.4825
175 2 2.2208 5.04986 1.25169 10.6676
176 1 -1.1104 0.816362 -2.77557 12.2225
177 1 -1.1104 0.872803 2.6329 12.1534
180 1 -1.1104 0.891494 -2.92281 9.2573
181 1 -1.1104 1.02159 2.80673 9.31019
184 1 -1.1104 0.691475 0.0242425 12.1193
186 2 2.2208 5.20341 -1.47236 7.90041
187 2 2.2208 5.07505 4.12401 7.78814
188 1 -1.1104 1.03031 -0.0144355 9.26387
190 1 -1.1104 3.64783 -2.95276 12.1462
191 1 -1.1104 3.57523 2.51577 12.158
192 2 2.2208 2.32896 1.29054 7.82733
193 1 -1.1104 3.76449 -2.74098 9.5342
194 1 -1.1104 3.73813 2.88181 9.13532
195 2 2.2208 2.31175 -1.57049 10.6927
196 2 2.2208 2.39003 4.03697 10.7447
197 1 -1.1104 3.65064 -0.0901811 12.0949
198 1 -1.1104 3.70712 -0.130536 9.27565
178 1 -1.1104 6.6106 -2.9176 12.2152
189 1 -1.1104 6.55495 -0.180415 9.38033
182 1 -1.1104 6.47609 -2.81929 9.43223
183 1 -1.1104 6.60058 2.593 9.33222
185 1 -1.1104 6.46783 -0.107644 12.0684
179 1 -1.1104 6.47087 2.80036 12.0408
378 2 2.2208 2.253 1.29334 13.6604
9779 2 2.2208 13.4302 -1.46897 10.7312
9614 2 2.2208 13.5122 4.15464 10.7763
336 2 2.2208 10.5835 -1.61327 13.6235
9778 2 2.2208 13.4708 1.4021 7.92833
211 2 2.2208 10.7309 1.35748 10.7264
212 1 -1.1104 12.0251 -2.81639 12.1595
213 1 -1.1104 12.0545 2.77541 12.2282
214 1 -1.1104 12.0613 -2.86758 9.43482
215 1 -1.1104 12.1607 2.83693 9.38206
216 1 -1.1104 12.0311 -0.0230058 12.2689
217 2 2.2208 10.7413 -1.47248 7.8483
218 2 2.2208 10.5921 4.21679 7.86444
219 1 -1.1104 12.1703 0.0146359 9.27316
220 1 -1.1104 9.25111 -2.96607 12.2224
221 1 -1.1104 9.23431 2.79372 11.9964
222 2 2.2208 7.93213 1.37978 7.86432
223 1 -1.1104 9.30192 -2.70069 9.38371
224 1 -1.1104 9.16469 2.87207 9.11456
225 2 2.2208 8.02796 -1.47308 10.7678
227 1 -1.1104 9.29342 -0.041049 12.0644
228 1 -1.1104 9.37616 -0.0313394 9.27365
226 2 2.2208 7.91875 4.30324 10.6997
9815 2 2.2208 13.3489 1.27656 13.7074
412 2 2.2208 10.5797 4.09079 13.4979
410 2 2.2208 7.79066 1.24748 13.5065
78 1 -1.1104 3.82738 11.1704 6.62113
447 2 2.2208 5.07353 9.69032 13.5109
448 2 2.2208 2.36128 12.5212 13.6121
62 1 -1.1104 1.03511 11.1426 6.62721
240 2 2.2208 5.08021 7.00064 10.6949
241 2 2.2208 5.02503 12.5042 10.8121
242 1 -1.1104 0.940798 8.19943 12.1823
244 1 -1.1104 0.924031 8.41024 9.30216
246 1 -1.1104 0.892599 5.39044 12.0743
247 1 -1.1104 0.969879 11.1952 12.3684
250 2 2.2208 5.14664 9.85922 8.09567
251 1 -1.1104 0.976803 5.51594 9.22363
252 1 -1.1104 0.793571 11.2045 9.46224
255 1 -1.1104 3.65876 8.16399 12.1754
256 2 2.2208 2.33794 6.96554 8.06786
257 2 2.2208 2.31316 12.5762 8.02509
258 1 -1.1104 3.63649 8.47494 9.42146
259 2 2.2208 2.21686 9.68275 10.8798
260 1 -1.1104 3.68436 5.41202 12.1022
261 1 -1.1104 3.74142 11.1008 12.0626
262 1 -1.1104 3.7112 5.54207 9.44043
263 1 -1.1104 3.5679 11.1396 9.39988
243 1 -1.1104 6.38251 8.46249 12.1269
249 1 -1.1104 6.49975 11.0676 12.1856
254 1 -1.1104 6.45652 11.112 9.40319
248 1 -1.1104 6.45373 5.50917 11.9923
245 1 -1.1104 6.53413 8.23375 9.23958
253 1 -1.1104 6.53996 5.57724 9.16014
446 2 2.2208 2.28947 6.74978 13.4178
330 2 2.2208 13.7211 9.84735 10.7815
329 2 2.2208 13.4657 12.6149 8.00131
90 1 -1.1104 12.0648 11.1519 6.72401
712 2 2.2208 13.5003 7.0336 13.5669
474 2 2.2208 10.6407 9.72957 13.6978
9690 2 2.2208 13.4095 6.88938 7.9413
264 1 -1.1104 9.26499 11.1786 9.47074
268 1 -1.1104 9.27162 5.68944 9.43846
270 1 -1.1104 9.28487 11.2177 12.3507
271 1 -1.1104 9.16765 5.61296 12.2743
272 2 2.2208 7.8662 9.67244 10.7195
273 1 -1.1104 9.33184 8.42361 9.39752
274 2 2.2208 7.94383 12.5175 7.98249
275 2 2.2208 7.90723 6.94168 7.82626
276 2 2.2208 10.7223 7.0308 10.7455
277 2 2.2208 10.717 12.4932 10.9511
278 1 -1.1104 11.9912 8.37237 12.2251
279 1 -1.1104 12.2168 8.36406 9.38767
280 1 -1.1104 11.9283 5.45709 12.0551
281 1 -1.1104 12.1451 11.0959 12.3347
282 2 2.2208 10.8103 9.83909 8.09548
283 1 -1.1104 12.1956 5.70304 9.31915
284 1 -1.1104 12.1014 11.1746 9.54792
285 1 -1.1104 9.20319 8.40969 12.1571
473 2 2.2208 7.82167 6.94812 13.4428
716 2 2.2208 13.6408 12.5835 13.6517
290 1 -1.1104 6.32884 13.8332 9.4379
118 1 -1.1104 6.51835 16.6683 6.71621
289 1 -1.1104 6.57308 16.6189 9.48957
509 2 2.2208 2.20058 18.1326 13.4884
296 1 -1.1104 6.55507 19.4701 12.0255
297 1 -1.1104 6.37722 13.8914 12.1544
288 1 -1.1104 6.37406 19.5472 9.39441
108 1 -1.1104 0.992857 13.87 6.53389
117 1 -1.1104 0.797273 16.6869 6.62912
302 1 -1.1104 0.929459 19.4608 6.62704
286 1 -1.1104 3.78358 19.6611 12.1916
287 1 -1.1104 3.57174 13.9487 12.2457
291 1 -1.1104 0.936959 19.6443 9.31482
292 1 -1.1104 0.848453 16.8142 9.42855
293 2 2.2208 5.075 21.0053 7.83859
294 1 -1.1104 0.844107 13.994 9.3623
295 2 2.2208 5.13703 15.2685 8.14674
298 1 -1.1104 0.797892 19.5301 12.1076
299 1 -1.1104 0.820413 13.9327 12.1797
300 2 2.2208 5.12263 18.1329 10.7876
301 1 -1.1104 3.60005 19.4842 9.44697
303 2 2.2208 2.26553 18.142 8.03182
304 1 -1.1104 3.67836 16.7586 9.29974
305 1 -1.1104 3.5641 14.0734 9.40626
307 1 -1.1104 0.881711 16.7438 12.2138
308 1 -1.1104 3.60138 16.8215 12.0871
309 2 2.2208 2.29844 21.0219 10.7227
310 2 2.2208 2.16206 15.4134 10.8254
306 1 -1.1104 6.47327 16.7029 12.2229
510 2 2.2208 5.30007 21.0559 13.5762
9773 2 2.2208 13.6137 15.2541 10.8459
322 1 -1.1104 9.31223 13.9372 12.2401
52 2 2.2208 10.6671 -4.31795 5.13902
538 2 2.2208 7.84601 18.0568 13.5429
324 2 2.2208 10.7189 20.9618 7.92608
201 1 -1.1104 12.2082 19.444 12.1141
314 1 -1.1104 9.32219 16.8245 9.35023
315 1 -1.1104 9.42561 16.6671 12.1709
316 2 2.2208 7.98363 21.0216 10.7375
229 1 -1.1104 12.2094 19.5127 9.32693
325 2 2.2208 10.8259 15.3422 8.07453
163 1 -1.1104 9.51755 16.7383 6.56533
143 1 -1.1104 12.2204 13.9609 6.63736
318 1 -1.1104 9.13308 19.5055 9.38649
537 2 2.2208 10.7663 15.3383 13.6365
145 1 -1.1104 12.1304 19.5789 6.51728
317 2 2.2208 7.94966 15.2562 10.8339
204 1 -1.1104 12.1559 13.922 9.47745
319 1 -1.1104 9.26527 14.0269 9.48165
230 1 -1.1104 12.1778 16.7418 12.4273
323 1 -1.1104 12.1458 16.7398 9.43905
321 1 -1.1104 9.44375 19.4605 12.1287
81 2 2.2208 10.7013 18.0035 10.7957
200 1 -1.1104 12.2153 13.9287 12.2341
320 2 2.2208 7.89679 18.1422 7.95491
28 2 2.2208 2.26712 -4.35307 2.29647
233 2 2.2208 13.4002 -4.27296 7.95186
334 2 2.2208 7.78152 -4.37537 13.5897
511 2 2.2208 5.07501 15.3329 13.6803
475 2 2.2208 7.93811 12.4875 13.6017
203 2 2.2208 5.17405 -4.28571 10.7914
536 2 2.2208 10.7681 20.9133 13.4791
656 2 2.2208 10.5904 12.7027 -0.493109
374 2 2.2208 13.5372 15.2762 -0.562478
337 2 2.2208 5.09959 1.22211 16.3441
338 1 -1.1104 0.755161 -3.11684 17.7976
339 1 -1.1104 0.847315 2.80109 17.7964
342 1 -1.1104 0.880904 -2.81408 14.895
344 1 -1.1104 0.82923 2.68509 14.9536
350 1 -1.1104 0.806554 -0.109993 17.6221
352 2 2.2208 5.13463 -1.50238 19.2397
353 2 2.2208 5.10673 4.03059 19.2172
354 1 -1.1104 0.808335 -0.128597 14.9248
358 1 -1.1104 3.62519 -2.87009 17.6831
359 1 -1.1104 3.74914 2.5843 17.8706
360 2 2.2208 2.21764 1.29008 19.1844
361 1 -1.1104 3.6059 -2.97354 14.9176
363 1 -1.1104 3.62819 2.53553 15.1877
365 2 2.2208 2.21603 -1.56684 16.2356
366 2 2.2208 2.29616 4.06601 16.4723
367 1 -1.1104 3.57372 -0.276424 17.8042
368 1 -1.1104 3.59154 -0.227087 14.9055
570 2 2.2208 5.08297 -4.44745 21.9484
343 1 -1.1104 0.95451 -2.89865 20.6688
351 1 -1.1104 6.53809 -0.110584 17.7259
348 1 -1.1104 6.55495 2.63852 14.9055
356 1 -1.1104 6.39409 -0.183379 14.9113
346 1 -1.1104 6.40205 -2.97567 15.0229
355 1 -1.1104 0.938894 -0.100736 20.4407
364 1 -1.1104 3.60284 2.63797 20.6177
341 1 -1.1104 6.47874 2.60211 17.7894
340 1 -1.1104 6.52911 -2.9641 17.9063
699 1 -1.1104 9.2386 13.9514 23.2873
357 1 -1.1104 6.4452 -0.156569 20.699
349 1 -1.1104 6.62986 2.6053 20.6627
369 1 -1.1104 3.66669 0.0101131 20.5127
345 1 -1.1104 1.00595 2.63903 20.5971
362 1 -1.1104 3.66823 -2.91084 20.5617
347 1 -1.1104 6.28098 -2.93315 20.5862
380 2 2.2208 10.4759 1.31266 16.2947
381 1 -1.1104 12.0784 -2.86436 17.61
382 1 -1.1104 12.1823 2.70464 17.8365
383 1 -1.1104 12.0648 -2.94843 14.9604
385 1 -1.1104 11.9617 2.74777 15.0514
387 1 -1.1104 11.8784 -0.109396 17.7116
388 2 2.2208 10.5245 -1.52708 19.0888
389 2 2.2208 10.7721 4.10519 19.1254
390 1 -1.1104 12.1186 -0.155317 14.977
392 1 -1.1104 9.19787 -2.90886 17.815
393 1 -1.1104 9.35506 2.73259 17.8213
394 2 2.2208 7.81631 1.32928 19.2422
395 1 -1.1104 9.28599 -3.01951 14.9919
397 1 -1.1104 9.3055 2.67856 14.8564
399 2 2.2208 7.84597 -1.51214 16.4259
401 1 -1.1104 9.09552 -0.0715764 17.6717
402 1 -1.1104 9.2334 -0.280788 14.7659
400 2 2.2208 7.879 3.99119 16.332
710 2 2.2208 13.3848 1.24595 19.202
9853 2 2.2208 13.4087 -1.46387 16.2341
384 1 -1.1104 11.8986 -2.98386 20.4972
386 1 -1.1104 12.1744 2.71816 20.5248
398 1 -1.1104 9.30614 2.81785 20.4719
396 1 -1.1104 8.90298 -2.80122 20.6183
403 1 -1.1104 9.18205 -0.169667 20.5883
391 1 -1.1104 12.0693 -0.217876 20.4149
709 2 2.2208 13.4373 4.15858 16.3378
413 2 2.2208 5.00833 6.88643 16.3694
414 2 2.2208 5.15875 12.4928 16.3663
415 1 -1.1104 0.91782 8.24676 17.7202
417 1 -1.1104 0.870448 8.28933 14.9448
421 1 -1.1104 0.850502 5.52599 17.8492
422 1 -1.1104 0.948133 11.0901 17.7618
425 2 2.2208 5.188 9.63086 19.0724
426 1 -1.1104 0.981951 5.41353 14.9299
428 1 -1.1104 0.68895 11.0893 15.0661
434 1 -1.1104 3.67047 8.23841 17.7498
435 2 2.2208 2.34637 6.84968 19.1951
436 2 2.2208 2.40512 12.4853 19.1574
437 1 -1.1104 3.63666 8.2063 15.0453
439 2 2.2208 2.17896 9.64539 16.3602
440 1 -1.1104 3.67994 5.43325 17.9012
441 1 -1.1104 3.68817 11.1905 17.7149
442 1 -1.1104 3.68729 5.35191 14.9177
444 1 -1.1104 3.54205 11.1076 14.9192
430 1 -1.1104 6.25024 5.58375 14.7407
445 1 -1.1104 3.79853 11.0487 20.5567
423 1 -1.1104 6.57442 5.54489 17.6108
418 1 -1.1104 0.950412 8.23742 20.5642
416 1 -1.1104 6.62218 8.2207 17.7546
419 1 -1.1104 6.44165 8.22847 14.9435
424 1 -1.1104 6.49952 11.0273 17.8155
432 1 -1.1104 6.43943 11.0907 15.0842
433 1 -1.1104 6.56229 11.0385 20.5798
443 1 -1.1104 3.77495 5.34818 20.5404
431 1 -1.1104 6.4961 5.5246 20.4509
438 1 -1.1104 3.70298 8.19546 20.6175
429 1 -1.1104 0.996101 10.9759 20.5021
427 1 -1.1104 0.95076 5.49275 20.5891
420 1 -1.1104 6.6028 8.24279 20.5673
449 2 2.2208 10.5492 6.80618 16.3005
450 2 2.2208 10.7155 12.5985 16.5798
451 1 -1.1104 12.0295 8.25643 17.9101
452 1 -1.1104 12.035 8.33804 15.0394
454 1 -1.1104 12.1295 5.50354 17.6342
455 1 -1.1104 12.1189 11.133 17.9283
456 2 2.2208 10.7875 9.67174 19.1295
457 1 -1.1104 12.037 5.48585 14.9865
459 1 -1.1104 12.0657 11.1662 15.1034
461 1 -1.1104 9.2206 8.29975 17.75
462 2 2.2208 7.92229 6.85138 19.0399
463 2 2.2208 8.01778 12.384 19.199
464 1 -1.1104 9.36039 8.25556 14.8555
466 2 2.2208 7.82664 9.60564 16.3559
467 1 -1.1104 9.32132 5.51461 17.7637
468 1 -1.1104 9.38626 11.0949 17.8125
469 1 -1.1104 8.9788 5.43168 15.0307
471 1 -1.1104 9.27539 11.1202 15.0982
715 2 2.2208 13.5777 12.5198 19.2628
713 2 2.2208 13.5206 9.70341 16.5089
714 2 2.2208 13.6071 6.80979 19.1211
460 1 -1.1104 12.2265 11.1723 20.65
458 1 -1.1104 12.139 5.44624 20.3671
472 1 -1.1104 9.47016 11.0383 20.456
465 1 -1.1104 9.40131 8.3082 20.5164
706 1 -1.1104 12.0676 19.5196 23.4646
476 2 2.2208 5.15069 18.0397 16.3195
477 1 -1.1104 0.856608 13.7353 17.8162
478 1 -1.1104 0.996974 19.5413 17.5998
481 1 -1.1104 1.06041 13.9222 14.8608
483 1 -1.1104 0.940793 19.6302 14.8221
489 1 -1.1104 0.775536 16.6006 17.7118
491 2 2.2208 5.2061 15.1947 19.1367
492 2 2.2208 5.06326 20.9286 19.0787
493 1 -1.1104 0.788948 16.7871 14.965
497 1 -1.1104 3.87903 13.8828 17.7084
498 1 -1.1104 3.8746 19.3787 17.7329
499 2 2.2208 2.24003 18.017 19.0023
500 1 -1.1104 3.94345 13.9336 14.9507
502 1 -1.1104 3.75603 19.5939 14.9385
504 2 2.2208 2.21511 15.3411 16.2062
505 2 2.2208 2.44276 20.8649 16.2883
506 1 -1.1104 3.67626 16.6167 17.5674
507 1 -1.1104 3.713 16.7753 14.8719
479 1 -1.1104 6.56778 13.7321 17.7794
487 1 -1.1104 6.69268 19.6255 14.8732
496 1 -1.1104 6.55083 16.6758 20.6326
484 1 -1.1104 1.01286 19.5938 20.4732
503 1 -1.1104 3.73898 19.4471 20.4579
480 1 -1.1104 6.54705 19.3984 17.6395
490 1 -1.1104 6.4928 16.6934 17.9339
485 1 -1.1104 6.59918 13.8114 14.9672
501 1 -1.1104 3.69681 13.9162 20.4663
482 1 -1.1104 0.95406 13.9365 20.4771
508 1 -1.1104 3.60326 16.6287 20.4715
494 1 -1.1104 0.900159 16.7083 20.461
488 1 -1.1104 6.62053 19.5462 20.4226
486 1 -1.1104 6.62272 13.7725 20.4662
694 1 -1.1104 9.5016 19.6842 26.1798
518 1 -1.1104 12.2915 19.601 20.6824
718 2 2.2208 13.6118 15.3503 16.4295
495 1 -1.1104 6.6475 16.5857 15.079
512 2 2.2208 10.7496 18.2876 16.3028
513 1 -1.1104 12.2125 13.8561 17.8748
514 1 -1.1104 12.2866 19.4393 17.948
515 1 -1.1104 12.2339 13.99 15.198
517 1 -1.1104 12.0929 19.6518 14.8825
519 1 -1.1104 12.3513 16.6016 17.8806
520 2 2.2208 10.9789 15.3587 19.1964
521 2 2.2208 10.7956 20.962 19.2381
522 1 -1.1104 12.1972 16.8032 15.1039
524 1 -1.1104 9.32524 14.0235 17.8499
525 1 -1.1104 9.34832 19.7381 17.8403
526 2 2.2208 7.8828 18.0798 19.1586
527 1 -1.1104 9.34347 13.8783 14.9345
529 1 -1.1104 9.4122 19.5806 14.9981
531 2 2.2208 8.11056 15.2891 16.396
532 2 2.2208 7.91257 20.9618 16.3675
533 1 -1.1104 9.342 16.7271 17.8224
534 1 -1.1104 9.31444 16.6943 15.1143
720 2 2.2208 13.5786 20.8922 16.381
719 2 2.2208 13.7133 18.1984 19.3009
523 1 -1.1104 12.0343 16.9041 20.694
516 1 -1.1104 12.2419 14.0482 20.762
535 1 -1.1104 9.25531 16.7663 20.6474
566 2 2.2208 2.26129 4.05382 27.6008
564 2 2.2208 5.15618 1.36681 27.5661
571 2 2.2208 2.41272 -4.33105 24.8027
540 2 2.2208 4.93242 1.34125 22.0391
541 1 -1.1104 0.814255 -3.0014 23.3762
542 1 -1.1104 0.78207 2.60052 23.3239
545 1 -1.1104 0.965433 -2.80008 26.2172
546 1 -1.1104 0.900521 2.48262 26.0927
549 1 -1.1104 0.924132 -0.312281 23.3039
551 2 2.2208 5.2179 -1.56908 24.8807
552 2 2.2208 5.09909 4.11768 24.7339
553 1 -1.1104 0.841862 -0.152396 26.2502
555 1 -1.1104 3.7488 -2.98891 23.4057
556 1 -1.1104 3.57595 2.64848 23.3605
557 2 2.2208 2.29665 1.25274 24.7599
558 1 -1.1104 3.8709 -2.96288 26.2784
559 1 -1.1104 3.66873 2.75828 26.1119
560 2 2.2208 2.25112 -1.64684 22.0206
562 1 -1.1104 3.69053 -0.109659 23.4806
563 1 -1.1104 3.72111 -0.0739162 26.1451
561 2 2.2208 2.30105 4.06001 21.9505
548 1 -1.1104 6.62045 2.65819 26.1655
547 1 -1.1104 6.61875 -2.76789 26.2823
554 1 -1.1104 6.52697 -0.0227493 26.1946
550 1 -1.1104 6.51755 0.0320536 23.3501
544 1 -1.1104 6.43541 2.70914 23.5127
543 1 -1.1104 6.50071 -2.88727 23.3298
700 1 -1.1104 12.097 16.9259 26.203
408 2 2.2208 7.90802 15.2381 27.5332
595 2 2.2208 8.04186 -1.36701 27.5996
596 2 2.2208 7.94116 4.20002 27.5047
603 2 2.2208 13.4576 1.38347 24.6555
377 2 2.2208 13.517 4.08909 21.8774
602 2 2.2208 13.565 -1.47311 21.996
576 2 2.2208 10.5856 1.34116 21.8386
577 1 -1.1104 12.1023 -2.81194 23.373
578 1 -1.1104 12.0822 2.75905 23.2845
579 1 -1.1104 12.1479 -2.88764 26.1977
580 1 -1.1104 12.1005 2.59998 26.1223
581 1 -1.1104 11.9785 -0.120781 23.3434
582 2 2.2208 10.7245 -1.4377 24.6896
583 2 2.2208 10.6151 4.04018 24.6629
584 1 -1.1104 12.0905 -0.10756 26.1792
585 1 -1.1104 9.26614 -2.85552 23.4038
586 1 -1.1104 9.27351 2.61834 23.3825
587 2 2.2208 8.06562 1.25968 24.8081
588 1 -1.1104 9.40647 -2.85692 26.2283
589 1 -1.1104 9.36995 2.77547 26.1982
590 2 2.2208 7.79029 -1.34296 22.0588
591 2 2.2208 7.90745 4.21666 21.9937
592 1 -1.1104 9.28729 -0.0599542 23.2911
593 1 -1.1104 9.31583 -0.0824779 26.1626
707 1 -1.1104 12.0403 13.9945 23.527
594 2 2.2208 10.7476 1.40005 27.5899
604 2 2.2208 13.5701 4.09783 27.484
601 2 2.2208 13.551 -1.51602 27.4319
629 2 2.2208 5.12637 7.08524 27.5136
605 2 2.2208 5.22991 6.9234 21.9348
606 2 2.2208 5.0813 12.5615 21.9669
607 1 -1.1104 0.790906 8.32243 23.3672
609 1 -1.1104 0.951295 8.37227 26.2308
611 1 -1.1104 1.00576 5.39187 23.3054
612 1 -1.1104 0.960221 11.1382 23.2664
615 2 2.2208 5.09715 9.74299 24.6331
616 1 -1.1104 0.742376 5.5319 26.0938
617 1 -1.1104 0.88282 11.1902 26.1938
620 1 -1.1104 3.63298 8.26566 23.4825
621 2 2.2208 2.27995 6.91628 24.7358
622 2 2.2208 2.2849 12.4721 24.8006
623 1 -1.1104 3.79124 8.42505 26.044
624 2 2.2208 2.35756 9.65574 21.9526
625 1 -1.1104 3.79187 5.3573 23.2741
626 1 -1.1104 3.73582 11.0878 23.3194
627 1 -1.1104 3.61188 5.6274 26.1125
628 1 -1.1104 3.73917 11.2003 26.1527
610 1 -1.1104 6.49741 8.32984 26.1518
619 1 -1.1104 6.39876 11.1249 26.0942
608 1 -1.1104 6.45856 8.42336 23.2384
618 1 -1.1104 6.44913 5.52393 25.9463
613 1 -1.1104 6.64844 5.5065 23.3082
630 2 2.2208 2.39652 9.84434 27.4891
631 2 2.2208 5.13708 12.5748 27.615
470 1 -1.1104 9.45944 5.50801 20.5977
453 1 -1.1104 12.1924 8.36292 20.5483
659 2 2.2208 13.4388 6.8904 24.6439
657 2 2.2208 13.5499 12.5221 24.818
614 1 -1.1104 6.62311 11.2013 23.2543
636 1 -1.1104 9.13056 11.1817 26.2911
637 1 -1.1104 9.40491 5.50586 26.0394
638 1 -1.1104 9.28132 11.1908 23.4429
639 1 -1.1104 9.29969 5.60524 23.2757
640 2 2.2208 7.89884 9.67624 21.9424
641 1 -1.1104 9.2261 8.25163 26.1182
642 2 2.2208 7.90432 12.4823 24.6619
643 2 2.2208 7.87855 7.02085 24.8178
644 2 2.2208 10.7437 6.93253 21.8576
645 2 2.2208 10.7638 12.5481 21.9495
646 1 -1.1104 12.0078 8.39133 23.2318
647 1 -1.1104 12.0381 8.23453 26.0333
648 1 -1.1104 12.1497 5.42859 23.1407
649 1 -1.1104 12.1309 11.1709 23.3454
650 2 2.2208 10.5774 9.60255 24.8332
651 1 -1.1104 12.0517 5.3902 25.9796
652 1 -1.1104 11.8108 11.0779 26.2468
653 1 -1.1104 9.19352 8.35391 23.3586
376 2 2.2208 13.4784 9.81479 22.0093
658 2 2.2208 13.584 9.89958 27.6693
654 2 2.2208 10.8695 6.89609 27.4133
655 2 2.2208 7.86403 9.85948 27.5336
406 2 2.2208 7.79083 -4.32431 19.2077
697 2 2.2208 8.01058 18.0936 24.6851
685 2 2.2208 2.35752 15.3499 27.4727
678 1 -1.1104 6.71991 16.7147 23.3362
661 1 -1.1104 6.4061 13.7942 26.1846
682 2 2.2208 2.28958 15.2736 21.8767
681 2 2.2208 2.42827 20.9569 21.867
680 1 -1.1104 3.70889 16.7289 23.2691
679 1 -1.1104 1.02085 16.6844 23.3479
677 1 -1.1104 3.62434 13.9118 26.1205
676 1 -1.1104 3.82518 16.7395 26.1295
675 2 2.2208 2.29187 18.1177 24.6653
668 2 2.2208 5.05863 20.8776 24.6532
674 1 -1.1104 3.82869 19.3773 26.0015
673 2 2.2208 5.13986 18.1772 21.8524
672 1 -1.1104 0.919089 13.778 23.3979
666 1 -1.1104 1.0076 13.8651 26.1871
665 1 -1.1104 1.03565 16.7883 26.1732
671 1 -1.1104 0.930718 19.6284 23.258
664 1 -1.1104 1.03797 19.4172 26.0094
669 2 2.2208 5.12877 15.384 24.6828
660 1 -1.1104 3.76193 19.4927 23.2695
662 1 -1.1104 3.70874 13.9317 23.3946
667 1 -1.1104 6.57719 19.3827 23.2061
670 1 -1.1104 6.38665 14.0799 23.1778
696 1 -1.1104 6.62304 19.5314 26.2293
663 1 -1.1104 6.51618 16.6661 26.064
684 2 2.2208 5.20317 18.0751 27.5523
405 2 2.2208 10.6262 -4.37041 16.4442
708 2 2.2208 10.7626 18.164 22.0506
574 2 2.2208 10.7334 18.1755 27.6364
698 1 -1.1104 9.358 19.5767 23.3018
702 2 2.2208 10.6144 15.3167 24.8043
375 2 2.2208 13.568 20.8496 27.6723
692 2 2.2208 8.08278 20.9367 21.7772
528 1 -1.1104 9.45674 13.8586 20.4624
530 1 -1.1104 9.52902 19.3799 20.4346
693 2 2.2208 7.97499 15.2522 21.8173
704 1 -1.1104 12.2103 19.894 26.2279
703 1 -1.1104 12.2228 16.7814 23.5667
701 2 2.2208 10.7097 21.1397 24.8197
370 2 2.2208 13.5042 15.3969 22.1509
575 2 2.2208 7.87872 20.8045 27.4868
691 1 -1.1104 9.48748 16.7072 23.467
690 1 -1.1104 9.2873 16.6796 26.2214
404 2 2.2208 13.6222 20.9893 22.1323
705 1 -1.1104 12.2283 13.8743 26.1111
695 1 -1.1104 9.27902 13.9375 26.1254
565 2 2.2208 2.33694 -1.46138 27.6478
683 2 2.2208 2.2152 20.9037 27.5693
723 2 2.2208 5.16596 23.771 5.02091
724 2 2.2208 5.1202 29.3254 5.09498
725 1 -1.1104 0.966897 25.1785 0.976324
726 1 -1.1104 0.944479 25.0776 3.69033
727 1 -1.1104 1.01127 22.4294 0.844276
728 1 -1.1104 0.978504 27.9364 1.00821
729 2 2.2208 5.20729 26.4879 2.32698
730 1 -1.1104 0.871725 22.307 3.7008
731 1 -1.1104 1.01613 27.899 4.03629
732 1 -1.1104 3.75251 25.081 0.82425
733 2 2.2208 2.35108 23.7458 2.26483
734 2 2.2208 2.42915 29.2851 2.39915
735 1 -1.1104 3.76243 25.0831 3.60376
736 2 2.2208 2.35947 26.4433 5.12676
737 1 -1.1104 3.71149 22.2368 0.994492
738 1 -1.1104 3.73645 27.8602 0.969325
739 1 -1.1104 3.65056 22.2152 3.65867
740 1 -1.1104 3.83021 27.9076 3.87253
744 1 -1.1104 6.55884 25.0962 0.941849
748 1 -1.1104 6.64259 22.3504 3.7527
866 1 -1.1104 0.870373 22.3598 6.51725
749 1 -1.1104 6.56783 27.9617 3.80732
745 1 -1.1104 6.54794 25.0774 3.64585
746 1 -1.1104 6.70589 22.3105 0.95424
747 1 -1.1104 6.58006 28.0512 1.13565
864 1 -1.1104 0.979221 25.0963 6.43553
872 1 -1.1104 3.72723 27.8165 6.62685
871 1 -1.1104 3.52771 22.1542 6.48657
869 1 -1.1104 6.59977 27.9034 6.46148
1489 1 -1.1104 12.2363 47.6967 3.90226
1180 2 2.2208 10.7025 32.1247 13.5469
750 2 2.2208 10.7348 23.7758 5.20045
751 2 2.2208 10.7239 29.3536 5.179
752 1 -1.1104 12.2372 25.1113 1.02449
753 1 -1.1104 12.2582 25.1496 3.74113
754 1 -1.1104 12.2427 22.2228 0.942923
755 1 -1.1104 12.0732 27.9848 0.842986
756 2 2.2208 10.7872 26.3799 2.42851
757 1 -1.1104 12.3155 22.2431 3.76788
758 1 -1.1104 12.1097 27.8808 3.87901
759 1 -1.1104 9.46177 25.1521 1.09531
760 2 2.2208 7.93865 23.7087 2.28008
761 2 2.2208 7.97931 29.3472 2.45959
762 1 -1.1104 9.36377 25.2656 3.92284
763 2 2.2208 7.862 26.5805 5.08556
764 1 -1.1104 9.42933 22.3746 0.824015
765 1 -1.1104 9.21219 27.8701 0.937345
766 1 -1.1104 9.6089 22.4422 3.63045
767 1 -1.1104 9.48141 28.0215 3.62697
902 1 -1.1104 9.4212 27.9741 6.4332
770 2 2.2208 13.5396 26.5889 5.15296
768 2 2.2208 13.5965 23.61 2.40743
901 1 -1.1104 9.25393 22.2652 6.41436
897 1 -1.1104 12.1491 25.1129 6.56946
898 1 -1.1104 12.0451 22.3547 6.48357
899 1 -1.1104 12.0266 28.0051 6.59287
771 2 2.2208 5.00638 34.8563 5.22367
772 1 -1.1104 0.950039 30.7763 0.918678
773 1 -1.1104 0.838113 36.2657 0.933138
775 1 -1.1104 0.877485 30.6618 3.61351
776 1 -1.1104 0.829881 36.4922 3.72863
778 1 -1.1104 0.995412 33.5288 1.08911
779 2 2.2208 5.11144 32.0892 2.46981
780 2 2.2208 5.03815 37.6573 2.31615
781 1 -1.1104 1.01216 33.5516 3.86304
783 1 -1.1104 3.82828 30.6467 0.979641
784 1 -1.1104 3.72153 36.3144 1.06067
785 2 2.2208 2.25669 34.9104 2.48159
786 1 -1.1104 3.64163 30.6954 3.84723
787 1 -1.1104 3.74834 36.2267 3.81795
788 2 2.2208 2.29232 32.1762 5.19478
789 2 2.2208 2.32737 37.8253 5.24791
790 1 -1.1104 3.79784 33.3459 0.944878
791 1 -1.1104 3.76227 33.4682 3.96336
797 1 -1.1104 6.50257 33.449 0.961521
774 1 -1.1104 6.4924 36.1789 1.05887
796 1 -1.1104 6.43233 30.7042 3.80674
782 1 -1.1104 6.51063 33.6444 3.8405
777 1 -1.1104 6.5497 36.1928 3.77965
795 1 -1.1104 6.61049 30.6565 0.976388
924 1 -1.1104 6.54474 36.2383 6.6126
1182 2 2.2208 7.88194 35.0181 13.6426
925 1 -1.1104 0.939689 33.6894 6.66948
922 1 -1.1104 0.903963 36.4998 6.57993
928 1 -1.1104 3.66826 36.3547 6.58685
929 1 -1.1104 3.66843 33.5226 6.58858
926 1 -1.1104 6.36132 33.4399 6.63929
1041 2 2.2208 13.6306 32.2068 5.16474
798 2 2.2208 10.6905 35.0457 5.1806
799 1 -1.1104 12.1614 30.9305 0.99802
800 1 -1.1104 12.1686 36.4513 1.13563
801 1 -1.1104 12.0897 30.8402 3.83553
802 1 -1.1104 12.0928 36.4159 3.84939
803 1 -1.1104 12.1078 33.6332 1.08377
804 2 2.2208 10.6666 32.2007 2.35221
805 2 2.2208 10.65 37.7447 2.44727
806 1 -1.1104 12.1277 33.5379 3.80614
807 1 -1.1104 9.34393 30.7169 1.02447
808 1 -1.1104 9.29837 36.374 1.02047
809 2 2.2208 7.88894 34.8003 2.40377
810 1 -1.1104 9.27121 30.879 3.80782
811 1 -1.1104 9.34804 36.4189 3.86743
812 2 2.2208 7.90918 32.1938 5.2396
813 2 2.2208 7.88301 37.738 5.28221