ITEM: TIMESTEP
80000
ITEM: NUMBER OF ATOMS
17910
ITEM: BOX BOUNDS pp pp pp
-3.6157929409338230e-01 2.7701579294092724e+01
-4.2864316553658295e+00 3.3236643165537311e+02
-3.5352500599247688e-01 2.7693525005992761e+01
ITEM: ATOMS id type q x y z
1 2 2.2208 5.26423 1.33779 5.368
2 1 -1.1104 1.11302 -2.82861 0.998581
3 1 -1.1104 1.16746 2.63577 1.25865
6 1 -1.1104 1.14629 -2.86656 4.0505
7 1 -1.1104 1.10848 2.71608 3.94122
10 1 -1.1104 1.1814 -0.180397 1.03831
12 2 2.2208 5.38413 -1.51708 2.53986
13 2 2.2208 5.54376 4.15669 2.51812
14 1 -1.1104 1.23267 -0.15014 3.86767
16 1 -1.1104 3.9971 -3.03331 1.19222
17 1 -1.1104 4.00515 2.67052 1.22745
18 2 2.2208 2.59199 1.36238 2.49841
19 1 -1.1104 3.92447 -2.82379 3.8814
20 1 -1.1104 3.92688 2.71998 3.91376
21 2 2.2208 2.60053 -1.45391 5.3315
23 1 -1.1104 3.92323 -0.214123 1.02167
24 1 -1.1104 3.88217 -0.0217434 4.03685
22 2 2.2208 2.57339 4.15742 5.2699
9 1 -1.1104 6.78158 2.83171 3.91932
4 1 -1.1104 6.83675 -2.84318 1.19794
11 1 -1.1104 6.72871 -0.0198568 1.2296
167 1 -1.1104 1.15601 2.77982 6.73081
9709 2 2.2208 -0.202164 7.06673 10.9506
567 2 2.2208 -0.254902 -4.29983 -0.255619
9777 2 2.2208 -0.214633 -4.22604 10.895
9772 2 2.2208 -0.298336 1.32465 5.25985
9776 2 2.2208 -0.213102 1.28297 10.8748
231 2 2.2208 8.10557 -4.23046 8.16437
27 2 2.2208 -0.265612 4.1965 2.54727
15 1 -1.1104 6.64785 -0.0456638 4.04111
5 1 -1.1104 6.87045 2.75479 1.12783
8 1 -1.1104 6.71542 -2.97665 4.01019
31 2 2.2208 10.8751 1.2913 5.30147
32 1 -1.1104 12.1467 -2.94302 1.14957
33 1 -1.1104 12.3778 2.6271 1.06961
34 1 -1.1104 12.3508 -2.93685 3.80839
35 1 -1.1104 12.3603 2.56944 3.79805
36 1 -1.1104 12.3004 -0.118658 1.20167
37 2 2.2208 10.9258 -1.50779 2.60183
38 2 2.2208 10.8658 4.07933 2.43187
39 1 -1.1104 12.3816 -0.153461 3.8761
40 1 -1.1104 9.46764 -2.86012 1.18902
41 1 -1.1104 9.55103 2.5783 1.16834
42 2 2.2208 8.15367 1.2398 2.5783
43 1 -1.1104 9.59938 -2.89407 4.01214
44 1 -1.1104 9.49441 2.70506 3.96546
45 2 2.2208 8.06486 -1.49027 5.35825
46 2 2.2208 8.15143 4.06939 5.25509
47 1 -1.1104 9.57902 -0.161615 1.08514
48 1 -1.1104 9.45548 -0.133605 3.88244
324 2 2.2208 10.8222 21.0038 8.02772
317 2 2.2208 8.21467 15.53 10.7935
207 1 -1.1104 12.2793 0.0230444 6.67404
9479 2 2.2208 13.8226 4.04009 5.20331
204 1 -1.1104 12.4239 14.0385 9.55412
52 2 2.2208 10.8721 -4.3315 5.28541
9774 2 2.2208 -0.165478 6.95184 5.50768
208 1 -1.1104 9.41721 -2.88178 6.78629
598 2 2.2208 10.9203 -4.36966 -0.218497
596 2 2.2208 8.18149 4.1791 -0.236132
594 2 2.2208 10.9908 1.28892 -0.240097
54 2 2.2208 5.42626 6.98476 5.31726
55 2 2.2208 5.40398 12.4688 5.32965
56 1 -1.1104 1.13015 8.41172 1.1762
58 1 -1.1104 1.22489 8.26211 4.02748
60 1 -1.1104 1.15482 5.54938 1.21543
61 1 -1.1104 1.04613 11.2892 1.32137
66 2 2.2208 5.36294 9.71731 2.52838
67 1 -1.1104 1.20613 5.44832 4.00243
68 1 -1.1104 1.15306 10.9911 4.01758
71 1 -1.1104 4.05182 8.29246 1.04165
72 2 2.2208 2.58705 6.91634 2.59425
73 2 2.2208 2.52558 12.5962 2.58115
74 1 -1.1104 4.08747 8.3147 3.80109
75 2 2.2208 2.65821 9.65253 5.25784
76 1 -1.1104 3.91321 5.50984 1.08203
77 1 -1.1104 3.95858 11.11 1.22948
79 1 -1.1104 3.98933 5.61693 3.90281
80 1 -1.1104 4.00602 11.1519 3.87152
59 1 -1.1104 6.89102 8.43465 3.98525
78 1 -1.1104 3.96759 11.1481 6.80112
70 1 -1.1104 6.76637 11.1703 3.95611
64 1 -1.1104 6.80762 11.1082 1.04515
69 1 -1.1104 6.81869 5.68724 3.98018
57 1 -1.1104 6.86285 8.37413 1.1355
63 1 -1.1104 6.96098 5.6194 1.20072
65 1 -1.1104 6.84634 11.2551 6.78921
319 1 -1.1104 9.60386 13.9503 9.42263
630 2 2.2208 2.42058 9.86087 -0.221633
631 2 2.2208 5.36955 12.6389 -0.36679
326 2 2.2208 13.7986 9.79375 5.21457
105 2 2.2208 13.7181 6.96388 2.42799
84 2 2.2208 11.054 6.89779 5.33248
85 2 2.2208 10.9148 12.6772 5.23151
86 1 -1.1104 12.4319 8.35581 1.17347
87 1 -1.1104 12.4929 8.29688 4.06311
88 1 -1.1104 12.3534 5.50012 0.991855
89 1 -1.1104 12.387 11.0925 1.17485
91 2 2.2208 10.9407 9.78249 2.51546
92 1 -1.1104 12.3366 5.55452 3.91279
93 1 -1.1104 12.2388 11.1878 3.96231
94 1 -1.1104 9.61227 8.38312 1.07957
95 2 2.2208 8.26867 7.05586 2.56031
96 2 2.2208 8.1879 12.6065 2.52555
97 1 -1.1104 9.70852 8.41135 3.88012
98 2 2.2208 8.27816 9.79959 5.3491
99 1 -1.1104 9.49798 5.5409 1.09533
100 1 -1.1104 9.68677 11.2101 1.1683
102 1 -1.1104 9.60019 5.55029 3.92088
103 1 -1.1104 9.43234 11.1365 3.94011
323 1 -1.1104 12.2942 16.7997 9.61044
655 2 2.2208 8.31028 9.8295 -0.205564
658 2 2.2208 13.706 9.72132 -0.377421
81 2 2.2208 10.9448 18.2728 10.896
106 2 2.2208 5.22657 18.145 5.30465
107 1 -1.1104 1.27453 13.9284 1.11231
109 1 -1.1104 1.2052 19.7639 1.02301
113 1 -1.1104 1.16954 14.0567 4.03996
114 1 -1.1104 1.20859 19.484 3.85532
116 1 -1.1104 1.15898 16.9709 1.08422
119 2 2.2208 5.31414 15.3607 2.51779
120 2 2.2208 5.28976 21.1222 2.43084
121 1 -1.1104 1.22507 16.765 3.80961
123 1 -1.1104 4.11065 13.9979 1.26234
125 1 -1.1104 4.00994 19.6555 1.10162
127 2 2.2208 2.55342 18.1709 2.47387
128 1 -1.1104 3.86109 13.8908 4.01581
129 1 -1.1104 3.95509 19.5868 3.94115
130 2 2.2208 2.48439 15.3967 5.47695
131 2 2.2208 2.52724 20.9731 5.2236
132 1 -1.1104 4.04476 16.7066 0.947974
134 1 -1.1104 3.91348 16.689 3.64777
139 1 -1.1104 6.67033 19.7196 3.84277
138 1 -1.1104 6.74625 19.5794 0.974569
122 1 -1.1104 6.65471 16.846 3.88899
115 1 -1.1104 6.76373 14.0565 3.82487
302 1 -1.1104 1.11461 19.7081 6.61955
140 1 -1.1104 6.74497 16.6773 1.01597
112 1 -1.1104 6.68794 19.5785 6.73292
684 2 2.2208 5.24577 18.226 -0.340189
322 1 -1.1104 9.49745 14.1411 12.1213
110 1 -1.1104 6.82177 13.9909 1.09625
141 2 2.2208 10.9819 18.2884 5.15893
142 1 -1.1104 12.299 13.8737 1.02741
144 1 -1.1104 12.4357 19.4701 1.00271
146 1 -1.1104 12.4043 13.9728 3.87345
147 1 -1.1104 12.5181 19.5963 3.80111
148 1 -1.1104 12.2548 16.5274 0.999987
150 2 2.2208 10.9033 15.3311 2.60948
151 2 2.2208 10.937 21.0001 2.42053
152 1 -1.1104 12.2581 16.7907 3.87972
153 1 -1.1104 9.58374 13.9731 1.07307
155 1 -1.1104 9.57084 19.6069 1.03262
157 2 2.2208 7.98748 18.158 2.44253
158 1 -1.1104 9.61405 13.9898 3.99673
159 1 -1.1104 9.58868 19.6176 3.7935
160 2 2.2208 8.12609 15.4491 5.33347
161 2 2.2208 8.28467 21.0116 5.29506
162 1 -1.1104 9.64744 16.7686 1.09521
164 1 -1.1104 9.60459 16.8382 3.87491
327 2 2.2208 13.8532 20.9529 5.26048
314 1 -1.1104 9.64042 16.8355 9.49608
328 2 2.2208 13.778 15.3905 5.28837
408 2 2.2208 8.10066 15.3462 -0.363953
574 2 2.2208 11.0285 18.0797 -0.338478
374 2 2.2208 13.7462 15.2791 -0.298896
166 1 -1.1104 1.25175 -2.88585 6.70395
174 1 -1.1104 3.95282 -0.155173 6.73204
170 1 -1.1104 1.20873 0.0361501 6.70122
9775 2 2.2208 -0.191714 -1.53313 8.18701
203 2 2.2208 5.39688 -4.36825 11.0283
172 1 -1.1104 3.99676 -2.94946 6.65365
173 1 -1.1104 3.94376 2.65606 6.81992
175 2 2.2208 5.33247 1.3182 11.0124
176 1 -1.1104 1.17231 -2.88503 12.2273
177 1 -1.1104 1.2449 2.68316 12.4535
180 1 -1.1104 1.20107 -2.97134 9.44543
181 1 -1.1104 1.32197 2.77134 9.51879
184 1 -1.1104 1.06974 -0.0830539 12.3282
186 2 2.2208 5.34688 -1.51609 8.05545
187 2 2.2208 5.4434 4.12736 8.10882
188 1 -1.1104 1.18684 -0.0370593 9.41295
190 1 -1.1104 4.00444 -2.87624 12.4543
191 1 -1.1104 3.9974 2.58186 12.4269
192 2 2.2208 2.59929 1.32545 8.18231
193 1 -1.1104 3.99561 -3.0231 9.51037
194 1 -1.1104 3.95035 2.72283 9.64925
195 2 2.2208 2.58122 -1.55368 10.759
196 2 2.2208 2.55525 4.06961 10.9233
197 1 -1.1104 3.80211 -0.275303 12.3866
198 1 -1.1104 4.02844 -0.153282 9.61825
182 1 -1.1104 6.86009 -2.70859 9.44866
179 1 -1.1104 6.82475 2.77899 12.2595
185 1 -1.1104 6.82888 -0.200448 12.3004
178 1 -1.1104 6.75349 -2.98863 12.3232
189 1 -1.1104 6.75501 -0.0663569 9.59543
145 1 -1.1104 12.3763 19.6835 6.66803
169 1 -1.1104 6.74996 2.73485 6.64771
168 1 -1.1104 6.7706 -2.9853 6.7214
171 1 -1.1104 6.76165 -0.121243 6.71478
209 1 -1.1104 9.49242 2.7978 6.77392
232 2 2.2208 10.9126 -4.32857 10.9458
183 1 -1.1104 6.53824 2.62315 9.53854
210 1 -1.1104 9.48695 -0.0163321 6.75049
205 1 -1.1104 12.1794 -2.86634 6.5515
206 1 -1.1104 12.3715 2.76708 6.69219
9614 2 2.2208 13.7184 4.16956 10.9025
9779 2 2.2208 13.7741 -1.45822 10.8488
320 2 2.2208 8.2731 18.2241 8.04753
211 2 2.2208 10.8974 1.36517 10.8429
212 1 -1.1104 12.32 -2.78276 12.2906
213 1 -1.1104 12.3062 2.78512 12.2128
214 1 -1.1104 12.4333 -2.91925 9.38373
215 1 -1.1104 12.3841 2.74326 9.59282
216 1 -1.1104 12.3296 0.0179118 12.2522
217 2 2.2208 10.9214 -1.38114 8.05386
218 2 2.2208 10.9405 4.1866 8.17933
219 1 -1.1104 12.3131 -0.0434511 9.36773
220 1 -1.1104 9.55482 -3.05166 12.2878
221 1 -1.1104 9.67584 2.71492 12.3395
222 2 2.2208 8.1005 1.42 8.1553
223 1 -1.1104 9.65479 -2.94299 9.54783
224 1 -1.1104 9.60623 2.80902 9.65296
225 2 2.2208 8.29618 -1.42894 10.9541
227 1 -1.1104 9.57968 -0.105505 12.3229
228 1 -1.1104 9.6567 -0.0694805 9.61414
226 2 2.2208 8.10932 4.13666 10.9556
163 1 -1.1104 9.68897 16.8588 6.59635
238 1 -1.1104 4.02319 8.30388 6.72245
234 1 -1.1104 1.14385 8.39232 6.75626
62 1 -1.1104 1.18311 11.1784 6.72746
235 1 -1.1104 6.83855 8.45043 6.78409
236 1 -1.1104 1.28965 5.60063 6.92542
237 1 -1.1104 6.90103 5.53411 6.70318
239 1 -1.1104 3.98634 5.55496 6.58143
240 2 2.2208 5.40495 7.0056 10.9322
241 2 2.2208 5.43485 12.6825 10.8782
242 1 -1.1104 1.19446 8.26547 12.4749
244 1 -1.1104 1.19938 8.45549 9.52781
246 1 -1.1104 1.22281 5.40697 12.2786
247 1 -1.1104 1.11554 11.2042 12.3552
250 2 2.2208 5.32599 9.84548 8.1638
251 1 -1.1104 1.25052 5.77676 9.63529
252 1 -1.1104 1.08543 11.1424 9.45675
255 1 -1.1104 3.87887 8.49764 12.195
256 2 2.2208 2.64293 7.18654 8.16897
257 2 2.2208 2.50591 12.518 8.09523
258 1 -1.1104 4.08613 8.42749 9.47222
259 2 2.2208 2.57784 9.82374 10.8487
260 1 -1.1104 4.10174 5.55044 12.2557
261 1 -1.1104 3.79349 11.2396 12.3149
262 1 -1.1104 4.03377 5.6087 9.3706
263 1 -1.1104 3.99803 11.1808 9.43049
254 1 -1.1104 6.79657 11.2245 9.58932
243 1 -1.1104 6.62495 8.39959 12.4567
248 1 -1.1104 6.79157 5.49416 12.4756
245 1 -1.1104 6.84149 8.48944 9.60994
249 1 -1.1104 6.696 11.172 12.5026
253 1 -1.1104 6.79757 5.51954 9.56073
143 1 -1.1104 12.3762 14.0031 6.62714
101 1 -1.1104 9.53483 11.24 6.67193
265 1 -1.1104 12.4143 8.31747 6.70892
266 1 -1.1104 12.4092 5.49394 6.78132
267 1 -1.1104 9.52265 8.45404 6.84013
269 1 -1.1104 9.66466 5.58091 6.77843
90 1 -1.1104 12.4239 11.0489 6.68087
330 2 2.2208 13.6827 9.77875 11.0093
329 2 2.2208 13.7637 12.5198 7.99712
9690 2 2.2208 13.7796 6.91681 8.0571
264 1 -1.1104 9.57737 11.0874 9.52674
268 1 -1.1104 9.60006 5.70058 9.53372
270 1 -1.1104 9.66535 11.2513 12.208
271 1 -1.1104 9.66486 5.67739 12.2926
272 2 2.2208 8.2155 9.73125 10.9177
273 1 -1.1104 9.61324 8.42564 9.5327
274 2 2.2208 8.29578 12.5609 8.11849
275 2 2.2208 8.12309 6.96981 8.0567
276 2 2.2208 11.0922 6.88011 10.8593
277 2 2.2208 10.9984 12.6801 10.9557
278 1 -1.1104 12.3637 8.3464 12.329
279 1 -1.1104 12.5227 8.49052 9.46756
280 1 -1.1104 12.3906 5.57386 12.2985
281 1 -1.1104 12.2235 11.126 12.3328
282 2 2.2208 11.0176 9.78191 8.10356
283 1 -1.1104 12.3725 5.46138 9.42931
284 1 -1.1104 12.4154 11.2082 9.45902
285 1 -1.1104 9.38086 8.52787 12.4985
230 1 -1.1104 12.3363 16.7786 12.4322
124 1 -1.1104 3.92992 13.9156 6.73742
117 1 -1.1104 1.17391 16.8848 6.75404
126 1 -1.1104 3.83231 19.5608 6.68453
111 1 -1.1104 6.71331 14.0542 6.60552
108 1 -1.1104 1.15503 14.0014 6.76967
133 1 -1.1104 3.94496 16.8317 6.64146
118 1 -1.1104 6.83697 16.7699 6.8075
289 1 -1.1104 6.74671 16.9923 9.60451
297 1 -1.1104 6.60592 13.9763 12.2956
286 1 -1.1104 3.89152 19.6496 12.4097
287 1 -1.1104 3.87687 14.1164 12.3147
291 1 -1.1104 1.26427 19.6904 9.4495
292 1 -1.1104 1.0787 16.8793 9.52908
293 2 2.2208 5.30946 21.0095 8.06984
294 1 -1.1104 1.06025 13.9531 9.5188
295 2 2.2208 5.32581 15.3882 8.01486
298 1 -1.1104 1.10892 19.848 12.1596
299 1 -1.1104 1.20528 14.1086 12.2921
300 2 2.2208 5.29416 18.2733 10.9204
301 1 -1.1104 3.9404 19.5733 9.46064
303 2 2.2208 2.5263 18.3048 8.13863
304 1 -1.1104 3.87682 16.785 9.59302
305 1 -1.1104 3.85007 14.0488 9.48385
307 1 -1.1104 1.07315 16.8589 12.3721
308 1 -1.1104 4.01707 16.9392 12.4532
309 2 2.2208 2.5853 21.1013 10.9827
310 2 2.2208 2.36517 15.4454 10.8722
306 1 -1.1104 6.83573 17.0609 12.2414
296 1 -1.1104 6.64192 19.7781 12.3457
290 1 -1.1104 6.80397 14.1458 9.39207
9773 2 2.2208 13.9016 15.4221 10.9381
26 2 2.2208 13.7232 18.2809 8.01497
325 2 2.2208 10.9914 15.4701 8.16883
229 1 -1.1104 12.3119 19.5573 9.3875
315 1 -1.1104 9.53142 16.8056 12.316
149 1 -1.1104 12.2892 16.8376 6.68582
154 1 -1.1104 9.69331 14.1963 6.64548
156 1 -1.1104 9.63112 19.6884 6.55905
318 1 -1.1104 9.55883 19.7859 9.49158
201 1 -1.1104 12.4824 19.8045 12.3073
316 2 2.2208 8.1144 21.0658 10.8726
321 1 -1.1104 9.61025 19.5972 12.2516
200 1 -1.1104 12.2465 13.9037 12.4605
288 1 -1.1104 6.80821 19.56 9.49855
375 2 2.2208 13.9856 21.025 -0.325186
475 2 2.2208 8.14993 12.6444 13.6991
509 2 2.2208 2.61129 18.2588 13.8675
539 2 2.2208 13.7429 18.3271 13.6249
566 2 2.2208 2.60885 4.10741 -0.184928
604 2 2.2208 13.8616 4.24454 -0.375273
595 2 2.2208 8.20067 -1.55212 -0.290412
629 2 2.2208 5.5864 6.95162 -0.290747
656 2 2.2208 10.9394 12.608 -0.328983
683 2 2.2208 2.49802 21.0594 -0.312978
337 2 2.2208 5.44937 1.45389 16.4923
338 1 -1.1104 1.07208 -2.88022 17.9507
339 1 -1.1104 1.05258 2.57025 18.0676
342 1 -1.1104 1.14367 -2.98086 15.0659
344 1 -1.1104 1.16837 2.71512 15.3103
350 1 -1.1104 1.15195 -0.0919237 18.046
352 2 2.2208 5.36945 -1.47738 19.3316
353 2 2.2208 5.43802 4.12375 19.4344
354 1 -1.1104 1.12593 -0.192806 15.0988
358 1 -1.1104 4.05309 -2.93093 17.9563
359 1 -1.1104 4.0369 2.69601 18.0128
360 2 2.2208 2.69437 1.29517 19.2824
361 1 -1.1104 3.98796 -3.04525 15.2211
363 1 -1.1104 4.0651 2.71104 15.1438
365 2 2.2208 2.5974 -1.56593 16.6521
366 2 2.2208 2.66034 4.07974 16.6469
367 1 -1.1104 4.05653 -0.144309 17.965
368 1 -1.1104 3.97839 -0.167889 15.3469
356 1 -1.1104 6.62324 -0.208125 15.1421
341 1 -1.1104 6.7821 2.73945 17.8862
351 1 -1.1104 6.75063 -0.0615231 18.0042
348 1 -1.1104 6.7406 2.70332 14.9857
372 2 2.2208 2.61621 -4.30743 19.3812
10137 2 2.2208 -0.295334 1.26139 16.5537
378 2 2.2208 2.50105 1.22631 13.8707
379 2 2.2208 5.3417 4.13458 13.714
340 1 -1.1104 6.78201 -2.76641 17.9869
346 1 -1.1104 6.72488 -2.9165 15.2285
600 2 2.2208 8.19975 -4.41037 24.9425
380 2 2.2208 10.8355 1.31542 16.4208
381 1 -1.1104 12.2672 -2.83137 17.7884
382 1 -1.1104 12.2721 2.7195 17.913
383 1 -1.1104 12.3776 -2.81791 15.0605
385 1 -1.1104 12.3495 2.67068 15.1259
387 1 -1.1104 12.3852 0.0133517 17.7921
388 2 2.2208 10.9174 -1.5005 19.1744
389 2 2.2208 11.0171 4.16768 19.4659
390 1 -1.1104 12.3147 -0.0322399 15.0301
392 1 -1.1104 9.5169 -2.9369 17.8111
393 1 -1.1104 9.47179 2.88759 17.8784
394 2 2.2208 8.14189 1.50081 19.1833
395 1 -1.1104 9.49845 -2.85702 14.9961
397 1 -1.1104 9.41438 2.75715 15.0625
399 2 2.2208 8.16751 -1.52896 16.4963
401 1 -1.1104 9.6503 0.00757735 17.8945
402 1 -1.1104 9.39978 -0.141176 15.1773
400 2 2.2208 8.13618 4.0925 16.4615
575 2 2.2208 8.14912 20.9628 27.6835
709 2 2.2208 13.7605 4.16485 16.4472
705 1 -1.1104 12.2883 13.9274 26.2635
373 2 2.2208 13.6492 18.1131 24.8791
405 2 2.2208 10.9773 -4.35405 16.5658
384 1 -1.1104 12.2554 -3.01754 20.5798
386 1 -1.1104 12.3496 2.71592 20.9131
9815 2 2.2208 13.6988 1.40132 13.5962
336 2 2.2208 10.9804 -1.45902 13.6819
412 2 2.2208 10.99 4.1918 13.7151
410 2 2.2208 8.12633 1.24492 13.6272
413 2 2.2208 5.42949 6.96383 16.5785
414 2 2.2208 5.41742 12.7028 16.5616
415 1 -1.1104 1.16898 8.23539 18.0214
417 1 -1.1104 1.28265 8.26635 15.0384
421 1 -1.1104 1.28062 5.52742 18.1363
422 1 -1.1104 1.21482 11.1631 17.9062
425 2 2.2208 5.29668 9.85023 19.1656
426 1 -1.1104 1.07585 5.3641 15.3314
428 1 -1.1104 1.08466 11.2378 15.1296
434 1 -1.1104 3.92391 8.44881 17.8714
435 2 2.2208 2.63802 6.91441 19.3532
436 2 2.2208 2.50097 12.5746 19.388
437 1 -1.1104 4.12219 8.29226 15.0771
439 2 2.2208 2.46777 9.78687 16.4931
440 1 -1.1104 4.15011 5.58623 17.8546
441 1 -1.1104 4.07214 11.2942 17.9097
442 1 -1.1104 3.85191 5.52784 15.1138
444 1 -1.1104 3.90178 11.2354 15.0049
416 1 -1.1104 6.83713 8.25117 17.9066
419 1 -1.1104 6.79379 8.39502 15.3185
424 1 -1.1104 6.81454 11.192 17.9744
432 1 -1.1104 6.72921 11.2233 15.202
430 1 -1.1104 6.61402 5.64557 15.1823
447 2 2.2208 5.39795 9.74898 13.8397
446 2 2.2208 2.68232 6.92458 13.6804
423 1 -1.1104 6.94305 5.60424 17.8558
420 1 -1.1104 6.83134 8.45002 20.6353
715 2 2.2208 13.7452 12.5608 19.3581
449 2 2.2208 10.9862 6.89249 16.5466
450 2 2.2208 10.8994 12.5477 16.5722
451 1 -1.1104 12.305 8.38042 17.9133
452 1 -1.1104 12.5102 8.53757 15.1026
454 1 -1.1104 12.3054 5.50222 18.0202
455 1 -1.1104 12.2821 11.0825 17.8871
456 2 2.2208 10.8844 9.75538 19.2382
457 1 -1.1104 12.2799 5.66294 15.0595
459 1 -1.1104 12.2856 11.2512 15.1263
461 1 -1.1104 9.39912 8.46685 18.0209
462 2 2.2208 8.16598 6.90017 19.3247
463 2 2.2208 8.17524 12.6745 19.416
464 1 -1.1104 9.54481 8.30138 15.2595
466 2 2.2208 8.12633 9.82535 16.5646
467 1 -1.1104 9.69585 5.60517 18.025
468 1 -1.1104 9.59021 11.3186 17.9477
469 1 -1.1104 9.45428 5.56937 15.163
471 1 -1.1104 9.51838 11.1381 14.9807
714 2 2.2208 13.7325 6.91565 19.38
695 1 -1.1104 9.42447 14.0142 26.27
570 2 2.2208 5.4281 -4.35177 22.163
473 2 2.2208 8.07397 6.97739 13.787
716 2 2.2208 13.7706 12.6011 13.7341
476 2 2.2208 5.31751 18.1923 16.5157
477 1 -1.1104 1.07516 13.9939 17.8446
478 1 -1.1104 1.00652 19.5743 17.8763
481 1 -1.1104 1.1196 14.0694 15.128
483 1 -1.1104 1.24636 19.6526 15.1031
489 1 -1.1104 1.14852 16.8124 17.8797
491 2 2.2208 5.36793 15.5644 19.3014
492 2 2.2208 5.33429 21.148 19.3734
493 1 -1.1104 1.2021 16.8778 15.296
497 1 -1.1104 3.8166 13.9569 18.0259
498 1 -1.1104 3.84831 19.6508 17.977
499 2 2.2208 2.55294 18.2874 19.264
500 1 -1.1104 3.96123 13.9629 15.2124
502 1 -1.1104 3.89365 19.7351 15.1355
504 2 2.2208 2.61436 15.3718 16.5845
505 2 2.2208 2.53564 20.9477 16.4536
506 1 -1.1104 3.94945 16.8086 17.8724
507 1 -1.1104 3.94511 16.7712 15.182
487 1 -1.1104 6.77227 19.5345 15.1032
490 1 -1.1104 6.71412 16.8915 17.9227
479 1 -1.1104 6.78921 14.117 17.8553
480 1 -1.1104 6.77625 19.6677 17.8913
495 1 -1.1104 6.67463 16.8396 15.1602
485 1 -1.1104 6.665 13.9725 15.1205
511 2 2.2208 5.38567 15.4818 13.741
335 2 2.2208 13.7075 -4.21476 13.7886
501 1 -1.1104 3.90811 14.0282 20.7822
573 2 2.2208 -0.298624 -1.60233 24.8906
512 2 2.2208 10.9819 18.2646 16.4852
513 1 -1.1104 12.2309 14.0476 17.8647
514 1 -1.1104 12.4268 19.5442 17.9025
515 1 -1.1104 12.3128 13.9793 15.1548
517 1 -1.1104 12.3687 19.7672 15.0942
519 1 -1.1104 12.3997 16.8191 17.9051
520 2 2.2208 11.0595 15.5182 19.2137
521 2 2.2208 10.834 20.9411 19.4299
522 1 -1.1104 12.3424 16.9435 15.1116
524 1 -1.1104 9.46641 14.0474 17.8421
525 1 -1.1104 9.59988 19.622 17.7373
526 2 2.2208 8.21633 18.2784 19.2446
527 1 -1.1104 9.54988 14.0528 15.0257
529 1 -1.1104 9.62599 19.7477 15.075
531 2 2.2208 8.12605 15.4346 16.4641
532 2 2.2208 8.1037 21.0684 16.3889
533 1 -1.1104 9.52562 16.8891 17.8382
534 1 -1.1104 9.54295 16.8029 15.0516
535 1 -1.1104 9.62621 16.8463 20.7624
718 2 2.2208 13.6491 15.4982 16.46
536 2 2.2208 10.9694 21.1379 13.6716
518 1 -1.1104 12.3574 19.7239 20.6136
523 1 -1.1104 12.5941 16.8753 20.6437
538 2 2.2208 8.25169 18.3029 13.7145
369 1 -1.1104 3.95631 -0.116694 20.8033
357 1 -1.1104 6.8058 0.0828927 20.7702
343 1 -1.1104 0.955427 -3.01918 20.8273
355 1 -1.1104 1.19337 -0.176596 20.7888
349 1 -1.1104 6.88281 2.85187 20.7797
345 1 -1.1104 1.30784 2.69615 20.7419
362 1 -1.1104 3.98488 -2.93942 20.7054
364 1 -1.1104 4.14465 2.79544 20.6792
540 2 2.2208 5.41654 1.38728 22.1631
541 1 -1.1104 1.08486 -3.10201 23.4969
542 1 -1.1104 1.08711 2.66243 23.624
545 1 -1.1104 1.23505 -2.78324 26.2486
546 1 -1.1104 1.23366 2.66648 26.3519
549 1 -1.1104 1.28018 -0.293188 23.5241
551 2 2.2208 5.38695 -1.34014 24.9539
552 2 2.2208 5.24968 4.09483 25.0149
553 1 -1.1104 1.09502 -0.0292721 26.295
555 1 -1.1104 3.89314 -2.92297 23.6228
556 1 -1.1104 3.86159 2.69007 23.5572
557 2 2.2208 2.41324 1.32494 24.9623
558 1 -1.1104 4.05035 -2.89136 26.4256
559 1 -1.1104 3.92382 2.81439 26.4252
560 2 2.2208 2.63487 -1.53741 22.0489
562 1 -1.1104 4.05028 -0.224882 23.4613
563 1 -1.1104 3.92763 0.0239927 26.4423
561 2 2.2208 2.52379 4.11305 22.0385
543 1 -1.1104 6.80089 -2.93602 23.5526
550 1 -1.1104 6.86883 -0.143579 23.4641
544 1 -1.1104 6.70721 2.71954 23.6521
9816 2 2.2208 -0.178988 1.33054 22.1697
411 2 2.2208 -0.277274 18.1593 16.487
404 2 2.2208 13.8416 21.0192 22.2149
347 1 -1.1104 6.72306 -2.78051 20.7427
548 1 -1.1104 6.78431 2.70593 26.4873
554 1 -1.1104 6.72402 0.0750438 26.2736
547 1 -1.1104 6.73731 -2.77399 26.3698
391 1 -1.1104 12.442 -0.284158 20.5708
398 1 -1.1104 9.57622 2.66667 20.7594
396 1 -1.1104 9.45657 -2.78013 20.6611
403 1 -1.1104 9.67343 -0.104892 20.6117
697 2 2.2208 8.03932 18.2292 24.8177
694 1 -1.1104 9.40046 19.6433 26.2408
576 2 2.2208 10.8777 1.24127 22.0831
577 1 -1.1104 12.2163 -2.71509 23.445
578 1 -1.1104 12.3746 2.7551 23.5114
579 1 -1.1104 12.3842 -2.86164 26.3952
580 1 -1.1104 12.4576 2.67414 26.3012
581 1 -1.1104 12.4863 -0.107126 23.5972
582 2 2.2208 10.9738 -1.4589 24.9077
583 2 2.2208 11.0176 4.18469 24.9247
584 1 -1.1104 12.2463 -0.0801514 26.4177
585 1 -1.1104 9.59808 -3.00941 23.6173
586 1 -1.1104 9.50212 2.79584 23.5503
587 2 2.2208 8.17265 1.30801 25.0108
588 1 -1.1104 9.55453 -2.9615 26.3905
589 1 -1.1104 9.67223 2.71921 26.3824
590 2 2.2208 8.19511 -1.43969 22.1684
591 2 2.2208 8.25069 4.12523 22.233
592 1 -1.1104 9.63806 -0.122772 23.5268
593 1 -1.1104 9.47824 -0.217149 26.3621
377 2 2.2208 13.8672 4.19559 22.1907
720 2 2.2208 13.7878 21.006 16.4854
719 2 2.2208 13.7943 18.2316 19.2494
438 1 -1.1104 3.97534 8.40166 20.8383
433 1 -1.1104 6.59874 11.3912 20.806
445 1 -1.1104 3.94058 11.2581 20.6582
429 1 -1.1104 1.15453 11.1864 20.5891
431 1 -1.1104 6.64143 5.61634 20.6848
427 1 -1.1104 1.09327 5.64447 20.739
418 1 -1.1104 1.10401 8.36163 20.7511
443 1 -1.1104 3.92826 5.58487 20.6444
605 2 2.2208 5.30705 6.9351 22.1901
606 2 2.2208 5.25102 12.5475 22.214
607 1 -1.1104 1.05563 8.15833 23.66
609 1 -1.1104 1.13261 8.47235 26.5036
611 1 -1.1104 1.31962 5.33474 23.7335
612 1 -1.1104 1.29822 10.9697 23.5357
615 2 2.2208 5.33672 9.79988 25.0051
616 1 -1.1104 1.01137 5.53537 26.4719
617 1 -1.1104 1.20842 11.2263 26.3947
620 1 -1.1104 3.75976 8.23034 23.5355
621 2 2.2208 2.43959 6.94048 25.0424
622 2 2.2208 2.53137 12.5514 25.0371
623 1 -1.1104 3.93785 8.40512 26.3711
624 2 2.2208 2.5743 9.74486 22.1297
625 1 -1.1104 3.92471 5.37033 23.4784
626 1 -1.1104 3.94169 11.2733 23.6157
627 1 -1.1104 4.06389 5.62345 26.4045
628 1 -1.1104 3.87217 11.278 26.4372
610 1 -1.1104 6.75308 8.37374 26.4904
619 1 -1.1104 6.73457 11.042 26.3841
608 1 -1.1104 6.71124 8.23563 23.6439
613 1 -1.1104 6.8131 5.48974 23.5845
618 1 -1.1104 6.90851 5.54318 26.3395
614 1 -1.1104 6.80453 11.0881 23.546
712 2 2.2208 13.7955 7.107 13.8102
458 1 -1.1104 12.3591 5.71706 20.8502
460 1 -1.1104 12.2268 11.1402 20.574
472 1 -1.1104 9.52394 11.1579 20.6738
453 1 -1.1104 12.3195 8.40035 20.7317
470 1 -1.1104 9.54191 5.48999 20.8946
465 1 -1.1104 9.69287 8.44525 20.9199
657 2 2.2208 13.8709 12.5275 24.9227
376 2 2.2208 13.8506 9.78164 22.0793
659 2 2.2208 13.8148 6.96031 25.0138
636 1 -1.1104 9.55363 11.2744 26.2322
637 1 -1.1104 9.80346 5.63075 26.3904
638 1 -1.1104 9.66009 11.2158 23.5641
639 1 -1.1104 9.5578 5.5953 23.7116
640 2 2.2208 8.18638 9.86136 22.1291
641 1 -1.1104 9.63814 8.40253 26.465
642 2 2.2208 8.13819 12.5099 24.8831
643 2 2.2208 8.28383 7.04169 25.0037
644 2 2.2208 10.8794 7.04001 22.2445
645 2 2.2208 10.895 12.592 21.9842
646 1 -1.1104 12.246 8.33344 23.6228
647 1 -1.1104 12.358 8.36873 26.3491
648 1 -1.1104 12.4319 5.51112 23.5752
649 1 -1.1104 12.3166 11.1226 23.4391
650 2 2.2208 11.0141 9.82436 25.014
651 1 -1.1104 12.4973 5.63895 26.3103
652 1 -1.1104 12.4507 11.2957 26.4222
653 1 -1.1104 9.57793 8.50234 23.6472
9784 2 2.2208 -0.195114 -1.55844 13.64
692 2 2.2208 8.12011 21.1435 22.1273
484 1 -1.1104 1.32023 19.667 20.6391
503 1 -1.1104 3.98362 19.7123 20.7789
496 1 -1.1104 6.77503 16.9519 20.6458
486 1 -1.1104 6.83956 14.1586 20.5755
482 1 -1.1104 1.05111 14.0381 20.7123
10138 2 2.2208 -0.378747 -1.51143 19.3772
508 1 -1.1104 3.97836 16.9585 20.7052
494 1 -1.1104 1.08331 16.897 20.6156
488 1 -1.1104 6.75069 19.8122 20.6955
667 1 -1.1104 6.74348 19.6736 23.5208
678 1 -1.1104 6.85661 16.7992 23.4922
696 1 -1.1104 6.6098 19.5057 26.2973
682 2 2.2208 2.58486 15.4373 22.0866
681 2 2.2208 2.54965 21.0891 22.1536
680 1 -1.1104 4.10523 16.9253 23.4716
679 1 -1.1104 1.15646 16.8132 23.4852
677 1 -1.1104 4.05885 14.1325 26.4328
676 1 -1.1104 3.97405 16.9503 26.3186
675 2 2.2208 2.624 18.2602 24.8996
668 2 2.2208 5.32874 21.0734 24.9205
674 1 -1.1104 3.8864 19.7943 26.3821
673 2 2.2208 5.38088 18.3113 21.9918
672 1 -1.1104 1.25577 13.9705 23.5468
666 1 -1.1104 1.21429 13.885 26.3725
665 1 -1.1104 1.23176 16.7136 26.4023
671 1 -1.1104 1.09591 19.7213 23.4878
664 1 -1.1104 1.17628 19.716 26.3259
669 2 2.2208 5.44179 15.4056 24.862
660 1 -1.1104 3.96654 19.5993 23.5902
662 1 -1.1104 3.85386 14.0763 23.6975
670 1 -1.1104 6.61343 14.0073 23.2943
708 2 2.2208 11.1161 18.1862 22.063
703 1 -1.1104 12.3012 16.7764 23.5486
691 1 -1.1104 9.64817 16.7297 23.3922
370 2 2.2208 13.8263 15.3601 22.1468
707 1 -1.1104 12.298 13.9495 23.4035
706 1 -1.1104 12.3511 19.5973 23.4067
693 2 2.2208 8.09396 15.55 22.0189
702 2 2.2208 10.8946 15.3062 24.8719
698 1 -1.1104 9.61009 19.5003 23.4867
699 1 -1.1104 9.43 14.0467 23.4329
530 1 -1.1104 9.36309 19.6444 20.5785
528 1 -1.1104 9.58489 14.0572 20.6188
663 1 -1.1104 6.80359 16.6544 26.2374
661 1 -1.1104 6.78333 13.827 26.2674
516 1 -1.1104 12.2453 14.0596 20.6732
690 1 -1.1104 9.52845 16.7722 26.2971
704 1 -1.1104 12.2263 19.7157 26.245
700 1 -1.1104 12.5002 16.8325 26.3608
701 2 2.2208 10.9695 21.0149 24.8025
537 2 2.2208 10.9081 15.4583 13.6519
564 2 2.2208 5.30273 1.35944 27.7603
565 2 2.2208 2.57913 -1.4983 27.732
654 2 2.2208 11.0603 6.97764 27.7867
685 2 2.2208 2.67077 15.3673 27.8293
333 2 2.2208 5.36683 -1.58569 13.7936
334 2 2.2208 8.18833 -4.31543 13.7271
448 2 2.2208 2.55434 12.6442 13.7392
474 2 2.2208 10.8721 9.74735 13.7022
510 2 2.2208 5.28386 21.1396 13.7271
723 2 2.2208 5.27128 23.9662 5.28601
724 2 2.2208 5.22412 29.4552 5.18469
725 1 -1.1104 1.07274 25.2396 1.02626
726 1 -1.1104 0.990456 25.2975 3.93363
727 1 -1.1104 1.05367 22.5709 1.18906
728 1 -1.1104 1.0543 27.9856 1.01611
729 2 2.2208 5.18005 26.7126 2.4248
730 1 -1.1104 1.15362 22.3287 3.77729
731 1 -1.1104 1.09892 28.2247 3.77385
732 1 -1.1104 3.94744 25.1685 1.05948
733 2 2.2208 2.40882 23.899 2.45139
734 2 2.2208 2.43727 29.4244 2.38783
735 1 -1.1104 3.76012 25.3483 3.84736
736 2 2.2208 2.47113 26.6459 5.3355
737 1 -1.1104 3.84035 22.4664 1.04362
738 1 -1.1104 3.8844 28.0447 1.0044
739 1 -1.1104 4.02809 22.4986 3.86569
740 1 -1.1104 3.74576 28.1568 3.90054
870 1 -1.1104 3.87737 25.2182 6.67747
749 1 -1.1104 6.51629 28.053 3.71626
744 1 -1.1104 6.67181 25.1123 1.02621
748 1 -1.1104 6.86328 22.7145 3.8539
745 1 -1.1104 6.75768 25.3277 3.88359
746 1 -1.1104 6.75218 22.4291 1.05241
747 1 -1.1104 6.78007 27.9574 0.869082
869 1 -1.1104 6.70941 28.1366 6.43839
865 1 -1.1104 6.6402 25.423 6.77465
867 1 -1.1104 1.05072 28.1045 6.52412
1270 2 2.2208 5.19103 29.5499 -0.429265
868 1 -1.1104 6.66636 22.2829 6.61185
750 2 2.2208 10.9817 23.7681 5.24801
751 2 2.2208 10.7972 29.5393 5.19787
752 1 -1.1104 12.4882 24.9924 0.976683
753 1 -1.1104 12.3538 25.2125 3.78356
754 1 -1.1104 12.3883 22.236 1.01619
755 1 -1.1104 12.4064 27.9452 1.15847
756 2 2.2208 11.0245 26.5705 2.43876
757 1 -1.1104 12.4005 22.3803 3.90446
758 1 -1.1104 12.3028 28.0837 3.89633
759 1 -1.1104 9.65374 25.2871 0.961388
760 2 2.2208 8.21874 23.8609 2.48373
761 2 2.2208 7.95429 29.3466 2.42267
762 1 -1.1104 9.47886 25.3147 3.8293
763 2 2.2208 8.0817 26.6295 5.25305
764 1 -1.1104 9.64079 22.5901 1.11361
765 1 -1.1104 9.69262 27.9877 1.13579
766 1 -1.1104 9.56189 22.4326 3.91743
767 1 -1.1104 9.41536 28.0575 3.77719
769 2 2.2208 13.7805 29.4136 2.48075
770 2 2.2208 13.6414 26.5608 5.29134
901 1 -1.1104 9.45913 22.4975 6.66591
1055 2 2.2208 13.6456 46.4127 8.09913
1040 2 2.2208 13.581 37.8985 5.26322
898 1 -1.1104 12.4182 22.4579 6.75411
902 1 -1.1104 9.53447 28.1576 6.49467
897 1 -1.1104 12.2246 25.3041 6.71167
900 1 -1.1104 9.40977 25.2716 6.47026
899 1 -1.1104 12.3545 27.9851 6.63654
1304 2 2.2208 10.8351 29.3534 -0.320568
742 2 2.2208 -0.397965 23.7635 5.32682
771 2 2.2208 5.21272 35.1081 5.24681
772 1 -1.1104 0.980649 30.7819 1.16123
773 1 -1.1104 0.944441 36.4712 1.04393
775 1 -1.1104 0.894887 30.9513 3.9484
776 1 -1.1104 0.989771 36.5285 3.84156
778 1 -1.1104 0.985549 33.5899 1.16531
779 2 2.2208 5.24125 32.2768 2.42121
780 2 2.2208 5.07729 37.8315 2.4311
781 1 -1.1104 1.03314 33.7259 3.8745
783 1 -1.1104 3.86862 30.793 1.06704
784 1 -1.1104 3.59158 36.3011 1.06478
785 2 2.2208 2.34354 35.0872 2.47527
786 1 -1.1104 3.70042 30.9846 3.82535
787 1 -1.1104 3.74392 36.4989 3.8102
788 2 2.2208 2.36467 32.2578 5.16101
789 2 2.2208 2.4002 37.8132 5.2674
790 1 -1.1104 3.91983 33.4768 0.875278
791 1 -1.1104 3.87785 33.8289 3.65946
774 1 -1.1104 6.40146 36.4539 1.14212
777 1 -1.1104 6.64726 36.4498 3.81686
796 1 -1.1104 6.58121 30.8291 3.79029
797 1 -1.1104 6.60283 33.6693 1.1202
928 1 -1.1104 3.78166 36.3955 6.49605
922 1 -1.1104 0.92565 36.4177 6.61075
923 1 -1.1104 6.51848 30.7828 6.68971
927 1 -1.1104 3.7617 30.8785 6.55191
795 1 -1.1104 6.65537 30.8198 1.18711
924 1 -1.1104 6.54776 36.4556 6.70277
926 1 -1.1104 6.54475 33.875 6.82697
1016 1 -1.1104 9.23597 39.3396 9.47003
782 1 -1.1104 6.50456 33.5496 3.98049
798 2 2.2208 10.7094 35.0236 5.23058
799 1 -1.1104 12.2749 30.8093 1.11798
800 1 -1.1104 12.233 36.5494 1.07855
801 1 -1.1104 12.1461 30.8152 3.89299
802 1 -1.1104 12.1825 36.5675 3.83198
803 1 -1.1104 12.158 33.6237 1.00046
804 2 2.2208 10.715 32.238 2.34845
805 2 2.2208 10.8765 37.7953 2.40757
806 1 -1.1104 11.8416 33.6881 3.71899
807 1 -1.1104 9.34634 30.7677 0.930103
808 1 -1.1104 9.35078 36.3885 1.04389