ITEM: TIMESTEP
60000
ITEM: NUMBER OF ATOMS
17910
ITEM: BOX BOUNDS pp pp pp
-3.6131104515521351e-01 2.7701311045155009e+01
-4.2266881379654189e+00 3.3230668813796672e+02
-3.5315646218889435e-01 2.7693156462188977e+01
ITEM: ATOMS id type q x y z
1 2 2.2208 5.22527 1.38716 5.22853
2 1 -1.1104 1.19385 -2.83963 1.16502
3 1 -1.1104 1.06964 2.57112 1.16707
6 1 -1.1104 1.18563 -2.9041 4.04338
7 1 -1.1104 1.23353 2.81691 3.956
10 1 -1.1104 1.14555 -0.184518 1.09425
12 2 2.2208 5.36441 -1.44333 2.4302
13 2 2.2208 5.16875 4.20018 2.39039
14 1 -1.1104 1.11275 -0.11766 3.95589
16 1 -1.1104 3.94889 -2.85184 0.995461
17 1 -1.1104 3.83353 2.78176 1.0797
18 2 2.2208 2.39186 1.25618 2.53129
19 1 -1.1104 3.90818 -2.87716 3.7925
20 1 -1.1104 3.9507 2.79591 3.98287
21 2 2.2208 2.3946 -1.41868 5.43735
23 1 -1.1104 3.9738 -0.0769521 1.07685
24 1 -1.1104 3.94643 -0.017839 3.98267
22 2 2.2208 2.59588 4.1324 5.28144
25 2 2.2208 -0.311393 -1.52762 2.58135
9772 2 2.2208 -0.224101 1.44777 5.24141
27 2 2.2208 -0.381929 4.15155 2.50563
567 2 2.2208 -0.193724 -4.21025 -0.288886
565 2 2.2208 2.55365 -1.55031 -0.413139
9 1 -1.1104 6.74077 2.6985 3.73552
5 1 -1.1104 6.65768 2.63687 1.09008
311 2 2.2208 -0.203703 20.9246 8.10769
29 2 2.2208 5.26999 -4.19965 5.30233
200 1 -1.1104 12.237 13.898 12.3423
331 2 2.2208 13.6316 20.8852 10.9441
8 1 -1.1104 6.74493 -2.86241 3.81084
4 1 -1.1104 6.83676 -2.83126 1.13013
11 1 -1.1104 6.76303 -0.0199637 1.08016
15 1 -1.1104 6.83504 -0.0928582 3.81348
31 2 2.2208 10.9177 1.3585 5.27438
32 1 -1.1104 12.439 -2.80089 1.11321
33 1 -1.1104 12.1444 2.75804 1.09267
34 1 -1.1104 12.3037 -3.00902 3.95918
35 1 -1.1104 12.221 2.74794 3.86338
36 1 -1.1104 12.4817 -0.00116447 1.01707
37 2 2.2208 10.9835 -1.58224 2.57792
38 2 2.2208 10.9437 4.07653 2.48421
39 1 -1.1104 12.3263 -0.0411221 3.8529
40 1 -1.1104 9.64943 -2.80278 1.19494
41 1 -1.1104 9.47305 2.84777 1.09664
42 2 2.2208 8.23523 1.40376 2.44745
43 1 -1.1104 9.51468 -2.89162 3.87975
44 1 -1.1104 9.4201 2.71924 3.89405
45 2 2.2208 8.10341 -1.48851 5.2322
46 2 2.2208 8.11756 3.99144 5.23747
47 1 -1.1104 9.62289 -0.169834 0.987104
48 1 -1.1104 9.65669 -0.0458959 3.89474
168 1 -1.1104 6.69137 -2.94873 6.69002
594 2 2.2208 10.8599 1.28849 -0.284421
595 2 2.2208 8.08322 -1.58099 -0.209226
207 1 -1.1104 12.3939 -0.161014 6.73227
171 1 -1.1104 6.63003 -0.135506 6.63958
54 2 2.2208 5.4279 7.01909 5.27209
55 2 2.2208 5.36117 12.5227 5.32756
56 1 -1.1104 0.919481 8.42568 1.14353
58 1 -1.1104 1.0624 8.33645 3.85077
60 1 -1.1104 0.929699 5.51214 1.03291
61 1 -1.1104 1.07662 11.1708 1.05055
66 2 2.2208 5.16532 9.87377 2.43267
67 1 -1.1104 1.13066 5.54789 3.91861
68 1 -1.1104 1.13615 11.1244 3.964
71 1 -1.1104 3.77961 8.44875 1.19019
72 2 2.2208 2.40823 7.0511 2.44286
73 2 2.2208 2.61592 12.5434 2.52924
74 1 -1.1104 3.96267 8.506 3.94658
75 2 2.2208 2.51031 9.84148 5.3504
76 1 -1.1104 3.79341 5.5788 0.95577
77 1 -1.1104 3.79148 11.0563 1.1066
79 1 -1.1104 3.91273 5.73347 3.79459
80 1 -1.1104 3.9744 11.1581 3.90244
83 2 2.2208 -0.255379 12.482 5.12036
9774 2 2.2208 -0.226153 6.85776 5.25246
232 2 2.2208 10.8093 -4.276 10.9095
62 1 -1.1104 1.23983 11.1921 6.70326
202 2 2.2208 2.54625 -4.10426 8.16211
69 1 -1.1104 6.62499 5.5354 3.64227
235 1 -1.1104 6.80495 8.36842 6.63949
238 1 -1.1104 3.84209 8.42782 6.86479
51 2 2.2208 8.18523 -4.34333 2.61667
64 1 -1.1104 6.53759 11.276 1.13152
70 1 -1.1104 6.79396 11.0384 3.95392
63 1 -1.1104 6.70828 5.54865 0.921379
57 1 -1.1104 6.75186 8.41646 0.892918
59 1 -1.1104 6.70055 8.19934 3.88942
84 2 2.2208 10.9882 6.99892 5.23566
85 2 2.2208 10.8923 12.5079 5.37972
86 1 -1.1104 12.1903 8.33726 0.953007
87 1 -1.1104 12.2395 8.3623 3.85662
88 1 -1.1104 12.2139 5.61448 1.23206
89 1 -1.1104 12.2839 11.1665 1.06544
91 2 2.2208 10.9677 9.69555 2.47213
92 1 -1.1104 12.2616 5.56189 3.91837
93 1 -1.1104 12.4273 10.9778 3.88244
94 1 -1.1104 9.49405 8.45025 0.934566
95 2 2.2208 8.05535 6.88687 2.47088
96 2 2.2208 8.1199 12.5559 2.50802
97 1 -1.1104 9.46495 8.2498 3.91845
98 2 2.2208 8.14592 9.6333 5.23249
99 1 -1.1104 9.579 5.72826 0.915099
100 1 -1.1104 9.40182 11.1463 1.08332
102 1 -1.1104 9.52665 5.45429 3.86714
103 1 -1.1104 9.44996 11.0111 3.91258
267 1 -1.1104 9.6668 8.53413 6.68311
30 2 2.2208 -0.360697 -4.16185 5.36541
204 1 -1.1104 12.4859 13.9896 9.46682
101 1 -1.1104 9.46892 11.1868 6.68621
237 1 -1.1104 6.71736 5.56993 6.51192
265 1 -1.1104 12.4933 8.29785 6.71396
654 2 2.2208 10.8923 7.00572 -0.494025
106 2 2.2208 5.41997 18.1389 5.16691
107 1 -1.1104 1.16706 14.1307 1.10986
109 1 -1.1104 1.16453 19.6129 0.963435
113 1 -1.1104 1.08296 13.9479 3.8811
114 1 -1.1104 1.24811 19.5693 3.80807
116 1 -1.1104 1.03793 16.8789 1.04912
119 2 2.2208 5.51685 15.4066 2.39393
120 2 2.2208 5.50629 20.991 2.32146
121 1 -1.1104 1.0795 16.7613 4.0085
123 1 -1.1104 4.01175 13.7617 1.06388
125 1 -1.1104 4.02257 19.5029 1.05426
127 2 2.2208 2.54369 18.1613 2.46281
128 1 -1.1104 3.9906 13.9738 3.7626
129 1 -1.1104 4.08157 19.5165 3.79867
130 2 2.2208 2.62798 15.3419 5.27864
131 2 2.2208 2.54786 20.8973 5.28972
132 1 -1.1104 4.01978 16.6467 1.03802
134 1 -1.1104 3.95322 16.8704 3.73191
135 2 2.2208 -0.322007 15.4326 2.6204
136 2 2.2208 -0.299826 21.019 2.54366
137 2 2.2208 -0.328685 18.1767 5.35835
122 1 -1.1104 6.92948 16.7419 3.86885
302 1 -1.1104 1.1022 19.5681 6.6677
108 1 -1.1104 1.14422 13.9568 6.63099
139 1 -1.1104 6.80178 19.5842 3.69768
140 1 -1.1104 6.85137 16.879 1.11518
110 1 -1.1104 6.76377 14.0721 1.10132
115 1 -1.1104 6.71499 13.9795 3.87867
138 1 -1.1104 6.92126 19.6774 1.0846
141 2 2.2208 11.1516 18.2089 5.29347
142 1 -1.1104 12.3828 13.9312 1.08527
144 1 -1.1104 12.5226 19.4985 1.08485
146 1 -1.1104 12.2977 13.8371 4.1069
147 1 -1.1104 12.4615 19.5661 4.01289
148 1 -1.1104 12.3891 16.6693 1.07592
150 2 2.2208 10.8645 15.2872 2.44513
151 2 2.2208 10.9961 21.0286 2.4784
152 1 -1.1104 12.3383 16.6077 3.86843
153 1 -1.1104 9.59465 14.0273 1.03738
155 1 -1.1104 9.74502 19.5859 1.0377
157 2 2.2208 8.24312 18.2013 2.55213
158 1 -1.1104 9.55602 13.7862 3.92726
159 1 -1.1104 9.71071 19.6182 3.88526
160 2 2.2208 8.16139 15.3221 5.28202
161 2 2.2208 8.1733 20.9626 5.31446
162 1 -1.1104 9.59957 16.8005 0.959677
164 1 -1.1104 9.64166 16.6543 3.87759
149 1 -1.1104 12.4832 16.7519 6.67803
143 1 -1.1104 12.4556 13.7391 6.72307
118 1 -1.1104 6.68996 16.6486 6.71865
111 1 -1.1104 6.67317 14.0379 6.67262
154 1 -1.1104 9.65224 13.9959 6.78727
145 1 -1.1104 12.4788 19.6426 6.72436
575 2 2.2208 8.27794 21.0756 -0.305937
173 1 -1.1104 3.9717 2.72283 6.70196
170 1 -1.1104 1.047 0.0318424 6.63687
172 1 -1.1104 3.90814 -2.72907 6.78798
167 1 -1.1104 1.11362 2.80284 6.81611
9708 2 2.2208 -0.253578 9.74244 8.03715
174 1 -1.1104 3.903 0.0628915 6.67565
322 1 -1.1104 9.55056 13.9443 12.2416
9709 2 2.2208 -0.250425 6.9612 10.9595
166 1 -1.1104 1.07898 -2.82454 6.77281
175 2 2.2208 5.26279 1.42414 10.8216
176 1 -1.1104 1.25513 -2.72277 12.345
177 1 -1.1104 1.17605 2.73766 12.4232
180 1 -1.1104 1.22704 -2.82152 9.60843
181 1 -1.1104 1.01577 2.88846 9.56715
184 1 -1.1104 1.02724 -0.0784001 12.257
186 2 2.2208 5.33958 -1.49354 8.07978
187 2 2.2208 5.39144 4.19089 7.9792
188 1 -1.1104 1.11672 0.0185967 9.5005
190 1 -1.1104 4.07055 -2.66699 12.2212
191 1 -1.1104 4.00568 2.95918 12.3354
192 2 2.2208 2.51584 1.34471 7.99099
193 1 -1.1104 4.05729 -2.82397 9.46901
194 1 -1.1104 3.75269 2.82355 9.38746
195 2 2.2208 2.5847 -1.34008 10.9054
196 2 2.2208 2.4501 4.26813 10.8517
197 1 -1.1104 3.90124 0.108031 12.3801
198 1 -1.1104 3.99977 -0.0582345 9.5343
320 2 2.2208 8.20751 17.9829 7.98206
379 2 2.2208 5.31271 4.27785 13.6881
178 1 -1.1104 6.72983 -2.69979 12.2533
183 1 -1.1104 6.62607 2.72508 9.36849
189 1 -1.1104 6.76669 -0.0558542 9.47941
82 2 2.2208 -0.361265 9.80305 2.54397
208 1 -1.1104 9.53395 -2.90515 6.68119
206 1 -1.1104 12.3024 2.69553 6.73874
185 1 -1.1104 6.57087 0.0389137 12.3496
210 1 -1.1104 9.63586 -0.125237 6.73221
205 1 -1.1104 12.3454 -2.86793 6.58584
209 1 -1.1104 9.48641 2.71561 6.67526
229 1 -1.1104 12.4195 19.4893 9.57024
169 1 -1.1104 6.77836 2.73437 6.56969
179 1 -1.1104 6.82459 2.73408 12.1787
182 1 -1.1104 6.7197 -2.84789 9.49051
211 2 2.2208 10.8634 1.37021 10.8384
212 1 -1.1104 12.3947 -3.06623 12.2632
213 1 -1.1104 12.3744 2.63652 12.2712
214 1 -1.1104 12.3549 -2.69268 9.48696
215 1 -1.1104 12.2726 2.7943 9.49115
216 1 -1.1104 12.226 -0.249393 12.2701
217 2 2.2208 10.9598 -1.38125 8.147
218 2 2.2208 10.9423 4.12559 8.06624
219 1 -1.1104 12.1998 -0.0441668 9.68276
220 1 -1.1104 9.54438 -2.84085 12.2949
221 1 -1.1104 9.74493 2.71505 12.2887
222 2 2.2208 8.07558 1.29074 7.84465
223 1 -1.1104 9.60458 -2.75438 9.51507
224 1 -1.1104 9.46905 2.77766 9.46444
225 2 2.2208 8.08329 -1.32026 10.9373
227 1 -1.1104 9.37494 0.0222323 12.2153
228 1 -1.1104 9.56332 0.0656357 9.48132
226 2 2.2208 8.16414 4.20468 10.8336
9776 2 2.2208 -0.284563 1.41323 10.9171
315 1 -1.1104 9.57816 16.6736 12.2428
236 1 -1.1104 1.37988 5.6268 6.63935
239 1 -1.1104 4.05842 5.68426 6.6564
234 1 -1.1104 0.927587 8.3425 6.6502
78 1 -1.1104 3.89907 11.3142 6.67278
240 2 2.2208 5.29934 7.0209 10.8504
241 2 2.2208 5.27996 12.585 11.0056
242 1 -1.1104 1.12109 8.38885 12.2955
244 1 -1.1104 1.36756 8.45156 9.45177
246 1 -1.1104 1.13928 5.70083 12.2947
247 1 -1.1104 1.13405 11.1465 12.396
250 2 2.2208 5.29284 9.82337 8.03881
251 1 -1.1104 1.06625 5.66754 9.56478
252 1 -1.1104 1.1236 11.2051 9.60051
255 1 -1.1104 4.0097 8.38614 12.4665
256 2 2.2208 2.60803 6.95905 8.07568
257 2 2.2208 2.53066 12.5492 8.02426
258 1 -1.1104 4.10049 8.46148 9.70035
259 2 2.2208 2.52599 9.79673 11.002
260 1 -1.1104 3.97682 5.57751 12.2008
261 1 -1.1104 3.84313 11.2246 12.3012
262 1 -1.1104 3.90579 5.53838 9.36121
263 1 -1.1104 3.90483 11.2021 9.4391
81 2 2.2208 10.9094 18.0976 10.922
317 2 2.2208 8.15956 15.352 10.9148
253 1 -1.1104 6.68391 5.47927 9.38851
447 2 2.2208 5.43898 9.77402 13.8242
266 1 -1.1104 12.2813 5.54463 6.73105
65 1 -1.1104 6.75686 11.2497 6.84513
324 2 2.2208 10.9646 20.8545 8.11294
329 2 2.2208 13.8006 12.3843 8.14393
269 1 -1.1104 9.51461 5.50817 6.69734
254 1 -1.1104 6.68259 11.1085 9.59212
248 1 -1.1104 6.68019 5.47002 12.2172
245 1 -1.1104 6.87459 8.36092 9.51824
243 1 -1.1104 6.64099 8.37165 12.1882
249 1 -1.1104 6.63147 11.1565 12.3268
90 1 -1.1104 12.5324 11.1487 6.69426
264 1 -1.1104 9.58203 11.1763 9.51474
268 1 -1.1104 9.60595 5.55125 9.51889
270 1 -1.1104 9.48191 11.0009 12.1385
271 1 -1.1104 9.53341 5.43016 12.2669
272 2 2.2208 8.18702 9.76352 10.8405
273 1 -1.1104 9.67598 8.3649 9.40779
274 2 2.2208 8.20146 12.5993 8.18416
275 2 2.2208 8.17406 7.02257 8.1836
276 2 2.2208 11.0302 6.95775 10.7876
277 2 2.2208 10.9572 12.5157 10.8786
278 1 -1.1104 12.2496 8.18112 12.4477
279 1 -1.1104 12.3425 8.33608 9.41322
280 1 -1.1104 12.5235 5.3243 12.4018
281 1 -1.1104 12.2781 11.0081 12.1731
282 2 2.2208 11.0087 9.7352 8.00202
283 1 -1.1104 12.3054 5.50642 9.45759
284 1 -1.1104 12.2996 11.0756 9.4245
285 1 -1.1104 9.49543 8.22916 12.1994
474 2 2.2208 10.9447 9.61862 13.7181
475 2 2.2208 8.14035 12.5304 13.6469
124 1 -1.1104 3.8782 14.0073 6.68346
112 1 -1.1104 6.84284 19.5125 6.62419
312 2 2.2208 -0.324955 18.1913 10.9445
296 1 -1.1104 6.89758 19.549 12.3932
297 1 -1.1104 6.66531 14.0295 12.4265
126 1 -1.1104 4.11466 19.4477 6.584
133 1 -1.1104 3.9113 16.7351 6.63877
313 2 2.2208 -0.146504 15.2968 8.08581
117 1 -1.1104 1.30761 16.8704 6.77109
286 1 -1.1104 3.93314 19.3669 12.2295
287 1 -1.1104 3.77881 13.9365 12.2764
291 1 -1.1104 1.22883 19.4032 9.54232
292 1 -1.1104 0.999564 16.6499 9.53667
293 2 2.2208 5.31709 20.9489 8.01325
294 1 -1.1104 1.18099 13.9151 9.62326
295 2 2.2208 5.28664 15.3168 8.15704
298 1 -1.1104 1.16895 19.5847 12.3436
299 1 -1.1104 1.02532 13.9885 12.3823
300 2 2.2208 5.35604 18.1403 10.9327
301 1 -1.1104 4.01616 19.5571 9.43236
303 2 2.2208 2.52973 18.0764 8.21524
304 1 -1.1104 3.88898 16.7545 9.61512
305 1 -1.1104 3.94216 14.0078 9.40754
307 1 -1.1104 1.26072 16.786 12.2802
308 1 -1.1104 3.96281 16.6333 12.512
309 2 2.2208 2.57047 20.9107 10.7558
310 2 2.2208 2.48485 15.3753 11.0984
288 1 -1.1104 6.82497 19.655 9.31285
290 1 -1.1104 6.78497 13.9857 9.51422
289 1 -1.1104 6.72379 16.7692 9.75561
537 2 2.2208 10.9041 15.2292 13.7307
314 1 -1.1104 9.52593 16.7455 9.42672
318 1 -1.1104 9.57847 19.4733 9.34284
156 1 -1.1104 9.6395 19.4828 6.67206
163 1 -1.1104 9.6812 16.7159 6.62243
201 1 -1.1104 12.291 19.4841 12.3568
323 1 -1.1104 12.36 16.7277 9.48839
321 1 -1.1104 9.57443 19.5075 12.2333
306 1 -1.1104 6.87225 16.8203 12.3009
316 2 2.2208 8.17049 20.8796 10.8447
230 1 -1.1104 12.3098 16.6727 12.3567
319 1 -1.1104 9.67877 13.9128 9.62906
325 2 2.2208 11.0563 15.3774 8.10911
333 2 2.2208 5.29979 -1.29845 13.8026
374 2 2.2208 13.8184 15.3161 -0.272878
448 2 2.2208 2.5779 12.5265 13.6781
473 2 2.2208 8.03608 6.97731 13.6796
511 2 2.2208 5.40805 15.2983 13.8138
566 2 2.2208 2.35455 4.03836 -0.39146
564 2 2.2208 5.24165 1.31765 -0.343708
596 2 2.2208 8.1466 4.25703 -0.4065
631 2 2.2208 5.29949 12.6082 -0.459641
635 2 2.2208 -0.320328 6.88851 -0.38589
684 2 2.2208 5.38386 18.1128 -0.199271
337 2 2.2208 5.35118 1.32407 16.4338
338 1 -1.1104 1.13947 -3.01388 17.9616
339 1 -1.1104 1.14621 2.82261 17.9452
342 1 -1.1104 1.06451 -2.79805 15.1604
344 1 -1.1104 1.10933 2.86198 15.2137
350 1 -1.1104 1.16836 -0.19265 17.8781
352 2 2.2208 5.2366 -1.53151 19.3349
353 2 2.2208 5.23807 4.1794 19.2214
354 1 -1.1104 1.056 0.124585 15.1185
358 1 -1.1104 3.84472 -2.82711 17.9185
359 1 -1.1104 4.03581 2.69128 17.8838
360 2 2.2208 2.52915 1.30905 19.3278
361 1 -1.1104 3.82397 -2.82152 15.1457
363 1 -1.1104 3.94111 2.63608 15.2093
365 2 2.2208 2.47139 -1.45565 16.6015
366 2 2.2208 2.51324 4.14421 16.5059
367 1 -1.1104 3.9761 -0.0455014 17.8679
368 1 -1.1104 3.76945 -0.107844 15.0786
600 2 2.2208 8.23185 -4.14767 24.9312
599 2 2.2208 10.8869 -4.30081 22.1207
408 2 2.2208 8.13929 15.492 27.694
530 1 -1.1104 9.65269 19.5269 20.8445
535 1 -1.1104 9.54732 16.6854 20.7947
634 2 2.2208 -0.186693 12.6098 22.2391
10138 2 2.2208 -0.255324 -1.49297 19.3787
356 1 -1.1104 6.6893 0.0686374 15.107
9816 2 2.2208 -0.299795 1.30939 22.1008
695 1 -1.1104 9.49809 14.088 26.2701
9812 2 2.2208 -0.268899 4.16103 24.911
341 1 -1.1104 6.8139 2.72692 17.7177
351 1 -1.1104 6.66311 -0.217329 17.9567
340 1 -1.1104 6.59746 -2.91825 17.9471
348 1 -1.1104 6.75846 2.95715 14.9778
346 1 -1.1104 6.57581 -2.86998 15.0911
380 2 2.2208 10.8988 1.33085 16.4085
381 1 -1.1104 12.2525 -2.94103 17.7276
382 1 -1.1104 12.3819 2.69703 17.8609
383 1 -1.1104 12.3031 -2.8648 15.0579
385 1 -1.1104 12.2076 2.55632 15.1194
387 1 -1.1104 12.3658 -0.0579777 17.8138
388 2 2.2208 10.8887 -1.56821 19.2451
389 2 2.2208 10.9536 4.15768 19.3287
390 1 -1.1104 12.2486 -0.118863 14.9932
392 1 -1.1104 9.55106 -2.93077 18.0878
393 1 -1.1104 9.69022 2.68003 17.9044
394 2 2.2208 7.99876 1.37615 19.2402
395 1 -1.1104 9.31097 -2.72342 15.1098
397 1 -1.1104 9.45148 2.7973 15.1242
399 2 2.2208 7.95734 -1.41784 16.4796
401 1 -1.1104 9.36718 -0.0444753 17.8169
402 1 -1.1104 9.39303 -0.0484764 15.0998
400 2 2.2208 8.05148 4.1407 16.5549
403 1 -1.1104 9.41375 -0.0353471 20.6586
516 1 -1.1104 12.2473 14.0396 20.7221
398 1 -1.1104 9.36481 2.69452 20.647
384 1 -1.1104 12.1385 -2.87619 20.6931
347 1 -1.1104 6.56924 -2.90696 20.8096
336 2 2.2208 10.8815 -1.47353 13.7354
410 2 2.2208 8.11131 1.44405 13.5719
413 2 2.2208 5.3097 6.9116 16.5717
414 2 2.2208 5.39275 12.512 16.5424
415 1 -1.1104 1.0974 8.45106 17.8959
417 1 -1.1104 1.15651 8.28235 15.008
421 1 -1.1104 1.04701 5.68478 17.8281
422 1 -1.1104 1.0537 11.2668 17.8913
425 2 2.2208 5.32753 9.71543 19.342
426 1 -1.1104 1.02552 5.58561 15.1698
428 1 -1.1104 1.14228 11.0846 15.0394
434 1 -1.1104 3.89791 8.34193 17.9076
435 2 2.2208 2.50435 7.0947 19.1878
436 2 2.2208 2.52237 12.5834 19.2418
437 1 -1.1104 4.09167 8.32749 15.183
439 2 2.2208 2.48545 9.70776 16.391
440 1 -1.1104 3.80933 5.56115 17.8124
441 1 -1.1104 3.85007 11.1288 17.817
442 1 -1.1104 3.77541 5.49047 15.0407
444 1 -1.1104 4.10975 11.215 15.0911
692 2 2.2208 8.12466 20.9086 22.1906
9926 2 2.2208 -0.30432 9.82862 19.3751
717 2 2.2208 -0.2724 12.4727 16.537
445 1 -1.1104 4.02791 11.175 20.776
423 1 -1.1104 6.70901 5.52306 17.9402
438 1 -1.1104 3.92281 8.45951 20.6903
418 1 -1.1104 1.13597 8.49575 20.7679
427 1 -1.1104 1.18366 5.68171 20.6313
571 2 2.2208 2.5326 -4.36197 24.9939
419 1 -1.1104 6.80524 8.33339 15.1246
713 2 2.2208 13.7265 9.67078 16.4439
715 2 2.2208 13.5943 12.4863 19.1917
430 1 -1.1104 6.65435 5.71702 15.1122
432 1 -1.1104 6.87995 11.1395 15.0561
416 1 -1.1104 6.69692 8.33251 17.9697
424 1 -1.1104 6.62916 11.0355 17.9498
449 2 2.2208 10.9876 6.877 16.5086
450 2 2.2208 10.9451 12.552 16.5813
451 1 -1.1104 12.342 8.46143 17.8997
452 1 -1.1104 12.3989 8.18264 15.1374
454 1 -1.1104 12.4241 5.57489 17.9601
455 1 -1.1104 12.3865 11.203 17.8113
456 2 2.2208 10.8731 9.79255 19.2751
457 1 -1.1104 12.3292 5.30444 15.2238
459 1 -1.1104 12.217 11.1383 15.2356
461 1 -1.1104 9.59374 8.34935 17.9206
462 2 2.2208 8.09427 6.97455 19.3283
463 2 2.2208 8.09567 12.5811 19.4309
464 1 -1.1104 9.60433 8.38372 15.2119
466 2 2.2208 8.20155 9.62188 16.5142
467 1 -1.1104 9.47019 5.46639 17.9195
468 1 -1.1104 9.49661 11.1124 17.8678
469 1 -1.1104 9.49831 5.54661 15.1905
471 1 -1.1104 9.57913 11.2011 14.9405
431 1 -1.1104 6.72531 5.50731 20.805
476 2 2.2208 5.45861 18.0258 16.6091
477 1 -1.1104 1.27321 14.056 17.9607
478 1 -1.1104 1.32001 19.5559 17.9888
481 1 -1.1104 1.07154 14.0743 15.2001
483 1 -1.1104 1.06424 19.5826 15.0497
489 1 -1.1104 1.10124 16.9021 17.8451
491 2 2.2208 5.39265 15.2982 19.3154
492 2 2.2208 5.44777 20.9292 19.3582
493 1 -1.1104 1.05163 16.876 15.0411
497 1 -1.1104 4.00199 13.9296 17.8915
498 1 -1.1104 4.0854 19.5083 17.7858
499 2 2.2208 2.64682 18.2104 19.3892
500 1 -1.1104 3.73915 14.0459 14.9884
502 1 -1.1104 4.05466 19.6588 15.1062
504 2 2.2208 2.48921 15.5043 16.4598
505 2 2.2208 2.60788 20.9909 16.5569
506 1 -1.1104 3.94795 16.7355 18.0278
507 1 -1.1104 4.06938 16.7451 15.2433
490 1 -1.1104 6.80526 16.728 17.8622
484 1 -1.1104 1.41332 19.5539 20.7931
482 1 -1.1104 1.18923 14.0912 20.6773
479 1 -1.1104 6.67918 13.9212 17.9881
487 1 -1.1104 6.85651 19.4689 15.2521
722 2 2.2208 -0.308308 15.3205 19.3119
721 2 2.2208 -0.211866 20.9639 19.4008
501 1 -1.1104 4.0105 13.9331 20.7237
508 1 -1.1104 3.96815 16.9037 20.8143
494 1 -1.1104 1.16723 16.8079 20.7006
486 1 -1.1104 6.7216 13.8154 20.8011
714 2 2.2208 13.6027 6.98079 19.3464
703 1 -1.1104 12.5123 16.6571 23.4503
480 1 -1.1104 6.73329 19.4476 18.0335
485 1 -1.1104 6.8022 13.9809 15.1383
495 1 -1.1104 6.82592 16.7504 15.0117
512 2 2.2208 11.0044 18.1243 16.5871
513 1 -1.1104 12.1835 14.0224 17.8667
514 1 -1.1104 12.537 19.5999 17.9786
515 1 -1.1104 12.3654 13.992 14.9927
517 1 -1.1104 12.4902 19.6246 15.1536
519 1 -1.1104 12.2191 16.6897 17.7541
520 2 2.2208 10.8923 15.4691 19.3615
521 2 2.2208 11.0245 20.8512 19.4189
522 1 -1.1104 12.3847 16.6575 15.1096
524 1 -1.1104 9.45341 14.0153 18.0229
525 1 -1.1104 9.68765 19.4544 17.9723
526 2 2.2208 8.2907 18.1551 19.4726
527 1 -1.1104 9.57437 13.9467 15.1984
529 1 -1.1104 9.69257 19.57 15.2668
531 2 2.2208 8.17198 15.2757 16.5561
532 2 2.2208 8.09311 20.7997 16.6152
533 1 -1.1104 9.50757 16.6731 17.8488
534 1 -1.1104 9.61365 16.7415 15.0784
488 1 -1.1104 6.90692 19.5416 20.8757
518 1 -1.1104 12.4171 19.5868 20.7578
538 2 2.2208 8.30623 18.1096 13.6264
407 2 2.2208 -0.284146 20.9973 13.6215
369 1 -1.1104 3.89518 -0.122284 20.7517
362 1 -1.1104 3.79889 -3.07866 20.733
345 1 -1.1104 1.11066 2.70557 20.6661
343 1 -1.1104 1.09875 -2.96232 20.839
355 1 -1.1104 1.07785 -0.0663596 20.6579
364 1 -1.1104 3.78122 2.68215 20.6745
573 2 2.2208 -0.297413 -1.59637 24.8643
540 2 2.2208 5.33945 1.36532 22.0871
541 1 -1.1104 1.05913 -2.94642 23.6349
542 1 -1.1104 0.956546 2.70968 23.4309
545 1 -1.1104 1.06391 -2.87956 26.2927
546 1 -1.1104 0.987403 2.73656 26.2374
549 1 -1.1104 1.05442 -0.0164993 23.5026
551 2 2.2208 5.22764 -1.38435 25.0205
552 2 2.2208 5.18983 4.20213 24.8343
553 1 -1.1104 1.1603 -0.127755 26.2835
555 1 -1.1104 3.83491 -2.81032 23.4878
556 1 -1.1104 3.9079 2.66522 23.4029
557 2 2.2208 2.42636 1.23977 24.8791
558 1 -1.1104 4.09637 -2.93506 26.2746
559 1 -1.1104 3.78098 2.6256 26.3098
560 2 2.2208 2.48438 -1.56973 22.1361
561 2 2.2208 2.40476 4.06441 22.0932
562 1 -1.1104 3.79089 -0.0187552 23.5307
563 1 -1.1104 3.96025 -0.0993661 26.3378
10136 2 2.2208 -0.307159 -4.23066 16.5572
9815 2 2.2208 13.6178 1.33883 13.5911
357 1 -1.1104 6.64583 -0.0354296 20.6095
396 1 -1.1104 9.26711 -2.90218 20.7581
391 1 -1.1104 12.2219 -0.174237 20.7383
349 1 -1.1104 6.59458 2.86689 20.6192
550 1 -1.1104 6.66783 -0.108304 23.5715
544 1 -1.1104 6.7361 2.69038 23.4644
386 1 -1.1104 12.2445 2.65341 20.6537
708 2 2.2208 11.0935 18.05 22.2019
543 1 -1.1104 6.75564 -2.80176 23.5667
554 1 -1.1104 6.58334 -0.178223 26.2848
547 1 -1.1104 6.82356 -2.94663 26.3939
548 1 -1.1104 6.55069 2.64387 26.2481
576 2 2.2208 10.7728 1.36911 22.0642
577 1 -1.1104 12.2784 -2.87073 23.7151
578 1 -1.1104 12.3099 2.87008 23.5195
579 1 -1.1104 12.2226 -2.78969 26.4294
580 1 -1.1104 12.2679 2.69205 26.3383
581 1 -1.1104 12.2272 -0.0524422 23.4986
582 2 2.2208 10.8102 -1.34728 25.0232
583 2 2.2208 10.8668 4.21204 24.8214
584 1 -1.1104 12.1997 -0.0345121 26.315
585 1 -1.1104 9.56378 -2.74773 23.5131
586 1 -1.1104 9.37076 2.94554 23.5447
587 2 2.2208 8.11706 1.36654 24.934
588 1 -1.1104 9.5074 -2.97981 26.4024
589 1 -1.1104 9.47479 2.81629 26.3153
590 2 2.2208 8.13267 -1.50069 22.1811
591 2 2.2208 8.03544 4.18607 22.0812
592 1 -1.1104 9.41117 -0.0230211 23.567
593 1 -1.1104 9.36657 -0.115585 26.3917
718 2 2.2208 13.6454 15.2671 16.5096
411 2 2.2208 -0.345823 18.2047 16.4783
443 1 -1.1104 3.78771 5.65215 20.476
690 1 -1.1104 9.72172 16.8949 26.3113
429 1 -1.1104 1.04872 11.2864 20.8112
605 2 2.2208 5.12253 7.05096 22.01
606 2 2.2208 5.27633 12.6821 22.2067
607 1 -1.1104 1.00408 8.31646 23.521
609 1 -1.1104 0.995541 8.31574 26.3462
611 1 -1.1104 1.15227 5.47137 23.5992
612 1 -1.1104 0.969554 11.0712 23.4968
615 2 2.2208 5.36886 9.62717 24.9129
616 1 -1.1104 1.03504 5.58549 26.2908
617 1 -1.1104 1.07613 10.9209 26.3338
620 1 -1.1104 3.8297 8.3917 23.4853
621 2 2.2208 2.43662 7.05442 24.8946
622 2 2.2208 2.44775 12.5061 24.8989
623 1 -1.1104 3.70483 8.36181 26.4442
624 2 2.2208 2.55817 9.84024 22.0792
625 1 -1.1104 3.78955 5.595 23.435
626 1 -1.1104 3.83514 11.2085 23.5729
627 1 -1.1104 3.78436 5.55384 26.2301
628 1 -1.1104 3.97367 11.0679 26.3437
619 1 -1.1104 6.91345 11.1119 26.3943
698 1 -1.1104 9.60272 19.3294 23.6202
614 1 -1.1104 6.58546 10.9977 23.523
710 2 2.2208 13.663 1.26176 19.4075
9853 2 2.2208 13.6112 -1.41333 16.3733
470 1 -1.1104 9.55737 5.56239 20.6046
433 1 -1.1104 6.79727 11.2407 20.877
420 1 -1.1104 6.64822 8.34602 20.751
465 1 -1.1104 9.42941 8.44103 20.6513
458 1 -1.1104 12.2502 5.64672 20.6664
460 1 -1.1104 12.2829 11.1193 20.6122
608 1 -1.1104 6.59477 8.3141 23.4396
613 1 -1.1104 6.6278 5.6604 23.413
610 1 -1.1104 6.60655 8.27846 26.2528
453 1 -1.1104 12.2018 8.40033 20.6289
472 1 -1.1104 9.44462 11.0587 20.5931
618 1 -1.1104 6.61235 5.44295 26.1438
636 1 -1.1104 9.54172 11.1069 26.3796
637 1 -1.1104 9.53112 5.65429 26.2995
638 1 -1.1104 9.42034 11.1293 23.4642
639 1 -1.1104 9.46253 5.4603 23.3488
640 2 2.2208 7.99639 9.64168 22.0927
641 1 -1.1104 9.46265 8.2885 26.206
642 2 2.2208 8.14672 12.4467 24.9082
643 2 2.2208 7.98023 6.89786 24.8452
644 2 2.2208 10.8805 7.02899 22.0703
645 2 2.2208 10.932 12.537 22.0518
646 1 -1.1104 12.2453 8.47806 23.3662
647 1 -1.1104 12.3906 8.46938 26.3312
648 1 -1.1104 12.3484 5.63469 23.5787
649 1 -1.1104 12.3368 11.0979 23.3646
650 2 2.2208 10.8952 9.76311 24.8872
651 1 -1.1104 12.3312 5.54027 26.2627
652 1 -1.1104 12.2452 11.2656 26.1615
653 1 -1.1104 9.40161 8.31686 23.4666
655 2 2.2208 8.11285 9.71532 27.7653
693 2 2.2208 8.12741 15.2066 22.122
503 1 -1.1104 4.09102 19.6979 20.8378
682 2 2.2208 2.48737 15.2469 22.1188
681 2 2.2208 2.67441 20.9564 22.2088
680 1 -1.1104 4.07195 16.6264 23.5127
679 1 -1.1104 1.11909 16.5727 23.4097
677 1 -1.1104 3.97488 13.9546 26.3153
676 1 -1.1104 4.02269 16.7269 26.2551
675 2 2.2208 2.6309 17.9469 24.9579
668 2 2.2208 5.39091 21.1278 24.9702
674 1 -1.1104 3.97787 19.4651 26.3729
673 2 2.2208 5.39165 18.1386 22.208
672 1 -1.1104 1.20217 13.8801 23.6942
666 1 -1.1104 1.2092 13.9159 26.337
665 1 -1.1104 1.17934 16.7009 26.415
671 1 -1.1104 1.2938 19.3356 23.5147
664 1 -1.1104 1.17727 19.4118 26.1801
669 2 2.2208 5.41689 15.3904 24.9682
660 1 -1.1104 3.94683 19.4948 23.645
662 1 -1.1104 3.93492 13.9005 23.62
689 2 2.2208 -0.194712 18.1583 22.1689
661 1 -1.1104 6.84134 14.0155 26.3442
678 1 -1.1104 6.90227 16.7324 23.6106
706 1 -1.1104 12.5548 19.4453 23.4608
704 1 -1.1104 12.4244 19.4908 26.2819
670 1 -1.1104 6.68075 13.8972 23.6058
667 1 -1.1104 6.83244 19.5538 23.6834
496 1 -1.1104 6.76621 16.7482 20.8707
528 1 -1.1104 9.46058 13.9661 20.7732
699 1 -1.1104 9.50508 13.9079 23.5409
523 1 -1.1104 12.3346 16.8307 20.5436
701 2 2.2208 10.9552 20.826 24.9591
707 1 -1.1104 12.4546 13.8561 23.6123
702 2 2.2208 10.9793 15.3365 24.9153
694 1 -1.1104 9.63106 19.7098 26.4282
697 2 2.2208 8.22421 18.1814 25.1294
696 1 -1.1104 6.90937 19.6286 26.3596
700 1 -1.1104 12.3933 16.8077 26.3779
663 1 -1.1104 6.88403 16.8415 26.2604
574 2 2.2208 11.1242 18.1598 27.7286
691 1 -1.1104 9.58805 16.6974 23.5316
705 1 -1.1104 12.3201 14.1269 26.4052
630 2 2.2208 2.4106 9.76761 27.7193
632 2 2.2208 -0.24774 12.5654 27.8106
629 2 2.2208 5.17636 7.02595 27.7564
656 2 2.2208 10.8429 12.6473 27.6066
685 2 2.2208 2.53423 15.2814 27.7398
683 2 2.2208 2.59044 20.9337 27.5548
409 2 2.2208 -0.238739 15.4599 13.677
378 2 2.2208 2.56262 1.46972 13.6622
716 2 2.2208 13.6876 12.5332 13.6281
412 2 2.2208 10.9662 4.05072 13.8033
446 2 2.2208 2.43529 7.071 13.6523
536 2 2.2208 10.8446 20.936 13.7448
509 2 2.2208 2.66622 18.2224 13.7831
510 2 2.2208 5.47424 20.8868 13.7605
723 2 2.2208 5.24809 23.7457 5.22922
724 2 2.2208 5.30144 29.2733 5.36419
725 1 -1.1104 1.22334 25.1816 1.08954
726 1 -1.1104 1.14306 25.0986 3.88487
727 1 -1.1104 1.08841 22.3126 1.03483
728 1 -1.1104 1.0535 28.0513 1.03525
729 2 2.2208 5.32491 26.3689 2.53594
730 1 -1.1104 1.18021 22.2669 3.93806
731 1 -1.1104 1.06962 27.8388 3.84609
732 1 -1.1104 3.93295 25.1762 0.948288
733 2 2.2208 2.53852 23.6269 2.38402
734 2 2.2208 2.49908 29.2922 2.47824
735 1 -1.1104 3.95129 25.0255 3.94194
736 2 2.2208 2.55002 26.5541 5.28184
737 1 -1.1104 4.02148 22.3913 0.954237
738 1 -1.1104 3.89649 27.9803 1.07798
739 1 -1.1104 3.81652 22.1792 3.83408
740 1 -1.1104 3.79595 27.8562 3.86102
743 2 2.2208 -0.315238 26.4433 2.60824
749 1 -1.1104 6.55857 27.9382 3.81432
1689 1 -1.1104 9.46976 47.751 12.3666
872 1 -1.1104 3.91418 27.9738 6.74572
867 1 -1.1104 1.19952 28.001 6.62054
870 1 -1.1104 3.94286 25.0143 6.66541
1679 1 -1.1104 12.1273 47.5492 12.2468
742 2 2.2208 -0.269654 23.6701 5.2341
744 1 -1.1104 6.79938 25.0882 1.22954
748 1 -1.1104 6.72899 22.3708 3.86665
747 1 -1.1104 6.59703 27.8762 1.05413
746 1 -1.1104 6.90527 22.4793 1.01066
745 1 -1.1104 6.73282 25.1465 4.0118
750 2 2.2208 11.0469 23.6526 5.34127
751 2 2.2208 10.8848 29.2635 5.39123
752 1 -1.1104 12.4205 25.0295 1.054
753 1 -1.1104 12.4319 25.1325 3.74301
754 1 -1.1104 12.3059 22.3217 1.0186
755 1 -1.1104 12.3327 27.941 1.27449
756 2 2.2208 10.9927 26.553 2.56564
757 1 -1.1104 12.3819 22.356 3.99651
758 1 -1.1104 12.3076 27.9592 4.00912
759 1 -1.1104 9.63874 25.1644 1.14709
760 2 2.2208 8.35218 23.7887 2.53661
761 2 2.2208 8.02734 29.3423 2.45384
762 1 -1.1104 9.63947 25.1891 4.01231
763 2 2.2208 8.14216 26.5035 5.34349
764 1 -1.1104 9.6297 22.4335 1.19383
765 1 -1.1104 9.63406 27.9384 1.12021
766 1 -1.1104 9.56218 22.3868 3.96639
767 1 -1.1104 9.53572 27.9349 3.83514
1299 2 2.2208 8.16506 26.5015 -0.350033
1304 2 2.2208 10.8916 29.3859 -0.310018
899 1 -1.1104 12.3649 27.9279 6.73753
897 1 -1.1104 12.2796 25.1543 6.72504
902 1 -1.1104 9.47364 27.8873 6.68275
898 1 -1.1104 12.5215 22.2899 6.80065
1248 2 2.2208 10.8324 43.4581 13.7435
771 2 2.2208 5.30154 34.9135 5.36734
772 1 -1.1104 1.09736 30.9824 1.00989
773 1 -1.1104 1.14864 36.2018 0.998683
775 1 -1.1104 1.11981 30.6295 3.77295
776 1 -1.1104 1.14614 36.3382 3.72057
778 1 -1.1104 1.13043 33.5194 1.08712
779 2 2.2208 5.21061 32.1316 2.54021
780 2 2.2208 5.29837 37.8217 2.46536
781 1 -1.1104 1.02771 33.615 3.91615
783 1 -1.1104 3.9762 30.7216 1.05627
784 1 -1.1104 3.92181 36.3475 1.30118
785 2 2.2208 2.44902 34.8829 2.49961
786 1 -1.1104 3.87529 30.8181 3.9098
787 1 -1.1104 3.92497 36.3678 3.99875
788 2 2.2208 2.40596 32.1285 5.34429
789 2 2.2208 2.55124 37.7094 5.26668
790 1 -1.1104 4.00796 33.5106 1.14222
791 1 -1.1104 3.83612 33.4478 4.08608
793 2 2.2208 -0.327692 32.1408 2.41047
794 2 2.2208 -0.34684 34.8318 5.36562
777 1 -1.1104 6.62547 36.2705 3.91472
782 1 -1.1104 6.65613 33.442 4.01321
1672 1 -1.1104 12.3341 47.6989 6.60615
929 1 -1.1104 3.84805 33.5606 6.80624
797 1 -1.1104 6.79984 33.5691 1.17359
792 2 2.2208 -0.293746 37.6653 2.5411
921 1 -1.1104 1.06956 30.7358 6.78033
774 1 -1.1104 6.75738 36.3909 1.09844
795 1 -1.1104 6.72389 30.7502 1.08426
796 1 -1.1104 6.46704 30.7557 3.89764
798 2 2.2208 10.9171 34.8653 5.33893
799 1 -1.1104 12.238 30.8909 1.13066
800 1 -1.1104 12.2197 36.4007 1.11505
801 1 -1.1104 12.3233 30.8114 3.9556
802 1 -1.1104 12.4791 36.5095 3.90219
803 1 -1.1104 12.3478 33.6674 0.960929
804 2 2.2208 10.9139 32.2297 2.5876
805 2 2.2208 10.8993 37.7257 2.53647
806 1 -1.1104 12.3131 33.6139 3.90688
807 1 -1.1104 9.48152 30.6758 1.04186
808 1 -1.1104 9.51071 36.3433 1.11621
809 2 2.2208 8.03685 34.9685 2.5794
810 1 -1.1104 9.38392 30.6961 3.95337
811 1 -1.1104 9.57262 36.3753 3.8167
812 2 2.2208 7.99151 32.0891 5.2753
813 2 2.2208 8.05439 37.6722 5.28458
814 1 -1.1104 9.47528 33.4843 1.1577
815 1 -1.1104 9.52077 33.6522 3.93539
959 1 -1.1104 9.60883 36.2408 6.55873
958 1 -1.1104 9.50476 30.7376 6.72057
956 1 -1.1104 12.4393 36.361 6.69857
1646 1 -1.1104 6.63735 47.4885 12.2289