ITEM: TIMESTEP
10000
ITEM: NUMBER OF ATOMS
17910
ITEM: BOX BOUNDS pp pp pp
-3.6402191012825064e-01 2.7704021910128152e+01
-4.2299906902457947e+00 3.3230999069024409e+02
-3.5383132122923200e-01 2.7693831321229382e+01
ITEM: ATOMS id type q x y z
1 2 2.2208 5.13733 1.40591 5.08537
2 1 -1.1104 0.960588 -2.8735 0.85802
3 1 -1.1104 0.928259 2.82503 0.975923
6 1 -1.1104 0.948869 -2.65019 3.68365
7 1 -1.1104 0.800853 2.85487 3.76417
10 1 -1.1104 0.934115 0.0329575 0.879356
12 2 2.2208 5.13932 -1.45255 2.33674
13 2 2.2208 5.13548 4.23281 2.28128
14 1 -1.1104 0.745222 0.0848823 3.70695
16 1 -1.1104 3.72582 -2.89979 0.882887
17 1 -1.1104 3.75969 2.75728 0.956505
18 2 2.2208 2.40721 1.4586 2.27395
19 1 -1.1104 3.69653 -2.75548 3.6932
20 1 -1.1104 3.68347 2.93128 3.76626
21 2 2.2208 2.34485 -1.42668 5.11503
22 2 2.2208 2.28695 4.34051 5.02914
23 1 -1.1104 3.74466 -0.0449121 0.850351
24 1 -1.1104 3.76747 0.0251582 3.69042
4 1 -1.1104 6.48615 -2.70735 0.841728
11 1 -1.1104 6.62247 0.0531891 0.992339
173 1 -1.1104 3.89179 2.7465 6.52427
169 1 -1.1104 6.58331 2.90701 6.45954
9 1 -1.1104 6.60698 2.84558 3.69608
15 1 -1.1104 6.5697 0.0900567 3.74185
5 1 -1.1104 6.6339 2.84526 1.07001
171 1 -1.1104 6.44203 0.121462 6.50706
28 2 2.2208 2.30402 -4.28793 2.38759
174 1 -1.1104 3.73626 -0.092754 6.47724
172 1 -1.1104 3.70647 -2.84754 6.40462
170 1 -1.1104 0.839027 0.0844884 6.40446
8 1 -1.1104 6.5064 -2.91302 3.6052
53 2 2.2208 13.6659 -4.32351 2.21245
31 2 2.2208 10.6832 1.29466 5.20972
32 1 -1.1104 12.2417 -2.78917 0.882229
33 1 -1.1104 12.2569 2.92145 1.04324
34 1 -1.1104 12.1938 -2.68236 3.5561
35 1 -1.1104 12.1667 2.7173 3.81484
36 1 -1.1104 12.1283 0.106353 0.855804
37 2 2.2208 10.7846 -1.31366 2.27618
38 2 2.2208 10.6185 4.18869 2.29294
39 1 -1.1104 12.2684 0.0782439 3.67835
40 1 -1.1104 9.42475 -2.64117 0.802716
41 1 -1.1104 9.40753 2.91194 0.843624
42 2 2.2208 8.0761 1.45068 2.28563
43 1 -1.1104 9.48744 -2.84522 3.5015
44 1 -1.1104 9.4988 2.80217 3.74089
45 2 2.2208 7.97487 -1.40231 5.09511
46 2 2.2208 8.00135 4.21004 5.13096
47 1 -1.1104 9.41129 0.104649 0.900969
48 1 -1.1104 9.36999 0.0277573 3.80481
50 2 2.2208 13.535 -1.35439 5.02702
49 2 2.2208 13.5315 1.48719 2.22644
206 1 -1.1104 11.9724 2.70667 6.50373
209 1 -1.1104 9.30446 2.59391 6.40391
9479 2 2.2208 13.3699 4.18887 5.23486
231 2 2.2208 7.97516 -4.15873 7.90044
334 2 2.2208 7.87813 -4.20412 13.3407
54 2 2.2208 5.04549 6.98948 5.05944
55 2 2.2208 5.04069 12.6752 5.1929
56 1 -1.1104 0.820173 8.45494 0.972218
58 1 -1.1104 0.689998 8.35647 3.697
60 1 -1.1104 0.790139 5.62992 0.891445
61 1 -1.1104 0.83696 11.1771 1.08986
66 2 2.2208 4.97407 9.8861 2.32375
67 1 -1.1104 0.860355 5.63416 3.77608
68 1 -1.1104 0.940861 11.0716 3.82133
71 1 -1.1104 3.78529 8.39382 1.04261
72 2 2.2208 2.10683 7.00352 2.28178
73 2 2.2208 2.20526 12.6771 2.40308
74 1 -1.1104 3.67807 8.46258 3.74387
75 2 2.2208 2.35327 9.78697 5.23468
76 1 -1.1104 3.54188 5.64364 0.89759
77 1 -1.1104 3.50663 11.3241 0.938603
79 1 -1.1104 3.70447 5.72413 3.68158
80 1 -1.1104 3.68666 11.3884 3.77505
57 1 -1.1104 6.35921 8.53225 0.790774
64 1 -1.1104 6.19652 11.4763 0.899817
69 1 -1.1104 6.40399 5.66193 3.58848
59 1 -1.1104 6.41082 8.47802 3.61981
63 1 -1.1104 6.39618 5.73209 0.900203
78 1 -1.1104 3.65228 11.2499 6.59547
62 1 -1.1104 0.701477 11.3038 6.61617
70 1 -1.1104 6.44563 11.2723 3.77346
238 1 -1.1104 3.69114 8.40722 6.50877
234 1 -1.1104 0.824369 8.57334 6.57673
235 1 -1.1104 6.37175 8.50602 6.42149
52 2 2.2208 10.848 -4.14608 4.95655
326 2 2.2208 13.4858 9.81055 5.11612
105 2 2.2208 13.5111 7.03055 2.3591
84 2 2.2208 10.7899 7.01617 5.20338
85 2 2.2208 10.689 12.6678 5.21143
86 1 -1.1104 12.0637 8.43921 0.983664
87 1 -1.1104 12.0301 8.33901 3.57748
88 1 -1.1104 12.0667 5.61603 0.910565
89 1 -1.1104 12.0565 11.1901 0.934223
91 2 2.2208 10.6287 9.8389 2.29574
92 1 -1.1104 11.9476 5.59622 3.73719
93 1 -1.1104 12.152 11.1987 3.78486
94 1 -1.1104 9.21383 8.5994 0.880067
95 2 2.2208 7.76677 7.0676 2.36276
96 2 2.2208 7.83759 12.8362 2.50263
97 1 -1.1104 9.26611 8.46822 3.72137
98 2 2.2208 7.82947 9.84536 5.04255
99 1 -1.1104 9.20531 5.71684 0.887802
100 1 -1.1104 9.14426 11.3444 0.924279
102 1 -1.1104 9.19436 5.63337 3.69186
103 1 -1.1104 9.28742 11.2432 3.66003
104 2 2.2208 13.4547 12.5412 2.3458
101 1 -1.1104 9.26296 11.2056 6.48558
269 1 -1.1104 9.32818 5.50806 6.36422
265 1 -1.1104 12.3268 8.34103 6.46498
106 2 2.2208 5.07089 18.1397 5.35885
107 1 -1.1104 0.77837 14.1044 1.01798
109 1 -1.1104 0.781833 19.6325 1.17315
113 1 -1.1104 0.692994 13.8923 3.75188
114 1 -1.1104 0.9173 19.7443 3.96814
116 1 -1.1104 0.843092 16.8405 0.984272
119 2 2.2208 5.0345 15.5255 2.54247
120 2 2.2208 5.15749 20.9804 2.42746
121 1 -1.1104 0.67991 16.8001 3.85809
123 1 -1.1104 3.74709 14.0534 1.04916
125 1 -1.1104 3.63592 19.7487 1.01463
127 2 2.2208 2.20213 18.3322 2.44714
128 1 -1.1104 3.75553 14.1236 3.94066
129 1 -1.1104 3.75512 19.613 3.84534
130 2 2.2208 2.12003 15.5344 5.30369
131 2 2.2208 2.32161 20.9997 5.39588
132 1 -1.1104 3.74492 16.956 1.0953
134 1 -1.1104 3.59147 16.8465 3.87869
302 1 -1.1104 0.736942 19.5793 6.7911
115 1 -1.1104 6.58665 14.1313 3.82656
111 1 -1.1104 6.42616 14.1041 6.51643
139 1 -1.1104 6.54854 19.8222 3.76809
138 1 -1.1104 6.45048 19.6533 0.924824
232 2 2.2208 10.7806 -4.18115 10.6505
51 2 2.2208 8.02751 -4.17129 2.23279
133 1 -1.1104 3.60163 16.6855 6.51284
108 1 -1.1104 0.940365 14.0805 6.58514
165 2 2.2208 13.2408 18.1974 2.37916
122 1 -1.1104 6.30536 16.9603 3.83705
140 1 -1.1104 6.41768 16.8575 0.987673
110 1 -1.1104 6.55258 14.257 0.911087
141 2 2.2208 10.6306 18.2348 5.21499
142 1 -1.1104 12.1067 14.1333 1.18028
144 1 -1.1104 12.0572 19.7264 0.973357
146 1 -1.1104 12.0963 14.1202 3.93136
147 1 -1.1104 12.1191 19.6962 3.75496
148 1 -1.1104 12.0024 16.9165 0.993129
150 2 2.2208 10.6113 15.4946 2.51642
151 2 2.2208 10.6423 21.1457 2.40902
152 1 -1.1104 11.9992 16.7666 3.81933
153 1 -1.1104 9.18989 14.1859 1.11358
155 1 -1.1104 9.18185 19.6861 1.00068
157 2 2.2208 7.88648 18.3956 2.409
158 1 -1.1104 9.26185 14.0522 3.93874
159 1 -1.1104 9.35592 19.6599 3.74932
160 2 2.2208 7.89727 15.5001 5.19495
161 2 2.2208 7.97299 21.1114 5.21643
162 1 -1.1104 9.18565 16.9537 1.09669
164 1 -1.1104 9.09645 16.9644 3.84845
328 2 2.2208 13.3826 15.4397 5.18227
154 1 -1.1104 9.32497 13.9172 6.70759
156 1 -1.1104 9.18831 19.5943 6.47404
112 1 -1.1104 6.48078 19.6781 6.60441
149 1 -1.1104 12.1075 16.8976 6.74758
203 2 2.2208 5.07354 -4.20509 10.6103
168 1 -1.1104 6.55484 -2.95114 6.46314
202 2 2.2208 2.28827 -4.15641 7.83003
167 1 -1.1104 1.03097 2.71676 6.44222
166 1 -1.1104 0.795164 -3.01427 6.49287
175 2 2.2208 5.23262 1.56132 10.8231
176 1 -1.1104 0.923921 -2.86203 11.9511
177 1 -1.1104 0.880337 2.71466 12.1667
180 1 -1.1104 0.758256 -2.76562 9.24559
181 1 -1.1104 0.944624 2.76946 9.30693
184 1 -1.1104 0.853489 -0.15631 11.9891
186 2 2.2208 5.21385 -1.33155 7.87622
187 2 2.2208 5.11562 4.25535 7.96096
188 1 -1.1104 1.11339 -0.0454295 9.21518
190 1 -1.1104 3.74083 -2.79023 12.067
191 1 -1.1104 3.75623 2.91301 12.2035
192 2 2.2208 2.33058 1.39734 7.7808
193 1 -1.1104 3.70009 -2.62629 9.23077
194 1 -1.1104 3.7263 2.84975 9.4048
195 2 2.2208 2.33472 -1.36162 10.6012
196 2 2.2208 2.25664 4.25704 10.6816
197 1 -1.1104 3.6535 -0.0199359 12.177
198 1 -1.1104 3.69888 0.0459599 9.32398
179 1 -1.1104 6.5258 2.98462 12.374
178 1 -1.1104 6.52422 -2.76729 11.972
189 1 -1.1104 6.54203 -0.0621007 9.31353
182 1 -1.1104 6.65428 -2.79035 9.26327
183 1 -1.1104 6.51303 2.8368 9.48143
185 1 -1.1104 6.60271 0.126913 12.1571
332 2 2.2208 2.34635 -4.27812 13.4116
210 1 -1.1104 9.28176 -0.110173 6.46115
208 1 -1.1104 9.32461 -2.84052 6.42016
331 2 2.2208 13.4646 21.0728 10.8744
336 2 2.2208 10.7726 -1.3287 13.4141
412 2 2.2208 10.7057 4.24721 13.4781
9614 2 2.2208 13.5879 4.33986 10.7232
9815 2 2.2208 13.3863 1.45275 13.6616
9779 2 2.2208 13.556 -1.29477 10.8267
205 1 -1.1104 12.071 -2.83523 6.38897
9778 2 2.2208 13.4752 1.35152 7.96244
207 1 -1.1104 12.123 -0.11398 6.55653
211 2 2.2208 10.6783 1.45312 10.7426
212 1 -1.1104 12.1662 -2.71481 12.1808
213 1 -1.1104 11.9258 2.87089 12.1603
214 1 -1.1104 12.1276 -2.80739 9.2629
215 1 -1.1104 12.1372 2.78231 9.37206
216 1 -1.1104 12.2385 0.0929723 12.0631
217 2 2.2208 10.7627 -1.40614 8.04534
218 2 2.2208 10.6409 4.23024 7.94733
219 1 -1.1104 12.0633 -0.0586929 9.32371
220 1 -1.1104 9.33843 -2.73894 12.1403
221 1 -1.1104 9.29095 2.82379 11.9799
222 2 2.2208 7.94849 1.49256 7.95965
223 1 -1.1104 9.27187 -2.73718 9.3319
224 1 -1.1104 9.23205 2.82985 9.37655
225 2 2.2208 7.99729 -1.42256 10.6927
227 1 -1.1104 9.29846 0.00752719 12.1657
228 1 -1.1104 9.28533 0.0650955 9.15788
226 2 2.2208 7.90069 4.32717 10.7584
410 2 2.2208 7.75051 1.4766 13.7092
239 1 -1.1104 3.56019 5.68784 6.55821
65 1 -1.1104 6.48426 11.1691 6.52752
236 1 -1.1104 0.782377 5.71616 6.544
240 2 2.2208 4.97675 7.04381 10.734
241 2 2.2208 5.05182 12.5335 10.8383
242 1 -1.1104 0.802183 8.34704 12.1416
244 1 -1.1104 0.768763 8.59419 9.3133
246 1 -1.1104 0.907532 5.56295 12.2545
247 1 -1.1104 0.839213 11.1773 12.2301
250 2 2.2208 4.9523 9.97455 7.98467
251 1 -1.1104 0.881445 5.69717 9.38668
252 1 -1.1104 0.755101 11.2972 9.32455
255 1 -1.1104 3.54971 8.48634 12.1097
256 2 2.2208 2.15028 7.18673 7.88022
257 2 2.2208 2.2088 12.6881 8.0179
258 1 -1.1104 3.52062 8.45651 9.33387
259 2 2.2208 2.20458 9.85697 10.8069
260 1 -1.1104 3.67805 5.75262 12.1197
261 1 -1.1104 3.68037 11.2121 12.1818
262 1 -1.1104 3.79178 5.61017 9.24774
263 1 -1.1104 3.64981 11.2422 9.40269
249 1 -1.1104 6.47567 11.2543 12.3429
245 1 -1.1104 6.34107 8.39811 9.3174
248 1 -1.1104 6.48046 5.65933 12.1899
254 1 -1.1104 6.468 11.2626 9.3406
237 1 -1.1104 6.39843 5.64243 6.54355
253 1 -1.1104 6.62515 5.5117 9.208
243 1 -1.1104 6.32072 8.43692 12.0802
446 2 2.2208 2.19141 7.18101 13.566
267 1 -1.1104 9.42593 8.29712 6.54015
266 1 -1.1104 12.1311 5.55238 6.60636
329 2 2.2208 13.5284 12.7114 8.02744
90 1 -1.1104 12.1207 11.2804 6.6134
9690 2 2.2208 13.4902 6.96844 7.88666
330 2 2.2208 13.3968 9.837 10.7548
264 1 -1.1104 9.15362 11.338 9.4353
268 1 -1.1104 9.2685 5.54587 9.21165
270 1 -1.1104 9.35018 11.2404 12.2913
271 1 -1.1104 9.28857 5.70069 12.0999
272 2 2.2208 7.8521 9.81865 10.7783
273 1 -1.1104 9.18113 8.42053 9.29827
274 2 2.2208 7.84994 12.6587 8.03747
275 2 2.2208 7.79729 7.19296 7.90281
276 2 2.2208 10.6736 7.0456 10.8129
277 2 2.2208 10.5388 12.6379 10.9419
278 1 -1.1104 12.0442 8.34445 12.1471
279 1 -1.1104 11.9318 8.48963 9.30519
280 1 -1.1104 12.0533 5.73286 12.0445
281 1 -1.1104 12.1842 11.167 12.3288
282 2 2.2208 10.6089 9.87848 7.89494
283 1 -1.1104 12.0937 5.59696 9.323
284 1 -1.1104 11.9646 11.2252 9.30876
285 1 -1.1104 9.12564 8.42864 12.0735
716 2 2.2208 13.3592 12.6553 13.5967
473 2 2.2208 7.94152 7.08197 13.5574
539 2 2.2208 13.5105 18.2753 13.5891
9773 2 2.2208 13.4851 15.3706 10.9101
124 1 -1.1104 3.58102 13.9381 6.80215
117 1 -1.1104 0.845586 16.9002 6.53761
126 1 -1.1104 3.5491 19.4183 6.57219
118 1 -1.1104 6.47148 16.8533 6.59875
306 1 -1.1104 6.46328 16.8138 12.2005
288 1 -1.1104 6.51797 19.6527 9.37293
290 1 -1.1104 6.43222 14.1743 9.37113
289 1 -1.1104 6.49578 16.7591 9.51562
286 1 -1.1104 3.8202 19.7233 12.1565
287 1 -1.1104 3.5869 14.0548 12.2293
291 1 -1.1104 0.972223 19.5791 9.43603
292 1 -1.1104 0.7514 16.7413 9.32296
293 2 2.2208 5.11583 21.0871 7.99464
294 1 -1.1104 0.774363 14.0146 9.44116
295 2 2.2208 5.0105 15.4557 8.01172
298 1 -1.1104 0.945308 19.526 12.2562
299 1 -1.1104 0.837885 14.0718 11.983
300 2 2.2208 5.08654 18.2952 10.8065
301 1 -1.1104 3.71416 19.7418 9.39363
303 2 2.2208 2.14962 18.174 8.03649
304 1 -1.1104 3.56803 17.0477 9.41131
305 1 -1.1104 3.6894 13.9945 9.47945
307 1 -1.1104 0.853075 16.8042 12.1893
308 1 -1.1104 3.65571 16.9079 12.2309
309 2 2.2208 2.29682 21.0821 10.7269
310 2 2.2208 2.31007 15.3388 10.7726
297 1 -1.1104 6.36936 14.0165 12.2494
327 2 2.2208 13.4191 21.1564 5.16593
26 2 2.2208 13.4257 18.3112 7.97878
145 1 -1.1104 11.9455 19.6607 6.599
163 1 -1.1104 9.44741 16.7508 6.6977
322 1 -1.1104 8.98029 14.0376 12.3992
229 1 -1.1104 12.0512 19.6441 9.4032
320 2 2.2208 7.88829 18.1712 8.10477
537 2 2.2208 10.5853 15.3514 13.7267
230 1 -1.1104 12.1969 16.6861 12.369
318 1 -1.1104 9.2857 19.5379 9.38078
315 1 -1.1104 9.29874 16.7897 12.2055
314 1 -1.1104 9.24536 16.5986 9.41508
204 1 -1.1104 12.0935 14.0493 9.50564
321 1 -1.1104 9.39714 19.5931 12.3331
325 2 2.2208 10.7178 15.3424 7.9725
317 2 2.2208 7.85706 15.3764 10.865
319 1 -1.1104 9.29295 14.017 9.54573
316 2 2.2208 7.91871 21.1329 10.838
324 2 2.2208 10.6729 21.0942 8.19567
81 2 2.2208 10.707 18.1694 10.8254
296 1 -1.1104 6.58724 19.632 12.2447
143 1 -1.1104 12.2428 14.1757 6.83425
200 1 -1.1104 11.8098 14.0207 12.3698
201 1 -1.1104 12.11 19.7504 12.2407
323 1 -1.1104 12.0896 16.9125 9.43853
30 2 2.2208 -0.591398 -4.36044 5.13606
378 2 2.2208 2.25988 1.44451 13.5688
379 2 2.2208 5.04302 4.26829 13.5669
333 2 2.2208 5.12466 -1.30654 13.4088
447 2 2.2208 5.00093 9.77761 13.6805
475 2 2.2208 7.77717 12.6979 13.7848
335 2 2.2208 13.5416 -4.17976 13.5911
474 2 2.2208 10.7579 9.86202 13.6412
712 2 2.2208 13.4638 7.06526 13.7038
574 2 2.2208 10.6922 18.3063 -0.343631
375 2 2.2208 13.548 21.1219 -0.423898
575 2 2.2208 7.81512 21.1062 -0.441311
337 2 2.2208 5.08776 1.29844 16.4946
338 1 -1.1104 0.995631 -2.84664 17.7428
339 1 -1.1104 0.997458 2.72543 17.6964
342 1 -1.1104 0.9175 -2.77572 14.8455
344 1 -1.1104 0.826256 2.86392 15.0169
350 1 -1.1104 0.947323 0.0215882 17.7567
352 2 2.2208 5.12514 -1.44491 19.119
353 2 2.2208 5.08667 4.35441 19.1503
354 1 -1.1104 0.946333 -0.00675853 14.8491
358 1 -1.1104 3.76007 -2.81612 17.6495
359 1 -1.1104 3.69288 2.87442 17.7262
360 2 2.2208 2.35782 1.37994 19.1785
361 1 -1.1104 3.65928 -2.82569 14.9546
363 1 -1.1104 3.7098 2.7494 15.044
365 2 2.2208 2.27846 -1.41362 16.2686
366 2 2.2208 2.26062 4.15739 16.3093
367 1 -1.1104 3.7597 -0.0245925 17.7944
368 1 -1.1104 3.70099 0.00624904 14.9941
346 1 -1.1104 6.6174 -2.8267 14.6921
356 1 -1.1104 6.5555 -0.0256727 15.0692
348 1 -1.1104 6.39798 2.85358 15.2468
340 1 -1.1104 6.51787 -2.61729 17.6356
341 1 -1.1104 6.49137 2.72527 17.8521
369 1 -1.1104 3.67186 0.0512666 20.6096
345 1 -1.1104 0.915886 2.78485 20.5313
355 1 -1.1104 0.930929 0.06332 20.59
343 1 -1.1104 0.872148 -2.83257 20.5725
364 1 -1.1104 3.647 2.89485 20.6773
357 1 -1.1104 6.5323 0.0808183 20.6927
349 1 -1.1104 6.31929 2.87637 20.5694
10136 2 2.2208 -0.533048 -4.22704 16.3775
372 2 2.2208 2.30832 -4.15408 19.0531
570 2 2.2208 5.24152 -4.19538 21.9053
9856 2 2.2208 13.5714 -4.1478 19.1119
351 1 -1.1104 6.62888 0.0175159 17.9203
380 2 2.2208 10.628 1.51077 16.362
381 1 -1.1104 12.1433 -2.78445 17.7809
382 1 -1.1104 12.1577 2.81163 17.8641
383 1 -1.1104 12.2509 -2.83057 15.0187
385 1 -1.1104 12.0389 2.76103 14.9701
387 1 -1.1104 12.1609 0.0882404 17.6174
388 2 2.2208 10.6646 -1.37513 19.183
389 2 2.2208 10.607 4.27589 19.1421
390 1 -1.1104 12.0298 0.125432 14.9568
392 1 -1.1104 9.33836 -2.74608 17.7071
393 1 -1.1104 9.33443 2.92138 17.7092
394 2 2.2208 7.8446 1.36681 19.2186
395 1 -1.1104 9.39461 -2.85432 15.0233
397 1 -1.1104 9.22041 2.82906 14.9597
399 2 2.2208 7.97265 -1.43057 16.2732
400 2 2.2208 7.87064 4.24836 16.4608
401 1 -1.1104 9.35051 0.0337067 17.7651
402 1 -1.1104 9.32502 0.173449 14.8855
386 1 -1.1104 12.0011 2.81716 20.4723
9853 2 2.2208 13.4432 -1.33483 16.3195
709 2 2.2208 13.4724 4.13584 16.4103
710 2 2.2208 13.5698 1.32154 19.1718
403 1 -1.1104 9.3498 0.0471991 20.5158
391 1 -1.1104 12.0613 -0.109096 20.5576
405 2 2.2208 10.7394 -4.21199 16.3761
384 1 -1.1104 12.214 -2.91971 20.5957
413 2 2.2208 5.02427 6.99512 16.4055
414 2 2.2208 5.04335 12.5889 16.4292
415 1 -1.1104 0.899953 8.5032 17.6698
417 1 -1.1104 0.874941 8.65878 14.8864
421 1 -1.1104 0.956317 5.69257 17.6387
422 1 -1.1104 0.762732 11.2052 17.75
425 2 2.2208 4.96087 9.83899 19.2176
426 1 -1.1104 0.917317 5.76881 14.9852
428 1 -1.1104 0.842063 11.3829 15.0463
434 1 -1.1104 3.55731 8.48468 17.7326
435 2 2.2208 2.25725 6.97991 19.3
436 2 2.2208 2.11277 12.5195 19.1267
437 1 -1.1104 3.7218 8.31304 14.8917
439 2 2.2208 2.21477 9.84008 16.4302
440 1 -1.1104 3.66081 5.68204 17.8121
441 1 -1.1104 3.52846 11.3484 17.6701
442 1 -1.1104 3.73878 5.54941 15.0464
444 1 -1.1104 3.55775 11.1148 14.9908
418 1 -1.1104 1.05275 8.366 20.5923
430 1 -1.1104 6.6185 5.51319 14.9746
416 1 -1.1104 6.39488 8.47128 17.7187
419 1 -1.1104 6.56529 8.44152 14.9316
423 1 -1.1104 6.34877 5.71263 17.8882
432 1 -1.1104 6.4089 11.1363 15.0883
424 1 -1.1104 6.39154 11.3232 17.8048
443 1 -1.1104 3.59582 5.65448 20.6455
429 1 -1.1104 0.896354 11.1805 20.5382
445 1 -1.1104 3.7772 11.3796 20.6941
406 2 2.2208 7.99924 -4.15296 19.013
448 2 2.2208 2.24935 12.6058 13.5527
714 2 2.2208 13.3755 7.11869 19.0921
449 2 2.2208 10.5773 7.2197 16.4411
450 2 2.2208 10.5441 12.7508 16.4321
451 1 -1.1104 11.9988 8.36684 17.8593
452 1 -1.1104 12.0904 8.48008 14.886
454 1 -1.1104 11.9482 5.67268 17.7277
455 1 -1.1104 11.9542 11.4008 17.8425
456 2 2.2208 10.6575 10.0283 19.2229
457 1 -1.1104 11.9742 5.6578 15.0063
459 1 -1.1104 11.912 11.2318 15.1138
461 1 -1.1104 9.26669 8.55557 17.8212
462 2 2.2208 7.84096 7.16983 19.2113
463 2 2.2208 7.82667 12.7661 19.249
464 1 -1.1104 9.25994 8.57068 14.9169
466 2 2.2208 7.84736 9.89376 16.382
467 1 -1.1104 9.17364 5.68273 17.7459
468 1 -1.1104 9.19802 11.3648 17.9305
469 1 -1.1104 9.32956 5.87739 14.9663
471 1 -1.1104 9.14242 11.3103 15.0588
465 1 -1.1104 9.25781 8.46904 20.6705
472 1 -1.1104 9.22169 11.3106 20.7499
433 1 -1.1104 6.46348 11.1732 20.5572
470 1 -1.1104 9.27781 5.65435 20.6057
715 2 2.2208 13.5174 12.7632 19.1999
713 2 2.2208 13.3895 9.98894 16.398
572 2 2.2208 -0.452202 1.4659 27.6883
458 1 -1.1104 12.1141 5.70165 20.5254
453 1 -1.1104 12.0453 8.63794 20.6814
602 2 2.2208 13.6917 -1.43096 21.9191
374 2 2.2208 13.4317 15.3714 27.6929
476 2 2.2208 4.96388 18.2863 16.3483
477 1 -1.1104 0.791206 13.8813 17.61
478 1 -1.1104 0.786208 19.5521 17.8987
481 1 -1.1104 0.625021 14.1243 14.8692
483 1 -1.1104 0.91304 19.7053 15.014
489 1 -1.1104 0.695836 16.7766 17.7254
491 2 2.2208 5.00437 15.4704 19.2223
492 2 2.2208 4.95366 20.951 19.1689
493 1 -1.1104 0.849896 16.8804 14.9748
497 1 -1.1104 3.50994 14.1265 17.8144
498 1 -1.1104 3.61956 19.5728 17.7184
499 2 2.2208 2.2143 18.2656 19.1716
500 1 -1.1104 3.67487 13.9635 14.9963
502 1 -1.1104 3.68597 19.7315 15.0234
504 2 2.2208 2.13671 15.4169 16.303
505 2 2.2208 2.16148 20.9882 16.4671
506 1 -1.1104 3.60004 16.9383 17.7286
507 1 -1.1104 3.62616 16.7407 15.01
479 1 -1.1104 6.32819 14.0695 17.9141
485 1 -1.1104 6.38778 14.1118 15.1376
487 1 -1.1104 6.55477 19.7448 14.906
495 1 -1.1104 6.40722 17.0424 14.9703
480 1 -1.1104 6.31932 19.6409 17.782
490 1 -1.1104 6.43573 16.867 17.7839
501 1 -1.1104 3.52825 14.0964 20.5348
488 1 -1.1104 6.28011 19.6536 20.6132
408 2 2.2208 7.91337 15.6014 27.6691
509 2 2.2208 2.26886 18.2313 13.7203
511 2 2.2208 4.97233 15.4792 13.6048
719 2 2.2208 13.5423 18.1492 19.196
720 2 2.2208 13.3906 21.0382 16.3718
512 2 2.2208 10.6329 18.1478 16.4116
513 1 -1.1104 12.118 14.1958 17.7015
514 1 -1.1104 12.0163 19.5333 17.9006
515 1 -1.1104 12.0453 14.1256 15.0286
517 1 -1.1104 12.0066 19.5323 15.0618
519 1 -1.1104 12.1562 16.8495 17.8588
520 2 2.2208 10.608 15.535 19.3384
521 2 2.2208 10.6986 20.8529 19.1631
522 1 -1.1104 11.9375 16.7736 15.046
524 1 -1.1104 9.23318 14.1021 17.9718
525 1 -1.1104 9.16161 19.6846 17.887
526 2 2.2208 7.78173 18.2832 19.1851
527 1 -1.1104 9.21919 14.1108 15.2431
529 1 -1.1104 9.20156 19.7014 15.0744
531 2 2.2208 7.70858 15.443 16.5471
532 2 2.2208 7.83286 21.055 16.3312
533 1 -1.1104 9.28747 16.8299 17.9676
534 1 -1.1104 9.06291 16.9325 15.1261
516 1 -1.1104 11.9717 14.1183 20.6484
718 2 2.2208 13.5288 15.4718 16.425
528 1 -1.1104 9.21427 13.9736 20.6706
535 1 -1.1104 9.29534 16.8191 20.7039
571 2 2.2208 2.32855 -4.27372 24.6911
362 1 -1.1104 3.6823 -2.88781 20.5346
569 2 2.2208 5.06388 -4.22466 27.5652
347 1 -1.1104 6.41671 -2.65758 20.5464
540 2 2.2208 5.07735 1.47073 21.9816
541 1 -1.1104 0.925036 -2.78558 23.3137
542 1 -1.1104 0.798027 2.90404 23.315
545 1 -1.1104 1.00451 -2.78221 26.2021
546 1 -1.1104 0.719694 2.75666 26.1317
549 1 -1.1104 0.891828 -0.06414 23.3044
551 2 2.2208 5.08716 -1.40866 24.7578
552 2 2.2208 5.07334 4.22701 24.7557
553 1 -1.1104 1.00423 0.00677207 26.0796
555 1 -1.1104 3.76415 -2.81892 23.3899
556 1 -1.1104 3.47692 2.93552 23.507
557 2 2.2208 2.34969 1.52627 24.7735
558 1 -1.1104 3.75888 -2.74885 26.1453
559 1 -1.1104 3.56703 2.77593 26.231
560 2 2.2208 2.21561 -1.39299 21.8757
561 2 2.2208 2.16279 4.13235 21.9625
562 1 -1.1104 3.50652 -0.0222705 23.3127
563 1 -1.1104 3.74398 -0.0855215 26.2161
548 1 -1.1104 6.40467 2.79519 26.1651
543 1 -1.1104 6.54684 -2.74134 23.2766
544 1 -1.1104 6.55675 2.92786 23.3693
547 1 -1.1104 6.45152 -2.73637 26.0042
554 1 -1.1104 6.47112 0.113995 26.2266
566 2 2.2208 2.34421 4.17921 27.5418
565 2 2.2208 2.28838 -1.40573 27.5716
564 2 2.2208 5.18932 1.38491 27.6355
370 2 2.2208 13.5085 15.4145 22.0674
600 2 2.2208 7.9304 -4.17165 24.7339
594 2 2.2208 10.7719 1.4487 27.5938
596 2 2.2208 7.8244 4.17115 27.6363
398 1 -1.1104 9.15003 2.81419 20.6117
396 1 -1.1104 9.34761 -2.76254 20.6606
550 1 -1.1104 6.35657 0.231785 23.5192
603 2 2.2208 13.62 1.38959 24.6991
576 2 2.2208 10.7726 1.38084 21.924
577 1 -1.1104 12.2355 -2.75769 23.5016
578 1 -1.1104 12.101 2.96381 23.2415
579 1 -1.1104 12.0954 -2.75782 26.1001
580 1 -1.1104 12.1253 2.7514 26.0756
581 1 -1.1104 12.3004 0.0680658 23.2951
582 2 2.2208 10.8299 -1.34236 24.7632
583 2 2.2208 10.7269 4.1562 24.8688
584 1 -1.1104 12.2737 0.0789655 26.1734
585 1 -1.1104 9.33055 -2.69573 23.3031
586 1 -1.1104 9.24796 2.90743 23.4655
587 2 2.2208 7.98308 1.54394 24.8708
588 1 -1.1104 9.27336 -2.74703 26.017
589 1 -1.1104 9.20048 2.77007 26.3265
590 2 2.2208 7.87531 -1.32131 22.0455
591 2 2.2208 7.88008 4.31642 21.9757
592 1 -1.1104 9.26644 0.120076 23.3209
593 1 -1.1104 9.44173 0.104011 26.164
377 2 2.2208 13.4753 4.3047 21.8684
658 2 2.2208 13.5448 9.81978 27.6218
599 2 2.2208 10.7219 -4.16889 21.9312
595 2 2.2208 7.86862 -1.43527 27.3658
427 1 -1.1104 0.678183 5.69305 20.6547
438 1 -1.1104 3.70226 8.46843 20.4861
605 2 2.2208 4.98509 7.15465 22.0744
606 2 2.2208 5.05119 12.6951 22.0113
607 1 -1.1104 0.764765 8.42642 23.4346
609 1 -1.1104 0.839474 8.39823 26.3356
611 1 -1.1104 0.826908 5.67936 23.417
612 1 -1.1104 0.714308 11.3531 23.4843
615 2 2.2208 4.90654 9.86375 24.7182
616 1 -1.1104 0.954619 5.56759 26.1332
617 1 -1.1104 0.736735 11.1903 26.2923
620 1 -1.1104 3.50973 8.4738 23.4121
621 2 2.2208 2.17929 6.97431 24.7582
622 2 2.2208 2.20713 12.6383 24.8534
623 1 -1.1104 3.54187 8.39032 26.2116
624 2 2.2208 2.1068 9.90198 22.0712
625 1 -1.1104 3.64337 5.6417 23.3072
626 1 -1.1104 3.51007 11.317 23.4168
627 1 -1.1104 3.79375 5.61195 26.1219
628 1 -1.1104 3.43872 11.2885 26.1402
420 1 -1.1104 6.37305 8.39673 20.607
431 1 -1.1104 6.54718 5.72151 20.6396
619 1 -1.1104 6.34667 11.3737 26.1662
610 1 -1.1104 6.44711 8.53576 26.1045
614 1 -1.1104 6.50733 11.3209 23.4229
618 1 -1.1104 6.5927 5.6312 26.1034
629 2 2.2208 5.04794 7.15586 27.5364
613 1 -1.1104 6.47828 5.71642 23.4076
630 2 2.2208 2.14837 9.76526 27.6885
631 2 2.2208 5.00541 12.745 27.5214
657 2 2.2208 13.5779 12.7146 24.8944
608 1 -1.1104 6.35021 8.52992 23.2993
659 2 2.2208 13.4751 7.07512 24.8187
376 2 2.2208 13.5284 9.9572 22.1136
460 1 -1.1104 12.2082 11.5901 20.633
636 1 -1.1104 9.23268 11.324 26.2386
637 1 -1.1104 9.21629 5.65649 26.1374
638 1 -1.1104 9.29954 11.2346 23.5566
639 1 -1.1104 9.53485 5.67736 23.4325
640 2 2.2208 7.87204 9.84489 22.0781
641 1 -1.1104 9.34175 8.49166 26.2739
642 2 2.2208 8.00334 12.7713 24.8367
643 2 2.2208 7.96604 7.12404 24.7512
644 2 2.2208 10.762 7.09417 22.0239
645 2 2.2208 10.7119 12.6512 22.0445
646 1 -1.1104 12.1317 8.62201 23.4211
647 1 -1.1104 12.2018 8.41051 26.1235
648 1 -1.1104 12.1359 5.83675 23.4101
649 1 -1.1104 12.0999 11.2234 23.3583
650 2 2.2208 10.7026 9.96616 24.8786
651 1 -1.1104 11.9598 5.64328 26.1753
652 1 -1.1104 12.0986 11.3975 26.1279
653 1 -1.1104 9.33255 8.50212 23.3687
655 2 2.2208 7.83222 9.963 27.5252
654 2 2.2208 10.6806 7.03783 27.5643
503 1 -1.1104 3.46844 19.6753 20.6668
494 1 -1.1104 0.73286 16.8013 20.646
482 1 -1.1104 0.758381 13.9467 20.5262
496 1 -1.1104 6.42494 16.8153 20.5829
484 1 -1.1104 0.868673 19.6489 20.6147
508 1 -1.1104 3.62741 16.8802 20.6192
682 2 2.2208 2.18851 15.3758 21.9893
681 2 2.2208 2.20269 21.1109 22.0328
680 1 -1.1104 3.53051 16.851 23.4289
679 1 -1.1104 0.79539 16.879 23.4074
677 1 -1.1104 3.62347 14.0838 26.3595
676 1 -1.1104 3.55787 16.8252 26.3202
675 2 2.2208 2.1712 18.166 24.7226
668 2 2.2208 5.03567 20.9789 24.7297
674 1 -1.1104 3.59318 19.5291 26.1837
673 2 2.2208 4.84297 18.1943 21.9526
672 1 -1.1104 0.831967 14.1984 23.3934
666 1 -1.1104 0.860424 14.1233 26.1643
665 1 -1.1104 0.790498 17.1041 26.2778
671 1 -1.1104 0.68014 19.5867 23.5847
664 1 -1.1104 0.776215 19.8592 26.2903
669 2 2.2208 5.04917 15.5422 24.8717
660 1 -1.1104 3.48057 19.5284 23.3583
662 1 -1.1104 3.82201 14.0903 23.5442
486 1 -1.1104 6.42665 14.0708 20.6383
667 1 -1.1104 6.32246 19.6999 23.2935
670 1 -1.1104 6.62921 13.9924 23.261
661 1 -1.1104 6.48565 14.2353 26.2078
683 2 2.2208 2.30557 21.085 27.6519
404 2 2.2208 13.293 21.0181 22.0817
373 2 2.2208 13.3962 18.1675 24.902
699 1 -1.1104 9.495 14.0884 23.473
703 1 -1.1104 12.1098 16.6728 23.5165
691 1 -1.1104 9.2941 16.8094 23.5129
706 1 -1.1104 11.9678 19.585 23.4135
695 1 -1.1104 9.32983 14.1931 26.2844
707 1 -1.1104 12.2353 14.0035 23.4006
708 2 2.2208 10.6519 18.24 22.0152
702 2 2.2208 10.7785 15.5397 24.7855
705 1 -1.1104 12.0643 14.0824 26.3464
704 1 -1.1104 12.1081 19.6223 26.2196
518 1 -1.1104 12.0797 19.6824 20.5587
523 1 -1.1104 12.0584 16.8658 20.6741
693 2 2.2208 7.94741 15.4421 22.0595
701 2 2.2208 10.5751 21.0462 24.8043
690 1 -1.1104 9.28728 16.8452 26.1783
530 1 -1.1104 9.13687 19.6254 20.6506
694 1 -1.1104 9.23092 19.7137 26.2838
698 1 -1.1104 9.17888 19.5801 23.5265
700 1 -1.1104 12.0825 16.7752 26.3013
697 2 2.2208 7.87619 18.3041 24.8708
663 1 -1.1104 6.54712 16.9602 26.2358
692 2 2.2208 7.667 21.0997 21.9608
678 1 -1.1104 6.50718 16.8658 23.3786
696 1 -1.1104 6.41334 19.7778 26.0448
604 2 2.2208 13.6503 4.25858 27.5494
601 2 2.2208 13.6443 -1.37601 27.6626
656 2 2.2208 10.5417 12.7298 27.7318
684 2 2.2208 4.95776 18.2893 27.662
685 2 2.2208 2.11829 15.6487 27.6629
538 2 2.2208 7.91596 18.2174 13.5779
510 2 2.2208 5.10711 21.0236 13.5845
536 2 2.2208 10.5689 20.9968 13.682
723 2 2.2208 5.26162 23.8866 5.37546
724 2 2.2208 5.07447 29.5434 5.39241
725 1 -1.1104 0.972112 25.3521 1.06815
726 1 -1.1104 0.947138 25.235 3.95027
727 1 -1.1104 0.946764 22.3579 1.07476
728 1 -1.1104 0.765372 28.0901 1.01819
729 2 2.2208 5.10915 26.8033 2.5722
730 1 -1.1104 0.80153 22.5021 3.89552
731 1 -1.1104 0.819143 28.0491 3.90346
732 1 -1.1104 3.79782 25.4298 0.9939
733 2 2.2208 2.34523 23.8768 2.5042
734 2 2.2208 2.26736 29.4817 2.66073
735 1 -1.1104 3.73827 25.2463 3.80433
736 2 2.2208 2.3564 26.524 5.24906
737 1 -1.1104 3.59573 22.6684 0.950186
738 1 -1.1104 3.61247 28.0715 1.1723
739 1 -1.1104 3.72077 22.4372 3.92304
740 1 -1.1104 3.52208 28.1403 3.98366
872 1 -1.1104 3.77605 27.9863 6.71076
745 1 -1.1104 6.4482 25.4265 3.82934
746 1 -1.1104 6.55476 22.4107 1.1169
869 1 -1.1104 6.41013 27.9707 6.74933
749 1 -1.1104 6.40342 28.086 4.05365
744 1 -1.1104 6.51433 25.2219 0.974437
747 1 -1.1104 6.41486 28.019 1.15398
865 1 -1.1104 6.403 25.315 6.64056
1661 1 -1.1104 3.7238 47.7531 9.56299
1054 2 2.2208 13.4228 40.6796 8.13011
870 1 -1.1104 3.55486 25.0911 6.62809
867 1 -1.1104 0.837091 28.1121 6.68355
871 1 -1.1104 3.78983 22.337 6.58074
1270 2 2.2208 5.14721 29.479 -0.220285
748 1 -1.1104 6.51901 22.5726 3.85397
750 2 2.2208 10.7207 23.8991 5.24258
751 2 2.2208 10.7598 29.6303 5.21261
752 1 -1.1104 12.1259 25.2693 1.07901
753 1 -1.1104 12.1742 25.2166 3.79524
754 1 -1.1104 12.1178 22.4431 0.886482
755 1 -1.1104 12.0598 28.0744 1.0272
756 2 2.2208 10.7728 26.7832 2.51271
757 1 -1.1104 11.9616 22.4802 3.73809
758 1 -1.1104 12.1965 28.0507 3.85599
759 1 -1.1104 9.27958 25.4226 1.09324
760 2 2.2208 7.92648 23.9221 2.40396
761 2 2.2208 7.99529 29.633 2.56166
762 1 -1.1104 9.22592 25.4792 3.86058
763 2 2.2208 7.89498 26.7718 5.34893
764 1 -1.1104 9.28169 22.4112 0.920482
765 1 -1.1104 9.1662 28.1174 1.23134
766 1 -1.1104 9.252 22.5451 3.84189
767 1 -1.1104 9.2298 28.2922 3.93302
899 1 -1.1104 12.1358 27.9907 6.68387
769 2 2.2208 13.4706 29.5659 2.5004
868 1 -1.1104 6.47166 22.55 6.70888
900 1 -1.1104 9.26055 25.3413 6.59405
901 1 -1.1104 9.37788 22.5804 6.57501
902 1 -1.1104 9.30628 28.1884 6.86087
768 2 2.2208 13.4656 23.9236 2.42229
770 2 2.2208 13.5981 26.6466 5.22018
862 2 2.2208 13.6565 46.3256 2.52368
1300 2 2.2208 13.5348 26.7329 -0.39239
771 2 2.2208 5.08519 35.2125 5.37825
772 1 -1.1104 0.758899 30.7393 1.05651
773 1 -1.1104 0.749471 36.4549 1.11481
775 1 -1.1104 0.78771 30.8557 3.97539
776 1 -1.1104 0.973901 36.3487 3.94206
778 1 -1.1104 0.772038 33.7221 1.43773
779 2 2.2208 5.03533 32.3251 2.56862
780 2 2.2208 5.14393 38.0608 2.50027
781 1 -1.1104 1.02273 33.7282 4.03849
783 1 -1.1104 3.54954 30.92 1.20108
784 1 -1.1104 3.55781 36.5716 1.15441
785 2 2.2208 2.22954 35.1265 2.54801
786 1 -1.1104 3.63801 30.8572 3.90666
787 1 -1.1104 3.80495 36.5876 3.81875
788 2 2.2208 2.34827 32.3273 5.3506
789 2 2.2208 2.29675 37.871 5.14697
790 1 -1.1104 3.59935 33.8169 1.1842
791 1 -1.1104 3.80894 33.7323 3.98052
795 1 -1.1104 6.57299 30.8533 1.23372
924 1 -1.1104 6.47434 36.6708 6.78143
797 1 -1.1104 6.39636 33.6892 1.05207
1042 2 2.2208 13.4794 43.5024 5.31771
816 2 2.2208 13.5893 35.1403 2.33444
1329 2 2.2208 5.09713 35.085 -0.265001
1327 2 2.2208 2.22659 37.7948 -0.334276
774 1 -1.1104 6.47032 36.6023 1.02265
782 1 -1.1104 6.55834 33.5651 3.83023
777 1 -1.1104 6.52021 36.5895 3.92119
796 1 -1.1104 6.49053 30.868 4.0056
798 2 2.2208 10.8272 35.1362 5.28796
799 1 -1.1104 12.0248 30.9175 0.933015