ITEM: TIMESTEP
50000
ITEM: NUMBER OF ATOMS
17910
ITEM: BOX BOUNDS pp pp pp
-3.6560910968188931e-01 2.7705609109681482e+01
-4.1849349000109726e+00 3.3226493490001070e+02
-3.5842346200174202e-01 2.7698423462001898e+01
ITEM: ATOMS id type q x y z
1 2 2.2208 5.0254 1.44646 5.11395
2 1 -1.1104 0.797243 -2.80927 0.916282
3 1 -1.1104 0.823445 2.73568 0.965908
6 1 -1.1104 0.72225 -2.84439 3.72561
7 1 -1.1104 0.80681 2.76075 3.74056
10 1 -1.1104 0.702699 0.0507157 0.979626
12 2 2.2208 4.93179 -1.25469 2.36736
13 2 2.2208 4.98661 4.16423 2.32447
14 1 -1.1104 0.908838 -0.00913666 3.81334
16 1 -1.1104 3.59775 -2.68745 0.897956
17 1 -1.1104 3.49391 2.82279 0.921825
18 2 2.2208 2.12765 1.37843 2.30831
19 1 -1.1104 3.58998 -2.62373 3.76414
20 1 -1.1104 3.71651 2.94306 3.72835
21 2 2.2208 2.26347 -1.43183 5.24267
23 1 -1.1104 3.57409 0.000260044 0.971378
24 1 -1.1104 3.68498 0.102084 3.87512
22 2 2.2208 2.20355 4.28155 4.9472
233 2 2.2208 13.5212 -4.13242 8.02105
4 1 -1.1104 6.34888 -2.75967 1.03291
8 1 -1.1104 6.54074 -2.753 3.7613
170 1 -1.1104 0.866419 -0.0848362 6.70411
11 1 -1.1104 6.50991 0.115736 0.98962
9 1 -1.1104 6.47076 2.74239 3.75726
5 1 -1.1104 6.30905 2.92182 0.829246
15 1 -1.1104 6.40304 -0.087477 3.74159
537 2 2.2208 10.5814 15.4819 13.6304
172 1 -1.1104 3.70796 -2.81548 6.5626
166 1 -1.1104 0.78574 -2.87288 6.48559
173 1 -1.1104 3.69284 2.83175 6.42298
167 1 -1.1104 0.842907 2.74766 6.57489
174 1 -1.1104 3.79467 -0.049795 6.62853
171 1 -1.1104 6.56219 0.0401237 6.63676
169 1 -1.1104 6.63065 2.85669 6.633
168 1 -1.1104 6.58335 -2.8156 6.55541
53 2 2.2208 13.4045 -4.29945 2.4061
51 2 2.2208 7.81217 -4.09549 2.41487
26 2 2.2208 13.3809 18.3512 8.00597
49 2 2.2208 13.4994 1.44448 2.34783
9479 2 2.2208 13.483 4.30091 5.17994
31 2 2.2208 10.7515 1.37734 5.28206
32 1 -1.1104 12.041 -2.81662 0.998979
33 1 -1.1104 11.9744 2.85106 1.08044
34 1 -1.1104 11.9035 -2.91544 3.73903
35 1 -1.1104 12.0536 2.72722 3.84456
36 1 -1.1104 12.0686 0.0270579 0.902211
37 2 2.2208 10.5492 -1.405 2.44336
38 2 2.2208 10.6403 4.27648 2.35795
39 1 -1.1104 12.0769 -0.165323 3.80084
40 1 -1.1104 9.13872 -2.77252 0.912872
41 1 -1.1104 9.03075 2.74101 0.89108
42 2 2.2208 7.91979 1.46419 2.38632
43 1 -1.1104 9.26219 -2.70573 3.93285
44 1 -1.1104 9.34588 2.6841 3.74186
45 2 2.2208 7.83661 -1.40306 5.17437
46 2 2.2208 7.94106 4.24857 5.20273
47 1 -1.1104 9.36384 -0.0646774 1.09272
48 1 -1.1104 9.24018 0.0454015 3.89487
210 1 -1.1104 9.28214 -0.0114204 6.63902
207 1 -1.1104 12.0741 -0.0370263 6.51647
205 1 -1.1104 11.9626 -2.77089 6.56423
209 1 -1.1104 9.27677 2.90667 6.60065
206 1 -1.1104 12.0496 2.79339 6.59486
50 2 2.2208 13.5243 -1.3454 5.17465
54 2 2.2208 4.92463 7.0562 5.1292
55 2 2.2208 4.94604 12.7148 5.09357
56 1 -1.1104 0.822794 8.41599 0.930422
58 1 -1.1104 0.83535 8.45137 3.8674
60 1 -1.1104 0.65608 5.55347 0.858143
61 1 -1.1104 0.896044 11.391 1.05202
66 2 2.2208 4.96123 9.81957 2.3572
67 1 -1.1104 0.72606 5.64505 3.59741
68 1 -1.1104 0.70674 11.4341 3.83407
71 1 -1.1104 3.6572 8.49215 1.01274
72 2 2.2208 2.28693 7.01081 2.28401
73 2 2.2208 2.22936 12.7969 2.37244
74 1 -1.1104 3.64417 8.53958 3.78855
75 2 2.2208 2.15067 9.86143 5.10055
76 1 -1.1104 3.55787 5.69011 0.910554
77 1 -1.1104 3.69178 11.1967 0.970313
79 1 -1.1104 3.54616 5.74566 3.66023
80 1 -1.1104 3.43224 11.295 3.67661
236 1 -1.1104 0.772182 5.63867 6.5039
70 1 -1.1104 6.2809 11.1974 3.65338
63 1 -1.1104 6.30722 5.60315 0.897748
57 1 -1.1104 6.36546 8.38013 0.929904
59 1 -1.1104 6.33276 8.37116 3.69719
69 1 -1.1104 6.36953 5.38148 3.71859
64 1 -1.1104 6.48162 11.1061 0.952166
238 1 -1.1104 3.58874 8.48152 6.60254
234 1 -1.1104 0.809429 8.52612 6.46038
78 1 -1.1104 3.66495 11.3637 6.46969
239 1 -1.1104 3.5886 5.72472 6.57815
65 1 -1.1104 6.50139 11.3083 6.52073
235 1 -1.1104 6.50622 8.40338 6.44919
237 1 -1.1104 6.39379 5.65497 6.5348
104 2 2.2208 13.491 12.8081 2.40771
84 2 2.2208 10.5534 6.98301 5.0532
85 2 2.2208 10.7435 12.7765 5.11084
86 1 -1.1104 12.1234 8.40853 0.93095
87 1 -1.1104 12.0487 8.49412 3.70756
88 1 -1.1104 12.0308 5.72285 1.03635
89 1 -1.1104 12.2306 11.2387 0.953646
91 2 2.2208 10.666 9.84586 2.38888
92 1 -1.1104 11.9579 5.64425 3.83717
93 1 -1.1104 12.045 11.6335 3.67427
94 1 -1.1104 9.25688 8.21418 0.852513
95 2 2.2208 7.74456 7.00523 2.34674
96 2 2.2208 7.81642 12.611 2.3314
97 1 -1.1104 9.2305 8.48932 3.55227
98 2 2.2208 7.80815 9.92719 5.18649
99 1 -1.1104 9.2304 5.47992 0.885401
100 1 -1.1104 9.26295 11.0367 1.00955
102 1 -1.1104 9.11293 5.73356 3.73105
103 1 -1.1104 9.08635 11.2974 3.8038
265 1 -1.1104 12.0165 8.40218 6.5892
105 2 2.2208 13.423 7.18221 2.2632
101 1 -1.1104 9.25572 11.292 6.42698
266 1 -1.1104 11.982 5.55324 6.56211
90 1 -1.1104 11.9752 11.1372 6.49596
326 2 2.2208 13.328 9.91839 5.23321
106 2 2.2208 5.12802 18.2928 5.11502
107 1 -1.1104 0.755541 14.1896 0.889889
109 1 -1.1104 0.754933 19.8882 0.943056
113 1 -1.1104 0.917928 14.0695 3.73708
114 1 -1.1104 0.867904 19.7509 3.77829
116 1 -1.1104 0.990169 17.037 1.02157
119 2 2.2208 5.00614 15.4797 2.25064
120 2 2.2208 4.98749 21.215 2.36477
121 1 -1.1104 0.905047 16.9157 3.75106
123 1 -1.1104 3.65194 14.1072 0.988447
125 1 -1.1104 3.60499 19.7439 1.04751
127 2 2.2208 2.28659 18.3086 2.39144
128 1 -1.1104 3.70436 14.3391 3.86877
129 1 -1.1104 3.71911 19.7043 3.71923
130 2 2.2208 2.15261 15.5958 5.06602
131 2 2.2208 2.31124 21.0781 5.12231
132 1 -1.1104 3.69027 16.8399 0.947413
134 1 -1.1104 3.72036 16.9469 3.79236
126 1 -1.1104 3.75335 19.6297 6.47412
117 1 -1.1104 0.870027 16.8278 6.74831
334 2 2.2208 7.83608 -4.15919 13.5764
140 1 -1.1104 6.56482 16.935 0.891139
139 1 -1.1104 6.32466 19.7028 3.66391
138 1 -1.1104 6.34092 19.8068 0.821368
110 1 -1.1104 6.40635 13.98 0.955186
122 1 -1.1104 6.44188 16.7457 3.66951
115 1 -1.1104 6.40991 13.9212 3.63384
108 1 -1.1104 0.700493 14.0747 6.48051
133 1 -1.1104 3.61122 16.9473 6.54857
302 1 -1.1104 0.797901 19.6668 6.69075
111 1 -1.1104 6.37288 14.0646 6.50831
112 1 -1.1104 6.5078 19.6985 6.51968
118 1 -1.1104 6.39249 16.83 6.66943
327 2 2.2208 13.5084 21.1473 5.12706
328 2 2.2208 13.5806 15.5451 5.19521
231 2 2.2208 7.90016 -4.20016 7.90442
141 2 2.2208 10.5982 18.2843 5.03762
142 1 -1.1104 11.9189 14.1528 1.17106
144 1 -1.1104 11.9848 19.8275 0.888352
146 1 -1.1104 12.0648 14.282 3.90274
147 1 -1.1104 12.0858 19.7999 3.65312
148 1 -1.1104 12.0697 17.0241 0.909369
150 2 2.2208 10.7285 15.6042 2.32752
151 2 2.2208 10.6714 21.2954 2.28263
152 1 -1.1104 12.0794 16.8848 3.71174
153 1 -1.1104 9.1338 14.0022 0.916368
155 1 -1.1104 9.10923 19.7096 0.995232
157 2 2.2208 7.73222 18.263 2.28236
158 1 -1.1104 9.26533 14.1888 3.53863
159 1 -1.1104 9.07422 19.7892 3.84408
160 2 2.2208 7.72117 15.3392 5.03793
161 2 2.2208 7.75584 21.1451 5.12559
162 1 -1.1104 9.33759 16.8553 0.84359
164 1 -1.1104 9.10633 17.0372 3.80504
143 1 -1.1104 12.0649 13.9207 6.63476
149 1 -1.1104 11.8618 16.848 6.55825
154 1 -1.1104 9.16555 14.1042 6.56312
163 1 -1.1104 9.15367 16.7663 6.49314
165 2 2.2208 13.5072 18.2694 2.26796
203 2 2.2208 5.0352 -4.17763 10.8136
200 1 -1.1104 11.9394 14.0799 12.2383
320 2 2.2208 7.80178 18.2533 7.93614
229 1 -1.1104 12.075 19.7042 9.33589
379 2 2.2208 5.12216 4.33671 13.602
175 2 2.2208 5.03183 1.60802 10.7054
176 1 -1.1104 0.807643 -2.7902 12.0989
177 1 -1.1104 0.695831 2.79834 12.1874
180 1 -1.1104 0.97476 -2.76216 9.37012
181 1 -1.1104 0.741361 2.84497 9.49997
184 1 -1.1104 0.897351 -0.0257906 12.2587
186 2 2.2208 5.04061 -1.4164 7.91245
187 2 2.2208 5.00474 4.33982 7.98271
188 1 -1.1104 0.720689 0.0769055 9.38855
190 1 -1.1104 3.50676 -2.90962 12.1137
191 1 -1.1104 3.60009 2.80915 12.1468
192 2 2.2208 2.22461 1.33898 7.92057
193 1 -1.1104 3.79104 -2.64333 9.32065
194 1 -1.1104 3.59509 2.7027 9.44895
195 2 2.2208 2.27191 -1.29522 10.8232
196 2 2.2208 2.28257 4.19907 10.7509
197 1 -1.1104 3.71051 0.0318584 12.2017
198 1 -1.1104 3.40204 0.00789969 9.31865
179 1 -1.1104 6.44535 2.88849 12.2161
185 1 -1.1104 6.36742 0.05956 12.2119
182 1 -1.1104 6.45447 -2.78597 9.35756
178 1 -1.1104 6.4162 -2.75967 12.2977
183 1 -1.1104 6.48378 3.03047 9.50447
189 1 -1.1104 6.32398 0.0577091 9.50004
378 2 2.2208 2.25737 1.46444 13.574
333 2 2.2208 5.08308 -1.31261 13.6558
208 1 -1.1104 9.25318 -2.75029 6.62033
9778 2 2.2208 13.5609 1.46418 8.01857
336 2 2.2208 10.5121 -1.37765 13.613
211 2 2.2208 10.6855 1.49341 10.7276
212 1 -1.1104 12.1758 -2.73483 12.1494
213 1 -1.1104 11.9308 3.08872 12.067
214 1 -1.1104 11.9464 -2.81994 9.27859
215 1 -1.1104 11.9837 3.00574 9.32974
216 1 -1.1104 11.9621 0.0243481 12.1451
217 2 2.2208 10.5934 -1.44097 7.90919
218 2 2.2208 10.622 4.17158 7.96275
219 1 -1.1104 12.1506 0.0671183 9.43048
220 1 -1.1104 9.25551 -2.78454 12.236
221 1 -1.1104 9.16922 2.98337 12.0788
222 2 2.2208 7.80608 1.37013 8.07409
223 1 -1.1104 9.18613 -2.84943 9.42782
224 1 -1.1104 9.18429 2.6809 9.30247
225 2 2.2208 7.88091 -1.42167 10.8163
227 1 -1.1104 9.13221 0.114953 12.1446
228 1 -1.1104 9.30916 -0.140626 9.35671
226 2 2.2208 7.8827 4.33485 10.764
9779 2 2.2208 13.3959 -1.35534 10.7435
9614 2 2.2208 13.3311 4.3893 10.6848
9815 2 2.2208 13.2509 1.55722 13.5241
412 2 2.2208 10.5434 4.31818 13.5902
410 2 2.2208 7.76529 1.50131 13.4817
62 1 -1.1104 0.790157 11.1806 6.62345
240 2 2.2208 5.0316 7.14006 10.6504
241 2 2.2208 4.9729 12.6184 10.7746
242 1 -1.1104 0.965299 8.42742 12.2247
244 1 -1.1104 0.849575 8.413 9.25072
246 1 -1.1104 0.883294 5.6634 12.0544
247 1 -1.1104 0.750265 11.2026 12.1707
250 2 2.2208 5.08009 9.94733 7.94868
251 1 -1.1104 0.88695 5.62085 9.36829
252 1 -1.1104 0.865485 11.401 9.46366
255 1 -1.1104 3.53207 8.42537 12.1069
256 2 2.2208 2.13122 6.99837 7.94979
257 2 2.2208 2.21187 12.6878 7.80149
258 1 -1.1104 3.64771 8.4496 9.35015
259 2 2.2208 2.22803 9.74489 10.7333
260 1 -1.1104 3.77094 5.61955 12.214
261 1 -1.1104 3.45479 11.2619 12.1897
262 1 -1.1104 3.61946 5.65653 9.30665
263 1 -1.1104 3.60545 11.3588 9.2679
254 1 -1.1104 6.41476 11.2693 9.27008
248 1 -1.1104 6.39446 5.76774 12.2597
243 1 -1.1104 6.37188 8.44056 12.0926
249 1 -1.1104 6.2336 11.2638 12.0711
245 1 -1.1104 6.41247 8.48752 9.29908
253 1 -1.1104 6.43774 5.66493 9.28749
448 2 2.2208 2.1505 12.6408 13.5614
447 2 2.2208 5.00713 9.88852 13.4184
446 2 2.2208 2.15418 7.06073 13.4898
9690 2 2.2208 13.3545 7.08529 7.9296
323 1 -1.1104 12.0888 16.8584 9.37737
269 1 -1.1104 9.13793 5.66894 6.5254
267 1 -1.1104 9.22376 8.48205 6.36809
264 1 -1.1104 9.20035 11.2926 9.34471
268 1 -1.1104 9.23111 5.63162 9.33619
270 1 -1.1104 9.11379 11.2397 12.0868
271 1 -1.1104 9.09947 5.77015 12.0128
272 2 2.2208 7.85223 9.84492 10.8499
273 1 -1.1104 9.26335 8.53373 9.23738
274 2 2.2208 7.78192 12.6955 8.06297
275 2 2.2208 7.89838 7.05247 7.86818
276 2 2.2208 10.6476 7.20073 10.806
277 2 2.2208 10.4782 12.8321 10.7878
278 1 -1.1104 12.072 8.5473 12.236
279 1 -1.1104 11.8412 8.59961 9.42198
280 1 -1.1104 11.8701 5.69729 12.2858
281 1 -1.1104 11.9245 11.4172 12.1821
282 2 2.2208 10.5889 9.8996 7.84732
283 1 -1.1104 12.0032 5.88343 9.35632
284 1 -1.1104 12.0099 11.2204 9.29125
285 1 -1.1104 9.32727 8.52996 12.1848
329 2 2.2208 13.37 12.7155 7.94395
330 2 2.2208 13.2743 10.0088 10.7315
474 2 2.2208 10.7054 9.93484 13.6032
475 2 2.2208 7.81333 12.6614 13.5499
716 2 2.2208 13.399 12.8202 13.6297
712 2 2.2208 13.408 7.10816 13.4937
290 1 -1.1104 6.48502 14.0851 9.47674
297 1 -1.1104 6.35399 13.9759 12.2516
296 1 -1.1104 6.28805 19.717 12.0537
306 1 -1.1104 6.50709 16.8921 12.1126
511 2 2.2208 4.93305 15.4539 13.6118
289 1 -1.1104 6.3547 16.974 9.35283
124 1 -1.1104 3.49863 14.0998 6.38542
286 1 -1.1104 3.66086 19.5794 12.1428
287 1 -1.1104 3.62499 13.9386 12.2727
291 1 -1.1104 0.836012 19.7398 9.34383
292 1 -1.1104 0.754166 16.9377 9.4949
293 2 2.2208 4.98695 21.1274 7.74448
294 1 -1.1104 0.716568 14.1149 9.28483
295 2 2.2208 5.07419 15.5022 7.92318
298 1 -1.1104 0.765792 19.7378 12.1608
299 1 -1.1104 0.705044 14.1721 12.0919
300 2 2.2208 5.02626 18.3097 10.7594
301 1 -1.1104 3.61551 19.7968 9.36348
303 2 2.2208 2.29142 18.3324 8.00794
304 1 -1.1104 3.49474 16.8024 9.3353
305 1 -1.1104 3.73848 14.0575 9.3702
307 1 -1.1104 0.87647 16.9916 12.2856
308 1 -1.1104 3.68513 16.9161 12.0511
309 2 2.2208 2.1963 21.0969 10.7421
310 2 2.2208 2.20688 15.405 10.7484
288 1 -1.1104 6.46095 19.734 9.30317
510 2 2.2208 4.98899 21.1347 13.5596
9773 2 2.2208 13.5089 15.5135 10.7086
331 2 2.2208 13.4201 21.1331 10.7325
314 1 -1.1104 9.13344 16.8447 9.30005
318 1 -1.1104 9.23049 19.5902 9.40495
324 2 2.2208 10.5968 21.1221 7.97843
315 1 -1.1104 9.34558 16.9313 12.0373
316 2 2.2208 7.75815 21.0553 10.6539
201 1 -1.1104 12.0391 19.8374 12.1207
317 2 2.2208 7.72487 15.6456 10.7776
230 1 -1.1104 11.9899 16.9907 12.2321
156 1 -1.1104 9.40984 19.7236 6.69784
145 1 -1.1104 12.093 19.7214 6.40733
204 1 -1.1104 12.1105 14.1187 9.45029
322 1 -1.1104 9.16257 14.2031 12.1435
321 1 -1.1104 9.17589 19.6583 12.1749
319 1 -1.1104 9.17111 13.997 9.369
325 2 2.2208 10.5879 15.5186 7.87659
81 2 2.2208 10.6953 18.3401 10.8531
509 2 2.2208 2.34397 18.2471 13.529
536 2 2.2208 10.5975 21.0575 13.5143
569 2 2.2208 4.90519 -4.10024 -0.357932
601 2 2.2208 13.4359 -1.40271 -0.388823
630 2 2.2208 2.24189 9.91597 -0.361266
683 2 2.2208 2.32239 21.1029 -0.488509
337 2 2.2208 5.04086 1.48165 16.3778
338 1 -1.1104 0.816407 -2.73703 17.8352
339 1 -1.1104 0.879719 2.79693 17.7916
342 1 -1.1104 0.985148 -2.83761 15.0692
344 1 -1.1104 0.993398 2.87293 14.854
350 1 -1.1104 0.920621 0.00298747 17.7326
352 2 2.2208 5.09119 -1.44442 19.0408
353 2 2.2208 4.99836 4.2014 19.2339
354 1 -1.1104 0.756319 0.0712652 14.9432
358 1 -1.1104 3.62615 -2.91576 17.7071
359 1 -1.1104 3.67663 2.82376 17.8861
360 2 2.2208 2.2958 1.29617 19.2601
361 1 -1.1104 3.70675 -2.74378 14.995
363 1 -1.1104 3.80272 2.79965 15.0719
365 2 2.2208 2.20134 -1.48554 16.4765
366 2 2.2208 2.2507 4.28109 16.4404
367 1 -1.1104 3.60846 0.0297274 17.7819
368 1 -1.1104 3.58908 0.0163898 15.1656
369 1 -1.1104 3.60611 0.00568078 20.7716
341 1 -1.1104 6.47106 2.84735 17.791
356 1 -1.1104 6.34765 0.322728 14.9615
348 1 -1.1104 6.50945 3.0657 15.0265
347 1 -1.1104 6.58573 -2.83308 20.7736
345 1 -1.1104 0.747649 2.78818 20.7301
351 1 -1.1104 6.45199 0.05625 17.6289
346 1 -1.1104 6.47436 -2.78985 15.1155
340 1 -1.1104 6.54131 -2.74177 17.8039
349 1 -1.1104 6.16641 2.64818 20.6014
355 1 -1.1104 0.70551 -0.155618 20.662
364 1 -1.1104 3.60328 2.9013 20.6755
357 1 -1.1104 6.48398 -0.098154 20.5021
709 2 2.2208 13.2863 4.15225 16.3925
380 2 2.2208 10.5654 1.53846 16.4571
381 1 -1.1104 11.9963 -2.754 17.8838
382 1 -1.1104 11.9189 2.90949 17.8802
383 1 -1.1104 11.9436 -2.76991 14.9955
385 1 -1.1104 11.907 2.6525 14.9694
387 1 -1.1104 11.9505 0.0564486 17.8057
388 2 2.2208 10.6393 -1.33756 19.1765
389 2 2.2208 10.6441 4.22071 19.3343
390 1 -1.1104 11.9636 -0.0319786 14.9713
392 1 -1.1104 9.27308 -2.75955 17.9534
393 1 -1.1104 9.20244 2.85291 17.818
394 2 2.2208 7.87207 1.40616 19.3319
395 1 -1.1104 9.28629 -2.88559 14.9971
397 1 -1.1104 9.15313 3.0761 14.9915
399 2 2.2208 7.86759 -1.3116 16.4346
401 1 -1.1104 9.24984 0.12485 17.9011
402 1 -1.1104 9.07542 0.101726 15.0291
400 2 2.2208 7.8482 4.2917 16.4738
384 1 -1.1104 12.0235 -2.81815 20.6737
391 1 -1.1104 12.0119 -0.0706175 20.5833
9856 2 2.2208 13.4885 -4.21403 19.1734
706 1 -1.1104 12.078 19.9155 23.3247
9853 2 2.2208 13.4219 -1.3669 16.3648
403 1 -1.1104 9.13027 -0.186358 20.5566
398 1 -1.1104 9.19453 2.76074 20.5936
386 1 -1.1104 12.0657 2.75155 20.5822
396 1 -1.1104 9.21753 -2.72012 20.6187
710 2 2.2208 13.4814 1.40666 19.1233
413 2 2.2208 5.0148 7.07178 16.4321
414 2 2.2208 5.1175 12.7466 16.3456
415 1 -1.1104 0.964067 8.14957 17.7373
417 1 -1.1104 0.7939 8.61592 15.0024
421 1 -1.1104 0.788447 5.35256 17.7055
422 1 -1.1104 0.792033 11.0536 17.8557
425 2 2.2208 5.08418 9.83869 19.2342
426 1 -1.1104 0.819382 5.65163 14.8258
428 1 -1.1104 0.729804 11.3147 14.9798
434 1 -1.1104 3.80015 8.62228 17.6618
435 2 2.2208 2.21473 6.96367 19.2366
436 2 2.2208 2.20577 12.5905 19.2314
437 1 -1.1104 3.68353 8.51357 14.7751
439 2 2.2208 2.26125 9.93194 16.3429
440 1 -1.1104 3.62067 5.78117 17.8065
441 1 -1.1104 3.58776 11.2979 18.0018
442 1 -1.1104 3.58927 5.74238 14.999
444 1 -1.1104 3.63513 11.2711 14.9698
431 1 -1.1104 6.41023 5.67429 20.6351
424 1 -1.1104 6.36325 11.1731 17.6736
419 1 -1.1104 6.43283 8.6865 15.06
443 1 -1.1104 3.55315 5.63475 20.6006
427 1 -1.1104 0.72488 5.58099 20.4548
429 1 -1.1104 0.915245 11.1779 20.6441
423 1 -1.1104 6.19811 5.55253 17.8713
432 1 -1.1104 6.56967 11.3746 15.0467
430 1 -1.1104 6.44515 5.83374 15.1261
416 1 -1.1104 6.48128 8.32052 17.9258
418 1 -1.1104 0.865874 8.33028 20.6219
445 1 -1.1104 3.72381 11.2233 20.7621
433 1 -1.1104 6.31963 11.3421 20.5668
714 2 2.2208 13.4655 7.13256 19.3272
449 2 2.2208 10.6004 7.11862 16.4463
450 2 2.2208 10.6194 12.6535 16.5106
451 1 -1.1104 12.0811 8.23676 17.7773
452 1 -1.1104 12.1125 8.35822 14.9873
454 1 -1.1104 11.9609 5.62878 17.8684
455 1 -1.1104 11.9782 11.1079 17.879
456 2 2.2208 10.595 9.75821 19.3746
457 1 -1.1104 12.1354 5.62234 15.102
459 1 -1.1104 12.0373 11.1948 15.099
461 1 -1.1104 9.14762 8.51752 17.8779
462 2 2.2208 7.69978 6.96101 19.2337
463 2 2.2208 7.81413 12.6147 19.1263
464 1 -1.1104 9.15308 8.54546 14.9653
466 2 2.2208 7.83906 9.83723 16.3751
467 1 -1.1104 9.0977 5.72268 17.7672
468 1 -1.1104 9.04285 11.2906 17.7629
469 1 -1.1104 9.33248 5.8541 15.0181
471 1 -1.1104 9.26542 11.3492 15.0045
453 1 -1.1104 11.9648 8.47229 20.7675
713 2 2.2208 13.3269 9.72657 16.4463
715 2 2.2208 13.3637 12.6406 19.1043
472 1 -1.1104 9.03316 11.2792 20.6664
470 1 -1.1104 9.14574 5.65185 20.5397
458 1 -1.1104 11.966 5.68169 20.6065
460 1 -1.1104 11.784 11.2665 20.679
465 1 -1.1104 9.03949 8.44702 20.7572
599 2 2.2208 10.5946 -4.19454 21.951
476 2 2.2208 5.17254 18.2595 16.4115
477 1 -1.1104 1.04285 14.0136 17.7244
478 1 -1.1104 0.925957 19.6708 17.7903
481 1 -1.1104 0.885587 14.0232 14.9135
483 1 -1.1104 1.00932 19.7024 14.846
489 1 -1.1104 1.0025 16.7214 17.8866
491 2 2.2208 5.12365 15.5225 19.22
492 2 2.2208 5.23481 20.9596 19.0417
493 1 -1.1104 0.882761 16.9977 15.0853
497 1 -1.1104 3.72589 13.9885 17.7391
498 1 -1.1104 3.73488 19.5277 17.722
499 2 2.2208 2.32498 18.2552 19.2471
500 1 -1.1104 3.65323 14.0875 14.9375
502 1 -1.1104 3.73496 19.5639 14.9542
504 2 2.2208 2.35112 15.3646 16.4083
505 2 2.2208 2.31994 21.0353 16.3083
506 1 -1.1104 3.85675 16.8395 17.737
507 1 -1.1104 3.52004 16.7385 15.0111
480 1 -1.1104 6.55892 19.7192 17.7311
485 1 -1.1104 6.44436 14.0889 15.104
487 1 -1.1104 6.37466 19.6325 14.8423
490 1 -1.1104 6.65925 17.0124 17.8168
479 1 -1.1104 6.46224 14.041 17.9116
495 1 -1.1104 6.38318 16.7363 14.9937
488 1 -1.1104 6.59951 19.5991 20.6221
484 1 -1.1104 0.842715 19.7344 20.5355
503 1 -1.1104 3.75496 19.5601 20.525
482 1 -1.1104 0.875607 13.9234 20.4909
496 1 -1.1104 6.55407 16.9474 20.6225
494 1 -1.1104 0.915521 16.8243 20.7143
508 1 -1.1104 3.74756 16.7734 20.7037
501 1 -1.1104 3.62559 14.0221 20.5543
486 1 -1.1104 6.54749 14.2165 20.5382
539 2 2.2208 13.4171 18.4515 13.5838
719 2 2.2208 13.5687 18.2405 19.2373
718 2 2.2208 13.4053 15.4615 16.3986
512 2 2.2208 10.6893 18.3214 16.5376
513 1 -1.1104 12.1246 14.0063 17.7273
514 1 -1.1104 12.098 19.6262 17.9959
515 1 -1.1104 12.1235 14.0747 14.9372
517 1 -1.1104 12.1136 19.7199 15.0764
519 1 -1.1104 12.0855 16.8722 17.9419
520 2 2.2208 10.6565 15.6133 19.2276
521 2 2.2208 10.8244 21.1779 19.1728
522 1 -1.1104 11.9727 16.8584 15.0775
524 1 -1.1104 9.26505 14.0693 17.7634
525 1 -1.1104 9.3354 19.8045 17.8837
526 2 2.2208 8.00602 18.3404 19.1153
527 1 -1.1104 9.33974 14.1238 14.9637
529 1 -1.1104 9.36459 19.7316 15.0048
531 2 2.2208 7.8927 15.4205 16.4117
532 2 2.2208 8.1511 21.2712 16.3649
533 1 -1.1104 9.39593 16.8213 17.7988
534 1 -1.1104 9.1587 16.9378 14.9892
518 1 -1.1104 12.1517 19.7675 20.5707
516 1 -1.1104 12.0871 14.1087 20.5722
571 2 2.2208 2.29292 -4.2668 24.7083
535 1 -1.1104 9.31504 17.1119 20.4423
523 1 -1.1104 12.068 16.9305 20.6447
720 2 2.2208 13.585 21.0488 16.4264
691 1 -1.1104 9.28151 16.8722 23.3485
362 1 -1.1104 3.61566 -2.75516 20.4666
565 2 2.2208 2.26734 -1.34224 27.5123
566 2 2.2208 2.26853 4.34453 27.509
343 1 -1.1104 0.969429 -2.86695 20.3916
540 2 2.2208 5.13771 1.36006 22.1609
541 1 -1.1104 0.853848 -2.73366 23.3959
542 1 -1.1104 0.662482 2.92346 23.4945
545 1 -1.1104 0.898244 -2.78098 26.1684
546 1 -1.1104 0.900551 2.8121 26.2173
549 1 -1.1104 0.78425 0.0619095 23.3351
551 2 2.2208 4.9471 -1.41339 24.811
552 2 2.2208 4.88537 4.34661 24.8196
553 1 -1.1104 0.837023 -0.0322823 26.1597
555 1 -1.1104 3.60938 -2.97017 23.3632
556 1 -1.1104 3.49169 2.70775 23.5454
557 2 2.2208 2.13915 1.36965 24.8305
558 1 -1.1104 3.55037 -2.75552 26.2134
559 1 -1.1104 3.57174 2.90441 26.1765
560 2 2.2208 2.24874 -1.50108 21.9906
561 2 2.2208 2.19767 4.22864 21.9875
562 1 -1.1104 3.64699 -0.0333308 23.5366
563 1 -1.1104 3.57762 0.0882273 26.2764
548 1 -1.1104 6.32029 3.01617 26.1722
544 1 -1.1104 6.46635 2.86054 23.4459
543 1 -1.1104 6.35806 -2.74671 23.468
550 1 -1.1104 6.61725 0.0103123 23.4092
554 1 -1.1104 6.31013 0.122294 26.1994
547 1 -1.1104 6.41532 -2.63198 26.2632
405 2 2.2208 10.6987 -4.10991 16.4501
564 2 2.2208 4.9585 1.47261 27.5241
597 2 2.2208 13.434 -4.22647 24.8645
530 1 -1.1104 9.3376 19.7922 20.6129
377 2 2.2208 13.4821 4.35098 22.108
602 2 2.2208 13.4061 -1.34213 22.058
576 2 2.2208 10.6904 1.38673 22.041
577 1 -1.1104 12.028 -2.65374 23.5886
578 1 -1.1104 12.0517 2.81651 23.4694
579 1 -1.1104 12.1504 -2.79055 26.3252
580 1 -1.1104 11.9721 2.97205 26.3192
581 1 -1.1104 11.9884 -0.084376 23.4233
582 2 2.2208 10.6148 -1.3414 24.7148
583 2 2.2208 10.5556 4.29348 24.8237
584 1 -1.1104 11.9507 0.0583939 26.2202
585 1 -1.1104 9.2768 -2.70555 23.2923
586 1 -1.1104 9.30742 2.85668 23.3205
587 2 2.2208 7.85095 1.5673 24.8646
588 1 -1.1104 9.28005 -2.62124 26.1873
589 1 -1.1104 9.24543 2.78761 26.2678
590 2 2.2208 7.92478 -1.38748 22.0182
591 2 2.2208 7.80125 4.31331 21.969
592 1 -1.1104 9.21464 0.146142 23.5578
593 1 -1.1104 9.14378 0.0644984 26.3966
603 2 2.2208 13.3129 1.48573 24.8055
371 2 2.2208 5.06436 -4.15514 16.2881
604 2 2.2208 13.5442 4.19884 27.5832
594 2 2.2208 10.6647 1.41822 27.613
598 2 2.2208 10.806 -4.14071 27.5168
595 2 2.2208 7.83677 -1.31585 27.6082
596 2 2.2208 7.68958 4.30903 27.5353
438 1 -1.1104 3.5795 8.43137 20.4732
605 2 2.2208 5.0126 7.13304 22.0374
606 2 2.2208 5.05619 12.7158 21.9589
607 1 -1.1104 0.777055 8.54922 23.228
609 1 -1.1104 0.910167 8.45039 26.2668
611 1 -1.1104 0.835797 5.76037 23.3176
612 1 -1.1104 0.817356 11.2966 23.5522
615 2 2.2208 4.95646 9.82262 24.8852
616 1 -1.1104 0.788964 5.76377 26.0894
617 1 -1.1104 0.840243 11.1832 26.2578
620 1 -1.1104 3.71093 8.39897 23.4837
621 2 2.2208 2.24273 7.18757 24.7686
622 2 2.2208 2.20702 12.6417 24.8418
623 1 -1.1104 3.57813 8.59611 26.264
624 2 2.2208 2.28389 9.75802 21.9653
625 1 -1.1104 3.71205 5.6249 23.3821
626 1 -1.1104 3.67607 11.2394 23.4017
627 1 -1.1104 3.57827 5.81733 26.1134
628 1 -1.1104 3.67129 11.3682 26.2624
608 1 -1.1104 6.38066 8.57092 23.5014
614 1 -1.1104 6.47235 11.3251 23.4455
420 1 -1.1104 6.37468 8.4383 20.6603
619 1 -1.1104 6.67585 11.325 26.2452
613 1 -1.1104 6.52812 5.77122 23.4141
610 1 -1.1104 6.45032 8.5158 26.2217
618 1 -1.1104 6.44589 5.80279 26.2429
631 2 2.2208 5.10316 12.5642 27.6358
372 2 2.2208 2.25899 -4.16489 19.1579
629 2 2.2208 4.97473 6.92925 27.6027
659 2 2.2208 13.4336 7.06835 24.8227
657 2 2.2208 13.4637 12.6819 24.8018
654 2 2.2208 10.6551 7.04697 27.647
636 1 -1.1104 9.33223 11.2466 26.3986
637 1 -1.1104 9.12043 5.60647 26.1371
638 1 -1.1104 9.3462 11.2935 23.4624
639 1 -1.1104 9.38371 5.64341 23.4528
640 2 2.2208 7.7091 9.96618 21.944
641 1 -1.1104 9.22313 8.372 26.2062
642 2 2.2208 7.93185 12.6376 24.7646
643 2 2.2208 7.71865 7.1737 24.7234
644 2 2.2208 10.5886 7.25146 22.1597
645 2 2.2208 10.532 12.7437 21.9987
646 1 -1.1104 12.0271 8.45563 23.5011
647 1 -1.1104 12.1519 8.45653 26.2486
648 1 -1.1104 12.1059 5.72952 23.5343
649 1 -1.1104 12.0819 11.2675 23.3181
650 2 2.2208 10.6466 9.81475 25.0015
651 1 -1.1104 12.1425 5.67847 26.1409
652 1 -1.1104 12.1487 11.2082 26.246
653 1 -1.1104 9.14857 8.56102 23.4103
376 2 2.2208 13.5521 10.0227 22.0604
656 2 2.2208 10.7125 12.6054 27.7405
655 2 2.2208 7.93306 9.76719 27.7189
658 2 2.2208 13.5487 9.80465 27.6763
663 1 -1.1104 6.49064 16.8436 26.2666
678 1 -1.1104 6.4819 16.9031 23.4892
661 1 -1.1104 6.46763 13.9833 26.1691
682 2 2.2208 2.35123 15.4061 21.9969
681 2 2.2208 2.39273 21.0149 21.9294
680 1 -1.1104 3.625 16.8776 23.3769
679 1 -1.1104 0.86728 16.9554 23.4789
677 1 -1.1104 3.78245 14.154 26.2128
676 1 -1.1104 3.64663 16.8331 26.2887
675 2 2.2208 2.30158 18.1368 24.8462
668 2 2.2208 5.16469 21.157 24.7454
674 1 -1.1104 3.54354 19.5832 26.1978
673 2 2.2208 5.06446 18.2469 22.0256
672 1 -1.1104 0.902084 14.0571 23.4977
666 1 -1.1104 0.871106 14.0673 26.1424
665 1 -1.1104 0.755725 16.8512 26.2301
671 1 -1.1104 0.84029 19.6686 23.3364
664 1 -1.1104 0.743177 19.6095 26.1145
669 2 2.2208 5.11285 15.4791 24.8704
660 1 -1.1104 3.74851 19.7136 23.3206
662 1 -1.1104 3.68136 14.0984 23.3804
670 1 -1.1104 6.50164 14.1274 23.4559
696 1 -1.1104 6.31754 19.6581 26.2424
667 1 -1.1104 6.46372 19.8252 23.3473
700 1 -1.1104 12.037 16.8376 26.1218
684 2 2.2208 4.91687 18.296 27.7768
693 2 2.2208 7.90928 15.4836 22.0578
705 1 -1.1104 12.1451 13.9046 26.292
404 2 2.2208 13.5658 21.0596 21.9393
703 1 -1.1104 12.1347 16.9124 23.3159
370 2 2.2208 13.5553 15.3829 22.0077
699 1 -1.1104 9.31585 14.0821 23.4792
374 2 2.2208 13.3153 15.5158 27.6065
373 2 2.2208 13.4335 18.3437 24.7624
707 1 -1.1104 12.0122 14.0443 23.3805
408 2 2.2208 7.79627 15.4323 27.6928
528 1 -1.1104 9.22899 14.1493 20.7648
697 2 2.2208 7.79529 18.2926 24.7539
698 1 -1.1104 9.22044 19.7766 23.4276
694 1 -1.1104 9.23542 19.7622 26.424
692 2 2.2208 7.93832 21.1333 21.9784
704 1 -1.1104 12.0858 19.596 26.1279
702 2 2.2208 10.6872 15.4452 24.7429
701 2 2.2208 10.6886 21.2628 24.8371
695 1 -1.1104 9.31197 14.1357 26.2471
708 2 2.2208 10.6742 18.3151 21.9803
690 1 -1.1104 9.23326 17.0379 26.1286
538 2 2.2208 7.82687 18.2639 13.5933
685 2 2.2208 2.1774 15.3912 27.5618
575 2 2.2208 7.83119 21.0539 27.641
375 2 2.2208 13.4526 21.0998 27.5165
574 2 2.2208 10.542 18.3397 27.6212
473 2 2.2208 7.85188 7.10288 13.5486
723 2 2.2208 5.056 23.9644 5.18315
724 2 2.2208 5.29797 29.4028 5.27436
725 1 -1.1104 0.82226 25.272 0.860369
726 1 -1.1104 0.935312 25.2872 3.66948
727 1 -1.1104 0.88823 22.5605 0.978185
728 1 -1.1104 0.877732 28.0533 1.02884
729 2 2.2208 5.03207 26.7537 2.21615
730 1 -1.1104 0.709894 22.4785 3.63479
731 1 -1.1104 0.923365 28.1114 3.84503
732 1 -1.1104 3.66922 25.3648 0.994112
733 2 2.2208 2.21961 23.9121 2.3275
734 2 2.2208 2.45974 29.6144 2.48071
735 1 -1.1104 3.6649 25.3147 3.7722
736 2 2.2208 2.2817 26.6865 5.07174
737 1 -1.1104 3.75368 22.6114 0.866645
738 1 -1.1104 3.68283 28.2187 0.950243
739 1 -1.1104 3.53218 22.4046 3.64692
740 1 -1.1104 3.70599 28.1147 3.74619
872 1 -1.1104 3.83772 28.1128 6.49575
1026 2 2.2208 10.8666 43.6099 8.06607
744 1 -1.1104 6.44916 25.4288 0.757297
749 1 -1.1104 6.53381 28.0462 3.71234
745 1 -1.1104 6.40212 25.3072 3.75301
748 1 -1.1104 6.29403 22.5094 3.8297
747 1 -1.1104 6.59895 28.2617 0.984333
746 1 -1.1104 6.49917 22.4959 1.08629
869 1 -1.1104 6.63792 28.0779 6.53612
866 1 -1.1104 0.901134 22.5108 6.52624
864 1 -1.1104 0.766621 25.1788 6.66473
870 1 -1.1104 3.73295 25.4259 6.68352
871 1 -1.1104 3.62753 22.5086 6.37086
867 1 -1.1104 1.05871 28.1035 6.57458
868 1 -1.1104 6.44728 22.6086 6.67286
750 2 2.2208 10.6408 23.9151 5.17023
751 2 2.2208 10.8108 29.6116 5.20078
752 1 -1.1104 11.9675 25.4701 0.935462
753 1 -1.1104 11.9085 25.3359 3.7749
754 1 -1.1104 12.0892 22.5738 0.835834
755 1 -1.1104 12.1988 28.1514 0.893769
756 2 2.2208 10.6761 26.8413 2.33253
757 1 -1.1104 12.1498 22.5614 3.74916
758 1 -1.1104 12.2112 28.1083 3.72325
759 1 -1.1104 9.21159 25.4316 0.885597
760 2 2.2208 7.78738 24.0291 2.34351
761 2 2.2208 7.9779 29.5861 2.44891
762 1 -1.1104 9.24718 25.2609 3.63894
763 2 2.2208 7.87514 26.6383 5.26476
764 1 -1.1104 9.32507 22.6011 0.854543
765 1 -1.1104 9.26842 28.2843 1.02249
766 1 -1.1104 9.20604 22.5953 3.76091
767 1 -1.1104 9.29834 28.0449 3.75063
1017 1 -1.1104 9.3426 44.9426 12.2741
769 2 2.2208 13.5162 29.5741 2.28796
1299 2 2.2208 8.01546 26.866 -0.347334
768 2 2.2208 13.3706 24.0029 2.2204
770 2 2.2208 13.613 26.78 5.2033
901 1 -1.1104 9.15716 22.508 6.46658
865 1 -1.1104 6.50585 25.3142 6.63752
902 1 -1.1104 9.43413 28.1662 6.52852
1035 1 -1.1104 12.1818 42.0464 9.43776
1019 2 2.2208 7.97397 43.5687 10.8067
771 2 2.2208 5.18792 35.1102 5.32428
772 1 -1.1104 0.989158 30.9279 1.15071
773 1 -1.1104 0.81084 36.5924 1.0391
775 1 -1.1104 1.0148 31.043 3.91616
776 1 -1.1104 0.951952 36.5857 3.88962
778 1 -1.1104 0.894033 33.7393 0.932026
779 2 2.2208 5.05796 32.2812 2.46524
780 2 2.2208 5.19378 37.9502 2.51327
781 1 -1.1104 0.783222 33.8059 3.7919
783 1 -1.1104 3.69951 31.0062 1.14275
784 1 -1.1104 3.59081 36.5451 1.08074
785 2 2.2208 2.33311 35.1473 2.48895
786 1 -1.1104 3.73395 30.8975 3.96023
787 1 -1.1104 3.77049 36.6125 3.86574
788 2 2.2208 2.32823 32.3962 5.37277
789 2 2.2208 2.37198 37.8783 5.31211
790 1 -1.1104 3.7816 33.7806 1.11507
791 1 -1.1104 3.59848 33.9091 3.99745
923 1 -1.1104 6.64448 30.896 6.54376
797 1 -1.1104 6.61819 33.8388 0.905645
777 1 -1.1104 6.51872 36.5854 3.87058
774 1 -1.1104 6.59949 36.652 0.969448
796 1 -1.1104 6.57654 30.8782 3.82261
782 1 -1.1104 6.41694 33.662 3.84968
922 1 -1.1104 0.878401 36.3952 6.85428
928 1 -1.1104 3.75154 36.4763 6.70725
921 1 -1.1104 0.802844 31.1222 6.6342
925 1 -1.1104 1.08823 33.7637 6.65656
984 1 -1.1104 6.62849 39.4145 9.63836
924 1 -1.1104 6.69247 36.4508 6.62716
795 1 -1.1104 6.52132 30.8983 0.874045
798 2 2.2208 10.7556 35.1214 5.20726
799 1 -1.1104 12.1007 30.8944 0.940604
800 1 -1.1104 12.1726 36.4153 1.04112
801 1 -1.1104 12.299 31.0036 3.84143
802 1 -1.1104 12.2124 36.5549 3.6528
803 1 -1.1104 12.1104 33.675 0.978734
804 2 2.2208 10.8514 32.3169 2.29133