ITEM: TIMESTEP
30000
ITEM: NUMBER OF ATOMS
17910
ITEM: BOX BOUNDS pp pp pp
-3.5350742560657622e-01 2.7693507425606377e+01
-4.1741154643183283e+00 3.3225411546431081e+02
-3.5154529002817264e-01 2.7691545290028309e+01
ITEM: ATOMS id type q x y z
1 2 2.2208 5.45859 1.37341 5.2438
2 1 -1.1104 1.19623 -2.99681 1.10057
3 1 -1.1104 1.17308 2.94144 1.07851
6 1 -1.1104 1.26243 -2.9431 3.94841
7 1 -1.1104 1.14281 2.75887 3.72663
10 1 -1.1104 1.34841 -0.0441241 1.16781
12 2 2.2208 5.5057 -1.33668 2.47024
13 2 2.2208 5.4085 4.2022 2.54999
14 1 -1.1104 1.31275 0.0826836 3.92757
16 1 -1.1104 4.1225 -2.72484 1.14774
17 1 -1.1104 3.87997 2.68287 1.08492
18 2 2.2208 2.56902 1.49562 2.55375
19 1 -1.1104 4.01527 -2.82407 3.95562
20 1 -1.1104 4.05831 2.86047 4.00897
21 2 2.2208 2.64114 -1.36099 5.42654
23 1 -1.1104 4.1177 0.00330365 1.03006
24 1 -1.1104 4.11217 -0.0137379 3.81263
29 2 2.2208 5.39563 -4.03614 5.39885
22 2 2.2208 2.46821 4.19444 5.3051
27 2 2.2208 -0.272877 4.16766 2.46204
9772 2 2.2208 -0.163639 1.42032 5.39019
25 2 2.2208 -0.159515 -1.56501 2.58341
565 2 2.2208 2.55129 -1.40267 -0.167365
28 2 2.2208 2.61079 -4.30797 2.53481
30 2 2.2208 -0.186574 -4.17407 5.45056
170 1 -1.1104 1.26274 0.0601879 6.76152
598 2 2.2208 10.9178 -4.24044 -0.113848
11 1 -1.1104 6.85718 0.111667 1.0865
4 1 -1.1104 6.89496 -2.78044 1.18173
9 1 -1.1104 6.73817 2.79394 3.97743
15 1 -1.1104 6.99417 -0.0853568 3.92816
5 1 -1.1104 6.70084 2.79777 1.19943
8 1 -1.1104 6.90156 -2.77695 3.99983
31 2 2.2208 11.0272 1.36344 5.39307
32 1 -1.1104 12.3837 -2.74177 1.21308
33 1 -1.1104 12.2416 2.86098 1.11081
34 1 -1.1104 12.4108 -2.77623 3.9397
35 1 -1.1104 12.4779 2.70749 4.1913
36 1 -1.1104 12.3625 0.114176 1.26156
37 2 2.2208 10.9923 -1.4183 2.59867
38 2 2.2208 10.9896 4.17653 2.57038
39 1 -1.1104 12.4456 -0.0224656 3.87537
40 1 -1.1104 9.56806 -2.78072 1.23368
41 1 -1.1104 9.55612 2.82627 1.30292
42 2 2.2208 8.25051 1.47523 2.60729
43 1 -1.1104 9.75449 -2.84774 3.97575
44 1 -1.1104 9.69301 2.89197 4.07361
45 2 2.2208 8.24943 -1.38324 5.35547
46 2 2.2208 8.30939 4.34075 5.43054
47 1 -1.1104 9.57352 0.0760034 1.18227
48 1 -1.1104 9.80652 -0.0599449 4.06763
596 2 2.2208 8.04025 4.06404 -0.209302
595 2 2.2208 8.23198 -1.40004 -0.220125
51 2 2.2208 8.24847 -4.11253 2.66654
168 1 -1.1104 6.76254 -2.72741 6.7509
594 2 2.2208 11.0333 1.38243 -0.248249
209 1 -1.1104 9.55415 2.84062 6.86218
171 1 -1.1104 6.76556 -0.0635919 6.72306
207 1 -1.1104 12.4251 -0.00296834 6.71147
54 2 2.2208 5.28864 7.00564 5.41029
55 2 2.2208 5.43598 12.6358 5.1561
56 1 -1.1104 1.23335 8.39596 1.19604
58 1 -1.1104 1.05284 8.41187 4.01532
60 1 -1.1104 1.19028 5.64485 1.11421
61 1 -1.1104 1.11647 11.0124 0.907745
66 2 2.2208 5.44664 9.83569 2.37135
67 1 -1.1104 1.05043 5.54148 3.84494
68 1 -1.1104 1.29892 11.1028 3.86896
71 1 -1.1104 4.00327 8.46678 1.09947
72 2 2.2208 2.52268 6.96552 2.53674
73 2 2.2208 2.60453 12.4625 2.55097
74 1 -1.1104 3.95893 8.39683 3.949
75 2 2.2208 2.58276 9.73597 5.28181
76 1 -1.1104 4.19238 5.51738 1.25019
77 1 -1.1104 3.95836 11.2729 0.99853
79 1 -1.1104 3.92897 5.62156 3.833
80 1 -1.1104 4.05682 11.1234 3.68895
82 2 2.2208 -0.173615 9.7807 2.49426
9774 2 2.2208 -0.357772 6.9823 5.38538
629 2 2.2208 5.4647 6.89798 -0.307215
631 2 2.2208 5.45476 12.4857 -0.408098
83 2 2.2208 -0.14168 12.5175 5.21712
635 2 2.2208 -0.145613 6.97458 -0.174827
630 2 2.2208 2.63735 9.7784 -0.326263
632 2 2.2208 -0.0411982 12.5644 -0.448708
59 1 -1.1104 6.70431 8.24851 4.15073
70 1 -1.1104 6.88239 11.1856 3.85196
57 1 -1.1104 6.79813 8.30174 1.06571
69 1 -1.1104 6.80291 5.71286 4.03799
63 1 -1.1104 6.85846 5.65187 1.01707
64 1 -1.1104 6.85378 11.1627 0.963668
84 2 2.2208 10.9898 7.09176 5.49048
85 2 2.2208 11.1241 12.5891 5.20912
86 1 -1.1104 12.4806 8.42423 1.32292
87 1 -1.1104 12.3906 8.41892 4.07825
88 1 -1.1104 12.4464 5.55002 1.2024
89 1 -1.1104 12.3105 11.1258 0.997253
91 2 2.2208 10.9985 9.69598 2.50165
92 1 -1.1104 12.4002 5.67217 4.01699
93 1 -1.1104 12.4143 11.1898 3.78628
94 1 -1.1104 9.59345 8.4192 1.2231
95 2 2.2208 8.21048 7.00465 2.57797
96 2 2.2208 8.25193 12.6937 2.39866
97 1 -1.1104 9.58209 8.51534 3.96997
98 2 2.2208 8.14257 9.82461 5.42439
99 1 -1.1104 9.48854 5.48613 1.20512
100 1 -1.1104 9.60059 11.1473 1.0737
102 1 -1.1104 9.7085 5.64495 4.02131
103 1 -1.1104 9.68423 11.2419 3.92414
267 1 -1.1104 9.50354 8.27329 6.79431
237 1 -1.1104 6.9323 5.61986 6.82526
90 1 -1.1104 12.492 11.0478 6.73424
269 1 -1.1104 9.50304 5.62302 6.93389
265 1 -1.1104 12.3279 8.36606 6.76763
101 1 -1.1104 9.65037 11.0403 6.72667
656 2 2.2208 10.9493 12.6542 -0.255906
685 2 2.2208 2.6002 15.4009 -0.32495
106 2 2.2208 5.37694 18.1556 5.18887
107 1 -1.1104 1.10005 14.047 1.04014
109 1 -1.1104 1.07828 19.6323 0.984723
113 1 -1.1104 1.32492 13.8533 3.91826
114 1 -1.1104 1.18946 19.5039 3.74941
116 1 -1.1104 1.21011 16.7449 1.23519
119 2 2.2208 5.3623 15.3794 2.32786
120 2 2.2208 5.44911 20.9283 2.30334
121 1 -1.1104 1.12535 16.6718 3.94404
123 1 -1.1104 3.97711 13.857 0.992659
125 1 -1.1104 4.02924 19.5133 0.977257
127 2 2.2208 2.55247 18.1097 2.41403
128 1 -1.1104 3.97041 14.0045 3.71961
129 1 -1.1104 4.02945 19.4126 3.71904
130 2 2.2208 2.57557 15.3355 5.25464
131 2 2.2208 2.68055 20.9212 5.10171
132 1 -1.1104 3.88612 16.6584 1.04762
134 1 -1.1104 3.90859 16.7183 3.94375
137 2 2.2208 -0.136039 18.1976 5.03774
135 2 2.2208 -0.294139 15.3315 2.37664
683 2 2.2208 2.67769 20.9456 -0.406107
687 2 2.2208 -0.203296 18.2686 -0.434316
136 2 2.2208 -0.229906 21.0495 2.34833
684 2 2.2208 5.58153 18.2448 -0.461501
139 1 -1.1104 6.79646 19.5172 3.67279
138 1 -1.1104 6.75343 19.6978 0.919763
122 1 -1.1104 6.757 16.8156 3.76413
110 1 -1.1104 6.76848 13.8875 1.08112
140 1 -1.1104 6.84804 16.8075 1.0531
115 1 -1.1104 6.88193 14.0816 3.84077
143 1 -1.1104 12.4266 13.8767 6.70872
141 2 2.2208 11.0459 18.0825 5.21309
142 1 -1.1104 12.2905 13.8553 1.12373
144 1 -1.1104 12.4278 19.512 1.04057
146 1 -1.1104 12.545 13.9811 3.83656
147 1 -1.1104 12.5302 19.7118 3.96716
148 1 -1.1104 12.5165 16.8236 1.25491
150 2 2.2208 11.1027 15.4909 2.42981
151 2 2.2208 11.0499 20.9676 2.3563
152 1 -1.1104 12.4909 16.7858 3.90304
153 1 -1.1104 9.63799 14.0304 1.06284
155 1 -1.1104 9.72037 19.726 1.02457
157 2 2.2208 8.32462 18.297 2.30473
158 1 -1.1104 9.72922 14.0698 3.69245
159 1 -1.1104 9.6382 19.531 3.80626
160 2 2.2208 8.34296 15.408 5.08699
161 2 2.2208 8.14086 20.8477 5.20998
162 1 -1.1104 9.89121 16.844 1.01826
164 1 -1.1104 9.64878 16.846 3.80006
149 1 -1.1104 12.4456 16.7162 6.65304
163 1 -1.1104 9.54078 16.7819 6.54411
118 1 -1.1104 6.77976 16.8922 6.61393
154 1 -1.1104 9.71983 13.9257 6.48976
156 1 -1.1104 9.76076 19.5682 6.63655
574 2 2.2208 11.1901 18.1932 -0.367567
575 2 2.2208 8.24201 21.1415 -0.467925
166 1 -1.1104 1.23828 -2.67656 6.7688
9777 2 2.2208 -0.103357 -4.11928 10.9175
203 2 2.2208 5.29684 -4.06727 10.9419
174 1 -1.1104 4.08655 0.111808 6.73783
9775 2 2.2208 -0.11423 -1.37509 8.15823
199 2 2.2208 -0.206648 4.19351 8.22879
173 1 -1.1104 3.88847 2.92477 6.80229
167 1 -1.1104 1.24345 2.90099 6.6365
172 1 -1.1104 3.91209 -2.57447 6.83622
175 2 2.2208 5.43971 1.48488 10.8723
176 1 -1.1104 1.14584 -2.67036 12.4427
177 1 -1.1104 1.15788 2.6505 12.2668
180 1 -1.1104 1.25422 -2.62999 9.63581
181 1 -1.1104 1.19532 2.85205 9.49049
184 1 -1.1104 1.04185 0.0855172 12.2902
186 2 2.2208 5.39006 -1.32156 8.10975
187 2 2.2208 5.35917 4.31238 8.01984
188 1 -1.1104 1.21161 0.000686944 9.52737
190 1 -1.1104 3.83058 -2.87029 12.4687
191 1 -1.1104 3.87186 2.76738 12.3525
192 2 2.2208 2.57607 1.40823 8.22249
193 1 -1.1104 3.91894 -2.72748 9.54561
194 1 -1.1104 3.97586 3.02594 9.54955
195 2 2.2208 2.59756 -1.30749 10.9932
196 2 2.2208 2.65801 4.20008 10.9678
197 1 -1.1104 3.98585 0.0181203 12.218
198 1 -1.1104 4.02505 -0.00492059 9.50574
9776 2 2.2208 -0.224192 1.42357 10.9473
333 2 2.2208 5.41145 -1.41951 13.8311
208 1 -1.1104 9.55067 -2.82806 6.80246
232 2 2.2208 10.9268 -4.19867 11.0739
205 1 -1.1104 12.3936 -2.83357 6.70203
206 1 -1.1104 12.4547 2.87908 6.96632
231 2 2.2208 8.15992 -4.13563 8.26326
179 1 -1.1104 6.74523 2.81551 12.41
169 1 -1.1104 6.66651 2.779 6.77369
210 1 -1.1104 9.5243 0.084827 6.87563
178 1 -1.1104 6.7566 -2.66289 12.3405
185 1 -1.1104 6.78677 -0.0219863 12.5779
182 1 -1.1104 6.70414 -2.7269 9.47371
189 1 -1.1104 6.84587 0.101058 9.61829
183 1 -1.1104 6.79091 2.9134 9.60443
211 2 2.2208 10.9543 1.41678 11.1964
212 1 -1.1104 12.3179 -2.86956 12.4758
213 1 -1.1104 12.3904 2.7352 12.4495
214 1 -1.1104 12.3402 -2.857 9.62958
215 1 -1.1104 12.4052 2.73975 9.69852
216 1 -1.1104 12.2624 -0.15218 12.4458
217 2 2.2208 10.999 -1.3407 8.16351
218 2 2.2208 10.9269 4.25504 8.26489
219 1 -1.1104 12.3694 -0.110472 9.68986
220 1 -1.1104 9.51292 -2.64414 12.5635
221 1 -1.1104 9.52863 2.88395 12.489
222 2 2.2208 8.10242 1.38288 8.16371
223 1 -1.1104 9.4512 -2.8426 9.70978
224 1 -1.1104 9.61605 2.79278 9.58168
225 2 2.2208 8.14093 -1.29804 10.9897
227 1 -1.1104 9.49663 0.174171 12.3786
228 1 -1.1104 9.64096 -0.0352428 9.60027
226 2 2.2208 8.10247 4.25099 10.9868
412 2 2.2208 11.0096 4.12495 13.758
9708 2 2.2208 -0.136559 9.85533 8.0476
62 1 -1.1104 1.09593 11.2712 6.5148
78 1 -1.1104 3.95665 11.1314 6.6876
238 1 -1.1104 3.88787 8.34472 6.73781
236 1 -1.1104 1.20434 5.72448 6.69046
234 1 -1.1104 1.14758 8.39451 6.72909
239 1 -1.1104 4.00814 5.6613 6.64993
9701 2 2.2208 -0.109412 12.62 10.8952
9709 2 2.2208 -0.215715 7.07808 10.9405
240 2 2.2208 5.40415 7.00049 11.12
241 2 2.2208 5.33422 12.6162 10.8264
242 1 -1.1104 1.1619 8.41726 12.3633
244 1 -1.1104 1.21433 8.54604 9.53685
246 1 -1.1104 1.0963 5.54865 12.2905
247 1 -1.1104 1.23824 11.2338 12.2864
250 2 2.2208 5.31349 9.82302 8.10527
251 1 -1.1104 1.35312 5.66349 9.57733
252 1 -1.1104 1.11872 11.2597 9.39415
255 1 -1.1104 3.99633 8.43561 12.3718
256 2 2.2208 2.55118 7.07047 8.16913
257 2 2.2208 2.67483 12.6304 7.97192
258 1 -1.1104 3.94004 8.29811 9.59997
259 2 2.2208 2.57077 9.84495 10.8916
260 1 -1.1104 4.07861 5.586 12.3462
261 1 -1.1104 3.98711 11.0903 12.2389
262 1 -1.1104 4.11033 5.6718 9.61639
263 1 -1.1104 4.0082 11.0921 9.45809
447 2 2.2208 5.4282 9.90085 13.7486
9930 2 2.2208 -0.187853 9.83915 13.7356
266 1 -1.1104 12.3976 5.74121 6.8069
235 1 -1.1104 6.71988 8.45097 6.88227
248 1 -1.1104 6.88743 5.60242 12.424
65 1 -1.1104 6.65822 11.1988 6.65157
253 1 -1.1104 6.79225 5.67069 9.67075
245 1 -1.1104 6.74869 8.40656 9.57164
254 1 -1.1104 6.76335 11.2387 9.39824
249 1 -1.1104 6.69869 11.1484 12.2301
243 1 -1.1104 6.81898 8.3345 12.5234
264 1 -1.1104 9.49934 11.1857 9.49815
268 1 -1.1104 9.6305 5.56981 9.78845
270 1 -1.1104 9.52753 11.1704 12.1373
271 1 -1.1104 9.64148 5.58274 12.5902
272 2 2.2208 8.10224 9.69234 10.9529
273 1 -1.1104 9.6725 8.31785 9.36933
274 2 2.2208 8.19782 12.6781 7.94684
275 2 2.2208 8.05903 7.04296 8.31237
276 2 2.2208 10.9357 6.9952 11.0098
277 2 2.2208 11.0064 12.5694 10.7764
278 1 -1.1104 12.4322 8.33937 12.3214
279 1 -1.1104 12.429 8.23068 9.63299
280 1 -1.1104 12.4566 5.55225 12.3736
281 1 -1.1104 12.3655 11.3441 12.4545
282 2 2.2208 10.9962 9.7431 8.12954
283 1 -1.1104 12.3583 5.49694 9.61894
284 1 -1.1104 12.4332 10.998 9.38707
285 1 -1.1104 9.45005 8.44614 12.3869
313 2 2.2208 -0.147989 15.3741 8.11169
117 1 -1.1104 1.13967 16.8573 6.71493
302 1 -1.1104 1.22941 19.589 6.59326
108 1 -1.1104 1.1809 13.9737 6.67238
312 2 2.2208 -0.0956015 18.2429 10.9686
126 1 -1.1104 4.1033 19.5389 6.54938
133 1 -1.1104 3.91491 16.8359 6.6381
124 1 -1.1104 4.0251 14.0549 6.56331
311 2 2.2208 -0.165583 21.0819 7.87441
286 1 -1.1104 4.04462 19.549 12.1724
287 1 -1.1104 4.01537 13.9113 12.303
291 1 -1.1104 1.19459 19.5213 9.44838
292 1 -1.1104 1.30061 16.6138 9.55664
293 2 2.2208 5.21625 20.9428 7.98458
294 1 -1.1104 1.47429 13.8713 9.58534
295 2 2.2208 5.47136 15.4557 8.06914
298 1 -1.1104 1.41343 19.5573 12.3394
299 1 -1.1104 1.24177 14.0085 12.3947
300 2 2.2208 5.42607 18.2167 10.7842
301 1 -1.1104 3.98332 19.5252 9.41205
303 2 2.2208 2.60577 18.1236 8.03905
304 1 -1.1104 4.02766 16.8548 9.45043
305 1 -1.1104 4.21123 13.9364 9.37935
307 1 -1.1104 1.26544 16.7112 12.4587
308 1 -1.1104 4.02118 16.8314 12.2442
309 2 2.2208 2.64909 21.0008 10.7921
310 2 2.2208 2.54949 15.3142 10.9942
509 2 2.2208 2.73971 18.2502 13.6475
409 2 2.2208 -0.253758 15.3441 13.692
111 1 -1.1104 6.71919 14.0714 6.58631
289 1 -1.1104 6.8717 16.938 9.54675
201 1 -1.1104 12.6295 19.6952 12.3577
324 2 2.2208 11.0017 20.8086 8.08775
323 1 -1.1104 12.4695 16.6691 9.499
290 1 -1.1104 6.84171 14.0094 9.44287
306 1 -1.1104 6.88121 16.7492 12.3083
112 1 -1.1104 6.8213 19.5159 6.64263
296 1 -1.1104 6.92596 19.4965 12.2378
81 2 2.2208 10.9858 18.0818 10.9448
322 1 -1.1104 9.45112 14.0728 12.2957
321 1 -1.1104 9.78862 19.5999 12.3309
316 2 2.2208 8.29389 20.9544 10.8511
315 1 -1.1104 9.74742 16.7763 12.2774
319 1 -1.1104 9.59591 14.0145 9.19404
317 2 2.2208 8.14598 15.3722 10.7954
318 1 -1.1104 9.72035 19.4468 9.50919
325 2 2.2208 11.1941 15.3195 8.01172
200 1 -1.1104 12.2903 14.0614 12.3005
297 1 -1.1104 6.84732 13.8928 12.2785
320 2 2.2208 8.25922 18.2395 7.93144
314 1 -1.1104 9.68522 16.8006 9.51048
204 1 -1.1104 12.3454 13.9745 9.42914
288 1 -1.1104 6.757 19.6311 9.41089
229 1 -1.1104 12.529 19.4115 9.51566
230 1 -1.1104 12.4912 16.841 12.4148
145 1 -1.1104 12.5431 19.4717 6.71748
337 2 2.2208 5.30717 1.44991 16.5294
338 1 -1.1104 1.26407 -2.61769 17.9683
339 1 -1.1104 0.975639 2.8946 17.8497
342 1 -1.1104 1.23149 -3.01323 15.2993
344 1 -1.1104 1.16313 2.70649 15.0391
350 1 -1.1104 1.02097 0.128551 17.9938
352 2 2.2208 5.2134 -1.42774 19.4487
353 2 2.2208 5.39494 4.11054 19.4166
354 1 -1.1104 1.14418 -0.109085 15.0665
358 1 -1.1104 3.92587 -2.93714 17.9745
359 1 -1.1104 3.91334 2.84388 17.9117
360 2 2.2208 2.54543 1.30151 19.3722
361 1 -1.1104 3.98663 -2.98669 15.2761
363 1 -1.1104 3.99648 2.79446 15.2379
365 2 2.2208 2.46106 -1.37862 16.6385
366 2 2.2208 2.50185 4.10934 16.5086
367 1 -1.1104 3.86541 0.0689536 17.9661
368 1 -1.1104 3.94633 -0.188484 15.039
10137 2 2.2208 -0.246997 1.4213 16.4855
10138 2 2.2208 -0.296796 -1.3328 19.3721
378 2 2.2208 2.53047 1.29439 13.6808
379 2 2.2208 5.42279 4.32601 13.8166
711 2 2.2208 -0.161153 4.15385 13.6656
364 1 -1.1104 3.96964 2.60041 20.6566
369 1 -1.1104 3.9344 -0.101922 20.8265
371 2 2.2208 5.29634 -4.25858 16.6066
9854 2 2.2208 -0.336225 4.23781 19.2877
372 2 2.2208 2.48673 -4.18687 19.3917
10136 2 2.2208 -0.314649 -4.16471 16.5044
355 1 -1.1104 0.998175 0.0519243 20.7027
343 1 -1.1104 1.06044 -2.79216 20.7898
9784 2 2.2208 -0.273658 -1.42084 13.7829
340 1 -1.1104 6.69629 -2.64878 18.0916
351 1 -1.1104 6.72025 0.0465841 18.0362
356 1 -1.1104 6.64139 -0.0190597 15.3248
346 1 -1.1104 6.63645 -2.76798 15.1104
341 1 -1.1104 6.73516 2.78762 17.9516
348 1 -1.1104 6.73931 2.86257 15.1443
380 2 2.2208 10.8198 1.35373 16.6317
381 1 -1.1104 12.3575 -2.84251 18.1258
382 1 -1.1104 12.1837 2.83022 18.0896
383 1 -1.1104 12.2604 -2.73109 15.2179
385 1 -1.1104 12.1013 2.85255 15.2844
387 1 -1.1104 12.143 0.0457493 18.0957
388 2 2.2208 10.8746 -1.46044 19.5225
389 2 2.2208 11.0244 4.20632 19.5781
390 1 -1.1104 12.2587 0.120759 15.3265
392 1 -1.1104 9.47064 -2.90126 18.0944
393 1 -1.1104 9.61505 2.73383 18.1314
394 2 2.2208 8.14169 1.38772 19.4791
395 1 -1.1104 9.3275 -2.69491 15.3216
397 1 -1.1104 9.41667 2.73418 15.2383
399 2 2.2208 8.06495 -1.36379 16.6117
400 2 2.2208 8.18486 4.15076 16.5874
401 1 -1.1104 9.50308 -0.137745 18.1792
402 1 -1.1104 9.38249 0.0929118 15.3609
336 2 2.2208 10.91 -1.42912 13.7793
410 2 2.2208 8.15741 1.44318 13.8777
406 2 2.2208 8.12018 -4.14206 19.47
347 1 -1.1104 6.68187 -2.75078 20.8787
403 1 -1.1104 9.60342 -0.0771397 21.0498
357 1 -1.1104 6.73386 0.0154143 20.7855
717 2 2.2208 -0.381519 12.5762 16.6094
413 2 2.2208 5.34691 6.93153 16.6622
414 2 2.2208 5.3111 12.5933 16.4491
415 1 -1.1104 1.0501 8.38776 17.8688
417 1 -1.1104 1.13612 8.57612 15.062
421 1 -1.1104 1.00876 5.65138 17.9837
422 1 -1.1104 1.2299 11.0297 17.9452
425 2 2.2208 5.27059 9.8059 19.2659
426 1 -1.1104 1.30734 5.57593 15.0938
428 1 -1.1104 1.26685 11.2095 15.1503
434 1 -1.1104 3.87271 8.28806 17.8801
435 2 2.2208 2.48766 6.97353 19.3195
436 2 2.2208 2.52127 12.6587 19.2468
437 1 -1.1104 3.95985 8.34208 15.1692
439 2 2.2208 2.54379 9.84438 16.5739
440 1 -1.1104 3.8341 5.58314 17.8801
441 1 -1.1104 3.96345 11.2967 17.8323
442 1 -1.1104 3.99184 5.61095 15.092
444 1 -1.1104 4.01463 11.2034 15.0245
9927 2 2.2208 -0.0979894 6.97081 16.4049
448 2 2.2208 2.57455 12.5758 13.846
446 2 2.2208 2.63175 7.00507 13.7034
9926 2 2.2208 -0.226994 9.69881 19.257
418 1 -1.1104 1.11738 8.37806 20.6576
429 1 -1.1104 1.02685 11.1897 20.6591
445 1 -1.1104 3.84848 11.1715 20.6051
438 1 -1.1104 3.96963 8.30969 20.6675
433 1 -1.1104 6.59386 11.186 20.7078
423 1 -1.1104 6.6027 5.57897 18.1746
430 1 -1.1104 6.83056 5.52339 15.2557
419 1 -1.1104 6.737 8.43645 15.2552
432 1 -1.1104 6.8454 11.2007 14.993
416 1 -1.1104 6.81589 8.3814 18.0382
424 1 -1.1104 6.83387 11.3048 17.7985
449 2 2.2208 10.8295 6.94548 16.5926
450 2 2.2208 11.0109 12.6863 16.5558
451 1 -1.1104 12.384 8.43161 17.9241
452 1 -1.1104 12.3562 8.28714 15.122
454 1 -1.1104 12.1886 5.61734 18.0234
455 1 -1.1104 12.3939 11.3673 17.9504
456 2 2.2208 10.9042 9.71137 19.331
457 1 -1.1104 12.3787 5.58694 15.2035
459 1 -1.1104 12.3103 11.1579 15.2241
461 1 -1.1104 9.59627 8.29784 17.9149
462 2 2.2208 8.1836 6.96443 19.382
463 2 2.2208 8.0918 12.5437 19.2205
464 1 -1.1104 9.52369 8.32781 15.228
466 2 2.2208 8.29299 9.85604 16.5078
467 1 -1.1104 9.36995 5.48665 17.9186
468 1 -1.1104 9.624 11.1832 17.9309
469 1 -1.1104 9.51775 5.42687 15.2193
471 1 -1.1104 9.61123 11.2836 15.0416
473 2 2.2208 8.19834 6.99266 13.8473
475 2 2.2208 8.25714 12.6256 13.6331
465 1 -1.1104 9.46679 8.4615 20.6488
460 1 -1.1104 12.2629 11.1139 20.8131
472 1 -1.1104 9.50555 11.0946 20.5844
420 1 -1.1104 6.77838 8.3935 20.7004
474 2 2.2208 11.0047 9.76983 13.6975
476 2 2.2208 5.44919 18.303 16.4469
477 1 -1.1104 0.919531 13.841 18.0877
478 1 -1.1104 1.24951 19.683 17.9374
481 1 -1.1104 1.06478 13.9615 15.2054
483 1 -1.1104 1.37783 19.6148 15.1523
489 1 -1.1104 1.09771 16.8247 17.9986
491 2 2.2208 5.28785 15.4916 19.3636
492 2 2.2208 5.48932 21.0485 19.2209
493 1 -1.1104 1.33883 16.8928 15.0918
497 1 -1.1104 3.92637 14.19 17.8947
498 1 -1.1104 3.9989 19.804 17.7884
499 2 2.2208 2.58406 18.303 19.2625
500 1 -1.1104 3.8861 13.9898 15.0552
502 1 -1.1104 4.11988 19.686 14.9622
504 2 2.2208 2.59407 15.4929 16.497
505 2 2.2208 2.76961 21.1218 16.4751
506 1 -1.1104 3.77365 16.9877 17.9041
507 1 -1.1104 4.0382 16.824 15.135
411 2 2.2208 -0.127107 18.3283 16.5549
721 2 2.2208 -0.109454 20.9886 19.2195
722 2 2.2208 -0.290791 15.5641 19.223
407 2 2.2208 -0.155533 21.0819 13.5765
510 2 2.2208 5.46408 20.9957 13.5946
484 1 -1.1104 1.21001 19.629 20.8119
501 1 -1.1104 4.00509 14.0455 20.7663
511 2 2.2208 5.3518 15.4535 13.6714
479 1 -1.1104 6.55863 14.1184 17.745
485 1 -1.1104 6.81338 14.0012 15.0319
480 1 -1.1104 6.77477 19.7412 17.8368
487 1 -1.1104 6.95982 19.664 15.0154
495 1 -1.1104 6.80148 16.8726 15.1475
490 1 -1.1104 6.64512 16.9239 17.9619
512 2 2.2208 11.1793 18.1382 16.5785
513 1 -1.1104 12.3867 13.9381 17.8238
514 1 -1.1104 12.3266 19.591 17.8917
515 1 -1.1104 12.378 14.0024 15.0759
517 1 -1.1104 12.7264 19.6237 15.1725
519 1 -1.1104 12.4733 16.724 17.8597
520 2 2.2208 10.9885 15.3201 19.3354
521 2 2.2208 11.0761 21.1088 19.2258
522 1 -1.1104 12.369 16.7839 15.1189
524 1 -1.1104 9.55831 14.0807 17.8048
525 1 -1.1104 9.60967 19.4358 17.7658
526 2 2.2208 8.27045 18.203 19.1948
527 1 -1.1104 9.5657 14.1265 15.0924
529 1 -1.1104 9.95616 19.4815 15.1143
531 2 2.2208 8.1027 15.3791 16.4808
532 2 2.2208 8.34324 20.9875 16.5566
533 1 -1.1104 9.68375 16.7101 17.8983
534 1 -1.1104 9.69252 16.9169 15.2001
518 1 -1.1104 12.4833 19.5936 20.6448
523 1 -1.1104 12.3412 16.7469 20.731
538 2 2.2208 8.34759 18.2525 13.7198
536 2 2.2208 11.1878 20.9124 13.6536
528 1 -1.1104 9.60043 13.9235 20.731
535 1 -1.1104 9.52839 16.8058 20.6724
537 2 2.2208 10.8766 15.4457 13.8185
570 2 2.2208 5.24156 -4.28718 22.3066
568 2 2.2208 -0.3459 -4.3533 22.2133
9812 2 2.2208 -0.353965 4.22667 24.9487
345 1 -1.1104 1.14405 2.81443 20.637
362 1 -1.1104 3.82662 -2.81812 20.8861
540 2 2.2208 5.49829 1.40248 22.1643
541 1 -1.1104 1.1448 -2.8561 23.6434
542 1 -1.1104 1.16258 2.80261 23.5042
545 1 -1.1104 0.913755 -2.81448 26.3748
546 1 -1.1104 1.12798 2.83831 26.3263
549 1 -1.1104 1.15424 -0.0982019 23.6018
551 2 2.2208 5.38179 -1.45019 25.0107
552 2 2.2208 5.42387 4.15426 24.8453
553 1 -1.1104 1.14775 -0.029137 26.4506
555 1 -1.1104 4.01087 -2.91564 23.7587
556 1 -1.1104 4.01727 2.76485 23.4893
557 2 2.2208 2.644 1.38067 24.9129
558 1 -1.1104 3.86788 -2.81201 26.4796
559 1 -1.1104 3.99415 2.82539 26.3154
560 2 2.2208 2.5495 -1.34742 22.1912
561 2 2.2208 2.52972 4.14184 22.1129
562 1 -1.1104 3.93251 0.0165308 23.5827
563 1 -1.1104 3.91884 -0.0691253 26.3212
9816 2 2.2208 -0.234534 1.46557 22.1246
573 2 2.2208 -0.333543 -1.40188 24.9108
572 2 2.2208 -0.148012 1.39593 27.8407
566 2 2.2208 2.6305 4.12164 27.7339
564 2 2.2208 5.41925 1.34315 27.7828
599 2 2.2208 10.9835 -4.30926 22.239
398 1 -1.1104 9.64703 2.82532 21.0382
554 1 -1.1104 6.79853 -0.0114133 26.4254
349 1 -1.1104 6.84759 2.71318 20.7323
391 1 -1.1104 12.4903 0.048589 20.8483
384 1 -1.1104 12.2312 -2.63764 20.8906
547 1 -1.1104 6.7393 -2.72841 26.4968
550 1 -1.1104 6.76767 0.0644652 23.529
544 1 -1.1104 6.71338 2.88625 23.5782
548 1 -1.1104 6.78308 2.66595 26.3488
543 1 -1.1104 6.85213 -2.76551 23.6622
396 1 -1.1104 9.54658 -2.82921 20.9357
386 1 -1.1104 12.314 2.87441 20.9057
576 2 2.2208 11.1115 1.41515 22.2247
577 1 -1.1104 12.2395 -2.95702 23.7889
578 1 -1.1104 12.5001 2.82501 23.4885
579 1 -1.1104 12.3156 -2.70566 26.5985
580 1 -1.1104 12.3283 2.80199 26.3614
581 1 -1.1104 12.4786 -0.0424345 23.7144
582 2 2.2208 10.9905 -1.43998 25.1433
583 2 2.2208 11.0194 4.13187 25.0178
584 1 -1.1104 12.532 0.0372182 26.5384
585 1 -1.1104 9.55286 -2.82447 23.7854
586 1 -1.1104 9.64252 2.74795 23.7546
587 2 2.2208 8.21138 1.30658 24.9725
588 1 -1.1104 9.58474 -2.79245 26.4726
589 1 -1.1104 9.47695 2.73277 26.4447
590 2 2.2208 8.19851 -1.45973 22.1577
591 2 2.2208 8.27546 4.1813 22.2772
592 1 -1.1104 9.60041 -0.0738076 23.666
593 1 -1.1104 9.62296 -0.101892 26.4169
427 1 -1.1104 1.12418 5.55769 20.7315
443 1 -1.1104 3.83318 5.58456 20.7758
634 2 2.2208 -0.241594 12.5671 21.9657
605 2 2.2208 5.42527 7.00232 21.9689
606 2 2.2208 5.38099 12.6827 22.0996
607 1 -1.1104 1.49277 8.33817 23.5272
609 1 -1.1104 1.10903 8.38619 26.4609
611 1 -1.1104 1.21151 5.54405 23.5264
612 1 -1.1104 1.05386 11.0703 23.4704
615 2 2.2208 5.4109 9.76674 24.8542
616 1 -1.1104 1.22893 5.59715 26.3763
617 1 -1.1104 1.29572 11.2421 26.2682
620 1 -1.1104 4.12997 8.39702 23.3972
621 2 2.2208 2.61749 6.94623 24.9025
622 2 2.2208 2.60329 12.5866 24.8655
623 1 -1.1104 3.8563 8.30227 26.416
624 2 2.2208 2.48297 9.73266 22.0572
625 1 -1.1104 4.06542 5.4937 23.3439
626 1 -1.1104 4.03367 11.2354 23.4198
627 1 -1.1104 4.15851 5.40933 26.3921
628 1 -1.1104 3.98445 11.0697 26.2233
10105 2 2.2208 -0.128009 6.82223 22.0452
633 2 2.2208 -0.203929 9.67965 24.9065
458 1 -1.1104 12.472 5.6598 20.8904
453 1 -1.1104 12.1913 8.31047 20.7414
431 1 -1.1104 6.77855 5.53705 20.8329
610 1 -1.1104 6.50666 8.64565 26.5419
613 1 -1.1104 6.82079 5.66747 23.47
608 1 -1.1104 6.69489 8.29123 23.6015
470 1 -1.1104 9.63949 5.57854 20.8443
619 1 -1.1104 6.86958 11.3341 26.2685
618 1 -1.1104 6.82717 5.60193 26.2111
614 1 -1.1104 6.88875 11.1121 23.5214
636 1 -1.1104 9.73852 11.1222 26.2883
637 1 -1.1104 9.698 5.40288 26.532
638 1 -1.1104 9.54568 11.1039 23.4465
639 1 -1.1104 9.54344 5.54874 23.6375
640 2 2.2208 8.05033 9.69028 22.1328
641 1 -1.1104 9.44791 8.26188 26.5133
642 2 2.2208 8.26583 12.6029 24.8777
643 2 2.2208 8.35658 6.88201 25.0261
644 2 2.2208 11.0048 6.913 22.1887
645 2 2.2208 11.0454 12.6034 22.0427
646 1 -1.1104 12.313 8.41372 23.5887
647 1 -1.1104 12.3755 8.42445 26.3693
648 1 -1.1104 12.2481 5.58891 23.6641
649 1 -1.1104 12.4517 11.1728 23.4935
650 2 2.2208 11.0407 9.82854 24.9477
651 1 -1.1104 12.24 5.64201 26.4469
652 1 -1.1104 12.3691 11.3314 26.1722
653 1 -1.1104 9.54573 8.33859 23.5314
654 2 2.2208 10.9725 7.03395 27.8628
655 2 2.2208 8.11157 9.82376 27.615
689 2 2.2208 -0.200303 18.201 22.1261
494 1 -1.1104 1.09963 16.9766 20.5808
686 2 2.2208 -0.0904903 15.473 24.8081
503 1 -1.1104 3.98207 19.5693 20.7001
508 1 -1.1104 3.9006 16.7927 20.7209
688 2 2.2208 -0.120585 20.966 24.8667
482 1 -1.1104 1.1896 14.0372 20.7202
682 2 2.2208 2.52118 15.4499 22.0749
681 2 2.2208 2.75824 21.011 22.0802
680 1 -1.1104 3.92458 16.8254 23.5757
679 1 -1.1104 1.22807 16.8189 23.3299
677 1 -1.1104 3.8714 13.9333 26.2096
676 1 -1.1104 4.26311 16.7192 26.3476
675 2 2.2208 2.71791 18.2769 24.8081
668 2 2.2208 5.52924 21.0095 24.799
674 1 -1.1104 4.22377 19.4339 26.158
673 2 2.2208 5.35531 18.1449 22.0619
672 1 -1.1104 1.26425 14.0071 23.4208
666 1 -1.1104 1.25367 14.1323 26.2947
665 1 -1.1104 1.40921 16.996 26.1981
671 1 -1.1104 1.27975 19.5704 23.5893
664 1 -1.1104 1.12324 19.6044 26.2851
669 2 2.2208 5.32774 15.2745 24.8863
660 1 -1.1104 4.17791 19.7147 23.3619
662 1 -1.1104 3.95878 13.9564 23.5522
663 1 -1.1104 7.10545 16.8006 26.3232
516 1 -1.1104 12.3172 13.9668 20.7241
486 1 -1.1104 6.82132 14.0134 20.7006
496 1 -1.1104 6.78992 16.8034 20.6926
670 1 -1.1104 6.88633 14.088 23.5264
661 1 -1.1104 6.71362 13.9169 26.2672
696 1 -1.1104 6.92836 19.628 26.1383
678 1 -1.1104 6.9669 16.7497 23.4624
667 1 -1.1104 6.87329 19.6575 23.4459
707 1 -1.1104 12.3695 14.0157 23.557
704 1 -1.1104 12.4989 19.5837 26.2958
693 2 2.2208 8.2975 15.3248 22.0872
699 1 -1.1104 9.71991 13.9264 23.4069
690 1 -1.1104 9.76905 16.7385 26.353
692 2 2.2208 8.24287 21.0023 22.0635
701 2 2.2208 11.0947 20.995 24.8959
700 1 -1.1104 12.552 16.8212 26.433
697 2 2.2208 8.26895 18.2406 24.7979
703 1 -1.1104 12.5485 16.8309 23.5853
694 1 -1.1104 9.7365 19.534 26.2598
695 1 -1.1104 9.65324 13.8782 26.3061
705 1 -1.1104 12.4329 14.0238 26.3983
488 1 -1.1104 6.80963 19.5361 20.644
698 1 -1.1104 9.56986 19.6396 23.3035
530 1 -1.1104 9.5619 19.7473 20.5001
708 2 2.2208 10.9381 18.2054 22.086
706 1 -1.1104 12.4245 19.6298 23.4013
691 1 -1.1104 9.84289 16.5942 23.4461
702 2 2.2208 11.1575 15.3574 24.995
408 2 2.2208 8.23076 15.3243 27.6131
723 2 2.2208 5.41271 23.6975 5.2237
724 2 2.2208 5.31705 29.3171 5.21501
725 1 -1.1104 1.20506 25.265 1.07679
726 1 -1.1104 1.32053 25.2543 3.70644
727 1 -1.1104 1.2572 22.4352 0.891962
728 1 -1.1104 1.27076 27.9792 0.911963
729 2 2.2208 5.35703 26.5494 2.46262
730 1 -1.1104 1.37618 22.3077 3.63131
731 1 -1.1104 1.29204 27.9867 3.88602
732 1 -1.1104 3.97704 25.2661 0.979645
733 2 2.2208 2.55187 23.7021 2.32273
734 2 2.2208 2.56351 29.4242 2.4661
735 1 -1.1104 4.15361 25.1089 3.79265
736 2 2.2208 2.72527 26.6616 5.18762
737 1 -1.1104 3.97858 22.3823 0.922123
738 1 -1.1104 4.10596 28.1999 1.03767
739 1 -1.1104 4.10789 22.2356 3.8596
740 1 -1.1104 4.03207 27.9084 3.79446
743 2 2.2208 -0.173048 26.6581 2.42391
1268 2 2.2208 5.55193 23.8678 -0.430877
742 2 2.2208 -0.0190835 23.8509 5.13517
872 1 -1.1104 3.94874 28.1149 6.45977
741 2 2.2208 -0.125053 29.4498 5.23637
1269 2 2.2208 2.63732 26.6305 -0.413163
1271 2 2.2208 -0.0994793 29.3924 -0.464866
747 1 -1.1104 6.93188 27.9427 0.96992
1270 2 2.2208 5.37439 29.486 -0.37498
745 1 -1.1104 6.83667 25.0702 3.96101
748 1 -1.1104 6.85713 22.2879 3.81362
749 1 -1.1104 6.83224 27.7844 3.79513
746 1 -1.1104 6.79666 22.4381 1.09444
744 1 -1.1104 6.81563 25.0586 1.08768
750 2 2.2208 11.0883 23.743 5.24911
751 2 2.2208 11.0247 29.3949 5.21987
752 1 -1.1104 12.5484 25.1919 1.12682
753 1 -1.1104 12.4458 25.1869 3.86464
754 1 -1.1104 12.4563 22.3729 1.04391
755 1 -1.1104 12.5842 28.2035 1.1333
756 2 2.2208 10.9241 26.6204 2.52596
757 1 -1.1104 12.3554 22.4968 3.88922
758 1 -1.1104 12.439 28.0773 3.74373
759 1 -1.1104 9.69559 25.224 1.14283
760 2 2.2208 8.2246 23.7449 2.53598
761 2 2.2208 8.07635 29.3203 2.45364
762 1 -1.1104 9.71319 25.1773 3.89653
763 2 2.2208 8.26498 26.3612 5.40023
764 1 -1.1104 9.70487 22.5363 1.04248
765 1 -1.1104 9.80392 28.1354 1.18737
766 1 -1.1104 9.57044 22.3239 3.88692
767 1 -1.1104 9.4785 27.8993 3.85238
1304 2 2.2208 11.0486 29.5733 -0.323576
1299 2 2.2208 8.32452 26.5489 -0.304012
1298 2 2.2208 11.2095 23.7702 -0.153459
868 1 -1.1104 6.86758 22.355 6.69106
901 1 -1.1104 9.66209 22.2723 6.79235
768 2 2.2208 13.9184 23.7986 2.51962
771 2 2.2208 5.38177 35.0778 5.16019
772 1 -1.1104 1.15542 30.8032 0.978038
773 1 -1.1104 1.22559 36.435 0.887518
775 1 -1.1104 1.15335 30.8302 3.7775
776 1 -1.1104 1.26526 36.4426 3.79819
778 1 -1.1104 1.25127 33.7116 1.05979
779 2 2.2208 5.37372 32.2688 2.33746
780 2 2.2208 5.53511 37.7308 2.34331
781 1 -1.1104 1.3441 33.7208 3.71451
783 1 -1.1104 3.73646 30.9862 1.11057
784 1 -1.1104 3.98476 36.3448 0.956528
785 2 2.2208 2.68026 34.9752 2.32441
786 1 -1.1104 3.99301 30.9313 3.75624
787 1 -1.1104 3.9772 36.3972 3.73785
788 2 2.2208 2.54073 32.2862 5.18633
789 2 2.2208 2.5865 37.9634 5.07177
790 1 -1.1104 4.06419 33.5984 0.960166
791 1 -1.1104 3.99452 33.6539 3.81949
794 2 2.2208 -0.166092 35.0414 5.14054
793 2 2.2208 -0.0761856 32.2179 2.33679
1327 2 2.2208 2.6475 37.8851 -0.444041
1329 2 2.2208 5.4616 35.0231 -0.570661
792 2 2.2208 -0.209596 37.8215 2.3846
1330 2 2.2208 -0.189751 34.9849 -0.448857
1328 2 2.2208 2.63746 32.2682 -0.410402
777 1 -1.1104 6.79511 36.3946 3.72192
774 1 -1.1104 6.84491 36.391 1.0131
782 1 -1.1104 6.82136 33.6618 3.70866
795 1 -1.1104 6.76723 30.8402 0.959178
797 1 -1.1104 6.80216 33.5323 0.945705
796 1 -1.1104 6.77678 30.659 3.92704
798 2 2.2208 11.0268 35.0352 5.10045
799 1 -1.1104 12.4398 30.9221 1.08193
800 1 -1.1104 12.4073 36.4055 0.927578
801 1 -1.1104 12.4115 30.9555 3.81786
802 1 -1.1104 12.3956 36.491 3.80341
803 1 -1.1104 12.4668 33.686 0.989643
804 2 2.2208 11.0562 32.182 2.36764
805 2 2.2208 10.9474 37.7661 2.34758
806 1 -1.1104 12.5105 33.6741 3.84277
807 1 -1.1104 9.63277 30.89 1.01255