ITEM: TIMESTEP
40000
ITEM: NUMBER OF ATOMS
17910
ITEM: BOX BOUNDS pp pp pp
-3.6195779794035698e-01 2.7701957797940050e+01
-4.2246125260947451e+00 3.3230461252609143e+02
-3.5181409102669664e-01 2.7691814091026760e+01
ITEM: ATOMS id type q x y z
1 2 2.2208 5.31566 1.38901 5.24383
2 1 -1.1104 1.17202 -2.80965 1.12203
3 1 -1.1104 1.05764 2.85153 1.16545
6 1 -1.1104 1.13262 -2.70717 4.00275
7 1 -1.1104 0.958977 2.7522 3.87448
10 1 -1.1104 1.0265 0.000133355 1.14062
12 2 2.2208 5.36702 -1.36543 2.42497
13 2 2.2208 5.19702 4.18102 2.46893
14 1 -1.1104 1.09772 -0.0320333 4.03335
16 1 -1.1104 3.86035 -2.67603 0.949619
17 1 -1.1104 3.94443 2.77883 1.20629
18 2 2.2208 2.46428 1.46876 2.54672
19 1 -1.1104 3.90352 -2.87172 3.86327
20 1 -1.1104 3.6866 2.84912 3.94964
21 2 2.2208 2.60594 -1.43551 5.35013
23 1 -1.1104 3.8197 0.0654947 1.14515
24 1 -1.1104 3.86237 0.0148074 3.83578
22 2 2.2208 2.43017 4.22304 5.31748
11 1 -1.1104 6.72778 -0.0948461 1.15434
9 1 -1.1104 6.57437 2.79275 3.79792
8 1 -1.1104 6.76086 -2.84249 3.86507
29 2 2.2208 5.40594 -4.3066 5.31841
5 1 -1.1104 6.68517 2.78039 1.14825
15 1 -1.1104 6.7186 -0.0695875 3.76218
173 1 -1.1104 3.77039 2.65616 6.72745
174 1 -1.1104 3.89441 0.0369544 6.57231
28 2 2.2208 2.55227 -4.12452 2.49851
9772 2 2.2208 -0.400971 1.35725 5.31807
569 2 2.2208 5.28792 -4.1415 -0.310943
565 2 2.2208 2.39201 -1.36719 -0.227814
564 2 2.2208 5.25236 1.39689 -0.307178
566 2 2.2208 2.48185 4.28381 -0.300331
572 2 2.2208 -0.28624 1.39926 -0.291667
4 1 -1.1104 6.78377 -2.81083 0.982388
51 2 2.2208 8.07 -4.25636 2.55841
31 2 2.2208 10.893 1.3864 5.20601
32 1 -1.1104 12.2751 -2.86898 0.96075
33 1 -1.1104 12.2381 2.79154 1.21356
34 1 -1.1104 12.4285 -2.57151 3.89411
35 1 -1.1104 12.325 3.00609 3.99546
36 1 -1.1104 12.3476 0.0124605 1.02233
37 2 2.2208 11.0118 -1.36013 2.4408
38 2 2.2208 10.8393 4.26434 2.4791
39 1 -1.1104 12.3845 0.218504 3.87983
40 1 -1.1104 9.62986 -2.83635 1.21812
41 1 -1.1104 9.54964 2.72231 1.12107
42 2 2.2208 8.1361 1.38531 2.43394
43 1 -1.1104 9.58185 -2.78339 3.87552
44 1 -1.1104 9.36731 2.80527 3.8681
45 2 2.2208 8.12827 -1.3315 5.27916
46 2 2.2208 8.06564 4.26182 5.24657
47 1 -1.1104 9.54049 -0.120357 0.966081
48 1 -1.1104 9.59048 0.0414748 3.81569
9479 2 2.2208 13.7197 4.25064 5.26643
209 1 -1.1104 9.54783 2.88377 6.72885
50 2 2.2208 13.799 -1.35651 5.38236
53 2 2.2208 13.7466 -4.23421 2.49373
598 2 2.2208 10.8297 -4.27416 -0.302996
601 2 2.2208 13.7572 -1.41515 -0.328206
595 2 2.2208 8.01377 -1.44333 -0.287783
54 2 2.2208 5.41857 7.1111 5.30198
55 2 2.2208 5.32095 12.6209 5.35622
56 1 -1.1104 1.15895 8.47847 1.0912
58 1 -1.1104 0.999706 8.26832 3.82977
60 1 -1.1104 1.17896 5.63456 1.21084
61 1 -1.1104 1.0062 11.3235 1.14797
66 2 2.2208 5.25272 9.8768 2.52072
67 1 -1.1104 1.09632 5.45667 3.90946
68 1 -1.1104 1.03533 11.0853 4.04138
71 1 -1.1104 3.82124 8.44319 1.18554
72 2 2.2208 2.48679 7.08587 2.43698
73 2 2.2208 2.37909 12.5491 2.45907
74 1 -1.1104 3.78171 8.37848 3.84345
75 2 2.2208 2.44219 9.76338 5.36938
76 1 -1.1104 3.76969 5.67171 1.04133
77 1 -1.1104 3.71327 11.1909 1.15602
79 1 -1.1104 4.06559 5.63738 4.02096
80 1 -1.1104 3.86313 11.1702 3.87416
69 1 -1.1104 6.82594 5.64162 3.97145
70 1 -1.1104 6.68251 11.169 3.95173
57 1 -1.1104 6.73898 8.50772 0.901056
631 2 2.2208 5.2385 12.5441 -0.258365
9774 2 2.2208 -0.326343 6.89302 5.32728
82 2 2.2208 -0.273203 9.80286 2.56461
27 2 2.2208 -0.382695 4.17614 2.54717
630 2 2.2208 2.42229 9.94085 -0.352276
629 2 2.2208 5.24062 6.94035 -0.406486
63 1 -1.1104 6.60095 5.58759 1.07324
59 1 -1.1104 6.71675 8.61443 3.84729
64 1 -1.1104 6.62655 11.2208 1.05398
84 2 2.2208 10.8997 6.97199 5.38305
85 2 2.2208 10.7916 12.7397 5.31974
86 1 -1.1104 12.3017 8.45331 1.13767
87 1 -1.1104 12.3312 8.5041 3.89089
88 1 -1.1104 12.2044 5.71952 1.17064
89 1 -1.1104 12.1553 11.2871 1.15507
91 2 2.2208 10.9527 9.77969 2.61131
92 1 -1.1104 12.2133 5.7734 3.98386
93 1 -1.1104 12.1597 11.3763 4.03708
94 1 -1.1104 9.5494 8.51136 0.986709
95 2 2.2208 8.00216 7.13719 2.41556
96 2 2.2208 7.97875 12.5875 2.52097
97 1 -1.1104 9.40186 8.37554 3.97326
98 2 2.2208 8.04015 9.85659 5.25263
99 1 -1.1104 9.4168 5.72552 1.28308
100 1 -1.1104 9.33105 11.2692 1.03686
102 1 -1.1104 9.60066 5.53592 3.90007
103 1 -1.1104 9.39111 11.1926 4.00032
267 1 -1.1104 9.40792 8.36213 6.57538
105 2 2.2208 13.593 7.11921 2.51272
265 1 -1.1104 12.2434 8.41218 6.6036
104 2 2.2208 13.7103 12.6009 2.44229
269 1 -1.1104 9.40666 5.61278 6.66825
266 1 -1.1104 12.2959 5.62979 6.73415
656 2 2.2208 10.7933 12.7345 -0.187268
658 2 2.2208 13.6208 9.81467 -0.232257
655 2 2.2208 8.08457 9.84783 -0.482339
654 2 2.2208 10.9176 7.06119 -0.315082
106 2 2.2208 5.34598 18.1946 5.22876
107 1 -1.1104 1.04285 14.0036 1.17084
109 1 -1.1104 1.00392 19.809 1.20416
113 1 -1.1104 0.858506 13.8851 4.0138
114 1 -1.1104 1.07346 19.6856 3.91028
116 1 -1.1104 0.919701 16.8145 1.03845
119 2 2.2208 5.11958 15.3629 2.42311
120 2 2.2208 5.33418 20.9891 2.61443
121 1 -1.1104 0.900247 16.7724 3.89824
123 1 -1.1104 3.8536 13.9237 0.975943
125 1 -1.1104 3.86833 19.7874 1.29776
127 2 2.2208 2.3957 18.2192 2.55112
128 1 -1.1104 3.69234 13.9652 3.8729
129 1 -1.1104 3.84377 19.4467 3.96251
130 2 2.2208 2.43508 15.262 5.38469
131 2 2.2208 2.36324 21.0662 5.34033
132 1 -1.1104 3.81813 16.9086 1.12026
134 1 -1.1104 3.83373 16.7495 4.00258
139 1 -1.1104 6.75976 19.7239 4.06792
111 1 -1.1104 6.84829 13.9178 6.69555
138 1 -1.1104 6.63801 19.5356 1.27617
140 1 -1.1104 6.64859 16.7979 1.05062
122 1 -1.1104 6.70031 16.7765 3.92754
115 1 -1.1104 6.41837 13.9944 3.84259
118 1 -1.1104 6.59406 16.8204 6.73943
126 1 -1.1104 3.82004 19.5718 6.68958
108 1 -1.1104 1.06138 13.9774 6.69544
685 2 2.2208 2.44368 15.3108 -0.275726
684 2 2.2208 5.24833 18.3506 -0.259713
110 1 -1.1104 6.59452 14.0387 1.13124
328 2 2.2208 13.6497 15.5018 5.39185
143 1 -1.1104 12.1823 14.2728 6.67544
141 2 2.2208 10.8051 18.3656 5.40288
142 1 -1.1104 12.231 14.1361 1.09917
144 1 -1.1104 12.3031 19.7381 1.10582
146 1 -1.1104 12.0969 14.2652 3.99437
147 1 -1.1104 12.2325 19.639 3.90671
148 1 -1.1104 12.2076 16.9188 1.31648
150 2 2.2208 10.8821 15.5595 2.64537
151 2 2.2208 10.781 21.0164 2.44901
152 1 -1.1104 12.2487 16.9733 4.0272
153 1 -1.1104 9.41061 14.0263 1.21016
155 1 -1.1104 9.3788 19.5697 1.05423
157 2 2.2208 8.03251 18.1506 2.48118
158 1 -1.1104 9.36096 14.0365 4.05331
159 1 -1.1104 9.51266 19.6375 3.87401
160 2 2.2208 8.00302 15.4828 5.40296
161 2 2.2208 8.05788 21.1199 5.24403
162 1 -1.1104 9.54905 16.75 1.02007
164 1 -1.1104 9.32401 16.8749 3.98706
154 1 -1.1104 9.45699 14.1271 6.83046
327 2 2.2208 13.6314 21.0507 5.30872
149 1 -1.1104 12.1676 16.9952 6.94904
375 2 2.2208 13.734 21.1061 -0.198011
165 2 2.2208 13.6603 18.2424 2.71227
156 1 -1.1104 9.38271 19.5898 6.65478
575 2 2.2208 7.97149 21.0523 -0.18761
408 2 2.2208 8.04244 15.4426 -0.257913
167 1 -1.1104 0.932842 2.77039 6.73913
170 1 -1.1104 1.09984 -0.0829557 6.74227
166 1 -1.1104 1.14091 -2.91463 6.74215
172 1 -1.1104 3.97491 -2.82109 6.63876
203 2 2.2208 5.40342 -4.21036 10.7474
171 1 -1.1104 6.62071 -0.165998 6.64348
175 2 2.2208 5.19058 1.25142 11.0232
176 1 -1.1104 1.04101 -2.91154 12.2586
177 1 -1.1104 1.0559 2.79008 12.3134
180 1 -1.1104 0.950039 -2.8827 9.46496
181 1 -1.1104 1.03933 2.82435 9.46562
184 1 -1.1104 1.03735 -0.0919211 12.2832
186 2 2.2208 5.1979 -1.43672 8.17161
187 2 2.2208 5.07596 4.25615 8.11879
188 1 -1.1104 1.03552 -0.0883911 9.35911
190 1 -1.1104 3.87301 -2.83564 12.2531
191 1 -1.1104 3.89392 2.66502 12.3312
192 2 2.2208 2.41561 1.37434 8.09979
193 1 -1.1104 3.84531 -2.89311 9.62567
194 1 -1.1104 3.85127 2.65105 9.45051
195 2 2.2208 2.45979 -1.56557 11.0156
196 2 2.2208 2.46947 4.18262 10.9377
197 1 -1.1104 3.76333 -0.197305 12.4335
198 1 -1.1104 3.71175 -0.134546 9.6078
179 1 -1.1104 6.58516 2.62315 12.42
178 1 -1.1104 6.70897 -2.94239 12.3283
183 1 -1.1104 6.50938 2.69702 9.50025
378 2 2.2208 2.47474 1.34746 13.6578
333 2 2.2208 5.23149 -1.48417 13.6694
168 1 -1.1104 6.71711 -2.89032 6.66271
169 1 -1.1104 6.61306 2.614 6.67823
205 1 -1.1104 12.4804 -2.85392 6.71076
210 1 -1.1104 9.6047 0.0740277 6.6805
207 1 -1.1104 12.2166 -0.0202399 6.61467
208 1 -1.1104 9.54641 -2.65135 6.67388
206 1 -1.1104 12.2086 2.80319 6.70267
232 2 2.2208 10.9468 -4.20098 10.7949
189 1 -1.1104 6.48755 -0.0640492 9.45443
182 1 -1.1104 6.74023 -2.81935 9.38555
185 1 -1.1104 6.70613 -0.0568261 12.1674
334 2 2.2208 8.13626 -4.18246 13.6138
231 2 2.2208 8.27329 -4.19435 8.07391
9779 2 2.2208 13.738 -1.29542 10.8579
9778 2 2.2208 13.6164 1.47542 8.09064
211 2 2.2208 10.8532 1.4839 10.8014
212 1 -1.1104 12.3144 -2.88395 12.3693
213 1 -1.1104 12.1414 2.79792 12.2121
214 1 -1.1104 12.2674 -2.71318 9.44474
215 1 -1.1104 12.248 2.90232 9.49781
216 1 -1.1104 12.2787 -0.00880967 12.2115
217 2 2.2208 10.9792 -1.36933 8.07072
218 2 2.2208 10.8148 4.30805 8.05412
219 1 -1.1104 12.3554 -0.0748023 9.49315
220 1 -1.1104 9.55581 -2.8047 12.1856
221 1 -1.1104 9.40255 2.8633 12.2079
222 2 2.2208 7.99872 1.31714 8.12759
223 1 -1.1104 9.47175 -2.71569 9.37629
224 1 -1.1104 9.43967 2.79797 9.41789
225 2 2.2208 8.08789 -1.34428 10.8283
227 1 -1.1104 9.47658 0.00355827 12.3217
228 1 -1.1104 9.49329 0.207602 9.4096
226 2 2.2208 7.97397 4.20237 10.817
412 2 2.2208 10.7823 4.22783 13.6894
9815 2 2.2208 13.6392 1.4722 13.7182
410 2 2.2208 8.06988 1.37935 13.6332
238 1 -1.1104 3.76698 8.38677 6.71468
65 1 -1.1104 6.72706 11.2197 6.69616
235 1 -1.1104 6.59966 8.44617 6.70373
237 1 -1.1104 6.48753 5.60073 6.85782
62 1 -1.1104 0.943178 11.26 6.86653
239 1 -1.1104 3.78207 5.58713 6.79467
236 1 -1.1104 0.987323 5.69309 6.79397
9708 2 2.2208 -0.402353 9.8485 8.24013
78 1 -1.1104 3.99821 11.1333 6.8361
234 1 -1.1104 0.945448 8.42621 6.6861
240 2 2.2208 5.16727 6.95572 10.923
241 2 2.2208 5.31192 12.6063 10.9721
242 1 -1.1104 1.1633 8.55045 12.351
244 1 -1.1104 1.09471 8.44507 9.66395
246 1 -1.1104 0.949149 5.66501 12.3379
247 1 -1.1104 1.20413 11.344 12.3093
250 2 2.2208 5.42231 9.87661 8.0728
251 1 -1.1104 1.10537 5.55781 9.55943
252 1 -1.1104 0.978521 11.2164 9.67365
255 1 -1.1104 4.03766 8.37687 12.4696
256 2 2.2208 2.45976 7.1091 8.04901
257 2 2.2208 2.4285 12.5695 8.25158
258 1 -1.1104 4.00091 8.37296 9.50935
259 2 2.2208 2.52713 9.88761 10.9195
260 1 -1.1104 3.66592 5.63715 12.3215
261 1 -1.1104 4.00214 11.1721 12.271
262 1 -1.1104 3.84229 5.62073 9.54301
263 1 -1.1104 3.93954 11.2278 9.60573
243 1 -1.1104 6.78428 8.2584 12.3587
253 1 -1.1104 6.57482 5.52453 9.6148
248 1 -1.1104 6.54874 5.3823 12.4456
245 1 -1.1104 6.69438 8.26325 9.46602
249 1 -1.1104 6.69113 11.2728 12.2447
101 1 -1.1104 9.5749 11.1662 6.82063
90 1 -1.1104 12.3926 11.3131 6.787
254 1 -1.1104 6.69828 11.0815 9.61899
475 2 2.2208 8.07572 12.5697 13.6604
9690 2 2.2208 13.7115 7.0596 8.23297
329 2 2.2208 13.511 12.6853 8.11426
264 1 -1.1104 9.46411 11.2343 9.5907
268 1 -1.1104 9.32001 5.57436 9.42593
270 1 -1.1104 9.58806 11.2691 12.3723
271 1 -1.1104 9.39997 5.69061 12.3149
272 2 2.2208 8.0325 9.83746 10.9735
273 1 -1.1104 9.46421 8.25059 9.27116
274 2 2.2208 8.14363 12.5554 8.10466
275 2 2.2208 7.96854 6.91802 8.101
276 2 2.2208 10.7823 7.04418 10.8897
277 2 2.2208 10.9204 12.6302 10.8431
278 1 -1.1104 12.2663 8.28159 12.2125
279 1 -1.1104 12.3646 8.39573 9.50726
280 1 -1.1104 12.2433 5.61131 12.3119
281 1 -1.1104 12.3873 11.1917 12.396
282 2 2.2208 10.809 9.72433 8.04128
283 1 -1.1104 12.1823 5.7306 9.47992
284 1 -1.1104 12.1868 11.2268 9.53278
285 1 -1.1104 9.47098 8.49144 12.1476
712 2 2.2208 13.6758 7.06952 13.7097
473 2 2.2208 7.99491 6.9632 13.6509
112 1 -1.1104 6.49022 19.6491 6.76956
117 1 -1.1104 0.99786 16.8061 6.67478
124 1 -1.1104 3.95862 13.9714 6.72704
133 1 -1.1104 3.8465 16.7678 6.87732
302 1 -1.1104 0.965655 19.6382 6.70428
288 1 -1.1104 6.45237 19.7117 9.55377
290 1 -1.1104 6.51043 13.8934 9.58511
286 1 -1.1104 3.85177 19.6957 12.269
287 1 -1.1104 3.86126 14.0417 12.5682
291 1 -1.1104 1.04413 19.5333 9.4504
292 1 -1.1104 0.941707 16.7378 9.4843
293 2 2.2208 5.11478 21.119 8.17026
294 1 -1.1104 1.04313 14.0501 9.45495
295 2 2.2208 5.2408 15.4029 8.13369
298 1 -1.1104 0.852421 19.5971 12.2224
299 1 -1.1104 0.926896 14.0115 12.2675
300 2 2.2208 5.22337 18.301 10.9259
301 1 -1.1104 3.68847 19.7379 9.46447
303 2 2.2208 2.40893 18.1559 8.06454
304 1 -1.1104 3.93799 16.7963 9.67722
305 1 -1.1104 3.75009 13.9644 9.44382
307 1 -1.1104 1.07851 16.7971 12.3374
308 1 -1.1104 3.9436 16.9702 12.4281
309 2 2.2208 2.36546 21.0625 10.9847
310 2 2.2208 2.4973 15.3736 11.036
306 1 -1.1104 6.84325 16.8583 12.347
289 1 -1.1104 6.6323 16.8954 9.64672
296 1 -1.1104 6.7 19.6183 12.5178
511 2 2.2208 5.21087 15.5533 13.8205
539 2 2.2208 13.7281 18.1334 13.7871
316 2 2.2208 8.02381 21.0876 10.8926
163 1 -1.1104 9.25234 16.8153 6.85485
145 1 -1.1104 12.2137 19.6508 6.76956
315 1 -1.1104 9.55093 16.7366 12.4727
324 2 2.2208 10.9084 21.0129 8.06435
317 2 2.2208 8.08507 15.4345 10.909
318 1 -1.1104 9.32617 19.5149 9.40922
323 1 -1.1104 12.3122 16.9854 9.60376
297 1 -1.1104 6.67549 14.0822 12.3788
319 1 -1.1104 9.3956 14.0587 9.56083
331 2 2.2208 13.6668 21.1089 11.0197
537 2 2.2208 10.9747 15.4249 13.7624
200 1 -1.1104 12.308 14.0432 12.3143
229 1 -1.1104 12.2913 19.6441 9.58632
26 2 2.2208 13.6603 18.36 8.13489
325 2 2.2208 10.8172 15.5636 8.25098
320 2 2.2208 7.93337 18.2976 8.12088
321 1 -1.1104 9.42553 19.719 12.2556
322 1 -1.1104 9.64307 13.9961 12.3374
204 1 -1.1104 12.3085 14.1892 9.5795
230 1 -1.1104 12.2636 16.9227 12.3656
201 1 -1.1104 12.2688 19.6533 12.2945
81 2 2.2208 10.8569 18.2541 10.9644
314 1 -1.1104 9.43991 16.7631 9.60546
9773 2 2.2208 13.6285 15.4445 10.9832
337 2 2.2208 5.37238 1.3381 16.4976
338 1 -1.1104 1.06083 -2.79068 17.874
339 1 -1.1104 1.11223 2.8452 17.8411
342 1 -1.1104 1.10235 -2.91233 15.0694
344 1 -1.1104 1.06229 2.61377 15.0595
350 1 -1.1104 1.15295 -0.0132754 17.9118
352 2 2.2208 5.24368 -1.45968 19.4081
353 2 2.2208 5.27829 4.16933 19.4547
354 1 -1.1104 1.08623 -0.0796558 15.1203
358 1 -1.1104 3.92629 -2.81547 17.7052
359 1 -1.1104 3.88977 2.87443 17.9224
360 2 2.2208 2.48375 1.47764 19.3613
361 1 -1.1104 3.988 -2.93671 14.949
363 1 -1.1104 3.9122 2.76786 15.0323
365 2 2.2208 2.4728 -1.4253 16.421
366 2 2.2208 2.5468 4.17262 16.5491
367 1 -1.1104 3.81395 0.191537 17.8866
368 1 -1.1104 4.00565 -0.162161 14.9758
348 1 -1.1104 6.69037 2.68474 15.16
351 1 -1.1104 6.6345 -0.0132643 17.9749
346 1 -1.1104 6.76349 -2.69055 15.0951
341 1 -1.1104 6.59641 2.76727 17.9668
369 1 -1.1104 3.96665 -0.0156342 20.7568
345 1 -1.1104 1.08998 2.89926 20.7416
349 1 -1.1104 6.69387 2.7142 20.7231
372 2 2.2208 2.55443 -4.20635 19.1724
340 1 -1.1104 6.76157 -2.68843 17.9051
371 2 2.2208 5.34192 -4.20858 16.4511
332 2 2.2208 2.61402 -4.3509 13.6277
379 2 2.2208 5.19924 4.18198 13.8165
711 2 2.2208 -0.423889 4.08401 13.7751
356 1 -1.1104 6.71139 0.0379023 15.0221
380 2 2.2208 10.8501 1.45655 16.6057
381 1 -1.1104 12.3015 -2.88317 17.9455
382 1 -1.1104 12.2432 2.78083 18.1181
383 1 -1.1104 12.2115 -2.79878 15.1865
385 1 -1.1104 12.247 2.80085 15.2743
387 1 -1.1104 12.2748 -0.0834637 18.0374
388 2 2.2208 10.8604 -1.45734 19.2727
389 2 2.2208 10.9391 4.24812 19.2881
390 1 -1.1104 12.238 0.11508 15.1494
392 1 -1.1104 9.57452 -2.78869 17.839
393 1 -1.1104 9.37042 2.70596 17.8257
394 2 2.2208 8.03451 1.32444 19.313
395 1 -1.1104 9.50337 -2.75272 14.9995
397 1 -1.1104 9.46047 2.90495 15.1656
399 2 2.2208 8.06965 -1.27597 16.4939
401 1 -1.1104 9.449 0.0564334 17.9993
402 1 -1.1104 9.48742 0.0542652 15.1315
709 2 2.2208 13.7284 4.21024 16.5338
710 2 2.2208 13.6615 1.40134 19.3699
386 1 -1.1104 12.2546 2.81156 20.7973
406 2 2.2208 8.07075 -4.10674 19.2232
405 2 2.2208 10.8646 -4.17872 16.465
336 2 2.2208 10.9074 -1.40941 13.68
413 2 2.2208 5.3218 6.93483 16.6994
414 2 2.2208 5.31875 12.6163 16.4514
415 1 -1.1104 0.955131 8.36001 17.9034
417 1 -1.1104 1.2016 8.26227 15.1122
421 1 -1.1104 1.10561 5.60746 18.0714
422 1 -1.1104 1.01736 11.265 17.8977
425 2 2.2208 5.21359 9.81703 19.3519
426 1 -1.1104 1.29463 5.52164 15.2597
428 1 -1.1104 1.08629 11.1006 15.1279
434 1 -1.1104 3.78508 8.30777 17.9705
435 2 2.2208 2.55635 6.96327 19.4021
436 2 2.2208 2.38684 12.5246 19.3302
437 1 -1.1104 4.03452 8.61494 15.301
439 2 2.2208 2.4625 9.76525 16.5607
440 1 -1.1104 3.97488 5.58614 18.0771
441 1 -1.1104 3.84936 11.0965 17.9449
442 1 -1.1104 3.87573 5.74965 15.1406
444 1 -1.1104 3.86652 11.4881 15.0639
418 1 -1.1104 0.991459 8.39628 20.59
432 1 -1.1104 6.69356 11.174 15.0643
430 1 -1.1104 6.62734 5.42573 15.1705
419 1 -1.1104 6.74986 8.25986 15.1737
424 1 -1.1104 6.64646 11.0912 17.8569
429 1 -1.1104 1.09937 11.1145 20.8749
9927 2 2.2208 -0.300536 6.87881 16.4994
447 2 2.2208 5.34884 9.6929 13.8431
448 2 2.2208 2.49611 12.4554 13.639
446 2 2.2208 2.51074 7.11647 13.7609
400 2 2.2208 8.07336 4.11427 16.5338
416 1 -1.1104 6.62657 8.3046 18.0003
423 1 -1.1104 6.74094 5.53921 18.1302
449 2 2.2208 10.7777 6.95017 16.5007
450 2 2.2208 10.7746 12.5552 16.5787
451 1 -1.1104 12.302 8.38748 17.7314
452 1 -1.1104 12.2141 8.41729 14.8678
454 1 -1.1104 12.272 5.68634 17.9319
455 1 -1.1104 12.1236 11.2078 17.9157
456 2 2.2208 10.8396 9.83959 19.3701
457 1 -1.1104 12.2053 5.65548 15.0951
459 1 -1.1104 12.2597 11.2222 15.1484
461 1 -1.1104 9.40536 8.34145 17.8609
462 2 2.2208 7.99748 6.98002 19.5316
463 2 2.2208 8.07334 12.6639 19.194
464 1 -1.1104 9.42412 8.44263 14.9432
466 2 2.2208 8.00357 9.78079 16.5053
467 1 -1.1104 9.56597 5.48647 17.822
468 1 -1.1104 9.46912 11.2012 18.0585
469 1 -1.1104 9.33876 5.7087 15.1528
471 1 -1.1104 9.37459 11.1349 15.1358
715 2 2.2208 13.7111 12.6003 19.3564
713 2 2.2208 13.8107 9.85324 16.4638
714 2 2.2208 13.5629 7.04316 19.2393
458 1 -1.1104 12.2867 5.75338 20.8401
716 2 2.2208 13.7266 12.6447 13.7273
474 2 2.2208 10.8858 9.82237 13.7988
476 2 2.2208 5.15137 18.3228 16.6455
477 1 -1.1104 0.962882 13.9893 17.7378
478 1 -1.1104 0.944182 19.5912 17.9227
481 1 -1.1104 1.1478 13.9009 14.9215
483 1 -1.1104 0.920645 19.6522 15.1632
489 1 -1.1104 0.944848 16.7515 18.0883
491 2 2.2208 5.22907 15.3019 19.3396
492 2 2.2208 5.23796 20.954 19.4604
493 1 -1.1104 1.03567 16.7753 15.1364
497 1 -1.1104 3.87706 13.8256 18.0307
498 1 -1.1104 3.77971 19.6593 18.0951
499 2 2.2208 2.30137 18.2065 19.4661
500 1 -1.1104 3.92394 14.0795 15.2168
502 1 -1.1104 3.69926 19.6766 15.1555
504 2 2.2208 2.45198 15.3615 16.4496
505 2 2.2208 2.47831 21.1225 16.5392
506 1 -1.1104 3.78891 16.7898 18.0302
507 1 -1.1104 3.78205 16.9224 15.3413
485 1 -1.1104 6.74458 14.0108 15.1808
487 1 -1.1104 6.48604 19.6969 15.2734
490 1 -1.1104 6.38257 16.7989 18.0863
480 1 -1.1104 6.60975 19.7493 18.048
501 1 -1.1104 3.82211 13.9774 20.8073
509 2 2.2208 2.37907 18.3559 13.7959
510 2 2.2208 5.30827 21.1493 13.768
479 1 -1.1104 6.74509 14.121 17.8048
495 1 -1.1104 6.7039 16.8498 15.2167
486 1 -1.1104 6.61965 13.9973 20.7072
719 2 2.2208 13.614 18.1617 19.312
720 2 2.2208 13.7609 21.0672 16.5868
512 2 2.2208 10.8419 18.3458 16.4955
513 1 -1.1104 12.2107 13.98 17.9228
514 1 -1.1104 12.154 19.8119 17.9258
515 1 -1.1104 12.3064 14.0068 15.2481
517 1 -1.1104 12.2493 19.8562 15.1317
519 1 -1.1104 12.3171 16.9431 17.8463
520 2 2.2208 10.8707 15.2927 19.2314
521 2 2.2208 10.7695 20.9187 19.4024
522 1 -1.1104 12.2298 16.8954 15.1066
524 1 -1.1104 9.35971 14.0111 17.8377
525 1 -1.1104 9.32774 19.6305 17.9349
526 2 2.2208 8.00317 18.1695 19.3869
527 1 -1.1104 9.59562 13.9564 14.9644
529 1 -1.1104 9.48799 19.7505 15.0493
531 2 2.2208 8.03354 15.4715 16.4482
532 2 2.2208 8.10462 21.1468 16.5189
533 1 -1.1104 9.42771 16.757 18.0139
534 1 -1.1104 9.45689 16.9298 15.1931
528 1 -1.1104 9.34962 14.073 20.6557
523 1 -1.1104 12.2704 16.7305 20.6908
530 1 -1.1104 9.38717 19.5879 20.8293
518 1 -1.1104 12.1145 19.6673 20.8051
535 1 -1.1104 9.36916 16.7771 20.6863
538 2 2.2208 8.17769 18.3208 13.7038
536 2 2.2208 10.8257 21.052 13.6332
362 1 -1.1104 3.76965 -2.91749 20.5767
343 1 -1.1104 1.09451 -2.83576 20.8477
364 1 -1.1104 3.83301 2.75338 21.042
355 1 -1.1104 1.02902 0.168663 20.7923
357 1 -1.1104 6.62378 -0.117659 20.7403
540 2 2.2208 5.29603 1.38301 22.1879
541 1 -1.1104 1.03829 -2.83421 23.6435
542 1 -1.1104 0.979103 2.6038 23.5336
545 1 -1.1104 1.02631 -2.76402 26.505
546 1 -1.1104 1.14814 2.83634 26.289
549 1 -1.1104 0.944963 -0.12656 23.447
551 2 2.2208 5.16514 -1.42186 24.8411
552 2 2.2208 5.31201 4.12976 24.8864
553 1 -1.1104 1.01685 0.0564164 26.3346
555 1 -1.1104 3.82358 -2.75266 23.3909
556 1 -1.1104 3.98354 2.69271 23.748
557 2 2.2208 2.44619 1.22974 24.9481
558 1 -1.1104 3.64206 -2.77713 26.2775
559 1 -1.1104 3.96489 2.85821 26.4056
560 2 2.2208 2.48128 -1.40633 22.1052
561 2 2.2208 2.50735 4.20403 22.2851
562 1 -1.1104 3.78283 0.005011 23.4603
563 1 -1.1104 3.75844 -0.0658827 26.2278
573 2 2.2208 -0.26698 -1.52685 25.0119
543 1 -1.1104 6.72017 -2.84049 23.5861
550 1 -1.1104 6.67577 -0.0620833 23.5134
554 1 -1.1104 6.595 -0.0466765 26.3711
547 1 -1.1104 6.6588 -2.88822 26.1678
570 2 2.2208 5.17936 -4.31975 22.0793
548 1 -1.1104 6.75798 2.77887 26.2847
347 1 -1.1104 6.58374 -2.83007 20.7064
600 2 2.2208 8.05526 -4.26595 24.9825
597 2 2.2208 13.7833 -4.20114 24.9612
384 1 -1.1104 12.2427 -2.90752 20.7757
391 1 -1.1104 12.3819 -0.0582869 20.8018
396 1 -1.1104 9.54901 -2.68356 20.73
398 1 -1.1104 9.38812 2.90441 20.6686
544 1 -1.1104 6.70738 2.75679 23.5447
403 1 -1.1104 9.41841 0.10177 20.8543
599 2 2.2208 10.8402 -4.12229 22.2803
604 2 2.2208 13.6131 4.19224 27.7817
603 2 2.2208 13.7398 1.39705 25.0143
377 2 2.2208 13.5675 4.25654 22.1266
576 2 2.2208 10.8623 1.36008 22.0434
577 1 -1.1104 12.3466 -2.80279 23.4915
578 1 -1.1104 12.2124 2.83694 23.5354
579 1 -1.1104 12.468 -2.75961 26.2721
580 1 -1.1104 12.3156 2.70892 26.4026
581 1 -1.1104 12.353 -0.0387498 23.5432
582 2 2.2208 10.9623 -1.29147 24.9855
583 2 2.2208 10.8258 4.14774 24.9734
584 1 -1.1104 12.3448 0.0975097 26.3734
585 1 -1.1104 9.51036 -2.91317 23.6941
586 1 -1.1104 9.50038 2.53723 23.4334
587 2 2.2208 8.06976 1.34456 24.8905
588 1 -1.1104 9.46794 -2.84978 26.502
589 1 -1.1104 9.49972 2.85929 26.251
590 2 2.2208 8.10546 -1.3971 22.1562
591 2 2.2208 8.18883 4.10897 22.2076
592 1 -1.1104 9.39247 -0.205616 23.5383
593 1 -1.1104 9.47672 0.0233812 26.2768
596 2 2.2208 8.13952 4.07182 27.7821
594 2 2.2208 10.9112 1.32778 27.7817
445 1 -1.1104 3.80752 11.2272 20.7777
427 1 -1.1104 0.99396 5.53677 20.9155
438 1 -1.1104 3.79575 8.38793 20.6897
443 1 -1.1104 3.91903 5.50437 20.7734
433 1 -1.1104 6.64481 11.1687 20.6936
420 1 -1.1104 6.64255 8.34956 20.7747
605 2 2.2208 5.23638 7.02748 22.0719
606 2 2.2208 5.30093 12.5494 22.1037
607 1 -1.1104 1.09442 8.28406 23.635
609 1 -1.1104 1.16211 8.40271 26.4075
611 1 -1.1104 1.12878 5.49235 23.5867
612 1 -1.1104 1.01138 11.1339 23.7027
615 2 2.2208 5.26502 9.8308 24.9616
616 1 -1.1104 1.29397 5.65848 26.3512
617 1 -1.1104 0.910775 11.2262 26.4374
620 1 -1.1104 3.92909 8.52102 23.4973
621 2 2.2208 2.52191 7.06888 24.994
622 2 2.2208 2.4154 12.6842 24.8746
623 1 -1.1104 3.99555 8.41151 26.4083
624 2 2.2208 2.32625 9.77732 22.2088
625 1 -1.1104 3.78817 5.70109 23.4409
626 1 -1.1104 3.69963 11.2927 23.5319
627 1 -1.1104 3.96397 5.6064 26.3027
628 1 -1.1104 3.81654 11.2113 26.3508
613 1 -1.1104 6.4949 5.57324 23.6517
608 1 -1.1104 6.71668 8.3945 23.4515
610 1 -1.1104 6.71561 8.23014 26.2553
619 1 -1.1104 6.65724 11.2143 26.2189
614 1 -1.1104 6.71562 11.2629 23.408
618 1 -1.1104 6.78341 5.64261 26.483
431 1 -1.1104 6.67543 5.55255 20.8765
472 1 -1.1104 9.5007 11.275 20.7196
465 1 -1.1104 9.40588 8.41121 20.6975
470 1 -1.1104 9.64199 5.60379 20.6925
453 1 -1.1104 12.1313 8.45611 20.709
460 1 -1.1104 12.1731 11.2929 20.6229
376 2 2.2208 13.5503 9.81746 22.2264
636 1 -1.1104 9.41659 11.2989 26.2041
637 1 -1.1104 9.61728 5.61693 26.3039
638 1 -1.1104 9.51083 11.2407 23.4368
639 1 -1.1104 9.39603 5.47366 23.6615
640 2 2.2208 8.01686 9.88813 22.0454
641 1 -1.1104 9.45116 8.39492 26.3053
642 2 2.2208 7.98714 12.6397 25.0625
643 2 2.2208 8.08659 7.00284 24.892
644 2 2.2208 10.841 7.11671 22.0837
645 2 2.2208 10.8677 12.5916 22.1548
646 1 -1.1104 12.2052 8.4582 23.3821
647 1 -1.1104 12.1278 8.51384 26.4682
648 1 -1.1104 12.16 5.68963 23.6243
649 1 -1.1104 12.2801 11.2525 23.5319
650 2 2.2208 10.8218 9.83168 25.0024
651 1 -1.1104 12.3675 5.69647 26.4792
652 1 -1.1104 12.2014 11.2461 26.3079
653 1 -1.1104 9.45352 8.36439 23.4594
484 1 -1.1104 0.968442 19.6715 20.6923
508 1 -1.1104 3.74813 16.72 20.7182
503 1 -1.1104 3.87434 19.6434 20.801
488 1 -1.1104 6.5822 19.5567 20.8539
496 1 -1.1104 6.46294 16.7977 20.822
494 1 -1.1104 0.983968 16.7627 20.8944
482 1 -1.1104 0.883648 13.748 20.4491
670 1 -1.1104 6.66743 14.0895 23.5779
696 1 -1.1104 6.6652 19.5918 26.2722
667 1 -1.1104 6.69185 19.5716 23.5996
678 1 -1.1104 6.57717 16.8985 23.5066
682 2 2.2208 2.36735 15.3125 22.116
681 2 2.2208 2.49073 21.0464 22.1759
680 1 -1.1104 3.86948 16.8649 23.3999
679 1 -1.1104 0.873752 16.796 23.5361
677 1 -1.1104 3.93193 13.836 26.3713
676 1 -1.1104 3.6961 16.6887 26.2985
675 2 2.2208 2.40863 18.1421 24.9703
668 2 2.2208 5.23671 21.0534 25.0288
674 1 -1.1104 3.95696 19.6141 26.4748
673 2 2.2208 5.25216 18.2314 22.1563
672 1 -1.1104 0.783547 13.9156 23.4267
666 1 -1.1104 1.0572 14.0109 26.306
665 1 -1.1104 0.962045 16.779 26.1346
671 1 -1.1104 1.08061 19.6934 23.5409
664 1 -1.1104 1.15407 19.376 26.3547
669 2 2.2208 5.08888 15.4362 24.9374
660 1 -1.1104 3.91303 19.6506 23.6847
662 1 -1.1104 3.8164 14.1025 23.4649
661 1 -1.1104 6.49948 14.02 26.3649
683 2 2.2208 2.39638 20.9676 27.7621
691 1 -1.1104 9.16852 16.8917 23.4765
706 1 -1.1104 12.1303 19.5123 23.4693
516 1 -1.1104 12.0928 13.9114 20.7798
698 1 -1.1104 9.43678 19.5742 23.6595
703 1 -1.1104 11.9852 16.7418 23.5571
699 1 -1.1104 9.45799 13.932 23.5285
690 1 -1.1104 9.30956 16.9415 26.3373
574 2 2.2208 10.8673 18.2634 27.7083
705 1 -1.1104 12.3905 13.9762 26.4919
697 2 2.2208 7.98669 18.2726 24.9036
701 2 2.2208 10.7357 21.0564 25.0682
708 2 2.2208 10.8443 18.1862 22.1794
663 1 -1.1104 6.39935 16.9012 26.1812
370 2 2.2208 13.5693 15.4059 22.1975
692 2 2.2208 8.04783 21.0363 22.1621
695 1 -1.1104 9.42303 14.0506 26.392
702 2 2.2208 10.662 15.3975 24.8684
693 2 2.2208 8.01123 15.4376 22.1047
404 2 2.2208 13.5757 21.0693 22.1555
700 1 -1.1104 12.172 16.8092 26.504
707 1 -1.1104 12.2947 14.0752 23.5778
704 1 -1.1104 12.1423 19.6534 26.3313
694 1 -1.1104 9.44953 19.6882 26.3928
723 2 2.2208 5.16615 23.8945 5.28308
724 2 2.2208 5.40181 29.4504 5.17338
725 1 -1.1104 1.01765 25.191 1.07895
726 1 -1.1104 1.01753 25.238 3.89267
727 1 -1.1104 0.872022 22.5109 1.00136
728 1 -1.1104 0.982808 28.1769 0.971662
729 2 2.2208 5.28294 26.5641 2.4554
730 1 -1.1104 0.910972 22.521 3.91745
731 1 -1.1104 0.970922 28.1436 3.77936
732 1 -1.1104 3.91851 25.3066 0.93167
733 2 2.2208 2.40773 23.9215 2.56157
734 2 2.2208 2.43316 29.5187 2.42393
735 1 -1.1104 3.88137 25.3014 3.84891
736 2 2.2208 2.43383 26.7834 5.35883
737 1 -1.1104 3.72448 22.5772 1.18166
738 1 -1.1104 3.80981 28.0569 1.09828
739 1 -1.1104 3.75357 22.4362 3.89257
740 1 -1.1104 3.77854 28.1445 3.97303
744 1 -1.1104 6.60252 25.0462 1.02115
749 1 -1.1104 6.65792 28.1022 3.82104
745 1 -1.1104 6.67421 25.3397 3.92313
748 1 -1.1104 6.51812 22.655 3.71235
871 1 -1.1104 3.92323 22.4384 6.71099
866 1 -1.1104 1.04932 22.4896 6.66516
869 1 -1.1104 6.63181 27.9094 6.63482
872 1 -1.1104 3.96022 28.2288 6.74544
747 1 -1.1104 6.53808 28.0028 1.08127
864 1 -1.1104 1.1067 25.4582 6.66301
1269 2 2.2208 2.4657 26.6352 -0.407793
1268 2 2.2208 5.22272 23.9506 -0.341104
746 1 -1.1104 6.69682 22.3212 1.0497
750 2 2.2208 10.7875 23.9136 5.37257
751 2 2.2208 10.8919 29.3357 5.19944
752 1 -1.1104 12.2818 25.239 1.15401
753 1 -1.1104 12.3471 25.338 3.95023
754 1 -1.1104 12.1978 22.5678 1.18933
755 1 -1.1104 12.2005 28.0514 1.10263
756 2 2.2208 10.843 26.7887 2.45229
757 1 -1.1104 12.183 22.4395 3.97204
758 1 -1.1104 12.3059 28.0703 3.94031
759 1 -1.1104 9.42583 25.306 1.04596
760 2 2.2208 8.08063 23.9498 2.48876
761 2 2.2208 8.00766 29.493 2.60624
762 1 -1.1104 9.59748 25.2145 3.95971
763 2 2.2208 8.14257 26.5903 5.33392
764 1 -1.1104 9.32858 22.4947 1.11174
765 1 -1.1104 9.39079 28.1577 1.02664
766 1 -1.1104 9.31578 22.4305 3.85677
767 1 -1.1104 9.39874 27.9111 3.92648
897 1 -1.1104 12.3544 25.3135 6.8199
899 1 -1.1104 12.3914 28.0289 6.72226
770 2 2.2208 13.7083 26.5773 5.22899
769 2 2.2208 13.8191 29.4082 2.49112
900 1 -1.1104 9.48348 25.1592 6.82436
768 2 2.2208 13.7044 23.8812 2.48744
1304 2 2.2208 10.89 29.4226 -0.416521
1299 2 2.2208 8.05106 26.6872 -0.332565
1298 2 2.2208 10.7393 23.9659 -0.209593
1300 2 2.2208 13.5906 26.7491 -0.258751
771 2 2.2208 5.26953 35.198 5.17054
772 1 -1.1104 0.981667 30.8832 1.20278
773 1 -1.1104 1.05046 36.6821 0.99987
775 1 -1.1104 0.85346 30.9622 4.01971
776 1 -1.1104 0.939164 36.5017 3.75839
778 1 -1.1104 1.13242 33.8127 1.00242
779 2 2.2208 5.26994 32.1852 2.42377
780 2 2.2208 5.22051 37.9275 2.37433
781 1 -1.1104 1.07799 33.7813 3.88122
783 1 -1.1104 3.7608 30.9048 1.01138
784 1 -1.1104 3.80448 36.4824 1.0558
785 2 2.2208 2.41333 35.1535 2.43633
786 1 -1.1104 3.74001 30.8145 3.82383
787 1 -1.1104 3.84265 36.7346 3.77033
788 2 2.2208 2.41966 32.2154 5.24104
789 2 2.2208 2.44526 37.9361 5.18254
790 1 -1.1104 3.86608 33.6284 1.06634
791 1 -1.1104 3.87073 33.841 3.83147
777 1 -1.1104 6.70102 36.4662 3.85329
795 1 -1.1104 6.78288 30.8633 1.1346
797 1 -1.1104 6.67309 33.7097 0.994854
774 1 -1.1104 6.56777 36.4963 0.941276
796 1 -1.1104 6.58327 30.9687 3.97192
924 1 -1.1104 6.73656 36.4134 6.44589
928 1 -1.1104 3.82816 36.5144 6.69403
929 1 -1.1104 3.93189 33.7348 6.42065
1329 2 2.2208 5.24216 35.0021 -0.34539
1327 2 2.2208 2.57185 37.9762 -0.39365
782 1 -1.1104 6.64675 33.6224 3.80117
1041 2 2.2208 13.7918 32.2743 5.18881
798 2 2.2208 10.9894 34.8558 5.15283
799 1 -1.1104 12.2802 30.7742 0.953925
800 1 -1.1104 12.1805 36.3774 1.03355
801 1 -1.1104 12.3289 30.8554 3.70115
802 1 -1.1104 12.2874 36.4452 3.79908
803 1 -1.1104 12.188 33.5291 0.936699
804 2 2.2208 10.904 32.115 2.42113
805 2 2.2208 10.7889 37.7809 2.38613
806 1 -1.1104 12.1915 33.5601 3.77619