LAMMPS (29 Oct 2020)
OMP_NUM_THREADS environment is not set. Defaulting to 1 thread. (../comm.cpp:94)
  using 1 OpenMP thread(s) per MPI task
#-------------------------
#
#This script is used to create different concentrations of vacancies in thorium dioxide
#By Ziqiang Wang on 07/03/2023
#
#-------------------------

clear
OMP_NUM_THREADS environment is not set. Defaulting to 1 thread. (../comm.cpp:94)
  using 1 OpenMP thread(s) per MPI task
units                        metal
dimension                        3
boundary                     p p p
atom_style                   full
atom_modify                  map array

read_data                   ThO2_unitcell.dat
Reading data file ...
  orthogonal box = (0.0000000 0.0000000 0.0000000) to (5.4680000 5.4680000 5.4680000)
  2 by 4 by 13 MPI processor grid
  reading atoms ...
  12 atoms
Finding 1-2 1-3 1-4 neighbors ...
  special bond factors lj:    0.0      0.0      0.0     
  special bond factors coul:  0.0      0.0      0.0     
     0 = max # of 1-2 neighbors
     0 = max # of 1-3 neighbors
     0 = max # of 1-4 neighbors
     1 = max # of special neighbors
  special bonds CPU = 1.082 seconds
  read_data CPU = 1.092 seconds
replicate                   5  60  5
Replicating atoms ...
  orthogonal box = (0.0000000 0.0000000 0.0000000) to (27.340000 328.08000 27.340000)
  2 by 26 by 2 MPI processor grid
  18000 atoms
Finding 1-2 1-3 1-4 neighbors ...
  special bond factors lj:    0.0      0.0      0.0     
  special bond factors coul:  0.0      0.0      0.0     
     0 = max # of 1-2 neighbors
     0 = max # of 1-3 neighbors
     0 = max # of 1-4 neighbors
     1 = max # of special neighbors
  special bonds CPU = 0.361 seconds
  replicate CPU = 0.372 seconds

set                         type    1      charge   -1.1104
Setting atom values ...
  12000 settings made for charge
set                         type    2      charge    2.2208
Setting atom values ...
  6000 settings made for charge

kspace_style                pppm     1.0e-05
pair_style                  hybrid/overlay    coul/long   11.0  eam/alloy
pair_coeff                  * * coul/long
pair_coeff                  * * eam/alloy CeThUNpPuAmCmO.eam.alloy O Th Th O
neighbor                    2.0  bin
neigh_modify                every  1  delay  0  check  yes

# Fully relaxing the perfect crystal at 0K
fix                         box_relax  all  box/relax  aniso  0.0  vmax  0.001
min_style                   cg
minimize                    1.0e-30 1.0e-30 10000 10000
PPPM initialization ...
  using 12-bit tables for long-range coulomb (../kspace.cpp:328)
  G vector (1/distance) = 0.30025168
  grid = 40 240 40
  stencil order = 5
  estimated absolute RMS force accuracy = 0.00014651476
  estimated relative force accuracy = 1.0174887e-05
  using single precision MKL FFT
  3d grid and FFT values/proc = 11664 4000
Neighbor list info ...
  update every 1 steps, delay 0 steps, check yes
  max neighbors/atom: 2000, page size: 100000
  master list distance cutoff = 13
  ghost atom cutoff = 13
  binsize = 6.5, bins = 5 51 5
  2 neighbor lists, perpetual/occasional/extra = 2 0 0
  (1) pair coul/long, perpetual
      attributes: half, newton on
      pair build: half/bin/newton
      stencil: half/bin/3d/newton
      bin: standard
  (2) pair eam/alloy, perpetual, copy from (1)
      attributes: half, newton on
      pair build: copy
      stencil: none
      bin: none
Per MPI rank memory allocation (min/avg/max) = 9.018 | 9.038 | 9.063 Mbytes
Step Temp E_pair E_mol TotEng Press Volume 
       0            0   -236328.77            0   -236328.77    136383.26    245231.79 
      24            0   -236946.21            0   -236946.21   -61.949296    260641.98 
Loop time of 1.01494 on 104 procs for 24 steps with 18000 atoms

98.9% CPU use with 104 MPI tasks x 1 OpenMP threads

Minimization stats:
  Stopping criterion = linesearch alpha is zero
  Energy initial, next-to-last, final = 
     -236328.767350111  -236946.208617833  -236946.208617833
  Force two-norm initial, final = 36156.645 224.47553
  Force max component initial, final = 20875.510 192.58659
  Final line search alpha, max atom move = 1.5474765e-13 2.9802322e-11
  Iterations, force evaluations = 24 100

MPI task timing breakdown:
Section |  min time  |  avg time  |  max time  |%varavg| %total
---------------------------------------------------------------
Pair    | 0.35888    | 0.38254    | 0.41104    |   1.6 | 37.69
Bond    | 7.0601e-06 | 1.1172e-05 | 2.5074e-05 |   0.0 |  0.00
Kspace  | 0.43052    | 0.46051    | 0.48622    |   1.6 | 45.37
Neigh   | 0.0070869  | 0.0082612  | 0.0097225  |   0.7 |  0.81
Comm    | 0.026156   | 0.0328     | 0.036511   |   1.3 |  3.23
Output  | 0          | 0          | 0          |   0.0 |  0.00
Modify  | 0          | 0          | 0          |   0.0 |  0.00
Other   |            | 0.1308     |            |       | 12.89

Nlocal:        173.077 ave         213 max         140 min
Histogram: 7 6 14 16 21 10 15 10 2 3
Nghost:        4341.38 ave        4382 max        4238 min
Histogram: 2 4 1 1 3 4 22 30 26 11
Neighs:        55846.2 ave       69037 max       44453 min
Histogram: 6 6 14 16 20 14 13 9 2 4

Total # of neighbors = 5808000
Ave neighs/atom = 322.66667
Ave special neighs/atom = 0.0000000
Neighbor list builds = 5
Dangerous builds = 0
unfix                       box_relax
reset_timestep              0
# randomly create vacancies in the relaxed perfect crystal
group                       thorium     type  2
6000 atoms in group thorium
group                       oxygen      type  1
12000 atoms in group oxygen

variable           vac_ratio   equal    0
variable           tot         equal    count(all)
variable           tot_vac     equal    round(${tot}*${vac_ratio})
variable           tot_vac     equal    round(18000*${vac_ratio})
variable           tot_vac     equal    round(18000*0)
variable           th_vac      equal    round(${tot_vac}*0.333333)
variable           th_vac      equal    round(0*0.333333)
variable           oxy_vac     equal    2*${th_vac}
variable           oxy_vac     equal    2*0
set                group    thorium   type/subset  3   ${th_vac}  1252
set                group    thorium   type/subset  3   0  1252
Setting atom values ...
  0 settings made for type/subset
set                group    oxygen    type/subset  4   ${oxy_vac} 45558
set                group    oxygen    type/subset  4   0 45558
Setting atom values ...
  0 settings made for type/subset

group              delete     type    3 4
0 atoms in group delete
delete_atoms       group      delete
WARNING: Ignoring 'compress yes' for molecular system (../delete_atoms.cpp:125)
Deleted 0 atoms, new total = 18000

# fully relaxing the defect configuration at 0K
fix                box_relax  all  box/relax aniso 0.0 vmax 0.001
min_style          cg
minimize           1.0e-30 1.0e-30 10000 10000
PPPM initialization ...
  using 12-bit tables for long-range coulomb (../kspace.cpp:328)
  G vector (1/distance) = 0.2991486
  grid = 40 240 40
  stencil order = 5
  estimated absolute RMS force accuracy = 0.00015521489
  estimated relative force accuracy = 1.0779078e-05
  using single precision MKL FFT
  3d grid and FFT values/proc = 11664 4000
Per MPI rank memory allocation (min/avg/max) = 9.010 | 9.036 | 9.066 Mbytes
Step Temp E_pair E_mol TotEng Press Volume 
       0            0   -236946.26            0   -236946.26   -64.517414    260641.98 
       1            0   -236946.26            0   -236946.26   -64.517414    260641.98 
Loop time of 0.427865 on 104 procs for 1 steps with 18000 atoms

99.6% CPU use with 104 MPI tasks x 1 OpenMP threads

Minimization stats:
  Stopping criterion = linesearch alpha is zero
  Energy initial, next-to-last, final = 
     -236946.258403143  -236946.258403143  -236946.258403143
  Force two-norm initial, final = 229.28878 229.28878
  Force max component initial, final = 197.11985 197.11985
  Final line search alpha, max atom move = 1.5118884e-13 2.9802322e-11
  Iterations, force evaluations = 1 44

MPI task timing breakdown:
Section |  min time  |  avg time  |  max time  |%varavg| %total
---------------------------------------------------------------
Pair    | 0.1528     | 0.16352    | 0.17562    |   1.1 | 38.22
Bond    | 2.9015e-06 | 4.8998e-06 | 1.083e-05  |   0.0 |  0.00
Kspace  | 0.186      | 0.19833    | 0.2093     |   1.0 | 46.35
Neigh   | 0          | 0          | 0          |   0.0 |  0.00
Comm    | 0.0099106  | 0.013364   | 0.014971   |   0.9 |  3.12
Output  | 0          | 0          | 0          |   0.0 |  0.00
Modify  | 0          | 0          | 0          |   0.0 |  0.00
Other   |            | 0.05265    |            |       | 12.30

Nlocal:        173.077 ave         213 max         140 min
Histogram: 6 4 16 14 20 19 15 6 1 3
Nghost:        4341.38 ave        4382 max        4242 min
Histogram: 1 6 1 0 1 3 23 37 23 9
Neighs:        55846.2 ave       68768 max       44361 min
Histogram: 5 4 9 21 18 19 15 8 2 3

Total # of neighbors = 5808000
Ave neighs/atom = 322.66667
Ave special neighs/atom = 0.0000000
Neighbor list builds = 0
Dangerous builds = 0
unfix              box_relax
reset_timestep     0

# apply the temperature into the system and relaxing system at the temperature of interest
reset_atom_ids
Resetting atom IDs ...
PPPM initialization ...
  using 12-bit tables for long-range coulomb (../kspace.cpp:328)
  G vector (1/distance) = 0.2991486
  grid = 40 240 40
  stencil order = 5
  estimated absolute RMS force accuracy = 0.00015521489
  estimated relative force accuracy = 1.0779078e-05
  using single precision MKL FFT
  3d grid and FFT values/proc = 11664 4000
Finding 1-2 1-3 1-4 neighbors ...
  special bond factors lj:    0.0      0.0      0.0     
  special bond factors coul:  0.0      0.0      0.0     
     0 = max # of 1-2 neighbors
     0 = max # of 1-3 neighbors
     0 = max # of 1-4 neighbors
     1 = max # of special neighbors
  special bonds CPU = 0.005 seconds
variable                    temp      equal    600
velocity                    all  create   ${temp}  47788  dist  gaussian  rot  yes  mom  yes
velocity                    all  create   600  47788  dist  gaussian  rot  yes  mom  yes
fix                         npt  all  npt  temp  ${temp}  ${temp}  $(100*dt) aniso  0.0  0.0  $(1000*dt)
fix                         npt  all  npt  temp  600  ${temp}  $(100*dt) aniso  0.0  0.0  $(1000*dt)
fix                         npt  all  npt  temp  600  600  $(100*dt) aniso  0.0  0.0  $(1000*dt)
fix                         npt  all  npt  temp  600  600  0.10000000000000000555 aniso  0.0  0.0  $(1000*dt)
fix                         npt  all  npt  temp  600  600  0.10000000000000000555 aniso  0.0  0.0  1

thermo                      10000
thermo_style                custom   step dt time atoms temp pe ke press vol

shell                       mkdir vac_${vac_ratio}_${temp}K
shell                       mkdir vac_0_${temp}K
shell                       mkdir vac_0_600K
dump                        1  all  custom  10000  ./vac_${vac_ratio}_${temp}K/dump_relax.atom.* id type q x y z
dump                        1  all  custom  10000  ./vac_0_${temp}K/dump_relax.atom.* id type q x y z
dump                        1  all  custom  10000  ./vac_0_600K/dump_relax.atom.* id type q x y z
dump_modify                 1  element  O  Th Th O

run                         100000
PPPM initialization ...
  using 12-bit tables for long-range coulomb (../kspace.cpp:328)
  G vector (1/distance) = 0.2991486
  grid = 40 240 40
  stencil order = 5
  estimated absolute RMS force accuracy = 0.00015521489
  estimated relative force accuracy = 1.0779078e-05
  using single precision MKL FFT
  3d grid and FFT values/proc = 11664 4000
Per MPI rank memory allocation (min/avg/max) = 9.145 | 9.170 | 9.200 Mbytes
Step Dt Time Atoms Temp PotEng KinEng Press Volume 
       0        0.001            0    18000          600   -236946.26     1395.932    5656.0485    260641.98 
   10000        0.001           10    18000    594.20578   -235504.48    1382.4515   -792.25563    264962.94 
   20000        0.001           20    18000     595.4394   -235513.71    1385.3215   -433.84126    264918.57 
   30000        0.001           30    18000    597.77748   -235513.23    1390.7612    219.14853    264797.11 
   40000        0.001           40    18000    608.92056   -235507.16    1416.6862    560.82039    264790.43 
   50000        0.001           50    18000    602.05716   -235513.65    1400.7181    482.51936    264798.71 
   60000        0.001           60    18000    596.99703   -235511.43    1388.9454   -739.73949    264927.73 
   70000        0.001           70    18000    598.45718   -235513.01    1392.3426   -320.47177    264885.36 
   80000        0.001           80    18000    602.19383   -235505.28    1401.0361    1295.5577    264664.36 
   90000        0.001           90    18000    595.82519   -235535.91    1386.2191   -518.70536    264874.33 
  100000        0.001          100    18000    604.76144   -235510.24    1407.0098    160.98592    264830.08 
Loop time of 849.439 on 104 procs for 100000 steps with 18000 atoms

Performance: 10.171 ns/day, 2.360 hours/ns, 117.725 timesteps/s
99.8% CPU use with 104 MPI tasks x 1 OpenMP threads

MPI task timing breakdown:
Section |  min time  |  avg time  |  max time  |%varavg| %total
---------------------------------------------------------------
Pair    | 300.16     | 309.17     | 320.11     |  26.0 | 36.40
Bond    | 0.0072389  | 0.012124   | 0.01791    |   2.2 |  0.00
Kspace  | 432.01     | 441.9      | 450.92     |  21.7 | 52.02
Neigh   | 0.10779    | 0.11516    | 0.12268    |   1.4 |  0.01
Comm    | 25.554     | 30.901     | 35.898     |  44.8 |  3.64
Output  | 0.058565   | 0.058601   | 0.060373   |   0.1 |  0.01
Modify  | 52.772     | 58.915     | 66.259     |  36.9 |  6.94
Other   |            | 8.368      |            |       |  0.99

Nlocal:        173.077 ave         191 max         152 min
Histogram: 2 2 12 17 11 16 17 12 10 5
Nghost:        4313.30 ave        4364 max        4160 min
Histogram: 7 1 2 5 3 6 3 5 36 36
Neighs:        55580.9 ave       62395 max       48875 min
Histogram: 3 5 14 13 17 20 11 8 11 2

Total # of neighbors = 5780418
Ave neighs/atom = 321.13433
Ave special neighs/atom = 0.0000000
Neighbor list builds = 72
Dangerous builds = 0
write_data                  vac_${vac_ratio}_relaxed.dat
write_data                  vac_0_relaxed.dat
System init for write_data ...
PPPM initialization ...
  using 12-bit tables for long-range coulomb (../kspace.cpp:328)
  G vector (1/distance) = 0.29886296
  grid = 40 240 40
  stencil order = 5
  estimated absolute RMS force accuracy = 0.00015748027
  estimated relative force accuracy = 1.09364e-05
  using single precision MKL FFT
  3d grid and FFT values/proc = 11664 4000
include                     in.mp
#---------------------------------------
#
# This script is used to calculate the thermal conuctivity of UO2 using Muller-Plathe method
# By Ziqiang Wang on 03/18/2022 on Jilin university
#
#---------------------------------------

variable     Nevery    equal   200
variable     T         equal   600

clear
OMP_NUM_THREADS environment is not set. Defaulting to 1 thread. (../comm.cpp:94)
  using 1 OpenMP thread(s) per MPI task
units          metal
boundary       p p p
atom_style     full

read_data      vac_0_relaxed.dat
Reading data file ...
  orthogonal box = (-0.3505926 -4.2254089 -0.36188804) to (27.690593 332.30541 27.701888)
  2 by 26 by 2 MPI processor grid
  reading atoms ...
  18000 atoms
  reading velocities ...
  18000 velocities
Finding 1-2 1-3 1-4 neighbors ...
  special bond factors lj:    0.0      0.0      0.0     
  special bond factors coul:  0.0      0.0      0.0     
     0 = max # of 1-2 neighbors
     0 = max # of 1-3 neighbors
     0 = max # of 1-4 neighbors
     1 = max # of special neighbors
  special bonds CPU = 0.004 seconds
  read_data CPU = 0.043 seconds

set           type     1    charge     -1.1104
Setting atom values ...
  12000 settings made for charge
set           type     2    charge      2.2208
Setting atom values ...
  6000 settings made for charge

kspace_style    pppm   1.0e-05
pair_style      hybrid/overlay  coul/long  11.0  eam/alloy
pair_coeff      * * coul/long
pair_coeff      * * eam/alloy CeThUNpPuAmCmO.eam.alloy O Th Th O
newton          on
neighbor        0.3 bin
neigh_modify    delay 0 check yes every 1

#The first equilation
#fix             nvt  all  nvt  temp  $T $T  0.1

#run             100000
#unfix           nvt
#reset_timestep  0

# the second run
fix             1 all nve

group           oxygen type 1
12000 atoms in group oxygen
fix             2 oxygen thermal/conductivity ${Nevery} y 20
fix             2 oxygen thermal/conductivity 200 y 20

compute         ke all ke/atom
variable        atom_temp atom c_ke/1.5
compute         layers all chunk/atom bin/1d y lower 0.05 units reduced
fix             3      all ave/chunk  2 50000 100000 layers v_atom_temp file profile_${T}K.mp
fix             3      all ave/chunk  2 50000 100000 layers v_atom_temp file profile_600K.mp

variable        Tdiff    equal     f_3[11][3]-f_3[1][3]
variable        deltaT   equal     v_Tdiff*1.5/0.0001292

timestep        0.001
thermo_style    custom step f_2 temp v_Tdiff v_deltaT
thermo          100000

run             1200000
PPPM initialization ...
  using 12-bit tables for long-range coulomb (../kspace.cpp:328)
  G vector (1/distance) = 0.29886296
  grid = 40 240 40
  stencil order = 5
  estimated absolute RMS force accuracy = 0.00015748027
  estimated relative force accuracy = 1.09364e-05
  using single precision MKL FFT
  3d grid and FFT values/proc = 9375 4000
Neighbor list info ...
  update every 1 steps, delay 0 steps, check yes
  max neighbors/atom: 2000, page size: 100000
  master list distance cutoff = 11.3
  ghost atom cutoff = 11.3
  binsize = 5.65, bins = 5 60 5
  2 neighbor lists, perpetual/occasional/extra = 2 0 0
  (1) pair coul/long, perpetual
      attributes: half, newton on
      pair build: half/bin/newton
      stencil: half/bin/3d/newton
      bin: standard
  (2) pair eam/alloy, perpetual, copy from (1)
      attributes: half, newton on
      pair build: copy
      stencil: none
      bin: none
Per MPI rank memory allocation (min/avg/max) = 7.965 | 7.990 | 8.020 Mbytes
Step f_2 Temp v_Tdiff v_deltaT 
       0            0    604.76144            0            0 
  100000    200.55034    598.72929 0.0045993821    53.398399 
  200000    399.28586    602.45004 0.0049630908    57.621024 
  300000    601.77345    601.78457 0.0041143383    47.767085 
  400000    803.68405    601.18605 0.0047460519    55.101221 
  500000    1004.4713    595.05964 0.0049824007    57.845209 
  600000     1206.274    596.06653 0.0045828305    53.206236 
  700000    1408.0898    596.88217 0.0043666736    50.696675 
  800000    1608.4032    603.41752  0.004263612    49.500139 
  900000    1808.3877    602.31886 0.0049464716    57.428076 
 1000000    2009.7348    603.63568 0.0050799521    58.977772 
 1100000    2212.9404     599.2577 0.0049081824    56.983542 
 1200000    2416.2058    601.66873 0.0048386481    56.176255 
Loop time of 8916.4 on 104 procs for 1200000 steps with 18000 atoms

Performance: 11.628 ns/day, 2.064 hours/ns, 134.583 timesteps/s
99.8% CPU use with 104 MPI tasks x 1 OpenMP threads

MPI task timing breakdown:
Section |  min time  |  avg time  |  max time  |%varavg| %total
---------------------------------------------------------------
Pair    | 2896.4     | 2978       | 3088.2     |  83.8 | 33.40
Bond    | 0.069453   | 0.10185    | 0.16905    |   6.4 |  0.00
Kspace  | 5080.7     | 5225.9     | 5362.4     |  86.9 | 58.61
Neigh   | 202.96     | 227.97     | 249.29     |  79.2 |  2.56
Comm    | 330.18     | 396.42     | 447.97     | 138.1 |  4.45
Output  | 0.0015002  | 0.0015876  | 0.0031562  |   0.4 |  0.00
Modify  | 13.514     | 15.276     | 20.532     |  24.0 |  0.17
Other   |            | 72.81      |            |       |  0.82

Nlocal:        173.077 ave         191 max         154 min
Histogram: 2 7 18 5 12 22 10 17 8 3
Nghost:        3143.62 ave        3238 max        3044 min
Histogram: 6 15 4 3 27 11 8 6 16 8
Neighs:        34969.1 ave       38215 max       31124 min
Histogram: 3 5 12 11 13 16 13 14 9 8

Total # of neighbors = 3636791
Ave neighs/atom = 202.04394
Ave special neighs/atom = 0.0000000
Neighbor list builds = 195386
Dangerous builds = 0

Total wall time: 2:42:50
