ITEM: TIMESTEP
50000
ITEM: NUMBER OF ATOMS
18000
ITEM: BOX BOUNDS pp pp pp
-4.1275023578022824e-01 2.7752750235780073e+01
-5.0157692443026765e+00 3.3309576924429763e+02
-4.0578658926419814e-01 2.7745786589265034e+01
ITEM: ATOMS id type x y z
3673 2 5.23672 0.494438 5.32674
5 2 2.61126 -2.25979 2.68409
6 1 1.15048 -0.995956 1.3346
14 2 5.86449 -2.08958 2.40314
9 1 3.96008 -0.764662 1.31309
63 2 2.19586 0.943711 2.30704
10 1 3.98799 -1.25022 4.21316
3604 2 2.41743 -2.25429 5.7394
12 1 1.23971 -0.747666 4.03955
3547 1 3.72365 -3.45732 1.01942
3599 1 1.27219 -3.73804 1.4562
3548 1 1.01718 -3.26585 4.01775
3551 1 3.45493 -3.83899 4.01191
18 1 6.37552 -3.64324 3.96801
14418 1 6.5327 -3.62872 0.827016
19 1 6.65004 -0.796484 0.695097
7 1 1.52698 1.25502 -0.335717
3661 2 -0.481118 0.595581 5.29734
7228 2 13.6323 -2.32757 11.0123
20 1 6.68447 -0.742282 4.11507
3628 2 13.4103 -2.19209 5.30185
3559 1 9.58183 -3.80068 1.03411
17 1 8.10155 -2.24374 2.5529
3685 2 10.86 0.691917 5.286
30 1 12.239 -3.48887 3.81793
31 1 11.9369 -1.00869 0.989586
26 2 10.6091 -2.18686 2.42651
32 1 12.2697 -0.661284 3.94957
21 1 9.41982 -0.778848 0.871205
75 2 8.14284 0.39691 2.43687
22 1 9.43661 -3.80723 4.10804
3616 2 7.99568 -2.2861 5.25991
24 1 9.54326 -0.713599 3.93147
3571 1 12.1183 -4.07492 0.899498
3629 1 12.0087 -0.834143 6.82113
16 2 8.006 -2.32074 -0.438471
7441 2 -0.250947 17.4137 10.8674
3687 2 13.4794 0.609942 8.09909
3668 1 -0.606393 6.29488 8.23625
65 1 1.48914 3.21562 1.70043
74 2 5.28088 3.23945 2.64474
8 1 0.897846 1.94899 4.11555
70 1 3.80453 1.76039 3.86621
3664 2 2.49364 3.4115 5.43244
11 1 3.87776 1.92529 1.01275
66 1 0.914871 4.73736 4.16457
69 1 3.88634 4.64133 1.08284
3733 2 5.15961 6.24565 5.43125
123 2 2.44827 6.0561 2.70403
130 1 3.77368 7.53211 4.00615
72 1 3.80571 4.62874 4.08967
3725 1 1.10526 7.53607 3.96658
129 1 3.66263 7.53485 1.16599
68 1 0.894525 7.86253 1.10943
137 1 6.59971 7.4934 1.0541
138 1 6.54033 7.61919 4.0249
3729 1 3.85819 7.73228 6.75458
78 1 6.72408 2.00548 3.97892
80 1 6.43054 4.81651 3.97755
3679 1 6.61834 4.73941 6.71635
3726 1 1.0198 7.72053 6.77964
133 2 5.18768 6.122 -0.321359
3662 2 -0.313734 3.60803 8.12933
77 1 6.63712 1.91764 1.03929
71 1 6.61385 4.57741 0.962582
3677 1 6.56807 1.7447 6.72107
7408 2 13.7138 14.6791 10.9458
89 1 12.1638 1.96178 1.03326
86 2 10.7129 3.3477 2.41217
82 1 9.36279 1.85107 3.91179
3676 2 8.06875 3.4179 5.43712
23 1 9.54712 1.87365 1.03308
3689 1 12.1995 2.23739 3.88658
90 1 12.211 4.80203 3.70197
81 1 9.19762 4.64386 1.09379
3745 2 10.8333 6.17422 4.97826
91 1 11.916 4.74637 1.04392
135 2 7.91646 6.03495 2.49982
83 1 9.41791 7.57854 1.024
84 1 9.36763 4.73058 3.85033
14492 1 12.1378 7.5685 1.03769
142 1 9.3804 7.56646 3.6425
92 1 12.1396 7.72234 3.64019
3749 1 12.1043 7.53245 6.38557
3681 1 9.32305 1.86795 6.83805
87 2 13.5909 0.735931 2.51719
3688 2 13.6919 3.5391 5.23386
3691 1 12.1482 4.7383 6.60961
28 2 13.4621 -2.17094 -0.503281
73 2 5.235 0.570287 -0.478175
124 2 2.48774 9.00392 -0.249825
3793 2 5.29785 11.8338 5.31166
126 1 1.02609 10.5761 1.21347
134 2 5.18532 8.8643 2.43121
128 1 0.77157 10.4841 3.93223
183 2 2.35163 11.9889 2.47221
3724 2 2.35028 9.09759 5.22479
131 1 3.88136 10.3713 1.0868
132 1 3.70123 10.5408 3.8896
186 1 0.845785 13.2456 3.80381
189 1 3.88391 13.1765 0.924699
190 1 3.71342 13.2991 4.03006
187 1 1.14395 13.3827 1.12371
197 1 6.47756 13.1399 1.06717
3731 1 3.7501 10.6048 6.66152
3785 1 0.908018 13.3044 6.54634
198 1 6.54116 13.2283 3.93643
139 1 6.60559 10.3965 1.07395
3784 2 2.35413 14.6387 5.23321
207 2 13.5446 11.8274 2.4993
3727 1 0.930592 10.4935 6.82689
3861 1 9.44037 18.9135 6.63705
140 1 6.54336 10.2991 3.86079
150 1 12.0622 10.414 3.74733
3805 2 10.819 11.8755 5.22524
149 1 9.30059 10.4112 3.76935
146 2 10.7556 9.09372 2.32934
141 1 12.1978 10.3029 0.916736
3736 2 8.01237 8.93136 5.15473
144 1 9.42769 10.2878 0.910565
195 2 7.92565 12.014 2.57338
143 1 9.53758 13.0933 0.874688
210 1 12.2001 13.128 3.86699
202 1 9.52292 13.2401 3.8881
211 1 12.3916 13.2059 1.03993
206 2 10.7135 14.5887 2.33484
3796 2 8.0422 14.5499 5.19135
136 2 7.8873 8.86877 -0.277348
196 2 8.03219 14.266 -0.243255
3809 1 12.2678 13.2707 6.70808
3743 1 9.40528 10.496 6.39375
7395 2 7.9217 11.7485 13.7912
147 2 13.6115 6.29551 2.21905
15 2 8.18775 -4.99528 2.46817
194 2 5.08572 14.5746 2.44475
3853 2 5.15432 17.5171 5.27614
245 1 0.909046 18.9806 0.868821
246 1 1.00296 18.9368 3.66621
254 2 5.1885 20.2229 2.44704
188 1 0.84152 16.1345 3.76604
249 1 3.75994 18.8479 1.00278
243 2 2.27527 17.5074 2.48245
250 1 3.72507 19.0195 3.83752
3844 2 2.40751 20.3519 5.16346
191 1 0.869541 16.094 1.0822
192 1 3.73266 16.1636 3.81519
14598 1 3.7605 15.8848 1.00766
14604 1 6.45013 16.5431 1.09303
199 1 6.38262 15.9775 4.02407
257 1 6.45234 19.042 0.510179
3787 1 0.928192 16.1525 6.64985
17952 1 -0.096993 -2.44636 -0.26112
85 2 10.6788 0.563763 -0.405193
265 2 11.1762 17.5986 -0.626442
258 1 6.68629 18.8248 3.59945
3857 1 6.61705 19.1001 6.51206
201 1 8.12312 14.7294 2.28878
215 1 12.3542 16.122 0.91876
3865 2 10.9561 17.5142 5.30599
269 1 12.2566 18.8995 0.965429
270 1 12.3708 18.9447 3.81835
266 2 11.0278 20.301 2.60236
212 1 12.3541 16.0881 3.81076
261 1 9.2416 18.8676 1.0321
255 2 8.01241 17.1669 2.74936
262 1 9.45189 18.8348 3.98608
3856 2 8.06683 20.3674 5.31633
203 1 9.44426 16.1911 0.779234
204 1 9.67572 16.1436 3.81533
3609 1 3.75946 -3.55017 6.89784
58 1 0.818066 -3.68364 6.83397
3611 1 3.83693 -0.844591 6.97731
3605 1 0.780583 -3.62121 9.56768
3607 1 0.997726 -0.774366 6.77397
7273 2 5.27417 0.41497 10.9584
7205 1 1.02761 -3.86529 12.3649
3606 1 0.993467 -0.878196 9.5455
7207 1 0.873593 -0.94403 12.3794
3614 2 5.18236 -2.2854 8.22434
7209 1 3.70214 -3.88709 12.3741
3663 2 2.3185 0.538836 8.26938
3610 1 3.8312 -3.78756 9.61244
7204 2 2.37091 -2.48215 10.9922
7211 1 3.61879 -1.02977 12.431
3612 1 3.76256 -1.02599 9.58401
7217 1 6.4841 -3.90884 12.382
3618 1 6.57608 -3.88334 9.57668
3620 1 6.59235 -0.953733 9.69272
3621 1 9.45675 -3.82412 6.96568
7403 1 9.51291 15.8583 12.3038
3782 2 -0.347598 14.7275 8.23183
3619 1 6.58213 -1.22566 6.75101
7219 1 6.70962 -0.947541 12.5035
3617 1 6.52531 -3.91413 6.72134
3623 1 9.35651 -0.939274 6.7355
3630 1 12.3226 -3.71145 6.72112
7285 2 10.7683 0.400531 10.8689
7229 1 12.4177 -3.80901 12.2421
7231 1 12.1727 -1.0247 12.377
3626 2 10.7447 -2.36926 8.19057
3632 1 12.1348 -1.02035 9.46123
7221 1 9.45468 -3.81059 12.3461
3675 2 8.01632 0.45977 8.24073
3622 1 9.36602 -4.04059 9.61241
7216 2 8.00992 -2.55827 11.0161
7223 1 9.39483 -1.02949 12.3625
3624 1 9.31288 -1.03972 9.65409
7172 1 12.1644 -3.78381 9.43511
3671 1 3.88617 4.77426 6.71224
3667 1 1.12116 4.78565 6.80654
3669 1 3.69476 1.85474 6.59523
3804 1 9.4629 15.9234 9.46997
3737 1 6.66918 7.56891 6.68303
3665 1 1.03422 2.18502 7.00831
7265 1 1.01103 1.84751 12.4103
3674 2 5.11483 3.20199 8.17044
3608 1 1.08178 1.94775 9.7055
7269 1 3.8361 1.71761 12.3525
3670 1 3.79323 1.71799 9.69052
7264 2 2.42653 3.22201 11.0335
3666 1 1.06781 4.77717 9.70505
7333 2 5.07064 6.03975 10.8908
7325 1 0.84276 7.55003 12.3068
7267 1 0.946283 4.59745 12.3636
7329 1 3.7053 7.53099 12.2655
3723 2 2.42364 6.24722 8.20272
3730 1 3.91876 7.46247 9.52379
7271 1 3.75389 4.59261 12.4251
3672 1 3.65664 4.83051 9.56765
3778 1 1.20209 7.78735 9.53749
7337 1 6.33332 7.49204 12.2577
3680 1 6.43367 4.57095 9.35798
7277 1 6.66917 1.80536 12.2705
3738 1 6.62032 7.54276 9.30894
7279 1 6.50055 4.70272 12.3115
3862 1 9.42981 18.8217 9.44151
3741 1 9.35603 7.57182 6.48545
3631 1 12.1205 1.91384 6.79908
3869 1 12.2629 18.9372 6.65988
3811 1 12.3519 16.0699 6.6995
3678 1 6.6342 1.85907 9.44381
3683 1 9.488 4.68561 6.64346
7289 1 12.136 1.6757 12.352
3690 1 12.1985 1.98992 9.58747
3686 2 10.9227 3.25227 8.14929
7281 1 9.51779 1.79928 12.397
3682 1 9.46278 1.77394 9.54104
7276 2 7.99614 3.16982 10.8657
3684 1 9.34165 4.55305 9.42743
7283 1 9.21073 4.80441 12.3163
3735 2 8.02899 6.10453 7.9659
7345 2 10.7913 5.70183 10.9838
7291 1 11.9786 4.32806 12.334
3692 1 12.2825 4.84807 9.45751
3750 1 12.3134 8.33781 9.22822
7341 1 9.04392 7.70679 12.022
7349 1 11.8864 7.59524 11.8695
3742 1 9.94509 7.10636 9.27546
7399 1 6.6919 16.0672 12.3298
3797 1 6.62975 13.1847 6.71847
3789 1 3.7278 13.3877 6.8274
7393 2 5.07049 11.9266 10.9566
7327 1 0.907864 10.3167 12.3815
3734 2 5.08368 8.9753 8.16484
3728 1 0.839403 10.609 9.60155
3783 2 2.30034 11.9765 8.01676
7324 2 2.31572 9.01747 10.9328
7331 1 3.76216 10.3986 12.3957
3732 1 3.65059 10.3816 9.54658
7339 1 6.31939 10.3933 12.5938
3740 1 6.3638 10.5192 9.72833
7389 1 3.67154 13.2609 12.3054
3786 1 0.995713 13.273 9.64736
7385 1 1.08524 13.1806 12.5806
3790 1 3.85809 13.219 9.45023
7397 1 6.64341 13.2673 12.2982
3800 1 6.65256 13.1289 9.42759
7384 2 2.45346 14.7851 10.9316
3812 1 12.2022 16.1595 9.3491
3841 2 -0.449191 17.5153 5.16605
3739 1 6.49398 10.2573 6.77168
152 1 12.3109 10.5486 6.53452
3751 1 9.44851 13.2823 6.8181
3806 2 10.9343 14.6379 8.05374
7343 1 13.63 11.6267 10.7278
3810 1 12.1857 13.4792 9.6742
7401 1 9.40726 13.1105 12.5964
7351 1 11.4032 10.7557 9.22538
3746 2 10.4693 9.09365 10.5539
3801 1 9.13568 10.2397 12.0261
3744 1 11.6445 10.1717 12.0587
7336 2 7.39572 9.01537 10.9829
3795 2 10.8292 9.05876 7.52501
3752 1 8.75933 9.73595 9.04937
3798 2 7.97905 11.6852 8.11591
7405 2 11.0965 12.2616 11.1895
7409 1 12.4549 13.4702 12.6737
3802 1 9.34173 12.9559 9.73268
7411 1 12.4292 16.0413 12.1942
7396 2 8.0771 14.5476 10.9085
3845 1 0.991864 18.9382 6.56704
3791 1 3.76431 16.1932 6.69939
7457 1 6.71702 18.8685 12.3719
200 1 6.63177 16.2828 6.71075
3849 1 3.78926 18.925 6.6886
3794 2 5.22177 14.7768 8.14542
7444 2 2.52887 20.2856 11.0981
7391 1 3.96984 16.0542 12.2345
7449 1 3.91068 18.8563 12.4175
3846 1 1.06852 18.9165 9.48955
3788 1 1.17421 16.0476 9.49451
3854 2 5.32326 20.2921 8.0328
7445 1 1.10282 19.013 12.3648
7453 2 5.27404 17.5304 10.9201
3850 1 3.98462 18.7316 9.52576
3843 2 2.50109 17.5616 7.99679
3792 1 3.84517 16.028 9.60092
7387 1 1.09994 16.2512 12.3358
3858 1 6.67996 18.9491 9.40086
3866 2 10.8455 20.2578 8.1616
3799 1 6.67902 16.0444 9.5402
7468 2 13.717 20.3044 11.0034
7461 1 9.6121 18.598 12.2591
7469 1 12.4341 18.7236 12.1098
3855 2 8.09802 17.4265 8.16485
3870 1 12.2894 19.0136 9.4118
3803 1 9.45408 16.1201 6.70377
7465 2 10.909 17.4352 10.8266
7456 2 8.03452 20.3805 10.8793
253 2 4.85799 17.3853 -0.336153
79 2 7.85078 3.27128 -0.46838
7275 2 7.99913 0.519249 13.7682
7288 2 13.6428 3.23456 10.9741
29 2 13.6126 -4.72371 2.4673
259 2 7.97107 20.6619 -0.355863
62 2 -0.524466 3.30203 3.00159
3747 2 13.5844 6.24425 8.03913
3721 2 -0.422683 6.27796 5.6898
145 2 10.5663 6.18584 -0.285717
1 2 -0.33197 -4.96899 -0.372072
10873 2 5.16658 0.50976 16.4956
10805 1 0.945824 -3.8317 17.9447
7206 1 0.908602 -3.64568 15.0241
10807 1 0.90865 -0.976492 18.0073
10814 2 5.14624 -2.25377 19.3006
7208 1 1.01871 -1.01118 15.2624
10809 1 3.73992 -3.75682 17.7346
10863 2 2.32854 0.439116 19.3821
7210 1 3.68466 -3.78178 15.0556
10804 2 2.31937 -2.394 16.5588
10811 1 3.69155 -0.910321 17.9962
7212 1 3.96103 -1.0765 15.2301
10808 1 0.778543 -0.871562 20.7491
10817 1 6.67763 -3.76631 17.8002
10819 1 6.5046 -0.813729 17.8774
7220 1 6.75461 -0.82059 15.2571
10861 2 -0.400708 0.482398 16.5709
7263 2 2.34586 0.36131 13.8573
7218 1 6.5895 -3.7572 15.0506
10828 2 13.6164 -2.4192 16.4773
10885 2 10.8954 0.469507 16.5077
10829 1 12.2881 -3.77123 17.8271
7230 1 12.1403 -3.79416 15.0792
10831 1 12.2544 -0.9515 17.9287
10826 2 10.7447 -2.36348 19.2599
7232 1 12.3606 -1.04926 15.126
10821 1 9.48265 -3.74208 17.8282
10875 2 7.94645 0.486044 19.2592
7222 1 9.36939 -3.91035 15.0084
10816 2 8.05464 -2.46245 16.4326
10823 1 9.41494 -0.932329 17.8851
7224 1 9.44735 -0.892208 15.064
10824 1 9.24612 -0.847981 20.6624
7394 2 5.19429 14.6678 13.6421
7466 2 10.8786 20.1764 13.7694
7226 2 10.81 -2.30699 13.7012
10865 1 1.00015 1.86786 17.8989
7266 1 0.925389 1.92765 15.1538
10869 1 3.812 1.80602 17.8117
7270 1 3.74742 1.91868 15.0752
10864 2 2.48106 3.34661 16.6114
10874 2 5.25838 3.30554 19.2743
7278 1 6.51605 1.86359 15.059
10933 2 5.20144 6.11712 16.4057
10925 1 1.13281 7.51066 17.9628
7326 1 0.96657 7.71239 15.1169
10867 1 1.14759 4.78957 17.9303
7268 1 0.919523 4.81354 15.244
10929 1 3.82708 7.56878 18.0878
10923 2 2.54653 6.20819 19.4057
7330 1 3.62178 7.47942 15.154
10871 1 3.89469 4.71694 17.8342
7272 1 3.78812 4.74335 15.0161
7338 1 6.47841 7.51087 14.9682
7280 1 6.6091 4.66458 15.0095
10926 1 0.936978 7.53965 20.6468
10878 1 6.77198 1.93462 20.6582
10866 1 0.988212 2.01605 20.6337
10879 1 6.60017 4.70232 17.8424
10937 1 6.55718 7.54098 17.7437
10880 1 6.55929 4.77173 20.8156
10872 1 3.80219 4.70059 20.7902
7274 2 5.22567 3.30105 13.7362
14428 2 13.5053 -2.34106 22.1352
10877 1 6.53784 1.88625 17.8049
10889 1 12.1726 1.83573 17.883
7290 1 12.2378 1.8665 15.1803
10886 2 10.8927 3.31904 19.2339
10881 1 9.44121 1.71927 17.9601
7282 1 9.31014 1.9527 15.0893
10876 2 7.97655 3.31273 16.5156
10945 2 10.8042 6.21038 16.5277
10949 1 12.2875 7.61217 18.0061
10891 1 12.1748 4.67473 17.9691
7292 1 12.0375 4.6254 15.3427
10941 1 9.19403 7.57878 17.7686
10935 2 8.0323 6.03024 19.4168
7342 1 9.26445 7.73315 14.8768
10883 1 9.28971 4.52938 18.0362
7284 1 9.27408 4.97809 15.233
7350 1 12.1257 7.68416 15.1113
10890 1 12.195 1.91811 20.5732
7467 2 13.7611 17.4598 13.6629
11007 2 13.6673 11.8169 19.3789
7335 2 7.89374 6.1972 13.6987
7334 2 4.94575 8.93411 13.7572
10993 2 5.22868 11.8019 16.5366
10927 1 1.03667 10.2676 18.0997
10934 2 5.22813 8.86982 19.223
7328 1 1.02717 10.4721 15.1723
10983 2 2.44586 11.755 19.3589
10924 2 2.31228 8.88746 16.6551
10931 1 3.87569 10.2945 18.0213
7332 1 3.74353 10.3636 15.203
10985 1 0.983102 12.9643 17.9244
7386 1 1.06608 13.2935 15.1685
10989 1 3.85345 13.2061 17.8034
7390 1 3.97739 13.2348 15.0948
10997 1 6.45799 13.2659 18.0014
10990 1 3.85821 13.2164 20.6881
7340 1 6.5491 10.4439 15.2018
10986 1 1.07648 13.258 20.715
10932 1 3.7429 10.232 20.7206
10928 1 0.980597 10.3636 20.8351
11062 1 9.4947 18.8227 20.8079
11070 1 12.2831 18.8814 20.6304
10887 2 13.6365 0.345818 19.2453
7398 1 6.59154 13.1913 15.2365
10939 1 6.59251 10.3871 17.9757
11005 2 10.8134 11.8264 16.4859
10951 1 12.2608 10.474 17.9251
10946 2 10.8441 9.04924 19.1797
7352 1 12.2116 10.5443 15.0128
10995 2 7.91967 11.8519 19.3209
10936 2 8.04842 8.99081 16.491
10943 1 9.43147 10.3411 17.911
7344 1 9.49588 10.5005 15.123
7346 2 10.7714 8.95961 13.8145
11009 1 12.2773 13.3864 17.9536
7410 1 12.2158 13.296 15.261
11001 1 9.37654 13.074 18.0681
7402 1 9.37945 13.1692 15.2237
11006 2 10.7907 14.561 19.2834
11041 2 -0.370081 17.393 16.6436
11002 1 9.45688 13.2951 20.8262
14665 2 10.7385 17.3113 22.1215
14611 1 12.0661 16.1027 23.549
14548 2 13.5899 9.05837 22.2499
10994 2 5.23718 14.6183 19.3735
11053 2 5.18989 17.6316 16.4758
11045 1 0.973153 18.6404 18.0501
7446 1 0.970172 18.9668 15.4154
10987 1 1.01463 15.851 17.8985
11054 2 5.22528 20.3864 19.272
7388 1 1.06263 16.0472 15.1621
11049 1 3.87191 18.9529 18.032
11043 2 2.42844 17.4155 19.3072
7450 1 3.68324 19.0023 15.2289
10984 2 2.50886 14.6236 16.4664
11044 2 2.35095 20.4212 16.8373
10991 1 3.81527 16.1619 17.9798
7392 1 3.69147 16.1446 14.994
10999 1 6.64002 16.0936 17.9961
11057 1 6.65053 18.8891 18.0158
10988 1 0.890026 16.0005 20.604
11046 1 1.20196 18.8148 20.7291
7400 1 6.51828 15.9151 15.3391
10992 1 3.62139 16.2127 20.8146
14596 2 8.0847 14.5798 22.1122
7323 2 2.29136 6.14196 13.6219
7458 1 6.58669 18.7771 15.1586
7286 2 10.7779 3.21142 13.8078
10996 2 7.95233 14.7415 16.5135
11065 2 10.9053 17.4952 16.5606
11069 1 12.3185 18.8937 17.9521
7470 1 12.3636 18.8751 14.8617
11011 1 12.1993 16.194 17.828
11066 2 10.812 20.2897 19.327
7412 1 12.2865 16.1969 14.988
11061 1 9.44938 18.9444 17.9374
11055 2 7.9126 17.4497 19.2749
7462 1 9.31023 18.7648 15.1401
11056 2 7.9945 20.3078 16.4577
11003 1 9.45712 15.9784 17.9257
7404 1 9.56106 16.0945 15.1754
11004 1 9.59157 16.1035 20.7141
11000 1 6.66504 15.9702 20.7246
11012 1 12.3407 15.8883 20.7402
14488 2 13.5999 3.34897 22.0444
64 2 2.79336 3.26642 27.7109
11068 2 13.6642 20.3708 16.5457
14582 2 -0.35456 15.3175 24.9755
10810 1 3.64084 -3.57445 20.3685
10806 1 0.754628 -3.79676 20.6757
10812 1 3.77847 -0.981084 20.8342
10818 1 6.51715 -3.63905 20.6482
4 2 2.26798 -2.3688 27.5152
17948 1 0.973642 -3.93861 26.1981
14473 2 5.2416 0.531776 22.1261
14405 1 1.00697 -3.84337 23.4544
14407 1 0.856595 -0.922482 23.4289
14414 2 5.2095 -2.38055 24.9889
14408 1 0.961289 -0.766285 25.9858
14409 1 3.70079 -3.65798 23.389
14463 2 2.27436 0.683125 24.7652
14410 1 3.81594 -1.00334 26.4907
14404 2 2.36487 -2.21713 22.2259
14411 1 3.75473 -0.704672 23.6115
17960 1 3.89539 -3.80948 26.4055
14420 1 6.54381 -0.86286 26.1253
17964 1 6.74259 -3.75228 26.277
14419 1 6.60451 -0.93458 23.4921
14417 1 6.5477 -3.67913 23.4223
14487 2 13.4844 0.58602 24.969
10820 1 6.4687 -0.88711 20.7565
14669 1 12.1591 18.9479 23.4471
10822 1 9.3571 -3.82348 20.6232
14603 1 9.3381 15.9492 23.4501
10832 1 11.935 -0.970195 20.6897
10830 1 12.1728 -3.70771 20.7008
14485 2 10.628 0.563095 21.9348
14429 1 12.1706 -3.67744 23.5431
14430 1 12.1446 -3.47564 26.3245
14431 1 12.0078 -0.882451 23.4141
14426 2 10.7466 -2.2819 24.8074
14432 1 12.1124 -0.785845 26.2524
14421 1 9.38661 -3.67165 23.4386
14475 2 7.94481 0.483223 24.9249
14422 1 9.53687 -3.6866 26.136
14416 2 7.98422 -2.25227 22.1423
14423 1 9.38952 -0.825347 23.3745
14424 1 9.22273 -0.931052 26.3007
10930 1 3.78955 7.61171 20.8637
10868 1 0.910528 4.67665 20.7341
7407 2 13.7517 11.9538 13.9898
7383 2 2.3857 11.8295 13.8102
10870 1 3.93886 1.91016 20.5909
14465 1 1.0067 1.84155 23.4352
14466 1 1.01257 2.84141 26.0773
14469 1 3.68691 1.98441 23.254
14412 1 3.9145 1.89501 26.2168
14474 2 5.20794 3.32795 24.8357
14464 2 2.33849 3.3422 22.0146
14477 1 6.54255 1.89526 23.533
14533 2 5.0627 6.24598 22.2673
14525 1 0.932318 7.49766 23.3351
14467 1 1.16092 4.6489 23.398
14529 1 3.79583 7.67371 23.6638
14523 2 2.21261 6.15906 25.0746
14530 1 3.8582 7.50857 26.4376
14471 1 3.88459 4.85103 23.6121
14472 1 3.89664 4.83426 26.3778
14526 1 1.21926 7.78054 26.3599
14470 1 6.55302 4.70881 26.345
14478 1 6.59824 1.90721 26.1998
7406 2 10.86 14.7158 13.8327
10942 1 9.36041 7.49436 20.6459
10938 1 6.67875 7.56367 20.6118
10882 1 9.4032 1.92207 20.6143
10950 1 12.1892 7.64486 20.8894
10884 1 9.57312 4.73694 20.8099
14537 1 6.52896 7.64412 23.4955
14479 1 6.61597 4.77707 23.6507
10892 1 12.2586 4.65249 20.711
14489 1 12.099 1.87317 23.459
14490 1 12.0804 2.02355 26.3917
14481 1 9.38355 2.04979 23.6513
14482 1 9.31517 1.88506 26.455
14476 2 7.95923 3.44554 22.1001
76 2 10.6381 3.45837 25.0757
14480 1 6.53842 7.7131 26.3463
14486 1 11.8539 4.99674 26.3859
14484 1 9.21499 4.73864 26.5855
14483 1 9.34433 4.81931 23.5673
14535 2 7.9065 6.25326 24.9771
14545 2 10.7494 6.17224 22.2112
14550 1 12.1332 7.78149 26.4234
14491 1 12.1028 4.76624 23.5791
14541 1 9.28663 7.53206 23.4319
14549 1 12.1008 7.51079 23.6089
14542 1 9.43888 7.54347 26.2276
14518 1 -0.486295 5.91572 25.2309
7443 2 2.45622 17.5912 13.8711
14585 1 0.292369 13.4535 23.3586
14597 1 6.6054 13.1957 23.4666
14593 2 5.15768 11.7113 22.1666
14527 1 0.499167 10.4616 23.768
14534 2 5.17331 8.98561 24.9507
14528 1 1.00239 11.634 26.4159
14583 2 2.60431 11.9249 24.989
14524 2 2.44475 8.96317 22.1059
14531 1 3.6318 10.419 23.5424
14532 1 3.74788 10.4559 26.2945
14540 1 6.60624 10.4225 26.2165
14589 1 3.72305 13.1811 23.476
14586 1 1.53896 13.9808 25.4515
14590 1 4.03068 13.2139 26.2083
14539 1 6.5855 10.4245 23.5574
14662 1 9.40545 18.9382 26.4612
7382 2 -0.29045 14.725 13.8478
10940 1 6.4184 10.3437 20.776
10944 1 9.30024 10.3383 20.6269
14656 2 7.93447 20.3876 22.0741
10998 1 6.69841 13.2781 20.7975
11010 1 12.1678 13.1243 20.6148
14602 1 6.67551 13.1408 26.3487
14601 1 9.40345 13.0581 23.5513
14609 1 12.2109 13.2408 23.5327
14610 1 12.0105 13.177 26.3521
14544 1 9.42318 13.2667 26.4382
10952 1 12.229 10.4898 20.8477
14538 1 9.4678 10.3061 26.218
14543 1 9.30543 10.3025 23.3789
14536 2 7.86236 8.90243 22.0321
14595 2 7.95765 11.654 24.8125
14605 2 10.714 11.6926 22.1009
14551 1 12.2895 10.4323 23.5521
14546 2 10.686 8.96955 24.8519
14552 1 12.2624 10.46 26.251
205 2 10.738 14.5996 24.8784
14661 1 9.44073 18.8796 23.4726
14666 2 11.0124 20.3323 24.8241
11050 1 3.9039 19.0386 20.8251
14646 1 0.815484 19.0677 26.4225
14649 1 4.00814 18.7928 23.6139
14600 1 6.8267 15.8806 26.6407
14591 1 3.91229 15.9028 23.5892
14599 1 6.57276 16.1157 23.3893
14594 2 5.27614 14.6828 24.9711
14657 1 6.56645 18.9755 23.4225
14654 2 5.12332 20.3568 24.9308
14588 1 1.14689 16.4265 26.4327
14653 2 5.18503 17.5142 22.0568
14645 1 1.10033 18.9119 23.3605
14650 1 3.64296 18.8661 26.4072
14643 2 2.46947 17.6377 24.7717
14592 1 3.80205 16.1484 26.2987
14587 1 1.09464 16.2627 23.4266
14584 2 2.31 14.666 22.2182
14644 2 2.46068 20.4011 22.1486
11058 1 6.82597 18.9593 20.6346
7455 2 8.02927 17.493 13.6989
14638 1 -0.414885 13.9032 26.9519
14606 1 9.37314 16.3273 26.2431
14547 2 13.3777 6.1953 25.016
14658 1 6.53698 18.65 26.1911
14670 1 12.3839 18.8913 26.1392
14655 2 7.96117 17.5368 24.5817
14612 1 12.2452 15.9247 26.1769
10947 2 13.5873 6.1673 19.4374
10948 2 13.6643 8.96544 16.4801
67 1 1.2837 5.14922 27.7014
14581 2 -0.395558 11.7272 21.8425
10982 2 -0.385235 14.5269 19.184
14607 2 13.5176 11.9311 24.8921
7442 2 -0.349916 20.2349 13.8286
14608 2 13.6403 14.5253 22.1442
209 2 10.8702 11.6416 27.7365
10888 2 13.6814 3.30068 16.6779
11067 2 13.5988 17.3958 19.3962
10981 2 -0.379602 11.7001 16.5271
256 2 7.96367 17.5284 27.7656
14668 2 13.5577 20.245 22.0664
14641 2 -0.468687 17.5029 22.0314
244 2 2.24361 20.3959 27.7665
88 2 13.1487 3.4859 27.6861
208 2 13.6485 14.5944 27.8406
193 2 5.1905 11.7061 27.833
184 2 2.25122 14.7422 27.6103
7214 2 5.13653 -2.49024 13.8072
7454 2 5.38772 20.3852 13.809
3913 2 5.18564 23.1547 5.24171
305 1 0.997679 24.5057 1.06761
306 1 1.11311 24.5177 3.94155
247 1 0.92278 21.748 1.02692
314 2 5.21459 25.9307 2.36852
248 1 1.01869 21.8566 3.76308
309 1 3.62854 24.4499 1.05031
303 2 2.41021 23.1148 2.43497
310 1 3.89239 24.5023 3.81356
3904 2 2.47555 26.0076 5.2522
251 1 3.76833 21.6662 0.971495
252 1 3.84255 21.6572 3.93644
308 1 0.961306 27.3427 4.00885
311 1 3.7981 27.3229 1.00458
312 1 3.88476 27.1788 3.86841
3851 1 3.65966 21.741 6.67414
260 1 6.73105 21.7201 3.92727
318 1 6.83794 24.4706 3.82041
307 1 1.15803 27.3873 1.02539
317 1 6.61255 21.6587 1.18485
3919 1 6.62549 27.4233 6.71436
3911 1 3.88101 27.5141 6.65795
558 1 6.61975 47.0429 3.58362
320 1 6.50577 27.285 3.79252
3917 1 6.63602 24.5555 6.56814
319 1 6.47995 24.4578 0.908169
3925 2 10.9589 23.0411 5.32462
329 1 12.127 24.4985 1.19419
330 1 12.412 24.6634 3.87942
271 1 12.197 21.7895 0.933449
326 2 10.8497 26.1197 2.57671
272 1 12.4644 21.6443 3.90821
321 1 9.37093 24.4625 1.07474
315 2 8.15866 23.124 2.54135
322 1 9.59605 24.5806 3.88828
3916 2 8.10665 25.8036 5.24166
263 1 9.50881 21.6668 0.978332
264 1 9.65972 21.7102 3.85805
324 1 9.26284 27.3999 3.90504
332 1 12.1772 27.4363 3.74056
3921 1 9.71276 24.5634 6.65541
3863 1 9.53367 21.8086 6.73302
331 1 12.3348 27.4009 0.780752
14720 1 6.63541 27.2676 1.01721
323 1 9.33208 27.3053 1.16249
3871 1 12.3939 21.6308 6.73019
4169 1 12.3488 47.2222 6.46287
3973 2 5.25134 28.8377 5.40791
363 2 2.49593 28.8797 2.3415
366 1 0.873656 29.9602 3.84344
374 2 5.28156 31.6708 2.58336
368 1 2.14958 31.6065 2.19839
369 1 4.28216 30.1682 1.14745
370 1 3.93561 30.2066 3.88683
3964 2 2.54771 31.668 5.17959
371 1 3.99198 33.2244 1.1807
372 1 3.99644 33.1777 3.93522
3967 1 0.912178 33.0042 3.97567
426 1 0.731985 33.1342 0.725849
14766 1 1.07741 30.1368 0.365378
3968 1 1.36849 33.0648 6.58807
362 2 -0.157165 31.6517 2.67197
3969 1 3.91732 30.2599 6.70517
3901 2 -0.155243 23.1611 5.1836
377 1 6.87258 30.0803 0.855148
379 1 6.69867 33.1768 1.19483
380 1 6.79741 33.0932 3.85557
378 1 6.75919 30.2914 3.8413
3985 2 10.6998 28.7972 5.33581
375 2 7.90824 28.7712 2.57256
449 1 12.2809 32.962 1.05664
390 1 12.2883 30.0991 0.956314
386 2 10.8566 31.7332 2.38737
392 1 12.2489 33.1401 3.7335
382 1 9.45723 30.1678 3.76409
3976 2 8.24234 31.761 5.21852
383 1 9.37755 33.0353 0.873475
384 1 9.59689 33.039 3.5872
3989 1 12.3456 30.2179 3.81088
14778 1 9.45488 30.2794 1.0439
4098 1 6.62231 41.4489 9.15295
7709 1 12.2093 41.4319 11.8512
3983 1 9.48117 33.0691 6.58884
4108 2 13.4878 42.9803 5.00251
4081 2 -0.526196 40.1327 5.26149
4033 2 5.41836 34.4295 5.27162
425 1 0.984078 35.8346 0.977902
434 2 5.23795 37.4398 2.51328
429 1 3.84163 35.9269 0.990139
423 2 2.52285 34.4964 2.41029
430 1 3.81131 36.048 3.74069
4024 2 2.34488 37.3257 5.28618
428 1 1.14641 35.6886 3.79616
4029 1 3.88644 35.9165 6.52178
486 1 0.926332 38.6366 3.85165
427 1 1.01073 38.5405 0.976954
431 1 3.81906 38.6329 0.966798
432 1 3.80668 38.8573 3.81313
4093 2 5.03486 40.2394 5.25308
483 2 2.3313 40.0585 2.36421
4039 1 6.59855 38.7026 6.49644
438 1 6.57435 35.9506 3.81881
437 1 6.77373 35.8914 0.927543
4104 1 9.47682 44.22 9.38808
4027 1 0.897803 38.657 6.55839
7765 2 10.8629 46.2025 10.7908
562 1 9.40664 47.0981 3.95508
433 2 5.31952 34.6577 -0.405556
439 1 6.71004 38.6303 1.03789
440 1 6.63512 38.8022 3.85562
4045 2 10.953 34.5642 5.19801
450 1 12.2066 36.08 3.93391
446 2 10.8652 37.3429 2.45108
441 1 9.54646 35.9474 0.986071
435 2 8.07482 34.53 2.42415
442 1 9.41184 35.8234 3.90579
4036 2 7.99953 37.3523 5.19536
451 1 12.2817 35.7573 1.24725
4105 2 10.636 40.0132 4.99942
452 1 12.065 38.8035 3.83346
495 2 7.97787 40.1101 2.27403
443 1 9.55237 38.8268 0.997846
444 1 9.3628 38.5842 3.72518
14852 1 12.2406 38.5899 1.00466
376 2 7.97426 31.6779 -0.382956
4043 1 9.47386 38.697 6.48357
4049 1 12.3092 35.7047 6.69785
4051 1 12.2416 38.8442 6.50724
4112 2 10.8501 42.876 10.7111
422 2 -0.460492 37.1618 2.50127
313 2 5.0504 23.1805 -0.330862
424 2 2.50299 37.1123 -0.460664
490 1 3.71186 41.5653 3.73525
4153 2 5.1764 45.7436 5.11433
485 1 0.89559 41.3045 1.04301
487 1 0.757898 44.1323 0.856943
494 2 5.01679 42.8378 2.34277
488 1 0.994154 44.2412 3.73195
489 1 3.73249 41.3835 1.03526
543 2 2.2797 45.6903 2.26107
4084 1 0.870729 41.4039 3.86648
491 1 3.63745 44.1861 0.861928
492 1 3.60678 44.2948 3.67358
482 2 2.32 42.9933 5.0783
498 1 6.3747 41.4154 3.52453
4097 1 6.45797 41.4809 6.37937
4087 1 0.929817 44.3274 6.62657
4091 1 3.60237 44.316 6.61726
497 1 6.51483 41.4162 0.864419
4085 1 0.818871 41.5104 6.69607
500 1 6.39779 44.3361 3.55779
499 1 6.73854 44.1326 0.926359
4022 2 -0.498461 37.2339 8.07843
4089 1 3.55691 41.5995 6.50975
3927 2 13.7466 23.1363 8.15207
539 2 -0.535005 42.8815 2.31851
557 1 6.64495 47.0046 0.841324
509 1 12.2943 41.5172 0.863393
569 1 12.3562 44.2975 0.832217
4165 2 10.7869 45.6801 5.04396
510 1 12.0073 41.5113 3.52296
506 2 10.698 42.8563 2.23387
501 1 9.26414 41.4762 0.852317
555 2 8.09792 45.6953 2.182
502 1 9.2879 41.5707 3.72951
4096 2 7.85187 42.8457 5.02041
503 1 9.47212 44.2211 0.766084
504 1 9.3045 44.291 3.73159
565 1 12.1695 44.239 3.64058
4109 1 12.1925 41.5313 6.50264
4101 1 9.27886 41.4828 6.50463
512 1 12.0815 44.2262 6.41946
4103 1 9.1391 44.2305 6.49224
3909 1 3.81485 24.6418 6.65053
3847 1 0.968394 21.5776 6.54151
3905 1 1.13824 24.5551 6.68139
3907 1 1.052 27.6744 6.73274
3859 1 6.629 21.9352 6.63776
3852 1 1.11538 21.6867 9.43565
7513 2 5.25404 23.1536 10.8581
7505 1 1.06399 24.4726 12.2533
3906 1 0.970594 24.6788 9.51615
7447 1 0.796949 21.7361 12.4348
3914 2 5.24514 26.0568 8.17763
7509 1 3.78962 24.4615 12.2198
3903 2 2.46163 23.2137 7.98464
3910 1 3.74409 24.578 9.3319
7504 2 2.5446 26.0505 10.8248
7451 1 3.76198 21.7175 12.5749
7459 1 3.87653 21.62 9.52542
7501 2 -0.132796 23.1227 10.8976
7517 1 6.42421 24.7223 12.0871
7515 1 6.45383 21.7176 12.0697
3908 1 1.02861 27.3195 9.58525
7511 1 3.88364 27.4138 12.2027
3912 1 3.79825 27.4557 9.48411
3860 1 6.73029 21.559 9.34894
3920 1 6.65602 27.2948 9.60236
7507 1 1.08578 27.2315 12.2358
3961 2 -0.349853 28.8788 5.32152
4107 2 13.5813 40.1505 7.96325
364 2 2.78409 31.7463 -0.111362
3929 1 12.4218 24.3648 6.61035
3931 1 12.5127 27.2574 6.67942
3918 1 6.64387 24.5518 9.37092
3923 1 9.44684 27.4528 6.85504
7463 1 9.60153 21.514 12.1709
7525 2 10.9514 23.0332 11.0477
7529 1 12.57 24.2701 12.2052
3930 1 12.1888 24.5781 9.54055
7471 1 12.2882 21.5034 12.4688
3926 2 10.8956 25.9851 8.2085
3872 1 12.4726 21.6891 9.71993
7521 1 9.57889 24.7131 12.1911
3915 2 8.1694 23.2578 8.04755
3922 1 9.44319 24.6915 9.38615
7516 2 8.03583 25.9854 11.0114
7528 2 13.418 25.9256 10.8791
3864 1 9.4472 21.8003 9.46862
3924 1 9.5186 27.3651 9.59823
7531 1 12.2143 27.3339 12.2082
3932 1 12.2984 27.3975 9.49748
7523 1 9.50757 27.5386 12.3575
3971 1 4.01304 32.9337 6.68545
3977 1 6.64982 30.343 6.61958
3965 1 1.10854 30.4446 6.40672
7561 2 -0.20523 28.7704 10.9791
7573 2 5.24784 28.7265 10.9711
3963 2 2.48151 28.8249 8.0619
7565 1 1.2858 30.0217 11.9156
3966 1 0.773316 30.0257 9.05401
7567 1 0.963315 33.0497 9.40568
7579 1 4.35558 32.9892 12.0808
3974 2 5.18496 31.6619 8.18049
7569 1 4.02426 30.1522 12.2544
3970 1 3.73453 30.2985 9.42908
7564 2 2.53333 31.713 10.8509
7571 1 1.38263 33.2732 12.0283
3972 1 3.7934 33.0122 9.40694
3978 1 6.73132 30.1054 9.42448
3980 1 6.70991 32.9039 9.67276
7755 2 8.08122 45.7615 13.6117
7519 1 6.70128 27.4823 12.474
7577 1 6.78235 30.4602 12.2813
3979 1 6.76692 33.0379 6.71515
3981 1 9.41133 30.2526 6.58089
3991 1 12.2781 32.9632 6.67372
7694 2 5.17517 42.9011 13.579
3990 1 12.2214 30.2088 6.44754
7585 2 10.9391 28.8626 10.9842
3975 2 8.02957 28.6815 8.19048
7589 1 12.1925 30.2599 12.3185
7591 1 12.3863 33.0162 12.2546
3986 2 10.9876 31.6661 7.9892
3992 1 12.4247 32.9609 9.3452
7581 1 9.4158 30.0818 12.1961
3982 1 9.6044 30.3544 9.29837
7576 2 8.31268 31.5305 10.7159
7583 1 12.4212 30.1227 9.41309
3984 1 9.50456 33.1116 9.41321
7635 1 9.52538 32.9813 12.1405
7743 2 2.31648 45.5932 13.5933
4037 1 6.7981 35.9313 6.6463
4031 1 3.70126 38.8183 6.55857
4025 1 0.96115 35.8307 6.73621
7621 2 -0.34121 34.4115 10.9396
7703 1 9.43781 44.234 12.024
7633 2 5.36339 34.4695 10.7313