ITEM: TIMESTEP
100000
ITEM: NUMBER OF ATOMS
18000
ITEM: BOX BOUNDS xy xz yz pp pp pp
-2.0968153863488964e-01 2.8103681538635090e+01 0.0000000000000000e+00
-2.3958117146686035e+00 3.3712381171467058e+02 0.0000000000000000e+00
-1.8946913788938136e-01 2.8083469137888400e+01 0.0000000000000000e+00
ITEM: ATOMS id type x y z
1 1 1.02547 -0.875266 1.44969
2 1 4.0537 -1.0973 1.16741
3 1 3.52535 -1.27061 4.12359
4 1 0.932259 -1.15216 4.03699
5 1 0.945376 1.93399 1.11898
6 1 3.78938 2.07616 1.13459
7 1 3.83555 1.80021 4.11941
8 1 0.912334 1.66841 3.90225
9 1 6.8412 -0.942632 1.40521
10 1 9.40844 -1.11437 1.08125
11 1 9.33772 -0.878824 4.02756
12 1 6.46701 -0.796327 4.2101
13 1 6.65811 1.96043 0.973699
14 1 9.46336 1.73224 1.07426
15 1 9.40793 1.84806 4.17975
16 1 6.41299 1.88844 3.9885
17 1 12.2202 -1.0454 1.13209
18 1 12.2301 -0.806272 3.95789
19 1 12.1675 1.86336 1.04874
20 1 12.1277 2.08987 3.92812
21 1 1.09013 4.75205 1.09968
22 1 4.0388 4.74176 1.25441
23 1 3.7422 4.77613 3.92187
24 1 1.08549 4.58148 3.97347
25 1 1.15191 7.59532 1.31129
26 1 3.89448 7.3569 1.21385
27 1 3.92362 7.79042 4.22509
28 1 1.19041 7.34441 4.04966
29 1 6.86294 4.7653 1.30357
30 1 9.56215 4.56301 1.32118
31 1 9.91477 4.61976 4.0371
32 1 6.94623 4.65592 4.17326
33 1 6.67958 7.67059 1.27027
34 1 9.66217 7.37896 1.16112
35 1 9.37556 7.48783 3.98494
36 1 6.63052 7.54379 3.97901
37 1 12.1183 4.64636 1.24353
38 1 12.8835 5.03242 3.70624
15131 2 13.878 3.29396 13.7246
40 1 12.1178 7.78675 4.03215
41 1 1.04033 10.4459 1.20778
42 1 3.82433 10.1775 1.17971
43 1 4.1162 10.516 3.82509
44 1 1.18361 10.3367 4.17231
45 1 1.31023 15.6396 1.53065
46 1 4.11635 13.1003 1.45301
47 1 4.12053 13.1815 4.23901
48 1 1.18811 13.2883 4.03077
49 1 6.96556 10.6031 1.21479
50 1 9.50798 13.3686 1.31749
51 1 9.52494 10.5422 3.9401
52 1 6.78769 10.227 4.15391
53 1 6.8601 13.3956 1.30057
15061 2 13.749 6.17941 5.44209
55 1 9.5023 13.3432 4.06879
56 1 6.81786 13.1156 4.30584
57 1 9.68629 10.4692 1.32975
58 1 12.4874 10.5777 3.9931
59 1 12.3442 13.5758 1.27649
60 1 12.4376 13.383 3.99263
61 1 1.19041 18.7159 1.43316
62 1 4.13642 15.8734 1.27904
63 1 3.94618 16.025 4.1488
64 1 0.998588 15.8847 3.87607
65 1 1.18217 21.4798 1.32431
66 1 3.92621 18.8719 1.37981
67 1 4.10719 18.9153 4.32275
68 1 1.27736 18.8212 4.1856
69 1 6.80086 16.0586 1.29831
70 1 9.77789 18.9606 1.51439
71 1 9.51816 16.1421 4.24353
72 1 6.76918 16.141 4.34214
73 1 6.83478 18.8317 1.44391
74 1 9.60859 21.5772 1.05307
75 1 9.51264 18.9155 4.31936
76 1 6.70958 19.0259 3.97961
77 1 12.356 16.2842 1.20831
78 1 12.5124 16.019 4.16606
79 1 12.5947 21.6588 1.7028
80 1 12.5059 18.9456 4.33266
12105 2 10.8063 -2.36829 11.1615
82 1 3.8956 21.7266 1.23515
83 1 4.00586 21.3792 4.28806
84 1 1.04606 21.6268 4.15746
85 1 6.71877 21.7311 1.30512
257 1 1.03669 16.1048 12.3477
87 1 9.78255 21.8424 3.8235
88 1 6.87618 21.7364 4.36927
12035 2 5.46505 14.6119 -0.182317
90 1 12.4028 21.6762 4.31385
91 1 0.998965 -1.16106 6.72152
92 1 3.79006 -0.908457 6.66307
93 1 3.53456 -1.20743 9.58841
94 1 0.841152 -1.33237 9.49799
95 1 1.06916 1.89603 6.96237
96 1 4.02377 1.95959 6.89273
97 1 3.75353 1.47864 9.63933
98 1 1.12637 1.36505 9.69593
99 1 6.69503 -0.96089 7.00828
100 1 9.59096 -0.953771 6.89277
101 1 9.17676 -1.16279 9.62404
102 1 6.26136 -1.17231 9.85378
103 1 6.75413 1.6335 6.90152
104 1 9.71391 1.91634 7.03677
105 1 9.62535 1.68958 9.61547
106 1 6.79846 1.5676 9.74528
107 1 12.3243 -0.826027 6.91283
108 1 12.1829 -0.904318 9.79559
109 1 12.6909 1.97667 6.83852
110 1 12.2748 2.26286 9.57133
111 1 1.36089 4.68614 6.91616
112 1 4.17834 4.76108 6.71043
113 1 3.99613 4.37553 9.65431
114 1 1.16606 4.62538 9.49711
115 1 1.16143 7.53358 6.86643
116 1 3.98926 7.51594 7.01062
117 1 4.04204 7.41992 9.71838
118 1 1.11889 7.29257 9.70198
119 1 6.73855 4.41654 6.97742
120 1 9.60486 4.73832 6.93318
121 1 9.47936 4.68476 9.81896
122 1 6.92689 4.54577 9.78604
123 1 6.97991 7.37301 6.94774
124 1 9.59304 7.53098 7.154
125 1 9.53019 7.46536 9.79493
126 1 6.7807 7.35933 9.95203
127 1 12.5692 5.01649 7.0847
128 1 12.2519 5.09311 9.9914
129 1 12.4135 7.55489 6.86387
130 1 12.4587 7.80254 9.52175
131 1 1.18764 10.3891 7.08703
132 1 4.09626 10.4133 6.78531
133 1 3.90081 10.1482 9.80645
134 1 1.23927 10.1912 9.92614
135 1 1.29291 13.2233 6.75418
136 1 4.06084 13.3461 7.0384
137 1 4.03082 12.8581 9.78966
138 1 1.33131 13.1187 9.51999
139 1 6.88509 10.0116 7.06424
140 1 9.65578 10.3859 6.9778
141 1 9.92416 10.3543 9.7204
142 1 6.90923 10.5028 9.71685
143 1 6.75637 13.0601 7.0591
144 1 9.58142 13.0966 6.70164
145 1 9.85103 13.1689 9.75987
146 1 6.88678 13.1868 9.79995
147 1 12.7271 10.3546 6.80202
148 1 12.8422 10.3939 9.52175
149 1 12.2186 13.5167 7.19158
150 1 12.4333 13.4293 9.85668
151 1 1.00252 16.1682 6.62048
152 1 3.84765 15.7668 7.05448
153 1 3.90208 15.8693 9.95607
154 1 0.99969 16.0287 9.61535
155 1 1.06904 18.9886 6.92945
156 1 4.02364 18.8141 7.16545
157 1 3.94757 18.6142 9.8962
158 1 1.09074 18.8347 9.77886
159 1 6.88366 16.0042 7.07516
160 1 9.71913 16.2591 7.1204
161 1 9.84524 16.0463 9.901
162 1 6.88887 16.1419 9.77083
163 1 6.71989 18.9059 7.24726
164 1 9.4107 19.2215 7.10098
165 1 9.64835 18.7837 9.70764
166 1 6.78341 18.9229 9.903
167 1 12.5292 16.185 6.99248
168 1 12.6038 16.2271 9.87667
169 1 12.4371 18.9917 6.99798
170 1 12.692 19.0064 9.76008
171 1 0.99154 21.739 7.1622
172 1 4.02188 21.7342 7.11474
173 1 3.95791 21.649 9.70206
174 1 0.888959 21.6006 9.7643
175 1 6.82071 21.8823 6.93346
176 1 9.63103 21.9165 6.85735
177 1 9.75038 21.5274 9.76584
178 1 6.88381 21.6513 9.69643
179 1 12.4723 21.6636 7.11172
180 1 12.5821 21.9942 9.93681
181 1 1.12327 -1.37393 12.2987
182 1 3.76425 -1.11321 12.5833
183 1 1.32375 1.86114 12.6141
184 1 3.9896 1.71672 12.5363
185 1 6.72285 -1.08482 12.6185
186 1 9.4749 -0.751606 12.6331
187 1 6.73628 1.72787 12.4685
188 1 9.70101 2.12158 12.5979
189 1 12.1052 -0.982053 12.5497
190 1 12.5463 2.04121 12.2079
191 1 1.13757 4.50652 12.4694
192 1 3.90423 4.54624 12.5303
193 1 1.01313 7.34532 12.3783
194 1 3.77967 7.44797 12.2679
195 1 6.78342 4.65029 12.6025
196 1 9.67341 4.75345 12.6756
197 1 6.74108 7.54231 12.6999
198 1 9.69203 7.51586 12.6904
199 1 12.5112 4.76969 12.6511
200 1 12.3956 7.58085 12.5341
201 1 1.11613 10.146 12.4377
202 1 3.8592 10.3288 12.6432
12055 2 5.14645 -2.3971 5.41569
204 1 3.9077 13.0642 12.6346
205 1 6.76119 10.1432 12.5037
206 1 9.59739 10.2963 12.5534
207 1 6.78555 13.245 12.6074
208 1 9.69997 13.0611 12.6479
209 1 12.5961 10.4899 12.5047
210 1 12.5271 13.1511 12.6979
211 1 1.1783 13.2001 12.5849
212 1 3.95115 15.9326 12.7119
213 1 1.11574 18.9517 12.537
214 1 3.95169 18.8463 12.7636
215 1 6.84374 15.8672 12.4831
216 1 9.6961 15.9807 12.5711
217 1 6.89898 18.8882 12.7212
218 1 9.70159 18.7416 12.4926
219 1 12.5617 15.9613 12.6556
220 1 12.4365 18.7154 12.7991
221 1 1.08184 21.7279 12.375
222 1 3.97632 21.726 12.635
223 1 6.72654 21.6565 12.6643
224 1 9.68319 21.7333 12.4456
225 1 12.5152 21.7665 12.5903
15072 2 13.9176 8.93552 8.2559
15051 2 13.72 0.156257 5.45674
6041 1 12.4619 10.2502 1.20124
12046 2 8.28711 23.0418 -0.16737
15081 2 13.8563 17.6968 5.59458
12022 2 2.45019 11.6397 -0.0888611
15106 2 13.9214 6.14385 11.1196
12008 2 5.28308 0.478864 2.50772
12049 2 10.9988 20.0865 -0.0684267
12010 2 10.7945 0.419358 2.56006
12125 2 11.0755 20.3136 11.1623
12045 2 5.09722 20.1882 -0.0213011
12013 2 2.40071 3.12147 2.66998
12124 2 8.14863 22.9748 11.2478
15062 2 13.9125 3.40362 8.23874
12016 2 8.33265 6.00579 -0.119729
12017 2 8.13043 3.25732 2.57113
12018 2 5.28146 6.04595 2.63805
39 1 12.4524 7.468 1.20164
12020 2 11.0871 6.0104 2.56006
12113 2 5.39555 8.88838 11.3065
12104 2 8.09665 0.113808 10.9874
12023 2 2.46492 8.86573 2.62052
6054 1 1.15453 13.241 1.23325
15091 2 13.6705 23.0842 5.73042
12107 2 2.41338 5.90564 11.0175
12027 2 8.27602 8.91836 2.57392
12028 2 5.60866 11.7387 2.7578
431 1 9.43265 16.4149 1.44508
12030 2 10.9127 11.8802 2.56954
12102 2 2.43474 0.148219 10.8984
12114 2 8.30314 11.7257 11.3265
12033 2 2.91138 14.4081 2.74263
15071 2 13.9346 11.918 5.62105
12100 2 11.1006 23.191 8.51851
12099 2 11.0575 20.4624 5.67328
12037 2 8.04835 14.7625 2.73451
12038 2 5.47229 17.5998 2.71739
12098 2 5.34267 23.1048 8.45118
12040 2 10.9282 17.6077 2.91809
12097 2 8.35607 20.2579 8.56811
12127 2 -0.144748 0.239134 13.8196
12043 2 2.48522 20.1662 2.71496
12123 2 5.48065 20.1649 11.3218
12096 2 8.14648 23.1846 5.62802
12095 2 5.5057 20.3372 5.784
12047 2 8.18057 20.3782 2.66273
12048 2 5.27723 23.0716 2.70013
12115 2 11.0651 8.86481 11.1744
12050 2 11.2247 23.0353 2.67469
15052 2 13.6991 -2.18655 8.18981
12052 2 2.32427 0.296737 5.45319
12112 2 2.53141 11.5451 11.1668
12122 2 2.64084 23.202 11.2547
12110 2 11.0275 3.48272 11.1917
12056 2 8.14939 0.171315 5.58671
12109 2 8.19981 6.14527 11.2933
12058 2 5.26553 0.294596 8.2616
12108 2 5.40881 2.95709 10.9524
12060 2 11.007 0.364562 8.32629
12120 2 11.1059 14.6514 11.1805
12062 2 2.50797 6.26659 5.49727
12063 2 2.54732 2.99057 8.23066
12119 2 8.21314 17.3158 11.2342
12065 2 5.34324 3.07692 5.50137
12066 2 8.22799 5.89419 5.67163
12067 2 8.24547 3.1831 8.49194
12068 2 5.50101 5.90437 8.41297
12069 2 11.0187 3.23101 5.56485
12070 2 11.0701 6.29759 8.37513
440 1 12.5698 18.9258 1.49783
12072 2 2.72907 11.6545 5.4761
12073 2 2.49989 8.78063 8.48399
12118 2 5.27093 14.5868 11.2876
12075 2 5.44364 8.62212 5.56936
12076 2 8.00072 11.6834 5.5631
12077 2 8.2451 8.87875 8.44142
12078 2 5.43165 11.6606 8.463
12079 2 10.9657 9.08978 5.3152
12080 2 10.8827 11.8738 8.21784
12133 2 8.06938 3.15568 13.8751
12082 2 2.57967 17.6089 5.57415
12083 2 2.58062 14.5757 8.38919
12117 2 2.40982 17.476 11.2408
12085 2 5.34934 14.5818 5.65034
12086 2 8.19813 17.5679 5.77782
12087 2 8.0394 14.6707 8.43349
12088 2 5.38556 17.4125 8.49465
12089 2 10.9703 14.6736 5.61149
12090 2 11.2735 17.563 8.40112
12026 2 8.30039 11.919 0.0462834
12092 2 2.52689 22.8403 5.66731
12093 2 2.51139 20.3974 8.41928
12032 2 2.51622 17.321 0.0251507
15136 2 13.8458 8.7923 13.8812
12136 2 2.38062 8.6812 13.7162
15012 2 13.6405 3.27404 2.29784
12036 2 8.11101 17.5556 -0.165919
12029 2 11.0424 8.9541 -0.0783738
12042 2 2.49608 23.1663 -0.183935
15126 2 13.7038 -2.3856 13.7792
15121 2 13.8628 23.3824 11.0462
15082 2 13.908 14.7583 8.3812
15092 2 13.9372 20.4986 8.63594
12131 2 2.60943 3.09281 13.9002
12064 2 -0.158883 5.94757 8.12527
15031 2 13.8425 17.4249 -0.00325924
12134 2 5.31864 5.92683 13.7094
15021 2 13.7929 11.9808 0.033162
12130 2 10.911 0.546555 13.9306
15032 2 13.8475 14.738 2.81776
12074 2 -0.124416 11.7698 8.36266
6058 2 -0.172956 14.6336 2.69713
12044 2 -0.203956 23.0806 2.70763
15111 2 13.8922 11.8117 11.0718
12111 2 -0.204361 8.7252 11.0024
15001 2 13.8114 0.374678 -0.168272
12129 2 5.36173 0.335584 13.9064
12012 2 2.61104 6.19313 -0.180378
226 1 3.99626 -0.962199 15.4994
227 1 1.10872 -0.998158 15.2583
228 1 3.87753 1.66294 15.4825
229 1 1.10018 1.76111 15.3567
230 1 9.65305 -1.17856 15.4479
231 1 6.77551 -0.972527 15.4168
232 1 9.56674 1.77819 15.1363
233 1 6.73539 1.81041 15.2341
234 1 12.2628 -0.878211 15.2057
235 1 12.3549 1.90477 15.2723
236 1 4.06661 4.43133 15.2982
237 1 1.17061 4.61439 15.2229
238 1 3.936 7.25316 14.9474
239 1 1.19124 7.55014 15.2638
240 1 9.64427 4.58943 15.4713
241 1 6.75808 4.66927 15.4078
242 1 9.63257 7.5616 15.5744
243 1 6.99541 7.33764 15.6046
244 1 12.3726 4.74439 15.4795
245 1 12.5025 7.44787 15.4258
246 1 4.08674 10.1897 15.4681
247 1 1.24931 10.2022 15.1663
248 1 4.02573 13.0848 15.3697
249 1 4.16371 12.7873 18.1565
250 1 9.51631 10.3656 15.3057
251 1 6.82527 10.2986 15.3599
252 1 9.5543 13.2743 15.575
253 1 6.67445 12.9862 15.6199
254 1 12.5386 10.2732 15.3952
255 1 12.2102 13.1007 15.4203
256 1 4.26161 15.7274 15.485
15182 2 13.9405 14.456 19.7154
258 1 3.87846 18.6153 15.3549
259 1 0.895202 18.8468 15.4643
260 1 9.59309 15.9921 15.485
261 1 6.98639 15.6632 15.3838
262 1 9.74671 18.822 15.4585
263 1 6.74811 18.5105 15.4501
264 1 12.3666 15.8498 15.6865
265 1 12.5029 19.0555 15.5723
266 1 4.10445 21.5865 15.6071
267 1 1.13926 21.7066 15.4767
268 1 9.66041 21.7482 15.238
269 1 6.79368 21.4221 15.3843
270 1 12.2257 21.9223 15.4803
271 1 1.18044 -0.98196 18.2821
272 1 3.87986 -1.07079 18.2205
273 1 3.93949 -1.10327 21.0401
274 1 1.16043 -0.994975 21.1247
275 1 1.18845 1.83975 18.0415
276 1 4.03297 1.79388 18.3736
277 1 3.91649 1.8095 21.1386
278 1 0.825431 1.88163 20.8415
279 1 6.60698 -0.929813 18.0572
280 1 9.71747 -1.05862 18.0937
281 1 9.35616 -0.957513 20.9216
282 1 6.76904 -0.812978 20.9671
283 1 6.71882 2.02923 18.1688
284 1 9.55067 1.92983 18.1606
285 1 9.87077 1.64991 20.925
286 1 6.82792 1.97421 20.8049
287 1 12.5403 -1.10993 18.0659
288 1 12.4801 -0.989256 21.0934
289 1 12.3083 1.81175 18.0785
290 1 12.4738 1.85183 20.7933
291 1 0.959336 4.89593 17.9834
292 1 3.91942 4.55146 18.3614
293 1 3.86883 4.72548 20.9956
294 1 1.12407 4.88342 20.7675
295 1 1.34699 7.62077 18.2331
296 1 3.96162 7.0933 17.8953
297 2 2.27894 6.11182 19.4503
298 1 1.11523 7.66458 21.0573
299 1 6.65734 4.84646 18.2431
300 1 9.86831 4.59681 18.2099
301 1 9.69281 4.81593 20.8477
302 1 6.77706 4.78786 20.8996
303 1 6.80612 7.64016 18.2542
304 1 9.5474 7.52055 18.2748
305 1 9.78546 7.69686 20.93
306 1 6.64079 7.45844 21.0083
307 1 12.6074 4.51347 18.2933
308 1 12.4246 4.65036 20.9799
309 1 12.2393 7.36148 18.1399
310 1 12.4377 7.52065 20.9683
311 1 1.04409 10.2503 17.6361
312 1 4.24934 9.83587 18.3372
313 1 3.79897 7.29687 20.9091
314 1 0.661858 10.3805 21.2325
315 1 1.00869 12.8385 17.995
316 1 2.20892 11.7533 19.7918
317 1 3.92361 10.1639 21.0745
318 1 0.797398 13.5102 21.0255
319 1 7.02103 10.2218 18.1109
320 1 9.81921 10.5105 18.3496
321 1 9.6658 10.6834 21.0096
322 1 6.76301 10.1449 21.0035
323 1 6.77923 13.2367 18.2367
324 1 9.59905 13.1709 18.6511
325 1 7.28793 13.1448 21.1464
326 1 4.12409 13.1327 21.1292
327 1 12.4274 10.2147 18.22
328 1 12.2817 10.4309 21.0755
329 1 12.5624 13.2201 18.2027
330 1 12.6618 13.0479 20.9497
331 1 0.801624 15.6175 18.3551
332 1 3.748 15.4815 18.3169
333 1 4.05361 16.086 21.0899
334 1 1.05329 15.9932 21.1356
335 1 1.43322 18.5431 18.4085
336 1 4.17602 18.4207 18.1798
337 1 4.13518 18.9171 21.1048
338 1 1.18506 18.5249 21.1904
339 1 6.75868 16.1377 18.3924
340 1 9.68654 15.9858 18.2951
341 1 9.71732 19.0071 21.1084
342 1 6.8892 16.0105 21.1092
343 1 7.02226 18.9126 18.1068
344 1 9.6279 18.6948 18.2135
345 1 9.43208 19.2074 24.0092
346 1 6.87709 18.902 21.0289
347 1 12.5029 15.919 18.5971
12149 2 5.43543 23.0348 14.2342
349 1 12.4773 18.4806 18.3247
350 1 12.3536 18.4309 21.1985
351 1 0.879587 21.7093 18.2612
352 1 3.69442 21.3585 18.2118
353 1 3.79063 21.5787 21.1702
354 1 1.1684 21.5844 21.13
355 1 6.79061 21.383 17.9922
356 1 9.55945 21.4967 17.9035
357 1 9.62854 21.6377 20.8971
358 1 6.83983 21.7248 21.0513
359 1 12.4096 21.649 18.653
360 1 12.4917 21.4107 21.3779
361 1 1.22517 -0.799385 23.9929
362 1 3.75522 -0.894144 23.94
363 1 3.96056 -0.998573 26.6428
364 1 1.02509 -0.907382 26.7643
365 1 0.893443 1.94519 23.8068
366 1 3.91253 1.86657 23.7879
367 1 3.68426 2.0125 26.4548
368 1 0.907238 1.90224 26.6248
369 1 6.64358 -0.886232 23.9154
370 1 9.66143 -0.958928 23.6049
371 1 9.58853 -0.738202 26.4351
372 1 6.54268 -1.10606 26.7545
373 1 6.79561 1.85822 23.6708
374 1 9.60241 2.03651 23.9253
375 1 9.34915 1.79566 26.6133
376 1 6.53354 1.72198 26.6644
377 1 12.4103 -0.908543 23.9729
378 1 12.0899 -1.19126 26.5781
379 1 12.3773 1.89493 23.5369
380 1 12.3352 1.73755 26.6614
381 1 0.960636 4.8982 23.6001
382 1 3.81475 4.72572 23.8322
383 1 3.92247 4.82728 26.4759
384 1 1.02606 4.76639 26.4776
385 1 1.02442 7.67501 23.865
386 1 3.67736 7.64292 23.9247
387 1 3.78172 7.66389 26.623
388 1 0.893287 7.35893 26.8512
389 1 6.75803 4.7749 23.658
390 1 9.55784 4.70141 23.6792
391 1 9.6389 4.60197 26.6582
392 1 6.76825 4.4788 26.599
393 1 6.73718 7.45172 23.7138
394 1 9.48789 7.35342 23.9037
395 1 9.47865 7.47245 26.7142
396 1 6.83781 7.54982 26.731
397 1 12.313 4.58761 23.8598
398 1 12.3803 4.74005 26.695
399 1 12.4124 7.46065 24.0153
400 1 12.391 7.45724 26.5661
401 1 0.914917 10.4881 23.9953
402 1 3.70488 10.3765 23.6774
403 1 3.8568 10.3966 26.4887
404 1 1.00615 10.4537 26.5807
405 1 1.08148 13.3454 23.8057
406 1 3.99172 13.271 23.9312
407 1 3.67964 13.1323 26.8265
408 1 0.902503 13.0941 26.6074
409 1 6.37536 10.0743 23.9928
410 1 9.58531 10.0185 23.8767
411 1 9.77977 10.3975 26.8751
412 1 6.68604 10.3579 26.7497
413 1 6.83858 12.9804 23.9372
414 1 9.68813 12.7561 23.9417
415 1 9.64291 16.0375 26.9831
416 1 6.84585 13.1818 26.9889
417 1 12.2823 10.2976 23.8717
418 1 12.3814 10.1982 26.714
419 1 12.6739 13.1423 23.8402
420 1 12.5129 13.1208 26.7117
421 1 0.946748 16.0646 24.101
422 1 3.93546 15.959 23.8602
423 1 4.17907 15.9442 26.5484
424 1 1.22379 15.9482 26.8839
425 1 0.919967 18.7718 24.1359
426 1 4.01618 18.8527 23.815
427 1 3.71857 18.8006 27.0129
428 1 0.960612 18.6022 26.852
429 1 6.66664 15.7058 24.0506
430 1 9.29662 16.172 24.06
15181 2 13.9381 17.2958 16.934
432 1 6.961 16.1024 26.7459
433 1 6.82439 18.741 23.9494
434 1 12.2896 18.7223 26.8769
435 1 9.48515 18.89 26.9073
436 1 6.45331 18.7557 26.9132
437 1 12.6681 18.9784 23.8943
438 1 12.3831 16.0434 26.7644
439 1 12.3793 21.8203 24.0218
15146 2 13.801 20.2737 13.9956
441 1 1.1047 21.4734 24.0431
442 1 4.09034 21.6142 24.0198
443 1 3.84994 21.6721 26.6902
444 1 1.21982 21.5849 26.6788
445 1 6.96861 21.8129 24.1351
446 1 9.56298 21.7143 23.5914
447 1 9.51739 21.5576 26.6301
448 1 6.74888 21.7752 26.9692
15162 2 13.8945 3.09565 19.5741
450 1 12.3658 21.7307 27.0538
12205 2 5.15504 -2.31864 22.6874
12250 2 10.9538 23.1697 25.4151
15151 2 13.7324 0.435349 16.4844
12147 2 -0.136069 23.1811 14.1791
12135 2 11.113 6.05794 14.1459
12227 2 8.16763 8.96992 25.4168
12249 2 11.0726 20.3025 22.7428
12226 2 8.2403 11.5609 22.5809
12225 2 5.17469 8.86989 22.399
12025 2 5.27283 8.88296 28.0481
12223 2 2.40006 8.9036 25.2442
12248 2 5.3662 23.0527 25.3118
12222 2 2.49079 11.7362 22.3243
12228 2 5.18419 11.7188 25.32
12217 2 8.21065 3.15748 25.1528
12220 2 10.9166 6.10416 25.2962
12247 2 8.07045 20.3213 25.353
12216 2 8.28511 6.21825 22.2325
15212 2 13.6913 3.14383 25.1839
6421 1 12.385 16.2548 24.0418
12219 2 11.047 3.0876 22.2326
12246 2 8.16674 23.2387 22.3685
6262 1 1.28469 16.0724 15.3369
12218 2 5.54677 6.19843 25.2239
12215 2 5.49575 3.47704 22.2734
12245 2 5.50069 20.2498 22.5686
12152 2 2.49194 0.341814 16.8783
15161 2 13.8867 5.85402 16.7193
12243 2 2.54653 20.0843 25.2868
12139 2 5.41838 11.9196 14.0173
12156 2 8.1918 0.460949 16.7795
15192 2 13.9079 20.039 19.8451
12158 2 5.34685 0.427563 19.6345
12229 2 10.979 8.88913 22.4977
12160 2 11.172 0.235629 19.5388
12242 2 2.46551 22.9321 22.5698
12162 2 2.55348 5.98946 16.3663
12163 2 2.61535 2.94073 19.7252
12240 2 10.9249 17.2418 25.3967
12165 2 5.40178 3.22118 16.836
12166 2 8.27798 6.06699 16.9635
12167 2 8.36214 3.26475 19.5766
12168 2 5.4831 6.20574 19.4608
12169 2 10.9861 3.06714 16.7553
12170 2 11.0634 6.10509 19.4015
12239 1 9.7257 16.18 21.171
12172 2 2.60867 11.6064 16.6832
12173 2 2.3296 9.51222 19.4994
12238 2 5.39902 17.3358 25.1958
12175 2 5.58016 8.88726 16.6718
12176 2 8.32173 11.8042 16.8663
12177 2 8.46066 9.01911 19.5155
12178 2 5.40317 11.4896 19.5501
12179 2 11.0712 8.94936 16.8416
12180 2 11.1202 11.832 19.6136
12237 2 8.28826 14.5449 25.2744
12182 2 2.37899 17.4271 16.8385
12183 2 2.39614 14.24 19.4759
12236 2 8.33341 17.5042 22.6919
12185 2 5.32559 14.4257 16.9746
12186 2 8.13115 17.3216 16.7965
12187 2 8.16039 14.7903 19.6617
12188 2 5.3424 17.3179 19.7908
12189 2 11.0583 14.5988 16.9884
12190 2 10.863 17.4268 19.7117
12235 2 5.49816 14.5379 22.3268
12192 2 2.33619 23.1413 16.9765
12193 2 2.63267 19.981 19.6792
203 1 1.41114 13.0887 15.2995
12195 2 5.40259 20.0471 16.7288
12196 2 8.16284 23.0684 16.8462
12197 2 8.37537 20.194 19.6498
12198 2 5.2587 22.6621 19.5189
12199 2 11.0893 20.2169 16.9514
12200 2 11.0087 23.0377 19.5849
12233 2 2.60695 14.4989 25.2872
12202 2 2.47143 0.536892 22.622
12213 2 2.39991 3.36153 25.2985
12232 2 2.48174 17.1715 22.5632
12212 2 2.44358 6.22875 22.7813
12206 2 8.18303 0.524145 22.4172
15191 2 13.5868 22.9893 16.9658
12208 2 5.22258 0.372164 25.1575
12145 2 11.1242 17.4312 14.1352
12210 2 10.9421 0.444706 25.3227
12230 2 11.1096 11.6804 25.3277
12148 2 8.33665 20.2362 14.0863
15241 2 13.7371 23.0152 22.555
54 1 9.69532 13.1996 26.6526
12141 2 2.51246 14.558 14.0197
15172 2 13.8348 8.70334 19.384
15242 2 13.8085 20.2789 25.4949
12138 2 8.22248 8.81014 14.0567
15232 2 13.8965 14.5684 25.3671
15201 2 13.8349 0.149076 22.5797
15221 2 13.9014 11.7265 22.4535
15211 2 13.5282 5.99053 22.3982
15231 2 13.9131 17.4426 22.6919
15222 2 13.753 8.97213 25.2734
12207 2 7.9703 -2.32843 25.4006
12019 2 10.8499 3.19926 28.1001
12157 2 8.03514 -2.20052 19.5139
12146 2 2.60768 20.3521 14.0034
12150 2 10.9433 23.3288 14.0323
12143 2 8.32205 14.4988 14.0017
12039 2 10.9254 14.6825 28.0598
12144 2 5.21419 17.2339 14.0501
12140 2 11.1491 11.7405 14.0589
12006 2 8.06517 0.37151 27.9858
12015 2 5.3319 3.22924 28.0635
12002 2 2.4933 0.493262 27.9904
451 1 0.970044 27.1478 1.39564
452 1 3.95743 24.5294 1.25659
453 1 4.05537 24.3683 4.20793
454 1 1.24927 24.4762 4.37401
455 1 6.7288 24.544 1.50012
456 1 9.74564 27.2645 1.39651
457 1 9.82895 24.7968 3.85291
458 1 6.91124 24.5477 4.41647
459 1 12.4186 27.1433 1.51107
460 1 12.4137 24.5404 4.25331
461 1 1.16836 30.1543 1.52842
462 1 3.89659 27.4274 1.39163
463 1 3.93053 27.4074 4.14944
464 1 1.29879 27.3635 4.03846
465 1 0.934972 32.8118 1.32299
466 1 3.82677 30.0608 1.35671
467 1 3.87815 30.0793 4.06354
468 1 1.02412 30.1534 4.5168
469 1 6.72698 27.2205 1.40455
470 1 9.34179 30.7207 4.4575
471 1 9.52202 27.5637 4.16164
472 1 6.83462 27.4478 3.98951
473 1 6.72771 29.9628 1.4321
474 1 9.75757 32.6145 1.21357
475 1 9.47369 32.9203 6.90486
476 1 6.7838 30.1073 4.32161
477 1 9.7166 30.0352 1.84116
478 1 12.7898 27.2071 4.38855
479 2 10.9726 31.6705 2.94237
480 1 12.4968 30.0327 3.80464
917 1 12.7135 49.7642 1.31817
482 1 3.9862 32.7889 1.24335
483 1 3.8922 32.8179 4.13369
484 1 1.10177 33.1598 4.22699
15261 2 13.8981 34.2884 0.0291896
486 1 3.69971 35.7667 1.26603
487 1 4.12617 35.6614 3.76462
15252 2 13.9275 25.8265 2.89194
489 1 6.91932 32.7999 1.00779
15336 2 13.9065 48.4504 8.09101
491 1 9.74768 33.307 3.89564
492 1 6.59713 32.8975 3.89704
12341 2 -0.132326 25.8163 11.4178
12265 2 5.36529 31.4459 -0.0436808
495 1 8.01146 35.5708 1.64583
496 1 6.65272 35.6512 4.0494
497 1 12.3884 32.7653 1.53048
498 1 12.5455 32.6741 4.37338
499 1 12.6731 35.9721 1.1947
500 1 12.3444 35.6557 4.00563
15341 2 13.9371 28.7127 11.2174
502 1 5.92033 37.4398 2.0298
503 1 3.94658 38.5067 4.11814
504 1 3.49489 38.7088 1.37426
505 1 1.03515 41.5405 1.02669
506 1 3.76408 41.7407 1.0536
507 1 4.14502 41.227 4.18456
508 1 1.25376 41.5696 4.11124
509 1 7.84752 39.0483 1.69345
1001 1 1.04456 49.7652 7.08974
511 1 10.1721 37.4526 1.71464
512 1 9.73936 38.789 4.10561
513 1 6.6424 41.7184 1.46422
514 1 9.69953 41.7171 1.45927
515 1 9.71289 41.7493 4.08795
516 1 6.84662 41.4888 4.12924
517 1 12.6383 38.7091 1.1387
518 1 12.6081 38.4571 3.86746
519 1 12.4581 41.5943 1.10594
520 1 12.544 41.3615 4.13058
521 1 1.12289 44.3375 1.33596
522 1 3.93889 44.4912 1.58214
523 1 3.84983 44.1171 4.22881
524 1 1.14035 44.4973 4.10778
525 1 1.16455 47.1715 1.38038
526 1 4.12785 47.2055 1.28667
527 1 3.741 47.1254 4.28864
528 1 0.971487 47.2771 4.01405
529 1 6.76818 44.5304 1.19502
530 1 9.42951 44.6264 1.41485
531 1 9.56843 44.3934 4.19077
532 1 6.54495 44.5183 4.0527
533 1 6.80861 47.3345 1.36887
534 1 9.73613 47.3745 1.15323
535 1 9.36514 47.0676 4.02188
536 1 6.51408 47.4272 4.07582
537 1 12.5306 44.4554 1.41052
538 1 12.5243 44.2648 4.00679
539 1 12.5621 47.1714 1.22851
540 1 12.3957 46.9375 4.21009
541 1 1.09669 24.3666 6.86646
542 1 4.07843 24.6756 7.22373
543 1 4.08417 24.6593 9.91655
544 1 1.11274 24.2855 9.81309
545 1 6.84361 24.4832 7.22116
546 1 9.54233 24.7273 7.00442
547 1 9.58906 24.5345 9.73837
548 1 6.80092 24.3125 9.9293
549 1 12.5027 24.5137 6.9625
550 1 12.4796 24.9217 9.83419
551 1 1.27843 27.3972 6.96155
552 1 4.10066 27.3944 6.81221
553 1 3.98982 27.4429 9.61792
554 1 1.38966 27.1381 10.183
555 1 0.966915 32.7591 7.03284
556 1 3.52034 30.4415 6.75896
557 1 4.30495 30.5028 9.54306
558 1 1.58285 30.1773 9.8634
559 1 6.75252 27.1835 6.98499
560 1 9.81132 27.4743 7.04279
561 1 9.66529 27.2783 9.92464
562 1 6.75307 27.2055 9.80485
563 1 6.82635 30.191 7.06283
564 1 9.60662 30.1619 7.25154
565 1 9.80424 30.1488 10.1325
566 1 7.1888 30.3927 9.76289
567 1 12.3975 27.3713 7.02534
568 1 12.4738 27.3765 9.81479
569 1 12.4848 30.1148 6.79858
570 1 12.6039 30.2923 9.77604
571 1 1.01077 35.7863 7.12776
572 1 3.87164 33.2512 6.95987
573 1 4.07571 33.1589 9.89673
574 1 1.03941 32.9677 9.65578
575 1 1.28871 38.712 4.11197
576 1 3.79221 35.9871 6.81286
577 1 3.92394 35.8577 9.96764
578 1 1.12728 35.8777 9.84603
579 1 6.71752 32.836 7.00143
580 1 9.88822 35.7904 6.7195
581 1 9.57669 33.0498 9.65421
582 1 6.82295 33.1637 9.7484
583 1 6.48247 35.4094 6.5579
584 1 9.33464 35.9198 4.10974
585 1 9.81449 35.8525 9.86717
586 1 6.8148 35.8043 9.99734
587 1 12.2969 33.0409 7.19936
588 1 12.4251 33.1094 9.85736
589 1 12.5771 35.7181 6.84991
590 1 12.4392 35.7372 9.99511
591 1 1.38461 38.5665 7.22838
592 1 4.21409 38.6548 6.97275
593 1 3.94161 38.6784 9.76297
594 1 1.00778 38.6941 9.88149
595 1 1.0436 41.613 6.93043
596 1 3.98623 41.6045 6.92277
597 1 3.81086 41.5962 9.77807
598 1 1.12876 41.4739 9.89459
599 1 6.9195 38.6252 4.74754
600 1 9.76016 38.8951 6.84501
601 1 9.54318 41.2387 9.69347
602 1 7.10199 38.9495 9.69072
603 1 6.9251 41.5314 7.07863
604 1 9.736 44.4341 6.94873
605 1 12.551 41.1332 9.78818
606 1 6.73217 41.7372 9.82932
607 1 12.389 38.7906 6.78464
608 1 11.9657 38.5585 9.75443
609 1 12.4757 41.625 6.97016
610 1 12.6075 44.4235 9.64267
611 1 1.14892 44.5493 6.81645
612 1 4.03695 44.3916 6.95623
613 1 3.95131 44.3716 9.84169
614 1 1.22627 44.3801 9.76794
615 1 1.31045 47.2003 6.85133
616 1 3.98498 47.0158 7.10322
617 1 3.95788 47.088 9.88922
618 1 1.1006 47.2233 9.62528
619 1 6.78024 44.1784 6.84896
620 1 9.5109 47.1245 6.98832
621 1 9.5036 44.5505 9.73864
622 1 6.77549 44.6351 9.74481
623 1 6.71143 47.2603 6.78122
510 1 10.0689 39.4957 0.00204974
625 1 9.74026 47.1393 9.66431
626 1 6.82 47.5071 9.69029
627 1 12.7259 44.235 6.97196
628 1 12.623 47.2317 9.62606
629 1 12.4909 47.0775 6.90736
638 1 1.0039 30.2737 12.6224
631 1 1.28777 24.5109 12.7472
632 1 4.03631 24.5255 12.7891
633 1 6.68811 24.6365 12.663
634 1 9.67816 24.6573 12.7741
635 1 12.4903 24.4387 12.671
636 1 0.981015 27.2787 13.0162
637 1 4.0857 27.3729 12.7238
12275 2 7.70519 37.2478 -0.133816
639 1 3.88136 30.1487 12.7115
640 1 6.85348 27.483 12.5911
641 1 9.72819 27.4034 12.8208
642 1 6.69734 30.213 12.5847
643 1 9.53018 30.1225 12.9564
644 1 12.5845 27.0934 12.5796
645 1 12.397 30.049 12.6051
646 1 1.14641 33.0509 12.4118
647 1 3.92874 33.0072 12.542
648 1 1.10831 35.7333 12.8009
649 1 3.86796 35.8662 12.7085
650 1 6.66749 32.9146 12.6876
651 1 9.64366 33.1238 12.3684
652 1 6.64616 35.9781 12.7063
653 1 9.5366 35.959 12.6805
654 1 12.5073 32.9721 12.5965
655 1 12.4462 36.037 12.871
656 1 1.21427 38.507 12.5898
657 1 4.1308 38.5679 12.4403
658 1 1.0238 41.3256 12.8829
659 1 3.78068 41.2274 12.6869
660 1 6.85762 38.9051 12.6693
661 1 9.58039 38.8653 12.3785
662 1 6.60202 41.6329 12.5224
663 1 9.35967 41.786 12.4729
664 1 12.383 38.8592 12.5583
665 1 12.3055 41.5925 12.7141
666 1 1.31602 44.3997 12.7309
667 1 3.95308 44.5363 12.7401
668 1 1.21814 47.189 12.5757
669 1 4.15489 47.4509 12.7543
670 1 6.6743 44.511 12.4308
671 1 9.71837 44.5174 12.5457
672 1 6.7613 47.3393 12.5611
673 1 9.7748 47.4924 12.2538
674 1 12.5609 44.3223 12.3143
675 1 12.5149 47.1302 12.4399
12363 2 11.222 48.5711 10.844
493 1 6.27273 35.4629 -0.0467166
12253 2 2.58461 25.7686 2.78195
12362 2 5.37676 48.5559 11.1836
12372 2 5.31267 34.3999 13.9276
81 1 1.30075 24.3153 1.49141
12257 2 8.2196 25.9856 2.61509
12258 2 5.44776 28.6962 2.75571
12286 2 8.13553 45.9961 -0.0147912
12260 2 11.2126 28.3859 2.82335
12347 2 2.58667 34.4478 11.2945
12293 2 5.42183 48.6742 0.0142703
12263 2 2.61876 31.4521 2.76371
12360 2 11.0386 43.1869 11.148
15297 2 13.9119 26.1095 8.48447
89 1 12.4915 24.3671 1.29954
12267 2 7.86896 31.4696 2.85528
12268 2 5.47828 34.4647 2.24528
12385 2 8.24489 48.8157 13.8973
12270 2 10.5525 35.2916 2.43026
12359 2 8.35312 45.9027 11.1946
86 1 9.69507 24.4846 1.10289
12273 2 2.46213 37.1463 2.79176
12358 2 5.30124 43.0819 11.2904
15307 2 13.9125 31.4546 8.29005
12356 2 -0.186468 42.7718 11.1985
12277 2 7.83606 37.3277 3.137
12278 2 5.31598 39.7858 2.58558
501 1 0.824901 35.7366 1.18564
12280 2 10.9923 40.0884 2.45835
6584 1 1.21432 35.8796 4.10442
15356 2 13.9231 45.8872 11.0041
12283 2 2.69721 42.8583 2.8426
12255 2 5.31538 25.7477 -0.0511232
12319 2 -0.201218 40.1396 8.34828
12262 2 2.51431 34.1725 0.0441327
12287 2 8.16737 43.1789 2.59981
12288 2 5.44968 45.8214 2.69993
15306 2 13.936 34.3726 5.35452
12290 2 10.9766 45.7657 2.75492
12252 2 2.44396 28.6479 0.0195239
12292 2 2.57515 48.6332 2.70325
12352 2 2.61831 39.9623 11.2142
12294 2 8.22735 48.7623 2.61575
12272 2 2.19155 40.015 -0.189718
12357 2 2.40972 45.7454 11.1813
12297 2 2.44611 28.7547 5.50199
12298 2 2.36931 25.962 8.35187
12350 2 11.2158 31.6994 11.2584
12300 2 5.34215 25.8814 5.49406
12301 2 8.18314 28.6085 5.64042
12302 2 8.19923 25.9292 8.58939
12303 2 5.2852 28.7901 8.30345
12304 2 11.0013 25.9051 5.70629
12305 2 11.2182 28.7158 8.6068
864 1 0.968165 38.5089 1.15054
12307 2 2.6623 34.3984 5.44748
12308 2 2.63293 31.7669 8.52191
12355 2 11.1901 37.1312 11.3424
12310 2 5.30676 31.4126 5.59304
12311 2 8.06244 34.3109 5.32629
12312 2 8.13063 31.6849 8.32627
12313 2 5.41628 34.4339 8.47512
12314 2 11.0658 31.5472 6.06949
12315 2 11.1129 34.5372 8.57779
12354 2 8.14017 40.3541 11.0517
12317 2 2.64971 39.9571 5.59745
12318 2 2.71811 37.1275 8.49841
6463 1 12.5355 30.3677 1.18302
12320 2 5.2992 36.9274 5.36556