ITEM: TIMESTEP
100000
ITEM: NUMBER OF ATOMS
18000
ITEM: BOX BOUNDS pp pp pp
-4.9303632422201521e-01 2.7833036324221762e+01
-6.0890819955122764e+00 3.3416908199551773e+02
-4.8876693519876846e-01 2.7828766935199827e+01
ITEM: ATOMS id type x y z
3673 2 5.15651 -0.619403 5.04166
6 1 1.61535 -3.10774 1.56951
14 2 5.23317 -3.52702 2.25406
9 1 3.98264 -4.72026 0.852134
63 2 2.15111 -0.675027 2.14168
10 1 3.74076 -4.93008 3.73543
3604 2 2.53079 -3.48098 5.10358
11 1 4.25095 -1.92311 0.756247
12 1 3.71175 -1.99963 3.60843
3548 1 0.889943 -4.60484 4.02788
58 1 0.952689 -1.90851 4.09953
5 2 2.05046 -5.46747 2.16771
3609 1 3.78522 -4.9311 6.72512
3619 1 6.78232 -1.69373 6.48181
18 1 6.75121 -4.89207 3.75628
3721 2 -0.418093 5.14997 5.17251
3722 2 -0.418264 7.97463 8.0767
7288 2 13.4113 2.62131 11.0569
7322 2 -0.469708 7.72696 13.7077
3615 2 8.09293 -6.09426 8.14818
241 2 -0.477304 16.4951 -0.422556
14406 1 -0.507911 -1.02007 1.91855
20 1 6.81171 -2.06881 3.5725
17 1 6.65966 -4.83233 0.999049
14418 1 6.87386 -1.83611 0.732674
3564 1 12.2852 -4.6495 0.72743
29 2 10.9199 -3.31265 2.16691
30 1 9.39066 -1.87715 3.65748
26 2 10.8151 -0.607084 5.17435
21 1 9.45645 -1.85509 0.696772
75 2 8.08812 -0.492732 2.28735
22 1 9.36068 -4.78669 3.82488
3616 2 8.00119 -3.34854 5.1483
24 1 12.2699 -1.81668 3.62061
33 1 12.2861 -4.74219 3.78497
31 1 12.118 -1.93415 0.718251
3571 1 9.55892 -4.83147 0.764714
3617 1 6.76524 -4.63373 6.61132
3629 1 12.2709 -1.72288 6.56362
3621 1 9.70959 -4.71907 6.75984
7411 1 12.2076 15.272 12.399
7312 2 -0.501388 -0.602601 10.6743
3623 1 9.56134 -2.11622 6.61293
66 1 4.10726 0.73614 0.782035
70 1 3.70811 0.778343 3.58745
8 1 1.10341 0.793792 3.70272
74 2 5.4259 2.21843 2.39091
69 1 3.83193 3.61095 1.16275
3664 2 2.47594 2.10737 5.1147
3733 2 5.19334 5.17061 5.11075
68 1 0.87009 3.92508 3.47481
123 2 2.52024 5.10542 2.27952
72 1 3.71464 3.6033 3.86677
14466 1 1.02952 1.36127 0.737517
130 1 3.82326 6.44163 4.01994
126 1 0.775731 6.59776 4.00787
129 1 3.77652 6.48326 0.95718
3669 1 3.96217 0.84087 6.43352
3671 1 4.11224 3.71731 6.8459
267 2 13.8025 16.5299 2.38063
14468 1 1.146 4.02215 0.539857
3725 1 1.11082 6.57217 6.85136
77 1 6.53861 0.90362 3.82064
182 2 -0.322822 13.7398 2.31288
3665 1 1.20433 1.06495 6.68664
71 1 6.67519 3.62221 1.04096
80 1 6.57518 3.78177 3.71752
3679 1 6.82687 3.81841 6.57709
138 1 6.54694 6.42731 3.58243
14470 1 6.71324 0.993862 0.890219
82 1 12.112 0.939266 3.73271
89 1 12.4514 0.744552 0.887264
86 2 10.8325 2.30909 2.2901
81 1 9.37679 3.88852 0.683175
3676 2 8.15148 2.27299 5.26944
23 1 9.43771 0.876363 0.916842
3745 2 10.6654 5.36813 5.1139
91 1 12.0785 3.75314 0.785924
135 2 7.95918 5.11431 2.26493
83 1 12.0642 3.71104 3.61189
3683 1 9.34163 0.78206 3.76685
149 1 9.47449 6.74797 0.510802
3691 1 9.22423 3.71562 3.6783
3685 2 13.253 2.26808 5.12573
84 1 9.2618 6.47008 3.56159
3749 1 11.971 6.46381 3.66439
150 1 12.3241 6.65496 0.649768
92 1 12.0377 6.53505 6.57144
3631 1 12.1501 1.02479 6.64137
3681 1 9.42947 3.87399 6.58141
3677 1 6.60364 1.07229 6.5884
78 1 9.53125 1.10967 6.48363
3689 1 12.4072 3.92137 6.56099
3737 1 6.59174 6.74223 6.51083
3662 2 -0.498338 2.31769 7.86039
7399 1 6.52268 14.9521 11.8836
7225 2 10.9004 -6.07897 11.0286
3781 2 -0.263975 10.8728 5.12352
125 1 1.04924 6.52665 1.37024
3793 2 5.15525 10.9217 5.1419
134 2 5.28197 7.9008 2.19891
128 1 0.957391 9.39451 3.94061
183 2 2.52338 10.8832 2.27205
3724 2 2.43825 8.06117 5.32524
131 1 3.652 9.25306 0.896088
132 1 4.00528 9.56319 3.67934
14598 1 3.65554 12.4368 0.828862
3785 1 1.16307 12.1677 3.59655
186 1 0.931164 12.4686 0.866536
190 1 4.14754 12.4392 3.77664
127 1 0.845726 9.65903 1.22092
3727 1 1.03784 9.38924 6.70444
198 1 3.86523 12.3091 6.59222
242 2 -0.375796 19.3542 2.50689
3789 1 1.20979 12.3717 6.51345
3627 2 13.753 -6.10958 8.03776
141 1 6.76295 6.3823 0.862675
140 1 6.84162 12.0459 4.14279
137 1 6.57988 9.2065 0.770027
139 1 6.24969 12.1652 1.02387
142 1 6.98475 9.15666 3.43824
3805 2 10.9941 10.6412 5.18699
151 1 12.3255 9.68388 1.17596
146 2 10.8009 8.05975 2.29047
195 2 8.08982 10.6691 2.16674
3736 2 7.88951 7.96929 5.10505
143 1 9.86407 9.58053 0.961017
3743 1 9.69393 9.35191 3.76449
144 1 12.442 9.24604 3.8345
197 1 9.2961 12.3458 1.00897
210 1 12.4809 12.1777 3.97979
201 1 12.2058 12.4637 0.979979
202 1 9.57624 12.0241 3.6085
3739 1 6.51339 9.56862 6.27703
3797 1 6.55184 12.3686 7.07817
152 1 12.4156 9.09281 6.88972
3809 1 12.2135 12.0102 6.75134
3751 1 9.47759 9.33945 6.52994
7228 2 13.4933 -3.37227 10.8345
194 2 5.05589 13.93 2.22017
3784 2 2.64047 13.6783 5.09191
3844 2 2.66127 19.2236 5.1285
3853 2 5.18259 16.5643 4.99443
245 1 0.83179 17.9701 0.914956
246 1 0.894152 17.8423 3.89899
187 1 0.980582 15.3366 0.994981
254 2 5.11339 19.3069 2.28262
188 1 0.764934 15.039 3.69754
249 1 3.53598 17.8464 0.903089
243 2 2.25677 16.5865 2.31566
250 1 3.84788 18.0034 3.6078
191 1 3.84714 15.1723 0.750959
192 1 3.74028 15.2369 3.62928
3849 1 3.82433 17.8771 6.46694
3791 1 3.70535 15.0787 6.62783
7275 2 8.12612 -0.612155 13.5585
3845 1 1.20997 17.9251 6.46633
147 2 13.6029 5.06959 2.28686
3855 2 8.1087 16.6788 7.89972
206 2 10.9365 13.5169 2.46623
3800 1 6.73474 15.1207 9.1775
258 1 6.63143 17.7734 3.55749
257 1 6.59062 17.9439 0.668335
3803 1 9.23776 15.1728 6.57591
200 1 6.60557 15.0992 3.49371
199 1 6.516 14.9124 0.758628
3796 2 8.1206 13.736 5.13276
3865 2 10.785 16.534 5.23627
269 1 12.2654 17.9529 0.968215
270 1 12.2837 17.7977 3.80739
211 1 12.5523 15.2992 0.992567
266 2 11.0111 19.1964 2.4214
212 1 12.4119 15.1826 4.01636
261 1 9.74193 18.1866 0.876631
255 2 8.10138 16.4664 2.04222
262 1 9.37531 17.952 3.67711
3856 2 8.05025 19.4572 5.24315
203 1 9.78996 15.2256 1.3026
204 1 9.36216 15.0914 4.00523
3857 1 6.68018 18.1241 6.49371
3861 1 9.46464 17.866 6.50567
3607 1 0.825073 -1.93444 6.84797
3611 1 3.87001 -2.02422 6.3418
62 2 -0.348846 2.23491 2.66775
7441 2 -0.375581 16.4646 10.8185
3545 1 -0.183372 -4.94007 1.47482
3605 1 1.17159 -4.7678 6.84717
7273 2 5.41708 -0.418026 10.773
7205 1 1.14689 -4.93362 12.2479
3606 1 1.18937 -2.10659 9.58297
7207 1 0.90098 -2.19889 12.3022
3614 2 5.3514 -3.34644 7.91731
7209 1 3.76193 -4.80009 12.3471
3663 2 2.36472 -0.582508 8.09683
3610 1 3.67695 -4.76036 9.44315
7204 2 2.52844 -3.44791 10.9022
7211 1 3.83434 -1.99072 12.235
3612 1 3.99588 -1.96107 9.29784
3658 1 0.992624 -4.79685 9.61198
3748 2 13.6402 7.88147 5.08637
3806 2 10.8687 13.5384 7.92967
3625 2 10.9715 -6.15507 5.07229
3572 1 12.2977 -4.63251 6.62065
7217 1 6.65686 -4.87354 12.2642
3870 1 12.4493 17.946 9.29463
3618 1 6.64948 -4.62829 9.57942
7219 1 6.71022 -1.79771 12.2119
3620 1 6.67606 -2.02947 9.40063
7285 2 10.8085 -0.269422 10.8273
7229 1 12.409 -4.65318 12.1196
3630 1 12.0994 -4.72397 9.5925
7231 1 12.2989 -1.7465 12.2778
3626 2 10.9706 -3.32804 8.08146
3632 1 12.1516 -1.72023 9.28862
7221 1 9.43372 -4.67164 12.3332
3675 2 8.29048 -0.434354 7.8469
3622 1 9.39959 -4.55089 9.52076
7216 2 8.20624 -3.21092 10.7972
7223 1 9.57449 -1.9622 12.5162
3624 1 9.38776 -1.62022 9.68062
209 2 11.0447 10.8987 -0.528347
3804 1 9.53776 15.3228 9.5524
3862 1 9.40011 18.1438 9.20489
3866 2 10.8872 19.4213 7.83701
3747 2 13.5473 5.27137 8.14947
3729 1 3.84814 6.58151 6.77348
3667 1 1.1018 3.72806 6.57068
3602 2 -0.510913 -3.45962 8.08852
3687 2 13.5224 -0.362976 8.03753
7265 1 0.942961 0.695872 12.2839
3666 1 0.949988 3.52095 9.39673
3674 2 5.16471 2.19965 8.02888
3608 1 0.802042 0.617746 9.44573
7269 1 3.8981 0.749801 12.2873
3670 1 3.82723 0.85257 9.39767
7264 2 2.37868 2.21818 10.8936
7333 2 5.1335 5.10926 10.7291
7267 1 1.08013 3.52453 12.2616
3723 2 2.47841 5.07373 8.02994
7271 1 3.85536 3.83415 12.4383
3672 1 3.67142 3.53892 9.48809
3668 1 0.984079 6.56008 9.46805
7329 1 3.62689 6.63508 12.3017
3730 1 3.94477 6.56585 9.51092
3680 1 6.46508 3.48134 9.53604
3678 1 6.57737 0.746513 9.28826
7337 1 6.30232 6.70932 12.0602
7279 1 6.46803 3.81972 12.4023
3841 2 -0.586292 16.4453 5.13934
7325 1 0.576928 6.42842 12.2948
3741 1 9.32931 6.80348 6.4891
3738 1 6.42309 6.25111 9.24636
7277 1 6.58399 0.847885 12.3626
7289 1 12.4201 1.11367 12.3698
3690 1 12.1203 1.12531 9.62819
3686 2 10.8828 2.45254 7.96333
7281 1 9.47668 1.09363 12.0356
3682 1 9.46081 1.10647 9.22622
7276 2 7.87167 2.39547 10.9904
3684 1 9.33316 3.78863 9.48179
7283 1 9.39978 3.84487 12.2552
3735 2 8.04768 5.09466 8.05358
7345 2 10.7086 5.00018 10.9121
7291 1 11.9515 3.75111 12.2894
3692 1 12.0135 3.81982 9.28829
7341 1 8.99177 6.4272 12.0187
3754 1 12.2173 6.71477 9.40793
3742 1 9.35747 6.51028 9.27997
7348 2 13.4422 8.02181 10.8639
3628 2 13.5836 -3.15174 5.03517
3731 1 3.87888 9.37697 6.50153
7383 2 2.31274 10.9468 13.5742
3780 1 0.892487 12.2547 9.17579
7393 2 4.92493 11.0793 11.0555
3726 1 1.07833 9.38314 9.32681
7327 1 0.973391 9.50405 12.3549
3734 2 5.25298 8.05316 8.03602
3728 1 2.59639 10.729 10.7036
3783 2 2.59078 10.8267 8.11869
7324 2 2.53625 8.25188 10.7111
7331 1 4.16904 9.22798 12.1274
3732 1 4.39639 9.71648 9.16618
7389 1 3.78154 12.368 12.5242
7385 1 0.915429 12.5329 12.2987
3786 1 3.9423 12.5485 9.51721
3858 1 6.59507 18.2204 9.20151
7381 2 -0.260382 10.7925 10.9438
3801 1 9.42021 12.3046 6.48452
3750 1 11.6802 6.79493 11.7785
3790 1 6.67255 12.023 9.91931
7339 1 7.02423 9.60671 12.1666
7397 1 6.98664 12.2198 12.3944
3740 1 7.13142 9.35744 9.22717
7349 1 12.6185 9.35559 12.4823
3795 2 7.94238 10.8583 7.68232
7401 1 9.67452 12.2648 11.9937
3744 1 9.48147 9.40907 9.78251
7343 1 9.84215 9.61062 12.4489
7336 2 7.88322 7.70399 10.734
7405 2 11.5469 10.7588 11.0432
3746 2 10.7342 8.19218 8.04948
3752 1 12.1951 9.63503 9.45295
3798 2 8.33453 10.7994 10.9375
3802 1 9.02189 12.0627 9.27127
7409 1 12.5279 12.4504 12.3758
3810 1 12.0436 12.4202 9.39145
7457 1 6.64878 17.8669 12.3152
7442 2 -0.413525 19.3145 13.8231
3787 1 0.755471 15.1171 6.39753
7461 1 9.2109 17.7641 11.9731
7384 2 2.50677 13.7914 10.8118
124 2 2.09802 8.10151 -0.397307
3788 1 0.879302 15.1711 9.357
3794 2 5.19192 13.908 8.12967
3843 2 2.29716 16.5121 7.96771
3846 1 0.85301 17.8521 9.48566
7391 1 3.76681 15.0786 12.4902
3792 1 3.78881 15.3424 9.74069
7444 2 2.28706 19.2649 10.7959
3854 2 5.19005 19.4004 7.92146
7445 1 0.933771 17.992 12.3877
7387 1 0.982698 15.1344 12.3658
7449 1 3.92362 18.1445 11.9751
3850 1 3.39933 18.1609 9.22097
7453 2 5.34017 16.6834 10.8508
3842 2 -0.408506 19.1158 7.92107
87 2 13.5803 -0.441588 2.29255
3808 2 13.6553 13.8076 5.38812
3868 2 13.656 19.4643 4.94669
7456 2 8.11636 19.757 10.5356
3799 1 6.59106 15.2126 6.4029
7396 2 8.02368 13.8531 10.6661
3811 1 12.1171 15.0741 6.63427
3869 1 12.3316 18.0099 6.59594
7403 1 9.31091 15.0584 12.2482
3812 1 12.3312 14.9955 9.5387
7469 1 12.3011 18.1775 12.3298
7465 2 10.9329 16.6004 10.8137
7454 2 5.39082 19.4736 13.6613
3782 2 -0.309989 13.6384 7.82798
7394 2 5.20551 13.7203 13.7046
7321 2 -0.494607 5.0837 10.7976
196 2 8.02009 13.7772 -0.606659
7466 2 10.716 19.3937 13.5988
7346 2 10.9098 7.7378 13.7266
193 2 5.24261 10.838 -0.497185
208 2 13.6234 13.787 -0.379559
244 2 2.21284 19.4917 -0.417553
7226 2 10.9552 -3.43669 13.6178
7455 2 8.04611 16.5052 13.4257
7334 2 5.14652 7.92657 13.5282
7 1 1.78157 -0.977578 -0.323387
3547 1 1.31605 -5.47901 -0.30103
14604 1 8.26079 16.3869 -0.458232
7262 2 -0.456207 2.32886 13.5167
7214 2 5.33023 -3.40276 13.5573
10873 2 5.12129 -0.508295 16.546
10805 1 0.819116 -5.02234 17.8095
7206 1 1.05244 -4.90534 15.0857
10807 1 0.882221 -2.03499 17.6699
10814 2 5.28353 -3.24684 19.1999
7208 1 0.867155 -1.9347 14.9708
10809 1 3.79885 -4.76804 17.9579
10863 2 2.54184 -0.401272 19.1316
7210 1 3.88255 -4.81833 15.1361
10804 2 2.33905 -3.50587 16.5353
10811 1 3.79688 -1.7484 17.911
7212 1 3.8532 -2.07363 15.241
10812 1 3.67681 -1.85397 20.6654
10808 1 0.965402 -1.7668 20.4076
10810 1 3.6862 -4.64658 20.7891
10806 1 0.773747 -4.51814 20.3784
10818 1 6.60575 -4.53278 20.4935
7395 2 8.00683 10.8151 14.0156
88 2 13.3383 2.30579 27.7501
10861 2 -0.484058 -0.379586 16.3852
256 2 8.04941 18.8899 27.7481
10817 1 6.64624 -4.57668 17.898
10819 1 6.79568 -1.75113 17.8619
7220 1 6.70305 -2.23367 15.012
7218 1 6.57979 -4.76213 15.2121
10885 2 10.8576 -0.645671 16.3368
10829 1 12.318 -4.84348 17.9454
7230 1 12.543 -4.87871 15.0267
10831 1 12.4144 -1.94856 17.9488
10826 2 10.8342 -3.43749 19.3514
7232 1 12.4494 -2.00289 15.0434
10821 1 9.39911 -4.75507 17.8558
10875 2 8.16545 -0.499574 19.2552
7222 1 9.49229 -4.96889 15.1673
10816 2 8.05394 -3.31255 16.5066
10823 1 9.47412 -1.96905 17.9159
7224 1 9.50467 -2.0885 15.1285
10822 1 9.3585 -4.74495 20.4197
10832 1 12.2767 -2.06709 20.7152
14600 1 6.55109 15.0598 26.2181
10865 1 0.982699 0.770571 17.9507
7266 1 0.815672 1.00447 15.038
10874 2 5.19504 2.37374 19.1944
10869 1 3.82254 1.02848 17.6287
7270 1 3.45755 1.06448 14.976
10864 2 2.25442 2.31769 16.3059
10933 2 5.10618 4.99521 16.4969
10867 1 1.09095 3.51677 17.8669
7268 1 1.00586 3.82424 14.9385
10923 2 2.16133 5.11088 19.2558
10871 1 3.87562 3.97297 18.0351
7272 1 3.7502 3.68531 15.3788
10925 1 1.07864 6.49046 17.8202
7330 1 3.46876 6.61459 14.7674
7326 1 1.04781 6.74751 15.1807
10870 1 3.99965 0.982816 20.5579
10926 1 0.879 6.55384 20.5768
10868 1 0.918997 3.77568 20.701
10872 1 3.65504 3.9298 20.718
10930 1 3.68063 6.58022 20.8087
7280 1 6.37689 3.74238 15.0031
10879 1 6.80294 3.53648 17.767
14547 2 13.4942 5.13429 24.9025
10815 2 7.78625 -6.10538 19.1559
10866 1 1.19391 0.916784 20.6707
7406 2 11.04 13.7605 13.8726
253 2 5.1945 16.5242 27.7068
10937 1 6.33638 6.39434 17.7099
7338 1 6.42989 6.54354 14.9534
10877 1 6.45196 1.00772 17.6181
7278 1 6.31198 0.768905 15.0603
7290 1 12.2535 0.524378 15.038
10889 1 12.2435 1.02757 17.8585
10886 2 10.9215 2.34265 19.2143
10881 1 9.50774 0.860917 17.8886
7282 1 9.31054 0.776025 15.0675
10876 2 8.05935 2.27972 16.4138
10945 2 11.0426 5.06399 16.4206
10891 1 12.2976 3.83187 18.1487
7292 1 11.9948 3.38152 15.5089
10935 2 8.10442 5.02005 19.1803
10883 1 9.53846 3.72501 17.7695
7284 1 9.26751 3.55058 14.9758
10949 1 12.0751 6.60322 17.8613
7342 1 9.36248 6.60187 14.9649
10941 1 9.19407 6.47656 17.7437
7350 1 12.1878 6.67507 15.1392
10884 1 9.34386 3.49059 20.6484
10890 1 12.035 0.692848 20.6628
10880 1 6.43076 3.69339 20.759
10892 1 12.1008 3.70566 20.7989
14657 1 6.79144 18.0979 23.608
10938 1 6.5506 6.50345 20.5061
10942 1 9.27581 6.38169 20.608
10950 1 12.3959 6.46552 20.8779
10929 1 3.7626 6.54084 17.8474
10993 2 5.09317 10.6821 16.4089
10927 1 1.16197 9.32251 18.0269
10934 2 5.07138 7.74958 19.2763
7328 1 0.891631 9.43628 15.1804
10983 2 2.49028 10.8283 19.4846
10924 2 2.42676 8.0459 16.5657
10931 1 3.95823 9.39731 17.9972
7332 1 3.73195 9.34646 14.9031
10985 1 0.892572 12.3913 17.7439
7386 1 1.03436 12.4232 15.0037
10989 1 3.80582 12.3781 17.7485
7390 1 3.79266 12.1667 15.0808
10932 1 3.90529 9.30131 20.8073
10986 1 1.1389 12.3309 20.4134
10990 1 3.91445 12.1115 20.5937
7340 1 6.32303 9.44311 15.0729
10922 2 -0.425479 7.89385 19.2971
10928 1 0.824128 9.39539 20.8409
10948 2 13.4552 8.01329 16.6581
11068 2 13.566 19.4767 16.5646
184 2 2.35984 13.5303 27.3789
10939 1 6.75766 9.0436 17.9686
10997 1 6.75175 12.0176 17.8241
7398 1 6.51795 12.279 15.098
11005 2 10.7771 10.7911 16.509
10951 1 12.3011 9.40619 18.1178
10946 2 10.7099 7.76552 19.4684
10995 2 8.04507 10.6438 19.2554
10936 2 7.84319 7.86474 16.377
10943 1 9.54025 9.15764 18.0838
7344 1 9.25296 9.52458 15.3597
11009 1 12.4612 12.0678 17.8512
7410 1 12.2792 12.2939 15.1772
11001 1 9.42262 12.051 17.9632
7402 1 9.40983 12.1513 15.1692
7351 1 12.0884 9.4672 15.1398
10998 1 6.68401 12.268 20.7987
11002 1 9.43769 11.946 20.8101
10944 1 9.46985 8.98993 20.8875
10952 1 12.2741 9.07489 20.8475
11010 1 12.3039 12.2264 20.7993
10984 2 2.39747 13.5923 16.5117
10994 2 5.17023 13.6874 19.4716
11053 2 5.4494 16.6105 16.5587
11045 1 1.0168 18.0258 17.8472
7446 1 0.853357 17.9501 15.068
10987 1 1.15078 15.1153 18.0055
11054 2 5.24914 19.2401 19.348
7388 1 0.850899 15.1047 15.193
11049 1 4.16864 18.0879 17.7661
11043 2 2.37784 16.6961 19.3478
7450 1 3.74886 18.2732 14.7444
11044 2 2.44051 19.4423 16.3744
10991 1 4.00337 15.1949 18.0141
7392 1 3.90047 15.1369 15.3684
10988 1 1.15011 15.4045 20.9915
85 2 10.8312 -0.589566 27.8108
10992 1 3.84861 14.9967 20.6778
11041 2 -0.311366 16.401 16.3951
14403 2 2.26056 -5.86407 25.0634
11057 1 6.84211 18.1601 18.0779
7400 1 6.75936 14.9173 14.8324
10996 2 7.92578 13.5993 16.5085
7458 1 6.8537 17.7993 15.2339
10999 1 6.81961 15.0711 18.1282
11006 2 10.8973 13.617 19.3177
11065 2 10.986 16.4539 16.5862
11069 1 12.3987 17.9109 18.0895
7470 1 12.1258 18.1217 15.3303
11011 1 12.3118 15.107 18.0524
11066 2 11.0618 19.2824 19.349
7412 1 12.1809 15.2287 15.1416
11061 1 9.55808 17.769 17.9561
11055 2 8.09851 16.457 19.4821
7462 1 9.60628 17.6732 14.9188
11003 1 9.39261 14.9398 17.8335
7404 1 9.50542 14.9535 15.1257
11056 2 8.29302 19.2873 16.6958
11062 1 9.41875 17.6854 20.8418
11000 1 6.6694 15.2096 20.9711
11004 1 9.51144 14.8077 20.5408
64 2 2.87663 2.29554 27.8558
16 2 8.02184 -3.40473 27.8092
52 2 -0.436748 -3.92669 27.7851
14473 2 5.19699 -0.588531 22.0604
14405 1 0.813847 -4.90264 23.5693
14407 1 0.842356 -1.91251 23.4334
14414 2 5.16846 -3.17289 24.8351
14408 1 1.3237 -3.46716 25.8414
14409 1 3.57511 -4.68326 23.6485
14463 2 2.14816 -0.539192 24.9544
14410 1 3.82762 -1.83897 26.1068
14404 2 2.32468 -3.25506 21.9991
14411 1 3.73564 -2.08366 23.4375
17960 1 3.9151 -4.74253 26.3551
10982 2 -0.285323 13.8065 19.3945
11007 2 13.6501 10.8641 19.4359
10981 2 -0.533936 10.7578 16.6234
121 2 -0.354123 2.58763 27.6261
7323 2 2.33229 5.17873 13.6432
10820 1 6.51735 -1.94501 20.6889
10824 1 9.53029 -1.96828 20.8195
11042 2 -0.389819 19.2648 19.1376
73 2 5.48574 -0.666034 27.7529
14417 1 6.47856 -4.90107 23.4723
10830 1 12.3181 -4.71941 20.8744
17964 1 6.71526 -4.73961 26.4367
14420 1 6.54975 -1.88698 26.23
14419 1 6.59509 -1.87133 23.6291
14430 1 12.2755 -4.67694 26.2121
14485 2 10.6546 -0.455103 22.2579
14429 1 12.3584 -5.00474 23.4249
14431 1 12.0746 -2.0656 23.5301
14426 2 10.9563 -3.6325 24.7593
14432 1 12.384 -1.56667 26.3885
14421 1 9.37259 -4.68025 23.4299
14475 2 7.92622 -0.572143 25.0779
14422 1 9.7295 -4.95689 25.9649
14416 2 8.00499 -3.32932 22.016
14423 1 9.47494 -2.10087 23.4021
14424 1 9.57012 -2.10496 26.4717
14488 2 13.5397 2.43546 22.307
14487 2 13.6351 -0.451355 24.9745
10878 1 6.71667 1.00193 20.5437
10802 2 -0.314815 -3.14212 19.087
14521 2 -0.421706 5.23916 22.0428
10862 2 -0.359155 2.35997 19.3202
14462 2 -0.539267 2.37021 24.4447
119 1 0.613062 0.597137 26.1026
14469 1 3.80789 0.786776 23.2633
14465 1 1.15879 0.969712 23.5159
14474 2 5.1786 2.21486 24.793
14464 2 2.42739 2.46008 22.0105
14412 1 3.70812 0.986229 25.9397
14533 2 5.03234 5.1701 22.157
14467 1 0.985882 4.04326 23.4467
14523 2 2.43961 5.06187 25.2523
14471 1 3.71866 3.57351 23.4562
14472 1 4.13772 3.70124 26.6787
14529 1 3.58872 6.5253 23.8713
14530 1 3.68195 6.57163 26.5528
65 1 1.39571 3.18593 26.2448
14477 1 6.80416 0.735348 23.4527
19 1 6.43911 0.861808 26.4383
4 2 2.79252 -3.14339 27.663
14520 1 0.980711 6.39107 26.4783
14522 2 -0.516374 7.83966 25.0399
7286 2 11.0247 2.08093 13.8646
10882 1 9.31961 0.835362 20.6652
14666 2 10.9725 19.4903 25.0536
14478 1 6.66391 3.61737 26.31
14537 1 6.64117 6.51919 23.3752
14480 1 6.55386 6.5344 26.4187
14479 1 6.50031 3.87869 23.5221
14489 1 12.3734 0.867938 23.4707
14490 1 11.7971 1.16929 26.4123
14481 1 9.60747 0.922421 23.616
14482 1 9.194 0.769831 26.288
14476 2 7.87448 2.25829 22.0148
76 2 10.6329 2.30988 25.0146
14486 1 12.0643 3.79703 26.3388
14484 1 9.37862 3.71686 26.2766
14483 1 9.18445 3.58431 23.4546
14535 2 8.0316 5.08005 24.8465
14545 2 10.712 5.12153 22.1308
14491 1 12.0895 3.732 23.4784
14549 1 12.3076 6.60524 23.6103
14550 1 12.052 6.6103 26.5162
14541 1 9.32627 6.32204 23.449
14538 1 9.3046 6.70786 26.147
14579 1 -0.0517165 12.9607 22.8968
14525 1 0.742596 6.6851 23.5129
14578 1 -0.0803344 8.69194 27.1369
181 2 -0.105848 11.2523 24.8492
133 2 5.23164 5.18376 27.8845
14585 1 1.12745 9.30343 25.0241
14580 1 1.50477 11.0145 23.1249
14527 1 1.2431 11.3799 26.858
14590 1 4.14153 12.2936 26.3634
14593 2 5.26006 10.6666 21.972
14534 2 5.30656 7.87357 24.9202
14583 2 2.91351 10.9715 25.003
14524 2 2.22278 7.96026 21.9437
14531 1 3.99379 9.31284 23.6877
14532 1 3.88354 9.47411 26.5743
14589 1 3.99888 12.345 23.2645
14637 1 1.59341 13.0562 25.1116
14428 2 13.523 -3.36017 22.1628
14539 1 6.60881 9.29459 23.4086
10940 1 6.65668 9.31814 20.5979
11058 1 6.69006 18.0301 20.8559
14670 1 12.3747 18.1702 26.3638
14602 1 6.8904 12.0982 26.3935
14540 1 6.56877 9.50965 26.0106
14597 1 6.57223 12.2992 23.5159
14601 1 9.42625 12.1099 23.5833
14610 1 12.2198 12.3563 26.5768
14609 1 12.4168 12.2895 23.6875
14544 1 9.56963 12.4203 26.4921
14543 1 9.55425 9.36024 23.6534
14536 2 7.93422 7.76582 22.0285
14542 1 9.38511 9.45082 26.4421
14595 2 7.98716 10.7186 24.7659
14605 2 10.6654 10.7198 22.0884
14551 1 12.4824 9.51183 23.6642
14546 2 10.7398 7.99579 24.938
14552 1 12.4418 9.62323 26.4348
14599 1 6.58803 15.223 23.5758
14612 1 12.3876 15.2866 26.515
7263 2 2.24746 -0.551252 13.6863
14658 1 6.51558 18.0773 26.1225
14661 1 9.52722 18.14 23.6932
11046 1 0.925013 18.0353 20.7603
11050 1 3.92394 17.848 20.7452
14654 2 5.02703 19.342 24.8745
14588 1 0.709699 15.1029 26.5024
14646 1 0.810182 18.0112 26.4374
14644 2 2.39132 19.2722 22.0395
14592 1 3.63709 15.1005 26.3487
14643 2 2.28836 16.5563 25.1901
14649 1 3.87556 17.9683 23.3343
14587 1 1.04849 15.5383 23.7502
14653 2 5.23569 16.4969 22.2896
14650 1 3.62994 18.3456 26.5561
14591 1 3.70989 15.1767 23.474
14584 2 2.42489 13.7439 22.3347
14594 2 5.3639 13.5885 24.7835
14645 1 0.963334 18.2045 23.4926
14641 2 -0.329662 16.7089 22.1804
14665 2 10.8519 16.5951 22.223
14642 2 -0.39555 19.4718 24.8585
14669 1 12.4313 18.1594 23.5815
7335 2 7.8189 4.97435 13.7363
14596 2 8.22172 13.6134 22.14
11070 1 12.2389 17.7982 20.8546
11012 1 12.1704 14.9671 20.6926
14662 1 9.55295 18.0659 26.3496
14603 1 9.43682 15.3476 23.3202
14606 1 9.64435 15.1689 26.289
14611 1 12.3547 15.3061 23.4881
14656 2 8.09043 19.2951 22.0704
14655 2 8.07117 16.6731 25.0351
205 2 11.1048 13.7765 25.0225
10921 2 -0.376109 5.1257 16.502
7382 2 -0.487694 13.7977 13.7259
7274 2 5.00458 2.25547 13.83
7215 2 8.00782 -6.11365 13.775
7443 2 2.29958 16.5958 13.7006
265 2 10.8729 16.613 27.8036
136 2 7.93873 7.94106 27.4688
7202 2 -0.380883 -3.48441 13.8132
145 2 10.8168 5.28139 27.674
79 2 7.93634 2.32288 27.6772
3913 2 5.20555 21.978 5.11923
305 1 1.16081 23.8047 0.927206
306 1 0.86615 23.5277 3.55839
247 1 0.772728 20.9236 0.873444
314 2 5.32634 25.0409 2.30324
248 1 1.11295 20.758 3.57495
309 1 3.91936 23.5644 0.785291
303 2 2.28048 22.1792 2.30166
310 1 3.76414 23.468 3.76062
3904 2 2.63848 24.9871 4.92558
251 1 3.74228 20.812 0.939078
252 1 3.76005 20.6801 3.75019
311 1 4.03474 26.1771 0.883179
312 1 3.83607 26.4766 3.54698
3905 1 1.15466 23.6134 6.37185
307 1 0.947523 26.761 0.875337
3909 1 3.85532 23.5062 6.5859
3851 1 3.68783 20.5993 6.31829
3847 1 0.813622 20.7391 6.59584
3907 1 0.9388 26.4493 6.51867
3911 1 3.82351 26.5045 6.32024
302 2 -0.390097 25.2307 2.37088
260 1 6.49918 21.0566 0.756662
7575 2 8.13783 28.046 13.4864
3901 2 -0.307824 22.2562 5.02747
4167 2 13.6503 44.9571 7.91077
318 1 6.4318 23.4361 3.73887
3860 1 6.45705 20.9497 6.66285
317 1 6.74561 23.7621 0.849878
320 1 6.68909 26.4142 3.57064
3859 1 6.53802 20.812 3.61278
14664 1 9.11543 20.9749 0.762051
3925 2 10.8214 22.2529 5.21195
329 1 12.38 23.7686 1.00234
330 1 12.2485 23.7179 3.82538
326 2 11.0112 25.2052 2.35368
272 1 12.3909 20.8164 3.76038
321 1 9.3226 23.5275 1.17484
315 2 8.10126 22.2875 2.62377
322 1 9.423 23.7779 3.75856
3916 2 8.27093 25.2748 5.08082
263 1 12.1778 20.8331 1.1891
264 1 9.36179 20.8272 3.73223
3929 1 12.2245 23.6611 6.56196
332 1 12.2613 26.6601 3.66424
3931 1 12.2599 26.4447 6.52792
3863 1 9.42709 20.778 6.61468
319 1 6.80984 26.5911 0.879015
331 1 12.4405 26.4803 0.76354
3962 2 -0.438408 30.6583 7.86559
557 1 6.99896 46.2278 0.818599
308 1 0.973389 26.2977 3.63772
367 1 0.920499 29.7617 0.655717
3973 2 5.33857 27.7859 5.17788
363 2 2.60873 27.9045 2.3384
374 2 5.20123 30.7303 2.35189
368 1 1.01233 29.2092 3.6111
369 1 3.94905 29.4393 0.920837
370 1 3.82305 29.2319 3.66673
3964 2 2.36573 30.7792 4.98378
371 1 3.17475 31.9739 0.84027
372 1 4.00045 32.356 3.59437
3967 1 1.10261 32.1713 3.6081
426 1 0.26504 32.5428 0.917881
3968 1 0.993941 32.2738 6.42859
7623 2 2.43949 33.1767 13.4707
3971 1 3.82975 31.9961 6.38149
3965 1 0.990264 29.4294 6.34238
4082 2 -0.322575 42.0739 7.84871
323 1 9.64789 26.3884 0.846288
324 1 9.57472 26.5874 3.6817
377 1 6.66287 29.4362 1.06526
379 1 6.37226 32.1351 0.724803
378 1 6.76913 29.1542 3.83424
380 1 6.82929 32.0254 3.53882
3985 2 10.9456 28.1275 5.03082
375 2 8.14504 27.9402 2.42969
390 1 12.5398 29.2258 0.895333
386 2 10.986 30.8758 2.31551
392 1 12.3516 32.2411 3.59587
381 1 9.75391 29.2527 0.672509
382 1 9.39839 29.6208 3.5664
3976 2 8.09594 30.7909 5.13462
383 1 9.3659 32.1922 0.826475
384 1 9.4353 32.3426 3.98905
3989 1 12.1314 29.4755 3.56417
395 1 12.0199 32.7002 1.07644
3991 1 12.3982 32.0802 6.496
3990 1 12.2248 29.2947 6.5405
3981 1 9.47051 29.2886 6.33545
3979 1 6.58243 32.0882 6.46591
3961 2 -0.423357 27.6629 5.17002
7502 2 -0.212714 25.1649 13.4059
422 2 -0.353171 36.647 2.20527
4022 2 -0.316733 36.3182 7.89882
4033 2 5.41033 33.5018 4.93162
425 1 1.14116 35.2938 0.864175
434 2 5.34855 36.3567 2.20182
429 1 4.10517 34.9349 0.504915
423 2 2.42852 33.7091 2.23106
430 1 3.85368 34.9727 3.58706
4024 2 2.52956 36.2706 4.88236
428 1 1.06365 35.1451 3.46725
427 1 1.02446 38.084 0.90667
431 1 3.86987 38.1451 0.723191
432 1 3.9861 37.8856 3.44035
486 1 1.2077 37.9818 3.60292
483 2 2.51666 39.3984 2.18881
4093 2 5.30906 39.3592 5.05761
4031 1 3.91855 37.7879 6.27375
4025 1 1.1874 34.832 6.22672
440 1 6.93957 37.7088 3.54124
4027 1 1.12527 37.6645 6.65144
4029 1 3.92023 34.949 6.22337
7503 2 2.5791 22.2217 13.5796
7634 2 5.41711 36.4982 13.4268
362 2 -0.284355 30.7076 2.57423
4039 1 6.78765 37.7985 6.32272
437 1 6.886 34.9091 0.817378
439 1 6.48583 37.515 0.466646
438 1 6.68838 34.8445 3.47694
4045 2 10.9997 33.7296 5.1502
449 1 12.8795 35.5442 1.29037
450 1 12.4386 34.9241 4.08574
446 2 10.974 36.5162 2.14412
441 1 9.83159 35.091 0.74596
435 2 8.22166 33.7016 2.29311
442 1 9.6514 34.9929 3.55346
4036 2 8.19003 36.4315 5.21175
509 1 12.3919 38.0888 0.956797
452 1 12.4133 37.7516 3.61776
443 1 9.1273 37.7491 1.00089
444 1 9.76605 37.8873 3.54345
4105 2 11.0832 39.2258 5.01834
495 2 8.20269 39.3102 2.449
4043 1 9.68153 37.6849 6.40111
4041 1 9.65255 35.1535 6.55755
4049 1 12.7532 34.6665 6.63458
7709 1 12.1656 40.6249 11.9685
4037 1 6.72534 35.0434 6.36593
7528 2 13.2516 25.2023 10.8057
4153 2 5.04668 44.94 5.20255
485 1 1.09683 40.9181 0.823634
487 1 0.863665 43.5172 0.967293
494 2 5.38221 42.1693 2.1624
488 1 1.05915 43.659 3.73694
489 1 3.80082 40.8697 0.790497
543 2 2.40494 44.7808 2.15632
490 1 1.03325 40.6453 3.55308
4084 1 4.10611 40.8384 3.70259
491 1 3.92731 43.5745 0.979281
492 1 3.99439 43.4637 3.60592
482 2 2.59656 42.2719 5.02718
498 1 6.74583 40.5612 3.65022
4085 1 1.10278 40.6096 6.47794
497 1 6.74869 40.5457 0.959006
499 1 6.88328 43.3991 0.981626
7621 2 -0.338904 33.4513 10.6891
4102 1 9.432 40.9663 9.27304
7622 2 -0.297742 36.3064 13.5489
4087 1 1.16423 43.6417 6.46287
4091 1 3.7332 43.521 6.35661
512 1 12.3332 43.3682 6.29763
7765 2 10.6476 45.0975 10.6952
500 1 6.72428 43.5389 3.59379
4165 2 10.8024 44.7927 5.08991
510 1 12.3968 40.6161 3.65216
511 1 12.4468 40.81 0.90642
506 2 11.0891 41.9846 2.37849
501 1 9.59901 40.7263 0.647973
555 2 8.16925 44.8088 2.35676
502 1 9.75712 40.702 3.40501
4096 2 8.02814 42.1181 5.06434
503 1 9.622 43.3814 3.83912
504 1 12.495 43.5904 3.67031
565 1 12.3103 43.6586 0.745146
561 1 9.71458 43.4855 0.88445
4101 1 9.62996 40.4717 6.31229
4103 1 9.54947 43.4201 6.55734
3902 2 -0.434998 24.9181 7.97118
7501 2 -0.0495629 22.0785 10.618
7459 1 3.63776 20.8139 9.15598
7513 2 5.22006 22.3063 10.5813
7505 1 1.00609 23.6775 11.7455
3906 1 1.10703 23.303 8.96153
7447 1 3.63818 20.7538 11.9975
3914 2 5.1515 25.1337 7.94637
7509 1 3.7092 23.6089 12.0846
3903 2 2.39503 22.0155 7.81018
3910 1 3.8423 23.7549 9.27657
7504 2 2.53622 25.1601 10.7087
3852 1 0.798289 20.6108 9.27618
3848 1 0.877848 20.739 12.1605
7451 1 6.58411 20.5771 11.8808
7511 1 4.00225 26.5604 11.9874
7507 1 1.18315 26.457 12.0229
3912 1 3.79905 26.581 9.09781
7517 1 6.43583 23.669 11.855
7694 2 5.08696 42.1597 13.6509
3917 1 6.83216 23.6529 6.55916
3921 1 9.5616 23.659 6.44589
3871 1 12.31 20.7461 6.52135
3923 1 9.47909 26.4229 6.61248
3919 1 6.60485 26.4855 6.63581
7515 1 6.73941 21.0114 9.14696
3918 1 6.74773 23.8626 9.32506
3920 1 6.71853 26.5129 9.5249
7463 1 9.80749 20.6182 11.9352
7525 2 10.9945 22.2865 10.92
3930 1 12.2004 23.628 9.3148
7471 1 12.7654 21.3367 11.8762
3926 2 10.8667 25.1723 7.85884
3872 1 12.2764 20.743 9.40044
7521 1 10.1436 24.0348 11.9723
3915 2 8.04794 22.507 8.00098
3922 1 9.62007 23.8875 9.04152
7516 2 8.09796 25.0935 10.8841
3864 1 9.4388 21.1171 9.26895
7529 1 12.9037 24.1311 12.7272
7523 1 9.39746 26.4676 12.1636
7531 1 12.0568 26.7011 12.3711
3932 1 12.3102 26.6368 9.39039
7683 2 2.43788 39.2173 13.6234
3969 1 3.88504 29.3413 6.48476
484 2 2.55465 42.2754 -0.551973
3908 1 1.13789 26.1377 9.26683
7573 2 5.13292 27.9461 10.5067
3963 2 2.42934 27.8198 7.78879
7565 1 1.35879 29.0922 11.8729
3966 1 0.813875 29.0678 9.2253
7567 1 0.94576 32.0265 9.16512
3974 2 5.19439 30.5728 7.93774
7569 1 4.02138 29.367 12.1177
3970 1 3.70893 29.3537 9.1578
7564 2 2.26963 30.7166 10.6848
7571 1 3.98241 32.1845 12.0485
3972 1 3.85353 32.0894 9.17966
7625 1 1.04224 32.1743 11.9875
4161 1 9.55723 46.1153 6.49936
7701 1 9.55992 40.8253 12.1032
3983 1 9.47886 32.0185 6.93757
3977 1 6.70574 29.1513 6.50926
7574 2 5.40327 31.0916 13.3424
7519 1 6.57103 26.6097 12.1736
3924 1 9.66342 26.5612 9.36102
7579 1 6.77801 32.4223 12.0804
3978 1 6.44547 29.241 9.15287
3980 1 6.74319 32.0523 9.2637
7577 1 6.87252 29.558 12.2274
7585 2 10.7912 28.0947 10.7671