LAMMPS (29 Oct 2020)
OMP_NUM_THREADS environment is not set. Defaulting to 1 thread. (../comm.cpp:94)
  using 1 OpenMP thread(s) per MPI task
OMP_NUM_THREADS environment is not set. Defaulting to 1 thread. (../comm.cpp:94)
  using 1 OpenMP thread(s) per MPI task
Reading data file ...
  triclinic box = (0.0000000 0.0000000 0.0000000) to (27.894000 334.72800 27.894000) with tilt (0.0000000 0.0000000 0.0000000)
  2 by 13 by 2 MPI processor grid
  reading atoms ...
  24000 atoms
  reading velocities ...
  24000 velocities
Finding 1-2 1-3 1-4 neighbors ...
  special bond factors lj:    0.0      0.0      0.0     
  special bond factors coul:  0.0      0.0      0.0     
     0 = max # of 1-2 neighbors
     0 = max # of 1-3 neighbors
     0 = max # of 1-4 neighbors
     1 = max # of special neighbors
  special bonds CPU = 0.003 seconds
  read_data CPU = 0.071 seconds
180 atoms in group vac_O
180 atoms in group oct_O
3000 atoms in group tot_oct_Th
3000 atoms in group tot_oct_O
2820 atoms in group delete_oct_O
WARNING: Ignoring 'compress yes' for molecular system (../delete_atoms.cpp:125)
Deleted 180 atoms, new total = 23820
WARNING: Ignoring 'compress yes' for molecular system (../delete_atoms.cpp:125)
Deleted 3000 atoms, new total = 20820
WARNING: Ignoring 'compress yes' for molecular system (../delete_atoms.cpp:125)
Deleted 2820 atoms, new total = 18000
Setting atom values ...
  11820 settings made for charge
Setting atom values ...
  6000 settings made for charge
Setting atom values ...
  180 settings made for charge
Setting atom values ...
  0 settings made for charge
PPPM initialization ...
  using 12-bit tables for long-range coulomb (../kspace.cpp:328)
  G vector (1/distance) = 0.29916851
  grid = 40 240 40
  stencil order = 5
  estimated absolute RMS force accuracy = 0.00015502622
  estimated relative force accuracy = 1.0765975e-05
  using single precision MKL FFT
  3d grid and FFT values/proc = 18225 7600
Neighbor list info ...
  update every 1 steps, delay 0 steps, check yes
  max neighbors/atom: 2000, page size: 100000
  master list distance cutoff = 13
  ghost atom cutoff = 13
  binsize = 6.5, bins = 5 52 5
  2 neighbor lists, perpetual/occasional/extra = 2 0 0
  (1) pair coul/long, perpetual
      attributes: half, newton on
      pair build: half/bin/newton/tri
      stencil: half/bin/3d/newton/tri
      bin: standard
  (2) pair eam/alloy, perpetual, copy from (1)
      attributes: half, newton on
      pair build: copy
      stencil: none
      bin: none
Setting up cg style minimization ...
  Unit style    : metal
  Current step  : 0
WARNING: Energy due to 3 extra global DOFs will be included in minimizer energies
Per MPI rank memory allocation (min/avg/max) = 10.44 | 10.47 | 10.50 Mbytes
Step Temp E_pair E_mol TotEng Press Volume 
       0            0   -147274.82            0   -147274.82    189659.98    260443.57 
    8806            0   -226551.19            0   -226551.19    6767.8997    291915.46 
Loop time of 124.612 on 52 procs for 8806 steps with 18000 atoms

99.8% CPU use with 52 MPI tasks x 1 OpenMP threads

Minimization stats:
  Stopping criterion = max force evaluations
  Energy initial, next-to-last, final = 
     -147274.824474788  -226546.389477518   -226551.19399461
  Force two-norm initial, final = 148609.47 2454.9159
  Force max component initial, final = 88398.680 1759.2021
  Final line search alpha, max atom move = 9.0029585e-07 0.0015838023
  Iterations, force evaluations = 8806 10000

MPI task timing breakdown:
Section |  min time  |  avg time  |  max time  |%varavg| %total
---------------------------------------------------------------
Pair    | 59.023     | 66.48      | 81.715     |  71.7 | 53.35
Bond    | 0.00075615 | 0.0012655  | 0.0019255  |   0.7 |  0.00
Kspace  | 16.045     | 31.386     | 38.891     | 104.5 | 25.19
Neigh   | 0.33235    | 0.38052    | 0.49318    |   4.7 |  0.31
Comm    | 1.3361     | 1.3921     | 1.473      |   2.7 |  1.12
Output  | 0          | 0          | 0          |   0.0 |  0.00
Modify  | 0          | 0          | 0          |   0.0 |  0.00
Other   |            | 24.97      |            |       | 20.04

Nlocal:        346.154 ave         445 max         298 min
Histogram: 6 8 7 17 6 5 1 1 0 1
Nghost:        4672.90 ave        5161 max        4481 min
Histogram: 7 14 13 9 2 3 2 0 1 1
Neighs:        96607.4 ave      135339 max       83434 min
Histogram: 10 10 18 7 4 1 1 0 0 1

Total # of neighbors = 5023585
Ave neighs/atom = 279.08806
Ave special neighs/atom = 0.0000000
Neighbor list builds = 100
Dangerous builds = 0
Resetting atom IDs ...
PPPM initialization ...
  using 12-bit tables for long-range coulomb (../kspace.cpp:328)
  G vector (1/distance) = 0.30035812
  grid = 45 240 45
  stencil order = 5
  estimated absolute RMS force accuracy = 0.00013044988
  estimated relative force accuracy = 9.0592428e-06
  using single precision MKL FFT
  3d grid and FFT values/proc = 23250 10260
Finding 1-2 1-3 1-4 neighbors ...
  special bond factors lj:    0.0      0.0      0.0     
  special bond factors coul:  0.0      0.0      0.0     
     0 = max # of 1-2 neighbors
     0 = max # of 1-3 neighbors
     0 = max # of 1-4 neighbors
     1 = max # of special neighbors
  special bonds CPU = 0.001 seconds
PPPM initialization ...
  using 12-bit tables for long-range coulomb (../kspace.cpp:328)
  G vector (1/distance) = 0.30035812
  grid = 45 240 45
  stencil order = 5
  estimated absolute RMS force accuracy = 0.00013044988
  estimated relative force accuracy = 9.0592428e-06
  using single precision MKL FFT
  3d grid and FFT values/proc = 23250 10260
Setting up Verlet run ...
  Unit style    : metal
  Current step  : 0
  Time step     : 0.001
Per MPI rank memory allocation (min/avg/max) = 10.86 | 10.93 | 11.01 Mbytes
Step Temp KinEng PotEng Press 
       0          600     1395.932   -226551.21    11875.463 
  100000    595.06503    1384.4505   -235323.94   -893.90766 
Loop time of 967.067 on 52 procs for 100000 steps with 18000 atoms

Performance: 8.934 ns/day, 2.686 hours/ns, 103.405 timesteps/s
99.8% CPU use with 52 MPI tasks x 1 OpenMP threads

MPI task timing breakdown:
Section |  min time  |  avg time  |  max time  |%varavg| %total
---------------------------------------------------------------
Pair    | 557.77     | 569.35     | 579.55     |  18.1 | 58.87
Bond    | 0.01094    | 0.015412   | 0.021408   |   1.8 |  0.00
Kspace  | 204.57     | 214.49     | 226.6      |  29.8 | 22.18
Neigh   | 2.5804     | 2.7426     | 2.8678     |   3.3 |  0.28
Comm    | 17.98      | 18.674     | 19.712     |  10.1 |  1.93
Output  | 0.0059526  | 0.005957   | 0.0061217  |   0.0 |  0.00
Modify  | 136        | 144.67     | 157.17     |  46.9 | 14.96
Other   |            | 17.12      |            |       |  1.77

Nlocal:        346.154 ave         370 max         329 min
Histogram: 4 6 11 6 6 4 10 1 2 2
Nghost:        5629.38 ave        5705 max        5535 min
Histogram: 10 7 3 0 4 0 0 1 13 14
Neighs:       110845.0 ave      119442 max      105375 min
Histogram: 4 10 7 7 7 6 8 1 0 2

Total # of neighbors = 5763948
Ave neighs/atom = 320.21933
Ave special neighs/atom = 0.0000000
Neighbor list builds = 657
Dangerous builds = 0
System init for write_data ...
PPPM initialization ...
  using 12-bit tables for long-range coulomb (../kspace.cpp:328)
  G vector (1/distance) = 0.29882385
  grid = 40 240 40
  stencil order = 5
  estimated absolute RMS force accuracy = 0.00015780591
  estimated relative force accuracy = 1.0959014e-05
  using single precision MKL FFT
  3d grid and FFT values/proc = 18225 7600
Total wall time: 0:18:12
