LAMMPS (29 Oct 2020)
OMP_NUM_THREADS environment is not set. Defaulting to 1 thread. (../comm.cpp:94)
  using 1 OpenMP thread(s) per MPI task
#-------------------------------
#
#This input script is used to simulate the defected configuration generated by overlapping cascades initiated at
#different energies
#Ziqiang Wang on 01/24/2022
#
#-------------------------------

clear
OMP_NUM_THREADS environment is not set. Defaulting to 1 thread. (../comm.cpp:94)
  using 1 OpenMP thread(s) per MPI task
units                    metal
dimension                    3
boundary                 p p p
atom_style               full
atom_modify              map  array

read_data               perfect_relaxed.dat
Reading data file ...
  triclinic box = (0.0000000 0.0000000 0.0000000) to (27.894000 334.72800 27.894000) with tilt (0.0000000 0.0000000 0.0000000)
  2 by 13 by 2 MPI processor grid
  reading atoms ...
  24000 atoms
  reading velocities ...
  24000 velocities
Finding 1-2 1-3 1-4 neighbors ...
  special bond factors lj:    0.0      0.0      0.0     
  special bond factors coul:  0.0      0.0      0.0     
     0 = max # of 1-2 neighbors
     0 = max # of 1-3 neighbors
     0 = max # of 1-4 neighbors
     1 = max # of special neighbors
  special bonds CPU = 0.003 seconds
  read_data CPU = 0.071 seconds

variable                ratio    equal   0.005

group                   vac_O    id      9177 15948 13753 13704 13785  9875 13138 16565 16815  7095 15345 17202                                          9340 13180 10221  6535 16290 14298  6564 14834 17164  9499 10896  9312                                          11177  8876 12935 17922  8318 14382 14949 11114 10819 17074 14107 14032                                          12547 11223  8983  6867 10419 17329 10568 16510 17952 10865  9795 10743                                          15346  6576 11060 15990 17700 10938 12749 10511 12756 13402 15446 10080                                          17698 16726  8338  8212 15273 12498  9052  8810  7525 12149 14986 13203                                          9056 10840  6492 12627 16843 13681 16414 13886 11490  7540  9119  8829                                          13905  7663  9165 11743 15530 17608 14573  9771 15709 17477 13989 13762                                          17858 13311 10329  6865 10973  7306  7197 14460 14230 13324  9272  8631                                          16803 17847 15410  9329 14399 11570  9755 13487 16631 13657  8300  7991                                          7072  6504 10647 13049  8647 10161  6510 14841  6868 14091 14265  7634                                          10116 15733  9958 12108 16364 10542  7985 11681 14307 14118 12986 15293                                          6508 16937 11804 15510 13661 10528  9431 11919 15250 17806  9726  7520                                          16111 13080 10587 14296 11243 11295 11705 10379  8954  8284 17213 14398                                          9735 10253  7717 16895 13576 13711 16476 10406  7969 16855 16717 14146
180 atoms in group vac_O

group                   oct_O    id     18001 18002 18005 18006 18009 18011 18012 18015 18016 18019 18021 18022                                         18025 18026 18029 18031 18032 18035 18036 18039 18041 18042 18045 18046                                         18051 18052 18055 18056 18059 18061 18062 18065 18066 18069 18071 18072                                         18075 18076 18079 18081 18082 18085 18086 18089 18091 18092 18101 18102                                         18103 18104 18105 18106 18107 18108 18109 18110 18111 18112 18113 18114                                         18115 18116 18117 18118 18119 18120 18121 18122 18123 18151 18152 18155                                         18156 18159 18161 18162 18165 18166 18169 18171 18172 18175 18176 18179                                         18181 18182 18185 18186 18189 18191 18192 18195 18196 18199 18201 18202                                         18205 18206 18209 18211 18212 18215 18216 18219 18221 18222 18225 18226                                         18229 18231 18232 18235 18236 18239 18241 18242 18245 18246 18249 18251                                         18252 18386 18387 18390 18391 18396 18410 18414 18431 18432 18435 18436                                         18439 18445 18449 18482 18486 18489 18491 18492 18495 18496 18501 18502                                         18506 18511 18512 18515 18527 18536 18537 18547 18566 18569 18570 18572                                         18575 18627 18672 18681 18682 18685 18689 18701 18702 18712 18722 18731                                         18732 18736 18741 18743 18777 18786 18807 18882 18926 18928 18931 18932
180 atoms in group oct_O

group                   tot_oct_Th   type   4
3000 atoms in group tot_oct_Th
group                   tot_oct_O    type   3
3000 atoms in group tot_oct_O

group                   delete_oct_O    subtract   tot_oct_O   oct_O
2820 atoms in group delete_oct_O


delete_atoms            group  vac_O
WARNING: Ignoring 'compress yes' for molecular system (../delete_atoms.cpp:125)
Deleted 180 atoms, new total = 23820
delete_atoms            group  tot_oct_Th
WARNING: Ignoring 'compress yes' for molecular system (../delete_atoms.cpp:125)
Deleted 3000 atoms, new total = 20820
delete_atoms            group  delete_oct_O
WARNING: Ignoring 'compress yes' for molecular system (../delete_atoms.cpp:125)
Deleted 2820 atoms, new total = 18000

kspace_style                   pppm            1.0e-5
pair_style                     hybrid/overlay     coul/long    11.0   eam/alloy
pair_coeff                     * * coul/long
pair_coeff                     * * eam/alloy CeThUNpPuAmCmO.eam.alloy O Th O Th
neighbor                 2.0  bin
neigh_modify             delay  0  every  1  check   yes

set                      type      1      charge    -1.1104
Setting atom values ...
  11820 settings made for charge
set                      type      2      charge     2.2208
Setting atom values ...
  6000 settings made for charge
set                      type      3      charge    -1.1104
Setting atom values ...
  180 settings made for charge
set                      type      4      charge     2.2208
Setting atom values ...
  0 settings made for charge

# Minimize the defected configuration at 0K
min_style                cg
fix                      relax   all  box/relax  aniso 0.0 vmax 0.001
minimize                 1.0e-30 1.0e-30 10000 10000
PPPM initialization ...
  using 12-bit tables for long-range coulomb (../kspace.cpp:328)
  G vector (1/distance) = 0.29916851
  grid = 40 240 40
  stencil order = 5
  estimated absolute RMS force accuracy = 0.00015502622
  estimated relative force accuracy = 1.0765975e-05
  using single precision MKL FFT
  3d grid and FFT values/proc = 18225 7600
Neighbor list info ...
  update every 1 steps, delay 0 steps, check yes
  max neighbors/atom: 2000, page size: 100000
  master list distance cutoff = 13
  ghost atom cutoff = 13
  binsize = 6.5, bins = 5 52 5
  2 neighbor lists, perpetual/occasional/extra = 2 0 0
  (1) pair coul/long, perpetual
      attributes: half, newton on
      pair build: half/bin/newton/tri
      stencil: half/bin/3d/newton/tri
      bin: standard
  (2) pair eam/alloy, perpetual, copy from (1)
      attributes: half, newton on
      pair build: copy
      stencil: none
      bin: none
Per MPI rank memory allocation (min/avg/max) = 10.44 | 10.47 | 10.50 Mbytes
Step Temp E_pair E_mol TotEng Press Volume 
       0            0   -147274.82            0   -147274.82    189659.98    260443.57 
    8806            0   -226551.19            0   -226551.19    6767.8997    291915.46 
Loop time of 124.612 on 52 procs for 8806 steps with 18000 atoms

99.8% CPU use with 52 MPI tasks x 1 OpenMP threads

Minimization stats:
  Stopping criterion = max force evaluations
  Energy initial, next-to-last, final = 
     -147274.824474788  -226546.389477518   -226551.19399461
  Force two-norm initial, final = 148609.47 2454.9159
  Force max component initial, final = 88398.680 1759.2021
  Final line search alpha, max atom move = 9.0029585e-07 0.0015838023
  Iterations, force evaluations = 8806 10000

MPI task timing breakdown:
Section |  min time  |  avg time  |  max time  |%varavg| %total
---------------------------------------------------------------
Pair    | 59.023     | 66.48      | 81.715     |  71.7 | 53.35
Bond    | 0.00075615 | 0.0012655  | 0.0019255  |   0.7 |  0.00
Kspace  | 16.045     | 31.386     | 38.891     | 104.5 | 25.19
Neigh   | 0.33235    | 0.38052    | 0.49318    |   4.7 |  0.31
Comm    | 1.3361     | 1.3921     | 1.473      |   2.7 |  1.12
Output  | 0          | 0          | 0          |   0.0 |  0.00
Modify  | 0          | 0          | 0          |   0.0 |  0.00
Other   |            | 24.97      |            |       | 20.04

Nlocal:        346.154 ave         445 max         298 min
Histogram: 6 8 7 17 6 5 1 1 0 1
Nghost:        4672.90 ave        5161 max        4481 min
Histogram: 7 14 13 9 2 3 2 0 1 1
Neighs:        96607.4 ave      135339 max       83434 min
Histogram: 10 10 18 7 4 1 1 0 0 1

Total # of neighbors = 5023585
Ave neighs/atom = 279.08806
Ave special neighs/atom = 0.0000000
Neighbor list builds = 100
Dangerous builds = 0
unfix                    relax
reset_timestep           0

# Apply the temperature to the system and relax the configurations
reset_atom_ids
Resetting atom IDs ...
PPPM initialization ...
  using 12-bit tables for long-range coulomb (../kspace.cpp:328)
  G vector (1/distance) = 0.30035812
  grid = 45 240 45
  stencil order = 5
  estimated absolute RMS force accuracy = 0.00013044988
  estimated relative force accuracy = 9.0592428e-06
  using single precision MKL FFT
  3d grid and FFT values/proc = 23250 10260
Finding 1-2 1-3 1-4 neighbors ...
  special bond factors lj:    0.0      0.0      0.0     
  special bond factors coul:  0.0      0.0      0.0     
     0 = max # of 1-2 neighbors
     0 = max # of 1-3 neighbors
     0 = max # of 1-4 neighbors
     1 = max # of special neighbors
  special bonds CPU = 0.001 seconds
variable                 temp   index  600
velocity                 all  create  ${temp}  4526826  rot  yes  mom  yes  dist  gaussian
velocity                 all  create  600  4526826  rot  yes  mom  yes  dist  gaussian
fix                      npt  all  npt  temp  ${temp}  ${temp}  $(100*dt)  aniso  0.0  0.0  $(1000*dt)
fix                      npt  all  npt  temp  600  ${temp}  $(100*dt)  aniso  0.0  0.0  $(1000*dt)
fix                      npt  all  npt  temp  600  600  $(100*dt)  aniso  0.0  0.0  $(1000*dt)
fix                      npt  all  npt  temp  600  600  0.10000000000000000555  aniso  0.0  0.0  $(1000*dt)
fix                      npt  all  npt  temp  600  600  0.10000000000000000555  aniso  0.0  0.0  1
timestep                 0.001
thermo                   100000
thermo_style             custom  step  temp  ke  pe  press

shell                    mkdir   Frenkel_${ratio}_relax
shell                    mkdir   Frenkel_0.005_relax
dump                     1  all  custom  100000  ./Frenkel_${ratio}_relax/dump_relax.atom.*  id type q mass x y z
dump                     1  all  custom  100000  ./Frenkel_0.005_relax/dump_relax.atom.*  id type q mass x y z
dump_modify              1  element  O Th O Th

run                      100000
PPPM initialization ...
  using 12-bit tables for long-range coulomb (../kspace.cpp:328)
  G vector (1/distance) = 0.30035812
  grid = 45 240 45
  stencil order = 5
  estimated absolute RMS force accuracy = 0.00013044988
  estimated relative force accuracy = 9.0592428e-06
  using single precision MKL FFT
  3d grid and FFT values/proc = 23250 10260
Per MPI rank memory allocation (min/avg/max) = 10.86 | 10.93 | 11.01 Mbytes
Step Temp KinEng PotEng Press 
       0          600     1395.932   -226551.21    11875.463 
  100000    595.06503    1384.4505   -235323.94   -893.90766 
Loop time of 967.067 on 52 procs for 100000 steps with 18000 atoms

Performance: 8.934 ns/day, 2.686 hours/ns, 103.405 timesteps/s
99.8% CPU use with 52 MPI tasks x 1 OpenMP threads

MPI task timing breakdown:
Section |  min time  |  avg time  |  max time  |%varavg| %total
---------------------------------------------------------------
Pair    | 557.77     | 569.35     | 579.55     |  18.1 | 58.87
Bond    | 0.01094    | 0.015412   | 0.021408   |   1.8 |  0.00
Kspace  | 204.57     | 214.49     | 226.6      |  29.8 | 22.18
Neigh   | 2.5804     | 2.7426     | 2.8678     |   3.3 |  0.28
Comm    | 17.98      | 18.674     | 19.712     |  10.1 |  1.93
Output  | 0.0059526  | 0.005957   | 0.0061217  |   0.0 |  0.00
Modify  | 136        | 144.67     | 157.17     |  46.9 | 14.96
Other   |            | 17.12      |            |       |  1.77

Nlocal:        346.154 ave         370 max         329 min
Histogram: 4 6 11 6 6 4 10 1 2 2
Nghost:        5629.38 ave        5705 max        5535 min
Histogram: 10 7 3 0 4 0 0 1 13 14
Neighs:       110845.0 ave      119442 max      105375 min
Histogram: 4 10 7 7 7 6 8 1 0 2

Total # of neighbors = 5763948
Ave neighs/atom = 320.21933
Ave special neighs/atom = 0.0000000
Neighbor list builds = 657
Dangerous builds = 0
shell                    mkdir  thermal_condu
write_data               ./thermal_condu/Frenkel_${ratio}_relaxed.dat
write_data               ./thermal_condu/Frenkel_0.005_relaxed.dat
System init for write_data ...
PPPM initialization ...
  using 12-bit tables for long-range coulomb (../kspace.cpp:328)
  G vector (1/distance) = 0.29882385
  grid = 40 240 40
  stencil order = 5
  estimated absolute RMS force accuracy = 0.00015780591
  estimated relative force accuracy = 1.0959014e-05
  using single precision MKL FFT
  3d grid and FFT values/proc = 18225 7600

Total wall time: 0:18:12
