LAMMPS (29 Oct 2020)
OMP_NUM_THREADS environment is not set. Defaulting to 1 thread. (../comm.cpp:94)
  using 1 OpenMP thread(s) per MPI task
#---------------------------------------
#
# This script is used to calculate the thermal conuctivity of UO2 using Muller-Plathe method
# By Ziqiang Wang on 03/18/2022 on Jilin university
#
#---------------------------------------

variable     Nevery    equal   50
variable     T         equal   600

clear
OMP_NUM_THREADS environment is not set. Defaulting to 1 thread. (../comm.cpp:94)
  using 1 OpenMP thread(s) per MPI task
units          metal
boundary       p p p
atom_style     full

read_data vac_0.02_relaxed.dat
Reading data file ...
  orthogonal box = (-0.05054175 -0.80392176 -0.060917308) to (27.390542 328.88392 27.400917)
  2 by 13 by 2 MPI processor grid
  reading atoms ...
  17640 atoms
  reading velocities ...
  17640 velocities
Finding 1-2 1-3 1-4 neighbors ...
  special bond factors lj:    0.0      0.0      0.0     
  special bond factors coul:  0.0      0.0      0.0     
     0 = max # of 1-2 neighbors
     0 = max # of 1-3 neighbors
     0 = max # of 1-4 neighbors
     1 = max # of special neighbors
  special bonds CPU = 0.004 seconds
  read_data CPU = 0.085 seconds

set           type     1    charge     -1.1104
Setting atom values ...
  11760 settings made for charge
set           type     2    charge      2.2208
Setting atom values ...
  5880 settings made for charge

kspace_style    pppm   1.0e-05
pair_style      hybrid/overlay  coul/long  11.0  eam/alloy
pair_coeff      * * coul/long
pair_coeff      * * eam/alloy CeThUNpPuAmCmO.eam.alloy O U
newton          on
neighbor        0.3 bin
neigh_modify    delay 0 check yes every 1

#The first equilation
velocity        all create $T 10005 mom yes rot yes dist gaussian
velocity        all create 600 10005 mom yes rot yes dist gaussian
fix             nvt  all  nvt  temp  $T $T  0.1
fix             nvt  all  nvt  temp  600 $T  0.1
fix             nvt  all  nvt  temp  600 600  0.1

run             100000
PPPM initialization ...
  using 12-bit tables for long-range coulomb (../kspace.cpp:328)
  G vector (1/distance) = 0.29998308
  grid = 40 240 40
  stencil order = 5
  estimated absolute RMS force accuracy = 0.00014701599
  estimated relative force accuracy = 1.0209696e-05
  using single precision MKL FFT
  3d grid and FFT values/proc = 15000 7600
Neighbor list info ...
  update every 1 steps, delay 0 steps, check yes
  max neighbors/atom: 2000, page size: 100000
  master list distance cutoff = 11.3
  ghost atom cutoff = 11.3
  binsize = 5.65, bins = 5 59 5
  2 neighbor lists, perpetual/occasional/extra = 2 0 0
  (1) pair coul/long, perpetual
      attributes: half, newton on
      pair build: half/bin/newton
      stencil: half/bin/3d/newton
      bin: standard
  (2) pair eam/alloy, perpetual, copy from (1)
      attributes: half, newton on
      pair build: copy
      stencil: none
      bin: none
Per MPI rank memory allocation (min/avg/max) = 8.163 | 8.189 | 8.210 Mbytes
Step Temp E_pair E_mol TotEng Press 
       0          600   -237224.41            0   -235856.39   -1268.6761 
  100000    595.88021   -237215.06            0   -235856.44   -1359.2411 
Loop time of 640.145 on 52 procs for 100000 steps with 17640 atoms

Performance: 13.497 ns/day, 1.778 hours/ns, 156.215 timesteps/s
99.8% CPU use with 52 MPI tasks x 1 OpenMP threads

MPI task timing breakdown:
Section |  min time  |  avg time  |  max time  |%varavg| %total
---------------------------------------------------------------
Pair    | 416.57     | 433.42     | 452.95     |  36.8 | 67.71
Bond    | 0.0066319  | 0.010271   | 0.013573   |   1.6 |  0.00
Kspace  | 130.63     | 151.94     | 169.82     |  67.9 | 23.73
Neigh   | 31.853     | 34.768     | 37.895     |  19.7 |  5.43
Comm    | 14.512     | 15.423     | 17.178     |  18.7 |  2.41
Output  | 5.8277e-05 | 6.3896e-05 | 0.00027504 |   0.0 |  0.00
Modify  | 1.9149     | 3.2076     | 4.8618     |  58.1 |  0.50
Other   |            | 1.377      |            |       |  0.22

Nlocal:        339.231 ave         364 max         319 min
Histogram: 4 5 7 6 11 7 4 2 2 4
Nghost:        4223.65 ave        4337 max        4124 min
Histogram: 6 3 1 11 10 3 8 5 3 2
Neighs:        71356.1 ave       77717 max       65885 min
Histogram: 2 5 9 7 7 6 8 2 1 5

Total # of neighbors = 3710518
Ave neighs/atom = 210.34683
Ave special neighs/atom = 0.0000000
Neighbor list builds = 16202
Dangerous builds = 0
unfix           nvt
reset_timestep  0

# the second run
fix             1 all nve

group           oxygen type 1
11760 atoms in group oxygen
fix             2 oxygen thermal/conductivity ${Nevery} y 20
fix             2 oxygen thermal/conductivity 50 y 20

compute         ke all ke/atom
variable        temp atom c_ke/1.5
compute         layers all chunk/atom bin/1d y lower 0.05 units reduced
fix             3      all ave/chunk  2000 50 100000 layers v_temp file profile_${T}K.mp
fix             3      all ave/chunk  2000 50 100000 layers v_temp file profile_600K.mp

variable        Tdiff    equal     f_3[11][3]-f_3[1][3]
variable        deltaT   equal     v_Tdiff*1.5/0.0001292

timestep        0.001
thermo_style    custom step f_2 temp v_Tdiff v_deltaT
thermo          100000

run             1000000
PPPM initialization ...
  using 12-bit tables for long-range coulomb (../kspace.cpp:328)
  G vector (1/distance) = 0.29998308
  grid = 40 240 40
  stencil order = 5
  estimated absolute RMS force accuracy = 0.00014701599
  estimated relative force accuracy = 1.0209696e-05
  using single precision MKL FFT
  3d grid and FFT values/proc = 15000 7600
Per MPI rank memory allocation (min/avg/max) = 8.414 | 8.439 | 8.460 Mbytes
Step f_2 Temp v_Tdiff v_deltaT 
       0            0    595.88021            0            0 
  100000    659.25702    599.19676  0.021743728    252.44266 
  200000    1292.5816    597.82708   0.02515969    292.10167 
  300000    1926.4641    602.14392  0.026508585     307.7622 
  400000    2562.3574    606.33286  0.025733988     298.7692 
  500000    3198.9754    599.82533  0.026266432    304.95083 
  600000    3839.9005     602.3752  0.025681043    298.15452 
  700000    4482.3465     605.4803  0.025331307    294.09413 
  800000    5121.9509    608.14534  0.025327706    294.05231 
  900000    5758.5451    604.35763  0.025912727    300.84435 
 1000000    6396.9698    606.17186  0.025929264    301.03634 
Loop time of 6425.48 on 52 procs for 1000000 steps with 17640 atoms

Performance: 13.446 ns/day, 1.785 hours/ns, 155.631 timesteps/s
99.8% CPU use with 52 MPI tasks x 1 OpenMP threads

MPI task timing breakdown:
Section |  min time  |  avg time  |  max time  |%varavg| %total
---------------------------------------------------------------
Pair    | 4183.2     | 4337.3     | 4551.3     | 119.8 | 67.50
Bond    | 0.070831   | 0.10122    | 0.1408     |   5.6 |  0.00
Kspace  | 1303.3     | 1535.1     | 1702.6     | 216.7 | 23.89
Neigh   | 328.82     | 361.09     | 392.58     |  64.9 |  5.62
Comm    | 145.63     | 155.41     | 177.83     |  61.4 |  2.42
Output  | 0.001083   | 0.0011591  | 0.0024018  |   0.5 |  0.00
Modify  | 5.5829     | 6.0007     | 6.518      |  10.7 |  0.09
Other   |            | 30.49      |            |       |  0.47

Nlocal:        339.231 ave         364 max         318 min
Histogram: 1 3 10 9 6 9 5 6 0 3
Nghost:        4227.44 ave        4340 max        4131 min
Histogram: 3 6 6 9 4 6 8 6 2 2
Neighs:        71348.6 ave       78087 max       65916 min
Histogram: 1 8 4 10 8 10 5 3 1 2

Total # of neighbors = 3710125
Ave neighs/atom = 210.32455
Ave special neighs/atom = 0.0000000
Neighbor list builds = 168029
Dangerous builds = 0

Total wall time: 1:57:46
