ITEM: TIMESTEP
90000
ITEM: NUMBER OF ATOMS
17910
ITEM: BOX BOUNDS pp pp pp
-4.0384594539757029e-01 2.7743845945397712e+01
-4.7469371559830806e+00 3.3282693715597298e+02
-3.9920741098693957e-01 2.7739207410987660e+01
ITEM: ATOMS id type q x y z
1 2 2.2208 5.04469 1.0194 5.29312
2 1 -1.1104 0.527527 -3.21947 0.875143
3 1 -1.1104 0.826169 2.3754 1.2315
6 1 -1.1104 0.706159 -3.24573 3.73849
7 1 -1.1104 0.851352 2.36881 3.91637
10 1 -1.1104 0.779838 -0.493402 0.850018
12 2 2.2208 5.02354 -1.81754 2.35581
14 1 -1.1104 0.962487 -0.248523 3.93852
16 1 -1.1104 3.56919 -3.19328 0.872229
17 1 -1.1104 3.59082 2.54667 1.0725
18 2 2.2208 2.25697 1.01883 2.48439
19 1 -1.1104 3.44035 -3.13691 3.70013
20 1 -1.1104 3.7171 2.42248 4.006
21 2 2.2208 2.02607 -1.90608 5.2357
23 1 -1.1104 3.51795 -0.389726 1.03758
24 1 -1.1104 3.65217 -0.368128 4.04154
13 2 2.2208 4.92809 3.76744 2.47955
166 1 -1.1104 0.547728 -3.32462 6.52589
22 2 2.2208 2.15009 3.68681 5.35237
172 1 -1.1104 3.55968 -3.24619 6.62231
167 1 -1.1104 0.859643 2.23393 6.63833
8 1 -1.1104 6.17085 -3.234 3.763
5 1 -1.1104 6.50976 2.05897 0.827932
4 1 -1.1104 6.55991 -3.41269 1.16329
15 1 -1.1104 6.55854 -0.574585 3.80952
202 2 2.2208 1.88172 -4.68084 7.93194
8973 2 2.2208 13.4499 6.4786 7.90626
174 1 -1.1104 3.33227 -0.55269 6.7483
27 1 -1.1104 12.0785 19.3315 12.3197
9063 2 2.2208 13.4018 17.8078 7.99191
28 2 2.2208 2.14435 -4.57987 2.4175
9 1 -1.1104 6.42334 2.27746 3.76751
11 1 -1.1104 6.27641 -0.539241 1.13078
29 2 2.2208 4.8575 -4.72173 5.36817
31 2 2.2208 10.5362 0.973556 5.29511
32 1 -1.1104 12.1339 -3.01909 0.823207
33 1 -1.1104 12.1887 2.50201 1.12322
34 1 -1.1104 11.9419 -3.46458 3.79134
35 1 -1.1104 12.0461 2.35515 3.80944
36 1 -1.1104 12.0187 -0.291887 0.998474
37 2 2.2208 10.6517 -1.81461 2.44647
39 1 -1.1104 12.1684 -0.431113 3.89143
40 1 -1.1104 9.19133 -3.29609 0.943559
41 1 -1.1104 9.32132 2.31554 1.05621
42 2 2.2208 7.85281 0.835248 2.51816
43 1 -1.1104 9.0886 -3.32734 3.92967
44 1 -1.1104 9.22428 2.49543 3.85216
45 2 2.2208 7.91354 -2.02415 5.24082
47 1 -1.1104 9.27515 -0.28973 1.00295
48 1 -1.1104 9.43525 -0.428407 3.78252
38 2 2.2208 10.6683 3.82711 2.62199
46 2 2.2208 7.81258 3.79949 5.24675
207 1 -1.1104 12.0787 -0.436091 6.72716
9093 2 2.2208 -0.614142 20.5899 13.8206
9069 2 2.2208 13.3555 -4.84924 2.53894
231 2 2.2208 7.94634 -4.67167 8.27944
208 1 -1.1104 9.32396 -3.17032 6.75527
9067 2 2.2208 13.5148 0.905885 2.44375
51 2 2.2208 7.74171 -4.83867 2.39489
8762 2 2.2208 13.5162 3.59451 5.14122
135 1 -1.1104 9.34956 13.6018 9.48715
54 2 2.2208 5.06416 6.56954 5.32131
55 2 2.2208 5.08171 12.1276 5.20356
56 1 -1.1104 0.79576 7.8814 0.881854
58 1 -1.1104 0.811154 8.14045 3.74476
60 1 -1.1104 0.781872 5.0627 0.89766
61 1 -1.1104 0.83863 10.8291 0.962882
66 2 2.2208 5.15253 9.41615 2.26557
67 1 -1.1104 0.686872 5.24122 3.78835
68 1 -1.1104 0.748776 10.8764 3.70949
71 1 -1.1104 3.57218 7.93816 0.966811
72 2 2.2208 2.22185 6.517 2.49753
73 2 2.2208 2.31196 12.117 2.42314
74 1 -1.1104 3.64174 7.86498 4.0136
75 2 2.2208 2.25721 9.39732 5.29141
76 1 -1.1104 3.82442 5.19382 0.982559
77 1 -1.1104 3.74444 10.6423 0.952391
79 1 -1.1104 3.44079 5.11931 3.91245
80 1 -1.1104 3.72721 10.8306 3.79594
238 1 -1.1104 3.80633 8.05419 6.84017
64 1 -1.1104 6.56018 10.8571 1.07739
70 1 -1.1104 6.37471 10.7786 3.87331
57 1 -1.1104 6.4917 7.91265 1.12819
63 1 -1.1104 6.70645 4.7676 1.32437
69 1 -1.1104 6.25624 5.08822 3.98413
59 1 -1.1104 6.57195 8.09679 3.80496
8974 2 2.2208 13.5086 12.2932 8.02789
9074 2 2.2208 13.5429 6.53985 2.41219
9086 2 2.2208 13.4408 0.892662 8.0554
8839 2 2.2208 13.4609 20.7778 5.35042
9269 2 2.2208 13.4745 9.38572 -0.45715
8978 2 2.2208 13.3823 9.46305 10.6964
9491 2 2.2208 13.5329 3.73086 -0.396719
84 2 2.2208 10.6781 6.71668 5.18812
85 2 2.2208 10.7306 12.2018 5.16573
86 1 -1.1104 12.0135 8.07365 1.01546
87 1 -1.1104 11.9102 7.89074 3.77267
88 1 -1.1104 11.9959 5.2131 1.12522
89 1 -1.1104 12.0371 10.9715 1.00024
91 2 2.2208 10.6299 9.45736 2.34044
92 1 -1.1104 12.2727 5.12586 3.83406
93 1 -1.1104 11.9019 10.8661 3.79458
94 1 -1.1104 9.19821 7.97628 1.02485
95 2 2.2208 7.90933 6.63608 2.47504
96 2 2.2208 7.85263 12.2235 2.41982
97 1 -1.1104 9.30127 8.08208 3.97238
98 2 2.2208 7.85371 9.34871 5.22436
99 1 -1.1104 9.39163 5.19027 1.09149
100 1 -1.1104 9.4651 10.9511 0.915746
102 1 -1.1104 9.36838 5.17297 3.87664
103 1 -1.1104 9.15232 10.7958 3.69801
9078 2 2.2208 13.4927 17.9555 2.42098
9068 2 2.2208 13.4826 -1.89873 5.05933
450 2 2.2208 10.6872 9.46687 13.7694
233 1 -1.1104 6.54779 16.3898 12.1826
106 2 2.2208 5.02742 17.8786 5.11933
107 1 -1.1104 0.963606 13.5869 0.981414
109 1 -1.1104 1.02034 19.3013 0.936269
113 1 -1.1104 1.07542 13.5617 3.71935
114 1 -1.1104 0.969441 19.2038 3.81226
116 1 -1.1104 0.933921 16.6131 1.11498
119 2 2.2208 5.24461 15.1935 2.43854
120 2 2.2208 5.13005 20.723 2.3943
121 1 -1.1104 0.937359 16.4509 3.82622
123 1 -1.1104 3.54268 13.4326 1.10745
125 1 -1.1104 3.8587 19.3239 1.08465
127 2 2.2208 2.24809 17.8202 2.4014
128 1 -1.1104 3.90083 13.6016 3.93916
129 1 -1.1104 3.7983 19.2866 3.95206
130 2 2.2208 2.37801 14.9148 5.16913
131 2 2.2208 2.31996 20.6571 5.14805
132 1 -1.1104 3.67227 16.3548 1.19004
134 1 -1.1104 3.59899 16.3885 4.0616
139 1 -1.1104 6.59663 19.3291 3.83095
110 1 -1.1104 6.62435 13.8135 1.08791
9024 2 2.2208 13.4409 20.7498 10.8462
124 1 -1.1104 3.74438 13.6031 6.60713
8897 2 2.2208 13.5914 3.80134 10.7322
540 2 2.2208 4.83849 1.03641 -0.288431
115 1 -1.1104 6.54924 13.7523 3.73482
140 1 -1.1104 6.6041 16.7957 0.884757
138 1 -1.1104 6.48314 19.2868 1.04282
122 1 -1.1104 6.51118 16.6106 3.86644
141 2 2.2208 10.6646 17.8012 5.27127
142 1 -1.1104 12.0944 13.8115 1.09097
144 1 -1.1104 12.1553 19.3956 0.969755
146 1 -1.1104 12.0675 13.7555 3.7304
147 1 -1.1104 12.1946 19.3507 4.07635
148 1 -1.1104 12.1855 16.5468 0.848935
150 2 2.2208 10.7395 15.1261 2.38124
151 2 2.2208 10.9392 20.804 2.5425
152 1 -1.1104 12.1359 16.543 3.8883
153 1 -1.1104 9.23968 13.882 1.16767
155 1 -1.1104 9.26044 19.3435 0.931994
157 2 2.2208 7.94101 17.9199 2.42796
158 1 -1.1104 9.43173 13.6232 4.02417
159 1 -1.1104 9.44698 19.3536 3.94372
160 2 2.2208 7.84936 14.9698 5.20275
161 2 2.2208 7.79369 20.6781 5.27493
162 1 -1.1104 9.45464 16.4473 0.957201
164 1 -1.1104 9.26529 16.3895 3.94721
136 1 -1.1104 9.08807 19.2563 9.33369
8860 2 2.2208 13.3458 15.0123 5.14871
570 2 2.2208 10.6989 1.13823 -0.273137
9197 2 2.2208 13.5524 6.6915 13.7126
605 2 2.2208 5.04803 6.60674 -0.442648
9488 2 2.2208 13.3117 -1.66863 -0.509744
173 1 -1.1104 3.64971 2.09795 6.8097
171 1 -1.1104 6.2491 -0.438953 6.75455
168 1 -1.1104 6.4342 -3.26003 6.68124
199 1 -1.1104 9.47709 16.5388 12.2506
170 1 -1.1104 0.566473 -0.608477 6.70519
175 2 2.2208 5.05804 0.895804 10.8311
176 1 -1.1104 0.76126 -3.30547 12.1664
177 1 -1.1104 0.904185 2.32209 12.2566
180 1 -1.1104 0.559781 -3.19785 9.35903
181 1 -1.1104 0.829946 2.46254 9.48928
184 1 -1.1104 0.79724 -0.357858 12.1014
186 2 2.2208 4.90266 -1.78593 7.99939
188 1 -1.1104 0.564884 -0.593477 9.32944
190 1 -1.1104 3.27876 -3.13463 12.221
191 1 -1.1104 3.75083 2.51224 12.1891
192 2 2.2208 2.17277 0.86046 8.13428
193 1 -1.1104 3.49633 -3.12067 9.30828
194 1 -1.1104 3.53179 2.28799 9.36893
195 2 2.2208 2.16697 -1.93969 10.5714
197 1 -1.1104 3.6824 -0.38295 12.1887
198 1 -1.1104 3.67008 -0.510115 9.39396
196 2 2.2208 2.31555 3.73971 10.9494
187 2 2.2208 5.0407 3.73641 8.21007
182 1 -1.1104 6.37487 -3.39773 9.61142
179 1 -1.1104 6.38601 2.32032 12.292
387 2 2.2208 10.5441 -1.68119 13.7207
50 1 -1.1104 12.168 16.5178 12.327
83 1 -1.1104 9.29398 13.7624 12.181
203 2 2.2208 4.76095 -4.62127 10.8756
631 2 2.2208 7.88591 9.44162 -0.45111
209 1 -1.1104 9.14816 2.36268 6.56039
210 1 -1.1104 9.22148 -0.482029 6.51857
206 1 -1.1104 12.0338 2.14271 6.50967
232 2 2.2208 10.7881 -4.70098 10.8761
9088 2 2.2208 13.3554 -4.74061 8.04699
205 1 -1.1104 11.969 -3.21115 6.52279
169 1 -1.1104 6.38094 2.58414 6.58599
189 1 -1.1104 6.44698 -0.430418 9.42538
178 1 -1.1104 6.26635 -3.33405 12.3706
183 1 -1.1104 6.4472 2.4006 9.52748
185 1 -1.1104 6.41439 -0.504817 12.2612
211 2 2.2208 10.5547 1.00768 10.997
212 1 -1.1104 11.94 -3.19551 12.1988
213 1 -1.1104 11.8817 2.49769 12.0195
214 1 -1.1104 12.1084 -3.12435 9.32184
215 1 -1.1104 11.939 2.11744 9.33082
216 1 -1.1104 11.9422 -0.0663137 12.3045
217 2 2.2208 10.6673 -1.78177 7.92224
219 1 -1.1104 12.2098 -0.478644 9.36519
220 1 -1.1104 9.28116 -3.21005 12.4264
221 1 -1.1104 9.08624 2.32808 12.2529
222 2 2.2208 7.83882 0.794224 7.91466
223 1 -1.1104 9.31148 -3.37817 9.70508
224 1 -1.1104 9.08527 2.15815 9.54462
225 2 2.2208 7.82027 -1.85959 10.941
227 1 -1.1104 9.12224 -0.475052 12.3497
228 1 -1.1104 9.20569 -0.772891 9.32795
218 2 2.2208 10.6334 3.73915 8.35895
226 2 2.2208 7.76531 3.71206 10.8361
9087 2 2.2208 13.4587 -1.82389 10.8505
236 1 -1.1104 0.776471 5.05589 6.65622
78 1 -1.1104 3.61342 10.7648 6.66404
239 1 -1.1104 3.51676 4.98014 6.49442
234 1 -1.1104 0.893433 7.90111 6.57871
62 1 -1.1104 0.847658 10.7898 6.65437
237 1 -1.1104 6.36256 5.14566 6.74385
9062 2 2.2208 13.3621 14.9997 10.9826
240 2 2.2208 5.11432 6.83617 10.8247
241 2 2.2208 5.20163 12.1723 10.8725
242 1 -1.1104 0.96677 8.06001 12.4843
244 1 -1.1104 0.654456 7.97869 9.38205
246 1 -1.1104 0.793562 5.19243 12.2245
247 1 -1.1104 0.86616 11.0781 12.2813
250 2 2.2208 5.18521 9.40852 8.05258
251 1 -1.1104 0.910793 5.13204 9.4825
252 1 -1.1104 0.926296 10.8315 9.79956
255 1 -1.1104 3.77264 7.97386 12.524
256 2 2.2208 2.24574 6.42448 8.09405
257 2 2.2208 2.47002 12.091 8.08822
258 1 -1.1104 3.59658 8.01539 9.65198
259 2 2.2208 2.21507 9.39898 11.0437
260 1 -1.1104 3.65031 5.25995 12.2485
261 1 -1.1104 3.75442 10.8522 12.4871
262 1 -1.1104 3.80957 5.15046 9.46365
263 1 -1.1104 3.8964 10.6587 9.6331
245 1 -1.1104 6.26942 8.04682 9.21428
253 1 -1.1104 6.61065 5.25974 9.70229
243 1 -1.1104 6.52434 8.27735 12.0978
248 1 -1.1104 6.46142 5.12872 12.4593
254 1 -1.1104 6.48628 10.8677 9.37369
289 1 -1.1104 6.64863 16.6029 9.30882
165 2 2.2208 7.78393 20.6416 10.9336
101 1 -1.1104 9.19164 10.7712 6.49695
269 1 -1.1104 9.21619 5.13387 6.65851
90 1 -1.1104 11.9918 10.7813 6.70078
235 1 -1.1104 6.66705 7.77769 6.57557
65 1 -1.1104 6.54302 10.8108 6.56403
267 1 -1.1104 9.3131 8.04353 6.83926
266 1 -1.1104 12.2005 5.07524 6.74582
265 1 -1.1104 12.1599 7.93622 6.52546
249 1 -1.1104 6.40455 10.9662 12.3855
264 1 -1.1104 9.2073 10.8477 9.45143
268 1 -1.1104 9.13989 5.12863 9.42374
270 1 -1.1104 9.13725 11.0008 12.3032
271 1 -1.1104 9.18286 5.30961 12.1788
272 2 2.2208 8.02538 9.46552 10.8106
273 1 -1.1104 9.10256 7.79226 9.5206
274 2 2.2208 7.89956 12.26 8.0773
275 2 2.2208 7.91789 6.3962 7.96505
276 2 2.2208 10.8683 6.60067 10.9217
277 2 2.2208 10.5381 12.3005 10.8833
278 1 -1.1104 12.2905 7.89445 12.3912
279 1 -1.1104 12.0777 8.02213 9.38569
280 1 -1.1104 12.0521 5.19081 12.3259
281 1 -1.1104 12.1222 10.7463 12.2277
282 2 2.2208 10.5342 9.50961 8.03853
283 1 -1.1104 12.0667 5.16218 9.58289
284 1 -1.1104 11.9262 10.8179 9.44918
285 1 -1.1104 9.41242 7.99059 12.281
30 1 -1.1104 11.856 13.6108 9.31346
133 1 -1.1104 3.55787 16.2147 6.75128
108 1 -1.1104 1.04859 13.6653 6.6564
126 1 -1.1104 3.71488 19.0839 6.67477
117 1 -1.1104 0.806223 16.2956 6.57528
112 1 -1.1104 6.44217 19.2788 6.71376
296 1 -1.1104 6.46571 19.0562 12.2402
302 1 -1.1104 0.970592 19.1635 6.69198
290 1 -1.1104 6.62707 13.5426 9.45829
201 2 2.2208 2.32979 14.9581 10.8586
204 2 2.2208 2.24145 20.6308 10.8875
229 1 -1.1104 3.65853 16.4273 12.39
230 1 -1.1104 0.941797 16.6613 12.2722
286 1 -1.1104 3.66741 19.3118 12.3559
287 1 -1.1104 3.7781 13.6739 12.2152
291 1 -1.1104 0.887254 19.1257 9.54912
292 1 -1.1104 0.88836 16.2413 9.49
293 2 2.2208 4.86595 20.5888 8.04873
294 1 -1.1104 1.02435 13.731 9.42533
295 2 2.2208 5.09411 14.9935 8.14413
298 1 -1.1104 0.96536 19.2823 12.3785
299 1 -1.1104 0.787311 13.6826 12.2214
300 2 2.2208 4.98946 17.9216 10.8828
301 1 -1.1104 3.58032 19.2826 9.39977
303 2 2.2208 2.29033 17.7007 8.12783
304 1 -1.1104 3.81112 16.4363 9.59239
305 1 -1.1104 3.71304 13.5968 9.43228
288 1 -1.1104 6.24024 19.4513 9.65426
25 2 2.2208 10.8027 17.9023 10.8125
149 1 -1.1104 11.9464 16.4454 6.58224
8791 2 2.2208 13.5033 9.52891 5.32139
143 1 -1.1104 12.1245 13.5197 6.53592
9073 2 2.2208 13.5077 12.343 2.41003
154 1 -1.1104 9.28228 13.4391 6.7226
163 1 -1.1104 9.17632 16.3817 6.59172
111 1 -1.1104 6.48317 13.5903 6.6538
118 1 -1.1104 6.36845 16.4459 6.63496
105 2 2.2208 7.83061 17.758 7.92031
156 1 -1.1104 9.26797 19.1785 6.76558
145 1 -1.1104 12.0077 19.1715 6.82055
137 2 2.2208 7.88297 15.1301 10.8192
53 2 2.2208 10.6982 15.0847 7.98222
104 1 -1.1104 9.29979 19.2926 12.1895
82 1 -1.1104 12.0637 16.4227 9.52903
26 1 -1.1104 11.9612 13.4643 12.3549
200 1 -1.1104 9.27507 16.4381 9.44918
297 1 -1.1104 6.70149 13.6785 12.1447
49 1 -1.1104 12.2301 19.2521 9.52148
81 2 2.2208 10.6727 20.6632 8.31251
9096 2 2.2208 13.5643 20.7428 -0.367696
545 2 2.2208 5.11552 -4.7143 -0.318313
9097 2 2.2208 13.5338 17.9061 13.5942
309 2 2.2208 4.97349 20.7437 13.6192
353 2 2.2208 4.94647 -1.95454 13.6646
9471 2 2.2208 13.4687 15.0611 -0.428722
352 2 2.2208 2.01085 -4.53816 13.6356
306 2 2.2208 10.6944 17.9034 -0.576688
307 2 2.2208 7.84261 20.8022 -0.45247
572 2 2.2208 7.98318 3.7713 -0.351343
449 2 2.2208 7.92905 6.58277 13.6765
607 2 2.2208 5.01743 12.3809 -0.328213
541 2 2.2208 2.11165 -1.93778 -0.429284
9202 2 2.2208 13.5302 12.1928 13.6839
313 2 2.2208 5.13015 0.930294 16.3803
314 1 -1.1104 0.899509 -3.08005 17.8187
315 1 -1.1104 0.646429 2.3269 17.9366
318 1 -1.1104 0.792225 -3.30179 15.0045
320 1 -1.1104 0.841103 2.24803 15.0094
326 1 -1.1104 0.791788 -0.248223 17.844
328 2 2.2208 5.02941 -1.64588 19.3586
330 1 -1.1104 0.89114 -0.440933 14.923
334 1 -1.1104 3.85977 -3.15985 17.7148
335 1 -1.1104 3.48923 2.26929 17.7281
336 2 2.2208 2.18677 1.00271 19.3418
337 1 -1.1104 3.55668 -3.14698 14.9428
339 1 -1.1104 3.59008 2.59786 14.9599
341 2 2.2208 2.25048 -1.62501 16.4509
343 1 -1.1104 3.64071 -0.492909 18.0432
344 1 -1.1104 3.63306 -0.212324 15.1872
329 2 2.2208 4.90225 3.82168 19.1503
342 2 2.2208 2.177 3.82376 16.3893
355 2 2.2208 5.11687 3.98133 13.8769
331 1 -1.1104 0.906375 -0.370155 20.8194
327 1 -1.1104 6.45678 -0.268379 17.8187
345 1 -1.1104 3.55669 -0.204774 20.8848
317 1 -1.1104 6.38893 2.38307 17.9269
316 1 -1.1104 6.54905 -3.08881 17.9469
322 1 -1.1104 6.49612 -3.27914 15.0535
332 1 -1.1104 6.43826 -0.430664 15.0407
324 1 -1.1104 6.41227 2.5008 15.1251
348 2 2.2208 2.11285 -4.42074 19.2206
9124 2 2.2208 13.4262 3.9426 16.4495
347 2 2.2208 5.06575 -4.56797 16.4494
9267 2 2.2208 13.4412 6.63325 25.0851
580 2 2.2208 7.79035 15.1634 22.1877
384 1 -1.1104 12.1184 19.1313 23.5615
422 2 2.2208 2.18521 6.61661 13.749
9479 2 2.2208 13.4499 -4.46106 13.6064
9469 2 2.2208 13.5097 15.0498 22.1824
381 2 2.2208 10.617 -4.49023 16.4432
356 2 2.2208 10.5998 1.16168 16.4009
357 1 -1.1104 12.0284 -3.14655 17.8517
358 1 -1.1104 12.0951 2.6142 17.6722
359 1 -1.1104 12.0307 -2.97057 14.888
361 1 -1.1104 12.0203 2.61321 14.9569
363 1 -1.1104 11.802 -0.197419 17.8587
364 2 2.2208 10.5998 -1.83459 19.2976
366 1 -1.1104 11.8587 -0.167114 15.0486
368 1 -1.1104 9.24257 -3.05002 17.853
369 1 -1.1104 9.17799 2.58923 17.7931
370 2 2.2208 7.83248 1.08418 19.2554
371 1 -1.1104 9.28917 -3.19326 15.1948
373 1 -1.1104 9.24774 2.4116 15.0243
375 2 2.2208 7.90442 -1.82991 16.5352
377 1 -1.1104 8.98554 -0.28304 17.809
378 1 -1.1104 9.24831 -0.433187 15.0233
365 2 2.2208 10.5891 3.94118 19.1662
374 1 -1.1104 9.15475 2.38153 20.4984
325 1 -1.1104 6.36459 2.50826 20.6867
9130 2 2.2208 13.3176 1.21311 19.3107
382 2 2.2208 7.72592 -4.62969 19.2687
579 1 -1.1104 9.41055 19.3159 26.1141
9390 2 2.2208 13.3662 9.40088 22.078
9478 2 2.2208 13.5454 -1.74117 16.5619
9268 2 2.2208 13.5153 14.9818 16.301
9199 2 2.2208 13.3285 6.68549 19.3566
575 2 2.2208 10.5447 -4.59223 22.0543
389 2 2.2208 5.05699 6.69591 16.6156
390 2 2.2208 5.0753 12.2552 16.5659
391 1 -1.1104 0.833183 7.94429 18.0156
393 1 -1.1104 0.951941 7.83524 15.3316
397 1 -1.1104 0.610851 5.07818 17.8418
398 1 -1.1104 0.889455 10.8692 17.9443
401 2 2.2208 5.08335 9.44881 19.3569
402 1 -1.1104 0.907803 5.11236 14.9158
404 1 -1.1104 0.747197 10.7023 15.2616
410 1 -1.1104 3.73232 8.01276 18.1364
411 2 2.2208 2.17669 6.75776 19.3503
412 2 2.2208 2.26247 12.3363 19.3439
413 1 -1.1104 3.73683 8.31753 15.2506
415 2 2.2208 2.25623 9.41268 16.634
416 1 -1.1104 3.42113 5.21298 17.943
417 1 -1.1104 3.77293 10.8081 17.9931
418 1 -1.1104 3.68851 5.49707 15.3355
420 1 -1.1104 3.61408 11.0559 15.2032
419 1 -1.1104 3.71394 5.17276 20.7282
406 1 -1.1104 6.45393 5.45077 15.2471
395 1 -1.1104 6.60991 8.15988 15.011
392 1 -1.1104 6.54813 8.20261 17.9814
400 1 -1.1104 6.55006 10.9975 17.9335
399 1 -1.1104 6.39996 5.4359 17.9588
9271 2 2.2208 13.4934 20.6796 16.3218
551 1 -1.1104 9.25454 19.5507 23.3685
385 1 -1.1104 12.0471 13.6601 26.4276
9473 2 2.2208 13.4997 20.6484 22.2484
609 1 -1.1104 8.95945 16.7896 23.3578
351 2 2.2208 10.6675 17.8474 22.0899
376 2 2.2208 7.89257 3.88945 16.3636
408 1 -1.1104 6.51749 10.8155 15.094
425 2 2.2208 10.6856 6.69156 16.4378
426 2 2.2208 10.7194 12.2855 16.5202
427 1 -1.1104 12.1335 8.13802 18.0261
428 1 -1.1104 12.1405 8.21221 15.1858
430 1 -1.1104 11.91 5.41468 17.8962
431 1 -1.1104 12.1066 10.8505 17.9148
432 2 2.2208 10.7115 9.46803 19.3392
433 1 -1.1104 12.1007 5.32485 15.0228
435 1 -1.1104 11.9823 10.7748 15.0946
437 1 -1.1104 9.3749 8.11558 17.8147
438 2 2.2208 7.73389 6.6134 19.4264
439 2 2.2208 7.86931 12.4481 19.4394
440 1 -1.1104 9.31435 8.03395 15.0639
442 2 2.2208 7.88409 9.52575 16.4758
443 1 -1.1104 9.10252 5.38653 17.5803
444 1 -1.1104 9.45006 10.9488 17.8998
445 1 -1.1104 9.31769 5.22484 15.006
447 1 -1.1104 9.29078 10.842 15.1002
434 1 -1.1104 11.9584 5.39429 20.7317
9274 2 2.2208 13.4941 12.2488 25.0325
446 1 -1.1104 9.09391 5.22381 20.6361
9489 2 2.2208 13.4514 -1.62949 22.0577
9198 2 2.2208 13.447 9.55652 16.5603
548 2 2.2208 10.7869 20.7621 24.9511
550 1 -1.1104 9.31411 13.7339 23.64
386 2 2.2208 7.63667 1.09657 13.6693
452 2 2.2208 5.1975 17.7062 16.4173
453 1 -1.1104 0.941484 13.8428 17.9892
454 1 -1.1104 0.880093 19.3386 17.8435
457 1 -1.1104 0.748545 13.5863 15.066
459 1 -1.1104 0.785053 19.2439 15.1651
465 1 -1.1104 1.04099 16.6777 18.0113
467 2 2.2208 5.01242 15.2231 19.3081
468 2 2.2208 5.11933 20.6691 19.1326
469 1 -1.1104 0.86976 16.3514 15.1768
473 1 -1.1104 3.65259 13.7946 17.8629
474 1 -1.1104 3.64988 19.3668 17.9503
475 2 2.2208 2.33825 18.0328 19.4079
476 1 -1.1104 3.56135 13.6785 15.0211
478 1 -1.1104 3.55219 19.3062 15.0465
480 2 2.2208 2.28324 14.9936 16.495
481 2 2.2208 2.32546 20.6507 16.4292
482 1 -1.1104 3.8027 16.5817 17.9273
483 1 -1.1104 3.88816 16.4789 15.2216
477 1 -1.1104 3.6513 13.643 20.6593
466 1 -1.1104 6.65952 16.3829 18.0217
463 1 -1.1104 6.4864 19.2017 14.9477
456 1 -1.1104 6.56636 19.2879 17.8312
479 1 -1.1104 3.60328 19.3272 20.8756
471 1 -1.1104 6.53423 16.383 14.9679
461 1 -1.1104 6.46928 13.5093 15.0981
455 1 -1.1104 6.50097 13.784 17.9723
488 2 2.2208 10.6093 17.9267 16.5329
489 1 -1.1104 12.0782 13.806 18.0866
490 1 -1.1104 12.0079 19.3447 17.7935
491 1 -1.1104 12.0199 13.5828 14.9995
493 1 -1.1104 12.051 19.4119 15.0182
495 1 -1.1104 12.1338 16.4748 17.9269
496 2 2.2208 10.5815 15.2434 19.2155
497 2 2.2208 10.5281 20.7062 19.3159
498 1 -1.1104 11.7733 16.4522 15.1557
500 1 -1.1104 9.22494 13.7452 17.8648
501 1 -1.1104 9.26813 19.2979 17.8945
502 2 2.2208 7.88195 17.8875 19.3543
503 1 -1.1104 9.24958 13.5776 15.055
505 1 -1.1104 9.37298 19.4182 14.9719
507 2 2.2208 7.759 15.0464 16.5218
508 2 2.2208 7.96526 20.8843 16.4113
509 1 -1.1104 9.38303 16.4694 17.9203
510 1 -1.1104 9.1467 16.5103 15.0954
9200 2 2.2208 13.4767 12.2446 19.2789
546 2 2.2208 4.93386 -4.56454 22.229
9477 2 2.2208 13.3762 -4.57543 19.2154
608 2 2.2208 7.75329 20.7418 22.0544
606 2 2.2208 2.16863 9.34182 27.8789
9205 2 2.2208 -0.544876 12.2391 16.5019
383 2 2.2208 7.96378 -4.69386 13.6451
340 1 -1.1104 3.63346 2.47385 20.6124
321 1 -1.1104 0.728293 2.49772 20.7242
323 1 -1.1104 6.22488 -3.08435 20.8561
547 2 2.2208 2.15442 -4.55125 24.9841
338 1 -1.1104 3.50854 -3.08289 20.6272
319 1 -1.1104 0.938671 -3.16556 20.5583
333 1 -1.1104 6.4896 -0.417058 20.6421
516 2 2.2208 5.10529 1.2144 22.1519
517 1 -1.1104 0.853681 -3.30711 23.4932
518 1 -1.1104 0.975079 2.21734 23.4154
521 1 -1.1104 0.783931 -3.28392 26.1954
522 1 -1.1104 0.667601 2.38894 26.1975
525 1 -1.1104 0.749846 -0.452192 23.5078
527 2 2.2208 4.95522 -1.8956 25.0936
529 1 -1.1104 0.849029 -0.4844 26.2164
531 1 -1.1104 3.71019 -3.29008 23.6961
532 1 -1.1104 3.74347 2.45898 23.6501
533 2 2.2208 2.30957 0.807327 25.0684
534 1 -1.1104 3.69479 -3.37341 26.2867
535 1 -1.1104 3.44692 2.26155 26.38
536 2 2.2208 2.2871 -1.88196 22.175
538 1 -1.1104 3.55409 -0.486408 23.5418
539 1 -1.1104 3.64632 -0.68661 26.4295
528 2 2.2208 5.10763 3.74023 25.0463
537 2 2.2208 2.24693 3.78807 22.0947
526 1 -1.1104 6.26951 -0.343662 23.4364
524 1 -1.1104 6.48772 2.47582 26.2358
523 1 -1.1104 6.42843 -3.11954 26.5387
519 1 -1.1104 6.40938 -2.98266 23.7649
549 1 -1.1104 12.1391 16.4287 26.1038
515 1 -1.1104 12.2321 19.1977 26.2915
576 2 2.2208 7.73502 -4.61907 25.0407
487 2 2.2208 5.0985 15.02 13.6231
367 1 -1.1104 12.1503 -0.186589 20.5569
372 1 -1.1104 9.04045 -3.05643 20.5131
360 1 -1.1104 12.0421 -3.18006 20.517
379 1 -1.1104 9.46904 -0.329167 20.6802
362 1 -1.1104 12.0721 2.59967 20.731
520 1 -1.1104 6.61388 2.39681 23.5532
530 1 -1.1104 6.27702 -0.175262 26.2596
552 2 2.2208 10.588 1.23045 21.9917
553 1 -1.1104 12.0029 -2.77653 23.3592
554 1 -1.1104 11.9654 2.60927 23.4469
555 1 -1.1104 12.1903 -3.1652 26.2281
556 1 -1.1104 12.0994 2.42101 26.4567
557 1 -1.1104 11.978 -0.177267 23.5536
558 2 2.2208 10.5269 -1.78081 24.8536
560 1 -1.1104 11.9072 -0.199965 26.2558
561 1 -1.1104 9.2071 -3.08005 23.4067
562 1 -1.1104 9.4282 2.45099 23.4674
563 2 2.2208 7.73226 0.926854 24.8852
564 1 -1.1104 9.23975 -3.12085 26.3367
565 1 -1.1104 9.34246 2.58393 26.3468
566 2 2.2208 7.76713 -1.83245 22.1192
568 1 -1.1104 9.18861 -0.466721 23.405
569 1 -1.1104 9.1507 -0.358034 26.3594
559 2 2.2208 10.6336 3.81686 24.8683
9331 2 2.2208 13.4327 3.92135 22.1749
346 2 2.2208 7.85855 15.1643 27.7245
9490 2 2.2208 13.4398 1.05597 24.8277
637 1 -1.1104 6.54275 13.6893 26.4809
394 1 -1.1104 0.692409 8.25226 20.7513
421 1 -1.1104 3.52306 10.8563 20.7251
414 1 -1.1104 3.53508 8.07211 20.8126
409 1 -1.1104 6.30389 10.9306 20.8109
396 1 -1.1104 6.4157 8.13245 20.8831
403 1 -1.1104 0.735608 5.32885 20.6876
405 1 -1.1104 0.798025 11.2262 20.6208
581 2 2.2208 4.96148 6.58076 22.2218
582 2 2.2208 5.09844 12.3356 22.0771
583 1 -1.1104 0.636673 8.07632 23.5965
585 1 -1.1104 0.64871 8.16299 26.3895
587 1 -1.1104 0.72426 5.33764 23.49
588 1 -1.1104 0.761306 10.8272 23.473
591 2 2.2208 4.85142 9.49676 25.0617
592 1 -1.1104 0.784126 5.16859 26.2798
593 1 -1.1104 0.940106 10.8648 26.1834
596 1 -1.1104 3.56512 7.85679 23.6106
597 2 2.2208 2.09831 6.67942 25
598 2 2.2208 2.18922 12.1087 24.9052
599 1 -1.1104 3.52273 7.92725 26.1885
600 2 2.2208 2.16323 9.40886 22.2062
601 1 -1.1104 3.57485 5.13641 23.5593
602 1 -1.1104 3.69031 10.7642 23.5147
603 1 -1.1104 3.56157 5.31241 26.4029
604 1 -1.1104 3.60638 10.9216 26.4375
595 1 -1.1104 6.29553 10.836 26.4943
589 1 -1.1104 6.47401 5.1419 23.6587
448 1 -1.1104 9.3811 10.8918 20.6075
407 1 -1.1104 6.40913 5.45842 20.7128
567 2 2.2208 7.76609 3.75909 22.0872
436 1 -1.1104 12.2175 10.8282 20.6633
441 1 -1.1104 9.23334 7.97652 20.8812
429 1 -1.1104 11.9589 8.15445 20.8561
594 1 -1.1104 6.61599 5.30259 26.6424
586 1 -1.1104 6.40275 8.06466 26.2716
584 1 -1.1104 6.37143 7.91669 23.5032
590 1 -1.1104 6.64192 10.7133 23.6465
612 1 -1.1104 9.17932 10.8968 26.2086
613 1 -1.1104 9.29912 5.2159 26.3208
614 1 -1.1104 9.41635 10.8134 23.4157
615 1 -1.1104 9.32095 5.184 23.5413
616 2 2.2208 7.9008 9.44047 22.1848
617 1 -1.1104 9.34444 8.04515 26.4889
618 2 2.2208 7.90298 12.2663 24.926
619 2 2.2208 7.8906 6.54097 24.9464
620 2 2.2208 10.6404 6.6736 22.223
621 2 2.2208 10.7728 12.2891 22.1846
622 1 -1.1104 11.9349 8.26399 23.5851
623 1 -1.1104 12.0194 7.99532 26.3835
624 1 -1.1104 11.9916 5.27362 23.7206
625 1 -1.1104 12.265 11.06 23.3886
626 2 2.2208 10.6093 9.43596 24.9398
627 1 -1.1104 12.0717 5.17309 26.4495
628 1 -1.1104 12.0587 10.7675 26.2458
629 1 -1.1104 9.13602 7.98211 23.6252
578 1 -1.1104 9.34547 13.6797 26.3975
458 1 -1.1104 0.845327 13.9439 20.8021
484 1 -1.1104 3.49762 16.536 20.6395
470 1 -1.1104 0.607874 16.7297 20.4896
472 1 -1.1104 6.47945 16.607 20.6274
464 1 -1.1104 6.34494 19.3136 20.5175
462 1 -1.1104 6.46007 13.8269 20.7401
486 1 -1.1104 6.30032 16.4801 23.4601
577 1 -1.1104 6.75883 19.2733 26.3009
460 1 -1.1104 0.698598 19.4918 20.6154
349 2 2.2208 2.25711 20.7583 22.14
350 1 -1.1104 3.71529 16.5472 23.5017
485 1 -1.1104 0.930364 16.2871 23.4626
512 1 -1.1104 3.72452 13.7086 26.4507
514 1 -1.1104 3.77627 16.4925 26.4598
634 2 2.2208 2.23289 17.806 24.9095
635 2 2.2208 2.19222 15.0548 22.2355
636 1 -1.1104 3.46032 19.3167 23.7194
638 1 -1.1104 3.78436 13.5989 23.4237
640 1 -1.1104 1.11886 19.2742 26.2337
641 1 -1.1104 0.929622 16.429 26.4864
642 1 -1.1104 0.913823 13.6429 26.3366
644 2 2.2208 5.02765 20.7961 24.8916
645 2 2.2208 4.99141 15.2294 24.9896
647 1 -1.1104 0.792121 19.2304 23.4328
648 1 -1.1104 0.858777 13.5981 23.6095
649 2 2.2208 5.05838 18.0351 22.0257
650 1 -1.1104 3.85067 19.1451 26.3498
639 1 -1.1104 6.5498 16.3908 26.422
646 1 -1.1104 6.5656 13.6017 23.3998
643 1 -1.1104 6.36355 19.3504 23.502
543 1 -1.1104 12.0132 16.3111 23.49
380 1 -1.1104 12.2423 13.753 23.6658
610 1 -1.1104 9.2466 16.5615 26.2204
544 2 2.2208 10.5386 15.197 24.9494
573 2 2.2208 7.89851 18.0202 24.8164
506 1 -1.1104 9.12217 19.3494 20.7542
504 1 -1.1104 9.38949 13.769 20.7308
499 1 -1.1104 12.0642 16.2866 20.7151
511 1 -1.1104 9.19784 16.5608 20.777
492 1 -1.1104 12.2429 13.4731 20.8853
494 1 -1.1104 12.0216 19.2804 20.7214
423 2 2.2208 5.0881 9.50152 13.6983
9470 2 2.2208 13.406 17.7785 24.9341
9487 2 2.2208 13.527 -4.43746 24.8703
354 2 2.2208 2.26883 1.03262 13.5948
311 2 2.2208 7.96683 17.9929 13.5103
424 2 2.2208 2.2549 12.2539 13.7061
633 2 2.2208 5.08474 17.9061 27.7963
388 2 2.2208 10.651 3.9013 13.5696
632 2 2.2208 10.6656 12.2486 27.6885
310 2 2.2208 10.7669 20.7719 13.6043
451 2 2.2208 7.94832 12.2473 13.7863
611 2 2.2208 2.30049 15.0279 27.8801
513 2 2.2208 10.6131 15.1179 13.7361
312 2 2.2208 2.42593 20.7787 27.6783
542 2 2.2208 2.2113 3.87225 27.7447
574 2 2.2208 10.6656 -4.46276 27.8255
630 2 2.2208 10.5614 6.59324 27.9168
308 2 2.2208 2.32958 17.778 13.8517
571 2 2.2208 7.82462 -1.71276 27.8407
9128 2 2.2208 13.3884 1.13304 13.6346
651 2 2.2208 5.16901 23.4526 5.22012
652 2 2.2208 5.17592 29.1874 5.24239
653 1 -1.1104 0.954359 25.0658 1.09804
654 1 -1.1104 0.935918 24.8321 3.9869
655 1 -1.1104 1.11878 22.092 1.07495
656 1 -1.1104 1.05769 27.8628 0.991771
657 2 2.2208 5.22717 26.1907 2.58917
658 1 -1.1104 0.975306 22.2001 3.73272
659 1 -1.1104 1.0229 27.8645 3.85253
660 1 -1.1104 3.69378 24.8384 0.964027
661 2 2.2208 2.43621 23.3449 2.33395
662 2 2.2208 2.4219 29.1199 2.38419
663 1 -1.1104 3.69751 24.7656 3.69752
664 2 2.2208 2.34493 26.3004 5.24108
665 1 -1.1104 3.8243 22.067 0.974405
666 1 -1.1104 3.96959 27.6761 1.21403
667 1 -1.1104 3.62451 22.0407 3.74593
668 1 -1.1104 3.65344 27.6584 3.90328
798 1 -1.1104 3.84462 24.8693 6.60742
672 1 -1.1104 6.48429 25.0291 0.919259
675 1 -1.1104 6.77218 27.7797 0.723982
674 1 -1.1104 6.66178 22.1847 0.991681
673 1 -1.1104 6.49887 24.7558 3.80072
676 1 -1.1104 6.54455 22.1404 3.75066
796 1 -1.1104 6.55442 22.0847 6.55432
677 1 -1.1104 6.59645 27.7023 3.74151
9684 2 2.2208 -0.389245 26.2167 8.05286
983 2 2.2208 5.22272 34.7852 -0.404328
678 2 2.2208 10.7301 23.517 5.26277
679 2 2.2208 10.8246 29.1836 5.2472
680 1 -1.1104 12.2002 24.8366 1.00408
681 1 -1.1104 12.2394 24.9595 3.93072
682 1 -1.1104 12.1306 22.0429 1.13121
683 1 -1.1104 12.1068 27.6374 1.18097
684 2 2.2208 10.7674 26.4883 2.414
685 1 -1.1104 12.2099 22.2867 3.90851
686 1 -1.1104 12.3592 27.5995 3.83325
687 1 -1.1104 9.16463 24.9938 0.947593
688 2 2.2208 7.93496 23.5522 2.42731
689 2 2.2208 7.94126 29.119 2.40178
690 1 -1.1104 9.19868 24.9705 4.01904
691 2 2.2208 8.0852 26.3719 5.44774
692 1 -1.1104 9.3192 22.2159 1.03722
693 1 -1.1104 9.45284 27.817 1.00652
694 1 -1.1104 9.39415 22.1666 3.81977
695 1 -1.1104 9.57214 27.6993 3.89763
825 1 -1.1104 12.243 24.9036 6.686
828 1 -1.1104 9.52598 24.7666 6.72871
830 1 -1.1104 9.26259 27.9435 6.6571
976 2 2.2208 7.90908 26.371 -0.470925
975 2 2.2208 10.7611 23.5902 -0.321065
699 2 2.2208 5.26199 34.8641 5.31702
700 1 -1.1104 0.862623 30.574 0.922901
701 1 -1.1104 1.01904 36.1436 0.975153
703 1 -1.1104 1.10872 30.5816 4.07391
704 1 -1.1104 0.885899 36.045 3.96937
706 1 -1.1104 1.08223 33.3781 1.08843
707 2 2.2208 5.24402 32.0169 2.45258
708 2 2.2208 5.25841 37.5657 2.41518
709 1 -1.1104 1.06927 33.3783 3.97287
711 1 -1.1104 3.90397 30.4729 0.973398
712 1 -1.1104 3.84215 36.2673 0.999377
713 2 2.2208 2.3835 34.8678 2.41887
714 1 -1.1104 3.7686 30.5771 3.85715
715 1 -1.1104 3.68665 36.0801 4.02644
716 2 2.2208 2.21369 32.0152 5.23205
717 2 2.2208 2.48209 37.6631 5.25702
718 1 -1.1104 3.79072 33.4689 0.942194
719 1 -1.1104 3.77616 33.483 3.73605
856 1 -1.1104 4.0438 36.3441 6.86807
702 1 -1.1104 6.69347 36.1431 1.09308
725 1 -1.1104 6.59428 33.3957 0.998017
724 1 -1.1104 6.56103 30.5983 3.90442
853 1 -1.1104 1.04279 33.4443 6.78803
855 1 -1.1104 3.67668 30.6783 6.68788
857 1 -1.1104 3.63828 33.5825 6.58061
851 1 -1.1104 6.34784 30.6405 6.65814
951 2 2.2208 2.55799 43.1196 -0.367535
972 2 2.2208 5.0486 23.5651 -0.455054
790 1 -1.1104 12.2913 39.1608 9.4155
723 1 -1.1104 6.65974 30.6928 1.12623
705 1 -1.1104 6.64872 36.3899 3.97092
710 1 -1.1104 6.55918 33.3516 3.91322
726 2 2.2208 10.9665 34.6351 5.22207
727 1 -1.1104 12.2981 30.496 0.915649
728 1 -1.1104 12.2471 36.1649 0.996378
729 1 -1.1104 12.1138 30.3911 3.71006
730 1 -1.1104 12.2212 36.0379 3.68878