ITEM: TIMESTEP
100000
ITEM: NUMBER OF ATOMS
17910
ITEM: BOX BOUNDS pp pp pp
-4.0550491046741821e-01 2.7745504910467254e+01
-4.7502354462760739e+00 3.3283023544626417e+02
-3.9906719734990881e-01 2.7739067197350742e+01
ITEM: ATOMS id type q x y z
1 2 2.2208 5.41848 0.831109 5.1752
2 1 -1.1104 1.16365 -3.41245 0.803503
3 1 -1.1104 1.31576 2.33822 0.878148
6 1 -1.1104 1.3816 -3.56843 3.70484
7 1 -1.1104 1.23675 2.16003 3.86308
10 1 -1.1104 1.32522 -0.707416 0.954206
12 2 2.2208 5.4026 -1.92449 2.17834
14 1 -1.1104 1.43345 -0.617569 3.69958
16 1 -1.1104 3.95473 -3.3309 0.878789
17 1 -1.1104 4.16364 2.3287 0.901669
18 2 2.2208 2.65625 0.886405 2.33925
19 1 -1.1104 3.9665 -3.3875 3.72816
20 1 -1.1104 4.15797 2.27153 3.66478
21 2 2.2208 2.76751 -2.07678 5.13442
23 1 -1.1104 4.00934 -0.460453 0.885651
24 1 -1.1104 4.09526 -0.628843 3.84384
13 2 2.2208 5.47086 3.72901 2.27564
166 1 -1.1104 1.29403 -3.38397 6.59273
22 2 2.2208 2.60373 3.56198 4.99178
167 1 -1.1104 1.24537 2.27015 6.65874
170 1 -1.1104 1.23043 -0.507269 6.44728
174 1 -1.1104 4.03621 -0.675458 6.48175
9064 2 2.2208 -0.105627 0.762173 5.14014
8 1 -1.1104 6.77611 -3.389 3.59529
9065 2 2.2208 -0.226777 3.62885 2.37513
172 1 -1.1104 4.13097 -3.59492 6.70141
11 1 -1.1104 6.93232 -0.55732 0.876497
9061 2 2.2208 -0.0555194 -1.8845 2.2812
383 2 2.2208 8.32001 -4.75021 13.5766
4 1 -1.1104 6.80612 -3.42387 0.771111
9 1 -1.1104 6.96653 2.31738 3.47047
171 1 -1.1104 6.97853 -0.720265 6.39726
168 1 -1.1104 6.89384 -3.55047 6.4237
15 1 -1.1104 6.58818 -0.407809 3.53324
5 1 -1.1104 6.91587 2.37782 0.709636
31 2 2.2208 11.0926 0.948703 4.99717
32 1 -1.1104 12.6424 -3.39161 0.974251
33 1 -1.1104 12.5656 2.18148 1.01903
34 1 -1.1104 12.3244 -3.52452 3.80638
35 1 -1.1104 12.6723 2.13646 3.7302
36 1 -1.1104 12.4464 -0.651727 0.787927
37 2 2.2208 11.0723 -2.03807 2.2651
39 1 -1.1104 12.4182 -0.735433 3.68504
40 1 -1.1104 9.71831 -3.33875 0.977784
41 1 -1.1104 9.80321 2.19784 0.943744
42 2 2.2208 8.32258 0.833292 2.24449
43 1 -1.1104 9.50612 -3.19512 3.84602
44 1 -1.1104 9.80125 2.29963 3.79579
45 2 2.2208 8.21345 -1.85155 4.99535
47 1 -1.1104 9.75737 -0.589629 0.764581
48 1 -1.1104 9.4962 -0.378317 3.73471
38 2 2.2208 11.0373 3.63845 2.22956
169 1 -1.1104 6.81661 2.18602 6.51242
208 1 -1.1104 9.73487 -3.25769 6.71836
207 1 -1.1104 12.7173 -0.442482 6.54679
46 2 2.2208 8.15774 3.59947 5.1103
9076 2 2.2208 -0.339555 20.4986 2.4003
83 1 -1.1104 9.52346 13.4236 12.0236
54 2 2.2208 5.48202 6.48388 5.14501
55 2 2.2208 5.38331 12.1982 5.06563
56 1 -1.1104 1.00439 7.86613 0.899079
58 1 -1.1104 1.0582 8.00015 3.575
60 1 -1.1104 1.14536 5.06675 0.867178
61 1 -1.1104 0.987654 10.7787 0.509717
66 2 2.2208 5.21886 9.16992 2.26548
67 1 -1.1104 1.23277 5.16286 3.67389
68 1 -1.1104 1.03381 10.7291 3.5024
71 1 -1.1104 3.77113 7.72756 0.719326
72 2 2.2208 2.37984 6.38912 2.27225
73 2 2.2208 2.62207 12.1332 2.22229
74 1 -1.1104 3.7651 8.04285 3.67993
75 2 2.2208 2.66997 9.38399 4.98701
76 1 -1.1104 3.82637 5.02291 0.918816
77 1 -1.1104 3.79731 10.6251 1.03521
79 1 -1.1104 4.12051 5.31444 3.67598
80 1 -1.1104 3.95719 10.8415 3.53381
234 1 -1.1104 1.15535 7.56066 6.76691
238 1 -1.1104 4.10492 7.87819 6.26196
236 1 -1.1104 1.06908 4.89906 6.45825
78 1 -1.1104 3.79234 10.5409 6.47415
9312 2 2.2208 -0.124379 14.9186 13.6254
9077 2 2.2208 -0.18222 17.6708 5.40895
9072 2 2.2208 -0.357902 12.0638 5.09265
81 2 2.2208 10.8444 20.6312 8.19423
387 2 2.2208 11.0572 -1.97618 13.7207
30 1 -1.1104 12.433 13.4695 9.5059
9070 2 2.2208 -0.166403 6.64356 5.10057
63 1 -1.1104 6.7916 5.2086 0.861408
64 1 -1.1104 6.61155 10.8912 0.908911
70 1 -1.1104 7.03185 10.6597 3.88289
57 1 -1.1104 6.76343 7.91238 0.780653
69 1 -1.1104 6.73769 5.19677 3.69513
59 1 -1.1104 6.65075 8.06605 3.68936
84 2 2.2208 11.0422 6.55338 5.02699
85 2 2.2208 11.0317 11.9398 5.12556
86 1 -1.1104 12.3783 7.90601 0.888927
87 1 -1.1104 12.4211 7.99882 3.78911
88 1 -1.1104 12.4731 4.96801 0.885161
89 1 -1.1104 12.3083 10.7002 0.872726
91 2 2.2208 11.0176 9.29354 2.32941
92 1 -1.1104 12.4427 5.13453 3.55081
93 1 -1.1104 12.5387 10.7322 3.75511
94 1 -1.1104 9.49722 7.78109 0.784868
95 2 2.2208 8.18329 6.4253 2.38695
96 2 2.2208 8.07881 12.0791 2.27256
97 1 -1.1104 9.67417 7.90642 3.81674
98 2 2.2208 8.08938 9.38939 5.29706
99 1 -1.1104 9.7162 4.89713 0.944113
100 1 -1.1104 9.35932 10.5801 0.781431
102 1 -1.1104 9.58832 5.20422 3.76896
103 1 -1.1104 9.78082 10.7519 3.74554
237 1 -1.1104 6.69082 5.06613 6.48307
267 1 -1.1104 9.54284 7.76591 6.45505
265 1 -1.1104 12.5372 7.8457 6.47198
449 2 2.2208 8.15536 6.33516 13.5909
49 1 -1.1104 12.3417 19.1345 9.16699
9083 2 2.2208 -0.0925609 17.6929 10.7446
307 2 2.2208 8.34654 20.4875 -0.409933
106 2 2.2208 5.45956 17.6863 5.12159
107 1 -1.1104 1.04134 13.225 1.01086
109 1 -1.1104 1.20887 19.1466 1.0434
113 1 -1.1104 0.83892 13.7298 3.81318
114 1 -1.1104 1.16679 19.0753 3.94851
116 1 -1.1104 1.12568 16.2533 1.00255
119 2 2.2208 5.37228 14.9915 2.39478
120 2 2.2208 5.37371 20.5459 2.37503
121 1 -1.1104 1.05855 16.3484 3.88984
123 1 -1.1104 3.95071 13.3493 0.665873
125 1 -1.1104 3.90138 18.9581 0.839596
127 2 2.2208 2.47301 17.5733 2.47529
128 1 -1.1104 3.93118 13.6624 3.69892
129 1 -1.1104 3.84459 19.0197 3.74016
130 2 2.2208 2.57376 14.9289 5.19314
131 2 2.2208 2.56952 20.5584 5.07079
132 1 -1.1104 3.95689 16.1384 0.986832
134 1 -1.1104 3.9961 16.31 3.79497
9084 2 2.2208 -0.237241 20.3975 8.00587
302 1 -1.1104 1.02717 18.9656 6.95773
133 1 -1.1104 4.0544 16.4094 6.56849
135 1 -1.1104 9.51571 13.3751 9.39442
140 1 -1.1104 6.66324 16.3904 0.977727
149 1 -1.1104 12.4939 16.3481 6.59252
145 1 -1.1104 12.4605 19.2338 6.5369
143 1 -1.1104 12.438 13.4406 6.46278
139 1 -1.1104 6.78055 19.0637 3.81741
122 1 -1.1104 6.90806 16.2768 3.89101
115 1 -1.1104 6.76399 13.4209 3.74161
138 1 -1.1104 6.83705 19.1838 1.28424
110 1 -1.1104 6.80848 13.599 1.0216
141 2 2.2208 11.0781 17.7323 5.35667
142 1 -1.1104 12.3764 13.442 0.841179
144 1 -1.1104 12.6725 18.8926 1.0841
146 1 -1.1104 12.4272 13.4571 3.78727
147 1 -1.1104 12.2885 19.2142 3.79022
148 1 -1.1104 12.4126 16.2109 1.01219
150 2 2.2208 11.121 14.8562 2.46582
151 2 2.2208 10.9818 20.4676 2.46644
152 1 -1.1104 12.6481 16.2874 3.90161
153 1 -1.1104 9.65348 13.4167 1.11329
155 1 -1.1104 9.7677 19.0706 0.846066
157 2 2.2208 8.27802 17.7026 2.43281
158 1 -1.1104 9.67836 13.4868 3.79857
159 1 -1.1104 9.42819 18.9186 3.90331
160 2 2.2208 8.23749 14.9287 5.25315
161 2 2.2208 8.29929 20.5364 5.44086
162 1 -1.1104 9.60876 16.1451 0.994224
164 1 -1.1104 9.74563 16.3742 4.016
154 1 -1.1104 9.70929 13.4452 6.70202
118 1 -1.1104 6.77265 16.1854 6.61802
288 1 -1.1104 6.72608 19.2162 9.59745
112 1 -1.1104 6.80068 18.9124 6.69515
105 2 2.2208 8.1921 17.7565 8.06208
173 1 -1.1104 4.13242 2.15695 6.54501
9079 2 2.2208 -0.334745 3.63243 7.91971
9081 2 2.2208 -0.217769 0.78762 10.8313
9082 2 2.2208 -0.192461 14.8082 7.97232
175 2 2.2208 5.48823 0.840494 10.6313
176 1 -1.1104 1.30808 -3.76045 12.0376
177 1 -1.1104 1.13046 2.16151 12.2824
180 1 -1.1104 1.43488 -3.40923 9.33433
181 1 -1.1104 1.23249 2.13761 9.46792
184 1 -1.1104 1.07455 -0.591302 12.2019
186 2 2.2208 5.46345 -1.98339 7.93328
188 1 -1.1104 1.24771 -0.530469 9.26611
190 1 -1.1104 4.0726 -3.46463 12.1157
191 1 -1.1104 3.91506 2.50382 12.1742
192 2 2.2208 2.64464 0.971417 7.95024
193 1 -1.1104 4.19872 -3.28964 9.40693
194 1 -1.1104 4.02805 2.18437 9.49441
195 2 2.2208 2.54559 -2.09061 10.7732
197 1 -1.1104 3.94124 -0.570003 12.0714
198 1 -1.1104 4.1186 -0.472026 9.26141
196 2 2.2208 2.48591 3.66778 10.823
187 2 2.2208 5.41279 3.72415 7.94538
233 1 -1.1104 6.88015 16.3424 12.211
137 2 2.2208 8.17894 14.9714 10.8656
9080 2 2.2208 -0.174709 -1.93053 7.84458
209 1 -1.1104 9.54666 2.39367 6.51618
210 1 -1.1104 9.88837 -0.363064 6.78128
206 1 -1.1104 12.4544 2.23515 6.49671
205 1 -1.1104 12.6586 -3.29522 6.67899
179 1 -1.1104 6.78377 2.33816 12.2106
189 1 -1.1104 6.91923 -0.487242 9.21272
182 1 -1.1104 6.83804 -3.1788 9.3327
178 1 -1.1104 6.85681 -3.20793 12.0415
183 1 -1.1104 7.0683 2.22722 9.22607
185 1 -1.1104 6.75269 -0.34492 12.2332
211 2 2.2208 11.1606 0.748944 10.8343
212 1 -1.1104 12.4779 -3.40869 12.2257
213 1 -1.1104 12.5146 2.21786 12.2006
214 1 -1.1104 12.4401 -3.34584 9.40224
215 1 -1.1104 12.6304 2.33081 9.27591
216 1 -1.1104 12.5493 -0.642916 11.9476
217 2 2.2208 10.9982 -1.98989 8.16632
219 1 -1.1104 12.3542 -0.486492 9.31438
220 1 -1.1104 9.70407 -3.40001 12.2798
221 1 -1.1104 9.59945 2.25714 12.2623
222 2 2.2208 8.42353 0.755792 7.99166
223 1 -1.1104 9.59339 -3.36136 9.4255
224 1 -1.1104 9.88507 2.29184 9.40511
225 2 2.2208 8.11666 -1.9431 10.7727
227 1 -1.1104 9.692 -0.656314 12.2632
228 1 -1.1104 9.68152 -0.625306 9.58912
218 2 2.2208 11.0558 3.70438 7.82212
226 2 2.2208 8.39659 3.64731 10.6722
50 1 -1.1104 12.64 16.3473 12.1382
136 1 -1.1104 9.50029 19.1835 9.63397
239 1 -1.1104 3.95 5.08258 6.38487
8991 2 2.2208 -0.103793 9.31233 8.01893
62 1 -1.1104 1.21133 10.4964 6.47404
9024 2 2.2208 13.5723 20.3938 10.914
8992 2 2.2208 -0.345952 6.36351 10.8973
240 2 2.2208 5.42813 6.5039 10.8022
241 2 2.2208 5.4673 12.3027 10.7054
242 1 -1.1104 1.26192 7.75655 12.1039
244 1 -1.1104 1.26881 7.85026 9.33758
246 1 -1.1104 0.963268 5.00465 12.3049
247 1 -1.1104 1.27377 10.4841 11.9916
250 2 2.2208 5.46489 9.26435 8.02162
251 1 -1.1104 1.17214 4.97151 9.49329
252 1 -1.1104 1.28221 10.9511 9.25971
255 1 -1.1104 3.94063 7.98638 12.2361
256 2 2.2208 2.63301 6.4036 7.88386
257 2 2.2208 2.69835 12.1427 7.85012
258 1 -1.1104 4.0579 7.92565 9.39183
259 2 2.2208 2.67935 9.28327 10.8082
260 1 -1.1104 4.01952 5.19498 12.1816
261 1 -1.1104 4.18799 10.6546 12.1729
262 1 -1.1104 4.01141 5.12432 9.23713
263 1 -1.1104 4.17753 10.8072 9.27635
25 2 2.2208 10.9453 17.7046 10.8389
354 2 2.2208 2.49535 0.794801 13.7435
9476 2 2.2208 -0.220085 -2.20232 13.5625
65 1 -1.1104 6.75854 10.7341 6.57732
266 1 -1.1104 12.5292 5.00815 6.50372
269 1 -1.1104 9.55239 5.06259 6.49303
90 1 -1.1104 12.4258 10.5693 6.55135
235 1 -1.1104 6.70617 7.9405 6.5392
101 1 -1.1104 9.57923 10.5364 6.65994
245 1 -1.1104 6.72776 7.73592 9.34139
253 1 -1.1104 6.95346 4.96127 9.33249
243 1 -1.1104 6.71602 7.99091 12.1999
248 1 -1.1104 6.83724 5.23703 12.0424
254 1 -1.1104 7.0078 10.5425 9.34708
249 1 -1.1104 6.92601 10.7404 12.1795
264 1 -1.1104 9.55144 10.6594 9.42803
268 1 -1.1104 9.78538 5.05553 9.22155
270 1 -1.1104 9.59028 10.7136 12.3226
271 1 -1.1104 9.60523 5.12841 12.1857
272 2 2.2208 8.23613 9.31008 10.7787
273 1 -1.1104 9.57756 7.74987 9.16112
274 2 2.2208 8.1328 12.0919 7.96406
275 2 2.2208 8.28164 6.34775 8.04673
276 2 2.2208 10.9595 6.53531 10.7034
277 2 2.2208 11.022 11.9663 10.7626
278 1 -1.1104 12.3772 7.81955 12.1456
279 1 -1.1104 12.4991 7.91227 9.34803
280 1 -1.1104 12.4343 4.94221 12.1475
281 1 -1.1104 12.4933 10.603 12.0066
282 2 2.2208 11.0057 9.21842 7.87896
283 1 -1.1104 12.4043 5.02405 9.25669
284 1 -1.1104 12.3603 10.627 9.18749
285 1 -1.1104 9.62288 7.87994 12.0358
27 1 -1.1104 12.2722 18.9861 12.1114
53 2 2.2208 10.9392 14.7747 8.10464
126 1 -1.1104 4.03486 19.1909 6.42859
124 1 -1.1104 4.11338 13.4721 6.39785
423 2 2.2208 5.52987 9.25455 13.6859
297 1 -1.1104 6.68215 13.6211 12.2248
296 1 -1.1104 6.68086 19.1535 12.4329
487 2 2.2208 5.41249 14.9817 13.6472
117 1 -1.1104 1.24773 16.2525 6.6572
108 1 -1.1104 1.37414 13.4333 6.42455
201 2 2.2208 2.68597 14.9537 10.5979
204 2 2.2208 2.49888 20.4439 11.0391
229 1 -1.1104 3.98689 16.3213 12.2583
230 1 -1.1104 1.15464 16.3073 12.1086
286 1 -1.1104 3.8243 19.2192 12.1152
287 1 -1.1104 4.03184 13.6872 12.0777
291 1 -1.1104 1.27669 19.2376 9.57036
292 1 -1.1104 1.12721 16.5078 9.28881
293 2 2.2208 5.32414 20.5709 8.08535
294 1 -1.1104 1.34007 13.7639 9.23259
295 2 2.2208 5.56189 14.941 7.88409
298 1 -1.1104 1.00999 19.0735 12.4763
299 1 -1.1104 1.22219 13.322 12.0252
300 2 2.2208 5.31641 17.8186 10.9114
301 1 -1.1104 4.07623 19.0477 9.31584
303 2 2.2208 2.73795 17.7614 7.87967
304 1 -1.1104 4.07356 16.2942 9.409
305 1 -1.1104 4.09724 13.5468 9.06097
111 1 -1.1104 6.84444 13.5176 6.66504
163 1 -1.1104 9.55887 16.222 6.72388
156 1 -1.1104 9.62385 19.0953 6.7468
26 1 -1.1104 12.4593 13.4529 12.4331
104 1 -1.1104 9.34502 19.1429 12.4075
82 1 -1.1104 12.5481 16.3424 9.38281
289 1 -1.1104 6.8751 16.2806 9.38979
290 1 -1.1104 6.81168 13.5881 9.32249
199 1 -1.1104 9.83283 16.2634 12.4643
200 1 -1.1104 9.5649 16.2184 9.42211
165 2 2.2208 8.17299 20.6778 11.0582
9171 2 2.2208 -0.156488 3.63956 13.7237
451 2 2.2208 8.16401 12.1224 13.5917
8984 2 2.2208 -0.129989 12.1408 10.7507
9243 2 2.2208 -0.00594654 9.3024 13.5416
450 2 2.2208 11.0481 9.09931 13.5695
388 2 2.2208 10.9715 3.66303 13.4789
386 2 2.2208 8.23039 0.806292 13.4952
52 2 2.2208 11.0489 -4.68341 5.23007
424 2 2.2208 2.80069 12.1062 13.4717
355 2 2.2208 5.35949 3.65396 13.4749
353 2 2.2208 5.41932 -1.93933 13.3471
306 2 2.2208 11.1024 17.7013 -0.348693
422 2 2.2208 2.52979 6.41623 13.4909
9093 2 2.2208 -0.318687 20.6397 13.6454
313 2 2.2208 5.51318 0.77363 16.3904
314 1 -1.1104 1.28148 -3.57127 17.7568
315 1 -1.1104 1.17472 2.05517 17.9502
318 1 -1.1104 1.39002 -3.73934 15.0044
320 1 -1.1104 1.15885 2.10454 15.0316
326 1 -1.1104 1.13539 -0.631642 17.7423
328 2 2.2208 5.50045 -2.05193 19.2787
330 1 -1.1104 1.19989 -0.97862 15.0511
334 1 -1.1104 4.09151 -3.43703 18.0416
335 1 -1.1104 4.17946 1.98984 17.6771
336 2 2.2208 2.62999 0.711155 19.2298
337 1 -1.1104 4.11005 -3.35281 15.0361
339 1 -1.1104 3.98168 2.21427 14.8354
341 2 2.2208 2.76619 -2.212 16.414
343 1 -1.1104 3.91773 -0.669318 17.804
344 1 -1.1104 4.03021 -0.59345 14.9904
329 2 2.2208 5.39507 3.45544 19.1664
342 2 2.2208 2.68196 3.53304 16.2774
340 1 -1.1104 3.92285 1.99108 20.6204
331 1 -1.1104 1.30721 -0.577728 20.623
319 1 -1.1104 1.17038 -3.37005 20.494
338 1 -1.1104 3.93705 -3.71194 20.7553
345 1 -1.1104 4.07292 -0.885403 20.6413
9475 2 2.2208 -0.137092 -2.05901 19.0227
324 1 -1.1104 6.69028 2.32862 15.008
9167 2 2.2208 -0.109147 3.53462 19.1881
9474 2 2.2208 -0.125648 0.670276 16.435
9433 2 2.2208 -0.245403 20.4512 24.9243
9309 2 2.2208 -0.29974 20.5886 19.3534
317 1 -1.1104 6.82261 2.16766 17.8029
316 1 -1.1104 6.99208 -3.39606 17.6781
327 1 -1.1104 6.80164 -0.567429 17.7572
323 1 -1.1104 6.87819 -3.36022 20.5487
322 1 -1.1104 7.06703 -3.31044 15.0124
332 1 -1.1104 6.98278 -0.629667 14.8298
356 2 2.2208 11.0328 0.862303 16.3826
357 1 -1.1104 12.3988 -3.31597 17.7788
358 1 -1.1104 12.4265 2.23996 17.7852
359 1 -1.1104 12.5274 -3.57605 15.1162
361 1 -1.1104 12.646 2.17732 14.9135
363 1 -1.1104 12.2903 -0.542055 17.7858
364 2 2.2208 10.9495 -2.00456 19.0411
366 1 -1.1104 12.5682 -0.679327 15.0526
368 1 -1.1104 9.60185 -3.43514 17.7969
369 1 -1.1104 9.5637 2.16129 17.6508
370 2 2.2208 8.22508 0.781697 19.1243
371 1 -1.1104 9.73029 -3.4432 14.9967
373 1 -1.1104 9.57553 2.21624 14.9989
375 2 2.2208 8.29711 -1.9925 16.4197
377 1 -1.1104 9.52656 -0.586749 17.7643
378 1 -1.1104 9.74376 -0.575307 14.9202
376 2 2.2208 8.24008 3.62219 16.3298
365 2 2.2208 10.8973 3.57063 19.1132
379 1 -1.1104 9.6735 -0.648172 20.453
372 1 -1.1104 9.73756 -3.31099 20.4772
374 1 -1.1104 9.505 2.17822 20.6197
333 1 -1.1104 6.96209 -0.541722 20.7661
325 1 -1.1104 6.7318 2.23529 20.6714
9205 2 2.2208 -0.143716 12.0779 16.4107
389 2 2.2208 5.31792 6.36373 16.3325
390 2 2.2208 5.47581 11.9516 16.4226
391 1 -1.1104 1.20424 7.86661 17.7429
393 1 -1.1104 1.14595 7.96615 14.816
397 1 -1.1104 1.25188 4.88501 17.9045
398 1 -1.1104 1.20649 10.6881 17.7334
401 2 2.2208 5.41763 9.15483 19.1382
402 1 -1.1104 1.16475 4.97594 15.1765
404 1 -1.1104 1.22092 10.8912 14.8098
410 1 -1.1104 4.05122 7.65086 17.7523
411 2 2.2208 2.49321 6.42282 19.0773
412 2 2.2208 2.63962 12.0959 19.0965
413 1 -1.1104 4.06101 7.82984 14.9813
415 2 2.2208 2.6384 9.19044 16.1102
416 1 -1.1104 4.06941 4.72004 17.8695
417 1 -1.1104 4.19556 10.6787 17.7411
418 1 -1.1104 3.95021 5.03082 15.0183
420 1 -1.1104 4.05651 10.5138 15.0209
421 1 -1.1104 3.98027 10.3486 20.4623
394 1 -1.1104 1.14995 7.81349 20.531
419 1 -1.1104 4.13198 4.83701 20.7167
392 1 -1.1104 6.81348 7.82686 17.8028
9240 2 2.2208 -0.223908 6.49064 16.42
9480 2 2.2208 -0.331661 12.0638 22.0307
9311 2 2.2208 -0.359803 17.844 16.4218
9492 2 2.2208 -0.369309 12.1549 27.5633
406 1 -1.1104 6.76656 5.12077 15.1176
399 1 -1.1104 6.85021 5.07341 17.6524
409 1 -1.1104 6.65255 10.5571 20.577
395 1 -1.1104 6.89746 7.7724 15.0057
400 1 -1.1104 6.99879 10.6625 17.9305
408 1 -1.1104 6.78139 10.4536 14.971
425 2 2.2208 11.0136 6.44631 16.4997
426 2 2.2208 11.0553 11.9798 16.4382
427 1 -1.1104 12.4154 7.87876 17.7664
428 1 -1.1104 12.3815 7.82906 14.9451
430 1 -1.1104 12.2874 5.06211 17.8407
431 1 -1.1104 12.6393 10.6485 17.8024
432 2 2.2208 10.9014 8.94968 19.2199
433 1 -1.1104 12.4368 4.86872 15.0218
435 1 -1.1104 12.4084 10.6925 14.8999
437 1 -1.1104 9.47683 7.84738 17.7206
438 2 2.2208 8.03585 6.3807 19.2333
439 2 2.2208 8.32043 11.9801 19.229
440 1 -1.1104 9.70829 7.82572 15.0058
442 2 2.2208 8.17004 9.18951 16.4466
443 1 -1.1104 9.50546 4.88039 17.8457
444 1 -1.1104 9.88044 10.6096 17.938
445 1 -1.1104 9.64148 5.12444 14.822
447 1 -1.1104 9.64192 10.7311 15.2023
448 1 -1.1104 9.44864 10.4505 20.6344
9239 2 2.2208 -0.22132 9.23672 19.243
9486 2 2.2208 -0.32807 3.68383 24.8246
632 2 2.2208 11.0296 12.0484 27.5862
452 2 2.2208 5.35481 17.7007 16.5753
453 1 -1.1104 1.26637 13.398 17.6222
454 1 -1.1104 1.15963 19.1092 17.7956
457 1 -1.1104 1.21564 13.7044 14.8713
459 1 -1.1104 1.13655 19.2682 15.1667
465 1 -1.1104 1.0556 16.4538 17.7617
467 2 2.2208 5.37916 14.8067 19.3468
468 2 2.2208 5.41627 20.4479 19.4118
469 1 -1.1104 1.18374 16.5642 15.1371
473 1 -1.1104 4.20663 13.4243 17.9926
474 1 -1.1104 3.96419 19.052 17.9125
475 2 2.2208 2.41202 17.6799 19.1621
476 1 -1.1104 4.04199 13.356 15.0263
478 1 -1.1104 3.92559 19.1069 14.8491
480 2 2.2208 2.51755 14.8752 16.2302
481 2 2.2208 2.70397 20.5362 16.4671
482 1 -1.1104 3.84644 16.1809 17.8877
483 1 -1.1104 3.98616 16.3326 15.1944
479 1 -1.1104 3.86754 19.2354 20.74
477 1 -1.1104 4.10774 13.464 20.5686
484 1 -1.1104 3.83968 16.3123 20.5576
646 1 -1.1104 6.79048 13.3869 23.7728
460 1 -1.1104 1.12902 19.1663 20.6324
462 1 -1.1104 7.04126 13.3392 20.7878
9493 2 2.2208 -0.296431 9.2314 24.679
470 1 -1.1104 1.00751 16.3485 20.7298
639 1 -1.1104 6.67465 16.4188 26.2948
385 1 -1.1104 12.3691 13.3733 26.2583
548 2 2.2208 10.9602 20.5606 24.9607
579 1 -1.1104 9.57975 19.115 26.3556
456 1 -1.1104 6.72451 19.1077 17.7987
466 1 -1.1104 6.87304 16.2261 17.8811
471 1 -1.1104 6.67533 16.3937 14.9456
472 1 -1.1104 6.68562 16.0438 20.9018
494 1 -1.1104 12.4499 18.6373 20.8708
461 1 -1.1104 6.89078 13.4205 15.1464
463 1 -1.1104 6.71587 19.1664 15.0951
455 1 -1.1104 6.81603 13.5356 17.8732
488 2 2.2208 11.0931 17.4893 16.4897
489 1 -1.1104 12.4493 13.5245 18.003
490 1 -1.1104 12.3368 18.9309 17.8237
491 1 -1.1104 12.3849 13.4019 15.134
493 1 -1.1104 12.4323 19.02 14.9779
495 1 -1.1104 12.2443 16.1789 18.0077
496 2 2.2208 10.9011 14.7775 19.3645
497 2 2.2208 11.0027 20.4051 19.1454
498 1 -1.1104 12.2909 16.1403 15.0273
500 1 -1.1104 9.62876 13.3634 17.9178
501 1 -1.1104 9.64873 18.9774 17.8526
502 2 2.2208 8.2596 17.6164 19.1592
503 1 -1.1104 9.58152 13.4303 14.9995
505 1 -1.1104 9.46594 19.1942 15.1425
507 2 2.2208 8.2869 14.8697 16.589
508 2 2.2208 8.18751 20.359 16.5854
509 1 -1.1104 9.58972 16.17 17.9464
510 1 -1.1104 9.38067 16.3119 15.2363
492 1 -1.1104 12.5008 13.2441 20.6199
506 1 -1.1104 9.6499 19.0253 20.5528
576 2 2.2208 8.2784 -4.74736 24.9228
637 1 -1.1104 6.76226 13.5731 26.4528
321 1 -1.1104 1.20351 2.25776 20.6982
9275 2 2.2208 -0.347283 14.8531 24.8792
9485 2 2.2208 -0.229672 0.899843 22.0447
516 2 2.2208 5.4496 0.856584 22.1965
517 1 -1.1104 1.30101 -3.64361 23.2731
518 1 -1.1104 1.16052 2.17846 23.4568
521 1 -1.1104 1.14079 -3.453 25.9592
522 1 -1.1104 1.16808 2.32282 26.4034
525 1 -1.1104 1.21089 -0.813508 23.4761
527 2 2.2208 5.49804 -1.92045 24.7763
529 1 -1.1104 1.16908 -0.541234 26.2396
531 1 -1.1104 4.07396 -3.36937 23.3399
532 1 -1.1104 3.83882 2.10692 23.417
533 2 2.2208 2.54251 0.778313 24.9078
534 1 -1.1104 4.00834 -3.28099 26.1703
535 1 -1.1104 4.00271 2.36127 26.2481
536 2 2.2208 2.57281 -2.13166 21.9986
538 1 -1.1104 4.04663 -0.648326 23.5329
539 1 -1.1104 4.1093 -0.534743 26.2282
537 2 2.2208 2.58389 3.63197 22.137
528 2 2.2208 5.40771 3.71287 24.919
577 1 -1.1104 6.63442 19.0907 26.4442
9484 2 2.2208 -0.141583 -1.99255 24.8056
9310 2 2.2208 -0.303885 14.8878 19.2463
362 1 -1.1104 12.2625 2.24228 20.6794
367 1 -1.1104 12.3185 -0.586521 20.525
530 1 -1.1104 7.03466 -0.492408 26.2116
360 1 -1.1104 12.4122 -3.44683 20.7176
523 1 -1.1104 6.96791 -3.12171 26.1719
526 1 -1.1104 6.79049 -0.496721 23.4716
524 1 -1.1104 6.8553 2.33306 26.1129
519 1 -1.1104 6.86617 -3.4249 23.4229
520 1 -1.1104 6.84071 2.33182 23.5394
552 2 2.2208 11.0289 0.819599 22.0671
553 1 -1.1104 12.327 -3.24589 23.5424
554 1 -1.1104 12.4552 2.29225 23.5254
555 1 -1.1104 12.4003 -3.47682 26.3001
556 1 -1.1104 12.6734 2.26954 26.3902
557 1 -1.1104 12.5177 -0.4759 23.2342
558 2 2.2208 11.1286 -1.83346 24.8804
560 1 -1.1104 12.6572 -0.526018 26.2463
561 1 -1.1104 9.57967 -3.40616 23.5679
562 1 -1.1104 9.58971 2.25443 23.502
563 2 2.2208 8.20264 0.820818 24.8016
564 1 -1.1104 9.52984 -3.44087 26.4707
565 1 -1.1104 9.76473 2.26137 26.2337
566 2 2.2208 8.30352 -2.04407 21.9702
568 1 -1.1104 9.5031 -0.660751 23.5368
569 1 -1.1104 9.88301 -0.488306 26.1044
559 2 2.2208 11.0055 3.58668 24.9445
567 2 2.2208 8.12643 3.56184 22.0326
9481 2 2.2208 -0.145398 -4.60445 27.5882
515 1 -1.1104 12.2739 19.2427 26.358
403 1 -1.1104 1.19086 5.03957 20.6474
414 1 -1.1104 3.84241 7.65564 20.3171
405 1 -1.1104 1.18043 10.801 20.3694
351 2 2.2208 10.9729 17.5935 22.2078
9418 2 2.2208 -0.127004 6.25873 22.1529
610 1 -1.1104 9.87871 16.1938 26.383
581 2 2.2208 5.39029 6.37715 21.9129
582 2 2.2208 5.50813 12.0704 21.9717
583 1 -1.1104 1.09603 7.77436 23.1458
585 1 -1.1104 1.04213 7.89205 26.0956
587 1 -1.1104 1.21782 5.00386 23.464
588 1 -1.1104 1.30689 10.6404 23.2254
591 2 2.2208 5.35091 9.26178 24.7366
592 1 -1.1104 1.02412 5.06101 26.2209
593 1 -1.1104 1.12364 10.8157 25.9559
596 1 -1.1104 3.89995 7.95353 23.2415
597 2 2.2208 2.52773 6.57847 24.6599
598 2 2.2208 2.63031 12.1914 24.6783
599 1 -1.1104 3.79082 7.97889 26.0573
600 2 2.2208 2.58124 9.25189 21.8295
601 1 -1.1104 3.74632 5.05153 23.5088
602 1 -1.1104 4.03668 10.9173 23.3292
603 1 -1.1104 3.95014 5.10289 26.2162
604 1 -1.1104 3.96729 10.6998 26.1818
590 1 -1.1104 6.56005 10.5763 23.3557
595 1 -1.1104 6.63164 10.5076 26.279
584 1 -1.1104 6.79975 7.7077 23.2458
407 1 -1.1104 6.69868 4.96824 20.4366
441 1 -1.1104 9.48547 7.70005 20.6081
434 1 -1.1104 12.2851 5.0478 20.4841
396 1 -1.1104 6.73256 7.80447 20.7004
446 1 -1.1104 9.48798 5.03726 20.669
429 1 -1.1104 12.4009 7.65415 20.6107
384 1 -1.1104 12.2977 19.0711 23.5037
436 1 -1.1104 12.3579 10.2637 20.7525
589 1 -1.1104 6.65209 5.07036 23.2203
586 1 -1.1104 6.53885 7.87924 26.1262
594 1 -1.1104 6.76819 5.2148 26.0808
612 1 -1.1104 9.52545 10.5728 26.1231
613 1 -1.1104 9.60707 5.04438 26.3636
614 1 -1.1104 9.5002 10.59 23.4648
615 1 -1.1104 9.56165 5.06044 23.4568
616 2 2.2208 8.16444 9.24016 21.9941
617 1 -1.1104 9.56004 7.90281 26.1885
618 2 2.2208 8.13179 12.0423 24.9791
619 2 2.2208 8.26705 6.45931 24.7152
620 2 2.2208 11.013 6.35632 22.1211
621 2 2.2208 11.0203 11.9235 22.0268
622 1 -1.1104 12.5271 7.65649 23.3244
623 1 -1.1104 12.3686 7.75932 26.0795
624 1 -1.1104 12.3134 5.00615 23.5276
625 1 -1.1104 12.4839 10.4869 23.6226
626 2 2.2208 10.9423 9.09987 24.9065
627 1 -1.1104 12.2918 5.08892 26.2576
628 1 -1.1104 12.3235 10.589 26.4095
629 1 -1.1104 9.51916 7.83152 23.4755
458 1 -1.1104 1.26186 13.6683 20.5065
607 2 2.2208 5.36918 12.1266 27.6632
9467 2 2.2208 -0.444305 17.7086 22.1451
349 2 2.2208 2.46585 20.4932 22.0135
350 1 -1.1104 3.84073 16.2757 23.3652
485 1 -1.1104 1.07046 16.3218 23.5757
512 1 -1.1104 3.96611 13.6843 26.139
514 1 -1.1104 3.75677 16.3942 26.3088
634 2 2.2208 2.52624 17.7507 24.8964
635 2 2.2208 2.58013 15.0259 21.9382
636 1 -1.1104 3.88806 19.1543 23.4644
638 1 -1.1104 3.91296 13.5845 23.2832
640 1 -1.1104 1.20553 18.9945 26.3113
641 1 -1.1104 0.997088 16.2195 26.2204
642 1 -1.1104 1.1166 13.6443 26.2922
644 2 2.2208 5.22778 20.3752 24.9677
645 2 2.2208 5.29292 14.9535 24.8221
647 1 -1.1104 0.940755 19.0527 23.4616
648 1 -1.1104 0.99456 13.3806 23.3069
649 2 2.2208 5.33752 17.7395 22.0365
650 1 -1.1104 3.93639 19.0397 26.3363
643 1 -1.1104 6.71191 19.3555 23.3542
580 2 2.2208 8.39696 14.7467 22.3157
578 1 -1.1104 9.52819 13.3859 26.2694
543 1 -1.1104 12.3314 16.2837 23.5092
486 1 -1.1104 6.87792 16.443 23.5933
549 1 -1.1104 12.6852 16.203 26.2944
504 1 -1.1104 9.69785 13.3784 20.7401
511 1 -1.1104 9.6424 16.1227 20.7658
464 1 -1.1104 6.78153 18.9304 20.6612
499 1 -1.1104 12.3324 16.0734 20.8575
609 1 -1.1104 9.72295 16.1278 23.625
380 1 -1.1104 12.3866 13.4656 23.4366
608 2 2.2208 8.1699 20.4743 22.0771
573 2 2.2208 8.13882 17.797 24.9934
550 1 -1.1104 9.58677 13.2742 23.5193
544 2 2.2208 11.1277 14.9289 24.9928
551 1 -1.1104 9.48729 18.8675 23.4053
309 2 2.2208 5.2859 20.6151 13.7968
346 2 2.2208 8.21461 14.9857 27.773
572 2 2.2208 8.1861 3.72658 27.6249
9313 2 2.2208 -0.364858 17.6551 27.7179
571 2 2.2208 8.43831 -1.86374 27.6756
606 2 2.2208 2.37798 9.32303 27.5312
570 2 2.2208 11.1994 0.993718 27.6748
611 2 2.2208 2.50387 14.958 27.6421
542 2 2.2208 2.55565 3.61826 27.6774
9483 2 2.2208 -0.180394 0.814638 27.7144
311 2 2.2208 8.06848 17.7974 13.7186
630 2 2.2208 10.9385 6.58462 27.773
310 2 2.2208 10.9732 20.6719 13.8657
540 2 2.2208 5.47613 0.960315 27.52
513 2 2.2208 10.9493 14.8063 13.703
541 2 2.2208 2.63141 -2.08567 27.6171
633 2 2.2208 5.26426 17.552 27.7367
545 2 2.2208 5.46632 -4.62693 27.6422
605 2 2.2208 5.16394 6.54701 27.5163
312 2 2.2208 2.54325 20.4252 27.7357
308 2 2.2208 2.48481 17.752 13.7286
631 2 2.2208 8.12407 9.1786 27.4639
651 2 2.2208 5.32791 23.2672 5.42915
652 2 2.2208 4.99648 28.8458 5.31014
653 1 -1.1104 1.32552 24.6725 1.20642
654 1 -1.1104 1.09775 24.7631 4.09175
655 1 -1.1104 1.31428 21.8783 1.16989
656 1 -1.1104 1.01227 27.6515 0.982355
657 2 2.2208 5.23946 26.0091 2.48288
658 1 -1.1104 1.25482 22.0531 3.92504
659 1 -1.1104 1.14377 27.4644 3.79717
660 1 -1.1104 4.0261 24.5582 0.948136
661 2 2.2208 2.74127 23.2717 2.44805
662 2 2.2208 2.39073 28.8651 2.48363
663 1 -1.1104 3.89476 24.718 3.86998
664 2 2.2208 2.27571 26.06 5.43751
665 1 -1.1104 4.21753 21.7657 1.04372
666 1 -1.1104 3.92428 27.2393 1.14415
667 1 -1.1104 4.0212 21.9056 3.79119
668 1 -1.1104 3.77079 27.5255 3.81816
794 1 -1.1104 1.11463 21.7201 6.53689
792 1 -1.1104 1.08275 24.6936 6.78638
676 1 -1.1104 7.0104 21.7812 4.00963
795 1 -1.1104 0.984881 27.5408 6.79187
673 1 -1.1104 6.6137 24.6286 4.03921
9807 2 2.2208 -0.286085 28.9392 5.21185
1478 1 -1.1104 0.831367 47.5373 6.4277
9810 2 2.2208 -0.35158 26.1679 2.48321
1487 1 -1.1104 6.66126 47.2357 9.38331
1479 1 -1.1104 6.66177 47.1422 6.62861
675 1 -1.1104 6.74246 27.3875 1.14857
674 1 -1.1104 6.90796 22.0328 0.937844
672 1 -1.1104 6.78748 24.7204 0.992473
677 1 -1.1104 6.65753 27.444 3.91889
678 2 2.2208 11.0885 23.4224 5.17636
679 2 2.2208 10.9434 29.0215 5.14264
680 1 -1.1104 12.4515 24.7117 0.948396
681 1 -1.1104 12.3682 24.8427 3.86815
682 1 -1.1104 12.398 21.8832 0.992443
683 1 -1.1104 12.2674 27.6864 1.09184
684 2 2.2208 10.9099 26.2645 2.45609
685 1 -1.1104 12.6198 22.0755 3.69374
686 1 -1.1104 12.3453 27.5527 3.69577
687 1 -1.1104 9.66343 24.6034 1.05747
688 2 2.2208 8.23479 23.3529 2.61692
689 2 2.2208 8.01026 28.7706 2.49886
690 1 -1.1104 9.65588 24.4433 3.80479
691 2 2.2208 7.95803 26.192 5.34913
692 1 -1.1104 9.43423 21.8121 1.0464
693 1 -1.1104 9.41722 27.5463 1.09022
694 1 -1.1104 9.81987 21.7377 4.09209
695 1 -1.1104 9.44217 27.361 3.92307
830 1 -1.1104 9.56273 27.6503 6.7038
827 1 -1.1104 12.3801 27.5748 6.62152
829 1 -1.1104 9.55 22.0144 6.7727
796 1 -1.1104 6.73088 21.8435 6.78111
826 1 -1.1104 12.619 22.0651 6.45326
9685 2 2.2208 -0.315549 23.433 10.9192
699 2 2.2208 5.3858 34.628 5.16875
700 1 -1.1104 1.01667 30.2947 1.15412
701 1 -1.1104 1.09805 35.9906 0.979307
703 1 -1.1104 1.08972 30.2309 3.77982
704 1 -1.1104 0.805366 35.9606 3.80338
706 1 -1.1104 1.0645 33.1926 0.807083
707 2 2.2208 5.26762 31.643 2.33772
708 2 2.2208 5.31624 37.4053 2.47331
709 1 -1.1104 1.10606 33.1478 3.99794
711 1 -1.1104 3.90113 30.2108 1.19541
712 1 -1.1104 3.74545 35.8966 0.916532
713 2 2.2208 2.46282 34.4634 2.40518
714 1 -1.1104 3.77549 30.3067 3.98893
715 1 -1.1104 3.90525 35.8877 3.63343
716 2 2.2208 2.47853 31.7089 5.28306
717 2 2.2208 2.46167 37.1856 5.24532
718 1 -1.1104 3.90345 33.1811 0.981749
719 1 -1.1104 3.88119 33.2704 3.86742
850 1 -1.1104 1.00152 35.9498 6.62163
854 1 -1.1104 6.45283 33.3741 6.72107
1480 1 -1.1104 3.61264 47.2099 6.61048
857 1 -1.1104 3.69912 33.2902 6.72458
853 1 -1.1104 0.947102 33.1586 6.8003
856 1 -1.1104 3.8662 36.0783 6.53493
702 1 -1.1104 6.53822 36.1139 1.01224
725 1 -1.1104 6.73222 33.1733 0.957361
723 1 -1.1104 6.65467 30.2363 0.919747
710 1 -1.1104 6.79691 33.1546 3.58972
705 1 -1.1104 6.68473 35.9881 3.68483
724 1 -1.1104 6.66751 30.3195 3.9485
726 2 2.2208 10.7465 34.5315 5.3245
727 1 -1.1104 12.2283 30.3456 0.777553
728 1 -1.1104 12.2871 35.991 0.980893
729 1 -1.1104 12.3344 30.3564 3.63542
730 1 -1.1104 12.3081 36.1344 3.6958
731 1 -1.1104 12.222 33.0295 1.06066
732 2 2.2208 10.7641 31.6039 2.36123
733 2 2.2208 10.9124 37.2991 2.46504
734 1 -1.1104 12.0856 33.1563 3.8335
735 1 -1.1104 9.53132 30.08 1.15909
736 1 -1.1104 9.34821 35.8656 0.980741
737 2 2.2208 8.00278 34.5957 2.38128
738 1 -1.1104 9.35776 30.3384 3.85466
739 1 -1.1104 9.40196 35.9913 3.85617
740 2 2.2208 7.85007 31.8286 5.26377
741 2 2.2208 8.20832 37.3935 5.24751
742 1 -1.1104 9.38017 33.0958 1.05971
743 1 -1.1104 9.4089 33.3322 3.82392
883 1 -1.1104 12.443 30.5428 6.44627
886 1 -1.1104 9.53355 30.4794 6.58366
888 1 -1.1104 9.23977 33.2048 6.57986
852 1 -1.1104 6.89805 35.9424 6.5488
1327 1 -1.1104 12.3501 47.3241 3.87943