ITEM: TIMESTEP
30000
ITEM: NUMBER OF ATOMS
17910
ITEM: BOX BOUNDS pp pp pp
-4.0598915335496921e-01 2.7745989153355222e+01
-4.6374634773004679e+00 3.3271746347729260e+02
-3.8830902560176978e-01 2.7728309025602002e+01
ITEM: ATOMS id type q x y z
1 2 2.2208 5.27685 1.16249 5.18836
2 1 -1.1104 1.1509 -3.01105 1.30898
3 1 -1.1104 1.18163 2.53575 0.922143
6 1 -1.1104 1.02977 -3.07575 3.89093
7 1 -1.1104 1.08675 2.65605 3.84538
10 1 -1.1104 0.988175 -0.197335 1.13097
12 2 2.2208 5.29044 -1.63112 2.34065
14 1 -1.1104 1.10682 -0.149531 4.02669
16 1 -1.1104 4.06547 -3.25883 1.02876
17 1 -1.1104 4.08582 2.67066 0.927409
18 2 2.2208 2.49691 1.17687 2.32872
19 1 -1.1104 3.91113 -2.98209 3.84178
20 1 -1.1104 3.782 2.56858 3.753
21 2 2.2208 2.53798 -1.68661 5.32466
23 1 -1.1104 3.75514 -0.33993 0.897067
24 1 -1.1104 3.89024 -0.295345 3.67906
22 2 2.2208 2.4231 4.01619 5.181
9065 2 2.2208 -0.215923 4.01879 2.27211
9064 2 2.2208 -0.219466 1.28225 5.30435
9061 2 2.2208 -0.19276 -1.49703 2.58312
388 2 2.2208 11.1213 3.9032 13.599
202 2 2.2208 2.54446 -4.47068 8.06918
52 2 2.2208 11.1001 -4.493 5.19567
174 1 -1.1104 4.00717 -0.22066 6.45311
172 1 -1.1104 4.08672 -3.13417 6.64477
231 2 2.2208 8.28407 -4.45059 7.94937
9066 2 2.2208 -0.271452 -4.38701 5.37102
25 2 2.2208 11.1334 17.945 10.9012
51 2 2.2208 8.11338 -4.25444 2.39714
9 1 -1.1104 6.85469 2.77344 3.75782
5 1 -1.1104 6.82976 2.61481 0.888862
15 1 -1.1104 6.73811 -0.26606 3.81865
8 1 -1.1104 6.66974 -3.02788 3.67458
4 1 -1.1104 6.75885 -2.78143 0.875111
11 1 -1.1104 6.66329 -0.253469 1.05744
31 2 2.2208 11.1092 1.22908 5.13116
32 1 -1.1104 12.503 -3.12232 0.947278
33 1 -1.1104 12.519 2.64538 0.987877
34 1 -1.1104 12.3188 -3.03165 3.94925
35 1 -1.1104 12.4699 2.73014 3.78495
36 1 -1.1104 12.3902 -0.202143 0.895494
37 2 2.2208 10.9421 -1.72921 2.47682
39 1 -1.1104 12.1496 -0.343599 3.69949
40 1 -1.1104 9.60156 -3.23284 1.12334
41 1 -1.1104 9.64863 2.67229 0.774619
42 2 2.2208 8.23037 1.19664 2.35793
43 1 -1.1104 9.50915 -3.02231 3.89595
44 1 -1.1104 9.78107 2.51066 3.75543
45 2 2.2208 8.40711 -1.51553 5.28042
47 1 -1.1104 9.41816 -0.468636 0.929658
48 1 -1.1104 9.57779 -0.109517 3.82268
38 2 2.2208 11.0334 4.02094 2.28767
209 1 -1.1104 9.64601 2.57529 6.52354
210 1 -1.1104 9.71536 -0.261702 6.55977
207 1 -1.1104 12.4415 -0.339869 6.66344
171 1 -1.1104 6.90053 -0.160352 6.63435
205 1 -1.1104 12.5142 -3.15776 6.64607
168 1 -1.1104 7.06393 -3.13334 6.59831
29 2 2.2208 5.40929 -4.58659 5.09217
28 2 2.2208 2.61005 -4.461 2.47644
9082 2 2.2208 -0.0579444 15.2479 7.98189
13 2 2.2208 5.39553 4.18033 2.3255
9072 2 2.2208 -0.287916 12.4321 5.0565
9070 2 2.2208 -0.189673 6.8631 5.07769
54 2 2.2208 5.41453 6.7347 5.03097
55 2 2.2208 5.54522 12.2355 5.09721
56 1 -1.1104 1.07841 8.22171 0.95392
58 1 -1.1104 1.19333 8.05963 3.703
60 1 -1.1104 1.2308 5.24121 0.90239
61 1 -1.1104 1.33696 11.0039 1.03187
66 2 2.2208 5.51129 9.63877 2.22638
67 1 -1.1104 1.09637 5.39748 3.83853
68 1 -1.1104 1.19907 11.0211 3.79425
71 1 -1.1104 3.94354 8.32453 0.904823
72 2 2.2208 2.56322 6.66992 2.30784
73 2 2.2208 2.70503 12.3147 2.27832
74 1 -1.1104 3.90315 7.9928 3.81038
75 2 2.2208 2.64392 9.61528 5.15197
76 1 -1.1104 3.92569 5.48157 0.971405
77 1 -1.1104 4.16716 11.12 1.03577
79 1 -1.1104 4.06608 5.42452 3.73128
80 1 -1.1104 4.14157 10.8474 3.73609
82 1 -1.1104 12.4332 16.511 9.51873
238 1 -1.1104 4.16242 8.09557 6.57678
69 1 -1.1104 6.8473 5.37714 3.78882
49 1 -1.1104 12.3924 19.4421 9.39745
9071 2 2.2208 -0.148017 9.54309 2.3986
46 2 2.2208 8.34965 3.98015 5.18085
64 1 -1.1104 6.9645 11.1687 0.918703
59 1 -1.1104 6.78967 8.38946 3.68782
63 1 -1.1104 6.72128 5.41558 0.827789
57 1 -1.1104 6.81479 8.24027 0.786704
70 1 -1.1104 6.951 11.03 3.65178
84 2 2.2208 11.0742 6.77702 5.15191
85 2 2.2208 10.9502 12.5595 5.16141
86 1 -1.1104 12.2863 8.11371 0.945155
87 1 -1.1104 12.5072 8.21247 3.76378
88 1 -1.1104 12.4697 5.33878 0.969929
89 1 -1.1104 12.502 11.0839 0.921413
91 2 2.2208 11.0906 9.74118 2.2167
92 1 -1.1104 12.2906 5.31058 3.84365
93 1 -1.1104 12.4808 11.0384 3.72434
94 1 -1.1104 9.58731 8.07472 0.870579
95 2 2.2208 8.25289 6.8103 2.36745
96 2 2.2208 8.27176 12.5872 2.27106
97 1 -1.1104 9.71674 8.33713 3.763
98 2 2.2208 8.34342 9.70849 5.06372
99 1 -1.1104 9.43092 5.38161 0.938631
100 1 -1.1104 9.69708 11.0874 0.653473
102 1 -1.1104 9.63894 5.54243 3.55699
103 1 -1.1104 9.66681 11.1527 3.50311
267 1 -1.1104 9.70136 8.21579 6.72543
265 1 -1.1104 12.4425 8.31149 6.4353
27 1 -1.1104 12.5443 19.3106 12.0792
235 1 -1.1104 6.88614 8.1172 6.51947
101 1 -1.1104 9.78418 10.905 6.45756
269 1 -1.1104 9.62081 5.44688 6.44415
199 1 -1.1104 9.6365 16.5213 12.0888
137 2 2.2208 8.17914 15.3413 10.693
9076 2 2.2208 -0.104248 20.8661 2.35828
9075 2 2.2208 0.0181655 15.2936 2.32687
106 2 2.2208 5.45992 18.0454 5.00961
107 1 -1.1104 1.11153 13.7818 0.788376
109 1 -1.1104 1.10847 19.4975 0.674802
113 1 -1.1104 1.32675 13.9454 3.86992
114 1 -1.1104 1.32847 19.4678 3.68239
116 1 -1.1104 1.20444 16.6436 0.804185
119 2 2.2208 5.21234 15.0778 2.22688
120 2 2.2208 5.4625 20.6599 2.15704
121 1 -1.1104 1.31777 16.6598 3.60542
123 1 -1.1104 3.80693 13.8495 0.755002
125 1 -1.1104 4.07693 19.4705 0.65442
127 2 2.2208 2.57682 18.04 2.13338
128 1 -1.1104 4.11162 13.7468 3.50559
129 1 -1.1104 4.04012 19.3506 3.48453
130 2 2.2208 2.74996 15.1106 5.11787
131 2 2.2208 2.59592 20.7722 5.05327
132 1 -1.1104 3.92979 16.5663 0.854862
134 1 -1.1104 3.97587 16.698 3.80433
9077 2 2.2208 -0.176224 17.8745 5.07784
138 1 -1.1104 6.95007 19.4172 0.721191
133 1 -1.1104 3.98458 16.742 6.58625
9479 2 2.2208 13.6398 -4.56478 13.6551
53 2 2.2208 10.9768 15.2584 7.93899
115 1 -1.1104 6.73379 13.8118 3.49195
112 1 -1.1104 6.8895 19.3357 6.27689
110 1 -1.1104 6.56699 13.9072 0.793486
140 1 -1.1104 6.73356 16.6427 0.828433
139 1 -1.1104 6.79385 19.3018 3.5713
122 1 -1.1104 6.91147 16.5194 3.56296
141 2 2.2208 11.1877 18.1024 5.14389
142 1 -1.1104 12.4063 13.9421 0.740553
144 1 -1.1104 12.4814 19.3916 0.786601
146 1 -1.1104 12.4098 13.7894 3.60662
147 1 -1.1104 12.7633 19.3026 3.64948
148 1 -1.1104 12.3423 16.7581 1.1166
150 2 2.2208 11.0407 15.1259 2.29558
151 2 2.2208 11.0723 20.6433 2.20908
152 1 -1.1104 12.6727 16.6782 3.73052
153 1 -1.1104 9.46863 13.8301 0.726904
155 1 -1.1104 9.61979 19.249 0.926686
157 2 2.2208 8.30068 17.9043 2.30685
158 1 -1.1104 9.73352 13.7924 3.8254
159 1 -1.1104 9.73759 19.5115 3.72061
160 2 2.2208 8.3074 15.1975 4.94648
161 2 2.2208 8.32846 20.8839 5.13715
162 1 -1.1104 9.55136 16.5209 0.857962
164 1 -1.1104 9.80019 16.5269 3.60967
145 1 -1.1104 12.5115 19.2476 6.68391
149 1 -1.1104 12.403 16.5769 6.57476
156 1 -1.1104 9.80398 19.416 6.32769
163 1 -1.1104 9.51217 16.4985 6.50209
81 2 2.2208 11.0252 20.856 8.03544
296 1 -1.1104 6.73872 19.3219 12.0252
354 2 2.2208 2.76468 1.09731 13.6506
9081 2 2.2208 -0.253718 1.32402 10.9162
9481 2 2.2208 -0.269484 -4.38387 -0.303196
203 2 2.2208 5.30307 -4.47777 10.7467
173 1 -1.1104 3.82187 2.60171 6.6467
9079 2 2.2208 -0.143748 4.18614 7.99301
167 1 -1.1104 1.07189 2.62831 6.71677
166 1 -1.1104 1.26882 -3.11592 6.64908
170 1 -1.1104 1.00239 -0.223028 6.67794
175 2 2.2208 5.52362 1.11959 10.6819
176 1 -1.1104 1.17911 -3.21394 12.4537
177 1 -1.1104 1.07317 2.659 12.0953
180 1 -1.1104 1.0416 -3.1716 9.51678
181 1 -1.1104 1.18674 2.45431 9.46169
184 1 -1.1104 1.28619 -0.37837 12.4114
186 2 2.2208 5.50773 -1.72742 8.04252
188 1 -1.1104 0.924218 -0.322422 9.4065
190 1 -1.1104 3.84742 -3.06744 12.3503
191 1 -1.1104 4.03783 2.78938 12.3452
192 2 2.2208 2.4726 1.13962 8.01845
193 1 -1.1104 4.02547 -3.09116 9.44512
194 1 -1.1104 4.11043 2.5289 9.5354
195 2 2.2208 2.56851 -1.80527 10.8142
197 1 -1.1104 4.11403 -0.421586 12.0202
198 1 -1.1104 3.90718 -0.402655 9.17666
187 2 2.2208 5.44805 3.90916 8.08928
196 2 2.2208 2.63832 4.04317 10.8639
9080 2 2.2208 -0.224758 -1.65678 8.12645
288 1 -1.1104 6.65711 19.4252 9.16665
308 2 2.2208 2.62588 17.9519 13.4361
208 1 -1.1104 9.78368 -3.08795 6.58723
232 2 2.2208 10.9798 -4.57069 10.9826
178 1 -1.1104 6.81949 -3.02262 12.2542
179 1 -1.1104 6.67574 2.55261 12.2001
169 1 -1.1104 6.64007 2.59588 6.52342
189 1 -1.1104 6.88096 -0.326654 9.46338
182 1 -1.1104 6.88443 -3.12619 9.33078
183 1 -1.1104 6.77333 2.38916 9.34508
185 1 -1.1104 6.91568 -0.284641 12.2462
206 1 -1.1104 12.2647 2.54343 6.69987
211 2 2.2208 11.1109 1.16461 10.8094
212 1 -1.1104 12.4027 -3.06765 12.3612
213 1 -1.1104 12.3689 2.45272 12.1897
214 1 -1.1104 12.406 -3.12289 9.53537
215 1 -1.1104 12.4806 2.50049 9.61375
216 1 -1.1104 12.4655 -0.214245 12.2558
217 2 2.2208 11.1198 -1.79051 8.01687
219 1 -1.1104 12.3944 -0.241385 9.51874
220 1 -1.1104 9.50858 -2.92939 12.2665
221 1 -1.1104 9.58612 2.54035 12.263
222 2 2.2208 8.36062 1.14061 7.90894
223 1 -1.1104 9.60814 -3.07488 9.41617
224 1 -1.1104 9.70646 2.4061 9.39422
225 2 2.2208 8.28363 -1.82189 10.7645
227 1 -1.1104 9.69347 -0.22681 12.4162
228 1 -1.1104 9.49632 -0.256804 9.26322
226 2 2.2208 8.16399 3.95063 10.8622
297 1 -1.1104 6.88627 13.9109 12.1358
9074 2 2.2208 13.6537 6.72166 2.36717
236 1 -1.1104 1.1263 5.47562 6.61599
8984 2 2.2208 -0.0991793 12.386 10.7638
8992 2 2.2208 -0.198854 6.79276 10.634
8991 2 2.2208 -0.387481 9.79031 7.75007
62 1 -1.1104 1.34868 11.1255 6.54828
234 1 -1.1104 1.23236 8.29096 6.43383
78 1 -1.1104 4.08623 10.898 6.4262
239 1 -1.1104 3.95336 5.4724 6.70933
240 2 2.2208 5.33585 6.86998 10.8063
241 2 2.2208 5.50938 12.5264 10.7246
242 1 -1.1104 1.28117 8.23625 12.1825
244 1 -1.1104 1.1008 8.16561 9.25729
246 1 -1.1104 1.05659 5.46547 12.133
247 1 -1.1104 1.47887 10.8252 12.2009
250 2 2.2208 5.47372 9.48079 7.9084
251 1 -1.1104 1.12495 5.4684 9.41262
252 1 -1.1104 1.3886 11.0331 9.30331
255 1 -1.1104 3.95671 8.47387 12.2395
256 2 2.2208 2.60454 6.95045 7.90902
257 2 2.2208 2.71088 12.5219 8.02961
258 1 -1.1104 3.88249 8.2891 9.45831
259 2 2.2208 2.7826 9.75065 10.6562
260 1 -1.1104 3.91918 5.5074 12.4078
261 1 -1.1104 4.3693 11.1095 12.0784
262 1 -1.1104 4.04909 5.34286 9.39431
263 1 -1.1104 4.15591 10.8701 9.2435
249 1 -1.1104 6.90141 11.013 11.945
65 1 -1.1104 6.94406 10.915 6.63689
30 1 -1.1104 12.4104 13.8345 9.14388
289 1 -1.1104 6.93295 16.5323 9.34574
90 1 -1.1104 12.4833 11.1065 6.41203
237 1 -1.1104 6.82131 5.23541 6.55353
218 2 2.2208 10.9685 4.04067 8.20701
266 1 -1.1104 12.5717 5.47317 6.60052
254 1 -1.1104 6.78438 10.9803 9.32634
243 1 -1.1104 6.92664 8.21413 12.2956
253 1 -1.1104 6.84916 5.38984 9.43073
245 1 -1.1104 6.70782 8.12292 9.50065
248 1 -1.1104 6.85885 5.49175 12.2508
264 1 -1.1104 9.86982 10.9736 9.33676
268 1 -1.1104 9.48994 5.23379 9.4475
270 1 -1.1104 9.65203 10.848 12.0243
271 1 -1.1104 9.61587 5.45048 12.2296
272 2 2.2208 8.253 9.59313 10.7358
273 1 -1.1104 9.47014 8.05545 9.50874
274 2 2.2208 8.30553 12.285 8.02559
275 2 2.2208 8.1427 6.74843 7.97799
276 2 2.2208 10.9635 6.83416 10.7236
277 2 2.2208 11.1905 12.3523 10.7344
278 1 -1.1104 12.2797 8.24662 12.2138
279 1 -1.1104 12.0825 8.2043 9.29471
280 1 -1.1104 12.4491 5.25914 12.2612
281 1 -1.1104 12.5409 11.0541 12.1047
282 2 2.2208 11.1424 9.67447 7.82044
283 1 -1.1104 12.5329 5.64927 9.55368
284 1 -1.1104 12.5442 11.0475 9.10045
285 1 -1.1104 9.70365 8.09685 12.1321
154 1 -1.1104 9.68628 13.7268 6.76963
118 1 -1.1104 6.776 16.5944 6.51171
290 1 -1.1104 6.73098 13.7175 9.16798
541 2 2.2208 2.68027 -1.65111 -0.260425
111 1 -1.1104 6.96708 13.6894 6.23444
9084 2 2.2208 -0.306017 20.5958 7.8161
126 1 -1.1104 3.92 19.5041 6.42904
108 1 -1.1104 1.23419 13.9406 6.60864
117 1 -1.1104 1.26786 16.6651 6.42103
9083 2 2.2208 -0.281018 18.0353 10.7087
302 1 -1.1104 1.12262 19.444 6.43139
124 1 -1.1104 4.11714 13.6682 6.54553
201 2 2.2208 2.6885 15.2432 10.7136
204 2 2.2208 2.55818 20.8528 10.6129
229 1 -1.1104 3.91439 16.6634 12.1052
230 1 -1.1104 1.20118 16.5334 12.079
286 1 -1.1104 3.88027 19.5121 12.1161
287 1 -1.1104 4.08476 13.8071 12.082
291 1 -1.1104 0.996393 19.4353 9.31727
292 1 -1.1104 1.32825 16.5443 9.3112
293 2 2.2208 5.16547 20.7982 7.94477
294 1 -1.1104 1.1562 13.7373 9.32556
295 2 2.2208 5.55679 15.2414 7.77646
298 1 -1.1104 1.24946 19.4042 12.0208
299 1 -1.1104 1.38126 13.8068 12.1622
300 2 2.2208 5.21978 18.0314 10.675
301 1 -1.1104 3.96932 19.4119 9.41322
303 2 2.2208 2.69127 18.0743 7.87253
304 1 -1.1104 4.0923 16.6762 9.34406
305 1 -1.1104 4.01128 13.7979 9.37892
83 1 -1.1104 9.6164 13.6799 12.1053
200 1 -1.1104 9.58469 16.6719 9.11167
50 1 -1.1104 12.4824 16.6398 12.2677
135 1 -1.1104 9.60867 13.8324 9.45582
136 1 -1.1104 9.4447 19.5433 9.14951
26 1 -1.1104 12.4951 13.9692 11.8683
143 1 -1.1104 12.4348 13.9242 6.51846
104 1 -1.1104 9.718 19.2425 12.1623
233 1 -1.1104 6.71627 16.6833 12.175
105 2 2.2208 8.37044 17.9643 7.7127
165 2 2.2208 7.98354 20.7924 10.6797
423 2 2.2208 5.54818 9.58162 13.5307
386 2 2.2208 8.2874 1.08634 13.5729
451 2 2.2208 8.26909 12.4909 13.3923
311 2 2.2208 8.19776 17.971 13.5488
9312 2 2.2208 -0.167294 15.1708 13.4804
310 2 2.2208 11.0048 20.6247 13.5543
9093 2 2.2208 -0.173598 20.8486 13.47
424 2 2.2208 2.73402 12.4311 13.454
355 2 2.2208 5.57965 3.96715 13.6065
487 2 2.2208 5.51718 15.2838 13.6488
513 2 2.2208 10.9944 15.1098 13.4599
9476 2 2.2208 -0.228817 -1.65495 13.5986
450 2 2.2208 10.8996 9.71708 13.6027
9243 2 2.2208 -0.161423 9.44132 13.5154
9171 2 2.2208 -0.20212 3.94719 13.5438
313 2 2.2208 5.4156 1.22807 16.5473
314 1 -1.1104 1.02891 -3.25847 18.0193
315 1 -1.1104 1.16091 2.62528 17.6817
318 1 -1.1104 1.15459 -3.17894 15.2401
320 1 -1.1104 1.28875 2.56567 14.8113
326 1 -1.1104 1.27811 -0.301588 17.8962
328 2 2.2208 5.33433 -1.70183 19.1966
329 2 2.2208 5.39908 3.88566 19.1176
330 1 -1.1104 1.06179 -0.233674 15.1204
334 1 -1.1104 3.79 -3.09547 17.8492
335 1 -1.1104 3.79391 2.37236 17.7798
336 2 2.2208 2.60398 1.05589 19.2961
337 1 -1.1104 3.95547 -3.23985 15.09
339 1 -1.1104 4.05828 2.59199 15.1024
341 2 2.2208 2.4457 -1.72363 16.5212
343 1 -1.1104 3.98042 -0.31493 18.034
344 1 -1.1104 3.94828 -0.325139 14.9694
342 2 2.2208 2.63641 3.89034 16.3362
321 1 -1.1104 1.23994 2.47451 20.6258
9475 2 2.2208 -0.260527 -1.74533 19.1986
9474 2 2.2208 -0.235019 1.23445 16.3587
9167 2 2.2208 -0.0396285 3.82388 19.2948
347 2 2.2208 5.29685 -4.58359 16.329
545 2 2.2208 5.44779 -4.50443 27.6555
9467 2 2.2208 -0.287482 17.8491 21.9474
575 2 2.2208 10.7934 -4.47301 22.1058
331 1 -1.1104 1.14421 -0.392234 20.7164
574 2 2.2208 11.174 -4.34962 27.7052
381 2 2.2208 10.9509 -4.46769 16.5638
9482 2 2.2208 -0.17481 -4.52381 22.2037
317 1 -1.1104 6.80727 2.53414 17.8767
332 1 -1.1104 6.73581 -0.242172 15.167
324 1 -1.1104 6.81575 2.62963 14.8417
327 1 -1.1104 6.69393 -0.494944 17.8444
316 1 -1.1104 6.65538 -3.37134 17.8479
322 1 -1.1104 6.76517 -3.10721 15.2505
356 2 2.2208 11.0356 1.06077 16.4971
357 1 -1.1104 12.3462 -3.13922 18.0527
358 1 -1.1104 12.3391 2.45857 17.9546
359 1 -1.1104 12.4874 -3.01847 14.9394
361 1 -1.1104 12.4299 2.64024 14.9901
363 1 -1.1104 12.4362 -0.412939 17.871
364 2 2.2208 10.8972 -1.7751 19.3507
366 1 -1.1104 12.4917 -0.186353 15.1088
368 1 -1.1104 9.43567 -3.13091 17.8075
369 1 -1.1104 9.52501 2.61506 18.1047
370 2 2.2208 8.199 1.2056 19.2604
371 1 -1.1104 9.66868 -3.06374 15.12
373 1 -1.1104 9.67 2.46464 15.2621
375 2 2.2208 8.16553 -1.76299 16.5144
377 1 -1.1104 9.65085 -0.161238 17.9839
378 1 -1.1104 9.60883 -0.351573 15.103
365 2 2.2208 11.0712 3.95565 19.2646
376 2 2.2208 8.26279 3.87204 16.5362
374 1 -1.1104 9.68408 2.5848 20.7913
379 1 -1.1104 9.62386 -0.219108 20.7377
9480 2 2.2208 -0.177589 12.3091 22.0608
9313 2 2.2208 -0.220936 17.9918 27.5159
362 1 -1.1104 12.6828 2.44598 20.6089
9275 2 2.2208 -0.240615 15.0898 24.8482
389 2 2.2208 5.4268 6.77226 16.6222
390 2 2.2208 5.22323 12.5045 16.4356
391 1 -1.1104 1.16082 8.24099 17.8157
393 1 -1.1104 1.18214 8.08786 14.9947
397 1 -1.1104 1.39009 5.39179 17.8322
398 1 -1.1104 1.20192 10.9802 17.6523
401 2 2.2208 5.27582 9.68708 19.1629
402 1 -1.1104 1.2324 5.28024 14.9484
404 1 -1.1104 1.37335 11.0248 14.8767
410 1 -1.1104 3.8221 8.11809 17.9473
411 2 2.2208 2.69264 6.67642 19.3562
412 2 2.2208 2.46882 12.4435 19.1324
413 1 -1.1104 4.08374 8.09499 15.1531
415 2 2.2208 2.57142 9.56676 16.4316
416 1 -1.1104 4.18225 5.31591 18.0816
417 1 -1.1104 3.99978 11.1055 17.8923
418 1 -1.1104 4.18282 5.37662 15.1454
420 1 -1.1104 4.0971 11.0783 15.0494
9240 2 2.2208 -0.188966 6.58725 16.5142
421 1 -1.1104 3.94401 10.8255 20.7096
9239 2 2.2208 -0.165073 9.41026 19.0769
400 1 -1.1104 7.07347 11.2332 17.619
542 2 2.2208 2.68611 3.88318 27.6748
9492 2 2.2208 -0.307659 12.2802 27.6266
403 1 -1.1104 1.24154 5.19794 20.5666
394 1 -1.1104 1.21456 7.91407 20.6744
383 2 2.2208 8.15802 -4.3432 13.7798
395 1 -1.1104 6.85005 8.26235 15.1274
408 1 -1.1104 6.87701 11.0218 14.7211
399 1 -1.1104 6.98205 5.54774 17.9441
392 1 -1.1104 6.8652 8.29559 17.785
406 1 -1.1104 6.79769 5.32275 15.0697
425 2 2.2208 11.0094 6.75361 16.2557
426 2 2.2208 11.0794 12.4284 16.2719
427 1 -1.1104 12.4979 8.22395 17.9164
428 1 -1.1104 12.6669 8.09398 15.1613
430 1 -1.1104 12.551 5.41533 17.794
431 1 -1.1104 12.4656 10.8434 17.7341
432 2 2.2208 11.0194 9.6197 19.256
433 1 -1.1104 12.4508 5.46577 14.7288
435 1 -1.1104 12.3295 10.8893 15.0058
437 1 -1.1104 9.76495 8.40299 17.6712
438 2 2.2208 8.26797 6.8691 19.3061
439 2 2.2208 8.2989 12.4831 19.1428
440 1 -1.1104 9.80591 8.31056 15.0859
442 2 2.2208 8.20083 9.57885 16.2417
443 1 -1.1104 9.53944 5.53075 17.6955
444 1 -1.1104 9.83639 11.2281 18.0313
445 1 -1.1104 9.63876 5.21798 14.8318
447 1 -1.1104 9.50535 11.079 14.9628
448 1 -1.1104 9.527 11.0298 20.7072
407 1 -1.1104 6.77087 5.44535 20.579
434 1 -1.1104 12.4252 5.43867 20.5532
446 1 -1.1104 9.6968 5.31842 20.5894
9205 2 2.2208 -0.166464 12.4386 16.3933
633 2 2.2208 5.33499 18.1059 27.4822
9310 2 2.2208 -0.228483 15.1981 19.1872
9309 2 2.2208 -0.258318 20.7968 19.2815
452 2 2.2208 5.31541 18.0355 16.3084
453 1 -1.1104 1.17303 13.956 17.7423
454 1 -1.1104 1.10793 19.4894 17.6089
457 1 -1.1104 1.1515 13.8591 14.981
459 1 -1.1104 1.15074 19.4294 14.9126
465 1 -1.1104 1.14981 16.6406 17.81
467 2 2.2208 5.38646 15.3629 19.2484
468 2 2.2208 5.29864 20.8048 19.159
469 1 -1.1104 1.07628 16.6259 14.7769
473 1 -1.1104 3.90926 13.9375 17.786
474 1 -1.1104 3.94628 19.409 17.5537
475 2 2.2208 2.59015 17.9306 19.2059
476 1 -1.1104 3.9703 13.8804 14.9828
478 1 -1.1104 3.84724 19.2839 14.8871
480 2 2.2208 2.55363 15.2404 16.2329
481 2 2.2208 2.57629 20.8085 16.3651
482 1 -1.1104 3.89907 16.7258 17.7058
483 1 -1.1104 3.94368 16.6045 14.694
9311 2 2.2208 -0.166098 18.086 16.2986
579 1 -1.1104 9.64085 19.3967 26.1791
9493 2 2.2208 -0.268754 9.52304 24.7966
470 1 -1.1104 1.2846 16.7217 20.8501
484 1 -1.1104 3.91092 16.3781 20.5692
479 1 -1.1104 3.89304 19.2414 20.3358
639 1 -1.1104 6.92763 16.5412 25.9907
385 1 -1.1104 12.4437 13.9086 26.0898
580 2 2.2208 8.13635 15.0464 21.7794
544 2 2.2208 10.9148 15.2144 24.6018
456 1 -1.1104 6.68567 19.466 17.5059
455 1 -1.1104 6.62575 13.8763 17.8094
461 1 -1.1104 6.77632 13.8197 14.8782
466 1 -1.1104 6.83784 16.6378 17.7745
463 1 -1.1104 6.72423 19.3622 14.9099
471 1 -1.1104 7.02911 16.5131 14.9859
488 2 2.2208 11.1641 17.9389 16.3078
489 1 -1.1104 12.5339 13.7441 17.7509
490 1 -1.1104 12.4006 19.4689 17.6558
491 1 -1.1104 12.3123 13.5984 14.7321
493 1 -1.1104 12.4913 19.1884 14.8804
495 1 -1.1104 12.4063 16.7608 17.7431
496 2 2.2208 11.1631 15.2585 19.2005
497 2 2.2208 10.9597 20.8319 19.0724
498 1 -1.1104 12.2766 16.165 15.1954
500 1 -1.1104 9.76348 14.0868 17.9109
501 1 -1.1104 9.55404 19.515 17.7163
502 2 2.2208 8.35815 17.9366 19.1533
503 1 -1.1104 9.52138 13.8221 15.1573
505 1 -1.1104 9.65667 19.3932 14.8402
507 2 2.2208 8.18323 15.1449 16.5348
508 2 2.2208 8.22524 20.7652 16.343
509 1 -1.1104 9.60054 16.6367 17.4998
510 1 -1.1104 9.70558 16.7567 14.6132
494 1 -1.1104 12.2698 19.1777 20.4427
511 1 -1.1104 9.74211 16.6092 20.5689
472 1 -1.1104 6.89996 16.6226 20.5384
506 1 -1.1104 9.59541 19.6851 20.412
486 1 -1.1104 6.74093 16.7428 23.2513
338 1 -1.1104 4.02327 -3.11668 20.5361
547 2 2.2208 2.67165 -4.42274 24.9509
546 2 2.2208 5.31206 -4.50673 22.1158
611 2 2.2208 2.57371 15.1774 27.5837
345 1 -1.1104 4.0178 -0.215929 20.6982
9485 2 2.2208 -0.226542 1.04534 21.9452
340 1 -1.1104 4.13201 2.6189 20.6345
319 1 -1.1104 1.23787 -3.23361 20.8938
516 2 2.2208 5.52086 1.12485 22.1059
517 1 -1.1104 1.49898 -3.08552 23.5155
518 1 -1.1104 1.29582 2.4763 23.4809
521 1 -1.1104 1.17848 -3.07718 26.3565
522 1 -1.1104 1.04341 2.49008 26.2278
525 1 -1.1104 1.30987 -0.45092 23.6044
527 2 2.2208 5.32573 -1.72791 24.93
529 1 -1.1104 1.2207 -0.419681 26.5186
531 1 -1.1104 4.28022 -3.02686 23.4826
532 1 -1.1104 4.06744 2.56847 23.3174
533 2 2.2208 2.55899 1.14457 24.8219
534 1 -1.1104 4.01648 -3.0939 26.2881
535 1 -1.1104 3.83802 2.53868 26.1127
536 2 2.2208 2.63929 -1.73098 21.9943
538 1 -1.1104 3.9053 -0.250112 23.4829
539 1 -1.1104 4.14397 -0.291981 26.3557
528 2 2.2208 5.31959 3.90791 24.8436
537 2 2.2208 2.68789 3.99699 22.0553
9486 2 2.2208 -0.0507346 3.87012 24.7842
631 2 2.2208 8.29412 9.57532 27.6478
608 2 2.2208 8.15264 20.8216 21.9372
306 2 2.2208 11.0002 18.0234 27.6223
9484 2 2.2208 -0.247774 -1.79768 25.0797
323 1 -1.1104 6.83556 -3.01926 20.6685
367 1 -1.1104 12.3499 -0.37009 20.6475
333 1 -1.1104 6.89429 -0.165558 20.7218
325 1 -1.1104 6.85998 2.50382 20.7098
530 1 -1.1104 6.80422 -0.386793 26.3149
523 1 -1.1104 6.82707 -3.23494 26.2886
520 1 -1.1104 6.93011 2.46562 23.3475
526 1 -1.1104 6.63964 -0.666695 23.608
519 1 -1.1104 6.95584 -3.34069 23.5954
524 1 -1.1104 6.665 2.71613 26.2606
372 1 -1.1104 9.51331 -3.02151 20.5832
360 1 -1.1104 12.4699 -3.16688 20.8194
552 2 2.2208 11.1331 1.05533 22.0729
553 1 -1.1104 12.2223 -3.30055 23.5878
554 1 -1.1104 12.4915 2.45748 23.4596
555 1 -1.1104 12.6133 -3.01077 26.3319
556 1 -1.1104 12.5627 2.52837 26.2368
557 1 -1.1104 12.5235 -0.449715 23.4892
558 2 2.2208 11.0267 -1.69625 24.7683
559 2 2.2208 10.9522 3.90268 24.7862
560 1 -1.1104 12.6775 -0.172701 26.1889
561 1 -1.1104 9.66872 -2.89139 23.3994
562 1 -1.1104 9.47677 2.55576 23.6083
563 2 2.2208 8.15623 0.998643 24.8944
564 1 -1.1104 9.66979 -3.15421 26.2178
565 1 -1.1104 9.5938 2.43662 26.1067
566 2 2.2208 8.17959 -1.61915 21.9755
567 2 2.2208 8.26967 4.0229 22.1209
568 1 -1.1104 9.56514 -0.0669729 23.3872
569 1 -1.1104 9.69677 -0.31364 26.2858
543 1 -1.1104 12.2952 16.591 23.3195
414 1 -1.1104 3.99459 8.19703 20.5892
637 1 -1.1104 6.93191 13.7471 26.1287
9418 2 2.2208 -0.323564 6.6995 21.9976
405 1 -1.1104 0.959909 10.8424 20.5425
419 1 -1.1104 4.0228 5.3166 20.7349
351 2 2.2208 10.9621 18.047 21.9076
382 2 2.2208 8.18496 -4.57126 19.1278
581 2 2.2208 5.38369 6.71173 21.9753
582 2 2.2208 5.31243 12.4114 21.988
583 1 -1.1104 0.985716 8.10424 23.5205
585 1 -1.1104 1.17507 8.18818 26.1764
587 1 -1.1104 1.27442 5.17716 23.4038
588 1 -1.1104 1.16312 10.9753 23.2794
591 2 2.2208 5.13722 9.3933 24.8608
592 1 -1.1104 1.1536 5.39816 26.0955
593 1 -1.1104 1.20777 10.7938 26.2313
596 1 -1.1104 3.80541 8.23577 23.3638
597 2 2.2208 2.51988 6.72962 24.8375
598 2 2.2208 2.61635 12.4088 24.8431
599 1 -1.1104 3.87345 8.07116 26.147
600 2 2.2208 2.47217 9.53658 21.9326
601 1 -1.1104 3.89953 5.32378 23.5309
602 1 -1.1104 3.85436 11.002 23.5394
603 1 -1.1104 3.84002 5.32249 26.3385
604 1 -1.1104 4.01751 10.9615 26.3801
577 1 -1.1104 6.82026 19.2766 26.1758
515 1 -1.1104 12.4692 19.3773 26.102
548 2 2.2208 10.9855 20.8163 24.8294
396 1 -1.1104 6.79292 8.35539 20.4661
441 1 -1.1104 9.68991 8.17846 20.6901
436 1 -1.1104 12.5121 11.0504 20.5564
429 1 -1.1104 12.6274 8.11904 20.7412
409 1 -1.1104 6.80471 11.0478 20.3169
594 1 -1.1104 6.63398 5.42711 26.2502
590 1 -1.1104 6.759 11.0315 23.3704
586 1 -1.1104 6.64684 7.99617 26.1816
589 1 -1.1104 6.70014 5.38026 23.3834
595 1 -1.1104 6.76831 10.8061 26.1685
584 1 -1.1104 6.66266 8.14755 23.28
612 1 -1.1104 9.68057 10.8626 26.208
613 1 -1.1104 9.78832 5.26782 26.1359
614 1 -1.1104 9.75569 11.0493 23.3536
615 1 -1.1104 9.59561 5.42266 23.4873
616 2 2.2208 8.23188 9.59822 21.9704
617 1 -1.1104 9.55009 8.00742 26.1337
618 2 2.2208 8.22867 12.3115 24.7105
619 2 2.2208 8.16512 6.79142 24.6728
620 2 2.2208 11.0541 6.55681 22.0116
621 2 2.2208 11.1842 12.36 21.9592
622 1 -1.1104 12.2507 8.06684 23.6129
623 1 -1.1104 12.5657 8.13464 26.3037
624 1 -1.1104 12.4905 5.23381 23.4696
625 1 -1.1104 12.6234 10.9637 23.2889
626 2 2.2208 11.0285 9.56512 24.8338
627 1 -1.1104 12.5768 5.38712 26.3669
628 1 -1.1104 12.328 10.9631 26.3046
629 1 -1.1104 9.49375 8.36352 23.369
492 1 -1.1104 12.437 13.7161 20.5309
9433 2 2.2208 -0.251505 20.7402 24.7732
458 1 -1.1104 1.07018 13.6996 20.5737
477 1 -1.1104 4.03382 13.6722 20.6732
499 1 -1.1104 12.5708 16.5771 20.539
460 1 -1.1104 1.03418 19.3311 20.5567
349 2 2.2208 2.52195 20.7875 21.9237
350 1 -1.1104 3.97632 16.5656 23.3547
485 1 -1.1104 1.05476 16.4436 23.5028
512 1 -1.1104 3.97091 13.942 26.0776
514 1 -1.1104 3.83265 16.6498 26.2202
634 2 2.2208 2.39447 18.022 24.757
635 2 2.2208 2.58328 15.1106 21.9287
636 1 -1.1104 3.84094 19.322 23.2508
638 1 -1.1104 3.89204 13.7402 23.3387
640 1 -1.1104 1.13822 19.4321 25.9803
641 1 -1.1104 1.16908 16.5683 26.124
642 1 -1.1104 1.11489 13.5384 26.1443
644 2 2.2208 5.50424 20.7149 24.6094
645 2 2.2208 5.4478 15.2067 24.8105
647 1 -1.1104 1.12252 19.3151 23.3508
648 1 -1.1104 1.24967 13.7168 23.3637
649 2 2.2208 5.40996 17.9799 21.9561
650 1 -1.1104 3.81966 19.3977 26.0447
609 1 -1.1104 9.50767 16.5343 23.1297
462 1 -1.1104 6.64323 13.7868 20.4954
384 1 -1.1104 12.3902 19.4739 23.2298
550 1 -1.1104 9.62301 13.8192 23.399
578 1 -1.1104 9.69441 13.6603 26.3298
380 1 -1.1104 12.413 13.7028 23.4565
549 1 -1.1104 12.642 16.6643 26.2296
610 1 -1.1104 9.58388 16.665 26.0386
573 2 2.2208 8.09243 17.9602 24.7875
643 1 -1.1104 6.70543 19.4649 23.2181
646 1 -1.1104 6.81884 13.7965 23.3164
464 1 -1.1104 6.85957 19.2672 20.311
551 1 -1.1104 9.4772 19.2618 23.2179
504 1 -1.1104 9.51656 13.711 20.4886
605 2 2.2208 5.38901 6.78907 27.7121
346 2 2.2208 8.10505 15.1805 27.4893
9483 2 2.2208 -0.134116 1.09234 27.6195
630 2 2.2208 10.9634 6.72744 27.5462
312 2 2.2208 2.54547 20.8546 27.479
606 2 2.2208 2.53331 9.61477 27.6125
9472 2 2.2208 -0.262921 6.66619 27.5802
632 2 2.2208 11.0398 12.5491 27.5613
307 2 2.2208 8.22681 20.7796 27.5445
9468 2 2.2208 -0.31969 -4.51916 16.5959
572 2 2.2208 8.21888 3.97384 27.576
607 2 2.2208 5.53628 12.43 27.4896
570 2 2.2208 11.0903 0.966799 27.4673
309 2 2.2208 5.24066 20.8311 13.6469
422 2 2.2208 2.54514 6.74031 13.6852
353 2 2.2208 5.40788 -1.82545 13.7489
387 2 2.2208 11.0532 -1.65165 13.8816
571 2 2.2208 8.17261 -1.80874 27.577
449 2 2.2208 8.26268 6.75282 13.694
352 2 2.2208 2.49207 -4.63567 13.6971
540 2 2.2208 5.37367 1.27009 27.6938
651 2 2.2208 5.22216 23.6027 5.08502
652 2 2.2208 5.45957 29.3565 5.05634
653 1 -1.1104 0.991568 24.9786 0.762565
654 1 -1.1104 1.38265 25.0771 3.5546
655 1 -1.1104 1.14907 22.162 0.733256
656 1 -1.1104 1.22042 27.7165 0.916717
657 2 2.2208 5.38082 26.4541 2.21143
658 1 -1.1104 1.2071 22.26 3.61006
659 1 -1.1104 1.08475 27.7649 3.68934
660 1 -1.1104 3.97952 24.9054 0.99542
661 2 2.2208 2.65796 23.6979 2.25086
662 2 2.2208 2.59137 29.0972 2.24875
663 1 -1.1104 4.07555 25.0254 3.67695
664 2 2.2208 2.65582 26.4531 4.94024
665 1 -1.1104 3.99796 22.0659 0.696925
666 1 -1.1104 4.10736 27.6274 0.733178
667 1 -1.1104 4.14089 22.215 3.51151
668 1 -1.1104 3.90092 27.8111 3.5782
9809 2 2.2208 -0.251388 23.5412 5.11967
672 1 -1.1104 6.75113 24.997 0.847785
9773 2 2.2208 13.5283 46.2397 8.09546
798 1 -1.1104 3.91608 24.9937 6.52909
794 1 -1.1104 1.15671 22.2212 6.49461
800 1 -1.1104 3.91022 27.9171 6.35507
971 2 2.2208 10.7119 43.3861 13.5918
965 2 2.2208 5.11935 43.4183 13.6504
677 1 -1.1104 6.73848 27.7385 3.69481
673 1 -1.1104 6.85343 24.9011 3.71315
676 1 -1.1104 6.95233 21.9741 3.5588
675 1 -1.1104 6.96579 27.9477 0.859882
674 1 -1.1104 6.82085 22.1245 0.724559
678 2 2.2208 11.1673 23.3961 5.12904
679 2 2.2208 11.0126 29.184 5.12353
680 1 -1.1104 12.5263 24.8427 0.952904
681 1 -1.1104 12.6393 24.9803 3.71015
682 1 -1.1104 12.5125 22.0441 0.579142
683 1 -1.1104 12.573 27.6304 0.991058
684 2 2.2208 11.1021 26.3543 2.36924
685 1 -1.1104 12.439 22.2046 3.6491
686 1 -1.1104 12.4099 27.8671 3.97512
687 1 -1.1104 9.61271 24.8656 1.05102
688 2 2.2208 8.15095 23.2825 2.38283
689 2 2.2208 8.16682 29.1748 2.45265
690 1 -1.1104 9.71608 24.8411 3.77991
691 2 2.2208 8.09375 26.3235 5.08949
692 1 -1.1104 9.68493 22.0583 1.02153
693 1 -1.1104 9.69084 27.6465 0.901001
694 1 -1.1104 9.77538 22.3085 3.64756
695 1 -1.1104 9.54325 27.6201 3.79544
796 1 -1.1104 6.71425 22.2677 6.55389
793 1 -1.1104 6.58714 24.9979 6.50041
797 1 -1.1104 6.68061 28.1125 6.43843
830 1 -1.1104 9.60434 27.8347 6.53508
827 1 -1.1104 12.3372 27.9493 6.62597
9747 2 2.2208 -0.275752 34.918 10.9271
948 2 2.2208 2.48796 29.2829 13.543
9820 2 2.2208 -0.340414 40.3668 5.20269
699 2 2.2208 5.38532 34.8439 5.20825
700 1 -1.1104 1.04051 30.4401 0.883408
701 1 -1.1104 1.20406 36.21 0.691053
703 1 -1.1104 1.31687 30.6135 3.73528
704 1 -1.1104 1.1408 36.0971 3.65757
706 1 -1.1104 1.2455 33.2986 0.933781
707 2 2.2208 5.4179 32.0495 2.23904
708 2 2.2208 5.46934 37.6047 2.18233
709 1 -1.1104 1.46507 33.5773 3.81524
711 1 -1.1104 4.02291 30.6127 0.726024
712 1 -1.1104 4.06192 36.098 0.890323
713 2 2.2208 2.57009 34.7975 2.34076
714 1 -1.1104 4.12997 30.5458 3.5257
715 1 -1.1104 4.03488 36.1428 3.81264
716 2 2.2208 2.79888 32.1908 5.07232
717 2 2.2208 2.5601 37.5001 5.12725
718 1 -1.1104 4.0404 33.0804 0.779329
719 1 -1.1104 4.08075 33.3475 3.83539
723 1 -1.1104 6.84405 30.8756 0.869122
9683 2 2.2208 -0.245955 29.2513 10.7015
954 2 2.2208 10.9627 26.3142 13.5618
850 1 -1.1104 1.10594 36.2157 6.46523
857 1 -1.1104 3.99151 33.3555 6.73676
855 1 -1.1104 3.95234 30.6665 6.30912
853 1 -1.1104 1.02963 33.2918 6.47496
849 1 -1.1104 1.36686 30.5909 6.52263
856 1 -1.1104 3.95876 36.1821 6.725
854 1 -1.1104 6.77244 33.5486 6.49158
970 2 2.2208 8.1229 40.3243 13.4299
9684 2 2.2208 -0.268094 26.4947 7.87826
725 1 -1.1104 6.7146 33.487 0.978777
724 1 -1.1104 6.81074 30.7754 3.67456
702 1 -1.1104 6.75001 36.1808 0.876478