ITEM: TIMESTEP
40000
ITEM: NUMBER OF ATOMS
17910
ITEM: BOX BOUNDS pp pp pp
-3.9557190729741754e-01 2.7735571907297366e+01
-4.7099702544738529e+00 3.3278997025446580e+02
-3.9580779276460448e-01 2.7735807792765055e+01
ITEM: ATOMS id type q x y z
1 2 2.2208 5.3426 0.82928 5.33013
2 1 -1.1104 0.844572 -3.42961 0.966287
3 1 -1.1104 0.771844 2.31083 0.956643
6 1 -1.1104 0.938248 -3.35738 3.88314
7 1 -1.1104 1.02944 2.46888 3.84068
10 1 -1.1104 1.04876 -0.71978 1.05753
12 2 2.2208 5.05954 -1.71788 2.59947
14 1 -1.1104 0.740263 -0.451785 3.71819
16 1 -1.1104 3.69462 -3.28519 0.999382
17 1 -1.1104 3.63936 2.20198 0.838029
18 2 2.2208 2.33562 0.984601 2.52361
19 1 -1.1104 3.67707 -3.5121 3.83191
20 1 -1.1104 3.85877 2.20263 3.85428
21 2 2.2208 2.4955 -1.93608 5.43025
23 1 -1.1104 3.98334 -0.433905 1.15979
24 1 -1.1104 3.74077 -0.53067 4.10764
22 2 2.2208 2.37142 3.64164 5.18326
5 1 -1.1104 6.53656 2.26414 1.18936
4 1 -1.1104 6.74371 -3.19793 0.950273
11 1 -1.1104 6.7089 -0.264345 0.826818
9 1 -1.1104 6.6984 2.25204 3.93358
8 1 -1.1104 6.41474 -3.28775 3.79277
13 2 2.2208 5.26868 3.74686 2.40932
174 1 -1.1104 3.76823 -0.542225 6.82155
166 1 -1.1104 1.06753 -3.50261 6.669
170 1 -1.1104 0.834006 -0.621745 6.80094
171 1 -1.1104 6.65106 -0.542067 6.81176
15 1 -1.1104 6.57719 -0.543439 3.87944
31 2 2.2208 10.7401 0.803012 5.28104
32 1 -1.1104 12.1438 -3.50468 1.37115
33 1 -1.1104 12.2137 2.25364 1.09214
34 1 -1.1104 12.1665 -3.35618 4.15206
35 1 -1.1104 12.3189 2.12082 3.90354
36 1 -1.1104 12.1887 -0.433654 1.10769
37 2 2.2208 10.7723 -1.9987 2.42975
39 1 -1.1104 12.1171 -0.624495 3.92086
40 1 -1.1104 9.44477 -3.45854 1.17994
41 1 -1.1104 9.43749 2.18829 1.0761
42 2 2.2208 8.09974 0.788486 2.54808
43 1 -1.1104 9.42896 -3.3258 3.91525
44 1 -1.1104 9.60144 2.27837 3.79351
45 2 2.2208 7.9714 -2.01878 5.41082
47 1 -1.1104 9.45889 -0.505225 0.983922
48 1 -1.1104 9.24 -0.373791 3.96727
38 2 2.2208 10.8963 3.59031 2.42835
46 2 2.2208 8.04258 3.68418 5.28012
8762 2 2.2208 13.634 3.64919 5.32347
51 2 2.2208 7.87345 -4.67704 2.40219
8860 2 2.2208 13.5032 14.8625 5.24638
207 1 -1.1104 12.1969 -0.554281 7.05904
9067 2 2.2208 13.5897 0.848215 2.52475
209 1 -1.1104 9.25188 2.18961 6.59869
572 2 2.2208 7.77833 3.61263 -0.326746
9073 2 2.2208 13.6607 12.0924 2.65511
165 2 2.2208 8.0301 20.5383 10.6128
199 1 -1.1104 9.50184 16.3048 12.175
54 2 2.2208 5.09242 6.39421 5.19802
55 2 2.2208 5.0471 11.9875 5.39832
56 1 -1.1104 0.92839 7.89015 1.11649
58 1 -1.1104 0.993308 7.85877 4.0504
60 1 -1.1104 0.994897 5.28352 0.976035
61 1 -1.1104 0.998796 10.6655 1.17895
66 2 2.2208 5.10304 9.2238 2.46027
67 1 -1.1104 0.786487 5.07647 3.87498
68 1 -1.1104 0.928008 10.562 3.98452
71 1 -1.1104 3.77099 7.92816 1.11296
72 2 2.2208 2.23773 6.4592 2.4617
73 2 2.2208 2.5017 12.0977 2.60281
74 1 -1.1104 3.79395 8.0397 3.94959
75 2 2.2208 2.20834 9.33073 5.31977
76 1 -1.1104 3.84313 4.90391 0.972538
77 1 -1.1104 3.60726 10.6367 1.09898
79 1 -1.1104 3.61887 5.10099 3.80192
80 1 -1.1104 3.6862 10.7698 3.99258
69 1 -1.1104 6.39532 5.053 3.89518
59 1 -1.1104 6.61218 7.77536 3.85542
70 1 -1.1104 6.699 10.5323 4.00803
63 1 -1.1104 6.57234 4.95126 1.09776
57 1 -1.1104 6.58465 7.78597 1.15703
234 1 -1.1104 0.956285 7.87224 6.67164
64 1 -1.1104 6.59766 10.6243 1.10375
236 1 -1.1104 0.992353 4.97546 6.49617
238 1 -1.1104 3.66973 7.74013 6.41301
235 1 -1.1104 6.60491 7.86684 6.80861
65 1 -1.1104 6.58794 10.7724 6.75137
62 1 -1.1104 0.80905 10.7424 6.72299
30 1 -1.1104 12.0861 13.4272 9.41052
346 2 2.2208 7.99855 14.9335 -0.334414
84 2 2.2208 10.8896 6.52231 5.19297
85 2 2.2208 10.7894 12.1262 5.37712
86 1 -1.1104 12.0758 7.77925 1.08327
87 1 -1.1104 12.3016 7.78131 3.98381
88 1 -1.1104 12.2892 5.03687 0.99243
89 1 -1.1104 12.3589 10.7288 1.23523
91 2 2.2208 10.8497 9.42583 2.56351
92 1 -1.1104 12.3102 4.96185 3.86387
93 1 -1.1104 12.2295 10.6443 3.9101
94 1 -1.1104 9.53787 7.93618 1.20724
95 2 2.2208 8.00961 6.35612 2.56427
96 2 2.2208 8.00593 12.0624 2.61653
97 1 -1.1104 9.36987 7.73313 3.99441
98 2 2.2208 8.03853 9.21459 5.49962
99 1 -1.1104 9.35318 5.10692 0.943117
100 1 -1.1104 9.2534 10.6759 1.14748
102 1 -1.1104 9.31225 4.98871 3.96646
103 1 -1.1104 9.40084 10.7861 4.16017
266 1 -1.1104 12.1894 4.9932 6.6703
9074 2 2.2208 13.6157 6.40645 2.4749
9488 2 2.2208 13.6533 -1.78083 -0.188122
269 1 -1.1104 9.5106 5.03242 6.71906
101 1 -1.1104 9.42835 10.829 6.99721
631 2 2.2208 7.93739 9.21009 -0.240251
106 2 2.2208 5.17741 17.7488 5.1659
107 1 -1.1104 0.959893 13.4954 1.22296
109 1 -1.1104 0.887517 19.2841 1.07143
113 1 -1.1104 1.06163 13.3025 3.98015
114 1 -1.1104 0.835582 19.225 3.65852
116 1 -1.1104 0.95801 16.267 0.975837
119 2 2.2208 5.17159 14.9709 2.38156
120 2 2.2208 5.07239 20.6669 2.26281
121 1 -1.1104 0.945163 16.3425 3.88945
123 1 -1.1104 3.87819 13.3887 0.978444
125 1 -1.1104 3.59502 19.1244 0.719555
127 2 2.2208 2.29258 17.7388 2.24411
128 1 -1.1104 3.84339 13.4881 3.88534
129 1 -1.1104 3.51989 19.1218 3.50072
130 2 2.2208 2.43453 14.9121 5.29638
131 2 2.2208 2.2925 20.7012 5.09938
132 1 -1.1104 3.8646 16.2245 0.941434
134 1 -1.1104 3.76528 16.2869 3.69844
140 1 -1.1104 6.43581 16.3745 1.11522
122 1 -1.1104 6.58282 16.4605 3.81216
139 1 -1.1104 6.31421 19.1711 3.59638
138 1 -1.1104 6.51324 19.2088 0.665706
110 1 -1.1104 6.54982 13.5162 0.972144
115 1 -1.1104 6.51047 13.8497 3.97663
126 1 -1.1104 3.67611 19.1184 6.62109
118 1 -1.1104 6.53551 16.3646 6.64516
108 1 -1.1104 1.10484 13.6503 6.70815
111 1 -1.1104 6.59407 13.5372 6.79323
112 1 -1.1104 6.51378 19.1235 6.45859
9062 2 2.2208 13.6417 14.881 10.7946
9068 2 2.2208 13.5303 -1.9362 5.45331
8839 2 2.2208 13.6298 20.6136 5.12017
154 1 -1.1104 9.3229 13.5256 6.53243
141 2 2.2208 10.7083 17.9268 5.0766
142 1 -1.1104 12.0994 13.588 1.2062
144 1 -1.1104 12.086 19.2381 0.968994
146 1 -1.1104 12.1198 13.8199 3.74392
147 1 -1.1104 12.058 19.3644 3.79882
148 1 -1.1104 11.9084 16.3569 0.910923
150 2 2.2208 10.6341 15.0618 2.47896
151 2 2.2208 10.505 20.6688 2.46785
152 1 -1.1104 12.2969 16.5568 3.64862
153 1 -1.1104 9.3407 13.4425 1.05485
155 1 -1.1104 9.14779 19.224 0.999717
157 2 2.2208 7.71201 17.7173 2.30964
158 1 -1.1104 9.29174 13.5098 3.83512
159 1 -1.1104 9.14541 19.0749 3.64327
160 2 2.2208 7.98831 14.9435 5.22589
161 2 2.2208 7.8877 20.5543 5.13583
162 1 -1.1104 9.27223 16.3486 1.01447
164 1 -1.1104 9.33408 16.4875 3.85665
9078 2 2.2208 13.4975 17.7646 2.29371
143 1 -1.1104 12.147 13.5985 6.51254
149 1 -1.1104 12.1715 16.4361 6.56749
145 1 -1.1104 12.247 19.1755 6.42315
163 1 -1.1104 9.40858 16.2374 6.50265
25 2 2.2208 10.8973 17.6936 10.6438
137 2 2.2208 7.92031 14.995 10.7167
173 1 -1.1104 3.71165 2.21734 6.77788
167 1 -1.1104 0.800605 1.96756 6.6666
169 1 -1.1104 6.57729 2.25482 6.62307
172 1 -1.1104 3.70334 -3.40274 6.82657
175 2 2.2208 5.24414 0.919419 10.9281
176 1 -1.1104 0.983172 -3.47893 12.3336
177 1 -1.1104 0.952386 2.29594 12.3129
180 1 -1.1104 0.890255 -3.49978 9.44415
181 1 -1.1104 0.891364 2.14661 9.40683
184 1 -1.1104 1.01901 -0.60274 12.3002
186 2 2.2208 5.06783 -2.01604 8.23871
188 1 -1.1104 1.06924 -0.75137 9.62897
190 1 -1.1104 3.79662 -3.36131 12.4117
191 1 -1.1104 3.75599 2.25452 12.1785
192 2 2.2208 2.355 0.843208 8.21096
193 1 -1.1104 3.67904 -3.44604 9.47808
194 1 -1.1104 3.77245 2.26474 9.44931
195 2 2.2208 2.36701 -2.10118 11.0033
197 1 -1.1104 3.7785 -0.595341 12.2714
198 1 -1.1104 3.87352 -0.486919 9.66639
187 2 2.2208 5.16714 3.59948 8.05393
182 1 -1.1104 6.41884 -3.45906 9.47765
178 1 -1.1104 6.47157 -2.9695 12.3212
179 1 -1.1104 6.62613 2.30717 12.263
185 1 -1.1104 6.54917 -0.230197 12.5505
183 1 -1.1104 6.67645 2.04902 9.41279
189 1 -1.1104 6.54285 -0.753736 9.7246
196 2 2.2208 2.34818 3.67227 10.8921
168 1 -1.1104 6.46196 -3.22802 6.58664
104 1 -1.1104 9.47967 19.0022 12.1637
9081 2 2.2208 -0.379467 0.883281 10.8827
205 1 -1.1104 11.9663 -3.25449 6.94971
9087 2 2.2208 13.6535 -1.85734 10.9382
208 1 -1.1104 9.2024 -3.41957 6.76093
210 1 -1.1104 9.36714 -0.73184 6.58065
206 1 -1.1104 12.1817 2.29216 6.76582
8897 2 2.2208 13.6672 3.84617 11.0831
9086 2 2.2208 13.6547 0.96346 8.20115
211 2 2.2208 10.7607 0.831087 10.91
212 1 -1.1104 12.0807 -3.32886 12.333
213 1 -1.1104 11.9865 2.37243 12.3592
214 1 -1.1104 12.1064 -3.31901 9.60447
215 1 -1.1104 12.3306 2.46936 9.66853
216 1 -1.1104 12.1462 -0.614321 12.35
217 2 2.2208 10.6869 -1.99512 8.13585
219 1 -1.1104 12.3626 -0.363441 9.61185
220 1 -1.1104 9.10123 -3.51243 12.4083
221 1 -1.1104 9.43168 2.19933 12.1959
222 2 2.2208 8.07486 0.716381 8.12208
223 1 -1.1104 9.14774 -3.32128 9.57824
224 1 -1.1104 9.36926 2.17026 9.50244
225 2 2.2208 7.96069 -1.97467 10.9555
227 1 -1.1104 9.45862 -0.557018 12.2797
228 1 -1.1104 9.43056 -0.557421 9.4356
226 2 2.2208 8.09212 3.58509 10.7421
218 2 2.2208 10.6853 3.68511 8.05473
9088 2 2.2208 13.4903 -4.66927 8.09508
239 1 -1.1104 3.89842 5.03232 6.70379
237 1 -1.1104 6.66782 5.11017 6.64315
78 1 -1.1104 3.63103 10.5471 6.62181
240 2 2.2208 5.20586 6.64453 10.9391
241 2 2.2208 5.2322 12.1176 11.002
242 1 -1.1104 0.844758 8.00224 12.4287
244 1 -1.1104 0.946725 7.74643 9.49555
246 1 -1.1104 0.923949 5.29266 12.1062
247 1 -1.1104 0.875911 10.8612 12.2995
250 2 2.2208 5.28335 9.30831 8.09622
251 1 -1.1104 1.0184 5.01177 9.1969
252 1 -1.1104 0.859167 10.6743 9.60236
255 1 -1.1104 3.75176 7.98517 12.3657
256 2 2.2208 2.43178 6.46198 7.98232
257 2 2.2208 2.40664 12.0487 8.20677
258 1 -1.1104 3.83796 7.81233 9.30908
259 2 2.2208 2.28324 9.27165 10.8734
260 1 -1.1104 3.71195 5.19458 12.5061
261 1 -1.1104 3.76703 10.6408 12.2687
262 1 -1.1104 3.70972 5.07337 9.64097
263 1 -1.1104 3.60721 10.5986 9.43273
253 1 -1.1104 6.54896 5.04868 9.35973
248 1 -1.1104 6.38434 5.15886 12.2907
254 1 -1.1104 6.65396 10.8752 9.53457
243 1 -1.1104 6.55802 7.84179 12.4486
249 1 -1.1104 6.60289 10.6924 12.3981
245 1 -1.1104 6.65109 8.14225 9.45523
541 2 2.2208 2.35351 -2.0291 -0.337997
9080 2 2.2208 -0.373834 -1.94343 8.24721
105 2 2.2208 8.00495 17.689 7.8416
90 1 -1.1104 12.2576 10.8838 6.60179
310 2 2.2208 10.7089 20.648 13.4352
8974 2 2.2208 13.6695 12.0782 8.07563
265 1 -1.1104 12.2417 7.88213 6.70098
267 1 -1.1104 9.59398 7.98633 6.6305
8978 2 2.2208 13.6396 9.33687 11.0073
8973 2 2.2208 13.6044 6.42711 8.31507
264 1 -1.1104 9.52537 10.6645 9.6036
268 1 -1.1104 9.3856 5.24739 9.61036
270 1 -1.1104 9.36874 10.4667 12.338
271 1 -1.1104 9.21868 5.00609 12.2543
272 2 2.2208 7.98148 9.3023 10.8862
273 1 -1.1104 9.47146 7.93098 9.44935
274 2 2.2208 7.90587 12.3406 8.11123
275 2 2.2208 8.0348 6.4721 8.13206
276 2 2.2208 10.8249 6.42779 10.8856
277 2 2.2208 10.9517 12.0249 11.2353
278 1 -1.1104 12.1878 7.87329 12.4468
279 1 -1.1104 12.1523 7.77989 9.60365
280 1 -1.1104 12.2274 5.10077 12.2211
281 1 -1.1104 12.1463 10.4428 12.4089
282 2 2.2208 10.8995 9.20468 8.09941
283 1 -1.1104 12.3349 5.14709 9.49196
284 1 -1.1104 12.2142 10.6371 9.74384
285 1 -1.1104 9.20368 7.71889 12.1041
605 2 2.2208 5.07889 6.47098 -0.31676
53 2 2.2208 10.8745 14.8266 8.14325
27 1 -1.1104 12.335 19.1095 12.0231
133 1 -1.1104 3.77225 16.3515 6.60988
233 1 -1.1104 6.53169 16.4476 12.3255
289 1 -1.1104 6.66689 16.2977 9.45455
302 1 -1.1104 0.844479 19.3267 6.68358
297 1 -1.1104 6.84779 13.6529 12.3995
117 1 -1.1104 0.916953 16.5204 6.7301
290 1 -1.1104 6.52066 13.5781 9.62052
124 1 -1.1104 3.69759 13.6127 6.74616
288 1 -1.1104 6.592 19.1912 9.20025
296 1 -1.1104 6.66751 19.1586 12.2627
201 2 2.2208 2.38461 14.9986 10.7821
204 2 2.2208 2.55496 20.5628 11.0372
229 1 -1.1104 3.84606 16.1541 12.1945
230 1 -1.1104 1.06082 16.3947 12.2184
286 1 -1.1104 3.86141 18.9983 12.3668
287 1 -1.1104 3.85125 13.5115 12.2111
291 1 -1.1104 1.05904 19.2562 9.56969
292 1 -1.1104 0.976396 16.4078 9.44016
293 2 2.2208 5.12553 20.5313 8.04796
294 1 -1.1104 0.919979 13.5477 9.36571
295 2 2.2208 5.09419 14.979 8.04303
298 1 -1.1104 1.14346 19.14 12.4217
299 1 -1.1104 1.04713 13.6025 12.298
300 2 2.2208 5.15793 17.7018 10.8926
301 1 -1.1104 3.77519 18.9997 9.6076
303 2 2.2208 2.36178 17.8771 8.03691
304 1 -1.1104 3.77192 16.3524 9.42905
305 1 -1.1104 3.69069 13.638 9.41639
81 2 2.2208 10.6857 20.4559 7.8538
136 1 -1.1104 9.45103 19.165 9.28514
50 1 -1.1104 12.2911 16.3144 12.2163
82 1 -1.1104 12.2015 16.2374 9.48998
606 2 2.2208 2.3477 9.38848 -0.190686
83 1 -1.1104 9.63907 13.3805 12.4583
9063 2 2.2208 13.6011 17.7174 7.85055
135 1 -1.1104 9.4187 13.7556 9.49874
49 1 -1.1104 12.1415 19.0401 9.12418
200 1 -1.1104 9.53541 16.3763 9.31922
156 1 -1.1104 9.32787 19.09 6.52278
26 1 -1.1104 12.349 13.4124 12.3801
9084 2 2.2208 -0.34039 20.7065 8.04844
9083 2 2.2208 -0.315003 17.7924 10.8622
9024 2 2.2208 13.5184 20.5959 10.5872
607 2 2.2208 5.14736 12.0708 -0.364099
630 2 2.2208 10.7614 6.48105 -0.389984
9491 2 2.2208 13.5884 3.60567 -0.308563
570 2 2.2208 10.7976 0.847019 -0.379096
422 2 2.2208 2.32335 6.50475 13.6757
632 2 2.2208 10.7845 12.0404 -0.30519
355 2 2.2208 5.25402 3.67739 13.6555
9471 2 2.2208 13.5066 14.9693 -0.358028
611 2 2.2208 2.40324 14.9162 -0.337634
513 2 2.2208 10.7441 14.9553 13.6001
388 2 2.2208 10.6295 3.69519 13.6041
449 2 2.2208 7.85233 6.4564 13.6588
354 2 2.2208 2.33927 0.941549 13.5425
9128 2 2.2208 13.4923 0.92968 13.6632
9269 2 2.2208 13.6448 9.36938 -0.226513
313 2 2.2208 5.13215 0.741127 16.4609
314 1 -1.1104 0.839896 -3.26175 17.924
315 1 -1.1104 0.992525 2.17979 17.8872
318 1 -1.1104 1.06483 -3.30552 15.0561
320 1 -1.1104 0.987835 2.32079 14.9761
326 1 -1.1104 1.02187 -0.636551 17.8998
328 2 2.2208 5.20156 -2.04109 19.3752
329 2 2.2208 5.18783 3.63869 19.3997
330 1 -1.1104 0.934904 -0.399694 15.2267
334 1 -1.1104 3.62315 -3.41288 18.1152
335 1 -1.1104 3.65057 2.19322 17.8247
336 2 2.2208 2.45174 0.834082 19.3478
337 1 -1.1104 3.85877 -3.22519 15.2854
339 1 -1.1104 3.78772 2.40441 14.8598
341 2 2.2208 2.29708 -2.0193 16.6549
343 1 -1.1104 3.89899 -0.800438 17.6899
344 1 -1.1104 3.73414 -0.429816 15.0392
342 2 2.2208 2.30676 3.60242 16.5744
324 1 -1.1104 6.65264 2.25677 15.1834
317 1 -1.1104 6.60677 2.31698 17.9336
332 1 -1.1104 6.67116 -0.509321 15.1878
327 1 -1.1104 6.46962 -0.536986 18.0144
316 1 -1.1104 6.43562 -3.40964 18.0307
322 1 -1.1104 6.50877 -3.39565 15.0973
345 1 -1.1104 3.91293 -0.523033 20.622
381 2 2.2208 10.87 -4.6622 16.5818
9197 2 2.2208 13.627 6.54602 13.7587
487 2 2.2208 5.17701 14.903 13.7263
9480 2 2.2208 -0.317959 11.9425 22.2328
356 2 2.2208 10.6743 0.816877 16.502
357 1 -1.1104 12.1753 -3.55379 17.8849
358 1 -1.1104 12.1492 2.14113 18.0471
359 1 -1.1104 12.1771 -3.30538 15.2108
361 1 -1.1104 12.0079 2.49931 15.1169
363 1 -1.1104 12.1688 -0.604136 17.9167
364 2 2.2208 10.7931 -1.98994 19.4269
366 1 -1.1104 11.9901 -0.463504 15.0388
368 1 -1.1104 9.33476 -3.36725 17.9245
369 1 -1.1104 9.38835 2.15079 17.8208
370 2 2.2208 8.02731 0.788019 19.2524
371 1 -1.1104 9.34995 -3.37171 15.0716
373 1 -1.1104 9.22494 2.35498 14.9625
375 2 2.2208 7.92681 -2.08333 16.6155
377 1 -1.1104 9.32622 -0.530901 17.9382
378 1 -1.1104 9.42066 -0.642255 15.0227
365 2 2.2208 10.7658 3.5621 19.3172
575 2 2.2208 10.8143 -4.66207 22.138
9130 2 2.2208 13.5842 0.856932 19.5426
376 2 2.2208 7.87023 3.63979 16.6308
372 1 -1.1104 9.4356 -3.57549 20.6151
374 1 -1.1104 9.39509 2.02614 20.6201
579 1 -1.1104 9.56913 18.9497 26.124
451 2 2.2208 8.11812 11.9913 13.7947
379 1 -1.1104 9.47497 -0.71173 20.8865
362 1 -1.1104 12.2134 2.36435 20.7842
9124 2 2.2208 13.4365 3.67067 16.5369
9270 2 2.2208 13.5671 17.5712 19.2234
389 2 2.2208 5.07152 6.56155 16.6494
390 2 2.2208 5.18699 12.019 16.6054
391 1 -1.1104 0.861377 7.78404 18.0134
393 1 -1.1104 0.798194 7.96358 15.1684
397 1 -1.1104 1.19564 5.02666 17.9925
398 1 -1.1104 0.906818 10.5313 17.9615
401 2 2.2208 5.16434 9.26484 19.5348
402 1 -1.1104 0.796424 5.04951 15.0879
404 1 -1.1104 1.13848 10.7008 15.0593
410 1 -1.1104 3.5396 7.87959 18.1157
411 2 2.2208 2.3775 6.50546 19.496
412 2 2.2208 2.29775 11.8661 19.3052
413 1 -1.1104 3.65736 7.95064 15.2302
415 2 2.2208 2.30099 9.37353 16.4927
416 1 -1.1104 3.94679 5.15392 18.12
417 1 -1.1104 3.79885 10.6527 17.9548
418 1 -1.1104 3.52762 5.21362 15.3544
420 1 -1.1104 3.70239 10.6964 15.0952
406 1 -1.1104 6.26981 5.1532 15.223
395 1 -1.1104 6.58655 7.93827 15.1876
399 1 -1.1104 6.69213 4.95699 18.1897
392 1 -1.1104 6.47049 7.80358 18.2281
400 1 -1.1104 6.5318 10.5854 17.9272
408 1 -1.1104 6.49597 10.8017 15.0175
394 1 -1.1104 0.846327 7.78836 20.8294
396 1 -1.1104 6.34158 7.87328 21.0848
419 1 -1.1104 3.75622 5.0436 20.7999
405 1 -1.1104 1.12336 10.4787 20.9113
409 1 -1.1104 6.7032 10.7366 20.7859
9202 2 2.2208 13.5721 11.9926 13.774
425 2 2.2208 10.6105 6.37463 16.369
426 2 2.2208 10.7426 12.0236 16.6307
427 1 -1.1104 12.1529 7.72539 17.7779
428 1 -1.1104 12.2968 7.98805 15.1736
430 1 -1.1104 12.1418 5.06821 17.9514
431 1 -1.1104 12.3932 10.4784 18.0376
432 2 2.2208 10.6331 9.10917 19.3222
433 1 -1.1104 12.1125 5.19521 14.9264
435 1 -1.1104 12.0641 10.7586 15.1133
437 1 -1.1104 9.06155 7.76364 17.8741
438 2 2.2208 8.00675 6.35014 19.3737
439 2 2.2208 7.94781 11.9618 19.5177
440 1 -1.1104 9.5882 7.86697 15.1688
442 2 2.2208 7.99249 9.25753 16.6201
443 1 -1.1104 9.32913 4.96861 17.7635
444 1 -1.1104 9.483 10.6429 17.9663
445 1 -1.1104 9.24054 5.12432 15.0399
447 1 -1.1104 9.30849 10.5674 15.1869
436 1 -1.1104 12.1191 10.5575 20.8077
9199 2 2.2208 13.6113 6.4824 19.2544
9093 2 2.2208 -0.29235 20.4242 13.7323
441 1 -1.1104 9.30614 7.564 20.7339
434 1 -1.1104 12.1029 5.23016 20.715
385 1 -1.1104 12.363 13.6071 26.4326
452 2 2.2208 5.27649 17.6949 16.4897
453 1 -1.1104 1.06539 13.2653 17.9147
454 1 -1.1104 1.02385 18.9817 17.9315
457 1 -1.1104 0.7709 13.5704 15.2537
459 1 -1.1104 1.19302 19.1225 15.1745
465 1 -1.1104 1.04369 16.2241 18.076
467 2 2.2208 5.12596 14.8465 19.3125
468 2 2.2208 5.26576 20.6593 19.1822
469 1 -1.1104 1.14546 16.354 15.2382
473 1 -1.1104 3.89555 13.4019 17.9674
474 1 -1.1104 3.89415 19.0533 18.0567
475 2 2.2208 2.39029 17.6466 19.3
476 1 -1.1104 3.68559 13.5155 15.3089
478 1 -1.1104 3.9006 19.0322 15.1446
480 2 2.2208 2.285 14.7802 16.6948
481 2 2.2208 2.51757 20.475 16.487
482 1 -1.1104 3.87044 16.1611 17.9022
483 1 -1.1104 3.76585 16.3762 14.9232
461 1 -1.1104 6.40126 13.5414 15.1218
463 1 -1.1104 6.71518 19.1069 15.1789
456 1 -1.1104 6.54108 19.1775 17.8559
466 1 -1.1104 6.5613 16.2725 17.9305
472 1 -1.1104 6.33039 16.4871 20.7711
470 1 -1.1104 1.01291 16.2817 20.7843
484 1 -1.1104 3.75866 16.3066 20.7897
9473 2 2.2208 13.5979 20.3397 22.0527
551 1 -1.1104 9.1999 18.9216 23.415
455 1 -1.1104 6.69462 13.4682 17.9044
471 1 -1.1104 6.69946 16.3643 15.0237
9311 2 2.2208 -0.377598 17.6312 16.6035
9096 2 2.2208 13.432 20.5231 27.7278
306 2 2.2208 10.7965 17.7934 27.6965
488 2 2.2208 10.6938 17.8301 16.404
489 1 -1.1104 12.2961 13.3137 18.0207
490 1 -1.1104 12.1127 18.8194 17.8767
491 1 -1.1104 12.1707 13.4633 15.1635
493 1 -1.1104 12.1528 19.3044 14.8872
495 1 -1.1104 12.0344 16.0846 17.7432
496 2 2.2208 10.7963 14.9853 19.1501
497 2 2.2208 10.768 20.4528 19.4057
498 1 -1.1104 12.2179 16.396 15.0844
500 1 -1.1104 9.39146 13.4282 18.0401
501 1 -1.1104 9.24883 19.1065 18.0857
502 2 2.2208 7.87152 17.7891 19.3911
503 1 -1.1104 9.33339 13.4166 15.2441
505 1 -1.1104 9.49583 19.1454 15.0728
507 2 2.2208 7.99523 14.9048 16.5727
508 2 2.2208 7.99683 20.5634 16.5846
509 1 -1.1104 9.30545 16.4121 17.9346
510 1 -1.1104 9.47406 16.2413 15.0413
499 1 -1.1104 12.3016 16.1694 20.6268
494 1 -1.1104 12.0532 18.9764 20.5539
511 1 -1.1104 9.31173 16.2463 20.6751
380 1 -1.1104 12.0356 13.4257 23.5501
424 2 2.2208 2.36631 12.2557 13.7263
609 1 -1.1104 9.29791 16.1058 23.5336
338 1 -1.1104 3.79698 -3.37175 20.8284
340 1 -1.1104 3.8307 2.45066 20.6867
333 1 -1.1104 6.50967 -0.562686 20.7253
331 1 -1.1104 1.22294 -0.678811 20.7047
319 1 -1.1104 1.01497 -3.46383 20.7024
325 1 -1.1104 6.48048 2.21892 20.6905
321 1 -1.1104 0.77627 2.19003 20.7787
516 2 2.2208 5.22161 0.94098 22.2197
517 1 -1.1104 0.898605 -3.44993 23.5862
518 1 -1.1104 1.06799 2.02948 23.6549
521 1 -1.1104 1.19962 -3.38115 26.426
522 1 -1.1104 1.04144 2.28068 26.2663
525 1 -1.1104 1.07044 -0.682837 23.6865
527 2 2.2208 5.24488 -1.97497 24.9652
529 1 -1.1104 0.913652 -0.647715 26.4057
531 1 -1.1104 3.83877 -3.43171 23.6949
532 1 -1.1104 3.87504 2.28023 23.5255
533 2 2.2208 2.56403 0.721781 25.019
534 1 -1.1104 3.87333 -3.21854 26.5161
535 1 -1.1104 3.80215 2.23782 26.3053
536 2 2.2208 2.38659 -2.09182 22.2233
538 1 -1.1104 3.8558 -0.635453 23.4891
539 1 -1.1104 3.83821 -0.493928 26.4243
528 2 2.2208 5.07824 3.67087 24.9213
537 2 2.2208 2.41617 3.69791 22.1899
519 1 -1.1104 6.63705 -3.34789 23.499
323 1 -1.1104 6.60802 -3.61539 20.803
523 1 -1.1104 6.52436 -3.28517 26.3904
520 1 -1.1104 6.624 2.32817 23.5493
526 1 -1.1104 6.71005 -0.36958 23.4066
524 1 -1.1104 6.59718 2.13491 26.251
530 1 -1.1104 6.61585 -0.660965 26.1623
9484 2 2.2208 -0.340195 -1.87837 24.9588
549 1 -1.1104 12.0352 16.1661 26.2983
578 1 -1.1104 9.37918 13.3804 26.5043
360 1 -1.1104 12.1082 -3.26623 20.7267
610 1 -1.1104 9.24973 16.1861 26.4184
367 1 -1.1104 12.2752 -0.455561 20.9532
386 2 2.2208 8.07145 0.86245 13.7629
552 2 2.2208 10.9491 0.980984 22.2254
553 1 -1.1104 12.0719 -3.18679 23.6909
554 1 -1.1104 12.3175 2.25549 23.721
555 1 -1.1104 12.2584 -3.32019 26.5495
556 1 -1.1104 12.1703 2.18881 26.4845
557 1 -1.1104 12.4238 -0.524293 23.5472
558 2 2.2208 10.7027 -1.90766 24.9996
559 2 2.2208 10.6365 3.76296 25.1248
560 1 -1.1104 12.222 -0.5792 26.3182
561 1 -1.1104 9.38581 -3.33108 23.5601
562 1 -1.1104 9.50637 2.25897 23.6605
563 2 2.2208 8.0715 0.966778 24.8794
564 1 -1.1104 9.46291 -3.29814 26.4429
565 1 -1.1104 9.4434 2.17287 26.3695
566 2 2.2208 8.0496 -2.01687 22.2537
568 1 -1.1104 9.46892 -0.437963 23.6097
569 1 -1.1104 9.39519 -0.462244 26.4348
9171 2 2.2208 -0.335435 3.65284 13.7151
9331 2 2.2208 13.582 3.72544 22.3062
567 2 2.2208 7.81965 3.67627 22.2427
384 1 -1.1104 12.1872 19.0782 23.4328
9470 2 2.2208 13.5241 17.5836 24.8066
403 1 -1.1104 0.864097 5.06115 20.8656
414 1 -1.1104 3.70411 7.88116 20.9163
421 1 -1.1104 3.78541 10.5691 20.8356
407 1 -1.1104 6.5869 5.23799 20.8191
581 2 2.2208 5.24141 6.59078 22.3384
582 2 2.2208 4.99005 12.0176 22.1928
583 1 -1.1104 0.683188 7.73194 23.6391
585 1 -1.1104 1.02147 7.78978 26.3059
587 1 -1.1104 0.958318 4.89907 23.6643
588 1 -1.1104 0.935395 10.6409 23.7787
591 2 2.2208 5.17366 9.31905 25.0782
592 1 -1.1104 0.901244 5.00021 26.4922
593 1 -1.1104 0.923591 10.7185 26.6767
596 1 -1.1104 3.75223 7.79465 23.6579
597 2 2.2208 2.21986 6.3643 25.0331
598 2 2.2208 2.1999 11.9823 25.1142
599 1 -1.1104 3.78778 8.08527 26.6104
600 2 2.2208 2.38938 9.06 22.2957
601 1 -1.1104 3.68141 5.0092 23.6247
602 1 -1.1104 3.89086 10.4936 23.5523
603 1 -1.1104 3.66836 5.11278 26.257
604 1 -1.1104 3.58144 10.8273 26.3446
589 1 -1.1104 6.43276 5.14861 23.5617
595 1 -1.1104 6.7162 10.6363 26.5224
590 1 -1.1104 6.70528 10.6619 23.7666
586 1 -1.1104 6.66912 7.74111 26.5598
584 1 -1.1104 6.4939 7.9169 23.7907
594 1 -1.1104 6.53052 4.95239 26.4677
423 2 2.2208 5.11022 9.38318 13.7869
544 2 2.2208 10.6387 14.8035 24.9067
450 2 2.2208 10.7679 9.14653 13.7459
548 2 2.2208 10.7459 20.5584 24.7308
446 1 -1.1104 9.39709 4.90521 20.7427
448 1 -1.1104 9.37298 10.3372 20.6285
9274 2 2.2208 13.5951 12.1585 24.9275
308 2 2.2208 2.45473 17.7064 13.7323
9390 2 2.2208 13.6123 9.30396 22.0797
429 1 -1.1104 12.0889 8.00577 20.6388
612 1 -1.1104 9.3924 10.5743 26.465
613 1 -1.1104 9.35694 5.06707 26.4913
614 1 -1.1104 9.52628 10.4359 23.3619
615 1 -1.1104 9.29494 4.97233 23.756
616 2 2.2208 8.00352 9.12613 22.2737
617 1 -1.1104 9.3558 7.90166 26.5651
618 2 2.2208 8.11793 11.9097 25.028
619 2 2.2208 7.96656 6.31058 25.1021
620 2 2.2208 10.6972 6.38304 22.1497
621 2 2.2208 10.7839 11.9522 22.1904
622 1 -1.1104 12.0919 7.8475 23.4458
623 1 -1.1104 12.1867 7.56444 26.4392
624 1 -1.1104 12.1635 5.01238 23.7163
625 1 -1.1104 12.2924 10.6064 23.6591
626 2 2.2208 10.9102 9.11541 24.9816
627 1 -1.1104 12.21 4.93875 26.4162
628 1 -1.1104 12.2369 10.4382 26.4533
629 1 -1.1104 9.29672 7.53402 23.7066
608 2 2.2208 7.9599 20.5192 22.0838
580 2 2.2208 7.87678 14.9628 22.1203
479 1 -1.1104 3.75747 19.1144 20.7191
458 1 -1.1104 0.944893 13.3305 20.5725
477 1 -1.1104 3.60997 13.3372 20.6945
462 1 -1.1104 6.41683 13.5037 20.8442
639 1 -1.1104 6.48488 16.1622 26.4116
460 1 -1.1104 0.820085 19.2051 20.6518
643 1 -1.1104 6.44711 18.9691 23.4856
464 1 -1.1104 6.56305 19.1841 20.8529
486 1 -1.1104 6.38169 16.1639 23.4862
646 1 -1.1104 6.69337 13.3234 23.6042
349 2 2.2208 2.34673 20.4756 21.9528
350 1 -1.1104 3.71017 16.1245 23.4136
485 1 -1.1104 0.919901 16.2472 23.5566
512 1 -1.1104 3.57298 13.3942 26.3687
514 1 -1.1104 3.58408 16.3089 26.3619
634 2 2.2208 2.16069 17.6606 24.8806
635 2 2.2208 2.34899 14.8314 22.1896
636 1 -1.1104 3.75743 18.8396 23.5832
638 1 -1.1104 3.73744 13.4025 23.52
640 1 -1.1104 0.837247 19.0453 26.4343
641 1 -1.1104 0.975981 16.42 26.4215
642 1 -1.1104 0.94001 13.4771 26.2503
644 2 2.2208 5.07879 20.4718 24.8325
645 2 2.2208 5.09879 14.6695 24.8771
647 1 -1.1104 0.976301 19.2099 23.4961
648 1 -1.1104 0.996686 13.3717 23.5664
649 2 2.2208 5.03264 17.7258 22.0902
650 1 -1.1104 3.54802 19.0306 26.2903
637 1 -1.1104 6.60717 13.1935 26.1968
9476 2 2.2208 -0.386598 -1.89344 13.8213
573 2 2.2208 7.89411 17.6366 24.9503
506 1 -1.1104 9.38748 19.2164 20.7586
492 1 -1.1104 12.1754 13.5954 20.756
351 2 2.2208 10.7419 17.6584 21.9144
550 1 -1.1104 9.53896 13.291 23.6859
515 1 -1.1104 12.2075 19.2234 26.3776
543 1 -1.1104 12.0817 16.4451 23.3241
504 1 -1.1104 9.18859 13.4146 20.9228
577 1 -1.1104 6.41722 19.1121 26.249
9205 2 2.2208 -0.360912 12.0021 16.5114
576 2 2.2208 8.03887 -4.65211 25.041
9474 2 2.2208 -0.356778 0.765724 16.5686
312 2 2.2208 2.13043 20.626 27.5236
9271 2 2.2208 13.441 20.4841 16.1681
307 2 2.2208 7.94109 20.3864 27.4267
9268 2 2.2208 13.4832 14.851 16.5139
633 2 2.2208 5.08455 17.7129 27.561
9469 2 2.2208 13.4725 14.8482 22.0762
9489 2 2.2208 13.5572 -1.93251 22.2783
311 2 2.2208 8.1772 17.6101 13.6865
545 2 2.2208 5.22522 -4.5936 27.7299
353 2 2.2208 5.15173 -1.7674 13.8498
9479 2 2.2208 13.562 -4.66283 13.7518
309 2 2.2208 5.31111 20.5702 13.7335
571 2 2.2208 8.09709 -1.90798 27.7117
540 2 2.2208 5.21223 0.940432 27.5719
9312 2 2.2208 -0.367399 14.9019 13.6997
542 2 2.2208 2.33266 3.67909 27.6742
387 2 2.2208 10.713 -1.96355 13.8058
651 2 2.2208 5.04612 23.3052 5.20927
652 2 2.2208 5.10428 28.8807 5.21866
653 1 -1.1104 0.988573 24.74 0.939316
654 1 -1.1104 0.828317 24.7782 3.65143
655 1 -1.1104 0.831189 21.9638 0.728477
656 1 -1.1104 0.81391 27.3973 1.06941
657 2 2.2208 5.20414 26.2909 2.32763
658 1 -1.1104 1.02349 22.0394 3.51934
659 1 -1.1104 0.910621 27.6872 3.85283
660 1 -1.1104 4.00197 24.8332 0.996456
661 2 2.2208 2.41638 23.4832 2.16246
662 2 2.2208 2.21929 29.0793 2.36945
663 1 -1.1104 3.59221 24.7722 3.70282
664 2 2.2208 2.26706 26.1771 5.19379
665 1 -1.1104 3.77607 22.1817 0.84033
666 1 -1.1104 3.68404 27.6352 0.945946
667 1 -1.1104 3.77839 22.076 3.91727
668 1 -1.1104 3.72792 27.6284 3.82363
673 1 -1.1104 6.55396 24.9457 3.87011
676 1 -1.1104 6.60389 21.9788 3.71672
674 1 -1.1104 6.31633 22.0947 0.936002
675 1 -1.1104 6.60801 27.5767 1.06245
9647 2 2.2208 13.5566 26.1529 10.626
677 1 -1.1104 6.33586 27.5324 3.92334
672 1 -1.1104 6.55746 24.7091 0.83389
9820 2 2.2208 -0.389439 40.3867 5.39594
9812 2 2.2208 13.6587 28.9979 2.38846
971 2 2.2208 10.8668 43.0557 13.6726
678 2 2.2208 10.7731 23.4692 5.20866
679 2 2.2208 10.8095 29.0752 4.98858
680 1 -1.1104 12.2766 24.7106 0.866726
681 1 -1.1104 12.084 24.7953 3.75239
682 1 -1.1104 12.1781 21.9801 0.841111
683 1 -1.1104 11.9995 27.3926 0.941992
684 2 2.2208 10.6802 26.1942 2.29401
685 1 -1.1104 12.0328 22.0966 4.03816
686 1 -1.1104 12.2809 27.5813 3.77963
687 1 -1.1104 9.42173 24.8436 0.803081
688 2 2.2208 7.82644 23.5135 2.31268
689 2 2.2208 7.88549 29.0339 2.36695
690 1 -1.1104 9.26373 24.93 3.6641
691 2 2.2208 7.98639 26.2789 5.21623
692 1 -1.1104 9.3878 22.138 0.99405
693 1 -1.1104 9.29669 27.7053 1.00227
694 1 -1.1104 9.3503 21.9987 3.93746
695 1 -1.1104 9.34867 27.7666 3.69294
830 1 -1.1104 9.40587 27.6444 6.60086
9811 2 2.2208 13.5105 23.46 2.31093
826 1 -1.1104 12.2007 21.9378 6.61393
829 1 -1.1104 9.1921 22.0692 6.54062
944 1 -1.1104 9.48779 38.7882 9.581
699 2 2.2208 5.20156 34.6688 5.39248
700 1 -1.1104 0.792625 30.3289 1.03249
701 1 -1.1104 0.842125 35.8821 1.03706
703 1 -1.1104 0.975702 30.4433 3.86168
704 1 -1.1104 1.15869 36.1542 3.70242
706 1 -1.1104 0.914333 33.0584 1.01013
707 2 2.2208 5.28233 31.9386 2.34992
708 2 2.2208 5.26574 37.348 2.55576
709 1 -1.1104 0.940401 33.2826 3.95749
711 1 -1.1104 3.70771 30.5038 0.975711
712 1 -1.1104 3.76871 36.1532 1.19547
713 2 2.2208 2.38636 34.7198 2.43904
714 1 -1.1104 3.72139 30.4895 3.7753
715 1 -1.1104 3.8776 35.8944 3.8671
716 2 2.2208 2.57198 31.8244 5.29313
717 2 2.2208 2.46768 37.5447 5.10784
718 1 -1.1104 3.7569 33.3061 1.22472
719 1 -1.1104 3.80679 33.3481 3.93335
710 1 -1.1104 6.62776 33.4672 3.94085
723 1 -1.1104 6.59632 30.3672 0.84894
705 1 -1.1104 6.43207 36.0947 4.09263
702 1 -1.1104 6.65333 36.0098 1.162
725 1 -1.1104 6.62432 33.3386 0.950546
724 1 -1.1104 6.60695 30.4914 3.74168
849 1 -1.1104 1.01539 30.565 6.66859
852 1 -1.1104 6.49767 36.0758 6.82999
856 1 -1.1104 3.77442 36.1634 6.785
853 1 -1.1104 1.03318 33.3154 6.69696
696 1 -1.1104 12.2644 41.6604 9.60791
790 1 -1.1104 12.1712 38.8521 9.54421
9807 2 2.2208 -0.289891 29.1022 5.1754
726 2 2.2208 10.8139 34.5773 5.32618
727 1 -1.1104 12.3665 30.2613 0.945994
728 1 -1.1104 12.2459 35.96 0.760214
729 1 -1.1104 12.1126 30.3962 3.71697
730 1 -1.1104 12.1893 35.9128 3.61568
731 1 -1.1104 12.2582 33.1507 0.960952
732 2 2.2208 10.8912 31.7924 2.3346
733 2 2.2208 10.869 37.4425 2.58871
734 1 -1.1104 12.2471 33.3033 3.89869
735 1 -1.1104 9.55542 30.7791 0.879355
736 1 -1.1104 9.47565 36.2052 0.830532
737 2 2.2208 8.07864 34.8067 2.43786
738 1 -1.1104 9.35298 30.4959 3.62137
739 1 -1.1104 9.25368 36.1572 3.77602
740 2 2.2208 7.91043 31.8888 5.01602
741 2 2.2208 7.95161 37.3639 5.41412
742 1 -1.1104 9.43151 33.4474 0.826306
743 1 -1.1104 9.35637 33.4005 3.67262