ITEM: TIMESTEP
80000
ITEM: NUMBER OF ATOMS
17910
ITEM: BOX BOUNDS pp pp pp
-4.0708324590494521e-01 2.7747083245905092e+01
-4.5813979743411668e+00 3.3266139797432839e+02
-3.9765944294033140e-01 2.7737659442941350e+01
ITEM: ATOMS id type q x y z
1 2 2.2208 4.9996 0.889306 5.38573
2 1 -1.1104 0.866152 -3.27185 1.12482
3 1 -1.1104 0.814306 2.25081 1.08026
6 1 -1.1104 0.823197 -3.26913 3.91708
7 1 -1.1104 0.786525 2.09912 3.90898
10 1 -1.1104 0.858884 -0.564101 1.11151
12 2 2.2208 5.17217 -1.85808 2.43432
14 1 -1.1104 0.982399 -0.605683 3.87423
16 1 -1.1104 3.88068 -3.28651 1.01393
17 1 -1.1104 3.60378 2.19607 1.20349
18 2 2.2208 2.26166 0.851301 2.52749
19 1 -1.1104 3.73874 -3.2828 3.85578
20 1 -1.1104 3.56963 2.34761 3.76269
21 2 2.2208 2.30323 -2.01306 5.38898
23 1 -1.1104 3.68911 -0.484339 1.26602
24 1 -1.1104 3.67365 -0.459843 4.06563
22 2 2.2208 2.28675 3.84076 5.22211
13 2 2.2208 5.0758 3.75413 2.48776
15 1 -1.1104 6.3644 -0.404051 3.88259
9 1 -1.1104 6.58202 2.34654 3.83347
11 1 -1.1104 6.41652 -0.365299 1.11607
8 1 -1.1104 6.53331 -3.22999 4.06739
4 1 -1.1104 6.73753 -3.06064 1.34687
167 1 -1.1104 0.907488 2.2479 6.72415
5 1 -1.1104 6.34801 2.29047 1.17279
166 1 -1.1104 1.10322 -3.43983 6.84785
172 1 -1.1104 3.98142 -3.32796 6.7619
168 1 -1.1104 6.6787 -3.17495 6.84322
174 1 -1.1104 3.57214 -0.469672 6.77614
541 2 2.2208 2.28018 -1.90477 -0.346827
9096 2 2.2208 13.6277 20.7067 -0.416198
606 2 2.2208 2.22867 9.58251 -0.204192
31 2 2.2208 10.9583 0.953072 5.40399
32 1 -1.1104 12.095 -3.39219 1.27377
33 1 -1.1104 12.1624 2.34754 1.29818
34 1 -1.1104 12.198 -3.26347 4.15187
35 1 -1.1104 12.3355 2.2293 3.81998
36 1 -1.1104 12.3111 -0.380029 1.03318
37 2 2.2208 10.8662 -1.89001 2.53305
39 1 -1.1104 12.1679 -0.491262 3.93137
40 1 -1.1104 9.42099 -3.1509 1.14018
41 1 -1.1104 9.15411 2.35509 1.22903
42 2 2.2208 7.85278 0.926639 2.47018
43 1 -1.1104 9.52347 -3.33435 3.98569
44 1 -1.1104 9.50429 2.3818 3.97794
45 2 2.2208 7.76367 -1.91087 5.39648
47 1 -1.1104 9.39876 -0.356172 1.24378
48 1 -1.1104 9.49662 -0.785158 3.85069
307 2 2.2208 7.97432 20.6281 -0.340315
8762 2 2.2208 13.7692 3.74718 5.38222
9068 2 2.2208 13.4863 -1.85598 5.41598
312 2 2.2208 2.24046 20.8395 -0.301717
208 1 -1.1104 9.45426 -3.2668 6.74151
207 1 -1.1104 12.1814 -0.235073 6.71545
8860 2 2.2208 13.6892 14.985 5.28515
9063 2 2.2208 13.4027 17.8557 8.16404
38 2 2.2208 10.8466 3.67406 2.60193
46 2 2.2208 7.97932 3.69048 5.3015
209 1 -1.1104 9.58803 2.29144 6.77551
8839 2 2.2208 13.71 20.6343 5.22553
630 2 2.2208 10.7883 6.53334 -0.269457
54 2 2.2208 5.09257 6.56538 5.23478
55 2 2.2208 5.30908 12.1521 5.39339
56 1 -1.1104 0.686076 7.91685 1.12278
58 1 -1.1104 0.628238 8.13029 3.92364
60 1 -1.1104 0.904783 4.96112 1.18734
61 1 -1.1104 0.747336 11.0047 1.01212
66 2 2.2208 5.0156 9.41284 2.60208
67 1 -1.1104 0.892884 5.17086 3.9567
68 1 -1.1104 0.937724 10.8468 3.72509
71 1 -1.1104 3.61926 7.98729 1.25081
72 2 2.2208 2.26574 6.49242 2.41865
73 2 2.2208 2.38737 12.2081 2.46622
74 1 -1.1104 3.55836 7.77289 3.95086
75 2 2.2208 2.15234 9.32073 5.25745
76 1 -1.1104 3.68011 5.03385 1.05324
77 1 -1.1104 3.47324 10.7134 1.40196
79 1 -1.1104 3.69316 5.31429 3.76335
80 1 -1.1104 3.8727 10.6913 4.0292
64 1 -1.1104 6.31504 10.845 1.35542
70 1 -1.1104 6.63184 10.6369 3.97252
69 1 -1.1104 6.52625 5.15717 3.83764
63 1 -1.1104 6.57511 5.16959 1.10655
57 1 -1.1104 6.41185 8.16405 1.23186
59 1 -1.1104 6.57228 7.87927 4.01846
309 2 2.2208 5.02898 20.687 13.6542
8973 2 2.2208 13.6931 6.62335 8.16247
26 1 -1.1104 12.2411 13.7718 12.4557
9073 2 2.2208 13.5441 12.237 2.536
84 2 2.2208 11.1437 6.56562 5.21226
85 2 2.2208 10.8378 12.2815 5.27616
86 1 -1.1104 12.198 7.96762 1.00781
87 1 -1.1104 12.4967 8.06086 3.88312
88 1 -1.1104 12.2786 5.03025 1.11878
89 1 -1.1104 12.2378 10.9277 1.24884
91 2 2.2208 10.6983 9.39562 2.54937
92 1 -1.1104 12.4712 5.21503 3.85146
93 1 -1.1104 12.2694 10.769 3.85993
94 1 -1.1104 9.12402 7.98752 1.12034
95 2 2.2208 8.03534 6.57983 2.55025
96 2 2.2208 7.97171 12.2261 2.68716
97 1 -1.1104 9.45989 7.90464 3.84074
98 2 2.2208 8.04553 9.52371 5.48341
99 1 -1.1104 9.51709 5.25533 1.27364
100 1 -1.1104 9.30626 10.9868 1.05181
102 1 -1.1104 9.33703 5.17003 3.91624
103 1 -1.1104 9.48477 10.7994 3.97652
310 2 2.2208 10.7034 20.6092 13.6726
9074 2 2.2208 13.6171 6.58266 2.32686
9471 2 2.2208 13.708 14.8398 -0.438199
632 2 2.2208 10.7311 12.2098 -0.379092
574 2 2.2208 10.8933 -4.56678 -0.247799
135 1 -1.1104 9.32614 13.6678 9.562
106 2 2.2208 4.99046 17.8079 5.22005
107 1 -1.1104 0.819931 13.726 1.05083
109 1 -1.1104 0.80147 19.4368 1.19669
113 1 -1.1104 1.00012 13.6172 3.88626
114 1 -1.1104 0.94762 19.1339 4.16455
116 1 -1.1104 0.890022 16.5081 1.19195
119 2 2.2208 5.07176 15.0404 2.48707
120 2 2.2208 5.12654 20.624 2.56837
121 1 -1.1104 0.760748 16.3479 3.8798
123 1 -1.1104 3.69101 13.6047 1.08264
125 1 -1.1104 3.55981 19.0732 0.983505
127 2 2.2208 2.10285 18.0207 2.43122
128 1 -1.1104 3.95591 13.582 3.79322
129 1 -1.1104 3.7125 19.1334 3.80847
130 2 2.2208 2.23717 15.0982 5.12676
131 2 2.2208 2.22958 20.6584 5.262
132 1 -1.1104 3.40384 16.3578 1.0406
134 1 -1.1104 3.65857 16.2943 3.85699
139 1 -1.1104 6.62863 19.2596 3.90815
138 1 -1.1104 6.51224 19.155 1.27551
115 1 -1.1104 6.60519 13.4443 4.09688
140 1 -1.1104 6.4086 16.355 0.786262
112 1 -1.1104 6.51144 19.1505 6.50252
110 1 -1.1104 6.53489 13.6183 1.22577
122 1 -1.1104 6.45413 16.287 3.6868
542 2 2.2208 2.33071 3.58847 -0.221747
108 1 -1.1104 0.874533 13.7684 6.70514
571 2 2.2208 8.076 -1.68778 -0.173003
306 2 2.2208 10.8873 17.7145 -0.363276
633 2 2.2208 5.15275 17.7584 -0.374622
149 1 -1.1104 11.9763 16.3617 6.63294
141 2 2.2208 10.7552 17.7531 5.339
142 1 -1.1104 12.1079 13.6903 0.969336
144 1 -1.1104 12.2528 19.2122 1.03533
146 1 -1.1104 12.1111 13.5824 3.8084
147 1 -1.1104 12.0669 19.2195 4.03208
148 1 -1.1104 12.1019 16.3697 1.21972
150 2 2.2208 10.6383 14.9572 2.5046
151 2 2.2208 10.8179 20.5286 2.53763
152 1 -1.1104 12.2659 16.352 3.75138
153 1 -1.1104 9.20229 13.562 1.02731
155 1 -1.1104 9.26161 19.1715 0.967182
157 2 2.2208 7.8954 17.7372 2.40008
158 1 -1.1104 9.42168 13.6281 3.84231
159 1 -1.1104 9.31721 19.2159 3.79287
160 2 2.2208 7.98054 15.0521 5.32224
161 2 2.2208 7.99884 20.596 5.25532
162 1 -1.1104 9.22852 16.4177 1.06288
164 1 -1.1104 9.53928 16.3332 4.01891
156 1 -1.1104 9.1702 19.0053 6.5943
9197 2 2.2208 13.5115 6.66514 13.7674
50 1 -1.1104 12.1418 16.4833 12.5024
9078 2 2.2208 13.4823 17.6546 2.51768
154 1 -1.1104 9.34106 13.6052 6.7107
631 2 2.2208 7.84272 9.46311 -0.243587
104 1 -1.1104 9.29508 19.18 12.2667
200 1 -1.1104 9.2187 16.4295 9.47374
170 1 -1.1104 0.863275 -0.744474 6.77652
169 1 -1.1104 6.61173 2.42799 6.90504
173 1 -1.1104 3.86032 2.51914 6.51472
171 1 -1.1104 6.51459 -0.317218 6.88646
175 2 2.2208 5.20809 0.907262 10.9179
176 1 -1.1104 1.16874 -3.28791 12.3584
177 1 -1.1104 0.867022 2.3085 12.5332
180 1 -1.1104 0.941093 -3.05455 9.64832
181 1 -1.1104 1.24716 2.3488 9.72023
184 1 -1.1104 1.07519 -0.546995 12.4544
186 2 2.2208 5.36641 -2.0466 8.24651
188 1 -1.1104 0.900272 -0.340651 9.48497
190 1 -1.1104 3.78644 -3.50978 12.4302
191 1 -1.1104 3.97014 2.36277 12.3048
192 2 2.2208 2.37045 0.989541 8.23706
193 1 -1.1104 3.84225 -3.1911 9.54466
194 1 -1.1104 3.75872 2.4388 9.4511
195 2 2.2208 2.36088 -1.88347 10.9163
197 1 -1.1104 3.66997 -0.708321 12.3966
198 1 -1.1104 3.74624 -0.348748 9.69103
182 1 -1.1104 6.59659 -3.35363 9.73636
189 1 -1.1104 6.45551 -0.664106 9.68562
178 1 -1.1104 6.62933 -3.45161 12.4011
185 1 -1.1104 6.58922 -0.460563 12.4392
183 1 -1.1104 6.57745 2.42677 9.69491
179 1 -1.1104 6.78609 2.50311 12.5173
196 2 2.2208 2.25464 3.77879 11.1496
206 1 -1.1104 12.4661 2.44834 6.67935
145 1 -1.1104 12.0207 19.0914 6.8593
205 1 -1.1104 12.1104 -3.19825 6.91437
210 1 -1.1104 9.19819 -0.36993 6.70887
9086 2 2.2208 13.65 1.02676 8.21394
211 2 2.2208 10.6418 0.978494 10.9768
212 1 -1.1104 12.541 -3.40183 12.0253
213 1 -1.1104 12.2146 2.26815 12.3726
214 1 -1.1104 12.2826 -3.31682 9.3728
215 1 -1.1104 12.143 2.3701 9.45559
216 1 -1.1104 12.199 -0.591353 12.3081
217 2 2.2208 10.6867 -1.75328 8.15415
219 1 -1.1104 12.0918 -0.570507 9.53258
220 1 -1.1104 9.46052 -3.35088 12.5302
221 1 -1.1104 9.40992 2.55343 12.197
222 2 2.2208 7.88135 0.98024 8.21148
223 1 -1.1104 9.30113 -3.2579 9.55509
224 1 -1.1104 9.29058 2.36204 9.37231
225 2 2.2208 8.00744 -1.96562 11.0637
227 1 -1.1104 9.42495 -0.398342 12.3663
228 1 -1.1104 9.14712 -0.396723 9.49855
218 2 2.2208 10.8818 3.79109 8.03223
226 2 2.2208 7.98788 3.91439 10.8002
9087 2 2.2208 13.735 -1.88401 10.9106
28 2 2.2208 2.25742 -4.53972 2.52722
236 1 -1.1104 0.773488 5.17423 6.72862
235 1 -1.1104 6.71878 8.14088 6.69402
65 1 -1.1104 6.63797 10.8888 6.8246
78 1 -1.1104 3.87092 11.0425 6.77334
239 1 -1.1104 3.51884 5.17234 6.72563
234 1 -1.1104 0.751331 7.88608 6.83446
237 1 -1.1104 6.4204 5.19009 6.57523
187 2 2.2208 5.14897 3.70304 8.10383
62 1 -1.1104 0.973388 10.8555 6.50655
238 1 -1.1104 3.53979 7.9627 6.77543
240 2 2.2208 5.18217 6.59484 11.0118
241 2 2.2208 5.05269 12.0599 11.1017
242 1 -1.1104 0.889727 8.04033 12.4146
244 1 -1.1104 0.798193 7.90527 9.64147
246 1 -1.1104 0.814994 5.1527 12.6368
247 1 -1.1104 0.937402 10.7996 12.3384
250 2 2.2208 5.01268 9.58306 8.0911
251 1 -1.1104 0.927506 4.94332 9.7842
252 1 -1.1104 0.928984 10.6246 9.39341
255 1 -1.1104 3.83165 7.83303 12.4703
256 2 2.2208 2.19532 6.62528 8.16358
257 2 2.2208 2.32233 12.2508 8.08638
258 1 -1.1104 3.76605 8.12205 9.46906
259 2 2.2208 2.42948 9.36552 10.8915
260 1 -1.1104 3.64247 5.03559 12.295
261 1 -1.1104 3.87226 10.7235 12.4183
262 1 -1.1104 3.7041 5.38647 9.60979
263 1 -1.1104 3.69631 10.7578 9.59218
243 1 -1.1104 6.57634 8.01562 12.389
248 1 -1.1104 6.64959 5.20486 12.2786
253 1 -1.1104 6.46517 5.15592 9.49274
245 1 -1.1104 6.70378 7.94591 9.55823
254 1 -1.1104 6.53612 10.8567 9.52464
249 1 -1.1104 6.64714 10.6469 12.3617
267 1 -1.1104 9.46009 8.18841 6.82461
266 1 -1.1104 12.1706 5.25863 6.65544
101 1 -1.1104 9.36395 10.988 6.64335
90 1 -1.1104 12.2442 10.7903 6.80826
8978 2 2.2208 13.7525 9.49495 10.9799
265 1 -1.1104 12.2699 8.06161 6.8346
269 1 -1.1104 9.32558 5.02356 6.64468
264 1 -1.1104 9.26205 11.0066 9.55807
268 1 -1.1104 9.34384 5.31914 9.30099
270 1 -1.1104 9.40006 10.9676 12.4167
271 1 -1.1104 9.42568 5.21038 12.4446
272 2 2.2208 7.93749 9.47399 10.9453
273 1 -1.1104 9.36985 8.01685 9.50702
274 2 2.2208 7.9446 12.3129 8.04679
275 2 2.2208 8.05237 6.60895 7.89963
276 2 2.2208 10.8708 6.67592 10.8463
277 2 2.2208 10.6907 12.295 11.016
278 1 -1.1104 12.2926 8.06509 12.3806
279 1 -1.1104 12.1324 8.00415 9.57355
280 1 -1.1104 12.1289 5.02064 12.1779
281 1 -1.1104 12.1984 10.874 12.4315
282 2 2.2208 10.8509 9.45328 8.15311
283 1 -1.1104 12.1545 5.17227 9.26685
284 1 -1.1104 12.219 10.9207 9.55918
285 1 -1.1104 9.56657 8.09564 12.4164
572 2 2.2208 8.05334 3.84782 -0.220558
8974 2 2.2208 13.6134 12.191 8.23872
124 1 -1.1104 3.64198 13.7116 6.45478
302 1 -1.1104 0.886643 19.2465 6.98699
111 1 -1.1104 6.43704 13.6436 6.68191
133 1 -1.1104 3.63278 16.6377 6.54626
126 1 -1.1104 3.74095 19.2627 6.67595
117 1 -1.1104 0.778312 16.357 6.71529
297 1 -1.1104 6.50942 13.7068 12.3733
296 1 -1.1104 6.24261 19.3709 12.2893
118 1 -1.1104 6.39914 16.4025 6.56811
290 1 -1.1104 6.5826 13.5635 9.6192
289 1 -1.1104 6.49598 16.3327 9.62765
288 1 -1.1104 6.52198 19.1521 9.39826
201 2 2.2208 2.31856 14.964 10.9923
204 2 2.2208 2.23716 20.616 11.0474
229 1 -1.1104 3.84504 16.4087 12.2398
230 1 -1.1104 1.01112 16.4503 12.3593
286 1 -1.1104 3.58047 19.1834 12.4137
287 1 -1.1104 3.55187 13.5723 12.5441
291 1 -1.1104 0.873973 19.2333 9.70155
292 1 -1.1104 0.933971 16.2749 9.49011
293 2 2.2208 5.22385 20.4045 8.11446
294 1 -1.1104 1.04523 13.3554 9.63208
295 2 2.2208 4.97396 14.7964 7.9875
298 1 -1.1104 0.746163 19.3588 12.4329
299 1 -1.1104 0.96368 13.6814 12.4843
300 2 2.2208 5.17417 17.7767 10.9018
301 1 -1.1104 3.81462 19.1664 9.47992
303 2 2.2208 2.3997 17.8359 8.18885
304 1 -1.1104 3.87576 16.3861 9.28853
305 1 -1.1104 3.71123 13.5262 9.42604
137 2 2.2208 7.85818 15.0357 10.9349
105 2 2.2208 7.8699 17.6809 7.98564
25 2 2.2208 10.5654 17.7715 10.8233
27 1 -1.1104 12.0515 19.2447 12.3024
143 1 -1.1104 12.1223 13.5238 6.90668
9062 2 2.2208 13.5623 15.0942 11.1452
81 2 2.2208 10.6272 20.5027 8.23793
49 1 -1.1104 12.0526 19.3103 9.68151
82 1 -1.1104 12.0527 16.4777 9.41387
136 1 -1.1104 9.13486 19.1466 9.51944
540 2 2.2208 5.0047 1.03989 -0.227627
9024 2 2.2208 13.4918 20.6887 10.9489
83 1 -1.1104 9.40238 13.6124 12.4172
30 1 -1.1104 12.0711 13.7026 9.7182
163 1 -1.1104 9.26985 16.3096 6.73035
233 1 -1.1104 6.53663 16.4594 12.4515
53 2 2.2208 10.664 14.8794 8.10931
199 1 -1.1104 9.25985 16.36 12.2773
165 2 2.2208 7.80404 20.62 10.8693
311 2 2.2208 7.81994 17.843 13.7092
605 2 2.2208 5.05698 6.46195 -0.118397
570 2 2.2208 10.8864 1.03382 -0.100952
607 2 2.2208 5.17746 12.427 -0.149216
423 2 2.2208 5.14696 9.40699 13.7781
313 2 2.2208 5.16009 0.975517 16.6987
314 1 -1.1104 0.787836 -3.30254 18.037
315 1 -1.1104 0.968716 2.42428 18.022
318 1 -1.1104 0.952459 -3.41354 15.0879
320 1 -1.1104 1.07877 2.20302 15.1854
326 1 -1.1104 1.03398 -0.312751 17.9755
328 2 2.2208 5.25937 -1.71234 19.6054
330 1 -1.1104 0.990884 -0.427173 15.1768
334 1 -1.1104 3.64838 -3.13308 18.0001
335 1 -1.1104 3.76869 2.22741 18.1102
336 2 2.2208 2.41345 0.922837 19.4163
337 1 -1.1104 3.93496 -3.19455 15.2993
339 1 -1.1104 3.71097 2.28702 15.4043
341 2 2.2208 2.29868 -1.85588 16.5949
343 1 -1.1104 3.8527 -0.504093 18.2321
344 1 -1.1104 3.83693 -0.493893 15.3445
329 2 2.2208 4.97391 3.79109 19.2488
342 2 2.2208 2.24538 3.78018 16.6551
322 1 -1.1104 6.62733 -3.37626 15.2385
317 1 -1.1104 6.5755 2.44832 18.153
332 1 -1.1104 6.60533 -0.373263 15.1525
327 1 -1.1104 6.66849 -0.536031 17.7923
324 1 -1.1104 6.70011 2.40175 15.4107
316 1 -1.1104 6.37959 -3.09494 18.2275
450 2 2.2208 10.8488 9.52638 13.8152
608 2 2.2208 7.82418 20.757 22.1574
9128 2 2.2208 13.6348 0.863371 13.7566
340 1 -1.1104 3.75823 2.36799 20.7313
323 1 -1.1104 6.63686 -3.12949 20.8936
386 2 2.2208 8.01362 1.08954 13.8832
451 2 2.2208 8.05317 12.1936 13.7844
9470 2 2.2208 13.5982 17.8449 25.1748
513 2 2.2208 10.6205 14.9767 13.7635
449 2 2.2208 8.12161 6.64661 13.7064
550 1 -1.1104 9.3726 13.8827 23.4893
9097 2 2.2208 13.5283 17.8874 13.7329
356 2 2.2208 10.7938 0.891901 16.8186
357 1 -1.1104 12.2968 -3.22122 17.9789
358 1 -1.1104 12.252 2.28891 18.1599
359 1 -1.1104 12.2239 -3.30943 15.1688
361 1 -1.1104 12.4428 2.40943 15.1249
363 1 -1.1104 12.1456 -0.501745 18.157
364 2 2.2208 10.745 -1.92421 19.6035
366 1 -1.1104 12.2644 -0.452478 15.4269
368 1 -1.1104 9.46271 -3.41264 17.9749
369 1 -1.1104 9.37303 2.25957 18.1118
370 2 2.2208 7.91874 0.973604 19.4982
371 1 -1.1104 9.24676 -3.34591 15.024
373 1 -1.1104 9.60258 2.43359 15.2014
375 2 2.2208 7.92821 -1.93403 16.5861
377 1 -1.1104 9.30462 -0.616875 18.2657
378 1 -1.1104 9.53065 -0.544089 15.1648
9478 2 2.2208 13.5947 -1.82523 16.5996
346 2 2.2208 7.9926 14.9954 27.7829
376 2 2.2208 8.03207 3.88214 16.6068
367 1 -1.1104 12.1261 -0.528392 20.8611
381 2 2.2208 10.7042 -4.75453 16.6304
365 2 2.2208 10.8161 3.68842 19.4658
388 2 2.2208 10.8432 3.66447 13.6752
354 2 2.2208 2.45588 0.861022 13.8908
308 2 2.2208 2.30213 17.6684 13.6732
9202 2 2.2208 13.5009 12.2875 13.7947
389 2 2.2208 5.18739 6.56443 16.5657
390 2 2.2208 5.01298 12.2682 16.4904
391 1 -1.1104 0.841691 8.00313 17.914
393 1 -1.1104 0.981873 7.7692 15.4018
397 1 -1.1104 0.896217 5.21974 17.9426
398 1 -1.1104 0.889841 10.8511 17.9758
401 2 2.2208 5.2487 9.39644 19.3957
402 1 -1.1104 0.629496 5.05837 15.2809
404 1 -1.1104 1.05321 10.5098 14.89
410 1 -1.1104 3.82625 7.79989 17.9445
411 2 2.2208 2.27188 6.4873 19.4568
412 2 2.2208 2.33836 12.1602 19.3931
413 1 -1.1104 3.72291 8.03433 15.2015
415 2 2.2208 2.38936 9.31916 16.6781
416 1 -1.1104 3.58859 5.17708 17.8096
417 1 -1.1104 3.78444 10.6823 18.1428
418 1 -1.1104 3.71042 5.01702 15.0152
420 1 -1.1104 3.83613 10.6932 15.3202
406 1 -1.1104 6.57856 5.17815 15.2238
400 1 -1.1104 6.58272 10.8833 18.023
395 1 -1.1104 6.48508 8.1688 15.3118
392 1 -1.1104 6.54745 7.8677 18.0986
408 1 -1.1104 6.60296 10.8856 15.3149
399 1 -1.1104 6.58532 5.24595 17.8916
394 1 -1.1104 0.717093 7.92854 20.8404
421 1 -1.1104 3.71654 10.7848 20.7153
9476 2 2.2208 -0.258594 -1.79449 13.6852
355 2 2.2208 5.17737 3.72358 13.7857
422 2 2.2208 2.39372 6.57715 13.9858
9200 2 2.2208 13.6029 12.2214 19.3737
425 2 2.2208 10.8068 6.65282 16.7151
426 2 2.2208 10.566 12.2381 16.6291
427 1 -1.1104 12.0899 8.07687 18.0178
428 1 -1.1104 12.0428 8.18912 15.175
430 1 -1.1104 12.2884 5.22783 17.9646
431 1 -1.1104 12.1116 10.8391 18.029
432 2 2.2208 10.6771 9.46292 19.3352
433 1 -1.1104 12.1685 5.28347 15.1147
435 1 -1.1104 12.1819 10.8893 15.1444
437 1 -1.1104 9.38422 7.96645 17.9632
438 2 2.2208 8.04634 6.56214 19.4824
439 2 2.2208 7.82044 12.3065 19.4495
440 1 -1.1104 9.21556 8.11207 15.2899
442 2 2.2208 7.95268 9.30723 16.741
443 1 -1.1104 9.34449 5.06473 18.0891
444 1 -1.1104 9.40145 10.9363 18.2487
445 1 -1.1104 9.46664 5.26887 15.1339
447 1 -1.1104 9.45424 10.7288 15.2706
9198 2 2.2208 13.6125 9.47659 16.6459
353 2 2.2208 5.10079 -1.9585 13.7665
441 1 -1.1104 9.12418 8.21929 20.7186
9473 2 2.2208 13.4968 20.8449 22.1671
380 1 -1.1104 12.1241 13.752 23.6168
579 1 -1.1104 9.45068 19.521 26.2288
424 2 2.2208 2.31859 12.1747 13.9077
548 2 2.2208 10.6363 20.8147 24.8734
452 2 2.2208 4.97768 17.7896 16.6038
453 1 -1.1104 0.772315 13.5397 17.8954
454 1 -1.1104 0.875542 19.3199 17.8408
457 1 -1.1104 0.770237 13.3719 15.2881
459 1 -1.1104 0.836176 19.0348 15.1702
465 1 -1.1104 0.831437 16.5174 17.9757
467 2 2.2208 5.15872 15.1971 19.4224
468 2 2.2208 5.09212 20.6999 19.4953
469 1 -1.1104 0.843765 16.347 15.2237
473 1 -1.1104 3.63673 13.467 17.9695
474 1 -1.1104 3.71121 19.2847 18.1235
475 2 2.2208 2.35661 17.9261 19.4504
476 1 -1.1104 3.67146 13.5714 15.0675
478 1 -1.1104 3.71144 19.3006 15.1987
480 2 2.2208 2.1037 15.0025 16.587
481 2 2.2208 2.27191 20.679 16.5598
482 1 -1.1104 3.64313 16.3861 17.972
483 1 -1.1104 3.39601 16.5065 15.1005
466 1 -1.1104 6.5146 16.4424 17.9213
456 1 -1.1104 6.52062 19.1534 18.0087
455 1 -1.1104 6.44611 13.7684 17.9142
461 1 -1.1104 6.49007 13.6221 15.0489
471 1 -1.1104 6.32382 16.486 15.2212
463 1 -1.1104 6.57208 19.2523 15.1042
464 1 -1.1104 6.45135 19.2705 20.7634
515 1 -1.1104 12.1737 19.4511 26.4224
511 1 -1.1104 9.3105 16.5558 20.6254
578 1 -1.1104 9.31641 13.5218 26.3017
387 2 2.2208 10.8064 -1.96464 13.7375
384 1 -1.1104 12.0651 19.3993 23.7211
487 2 2.2208 5.11058 15.142 13.758
9270 2 2.2208 13.5936 17.8171 19.4071
9268 2 2.2208 13.5165 15.0927 16.5816
488 2 2.2208 10.7902 17.9751 16.5266
489 1 -1.1104 12.0152 13.6482 17.9185
490 1 -1.1104 12.2051 19.2774 18.0097
491 1 -1.1104 11.9689 13.5945 15.1947
493 1 -1.1104 12.1279 19.3496 15.0961
495 1 -1.1104 12.0482 16.6027 17.9752
496 2 2.2208 10.7727 15.2473 19.19
497 2 2.2208 10.7617 20.7312 19.23
498 1 -1.1104 12.1249 16.5918 15.3339
500 1 -1.1104 9.17208 13.8194 17.9865
501 1 -1.1104 9.39536 19.3908 17.7728
502 2 2.2208 7.93677 18.0288 19.3596
503 1 -1.1104 9.36995 13.7063 15.3241
505 1 -1.1104 9.36247 19.1995 14.9529
507 2 2.2208 7.93144 15.1811 16.5477
508 2 2.2208 7.93375 20.7091 16.4219
509 1 -1.1104 9.30656 16.6598 17.8435
510 1 -1.1104 9.20575 16.4556 15.0082
506 1 -1.1104 9.26082 19.6383 20.5497
9130 2 2.2208 13.5805 0.870594 19.6362
9199 2 2.2208 13.5491 6.50615 19.369
551 1 -1.1104 9.38559 19.4288 23.3545
580 2 2.2208 7.9476 15.1632 22.1971
345 1 -1.1104 3.87571 -0.447667 20.9341
319 1 -1.1104 0.785664 -3.34608 20.7494
333 1 -1.1104 6.82686 -0.301691 20.885
338 1 -1.1104 3.75084 -3.27097 20.9604
325 1 -1.1104 6.65125 2.35702 21.0209
331 1 -1.1104 0.854154 -0.319545 20.7938
321 1 -1.1104 0.881533 2.35335 20.9483
516 2 2.2208 5.23814 1.1 22.3182
517 1 -1.1104 0.882049 -3.18429 23.6323
518 1 -1.1104 1.00297 2.48337 23.7006
521 1 -1.1104 0.84357 -3.23463 26.5557
522 1 -1.1104 0.885571 2.21822 26.5449
525 1 -1.1104 1.04732 -0.420373 23.4269
527 2 2.2208 5.29918 -1.67549 25.1545
529 1 -1.1104 0.934981 -0.465004 26.4398
531 1 -1.1104 3.73194 -3.23427 23.7975
532 1 -1.1104 3.72558 2.29451 23.61
533 2 2.2208 2.4064 0.883545 24.8379
534 1 -1.1104 3.71887 -3.15724 26.304
535 1 -1.1104 3.69075 2.19929 26.4924
536 2 2.2208 2.37397 -1.80437 22.3457
538 1 -1.1104 3.86214 -0.486466 23.7071
539 1 -1.1104 3.70174 -0.432097 26.4451
528 2 2.2208 5.20052 3.61808 24.9346
537 2 2.2208 2.32856 3.87019 22.4443
526 1 -1.1104 6.55429 -0.454251 23.5852
519 1 -1.1104 6.61341 -3.30608 23.7929
524 1 -1.1104 6.46236 2.35974 26.4386
530 1 -1.1104 6.63844 -0.388722 26.4986
523 1 -1.1104 6.5874 -3.10385 26.5448
520 1 -1.1104 6.66392 2.50174 23.5662
499 1 -1.1104 12.0702 16.5633 20.779
610 1 -1.1104 9.43756 16.5128 26.5611
374 1 -1.1104 9.35709 2.38661 20.851
360 1 -1.1104 12.1809 -3.25614 20.9489
549 1 -1.1104 12.1951 16.3443 26.6911
494 1 -1.1104 12.227 19.3911 20.8513
543 1 -1.1104 12.1883 16.4542 23.699
372 1 -1.1104 9.42189 -3.27336 21.1003
362 1 -1.1104 12.1776 2.20908 21.0311
379 1 -1.1104 9.41322 -0.523205 20.9188
611 2 2.2208 2.29357 14.8899 27.8218
9474 2 2.2208 -0.48979 0.960011 16.5771
552 2 2.2208 10.7044 1.02667 22.4362
553 1 -1.1104 12.2676 -3.04844 23.8496
554 1 -1.1104 12.2081 2.42663 23.8916
555 1 -1.1104 12.3503 -3.32671 26.6527
556 1 -1.1104 12.3175 2.24748 26.5949
557 1 -1.1104 12.2473 -0.352124 23.6593
558 2 2.2208 10.8839 -1.7317 25.3115
560 1 -1.1104 12.3733 -0.452365 26.5836
561 1 -1.1104 9.50789 -3.28064 23.8227
562 1 -1.1104 9.4366 2.47562 23.7374
563 2 2.2208 8.03907 1.0973 25.2358
564 1 -1.1104 9.49037 -3.14172 26.5649
565 1 -1.1104 9.5092 2.53021 26.447
566 2 2.2208 7.96327 -1.77191 22.4439
568 1 -1.1104 9.29472 -0.28071 23.8588
569 1 -1.1104 9.5043 -0.412166 26.6727
567 2 2.2208 8.01351 3.82561 22.3642
559 2 2.2208 10.8719 3.79173 25.0933
504 1 -1.1104 9.44108 13.6353 20.7147
9469 2 2.2208 13.6005 14.9989 22.1624
419 1 -1.1104 3.77791 5.03536 20.8257
414 1 -1.1104 3.73166 7.9869 20.7444
396 1 -1.1104 6.54742 7.91064 20.9442
407 1 -1.1104 6.70454 5.25479 20.7331
409 1 -1.1104 6.53635 10.9377 20.9734
403 1 -1.1104 1.01624 5.10916 20.718
405 1 -1.1104 0.801756 10.778 20.7388
581 2 2.2208 5.26189 6.54448 22.245
582 2 2.2208 5.04751 12.2327 22.3506
583 1 -1.1104 1.01503 7.93259 23.5699
585 1 -1.1104 1.0652 8.10471 26.5999
587 1 -1.1104 0.732946 5.19058 23.7642
588 1 -1.1104 0.92813 10.8683 23.5649
591 2 2.2208 5.12507 9.33864 25.1945
592 1 -1.1104 1.06936 5.20417 26.4649
593 1 -1.1104 0.890504 11.0505 26.2741
596 1 -1.1104 3.60107 7.93002 23.5611
597 2 2.2208 2.41397 6.57124 24.9766
598 2 2.2208 2.33937 12.2981 25.024
599 1 -1.1104 3.77691 8.06303 26.6542
600 2 2.2208 2.30142 9.33897 22.1328
601 1 -1.1104 3.81382 5.19554 23.6978
602 1 -1.1104 3.8779 10.8022 23.7021
603 1 -1.1104 3.83533 5.02676 26.3793
604 1 -1.1104 3.62999 10.9125 26.6607
584 1 -1.1104 6.38457 8.03977 23.5814
586 1 -1.1104 6.52798 7.93795 26.5004
595 1 -1.1104 6.50704 10.8525 26.6546
590 1 -1.1104 6.71583 10.7919 23.7853
594 1 -1.1104 6.64133 5.03663 26.4238
589 1 -1.1104 6.40157 5.06282 23.4823
573 2 2.2208 7.83918 17.7716 24.9585
448 1 -1.1104 9.45801 10.8504 20.878
434 1 -1.1104 12.0601 5.17023 20.8951
429 1 -1.1104 12.0294 7.95539 20.792
9331 2 2.2208 13.6418 3.76523 22.2469
446 1 -1.1104 9.41116 5.26005 20.9401
9274 2 2.2208 13.4543 12.2891 25.1247
436 1 -1.1104 12.1784 10.905 20.892
9267 2 2.2208 13.7538 6.59063 25.0811
612 1 -1.1104 9.17493 10.7961 26.578
613 1 -1.1104 9.19844 5.36172 26.6129
614 1 -1.1104 9.29742 10.7382 23.755
615 1 -1.1104 9.39075 5.38533 23.8627
616 2 2.2208 7.96294 9.44036 22.2646
617 1 -1.1104 9.48502 8.03537 26.4439
618 2 2.2208 7.86941 12.3187 24.9246
619 2 2.2208 7.87 6.73473 24.9958
620 2 2.2208 10.8236 6.55649 22.3587
621 2 2.2208 10.7629 12.2684 22.2234
622 1 -1.1104 12.1503 8.22607 23.6029
623 1 -1.1104 12.4217 7.87027 26.2836
624 1 -1.1104 12.3262 5.26702 23.6205
625 1 -1.1104 12.2694 10.9827 23.7109
626 2 2.2208 10.6998 9.45248 24.9751
627 1 -1.1104 12.1495 5.0613 26.5943
628 1 -1.1104 11.9751 10.933 26.4326
629 1 -1.1104 9.31962 7.99604 23.4829
9390 2 2.2208 13.5802 9.49659 22.178
484 1 -1.1104 3.70624 16.6079 20.8307
470 1 -1.1104 0.636792 16.4385 20.8894
460 1 -1.1104 0.97108 19.2452 20.7017
472 1 -1.1104 6.57644 16.5013 20.7918
477 1 -1.1104 3.79459 13.7578 20.7586
646 1 -1.1104 6.49872 13.7344 23.608
637 1 -1.1104 6.41578 13.7622 26.441
458 1 -1.1104 0.877809 13.6524 20.7154
479 1 -1.1104 3.60157 19.4236 20.8821
462 1 -1.1104 6.51592 13.7956 20.8294
349 2 2.2208 2.25991 20.7123 22.0611
350 1 -1.1104 3.61936 16.6081 23.4307
485 1 -1.1104 0.901116 16.4269 23.7063
512 1 -1.1104 3.698 13.8173 26.4608
514 1 -1.1104 3.89362 16.5867 26.4157
634 2 2.2208 2.4095 17.8484 25.0324
635 2 2.2208 2.25197 15.1798 22.1814
636 1 -1.1104 3.8528 19.2243 23.5459
638 1 -1.1104 3.68579 13.5813 23.8366
640 1 -1.1104 0.801506 19.2936 26.2708
641 1 -1.1104 1.08476 16.2838 26.4772
642 1 -1.1104 0.927037 13.6754 26.1937
644 2 2.2208 5.07665 20.73 24.8466
645 2 2.2208 5.13432 15.1781 24.9899
647 1 -1.1104 0.849487 19.2119 23.5423
648 1 -1.1104 1.11733 13.7791 23.5787
649 2 2.2208 5.14652 17.9305 22.0964
650 1 -1.1104 3.57069 19.3927 26.2044
643 1 -1.1104 6.74286 19.2804 23.5461
486 1 -1.1104 6.46911 16.5428 23.5442
639 1 -1.1104 6.75625 16.3418 26.2449
577 1 -1.1104 6.42512 19.1252 26.4734
351 2 2.2208 10.7056 17.9184 22.0861
544 2 2.2208 10.8115 15.0365 25.037
609 1 -1.1104 9.33129 16.4299 23.6957
492 1 -1.1104 12.3131 13.7894 20.7098
385 1 -1.1104 12.2286 13.5721 26.457
651 2 2.2208 5.16401 23.3387 5.32841
652 2 2.2208 5.02151 29.096 5.43887
653 1 -1.1104 0.913145 24.8965 1.0716
654 1 -1.1104 0.952331 24.7504 3.84883
655 1 -1.1104 1.05144 22.2074 1.15553
656 1 -1.1104 0.856688 27.8258 1.20459
657 2 2.2208 5.05062 26.2431 2.41082
658 1 -1.1104 0.83142 22.0866 3.91885
659 1 -1.1104 0.852046 27.4963 3.9515
660 1 -1.1104 3.64755 24.9484 1.11839
661 2 2.2208 2.37618 23.6875 2.61046
662 2 2.2208 2.26586 29.0587 2.4787
663 1 -1.1104 3.85741 24.802 3.96881
664 2 2.2208 2.23021 26.1807 5.25189
665 1 -1.1104 3.67113 22.0687 1.34717
666 1 -1.1104 3.63615 27.8038 0.977631
667 1 -1.1104 3.74328 22.0867 3.97222
668 1 -1.1104 3.66785 27.6243 3.83733
674 1 -1.1104 6.54624 21.7988 1.06191
676 1 -1.1104 6.62197 22.1011 3.93868
673 1 -1.1104 6.64469 24.7604 3.75696
677 1 -1.1104 6.4762 27.7531 3.89777
672 1 -1.1104 6.41244 24.8075 1.04683
675 1 -1.1104 6.41089 27.5025 1.11344
797 1 -1.1104 6.52377 27.4285 6.60422
799 1 -1.1104 3.75595 21.968 6.87348
793 1 -1.1104 6.56568 24.6473 6.59058
9817 2 2.2208 13.5345 34.6615 2.4924
1480 1 -1.1104 3.91544 47.2848 6.71618
973 2 2.2208 2.19738 26.3972 -0.343367
9811 2 2.2208 13.5537 23.4818 2.43838
678 2 2.2208 10.859 23.4947 5.39728
679 2 2.2208 10.5902 28.9478 5.16058
680 1 -1.1104 12.3115 24.821 1.09417
681 1 -1.1104 12.1956 24.9586 3.98078
682 1 -1.1104 12.1245 22.0864 1.00202
683 1 -1.1104 12.1239 27.6079 0.946579
684 2 2.2208 10.6935 26.1614 2.35402
685 1 -1.1104 12.3124 22.1114 3.87209
686 1 -1.1104 12.066 27.8002 3.70884
687 1 -1.1104 9.24698 24.7338 1.009
688 2 2.2208 7.89864 23.3224 2.38661
689 2 2.2208 7.81362 29.0966 2.56451
690 1 -1.1104 9.36252 24.7061 3.82381
691 2 2.2208 7.84148 26.1308 5.20696
692 1 -1.1104 9.35831 22.0133 1.24135
693 1 -1.1104 9.36909 27.4514 0.728929
694 1 -1.1104 9.47748 21.9339 4.1191
695 1 -1.1104 9.29881 27.6539 3.85453
9812 2 2.2208 13.469 29.0148 2.44275
830 1 -1.1104 9.25604 27.4724 6.66871
1487 1 -1.1104 6.3299 47.2941 9.35955
825 1 -1.1104 12.3494 24.8811 6.81814
977 2 2.2208 10.8108 29.1166 -0.446565
9773 2 2.2208 13.6183 45.9008 8.1621
699 2 2.2208 5.16687 34.5845 5.26003
700 1 -1.1104 0.917647 30.4621 1.04249
701 1 -1.1104 1.09163 36.2586 1.04729
703 1 -1.1104 0.901996 30.2828 4.02804
704 1 -1.1104 0.816019 35.8668 3.84394
706 1 -1.1104 0.799269 33.2837 1.11021
707 2 2.2208 5.07944 31.8785 2.61819
708 2 2.2208 5.13024 37.5863 2.52643
709 1 -1.1104 0.772445 32.9618 3.85611
711 1 -1.1104 3.70083 30.4038 1.39077
712 1 -1.1104 3.99242 36.1062 1.06803
713 2 2.2208 2.32597 34.7475 2.45232
714 1 -1.1104 3.67814 30.4072 4.02938
715 1 -1.1104 3.60748 36.1107 3.83151
716 2 2.2208 2.30557 31.9045 5.26656
717 2 2.2208 2.22033 37.4822 5.41185
718 1 -1.1104 3.75276 33.1859 1.1699
719 1 -1.1104 3.6396 33.2432 3.89575
710 1 -1.1104 6.58985 33.252 3.98655
702 1 -1.1104 6.57807 36.3067 1.14305
724 1 -1.1104 6.51976 30.5883 3.87861
705 1 -1.1104 6.34374 36.145 3.93385
723 1 -1.1104 6.53417 30.4062 0.935234
725 1 -1.1104 6.51109 33.3462 1.19467
853 1 -1.1104 0.885769 33.2779 6.8515
9844 2 2.2208 13.4965 26.3626 -0.336935
9854 2 2.2208 13.4745 43.2359 -0.243861
9647 2 2.2208 13.3974 26.3957 10.7878
9550 2 2.2208 13.7338 37.4799 5.33207
940 2 2.2208 7.96475 40.4205 8.06237
726 2 2.2208 10.8525 34.5998 5.34819
727 1 -1.1104 12.1692 30.4579 0.975327
728 1 -1.1104 12.1766 36.1055 1.07362
729 1 -1.1104 12.0607 30.6226 3.7764
730 1 -1.1104 12.1768 36.0803 3.91584
731 1 -1.1104 12.1984 33.2993 1.2808
732 2 2.2208 10.6492 32.0258 2.41018
733 2 2.2208 10.8095 37.5421 2.62077
734 1 -1.1104 12.1271 33.3054 3.87531
735 1 -1.1104 9.35156 30.5912 1.06427
736 1 -1.1104 9.46169 36.2162 1.22595
737 2 2.2208 7.86046 34.8064 2.59933
738 1 -1.1104 9.2687 30.4611 3.8098
739 1 -1.1104 9.42266 36.0509 4.05021
740 2 2.2208 7.94483 31.9291 5.27791
741 2 2.2208 7.90677 37.4077 5.41631
742 1 -1.1104 9.23181 33.3624 1.17115
743 1 -1.1104 9.29921 33.3899 3.98504
888 1 -1.1104 9.42565 33.3856 6.92108
9555 2 2.2208 13.5855 31.7183 5.28
978 2 2.2208 10.8112 34.8314 -0.220628
885 1 -1.1104 12.3277 33.0642 6.61549
887 1 -1.1104 9.19405 36.0349 6.7782
884 1 -1.1104 12.0108 36.0923 6.81235
9813 2 2.2208 13.5574 26.1687 5.27665
946 1 -1.1104 9.30214 38.7656 12.4138
9590 2 2.2208 13.5264 43.1187 5.29712
751 1 -1.1104 0.765855 38.9582 1.17828
767 1 -1.1104 3.72553 39.0149 3.77561
756 1 -1.1104 0.960345 38.8001 4.10012
745 2 2.2208 5.17992 40.2695 5.29154
746 2 2.2208 5.21677 45.9857 5.30091
747 1 -1.1104 0.850516 41.7697 1.20005