ITEM: TIMESTEP
70000
ITEM: NUMBER OF ATOMS
17910
ITEM: BOX BOUNDS pp pp pp
-4.0108032218910333e-01 2.7741080322189141e+01
-4.8331504772117597e+00 3.3291315047720127e+02
-3.8344324134687330e-01 2.7723443241347550e+01
ITEM: ATOMS id type q x y z
1 2 2.2208 5.39764 0.609105 5.18277
2 1 -1.1104 1.23842 -3.59525 0.895177
3 1 -1.1104 1.15925 2.21497 0.793754
6 1 -1.1104 1.15264 -3.46823 3.72188
7 1 -1.1104 1.12818 1.94297 3.60261
10 1 -1.1104 1.01908 -0.82563 0.800926
12 2 2.2208 5.22922 -1.96023 2.18655
14 1 -1.1104 0.916685 -0.774291 3.74945
16 1 -1.1104 3.92206 -3.45361 1.02591
17 1 -1.1104 3.7965 2.04961 0.927261
18 2 2.2208 2.52023 0.691116 2.47757
19 1 -1.1104 3.98664 -3.39825 3.75429
20 1 -1.1104 3.97 2.15725 3.62194
21 2 2.2208 2.44723 -2.14439 5.04817
23 1 -1.1104 3.85819 -0.697477 0.819985
24 1 -1.1104 3.7312 -0.628281 4.03951
13 2 2.2208 5.5008 3.51774 2.24084
22 2 2.2208 2.53011 3.47346 5.08261
9093 2 2.2208 -0.262469 20.6355 13.5558
173 1 -1.1104 3.91507 2.04551 6.57878
9064 2 2.2208 -0.193777 0.757015 5.09067
9061 2 2.2208 -0.251779 -2.24607 2.18599
513 2 2.2208 10.9752 14.8912 13.4163
9312 2 2.2208 -0.286069 14.6706 13.3737
9077 2 2.2208 -0.321771 17.6274 5.11286
4 1 -1.1104 6.6671 -3.54455 0.987855
15 1 -1.1104 6.5916 -0.676458 3.71752
9 1 -1.1104 6.87584 2.09923 3.58814
11 1 -1.1104 6.69467 -0.800242 0.859157
8 1 -1.1104 6.70379 -3.38041 3.61642
5 1 -1.1104 6.62394 2.05942 0.920948
31 2 2.2208 10.9084 0.717774 5.07218
32 1 -1.1104 12.1632 -3.59029 1.05218
33 1 -1.1104 12.2397 2.12756 0.823797
34 1 -1.1104 12.2713 -3.59077 3.7591
35 1 -1.1104 12.2583 1.94851 3.47134
36 1 -1.1104 12.477 -0.602035 0.792834
37 2 2.2208 10.8573 -2.23282 2.40907
39 1 -1.1104 12.2525 -0.687563 3.68743
40 1 -1.1104 9.34095 -3.58475 1.00814
41 1 -1.1104 9.51396 2.02589 0.863219
42 2 2.2208 8.07507 0.687041 2.3503
43 1 -1.1104 9.5936 -3.46925 3.87796
44 1 -1.1104 9.6602 2.18996 3.79225
45 2 2.2208 8.11013 -2.20811 5.16167
47 1 -1.1104 9.724 -0.799411 0.798778
48 1 -1.1104 9.27075 -0.962181 3.57544
38 2 2.2208 10.9373 3.4991 2.33164
46 2 2.2208 8.12451 3.52038 5.08556
171 1 -1.1104 6.79816 -0.607222 6.56282
206 1 -1.1104 12.2266 2.19049 6.24002
207 1 -1.1104 12.3289 -0.646719 6.52535
82 1 -1.1104 12.407 16.2267 9.34188
169 1 -1.1104 6.80014 2.04651 6.46566
168 1 -1.1104 6.72351 -3.58112 6.54413
205 1 -1.1104 12.2508 -3.58718 6.52024
209 1 -1.1104 9.63013 2.01871 6.34531
208 1 -1.1104 9.41897 -3.51288 6.56751
424 2 2.2208 2.68283 12.0175 13.53
9072 2 2.2208 -0.40552 12.1249 5.06403
54 2 2.2208 5.29219 6.24486 5.08637
55 2 2.2208 5.42324 11.7809 5.09748
56 1 -1.1104 0.919052 7.78033 0.831392
58 1 -1.1104 1.08944 7.48454 3.42746
60 1 -1.1104 1.13447 5.0035 0.684248
61 1 -1.1104 1.12749 10.5348 0.840003
66 2 2.2208 5.34001 9.18848 2.29512
67 1 -1.1104 1.32132 4.67185 3.53157
68 1 -1.1104 1.02026 10.5867 3.84542
71 1 -1.1104 3.98318 7.93665 1.05592
72 2 2.2208 2.61388 6.32696 2.22367
73 2 2.2208 2.30498 12.0647 2.30187
74 1 -1.1104 3.89674 7.71313 3.72749
75 2 2.2208 2.41549 9.28991 5.13262
76 1 -1.1104 3.93425 5.06603 0.847059
77 1 -1.1104 3.98132 10.7422 0.836034
79 1 -1.1104 4.04197 4.9625 3.75497
80 1 -1.1104 3.99015 10.3944 3.84145
9476 2 2.2208 -0.408852 -2.09336 13.5996
9071 2 2.2208 -0.334505 9.09606 2.15945
78 1 -1.1104 3.88638 10.5267 6.73478
290 1 -1.1104 6.64178 13.3975 9.20322
236 1 -1.1104 1.00843 4.89943 6.45884
296 1 -1.1104 6.68001 19.0438 12.0485
311 2 2.2208 8.273 17.5738 13.5815
59 1 -1.1104 6.64862 7.86258 3.53909
64 1 -1.1104 6.65736 10.5285 0.69711
70 1 -1.1104 6.78558 10.6211 3.62537
57 1 -1.1104 7.00929 7.73787 0.761605
63 1 -1.1104 6.96297 4.82962 0.888455
69 1 -1.1104 6.70693 5.08444 3.76518
84 2 2.2208 10.9268 6.25551 5.0666
85 2 2.2208 10.9998 12.0585 4.94062
86 1 -1.1104 12.465 7.74028 0.80807
87 1 -1.1104 12.2851 7.76946 3.70337
88 1 -1.1104 12.1675 4.91795 0.684309
89 1 -1.1104 12.4094 10.442 0.653846
91 2 2.2208 11.056 9.33454 2.29694
92 1 -1.1104 12.2629 4.88942 3.66404
93 1 -1.1104 12.6735 10.674 3.66347
94 1 -1.1104 9.40305 7.95204 1.00246
95 2 2.2208 8.19668 6.57753 2.20802
96 2 2.2208 8.33938 12.0405 2.27693
97 1 -1.1104 9.62759 7.65982 3.72594
98 2 2.2208 8.11943 9.08089 5.09023
99 1 -1.1104 9.51068 5.12868 0.748516
100 1 -1.1104 9.5983 10.8119 0.74187
102 1 -1.1104 9.5979 4.90373 3.58767
103 1 -1.1104 9.67935 10.6041 3.65718
90 1 -1.1104 12.3076 10.5923 6.43408
65 1 -1.1104 6.71615 10.2876 6.47605
101 1 -1.1104 9.46033 10.5189 6.376
266 1 -1.1104 12.4243 4.9221 6.43429
265 1 -1.1104 12.3356 7.72658 6.51717
235 1 -1.1104 6.71902 7.70001 6.3988
289 1 -1.1104 6.76261 16.1395 9.46798
9076 2 2.2208 -0.257 20.4734 2.26149
9171 2 2.2208 -0.273771 3.49768 13.5988
297 1 -1.1104 6.78524 13.2618 12.0828
288 1 -1.1104 6.80384 18.962 9.03865
106 2 2.2208 5.22892 17.7678 4.9912
107 1 -1.1104 1.02593 13.5094 1.01369
109 1 -1.1104 1.09556 18.9731 0.960074
113 1 -1.1104 1.15303 13.2904 3.7701
114 1 -1.1104 1.05896 19.1046 3.71318
116 1 -1.1104 1.02621 16.2762 1.0666
119 2 2.2208 5.21522 14.6632 2.3329
120 2 2.2208 5.27864 20.6512 2.29894
121 1 -1.1104 1.16896 16.1447 3.70852
123 1 -1.1104 3.83183 13.3659 0.86883
125 1 -1.1104 4.09089 19.0002 1.14858
127 2 2.2208 2.4461 17.5738 2.43855
128 1 -1.1104 3.88635 13.1891 3.72662
129 1 -1.1104 3.68282 19.0432 3.71852
130 2 2.2208 2.68411 14.818 5.12597
131 2 2.2208 2.41056 20.4324 5.13933
132 1 -1.1104 3.82597 16.25 0.985817
134 1 -1.1104 4.02835 15.9857 3.84165
124 1 -1.1104 3.79343 13.4155 6.51052
9075 2 2.2208 -0.40341 14.8385 2.47522
302 1 -1.1104 0.959833 19.1505 6.56592
133 1 -1.1104 4.00479 16.1774 6.38574
199 1 -1.1104 9.6321 16.3308 12.0456
110 1 -1.1104 6.86703 13.4587 0.78968
145 1 -1.1104 12.3814 19.1458 6.40001
115 1 -1.1104 6.92677 13.398 3.46048
122 1 -1.1104 6.54023 16.3359 3.76793
140 1 -1.1104 6.68934 16.1989 1.19515
139 1 -1.1104 6.69742 19.0262 3.63849
138 1 -1.1104 6.64198 19.0564 0.871288
141 2 2.2208 11.0176 17.6069 5.06139
142 1 -1.1104 12.522 13.2477 0.923349
144 1 -1.1104 12.3892 18.9595 0.904686
146 1 -1.1104 12.6545 13.3098 3.64099
147 1 -1.1104 12.6076 18.8898 3.74843
148 1 -1.1104 12.2319 16.0863 0.87529
150 2 2.2208 11.0373 14.7724 2.22657
151 2 2.2208 11.1115 20.4089 2.2893
152 1 -1.1104 12.0275 16.0477 3.6567
153 1 -1.1104 9.79118 13.4588 0.894655
155 1 -1.1104 9.61391 19.0772 0.928303
157 2 2.2208 8.08674 17.5959 2.36995
158 1 -1.1104 9.54261 13.3397 3.66002
159 1 -1.1104 9.58375 19.0678 3.61008
160 2 2.2208 8.12173 14.7514 5.121
161 2 2.2208 8.19537 20.4193 5.11424
162 1 -1.1104 9.4883 16.3275 0.853923
164 1 -1.1104 9.30571 16.3273 3.90455
112 1 -1.1104 6.67075 19.1023 6.23319
111 1 -1.1104 6.67803 13.3981 6.35842
156 1 -1.1104 9.45755 19.0154 6.34995
9070 2 2.2208 -0.204187 6.35595 5.01374
26 1 -1.1104 12.4018 13.4225 11.9263
172 1 -1.1104 4.0565 -3.5416 6.52506
167 1 -1.1104 1.13017 2.06769 6.4799
166 1 -1.1104 1.27194 -3.52919 6.39706
174 1 -1.1104 4.02153 -0.869841 6.83117
9081 2 2.2208 -0.352329 0.803829 10.708
170 1 -1.1104 1.26907 -0.710679 6.54069
175 2 2.2208 5.26262 0.661074 10.641
176 1 -1.1104 0.915289 -3.40101 12.1434
177 1 -1.1104 1.26061 2.08142 12.1216
180 1 -1.1104 1.16834 -3.452 9.36179
181 1 -1.1104 1.26295 2.11294 9.39909
184 1 -1.1104 0.995183 -0.669914 12.3767
186 2 2.2208 5.42829 -2.12183 8.0606
188 1 -1.1104 1.14188 -0.72909 9.20324
190 1 -1.1104 3.68303 -3.34509 12.2536
191 1 -1.1104 4.16675 2.11089 12.0332
192 2 2.2208 2.70288 0.6768 7.92035
193 1 -1.1104 3.92864 -3.53169 9.39648
194 1 -1.1104 4.01029 2.06031 9.19004
195 2 2.2208 2.35149 -2.16584 10.7046
197 1 -1.1104 3.83429 -0.561285 12.0809
198 1 -1.1104 3.82879 -0.841148 9.56735
187 2 2.2208 5.46051 3.50236 7.98391
196 2 2.2208 2.64253 3.45163 10.866
9483 2 2.2208 -0.29015 0.775912 -0.727124
53 2 2.2208 10.8738 14.7244 7.8845
9083 2 2.2208 -0.379402 17.6777 10.7231
210 1 -1.1104 9.44762 -0.678148 6.43429
200 1 -1.1104 9.75166 16.1504 9.25541
179 1 -1.1104 6.98399 2.00046 12.0798
183 1 -1.1104 6.82805 2.02646 9.22476
189 1 -1.1104 6.77983 -0.702468 9.32471
178 1 -1.1104 6.50965 -3.70045 12.0784
182 1 -1.1104 6.87481 -3.70352 9.27036
185 1 -1.1104 6.74471 -0.863599 12.3038
211 2 2.2208 11.0762 0.788351 10.7522
212 1 -1.1104 12.2125 -3.58566 12.1627
213 1 -1.1104 12.3972 2.13232 12.0084
214 1 -1.1104 12.3181 -3.59718 9.2218
215 1 -1.1104 12.3557 2.28104 9.23118
216 1 -1.1104 12.5463 -0.641359 11.9671
217 2 2.2208 10.8544 -2.20571 7.90694
219 1 -1.1104 12.1028 -0.640487 9.23959
220 1 -1.1104 9.36648 -3.52023 12.0894
221 1 -1.1104 9.6139 2.09443 12.321
222 2 2.2208 8.24554 0.712844 7.88035
223 1 -1.1104 9.61661 -3.58514 9.31864
224 1 -1.1104 9.69213 2.02662 9.24691
225 2 2.2208 8.12723 -2.11899 10.6903
227 1 -1.1104 9.58897 -0.723738 11.958
228 1 -1.1104 9.34759 -0.800115 9.16726
226 2 2.2208 8.13559 3.41065 10.6384
218 2 2.2208 10.9254 3.52419 7.96016
355 2 2.2208 5.50785 3.32786 13.6751
50 1 -1.1104 12.6286 16.2791 12.0191
8991 2 2.2208 -0.269509 9.05026 7.79712
83 1 -1.1104 9.60026 13.3951 12.1292
8984 2 2.2208 -0.19881 11.9444 10.7027
8992 2 2.2208 -0.252763 6.40065 10.7791
239 1 -1.1104 4.09094 4.75173 6.38714
62 1 -1.1104 0.906398 10.5888 6.61656
234 1 -1.1104 1.10959 7.73997 6.19886
238 1 -1.1104 3.92466 7.63991 6.38974
240 2 2.2208 5.3112 6.20514 10.7329
241 2 2.2208 5.31792 11.9799 10.6581
242 1 -1.1104 1.2035 7.81937 11.9731
244 1 -1.1104 1.05669 7.75231 9.0382
246 1 -1.1104 1.10041 4.95026 12.259
247 1 -1.1104 1.30449 10.7556 11.9227
250 2 2.2208 5.36021 9.02782 7.85916
251 1 -1.1104 1.24895 5.04008 9.27975
252 1 -1.1104 1.06362 10.5356 9.32465
255 1 -1.1104 4.10616 7.64786 12.1148
256 2 2.2208 2.5293 6.31699 7.83353
257 2 2.2208 2.49237 11.9383 7.89737
258 1 -1.1104 3.67444 7.82321 9.17772
259 2 2.2208 2.54286 9.04817 10.5671
260 1 -1.1104 4.03849 4.78831 12.3302
261 1 -1.1104 4.05616 10.4184 12.0867
262 1 -1.1104 3.9813 4.79768 9.54112
263 1 -1.1104 3.79346 10.7845 9.44195
165 2 2.2208 8.18583 20.3285 10.7264
154 1 -1.1104 9.53785 13.2152 6.45769
25 2 2.2208 11.1484 17.6288 10.7499
27 1 -1.1104 12.6332 18.9063 11.9287
104 1 -1.1104 9.50545 18.9176 12.2479
143 1 -1.1104 12.581 13.4262 6.57596
237 1 -1.1104 6.63135 4.91432 6.58451
248 1 -1.1104 6.69809 4.72838 11.9062
267 1 -1.1104 9.61776 7.89132 6.56156
269 1 -1.1104 9.38551 5.0466 6.50484
254 1 -1.1104 6.61213 10.5658 9.2087
243 1 -1.1104 6.79851 7.70368 12.0342
253 1 -1.1104 6.80474 4.93576 9.21438
245 1 -1.1104 6.6036 7.64771 9.34002
249 1 -1.1104 6.91356 10.5725 12.1218
264 1 -1.1104 9.48108 10.6552 9.20436
268 1 -1.1104 9.45974 4.8209 9.29667
270 1 -1.1104 9.63196 10.5089 12.0922
271 1 -1.1104 9.51767 4.88939 12.1201
272 2 2.2208 8.14298 9.18153 10.7097
273 1 -1.1104 9.47044 7.77176 9.49486
274 2 2.2208 8.12569 11.9324 7.80775
275 2 2.2208 8.31454 6.42284 7.82936
276 2 2.2208 11.0035 6.2847 10.7111
277 2 2.2208 11.0471 11.979 10.5972
278 1 -1.1104 12.5492 7.5375 12.0101
279 1 -1.1104 12.343 7.83234 9.30545
280 1 -1.1104 12.3949 4.87991 12.1412
281 1 -1.1104 12.4993 10.5959 11.9706
282 2 2.2208 11.0704 9.13871 7.93497
283 1 -1.1104 12.1983 4.94257 9.19541
284 1 -1.1104 12.4901 10.3704 9.15591
285 1 -1.1104 9.80302 7.75079 12.2079
117 1 -1.1104 1.18956 16.2098 6.44598
9082 2 2.2208 -0.437138 14.8317 8.09683
49 1 -1.1104 12.2994 18.9785 9.12514
126 1 -1.1104 3.90968 19.1167 6.45824
108 1 -1.1104 0.928143 13.2523 6.51443
201 2 2.2208 2.63401 14.8727 10.7081
204 2 2.2208 2.4466 20.2806 10.8565
229 1 -1.1104 3.90787 16.1335 12.0249
230 1 -1.1104 0.924548 16.1092 12.047
286 1 -1.1104 3.7883 18.9797 12.1284
287 1 -1.1104 4.00205 13.3444 12.038
291 1 -1.1104 1.1249 19.0914 9.23942
292 1 -1.1104 0.969899 16.4001 9.21288
293 2 2.2208 5.27914 20.462 7.74265
294 1 -1.1104 1.07085 13.5342 9.44141
295 2 2.2208 5.30861 14.8281 7.8521
298 1 -1.1104 1.13704 18.8556 12.2514
299 1 -1.1104 1.06734 13.2185 12.1423
300 2 2.2208 5.35344 17.596 10.6382
301 1 -1.1104 3.9007 19.0974 9.33803
303 2 2.2208 2.33105 17.6716 7.78991
304 1 -1.1104 3.90645 16.3175 9.29661
305 1 -1.1104 3.99023 13.4562 9.3984
9084 2 2.2208 -0.162817 20.4724 7.95125
118 1 -1.1104 6.74861 16.1344 6.53965
233 1 -1.1104 6.82855 16.0347 12.1812
163 1 -1.1104 9.41225 16.095 6.53764
137 2 2.2208 8.1356 14.6601 10.727
30 1 -1.1104 12.4502 13.2601 9.06865
136 1 -1.1104 9.40129 19.1071 9.24202
135 1 -1.1104 9.62888 13.2212 9.33405
105 2 2.2208 8.23674 17.55 7.89934
149 1 -1.1104 12.1962 16.2365 6.46565
81 2 2.2208 10.8986 20.4832 7.94113
8762 2 2.2208 13.7658 3.51346 5.02791
9079 2 2.2208 -0.362883 3.69145 7.81932
422 2 2.2208 2.78367 6.30627 13.6495
9065 2 2.2208 -0.228731 3.57475 2.23606
308 2 2.2208 2.52682 17.6097 13.5878
310 2 2.2208 11.02 20.439 13.5203
388 2 2.2208 10.9443 3.72352 13.6782
487 2 2.2208 5.29295 14.6838 13.4074
451 2 2.2208 8.07387 11.9505 13.5722
9243 2 2.2208 -0.168756 9.25351 13.5777
9080 2 2.2208 -0.238666 -2.12134 7.80099
309 2 2.2208 5.41556 20.3221 13.588
353 2 2.2208 5.26074 -2.14006 13.6634
607 2 2.2208 5.39611 11.966 -0.656307
449 2 2.2208 8.1951 6.41655 13.4962
387 2 2.2208 10.8466 -2.30657 13.5301
450 2 2.2208 11.0224 9.19086 13.4808
386 2 2.2208 8.22229 0.58961 13.4313
346 2 2.2208 8.02465 14.8039 -0.534135
313 2 2.2208 5.38957 0.565112 16.4765
314 1 -1.1104 1.26949 -3.34928 17.9913
315 1 -1.1104 1.12482 2.12349 17.8221
318 1 -1.1104 1.07238 -3.69835 14.9722
320 1 -1.1104 1.11882 1.94294 14.9333
326 1 -1.1104 1.24012 -0.602452 17.8468
328 2 2.2208 5.3807 -2.1053 19.2292
330 1 -1.1104 0.990581 -0.985577 14.9934
334 1 -1.1104 3.98633 -3.60575 17.9323
335 1 -1.1104 4.14767 1.89605 17.9125
336 2 2.2208 2.76772 0.707205 19.3076
337 1 -1.1104 4.05847 -3.6645 15.1081
339 1 -1.1104 3.98069 2.06566 15.0846
341 2 2.2208 2.56739 -2.19474 16.3556
343 1 -1.1104 3.89068 -0.772392 17.701
344 1 -1.1104 3.8791 -0.753022 14.9854
329 2 2.2208 5.35167 3.49445 19.2236
342 2 2.2208 2.47345 3.51691 16.3071
345 1 -1.1104 4.15916 -0.682883 20.5247
9167 2 2.2208 -0.184588 3.52041 19.1427
605 2 2.2208 5.4598 6.3828 27.6071
9474 2 2.2208 -0.223276 0.50261 16.3072
9275 2 2.2208 -0.197114 14.9414 24.8052
610 1 -1.1104 9.39128 16.427 26.2581
312 2 2.2208 2.47038 20.2449 27.6636
9311 2 2.2208 -0.230101 17.7294 16.4009
333 1 -1.1104 6.97022 -0.835285 20.3635
322 1 -1.1104 6.68974 -3.63195 15.0823
327 1 -1.1104 6.88434 -0.63823 17.7002
317 1 -1.1104 6.76439 2.15677 17.8748
316 1 -1.1104 6.75895 -3.43166 17.7662
332 1 -1.1104 6.64055 -0.800853 15.0409
324 1 -1.1104 6.61412 1.87583 14.8852
356 2 2.2208 10.8838 0.602853 16.1126
357 1 -1.1104 12.2022 -3.38994 17.6843
358 1 -1.1104 12.3044 2.29626 17.6188
359 1 -1.1104 12.2029 -3.55148 14.9876
361 1 -1.1104 12.3041 2.32273 14.8356
363 1 -1.1104 12.3873 -0.549193 17.5454
364 2 2.2208 10.974 -2.18607 19.0203
366 1 -1.1104 12.2627 -0.673698 14.8251
368 1 -1.1104 9.44483 -3.68488 17.592
369 1 -1.1104 9.47875 2.09922 17.748
370 2 2.2208 8.26591 0.658284 19.0174
371 1 -1.1104 9.5299 -3.57713 14.8824
373 1 -1.1104 9.29133 2.19409 14.8982
375 2 2.2208 8.2159 -2.12072 16.2654
377 1 -1.1104 9.62689 -0.807275 17.577
378 1 -1.1104 9.40577 -0.647048 14.7638
365 2 2.2208 10.9472 3.52941 19.1442
376 2 2.2208 8.10058 3.73344 16.3754
323 1 -1.1104 6.72597 -3.58061 20.7872
379 1 -1.1104 9.51559 -0.502315 20.6315
362 1 -1.1104 12.4176 2.3108 20.5539
367 1 -1.1104 12.2843 -0.70347 20.3811
372 1 -1.1104 9.55555 -3.50723 20.3035
9240 2 2.2208 -0.252255 6.34886 16.3347
9239 2 2.2208 -0.241898 9.27717 18.9773
389 2 2.2208 5.46326 6.3565 16.4991
390 2 2.2208 5.36019 11.9588 16.3847
391 1 -1.1104 0.963857 7.7782 17.711
393 1 -1.1104 1.10424 7.74671 14.7892
397 1 -1.1104 1.14653 4.90215 17.6997
398 1 -1.1104 1.25285 10.46 17.6564
401 2 2.2208 5.25452 9.17925 18.9464
402 1 -1.1104 1.19205 4.92136 15.0404
404 1 -1.1104 1.32501 10.4962 14.8608
410 1 -1.1104 3.76469 7.6446 17.5377
411 2 2.2208 2.47452 6.2423 19.0805
412 2 2.2208 2.74485 12.0735 19.1909
413 1 -1.1104 4.12681 7.6671 14.9567
415 2 2.2208 2.5059 9.02303 16.245
416 1 -1.1104 3.84713 4.94962 17.7281
417 1 -1.1104 3.92749 10.5902 17.8424
418 1 -1.1104 3.94567 4.85212 15.1968
420 1 -1.1104 3.96839 10.5059 14.7998
421 1 -1.1104 4.22744 10.6477 20.6221
419 1 -1.1104 4.00137 4.90297 20.5809
9472 2 2.2208 -0.211079 6.43826 27.4639
414 1 -1.1104 3.65717 7.62986 20.4001
406 1 -1.1104 6.69927 4.86349 14.8495
400 1 -1.1104 6.74891 10.6683 17.7751
392 1 -1.1104 6.78015 7.92377 17.8365
395 1 -1.1104 6.73499 7.78765 14.8177
399 1 -1.1104 6.89074 5.13185 17.7479
408 1 -1.1104 6.70196 10.6426 15.0814
425 2 2.2208 11.0803 6.49623 16.4176
426 2 2.2208 11.0899 12.0305 16.1036
427 1 -1.1104 12.4653 8.04963 17.7342
428 1 -1.1104 12.3813 7.9309 15.0728
430 1 -1.1104 12.4115 5.09051 17.5909
431 1 -1.1104 12.4852 10.8132 17.642
432 2 2.2208 10.9795 9.33584 19.2299
433 1 -1.1104 12.4751 5.07932 14.8366
435 1 -1.1104 12.4734 10.7246 14.8265
437 1 -1.1104 9.56339 7.68889 17.7967
438 2 2.2208 8.14469 6.42598 19.344
439 2 2.2208 8.19047 11.9751 19.0439
440 1 -1.1104 9.55169 7.68578 14.9168
442 2 2.2208 8.18203 9.11678 16.3908
443 1 -1.1104 9.6087 5.01976 17.7738
444 1 -1.1104 9.70888 10.4892 17.718
445 1 -1.1104 9.51128 4.94513 15.0047
447 1 -1.1104 9.69993 10.5007 14.9297
434 1 -1.1104 12.3534 4.9332 20.5213
385 1 -1.1104 12.4455 13.5264 26.1168
436 1 -1.1104 12.6422 10.6712 20.5151
407 1 -1.1104 6.64637 5.10621 20.5861
446 1 -1.1104 9.56389 4.97752 20.7248
441 1 -1.1104 9.60892 7.91357 20.542
396 1 -1.1104 6.52594 7.77023 20.6349
448 1 -1.1104 9.77522 10.849 20.4368
494 1 -1.1104 12.5061 18.9221 20.5808
351 2 2.2208 10.8793 17.6083 22.0843
606 2 2.2208 2.64507 9.20322 27.638
9310 2 2.2208 -0.242306 14.89 19.194
9309 2 2.2208 -0.319096 20.3802 19.1047
506 1 -1.1104 9.64625 18.9122 20.7161
9480 2 2.2208 -0.179821 12.0704 21.9669
9205 2 2.2208 -0.235148 12.0493 16.4295
549 1 -1.1104 12.3282 16.3289 26.3548
384 1 -1.1104 12.3143 19.1125 23.3352
452 2 2.2208 5.45604 17.7254 16.3831
453 1 -1.1104 1.26513 13.3122 17.7683
454 1 -1.1104 1.08462 19.2515 17.7042
457 1 -1.1104 1.23744 13.2109 14.9514
459 1 -1.1104 1.08823 18.9933 15.0012
465 1 -1.1104 1.2511 16.1408 17.6796
467 2 2.2208 5.48684 14.9109 19.1105
468 2 2.2208 5.42898 20.3359 19.193
469 1 -1.1104 1.19722 16.11 14.8692
473 1 -1.1104 4.13258 13.4868 17.7736
474 1 -1.1104 3.9309 19.0403 17.7422
475 2 2.2208 2.40844 17.7013 19.1701
476 1 -1.1104 3.87071 13.4558 15.1241
478 1 -1.1104 4.02654 19.1263 14.9186
480 2 2.2208 2.51531 14.7899 16.357
481 2 2.2208 2.49586 20.4735 16.3106
482 1 -1.1104 3.83477 16.4952 17.8025
483 1 -1.1104 3.8595 16.1805 14.9227
484 1 -1.1104 3.82915 16.3353 20.542
477 1 -1.1104 4.06689 13.6111 20.4242
470 1 -1.1104 1.11036 16.2574 20.5352
471 1 -1.1104 6.75641 16.4032 14.9728
466 1 -1.1104 6.57286 16.0724 17.7652
456 1 -1.1104 6.71984 18.9789 17.7297
463 1 -1.1104 7.0097 19.1581 14.7742
455 1 -1.1104 7.03414 13.3706 17.5191
461 1 -1.1104 6.4746 13.3039 14.6527
488 2 2.2208 11.0516 17.6249 16.3909
489 1 -1.1104 12.4432 13.5685 17.5034
490 1 -1.1104 12.5642 18.9298 17.7189
491 1 -1.1104 12.5109 13.5389 14.7759
493 1 -1.1104 12.666 19.1278 14.7547
495 1 -1.1104 12.4964 16.1806 17.5793
496 2 2.2208 11.082 14.8832 18.9488
497 2 2.2208 11.1393 20.4851 19.2056
498 1 -1.1104 12.5523 16.3369 14.9202
500 1 -1.1104 9.53332 13.3754 17.5543
501 1 -1.1104 9.56114 18.8493 17.7786
502 2 2.2208 8.26655 17.4707 19.2419
503 1 -1.1104 9.52174 13.3865 14.9118
505 1 -1.1104 9.6119 19.0832 15.0285
507 2 2.2208 8.12782 14.8018 16.2867
508 2 2.2208 8.26291 20.3626 16.3501
509 1 -1.1104 9.55625 16.1986 17.929
510 1 -1.1104 9.46362 16.2655 14.9241
551 1 -1.1104 9.5837 18.9449 23.5186
550 1 -1.1104 9.62255 13.4869 23.5232
504 1 -1.1104 9.7134 13.5062 20.4028
464 1 -1.1104 6.84218 18.9771 20.4285
492 1 -1.1104 12.5254 13.4032 20.295
499 1 -1.1104 12.5761 16.2643 20.5849
511 1 -1.1104 9.65459 16.2915 20.5939
338 1 -1.1104 3.93093 -3.4826 20.5739
548 2 2.2208 11.0227 20.4646 24.9197
573 2 2.2208 8.17259 17.5557 24.6667
579 1 -1.1104 9.72188 19.1247 26.3393
9486 2 2.2208 -0.262382 3.58076 24.7219
9491 2 2.2208 13.821 3.35604 27.431
340 1 -1.1104 4.0527 2.14435 20.7529
321 1 -1.1104 1.4745 2.13468 20.5817
331 1 -1.1104 1.1967 -0.667241 20.6373
319 1 -1.1104 1.08365 -3.60374 20.7011
516 2 2.2208 5.4311 0.740501 21.9978
517 1 -1.1104 1.35844 -3.63333 23.3837
518 1 -1.1104 1.16079 2.01635 23.3402
521 1 -1.1104 0.966422 -3.51106 26.2812
522 1 -1.1104 1.14227 2.10862 26.2228
525 1 -1.1104 1.30793 -0.776033 23.3601
527 2 2.2208 5.19121 -2.07002 24.9011
529 1 -1.1104 1.00337 -0.605045 26.0251
531 1 -1.1104 4.05956 -3.61076 23.5545
532 1 -1.1104 3.95762 2.07644 23.4601
533 2 2.2208 2.59338 0.600228 24.7793
534 1 -1.1104 3.90651 -3.59477 26.4801
535 1 -1.1104 3.83712 2.13789 26.3004
536 2 2.2208 2.68221 -2.1599 21.9567
538 1 -1.1104 4.0276 -0.915067 23.3809
539 1 -1.1104 3.73662 -0.880836 26.2582
528 2 2.2208 5.43914 3.58787 24.9379
537 2 2.2208 2.60835 3.63417 22.0315
9484 2 2.2208 -0.271932 -2.19485 24.7629
544 2 2.2208 10.8847 14.842 24.972
325 1 -1.1104 6.80056 2.0792 20.5591
530 1 -1.1104 6.67196 -0.65831 26.1713
519 1 -1.1104 6.70877 -3.40041 23.6334
526 1 -1.1104 6.5356 -0.707002 23.3718
523 1 -1.1104 6.71686 -3.61513 26.2695
524 1 -1.1104 6.59674 2.12683 26.1701
520 1 -1.1104 6.76276 2.29718 23.2527
360 1 -1.1104 12.3134 -3.68042 20.5127
374 1 -1.1104 9.65916 2.26086 20.622
552 2 2.2208 11.0137 0.770317 21.8342
553 1 -1.1104 12.4452 -3.42114 23.3053
554 1 -1.1104 12.4415 2.32688 23.1986
555 1 -1.1104 12.2228 -3.49794 26.1181
556 1 -1.1104 12.2868 2.12115 26.1962
557 1 -1.1104 12.3112 -0.565362 23.2061
558 2 2.2208 10.8225 -2.05522 24.8108
560 1 -1.1104 12.0227 -0.658601 26.1069
561 1 -1.1104 9.66938 -3.42577 23.4437
562 1 -1.1104 9.64692 2.02921 23.3592
563 2 2.2208 8.04504 0.624268 24.6125
564 1 -1.1104 9.60924 -3.57548 26.5498
565 1 -1.1104 9.35664 2.13967 26.036
566 2 2.2208 8.07227 -2.06421 21.9025
568 1 -1.1104 9.55404 -0.600251 23.187
569 1 -1.1104 9.26627 -0.734167 25.8824
567 2 2.2208 8.188 3.55305 22.0236
559 2 2.2208 10.9564 3.43974 24.8061
631 2 2.2208 8.22511 9.37671 27.4863
394 1 -1.1104 1.01349 7.73421 20.6968
403 1 -1.1104 1.12433 4.85836 20.4991
9493 2 2.2208 -0.143631 9.20668 24.7679
405 1 -1.1104 1.37349 10.7186 20.5847
581 2 2.2208 5.41725 6.2988 22.1516
582 2 2.2208 5.40394 11.9901 21.9019
583 1 -1.1104 1.19927 7.86874 23.4426
585 1 -1.1104 1.32404 7.72601 26.3067
587 1 -1.1104 1.1791 4.96534 23.4004
588 1 -1.1104 1.10665 10.7629 23.3344
591 2 2.2208 5.29123 9.38201 24.7683
592 1 -1.1104 1.17715 4.91442 26.0708
593 1 -1.1104 1.07333 10.6637 26.1071
596 1 -1.1104 4.01136 7.75182 23.3125
597 2 2.2208 2.60231 6.51746 24.9387
598 2 2.2208 2.55706 12.0521 24.671
599 1 -1.1104 4.17794 7.9027 26.401
600 2 2.2208 2.47506 9.13511 21.7933
601 1 -1.1104 4.0416 4.94749 23.3811
602 1 -1.1104 4.04774 10.6593 23.2488
603 1 -1.1104 3.9496 5.01868 26.3959
604 1 -1.1104 3.78723 10.625 26.0946
9418 2 2.2208 -0.252076 6.32867 22.1267
590 1 -1.1104 6.96261 10.5687 23.4335
9475 2 2.2208 -0.314722 -2.18976 19.0512
9485 2 2.2208 -0.212582 0.676886 21.9802
643 1 -1.1104 6.56821 19.0613 23.1916
409 1 -1.1104 7.01331 10.5555 20.5918
586 1 -1.1104 6.84198 7.8271 26.2509
595 1 -1.1104 6.82773 10.4783 25.971
589 1 -1.1104 6.96363 5.07809 23.3149
594 1 -1.1104 6.84272 4.93263 26.1341
584 1 -1.1104 6.65428 7.91872 23.5257
429 1 -1.1104 12.4259 7.88914 20.7757
612 1 -1.1104 9.62279 10.7373 25.9994
613 1 -1.1104 9.75161 5.08587 26.1885
614 1 -1.1104 9.77016 10.6623 23.3048
615 1 -1.1104 9.76099 4.9344 23.3837
616 2 2.2208 8.35505 9.24237 21.9749
617 1 -1.1104 9.57746 7.90445 26.1558
618 2 2.2208 8.2575 12.0519 24.7391
619 2 2.2208 8.18273 6.53283 24.7739
620 2 2.2208 11.0022 6.28497 21.9563
621 2 2.2208 11.1482 12.1436 21.8424
622 1 -1.1104 12.4533 7.96361 23.3814
623 1 -1.1104 12.4311 7.86079 26.2308
624 1 -1.1104 12.4668 5.30167 23.2663
625 1 -1.1104 12.5499 10.6305 23.2757
626 2 2.2208 11.0017 9.23882 24.6473
627 1 -1.1104 12.415 4.90696 26.228
628 1 -1.1104 12.5495 10.8319 25.9184
629 1 -1.1104 9.63777 7.77744 23.3326
570 2 2.2208 10.8453 0.670865 27.5793
472 1 -1.1104 6.83948 16.1496 20.5576
637 1 -1.1104 6.77606 13.2274 25.9903
9433 2 2.2208 -0.345966 20.5069 24.7463
486 1 -1.1104 6.76056 16.1929 23.4008
462 1 -1.1104 6.68421 13.5077 20.5165
9467 2 2.2208 -0.308312 17.6726 21.944
458 1 -1.1104 1.43792 13.4553 20.6228
460 1 -1.1104 1.07998 19.1224 20.5487
479 1 -1.1104 4.02483 19.1024 20.4784
349 2 2.2208 2.54145 20.5341 22.0068
350 1 -1.1104 3.96632 16.542 23.1625
485 1 -1.1104 1.01701 16.1478 23.3981
512 1 -1.1104 4.00544 13.3401 26.0713
514 1 -1.1104 3.92408 15.9689 26.3116
634 2 2.2208 2.57075 17.588 24.7234
635 2 2.2208 2.59234 14.8385 21.8951
636 1 -1.1104 3.91134 19.2529 23.3676
638 1 -1.1104 4.12115 13.5318 23.2562
640 1 -1.1104 1.04833 18.989 26.0737
641 1 -1.1104 1.15623 16.2845 26.1035
642 1 -1.1104 1.21075 13.4454 26.2537
644 2 2.2208 5.33321 20.3279 24.9204
645 2 2.2208 5.40963 14.8491 24.6794
647 1 -1.1104 1.14174 19.0279 23.2421
648 1 -1.1104 1.2677 13.4844 23.3913
649 2 2.2208 5.44205 17.6402 21.7635
650 1 -1.1104 4.05334 18.8582 26.3536
580 2 2.2208 8.28688 14.688 21.9434
639 1 -1.1104 6.64539 16.0849 26.3651
515 1 -1.1104 12.6047 18.9208 26.2884
609 1 -1.1104 9.49669 16.123 23.4431
577 1 -1.1104 6.92085 19.0284 25.8851
578 1 -1.1104 9.67537 13.5126 26.3401
543 1 -1.1104 12.3893 16.4544 23.4466
380 1 -1.1104 12.4541 13.4152 23.3349
608 2 2.2208 8.16426 20.4205 22.1619
646 1 -1.1104 6.83619 13.382 23.2467
306 2 2.2208 10.9649 17.5464 27.7112
542 2 2.2208 2.52606 3.49227 27.6441
571 2 2.2208 8.05743 -2.20781 27.6206
9492 2 2.2208 -0.2812 12.0449 27.5371
540 2 2.2208 5.22795 0.738757 27.5983
576 2 2.2208 8.07884 -4.93021 24.9592
9313 2 2.2208 -0.263367 17.6235 27.704
575 2 2.2208 10.9187 -4.94718 21.8365
633 2 2.2208 5.38147 17.5866 27.8214
611 2 2.2208 2.486 14.7051 27.5489
354 2 2.2208 2.64438 0.690345 13.4892
630 2 2.2208 10.9959 6.49762 27.4829
9270 2 2.2208 13.9679 17.6345 19.2925
632 2 2.2208 11.1345 11.9665 27.4176
423 2 2.2208 5.41109 9.13055 13.4918
307 2 2.2208 8.40504 20.4242 27.5938
572 2 2.2208 8.19235 3.45117 27.4944
541 2 2.2208 2.4923 -2.13286 27.6621
651 2 2.2208 5.41385 23.3996 5.14224
652 2 2.2208 5.3555 29.0495 5.30058
653 1 -1.1104 1.02811 24.7574 0.883754
654 1 -1.1104 1.11863 24.8178 3.66623
655 1 -1.1104 1.01018 21.9356 0.876325
656 1 -1.1104 1.35655 27.6073 0.934966
657 2 2.2208 5.29419 26.1888 2.39941
658 1 -1.1104 1.04515 21.8707 3.79165
659 1 -1.1104 1.15855 27.5044 3.59937
660 1 -1.1104 3.81096 24.6958 0.804826
661 2 2.2208 2.48361 23.3281 2.33556
662 2 2.2208 2.64228 28.9163 2.36916
663 1 -1.1104 3.9199 24.6518 3.83296
664 2 2.2208 2.57004 26.1126 5.08114
665 1 -1.1104 3.96812 21.9333 0.910694
666 1 -1.1104 4.06675 27.3916 0.892375
667 1 -1.1104 3.88344 21.8435 3.59076
668 1 -1.1104 3.98294 27.5244 3.78469
798 1 -1.1104 3.98097 24.7181 6.6407
9826 2 2.2208 -0.382801 40.0899 10.8418
675 1 -1.1104 6.74745 27.6371 1.12631
9809 2 2.2208 -0.345351 23.3409 5.11155
800 1 -1.1104 3.97725 27.3692 6.56217
962 2 2.2208 10.9106 37.3905 13.7461
9820 2 2.2208 -0.42614 40.1121 5.23773
9810 2 2.2208 -0.304887 26.1556 2.32758
9825 2 2.2208 -0.509475 45.9562 11.0268
9819 2 2.2208 -0.178847 45.831 5.3444
672 1 -1.1104 6.73712 24.6079 1.11665
677 1 -1.1104 6.50282 27.5777 3.82425
676 1 -1.1104 6.72237 21.8109 3.77331
674 1 -1.1104 6.82187 21.8957 0.924051
673 1 -1.1104 6.79132 24.7857 3.91228
797 1 -1.1104 6.87306 27.7038 6.64303
678 2 2.2208 10.9603 23.3745 5.14711
679 2 2.2208 11.083 28.7902 5.17408
680 1 -1.1104 12.4121 24.6808 0.927742
681 1 -1.1104 12.3847 24.6166 3.75417
682 1 -1.1104 12.381 21.9313 0.856657
683 1 -1.1104 12.4991 27.3298 1.12713
684 2 2.2208 11.0143 26.0236 2.56942
685 1 -1.1104 12.496 21.7331 3.69937
686 1 -1.1104 12.3572 27.3823 3.8807
687 1 -1.1104 9.6552 24.7705 1.0866
688 2 2.2208 8.22855 23.2197 2.36801
689 2 2.2208 8.08843 28.7804 2.5353
690 1 -1.1104 9.55122 24.6516 3.81616
691 2 2.2208 8.14728 26.1279 5.04776
692 1 -1.1104 9.63778 22.0192 0.700848
693 1 -1.1104 9.71139 27.4191 1.04078
694 1 -1.1104 9.46353 21.9231 3.58814
695 1 -1.1104 9.54893 27.4297 3.89564
796 1 -1.1104 6.61253 21.9678 6.57512
793 1 -1.1104 6.90584 24.728 6.5403
830 1 -1.1104 9.6289 27.3245 6.67629
826 1 -1.1104 12.3362 21.8888 6.61712
825 1 -1.1104 12.2921 24.562 6.52297
828 1 -1.1104 9.58918 24.5506 6.49729
958 2 2.2208 5.46748 31.6389 13.6967
699 2 2.2208 5.40145 34.4514 5.13974
700 1 -1.1104 1.2918 30.3033 1.01435
701 1 -1.1104 1.04517 35.9796 0.766431
703 1 -1.1104 1.33965 30.1892 3.81088
704 1 -1.1104 1.15599 35.6932 3.66327
706 1 -1.1104 1.2675 33.1466 0.98068
707 2 2.2208 5.37929 31.7969 2.42652
708 2 2.2208 5.26502 37.4263 2.34746
709 1 -1.1104 1.18578 33.0206 3.69005
711 1 -1.1104 4.10747 30.1668 0.990288
712 1 -1.1104 4.01493 36.2024 1.04171
713 2 2.2208 2.60542 34.4602 2.35508
714 1 -1.1104 3.92254 30.3776 3.80875
715 1 -1.1104 3.96733 35.9814 3.91693
716 2 2.2208 2.58147 31.7742 5.12039
717 2 2.2208 2.65119 37.3579 5.25174
718 1 -1.1104 3.90485 33.1563 0.791173
719 1 -1.1104 4.02961 33.2857 3.7146
850 1 -1.1104 1.3345 35.9634 6.40044
855 1 -1.1104 3.78744 30.2314 6.63761
705 1 -1.1104 6.84016 35.8483 3.81332
702 1 -1.1104 6.80832 35.8426 0.839935
854 1 -1.1104 6.82733 33.2179 6.48769
9814 2 2.2208 -0.206412 37.2466 2.40144
1518 1 -1.1104 12.269 47.2458 12.5012
857 1 -1.1104 4.12179 32.922 6.41558
856 1 -1.1104 4.11228 35.8555 6.51288
853 1 -1.1104 1.20952 33.0632 6.75445
851 1 -1.1104 6.67675 30.5301 6.54186
9816 2 2.2208 -0.139723 34.4421 5.23447
769 1 -1.1104 12.3682 38.8602 12.1567
710 1 -1.1104 7.00829 33.0324 3.66154
724 1 -1.1104 6.6904 30.3738 3.84899
725 1 -1.1104 6.73406 33.2264 1.0288
723 1 -1.1104 6.71142 30.3216 1.09928
726 2 2.2208 10.9388 34.4112 5.15235
727 1 -1.1104 12.5281 30.1712 1.04185
728 1 -1.1104 12.3699 36.0425 0.997393
729 1 -1.1104 12.5108 30.2363 3.7371
730 1 -1.1104 12.4142 35.9457 3.76038
731 1 -1.1104 12.3398 33.0806 1.02895
732 2 2.2208 11.0171 31.6541 2.34716
733 2 2.2208 10.9274 37.3341 2.45017
734 1 -1.1104 12.1294 33.1143 3.64199
735 1 -1.1104 9.42423 30.3694 1.07602
736 1 -1.1104 9.6183 36.0136 0.895556
737 2 2.2208 8.11117 34.6541 2.30347
738 1 -1.1104 9.62734 30.3165 3.9273