ITEM: TIMESTEP
50000
ITEM: NUMBER OF ATOMS
17910
ITEM: BOX BOUNDS pp pp pp
-3.9122292727248120e-01 2.7731222927272466e+01
-4.8750643353469165e+00 3.3295506433533757e+02
-4.0229373263451851e-01 2.7742293732634941e+01
ITEM: ATOMS id type q x y z
1 2 2.2208 5.08994 0.649197 5.12382
2 1 -1.1104 0.539335 -3.80839 1.22666
3 1 -1.1104 0.995881 1.87142 0.99028
6 1 -1.1104 0.916604 -3.40828 3.92129
7 1 -1.1104 1.00154 2.04707 3.87888
10 1 -1.1104 0.829568 -0.946685 1.05521
12 2 2.2208 4.87568 -2.29095 2.44543
14 1 -1.1104 0.653957 -0.606948 3.77281
16 1 -1.1104 3.50129 -3.67449 1.11875
17 1 -1.1104 3.56832 2.11793 1.07323
18 2 2.2208 2.22946 0.659019 2.51866
19 1 -1.1104 3.58738 -3.61667 3.91891
20 1 -1.1104 3.7356 1.95539 3.93066
21 2 2.2208 2.31335 -2.1563 5.27374
23 1 -1.1104 3.714 -0.791924 0.988316
24 1 -1.1104 3.54454 -0.702861 3.90684
22 2 2.2208 2.23215 3.43171 5.34547
13 2 2.2208 5.035 3.48995 2.46348
167 1 -1.1104 0.811956 2.15457 6.78792
632 2 2.2208 10.6499 11.9135 -0.358648
11 1 -1.1104 6.27066 -0.784817 1.06479
8839 2 2.2208 13.4997 20.257 5.19264
4 1 -1.1104 6.30676 -3.56837 1.40015
8 1 -1.1104 6.28885 -3.54423 3.96687
15 1 -1.1104 6.39811 -0.765366 3.90542
9 1 -1.1104 6.41126 2.18454 3.94742
8762 2 2.2208 13.4489 3.45999 5.1045
174 1 -1.1104 3.7362 -0.641024 6.64487
8973 2 2.2208 13.5323 6.27571 7.88684
166 1 -1.1104 1.11549 -3.35424 6.83545
540 2 2.2208 5.03279 0.662074 -0.388919
169 1 -1.1104 6.42559 1.96551 6.69558
570 2 2.2208 10.615 0.684655 -0.461338
9097 2 2.2208 13.5598 17.3134 13.5907
8860 2 2.2208 13.5833 14.664 5.11667
633 2 2.2208 5.05954 17.4627 -0.407059
574 2 2.2208 10.6117 -4.87574 -0.264157
487 2 2.2208 5.19403 14.7529 13.7143
5 1 -1.1104 6.2577 1.92613 1.14564
31 2 2.2208 10.5341 0.677364 5.175
32 1 -1.1104 12.2936 -3.41243 0.985758
33 1 -1.1104 11.8354 2.10051 1.13388
34 1 -1.1104 12.1234 -3.48944 3.98502
35 1 -1.1104 11.8544 2.27421 3.83036
36 1 -1.1104 11.7533 -0.832057 0.998678
37 2 2.2208 10.5944 -2.09804 2.50195
39 1 -1.1104 11.9192 -0.718799 3.83383
40 1 -1.1104 9.07168 -3.62755 1.00075
41 1 -1.1104 9.24119 2.03231 1.04386
42 2 2.2208 7.88274 0.553338 2.45409
43 1 -1.1104 9.28943 -3.66452 3.77756
44 1 -1.1104 9.28068 2.01975 3.751
45 2 2.2208 7.75446 -2.19483 5.09027
47 1 -1.1104 9.12371 -0.913302 1.12552
48 1 -1.1104 9.29741 -0.849343 4.0377
46 2 2.2208 7.82758 3.46396 5.3211
9078 2 2.2208 13.5477 17.5527 2.35019
38 2 2.2208 10.5284 3.48407 2.39998
149 1 -1.1104 12.2162 16.0142 6.42609
206 1 -1.1104 12.1148 2.14282 6.50381
165 2 2.2208 7.96422 20.1502 10.9548
571 2 2.2208 7.59449 -2.19178 -0.165818
82 1 -1.1104 12.3307 16.1268 9.40673
137 2 2.2208 7.85551 14.6422 10.9485
54 2 2.2208 5.0217 6.38555 5.16819
55 2 2.2208 5.1377 11.7703 5.19116
56 1 -1.1104 1.03879 7.72492 0.95913
58 1 -1.1104 0.724992 7.87413 3.82605
60 1 -1.1104 0.873769 4.71248 0.97997
61 1 -1.1104 1.18468 10.3847 0.90923
66 2 2.2208 5.10557 9.05575 2.47829
67 1 -1.1104 0.88242 4.74578 3.6712
68 1 -1.1104 0.845447 10.4917 3.74185
71 1 -1.1104 3.8145 7.69323 1.22689
72 2 2.2208 2.35359 6.33667 2.40928
73 2 2.2208 2.24841 11.9045 2.44001
74 1 -1.1104 3.76899 7.7687 3.93603
75 2 2.2208 2.31348 9.06328 5.27716
76 1 -1.1104 3.61846 4.93935 1.12374
77 1 -1.1104 3.96485 10.4374 1.11621
79 1 -1.1104 3.58385 4.91823 3.90181
80 1 -1.1104 3.65017 10.4751 3.87136
63 1 -1.1104 6.33451 4.82958 0.957508
25 2 2.2208 10.7398 17.4931 10.8558
59 1 -1.1104 6.53647 7.72332 3.57054
156 1 -1.1104 9.38144 19.0142 6.70508
236 1 -1.1104 0.896077 5.01295 6.42622
81 2 2.2208 10.747 20.2981 7.97266
136 1 -1.1104 9.3403 18.8542 9.68569
57 1 -1.1104 6.46697 7.69956 0.944018
541 2 2.2208 2.15495 -2.35004 -0.201015
64 1 -1.1104 6.58221 10.5888 1.17255
70 1 -1.1104 6.51632 10.3115 3.92841
69 1 -1.1104 6.42467 4.95971 3.81781
84 2 2.2208 10.7233 6.34732 5.03522
85 2 2.2208 10.6842 12.0138 5.16921
86 1 -1.1104 12.1262 7.50784 0.853415
87 1 -1.1104 12.094 7.72814 3.71739
88 1 -1.1104 11.9561 4.90078 0.987179
89 1 -1.1104 12.0493 10.4922 1.04744
91 2 2.2208 10.7382 9.0112 2.26554
92 1 -1.1104 11.952 4.9493 3.86505
93 1 -1.1104 12.2264 10.4488 3.69457
94 1 -1.1104 9.20798 7.55828 0.876454
95 2 2.2208 7.89199 6.25685 2.26498
96 2 2.2208 7.97016 11.8164 2.36729
97 1 -1.1104 9.41344 7.50648 3.62861
98 2 2.2208 7.98519 8.98573 5.09626
99 1 -1.1104 9.10154 4.73967 0.951919
100 1 -1.1104 9.32216 10.3044 0.827781
102 1 -1.1104 9.07242 4.85275 3.76315
103 1 -1.1104 9.30231 10.3056 3.68213
83 1 -1.1104 9.32783 13.3934 12.3065
296 1 -1.1104 6.69235 18.8647 12.4249
9073 2 2.2208 13.5442 11.7922 2.32436
199 1 -1.1104 9.40796 16.1572 12.2705
26 1 -1.1104 12.1642 13.3131 12.1206
105 2 2.2208 7.93186 17.3874 8.13499
106 2 2.2208 5.04643 17.5197 5.12963
107 1 -1.1104 0.886133 13.1795 0.856843
109 1 -1.1104 0.786659 18.8757 1.10273
113 1 -1.1104 0.847236 13.1825 3.70853
114 1 -1.1104 0.963835 18.9347 4.00904
116 1 -1.1104 0.68623 15.9469 1.00509
119 2 2.2208 5.04225 14.6683 2.4187
120 2 2.2208 5.21787 20.3449 2.43657
121 1 -1.1104 0.809072 16.0777 4.01071
123 1 -1.1104 3.66573 13.2303 0.989409
125 1 -1.1104 3.62201 18.9652 1.11837
127 2 2.2208 2.08724 17.6867 2.50138
128 1 -1.1104 3.59091 13.2536 3.79499
129 1 -1.1104 3.76496 18.9273 3.79415
130 2 2.2208 2.40067 14.6918 5.28406
131 2 2.2208 2.39409 20.3201 5.41467
132 1 -1.1104 3.29954 16.2317 1.11294
134 1 -1.1104 3.77798 15.9747 3.92386
140 1 -1.1104 6.43561 15.9668 0.846641
138 1 -1.1104 6.53954 18.8933 0.89597
122 1 -1.1104 6.49518 16.029 3.69556
110 1 -1.1104 6.46832 13.2972 1.09169
115 1 -1.1104 6.37121 13.4374 3.88912
118 1 -1.1104 6.28438 16.4098 6.69889
312 2 2.2208 2.32704 20.4931 -0.220939
346 2 2.2208 7.95164 14.6812 -0.382324
9024 2 2.2208 13.5685 20.2222 10.844
387 2 2.2208 10.5951 -2.27763 13.5871
139 1 -1.1104 6.69747 18.7787 3.69789
30 1 -1.1104 12.4434 13.2624 9.49701
141 2 2.2208 10.8058 17.5228 5.19956
142 1 -1.1104 12.0286 13.2548 0.985346
144 1 -1.1104 12.2714 18.6549 0.862797
146 1 -1.1104 12.1076 13.2093 3.6526
147 1 -1.1104 12.1867 19.0435 3.66207
148 1 -1.1104 12.2452 16.1426 1.02287
150 2 2.2208 10.7955 14.7194 2.3285
151 2 2.2208 10.7703 20.334 2.32102
152 1 -1.1104 12.2247 16.1115 3.79464
153 1 -1.1104 9.2566 13.1451 1.04189
155 1 -1.1104 9.4642 18.8895 0.907785
157 2 2.2208 7.95699 17.4914 2.17356
158 1 -1.1104 9.12204 13.2078 3.96714
159 1 -1.1104 9.31524 18.8515 3.83427
160 2 2.2208 7.75519 14.7734 5.22719
161 2 2.2208 8.01036 20.2526 5.21937
162 1 -1.1104 9.47084 15.9903 0.948813
164 1 -1.1104 9.36101 15.987 3.79563
154 1 -1.1104 9.3695 13.095 6.69826
112 1 -1.1104 6.51757 18.9453 6.52739
53 2 2.2208 10.7524 14.7421 8.26151
9067 2 2.2208 13.1462 0.75206 2.45327
9087 2 2.2208 13.3972 -1.96965 10.7597
170 1 -1.1104 0.982776 -0.669659 6.53279
173 1 -1.1104 3.58699 2.19365 6.77512
8791 2 2.2208 13.6507 9.12938 5.10976
172 1 -1.1104 3.63187 -3.45146 6.75829
175 2 2.2208 5.09535 0.781884 10.8861
176 1 -1.1104 0.582365 -3.58615 12.3836
177 1 -1.1104 0.907824 1.947 12.511
180 1 -1.1104 0.796313 -3.55456 9.56724
181 1 -1.1104 1.02333 1.92417 9.72366
184 1 -1.1104 0.809081 -0.850351 12.028
186 2 2.2208 5.17098 -1.91014 8.09002
188 1 -1.1104 0.907624 -0.76344 9.41136
190 1 -1.1104 3.5305 -3.55302 12.3332
191 1 -1.1104 3.8217 1.97184 12.375
192 2 2.2208 2.27122 0.654312 8.11599
193 1 -1.1104 3.73012 -3.47156 9.40549
194 1 -1.1104 3.78105 2.20855 9.45439
195 2 2.2208 2.18948 -2.19241 10.8701
197 1 -1.1104 3.5386 -0.763796 12.3263
198 1 -1.1104 3.79533 -0.843011 9.55454
179 1 -1.1104 6.47026 2.17909 12.1932
189 1 -1.1104 6.58082 -0.741847 9.47627
185 1 -1.1104 6.41031 -0.649498 12.3245
178 1 -1.1104 6.25308 -3.55261 12.4017
183 1 -1.1104 6.62459 2.26157 9.43125
187 2 2.2208 5.13291 3.44933 7.99995
196 2 2.2208 2.46129 3.46214 10.9733
49 1 -1.1104 12.0658 18.9485 9.49318
205 1 -1.1104 12.0752 -3.38995 6.66402
631 2 2.2208 8.04143 9.08398 -0.407208
168 1 -1.1104 6.3996 -3.48357 6.68646
182 1 -1.1104 6.39219 -3.56571 9.52094
27 1 -1.1104 12.1962 18.7615 12.3186
208 1 -1.1104 9.20849 -3.60442 6.6521
209 1 -1.1104 9.31985 2.24537 6.41995
171 1 -1.1104 6.49049 -0.748373 6.56942
207 1 -1.1104 11.8145 -0.604459 6.67996
210 1 -1.1104 9.10881 -0.705408 6.74337
211 2 2.2208 10.7359 0.795441 10.7993
212 1 -1.1104 12.0298 -3.64763 12.2922
213 1 -1.1104 12.2151 2.13361 12.2722
214 1 -1.1104 11.9933 -3.44097 9.48256
215 1 -1.1104 12.0035 2.27067 9.30462
216 1 -1.1104 12.0531 -0.650674 12.1539
217 2 2.2208 10.4902 -2.18389 8.10731
219 1 -1.1104 12.0031 -0.484008 9.37289
220 1 -1.1104 9.20184 -3.62515 12.3494
221 1 -1.1104 9.30097 2.18111 12.0847
222 2 2.2208 7.87912 0.741991 8.00247
223 1 -1.1104 9.21425 -3.63533 9.65555
224 1 -1.1104 9.30933 2.24247 9.31367
225 2 2.2208 7.86082 -2.08114 10.863
227 1 -1.1104 9.21806 -0.660245 12.3034
228 1 -1.1104 9.29796 -0.819593 9.4596
226 2 2.2208 7.85694 3.57171 10.7988
218 2 2.2208 10.6819 3.54556 7.89937
9086 2 2.2208 13.4905 0.684086 7.91086
8897 2 2.2208 13.5684 3.50284 10.8034
386 2 2.2208 7.87311 0.677638 13.6655
239 1 -1.1104 3.64716 4.88805 6.71955
234 1 -1.1104 0.913889 7.59765 6.60436
238 1 -1.1104 3.79433 7.76774 6.52727
78 1 -1.1104 3.67179 10.5145 6.74911
62 1 -1.1104 0.717547 10.4229 6.73223
240 2 2.2208 5.08858 6.2836 10.7672
241 2 2.2208 5.1204 11.9689 10.7718
242 1 -1.1104 0.900613 7.65527 12.3343
244 1 -1.1104 1.05518 7.47264 9.61658
246 1 -1.1104 0.868091 4.67962 12.3143
247 1 -1.1104 0.736451 10.4199 12.2128
250 2 2.2208 5.01807 9.07836 8.00247
251 1 -1.1104 0.734232 4.57208 9.47674
252 1 -1.1104 1.07649 10.5259 9.38438
255 1 -1.1104 3.72262 7.66735 12.1596
256 2 2.2208 2.40419 6.322 8.11513
257 2 2.2208 2.15022 12.0136 7.97203
258 1 -1.1104 3.68411 7.804 9.39951
259 2 2.2208 2.23928 9.07203 10.8622
260 1 -1.1104 3.62482 4.82053 12.344
261 1 -1.1104 3.61868 10.4495 12.2251
262 1 -1.1104 3.7248 4.91245 9.54462
263 1 -1.1104 3.75542 10.5211 9.48838
248 1 -1.1104 6.58749 5.06528 12.0459
245 1 -1.1104 6.37649 7.89896 9.39274
254 1 -1.1104 6.45588 10.4674 9.24461
8974 2 2.2208 13.5173 11.8544 8.06149
65 1 -1.1104 6.54135 10.4953 6.47839
90 1 -1.1104 12.0484 10.4832 6.54799
237 1 -1.1104 6.53471 4.86044 6.61724
249 1 -1.1104 6.6082 10.5903 12.3335
235 1 -1.1104 6.42482 7.6925 6.57593
266 1 -1.1104 12.2183 4.79583 6.59591
265 1 -1.1104 12.259 7.66956 6.38329
267 1 -1.1104 9.28581 7.72502 6.54304
269 1 -1.1104 9.34363 5.04807 6.5682
101 1 -1.1104 9.44321 10.377 6.49169
243 1 -1.1104 6.50591 7.95738 12.1579
253 1 -1.1104 6.51506 5.05345 9.43312
264 1 -1.1104 9.20965 10.6752 9.60196
268 1 -1.1104 9.18494 4.89736 9.4026
270 1 -1.1104 9.3802 10.5487 12.2716
271 1 -1.1104 9.34067 4.87482 12.165
272 2 2.2208 7.97313 9.25276 10.8695
273 1 -1.1104 9.15112 7.90621 9.3941
274 2 2.2208 7.89275 11.8056 8.03689
275 2 2.2208 7.96814 6.39825 7.92908
276 2 2.2208 10.7584 6.38101 10.7767
277 2 2.2208 10.8028 11.9224 10.875
278 1 -1.1104 12.2178 7.7141 12.2881
279 1 -1.1104 12.0998 7.72723 9.45503
280 1 -1.1104 12.3331 4.97323 12.0479
281 1 -1.1104 12.0734 10.5105 12.2032
282 2 2.2208 10.7146 9.10475 7.86852
283 1 -1.1104 12.0977 4.96452 9.33166
284 1 -1.1104 12.218 10.2717 9.34671
285 1 -1.1104 9.36109 7.64625 12.25
8978 2 2.2208 13.5967 9.09663 10.9646
9068 2 2.2208 13.492 -2.25169 5.24589
9074 2 2.2208 13.4127 6.44195 2.45132
233 1 -1.1104 6.47533 16.1675 12.3295
133 1 -1.1104 3.73054 16.1657 6.82184
126 1 -1.1104 3.7505 18.9012 6.61567
124 1 -1.1104 3.72403 13.2672 6.58981
289 1 -1.1104 6.67284 16.1334 9.64989
111 1 -1.1104 6.40854 13.3674 6.66798
297 1 -1.1104 6.49372 13.2346 12.0739
302 1 -1.1104 0.966939 18.9811 6.61161
117 1 -1.1104 0.841765 16.1568 6.90985
108 1 -1.1104 0.961258 13.3078 6.54869
201 2 2.2208 2.21219 14.6288 11.0285
204 2 2.2208 2.31887 20.288 10.8879
229 1 -1.1104 3.63219 16.0625 12.2052
230 1 -1.1104 0.870376 16.1871 12.3676
286 1 -1.1104 3.66155 18.8139 12.2195
287 1 -1.1104 3.82366 13.2905 12.3125
291 1 -1.1104 1.13703 18.9351 9.47285
292 1 -1.1104 0.978963 16.405 9.48926
293 2 2.2208 5.32031 20.2431 8.06922
294 1 -1.1104 0.81161 13.3748 9.48243
295 2 2.2208 4.98695 14.7162 8.1682
298 1 -1.1104 0.760434 18.931 12.3558
299 1 -1.1104 1.01124 13.1063 12.2737
300 2 2.2208 5.10694 17.5578 10.6864
301 1 -1.1104 3.795 19.0668 9.39241
303 2 2.2208 2.35809 17.5479 8.07815
304 1 -1.1104 3.68655 16.0948 9.54735
305 1 -1.1104 3.68122 13.2439 9.46164
288 1 -1.1104 6.57555 18.7465 9.39526
290 1 -1.1104 6.52633 13.3093 9.3567
104 1 -1.1104 9.56619 19.0407 12.3704
145 1 -1.1104 12.2807 18.8902 6.64224
200 1 -1.1104 9.35154 16.18 9.50463
50 1 -1.1104 12.1947 16.0354 12.2503
143 1 -1.1104 12.3196 13.2756 6.69124
135 1 -1.1104 9.43197 13.4783 9.73506
163 1 -1.1104 9.42261 16.0735 6.7338
308 2 2.2208 2.34358 17.5495 13.5755
423 2 2.2208 4.98442 9.06507 13.4754
424 2 2.2208 2.40793 11.954 13.6245
605 2 2.2208 5.07999 6.25349 -0.331594
606 2 2.2208 2.55534 9.09175 -0.252285
307 2 2.2208 8.03551 20.3063 -0.332013
542 2 2.2208 2.33402 3.35039 -0.335211
388 2 2.2208 10.6232 3.51904 13.5625
451 2 2.2208 8.00028 11.7738 13.6064
9197 2 2.2208 13.422 6.30152 13.6225
313 2 2.2208 5.13261 0.691221 16.6367
314 1 -1.1104 0.82619 -3.48085 17.8214
315 1 -1.1104 0.822159 2.22997 17.8314
318 1 -1.1104 0.591307 -3.33796 15.0734
320 1 -1.1104 0.880784 2.21874 15.176
326 1 -1.1104 0.674602 -0.6901 17.9852
328 2 2.2208 5.12263 -2.24936 19.2594
330 1 -1.1104 0.763103 -0.608558 15.0468
334 1 -1.1104 3.73222 -3.43447 18.0148
335 1 -1.1104 3.52962 2.08324 18.1375
336 2 2.2208 2.19644 0.514945 19.3832
337 1 -1.1104 3.43534 -3.40195 15.2758
339 1 -1.1104 3.69929 2.12842 15.3056
341 2 2.2208 2.10063 -1.97933 16.4283
343 1 -1.1104 3.81069 -0.632754 17.8958
344 1 -1.1104 3.57988 -0.582038 15.0105
342 2 2.2208 2.26681 3.48857 16.5795
340 1 -1.1104 3.7429 1.90212 20.7668
9128 2 2.2208 13.4213 0.704311 13.7399
316 1 -1.1104 6.48988 -3.66523 17.8101
317 1 -1.1104 6.39271 2.13096 17.9326
329 2 2.2208 5.02652 3.39369 19.2947
324 1 -1.1104 6.67107 2.1103 15.0299
327 1 -1.1104 6.52703 -0.845728 18.007
353 2 2.2208 4.93266 -2.02288 13.7173
9200 2 2.2208 13.5728 11.9404 19.1745
332 1 -1.1104 6.31805 -0.620326 15.1567
322 1 -1.1104 6.23203 -3.4621 15.1818
611 2 2.2208 2.16647 14.6595 27.6628
356 2 2.2208 10.6388 0.629411 16.4605
357 1 -1.1104 12.0083 -3.54513 17.9652
358 1 -1.1104 11.8869 2.05166 17.803
359 1 -1.1104 11.8328 -3.7452 15.1921
361 1 -1.1104 12.2049 2.18166 15.064
363 1 -1.1104 12.1205 -0.768876 17.8834
364 2 2.2208 10.7077 -2.21808 19.2892
366 1 -1.1104 12.1237 -0.90849 14.7948
368 1 -1.1104 9.22844 -3.54401 17.9378
369 1 -1.1104 9.26535 1.98405 17.9709
370 2 2.2208 7.95034 0.520585 19.3167
371 1 -1.1104 9.16843 -3.58529 15.0354
373 1 -1.1104 9.54428 1.9727 14.8698
375 2 2.2208 7.97042 -2.13928 16.4365
377 1 -1.1104 9.39195 -0.810098 17.9753
378 1 -1.1104 9.23342 -0.75777 15.2445
365 2 2.2208 10.6174 3.30262 19.3858
9130 2 2.2208 13.4104 0.719843 19.3021
9275 2 2.2208 -0.382343 14.7372 24.8359
9471 2 2.2208 13.6795 14.7192 27.6813
9124 2 2.2208 13.5879 3.43203 16.4117
9478 2 2.2208 13.5857 -2.43788 16.4573
630 2 2.2208 10.652 6.10569 27.7481
9270 2 2.2208 13.461 17.5685 19.2645
9473 2 2.2208 13.5969 20.2522 22.0422
9469 2 2.2208 13.3513 14.6556 22.2111
9489 2 2.2208 13.5378 -2.09576 22.1115
389 2 2.2208 5.11454 6.20096 16.5114
390 2 2.2208 5.07504 11.9662 16.4374
391 1 -1.1104 0.885064 7.67505 18.0974
393 1 -1.1104 0.843358 7.74891 15.4169
397 1 -1.1104 0.947403 4.89612 18.0634
398 1 -1.1104 0.97506 10.4319 17.8993
401 2 2.2208 4.99918 9.01809 19.3057
402 1 -1.1104 0.785383 4.89991 15.0865
404 1 -1.1104 0.951957 10.5222 15.0685
410 1 -1.1104 3.69713 7.59608 17.8226
411 2 2.2208 2.19674 6.16995 19.4262
412 2 2.2208 2.31898 11.8974 19.2201
413 1 -1.1104 3.73474 7.57935 14.9297
415 2 2.2208 2.36489 8.99273 16.4954
416 1 -1.1104 3.61742 4.82759 17.9885
417 1 -1.1104 3.76584 10.4891 18.0429
418 1 -1.1104 3.65357 4.84166 15.077
420 1 -1.1104 3.65938 10.2945 15.0148
408 1 -1.1104 6.51784 10.4243 15.0797
400 1 -1.1104 6.55204 10.5864 17.8644
406 1 -1.1104 6.44731 4.92825 15.1129
395 1 -1.1104 6.5721 7.52978 15.1469
392 1 -1.1104 6.63144 7.71461 18.0944
399 1 -1.1104 6.51166 5.01713 17.9426
9470 2 2.2208 13.535 17.4788 24.86
9096 2 2.2208 13.5547 20.312 27.6709
580 2 2.2208 7.93657 14.8195 21.9957
9198 2 2.2208 13.5855 9.08669 16.559
376 2 2.2208 8.07011 3.58737 16.5411
422 2 2.2208 2.29485 6.25869 13.6944
9491 2 2.2208 13.517 3.6657 27.7479
425 2 2.2208 10.7263 6.22758 16.5249
426 2 2.2208 10.6927 11.8558 16.525
427 1 -1.1104 12.2274 7.62797 17.8738
428 1 -1.1104 12.1 7.74841 15.0405
430 1 -1.1104 12.249 4.79116 17.8454
431 1 -1.1104 12.1176 10.5648 17.8956
432 2 2.2208 10.7575 9.01184 19.3214
433 1 -1.1104 12.2005 4.91825 14.893
435 1 -1.1104 12.2074 10.437 15.126
437 1 -1.1104 9.36659 7.57513 17.8065
438 2 2.2208 7.92192 6.08399 19.3218
439 2 2.2208 7.89253 11.9311 19.3894
440 1 -1.1104 9.43609 7.57393 15.0306
442 2 2.2208 7.91949 8.95243 16.6168
443 1 -1.1104 9.37185 4.72022 17.9266
444 1 -1.1104 9.08831 10.5783 17.8312
445 1 -1.1104 9.24393 4.7135 14.9449
447 1 -1.1104 9.51731 10.3473 14.9196
607 2 2.2208 5.15648 11.882 27.6216
354 2 2.2208 2.32777 0.716343 13.7329
472 1 -1.1104 6.57165 16.054 20.7139
549 1 -1.1104 12.1265 16.0087 26.278
550 1 -1.1104 9.52609 13.3175 23.4805
452 2 2.2208 5.0715 17.4001 16.4799
453 1 -1.1104 0.896444 13.07 17.7283
454 1 -1.1104 1.03851 18.8229 17.7551
457 1 -1.1104 0.95372 13.4681 14.9235
459 1 -1.1104 0.945077 18.9654 15.0793
465 1 -1.1104 0.791504 15.919 17.7377
467 2 2.2208 5.02871 14.6341 19.2051
468 2 2.2208 5.15566 20.3994 19.1368
469 1 -1.1104 0.875218 16.1832 15.0812
473 1 -1.1104 3.71233 13.3355 17.7098
474 1 -1.1104 3.78331 18.9477 18.0251
475 2 2.2208 2.26265 17.6043 19.2046
476 1 -1.1104 3.63666 13.2013 15.0057
478 1 -1.1104 3.82833 18.6709 15.0656
480 2 2.2208 2.20349 14.743 16.3026
481 2 2.2208 2.27772 20.3527 16.4471
482 1 -1.1104 3.56391 16.2766 17.753
483 1 -1.1104 3.67539 15.9304 15.1556
9485 2 2.2208 -0.322661 0.646138 22.15
466 1 -1.1104 6.48426 16.0623 17.8104
463 1 -1.1104 6.50094 18.877 15.1694
471 1 -1.1104 6.60022 16.149 15.1271
9310 2 2.2208 -0.304062 14.381 19.2292
477 1 -1.1104 3.66996 13.1569 20.7315
385 1 -1.1104 12.3085 13.4582 26.4129
456 1 -1.1104 6.43922 18.9667 17.7844
455 1 -1.1104 6.50997 13.2942 17.9037
461 1 -1.1104 6.56178 13.2377 14.9877
488 2 2.2208 10.8446 17.593 16.5548
489 1 -1.1104 12.1567 13.5523 17.8746
490 1 -1.1104 12.3779 19.0545 17.8368
491 1 -1.1104 11.9836 13.3814 15.1284
493 1 -1.1104 12.3257 18.9794 15.1373
495 1 -1.1104 12.1421 16.2557 17.8915
496 2 2.2208 10.683 14.7001 19.2785
497 2 2.2208 10.8054 20.4305 19.2969
498 1 -1.1104 12.2236 16.0732 15.1144
500 1 -1.1104 9.31278 13.3173 17.937
501 1 -1.1104 9.43742 18.7333 17.766
502 2 2.2208 7.86861 17.488 19.1443
503 1 -1.1104 9.26979 13.3253 15.0648
505 1 -1.1104 9.52288 19.0239 15.1422
507 2 2.2208 7.97786 14.7109 16.4835
508 2 2.2208 8.08089 20.4286 16.4247
509 1 -1.1104 9.26765 15.9931 17.8158
510 1 -1.1104 9.2492 16.0687 15.0789
499 1 -1.1104 12.2611 16.0001 20.6601
492 1 -1.1104 11.9545 13.2677 20.8812
515 1 -1.1104 12.0253 18.819 26.1343
637 1 -1.1104 6.549 13.2932 26.2466
573 2 2.2208 7.95134 17.542 24.9863
578 1 -1.1104 9.30193 13.2355 26.3581
543 1 -1.1104 12.0319 16.0989 23.3723
338 1 -1.1104 3.63927 -3.57883 20.6866
325 1 -1.1104 6.67556 1.96818 20.7342
504 1 -1.1104 9.17657 13.3 20.6471
319 1 -1.1104 0.717113 -3.58275 20.627
331 1 -1.1104 1.05809 -0.729707 20.9366
333 1 -1.1104 6.41123 -0.875928 20.8372
345 1 -1.1104 3.76157 -0.782592 20.7509
321 1 -1.1104 0.861558 1.9048 20.5813
516 2 2.2208 5.03153 0.768097 22.0972
517 1 -1.1104 0.692147 -3.66097 23.6469
518 1 -1.1104 0.81806 2.01491 23.4302
521 1 -1.1104 0.879128 -3.59613 26.5025
522 1 -1.1104 0.779379 1.7474 26.378
525 1 -1.1104 0.934612 -0.818258 23.7037
527 2 2.2208 4.91857 -2.31823 25.2043
529 1 -1.1104 0.968985 -0.94809 26.5894
531 1 -1.1104 3.42854 -3.40069 23.7073
532 1 -1.1104 3.63607 1.99759 23.7206
533 2 2.2208 2.14883 0.575353 24.9212
534 1 -1.1104 3.68297 -3.75798 26.4083
535 1 -1.1104 3.76414 2.08578 26.3686
536 2 2.2208 2.19025 -2.17753 22.21
538 1 -1.1104 3.48828 -0.694566 23.4866
539 1 -1.1104 3.56148 -0.955833 26.484
537 2 2.2208 2.26914 3.44845 22.1887
528 2 2.2208 4.93329 3.48121 24.9661
524 1 -1.1104 6.33019 1.98748 26.418
323 1 -1.1104 6.32884 -3.67934 20.7389
526 1 -1.1104 6.33005 -0.77189 23.634
530 1 -1.1104 6.42264 -0.913598 26.3789
520 1 -1.1104 6.4263 2.25104 23.448
9331 2 2.2208 13.5921 3.29502 22.2691
9490 2 2.2208 13.4771 0.488185 25.0429
384 1 -1.1104 12.23 18.8342 23.5106
506 1 -1.1104 9.51556 18.6699 20.4327
523 1 -1.1104 6.40581 -3.73676 26.6148
372 1 -1.1104 9.27966 -3.73528 20.7418
360 1 -1.1104 12.2292 -3.46395 20.7913
362 1 -1.1104 12.0446 2.04153 20.9156
379 1 -1.1104 9.18694 -1.00122 20.7658
367 1 -1.1104 12.1188 -0.700409 20.6554
374 1 -1.1104 9.32019 1.82531 20.6938
519 1 -1.1104 6.28925 -3.61191 23.6394
552 2 2.2208 10.5214 0.518398 22.1379
553 1 -1.1104 11.9989 -3.46268 23.6076
554 1 -1.1104 11.9723 2.00652 23.5937
555 1 -1.1104 12.1336 -3.77977 26.4547
556 1 -1.1104 11.9836 2.17833 26.4131
557 1 -1.1104 11.9276 -0.899071 23.5002
558 2 2.2208 10.665 -2.17941 24.8821
560 1 -1.1104 12.1556 -0.953209 26.3642
561 1 -1.1104 9.23695 -3.66423 23.3935
562 1 -1.1104 9.23216 2.08379 23.6508
563 2 2.2208 7.74504 0.428502 25.025
564 1 -1.1104 9.2882 -3.47806 26.323
565 1 -1.1104 9.12234 1.74642 26.3639
566 2 2.2208 7.6876 -2.22081 22.1182
568 1 -1.1104 9.05249 -0.90297 23.3734
569 1 -1.1104 9.29369 -0.921641 26.3249
567 2 2.2208 7.85326 3.42669 22.1293
559 2 2.2208 10.795 3.5375 24.843
579 1 -1.1104 9.18349 18.6751 26.5311
394 1 -1.1104 0.872334 7.47357 20.8195
414 1 -1.1104 3.75567 7.37155 20.6966
403 1 -1.1104 0.642547 4.79941 20.9176
419 1 -1.1104 3.75039 4.6509 20.9566
409 1 -1.1104 6.51341 10.482 20.6959
405 1 -1.1104 0.984937 10.4189 20.4575
421 1 -1.1104 3.77745 10.3986 20.7619
581 2 2.2208 5.21683 6.15336 22.1272
582 2 2.2208 5.2187 11.7845 22.1907
583 1 -1.1104 0.74448 7.76795 23.6075
585 1 -1.1104 0.949762 7.63844 26.2728
587 1 -1.1104 0.919333 4.84726 23.4839
588 1 -1.1104 0.804657 10.5145 23.3396
591 2 2.2208 5.24769 8.98475 24.9673
592 1 -1.1104 0.850472 4.8789 26.2258
593 1 -1.1104 0.779283 10.5614 26.2265
596 1 -1.1104 3.66955 7.5722 23.5505
597 2 2.2208 2.3406 6.29353 24.9327
598 2 2.2208 2.36257 11.8328 24.8251
599 1 -1.1104 3.82269 7.70165 26.5867
600 2 2.2208 2.30101 9.09087 22.1122
601 1 -1.1104 3.77819 4.88093 23.6184
602 1 -1.1104 3.66784 10.3976 23.433
603 1 -1.1104 3.55772 4.84743 26.3852
604 1 -1.1104 3.80564 10.533 26.3629
584 1 -1.1104 6.44529 7.56987 23.5113
594 1 -1.1104 6.44276 4.86849 26.4335
396 1 -1.1104 6.49659 7.58246 20.75
407 1 -1.1104 6.56238 4.68847 20.6439
590 1 -1.1104 6.4938 10.2295 23.6677
589 1 -1.1104 6.56258 4.88798 23.6377
595 1 -1.1104 6.70347 10.5922 26.5604
586 1 -1.1104 6.55381 7.7222 26.3929
643 1 -1.1104 6.4136 18.7892 23.6011
9199 2 2.2208 13.5466 6.10156 19.1751
513 2 2.2208 10.8379 14.8098 13.6986
434 1 -1.1104 12.1284 4.69039 20.778
448 1 -1.1104 9.28641 10.3401 20.6947
436 1 -1.1104 12.2582 10.5512 20.4358
441 1 -1.1104 9.40451 7.44873 20.6346
429 1 -1.1104 12.2073 7.65596 20.6098
446 1 -1.1104 9.35408 4.76124 20.6307
612 1 -1.1104 9.50844 10.3413 26.186
613 1 -1.1104 9.29033 4.72717 26.345
614 1 -1.1104 9.56563 10.4118 23.5146
615 1 -1.1104 9.38443 4.91729 23.4535
616 2 2.2208 7.81272 9.11602 22.0243
617 1 -1.1104 9.31211 7.45027 26.3462
618 2 2.2208 8.07108 11.8091 24.9506
619 2 2.2208 7.88692 6.18863 24.893
620 2 2.2208 10.8201 6.33915 22.1424
621 2 2.2208 10.839 11.7738 22.0883
622 1 -1.1104 12.196 7.75266 23.4548
623 1 -1.1104 12.2609 7.8097 26.1471
624 1 -1.1104 12.3691 4.81644 23.5471
625 1 -1.1104 12.2271 10.4912 23.2188
626 2 2.2208 10.6955 9.05492 24.8023
627 1 -1.1104 12.1434 5.01287 26.3114
628 1 -1.1104 12.2419 10.6448 26.1209
629 1 -1.1104 9.14157 7.67185 23.4746
460 1 -1.1104 0.972901 18.7727 20.684
470 1 -1.1104 1.06645 16.1276 20.5579
462 1 -1.1104 6.46453 13.3036 20.6924
464 1 -1.1104 6.66948 18.8715 20.6626
486 1 -1.1104 6.56881 16.1153 23.4097
458 1 -1.1104 0.915001 13.2147 20.6351
484 1 -1.1104 3.85157 15.9344 20.6559
646 1 -1.1104 6.5266 13.0048 23.7201
577 1 -1.1104 6.39011 18.8632 26.4001
479 1 -1.1104 3.76509 18.9853 20.6
349 2 2.2208 2.43761 20.3435 22.1015
350 1 -1.1104 3.66496 16.0218 23.4333
485 1 -1.1104 0.93642 16.1592 23.4831
512 1 -1.1104 3.62371 13.3565 26.2537
514 1 -1.1104 3.91787 16.2141 26.3482
634 2 2.2208 2.36559 17.5935 25.0426
635 2 2.2208 2.26982 14.7172 21.9169
636 1 -1.1104 3.69305 18.69 23.5506
638 1 -1.1104 3.75319 13.2519 23.5511
640 1 -1.1104 0.733031 19.021 26.4666
641 1 -1.1104 0.865814 16.1651 26.3785
642 1 -1.1104 0.977022 13.4035 26.211
644 2 2.2208 5.13174 20.2808 25.0376
645 2 2.2208 5.02478 14.7624 24.9188
647 1 -1.1104 0.961834 19.0721 23.5624
648 1 -1.1104 0.84654 13.3665 23.3322
649 2 2.2208 5.08941 17.5921 22.1129
650 1 -1.1104 3.56669 18.9932 26.4297
551 1 -1.1104 9.24218 18.9804 23.5541
351 2 2.2208 10.7218 17.4434 22.05
610 1 -1.1104 9.21877 16.0399 26.3281
380 1 -1.1104 12.1663 13.128 23.6517
544 2 2.2208 10.6672 14.5618 25.0347
609 1 -1.1104 9.41002 16.1897 23.6316
548 2 2.2208 10.7309 20.179 24.9622
639 1 -1.1104 6.64391 16.0626 26.2925
608 2 2.2208 7.96757 20.2483 22.03
511 1 -1.1104 9.37327 16.1862 20.5948
494 1 -1.1104 12.163 18.8395 20.721
9309 2 2.2208 -0.352323 20.3228 19.3187
355 2 2.2208 5.0987 3.44969 13.7883
310 2 2.2208 10.9014 20.3905 13.7074
9269 2 2.2208 13.5004 9.00842 27.5307
572 2 2.2208 7.81843 3.39443 27.6988
450 2 2.2208 11.0248 9.05522 13.7053
9202 2 2.2208 13.6368 12.0016 13.7445
306 2 2.2208 10.7445 17.4833 27.5919
311 2 2.2208 7.99296 17.5129 13.7739
352 2 2.2208 2.19489 -4.79609 13.8509
309 2 2.2208 5.30004 20.3737 13.7462
449 2 2.2208 7.87117 6.30789 13.7035
651 2 2.2208 5.08878 23.11 5.27465
652 2 2.2208 5.17119 28.7714 5.10103
653 1 -1.1104 0.958396 24.3365 0.909923
654 1 -1.1104 0.854175 24.653 3.70418
655 1 -1.1104 1.04101 21.7126 1.20542
656 1 -1.1104 1.05614 27.3282 0.952946
657 2 2.2208 5.17553 25.91 2.36562
658 1 -1.1104 0.919861 21.8451 3.99096
659 1 -1.1104 1.03519 27.6062 3.66941
660 1 -1.1104 3.86984 24.6398 0.779309
661 2 2.2208 2.2772 23.183 2.61699
662 2 2.2208 2.28203 28.7977 2.3302
663 1 -1.1104 3.75955 24.5348 3.61068
664 2 2.2208 2.29861 25.9509 5.06049
665 1 -1.1104 3.85162 21.7087 1.05045
666 1 -1.1104 3.79404 27.3214 0.955959
667 1 -1.1104 3.52609 21.7115 4.01289
668 1 -1.1104 3.90104 27.2998 3.72085
675 1 -1.1104 6.46285 27.2198 0.903262
676 1 -1.1104 6.43132 21.4777 3.93867
674 1 -1.1104 6.70129 21.7139 1.1892
673 1 -1.1104 6.54415 24.5167 3.93719
677 1 -1.1104 6.65743 27.2053 3.84162
800 1 -1.1104 3.71237 27.3028 6.53628
795 1 -1.1104 0.918838 27.3406 6.50467
9829 2 2.2208 -0.283298 45.6985 -0.267592
672 1 -1.1104 6.75475 24.4269 1.01687
678 2 2.2208 10.7915 23.2265 5.2523
679 2 2.2208 10.6934 28.7257 5.26171
680 1 -1.1104 12.3035 24.3904 0.919131
681 1 -1.1104 12.3476 24.5929 3.72096
682 1 -1.1104 12.062 21.6268 0.854325
683 1 -1.1104 12.355 27.1717 0.807471
684 2 2.2208 10.9186 25.9244 2.33108
685 1 -1.1104 12.1315 21.7267 3.78311
686 1 -1.1104 12.0753 27.3964 3.80958
687 1 -1.1104 9.48082 24.4801 0.999145
688 2 2.2208 8.04356 23.1055 2.42599
689 2 2.2208 8.0746 28.8527 2.43574
690 1 -1.1104 9.43371 24.4033 3.7026
691 2 2.2208 8.07281 26.111 5.18429
692 1 -1.1104 9.31353 21.5841 0.959658
693 1 -1.1104 9.47536 27.3815 1.0153
694 1 -1.1104 9.21635 21.5659 3.74978
695 1 -1.1104 9.28794 27.3323 3.67848
830 1 -1.1104 9.3878 27.5039 6.59265
826 1 -1.1104 12.2 21.8143 6.6024
9703 2 2.2208 13.6533 34.3857 7.99133
827 1 -1.1104 12.2633 27.3074 6.59275
829 1 -1.1104 9.51557 21.6007 6.47596
828 1 -1.1104 9.44489 24.4092 6.6046
1528 1 -1.1104 9.32562 47.0466 12.3652
9815 2 2.2208 -0.387247 31.7577 2.38753
699 2 2.2208 5.21218 34.4229 5.27834
700 1 -1.1104 0.978349 30.1977 1.13696
701 1 -1.1104 0.911619 35.9162 1.00975
703 1 -1.1104 1.1401 30.1796 3.68366
704 1 -1.1104 1.11105 35.943 3.9068
706 1 -1.1104 0.97913 33.1067 0.864176
707 2 2.2208 5.27584 31.5172 2.38545
708 2 2.2208 5.28562 37.1896 2.40614
709 1 -1.1104 0.991651 33.0197 3.70987
711 1 -1.1104 3.88506 30.0165 1.08298
712 1 -1.1104 3.85745 35.9046 1.03733
713 2 2.2208 2.32995 34.4944 2.48209
714 1 -1.1104 3.76111 30.0777 3.84382
715 1 -1.1104 3.8535 35.914 3.6455
716 2 2.2208 2.40898 31.7353 5.25473
717 2 2.2208 2.56898 37.3195 5.16049
718 1 -1.1104 3.79512 32.9947 0.912887
719 1 -1.1104 3.69911 33.0117 3.88064
857 1 -1.1104 3.8198 33.1512 6.79969
723 1 -1.1104 6.68282 30.0951 0.912804
851 1 -1.1104 6.44002 30.2461 6.7165
702 1 -1.1104 6.7577 35.7677 0.823963
853 1 -1.1104 1.03182 33.1193 6.51026
850 1 -1.1104 0.962796 35.9208 6.6438
882 1 -1.1104 9.33191 41.3598 12.3281
9683 2 2.2208 -0.345763 28.9268 10.8525
724 1 -1.1104 6.84034 30.1557 3.79742
725 1 -1.1104 6.59342 33.0474 1.12403
710 1 -1.1104 6.45314 32.8945 3.90322
705 1 -1.1104 6.68873 35.835 4.01519
726 2 2.2208 10.777 34.2138 5.37644
727 1 -1.1104 12.2378 30.0103 1.03439
728 1 -1.1104 12.4464 35.733 1.18078
729 1 -1.1104 12.3847 30.0063 3.75631
730 1 -1.1104 12.4086 35.7343 3.96843
731 1 -1.1104 12.3952 32.9895 0.97878
732 2 2.2208 10.9598 31.5732 2.54821
733 2 2.2208 10.9195 37.1189 2.53285
734 1 -1.1104 12.3728 32.9625 3.9415
735 1 -1.1104 9.46248 30.072 0.909986
736 1 -1.1104 9.61644 35.5923 0.95925
737 2 2.2208 8.02827 34.2658 2.54966
738 1 -1.1104 9.45284 30.1796 3.91371
739 1 -1.1104 9.52599 35.7072 3.74202
740 2 2.2208 7.98604 31.5997 5.17412
741 2 2.2208 7.87526 37.2743 5.28018
742 1 -1.1104 9.43629 32.9295 0.954048
743 1 -1.1104 9.34818 32.9199 3.85184
884 1 -1.1104 12.2516 35.9334 6.64934
886 1 -1.1104 9.42797 30.3124 6.5605
854 1 -1.1104 6.49773 33.1135 6.63595
888 1 -1.1104 9.326 33.0609 6.68802
1484 1 -1.1104 6.52265 47.0149 12.2987
751 1 -1.1104 1.17303 38.8239 0.722461
767 1 -1.1104 3.82968 38.6155 3.66799
756 1 -1.1104 1.14559 38.6584 3.73102
745 2 2.2208 5.05234 40.0538 5.16372
746 2 2.2208 5.15345 45.7513 5.20691
747 1 -1.1104 1.08426 41.6638 0.9523
749 1 -1.1104 0.894466 41.2866 3.85863
752 1 -1.1104 0.909497 44.4189 1.08962
755 2 2.2208 5.21431 42.8924 2.42174