ITEM: TIMESTEP
20000
ITEM: NUMBER OF ATOMS
17910
ITEM: BOX BOUNDS pp pp pp
-4.0967124789408188e-01 2.7749671247894319e+01
-4.7229518337485716e+00 3.3280295183374471e+02
-3.9964518095759793e-01 2.7739645180957744e+01
ITEM: ATOMS id type q x y z
1 2 2.2208 5.26543 0.515048 5.11601
2 1 -1.1104 1.15271 -3.56928 0.947312
3 1 -1.1104 1.33914 2.06188 0.98117
6 1 -1.1104 1.16542 -3.45128 3.56858
7 1 -1.1104 1.16219 2.1587 3.82129
10 1 -1.1104 1.12094 -0.801296 0.964437
12 2 2.2208 5.34522 -2.21293 2.36707
13 2 2.2208 5.26448 3.56313 2.52738
14 1 -1.1104 1.08742 -0.706368 3.94151
16 1 -1.1104 4.03879 -3.63375 0.820678
17 1 -1.1104 3.94426 1.94302 1.00361
18 2 2.2208 2.40297 0.650003 2.44949
19 1 -1.1104 3.96667 -3.66769 3.96666
20 1 -1.1104 3.90675 2.04866 3.80963
21 2 2.2208 2.44191 -2.2783 5.19543
22 2 2.2208 2.5016 3.5162 5.16254
23 1 -1.1104 3.85664 -0.680398 0.92731
24 1 -1.1104 3.812 -0.75311 3.82484
172 1 -1.1104 3.88125 -3.59972 6.60753
166 1 -1.1104 1.02152 -3.52237 6.48514
173 1 -1.1104 3.74307 2.06964 6.43099
174 1 -1.1104 3.88044 -0.856176 6.63388
9078 2 2.2208 13.7863 17.7035 2.52439
4 1 -1.1104 6.67817 -3.60792 0.905797
9093 2 2.2208 -0.515273 20.4247 13.6005
170 1 -1.1104 0.972707 -0.589197 6.75939
9081 2 2.2208 -0.119395 0.620279 10.9263
9 1 -1.1104 6.77247 1.96568 3.72599
8 1 -1.1104 6.6684 -3.39092 3.76144
11 1 -1.1104 6.71215 -0.651362 0.84705
169 1 -1.1104 6.51892 1.92531 6.65936
15 1 -1.1104 6.88324 -0.828208 3.67439
5 1 -1.1104 6.68973 2.15235 0.994561
31 2 2.2208 11.0223 0.708541 5.15817
32 1 -1.1104 12.2393 -3.46909 1.05002
33 1 -1.1104 12.1108 1.96087 1.03117
34 1 -1.1104 12.286 -3.43894 3.76343
35 1 -1.1104 12.3173 2.17511 3.79259
36 1 -1.1104 12.1377 -0.785894 0.842217
37 2 2.2208 10.8699 -1.96084 2.41698
39 1 -1.1104 12.4093 -0.574249 3.69921
40 1 -1.1104 9.37091 -3.41337 1.20166
41 1 -1.1104 9.3495 2.08993 0.954605
42 2 2.2208 8.137 0.767324 2.32971
43 1 -1.1104 9.45515 -3.52325 3.86286
44 1 -1.1104 9.47204 2.18834 3.7345
45 2 2.2208 8.24757 -2.10031 5.17718
46 2 2.2208 8.06474 3.43333 5.17595
47 1 -1.1104 9.47865 -0.759954 1.1146
48 1 -1.1104 9.68959 -0.614859 3.92909
38 2 2.2208 10.7926 3.57064 2.3595
168 1 -1.1104 6.93499 -3.72773 6.59209
206 1 -1.1104 12.3067 2.09724 6.54779
209 1 -1.1104 9.53451 2.10403 6.48703
208 1 -1.1104 9.57524 -3.42649 6.80939
205 1 -1.1104 12.2899 -3.38388 6.58553
207 1 -1.1104 12.3305 -0.645709 6.5355
171 1 -1.1104 6.64088 -0.791734 6.48658
210 1 -1.1104 9.57545 -0.64429 6.68761
9084 2 2.2208 -0.389161 20.3602 8.03904
355 2 2.2208 5.35221 3.56426 13.6904
54 2 2.2208 5.17116 6.21869 5.28495
55 2 2.2208 5.33009 11.8905 5.20274
56 1 -1.1104 1.03908 7.68653 1.05475
58 1 -1.1104 1.09863 7.56272 3.69361
60 1 -1.1104 1.09069 4.93536 0.86419
61 1 -1.1104 1.04084 10.5512 0.897068
66 2 2.2208 5.35005 9.00409 2.31044
67 1 -1.1104 1.07038 4.97866 3.68593
68 1 -1.1104 1.00792 10.5876 3.75693
71 1 -1.1104 3.94109 7.75074 0.930634
72 2 2.2208 2.49956 6.29558 2.30078
73 2 2.2208 2.50921 11.907 2.45131
74 1 -1.1104 3.79155 7.81817 3.76199
75 2 2.2208 2.50737 9.08113 5.25295
76 1 -1.1104 3.98583 4.88049 0.987354
77 1 -1.1104 3.85087 10.5889 0.863852
79 1 -1.1104 4.0341 4.983 3.76726
80 1 -1.1104 3.91633 10.498 3.75051
238 1 -1.1104 3.93721 7.73646 6.57559
69 1 -1.1104 6.70103 4.69088 3.89259
62 1 -1.1104 1.0109 10.5694 6.68394
236 1 -1.1104 1.00458 4.89134 6.63463
9086 2 2.2208 13.8575 0.841922 7.79386
239 1 -1.1104 3.93634 4.83305 6.49127
9075 2 2.2208 -0.517661 14.8642 2.56351
9077 2 2.2208 -0.237674 17.5283 5.21358
9070 2 2.2208 -0.33373 6.23963 5.26712
59 1 -1.1104 6.69374 7.65634 3.80516
70 1 -1.1104 6.65808 10.6298 3.8572
64 1 -1.1104 6.81273 10.4446 1.00588
235 1 -1.1104 6.63714 7.45945 6.75628
65 1 -1.1104 6.80551 10.3726 6.64272
63 1 -1.1104 6.66562 4.79251 1.02732
57 1 -1.1104 6.93318 7.68334 1.02878
84 2 2.2208 10.9227 6.28215 5.19802
85 2 2.2208 10.9227 11.8829 5.14721
86 1 -1.1104 12.0813 7.65742 0.969033
87 1 -1.1104 12.2182 7.63066 3.84285
88 1 -1.1104 12.6256 4.9298 1.14804
89 1 -1.1104 12.2711 10.4446 1.15396
91 2 2.2208 10.9223 9.08571 2.34608
92 1 -1.1104 12.3337 4.78706 3.78695
93 1 -1.1104 12.2623 10.5766 3.72752
94 1 -1.1104 9.64434 7.73491 1.00595
95 2 2.2208 8.09625 6.26373 2.43722
96 2 2.2208 8.02041 11.9729 2.41333
97 1 -1.1104 9.45219 7.67384 3.65801
98 2 2.2208 8.08581 9.12764 5.22063
99 1 -1.1104 9.53165 4.79504 0.871716
100 1 -1.1104 9.45803 10.6725 0.987929
102 1 -1.1104 9.3858 4.93343 3.93635
103 1 -1.1104 9.46353 10.3608 3.83746
101 1 -1.1104 9.44054 10.7064 6.59589
267 1 -1.1104 9.45739 7.85423 6.57188
237 1 -1.1104 6.70517 4.73179 6.67632
269 1 -1.1104 9.42709 4.92671 6.64552
90 1 -1.1104 12.4353 10.5681 6.41885
266 1 -1.1104 12.3148 4.99539 6.6954
265 1 -1.1104 12.3326 7.81678 6.43468
423 2 2.2208 5.23699 9.06398 13.5329
106 2 2.2208 5.23685 17.746 5.22498
107 1 -1.1104 1.17998 13.4208 1.1337
109 1 -1.1104 1.1411 18.9349 0.995258
113 1 -1.1104 0.825757 13.392 3.90332
114 1 -1.1104 1.22082 18.9005 3.82987
116 1 -1.1104 0.987184 16.0797 1.11117
119 2 2.2208 5.26288 14.7238 2.42407
120 2 2.2208 5.2977 20.3799 2.44327
121 1 -1.1104 1.09098 16.196 3.91258
123 1 -1.1104 4.07403 13.3301 1.14484
125 1 -1.1104 3.91791 19.005 1.03874
127 2 2.2208 2.45495 17.4907 2.37386
128 1 -1.1104 3.74879 13.2134 3.894
129 1 -1.1104 3.79746 19.1209 3.62035
130 2 2.2208 2.48987 14.761 5.26563
131 2 2.2208 2.51402 20.4507 5.03244
132 1 -1.1104 3.76874 16.1393 0.966327
134 1 -1.1104 4.02071 16.4139 3.7548
108 1 -1.1104 1.12321 13.3207 6.63607
133 1 -1.1104 3.88457 16.1784 6.65732
124 1 -1.1104 3.85189 13.2956 6.52409
9071 2 2.2208 -0.285711 9.05305 2.44061
199 1 -1.1104 9.69702 16.1476 12.1859
126 1 -1.1104 4.04337 19.0956 6.56172
9076 2 2.2208 -0.304065 20.3601 2.2767
8992 2 2.2208 -0.319958 6.33794 10.6855
297 1 -1.1104 6.55005 13.5752 12.2427
140 1 -1.1104 6.65113 16.0821 0.954738
110 1 -1.1104 6.70085 13.247 1.02109
122 1 -1.1104 6.77771 16.1476 3.68993
115 1 -1.1104 6.62079 13.3958 3.87042
138 1 -1.1104 6.52464 19.0573 1.00888
139 1 -1.1104 6.63518 19.0051 3.86343
141 2 2.2208 11.0401 17.6236 5.23103
142 1 -1.1104 12.2765 13.383 0.842573
144 1 -1.1104 12.3891 19.1985 1.01801
146 1 -1.1104 12.2815 13.3519 3.80292
147 1 -1.1104 12.1868 19.098 3.82958
148 1 -1.1104 12.2661 16.3073 0.955449
150 2 2.2208 10.8917 14.658 2.48796
151 2 2.2208 10.9642 20.4356 2.24099
152 1 -1.1104 12.366 15.9939 3.8029
153 1 -1.1104 9.37308 13.47 1.02202
155 1 -1.1104 9.44625 19.0409 0.890454
157 2 2.2208 8.04702 17.6007 2.51048
158 1 -1.1104 9.37784 13.2471 3.76138
159 1 -1.1104 9.62945 19.1433 3.78463
160 2 2.2208 7.93839 14.685 5.31105
161 2 2.2208 8.08102 20.4081 5.11366
162 1 -1.1104 9.36313 16.2208 0.931856
164 1 -1.1104 9.52533 16.0885 3.83415
163 1 -1.1104 9.41989 16.1626 6.60424
149 1 -1.1104 12.5476 16.185 6.70473
145 1 -1.1104 12.3773 19.0415 6.5059
143 1 -1.1104 12.3301 13.2983 6.46903
111 1 -1.1104 6.54422 13.2985 6.71296
105 2 2.2208 7.97244 17.6157 7.98699
296 1 -1.1104 6.53058 18.8698 12.3851
135 1 -1.1104 9.29507 13.452 9.25785
167 1 -1.1104 0.943828 2.17838 6.76302
9024 2 2.2208 13.7075 20.4091 10.8175
50 1 -1.1104 12.4219 16.1601 12.0605
175 2 2.2208 5.35022 0.549672 10.8317
176 1 -1.1104 1.01621 -3.61988 12.1882
177 1 -1.1104 1.13927 1.82347 12.3146
180 1 -1.1104 1.17928 -3.39693 9.3197
181 1 -1.1104 1.08502 2.03388 9.46707
184 1 -1.1104 1.16422 -0.943462 12.0886
186 2 2.2208 5.29888 -2.14501 7.95674
188 1 -1.1104 1.38322 -0.687847 9.50431
190 1 -1.1104 3.98046 -3.55108 12.1396
191 1 -1.1104 4.00751 2.20432 12.2839
192 2 2.2208 2.53304 0.644525 7.97496
193 1 -1.1104 4.01625 -3.57634 9.23739
194 1 -1.1104 3.8813 1.98067 9.31973
195 2 2.2208 2.71167 -2.16365 10.794
197 1 -1.1104 3.91897 -0.768027 12.3385
198 1 -1.1104 4.05189 -0.784992 9.50807
9079 2 2.2208 -0.35814 3.47878 8.15042
178 1 -1.1104 6.53337 -3.80764 12.2119
183 1 -1.1104 6.74656 2.22991 9.33676
187 2 2.2208 5.31114 3.48354 7.95259
196 2 2.2208 2.4512 3.30665 10.8572
9062 2 2.2208 13.7456 14.6652 10.7109
9061 2 2.2208 -0.177927 -2.09731 2.28042
9063 2 2.2208 13.7435 17.5898 8.13226
82 1 -1.1104 12.3823 15.9828 9.34476
9080 2 2.2208 -0.286837 -2.06578 7.99466
233 1 -1.1104 6.82277 16.1292 12.0647
83 1 -1.1104 9.30174 13.3186 12.0347
182 1 -1.1104 6.74059 -3.36495 9.24839
185 1 -1.1104 6.73667 -0.770734 12.2216
179 1 -1.1104 6.79432 2.07747 12.1006
189 1 -1.1104 6.74525 -0.743626 9.48921
211 2 2.2208 10.9192 0.912662 10.768
212 1 -1.1104 12.3053 -3.6316 12.3128
213 1 -1.1104 12.3216 1.98997 12.3072
214 1 -1.1104 12.3673 -3.59725 9.44827
215 1 -1.1104 12.3248 2.20612 9.30488
216 1 -1.1104 12.3571 -0.760057 12.1226
217 2 2.2208 10.8518 -2.02705 8.04421
218 2 2.2208 10.8161 3.49027 8.03294
219 1 -1.1104 12.2545 -0.517363 9.37374
220 1 -1.1104 9.47248 -3.41791 12.1511
221 1 -1.1104 9.37901 2.25347 12.3096
222 2 2.2208 8.0057 0.693355 7.98788
223 1 -1.1104 9.42612 -3.35161 9.45278
224 1 -1.1104 9.37542 2.325 9.41605
225 2 2.2208 8.16373 -2.01995 10.8487
226 2 2.2208 8.13709 3.64708 10.8711
227 1 -1.1104 9.59327 -0.528635 12.1923
228 1 -1.1104 9.40451 -0.47505 9.57327
386 2 2.2208 8.09418 0.736927 13.6475
137 2 2.2208 7.90999 14.8004 10.6502
30 1 -1.1104 12.2351 13.2813 9.24656
388 2 2.2208 10.996 3.39655 13.6531
25 2 2.2208 10.9333 17.5582 10.6313
78 1 -1.1104 3.8553 10.504 6.69324
234 1 -1.1104 1.19835 7.76206 6.59232
9072 2 2.2208 -0.383449 11.8465 5.14707
200 1 -1.1104 9.51533 16.2145 9.42395
424 2 2.2208 2.28471 11.8462 13.6981
240 2 2.2208 5.37845 6.28803 10.8339
241 2 2.2208 5.3129 12.0101 10.9134
242 1 -1.1104 0.977496 7.44722 12.2951
244 1 -1.1104 1.194 7.72989 9.3276
246 1 -1.1104 0.998304 4.72542 12.1789
247 1 -1.1104 1.06781 10.3918 12.1761
250 2 2.2208 5.44087 9.10873 7.82045
251 1 -1.1104 0.804202 5.00535 9.46355
252 1 -1.1104 1.06329 10.2207 9.38929
255 1 -1.1104 3.9416 7.77378 12.0119
256 2 2.2208 2.49598 6.31423 8.01123
257 2 2.2208 2.51999 12.011 8.1312
258 1 -1.1104 3.9673 7.65216 9.23046
259 2 2.2208 2.37451 9.04688 10.9266
260 1 -1.1104 3.74184 4.91888 12.1757
261 1 -1.1104 3.82673 10.5245 12.2894
262 1 -1.1104 3.75407 4.78861 9.20317
263 1 -1.1104 3.73215 10.8092 9.6386
8984 2 2.2208 -0.482615 11.8477 10.8762
289 1 -1.1104 6.59457 16.2163 9.33413
9064 2 2.2208 -0.318189 0.766258 5.19506
165 2 2.2208 8.21698 20.3912 10.9334
26 1 -1.1104 12.2324 13.4011 12.1653
245 1 -1.1104 6.85349 7.56762 9.54543
254 1 -1.1104 6.73357 10.5089 9.29639
248 1 -1.1104 6.74733 4.90434 12.3171
249 1 -1.1104 6.73383 10.4526 12.2487
243 1 -1.1104 6.66032 7.80355 12.3098
253 1 -1.1104 6.74252 4.92914 9.32748
264 1 -1.1104 9.42376 10.609 9.41345
268 1 -1.1104 9.71429 4.9243 9.53444
270 1 -1.1104 9.42559 10.7418 12.2743
271 1 -1.1104 9.65712 5.02002 12.1284
272 2 2.2208 8.18702 9.23672 10.8935
273 1 -1.1104 9.57451 7.71881 9.4001
274 2 2.2208 8.21349 11.9728 8.06403
275 2 2.2208 8.19092 6.2351 7.97677
276 2 2.2208 11.1646 6.2951 10.8567
277 2 2.2208 10.8977 12.0284 10.8956
278 1 -1.1104 12.293 7.79177 12.2323
279 1 -1.1104 12.3206 7.75146 9.5402
280 1 -1.1104 12.4388 4.85955 12.232
281 1 -1.1104 12.4104 10.635 12.0686
282 2 2.2208 10.8933 9.10869 7.74169
283 1 -1.1104 12.4423 4.98398 9.29909
284 1 -1.1104 12.164 10.662 9.25145
285 1 -1.1104 9.55437 7.84978 12.4213
450 2 2.2208 11.1064 9.15653 13.611
117 1 -1.1104 1.03793 16.166 6.69885
118 1 -1.1104 6.63669 16.2427 6.56491
53 2 2.2208 10.8557 14.7111 7.81338
8839 2 2.2208 13.7434 20.4046 5.15693
49 1 -1.1104 12.1772 19.012 9.18246
290 1 -1.1104 6.61437 13.297 9.45025
302 1 -1.1104 1.44662 18.9067 6.49334
201 2 2.2208 2.24761 14.8049 10.8742
204 2 2.2208 2.47987 20.4956 10.8943
229 1 -1.1104 3.79532 16.2238 12.2771
230 1 -1.1104 0.914996 15.8103 12.3777
286 1 -1.1104 3.65506 18.9661 12.3073
287 1 -1.1104 3.6889 13.2946 12.1816
291 1 -1.1104 1.00245 18.986 9.31286
292 1 -1.1104 0.920359 16.212 9.6183
293 2 2.2208 5.23953 20.5103 7.92269
294 1 -1.1104 1.07628 13.3179 9.41834
295 2 2.2208 5.22736 14.6888 8.05824
298 1 -1.1104 0.779793 18.928 12.1026
299 1 -1.1104 0.791674 13.0781 12.1515
300 2 2.2208 5.22951 17.5806 10.9548
301 1 -1.1104 3.85456 18.9315 9.39147
303 2 2.2208 2.61628 17.579 8.07186
304 1 -1.1104 3.66935 16.2411 9.67717
305 1 -1.1104 3.79432 13.5356 9.48319
9065 2 2.2208 -0.309382 3.58623 2.40591
9083 2 2.2208 -0.591071 17.6194 10.8309
288 1 -1.1104 6.54485 18.9668 9.62582
27 1 -1.1104 12.3188 18.8929 12.1046
104 1 -1.1104 9.65402 18.9985 12.3241
81 2 2.2208 10.8297 20.3115 7.91836
112 1 -1.1104 6.66962 19.1135 6.59511
156 1 -1.1104 9.51888 18.9454 6.46647
154 1 -1.1104 9.4026 13.371 6.41061
136 1 -1.1104 9.47271 19.0208 9.41345
8991 2 2.2208 -0.338629 9.07134 8.00818
611 2 2.2208 2.43542 14.7207 -0.351888
310 2 2.2208 10.7396 20.4197 13.686
451 2 2.2208 8.0422 11.9637 13.7085
9476 2 2.2208 -0.227693 -2.32231 13.5961
346 2 2.2208 7.96619 14.7573 -0.417752
9471 2 2.2208 13.6053 14.7736 -0.532746
572 2 2.2208 8.12654 3.45634 -0.449546
422 2 2.2208 2.34181 6.15904 13.6611
353 2 2.2208 5.36606 -2.05188 13.6143
354 2 2.2208 2.48481 0.620037 13.6835
307 2 2.2208 8.0657 20.311 -0.495566
311 2 2.2208 8.09133 17.4578 13.6314
631 2 2.2208 8.09077 9.18919 -0.417869
513 2 2.2208 10.9935 14.7421 13.5465
9097 2 2.2208 13.865 17.5009 13.5067
308 2 2.2208 2.1807 17.5575 13.6458
632 2 2.2208 10.8354 12.1818 -0.354517
9492 2 2.2208 -0.307015 11.9837 -0.361284
313 2 2.2208 5.27875 0.757679 16.4776
314 1 -1.1104 0.943713 -3.35809 17.8142
315 1 -1.1104 0.932849 2.02524 17.9187
318 1 -1.1104 1.08443 -3.59675 14.9666
320 1 -1.1104 0.969735 2.0024 15.1346
326 1 -1.1104 1.11452 -0.619665 17.7221
328 2 2.2208 5.23988 -2.19622 19.2292
329 2 2.2208 5.22115 3.60044 19.3581
330 1 -1.1104 1.08144 -0.611851 14.8017
334 1 -1.1104 3.98337 -3.55138 17.6133
335 1 -1.1104 3.85808 2.01345 17.7138
336 2 2.2208 2.33839 0.858304 19.1615
337 1 -1.1104 3.95433 -3.41797 14.9203
339 1 -1.1104 3.97398 2.1224 15.0567
341 2 2.2208 2.54233 -2.10368 16.3337
343 1 -1.1104 3.63286 -0.591707 17.8739
344 1 -1.1104 3.95695 -0.799643 15.0263
342 2 2.2208 2.44773 3.55337 16.4233
340 1 -1.1104 3.75736 2.09561 20.5297
331 1 -1.1104 0.94338 -0.650649 20.6084
338 1 -1.1104 3.66372 -3.42086 20.6946
319 1 -1.1104 1.07518 -3.43083 20.5628
322 1 -1.1104 6.79786 -3.49016 14.9946
316 1 -1.1104 6.79894 -3.56831 17.7261
345 1 -1.1104 4.051 -0.688022 20.5728
541 2 2.2208 2.55723 -2.26654 27.7008
9470 2 2.2208 13.6227 17.6903 25.1579
9268 2 2.2208 13.7466 14.743 16.4041
9275 2 2.2208 -0.404726 14.751 24.8939
332 1 -1.1104 6.59164 -0.712208 15.0626
317 1 -1.1104 6.62288 2.23079 17.7014
327 1 -1.1104 6.68656 -0.961496 17.821
324 1 -1.1104 6.64562 2.09638 15.033
356 2 2.2208 10.9526 0.756461 16.4458
357 1 -1.1104 12.4687 -3.39108 17.9024
358 1 -1.1104 12.3401 2.09666 17.8954
359 1 -1.1104 12.4835 -3.57341 15.1063
361 1 -1.1104 12.3967 2.08849 15.0043
363 1 -1.1104 12.4491 -0.638091 17.7551
364 2 2.2208 11.0324 -2.06776 19.241
366 1 -1.1104 12.3588 -0.718134 14.8545
368 1 -1.1104 9.55609 -3.37617 17.7764
369 1 -1.1104 9.44804 2.10076 17.8056
370 2 2.2208 8.0778 0.647407 19.3174
371 1 -1.1104 9.50427 -3.52354 14.9487
373 1 -1.1104 9.42764 2.106 15.1492
375 2 2.2208 8.05752 -2.07354 16.4473
376 2 2.2208 8.04292 3.43348 16.5051
377 1 -1.1104 9.6856 -0.571848 17.963
378 1 -1.1104 9.38432 -0.600922 15.053
365 2 2.2208 10.8198 3.40424 19.1815
379 1 -1.1104 9.37752 -0.613662 20.7292
374 1 -1.1104 9.36417 2.14637 20.6485
367 1 -1.1104 12.2459 -0.743978 20.6486
323 1 -1.1104 6.79705 -3.61367 20.7507
362 1 -1.1104 12.221 2.12264 20.6178
360 1 -1.1104 12.736 -3.44619 20.8153
548 2 2.2208 10.7007 20.38 24.6843
325 1 -1.1104 6.53346 2.0594 20.5407
333 1 -1.1104 6.76035 -0.712093 20.7266
389 2 2.2208 5.36359 6.2336 16.4626
390 2 2.2208 5.05824 11.9474 16.5616
391 1 -1.1104 1.0796 7.657 17.7267
393 1 -1.1104 0.865408 7.6678 15.1142
397 1 -1.1104 0.962567 4.91393 17.7766
398 1 -1.1104 0.927826 10.5917 18.0418
401 2 2.2208 5.18449 9.11962 19.2255
402 1 -1.1104 1.1344 4.75805 14.939
404 1 -1.1104 0.894541 10.3912 15.0884
410 1 -1.1104 3.94152 7.54725 17.739
411 2 2.2208 2.29116 6.24544 19.2225
412 2 2.2208 2.37637 12.0266 19.2267
413 1 -1.1104 3.89193 7.82798 14.9773
415 2 2.2208 2.48785 9.22533 16.435
416 1 -1.1104 3.76403 4.5722 17.9833
417 1 -1.1104 3.69666 10.4722 17.8918
418 1 -1.1104 3.99764 5.09294 15.0946
420 1 -1.1104 3.80727 10.6563 15.0134
403 1 -1.1104 1.00205 4.92628 20.7262
419 1 -1.1104 3.87935 4.92629 20.7742
414 1 -1.1104 3.77255 7.62298 20.5376
395 1 -1.1104 6.67589 7.77351 15.0824
407 1 -1.1104 6.71288 5.1148 20.8231
9475 2 2.2208 -0.36825 -2.15989 19.2664
394 1 -1.1104 0.969675 7.49942 20.5213
409 1 -1.1104 6.63845 10.3989 20.7481
406 1 -1.1104 6.82466 4.94052 15.2944
392 1 -1.1104 6.55439 7.66996 17.9534
408 1 -1.1104 6.79561 10.675 15.1598
400 1 -1.1104 6.45122 10.4143 17.8241
399 1 -1.1104 6.58906 4.85515 18.2387
425 2 2.2208 10.8644 6.1652 16.4419
426 2 2.2208 10.8729 11.992 16.3399
427 1 -1.1104 12.1522 7.5779 17.9749
428 1 -1.1104 12.239 7.8109 15.0111
430 1 -1.1104 12.274 4.75493 17.8597
431 1 -1.1104 12.4194 10.4814 17.836
432 2 2.2208 10.8694 9.00394 19.3924
433 1 -1.1104 12.3302 4.86402 15.19
435 1 -1.1104 12.4432 10.4872 14.968
437 1 -1.1104 9.38808 7.66238 18.0758
438 2 2.2208 8.0886 6.46875 19.3942
439 2 2.2208 7.87273 11.873 19.0785
440 1 -1.1104 9.48022 7.73689 15.1836
442 2 2.2208 7.7802 9.11612 16.469
443 1 -1.1104 9.35437 4.99405 17.7652
444 1 -1.1104 9.29364 10.4859 17.86
445 1 -1.1104 9.45955 4.7998 15.0563
447 1 -1.1104 9.4558 10.6635 15.0573
436 1 -1.1104 12.2191 10.5457 20.5323
446 1 -1.1104 9.36579 4.99632 20.6766
434 1 -1.1104 12.3761 4.93112 20.7742
429 1 -1.1104 12.3909 7.76957 20.737
396 1 -1.1104 6.55149 7.98944 20.8041
441 1 -1.1104 9.6483 7.81083 20.9503
609 1 -1.1104 9.41179 15.9033 23.5357
448 1 -1.1104 9.39273 10.6783 20.5519
544 2 2.2208 10.8722 14.7268 24.8511
452 2 2.2208 5.20815 17.5552 16.4314
453 1 -1.1104 1.02483 13.3575 17.8096
454 1 -1.1104 0.846295 19.0139 17.8868
457 1 -1.1104 0.836816 13.3706 15.0648
459 1 -1.1104 0.939516 18.7943 15.0826
465 1 -1.1104 0.876364 16.1215 17.9507
467 2 2.2208 5.13988 14.6443 19.3345
468 2 2.2208 5.14788 20.2357 19.2273
469 1 -1.1104 0.88285 16.1045 14.9699
473 1 -1.1104 3.91568 13.1465 18.1294
474 1 -1.1104 3.55365 18.9637 17.8402
475 2 2.2208 2.48968 17.5972 19.2326
476 1 -1.1104 3.5703 13.3665 15.1363
478 1 -1.1104 3.5385 18.952 15.0292
480 2 2.2208 2.33525 14.6669 16.4392
481 2 2.2208 2.37727 20.2722 16.3914
482 1 -1.1104 4.0211 16.1087 17.9869
483 1 -1.1104 3.73193 16.3347 15.1628
458 1 -1.1104 0.939709 13.4463 20.547
456 1 -1.1104 6.66724 18.7204 17.7825
463 1 -1.1104 6.59521 19.1671 15.2365
542 2 2.2208 2.66571 3.53136 27.7976
9488 2 2.2208 13.7062 -2.23354 27.7995
9239 2 2.2208 -0.365977 9.13774 19.3152
9490 2 2.2208 13.7253 0.628433 24.8741
461 1 -1.1104 6.4468 13.5175 15.1219
466 1 -1.1104 6.73474 16.0077 17.6463
455 1 -1.1104 6.54429 13.2889 17.9457
471 1 -1.1104 6.71193 16.1893 14.8124
488 2 2.2208 10.8608 17.6149 16.3011
489 1 -1.1104 12.1548 13.2524 17.7893
490 1 -1.1104 12.2085 18.9733 17.7442
491 1 -1.1104 12.2737 13.2846 15.0725
493 1 -1.1104 12.5048 19.0171 15.0012
495 1 -1.1104 12.3646 16.0944 17.7725
496 2 2.2208 10.8925 14.7378 19.2547
497 2 2.2208 10.9977 20.3801 19.1859
498 1 -1.1104 12.241 16.2164 14.9958
500 1 -1.1104 9.48231 13.3536 17.6823
501 1 -1.1104 9.44721 18.8706 18.0494
502 2 2.2208 7.99891 17.5124 19.2836
503 1 -1.1104 9.38135 13.4346 14.9758
505 1 -1.1104 9.58223 18.9398 15.2527
507 2 2.2208 8.02888 14.6942 16.4664
508 2 2.2208 8.26365 20.2909 16.6144
509 1 -1.1104 9.41101 16.1417 17.8974
510 1 -1.1104 9.54056 16.0428 14.9003
499 1 -1.1104 12.3434 16.1441 20.8272
492 1 -1.1104 12.3295 13.2676 20.6704
506 1 -1.1104 9.61813 19.0057 20.722
462 1 -1.1104 6.76668 13.1523 20.803
504 1 -1.1104 9.58124 13.4556 20.5398
9483 2 2.2208 -0.0673628 0.592041 27.7124
9130 2 2.2208 13.8626 0.710238 19.2126
321 1 -1.1104 0.936268 2.12795 20.6403
9200 2 2.2208 13.6558 11.951 19.274
516 2 2.2208 5.21482 0.800456 21.9895
517 1 -1.1104 1.04611 -3.45441 23.4464
518 1 -1.1104 0.891363 2.14636 23.3562
521 1 -1.1104 1.23522 -3.63514 26.2963
522 1 -1.1104 1.35994 2.03841 26.3347
525 1 -1.1104 0.990373 -0.530847 23.5821
527 2 2.2208 5.35328 -2.035 24.9329
529 1 -1.1104 1.1504 -0.844698 26.1364
531 1 -1.1104 3.96814 -3.42264 23.4023
532 1 -1.1104 3.94932 2.14806 23.53
533 2 2.2208 2.50383 0.727447 24.8506
534 1 -1.1104 4.08873 -3.24264 26.2968
535 1 -1.1104 4.02793 2.24929 26.503
536 2 2.2208 2.52677 -1.97062 22.0702
537 2 2.2208 2.29768 3.57458 22.0461
538 1 -1.1104 4.04161 -0.811401 23.3245
539 1 -1.1104 3.84494 -0.546749 26.1454
528 2 2.2208 5.19398 3.42478 24.9651
9271 2 2.2208 13.7285 20.3355 16.4357
610 1 -1.1104 9.30866 16.1374 26.5121
9467 2 2.2208 -0.459616 17.5539 22.1266
9485 2 2.2208 -0.423717 0.710948 22.0279
523 1 -1.1104 6.84143 -3.52626 26.3811
526 1 -1.1104 6.92644 -0.711086 23.6583
519 1 -1.1104 6.81541 -3.59883 23.6608
540 2 2.2208 5.16458 0.622117 27.7298
9474 2 2.2208 -0.415895 0.677745 16.3993
9486 2 2.2208 -0.295617 3.52775 25.0642
372 1 -1.1104 9.63341 -3.42455 20.4066
9472 2 2.2208 -0.309431 6.24516 27.7167
530 1 -1.1104 6.65281 -0.740379 26.3686
524 1 -1.1104 6.69246 2.13069 26.4901
520 1 -1.1104 6.51426 1.83689 23.6934
9240 2 2.2208 -0.48701 6.39083 16.5247
552 2 2.2208 10.8999 0.719051 22.0781
553 1 -1.1104 12.1667 -3.43726 23.6089
554 1 -1.1104 12.4241 2.14766 23.4815
555 1 -1.1104 12.4211 -3.50209 26.4194
556 1 -1.1104 12.4043 2.03061 26.3945
557 1 -1.1104 12.5084 -0.720356 23.482
558 2 2.2208 10.9521 -2.18527 24.9886
559 2 2.2208 11.0184 3.47809 25.0278
560 1 -1.1104 12.2758 -0.858739 26.1998
561 1 -1.1104 9.52078 -3.54 23.5805
562 1 -1.1104 9.64121 2.12593 23.4131
563 2 2.2208 8.12258 0.640211 25.0137
564 1 -1.1104 9.63904 -3.63189 26.4648
565 1 -1.1104 9.52082 1.99503 26.2408
566 2 2.2208 8.05727 -2.20635 22.0844
567 2 2.2208 8.21409 3.60847 22.1435
568 1 -1.1104 9.68075 -0.796789 23.5772
569 1 -1.1104 9.31209 -0.696988 26.5645
571 2 2.2208 8.02216 -2.13135 27.8537
570 2 2.2208 10.9321 0.643288 27.6773
380 1 -1.1104 12.3885 13.3385 23.3681
577 1 -1.1104 6.65739 18.7462 26.3515
9313 2 2.2208 -0.382438 17.5195 27.7531
421 1 -1.1104 3.87411 10.397 20.7032
9480 2 2.2208 -0.35353 11.9777 22.0816
633 2 2.2208 5.23955 17.5313 27.8222
9274 2 2.2208 13.4694 11.8895 24.9024
405 1 -1.1104 0.970153 10.6104 20.8099
581 2 2.2208 5.26786 6.44992 22.1014
582 2 2.2208 5.33197 11.9844 22.1338
583 1 -1.1104 0.993173 7.909 23.2707
585 1 -1.1104 1.21009 7.55286 26.4404
587 1 -1.1104 0.99002 5.00674 23.4563
588 1 -1.1104 0.980621 10.6315 23.6144
591 2 2.2208 5.20381 9.20952 24.922
592 1 -1.1104 1.15166 4.79577 26.2549
593 1 -1.1104 0.936345 10.5844 26.3155
596 1 -1.1104 3.97132 7.77504 23.566
597 2 2.2208 2.52961 6.27788 24.8929
598 2 2.2208 2.49804 11.8947 25.0351
599 1 -1.1104 3.97577 7.76949 26.2386
600 2 2.2208 2.56577 9.13288 22.0729
601 1 -1.1104 3.84733 4.87567 23.5019
602 1 -1.1104 3.72929 10.5772 23.4669
603 1 -1.1104 3.74787 4.91266 26.4172
604 1 -1.1104 3.8031 10.6564 26.2724
9167 2 2.2208 -0.435638 3.57187 19.1025
595 1 -1.1104 6.60198 10.4141 26.2633
551 1 -1.1104 9.33368 18.7921 23.5069
594 1 -1.1104 6.617 4.90498 26.2722
584 1 -1.1104 6.55975 7.64666 23.5357
586 1 -1.1104 6.8254 7.73811 26.552
590 1 -1.1104 6.58475 10.5372 23.4523
9484 2 2.2208 -0.293116 -2.05701 24.7968
589 1 -1.1104 6.82356 4.93928 23.5827
612 1 -1.1104 9.55033 10.6844 26.2584
613 1 -1.1104 9.36913 4.80646 26.3011
614 1 -1.1104 9.3767 10.4819 23.4612
615 1 -1.1104 9.71376 4.78083 23.5699
616 2 2.2208 8.00786 9.1632 22.1221
617 1 -1.1104 9.37576 7.75901 26.1791
618 2 2.2208 8.07842 11.9653 24.96
619 2 2.2208 7.98015 6.27628 24.9725
620 2 2.2208 10.9414 6.27326 22.1746
621 2 2.2208 10.8558 12.1024 21.9516
622 1 -1.1104 12.3304 7.73574 23.6538
623 1 -1.1104 12.477 7.69786 26.3164
624 1 -1.1104 12.4035 5.0158 23.4829
625 1 -1.1104 12.1537 10.5966 23.4069
626 2 2.2208 10.9361 9.19487 24.9275
627 1 -1.1104 12.2594 4.92803 26.4471
628 1 -1.1104 12.2915 10.6974 26.4581
629 1 -1.1104 9.38974 7.62176 23.6601
9433 2 2.2208 -0.340377 20.3941 25.01
608 2 2.2208 7.92315 20.4446 22.1504
484 1 -1.1104 3.65295 16.0458 20.7704
470 1 -1.1104 0.896181 16.0679 20.7777
472 1 -1.1104 6.54765 15.9038 20.6349
479 1 -1.1104 3.82949 18.8655 20.8997
460 1 -1.1104 0.97558 18.9852 20.7351
477 1 -1.1104 3.82431 13.238 20.7197
349 2 2.2208 2.49452 20.2937 22.1011
350 1 -1.1104 3.79139 16.0059 23.4616
485 1 -1.1104 0.965031 15.9092 23.5593
512 1 -1.1104 3.97358 13.4324 26.5135
514 1 -1.1104 3.68541 16.237 26.4006
634 2 2.2208 2.4676 17.5218 24.8405
635 2 2.2208 2.26183 14.7167 22.1654
636 1 -1.1104 3.9887 18.7523 23.5248
638 1 -1.1104 3.73957 13.3642 23.5545
640 1 -1.1104 1.07565 18.8889 26.3127
641 1 -1.1104 0.914222 16.085 26.3415
642 1 -1.1104 1.14807 13.3872 26.3834
644 2 2.2208 5.33368 20.2975 24.9901
645 2 2.2208 5.2737 14.8636 24.8164
647 1 -1.1104 1.11671 18.8005 23.3881
648 1 -1.1104 1.16091 13.2952 23.6229
649 2 2.2208 5.22529 17.3697 22.1504
650 1 -1.1104 3.71647 19.0176 26.2878
646 1 -1.1104 6.67669 13.4016 23.5633
511 1 -1.1104 9.49785 16.0991 20.6535
464 1 -1.1104 6.70752 18.9886 20.7512
494 1 -1.1104 12.5079 18.8974 20.7611
580 2 2.2208 8.16159 14.5854 22.0436
385 1 -1.1104 12.1803 13.4768 26.2017
515 1 -1.1104 12.3583 19.1369 26.4185
351 2 2.2208 10.9099 17.4848 22.1768
573 2 2.2208 7.96095 17.4845 24.9335
639 1 -1.1104 6.65397 16.1055 26.2096
543 1 -1.1104 12.2625 16.1437 23.7336
579 1 -1.1104 9.64258 19.057 26.3758
578 1 -1.1104 9.61427 13.352 26.3768
486 1 -1.1104 6.65313 16.1063 23.4251
637 1 -1.1104 6.82491 13.3648 26.2208
643 1 -1.1104 6.67512 18.8056 23.524
384 1 -1.1104 12.1601 18.8732 23.5622
549 1 -1.1104 12.1011 16.3901 26.4948
550 1 -1.1104 9.60828 13.2237 23.6176
312 2 2.2208 2.56156 20.3835 27.7186
309 2 2.2208 5.17898 20.2413 13.6224
630 2 2.2208 10.8186 6.40915 27.6456
605 2 2.2208 5.41794 6.28144 27.7516
607 2 2.2208 5.39556 11.9304 27.8094
487 2 2.2208 5.07089 14.8927 13.564
387 2 2.2208 10.8232 -2.10457 13.5571
606 2 2.2208 2.50093 9.18619 27.726
449 2 2.2208 8.17435 6.44056 13.5981
9171 2 2.2208 -0.390278 3.56816 13.6609
306 2 2.2208 10.8126 17.6343 27.837
651 2 2.2208 5.17858 23.3571 5.12127
652 2 2.2208 5.14946 28.8691 5.23296
653 1 -1.1104 1.2171 24.6983 0.970569
654 1 -1.1104 0.94536 24.8023 3.82656
655 1 -1.1104 1.16747 21.8279 0.892607
656 1 -1.1104 0.9908 27.423 0.917141
657 2 2.2208 5.10531 25.9961 2.44592
658 1 -1.1104 0.966942 21.937 3.56076
659 1 -1.1104 0.883221 27.6573 3.74317
660 1 -1.1104 4.0253 24.3279 0.926788
661 2 2.2208 2.39225 23.1134 2.20655
662 2 2.2208 2.3388 28.8139 2.42374
663 1 -1.1104 3.76293 24.8101 3.80256
664 2 2.2208 2.36586 26.0763 5.25501
665 1 -1.1104 3.77235 21.7328 0.900768
666 1 -1.1104 3.73081 27.2685 1.08524
667 1 -1.1104 3.78653 21.8403 3.7919
668 1 -1.1104 3.64311 27.4695 3.87707
800 1 -1.1104 3.82811 27.5215 6.67999
799 1 -1.1104 4.02558 21.9165 6.62137
675 1 -1.1104 6.61067 27.5233 1.14993
798 1 -1.1104 3.68126 24.5366 6.68144
9747 2 2.2208 -0.302505 34.4939 10.8654
1487 1 -1.1104 6.53165 47.1913 9.31937
1324 1 -1.1104 12.1794 47.1957 0.912563
1289 1 -1.1104 6.48988 47.175 3.86759
974 2 2.2208 5.06552 28.9116 -0.443941
9816 2 2.2208 -0.284011 34.5674 5.25146
676 1 -1.1104 6.523 21.8361 3.76458
672 1 -1.1104 6.91884 24.8135 1.11757
673 1 -1.1104 6.58885 24.7541 3.70569
674 1 -1.1104 6.83738 21.9167 0.939073
677 1 -1.1104 6.40434 27.7752 3.82303
678 2 2.2208 10.7471 23.2825 5.19622
679 2 2.2208 10.8611 29.0155 5.12732
680 1 -1.1104 12.3574 24.6095 0.929958
681 1 -1.1104 12.3489 24.7528 3.72496
682 1 -1.1104 12.3569 21.9621 0.987472
683 1 -1.1104 12.5555 27.2826 0.924589
684 2 2.2208 10.9227 26.124 2.3734
685 1 -1.1104 12.32 21.857 3.91781
686 1 -1.1104 12.3433 27.6468 3.83779
687 1 -1.1104 9.62284 24.7315 0.915787
688 2 2.2208 8.23413 23.3406 2.39568
689 2 2.2208 7.83738 29.0018 2.47679
690 1 -1.1104 9.37847 24.7432 3.82745
691 2 2.2208 7.95675 26.1216 5.04975
692 1 -1.1104 9.50092 21.8194 1.01075
693 1 -1.1104 9.371 27.6127 0.997452
694 1 -1.1104 9.38599 21.9191 3.83819
695 1 -1.1104 9.51342 27.5581 3.61893
825 1 -1.1104 12.1678 24.6692 6.70337
828 1 -1.1104 9.44835 24.7939 6.3923
826 1 -1.1104 12.1835 21.8438 6.44542
797 1 -1.1104 6.62837 27.554 6.47641
956 2 2.2208 8.06502 23.2507 13.7128
1511 1 -1.1104 9.52139 47.3005 6.70686
699 2 2.2208 5.40699 34.4821 5.37247
700 1 -1.1104 1.04681 30.1722 1.29182
701 1 -1.1104 1.0832 35.9411 1.04383
703 1 -1.1104 1.09204 30.2659 3.93074
704 1 -1.1104 1.184 35.9345 3.72754
706 1 -1.1104 1.10472 33.172 0.825269
707 2 2.2208 5.2148 31.6354 2.40771
708 2 2.2208 5.16348 37.1576 2.39953
709 1 -1.1104 1.13484 33.1705 3.76574
711 1 -1.1104 3.67307 30.339 0.866629
712 1 -1.1104 3.9359 35.8357 1.07376
713 2 2.2208 2.47611 34.3905 2.29946
714 1 -1.1104 3.8541 30.0559 3.6537
715 1 -1.1104 3.86708 35.8253 3.79449
716 2 2.2208 2.46741 31.7273 5.3064
717 2 2.2208 2.33518 37.2153 5.05188
718 1 -1.1104 3.84419 33.0811 0.959161
719 1 -1.1104 3.75571 32.8611 3.7203
702 1 -1.1104 6.85735 35.8123 1.08551
855 1 -1.1104 3.80389 30.175 6.71232
725 1 -1.1104 6.66726 32.9391 1.04911
9684 2 2.2208 -0.368709 25.9932 7.9858
953 2 2.2208 5.22322 26.0737 13.6351
9852 2 2.2208 -0.280174 31.7475 13.5656
790 1 -1.1104 12.1902 38.792 9.24852
1285 1 -1.1104 6.81284 47.1596 1.16033
978 2 2.2208 10.8215 34.4714 -0.441772
968 2 2.2208 7.96591 42.969 -0.377867
724 1 -1.1104 6.73746 30.434 3.83199
705 1 -1.1104 6.53225 35.9801 3.98103
723 1 -1.1104 6.53727 30.2944 0.969883
710 1 -1.1104 6.68725 33.1947 3.81376
726 2 2.2208 10.8411 34.5258 5.15072
727 1 -1.1104 12.2954 30.1533 0.956503
728 1 -1.1104 12.2609 35.9783 0.97754
729 1 -1.1104 12.5411 30.2872 3.80922
730 1 -1.1104 12.136 35.8754 3.80435
731 1 -1.1104 12.2558 33.0796 1.0674
732 2 2.2208 10.8594 31.7262 2.35054
733 2 2.2208 10.8337 37.3002 2.42469
734 1 -1.1104 12.2014 33.1378 3.7899
735 1 -1.1104 9.59548 30.4923 0.895556
736 1 -1.1104 9.57717 35.8943 0.968966
737 2 2.2208 8.14252 34.5093 2.40762
738 1 -1.1104 9.51735 30.4508 3.81911
739 1 -1.1104 9.25191 35.7403 3.92146
740 2 2.2208 8.08232 31.7465 5.12063
741 2 2.2208 7.93987 37.2431 5.19695