ITEM: TIMESTEP
60000
ITEM: NUMBER OF ATOMS
17910
ITEM: BOX BOUNDS pp pp pp
-3.9762722466929484e-01 2.7737627224669044e+01
-4.7943766294798396e+00 3.3287437662946814e+02
-3.8522298996138388e-01 2.7725222989962276e+01
ITEM: ATOMS id type q x y z
1 2 2.2208 5.39672 0.976105 5.08643
2 1 -1.1104 1.20803 -3.05872 0.960155
3 1 -1.1104 1.21553 2.52195 1.08893
6 1 -1.1104 1.1375 -3.14302 3.75996
7 1 -1.1104 1.1434 2.45641 3.76237
10 1 -1.1104 1.24096 -0.431018 1.02027
12 2 2.2208 5.24226 -1.88152 2.20087
14 1 -1.1104 1.08677 -0.316915 3.83106
16 1 -1.1104 3.96789 -3.22299 0.995181
17 1 -1.1104 3.98272 2.37209 0.993562
18 2 2.2208 2.62204 0.923859 2.29906
19 1 -1.1104 4.10366 -3.31088 3.49849
20 1 -1.1104 4.01078 2.4597 3.89157
21 2 2.2208 2.47468 -1.83267 5.16288
23 1 -1.1104 4.01664 -0.42703 0.789924
24 1 -1.1104 4.07048 -0.32676 3.70351
13 2 2.2208 5.25074 3.69467 2.38816
22 2 2.2208 2.63597 3.84857 5.17843
170 1 -1.1104 1.28372 -0.435454 6.66227
167 1 -1.1104 1.33842 2.42856 6.7223
166 1 -1.1104 1.11157 -3.32435 6.41253
174 1 -1.1104 3.97927 -0.353938 6.44889
4 1 -1.1104 6.75231 -3.36968 0.985362
15 1 -1.1104 6.81071 -0.448358 3.72844
168 1 -1.1104 6.59958 -3.05419 6.51472
28 2 2.2208 2.69497 -4.61492 2.29079
9061 2 2.2208 -0.155267 -1.91301 2.28533
29 2 2.2208 5.43578 -4.53792 5.02707
9492 2 2.2208 -0.131852 12.3568 -0.365766
312 2 2.2208 2.59943 20.5634 -0.446256
9085 2 2.2208 -0.278789 -4.62707 10.8614
82 1 -1.1104 12.2729 16.3767 9.44073
9077 2 2.2208 -0.370588 17.9313 5.1982
51 2 2.2208 8.13819 -4.69936 2.25215
169 1 -1.1104 6.87521 2.42125 6.65757
11 1 -1.1104 6.73321 -0.446404 0.977462
9 1 -1.1104 6.59114 2.35741 3.78544
8 1 -1.1104 6.83596 -3.27572 3.60359
5 1 -1.1104 6.58502 2.45367 0.969412
31 2 2.2208 10.9504 0.858661 5.07696
32 1 -1.1104 12.4757 -3.22226 0.891428
33 1 -1.1104 12.6188 2.4665 0.927513
34 1 -1.1104 12.34 -3.05684 3.7417
35 1 -1.1104 12.4763 2.3455 3.8557
36 1 -1.1104 12.3007 -0.308946 0.854164
37 2 2.2208 10.9981 -1.86381 2.26266
39 1 -1.1104 12.3425 -0.335896 3.75366
40 1 -1.1104 9.62998 -3.30672 0.780312
41 1 -1.1104 9.59457 2.20408 0.867695
42 2 2.2208 8.11736 1.00173 2.32801
43 1 -1.1104 9.59713 -3.27866 3.7632
44 1 -1.1104 9.5363 2.37349 3.73008
45 2 2.2208 8.21594 -1.78645 5.24412
47 1 -1.1104 9.5708 -0.481431 0.94147
48 1 -1.1104 9.57261 -0.448715 3.64645
46 2 2.2208 8.17794 3.86836 5.07514
38 2 2.2208 11.1012 3.80711 2.38567
208 1 -1.1104 9.62192 -3.17036 6.69285
205 1 -1.1104 12.4795 -3.29119 6.54043
52 2 2.2208 10.9443 -4.72129 5.18199
27 1 -1.1104 12.2573 19.3404 12.1929
9084 2 2.2208 -0.212484 20.6645 8.06981
54 2 2.2208 5.35422 6.51418 5.095
55 2 2.2208 5.34743 12.2667 5.22937
56 1 -1.1104 0.839778 7.94505 0.870097
58 1 -1.1104 0.9685 8.04278 3.64094
60 1 -1.1104 1.241 5.10425 1.13073
61 1 -1.1104 1.09881 10.7591 0.974073
66 2 2.2208 5.33753 9.34703 2.55286
67 1 -1.1104 1.22955 5.29928 3.75021
68 1 -1.1104 1.14005 10.6167 3.70529
71 1 -1.1104 3.90165 8.002 0.833106
72 2 2.2208 2.46559 6.60828 2.28314
73 2 2.2208 2.48722 12.16 2.53381
74 1 -1.1104 3.9817 7.90969 3.83561
75 2 2.2208 2.39512 9.34566 5.15117
76 1 -1.1104 3.97638 5.22296 1.01677
77 1 -1.1104 4.09265 10.7882 1.29458
79 1 -1.1104 3.91202 5.11291 3.81071
80 1 -1.1104 3.80636 10.7785 3.94225
78 1 -1.1104 3.78624 10.7625 6.78743
62 1 -1.1104 0.998465 10.7328 6.67489
423 2 2.2208 5.29075 9.30332 13.5567
611 2 2.2208 2.52902 15.0036 -0.31778
451 2 2.2208 8.13807 12.1539 13.6468
296 1 -1.1104 6.73603 19.2201 12.0587
63 1 -1.1104 6.88147 5.10572 0.867183
59 1 -1.1104 6.8275 7.79731 3.9418
69 1 -1.1104 6.76195 4.98758 3.63638
64 1 -1.1104 6.86914 10.861 1.10176
70 1 -1.1104 6.75015 10.8202 3.88193
57 1 -1.1104 6.65506 8.03511 1.17103
84 2 2.2208 11.0723 6.65141 5.0148
85 2 2.2208 11.0702 12.281 5.29835
86 1 -1.1104 12.1821 7.99761 0.96139
87 1 -1.1104 12.4103 7.98871 3.79876
88 1 -1.1104 12.7205 5.31775 0.816478
89 1 -1.1104 12.3819 10.8187 1.07606
91 2 2.2208 10.9671 9.42067 2.44881
92 1 -1.1104 12.4055 5.16832 3.7199
93 1 -1.1104 12.4902 10.8085 3.89322
94 1 -1.1104 9.36198 7.82463 0.899082
95 2 2.2208 8.14599 6.54238 2.32143
96 2 2.2208 8.12109 12.3951 2.42181
97 1 -1.1104 9.61403 7.9589 3.58745
98 2 2.2208 8.16282 9.42337 5.33421
99 1 -1.1104 9.62859 4.9602 1.07054
100 1 -1.1104 9.66924 10.8088 1.05612
102 1 -1.1104 9.60685 5.24252 3.78139
103 1 -1.1104 9.60761 10.8238 3.79769
65 1 -1.1104 6.6629 10.8975 6.73862
269 1 -1.1104 9.47496 5.25278 6.53244
235 1 -1.1104 6.68596 7.83478 6.54466
90 1 -1.1104 12.2123 10.7362 6.53106
49 1 -1.1104 12.372 19.4424 9.22444
25 2 2.2208 11.038 17.9103 10.7931
83 1 -1.1104 9.61887 13.506 12.2609
106 2 2.2208 5.21791 17.8372 5.29928
107 1 -1.1104 1.19649 13.4466 1.25472
109 1 -1.1104 1.17348 19.3196 0.953241
113 1 -1.1104 1.13208 13.5541 4.01328
114 1 -1.1104 1.07771 19.1007 3.71922
116 1 -1.1104 1.04766 16.2377 0.839446
119 2 2.2208 5.29145 14.9724 2.39674
120 2 2.2208 5.18415 20.517 2.30402
121 1 -1.1104 1.07464 16.5262 3.69583
123 1 -1.1104 3.88938 13.6288 1.19705
125 1 -1.1104 3.77314 19.0844 1.10099
127 2 2.2208 2.463 17.7032 2.51487
128 1 -1.1104 3.73767 13.5887 3.83327
129 1 -1.1104 3.76171 19.1808 3.90413
130 2 2.2208 2.48509 15.1054 5.32996
131 2 2.2208 2.4513 20.7688 5.25523
132 1 -1.1104 3.8359 16.5472 0.982717
134 1 -1.1104 3.90477 16.3257 3.78843
124 1 -1.1104 3.87789 13.6634 6.64437
117 1 -1.1104 0.948979 16.4249 6.69342
108 1 -1.1104 1.08528 13.6485 6.76118
126 1 -1.1104 3.77131 19.4094 6.65956
355 2 2.2208 5.42101 3.73984 13.5674
133 1 -1.1104 3.81028 16.5015 6.67203
9076 2 2.2208 -0.24521 20.5694 2.38605
9066 2 2.2208 -0.367394 -4.69598 5.07991
111 1 -1.1104 6.76618 13.6738 6.7281
140 1 -1.1104 6.74288 16.3499 1.20049
110 1 -1.1104 6.6898 13.665 0.983765
118 1 -1.1104 6.7396 16.6098 6.81862
112 1 -1.1104 6.54029 19.2953 6.5093
122 1 -1.1104 6.78302 16.5787 3.93287
154 1 -1.1104 9.65399 13.7202 6.78058
138 1 -1.1104 6.52257 19.2419 0.860972
115 1 -1.1104 6.73701 13.6001 3.91883
139 1 -1.1104 6.70952 19.2468 3.65114
141 2 2.2208 11.0556 17.8326 5.2341
142 1 -1.1104 12.3901 13.6743 1.21201
144 1 -1.1104 12.4384 19.4215 0.959622
146 1 -1.1104 12.4356 13.5414 4.01955
147 1 -1.1104 12.3163 19.2695 3.81884
148 1 -1.1104 12.4231 16.4771 1.0093
150 2 2.2208 11.1087 15.0107 2.5194
151 2 2.2208 10.8121 20.7365 2.47916
152 1 -1.1104 12.5263 16.4114 3.83304
153 1 -1.1104 9.49158 13.6311 1.1556
155 1 -1.1104 9.41588 19.3305 1.31417
157 2 2.2208 8.18641 17.7499 2.48199
158 1 -1.1104 9.6802 13.6574 3.96795
159 1 -1.1104 9.56465 19.5306 3.93228
160 2 2.2208 8.20042 15.1139 5.26009
161 2 2.2208 7.94332 20.6526 5.21021
162 1 -1.1104 9.61898 16.3006 0.842346
164 1 -1.1104 9.49314 16.504 3.84357
156 1 -1.1104 9.20159 19.4175 6.79002
163 1 -1.1104 9.59271 16.6992 6.51451
145 1 -1.1104 12.2174 19.2464 6.68493
143 1 -1.1104 12.5023 13.7282 6.80795
53 2 2.2208 10.9384 15.0781 7.94422
288 1 -1.1104 6.84897 19.3779 9.35849
50 1 -1.1104 12.424 16.6021 12.3256
202 2 2.2208 2.47192 -4.55447 7.89509
173 1 -1.1104 4.10934 2.36489 6.65832
172 1 -1.1104 3.94367 -3.18265 6.45945
9080 2 2.2208 -0.296169 -1.84023 7.99252
203 2 2.2208 5.27199 -4.62912 10.7784
175 2 2.2208 5.4681 0.942669 10.8863
176 1 -1.1104 1.23144 -3.28259 12.1668
177 1 -1.1104 1.17821 2.42071 12.3115
180 1 -1.1104 1.07029 -3.26778 9.44464
181 1 -1.1104 1.26154 2.22761 9.35789
184 1 -1.1104 1.23659 -0.370655 12.108
186 2 2.2208 5.35515 -1.84262 7.90935
188 1 -1.1104 1.19138 -0.520522 9.35185
190 1 -1.1104 4.13847 -3.19871 12.2852
191 1 -1.1104 4.03498 2.35779 12.1282
192 2 2.2208 2.60209 0.935387 8.02938
193 1 -1.1104 3.74675 -3.26167 9.53421
194 1 -1.1104 3.83454 2.09909 9.62353
195 2 2.2208 2.62375 -1.8398 10.8908
197 1 -1.1104 3.93375 -0.68056 12.451
198 1 -1.1104 4.0109 -0.580368 9.55665
196 2 2.2208 2.59589 3.82051 10.8976
187 2 2.2208 5.38117 3.73796 7.96442
183 1 -1.1104 6.62072 2.48998 9.35778
179 1 -1.1104 6.82101 2.37101 12.1585
185 1 -1.1104 6.68649 -0.513288 12.2129
135 1 -1.1104 9.59719 13.7423 9.52907
352 2 2.2208 2.60118 -4.71057 13.6844
9079 2 2.2208 -0.159379 3.74422 8.16731
449 2 2.2208 8.22058 6.64007 13.6861
8992 2 2.2208 -0.176115 6.58809 10.7286
386 2 2.2208 8.27985 0.931871 13.5659
232 2 2.2208 11.017 -4.62575 10.8837
210 1 -1.1104 9.59465 -0.471524 6.57861
207 1 -1.1104 12.3265 -0.533166 6.58484
171 1 -1.1104 6.78918 -0.573284 6.57243
206 1 -1.1104 12.6559 2.57222 6.5799
9024 2 2.2208 13.5971 20.6874 10.8931
178 1 -1.1104 6.71645 -3.16269 12.1477
9082 2 2.2208 -0.268909 15.0801 8.05826
209 1 -1.1104 9.80585 2.47302 6.56457
81 2 2.2208 10.8956 20.6768 8.11606
189 1 -1.1104 6.85854 -0.469973 9.41281
182 1 -1.1104 6.70059 -3.44675 9.28065
211 2 2.2208 10.9891 1.0647 10.7287
212 1 -1.1104 12.3812 -3.08422 12.083
213 1 -1.1104 12.3695 2.42715 12.0409
214 1 -1.1104 12.4089 -3.28191 9.3396
215 1 -1.1104 12.2257 2.59258 9.27714
216 1 -1.1104 12.3434 -0.384372 12.151
217 2 2.2208 10.9856 -1.802 7.94503
219 1 -1.1104 12.228 -0.316617 9.42622
220 1 -1.1104 9.39346 -3.30657 12.0919
221 1 -1.1104 9.64539 2.33646 12.2656
222 2 2.2208 8.09127 0.944175 8.03229
223 1 -1.1104 9.58729 -3.37887 9.34102
224 1 -1.1104 9.37631 2.33979 9.36191
225 2 2.2208 8.08508 -1.9501 10.6863
227 1 -1.1104 9.47387 -0.472998 12.1594
228 1 -1.1104 9.46462 -0.682858 9.30014
226 2 2.2208 8.06356 3.8934 10.6524
218 2 2.2208 11.1273 3.95684 7.83783
9070 2 2.2208 -0.202964 6.55208 5.13219
297 1 -1.1104 6.83857 13.543 12.3422
200 1 -1.1104 9.52821 16.6445 9.42714
289 1 -1.1104 6.60637 16.4422 9.52533
238 1 -1.1104 3.81577 7.91887 6.57366
236 1 -1.1104 1.18535 5.17836 6.40961
149 1 -1.1104 12.3271 16.2532 6.50103
8984 2 2.2208 -0.300709 12.1565 10.7288
234 1 -1.1104 1.05746 7.99168 6.4918
239 1 -1.1104 3.8874 5.16122 6.68449
240 2 2.2208 5.43593 6.66078 10.7622
241 2 2.2208 5.27083 12.2302 10.7515
242 1 -1.1104 1.35028 7.99262 12.0824
244 1 -1.1104 1.09259 7.84196 9.31637
246 1 -1.1104 1.14035 5.15053 12.2767
247 1 -1.1104 0.972399 10.7304 12.0207
250 2 2.2208 5.3087 9.2983 8.03203
251 1 -1.1104 1.20735 5.07109 9.46428
252 1 -1.1104 1.09898 10.7123 9.41132
255 1 -1.1104 4.10963 7.99308 12.1369
256 2 2.2208 2.51595 6.52185 7.9289
257 2 2.2208 2.43197 12.1932 8.23891
258 1 -1.1104 3.94066 7.89896 9.39022
259 2 2.2208 2.52138 9.50284 10.7631
260 1 -1.1104 4.14058 5.21964 12.2568
261 1 -1.1104 3.85915 10.8264 12.386
262 1 -1.1104 4.04862 5.09468 9.55528
263 1 -1.1104 3.98623 10.9198 9.6032
253 1 -1.1104 6.6821 5.38215 9.36135
9062 2 2.2208 13.6466 15.2024 10.9329
387 2 2.2208 10.8596 -1.82445 13.6025
105 2 2.2208 8.04957 17.8685 8.07147
9065 2 2.2208 -0.163949 3.9101 2.40164
237 1 -1.1104 6.64109 5.08452 6.623
101 1 -1.1104 9.4383 10.7515 6.81722
266 1 -1.1104 12.4747 5.37894 6.4024
267 1 -1.1104 9.66667 8.05396 6.50821
290 1 -1.1104 6.76149 13.6168 9.5922
248 1 -1.1104 6.88791 5.09657 12.2072
254 1 -1.1104 6.6466 10.7876 9.37159
249 1 -1.1104 6.49502 10.6044 12.079
265 1 -1.1104 12.5485 8.09386 6.44906
245 1 -1.1104 6.7681 8.04769 9.39277
243 1 -1.1104 7.00906 7.83251 12.1135
264 1 -1.1104 9.32578 10.7255 9.37332
268 1 -1.1104 9.61894 5.24879 9.14214
270 1 -1.1104 9.57659 10.781 12.0715
271 1 -1.1104 9.56558 5.02403 12.0199
272 2 2.2208 8.10659 9.45974 10.7196
273 1 -1.1104 9.66093 8.05448 9.40709
274 2 2.2208 8.06099 12.1606 8.06973
275 2 2.2208 8.1313 6.62406 7.86753
276 2 2.2208 10.8194 6.51222 10.585
277 2 2.2208 10.8443 12.2724 10.7296
278 1 -1.1104 12.2757 8.04872 12.1876
279 1 -1.1104 12.5116 8.09422 9.44202
280 1 -1.1104 12.3097 5.42245 12.1506
281 1 -1.1104 12.5081 10.9386 12.1271
282 2 2.2208 11.0253 9.26764 8.1093
283 1 -1.1104 12.4543 5.39154 9.24504
284 1 -1.1104 12.1417 10.8232 9.27424
285 1 -1.1104 9.81513 7.77877 12.3069
30 1 -1.1104 12.297 13.5326 9.47534
104 1 -1.1104 9.47731 19.282 12.4097
9064 2 2.2208 -0.150263 0.929292 5.18966
302 1 -1.1104 1.15362 19.3492 6.62263
137 2 2.2208 8.16634 15.1568 10.7847
136 1 -1.1104 9.69525 19.2294 9.6257
9083 2 2.2208 -0.414581 17.7994 10.8308
201 2 2.2208 2.61581 14.956 11.0091
204 2 2.2208 2.503 20.7679 10.8589
229 1 -1.1104 3.84631 16.3162 12.2184
230 1 -1.1104 1.03796 16.2223 12.3257
286 1 -1.1104 3.80115 19.2857 12.1342
287 1 -1.1104 3.92743 13.562 12.2627
291 1 -1.1104 1.14722 19.1926 9.44299
292 1 -1.1104 1.23595 16.4499 9.43631
293 2 2.2208 5.30704 20.7549 8.05498
294 1 -1.1104 1.22679 13.6243 9.47714
295 2 2.2208 5.25039 14.9946 8.1592
298 1 -1.1104 0.958409 19.1461 11.9932
299 1 -1.1104 1.09765 13.5503 12.1548
300 2 2.2208 5.36197 17.7639 10.8483
301 1 -1.1104 4.00144 19.2693 9.48654
303 2 2.2208 2.56212 17.8502 8.13485
304 1 -1.1104 3.99675 16.426 9.38918
305 1 -1.1104 4.07936 13.5365 9.45912
8991 2 2.2208 -0.443537 9.32084 7.80317
233 1 -1.1104 6.79102 16.5142 12.2239
9081 2 2.2208 -0.131682 1.04524 10.884
165 2 2.2208 8.1144 20.697 10.8633
199 1 -1.1104 9.67226 16.4257 12.2029
26 1 -1.1104 12.4314 13.7674 12.2905
487 2 2.2208 5.45763 15.0172 13.5972
9086 2 2.2208 13.6262 1.12565 7.90715
450 2 2.2208 10.8611 9.37144 13.4693
422 2 2.2208 2.46298 6.60428 13.7109
540 2 2.2208 5.42938 0.980611 -0.368585
388 2 2.2208 10.9604 3.84689 13.4752
354 2 2.2208 2.70011 1.0206 13.6776
310 2 2.2208 10.8007 20.4885 13.7856
572 2 2.2208 8.30615 3.88019 -0.547311
542 2 2.2208 2.54513 3.79996 -0.383416
307 2 2.2208 8.10181 20.7373 -0.386285
631 2 2.2208 8.13988 9.44967 -0.29312
9171 2 2.2208 -0.349631 3.78559 13.6679
9312 2 2.2208 -0.354897 15.0291 13.5752
9269 2 2.2208 13.7925 9.52235 -0.408076
309 2 2.2208 5.21641 20.6483 13.5862
9476 2 2.2208 -0.0460332 -1.79672 13.4971
308 2 2.2208 2.33477 17.7959 13.5832
633 2 2.2208 5.24884 17.8447 -0.255472
313 2 2.2208 5.46023 0.891423 16.544
314 1 -1.1104 1.16879 -3.24892 17.6019
315 1 -1.1104 1.36316 2.29495 17.7118
318 1 -1.1104 1.27223 -3.13853 14.996
320 1 -1.1104 1.05117 2.45531 15.0829
326 1 -1.1104 1.27924 -0.372564 17.728
328 2 2.2208 5.51584 -2.00525 19.3085
330 1 -1.1104 1.27221 -0.202343 14.8079
334 1 -1.1104 4.22757 -3.37652 17.9465
335 1 -1.1104 4.23734 2.31579 17.8368
336 2 2.2208 2.51576 0.835021 19.2616
337 1 -1.1104 4.17793 -3.21818 15.2593
339 1 -1.1104 4.18533 2.47319 15.1596
341 2 2.2208 2.65661 -1.74391 16.3726
343 1 -1.1104 4.08495 -0.584981 17.8417
344 1 -1.1104 4.09068 -0.354596 15.2093
329 2 2.2208 5.19185 3.85375 19.2193
342 2 2.2208 2.52369 3.75627 16.3455
340 1 -1.1104 3.78455 2.53588 20.5656
331 1 -1.1104 1.18594 -0.397063 20.5616
321 1 -1.1104 1.12784 2.21935 20.5905
345 1 -1.1104 4.1023 -0.4911 20.6555
9474 2 2.2208 -0.223529 0.961525 16.3091
324 1 -1.1104 6.86079 2.30766 14.7912
322 1 -1.1104 6.89684 -3.35328 15.0447
327 1 -1.1104 6.93765 -0.468181 17.8627
325 1 -1.1104 6.74114 2.37247 20.7594
9311 2 2.2208 -0.199941 17.8883 16.5657
9468 2 2.2208 -0.0898447 -4.51592 16.4852
338 1 -1.1104 4.09799 -3.24337 20.7871
9469 2 2.2208 13.6661 15.0546 21.9303
348 2 2.2208 2.54627 -4.55243 19.3671
9475 2 2.2208 -0.142729 -1.75729 19.2577
381 2 2.2208 11.0309 -4.66329 16.3201
332 1 -1.1104 6.75578 -0.627321 15.0067
323 1 -1.1104 6.78156 -3.45549 20.7637
317 1 -1.1104 6.90815 2.41133 17.7664
316 1 -1.1104 6.95046 -3.29951 17.9034
356 2 2.2208 11.2344 0.977909 16.4245
357 1 -1.1104 12.6019 -3.29946 17.7429
358 1 -1.1104 12.3982 2.29429 17.7945
359 1 -1.1104 12.4501 -3.36335 14.8113
361 1 -1.1104 12.5055 2.41348 14.7307
363 1 -1.1104 12.4748 -0.457344 18.0127
364 2 2.2208 11.0666 -1.92726 19.33
366 1 -1.1104 12.2127 -0.520018 15.0373
368 1 -1.1104 9.75867 -3.37513 17.7532
369 1 -1.1104 9.62074 2.10469 17.7913
370 2 2.2208 8.31975 0.97729 19.2178
371 1 -1.1104 9.6564 -3.21734 14.8659
373 1 -1.1104 9.76884 2.41565 15.1341
375 2 2.2208 8.27253 -1.71316 16.5058
377 1 -1.1104 9.70927 -0.597714 17.9533
378 1 -1.1104 9.47803 -0.384503 15.1392
376 2 2.2208 8.32139 3.75907 16.2469
365 2 2.2208 10.9767 3.73542 19.1679
379 1 -1.1104 9.53663 -0.505936 20.4937
367 1 -1.1104 12.3482 -0.326728 20.7481
372 1 -1.1104 9.49388 -3.11936 20.6645
374 1 -1.1104 9.58785 2.43613 20.519
360 1 -1.1104 12.4995 -3.25785 20.5246
9275 2 2.2208 -0.114024 15.2248 24.8118
382 2 2.2208 8.35557 -4.79283 19.122
9309 2 2.2208 -0.281006 20.6428 19.3684
579 1 -1.1104 9.62913 19.1891 26.409
389 2 2.2208 5.2569 6.52397 16.4335
390 2 2.2208 5.31886 12.2074 16.4055
391 1 -1.1104 1.24124 7.94281 17.772
393 1 -1.1104 1.16824 8.17783 14.9688
397 1 -1.1104 0.994794 5.21848 17.6635
398 1 -1.1104 1.12485 10.8358 17.7216
401 2 2.2208 5.32664 9.35254 19.2284
402 1 -1.1104 0.965813 5.23151 14.9112
404 1 -1.1104 1.13646 10.8176 14.8813
410 1 -1.1104 3.85646 7.92967 17.8563
411 2 2.2208 2.41456 6.51532 19.2574
412 2 2.2208 2.58059 12.1614 19.1345
413 1 -1.1104 3.95392 8.00565 15.0265
415 2 2.2208 2.55886 9.46639 16.4373
416 1 -1.1104 3.85972 5.12957 17.8126
417 1 -1.1104 3.94489 10.7501 17.6722
418 1 -1.1104 3.86077 5.12876 14.9298
420 1 -1.1104 3.89185 10.7047 15.1005
414 1 -1.1104 3.89544 8.04462 20.7925
419 1 -1.1104 3.8384 5.28103 20.7575
406 1 -1.1104 6.96385 5.21266 15.1105
400 1 -1.1104 6.78641 10.7851 17.7935
403 1 -1.1104 1.03381 5.08885 20.7497
9467 2 2.2208 -0.26354 17.9157 22.1003
9493 2 2.2208 -0.453741 9.57666 24.7508
9240 2 2.2208 -0.317546 6.63521 16.3895
408 1 -1.1104 6.78863 10.8063 14.8694
395 1 -1.1104 6.91089 8.26062 15.0154
392 1 -1.1104 6.69386 7.97524 17.8361
399 1 -1.1104 6.70418 5.23806 17.7461
425 2 2.2208 11.0331 6.67211 16.4606
426 2 2.2208 10.9953 12.12 16.5703
427 1 -1.1104 12.339 7.83167 17.9009
428 1 -1.1104 12.381 8.13522 15.0881
430 1 -1.1104 12.4797 4.90333 17.9283
431 1 -1.1104 12.4498 10.7105 17.9205
432 2 2.2208 11.028 9.46706 19.2477
433 1 -1.1104 12.5276 5.38105 14.9793
435 1 -1.1104 12.5975 10.6737 14.9803
437 1 -1.1104 9.60451 8.12552 17.6984
438 2 2.2208 8.11801 6.59154 19.2002
439 2 2.2208 8.13758 12.1291 19.1602
440 1 -1.1104 9.68106 7.9445 15.0143
442 2 2.2208 8.32816 9.46395 16.4512
443 1 -1.1104 9.60072 5.06193 17.5978
444 1 -1.1104 9.60556 10.7525 17.948
445 1 -1.1104 9.7304 5.13295 14.9374
447 1 -1.1104 9.59586 10.9117 15.0385
407 1 -1.1104 6.67835 5.14343 20.5455
429 1 -1.1104 12.4162 8.10055 20.6188
446 1 -1.1104 9.57981 5.21886 20.4802
396 1 -1.1104 6.89714 7.96205 20.6064
436 1 -1.1104 12.3904 10.9802 20.7234
452 2 2.2208 5.41432 17.8618 16.4903
453 1 -1.1104 1.05146 13.5021 17.7831
454 1 -1.1104 1.31233 19.3185 17.7695
457 1 -1.1104 1.18283 13.7003 15.0776
459 1 -1.1104 1.1331 19.4107 15.0079
465 1 -1.1104 1.03142 16.502 17.8328
467 2 2.2208 5.36273 15.0548 19.2681
468 2 2.2208 5.39285 20.7365 19.2981
469 1 -1.1104 1.13656 16.4119 15.0389
473 1 -1.1104 3.99266 13.6832 17.8973
474 1 -1.1104 3.97176 19.4713 17.8111
475 2 2.2208 2.51079 17.9433 19.2611
476 1 -1.1104 3.95382 13.6856 15.0428
478 1 -1.1104 3.8144 19.2715 14.953
480 2 2.2208 2.54551 15.222 16.3893
481 2 2.2208 2.49325 20.7835 16.4401
482 1 -1.1104 3.89932 16.6235 17.785
483 1 -1.1104 4.05759 16.4374 15.0451
458 1 -1.1104 1.00093 13.4228 20.5721
484 1 -1.1104 3.94571 16.3876 20.6318
477 1 -1.1104 4.11689 13.613 20.7405
479 1 -1.1104 3.78746 19.2904 20.6714
471 1 -1.1104 6.80733 16.3263 14.9632
9418 2 2.2208 -0.316809 6.6816 22.084
460 1 -1.1104 1.01306 19.1824 20.5028
9483 2 2.2208 -0.118507 0.899155 27.7768
456 1 -1.1104 6.63141 19.1679 18.0698
462 1 -1.1104 6.86562 13.5281 20.5999
466 1 -1.1104 6.73057 16.3236 17.7024
463 1 -1.1104 6.65281 19.2768 15.2011
461 1 -1.1104 6.69435 13.5678 14.9764
455 1 -1.1104 6.6802 13.5449 17.8939
488 2 2.2208 10.8321 17.8648 16.4842
489 1 -1.1104 12.4149 13.5941 17.8954
490 1 -1.1104 12.3043 19.223 17.9252
491 1 -1.1104 12.3167 13.4301 15.1821
493 1 -1.1104 12.3252 19.3902 15.1621
495 1 -1.1104 12.4333 16.4714 17.935
496 2 2.2208 10.886 15.2616 19.3262
497 2 2.2208 11.0738 20.7538 19.2556
498 1 -1.1104 12.3477 16.4594 15.051
500 1 -1.1104 9.59717 13.4151 17.8942
501 1 -1.1104 9.24407 19.2876 18.0448
502 2 2.2208 7.95713 17.8708 19.2658
503 1 -1.1104 9.5832 13.6409 15.236
505 1 -1.1104 9.4401 19.3546 15.1832
507 2 2.2208 8.18119 14.9532 16.5438
508 2 2.2208 8.0881 20.7141 16.5329
509 1 -1.1104 9.47218 16.2228 17.7896
510 1 -1.1104 9.60844 16.4782 14.8832
504 1 -1.1104 9.4879 13.7708 20.7734
511 1 -1.1104 9.37174 16.788 20.6995
492 1 -1.1104 12.4063 13.7913 20.5613
464 1 -1.1104 6.68661 19.3706 20.7745
472 1 -1.1104 6.73267 16.3215 20.6477
494 1 -1.1104 12.3406 19.3258 20.6686
9480 2 2.2208 -0.220449 12.2834 22.0654
319 1 -1.1104 1.1125 -3.18421 20.6224
333 1 -1.1104 6.72117 -0.296966 20.738
9481 2 2.2208 -0.227129 -4.64892 27.64
9239 2 2.2208 -0.194021 9.25708 19.0637
516 2 2.2208 5.50299 0.990992 21.9827
517 1 -1.1104 1.37208 -3.06872 23.3105
518 1 -1.1104 1.12514 2.1633 23.5641
521 1 -1.1104 1.1683 -3.2542 26.339
522 1 -1.1104 1.14096 2.45427 26.3793
525 1 -1.1104 1.15106 -0.369853 23.3501
527 2 2.2208 5.35991 -1.78836 25.007
529 1 -1.1104 1.18332 -0.371787 26.2204
531 1 -1.1104 4.04613 -2.98589 23.6517
532 1 -1.1104 4.15004 2.44124 23.53
533 2 2.2208 2.53374 1.10268 24.9026
534 1 -1.1104 3.9559 -3.44305 26.4343
535 1 -1.1104 3.96675 2.36407 26.2841
536 2 2.2208 2.7625 -1.76434 22.1657
538 1 -1.1104 4.00733 -0.352131 23.4024
539 1 -1.1104 3.91094 -0.548621 26.209
528 2 2.2208 5.38446 3.74802 24.9923
537 2 2.2208 2.60912 3.75934 22.069
9205 2 2.2208 -0.20915 12.2863 16.4248
547 2 2.2208 2.66941 -4.55063 24.9213
9485 2 2.2208 -0.32825 0.930696 22.003
519 1 -1.1104 6.96771 -3.30602 23.5651
524 1 -1.1104 6.82478 2.37662 26.5066
306 2 2.2208 11.0152 17.7639 27.8296
9484 2 2.2208 -0.212028 -1.79628 24.7994
546 2 2.2208 5.48548 -4.60869 22.0567
9482 2 2.2208 -0.148581 -4.65947 22.2483
9310 2 2.2208 -0.310107 15.0357 19.1177
362 1 -1.1104 12.4787 2.54484 20.6424
520 1 -1.1104 6.88085 2.50252 23.5737
549 1 -1.1104 12.0947 16.3831 26.3965
608 2 2.2208 8.13018 20.6753 22.1717
530 1 -1.1104 6.78267 -0.453035 26.3124
526 1 -1.1104 6.83477 -0.365382 23.5504
523 1 -1.1104 6.73966 -3.16828 26.2775
552 2 2.2208 10.915 0.959078 22.1163
553 1 -1.1104 12.4148 -3.24572 23.4719
554 1 -1.1104 12.442 2.51075 23.3355
555 1 -1.1104 12.5793 -3.37695 26.1822
556 1 -1.1104 12.4515 2.24045 26.2431
557 1 -1.1104 12.4788 -0.430568 23.4182
558 2 2.2208 11.1392 -1.80383 24.7823
560 1 -1.1104 12.4831 -0.450084 26.182
561 1 -1.1104 9.55433 -3.2789 23.4056
562 1 -1.1104 9.56703 2.30012 23.4152
563 2 2.2208 8.20204 0.962836 24.8622
564 1 -1.1104 9.58069 -3.09191 26.086
565 1 -1.1104 9.68847 2.38901 26.1955
566 2 2.2208 7.99979 -1.82304 22.0821
568 1 -1.1104 9.61295 -0.361317 23.3615
569 1 -1.1104 9.7681 -0.389825 26.1295
567 2 2.2208 8.16631 3.8521 21.9939
559 2 2.2208 10.9516 3.74176 24.8007
576 2 2.2208 8.15843 -4.63801 24.825
575 2 2.2208 10.928 -4.63222 21.9554
551 1 -1.1104 9.73471 19.2517 23.6809
550 1 -1.1104 9.90033 13.5638 23.372
384 1 -1.1104 12.328 19.1266 23.5082
351 2 2.2208 10.8642 17.9961 22.1185
405 1 -1.1104 1.21546 10.631 20.4659
421 1 -1.1104 4.1099 10.7898 20.6268
394 1 -1.1104 1.16628 7.85148 20.4917
9313 2 2.2208 -0.338544 17.8646 27.6046
581 2 2.2208 5.26604 6.69961 22.0178
582 2 2.2208 5.51149 12.2325 22.0848
583 1 -1.1104 1.14495 8.0153 23.4442
585 1 -1.1104 1.1673 8.10012 26.2116
587 1 -1.1104 0.978934 5.31978 23.6391
588 1 -1.1104 1.06779 10.9427 23.3976
591 2 2.2208 5.41983 9.50765 24.8098
592 1 -1.1104 1.33075 5.30206 26.3718
593 1 -1.1104 0.934318 10.7485 26.3743
596 1 -1.1104 3.95965 8.11343 23.6779
597 2 2.2208 2.55416 6.65187 24.8615
598 2 2.2208 2.36768 12.2472 24.8046
599 1 -1.1104 3.9646 8.05985 26.3224
600 2 2.2208 2.51557 9.4215 22.1137
601 1 -1.1104 4.05279 5.32257 23.3132
602 1 -1.1104 3.91988 10.8516 23.411
603 1 -1.1104 4.05003 5.27595 26.3688
604 1 -1.1104 3.73933 11.0735 26.594
9167 2 2.2208 -0.206275 3.79422 19.2889
639 1 -1.1104 6.50857 16.6016 26.3638
574 2 2.2208 11.1601 -4.58352 27.682
448 1 -1.1104 9.65453 10.6725 20.8712
409 1 -1.1104 6.6557 10.7493 20.5647
584 1 -1.1104 6.90647 8.02044 23.3256
589 1 -1.1104 6.65011 5.22123 23.5016
586 1 -1.1104 6.78777 7.98238 26.2561
434 1 -1.1104 12.4719 5.2362 20.8241
441 1 -1.1104 9.68149 7.89621 20.5085
595 1 -1.1104 6.89748 10.9467 26.4525
590 1 -1.1104 6.81825 10.8746 23.6129
594 1 -1.1104 6.87709 5.20865 26.1314
612 1 -1.1104 9.57557 10.6843 26.2696
613 1 -1.1104 9.75134 5.15828 26.2149
614 1 -1.1104 9.56946 10.7288 23.4997
615 1 -1.1104 9.38479 5.07758 23.4325
616 2 2.2208 8.2374 9.36617 22.0918
617 1 -1.1104 9.61427 7.89949 26.1787
618 2 2.2208 8.24114 12.2946 24.9103
619 2 2.2208 8.09632 6.60228 24.7206
620 2 2.2208 11.0538 6.80782 22.1708
621 2 2.2208 10.9849 12.3228 21.9915
622 1 -1.1104 12.6362 8.22336 23.4921
623 1 -1.1104 12.5745 7.85886 26.3836
624 1 -1.1104 12.3113 5.50185 23.5671
625 1 -1.1104 12.365 10.8526 23.5177
626 2 2.2208 10.8606 9.4928 24.9235
627 1 -1.1104 12.4541 5.03041 26.252
628 1 -1.1104 12.3712 10.7359 26.1845
629 1 -1.1104 9.74675 7.86597 23.4924
548 2 2.2208 11.0115 20.6089 24.8876
573 2 2.2208 8.04415 17.7303 24.9039
470 1 -1.1104 1.25762 16.4524 20.6212
578 1 -1.1104 9.40718 13.7155 26.4334
580 2 2.2208 8.2294 14.9698 22.0107
577 1 -1.1104 6.84224 19.263 26.1866
349 2 2.2208 2.61147 20.5601 22.0747
350 1 -1.1104 3.90665 16.4718 23.4368
485 1 -1.1104 1.05887 16.4862 23.3639
512 1 -1.1104 4.04507 13.6773 26.2767
514 1 -1.1104 3.97547 16.5099 26.2624
634 2 2.2208 2.59942 17.9034 24.9753
635 2 2.2208 2.43366 14.9698 21.8174
636 1 -1.1104 3.94612 19.2064 23.3988
638 1 -1.1104 3.85812 13.6822 23.5647
640 1 -1.1104 1.14915 19.3272 26.2311
641 1 -1.1104 1.16364 16.5346 26.3382
642 1 -1.1104 1.16294 13.4641 26.3484
644 2 2.2208 5.50247 20.6379 24.9292
645 2 2.2208 5.26647 15.0409 24.9917
647 1 -1.1104 1.16432 19.2728 23.4254
648 1 -1.1104 1.21733 13.7709 23.3432
649 2 2.2208 5.21157 17.7161 22.0253
650 1 -1.1104 4.02763 19.4322 26.2736
486 1 -1.1104 6.68905 16.3173 23.5415
541 2 2.2208 2.5221 -1.73527 27.613
643 1 -1.1104 6.77356 19.1169 23.4323
506 1 -1.1104 9.59556 19.4788 20.7366
544 2 2.2208 11.0094 15.1526 24.8318
515 1 -1.1104 12.5699 19.1704 26.3869
385 1 -1.1104 12.3706 13.5636 26.3074
380 1 -1.1104 12.5789 13.6939 23.5437
609 1 -1.1104 9.62022 16.4527 23.293
499 1 -1.1104 12.3953 16.5596 20.74
543 1 -1.1104 12.414 16.4348 23.3594
646 1 -1.1104 6.82541 13.5541 23.4581
610 1 -1.1104 9.39129 16.2793 25.955
637 1 -1.1104 6.70209 13.7293 26.363
353 2 2.2208 5.33304 -1.80179 13.8217
9472 2 2.2208 -0.370813 6.6013 27.6346
9093 2 2.2208 -0.371452 20.6065 13.6326
632 2 2.2208 10.9244 12.2159 27.8037
605 2 2.2208 5.35999 6.6461 27.73
607 2 2.2208 5.42591 12.2863 27.7811
513 2 2.2208 10.9608 14.9848 13.5561
571 2 2.2208 8.29687 -1.85124 27.6931
346 2 2.2208 8.05812 15.1516 27.6095
630 2 2.2208 11.1003 6.49417 27.5573
606 2 2.2208 2.49347 9.44421 27.6798
9243 2 2.2208 -0.29837 9.49371 13.636
311 2 2.2208 8.17964 17.8909 13.8079
424 2 2.2208 2.5321 12.2891 13.8619
570 2 2.2208 10.9954 1.00022 27.611
545 2 2.2208 5.38811 -4.66156 27.5532
651 2 2.2208 5.178 23.5404 5.21746
652 2 2.2208 5.28896 28.9414 5.13377
653 1 -1.1104 0.830536 24.803 1.0969
654 1 -1.1104 1.00379 24.9505 3.87146
655 1 -1.1104 1.08676 22.023 0.876146
656 1 -1.1104 0.964984 27.7012 0.863558
657 2 2.2208 5.30874 26.3063 2.33919
658 1 -1.1104 1.05367 22.0311 3.87997
659 1 -1.1104 1.06695 27.7413 3.60868
660 1 -1.1104 3.77902 25.0031 1.08486
661 2 2.2208 2.44383 23.5288 2.49055
662 2 2.2208 2.53488 29.1307 2.30612
663 1 -1.1104 3.68011 24.9584 3.90822
664 2 2.2208 2.27592 26.3618 5.15615
665 1 -1.1104 3.78779 21.8639 0.951941
666 1 -1.1104 3.81471 27.8836 0.824396
667 1 -1.1104 3.76401 22.0062 3.64135
668 1 -1.1104 3.85735 27.6406 3.52856
794 1 -1.1104 1.11506 22.1415 6.47256
800 1 -1.1104 3.62587 27.7204 6.39427
792 1 -1.1104 0.80454 24.9471 6.44914
675 1 -1.1104 6.66075 27.8305 1.11732
676 1 -1.1104 6.51785 21.9589 3.75951
674 1 -1.1104 6.5381 21.9937 0.831147
793 1 -1.1104 6.61921 24.9059 6.53964
799 1 -1.1104 3.93612 22.2313 6.60002
971 2 2.2208 10.9353 43.0797 13.6601
9703 2 2.2208 13.6484 34.7987 8.1518
669 2 2.2208 10.9164 40.4118 10.8139
677 1 -1.1104 6.8277 27.5693 3.86773
673 1 -1.1104 6.52446 24.824 3.63979
672 1 -1.1104 6.69351 24.9274 0.925571
678 2 2.2208 10.7731 23.6381 5.25629
679 2 2.2208 10.9356 29.06 5.3561
680 1 -1.1104 12.2712 25.1025 1.05819
681 1 -1.1104 12.3877 24.8146 3.80524
682 1 -1.1104 12.4419 22.0657 1.01044
683 1 -1.1104 11.9464 28.0299 1.29746
684 2 2.2208 11.0221 26.2886 2.5028
685 1 -1.1104 12.4779 22.089 3.66752
686 1 -1.1104 12.1654 27.6068 3.93687
687 1 -1.1104 9.49805 24.93 1.17062
688 2 2.2208 8.09303 23.3549 2.45752
689 2 2.2208 8.03705 29.0434 2.44035
690 1 -1.1104 9.47545 25.0237 3.98229
691 2 2.2208 8.08687 26.1602 5.29549
692 1 -1.1104 9.48469 21.9938 1.07669
693 1 -1.1104 9.30322 27.7154 1.08267
694 1 -1.1104 9.46778 22.2315 3.89174
695 1 -1.1104 9.60447 27.6631 3.78252
827 1 -1.1104 12.2611 27.9286 6.73498
828 1 -1.1104 9.48814 25.0449 6.69546
830 1 -1.1104 9.49314 27.7897 6.74574
829 1 -1.1104 9.58609 22.2945 6.83507
826 1 -1.1104 12.2305 22.0915 6.40744
796 1 -1.1104 6.6473 22.218 6.60115
790 1 -1.1104 12.2223 39.1285 9.40038
975 2 2.2208 11.0382 23.4223 -0.351231
946 1 -1.1104 9.47227 39.0763 12.21
9773 2 2.2208 13.7111 46.0753 7.91412
671 1 -1.1104 12.2245 41.6303 12.1721
699 2 2.2208 5.42769 34.6501 5.44124
700 1 -1.1104 1.148 30.8645 0.91333
701 1 -1.1104 1.06369 36.1501 1.12605
703 1 -1.1104 1.14183 30.4699 3.73374
704 1 -1.1104 1.00995 36.2147 3.94363
706 1 -1.1104 1.14534 33.5263 1.05146
707 2 2.2208 5.29682 32.0277 2.5193
708 2 2.2208 5.27262 37.5313 2.57926
709 1 -1.1104 1.09566 33.2749 3.86458
711 1 -1.1104 3.91696 30.5319 1.0518
712 1 -1.1104 3.79156 36.3565 1.17414
713 2 2.2208 2.51 34.7611 2.55832
714 1 -1.1104 3.86242 30.534 3.76704
715 1 -1.1104 3.87414 36.0049 3.89332
716 2 2.2208 2.48649 31.86 5.36075
717 2 2.2208 2.42852 37.6123 5.30134
718 1 -1.1104 3.81488 33.4276 1.05648
719 1 -1.1104 3.70892 33.2552 3.9242
850 1 -1.1104 0.908951 36.1497 6.74106
725 1 -1.1104 6.80326 33.2355 1.1043
710 1 -1.1104 6.66312 33.3294 4.00995
705 1 -1.1104 6.65181 36.063 3.91671
724 1 -1.1104 6.58203 30.4304 3.93746
851 1 -1.1104 6.60746 30.4822 6.69082
964 2 2.2208 10.9528 40.2799 -0.438673
9820 2 2.2208 -0.346327 40.2514 5.36579
941 2 2.2208 8.13276 45.9423 8.09263
940 2 2.2208 8.09683 40.407 8.11554
702 1 -1.1104 6.52193 36.1028 1.06875
723 1 -1.1104 6.61771 30.5555 1.01433