ITEM: TIMESTEP
10000
ITEM: NUMBER OF ATOMS
17910
ITEM: BOX BOUNDS pp pp pp
-4.0082908912419796e-01 2.7740829089124279e+01
-4.7404832356329907e+00 3.3282048323562987e+02
-3.9695368335045039e-01 2.7736953683350723e+01
ITEM: ATOMS id type q x y z
1 2 2.2208 5.09456 0.760222 5.17986
2 1 -1.1104 1.01177 -3.09412 1.06039
3 1 -1.1104 0.842741 2.38033 1.08146
6 1 -1.1104 0.60406 -3.71263 3.73364
7 1 -1.1104 0.9336 2.21354 3.83527
10 1 -1.1104 0.928212 -0.446131 0.958843
12 2 2.2208 5.21447 -1.96829 2.51306
13 2 2.2208 5.02532 3.65983 2.45227
14 1 -1.1104 0.867936 -0.718329 3.96232
16 1 -1.1104 3.8597 -3.45555 0.972943
17 1 -1.1104 3.6474 2.20387 1.0511
18 2 2.2208 2.2321 0.757026 2.32438
19 1 -1.1104 3.57751 -3.34353 3.86945
20 1 -1.1104 3.7182 2.19752 3.97783
21 2 2.2208 2.2748 -1.9608 5.35251
22 2 2.2208 2.33137 3.63727 5.31998
23 1 -1.1104 3.91029 -0.494159 1.13397
24 1 -1.1104 3.63977 -0.49218 3.82735
9 1 -1.1104 6.55686 2.24628 3.8958
15 1 -1.1104 6.50461 -0.687829 3.87158
5 1 -1.1104 6.46475 2.24081 1.15117
8897 2 2.2208 13.4563 3.81465 11.0161
168 1 -1.1104 6.4719 -3.44927 6.69796
8973 2 2.2208 13.568 6.1672 8.15977
52 2 2.2208 10.7541 -4.90754 5.25768
172 1 -1.1104 3.64841 -3.40569 6.64768
8839 2 2.2208 13.4489 20.5108 5.25938
8762 2 2.2208 13.4508 3.57362 5.26753
8 1 -1.1104 6.35101 -3.44181 4.05032
4 1 -1.1104 6.53944 -3.55518 1.18188
11 1 -1.1104 6.55665 -0.682189 1.0326
31 2 2.2208 10.5017 0.73497 5.1868
32 1 -1.1104 12.278 -3.46687 0.986232
33 1 -1.1104 12.2201 2.17739 1.14516
34 1 -1.1104 12.0291 -3.33186 3.79004
35 1 -1.1104 12.0088 2.21446 3.94521
36 1 -1.1104 12.1023 -0.728599 0.948998
37 2 2.2208 10.7886 -2.08046 2.32196
38 2 2.2208 10.7267 3.58908 2.49498
39 1 -1.1104 12.0047 -0.648018 3.83101
40 1 -1.1104 9.38082 -3.32893 0.834613
41 1 -1.1104 9.49015 2.12966 1.23498
42 2 2.2208 7.88778 0.8295 2.45458
43 1 -1.1104 9.25021 -3.40448 4.02647
44 1 -1.1104 9.20616 2.21714 3.89627
45 2 2.2208 7.96601 -2.09565 5.26466
46 2 2.2208 7.96598 3.62315 5.32047
47 1 -1.1104 9.16842 -0.447433 1.11153
48 1 -1.1104 9.24046 -0.695389 3.6484
9071 2 2.2208 -0.391897 9.14981 2.41702
9086 2 2.2208 13.5721 0.899019 8.00217
9088 2 2.2208 13.6732 -4.72126 8.10406
154 1 -1.1104 9.2935 13.6268 6.56301
9471 2 2.2208 13.6429 14.9919 -0.313165
9078 2 2.2208 13.5496 17.7742 2.59021
571 2 2.2208 7.88575 -2.1823 -0.429807
9488 2 2.2208 13.6468 -2.03514 -0.490648
54 2 2.2208 5.05305 6.42113 5.4013
55 2 2.2208 5.29944 12.053 5.28465
56 1 -1.1104 1.17296 7.89702 1.10538
58 1 -1.1104 0.715768 7.81363 3.89203
60 1 -1.1104 0.991353 5.14067 1.18556
61 1 -1.1104 1.14382 10.7715 1.23484
66 2 2.2208 5.36458 9.38757 2.44056
67 1 -1.1104 0.812337 4.86154 3.91887
68 1 -1.1104 1.0465 10.5896 4.09912
71 1 -1.1104 3.74483 7.94735 1.17917
72 2 2.2208 2.1909 6.42729 2.59968
73 2 2.2208 2.4695 12.1419 2.60541
74 1 -1.1104 3.77741 7.75504 4.09192
75 2 2.2208 2.35994 9.18867 5.31172
76 1 -1.1104 3.72263 5.00349 1.0861
77 1 -1.1104 3.9234 10.8217 1.09675
79 1 -1.1104 3.69366 4.90124 4.00511
80 1 -1.1104 3.87018 10.6513 3.84664
64 1 -1.1104 6.64303 10.6394 1.09572
63 1 -1.1104 6.5689 4.90434 1.26278
8860 2 2.2208 13.5623 14.8395 5.33202
28 2 2.2208 2.11708 -4.67154 2.461
232 2 2.2208 10.6834 -4.6522 10.9837
57 1 -1.1104 6.4844 7.7427 1.0771
69 1 -1.1104 6.45105 5.07701 4.01827
235 1 -1.1104 6.51156 7.7961 6.62313
312 2 2.2208 2.32594 20.4422 -0.250343
9087 2 2.2208 13.5712 -1.96913 10.9712
59 1 -1.1104 6.51584 7.8341 3.91766
70 1 -1.1104 6.77166 10.7789 3.85322
84 2 2.2208 10.5969 6.37249 5.24865
85 2 2.2208 10.8118 12.0469 5.26393
86 1 -1.1104 12.16 7.84184 0.935439
87 1 -1.1104 12.1825 7.68261 3.87759
88 1 -1.1104 12.1646 5.0533 0.939174
89 1 -1.1104 12.2257 10.3939 0.951985
91 2 2.2208 10.7255 9.18323 2.3628
92 1 -1.1104 12.2072 5.0446 3.78549
93 1 -1.1104 12.2907 10.5535 3.70309
94 1 -1.1104 9.36257 7.7543 1.05839
95 2 2.2208 7.99897 6.35691 2.35205
96 2 2.2208 7.99665 12.0623 2.50186
97 1 -1.1104 9.48426 7.68791 3.72772
98 2 2.2208 7.94159 9.21497 5.19836
99 1 -1.1104 9.30802 4.96635 1.19244
100 1 -1.1104 9.30454 10.6214 0.979141
102 1 -1.1104 9.38101 4.83929 3.88698
103 1 -1.1104 9.42168 10.6456 3.59803
9024 2 2.2208 13.591 20.4398 10.9916
90 1 -1.1104 12.2105 10.4666 6.37421
267 1 -1.1104 9.28466 7.89913 6.53087
106 2 2.2208 5.23794 17.7446 5.24737
107 1 -1.1104 0.862562 13.445 1.21512
109 1 -1.1104 0.711343 19.1661 0.997634
113 1 -1.1104 0.912353 13.6276 3.92347
114 1 -1.1104 0.76801 19.1912 3.89139
116 1 -1.1104 0.908274 16.3308 1.03425
119 2 2.2208 5.09853 14.8723 2.54459
120 2 2.2208 5.19245 20.4851 2.50024
121 1 -1.1104 0.952989 16.3926 3.98411
123 1 -1.1104 3.73015 13.4969 1.04269
125 1 -1.1104 3.54759 19.1005 1.02592
127 2 2.2208 2.41987 17.6659 2.43602
128 1 -1.1104 3.72876 13.4895 3.86801
129 1 -1.1104 3.62544 18.9161 3.77327
130 2 2.2208 2.32879 14.9945 5.25391
131 2 2.2208 2.31438 20.6628 5.44245
132 1 -1.1104 3.6896 16.1627 1.1059
134 1 -1.1104 3.74862 16.1992 3.89353
117 1 -1.1104 0.991867 16.31 6.71829
138 1 -1.1104 6.14277 19.0249 1.17967
9077 2 2.2208 -0.384589 17.7746 5.23496
302 1 -1.1104 1.21436 19.0837 6.73815
307 2 2.2208 7.97312 20.6775 -0.416024
9063 2 2.2208 13.4865 17.5699 8.24412
115 1 -1.1104 6.39666 13.7024 3.90198
140 1 -1.1104 6.66461 16.1497 0.887567
139 1 -1.1104 6.6041 19.2854 3.9937
110 1 -1.1104 6.48446 13.4217 1.18489
122 1 -1.1104 6.31245 16.483 3.729
141 2 2.2208 10.6392 17.7536 5.27534
142 1 -1.1104 12.0654 13.5418 1.11669
144 1 -1.1104 12.0211 19.1397 1.0957
146 1 -1.1104 12.1419 13.3634 3.77138
147 1 -1.1104 12.1851 19.0909 3.90416
148 1 -1.1104 12.3512 16.3351 1.15445
150 2 2.2208 10.8581 14.7955 2.40766
151 2 2.2208 10.6571 20.5643 2.40978
152 1 -1.1104 12.0749 16.1226 3.87289
153 1 -1.1104 9.23171 13.4378 1.01497
155 1 -1.1104 9.12297 19.2299 1.07737
157 2 2.2208 7.87553 17.7871 2.35205
158 1 -1.1104 9.31378 13.5468 3.88849
159 1 -1.1104 9.34507 19.3839 3.73832
160 2 2.2208 7.87759 15.0223 5.20945
161 2 2.2208 7.99166 20.6049 5.41601
162 1 -1.1104 9.47955 16.3242 1.21345
164 1 -1.1104 9.18605 16.5667 3.90141
145 1 -1.1104 12.1334 19.0737 6.78936
118 1 -1.1104 6.58613 16.4932 6.63732
355 2 2.2208 5.12155 3.55633 13.584
156 1 -1.1104 9.30575 19.22 6.67639
9067 2 2.2208 13.4901 0.732834 2.44254
25 2 2.2208 10.7081 17.6796 10.937
166 1 -1.1104 0.925478 -3.4208 6.62349
173 1 -1.1104 3.83104 2.20605 6.65672
167 1 -1.1104 0.81232 2.2414 6.84245
174 1 -1.1104 3.69086 -0.660327 6.65131
170 1 -1.1104 0.736675 -0.474225 6.62957
175 2 2.2208 5.10911 0.619816 10.8446
176 1 -1.1104 0.888736 -3.19526 12.3674
177 1 -1.1104 0.915666 2.23651 12.5447
180 1 -1.1104 0.902184 -3.20656 9.29226
181 1 -1.1104 0.991294 2.16053 9.64783
184 1 -1.1104 0.980916 -0.435946 12.2583
186 2 2.2208 5.2014 -2.17799 8.07537
187 2 2.2208 5.16966 3.50382 8.10198
188 1 -1.1104 0.771185 -0.592068 9.4396
190 1 -1.1104 3.64142 -3.66159 12.3639
191 1 -1.1104 3.7985 2.1189 12.262
192 2 2.2208 2.21906 0.821175 8.11471
193 1 -1.1104 3.65575 -3.4644 9.45221
194 1 -1.1104 3.64231 2.09788 9.52464
195 2 2.2208 2.27787 -1.97528 10.9685
196 2 2.2208 2.29766 3.58677 10.8319
197 1 -1.1104 3.68162 -0.699177 12.2109
198 1 -1.1104 3.78272 -0.821731 9.54563
178 1 -1.1104 6.66043 -3.57471 12.1014
182 1 -1.1104 6.48502 -3.56304 9.35721
169 1 -1.1104 6.63851 2.16574 6.73142
185 1 -1.1104 6.72835 -0.521669 12.1778
183 1 -1.1104 6.42061 2.06561 9.56047
9062 2 2.2208 13.5653 14.7669 10.721
206 1 -1.1104 12.1006 2.17721 6.85106
8791 2 2.2208 13.6577 9.18138 5.29403
8974 2 2.2208 13.6488 12.067 7.98465
171 1 -1.1104 6.52389 -0.705043 6.59415
210 1 -1.1104 9.38143 -0.823574 6.56204
179 1 -1.1104 6.43216 2.15257 12.2997
207 1 -1.1104 12.0844 -0.700408 6.66826
209 1 -1.1104 9.20293 2.12671 6.55195
205 1 -1.1104 12.1183 -3.43885 6.62868
208 1 -1.1104 9.22239 -3.64133 6.67013
189 1 -1.1104 6.39133 -0.593898 9.399
211 2 2.2208 10.6971 0.704395 10.8438
212 1 -1.1104 12.2058 -3.23841 12.5128
213 1 -1.1104 12.1879 2.26314 12.405
214 1 -1.1104 12.1553 -3.48345 9.44446
215 1 -1.1104 12.0599 2.30839 9.61931
216 1 -1.1104 12.2858 -0.390552 12.2662
217 2 2.2208 10.7502 -2.09424 8.05909
218 2 2.2208 10.57 3.58372 8.14961
219 1 -1.1104 11.9628 -0.8073 9.5024
220 1 -1.1104 9.35507 -3.38063 12.3187
221 1 -1.1104 9.31927 2.12348 12.0509
222 2 2.2208 8.01767 0.611233 7.95129
223 1 -1.1104 9.35291 -3.51514 9.51564
224 1 -1.1104 9.05157 2.21239 9.20664
225 2 2.2208 7.88901 -2.15967 10.8398
226 2 2.2208 7.86144 3.57716 10.7176
227 1 -1.1104 9.44365 -0.686121 12.2511
228 1 -1.1104 9.22685 -0.688291 9.54315
62 1 -1.1104 1.27702 10.7957 6.76395
239 1 -1.1104 3.51565 5.03401 6.87477
78 1 -1.1104 3.96615 10.5864 6.48037
237 1 -1.1104 6.35023 5.01784 6.6024
234 1 -1.1104 0.719314 7.74276 6.753
236 1 -1.1104 0.819398 5.00094 6.75607
238 1 -1.1104 3.74813 7.71379 6.72599
240 2 2.2208 5.29683 6.33802 10.7704
241 2 2.2208 5.0702 12.1002 10.943
242 1 -1.1104 0.79804 7.94632 12.1899
244 1 -1.1104 0.839399 7.84672 9.46157
246 1 -1.1104 0.918072 4.98515 12.2037
247 1 -1.1104 1.00101 10.674 12.4207
250 2 2.2208 5.15809 9.36115 8.08834
251 1 -1.1104 0.823336 5.09143 9.5117
252 1 -1.1104 0.936886 10.601 9.52908
255 1 -1.1104 3.58202 7.97734 12.3411
256 2 2.2208 2.3739 6.48671 8.2623
257 2 2.2208 2.30216 12.1652 8.10807
258 1 -1.1104 3.66954 7.88818 9.53698
259 2 2.2208 2.21428 9.22998 10.9486
260 1 -1.1104 3.93293 5.12018 12.2144
261 1 -1.1104 3.5307 10.6955 12.1579
262 1 -1.1104 3.83617 4.88359 9.49641
263 1 -1.1104 3.67567 10.6017 9.44339
245 1 -1.1104 6.41384 7.79093 9.53454
65 1 -1.1104 6.69288 10.8036 6.59631
254 1 -1.1104 6.67746 10.8207 9.40655
249 1 -1.1104 6.45087 10.7156 12.3665
248 1 -1.1104 6.51819 5.07934 12.2935
149 1 -1.1104 12.1271 16.0971 6.60355
243 1 -1.1104 6.38381 8.01845 12.3671
253 1 -1.1104 6.5634 5.03088 9.35758
266 1 -1.1104 11.9788 4.74107 6.87773
269 1 -1.1104 9.2084 5.08021 6.55986
265 1 -1.1104 12.0181 7.6808 6.64831
101 1 -1.1104 9.27051 10.7097 6.53394
264 1 -1.1104 9.54447 10.5301 9.36952
268 1 -1.1104 8.96769 5.07384 9.32898
270 1 -1.1104 9.35571 10.785 12.3581
271 1 -1.1104 9.24267 5.04815 12.2144
272 2 2.2208 7.84199 9.30084 10.8957
273 1 -1.1104 9.15788 7.88888 9.45196
274 2 2.2208 8.01622 12.0585 7.94246
275 2 2.2208 7.82723 6.50397 7.99578
276 2 2.2208 10.536 6.54621 10.828
277 2 2.2208 10.537 12.1714 10.8862
278 1 -1.1104 12.1605 7.83106 12.3203
279 1 -1.1104 12.1938 7.841 9.4661
280 1 -1.1104 12.0223 5.06001 12.2876
281 1 -1.1104 12.3157 10.6272 12.249
282 2 2.2208 10.7252 9.27333 7.96787
283 1 -1.1104 11.8952 4.98212 9.57112
284 1 -1.1104 12.2462 10.7941 9.40201
285 1 -1.1104 9.30323 7.9109 12.2975
126 1 -1.1104 3.95446 19.2687 6.73142
133 1 -1.1104 3.88811 16.2099 6.63502
111 1 -1.1104 6.52347 13.4754 6.59634
297 1 -1.1104 6.43366 13.4987 12.5425
108 1 -1.1104 0.832402 13.6136 6.61761
124 1 -1.1104 3.6471 13.632 6.797
288 1 -1.1104 6.54706 19.1944 9.63564
233 1 -1.1104 6.48674 16.2535 12.2759
289 1 -1.1104 6.45314 16.2936 9.49656
296 1 -1.1104 6.6507 19.1664 12.3054
201 2 2.2208 2.39349 15.0221 11.009
204 2 2.2208 2.36991 20.5062 10.9987
229 1 -1.1104 3.62323 16.4107 12.4333
230 1 -1.1104 0.85162 16.2932 12.4494
286 1 -1.1104 3.74766 19.2296 12.373
287 1 -1.1104 3.59682 13.5008 12.4131
291 1 -1.1104 0.959335 18.9338 9.52526
292 1 -1.1104 0.935655 16.2501 9.53878
293 2 2.2208 5.07621 20.5173 8.18417
294 1 -1.1104 0.895852 13.4237 9.42265
295 2 2.2208 5.17231 14.8873 8.13076
298 1 -1.1104 1.03504 19.2291 12.2915
299 1 -1.1104 0.717031 13.4801 11.9336
300 2 2.2208 5.10121 17.6864 10.9802
301 1 -1.1104 3.67872 18.9689 9.5169
303 2 2.2208 2.36936 17.6921 8.21887
304 1 -1.1104 3.75265 16.2747 9.57201
305 1 -1.1104 3.71116 13.4671 9.61005
9096 2 2.2208 13.4862 20.4987 -0.326442
9073 2 2.2208 13.5403 12.0088 2.31337
137 2 2.2208 7.84584 14.8357 11.0245
199 1 -1.1104 9.48673 16.4009 12.4152
49 1 -1.1104 12.2064 19.0812 9.62192
53 2 2.2208 10.8483 14.902 8.09449
27 1 -1.1104 12.1206 19.0887 12.3051
30 1 -1.1104 12.1373 13.6116 9.30719
105 2 2.2208 7.84384 17.705 8.16896
163 1 -1.1104 9.31504 16.4714 6.79909
81 2 2.2208 10.7263 20.4652 7.99943
82 1 -1.1104 12.0984 16.2068 9.40452
26 1 -1.1104 11.934 13.538 12.2597
165 2 2.2208 8.00817 20.5377 10.8934
50 1 -1.1104 12.1313 16.1709 12.1093
143 1 -1.1104 12.1741 13.2945 6.54404
136 1 -1.1104 9.27191 19.0994 9.51542
135 1 -1.1104 9.2816 13.4172 9.48262
290 1 -1.1104 6.35615 13.579 9.61415
112 1 -1.1104 6.67717 19.251 6.83721
104 1 -1.1104 9.34907 19.2056 12.2817
83 1 -1.1104 9.19404 13.4121 12.2332
200 1 -1.1104 9.42997 16.222 9.48369
8978 2 2.2208 13.5971 9.24473 10.864
9068 2 2.2208 13.3554 -2.01479 5.3425
9313 2 2.2208 -0.446296 17.7147 -0.396932
306 2 2.2208 10.7444 17.6697 -0.224289
388 2 2.2208 10.799 3.62219 13.7308
570 2 2.2208 10.6792 0.770994 -0.367455
346 2 2.2208 7.92888 14.8105 -0.300315
9097 2 2.2208 13.6405 17.5989 13.5867
9202 2 2.2208 13.5051 12.1938 13.5694
607 2 2.2208 5.15227 12.1799 -0.371833
606 2 2.2208 2.56171 9.30367 -0.216731
422 2 2.2208 2.26017 6.39236 13.5067
541 2 2.2208 2.36635 -2.00875 -0.294738
311 2 2.2208 8.00125 17.7796 13.6768
542 2 2.2208 2.26994 3.62467 -0.249194
605 2 2.2208 5.06457 6.4334 -0.295881
611 2 2.2208 2.24123 14.8957 -0.24646
354 2 2.2208 2.37702 0.810764 13.6056
313 2 2.2208 5.07475 0.924706 16.4136
314 1 -1.1104 0.934792 -3.42254 17.9807
315 1 -1.1104 0.833239 2.12533 17.8964
318 1 -1.1104 0.829999 -3.58467 15.1942
320 1 -1.1104 0.967657 2.19926 15.212
326 1 -1.1104 0.808544 -0.697698 18.1757
328 2 2.2208 4.94304 -1.93652 19.3157
329 2 2.2208 4.98595 3.78551 19.3635
330 1 -1.1104 0.840433 -0.465228 15.3638
334 1 -1.1104 3.54943 -3.29571 17.8671
335 1 -1.1104 3.65641 2.32993 17.985
336 2 2.2208 2.19806 0.807206 19.2727
337 1 -1.1104 3.60781 -3.44353 15.0604
339 1 -1.1104 3.78704 2.43674 15.0864
341 2 2.2208 2.17923 -2.02205 16.5061
343 1 -1.1104 3.64126 -0.483884 17.9389
344 1 -1.1104 3.69961 -0.62865 14.9678
342 2 2.2208 2.32796 3.67512 16.4663
338 1 -1.1104 3.69447 -3.43009 20.6862
322 1 -1.1104 6.45893 -3.40827 15.1956
9200 2 2.2208 13.4661 12.0182 19.2053
316 1 -1.1104 6.41456 -3.28921 17.9403
327 1 -1.1104 6.35165 -0.460267 18.0001
9390 2 2.2208 13.6479 9.39661 22.1343
9274 2 2.2208 13.5993 12.1028 24.9153
332 1 -1.1104 6.35323 -0.668573 15.0826
9479 2 2.2208 13.4763 -4.67705 13.7757
324 1 -1.1104 6.50835 2.21142 14.9588
317 1 -1.1104 6.62048 2.28251 17.6407
356 2 2.2208 10.8469 0.754627 16.3613
357 1 -1.1104 12.1978 -3.35912 18.1376
358 1 -1.1104 12.1375 2.08103 17.7505
359 1 -1.1104 11.9844 -3.57766 15.1983
361 1 -1.1104 12.1966 2.25645 15.1315
363 1 -1.1104 12.1932 -0.492008 17.9393
364 2 2.2208 10.7363 -1.89126 19.2932
365 2 2.2208 10.8108 3.52201 19.2511
366 1 -1.1104 11.9596 -0.760169 15.0478
368 1 -1.1104 9.34815 -3.38267 18.0407
369 1 -1.1104 9.29646 2.30898 17.847
370 2 2.2208 7.76193 0.934358 19.2043
371 1 -1.1104 9.20585 -3.45665 15.0873
373 1 -1.1104 9.49441 2.08034 15.0168
375 2 2.2208 7.90859 -2.12674 16.5743
376 2 2.2208 7.92725 3.6801 16.4449
377 1 -1.1104 9.33951 -0.517728 17.8823
378 1 -1.1104 9.28833 -0.89699 15.1752
9478 2 2.2208 13.5043 -2.05608 16.5247
423 2 2.2208 5.04605 9.42502 13.6662
9197 2 2.2208 13.6741 6.46072 13.7964
9312 2 2.2208 -0.597375 14.8007 13.7662
387 2 2.2208 10.6505 -2.04863 13.7443
487 2 2.2208 4.90105 14.9191 13.6934
389 2 2.2208 5.24056 6.63732 16.5102
390 2 2.2208 5.11514 12.1198 16.481
391 1 -1.1104 0.865877 8.05715 17.793
393 1 -1.1104 0.992553 7.76744 15.0727
397 1 -1.1104 0.860756 4.88865 17.7277
398 1 -1.1104 0.84656 10.7995 17.871
401 2 2.2208 5.19926 9.23331 19.3418
402 1 -1.1104 0.855413 5.05919 15.0484
404 1 -1.1104 0.833453 10.6032 15.2512
410 1 -1.1104 3.76127 7.90097 17.8269
411 2 2.2208 2.19334 6.3353 19.1306
412 2 2.2208 2.31284 12.0142 19.3345
413 1 -1.1104 3.93212 7.96943 15.0453
415 2 2.2208 2.38266 9.2838 16.4584
416 1 -1.1104 3.74443 5.14624 18.0108
417 1 -1.1104 3.72422 10.6077 17.8166
418 1 -1.1104 3.67663 5.23433 14.9835
420 1 -1.1104 3.74354 10.8474 14.9753
392 1 -1.1104 6.64873 7.78679 18.0223
406 1 -1.1104 6.66799 5.17582 15.1647
399 1 -1.1104 6.5351 4.934 17.8987
424 2 2.2208 2.23294 12.0417 13.697
405 1 -1.1104 0.823847 10.7586 20.8097
421 1 -1.1104 3.68486 10.598 20.7578
9271 2 2.2208 13.6423 20.3906 16.4303
381 2 2.2208 10.8213 -4.69137 16.7458
9239 2 2.2208 -0.387896 9.35999 19.3695
9128 2 2.2208 13.4417 0.801191 13.7104
408 1 -1.1104 6.66203 10.7822 15.134
395 1 -1.1104 6.75444 7.88392 15.2937
382 2 2.2208 7.77894 -4.70411 19.4109
400 1 -1.1104 6.66552 10.6875 17.9482
425 2 2.2208 10.8356 6.48 16.5652
426 2 2.2208 10.83 12.0498 16.5692
427 1 -1.1104 12.1904 7.81254 17.947
428 1 -1.1104 12.2209 7.84822 15.1196
430 1 -1.1104 12.1485 4.93593 17.7748
431 1 -1.1104 12.2124 10.582 18.0768
432 2 2.2208 10.6251 9.31287 19.2835
433 1 -1.1104 12.273 4.90385 15.0256
435 1 -1.1104 12.1973 10.819 15.2053
437 1 -1.1104 9.45178 7.92357 17.8539
438 2 2.2208 7.96359 6.39099 19.2391
439 2 2.2208 7.9191 12.1141 19.355
440 1 -1.1104 9.34173 8.03366 15.149
442 2 2.2208 7.96954 9.30343 16.5267
443 1 -1.1104 9.42237 4.98877 17.9944
444 1 -1.1104 9.37305 10.7172 17.9081
445 1 -1.1104 9.57941 5.17013 15.0092
447 1 -1.1104 9.3725 10.7965 15.1337
575 2 2.2208 10.8768 -4.78452 22.0392
9469 2 2.2208 13.5587 14.7475 22.2105
448 1 -1.1104 9.31551 10.5802 20.7191
441 1 -1.1104 9.32902 7.68237 20.615
436 1 -1.1104 12.0883 10.7836 20.9482
504 1 -1.1104 9.44628 13.5235 20.6607
9130 2 2.2208 13.5456 0.756514 19.2746
452 2 2.2208 5.05371 17.78 16.5974
453 1 -1.1104 0.98951 13.5482 17.8845
454 1 -1.1104 0.954647 19.2532 17.9825
457 1 -1.1104 0.717807 13.4032 15.0113
459 1 -1.1104 0.685353 19.0398 15.0142
465 1 -1.1104 0.863414 16.5909 17.9083
467 2 2.2208 5.14076 14.9528 19.5074
468 2 2.2208 5.17329 20.4503 19.4832
469 1 -1.1104 0.911386 16.1909 15.1306
473 1 -1.1104 3.83476 13.4053 18.0851
474 1 -1.1104 3.69597 19.2163 17.9356
475 2 2.2208 2.39168 17.7556 19.5252
476 1 -1.1104 3.50748 13.447 15.0426
478 1 -1.1104 3.45124 19.16 15.0547
480 2 2.2208 2.24198 14.8693 16.5972
481 2 2.2208 2.19305 20.5227 16.5674
482 1 -1.1104 3.72108 16.3528 18.2414
483 1 -1.1104 3.69434 16.2608 15.3626
456 1 -1.1104 6.35257 19.0472 17.9655
466 1 -1.1104 6.40745 16.2859 17.922
461 1 -1.1104 6.46914 13.5509 15.2533
462 1 -1.1104 6.59325 13.5332 20.8294
470 1 -1.1104 0.948332 16.0557 20.8126
471 1 -1.1104 6.59899 16.3546 15.1428
455 1 -1.1104 6.44217 13.471 18.1202
472 1 -1.1104 6.69728 16.3966 20.9057
631 2 2.2208 7.89939 9.19689 27.5467
9470 2 2.2208 13.5688 17.6982 24.96
9331 2 2.2208 13.4732 3.80643 22.1793
463 1 -1.1104 6.44873 19.1381 15.1174
488 2 2.2208 10.7121 17.5347 16.4501
489 1 -1.1104 12.1733 13.3231 17.9742
490 1 -1.1104 12.2477 18.8927 17.9055
491 1 -1.1104 12.1161 13.3523 15.1124
493 1 -1.1104 12.1978 19.0555 15.2389
495 1 -1.1104 12.2154 16.1511 17.8883
496 2 2.2208 10.8699 14.8563 19.2976
497 2 2.2208 10.8629 20.4283 19.194
498 1 -1.1104 12.2767 16.1469 14.9338
500 1 -1.1104 9.23026 13.4937 17.7811
501 1 -1.1104 9.31281 19.0492 17.7514
502 2 2.2208 8.08444 17.695 19.3377
503 1 -1.1104 9.47326 13.438 15.0901
505 1 -1.1104 9.30472 18.9455 15.107
507 2 2.2208 7.81958 14.9737 16.5091
508 2 2.2208 7.82549 20.5113 16.4111
509 1 -1.1104 9.40566 16.3224 17.8063
510 1 -1.1104 9.25014 16.2224 15.12
494 1 -1.1104 12.1129 19.0454 20.562
499 1 -1.1104 12.1545 16.2859 20.7636
464 1 -1.1104 6.51819 19.121 20.7008
511 1 -1.1104 9.36398 16.3946 20.6181
9268 2 2.2208 13.4989 14.7903 16.4711
506 1 -1.1104 9.41838 19.1323 20.6116
9467 2 2.2208 -0.408476 17.7169 22.3639
9124 2 2.2208 13.6367 3.55433 16.4841
9492 2 2.2208 -0.31319 12.0136 27.8188
9490 2 2.2208 13.5074 0.889667 24.8433
340 1 -1.1104 3.51802 2.14362 20.7306
331 1 -1.1104 0.620561 -0.650133 20.8042
323 1 -1.1104 6.38047 -3.39627 20.6183
333 1 -1.1104 6.29746 -0.523434 20.7736
321 1 -1.1104 0.727268 2.21612 20.8983
319 1 -1.1104 0.760734 -3.41592 20.821
345 1 -1.1104 3.45447 -0.58573 20.5859
516 2 2.2208 4.97037 0.885883 22.1465
517 1 -1.1104 0.932986 -3.43728 23.7015
518 1 -1.1104 0.762218 2.29489 23.5974
521 1 -1.1104 0.859677 -3.47537 26.5254
522 1 -1.1104 0.889491 2.22013 26.4445
525 1 -1.1104 0.740435 -0.589308 23.4694
527 2 2.2208 5.09491 -1.892 24.9103
528 2 2.2208 4.92991 3.67343 25.0141
529 1 -1.1104 1.03919 -0.723025 26.3216
531 1 -1.1104 3.60253 -3.54753 23.4548
532 1 -1.1104 3.70818 2.2744 23.4883
533 2 2.2208 2.17537 0.831344 24.9268
534 1 -1.1104 3.64335 -3.35807 26.3441
535 1 -1.1104 3.79185 2.17891 26.3054
536 2 2.2208 2.17965 -1.95047 22.1273
537 2 2.2208 2.22327 3.64992 22.1335
538 1 -1.1104 3.60127 -0.59328 23.4554
539 1 -1.1104 3.99199 -0.395614 26.286
523 1 -1.1104 6.4506 -3.36714 26.408
526 1 -1.1104 6.42875 -0.442015 23.5754
519 1 -1.1104 6.55836 -3.30676 23.3343
9489 2 2.2208 13.5442 -1.90467 22.1713
486 1 -1.1104 6.6986 16.464 23.7159
325 1 -1.1104 6.32617 2.24402 20.5523
530 1 -1.1104 6.50325 -0.564023 26.3977
367 1 -1.1104 11.9095 -0.693904 20.8917
374 1 -1.1104 9.12808 2.19421 20.7447
362 1 -1.1104 12.0183 2.23652 20.7814
520 1 -1.1104 6.32181 2.21938 23.3483
524 1 -1.1104 6.51495 2.19297 26.4125
372 1 -1.1104 9.28929 -3.3613 20.6734
379 1 -1.1104 9.14361 -0.44671 20.6006
360 1 -1.1104 12.2855 -3.45655 20.826
552 2 2.2208 10.5365 0.848984 22.0994
553 1 -1.1104 12.128 -3.23537 23.6442
554 1 -1.1104 11.9691 2.34387 23.5423
555 1 -1.1104 12.2768 -3.48392 26.3921
556 1 -1.1104 12.0628 2.17879 26.3716
557 1 -1.1104 12.2776 -0.401758 23.5206
558 2 2.2208 10.7682 -1.98201 24.942
559 2 2.2208 10.5776 3.68587 25.003
560 1 -1.1104 12.2967 -0.707832 26.3125
561 1 -1.1104 9.31897 -3.39187 23.5343
562 1 -1.1104 9.19134 2.24295 23.6883
563 2 2.2208 7.9371 0.767034 24.8998
564 1 -1.1104 9.41006 -3.43984 26.1996
565 1 -1.1104 9.29299 2.34877 26.5218
566 2 2.2208 7.86396 -1.80968 21.9512
567 2 2.2208 7.81001 3.63995 22.0359
568 1 -1.1104 9.24147 -0.618111 23.5438
569 1 -1.1104 9.35456 -0.531414 26.3642
637 1 -1.1104 6.46697 13.5021 26.2677
639 1 -1.1104 6.61859 16.4118 26.4652
351 2 2.2208 10.8111 17.7743 22.1441
407 1 -1.1104 6.56042 4.93103 20.7272
414 1 -1.1104 3.71864 7.63202 20.5994
403 1 -1.1104 0.693771 5.02748 20.6895
394 1 -1.1104 0.984226 7.85171 20.6485
419 1 -1.1104 3.68789 5.11987 20.8328
581 2 2.2208 5.05023 6.59568 22.1613
582 2 2.2208 5.35758 12.2052 22.2288
583 1 -1.1104 0.901375 7.88968 23.5301
585 1 -1.1104 0.796859 8.05776 26.4407
587 1 -1.1104 1.02778 5.2109 23.4494
588 1 -1.1104 0.918359 10.8909 23.7002
591 2 2.2208 5.22392 9.41367 24.8915
592 1 -1.1104 0.664866 5.10026 26.3889
593 1 -1.1104 1.16401 10.7918 26.4656
596 1 -1.1104 3.75598 8.07808 23.3569
597 2 2.2208 2.42538 6.6121 24.9902
598 2 2.2208 2.54223 12.0871 25.0916
599 1 -1.1104 3.991 7.89353 26.3539
600 2 2.2208 2.2526 9.45695 22.1386
601 1 -1.1104 3.87757 5.22296 23.7127
602 1 -1.1104 3.69843 10.9542 23.5673
603 1 -1.1104 3.38462 5.21845 26.4797
604 1 -1.1104 3.9884 10.5846 26.4744
589 1 -1.1104 6.52117 5.0725 23.5402
584 1 -1.1104 6.60374 7.96096 23.4599
409 1 -1.1104 6.60459 10.6476 20.8478
586 1 -1.1104 6.65717 7.73559 26.1935
551 1 -1.1104 9.39902 19.213 23.5526
646 1 -1.1104 6.83581 13.5954 23.6126
548 2 2.2208 10.8073 20.6227 25.064
595 1 -1.1104 6.6142 10.7179 26.2415
396 1 -1.1104 6.58721 7.7119 20.7111
594 1 -1.1104 6.33561 4.83663 26.5763
446 1 -1.1104 9.30393 4.92364 20.6388
590 1 -1.1104 6.55456 10.7668 23.4808
429 1 -1.1104 12.1652 7.84014 20.718
434 1 -1.1104 12.1518 5.05639 20.7216
612 1 -1.1104 9.37194 10.7453 26.2791
613 1 -1.1104 9.29099 5.06578 26.2202
614 1 -1.1104 9.39603 10.7156 23.6398
615 1 -1.1104 9.3529 5.11901 23.2439
616 2 2.2208 7.9935 9.18491 22.0367
617 1 -1.1104 9.50096 7.82713 26.5416
618 2 2.2208 8.02316 12.1731 24.8967
619 2 2.2208 7.98563 6.49561 24.739
620 2 2.2208 10.6889 6.41907 22.0115
621 2 2.2208 10.8591 12.1218 22.0923
622 1 -1.1104 12.2001 7.77845 23.4378
623 1 -1.1104 12.3281 7.78908 26.4113
624 1 -1.1104 12.0017 4.9397 23.4568
625 1 -1.1104 12.2619 10.7315 23.6745
626 2 2.2208 10.7957 9.25269 25.0474
627 1 -1.1104 12.3143 5.02894 26.1314
628 1 -1.1104 12.1994 10.7144 26.5013
629 1 -1.1104 9.30581 7.97764 23.614
549 1 -1.1104 12.2262 16.5253 26.5597
610 1 -1.1104 9.36417 16.4257 26.5062
643 1 -1.1104 6.51002 19.1564 23.5136
609 1 -1.1104 9.54685 16.308 23.4947
580 2 2.2208 8.14417 15.0022 22.1008
577 1 -1.1104 6.56975 19.2109 26.4092
477 1 -1.1104 3.5455 13.452 20.9737
484 1 -1.1104 3.78481 16.3108 20.8718
460 1 -1.1104 1.17468 18.8992 20.873
458 1 -1.1104 0.922242 13.4039 20.6561
479 1 -1.1104 3.69636 19.248 20.7587
349 2 2.2208 2.29371 20.5876 22.282
350 1 -1.1104 3.96681 16.3169 23.651
485 1 -1.1104 1.09946 16.3181 23.5997
512 1 -1.1104 3.69948 13.4983 26.535
514 1 -1.1104 3.65494 16.3128 26.5381
634 2 2.2208 2.37009 17.6811 25.0185
635 2 2.2208 2.29811 14.9322 22.2377
636 1 -1.1104 3.58298 19.0777 23.4845
638 1 -1.1104 3.87842 13.5519 23.6784
640 1 -1.1104 0.901065 19.1942 26.4535
641 1 -1.1104 0.940178 16.3203 26.5047
642 1 -1.1104 1.01656 13.3554 26.4719
644 2 2.2208 5.06165 20.6253 25.186
645 2 2.2208 5.15542 14.8611 24.9911
647 1 -1.1104 0.917726 19.1998 23.6724
648 1 -1.1104 0.949444 13.6996 23.5649
649 2 2.2208 5.17774 17.7113 22.2139
650 1 -1.1104 3.73032 19.0279 26.5073
380 1 -1.1104 12.2279 13.4868 23.591
385 1 -1.1104 12.204 13.6642 26.5298
492 1 -1.1104 12.2195 13.5281 20.753
579 1 -1.1104 9.29022 19.1422 26.4453
384 1 -1.1104 12.1713 19.1443 23.3597
543 1 -1.1104 12.3162 16.2218 23.7316
550 1 -1.1104 9.57853 13.6116 23.4084
544 2 2.2208 10.6852 14.8968 25.1528
515 1 -1.1104 12.1157 19.1782 26.3761
573 2 2.2208 7.88788 17.7588 24.949
578 1 -1.1104 9.38421 13.458 26.337
608 2 2.2208 7.95007 20.4653 22.0229
9309 2 2.2208 -0.439321 20.5103 19.4139
353 2 2.2208 5.01496 -2.12115 13.6144
572 2 2.2208 7.84065 3.56312 27.8282
9198 2 2.2208 13.5669 9.29466 16.5112
9473 2 2.2208 13.495 20.7237 22.1128
630 2 2.2208 10.869 6.3647 27.7018
632 2 2.2208 10.7822 12.0371 27.7877
451 2 2.2208 7.8874 12.162 13.8658
450 2 2.2208 10.8943 9.33369 13.7067
540 2 2.2208 5.3245 0.726272 27.7153
310 2 2.2208 10.6836 20.3812 13.7689
308 2 2.2208 2.06805 17.7726 13.8734
309 2 2.2208 4.91641 20.5424 13.9751
513 2 2.2208 10.719 14.9116 13.7215
9269 2 2.2208 13.7531 9.35087 27.7383
633 2 2.2208 5.13335 17.6278 27.7675
449 2 2.2208 8.02418 6.46476 13.7262
386 2 2.2208 7.93935 0.672964 13.7023
651 2 2.2208 5.32392 23.3333 5.33394
652 2 2.2208 5.19417 28.9839 5.29245
653 1 -1.1104 1.00235 24.8005 1.25392
654 1 -1.1104 0.744165 24.5739 3.72898
655 1 -1.1104 0.876797 21.9186 1.16453
656 1 -1.1104 0.973195 27.7098 1.26424
657 2 2.2208 5.30817 26.2871 2.58239
658 1 -1.1104 0.929426 21.9413 3.92068
659 1 -1.1104 1.11953 27.4683 4.07908
660 1 -1.1104 3.849 24.9257 1.22726
661 2 2.2208 2.3107 23.3315 2.58218
662 2 2.2208 2.27556 29.0271 2.68055
663 1 -1.1104 3.64494 24.4778 4.12781
664 2 2.2208 2.30421 25.9545 5.24066
665 1 -1.1104 3.86212 22.0061 1.09056
666 1 -1.1104 3.7199 27.7185 1.36979
667 1 -1.1104 3.78188 21.828 4.01783
668 1 -1.1104 3.84257 27.5501 4.09465
672 1 -1.1104 6.63975 24.7956 0.979119
674 1 -1.1104 6.74893 21.6391 1.24553
1531 1 -1.1104 9.35888 47.5584 9.47636
675 1 -1.1104 6.70362 27.735 1.04226
800 1 -1.1104 3.78095 27.5574 6.75107
975 2 2.2208 10.7987 23.2117 -0.311416
797 1 -1.1104 6.57709 27.7037 6.54779
9833 2 2.2208 13.611 31.8663 -0.190032
983 2 2.2208 5.1287 34.4271 -0.223644
9703 2 2.2208 13.6441 34.6967 7.99067
677 1 -1.1104 6.83536 27.6085 3.85839
673 1 -1.1104 6.59149 24.8954 3.8352
676 1 -1.1104 6.66432 22.0715 3.94815
678 2 2.2208 10.7346 23.4654 5.41263
679 2 2.2208 10.8746 29.144 5.32945
680 1 -1.1104 12.3289 24.6606 1.20178
681 1 -1.1104 12.2332 24.7695 3.77925
682 1 -1.1104 12.0839 21.8438 1.04546
683 1 -1.1104 12.1648 27.5445 1.22348
684 2 2.2208 10.7539 26.2347 2.43143
685 1 -1.1104 12.348 21.6647 3.79621
686 1 -1.1104 12.1763 27.689 4.06252
687 1 -1.1104 9.49724 24.826 1.21992
688 2 2.2208 7.8921 23.3147 2.50947
689 2 2.2208 8.08728 28.9579 2.44293
690 1 -1.1104 9.30041 24.8642 4.04243
691 2 2.2208 8.14242 26.3676 5.38224
692 1 -1.1104 9.33645 22.0293 1.0572
693 1 -1.1104 9.40309 27.5923 1.0955
694 1 -1.1104 9.45881 22.2468 3.91698
695 1 -1.1104 9.53566 27.742 4.00675
826 1 -1.1104 12.137 22.0436 6.77474
9821 2 2.2208 13.5016 45.8591 2.44137
977 2 2.2208 10.936 29.0279 -0.185536
967 2 2.2208 2.30327 45.8865 13.5395
699 2 2.2208 5.08148 34.5715 5.21272
700 1 -1.1104 0.971807 30.6213 1.09136
701 1 -1.1104 0.827409 36.1479 0.936603
703 1 -1.1104 0.972949 30.409 3.96686
704 1 -1.1104 1.04789 36.0519 3.96013
706 1 -1.1104 1.05623 33.0986 1.04179
707 2 2.2208 5.24728 31.6075 2.55382
708 2 2.2208 5.04003 37.3067 2.38841
709 1 -1.1104 0.925191 33.229 3.938
711 1 -1.1104 3.84089 30.3952 1.06665
712 1 -1.1104 3.72117 35.8588 1.13699
713 2 2.2208 2.39462 34.5078 2.65839
714 1 -1.1104 3.8544 30.4427 3.9934
715 1 -1.1104 3.81445 35.9031 4.09344
716 2 2.2208 2.55307 31.7557 5.37352
717 2 2.2208 2.37096 37.2829 5.45938
718 1 -1.1104 3.78251 33.0378 1.17291
719 1 -1.1104 3.71783 33.1462 3.88672
856 1 -1.1104 3.75051 35.9625 6.86752
853 1 -1.1104 1.00441 33.0075 6.69133
724 1 -1.1104 6.60453 30.3257 4.03854
850 1 -1.1104 0.940395 35.7335 6.84964
855 1 -1.1104 3.97219 30.5761 6.80909
725 1 -1.1104 6.54138 33.2134 1.13396
849 1 -1.1104 1.11379 30.2044 6.51738
982 2 2.2208 2.41274 31.8002 -0.276897
1484 1 -1.1104 6.60768 47.1947 12.376
705 1 -1.1104 6.54257 35.857 3.68803
723 1 -1.1104 6.58075 30.3506 1.07248
710 1 -1.1104 6.62105 33.0959 4.04396
702 1 -1.1104 6.77379 35.9194 1.04741
726 2 2.2208 11.0371 34.6575 5.2613
727 1 -1.1104 12.2678 30.1584 1.24608
728 1 -1.1104 12.3441 36.0506 0.994188
729 1 -1.1104 12.3558 30.5034 4.15135
730 1 -1.1104 12.3004 36.0566 3.76051
731 1 -1.1104 12.1033 33.0551 1.08984
732 2 2.2208 10.8069 32.056 2.48138
733 2 2.2208 10.8582 37.5592 2.41591
734 1 -1.1104 12.4242 33.2491 3.79342
735 1 -1.1104 9.27595 30.3153 0.893003
736 1 -1.1104 9.57085 36.1431 0.878753
737 2 2.2208 8.09294 34.6475 2.38903
738 1 -1.1104 9.40812 30.6008 3.67806
739 1 -1.1104 9.50061 36.0018 3.84889
740 2 2.2208 8.04086 31.8039 5.37599
741 2 2.2208 7.93293 37.1981 5.09292
742 1 -1.1104 9.1782 33.3038 0.982571
743 1 -1.1104 9.68064 33.4202 3.94086