ITEM: TIMESTEP
450000
ITEM: NUMBER OF ATOMS
18000
ITEM: BOX BOUNDS xy xz yz pp pp pp
-1.9563091200708554e-01 2.8089630912006385e+01 0.0000000000000000e+00
-2.1591045098136847e+00 3.3688710450981102e+02 0.0000000000000000e+00
-1.8935910034583295e-01 2.8083359100344932e+01 0.0000000000000000e+00
ITEM: ATOMS id type x y z
1 1 0.981201 -0.506669 1.04291
2 1 3.90092 -0.671893 1.304
3 1 4.11395 -0.797075 4.15849
4 1 1.22674 -0.733123 4.02301
5 1 1.42649 2.16028 1.42149
6 1 4.18223 1.95414 1.1275
7 1 4.07316 1.82198 3.78744
8 1 1.21233 2.00587 4.26135
15061 2 13.8416 6.58253 5.4752
10 1 9.51131 -0.960831 1.37701
11 1 9.9875 -0.638126 4.32536
12 1 7.25613 -0.642673 3.84981
13 1 6.79915 2.03077 1.16991
14 1 9.35533 2.01032 1.25841
15 1 9.74721 2.2999 3.85061
16 1 6.89471 2.2086 4.02056
17 1 12.4847 -0.724737 1.28219
18 1 12.685 -0.741362 4.05126
19 1 12.1825 2.00443 1.03148
20 1 12.5009 2.06374 4.05867
21 1 0.996444 5.0032 1.2481
22 1 3.85936 4.66673 1.00347
23 1 4.03333 4.99053 3.88875
24 1 1.1358 4.83227 3.96991
25 1 1.25867 7.86384 0.931483
26 1 4.00178 7.44114 1.46263
27 1 3.94619 7.91163 4.2541
28 1 0.965302 7.69088 3.91187
29 1 6.46596 4.85128 1.22683
30 1 9.25887 4.95784 1.23979
31 1 9.52746 4.91109 3.92765
32 1 6.76953 5.07662 4.0815
33 1 6.73442 7.77546 1.25384
34 1 9.45056 7.54977 1.26978
35 1 9.49543 7.57083 4.24391
36 1 6.56458 7.89784 4.01101
37 1 11.9401 4.75269 1.35224
12022 2 2.71055 11.9631 0.12314
39 1 12.2027 7.66715 1.31957
40 1 12.2673 7.75603 4.01174
41 1 1.2162 10.5941 1.40531
42 1 4.11414 10.4869 1.55042
43 1 3.76939 10.7693 4.13014
44 1 0.981535 10.3834 4.14274
45 1 1.10283 13.4878 1.24944
46 1 4.08083 13.3599 1.6442
47 1 3.93112 13.4279 4.31678
48 1 1.23532 13.4656 4.11074
49 1 6.86519 10.3797 1.32093
50 1 9.71335 10.5934 1.43486
51 1 9.57412 10.4633 4.11032
52 1 6.75931 10.7593 4.19503
53 1 6.7823 13.2384 1.34057
54 1 9.74112 13.3572 1.4717
55 1 9.69667 13.3781 4.37707
56 1 6.64426 13.2809 4.09501
57 1 12.3658 10.5879 1.39803
58 1 12.2749 10.6115 4.2
59 1 12.4847 13.316 1.45944
60 1 12.421 13.583 4.22702
61 1 1.00448 16.4643 1.42427
62 1 4.00945 16.1202 1.20701
63 1 4.21067 16.4532 4.07629
64 1 1.03203 16.2385 4.26664
65 1 1.06674 19.1309 1.32321
66 1 4.00034 19.1674 1.63336
67 1 3.82838 19.2071 4.38033
68 1 1.04818 18.9996 4.20235
69 1 6.69028 16.0743 1.3217
70 1 9.62266 16.0734 1.14278
71 1 9.81347 16.187 3.98877
72 1 6.9401 16.009 4.21031
73 1 6.74701 18.795 1.26748
74 1 9.52354 18.9039 1.47764
75 1 9.64541 19.0305 4.25248
76 1 6.87473 19.1468 3.88859
77 1 12.3862 16.2992 1.31456
78 1 12.4266 16.2994 4.35669
15032 2 13.8219 14.8251 2.78812
80 1 12.4792 18.9709 4.05657
81 1 0.962501 21.8261 1.27223
82 1 3.85456 21.9007 1.48429
83 1 4.02402 21.8756 4.12618
84 1 1.36035 21.9542 4.05772
85 1 6.77274 21.8749 1.08791
86 1 9.62368 21.8676 1.33536
87 1 9.61483 21.8429 4.17511
88 1 6.79854 21.9504 4.00999
89 1 12.3934 22.176 1.32388
90 1 12.5924 21.8464 4.03572
91 1 0.850671 -0.725308 6.72793
92 1 3.96137 -0.908786 7.0325
93 1 3.87068 -0.827505 9.83848
94 1 1.39257 -0.812467 9.87988
95 1 1.40395 2.09891 7.1236
96 1 4.07321 2.12134 6.72778
97 1 4.31728 2.0668 9.85196
98 1 1.31275 2.03622 9.71312
99 1 6.90382 -0.766788 6.54736
100 1 9.68331 -0.767484 6.91788
101 1 10.1047 -0.659041 9.85199
102 1 6.9643 -0.735609 9.3755
103 1 6.73595 2.12829 6.91734
104 1 9.75893 1.94555 6.70498
105 1 9.39033 1.91821 9.50004
106 1 6.88302 1.85994 9.8142
107 1 12.6866 -0.725332 6.65953
108 1 12.6886 -0.991926 9.73782
109 1 12.4992 1.77952 6.86348
110 1 12.4532 1.98041 9.67064
111 1 1.19982 4.72561 6.81826
112 1 3.79569 4.80632 6.63879
113 1 4.19008 4.80975 9.61131
114 1 1.17255 4.92615 9.67004
115 1 1.05202 7.5915 6.92139
116 1 4.04661 7.68131 7.15564
117 1 4.10159 7.72706 9.8819
118 1 1.11678 7.66917 9.74473
119 1 6.71167 5.0636 6.82119
120 1 9.66085 4.87169 6.98832
121 1 9.64152 5.06807 9.73517
122 1 6.75551 4.91898 9.67337
123 1 6.8845 7.97821 6.62635
124 1 9.61648 7.72087 6.86365
125 1 9.63834 7.78997 9.80001
126 1 7.00734 7.85153 9.50068
127 1 12.4618 4.68227 6.8193
128 1 12.4013 4.94406 9.5513
129 1 12.6041 7.87853 6.84467
130 1 12.4111 7.80991 9.83643
131 1 0.767609 10.4534 6.99999
132 1 3.62751 10.5019 6.9879
133 1 3.78753 10.6461 9.60895
134 1 1.01057 10.3965 9.64722
135 1 0.917304 13.634 6.98729
136 1 3.92969 13.3517 7.06813
137 1 3.75193 13.4353 9.78354
138 1 0.838207 13.2106 9.88474
139 1 6.56093 10.5629 7.19445
140 1 9.52866 10.3805 6.7422
141 1 9.62105 10.5245 9.75823
142 1 6.64401 10.7648 9.84451
143 1 6.77965 13.4915 7.02171
144 1 9.47727 13.3125 7.21034
145 1 9.44886 13.3582 9.86984
146 1 6.6783 13.4352 9.8351
147 1 12.5675 10.5419 6.90762
148 1 12.4197 10.7308 9.74478
149 1 12.5402 13.6442 7.1003
150 1 12.3976 13.4641 9.8597
151 1 1.01033 16.3157 6.93547
152 1 3.76164 16.0997 6.724
153 1 3.95147 16.3471 9.57667
154 1 1.00848 16.145 9.72142
155 1 1.04655 19.3481 7.01344
156 1 3.95358 19.0249 6.95142
157 1 3.96127 19.2123 9.59497
158 1 1.2433 18.9106 9.68021
159 1 6.52802 16.4113 6.85083
160 1 9.77447 16.508 6.78378
161 1 9.80155 16.1561 9.55085
162 1 6.98078 16.4115 9.40038
163 1 6.6153 19.0914 6.93283
164 1 9.56114 18.9534 7.196
165 1 9.62536 19.0938 9.7706
166 1 6.90759 19.0487 9.89342
167 1 12.4694 16.3322 7.09867
168 1 12.5458 16.3219 9.83755
169 1 12.5046 19.1574 6.76867
170 1 12.3236 19.3199 9.46408
171 1 1.32579 22.1077 6.88824
172 1 3.99739 21.9985 6.94139
173 1 4.07274 21.8981 9.72345
174 1 0.908518 21.842 9.84103
175 1 6.61072 22.1343 6.97261
176 1 9.47899 21.7386 7.12458
177 1 10.1469 22.2587 10.2235
178 1 7.12156 21.8144 9.905
179 1 12.2405 21.8756 6.82458
180 1 12.6058 21.8553 9.47266
181 1 1.02966 -0.592455 12.4027
182 1 4.15688 -0.65922 12.4256
183 1 1.32093 2.05715 12.5036
184 1 3.9928 2.00109 12.5139
185 1 7.02368 -0.645197 12.4549
186 1 9.70703 -0.713956 12.5056
187 1 6.90953 2.09317 12.6145
188 1 9.59929 2.10621 12.3638
189 1 12.7223 -0.61487 12.5875
190 1 12.4996 2.10832 12.4846
191 1 1.02087 4.97873 12.308
192 1 4.06665 4.79178 12.4822
193 1 1.17613 7.65945 12.5302
194 1 3.95527 7.42346 12.7713
195 1 6.98013 4.92635 12.7165
196 1 9.85541 4.96948 12.7119
197 1 6.82287 7.68046 12.551
198 1 9.80173 7.75613 12.4029
199 1 12.7998 4.85965 12.3908
200 1 12.6049 7.72658 12.7766
201 1 1.08921 10.5054 12.5808
202 1 4.02693 10.5622 12.5242
203 1 1.29461 13.3276 12.7406
204 1 4.24137 13.2899 12.6274
205 1 7.31421 10.4917 12.5737
206 1 9.90959 10.6906 12.4825
207 1 6.9813 13.3199 12.6076
208 1 9.78427 13.5255 12.6547
209 1 12.5511 10.4967 12.6904
210 1 12.3851 13.4958 12.6095
211 1 1.0838 16.164 12.536
212 1 4.10656 16.3777 12.4517
213 1 0.902184 19.0404 12.8675
214 1 3.74456 19.0202 12.3757
215 1 6.71558 16.3446 12.5643
216 1 9.47232 16.2695 12.2996
217 1 6.57646 19.0925 12.6658
218 1 9.50416 19.0551 12.4458
219 1 12.3954 16.136 12.6723
220 1 12.2176 18.9629 12.4908
221 1 1.38798 22.0359 12.609
222 1 4.09784 22.0653 12.4196
223 1 6.80216 21.8186 12.5821
224 1 9.72828 21.6524 12.7836
225 1 12.4268 21.9885 12.374
15031 2 13.729 17.6589 -0.222005
5633 1 6.71067 -0.89652 1.1912
12004 2 -0.0898481 0.72237 2.71801
12001 2 -0.15642 -2.08226 -0.119005
38 1 12.7806 5.16292 3.92217
15091 2 13.8132 23.2172 5.29727
12131 2 2.64608 3.41766 13.9688
12008 2 5.64692 0.397333 2.7459
15062 2 13.9325 3.6184 8.2221
12010 2 11.024 0.609102 2.7787
12125 2 10.8954 20.3318 11.097
12144 2 5.40172 17.5755 13.9503
12013 2 2.88654 3.22552 2.50052
12124 2 8.18263 23.319 11.276
12036 2 8.14568 17.6908 -0.248927
12026 2 8.24761 11.972 -0.0762149
12017 2 8.02767 3.34169 2.41744
12018 2 5.63011 6.25857 2.62524
79 1 12.3562 19.2034 1.18601
12020 2 11.0251 6.28355 2.75896
12113 2 5.56535 9.11106 10.8015
12104 2 8.36819 0.588896 11.0322
12023 2 2.53913 9.05179 2.8407
15042 2 13.8944 20.5144 2.7807
12049 2 11.2261 20.4418 -0.15648
12107 2 2.45989 6.31942 11.1816
12027 2 8.2141 9.00413 2.6951
12028 2 5.45368 11.952 2.90245
12045 2 5.44881 20.4553 -0.142243
12030 2 11.1091 12.0323 2.8993
12102 2 2.7735 0.61943 11.168
12114 2 8.23079 12.0285 11.1642
12033 2 2.74825 14.8937 2.78909
15021 2 13.9269 11.8392 -0.0190077
12100 2 11.1309 23.118 8.45849
12099 2 11.0134 20.4245 5.6081
12037 2 8.17377 14.6869 2.6238
12038 2 5.4071 17.6659 2.73631
12098 2 5.30806 23.4702 8.2643
12040 2 11.0518 17.535 2.7276
12097 2 8.08155 20.2669 8.42877
15041 2 13.8758 23.3494 -0.0972554
12043 2 2.48246 20.3659 2.91463
12123 2 5.4276 20.5613 11.172
12096 2 8.16914 23.26 5.59207
12095 2 5.34588 20.4915 5.67639
12047 2 8.25937 20.5201 2.65702
12048 2 5.31421 23.1097 2.73451
12115 2 11.1875 9.18103 11.2582
12050 2 10.9343 23.3445 2.71695
12009 2 11.1886 -2.12211 -0.131068
12052 2 2.62728 0.575561 5.59775
12112 2 2.36952 11.8326 11.1213
12122 2 2.41131 23.2528 11.0279
12110 2 11.1329 3.42881 11.0676
12056 2 8.41029 0.806283 5.37039
12109 2 8.38837 6.42031 11.1165
12058 2 5.49483 0.629803 8.41837
12108 2 5.45961 3.388 11.2441
12060 2 11.3089 0.477778 8.09948
12120 2 11.0549 14.9127 11.07
12062 2 2.45449 6.31271 5.40141
12063 2 2.81067 3.50625 8.232
12119 2 8.22227 17.5562 11.1807
12065 2 5.39859 3.48337 5.40056
12066 2 8.2256 6.24684 5.55088
12067 2 8.23215 3.65779 8.31358
12068 2 5.30203 6.28298 8.32391
12069 2 11.1191 3.39344 5.46071
12070 2 11.0938 6.40774 8.33214
12002 2 2.62984 0.643745 -0.00137328
12072 2 2.39355 12.0085 5.61544
12073 2 2.29666 9.0252 8.37377
12118 2 5.40379 14.9012 11.0771
12075 2 5.22383 9.16859 5.48728
12076 2 8.21681 11.9695 5.57339
12077 2 8.18952 9.32797 8.2368
12078 2 5.23847 12.0213 8.3373
12079 2 10.9438 8.97368 5.59044
12080 2 11.1278 11.8263 8.41888
12031 2 -0.159342 14.8439 0.055093
12082 2 2.43284 17.6512 5.65338
12083 2 2.37913 14.9014 8.41909
12117 2 2.38009 17.6051 11.3089
12085 2 5.22483 14.9043 5.61665
12086 2 8.02777 17.6031 5.63004
12087 2 8.22542 14.6961 8.33832
12088 2 5.2276 17.6288 8.45525
12089 2 10.9719 15.0204 5.58958
12090 2 11.0887 17.7081 8.28086
12044 2 -0.243381 23.2859 2.74269
12092 2 2.74879 23.3078 5.50918
12093 2 2.58606 20.6004 8.26827
15012 2 13.6106 3.41309 2.43215
12035 2 5.41748 14.7827 -0.114871
15111 2 13.8067 12.1367 11.3434
15121 2 13.9084 23.21 11.25
15081 2 13.8425 17.6644 5.48737
15022 2 13.7796 9.26148 2.6848
15011 2 13.5621 6.2226 -0.0347819
15092 2 13.8241 20.3674 8.16518
15071 2 13.6348 11.9713 5.60661
15051 2 13.9107 0.639669 5.28014
12019 2 10.8025 3.37177 -0.174052
15082 2 13.8917 14.8328 8.39114
15116 2 13.794 17.6133 11.1282
12021 2 -0.0964026 9.00031 -0.161055
12039 2 11.1304 14.7112 -0.143418
12061 2 -0.175607 3.27729 5.39393
12032 2 2.63095 17.6754 -0.0554803
12054 2 -0.0796166 0.609882 8.35512
12145 2 10.951 17.5489 13.904
12126 2 2.75101 -2.029 13.8179
12129 2 5.56881 0.696938 13.8365
12150 2 11.0996 23.1715 13.8583
12006 2 8.14781 0.471465 -0.151152
12042 2 2.54589 23.2153 0.0306323
12025 2 5.3482 9.22513 0.1231
12012 2 2.67935 6.21086 -0.169877
12135 2 11.3045 6.4215 13.9276
12029 2 10.8957 9.26941 -0.00477063
12016 2 8.03982 6.42392 -0.124585
12136 2 2.65606 8.95766 13.8753
226 1 4.43164 -0.865039 15.298
227 1 1.29488 -0.795344 15.1587
228 1 4.03717 2.06798 15.5038
229 1 1.19473 2.16082 15.3741
230 1 9.78927 -0.875443 15.3616
231 1 7.08499 -0.633729 15.329
232 1 9.91817 1.90338 15.4434
233 1 6.95946 2.08172 15.4027
234 1 12.5634 -0.646146 15.3273
235 1 12.7363 2.23077 15.4413
236 1 3.82294 4.86694 15.4448
237 1 1.31895 4.89652 15.3903
238 1 3.97853 7.75812 15.6494
239 1 1.14996 7.91584 15.3957
240 1 9.64649 4.75209 15.4936
241 1 6.79319 4.93275 15.4324
242 1 9.79084 7.68209 15.2173
243 1 6.83407 7.69438 15.3248
244 1 12.6235 4.96592 15.2054
245 1 12.6993 7.70078 15.372
246 1 4.37144 10.8628 15.4503
247 1 1.42172 10.4097 15.5865
248 1 4.09315 13.5764 15.3667
249 1 1.29238 13.44 15.6708
250 1 9.75472 10.3236 15.6621
251 1 7.11719 10.5369 15.2643
252 1 9.73967 13.2475 15.3365
253 1 7.00399 13.376 15.5827
254 1 12.5232 10.6392 15.4221
255 1 12.4946 13.2048 15.4107
256 1 4.06257 16.3036 15.4125
257 1 1.41844 16.1585 15.3105
258 1 3.88087 18.8963 15.3329
259 1 1.32949 18.9402 15.6577
260 1 9.49584 16.3778 15.3018
261 1 6.92978 16.0127 15.4232
262 1 9.6821 19.0592 15.1935
263 1 6.84749 18.8504 15.3837
264 1 12.318 16.2655 15.2302
265 1 12.3698 19.147 15.4248
266 1 3.84313 21.8317 15.1488
267 1 0.894234 21.7682 15.462
268 1 9.45245 21.8696 15.5182
269 1 6.59091 21.8224 15.314
270 1 12.5759 21.9128 15.1092
271 1 1.34434 -0.793096 18.3139
272 1 4.07985 -0.739675 18.2174
273 1 3.87513 -0.613841 21.0024
274 1 1.07129 -0.820987 20.9428
275 1 1.26132 1.81257 18.1844
276 1 4.2367 1.85778 18.3821
277 1 4.0973 4.86823 20.94
278 1 1.06298 2.24285 20.9087
279 1 6.80817 -0.802328 18.2428
280 1 9.65377 -1.0225 18.2163
281 1 9.76677 -0.878019 20.9313
282 1 7.13674 -0.831181 21.0921
283 1 6.98728 2.31425 18.2769
284 1 9.85653 1.818 18.3024
285 1 9.9232 1.90666 21.1062
286 1 7.22299 1.93452 21.1207
287 1 12.5184 -0.865683 18.429
288 1 12.4871 -0.614844 21.2471
289 1 12.5933 2.01511 18.4611
290 1 12.5437 2.15921 21.1197
291 1 1.06455 4.53459 18.1583
292 1 4.00236 4.88478 18.1303
293 1 4.00221 7.82713 21.0872
294 1 1.48831 4.95126 20.8465
295 1 1.28012 7.66834 18.1393
296 1 4.35794 7.86783 18.4284
297 2 2.51784 9.17665 22.4817
298 1 1.38289 7.91726 20.8011
299 1 6.86758 4.90714 18.4159
300 1 9.75742 4.83608 18.2948
301 1 9.74531 4.73592 21.1461
302 1 7.06312 4.62037 21.1494
303 1 6.9033 7.83583 18.0936
304 1 9.75067 7.74 18.03
305 1 9.31579 7.62239 20.7162
306 1 6.76616 7.58775 21.2757
307 1 12.4141 5.0163 18.0872
308 1 12.2148 4.89966 20.994
309 1 12.5456 7.87495 18.137
310 1 12.3701 7.82536 21.2078
311 1 0.93608 10.4019 18.7081
312 1 3.87377 10.5927 18.1196
313 1 3.84994 10.4097 21.2423
314 1 0.900425 10.6194 21.5408
315 1 1.06645 13.3304 18.2842
316 1 3.99727 13.297 18.2922
317 1 3.82677 13.2584 21.0052
318 1 0.944405 13.2109 20.9355
319 1 6.79877 10.5571 18.2146
320 1 9.68547 10.537 18.436
321 1 9.65674 10.3888 21.3379
322 1 6.78313 10.4388 21.125
323 1 7.00151 13.4811 18.2031
324 1 9.68283 13.2185 18.1751
325 1 9.56362 13.1641 20.9299
326 1 6.8518 13.3145 20.8335
327 1 12.633 10.5488 18.2701
328 1 12.4169 10.5587 21.0445
329 1 12.5042 13.5233 18.0443
330 1 12.9665 13.1593 20.6412
331 1 1.21679 16.2118 18.2707
332 1 3.92225 16.3363 18.1722
333 1 4.0501 16.1517 20.8942
334 1 1.11456 16.044 21.2777
335 1 1.12623 18.9343 18.2004
336 1 4.03704 19.0585 18.2435
337 1 4.08693 19.1488 21.1639
338 1 1.30068 18.6849 20.9692
339 1 6.75078 16.3922 18.0957
340 1 9.70011 16.1467 18.2202
341 1 9.56177 16.501 20.8847
342 1 6.83548 16.2396 20.9135
343 1 6.92114 19.3256 18.1443
344 1 9.86654 18.9987 18.0861
345 1 9.29036 19.3229 21.4047
346 1 6.59682 19.0995 20.9242
347 1 12.2006 16.305 18.0513
348 1 12.5601 16.5448 20.8634
349 1 12.676 19.1537 18.0964
350 1 12.1113 19.122 21.0774
351 1 1.09518 21.7423 18.1979
352 1 3.83699 21.9639 18.0678
353 1 3.84678 22.0157 20.9914
354 1 1.33722 21.4593 21.5388
355 1 6.79108 21.9664 18.2044
356 1 9.61087 21.8937 18.157
357 1 9.64378 22.0328 20.9885
358 1 6.68315 22.044 21.0989
359 1 12.3275 21.6567 18.3812
360 1 12.5453 21.9914 21.2142
361 1 1.23445 -0.748894 23.5975
362 1 3.96565 1.9349 23.8102
363 1 4.04139 -0.845627 23.7388
364 1 1.10233 -0.651558 26.8328
365 1 1.02267 2.12961 24.0339
366 1 3.99495 2.07957 21.069
367 1 4.0504 2.04492 26.5047
368 1 1.09606 2.0843 26.8437
369 1 6.88548 -0.922809 23.7975
370 1 9.9336 -0.623557 23.9802
371 1 9.61102 -0.680856 26.8017
372 1 4.06299 -0.837074 26.5829
373 1 6.81279 2.12192 23.8528
374 1 9.52342 2.14612 23.9082
375 1 9.79859 1.88857 26.7575
376 1 6.70526 1.94121 26.6336
377 1 12.6376 -0.617681 24.0062
378 1 12.6542 -0.790698 26.5032
379 1 12.291 2.10232 23.9721
380 1 12.5444 1.90516 26.55
381 1 1.24767 4.9305 23.7633
382 1 4.18434 4.90756 23.8485
383 1 3.93952 5.05514 26.5699
384 1 1.01546 4.651 26.5028
385 1 1.07482 7.65498 23.5843
386 1 3.80775 7.69002 23.9071
387 1 3.74199 7.89527 27.0398
388 1 1.25927 7.6597 26.4081
389 1 7.09158 4.98318 23.9422
390 1 9.63349 4.88232 24.0445
391 1 9.68316 5.01042 26.9145
392 1 6.74076 4.85273 26.7371
393 1 6.66585 7.83544 24.0903
394 1 9.50177 7.78336 23.7164
395 1 9.5371 7.7456 26.6397
396 1 6.72764 7.78407 26.8265
397 1 12.3497 5.01027 23.8433
398 1 12.4879 5.04644 26.7292
399 1 12.5112 7.71917 23.8731
400 1 12.344 7.74701 26.7668
401 1 1.44734 10.5223 23.9044
402 1 4.07405 10.3098 24.0097
403 1 3.81846 10.8106 26.7758
404 1 0.999718 10.5322 26.7128
405 1 1.10263 13.2362 23.9524
406 1 4.07135 13.0049 23.7525
407 1 4.01812 13.5094 26.8489
408 1 1.49203 13.4294 26.9023
409 1 6.78141 10.5164 24.1042
410 1 9.52225 10.5395 24.0689
411 1 9.4604 10.6287 26.7702
412 1 6.46869 10.5646 26.8483
413 1 6.82611 13.3682 23.7865
414 1 9.61267 13.3369 24.0162
415 1 9.80441 13.6596 26.8067
416 1 6.8847 13.3322 26.8213
417 1 12.2823 10.6229 24.0727
418 1 12.4221 10.5992 27.0177
419 1 12.773 13.3424 23.9419
420 1 12.6775 13.3318 26.786
421 1 0.991161 16.0979 23.9719
422 1 3.95184 15.7797 23.7466
423 1 3.84502 16.3425 26.4619
424 1 1.28732 16.1672 26.7326
425 1 1.24023 19.0628 23.954
426 1 4.0925 18.8856 24.1073
427 1 3.83133 18.9544 26.8693
428 1 0.995482 19.065 26.7166
429 1 6.62427 16.2535 23.7308
430 1 9.88587 19.2462 24.5679
431 1 9.39838 16.2803 26.6758
432 1 6.67957 16.2109 26.6706
433 1 6.83725 19.1771 23.8776
434 1 12.5445 18.8615 26.668
435 1 9.75066 19.1621 27.1573
436 1 6.76995 19.1398 26.7034
437 1 12.7624 16.5661 24.0927
438 1 12.4799 16.185 26.8253
439 1 12.8654 19.4679 23.5814
12153 2 2.61151 -2.08663 19.7079
441 1 1.32215 21.6711 24.1924
442 1 4.09099 21.8345 23.855
443 1 4.02915 21.8639 26.7576
444 1 1.27151 21.7817 26.9274
445 1 7.01569 21.838 23.7496
446 1 9.62778 21.9919 23.6917
447 1 9.75357 21.9789 26.8345
448 1 6.78868 21.9476 26.69
449 1 12.5297 22.1636 23.9346
450 1 12.5422 21.7032 26.7643
12128 2 8.3939 -2.17915 13.8879
12250 2 11.2052 23.404 25.6324
12141 2 2.59903 14.7157 14.159
15241 2 13.9019 23.4609 22.816
12159 2 11.142 -2.04319 16.7631
12227 2 8.07987 9.16981 25.4183
12249 2 11.0524 20.5443 22.7715
12226 2 8.39931 11.9562 22.5506
12225 2 5.74192 9.16556 22.5457
15141 2 13.8727 14.7081 14.0533
12223 2 2.60747 9.20972 25.5999
12248 2 5.32837 23.3405 25.2554
12222 2 2.56804 12.1065 22.3907
12228 2 5.35486 12.0782 25.2483
12244 2 -0.186754 23.1614 25.0871
12220 2 10.8956 6.38664 25.3229
12247 2 8.30599 20.7148 25.3075
12181 2 -0.192032 14.7327 17.0568
12140 2 11.1245 12.0582 13.9628
9 1 6.77798 -0.742858 26.6749
12219 2 11.0155 3.47462 22.4998
12246 2 8.3888 23.4237 22.4731
12134 2 5.4496 6.08995 14.0322
12218 2 5.45081 6.33791 25.4245
15231 2 13.8178 17.656 22.4312
12245 2 5.37488 20.4931 22.4738
12152 2 2.7302 0.778434 16.9083
12154 2 -0.195992 0.627837 19.5696
12243 2 2.60449 20.3205 25.4592
15181 2 13.6787 17.6714 16.8825
12156 2 8.27585 0.522276 16.8045
15126 2 13.8875 -1.97498 14.1022
12158 2 5.57389 0.693808 19.652
12209 2 11.2872 -2.08695 22.4373
12160 2 11.1498 0.585099 19.7444
12242 2 2.45917 23.2204 22.5323
12162 2 2.65072 6.24968 16.7419
12163 2 2.61264 3.34408 19.5137
12240 2 11.0474 17.3734 25.3653
12165 2 5.6546 3.43282 16.9286
12166 2 8.4119 6.30007 16.6702
12167 2 8.5532 3.33102 19.6982
12168 2 5.5266 6.36037 19.6553
12169 2 11.1075 3.47462 16.8539
12170 2 10.9416 6.32472 19.5276
12239 1 9.49296 16.5671 24.1563
12172 2 2.69564 11.9489 16.7177
12173 2 2.65233 9.04863 19.3042
12238 2 5.47744 17.6527 25.2956
12175 2 5.50559 9.16982 16.7432
12176 2 8.39116 12.0097 16.769
12177 2 8.36177 9.21273 19.6594
12178 2 5.45553 12.0226 19.5231
12179 2 11.2266 9.35326 16.872
12180 2 11.2258 11.9576 19.6762
12237 2 8.25147 14.8739 25.3062
12182 2 2.63805 17.6123 16.9768
12183 2 2.51309 14.7137 19.7315
12236 2 8.23622 17.581 22.4121
12185 2 5.50495 14.8701 16.7591
12186 2 8.10473 17.6292 16.9337
12187 2 8.43854 14.7337 19.6889
12188 2 5.42536 17.6076 19.619
12189 2 11.0106 14.7022 16.8263
12190 2 10.9876 17.6963 19.6532
12235 2 5.53826 14.6074 22.3121
12192 2 2.38141 23.1545 16.7549
12193 2 2.71165 20.3959 19.73
15221 2 13.8669 12.0481 22.468
12195 2 5.27236 20.5496 16.5628
12196 2 8.26446 23.4531 16.8266
12197 2 8.13263 20.622 19.7046
12198 2 5.33068 23.2962 19.4785
12199 2 10.9092 20.4179 16.7212
12200 2 11.1113 23.0539 19.8113
12233 2 2.50731 14.686 25.37
12202 2 2.58937 0.7587 22.4721
12146 2 2.48412 20.254 14.0347
12232 2 2.59314 17.4576 22.4382
12203 2 2.54774 -2.00247 25.1746
12206 2 8.53337 0.585972 22.4642
15222 2 13.5488 9.13231 25.3467
12208 2 5.41698 0.501987 25.1175
15192 2 13.6188 20.3627 19.7714
12210 2 11.1662 0.598763 25.398
12230 2 11.0384 12.1184 25.3939
12212 2 2.82134 6.04335 22.3906
12213 2 2.46964 3.55286 25.27
12229 2 11.0431 9.21429 22.6221
12215 2 5.66233 3.38561 22.4195
12216 2 8.28474 6.17556 22.5257
12217 2 8.07451 3.47117 25.2567
15162 2 13.904 3.69776 19.6002
12224 2 -0.16887 11.8486 25.165
12201 2 -0.178591 -2.15439 22.3086
12133 2 8.2759 3.47679 13.9595
12149 2 5.27643 23.3265 13.9875
12011 2 -0.196889 3.42153 28.0087
12207 2 8.33759 -1.99043 25.3892
12046 2 8.21221 23.3008 28.0967
12015 2 5.42375 3.25284 27.8929
15182 2 13.8147 14.9463 19.6097
15171 2 13.8171 11.8489 16.8639
15212 2 13.8582 3.69719 25.4999
12130 2 11.3751 0.77925 13.9766
15191 2 13.9521 23.175 16.7756
12211 2 -0.124296 3.44378 22.4139
12214 2 -0.271086 6.29791 25.0548
12194 2 -0.177556 23.1753 19.5452
15211 2 13.7834 6.50695 22.4837
12148 2 8.05106 20.5329 14.0841
15146 2 13.9041 20.3922 14.1182
15172 2 13.8458 9.3533 19.7042
15151 2 13.8812 0.558532 16.7634
12184 2 -0.133681 17.5941 19.6729
12143 2 8.19606 14.8667 14.0183
12139 2 5.60713 11.9047 13.9718
12138 2 8.38685 9.13093 13.977
15001 2 13.916 0.617311 28.0304
451 1 1.2709 24.6831 1.31845
452 1 4.06582 24.8742 1.32216
453 1 3.85919 24.8058 4.06564
454 1 1.15608 24.7543 4.43147
455 1 6.76705 24.7831 1.25592
456 1 9.51318 24.9243 1.49055
457 1 9.70182 24.7407 4.16203
458 1 6.78342 24.6267 4.07909
459 1 12.6129 24.9382 1.2842
460 1 12.4396 24.7862 3.94988
461 1 0.847267 27.4704 1.28761
462 1 3.75012 27.4655 1.21176
463 1 3.68521 27.711 4.06811
464 1 1.09498 27.5884 4.15341
15282 2 13.8479 43.1095 2.61775
466 1 3.96375 30.4748 1.42768
467 1 3.80371 30.4287 4.30746
468 1 1.269 30.3474 6.92652
469 1 6.51228 27.5737 1.06613
470 1 9.35774 27.5096 1.33553
471 1 9.63406 27.3928 4.15292
472 1 6.43413 27.4767 3.91012
473 1 6.71431 30.4414 1.40321
474 1 9.54323 30.3538 1.42254
475 1 9.55166 30.2816 4.17898
476 1 6.61148 30.1762 4.18791
477 1 12.3817 27.516 4.13344
478 1 12.3029 30.549 4.06365
12286 2 8.29362 45.8762 -0.0128416
480 1 12.382 33.2065 4.21136
481 1 1.05757 33.1464 1.24951
482 1 3.93612 33.3233 1.30394
483 1 3.81085 33.1875 4.16948
484 1 1.21769 35.921 4.13528
12256 2 8.09148 29.0261 -0.0753946
486 1 4.23957 35.8325 1.17604
487 1 4.13198 36.028 4.22146
15252 2 13.7438 26.2911 2.6288
489 1 6.79857 33.1641 1.35135
490 1 9.61971 33.1916 1.3153
491 1 9.4573 33.2601 4.20959
492 1 6.73654 33.099 3.99676
493 1 6.8426 35.9429 1.26032
494 1 9.89871 35.8732 1.26782
495 1 9.61819 36.1049 4.11332
496 1 6.78668 35.9357 4.00843
497 1 12.3586 33.278 1.30972
498 1 12.5441 36.0649 4.19168
15378 2 13.9015 42.9615 13.8991
12269 2 10.861 31.7413 -0.098804
501 1 0.908733 39.0123 1.37073
502 1 4.18493 38.7766 1.41057
503 1 3.96848 38.7639 4.41296
504 1 2.57698 40.227 2.75958
505 1 1.08064 41.8983 1.28315
506 1 4.0965 41.9371 1.35446
507 1 4.08939 41.7159 4.28956
508 1 1.09916 41.8583 4.28714
509 1 6.9347 38.8188 1.2516
510 1 9.88706 38.6379 1.47324
511 1 9.39253 38.8741 3.95038
512 1 6.71944 38.6468 4.2026
513 1 6.79624 41.7943 1.18445
514 1 9.67224 41.5956 1.25909
515 1 9.48585 41.629 4.35798
516 1 6.89538 41.8397 4.08981
15296 2 13.8597 28.9548 5.48359
15336 2 13.8459 48.5591 8.19513
519 1 12.6246 41.7878 1.21636
520 1 12.3256 41.5526 4.02803
521 1 1.39324 44.5321 1.46508
522 1 4.15543 44.6813 1.2349
523 1 3.6769 44.3836 4.29129
524 1 0.810456 44.6867 4.28351
525 1 1.37547 47.3397 1.26996
526 1 4.16056 47.3226 1.54659
527 1 3.95381 47.3594 4.36481
528 1 1.18471 47.35 4.09864
529 1 6.90226 44.5616 1.10497
530 1 9.70207 44.3848 1.26045
531 1 9.48709 44.4387 4.01855
532 1 6.73802 44.5265 3.99687
533 1 6.87118 47.1673 1.52668
534 1 9.6815 47.1724 1.24985
535 1 9.40104 47.1786 4.11545
536 1 6.59463 47.2101 4.41658
537 1 12.4103 44.4743 1.25394
538 1 12.4979 44.5552 3.95976
539 1 12.4801 47.2382 1.22543
540 1 12.2951 47.1524 4.06684
541 1 0.727966 24.8676 7.23053
542 1 4.12449 24.9021 6.90971
543 1 3.78614 24.7085 9.7847
544 1 0.913409 24.6486 9.70493
545 1 6.84545 24.8077 6.86092
546 1 9.73922 24.6895 7.06413
547 1 9.42777 24.7055 9.8602
548 1 6.55471 24.7638 9.69425
549 1 12.4905 24.5508 6.89627
550 1 12.3846 24.698 9.83059
551 1 1.12806 27.6826 6.88207
552 1 3.89159 27.5907 6.89025
553 1 4.05748 27.306 9.6323
554 1 1.12623 27.368 9.7562
555 1 1.03961 33.2044 3.96861
556 1 4.33646 30.3523 7.00052
557 1 3.94695 30.1319 9.85517
558 1 1.1766 30.1854 9.75514
559 1 6.70661 27.483 6.73013
560 1 9.6429 27.6199 6.94252
561 1 10.0385 27.4826 9.63589
562 1 6.93641 27.6094 9.56535
563 1 7.05028 30.246 6.95228
564 1 9.64811 30.5185 7.02503
565 1 9.69209 30.0815 9.80207
566 1 7.03641 30.36 9.68534
567 1 12.3412 27.6001 6.86013
568 1 12.6498 27.5338 9.83839
569 1 12.4344 30.3704 6.83588
570 1 12.8136 30.4667 9.86852
571 1 0.889681 35.8385 7.0371
572 1 3.85597 33.1028 7.12295
573 1 3.7208 32.8252 9.96491
574 1 0.916115 33.0723 9.86571
575 1 0.964541 38.7102 4.18407
576 1 3.82656 35.9289 6.82106
577 1 3.71439 35.8298 9.50503
578 1 0.980417 35.9494 9.76764
579 1 6.54179 33.1396 6.70399
580 1 9.81807 33.1471 7.2635
581 1 9.6036 33.0393 9.86506
582 1 6.55692 33.1755 9.78924
583 1 6.44135 35.7618 6.76132
584 1 9.66608 35.8595 6.66073
585 1 9.81003 35.8275 10.2089
586 1 6.70693 35.8307 9.70308
587 1 12.6973 33.1476 6.84205
588 1 12.4396 33.2893 9.77557
589 1 12.5937 36.0357 7.11622
590 1 12.6058 36.2649 9.90183
591 1 1.11925 38.907 6.96121
592 1 3.87682 39.0444 7.08087
593 1 3.71235 38.5541 9.72268
594 1 1.07418 38.8392 9.93962
595 1 1.21784 41.5565 7.11807
596 1 4.08054 41.8058 7.07682
597 1 3.90249 41.6302 9.74417
598 1 1.18979 41.6814 10.0526
599 1 6.62678 38.9286 6.78514
600 1 10.1225 38.9428 6.49279
601 1 10.126 38.9499 9.82411
602 1 6.6851 39.1928 9.75663
603 1 6.86517 41.7684 6.95462
604 1 9.55489 41.6373 7.00095
605 1 9.63742 44.4995 9.91073
606 1 7.0079 41.7032 9.67256
607 1 12.8285 38.9171 6.96474
608 1 12.766 39.015 9.51585
609 1 12.5272 41.7414 6.80897
610 1 12.7337 41.7998 9.50543
611 1 1.33182 44.5965 7.06706
612 1 4.35904 44.6848 6.84287
613 1 4.05501 44.4155 9.79397
614 1 1.04793 44.5295 10.043
615 1 1.11031 47.3137 6.89532
616 1 3.92661 47.3544 7.10586
617 1 4.00726 47.221 10.1723
618 1 1.16592 47.2455 9.70873
619 1 6.97375 44.4753 7.23877
620 1 9.70282 44.4859 6.98452
621 1 9.7573 47.2714 9.74102
622 1 6.80694 44.6075 9.80904
623 1 6.6908 47.1549 7.06584
624 1 9.59684 47.3323 6.96595
12262 2 2.55956 34.6356 -0.077865
626 1 6.74563 47.5182 9.70902
627 1 12.5814 44.7079 7.05665
628 1 12.4936 44.3755 9.79089
629 1 12.2794 47.2249 6.70814
630 1 12.6767 47.3688 9.69279
631 1 1.00193 24.7729 12.69
632 1 4.00254 24.6485 12.7399
633 1 6.54202 24.6837 12.5627
634 1 9.35647 24.5872 12.6738
635 1 12.3554 24.7752 12.6338
636 1 1.27845 27.4528 12.487
637 1 4.1118 27.488 12.6179
638 1 0.957028 30.242 12.2508
639 1 3.94108 30.4044 12.6832
640 1 6.81015 27.4631 12.5391
641 1 9.81569 27.5502 12.4838
642 1 6.84621 30.1734 12.5808
643 1 9.50335 30.3352 12.4408
644 1 12.9752 27.6921 12.5996
645 1 12.1001 30.3578 12.7403
646 1 1.1736 33.1141 12.8199
647 1 3.96274 33.0607 12.7944
648 1 1.28586 36.0661 12.543
649 1 4.17981 35.8885 12.2922
650 1 6.96453 33.0527 12.5502
651 1 9.65567 33.0821 12.72
652 1 6.84488 35.8768 12.6294
653 1 9.58469 36.1625 12.7823
654 1 12.3061 33.1325 12.6153
655 1 12.3715 35.9328 12.6523
656 1 1.19039 38.8711 12.5929
657 1 4.1362 38.617 12.6851
658 1 1.06481 41.661 12.6699
659 1 4.0832 41.5402 12.4233
660 1 6.88398 38.7532 12.4685
661 1 9.74176 39.0455 12.7488
662 1 7.05083 41.4381 12.3769
663 1 9.80686 41.744 12.4041
664 1 12.721 38.9776 12.5668
665 1 12.4756 41.8773 12.5873
666 1 1.20821 44.4123 12.6189
667 1 4.17187 44.4563 12.5268
668 1 1.21832 47.173 12.5707
669 1 4.05461 47.2934 12.7915
670 1 6.99188 44.5351 12.9623
671 1 9.79387 44.6589 12.6281
672 1 6.97374 47.3157 12.3244
673 1 9.5856 47.5971 12.7042
674 1 12.5089 44.5297 12.524
675 1 12.4874 47.2631 12.6204
12363 2 11.1655 48.8061 11.191
6484 1 12.4436 38.7204 0.975787
12253 2 2.46248 26.2557 2.75993
12362 2 5.42874 48.8009 11.3126
6451 1 12.4 27.5678 1.2862
910 1 9.63914 50.2327 1.27823
12257 2 7.96673 26.3543 2.64984
12258 2 5.15928 29.0232 2.51631
15261 2 13.9141 34.265 -0.195789
12260 2 11.0194 28.8891 2.785
12266 2 8.24954 34.546 -0.0245978
12265 2 5.28085 31.8348 -0.0653927
12263 2 2.54095 31.9411 2.66324
12360 2 11.1551 43.0512 11.1175
15316 2 13.8102 40.1093 5.47899
488 1 1.35649 36.1055 1.41539
12267 2 8.10942 31.6172 2.81814
12268 2 5.50781 34.5795 2.78122
12295 2 11.0234 48.7105 -0.0346451
12270 2 10.8286 34.6254 2.87303
12359 2 8.29477 45.8923 11.2558
12272 2 2.59945 40.2433 0.123983
12273 2 2.69797 37.5691 2.84137
12358 2 5.55158 42.971 11.2386
12350 2 11.0093 31.7939 11.1264
12336 2 -0.122453 48.7313 5.58876
12277 2 8.01241 37.4231 2.72151
12278 2 5.10788 40.2205 2.83172
15291 2 13.7462 48.7392 2.71772
12280 2 11.0206 40.3388 2.70252
465 1 1.22479 30.332 1.25307
12377 2 5.52123 40.0714 13.8315
12283 2 2.66781 43.0362 2.86806
12285 2 5.52724 43.2218 -0.0767659
500 1 12.2397 38.7835 4.00665
15351 2 13.9777 40.3012 11.0088
12287 2 8.08876 43.0734 2.62687
12288 2 5.29769 45.8699 2.99503
6461 1 12.4467 30.4253 1.34005
12290 2 11.037 45.7704 2.67839
15297 2 13.744 26.0655 8.41604
12292 2 2.69941 48.8613 2.90951
12352 2 2.64212 40.1217 11.0943
12294 2 8.04598 48.694 2.79736
12284 2 -0.116733 45.9428 2.78397
12357 2 2.68306 45.7322 11.3595
12297 2 2.54042 29.0398 5.64567
12298 2 2.55052 25.9797 8.25786
12299 1 0.988669 33.1018 6.8133
12300 2 5.22396 26.231 5.41793
12301 2 8.22151 28.9485 5.56045
12302 2 8.22547 25.9999 8.31112
12303 2 5.56756 28.8644 8.20561
12304 2 11.3118 26.1272 5.49864
12305 2 11.131 28.9126 8.23381
15307 2 13.913 31.7202 8.28824
12307 2 2.45351 34.4379 5.60911