ITEM: TIMESTEP
150000
ITEM: NUMBER OF ATOMS
18000
ITEM: BOX BOUNDS xy xz yz pp pp pp
-2.0302067770219970e-01 2.8097020677701654e+01 0.0000000000000000e+00
-2.2928008760100291e+00 3.3702080087600996e+02 0.0000000000000000e+00
-1.9404475457095455e-01 2.8088044754571278e+01 0.0000000000000000e+00
ITEM: ATOMS id type x y z
1 1 1.08684 -0.974992 1.24379
2 1 4.05877 -1.3395 1.48521
3 1 3.66622 -1.23167 4.09252
4 1 0.955046 -1.12198 4.11086
5 1 1.16952 1.76504 1.17411
6 1 4.14473 1.6046 1.1775
7 1 3.69989 1.62675 4.03222
8 1 0.883965 2.01986 4.06068
15061 2 13.7277 6.14888 5.63783
10 1 9.68113 -1.22596 1.26477
11 1 9.59117 -0.898167 4.26841
12 1 6.69287 -0.892662 4.17578
13 1 6.74941 1.64664 1.24319
14 1 9.52869 1.70532 1.05023
15 1 9.76431 1.95886 3.99265
16 1 6.70372 1.92107 4.10377
17 1 12.484 -0.936726 1.31991
18 1 12.3102 -0.977155 4.08078
19 1 12.3019 1.79411 1.02816
20 1 12.4063 1.84009 3.97119
21 1 0.960555 4.66153 1.32363
22 1 3.83343 4.51636 1.20305
23 1 4.0028 4.47107 4.29494
24 1 1.00106 4.69868 4.05188
25 1 1.18737 7.63627 1.19918
26 1 3.96917 7.26726 1.29214
27 1 3.83323 7.65717 4.15099
28 1 1.17566 7.48056 4.17331
29 1 6.86444 4.58688 1.36825
30 1 9.61688 4.6332 1.50494
31 1 9.34686 4.83437 4.06174
32 1 6.64181 4.6034 4.07629
33 1 6.64053 7.39432 1.32599
34 1 9.52383 7.50401 1.37409
35 1 9.5124 7.77438 3.99378
36 1 6.70382 7.4403 4.22022
37 1 12.3578 4.84801 1.25847
15116 2 13.8184 17.3977 11.2593
39 1 12.3261 8.20325 1.68796
40 1 12.1805 7.34207 4.3028
41 1 1.26412 10.4678 1.15047
42 1 3.88626 10.1467 1.10111
43 1 3.83113 10.4706 3.86552
44 1 0.969959 10.6081 4.02332
45 1 1.10824 13.0524 1.39012
46 1 4.14669 13.0919 1.42296
47 1 3.99457 13.2086 4.21522
48 1 0.96223 13.3214 4.18621
49 1 6.67803 10.3576 1.2592
50 1 9.57351 10.334 1.42984
51 1 9.81052 10.3881 4.0853
52 1 6.84641 10.1608 3.9699
53 1 6.81922 13.0774 1.2728
54 1 9.56733 13.1253 1.27619
55 1 9.41202 13.016 3.94337
56 1 6.67796 13.1661 4.14804
57 1 12.585 10.8313 1.52183
58 1 12.6551 10.1059 4.4256
59 1 12.3382 13.3685 1.21487
60 1 12.3197 13.0578 4.19965
61 1 0.965805 15.8427 1.2729
62 1 3.90667 16.1624 1.22209
63 1 3.74885 16.0403 3.96249
64 1 0.649153 15.8203 3.78103
65 1 1.23109 18.7362 1.11197
66 1 3.84372 18.7063 1.29633
67 1 4.07199 18.9949 3.95521
68 1 1.04415 18.6547 3.94155
69 1 6.93134 15.8433 1.25092
70 1 9.58299 15.914 1.46044
71 1 9.42844 15.9717 3.96313
72 1 6.76382 16.0574 4.20917
73 1 6.63668 18.8049 1.3652
74 1 9.59538 18.7677 1.15105
75 1 9.64563 18.9976 4.04895
76 1 6.68885 18.8117 4.28185
77 1 12.3036 16.2648 1.27257
78 1 12.3115 15.9952 4.11487
15021 2 13.7732 12.0401 -0.040642
80 1 12.3357 18.8444 4.20851
81 1 1.0448 21.6778 1.13629
82 1 3.87969 21.6817 1.23954
83 1 3.89609 21.8812 4.1132
84 1 1.1047 21.3371 3.93193
85 1 6.59109 21.5711 1.12106
86 1 9.702 21.6262 1.11337
87 1 9.40131 21.7259 3.83639
88 1 6.68093 21.6012 3.80418
89 1 12.3646 21.6033 1.32713
90 1 12.414 21.5583 4.07209
91 1 1.05751 -0.885738 6.97581
92 1 3.71337 -1.05627 6.91817
93 1 3.86666 -0.984743 9.74367
94 1 1.13103 -0.924087 9.83642
95 1 0.919453 2.02879 6.93467
96 1 3.72827 1.68845 6.73392
97 1 3.94688 1.83126 9.70869
98 1 1.18625 1.79821 9.62775
99 1 6.51606 -0.730955 6.78109
100 1 9.49699 -0.805564 7.07248
101 1 9.57348 -0.861475 9.90118
102 1 6.7589 -0.9582 9.56749
103 1 6.56655 1.87706 7.22804
104 1 9.29532 1.95659 6.71721
105 1 9.686 1.95856 9.88887
106 1 6.74472 1.85574 9.92533
107 1 12.3445 -0.813205 6.77763
108 1 12.3936 -1.04102 9.65103
109 1 12.2578 1.92037 6.92608
110 1 12.5734 1.85699 9.74964
111 1 1.09666 4.8301 6.84975
112 1 3.89499 4.72755 6.98366
113 1 3.79307 4.58306 9.77195
114 1 0.863831 5.05112 9.69324
115 1 0.975369 7.53493 6.88398
116 1 3.91142 7.71564 6.87856
117 1 3.90248 7.51701 9.42871
118 1 1.11183 7.74333 9.81571
119 1 6.69836 4.66884 7.05249
120 1 9.29289 4.64131 6.77652
121 1 9.67097 4.83652 9.68635
122 1 6.54301 4.79337 10.0354
123 1 6.91983 7.66691 6.81953
124 1 9.53816 7.4976 6.88075
125 1 9.51766 7.67208 9.605
126 1 6.61829 7.59145 9.68088
127 1 12.3625 4.8026 6.92819
128 1 12.4495 4.74715 9.55956
129 1 12.3248 7.70327 7.10439
130 1 12.3888 7.50456 9.81156
131 1 1.02013 10.3821 6.75693
132 1 3.73289 10.6064 6.87175
133 1 3.95822 10.1402 9.79219
134 1 1.15313 10.7193 9.82196
135 1 0.90401 13.2513 6.88392
136 1 3.85895 13.3031 6.98371
137 1 3.92982 13.0548 9.82712
138 1 0.970261 13.336 9.57099
139 1 6.56336 10.3838 6.63341
140 1 9.41331 10.3657 7.12912
141 1 9.66606 10.2442 9.74126
142 1 6.87648 10.4326 9.51516
143 1 6.50335 13.1075 6.95042
144 1 9.47993 13.2793 6.98472
145 1 9.3746 13.0589 9.73451
146 1 6.64651 13.2168 9.70516
147 1 12.1189 10.3614 7.04037
148 1 12.5301 10.4421 9.68465
149 1 12.1847 13.2633 7.05309
150 1 12.0922 13.3818 9.57115
151 1 1.09719 15.8442 6.66512
152 1 3.94959 16.052 6.8728
153 1 3.98312 15.8128 9.7466
154 1 1.12059 16.3846 9.65726
155 1 1.06249 18.5679 6.76255
156 1 3.6511 18.9865 6.68556
157 1 3.79586 18.7262 9.42509
158 1 1.21044 19.0443 9.85646
159 1 6.5863 15.9695 6.94126
160 1 9.56042 15.9793 7.00141
161 1 9.28649 15.9422 9.61809
162 1 6.69684 16.0793 9.7765
163 1 6.77728 18.6771 7.14475
164 1 9.60514 18.6972 6.73323
165 1 9.33345 18.7612 9.69457
166 1 6.64134 18.8515 9.66069
167 1 12.2698 15.9783 6.97759
168 1 12.2461 15.9907 9.80144
169 1 12.2379 18.6271 7.06274
170 1 12.4913 18.8707 9.75544
171 1 0.883862 21.713 6.84627
172 1 3.73715 21.7587 6.81486
173 1 3.76049 21.4464 9.6999
174 1 0.877241 21.8392 9.558
175 1 6.6086 21.5482 6.89836
176 1 9.30661 21.5485 6.7483
177 1 9.59836 21.6034 9.54316
178 1 6.86282 21.8814 9.7443
179 1 12.2686 21.4628 6.93007
180 1 12.3297 21.7523 9.73496
181 1 1.00993 -0.963852 12.5477
182 1 3.88426 -0.758418 12.5272
183 1 0.990576 1.97012 12.3156
184 1 3.75775 2.03146 12.5385
185 1 6.49964 -0.90438 12.6679
186 1 9.6468 -0.863088 12.7692
187 1 6.79204 1.86805 12.5895
188 1 9.64914 1.92473 12.7076
189 1 12.333 -0.727266 12.3514
190 1 12.515 2.14519 12.6426
191 1 1.19875 4.7579 12.5038
192 1 3.98385 4.74377 12.554
193 1 1.16427 7.41613 12.7353
194 1 3.86559 7.52359 12.4326
195 1 6.71626 4.69407 12.8421
196 1 9.65998 4.71221 12.5884
197 1 6.69101 7.65013 12.6415
198 1 9.59364 7.55323 12.5582
199 1 12.3792 4.99436 12.4746
200 1 12.5962 7.71626 12.6009
201 1 1.44058 10.2733 12.7343
202 1 4.07146 10.3301 12.5005
203 1 1.18584 13.4491 12.5052
204 1 3.95398 13.2677 12.6629
205 1 6.96578 10.236 12.3167
206 1 9.69869 10.6282 12.6009
207 1 6.75745 13.1627 12.766
208 1 9.66251 13.3682 12.5162
209 1 12.537 10.411 12.6978
210 1 12.3382 13.1255 12.4076
211 1 1.31326 16.1004 12.6145
212 1 3.97245 15.9267 12.5367
213 1 0.923424 18.8961 12.6343
214 1 3.99558 18.8965 12.3732
215 1 6.8862 15.9766 12.6802
216 1 9.65111 16.2747 12.6512
217 1 6.79449 18.8679 12.5258
218 1 9.47551 19.1309 12.3411
219 1 12.4884 15.9221 12.7316
220 1 12.4139 18.8064 12.6555
221 1 1.1305 21.7533 12.5838
222 1 3.99736 21.4709 12.6422
223 1 6.75643 21.6606 12.3453
224 1 9.59749 21.8116 12.2921
225 1 12.2418 21.6126 12.5618
38 1 12.1785 4.516 4.03035
5633 1 6.94302 -1.08673 1.32397
12012 2 2.56655 5.95284 -0.053614
12111 2 -0.190279 9.04919 11.0661
12029 2 11.0245 8.79291 -0.100453
12014 2 -0.209467 6.10884 2.65963
12019 2 10.9075 3.19132 -0.198311
12008 2 5.40371 0.174066 2.80734
15002 2 13.8257 -2.34322 2.78864
12010 2 10.8881 0.343605 2.62609
12125 2 10.9966 20.1849 11.0729
12045 2 5.31445 20.3989 -0.246413
12013 2 2.45876 3.13063 2.79857
12124 2 8.17374 23.1928 10.9499
15012 2 13.6526 3.07211 2.55518
12150 2 11.0178 23.1159 13.835
12017 2 8.05617 3.22157 2.77856
12018 2 5.31781 6.03751 2.69679
79 1 12.3404 18.8319 1.17428
12020 2 10.9532 6.19443 2.82216
12113 2 5.40956 8.88951 11.0654
12104 2 8.06482 0.397511 11.2273
12023 2 2.49272 8.97654 2.72511
15031 2 13.7478 17.4549 -0.0112765
15106 2 13.7943 6.3117 11.1456
12107 2 2.58234 6.2707 11.0108
12027 2 8.29463 8.96111 2.72321
12028 2 5.51648 11.7416 2.76245
12103 2 5.19338 -2.2399 11.1667
12030 2 11.0235 11.7405 2.66512
12102 2 2.5202 0.432676 11.092
12114 2 8.05359 11.7151 11.0058
12033 2 2.55641 14.6411 2.51944
12016 2 8.20744 6.04099 0.191392
12100 2 10.916 23.0274 8.29248
12099 2 10.9683 20.1413 5.64783
12037 2 8.13241 14.5178 2.63311
12038 2 5.26834 17.3889 2.63133
12098 2 5.1828 23.0368 8.1009
12040 2 10.8839 17.4445 2.68515
12097 2 8.09292 20.1311 8.26389
15051 2 13.6717 0.548142 5.59144
12043 2 2.58187 20.2884 2.57641
12123 2 5.42369 20.2181 11.153
12096 2 8.1114 23.0098 5.25511
12095 2 5.32967 20.3743 5.57329
12047 2 8.13798 20.1966 2.73715
12048 2 5.10034 23.0918 2.51542
12115 2 11.0516 9.04633 11.2515
12050 2 10.9846 23.0172 2.58146
15071 2 13.6119 11.8864 5.6812
12052 2 2.18226 0.402441 5.65975
12112 2 2.5361 11.7921 11.3032
12122 2 2.57742 23.1602 10.832
12110 2 11.0574 3.37699 11.0904
12056 2 8.27207 0.494653 5.42462
12109 2 8.24632 6.18688 11.1713
12058 2 5.26794 0.307671 8.30292
12108 2 5.26019 3.30542 11.2746
12060 2 11.0572 0.341294 8.38669
12120 2 10.9067 14.7402 11.1258
12062 2 2.55887 6.159 5.65503
12063 2 2.63106 3.07778 8.25973
12119 2 7.93242 17.5267 11.1101
12065 2 5.34124 3.07196 5.65351
12066 2 8.08044 6.15229 5.60989
12067 2 8.20423 3.1801 8.25452
12068 2 5.24247 5.94892 8.41411
12069 2 10.9533 3.12626 5.32132
12070 2 11.0875 6.1089 8.3626
15101 2 13.7343 0.501043 11.1956
12072 2 2.29625 11.8751 5.52574
12073 2 2.43818 9.061 8.25826
12118 2 5.43822 14.5427 11.3101
12075 2 5.35455 8.81446 5.34767
12076 2 8.01735 11.8493 5.6001
12077 2 8.0831 8.90448 8.37984
12078 2 5.19589 11.7146 8.24154
12079 2 10.9102 8.83464 5.62838
12080 2 10.9399 11.6224 8.5228
15001 2 13.8988 0.418378 -0.0732121
12082 2 2.34856 17.3017 5.35513
12083 2 2.72104 14.632 8.30906
12117 2 2.68536 17.4618 11.069
12085 2 5.30225 14.6153 5.48635
12086 2 8.00692 17.3381 5.4792
12087 2 7.95295 14.4691 8.48154
12088 2 5.30863 17.3502 8.24286
12089 2 10.8738 14.4649 5.57855
12090 2 10.7734 17.2653 8.37252
12032 2 2.62708 17.4744 -0.150778
12092 2 2.2002 23.0501 5.49356
12093 2 2.20756 20.0521 8.1827
15081 2 13.6689 17.3283 5.65854
15042 2 13.392 20.0308 2.70067
15091 2 13.6163 23.0306 5.75067
15032 2 13.7185 14.7001 2.67472
12026 2 8.23904 11.6347 -0.106852
12015 2 5.49559 3.25535 0.0201819
15111 2 13.7882 11.7909 11.1821
12002 2 2.77764 0.305414 -0.0730116
15092 2 13.8211 20.1485 8.42106
15062 2 13.7915 3.27299 8.31417
15121 2 13.6485 22.9816 11.1478
12025 2 5.21102 8.79357 -0.0324075
15072 2 13.7912 9.04427 8.39547
15082 2 13.6798 14.5321 8.39246
15041 2 13.7188 23.1627 -0.111892
12039 2 10.8625 14.6378 0.0360355
12146 2 2.58592 20.0329 13.8611
12143 2 8.36854 14.4154 13.9679
12022 2 2.74884 11.8209 -0.0109253
12149 2 5.44394 22.9956 13.5917
12131 2 2.5712 3.27034 13.854
12035 2 5.49209 14.5775 -0.145441
12021 2 -0.0958986 8.9011 -0.0287655
12136 2 2.64591 8.88538 13.9274
15131 2 13.8997 3.40101 13.8896
226 1 3.6534 -0.729878 15.4612
227 1 1.0516 -1.09129 15.3161
228 1 3.86381 2.14635 15.477
229 1 0.911854 1.92263 15.3186
230 1 9.46204 -0.817997 15.6851
231 1 6.74485 -0.997437 15.7304
232 1 9.55165 1.9921 15.6056
233 1 6.6428 1.67605 15.3667
234 1 12.3228 -0.964352 15.4062
235 1 12.626 2.07696 15.6365
236 1 4.1273 4.8365 15.2924
237 1 1.19416 4.87268 15.324
238 1 3.91181 7.5623 15.3693
239 1 1.10396 7.6215 15.5124
240 1 9.61072 4.69643 15.4491
241 1 6.94619 4.43335 15.5668
242 1 9.5006 7.65871 15.5388
243 1 6.71782 7.65966 15.3619
244 1 12.2502 4.94277 15.5354
245 1 12.4401 7.7298 15.4307
246 1 3.83792 10.3982 15.267
247 1 1.14481 10.2853 15.6587
248 1 3.83916 13.2864 15.5379
249 1 1.02008 13.0931 15.541
250 1 9.62437 10.3207 15.4193
251 1 6.8115 10.522 15.469
252 1 9.64264 13.1367 15.3924
253 1 6.74638 13.196 15.3379
254 1 12.3644 10.5437 15.3883
255 1 12.4847 13.47 15.2972
256 1 3.9703 15.8648 15.415
257 1 1.34164 15.943 15.5006
258 1 3.92445 18.5534 15.0759
259 1 1.29867 18.6471 15.359
260 1 9.67063 15.9093 15.3812
261 1 6.85697 15.9823 15.4109
262 1 9.70613 18.8819 15.5
263 1 6.84607 18.876 15.3941
264 1 12.7469 16.1483 15.5043
265 1 12.3723 18.8694 15.4028
266 1 3.96734 21.4684 15.2525
267 1 1.06783 21.5385 15.3201
268 1 9.72796 21.7235 15.3559
269 1 6.81403 21.5242 15.2086
270 1 12.6955 21.9205 15.4373
271 1 1.07046 -0.842972 18.3175
272 1 3.92525 -0.71635 18.3824
273 1 3.67163 -0.720847 21.0503
274 1 0.951931 -0.980029 20.9621
275 1 0.930753 1.94185 18.2276
276 1 3.84268 1.8317 18.2288
277 1 3.95377 5.06802 21.1352
278 1 0.79834 1.87219 20.9987
279 1 6.72604 -0.994745 18.4332
280 1 9.55867 -1.05171 18.5002
281 1 9.44645 -0.978599 21.3634
282 1 6.57534 -0.892727 21.1261
283 1 6.56608 1.81368 18.1528
284 1 9.37886 1.74871 18.3166
285 1 9.74942 1.91419 21.1039
286 1 6.68256 1.89296 21.0447
287 1 12.3288 -1.24381 18.2481
288 1 12.4745 -0.970796 21.0614
289 1 12.3955 1.61329 18.3097
290 1 12.541 1.92622 21.0477
291 1 1.22384 4.54779 17.9341
292 1 3.96695 4.54687 18.145
293 1 3.94011 8.05846 21.0553
294 1 1.20735 4.88373 21.0013
295 1 0.929745 7.25688 18.0779
296 1 3.88866 7.34192 18.2235
297 2 2.34795 9.22649 22.2401
298 1 1.08093 7.94498 20.9263
299 1 6.84355 4.75593 18.5199
300 1 9.73301 4.70327 18.2498
301 1 9.52722 4.51082 21.1224
302 1 6.62578 4.62166 21.1616
303 1 6.79117 7.47101 18.2753
304 1 9.44017 7.56024 18.3801
305 1 9.52312 7.5888 21.304
306 1 6.87341 7.60662 21.056
307 1 12.5259 4.69394 18.2552
308 1 12.3661 4.677 21.0312
309 1 12.255 7.52739 18.2452
310 1 12.5793 7.39425 21.3671
311 1 0.989269 10.2898 18.3741
312 1 4.03239 10.3478 18.2446
313 1 3.46297 10.5016 20.9789
314 1 0.851023 10.623 21.3895
315 1 1.1287 13.2783 18.3586
316 1 3.96489 13.1847 18.1456
317 1 3.93717 13.2879 21.2761
318 1 1.05721 13.2759 21.1374
319 1 6.81046 10.5435 18.4143
320 1 9.71484 10.4157 18.2265
321 1 9.43046 10.4582 21.0194
322 1 6.26037 10.3393 21.0637
323 1 6.84035 13.3161 18.1529
324 1 9.7487 13.2959 18.1472
325 1 9.23584 12.9587 20.7975
326 1 6.77244 13.3488 21.0104
327 1 12.3491 10.3259 18.3342
328 1 12.2942 10.1017 21.1145
329 1 12.5534 13.2249 18.035
330 1 12.6712 12.7795 20.8801
331 1 0.924016 16.0955 18.4035
332 1 3.9812 16.0196 18.1525
333 1 4.01395 16.0671 21.0809
334 1 1.00639 15.991 21.0362
335 1 1.03118 19.0095 18.2807
336 1 4.07556 18.9309 18.0789
337 1 3.91064 18.7262 20.7527
338 1 1.23011 19.1769 21.0148
339 1 6.79491 16.1834 18.2199
340 1 9.70847 16.1978 18.0094
341 1 9.43565 16.266 20.887
342 1 6.62181 16.3102 21.2857
343 1 6.86933 18.9319 18.1866
344 1 9.63543 18.9193 18.3284
345 1 9.59435 18.7763 21.2838
346 1 6.58792 19.211 20.7815
347 1 12.4404 16.0154 18.4497
348 1 12.838 16.2383 21.0484
349 1 12.3695 18.9088 18.0044
350 1 12.3381 19.0779 20.9384
351 1 0.843786 21.7884 17.8603
352 1 3.69319 21.9469 18.3373
353 1 4.0239 21.5371 21.1855
354 1 1.13137 21.8875 20.9568
355 1 6.82115 21.5227 17.9776
356 1 9.4478 22.1388 17.9705
357 1 9.67744 21.7729 20.8776
358 1 6.8557 21.9627 20.6842
359 1 12.4323 21.6364 18.283
360 1 12.4996 21.9243 21.1783
361 1 1.16594 -0.800478 24.1632
362 1 3.65955 1.73111 23.8219
363 1 3.68337 -1.17759 23.9586
364 1 0.981686 -1.26093 26.7373
365 1 0.721637 1.98256 23.8679
366 1 3.92332 2.06758 21.0705
367 1 3.65444 1.79008 26.6432
368 1 0.880347 1.72952 26.6558
369 1 6.66601 -0.789221 23.7191
370 1 9.37579 -0.843027 23.9275
371 1 9.66445 -1.10098 26.5407
372 1 3.66344 -1.1733 26.8445
373 1 6.82057 1.86674 23.9535
374 1 9.78722 1.67987 23.7285
375 1 9.36911 1.71903 26.7264
376 1 6.62862 1.87493 26.6847
377 1 12.3328 -0.932115 24.0231
378 1 12.3083 -0.889284 26.7474
379 1 12.6176 1.96289 23.8484
380 1 12.3748 1.93489 26.5318
381 1 1.00807 4.64517 23.8893
382 1 3.76665 4.58677 24.0134
383 1 3.97257 4.82102 26.8669
384 1 1.06443 4.63446 26.838
385 1 0.964936 7.6067 23.5766
386 1 3.63925 7.74762 23.6927
387 1 3.86163 7.51849 26.6843
388 1 1.14656 7.44589 26.6024
389 1 6.71128 4.69819 24.0174
390 1 9.55617 4.6697 24.1156
391 1 9.46908 4.80599 26.7637
392 1 6.66862 4.80076 26.8459
393 1 6.86413 7.43744 24.1216
394 1 9.57048 7.40833 24.0673
395 1 9.5349 7.56792 26.9267
396 1 6.77757 7.50426 27.0304
397 1 12.3272 4.73352 23.8426
398 1 12.3639 4.64003 26.6541
399 1 12.359 7.66243 24.41
400 1 12.4529 7.56388 27.0308
401 1 1.23833 10.3804 24.0125
402 1 3.88619 10.2545 23.7177
403 1 3.78802 10.2857 26.7063
404 1 0.978372 10.3716 26.4761
405 1 0.868976 13.3715 23.8407
406 1 3.809 13.1608 24.0951
407 1 4.12972 13.2338 26.9074
408 1 1.40989 13.0152 26.7888
409 1 6.67881 10.2769 24.0448
410 1 9.53167 10.2828 23.889
411 1 9.69317 10.0401 26.6682
412 1 6.79928 10.2453 26.6556
413 1 6.81001 13.1208 23.9236
414 1 9.37022 12.9334 24.1424
415 1 9.62155 13.0622 26.9259
416 1 6.9858 13.0181 26.6868
417 1 12.3681 10.2299 24.165
418 1 12.4679 10.4253 27.0509
419 1 12.4551 13.0205 24.0713
420 1 12.4387 13.4507 26.9161
421 1 0.719335 16.1102 24.1194
422 1 3.65633 16.2686 23.8465
423 1 3.75636 16.0736 26.7345
424 1 0.885067 15.8251 26.7567
425 1 1.08747 18.823 23.6528
426 1 3.84606 18.9043 23.8742
427 1 3.89546 18.8996 26.8154
428 1 0.892167 18.8436 26.7816
429 1 6.81746 15.9118 23.9813
430 1 9.70029 19.2242 23.9977
431 1 9.4027 15.9462 27.0078
432 1 6.5681 16.279 26.8504
433 1 6.74705 18.6844 23.5974
434 1 12.432 19.2225 26.7585
435 1 9.4678 19.265 26.8577
436 1 6.74751 19.0083 26.4651
437 1 12.5274 16.2829 24.153
438 1 12.379 16.2599 26.7128
439 1 12.5511 19.173 23.6787
12049 2 11.1166 20.2954 28.1175
441 1 0.936651 21.9307 23.7239
442 1 4.10018 21.8386 23.8576
443 1 3.7863 21.8177 26.6972
444 1 1.06496 21.6516 26.7569
445 1 6.92472 21.734 23.6181
446 1 9.50423 21.9395 23.7047
447 1 9.46654 21.7908 26.3821
448 1 6.72671 21.7193 26.3467
449 1 12.3908 22.0216 24.1748
450 1 12.288 22.1565 26.7996
12138 2 8.2679 8.98439 13.9932
12250 2 10.9307 23.1344 25.2526
15171 2 13.8585 11.8041 16.7972
15151 2 13.8278 0.456478 16.7638
15011 2 13.9087 5.78098 28.0797
12227 2 8.30106 8.9655 25.3579
12249 2 10.946 20.4424 22.3452
12226 2 8.1278 11.7351 22.525
12225 2 5.44822 8.92894 22.6251
12144 2 5.43224 17.3415 14.1216
12223 2 2.29506 8.919 25.3708
12248 2 5.40004 23.2455 25.1308
12222 2 2.38101 12.1261 22.5159
12228 2 5.44782 11.8243 25.3745
12129 2 5.18959 0.547962 14.0115
12220 2 10.9644 6.01292 25.4658
12247 2 8.08736 20.4136 25.1328
12135 2 10.968 6.13748 14.0158
12145 2 11.1171 17.3485 14.0778
9 1 6.79431 -1.15538 26.7455
12219 2 11.0929 3.24606 22.4687
12246 2 8.11874 23.2486 22.357
12139 2 5.34342 11.957 14.0985
12218 2 5.48451 6.13691 25.5464
12134 2 5.29201 6.23559 13.9937
12245 2 5.28494 20.1406 22.3498
12152 2 2.28318 0.524397 16.9494
12157 2 8.00056 -2.29931 19.8479
12243 2 2.37051 20.1255 25.3025
15242 2 13.8645 20.4245 25.2853
12156 2 8.04065 0.374633 16.9491
15232 2 13.5453 14.7059 25.3317
12158 2 5.3346 0.547616 19.7937
15136 2 13.8963 9.06443 14.2095
12160 2 11.1036 0.345693 19.7537
12242 2 2.44147 23.0182 22.3358
12162 2 2.4697 6.08644 16.6237
12163 2 2.54169 3.25492 19.4293
12240 2 11.1046 17.5486 25.2754
12165 2 5.39511 3.21615 16.8675
12166 2 8.37647 5.95901 16.9697
12167 2 8.15767 3.42876 19.7012
12168 2 5.36839 6.13384 19.588
12169 2 11.0498 3.15119 16.9108
12170 2 11.1293 6.20631 19.6963
12239 1 9.41679 16.2431 24.3228
12172 2 2.45423 11.7797 16.8182
12173 2 2.36683 8.82378 19.0534
12238 2 5.27493 17.5222 25.229
12175 2 5.73774 8.91593 16.9042
12176 2 8.18749 11.8801 16.807
12177 2 8.13968 9.11311 19.7479
12178 2 5.1885 11.9548 19.687
12179 2 10.9461 9.02561 16.8152
12180 2 10.9452 11.8162 19.7341
12237 2 8.45436 14.5526 25.3247
12182 2 2.50835 17.5262 16.9933
12183 2 2.40196 14.6261 19.5846
12236 2 8.31149 17.3187 22.5645
12185 2 5.42543 14.4703 16.6892
12186 2 8.23488 17.6284 16.9634
12187 2 8.14931 14.7378 19.6094
12188 2 5.53834 17.5097 19.7001
12189 2 11.0204 14.5862 16.9721
12190 2 11.249 17.5628 19.6578
12235 2 5.41352 14.6075 22.5202
12192 2 2.41549 22.9835 16.6555
12193 2 2.6554 20.2618 19.5932
15192 2 13.7592 20.3832 19.7729
12195 2 5.36935 20.2281 16.6631
12196 2 8.04893 23.3138 16.5926
12197 2 8.2117 20.4345 19.4877
12198 2 5.37845 23.072 19.5737
12199 2 11.0237 20.2947 16.6985
12200 2 11.0084 23.3232 19.5528
12233 2 2.4371 14.7233 25.3796
12202 2 2.14483 0.452002 22.4131
12036 2 8.12486 17.5908 27.9832
12232 2 2.43163 17.4434 22.2253
12148 2 8.32424 20.164 13.9651
12206 2 8.11132 0.581869 22.632
15212 2 13.8125 3.29793 25.2182
12208 2 5.19378 0.269989 25.1884
15241 2 13.7486 23.1981 22.5613
12210 2 11.0261 0.589206 25.3832
12230 2 10.9796 11.9306 25.4138
12212 2 2.36251 5.99925 22.4866
12213 2 2.45154 3.21317 25.3119
12229 2 11.0086 8.81449 22.5925
12215 2 5.25862 3.31833 22.4315
12216 2 8.21674 6.13689 22.4533
12217 2 7.96839 3.38897 25.3903
15162 2 13.8339 3.16959 19.6015
15191 2 13.81 23.1505 16.8768
15181 2 13.9184 17.5318 17.0335
12153 2 2.25937 -2.21773 19.6954
12133 2 8.1653 3.17968 14.0417
15222 2 13.8261 9.04514 25.5872
12140 2 11.1172 11.8703 13.903
15146 2 13.8263 20.2413 14.1407
15126 2 13.8653 -2.26216 14.0222
15141 2 13.8523 14.5183 14.0689
12042 2 2.37297 23.0309 27.9619
12130 2 10.9875 0.529797 14.0722
12128 2 8.00507 -2.28497 14.1688
15152 2 13.8 -2.34033 19.6339
12141 2 2.49624 14.6477 13.9886
15172 2 13.6992 8.76752 19.7609
15201 2 13.7236 0.488383 22.3765
15221 2 13.8358 11.6909 22.5575
12046 2 8.05589 23.1262 27.8194
12006 2 8.24932 0.245842 28.0195
451 1 1.01336 24.4289 0.951719
452 1 3.59001 24.4916 0.980829
453 1 3.55809 24.6127 4.04322
454 1 1.05474 24.2337 3.87574
455 1 6.46605 24.5745 1.29795
456 1 9.48483 24.4423 1.04412
457 1 9.44024 24.6335 4.14888
458 1 6.51443 24.3183 3.77685
459 1 12.1322 24.6112 1.33784
460 1 12.2434 24.4213 4.07447
461 1 0.929846 27.2405 1.20044
462 1 3.62582 27.4305 1.26938
463 1 4.02434 27.3163 4.0081
464 1 0.99006 26.9895 3.94823
12272 2 2.59208 40.1472 0.0702096
466 1 3.89072 30.1048 0.932874
467 1 3.74632 30.2197 3.82927
468 1 1.18305 30.2856 6.7196
469 1 6.66152 27.4342 1.06109
470 1 9.27749 27.4496 1.40466
471 1 9.43655 27.4361 4.10402
472 1 6.53123 27.1883 4.06337
473 1 6.99679 30.258 1.03613
474 1 9.71677 30.3613 1.42094
475 1 9.59243 30.1532 3.9967
476 1 6.83245 30.2095 3.94659
477 1 12.3615 27.479 4.13134
478 1 12.615 30.0123 3.94557
15341 2 13.8148 28.5797 11.1226
480 1 12.5108 32.9762 4.03685
481 1 0.891484 32.8109 1.25941
482 1 3.69648 33.2114 1.0925
483 1 3.77775 32.9854 3.67
484 1 0.872338 35.8486 3.98068
15317 2 13.9638 37.2937 8.2367
486 1 4.00563 36.0193 1.07956
487 1 3.66926 35.7462 4.06177
12385 2 8.04144 48.7626 13.7335
489 1 6.57446 32.7476 1.157
490 1 9.23102 33.0034 1.21347
491 1 9.83159 32.9262 3.87409
492 1 6.69098 32.9738 3.81637
493 1 6.58781 35.763 1.15668
494 1 9.36261 35.6688 1.1336
495 1 9.41429 35.6695 3.83175
496 1 6.56716 35.8985 3.92566
497 1 12.3882 33.0543 1.22132
498 1 12.4241 35.7073 3.67803
12379 2 2.38762 42.855 13.8068
15307 2 13.6618 31.3835 8.04818
501 1 0.988227 38.5 1.17876
502 1 4.13111 38.7925 1.00577
503 1 3.90755 38.4629 4.15917
504 1 2.44897 39.929 2.5729
505 1 1.12021 41.7436 1.03959
506 1 4.22288 41.6552 1.34933
507 1 4.12953 41.3677 4.24211
508 1 1.02129 41.7239 4.14392
509 1 6.94966 38.5735 1.04048
510 1 9.55562 38.6328 1.31482
511 1 9.81374 38.2007 3.95466
512 1 6.91827 38.782 3.95773
513 1 6.7841 41.2583 1.26434
514 1 9.56056 41.6455 1.2499
515 1 9.87218 41.3797 3.9449
516 1 7.0524 41.4992 4.07618
12377 2 5.32092 39.8869 13.9035
15261 2 13.7034 34.0974 -0.0987289
519 1 12.5972 41.7169 1.13625
520 1 12.5645 41.485 3.85881
521 1 0.925445 44.684 1.07515
522 1 3.79577 44.3267 1.04762
523 1 3.90801 44.2928 3.88653
524 1 1.18073 44.5111 3.90426
525 1 1.2448 47.2279 1.23826
526 1 3.80316 47.0969 1.48405
527 1 3.96087 47.0508 4.10547
528 1 1.0644 47.1248 3.96573
529 1 6.6371 44.5029 1.16103
530 1 9.35917 44.3415 1.29315
531 1 9.62355 44.2157 3.90589
532 1 6.81266 44.2766 3.89413
533 1 6.70333 47.2109 1.2227
534 1 9.60152 47.1696 1.14504
535 1 9.74129 47.0735 3.74976
536 1 6.74421 47.1502 3.98236
537 1 12.3037 44.444 1.11425
538 1 12.5894 44.33 4.04112
539 1 12.2306 47.1458 1.16184
540 1 12.5702 47.2052 3.91212
541 1 0.821518 24.5151 6.76878
542 1 3.67346 24.4728 6.85133
543 1 3.88421 24.523 9.58
544 1 1.0894 24.533 9.42863
545 1 6.6457 24.4176 6.60697
546 1 9.49139 24.3203 6.80545
547 1 9.38544 24.561 9.68197
548 1 6.4243 24.5147 9.49246
549 1 12.175 24.2833 6.87703
550 1 12.375 24.4525 9.75972
551 1 1.05057 27.5439 6.78618
552 1 3.90223 27.3704 6.88052
553 1 4.03749 27.478 9.62125
554 1 1.13016 27.5646 9.55069
555 1 1.19637 33.1377 4.05431
556 1 3.79416 30.0027 6.79583
557 1 3.81801 30.1025 9.5123
558 1 1.00261 30.1609 9.84335
559 1 6.82764 27.4069 6.80335
560 1 9.50468 27.2104 6.79459
561 1 9.39189 27.5896 9.66018
562 1 6.83219 27.418 9.46221
563 1 6.69858 30.0393 6.60129
564 1 9.64826 30.0772 6.8094
565 1 9.61586 30.2536 9.64828
566 1 6.82133 30.1092 9.63431
567 1 12.1353 27.115 6.94631
568 1 12.2309 27.2974 9.74221
569 1 12.2845 30.0728 6.44593
570 1 12.3862 30.1142 9.59139
571 1 0.782335 35.9719 6.90006
572 1 4.06905 32.9076 6.5223
573 1 3.99489 33.2451 9.7113
574 1 1.09556 32.8321 9.5198
575 1 0.756046 38.6367 4.18142
576 1 3.61264 35.7068 6.88284
577 1 3.51083 36.1231 9.58982
578 1 0.902912 35.6258 9.79891
579 1 6.71093 32.7855 6.52747
580 1 9.46841 32.7347 6.78047
581 1 9.72841 33.1389 9.54664
582 1 6.90287 32.8862 9.5008
583 1 6.43608 35.5209 6.6549
584 1 9.74193 35.4384 6.60196
585 1 9.4929 35.8235 9.57715
586 1 6.07627 35.624 9.78734
587 1 12.2192 32.8879 6.67895
588 1 12.5605 33.0264 9.51191
589 1 12.6379 35.784 6.9043
590 1 12.6002 36.1184 9.67224
591 1 0.917123 38.8921 6.8988
592 1 3.76853 38.6888 7.05073
593 1 3.78882 38.9031 9.61913
594 1 1.02518 38.7359 9.48326
595 1 1.15205 41.5464 6.73077
596 1 3.99189 41.5323 6.9319
597 1 3.97234 41.5623 9.76645
598 1 1.05835 41.5069 9.6327
599 1 6.54627 38.891 6.52893
600 1 9.70797 38.7632 6.60918
601 1 9.96051 38.9302 10.1146
602 1 6.69145 38.7473 9.95857
603 1 6.85973 41.5328 6.82891
604 1 9.82163 41.73 6.58181
605 1 9.73551 44.5669 9.59691
606 1 6.87544 41.7044 9.81612
607 1 12.5587 38.7149 6.8793
608 1 12.5435 38.9073 9.57459
609 1 12.7189 41.3891 6.67306
610 1 12.4468 41.6785 9.48923
611 1 1.06989 44.4399 6.75563
612 1 3.83885 44.318 6.70757
613 1 3.89307 44.2995 9.71395
614 1 1.1172 44.2268 9.77757
615 1 1.10068 47.0094 6.93408
616 1 3.86925 47.2001 6.78374
617 1 3.75205 47.0437 9.7087
618 1 0.928927 47.1846 9.62737
619 1 6.69116 44.4275 6.58561
620 1 9.67699 44.366 6.86636
621 1 9.52451 47.2173 9.50918
622 1 6.96506 44.4063 9.39608
623 1 6.5948 47.1929 7.03587
624 1 9.55485 47.3302 6.60832
12282 2 2.35626 45.7966 -0.18898
626 1 6.63307 47.1071 9.78648
627 1 12.5911 44.2104 6.77906
628 1 12.627 44.4073 9.77688
629 1 12.2647 46.9332 6.65187
630 1 12.4579 47.1534 9.65134
631 1 1.30599 24.6376 12.1626
632 1 4.12119 24.4303 12.4209
633 1 6.86691 24.6006 12.3155
634 1 9.71554 24.6176 12.4599
635 1 12.408 24.4501 12.2831
636 1 0.866049 27.3707 12.4909
637 1 3.85654 27.2703 12.5229
638 1 1.19934 30.3868 12.789
639 1 3.87134 30.1488 12.2881
640 1 6.73089 27.416 12.2568
641 1 9.64839 27.5014 12.5853
642 1 6.71207 29.9383 12.3791
643 1 9.64628 30.2426 12.4921
644 1 12.3096 27.2749 12.4888
645 1 12.3062 30.1633 12.3321
646 1 1.37917 33.1505 12.3779
647 1 3.99954 32.8882 12.5639
648 1 1.02963 36.0226 12.5834
649 1 3.76274 35.7843 12.6451
650 1 6.82804 32.8805 12.3138
651 1 9.79293 33.1319 12.4112
652 1 6.65108 35.98 12.4474
653 1 9.5967 36.0018 12.5119
654 1 12.7097 33.2154 12.5333
655 1 12.4038 35.8414 12.2738
656 1 1.36776 38.6176 12.5352
657 1 3.93901 38.4741 12.4787
658 1 1.11613 41.4366 12.3841
659 1 4.04073 41.6091 12.7881
660 1 6.67474 38.8524 12.5469
661 1 9.35216 38.9527 12.717
662 1 6.8064 41.4938 12.6451
663 1 9.70399 41.5394 12.2255
664 1 12.2678 38.9003 12.4836
665 1 12.504 41.9225 12.5475
666 1 0.929606 44.3593 12.484
667 1 3.85257 44.2735 12.3811
668 1 1.08272 47.2674 12.6473
669 1 3.76589 47.0473 12.3731
670 1 6.74206 44.5505 12.2458
671 1 9.46849 44.234 12.4235
672 1 6.77237 47.2574 12.4098
673 1 9.65556 47.2386 12.2702
674 1 12.2009 44.6288 12.4161
675 1 12.455 47.316 12.1904
12363 2 10.917 48.5545 10.8649
6484 1 12.3009 38.8756 0.975677
12253 2 2.36819 25.693 2.40967
12362 2 5.27973 48.5319 11.1701
6451 1 12.0399 27.3753 1.53783
15252 2 13.8089 25.9378 2.73621
12257 2 8.01026 25.8833 2.56295
12258 2 5.3569 28.8117 2.41809
15291 2 13.7987 48.4281 2.49038
12260 2 10.8033 28.5831 2.68779
12367 2 5.23866 28.8638 13.8704
15297 2 13.7122 25.8087 8.17341
12263 2 2.40874 31.6092 2.54972
12360 2 11.0891 42.8706 10.8857
15282 2 13.8352 43.0019 2.5652
488 1 1.19764 35.6401 1.27418
12267 2 8.16553 31.4983 2.64282
12268 2 5.21016 34.3526 2.58551
12373 2 10.9614 34.4827 13.9415
12270 2 10.8158 34.3023 2.48741
12359 2 8.18653 45.7809 10.9605
12383 2 10.8005 45.8266 13.812
12273 2 2.44602 37.4494 2.60114
12358 2 5.35507 43.0302 11.0432
479 2 13.8156 31.4788 2.67829
12366 2 7.9128 26.17 13.7909
12277 2 8.12681 37.1521 2.67496
12278 2 5.43288 39.9663 2.72005
15326 2 13.7825 45.7784 5.4515
12280 2 11.069 40.017 2.87975
465 1 1.00913 30.1805 0.825873
12286 2 8.18528 45.6922 -0.123365
12283 2 2.58719 42.6254 2.67344
12378 2 11.013 40.3455 13.7341
500 1 12.5809 38.5912 3.93475
15272 2 13.8849 37.1096 2.99411
12287 2 8.26176 42.7958 2.75178
12288 2 5.24895 45.6759 2.69941
6461 1 12.6813 30.2421 1.01907
12290 2 10.9933 45.5687 2.6358
904 1 0.992537 49.8514 4.2786
12292 2 2.45053 48.4453 2.73088
12352 2 2.62396 40.1399 11.0949
12294 2 8.04397 48.4481 2.75219
15296 2 13.7813 28.6118 5.50922
12357 2 2.4849 45.6016 11.0586
12297 2 2.58158 28.6748 5.27776
12298 2 2.37443 25.9765 8.17392
12299 1 0.988457 33.1163 6.85326
12300 2 5.32395 25.8608 5.36596
12301 2 8.00014 28.6741 5.42064
12302 2 8.0115 26.0008 8.06281
12303 2 5.30042 28.7017 8.16152
12304 2 10.7931 25.8692 5.39544
12305 2 10.8701 28.7229 8.26943
12382 2 5.3109 45.7746 13.7128
12307 2 2.19264 34.7013 5.49181
12308 2 2.43652 31.6169 8.25894
12355 2 10.9003 37.1937 10.9565
12310 2 5.13126 31.4868 5.12662
12311 2 8.05242 34.3642 5.36167
12312 2 8.07412 31.5288 8.09391
12313 2 5.37987 34.2405 8.16904
12314 2 10.9254 31.4232 5.39775
12315 2 10.9611 34.3588 8.08003
12354 2 8.11528 40.0978 11.0521
12317 2 2.39248 40.0901 5.37636
12318 2 2.26895 37.3535 8.243
15351 2 13.82 40.1753 11.0269
12320 2 5.26912 37.2462 5.50912