LAMMPS data file via write_data, version 29 Oct 2020, timestep = 100000

18000 atoms
4 atom types

-0.23057299285499958 28.12457299285585 xlo xhi
-2.6274746302106418 337.3554746302195 ylo yhi
-0.22458428551458098 28.11858428551425 zlo zhi
0.0 0.0 0.0 xy xz yz

Masses

1 15.9994
2 232.0381
3 15.9994
4 232.0381

Atoms # full

1 0 1 -1.1104 1.171956121723641 -1.463775695866532 1.165903759923168 0 0 0
2 0 1 -1.1104 3.909843768260771 -1.407719144357839 0.9896341091919196 0 0 0
3 0 1 -1.1104 3.8326034042036987 -1.5382971205791294 3.9325554159322 0 0 0
4 0 1 -1.1104 1.0154219310325259 -1.5634604750063508 3.785260084866798 0 0 0
5 0 1 -1.1104 1.095238466580718 1.128646969084939 1.0229227039235425 0 0 0
6 0 1 -1.1104 3.9052822380384504 1.307804933961173 1.0394345558240357 0 0 0
7 0 1 -1.1104 3.8415660092011708 1.4303740674274195 3.855621373937717 0 0 0
8 0 1 -1.1104 1.1769356491646874 1.509703521604266 3.848047807490088 0 0 0
9 0 1 -1.1104 6.864326768609658 1.6065660326039155 1.015212545918124 0 0 0
10 0 1 -1.1104 9.85075938338664 -1.386616713680227 0.9791905980713762 0 0 0
11 0 1 -1.1104 9.416134495647494 -1.3798756096484694 3.832414730113826 0 0 0
12 0 1 -1.1104 6.6909398741219475 1.4093500930658551 6.714421307625069 0 0 0
13 0 1 -1.1104 6.938650619497865 1.2569450767427766 3.9439227203376817 0 0 0
14 0 1 -1.1104 9.601309564988487 1.4117889904721546 1.2848500376450183 0 0 0
15 0 1 -1.1104 9.662497639482591 1.520967661225195 4.000989862407365 0 0 0
16 0 1 -1.1104 6.945155009549747 4.325936836016836 3.809385776212403 0 0 0
17 0 1 -1.1104 12.634439960697213 -1.193571368848248 1.1268920350299083 0 0 0
18 0 1 -1.1104 12.57473818139406 -1.7183860015196628 3.982706327649664 0 0 0
19 0 1 -1.1104 12.450572979470476 1.510634746509958 1.3970803088346526 0 0 0
20 0 1 -1.1104 12.304851669804414 1.2049761428705643 4.169935590816854 0 0 0
21 0 1 -1.1104 1.139430483866199 4.3772598485707706 0.9459088855231215 0 0 0
22 0 1 -1.1104 4.39345898401017 4.245919962450009 1.1031524268109612 0 0 0
23 0 1 -1.1104 4.321000986965298 4.370592833287973 3.962241687355868 0 0 0
24 0 1 -1.1104 1.4549788883018875 4.176125298554523 3.986855759394789 0 0 0
25 0 1 -1.1104 1.3946003191103782 7.267501382530898 1.1716811076913909 0 0 0
26 0 1 -1.1104 4.193804835041044 7.125050924623442 1.290894939883919 0 0 0
27 0 1 -1.1104 4.089801961470999 7.081459397307605 4.080218199935078 0 0 0
28 0 1 -1.1104 1.2450680033142334 7.162077575292963 4.08495486041527 0 0 0
29 0 1 -1.1104 6.7992990778826545 7.176747179682434 1.0845266059663892 0 0 0
30 0 1 -1.1104 10.401581928721827 4.403422003320539 1.1980811031293368 0 0 0
31 0 1 -1.1104 9.91290574756084 4.1355985687780015 3.9392446753943675 0 0 0
32 0 1 -1.1104 7.0187787358347205 7.157572943630293 4.142346763518421 0 0 0
33 0 1 -1.1104 6.920689908342471 9.901051817026552 1.3821025206639133 0 0 0
34 0 1 -1.1104 9.935735521464066 7.061695309446404 1.0485703737953653 0 0 0
35 0 1 -1.1104 9.611074874511829 6.879208485033295 3.913278264762729 0 0 0
36 0 1 -1.1104 7.022743419695594 9.731507257362844 4.131449387779121 0 0 0
37 0 1 -1.1104 13.097682459498854 4.3240995071576505 1.2442624396823296 0 0 0
38 0 1 -1.1104 12.746077646155967 3.827053592110317 3.9770523592468674 0 0 0
39 0 1 -1.1104 12.870735233039378 7.122353178713242 1.0699281291340113 0 0 0
40 0 1 -1.1104 12.64933842807258 6.891109137746118 4.097140762641333 0 0 0
41 0 1 -1.1104 1.076505759770049 9.658000975319135 0.96412955042546 0 0 0
42 0 1 -1.1104 4.004300873589413 9.917065680759249 1.1888302151853045 0 0 0
43 0 1 -1.1104 4.171978473740415 12.640501082355414 3.9959249721064256 0 0 0
44 0 1 -1.1104 4.454207272343464 9.947672750269007 3.8254078091548376 0 0 0
45 0 1 -1.1104 1.3497865748698064 12.646231531076635 1.2017202740099442 0 0 0
46 0 1 -1.1104 4.325074863432686 12.887637980374823 1.4187066651576583 0 0 0
47 0 1 -1.1104 4.393076889339097 12.493959420360301 6.579354911913783 0 0 0
48 0 1 -1.1104 1.374290986475361 12.724744422035924 4.312381253813289 0 0 0
49 0 1 -1.1104 7.144805600701342 12.679775851972696 0.9703380062414089 0 0 0
50 0 1 -1.1104 9.816667096294559 9.93803966946656 1.3461385747972867 0 0 0
51 0 1 -1.1104 12.637721630386812 10.197246785777823 6.714454853893946 0 0 0
52 0 1 -1.1104 6.887082873271326 12.661659111834643 4.130623320347969 0 0 0
53 0 1 -1.1104 6.943236761387567 15.693531338476339 1.1559153388561496 0 0 0
54 0 1 -1.1104 9.939312853052307 12.823194346494015 1.2454947832812433 0 0 0
55 0 1 -1.1104 9.891582967348102 12.845959403149532 3.9303984229791773 0 0 0
56 0 1 -1.1104 10.021356899139167 15.478559107660098 6.699391195314963 0 0 0
57 0 1 -1.1104 12.7381727616984 10.13562689429116 1.1348057954705426 0 0 0
58 0 1 -1.1104 12.846356147009963 9.874118278589123 3.8439440029156215 0 0 0
59 0 1 -1.1104 12.631364919082083 12.749462946573608 0.9918898247193616 0 0 0
60 0 1 -1.1104 12.503260878360864 12.608770554628036 4.037211842187166 0 0 0
61 0 1 -1.1104 1.4313537828912455 15.694082636273675 1.0631061863875604 0 0 0
62 0 1 -1.1104 4.288836794252049 15.541624409387497 1.0754663401622109 0 0 0
63 0 1 -1.1104 4.435807482804678 15.79955867828451 3.8951278369088795 0 0 0
64 0 1 -1.1104 1.4644150057129133 15.487704081943997 4.014059942078378 0 0 0
65 0 1 -1.1104 1.289567140553454 18.355144142198757 1.2275228692910778 0 0 0
66 0 1 -1.1104 4.10067349269359 18.525381271305093 1.0023025027277876 0 0 0
67 0 1 -1.1104 4.2418153661137055 18.310435372641752 3.959852252684768 0 0 0
68 0 1 -1.1104 1.244870102378946 18.45488859631758 3.7717882573824135 0 0 0
69 0 1 -1.1104 6.527095596144742 18.68779032117546 1.321335527652369 0 0 0
70 0 1 -1.1104 9.861959713654072 15.679595506567166 1.0084384727982647 0 0 0
71 0 1 -1.1104 9.66588173118523 15.679453405766305 3.632974592610687 0 0 0
72 0 1 -1.1104 7.207341925064923 15.414894867436066 4.216594364155773 0 0 0
73 0 1 -1.1104 7.097298579578791 21.193264884474065 0.9875535600097329 0 0 0
74 0 1 -1.1104 9.807091327635401 18.46910274452403 0.9664615146053621 0 0 0
75 0 1 -1.1104 12.63577684244932 18.201116550763643 3.7094855800351403 0 0 0
76 0 1 -1.1104 7.1679560872510075 18.3379850101795 4.008778187832788 0 0 0
77 0 1 -1.1104 12.695004563084996 15.618611239297463 1.1090574039004142 0 0 0
78 0 1 -1.1104 12.639665658146667 15.43265351214617 3.793807903691922 0 0 0
79 0 1 -1.1104 12.678868136579904 18.486096515843087 1.1299632296956568 0 0 0
80 0 1 -1.1104 12.73951885371173 21.27539213109716 3.8965929192053337 0 0 0
81 0 1 -1.1104 1.0970223135055779 21.517049590568767 1.1563412572010727 0 0 0
82 0 1 -1.1104 4.112876357916362 21.393524016798953 1.149433563050647 0 0 0
83 0 1 -1.1104 4.362831184635101 21.193977749099286 3.930091407341835 0 0 0
84 0 1 -1.1104 1.5353189254313506 21.300019685345024 4.0654682459690985 0 0 0
12061 0 2 2.2208 -0.09094890697987604 2.8230138050661453 5.354538660149516 0 0 0
86 0 1 -1.1104 9.97565400206277 21.353992676216627 1.0070275586104074 0 0 0
87 0 1 -1.1104 9.730457926607745 21.089102315814312 4.162940464780467 0 0 0
88 0 1 -1.1104 7.198568758965727 21.263190549346422 3.950604687217056 0 0 0
89 0 1 -1.1104 12.6981084347199 21.27236601721566 1.2193843896066179 0 0 0
12081 0 2 2.2208 -0.09977477653995816 14.127626844025594 5.565326682276932 0 0 0
91 0 1 -1.1104 1.3992193254044543 -1.3659569107932943 6.668797583621962 0 0 0
92 0 1 -1.1104 4.384354612104622 -1.4850810781044093 6.93538233453858 0 0 0
93 0 1 -1.1104 3.7624155499151963 -1.4312430928227333 9.828906364008496 0 0 0
94 0 1 -1.1104 1.0875643340207852 1.2401403618966294 6.73789545652349 0 0 0
95 0 1 -1.1104 1.2754445470668219 4.414274560892982 6.818306020420972 0 0 0
96 0 1 -1.1104 3.8168343995688137 1.2537256451232457 6.6843899744005 0 0 0
97 0 1 -1.1104 3.941186921792952 1.3947590345330336 9.573188150710957 0 0 0
98 0 1 -1.1104 1.0692122316581683 1.4711975868768181 9.522628077887846 0 0 0
99 0 1 -1.1104 6.62317107647148 4.2634897668501806 6.2935500952771015 0 0 0
100 0 1 -1.1104 9.6276841062261 -1.336388634089926 6.659463342852952 0 0 0
101 0 1 -1.1104 9.744180046890481 -1.5084643835022375 9.409889015370227 0 0 0
102 0 1 -1.1104 6.896195097913211 1.731122329056605 9.413202062575488 0 0 0
103 0 1 -1.1104 7.105065229707298 6.991039555281316 6.623526725388537 0 0 0
104 0 1 -1.1104 9.549364788539087 1.5948074949114548 6.79681408251589 0 0 0
105 0 1 -1.1104 9.957979574248062 1.5713760871497682 9.67518238510653 0 0 0
106 0 1 -1.1104 6.872061655594251 4.395675291079541 9.74226747181411 0 0 0
107 0 1 -1.1104 12.37851219458677 -1.3980204594173549 6.790778035343052 0 0 0
108 0 1 -1.1104 12.538475688192236 -1.4683177292854568 9.662459603113833 0 0 0
109 0 1 -1.1104 12.49588101253531 1.5286161149779678 7.04210616079894 0 0 0
110 0 1 -1.1104 12.644558918750501 1.33543706600747 9.746818629056655 0 0 0
111 0 1 -1.1104 1.156798680392491 7.234522125672606 6.967803259484003 0 0 0
112 0 1 -1.1104 3.824435362489058 3.739336745093074 6.599695658033388 0 0 0
113 0 1 -1.1104 4.009043256352848 4.210356900414003 9.30553222350661 0 0 0
114 0 1 -1.1104 0.9115750360603054 4.131948396894134 9.593707082849221 0 0 0
115 0 1 -1.1104 1.3996964598760493 9.840510759935176 6.612619623048289 0 0 0
116 0 1 -1.1104 4.079223309527605 7.1169632626596 6.661918392911806 0 0 0
117 0 1 -1.1104 4.016940209218911 7.152022356765502 9.469358747001653 0 0 0
118 0 1 -1.1104 1.233009553248466 7.085829935017199 9.500894305403973 0 0 0
119 0 1 -1.1104 9.624895730286903 9.995576181497778 4.071521464320613 0 0 0
120 0 1 -1.1104 9.644575546441494 4.377705234812184 6.779438575621777 0 0 0
121 0 1 -1.1104 9.838253556712845 4.303380426304264 9.660802723374557 0 0 0
122 0 1 -1.1104 6.685674538632329 7.029342804872669 9.62705482707682 0 0 0
123 0 1 -1.1104 4.129605549383646 9.828059670971193 7.014561752336281 0 0 0
124 0 1 -1.1104 9.878731029873432 7.47797061697061 6.646635185240566 0 0 0
125 0 1 -1.1104 9.800618874008961 6.917821513272561 9.533192352858745 0 0 0
126 0 2 2.2208 8.488973168629842 8.339259399829954 8.500912589249925 0 0 0
127 0 1 -1.1104 12.594537723065926 4.555376087982939 6.6356756894406095 0 0 0
128 0 1 -1.1104 12.641607863524888 4.1463224190368955 9.547894073279979 0 0 0
129 0 1 -1.1104 12.837588985296769 7.277947913194285 6.865727842595198 0 0 0
130 0 1 -1.1104 12.73547157024999 7.32616618533354 9.394304250626478 0 0 0
12129 0 2 2.2208 5.442760452255779 0.022700278231894976 13.885625437304942 0 0 0
132 0 1 -1.1104 1.4101839731541272 12.584374210793525 7.079666770203059 0 0 0
133 0 1 -1.1104 4.093141242427025 9.930036246317412 9.715762534652145 0 0 0
134 0 1 -1.1104 1.3233443071233593 10.030951034544533 9.746737748655915 0 0 0
12094 0 2 2.2208 -0.1953260249558472 22.532824044380583 8.174737972107277 0 0 0
136 0 1 -1.1104 4.24748704653889 15.310487380405045 7.031244288310131 0 0 0
137 0 1 -1.1104 4.215506550821483 12.897852015834012 9.825828569578999 0 0 0
138 0 1 -1.1104 1.328815763054365 12.622957971455413 9.743444785931944 0 0 0
139 0 1 -1.1104 7.075131492889236 9.865696414361288 6.71624408172191 0 0 0
140 0 1 -1.1104 9.800734913019678 10.250683302732696 6.7114125339167865 0 0 0
141 0 1 -1.1104 9.927152775136522 9.841029639158286 9.597699380860252 0 0 0
142 0 1 -1.1104 7.205686521771197 10.019370711502578 9.422368044987845 0 0 0
143 0 1 -1.1104 7.040699387045661 12.881773335732053 6.885276480948717 0 0 0
144 0 1 -1.1104 9.831261575041191 12.819270606354168 6.8371860240170035 0 0 0
145 0 1 -1.1104 9.783333465506937 12.995086322292842 9.56184358547983 0 0 0
146 0 1 -1.1104 7.167576826345379 13.03822451766026 9.782473051692762 0 0 0
12135 0 2 2.2208 10.955217953650536 5.752074549176773 13.823452075313968 0 0 0
148 0 1 -1.1104 12.65534969851983 10.142600570421582 9.641132719446535 0 0 0
12111 0 2 2.2208 0.02385242930124356 8.356313421278655 10.891891607697769 0 0 0
150 0 1 -1.1104 12.699955476018836 12.934204106526547 9.671149170995584 0 0 0
151 0 1 -1.1104 4.000466999264015 18.24217788131458 6.768953695878353 0 0 0
152 0 1 -1.1104 7.028835629427838 15.774209613028736 6.926870211873492 0 0 0
153 0 1 -1.1104 4.109719050056607 15.70233084338519 9.798603036113132 0 0 0
154 0 1 -1.1104 1.242238082922047 15.62713698468835 9.345274657017711 0 0 0
155 0 1 -1.1104 1.5454560355170475 18.455833273827324 6.891075258161024 0 0 0
156 0 1 -1.1104 7.221876843377787 18.613073007025214 6.790454288253891 0 0 0
157 0 1 -1.1104 3.84679790831503 18.583203052263055 9.663985245371409 0 0 0
158 0 1 -1.1104 1.161488796648599 18.227144773923886 9.857197620752993 0 0 0
159 0 1 -1.1104 12.998582111575557 15.764656014468367 6.838364489709568 0 0 0
160 0 1 -1.1104 12.859223132795869 18.489757329109327 6.6533917679557195 0 0 0
161 0 1 -1.1104 9.82494939997405 15.743065966388203 9.603897922387143 0 0 0
162 0 1 -1.1104 7.010128870643025 15.989040036261526 9.69834852906078 0 0 0
163 0 1 -1.1104 10.047205498877778 18.41276965321453 3.9347897182637483 0 0 0
164 0 1 -1.1104 9.827569186765617 18.419098652550147 6.93217816074843 0 0 0
165 0 1 -1.1104 10.024543001602265 18.597793480342983 9.771677012571752 0 0 0
166 0 1 -1.1104 6.756228564287409 18.795105239204226 9.37186260492912 0 0 0
12074 0 2 2.2208 -0.19654498998330902 11.177410196063441 8.243218226503194 0 0 0
168 0 1 -1.1104 12.579014370702447 15.652956611415219 9.709431719144021 0 0 0
169 0 1 -1.1104 12.65103283638333 21.288840550117683 6.759395397143857 0 0 0
170 0 1 -1.1104 12.624476396640624 18.6377234928419 9.466287090303974 0 0 0
171 0 1 -1.1104 0.9597258196146985 21.320999369162646 6.613732685395757 0 0 0
172 0 1 -1.1104 4.075342323045739 21.43656650563374 6.740093146372653 0 0 0
173 0 1 -1.1104 4.037541773471028 21.460962791728917 9.62131431302689 0 0 0
174 0 1 -1.1104 1.269488457368076 21.366115026460125 9.419910149141153 0 0 0
175 0 1 -1.1104 7.132568169905218 21.36821724423425 6.680023096614925 0 0 0
176 0 1 -1.1104 9.896458067520188 21.396177463627847 6.910239467931992 0 0 0
177 0 1 -1.1104 9.904279935559593 21.157968696449434 9.535016568148178 0 0 0
178 0 1 -1.1104 7.076287588514777 21.653640068236307 9.557862529279513 0 0 0
12024 0 2 2.2208 -0.10588455781528919 11.188514153447214 2.3577861617651874 0 0 0
180 0 1 -1.1104 12.836510878244223 21.084156062148164 9.60509345269841 0 0 0
181 0 1 -1.1104 1.0997926352234288 -1.3023301678837913 9.521536300321475 0 0 0
182 0 1 -1.1104 4.099188360092895 -1.633229647866129 12.449352005022005 0 0 0
183 0 1 -1.1104 1.3940763064433939 1.7528906310032668 12.409601054206535 0 0 0
184 0 1 -1.1104 3.7654666092390694 1.39177272879984 12.413281526353483 0 0 0
185 0 1 -1.1104 6.972900142557427 -1.3005143640911279 12.408647018606839 0 0 0
186 0 1 -1.1104 9.774156649700961 -1.273816780480472 12.291549887605214 0 0 0
187 0 1 -1.1104 6.85991637935636 1.3801186055167871 12.4057845736301 0 0 0
188 0 1 -1.1104 9.656387490837224 1.351309740587252 12.518829687758926 0 0 0
189 0 1 -1.1104 12.788738290684144 -1.2615995323065785 12.562107717204043 0 0 0
190 0 1 -1.1104 12.766977683199643 1.8160457409683228 12.3330601111699 0 0 0
191 0 1 -1.1104 1.2428739606512242 4.242737588494363 12.312247127246843 0 0 0
192 0 1 -1.1104 4.076447312474718 4.433937190911879 12.344164887455182 0 0 0
193 0 1 -1.1104 1.5236656217798332 7.181933686315911 12.379227469373774 0 0 0
194 0 1 -1.1104 4.519510121361285 7.080747198893557 12.523579372500288 0 0 0
195 0 1 -1.1104 6.861847292267077 4.088396808073006 12.751169654888024 0 0 0
196 0 1 -1.1104 9.577353480670494 4.202104086493123 12.33022721002509 0 0 0
197 0 1 -1.1104 6.954675855376806 7.3525113815453205 12.296048100104395 0 0 0
198 0 1 -1.1104 9.755194185879162 7.248467295460142 12.311395435919419 0 0 0
199 0 1 -1.1104 12.423637848117977 4.489550054867178 12.44625605724135 0 0 0
200 0 1 -1.1104 12.606616629714466 7.401696096955999 12.264951488623836 0 0 0
201 0 1 -1.1104 1.2414554073153585 9.808613187991382 12.478204185016132 0 0 0
202 0 1 -1.1104 4.147072968253861 9.944066655159462 12.594975997316254 0 0 0
203 0 1 -1.1104 1.4093856111886354 12.700652437426319 12.407391599649687 0 0 0
204 0 1 -1.1104 3.9975578302669303 12.764997900444868 12.63534126264465 0 0 0
205 0 1 -1.1104 6.8693235914036 10.136183982537963 12.25503343748287 0 0 0
206 0 1 -1.1104 9.807607344664202 10.070883088983498 12.42846452240253 0 0 0
207 0 1 -1.1104 6.912244227384004 12.948218698306372 12.49263272791756 0 0 0
208 0 1 -1.1104 9.818662000760487 12.727629440706453 12.518160343201911 0 0 0
209 0 1 -1.1104 12.899558239872565 10.027575215713533 12.353742230482217 0 0 0
210 0 1 -1.1104 12.741192173266244 12.589422225649447 12.569619197978643 0 0 0
211 0 1 -1.1104 1.5451499371095827 15.88785417256708 12.380761841090571 0 0 0
212 0 1 -1.1104 4.1227432988408665 15.538387779269646 12.428936312850706 0 0 0
213 0 1 -1.1104 1.4614178013040209 18.618760957418516 12.578087494259268 0 0 0
214 0 1 -1.1104 4.481502694691238 18.64209920309277 12.385474569296141 0 0 0
215 0 1 -1.1104 7.067778018772391 15.805965141100996 12.5527347390314 0 0 0
216 0 1 -1.1104 9.75646132851949 15.625798016097802 12.451902063475034 0 0 0
217 0 1 -1.1104 7.490687371429944 18.945240188144215 12.135293170985253 0 0 0
218 0 1 -1.1104 9.857443133773222 18.404429944164967 12.60989686611268 0 0 0
219 0 1 -1.1104 12.794632621526357 15.424420693095984 12.568437737419215 0 0 0
220 0 1 -1.1104 12.692210375325411 18.197663871137767 12.460071901960648 0 0 0
221 0 1 -1.1104 1.222023276412278 21.412098753522645 12.425249594308045 0 0 0
222 0 1 -1.1104 4.113509219836929 21.153142850422434 12.311850349802919 0 0 0
223 0 1 -1.1104 7.057349439984383 21.62530278039076 12.362999343559201 0 0 0
224 0 1 -1.1104 9.671535768680101 21.437703087294775 12.545013718167683 0 0 0
225 0 1 -1.1104 12.724377859693554 21.436942733450806 12.516523916892645 0 0 0
12125 0 2 2.2208 11.20789741512489 19.99147965515926 10.993884304235245 0 0 0
12110 0 2 2.2208 11.185933605751318 2.894427364646345 11.001782711196963 0 0 0
12084 0 2 2.2208 -0.04597459612188333 17.11450801468554 8.282559354554394 0 0 0
12124 0 2 2.2208 8.337441040383414 22.810324753152376 11.077355924974514 0 0 0
12132 0 2 2.2208 0.024826320546300792 5.770801487238807 13.72565177608592 0 0 0
12109 0 2 2.2208 8.196853836205534 5.542199919748172 11.092389457038545 0 0 0
12022 0 2 2.2208 2.4752560229728715 11.225869372502574 -0.13352088218393116 0 0 0
12008 0 2 2.2208 5.270524078671975 0.03222106091863517 2.469803069980867 0 0 0
12091 0 2 2.2208 -0.10257314640849947 19.762038935740016 5.361937862908923 0 0 0
12010 0 2 2.2208 11.093774612145628 -0.09382494271804287 2.7138855283385253 0 0 0
12123 0 2 2.2208 5.717448601043463 20.07185886786539 10.915368517249204 0 0 0
12108 0 2 2.2208 5.405852285237506 2.733146852168774 11.240489724162233 0 0 0
12013 0 2 2.2208 2.398896791629101 2.814953664733058 2.202488097185657 0 0 0
12121 0 2 2.2208 -0.0952393571992152 19.614240815804354 11.123733442840788 0 0 0
12107 0 2 2.2208 2.6735210188726697 5.475093470162658 10.767122086739366 0 0 0
12112 0 2 2.2208 2.7281337117776756 11.482945835341635 11.029713334452147 0 0 0
12017 0 2 2.2208 8.298500283917809 2.567278127928589 2.5273435968351086 0 0 0
12018 0 2 2.2208 5.737779981528805 5.717674659455498 2.4539918051195624 0 0 0
12104 0 2 2.2208 8.485389572365142 -0.08130475698687112 10.926465195042715 0 0 0
12020 0 2 2.2208 11.707965167675217 5.408908189374276 2.5704768793622628 0 0 0
5633 0 1 -1.1104 6.736660288764251 -1.2642687885325756 4.100936732747902 0 1 0
12148 0 2 2.2208 8.478253621779123 19.778495754919902 13.913909975224787 0 0 0
12023 0 2 2.2208 2.709633103151829 8.41412764884494 2.489262138366176 0 0 0
12120 0 2 2.2208 11.314044263872946 14.383017430308163 11.181090733748794 0 0 0
12102 0 2 2.2208 2.5500618378830837 0.10055800820781918 10.900478125853983 0 0 0
12113 0 2 2.2208 5.510252145829508 8.536878613215562 10.885373937291613 0 0 0
12027 0 2 2.2208 8.357255591390379 8.399166144118473 2.1557100642831477 0 0 0
12028 0 2 2.2208 5.757803480463259 11.382877934468567 2.5620536557935703 0 0 0
12100 0 2 2.2208 11.352409688667883 22.580917076887683 8.336877328003524 0 0 0
12030 0 2 2.2208 11.421869179822778 11.341704060601412 2.458692438256593 0 0 0
12099 0 2 2.2208 11.384476436293221 19.77049550949004 5.430694668083543 0 0 0
12098 0 2 2.2208 5.6835517120773495 22.819715544093324 8.290111607166974 0 0 0
12033 0 2 2.2208 2.6900559132185955 14.034681506454957 2.6641380541128568 0 0 0
12041 0 2 2.2208 0.027021722137934405 19.88249361992785 -0.20220743024978258 0 0 0
12097 0 2 2.2208 8.445929781638549 20.003898977195554 8.087455093984124 0 0 0
12096 0 2 2.2208 8.61529284268611 22.751639300595766 5.31096257079293 0 0 0
12037 0 2 2.2208 8.363458431073832 14.116233466207886 2.4551971826553096 0 0 0
12038 0 2 2.2208 5.571593195848757 17.212891609982442 2.5658600305463577 0 0 0
12095 0 2 2.2208 5.811975346871917 19.83545990496071 5.366847108233849 0 0 0
12040 0 2 2.2208 11.325890464343193 16.85578280689579 2.431681283193322 0 0 0
15032 0 2 2.2208 13.903868411693477 13.985272755743777 2.4532307074599276 0 0 0
12093 0 2 2.2208 2.745157482217905 19.806735715983418 8.334012773672383 0 0 0
12043 0 2 2.2208 2.8801093587647464 19.843157560339375 2.6335052507547214 0 0 0
12116 0 2 2.2208 -0.2266397068175225 14.132188398257394 10.875538048664206 0 0 0
12092 0 2 2.2208 2.711310482053554 22.709625242963632 5.511414363905491 0 0 0
149 0 1 -1.1104 12.46410033183246 12.9107307138094 7.026449591292696 0 0 0
12047 0 2 2.2208 8.527852709524701 19.631308253293373 2.519272411393035 0 0 0
12048 0 2 2.2208 5.47813040119504 22.604273414716875 2.691775085757493 0 0 0
12090 0 2 2.2208 11.205286028746098 17.14037090192128 8.311623885238527 0 0 0
12050 0 2 2.2208 11.38960303322248 22.59922007304508 2.392240173505128 0 0 0
12119 0 2 2.2208 8.521130106298735 17.033631423284586 11.08014353861423 0 0 0
12052 0 2 2.2208 2.440480121754871 0.05773314765480332 5.1690926582296095 0 0 0
5723 0 1 -1.1104 7.182297249953242 -1.1809711629755395 6.925254932872819 0 1 0
12118 0 2 2.2208 5.494649920355803 14.21495673616485 11.075180410487073 0 0 0
372 0 1 -1.1104 6.829425039407665 -1.140721417624876 1.2509091220917647 0 0 1
12056 0 2 2.2208 8.327448210323317 0.06151126291458295 5.333210008237624 0 0 0
12034 0 2 2.2208 -0.06937951420158542 17.064415916959966 2.4843725512312216 0 0 0
12058 0 2 2.2208 5.364037502497841 -0.13446052592440944 8.266343428967433 0 0 0
227 0 1 -1.1104 1.165226573812003 -1.152346484170517 12.40775235631581 0 0 0
12060 0 2 2.2208 11.278459164211524 0.09048298849854736 8.235826746801974 0 0 0
12117 0 2 2.2208 2.7842021208452197 17.08089429202863 11.032780567981689 0 0 0
12062 0 2 2.2208 2.7632975484811633 5.4497651625935495 5.351676676490938 0 0 0
12063 0 2 2.2208 2.4875617811448127 2.691280381160731 8.115487784256437 0 0 0
12089 0 2 2.2208 11.308579476739512 14.02521812172458 5.4004049378876084 0 0 0
12065 0 2 2.2208 5.3227330773641865 2.689677469879363 5.174352856671435 0 0 0
12066 0 2 2.2208 8.445384765944631 5.329889132189934 5.215491460965401 0 0 0
12067 0 2 2.2208 8.197570583826796 2.7896848665033676 8.211183676998628 0 0 0
12068 0 2 2.2208 5.4788439258502555 5.409920789270106 7.914574043798439 0 0 0
12069 0 2 2.2208 11.038591167214117 2.7686518379072185 5.274062262621781 0 0 0
12070 0 2 2.2208 11.474907268022614 5.852613290433774 8.381349449272035 0 0 0
12115 0 2 2.2208 11.282781795323663 8.67646515545934 10.946212049427642 0 0 0
12072 0 2 2.2208 2.8594209559884334 11.109960847461462 5.219393896886548 0 0 0
12073 0 2 2.2208 2.6192423007755905 8.528185915441611 8.038412522488402 0 0 0
12114 0 2 2.2208 8.401279063008843 11.383529251300182 11.131423136770216 0 0 0
12075 0 2 2.2208 5.3432784633657295 8.439614097109205 5.169472763661457 0 0 0
12076 0 2 2.2208 8.545062559241542 11.723897560665485 5.472535255095295 0 0 0
12077 0 2 2.2208 8.408825400053942 8.586505013915053 5.384127978297824 0 0 0
12078 0 2 2.2208 5.557248797894977 11.204905473437654 8.136544387483317 0 0 0
12079 0 2 2.2208 11.845469929202288 8.465733233441341 5.407522638544162 0 0 0
12080 0 2 2.2208 11.287147692628002 11.32400814133789 8.401460046656386 0 0 0
12035 0 2 2.2208 5.797273534546639 14.088915725633965 -0.1001949954429254 0 0 0
12082 0 2 2.2208 2.867005668318171 16.985453918977992 5.432789396544892 0 0 0
12083 0 2 2.2208 2.787850030131586 14.036221649269452 8.419724248333502 0 0 0
376 0 1 -1.1104 7.338228010026328 4.5588163273573015 1.3727740816053007 0 0 1
12085 0 2 2.2208 5.5422134978992394 14.137685847870543 5.378096404473396 0 0 0
12086 0 2 2.2208 8.382995224024368 16.963639260639543 5.529119355074412 0 0 0
12087 0 2 2.2208 8.44214717487542 14.333430901694518 8.318299071973877 0 0 0
12088 0 2 2.2208 5.33933550072611 16.990072373244143 8.361421494252179 0 0 0
5726 0 1 -1.1104 6.8253785784478165 -1.1567255423421872 9.75111782074887 0 1 0
131 0 1 -1.1104 1.4205666985346568 9.970085685498631 3.6280007964497063 0 0 0
135 0 1 -1.1104 1.5289129603157028 15.65832305751069 6.779953640505632 0 0 0
12122 0 2 2.2208 2.584309029030351 22.554677255241423 10.877272880139897 0 0 0
12141 0 2 2.2208 2.8077926676808342 14.217056535021689 13.84377720194377 0 0 0
12139 0 2 2.2208 5.5957421576864155 11.512524810473236 13.890023374231514 0 0 0
12071 0 2 2.2208 -0.1628588506528073 8.56967958417039 5.420550844299491 0 0 0
12127 0 2 2.2208 -0.11063462107178411 -0.0526376969369132 13.736837741217974 0 0 0
12145 0 2 2.2208 11.29166169736448 16.890017607178113 13.818147777379929 0 0 0
12136 0 2 2.2208 2.7831978866759304 8.587290309747141 13.879970930134427 0 0 0
12144 0 2 2.2208 5.514106289827496 17.161434136579143 13.852866533430984 0 0 0
12138 0 2 2.2208 8.42231024810599 8.655134907916494 13.838841456397855 0 0 0
12137 0 2 2.2208 -0.19075310106183796 11.329286965258818 13.76433851133203 0 0 0
12149 0 2 2.2208 5.549336836477429 22.767684499746885 13.808191452761168 0 0 0
12140 0 2 2.2208 11.397236502922842 11.270900523598128 13.92997805857701 0 0 0
12044 0 2 2.2208 -0.07334098720640742 22.808348114650073 2.5828488661929656 0 0 0
12143 0 2 2.2208 8.262202028312739 14.327901292380107 13.923321039143827 0 0 0
12147 0 2 2.2208 -0.025019488636044213 22.699188290178455 13.734256028677525 0 0 0
12012 0 2 2.2208 2.4985092735993675 5.6679262668996975 -0.2121804887172276 0 0 0
12006 0 2 2.2208 8.36376418595589 -0.12119904358333577 -0.13715245533700388 0 0 0
12130 0 2 2.2208 11.335138218578996 -0.060716089786437465 13.709153322407532 0 0 0
12064 0 2 2.2208 -0.18967585021965944 5.683963476923208 8.265754389964004 0 0 0
12032 0 2 2.2208 2.9786241341475646 17.071659966848685 -0.19798890369288547 0 0 0
12131 0 2 2.2208 2.7555099338875673 2.949411530373447 13.915946579565398 0 0 0
226 0 1 -1.1104 4.355892813956366 -1.5371183155276777 15.132545120790851 0 0 0
5906 0 1 -1.1104 6.88117379988641 -1.467241991307226 21.101770005826754 0 1 0
228 0 1 -1.1104 4.07513498047196 1.3732999938713126 15.421256990834458 0 0 0
229 0 1 -1.1104 1.4610412444301508 1.2923392907029245 15.150734647692287 0 0 0
230 0 1 -1.1104 9.943038383540435 -1.3851375820126526 15.346680870660649 0 0 0
231 0 1 -1.1104 7.1195186608691206 -1.5068791275999827 15.218768736931528 0 0 0
232 0 1 -1.1104 10.02866903474179 1.4401467167264075 15.442769525512011 0 0 0
233 0 1 -1.1104 6.8865900735885734 1.4426345204492488 15.166517404610824 0 0 0
5814 0 1 -1.1104 1.197573798965029 -1.4173874627478291 15.189591321652394 0 1 0
235 0 1 -1.1104 12.837726245499415 1.2637992631583674 15.277499913437694 0 0 0
236 0 1 -1.1104 4.339710239408438 3.9793184204343652 15.333982809311719 0 0 0
237 0 1 -1.1104 1.2807418028594688 4.52570124401766 15.178204856137963 0 0 0
238 0 1 -1.1104 4.284224088996701 6.883984334251008 15.375420799737201 0 0 0
239 0 1 -1.1104 1.3451032034445614 7.015570661917157 15.452548942091953 0 0 0
240 0 1 -1.1104 9.826425259919626 4.248473318686666 15.249267223777622 0 0 0
241 0 1 -1.1104 7.066984111681813 4.54555032858197 15.425806430746226 0 0 0
242 0 1 -1.1104 9.722473326669482 7.314669348276301 15.008558207171106 0 0 0
243 0 1 -1.1104 7.311787395410194 7.308864266694417 15.243836580536737 0 0 0
244 0 1 -1.1104 12.573204517965996 4.135459300506981 15.365294635115788 0 0 0
245 0 1 -1.1104 12.399238123353 6.881765519513535 15.387143896082453 0 0 0
246 0 1 -1.1104 4.189155246530456 9.999399856497648 15.1756200355032 0 0 0
247 0 1 -1.1104 1.1365073350066155 9.809023707346562 15.189164253185675 0 0 0
248 0 1 -1.1104 4.119245781062767 12.699916021425645 15.465348296244537 0 0 0
249 0 1 -1.1104 1.3954340035604849 12.777640597031985 15.251028222146013 0 0 0
250 0 1 -1.1104 10.112437162286756 10.11061712513296 15.610898152861125 0 0 0
251 0 1 -1.1104 7.106958439267687 10.366879355780462 15.080700732108916 0 0 0
252 0 1 -1.1104 9.954544933523898 12.728307240360715 15.151462522126174 0 0 0
253 0 1 -1.1104 7.048901066678739 12.97564740825005 15.200066911366855 0 0 0
254 0 1 -1.1104 12.704133140336571 9.620432579342502 15.304173484434695 0 0 0
255 0 1 -1.1104 12.571089115266629 12.411579888301295 15.213300185290668 0 0 0
256 0 1 -1.1104 4.115555587135127 15.717685019732334 15.221392523393689 0 0 0
257 0 1 -1.1104 1.4002492302731155 15.932551759582912 15.488376259196784 0 0 0
258 0 1 -1.1104 4.541584177300114 18.560664533879375 15.152183727097917 0 0 0
259 0 1 -1.1104 1.4152336409270931 18.632932806628475 15.328951718466099 0 0 0
260 0 1 -1.1104 9.81346031018975 15.603684701567916 15.321812628173603 0 0 0
261 0 1 -1.1104 7.013168890957875 15.63772425640778 15.38064482499333 0 0 0
262 0 1 -1.1104 9.972500810758934 18.255858443125387 15.25770712820677 0 0 0
263 0 1 -1.1104 7.198201020755498 18.363770776164404 15.439040296798407 0 0 0
264 0 1 -1.1104 12.475609984556264 15.42360424678398 15.24023883660967 0 0 0
265 0 1 -1.1104 13.007229829555095 18.342874475774757 15.354072585360923 0 0 0
266 0 1 -1.1104 4.171901815358984 21.465915744675584 15.22492588651907 0 0 0
267 0 1 -1.1104 1.3310231382324063 21.55395874844878 15.298447774036276 0 0 0
268 0 1 -1.1104 9.842141610307936 21.125402937379558 15.201623808454562 0 0 0
269 0 1 -1.1104 7.053024605142581 21.22796894468721 15.190972592999392 0 0 0
270 0 1 -1.1104 12.705044477653031 21.16320629102141 15.251899599646771 0 0 0