ITEM: TIMESTEP
60000
ITEM: NUMBER OF ATOMS
17730
ITEM: BOX BOUNDS pp pp pp
-4.4573035230342206e-01 2.7785730352304032e+01
-5.3682915426378672e+00 3.3344829154263408e+02
-4.5528422193299350e-01 2.7795284221932622e+01
ITEM: ATOMS id type q x y z
1 2 2.2208 5.23162 0.249843 5.35804
2 1 -1.1104 1.13348 -4.02246 0.949293
6 1 -1.1104 0.953639 -4.13205 3.6423
10 1 -1.1104 0.944488 -1.17575 0.962038
12 2 2.2208 5.23641 -2.68567 2.59301
14 1 -1.1104 0.851723 -1.11622 3.86169
16 1 -1.1104 3.85831 -3.9304 1.18045
18 2 2.2208 2.45601 0.129164 2.35782
19 1 -1.1104 3.90047 -4.24655 3.90518
21 2 2.2208 2.47541 -2.63885 5.27075
23 1 -1.1104 3.92913 -1.16505 1.11209
24 1 -1.1104 3.91334 -1.38896 3.83125
379 2 2.2208 5.47678 17.286 -0.419912
8460 2 2.2208 10.8907 -5.22357 -0.411961
170 1 -1.1104 1.0728 -1.17084 6.7786
9089 2 2.2208 -0.293001 0.359041 5.17248
8984 2 2.2208 -0.217669 14.1544 8.11727
4 1 -1.1104 6.68956 -4.10265 0.900216
11 1 -1.1104 6.54275 -1.29759 0.948422
15 1 -1.1104 6.72799 -1.17568 3.66826
8 1 -1.1104 6.78724 -4.03536 3.76003
31 2 2.2208 10.7115 0.320551 5.00163
32 1 -1.1104 12.1263 -3.75432 1.24121
34 1 -1.1104 12.5359 -4.26345 3.97114
36 1 -1.1104 12.3104 -1.11186 0.688442
37 2 2.2208 10.8182 -2.33254 2.05674
39 1 -1.1104 12.5818 -1.45699 3.47815
40 1 -1.1104 9.40745 -3.93712 0.58075
42 2 2.2208 7.9417 0.134874 2.39562
43 1 -1.1104 9.45295 -4.05983 3.63771
45 2 2.2208 8.07289 -2.61618 5.18335
47 1 -1.1104 9.601 -1.09659 0.713486
48 1 -1.1104 9.41302 -1.04904 3.47909
8417 2 2.2208 13.5776 -5.25787 7.97488
210 1 -1.1104 9.57645 -1.13765 6.59131
205 1 -1.1104 12.2682 -3.84487 6.42108
8390 2 2.2208 2.50568 -5.35366 7.83368
484 2 2.2208 5.33323 14.4522 13.6508
420 2 2.2208 2.55488 5.98125 13.6512
3 1 -1.1104 1.10284 1.4639 0.999031
7 1 -1.1104 0.978964 1.79258 3.77595
13 2 2.2208 5.21233 3.18154 2.47438
17 1 -1.1104 3.89957 1.59183 0.858212
20 1 -1.1104 3.60135 1.45078 4.01906
22 2 2.2208 2.23327 2.96894 5.28059
54 2 2.2208 5.18846 5.91387 5.364
56 1 -1.1104 0.742604 7.09926 1.05949
60 1 -1.1104 1.03099 4.41067 0.765117
67 1 -1.1104 1.06861 4.56924 3.82211
72 2 2.2208 2.38994 5.82765 2.51512
74 1 -1.1104 3.72564 7.23895 3.76347
76 1 -1.1104 3.58854 4.47439 0.983344
79 1 -1.1104 3.86846 4.35204 3.86546
58 1 -1.1104 1.06864 7.2741 3.95811
71 1 -1.1104 3.35083 7.38785 1.04094
8924 2 2.2208 13.6675 2.934 10.7005
384 2 2.2208 8.05371 0.219521 13.6376
63 1 -1.1104 6.41118 4.55607 0.90963
9 1 -1.1104 6.59625 1.49432 4.10743
57 1 -1.1104 6.2372 7.21868 1.11056
5 1 -1.1104 6.65896 1.68971 1.08833
69 1 -1.1104 6.86397 4.30772 3.55085
33 1 -1.1104 12.4584 1.63605 0.939265
35 1 -1.1104 12.3866 1.67249 3.57646
38 2 2.2208 10.9264 3.06587 2.20809
41 1 -1.1104 9.40634 1.84268 0.798325
44 1 -1.1104 9.36018 1.76671 3.90142
46 2 2.2208 8.08283 3.16307 5.09044
84 2 2.2208 10.8236 6.07418 5.4673
86 1 -1.1104 12.2355 7.44853 0.98355
88 1 -1.1104 12.1245 4.45534 0.79638
92 1 -1.1104 12.193 4.44837 3.39697
94 1 -1.1104 9.28541 7.44089 0.931238
95 2 2.2208 7.87503 6.18628 2.46844
97 1 -1.1104 9.4602 7.59073 3.90425
99 1 -1.1104 9.3231 4.67661 0.907375
102 1 -1.1104 9.33701 4.63122 3.71362
87 1 -1.1104 12.2401 7.30026 3.98764
59 1 -1.1104 6.56628 7.22893 4.08127
237 1 -1.1104 6.68378 4.31773 6.77655
269 1 -1.1104 9.53658 4.65427 6.50342
206 1 -1.1104 12.0357 1.78291 6.37537
209 1 -1.1104 9.39618 1.76192 6.66532
310 2 2.2208 10.8249 11.6423 -0.432707
55 2 2.2208 5.27736 11.373 5.08901
61 1 -1.1104 1.01143 9.95937 0.869441
66 2 2.2208 5.03876 8.61448 2.2985
68 1 -1.1104 1.18675 10.1114 3.8404
73 2 2.2208 2.44355 11.4418 2.22523
75 2 2.2208 2.54315 8.83938 5.16812
77 1 -1.1104 3.82021 10.1124 0.809916
80 1 -1.1104 3.98303 10.1835 3.71513
107 1 -1.1104 0.986461 12.9816 0.704513
113 1 -1.1104 1.11917 12.9536 3.73087
123 1 -1.1104 3.85157 12.8228 0.813665
128 1 -1.1104 3.85101 13.1078 3.55245
9016 2 2.2208 -0.429837 8.77823 8.13917
70 1 -1.1104 6.47183 9.97367 3.73551
9094 2 2.2208 -0.41329 5.94501 5.17992
9017 2 2.2208 -0.0777202 5.84286 10.9839
108 1 -1.1104 1.30221 12.9522 6.55955
111 1 -1.1104 6.86664 12.646 6.36175
115 1 -1.1104 6.72871 13.1815 3.75432
64 1 -1.1104 6.69329 9.98211 1.05746
110 1 -1.1104 6.80188 13.1236 0.737083
85 2 2.2208 10.7857 11.5658 5.17861
89 1 -1.1104 12.2636 10.0259 1.09391
91 2 2.2208 10.8515 8.6769 2.42948
93 1 -1.1104 12.1428 10.1902 3.55609
96 2 2.2208 7.99315 11.6595 2.29475
98 2 2.2208 8.09406 8.73301 5.30597
100 1 -1.1104 9.40326 10.1454 0.89948
103 1 -1.1104 9.39358 10.2999 3.65951
142 1 -1.1104 12.2056 13.0677 0.944056
146 1 -1.1104 12.3219 13.0113 3.84546
153 1 -1.1104 9.53536 12.7296 0.962979
158 1 -1.1104 9.55829 13.0756 3.47971
154 1 -1.1104 9.57816 13.3335 6.40252
90 1 -1.1104 12.3736 10.023 6.48884
101 1 -1.1104 9.55785 10.4382 6.55998
143 1 -1.1104 12.353 13.0179 6.58723
9096 2 2.2208 -0.110798 11.4801 5.27413
9107 2 2.2208 -0.374355 0.264904 -0.432749
165 1 -1.1104 9.69409 18.4024 9.65103
8389 2 2.2208 10.9093 -5.26965 5.0902
8817 2 2.2208 -0.31589 19.8681 8.06347
119 2 2.2208 5.42033 14.5762 2.40171
130 2 2.2208 2.39615 14.4539 4.8935
106 2 2.2208 5.28754 17.4255 5.41202
109 1 -1.1104 1.13013 18.6773 0.830719
114 1 -1.1104 1.20475 18.7278 3.74836
116 1 -1.1104 0.909895 15.7384 0.84746
120 2 2.2208 5.27116 20.166 2.63163
121 1 -1.1104 0.900176 16.0401 3.76332
125 1 -1.1104 3.80056 18.5416 0.853528
127 2 2.2208 2.52889 17.197 1.97412
129 1 -1.1104 3.96005 18.4443 3.66113
131 2 2.2208 2.47307 19.9022 5.14527
132 1 -1.1104 3.96511 15.769 0.868563
134 1 -1.1104 3.70494 15.8121 3.63987
8816 2 2.2208 13.6727 0.140544 7.88882
138 1 -1.1104 6.69916 18.7559 0.856092
204 1 -1.1104 1.10584 18.5455 6.66536
112 1 -1.1104 6.72339 18.672 6.87359
139 1 -1.1104 6.79168 18.8573 4.0885
122 1 -1.1104 6.58078 16.0477 3.77353
140 1 -1.1104 6.91431 15.9024 0.988066
150 2 2.2208 10.9707 14.4544 2.53909
160 2 2.2208 8.1474 14.6295 5.04596
141 2 2.2208 10.9086 17.2317 5.28118
144 1 -1.1104 12.3904 18.5807 0.777154
147 1 -1.1104 12.4485 18.6164 3.83603
148 1 -1.1104 12.4857 15.7844 0.740278
151 2 2.2208 10.9815 19.8957 2.35231
152 1 -1.1104 12.1446 15.627 3.79489
155 1 -1.1104 9.62901 18.6073 0.999609
157 2 2.2208 8.17797 17.2326 2.39001
159 1 -1.1104 9.63146 18.6644 3.8134
161 2 2.2208 8.28711 20.0719 5.37724
162 1 -1.1104 9.7113 15.9947 0.848929
164 1 -1.1104 9.34892 15.8253 3.73126
149 1 -1.1104 12.4978 15.7156 6.60433
145 1 -1.1104 12.2761 18.5656 6.70848
163 1 -1.1104 9.49922 16.0341 6.65495
201 1 -1.1104 9.43221 15.5849 12.311
166 1 -1.1104 1.2807 -4.0355 6.43324
174 1 -1.1104 3.67959 -1.17188 6.65293
172 1 -1.1104 3.89618 -3.98227 6.60455
9100 2 2.2208 -0.253603 17.1574 5.44665
9102 2 2.2208 -0.150788 2.9108 8.06666
175 2 2.2208 5.39476 0.228475 10.7079
176 1 -1.1104 0.979904 -4.05342 12.2699
180 1 -1.1104 1.06739 -4.00353 9.43568
184 1 -1.1104 0.992935 -1.07604 12.2861
186 2 2.2208 5.30648 -2.62308 8.06703
188 1 -1.1104 1.08062 -1.00033 9.54424
190 1 -1.1104 3.78282 -3.96225 12.1163
192 2 2.2208 2.48366 0.313922 8.17898
193 1 -1.1104 3.88028 -3.82399 9.42919
195 2 2.2208 2.329 -2.60192 10.8436
197 1 -1.1104 4.04023 -1.15784 12.4595
198 1 -1.1104 3.91501 -1.21868 9.53757
83 1 -1.1104 12.1503 15.7911 9.46567
9095 2 2.2208 -0.307682 8.73189 2.19931
171 1 -1.1104 6.7158 -1.30679 6.69044
207 1 -1.1104 12.4354 -0.996282 6.44418
168 1 -1.1104 6.86121 -4.08377 6.44908
182 1 -1.1104 6.56055 -3.80186 9.52206
185 1 -1.1104 6.87941 -1.05083 12.0379
189 1 -1.1104 6.91769 -0.992824 9.51329
208 1 -1.1104 9.5662 -3.90623 6.40531
178 1 -1.1104 6.61302 -3.85216 12.2862
211 2 2.2208 10.8958 0.0930187 10.7357
212 1 -1.1104 12.5336 -3.82471 12.0358
214 1 -1.1104 12.1838 -4.04168 9.18723
216 1 -1.1104 12.4333 -1.04708 12.2666
217 2 2.2208 11.0035 -2.63328 7.89621
219 1 -1.1104 12.4328 -1.1732 9.45313
220 1 -1.1104 9.52046 -3.87193 12.3018
222 2 2.2208 8.186 0.286974 8.08472
223 1 -1.1104 9.48388 -3.98095 9.32579
225 2 2.2208 8.15764 -2.60958 10.8222
227 1 -1.1104 9.63933 -1.09596 12.0544
228 1 -1.1104 9.56566 -1.27482 9.34218
238 1 -1.1104 4.05206 7.52521 6.56875
239 1 -1.1104 3.88993 4.62509 6.55595
236 1 -1.1104 1.15981 4.45858 6.54508
234 1 -1.1104 1.22152 7.303 6.79132
173 1 -1.1104 3.98452 1.69891 6.62012
167 1 -1.1104 1.23951 1.55999 6.67265
136 2 2.2208 -0.296167 19.9951 2.40654
177 1 -1.1104 1.01824 1.63203 12.276
181 1 -1.1104 1.18652 1.75949 9.58799
187 2 2.2208 5.26112 2.88679 8.00282
191 1 -1.1104 3.82647 1.86511 12.4675
194 1 -1.1104 4.01843 1.50675 9.52008
196 2 2.2208 2.46465 3.03528 10.908
240 2 2.2208 5.33615 5.83945 11.0171
244 1 -1.1104 1.08322 7.303 9.51658
246 1 -1.1104 1.26794 4.40643 12.5352
251 1 -1.1104 1.11246 4.49974 9.63699
255 1 -1.1104 3.94624 7.24081 12.3124
256 2 2.2208 2.39725 6.16736 8.03758
258 1 -1.1104 4.04137 7.3566 9.64083
260 1 -1.1104 3.90787 4.52441 12.2176
262 1 -1.1104 3.90176 4.37118 9.36633
242 1 -1.1104 1.20579 7.29715 12.2414
309 2 2.2208 10.716 6.0613 -0.388357
253 1 -1.1104 6.71136 4.43332 9.69714
243 1 -1.1104 6.80299 7.41476 12.4104
169 1 -1.1104 6.61584 1.4728 6.82818
267 1 -1.1104 9.67129 7.53893 6.69418
235 1 -1.1104 6.88388 7.27185 6.87977
266 1 -1.1104 12.4458 4.38978 6.227
183 1 -1.1104 6.81177 1.80709 9.41846
248 1 -1.1104 6.64084 4.55248 12.5079
245 1 -1.1104 6.85078 7.3099 9.50931
179 1 -1.1104 6.6452 1.76783 12.3274
265 1 -1.1104 12.2381 7.16987 7.18011
213 1 -1.1104 12.1469 1.70676 12.1546
215 1 -1.1104 12.57 1.67812 9.14297
218 2 2.2208 11.0089 3.14287 7.92151
221 1 -1.1104 9.60185 1.59531 12.1826
224 1 -1.1104 9.69725 1.4748 9.41202
226 2 2.2208 8.12095 3.09365 10.9405
268 1 -1.1104 9.50508 4.50119 9.41948
271 1 -1.1104 9.56204 4.49404 12.2706
275 2 2.2208 7.97535 5.69359 8.31223
276 2 2.2208 10.9042 5.86491 11.0186
278 1 -1.1104 12.3091 7.13383 12.6006
279 1 -1.1104 12.3565 4.59251 12.2215
281 1 -1.1104 12.2346 4.5747 9.41207
282 1 -1.1104 9.54133 7.38957 12.5139
273 1 -1.1104 10.0283 7.54757 9.82806
9090 2 2.2208 -0.343266 3.12316 2.34967
62 1 -1.1104 1.17651 10.0067 6.67222
65 1 -1.1104 6.65705 10.0314 6.58151
124 1 -1.1104 4.0363 13.0863 6.53642
9009 2 2.2208 -0.287827 11.6111 10.9244
299 2 2.2208 5.21853 -2.70311 13.6677
78 1 -1.1104 3.84967 10.2398 6.45879
241 2 2.2208 5.35606 11.5115 10.926
247 1 -1.1104 1.23509 10.089 12.3701
250 2 2.2208 5.44654 8.56168 8.17494
252 1 -1.1104 1.1845 10.0962 9.74353
257 2 2.2208 2.62008 11.5498 7.94572
259 2 2.2208 2.52405 8.85736 10.9862
261 1 -1.1104 3.99868 10.0885 12.2842
263 1 -1.1104 3.8424 10.048 9.11386
52 1 -1.1104 3.99088 13.0467 9.59525
284 1 -1.1104 3.91408 13.0377 12.4854
291 1 -1.1104 1.18855 12.9512 9.64012
296 1 -1.1104 1.06935 12.8877 12.3006
254 1 -1.1104 6.47555 9.87932 9.78999
27 1 -1.1104 12.3022 18.4601 12.4
294 1 -1.1104 6.69989 13.1046 12.2448
287 1 -1.1104 6.8275 12.7376 9.33417
249 1 -1.1104 6.98781 10.1633 12.2859
264 1 -1.1104 9.28685 10.2071 9.58134
270 1 -1.1104 10.002 10.134 12.1874
272 2 2.2208 8.21999 8.74092 10.9805
274 2 2.2208 8.19191 11.6367 7.9641
277 2 2.2208 10.9311 11.6886 10.8484
280 2 2.2208 10.8971 8.88695 7.99591
26 1 -1.1104 12.0633 13.2569 12.0197
30 1 -1.1104 12.2742 13.1661 9.38441
104 1 -1.1104 9.45215 12.7759 12.201
137 1 -1.1104 9.48982 12.9838 9.19419
9006 1 -1.1104 12.0207 10.3067 9.29699
51 1 -1.1104 12.4907 15.6564 12.3356
8950 2 2.2208 -0.373778 17.3957 10.8729
286 1 -1.1104 6.67116 15.7054 9.4472
117 1 -1.1104 1.1161 15.6493 6.66336
133 1 -1.1104 4.03605 15.8059 6.59602
50 1 -1.1104 12.5097 18.5703 9.46728
126 1 -1.1104 3.8243 18.8155 6.75805
292 2 2.2208 5.35806 14.4258 8.05276
229 2 2.2208 2.47272 14.223 11.0446
28 1 -1.1104 0.994407 15.6878 12.2812
53 1 -1.1104 3.89603 15.8512 9.42507
203 2 2.2208 2.6177 17.1336 7.97717
230 2 2.2208 2.51694 20.0689 10.7486
231 1 -1.1104 3.71422 15.7551 12.1727
232 1 -1.1104 3.90392 18.6394 9.32993
233 2 2.2208 5.25829 17.2474 10.9093
283 1 -1.1104 3.68993 18.534 12.2753
288 1 -1.1104 1.13571 18.4667 9.37282
289 1 -1.1104 0.972628 15.6464 9.39816
290 2 2.2208 5.15477 20.1271 8.1005
295 1 -1.1104 0.889201 18.6018 12.4168
81 2 2.2208 10.8268 14.5933 8.07422
293 1 -1.1104 6.69175 18.6591 12.2757
200 2 2.2208 8.07018 20.003 10.9165
156 1 -1.1104 9.46576 18.5962 6.83937
135 2 2.2208 8.097 17.2008 8.25631
199 2 2.2208 8.04464 14.3288 10.8339
202 1 -1.1104 9.29965 15.6395 9.44584
105 1 -1.1104 9.70944 18.7107 12.2428
118 1 -1.1104 6.66974 15.9629 6.61805
82 2 2.2208 10.9931 19.8681 8.10029
29 1 -1.1104 6.65506 15.8009 12.2878
285 1 -1.1104 6.72389 18.572 9.67528
25 2 2.2208 10.998 17.0543 10.9498
8401 2 2.2208 8.21934 -5.19157 13.6069
569 2 2.2208 8.00128 3.10089 -0.423693
386 2 2.2208 10.9498 2.97112 13.6213
308 2 2.2208 11.1266 -2.65654 13.4464
306 2 2.2208 2.30219 -2.586 -0.406484
9098 2 2.2208 13.6267 5.9686 2.20725
511 2 2.2208 8.12439 17.104 13.5222
305 2 2.2208 5.27669 0.19235 -0.377547
9097 2 2.2208 13.6299 11.7794 2.2645
8985 2 2.2208 -0.38987 0.418883 11.001
433 2 2.2208 8.21562 11.7678 13.6293
628 2 2.2208 8.12776 8.85747 -0.442749
311 2 2.2208 5.49832 0.0369848 16.4956
312 1 -1.1104 1.06703 -3.87504 17.9341
316 1 -1.1104 1.0905 -3.98428 15.2041
324 1 -1.1104 0.906137 -0.867745 18.0695
326 2 2.2208 5.55488 -2.63965 19.2094
328 1 -1.1104 1.02087 -1.08587 15.206
332 1 -1.1104 3.84253 -3.96054 17.8918
334 2 2.2208 2.65813 0.345067 19.2566
335 1 -1.1104 4.00394 -4.10535 15.1101
339 2 2.2208 2.41361 -2.63689 16.6085
341 1 -1.1104 4.0983 -1.24134 17.721
342 1 -1.1104 3.95689 -1.46335 15.0677
9240 2 2.2208 -0.401343 0.399717 16.6593
302 2 2.2208 10.8231 8.70146 13.7853
421 2 2.2208 5.38793 8.92564 13.8161
8400 2 2.2208 5.18819 -5.33183 27.7855
8526 2 2.2208 2.61513 -5.35927 19.2915
320 1 -1.1104 6.93265 -3.83728 15.0355
314 1 -1.1104 6.82094 -3.94316 17.8036
325 1 -1.1104 7.02723 -1.28363 17.6561
330 1 -1.1104 6.81725 -1.09719 14.8417
354 2 2.2208 11.0778 0.18158 16.1565
355 1 -1.1104 12.3194 -4.13468 17.9543
357 1 -1.1104 12.3369 -3.80142 14.8663
361 1 -1.1104 12.5301 -1.36524 17.8137
362 2 2.2208 11.0885 -2.62575 19.366
364 1 -1.1104 12.3558 -1.24833 14.8783
366 1 -1.1104 9.39732 -3.97587 17.8431
368 2 2.2208 8.42746 0.244495 19.2097
369 1 -1.1104 9.57546 -4.05341 14.9437
373 2 2.2208 8.34597 -2.55622 16.3266
375 1 -1.1104 9.60949 -1.09599 17.5506
376 1 -1.1104 9.65393 -1.12345 14.6628
331 1 -1.1104 6.91968 -1.24597 20.5689
8461 2 2.2208 2.47584 -5.32348 24.9948
9239 2 2.2208 -0.396556 -2.45521 19.4243
604 2 2.2208 5.3444 11.5703 27.5052
313 1 -1.1104 1.11619 1.8895 17.8546
318 1 -1.1104 1.12263 1.77858 15.0088
327 2 2.2208 5.36388 3.09345 19.1841
333 1 -1.1104 4.04118 1.56211 17.8465
337 1 -1.1104 3.97752 1.4664 15.3058
340 2 2.2208 2.55292 3.12168 16.4785
387 2 2.2208 5.2494 5.8813 16.6273
389 1 -1.1104 1.02108 7.47442 17.8155
391 1 -1.1104 1.32658 7.27897 14.9618
395 1 -1.1104 1.17127 4.60289 18.0726
400 1 -1.1104 0.851717 4.43223 15.4423
409 2 2.2208 2.39024 5.82963 19.3638
411 1 -1.1104 3.97989 7.57428 15.3733
414 1 -1.1104 3.76848 4.36504 17.8852
416 1 -1.1104 3.85204 4.58856 15.1169
408 1 -1.1104 3.74038 7.2574 18.1483
9114 2 2.2208 -0.296229 -2.46473 13.7113
630 2 2.2208 8.14713 20.2682 22.1744
9170 2 2.2208 -0.364796 -2.54607 24.923
548 1 -1.1104 12.3345 15.8261 26.1466
322 1 -1.1104 6.5565 1.77557 15.188
315 1 -1.1104 6.91364 1.5703 17.8467
404 1 -1.1104 6.54899 4.5476 15.2802
397 1 -1.1104 6.5384 4.59362 17.9495
390 1 -1.1104 6.81825 7.35662 18.0484
393 1 -1.1104 6.79902 7.28673 15.1899
356 1 -1.1104 12.4117 1.60282 17.8754
359 1 -1.1104 12.3853 1.93034 15.0403
363 2 2.2208 11.0121 2.97104 19.2878
367 1 -1.1104 9.74074 1.53525 17.8642
371 1 -1.1104 9.58801 1.41789 15.2437
374 2 2.2208 8.27735 2.88744 16.5253
423 2 2.2208 10.893 5.76871 16.6726
428 1 -1.1104 12.1532 4.43994 17.8854
431 1 -1.1104 12.5371 4.62375 15.0487
436 2 2.2208 8.01348 5.84238 19.3796
438 1 -1.1104 9.78482 7.30496 15.238
441 1 -1.1104 9.34719 4.41767 17.8813
443 1 -1.1104 9.73063 4.22926 15.1731
426 1 -1.1104 12.5148 7.00553 17.4635
435 1 -1.1104 9.64341 7.51016 17.8905
439 1 -1.1104 9.38569 7.3947 20.6632
405 1 -1.1104 6.89558 4.35991 20.6084
427 1 -1.1104 12.3543 7.27263 20.5677
353 2 2.2208 5.26932 3.05258 13.6878
323 1 -1.1104 6.76554 1.70028 20.6699
372 1 -1.1104 9.59252 1.63272 20.6397
422 2 2.2208 2.39198 11.5641 13.7963
388 2 2.2208 5.20001 11.593 16.5
396 1 -1.1104 0.98539 10.1431 17.9058
399 2 2.2208 5.14029 8.86901 19.4477
402 1 -1.1104 1.33645 9.95481 15.2777
410 2 2.2208 2.44537 11.6503 19.3083
413 2 2.2208 2.60233 8.87725 16.6779
415 1 -1.1104 3.85026 10.1618 17.9532
418 1 -1.1104 3.98887 10.3116 15.0732
450 1 -1.1104 1.07327 13.0934 17.695
454 1 -1.1104 1.07591 12.8026 14.968
470 1 -1.1104 3.7478 13.0835 17.9731
473 1 -1.1104 3.91983 12.8951 15.2229
603 2 2.2208 2.34537 8.73539 27.6585
8496 2 2.2208 8.10124 -5.33766 19.2697
608 2 2.2208 8.25072 14.572 22.1289
429 1 -1.1104 12.2626 9.89769 15.1615
458 1 -1.1104 6.68745 12.8613 14.9369
398 1 -1.1104 6.36508 10.2153 17.9596
452 1 -1.1104 6.69646 13.0167 17.7939
406 1 -1.1104 6.92004 10.0821 15.1834
425 1 -1.1104 12.3453 9.9423 17.9232
424 2 2.2208 10.9976 11.5853 16.6081
430 2 2.2208 10.7383 8.64747 19.471
437 2 2.2208 8.00735 11.6666 19.1774
440 2 2.2208 8.05734 8.83084 16.738
442 1 -1.1104 9.39415 10.212 18.0726
445 1 -1.1104 9.59441 10.3455 15.0422
486 1 -1.1104 12.3585 12.733 18.0483
488 1 -1.1104 12.1066 12.9596 15.2286
497 1 -1.1104 9.50262 13.037 17.7739
500 1 -1.1104 9.48289 13.1493 15.1523
489 1 -1.1104 12.2341 12.7734 20.9905
459 1 -1.1104 6.71158 13.0586 20.7951
501 1 -1.1104 9.5545 13.21 20.6314
446 1 -1.1104 9.32481 10.3443 20.6554
545 1 -1.1104 12.1793 15.9504 23.6515
9283 2 2.2208 13.5043 14.4583 22.2542
8459 2 2.2208 10.9848 -5.36138 22.0699
571 1 -1.1104 6.53322 15.7967 23.545
9211 2 2.2208 -0.258224 3.0588 19.2546
9141 2 2.2208 -0.344213 20.2748 13.7605
477 2 2.2208 2.67826 14.4387 16.4363
464 2 2.2208 5.31727 14.6042 19.3995
449 2 2.2208 5.41744 17.1516 16.579
451 1 -1.1104 1.24864 18.7696 18.0162
456 1 -1.1104 1.22515 18.5611 15.3739
462 1 -1.1104 1.17021 16.0806 18.0235
465 2 2.2208 5.53301 20.1253 19.3623
466 1 -1.1104 1.07757 15.5975 15.2502
471 1 -1.1104 4.17086 18.6489 17.9224
472 2 2.2208 2.63933 17.414 19.3298
475 1 -1.1104 3.93107 18.3187 15.1797
478 2 2.2208 2.62097 19.9604 16.6094
479 1 -1.1104 4.07429 15.7204 17.9525
480 1 -1.1104 3.84429 15.6277 14.8618
468 1 -1.1104 6.88043 15.7465 14.9148
481 1 -1.1104 3.81872 16.0347 20.8687
476 1 -1.1104 3.88681 18.7784 20.6926
541 1 -1.1104 12.5887 18.946 25.9912
577 2 2.2208 8.10761 17.3332 24.8265
453 1 -1.1104 6.94115 18.5401 17.8944
463 1 -1.1104 6.84393 15.8887 17.7682
460 1 -1.1104 6.74695 18.4853 15.0769
493 2 2.2208 11.0195 14.3527 19.3551
504 2 2.2208 8.16843 14.4608 16.4557
485 2 2.2208 11.1346 17.2311 16.4397
487 1 -1.1104 12.3832 18.7069 17.7812
490 1 -1.1104 12.5438 18.7049 15.1819
492 1 -1.1104 12.3225 15.5952 17.8939
494 2 2.2208 10.9091 20.1328 19.2761
495 1 -1.1104 12.5168 15.9653 15.0261
498 1 -1.1104 9.74278 18.5957 17.7444
499 2 2.2208 8.32272 17.3028 19.2732
502 1 -1.1104 9.6576 18.6519 14.9446
505 2 2.2208 8.14912 20.044 16.2974
506 1 -1.1104 9.70517 15.9053 17.9545
507 1 -1.1104 9.68276 15.8925 15.0947
496 1 -1.1104 12.3895 15.9358 20.7723
503 1 -1.1104 9.41933 18.7517 20.8193
491 1 -1.1104 12.3964 18.7039 20.6174
576 1 -1.1104 9.65235 18.7506 23.6228
469 1 -1.1104 6.89939 15.99 20.7228
461 1 -1.1104 6.768 18.5031 20.6022
508 1 -1.1104 9.64128 15.9024 20.7075
329 1 -1.1104 0.983891 -1.23867 20.7946
317 1 -1.1104 1.16052 -3.81573 20.7217
602 2 2.2208 5.08572 5.986 27.6146
632 1 -1.1104 9.35058 15.7609 26.0865
343 1 -1.1104 3.92052 -1.12697 20.5624
336 1 -1.1104 4.04066 -4.06579 20.7132
513 2 2.2208 5.29349 0.265443 21.9809
514 1 -1.1104 1.24267 -3.87597 23.5281
518 1 -1.1104 0.962952 -3.88572 26.37
522 1 -1.1104 1.44693 -1.10886 23.6594
524 2 2.2208 5.39381 -2.53662 24.8162
526 1 -1.1104 0.848311 -1.16664 26.4462
528 1 -1.1104 3.81294 -4.04572 23.584
530 2 2.2208 2.5661 0.233028 25.0203
531 1 -1.1104 3.77087 -3.80578 26.4721
533 2 2.2208 2.47631 -2.52692 22.1398
535 1 -1.1104 4.16156 -1.34092 23.5563
536 1 -1.1104 4.00694 -1.25642 26.2121
9112 2 2.2208 -0.287606 3.05867 13.7618
537 1 -1.1104 6.77083 18.752 23.4363
365 1 -1.1104 12.4774 -1.15449 20.5488
370 1 -1.1104 9.6382 -4.06542 20.6419
377 1 -1.1104 9.64788 -1.15421 20.638
382 2 2.2208 10.9687 17.2455 22.0217
358 1 -1.1104 12.5055 -3.85598 20.738
523 1 -1.1104 6.74007 -1.07779 23.6363
321 1 -1.1104 6.79222 -3.88277 20.716
527 1 -1.1104 6.64623 -1.04775 26.4158
520 1 -1.1104 6.60404 -3.85601 26.3266
516 1 -1.1104 6.79975 -3.88107 23.4799
549 2 2.2208 11.0583 0.286429 22.0966
550 1 -1.1104 12.4927 -3.79322 23.6229
552 1 -1.1104 12.1379 -3.81052 26.6287
554 1 -1.1104 12.3723 -1.11658 23.4046
555 2 2.2208 11.1082 -2.48212 24.9079
557 1 -1.1104 12.4439 -1.17104 26.3347
558 1 -1.1104 9.64255 -4.00482 23.3416
560 2 2.2208 8.05514 0.453483 24.9093
561 1 -1.1104 9.4093 -3.88207 26.0258
563 2 2.2208 8.23965 -2.44733 22.4056
565 1 -1.1104 9.63153 -1.00784 23.5129
566 1 -1.1104 9.37198 -0.866739 26.3068
9352 2 2.2208 -0.233908 17.258 16.7091
401 1 -1.1104 1.18899 4.49569 20.7731
417 1 -1.1104 4.17541 4.7746 20.6125
392 1 -1.1104 0.841741 7.13253 20.4711
412 1 -1.1104 3.68927 7.60686 20.8878
338 1 -1.1104 3.90874 1.84201 20.6422
319 1 -1.1104 1.06877 1.65285 20.6182
515 1 -1.1104 1.02496 1.63901 23.4035
519 1 -1.1104 0.960023 1.49862 26.4051
525 2 2.2208 5.35278 2.9363 24.9917
529 1 -1.1104 3.99084 1.65036 23.5023
532 1 -1.1104 3.74647 1.46846 26.2274
534 2 2.2208 2.39786 3.0643 22.1392
578 2 2.2208 5.30282 5.81798 22.2793
584 1 -1.1104 1.12485 4.21773 23.5631
589 1 -1.1104 1.03087 4.5918 26.2559
593 1 -1.1104 3.69278 7.12383 23.6604
594 2 2.2208 2.33115 5.77307 24.8101
598 1 -1.1104 3.87858 4.44425 23.5315
600 1 -1.1104 3.90213 4.32971 26.4309
580 1 -1.1104 0.8665 7.27822 23.4261
596 1 -1.1104 3.51683 7.11948 26.4472
582 1 -1.1104 0.80109 7.40322 26.2604
9169 2 2.2208 -0.437938 0.22068 22.1946
586 1 -1.1104 6.64788 4.52476 23.5851
546 2 2.2208 10.9391 14.4415 25.1098
394 1 -1.1104 6.4817 7.2562 20.9232
444 1 -1.1104 9.47205 4.51887 20.7232
432 1 -1.1104 12.2373 4.67186 20.6232
360 1 -1.1104 12.4639 1.81146 20.5988
517 1 -1.1104 6.81961 1.71108 23.4526
591 1 -1.1104 6.64306 4.55356 26.3684
583 1 -1.1104 6.55533 7.3375 26.4597
521 1 -1.1104 6.60394 1.68151 26.3273
581 1 -1.1104 6.72355 7.38105 23.4935
551 1 -1.1104 12.7032 1.63335 23.6195
553 1 -1.1104 12.2666 1.73803 26.4272
556 2 2.2208 11.0004 3.31541 25.0326
559 1 -1.1104 9.7704 1.70291 23.5146
562 1 -1.1104 9.61294 2.07613 26.2412
564 2 2.2208 8.33098 3.11588 22.1111
610 1 -1.1104 9.36106 4.56481 26.3521
612 1 -1.1104 9.46465 4.56111 23.6093
616 2 2.2208 8.08464 5.95384 25.0342
617 2 2.2208 10.7974 6.07657 21.9732
619 1 -1.1104 12.2212 7.44804 23.6148
621 1 -1.1104 12.2841 4.68362 23.5493
624 1 -1.1104 12.2181 4.61303 26.4546
614 1 -1.1104 9.45169 7.32126 26.3624
620 1 -1.1104 12.0841 7.37503 26.4011
626 1 -1.1104 9.55066 7.42235 23.5108
512 1 -1.1104 12.3953 18.639 23.3513
547 2 2.2208 11.0255 20.0618 24.9153
474 1 -1.1104 4.03202 13.1364 20.5431
9459 2 2.2208 -0.340457 5.84738 22.0132
403 1 -1.1104 0.997149 10.1485 20.6526
419 1 -1.1104 3.86159 10.3389 20.8273
455 1 -1.1104 1.28549 13.185 20.6176
579 2 2.2208 5.17872 11.6382 22.1103
585 1 -1.1104 1.09564 10.111 23.4315
588 2 2.2208 5.28702 8.59597 25.0042
590 1 -1.1104 0.973962 10.1968 26.2765
595 2 2.2208 2.4202 11.6321 24.8757
597 2 2.2208 2.38925 8.71764 22.1672
599 1 -1.1104 3.8928 10.0432 23.4485
601 1 -1.1104 3.85321 10.049 26.2274
352 1 -1.1104 0.884932 12.8291 23.4111
538 1 -1.1104 1.05973 13.0938 26.0204
572 1 -1.1104 3.84126 12.8583 26.0968
627 1 -1.1104 3.79291 12.9898 23.4027
304 2 2.2208 11.0095 19.9742 13.6817
434 1 -1.1104 12.3914 9.92857 20.6789
407 1 -1.1104 6.53849 10.3245 20.7445
629 1 -1.1104 6.9368 13.1731 26.3438
448 1 -1.1104 6.6902 12.9712 23.534
592 1 -1.1104 6.562 10.1743 26.1475
587 1 -1.1104 6.57873 10.1343 23.5435
609 1 -1.1104 9.29888 10.3005 26.3338
611 1 -1.1104 9.31573 10.3617 23.4867
613 2 2.2208 8.0202 8.84781 22.1183
615 2 2.2208 8.02726 11.689 24.9752
618 2 2.2208 10.6379 11.678 22.2825
622 1 -1.1104 12.2095 10.3591 23.5859
623 2 2.2208 10.9026 8.74671 24.896
625 1 -1.1104 12.5129 10.1704 26.4257
383 1 -1.1104 12.2172 12.9767 23.7637
540 1 -1.1104 12.426 12.9802 26.4428
575 1 -1.1104 9.53339 13.183 23.4923
606 1 -1.1104 9.73396 13.0705 26.3655
574 1 -1.1104 6.67706 15.6327 26.2887
631 1 -1.1104 9.42017 15.9692 23.3695
9284 2 2.2208 -0.33037 8.69455 24.8296
605 1 -1.1104 6.58519 18.5608 26.1853
467 1 -1.1104 1.20083 15.7381 20.6253
457 1 -1.1104 1.08851 18.6212 20.9184
9243 2 2.2208 13.6592 11.5254 19.4561
607 1 -1.1104 9.41856 18.5405 26.2909
381 2 2.2208 2.40645 14.4333 22.1852
483 2 2.2208 5.25705 14.4582 24.9624
544 1 -1.1104 1.11184 15.7304 23.3673
543 1 -1.1104 3.71542 15.871 23.6178
542 2 2.2208 2.46312 20.0074 22.3203
539 1 -1.1104 1.2105 15.751 26.2964
509 2 2.2208 5.23648 20.2043 24.9465
633 1 -1.1104 4.11005 18.6463 23.5563
573 1 -1.1104 3.97391 15.7378 26.5898
568 1 -1.1104 1.02225 18.5794 26.2265
378 1 -1.1104 0.906997 18.5377 23.7527
351 2 2.2208 5.33562 17.1937 22.003
344 2 2.2208 2.62266 17.263 24.9902
345 1 -1.1104 3.8522 18.8111 26.2845
346 2 2.2208 -0.435918 19.9221 24.9629
300 2 2.2208 2.55505 0.236651 14.0117
9166 2 2.2208 -0.27516 2.95152 24.8651
349 2 2.2208 10.8018 17.2211 27.6351
9351 2 2.2208 -0.134207 14.4567 19.2071
9167 2 2.2208 -0.307742 17.1426 21.9947
348 2 2.2208 8.36253 14.4362 27.7818
385 2 2.2208 -0.171137 20.1708 19.4116
8527 2 2.2208 5.48963 -5.19327 16.4094
9173 2 2.2208 -0.211684 14.4464 24.8832
350 2 2.2208 2.45996 14.3426 27.7804
9387 2 2.2208 -0.235352 11.5488 22.0025
482 2 2.2208 2.30837 17.1012 13.8184
567 2 2.2208 10.7886 0.515045 27.6502
510 2 2.2208 11.1851 14.3544 13.8043
9248 2 2.2208 -0.0693377 8.62463 13.791
447 2 2.2208 8.0182 6.00179 13.9474
301 2 2.2208 7.98777 -2.56914 27.6928
9215 2 2.2208 -0.369469 11.4541 27.5647
380 2 2.2208 2.53564 19.911 27.6925
303 2 2.2208 5.43984 19.9401 13.76
8495 2 2.2208 5.50289 -5.28775 22.038
9282 2 2.2208 -0.34756 6.02742 16.6114
307 2 2.2208 2.46346 3.0022 27.7774
635 2 2.2208 8.13254 20.0359 27.6989
636 2 2.2208 5.50312 22.8007 5.30666
638 1 -1.1104 1.47385 24.4041 1.05747
639 1 -1.1104 0.960234 24.4001 4.11152
640 1 -1.1104 1.07268 21.5086 1.13531
642 2 2.2208 5.51734 25.5925 2.5904
643 1 -1.1104 0.871784 21.4102 3.89311
645 1 -1.1104 4.18217 24.189 1.0748
646 2 2.2208 2.50439 23.0269 2.64044
648 1 -1.1104 3.89226 24.2405 4.07785
649 2 2.2208 2.53336 25.6999 5.5197
650 1 -1.1104 3.70175 21.291 1.22054
652 1 -1.1104 4.04629 21.3923 3.96541
644 1 -1.1104 1.26543 27.2252 3.88137
9799 2 2.2208 -0.30331 40.0098 -0.417682
9788 2 2.2208 0.0120291 31.4452 2.5542
651 1 -1.1104 4.0405 27.1558 1.11723
653 1 -1.1104 4.01065 27.0613 3.95356
660 1 -1.1104 6.78461 26.9525 1.03631
658 1 -1.1104 6.83849 24.2921 3.98607
662 1 -1.1104 6.66581 27.1216 3.94826
777 1 -1.1104 0.871214 24.4028 6.75288
783 1 -1.1104 3.85607 24.2811 6.92635
782 1 -1.1104 6.9251 27.0736 6.7974
9926 2 2.2208 -0.129798 28.736 -0.318057
9809 2 2.2208 -0.411718 42.6786 2.49262
657 1 -1.1104 6.80419 24.1597 1.11226
661 1 -1.1104 6.83411 21.4741 3.69791
659 1 -1.1104 6.55301 21.4689 1.01777
663 2 2.2208 11.02 22.9771 5.11663
665 1 -1.1104 12.293 23.9979 1.07415
666 1 -1.1104 12.4401 24.3429 3.74689
667 1 -1.1104 12.4517 21.4402 0.916273
669 2 2.2208 10.921 25.7294 2.49157
670 1 -1.1104 12.5455 21.4643 3.95808
672 1 -1.1104 9.43975 24.0416 1.03972
673 2 2.2208 8.1204 22.7279 2.45683
675 1 -1.1104 9.50209 24.2021 3.67771
676 2 2.2208 8.2058 25.6921 5.33411
677 1 -1.1104 9.51435 21.2433 0.90754
679 1 -1.1104 9.62833 21.3209 3.91791
680 1 -1.1104 9.49154 27.1019 3.78702
668 1 -1.1104 12.3384 27.0172 1.0237
671 1 -1.1104 12.4729 27.1747 3.74756
815 1 -1.1104 9.64753 26.9521 6.56647
678 1 -1.1104 9.44995 27.1056 0.92892
9798 2 2.2208 13.5808 28.5945 13.5786
781 1 -1.1104 6.70153 21.4461 6.57852
814 1 -1.1104 9.44994 21.6657 6.435
810 1 -1.1104 12.0746 24.1629 6.84435
641 1 -1.1104 1.37099 26.9829 1.00917
637 2 2.2208 5.47048 28.4766 5.29021
647 2 2.2208 2.58508 28.5761 2.47962
685 1 -1.1104 1.27069 29.9084 0.979911
688 1 -1.1104 1.47294 30.1509 3.79108
691 1 -1.1104 1.06544 32.6814 0.997222
692 2 2.2208 5.43907 31.4964 2.49552
694 1 -1.1104 1.2121 32.9119 3.8769
696 1 -1.1104 4.11676 30.136 1.01083
699 1 -1.1104 4.17982 30.0205 3.79018
701 2 2.2208 2.62975 31.5616 5.53116
703 1 -1.1104 3.96368 32.9948 1.03769
704 1 -1.1104 4.03369 32.7551 3.85866
695 1 -1.1104 6.81283 32.992 3.89803
834 1 -1.1104 0.881431 30.0312 6.48289
839 1 -1.1104 6.85044 32.9533 6.82854
9676 2 2.2208 -0.346987 28.8085 10.975
961 2 2.2208 2.47938 42.7711 -0.249293
9757 1 -1.1104 12.5576 41.3336 12.3382
9733 2 2.2208 -0.312565 34.4224 10.9296
812 1 -1.1104 12.4949 27.0556 6.46364
710 1 -1.1104 6.98669 32.4586 1.30992
708 1 -1.1104 6.83737 29.8414 1.11052
709 1 -1.1104 6.84644 29.8421 4.08756
664 2 2.2208 10.9527 28.4896 5.23221
674 2 2.2208 8.22577 28.52 2.54743
712 1 -1.1104 12.1847 29.7142 1.08989
714 1 -1.1104 12.49 30.0614 4.01755
716 1 -1.1104 12.328 32.6163 1.01541
717 2 2.2208 10.7803 31.2944 2.31139
719 1 -1.1104 12.2226 32.9868 4.09547
720 1 -1.1104 9.56862 29.9912 1.01269
723 1 -1.1104 9.50365 29.8403 3.81147
725 2 2.2208 8.10936 31.4112 5.14583
727 1 -1.1104 9.53995 32.834 0.931635
728 1 -1.1104 9.67701 32.7882 3.68874
836 1 -1.1104 6.8173 30.1757 6.84524
868 1 -1.1104 12.4856 29.9864 6.75846
870 1 -1.1104 12.3798 32.9119 6.74379
871 1 -1.1104 9.65582 30.0263 6.7354
775 1 -1.1104 12.2937 41.4463 9.75101
698 2 2.2208 2.64311 34.1231 2.40773
684 2 2.2208 5.62824 34.2974 5.14458
689 1 -1.1104 1.26923 35.9169 3.81246
693 2 2.2208 5.40098 37.2046 2.5731
697 1 -1.1104 1.34561 35.5994 1.13755
700 1 -1.1104 4.09356 35.6062 3.60448
702 2 2.2208 2.68452 37.0775 5.24103
730 2 2.2208 5.2864 39.9846 5.35912
736 1 -1.1104 0.908591 38.8816 1.12472
741 1 -1.1104 1.26558 38.6216 3.88969
746 2 2.2208 2.61506 39.681 2.21944
750 1 -1.1104 4.21537 38.266 1.00791
752 1 -1.1104 3.90215 38.5773 3.73849
1171 2 2.2208 5.467 39.8764 -0.120859
909 1 -1.1104 6.83019 38.6544 6.86172
705 2 2.2208 -0.366387 34.2732 5.28692