ITEM: TIMESTEP
40000
ITEM: NUMBER OF ATOMS
17730
ITEM: BOX BOUNDS pp pp pp
-4.4258129026889492e-01 2.7782581290269352e+01
-5.4115150913296750e+00 3.3349151509131821e+02
-4.3905926703375114e-01 2.7779059267033709e+01
ITEM: ATOMS id type q x y z
1 2 2.2208 4.966 0.162783 4.9431
2 1 -1.1104 0.503418 -3.84973 1.06473
6 1 -1.1104 0.784141 -3.81317 3.65793
10 1 -1.1104 0.864928 -1.08119 0.961564
12 2 2.2208 5.01573 -2.68884 2.24152
14 1 -1.1104 0.570189 -1.32523 3.8039
16 1 -1.1104 3.45672 -3.84103 0.782133
18 2 2.2208 1.96713 0.272392 2.46121
19 1 -1.1104 3.55035 -4.03749 3.61026
21 2 2.2208 2.15503 -2.64107 5.07572
23 1 -1.1104 3.62788 -1.11255 0.962433
24 1 -1.1104 3.46924 -1.19558 3.53559
15 1 -1.1104 6.37038 -1.34638 3.44577
170 1 -1.1104 0.727022 -0.95463 6.5058
172 1 -1.1104 3.49907 -3.95993 6.44932
174 1 -1.1104 3.70619 -1.18461 6.36256
168 1 -1.1104 6.20838 -3.8686 6.48926
166 1 -1.1104 0.650409 -4.00416 6.45862
4 1 -1.1104 6.42875 -4.06908 0.921549
11 1 -1.1104 6.51281 -1.52325 0.52488
171 1 -1.1104 6.44066 -1.00483 6.30542
9000 2 2.2208 13.5758 11.3734 8.02887
51 1 -1.1104 12.3392 15.5355 12.1698
8 1 -1.1104 6.37362 -4.36214 3.8937
8866 2 2.2208 13.5111 19.9332 4.93836
31 2 2.2208 10.4248 0.0893647 5.08318
32 1 -1.1104 11.8647 -4.15218 1.03435
34 1 -1.1104 11.9032 -3.98567 3.74591
36 1 -1.1104 11.9954 -1.39719 0.775888
37 2 2.2208 10.5863 -2.7182 2.25077
39 1 -1.1104 11.9045 -1.13839 3.48651
40 1 -1.1104 9.03576 -4.17088 0.73205
42 2 2.2208 7.58963 -0.0638696 2.06911
43 1 -1.1104 9.16347 -4.18199 3.65504
45 2 2.2208 7.74429 -2.73345 5.04975
47 1 -1.1104 9.32332 -1.30904 0.862784
48 1 -1.1104 9.0889 -1.38865 3.68188
207 1 -1.1104 11.969 -1.35802 6.46674
9093 2 2.2208 13.395 -2.67343 5.18952
9100 2 2.2208 -0.463895 17.291 5.23254
3 1 -1.1104 0.738624 1.63001 0.929752
7 1 -1.1104 0.737995 1.58974 3.80463
13 2 2.2208 5.02446 3.0175 2.18479
17 1 -1.1104 3.58307 1.62179 0.932694
20 1 -1.1104 3.41939 1.83247 3.61505
22 2 2.2208 2.13605 3.25874 5.20566
54 2 2.2208 4.79142 5.79928 4.96088
56 1 -1.1104 0.763073 7.37244 1.05889
60 1 -1.1104 0.646814 4.49171 0.909876
67 1 -1.1104 0.721103 4.43778 3.84782
72 2 2.2208 2.01973 5.82251 2.31719
74 1 -1.1104 3.467 7.1039 3.65865
76 1 -1.1104 3.52583 4.36157 0.835842
79 1 -1.1104 3.53165 4.51689 3.5426
58 1 -1.1104 0.766494 7.37589 3.86583
71 1 -1.1104 3.31687 7.15631 0.959249
57 1 -1.1104 6.20725 7.09492 0.539442
236 1 -1.1104 0.528491 4.62634 6.80194
169 1 -1.1104 6.34335 1.5419 6.35255
167 1 -1.1104 0.385521 1.6415 6.52969
238 1 -1.1104 3.72988 7.29858 6.57816
239 1 -1.1104 3.44851 4.57003 6.57387
63 1 -1.1104 6.4784 4.36108 0.856386
173 1 -1.1104 3.34692 1.5864 6.45041
234 1 -1.1104 0.657369 7.34094 6.59101
69 1 -1.1104 6.46218 4.21773 3.68988
59 1 -1.1104 6.30593 6.991 3.23851
5 1 -1.1104 6.29888 1.38848 0.695514
9 1 -1.1104 6.24708 1.403 3.49459
33 1 -1.1104 12.0532 1.30667 0.623193
35 1 -1.1104 11.9845 1.46452 3.8909
38 2 2.2208 10.7069 2.7034 2.17005
41 1 -1.1104 8.96845 1.34491 0.896918
44 1 -1.1104 9.07565 1.33637 3.55881
46 2 2.2208 7.89772 2.83955 4.78854
84 2 2.2208 10.7341 5.56904 5.05777
86 1 -1.1104 12.0628 7.09763 0.808037
87 1 -1.1104 12.1139 6.98747 3.94927
88 1 -1.1104 12.0508 4.22547 1.0456
92 1 -1.1104 12.232 4.36916 3.887
94 1 -1.1104 9.18469 7.07475 0.685562
95 2 2.2208 7.98935 5.56146 2.23653
97 1 -1.1104 9.29272 6.90347 3.48772
99 1 -1.1104 9.45506 4.28344 0.804852
102 1 -1.1104 9.36731 4.2624 3.40293
267 1 -1.1104 8.95822 7.16358 6.4042
206 1 -1.1104 11.9654 1.44825 6.57488
269 1 -1.1104 9.34328 4.2587 6.2435
209 1 -1.1104 9.22999 1.77658 6.19251
9098 2 2.2208 13.307 5.85378 2.27624
266 1 -1.1104 11.9655 4.1499 6.41966
8789 2 2.2208 13.5061 2.89518 5.16407
420 2 2.2208 2.26197 5.73944 13.5411
55 2 2.2208 5.17591 11.3552 5.22382
61 1 -1.1104 0.635166 10.2178 0.988815
66 2 2.2208 4.87007 8.32508 2.04684
68 1 -1.1104 0.743978 10.2114 3.86298
73 2 2.2208 2.2214 11.5171 2.41747
75 2 2.2208 2.27867 8.67886 5.129
77 1 -1.1104 3.61328 9.97797 1.02669
80 1 -1.1104 3.57413 9.70608 3.67834
107 1 -1.1104 0.668071 12.7445 1.17304
113 1 -1.1104 0.70109 12.9786 4.02976
123 1 -1.1104 3.67165 12.8839 0.877526
128 1 -1.1104 3.45623 12.7826 3.86492
110 1 -1.1104 6.47154 12.9834 0.866889
70 1 -1.1104 6.26859 9.83786 3.77441
108 1 -1.1104 1.0445 12.9581 6.77409
124 1 -1.1104 3.84139 13.0831 6.57896
65 1 -1.1104 6.3399 9.74859 6.57936
64 1 -1.1104 6.28067 10.0052 0.880386
115 1 -1.1104 6.366 12.6515 3.68438
62 1 -1.1104 0.839529 9.97013 6.54232
111 1 -1.1104 6.48379 12.6605 6.44553
78 1 -1.1104 3.67758 10.1674 6.39733
447 2 2.2208 7.80664 5.61704 13.6218
85 2 2.2208 10.5608 11.2938 4.92008
89 1 -1.1104 11.8758 9.82443 0.669894
91 2 2.2208 10.4616 8.53024 2.03719
93 1 -1.1104 11.8641 9.79664 3.50123
96 2 2.2208 7.73191 11.3216 2.09681
98 2 2.2208 7.65913 8.5068 5.06512
100 1 -1.1104 9.03679 9.82743 0.766165
103 1 -1.1104 9.13943 10.0125 3.55234
142 1 -1.1104 12.0499 12.8465 0.731059
146 1 -1.1104 12.2069 12.7849 3.56583
153 1 -1.1104 9.25739 12.6308 0.647121
158 1 -1.1104 9.36052 12.6644 3.49772
90 1 -1.1104 11.6553 9.51826 6.27208
143 1 -1.1104 12.1864 12.5969 6.34291
154 1 -1.1104 9.13103 12.7562 6.4108
119 2 2.2208 5.1328 14.3844 2.23558
130 2 2.2208 2.31138 14.3797 5.19881
106 2 2.2208 4.98538 17.3117 5.17207
109 1 -1.1104 0.748923 18.4401 0.789924
114 1 -1.1104 0.912209 18.6046 3.69408
116 1 -1.1104 0.866209 15.5431 1.00487
120 2 2.2208 5.07521 20.0517 2.23193
121 1 -1.1104 0.861479 15.7182 3.69315
125 1 -1.1104 3.66488 18.5373 0.769469
127 2 2.2208 2.34811 17.1239 2.34171
129 1 -1.1104 3.76028 18.5694 3.57297
131 2 2.2208 2.07163 20.172 5.0873
132 1 -1.1104 3.61996 15.7577 1.08432
134 1 -1.1104 3.82581 15.8057 3.89901
139 1 -1.1104 6.41786 18.398 3.75738
117 1 -1.1104 0.905413 15.6944 6.41237
204 1 -1.1104 0.783323 18.4128 6.62908
126 1 -1.1104 3.57488 18.6404 6.34253
133 1 -1.1104 3.6764 16.0158 6.64361
118 1 -1.1104 6.56258 15.4674 6.46246
122 1 -1.1104 6.63222 15.4404 3.60482
140 1 -1.1104 6.28695 15.6366 0.523506
163 1 -1.1104 9.31595 15.5128 6.49645
138 1 -1.1104 6.53889 18.5777 1.07016
160 2 2.2208 7.92349 14.1348 4.98778
150 2 2.2208 10.7517 14.0757 2.25684
141 2 2.2208 10.6406 17.0411 5.11161
144 1 -1.1104 11.8158 18.5535 0.795218
147 1 -1.1104 12.2346 18.382 3.76682
148 1 -1.1104 12.3351 15.6267 0.712211
151 2 2.2208 10.4292 19.9217 2.17858
152 1 -1.1104 11.9993 15.7486 3.56763
155 1 -1.1104 9.30134 18.4154 0.606374
157 2 2.2208 7.90557 16.8814 2.21081
159 1 -1.1104 9.06187 18.4677 3.58498
161 2 2.2208 7.92264 19.8892 5.03629
162 1 -1.1104 9.31611 15.4549 0.864913
164 1 -1.1104 9.33256 15.6052 3.74153
149 1 -1.1104 12.0265 15.4673 6.37519
9092 2 2.2208 13.4282 0.0658852 2.28506
8887 2 2.2208 13.4255 14.2056 5.08426
8404 2 2.2208 1.98473 -5.32032 13.484
156 1 -1.1104 9.43031 18.6795 6.29167
145 1 -1.1104 12.2081 18.449 6.6704
8391 2 2.2208 4.88395 -5.39904 10.701
175 2 2.2208 5.01345 0.0249754 10.7541
176 1 -1.1104 0.654138 -3.81801 12.2999
180 1 -1.1104 0.641515 -4.0145 9.2744
184 1 -1.1104 0.627114 -1.25655 12.0176
186 2 2.2208 4.86802 -2.49626 7.78086
188 1 -1.1104 0.743606 -1.27359 9.34151
190 1 -1.1104 3.3263 -3.75937 12.3963
192 2 2.2208 2.14155 0.0626242 7.77426
193 1 -1.1104 3.4586 -4.02708 9.40551
195 2 2.2208 2.08216 -2.46754 10.8007
197 1 -1.1104 3.46045 -1.05485 11.9136
198 1 -1.1104 3.58468 -1.13333 9.22925
185 1 -1.1104 6.3119 -1.18045 12.1096
178 1 -1.1104 6.21685 -4.01881 12.2318
189 1 -1.1104 6.40202 -1.37677 9.25128
182 1 -1.1104 6.21695 -4.06197 9.29642
9172 2 2.2208 13.2926 0.0418084 13.5681
304 2 2.2208 10.8907 20.2408 13.4123
205 1 -1.1104 11.9435 -4.02651 6.34355
210 1 -1.1104 9.16621 -1.41356 6.61487
208 1 -1.1104 8.94129 -4.15991 6.55378
482 2 2.2208 2.3653 17.1383 13.4385
511 2 2.2208 7.88796 17.1413 13.5773
8816 2 2.2208 13.2747 0.154006 7.98262
9087 2 2.2208 13.4252 14.2143 10.7389
211 2 2.2208 10.6645 0.105145 10.8777
212 1 -1.1104 11.9422 -4.06585 12.3184
214 1 -1.1104 12.0385 -4.04556 9.45852
216 1 -1.1104 11.8192 -1.23845 12.1832
217 2 2.2208 10.4768 -2.79019 8.1198
219 1 -1.1104 11.758 -1.28484 9.35932
220 1 -1.1104 8.92153 -4.00895 12.4396
222 2 2.2208 7.80813 0.140702 7.72414
223 1 -1.1104 8.87576 -4.27107 9.56352
225 2 2.2208 7.69734 -2.70797 10.859
227 1 -1.1104 9.02607 -1.16482 12.1831
228 1 -1.1104 9.02499 -1.51081 9.45122
8791 2 2.2208 13.3173 -2.6777 10.6713
82 2 2.2208 10.9198 20.008 7.85698
237 1 -1.1104 6.25261 4.066 6.53712
177 1 -1.1104 0.734457 1.68062 12.0716
181 1 -1.1104 0.718201 1.51268 9.34212
187 2 2.2208 4.96447 2.8091 7.72335
191 1 -1.1104 3.55069 1.67428 12.1651
194 1 -1.1104 3.55995 1.60182 9.34031
196 2 2.2208 2.21414 2.91033 10.6177
240 2 2.2208 5.15679 5.63955 10.6257
244 1 -1.1104 0.853035 7.22986 9.28993
246 1 -1.1104 0.757708 4.53515 12.6039
251 1 -1.1104 0.586267 4.30377 9.56103
255 1 -1.1104 3.38038 7.28728 12.2729
256 2 2.2208 2.15305 5.8683 8.05817
258 1 -1.1104 3.6952 7.04331 9.29692
260 1 -1.1104 3.53509 4.47544 12.1366
262 1 -1.1104 3.54007 4.22114 9.20887
242 1 -1.1104 0.657256 7.35389 12.0775
183 1 -1.1104 6.44471 1.56727 9.07312
248 1 -1.1104 6.43311 4.19747 11.998
243 1 -1.1104 6.37418 7.02718 12.2007
8818 2 2.2208 13.5376 8.59507 4.9863
245 1 -1.1104 6.61302 7.1285 9.18765
353 2 2.2208 4.93387 2.79942 13.4501
235 1 -1.1104 6.32956 6.89434 6.30868
8924 2 2.2208 13.4627 2.93525 10.7282
306 2 2.2208 2.00352 -2.50112 -0.367373
300 2 2.2208 2.05912 0.049959 13.5403
9097 2 2.2208 13.2677 11.2497 2.1196
253 1 -1.1104 6.43344 4.27248 9.32179
179 1 -1.1104 6.09379 1.58912 11.7948
213 1 -1.1104 12.0181 1.54222 12.4121
215 1 -1.1104 12.1114 1.48457 9.52919
218 2 2.2208 10.5996 2.88164 7.9426
221 1 -1.1104 8.96842 1.57952 12.0273
224 1 -1.1104 9.27997 1.54578 9.06533
226 2 2.2208 7.67314 2.81027 10.5264
265 1 -1.1104 11.7437 6.70612 7.14095
268 1 -1.1104 9.30318 4.19923 9.18167
271 1 -1.1104 9.33964 4.36018 12.2468
275 2 2.2208 7.80604 5.48564 7.66257
276 2 2.2208 10.6144 5.7483 10.6798
278 1 -1.1104 11.8775 7.06695 12.7226
279 1 -1.1104 12.1092 4.40134 12.0712
281 1 -1.1104 11.9893 4.45791 9.33637
282 1 -1.1104 9.1564 7.2989 11.9508
273 1 -1.1104 9.54609 7.05657 9.29729
303 2 2.2208 5.02252 20.0384 13.4987
8417 2 2.2208 13.3861 -5.34404 7.79984
9101 2 2.2208 13.5445 17.06 2.25317
241 2 2.2208 5.04973 11.4336 10.9243
247 1 -1.1104 0.966641 9.95409 12.3172
250 2 2.2208 4.88848 8.50516 7.89321
252 1 -1.1104 0.860962 10.0144 9.53335
257 2 2.2208 2.3958 11.4728 8.14365
259 2 2.2208 2.17124 8.62474 10.8973
261 1 -1.1104 3.79318 10.0495 12.1924
263 1 -1.1104 3.57582 9.8432 9.23952
52 1 -1.1104 3.64892 12.721 9.50918
284 1 -1.1104 3.60897 12.7764 12.3548
291 1 -1.1104 0.944032 12.8795 9.68114
296 1 -1.1104 0.811056 12.9004 12.345
294 1 -1.1104 6.3365 12.8318 11.9523
254 1 -1.1104 6.31423 10.107 9.36086
287 1 -1.1104 6.47407 12.6894 9.14999
484 2 2.2208 5.05349 14.4903 13.6318
101 1 -1.1104 8.98611 10.0348 6.37622
421 2 2.2208 4.95197 8.50414 13.6149
201 1 -1.1104 9.38566 15.7861 12.1284
249 1 -1.1104 6.67882 10.0044 12.2477
264 1 -1.1104 9.05923 9.7592 9.23965
270 1 -1.1104 9.44416 10.0285 12.0469
272 2 2.2208 7.66399 8.56324 10.7489
274 2 2.2208 7.86526 11.4086 7.92706
277 2 2.2208 10.6992 11.4493 10.6354
280 2 2.2208 10.358 8.52719 7.73944
26 1 -1.1104 11.7544 12.866 11.8844
30 1 -1.1104 11.9218 12.8148 9.18823
104 1 -1.1104 9.02754 12.9802 12.0621
137 1 -1.1104 9.32174 12.772 9.40361
9006 1 -1.1104 11.9024 10.2897 9.09501
384 2 2.2208 7.60213 0.215815 13.4616
510 2 2.2208 10.6399 14.2155 13.3539
293 1 -1.1104 6.52392 18.8859 12.0705
29 1 -1.1104 6.5065 15.7538 12.2073
285 1 -1.1104 6.51271 18.4687 9.439
292 2 2.2208 5.06986 14.1877 7.90064
229 2 2.2208 2.3179 14.1815 10.8419
28 1 -1.1104 0.868925 15.7322 12.2914
53 1 -1.1104 3.6717 15.6534 9.25939
203 2 2.2208 2.22409 16.9371 7.90101
230 2 2.2208 2.28906 19.9883 10.7832
231 1 -1.1104 3.82551 15.7258 11.8914
232 1 -1.1104 3.56479 18.4053 9.12966
233 2 2.2208 5.10907 17.0714 10.6808
283 1 -1.1104 3.62331 18.4919 12.1276
288 1 -1.1104 0.669117 18.6269 9.42327
289 1 -1.1104 0.826581 15.8068 9.3952
290 2 2.2208 4.98735 19.9569 8.01051
295 1 -1.1104 0.813351 18.4934 12.3045
286 1 -1.1104 6.52446 15.636 9.31627
386 2 2.2208 10.5455 2.86534 13.6537
9088 2 2.2208 13.5151 16.9451 7.84938
8386 2 2.2208 2.11995 -5.393 2.44822
50 1 -1.1104 12.1361 18.4489 9.33641
112 1 -1.1104 6.4802 18.4021 6.7068
81 2 2.2208 10.7382 14.1857 7.87666
105 1 -1.1104 9.70807 18.735 11.9681
27 1 -1.1104 12.4026 18.6003 12.2429
135 2 2.2208 7.90475 17.0628 7.92884
200 2 2.2208 7.99556 20.0037 10.6915
165 1 -1.1104 9.40273 18.4897 9.1122
83 1 -1.1104 12.2111 15.7245 9.26158
25 2 2.2208 10.8867 17.1014 10.7215
199 2 2.2208 7.74725 14.2116 10.5789
202 1 -1.1104 9.30522 15.614 9.27978
299 2 2.2208 5.06965 -2.7256 13.4893
302 2 2.2208 10.3638 8.60069 13.5117
298 2 2.2208 13.5065 5.53716 13.5301
603 2 2.2208 1.95596 8.71513 -0.335773
433 2 2.2208 7.76438 11.4407 13.4732
8387 2 2.2208 4.81688 -5.39506 5.29529
307 2 2.2208 2.09616 3.17966 -0.305145
311 2 2.2208 4.88084 0.0564518 16.3343
312 1 -1.1104 0.713123 -3.93784 17.739
316 1 -1.1104 0.668605 -4.13653 14.9851
324 1 -1.1104 0.749819 -1.0788 17.8821
326 2 2.2208 4.84858 -2.67593 19.2138
328 1 -1.1104 0.496645 -1.2696 14.9976
332 1 -1.1104 3.58179 -4.04361 17.8859
334 2 2.2208 2.12842 0.242039 19.3272
335 1 -1.1104 3.60729 -3.73514 15.0265
339 2 2.2208 1.9276 -2.6306 16.3809
341 1 -1.1104 3.37488 -1.24106 17.6225
342 1 -1.1104 3.5856 -1.35102 14.8801
343 1 -1.1104 3.32723 -1.26134 20.5778
314 1 -1.1104 6.28514 -4.1093 17.8265
325 1 -1.1104 6.20468 -1.15192 17.8575
331 1 -1.1104 6.29796 -1.40496 20.6412
317 1 -1.1104 0.583593 -3.89101 20.5089
321 1 -1.1104 6.24595 -4.22206 20.5964
336 1 -1.1104 3.38328 -4.07334 20.5702
330 1 -1.1104 6.65922 -1.45246 14.8923
9372 2 2.2208 13.5436 2.78161 22.007
9210 2 2.2208 13.3428 11.4376 25.0951
320 1 -1.1104 6.45845 -4.17807 14.865
354 2 2.2208 10.6642 0.0790079 16.5087
355 1 -1.1104 12.031 -3.87995 18.0985
357 1 -1.1104 11.8745 -3.94781 15.4421
361 1 -1.1104 12.0912 -1.20736 18.0309
362 2 2.2208 10.4504 -2.55611 19.3579
364 1 -1.1104 11.9474 -1.34054 15.0382
366 1 -1.1104 9.03335 -3.9114 17.8877
368 2 2.2208 7.69468 0.00272147 19.3721
369 1 -1.1104 9.24447 -4.42012 15.0669
373 2 2.2208 7.71369 -2.82229 16.4449
375 1 -1.1104 9.33099 -1.07884 17.9673
376 1 -1.1104 9.31104 -1.40071 15.2058
9431 2 2.2208 13.4341 8.56617 22.0362
365 1 -1.1104 11.8173 -1.1478 20.7592
370 1 -1.1104 9.19029 -4.19575 20.5812
377 1 -1.1104 9.06366 -1.28204 20.8455
9214 2 2.2208 13.453 -2.69879 16.5549
569 2 2.2208 7.57033 2.95916 27.3663
313 1 -1.1104 0.588699 1.79589 17.6674
318 1 -1.1104 0.756458 1.71531 14.8212
327 2 2.2208 4.88257 2.68147 19.239
333 1 -1.1104 3.52039 1.37261 17.7164
337 1 -1.1104 3.53876 1.61625 15.0128
340 2 2.2208 2.32022 3.09008 16.3209
387 2 2.2208 5.15342 5.57689 16.4623
389 1 -1.1104 0.665966 7.0278 17.6125
391 1 -1.1104 1.03299 7.20466 14.8316
395 1 -1.1104 0.886004 4.4609 17.9499
400 1 -1.1104 0.946105 4.50592 15.1685
409 2 2.2208 2.42034 5.84996 19.2158
411 1 -1.1104 3.77686 7.17995 14.9524
414 1 -1.1104 3.73317 4.33316 17.9255
416 1 -1.1104 3.80684 4.31185 15.0299
408 1 -1.1104 3.6825 7.27005 17.8956
404 1 -1.1104 6.55003 4.07926 15.0435
319 1 -1.1104 0.715738 1.73721 20.6895
338 1 -1.1104 3.57208 1.47293 20.6668
315 1 -1.1104 6.38422 1.47948 17.7915
322 1 -1.1104 6.21864 1.39621 14.8491
392 1 -1.1104 1.14962 7.26991 20.5303
417 1 -1.1104 3.52604 4.36492 20.6135
412 1 -1.1104 3.77633 7.01475 20.8221
401 1 -1.1104 0.616966 4.61247 20.6636
394 1 -1.1104 6.47048 7.21673 20.6579
390 1 -1.1104 6.18284 7.0401 17.9288
397 1 -1.1104 6.51588 4.14523 17.7776
323 1 -1.1104 6.25521 1.35562 20.5907
405 1 -1.1104 6.2723 4.14289 20.5532
393 1 -1.1104 6.46712 6.94057 15.0614
356 1 -1.1104 11.9837 1.56989 17.9416
359 1 -1.1104 11.8658 1.59184 15.124
363 2 2.2208 10.5784 2.85027 19.2485
367 1 -1.1104 9.31216 1.60846 17.8106
371 1 -1.1104 9.09746 1.52574 15.0137
374 2 2.2208 7.84218 2.80408 16.4726
423 2 2.2208 10.5882 5.69039 16.535
428 1 -1.1104 12.1718 4.17942 17.6786
431 1 -1.1104 11.9313 4.44411 14.8242
435 1 -1.1104 9.20803 7.16123 17.8743
436 2 2.2208 7.63097 5.68561 19.1725
438 1 -1.1104 9.34008 7.14229 14.9832
441 1 -1.1104 9.44053 4.4695 17.9919
443 1 -1.1104 9.06918 4.44742 15.1791
372 1 -1.1104 8.99407 1.66682 20.4971
444 1 -1.1104 9.22567 4.47294 20.6676
426 1 -1.1104 11.9659 7.232 17.4479
360 1 -1.1104 12.0344 1.52937 20.5878
439 1 -1.1104 9.38154 7.36642 20.8899
427 1 -1.1104 12.1876 7.14262 20.4741
9283 2 2.2208 13.3599 14.1541 22.124
432 1 -1.1104 12.1807 4.30471 20.4677
512 1 -1.1104 11.805 18.569 23.1437
388 2 2.2208 4.94187 11.4088 16.3397
396 1 -1.1104 0.882077 9.66181 18.0408
399 2 2.2208 5.18125 8.68436 19.098
402 1 -1.1104 0.767721 9.88149 15.1227
410 2 2.2208 2.114 11.4001 19.2059
413 2 2.2208 2.21585 8.33879 16.405
415 1 -1.1104 3.6247 10.1594 17.7787
418 1 -1.1104 3.43845 10.0657 15.0778
450 1 -1.1104 0.836035 12.7711 17.979
454 1 -1.1104 0.778469 12.7326 15.0921
470 1 -1.1104 3.37397 12.8977 17.8361
473 1 -1.1104 3.7498 12.929 15.0853
406 1 -1.1104 6.26136 9.9679 15.0991
452 1 -1.1104 6.16511 12.7323 17.9497
419 1 -1.1104 3.66554 9.87263 20.4778
474 1 -1.1104 3.74989 12.7485 20.6238
398 1 -1.1104 6.60509 9.81232 17.8152
459 1 -1.1104 6.7794 12.757 20.5366
455 1 -1.1104 0.648616 12.8093 20.6265
407 1 -1.1104 6.43684 9.9291 20.7774
458 1 -1.1104 6.38926 12.8679 14.9577
425 1 -1.1104 12.0764 9.84444 17.9508
424 2 2.2208 10.453 11.2828 16.3971
429 1 -1.1104 11.8834 9.60255 14.9606
430 2 2.2208 10.4881 8.55112 19.2311
437 2 2.2208 7.8278 11.4457 19.1644
440 2 2.2208 7.60702 8.39354 16.3468
442 1 -1.1104 9.34988 9.8645 17.7137
445 1 -1.1104 9.00669 9.91909 14.762
486 1 -1.1104 11.9856 12.8521 17.9252
488 1 -1.1104 11.7548 12.9215 15.0673
497 1 -1.1104 9.02825 12.6914 17.425
500 1 -1.1104 9.21665 12.894 14.8432
434 1 -1.1104 11.7897 9.79076 20.7541
446 1 -1.1104 9.1219 10.2065 20.5652
349 2 2.2208 10.6754 17.095 27.5147
301 2 2.2208 7.77127 -2.91934 27.5724
501 1 -1.1104 9.31633 12.9882 20.589
477 2 2.2208 2.03518 14.3425 16.4444
464 2 2.2208 5.12623 14.372 19.1484
449 2 2.2208 5.10576 17.3329 16.2936
451 1 -1.1104 0.949887 18.5939 17.714
456 1 -1.1104 0.821672 18.6424 15.1234
462 1 -1.1104 0.735203 15.9719 18.0638
465 2 2.2208 5.03665 20.0999 19.202
466 1 -1.1104 0.634212 15.7494 15.1
471 1 -1.1104 3.75348 18.673 17.5735
472 2 2.2208 2.21054 17.0267 19.0327
475 1 -1.1104 3.59689 18.6439 14.8114
478 2 2.2208 2.30755 19.9976 16.3572
479 1 -1.1104 3.62627 15.7817 17.7147
480 1 -1.1104 3.73267 15.9306 14.7116
453 1 -1.1104 6.76496 18.7425 17.7861
460 1 -1.1104 6.57296 18.5567 14.821
463 1 -1.1104 6.57287 15.714 17.6777
457 1 -1.1104 0.587441 18.175 20.4713
467 1 -1.1104 1.00257 15.6033 20.6324
481 1 -1.1104 3.67068 15.726 20.5282
468 1 -1.1104 6.42318 15.8058 14.9566
9241 2 2.2208 13.4361 8.69965 16.4882
476 1 -1.1104 3.43099 18.4473 20.6309
9212 2 2.2208 13.3586 -0.0828763 24.7765
461 1 -1.1104 6.3221 18.5759 20.557
469 1 -1.1104 6.44364 15.6022 20.5171
493 2 2.2208 10.6832 14.3395 19.1656
504 2 2.2208 7.85219 14.3165 16.0705
485 2 2.2208 10.815 17.1747 16.2011
487 1 -1.1104 12.2446 18.473 17.9623
490 1 -1.1104 12.0667 18.7037 15.0943
492 1 -1.1104 11.8943 15.5989 17.8732
494 2 2.2208 10.651 19.8778 19.3007
495 1 -1.1104 12.1836 15.7161 15.031
498 1 -1.1104 9.654 18.6214 17.7483
499 2 2.2208 7.98398 17.1373 19.1288
502 1 -1.1104 9.38149 18.5487 14.8487
505 2 2.2208 8.19723 20.1344 16.4833
506 1 -1.1104 9.34755 15.7889 17.4801
507 1 -1.1104 9.33226 15.7139 14.8174
491 1 -1.1104 12.1747 18.7465 20.6393
508 1 -1.1104 9.1696 15.7469 20.7978
496 1 -1.1104 11.9452 15.7454 20.6961
503 1 -1.1104 9.32712 18.5002 20.5929
9311 2 2.2208 13.3187 17.1225 19.4106
329 1 -1.1104 0.428221 -1.00759 20.6739
513 2 2.2208 4.95781 0.153161 22.2261
514 1 -1.1104 0.689836 -3.93223 23.4903
518 1 -1.1104 0.838021 -3.79801 26.3009
522 1 -1.1104 0.593416 -1.29256 23.3152
524 2 2.2208 4.84451 -2.70982 24.9387
526 1 -1.1104 0.572478 -1.04033 26.0056
528 1 -1.1104 3.36537 -4.06832 23.2099
530 2 2.2208 1.94649 0.313593 24.9074
531 1 -1.1104 3.53343 -4.20063 26.1626
533 2 2.2208 2.10129 -2.54851 21.9059
535 1 -1.1104 3.53782 -1.36505 23.5981
536 1 -1.1104 3.4045 -1.15718 26.3698
520 1 -1.1104 6.17846 -4.16562 26.3462
523 1 -1.1104 6.52415 -1.3152 23.394
516 1 -1.1104 6.27701 -4.18617 23.4282
527 1 -1.1104 6.21205 -1.18716 26.0087
608 2 2.2208 7.82303 14.2938 22.1538
9140 2 2.2208 13.3425 8.35605 27.604
358 1 -1.1104 11.8802 -3.91573 20.7059
380 2 2.2208 2.18812 19.9208 27.6244
9208 2 2.2208 13.3731 5.74313 24.8574
549 2 2.2208 10.4847 0.23871 22.2655
550 1 -1.1104 11.8337 -4.21236 23.6373
552 1 -1.1104 11.9074 -4.1071 26.4185
554 1 -1.1104 11.9485 -1.113 23.4505
555 2 2.2208 10.6088 -2.77104 24.9366
557 1 -1.1104 11.8284 -1.36028 26.2425
558 1 -1.1104 9.20515 -4.12144 23.2363
560 2 2.2208 7.69728 0.0887292 24.83
561 1 -1.1104 9.27353 -4.1556 26.0642
563 2 2.2208 7.73507 -2.74835 22.0401
565 1 -1.1104 9.18077 -1.2648 23.6731
566 1 -1.1104 9.1152 -1.39465 26.3191
297 2 2.2208 13.3384 -2.70217 27.763
9245 2 2.2208 13.3789 17.1062 24.7163
9174 2 2.2208 13.4405 0.189099 19.2285
541 1 -1.1104 11.9998 18.3523 26.0916
628 2 2.2208 7.84282 8.43258 27.705
577 2 2.2208 7.81812 17.0602 24.8185
515 1 -1.1104 0.736091 1.67087 23.3789
519 1 -1.1104 0.676296 1.63902 26.2924
525 2 2.2208 4.70701 3.13438 24.9328
529 1 -1.1104 3.37026 1.67121 23.5171
532 1 -1.1104 3.5329 1.72621 26.2944
534 2 2.2208 1.99444 3.18633 22.0552
578 2 2.2208 5.02981 5.70477 22.1109
584 1 -1.1104 0.739789 4.58049 23.5436
589 1 -1.1104 0.721942 4.69496 26.3515
593 1 -1.1104 3.59575 7.07065 23.7049
594 2 2.2208 2.03897 5.9396 24.8966
598 1 -1.1104 3.38357 4.59908 23.5889
600 1 -1.1104 3.46957 4.52128 26.3903
580 1 -1.1104 0.527607 7.28695 23.508
596 1 -1.1104 3.46286 7.24136 26.5271
582 1 -1.1104 0.462801 7.24447 26.5011
521 1 -1.1104 6.21904 1.44089 26.0397
591 1 -1.1104 6.27062 4.29625 26.2316
586 1 -1.1104 6.1778 4.35992 23.6122
581 1 -1.1104 6.37281 7.22345 23.3772
635 2 2.2208 8.03523 19.8468 27.6012
583 1 -1.1104 6.34084 7.18325 26.364
517 1 -1.1104 6.16917 1.59126 23.4397
634 2 2.2208 13.5322 20.0452 27.4923
8526 2 2.2208 1.94639 -5.34348 19.2581
551 1 -1.1104 12.001 1.49445 23.4231
553 1 -1.1104 11.7611 1.60356 26.169
556 2 2.2208 10.4341 3.01465 24.8089
559 1 -1.1104 9.20183 1.55229 23.7383
562 1 -1.1104 9.1157 1.58038 26.28
564 2 2.2208 7.58932 2.81709 22.1269
610 1 -1.1104 8.93502 4.43523 26.3876
612 1 -1.1104 9.04837 4.50899 23.3959
616 2 2.2208 7.77949 5.85875 24.8795
617 2 2.2208 10.6718 5.74949 21.9325
619 1 -1.1104 11.9131 6.9403 23.4831
621 1 -1.1104 11.9687 4.28559 23.6226
624 1 -1.1104 11.9872 4.53958 26.3441
614 1 -1.1104 9.24991 7.15551 26.1133
626 1 -1.1104 9.1108 7.05466 23.5862
620 1 -1.1104 11.8468 7.16411 26.3151
8527 2 2.2208 4.82372 -5.39043 16.4524
9243 2 2.2208 13.4369 11.4667 19.2147
403 1 -1.1104 0.678371 9.99762 20.6077
579 2 2.2208 5.0397 11.3689 22.0437
585 1 -1.1104 0.70675 10.0983 23.5509
588 2 2.2208 5.00032 8.42191 24.9507
590 1 -1.1104 0.614811 10.0605 26.5365
595 2 2.2208 2.15777 11.3317 24.8677
597 2 2.2208 2.02049 8.70049 22.0549
599 1 -1.1104 3.47856 10.1342 23.3433
601 1 -1.1104 3.3423 9.9822 26.1376
352 1 -1.1104 0.859249 13.0684 23.4768
538 1 -1.1104 0.91539 12.8828 26.2973
572 1 -1.1104 3.69896 12.9398 26.5563
627 1 -1.1104 3.59377 12.9904 23.6397
629 1 -1.1104 6.44374 12.8856 26.302
448 1 -1.1104 6.50775 12.7594 23.3016
587 1 -1.1104 6.2734 9.85317 23.5161
347 2 2.2208 13.5108 20.2028 22.1031
483 2 2.2208 5.01469 14.131 24.9885
305 2 2.2208 4.90483 0.114172 27.5751
489 1 -1.1104 12.0146 12.7608 20.6191
548 1 -1.1104 11.9829 15.6301 26.1999
547 2 2.2208 10.668 19.9578 24.7799
592 1 -1.1104 6.29936 10.1765 26.2685
9168 2 2.2208 13.4634 2.90069 16.3471
609 1 -1.1104 9.11888 10.061 26.1936
611 1 -1.1104 9.07796 9.83417 23.4984
613 2 2.2208 7.82164 8.44856 21.991
615 2 2.2208 7.75193 11.2144 24.8093
618 2 2.2208 10.6636 11.5243 22.0304
622 1 -1.1104 11.8757 9.77949 23.4835
623 2 2.2208 10.5441 8.56635 24.8507
625 1 -1.1104 11.9324 9.78503 26.0579
383 1 -1.1104 12.167 12.8379 23.5761
540 1 -1.1104 11.9325 12.7795 26.3703
575 1 -1.1104 9.23125 12.6562 23.3946
606 1 -1.1104 9.24117 12.8938 26.1154
8461 2 2.2208 1.99101 -5.25393 24.8135
9242 2 2.2208 13.4934 5.55057 19.1629
9309 2 2.2208 13.3361 14.1907 16.2181
607 1 -1.1104 9.46574 18.4086 26.0777
9171 2 2.2208 13.3689 -2.68221 21.932
602 2 2.2208 4.72779 5.88311 27.7207
381 2 2.2208 2.26811 14.2689 22.1271
544 1 -1.1104 0.747825 15.8588 23.486
543 1 -1.1104 3.47216 15.6955 23.4282
542 2 2.2208 2.16392 20.0275 21.9987
539 1 -1.1104 0.804339 15.7432 26.5351
509 2 2.2208 5.06038 20.0368 24.6381
633 1 -1.1104 3.67663 18.5998 23.3548
573 1 -1.1104 3.41657 15.7516 26.3421
568 1 -1.1104 0.732585 18.4551 26.1359
378 1 -1.1104 0.738286 18.6737 23.3621
351 2 2.2208 4.95239 17.1306 21.8778
344 2 2.2208 2.13335 17.0755 24.8373
345 1 -1.1104 3.54627 18.8086 26.0507
574 1 -1.1104 6.13629 15.8118 26.0813
571 1 -1.1104 6.36301 15.6183 23.2481
632 1 -1.1104 9.01391 15.6721 26.3373
9213 2 2.2208 13.3968 2.96568 27.5768
350 2 2.2208 2.18408 14.2797 27.7918
546 2 2.2208 10.6821 14.3772 24.975
382 2 2.2208 10.5215 17.0947 22.1085
545 1 -1.1104 11.9475 15.7564 23.5069
605 1 -1.1104 6.38398 18.557 26.1715
631 1 -1.1104 9.33065 15.5823 23.5894
537 1 -1.1104 6.53362 18.5102 23.372
576 1 -1.1104 9.02339 18.4713 23.4412
630 2 2.2208 7.75339 19.9283 22.0487
348 2 2.2208 7.79107 14.1208 27.6561
604 2 2.2208 5.01707 11.5732 27.6668
310 2 2.2208 10.6928 11.1969 27.569
379 2 2.2208 4.96831 17.2624 27.3761
309 2 2.2208 10.5542 5.7616 27.5549
9244 2 2.2208 13.5799 14.3208 27.6885
9312 2 2.2208 13.4241 19.9891 16.3538
567 2 2.2208 10.5919 0.00387502 27.6266
308 2 2.2208 10.4741 -2.79831 13.8668
422 2 2.2208 2.13191 11.3987 13.698
9173 2 2.2208 -0.365265 14.3596 24.996
636 2 2.2208 5.17212 22.7408 5.01852
638 1 -1.1104 0.608634 23.9715 0.695651
639 1 -1.1104 0.727633 24.0759 3.73844
640 1 -1.1104 0.804664 21.1941 0.658119
642 2 2.2208 5.00541 25.4758 2.05346
643 1 -1.1104 0.778306 21.3927 3.6305
645 1 -1.1104 3.54423 24.1567 0.665746
646 2 2.2208 2.13557 22.798 2.12504
648 1 -1.1104 3.56738 24.1077 3.58829
649 2 2.2208 2.11522 25.424 5.16908
650 1 -1.1104 3.39309 21.3479 0.765469
652 1 -1.1104 3.57464 21.4561 3.65355
659 1 -1.1104 6.38298 21.4342 0.912598
641 1 -1.1104 0.907944 26.8898 1.1147
657 1 -1.1104 6.42625 24.239 0.609657
658 1 -1.1104 6.48286 24.1961 3.51074
653 1 -1.1104 3.642 26.8793 3.63552
778 1 -1.1104 6.52404 24.3487 6.28697
651 1 -1.1104 3.56559 26.8603 0.295827
780 1 -1.1104 0.948254 26.7355 6.5433
660 1 -1.1104 6.28418 26.8603 0.742691
661 1 -1.1104 6.38575 21.3803 3.80514
644 1 -1.1104 0.750237 26.7474 3.89597
785 1 -1.1104 3.76368 27.1488 6.69873
777 1 -1.1104 0.752695 24.0344 6.55871
783 1 -1.1104 3.6553 24.3185 6.31617
781 1 -1.1104 6.4485 21.2604 6.55629
784 1 -1.1104 3.57639 21.3343 6.54545
782 1 -1.1104 6.67013 27.0403 6.43516
663 2 2.2208 10.706 22.7172 5.02677
665 1 -1.1104 12.0466 24.2681 0.788822
666 1 -1.1104 12.1055 24.2388 3.61717
667 1 -1.1104 11.9609 21.3355 0.583516
669 2 2.2208 10.5498 25.7021 2.0579
670 1 -1.1104 11.8144 21.4737 3.43269
672 1 -1.1104 9.08982 24.2471 0.512372
673 2 2.2208 7.82669 22.8803 2.19762
675 1 -1.1104 9.52458 24.1926 3.65666
676 2 2.2208 7.86226 25.6706 4.84095
677 1 -1.1104 8.97411 21.3412 0.830293
679 1 -1.1104 9.34961 21.2558 3.57597
668 1 -1.1104 11.9892 27.1478 0.764817
671 1 -1.1104 12.1901 27.1071 3.53055
680 1 -1.1104 9.28399 27.0846 3.45326
811 1 -1.1104 12.2797 21.3904 6.48991
813 1 -1.1104 9.27459 23.9833 6.39045
678 1 -1.1104 9.00013 26.9224 0.607975
683 2 2.2208 13.5713 25.7155 5.0035
812 1 -1.1104 12.3697 27.0816 6.28413
662 1 -1.1104 6.42074 26.9961 3.46516
637 2 2.2208 5.15399 28.5164 5.09802
647 2 2.2208 2.10712 28.4004 2.50063
685 1 -1.1104 0.878322 29.6595 0.928057
688 1 -1.1104 0.978075 29.8423 4.03194
691 1 -1.1104 0.755758 32.4024 0.959182
692 2 2.2208 5.26086 31.2914 2.19316
694 1 -1.1104 0.507401 32.683 3.65952
696 1 -1.1104 3.4336 29.5078 0.763426
699 1 -1.1104 3.80555 29.9448 3.54326
701 2 2.2208 2.28886 31.3625 5.17956
703 1 -1.1104 3.33778 32.3268 1.07708
704 1 -1.1104 3.55083 32.8861 3.93823
838 1 -1.1104 1.0013 32.6484 6.67991
708 1 -1.1104 6.54357 29.8217 0.813938
842 1 -1.1104 3.81338 32.6663 6.66449
695 1 -1.1104 6.42534 32.6558 3.72668
710 1 -1.1104 6.95072 32.5637 0.975776
840 1 -1.1104 3.60601 29.8021 6.42699
839 1 -1.1104 6.38063 32.777 6.59021
834 1 -1.1104 0.836341 29.7629 6.72825
9809 2 2.2208 -0.436462 42.6993 2.12261
709 1 -1.1104 6.47598 29.734 3.78688
664 2 2.2208 10.6995 28.4176 5.06121
674 2 2.2208 7.84059 28.5004 2.01873
712 1 -1.1104 11.8761 29.9778 1.16528
714 1 -1.1104 11.8827 29.9466 3.92954
716 1 -1.1104 12.2371 32.9419 0.777672
717 2 2.2208 10.6715 31.2645 2.43403
719 1 -1.1104 12.0823 32.8186 3.58938
720 1 -1.1104 9.38391 29.7091 0.754312
723 1 -1.1104 9.13089 29.8117 3.61886
725 2 2.2208 7.90474 31.2973 5.17208
727 1 -1.1104 9.70594 32.8966 1.23681
728 1 -1.1104 9.23996 32.7289 3.64159
9620 2 2.2208 13.5871 22.7945 7.9481
9650 2 2.2208 -0.439076 22.7244 10.6871
873 1 -1.1104 9.19054 32.6604 6.36531
871 1 -1.1104 9.28299 29.7053 6.47081
870 1 -1.1104 11.9147 33.0851 6.38093
698 2 2.2208 2.04776 33.9427 2.3021
9798 2 2.2208 13.4274 28.4461 13.6345
684 2 2.2208 5.12515 34.2572 5.15718
689 1 -1.1104 0.960068 35.2681 3.78888
693 2 2.2208 5.25816 36.8823 2.1666
697 1 -1.1104 0.877076 35.2314 0.964887
700 1 -1.1104 3.4586 35.5901 3.72874
702 2 2.2208 2.20636 36.8696 5.06677
730 2 2.2208 5.16134 39.6977 5.05168
736 1 -1.1104 0.744819 38.49 1.04617
741 1 -1.1104 1.04659 38.2122 3.66076
746 2 2.2208 2.47218 39.6101 2.25502
750 1 -1.1104 3.73924 38.4326 0.807183
752 1 -1.1104 4.01533 38.3289 3.70185
841 1 -1.1104 3.69969 35.6032 6.68292
913 1 -1.1104 3.92044 38.4757 6.4951
690 1 -1.1104 6.33257 35.7269 3.87414
743 1 -1.1104 6.62603 38.6999 3.38181
687 1 -1.1104 6.4918 35.5502 0.959532
907 1 -1.1104 0.848434 38.3335 6.58688
738 1 -1.1104 6.46521 38.2818 0.767722
711 2 2.2208 10.5553 34.051 4.88308