ITEM: TIMESTEP
40000
ITEM: NUMBER OF ATOMS
17730
ITEM: BOX BOUNDS pp pp pp
-3.5656161710625001e-01 2.7696561617105917e+01
-4.3639850460568503e+00 3.3244398504606198e+02
-3.6712865019927238e-01 2.7707128650199095e+01
ITEM: ATOMS id type q x y z
1 2 2.2208 5.30737 1.36257 5.29492
2 1 -1.1104 1.11161 -2.97512 0.921042
3 1 -1.1104 1.12209 2.79377 0.969615
6 1 -1.1104 1.1356 -2.87789 3.90114
7 1 -1.1104 1.16789 2.54989 3.69359
10 1 -1.1104 1.10804 -0.150879 1.08439
12 2 2.2208 5.26606 -1.45894 2.4638
13 2 2.2208 5.27473 4.08672 2.35337
14 1 -1.1104 1.02082 -0.195981 3.75696
16 1 -1.1104 3.85509 -2.94895 0.961103
17 1 -1.1104 3.95003 2.64891 1.00329
18 2 2.2208 2.49639 1.23602 2.46411
19 1 -1.1104 3.92472 -2.9925 3.86755
20 1 -1.1104 3.85494 2.67423 3.82418
21 2 2.2208 2.45984 -1.62473 5.11283
22 2 2.2208 2.45997 3.98786 5.14228
23 1 -1.1104 3.8929 -0.0946783 1.08751
24 1 -1.1104 3.71911 -0.155075 3.8683
9 1 -1.1104 6.55311 2.6778 3.7175
170 1 -1.1104 1.09485 -0.114832 6.67323
8 1 -1.1104 6.74295 -2.88782 3.9582
173 1 -1.1104 3.7884 2.68425 6.6441
174 1 -1.1104 3.971 -0.0729493 6.55836
172 1 -1.1104 3.89782 -2.91069 6.4971
167 1 -1.1104 1.01143 2.75399 6.57207
166 1 -1.1104 1.02251 -2.96483 6.54341
4 1 -1.1104 6.66031 -2.74301 1.11386
169 1 -1.1104 6.7695 2.73678 6.48693
8391 2 2.2208 5.20267 -4.30765 10.783
9212 2 2.2208 13.7929 4.09686 -0.487745
8765 2 2.2208 10.782 -4.3598 -0.400042
8388 2 2.2208 8.08641 -4.23813 2.46364
15 1 -1.1104 6.68647 -0.166045 3.79691
5 1 -1.1104 6.79139 2.69818 0.967776
171 1 -1.1104 6.78194 -0.00257975 6.60952
11 1 -1.1104 6.80174 0.0734738 0.915402
31 2 2.2208 10.9079 1.13763 5.35629
32 1 -1.1104 12.2157 -2.96703 1.13872
33 1 -1.1104 12.4488 2.7041 0.929493
34 1 -1.1104 12.3298 -2.73866 3.88024
35 1 -1.1104 12.2226 2.61189 3.71213
36 1 -1.1104 12.2934 -0.0554544 1.16002
37 2 2.2208 10.8771 -1.36281 2.46532
39 1 -1.1104 12.2554 -0.0639511 4.04643
40 1 -1.1104 9.42731 -2.95193 1.0623
41 1 -1.1104 9.63936 2.80825 0.929273
42 2 2.2208 8.16722 1.38624 2.34203
43 1 -1.1104 9.58897 -2.79152 3.68856
44 1 -1.1104 9.46034 2.77394 3.78333
45 2 2.2208 8.1673 -1.51694 5.15152
47 1 -1.1104 9.5431 -0.0361531 1.16468
48 1 -1.1104 9.38907 -0.0821039 3.83113
46 2 2.2208 8.02133 4.09541 5.05978
206 1 -1.1104 12.3288 2.70818 6.56464
210 1 -1.1104 9.52293 -0.185344 6.60215
38 2 2.2208 10.9906 4.04553 2.33214
205 1 -1.1104 12.3341 -2.93563 6.71233
208 1 -1.1104 9.462 -2.94684 6.60716
209 1 -1.1104 9.55476 2.5437 6.76644
17381 2 2.2208 -0.406319 -4.32778 10.8117
137 1 -1.1104 9.30142 13.7402 9.32335
8389 2 2.2208 10.8806 -4.2479 5.17722
8393 2 2.2208 10.8383 -4.39401 10.8674
54 2 2.2208 5.18033 6.90783 5.12366
55 2 2.2208 5.03985 12.4811 5.2937
56 1 -1.1104 0.935894 8.26798 0.95963
58 1 -1.1104 0.993587 8.16053 3.87229
60 1 -1.1104 1.07722 5.36188 1.06771
61 1 -1.1104 0.907203 11.1884 1.00374
66 2 2.2208 5.17801 9.69195 2.328
67 1 -1.1104 0.955402 5.42858 3.79737
68 1 -1.1104 1.08282 10.9383 3.73124
71 1 -1.1104 3.64719 8.08989 0.884897
72 2 2.2208 2.3501 6.80904 2.37116
73 2 2.2208 2.50171 12.465 2.34941
74 1 -1.1104 3.8254 8.35809 3.68527
75 2 2.2208 2.43705 9.63099 5.26695
76 1 -1.1104 3.8898 5.41778 1.0509
77 1 -1.1104 3.7752 10.949 0.984759
79 1 -1.1104 3.73703 5.44274 3.77071
80 1 -1.1104 3.75553 11.0942 3.97503
234 1 -1.1104 1.07068 8.15419 6.62305
59 1 -1.1104 6.56134 8.28318 3.65734
236 1 -1.1104 1.186 5.41676 6.55684
78 1 -1.1104 3.72038 10.9621 6.71013
64 1 -1.1104 6.52122 10.9644 1.05787
570 2 2.2208 11.002 1.33706 -0.403515
69 1 -1.1104 6.48602 5.4694 3.81624
30 1 -1.1104 12.1807 13.7821 9.16707
149 1 -1.1104 12.2204 16.6401 6.53067
57 1 -1.1104 6.46272 8.17919 1.01307
63 1 -1.1104 6.73969 5.32516 1.03814
70 1 -1.1104 6.43871 11.1929 3.91342
235 1 -1.1104 6.70225 8.29732 6.61165
84 2 2.2208 10.8408 6.99328 5.32655
85 2 2.2208 10.7507 12.5001 5.22257
86 1 -1.1104 12.2231 8.33956 1.21626
87 1 -1.1104 12.2776 8.13457 3.97375
88 1 -1.1104 12.4149 5.60979 1.03121
89 1 -1.1104 12.2784 11.0978 0.94082
91 2 2.2208 10.7865 9.63833 2.41772
92 1 -1.1104 12.3001 5.45746 3.84806
93 1 -1.1104 12.2033 10.7754 3.73784
94 1 -1.1104 9.40189 8.27802 1.13656
95 2 2.2208 8.01245 6.84075 2.35238
96 2 2.2208 8.04393 12.452 2.50017
97 1 -1.1104 9.44346 8.32287 4.03847
98 2 2.2208 7.9149 9.55135 5.19642
99 1 -1.1104 9.58323 5.51423 1.03232
100 1 -1.1104 9.37372 11.042 0.86122
102 1 -1.1104 9.35738 5.38118 3.6705
103 1 -1.1104 9.29911 10.948 3.75057
101 1 -1.1104 9.44693 11.0816 6.58985
90 1 -1.1104 12.2401 10.9202 6.62079
266 1 -1.1104 12.4614 5.40518 6.60667
269 1 -1.1104 9.49658 5.46025 6.65333
8392 2 2.2208 8.27702 -4.36864 8.0937
163 1 -1.1104 9.44787 16.5895 6.5034
106 2 2.2208 5.15503 18.1206 5.24891
107 1 -1.1104 1.11887 14.0358 0.980651
109 1 -1.1104 1.1646 19.6943 0.973816
113 1 -1.1104 1.16486 13.9713 3.66258
114 1 -1.1104 1.0981 19.5434 3.78426
116 1 -1.1104 1.09808 16.8522 0.927123
119 2 2.2208 5.12694 15.1419 2.48595
120 2 2.2208 5.31918 20.836 2.38335
121 1 -1.1104 0.885225 16.7097 3.81539
123 1 -1.1104 3.77376 13.7511 0.956444
125 1 -1.1104 3.99859 19.2076 1.01607
127 2 2.2208 2.39843 18.0531 2.39485
128 1 -1.1104 3.86856 13.7432 3.81195
129 1 -1.1104 3.91593 19.4238 3.83158
130 2 2.2208 2.37614 15.269 5.1907
131 2 2.2208 2.37197 20.8623 5.23896
132 1 -1.1104 3.8349 16.5364 1.0091
134 1 -1.1104 3.66661 16.5161 3.86988
108 1 -1.1104 1.01468 13.9924 6.63128
124 1 -1.1104 3.77681 13.8883 6.5822
204 1 -1.1104 1.0678 19.4692 6.68647
117 1 -1.1104 0.989535 16.6452 6.56621
133 1 -1.1104 3.81188 16.765 6.56754
126 1 -1.1104 3.77763 19.4982 6.65419
140 1 -1.1104 6.51947 16.4546 0.942614
122 1 -1.1104 6.6473 16.537 3.82818
111 1 -1.1104 6.41624 13.8595 6.63911
110 1 -1.1104 6.54226 13.6533 1.03444
165 1 -1.1104 9.45619 19.668 9.16973
382 2 2.2208 2.49931 20.8839 -0.42241
139 1 -1.1104 6.70009 19.3439 3.94806
115 1 -1.1104 6.53358 14.0319 3.83525
138 1 -1.1104 6.80926 19.4019 1.18831
141 2 2.2208 10.948 18.0561 5.17005
142 1 -1.1104 12.2866 13.7352 1.0409
144 1 -1.1104 12.1925 19.5476 1.07514
146 1 -1.1104 12.1601 13.8313 3.81018
147 1 -1.1104 12.3491 19.4265 3.82186
148 1 -1.1104 12.1936 16.621 0.832013
150 2 2.2208 10.7599 15.3056 2.44754
151 2 2.2208 10.8118 20.9576 2.43287
152 1 -1.1104 12.3881 16.6635 3.75746
153 1 -1.1104 9.40346 13.9538 0.922737
155 1 -1.1104 9.38514 19.5385 0.892395
157 2 2.2208 8.02927 17.9533 2.44018
158 1 -1.1104 9.37719 13.7813 3.76047
159 1 -1.1104 9.45827 19.4178 3.74172
160 2 2.2208 7.85575 15.325 5.28911
161 2 2.2208 8.06004 20.9735 5.09122
162 1 -1.1104 9.25938 16.7127 1.05232
164 1 -1.1104 9.26554 16.6329 3.8704
143 1 -1.1104 12.2834 13.7745 6.39836
156 1 -1.1104 9.35015 19.5723 6.48625
145 1 -1.1104 12.0606 19.5115 6.56961
154 1 -1.1104 9.51819 13.7636 6.53903
300 2 2.2208 2.45276 1.11398 13.696
356 2 2.2208 5.29426 4.10004 13.6443
9090 2 2.2208 -0.353566 4.09685 8.1335
175 2 2.2208 5.25295 1.30623 10.6841
176 1 -1.1104 1.01944 -2.94542 12.194
177 1 -1.1104 1.06337 2.48236 12.2332
180 1 -1.1104 1.12723 -2.88255 9.35337
181 1 -1.1104 1.0571 2.80171 9.48622
184 1 -1.1104 0.948294 -0.317841 12.2532
186 2 2.2208 5.36073 -1.56679 7.87691
187 2 2.2208 5.20228 4.14065 8.05788
188 1 -1.1104 1.19734 -0.066413 9.54163
190 1 -1.1104 3.75507 -2.94742 12.2842
191 1 -1.1104 3.82311 2.52191 12.2831
192 2 2.2208 2.44277 1.1956 8.01624
193 1 -1.1104 3.89545 -3.02938 9.30895
194 1 -1.1104 3.89535 2.61856 9.41224
195 2 2.2208 2.47932 -1.49817 10.9253
196 2 2.2208 2.4533 3.87511 10.9633
197 1 -1.1104 3.88242 -0.166768 12.3844
198 1 -1.1104 4.01757 -0.189242 9.52488
179 1 -1.1104 6.65202 2.6535 12.1921
178 1 -1.1104 6.55478 -2.87862 12.0982
182 1 -1.1104 6.78953 -2.90569 9.38655
183 1 -1.1104 6.68538 2.63406 9.24019
189 1 -1.1104 6.84121 -0.173439 9.30632
168 1 -1.1104 6.78223 -2.92927 6.60053
8405 2 2.2208 2.37743 -4.31608 13.6675
306 2 2.2208 2.51655 -1.4648 -0.544005
207 1 -1.1104 12.4411 -0.266192 6.7731
185 1 -1.1104 6.58268 -0.0797786 12.1471
211 2 2.2208 10.8351 1.16362 10.7727
212 1 -1.1104 12.4359 -3.00765 12.3596
213 1 -1.1104 12.2962 2.67912 12.2015
214 1 -1.1104 12.1936 -3.03821 9.5818
215 1 -1.1104 12.4159 2.71107 9.48094
216 1 -1.1104 12.1845 -0.13306 12.3768
217 2 2.2208 10.9769 -1.66281 8.08682
218 2 2.2208 10.9945 4.03973 8.05176
219 1 -1.1104 12.2774 -0.165653 9.41527
220 1 -1.1104 9.49953 -3.01991 12.2498
221 1 -1.1104 9.31186 2.64185 12.1798
222 2 2.2208 8.08082 1.1627 8.00238
223 1 -1.1104 9.49941 -3.0312 9.46435
224 1 -1.1104 9.61069 2.66049 9.42647
225 2 2.2208 8.01282 -1.55638 10.9103
226 2 2.2208 8.13101 4.00348 10.709
227 1 -1.1104 9.4166 -0.349295 12.1703
228 1 -1.1104 9.56852 -0.217774 9.44148
310 2 2.2208 10.7547 -1.63763 13.6829
25 2 2.2208 10.9411 18.1868 10.858
8815 2 2.2208 13.7839 1.18335 8.05774
304 2 2.2208 11.1019 21.0508 13.8271
9100 2 2.2208 13.7178 18.0974 2.33116
239 1 -1.1104 3.91156 5.55178 6.58876
62 1 -1.1104 1.03602 11.2854 6.54305
238 1 -1.1104 3.79176 8.18133 6.67782
65 1 -1.1104 6.60482 11.0483 6.55754
237 1 -1.1104 6.6199 5.53136 6.71711
9094 2 2.2208 -0.464614 9.56109 2.38933
9086 2 2.2208 13.6357 15.0593 10.7912
240 2 2.2208 5.31094 6.95046 10.9584
241 2 2.2208 5.26659 12.5937 10.7317
242 1 -1.1104 1.14827 8.28846 12.1294
244 1 -1.1104 1.19391 8.34224 9.44104
246 1 -1.1104 1.09528 5.3975 12.1385
247 1 -1.1104 1.15489 11.2107 12.1316
250 2 2.2208 5.26404 9.76722 8.00723
251 1 -1.1104 1.11497 5.66405 9.48204
252 1 -1.1104 1.18749 11.084 9.46483
255 1 -1.1104 3.94366 8.32059 12.3072
256 2 2.2208 2.66081 6.77773 8.07966
257 2 2.2208 2.40412 12.5157 7.98631
258 1 -1.1104 3.91792 8.34756 9.55104
259 2 2.2208 2.51846 9.74913 10.7412
260 1 -1.1104 4.0163 5.51205 12.3055
261 1 -1.1104 3.84921 11.1003 12.1911
262 1 -1.1104 3.94635 5.46567 9.55775
263 1 -1.1104 3.89147 11.2003 9.41016
253 1 -1.1104 6.73529 5.44969 9.55467
243 1 -1.1104 6.75027 8.21655 12.2756
201 1 -1.1104 9.39906 16.6972 12.071
423 2 2.2208 2.43204 6.88681 13.6298
267 1 -1.1104 9.42156 8.35319 6.72348
248 1 -1.1104 6.93451 5.39904 12.2902
254 1 -1.1104 6.62779 11.1599 9.42313
249 1 -1.1104 6.73543 11.0962 12.1044
245 1 -1.1104 6.74482 8.25947 9.42684
264 1 -1.1104 9.20615 10.8733 9.35994
265 1 -1.1104 12.231 8.10324 7.08203
268 1 -1.1104 9.42642 5.39095 9.52275
270 1 -1.1104 9.93687 11.1942 12.2364
271 1 -1.1104 9.5937 5.53751 12.3283
272 2 2.2208 8.0326 9.63511 10.8147
273 1 -1.1104 9.79063 8.24229 9.55835
274 2 2.2208 7.97057 12.4794 7.86845
275 2 2.2208 8.1529 6.74824 8.07925
276 2 2.2208 10.7619 6.85712 11.0253
277 2 2.2208 10.7841 12.5446 10.5773
278 1 -1.1104 12.2172 8.1283 12.3291
279 1 -1.1104 12.4108 5.34741 12.2242
280 2 2.2208 10.811 9.79013 7.97891
281 1 -1.1104 12.3139 5.73734 9.54991
282 1 -1.1104 9.43257 8.24118 12.3217
9005 1 -1.1104 12.0248 11.062 9.46085
9088 2 2.2208 -0.402346 1.21577 5.17276
199 2 2.2208 8.00407 15.3781 10.7531
118 1 -1.1104 6.713 16.6809 6.62488
8886 2 2.2208 13.6076 15.1808 5.24074
285 1 -1.1104 6.66397 19.5342 9.47186
485 2 2.2208 2.39674 18.1719 13.6144
294 1 -1.1104 6.49016 13.8991 12.2373
296 1 -1.1104 1.14847 13.9485 12.2502
28 1 -1.1104 0.979357 16.6823 12.2394
52 1 -1.1104 3.7478 13.9523 9.39209
53 1 -1.1104 3.90883 16.7242 9.44363
203 2 2.2208 2.46659 18.1025 8.07263
229 2 2.2208 2.40836 15.3863 10.9254
230 2 2.2208 2.41763 20.8321 10.7611
231 1 -1.1104 3.82611 16.7555 12.1567
232 1 -1.1104 3.89613 19.3949 9.31212
233 2 2.2208 5.35057 18.1948 10.8314
283 1 -1.1104 3.8572 19.5637 12.1547
284 1 -1.1104 3.89139 13.9994 12.095
288 1 -1.1104 1.01344 19.4904 9.50067
289 1 -1.1104 1.10989 16.86 9.4132
290 2 2.2208 5.26056 20.8147 8.03664
291 1 -1.1104 1.04397 13.9275 9.46409
292 2 2.2208 5.0684 15.3146 7.91436
295 1 -1.1104 1.12328 19.6534 12.2476
293 1 -1.1104 6.70518 19.5157 12.2445
9099 2 2.2208 -0.453656 18.0778 5.21856
8948 2 2.2208 -0.404413 18.0716 11.0177
27 1 -1.1104 12.4197 19.7104 12.3004
202 1 -1.1104 9.51327 16.6663 9.23852
51 1 -1.1104 12.1619 16.8313 12.2897
50 1 -1.1104 12.2327 19.4206 9.31446
112 1 -1.1104 6.5148 19.3431 6.69174
200 2 2.2208 8.10166 20.9631 10.9065
105 1 -1.1104 9.64592 19.5858 12.1172
26 1 -1.1104 12.0143 13.9804 12.0067
83 1 -1.1104 12.2397 16.4463 9.4224
513 2 2.2208 10.9573 15.3353 13.6318
514 2 2.2208 8.00551 18.1793 13.7212
81 2 2.2208 10.8061 15.2736 7.99771
135 2 2.2208 8.11237 18.1595 7.9748
287 1 -1.1104 6.66239 13.9529 9.39542
286 1 -1.1104 6.63352 16.7108 9.45178
29 1 -1.1104 6.48678 16.7552 12.3247
82 2 2.2208 10.8221 21.0065 8.1089
104 1 -1.1104 9.26477 14.0169 12.1752
136 2 2.2208 -0.289043 20.9942 2.36546
8816 2 2.2208 -0.375663 20.8049 8.09723
8999 2 2.2208 13.6694 12.4544 7.96235
8817 2 2.2208 13.7073 9.61255 5.28529
425 2 2.2208 2.52628 12.4517 13.5498
424 2 2.2208 5.36597 9.65798 13.5072
301 2 2.2208 13.7488 -4.40401 8.12958
9351 2 2.2208 -0.311368 15.3309 13.6804
8788 2 2.2208 13.7997 4.02962 5.21601
8923 2 2.2208 13.8861 3.98892 10.7659
17384 2 2.2208 -0.303167 -4.32042 -0.396956
487 2 2.2208 5.3054 15.23 13.5983
9138 2 2.2208 13.6426 9.76222 -0.432499
303 2 2.2208 5.34446 20.8457 13.7008
636 2 2.2208 8.07484 20.9066 -0.480209
450 2 2.2208 8.08245 6.85727 13.8077
9112 2 2.2208 -0.390751 -1.49454 13.7093
436 2 2.2208 8.01349 12.6464 13.6251
314 2 2.2208 5.09958 1.25195 16.5319
315 1 -1.1104 0.961641 -2.91516 17.9664
316 1 -1.1104 0.971803 2.75306 17.8808
319 1 -1.1104 0.985445 -2.99523 15.0881
321 1 -1.1104 1.05381 2.64558 14.9801
327 1 -1.1104 0.929324 0.00864174 17.8722
329 2 2.2208 5.24586 -1.58954 19.2748
330 2 2.2208 5.12062 4.00623 19.1957
331 1 -1.1104 1.00725 -0.180673 14.9479
335 1 -1.1104 3.84869 -2.87582 17.8024
336 1 -1.1104 3.76899 2.79038 17.7171
337 2 2.2208 2.33423 1.32678 19.3106
338 1 -1.1104 3.76742 -3.01026 15.0783
340 1 -1.1104 3.68046 2.6239 15.0391
342 2 2.2208 2.3295 -1.64499 16.5438
343 2 2.2208 2.41644 4.01528 16.4587
344 1 -1.1104 3.68033 0.02586 17.985
345 1 -1.1104 3.7535 -0.130688 15.201
328 1 -1.1104 6.69227 -0.145448 17.9532
325 1 -1.1104 6.59735 2.65298 14.9641
324 1 -1.1104 6.69497 -2.99888 20.5963
320 1 -1.1104 1.09059 -3.12932 20.6835
317 1 -1.1104 6.61332 -3.02277 17.8126
332 1 -1.1104 1.12814 -0.301207 20.6204
339 1 -1.1104 3.73119 -3.0223 20.5667
318 1 -1.1104 6.59118 2.4482 17.8156
333 1 -1.1104 6.55127 -0.217962 15.1267
326 1 -1.1104 6.51689 2.69991 20.502
323 1 -1.1104 6.64212 -3.00378 14.923
9281 2 2.2208 -0.425897 12.3891 27.5809
334 1 -1.1104 6.7831 -0.101536 20.7689
357 2 2.2208 10.8031 1.27527 16.4881
358 1 -1.1104 12.2551 -3.00068 17.9678
359 1 -1.1104 12.3309 2.72554 17.8853
360 1 -1.1104 12.1011 -2.85422 15.0711
362 1 -1.1104 12.2471 2.78256 15.1264
364 1 -1.1104 12.1967 -0.182936 17.8953
365 2 2.2208 10.8542 -1.53434 19.2654
366 2 2.2208 10.7396 4.10752 19.3659
367 1 -1.1104 12.2237 -0.0446551 15.1399
369 1 -1.1104 9.41298 -2.95681 17.9001
370 1 -1.1104 9.39418 2.55623 17.9109
371 2 2.2208 8.03854 1.284 19.3769
372 1 -1.1104 9.42154 -3.07331 15.1153
374 1 -1.1104 9.36456 2.52535 14.9974
376 2 2.2208 7.98092 -1.56551 16.4857
377 2 2.2208 7.87753 3.91646 16.4864
378 1 -1.1104 9.50865 -0.197204 17.9949
379 1 -1.1104 9.33683 -0.259412 14.9968
373 1 -1.1104 9.44938 -2.85344 20.7708
380 1 -1.1104 9.52809 -0.0677966 20.8674
375 1 -1.1104 9.33922 2.77901 20.6066
542 2 2.2208 13.7139 -4.31556 24.9835
9206 2 2.2208 13.7194 6.93667 24.9627
352 2 2.2208 10.843 18.0765 27.7008
389 2 2.2208 10.821 3.95934 13.6412
390 2 2.2208 5.26278 6.83202 16.4884
391 2 2.2208 5.18934 12.4114 16.4073
392 1 -1.1104 0.954381 8.31599 17.7992
394 1 -1.1104 1.05782 8.13931 14.9821
398 1 -1.1104 1.15215 5.40964 17.9492
399 1 -1.1104 1.03801 11.0937 17.7999
402 2 2.2208 5.32034 9.66698 19.2194
403 1 -1.1104 1.22327 5.44808 14.9132
405 1 -1.1104 0.989411 11.1194 15.0169
411 1 -1.1104 3.82684 8.24641 17.8788
412 2 2.2208 2.4469 6.90838 19.1428
413 2 2.2208 2.43354 12.4655 19.2076
414 1 -1.1104 3.8408 8.22504 15.1787
416 2 2.2208 2.36885 9.70628 16.3468
417 1 -1.1104 3.89145 5.60877 17.9634
418 1 -1.1104 3.88642 11.0451 17.7541
419 1 -1.1104 3.9499 5.3557 15.0049
421 1 -1.1104 3.94557 11.0945 15.0121
408 1 -1.1104 6.39627 5.55433 20.5018
395 1 -1.1104 1.03521 8.18331 20.703
397 1 -1.1104 6.7984 8.27982 20.6661
406 1 -1.1104 0.997568 10.9868 20.6144
415 1 -1.1104 3.93888 8.32002 20.7213
420 1 -1.1104 3.70751 5.53545 20.7147
409 1 -1.1104 6.62933 11.151 14.9266
407 1 -1.1104 6.70658 5.36751 15.0275
400 1 -1.1104 6.46967 5.28915 17.8062
388 2 2.2208 13.7472 20.8902 22.0345
548 1 -1.1104 12.4488 16.6784 23.2891
385 2 2.2208 10.9162 18.0117 22.0313
396 1 -1.1104 6.65245 8.26063 15.1389
393 1 -1.1104 6.69177 8.1615 17.9417
401 1 -1.1104 6.67504 11.0188 17.8407
426 2 2.2208 10.7962 6.76706 16.5194
427 2 2.2208 10.9047 12.5839 16.4718
428 1 -1.1104 12.3326 8.36558 17.9987
429 1 -1.1104 12.5506 8.10608 15.144
431 1 -1.1104 12.1235 5.52542 17.963
432 1 -1.1104 12.2836 11.1931 17.9202
433 2 2.2208 10.9563 9.74127 19.2911
434 1 -1.1104 12.0933 5.38695 15.1457
438 1 -1.1104 9.46128 8.23757 17.9419
439 2 2.2208 8.02185 6.8481 19.3127
440 2 2.2208 8.0933 12.4148 19.2844
441 1 -1.1104 9.4258 8.18385 15.1104
443 2 2.2208 8.08938 9.71505 16.5268
444 1 -1.1104 9.24258 5.44382 17.9687
445 1 -1.1104 9.47871 11.1584 17.8058
446 1 -1.1104 9.54015 5.40048 15.0872
448 1 -1.1104 9.49014 11.0533 14.9832
9235 1 -1.1104 12.204 10.8237 15.1934
9239 2 2.2208 13.6165 9.62885 16.5737
430 1 -1.1104 12.6809 8.17772 20.8
447 1 -1.1104 9.35111 5.51108 20.8357
435 1 -1.1104 12.0583 5.52151 20.7799
578 1 -1.1104 9.53602 19.4879 23.443
437 1 -1.1104 12.3189 11.0135 20.6257
9241 2 2.2208 13.875 12.5523 19.2003
9211 2 2.2208 13.7064 -1.45234 16.4913
8529 2 2.2208 2.42945 -4.39261 19.1928
8499 2 2.2208 5.16659 -4.45437 22.0453
609 1 -1.1104 9.59486 19.5474 26.1644
452 2 2.2208 5.28389 18.0041 16.4484
453 1 -1.1104 1.13272 13.8881 17.8959
454 1 -1.1104 1.07481 19.4826 17.9681
457 1 -1.1104 0.961103 14.0743 15.2106
459 1 -1.1104 1.14732 19.7259 15.0062
465 1 -1.1104 1.03554 16.7442 17.9554
467 2 2.2208 5.19784 15.2458 19.2691
468 2 2.2208 5.45981 20.698 19.2137
469 1 -1.1104 1.01405 16.8351 15.0863
473 1 -1.1104 3.92973 13.8225 17.8629
474 1 -1.1104 3.75291 19.378 17.6933
475 2 2.2208 2.55875 18.1122 19.1964
476 1 -1.1104 3.8405 13.7648 15.0808
478 1 -1.1104 3.85116 19.6807 14.9034
480 2 2.2208 2.4377 15.2626 16.4757
481 2 2.2208 2.5644 21.0112 16.308
482 1 -1.1104 3.88816 16.6012 17.7514
483 1 -1.1104 3.77639 16.7443 15.0727
460 1 -1.1104 1.162 19.7174 20.7929
470 1 -1.1104 1.16515 16.8227 20.6078
484 1 -1.1104 3.91636 16.6528 20.5522
477 1 -1.1104 3.77731 13.891 20.734
461 1 -1.1104 6.60556 13.8633 15.0426
471 1 -1.1104 6.81252 16.7174 15.0613
458 1 -1.1104 1.00321 13.9229 20.5185
456 1 -1.1104 6.78253 19.4688 17.8294
463 1 -1.1104 6.52259 19.518 15.1206
462 1 -1.1104 6.41384 13.9981 20.7628
551 1 -1.1104 12.3315 16.5617 26.1944
479 1 -1.1104 4.07673 19.5428 20.5747
464 1 -1.1104 6.90666 19.3778 20.7023
466 1 -1.1104 6.62351 16.6518 17.8234
455 1 -1.1104 6.85128 13.8482 17.9324
472 1 -1.1104 6.7837 16.5155 20.7221
488 2 2.2208 11.0248 18.0291 16.538
489 1 -1.1104 12.4305 13.8921 17.8091
490 1 -1.1104 12.4142 19.5705 17.911
491 1 -1.1104 12.0547 14.1498 15.2313
493 1 -1.1104 12.4292 19.513 15.1246
495 1 -1.1104 12.3856 16.7415 17.9838
496 2 2.2208 10.9368 15.1329 19.1634
497 2 2.2208 10.8353 20.8734 19.4649
498 1 -1.1104 12.4361 16.8061 15.1322
500 1 -1.1104 9.55486 13.9234 17.8063
501 1 -1.1104 9.5938 19.3326 17.7275
502 2 2.2208 8.14055 17.8994 19.2949
503 1 -1.1104 9.27858 13.865 15.022
505 1 -1.1104 9.46646 19.643 15.0048
507 2 2.2208 8.15821 15.4185 16.3971
508 2 2.2208 8.15637 20.9579 16.4136
509 1 -1.1104 9.54334 16.6376 17.877
510 1 -1.1104 9.48572 16.839 15.0763
494 1 -1.1104 12.2719 19.4465 20.5702
504 1 -1.1104 9.56608 13.8387 20.619
499 1 -1.1104 12.328 16.573 20.6584
506 1 -1.1104 9.51196 19.4039 20.6199
515 1 -1.1104 12.2555 19.5686 23.4471
9207 2 2.2208 -0.258262 20.7869 24.8817
322 1 -1.1104 0.830453 2.4965 20.6716
341 1 -1.1104 3.66 2.66799 20.5575
346 1 -1.1104 3.96708 -0.111507 20.6226
8402 2 2.2208 8.06174 -4.40395 13.6675
516 2 2.2208 5.22944 1.24078 22.072
517 1 -1.1104 1.04671 -2.86724 23.317
518 1 -1.1104 1.01494 2.6935 23.4524
521 1 -1.1104 1.07778 -2.86735 26.1779
522 1 -1.1104 0.954898 2.76209 26.2473
525 1 -1.1104 1.1446 -0.0769508 23.4896
527 2 2.2208 5.24779 -1.5968 24.8911
528 2 2.2208 5.36636 4.04549 24.8491
529 1 -1.1104 1.11898 -0.103192 26.3567
531 1 -1.1104 3.86223 -2.97384 23.546
532 1 -1.1104 3.84852 2.64657 23.3721
533 2 2.2208 2.58011 1.36585 24.7411
534 1 -1.1104 3.78129 -2.99307 26.2735
535 1 -1.1104 3.92244 2.73963 26.1175
536 2 2.2208 2.50881 -1.66978 22.0184
537 2 2.2208 2.49269 4.23699 22.1795
538 1 -1.1104 3.91926 -0.20462 23.3627
539 1 -1.1104 4.05325 0.0756185 26.1297
526 1 -1.1104 6.67651 -0.142065 23.5745
523 1 -1.1104 6.6092 -2.93164 26.2764
524 1 -1.1104 6.79054 2.63206 26.4163
530 1 -1.1104 6.82201 -0.236178 26.1994
520 1 -1.1104 6.74758 2.73327 23.4824
611 2 2.2208 8.07016 20.8112 22.1223
363 1 -1.1104 12.283 2.6766 20.8306
368 1 -1.1104 12.3055 -0.213307 20.7633
361 1 -1.1104 12.3309 -2.94125 20.6969
579 2 2.2208 8.09448 18.1142 24.9088
519 1 -1.1104 6.64742 -3.02444 23.3668
572 2 2.2208 8.19027 4.09754 27.7317
552 2 2.2208 10.9125 1.2876 22.1629
553 1 -1.1104 12.4129 -2.90401 23.5761
554 1 -1.1104 12.2792 2.53326 23.5955
555 1 -1.1104 12.3098 -2.87306 26.4
556 1 -1.1104 12.4314 2.80122 26.2659
557 1 -1.1104 12.3722 -0.161121 23.6233
558 2 2.2208 10.9482 -1.55386 24.9725
559 2 2.2208 10.9303 4.03879 24.7682
560 1 -1.1104 12.4434 0.0241533 26.3964
561 1 -1.1104 9.59426 -2.91253 23.5649
562 1 -1.1104 9.38153 2.67298 23.5273
563 2 2.2208 8.0979 1.2527 24.9181
564 1 -1.1104 9.38701 -2.96058 26.3336
565 1 -1.1104 9.56938 2.55135 26.2622
566 2 2.2208 8.14593 -1.51635 22.0834
567 2 2.2208 8.03548 4.04911 22.0777
568 1 -1.1104 9.48375 -0.120087 23.6596
569 1 -1.1104 9.63653 -0.277252 26.4892
9210 2 2.2208 13.813 1.3179 24.8036
605 2 2.2208 5.15508 6.76456 27.6467
422 1 -1.1104 3.82618 11.0954 20.5958
404 1 -1.1104 0.84063 5.38055 20.8152
581 2 2.2208 5.2684 6.86352 22.0862
582 2 2.2208 5.31303 12.5409 22.081
583 1 -1.1104 0.99595 8.25031 23.4432
585 1 -1.1104 1.10122 8.41353 26.1133
587 1 -1.1104 1.0464 5.55933 23.534
588 1 -1.1104 0.945255 11.1273 23.509
591 2 2.2208 5.11115 9.58614 24.9583
592 1 -1.1104 1.08156 5.58031 26.33
593 1 -1.1104 1.04363 11.1227 26.2217
596 1 -1.1104 3.78295 8.2213 23.394
597 2 2.2208 2.3205 6.85791 24.8117
598 2 2.2208 2.43416 12.4989 24.917
599 1 -1.1104 3.67723 8.0944 26.2537
600 2 2.2208 2.41408 9.66274 22.0226
601 1 -1.1104 3.83309 5.52893 23.5905
602 1 -1.1104 3.85727 11.0786 23.5084
603 1 -1.1104 3.82704 5.35819 26.208
604 1 -1.1104 3.86343 11.0077 26.1869
607 2 2.2208 5.25501 12.3215 27.6037
594 1 -1.1104 6.70843 5.42989 26.2386
584 1 -1.1104 6.5066 8.3241 23.5882
313 2 2.2208 10.898 12.4701 27.5718
410 1 -1.1104 6.7221 11.0222 20.6054
449 1 -1.1104 9.53977 11.1196 20.623
442 1 -1.1104 9.7713 8.26176 20.6332
9165 2 2.2208 -0.265916 15.3393 24.9446
589 1 -1.1104 6.61767 5.56769 23.557
586 1 -1.1104 6.7068 8.12414 26.3352
595 1 -1.1104 6.6152 10.8423 26.2941
590 1 -1.1104 6.4736 11.0559 23.5912
311 2 2.2208 10.9183 6.99975 27.7561
612 1 -1.1104 9.43863 10.9564 26.1592
613 1 -1.1104 9.6008 5.35503 26.2805
614 1 -1.1104 9.4176 11.0694 23.2984
615 1 -1.1104 9.4594 5.53347 23.48
616 2 2.2208 8.07089 9.67723 22.1522
617 1 -1.1104 9.38696 8.09958 26.3719
618 2 2.2208 8.0388 12.3056 24.7872
619 2 2.2208 8.08085 6.86692 24.9993
620 2 2.2208 10.9127 6.92433 22.185
621 2 2.2208 10.9386 12.413 22.0186
622 1 -1.1104 12.3551 8.30078 23.5444
623 1 -1.1104 12.1609 8.47449 26.4301
624 1 -1.1104 12.3777 5.6412 23.5483
625 1 -1.1104 12.3474 11.124 23.4085
626 2 2.2208 10.8092 9.71797 24.8467
627 1 -1.1104 12.4224 5.62846 26.3879
628 1 -1.1104 12.21 11.0693 26.0954
629 1 -1.1104 9.35895 8.40032 23.5963
9208 2 2.2208 13.82 12.4635 24.8544
580 1 -1.1104 6.71038 19.4182 26.3673
606 2 2.2208 2.2511 9.74074 27.6971
9171 2 2.2208 -0.260601 18.0816 21.9801
486 1 -1.1104 6.59512 19.4765 23.4744
355 1 -1.1104 6.74742 13.8705 23.4707
9166 2 2.2208 13.6624 3.99795 16.4419
307 2 2.2208 8.21194 -1.5116 27.7426
347 2 2.2208 5.3265 18.04 22.0215
348 1 -1.1104 1.21231 13.7399 23.4765
350 1 -1.1104 3.94187 13.8279 23.46
354 1 -1.1104 1.1578 19.3769 23.4205
381 2 2.2208 5.29223 15.1337 24.8965
383 2 2.2208 2.45246 15.2279 21.9655
384 2 2.2208 2.54598 20.8865 22.1128
451 2 2.2208 5.29831 20.7712 24.9325
512 1 -1.1104 1.07215 13.8644 26.2282
540 1 -1.1104 1.07794 16.8532 26.2317
541 1 -1.1104 1.16884 19.5346 26.2476
545 1 -1.1104 3.88047 16.5393 23.3243
546 1 -1.1104 1.02626 16.4083 23.391
573 1 -1.1104 3.84758 13.9168 26.3346
574 1 -1.1104 3.93488 16.5493 26.0743
575 2 2.2208 2.48085 18.0429 24.7402
576 1 -1.1104 3.93271 19.3512 26.3087
631 1 -1.1104 3.8776 19.4189 23.4256
353 2 2.2208 5.25093 17.8879 27.5716
608 1 -1.1104 9.55025 13.7342 26.2862
550 2 2.2208 10.8746 20.8638 24.8529
511 1 -1.1104 9.52928 16.6831 20.6819
492 1 -1.1104 12.3384 13.5843 20.559
633 1 -1.1104 9.61562 16.7253 23.4919
634 1 -1.1104 9.59735 16.5694 26.2719
351 2 2.2208 7.90663 15.0469 27.716
386 1 -1.1104 12.4597 13.8682 23.3876
549 2 2.2208 10.9409 15.2476 24.8625
543 1 -1.1104 12.3178 13.8464 26.2763
610 2 2.2208 8.16144 15.2458 21.986
577 1 -1.1104 9.42853 13.7618 23.4097
544 1 -1.1104 12.2862 19.4547 26.3339
632 1 -1.1104 6.70269 13.7321 26.2139
547 1 -1.1104 6.81116 16.7556 23.4664
571 1 -1.1104 6.57754 16.5352 26.2699
9310 2 2.2208 13.7824 20.9577 16.6157
9457 2 2.2208 -0.467066 6.92993 22.0676
9350 2 2.2208 -0.186569 18.278 16.5034
9370 2 2.2208 13.7175 4.09337 22.1793
9309 2 2.2208 13.8275 18.0672 19.2124
9168 2 2.2208 -0.300466 -1.47084 24.9041
17451 2 2.2208 -0.366867 -4.28485 16.4958
9237 2 2.2208 -0.456711 1.27292 16.405
9244 2 2.2208 -0.392325 12.467 16.3888
9246 2 2.2208 -0.442237 9.7171 13.5226
312 2 2.2208 7.96988 9.61359 27.6617
9164 2 2.2208 -0.444879 4.04247 25.0114
9349 2 2.2208 -0.230331 15.2108 19.17
9240 2 2.2208 13.7512 6.88865 19.3646
9279 2 2.2208 -0.38787 9.61163 19.2485
349 2 2.2208 2.46785 15.2912 27.6567
9482 2 2.2208 13.7346 18.1099 13.5792
305 2 2.2208 5.3488 1.21742 27.6723
9101 2 2.2208 -0.331143 18.1913 27.7181
637 2 2.2208 2.46647 3.99896 27.711
299 2 2.2208 5.35524 -1.6101 13.675
298 2 2.2208 13.5014 6.62289 13.6802
387 2 2.2208 7.9599 1.27779 13.5701
9139 2 2.2208 -0.316939 21.1174 13.6419
302 2 2.2208 10.8658 9.6696 13.7272
638 2 2.2208 5.24862 23.7705 5.27903
639 2 2.2208 5.16609 29.2727 5.24245
640 1 -1.1104 1.22379 25.1906 0.999141
641 1 -1.1104 1.04523 25.1092 3.78576
642 1 -1.1104 1.0516 22.5182 0.995282
643 1 -1.1104 1.07422 27.9183 0.870945
644 2 2.2208 5.30734 26.5196 2.39484
645 1 -1.1104 1.09763 22.3116 3.67015
646 1 -1.1104 1.13163 27.8018 3.79884
647 1 -1.1104 3.97433 24.9451 1.08423
648 2 2.2208 2.50564 23.6956 2.45056
649 2 2.2208 2.42639 29.319 2.48948
650 1 -1.1104 3.88319 25.056 3.8227
651 2 2.2208 2.44861 26.5311 5.18099
652 1 -1.1104 3.8931 22.1277 0.917092
653 1 -1.1104 3.90155 27.7169 1.09559
654 1 -1.1104 3.75346 22.1689 3.60793
655 1 -1.1104 3.86197 28.0009 3.74763
785 1 -1.1104 3.75615 25.0579 6.61628
786 1 -1.1104 3.86808 22.2661 6.58241
787 1 -1.1104 3.74962 27.8582 6.66448
781 1 -1.1104 1.04259 22.3022 6.68156
661 1 -1.1104 6.74297 22.3406 0.865963
663 1 -1.1104 6.64834 22.2064 3.71951
783 1 -1.1104 6.64276 22.2884 6.63509
782 1 -1.1104 1.02127 28.1062 6.5904
660 1 -1.1104 6.70836 24.9822 3.90318
9743 1 -1.1104 11.926 41.9537 9.49141
779 1 -1.1104 0.886708 25.2329 6.74905
957 2 2.2208 11.0203 43.2126 13.6248
1175 2 2.2208 5.47303 40.583 -0.141184
664 1 -1.1104 6.67651 27.8481 3.86925
659 1 -1.1104 6.64615 25.0985 1.01187
662 1 -1.1104 6.74163 27.8988 1.05303
784 1 -1.1104 6.63826 27.9242 6.65787
665 2 2.2208 10.9671 23.7094 5.29345
666 2 2.2208 10.878 29.1986 5.26594
667 1 -1.1104 12.4204 25.0265 1.03448
668 1 -1.1104 12.2109 25.1593 3.83514
669 1 -1.1104 12.2029 22.3389 0.907909
670 1 -1.1104 12.3027 27.8293 1.00937
671 2 2.2208 10.8287 26.4445 2.45304
672 1 -1.1104 12.2423 22.2928 3.87707
673 1 -1.1104 12.2565 27.8197 3.91984
674 1 -1.1104 9.51196 25.1466 1.19376
675 2 2.2208 8.10439 23.6622 2.30714
676 2 2.2208 7.99781 29.253 2.40653
677 1 -1.1104 9.5473 24.992 3.89956
678 2 2.2208 8.09381 26.4274 5.1794
679 1 -1.1104 9.45277 22.3047 0.97266
680 1 -1.1104 9.46738 27.9107 0.98923
681 1 -1.1104 9.45762 22.2367 3.70687
682 1 -1.1104 9.53024 27.8399 3.88095
817 1 -1.1104 9.45724 27.8778 6.63718
814 1 -1.1104 12.4218 27.7906 6.65955
813 1 -1.1104 12.3383 22.4408 6.66696
815 1 -1.1104 9.55268 25.2076 6.81188
780 1 -1.1104 6.52579 25.061 6.57569
938 1 -1.1104 12.225 44.8002 9.34498
941 1 -1.1104 12.0172 39.3754 12.4683
918 1 -1.1104 6.70306 42.0297 12.4844
686 2 2.2208 5.30329 34.8786 5.45908
687 1 -1.1104 1.14201 30.7052 1.27655
690 1 -1.1104 0.980601 30.5952 4.04838
691 1 -1.1104 0.91566 36.4105 3.55244
693 1 -1.1104 1.16067 33.5993 0.962496
694 2 2.2208 5.34596 32.0147 2.55
695 2 2.2208 5.13348 37.6708 2.49432
696 1 -1.1104 1.09342 33.646 3.86669
698 1 -1.1104 3.86837 30.4344 1.17102
699 1 -1.1104 3.5261 36.3362 1.2799
700 2 2.2208 2.6255 34.7689 2.5001
701 1 -1.1104 3.98172 30.6821 3.91766
702 1 -1.1104 3.93041 36.3368 4.19617
703 2 2.2208 2.52711 32.0795 5.24978
704 2 2.2208 2.48818 37.7304 5.25949
705 1 -1.1104 3.75135 33.0891 1.39426
706 1 -1.1104 3.90405 33.5416 4.11992
840 1 -1.1104 1.0726 33.5923 6.66666
843 1 -1.1104 3.9336 36.4659 6.86297
837 1 -1.1104 1.13295 36.2801 6.56045
842 1 -1.1104 3.8949 30.7148 6.68773
836 1 -1.1104 1.09767 30.845 6.84505
710 1 -1.1104 6.6825 30.7249 1.00806
964 2 2.2208 2.58332 32.0299 -0.315948
844 1 -1.1104 3.79527 33.4976 6.81084
952 1 -1.1104 12.2164 47.5611 1.06318
10027 2 2.2208 13.7532 43.3525 -0.371079
838 1 -1.1104 6.63413 30.7831 6.52037
711 1 -1.1104 6.64909 30.6178 3.83175
692 1 -1.1104 6.82791 36.3302 3.95744
689 1 -1.1104 6.72048 36.4429 1.1395
697 1 -1.1104 6.73171 33.5874 4.02008
712 1 -1.1104 6.79863 33.3258 1.27439
713 2 2.2208 10.8638 34.9636 5.3152
714 1 -1.1104 12.3922 30.5389 1.04438
715 1 -1.1104 12.3398 36.3635 1.14596
716 1 -1.1104 12.3314 30.7002 3.90382
717 1 -1.1104 12.5768 36.2113 4.14901