LAMMPS (29 Oct 2020)
OMP_NUM_THREADS environment is not set. Defaulting to 1 thread. (../comm.cpp:94)
  using 1 OpenMP thread(s) per MPI task
OMP_NUM_THREADS environment is not set. Defaulting to 1 thread. (../comm.cpp:94)
  using 1 OpenMP thread(s) per MPI task
Reading data file ...
  orthogonal box = (-0.35008075 -4.1832027 -0.36263144) to (27.690081 332.26320 27.702631)
  2 by 13 by 2 MPI processor grid
  reading atoms ...
  17640 atoms
  reading velocities ...
  17640 velocities
Finding 1-2 1-3 1-4 neighbors ...
  special bond factors lj:    0.0      0.0      0.0     
  special bond factors coul:  0.0      0.0      0.0     
     0 = max # of 1-2 neighbors
     0 = max # of 1-3 neighbors
     0 = max # of 1-4 neighbors
     1 = max # of special neighbors
  special bonds CPU = 0.004 seconds
  read_data CPU = 0.077 seconds
Setting atom values ...
  11760 settings made for charge
Setting atom values ...
  5880 settings made for charge
PPPM initialization ...
  using 12-bit tables for long-range coulomb (../kspace.cpp:328)
  G vector (1/distance) = 0.2988439
  grid = 40 240 40
  stencil order = 5
  estimated absolute RMS force accuracy = 0.00015594204
  estimated relative force accuracy = 1.0829576e-05
  using single precision MKL FFT
  3d grid and FFT values/proc = 15000 7600
Neighbor list info ...
  update every 1 steps, delay 0 steps, check yes
  max neighbors/atom: 2000, page size: 100000
  master list distance cutoff = 11.3
  ghost atom cutoff = 11.3
  binsize = 5.65, bins = 5 60 5
  2 neighbor lists, perpetual/occasional/extra = 2 0 0
  (1) pair coul/long, perpetual
      attributes: half, newton on
      pair build: half/bin/newton
      stencil: half/bin/3d/newton
      bin: standard
  (2) pair eam/alloy, perpetual, copy from (1)
      attributes: half, newton on
      pair build: copy
      stencil: none
      bin: none
Setting up Verlet run ...
  Unit style    : metal
  Current step  : 0
  Time step     : 0.001
Per MPI rank memory allocation (min/avg/max) = 8.157 | 8.180 | 8.193 Mbytes
Step Temp E_pair E_mol TotEng Press 
       0          600   -230429.69            0   -229061.67    1057.6177 
  100000    594.60098   -230434.86            0   -229079.15    1264.0596 
Loop time of 596.678 on 52 procs for 100000 steps with 17640 atoms

Performance: 14.480 ns/day, 1.657 hours/ns, 167.595 timesteps/s
99.8% CPU use with 52 MPI tasks x 1 OpenMP threads

MPI task timing breakdown:
Section |  min time  |  avg time  |  max time  |%varavg| %total
---------------------------------------------------------------
Pair    | 391.21     | 401.66     | 416.55     |  30.5 | 67.32
Bond    | 0.0066103  | 0.0098115  | 0.013127   |   1.7 |  0.00
Kspace  | 126.72     | 142.89     | 155.2      |  57.2 | 23.95
Neigh   | 30.191     | 33.047     | 36.148     |  25.7 |  5.54
Comm    | 13.604     | 14.683     | 16.527     |  20.5 |  2.46
Output  | 5.7488e-05 | 6.434e-05  | 0.00030792 |   0.0 |  0.00
Modify  | 1.6991     | 3.1117     | 5.0022     |  61.8 |  0.52
Other   |            | 1.27       |            |       |  0.21

Nlocal:        339.231 ave         368 max         324 min
Histogram: 11 8 3 8 7 7 5 1 0 2
Nghost:        4109.50 ave        4211 max        3972 min
Histogram: 4 3 1 7 3 6 7 9 5 7
Neighs:        67351.4 ave       74003 max       61121 min
Histogram: 2 7 2 5 11 9 9 4 1 2

Total # of neighbors = 3502271
Ave neighs/atom = 198.54144
Ave special neighs/atom = 0.0000000
Neighbor list builds = 16217
Dangerous builds = 0
11760 atoms in group oxygen
PPPM initialization ...
  using 12-bit tables for long-range coulomb (../kspace.cpp:328)
  G vector (1/distance) = 0.2988439
  grid = 40 240 40
  stencil order = 5
  estimated absolute RMS force accuracy = 0.00015594204
  estimated relative force accuracy = 1.0829576e-05
  using single precision MKL FFT
  3d grid and FFT values/proc = 15000 7600
Setting up Verlet run ...
  Unit style    : metal
  Current step  : 0
  Time step     : 0.001
Per MPI rank memory allocation (min/avg/max) = 8.407 | 8.431 | 8.444 Mbytes
Step f_2 Temp v_Tdiff v_deltaT 
       0            0    594.60098            0            0 
  100000     682.1398    599.95292  0.019121791    222.00221 
  200000    1360.8662    598.81691  0.020378084    236.58767 
  300000    2031.9629       603.51  0.019977483    231.93673 
  400000    2706.0428    600.15679  0.019848657    230.44107 
  500000     3382.557    598.85427  0.021438507    248.89907 
  600000    4056.1861    596.28143  0.020411298    236.97327 
  700000     4728.173    602.30026  0.020605126     239.2236 
  800000    5402.6377     599.1268  0.020620866    239.40633 
  900000    6075.4949    599.14018  0.020450895    237.43299 
 1000000    6746.2606    594.89011  0.021289968    247.17455 
Loop time of 5981.64 on 52 procs for 1000000 steps with 17640 atoms

Performance: 14.444 ns/day, 1.662 hours/ns, 167.178 timesteps/s
99.9% CPU use with 52 MPI tasks x 1 OpenMP threads

MPI task timing breakdown:
Section |  min time  |  avg time  |  max time  |%varavg| %total
---------------------------------------------------------------
Pair    | 3883.2     | 4012.5     | 4183.1     | 107.4 | 67.08
Bond    | 0.056732   | 0.097111   | 0.14968    |   6.1 |  0.00
Kspace  | 1264       | 1448.7     | 1569.7     | 189.6 | 24.22
Neigh   | 309.44     | 337.56     | 370.48     |  75.8 |  5.64
Comm    | 135.7      | 147.19     | 169.51     |  73.1 |  2.46
Output  | 0.0010965  | 0.0011753  | 0.0023587  |   0.5 |  0.00
Modify  | 5.3889     | 5.8071     | 6.4077     |  10.8 |  0.10
Other   |            | 29.8       |            |       |  0.50

Nlocal:        339.231 ave         365 max         322 min
Histogram: 6 3 8 10 12 6 1 2 1 3
Nghost:        4120.62 ave        4210 max        3997 min
Histogram: 3 3 3 6 1 5 11 10 5 5
Neighs:        67360.6 ave       72916 max       62076 min
Histogram: 5 1 8 3 9 9 9 3 1 4

Total # of neighbors = 3502752
Ave neighs/atom = 198.56871
Ave special neighs/atom = 0.0000000
Neighbor list builds = 165890
Dangerous builds = 0
Total wall time: 1:49:38
