ITEM: TIMESTEP
50000
ITEM: NUMBER OF ATOMS
18000
ITEM: BOX BOUNDS xy xz yz pp pp pp
-1.5353634860707244e-01 2.8047536348606641e+01 0.0000000000000000e+00
-1.7160862606239180e+00 3.3644408626062238e+02 0.0000000000000000e+00
-1.5634163522205630e-01 2.8050341635222249e+01 0.0000000000000000e+00
ITEM: ATOMS id type x y z
1 1 1.21811 -0.251957 1.20718
2 1 4.16842 -0.404873 1.16308
3 1 3.9068 -0.473487 4.08302
4 1 1.19291 -0.372622 4.10864
5 1 1.19876 2.42426 1.28254
6 1 3.83477 2.39956 1.31356
7 1 3.99636 2.29595 4.12587
8 1 1.08278 2.421 4.11001
9 1 6.9894 -0.314021 1.4471
10 1 9.74007 -0.332767 1.00923
11 1 9.41678 -0.022512 3.91782
12 1 6.66394 -0.229339 4.298
13 1 6.91358 2.45603 1.3119
14 1 9.82487 2.61958 1.24891
15 1 9.54261 2.75993 4.14946
16 1 6.89048 2.43116 3.98864
17 1 12.3408 -0.328257 1.50324
18 1 12.5556 -0.556962 4.15732
19 1 12.4204 2.41753 1.14152
20 1 12.4429 2.32502 3.94984
21 1 1.14723 5.17752 1.38557
22 1 4.14224 4.97164 1.16834
23 1 3.79344 5.33182 3.90392
24 1 0.995282 5.24691 4.23213
25 1 1.15796 7.93401 1.41709
26 1 4.03286 7.84057 1.27074
27 1 4.1701 8.3621 4.05619
28 1 1.26532 8.19117 4.09687
29 1 6.92284 5.55326 1.40807
30 1 9.77457 5.52751 1.17465
31 1 9.37756 5.401 4.06746
32 1 6.37323 5.35222 4.4463
33 1 6.81591 8.29183 1.41181
34 1 9.64357 8.35768 1.35993
35 1 9.57047 8.07687 4.14341
36 1 6.94942 7.93072 3.97745
37 1 12.4842 5.35105 1.38643
38 1 12.3377 5.37164 4.35328
39 1 12.4595 8.03231 1.40693
40 1 12.5683 8.21815 4.18056
12045 2 5.39428 20.9224 -0.0410854
42 1 4.3964 10.6052 1.5224
43 1 4.12876 11.0141 4.22989
44 1 1.34467 10.9489 4.35337
45 1 1.65929 12.0156 1.91274
46 1 4.03869 13.6649 1.35706
47 1 4.12635 13.7517 4.17979
48 1 1.3103 13.7624 4.4521
49 1 7.0562 11.1558 1.20785
50 1 9.75076 11.0214 1.29068
51 1 9.82154 11.1445 4.10204
52 1 6.79174 10.7292 4.15746
53 1 6.87635 13.7352 1.00224
54 1 9.87382 13.8344 1.36235
55 1 9.64614 13.7553 4.1592
56 1 6.89247 13.5334 3.98025
57 1 12.6279 10.9082 1.26878
58 1 12.6585 11.0505 4.05241
59 1 12.5723 13.8398 1.41091
60 1 12.6382 13.8817 3.99367
61 1 1.04835 16.9063 1.14034
62 1 3.7805 16.6318 1.46318
63 1 3.97254 16.5518 4.14348
64 1 1.08173 16.4946 3.94441
65 1 1.21215 19.7015 1.11364
66 1 3.88517 19.4043 1.48365
67 1 3.7583 19.5366 4.30058
68 1 0.958195 19.5314 3.81248
69 1 6.60013 16.4729 1.30481
70 1 9.37245 16.5386 1.37604
71 1 9.7935 16.604 4.1847
72 1 7.02651 16.4202 4.15817
73 1 6.8427 19.5012 1.47152
74 1 9.70009 19.4516 1.36311
75 1 9.56644 19.6054 4.09901
76 1 6.79662 19.5185 4.23653
77 1 12.1924 16.7343 1.07533
78 1 12.4531 16.7076 3.96085
79 1 12.4707 22.1094 1.21836
80 1 12.3357 19.2572 4.28887
81 1 1.27662 22.4005 1.38736
82 1 4.13523 22.3651 1.35104
83 1 3.98756 22.3124 4.31649
84 1 1.22566 22.3695 4.22709
85 1 6.83358 22.3694 1.30396
86 1 9.61504 22.3333 1.50742
87 1 9.82541 22.3542 4.29369
88 1 6.84256 22.2278 4.11542
12039 2 11.157 15.1 -0.00695192
90 1 12.3986 22.0713 3.97977
91 1 1.11735 -0.540533 6.92555
92 1 3.88896 -0.358025 7.06268
93 1 4.08537 -0.508816 9.87654
94 1 1.06975 -0.246757 9.75731
95 1 1.25229 2.42722 6.86823
96 1 4.03095 2.37317 6.84511
97 1 3.92481 2.28721 9.6267
98 1 1.23624 2.37972 9.70694
99 1 6.93088 -0.32372 7.18899
100 1 9.59622 -0.455005 6.77848
101 1 9.57786 -0.383513 9.56491
102 1 6.71595 -0.325266 9.84255
103 1 6.8088 2.70851 6.96595
104 1 9.50835 2.26758 7.08405
105 1 9.66123 2.42472 9.81978
106 1 7.01447 2.42941 9.99643
107 1 12.5123 -0.585002 7.01639
108 1 12.3045 -0.518565 10.113
109 1 12.5081 2.35117 6.93952
110 1 12.4206 2.32801 9.84471
111 1 1.28748 5.32977 6.91334
112 1 3.90001 5.20187 6.92119
113 1 4.18339 5.19977 9.9348
114 1 1.10504 5.22149 9.73377
115 1 1.27739 8.23053 7.04707
116 1 3.99552 7.79816 6.95471
117 1 4.04716 8.2873 9.88046
118 1 1.27993 7.91286 9.87317
119 1 6.87929 5.31856 7.12878
120 1 9.67538 5.19961 6.76047
121 1 9.46686 5.26913 9.39242
122 1 6.77813 5.08541 9.77078
123 1 6.87538 8.07396 6.95212
124 1 9.72846 8.06953 6.96265
125 1 9.62719 7.91373 9.61373
126 1 6.93595 7.98862 9.72621
127 1 12.3762 5.23546 7.12105
128 1 12.2543 5.21493 10.0555
129 1 12.4721 8.0898 6.77333
130 1 12.5348 7.96321 9.76405
131 1 1.23628 11.1452 7.11211
132 1 4.24833 10.7271 6.96199
133 1 4.24092 10.8986 9.79527
134 1 1.37195 10.7474 9.97509
135 1 1.07006 13.892 7.21617
136 1 4.04024 13.5113 6.9606
137 1 4.27908 13.6061 9.67513
138 1 1.37171 13.6883 9.88109
139 1 6.96802 10.8077 6.9694
140 1 9.7759 10.9031 6.94153
141 1 9.73025 10.697 9.89386
142 1 7.15015 10.7917 9.74513
143 1 6.78732 13.6139 6.93132
144 1 9.66521 13.6371 6.95882
145 1 9.92317 13.5556 9.89398
146 1 7.01498 13.5964 9.91122
147 1 12.5125 11.0297 6.84891
148 1 12.5644 10.811 9.67903
149 1 12.4269 13.8693 6.98171
150 1 12.7889 13.6533 9.60987
151 1 1.04204 16.7624 6.76538
152 1 4.11114 16.6159 7.02705
153 1 4.27383 16.2747 9.85025
154 1 1.35596 16.5006 9.65032
155 1 1.34947 19.5982 6.71789
156 1 4.07625 19.6024 7.07743
157 1 3.99964 19.2651 9.91192
158 1 1.34679 19.1563 9.62727
159 1 6.76516 16.3418 6.93322
160 1 9.50139 16.5549 6.99855
161 1 9.77593 16.4412 9.80461
162 1 6.98385 16.4429 9.8448
163 1 6.66473 19.3475 7.04427
164 1 9.564 19.4782 6.86027
165 1 9.63607 19.3572 9.93486
166 1 6.84193 19.2575 9.94474
167 1 12.4821 16.5175 6.8514
168 1 12.5884 16.5941 9.60813
169 1 12.6117 19.7042 7.01473
170 1 12.3352 19.2415 9.82602
171 1 1.19942 22.5373 7.10465
172 1 4.09432 22.3308 7.0204
173 1 4.05668 22.2454 9.72005
174 1 1.08194 21.9271 9.76389
175 1 6.82737 22.1387 6.97402
176 1 9.54521 22.1008 7.09272
177 1 9.60767 22.0666 9.75594
178 1 6.83407 22.005 9.91273
179 1 12.3264 22.3231 6.83365
180 1 12.4439 22.1617 9.75963
181 1 1.38891 -0.240389 12.5943
182 1 4.12457 -0.51085 12.6848
183 1 1.1165 2.56599 12.6664
184 1 3.92806 2.36282 12.5968
185 1 7.00781 -0.597388 12.6766
186 1 9.76356 -0.335243 12.601
187 1 6.73444 2.44706 12.7203
188 1 9.50208 2.40109 12.5777
189 1 12.5404 -0.34951 12.8129
190 1 12.3511 2.47563 12.5745
191 1 1.2384 5.45387 12.5117
192 1 4.20782 5.34852 12.6009
193 1 1.25505 8.07384 12.6367
194 1 4.13477 8.06205 12.4674
195 1 6.9243 5.25231 12.4661
196 1 9.76923 5.23503 12.4542
197 1 6.85073 7.97696 12.4309
198 1 9.56862 7.99518 12.4573
199 1 12.5357 5.26577 12.801
200 1 12.3683 7.96658 12.6005
201 1 1.26634 10.905 12.6749
202 1 3.9161 10.9679 12.605
203 1 1.05746 13.7792 12.5545
204 1 3.97872 13.811 12.4922
205 1 6.82784 10.7035 12.4562
206 1 9.60255 11.012 12.6419
207 1 6.8399 13.6288 12.5519
208 1 9.54598 13.6021 12.546
209 1 12.3916 10.9099 12.4553
210 1 12.3117 13.7187 12.6386
211 1 1.42909 16.5244 12.6506
212 1 4.11412 16.561 12.6228
213 1 1.5609 19.4466 12.5609
214 1 4.28805 19.6308 12.631
215 1 6.78565 16.5849 12.6204
216 1 9.62075 16.3616 12.8513
217 1 7.10574 19.3226 12.5746
218 1 9.78023 19.1124 12.6248
219 1 12.5865 16.543 12.5897
220 1 12.4071 19.5765 12.6606
221 1 1.16277 22.358 12.5894
222 1 4.03569 22.4914 12.6438
223 1 6.91011 22.232 12.6832
224 1 9.74775 22.0968 12.7236
225 1 12.5975 22.2007 12.5232
15121 2 13.8192 23.6914 11.2382
404 1 1.61534 10.2427 0.0482841
12044 2 -0.137628 23.6666 2.73349
12141 2 2.66125 15.0039 13.9307
12029 2 11.1483 9.49607 -0.0744984
15001 2 13.7863 0.986098 -0.0144617
15101 2 13.7579 0.89713 11.353
12008 2 5.41713 0.910822 2.70365
15106 2 13.8737 6.52414 11.1075
12010 2 10.8947 1.15408 2.54819
12125 2 11.0548 20.6805 11.126
12036 2 7.9809 18.1286 -0.047119
12013 2 2.62622 3.74524 2.83241
12124 2 8.14001 23.4712 11.2381
12116 2 -0.0866544 15.2683 11.1109
12081 2 -0.0759399 15.2256 5.68059
12017 2 8.18927 3.96653 2.71908
12018 2 5.33277 6.70171 2.78268
15091 2 13.7933 23.5182 5.61235
12020 2 11.1628 6.65684 2.81684
12113 2 5.61919 9.36266 11.048
12104 2 8.30027 0.770117 11.1214
12023 2 2.67842 9.63748 2.5734
12111 2 -0.0134573 9.50507 11.3478
15042 2 13.8323 20.8423 2.81971
12107 2 2.72059 6.74117 11.2255
12027 2 8.3275 9.62233 2.76583
12028 2 5.51051 12.1962 2.85126
12084 2 -0.212204 18.0204 8.39551
12030 2 11.196 12.2136 2.76954
12102 2 2.44483 0.985288 11.0783
12114 2 8.38213 12.1784 11.2734
12033 2 2.47145 15.0443 2.78183
12049 2 11.054 20.9193 -0.0509582
12100 2 11.1085 23.5175 8.42422
12099 2 11.0563 20.8864 5.50385
12037 2 8.16718 15.0354 2.55373
12038 2 5.23905 18.1284 2.83543
12098 2 5.52721 23.5697 8.37667
12040 2 10.9544 17.9263 2.61149
12097 2 8.29664 20.5515 8.4509
15116 2 13.7458 18.0058 11.1947
12043 2 2.40317 21.0054 2.82938
12123 2 5.534 20.6902 11.2012
12096 2 8.23316 23.5871 5.5495
12095 2 5.34923 20.9146 5.56111
12047 2 8.25856 20.796 2.83952
12048 2 5.3908 23.7836 2.65176
12115 2 11.0023 9.25141 11.1559
12050 2 11.0949 23.6795 2.66666
12009 2 10.9993 -1.74587 0.0912165
12052 2 2.55436 1.00281 5.51933
12112 2 2.70889 12.2163 11.1985
12122 2 2.64899 23.6501 11.3126
12110 2 10.9858 3.71847 11.1902
12056 2 8.35389 1.18495 5.41472
12109 2 8.17752 6.48876 10.988
12058 2 5.50413 0.93275 8.51409
12108 2 5.46328 3.61706 11.2859
12060 2 11.2124 0.782032 8.53694
12120 2 11.1955 15.1026 11.0641
12062 2 2.53039 6.66617 5.50753
12063 2 2.58264 3.82713 8.26679
12119 2 8.34936 17.802 11.2946
12065 2 5.33446 3.70306 5.44523
12066 2 8.09155 6.59491 5.51078
12067 2 8.15281 3.63691 8.45324
12068 2 5.55203 6.5676 8.44521
12069 2 11.1267 3.83974 5.71731
12070 2 10.9948 6.59948 8.29135
12025 2 5.64167 9.42298 -0.192387
12072 2 2.81811 12.3474 5.51477
12073 2 2.66683 9.51712 8.41637
12118 2 5.47313 15.0118 11.3705
12075 2 5.49298 9.33991 5.64416
12076 2 8.33669 12.2085 5.6423
12077 2 8.36964 9.29903 8.22956
12078 2 5.74619 12.1061 8.43335
12079 2 11.1863 9.54577 5.50831
12080 2 11.2606 12.2819 8.44437
15021 2 13.83 12.2439 -0.139009
12082 2 2.68843 18.0382 5.55551
12083 2 2.81038 14.9758 8.48694
12117 2 2.85608 17.8588 11.224
12085 2 5.43598 15.0953 5.57152
12086 2 8.11514 17.8799 5.5529
12087 2 8.41748 14.9776 8.42164
12088 2 5.46951 17.9211 8.37409
12089 2 11.1161 15.185 5.5292
12090 2 11.0444 17.9428 8.14371
12012 2 2.54485 6.47041 0.0656273
12092 2 2.55012 23.7829 5.58693
12093 2 2.63431 20.752 8.43011
15071 2 13.9063 12.2944 5.47284
440 1 12.467 19.455 1.5303
12002 2 2.63939 1.00105 -0.105629
12035 2 5.47928 15.1254 -0.051114
15062 2 13.9419 3.60512 8.39067
6059 1 0.369404 14.096 1.74578
12046 2 8.28379 23.6064 -0.0282128
12006 2 8.27061 1.10244 -0.0786073
12019 2 11.0911 3.88882 -0.175399
15092 2 13.9294 20.6654 8.51432
12135 2 11.044 6.47728 13.9846
15081 2 13.9557 18.0107 5.48214
15051 2 13.8784 0.898995 5.46714
12140 2 11.0885 12.2044 13.9463
12034 2 -0.386792 18.0088 2.68519
15072 2 13.9193 9.31597 8.31757
15022 2 13.9554 9.42726 2.84121
6058 2 -0.0452847 12.2932 0.078897
15032 2 14.0072 15.1464 2.81572
12024 2 -0.210273 12.3183 3.35131
12011 2 -0.303266 3.7412 -0.114266
12143 2 8.20521 15.0177 14.0253
12022 2 3.06416 12.157 -0.0670085
15031 2 13.8629 18.0183 -0.0199934
12042 2 2.61897 23.7499 -0.0406069
12129 2 5.49394 0.888759 13.9559
12016 2 8.32538 6.76143 0.0718628
226 1 4.10304 -0.478007 15.4735
227 1 1.18408 -0.53383 15.5217
228 1 3.95451 2.3233 15.3866
229 1 1.18915 2.38474 15.5571
230 1 9.61599 -0.554371 15.417
231 1 6.63458 -0.589682 15.4844
232 1 9.54516 2.17077 15.4483
233 1 6.84993 2.38399 15.5221
234 1 12.5982 -0.351378 15.3977
235 1 12.2564 2.53789 15.5304
236 1 4.21576 5.09251 15.3425
237 1 1.30475 5.20938 15.3278
238 1 4.11837 7.76589 15.4665
239 1 1.2623 8.166 15.4503
240 1 9.8019 4.9601 15.6318
241 1 6.97688 5.26504 15.341
242 1 9.58688 7.83139 15.3582
243 1 6.93052 8.02172 15.4767
244 1 12.4358 5.40041 15.5033
245 1 12.3361 8.20703 15.2873
246 1 4.21223 10.6792 15.483
247 1 1.47166 10.9137 15.5355
248 1 4.24535 13.6618 15.4291
249 1 1.39848 13.7619 15.4186
250 1 9.68158 10.8029 15.5742
251 1 6.98786 10.8244 15.2589
252 1 9.6756 13.6919 15.3215
253 1 6.9347 13.805 15.4118
254 1 12.4959 11.0111 15.3351
255 1 12.4563 13.7296 15.4554
256 1 4.09131 16.5388 15.0993
257 1 1.46677 16.4919 15.4295
258 1 4.12884 19.4903 15.2832
259 1 1.30514 19.4287 15.3647
260 1 9.60675 16.4737 15.5014
261 1 6.80779 16.5862 15.5902
262 1 9.67071 19.4461 15.5991
263 1 6.96226 19.3671 15.4276
264 1 12.4687 16.6294 15.4901
265 1 12.3967 19.3997 15.4577
266 1 3.97697 22.2805 15.2428
267 1 1.1602 22.2418 15.4
268 1 9.7664 22.2495 15.5801
269 1 6.88126 22.1661 15.3965
270 1 12.5514 22.0178 15.4429
271 1 1.13611 -0.193598 18.2113
272 1 4.08769 -0.440423 18.3862
273 1 3.91041 -0.49839 21.1153
274 1 1.19835 -0.267827 21.0163
275 1 1.07304 2.51082 18.2988
276 1 3.92601 2.26374 18.3417
277 1 3.99827 2.19436 20.9713
278 1 1.29698 2.56298 21.0463
279 1 6.64867 -0.330795 18.2523
280 1 9.57431 -0.196182 18.1879
281 1 9.59992 -0.223537 20.9906
282 1 6.78334 -0.484147 21.0941
283 1 6.76985 2.34179 18.2151
284 1 9.60478 2.51024 18.2205
285 1 9.56428 2.48475 21.1581
286 1 6.85448 2.27073 21.0783
287 1 12.4287 -0.363441 18.0506
288 1 12.475 -0.398375 20.8403
289 1 12.5836 2.50183 18.2535
290 1 12.4489 2.41781 21.0778
291 1 1.25147 5.3881 18.2445
292 1 3.95343 5.22806 18.2436
293 1 3.98701 4.99546 21.296
294 1 1.34159 5.25553 21.1091
295 1 1.2958 8.11302 18.1209
296 1 3.96554 7.94223 18.4295
297 2 2.59831 9.61147 22.5869
298 1 1.12661 8.28568 21.1294
299 1 6.73059 5.25662 18.3628
300 1 9.6799 5.26894 18.2748
301 1 9.75996 5.31811 21.2142
302 1 7.05997 5.22471 21.0738
303 1 6.65262 7.96937 18.2691
304 1 9.7338 8.20517 18.1841
305 1 6.56996 7.96103 21.1063
306 1 3.76847 8.13955 21.2435
307 1 12.2602 5.44917 18.26
308 1 12.2941 5.43416 21.0769
309 1 12.5174 8.09727 18.2646
310 1 12.4215 8.21966 21.0999
311 1 1.25143 10.9455 18.1797
312 1 4.21098 10.7367 18.3636
313 1 4.2557 10.9329 21.4201
314 1 0.763744 10.8322 23.1348
315 1 1.74601 11.135 20.8192
316 1 4.17958 13.7255 18.2347
317 1 3.98649 13.8983 21.0076
318 1 1.11098 13.7906 20.9804
319 1 6.70496 10.7905 18.207
320 1 9.4953 10.9952 18.3008
321 1 9.7194 8.13116 20.9476
322 1 6.83088 10.9179 21.1401
323 1 6.91792 13.5888 18.3558
324 1 9.72428 13.7912 18.0135
325 1 9.80716 13.7345 20.7402
326 1 7.05433 13.7785 20.9385
327 1 12.3228 10.8345 18.2112
328 1 9.71669 10.8536 21.1243
329 1 12.4776 13.9105 18.4748
330 1 12.4965 11.3992 20.9137
331 1 1.05072 13.8767 18.2229
332 1 3.99333 16.5826 18.1178
333 1 4.07488 16.7698 21.1094
334 1 1.20115 16.5991 21.0655
335 1 1.31865 19.275 18.2684
336 1 4.03939 19.4463 18.141
337 1 4.09092 19.4633 20.9461
338 1 1.28804 19.5672 21.0174
339 1 6.78773 16.6084 18.3049
340 1 9.66114 16.6322 18.264
341 1 9.55877 16.7242 20.8778
342 1 6.7521 16.7818 21.0695
343 1 7.00153 19.448 18.257
344 1 9.90945 19.4734 18.3328
345 1 9.76029 19.3927 21.1558
346 1 6.90098 19.6165 21.118
347 1 12.5209 16.8507 18.3431
348 1 12.7755 16.5982 21.0895
349 1 12.5894 19.5614 18.1345
350 1 12.6846 19.507 21.1808
351 1 1.15433 22.0734 18.2308
352 1 4.04572 22.2104 18.157
353 1 4.15059 22.1401 21.0136
354 1 1.28313 22.1294 21.0856
355 1 6.88997 22.3132 18.2643
356 1 9.73492 22.3956 18.3315
357 1 9.60423 22.0856 21.2185
358 1 6.90117 22.4074 21.065
359 1 12.6063 22.383 18.292
360 1 12.6843 22.4051 21.0809
361 1 1.47718 -0.342034 23.9288
362 1 4.16268 -0.498519 23.8064
363 1 4.07779 -0.328048 26.5796
364 1 1.17666 -0.34469 26.6314
365 1 1.33266 2.28617 23.9206
366 1 4.06748 2.3786 23.8842
367 1 3.8486 2.46847 26.8047
368 1 1.05441 2.47424 26.7136
369 1 6.88715 -0.344223 23.853
370 1 9.61505 -0.211377 23.8671
371 1 9.67259 -0.24393 26.6386
372 1 6.67594 -0.20702 26.7771
373 1 6.88271 2.55126 23.9443
374 1 9.42971 2.44717 24.1104
375 1 9.69452 2.48776 26.7161
376 1 6.68212 2.53143 26.5904
377 1 12.566 -0.305922 23.7819
378 1 12.5716 -0.46075 26.8737
379 1 12.4613 2.39252 23.9539
380 1 12.4375 2.52814 26.7733
381 1 1.18777 5.15831 23.7843
382 1 4.30415 5.50738 24.0778
383 1 3.83496 5.29337 26.6576
384 1 1.17455 5.23145 26.6954
385 1 1.62438 8.00997 23.9074
386 1 4.09469 8.3422 23.923
387 1 4.28275 8.14581 26.7421
388 1 1.23547 7.82043 26.9054
389 1 6.93467 5.16695 23.8693
390 1 9.70478 5.12706 24.0354
391 1 9.4665 5.19797 26.6687
392 1 6.79238 5.28357 26.8752
393 1 7.06536 8.05729 23.9699
394 1 9.66521 8.06515 23.8233
395 1 9.67253 8.20999 26.6872
396 1 6.99351 8.25279 26.7101
397 1 12.3857 5.195 24.0304
398 1 12.382 5.46602 26.8158
399 1 12.4141 8.11169 23.7138
400 1 12.2465 8.28871 26.5379
401 1 1.58319 11.8613 26.2405
402 1 3.18249 11.1182 24.1293
403 1 4.24608 10.8973 26.7641
12146 2 2.63474 20.8869 13.9182
405 1 1.17694 13.8962 24.1879
406 1 4.03892 13.8891 23.9673
407 1 4.15962 13.5699 26.7403
12131 2 2.5751 3.77 13.9296
409 1 6.68262 11.1797 23.7816
410 1 9.56501 10.884 23.9416
411 1 9.77791 10.9752 26.7317
412 1 6.93873 11.0171 26.467
413 1 6.7482 13.9812 23.7678
414 1 9.65299 13.712 23.9342
415 1 9.64996 13.7904 26.6473
416 1 6.83948 13.8595 26.5698
417 1 12.5679 10.7915 23.7009
418 1 12.6278 10.9528 26.4296
419 1 12.7252 13.7075 23.8345
420 1 12.4481 13.7358 26.864
421 1 1.0258 16.8083 23.6509
422 1 4.01833 16.5582 23.8496
423 1 4.22593 16.512 26.7192
424 1 1.48367 16.6705 26.4825
425 1 1.35814 19.4018 23.7826
426 1 4.24717 19.4378 23.9681
427 1 4.20847 19.4958 26.8474
428 1 1.14182 19.6646 26.4671
429 1 6.89126 16.7157 24.0056
430 1 9.50268 19.6184 26.879
431 1 9.44651 16.6253 26.9095
432 1 6.78658 16.637 26.6019
433 1 6.9565 19.5661 23.7612
434 1 9.65278 19.6052 23.9089
435 1 12.3697 22.5067 26.4455
436 1 6.72604 19.4731 26.7898
437 1 12.306 19.0846 24.1964
438 1 12.51 16.7473 26.5347
439 1 12.4595 19.7109 26.9504
15131 2 13.9889 3.92396 14.0904
441 1 1.29888 22.3002 23.8349
442 1 4.05792 22.4243 23.8206
443 1 4.17578 22.303 26.7247
444 1 1.24274 22.4684 26.897
445 1 6.73808 22.2629 23.9721
446 1 9.46847 22.4753 24.0634
447 1 9.77218 22.1973 26.846
448 1 6.78704 22.3601 26.7205
449 1 12.311 22.2923 23.7376
15152 2 13.9511 -1.68247 19.6525
12137 2 0.00739115 12.2094 14.1282
12250 2 10.9567 23.6346 25.3681
12204 2 -0.161252 1.00253 25.4402
15241 2 13.85 23.6945 22.6233
15172 2 13.6874 9.58662 19.7176
12227 2 8.44224 9.5363 25.3602
12249 2 11.121 20.7004 22.5198
12226 2 8.23746 12.625 22.5009
12225 2 5.70055 9.52808 22.6214
12244 2 -0.121835 23.62 25.202
12223 2 2.37345 9.42031 25.7849
12248 2 5.45584 23.7717 25.253
12222 2 2.56063 12.6858 22.466
12228 2 5.36945 12.2988 25.1825
15242 2 13.8696 20.6431 25.2522
12220 2 11.0081 6.68203 25.3884
12247 2 8.16197 20.8226 25.1901
12130 2 10.9865 0.932832 14.0777
12234 2 -0.148014 18.0443 25.0817
12241 2 -0.133024 20.676 22.4017
12219 2 11.0257 3.78132 22.5693
12246 2 8.16259 23.6252 22.5264
12136 2 2.75201 9.31021 13.9922
12218 2 5.53611 6.54518 25.5009
12159 2 10.9628 -1.7288 16.7522
12245 2 5.39714 20.8076 22.4591
12152 2 2.78599 0.985172 16.7919
12207 2 8.32532 -1.63209 25.2553
12243 2 2.63602 21.1255 25.3667
12139 2 5.72254 12.2054 13.8738
12156 2 8.06914 0.856044 16.9389
12216 2 8.29504 6.56118 22.54
12158 2 5.46486 0.896207 19.7179
6262 1 1.34441 16.798 18.0944
12160 2 11.0904 1.04196 19.4547
12242 2 2.61188 23.5363 22.478
12162 2 2.78134 6.58674 16.7803
12163 2 2.68585 3.74254 19.5125
12240 2 10.863 18.0319 25.6182
12165 2 5.4998 3.90406 16.8899
12166 2 8.29152 6.58258 16.843
12167 2 8.35007 3.73878 19.6516
12168 2 5.39214 6.6061 19.8143
12169 2 11.0493 3.88078 16.9206
12170 2 11.1316 6.78135 19.6766
12239 1 9.71815 16.7528 24.0331
12172 2 2.98201 12.2559 16.7131
12173 2 2.67315 9.40455 19.2803
12238 2 5.48191 17.9284 25.2253
12175 2 5.55932 9.27234 16.8234
12176 2 8.2044 12.3042 16.6847
12177 2 8.05455 9.37722 19.5523
12178 2 5.5449 12.3144 19.5954
12179 2 11.0822 9.35961 16.7901
12180 2 10.9186 12.2369 19.4891
12237 2 8.28813 15.2628 25.2214
12182 2 2.71844 17.992 16.6051
12183 2 2.73559 15.2893 19.432
12236 2 8.45208 17.9541 22.5003
12185 2 5.37624 15.3325 16.8515
12186 2 8.39476 18.0175 16.9135
12187 2 8.45125 15.2985 19.7522
12188 2 5.48865 18.008 19.6605
12189 2 11.1183 15.2167 16.7913
12190 2 11.2053 17.9446 19.7658
12235 2 5.39497 15.2292 22.4157
12192 2 2.74463 23.5992 16.7482
12193 2 2.56224 20.6684 19.6765
15211 2 13.8261 6.61554 22.4434
12195 2 5.41099 20.7426 16.7518
12196 2 8.33161 23.603 16.9346
12197 2 8.27617 20.7919 19.6574
12198 2 5.66012 23.6453 19.6779
12199 2 11.115 20.7171 16.841
12200 2 11.2558 23.7126 19.6536
12233 2 2.71298 15.0109 25.4063
12202 2 2.63524 0.925671 22.4655
12215 2 5.60772 3.7559 22.4735
12232 2 2.69166 18.0588 22.4704
12134 2 5.57733 6.58045 13.9025
12206 2 8.32268 1.0215 22.4971
12229 2 11.023 9.50953 22.3291
12208 2 5.34193 1.04964 25.3038
12217 2 8.28305 3.67999 25.3735
12210 2 10.9961 1.15444 25.4101
12230 2 11.294 12.4465 25.0691
12212 2 2.68275 6.36024 22.6937
12213 2 2.59037 3.7281 25.2988
15171 2 13.9195 12.3663 16.8286
12149 2 5.43699 23.7373 14.0848
15181 2 13.9744 18.1118 16.8477
15136 2 13.7401 9.48603 13.8591
6415 1 -0.0725911 9.70208 25.4978
408 1 1.52024 14.0597 27.5644
12144 2 5.65785 18.0116 13.9539
12181 2 -0.144555 15.1084 16.6376
12138 2 8.23903 9.26524 14.0376
15141 2 13.721 15.0364 13.9967
15222 2 13.9231 9.45438 25.2719
15201 2 13.7872 1.00315 22.4397
12148 2 8.40517 20.7623 14.0556
12171 2 -0.16304 9.4493 16.7687
12015 2 5.51831 3.77922 28.189
15232 2 13.9444 14.9479 25.4093
12191 2 -0.133855 20.7389 16.8491
12132 2 -0.125067 6.51629 14.0353
12145 2 11.036 17.9947 14.2392
12031 2 -0.111301 15.5724 27.9331
12142 2 0.030617 17.9138 14.1329
12150 2 11.2479 23.5327 14.1454
15041 2 13.8629 23.5532 27.9132
12032 2 2.62942 18.196 28.0296
12133 2 8.20273 3.65824 14.1241
12026 2 8.33061 12.3728 27.9097
451 1 1.21056 25.1076 1.25531
452 1 3.92077 25.1122 1.37591
453 1 4.10214 25.2045 3.98916
454 1 1.16258 25.2783 4.05632
455 1 6.86611 25.1034 1.30192
456 1 9.7118 25.2189 1.57496
457 1 9.5842 25.134 4.14872
458 1 6.60658 24.9794 4.29438
459 1 12.4268 27.9878 1.4861
460 1 12.5673 24.9054 4.1663
461 1 1.18571 27.8311 1.35807
462 1 4.08363 27.8785 1.21449
463 1 3.9391 27.9934 4.23184
464 1 1.18393 30.8099 4.09779
465 1 1.13517 30.7755 1.28241
466 1 4.04463 30.5854 1.42746
467 1 3.99077 30.853 4.15546
468 1 0.9378 33.661 4.08312
469 1 6.88348 27.8308 1.4492
470 1 9.55493 27.8624 1.3733
471 1 9.61997 27.9043 4.32505
472 1 6.70978 27.87 4.2102
473 1 6.99436 30.6057 1.43428
474 1 9.73113 30.6311 1.33487
475 1 9.64799 30.7233 4.25994
476 1 6.87548 30.68 4.18298
477 1 12.5745 30.8997 1.32239
478 1 12.3359 27.9389 4.36434
12279 2 11.131 37.6928 0.00850628
12255 2 5.44242 26.4299 -0.15835
481 1 1.25466 33.5962 1.30948
482 1 4.07774 33.4562 1.29044
483 1 3.74485 33.6425 4.10577
484 1 1.28092 36.5741 1.29765
485 2 2.71426 37.8158 2.75499
486 1 4.09301 36.3005 1.31438
487 1 4.18941 36.3264 4.08992
15306 2 13.9453 34.9724 5.52626
489 1 6.82915 33.448 1.31396
490 1 9.82923 33.5032 1.44479
491 1 9.45894 33.5723 4.19971
492 1 6.71239 33.3919 3.87461
493 1 6.86203 36.4316 1.55179
494 1 9.63315 36.4432 1.24412
495 1 9.90008 36.5056 4.12896
496 1 7.00336 36.3874 4.15303
497 1 12.5129 33.5733 1.29157
498 1 12.2734 33.3552 4.00622
499 1 12.6786 36.3787 1.4213
500 1 12.6943 36.495 4.24365
501 1 1.14058 39.1925 1.5145
502 1 4.0488 39.2256 1.40801
503 1 6.97136 41.994 4.01687
504 1 3.93608 39.1943 4.07399
505 1 1.40099 42.0714 1.3176
506 1 4.02483 41.9608 1.38861
507 1 6.71125 41.9933 1.60741
508 1 1.21004 42.2278 4.05233
509 1 6.9341 39.1651 1.40502
510 1 9.92422 39.2553 1.34186
511 1 9.97308 39.2656 4.19088
512 1 6.85877 39.1951 4.24513
12309 2 -0.155881 35.036 8.39828
15296 2 13.7932 29.195 5.46957
515 1 9.78469 42.1132 1.43543
516 1 9.7869 42.0059 4.25524
517 1 12.6722 39.3165 1.3439
518 1 12.677 39.3597 4.41524
519 1 12.7281 42.1088 1.21996
520 1 12.3945 42.1636 4.26774
521 1 1.22444 44.7846 1.33811
522 1 4.20393 44.791 1.30324
523 1 4.20868 44.7526 4.00695
524 1 1.19093 44.9035 4.2792
525 1 1.34687 47.5894 1.1192
526 1 4.20204 47.6078 1.5731
527 1 4.07227 47.6073 4.22325
528 1 1.22388 47.6756 3.99366
529 1 6.99579 44.8552 1.3526
530 1 9.69071 45.1374 1.41705
531 1 9.77378 44.8944 4.13211
532 1 6.85359 44.9808 4.16668
533 1 7.10989 47.876 1.20001
534 1 9.87552 48.0189 1.34139
535 1 9.71608 47.7256 4.14763
536 1 6.96199 47.8077 4.06171
537 1 12.623 45.0144 1.69477
538 1 12.4572 44.9536 4.18017
539 1 12.7335 47.8227 1.17053
540 1 12.7108 47.8006 4.18736
541 1 1.27864 25.3787 6.98362
542 1 4.19082 25.2137 7.10581
543 1 4.16603 25.0226 9.75268
544 1 1.22307 24.7798 9.77187
545 1 6.91875 24.8747 7.08133
546 1 9.65044 25.0343 7.15128
547 1 9.69214 25.2592 10.0052
548 1 6.9931 24.9915 9.62968
549 1 12.4099 25.1042 7.01672
550 1 12.3062 24.969 9.76687
551 1 1.14837 28.0188 4.49769
552 1 3.58743 27.7335 6.90463
553 1 3.99146 27.8147 9.80837
554 1 1.38371 27.5685 9.9609
12286 2 8.23547 46.3422 -0.0420243
556 1 4.27872 30.3926 7.03233
557 1 4.08697 30.7033 9.9338
558 1 1.10456 33.5113 9.84079
559 1 6.73948 27.8944 7.02713
560 1 9.72663 28.1598 6.8751
561 1 9.65962 27.8049 9.60406
562 1 6.94763 27.8759 9.91002
563 1 6.93639 30.7701 6.91683
564 1 9.66756 30.8726 7.08144
565 1 9.79454 30.7424 9.7586
566 1 6.92911 30.7177 9.76933
567 1 12.5726 27.874 7.06614
568 1 12.5243 27.8705 9.90192
569 1 12.5526 30.4626 6.85866
570 1 12.4152 30.9654 9.53391
571 1 1.16407 36.3859 6.94343
572 1 4.16918 33.3822 6.93197
573 1 4.01987 33.5974 9.82546
574 1 1.3967 33.7491 7.05466
575 1 4.00502 36.1836 7.01124
576 1 4.17648 39.263 6.91475
577 1 4.23277 36.381 9.78446
578 1 1.34651 36.4081 9.82252
579 1 6.76319 33.6021 6.84973
580 1 9.76113 33.6029 7.06236
581 1 9.78616 33.6866 9.71876
582 1 6.90922 33.6961 9.6712
583 1 6.69207 36.5214 6.95098
584 1 9.70754 36.3136 7.02609
585 1 9.54239 36.4932 9.91205
586 1 6.85637 36.3993 9.71759
587 1 12.4437 33.5861 6.82783
588 1 12.5571 33.6321 9.77584
589 1 12.4914 36.3218 7.0475
590 1 12.8102 36.3663 9.86052
591 1 1.43967 39.1746 7.01346
592 1 3.95176 42.0054 6.82118
593 1 4.04082 39.2346 9.59702
594 1 1.21204 39.354 9.86383
595 1 1.11112 41.9616 6.86459
596 1 4.11543 41.9945 4.14837
597 1 4.16071 41.9295 9.69904
598 1 1.38371 42.1387 9.63981
599 1 6.85864 39.1667 6.92886
600 1 9.77183 41.9894 6.99903
601 1 9.70337 39.1794 9.74144
602 1 6.92286 39.1561 9.7954
603 1 6.87802 41.8552 9.89197
604 1 6.82326 42.0228 6.82866
605 1 9.89259 44.8212 6.9379
606 1 9.60427 42.1863 9.78927
607 1 12.5242 39.1076 7.17716
608 1 12.4776 39.2063 9.88992
609 1 12.6812 42.1687 6.98257
610 1 12.6379 42.1284 9.67057
611 1 1.28066 44.865 6.79948
612 1 4.0331 44.7953 6.71199
613 1 4.16553 44.6092 9.62657
614 1 1.36863 44.5532 9.61479
615 1 1.28989 47.7753 6.9822
616 1 4.04681 47.5063 6.76513
617 1 4.19748 47.6502 9.70227
618 1 1.45253 47.2983 9.76963
619 1 7.02134 44.9134 7.02864
620 1 9.92753 47.7311 6.8792
621 1 9.5357 44.9758 9.5603
622 1 6.87584 44.5822 9.93265
623 1 7.0451 47.7534 6.75645
480 1 12.3663 30.6374 4.04086
625 1 9.88291 47.6265 9.55163
626 1 6.95267 47.6135 9.67693
627 1 12.7179 44.9794 6.9803
628 1 12.5749 44.7925 10.0291
629 1 12.7095 47.7811 7.0073
630 1 12.6878 47.6252 9.87822
631 1 1.2268 24.9541 12.7215
632 1 3.9195 25.2024 12.6113
633 1 6.73947 24.9012 12.4908
634 1 9.66985 24.8994 12.7345
635 1 12.6259 25.1147 12.8833
636 1 1.30371 27.9284 12.6529
637 1 4.036 28.0406 12.4941
638 1 1.32398 30.7029 9.83538
639 1 4.18563 30.8082 12.7156
640 1 6.66309 27.6858 12.6873
641 1 9.74452 27.8919 12.5691
642 1 7.10342 30.9042 12.5385
643 1 9.89951 30.7977 12.5816
644 1 12.7044 27.9354 12.7181
645 1 12.7399 30.6317 12.3813
646 1 1.41497 33.541 12.5545
647 1 4.34802 33.6059 12.5119
648 1 1.3214 36.3118 12.6324
649 1 4.16091 36.4408 12.7269
650 1 6.94653 33.7078 12.6193
651 1 9.63335 33.6107 12.636
652 1 6.86254 36.4029 12.6256
653 1 9.76312 36.4533 12.6934
654 1 12.5682 33.3634 12.4689
655 1 12.6181 36.4815 12.5304
656 1 1.30084 39.1187 12.5587
657 1 4.10223 39.1697 12.6316
658 1 1.41608 41.9686 12.4239
659 1 4.22334 42.0009 12.5237
660 1 6.8849 39.0838 12.6923
661 1 9.69133 39.2704 12.5575
662 1 7.11145 42.244 12.608
663 1 9.78495 42.0756 12.4869
664 1 12.3711 39.2631 12.6892
665 1 12.5967 42.076 12.5744
666 1 1.36774 44.6483 12.507
667 1 4.36957 44.9226 12.5042
668 1 1.31266 47.5666 12.5548
669 1 4.0649 47.5738 12.6844
670 1 7.21822 45.0004 12.5694
671 1 9.82431 44.9329 12.5877
672 1 6.98831 47.7812 12.6645
673 1 9.77201 47.6714 12.6132
674 1 12.6761 44.7982 12.579
675 1 12.7075 47.6027 12.7015
12363 2 11.2169 49.0602 11.1479
12262 2 2.70188 34.8939 -0.00317958
12253 2 2.77497 26.7072 2.70722
12362 2 5.37765 49.0202 11.2552
488 1 1.16569 39.3131 4.32784
12347 2 2.82032 34.8734 11.2705
12257 2 8.1848 26.4247 2.81989
12258 2 5.47969 29.2544 2.7547
15297 2 14.0515 26.4079 8.31658
12260 2 10.9131 29.2821 2.96684
89 1 12.3973 24.9787 1.2634
12275 2 5.56227 37.8709 -0.0436998
12263 2 2.49145 32.0787 2.86035
12360 2 11.3007 43.1795 11.0877
15351 2 13.8728 40.5761 11.1943
12345 2 11.1941 26.4649 11.2236
12267 2 8.35401 32.0181 2.73198
12268 2 5.38727 34.8403 2.79226
12259 2 10.9514 26.573 -0.0577571
12270 2 11.3451 34.9221 2.63008
12359 2 8.58339 46.1613 11.2398
12383 2 11.1213 46.2395 13.8398
12273 2 5.46729 37.6871 5.45375
12358 2 5.65977 43.3226 11.1996
12254 2 -0.187438 29.2827 2.62821
12269 2 11.2283 32.1361 -0.175796
12277 2 8.38457 37.8455 2.88743
12278 2 5.46232 40.5836 2.70185
12344 2 8.3733 29.1741 11.2882
12280 2 11.2461 40.6811 2.84938
12350 2 11.1688 32.1699 11.0803
12343 2 5.39207 26.407 11.2498
12283 2 2.73894 43.2961 2.76732
15251 2 13.8853 29.2675 0.0379085
12349 2 8.36975 34.942 11.2255
12276 2 8.34616 40.4261 -0.0941409
12287 2 8.18009 43.5788 2.95513
12288 2 5.67195 46.3907 2.72349
6645 1 1.2524 30.7346 12.6147
12290 2 11.2399 46.5193 2.66789
12348 2 5.54051 32.1678 11.1537
12292 2 2.59139 48.9943 2.81446
12352 2 2.83733 40.5768 11.1219
12294 2 8.47579 49.1514 2.77228
12289 2 11.0035 43.7026 0.160148
12357 2 2.86624 45.9802 10.948
12297 2 2.44706 29.451 5.59883
12298 2 2.69698 26.2724 8.47172
12299 1 1.34555 31.1502 6.73642
12300 2 5.37833 26.4378 5.56708
12301 2 8.0506 29.3375 5.64376
12302 2 8.47511 26.367 8.47806
12303 2 5.33531 29.2666 8.52501
12304 2 11.0189 26.4309 5.75882
12305 2 10.8809 29.2379 8.38042
15336 2 14.08 49.0831 8.3872
12307 2 2.70714 34.9477 5.60074
12308 2 2.55406 32.1352 8.33452
12355 2 11.0608 37.8497 11.1891
12310 2 5.451 31.9912 5.60893
12311 2 8.30467 34.9096 5.53039
12312 2 8.31343 32.2588 8.31693
12313 2 5.41921 34.9833 8.37283
12314 2 11.1735 32.1124 5.65847
12315 2 11.2132 35.1168 8.32147