LAMMPS data file via write_data, version 29 Oct 2020, timestep = 100000

18000 atoms
4 atom types

-0.15187395371921938 28.045873953719255 xlo xhi
-1.7255279383277056 336.4535279383293 ylo yhi
-0.16515678647444598 28.059156786474443 zlo zhi
0.0 0.0 0.0 xy xz yz

Masses

1 15.9994
2 232.0381
3 15.9994
4 232.0381

Atoms # full

1 0 1 -1.1104 1.2741429150666963 -0.5249214561619755 1.1382244449680734 0 0 0
2 0 1 -1.1104 3.945028716436458 -0.4431678893476454 1.3520346452581624 0 0 0
3 0 1 -1.1104 4.2209972083577405 -0.49058216824006484 4.080778834878526 0 0 0
4 0 1 -1.1104 1.374519859023407 -0.5086603879076295 4.023923227172628 0 0 0
5 0 1 -1.1104 1.1155614217198455 2.3206058364647717 1.1129571180344227 0 0 0
6 0 1 -1.1104 4.085645468731856 2.336318427759367 1.1200290781800522 0 0 0
7 0 1 -1.1104 4.1534927101921575 2.372366890057359 3.9885269017497684 0 0 0
8 0 1 -1.1104 1.4994416500620302 2.4074663203073854 4.074040418224619 0 0 0
9 0 1 -1.1104 6.660060339066002 -0.20606944350080125 1.0152463416560662 0 0 0
10 0 1 -1.1104 9.699137521655699 -0.6175806806617499 1.350638585573552 0 0 0
11 0 1 -1.1104 9.778988123618477 -0.26166094590574357 4.0356771494162125 0 0 0
12 0 1 -1.1104 7.081381149070081 -0.18182963743496638 3.829543912195974 0 0 0
13 0 1 -1.1104 7.002594655395442 2.4458014313559078 1.3005835607080363 0 0 0
14 0 1 -1.1104 9.938173937342043 2.3383600271303076 1.1780360254274662 0 0 0
15 0 1 -1.1104 9.946499674581037 2.570877719071375 3.999704816864703 0 0 0
16 0 1 -1.1104 7.066475309867381 2.7202775855205807 3.9542811400397113 0 0 0
17 0 1 -1.1104 12.317550546562174 -0.3558337470243387 1.287354455690999 0 0 0
18 0 1 -1.1104 12.39544433520207 -0.36084399901744957 4.01665053060794 0 0 0
19 0 1 -1.1104 12.740859566198894 2.446286804277099 1.2388579378772688 0 0 0
20 0 1 -1.1104 12.644467231583407 2.523144467750326 4.182418570674464 0 0 0
21 0 1 -1.1104 1.2640676041701702 5.098846423410856 1.0359396748464322 0 0 0
22 0 1 -1.1104 4.126080086058296 5.077161124769107 1.3053753743039211 0 0 0
23 0 1 -1.1104 4.217439330729509 5.384983159254136 3.9144766971402185 0 0 0
24 0 1 -1.1104 1.4178432876107707 5.215230335620136 3.9526166051257863 0 0 0
25 0 1 -1.1104 1.2232727057411699 8.01662194157472 1.2532010110445289 0 0 0
26 0 1 -1.1104 3.9937922527387526 7.955892290992037 0.9600230426880831 0 0 0
27 0 1 -1.1104 4.159328341710013 8.16630295010718 3.828229062177528 0 0 0
28 0 1 -1.1104 1.258866121714329 7.890396343590045 3.993610971268058 0 0 0
29 0 1 -1.1104 6.97039390016205 5.347002945314331 1.1331416462358408 0 0 0
30 0 1 -1.1104 9.809875980882369 5.311656050188973 1.1107432095707035 0 0 0
31 0 1 -1.1104 9.808041187215844 5.272066710577643 4.0416054698966155 0 0 0
32 0 1 -1.1104 6.955373652194424 5.335557742707392 3.99021561670954 0 0 0
33 0 1 -1.1104 7.070675403558751 8.079388083757703 1.1262462141622087 0 0 0
34 0 1 -1.1104 9.826838366660427 7.997685098926563 0.9419069665404496 0 0 0
35 0 1 -1.1104 9.780838625235114 8.056685980553512 3.780107846098637 0 0 0
36 0 1 -1.1104 6.865613595853094 8.030210259061226 4.052847387998676 0 0 0
37 0 1 -1.1104 12.655501175533848 5.270435723155979 1.2382795063130836 0 0 0
38 0 1 -1.1104 12.77994323152488 5.183191596461146 4.009415382909529 0 0 0
39 0 1 -1.1104 12.64803820677151 7.996011830779616 1.1869850508145736 0 0 0
40 0 1 -1.1104 12.849521961011567 8.077658747918113 4.049437675552357 0 0 0
41 0 1 -1.1104 1.1290078458971784 10.900301816202946 1.0980067337705928 0 0 0
42 0 1 -1.1104 3.84454172007877 10.792553522132112 1.2704858666834686 0 0 0
43 0 1 -1.1104 4.0263979444104345 10.981213947128033 3.863892424256384 0 0 0
44 0 1 -1.1104 1.2294878605924688 10.797514705401397 3.993911607669371 0 0 0
45 0 1 -1.1104 1.360009100308358 13.873812171123351 0.9396443607688576 0 0 0
46 0 1 -1.1104 4.143091763790532 13.557736426628164 0.9722387764204317 0 0 0
47 0 1 -1.1104 4.108048828537312 13.732268714274932 3.932650581693645 0 0 0
48 0 1 -1.1104 1.1707550045320922 13.537695686749215 3.8229647466039856 0 0 0
49 0 1 -1.1104 6.786482129123686 10.99996611178754 0.8967257254813992 0 0 0
50 0 1 -1.1104 9.95328487117672 10.830967993231097 1.1429608719103828 0 0 0
51 0 1 -1.1104 9.732635690924383 10.764609569546959 3.9151255932430904 0 0 0
52 0 1 -1.1104 6.886651703309989 10.80815853918036 3.762753901161009 0 0 0
53 0 1 -1.1104 6.948832522720662 13.649383128556545 1.0647539667846362 0 0 0
54 0 1 -1.1104 9.669707025252462 13.607647632946264 0.9346176712225944 0 0 0
55 0 1 -1.1104 9.733931255102659 13.6282159631415 3.775444204151459 0 0 0
56 0 1 -1.1104 6.9841169857491385 13.528821416063563 3.802244820227892 0 0 0
57 0 1 -1.1104 12.546180443467241 10.970736643144564 1.0324083495692962 0 0 0
58 0 1 -1.1104 12.466322593480825 10.75283561807115 3.7943861265273444 0 0 0
59 0 1 -1.1104 12.53756108507525 13.773378973207949 1.1590273710257544 0 0 0
60 0 1 -1.1104 12.74409685957423 13.470192560195587 3.9772710739676227 0 0 0
61 0 1 -1.1104 1.3484338588718048 16.72237957150246 1.2257848533553803 0 0 0
62 0 1 -1.1104 4.124608144604107 16.508222402180753 1.1926122585811691 0 0 0
63 0 1 -1.1104 3.9537509386262046 16.389675879294053 3.7942352913121993 0 0 0
64 0 1 -1.1104 1.0558766767263394 16.444525398353637 3.8698007350479315 0 0 0
65 0 1 -1.1104 1.3096271778232231 19.272061399412717 1.1668883374217838 0 0 0
66 0 1 -1.1104 4.260432858627217 19.24804586312278 0.9847275668983689 0 0 0
67 0 1 -1.1104 4.0967893841973995 19.158461302607705 3.949748461840517 0 0 0
68 0 1 -1.1104 1.22472414310045 19.30175273570545 3.92093298437145 0 0 0
69 0 1 -1.1104 6.804874062851085 16.57179978658217 0.9603451865399586 0 0 0
70 0 1 -1.1104 9.687620259665287 16.44421176855293 0.97769221010276 0 0 0
71 0 1 -1.1104 9.642068464305513 19.440860650408123 4.0747573644197175 0 0 0
72 0 1 -1.1104 6.798335947282932 16.50083254282918 4.028394787520157 0 0 0
73 0 1 -1.1104 7.1226030797244215 19.428327864284658 1.1016350549471914 0 0 0
74 0 1 -1.1104 9.994658748507833 19.219056210040378 1.1289752177608394 0 0 0
75 0 1 -1.1104 9.727513022358377 22.26532901631693 3.868085088584515 0 0 0
76 0 1 -1.1104 6.883417019348363 19.441388726167194 3.849550324265994 0 0 0
77 0 1 -1.1104 12.352606858192594 16.690246749250228 0.8396511934637454 0 0 0
78 0 1 -1.1104 9.625026198850014 16.625741588812694 3.8420910566229587 0 0 0
79 0 1 -1.1104 13.184722610900698 19.468006643547813 0.7551672178606703 0 0 0
80 0 1 -1.1104 12.27184112738489 19.430703939294915 3.7589721463375563 0 0 0
81 0 1 -1.1104 1.2387389943868028 22.111204140586878 1.0592045501168543 0 0 0
82 0 1 -1.1104 4.186313645154833 22.331625485317854 0.9666152820000133 0 0 0
83 0 1 -1.1104 4.211609541389597 22.214552872186864 3.840045132257718 0 0 0
84 0 1 -1.1104 1.3169381227644 22.159667586744714 3.839497325017132 0 0 0
85 0 1 -1.1104 7.119600247708411 22.21607443652036 0.9193189515409912 0 0 0
12074 0 2 2.2208 -0.06371150139853611 12.095404949163429 8.22448646284676 0 0 0
87 0 1 -1.1104 9.6891381242113 22.22833664882451 0.9743386714551054 0 0 0
88 0 1 -1.1104 7.039957036735998 22.115735623068307 3.7768934425223843 0 0 0
89 0 1 -1.1104 12.440766634998202 22.27907527430886 1.0734456305088635 0 0 0
90 0 1 -1.1104 12.599332791458888 22.14365674029309 3.9074264411691453 0 0 0
91 0 1 -1.1104 1.3061062413260829 -0.5083854889071366 6.884721958630268 0 0 0
92 0 1 -1.1104 4.017238461728995 -0.46400541248056404 6.773201478502803 0 0 0
93 0 1 -1.1104 3.994619130935893 -0.4656308708781325 9.574363823627477 0 0 0
94 0 1 -1.1104 1.1477305418579125 -0.5395864025019667 9.715361356655261 0 0 0
95 0 1 -1.1104 1.3519506253070204 2.255693136052434 6.849833246020136 0 0 0
96 0 1 -1.1104 4.162638579327193 2.3657040677902366 6.831907191486237 0 0 0
97 0 1 -1.1104 4.107626716992193 2.3060881843929577 9.727351837796583 0 0 0
98 0 1 -1.1104 1.225681590698289 2.3660070566873395 9.559409263264646 0 0 0
99 0 1 -1.1104 6.818395040609251 -0.29318464251533866 6.721365888638021 0 0 0
100 0 1 -1.1104 9.49256857145214 -0.36115571469836527 6.73378671217371 0 0 0
101 0 1 -1.1104 9.798494555614933 -0.5759175646730891 9.66563680275863 0 0 0
102 0 1 -1.1104 6.832929240468185 -0.2189036484953747 9.714415155691063 0 0 0
103 0 1 -1.1104 7.048652657147561 2.5690682739623085 6.709473049354115 0 0 0
104 0 1 -1.1104 9.769378534507553 2.4379059426806586 6.912890313717156 0 0 0
105 0 1 -1.1104 9.68856512435658 2.4585725489860195 9.647889888072518 0 0 0
106 0 1 -1.1104 6.959769581137062 2.237397281380573 9.63663429860666 0 0 0
107 0 1 -1.1104 12.686325215534847 -0.25440276549275337 6.662014797009273 0 0 0
108 0 1 -1.1104 12.542478563653365 -0.21266643838978128 9.584627051433797 0 0 0
109 0 1 -1.1104 12.68360704073298 2.5560748975969263 6.919336727401659 0 0 0
110 0 1 -1.1104 12.511091011417143 2.3731521987331696 9.592650785765354 0 0 0
111 0 1 -1.1104 1.3953157309562607 5.306847567671193 6.96531380775438 0 0 0
112 0 1 -1.1104 4.261473024924761 5.207748491675792 6.798897696152262 0 0 0
113 0 1 -1.1104 4.238958746750974 5.272402070699022 9.719205223989109 0 0 0
114 0 1 -1.1104 1.3935733629223226 5.088304613143719 9.678502323518602 0 0 0
115 0 1 -1.1104 1.4125746398547738 8.012094171164241 6.872914091691657 0 0 0
116 0 1 -1.1104 4.256652611358949 8.145263127583252 6.939610633220189 0 0 0
117 0 1 -1.1104 4.25180525022003 8.029498947819352 9.489869164347434 0 0 0
118 0 1 -1.1104 1.4750468281499776 7.998994823513844 9.715492660754187 0 0 0
119 0 1 -1.1104 6.999956435125709 5.216222362153748 6.854978595041859 0 0 0
120 0 1 -1.1104 9.849501707183796 5.159203601871197 6.902770957178311 0 0 0
121 0 1 -1.1104 9.795680869300076 5.284296095197613 9.727360836955919 0 0 0
122 0 1 -1.1104 7.110573721362477 5.096562051365397 9.611861704632176 0 0 0
123 0 1 -1.1104 7.284116863809652 8.104251632558956 6.636838255264684 0 0 0
124 0 1 -1.1104 9.953802666570883 7.995726901931428 6.719284438077306 0 0 0
125 0 1 -1.1104 9.824172486953316 8.22653351319837 9.704104383085339 0 0 0
126 0 1 -1.1104 7.109566112688603 7.899395697004368 9.716983972700056 0 0 0
127 0 1 -1.1104 12.54381751005121 5.585051900248031 6.711947225199359 0 0 0
128 0 1 -1.1104 12.597705123215551 5.204642428009574 9.488977974526616 0 0 0
129 0 1 -1.1104 12.650287866611354 8.212309450106002 6.814465438098057 0 0 0
130 0 1 -1.1104 12.577427108002258 8.046492202847643 9.656622806183321 0 0 0
131 0 1 -1.1104 1.3021517983131534 10.691260313853409 6.896015238266742 0 0 0
132 0 1 -1.1104 4.078546514242843 10.714912494395609 6.74671503434758 0 0 0
133 0 1 -1.1104 4.194256366042279 10.958730812897134 9.576908954503896 0 0 0
134 0 1 -1.1104 1.4126705633732468 10.860834411287504 9.681752876755562 0 0 0
135 0 1 -1.1104 1.2758611724549112 13.57143881229659 6.730186649866293 0 0 0
136 0 1 -1.1104 4.363542167437626 13.517583686295858 6.880743506440672 0 0 0
137 0 1 -1.1104 4.28070263089259 13.741756295002574 9.610814562199607 0 0 0
138 0 1 -1.1104 1.3492172215519531 13.554198318672217 9.6592352034693 0 0 0
139 0 1 -1.1104 6.890923236179263 10.766352492159179 6.780686549441283 0 0 0
140 0 1 -1.1104 9.762069244741093 10.941389753149105 6.749701308316232 0 0 0
141 0 1 -1.1104 9.588389087109668 11.137259354348545 9.445447056548831 0 0 0
142 0 1 -1.1104 6.852207377657016 10.811465779149271 9.541845139447332 0 0 0
143 0 1 -1.1104 7.08495102130737 13.508389984982859 6.627619620155644 0 0 0
144 0 1 -1.1104 9.74797491598006 13.743153833576987 6.502552123828745 0 0 0
145 0 1 -1.1104 9.886134906988813 13.751898232016316 9.553047860924712 0 0 0
146 0 1 -1.1104 6.900049015357212 13.912280683608126 9.449331217393235 0 0 0
147 0 1 -1.1104 12.522881296015912 11.066520542957583 6.7919490008092644 0 0 0
148 0 1 -1.1104 12.519076887493782 10.987258679032154 9.58750977688064 0 0 0
149 0 1 -1.1104 12.621819225497095 13.787432951760293 6.665265040430687 0 0 0
150 0 1 -1.1104 12.587902878703167 13.812430943151856 9.543856281509397 0 0 0
151 0 1 -1.1104 1.2601096034459827 16.263558812731247 6.6267755494510965 0 0 0
152 0 1 -1.1104 3.956034995497288 16.566262654623596 6.566070284602408 0 0 0
153 0 1 -1.1104 4.203096570385845 16.51705347053213 9.48827393148658 0 0 0
154 0 1 -1.1104 1.4845398594079469 16.515265490748412 9.586153660941081 0 0 0
155 0 1 -1.1104 1.1831989721500007 19.377653125038965 6.686159207551302 0 0 0
156 0 1 -1.1104 3.9747754006023137 19.368248429731047 6.6839536327556885 0 0 0
157 0 1 -1.1104 3.842575360154743 19.23077454857245 9.393451095370473 0 0 0
158 0 1 -1.1104 1.1516880915221042 19.23532980586937 9.551550301961845 0 0 0
159 0 1 -1.1104 6.771972506254197 16.503163662825656 6.74660582464003 0 0 0
160 0 1 -1.1104 9.745252252691339 16.686426281337642 6.795487688687167 0 0 0
161 0 1 -1.1104 9.684881182150743 16.402277115856116 9.599884536204472 0 0 0
162 0 1 -1.1104 7.030940814028298 16.555609521816816 9.57634941215677 0 0 0
163 0 1 -1.1104 6.884096978428108 19.303713150370314 6.737277646967623 0 0 0
164 0 1 -1.1104 9.73231971882423 19.626054414295695 6.9096626927833364 0 0 0
165 0 1 -1.1104 9.552395590486613 19.39512657101401 9.646239980959056 0 0 0
166 0 1 -1.1104 6.946949261953984 19.424896412758322 9.56776206739729 0 0 0
167 0 1 -1.1104 12.545131377142438 16.64111556410684 6.384804385538882 0 0 0
168 0 1 -1.1104 12.638148830160148 16.57449220989795 9.374439322384463 0 0 0
169 0 1 -1.1104 12.393351887407794 19.42691135583982 6.801983468308456 0 0 0
170 0 1 -1.1104 12.470585068061109 19.34519580201397 9.544105447084617 0 0 0
171 0 1 -1.1104 1.0994617121961066 22.230058407108384 6.531432722622902 0 0 0
172 0 1 -1.1104 4.083215703126554 22.107747306683596 6.6869307739084665 0 0 0
173 0 1 -1.1104 3.990874210832012 22.08179429196941 9.707549275016369 0 0 0
174 0 1 -1.1104 1.4010839225765168 22.05333805836894 9.527699640176726 0 0 0
175 0 1 -1.1104 6.742158355384535 22.197261428156988 6.632381994307493 0 0 0
176 0 1 -1.1104 9.59090874630524 22.174838015397167 6.621204532829098 0 0 0
177 0 1 -1.1104 9.645183203427363 22.16255740653217 9.404274002029249 0 0 0
178 0 1 -1.1104 6.842157736570401 22.280450175052113 9.413102580122443 0 0 0
179 0 1 -1.1104 12.40191007689558 22.09638306026438 6.7113510642918515 0 0 0
180 0 1 -1.1104 12.414668936331429 22.116943486973984 9.607444273907602 0 0 0
181 0 1 -1.1104 1.346656308731713 -0.3861324901430136 12.424944914342063 0 0 0
182 0 1 -1.1104 4.054792985901472 -0.4460027131655575 12.331618842284348 0 0 0
183 0 1 -1.1104 1.423022157069686 2.5018043950420923 12.388171201715044 0 0 0
184 0 1 -1.1104 4.31601299047051 2.4722869021978893 12.543175394986397 0 0 0
185 0 1 -1.1104 6.940932171089734 -0.3303448222784194 12.458809049576445 0 0 0
186 0 1 -1.1104 9.846407777051926 -0.5400614647195091 12.332224905492774 0 0 0
187 0 1 -1.1104 7.079710838629505 2.271834045951958 12.504325942221818 0 0 0
188 0 1 -1.1104 9.805792442761502 2.424409587645699 12.457525629954132 0 0 0
189 0 1 -1.1104 12.730417241936205 -0.26393803848076297 12.289288514921253 0 0 0
190 0 1 -1.1104 12.666277846600641 2.5727108089428854 12.370491714406242 0 0 0
191 0 1 -1.1104 1.2708728161481633 5.341244061864271 12.48768960354087 0 0 0
192 0 1 -1.1104 4.1639562291837215 5.284232905577423 12.484002577444068 0 0 0
193 0 1 -1.1104 1.5415242060690055 8.030300218796677 12.492029097694415 0 0 0
194 0 1 -1.1104 4.29680380767038 8.120046690644418 12.43523579565515 0 0 0
195 0 1 -1.1104 7.051563234598319 5.119997158069517 12.53799225726451 0 0 0
196 0 1 -1.1104 9.701572670447 5.212924731082329 12.58503103270916 0 0 0
197 0 1 -1.1104 6.961247504012894 8.00678134556436 12.556649778535183 0 0 0
198 0 1 -1.1104 9.812294572626143 8.059658227943325 12.149950879627045 0 0 0
199 0 1 -1.1104 12.604827360983311 5.326749210670896 12.337420610627628 0 0 0
200 0 1 -1.1104 12.625630823884308 8.136614014025307 12.548465758473808 0 0 0
201 0 1 -1.1104 1.394736358428975 10.897898651611687 12.454398547379354 0 0 0
202 0 1 -1.1104 4.2121349707384494 10.953798605137626 12.441987254482683 0 0 0
203 0 1 -1.1104 1.2718784877652032 13.732649521484985 12.611383620124467 0 0 0
204 0 1 -1.1104 3.9954107566062635 13.55483917198217 12.478982967115533 0 0 0
205 0 1 -1.1104 7.041172293844789 10.89212473508655 12.330119714988001 0 0 0
206 0 1 -1.1104 9.897891041631672 10.731491549378248 12.32403311197904 0 0 0
207 0 1 -1.1104 6.928968662375997 13.728118406666574 12.342382112827003 0 0 0
208 0 1 -1.1104 9.65779594776218 13.518684966956336 12.655666820902919 0 0 0
209 0 1 -1.1104 12.667473783929857 11.132218185486332 12.435450260787595 0 0 0
210 0 1 -1.1104 12.545162735838046 13.978641040321886 12.426616002812809 0 0 0
211 0 1 -1.1104 1.5065364202948754 16.428509627999865 12.51324811386598 0 0 0
212 0 1 -1.1104 4.344728021452063 16.39243224662358 12.400249157514569 0 0 0
213 0 1 -1.1104 1.1860835487315582 19.24552545151354 12.37765484498792 0 0 0
214 0 1 -1.1104 4.127483489413249 19.157713734174692 12.292980742226506 0 0 0
215 0 1 -1.1104 6.940697009132555 16.538628082130238 12.347917447973161 0 0 0
216 0 1 -1.1104 9.792149457141457 16.4601047414456 12.398859135560254 0 0 0
217 0 1 -1.1104 6.853433819831932 19.288284986012563 12.45577407050958 0 0 0
218 0 1 -1.1104 9.653925340651806 19.266772427197754 12.352558398360873 0 0 0
219 0 1 -1.1104 12.41344842652914 16.735246330092444 12.189137251684363 0 0 0
220 0 1 -1.1104 12.619431964087036 19.447129505902808 12.280624509978958 0 0 0
221 0 1 -1.1104 1.2884274224433079 21.9980497315459 12.527176055318328 0 0 0
222 0 1 -1.1104 3.9244268159148 21.93138500159973 12.407255578309227 0 0 0
223 0 1 -1.1104 6.86932388470051 22.21724129837388 12.26572277639862 0 0 0
224 0 1 -1.1104 9.809539024007819 22.140796066508198 12.290613651348806 0 0 0
225 0 1 -1.1104 12.618947845524849 22.213745626017133 12.553437045941283 0 0 0
12024 0 2 2.2208 -0.11505004773393647 12.237520097162013 2.476331400685696 0 0 0
12132 0 2 2.2208 -0.10334396517127038 6.681524443434054 13.881160272702344 0 0 0
12081 0 2 2.2208 -0.14734101912450984 15.041020285729195 5.266171344181606 0 0 0
12149 0 2 2.2208 5.4393982491646735 23.410829457733648 13.786677734469702 0 0 0
12127 0 2 2.2208 -0.04746194421673568 0.9189134043902494 13.802233285268201 0 0 0
12148 0 2 2.2208 8.354498744828298 20.824508894322538 13.652429044998318 0 0 0
12130 0 2 2.2208 11.223341640488561 0.9680416291082631 13.622596852023884 0 0 0
12008 0 2 2.2208 5.505741462733049 0.9734146544501997 2.640363560360945 0 0 0
12131 0 2 2.2208 2.7529598580492904 3.872455292144875 13.874079199989152 0 0 0
12010 0 2 2.2208 11.065554798696036 1.0983211816814413 2.652658083464752 0 0 0
12125 0 2 2.2208 11.157570476046155 20.725942794435884 10.970028792424797 0 0 0
12145 0 2 2.2208 10.961222034277299 18.03707026181824 13.630737616844014 0 0 0
12013 0 2 2.2208 2.750307624007387 3.6942519615575353 2.5954493929567297 0 0 0
12124 0 2 2.2208 8.554348053657487 23.579764630726075 10.807738305868467 0 0 0
12133 0 2 2.2208 8.272998819686523 3.6679299181540936 13.88874400170541 0 0 0
12146 0 2 2.2208 2.5595462454011524 20.69171561379882 13.809233720724363 0 0 0
12017 0 2 2.2208 8.396586531821184 3.8744449311795504 2.493578530889832 0 0 0
12018 0 2 2.2208 5.506528366546896 6.681730670691636 2.5397125236236877 0 0 0
12147 0 2 2.2208 -0.07328009126646577 23.6843439253648 13.703096875419122 0 0 0
12020 0 2 2.2208 11.183819362617594 6.689042551035821 2.5137736678635583 0 0 0
12113 0 2 2.2208 5.702381907866405 9.546961988150729 11.031255061998678 0 0 0
12104 0 2 2.2208 8.446944696263277 0.9086639872569722 11.079309604200501 0 0 0
12023 0 2 2.2208 2.7186714281257447 9.517020441723277 2.5680213423355354 0 0 0
12134 0 2 2.2208 5.5073366798568975 6.618055834865722 13.795708077407367 0 0 0
12144 0 2 2.2208 5.472495150542886 17.843306275485535 13.82097779661094 0 0 0
12107 0 2 2.2208 2.865324653852737 6.657142497992113 11.053234060446615 0 0 0
12027 0 2 2.2208 8.466351603900131 9.355210687155921 2.5904300485716845 0 0 0
12028 0 2 2.2208 5.450842658126641 12.289739807578295 2.439935506116982 0 0 0
12141 0 2 2.2208 2.8209685950024896 15.076851913399265 13.936543671170465 0 0 0
12030 0 2 2.2208 11.298398214984406 12.302001794560073 2.5171286450994814 0 0 0
12102 0 2 2.2208 2.565622120160276 0.9105878534137652 10.869600346810083 0 0 0
12114 0 2 2.2208 8.321872109793004 12.227087625109911 11.06424337499809 0 0 0
12033 0 2 2.2208 2.6439223352520456 15.217551935038772 2.52140636370015 0 0 0
12084 0 2 2.2208 -0.10554667702163782 17.71674098210391 8.116045034860987 0 0 0
12100 0 2 2.2208 11.207464810078173 23.508453380903205 8.064709947974274 0 0 0
12099 0 2 2.2208 11.14479604797804 20.815496206374505 5.2826458971185195 0 0 0
12037 0 2 2.2208 8.242385400591214 15.091832998384392 2.412618584627111 0 0 0
12038 0 2 2.2208 5.393281176005103 17.872898205579485 2.5861899265778563 0 0 0
12098 0 2 2.2208 5.452093430021911 23.6555850383083 8.158416017901304 0 0 0
12040 0 2 2.2208 11.103815738804414 17.915361735040392 2.4237972812274866 0 0 0
12097 0 2 2.2208 8.22422294926882 20.842003467232043 8.05487260935558 0 0 0
12004 0 2 2.2208 -0.11029081288058895 0.8226673405389875 2.6855334574463288 0 0 0
12043 0 2 2.2208 2.6698167513192512 20.80058084841665 2.5058807121992834 0 0 0
12123 0 2 2.2208 5.440718923811245 20.67147905999314 10.820020682838528 0 0 0
12096 0 2 2.2208 8.196755802603256 23.656421767797074 5.291177958376614 0 0 0
12095 0 2 2.2208 5.489675860708195 20.92072678953656 5.26940511749434 0 0 0
12047 0 2 2.2208 8.491729060479118 20.687507453122365 2.5691563616544446 0 0 0
12048 0 2 2.2208 5.509519168106891 23.46823147140618 2.390503880946153 0 0 0
12115 0 2 2.2208 11.184401505866845 9.48649223217175 10.933942473752882 0 0 0
12050 0 2 2.2208 11.204470091920957 23.559366028861547 2.693404296794015 0 0 0
15091 0 2 2.2208 13.88521329654827 23.692993668887553 5.17749812756599 0 0 0
12052 0 2 2.2208 2.667555817642936 0.779848904165757 5.422141503939807 0 0 0
12112 0 2 2.2208 2.7079826125413304 12.42535383282234 11.182758148782236 0 0 0
12122 0 2 2.2208 2.690822278816431 23.397185769356227 11.067035815282367 0 0 0
12110 0 2 2.2208 11.241025500415303 3.825532116090838 10.934984797973891 0 0 0
12056 0 2 2.2208 8.37495253235393 1.1756875662784834 5.288143124692603 0 0 0
12109 0 2 2.2208 8.408117946075238 6.696280987329232 11.129226195798868 0 0 0
12058 0 2 2.2208 5.504792232667388 0.891788528536302 8.200436651500736 0 0 0
12108 0 2 2.2208 5.67102361408718 3.78934952997552 11.021534408803433 0 0 0
12060 0 2 2.2208 11.19167101647918 0.9520494636506208 8.228292369756396 0 0 0
12120 0 2 2.2208 11.247208844572024 15.127386343602673 10.840139429241772 0 0 0
12062 0 2 2.2208 2.8654368556371215 6.6011389864369985 5.354886502095232 0 0 0
12063 0 2 2.2208 2.7505802905912056 3.751827903464824 8.256777695689305 0 0 0
12119 0 2 2.2208 8.161213546751517 18.011597179576693 11.024822544687888 0 0 0
12065 0 2 2.2208 5.405547468276662 3.900315516213913 5.379124449535319 0 0 0
12066 0 2 2.2208 8.37758449782563 6.643298335960091 5.366553648078388 0 0 0
12067 0 2 2.2208 8.336746110698607 3.746973843190037 8.195560116002294 0 0 0
12068 0 2 2.2208 5.575830150957663 6.641222618734788 8.307276364529212 0 0 0
12069 0 2 2.2208 11.3588810327086 3.8902552945983193 5.366570008848497 0 0 0
12070 0 2 2.2208 11.133202946323998 6.518566351283002 8.263643884540597 0 0 0
12129 0 2 2.2208 5.546828055232102 0.9390398382342349 13.823392243829957 0 0 0
12072 0 2 2.2208 2.660315518734977 12.106508522073927 5.474995389763939 0 0 0
12073 0 2 2.2208 2.7828902837764478 9.350201236621954 8.302640955319376 0 0 0
12118 0 2 2.2208 5.569022237275294 15.080635770174561 10.87613565772505 0 0 0
12075 0 2 2.2208 5.538705397763389 9.464042685647803 5.320963348848127 0 0 0
12076 0 2 2.2208 8.482766020988722 12.201302268289998 5.35680138336439 0 0 0
12077 0 2 2.2208 8.416240287845826 9.367225568020423 8.055806723893106 0 0 0
12078 0 2 2.2208 5.547522736772423 12.186451418646513 8.217284901303064 0 0 0
12079 0 2 2.2208 11.143524820244378 9.413572035032004 5.405027163127685 0 0 0
12080 0 2 2.2208 11.211129281537533 12.37367413693487 8.150254832096067 0 0 0
12135 0 2 2.2208 11.161089514560867 6.4677764093472705 13.779457100601519 0 0 0
12082 0 2 2.2208 2.5278839484260613 17.8350778438285 5.294723019412348 0 0 0
12083 0 2 2.2208 2.6968872677981004 14.98989201313878 8.143519709578515 0 0 0
12117 0 2 2.2208 2.863965266675545 17.903927056743306 11.00422545598063 0 0 0
12085 0 2 2.2208 5.603159763265583 15.037638712632086 5.360941578907198 0 0 0
12086 0 2 2.2208 8.310814058970388 18.03694256079128 5.475257346892646 0 0 0
12087 0 2 2.2208 8.302739787035387 15.107057902540342 8.05958837932927 0 0 0
12088 0 2 2.2208 5.307269517776901 18.006263128076096 8.011835307126042 0 0 0
12089 0 2 2.2208 11.285053412735293 14.978432294146193 5.2110596565540614 0 0 0
12090 0 2 2.2208 10.9077194768499 18.106951435655372 8.218498654463655 0 0 0
12150 0 2 2.2208 11.04980157751542 23.52793712871427 13.881432526769347 0 0 0
12092 0 2 2.2208 2.642789766734481 23.658990341873405 5.415548110261235 0 0 0
12093 0 2 2.2208 2.5302587553546956 20.63789496397141 8.189134925325238 0 0 0
6062 0 1 -1.1104 12.372847085934161 16.35683892346718 3.554530117422124 0 0 0
12143 0 2 2.2208 8.421397670582184 15.139012221157978 13.695421437402638 0 0 0
12014 0 2 2.2208 -0.027184323140821875 6.563466468956302 2.6021004466087465 0 0 0
12044 0 2 2.2208 -0.13395334580933543 23.483693571260215 2.4907890344652572 0 0 0
12138 0 2 2.2208 8.462600359760495 9.365006007936135 13.72285968899527 0 0 0
12015 0 2 2.2208 5.570918775605198 3.858629031628544 -0.14674602424218083 0 0 0
15106 0 2 2.2208 13.933392271039684 6.840005554826097 11.0750883305877 0 0 0
12054 0 2 2.2208 -0.09679686299378912 1.0326254067128817 8.281776175397065 0 0 0
12139 0 2 2.2208 5.611008353656307 12.196131264456772 13.82957988254121 0 0 0
12061 0 2 2.2208 0.06357812967583437 3.8090742039654977 5.543620800576013 0 0 0
15111 0 2 2.2208 13.92386040848381 12.414220428712955 10.996281459522113 0 0 0
15042 0 2 2.2208 13.840089662879011 20.81705002683069 2.553056468165764 0 0 0
12140 0 2 2.2208 11.064924709979994 12.142322921502709 13.934126795427753 0 0 0
12142 0 2 2.2208 -0.1514502357997122 17.916286058054375 13.668562964354782 0 0 0
15051 0 2 2.2208 13.914425519400309 1.0755168580867833 5.369210632369252 0 0 0
15022 0 2 2.2208 13.780806114269566 9.441562749207352 2.3964077761697595 0 0 0
12116 0 2 2.2208 -0.00010906136885973858 15.032644207738667 11.069651605755162 0 0 0
15141 0 2 2.2208 13.787645663662124 15.33972106274029 13.833134648267384 0 0 0
12064 0 2 2.2208 0.06410820336608947 6.619415998589827 8.253165078916366 0 0 0
12111 0 2 2.2208 -0.03968166177273484 9.397571895255874 11.205168383839368 0 0 0
12136 0 2 2.2208 2.839781795403909 9.483220661984019 13.822952116927327 0 0 0
12006 0 2 2.2208 8.454687923587736 1.030725179641701 -0.0723797173721488 0 0 0
15116 0 2 2.2208 13.901873214688367 17.923186438215236 10.908795798158605 0 0 0
12019 0 2 2.2208 11.393081478721385 3.7669591921964756 -0.16007966904604318 0 0 0
12137 0 2 2.2208 -0.14199876362507072 12.380087064564524 13.9392922996818 0 0 0
226 0 1 -1.1104 4.209638111878737 -0.6005556529107432 15.19009930631934 0 0 0
227 0 1 -1.1104 1.4164494659318223 -0.3339783100695461 15.205592946828896 0 0 0
228 0 1 -1.1104 4.223040533944873 2.2436245670203094 15.414975458247422 0 0 0
229 0 1 -1.1104 1.3498903073587907 2.2878239923436023 15.307093728317737 0 0 0
230 0 1 -1.1104 9.838749279104073 -0.3813791008434447 14.952836606964052 0 0 0
231 0 1 -1.1104 7.006661453576018 -0.4946504222114515 15.282310866082566 0 0 0
232 0 1 -1.1104 10.097585939505448 2.334382775050953 15.281707802785474 0 0 0
233 0 1 -1.1104 7.0389661499862015 2.2624383037066282 15.376844711248587 0 0 0
234 0 1 -1.1104 12.514546802398254 -0.2718437482510489 15.039803270384946 0 0 0
235 0 1 -1.1104 12.870218891528431 2.5663657417900985 15.212642037898064 0 0 0
236 0 1 -1.1104 4.032909438678627 5.128793211779036 15.392789122045578 0 0 0
237 0 1 -1.1104 1.3753661901035124 5.223361557428853 15.322418098200515 0 0 0
238 0 1 -1.1104 4.008023702400072 7.873995335693649 15.3252176672366 0 0 0
239 0 1 -1.1104 1.281706668874822 8.151778510431871 15.47288462471308 0 0 0
240 0 1 -1.1104 9.909275263659593 5.118804480191031 15.248714253346193 0 0 0
241 0 1 -1.1104 6.745762734397268 5.321423348736613 15.258816362019257 0 0 0
242 0 1 -1.1104 9.729194213865638 7.952857149058258 14.971523427151542 0 0 0
243 0 1 -1.1104 6.951557222328067 8.11363133387555 15.276477940400136 0 0 0
244 0 1 -1.1104 12.728454390116479 5.241367817652347 14.909321234958092 0 0 0
245 0 1 -1.1104 12.581785400358076 8.077250663680902 15.440172588579879 0 0 0
246 0 1 -1.1104 4.078291499717735 10.718482123505007 15.266778014777493 0 0 0
247 0 1 -1.1104 1.3082449466641712 10.887035399557115 15.267492602819523 0 0 0
248 0 1 -1.1104 4.357333255254917 13.48422098109989 15.151951853961311 0 0 0
249 0 1 -1.1104 1.40784970864163 13.723965163148277 15.299399350325393 0 0 0
250 0 1 -1.1104 9.754799025940912 10.774405207572535 15.197143492908923 0 0 0
251 0 1 -1.1104 7.140482482215249 11.03946145514869 15.079938038259845 0 0 0
252 0 1 -1.1104 9.626501607105599 13.544021938459156 15.272977447784887 0 0 0
253 0 1 -1.1104 6.844772888192377 13.754520900434855 15.256442931910707 0 0 0
254 0 1 -1.1104 12.514211780607665 11.053607675055114 15.237236260654871 0 0 0
255 0 1 -1.1104 12.526427743027249 13.853079717260524 15.305806160524751 0 0 0
256 0 1 -1.1104 4.2788452662793395 16.36165595229666 15.210255256769313 0 0 0
257 0 1 -1.1104 1.495546496115965 16.387580226431982 15.26276409306356 0 0 0
258 0 1 -1.1104 4.065344423794968 19.29897443426825 15.10846795777878 0 0 0
259 0 1 -1.1104 1.2717815690224115 19.222124066217972 15.209900963082655 0 0 0
260 0 1 -1.1104 9.663271551539417 16.521997108333863 15.362544875153622 0 0 0
261 0 1 -1.1104 7.02333733162255 16.581673592565757 15.025749520938138 0 0 0
262 0 1 -1.1104 9.764013634533972 19.379725406777606 15.255962565523806 0 0 0
263 0 1 -1.1104 6.821151073453316 19.452138314012863 15.217336990699664 0 0 0
264 0 1 -1.1104 12.3590137509305 16.727502287387374 14.99279802702606 0 0 0