LAMMPS (29 Oct 2020)
OMP_NUM_THREADS environment is not set. Defaulting to 1 thread. (../comm.cpp:94)
  using 1 OpenMP thread(s) per MPI task
OMP_NUM_THREADS environment is not set. Defaulting to 1 thread. (../comm.cpp:94)
  using 1 OpenMP thread(s) per MPI task
Reading data file ...
  triclinic box = (0.0000000 0.0000000 0.0000000) to (27.894000 334.72800 27.894000) with tilt (0.0000000 0.0000000 0.0000000)
  2 by 13 by 2 MPI processor grid
  reading atoms ...
  24000 atoms
  reading velocities ...
  24000 velocities
Finding 1-2 1-3 1-4 neighbors ...
  special bond factors lj:    0.0      0.0      0.0     
  special bond factors coul:  0.0      0.0      0.0     
     0 = max # of 1-2 neighbors
     0 = max # of 1-3 neighbors
     0 = max # of 1-4 neighbors
     1 = max # of special neighbors
  special bonds CPU = 0.004 seconds
  read_data CPU = 0.077 seconds
30 atoms in group vac_Th
60 atoms in group vac_O
30 atoms in group oct_Th
60 atoms in group oct_O
3000 atoms in group tot_oct_Th
3000 atoms in group tot_oct_O
2970 atoms in group delete_oct_Th
2940 atoms in group delete_oct_O
WARNING: Ignoring 'compress yes' for molecular system (../delete_atoms.cpp:125)
Deleted 30 atoms, new total = 23970
WARNING: Ignoring 'compress yes' for molecular system (../delete_atoms.cpp:125)
Deleted 60 atoms, new total = 23910
WARNING: Ignoring 'compress yes' for molecular system (../delete_atoms.cpp:125)
Deleted 2970 atoms, new total = 20940
WARNING: Ignoring 'compress yes' for molecular system (../delete_atoms.cpp:125)
Deleted 2940 atoms, new total = 18000
Setting atom values ...
  11940 settings made for charge
Setting atom values ...
  5970 settings made for charge
Setting atom values ...
  60 settings made for charge
Setting atom values ...
  30 settings made for charge
PPPM initialization ...
  using 12-bit tables for long-range coulomb (../kspace.cpp:328)
  G vector (1/distance) = 0.29916851
  grid = 40 240 40
  stencil order = 5
  estimated absolute RMS force accuracy = 0.00015502622
  estimated relative force accuracy = 1.0765975e-05
  using single precision MKL FFT
  3d grid and FFT values/proc = 18225 7600
Neighbor list info ...
  update every 1 steps, delay 0 steps, check yes
  max neighbors/atom: 2000, page size: 100000
  master list distance cutoff = 13
  ghost atom cutoff = 13
  binsize = 6.5, bins = 5 52 5
  2 neighbor lists, perpetual/occasional/extra = 2 0 0
  (1) pair coul/long, perpetual
      attributes: half, newton on
      pair build: half/bin/newton/tri
      stencil: half/bin/3d/newton/tri
      bin: standard
  (2) pair eam/alloy, perpetual, copy from (1)
      attributes: half, newton on
      pair build: copy
      stencil: none
      bin: none
Setting up cg style minimization ...
  Unit style    : metal
  Current step  : 0
WARNING: Energy due to 3 extra global DOFs will be included in minimizer energies
Per MPI rank memory allocation (min/avg/max) = 10.44 | 10.47 | 10.49 Mbytes
Step Temp E_pair E_mol TotEng Press Volume 
       0            0   -234008.24            0   -234008.24    12030.814    260443.57 
     395            0      -235878            0      -235878    98.949241    263125.33 
Loop time of 6.52729 on 52 procs for 395 steps with 18000 atoms

99.5% CPU use with 52 MPI tasks x 1 OpenMP threads

Minimization stats:
  Stopping criterion = linesearch alpha is zero
  Energy initial, next-to-last, final = 
     -234008.238924892  -235878.000482268  -235878.000482269
  Force two-norm initial, final = 3596.9644 45.677239
  Force max component initial, final = 2435.7222 32.285890
  Final line search alpha, max atom move = 5.6590171e-12 1.8270641e-10
  Iterations, force evaluations = 395 539

MPI task timing breakdown:
Section |  min time  |  avg time  |  max time  |%varavg| %total
---------------------------------------------------------------
Pair    | 3.499      | 3.5881     | 3.6913     |   2.3 | 54.97
Bond    | 5.1741e-05 | 7.1625e-05 | 9.7644e-05 |   0.0 |  0.00
Kspace  | 1.1068     | 1.2118     | 1.3036     |   4.1 | 18.56
Neigh   | 0.010492   | 0.011681   | 0.012881   |   0.5 |  0.18
Comm    | 0.12769    | 0.13082    | 0.13424    |   0.5 |  2.00
Output  | 0          | 0          | 0          |   0.0 |  0.00
Modify  | 0          | 0          | 0          |   0.0 |  0.00
Other   |            | 1.585      |            |       | 24.28

Nlocal:        346.154 ave         390 max         308 min
Histogram: 5 3 3 6 10 12 7 3 0 3
Nghost:        5637.25 ave        5753 max        5494 min
Histogram: 3 8 3 2 5 2 7 11 7 4
Neighs:       111788.0 ave      125170 max       98568 min
Histogram: 3 3 3 5 12 10 8 4 1 3

Total # of neighbors = 5812961
Ave neighs/atom = 322.94228
Ave special neighs/atom = 0.0000000
Neighbor list builds = 3
Dangerous builds = 0
Resetting atom IDs ...
PPPM initialization ...
  using 12-bit tables for long-range coulomb (../kspace.cpp:328)
  G vector (1/distance) = 0.29899621
  grid = 40 240 40
  stencil order = 5
  estimated absolute RMS force accuracy = 0.00015633441
  estimated relative force accuracy = 1.0856824e-05
  using single precision MKL FFT
  3d grid and FFT values/proc = 18225 7600
Finding 1-2 1-3 1-4 neighbors ...
  special bond factors lj:    0.0      0.0      0.0     
  special bond factors coul:  0.0      0.0      0.0     
     0 = max # of 1-2 neighbors
     0 = max # of 1-3 neighbors
     0 = max # of 1-4 neighbors
     1 = max # of special neighbors
  special bonds CPU = 0.001 seconds
PPPM initialization ...
  using 12-bit tables for long-range coulomb (../kspace.cpp:328)
  G vector (1/distance) = 0.29899621
  grid = 40 240 40
  stencil order = 5
  estimated absolute RMS force accuracy = 0.00015633441
  estimated relative force accuracy = 1.0856824e-05
  using single precision MKL FFT
  3d grid and FFT values/proc = 18225 7600
Setting up Verlet run ...
  Unit style    : metal
  Current step  : 0
  Time step     : 0.001
Per MPI rank memory allocation (min/avg/max) = 10.59 | 10.62 | 10.64 Mbytes
Step Temp KinEng PotEng Press v_latt 
       0         1500      3489.83   -235878.01     14265.02    5.5978852 
  100000    1502.6099    3495.9022   -232712.69   -165.50485    5.6726867 
  200000    1492.3334    3471.9932   -232667.53    1026.2196    5.6717269 
  300000    1514.9762    3524.6729   -232741.83    1186.4224    5.6701292 
Loop time of 2826.59 on 52 procs for 300000 steps with 18000 atoms

Performance: 9.170 ns/day, 2.617 hours/ns, 106.135 timesteps/s
99.8% CPU use with 52 MPI tasks x 1 OpenMP threads

MPI task timing breakdown:
Section |  min time  |  avg time  |  max time  |%varavg| %total
---------------------------------------------------------------
Pair    | 1630.7     | 1670.9     | 1709       |  44.5 | 59.11
Bond    | 0.030259   | 0.044506   | 0.073146   |   3.9 |  0.00
Kspace  | 595.14     | 636.12     | 677.85     |  76.6 | 22.51
Neigh   | 39.38      | 40.796     | 43.392     |  17.0 |  1.44
Comm    | 81.193     | 84.153     | 86.359     |  15.5 |  2.98
Output  | 0.016033   | 0.016047   | 0.01655    |   0.1 |  0.00
Modify  | 339.08     | 361.64     | 381.75     |  53.0 | 12.79
Other   |            | 32.95      |            |       |  1.17

Nlocal:        346.154 ave         371 max         330 min
Histogram: 5 3 14 6 12 2 3 3 3 1
Nghost:        5466.17 ave        5585 max        5398 min
Histogram: 7 10 14 6 1 0 2 7 2 3
Neighs:       106159.0 ave      114522 max      101027 min
Histogram: 5 7 12 7 7 5 2 4 2 1

Total # of neighbors = 5520259
Ave neighs/atom = 306.68106
Ave special neighs/atom = 0.0000000
Neighbor list builds = 10141
Dangerous builds = 0
System init for write_data ...
PPPM initialization ...
  using 12-bit tables for long-range coulomb (../kspace.cpp:328)
  G vector (1/distance) = 0.29826854
  grid = 40 240 40
  stencil order = 5
  estimated absolute RMS force accuracy = 0.00016233523
  estimated relative force accuracy = 1.1273557e-05
  using single precision MKL FFT
  3d grid and FFT values/proc = 18225 7600
Total wall time: 0:47:13
