ITEM: TIMESTEP
30000
ITEM: NUMBER OF ATOMS
17640
ITEM: BOX BOUNDS pp pp pp
-4.9773305073161245e-01 2.7837733050731842e+01
-5.8088709973176238e+00 3.3388887099731676e+02
-4.9425490891538226e-01 2.7834254908914808e+01
ITEM: ATOMS id type q x y z
1 2 2.2208 5.39325 -0.166362 5.32028
2 1 -1.1104 1.04873 -4.59377 0.955415
6 1 -1.1104 0.900576 -4.30989 4.02458
10 1 -1.1104 0.728286 -1.70469 0.972862
12 2 2.2208 5.03523 -3.02759 2.46341
14 1 -1.1104 1.05627 -1.46641 3.73516
16 1 -1.1104 3.67697 -4.47342 1.10716
18 2 2.2208 2.48298 -0.185376 2.43668
19 1 -1.1104 3.76668 -4.14671 4.02555
21 2 2.2208 2.50481 -2.92473 5.40462
23 1 -1.1104 3.70479 -1.68919 1.04887
24 1 -1.1104 3.81222 -1.42241 3.90646
4 1 -1.1104 6.35292 -4.31355 0.882959
8 1 -1.1104 6.40052 -4.41837 3.86009
174 1 -1.1104 3.96655 -1.64567 6.73962
15 1 -1.1104 6.58031 -1.81787 3.86316
676 2 2.2208 5.15986 -0.410968 -0.386126
9101 2 2.2208 -0.373089 14.0441 8.07122
168 1 -1.1104 6.67963 -4.52554 6.58576
8410 2 2.2208 5.0957 -5.74604 5.59471
11 1 -1.1104 6.79408 -1.55592 1.13154
171 1 -1.1104 7.06983 -1.85337 7.00165
31 2 2.2208 10.9879 -0.297126 5.19643
32 1 -1.1104 12.2252 -4.54542 0.781414
34 1 -1.1104 12.27 -4.43027 3.85245
36 1 -1.1104 12.2867 -1.85264 1.12766
37 2 2.2208 10.9638 -3.21459 2.3209
39 1 -1.1104 12.2776 -1.64487 3.8773
40 1 -1.1104 9.46035 -4.53123 1.37088
42 2 2.2208 8.01806 -0.169663 2.62668
43 1 -1.1104 9.35872 -4.50074 3.9483
45 2 2.2208 8.11073 -3.12422 5.2474
47 1 -1.1104 9.5502 -1.78203 1.02907
48 1 -1.1104 9.54588 -1.59968 3.6504
9447 2 2.2208 -0.452065 11.3229 -0.44994
207 1 -1.1104 12.4204 -1.66675 6.67977
208 1 -1.1104 9.57772 -4.38369 6.81908
674 2 2.2208 2.40577 2.65273 -0.372396
675 2 2.2208 2.22187 -3.17214 -0.273965
210 1 -1.1104 9.66431 -2.0273 6.50266
3 1 -1.1104 1.15185 0.912763 1.01776
7 1 -1.1104 1.24319 1.19987 3.88384
13 2 2.2208 5.34458 2.70587 2.22435
17 1 -1.1104 3.72098 1.05902 0.896062
20 1 -1.1104 4.17883 1.2052 3.79551
22 2 2.2208 2.60812 2.58583 5.07071
54 2 2.2208 5.46751 5.63098 5.23459
56 1 -1.1104 1.20924 6.955 0.952088
58 1 -1.1104 1.03463 6.99944 3.98725
60 1 -1.1104 0.885438 4.19351 1.12573
67 1 -1.1104 1.38806 4.3813 3.79998
71 1 -1.1104 4.17549 7.006 0.889297
72 2 2.2208 2.51886 5.47282 2.26909
76 1 -1.1104 3.77483 3.90401 1.01105
79 1 -1.1104 4.08374 4.13803 3.93669
74 1 -1.1104 3.96774 6.91195 3.45404
57 1 -1.1104 6.92226 6.83532 1.01375
5 1 -1.1104 6.44077 1.07311 1.07205
63 1 -1.1104 6.80694 4.06774 1.11128
59 1 -1.1104 6.76137 6.83725 3.64988
237 1 -1.1104 6.63726 4.20408 6.80938
671 2 2.2208 11.0509 -0.211395 -0.204434
234 1 -1.1104 0.985911 6.78488 6.72778
238 1 -1.1104 4.03232 7.0204 6.55672
679 2 2.2208 11.1264 16.8695 -0.383466
9 1 -1.1104 6.73385 1.24093 4.02512
69 1 -1.1104 6.78575 3.91303 3.92614
33 1 -1.1104 12.3985 1.18506 1.02471
35 1 -1.1104 12.4681 1.49154 3.9715
38 2 2.2208 10.9615 2.87682 2.60404
41 1 -1.1104 9.44431 1.31266 1.08299
44 1 -1.1104 9.54579 1.44187 3.7556
46 2 2.2208 8.06021 2.65268 5.27425
84 2 2.2208 10.8962 5.58912 5.22586
86 1 -1.1104 12.3029 6.93441 1.00627
87 1 -1.1104 12.0852 7.03717 3.79858
88 1 -1.1104 12.7015 4.02905 1.05578
92 1 -1.1104 12.5157 4.28212 3.8611
95 2 2.2208 8.21253 5.62156 2.3757
99 1 -1.1104 9.70509 4.21252 1.13501
102 1 -1.1104 9.45986 4.19457 3.8711
94 1 -1.1104 9.49874 7.01046 0.699846
97 1 -1.1104 9.33163 7.02607 3.96755
680 2 2.2208 8.33027 14.2078 -0.148938
209 1 -1.1104 9.35929 1.00104 6.35882
669 2 2.2208 8.31431 2.67545 -0.244101
206 1 -1.1104 12.6028 1.29947 6.71315
265 1 -1.1104 12.358 6.95948 6.6954
8409 2 2.2208 2.43601 -5.84241 2.45124
670 2 2.2208 8.02921 -3.12114 -0.246634
9095 2 2.2208 -0.305033 8.49128 2.45328
9090 2 2.2208 -0.118122 11.334 10.9747
55 2 2.2208 5.59324 11.1461 5.44482
61 1 -1.1104 1.21492 9.64833 1.05435
66 2 2.2208 5.45149 8.27739 2.22048
68 1 -1.1104 1.45392 9.75923 3.77233
73 2 2.2208 2.5871 11.0482 2.40167
75 2 2.2208 2.55989 8.37599 5.02346
77 1 -1.1104 3.917 9.85853 1.08266
80 1 -1.1104 3.93719 9.79789 3.7323
107 1 -1.1104 1.09172 12.7122 1.22821
113 1 -1.1104 1.00332 12.7453 4.02871
123 1 -1.1104 3.92932 12.688 0.944515
128 1 -1.1104 4.06219 12.5212 3.87275
115 1 -1.1104 6.7554 12.5169 3.82686
64 1 -1.1104 6.62208 9.76838 1.0002
70 1 -1.1104 6.7576 9.44448 3.89467
110 1 -1.1104 6.68001 12.5208 1.17745
9103 2 2.2208 -0.304256 19.7164 8.24867
124 1 -1.1104 3.94761 12.7895 6.74885
681 2 2.2208 2.53774 19.7856 -0.462991
9099 2 2.2208 -0.422123 2.54139 8.0905
85 2 2.2208 10.8794 11.2805 5.3274
89 1 -1.1104 12.4562 9.70311 1.16802
91 2 2.2208 10.8107 8.28568 2.28182
93 1 -1.1104 12.5114 9.72691 4.0447
96 2 2.2208 7.81336 10.9432 2.46801
98 2 2.2208 8.2155 8.27661 5.63342
100 1 -1.1104 9.42966 9.6631 1.23195
103 1 -1.1104 9.55162 9.88803 4.06192
142 1 -1.1104 12.4835 12.4755 1.01869
146 1 -1.1104 12.2933 12.7573 3.87692
153 1 -1.1104 9.74741 12.5482 1.01437
158 1 -1.1104 9.4826 12.3507 3.97869
160 2 2.2208 8.1892 14.0011 5.34343
90 1 -1.1104 12.1727 9.77429 6.80176
9102 2 2.2208 -0.294126 16.8115 11.1961
9445 2 2.2208 -0.460305 5.564 -0.448022
130 2 2.2208 2.53439 14.0737 5.3233
119 2 2.2208 5.26745 14.0558 2.59243
106 2 2.2208 5.2208 16.748 5.52416
109 1 -1.1104 0.934144 18.3563 1.33536
114 1 -1.1104 1.18224 18.3274 4.0587
116 1 -1.1104 1.02876 15.4825 1.06717
120 2 2.2208 5.139 19.6053 2.54898
121 1 -1.1104 1.20404 15.442 3.94009
125 1 -1.1104 3.56858 18.349 1.17704
127 2 2.2208 2.40693 16.923 2.60458
129 1 -1.1104 3.84909 18.1293 4.06692
131 2 2.2208 2.5027 19.6777 5.35535
132 1 -1.1104 4.02756 15.6954 1.16579
134 1 -1.1104 3.76999 15.3928 3.85239
126 1 -1.1104 4.02535 18.0419 7.00777
138 1 -1.1104 6.71467 18.2057 1.27124
139 1 -1.1104 6.75688 18.1392 3.95391
112 1 -1.1104 6.82636 18.4469 6.81836
122 1 -1.1104 6.6916 15.4657 4.22982
117 1 -1.1104 0.975244 15.5158 6.6676
140 1 -1.1104 7.04481 15.5091 1.33721
326 2 2.2208 11.1118 2.91451 13.7429
201 1 -1.1104 9.42571 15.637 12.1939
118 1 -1.1104 6.6496 15.3678 6.85018
150 2 2.2208 11.0017 13.8899 2.53298
141 2 2.2208 10.8793 17.0918 5.23214
144 1 -1.1104 12.5396 18.2287 0.973017
147 1 -1.1104 12.2441 18.4274 4.01773
148 1 -1.1104 12.6372 15.0908 1.35005
151 2 2.2208 10.9318 19.756 2.61083
152 1 -1.1104 12.6303 15.6117 3.96485
155 1 -1.1104 9.49405 18.3672 1.38433
157 2 2.2208 8.19732 17.1016 2.68734
159 1 -1.1104 9.50464 18.3443 3.94575
161 2 2.2208 8.12212 19.6614 5.44136
162 1 -1.1104 9.99293 15.4983 1.17996
164 1 -1.1104 9.85264 15.2754 4.09969
9097 2 2.2208 -0.348268 14.0946 2.34327
156 1 -1.1104 9.43062 18.1363 6.67334
315 2 2.2208 13.6299 19.6718 5.38111
9089 2 2.2208 -0.0743432 8.52088 7.97079
568 2 2.2208 2.39617 14.1663 -0.26686
165 1 -1.1104 9.45267 18.3409 9.89629
82 2 2.2208 11.0373 19.7195 8.35719
166 1 -1.1104 0.825277 -4.59104 6.70906
667 2 2.2208 5.46954 16.8654 -0.168495
50 1 -1.1104 12.3053 18.3929 9.64318
170 1 -1.1104 1.1218 -1.62775 6.74313
172 1 -1.1104 3.64114 -4.43882 6.84148
175 2 2.2208 5.29759 -0.260807 10.9603
176 1 -1.1104 0.92833 -4.49666 11.9737
180 1 -1.1104 0.876389 -4.47155 9.50553
184 1 -1.1104 0.941257 -1.5579 12.2117
186 2 2.2208 5.38821 -3.15885 8.1973
188 1 -1.1104 1.1932 -1.5231 9.25591
190 1 -1.1104 3.84225 -4.43269 12.3957
192 2 2.2208 2.45883 -0.30348 7.95494
193 1 -1.1104 3.80801 -4.56952 9.51679
195 2 2.2208 2.33268 -3.06273 10.8406
197 1 -1.1104 3.6269 -1.95578 12.2554
198 1 -1.1104 3.95013 -1.83127 9.37824
182 1 -1.1104 6.8652 -4.43972 9.31901
185 1 -1.1104 6.87542 -1.41923 12.3106
189 1 -1.1104 6.82264 -1.65412 9.62723
664 2 2.2208 5.23437 11.2341 -0.35933
308 2 2.2208 13.5981 11.1893 8.12043
205 1 -1.1104 12.4266 -4.15794 6.63105
178 1 -1.1104 6.74395 -4.31892 11.9255
211 2 2.2208 11.2289 -0.0768457 11.0315
212 1 -1.1104 12.4134 -4.18867 12.2419
214 1 -1.1104 12.2634 -4.44417 9.62152
216 1 -1.1104 12.6063 -1.39114 12.3749
217 2 2.2208 10.9113 -3.05724 8.1032
219 1 -1.1104 12.3559 -1.49957 9.61679
220 1 -1.1104 9.43632 -4.56323 12.3576
222 2 2.2208 8.2509 -0.369173 8.04198
223 1 -1.1104 9.5674 -4.7126 9.4406
225 2 2.2208 8.28033 -3.09108 10.7631
227 1 -1.1104 9.87211 -1.41837 12.134
228 1 -1.1104 9.60051 -1.69143 9.49033
9094 2 2.2208 -0.317285 5.6505 5.30329
9091 2 2.2208 -0.388323 -0.237926 5.48156
9086 2 2.2208 -0.137749 19.9244 2.52973
9087 2 2.2208 -0.313122 2.75994 2.5678
235 1 -1.1104 6.92592 6.89519 6.67154
167 1 -1.1104 0.980693 1.1193 6.82552
236 1 -1.1104 1.22793 4.0448 6.54637
173 1 -1.1104 4.09513 1.09641 6.55284
239 1 -1.1104 3.85681 4.03661 6.71167
177 1 -1.1104 0.946373 1.24337 12.4476
181 1 -1.1104 0.962065 1.22369 9.45324
187 2 2.2208 5.15219 2.4268 8.16736
191 1 -1.1104 3.58318 1.01114 12.3323
194 1 -1.1104 3.69662 1.05419 9.55833
196 2 2.2208 2.47697 2.56057 10.9089
240 2 2.2208 5.35362 5.29265 10.7779
242 1 -1.1104 0.932097 7.1718 12.2265
244 1 -1.1104 1.31329 6.9722 9.31791
246 1 -1.1104 1.07523 4.02045 12.1348
251 1 -1.1104 0.941049 4.09615 9.48458
256 2 2.2208 2.50084 5.50862 8.00485
260 1 -1.1104 3.73606 3.89941 12.355
262 1 -1.1104 3.89894 3.98873 9.64507
255 1 -1.1104 3.90471 6.99127 12.1926
258 1 -1.1104 3.89044 6.97208 9.30584
248 1 -1.1104 6.65823 4.35705 12.4019
243 1 -1.1104 6.88971 7.22554 12.6396
253 1 -1.1104 6.73969 3.88703 9.6278
179 1 -1.1104 6.48284 1.23792 12.8584
169 1 -1.1104 6.75154 1.14111 6.84895
204 1 -1.1104 9.51101 15.524 9.40623
149 1 -1.1104 12.6033 15.6455 6.53068
163 1 -1.1104 9.46649 15.1548 6.8236
266 1 -1.1104 12.3234 4.14585 6.68314
269 1 -1.1104 9.67983 3.99329 6.86945
183 1 -1.1104 6.59439 1.23714 9.7506
245 1 -1.1104 6.62415 6.87802 9.72651
267 1 -1.1104 9.61787 6.78884 6.83209
213 1 -1.1104 12.4831 1.45829 12.3533
215 1 -1.1104 12.5396 1.08404 9.48187
218 2 2.2208 11.0497 2.53337 8.0194
221 1 -1.1104 9.77974 1.23977 12.2009
224 1 -1.1104 9.46088 1.28024 9.17635
226 2 2.2208 8.39116 2.55076 10.9456
268 1 -1.1104 9.65321 4.00911 9.65682
271 1 -1.1104 9.52316 3.99477 12.3213
275 2 2.2208 8.2009 5.36519 8.10594
276 2 2.2208 10.9704 5.53452 11.0609
280 1 -1.1104 12.401 4.53664 12.4218
283 1 -1.1104 12.4897 4.00809 9.59366
285 1 -1.1104 9.63309 6.8643 12.4744
273 1 -1.1104 9.47227 6.89023 9.6022
278 1 -1.1104 12.3927 7.1318 12.483
199 2 2.2208 8.1827 14.0563 10.7963
108 1 -1.1104 1.06254 12.6121 6.75754
62 1 -1.1104 1.48723 9.42609 6.65462
65 1 -1.1104 6.70713 9.69296 6.94441
78 1 -1.1104 3.90558 9.88164 6.88008
111 1 -1.1104 6.78267 12.5851 6.72514
241 2 2.2208 5.20264 11.1699 10.9938
247 1 -1.1104 1.05728 9.772 12.3607
250 2 2.2208 5.18392 8.12805 8.21923
252 1 -1.1104 0.988273 9.85813 9.63751
257 2 2.2208 2.46526 11.2921 8.05323
259 2 2.2208 2.47316 8.2705 10.7766
261 1 -1.1104 4.08337 9.88899 12.4987
263 1 -1.1104 3.66755 9.6571 9.39946
287 1 -1.1104 4.03775 12.6809 12.3181
294 1 -1.1104 1.31094 12.348 9.63703
299 1 -1.1104 1.35813 12.4903 12.4866
305 1 -1.1104 3.83321 12.5572 9.45668
254 1 -1.1104 6.51748 9.64999 9.68121
249 1 -1.1104 6.72776 9.91031 12.3964
290 1 -1.1104 6.87354 12.4321 9.64855
297 1 -1.1104 7.11195 12.8333 12.3926
53 1 -1.1104 12.3341 15.503 12.5945
666 2 2.2208 5.47446 5.61029 -0.466486
143 1 -1.1104 12.3929 12.87 6.85507
101 1 -1.1104 9.42501 9.51021 6.96354
279 1 -1.1104 12.3343 6.91188 9.60657
154 1 -1.1104 9.55023 12.4793 6.8089
81 2 2.2208 11.0503 14.1551 8.09474
264 1 -1.1104 9.45317 9.74348 9.44791
270 1 -1.1104 9.77109 9.53666 12.3575
272 2 2.2208 8.03447 8.48378 11.0818
274 2 2.2208 8.10763 11.2139 8.31993
277 2 2.2208 11.0363 11.1192 10.9757
281 1 -1.1104 12.4225 9.73948 12.2826
282 2 2.2208 10.8695 8.38177 8.14977
284 1 -1.1104 12.2929 9.66458 9.50098
27 1 -1.1104 12.3009 12.676 12.3784
49 1 -1.1104 12.1534 12.5661 9.50279
104 1 -1.1104 9.87014 12.4159 12.2987
137 1 -1.1104 9.4717 12.602 9.37892
302 1 -1.1104 1.38869 17.9661 6.55602
296 1 -1.1104 6.63868 18.4284 12.8457
9104 2 2.2208 -0.209972 -0.246854 10.9157
229 2 2.2208 2.57442 13.8772 10.9636
295 2 2.2208 5.38644 13.9721 8.14938
133 1 -1.1104 3.81114 15.3226 6.74043
288 1 -1.1104 6.54641 18.1773 9.64487
25 1 -1.1104 6.60962 15.4541 12.2354
136 1 -1.1104 1.21453 15.4448 12.2843
230 2 2.2208 2.53595 19.6799 11.0251
233 1 -1.1104 3.7662 15.376 12.579
286 1 -1.1104 3.899 18.4902 12.4481
291 1 -1.1104 1.16793 18.3111 9.59081
292 1 -1.1104 0.904842 15.1044 9.51814
293 2 2.2208 5.36765 19.5851 8.27258
298 1 -1.1104 1.03708 18.0398 12.513
300 2 2.2208 5.37151 16.9211 11.4226
301 1 -1.1104 3.87744 18.4371 9.75654
303 2 2.2208 2.58808 16.842 8.33847
304 1 -1.1104 3.95839 15.6956 9.66422
289 1 -1.1104 6.7882 15.4042 9.38093
83 1 -1.1104 12.5033 15.5903 9.62134
135 2 2.2208 8.08088 16.8617 8.25374
26 2 2.2208 10.8517 17.0774 11.1008
105 1 -1.1104 9.55207 18.51 12.565
200 2 2.2208 8.20934 19.9944 11.0815
30 1 -1.1104 12.3021 18.4206 12.2615
145 1 -1.1104 12.1167 18.43 6.75482
9100 2 2.2208 -0.475942 -3.16059 8.05553
678 2 2.2208 7.97133 19.7754 -0.176641
646 2 2.2208 11.0515 11.0931 -0.199673
658 2 2.2208 8.17402 8.43024 -0.450806
9088 2 2.2208 -0.261862 5.55383 11.1238
9098 2 2.2208 -0.389163 16.9141 5.14108
203 2 2.2208 13.5222 14.0978 10.9667
335 2 2.2208 5.20097 14.0883 13.6595
332 2 2.2208 8.27826 11.2312 13.5443
320 2 2.2208 5.3888 -2.94186 13.4954
663 2 2.2208 11.1685 5.59946 -0.448019
337 2 2.2208 5.14097 0.0254114 16.6268
338 1 -1.1104 0.913322 -4.54834 18.1003
342 1 -1.1104 0.853339 -4.42905 15.2345
350 1 -1.1104 1.01195 -1.53049 17.9909
352 2 2.2208 4.91382 -2.88944 19.6293
354 1 -1.1104 0.73103 -1.44608 14.99
358 1 -1.1104 3.52561 -4.33674 18.1475
360 2 2.2208 2.44672 -0.00232478 19.6986
361 1 -1.1104 3.71775 -4.44701 15.262
365 2 2.2208 2.35879 -2.88825 16.6637
367 1 -1.1104 3.87422 -1.62177 18.0613
368 1 -1.1104 3.67803 -1.49879 14.9858
356 1 -1.1104 6.53879 -1.48439 15.0416
351 1 -1.1104 6.35709 -1.43042 18.1042
346 1 -1.1104 6.54557 -4.26569 15.047
340 1 -1.1104 6.39537 -4.50551 17.9332
9437 2 2.2208 -0.54247 -0.12676 16.7318
343 1 -1.1104 0.95268 -4.53993 20.7843
362 1 -1.1104 3.7131 -4.40878 20.8005
355 1 -1.1104 1.0632 -1.69052 20.8003
9451 2 2.2208 -0.435594 5.53999 16.6905
9453 2 2.2208 -0.40479 11.0615 16.3689
380 2 2.2208 10.7957 -0.340064 16.5723
381 1 -1.1104 12.3022 -4.47788 17.6902
383 1 -1.1104 12.5158 -3.83057 15.2383
387 1 -1.1104 12.285 -1.66375 17.8381
388 2 2.2208 10.902 -3.20532 19.4161
390 1 -1.1104 12.1627 -1.40964 15.0026
392 1 -1.1104 9.29372 -4.2633 18.1807
394 2 2.2208 8.01033 -0.164319 19.5117
395 1 -1.1104 9.47212 -4.49054 15.1852
399 2 2.2208 7.78687 -3.11157 16.5557
401 1 -1.1104 9.16382 -1.46607 17.9491
402 1 -1.1104 9.18299 -1.75475 15.1091
325 2 2.2208 11.0377 -2.81341 13.621
665 2 2.2208 2.3945 8.38459 27.8138
571 2 2.2208 2.56581 -5.68479 25.0423
347 1 -1.1104 6.58192 -4.48425 20.7357
403 1 -1.1104 9.37073 -1.60766 20.9495
339 1 -1.1104 0.95571 1.47277 18.0909
344 1 -1.1104 0.751798 1.49797 15.3582
353 2 2.2208 5.16697 2.66854 19.6822
359 1 -1.1104 3.57373 1.30938 17.9364
363 1 -1.1104 3.54268 1.07196 15.2421
366 2 2.2208 2.37968 2.602 16.5993
413 2 2.2208 5.24969 5.25608 16.7998
421 1 -1.1104 0.740915 4.176 18.0204
426 1 -1.1104 1.05672 4.24358 15.1642
434 1 -1.1104 3.95135 6.95422 18.2337
435 2 2.2208 2.46066 5.48573 19.5306
440 1 -1.1104 3.84759 3.90402 17.9675
442 1 -1.1104 3.78645 3.9191 15.2998
415 1 -1.1104 0.988851 6.97194 18.1345
417 1 -1.1104 0.940556 7.01487 15.2126
437 1 -1.1104 3.51377 6.84036 15.1251
348 1 -1.1104 6.65828 1.13605 15.4973
419 1 -1.1104 6.96884 6.87812 15.3809
341 1 -1.1104 6.66825 1.17143 18.2527
430 1 -1.1104 6.67282 4.07594 14.9781
423 1 -1.1104 6.71913 3.7421 17.99
345 1 -1.1104 1.11974 1.12116 20.929
9443 2 2.2208 -0.514945 16.6765 16.4773
418 1 -1.1104 0.992727 6.99378 20.8461
364 1 -1.1104 3.70521 1.33695 20.8906
416 1 -1.1104 6.65964 6.77493 17.9658
330 2 2.2208 8.13629 5.61062 13.6839
382 1 -1.1104 12.2362 1.40967 18.2958
385 1 -1.1104 12.4757 1.43489 15.2814
389 2 2.2208 10.9115 2.7647 19.5857
393 1 -1.1104 9.51694 1.34818 18.1745
397 1 -1.1104 9.54157 1.01974 15.1018
400 2 2.2208 8.23061 2.6644 16.5395
449 2 2.2208 11.0452 5.70872 16.7424
451 1 -1.1104 12.3226 7.01356 18.0493
454 1 -1.1104 12.2824 4.34996 18.3043
457 1 -1.1104 12.5277 4.07626 15.2666
462 2 2.2208 8.06386 5.51819 19.357
467 1 -1.1104 9.61748 4.17955 17.9421
469 1 -1.1104 9.64091 4.1721 15.1662
452 1 -1.1104 12.5102 6.85121 15.0341
464 1 -1.1104 9.61538 7.09389 15.5373
461 1 -1.1104 9.50932 6.96103 18.1902
386 1 -1.1104 12.1572 1.23208 20.8741
465 1 -1.1104 9.4226 6.96712 20.9521
8744 2 2.2208 10.9262 -5.70396 16.5127
9469 2 2.2208 -0.435505 -0.0391417 22.456
321 2 2.2208 2.1478 -0.129881 13.8039
458 1 -1.1104 12.2891 3.99279 21.0421
324 2 2.2208 8.08103 -0.174568 13.8406
414 2 2.2208 5.29911 11.3435 16.7653
422 1 -1.1104 1.25495 9.89788 18.2343
425 2 2.2208 5.45644 8.36356 19.4877
428 1 -1.1104 1.24947 9.84045 15.1686
436 2 2.2208 2.43153 11.2464 19.2577
439 2 2.2208 2.75205 8.3033 16.6675
441 1 -1.1104 4.11255 9.77494 18.2064
444 1 -1.1104 4.11224 9.58821 15.165
477 1 -1.1104 0.837414 12.7924 17.8072
481 1 -1.1104 1.17484 12.5883 15.1994
497 1 -1.1104 3.74049 12.7121 17.9882
500 1 -1.1104 3.89266 12.7151 14.9833
479 1 -1.1104 6.59846 12.5225 18.1086
485 1 -1.1104 6.55081 12.8843 15.3684
424 1 -1.1104 7.05014 9.74187 18.2345
432 1 -1.1104 6.9296 9.69114 15.3011
450 2 2.2208 10.9352 11.1145 16.6269
455 1 -1.1104 12.2872 9.69489 18.3394
456 2 2.2208 10.9455 8.38648 19.4691
459 1 -1.1104 12.5963 9.75822 15.3113
463 2 2.2208 8.11531 11.1155 19.4816
466 2 2.2208 8.29141 8.53458 16.6389
468 1 -1.1104 9.404 9.89567 17.9855
471 1 -1.1104 9.66176 9.98436 15.1302
513 1 -1.1104 12.2308 12.3716 18.3708
515 1 -1.1104 12.0993 12.6287 15.5399
524 1 -1.1104 9.29081 12.6146 17.8681
527 1 -1.1104 9.26982 12.6141 15.1362
9467 2 2.2208 -0.443821 -2.87187 25.1657
317 2 2.2208 8.03732 16.9361 13.8301
677 2 2.2208 5.15679 19.8948 13.8328
9464 2 2.2208 -0.363505 -5.87759 22.2583
331 2 2.2208 11.0861 8.19011 13.8247
460 1 -1.1104 12.3447 9.69117 20.874
472 1 -1.1104 9.37516 9.43034 21.0049
630 2 2.2208 8.14046 14.2455 22.3664
9444 2 2.2208 -0.233903 13.9712 19.4471
491 2 2.2208 5.28718 13.9941 19.5199
333 2 2.2208 2.51335 16.9165 14.001
476 2 2.2208 5.21998 17.0713 16.9081
478 1 -1.1104 0.862319 18.0659 18.1062
483 1 -1.1104 0.996587 18.0695 15.348
489 1 -1.1104 1.27483 15.5318 17.9078
492 2 2.2208 5.51609 19.9337 19.6622
493 1 -1.1104 0.988334 15.417 14.9885
498 1 -1.1104 3.8717 18.4388 18.1297
499 2 2.2208 2.47937 16.8071 19.4744
502 1 -1.1104 3.86096 18.4646 15.3789
504 2 2.2208 2.49693 14.2737 16.608
505 2 2.2208 2.53103 19.8086 16.7458
506 1 -1.1104 3.91585 15.6044 18.4176
507 1 -1.1104 3.79741 15.6347 15.4374
495 1 -1.1104 6.63823 15.7563 15.2839
480 1 -1.1104 6.68075 18.3094 18.3022
487 1 -1.1104 6.77705 18.2607 15.596
490 1 -1.1104 6.77389 15.228 18.2038
9466 2 2.2208 -0.128624 14.0763 25.1682
371 2 2.2208 4.99462 -5.74741 16.6841
520 2 2.2208 10.9608 13.7797 19.5488
531 2 2.2208 8.04735 14.0759 16.6398
512 2 2.2208 10.8913 16.963 16.8517
514 1 -1.1104 12.488 18.3741 18.0589
517 1 -1.1104 12.2766 18.1656 15.3144
519 1 -1.1104 12.4026 15.2562 17.9175
521 2 2.2208 11.0967 19.5937 19.4401
522 1 -1.1104 12.3595 15.4551 15.1762
525 1 -1.1104 9.46796 18.1931 18.1867
526 2 2.2208 8.2172 16.7229 19.7002
529 1 -1.1104 9.72701 18.3772 15.4587
532 2 2.2208 8.21079 19.6495 16.6699
533 1 -1.1104 9.45906 15.4135 18.0982
534 1 -1.1104 9.47011 15.6903 15.227
9474 2 2.2208 -0.477493 8.12188 25.1483
319 2 2.2208 2.06873 -5.69901 13.6299
9442 2 2.2208 -0.32973 19.8415 25.2192
9468 2 2.2208 -0.308326 16.9258 22.4944
523 1 -1.1104 12.53 15.4177 20.8718
632 1 -1.1104 9.74394 15.7572 23.5444
369 1 -1.1104 3.81545 -1.38845 21.1791
540 2 2.2208 5.35883 -0.110119 22.5896
541 1 -1.1104 1.1691 -4.38969 23.7886
545 1 -1.1104 0.989651 -4.3539 26.4281
549 1 -1.1104 0.9328 -1.60258 23.5282
551 2 2.2208 5.28348 -3.17851 25.0412
553 1 -1.1104 1.25521 -1.40823 26.6938
555 1 -1.1104 3.86707 -4.29709 23.5749
557 2 2.2208 2.43781 -0.195591 25.089
558 1 -1.1104 3.82202 -4.50668 26.3217
560 2 2.2208 2.36122 -2.92758 22.4939
562 1 -1.1104 3.70535 -1.67898 23.9909
563 1 -1.1104 3.75986 -1.87319 26.5947
384 1 -1.1104 12.3808 -4.42108 20.7588
396 1 -1.1104 9.62615 -4.50637 20.7689
391 1 -1.1104 12.1518 -1.63218 20.6869
318 2 2.2208 10.7943 14.2414 13.7537
357 1 -1.1104 6.76762 -1.70567 20.8196
543 1 -1.1104 6.71817 -4.59569 23.8504
547 1 -1.1104 6.6588 -4.55127 26.6286
554 1 -1.1104 6.68236 -1.6589 26.3299
550 1 -1.1104 6.6047 -1.47839 23.7029
328 2 2.2208 5.51939 8.33194 14.0016
576 2 2.2208 10.6167 -0.0830444 22.2868
577 1 -1.1104 12.2483 -4.47141 23.7316
579 1 -1.1104 12.0195 -4.43441 26.4054
581 1 -1.1104 12.1576 -1.65968 23.4827
582 2 2.2208 10.7591 -3.23405 25.0495
584 1 -1.1104 12.4685 -1.2935 26.6189
585 1 -1.1104 9.35206 -4.67871 23.5444
587 2 2.2208 8.00132 -0.0239863 25.3406
588 1 -1.1104 9.35388 -4.37081 26.5411
590 2 2.2208 8.06181 -3.0784 22.3033
592 1 -1.1104 9.45027 -1.84509 23.5594
593 1 -1.1104 9.53799 -1.3666 26.5026
443 1 -1.1104 3.67338 3.9409 21.1396
420 1 -1.1104 6.54627 6.91913 20.7439
431 1 -1.1104 6.6205 3.9467 20.9231
427 1 -1.1104 1.06543 4.01552 20.7368
438 1 -1.1104 3.92388 6.8495 21.1276
542 1 -1.1104 0.978287 1.31612 23.6875
546 1 -1.1104 0.929168 1.62578 26.464
552 2 2.2208 5.18569 2.63524 25.2543
556 1 -1.1104 3.94445 1.11344 23.985
559 1 -1.1104 3.59172 1.15259 26.5639
561 2 2.2208 2.26052 2.71707 22.3398
605 2 2.2208 5.32927 5.26561 22.5321
611 1 -1.1104 0.854844 3.96491 23.4832
616 1 -1.1104 0.680911 4.27766 26.382
621 2 2.2208 2.32297 5.47441 24.964
623 1 -1.1104 3.88417 6.81143 26.386
625 1 -1.1104 3.7583 3.91706 23.8915
627 1 -1.1104 3.95488 4.21809 26.6327
609 1 -1.1104 1.0996 6.93656 26.5046
607 1 -1.1104 0.822124 6.79448 23.6276
608 1 -1.1104 6.87551 7.12698 23.6141
610 1 -1.1104 6.46668 7.268 26.5064
613 1 -1.1104 6.64601 4.20787 23.9652
618 1 -1.1104 6.82481 3.87803 26.4855
544 1 -1.1104 6.67232 1.2317 23.8426
349 1 -1.1104 6.52567 1.23256 21.1472
453 1 -1.1104 12.3431 6.89957 20.8835
9452 2 2.2208 -0.362047 8.33587 19.5339
567 1 -1.1104 12.4937 15.3716 23.7276
548 1 -1.1104 6.56614 1.20158 26.8818
470 1 -1.1104 9.5457 4.22794 20.71
398 1 -1.1104 9.30685 1.36529 20.9524
578 1 -1.1104 12.2803 1.34875 23.6714
580 1 -1.1104 12.2616 1.41007 26.7071
583 2 2.2208 10.8738 2.54381 25.0722
586 1 -1.1104 9.44882 1.24853 23.5059
589 1 -1.1104 9.48008 1.38617 26.5329
591 2 2.2208 7.96251 2.74341 22.0616
573 1 -1.1104 9.56435 6.89211 23.8316
575 1 -1.1104 12.0984 4.09287 26.5553
603 1 -1.1104 12.5449 4.02521 23.6722
633 1 -1.1104 12.4954 6.90554 26.5326
634 1 -1.1104 12.4117 6.9661 23.8007
637 1 -1.1104 9.37667 3.96642 26.6257
639 1 -1.1104 9.3472 4.11577 23.6729
643 2 2.2208 8.01929 5.67737 25.2904
644 2 2.2208 10.9071 5.36931 22.2925
641 1 -1.1104 9.53973 7.04309 26.6602
445 1 -1.1104 3.93539 9.66711 20.9924
620 1 -1.1104 3.94571 6.88706 23.8143
501 1 -1.1104 4.11743 12.3919 20.848
482 1 -1.1104 1.34024 12.7694 20.6896
429 1 -1.1104 1.01324 9.76582 20.9442
606 2 2.2208 5.27653 11.1985 22.4264
612 1 -1.1104 0.717763 9.69831 23.6409
615 2 2.2208 5.19043 8.44453 25.2244
617 1 -1.1104 0.814384 9.73187 26.6899
622 2 2.2208 2.68405 11.2275 25.3404
624 2 2.2208 2.55738 8.24354 22.2041
626 1 -1.1104 3.6157 9.51135 23.8356
628 1 -1.1104 3.7368 9.93094 26.7474
379 1 -1.1104 4.02117 12.5984 26.5781
410 1 -1.1104 1.23737 12.674 23.993
473 1 -1.1104 1.13243 12.363 26.6332
510 1 -1.1104 3.88782 12.3505 23.7185
614 1 -1.1104 6.42754 10.0717 23.9151
511 1 -1.1104 6.86206 12.6336 26.6262
619 1 -1.1104 6.43015 9.95593 26.6355
433 1 -1.1104 6.69515 9.93718 21.0692
486 1 -1.1104 6.77841 12.8595 20.9019
412 1 -1.1104 6.74075 12.8717 23.8796
9112 2 2.2208 -0.413366 2.6282 13.9178
672 2 2.2208 13.6415 2.54123 22.2298
516 1 -1.1104 12.4609 12.6765 21.0863
528 1 -1.1104 9.71495 12.1935 20.6637
574 1 -1.1104 12.3216 9.84636 26.9564
597 2 2.2208 11.1381 8.4736 25.3501
602 1 -1.1104 12.3869 9.96993 23.8224
636 1 -1.1104 9.51126 9.6719 26.5222
638 1 -1.1104 9.39533 10.1264 23.5347
640 2 2.2208 8.2585 8.22949 22.2822
642 2 2.2208 8.27898 11.1854 25.0269
645 2 2.2208 11.0117 11.4873 22.3679
595 1 -1.1104 9.94617 12.9107 23.5977
604 1 -1.1104 9.70844 12.2751 26.4634
539 1 -1.1104 12.5907 12.8687 23.7313
565 1 -1.1104 12.4947 12.6699 26.3927
374 2 2.2208 10.9815 19.7322 13.8929
9446 2 2.2208 -0.27323 19.6285 19.6007
488 1 -1.1104 6.8797 18.1639 20.88
484 1 -1.1104 1.3264 18.408 21.0313
503 1 -1.1104 4.07231 18.3796 20.942
494 1 -1.1104 0.967498 15.5754 20.9358
508 1 -1.1104 4.03593 15.2013 21.1394
537 2 2.2208 2.53225 14.0562 22.4935
509 1 -1.1104 6.84989 15.6126 26.9677
378 1 -1.1104 6.6126 15.5075 24.007
375 2 2.2208 2.57802 19.7991 22.2447
376 1 -1.1104 3.89465 15.5101 23.9713
377 1 -1.1104 1.00304 15.527 23.8113
404 1 -1.1104 3.86815 15.4593 26.7196
407 2 2.2208 2.57247 16.9566 25.2747
408 1 -1.1104 3.78243 18.4638 26.567
409 2 2.2208 5.20039 16.8966 22.2984
411 1 -1.1104 1.19519 18.4721 23.6521
446 2 2.2208 5.44195 14.0598 25.5334
447 2 2.2208 5.09965 19.8297 25.1909
474 1 -1.1104 1.05735 15.4554 26.5797
475 1 -1.1104 1.02389 18.6695 26.5391
536 1 -1.1104 3.79391 18.2275 23.8391
448 1 -1.1104 6.64468 18.3976 23.6046
496 1 -1.1104 6.58976 15.5074 20.9668
329 2 2.2208 2.56501 11.1151 13.8483
518 1 -1.1104 12.5643 18.1595 20.8871
564 1 -1.1104 12.6378 18.2886 23.5629
9113 2 2.2208 -0.272779 13.9841 13.7248
566 1 -1.1104 12.2556 17.9896 26.3728
635 1 -1.1104 9.61325 15.3401 26.5116
631 2 2.2208 8.23766 19.5268 22.3653
538 2 2.2208 11.2064 16.691 22.1827
596 1 -1.1104 9.61755 18.3155 23.9322
601 1 -1.1104 6.25175 18.2837 26.3548
569 2 2.2208 10.9684 14.2584 25.1417
572 2 2.2208 11.24 19.6084 25.121
535 1 -1.1104 9.63 15.0861 20.7998
530 1 -1.1104 9.60919 18.0866 20.9717
598 2 2.2208 8.04589 17.1244 25.36
594 1 -1.1104 12.4268 15.4021 26.8833
629 1 -1.1104 9.40533 18.1801 27.0052
9475 2 2.2208 -0.0831129 11.2759 22.3536
9478 2 2.2208 -0.382902 19.4174 13.944
9121 2 2.2208 -0.173295 8.33114 13.8654
654 2 2.2208 13.7644 5.67485 19.5034
336 2 2.2208 13.6882 11.2103 13.8705
656 2 2.2208 13.6759 14.0668 16.6112
373 2 2.2208 13.6869 5.23484 25.0377
327 2 2.2208 2.57293 5.44134 13.856
650 2 2.2208 13.6778 2.62114 16.7522
9457 2 2.2208 -0.33584 2.71623 19.311
9435 2 2.2208 -0.423226 -5.78141 16.6125
9441 2 2.2208 -0.321422 -0.162325 27.8676
322 2 2.2208 4.94262 2.47887 13.9311
9462 2 2.2208 -0.451108 -5.6976 27.8311
8424 2 2.2208 8.08501 -5.8051 13.7221
684 2 2.2208 5.4086 22.4682 5.47075
686 1 -1.1104 1.20571 24.0855 1.21766
687 1 -1.1104 1.1137 24.2179 3.98454
688 1 -1.1104 1.11609 21.051 0.801175
690 2 2.2208 5.47506 25.3949 2.41042
691 1 -1.1104 1.01398 21.3002 3.7692
693 1 -1.1104 4.09148 23.9026 1.27242
694 2 2.2208 2.63458 22.6245 2.72292
696 1 -1.1104 3.81455 23.8224 4.18858
697 2 2.2208 2.3512 25.5361 5.40527
698 1 -1.1104 3.84877 20.9566 1.09931
700 1 -1.1104 3.95192 20.8519 3.80058
707 1 -1.1104 6.30289 21.1915 1.36961
705 1 -1.1104 6.89445 24.1775 1.08963
709 1 -1.1104 6.82997 21.2605 4.15135
699 1 -1.1104 3.84985 26.7926 1.156
701 1 -1.1104 4.00717 26.7488 3.97222
692 1 -1.1104 1.12781 26.8426 3.92391
829 1 -1.1104 6.812 21.1345 6.96362
706 1 -1.1104 6.80415 24.0246 3.7501
711 2 2.2208 10.9979 22.6393 5.27564
713 1 -1.1104 12.3566 24.0087 1.08146
714 1 -1.1104 12.5005 24.0076 3.95222
715 1 -1.1104 11.9748 21.0605 1.11493
717 2 2.2208 10.9433 25.2871 2.64479
718 1 -1.1104 12.446 21.1256 4.06603
720 1 -1.1104 9.51334 23.8515 1.19466
721 2 2.2208 8.20814 22.4451 2.5363
723 1 -1.1104 9.59221 23.9065 3.84027
724 2 2.2208 7.95826 25.3151 5.42762
725 1 -1.1104 9.18322 21.1877 1.01673
727 1 -1.1104 9.77958 21.2001 3.98604
728 1 -1.1104 9.2961 26.7797 3.83849
719 1 -1.1104 12.4979 26.7005 3.85402
716 1 -1.1104 12.2952 27.0744 0.896026
862 1 -1.1104 9.64183 21.1131 7.00379
861 1 -1.1104 9.34219 23.6843 6.66484
1023 2 2.2208 2.35393 42.3689 -0.267721
1034 2 2.2208 5.34513 39.5941 -0.350242
703 2 2.2208 -0.47673 45.3743 10.5869
1426 1 -1.1104 9.52156 46.5639 3.95365
9779 2 2.2208 -0.325492 28.3793 5.61248
708 1 -1.1104 6.65567 26.9586 1.13081
689 1 -1.1104 0.928286 26.9236 0.834643
710 1 -1.1104 6.63082 26.827 4.04457
685 2 2.2208 5.4845 28.0933 5.43641
695 2 2.2208 2.62419 28.2476 2.47449
733 1 -1.1104 1.0216 29.7611 1.31852
736 1 -1.1104 1.18201 29.794 4.13812
739 1 -1.1104 1.07343 32.494 1.08737
740 2 2.2208 5.34033 31.06 2.62326
742 1 -1.1104 1.27841 32.5488 4.11374
744 1 -1.1104 3.90061 29.6393 0.944554
747 1 -1.1104 4.01916 29.404 3.80131
749 2 2.2208 2.50407 31.0266 5.52
751 1 -1.1104 3.8825 32.2577 1.17253
752 1 -1.1104 4.1286 32.594 4.0509
756 1 -1.1104 6.51141 29.7195 1.17259
758 1 -1.1104 6.8925 32.3672 1.1933
1032 2 2.2208 5.32488 22.6834 -0.260605
9793 2 2.2208 -0.241641 22.4293 11.1693
890 1 -1.1104 3.51395 32.6096 6.7627
974 2 2.2208 13.6359 28.0493 8.06122
984 1 -1.1104 9.32834 40.8124 12.4954
726 1 -1.1104 9.61534 26.6473 1.19628
743 1 -1.1104 6.87919 32.4583 4.01705
757 1 -1.1104 6.71133 29.7626 4.08162
712 2 2.2208 10.8655 28.1656 5.31508
722 2 2.2208 8.02381 28.276 2.47895
760 1 -1.1104 12.1033 29.7629 0.927118
762 1 -1.1104 12.0816 29.2768 3.94529
764 1 -1.1104 12.4368 32.4627 0.899769
765 2 2.2208 10.8943 31.0561 2.46363
767 1 -1.1104 12.366 32.0144 3.86465
768 1 -1.1104 9.45202 29.6556 1.17879
771 1 -1.1104 9.61923 29.6549 3.93546
773 2 2.2208 8.14827 30.998 5.18824
775 1 -1.1104 9.55715 32.5263 0.969497
776 1 -1.1104 9.53152 32.4932 3.84551
1022 2 2.2208 5.15684 33.7682 -0.252792
1036 2 2.2208 10.9242 28.1899 -0.270057
1014 2 2.2208 8.05964 42.3136 -0.432353
946 1 -1.1104 1.03401 43.9148 9.35977
9806 2 2.2208 -0.379317 30.8829 2.60207
732 2 2.2208 5.11064 34.1837 5.39383
734 1 -1.1104 0.974858 35.5401 1.10672
737 1 -1.1104 0.77665 35.23 3.59009
741 2 2.2208 5.02409 36.8798 2.40427
745 1 -1.1104 3.43816 35.3922 1.00735
746 2 2.2208 2.42674 33.8955 2.49586
748 1 -1.1104 3.68913 35.4648 3.80269
750 2 2.2208 2.15169 36.7743 5.33142
778 2 2.2208 4.85517 39.5213 5.40846
784 1 -1.1104 0.688083 38.3862 1.01473
789 1 -1.1104 0.718481 38.0535 3.78682
794 2 2.2208 2.38477 39.5507 2.18005
798 1 -1.1104 3.63905 38.0442 0.91403
800 1 -1.1104 3.55999 38.1347 3.83063
735 1 -1.1104 6.55658 35.0905 0.982194
1004 2 2.2208 10.7798 39.6976 -0.35014
1020 2 2.2208 10.8966 33.8883 -0.356746