ITEM: TIMESTEP
60000
ITEM: NUMBER OF ATOMS
17640
ITEM: BOX BOUNDS pp pp pp
-5.0412526675740799e-01 2.7844125266757558e+01
-5.6972385633959579e+00 3.3377723856339958e+02
-4.7286097303067237e-01 2.7812860973030546e+01
ITEM: ATOMS id type q x y z
1 2 2.2208 5.26981 -0.175919 5.37043
2 1 -1.1104 1.27107 -4.33074 0.762375
6 1 -1.1104 0.81391 -4.46601 3.99811
10 1 -1.1104 0.952634 -1.40542 1.27307
12 2 2.2208 5.65165 -2.98565 2.57626
14 1 -1.1104 1.13559 -1.47711 4.00172
16 1 -1.1104 4.25626 -4.06366 1.25336
18 2 2.2208 2.50623 -0.182435 2.56931
19 1 -1.1104 4.04063 -4.36909 3.9601
21 2 2.2208 2.58206 -3.04298 5.32387
23 1 -1.1104 3.8797 -1.32515 1.07029
24 1 -1.1104 3.88381 -1.50302 3.92224
675 2 2.2208 2.77107 -2.82145 -0.427936
8 1 -1.1104 6.96743 -4.42096 3.95544
329 2 2.2208 2.57593 11.0895 13.5006
9441 2 2.2208 -0.13994 -0.174532 -0.190819
9092 2 2.2208 -0.486891 -3.03068 2.39999
676 2 2.2208 5.53658 0.0218579 -0.313035
172 1 -1.1104 3.89885 -4.39817 6.72025
679 2 2.2208 11.1148 16.9718 -0.166012
4 1 -1.1104 6.98996 -4.51506 1.14344
15 1 -1.1104 7.06872 -1.63034 3.90523
670 2 2.2208 8.01714 -3.08091 -0.176516
11 1 -1.1104 6.79755 -1.60544 1.04304
31 2 2.2208 11.1322 -0.00398211 5.27785
32 1 -1.1104 12.4926 -4.81003 1.2815
34 1 -1.1104 12.6477 -4.14896 3.83762
36 1 -1.1104 12.6794 -1.60967 1.17679
37 2 2.2208 11.1113 -3.04222 2.44467
39 1 -1.1104 13.063 -1.18887 4.03173
40 1 -1.1104 9.76389 -4.38038 0.988793
42 2 2.2208 8.30823 -0.310859 2.50077
43 1 -1.1104 9.70942 -4.40176 3.74063
45 2 2.2208 8.27396 -2.94728 5.29303
47 1 -1.1104 9.742 -1.65495 1.16347
48 1 -1.1104 9.88218 -1.5375 4.06413
671 2 2.2208 11.242 -0.397581 -0.383101
171 1 -1.1104 6.43571 -1.69738 6.40977
210 1 -1.1104 9.60113 -1.75723 6.84032
9103 2 2.2208 -0.116117 19.6547 8.16049
3 1 -1.1104 1.14131 1.19315 0.921389
7 1 -1.1104 1.33468 1.3727 4.04537
13 2 2.2208 5.4171 2.67855 2.56023
17 1 -1.1104 4.13746 1.36908 1.1426
20 1 -1.1104 4.06179 1.35752 3.88935
22 2 2.2208 2.66653 2.80468 5.27041
54 2 2.2208 5.39778 5.54285 5.22696
56 1 -1.1104 0.909489 6.97656 1.00566
60 1 -1.1104 1.17994 4.1045 1.08191
67 1 -1.1104 1.37769 4.24258 3.85256
71 1 -1.1104 3.91965 6.99017 0.979912
72 2 2.2208 2.39966 5.63308 2.48597
76 1 -1.1104 4.06595 4.18865 1.05442
79 1 -1.1104 4.05447 4.28651 3.97891
74 1 -1.1104 3.96239 6.99484 3.66384
58 1 -1.1104 1.01757 7.00365 3.87741
666 2 2.2208 5.75321 5.50714 -0.175407
83 1 -1.1104 12.4486 15.4422 9.91508
167 1 -1.1104 1.28022 1.47021 6.97244
674 2 2.2208 2.55587 2.76199 -0.35471
57 1 -1.1104 6.90104 6.93447 0.878101
9 1 -1.1104 6.66548 0.948897 3.95472
5 1 -1.1104 6.87539 1.24482 1.10953
63 1 -1.1104 6.87831 4.03202 1.30619
59 1 -1.1104 6.75383 7.14157 3.60553
69 1 -1.1104 6.81435 4.1263 3.91406
33 1 -1.1104 12.7518 1.14283 1.06532
35 1 -1.1104 12.4846 1.60162 3.90012
38 2 2.2208 11.0778 2.7136 2.3999
41 1 -1.1104 9.77759 1.24864 1.02069
44 1 -1.1104 9.58802 1.45134 3.71768
46 2 2.2208 7.94235 2.48848 5.21776
84 2 2.2208 10.9938 5.50249 5.27037
88 1 -1.1104 12.715 4.03705 1.19473
92 1 -1.1104 12.4159 4.12196 4.02551
95 2 2.2208 8.25113 5.7035 2.45304
99 1 -1.1104 9.64821 4.03746 1.26311
102 1 -1.1104 9.56061 4.15716 4.09086
94 1 -1.1104 9.84702 6.96628 1.2645
97 1 -1.1104 9.56074 6.92551 3.84905
86 1 -1.1104 12.5061 6.98817 1.2299
87 1 -1.1104 12.4523 6.89229 3.97516
669 2 2.2208 8.13548 2.67072 -0.250092
658 2 2.2208 8.28145 8.51033 -0.415792
9101 2 2.2208 -0.109357 14.2039 8.09162
55 2 2.2208 5.44484 11.1052 5.24385
61 1 -1.1104 1.21027 9.8577 1.12812
66 2 2.2208 5.3003 8.41506 2.35109
68 1 -1.1104 1.12193 9.84637 3.97146
73 2 2.2208 2.71873 11.3956 2.55013
75 2 2.2208 2.45069 8.34793 5.44205
77 1 -1.1104 4.21181 10.0211 1.34517
80 1 -1.1104 3.94366 9.67355 4.04801
107 1 -1.1104 1.12243 12.7431 0.859131
113 1 -1.1104 1.11045 12.7339 3.70945
123 1 -1.1104 3.87426 12.6959 0.89504
128 1 -1.1104 4.00221 12.4829 3.90834
110 1 -1.1104 6.79183 12.4472 0.873033
9094 2 2.2208 0.0563014 5.49127 5.43787
9087 2 2.2208 -0.131366 2.76938 2.6508
9090 2 2.2208 -0.0599562 11.1662 10.8257
9088 2 2.2208 -0.427238 5.36031 10.7589
124 1 -1.1104 4.02804 12.2912 6.56609
108 1 -1.1104 1.36123 12.6708 6.70152
8801 2 2.2208 -0.262097 -5.49559 11.2613
9095 2 2.2208 -0.265401 8.32586 2.45206
64 1 -1.1104 6.76689 9.75186 0.746638
664 2 2.2208 5.2902 11.3391 -0.360325
70 1 -1.1104 6.92415 9.82049 3.75806
115 1 -1.1104 6.85635 12.5033 3.69835
85 2 2.2208 11.0902 11.019 5.20294
89 1 -1.1104 12.5884 9.60699 1.21316
91 2 2.2208 11.0533 8.36461 2.5034
93 1 -1.1104 12.5896 9.84795 3.89891
96 2 2.2208 8.11074 11.0906 2.24719
98 2 2.2208 8.12309 8.48685 5.35382
100 1 -1.1104 9.69422 9.71204 1.0168
103 1 -1.1104 9.64439 9.67701 3.93013
142 1 -1.1104 12.4647 12.6743 1.21418
146 1 -1.1104 12.6443 12.5968 3.74329
153 1 -1.1104 9.55706 12.5849 1.19492
158 1 -1.1104 9.67813 12.2424 4.0668
111 1 -1.1104 6.79728 12.7842 6.53285
25 1 -1.1104 6.88932 15.2495 12.1662
50 1 -1.1104 12.3085 18.2373 9.60003
130 2 2.2208 2.58475 14.1037 5.47402
119 2 2.2208 5.30899 14.0666 2.41946
106 2 2.2208 5.47502 16.7329 5.34947
109 1 -1.1104 1.09555 18.0608 0.843415
114 1 -1.1104 1.0645 18.459 3.71457
116 1 -1.1104 0.978706 15.401 1.13499
120 2 2.2208 5.45589 19.6117 2.42585
121 1 -1.1104 1.21198 15.2102 3.86345
125 1 -1.1104 3.7655 18.6291 1.22566
127 2 2.2208 2.44905 16.8028 2.35323
129 1 -1.1104 3.9188 18.1091 3.89174
131 2 2.2208 2.56384 19.5905 5.20128
132 1 -1.1104 4.16942 15.5158 1.13161
134 1 -1.1104 4.0535 15.2253 3.88691
138 1 -1.1104 6.84878 18.1475 0.826444
680 2 2.2208 8.29174 14.1276 -0.520214
665 2 2.2208 2.60576 8.38692 -0.257984
9097 2 2.2208 -0.259173 14.1301 2.37081
9098 2 2.2208 -0.219212 16.8394 5.26707
126 1 -1.1104 3.84789 18.1777 6.78039
8409 2 2.2208 2.7715 -5.49945 2.49799
663 2 2.2208 11.189 5.63001 -0.193676
678 2 2.2208 8.36608 19.9014 -0.327449
9099 2 2.2208 -0.256698 2.60038 8.33626
122 1 -1.1104 6.74518 15.2541 3.57952
140 1 -1.1104 6.83802 15.3238 0.771775
139 1 -1.1104 6.87531 18.2907 3.83451
160 2 2.2208 8.33817 13.8293 5.01113
150 2 2.2208 11.0789 14.1476 2.67759
141 2 2.2208 11.2373 16.8512 5.47357
144 1 -1.1104 12.5525 18.2707 1.44095
147 1 -1.1104 12.542 18.3323 4.10105
148 1 -1.1104 12.5563 15.393 1.2634
151 2 2.2208 11.3237 19.6641 2.51719
152 1 -1.1104 12.5706 15.4412 4.17511
155 1 -1.1104 9.87151 18.5655 1.06378
157 2 2.2208 8.22981 16.949 2.34001
159 1 -1.1104 9.56462 18.0844 3.75078
161 2 2.2208 8.29516 19.7107 4.96377
162 1 -1.1104 9.68687 15.4803 1.14522
164 1 -1.1104 9.76953 15.3482 3.99651
174 1 -1.1104 3.82677 -1.56603 6.70833
170 1 -1.1104 1.25941 -1.50656 7.05038
9445 2 2.2208 -0.222225 5.60258 -0.256359
166 1 -1.1104 1.08056 -4.33759 6.86314
9100 2 2.2208 -0.178785 -2.90828 8.40063
175 2 2.2208 5.56613 -0.150484 10.8816
176 1 -1.1104 1.33572 -4.33988 12.4642
180 1 -1.1104 0.850267 -4.24838 9.85831
184 1 -1.1104 1.59533 -1.50686 12.5754
186 2 2.2208 5.40131 -3.07568 8.10686
188 1 -1.1104 1.35129 -1.22949 9.94692
190 1 -1.1104 4.11274 -4.15521 12.211
192 2 2.2208 2.70723 -0.149023 8.2719
193 1 -1.1104 3.66209 -4.38669 9.6143
195 2 2.2208 2.66675 -2.89892 10.9338
197 1 -1.1104 4.40178 -1.56813 12.3232
198 1 -1.1104 4.24275 -1.78187 9.67709
568 2 2.2208 2.40422 13.953 -0.472106
9104 2 2.2208 -0.327917 -0.0586735 11.3027
207 1 -1.1104 12.5758 -1.61482 6.72807
200 2 2.2208 8.29387 19.6751 10.6125
168 1 -1.1104 6.87256 -4.36123 6.8254
178 1 -1.1104 6.75756 -4.58165 12.507
182 1 -1.1104 6.95896 -4.4886 9.68613
189 1 -1.1104 7.01238 -1.79671 9.31561
208 1 -1.1104 9.83755 -4.49143 6.57666
205 1 -1.1104 12.8133 -4.52335 6.68473
185 1 -1.1104 6.81336 -1.60797 12.1695
211 2 2.2208 11.2179 -0.198473 11.0763
212 1 -1.1104 12.4663 -4.45544 12.3513
214 1 -1.1104 12.3973 -4.51666 9.48919
216 1 -1.1104 12.4616 -1.71668 12.5934
217 2 2.2208 11.0855 -2.94306 8.06331
219 1 -1.1104 12.8296 -1.58632 9.76072
220 1 -1.1104 9.62771 -4.40578 12.1987
222 2 2.2208 8.18883 -0.346749 8.12618
223 1 -1.1104 9.59657 -4.40004 9.13586
225 2 2.2208 8.35889 -2.88646 10.9525
227 1 -1.1104 9.91403 -1.4122 12.5026
228 1 -1.1104 9.79634 -1.52456 9.60358
239 1 -1.1104 4.20947 3.91788 6.76584
237 1 -1.1104 6.79465 4.15628 6.60629
9091 2 2.2208 -0.228079 -0.104234 5.55303
236 1 -1.1104 1.09612 4.25484 6.90772
173 1 -1.1104 3.99994 1.20534 6.47678
234 1 -1.1104 1.28073 6.82185 6.65067
238 1 -1.1104 3.97118 6.85955 6.6494
177 1 -1.1104 1.18743 1.11925 12.4153
181 1 -1.1104 1.55955 1.37308 9.67461
187 2 2.2208 5.45209 2.58219 8.05352
191 1 -1.1104 3.87466 1.31129 12.611
194 1 -1.1104 4.30219 1.11406 9.32147
196 2 2.2208 2.47121 2.75018 11.0963
240 2 2.2208 5.37823 5.63486 11.0966
246 1 -1.1104 0.851282 3.88129 12.2509
251 1 -1.1104 1.15684 4.25948 9.68952
256 2 2.2208 2.77797 5.37947 8.04531
260 1 -1.1104 3.92106 4.17556 12.4341
262 1 -1.1104 4.0283 3.99711 9.50313
258 1 -1.1104 4.06597 6.60232 9.54018
242 1 -1.1104 1.24738 6.76505 12.2831
183 1 -1.1104 6.94051 1.08809 9.7041
255 1 -1.1104 4.00842 7.00903 12.3772
244 1 -1.1104 1.31967 6.94328 9.48457
53 1 -1.1104 12.2071 15.3266 12.4004
248 1 -1.1104 6.849 4.14726 12.3638
235 1 -1.1104 6.64854 7.07833 6.46546
206 1 -1.1104 12.4594 1.35082 6.59946
266 1 -1.1104 12.433 3.97634 6.92745
269 1 -1.1104 9.47566 3.96979 6.96949
267 1 -1.1104 9.59401 7.02348 6.75464
243 1 -1.1104 6.83417 6.85157 12.4125
179 1 -1.1104 6.6633 1.43666 12.3487
245 1 -1.1104 6.69221 6.73897 9.52343
209 1 -1.1104 9.4984 1.11659 6.41512
265 1 -1.1104 12.1165 6.72583 6.92455
169 1 -1.1104 6.91452 1.12243 6.94634
253 1 -1.1104 6.93247 3.87799 9.29469
213 1 -1.1104 12.7409 1.03318 12.4299
215 1 -1.1104 12.3835 1.33074 9.66911
218 2 2.2208 10.9006 2.63481 8.22912
221 1 -1.1104 9.80836 1.21131 12.4101
224 1 -1.1104 9.50097 1.3133 9.56523
226 2 2.2208 8.21733 2.7306 10.7933
268 1 -1.1104 9.6876 4.17572 9.75945
271 1 -1.1104 9.62808 3.93341 12.4098
275 2 2.2208 8.12705 5.47834 8.13045
276 2 2.2208 10.8664 5.40957 11.0948
280 1 -1.1104 12.3676 3.81748 12.2817
283 1 -1.1104 12.6528 4.30295 9.83258
273 1 -1.1104 9.6057 6.792 9.53378
285 1 -1.1104 9.52909 7.02321 12.4512
278 1 -1.1104 12.3705 6.69046 12.3394
279 1 -1.1104 12.4127 7.22221 9.65048
9102 2 2.2208 -0.0378367 16.784 11.0032
9089 2 2.2208 -0.152874 8.25167 8.20855
646 2 2.2208 11.1571 11.3422 -0.220591
78 1 -1.1104 4.06501 9.63198 6.76759
62 1 -1.1104 1.0539 9.78557 6.71199
241 2 2.2208 5.50761 10.921 10.7003
247 1 -1.1104 0.940855 9.58528 12.2465
250 2 2.2208 5.50879 8.35888 8.13552
252 1 -1.1104 1.29863 9.63165 9.39458
257 2 2.2208 2.7347 11.0415 7.99356
259 2 2.2208 2.3966 8.26992 10.8891
261 1 -1.1104 3.84339 9.84255 12.3464
263 1 -1.1104 4.0986 9.4702 9.73116
287 1 -1.1104 4.27848 12.4253 12.2067
294 1 -1.1104 1.62495 12.6131 9.43375
299 1 -1.1104 1.45043 12.5254 12.0363
305 1 -1.1104 4.38299 12.5385 9.33373
249 1 -1.1104 6.78299 9.65017 12.4346
65 1 -1.1104 6.81481 9.69928 6.70766
101 1 -1.1104 9.5132 9.75435 6.97351
154 1 -1.1104 9.57702 12.7966 6.75946
297 1 -1.1104 7.0779 12.4139 12.3522
254 1 -1.1104 6.93038 9.6714 9.33471
290 1 -1.1104 7.30772 12.668 9.42112
143 1 -1.1104 12.4302 12.6916 6.5466
90 1 -1.1104 12.2155 9.67585 6.80655
264 1 -1.1104 9.55654 10.1379 9.76406
270 1 -1.1104 9.71994 9.5707 12.4933
272 2 2.2208 8.32316 8.3868 10.8338
274 2 2.2208 8.31915 11.3586 8.00829
277 2 2.2208 11.0516 11.1803 11.0158
281 1 -1.1104 12.7158 9.64262 12.5312
282 2 2.2208 10.9747 8.25068 8.14228
284 1 -1.1104 12.5456 9.94977 9.71908
27 1 -1.1104 12.4875 12.5606 12.662
49 1 -1.1104 12.6321 12.5237 9.65475
104 1 -1.1104 9.72703 12.7041 12.6186
137 1 -1.1104 9.90803 12.6536 9.66192
9096 2 2.2208 -0.38209 11.3368 5.24639
118 1 -1.1104 6.86555 15.2946 6.58456
105 1 -1.1104 9.78791 18.1292 12.4389
112 1 -1.1104 6.68848 18.2522 6.50869
117 1 -1.1104 1.24407 15.4921 6.87233
133 1 -1.1104 4.18071 15.0217 6.74025
302 1 -1.1104 1.12025 18.1548 6.6136
229 2 2.2208 2.78452 14.0108 10.7233
295 2 2.2208 5.62309 14.187 8.00116
136 1 -1.1104 1.34981 15.4264 12.5094
230 2 2.2208 2.65285 19.489 11.1493
233 1 -1.1104 4.02081 15.4468 12.2042
286 1 -1.1104 3.92666 18.186 12.4698
291 1 -1.1104 1.31485 18.3557 9.5185
292 1 -1.1104 1.20109 15.5744 9.73832
293 2 2.2208 5.33831 19.6394 8.12507
298 1 -1.1104 1.20029 18.29 12.5165
300 2 2.2208 5.60009 16.7013 10.9367
301 1 -1.1104 4.00678 18.3567 9.61663
303 2 2.2208 2.49882 16.9937 8.33589
304 1 -1.1104 4.18674 15.649 9.47336
135 2 2.2208 8.28052 16.8854 7.95247
145 1 -1.1104 12.894 18.3235 6.81303
26 2 2.2208 10.986 16.7698 11.1843
156 1 -1.1104 9.60216 18.268 6.66448
288 1 -1.1104 6.86111 18.1126 9.54774
296 1 -1.1104 6.61688 18.0768 12.3631
165 1 -1.1104 9.74202 18.3322 9.35076
204 1 -1.1104 9.66169 15.4006 9.62905
201 1 -1.1104 9.60106 15.3062 12.4962
163 1 -1.1104 9.71231 15.4569 6.96075
149 1 -1.1104 12.6782 15.5793 6.87595
30 1 -1.1104 12.5947 18.4098 12.2975
289 1 -1.1104 6.90572 15.5417 9.32707
199 2 2.2208 8.3999 13.8459 11.0294
81 2 2.2208 11.2069 14.0284 8.1608
82 2 2.2208 11.1125 19.6423 8.00362
9447 2 2.2208 -0.412566 11.3514 -0.24898
681 2 2.2208 2.40452 19.7386 -0.401044
9086 2 2.2208 -0.306497 19.8009 2.49906
9093 2 2.2208 -0.370214 -5.7119 5.42196
335 2 2.2208 5.45382 13.8029 13.6325
337 2 2.2208 5.73302 -0.248987 16.7143
338 1 -1.1104 1.36374 -4.31382 18.2105
342 1 -1.1104 1.30755 -4.0851 15.1345
350 1 -1.1104 1.0691 -1.38373 18.3474
352 2 2.2208 5.5847 -3.06311 19.5462
354 1 -1.1104 1.38243 -1.41326 15.4012
358 1 -1.1104 4.05034 -4.3873 18.1131
360 2 2.2208 2.61294 -0.236941 19.5743
361 1 -1.1104 4.14206 -4.43522 15.2571
365 2 2.2208 2.84056 -2.99233 16.6222
367 1 -1.1104 3.9696 -1.7201 18.2497
368 1 -1.1104 4.18204 -1.64589 15.3143
319 2 2.2208 2.75832 -5.52566 13.6803
351 1 -1.1104 6.91193 -1.7174 18.066
321 2 2.2208 2.64792 -0.00670886 13.9311
9440 2 2.2208 -0.452816 16.9824 27.8058
9108 2 2.2208 -0.0815341 -2.80986 14.1291
331 2 2.2208 11.3154 8.26385 13.6585
356 1 -1.1104 7.11245 -1.36241 15.2705
346 1 -1.1104 7.13337 -4.38447 15.2135
340 1 -1.1104 6.92454 -4.34276 18.0177
380 2 2.2208 11.1172 -0.413968 16.744
381 1 -1.1104 12.8726 -4.39345 18.1559
383 1 -1.1104 12.5668 -4.38374 15.3447
387 1 -1.1104 12.5688 -1.57997 18.3256
388 2 2.2208 11.3795 -3.05037 19.3972
390 1 -1.1104 12.5787 -1.85881 15.4459
392 1 -1.1104 9.55385 -4.65962 17.6781
394 2 2.2208 8.25223 -0.318658 19.5295
395 1 -1.1104 9.76062 -4.42599 15.0193
399 2 2.2208 8.35905 -3.09444 16.5682
401 1 -1.1104 9.63056 -1.6402 18.2919
402 1 -1.1104 9.65529 -1.61438 15.4943
324 2 2.2208 8.43203 -0.0474244 13.8515
325 2 2.2208 10.9839 -2.91948 13.7827
9453 2 2.2208 -0.217126 11.2236 16.6176
9466 2 2.2208 -0.276788 14.0398 25.2536
339 1 -1.1104 1.15639 1.3875 18.2064
344 1 -1.1104 1.31083 1.23607 15.3611
353 2 2.2208 5.13156 2.78275 19.8743
359 1 -1.1104 3.86366 1.35409 18.2414
363 1 -1.1104 4.09242 1.40551 15.4223
366 2 2.2208 2.6252 2.69388 16.681
413 2 2.2208 5.36559 5.48063 16.7195
421 1 -1.1104 1.1142 4.1379 17.9791
426 1 -1.1104 0.978804 4.43084 14.9401
434 1 -1.1104 3.70556 7.12674 18.1949
435 2 2.2208 2.505 5.69761 19.4745
440 1 -1.1104 3.90957 4.19083 18.0564
442 1 -1.1104 3.77863 4.09241 15.1766
415 1 -1.1104 0.975276 7.20154 17.8093
437 1 -1.1104 4.15916 6.91327 15.2761
417 1 -1.1104 1.53292 7.17669 14.9852
438 1 -1.1104 4.04684 7.08174 20.9515
322 2 2.2208 5.50155 2.52804 13.9444
327 2 2.2208 2.5903 5.71722 13.8404
345 1 -1.1104 1.23044 1.13987 20.9575
364 1 -1.1104 3.741 1.28524 21.0613
9457 2 2.2208 -0.0561256 2.64796 19.6424
9468 2 2.2208 -0.337695 16.8632 22.156
9113 2 2.2208 -0.0163926 14.1935 13.857
348 1 -1.1104 6.98082 1.49015 15.2511
430 1 -1.1104 6.74213 4.09474 15.3492
341 1 -1.1104 6.79823 1.21898 17.9465
423 1 -1.1104 6.94803 3.99571 18.1201
416 1 -1.1104 6.99865 6.96639 18.0322
419 1 -1.1104 7.10222 6.83366 15.3857
382 1 -1.1104 12.6331 1.01159 18.0783
385 1 -1.1104 12.6568 1.11403 15.0809
389 2 2.2208 10.8861 2.28205 19.3866
393 1 -1.1104 9.66899 1.06939 17.8611
397 1 -1.1104 9.75969 1.34234 15.1607
400 2 2.2208 8.2724 2.77678 16.6176
449 2 2.2208 11.1368 5.47033 16.4137
451 1 -1.1104 12.7182 6.73939 18.0305
454 1 -1.1104 12.193 3.86629 17.8002
457 1 -1.1104 12.5092 4.21341 15.1944
462 2 2.2208 8.20649 5.29663 19.4575
467 1 -1.1104 9.71772 3.95443 17.9986
469 1 -1.1104 9.74394 4.13545 15.204
452 1 -1.1104 12.5459 6.96084 15.2609
461 1 -1.1104 9.72177 6.79729 18.4117
464 1 -1.1104 9.84832 6.81909 15.2316
9121 2 2.2208 -0.118105 8.27253 13.6255
386 1 -1.1104 12.1163 0.83769 20.6339
677 2 2.2208 5.23979 19.6929 13.7481
414 2 2.2208 5.39914 11.1979 16.6191
422 1 -1.1104 1.3071 10.0249 18.0009
425 2 2.2208 5.32536 8.37614 19.347
428 1 -1.1104 1.08557 9.72458 15.1345
436 2 2.2208 2.73953 11.3492 19.2775
439 2 2.2208 2.55968 8.45349 16.5402
441 1 -1.1104 3.94326 9.84361 18.1001
444 1 -1.1104 3.98234 9.7284 15.2333
477 1 -1.1104 1.06706 12.7546 17.8631
481 1 -1.1104 1.46848 12.6471 14.8801
497 1 -1.1104 4.18621 12.7212 17.7272
500 1 -1.1104 4.10765 12.6394 14.966
491 2 2.2208 5.6179 14.0489 19.4666
9444 2 2.2208 -0.267985 13.9072 19.4277
9437 2 2.2208 -0.174226 -0.118976 16.8403
445 1 -1.1104 3.68546 10.0734 20.8903
429 1 -1.1104 1.09099 9.96576 21.0045
482 1 -1.1104 1.26951 12.5991 20.6059
330 2 2.2208 8.3621 5.467 13.8061
9452 2 2.2208 -0.158944 8.61934 19.3461
371 2 2.2208 5.5779 -5.73122 16.6693
432 1 -1.1104 6.93878 9.70002 15.3385
9478 2 2.2208 -0.117438 19.8257 13.8613
479 1 -1.1104 6.88577 12.5788 18.1852
485 1 -1.1104 6.82112 12.6976 15.219
424 1 -1.1104 6.85468 9.70811 18.017
450 2 2.2208 11.0514 11.1105 16.6965
455 1 -1.1104 12.4799 9.63515 17.8986
456 2 2.2208 11.1187 8.25537 19.5587
459 1 -1.1104 12.4918 9.73053 15.198
463 2 2.2208 8.33176 10.9399 19.6943
466 2 2.2208 8.33198 8.15074 16.5383
468 1 -1.1104 9.84183 9.77254 18.2613
471 1 -1.1104 9.69483 9.90333 15.324
513 1 -1.1104 12.6919 12.4587 17.9842
515 1 -1.1104 12.7372 12.8054 15.3223
524 1 -1.1104 9.46717 12.4126 18.318
527 1 -1.1104 9.62375 12.8425 15.4805
531 2 2.2208 8.20379 13.9456 16.703
9438 2 2.2208 -0.295951 -2.9473 19.5043
504 2 2.2208 2.55328 14.0285 16.5875
476 2 2.2208 5.43488 16.789 16.7478
478 1 -1.1104 1.20122 18.4738 17.9491
483 1 -1.1104 1.07942 18.2357 15.3732
489 1 -1.1104 1.0045 15.4013 18.1662
492 2 2.2208 5.30179 19.7314 19.42
493 1 -1.1104 1.3045 15.5296 15.2699
498 1 -1.1104 4.24676 18.287 18.1026
499 2 2.2208 2.46745 16.9261 19.5063
502 1 -1.1104 3.93062 18.1465 15.0761
505 2 2.2208 2.64693 19.8374 16.6682
506 1 -1.1104 4.03126 15.3738 18.0624
507 1 -1.1104 3.94754 15.2535 14.883
487 1 -1.1104 6.9364 18.1954 15.2248
495 1 -1.1104 6.96716 15.3913 15.1906
318 2 2.2208 11.184 13.9994 14.0002
9439 2 2.2208 -0.232587 5.5298 22.3609
9470 2 2.2208 -0.165977 2.65032 25.0984
333 2 2.2208 2.66457 16.7998 13.7524
508 1 -1.1104 3.84851 15.7353 21.2221
572 2 2.2208 11.2929 19.6462 25.0153
490 1 -1.1104 7.05856 15.4863 18.1969
480 1 -1.1104 6.91237 18.2487 17.9929
488 1 -1.1104 6.9654 18.1675 20.9242
9474 2 2.2208 -0.149204 8.30399 25.2331
520 2 2.2208 10.8541 13.9182 19.4331
512 2 2.2208 11.2675 16.699 16.3581
514 1 -1.1104 12.3851 17.9439 17.9826
517 1 -1.1104 12.6942 18.3649 15.1712
519 1 -1.1104 12.5287 15.1679 18.1976
521 2 2.2208 11.0578 19.545 19.3616
522 1 -1.1104 12.7089 15.6246 15.1273
525 1 -1.1104 9.78231 18.1174 17.8035
526 2 2.2208 8.52529 16.857 19.2761
529 1 -1.1104 9.99305 18.0115 15.0534
532 2 2.2208 8.26121 19.4206 16.5361
533 1 -1.1104 9.75825 15.1501 17.9715
534 1 -1.1104 9.77682 15.3148 15.3604
523 1 -1.1104 12.2874 15.4047 20.801
9451 2 2.2208 -0.372047 5.59126 16.5929
328 2 2.2208 5.48906 8.3105 13.885
357 1 -1.1104 6.93603 -1.51765 21.0722
9469 2 2.2208 -0.312902 -0.131962 22.2887
9446 2 2.2208 -0.324561 19.9731 19.3729
355 1 -1.1104 1.00073 -1.53982 20.9759
362 1 -1.1104 4.13503 -4.46891 20.8475
9442 2 2.2208 -0.352209 19.5912 25.0159
343 1 -1.1104 1.25305 -4.46059 21.1699
369 1 -1.1104 4.16862 -1.42344 21.0848
540 2 2.2208 5.24102 -0.00546126 22.6014
541 1 -1.1104 1.21693 -4.09829 23.6991
545 1 -1.1104 1.4768 -4.24697 26.3599
549 1 -1.1104 1.10297 -1.26227 24.0208
551 2 2.2208 5.35982 -2.90313 25.2161
553 1 -1.1104 1.35646 -1.17563 26.7953
555 1 -1.1104 4.26953 -4.08388 23.4545
557 2 2.2208 2.62788 0.0365388 25.3691
558 1 -1.1104 4.16935 -4.31596 26.7987
560 2 2.2208 2.70109 -2.88295 22.4278
562 1 -1.1104 3.91412 -1.4293 24.0662
563 1 -1.1104 4.10962 -1.48319 26.5611
550 1 -1.1104 6.65702 -1.35387 24.04
9467 2 2.2208 -0.280714 -2.92584 24.9726
347 1 -1.1104 6.96976 -4.49683 20.8266
384 1 -1.1104 12.5906 -4.47834 20.9326
396 1 -1.1104 9.96955 -4.4645 20.6258
391 1 -1.1104 12.5816 -1.69071 21.1739
9112 2 2.2208 -0.362203 2.76174 13.9398
547 1 -1.1104 6.82381 -4.46009 26.2604
554 1 -1.1104 6.84305 -1.62042 26.5516
543 1 -1.1104 6.95656 -4.3812 23.5729
403 1 -1.1104 9.83753 -1.86389 20.8542
576 2 2.2208 11.0858 -0.302477 22.4026
577 1 -1.1104 12.7464 -4.35258 23.5545
579 1 -1.1104 12.4224 -4.14872 26.6269
581 1 -1.1104 12.6284 -1.72431 23.7868
582 2 2.2208 11.2277 -3.09542 25.128
584 1 -1.1104 12.44 -1.46217 26.5436
585 1 -1.1104 9.777 -4.77502 23.6927
587 2 2.2208 8.50685 -0.247446 25.1374
588 1 -1.1104 9.73003 -4.32718 26.4196
590 2 2.2208 8.31962 -3.15822 22.2943
592 1 -1.1104 9.77267 -1.73629 23.556
593 1 -1.1104 9.6581 -1.73081 26.5961
427 1 -1.1104 1.20639 4.15408 20.9129
443 1 -1.1104 3.78843 4.37817 20.9655
418 1 -1.1104 0.904255 7.02292 20.8226
542 1 -1.1104 1.07827 1.3571 23.8439
546 1 -1.1104 1.29051 1.6012 26.6058
552 2 2.2208 5.4397 2.77191 25.2517
556 1 -1.1104 3.82079 1.19861 23.8173
559 1 -1.1104 3.98809 1.22523 26.6055
561 2 2.2208 2.47929 2.66092 22.4297
605 2 2.2208 5.43142 5.47621 22.4197
611 1 -1.1104 1.22207 4.10799 23.7402
616 1 -1.1104 1.15465 4.30611 26.5672
621 2 2.2208 2.71409 5.57991 25.1431
623 1 -1.1104 4.26561 6.67256 26.564
625 1 -1.1104 4.10137 4.16006 23.6965
627 1 -1.1104 4.12588 4.14188 26.6331
609 1 -1.1104 1.22621 6.95178 26.5644
620 1 -1.1104 3.95003 7.08468 23.8667
607 1 -1.1104 1.44828 6.98033 23.4515
608 1 -1.1104 6.75371 6.6955 23.7876
548 1 -1.1104 6.94961 1.13193 26.5074
613 1 -1.1104 6.78388 3.97694 23.9271
465 1 -1.1104 9.75659 6.46302 21.3521
398 1 -1.1104 9.61003 0.941992 20.8089
470 1 -1.1104 9.79094 3.80259 20.8139
544 1 -1.1104 6.77906 1.54012 23.6291
431 1 -1.1104 6.90436 4.0684 21.0206
349 1 -1.1104 6.6126 1.15507 20.8568
420 1 -1.1104 6.9141 6.64439 20.7364
618 1 -1.1104 6.94615 4.11871 26.7111
610 1 -1.1104 6.91646 6.93395 26.2822
453 1 -1.1104 12.6438 6.63817 21.1888
458 1 -1.1104 12.5122 3.85102 20.9901
589 1 -1.1104 9.75085 1.01398 26.6101
578 1 -1.1104 12.6522 1.17154 23.6544
580 1 -1.1104 12.5921 1.26304 26.5934
583 2 2.2208 11.1905 2.582 25.2063
586 1 -1.1104 9.9045 1.11745 23.8699
591 2 2.2208 8.2973 2.76513 22.468
573 1 -1.1104 9.66994 7.17093 23.933
575 1 -1.1104 12.4654 4.1687 26.7394
603 1 -1.1104 12.7578 3.98645 23.9056
633 1 -1.1104 12.4465 7.00453 26.836
637 1 -1.1104 9.72419 3.80866 26.5388
639 1 -1.1104 9.73284 4.02302 23.683
643 2 2.2208 8.36786 5.30665 25.2999
644 2 2.2208 11.1836 5.08104 22.2793
641 1 -1.1104 9.60163 6.65663 26.7709
634 1 -1.1104 12.4399 7.04486 24.0164
564 1 -1.1104 12.514 18.0118 23.923
501 1 -1.1104 3.96004 12.7205 20.834
606 2 2.2208 5.2689 11.0812 22.2878
612 1 -1.1104 1.2901 9.90884 23.6134
615 2 2.2208 5.27607 8.51652 25.3958
617 1 -1.1104 1.33609 9.60415 26.4175
622 2 2.2208 2.63185 11.1888 25.1111
624 2 2.2208 2.7134 8.455 22.2771
626 1 -1.1104 4.1183 9.81018 23.8653
628 1 -1.1104 4.09611 10.0091 26.6177
379 1 -1.1104 4.25215 12.8978 26.5597
410 1 -1.1104 1.16119 12.9378 23.8197
473 1 -1.1104 1.34217 12.4846 26.4252
510 1 -1.1104 3.97101 12.6068 23.736
619 1 -1.1104 6.83708 10.0478 26.3706
412 1 -1.1104 7.01085 12.6738 23.4639
9475 2 2.2208 -0.257651 11.2821 22.3175
9443 2 2.2208 -0.241842 16.8974 16.6023
569 2 2.2208 10.9077 14.0165 25.1776
433 1 -1.1104 6.46307 9.57855 20.9964
614 1 -1.1104 6.9484 9.88093 23.5261
486 1 -1.1104 6.79312 12.1752 20.977
528 1 -1.1104 9.59786 12.4182 20.9178
472 1 -1.1104 9.37756 9.51725 21.0019
460 1 -1.1104 12.2289 9.73923 20.7703
511 1 -1.1104 7.00343 12.4234 26.28
516 1 -1.1104 12.3873 12.362 20.5948
574 1 -1.1104 12.606 9.90234 26.4614
597 2 2.2208 11.1348 8.22736 25.3246
602 1 -1.1104 12.417 9.95171 23.772
636 1 -1.1104 9.53316 9.66901 26.4869
638 1 -1.1104 9.82824 10.0938 23.9052
640 2 2.2208 8.14325 8.0513 22.4034
642 2 2.2208 8.27944 11.18 24.9986
645 2 2.2208 10.9997 11.1917 22.3002
595 1 -1.1104 9.62781 12.7046 23.8756
604 1 -1.1104 9.93657 12.5196 26.6062
539 1 -1.1104 12.5101 12.8309 23.5575
565 1 -1.1104 12.3708 12.7308 26.4454
567 1 -1.1104 12.4759 15.3349 23.8574
374 2 2.2208 11.1675 19.7041 13.8061
494 1 -1.1104 1.07932 15.4099 20.7215
535 1 -1.1104 9.69556 15.3036 20.8231
601 1 -1.1104 6.85727 18.2557 26.4446
484 1 -1.1104 0.949959 18.3633 20.7755
503 1 -1.1104 3.99132 18.2844 20.8275
509 1 -1.1104 6.82111 15.4659 26.4366
446 2 2.2208 5.48595 14.0299 25.0918
537 2 2.2208 2.22587 14.0147 22.3521
375 2 2.2208 2.73018 19.797 22.2088
376 1 -1.1104 3.90559 15.5233 23.9037
377 1 -1.1104 1.14189 15.5759 23.6557
404 1 -1.1104 3.75206 15.7009 26.5874
407 2 2.2208 2.61357 16.9072 25.0519
408 1 -1.1104 3.87516 18.4526 26.1613
409 2 2.2208 5.42944 16.7462 22.279
411 1 -1.1104 0.903023 18.3255 23.5156
447 2 2.2208 5.48211 19.6543 24.9401
474 1 -1.1104 1.12094 15.4871 26.7268
475 1 -1.1104 1.04101 18.2107 26.276
536 1 -1.1104 4.17365 18.3012 23.536
629 1 -1.1104 9.59219 18.2796 26.5844
596 1 -1.1104 9.75095 18.1525 23.6401
598 2 2.2208 8.39587 16.9082 25.0741
594 1 -1.1104 12.4797 15.5868 26.7253
631 2 2.2208 8.3448 19.7906 22.1379
630 2 2.2208 8.30026 13.9982 22.3494
566 1 -1.1104 12.4544 18.2819 26.8151
448 1 -1.1104 7.02701 18.3589 23.7798
530 1 -1.1104 9.67726 18.1767 20.7216
496 1 -1.1104 6.95388 15.5102 20.7273
538 2 2.2208 10.8737 16.782 22.0757
635 1 -1.1104 9.60231 15.5271 26.6923
378 1 -1.1104 6.94581 15.55 23.6296
632 1 -1.1104 9.52873 15.4288 23.6918
518 1 -1.1104 12.3914 18.1772 20.8414
332 2 2.2208 8.37556 11.1862 14.0953
571 2 2.2208 2.76296 -5.68646 25.0876
317 2 2.2208 8.21095 16.6448 13.7691
406 2 2.2208 8.44943 -5.67632 19.5004
667 2 2.2208 5.49771 16.8877 27.7604
320 2 2.2208 5.46373 -3.02627 13.7469
326 2 2.2208 11.1369 2.65498 13.6985
684 2 2.2208 5.37747 22.4589 5.22917
686 1 -1.1104 1.39911 24.0246 0.901176
687 1 -1.1104 1.04297 23.6657 3.79935
688 1 -1.1104 1.11741 21.0865 0.822127
690 2 2.2208 5.48742 25.375 2.37924
691 1 -1.1104 1.15996 20.9448 3.85318
693 1 -1.1104 4.29495 24.0533 1.01327
694 2 2.2208 2.60991 22.5206 2.38148
696 1 -1.1104 4.05305 24.2356 4.04972
697 2 2.2208 2.51541 25.266 5.42945
698 1 -1.1104 4.14671 21.1782 1.00381
700 1 -1.1104 4.0938 21.2604 3.63118
692 1 -1.1104 1.34464 26.7933 4.02046
699 1 -1.1104 4.06054 27.0326 1.01665
701 1 -1.1104 4.14816 27.0587 3.80578
689 1 -1.1104 1.14725 26.7767 1.36711
709 1 -1.1104 6.88227 21.0004 3.86243
710 1 -1.1104 7.12524 26.5383 3.73852
9813 2 2.2208 -0.268837 22.4342 5.24077
1030 2 2.2208 8.37776 31.0541 -0.365145
9787 2 2.2208 -0.185906 30.9992 7.79287
831 1 -1.1104 3.9246 23.8266 6.78957
827 1 -1.1104 1.09669 21.0574 6.65365
825 1 -1.1104 0.899125 23.9607 6.7222
830 1 -1.1104 6.5871 26.7879 6.63432
915 1 -1.1104 9.51734 46.5273 6.36871
705 1 -1.1104 7.00578 23.8013 0.948699
706 1 -1.1104 6.84992 23.7798 4.11257
707 1 -1.1104 6.98198 20.9667 1.18748
711 2 2.2208 11.255 22.3704 5.41963
713 1 -1.1104 12.8636 23.9192 1.17441
714 1 -1.1104 12.4703 24.0255 3.85154
715 1 -1.1104 12.7286 21.0723 0.972862
717 2 2.2208 11.155 25.2378 2.443
718 1 -1.1104 12.6658 21.2976 3.936
720 1 -1.1104 9.93955 24.1912 0.812817
721 2 2.2208 8.10179 22.4747 2.44104
723 1 -1.1104 9.46004 23.7811 3.84035
724 2 2.2208 8.14954 25.1297 5.37898
725 1 -1.1104 9.71697 21.5096 0.827
727 1 -1.1104 9.74282 20.9474 3.48617
716 1 -1.1104 12.655 26.7176 1.1824
1387 1 -1.1104 3.73444 46.4522 0.986848
719 1 -1.1104 12.5692 26.7446 4.11395
1035 2 2.2208 11.1849 22.4979 -0.42016
9811 2 2.2208 -0.264309 28.1638 10.7571
1026 2 2.2208 8.18309 25.2948 -0.382754
685 2 2.2208 5.43398 28.1425 5.2492
695 2 2.2208 2.82057 28.3291 2.41349
733 1 -1.1104 1.33708 29.6042 0.631547
736 1 -1.1104 1.25074 29.9053 3.56007
739 1 -1.1104 1.02992 32.4499 1.1501
740 2 2.2208 5.36606 31.0812 2.53527
742 1 -1.1104 0.985314 32.7038 3.89501
744 1 -1.1104 3.9921 30.0278 0.80312
747 1 -1.1104 4.02938 29.7777 3.71901
749 2 2.2208 2.70812 31.0636 5.16928
751 1 -1.1104 3.85981 32.4549 1.01816
752 1 -1.1104 3.83379 32.6654 3.98845
756 1 -1.1104 7.06314 29.6167 1.1642
757 1 -1.1104 7.16391 29.2554 4.12669
9790 2 2.2208 -0.37434 36.812 2.33633
1032 2 2.2208 5.50807 22.5575 -0.432305
1033 2 2.2208 2.74939 36.9599 -0.367952
708 1 -1.1104 6.56851 26.8737 0.990351
726 1 -1.1104 9.49764 26.9701 0.962786
728 1 -1.1104 9.91684 26.4196 3.88088
863 1 -1.1104 9.21691 26.7773 6.58739
743 1 -1.1104 6.97063 32.5011 3.83658
758 1 -1.1104 6.74119 32.4009 1.19795
712 2 2.2208 11.0328 28.1503 5.39389
722 2 2.2208 8.35369 27.9967 2.63627
760 1 -1.1104 12.6954 29.3832 1.03453
762 1 -1.1104 13.0045 29.4752 4.01725
764 1 -1.1104 12.6924 32.3014 1.13909
765 2 2.2208 11.334 30.8214 2.28945
767 1 -1.1104 12.7276 32.4745 3.94841
768 1 -1.1104 9.87228 29.4577 1.11262
771 1 -1.1104 9.90762 29.4022 3.84745
773 2 2.2208 8.40436 30.8717 5.09558
775 1 -1.1104 9.67221 32.2971 1.08365
776 1 -1.1104 9.74205 32.2279 3.78974
9802 2 2.2208 -0.369665 25.4556 8.11531
996 1 -1.1104 12.2913 41.0165 9.35012
884 1 -1.1104 7.07117 29.5417 6.86692
921 1 -1.1104 9.63499 32.2976 6.5567
918 1 -1.1104 12.566 32.3564 6.66297
1022 2 2.2208 5.32359 33.7357 -0.406948
9779 2 2.2208 -0.279982 28.2603 4.89007
732 2 2.2208 5.66207 33.9638 5.1591
734 1 -1.1104 1.01864 35.2288 0.92109
737 1 -1.1104 1.24651 35.4897 3.60547
741 2 2.2208 5.34145 36.8147 2.52942
745 1 -1.1104 3.85033 35.5069 1.06945
746 2 2.2208 2.38727 33.8375 2.47413
748 1 -1.1104 4.19652 35.552 3.96212
750 2 2.2208 2.44536 36.6243 5.17479
778 2 2.2208 5.53516 39.4268 5.22194
784 1 -1.1104 1.2192 38.0825 0.832938
789 1 -1.1104 0.890303 38.2382 3.84747
794 2 2.2208 2.50091 39.4817 2.472
798 1 -1.1104 3.97824 38.2666 1.09592
800 1 -1.1104 3.82695 38.2356 3.98758
738 1 -1.1104 7.20219 35.2085 3.71209
1001 2 2.2208 10.9223 42.6704 13.5285