LAMMPS (29 Oct 2020)
OMP_NUM_THREADS environment is not set. Defaulting to 1 thread. (../comm.cpp:94)
  using 1 OpenMP thread(s) per MPI task
OMP_NUM_THREADS environment is not set. Defaulting to 1 thread. (../comm.cpp:94)
  using 1 OpenMP thread(s) per MPI task
Lattice spacing in x,y,z = 5.5788000 5.5788000 5.5788000
Created orthogonal box = (0.0000000 0.0000000 0.0000000) to (27.894000 334.72800 27.894000)
  2 by 13 by 2 MPI processor grid
Changing box ...
  triclinic box = (0.0000000 0.0000000 0.0000000) to (27.894000 334.72800 27.894000) with tilt (0.0000000 0.0000000 0.0000000)
Created 6000 atoms
  create_atoms CPU = 0.006 seconds
Lattice spacing in x,y,z = 5.5788000 5.5788000 5.5788000
Created 12000 atoms
  create_atoms CPU = 0.001 seconds
Lattice spacing in x,y,z = 5.5788000 5.5788000 5.5788000
Created 6000 atoms
  create_atoms CPU = 0.001 seconds
12000 atoms in group oxygen
6000 atoms in group uranium
3000 atoms in group octoxygen
3000 atoms in group octuran
Setting atom values ...
  30 settings made for type/ratio
Setting atom values ...
  15 settings made for type/ratio
Setting atom values ...
  2970 settings made for type/ratio
Setting atom values ...
  2985 settings made for type/ratio
30 atoms in group odel
15 atoms in group udel
2970 atoms in group octOdel
2985 atoms in group octUdel
WARNING: Ignoring 'compress yes' for molecular system (../delete_atoms.cpp:125)
Deleted 30 atoms, new total = 23970
WARNING: Ignoring 'compress yes' for molecular system (../delete_atoms.cpp:125)
Deleted 15 atoms, new total = 23955
WARNING: Ignoring 'compress yes' for molecular system (../delete_atoms.cpp:125)
Deleted 2970 atoms, new total = 20985
WARNING: Ignoring 'compress yes' for molecular system (../delete_atoms.cpp:125)
Deleted 2985 atoms, new total = 18000
12000 atoms in group 1
6000 atoms in group 2
Setting atom values ...
  12000 settings made for type
Setting atom values ...
  6000 settings made for type
Setting atom values ...
  12000 settings made for charge
Setting atom values ...
  6000 settings made for charge
PPPM initialization ...
  using 12-bit tables for long-range coulomb (../kspace.cpp:328)
  G vector (1/distance) = 0.29916851
  grid = 40 240 40
  stencil order = 5
  estimated absolute RMS force accuracy = 0.00015502622
  estimated relative force accuracy = 1.0765975e-05
  using single precision MKL FFT
  3d grid and FFT values/proc = 18225 7600
Neighbor list info ...
  update every 1 steps, delay 0 steps, check yes
  max neighbors/atom: 2000, page size: 100000
  master list distance cutoff = 13
  ghost atom cutoff = 13
  binsize = 6.5, bins = 5 52 5
  2 neighbor lists, perpetual/occasional/extra = 2 0 0
  (1) pair coul/long, perpetual
      attributes: half, newton on
      pair build: half/bin/newton/tri
      stencil: half/bin/3d/newton/tri
      bin: standard
  (2) pair eam/alloy, perpetual, copy from (1)
      attributes: half, newton on
      pair build: copy
      stencil: none
      bin: none
Setting up cg style minimization ...
  Unit style    : metal
  Current step  : 0
WARNING: Energy due to 3 extra global DOFs will be included in minimizer energies
Per MPI rank memory allocation (min/avg/max) = 10.44 | 10.47 | 10.49 Mbytes
Step Temp E_pair E_mol TotEng Press Volume 
       0            0   -234876.63            0   -234876.63    7945.6869    260443.57 
     183            0   -236179.05            0   -236179.05    63.749164    262391.09 
Loop time of 3.28212 on 52 procs for 183 steps with 18000 atoms

99.4% CPU use with 52 MPI tasks x 1 OpenMP threads

Minimization stats:
  Stopping criterion = linesearch alpha is zero
  Energy initial, next-to-last, final = 
     -234876.631450708  -236179.046650198  -236179.046650198
  Force two-norm initial, final = 2720.2903 44.470449
  Force max component initial, final = 1924.9946 31.206047
  Final line search alpha, max atom move = 4.1738634e-12 1.3024978e-10
  Iterations, force evaluations = 183 281

MPI task timing breakdown:
Section |  min time  |  avg time  |  max time  |%varavg| %total
---------------------------------------------------------------
Pair    | 1.8131     | 1.9217     | 2.0346     |   3.3 | 58.55
Bond    | 2.282e-05  | 3.8262e-05 | 9.9744e-05 |   0.0 |  0.00
Kspace  | 0.46445    | 0.57824    | 0.68772    |   6.1 | 17.62
Neigh   | 0.0069184  | 0.0080777  | 0.0092513  |   0.6 |  0.25
Comm    | 0.046587   | 0.048378   | 0.050794   |   0.4 |  1.47
Output  | 0          | 0          | 0          |   0.0 |  0.00
Modify  | 0          | 0          | 0          |   0.0 |  0.00
Other   |            | 0.7257     |            |       | 22.11

Nlocal:        346.154 ave         392 max         299 min
Histogram: 4 1 5 7 14 5 2 4 6 4
Nghost:        5656.98 ave        5808 max        5520 min
Histogram: 7 8 5 0 3 9 8 3 1 8
Neighs:       111712.0 ave      127431 max       96661 min
Histogram: 4 0 8 7 15 2 2 6 5 3

Total # of neighbors = 5809007
Ave neighs/atom = 322.72261
Ave special neighs/atom = 0.0000000
Neighbor list builds = 2
Dangerous builds = 0
Resetting atom IDs ...
PPPM initialization ...
  using 12-bit tables for long-range coulomb (../kspace.cpp:328)
  G vector (1/distance) = 0.29905291
  grid = 40 240 40
  stencil order = 5
  estimated absolute RMS force accuracy = 0.00015585195
  estimated relative force accuracy = 1.0823319e-05
  using single precision MKL FFT
  3d grid and FFT values/proc = 18225 7600
Finding 1-2 1-3 1-4 neighbors ...
  special bond factors lj:    0.0      0.0      0.0     
  special bond factors coul:  0.0      0.0      0.0     
     0 = max # of 1-2 neighbors
     0 = max # of 1-3 neighbors
     0 = max # of 1-4 neighbors
     1 = max # of special neighbors
  special bonds CPU = 0.002 seconds
PPPM initialization ...
  using 12-bit tables for long-range coulomb (../kspace.cpp:328)
  G vector (1/distance) = 0.29905291
  grid = 40 240 40
  stencil order = 5
  estimated absolute RMS force accuracy = 0.00015585195
  estimated relative force accuracy = 1.0823319e-05
  using single precision MKL FFT
  3d grid and FFT values/proc = 18225 7600
Setting up Verlet run ...
  Unit style    : metal
  Current step  : 0
  Time step     : 0.001
Per MPI rank memory allocation (min/avg/max) = 10.59 | 10.62 | 10.64 Mbytes
Step Temp Dt Atoms TotEng Time KinEng PotEng Press v_latt 
       0         1200        0.001    18000   -233387.19            0     2791.864   -236179.05    11428.355    5.5926754 
   50000    1212.7655        0.001    18000   -230792.43           50    2821.5636      -233614   -1029.8297    5.6525885 
  100000    1188.8992        0.001    18000   -230898.66          100    2766.0374    -233664.7   -857.08242    5.6513437 
Loop time of 874.997 on 52 procs for 100000 steps with 18000 atoms

Performance: 9.874 ns/day, 2.431 hours/ns, 114.286 timesteps/s
99.8% CPU use with 52 MPI tasks x 1 OpenMP threads

MPI task timing breakdown:
Section |  min time  |  avg time  |  max time  |%varavg| %total
---------------------------------------------------------------
Pair    | 545.15     | 553.74     | 564.93     |  21.0 | 63.28
Bond    | 0.01045    | 0.014329   | 0.018986   |   1.6 |  0.00
Kspace  | 153.55     | 165.48     | 174.23     |  40.5 | 18.91
Neigh   | 10.448     | 10.817     | 11.441     |   8.7 |  1.24
Comm    | 17.645     | 18.043     | 18.451     |   4.5 |  2.06
Output  | 0.011102   | 0.011113   | 0.011438   |   0.0 |  0.00
Modify  | 112.98     | 118.58     | 122.89     |  26.7 | 13.55
Other   |            | 8.312      |            |       |  0.95

Nlocal:        346.154 ave         364 max         333 min
Histogram: 8 7 3 6 9 5 4 6 1 3
Nghost:        5517.92 ave        5632 max        5404 min
Histogram: 6 5 4 7 3 6 6 3 8 4
Neighs:       107715.0 ave      114173 max      103402 min
Histogram: 5 10 6 5 8 6 4 5 2 1

Total # of neighbors = 5601205
Ave neighs/atom = 311.17806
Ave special neighs/atom = 0.0000000
Neighbor list builds = 2691
Dangerous builds = 0
System init for write_data ...
PPPM initialization ...
  using 12-bit tables for long-range coulomb (../kspace.cpp:328)
  G vector (1/distance) = 0.29844753
  grid = 40 240 40
  stencil order = 5
  estimated absolute RMS force accuracy = 0.00016089669
  estimated relative force accuracy = 1.1173657e-05
  using single precision MKL FFT
  3d grid and FFT values/proc = 18225 7600
Total wall time: 0:14:38
