ITEM: TIMESTEP
300000
ITEM: NUMBER OF ATOMS
18000
ITEM: BOX BOUNDS xy xz yz pp pp pp
-1.1223557717354767e-01 2.8006235577173864e+01 0.0000000000000000e+00
-1.4213551760855241e+00 3.3614935517608228e+02 0.0000000000000000e+00
-1.0757060709218431e-01 2.8001570607090919e+01 0.0000000000000000e+00
ITEM: ATOMS id type q mass x y z
24 2 2.2208 232.038 5.3612 6.90789 13.8339
2 1 -1.1104 15.9994 6.78957 16.7549 12.5172
8257 2 2.2208 232.038 2.92051 -1.55924 2.71737
9318 2 2.2208 232.038 14.003 21.0605 13.8374
340 2 2.2208 232.038 11.2539 18.1834 13.9443
6 1 -1.1104 15.9994 4.05526 19.6994 12.5691
7 1 -1.1104 15.9994 1.30529 19.7684 12.4502
8 2 2.2208 232.038 5.58124 1.35854 2.49093
9 1 -1.1104 15.9994 3.92569 16.937 12.3955
10 2 2.2208 232.038 11.1239 1.25233 2.36438
11 1 -1.1104 15.9994 1.16097 16.6782 12.6123
12 1 -1.1104 15.9994 12.5094 13.942 12.4637
13 2 2.2208 232.038 2.77076 4.12385 2.59071
346 2 2.2208 232.038 2.6233 4.10265 13.8331
15 1 -1.1104 15.9994 12.3888 11.2901 12.5416
16 1 -1.1104 15.9994 9.81031 14.0207 12.4412
17 2 2.2208 232.038 8.21539 4.0868 2.4072
18 2 2.2208 232.038 5.41404 7.01192 2.58769
19 1 -1.1104 15.9994 6.91663 13.9808 12.5539
20 2 2.2208 232.038 11.1219 6.83097 2.4004
343 2 2.2208 232.038 8.31755 20.5743 13.7971
8239 2 2.2208 232.038 13.8079 -1.43191 13.8593
23 2 2.2208 232.038 2.6457 9.74464 2.43833
314 1 -1.1104 15.9994 12.4915 -0.118526 12.4887
25 1 -1.1104 15.9994 9.56987 11.3347 12.6148
26 1 -1.1104 15.9994 6.9419 11.0611 12.4811
27 2 2.2208 232.038 8.3094 9.6876 2.53197
28 2 2.2208 232.038 5.47198 12.5879 2.51298
29 1 -1.1104 15.9994 4.23304 14.1026 12.5765
30 2 2.2208 232.038 11.2903 12.5947 2.48255
313 1 -1.1104 15.9994 9.4984 2.73716 12.3536
32 1 -1.1104 15.9994 1.20942 13.9864 12.4467
33 2 2.2208 232.038 2.71792 15.3087 2.5082
8247 2 2.2208 232.038 2.6879 -1.48836 8.46235
35 1 -1.1104 15.9994 3.9972 11.2118 12.5748
36 1 -1.1104 15.9994 1.2172 11.11 12.5156
37 2 2.2208 232.038 8.30628 15.0332 2.59168
38 2 2.2208 232.038 5.08335 17.9955 2.66679
39 1 -1.1104 15.9994 12.3341 8.4015 12.6119
40 2 2.2208 232.038 11.3904 18.2027 2.54897
310 1 -1.1104 15.9994 6.88093 0.00776129 12.6552
42 1 -1.1104 15.9994 12.4827 5.68302 12.6203
43 2 2.2208 232.038 2.49032 20.9259 2.57978
318 1 -1.1104 15.9994 1.27295 8.28677 12.4844
45 1 -1.1104 15.9994 9.50163 8.47239 12.3886
46 1 -1.1104 15.9994 6.76478 8.30925 12.4481
47 2 2.2208 232.038 8.28052 21.3021 2.64601
48 2 2.2208 232.038 5.34218 23.7221 2.63037
49 1 -1.1104 15.9994 9.57316 5.50433 12.3956
50 2 2.2208 232.038 11.2729 23.7439 2.59786
51 1 -1.1104 15.9994 6.77383 5.6231 12.4834
52 2 2.2208 232.038 2.58467 1.31155 5.44236
53 1 -1.1104 15.9994 6.75751 22.8311 12.2138
317 1 -1.1104 15.9994 4.04462 5.53654 12.3655
55 1 -1.1104 15.9994 3.90103 22.3892 12.3842
56 2 2.2208 232.038 8.37786 1.16682 5.40581
57 1 -1.1104 15.9994 1.11697 22.4086 12.3256
58 2 2.2208 232.038 5.32001 1.35288 8.14649
59 1 -1.1104 15.9994 12.4333 19.4838 12.5001
60 2 2.2208 232.038 11.0418 1.40191 8.17151
9080 2 2.2208 232.038 14.0615 23.8148 10.9663
62 2 2.2208 232.038 2.62525 6.89124 5.29516
63 2 2.2208 232.038 2.60788 4.16886 8.28383
316 1 -1.1104 15.9994 1.27544 5.57267 12.3946
65 2 2.2208 232.038 5.47491 4.00761 5.37097
66 2 2.2208 232.038 8.17659 6.87283 5.28625
67 2 2.2208 232.038 8.092 3.99365 8.26193
68 2 2.2208 232.038 5.3144 6.9797 8.19906
69 2 2.2208 232.038 10.9629 4.05012 5.37683
70 2 2.2208 232.038 11.0523 6.46859 8.04137
312 1 -1.1104 15.9994 6.74897 2.78194 12.5054
72 2 2.2208 232.038 2.61595 12.418 5.37366
73 2 2.2208 232.038 2.747 9.79308 8.33951
74 1 -1.1104 15.9994 4.05183 8.48374 12.4615
75 2 2.2208 232.038 5.38168 9.76914 5.39991
76 2 2.2208 232.038 8.37788 12.4955 5.45432
77 2 2.2208 232.038 8.01375 9.82618 8.19896
78 2 2.2208 232.038 5.45106 12.617 8.38763
79 2 2.2208 232.038 11.2475 9.48502 4.94146
80 2 2.2208 232.038 11.2151 12.9686 8.14832
81 4 2.2208 232.038 8.19649 18.1883 2.72849
82 2 2.2208 232.038 2.58754 18.1034 5.56717
83 2 2.2208 232.038 2.60853 15.3875 8.26353
309 1 -1.1104 15.9994 3.94907 2.79762 12.5382
85 2 2.2208 232.038 5.43958 15.3754 5.5076
86 2 2.2208 232.038 8.43062 18.1591 5.85342
87 2 2.2208 232.038 8.23551 15.2833 8.20104
88 2 2.2208 232.038 5.30493 18.1511 8.21156
89 2 2.2208 232.038 11.143 15.3064 5.25216
90 2 2.2208 232.038 11.0213 18.0174 8.3688
91 1 -1.1104 15.9994 12.3696 16.8399 12.385
92 2 2.2208 232.038 2.49579 23.7026 5.36234
93 2 2.2208 232.038 2.50312 20.9627 8.12556
311 1 -1.1104 15.9994 9.77782 -0.00093027 12.6236
95 2 2.2208 232.038 5.35542 21.0216 5.4311
96 2 2.2208 232.038 8.26249 23.668 5.3987
97 2 2.2208 232.038 8.30054 20.9408 8.29976
98 2 2.2208 232.038 5.46354 23.6814 8.31783
99 2 2.2208 232.038 11.2257 21.1143 5.52969
100 2 2.2208 232.038 11.1072 23.7795 8.12494
101 1 -1.1104 15.9994 9.72138 19.5752 12.4131
102 2 2.2208 232.038 2.65047 1.34083 11.1748
103 1 -1.1104 15.9994 6.84954 19.6601 12.3933
104 2 2.2208 232.038 8.28116 1.22357 11.1382
105 1 -1.1104 15.9994 9.6096 16.7656 12.6436
315 1 -1.1104 15.9994 12.4914 2.99502 12.4275
107 2 2.2208 232.038 2.66509 6.8598 10.9826
108 2 2.2208 232.038 5.4217 4.03972 11.0364
109 2 2.2208 232.038 8.15069 6.90377 11.0204
110 2 2.2208 232.038 10.9832 4.04143 11.0999
111 4 2.2208 232.038 11.1538 9.79588 8.26191
112 2 2.2208 232.038 2.56562 12.5948 11.183
113 2 2.2208 232.038 5.51049 9.84853 11.2562
114 2 2.2208 232.038 8.17595 12.6771 11.1534
115 2 2.2208 232.038 11.0285 9.88359 11.4614
116 1 -1.1104 15.9994 12.4382 22.2399 12.4461
117 2 2.2208 232.038 2.36958 18.2707 11.0752
118 2 2.2208 232.038 5.3965 15.4574 11.056
119 2 2.2208 232.038 8.18209 18.0513 11.0307
120 2 2.2208 232.038 11.2424 15.3996 11.2184
121 1 -1.1104 15.9994 9.40115 22.1287 12.5723
122 2 2.2208 232.038 2.54845 23.7867 10.906
123 2 2.2208 232.038 5.37759 20.9887 11.1183
124 2 2.2208 232.038 8.40144 23.8394 10.7503
125 2 2.2208 232.038 11.1718 20.8734 10.9652
126 1 -1.1104 15.9994 1.24979 -0.011813 1.60039
127 1 -1.1104 15.9994 3.9999 -0.0793255 1.25679
128 1 -1.1104 15.9994 0.977558 -0.0566939 4.21551
129 1 -1.1104 15.9994 3.99703 -0.0452235 3.98378
130 1 -1.1104 15.9994 1.2385 2.84837 1.20399
131 1 -1.1104 15.9994 4.11031 2.84886 1.13039
132 1 -1.1104 15.9994 1.29175 2.63711 4.08153
133 1 -1.1104 15.9994 4.1278 2.72532 3.92849
134 1 -1.1104 15.9994 6.8517 -0.149396 1.21212
135 1 -1.1104 15.9994 9.74035 -0.275191 1.40139
136 1 -1.1104 15.9994 6.89561 -0.00287217 3.91514
137 1 -1.1104 15.9994 9.79718 -0.139264 4.05066
138 1 -1.1104 15.9994 7.01855 2.61836 1.11953
139 1 -1.1104 15.9994 9.59374 2.80514 1.18855
140 1 -1.1104 15.9994 6.97768 2.84385 3.94239
141 1 -1.1104 15.9994 9.72734 2.63388 3.92303
142 1 -1.1104 15.9994 12.6788 -0.231917 1.32385
143 1 -1.1104 15.9994 12.5435 -0.159254 4.11754
144 1 -1.1104 15.9994 12.5314 2.96595 1.37589
145 1 -1.1104 15.9994 12.5132 2.69012 4.08095
146 1 -1.1104 15.9994 1.23447 5.48142 1.16455
147 1 -1.1104 15.9994 3.99877 5.61396 1.05599
148 1 -1.1104 15.9994 1.27051 5.36417 4.05286
149 1 -1.1104 15.9994 4.01594 5.5771 3.88112
150 1 -1.1104 15.9994 1.15516 8.28551 1.31249
151 1 -1.1104 15.9994 4.11239 8.20046 1.17946
152 1 -1.1104 15.9994 1.3083 8.28674 3.89809
153 1 -1.1104 15.9994 4.04059 8.39185 3.88999
154 1 -1.1104 15.9994 6.7735 5.61745 1.04598
155 1 -1.1104 15.9994 9.67662 5.48203 1.16557
156 1 -1.1104 15.9994 6.7967 5.54151 4.01886
157 1 -1.1104 15.9994 9.79729 5.60106 3.94463
158 1 -1.1104 15.9994 6.94328 8.59232 1.15472
159 1 -1.1104 15.9994 9.66865 8.24438 1.0685
160 1 -1.1104 15.9994 6.93277 8.35816 3.96219
161 1 -1.1104 15.9994 9.67066 8.30271 3.87785
162 1 -1.1104 15.9994 12.6537 5.77232 1.21782
163 1 -1.1104 15.9994 12.4567 5.43758 4.02875
164 1 -1.1104 15.9994 12.485 8.50239 1.16406
165 1 -1.1104 15.9994 12.7717 8.19517 3.8844
166 1 -1.1104 15.9994 1.28903 11.4324 1.26915
167 1 -1.1104 15.9994 4.27928 11.283 1.22169
168 1 -1.1104 15.9994 1.13296 11.0659 3.94839
169 1 -1.1104 15.9994 3.86784 11.2285 4.04027
170 1 -1.1104 15.9994 1.35214 13.9817 1.12092
171 1 -1.1104 15.9994 4.16577 14.0665 1.24895
172 1 -1.1104 15.9994 1.40753 13.9059 4.01949
173 1 -1.1104 15.9994 4.2071 13.9147 4.01614
174 1 -1.1104 15.9994 7.02885 11.205 1.21545
175 1 -1.1104 15.9994 9.89125 11.1086 1.36308
176 1 -1.1104 15.9994 6.88851 11.192 3.97342
177 1 -1.1104 15.9994 9.82494 11.179 4.35192
178 1 -1.1104 15.9994 6.92162 13.8448 1.17064
179 1 -1.1104 15.9994 9.84929 13.9575 1.17415
180 1 -1.1104 15.9994 6.97841 14.0327 4.18506
181 1 -1.1104 15.9994 9.77337 13.893 3.96845
182 1 -1.1104 15.9994 12.469 11.1406 1.21823
183 1 -1.1104 15.9994 12.5098 11.178 4.07554
184 1 -1.1104 15.9994 12.7448 14.0344 0.994642
185 1 -1.1104 15.9994 12.6003 13.926 3.887
186 1 -1.1104 15.9994 1.1945 16.7594 1.17614
187 1 -1.1104 15.9994 4.06963 16.7828 1.14269
188 1 -1.1104 15.9994 1.16169 16.606 3.85844
189 1 -1.1104 15.9994 3.93457 16.6252 3.97642
190 1 -1.1104 15.9994 1.26046 19.5115 1.26671
191 1 -1.1104 15.9994 4.06198 19.5546 1.28811
192 1 -1.1104 15.9994 1.10824 19.5784 3.9018
193 1 -1.1104 15.9994 3.8965 19.4414 4.13889
194 1 -1.1104 15.9994 6.91491 16.7255 1.34543
195 1 -1.1104 15.9994 9.66065 16.8465 1.64362
196 1 -1.1104 15.9994 6.66651 16.9846 3.98927
197 1 -1.1104 15.9994 9.44214 16.6696 4.2045
198 1 -1.1104 15.9994 6.98027 19.4303 1.24396
199 1 -1.1104 15.9994 9.52153 19.5909 1.28085
200 1 -1.1104 15.9994 6.96597 19.7621 3.91559
201 1 -1.1104 15.9994 9.60241 19.3565 3.93694
202 1 -1.1104 15.9994 12.4023 16.7766 1.10831
203 1 -1.1104 15.9994 12.495 16.817 3.924
204 1 -1.1104 15.9994 12.5097 19.5545 1.21683
205 1 -1.1104 15.9994 12.4693 19.6019 4.01731
206 1 -1.1104 15.9994 1.20449 22.4179 1.30487
207 1 -1.1104 15.9994 4.05981 22.2589 1.24265
208 1 -1.1104 15.9994 1.25937 22.322 4.0194
209 1 -1.1104 15.9994 4.06652 22.2861 3.93755
210 1 -1.1104 15.9994 6.92642 22.4892 1.21481
211 1 -1.1104 15.9994 9.6834 22.4932 1.27496
212 1 -1.1104 15.9994 6.82205 22.4668 4.17172
213 1 -1.1104 15.9994 9.63316 22.1825 4.06415
214 1 -1.1104 15.9994 12.5982 22.316 1.23113
215 1 -1.1104 15.9994 12.4833 22.4983 4.07276
216 1 -1.1104 15.9994 1.27996 -0.0736275 6.96209
217 1 -1.1104 15.9994 4.02725 -0.252518 6.7223
218 1 -1.1104 15.9994 1.18673 0.00370616 9.75692
219 1 -1.1104 15.9994 3.94826 0.010695 9.63149
220 1 -1.1104 15.9994 1.24839 2.70356 6.95844
221 1 -1.1104 15.9994 3.90501 2.71652 6.86526
222 1 -1.1104 15.9994 1.35754 2.85838 9.63187
223 1 -1.1104 15.9994 4.05377 2.63895 9.65071
224 1 -1.1104 15.9994 6.7995 -0.04443 6.67651
225 1 -1.1104 15.9994 9.5764 -0.00617608 6.86779
226 1 -1.1104 15.9994 6.71048 0.104714 9.48286
227 1 -1.1104 15.9994 9.77919 0.225086 9.53048
228 1 -1.1104 15.9994 6.80362 2.63715 6.85762
229 1 -1.1104 15.9994 9.59993 2.69793 6.77555
230 1 -1.1104 15.9994 6.87573 2.86564 9.75037
231 1 -1.1104 15.9994 9.71567 2.86129 9.54262
232 1 -1.1104 15.9994 12.3846 0.0338041 6.8502
233 1 -1.1104 15.9994 12.5013 0.207805 9.63022
234 1 -1.1104 15.9994 12.3561 2.87776 6.93649
235 1 -1.1104 15.9994 12.4986 2.81973 9.80145
236 1 -1.1104 15.9994 1.25408 5.6194 6.82603
237 1 -1.1104 15.9994 4.18461 5.63337 6.73802
238 1 -1.1104 15.9994 1.35578 5.58908 9.56167
239 1 -1.1104 15.9994 4.13537 5.54054 9.55141
240 1 -1.1104 15.9994 1.2511 8.28718 6.83107
241 1 -1.1104 15.9994 4.1884 8.38089 6.82591
242 1 -1.1104 15.9994 1.15227 8.32369 9.69773
243 1 -1.1104 15.9994 4.0471 8.37328 9.62365
244 1 -1.1104 15.9994 6.86526 5.45508 6.82094
245 1 -1.1104 15.9994 9.61243 5.54002 6.53712
246 1 -1.1104 15.9994 6.90309 5.65077 9.57992
247 1 -1.1104 15.9994 9.64346 5.44206 9.54292
248 1 -1.1104 15.9994 6.88595 8.37354 6.71106
249 1 -1.1104 15.9994 10.0354 8.35932 6.84866
250 1 -1.1104 15.9994 6.84129 8.45664 9.60476
251 1 -1.1104 15.9994 9.58181 8.26613 9.52437
252 1 -1.1104 15.9994 12.5215 5.54415 6.6357
253 1 -1.1104 15.9994 12.4891 5.50327 9.64796
254 1 -1.1104 15.9994 12.6623 8.57448 6.70538
255 1 -1.1104 15.9994 12.5368 8.468 9.57007
256 1 -1.1104 15.9994 1.23155 11.1161 6.86305
257 1 -1.1104 15.9994 4.03815 11.1574 6.8789
258 1 -1.1104 15.9994 1.39357 11.0002 9.73674
259 1 -1.1104 15.9994 4.04642 11.3058 9.66681
260 1 -1.1104 15.9994 1.17164 13.923 6.79827
261 1 -1.1104 15.9994 4.07532 14.0124 6.951
262 1 -1.1104 15.9994 1.28564 13.8717 9.72392
263 1 -1.1104 15.9994 4.06654 13.967 9.76739
264 1 -1.1104 15.9994 6.66121 11.233 6.88416
265 1 -1.1104 15.9994 9.6275 11.0536 7.24322
266 1 -1.1104 15.9994 6.85761 11.2862 9.77566
267 1 -1.1104 15.9994 9.88551 11.0095 9.74578
268 1 -1.1104 15.9994 6.94221 13.9013 6.91682
269 1 -1.1104 15.9994 9.80851 14.0818 6.70845
270 1 -1.1104 15.9994 6.84343 13.9272 9.70993
271 1 -1.1104 15.9994 9.73198 13.8444 9.57819
272 1 -1.1104 15.9994 12.3666 11.2219 6.93672
273 1 -1.1104 15.9994 12.4387 11.1934 9.58031
274 1 -1.1104 15.9994 12.5683 14.0663 6.8225
275 1 -1.1104 15.9994 12.5563 14.0178 9.809
276 1 -1.1104 15.9994 1.25326 16.7843 6.95393
277 1 -1.1104 15.9994 4.06128 16.7953 6.87488
278 1 -1.1104 15.9994 1.23137 16.6508 9.63085
279 1 -1.1104 15.9994 4.06662 16.7408 9.56793
280 1 -1.1104 15.9994 1.01335 19.5072 6.68344
281 1 -1.1104 15.9994 4.03714 19.5081 6.76365
282 1 -1.1104 15.9994 1.28126 19.6532 9.42538
283 1 -1.1104 15.9994 4.04714 19.5985 9.58174
284 1 -1.1104 15.9994 6.84613 16.746 6.7988
285 1 -1.1104 15.9994 9.74231 16.7253 7.08617
286 1 -1.1104 15.9994 6.91343 16.7169 9.55567
287 1 -1.1104 15.9994 9.6936 16.6314 9.8183
288 1 -1.1104 15.9994 6.86852 19.6 6.71861
289 1 -1.1104 15.9994 9.89801 19.6708 6.78464
290 1 -1.1104 15.9994 6.92689 19.4287 9.72577
291 1 -1.1104 15.9994 9.60002 19.55 9.55296
292 1 -1.1104 15.9994 12.4618 16.6485 6.80043
293 1 -1.1104 15.9994 12.5594 16.6289 9.69496
294 1 -1.1104 15.9994 12.6812 19.5568 6.91843
295 1 -1.1104 15.9994 12.5011 19.4236 9.67072
296 1 -1.1104 15.9994 1.15089 22.3379 6.66608
297 1 -1.1104 15.9994 4.03141 22.2772 6.80227
298 1 -1.1104 15.9994 1.07392 22.323 9.45016
299 1 -1.1104 15.9994 3.96071 22.3582 9.66898
300 1 -1.1104 15.9994 6.94481 22.3156 6.98158
301 1 -1.1104 15.9994 9.81896 22.3727 6.79812
302 1 -1.1104 15.9994 6.73001 22.0556 9.62924
303 1 -1.1104 15.9994 9.6975 22.3956 9.54611
304 1 -1.1104 15.9994 12.6301 22.5035 6.93888
305 1 -1.1104 15.9994 12.4983 22.3227 9.67725
306 1 -1.1104 15.9994 1.29556 -0.175889 12.5265
307 1 -1.1104 15.9994 4.1617 0.0357233 12.3946
308 1 -1.1104 15.9994 1.1976 2.76504 12.4758
64 2 2.2208 232.038 -0.11809 6.86327 8.28853
345 2 2.2208 232.038 11.436 23.8369 13.942
326 2 2.2208 232.038 13.848 4.192 13.9827
8991 2 2.2208 232.038 13.9029 15.4687 2.47681
674 2 2.2208 232.038 2.68617 21.0082 13.8685
325 2 2.2208 232.038 10.982 1.39474 13.8958
319 2 2.2208 232.038 5.4506 18.2342 13.7956
8966 2 2.2208 232.038 -0.155845 9.65002 11.116
9030 2 2.2208 232.038 13.8643 12.4883 5.30301
366 4 2.2208 232.038 8.3398 23.802 13.7949
84 2 2.2208 232.038 2.66705 9.64008 13.9243
5 2 2.2208 232.038 2.6852 15.4667 13.7706
9065 2 2.2208 232.038 13.9092 6.83846 11.0352
9313 2 2.2208 232.038 14.0047 15.2832 13.8029
71 2 2.2208 232.038 -0.119672 9.7281 5.43519
9297 2 2.2208 232.038 13.8899 4.04555 2.72939
106 2 2.2208 232.038 -0.149796 4.00764 11.0678
9075 2 2.2208 232.038 13.9359 18.0834 11.0654
324 2 2.2208 232.038 5.37656 1.30414 13.8995
350 2 2.2208 232.038 5.40103 20.9413 -0.152956
344 2 2.2208 232.038 5.14743 23.8247 13.7953
419 2 2.2208 232.038 13.843 1.38042 27.9392
662 2 2.2208 232.038 11.1149 -1.42633 28.042
669 2 2.2208 232.038 8.33744 12.4224 27.887
9630 2 2.2208 232.038 13.9952 12.558 27.7667
666 2 2.2208 232.038 8.40693 6.87303 27.6573
402 2 2.2208 232.038 13.818 6.9091 16.7893
327 1 -1.1104 15.9994 7.11064 22.531 23.847
659 2 2.2208 232.038 2.78779 1.32856 27.8081
329 1 -1.1104 15.9994 4.19295 22.4705 26.7314
9329 2 2.2208 232.038 -0.0584216 21.1278 16.5906
331 1 -1.1104 15.9994 1.39625 22.2892 26.5618
332 3 -1.1104 15.9994 10.9771 18.3293 22.4687
670 2 2.2208 232.038 11.1394 9.83027 27.8225
334 1 -1.1104 15.9994 4.15099 22.354 23.8521
34 3 -1.1104 15.9994 11.2799 1.22702 27.9911
336 1 -1.1104 15.9994 1.48847 22.2783 23.858
337 3 -1.1104 15.9994 11.0983 7.0658 22.2358
667 2 2.2208 232.038 11.0105 4.0041 27.8595
339 1 -1.1104 15.9994 12.456 19.583 26.5452
359 3 -1.1104 15.9994 2.6335 9.76246 27.9752
341 1 -1.1104 15.9994 12.8069 19.7761 23.8488
671 2 2.2208 232.038 2.59101 18.1403 27.78
656 1 -1.1104 15.9994 9.70623 19.6981 26.5878
22 2 2.2208 232.038 2.62901 12.2792 27.7409
21 2 2.2208 232.038 -0.0303821 9.82865 27.9347
330 2 2.2208 232.038 11.0819 6.94589 13.8985
347 2 2.2208 232.038 2.66946 1.21917 16.6975
9645 2 2.2208 232.038 13.8297 9.83205 19.3696
352 2 2.2208 232.038 13.9108 6.83533 22.3139
399 2 2.2208 232.038 11.2006 15.3151 27.7587
351 2 2.2208 232.038 8.10336 1.26192 16.7459
398 2 2.2208 232.038 2.53076 23.811 27.9783
353 2 2.2208 232.038 5.56946 1.19195 19.5756
655 1 -1.1104 15.9994 6.64892 19.5258 26.516
355 2 2.2208 232.038 11.0509 1.14444 19.5201
354 2 2.2208 232.038 13.8763 1.22089 22.3271
357 2 2.2208 232.038 2.53403 6.70368 16.619
358 2 2.2208 232.038 2.53147 4.09061 19.4343
645 1 -1.1104 15.9994 1.32729 19.5885 23.4638
360 2 2.2208 232.038 5.49172 4.17521 16.7122
361 2 2.2208 232.038 8.11772 6.96392 16.7807
362 2 2.2208 232.038 8.32572 3.99075 19.554
363 2 2.2208 232.038 5.41941 6.80058 19.4813
364 2 2.2208 232.038 10.8507 4.13207 16.6992
365 2 2.2208 232.038 11.174 6.87058 19.6549
644 1 -1.1104 15.9994 4.29059 16.8245 26.5829
367 2 2.2208 232.038 2.55585 12.4974 16.422
368 2 2.2208 232.038 2.50652 9.3656 19.4571
658 1 -1.1104 15.9994 12.376 16.7917 26.5099
370 2 2.2208 232.038 5.40912 9.62475 16.6002
371 2 2.2208 232.038 8.22046 12.5259 16.775
372 2 2.2208 232.038 8.19352 9.78594 19.4953
373 2 2.2208 232.038 5.57252 12.381 19.5899
374 2 2.2208 232.038 11.0907 9.71094 16.7075
375 2 2.2208 232.038 11.0295 12.4731 19.5696
376 4 2.2208 232.038 2.50554 12.6318 19.5291
377 2 2.2208 232.038 2.64563 18.2283 16.5833
378 2 2.2208 232.038 2.56636 15.7236 19.4795
379 1 -1.1104 15.9994 12.5298 22.3692 26.6059
380 2 2.2208 232.038 5.47786 15.3663 16.886
381 2 2.2208 232.038 8.32766 18.2196 16.7757
382 2 2.2208 232.038 8.3137 15.4883 19.559
383 2 2.2208 232.038 5.62582 18.2392 19.6381
384 2 2.2208 232.038 11.135 15.4136 16.8003
385 2 2.2208 232.038 11.0754 18.3929 19.6168
386 1 -1.1104 15.9994 12.5189 22.5544 23.7701
387 2 2.2208 232.038 2.62801 23.8064 16.7949
388 2 2.2208 232.038 2.92846 20.8511 19.5314
389 1 -1.1104 15.9994 9.67166 22.5087 26.7688
390 2 2.2208 232.038 5.47171 20.9743 16.7645
391 2 2.2208 232.038 8.44945 23.9291 16.9345
392 2 2.2208 232.038 8.34234 21.057 19.5405
393 2 2.2208 232.038 5.44757 23.9026 19.539
394 2 2.2208 232.038 11.2247 21.0822 16.7066
395 2 2.2208 232.038 11.3281 23.9851 19.5813
648 1 -1.1104 15.9994 3.86269 19.5769 26.5051
397 2 2.2208 232.038 2.72249 1.13735 22.3231
654 1 -1.1104 15.9994 9.89196 19.9382 23.9422
643 1 -1.1104 15.9994 1.32723 16.5641 26.5107
400 2 2.2208 232.038 8.2487 18.1782 27.6141
401 2 2.2208 232.038 8.44624 1.17368 22.277
651 1 -1.1104 15.9994 6.93366 16.7724 26.4938
403 2 2.2208 232.038 5.58296 1.25209 25.17
647 1 -1.1104 15.9994 1.17917 19.5226 26.4508
405 2 2.2208 232.038 11.1934 1.14483 25.089
650 1 -1.1104 15.9994 9.7289 16.7236 23.9671
407 2 2.2208 232.038 2.6244 6.7414 22.2415
408 2 2.2208 232.038 2.65997 4.00562 24.9977
649 1 -1.1104 15.9994 6.86608 16.7537 23.6615
410 2 2.2208 232.038 5.47674 4.0814 22.2871
411 2 2.2208 232.038 8.51013 6.90722 22.2178
412 2 2.2208 232.038 8.31259 4.02328 25.0576
413 2 2.2208 232.038 5.48979 6.80532 25.0046
414 2 2.2208 232.038 11.0674 4.12912 22.3193
415 2 2.2208 232.038 11.1164 6.90515 24.7494
653 1 -1.1104 15.9994 7.13409 19.6798 23.7971
417 2 2.2208 232.038 2.53109 12.3408 22.6356
418 2 2.2208 232.038 2.59944 9.52641 25.2703
646 1 -1.1104 15.9994 4.325 19.4537 23.6565
420 2 2.2208 232.038 5.40501 9.58695 22.2597
421 2 2.2208 232.038 8.28136 12.39 22.2708
422 2 2.2208 232.038 8.15736 9.64377 25.0383
423 2 2.2208 232.038 5.41946 12.5147 24.9188
424 2 2.2208 232.038 11.1244 9.55445 22.2516
425 2 2.2208 232.038 11.1797 12.4826 24.8434
426 1 -1.1104 15.9994 6.89391 22.3884 26.6229
427 2 2.2208 232.038 2.70919 18.1663 22.2514
428 2 2.2208 232.038 2.56249 15.3349 25.0694
652 1 -1.1104 15.9994 9.62399 16.6683 26.7267
430 2 2.2208 232.038 5.47438 15.2767 22.2508
431 2 2.2208 232.038 8.6483 18.3182 22.5367
432 2 2.2208 232.038 8.25799 15.2585 25.094
433 2 2.2208 232.038 5.59849 18.1183 25.0383
434 2 2.2208 232.038 11.1204 15.4821 22.2228
435 2 2.2208 232.038 11.232 18.2836 24.9585
657 1 -1.1104 15.9994 12.7726 16.7883 23.8023
437 2 2.2208 232.038 2.61272 23.8448 22.2542
438 2 2.2208 232.038 2.82788 21.0157 25.1333
439 1 -1.1104 15.9994 9.76775 22.5229 23.7899
440 2 2.2208 232.038 5.76357 21.0458 22.4819
441 2 2.2208 232.038 8.43452 23.8351 22.3235
442 2 2.2208 232.038 8.40241 21.2031 25.3009
443 2 2.2208 232.038 5.45417 23.8174 25.2164
444 2 2.2208 232.038 11.1936 21.1342 22.34
445 2 2.2208 232.038 11.2083 23.8894 25.1079
446 1 -1.1104 15.9994 1.30566 -0.214928 15.3962
447 1 -1.1104 15.9994 3.91665 -0.159748 15.1499
448 1 -1.1104 15.9994 1.26853 2.6303 15.2925
449 1 -1.1104 15.9994 4.17002 2.77763 15.3045
450 1 -1.1104 15.9994 6.73996 -0.0822701 15.3033
451 1 -1.1104 15.9994 9.64827 -0.0463569 15.2743
452 1 -1.1104 15.9994 6.7201 2.7181 15.3227
453 1 -1.1104 15.9994 9.51239 2.92606 15.2302
454 1 -1.1104 15.9994 12.4498 -0.15513 15.2758
455 1 -1.1104 15.9994 12.3581 2.59712 15.2723
456 1 -1.1104 15.9994 1.08053 5.3325 15.3562
457 1 -1.1104 15.9994 3.88554 5.65334 15.1881
458 1 -1.1104 15.9994 1.23463 8.22103 15.2091
459 1 -1.1104 15.9994 4.02656 8.41104 15.099
460 1 -1.1104 15.9994 6.79807 5.66626 15.3189
461 1 -1.1104 15.9994 9.65266 5.68684 15.3088
462 1 -1.1104 15.9994 6.81572 8.34894 15.2198
463 1 -1.1104 15.9994 9.64745 8.42502 15.2025
464 1 -1.1104 15.9994 12.3534 5.45547 15.2515
465 1 -1.1104 15.9994 12.4807 8.24048 15.3993
466 1 -1.1104 15.9994 1.16122 11.1252 15.2832
467 1 -1.1104 15.9994 3.87324 11.2241 15.3404
468 1 -1.1104 15.9994 1.2942 14.0123 15.0696
469 1 -1.1104 15.9994 4.13579 13.9386 15.5209
470 1 -1.1104 15.9994 6.71333 11.1708 15.262
471 1 -1.1104 15.9994 9.5844 11.2584 15.4223
472 1 -1.1104 15.9994 6.98032 13.8571 15.2902
473 1 -1.1104 15.9994 9.66986 14.051 15.2428
474 1 -1.1104 15.9994 12.4681 11.1441 15.3526
475 1 -1.1104 15.9994 12.4254 14.0644 15.1844
476 1 -1.1104 15.9994 1.19053 16.7171 15.3163
477 1 -1.1104 15.9994 3.99311 16.7564 15.236
478 1 -1.1104 15.9994 1.2884 19.6201 15.1397
479 1 -1.1104 15.9994 4.18565 19.5975 15.237
480 1 -1.1104 15.9994 6.77063 16.727 15.2503
481 1 -1.1104 15.9994 9.65 16.7592 15.346
482 1 -1.1104 15.9994 6.97493 19.5735 15.3503
483 1 -1.1104 15.9994 9.74893 19.6739 15.2928
484 1 -1.1104 15.9994 12.5837 16.8459 15.2254
485 1 -1.1104 15.9994 12.4979 19.6167 15.2165
486 1 -1.1104 15.9994 1.45434 22.4441 15.1905
487 1 -1.1104 15.9994 4.24744 22.338 15.2423
488 1 -1.1104 15.9994 7.00789 22.2289 15.0055
489 1 -1.1104 15.9994 9.84992 22.7092 15.2941
490 1 -1.1104 15.9994 12.619 22.5096 15.3804
491 1 -1.1104 15.9994 1.38324 -0.0809583 18.1548
492 1 -1.1104 15.9994 4.27612 0.0550537 18.0309
493 1 -1.1104 15.9994 1.21143 0.119747 20.8037
494 1 -1.1104 15.9994 4.28891 -0.123802 20.7956
495 1 -1.1104 15.9994 1.18409 2.83766 17.9882
496 1 -1.1104 15.9994 3.9132 2.82416 17.9864
497 1 -1.1104 15.9994 1.1426 2.77192 20.7599
498 1 -1.1104 15.9994 4.15548 2.6097 20.873
499 1 -1.1104 15.9994 6.88989 -0.0926553 18.2034
500 1 -1.1104 15.9994 9.64524 -0.122281 18.0632
501 1 -1.1104 15.9994 7.03604 -0.0954619 20.9344
502 1 -1.1104 15.9994 9.81021 -0.320568 20.8344
503 1 -1.1104 15.9994 6.78605 2.71324 18.0681
504 1 -1.1104 15.9994 9.66464 2.59409 17.9629
505 1 -1.1104 15.9994 7.03554 2.64504 20.7182
506 1 -1.1104 15.9994 9.7978 2.60587 20.9394
507 1 -1.1104 15.9994 12.5005 -0.0795744 18.1137
508 1 -1.1104 15.9994 12.4827 -0.215246 20.8996
509 1 -1.1104 15.9994 12.4115 2.74257 18.0381
510 1 -1.1104 15.9994 12.552 2.59214 21.0213
511 1 -1.1104 15.9994 1.26976 5.61733 18.0949
512 1 -1.1104 15.9994 4.10195 5.52415 18.0207
513 1 -1.1104 15.9994 1.11642 5.55283 20.7818
514 1 -1.1104 15.9994 4.05803 5.39338 20.8458
515 1 -1.1104 15.9994 1.11453 8.28068 18.0269
516 1 -1.1104 15.9994 3.96146 8.07931 18.0026
517 1 -1.1104 15.9994 1.22631 8.33381 20.9456
518 1 -1.1104 15.9994 3.93048 8.22012 20.6974
519 1 -1.1104 15.9994 6.86284 5.44048 18.0269
520 1 -1.1104 15.9994 9.76979 5.44307 18.2029
521 1 -1.1104 15.9994 6.86025 5.4458 20.8579
522 1 -1.1104 15.9994 9.66364 5.32804 20.7448
523 1 -1.1104 15.9994 6.83788 8.40082 18.0426
524 1 -1.1104 15.9994 9.70654 8.2314 18.081
525 1 -1.1104 15.9994 6.74473 8.20105 20.8504
526 1 -1.1104 15.9994 9.55555 8.55678 20.766
527 1 -1.1104 15.9994 12.5441 5.40768 18.0223
528 1 -1.1104 15.9994 12.6287 5.33714 20.7513
529 1 -1.1104 15.9994 12.5589 8.38602 18.0815
530 1 -1.1104 15.9994 12.6053 8.41629 20.7524
531 1 -1.1104 15.9994 1.17148 11.2138 18.0759
532 1 -1.1104 15.9994 3.87077 11.3433 18.2448
533 1 -1.1104 15.9994 1.14091 11.1849 20.7742
534 1 -1.1104 15.9994 3.80049 11.0327 20.8184
535 1 -1.1104 15.9994 1.44895 13.9303 18.0227
536 1 -1.1104 15.9994 3.96873 14.179 18.3527
537 1 -1.1104 15.9994 0.939812 13.8957 20.7438
538 1 -1.1104 15.9994 3.81675 13.6689 20.9034
539 1 -1.1104 15.9994 6.73039 11.1016 18.1136
540 1 -1.1104 15.9994 9.4702 11.2066 18.1712
541 1 -1.1104 15.9994 6.79632 11.0149 20.9114
542 1 -1.1104 15.9994 9.65084 11.1689 20.9259
543 1 -1.1104 15.9994 6.80707 14.0117 18.1929
544 1 -1.1104 15.9994 9.60407 13.9784 18.2077
545 1 -1.1104 15.9994 6.77932 13.7846 20.8848
546 1 -1.1104 15.9994 9.59702 13.8915 20.8602
547 1 -1.1104 15.9994 12.4474 11.1669 17.9681
548 1 -1.1104 15.9994 12.4529 11.1629 20.9075
549 1 -1.1104 15.9994 12.4712 13.9483 18.0689
550 1 -1.1104 15.9994 12.3932 13.9547 20.8702
551 1 -1.1104 15.9994 1.37078 16.9561 18.0815
552 1 -1.1104 15.9994 4.18272 16.8601 18.1231
553 1 -1.1104 15.9994 1.31751 16.7001 20.9828
554 1 -1.1104 15.9994 3.98293 16.6803 20.877
555 1 -1.1104 15.9994 1.38371 19.6267 18.0197
556 1 -1.1104 15.9994 4.24345 19.5459 18.056
557 1 -1.1104 15.9994 1.33988 19.5348 20.7655
558 1 -1.1104 15.9994 4.18486 19.4391 20.9713
559 1 -1.1104 15.9994 6.98024 16.7643 18.0787
560 1 -1.1104 15.9994 9.82244 16.9341 18.1288
561 1 -1.1104 15.9994 6.91514 16.6667 20.8755
562 1 -1.1104 15.9994 9.50877 16.715 20.9707
563 1 -1.1104 15.9994 6.93974 19.7908 18.1489
564 1 -1.1104 15.9994 9.8037 19.7671 18.149
565 1 -1.1104 15.9994 6.98793 19.4358 21.0503
566 1 -1.1104 15.9994 9.66702 19.8718 20.9393
567 1 -1.1104 15.9994 12.5707 16.8103 18.1163
568 1 -1.1104 15.9994 12.4027 16.6964 20.8607
569 1 -1.1104 15.9994 12.5191 19.6343 18.0112
570 1 -1.1104 15.9994 12.4538 19.8263 20.6911
571 1 -1.1104 15.9994 1.40377 22.4015 18.0674
572 1 -1.1104 15.9994 4.08299 22.5417 18.09
573 1 -1.1104 15.9994 1.44779 22.2475 20.8366
574 1 -1.1104 15.9994 4.18344 22.308 21.022
575 1 -1.1104 15.9994 6.87224 22.5165 18.0534
576 1 -1.1104 15.9994 9.73745 22.356 18.1142
577 1 -1.1104 15.9994 6.92753 22.4262 21.0762
578 1 -1.1104 15.9994 9.80373 22.5188 20.9067
579 1 -1.1104 15.9994 12.4542 22.6433 18.016
580 1 -1.1104 15.9994 12.5271 22.5318 20.9582
581 1 -1.1104 15.9994 1.07903 -0.0832649 23.9441
582 1 -1.1104 15.9994 4.17161 -0.0221469 23.8715
583 1 -1.1104 15.9994 1.23783 0.0167091 26.7643
584 1 -1.1104 15.9994 4.09707 -0.094849 26.5963
585 1 -1.1104 15.9994 1.38292 2.78168 23.5525
586 1 -1.1104 15.9994 4.21655 2.81245 23.5896
587 1 -1.1104 15.9994 1.18951 2.70603 26.5349
588 1 -1.1104 15.9994 4.11799 2.71087 26.4293
589 1 -1.1104 15.9994 6.95986 -0.149514 23.6338
590 1 -1.1104 15.9994 9.63108 -0.313146 23.7708
591 1 -1.1104 15.9994 6.79639 -0.147508 26.4965
592 1 -1.1104 15.9994 9.62937 -0.282549 26.6204
593 1 -1.1104 15.9994 7.03313 2.66241 23.7257
594 1 -1.1104 15.9994 9.85721 2.61283 23.5221
595 1 -1.1104 15.9994 6.83098 2.65769 26.4635
596 1 -1.1104 15.9994 9.65814 2.59161 26.3328
597 1 -1.1104 15.9994 12.5084 -0.136419 23.7702
598 1 -1.1104 15.9994 12.6755 -0.265235 26.5003
599 1 -1.1104 15.9994 12.6089 2.57978 23.7232
600 1 -1.1104 15.9994 12.5514 2.74376 26.378
601 1 -1.1104 15.9994 1.24589 5.44087 23.6619
602 1 -1.1104 15.9994 4.00623 5.50926 23.6427
603 1 -1.1104 15.9994 1.17759 5.57412 26.4228
604 1 -1.1104 15.9994 4.0077 5.66923 26.3558
605 1 -1.1104 15.9994 1.3238 8.34154 23.7994
606 1 -1.1104 15.9994 4.01658 8.34127 23.3797
607 1 -1.1104 15.9994 0.973449 8.40629 26.4865
608 1 -1.1104 15.9994 4.23621 8.2695 26.2851
609 1 -1.1104 15.9994 6.94498 5.48494 23.6391
610 1 -1.1104 15.9994 9.60913 5.42739 23.7067
611 1 -1.1104 15.9994 6.85471 5.39565 26.4195
612 1 -1.1104 15.9994 9.61508 5.44788 26.3399
613 1 -1.1104 15.9994 6.8668 8.21841 23.5727
614 1 -1.1104 15.9994 9.47792 8.59459 23.7421
615 1 -1.1104 15.9994 6.93091 8.14662 26.4123
616 1 -1.1104 15.9994 9.68758 8.34428 26.38
617 1 -1.1104 15.9994 12.7365 5.38396 23.6555
618 1 -1.1104 15.9994 12.4402 5.48345 26.5779
619 1 -1.1104 15.9994 12.654 8.42403 23.6641
620 1 -1.1104 15.9994 12.4167 8.43002 26.3345
621 1 -1.1104 15.9994 1.06638 10.9685 23.7343
622 1 -1.1104 15.9994 3.97203 11.0422 23.6382
623 1 -1.1104 15.9994 1.09926 11.2344 26.339
624 1 -1.1104 15.9994 4.06989 11.1737 26.2875
625 1 -1.1104 15.9994 1.15251 13.7678 23.618
626 1 -1.1104 15.9994 3.89215 13.871 23.5205
627 1 -1.1104 15.9994 1.17723 13.9201 26.4749
628 1 -1.1104 15.9994 3.96356 14.011 26.4605
629 1 -1.1104 15.9994 6.75842 11.2403 23.6004
630 1 -1.1104 15.9994 9.71971 11.2542 23.6094
631 1 -1.1104 15.9994 6.82418 11.0311 26.5767
632 1 -1.1104 15.9994 9.69503 11.2056 26.518
633 1 -1.1104 15.9994 6.87973 14.0241 23.7207
634 1 -1.1104 15.9994 9.71297 13.9974 23.7152
635 1 -1.1104 15.9994 6.8026 13.8614 26.306
636 1 -1.1104 15.9994 9.72615 13.9456 26.4446
637 1 -1.1104 15.9994 12.5151 10.9788 23.6812
638 1 -1.1104 15.9994 12.601 11.1182 26.453
639 1 -1.1104 15.9994 12.5491 13.9813 23.5145
640 1 -1.1104 15.9994 12.6765 13.8451 26.3427
641 1 -1.1104 15.9994 1.19056 16.6596 23.7683
642 1 -1.1104 15.9994 4.05361 16.7047 23.7917
664 2 2.2208 232.038 2.61151 7.08761 27.9656
665 2 2.2208 232.038 5.40096 4.21212 27.7461