LAMMPS (29 Oct 2020)
OMP_NUM_THREADS environment is not set. Defaulting to 1 thread. (../comm.cpp:94)
  using 1 OpenMP thread(s) per MPI task
#---------------------------------------
#
# This script is used to calculate the thermal conuctivity of UO2 using Muller-Plathe method
# By Ziqiang Wang on 03/18/2022 on Jilin university
#
#---------------------------------------

variable     Nevery    equal   40
variable     T         equal   600

clear
OMP_NUM_THREADS environment is not set. Defaulting to 1 thread. (../comm.cpp:94)
  using 1 OpenMP thread(s) per MPI task
units          metal
boundary       p p p
atom_style     full

read_data vac_0.02_relaxed.dat
Reading data file ...
  orthogonal box = (-0.35516565 -4.2468482 -0.35447675) to (27.695166 332.32685 27.694477)
  2 by 13 by 2 MPI processor grid
  reading atoms ...
  17640 atoms
  reading velocities ...
  17640 velocities
Finding 1-2 1-3 1-4 neighbors ...
  special bond factors lj:    0.0      0.0      0.0     
  special bond factors coul:  0.0      0.0      0.0     
     0 = max # of 1-2 neighbors
     0 = max # of 1-3 neighbors
     0 = max # of 1-4 neighbors
     1 = max # of special neighbors
  special bonds CPU = 0.004 seconds
  read_data CPU = 0.061 seconds

set           type     1    charge     -1.1104
Setting atom values ...
  11760 settings made for charge
set           type     2    charge      2.2208
Setting atom values ...
  5880 settings made for charge

kspace_style    pppm   1.0e-05
pair_style      hybrid/overlay  coul/long  11.0  eam/alloy
pair_coeff      * * coul/long
pair_coeff      * * eam/alloy CeThUNpPuAmCmO.eam.alloy O Th
newton          on
neighbor        0.3 bin
neigh_modify    delay 0 check yes every 1

#The first equilation
velocity        all create $T 10004 mom yes rot yes dist gaussian
velocity        all create 600 10004 mom yes rot yes dist gaussian
fix             nvt  all  nvt  temp  $T $T  0.1
fix             nvt  all  nvt  temp  600 $T  0.1
fix             nvt  all  nvt  temp  600 600  0.1

run             100000
PPPM initialization ...
  using 12-bit tables for long-range coulomb (../kspace.cpp:328)
  G vector (1/distance) = 0.29883693
  grid = 40 240 40
  stencil order = 5
  estimated absolute RMS force accuracy = 0.00015601772
  estimated relative force accuracy = 1.0834831e-05
  using single precision MKL FFT
  3d grid and FFT values/proc = 15000 7600
Neighbor list info ...
  update every 1 steps, delay 0 steps, check yes
  max neighbors/atom: 2000, page size: 100000
  master list distance cutoff = 11.3
  ghost atom cutoff = 11.3
  binsize = 5.65, bins = 5 60 5
  2 neighbor lists, perpetual/occasional/extra = 2 0 0
  (1) pair coul/long, perpetual
      attributes: half, newton on
      pair build: half/bin/newton
      stencil: half/bin/3d/newton
      bin: standard
  (2) pair eam/alloy, perpetual, copy from (1)
      attributes: half, newton on
      pair build: copy
      stencil: none
      bin: none
Per MPI rank memory allocation (min/avg/max) = 8.142 | 8.178 | 8.198 Mbytes
Step Temp E_pair E_mol TotEng Press 
       0          600   -230565.12            0   -229197.11    96.489836 
  100000    599.28856   -230569.38            0   -229202.99   -212.22574 
Loop time of 656.112 on 52 procs for 100000 steps with 17640 atoms

Performance: 13.168 ns/day, 1.823 hours/ns, 152.413 timesteps/s
99.8% CPU use with 52 MPI tasks x 1 OpenMP threads

MPI task timing breakdown:
Section |  min time  |  avg time  |  max time  |%varavg| %total
---------------------------------------------------------------
Pair    | 421.93     | 447.3      | 459.74     |  41.1 | 68.17
Bond    | 0.0067374  | 0.0099034  | 0.014491   |   1.9 |  0.00
Kspace  | 137.48     | 152.39     | 184.98     |  88.4 | 23.23
Neigh   | 25.737     | 33.669     | 37.102     |  48.3 |  5.13
Comm    | 16.684     | 18.218     | 19.804     |  16.1 |  2.78
Output  | 5.5022e-05 | 6.0158e-05 | 0.00027007 |   0.0 |  0.00
Modify  | 1.9528     | 3.0758     | 5.1367     |  57.1 |  0.47
Other   |            | 1.445      |            |       |  0.22

Nlocal:        339.231 ave         366 max         298 min
Histogram: 2 5 1 0 5 9 15 3 1 11
Nghost:        4101.25 ave        4282 max        3826 min
Histogram: 4 0 7 2 4 3 12 5 3 12
Neighs:        67628.4 ave       74529 max       51363 min
Histogram: 2 2 0 2 2 1 9 19 5 10

Total # of neighbors = 3516676
Ave neighs/atom = 199.35805
Ave special neighs/atom = 0.0000000
Neighbor list builds = 16217
Dangerous builds = 0
unfix           nvt
reset_timestep  0

# the second run
fix             1 all nve

group           oxygen type 1
11760 atoms in group oxygen
fix             2 oxygen thermal/conductivity ${Nevery} y 20
fix             2 oxygen thermal/conductivity 40 y 20

compute         ke all ke/atom
variable        temp atom c_ke/1.5
compute         layers all chunk/atom bin/1d y lower 0.05 units reduced
fix             3      all ave/chunk  2000 50 100000 layers v_temp file profile_${T}K.mp
fix             3      all ave/chunk  2000 50 100000 layers v_temp file profile_600K.mp

variable        Tdiff    equal     f_3[11][3]-f_3[1][3]
variable        deltaT   equal     v_Tdiff*1.5/0.0001292

timestep        0.001
thermo_style    custom step f_2 temp v_Tdiff v_deltaT
thermo          100000

run             1000000
PPPM initialization ...
  using 12-bit tables for long-range coulomb (../kspace.cpp:328)
  G vector (1/distance) = 0.29883693
  grid = 40 240 40
  stencil order = 5
  estimated absolute RMS force accuracy = 0.00015601772
  estimated relative force accuracy = 1.0834831e-05
  using single precision MKL FFT
  3d grid and FFT values/proc = 15000 7600
Per MPI rank memory allocation (min/avg/max) = 8.393 | 8.429 | 8.449 Mbytes
Step f_2 Temp v_Tdiff v_deltaT 
       0            0    599.28856            0            0 
  100000    832.11657    599.47512   0.02198956    255.29675 
  200000    1656.9421    596.73069  0.024447063    283.82813 
  300000    2479.9302    605.81443  0.024188058     280.8211 
  400000    3298.8514    601.21516   0.02349154     272.7346 
  500000    4123.0462    604.17663  0.023942468    277.96983 
  600000    4948.4777    600.28763  0.024417748    283.48778 
  700000    5774.8387     598.6707  0.024189514    280.83801 
  800000    6603.8344    596.04772  0.024298986    282.10897 
  900000    7429.9157    600.25041  0.024493937    284.37233 
 1000000    8253.0284    604.71504  0.024869004    288.72682 
Loop time of 6543.69 on 52 procs for 1000000 steps with 17640 atoms

Performance: 13.204 ns/day, 1.818 hours/ns, 152.819 timesteps/s
99.8% CPU use with 52 MPI tasks x 1 OpenMP threads

MPI task timing breakdown:
Section |  min time  |  avg time  |  max time  |%varavg| %total
---------------------------------------------------------------
Pair    | 4187.2     | 4456.9     | 4594.8     | 127.3 | 68.11
Bond    | 0.064298   | 0.097625   | 0.14735    |   5.8 |  0.00
Kspace  | 1354.5     | 1519.4     | 1858.6     | 277.0 | 23.22
Neigh   | 267.19     | 347.57     | 381.13     | 154.0 |  5.31
Comm    | 169.9      | 183.52     | 199.36     |  53.0 |  2.80
Output  | 0.001114   | 0.001176   | 0.0023876  |   0.5 |  0.00
Modify  | 5.7646     | 6.3317     | 7.0696     |  12.0 |  0.10
Other   |            | 29.81      |            |       |  0.46

Nlocal:        339.231 ave         369 max         296 min
Histogram: 3 2 3 0 5 7 16 6 7 3
Nghost:        4108.21 ave        4275 max        3813 min
Histogram: 4 3 5 4 1 3 4 4 9 15
Neighs:        67627.3 ave       74689 max       50759 min
Histogram: 4 0 0 0 3 2 4 22 10 7

Total # of neighbors = 3516618
Ave neighs/atom = 199.35476
Ave special neighs/atom = 0.0000000
Neighbor list builds = 167658
Dangerous builds = 0

Total wall time: 2:00:00
