LAMMPS (29 Oct 2020)
OMP_NUM_THREADS environment is not set. Defaulting to 1 thread. (../comm.cpp:94)
  using 1 OpenMP thread(s) per MPI task
OMP_NUM_THREADS environment is not set. Defaulting to 1 thread. (../comm.cpp:94)
  using 1 OpenMP thread(s) per MPI task
Reading data file ...
  orthogonal box = (-0.3579172 -4.5180749 -0.35931432) to (27.697917 332.59807 27.699314)
  2 by 13 by 2 MPI processor grid
  reading atoms ...
  17730 atoms
  reading velocities ...
  17730 velocities
Finding 1-2 1-3 1-4 neighbors ...
  special bond factors lj:    0.0      0.0      0.0     
  special bond factors coul:  0.0      0.0      0.0     
     0 = max # of 1-2 neighbors
     0 = max # of 1-3 neighbors
     0 = max # of 1-4 neighbors
     1 = max # of special neighbors
  special bonds CPU = 0.003 seconds
  read_data CPU = 0.114 seconds
Setting atom values ...
  11820 settings made for charge
Setting atom values ...
  5910 settings made for charge
PPPM initialization ...
  using 12-bit tables for long-range coulomb (../kspace.cpp:328)
  G vector (1/distance) = 0.2987924
  grid = 40 240 40
  stencil order = 5
  estimated absolute RMS force accuracy = 0.00015685498
  estimated relative force accuracy = 1.0892976e-05
  using single precision MKL FFT
  3d grid and FFT values/proc = 15000 7600
Neighbor list info ...
  update every 1 steps, delay 0 steps, check yes
  max neighbors/atom: 2000, page size: 100000
  master list distance cutoff = 11.3
  ghost atom cutoff = 11.3
  binsize = 5.65, bins = 5 60 5
  2 neighbor lists, perpetual/occasional/extra = 2 0 0
  (1) pair coul/long, perpetual
      attributes: half, newton on
      pair build: half/bin/newton
      stencil: half/bin/3d/newton
      bin: standard
  (2) pair eam/alloy, perpetual, copy from (1)
      attributes: half, newton on
      pair build: copy
      stencil: none
      bin: none
Setting up Verlet run ...
  Unit style    : metal
  Current step  : 0
  Time step     : 0.001
Per MPI rank memory allocation (min/avg/max) = 8.154 | 8.180 | 8.194 Mbytes
Step Temp E_pair E_mol TotEng Press 
       0          600   -231458.08            0   -230083.08   -508.29711 
  100000    598.83115   -231473.16            0   -230100.85   -749.24352 
Loop time of 664.558 on 52 procs for 100000 steps with 17730 atoms

Performance: 13.001 ns/day, 1.846 hours/ns, 150.476 timesteps/s
99.8% CPU use with 52 MPI tasks x 1 OpenMP threads

MPI task timing breakdown:
Section |  min time  |  avg time  |  max time  |%varavg| %total
---------------------------------------------------------------
Pair    | 396.98     | 411.43     | 427.61     |  39.0 | 61.91
Bond    | 0.0069916  | 0.012271   | 0.021516   |   3.0 |  0.00
Kspace  | 174.23     | 193.16     | 207.05     |  60.1 | 29.07
Neigh   | 30.023     | 31.864     | 34.621     |  20.8 |  4.79
Comm    | 17.564     | 19.761     | 21.509     |  22.8 |  2.97
Output  | 6.6191e-05 | 7.1617e-05 | 0.00028832 |   0.0 |  0.00
Modify  | 4.7475     | 6.3378     | 8.6008     |  46.8 |  0.95
Other   |            | 1.989      |            |       |  0.30

Nlocal:        340.962 ave         367 max         321 min
Histogram: 4 4 10 10 3 9 3 5 1 3
Nghost:        4106.25 ave        4228 max        3980 min
Histogram: 2 3 5 5 11 6 10 5 3 2
Neighs:        67924.8 ave       73743 max       62661 min
Histogram: 2 4 7 10 5 9 6 3 3 3

Total # of neighbors = 3532090
Ave neighs/atom = 199.21545
Ave special neighs/atom = 0.0000000
Neighbor list builds = 16217
Dangerous builds = 0
11820 atoms in group oxygen
PPPM initialization ...
  using 12-bit tables for long-range coulomb (../kspace.cpp:328)
  G vector (1/distance) = 0.2987924
  grid = 40 240 40
  stencil order = 5
  estimated absolute RMS force accuracy = 0.00015685498
  estimated relative force accuracy = 1.0892976e-05
  using single precision MKL FFT
  3d grid and FFT values/proc = 15000 7600
Setting up Verlet run ...
  Unit style    : metal
  Current step  : 0
  Time step     : 0.001
Per MPI rank memory allocation (min/avg/max) = 8.405 | 8.430 | 8.445 Mbytes
Step f_2 Temp v_Tdiff v_deltaT 
       0            0    598.83115            0            0 
  100000    665.72159    600.95621  0.020891083    242.54353 
  200000    1305.3278    601.09784  0.023217648    269.55474 
  300000    1955.0332    598.97905  0.022377838    259.80462 
  400000    2601.0827    599.06486  0.023021611    267.27877 
  500000      3247.61    603.85445  0.023056515      267.684 
  600000    3893.7563    601.86783  0.023064294    267.77431 
  700000    4541.0698    601.86828  0.022965783     266.6306 
  800000    5191.2797    600.99117  0.023172888    269.03507 
  900000    5843.0492    601.44105  0.022797426      264.676 
 1000000     6496.287    604.26677  0.023096552    268.14883 
Loop time of 6606.49 on 52 procs for 1000000 steps with 17730 atoms

Performance: 13.078 ns/day, 1.835 hours/ns, 151.366 timesteps/s
99.8% CPU use with 52 MPI tasks x 1 OpenMP threads

MPI task timing breakdown:
Section |  min time  |  avg time  |  max time  |%varavg| %total
---------------------------------------------------------------
Pair    | 3899.4     | 4076       | 4203.4     | 129.0 | 61.70
Bond    | 0.059446   | 0.11854    | 0.20006    |   9.4 |  0.00
Kspace  | 1785.6     | 1931.2     | 2103.1     | 190.0 | 29.23
Neigh   | 311.56     | 327.91     | 358.03     |  65.0 |  4.96
Comm    | 176.5      | 199.04     | 215.31     |  70.8 |  3.01
Output  | 0.001178   | 0.0013706  | 0.0025041  |   0.6 |  0.00
Modify  | 6.6766     | 7.9145     | 9.5091     |  30.3 |  0.12
Other   |            | 64.31      |            |       |  0.97

Nlocal:        340.962 ave         367 max         321 min
Histogram: 3 6 7 4 15 6 5 4 0 2
Nghost:        4091.25 ave        4229 max        4002 min
Histogram: 5 7 7 11 6 9 1 2 2 2
Neighs:        67928.1 ave       74486 max       62953 min
Histogram: 2 4 9 6 16 5 3 5 1 1

Total # of neighbors = 3532261
Ave neighs/atom = 199.22510
Ave special neighs/atom = 0.0000000
Neighbor list builds = 166892
Dangerous builds = 0
Total wall time: 2:01:11
