ITEM: TIMESTEP
20000
ITEM: NUMBER OF ATOMS
17730
ITEM: BOX BOUNDS pp pp pp
-3.5991097736831362e-01 2.7699910977367956e+01
-4.1872133862477465e+00 3.3226721338624208e+02
-3.5175240196433127e-01 2.7691752401964614e+01
ITEM: ATOMS id type q x y z
1 2 2.2208 5.18801 1.34124 5.21913
2 1 -1.1104 0.904725 -2.90782 1.11786
3 1 -1.1104 1.13273 2.6518 0.99351
6 1 -1.1104 1.00291 -2.83692 3.78482
7 1 -1.1104 0.93588 2.74946 3.79704
10 1 -1.1104 1.05375 -0.141809 1.18954
12 2 2.2208 5.20301 -1.45514 2.50417
13 2 2.2208 5.30659 4.14668 2.45293
14 1 -1.1104 0.887349 -0.023016 3.84018
16 1 -1.1104 3.71322 -2.90638 1.00252
17 1 -1.1104 3.9436 2.74109 1.03006
18 2 2.2208 2.40418 1.33498 2.46322
19 1 -1.1104 3.83038 -2.86395 3.74565
20 1 -1.1104 3.86642 2.67631 3.77604
21 2 2.2208 2.39209 -1.31471 5.18062
22 2 2.2208 2.51895 4.10513 5.23207
23 1 -1.1104 3.73977 -0.170263 1.18319
24 1 -1.1104 3.77498 -0.119593 3.91778
170 1 -1.1104 0.978877 -0.172732 6.71633
173 1 -1.1104 3.84201 2.82621 6.62592
28 2 2.2208 2.43635 -4.1952 2.48623
166 1 -1.1104 1.15762 -2.84788 6.67222
8 1 -1.1104 6.56685 -2.83311 4.0684
4 1 -1.1104 6.69088 -2.90277 1.2099
15 1 -1.1104 6.61591 -0.143061 3.72812
11 1 -1.1104 6.64015 -0.141568 1.07992
174 1 -1.1104 3.83471 0.0501586 6.54666
306 2 2.2208 5.18723 1.24172 -0.355555
308 2 2.2208 2.44365 4.08228 -0.16792
5 1 -1.1104 6.63803 2.77914 0.864496
9 1 -1.1104 6.64639 2.55263 3.95569
169 1 -1.1104 6.66013 2.81894 6.5535
171 1 -1.1104 6.6401 0.0515615 6.65091
51 2 2.2208 8.14057 -4.14885 2.50545
31 2 2.2208 10.8076 1.29253 5.29486
32 1 -1.1104 12.1288 -2.66526 0.927595
33 1 -1.1104 12.2112 2.88022 1.01426
34 1 -1.1104 12.2977 -2.86202 3.88525
35 1 -1.1104 12.4103 2.61984 3.83332
36 1 -1.1104 12.3361 0.0491831 1.14674
37 2 2.2208 10.8617 -1.39592 2.48286
38 2 2.2208 10.7784 4.08423 2.40715
39 1 -1.1104 12.2288 -0.0931422 4.03004
40 1 -1.1104 9.49886 -2.72837 0.932478
41 1 -1.1104 9.39311 2.69437 0.949437
42 2 2.2208 7.9923 1.22292 2.51688
43 1 -1.1104 9.54793 -2.76372 3.88482
44 1 -1.1104 9.52937 2.64349 3.67097
45 2 2.2208 8.0271 -1.45464 5.37853
46 2 2.2208 7.99758 4.17989 5.30154
47 1 -1.1104 9.34034 0.0163715 1.11009
48 1 -1.1104 9.3751 -0.11712 4.03855
205 1 -1.1104 12.1282 -2.85186 6.80313
52 2 2.2208 10.7834 -4.20094 5.43462
206 1 -1.1104 12.142 2.70855 6.79883
210 1 -1.1104 9.50567 0.0144305 6.84996
8294 2 2.2208 13.6026 4.14557 5.28078
8601 2 2.2208 13.7868 -4.26879 2.53893
311 2 2.2208 7.90409 -1.37055 -0.258291
577 2 2.2208 10.8751 -4.22205 -0.344093
54 2 2.2208 5.20573 7.04428 5.15985
55 2 2.2208 5.12602 12.6826 5.23253
56 1 -1.1104 0.877214 8.32354 1.11837
58 1 -1.1104 1.00336 8.46461 3.79557
60 1 -1.1104 1.02225 5.50102 1.07661
61 1 -1.1104 0.963593 11.1854 1.11413
66 2 2.2208 5.30474 9.77866 2.43717
67 1 -1.1104 1.0373 5.61387 3.89865
68 1 -1.1104 1.21312 11.2484 3.79618
71 1 -1.1104 3.77009 8.51097 1.00587
72 2 2.2208 2.30711 6.96588 2.39329
73 2 2.2208 2.42425 12.5495 2.35666
74 1 -1.1104 3.76477 8.43996 3.72943
75 2 2.2208 2.52569 9.86331 5.21318
76 1 -1.1104 3.79862 5.50362 1.04007
77 1 -1.1104 3.78772 11.4053 0.867685
79 1 -1.1104 3.87077 5.46856 3.87671
80 1 -1.1104 3.95684 11.2665 3.78251
239 1 -1.1104 3.83173 5.63593 6.4874
238 1 -1.1104 3.92254 8.32384 6.62675
70 1 -1.1104 6.65894 11.2178 3.75544
64 1 -1.1104 6.53658 11.1135 0.908267
62 1 -1.1104 1.0367 11.1111 6.47044
236 1 -1.1104 0.984498 5.53941 6.66865
63 1 -1.1104 6.60288 5.57331 1.06859
234 1 -1.1104 1.04977 8.20003 6.75312
78 1 -1.1104 3.8142 11.1853 6.68745
235 1 -1.1104 6.64225 8.47206 6.54017
237 1 -1.1104 6.47608 5.69722 6.56351
57 1 -1.1104 6.6504 8.3569 1.0339
69 1 -1.1104 6.63928 5.41943 3.87568
59 1 -1.1104 6.59002 8.34604 3.81192
65 1 -1.1104 6.7346 11.2149 6.57054
84 2 2.2208 10.8908 6.967 5.26267
85 2 2.2208 10.9383 12.5356 5.17069
86 1 -1.1104 12.3645 8.33394 1.03588
87 1 -1.1104 12.4611 8.2474 3.94568
88 1 -1.1104 12.2223 5.50415 1.00865
89 1 -1.1104 12.2705 11.0873 1.19303
91 2 2.2208 10.9619 9.75173 2.40644
92 1 -1.1104 12.4081 5.58282 3.75245
93 1 -1.1104 12.3424 11.2144 3.80879
94 1 -1.1104 9.45066 8.33822 0.987372
95 2 2.2208 8.11598 6.87869 2.57987
96 2 2.2208 8.16395 12.6432 2.4625
97 1 -1.1104 9.47624 8.396 3.82562
98 2 2.2208 8.05724 9.78172 5.1756
99 1 -1.1104 9.47092 5.52844 1.17529
100 1 -1.1104 9.41623 11.1491 0.959367
102 1 -1.1104 9.47886 5.4141 3.90558
103 1 -1.1104 9.49304 11.1178 3.81601
101 1 -1.1104 9.43946 11.1436 6.59111
269 1 -1.1104 9.39537 5.65795 6.70498
8606 2 2.2208 13.6356 6.90865 2.36909
314 2 2.2208 8.09953 9.70749 -0.387079
106 2 2.2208 5.28552 18.2325 5.2539
107 1 -1.1104 0.918794 13.9735 1.0012
109 1 -1.1104 1.10058 19.6415 1.06821
113 1 -1.1104 1.10828 14.0852 3.92575
114 1 -1.1104 1.05177 19.5893 3.72317
116 1 -1.1104 1.09482 16.8235 1.02876
119 2 2.2208 5.16951 15.3295 2.41162
120 2 2.2208 5.32066 20.9919 2.45639
121 1 -1.1104 0.978168 16.8448 3.8111
123 1 -1.1104 3.76371 13.9848 1.07406
125 1 -1.1104 4.01596 19.5654 1.07777
127 2 2.2208 2.46172 18.2695 2.42633
128 1 -1.1104 3.78311 14.0168 3.87389
129 1 -1.1104 3.85815 19.5695 3.93577
130 2 2.2208 2.47068 15.5217 5.21128
131 2 2.2208 2.39799 20.9902 5.23072
132 1 -1.1104 3.85307 16.7633 1.07273
134 1 -1.1104 3.84925 16.9607 3.76352
139 1 -1.1104 6.64824 19.6181 4.01111
126 1 -1.1104 3.72457 19.5859 6.7802
138 1 -1.1104 6.81548 19.5696 0.99266
133 1 -1.1104 3.86699 16.9269 6.50555
302 1 -1.1104 0.931267 19.6038 6.48121
108 1 -1.1104 0.960568 13.8457 6.85704
117 1 -1.1104 1.03526 16.7337 6.53134
111 1 -1.1104 6.56451 14.039 6.64036
122 1 -1.1104 6.64417 16.984 3.80507
110 1 -1.1104 6.77052 13.9208 1.01661
140 1 -1.1104 6.63313 16.5893 1.12777
118 1 -1.1104 6.73011 16.8981 6.73082
124 1 -1.1104 3.71362 13.898 6.65337
8608 2 2.2208 -0.37081 21.0414 2.51646
8607 2 2.2208 -0.392493 15.487 2.39387
638 2 2.2208 5.26191 18.1104 -0.373057
145 1 -1.1104 12.2572 19.5792 6.73334
115 1 -1.1104 6.56733 14.172 3.88356
112 1 -1.1104 6.70275 19.6557 6.73956
141 2 2.2208 10.8652 18.1386 5.16592
142 1 -1.1104 12.3279 13.8046 0.904845
144 1 -1.1104 12.188 19.628 0.907045
146 1 -1.1104 12.2927 13.9338 3.69064
147 1 -1.1104 12.2403 19.7168 3.80779
148 1 -1.1104 12.2651 16.739 0.860394
150 2 2.2208 10.8642 15.2218 2.38374
151 2 2.2208 10.9484 21.1113 2.42151
152 1 -1.1104 12.2989 16.7563 3.83829
153 1 -1.1104 9.62727 13.8335 0.974549
155 1 -1.1104 9.54893 19.6201 1.13122
157 2 2.2208 8.06263 18.2315 2.43964
158 1 -1.1104 9.43897 13.9124 3.84737
159 1 -1.1104 9.44374 19.6773 4.03756
160 2 2.2208 8.11181 15.5502 5.07812
161 2 2.2208 8.0359 21.0198 5.3689
162 1 -1.1104 9.37449 16.7545 1.00348
164 1 -1.1104 9.48257 16.7589 3.86946
149 1 -1.1104 12.2633 16.8606 6.54544
163 1 -1.1104 9.58077 16.6886 6.66963
143 1 -1.1104 12.2499 13.9162 6.48109
154 1 -1.1104 9.48479 13.9523 6.64937
8371 2 2.2208 13.6325 20.9574 5.15785
8392 2 2.2208 13.6892 15.3436 5.234
156 1 -1.1104 9.47041 19.6715 6.75469
8610 2 2.2208 13.5188 18.208 2.53489
172 1 -1.1104 3.82966 -2.8871 6.50918
167 1 -1.1104 0.975454 2.73363 6.50612
168 1 -1.1104 6.60111 -2.73998 6.79557
8703 2 2.2208 -0.344305 4.12334 13.6508
355 2 2.2208 2.39139 -4.12323 13.6678
203 2 2.2208 5.24564 -4.28795 10.8615
202 2 2.2208 2.46213 -4.21267 8.04414
175 2 2.2208 5.1642 1.42546 10.7882
176 1 -1.1104 0.972604 -2.80048 12.2576
177 1 -1.1104 1.01008 2.60156 12.1088
180 1 -1.1104 1.00701 -2.79948 9.439
181 1 -1.1104 0.945818 2.59768 9.31496
184 1 -1.1104 1.13775 -0.140243 12.348
186 2 2.2208 5.23888 -1.37753 8.11564
187 2 2.2208 5.13898 4.21093 7.95646
188 1 -1.1104 1.02127 -0.163376 9.57954
190 1 -1.1104 3.89975 -2.86212 12.2492
191 1 -1.1104 3.81244 2.6191 12.2123
192 2 2.2208 2.33191 1.2301 8.08106
193 1 -1.1104 4.05248 -2.83399 9.32352
194 1 -1.1104 3.83997 2.68788 9.37756
195 2 2.2208 2.42579 -1.4746 10.9374
196 2 2.2208 2.44254 4.10176 10.8501
197 1 -1.1104 3.93933 0.0263298 12.2148
198 1 -1.1104 3.62905 -0.0897989 9.45283
178 1 -1.1104 6.63922 -2.8272 12.3711
356 2 2.2208 5.51292 -1.4819 13.6923
183 1 -1.1104 6.63235 2.82606 9.46268
182 1 -1.1104 6.69018 -2.66106 9.59252
179 1 -1.1104 6.58897 2.8465 12.2954
185 1 -1.1104 6.68425 -0.227384 12.1272
8620 2 2.2208 13.7305 -4.20156 8.06672
207 1 -1.1104 12.2185 -0.123013 6.78591
209 1 -1.1104 9.4746 2.84871 6.54279
208 1 -1.1104 9.46342 -2.82248 6.66412
8429 2 2.2208 13.6342 4.09117 10.8606
189 1 -1.1104 6.55844 -0.000589326 9.43671
232 2 2.2208 10.8809 -4.28825 10.8382
211 2 2.2208 10.7631 1.43131 10.9553
212 1 -1.1104 12.1954 -2.80742 12.2986
213 1 -1.1104 12.2823 2.79364 12.2333
214 1 -1.1104 12.294 -2.83631 9.50273
215 1 -1.1104 12.1793 2.9338 9.47741
216 1 -1.1104 12.2276 0.0260031 12.2079
217 2 2.2208 10.9028 -1.43214 8.24399
218 2 2.2208 10.8649 4.17163 8.15267
219 1 -1.1104 12.2833 -0.0751317 9.49552
220 1 -1.1104 9.47202 -2.90057 12.3592
221 1 -1.1104 9.42078 2.84492 12.1736
222 2 2.2208 8.04937 1.5473 8.0224
223 1 -1.1104 9.54354 -2.81026 9.64852
224 1 -1.1104 9.25866 2.85482 9.51714
225 2 2.2208 7.98297 -1.30024 10.8403
226 2 2.2208 7.97442 4.22792 10.8946
227 1 -1.1104 9.40632 -0.0552974 12.3725
228 1 -1.1104 9.47635 0.0318817 9.60315
386 2 2.2208 8.19982 -4.2349 13.6388
390 2 2.2208 10.8204 -1.51482 13.6365
240 2 2.2208 5.21457 6.94688 10.7884
241 2 2.2208 5.19881 12.6682 10.882
242 1 -1.1104 0.93073 8.31086 12.311
244 1 -1.1104 0.971647 8.29558 9.47766
246 1 -1.1104 0.963231 5.46654 12.271
247 1 -1.1104 1.01198 11.1072 12.19
250 2 2.2208 5.16841 9.82919 8.0201
251 1 -1.1104 1.07887 5.43362 9.4427
252 1 -1.1104 1.03864 11.0668 9.4048
255 1 -1.1104 3.94809 8.37434 12.1701
256 2 2.2208 2.50562 6.91298 7.9818
257 2 2.2208 2.45262 12.4472 8.13031
258 1 -1.1104 3.93094 8.30789 9.35425
259 2 2.2208 2.43388 9.74631 10.8289
260 1 -1.1104 3.65091 5.59052 12.254
261 1 -1.1104 3.83904 11.0894 12.2703
262 1 -1.1104 3.86113 5.49235 9.44905
263 1 -1.1104 3.88507 11.2297 9.56184
426 2 2.2208 5.41567 9.65925 13.6237
248 1 -1.1104 6.56143 5.65241 12.2166
427 2 2.2208 2.42558 12.4102 13.7118
243 1 -1.1104 6.62893 8.2669 12.1303
254 1 -1.1104 6.78783 11.2235 9.30834
245 1 -1.1104 6.60383 8.3865 9.37667
249 1 -1.1104 6.62965 11.0978 12.2473
253 1 -1.1104 6.6025 5.61062 9.48238
8506 2 2.2208 13.713 12.6043 8.06174
8734 2 2.2208 13.4668 12.6378 13.7476
265 1 -1.1104 12.3075 8.30752 6.60447
267 1 -1.1104 9.43264 8.31362 6.46988
266 1 -1.1104 12.1632 5.5824 6.69034
90 1 -1.1104 12.3264 11.2037 6.58289
8729 2 2.2208 13.5934 6.83843 13.7359
8510 2 2.2208 13.6466 9.83644 10.8117
264 1 -1.1104 9.5992 11.1739 9.47478
268 1 -1.1104 9.39283 5.5781 9.5713
270 1 -1.1104 9.36241 11.2215 12.1616
271 1 -1.1104 9.39247 5.63272 12.2969
272 2 2.2208 8.16864 9.65907 10.7244
273 1 -1.1104 9.42892 8.29243 9.32001
274 2 2.2208 8.03572 12.5367 8.02044
275 2 2.2208 7.97911 7.02961 7.98236
276 2 2.2208 10.9534 7.04724 10.8091
277 2 2.2208 10.889 12.6062 10.8185
278 1 -1.1104 12.2946 8.46067 12.247
279 1 -1.1104 12.3475 8.54175 9.43775
280 1 -1.1104 12.2669 5.56478 12.1672
281 1 -1.1104 12.1204 11.2727 12.3376
282 2 2.2208 10.8592 9.82108 7.94014
283 1 -1.1104 12.1654 5.71407 9.4424
284 1 -1.1104 12.3391 11.1728 9.43054
285 1 -1.1104 9.40787 8.32304 12.0891
452 2 2.2208 7.98793 6.96231 13.6455
454 2 2.2208 8.01492 12.5405 13.6052
8505 2 2.2208 13.6309 6.9276 8.01652
453 2 2.2208 10.815 9.71971 13.5791
8614 2 2.2208 -0.414571 15.3695 8.03283
289 1 -1.1104 6.50476 16.792 9.5629
296 1 -1.1104 6.67983 19.5813 12.1759
297 1 -1.1104 6.68791 13.904 12.2824
201 2 2.2208 2.45998 15.3503 10.8133
204 2 2.2208 2.34709 21.0339 10.9201
229 1 -1.1104 3.80305 16.6789 12.1976
230 1 -1.1104 0.946966 16.6353 12.1847
286 1 -1.1104 3.80648 19.5951 12.3422
287 1 -1.1104 3.88136 14.0216 12.3031
291 1 -1.1104 0.979543 19.506 9.4559
292 1 -1.1104 1.08026 16.7748 9.50953
293 2 2.2208 5.08099 20.9082 8.10134
294 1 -1.1104 1.0622 13.902 9.59664
295 2 2.2208 5.22315 15.4723 7.98974
298 1 -1.1104 0.948682 19.5749 12.2958
299 1 -1.1104 1.11582 13.8831 12.5414
300 2 2.2208 5.21214 18.1583 10.8485
301 1 -1.1104 3.83571 19.545 9.51735
303 2 2.2208 2.32327 18.2528 8.02057
304 1 -1.1104 3.86217 16.8408 9.28785
305 1 -1.1104 3.85162 14.1657 9.48003
233 1 -1.1104 6.6168 16.8112 12.2241
490 2 2.2208 5.21074 15.2774 13.6798
489 2 2.2208 5.26395 21.009 13.6433
288 1 -1.1104 6.59967 19.671 9.39004
488 2 2.2208 2.3192 18.2616 13.7395
8594 2 2.2208 13.5421 15.4317 10.8759
165 2 2.2208 8.13582 21.0065 10.7829
83 1 -1.1104 9.46777 14.0623 12.2433
30 1 -1.1104 12.2126 14.0172 9.37674
135 1 -1.1104 9.35316 13.8944 9.51558
137 2 2.2208 7.99179 15.2857 10.7794
105 2 2.2208 8.0122 18.2777 8.11491
515 2 2.2208 10.7458 21.0157 13.8034
517 2 2.2208 7.9038 18.2394 13.5961
8556 2 2.2208 13.6712 21.0988 10.939
200 1 -1.1104 9.10921 16.8697 9.58538
26 1 -1.1104 12.1531 14.1854 12.2999
49 1 -1.1104 12.2809 19.4798 9.43465
50 1 -1.1104 12.3182 16.7952 12.2157
25 2 2.2208 10.894 18.2173 10.8407
290 1 -1.1104 6.52182 13.9831 9.46717
516 2 2.2208 10.7828 15.4016 13.6205
27 1 -1.1104 12.2611 19.6115 12.3107
104 1 -1.1104 9.45702 19.6213 12.3096
199 1 -1.1104 9.38795 16.8544 12.2764
81 2 2.2208 10.822 20.9419 8.03917
136 1 -1.1104 9.41857 19.5523 9.56956
82 1 -1.1104 12.079 16.7708 9.43222
53 2 2.2208 10.7992 15.3685 8.10729
8595 2 2.2208 13.6352 18.1851 7.99521
316 2 2.2208 5.24835 1.36323 16.4319
317 1 -1.1104 0.941973 -2.78487 17.8117
318 1 -1.1104 1.19923 2.76484 17.8837
321 1 -1.1104 0.968346 -2.63959 14.9331
323 1 -1.1104 1.01574 2.6978 15.0879
329 1 -1.1104 1.17172 -0.0106959 17.9559
331 2 2.2208 5.23021 -1.42175 19.1873
332 2 2.2208 5.37732 4.0596 19.1354
333 1 -1.1104 1.0758 0.00711705 15.0944
337 1 -1.1104 3.74769 -2.75926 17.8786
338 1 -1.1104 3.96577 2.73386 17.8738
339 2 2.2208 2.40285 1.37848 19.3433
340 1 -1.1104 3.85837 -2.76801 15.0668
342 1 -1.1104 3.80335 2.79579 15.0431
344 2 2.2208 2.48135 -1.28861 16.4345
345 2 2.2208 2.42577 4.13052 16.4106
346 1 -1.1104 3.88915 -0.00963019 17.8546
347 1 -1.1104 3.99075 -0.0395724 15.1165
324 1 -1.1104 0.815604 2.68794 20.6931
350 2 2.2208 5.2456 -4.23616 16.4027
320 1 -1.1104 6.75195 2.72603 17.8391
335 1 -1.1104 6.66372 0.0408466 14.9183
327 1 -1.1104 6.56498 2.89132 14.966
348 1 -1.1104 3.70405 0.0883011 20.6579
343 1 -1.1104 3.84368 2.8258 20.6683
334 1 -1.1104 0.847785 0.0579302 20.7198
319 1 -1.1104 6.48368 -2.80321 17.7455
351 2 2.2208 2.47796 -4.22736 19.2065
322 1 -1.1104 1.1169 -2.84107 20.6523
9007 2 2.2208 -0.446221 -1.34134 19.3306
358 2 2.2208 5.06378 4.26832 13.7257
357 2 2.2208 2.42615 1.26977 13.6015
325 1 -1.1104 6.8388 -2.91688 15.1178
384 2 2.2208 10.8183 -4.2576 16.4884
330 1 -1.1104 6.5142 -0.175659 17.744
359 2 2.2208 10.7965 1.32168 16.5129
360 1 -1.1104 12.1643 -2.88265 17.7239
361 1 -1.1104 12.229 2.65078 17.8347
362 1 -1.1104 12.2269 -2.92276 14.9222
364 1 -1.1104 12.2261 2.63584 14.9912
366 1 -1.1104 12.1848 -0.121313 17.7851
367 2 2.2208 10.721 -1.5095 19.1789
368 2 2.2208 10.7992 4.10486 19.1655
369 1 -1.1104 12.1083 -0.11615 15.0914
371 1 -1.1104 9.35855 -2.8359 17.7692
372 1 -1.1104 9.43706 2.72294 17.8354
373 2 2.2208 7.97102 1.31369 19.2847
374 1 -1.1104 9.44132 -2.78322 15.1038
376 1 -1.1104 9.49513 2.83458 15.0596
378 2 2.2208 7.95463 -1.38226 16.3357
379 2 2.2208 8.04892 4.15807 16.4177
380 1 -1.1104 9.41389 0.0652397 17.8814
381 1 -1.1104 9.36027 0.00853562 15.0476
9010 2 2.2208 13.5764 -1.44423 16.3987
382 1 -1.1104 9.38939 -0.159029 20.6712
365 1 -1.1104 12.1056 2.8347 20.64
375 1 -1.1104 9.41763 -2.96208 20.5413
9009 2 2.2208 13.6757 -4.23462 19.212
8656 2 2.2208 13.5537 4.09124 16.485
8662 2 2.2208 13.5052 1.23929 19.2636
391 2 2.2208 10.8715 4.21773 13.5976
389 2 2.2208 7.99935 1.45839 13.5376
392 2 2.2208 5.28819 7.10061 16.4939
393 2 2.2208 5.25917 12.5186 16.4485
394 1 -1.1104 0.90017 8.38653 17.9762
396 1 -1.1104 1.0504 8.40844 15.2007
400 1 -1.1104 1.01367 5.64206 17.8517
401 1 -1.1104 1.03741 11.2327 17.8767
404 2 2.2208 5.2628 9.724 19.4231
405 1 -1.1104 0.966725 5.55487 15.0492
407 1 -1.1104 1.09465 11.032 15.0791
413 1 -1.1104 3.77996 8.34872 17.8485
414 2 2.2208 2.35848 6.99508 19.2435
415 2 2.2208 2.37874 12.6385 19.1698
416 1 -1.1104 3.93492 8.4143 15.0204
418 2 2.2208 2.46892 9.79583 16.6958
419 1 -1.1104 3.8712 5.54888 17.9165
420 1 -1.1104 3.85183 11.0497 18.1145
421 1 -1.1104 3.7352 5.66308 15.1482
423 1 -1.1104 3.89857 11.261 15.0478
397 1 -1.1104 0.917558 8.22996 20.733
408 1 -1.1104 1.01442 11.0881 20.737
409 1 -1.1104 6.72605 5.64607 15.0678
402 1 -1.1104 6.60848 5.56366 17.7975
417 1 -1.1104 3.77047 8.28814 20.7581
422 1 -1.1104 3.98941 5.45739 20.683
412 1 -1.1104 6.69723 11.0357 20.7158
411 1 -1.1104 6.51258 10.8982 15.0924
424 1 -1.1104 3.90869 11.2746 20.867
410 1 -1.1104 6.75771 5.62668 20.7153
403 1 -1.1104 6.6833 11.1951 17.8455
398 1 -1.1104 6.83233 8.25667 15.0741
399 1 -1.1104 6.70372 8.33264 20.7233
8771 2 2.2208 -0.363233 9.70525 19.3968
406 1 -1.1104 1.15246 5.47977 20.6456
425 2 2.2208 2.33648 6.97121 13.7271
8730 2 2.2208 13.6112 9.79767 16.494
395 1 -1.1104 6.65107 8.33007 17.8754
428 2 2.2208 10.8187 6.86279 16.4439
429 2 2.2208 10.6861 12.5355 16.4188
430 1 -1.1104 12.3163 8.40264 17.8898
431 1 -1.1104 12.162 8.21895 15.1144
433 1 -1.1104 12.0173 5.60371 17.9196
434 1 -1.1104 12.0231 11.1904 17.7715
435 2 2.2208 10.8103 9.87559 19.3193
436 1 -1.1104 12.2802 5.46476 15.0082
438 1 -1.1104 12.2966 11.045 15.0691
440 1 -1.1104 9.49761 8.52676 17.9398
441 2 2.2208 8.06784 7.01702 19.2819
442 2 2.2208 7.92164 12.6602 19.3591
443 1 -1.1104 9.53241 8.20031 15.0424
445 2 2.2208 8.21379 9.71237 16.6038
446 1 -1.1104 9.29408 5.6433 17.9002
447 1 -1.1104 9.3431 11.2536 17.8422
448 1 -1.1104 9.46014 5.44623 15.0971
450 1 -1.1104 9.42078 11.1106 15.0302
432 1 -1.1104 12.2519 8.48814 20.6516
444 1 -1.1104 9.42517 8.51568 20.8332
437 1 -1.1104 12.4603 5.706 20.7857
439 1 -1.1104 12.2415 11.2578 20.8283
449 1 -1.1104 9.65624 5.63119 20.6077
451 1 -1.1104 9.34907 11.2262 20.7051
8732 2 2.2208 13.5736 12.8007 19.3576
455 2 2.2208 5.30531 18.1386 16.4021
456 1 -1.1104 0.942237 13.8542 17.8413
457 1 -1.1104 1.00478 19.5561 17.9114
460 1 -1.1104 0.838632 13.8754 15.3026
462 1 -1.1104 1.02275 19.5747 15.0698
468 1 -1.1104 1.0989 16.7291 17.8318
470 2 2.2208 5.19986 15.2396 19.3286
471 2 2.2208 5.19154 20.9472 19.2521
472 1 -1.1104 1.11214 16.8665 15.1524
476 1 -1.1104 3.78264 13.8136 17.6909
477 1 -1.1104 3.76774 19.445 17.8183
478 2 2.2208 2.45956 18.0823 19.2377
479 1 -1.1104 3.7798 13.9772 15.0484
481 1 -1.1104 3.82204 19.653 14.9913
483 2 2.2208 2.47349 15.3581 16.3797
484 2 2.2208 2.41537 20.975 16.5276
485 1 -1.1104 3.89038 16.6522 17.8093
486 1 -1.1104 3.86304 16.78 15.0102
459 1 -1.1104 6.55088 19.4792 17.6708
469 1 -1.1104 6.48281 16.8184 18.0089
461 1 -1.1104 0.912202 13.8714 20.8916
482 1 -1.1104 3.70411 19.5103 20.7156
473 1 -1.1104 1.14927 16.5824 20.5865
487 1 -1.1104 4.0324 16.8546 20.5925
463 1 -1.1104 1.12876 19.4289 20.6673
467 1 -1.1104 6.6546 19.6617 20.6845
474 1 -1.1104 6.58441 16.6572 15.1609
458 1 -1.1104 6.62905 14.066 17.8955
464 1 -1.1104 6.65235 13.7904 15.1726
466 1 -1.1104 6.60229 19.5445 15.0815
8842 2 2.2208 -0.411605 15.2998 19.1714
480 1 -1.1104 3.63293 13.9612 20.6542
497 1 -1.1104 12.2674 19.724 20.6085
509 1 -1.1104 9.47017 19.5872 20.7178
491 2 2.2208 10.7516 18.1272 16.4373
492 1 -1.1104 12.1531 14.0881 17.7544
493 1 -1.1104 12.0019 19.7251 17.9554
494 1 -1.1104 12.142 13.9963 14.9865
496 1 -1.1104 12.2774 19.5759 15.2699
498 1 -1.1104 12.1788 16.7862 17.8586
499 2 2.2208 10.8163 15.4614 19.3158
500 2 2.2208 10.7126 21.0204 19.2675
501 1 -1.1104 12.3248 16.9388 15.0593
503 1 -1.1104 9.41833 14.0735 17.9236
504 1 -1.1104 9.40646 19.6433 17.7723
505 2 2.2208 8.06137 18.1868 19.2239
506 1 -1.1104 9.26192 13.9629 15.1511
508 1 -1.1104 9.44076 19.6381 15.0512
510 2 2.2208 7.93917 15.4213 16.5621
511 2 2.2208 7.97637 21.0565 16.4985
512 1 -1.1104 9.34486 16.9003 17.8223
513 1 -1.1104 9.47462 16.6878 15.1125
475 1 -1.1104 6.75308 16.8628 20.7233
502 1 -1.1104 12.1714 16.8877 20.6061
514 1 -1.1104 9.34208 16.7932 20.6551
8802 2 2.2208 13.513 18.2397 19.3503
8800 2 2.2208 13.6385 15.4497 16.3355
495 1 -1.1104 12.1899 14.1358 20.7113
8803 2 2.2208 13.6516 20.8935 16.4472
341 1 -1.1104 3.93071 -2.64728 20.6785
9015 2 2.2208 -0.523967 1.4538 22.1277
307 2 2.2208 2.30536 -1.51069 27.718
309 2 2.2208 5.25795 -4.30659 27.7726
519 2 2.2208 5.17087 1.54574 22.0783
520 1 -1.1104 1.00958 -2.8636 23.3776
521 1 -1.1104 0.930057 2.64168 23.6726
524 1 -1.1104 0.904893 -2.8542 26.2913
525 1 -1.1104 1.00366 2.64553 26.4367
528 1 -1.1104 1.04576 0.0873899 23.4921
530 2 2.2208 5.11729 -1.43608 24.9123
531 2 2.2208 5.18952 4.12535 24.9751
532 1 -1.1104 0.884395 -0.097096 26.3064
534 1 -1.1104 3.61008 -2.98096 23.5812
535 1 -1.1104 3.82171 2.79867 23.5611
536 2 2.2208 2.40048 1.35836 24.9328
537 1 -1.1104 3.72738 -2.83533 26.3142
538 1 -1.1104 3.80371 2.77237 26.3634
539 2 2.2208 2.43505 -1.3988 22.0383
540 2 2.2208 2.4721 4.17947 22.0498
541 1 -1.1104 3.71322 -0.112436 23.3945
542 1 -1.1104 3.83699 0.0225301 26.295
550 2 2.2208 2.28355 -4.25952 24.877
522 1 -1.1104 6.50488 -2.94163 23.5088
526 1 -1.1104 6.55921 -2.90537 26.3865
523 1 -1.1104 6.57106 2.77879 23.3536
8846 2 2.2208 -0.463301 -1.50727 25.004
9016 2 2.2208 -0.311411 4.14714 24.9205
328 1 -1.1104 6.60795 2.67969 20.6579
336 1 -1.1104 6.53184 -0.0435157 20.6902
370 1 -1.1104 12.1239 -0.0969779 20.6297
377 1 -1.1104 9.40552 2.8497 20.5381
363 1 -1.1104 12.4033 -2.88451 20.5491
326 1 -1.1104 6.56037 -2.74506 20.6479
8863 2 2.2208 13.8164 4.2021 22.1763
533 1 -1.1104 6.53183 -0.157413 26.3043
527 1 -1.1104 6.62515 2.67408 26.279
529 1 -1.1104 6.47509 -0.0237521 23.5119
555 2 2.2208 10.8635 1.5023 21.9598
556 1 -1.1104 12.1131 -2.82529 23.5105
557 1 -1.1104 12.3396 2.71293 23.4308
558 1 -1.1104 12.2357 -2.97788 26.2059
559 1 -1.1104 12.2378 2.4712 26.2742
560 1 -1.1104 12.1048 -0.0448476 23.4182
561 2 2.2208 10.7901 -1.50333 24.8343
562 2 2.2208 10.8939 4.12747 24.8815
563 1 -1.1104 12.252 -0.232203 26.2264
564 1 -1.1104 9.36426 -2.85472 23.5558
565 1 -1.1104 9.44154 2.66208 23.4725
566 2 2.2208 7.88073 1.24808 24.8984
567 1 -1.1104 9.38721 -2.89048 26.1795
568 1 -1.1104 9.425 2.73702 26.1797
569 2 2.2208 7.9103 -1.44141 22.1351
570 2 2.2208 8.11925 4.27494 22.1053
571 1 -1.1104 9.28788 -0.114609 23.4491
572 1 -1.1104 9.33121 -0.0339282 26.274
310 2 2.2208 10.8199 1.434 27.7421
575 2 2.2208 8.12024 4.05598 27.6974
9021 2 2.2208 13.7968 4.15271 27.6328
9024 2 2.2208 -0.297115 12.5393 22.1177
584 2 2.2208 5.28315 6.77843 22.0913
585 2 2.2208 5.30439 12.4184 22.1548
586 1 -1.1104 1.05876 8.3569 23.6078
588 1 -1.1104 1.06647 8.37909 26.2898
590 1 -1.1104 1.25536 5.44748 23.4911
591 1 -1.1104 1.13312 11.2528 23.4485
594 2 2.2208 5.31762 9.83648 24.9231
595 1 -1.1104 1.02928 5.58028 26.2231
596 1 -1.1104 1.08735 11.2162 26.2545
599 1 -1.1104 3.83387 8.42284 23.4628
600 2 2.2208 2.3708 6.96194 24.9549
601 2 2.2208 2.49867 12.7225 24.851
602 1 -1.1104 3.97622 8.31493 26.3186
603 2 2.2208 2.46906 9.78045 22.294
604 1 -1.1104 3.90807 5.48773 23.5075
605 1 -1.1104 3.93726 11.2239 23.5897
606 1 -1.1104 3.8074 5.60873 26.339
607 1 -1.1104 3.95598 11.2065 26.2845
593 1 -1.1104 6.6022 11.1204 23.5501
610 2 2.2208 5.27892 12.6626 27.6382
609 2 2.2208 2.4723 9.87555 27.6027
589 1 -1.1104 6.81893 8.22811 26.3718
312 2 2.2208 5.30529 7.0228 27.673
592 1 -1.1104 6.60553 5.6591 23.5087
597 1 -1.1104 6.69205 5.50169 26.2444
8629 2 2.2208 13.7931 9.7664 27.6627
8922 2 2.2208 13.5557 9.78266 22.1001
587 1 -1.1104 6.66133 8.23107 23.4626
598 1 -1.1104 6.61465 11.1583 26.2582
315 2 2.2208 10.844 12.5392 27.6707
615 1 -1.1104 9.52553 10.9541 26.3293
616 1 -1.1104 9.54267 5.50427 26.5245
617 1 -1.1104 9.56708 11.2488 23.5782
618 1 -1.1104 9.53479 5.52661 23.525
619 2 2.2208 7.9986 9.68228 22.2074
620 1 -1.1104 9.61258 8.25188 26.2571
621 2 2.2208 8.08721 12.5414 24.9271
622 2 2.2208 8.11471 6.83816 24.8383
623 2 2.2208 10.9518 6.9925 22.0447
624 2 2.2208 10.7468 12.6037 22.1129
625 1 -1.1104 12.3134 8.19967 23.4757
626 1 -1.1104 12.2643 8.44673 26.1429
627 1 -1.1104 12.2507 5.32694 23.4908
628 1 -1.1104 12.2247 10.952 23.5124
629 2 2.2208 10.8304 9.74566 24.9426
630 1 -1.1104 12.3172 5.47328 26.2072
631 1 -1.1104 12.3331 11.2711 26.3132
632 1 -1.1104 9.4402 8.27029 23.4778
313 2 2.2208 10.8709 7.00816 27.6983
9013 2 2.2208 13.6277 12.4574 24.7797
8869 2 2.2208 13.5826 6.94372 24.8176
465 1 -1.1104 6.58585 13.934 20.7379
646 1 -1.1104 6.65888 19.5869 23.4764
582 1 -1.1104 6.65139 19.5614 26.22
548 1 -1.1104 6.56985 16.8121 23.6256
543 2 2.2208 2.43553 20.9146 22.1409
544 1 -1.1104 3.82217 16.9019 23.4433
545 1 -1.1104 1.062 16.7162 23.3553
552 2 2.2208 2.44644 15.3503 22.1511
573 1 -1.1104 3.86257 14.0663 26.3786
574 1 -1.1104 3.86662 16.7655 26.2637
608 2 2.2208 2.49215 18.1115 24.9156
633 1 -1.1104 3.91475 19.648 26.3376
634 2 2.2208 5.2021 18.2605 22.0939
635 1 -1.1104 1.02216 14.0445 23.7047
639 1 -1.1104 3.88757 19.576 23.5157
641 1 -1.1104 3.8416 13.9857 23.5393
643 1 -1.1104 1.07958 19.5392 26.2596
644 1 -1.1104 1.0352 16.7716 26.241
645 1 -1.1104 1.10184 14.0931 26.2879
647 2 2.2208 5.31136 20.9983 24.91
648 2 2.2208 5.32225 15.4521 24.9846
650 1 -1.1104 0.956086 19.5397 23.4843
642 1 -1.1104 6.65484 16.7995 26.3691
649 1 -1.1104 6.77586 13.9949 23.5447
637 2 2.2208 2.40786 15.4241 27.675
551 2 2.2208 2.40911 21.0354 27.7001
8874 2 2.2208 -0.451248 18.206 22.1108
576 1 -1.1104 9.56604 14.0121 23.5773
352 2 2.2208 10.9179 18.0953 27.5798
583 1 -1.1104 9.46018 13.727 26.3079
349 2 2.2208 8.14253 15.2457 27.6932
554 1 -1.1104 12.148 16.8475 26.2079
387 1 -1.1104 12.2417 19.7436 23.3729
546 1 -1.1104 12.2226 16.9059 23.4998
611 1 -1.1104 9.57778 19.485 26.3056
354 2 2.2208 10.8042 18.348 22.0497
612 2 2.2208 8.03114 15.4806 22.2255
507 1 -1.1104 9.422 13.9687 20.5933
640 1 -1.1104 6.65193 14.0318 26.3015
581 2 2.2208 7.97948 18.1438 24.8854
9001 2 2.2208 13.7101 15.414 22.1316
580 1 -1.1104 9.35235 19.559 23.6215
547 2 2.2208 10.9417 15.3875 24.8623
518 1 -1.1104 12.3686 19.6571 26.2875
383 1 -1.1104 12.2698 13.9844 23.4787
353 2 2.2208 8.27256 20.9306 27.6541
613 2 2.2208 7.99106 21.2168 22.1149
614 1 -1.1104 9.46221 16.5898 23.4728
553 2 2.2208 11.0057 21.0621 24.7995
636 1 -1.1104 9.44183 16.747 26.3069
388 1 -1.1104 12.2677 13.9675 26.221
9005 2 2.2208 13.7026 21.1306 22.0274
9002 2 2.2208 13.6912 18.1713 24.9157
651 2 2.2208 5.19035 23.7071 5.22155
652 2 2.2208 5.19829 29.4022 5.31186
653 1 -1.1104 1.07362 25.3351 1.12864
654 1 -1.1104 0.929702 25.1909 3.89298
655 1 -1.1104 0.946618 22.4322 1.00887
656 1 -1.1104 1.06485 28.0088 0.885726
657 2 2.2208 5.21184 26.5854 2.38614
658 1 -1.1104 1.08287 22.5297 4.03688
659 1 -1.1104 1.15373 28.1918 3.83125
660 1 -1.1104 3.91127 25.2313 0.992905
661 2 2.2208 2.4361 23.7424 2.46041
662 2 2.2208 2.3982 29.4589 2.47622
663 1 -1.1104 3.82365 25.1393 3.75419
664 2 2.2208 2.47122 26.5124 5.31473
665 1 -1.1104 3.79406 22.2605 1.01858
666 1 -1.1104 3.77313 27.8904 1.07582
667 1 -1.1104 3.9457 22.2647 3.81047
668 1 -1.1104 3.94893 28.0114 3.81809
673 1 -1.1104 6.48471 25.1695 3.82226
792 1 -1.1104 1.12002 25.2105 6.71276
798 1 -1.1104 3.92594 25.0809 6.63035
793 1 -1.1104 6.74152 25.2129 6.71841
9342 2 2.2208 -0.330719 26.697 2.56319
9341 2 2.2208 -0.495845 23.7744 5.27397
9379 2 2.2208 -0.364542 29.5473 -0.338384
674 1 -1.1104 6.76485 22.3807 1.05103
677 1 -1.1104 6.68534 28.088 3.90725
672 1 -1.1104 6.72819 25.2401 1.02315
797 1 -1.1104 6.75063 28.0243 6.66659
676 1 -1.1104 6.62078 22.3288 3.97805
675 1 -1.1104 6.51792 27.9766 0.988916
678 2 2.2208 10.9424 23.8777 5.28242
679 2 2.2208 10.9964 29.4283 5.28806
680 1 -1.1104 12.1584 25.2968 0.86659
681 1 -1.1104 12.3651 25.2979 3.76361
682 1 -1.1104 12.3675 22.3396 1.16228
683 1 -1.1104 12.2536 28.0623 1.00653
684 2 2.2208 10.8577 26.5823 2.43139
685 1 -1.1104 12.2597 22.4976 3.78
686 1 -1.1104 12.2923 28.0475 3.87552
687 1 -1.1104 9.42091 25.2763 1.06037
688 2 2.2208 7.92724 23.8661 2.48374
689 2 2.2208 7.89854 29.3042 2.41924
690 1 -1.1104 9.33177 25.2444 3.95228
691 2 2.2208 8.10969 26.6925 5.28653
692 1 -1.1104 9.61834 22.3692 1.03277
693 1 -1.1104 9.51062 27.9164 1.03263
694 1 -1.1104 9.44557 22.3725 3.84348
695 1 -1.1104 9.48218 28.0596 3.77481
828 1 -1.1104 9.63916 25.1199 6.64681
9344 2 2.2208 13.6606 29.4637 2.40252
796 1 -1.1104 6.71319 22.4156 6.68622
830 1 -1.1104 9.50133 27.9185 6.60301
827 1 -1.1104 12.2473 28.0207 6.80417
829 1 -1.1104 9.54773 22.4017 6.61375
825 1 -1.1104 12.3093 25.2718 6.55994
826 1 -1.1104 12.3616 22.4234 6.45648
699 2 2.2208 5.16527 34.9611 5.22452
700 1 -1.1104 1.10757 30.8433 0.933452
701 1 -1.1104 0.852765 36.2847 1.15364
703 1 -1.1104 0.88839 30.8898 3.80426
704 1 -1.1104 0.998916 36.6285 3.82109
706 1 -1.1104 0.949643 33.6223 1.05362
707 2 2.2208 5.2233 32.1572 2.40498
708 2 2.2208 5.29432 37.8626 2.46599
709 1 -1.1104 1.02356 33.7525 3.98406
711 1 -1.1104 3.90426 30.7868 1.01089
712 1 -1.1104 3.70467 36.4898 1.06047
713 2 2.2208 2.42385 35.0105 2.44028
714 1 -1.1104 3.8133 30.7634 3.84774
715 1 -1.1104 3.88089 36.5243 3.86426
716 2 2.2208 2.46067 32.2068 5.1623
717 2 2.2208 2.49191 37.8737 5.29372
718 1 -1.1104 3.7925 33.7065 1.08501
719 1 -1.1104 3.88547 33.6386 3.76621
705 1 -1.1104 6.59752 36.3698 3.9217
725 1 -1.1104 6.79473 33.5979 1.03438
710 1 -1.1104 6.53048 33.5191 3.78255
850 1 -1.1104 1.11729 36.4614 6.60193
855 1 -1.1104 3.65312 30.7606 6.60718
853 1 -1.1104 1.04165 33.6741 6.72528
702 1 -1.1104 6.66767 36.3698 1.12376
958 2 2.2208 5.22327 35.019 -0.29419
9348 2 2.2208 -0.396824 35.0806 5.24221
851 1 -1.1104 6.52085 30.8267 6.72223
856 1 -1.1104 3.78464 36.434 6.58528
857 1 -1.1104 3.85241 33.5121 6.63387
9346 2 2.2208 -0.285881 37.8468 2.43956
957 2 2.2208 2.4782 32.2304 -0.470669
724 1 -1.1104 6.5905 30.8393 4.05449
854 1 -1.1104 6.57718 33.5882 6.5958
723 1 -1.1104 6.63533 30.7177 1.07741
726 2 2.2208 10.8889 35.0362 5.38396
727 1 -1.1104 12.1924 30.8133 1.10435
728 1 -1.1104 12.3349 36.4058 1.05112
729 1 -1.1104 12.3137 30.8794 3.83401
730 1 -1.1104 12.3177 36.4031 3.93058
731 1 -1.1104 12.3348 33.5912 1.02106
732 2 2.2208 10.7739 32.1074 2.45601