ITEM: TIMESTEP
80000
ITEM: NUMBER OF ATOMS
17730
ITEM: BOX BOUNDS pp pp pp
-3.6517499244771018e-01 2.7705174992447219e+01
-4.2839042413619186e+00 3.3236390424135215e+02
-3.6057918503458913e-01 2.7700579185035284e+01
ITEM: ATOMS id type q x y z
1 2 2.2208 5.26398 1.27555 5.32092
2 1 -1.1104 1.12448 -2.94503 1.05113
3 1 -1.1104 0.850006 2.50787 1.15555
6 1 -1.1104 1.22989 -2.86577 3.88974
7 1 -1.1104 1.02472 2.88054 3.83095
10 1 -1.1104 0.975215 -0.291082 1.16386
12 2 2.2208 5.38686 -1.42983 2.52951
14 1 -1.1104 1.1761 -0.0531828 3.92622
16 1 -1.1104 3.81579 -2.92752 1.27041
17 1 -1.1104 3.68924 2.67061 1.01023
18 2 2.2208 2.33444 1.25718 2.46781
19 1 -1.1104 3.94553 -2.75145 3.97052
20 1 -1.1104 3.94206 2.67547 3.80028
21 2 2.2208 2.58732 -1.46507 5.3299
22 2 2.2208 2.53637 4.2341 5.26974
23 1 -1.1104 3.8571 -0.238663 1.17686
24 1 -1.1104 3.98681 0.12252 3.85775
13 2 2.2208 5.23108 4.22553 2.39793
8 1 -1.1104 6.75535 -2.91217 3.87891
5 1 -1.1104 6.59727 2.70227 1.05319
171 1 -1.1104 6.70866 -0.157345 6.95992
166 1 -1.1104 1.06607 -2.93355 6.68331
174 1 -1.1104 3.79804 -0.0969891 6.62055
4 1 -1.1104 6.73115 -2.87078 1.18743
168 1 -1.1104 6.6569 -2.98136 6.79778
11 1 -1.1104 6.60908 -0.299072 1.07411
9 1 -1.1104 6.77795 2.89635 3.66589
15 1 -1.1104 6.79031 -0.149349 4.00351
173 1 -1.1104 3.92616 2.69365 6.58291
169 1 -1.1104 6.77495 2.66482 6.55946
31 2 2.2208 10.9593 1.3875 5.43923
32 1 -1.1104 12.2706 -3.07828 1.16689
33 1 -1.1104 12.2439 2.72561 1.1198
34 1 -1.1104 12.1605 -2.99609 3.99406
35 1 -1.1104 12.2439 2.60612 3.90242
36 1 -1.1104 12.2393 -0.207198 1.08447
37 2 2.2208 10.7549 -1.38104 2.48227
39 1 -1.1104 12.279 -0.121859 3.89235
40 1 -1.1104 9.38076 -2.96981 1.10035
41 1 -1.1104 9.53971 2.84191 1.13872
42 2 2.2208 8.04466 1.44646 2.60309
43 1 -1.1104 9.39538 -2.72884 3.91066
44 1 -1.1104 9.57858 2.87699 3.91654
45 2 2.2208 8.09336 -1.5556 5.42076
46 2 2.2208 8.21336 4.14206 5.28689
47 1 -1.1104 9.29714 0.0934783 1.18656
48 1 -1.1104 9.55272 0.129555 4.02545
38 2 2.2208 10.9725 4.14136 2.47787
205 1 -1.1104 12.2594 -3.05209 6.77998
210 1 -1.1104 9.51605 -0.135444 6.82805
206 1 -1.1104 12.1861 2.70386 6.8007
314 2 2.2208 8.16592 9.72871 -0.175546
8601 2 2.2208 13.7202 -4.38699 2.51423
51 2 2.2208 8.05795 -4.19372 2.60222
8429 2 2.2208 13.733 4.18325 10.9886
54 2 2.2208 5.33367 6.9301 5.30076
55 2 2.2208 5.36555 12.582 5.23798
56 1 -1.1104 0.996327 8.46729 1.14149
58 1 -1.1104 0.891542 8.46145 3.9487
60 1 -1.1104 1.18791 5.47828 1.22062
61 1 -1.1104 1.07474 11.2963 0.958035
66 2 2.2208 5.35554 9.80572 2.39893
67 1 -1.1104 1.04218 5.56304 3.83785
68 1 -1.1104 1.07798 11.1351 3.93997
71 1 -1.1104 3.78096 8.22315 0.926405
72 2 2.2208 2.3294 7.05257 2.5729
73 2 2.2208 2.49281 12.6059 2.40147
74 1 -1.1104 3.93724 8.27664 3.87412
75 2 2.2208 2.54113 9.74134 5.41424
76 1 -1.1104 3.94198 5.38528 0.812571
77 1 -1.1104 3.95709 11.1131 1.04865
79 1 -1.1104 3.79855 5.57109 3.77825
80 1 -1.1104 3.83145 11.2002 3.87048
69 1 -1.1104 6.62867 5.571 3.89779
64 1 -1.1104 6.83732 10.9408 1.0592
59 1 -1.1104 6.64581 8.39415 4.04798
78 1 -1.1104 3.87192 11.1902 6.66954
63 1 -1.1104 6.6614 5.48409 1.13901
62 1 -1.1104 1.07051 11.2288 6.60483
57 1 -1.1104 6.52418 8.24251 1.09837
235 1 -1.1104 6.73034 8.38474 6.74096
237 1 -1.1104 6.70318 5.55934 6.62967
70 1 -1.1104 6.65564 11.0751 3.86691
238 1 -1.1104 3.88836 8.42076 6.57025
234 1 -1.1104 1.12897 8.41397 6.77637
84 2 2.2208 11.0128 7.03221 5.29333
85 2 2.2208 10.8254 12.5754 5.28619
86 1 -1.1104 12.2284 8.3456 1.12369
87 1 -1.1104 12.2933 8.29325 3.81976
88 1 -1.1104 12.1901 5.52988 0.920483
89 1 -1.1104 12.4141 11.1359 1.2286
91 2 2.2208 10.8882 9.80119 2.52456
92 1 -1.1104 12.4581 5.52622 3.85924
93 1 -1.1104 12.3381 11.084 3.99491
94 1 -1.1104 9.38167 8.51529 1.17289
95 2 2.2208 8.13526 6.95615 2.58498
96 2 2.2208 8.13569 12.6411 2.40253
97 1 -1.1104 9.60104 8.35071 3.93069
98 2 2.2208 8.08312 9.74268 5.28459
99 1 -1.1104 9.49547 5.69504 1.25113
100 1 -1.1104 9.72551 11.1507 1.10435
102 1 -1.1104 9.63192 5.72811 3.97455
103 1 -1.1104 9.42328 11.1022 3.89172
265 1 -1.1104 12.222 8.4252 6.64972
90 1 -1.1104 12.0758 11.2465 6.71627
8606 2 2.2208 13.5673 6.91973 2.45224
8605 2 2.2208 13.7284 12.5856 2.47989
269 1 -1.1104 9.36377 5.58138 6.76932
101 1 -1.1104 9.5023 11.208 6.66003
8323 2 2.2208 13.6858 9.69901 5.27219
610 2 2.2208 5.23719 12.5971 -0.433026
637 2 2.2208 2.36236 15.397 -0.381298
106 2 2.2208 5.26575 18.2081 5.2842
107 1 -1.1104 1.18479 13.9763 1.07921
109 1 -1.1104 1.16306 19.5765 0.92047
113 1 -1.1104 1.19119 14.0268 3.86481
114 1 -1.1104 1.02124 19.6781 3.83088
116 1 -1.1104 1.22786 16.8862 1.01492
119 2 2.2208 5.34007 15.5651 2.39008
120 2 2.2208 5.34773 20.8722 2.45642
121 1 -1.1104 1.19134 16.7497 3.8204
123 1 -1.1104 3.83073 14.0291 1.04602
125 1 -1.1104 3.92252 19.5056 1.07274
127 2 2.2208 2.5205 18.199 2.50418
128 1 -1.1104 3.92713 14.1262 3.85893
129 1 -1.1104 3.8748 19.5413 3.93853
130 2 2.2208 2.59278 15.3816 5.24168
131 2 2.2208 2.42169 20.9785 5.32545
132 1 -1.1104 3.88194 16.7473 0.928811
134 1 -1.1104 3.98196 16.8537 3.82782
139 1 -1.1104 6.65529 19.6822 3.79432
122 1 -1.1104 6.74756 16.8227 3.9376
140 1 -1.1104 6.6908 16.8643 1.11088
138 1 -1.1104 6.73463 19.6061 0.901982
117 1 -1.1104 0.928833 16.8047 6.67196
115 1 -1.1104 6.76327 14.1165 3.84083
110 1 -1.1104 6.65456 13.9719 1.14854
112 1 -1.1104 6.61086 19.6074 6.60057
52 2 2.2208 10.8188 -4.30775 5.4054
551 2 2.2208 2.52245 20.8823 -0.320154
358 2 2.2208 5.21427 4.11664 13.6243
8610 2 2.2208 13.704 18.1926 2.46648
163 1 -1.1104 9.46539 16.8632 6.86278
141 2 2.2208 10.9113 18.2029 5.22772
142 1 -1.1104 12.1707 13.9441 1.05644
144 1 -1.1104 12.342 19.5477 0.981363
146 1 -1.1104 12.2815 13.9137 3.8169
147 1 -1.1104 12.2219 19.5069 3.72074
148 1 -1.1104 12.3184 16.7713 1.02373
150 2 2.2208 10.9741 15.3948 2.43569
151 2 2.2208 10.9608 20.9308 2.41652
152 1 -1.1104 12.363 16.6675 3.84976
153 1 -1.1104 9.32129 13.9237 0.946536
155 1 -1.1104 9.51696 19.5971 1.03041
157 2 2.2208 8.17142 18.1467 2.43609
158 1 -1.1104 9.47532 13.8642 3.7371
159 1 -1.1104 9.44544 19.5167 3.79813
160 2 2.2208 8.08729 15.4831 5.16692
161 2 2.2208 8.02336 21.0325 5.19316
162 1 -1.1104 9.45515 16.6544 1.17199
164 1 -1.1104 9.55185 16.7642 3.88384
145 1 -1.1104 12.3258 19.587 6.52727
154 1 -1.1104 9.41705 14.0469 6.65509
156 1 -1.1104 9.37808 19.5602 6.55862
8392 2 2.2208 13.7155 15.2525 5.27856
9003 2 2.2208 13.6224 15.2744 -0.389228
349 2 2.2208 7.99882 15.4287 -0.351323
352 2 2.2208 10.8782 18.175 -0.400881
26 1 -1.1104 12.207 14.1497 12.2554
167 1 -1.1104 1.23727 2.70536 6.61533
172 1 -1.1104 3.89363 -2.83786 6.95585
170 1 -1.1104 1.21231 0.0158958 6.68115
175 2 2.2208 5.29391 1.24052 10.9186
176 1 -1.1104 1.22051 -2.94015 12.3792
177 1 -1.1104 1.22749 2.56087 12.2893
180 1 -1.1104 0.915203 -2.92215 9.49892
181 1 -1.1104 0.979159 2.44559 9.46306
184 1 -1.1104 1.20993 -0.0938862 12.1271
186 2 2.2208 5.39011 -1.52382 8.21921
187 2 2.2208 5.26735 4.02067 8.11755
188 1 -1.1104 1.02339 -0.252058 9.41199
190 1 -1.1104 3.94096 -2.89057 12.4037
191 1 -1.1104 3.90278 2.68452 12.1088
192 2 2.2208 2.5453 1.33137 8.05042
193 1 -1.1104 3.81065 -2.85899 9.64152
194 1 -1.1104 3.80428 2.64521 9.33969
195 2 2.2208 2.48903 -1.52508 10.8953
197 1 -1.1104 3.9671 -0.208722 12.3627
198 1 -1.1104 3.9106 -0.0430828 9.61334
196 2 2.2208 2.46908 4.11352 10.7346
179 1 -1.1104 6.77108 2.49031 12.229
8619 2 2.2208 13.724 -1.54034 11.0249
178 1 -1.1104 6.82175 -2.87201 12.5596
8595 2 2.2208 13.7447 18.1492 8.02017
189 1 -1.1104 6.72008 -0.0330243 9.61739
609 2 2.2208 2.53422 9.72006 -0.349185
8556 2 2.2208 13.6286 20.9079 10.8309
289 1 -1.1104 6.57648 16.8412 9.4499
50 1 -1.1104 12.2131 16.8522 12.3076
209 1 -1.1104 9.43113 2.74023 6.70107
208 1 -1.1104 9.45213 -2.8384 6.80327
312 2 2.2208 5.23404 6.90239 -0.359748
185 1 -1.1104 6.66763 -0.222542 12.3004
183 1 -1.1104 6.75467 2.68167 9.56212
207 1 -1.1104 12.2757 -0.168075 6.55943
182 1 -1.1104 6.67295 -2.86522 9.63208
211 2 2.2208 11.0761 1.53498 10.9824
212 1 -1.1104 12.2797 -2.84644 12.4663
213 1 -1.1104 12.4545 2.88104 12.4681
214 1 -1.1104 12.3194 -2.86309 9.72736
215 1 -1.1104 12.2172 3.03806 9.70558
216 1 -1.1104 12.2914 -0.069687 12.4925
217 2 2.2208 10.8051 -1.44689 8.24836
219 1 -1.1104 12.226 0.0125463 9.50125
220 1 -1.1104 9.43888 -2.79404 12.3567
221 1 -1.1104 9.77667 2.83438 12.282
222 2 2.2208 8.14547 1.24171 8.23348
223 1 -1.1104 9.54097 -2.99345 9.5921
224 1 -1.1104 9.50974 2.66199 9.53622
225 2 2.2208 8.15387 -1.4413 10.9854
226 2 2.2208 8.20145 4.1015 10.9377
227 1 -1.1104 9.45819 -0.096715 12.433
228 1 -1.1104 9.46148 -0.147341 9.68777
8618 2 2.2208 13.6734 1.25704 8.1649
8599 2 2.2208 13.745 1.35639 2.57437
82 1 -1.1104 12.2589 16.8736 9.47481
218 2 2.2208 10.7275 4.20179 8.1864
25 2 2.2208 10.908 18.2146 10.7872
8523 2 2.2208 -0.325149 9.72819 8.06499
8594 2 2.2208 13.5964 15.4672 10.8806
8371 2 2.2208 13.682 20.886 5.22137
236 1 -1.1104 0.992928 5.47762 6.58237
65 1 -1.1104 6.63411 11.1273 6.61707
199 1 -1.1104 9.61988 16.8966 12.3591
239 1 -1.1104 3.88037 5.50563 6.65071
240 2 2.2208 5.34317 6.96369 10.9028
241 2 2.2208 5.25143 12.6762 10.8077
242 1 -1.1104 0.858374 8.16523 12.3371
244 1 -1.1104 1.2017 8.00029 9.49802
246 1 -1.1104 0.920129 5.32012 12.108
247 1 -1.1104 1.00781 11.0758 12.353
250 2 2.2208 5.33171 9.729 8.05707
251 1 -1.1104 1.27837 5.35084 9.21904
252 1 -1.1104 0.989398 10.8882 9.54049
255 1 -1.1104 3.85184 8.3462 12.1503
256 2 2.2208 2.6063 6.88394 7.99054
257 2 2.2208 2.57396 12.5428 8.02712
258 1 -1.1104 3.83398 8.39937 9.24828
259 2 2.2208 2.39484 9.57452 10.832
260 1 -1.1104 3.86071 5.5051 12.3312
261 1 -1.1104 3.77455 11.0736 12.2208
262 1 -1.1104 4.06175 5.56192 9.51257
263 1 -1.1104 3.97406 11.2134 9.42003
253 1 -1.1104 6.82517 5.53768 9.37616
248 1 -1.1104 6.71539 5.40228 12.2675
254 1 -1.1104 6.78106 11.2273 9.42451
249 1 -1.1104 6.62261 11.189 12.4005
243 1 -1.1104 6.73987 8.37824 12.3049
245 1 -1.1104 6.65956 8.4014 9.55367
8510 2 2.2208 13.7174 9.87964 11.1431
8506 2 2.2208 13.5866 12.5366 8.12756
266 1 -1.1104 12.2794 5.53826 6.86058
267 1 -1.1104 9.44922 8.36864 6.74399
390 2 2.2208 10.8293 -1.27779 13.857
105 2 2.2208 8.10391 18.0784 8.0705
49 1 -1.1104 12.1605 19.5471 9.24515
264 1 -1.1104 9.5404 11.1685 9.3785
268 1 -1.1104 9.53671 5.71328 9.54736
270 1 -1.1104 9.37806 11.1272 12.2621
271 1 -1.1104 9.41662 5.62292 12.4224
272 2 2.2208 8.16029 9.77258 10.8884
273 1 -1.1104 9.45808 8.47339 9.61012
274 2 2.2208 8.01533 12.6237 7.98818
275 2 2.2208 8.12977 7.06776 8.07927
276 2 2.2208 10.9715 7.08691 10.9592
277 2 2.2208 10.8797 12.6096 10.9301
278 1 -1.1104 12.2729 8.51164 12.4074
279 1 -1.1104 12.2605 8.31898 9.53606
280 1 -1.1104 12.2192 5.68697 12.3423
281 1 -1.1104 12.308 11.266 12.3099
282 2 2.2208 10.8859 9.81138 8.08526
283 1 -1.1104 12.4401 5.57429 9.58066
284 1 -1.1104 12.3075 11.1057 9.59073
285 1 -1.1104 9.65231 8.33538 12.4318
8600 2 2.2208 13.5945 -1.56617 5.19552
27 1 -1.1104 12.1649 19.5089 12.1547
233 1 -1.1104 6.76417 16.794 12.3472
135 1 -1.1104 9.62249 13.8008 9.47011
126 1 -1.1104 3.85493 19.6622 6.66027
108 1 -1.1104 1.13619 14.0737 6.7872
302 1 -1.1104 1.07315 19.515 6.60737
133 1 -1.1104 3.83247 16.8128 6.66444
118 1 -1.1104 6.57962 16.8781 6.67431
111 1 -1.1104 6.73037 13.9567 6.60873
124 1 -1.1104 4.04352 13.9284 6.68246
201 2 2.2208 2.46281 15.3666 10.8397
204 2 2.2208 2.51793 20.9937 10.8099
229 1 -1.1104 3.95995 16.7626 12.2132
230 1 -1.1104 1.03961 16.8835 12.2931
286 1 -1.1104 3.8151 19.6202 12.3683
287 1 -1.1104 3.8598 13.8694 12.2158
291 1 -1.1104 1.22339 19.4244 9.49236
292 1 -1.1104 1.04711 16.7118 9.43744
293 2 2.2208 5.32897 20.9237 8.04575
294 1 -1.1104 1.07896 13.8577 9.65708
295 2 2.2208 5.29459 15.4766 7.99285
298 1 -1.1104 1.1306 19.7009 12.2754
299 1 -1.1104 0.877698 13.9625 12.3132
300 2 2.2208 5.3423 18.1234 10.8906
301 1 -1.1104 3.87653 19.4718 9.55693
303 2 2.2208 2.41183 18.1969 8.08619
304 1 -1.1104 3.78916 16.6528 9.48721
305 1 -1.1104 3.69233 14.0373 9.44319
290 1 -1.1104 6.85924 14.0933 9.42894
288 1 -1.1104 6.58752 19.6061 9.52177
296 1 -1.1104 6.63605 19.7208 12.3158
297 1 -1.1104 6.69206 13.9138 12.148
53 2 2.2208 10.8878 15.4352 8.06489
83 1 -1.1104 9.45659 13.9868 12.3394
200 1 -1.1104 9.39907 16.7128 9.59515
165 2 2.2208 8.04522 21.0211 10.7759
143 1 -1.1104 12.2183 13.8264 6.73233
149 1 -1.1104 12.4093 16.6417 6.56623
136 1 -1.1104 9.53738 19.7823 9.50573
81 2 2.2208 10.8335 21.0977 8.00531
137 2 2.2208 8.19491 15.3488 10.9754
104 1 -1.1104 9.49323 19.5728 12.2153
30 1 -1.1104 12.2952 14.0472 9.44104
453 2 2.2208 10.8533 9.93586 13.6604
307 2 2.2208 2.42005 -1.57908 -0.23875
308 2 2.2208 2.31327 4.12019 -0.172038
9004 2 2.2208 13.7096 20.9562 -0.406612
638 2 2.2208 5.38399 18.1049 -0.558092
516 2 2.2208 10.8914 15.4562 13.7414
316 2 2.2208 5.27539 1.33993 16.6745
317 1 -1.1104 1.128 -2.87702 18.0158
318 1 -1.1104 1.20199 2.62309 17.9845
321 1 -1.1104 1.04499 -2.97688 15.1113
323 1 -1.1104 1.07405 2.67804 15.086
329 1 -1.1104 0.936767 -0.0706189 17.9666
331 2 2.2208 5.19671 -1.34425 19.512
332 2 2.2208 5.26379 4.25937 19.2618
333 1 -1.1104 1.06221 -0.173474 15.1507
337 1 -1.1104 3.90754 -2.80545 17.9349
338 1 -1.1104 3.9136 2.75486 17.9518
339 2 2.2208 2.44286 1.33269 19.4345
340 1 -1.1104 3.88795 -2.95149 15.1786
342 1 -1.1104 3.91443 2.69157 14.9743
344 2 2.2208 2.53794 -1.46027 16.4937
346 1 -1.1104 3.90572 0.011466 17.9949
347 1 -1.1104 3.90269 0.026858 15.2223
345 2 2.2208 2.45797 4.11219 16.4274
8803 2 2.2208 13.5812 20.9699 16.4393
328 1 -1.1104 6.54482 2.76722 20.8185
322 1 -1.1104 1.06573 -2.82545 20.7781
348 1 -1.1104 3.71033 0.0600972 20.7863
330 1 -1.1104 6.67559 -0.120284 18.1547
326 1 -1.1104 6.55318 -2.86806 20.9864
335 1 -1.1104 6.62934 -0.123773 15.1873
325 1 -1.1104 6.62611 -2.71187 15.2447
9002 2 2.2208 13.7307 18.2065 24.9973
334 1 -1.1104 0.950469 -0.107224 20.7788
343 1 -1.1104 3.75971 2.77782 20.7493
336 1 -1.1104 6.63719 -0.0727819 20.8427
9010 2 2.2208 13.7157 -1.44144 16.637
319 1 -1.1104 6.56492 -2.96268 18.2168
387 1 -1.1104 12.2466 19.5256 23.5029
327 1 -1.1104 6.79488 2.77315 15.0217
320 1 -1.1104 6.69881 2.7367 17.8965
359 2 2.2208 10.9597 1.40758 16.6769
360 1 -1.1104 12.1682 -2.95802 18.1312
361 1 -1.1104 12.3122 2.87259 17.9769
362 1 -1.1104 12.197 -2.81631 15.3356
364 1 -1.1104 12.3409 2.79904 15.2801
366 1 -1.1104 12.4424 0.01874 17.9626
367 2 2.2208 10.8282 -1.2889 19.4191
369 1 -1.1104 12.1771 0.0207249 15.2242
371 1 -1.1104 9.40954 -2.74579 18.0253
372 1 -1.1104 9.60848 2.73644 17.9272
373 2 2.2208 8.04583 1.31199 19.3968
374 1 -1.1104 9.41832 -2.84537 15.398
376 1 -1.1104 9.65344 2.72039 15.1186
378 2 2.2208 8.04064 -1.40892 16.6332
379 2 2.2208 8.18061 4.15181 16.5462
380 1 -1.1104 9.45905 0.0356552 18.0631
381 1 -1.1104 9.40495 0.0616321 15.1685
368 2 2.2208 10.9147 4.23512 19.2883
9015 2 2.2208 -0.401445 1.48715 22.1674
554 1 -1.1104 12.3018 16.5706 26.3768
579 2 2.2208 8.14696 -4.29758 25.0898
363 1 -1.1104 12.3378 -2.83664 20.8786
490 2 2.2208 5.25464 15.313 13.569
8656 2 2.2208 13.5653 4.14782 16.5918
502 1 -1.1104 12.3508 16.924 20.8731
8729 2 2.2208 13.6559 7.01496 13.8323
392 2 2.2208 5.24885 6.95559 16.5281
393 2 2.2208 5.26358 12.657 16.4713
394 1 -1.1104 1.03572 8.33642 17.8536
396 1 -1.1104 1.20651 8.43136 15.0227
400 1 -1.1104 1.03156 5.43122 17.8945
401 1 -1.1104 1.00418 11.3297 17.9123
404 2 2.2208 5.35622 9.83555 19.4232
405 1 -1.1104 1.1313 5.57945 14.9858
407 1 -1.1104 1.20861 11.1448 15.2575
413 1 -1.1104 3.77765 8.37649 17.9104
414 2 2.2208 2.57152 6.91459 19.2624
415 2 2.2208 2.46325 12.636 19.3483
416 1 -1.1104 4.00039 8.34876 15.0599
418 2 2.2208 2.54633 9.81143 16.5521
419 1 -1.1104 3.82315 5.59878 17.7272
420 1 -1.1104 3.94133 11.2223 18.0359
421 1 -1.1104 3.88685 5.66071 14.9934
423 1 -1.1104 4.00396 11.116 15.1543
398 1 -1.1104 6.69898 8.46175 15.1444
422 1 -1.1104 3.82589 5.51751 20.71
408 1 -1.1104 1.12097 11.1826 20.754
411 1 -1.1104 6.63523 11.3903 15.1399
406 1 -1.1104 1.10997 5.49719 20.6813
410 1 -1.1104 6.68864 5.46272 20.5782
395 1 -1.1104 6.79049 8.43428 17.9207
409 1 -1.1104 6.69173 5.61113 15.1261
399 1 -1.1104 6.72512 8.26062 20.8401
403 1 -1.1104 6.75291 11.3159 17.9082
417 1 -1.1104 3.95926 8.30962 20.6478
402 1 -1.1104 6.47385 5.57453 17.8967
412 1 -1.1104 6.63732 11.2774 20.6915
8732 2 2.2208 13.7219 12.6568 19.2905
428 2 2.2208 10.8618 7.1605 16.4849
429 2 2.2208 10.8882 12.6355 16.6189
430 1 -1.1104 12.2788 8.41232 17.8937
431 1 -1.1104 12.2891 8.54159 15.1755
433 1 -1.1104 12.2423 5.59996 17.8716
434 1 -1.1104 12.392 11.1669 17.9152
435 2 2.2208 10.9694 9.69371 19.2368
436 1 -1.1104 12.2507 5.63699 15.136
438 1 -1.1104 12.3448 11.151 15.0962
440 1 -1.1104 9.45214 8.41144 17.8506
441 2 2.2208 7.94578 6.96456 19.2691
442 2 2.2208 8.12316 12.6464 19.3707
443 1 -1.1104 9.41842 8.46703 15.0586
445 2 2.2208 8.09622 9.93856 16.5126
446 1 -1.1104 9.26268 5.56652 17.9762
447 1 -1.1104 9.68148 11.2058 17.9705
448 1 -1.1104 9.54111 5.58122 15.2752
450 1 -1.1104 9.63486 11.2852 15.137
8730 2 2.2208 13.655 9.87577 16.4783
451 1 -1.1104 9.39295 11.1721 20.9386
426 2 2.2208 5.27257 9.89964 13.6602
449 1 -1.1104 9.49864 5.67374 20.6523
444 1 -1.1104 9.53775 8.41495 20.7227
437 1 -1.1104 12.2617 5.49275 20.7229
8734 2 2.2208 13.6365 12.5776 13.7147
455 2 2.2208 5.1602 18.1202 16.4593
456 1 -1.1104 0.961892 14.1066 17.9485
457 1 -1.1104 0.96194 19.6891 18.0101
460 1 -1.1104 1.10513 13.998 15.1567
462 1 -1.1104 1.00834 19.7055 15.2034
468 1 -1.1104 0.924821 16.9805 17.9605
470 2 2.2208 5.24381 15.5137 19.3456
471 2 2.2208 5.20081 20.9043 19.3488
472 1 -1.1104 0.9557 16.9512 15.0185
476 1 -1.1104 3.71222 13.9638 17.9607
477 1 -1.1104 3.89592 19.5538 17.8779
478 2 2.2208 2.34044 18.2945 19.3665
479 1 -1.1104 3.88975 13.9056 14.8666
481 1 -1.1104 3.85677 19.6113 15.1596
483 2 2.2208 2.30994 15.4408 16.4571
484 2 2.2208 2.37854 21.0336 16.5974
485 1 -1.1104 3.6895 16.6963 18.021
486 1 -1.1104 3.71006 16.7842 15.1087
482 1 -1.1104 3.73017 19.4621 20.8238
480 1 -1.1104 3.86244 14.0531 20.7328
469 1 -1.1104 6.44088 16.7849 17.8733
463 1 -1.1104 0.908365 19.5801 20.7069
459 1 -1.1104 6.61984 19.4804 17.9606
473 1 -1.1104 0.96955 16.7297 20.7168
466 1 -1.1104 6.65598 19.4611 15.0684
464 1 -1.1104 6.72356 14.0298 14.9676
458 1 -1.1104 6.66514 14.0672 17.8605
474 1 -1.1104 6.57931 16.7299 15.1461
465 1 -1.1104 6.84714 13.9737 20.7552
488 2 2.2208 2.3748 18.1923 13.7379
489 2 2.2208 5.29426 20.9945 13.7085
497 1 -1.1104 12.0968 19.5756 20.7067
514 1 -1.1104 9.46774 16.9393 20.7649
491 2 2.2208 10.7571 18.2454 16.4144
492 1 -1.1104 12.426 14.0343 17.8989
493 1 -1.1104 12.2525 19.5293 17.8019
494 1 -1.1104 12.2248 13.9672 15.0807
496 1 -1.1104 12.2322 19.6165 14.8727
498 1 -1.1104 12.098 16.8363 17.9949
499 2 2.2208 10.9064 15.4976 19.4172
500 2 2.2208 10.687 21.0493 19.3287
501 1 -1.1104 12.2472 16.6689 15.1909
503 1 -1.1104 9.49444 13.9178 18.0227
504 1 -1.1104 9.38023 19.6928 17.8055
505 2 2.2208 8.05844 18.1134 19.3412
506 1 -1.1104 9.43729 14.1015 15.2445
508 1 -1.1104 9.43895 19.6243 15.0425
510 2 2.2208 8.06388 15.4441 16.493
511 2 2.2208 7.93837 21.0329 16.4404
512 1 -1.1104 9.30883 16.7726 17.8385
513 1 -1.1104 9.35999 16.7789 15.2
8800 2 2.2208 13.6243 15.3858 16.4427
8802 2 2.2208 13.515 18.1624 19.1934
454 2 2.2208 8.08863 12.6326 13.8007
577 2 2.2208 10.8101 -4.40875 27.766
341 1 -1.1104 3.7929 -2.82344 20.7808
324 1 -1.1104 1.02686 2.78559 20.8071
8863 2 2.2208 13.6736 4.16641 22.1954
519 2 2.2208 5.23639 1.40463 22.2203
520 1 -1.1104 1.00718 -2.80588 23.585
521 1 -1.1104 0.871852 2.64196 23.7244
524 1 -1.1104 0.862336 -2.82643 26.2949
525 1 -1.1104 1.01766 2.81942 26.4087
528 1 -1.1104 0.999179 -0.109256 23.6721
530 2 2.2208 5.25047 -1.52948 25.0545
531 2 2.2208 5.2179 4.16545 25.1135
532 1 -1.1104 0.864293 0.000293135 26.3612
534 1 -1.1104 3.76746 -2.83521 23.5055
535 1 -1.1104 3.77051 2.82253 23.7349
536 2 2.2208 2.43233 1.31137 25.0516
537 1 -1.1104 3.75883 -2.90074 26.3723
538 1 -1.1104 3.75592 2.72502 26.3563
539 2 2.2208 2.29657 -1.43136 22.1183
540 2 2.2208 2.42133 4.13258 22.1605
541 1 -1.1104 3.92035 -0.0318264 23.6451
542 1 -1.1104 3.90375 -0.106651 26.4537
533 1 -1.1104 6.72061 -0.118195 26.5092
523 1 -1.1104 6.50643 2.71192 23.6899
529 1 -1.1104 6.60757 -0.076085 23.6408
452 2 2.2208 8.08521 7.08833 13.8503
526 1 -1.1104 6.53066 -2.85913 26.4358
515 2 2.2208 10.8355 21.0646 13.5352
382 1 -1.1104 9.51031 0.102302 20.9318
365 1 -1.1104 12.2118 2.71313 20.7375
377 1 -1.1104 9.54937 2.84558 20.8462
375 1 -1.1104 9.48544 -2.69809 20.9671
313 2 2.2208 10.83 7.02333 27.7609
9012 2 2.2208 13.5647 18.1674 13.6337
522 1 -1.1104 6.6504 -2.92731 23.7468
370 1 -1.1104 12.3267 0.0503805 20.9271
9020 2 2.2208 13.6809 1.29689 25.103
527 1 -1.1104 6.50785 2.71983 26.4458
555 2 2.2208 10.8783 1.44382 22.3107
556 1 -1.1104 12.2908 -2.776 23.6992
557 1 -1.1104 12.2998 2.80843 23.6884
558 1 -1.1104 12.2467 -2.89542 26.4748
559 1 -1.1104 12.1657 2.72149 26.4636
560 1 -1.1104 12.2655 -0.00657013 23.7239
561 2 2.2208 10.84 -1.45143 25.1304
562 2 2.2208 10.8491 4.22478 25.0665
563 1 -1.1104 12.2248 -0.0197727 26.4274
564 1 -1.1104 9.53858 -2.91973 23.7637
565 1 -1.1104 9.27075 2.82213 23.6081
566 2 2.2208 7.95527 1.31897 25.1692
567 1 -1.1104 9.38903 -2.82028 26.4622
568 1 -1.1104 9.26566 2.84582 26.4226
569 2 2.2208 7.97008 -1.43834 22.4079
570 2 2.2208 8.06475 4.20328 22.1738
571 1 -1.1104 9.46274 -0.0366036 23.818
572 1 -1.1104 9.48972 0.0441284 26.4901
580 1 -1.1104 9.3378 19.6821 23.4871
425 2 2.2208 2.52873 7.04407 13.7679
612 2 2.2208 8.20423 15.3831 22.1822
614 1 -1.1104 9.50682 16.7733 23.5845
397 1 -1.1104 1.02869 8.38783 20.6879
9005 2 2.2208 13.6186 20.9624 22.0599
518 1 -1.1104 12.2815 19.5707 26.3018
424 1 -1.1104 3.78754 11.3044 20.8182
584 2 2.2208 5.17586 6.88714 22.124
585 2 2.2208 5.40451 12.6956 22.061
586 1 -1.1104 0.929062 8.43967 23.5105
588 1 -1.1104 1.0253 8.35117 26.4461
590 1 -1.1104 0.998355 5.50741 23.6036
591 1 -1.1104 0.99652 11.1875 23.5335
594 2 2.2208 5.35935 9.80587 24.8683
595 1 -1.1104 0.951966 5.58943 26.4182
596 1 -1.1104 0.905745 11.1941 26.3131
599 1 -1.1104 3.69737 8.31344 23.2136
600 2 2.2208 2.32408 7.00527 24.911
601 2 2.2208 2.42289 12.4008 24.9245
602 1 -1.1104 3.87215 8.29086 26.074
603 2 2.2208 2.44504 9.89183 22.1057
604 1 -1.1104 3.79408 5.48315 23.5251
605 1 -1.1104 4.02383 11.1262 23.5331
606 1 -1.1104 3.75336 5.54251 26.3088
607 1 -1.1104 3.7554 11.1115 26.3955
592 1 -1.1104 6.78309 5.5129 23.4896
597 1 -1.1104 6.52601 5.57138 26.4035
589 1 -1.1104 6.63619 8.40441 26.3948
598 1 -1.1104 6.46784 11.2756 26.2893
587 1 -1.1104 6.67521 8.23939 23.538
593 1 -1.1104 6.62784 11.1281 23.4729
583 1 -1.1104 9.40512 14.0863 26.2961
432 1 -1.1104 12.3998 8.10883 20.6486
8922 2 2.2208 13.6946 9.65699 22.1452
439 1 -1.1104 12.1158 10.9137 20.824
615 1 -1.1104 9.29029 11.2183 26.4902
616 1 -1.1104 9.44851 5.5899 26.3704
617 1 -1.1104 9.43476 11.2026 23.6097
618 1 -1.1104 9.51637 5.59023 23.5657
619 2 2.2208 8.13719 9.64979 22.1391
620 1 -1.1104 9.49865 8.32293 26.2753
621 2 2.2208 7.94621 12.5498 24.9552
622 2 2.2208 8.12292 6.95157 24.8811
623 2 2.2208 10.8918 6.90486 22.0339
624 2 2.2208 10.8882 12.4433 22.1407
625 1 -1.1104 12.1446 8.33511 23.5382
626 1 -1.1104 12.2393 8.31539 26.354
627 1 -1.1104 12.2386 5.54728 23.5153
628 1 -1.1104 12.3577 11.1131 23.5653
629 2 2.2208 10.845 9.75655 24.9793
630 1 -1.1104 12.4025 5.52754 26.2719
631 1 -1.1104 12.1583 11.0482 26.3021
632 1 -1.1104 9.5213 8.37844 23.5557
427 2 2.2208 2.45318 12.502 13.6917
9013 2 2.2208 13.7712 12.5693 24.9015
553 2 2.2208 10.8866 20.9941 24.8726
611 1 -1.1104 9.4852 19.6633 26.4166
640 1 -1.1104 6.51861 14.0914 26.3757
475 1 -1.1104 6.78355 16.7807 20.6815
467 1 -1.1104 6.59278 19.5186 20.5725
354 2 2.2208 10.8008 18.2136 22.2774
461 1 -1.1104 0.899113 13.996 20.5769
487 1 -1.1104 3.7483 16.74 20.69
646 1 -1.1104 6.62666 19.5129 23.453
543 2 2.2208 2.4714 20.9954 22.2399
544 1 -1.1104 3.83633 16.6639 23.4101
545 1 -1.1104 1.02756 16.7656 23.5672
552 2 2.2208 2.3742 15.387 22.0528
573 1 -1.1104 3.6354 13.8798 26.3899
574 1 -1.1104 3.88829 16.6735 26.1454
608 2 2.2208 2.57828 18.1613 24.8292
633 1 -1.1104 3.89828 19.5423 26.3018
634 2 2.2208 5.26313 18.1633 22.0668
635 1 -1.1104 1.06564 13.929 23.5684
639 1 -1.1104 3.85622 19.5809 23.635
641 1 -1.1104 3.87197 13.7685 23.6024
643 1 -1.1104 1.17068 19.4555 26.2862
644 1 -1.1104 0.893987 16.7211 26.3912
645 1 -1.1104 0.972252 13.9706 26.3824
647 2 2.2208 5.33394 21.0934 24.9312
648 2 2.2208 5.20816 15.3465 24.9045
650 1 -1.1104 1.0625 19.5046 23.491
388 1 -1.1104 12.3488 13.8688 26.1617
548 1 -1.1104 6.59809 16.6721 23.4249
649 1 -1.1104 6.64881 14.0626 23.6294
582 1 -1.1104 6.70084 19.538 26.2857
642 1 -1.1104 6.6055 16.7531 26.2711
613 2 2.2208 8.03128 21.1551 21.9983
9001 2 2.2208 13.775 15.2852 22.1433
576 1 -1.1104 9.5912 14.0464 23.4871
581 2 2.2208 8.11426 18.2084 24.8398
636 1 -1.1104 9.36206 16.8511 26.3425
495 1 -1.1104 12.3549 13.9449 20.7526
509 1 -1.1104 9.41408 19.8127 20.8041
507 1 -1.1104 9.44589 13.9552 20.7125
547 2 2.2208 10.8893 15.2714 25.0258
546 1 -1.1104 12.1259 16.7822 23.6805
383 1 -1.1104 12.3859 13.7911 23.3629
9018 2 2.2208 13.5618 -1.57488 27.8665
517 2 2.2208 8.07185 18.2525 13.7342
9007 2 2.2208 -0.396691 -1.45729 19.3759
315 2 2.2208 10.935 12.3647 27.7889
356 2 2.2208 5.26185 -1.5293 13.8341
575 2 2.2208 7.95902 4.30553 27.9044
310 2 2.2208 10.6941 1.38749 27.8294
391 2 2.2208 10.9125 4.3114 13.7135
311 2 2.2208 8.07561 -1.46991 27.7159
389 2 2.2208 8.00458 1.29407 13.7229
353 2 2.2208 8.03591 20.9702 27.728
357 2 2.2208 2.57722 1.2365 13.6532
306 2 2.2208 5.05331 1.35672 27.7866
651 2 2.2208 5.22852 23.8335 5.23348
652 2 2.2208 5.01272 29.3867 5.29857
653 1 -1.1104 1.03505 25.1278 1.07537
654 1 -1.1104 0.974659 25.1174 3.92097
655 1 -1.1104 0.927945 22.3799 1.13748
656 1 -1.1104 1.10901 27.9796 1.01776
657 2 2.2208 5.14792 26.6596 2.53363
658 1 -1.1104 1.13062 22.4597 3.90274
659 1 -1.1104 0.994776 27.8955 3.88582
660 1 -1.1104 3.71039 25.299 1.2352
661 2 2.2208 2.428 23.8368 2.41027
662 2 2.2208 2.33699 29.4849 2.42396
663 1 -1.1104 3.89009 25.2213 3.88212
664 2 2.2208 2.51472 26.4646 5.35773
665 1 -1.1104 3.94208 22.4077 1.07606
666 1 -1.1104 3.93215 28.331 1.18341
667 1 -1.1104 3.80969 22.3634 3.81415
668 1 -1.1104 3.69904 27.949 4.00852
672 1 -1.1104 6.5662 25.2962 1.04483
673 1 -1.1104 6.7376 25.2216 3.70328
676 1 -1.1104 6.58723 22.4647 3.90817
675 1 -1.1104 6.68067 27.985 1.15158
677 1 -1.1104 6.63516 28.0554 3.99706
674 1 -1.1104 6.76682 22.3875 1.02198
9368 2 2.2208 13.5654 37.8132 -0.27059
9592 2 2.2208 -0.332112 46.2938 -0.412829
9355 2 2.2208 -0.396772 37.9243 8.18887
678 2 2.2208 10.969 23.8508 5.23385
679 2 2.2208 10.6874 29.4395 5.33553
680 1 -1.1104 12.2617 25.1495 0.860206
681 1 -1.1104 12.2341 25.0525 3.67822
682 1 -1.1104 12.3584 22.3763 1.00362
683 1 -1.1104 12.1816 28.0383 1.193
684 2 2.2208 10.9032 26.5347 2.42149
685 1 -1.1104 12.3624 22.2815 3.81552
686 1 -1.1104 12.3935 27.9981 3.9055
687 1 -1.1104 9.45508 25.108 0.971735
688 2 2.2208 8.09956 23.7968 2.44416
689 2 2.2208 8.07119 29.3552 2.5495
690 1 -1.1104 9.42408 25.0707 3.91715
691 2 2.2208 7.99496 26.74 5.26563
692 1 -1.1104 9.57533 22.3716 0.979354
693 1 -1.1104 9.4566 27.8465 1.0957
694 1 -1.1104 9.58647 22.308 3.8696
695 1 -1.1104 9.56185 27.9246 3.90355
827 1 -1.1104 12.1618 27.9264 6.63647
9343 2 2.2208 13.709 23.6718 2.39989
9345 2 2.2208 13.6854 26.4858 5.22454
1174 2 2.2208 2.44688 43.5252 -0.344959
961 2 2.2208 10.8458 34.8482 -0.280436
9344 2 2.2208 13.6706 29.3597 2.4848
1480 1 -1.1104 3.87758 47.7414 6.57937
699 2 2.2208 5.22952 35.1281 5.26803
700 1 -1.1104 0.882875 30.8467 0.960865
701 1 -1.1104 1.24306 36.38 1.06068
703 1 -1.1104 0.990642 30.8628 3.87092
704 1 -1.1104 0.952992 36.4305 3.92673
706 1 -1.1104 0.971803 33.6092 1.17392
707 2 2.2208 5.26751 32.1743 2.53426
708 2 2.2208 5.1499 38.0616 2.36745
709 1 -1.1104 1.05993 33.7487 3.73725
711 1 -1.1104 3.79836 31.0148 1.10824
712 1 -1.1104 3.88105 36.4484 0.926558
713 2 2.2208 2.44891 34.9769 2.43098
714 1 -1.1104 3.71354 30.8476 3.87818
715 1 -1.1104 3.79882 36.5963 3.62037
716 2 2.2208 2.32895 32.3896 5.23183
717 2 2.2208 2.40947 37.8726 5.2493
718 1 -1.1104 3.79879 33.6146 1.17532
719 1 -1.1104 3.92193 33.6851 4.0279
856 1 -1.1104 3.7113 36.4528 6.5353
857 1 -1.1104 3.80094 33.5352 6.7608
725 1 -1.1104 6.61475 33.4931 0.991825
710 1 -1.1104 6.6475 33.6962 3.63678
855 1 -1.1104 3.80707 30.7326 6.56549
723 1 -1.1104 6.7075 30.8002 1.07918
702 1 -1.1104 6.63685 36.3801 1.05076
724 1 -1.1104 6.62459 30.885 3.87147
852 1 -1.1104 6.71519 36.7078 6.75554
705 1 -1.1104 6.58625 36.4106 3.98045
726 2 2.2208 10.6815 35.0389 5.35728
727 1 -1.1104 12.1336 30.8949 1.01506
728 1 -1.1104 12.3201 36.3684 1.0902
729 1 -1.1104 12.3062 30.728 3.88975
730 1 -1.1104 12.1755 36.3476 3.98491
731 1 -1.1104 12.2712 33.5362 1.1899
732 2 2.2208 10.9503 32.1689 2.55002
733 2 2.2208 10.7727 37.8435 2.46752
734 1 -1.1104 12.1651 33.5905 4.0374
735 1 -1.1104 9.52426 30.6466 1.10802
736 1 -1.1104 9.44126 36.3068 1.11188
737 2 2.2208 7.97258 35.0176 2.35259
738 1 -1.1104 9.52114 30.7213 3.91194
739 1 -1.1104 9.30686 36.4821 3.92454
740 2 2.2208 7.96636 32.3285 5.22002
741 2 2.2208 8.16027 37.9593 5.30177
742 1 -1.1104 9.57722 33.4833 1.05156
743 1 -1.1104 9.4897 33.6139 3.76209
883 1 -1.1104 12.2568 30.8376 6.76062
884 1 -1.1104 12.2893 36.4293 6.83268
887 1 -1.1104 9.55504 36.5633 6.71708
888 1 -1.1104 9.3685 33.6932 6.67226
9349 2 2.2208 13.6074 34.9438 2.56494
669 2 2.2208 10.8697 40.5921 10.8199
769 1 -1.1104 12.1557 39.1148 12.236
745 2 2.2208 5.33075 40.7611 5.27868
746 2 2.2208 5.40331 46.3105 5.07818
747 1 -1.1104 1.09721 42.1468 1.13982
749 1 -1.1104 1.13529 42.08 4.05502
751 1 -1.1104 1.06894 39.2187 1.05297
752 1 -1.1104 1.00392 45.0289 0.935559
755 2 2.2208 5.37448 43.5568 2.52394
756 1 -1.1104 0.992744 39.2686 4.03301
757 1 -1.1104 0.98137 44.7494 3.84562
760 1 -1.1104 3.90253 42.0463 0.943968