ITEM: TIMESTEP
10000
ITEM: NUMBER OF ATOMS
17730
ITEM: BOX BOUNDS pp pp pp
-3.5854797435436903e-01 2.7698547974354305e+01
-4.2755383098559756e+00 3.3235553830985378e+02
-3.5257410416457124e-01 2.7692574104164425e+01
ITEM: ATOMS id type q x y z
1 2 2.2208 5.27089 1.42475 5.21681
2 1 -1.1104 1.17858 -2.69723 1.06262
3 1 -1.1104 1.02621 2.95673 0.968828
6 1 -1.1104 1.1664 -2.85149 3.7323
7 1 -1.1104 0.903058 2.7696 3.76912
10 1 -1.1104 1.09601 0.227267 1.05579
12 2 2.2208 5.33647 -1.39244 2.48093
13 2 2.2208 5.19869 4.15119 2.53167
14 1 -1.1104 0.957709 -0.101721 3.96078
16 1 -1.1104 3.9062 -2.91318 0.975789
17 1 -1.1104 3.90104 2.85365 1.05549
18 2 2.2208 2.33019 1.41197 2.41681
19 1 -1.1104 4.0916 -2.83049 3.8635
20 1 -1.1104 3.8009 2.72497 3.70191
21 2 2.2208 2.39088 -1.46841 5.10687
22 2 2.2208 2.36378 4.23287 5.18276
23 1 -1.1104 3.85598 0.0665889 1.02943
24 1 -1.1104 3.87341 -0.0614515 3.79893
15 1 -1.1104 6.66557 0.0489325 3.70758
167 1 -1.1104 1.12193 2.7632 6.57238
11 1 -1.1104 6.63039 -0.12731 0.947302
4 1 -1.1104 6.56673 -2.8674 1.00489
51 2 2.2208 8.16846 -4.24996 2.58243
577 2 2.2208 10.7865 -4.34322 -0.344201
9 1 -1.1104 6.62059 2.76096 4.02602
8 1 -1.1104 6.80586 -2.83907 3.81233
174 1 -1.1104 3.87135 0.105454 6.73344
149 1 -1.1104 11.9946 16.8435 6.56027
575 2 2.2208 7.93436 4.362 -0.317649
5 1 -1.1104 6.80129 2.68953 1.07515
31 2 2.2208 10.834 1.3766 5.16126
32 1 -1.1104 12.1869 -2.75497 1.07797
33 1 -1.1104 12.2125 2.71591 1.23799
34 1 -1.1104 12.2772 -2.80444 3.83884
35 1 -1.1104 11.9124 2.74778 3.90136
36 1 -1.1104 12.1677 -0.137929 1.1546
37 2 2.2208 10.8145 -1.48664 2.65492
38 2 2.2208 10.6552 4.24405 2.58576
39 1 -1.1104 12.1918 0.00168809 3.85271
40 1 -1.1104 9.34875 -2.82029 1.19926
41 1 -1.1104 9.37812 2.96039 0.998362
42 2 2.2208 7.9933 1.40047 2.40378
43 1 -1.1104 9.43099 -2.9355 3.97556
44 1 -1.1104 9.30255 2.77047 3.87838
45 2 2.2208 8.1528 -1.34226 5.31006
46 2 2.2208 7.94876 4.21985 5.3151
47 1 -1.1104 9.39297 0.00330686 1.17799
48 1 -1.1104 9.35126 -0.0607317 3.84314
310 2 2.2208 10.7847 1.36896 -0.28149
8429 2 2.2208 13.5409 4.21803 10.8799
207 1 -1.1104 12.335 -0.162395 6.75654
81 2 2.2208 10.7888 20.9546 7.86085
82 1 -1.1104 12.3904 16.8467 9.44809
9021 2 2.2208 13.5543 4.12499 -0.261481
311 2 2.2208 8.14955 -1.355 -0.462237
609 2 2.2208 2.34251 9.81198 -0.31941
309 2 2.2208 5.42229 -4.24334 -0.384157
312 2 2.2208 5.19102 6.94979 -0.202529
54 2 2.2208 5.15326 6.94103 5.3026
55 2 2.2208 5.2402 12.49 5.29064
56 1 -1.1104 0.838759 8.43496 1.02404
58 1 -1.1104 0.951851 8.42336 3.84738
60 1 -1.1104 0.827579 5.6955 1.03553
61 1 -1.1104 1.00734 11.3129 1.1
66 2 2.2208 5.23204 9.84852 2.43895
67 1 -1.1104 0.903242 5.55488 3.89604
68 1 -1.1104 0.854553 11.2234 3.85462
71 1 -1.1104 3.70629 8.42954 1.16483
72 2 2.2208 2.28499 7.08103 2.50408
73 2 2.2208 2.44828 12.6044 2.47816
74 1 -1.1104 3.76914 8.40075 3.97546
75 2 2.2208 2.32447 9.85298 5.25588
76 1 -1.1104 3.7779 5.5556 1.08059
77 1 -1.1104 3.78301 11.2174 1.0998
79 1 -1.1104 3.73748 5.59845 3.81691
80 1 -1.1104 3.73876 11.2218 3.87165
8597 2 2.2208 -0.467879 4.30966 2.27962
8604 2 2.2208 -0.314816 12.655 5.40519
70 1 -1.1104 6.60341 11.1179 3.75608
63 1 -1.1104 6.60445 5.51791 1.18225
64 1 -1.1104 6.51014 11.2506 0.901545
49 1 -1.1104 12.4083 19.7069 9.50714
234 1 -1.1104 1.02617 8.43513 6.6548
69 1 -1.1104 6.4783 5.55521 3.89663
57 1 -1.1104 6.46034 8.295 1.21225
59 1 -1.1104 6.5854 8.22268 3.86094
84 2 2.2208 10.8578 7.09705 5.25418
85 2 2.2208 10.7446 12.6528 5.13669
86 1 -1.1104 12.064 8.42851 1.1658
87 1 -1.1104 12.339 8.39528 4.05095
88 1 -1.1104 12.2117 5.54289 1.07511
89 1 -1.1104 12.056 11.187 1.15469
91 2 2.2208 10.7556 9.8555 2.5636
92 1 -1.1104 12.2561 5.61401 3.87915
93 1 -1.1104 12.1064 11.1895 3.94752
94 1 -1.1104 9.24307 8.39259 1.02989
95 2 2.2208 7.9641 6.96129 2.53584
96 2 2.2208 7.90034 12.6054 2.37326
97 1 -1.1104 9.3938 8.43803 3.72831
98 2 2.2208 8.05888 9.83248 5.20288
99 1 -1.1104 9.35723 5.65354 1.13275
100 1 -1.1104 9.18949 11.2686 1.04677
102 1 -1.1104 9.24057 5.63937 3.94248
103 1 -1.1104 9.31427 11.2404 3.96002
8599 2 2.2208 13.6156 1.40356 2.50736
90 1 -1.1104 12.29 11.2447 6.69061
290 1 -1.1104 6.68174 13.9574 9.48891
8606 2 2.2208 13.6287 7.04352 2.33778
8609 2 2.2208 -0.482323 18.2001 5.20393
106 2 2.2208 5.11723 18.2818 5.25208
107 1 -1.1104 0.796419 14.0021 1.06319
109 1 -1.1104 0.930435 19.6143 1.02778
113 1 -1.1104 1.12919 14.1107 3.87415
114 1 -1.1104 0.917356 19.6558 3.82583
116 1 -1.1104 1.08745 16.643 1.02998
119 2 2.2208 5.1782 15.3916 2.39089
120 2 2.2208 5.16068 21.1031 2.31591
121 1 -1.1104 0.799181 16.7536 3.77877
123 1 -1.1104 3.71541 14.0884 1.00668
125 1 -1.1104 3.71514 19.5757 1.12997
127 2 2.2208 2.30826 18.241 2.44885
128 1 -1.1104 3.80732 13.9322 3.84589
129 1 -1.1104 3.85916 19.6669 3.79334
130 2 2.2208 2.3389 15.415 5.26188
131 2 2.2208 2.29946 21.0144 5.12112
132 1 -1.1104 3.75891 16.7795 1.03546
134 1 -1.1104 3.67764 16.8885 3.8971
117 1 -1.1104 0.915105 16.7927 6.62019
110 1 -1.1104 6.49172 13.9223 1.04975
199 1 -1.1104 9.36346 16.789 12.2084
25 2 2.2208 10.9895 18.3071 10.8241
27 1 -1.1104 12.4591 19.5913 12.2331
8608 2 2.2208 -0.579035 21.1503 2.45628
126 1 -1.1104 3.86161 19.7607 6.62751
133 1 -1.1104 3.71879 16.8429 6.6096
139 1 -1.1104 6.70378 19.4796 3.89345
353 2 2.2208 8.01998 21.1005 -0.356577
50 1 -1.1104 12.206 16.8602 12.2638
140 1 -1.1104 6.77424 16.8788 0.955083
122 1 -1.1104 6.42645 16.8164 3.69033
138 1 -1.1104 6.72258 19.7633 1.0784
115 1 -1.1104 6.58835 13.8991 3.87896
141 2 2.2208 10.8311 18.0746 5.16281
142 1 -1.1104 12.1419 13.8855 1.098
144 1 -1.1104 12.2498 19.7305 0.902244
146 1 -1.1104 12.2147 13.9735 3.73628
147 1 -1.1104 12.2802 19.5457 3.65242
148 1 -1.1104 12.0425 16.7444 0.941426
150 2 2.2208 10.7008 15.31 2.38417
151 2 2.2208 10.8092 21.042 2.31116
152 1 -1.1104 12.2152 16.7988 3.84826
153 1 -1.1104 9.40403 14.0929 0.977453
155 1 -1.1104 9.40922 19.5563 0.953537
157 2 2.2208 8.06295 18.2121 2.33702
158 1 -1.1104 9.28305 13.8863 3.78392
159 1 -1.1104 9.5692 19.5273 3.71488
160 2 2.2208 7.92786 15.4192 5.18725
161 2 2.2208 8.10095 20.9543 5.06901
162 1 -1.1104 9.34366 16.7109 0.922402
164 1 -1.1104 9.32994 16.6548 3.89942
145 1 -1.1104 12.3177 19.5271 6.48821
118 1 -1.1104 6.48886 16.7022 6.54212
154 1 -1.1104 9.43995 13.8618 6.65989
104 1 -1.1104 9.61016 19.6939 12.1799
202 2 2.2208 2.47958 -4.30942 8.0888
173 1 -1.1104 3.93481 2.89816 6.42209
170 1 -1.1104 1.03638 -0.170271 6.66744
172 1 -1.1104 3.70228 -2.72178 6.62911
166 1 -1.1104 0.988581 -2.86002 6.49064
175 2 2.2208 5.04693 1.44942 10.93
176 1 -1.1104 1.09584 -2.83006 12.1762
177 1 -1.1104 0.992946 2.80827 12.3013
180 1 -1.1104 0.948103 -3.00602 9.35996
181 1 -1.1104 0.993178 2.78158 9.54326
184 1 -1.1104 1.12053 0.0975887 12.2148
186 2 2.2208 5.26625 -1.34268 7.92735
187 2 2.2208 5.26196 4.23105 7.99816
188 1 -1.1104 0.855352 -0.048878 9.4463
190 1 -1.1104 3.94948 -2.94397 12.2531
191 1 -1.1104 3.7009 2.8361 12.2404
192 2 2.2208 2.46369 1.4116 8.01474
193 1 -1.1104 3.84426 -2.84928 9.29868
194 1 -1.1104 3.81013 2.82638 9.415
195 2 2.2208 2.32783 -1.49643 10.724
196 2 2.2208 2.31409 4.24773 10.773
197 1 -1.1104 3.85542 0.00334311 12.2551
198 1 -1.1104 3.71226 0.0172779 9.35551
185 1 -1.1104 6.5544 -0.0236237 12.4438
183 1 -1.1104 6.56665 2.87234 9.52737
182 1 -1.1104 6.71447 -2.82046 9.36386
168 1 -1.1104 6.599 -2.78976 6.6121
296 1 -1.1104 6.67501 19.5667 12.1504
8872 2 2.2208 -0.40265 18.1176 -0.306769
171 1 -1.1104 6.74558 0.0514451 6.65832
169 1 -1.1104 6.69211 2.73329 6.72367
205 1 -1.1104 12.3445 -3.00166 6.47903
210 1 -1.1104 9.56935 -0.0118035 6.73585
178 1 -1.1104 6.70167 -2.84536 12.2649
231 2 2.2208 8.03364 -4.29453 8.0117
208 1 -1.1104 9.51593 -2.93988 6.64691
209 1 -1.1104 9.38128 2.78495 6.54422
206 1 -1.1104 12.1288 2.72272 6.77466
179 1 -1.1104 6.49287 2.73773 12.3174
189 1 -1.1104 6.50051 0.100542 9.48313
211 2 2.2208 10.7496 1.33574 10.8868
212 1 -1.1104 12.4002 -2.69788 12.2173
213 1 -1.1104 12.0396 2.84324 12.2385
214 1 -1.1104 12.2583 -2.7643 9.29659
215 1 -1.1104 12.2296 2.74224 9.51535
216 1 -1.1104 12.2132 -0.13029 12.1681
217 2 2.2208 10.834 -1.47572 7.98426
218 2 2.2208 10.9061 4.17036 8.04599
219 1 -1.1104 12.2239 0.0613306 9.51222
220 1 -1.1104 9.56187 -2.87573 12.2917
221 1 -1.1104 9.27194 2.78911 12.3427
222 2 2.2208 7.95074 1.45308 8.13274
223 1 -1.1104 9.38022 -2.8919 9.36501
224 1 -1.1104 9.42089 2.87778 9.47609
225 2 2.2208 7.86329 -1.31505 10.9334
226 2 2.2208 8.03447 4.20967 10.9419
227 1 -1.1104 9.28507 -0.033821 12.3088
228 1 -1.1104 9.36171 -0.0848854 9.63675
8602 2 2.2208 -0.49154 7.10555 5.28832
8618 2 2.2208 13.6687 1.32979 8.12815
8619 2 2.2208 13.6633 -1.38635 10.8313
238 1 -1.1104 3.86282 8.29012 6.66736
78 1 -1.1104 3.86737 11.1528 6.66169
26 1 -1.1104 12.1969 14.0357 12.239
239 1 -1.1104 3.68999 5.6451 6.74803
236 1 -1.1104 0.914364 5.57499 6.62412
62 1 -1.1104 1.09189 11.3015 6.5277
240 2 2.2208 5.12886 7.00641 10.73
241 2 2.2208 5.27789 12.6552 10.7999
242 1 -1.1104 1.20976 8.4024 12.27
244 1 -1.1104 0.887213 8.44281 9.58285
246 1 -1.1104 1.04567 5.56966 12.1645
247 1 -1.1104 1.21412 11.2991 12.1764
250 2 2.2208 5.2464 9.76841 7.99999
251 1 -1.1104 0.90878 5.67526 9.29392
252 1 -1.1104 1.07636 11.1938 9.40871
255 1 -1.1104 3.99312 8.40041 12.2246
256 2 2.2208 2.32733 7.07292 8.02019
257 2 2.2208 2.52898 12.4709 8.06818
258 1 -1.1104 3.80952 8.39779 9.37566
259 2 2.2208 2.53167 9.94219 10.9035
260 1 -1.1104 3.96405 5.43638 12.0996
261 1 -1.1104 3.9194 11.1271 12.4142
262 1 -1.1104 3.70996 5.58191 9.51596
263 1 -1.1104 3.97179 11.1298 9.45529
243 1 -1.1104 6.70584 8.3238 12.2689
8524 2 2.2208 -0.443103 7.02054 10.8144
245 1 -1.1104 6.63514 8.38194 9.53536
248 1 -1.1104 6.73562 5.5617 12.1959
65 1 -1.1104 6.71402 11.1529 6.59364
249 1 -1.1104 6.6999 11.1407 12.2465
254 1 -1.1104 6.74359 11.3396 9.39554
8516 2 2.2208 -0.290524 12.543 10.7957
425 2 2.2208 2.51966 6.96938 13.6477
156 1 -1.1104 9.52658 19.5205 6.48465
237 1 -1.1104 6.70541 5.76466 6.69611
235 1 -1.1104 6.79458 8.46393 6.67008
266 1 -1.1104 12.3023 5.61332 6.53507
253 1 -1.1104 6.5345 5.56374 9.41616
265 1 -1.1104 12.2811 8.40332 6.7905
267 1 -1.1104 9.51783 8.45455 6.60084
101 1 -1.1104 9.50834 11.207 6.65121
269 1 -1.1104 9.47468 5.64995 6.64948
264 1 -1.1104 9.48297 11.2952 9.45472
268 1 -1.1104 9.49324 5.60738 9.38757
270 1 -1.1104 9.3309 11.2011 12.2041
271 1 -1.1104 9.58682 5.66894 12.2991
272 2 2.2208 8.0775 9.78139 10.9311
273 1 -1.1104 9.45261 8.46297 9.46149
274 2 2.2208 8.06781 12.5973 7.9553
275 2 2.2208 8.02188 7.10917 8.03768
276 2 2.2208 10.8769 7.05042 10.837
277 2 2.2208 10.9205 12.6305 10.8054
278 1 -1.1104 12.2256 8.41478 12.28
279 1 -1.1104 12.3279 8.54901 9.51569
280 1 -1.1104 12.1271 5.62371 12.175
281 1 -1.1104 12.3216 11.3171 12.3001
282 2 2.2208 10.8393 9.93933 8.11325
283 1 -1.1104 12.3056 5.73525 9.48169
284 1 -1.1104 12.2924 11.3356 9.53268
285 1 -1.1104 9.53601 8.48967 12.271
53 2 2.2208 10.9001 15.439 8.13308
105 2 2.2208 8.07279 18.1919 7.99234
112 1 -1.1104 6.81828 19.594 6.54178
165 2 2.2208 8.06633 21.0053 10.8755
302 1 -1.1104 0.998886 19.651 6.56891
8616 2 2.2208 -0.37805 21.0177 7.93078
8615 2 2.2208 -0.381669 18.1806 10.823
108 1 -1.1104 1.04193 13.9514 6.82276
124 1 -1.1104 3.85107 13.9478 6.58685
201 2 2.2208 2.42934 15.3686 10.7949
204 2 2.2208 2.35791 21.1336 10.9838
229 1 -1.1104 3.83229 16.8106 12.1304
230 1 -1.1104 1.07238 16.7433 12.1934
286 1 -1.1104 3.93209 19.7157 12.1046
287 1 -1.1104 3.95609 13.9617 12.1878
291 1 -1.1104 1.06992 19.7608 9.50074
292 1 -1.1104 0.967802 16.9153 9.49655
293 2 2.2208 5.30097 21.0488 8.17074
294 1 -1.1104 1.04511 14.0466 9.41207
295 2 2.2208 5.25404 15.343 7.97521
298 1 -1.1104 0.989559 19.6131 12.1956
299 1 -1.1104 1.02731 13.9755 12.0117
300 2 2.2208 5.16687 18.2279 10.7686
301 1 -1.1104 3.83315 19.7308 9.39128
303 2 2.2208 2.39765 18.2569 8.08949
304 1 -1.1104 3.95478 16.8757 9.42635
305 1 -1.1104 3.82082 13.8992 9.32274
163 1 -1.1104 9.27679 16.6151 6.65415
489 2 2.2208 5.32863 20.9633 13.5853
143 1 -1.1104 12.3451 14.0917 6.65465
30 1 -1.1104 12.261 14.0993 9.4111
289 1 -1.1104 6.71258 16.7222 9.42415
135 1 -1.1104 9.45696 14.0788 9.40221
233 1 -1.1104 6.62234 16.6839 12.2607
288 1 -1.1104 6.5405 19.5701 9.36541
137 2 2.2208 8.06512 15.3006 10.9172
200 1 -1.1104 9.5597 16.9321 9.42795
136 1 -1.1104 9.45868 19.6591 9.30391
111 1 -1.1104 6.64259 13.9432 6.64772
297 1 -1.1104 6.62602 13.8635 12.1928
83 1 -1.1104 9.50439 13.9954 12.1423
356 2 2.2208 5.22552 -1.52187 13.6568
358 2 2.2208 5.24249 4.2743 13.6247
9003 2 2.2208 13.6054 15.4412 -0.356851
355 2 2.2208 2.50709 -4.24804 13.7125
386 2 2.2208 7.9269 -4.39433 13.4937
454 2 2.2208 8.07097 12.5373 13.546
452 2 2.2208 8.13579 7.11331 13.6989
516 2 2.2208 10.8377 15.3113 13.6247
517 2 2.2208 8.0147 18.1822 13.6107
307 2 2.2208 2.43696 -1.28016 -0.379624
9018 2 2.2208 13.6345 -1.42735 -0.320822
9025 2 2.2208 -0.591965 7.01142 -0.467577
316 2 2.2208 5.44834 1.47012 16.5734
317 1 -1.1104 1.08133 -2.6501 17.7562
318 1 -1.1104 0.954686 2.93135 17.8906
321 1 -1.1104 0.993872 -2.85869 15.0725
323 1 -1.1104 0.897338 2.82714 15.0843
329 1 -1.1104 1.26667 0.124469 17.862
331 2 2.2208 5.34386 -1.49187 19.2756
332 2 2.2208 5.35178 4.25073 19.275
333 1 -1.1104 1.18234 -0.0384015 15.0869
337 1 -1.1104 3.71486 -2.91346 17.7278
338 1 -1.1104 3.96695 2.89961 17.904
339 2 2.2208 2.50545 1.55949 19.3249
340 1 -1.1104 3.7761 -2.76378 15.0407
342 1 -1.1104 3.96815 2.99108 15.143
344 2 2.2208 2.49292 -1.39521 16.4907
345 2 2.2208 2.55731 4.12956 16.4859
346 1 -1.1104 4.13394 -0.00578884 17.7386
347 1 -1.1104 3.98108 0.114892 14.963
327 1 -1.1104 6.60495 2.72762 15.182
320 1 -1.1104 6.64177 2.83697 18.0234
9009 2 2.2208 13.6638 -4.2134 19.2166
335 1 -1.1104 6.74186 -0.116569 15.066
357 2 2.2208 2.40781 1.42319 13.6457
350 2 2.2208 5.13548 -4.31148 16.4521
322 1 -1.1104 1.01673 -2.8411 20.6706
324 1 -1.1104 1.08269 2.71994 20.8579
578 2 2.2208 10.8412 -4.22498 21.9034
579 2 2.2208 8.10416 -4.26104 24.8254
384 2 2.2208 10.7286 -4.2739 16.4935
319 1 -1.1104 6.60603 -2.96647 17.9227
9010 2 2.2208 13.5419 -1.32615 16.3416
330 1 -1.1104 6.79709 -0.0483191 18.021
325 1 -1.1104 6.62425 -2.77938 15.1041
359 2 2.2208 10.8242 1.36669 16.4742
360 1 -1.1104 12.289 -2.75382 17.8756
361 1 -1.1104 12.2158 2.90619 17.9148
362 1 -1.1104 12.1692 -2.7992 15.0313
364 1 -1.1104 12.2975 2.74428 15.0699
366 1 -1.1104 12.2742 0.0576895 17.899
367 2 2.2208 10.8929 -1.31457 19.3377
368 2 2.2208 10.7855 4.20201 19.3376
369 1 -1.1104 12.2027 0.0733347 15.0129
371 1 -1.1104 9.40677 -2.89437 17.898
372 1 -1.1104 9.35225 2.63333 17.9102
373 2 2.2208 8.02885 1.30776 19.3732
374 1 -1.1104 9.31566 -3.03676 15.068
376 1 -1.1104 9.44973 2.7558 15.0919
378 2 2.2208 8.10021 -1.54279 16.4572
379 2 2.2208 8.02625 4.19245 16.4088
380 1 -1.1104 9.4519 -0.0718191 17.8769
381 1 -1.1104 9.57023 -0.213814 15.0025
390 2 2.2208 10.8742 -1.40421 13.5713
382 1 -1.1104 9.39934 -0.0821975 20.7465
370 1 -1.1104 12.3331 -0.0062214 20.5924
365 1 -1.1104 12.2155 2.67729 20.6759
377 1 -1.1104 9.49926 2.79666 20.7227
385 2 2.2208 8.06048 -4.25681 19.2335
389 2 2.2208 7.93185 1.35334 13.7581
391 2 2.2208 10.8458 4.19925 13.6309
8772 2 2.2208 -0.410371 7.06046 16.5162
426 2 2.2208 5.29417 9.80104 13.7304
392 2 2.2208 5.20165 7.05946 16.4549
393 2 2.2208 5.27805 12.6057 16.4525
394 1 -1.1104 1.05347 8.37296 17.9727
396 1 -1.1104 1.08963 8.46373 15.1599
400 1 -1.1104 1.03779 5.7126 18.0837
401 1 -1.1104 0.910807 11.1458 17.8392
404 2 2.2208 5.21961 9.85951 19.3503
405 1 -1.1104 1.11287 5.63272 15.1184
407 1 -1.1104 0.977363 11.113 15.1065
413 1 -1.1104 3.86678 8.40071 18.0184
414 2 2.2208 2.52492 6.99226 19.328
415 2 2.2208 2.37526 12.7577 19.1826
416 1 -1.1104 3.86103 8.48018 15.0778
418 2 2.2208 2.35804 9.86606 16.5762
419 1 -1.1104 3.8404 5.61542 17.9023
420 1 -1.1104 3.68299 11.1497 17.9223
421 1 -1.1104 3.98626 5.74153 14.9484
423 1 -1.1104 3.72427 11.3673 15.205
411 1 -1.1104 6.65394 11.2163 15.1286
395 1 -1.1104 6.61759 8.34601 18.0173
403 1 -1.1104 6.48906 11.2286 17.8479
398 1 -1.1104 6.69796 8.47191 15.1638
408 1 -1.1104 1.08184 11.2251 20.5893
424 1 -1.1104 3.824 11.189 20.6861
397 1 -1.1104 1.10681 8.46553 20.8199
352 2 2.2208 10.8441 18.2277 27.7059
8731 2 2.2208 13.6774 6.97328 19.1657
409 1 -1.1104 6.78817 5.85784 15.0286
402 1 -1.1104 6.58783 5.54891 17.7945
428 2 2.2208 10.7383 6.98881 16.4275
429 2 2.2208 10.8323 12.5071 16.4917
430 1 -1.1104 12.0346 8.42737 17.8371
431 1 -1.1104 12.2271 8.36112 15.0447
433 1 -1.1104 12.333 5.68075 17.7732
434 1 -1.1104 12.3589 11.1216 17.8111
435 2 2.2208 10.888 9.62123 19.3742
436 1 -1.1104 12.2511 5.57205 14.8675
438 1 -1.1104 12.3833 11.211 15.0873
440 1 -1.1104 9.36095 8.38885 17.8901
441 2 2.2208 8.00958 6.95791 19.257
442 2 2.2208 8.11325 12.5089 19.2315
443 1 -1.1104 9.47895 8.32395 15.0467
445 2 2.2208 8.01023 9.76294 16.5304
446 1 -1.1104 9.40626 5.52389 17.7955
447 1 -1.1104 9.32737 11.0928 18.0559
448 1 -1.1104 9.45978 5.47755 15.048
450 1 -1.1104 9.63201 11.1385 15.0999
437 1 -1.1104 12.2535 5.46696 20.6662
351 2 2.2208 2.49949 -4.23594 19.3056
8922 2 2.2208 13.9133 9.76335 22.1564
449 1 -1.1104 9.38784 5.75615 20.5733
8730 2 2.2208 13.6041 9.74083 16.4881
488 2 2.2208 2.48346 18.2501 13.7124
455 2 2.2208 5.38861 18.1995 16.3763
456 1 -1.1104 0.892642 14.0332 17.5947
457 1 -1.1104 1.16047 19.5326 17.8442
460 1 -1.1104 0.904395 13.7654 14.8329
462 1 -1.1104 1.02934 19.7298 15.0452
468 1 -1.1104 1.07519 16.7977 17.8484
470 2 2.2208 5.3661 15.4268 19.2283
471 2 2.2208 5.23544 20.9649 19.3336
472 1 -1.1104 1.0575 16.6967 15.0269
476 1 -1.1104 3.7698 14.1114 17.9234
477 1 -1.1104 4.03385 19.6251 17.6517
478 2 2.2208 2.51925 18.2519 19.1969
479 1 -1.1104 3.73392 14.0455 14.9662
481 1 -1.1104 3.85778 19.5969 14.9365
483 2 2.2208 2.42731 15.5541 16.5505
484 2 2.2208 2.46716 20.9897 16.4388
485 1 -1.1104 3.84227 16.8191 17.939
486 1 -1.1104 3.88768 17.0224 15.0279
458 1 -1.1104 6.57501 13.899 17.9151
474 1 -1.1104 6.62337 16.695 14.9401
459 1 -1.1104 6.84917 19.6249 17.9874
464 1 -1.1104 6.71986 13.8836 14.944
8843 2 2.2208 -0.352369 18.1954 16.4007
480 1 -1.1104 3.7425 14.1235 20.6382
8841 2 2.2208 -0.292266 21.0355 19.2105
9001 2 2.2208 13.6235 15.4436 22.059
515 2 2.2208 10.7745 20.9665 13.7676
469 1 -1.1104 6.55548 16.8646 17.7073
466 1 -1.1104 6.71922 19.6718 15.0005
491 2 2.2208 10.8161 18.0654 16.33
492 1 -1.1104 12.2298 13.7252 17.7743
493 1 -1.1104 12.3631 19.5741 17.903
494 1 -1.1104 12.1661 14 14.9967
496 1 -1.1104 12.1719 19.5858 14.9808
498 1 -1.1104 12.1778 16.7091 17.6698
499 2 2.2208 10.9167 15.284 19.1997
500 2 2.2208 10.9618 21.0272 19.2216
501 1 -1.1104 12.2021 16.7322 14.9691
503 1 -1.1104 9.3343 14.0596 17.9244
504 1 -1.1104 9.59556 19.5604 17.8771
505 2 2.2208 8.16597 18.262 19.3007
506 1 -1.1104 9.42419 13.8094 15.0971
508 1 -1.1104 9.35196 19.4067 15.0581
510 2 2.2208 7.96519 15.3889 16.3682
511 2 2.2208 8.04199 21.0458 16.4871
512 1 -1.1104 9.29269 16.8083 17.9023
513 1 -1.1104 9.42171 16.6278 15.0347
8869 2 2.2208 13.6151 7.0345 24.8793
507 1 -1.1104 9.4457 14.0935 20.657
495 1 -1.1104 12.196 13.8965 20.7618
9015 2 2.2208 -0.44399 1.25451 22.046
509 1 -1.1104 9.45457 19.8091 20.6915
502 1 -1.1104 12.1758 16.7584 20.5956
467 1 -1.1104 6.5347 19.4847 20.7781
343 1 -1.1104 3.84449 2.87811 20.7818
550 2 2.2208 2.51857 -4.31879 24.8682
341 1 -1.1104 3.92669 -2.84814 20.6185
348 1 -1.1104 3.8422 -0.112347 20.514
334 1 -1.1104 1.14872 -0.0134135 20.6631
519 2 2.2208 5.23899 1.40956 22.0321
520 1 -1.1104 1.02265 -2.93787 23.414
521 1 -1.1104 0.816516 2.69582 23.4944
524 1 -1.1104 1.18086 -2.80291 26.3464
525 1 -1.1104 0.903853 2.80912 26.224
528 1 -1.1104 1.14368 -0.116436 23.4156
530 2 2.2208 5.19942 -1.38426 24.9065
531 2 2.2208 5.19818 4.22463 24.9689
532 1 -1.1104 1.03802 -0.00584528 26.3505
534 1 -1.1104 3.72517 -2.78556 23.4307
535 1 -1.1104 3.679 2.81774 23.5029
536 2 2.2208 2.34524 1.39668 24.8105
537 1 -1.1104 4.00863 -2.84553 26.1926
538 1 -1.1104 3.79416 2.68851 26.3099
539 2 2.2208 2.43204 -1.45322 21.9188
540 2 2.2208 2.40961 4.20926 22.1679
541 1 -1.1104 3.91901 -0.0699004 23.3592
542 1 -1.1104 3.85501 -0.0430788 26.2219
529 1 -1.1104 6.71603 -0.0458942 23.6932
522 1 -1.1104 6.62154 -2.85033 23.5013
336 1 -1.1104 6.55351 -0.0568977 20.8593
328 1 -1.1104 6.62921 2.77009 20.761
523 1 -1.1104 6.34846 2.78347 23.6242
8846 2 2.2208 -0.351679 -1.46567 24.8676
9016 2 2.2208 -0.437636 4.16191 24.8455
326 1 -1.1104 6.77466 -2.70328 20.6439
533 1 -1.1104 6.65305 0.0364864 26.3314
526 1 -1.1104 6.79501 -2.83319 26.2512
518 1 -1.1104 12.2501 19.5506 26.2871
375 1 -1.1104 9.57883 -2.99975 20.6445
527 1 -1.1104 6.52877 2.85489 26.3817
363 1 -1.1104 12.3097 -2.88154 20.7294
555 2 2.2208 10.8945 1.35472 22.1183
556 1 -1.1104 12.268 -2.76562 23.4819
557 1 -1.1104 12.1679 2.70141 23.5666
558 1 -1.1104 12.3983 -2.90069 26.3293
559 1 -1.1104 12.2444 2.69039 26.4825
560 1 -1.1104 12.4886 -0.115871 23.5633
561 2 2.2208 10.9506 -1.52144 24.8901
562 2 2.2208 10.8912 4.18614 24.9825
563 1 -1.1104 12.1922 -0.0959615 26.3625
564 1 -1.1104 9.44553 -2.86868 23.3413
565 1 -1.1104 9.37995 2.82936 23.4563
566 2 2.2208 7.90721 1.34765 24.9037
567 1 -1.1104 9.62281 -2.88695 26.1984
568 1 -1.1104 9.46122 2.73348 26.1687
569 2 2.2208 8.03074 -1.43518 22.1013
570 2 2.2208 8.01066 4.24521 22.0901
571 1 -1.1104 9.56482 -0.0911089 23.3398
572 1 -1.1104 9.46604 -0.0819482 26.2333
387 1 -1.1104 12.33 19.709 23.5905
8863 2 2.2208 13.7095 4.20151 22.1623
417 1 -1.1104 3.82864 8.35625 20.7333
422 1 -1.1104 3.97591 5.57969 20.7504
582 1 -1.1104 6.60146 19.5762 26.3327
406 1 -1.1104 1.06024 5.65586 20.6593
412 1 -1.1104 6.73009 11.085 20.572
584 2 2.2208 5.32039 7.01213 22.0593
585 2 2.2208 5.10681 12.5193 21.9965
586 1 -1.1104 1.02839 8.3511 23.5289
588 1 -1.1104 1.09416 8.39399 26.315
590 1 -1.1104 1.18375 5.55434 23.4126
591 1 -1.1104 0.926104 11.2818 23.3567
594 2 2.2208 5.16445 9.77826 24.9748
595 1 -1.1104 0.955061 5.64342 26.1878
596 1 -1.1104 0.989866 11.1581 26.2518
599 1 -1.1104 3.84071 8.33312 23.5718
600 2 2.2208 2.44192 6.96243 24.8039
601 2 2.2208 2.35266 12.5782 24.8501
602 1 -1.1104 3.85787 8.40264 26.467
603 2 2.2208 2.41591 9.83961 22.0709
604 1 -1.1104 4.00293 5.75116 23.4853
605 1 -1.1104 3.7459 11.0626 23.5659
606 1 -1.1104 3.95545 5.71962 26.2816
607 1 -1.1104 3.63008 11.2205 26.3939
587 1 -1.1104 6.67027 8.4505 23.5739
597 1 -1.1104 6.65937 5.58405 26.4115
598 1 -1.1104 6.48513 11.1241 26.2366
8950 2 2.2208 -0.370543 6.94993 22.016
8802 2 2.2208 13.6708 18.2045 19.2805
399 1 -1.1104 6.65077 8.44723 20.7864
410 1 -1.1104 6.74793 5.62949 20.6835
439 1 -1.1104 12.3318 11.0114 20.6971
451 1 -1.1104 9.47602 11.1353 20.6038
432 1 -1.1104 12.4636 8.27948 20.7356
614 1 -1.1104 9.50289 16.7732 23.2616
592 1 -1.1104 6.71391 5.46629 23.5731
444 1 -1.1104 9.43911 8.44673 20.6809
589 1 -1.1104 6.74337 8.26984 26.4306
593 1 -1.1104 6.49927 11.2343 23.3931
615 1 -1.1104 9.35497 11.1505 26.2658
616 1 -1.1104 9.4792 5.5021 26.3438
617 1 -1.1104 9.37617 11.1559 23.4593
618 1 -1.1104 9.53529 5.6092 23.3961
619 2 2.2208 8.01889 9.82708 22.1899
620 1 -1.1104 9.30897 8.34888 26.2832
621 2 2.2208 7.87107 12.475 24.812
622 2 2.2208 8.21583 6.91167 24.9382
623 2 2.2208 10.8984 6.96636 22.0581
624 2 2.2208 10.8779 12.5768 22.0312
625 1 -1.1104 12.2512 8.31949 23.5177
626 1 -1.1104 12.1041 8.25165 26.341
627 1 -1.1104 12.3782 5.54637 23.6267
628 1 -1.1104 12.2228 11.0956 23.4679
629 2 2.2208 10.6838 9.80446 24.8185
630 1 -1.1104 12.2119 5.49134 26.2939
631 1 -1.1104 12.1419 11.1426 26.365
632 1 -1.1104 9.51681 8.30447 23.5568
315 2 2.2208 10.7583 12.5013 27.7187
313 2 2.2208 10.7453 7.05518 27.7306
8629 2 2.2208 13.6236 9.87431 27.6942
463 1 -1.1104 1.02105 19.5983 20.6122
487 1 -1.1104 3.82017 16.8707 20.654
461 1 -1.1104 1.06976 14.0795 20.5567
583 1 -1.1104 9.40719 13.925 26.2523
473 1 -1.1104 1.02654 16.7477 20.7537
465 1 -1.1104 6.61285 13.8858 20.6275
482 1 -1.1104 3.76423 19.6627 20.7477
543 2 2.2208 2.49678 21.0567 22.0629
544 1 -1.1104 3.81446 16.786 23.4588
545 1 -1.1104 1.13023 16.7318 23.4312
552 2 2.2208 2.4134 15.4068 22.0164
573 1 -1.1104 3.84637 13.8889 26.1429
574 1 -1.1104 3.77136 16.8296 26.3526
608 2 2.2208 2.42392 18.2103 24.9097
633 1 -1.1104 3.88085 19.7788 26.2848
634 2 2.2208 5.19645 18.1878 22.1284
635 1 -1.1104 0.878202 14.095 23.4211
639 1 -1.1104 3.82818 19.5477 23.3903
641 1 -1.1104 3.60842 13.9559 23.4221
643 1 -1.1104 0.947766 19.4574 26.2585
644 1 -1.1104 0.942984 16.6752 26.3561
645 1 -1.1104 1.16665 13.975 26.2271
647 2 2.2208 5.21769 21.0186 24.8289
648 2 2.2208 5.26282 15.2918 24.7027
650 1 -1.1104 1.0893 19.5764 23.4572
548 1 -1.1104 6.72564 16.7624 23.4255
649 1 -1.1104 6.55638 13.9354 23.2368
8873 2 2.2208 -0.399091 20.8293 24.8646
636 1 -1.1104 9.42071 16.8584 26.1632
388 1 -1.1104 12.1356 13.9762 26.3572
547 2 2.2208 10.7301 15.3352 24.9196
497 1 -1.1104 12.3125 19.6587 20.7173
9005 2 2.2208 13.7467 21.0585 22.168
514 1 -1.1104 9.64814 16.8357 20.5817
553 2 2.2208 10.8865 20.9208 24.9564
554 1 -1.1104 12.3409 16.7595 26.1949
576 1 -1.1104 9.39605 13.8025 23.5271
580 1 -1.1104 9.55984 19.5432 23.4732
613 2 2.2208 8.12634 21.0669 22.0169
475 1 -1.1104 6.71256 16.7603 20.6282
646 1 -1.1104 6.651 19.5907 23.5997
640 1 -1.1104 6.69248 13.9591 26.2155
581 2 2.2208 8.026 18.2743 24.8968
642 1 -1.1104 6.46898 16.7885 26.0595
612 2 2.2208 8.04668 15.2943 22.0418
611 1 -1.1104 9.50037 19.6227 26.2466
546 1 -1.1104 12.2206 16.9939 23.3698
354 2 2.2208 10.8656 18.2403 22.0052
383 1 -1.1104 12.247 13.9633 23.5462
8662 2 2.2208 13.6956 1.43308 19.3239
8656 2 2.2208 13.6561 4.26042 16.3324
8699 2 2.2208 -0.393264 4.23607 19.3466
9007 2 2.2208 -0.435284 -1.45315 19.2127
8737 2 2.2208 -0.379124 12.5889 16.4533
8803 2 2.2208 13.6819 21.0046 16.3497
308 2 2.2208 2.37523 4.30975 27.5942
306 2 2.2208 5.25243 1.35853 27.7175
610 2 2.2208 5.16305 12.6107 27.678
9022 2 2.2208 -0.349523 12.7103 27.668
314 2 2.2208 7.95723 9.65829 27.6758
8623 2 2.2208 -0.459818 1.4244 27.6229
551 2 2.2208 2.26552 20.8808 27.6314
637 2 2.2208 2.38477 15.3428 27.5791
638 2 2.2208 5.1525 18.1229 27.7334
349 2 2.2208 8.03612 15.4611 27.5369
427 2 2.2208 2.45227 12.656 13.6926
453 2 2.2208 10.9659 9.9372 13.7113
8734 2 2.2208 13.6892 12.7496 13.6923
490 2 2.2208 5.17848 15.435 13.462
651 2 2.2208 5.18204 23.7627 5.27511
652 2 2.2208 5.2604 29.3527 5.34813
653 1 -1.1104 0.883294 25.2251 1.13222
654 1 -1.1104 0.950131 25.2188 3.81262
655 1 -1.1104 0.978186 22.4395 1.16666
656 1 -1.1104 1.10728 28.2436 0.926505
657 2 2.2208 5.15818 26.5143 2.57156
658 1 -1.1104 0.899683 22.4165 3.80312
659 1 -1.1104 0.795902 27.9619 3.83551
660 1 -1.1104 3.76148 25.1202 1.17101
661 2 2.2208 2.37829 23.7754 2.49485
662 2 2.2208 2.43613 29.4922 2.51348
663 1 -1.1104 3.6839 25.2056 3.8956
664 2 2.2208 2.32754 26.5565 5.36191
665 1 -1.1104 3.74836 22.2806 0.749998
666 1 -1.1104 3.9858 28.0978 1.17396
667 1 -1.1104 3.74389 22.4403 3.61622
668 1 -1.1104 3.70298 27.9763 3.86787
1487 1 -1.1104 6.65689 47.9002 9.39334
9342 2 2.2208 -0.454219 26.665 2.51029
9341 2 2.2208 -0.477482 23.8279 5.28428
1478 1 -1.1104 1.22652 47.5701 6.44254
800 1 -1.1104 3.91524 28.0539 6.62662
792 1 -1.1104 0.772558 25.3584 6.70161
9339 2 2.2208 -0.370721 29.5537 5.25863
677 1 -1.1104 6.54358 27.8399 3.98245
793 1 -1.1104 6.50524 25.1285 6.74378
674 1 -1.1104 6.67261 22.5649 1.02077
676 1 -1.1104 6.69592 22.3425 3.84088
675 1 -1.1104 6.79092 27.9636 1.19273
673 1 -1.1104 6.40032 24.9425 3.77368
672 1 -1.1104 6.55231 25.2425 0.896455
678 2 2.2208 10.7899 23.8109 5.143
679 2 2.2208 10.8072 29.3605 5.25499
680 1 -1.1104 12.1493 25.2565 1.16951
681 1 -1.1104 12.258 25.3092 3.91901
682 1 -1.1104 12.2339 22.4946 1.04112
683 1 -1.1104 12.2847 28.0242 1.0814
684 2 2.2208 10.8069 26.6621 2.36411
685 1 -1.1104 12.2619 22.4732 3.79825
686 1 -1.1104 12.3001 28.0414 3.82137
687 1 -1.1104 9.4398 25.2665 1.1777
688 2 2.2208 8.02575 23.8726 2.34418
689 2 2.2208 7.87459 29.3539 2.45022
690 1 -1.1104 9.31429 25.1753 3.8282
691 2 2.2208 7.98793 26.5758 5.39178
692 1 -1.1104 9.50766 22.5187 0.826383
693 1 -1.1104 9.46196 28.0132 1.14992
694 1 -1.1104 9.48078 22.2976 3.55918
695 1 -1.1104 9.43805 28.1082 3.8899
827 1 -1.1104 12.1324 27.8808 6.70877
9244 2 2.2208 13.6914 32.2211 10.8478
830 1 -1.1104 9.421 27.8164 6.63815
9592 2 2.2208 -0.339879 46.2206 -0.228579
9347 2 2.2208 -0.549443 32.3234 2.36874
9346 2 2.2208 -0.278976 37.8837 2.39235
699 2 2.2208 5.21499 35.044 5.32314
700 1 -1.1104 1.17817 30.9571 0.994929
701 1 -1.1104 0.912021 36.5338 0.928383
703 1 -1.1104 0.953722 30.715 3.86765
704 1 -1.1104 0.998948 36.3602 3.73545
706 1 -1.1104 0.989489 33.7177 0.925705
707 2 2.2208 5.13295 32.2552 2.48635
708 2 2.2208 5.1668 37.7684 2.49717
709 1 -1.1104 0.97146 33.5962 3.79065
711 1 -1.1104 3.88689 30.9675 0.992579
712 1 -1.1104 3.77692 36.345 0.918661
713 2 2.2208 2.39492 34.9832 2.40479
714 1 -1.1104 3.83134 30.7408 3.75222
715 1 -1.1104 3.79415 36.3488 3.88747
716 2 2.2208 2.44079 32.1989 5.2108
717 2 2.2208 2.50428 37.6749 5.13682
718 1 -1.1104 3.77202 33.5795 1.10396
719 1 -1.1104 3.82802 33.5778 3.89308
956 2 2.2208 2.46488 37.7039 -0.319969
9351 2 2.2208 -0.339022 46.3221 5.08848
957 2 2.2208 2.38099 32.3013 -0.412494
9348 2 2.2208 -0.513352 35.0661 5.23271
853 1 -1.1104 0.970799 33.7503 6.60395
710 1 -1.1104 6.59382 33.8328 3.83524
723 1 -1.1104 6.54474 30.8153 1.08752
849 1 -1.1104 1.05295 31.021 6.53003
850 1 -1.1104 1.09542 36.4536 6.4723
857 1 -1.1104 3.67326 33.5763 6.69233
725 1 -1.1104 6.62557 33.5522 1.07274
724 1 -1.1104 6.44898 30.8577 3.88269
854 1 -1.1104 6.6621 33.6865 6.72519
702 1 -1.1104 6.60322 36.4646 1.04107
705 1 -1.1104 6.80728 36.4065 3.79528
726 2 2.2208 10.8668 34.9702 5.15601
727 1 -1.1104 12.2667 30.8182 1.06375
728 1 -1.1104 12.2121 36.4033 0.984706
729 1 -1.1104 12.2475 30.8328 3.97001
730 1 -1.1104 12.3555 36.2735 3.85099
731 1 -1.1104 12.2523 33.6263 0.884053
732 2 2.2208 10.8743 32.2894 2.34328
733 2 2.2208 10.8659 37.7675 2.41215