ITEM: TIMESTEP
90000
ITEM: NUMBER OF ATOMS
17730
ITEM: BOX BOUNDS pp pp pp
-3.5639110630214937e-01 2.7696391106301608e+01
-4.2043262696409451e+00 3.3228432626963701e+02
-3.5679096170504199e-01 2.7696790961705531e+01
ITEM: ATOMS id type q x y z
1 2 2.2208 5.21487 1.49754 5.10428
2 1 -1.1104 1.20374 -2.8201 0.940934
3 1 -1.1104 0.987365 2.89367 1.05481
6 1 -1.1104 0.857533 -2.77236 3.65529
7 1 -1.1104 0.956929 2.867 3.68703
10 1 -1.1104 0.944068 -0.0245073 1.00396
12 2 2.2208 5.20732 -1.36543 2.4345
14 1 -1.1104 0.98405 -0.0751436 3.74005
16 1 -1.1104 3.92113 -2.63254 1.00106
17 1 -1.1104 3.85684 2.92617 1.00097
18 2 2.2208 2.4774 1.43416 2.34954
19 1 -1.1104 3.76639 -2.72121 4.07009
20 1 -1.1104 3.99025 2.90059 3.78945
21 2 2.2208 2.29885 -1.4929 5.17403
22 2 2.2208 2.42001 4.18914 5.06879
23 1 -1.1104 3.92358 0.174176 1.0101
24 1 -1.1104 3.69483 0.0346831 3.72223
13 2 2.2208 5.08761 4.37095 2.33439
15 1 -1.1104 6.48015 6.37671e-05 3.70667
5 1 -1.1104 6.52441 3.06975 1.06019
8 1 -1.1104 6.70867 -2.71027 3.89365
8620 2 2.2208 13.5842 -4.29201 8.00346
231 2 2.2208 8.12467 -4.09588 8.17827
9 1 -1.1104 6.61852 2.91861 3.76338
8660 2 2.2208 13.5999 1.38557 13.486
51 2 2.2208 8.04076 -4.08521 2.47616
202 2 2.2208 2.51473 -3.96653 8.16538
11 1 -1.1104 6.64191 0.0536221 0.984451
4 1 -1.1104 6.74635 -2.65644 1.13752
31 2 2.2208 10.864 1.41216 5.22717
32 1 -1.1104 12.2991 -2.85277 1.05123
33 1 -1.1104 12.2113 2.68285 1.02122
34 1 -1.1104 12.1834 -2.76376 3.93848
35 1 -1.1104 12.4062 2.80932 3.81306
36 1 -1.1104 12.3145 -0.127055 0.800215
37 2 2.2208 10.8289 -1.2445 2.29995
39 1 -1.1104 12.1993 -0.0599744 3.76492
40 1 -1.1104 9.48847 -2.71167 1.04333
41 1 -1.1104 9.23214 2.86304 1.11611
42 2 2.2208 7.93874 1.46096 2.39461
43 1 -1.1104 9.48667 -2.66493 3.87416
44 1 -1.1104 9.46181 2.7686 3.79015
45 2 2.2208 8.06863 -1.23943 5.12244
46 2 2.2208 8.01591 4.32641 5.30235
47 1 -1.1104 9.3992 0.0586141 0.979845
48 1 -1.1104 9.3679 -0.00596306 3.79337
38 2 2.2208 10.6992 4.17972 2.40975
203 2 2.2208 5.30555 -4.09141 10.9595
8294 2 2.2208 13.6064 4.25141 5.33691
8599 2 2.2208 13.6609 1.33209 2.32469
210 1 -1.1104 9.45274 0.0899494 6.55869
206 1 -1.1104 12.1622 2.79196 6.55813
8371 2 2.2208 13.7143 21.0887 5.06517
8619 2 2.2208 13.6129 -1.26553 10.8209
54 2 2.2208 5.29459 6.94391 5.18524
55 2 2.2208 5.26245 12.6489 5.18957
56 1 -1.1104 1.09376 8.5586 1.09964
58 1 -1.1104 1.09906 8.31453 3.86548
60 1 -1.1104 0.920301 5.71282 0.908196
61 1 -1.1104 1.11559 11.3356 0.961086
66 2 2.2208 5.24507 9.87435 2.41398
67 1 -1.1104 0.961291 5.60244 3.80608
68 1 -1.1104 1.00998 11.2614 3.69892
71 1 -1.1104 3.8222 8.46853 0.869696
72 2 2.2208 2.3833 7.06013 2.29197
73 2 2.2208 2.4829 12.7197 2.32485
74 1 -1.1104 3.83992 8.41019 3.8273
75 2 2.2208 2.40813 9.81584 5.2253
76 1 -1.1104 3.75867 5.71729 0.707551
77 1 -1.1104 3.81033 11.327 0.990596
79 1 -1.1104 3.81209 5.79041 3.58974
80 1 -1.1104 3.73554 11.3371 3.8527
59 1 -1.1104 6.60185 8.37449 3.74311
64 1 -1.1104 6.65415 11.3007 1.00225
69 1 -1.1104 6.69169 5.65304 3.80852
63 1 -1.1104 6.6336 5.67653 0.965149
610 2 2.2208 5.21473 12.7978 -0.4746
232 2 2.2208 10.8885 -4.11045 10.8846
386 2 2.2208 7.91931 -4.25001 13.7242
238 1 -1.1104 3.86446 8.46938 6.66407
237 1 -1.1104 6.62633 5.64325 6.41651
28 2 2.2208 2.43076 -4.07124 2.40767
57 1 -1.1104 6.55015 8.57127 0.822401
70 1 -1.1104 6.72789 11.2833 3.64285
84 2 2.2208 10.7837 7.10418 5.13347
85 2 2.2208 10.879 12.7756 5.22897
86 1 -1.1104 12.2203 8.37325 0.973511
87 1 -1.1104 12.1231 8.44598 3.78912
88 1 -1.1104 11.9932 5.52016 1.09491
89 1 -1.1104 12.2781 11.2964 0.962956
91 2 2.2208 10.7894 9.94328 2.30176
92 1 -1.1104 12.2776 5.60263 3.83734
93 1 -1.1104 12.3365 11.2274 3.73813
94 1 -1.1104 9.46808 8.31964 1.01657
95 2 2.2208 7.94047 6.95268 2.29629
96 2 2.2208 8.03202 12.7022 2.31203
97 1 -1.1104 9.37082 8.55829 3.4931
98 2 2.2208 7.97243 9.82043 5.09376
99 1 -1.1104 9.23151 5.67664 0.95113
100 1 -1.1104 9.3255 11.0225 0.855461
102 1 -1.1104 9.52511 5.6327 3.81194
103 1 -1.1104 9.55451 11.4628 3.68863
265 1 -1.1104 12.0273 8.58286 6.57319
8605 2 2.2208 13.7617 12.5774 2.41532
8606 2 2.2208 13.5209 7.03244 2.46375
52 2 2.2208 10.7994 -4.11987 5.20367
8601 2 2.2208 13.4986 -4.23497 2.47626
8703 2 2.2208 -0.430489 4.26922 13.6011
269 1 -1.1104 9.40693 5.71735 6.73154
267 1 -1.1104 9.24141 8.40746 6.38058
551 2 2.2208 2.44007 21.0822 -0.36566
106 2 2.2208 5.38632 18.1905 5.2508
107 1 -1.1104 0.94287 14.1437 0.88387
109 1 -1.1104 0.884409 19.6563 0.921487
113 1 -1.1104 1.06124 13.9964 3.63754
114 1 -1.1104 1.07406 19.5485 3.65295
116 1 -1.1104 1.02684 16.8957 1.01342
119 2 2.2208 5.13798 15.5951 2.43115
120 2 2.2208 5.29222 20.9917 2.31839
121 1 -1.1104 1.17561 16.8798 3.72562
123 1 -1.1104 3.76959 14.1644 0.892973
125 1 -1.1104 3.74635 19.7111 1.12837
127 2 2.2208 2.414 18.1984 2.3297
128 1 -1.1104 3.93523 14.0337 3.6385
129 1 -1.1104 3.99923 19.6482 3.9194
130 2 2.2208 2.50271 15.5018 5.16399
131 2 2.2208 2.46468 21.0411 4.98609
132 1 -1.1104 3.95389 17.0209 0.907744
134 1 -1.1104 3.87218 16.8432 3.84153
139 1 -1.1104 6.76836 19.7254 3.74596
122 1 -1.1104 6.6924 16.8107 3.69662
110 1 -1.1104 6.34273 14.1199 0.946625
115 1 -1.1104 6.65486 14.1071 3.78308
637 2 2.2208 2.44023 15.5754 -0.467949
140 1 -1.1104 6.80686 16.9494 0.945367
138 1 -1.1104 6.58256 19.6806 0.832351
133 1 -1.1104 3.85332 16.8727 6.53592
111 1 -1.1104 6.6581 14.0053 6.57398
141 2 2.2208 10.7778 18.2937 5.13812
142 1 -1.1104 12.1884 14.1428 0.974634
144 1 -1.1104 12.2657 19.6101 1.04627
146 1 -1.1104 12.408 14.0659 3.73777
147 1 -1.1104 12.2595 19.7333 3.79114
148 1 -1.1104 12.3781 16.8149 0.976006
150 2 2.2208 10.9782 15.4812 2.24181
151 2 2.2208 10.8301 21.1191 2.23806
152 1 -1.1104 12.3587 16.846 3.8804
153 1 -1.1104 9.29992 13.883 0.83985
155 1 -1.1104 9.43195 19.6133 0.892329
157 2 2.2208 8.1765 18.2783 2.25356
158 1 -1.1104 9.50011 14.1127 3.81766
159 1 -1.1104 9.50599 19.6127 3.58592
160 2 2.2208 7.9968 15.4113 5.1656
161 2 2.2208 8.13427 21.1214 5.17792
162 1 -1.1104 9.62598 16.8044 0.969023
164 1 -1.1104 9.58608 16.7798 3.7485
26 1 -1.1104 12.446 14.0188 12.1376
8392 2 2.2208 13.712 15.3789 5.20869
149 1 -1.1104 12.2996 16.9033 6.76532
156 1 -1.1104 9.4871 19.6879 6.64968
353 2 2.2208 8.00101 21.0742 -0.488459
352 2 2.2208 10.9127 18.3513 -0.386175
8614 2 2.2208 -0.370164 15.5838 7.90808
143 1 -1.1104 12.2462 13.98 6.62116
165 2 2.2208 7.99391 21.095 10.774
170 1 -1.1104 1.06353 0.133519 6.49315
166 1 -1.1104 1.01459 -2.68826 6.72078
8429 2 2.2208 13.5663 4.30072 10.8044
25 2 2.2208 11.0586 18.4011 10.7284
167 1 -1.1104 1.04936 2.79099 6.50412
173 1 -1.1104 3.82052 2.98454 6.44906
171 1 -1.1104 6.68955 0.0774233 6.5856
174 1 -1.1104 3.81627 0.0674481 6.42319
172 1 -1.1104 3.92955 -2.85359 6.77509
175 2 2.2208 5.32289 1.48029 10.7332
176 1 -1.1104 0.903804 -2.67564 12.3921
177 1 -1.1104 1.08797 3.06211 12.2513
180 1 -1.1104 0.985288 -2.56053 9.4568
181 1 -1.1104 0.992563 2.7774 9.42945
184 1 -1.1104 1.00321 0.198313 12.1616
186 2 2.2208 5.23771 -1.21004 7.92036
187 2 2.2208 5.05542 4.45137 8.00472
188 1 -1.1104 1.08703 -0.0355539 9.36387
190 1 -1.1104 3.96933 -2.71233 12.3764
191 1 -1.1104 3.84238 2.78347 12.0926
192 2 2.2208 2.43133 1.41484 7.90336
193 1 -1.1104 3.73945 -2.66513 9.6451
194 1 -1.1104 3.84346 2.9676 9.18037
195 2 2.2208 2.36696 -1.328 10.8767
197 1 -1.1104 3.89881 0.164622 12.1361
198 1 -1.1104 3.84267 0.0899517 9.3406
196 2 2.2208 2.36222 4.32273 10.8495
189 1 -1.1104 6.64917 0.100716 9.38558
169 1 -1.1104 6.52523 2.8585 6.61706
168 1 -1.1104 6.72846 -2.80048 6.73107
182 1 -1.1104 6.57667 -2.67427 9.52937
178 1 -1.1104 6.66279 -2.61894 12.3184
183 1 -1.1104 6.53926 2.95519 9.35478
179 1 -1.1104 6.62133 2.96598 12.0703
185 1 -1.1104 6.55529 0.284492 12.2956
208 1 -1.1104 9.4198 -2.72924 6.72924
207 1 -1.1104 12.2814 -0.043343 6.55492
209 1 -1.1104 9.36557 2.98083 6.62543
205 1 -1.1104 12.2876 -2.6703 6.65956
211 2 2.2208 10.8311 1.46896 10.6679
212 1 -1.1104 12.1351 -2.6334 12.166
213 1 -1.1104 12.1609 2.69272 12.1823
214 1 -1.1104 12.3321 -2.67762 9.54627
215 1 -1.1104 12.131 3.0279 9.45169
216 1 -1.1104 12.213 0.138872 12.084
217 2 2.2208 10.8324 -1.33414 8.03517
219 1 -1.1104 12.1926 0.124913 9.26332
220 1 -1.1104 9.37588 -2.7766 12.2554
221 1 -1.1104 9.3796 2.85043 12.3659
222 2 2.2208 7.99465 1.51018 7.999
223 1 -1.1104 9.4635 -2.69331 9.42943
224 1 -1.1104 9.32269 3.20098 9.36615
225 2 2.2208 7.97874 -1.19546 10.8098
226 2 2.2208 7.9383 4.35215 10.6709
227 1 -1.1104 9.36038 0.106573 12.1186
228 1 -1.1104 9.38292 0.315477 9.36662
218 2 2.2208 10.8521 4.29406 8.00882
199 1 -1.1104 9.49675 16.7965 12.1642
8618 2 2.2208 13.7693 1.36349 8.06414
236 1 -1.1104 1.06003 5.50681 6.70666
65 1 -1.1104 6.66708 11.2315 6.47356
235 1 -1.1104 6.63778 8.41586 6.63252
234 1 -1.1104 1.0015 8.3075 6.53862
239 1 -1.1104 3.83705 5.71935 6.61832
78 1 -1.1104 3.82844 11.3026 6.59575
62 1 -1.1104 0.987646 11.1944 6.57839
240 2 2.2208 5.18505 7.17774 10.8026
241 2 2.2208 5.17261 12.7649 10.8932
242 1 -1.1104 0.925468 8.62682 12.1162
244 1 -1.1104 1.00872 8.52795 9.40637
246 1 -1.1104 1.09263 5.87146 12.2231
247 1 -1.1104 0.912932 11.3447 12.1673
250 2 2.2208 5.28604 9.81392 8.12971
251 1 -1.1104 0.944803 5.64972 9.47287
252 1 -1.1104 0.88389 11.3113 9.20155
255 1 -1.1104 3.54694 8.43029 12.1635
256 2 2.2208 2.38458 7.01346 8.08859
257 2 2.2208 2.40314 12.6995 8.07757
258 1 -1.1104 3.77096 8.5034 9.38446
259 2 2.2208 2.28466 9.97794 10.7134
260 1 -1.1104 3.86091 5.65548 12.3017
261 1 -1.1104 3.78526 11.2231 12.2667
262 1 -1.1104 3.76041 5.70149 9.56663
263 1 -1.1104 3.81251 11.3479 9.44531
249 1 -1.1104 6.55017 11.3221 12.0915
253 1 -1.1104 6.53659 5.68212 9.2802
245 1 -1.1104 6.53387 8.45366 9.39807
254 1 -1.1104 6.72735 11.2366 9.34344
243 1 -1.1104 6.49808 8.5173 12.1643
8516 2 2.2208 -0.549071 12.6982 10.7573
101 1 -1.1104 9.35842 11.2595 6.53194
355 2 2.2208 2.46444 -3.98351 13.7023
53 2 2.2208 10.9105 15.5587 8.02725
248 1 -1.1104 6.60887 5.65311 12.0626
266 1 -1.1104 12.2547 5.6625 6.69544
90 1 -1.1104 12.113 11.4409 6.64347
264 1 -1.1104 9.53631 11.2679 9.3079
268 1 -1.1104 9.42028 5.80237 9.4943
270 1 -1.1104 9.48632 11.3897 12.0867
271 1 -1.1104 9.32707 5.48266 12.0998
272 2 2.2208 7.99977 9.9254 10.6955
273 1 -1.1104 9.39135 8.50299 9.27591
274 2 2.2208 8.05703 12.75 7.85917
275 2 2.2208 7.9724 7.11326 7.85757
276 2 2.2208 10.7165 7.25806 10.7804
277 2 2.2208 10.8937 12.7659 10.7794
278 1 -1.1104 12.2216 8.45729 12.129
279 1 -1.1104 12.2737 8.70825 9.39543
280 1 -1.1104 12.1422 5.59059 12.087
281 1 -1.1104 12.354 11.2393 12.3348
282 2 2.2208 10.7828 10.0171 7.86303
283 1 -1.1104 12.1852 5.78019 9.47987
284 1 -1.1104 12.2418 11.3693 9.36201
285 1 -1.1104 9.33364 8.50046 12.2232
8505 2 2.2208 13.5142 7.12616 8.03287
8596 2 2.2208 -0.409898 1.3996 5.14035
302 1 -1.1104 1.17687 19.6824 6.51404
126 1 -1.1104 4.06822 19.583 6.56898
112 1 -1.1104 6.76593 19.5862 6.52104
297 1 -1.1104 6.53379 14.1476 12.0371
117 1 -1.1104 1.06972 16.7922 6.53421
124 1 -1.1104 3.9248 14.2191 6.60427
108 1 -1.1104 1.03784 13.9479 6.6677
118 1 -1.1104 6.58089 16.7412 6.62927
289 1 -1.1104 6.71744 16.8005 9.35031
233 1 -1.1104 6.686 16.8471 12.2623
201 2 2.2208 2.2945 15.5237 10.7954
204 2 2.2208 2.46486 20.9812 10.7105
229 1 -1.1104 3.79162 16.8049 12.1131
230 1 -1.1104 0.912051 16.841 12.1664
286 1 -1.1104 3.87719 19.6513 12.1605
287 1 -1.1104 3.66879 14.1064 12.1895
291 1 -1.1104 1.1731 19.7092 9.25307
292 1 -1.1104 1.04386 16.9653 9.28143
293 2 2.2208 5.27202 20.9455 7.99021
294 1 -1.1104 0.826113 14.2461 9.57237
295 2 2.2208 5.27575 15.3799 8.03518
298 1 -1.1104 0.975148 19.6593 11.9607
299 1 -1.1104 0.92659 14.0401 12.2346
300 2 2.2208 5.20346 18.2516 10.8272
301 1 -1.1104 3.84464 19.7908 9.22615
303 2 2.2208 2.50437 18.2976 7.8884
304 1 -1.1104 3.82702 16.9525 9.44183
305 1 -1.1104 3.74349 14.1918 9.31758
290 1 -1.1104 6.70951 13.9352 9.34154
296 1 -1.1104 6.66032 19.5283 12.1665
288 1 -1.1104 6.58088 19.5971 9.43032
8600 2 2.2208 13.6764 -1.36729 5.30296
8595 2 2.2208 13.6975 18.3043 7.92211
82 1 -1.1104 12.3517 16.7944 9.47294
49 1 -1.1104 12.4059 19.796 9.37527
105 2 2.2208 8.07106 18.1471 7.97556
104 1 -1.1104 9.43674 19.5905 12.2156
136 1 -1.1104 9.35485 19.7316 9.28576
83 1 -1.1104 9.41422 14.0603 12.4113
145 1 -1.1104 12.2594 19.6666 6.509
154 1 -1.1104 9.46951 14.1767 6.55327
8594 2 2.2208 13.7722 15.442 10.7169
27 1 -1.1104 12.3118 19.7792 12.1721
163 1 -1.1104 9.41127 16.83 6.628
200 1 -1.1104 9.57565 16.9427 9.44955
135 1 -1.1104 9.61232 14.1354 9.41593
30 1 -1.1104 12.391 14.1081 9.42259
81 2 2.2208 10.9303 21.1125 7.97783
137 2 2.2208 8.26222 15.4712 10.8147
50 1 -1.1104 12.2642 16.9502 12.4284
356 2 2.2208 5.35314 -1.22601 13.6879
8323 2 2.2208 13.5021 9.86506 5.27835
9025 2 2.2208 -0.425413 7.1081 -0.511429
8604 2 2.2208 -0.273692 12.5441 5.08284
9004 2 2.2208 13.7958 21.1058 -0.449488
515 2 2.2208 10.8375 21.1321 13.6349
425 2 2.2208 2.42672 7.152 13.6293
577 2 2.2208 10.8116 -4.12057 -0.279202
427 2 2.2208 2.33644 12.5977 13.5057
9012 2 2.2208 13.7891 18.3026 13.5392
391 2 2.2208 10.8891 4.19485 13.5396
358 2 2.2208 5.26901 4.24597 13.5563
8629 2 2.2208 13.5887 9.85582 -0.42702
357 2 2.2208 2.45574 1.58739 13.5921
311 2 2.2208 8.05429 -1.40439 -0.299396
390 2 2.2208 10.7092 -1.37951 13.4865
638 2 2.2208 5.32145 18.3672 -0.559636
313 2 2.2208 10.8607 7.08928 -0.482259
316 2 2.2208 5.37328 1.60834 16.4675
317 1 -1.1104 1.00257 -2.70576 17.9476
318 1 -1.1104 1.12882 3.09326 17.7683
321 1 -1.1104 1.12572 -2.72338 15.0629
323 1 -1.1104 0.955134 2.94546 14.9792
329 1 -1.1104 1.18027 0.275446 17.8098
331 2 2.2208 5.1934 -1.17019 19.3166
332 2 2.2208 5.32507 4.40311 19.1658
333 1 -1.1104 1.22103 0.141568 14.8774
337 1 -1.1104 3.82256 -2.71929 17.9531
338 1 -1.1104 3.91547 2.91269 17.8625
339 2 2.2208 2.56025 1.59607 19.2464
340 1 -1.1104 3.77943 -2.72122 15.0701
342 1 -1.1104 3.89027 3.10826 14.9923
344 2 2.2208 2.43538 -1.207 16.4492
346 1 -1.1104 4.03833 0.0467328 17.8054
347 1 -1.1104 3.97076 0.270936 15.0468
345 2 2.2208 2.4375 4.33764 16.3751
320 1 -1.1104 6.65853 2.98849 17.827
325 1 -1.1104 6.54221 -2.87083 15.0833
384 2 2.2208 10.856 -4.15406 16.4933
335 1 -1.1104 6.71608 0.0862955 15.1023
341 1 -1.1104 3.65189 -2.65846 20.6061
324 1 -1.1104 0.997342 2.99048 20.4128
334 1 -1.1104 1.23742 0.268554 20.5849
328 1 -1.1104 6.72008 2.81263 20.4547
326 1 -1.1104 6.46245 -2.71235 20.6538
579 2 2.2208 8.1966 -4.26235 24.9204
8732 2 2.2208 13.5644 12.7176 19.2183
9002 2 2.2208 13.6822 18.3243 24.7981
330 1 -1.1104 6.71112 0.12904 17.8362
319 1 -1.1104 6.6534 -2.75447 17.8276
327 1 -1.1104 6.66309 2.89696 14.9463
359 2 2.2208 10.7605 1.5607 16.4592
360 1 -1.1104 12.2315 -2.77023 17.7743
361 1 -1.1104 12.2311 2.92651 17.7204
362 1 -1.1104 12.2193 -2.79497 14.9753
364 1 -1.1104 12.4238 2.72553 15.0041
366 1 -1.1104 12.2104 0.06663 17.7289
367 2 2.2208 10.7699 -1.44603 19.2416
369 1 -1.1104 12.011 -0.0257813 14.902
371 1 -1.1104 9.43671 -2.73501 17.8314
372 1 -1.1104 9.43125 2.89873 17.7894
373 2 2.2208 8.08448 1.57083 19.2302
374 1 -1.1104 9.41615 -2.96876 15.0285
376 1 -1.1104 9.55029 2.91132 15.0196
378 2 2.2208 7.94513 -1.34236 16.3476
379 2 2.2208 8.0602 4.29038 16.4437
380 1 -1.1104 9.36746 0.136261 17.7485
381 1 -1.1104 9.41662 -0.0540453 14.9032
368 2 2.2208 10.8403 4.28535 19.1234
336 1 -1.1104 6.60991 -0.069103 20.6648
370 1 -1.1104 12.1614 -0.0678491 20.7072
9010 2 2.2208 13.5962 -1.33 16.5188
351 2 2.2208 2.39303 -4.06576 19.2763
9013 2 2.2208 13.7544 12.6272 24.9124
8734 2 2.2208 13.6204 12.6645 13.5706
382 1 -1.1104 9.40897 0.205289 20.5261
375 1 -1.1104 9.30931 -2.63322 20.6589
489 2 2.2208 5.15905 21.0562 13.6296
454 2 2.2208 8.1006 12.5775 13.5747
8662 2 2.2208 13.5954 1.42941 19.301
385 2 2.2208 7.93001 -4.14051 19.268
392 2 2.2208 5.20215 7.1999 16.4007
393 2 2.2208 5.22442 12.6807 16.235
394 1 -1.1104 1.02666 8.49089 17.9085
396 1 -1.1104 0.931444 8.41336 14.8905
400 1 -1.1104 1.05948 5.71331 17.7778
401 1 -1.1104 1.07851 11.3371 17.6975
404 2 2.2208 5.28081 9.81893 19.1971
405 1 -1.1104 0.779262 5.56552 14.9949
407 1 -1.1104 1.08746 11.3188 14.8359
413 1 -1.1104 3.84165 8.47047 17.8047
414 2 2.2208 2.44095 7.13933 19.2303
415 2 2.2208 2.39293 12.6943 19.2216
416 1 -1.1104 3.92377 8.48457 14.9377
418 2 2.2208 2.53463 9.91057 16.5183
419 1 -1.1104 3.87896 5.69709 17.7693
420 1 -1.1104 3.87221 11.3401 17.8372
421 1 -1.1104 3.69547 5.93943 15.0358
423 1 -1.1104 3.88505 11.2205 15.0274
411 1 -1.1104 6.64885 11.0912 14.8672
403 1 -1.1104 6.68363 11.3471 17.6118
309 2 2.2208 5.13174 -4.0767 27.6867
550 2 2.2208 2.39152 -4.19339 24.9114
398 1 -1.1104 6.6767 8.2717 14.9089
395 1 -1.1104 6.63709 8.55302 17.6987
350 2 2.2208 5.14589 -3.95983 16.5773
409 1 -1.1104 6.46787 5.54856 15.0694
402 1 -1.1104 6.65848 5.74595 17.7897
428 2 2.2208 10.8168 7.13217 16.3699
429 2 2.2208 10.8072 12.6485 16.4191
430 1 -1.1104 12.3146 8.40626 17.7682
431 1 -1.1104 12.2367 8.38327 14.9236
433 1 -1.1104 12.1904 5.65164 17.7378
434 1 -1.1104 12.3049 11.2105 17.9464
435 2 2.2208 10.9652 9.89707 19.2192
436 1 -1.1104 12.1498 5.65838 14.8876
438 1 -1.1104 12.314 11.2436 14.9894
440 1 -1.1104 9.58542 8.47423 17.7463
441 2 2.2208 8.04685 7.09599 19.1421
442 2 2.2208 8.1006 12.5838 19.1397
443 1 -1.1104 9.38259 8.44177 14.8858
445 2 2.2208 8.07667 9.80896 16.3578
446 1 -1.1104 9.39232 5.64858 17.9163
447 1 -1.1104 9.61257 11.1578 17.7953
448 1 -1.1104 9.38404 5.67316 15.0096
450 1 -1.1104 9.61883 11.2551 14.9143
8731 2 2.2208 13.6633 7.10689 19.122
8730 2 2.2208 13.7185 9.96468 16.4368
8772 2 2.2208 -0.388068 7.05617 16.5804
9009 2 2.2208 13.6483 -4.18558 19.2249
437 1 -1.1104 12.2911 5.83572 20.5563
490 2 2.2208 5.22941 15.4745 13.5564
488 2 2.2208 2.44319 18.2131 13.7012
455 2 2.2208 5.22737 18.2116 16.3842
456 1 -1.1104 1.01055 14.2606 17.8098
457 1 -1.1104 1.01881 19.7017 17.7897
460 1 -1.1104 1.07899 14.1317 15.027
462 1 -1.1104 1.03227 19.8017 14.9141
468 1 -1.1104 1.07393 16.9539 17.9552
470 2 2.2208 5.31192 15.5563 19.1923
471 2 2.2208 5.3121 21.0343 19.1909
472 1 -1.1104 0.984693 16.896 15.1064
476 1 -1.1104 3.80225 14.2376 17.7052
477 1 -1.1104 3.7773 19.6732 17.992
478 2 2.2208 2.45178 18.2403 19.2498
479 1 -1.1104 3.80098 14.0005 14.9466
481 1 -1.1104 3.80052 19.6738 15.0299
483 2 2.2208 2.3679 15.4909 16.3402
484 2 2.2208 2.39258 21.1135 16.491
485 1 -1.1104 3.84469 16.8629 17.7912
486 1 -1.1104 3.85172 16.8104 14.8566
466 1 -1.1104 6.50555 19.675 15.1203
474 1 -1.1104 6.64969 16.8754 14.989
458 1 -1.1104 6.59499 14.0572 17.7797
464 1 -1.1104 6.73112 14.0103 14.9607
480 1 -1.1104 4.00651 13.9262 20.3979
9006 2 2.2208 -0.290784 1.60721 16.5651
8800 2 2.2208 13.5668 15.4939 16.3793
469 1 -1.1104 6.6983 16.8745 17.8185
459 1 -1.1104 6.71212 19.6065 17.8501
491 2 2.2208 10.9295 18.358 16.3808
492 1 -1.1104 12.2798 14.0651 17.7899
493 1 -1.1104 12.26 19.6947 17.7412
494 1 -1.1104 12.1404 13.9832 14.8955
496 1 -1.1104 12.5238 19.6724 14.9948
498 1 -1.1104 12.3521 16.9655 17.8167
499 2 2.2208 10.9569 15.5282 19.227
500 2 2.2208 10.7937 21.1103 19.1369
501 1 -1.1104 12.3328 16.9283 15.1339
503 1 -1.1104 9.4735 13.8412 17.7023
504 1 -1.1104 9.56307 19.6825 17.7799
505 2 2.2208 8.14058 18.257 19.2933
506 1 -1.1104 9.41255 13.9484 15.1262
508 1 -1.1104 9.5293 19.8356 14.9927
510 2 2.2208 8.05548 15.3922 16.3993
511 2 2.2208 7.93868 21.1069 16.4411
512 1 -1.1104 9.52099 16.8503 17.9624
513 1 -1.1104 9.53552 16.8567 15.1148
8922 2 2.2208 13.6266 9.82799 21.9397
310 2 2.2208 10.8342 1.40834 27.619
8842 2 2.2208 -0.463541 15.5133 19.1194
517 2 2.2208 7.99511 18.3078 13.5844
343 1 -1.1104 3.78165 2.80267 20.7163
348 1 -1.1104 3.87565 0.161599 20.7077
322 1 -1.1104 0.876487 -2.64388 20.7984
519 2 2.2208 5.2631 1.48353 22.025
520 1 -1.1104 0.818641 -2.86001 23.5345
521 1 -1.1104 1.02726 2.85978 23.2801
524 1 -1.1104 1.16277 -2.76099 26.3349
525 1 -1.1104 0.937866 3.05804 26.088
528 1 -1.1104 0.984631 0.00930507 23.3783
530 2 2.2208 5.26653 -1.43314 24.8518
531 2 2.2208 5.07284 4.27326 24.9024
532 1 -1.1104 0.986238 0.0751174 26.1544
534 1 -1.1104 3.62763 -2.76182 23.3592
535 1 -1.1104 3.82591 3.03907 23.4536
536 2 2.2208 2.41075 1.56162 24.6669
537 1 -1.1104 3.98874 -2.82425 26.2127
538 1 -1.1104 3.68936 2.66234 26.2725
539 2 2.2208 2.39428 -1.33816 22.0133
540 2 2.2208 2.47011 4.30612 21.9696
541 1 -1.1104 3.76224 0.0806654 23.4066
542 1 -1.1104 3.85914 -0.0615313 26.2475
526 1 -1.1104 6.61082 -2.70002 26.4723
522 1 -1.1104 6.53381 -2.72702 23.4669
529 1 -1.1104 6.5709 0.0947003 23.4996
533 1 -1.1104 6.60157 0.00051695 26.3267
523 1 -1.1104 6.55993 2.90889 23.3116
527 1 -1.1104 6.50648 2.78541 26.2035
307 2 2.2208 2.52262 -1.26011 27.5352
365 1 -1.1104 12.2494 2.90003 20.5013
377 1 -1.1104 9.57873 2.91163 20.5109
363 1 -1.1104 12.184 -2.76694 20.539
9019 2 2.2208 13.6114 -1.34421 22.0964
611 1 -1.1104 9.48498 19.5023 26.2213
555 2 2.2208 10.797 1.44533 21.9432
556 1 -1.1104 12.3218 -2.80271 23.2648
557 1 -1.1104 12.1641 3.00247 23.4025
558 1 -1.1104 12.2169 -2.77391 26.1958
559 1 -1.1104 12.3617 2.76829 26.2209
560 1 -1.1104 12.1528 0.0856672 23.3428
561 2 2.2208 10.8097 -1.38778 24.9229
562 2 2.2208 10.8356 4.29744 24.8392
563 1 -1.1104 12.4649 -0.0449854 26.1796
564 1 -1.1104 9.41962 -2.90027 23.4967
565 1 -1.1104 9.30472 2.69384 23.4241
566 2 2.2208 7.96908 1.46067 24.8139
567 1 -1.1104 9.4199 -2.78423 26.3314
568 1 -1.1104 9.51689 2.88949 26.224
569 2 2.2208 7.92141 -1.47688 22.0637
570 2 2.2208 8.12265 4.26895 22.0021
571 1 -1.1104 9.28469 0.0438559 23.3865
572 1 -1.1104 9.47602 -0.0407821 26.2769
387 1 -1.1104 12.3031 19.8091 23.3361
9005 2 2.2208 13.524 21.2134 21.963
8656 2 2.2208 13.6048 4.33154 16.2762
412 1 -1.1104 6.775 11.1115 20.6438
399 1 -1.1104 6.67154 8.37118 20.4989
397 1 -1.1104 0.895848 8.66279 20.6705
422 1 -1.1104 3.8165 5.56958 20.4291
424 1 -1.1104 3.95785 11.2882 20.6413
408 1 -1.1104 1.08091 11.3321 20.5385
406 1 -1.1104 1.09255 5.72797 20.5273
417 1 -1.1104 3.82481 8.62545 20.5571
584 2 2.2208 5.30766 6.94837 21.9191
585 2 2.2208 5.25675 12.5988 22.0279
586 1 -1.1104 1.05186 8.4954 23.4668
588 1 -1.1104 1.11653 8.47033 26.4686
590 1 -1.1104 0.98865 5.76752 23.4555
591 1 -1.1104 1.13662 11.1313 23.321
594 2 2.2208 5.25773 9.7989 24.6279
595 1 -1.1104 1.14443 5.7404 26.1088
596 1 -1.1104 1.05643 11.3745 26.1671
599 1 -1.1104 3.8469 8.47561 23.3617
600 2 2.2208 2.41021 7.1265 24.8084
601 2 2.2208 2.41592 12.7626 24.7916
602 1 -1.1104 3.9027 8.46248 26.1286
603 2 2.2208 2.4001 9.93853 21.9246
604 1 -1.1104 3.84808 5.79572 23.4033
605 1 -1.1104 3.84875 11.2895 23.3807
606 1 -1.1104 3.8231 5.57294 26.1294
607 1 -1.1104 3.83953 11.3726 26.1147
598 1 -1.1104 6.62361 11.2143 26.1363
593 1 -1.1104 6.62422 11.1474 23.3591
592 1 -1.1104 6.59363 5.44145 23.4054
410 1 -1.1104 6.64274 5.58447 20.5792
589 1 -1.1104 6.63444 8.38704 26.1877
553 2 2.2208 10.9215 21.1062 24.7473
444 1 -1.1104 9.51952 8.43982 20.5288
8869 2 2.2208 13.7154 7.10058 24.8827
306 2 2.2208 5.22178 1.56422 27.6149
597 1 -1.1104 6.62158 5.46611 26.2702
439 1 -1.1104 12.1397 11.2035 20.744
432 1 -1.1104 12.1807 8.5291 20.66
451 1 -1.1104 9.41002 11.2738 20.513
449 1 -1.1104 9.37631 5.59535 20.6045
587 1 -1.1104 6.57635 8.38961 23.225
615 1 -1.1104 9.45484 11.1726 26.1928
616 1 -1.1104 9.62935 5.63864 26.2312
617 1 -1.1104 9.52958 11.2724 23.3695
618 1 -1.1104 9.39087 5.63778 23.3826
619 2 2.2208 8.21849 9.80099 21.9417
620 1 -1.1104 9.35646 8.42048 26.1694
621 2 2.2208 7.96733 12.6283 24.688
622 2 2.2208 8.00299 6.97618 24.8663
623 2 2.2208 10.8086 7.06082 22.0218
624 2 2.2208 10.8457 12.7578 22.0934
625 1 -1.1104 12.1721 8.51178 23.3067
626 1 -1.1104 12.1951 8.36758 26.162
627 1 -1.1104 12.322 5.81676 23.4741
628 1 -1.1104 12.24 11.282 23.561
629 2 2.2208 10.8047 9.85094 24.8376
630 1 -1.1104 12.251 5.61857 26.2935
631 1 -1.1104 12.2014 11.3408 26.3234
632 1 -1.1104 9.24113 8.37932 23.4567
9020 2 2.2208 13.6968 1.3716 24.778
314 2 2.2208 7.94398 9.83304 27.591
463 1 -1.1104 1.1028 19.594 20.6045
482 1 -1.1104 3.89028 19.509 20.7654
467 1 -1.1104 6.71574 19.605 20.5442
461 1 -1.1104 1.03599 14.0082 20.5391
640 1 -1.1104 6.57253 13.9994 26.0817
487 1 -1.1104 4.03158 16.7139 20.6526
473 1 -1.1104 1.10019 16.7737 20.7153
543 2 2.2208 2.43652 21.0518 21.941
544 1 -1.1104 4.00178 16.799 23.3676
545 1 -1.1104 1.20204 16.7217 23.6044
552 2 2.2208 2.618 15.3881 21.9852
573 1 -1.1104 3.73144 14.1972 26.2687
574 1 -1.1104 3.77139 17.0216 26.076
608 2 2.2208 2.45807 18.2902 24.7499
633 1 -1.1104 3.75336 19.74 26.3515
634 2 2.2208 5.32319 18.2711 22.1028
635 1 -1.1104 0.983117 13.9976 23.2416
639 1 -1.1104 3.7799 19.7058 23.5517
641 1 -1.1104 3.90903 14.0488 23.3565
643 1 -1.1104 0.946698 19.8165 26.2954
644 1 -1.1104 0.948429 16.9223 26.3372
645 1 -1.1104 0.942489 13.991 26.0337
647 2 2.2208 5.12659 21.1421 24.821
648 2 2.2208 5.29934 15.4201 24.7316
650 1 -1.1104 0.920063 19.6487 23.2488
465 1 -1.1104 6.77648 14.0875 20.515
649 1 -1.1104 6.63191 14.0269 23.2731
475 1 -1.1104 6.76313 16.818 20.7006
514 1 -1.1104 9.57514 16.9508 20.4789
518 1 -1.1104 12.2669 19.8147 26.0945
9001 2 2.2208 13.7053 15.474 22.0914
354 2 2.2208 11.0058 18.3582 21.9159
554 1 -1.1104 12.2584 16.9687 26.1605
614 1 -1.1104 9.38694 17.0301 23.086
612 2 2.2208 8.21625 15.3775 21.9397
383 1 -1.1104 12.3011 14.0248 23.4136
509 1 -1.1104 9.64106 19.7986 20.647
495 1 -1.1104 12.2061 14.1274 20.7
497 1 -1.1104 12.2687 19.7434 20.5041
548 1 -1.1104 6.69626 16.7828 23.3322
388 1 -1.1104 12.312 14.123 26.1408
507 1 -1.1104 9.48314 14.0997 20.5617
546 1 -1.1104 12.2851 16.9216 23.3535
576 1 -1.1104 9.45048 14.0512 23.3316
613 2 2.2208 8.06841 21.1516 21.9637
636 1 -1.1104 9.50052 16.7175 25.9785
642 1 -1.1104 6.67991 16.8203 26.1613
580 1 -1.1104 9.50759 19.7792 23.4183
646 1 -1.1104 6.61597 19.7687 23.2615
581 2 2.2208 8.11695 18.3148 24.7083
582 1 -1.1104 6.71928 19.5953 26.0479
547 2 2.2208 10.9103 15.4924 24.7777
583 1 -1.1104 9.34256 13.9815 26.2528
502 1 -1.1104 12.3535 16.9803 20.593
308 2 2.2208 2.40752 4.21534 27.6122
9011 2 2.2208 13.5651 -4.05857 13.5968
609 2 2.2208 2.51159 9.87772 27.5869
312 2 2.2208 5.15647 7.05061 27.6388
315 2 2.2208 10.8899 12.6363 27.522
9018 2 2.2208 13.7627 -1.38334 27.6209
575 2 2.2208 7.95299 4.27336 27.6609
389 2 2.2208 8.02242 1.56727 13.6808
349 2 2.2208 8.01073 15.4517 27.6243
516 2 2.2208 10.7993 15.527 13.6944
453 2 2.2208 10.8176 9.813 13.5159
426 2 2.2208 5.20421 9.88399 13.6024
452 2 2.2208 7.97067 6.88762 13.565
651 2 2.2208 5.32723 23.9052 5.20377
652 2 2.2208 5.17983 29.4521 5.17088
653 1 -1.1104 0.947382 25.234 0.908312
654 1 -1.1104 1.04614 25.4193 3.70521
655 1 -1.1104 1.00303 22.4778 0.900085
656 1 -1.1104 0.977611 28.0908 0.824515
657 2 2.2208 5.23162 26.6546 2.38649
658 1 -1.1104 0.997435 22.6388 3.63905
659 1 -1.1104 1.11753 28.2669 3.61964
660 1 -1.1104 3.73412 25.3045 0.951034
661 2 2.2208 2.45795 23.8258 2.33841
662 2 2.2208 2.37752 29.5054 2.17963
663 1 -1.1104 3.94176 25.2043 3.68146
664 2 2.2208 2.43787 26.6699 5.1457
665 1 -1.1104 3.76313 22.4456 0.899007
666 1 -1.1104 3.86355 28.1168 0.91968
667 1 -1.1104 3.75127 22.3418 3.58592
668 1 -1.1104 4.09179 27.9757 3.65176
674 1 -1.1104 6.67288 22.3869 1.00248
9215 2 2.2208 -0.174694 29.5586 10.7291
794 1 -1.1104 1.00245 22.346 6.56187
9216 2 2.2208 -0.381934 26.716 7.85434
675 1 -1.1104 6.6094 28.1819 1.07555
677 1 -1.1104 6.74082 28.0249 3.86822
676 1 -1.1104 6.75421 22.4259 3.76302
673 1 -1.1104 6.59324 25.2266 3.77472
672 1 -1.1104 6.61199 25.299 0.889103
9344 2 2.2208 13.6636 29.4912 2.23964
744 1 -1.1104 12.2775 42.0733 6.71655
678 2 2.2208 10.8209 23.9625 5.04746
679 2 2.2208 10.8976 29.5376 5.16033
680 1 -1.1104 12.2103 25.1374 0.859334
681 1 -1.1104 12.1594 25.336 3.63998
682 1 -1.1104 12.2461 22.4614 0.86376
683 1 -1.1104 12.2065 27.9675 0.982706
684 2 2.2208 10.733 26.6378 2.29298
685 1 -1.1104 12.209 22.4665 3.77277
686 1 -1.1104 12.2099 28.1515 3.85686
687 1 -1.1104 9.45818 25.1744 1.02858
688 2 2.2208 7.94381 23.8375 2.30979
689 2 2.2208 8.05204 29.4642 2.45942
690 1 -1.1104 9.33244 25.1849 3.6858
691 2 2.2208 7.97266 26.5533 5.17409
692 1 -1.1104 9.47846 22.3396 0.803903
693 1 -1.1104 9.46965 28.1277 0.920447
694 1 -1.1104 9.48008 22.47 3.54949
695 1 -1.1104 9.49067 27.8819 3.79649
829 1 -1.1104 9.40324 22.6076 6.52608
796 1 -1.1104 6.67189 22.4052 6.64127
830 1 -1.1104 9.43975 27.9945 6.55413
9376 2 2.2208 13.6559 26.5979 -0.539486
953 2 2.2208 10.8279 23.8287 -0.467186
9279 2 2.2208 -0.388893 35.1103 10.725
955 2 2.2208 10.7186 29.5323 -0.443508
828 1 -1.1104 9.5034 25.3768 6.50647
9345 2 2.2208 13.7216 26.7726 5.21211
699 2 2.2208 5.23454 35.1143 5.26485
700 1 -1.1104 1.08513 30.8285 0.770634
701 1 -1.1104 1.05232 36.2766 0.881138
703 1 -1.1104 1.02895 30.8525 3.56841
704 1 -1.1104 0.944394 36.4509 3.67968
706 1 -1.1104 1.10655 33.5576 0.76328
707 2 2.2208 5.22957 32.3196 2.3899
708 2 2.2208 5.1556 37.843 2.27625
709 1 -1.1104 0.954889 33.6927 3.6755
711 1 -1.1104 3.8779 30.8858 0.911798
712 1 -1.1104 3.76364 36.6199 0.651877
713 2 2.2208 2.39016 34.9839 2.21435
714 1 -1.1104 3.74911 30.8202 3.63892
715 1 -1.1104 3.61881 36.4193 3.55823
716 2 2.2208 2.29614 32.1641 5.04035
717 2 2.2208 2.45602 37.8536 4.98721
718 1 -1.1104 3.83072 33.6864 0.9469
719 1 -1.1104 3.88797 33.7643 3.82547
856 1 -1.1104 3.73226 36.5103 6.51228
710 1 -1.1104 6.60441 33.5844 3.77393
917 1 -1.1104 6.5908 44.7775 12.3092
790 1 -1.1104 12.1964 39.2529 9.47577
702 1 -1.1104 6.74086 36.4943 0.93088
854 1 -1.1104 6.7748 33.7071 6.462
851 1 -1.1104 6.66415 30.8341 6.76435
855 1 -1.1104 3.73388 30.8895 6.63049
853 1 -1.1104 1.03058 33.722 6.52933
724 1 -1.1104 6.54379 30.8792 3.75991
852 1 -1.1104 6.4749 36.5022 6.5129
725 1 -1.1104 6.59966 33.7956 0.933848
705 1 -1.1104 6.45262 36.423 3.58643
723 1 -1.1104 6.53696 30.982 0.93893
726 2 2.2208 10.7958 35.0834 5.11322
727 1 -1.1104 12.2116 30.911 1.09896
728 1 -1.1104 12.2704 36.493 0.853064
729 1 -1.1104 12.2095 30.9187 3.7659
730 1 -1.1104 12.3372 36.6258 3.75143
731 1 -1.1104 12.2213 33.6408 1.06961