LAMMPS (29 Oct 2020)
OMP_NUM_THREADS environment is not set. Defaulting to 1 thread. (../comm.cpp:94)
  using 1 OpenMP thread(s) per MPI task
#---------------------------------------
#
# This script is used to calculate the thermal conuctivity of UO2 using Muller-Plathe method
# By Ziqiang Wang on 03/18/2022 on Jilin university
#
#---------------------------------------

variable     Nevery    equal   50
variable     T         equal   1500

clear
OMP_NUM_THREADS environment is not set. Defaulting to 1 thread. (../comm.cpp:94)
  using 1 OpenMP thread(s) per MPI task
units          metal
boundary       p p p
atom_style     full

read_data antisite_0.01_relaxed.dat
Reading data file ...
  orthogonal box = (-0.53158807 -6.3566461 -0.54220807) to (27.871588 334.43665 27.882208)
  2 by 13 by 2 MPI processor grid
  reading atoms ...
  18000 atoms
  reading velocities ...
  18000 velocities
Finding 1-2 1-3 1-4 neighbors ...
  special bond factors lj:    0.0      0.0      0.0     
  special bond factors coul:  0.0      0.0      0.0     
     0 = max # of 1-2 neighbors
     0 = max # of 1-3 neighbors
     0 = max # of 1-4 neighbors
     1 = max # of special neighbors
  special bonds CPU = 0.004 seconds
  read_data CPU = 0.067 seconds

set           type     1    charge     -1.1104
Setting atom values ...
  12000 settings made for charge
set           type     2    charge      2.2208
Setting atom values ...
  6000 settings made for charge

kspace_style    pppm   1.0e-05
pair_style      hybrid/overlay  coul/long  11.0  eam/alloy
pair_coeff      * * coul/long
pair_coeff      * * eam/alloy CeThUNpPuAmCmO.eam.alloy O Th
newton          on
neighbor        0.3 bin
neigh_modify    delay 0 check yes every 1

#The first equilation
velocity        all create $T 10001 mom yes rot yes dist gaussian
velocity        all create 1500 10001 mom yes rot yes dist gaussian
fix             nvt  all  nvt  temp  $T $T  0.1
fix             nvt  all  nvt  temp  1500 $T  0.1
fix             nvt  all  nvt  temp  1500 1500  0.1

run             100000
PPPM initialization ...
  using 12-bit tables for long-range coulomb (../kspace.cpp:328)
  G vector (1/distance) = 0.29814859
  grid = 40 240 40
  stencil order = 5
  estimated absolute RMS force accuracy = 0.00016334751
  estimated relative force accuracy = 1.1343857e-05
  using single precision MKL FFT
  3d grid and FFT values/proc = 15000 7600
Neighbor list info ...
  update every 1 steps, delay 0 steps, check yes
  max neighbors/atom: 2000, page size: 100000
  master list distance cutoff = 11.3
  ghost atom cutoff = 11.3
  binsize = 5.65, bins = 6 61 6
  2 neighbor lists, perpetual/occasional/extra = 2 0 0
  (1) pair coul/long, perpetual
      attributes: half, newton on
      pair build: half/bin/newton
      stencil: half/bin/3d/newton
      bin: standard
  (2) pair eam/alloy, perpetual, copy from (1)
      attributes: half, newton on
      pair build: copy
      stencil: none
      bin: none
Per MPI rank memory allocation (min/avg/max) = 8.147 | 8.169 | 8.181 Mbytes
Step Temp E_pair E_mol TotEng Press 
       0         1500    -232280.6            0   -228790.77     1220.399 
  100000    1502.6986   -232285.92            0   -228789.81     1289.903 
Loop time of 688.499 on 52 procs for 100000 steps with 18000 atoms

Performance: 12.549 ns/day, 1.912 hours/ns, 145.244 timesteps/s
99.8% CPU use with 52 MPI tasks x 1 OpenMP threads

MPI task timing breakdown:
Section |  min time  |  avg time  |  max time  |%varavg| %total
---------------------------------------------------------------
Pair    | 449.5      | 462.32     | 475.15     |  31.9 | 67.15
Bond    | 0.0062501  | 0.0098812  | 0.014825   |   1.9 |  0.00
Kspace  | 136.54     | 154.37     | 170.05     |  65.4 | 22.42
Neigh   | 44.403     | 47.083     | 51.558     |  22.9 |  6.84
Comm    | 18.815     | 20.278     | 22.143     |  18.1 |  2.95
Output  | 6.3755e-05 | 6.9774e-05 | 0.00027671 |   0.0 |  0.00
Modify  | 2.2427     | 2.8825     | 4.8553     |  48.9 |  0.42
Other   |            | 1.562      |            |       |  0.23

Nlocal:        346.154 ave         371 max         332 min
Histogram: 7 6 11 9 6 4 3 4 1 1
Nghost:        3957.62 ave        4077 max        3888 min
Histogram: 4 11 8 11 3 4 4 5 0 2
Neighs:        69299.8 ave       77039 max       64256 min
Histogram: 8 9 5 7 3 5 6 4 4 1

Total # of neighbors = 3603589
Ave neighs/atom = 200.19939
Ave special neighs/atom = 0.0000000
Neighbor list builds = 24997
Dangerous builds = 0
unfix           nvt
reset_timestep  0

# the second run
fix             1 all nve

group           oxygen type 1
12000 atoms in group oxygen
fix             2 oxygen thermal/conductivity ${Nevery} y 20
fix             2 oxygen thermal/conductivity 50 y 20

compute         ke all ke/atom
variable        temp atom c_ke/1.5
compute         layers all chunk/atom bin/1d y lower 0.05 units reduced
fix             3      all ave/chunk  2000 50 100000 layers v_temp file profile_${T}K.mp
fix             3      all ave/chunk  2000 50 100000 layers v_temp file profile_1500K.mp

variable        Tdiff    equal     f_3[11][3]-f_3[1][3]
variable        deltaT   equal     v_Tdiff*1.5/0.0001292

timestep        0.001
thermo_style    custom step f_2 temp v_Tdiff v_deltaT
thermo          100000

run             1000000
PPPM initialization ...
  using 12-bit tables for long-range coulomb (../kspace.cpp:328)
  G vector (1/distance) = 0.29814859
  grid = 40 240 40
  stencil order = 5
  estimated absolute RMS force accuracy = 0.00016334751
  estimated relative force accuracy = 1.1343857e-05
  using single precision MKL FFT
  3d grid and FFT values/proc = 15000 7600
Per MPI rank memory allocation (min/avg/max) = 8.398 | 8.419 | 8.432 Mbytes
Step f_2 Temp v_Tdiff v_deltaT 
       0            0    1502.6986            0            0 
  100000     1550.775    1505.3166  0.071314375    827.95327 
  200000    2971.1512    1498.0857  0.091394262    1061.0789 
  300000    4392.2362    1516.4388   0.08954806    1039.6447 
  400000    5796.8369    1502.4918  0.093551549    1086.1248 
  500000    7213.6859    1503.0603  0.091748134    1065.1873 
  600000    8618.2194    1501.1883  0.092444718    1073.2746 
  700000    10030.712    1504.1587  0.093136173    1081.3023 
  800000    11434.091    1492.4168  0.092451766    1073.3564 
  900000    12851.635    1508.1068  0.093385036    1084.1916 
 1000000    14268.671    1516.0855  0.091826282    1066.0946 
Loop time of 6834.75 on 52 procs for 1000000 steps with 18000 atoms

Performance: 12.641 ns/day, 1.899 hours/ns, 146.311 timesteps/s
99.8% CPU use with 52 MPI tasks x 1 OpenMP threads

MPI task timing breakdown:
Section |  min time  |  avg time  |  max time  |%varavg| %total
---------------------------------------------------------------
Pair    | 4398.9     | 4566.3     | 4730.5     | 105.0 | 66.81
Bond    | 0.070352   | 0.09784    | 0.14606    |   4.5 |  0.00
Kspace  | 1369.8     | 1551       | 1725.8     | 199.6 | 22.69
Neigh   | 443.8      | 477.35     | 507.5      |  62.3 |  6.98
Comm    | 185.6      | 202.67     | 229.33     |  70.0 |  2.97
Output  | 0.0011225  | 0.0011899  | 0.0026451  |   0.6 |  0.00
Modify  | 5.6846     | 6.2685     | 7.0592     |  12.6 |  0.09
Other   |            | 31.04      |            |       |  0.45

Nlocal:        346.154 ave         365 max         326 min
Histogram: 1 4 4 7 8 10 8 5 3 2
Nghost:        3942.54 ave        4077 max        3861 min
Histogram: 3 5 16 10 7 3 4 0 2 2
Neighs:        69269.8 ave       75095 max       62744 min
Histogram: 2 6 1 9 8 4 5 5 9 3

Total # of neighbors = 3602029
Ave neighs/atom = 200.11272
Ave special neighs/atom = 0.0000000
Neighbor list builds = 254410
Dangerous builds = 0

Total wall time: 2:05:23
