LAMMPS (29 Oct 2020)
OMP_NUM_THREADS environment is not set. Defaulting to 1 thread. (../comm.cpp:94)
  using 1 OpenMP thread(s) per MPI task
OMP_NUM_THREADS environment is not set. Defaulting to 1 thread. (../comm.cpp:94)
  using 1 OpenMP thread(s) per MPI task
Reading data file ...
  triclinic box = (-0.086605527 -0.96941324 -0.079227706) to (27.980606 335.69741 27.973228) with tilt (0.0000000 0.0000000 0.0000000)
  2 by 13 by 2 MPI processor grid
  reading atoms ...
  18000 atoms
  reading velocities ...
  18000 velocities
Finding 1-2 1-3 1-4 neighbors ...
  special bond factors lj:    0.0      0.0      0.0     
  special bond factors coul:  0.0      0.0      0.0     
     0 = max # of 1-2 neighbors
     0 = max # of 1-3 neighbors
     0 = max # of 1-4 neighbors
     1 = max # of special neighbors
  special bonds CPU = 0.004 seconds
  read_data CPU = 0.065 seconds
Setting atom values ...
  11820 settings made for charge
Setting atom values ...
  6000 settings made for charge
Setting atom values ...
  180 settings made for charge
Setting atom values ...
  0 settings made for charge
PPPM initialization ...
  using 12-bit tables for long-range coulomb (../kspace.cpp:328)
  G vector (1/distance) = 0.29884457
  grid = 40 240 40
  stencil order = 5
  estimated absolute RMS force accuracy = 0.00015763534
  estimated relative force accuracy = 1.0947168e-05
  using single precision MKL FFT
  3d grid and FFT values/proc = 15000 7600
Neighbor list info ...
  update every 1 steps, delay 0 steps, check yes
  max neighbors/atom: 2000, page size: 100000
  master list distance cutoff = 11.3
  ghost atom cutoff = 11.3
  binsize = 5.65, bins = 5 60 5
  2 neighbor lists, perpetual/occasional/extra = 2 0 0
  (1) pair coul/long, perpetual
      attributes: half, newton on
      pair build: half/bin/newton/tri
      stencil: half/bin/3d/newton/tri
      bin: standard
  (2) pair eam/alloy, perpetual, copy from (1)
      attributes: half, newton on
      pair build: copy
      stencil: none
      bin: none
Setting up Verlet run ...
  Unit style    : metal
  Current step  : 0
  Time step     : 0.001
Per MPI rank memory allocation (min/avg/max) = 8.324 | 8.354 | 8.372 Mbytes
Step Temp E_pair E_mol TotEng Press 
       0          600   -235444.57            0   -234048.64   -456.66968 
  100000    602.92342   -235437.44            0   -234034.71   -413.59335 
Loop time of 696.699 on 52 procs for 100000 steps with 18000 atoms

Performance: 12.401 ns/day, 1.935 hours/ns, 143.534 timesteps/s
99.8% CPU use with 52 MPI tasks x 1 OpenMP threads

MPI task timing breakdown:
Section |  min time  |  avg time  |  max time  |%varavg| %total
---------------------------------------------------------------
Pair    | 452.83     | 465.33     | 477.71     |  28.7 | 66.79
Bond    | 0.0068608  | 0.010585   | 0.015191   |   1.9 |  0.00
Kspace  | 143.17     | 157.89     | 172.62     |  57.6 | 22.66
Neigh   | 46.799     | 49.197     | 53.202     |  23.3 |  7.06
Comm    | 17.881     | 19.751     | 22.787     |  26.4 |  2.83
Output  | 5.2506e-05 | 5.7633e-05 | 0.00025689 |   0.0 |  0.00
Modify  | 1.9471     | 3.0246     | 5.0786     |  62.4 |  0.43
Other   |            | 1.489      |            |       |  0.21

Nlocal:        346.154 ave         365 max         330 min
Histogram: 4 4 13 4 9 2 2 2 5 7
Nghost:        4153.87 ave        4266 max        4063 min
Histogram: 7 4 8 7 2 9 5 2 3 5
Neighs:        69935.5 ave       73629 max       66538 min
Histogram: 4 6 5 10 8 3 2 2 4 8

Total # of neighbors = 3636645
Ave neighs/atom = 202.03583
Ave special neighs/atom = 0.0000000
Neighbor list builds = 16226
Dangerous builds = 0
11820 atoms in group oxygen
PPPM initialization ...
  using 12-bit tables for long-range coulomb (../kspace.cpp:328)
  G vector (1/distance) = 0.29884457
  grid = 40 240 40
  stencil order = 5
  estimated absolute RMS force accuracy = 0.00015763534
  estimated relative force accuracy = 1.0947168e-05
  using single precision MKL FFT
  3d grid and FFT values/proc = 15000 7600
Setting up Verlet run ...
  Unit style    : metal
  Current step  : 0
  Time step     : 0.001
Per MPI rank memory allocation (min/avg/max) = 8.574 | 8.605 | 8.624 Mbytes
Step f_2 Temp v_Tdiff v_deltaT 
       0            0    602.92342            0            0 
  100000     709.8813    604.37343  0.016887458    196.06181 
  200000    1411.8331    602.41307  0.018092624    210.05369 
  300000    2111.9562    607.50202  0.017526181    203.47734 
  400000    2818.7832    604.06781  0.018074194    209.83971 
  500000     3524.373    604.02741  0.017792831    206.57311 
  600000    4232.7587    607.76388   0.01697909    197.12566 
  700000    4937.5338    608.85478  0.017433287    202.39885 
  800000    5649.3899    607.32251  0.017699756    205.49253 
  900000    6355.7969    612.87885  0.018245146    211.82446 
 1000000     7072.347    611.89901   0.01739633    201.96978 
Loop time of 6973.39 on 52 procs for 1000000 steps with 18000 atoms

Performance: 12.390 ns/day, 1.937 hours/ns, 143.402 timesteps/s
99.8% CPU use with 52 MPI tasks x 1 OpenMP threads

MPI task timing breakdown:
Section |  min time  |  avg time  |  max time  |%varavg| %total
---------------------------------------------------------------
Pair    | 4494.1     | 4622       | 4789.2     | 106.6 | 66.28
Bond    | 0.063952   | 0.10381    | 0.15927    |   6.5 |  0.00
Kspace  | 1432.7     | 1612.7     | 1750.3     | 190.1 | 23.13
Neigh   | 486.75     | 506.08     | 549        |  68.2 |  7.26
Comm    | 176.82     | 197.81     | 227.24     |  84.3 |  2.84
Output  | 0.0011996  | 0.0012588  | 0.0023663  |   0.4 |  0.00
Modify  | 5.7662     | 6.3923     | 7.3688     |  12.7 |  0.09
Other   |            | 28.23      |            |       |  0.40

Nlocal:        346.154 ave         365 max         332 min
Histogram: 4 5 10 9 3 6 8 1 4 2
Nghost:        4167.71 ave        4267 max        4066 min
Histogram: 4 8 3 0 3 12 11 6 1 4
Neighs:        69936.4 ave       74345 max       67235 min
Histogram: 7 8 8 7 7 6 3 4 0 2

Total # of neighbors = 3636693
Ave neighs/atom = 202.03850
Ave special neighs/atom = 0.0000000
Neighbor list builds = 166181
Dangerous builds = 0
Total wall time: 2:07:50
