ITEM: TIMESTEP
40000
ITEM: NUMBER OF ATOMS
22500
ITEM: BOX BOUNDS pp pp pp
-4.7606191177265456e-01 2.7816061911772497e+01
-7.2627022294270827e+00 4.1736270222942818e+02
-4.9281880131553418e-01 2.7832818801314595e+01
ITEM: ATOMS id type q x y z
2 2 2.2208 5.0584 -1.45216 5.65474
3 1 -1.1104 0.787659 -5.68168 1.33171
5 1 -1.1104 0.805598 -0.0465161 1.15091
10 1 -1.1104 0.824808 -5.95014 4.08589
11 1 -1.1104 0.645066 -0.260388 4.3594
13 1 -1.1104 0.621467 -2.92476 1.2486
18 2 2.2208 4.93086 -4.35403 2.82657
19 1 -1.1104 0.666378 -3.05392 4.14874
21 1 -1.1104 3.40707 -5.70348 1.74658
23 1 -1.1104 3.67115 -0.335655 1.11795
25 2 2.2208 1.99175 -1.55527 2.75857
26 1 -1.1104 3.57143 -5.83494 4.44005
27 1 -1.1104 3.54059 0.0185931 4.01994
28 2 2.2208 2.13818 -4.32181 5.81777
29 1 -1.1104 3.71662 -3.00933 1.49589
31 1 -1.1104 3.57 -3.04913 4.35938
8 1 -1.1104 6.3933 -0.0247575 1.5543
41 1 -1.1104 6.34791 -5.84899 4.1951
15 1 -1.1104 6.51817 -3.0178 1.35548
20 1 -1.1104 6.47033 -2.96048 4.1684
12 1 -1.1104 6.21028 -0.0445972 4.45374
7 1 -1.1104 6.32456 -5.63148 1.33595
808 2 2.2208 5.1918 -1.63305 0.0321283
809 2 2.2208 1.90226 -4.20556 -0.280206
807 2 2.2208 27.3293 -1.4422 -0.0880388
72 1 -1.1104 23.4396 8.48779 12.5087
21662 2 2.2208 10.4044 -7.07242 11.0276
21734 2 2.2208 19.0856 -6.89156 2.84546
42 2 2.2208 10.876 -1.44395 5.4032
43 1 -1.1104 11.6941 -5.83786 1.17661
45 1 -1.1104 12.1158 -0.0859942 1.3748
47 1 -1.1104 11.7413 -5.81252 3.85119
48 1 -1.1104 11.953 0.153374 4.06502
49 1 -1.1104 12.2741 -2.80191 1.1143
51 2 2.2208 10.6205 -4.19289 2.66796
52 1 -1.1104 12.0543 -2.7911 3.98543
53 1 -1.1104 8.96196 -5.9278 1.3112
55 1 -1.1104 9.15252 0.0560375 1.37553
57 2 2.2208 7.76669 -1.58361 2.53806
59 1 -1.1104 8.92513 -5.60705 4.03525
60 1 -1.1104 8.96762 -0.132067 4.11354
61 2 2.2208 7.7917 -4.1982 5.56155
63 1 -1.1104 8.98472 -3.12348 1.03228
65 1 -1.1104 9.31787 -2.8437 3.89469
62 2 2.2208 13.3969 -4.40857 5.36052
58 2 2.2208 13.6179 -1.53846 2.32289
812 2 2.2208 7.67455 -4.41604 -0.194816
813 2 2.2208 13.4521 -4.23221 -0.38995
811 2 2.2208 10.776 -1.54058 -0.18603
22460 2 2.2208 16.2651 -7.21675 -0.208933
73 2 2.2208 16.2052 -1.36737 5.3758
74 1 -1.1104 17.7149 -5.65177 1.31312
76 1 -1.1104 17.5913 -0.327875 1.48399
78 1 -1.1104 17.49 -5.66374 4.07969
79 1 -1.1104 17.5759 -0.0257547 4.15839
80 1 -1.1104 17.5727 -2.8954 1.23797
82 2 2.2208 16.2544 -4.40887 2.67816
83 1 -1.1104 17.7745 -2.91394 4.00244
84 1 -1.1104 14.6787 -5.86925 1.22978
86 1 -1.1104 14.8972 -0.0659871 0.939236
88 2 2.2208 19.0888 -1.74019 2.6797
89 1 -1.1104 14.7159 -5.6709 4.13091
90 1 -1.1104 14.8866 0.0187567 3.94482
91 2 2.2208 18.8817 -4.22931 5.71356
92 1 -1.1104 14.9879 -3.14419 1.09326
94 1 -1.1104 14.6835 -3.05117 4.11745
100 1 -1.1104 20.6415 -5.8758 1.44371
106 1 -1.1104 20.4603 -3.04171 1.08432
102 1 -1.1104 20.4466 -0.181106 1.45772
105 1 -1.1104 20.399 -0.0482248 4.28676
108 1 -1.1104 20.6757 -2.97572 4.04055
104 1 -1.1104 20.4676 -5.53806 4.35896
815 2 2.2208 18.8546 -4.2826 -0.182992
814 2 2.2208 16.326 -1.57124 -0.185541
320 1 -1.1104 26.0642 8.59634 12.3776
817 2 2.2208 24.8162 -4.23266 -0.0629335
1 2 2.2208 27.467 -1.39175 5.60103
17 2 2.2208 27.7026 -4.34193 2.69484
109 2 2.2208 21.8086 -1.71148 5.66285
110 1 -1.1104 23.2911 -5.78244 1.04455
112 1 -1.1104 23.292 0.155016 1.20769
114 1 -1.1104 23.3783 -5.9564 3.84208
115 1 -1.1104 23.4676 -0.143894 4.18954
116 1 -1.1104 23.3543 -2.70857 1.18601
118 2 2.2208 22.0511 -4.5252 2.716
119 1 -1.1104 23.3971 -3.11888 4.29626
120 1 -1.1104 26.1652 -5.76108 1.32666
122 1 -1.1104 26.4123 -0.1795 1.36939
124 2 2.2208 24.8649 -1.56059 2.76014
125 1 -1.1104 26.3243 -5.67443 4.04789
126 1 -1.1104 26.2631 -0.116159 4.11634
127 2 2.2208 24.8009 -4.52716 5.45951
128 1 -1.1104 26.029 -2.76404 1.30481
130 1 -1.1104 26.2097 -2.9837 4.24019
816 2 2.2208 21.7682 -1.57388 -0.125436
131 1 -1.1104 23.586 8.7112 9.71989
154 2 2.2208 4.94221 1.13012 2.65113
137 2 2.2208 5.03849 4.22688 5.49721
138 1 -1.1104 0.904314 5.48007 1.2504
142 1 -1.1104 0.812017 5.56933 4.07135
144 1 -1.1104 0.63703 2.82859 1.0795
146 1 -1.1104 0.687347 8.44879 1.1768
155 2 2.2208 4.94369 7.09599 2.78194
156 1 -1.1104 0.879774 2.61781 3.83578
157 1 -1.1104 1.03407 8.12094 3.97168
160 1 -1.1104 3.72003 5.49444 0.987346
162 2 2.2208 2.15645 4.23708 2.53135
163 1 -1.1104 3.5927 5.63745 3.94542
164 2 2.2208 2.15414 1.51128 5.34335
165 2 2.2208 2.13482 6.94006 5.51147
166 1 -1.1104 3.52788 2.4963 1.25936
168 1 -1.1104 3.60135 8.286 1.33899
170 1 -1.1104 3.46458 2.97318 4.10019
171 1 -1.1104 3.62527 8.41734 4.14688
143 1 -1.1104 6.26575 5.7633 3.96559
158 1 -1.1104 6.44262 2.6619 4.0985
140 1 -1.1104 6.54372 5.4948 1.03574
148 1 -1.1104 6.11352 2.72411 1.35369
150 1 -1.1104 6.57522 8.22109 1.1298
821 2 2.2208 2.25833 6.85395 -0.292362
819 2 2.2208 5.07467 4.13814 -0.19317
820 2 2.2208 2.25606 1.1406 -0.0458822
159 1 -1.1104 6.60904 8.17195 4.05991
193 2 2.2208 7.88154 1.30851 5.64159
822 2 2.2208 7.94669 1.57978 0.0134361
176 2 2.2208 10.7317 4.09161 5.42317
177 1 -1.1104 12.147 5.53158 1.36874
179 1 -1.1104 11.957 5.5772 4.12079
180 1 -1.1104 12.1169 2.75189 1.28092
182 1 -1.1104 12.2746 8.16232 1.26938
184 2 2.2208 10.5329 1.43179 2.67813
185 2 2.2208 10.8148 7.0221 2.68578
186 1 -1.1104 12.1272 2.87077 4.23104
187 1 -1.1104 12.0925 8.32738 4.0973
188 1 -1.1104 9.26314 5.39622 1.27119
190 2 2.2208 7.76755 4.02355 2.64078
192 1 -1.1104 9.10478 5.39049 4.06503
194 2 2.2208 8.18057 6.8666 5.49143
196 1 -1.1104 9.23221 2.83617 1.27118
198 1 -1.1104 9.45469 8.16325 1.25609
200 1 -1.1104 9.18549 2.71198 4.20615
201 1 -1.1104 9.4137 8.47674 4.15687
191 2 2.2208 13.5201 4.11842 2.42399
195 2 2.2208 13.4603 1.19587 5.44943
205 2 2.2208 13.4952 7.01258 5.40864
831 2 2.2208 13.4672 1.47708 -0.328238
828 2 2.2208 10.6675 4.37505 -0.0902908
823 2 2.2208 7.79185 6.84511 -0.228138
833 2 2.2208 19.1862 7.0328 -0.161706
836 2 2.2208 24.8902 6.8524 -0.00605062
214 2 2.2208 16.2397 1.30568 2.48317
206 2 2.2208 16.159 4.14021 5.54901
207 1 -1.1104 17.6896 5.46434 1.11664
209 1 -1.1104 17.6254 5.58149 4.23168
210 1 -1.1104 17.8424 2.33134 1.18732
212 1 -1.1104 17.8383 8.45294 1.2339
215 2 2.2208 16.3712 7.0861 2.65255
216 1 -1.1104 17.7551 2.73285 4.10921
217 1 -1.1104 17.7213 8.29258 3.81063
218 1 -1.1104 14.897 5.58988 1.25547
220 2 2.2208 19.1855 4.20006 2.57315
221 1 -1.1104 14.6122 5.36128 4.20127
222 2 2.2208 19.0835 1.49349 5.53118
223 2 2.2208 19.3589 6.81988 5.33519
224 1 -1.1104 14.984 2.95739 1.07118
226 1 -1.1104 14.9438 8.33358 0.937918
228 1 -1.1104 14.9629 2.71187 3.81561
229 1 -1.1104 14.8258 8.5483 3.99851
242 1 -1.1104 20.6094 2.79125 3.92945
243 1 -1.1104 20.6557 8.28921 4.07419
240 1 -1.1104 20.5773 8.35148 1.09782
238 1 -1.1104 20.8249 2.6008 1.24471
237 1 -1.1104 20.5361 5.48746 3.9303
829 2 2.2208 16.254 4.20346 -0.334246
830 2 2.2208 19.2885 1.16901 -0.315886
236 1 -1.1104 20.5959 5.59713 6.8824
235 1 -1.1104 20.575 5.56918 1.01155
818 2 2.2208 27.7544 4.02031 -0.351074
21735 2 2.2208 10.6504 -7.00705 5.42294
136 2 2.2208 27.4942 4.082 5.49054
153 2 2.2208 -0.447641 6.86428 2.63532
152 2 2.2208 27.6067 1.20363 2.65749
244 2 2.2208 21.9781 3.87538 5.41995
245 1 -1.1104 23.5395 5.59097 1.30975
247 1 -1.1104 23.1703 5.27674 4.01654
248 1 -1.1104 23.3988 2.76951 1.18416
250 1 -1.1104 23.5671 8.43578 1.43991
252 2 2.2208 21.9042 1.22739 2.75075
253 2 2.2208 22.0879 6.92274 2.65291
254 1 -1.1104 23.4494 2.52469 3.97833
255 1 -1.1104 23.3837 8.20416 4.16784
256 1 -1.1104 26.5053 5.44723 1.10819
258 2 2.2208 24.723 3.93572 2.69247
259 1 -1.1104 26.1538 5.10576 4.02271
260 2 2.2208 24.9333 1.30672 5.44866
261 2 2.2208 24.681 6.78375 5.4724
262 1 -1.1104 26.1859 2.41041 1.27607
264 1 -1.1104 26.3116 7.97314 1.49873
266 1 -1.1104 26.2242 2.4759 4.13555
267 1 -1.1104 26.1391 8.61801 4.18914
835 2 2.2208 24.6665 1.23462 -0.0646377
834 2 2.2208 21.9709 3.93841 -0.337717
14 1 -1.1104 0.545438 -2.87847 7.05957
4 1 -1.1104 0.804026 -5.67751 7.07433
22 1 -1.1104 3.59981 -5.87053 7.32056
6 1 -1.1104 0.971412 -0.127484 6.89072
24 1 -1.1104 3.65114 -0.235078 6.8199
16 1 -1.1104 6.53285 -2.89971 7.12167
30 1 -1.1104 3.62602 -3.05067 7.17591
272 2 2.2208 5.14084 -1.50265 11.3563
273 1 -1.1104 1.00179 -5.59958 12.7717
274 1 -1.1104 0.847791 0.137501 12.5317
276 1 -1.1104 0.803905 -5.76439 9.85757
277 1 -1.1104 0.782114 -0.0192068 9.42639
279 1 -1.1104 0.466049 -2.79188 12.685
282 2 2.2208 4.95043 -4.24329 8.5457
283 1 -1.1104 0.796141 -2.65692 10.0599
285 1 -1.1104 3.60639 -5.75488 12.7993
286 1 -1.1104 3.56716 -0.129139 12.4718
287 2 2.2208 2.12763 -1.41505 8.39134
288 1 -1.1104 3.42531 -5.71919 10.058
289 1 -1.1104 3.6748 -0.214536 9.66425
290 2 2.2208 2.04958 -4.12793 11.2505
291 1 -1.1104 3.64112 -2.95776 12.6431
292 1 -1.1104 3.65347 -2.95071 9.83044
301 1 -1.1104 6.44225 -5.72307 10.006
284 1 -1.1104 6.30044 -3.01549 10.0848
280 1 -1.1104 6.48364 -2.7697 12.7672
40 1 -1.1104 6.45202 -5.47744 7.02715
9 1 -1.1104 6.34211 -0.143142 7.14943
300 1 -1.1104 6.46916 -5.45389 12.7984
278 1 -1.1104 6.4289 -0.205115 9.79719
275 1 -1.1104 6.46586 -0.112662 12.6994
21793 2 2.2208 5.04611 -7.01328 5.50531
271 2 2.2208 27.6815 -1.39251 11.0835
21699 2 2.2208 1.96671 -7.05706 8.56129
64 1 -1.1104 9.15298 -2.69406 6.74394
54 1 -1.1104 9.36925 -5.32017 6.82822
50 1 -1.1104 12.3099 -2.92987 6.98556
44 1 -1.1104 12.2524 -5.78333 6.88035
56 1 -1.1104 9.33383 0.0384116 6.74315
46 1 -1.1104 12.1372 0.052273 7.01225
302 2 2.2208 10.6256 -1.2368 10.9955
303 1 -1.1104 11.6876 -5.63344 12.4421
304 1 -1.1104 11.8518 0.292751 12.2458
305 1 -1.1104 12.2769 -5.5979 9.61305
306 1 -1.1104 12.1771 0.142719 9.51505
307 1 -1.1104 11.8559 -2.81394 12.7449
308 2 2.2208 10.6941 -4.08186 8.33923
309 1 -1.1104 12.1119 -2.67618 9.71708
310 1 -1.1104 9.11613 -5.64852 12.6817
311 1 -1.1104 9.09856 -0.19567 12.491
312 2 2.2208 7.78979 -1.39935 8.28934
314 1 -1.1104 9.24613 -5.67258 9.49579
315 1 -1.1104 9.25831 0.270278 9.65791
316 2 2.2208 7.82556 -4.21035 11.3873
318 1 -1.1104 9.17853 -2.81466 12.4999
319 1 -1.1104 8.91236 -2.6009 9.71065
313 2 2.2208 13.6459 -1.65506 8.41735
317 2 2.2208 13.3269 -4.29443 11.1072
21761 2 2.2208 13.4771 -7.14307 2.65898
21760 2 2.2208 7.77478 -7.15361 2.83171
77 1 -1.1104 17.6489 -0.14714 6.77975
81 1 -1.1104 17.6433 -2.68141 6.89133
75 1 -1.1104 17.7793 -5.86449 6.94735
103 1 -1.1104 20.5905 -0.096311 7.1549
101 1 -1.1104 20.3949 -5.60951 7.02805
87 1 -1.1104 14.7172 -0.0251058 6.81271
93 1 -1.1104 15.1502 -2.75576 7.03833
85 1 -1.1104 14.9497 -5.31223 6.95619
328 2 2.2208 16.3706 -1.25602 11.0278
329 1 -1.1104 17.7846 -5.76947 12.839
330 1 -1.1104 17.6002 -0.123176 12.5574
331 1 -1.1104 17.6742 -5.56938 9.93166
332 1 -1.1104 17.869 -0.0885304 9.65848
333 1 -1.1104 17.7129 -2.77176 12.5649
334 2 2.2208 16.3948 -4.22805 8.2519
335 1 -1.1104 17.7156 -2.90324 9.76857
336 1 -1.1104 14.5211 -5.54636 12.7675
337 1 -1.1104 14.6895 0.224869 12.4617
338 2 2.2208 19.2489 -1.44588 8.33376
339 1 -1.1104 14.8569 -5.68165 9.80734
340 1 -1.1104 15.1392 -0.0545933 9.49094
341 2 2.2208 19.2687 -4.23859 11.2728
342 1 -1.1104 14.8811 -2.87014 12.3769
343 1 -1.1104 14.8299 -2.92391 9.78597
351 1 -1.1104 20.336 -5.80591 9.77248
353 1 -1.1104 20.6621 -3.199 12.6268
349 1 -1.1104 20.5083 -5.89717 12.6483
352 1 -1.1104 20.5912 -0.130665 10.029
350 1 -1.1104 20.6292 -0.430402 12.5743
354 1 -1.1104 20.7021 -2.93213 9.63108
21664 2 2.2208 13.5044 -7.04152 8.38838
107 1 -1.1104 20.3621 -2.92504 6.91733
117 1 -1.1104 23.3426 -3.08194 6.93659
111 1 -1.1104 23.0564 -5.78972 6.73177
123 1 -1.1104 26.1408 -0.0737313 6.8588
121 1 -1.1104 26.2027 -5.62944 7.16146
129 1 -1.1104 26.0575 -2.8127 7.04127
281 2 2.2208 27.6317 -4.36243 8.40481
113 1 -1.1104 23.3012 -0.156332 6.82101
355 2 2.2208 21.8733 -1.73571 11.3047
356 1 -1.1104 23.5884 -5.68807 12.6382
357 1 -1.1104 23.367 -0.213119 12.5194
358 1 -1.1104 23.3257 -5.75553 9.84067
359 1 -1.1104 23.3765 -0.222356 9.70231
360 1 -1.1104 23.4378 -2.90386 12.6711
361 2 2.2208 21.8773 -4.36457 8.17069
362 1 -1.1104 23.3852 -2.96438 9.79911
363 1 -1.1104 26.3716 -5.72997 12.8038
364 1 -1.1104 26.2876 -0.063964 12.5782
365 2 2.2208 24.7158 -1.5432 8.33766
366 1 -1.1104 26.2637 -5.90123 9.81751
367 1 -1.1104 26.3916 -0.0558724 9.83682
368 2 2.2208 24.8894 -4.36576 11.27
369 1 -1.1104 26.0507 -2.69028 12.6845
370 1 -1.1104 26.2799 -2.75581 9.80437
21631 2 2.2208 24.7997 -7.17449 8.47473
21630 2 2.2208 22.0948 -7.10578 11.3865
141 1 -1.1104 6.70088 5.59392 6.85713
145 1 -1.1104 0.609254 2.68556 7.02497
147 1 -1.1104 0.876223 8.46874 6.617
151 1 -1.1104 6.533 8.28679 7.06279
167 1 -1.1104 3.66252 2.76271 6.69758
139 1 -1.1104 0.689031 5.57058 7.03938
169 1 -1.1104 3.60287 8.42302 7.054
161 1 -1.1104 3.52541 5.68132 6.94459
395 2 2.2208 2.20404 1.24736 11.0155
376 2 2.2208 5.19121 4.16162 10.899
377 1 -1.1104 0.604096 5.62076 12.4138
379 1 -1.1104 0.969302 5.54409 9.90698
381 1 -1.1104 0.68878 2.76202 12.2583
382 1 -1.1104 0.542215 8.50892 12.545
386 2 2.2208 4.76224 1.33236 8.31284
387 2 2.2208 5.04787 6.91829 8.08402
388 1 -1.1104 0.869412 2.82795 9.64491
389 1 -1.1104 0.933832 8.33828 9.59818
392 1 -1.1104 3.4974 5.75947 12.7614
393 2 2.2208 2.13207 4.29243 8.17497
394 1 -1.1104 3.60459 5.49885 9.71271
396 2 2.2208 2.21531 7.03247 11.1704
397 1 -1.1104 3.47775 2.78565 12.4935
398 1 -1.1104 3.59976 8.48971 12.6177
399 1 -1.1104 3.54141 2.55083 9.64814
400 1 -1.1104 3.67151 8.31717 9.89004
384 1 -1.1104 6.62879 8.17786 12.4598
380 1 -1.1104 6.3771 5.51844 9.60742
378 1 -1.1104 6.40273 5.66648 12.3322
391 1 -1.1104 6.38481 8.35108 9.64664
390 1 -1.1104 6.40045 2.69018 9.53545
383 1 -1.1104 6.40254 2.85732 12.3481
183 1 -1.1104 11.9731 8.75114 6.95021
189 1 -1.1104 9.41931 5.30969 6.81225
181 1 -1.1104 12.0119 2.99231 6.94068
149 1 -1.1104 6.38665 2.8252 6.8068
199 1 -1.1104 9.41176 8.36039 6.9548
197 1 -1.1104 9.27987 2.58042 6.94827
178 1 -1.1104 11.9761 5.9121 6.70573
203 1 -1.1104 9.26527 5.60398 9.53553
230 2 2.2208 8.01248 4.16463 8.06532
231 1 -1.1104 9.17257 5.59659 12.5451
232 1 -1.1104 12.1816 8.44481 9.88066
233 1 -1.1104 12.1928 2.96806 9.71626
234 2 2.2208 10.8763 7.17886 8.34919
268 2 2.2208 10.7699 1.50336 8.27302
269 1 -1.1104 12.2088 8.26206 12.464
270 1 -1.1104 12.0242 3.06487 12.5591
296 1 -1.1104 12.0061 5.7065 9.6099
297 1 -1.1104 12.2641 5.61536 12.4845
299 2 2.2208 10.6553 4.27301 11.1263
323 2 2.2208 7.81571 1.3319 11.1251
324 2 2.2208 7.94452 7.03825 10.8875
346 1 -1.1104 9.14093 2.71243 12.4521
348 1 -1.1104 9.40111 8.23778 12.5043
373 1 -1.1104 9.43213 2.9138 9.89839
374 1 -1.1104 9.395 8.33777 9.7127
204 2 2.2208 13.3081 4.31648 8.30119
32 2 2.2208 13.655 6.99131 11.0746
327 2 2.2208 13.4185 1.37347 10.9105
213 1 -1.1104 17.7541 8.39021 6.7186
219 1 -1.1104 14.9266 5.48416 6.93532
227 1 -1.1104 14.9187 8.10286 6.87249
211 1 -1.1104 17.8564 2.53303 7.00948
241 1 -1.1104 20.6012 8.18376 6.8689
326 1 -1.1104 20.7116 8.50037 12.3361
321 1 -1.1104 20.5552 5.49514 9.47004
225 1 -1.1104 15.1043 2.3608 6.33489
208 1 -1.1104 17.8327 5.47236 7.06609
97 2 2.2208 16.1815 1.35563 8.09578
33 2 2.2208 16.1393 4.14775 11.0365
34 1 -1.1104 17.7644 5.3621 12.615
35 1 -1.1104 14.7325 5.47234 9.6013
36 1 -1.1104 17.7208 5.56542 9.70599
37 2 2.2208 19.065 1.18831 11.2754
38 1 -1.1104 17.549 2.62166 12.6166
69 2 2.2208 19.1309 6.98334 10.8553
70 1 -1.1104 17.9742 8.2279 12.4053
71 1 -1.1104 15.0048 2.76973 12.1464
98 1 -1.1104 15.173 8.4014 12.576
133 2 2.2208 16.2193 6.92065 8.0965
134 1 -1.1104 17.6525 2.70011 9.94109
172 1 -1.1104 14.6892 2.78848 9.21072
173 1 -1.1104 17.4852 8.42509 9.47343
174 1 -1.1104 14.9115 8.31767 9.70483
175 1 -1.1104 15.0369 5.43298 12.4006
202 2 2.2208 19.1407 4.15956 8.44362
344 1 -1.1104 20.5244 2.8248 9.8048
325 1 -1.1104 20.6051 2.71922 12.4956
239 1 -1.1104 20.4927 2.6551 6.83615
345 1 -1.1104 20.622 8.45048 9.42869
135 2 2.2208 24.9403 4.12119 8.23193
322 1 -1.1104 26.1357 2.78116 9.76176
263 1 -1.1104 26.2628 2.7222 6.87284
347 1 -1.1104 20.5545 5.84005 12.2682
96 2 2.2208 21.9349 6.98211 8.24135
67 1 -1.1104 23.6161 5.84825 9.53073
293 1 -1.1104 26.5265 5.68444 9.67181
39 2 2.2208 27.8139 7.14779 8.30427
99 1 -1.1104 23.4068 2.89653 9.49509
371 2 2.2208 22.0785 4.29306 10.9821
257 1 -1.1104 26.2249 5.59978 6.94091
251 1 -1.1104 23.407 8.36802 6.8619
249 1 -1.1104 23.4514 2.82346 6.78948
68 1 -1.1104 23.3386 2.85238 12.3684
294 2 2.2208 24.6843 1.37504 10.9979
298 1 -1.1104 26.208 2.81425 12.6584
375 1 -1.1104 26.4177 8.43755 9.40241
132 1 -1.1104 26.3217 5.42992 12.7337
295 2 2.2208 24.8615 7.04523 11.052
372 1 -1.1104 23.2143 5.78987 12.2213
95 2 2.2208 22.1433 1.40349 8.31788
385 2 2.2208 27.6718 1.36574 8.35889
265 1 -1.1104 26.2741 8.15243 6.69089
246 1 -1.1104 23.1523 5.84235 6.86153
66 2 2.2208 27.6521 4.19651 11.1808
22457 2 2.2208 21.7636 -7.19742 -0.452376
21632 2 2.2208 16.2431 -6.98745 11.1979
21698 2 2.2208 4.99049 -7.10341 11.426
21697 2 2.2208 27.6307 -7.21671 11.3983
21663 2 2.2208 7.65499 -6.95684 8.31043
21661 2 2.2208 19.0239 -7.1717 8.35952
832 2 2.2208 13.5709 6.94191 -0.00350094
21732 2 2.2208 24.6845 -7.19549 2.45345
21733 2 2.2208 16.3131 -7.2043 5.80259
22467 2 2.2208 27.4862 -7.18764 -0.0994192
22468 2 2.2208 4.81393 -7.01797 0.031607
402 2 2.2208 4.99791 -1.34854 16.8148
403 1 -1.1104 0.469607 -5.8569 18.54
404 1 -1.1104 0.700683 0.148047 18.224
407 1 -1.1104 0.662643 -5.78806 15.6977
408 1 -1.1104 0.519404 0.0443869 15.4479
411 1 -1.1104 0.484941 -2.83979 18.2154
414 2 2.2208 5.07941 -4.16981 19.7718
415 1 -1.1104 0.708183 -2.93439 15.52
417 1 -1.1104 3.51648 -5.8134 18.3601
418 1 -1.1104 3.48633 -0.182755 18.2094
419 2 2.2208 2.07609 -1.44692 19.8073
420 1 -1.1104 3.50949 -5.79419 15.6082
421 1 -1.1104 3.90966 -0.184142 15.2716
422 2 2.2208 2.26376 -4.11513 16.8338
423 1 -1.1104 3.66301 -2.94897 18.4497
424 1 -1.1104 3.36876 -2.80656 15.3882
412 1 -1.1104 6.58146 -2.97889 18.4022
410 1 -1.1104 6.43678 0.0451074 15.4649
409 1 -1.1104 6.50748 -5.78812 15.423
416 1 -1.1104 6.29399 -2.91335 15.6357
406 1 -1.1104 6.48015 0.0183758 18.2931
838 2 2.2208 4.86251 -4.13999 14.0339
837 2 2.2208 1.9573 -1.43319 13.97
22422 2 2.2208 4.91793 -7.17786 17.1961
22428 2 2.2208 16.1607 -7.10249 16.7783
22425 2 2.2208 10.426 -7.19077 17.0232
405 1 -1.1104 6.42655 -5.71155 18.3134
840 2 2.2208 7.81177 -1.36606 13.9388
22442 2 2.2208 24.922 -7.27551 14.3307
428 2 2.2208 10.4487 -1.48846 16.8965
429 1 -1.1104 12.126 -5.89482 18.1472
430 1 -1.1104 11.7397 -0.00145989 18.1857
431 1 -1.1104 12.0011 -5.86467 15.5374
432 1 -1.1104 12.0162 -0.196029 15.2247
433 1 -1.1104 11.9273 -3.01448 18.173
434 2 2.2208 10.6627 -4.324 19.6101
435 1 -1.1104 11.7427 -3.11018 15.3613
436 1 -1.1104 9.13317 -5.75485 18.4531
437 1 -1.1104 9.23545 -0.0580458 18.2833
438 2 2.2208 7.73039 -1.40972 19.7981
440 1 -1.1104 9.24051 -5.76883 15.5774
441 1 -1.1104 9.32544 0.159709 15.134
442 2 2.2208 7.76814 -4.32754 16.751
444 1 -1.1104 9.17871 -2.83349 18.4631
445 1 -1.1104 9.22382 -2.78505 15.406
443 2 2.2208 13.3723 -4.35858 16.6638
439 2 2.2208 13.2095 -1.45511 19.472
842 2 2.2208 13.4464 -1.53812 13.8344
841 2 2.2208 10.4919 -4.18878 14.0163
844 2 2.2208 19.1193 -1.5061 14.1557
450 2 2.2208 16.1545 -1.51238 16.6258
451 1 -1.1104 17.7702 -5.57319 18.183
452 1 -1.1104 17.4899 -0.151608 18.2968
453 1 -1.1104 17.6932 -5.79577 15.4002
454 1 -1.1104 17.4607 -0.0838162 15.3585
455 1 -1.1104 17.7252 -2.64368 18.2847
456 2 2.2208 16.2793 -4.18772 19.4619
457 1 -1.1104 17.6121 -2.99757 15.4646
458 1 -1.1104 14.8022 -5.68849 18.0345
459 1 -1.1104 14.6986 -0.121877 18.1345
460 2 2.2208 19.3349 -1.48426 19.5083
461 1 -1.1104 14.9749 -5.77667 15.3904
462 1 -1.1104 14.7848 -0.0170507 15.3652
463 2 2.2208 19.0944 -4.22146 16.9396
464 1 -1.1104 14.8038 -2.77043 17.7602
465 1 -1.1104 14.7135 -3.05598 15.1709
474 1 -1.1104 20.3728 -2.70182 15.4235
470 1 -1.1104 20.7259 0.0713785 18.1287
473 1 -1.1104 20.661 -2.78983 18.2987
469 1 -1.1104 20.7315 -5.60845 18.5283
471 1 -1.1104 20.606 -5.47121 15.7661
843 2 2.2208 16.3527 -4.14319 13.918
472 1 -1.1104 20.2788 0.106585 15.3441
22433 2 2.2208 4.87563 -6.99095 22.6313
22437 2 2.2208 16.1147 -7.06203 22.4015
22438 2 2.2208 19.029 -6.90737 25.2101
22445 2 2.2208 19.0097 -7.15483 13.992
22423 2 2.2208 27.5066 -7.20096 17.02
839 2 2.2208 27.532 -4.1985 14.0677
413 2 2.2208 27.6069 -4.43389 19.7524
401 2 2.2208 27.5206 -1.40894 16.9786
475 2 2.2208 21.9772 -1.69893 16.8283
476 1 -1.1104 23.5325 -5.6934 18.2347
477 1 -1.1104 23.4898 -0.254894 18.1289
478 1 -1.1104 23.3576 -5.85211 15.4775
479 1 -1.1104 23.0185 -0.433816 15.3452
480 1 -1.1104 23.4843 -2.93713 18.5426
481 2 2.2208 22.2833 -4.26395 19.7654
482 1 -1.1104 23.4082 -3.02823 15.7076
483 1 -1.1104 26.1195 -5.85376 18.3588
484 1 -1.1104 26.1022 -0.103782 18.321
485 2 2.2208 24.8571 -1.52644 19.7114
486 1 -1.1104 26.2788 -5.8046 15.4595
487 1 -1.1104 26.1355 -0.282061 15.3735
488 2 2.2208 24.8751 -4.42094 16.8632
489 1 -1.1104 25.9937 -3.03564 18.2945
490 1 -1.1104 26.1746 -2.95475 15.4693
845 2 2.2208 24.6943 -1.62074 14.1486
846 2 2.2208 21.9418 -4.54225 14.2643
22427 2 2.2208 19.3214 -7.21487 19.5979
22431 2 2.2208 2.07328 -7.17114 25.3591
22424 2 2.2208 13.3594 -6.87092 19.621
492 2 2.2208 4.96822 4.05366 16.672
493 1 -1.1104 0.774401 5.54125 18.0446
495 1 -1.1104 0.856177 5.50075 15.1023
497 1 -1.1104 0.777028 2.79736 18.1198
498 1 -1.1104 0.658143 8.60602 18.2563
502 2 2.2208 4.88549 1.45261 19.585
503 2 2.2208 5.22103 7.12426 19.676
504 1 -1.1104 0.798804 2.90796 15.2749
505 1 -1.1104 0.755686 8.10943 15.5614
508 1 -1.1104 3.6568 5.377 17.8395
509 2 2.2208 2.21566 4.05342 19.4125
510 1 -1.1104 3.55118 5.50236 15.3676
511 2 2.2208 2.15899 1.15672 16.7547
512 2 2.2208 2.36707 6.8069 16.7119
513 1 -1.1104 3.47531 2.59288 18.083
514 1 -1.1104 3.54387 8.26485 18.1017
515 1 -1.1104 3.54037 2.6827 15.0284
516 1 -1.1104 3.61723 8.15478 15.2351
506 1 -1.1104 6.38366 2.79782 15.2213
507 1 -1.1104 6.52975 8.43024 15.4324
496 1 -1.1104 6.26143 5.51134 15.239
500 1 -1.1104 6.21747 8.45291 18.2668
494 1 -1.1104 6.54824 5.52859 18.251
499 1 -1.1104 5.97938 2.63498 18.155
850 2 2.2208 5.1155 7.00073 13.818
825 2 2.2208 10.804 6.70556 13.9207
517 2 2.2208 10.5519 4.16842 16.8862
518 1 -1.1104 11.9661 5.52504 18.2608
519 1 -1.1104 12.4095 5.57358 15.2984
520 1 -1.1104 12.0334 2.79377 18.0426
521 1 -1.1104 12.0021 8.2023 18.0935
522 2 2.2208 10.7212 1.42064 19.4409
523 2 2.2208 10.7803 7.07472 19.7238
524 1 -1.1104 11.8444 2.79116 15.1679
525 1 -1.1104 12.0866 8.27108 15.3299
526 1 -1.1104 9.04155 5.78219 18.2499
527 2 2.2208 7.81937 4.27128 19.5758
529 1 -1.1104 9.34697 5.62384 15.2489
530 2 2.2208 7.84729 1.46415 16.8239
531 2 2.2208 7.69014 6.99841 16.6933
533 1 -1.1104 9.0802 2.79063 18.1112
534 1 -1.1104 9.25192 8.363 18.5257
535 1 -1.1104 9.13787 2.86676 15.458
536 1 -1.1104 9.16585 8.28756 15.5098
532 2 2.2208 13.4579 1.26004 16.7289
537 2 2.2208 13.4336 6.95467 16.784
528 2 2.2208 13.3652 4.07582 19.4819
827 2 2.2208 13.4645 4.22889 13.8403
826 2 2.2208 7.64118 4.20059 13.8571
824 2 2.2208 10.658 1.52377 13.6824
550 2 2.2208 19.2931 1.51257 16.6687
804 2 2.2208 16.2597 1.27191 13.8002
803 2 2.2208 16.4821 6.93038 13.7028
543 2 2.2208 16.3306 1.43812 19.5165
538 2 2.2208 16.3796 4.01629 16.4603
539 1 -1.1104 17.6795 5.56775 17.921
540 1 -1.1104 17.9199 5.47811 15.2343
541 1 -1.1104 17.8171 2.62524 17.9301
542 1 -1.1104 17.7288 8.32474 18.1401
544 2 2.2208 16.2089 6.83009 19.2847
545 1 -1.1104 17.888 2.50717 15.2493
546 1 -1.1104 17.8659 8.22561 15.2931
547 1 -1.1104 14.778 5.50679 18.0997
548 2 2.2208 19.3218 4.07394 19.4697
549 1 -1.1104 15.1355 5.63524 15.1774
551 2 2.2208 19.2653 6.86764 16.6965
552 1 -1.1104 14.7356 2.73262 18.1844
553 1 -1.1104 14.8374 8.39503 17.9722
554 1 -1.1104 14.7411 2.80547 15.1875
555 1 -1.1104 14.7048 8.34714 15.4113
562 1 -1.1104 20.6518 8.411 15.2862
557 1 -1.1104 20.6522 5.52074 18.3033
559 1 -1.1104 20.7353 2.61423 18.3695
561 1 -1.1104 20.5543 2.90326 15.2581
560 1 -1.1104 20.5737 8.29913 18.1743
802 2 2.2208 19.118 3.98414 13.9751
558 1 -1.1104 20.7513 5.54408 15.4834
849 2 2.2208 27.6028 1.35535 13.956
805 2 2.2208 24.9477 4.15785 14.003
806 2 2.2208 27.7263 6.8807 14.2158
801 2 2.2208 22.0774 1.14648 13.7822
556 2 2.2208 27.5449 7.04814 19.5471
501 2 2.2208 27.7068 1.48631 19.5816
810 2 2.2208 21.8662 7.10347 13.8452
491 2 2.2208 27.6818 3.97138 16.5715
568 2 2.2208 22.0654 1.27655 19.5967
563 2 2.2208 22.186 4.17041 16.5849
564 1 -1.1104 23.4064 5.4536 18.1168
565 1 -1.1104 23.5853 5.7419 15.3923
566 1 -1.1104 23.3902 2.51825 18.0712
567 1 -1.1104 23.3132 8.37844 18.4164
569 2 2.2208 21.8862 7.04358 19.6042
570 1 -1.1104 23.5576 2.68835 15.1303
571 1 -1.1104 23.3848 8.5801 15.4766
572 1 -1.1104 26.0878 5.55842 18.1272
573 2 2.2208 24.8417 4.20164 19.6146
574 1 -1.1104 26.4027 5.49612 15.4087
575 2 2.2208 24.8928 1.18045 16.8675
576 2 2.2208 24.7963 7.14882 16.7935
577 1 -1.1104 26.2051 2.76132 18.1958
578 1 -1.1104 26.2219 8.55633 18.1588
579 1 -1.1104 26.2651 2.36379 15.5749
580 1 -1.1104 26.2598 8.06146 15.3504
22429 2 2.2208 21.9962 -7.11471 16.8785
22439 2 2.2208 22.0018 -7.04066 22.676
582 1 -1.1104 0.704509 -5.89462 21.2191
590 1 -1.1104 3.5856 -2.80294 21.2669
589 1 -1.1104 3.53395 -0.109404 21.2308
588 1 -1.1104 3.59851 -5.66653 21.0123
587 1 -1.1104 6.43387 -2.65668 21.1493
583 1 -1.1104 0.845369 -0.0192554 20.9095
586 1 -1.1104 0.782894 -3.07158 20.9306
594 2 2.2208 4.96995 -1.47271 22.6224
595 1 -1.1104 0.727868 -5.75013 23.8183
596 1 -1.1104 0.81544 0.349523 23.6899
599 1 -1.1104 0.472466 -5.93601 26.6302
600 1 -1.1104 0.547133 -0.125359 26.4659
603 1 -1.1104 0.550629 -2.84781 24.0365
606 2 2.2208 4.79433 -4.24613 25.255
607 1 -1.1104 0.544862 -2.91623 26.8734
609 1 -1.1104 3.35393 -5.85189 24.0136
610 1 -1.1104 3.60649 -0.0558041 23.9077
611 2 2.2208 1.99649 -1.28196 25.197
612 1 -1.1104 3.30863 -5.88315 26.9669
613 1 -1.1104 3.62833 -0.0337837 26.9216
614 2 2.2208 2.04548 -4.38989 22.5068
615 1 -1.1104 3.39284 -2.82492 24.0195
616 1 -1.1104 3.6005 -3.06568 26.8829
608 1 -1.1104 6.09254 -2.95063 26.761
604 1 -1.1104 6.38936 -2.78943 23.9719
601 1 -1.1104 6.48142 -5.92021 27.07
584 1 -1.1104 6.32244 -5.41914 21.2428
597 1 -1.1104 6.19225 -5.49746 24.0442
602 1 -1.1104 6.25112 0.0558006 27.0361
585 1 -1.1104 6.26532 0.307287 21.1764
598 1 -1.1104 6.46992 0.0205495 24.195
623 1 -1.1104 9.11423 -5.57873 21.1191
625 1 -1.1104 9.20003 -2.73772 21.1615
621 1 -1.1104 11.9547 -0.120373 21.0386
620 1 -1.1104 12.123 -5.6333 20.9276
622 1 -1.1104 12.178 -2.97798 20.9896
624 1 -1.1104 9.12016 0.104474 21.1902
626 2 2.2208 10.6181 -1.50193 22.4407
627 1 -1.1104 11.9863 -5.59568 23.9729
628 1 -1.1104 12.0221 -0.0693141 23.725
629 1 -1.1104 11.9791 -5.87753 26.8141
630 1 -1.1104 12.1446 -0.326803 26.5747
631 1 -1.1104 12.1347 -2.95533 23.7497
632 2 2.2208 10.4484 -4.2916 25.3532
633 1 -1.1104 11.9153 -3.01548 26.6565
634 1 -1.1104 9.21517 -5.85914 23.9183
635 1 -1.1104 9.35999 -0.427681 24.1504
636 2 2.2208 7.84389 -1.42954 25.3207
638 1 -1.1104 9.07393 -5.48535 26.7559
639 1 -1.1104 9.22471 0.0778071 26.8761
640 2 2.2208 7.75628 -4.34101 22.561
642 1 -1.1104 9.30476 -3.13132 23.7841
643 1 -1.1104 9.14271 -2.66652 26.4545
641 2 2.2208 13.5017 -4.30647 22.4911
637 2 2.2208 13.581 -1.71973 25.2107
22434 2 2.2208 10.4091 -7.17724 22.5836
651 1 -1.1104 15.0272 -2.59073 20.6928
649 1 -1.1104 14.9882 -5.64899 20.8047
672 1 -1.1104 20.7164 -3.03767 20.9183
646 1 -1.1104 17.5719 -5.79945 21.1912
648 1 -1.1104 17.6214 -3.27754 21.1981
647 1 -1.1104 17.7849 -0.0781999 21.2702
650 1 -1.1104 15.1036 0.167502 20.9841
652 2 2.2208 16.4038 -1.69223 22.4797
653 1 -1.1104 17.4932 -5.69789 23.6265
654 1 -1.1104 17.8484 0.139833 24.0847
655 1 -1.1104 17.4289 -5.60112 26.891
656 1 -1.1104 17.9085 -0.199941 26.8998
657 1 -1.1104 17.6892 -2.66836 23.9818
658 2 2.2208 16.3483 -4.33747 25.2757
659 1 -1.1104 17.5791 -2.93199 26.6028
660 1 -1.1104 14.5129 -5.89996 23.7466
661 1 -1.1104 15.0418 -0.416979 23.683
662 2 2.2208 19.1782 -1.4097 25.3573
663 1 -1.1104 14.9393 -5.69349 26.7694
664 1 -1.1104 14.77 -0.0737912 26.5701
665 2 2.2208 19.2081 -4.35166 22.3396
666 1 -1.1104 14.8512 -3.12144 23.6933
667 1 -1.1104 15.0826 -2.94773 26.5406
679 1 -1.1104 20.3961 -5.57968 24.0393
681 1 -1.1104 20.4976 -5.53253 26.9627
683 1 -1.1104 20.6028 -3.0855 23.8047
682 1 -1.1104 20.6166 -0.119065 26.7652
671 1 -1.1104 20.6189 0.0154757 21.1423
670 1 -1.1104 20.3862 -5.98026 21.3005
680 1 -1.1104 20.4262 -0.158477 23.6972
448 1 -1.1104 26.3975 2.71535 21.0273
593 2 2.2208 27.4705 -1.38496 22.5371
684 1 -1.1104 20.2902 -2.78616 26.7692
676 1 -1.1104 26.0211 -5.6989 21.2196
677 1 -1.1104 26.0932 -0.129554 21.077
678 1 -1.1104 26.2048 -2.9838 21.028
674 1 -1.1104 23.5016 -0.182872 21.0999
605 2 2.2208 27.5453 -4.20407 25.2881
675 1 -1.1104 23.5784 -2.96904 21.303
673 1 -1.1104 23.3351 -5.77277 21.2247
685 2 2.2208 21.9232 -1.5184 22.483
686 1 -1.1104 23.3453 -5.72295 24.0206
687 1 -1.1104 22.9614 0.0566999 23.8824
688 1 -1.1104 23.2563 -5.72106 26.6729
689 1 -1.1104 23.4733 -0.327957 26.9234
690 1 -1.1104 23.3175 -2.88374 24.0446
691 2 2.2208 21.7577 -4.14496 25.4069
692 1 -1.1104 23.2475 -2.97367 26.7139
693 1 -1.1104 26.2593 -5.60753 24.0344
694 1 -1.1104 26.0634 0.112904 24.1038
695 2 2.2208 24.7546 -1.50981 25.3315
696 1 -1.1104 26.0504 -5.90175 26.8503
697 1 -1.1104 26.146 -0.0558815 26.8832
698 2 2.2208 24.7506 -4.22255 22.6227
699 1 -1.1104 26.2397 -2.7053 24.0339
700 1 -1.1104 26.059 -3.1829 26.7278
800 1 -1.1104 23.3261 8.62023 23.8185
22436 2 2.2208 13.2376 -7.25772 25.3467
703 1 -1.1104 0.915868 2.7498 20.9001
709 1 -1.1104 3.54935 8.14139 20.8924
702 1 -1.1104 6.34839 5.71438 20.9567
708 1 -1.1104 3.76203 2.66645 20.9967
707 1 -1.1104 3.63606 5.33789 20.7782
706 1 -1.1104 6.37443 8.44284 21.2302
701 1 -1.1104 0.782544 5.43833 20.8816
704 1 -1.1104 0.758758 8.38651 21.0503
730 2 2.2208 2.19995 1.44784 22.3585
721 2 2.2208 4.9741 1.34541 25.5153
711 2 2.2208 5.10562 4.05282 22.3852
712 1 -1.1104 0.71359 5.63968 23.8544
714 1 -1.1104 1.03906 5.05048 26.8784