ITEM: TIMESTEP
70000
ITEM: NUMBER OF ATOMS
22500
ITEM: BOX BOUNDS pp pp pp
-4.8624548938802925e-01 2.7826245489387901e+01
-7.5575627281151618e+00 4.1765756272812371e+02
-4.8556221895077173e-01 2.7825562218950243e+01
ITEM: ATOMS id type q x y z
2 2 2.2208 5.19642 -1.7168 5.38121
3 1 -1.1104 0.87329 -5.91911 0.801939
5 1 -1.1104 0.995347 -0.385721 1.04453
10 1 -1.1104 0.92248 -6.19904 3.73462
11 1 -1.1104 0.975435 -0.555753 4.03858
13 1 -1.1104 1.04894 -3.20724 0.77747
18 2 2.2208 5.30002 -4.73632 2.25351
19 1 -1.1104 0.774903 -3.17025 3.51827
21 1 -1.1104 3.72453 -6.1331 0.781291
23 1 -1.1104 3.30458 -0.651734 0.669203
25 2 2.2208 2.52653 -2.07395 2.42094
26 1 -1.1104 3.76371 -6.36105 3.60863
27 1 -1.1104 3.61982 -0.454823 3.57209
28 2 2.2208 2.28554 -4.62414 5.05831
29 1 -1.1104 3.84139 -3.42846 0.974443
31 1 -1.1104 3.68789 -3.40624 3.75465
4 1 -1.1104 0.687622 -6.13212 6.41798
6 1 -1.1104 0.826634 -0.221118 6.58601
30 1 -1.1104 3.77973 -3.14978 6.58285
17 2 2.2208 -0.431863 -4.6814 2.29208
12 1 -1.1104 6.53795 -0.368569 4.06764
21734 2 2.2208 19.2353 -7.35031 2.74124
22 1 -1.1104 3.48721 -5.99723 6.46504
834 2 2.2208 22.0764 3.68886 -0.29758
20 1 -1.1104 6.49756 -3.33684 3.72427
41 1 -1.1104 6.54141 -6.08977 3.7201
15 1 -1.1104 6.81457 -3.43789 1.08837
7 1 -1.1104 6.44701 -6.14197 0.760393
8 1 -1.1104 6.27991 -0.504884 1.03862
42 2 2.2208 10.4955 -1.97617 5.13147
43 1 -1.1104 12.0691 -5.86973 0.925667
45 1 -1.1104 11.8973 -0.179446 0.997473
47 1 -1.1104 12.4211 -5.8369 3.70367
48 1 -1.1104 12.0044 -0.511656 3.71037
49 1 -1.1104 12.1726 -3.15633 0.939412
51 2 2.2208 10.7268 -4.42266 2.25042
52 1 -1.1104 12.0714 -3.14218 3.64949
53 1 -1.1104 9.3164 -5.86278 1.20932
55 1 -1.1104 9.1467 -0.3199 1.35975
57 2 2.2208 7.74239 -1.87624 2.51095
59 1 -1.1104 9.36082 -5.85005 3.77902
60 1 -1.1104 9.11018 -0.422715 4.13731
61 2 2.2208 7.93592 -4.55081 5.12166
63 1 -1.1104 9.46201 -3.21061 0.605936
65 1 -1.1104 9.27783 -3.23762 3.64793
56 1 -1.1104 9.01148 -0.474683 6.74257
40 1 -1.1104 6.47239 -5.95468 6.48545
44 1 -1.1104 12.1546 -5.58434 6.57845
64 1 -1.1104 9.201 -3.21879 6.45111
54 1 -1.1104 9.17343 -6.11137 6.6038
50 1 -1.1104 12.1617 -3.02359 6.48827
62 2 2.2208 13.6873 -4.50996 5.32061
21760 2 2.2208 7.90044 -7.50469 2.30777
21733 2 2.2208 16.4224 -7.52239 5.28276
22448 2 2.2208 7.94868 -7.37988 13.5996
58 2 2.2208 13.6122 -1.64296 2.3072
73 2 2.2208 16.4125 -1.67323 5.30422
74 1 -1.1104 18.0367 -5.74311 0.976947
76 1 -1.1104 17.851 -0.28183 1.24992
78 1 -1.1104 17.8638 -5.81972 3.67262
79 1 -1.1104 17.8789 -0.375664 4.05387
80 1 -1.1104 17.9132 -3.1332 0.916339
82 2 2.2208 16.4548 -4.38815 2.47346
83 1 -1.1104 17.9044 -3.18445 3.93767
84 1 -1.1104 15.0007 -5.66407 1.16901
86 1 -1.1104 15.1124 -0.302521 1.08178
88 2 2.2208 19.3533 -1.81621 2.51835
89 1 -1.1104 15.267 -5.7254 4.16316
90 1 -1.1104 14.9203 -0.356041 3.9972
91 2 2.2208 19.2028 -4.67919 5.59556
92 1 -1.1104 15.0266 -2.87358 0.92027
94 1 -1.1104 14.8729 -3.1047 3.68541
75 1 -1.1104 17.8656 -6.40715 6.59518
87 1 -1.1104 14.851 -0.434931 6.78066
93 1 -1.1104 14.9957 -3.26492 6.6652
106 1 -1.1104 21.1051 -3.28109 1.01435
85 1 -1.1104 15.103 -5.8161 6.74201
105 1 -1.1104 20.6117 -0.474939 3.87508
104 1 -1.1104 20.7057 -6.19967 4.04919
77 1 -1.1104 17.7488 -0.889851 6.79575
101 1 -1.1104 20.3173 -5.80133 7.1321
294 2 2.2208 24.8857 0.819218 10.8895
1 2 2.2208 27.7515 -1.7671 5.41815
108 1 -1.1104 20.8197 -3.36671 3.72855
100 1 -1.1104 20.7057 -6.2732 1.09664
102 1 -1.1104 20.7603 -0.717507 1.19692
109 2 2.2208 21.9054 -2.06492 5.44976
110 1 -1.1104 23.6521 -6.06663 1.19675
112 1 -1.1104 23.6125 -0.132188 1.06793
114 1 -1.1104 23.4834 -6.12292 3.71268
115 1 -1.1104 23.5822 -0.445646 3.60812
116 1 -1.1104 23.9116 -2.94349 0.862572
118 2 2.2208 22.1504 -4.73562 2.45141
119 1 -1.1104 23.6879 -3.24276 3.91402
120 1 -1.1104 26.3436 -6.21287 1.04568
122 1 -1.1104 26.5265 -0.439765 0.953206
124 2 2.2208 24.9248 -1.83094 2.49311
125 1 -1.1104 26.3823 -6.38163 3.83606
126 1 -1.1104 26.5814 -0.257765 3.97167
127 2 2.2208 24.8826 -4.86248 5.2418
128 1 -1.1104 26.5513 -3.17451 1.08527
130 1 -1.1104 26.4924 -3.44793 3.98879
123 1 -1.1104 26.3856 -0.487516 6.78049
113 1 -1.1104 23.5166 -0.644669 6.49604
326 1 -1.1104 20.5844 7.8391 12.5068
103 1 -1.1104 20.3125 -0.262222 6.89275
21632 2 2.2208 16.5534 -7.29263 10.8967
129 1 -1.1104 26.4083 -3.31216 6.75716
96 2 2.2208 22.109 6.62245 8.25444
321 1 -1.1104 20.5223 5.1977 9.59852
21664 2 2.2208 13.4465 -7.08245 8.13606
164 2 2.2208 2.12078 0.972689 5.10126
154 2 2.2208 5.0011 0.780306 2.2479
137 2 2.2208 4.75834 3.76593 5.29123
138 1 -1.1104 1.00603 4.93349 0.966843
142 1 -1.1104 0.923452 5.22391 3.92995
144 1 -1.1104 0.870392 2.31204 0.704897
146 1 -1.1104 0.771727 7.84888 0.890584
155 2 2.2208 5.12662 6.7084 2.34473
156 1 -1.1104 0.736423 2.20909 3.58527
157 1 -1.1104 0.694101 7.99068 3.73705
160 1 -1.1104 3.55391 5.4109 1.12385
162 2 2.2208 2.30492 3.72778 2.48045
163 1 -1.1104 3.57372 5.0153 3.76782
165 2 2.2208 2.15825 6.58968 5.09891
166 1 -1.1104 3.53895 2.14641 0.854343
168 1 -1.1104 3.80155 8.13384 1.11494
170 1 -1.1104 3.51296 2.29469 3.67483
171 1 -1.1104 3.59926 7.91899 4.01653
169 1 -1.1104 3.67194 8.09031 6.73942
145 1 -1.1104 0.965347 2.45788 6.41237
161 1 -1.1104 3.54993 5.3439 6.581
167 1 -1.1104 3.49065 2.3761 6.6391
136 2 2.2208 -0.38527 3.89576 4.96719
150 1 -1.1104 6.54414 8.06133 1.0417
149 1 -1.1104 6.36348 2.33673 6.54247
153 2 2.2208 27.7708 6.64449 2.32981
21662 2 2.2208 10.5665 -7.50941 10.9213
139 1 -1.1104 0.857145 5.43642 6.573
21794 2 2.2208 2.27367 -7.45809 2.20995
148 1 -1.1104 6.37916 2.2532 1.09831
159 1 -1.1104 6.53744 7.85491 3.88548
140 1 -1.1104 6.32101 5.11573 0.972559
151 1 -1.1104 6.51788 7.86538 6.80332
158 1 -1.1104 6.46243 2.35996 3.90676
143 1 -1.1104 6.61757 5.06966 3.76303
193 2 2.2208 7.67781 0.932082 5.45655
176 2 2.2208 10.9389 3.68939 4.90622
177 1 -1.1104 12.1494 5.48582 0.977584
179 1 -1.1104 12.3072 4.93161 3.5876
180 1 -1.1104 12.1492 2.54184 0.934263
182 1 -1.1104 12.0832 7.92574 1.1691
184 2 2.2208 10.7626 1.14398 2.388
185 2 2.2208 10.5663 6.48964 2.30429
186 1 -1.1104 12.3104 2.19893 3.89181
187 1 -1.1104 11.9142 7.71293 3.95118
188 1 -1.1104 9.11918 5.20659 0.939247
190 2 2.2208 7.78319 3.8655 2.42916
192 1 -1.1104 9.41449 5.09037 4.01972
194 2 2.2208 7.98105 6.49746 5.44878
196 1 -1.1104 9.36281 2.42674 1.13486
198 1 -1.1104 9.35309 7.92297 0.908454
200 1 -1.1104 9.27192 2.62955 4.02233
201 1 -1.1104 9.14491 7.71383 3.76966
141 1 -1.1104 6.46046 4.92994 6.90215
181 1 -1.1104 12.021 2.56049 6.26364
199 1 -1.1104 9.4311 8.0869 6.63067
189 1 -1.1104 9.08357 5.41648 7.01801
197 1 -1.1104 9.15242 2.2608 6.72415
347 1 -1.1104 20.8464 5.00672 12.3933
205 2 2.2208 13.4123 6.33584 5.24518
191 2 2.2208 13.8284 3.95677 2.22944
195 2 2.2208 13.366 0.747056 5.1493
214 2 2.2208 16.5043 0.99837 2.3945
206 2 2.2208 16.3982 3.77029 5.29514
207 1 -1.1104 17.8933 5.00455 0.965741
209 1 -1.1104 17.8752 5.23377 3.78555
210 1 -1.1104 17.8288 2.28228 0.997037
212 1 -1.1104 17.7574 7.89337 1.19184
215 2 2.2208 16.3414 6.74271 2.56199
216 1 -1.1104 17.9025 2.29636 3.74326
217 1 -1.1104 17.7454 8.1687 4.11685
218 1 -1.1104 15.1662 5.35878 1.16816
220 2 2.2208 19.3058 3.74733 2.42598
221 1 -1.1104 15.2362 5.3228 3.68989
222 2 2.2208 19.4255 0.876223 5.21522
223 2 2.2208 19.3763 6.65416 5.45911
224 1 -1.1104 14.9498 2.73123 0.777994
226 1 -1.1104 14.9686 8.40097 1.06741
228 1 -1.1104 15.0427 2.61143 3.51606
229 1 -1.1104 14.9897 8.211 4.07096
213 1 -1.1104 17.5991 8.20325 6.72852
211 1 -1.1104 18.0908 2.55731 6.78479
238 1 -1.1104 20.5838 2.0137 1.1289
242 1 -1.1104 20.75 2.4866 3.81012
208 1 -1.1104 17.9458 5.3659 6.78769
21630 2 2.2208 22.2009 -7.48836 11.0541
131 1 -1.1104 23.7095 7.82446 9.39915
152 2 2.2208 27.8218 0.836809 2.06445
237 1 -1.1104 20.7091 5.39403 3.87454
235 1 -1.1104 20.7249 5.12572 0.959467
240 1 -1.1104 20.6225 7.9776 1.04928
239 1 -1.1104 20.7718 2.4929 6.61346
243 1 -1.1104 20.6309 8.05659 3.95004
260 2 2.2208 25.0102 0.744837 5.38323
244 2 2.2208 22.2557 3.92128 5.21571
245 1 -1.1104 23.5786 5.26328 0.937794
247 1 -1.1104 23.4558 5.10432 3.61783
248 1 -1.1104 23.3107 2.43887 1.06467
250 1 -1.1104 23.2975 8.05251 0.993055
252 2 2.2208 22.221 0.942838 2.64992
253 2 2.2208 22.0803 6.49345 2.28455
254 1 -1.1104 23.5956 2.28223 3.93127
255 1 -1.1104 23.4848 8.13624 3.68765
256 1 -1.1104 26.4917 4.98789 0.870653
258 2 2.2208 24.8169 3.64116 2.41298
259 1 -1.1104 26.2502 5.11425 3.79726
261 2 2.2208 24.8177 6.41343 5.12366
262 1 -1.1104 26.2138 2.30408 1.0523
264 1 -1.1104 26.1184 7.72372 1.2857
266 1 -1.1104 26.1311 2.48748 3.898
267 1 -1.1104 26.3216 7.97221 4.10834
265 1 -1.1104 26.2639 7.72766 6.6611
241 1 -1.1104 20.6938 8.09959 6.81349
251 1 -1.1104 23.4881 7.83582 6.48355
249 1 -1.1104 23.726 2.04776 6.66955
246 1 -1.1104 23.4925 5.37394 6.77128
236 1 -1.1104 20.5889 5.15817 6.77484
298 1 -1.1104 26.418 2.48891 12.2354
21732 2 2.2208 24.9993 -7.49169 2.31444
14 1 -1.1104 0.988874 -3.41532 6.49661
24 1 -1.1104 3.7358 -0.375411 6.4673
16 1 -1.1104 6.46608 -3.17979 6.61296
9 1 -1.1104 6.40341 -0.505392 6.67311
272 2 2.2208 4.99935 -1.84334 10.6628
273 1 -1.1104 1.11982 -6.09562 12.4463
274 1 -1.1104 0.810456 -0.542152 12.1255
276 1 -1.1104 1.12567 -5.98865 9.32425
277 1 -1.1104 0.63333 -0.66191 9.31474
279 1 -1.1104 0.739264 -3.242 12.3278
282 2 2.2208 5.16698 -4.56008 8.0008
283 1 -1.1104 0.767925 -3.39895 9.39605
285 1 -1.1104 3.77819 -6.22129 12.2759
286 1 -1.1104 3.50915 -0.612278 12.0106
287 2 2.2208 2.10299 -1.85267 7.99723
288 1 -1.1104 4.08909 -6.18808 9.27371
289 1 -1.1104 3.48049 -0.340881 9.21081
290 2 2.2208 2.2883 -4.43526 10.922
291 1 -1.1104 3.68733 -3.218 12.5106
292 1 -1.1104 3.54101 -3.14946 9.24615
281 2 2.2208 -0.416561 -4.65526 8.03235
280 1 -1.1104 6.41229 -3.21104 12.2038
301 1 -1.1104 6.46651 -6.08437 9.42669
21761 2 2.2208 13.5433 -7.33053 2.54437
21699 2 2.2208 2.29212 -7.28784 8.01494
46 1 -1.1104 11.7596 -0.127218 6.36857
21735 2 2.2208 10.7495 -7.29434 5.11267
278 1 -1.1104 6.02808 -0.682591 9.24907
275 1 -1.1104 6.23643 -0.316834 12.2588
284 1 -1.1104 6.52526 -3.25749 9.52456
300 1 -1.1104 6.68855 -5.97155 12.3086
302 2 2.2208 10.6482 -1.61684 10.7033
303 1 -1.1104 12.2937 -6.235 12.1921
304 1 -1.1104 11.9444 -0.563676 12.3525
305 1 -1.1104 12.0588 -5.7208 9.57674
306 1 -1.1104 12.0275 -0.381337 9.24736
307 1 -1.1104 12.3643 -3.50886 12.3393
308 2 2.2208 10.6169 -4.47025 8.06047
309 1 -1.1104 12.1394 -2.94332 9.53718
310 1 -1.1104 9.29052 -6.06088 12.1204
311 1 -1.1104 9.21789 -0.605033 12.0322
312 2 2.2208 7.71375 -1.76019 8.03349
314 1 -1.1104 9.36861 -6.00178 9.30707
315 1 -1.1104 8.97892 -0.273714 9.26442
316 2 2.2208 7.82448 -4.60572 10.781
318 1 -1.1104 9.44279 -3.28636 12.0523
319 1 -1.1104 9.26383 -3.09274 9.45394
835 2 2.2208 24.899 1.12732 -0.415231
21661 2 2.2208 19.227 -7.55 8.2963
22442 2 2.2208 25.3841 -7.5137 13.6114
21631 2 2.2208 24.9839 -7.54226 7.95161
375 1 -1.1104 26.4138 7.85248 9.4901
81 1 -1.1104 17.8775 -3.3343 6.86624
313 2 2.2208 13.5846 -1.92131 8.03709
317 2 2.2208 13.6501 -4.80356 10.9572
328 2 2.2208 16.3621 -1.82152 10.7873
329 1 -1.1104 17.7973 -5.95928 12.1755
330 1 -1.1104 17.7497 -0.390357 12.3386
331 1 -1.1104 17.9766 -5.87914 9.48257
332 1 -1.1104 17.8741 -0.377562 9.71925
333 1 -1.1104 17.5759 -3.23665 12.4981
334 2 2.2208 16.4698 -4.54163 8.05541
335 1 -1.1104 17.9564 -3.07862 9.67981
336 1 -1.1104 15.1312 -6.09405 12.6191
337 1 -1.1104 14.8523 -0.460754 12.318
338 2 2.2208 19.3141 -1.72673 8.30588
339 1 -1.1104 14.7872 -6.12846 9.57322
340 1 -1.1104 15.2999 -0.37633 9.44571
341 2 2.2208 19.3535 -4.75223 10.9271
342 1 -1.1104 14.8836 -3.0708 12.2105
343 1 -1.1104 14.9689 -3.32272 9.37718
107 1 -1.1104 20.6167 -3.06609 6.84501
353 1 -1.1104 20.3863 -3.38742 12.3926
351 1 -1.1104 20.7315 -6.16355 9.71603
21793 2 2.2208 5.12197 -7.40062 5.41978
842 2 2.2208 13.4047 -1.82226 13.6086
117 1 -1.1104 23.4618 -3.34413 6.70806
121 1 -1.1104 26.073 -5.92439 6.86922
111 1 -1.1104 23.3258 -6.20588 6.56993
271 2 2.2208 27.7521 -1.86904 10.9269
21663 2 2.2208 7.81504 -7.50758 8.04949
349 1 -1.1104 20.8115 -6.25286 12.465
354 1 -1.1104 20.7381 -3.14427 9.55297
350 1 -1.1104 20.4175 -0.632236 12.4769
352 1 -1.1104 20.601 -0.223614 9.62845
355 2 2.2208 22.1225 -1.91663 11.0132
356 1 -1.1104 23.6127 -6.20062 12.3829
357 1 -1.1104 23.3967 -0.635945 12.5065
358 1 -1.1104 23.5968 -6.46304 9.5407
359 1 -1.1104 23.3577 -0.448977 9.52242
360 1 -1.1104 23.4741 -3.46216 12.2484
361 2 2.2208 22.1107 -5.05151 8.24295
362 1 -1.1104 23.4542 -3.35395 9.71683
363 1 -1.1104 26.4812 -6.05037 12.2841
364 1 -1.1104 26.2721 -0.726495 12.1995
365 2 2.2208 24.8901 -1.90694 8.23263
366 1 -1.1104 26.6222 -5.85809 9.53111
367 1 -1.1104 26.1284 -0.447148 9.68462
368 2 2.2208 25.009 -4.84702 10.9024
369 1 -1.1104 26.1836 -3.31609 12.445
370 1 -1.1104 26.3866 -3.43057 9.5302
850 2 2.2208 4.83163 6.63298 13.6111
132 1 -1.1104 26.4004 5.19553 12.2644
371 2 2.2208 21.9239 3.7315 10.8886
838 2 2.2208 5.16027 -4.91034 13.6039
147 1 -1.1104 0.700808 8.14618 6.72439
22457 2 2.2208 22.2267 -7.28297 -0.382509
815 2 2.2208 19.3995 -4.53495 -0.36758
395 2 2.2208 2.17325 0.881059 10.7974
376 2 2.2208 5.05617 3.73371 10.8491
377 1 -1.1104 1.1606 5.60308 12.413
379 1 -1.1104 0.932861 5.22457 9.42239
381 1 -1.1104 0.791521 2.52751 12.1046
382 1 -1.1104 0.800903 8.04282 11.8177
386 2 2.2208 4.94192 1.12467 8.01314
387 2 2.2208 5.11911 6.60839 7.98018
388 1 -1.1104 0.724459 2.28659 9.44667
389 1 -1.1104 0.970484 8.14743 9.14576
392 1 -1.1104 3.49909 5.12859 12.1255
393 2 2.2208 2.10771 3.84678 7.89548
394 1 -1.1104 3.52677 5.35825 9.21035
396 2 2.2208 2.3624 6.74772 10.7066
397 1 -1.1104 3.53555 2.15608 12.1388
398 1 -1.1104 3.39117 8.08426 12.3374
399 1 -1.1104 3.71678 2.53302 9.53327
400 1 -1.1104 3.97795 8.11617 9.48865
39 2 2.2208 27.7508 6.71573 7.98345
391 1 -1.1104 6.80098 8.25524 9.54275
384 1 -1.1104 6.21396 8.28547 12.2994
378 1 -1.1104 6.27296 5.44247 12.4201
385 2 2.2208 27.6832 1.01123 8.0753
66 2 2.2208 -0.405894 3.94363 10.8354
819 2 2.2208 4.9695 3.74549 -0.226389
816 2 2.2208 22.3359 -1.9629 -0.360562
183 1 -1.1104 12.1085 7.93365 6.70048
178 1 -1.1104 12.0118 5.08041 6.5188
814 2 2.2208 16.3467 -1.77 -0.418798
295 2 2.2208 24.9361 6.55153 10.8575
383 1 -1.1104 6.51747 2.61049 12.1403
380 1 -1.1104 6.32341 5.16579 9.60039
390 1 -1.1104 6.36624 2.44657 9.29986
268 2 2.2208 10.5325 0.927478 7.92727
323 2 2.2208 7.71149 1.11181 10.7876
203 1 -1.1104 9.22918 5.36374 9.5286
230 2 2.2208 8.05605 3.84194 8.07657
231 1 -1.1104 9.1751 5.19361 12.2916
232 1 -1.1104 12.2238 7.90084 9.51621
233 1 -1.1104 11.9622 2.33384 9.1224
234 2 2.2208 10.8408 6.55864 8.18408
269 1 -1.1104 12.3393 7.91468 12.2866
270 1 -1.1104 11.9055 2.44608 11.9821
296 1 -1.1104 12.1842 5.20521 9.44472
297 1 -1.1104 12.0544 5.04083 12.4429
299 2 2.2208 10.6188 3.93373 10.7683
324 2 2.2208 7.68918 6.67746 10.8511
346 1 -1.1104 9.38421 2.36451 12.1989
348 1 -1.1104 9.10414 8.27413 12.4545
373 1 -1.1104 9.23641 2.49247 9.55307
374 1 -1.1104 9.42496 7.97398 9.66385
32 2 2.2208 13.6371 6.45642 10.8536
225 1 -1.1104 15.1057 2.36454 6.66378
219 1 -1.1104 14.875 4.98179 6.52289
227 1 -1.1104 14.7944 8.01684 6.92989
21697 2 2.2208 -0.227668 -7.42902 10.7701
327 2 2.2208 13.53 0.894648 10.653
204 2 2.2208 13.439 3.70428 7.90001
97 2 2.2208 16.7003 0.963295 8.08125
33 2 2.2208 16.2356 3.8985 11.1261
34 1 -1.1104 17.5504 5.29646 12.5826
35 1 -1.1104 14.9603 5.02709 9.37664
36 1 -1.1104 17.8167 5.43354 9.89082
37 2 2.2208 19.2638 1.0196 11.123
38 1 -1.1104 17.8084 2.43243 12.3402
69 2 2.2208 19.2701 6.61375 11.0963
70 1 -1.1104 18.2045 8.01501 12.4252
71 1 -1.1104 15.0186 2.56427 12.5414
98 1 -1.1104 15.1234 8.09385 12.5141
133 2 2.2208 16.4501 6.50037 8.08036
134 1 -1.1104 17.7272 2.37163 9.46921
172 1 -1.1104 14.9375 2.29666 9.34724
173 1 -1.1104 18.0429 8.4745 9.77096
174 1 -1.1104 15.372 7.65603 9.90758
175 1 -1.1104 14.8726 5.44569 12.3733
202 2 2.2208 19.3915 3.7048 8.06547
72 1 -1.1104 23.4707 7.81902 12.2888
345 1 -1.1104 20.5701 7.86643 9.45645
325 1 -1.1104 20.4952 2.23671 12.5856
344 1 -1.1104 20.6811 2.30296 9.33734
95 2 2.2208 22.2018 1.00094 8.1262
257 1 -1.1104 25.9934 4.88866 6.32387
67 1 -1.1104 23.1354 4.99583 9.37084
322 1 -1.1104 26.0366 2.46588 9.49234
320 1 -1.1104 26.1914 8.13789 12.2742
68 1 -1.1104 23.4105 2.34643 12.3437
372 1 -1.1104 23.5431 5.15463 12.1121
135 2 2.2208 24.9473 3.69662 8.10389
99 1 -1.1104 23.2435 2.31942 9.56882
293 1 -1.1104 26.4409 5.12364 9.33321
263 1 -1.1104 26.5115 2.34465 6.89296
841 2 2.2208 10.7349 -4.57 13.6358
840 2 2.2208 7.70493 -1.61045 13.6031
807 2 2.2208 -0.433092 -2.01552 -0.417584
817 2 2.2208 24.9867 -4.78165 -0.324215
22463 2 2.2208 10.5971 -7.38072 -0.375943
833 2 2.2208 19.2114 6.67016 -0.38969
828 2 2.2208 10.593 3.92684 -0.289276
824 2 2.2208 10.6332 0.899981 13.6818
813 2 2.2208 13.4521 -4.4242 -0.442023
832 2 2.2208 13.6766 6.78541 -0.149081
806 2 2.2208 27.6853 6.90733 13.5976
822 2 2.2208 7.76925 0.97634 -0.4708
831 2 2.2208 13.4378 1.10455 -0.445426
848 2 2.2208 4.90499 0.927022 13.626
22460 2 2.2208 16.4738 -7.18714 -0.314666
402 2 2.2208 5.0217 -1.72619 16.5008
403 1 -1.1104 0.916651 -5.95778 18.0246
404 1 -1.1104 0.699845 -0.609775 17.6403
407 1 -1.1104 0.960526 -6.16204 15.1802
408 1 -1.1104 1.07061 -0.266149 14.8618
411 1 -1.1104 0.705288 -3.33927 17.8975
414 2 2.2208 5.12619 -4.60252 19.188
415 1 -1.1104 1.04831 -3.11686 15.305
417 1 -1.1104 3.59833 -6.11012 17.9699
418 1 -1.1104 3.82655 -0.521174 17.9008
419 2 2.2208 2.24333 -2.08057 19.0047
420 1 -1.1104 3.77206 -6.08261 15.1166
421 1 -1.1104 3.63577 -0.689663 14.9292
422 2 2.2208 2.44169 -4.69959 16.3762
423 1 -1.1104 3.7494 -3.30694 17.9087
424 1 -1.1104 3.776 -3.27744 15.006
582 1 -1.1104 0.937921 -6.17749 20.9249
590 1 -1.1104 3.81431 -3.23394 20.6028
589 1 -1.1104 3.58703 -0.485683 20.7631
586 1 -1.1104 1.04861 -3.30424 20.8072
406 1 -1.1104 6.48406 -0.473808 18.0759
405 1 -1.1104 6.36774 -6.05835 17.8767
412 1 -1.1104 6.66479 -3.28336 17.8191
585 1 -1.1104 6.42391 -0.630969 20.8524
410 1 -1.1104 6.18133 -0.521794 15.3305
416 1 -1.1104 6.54767 -3.40804 15.1051
584 1 -1.1104 6.60633 -6.1417 20.5098
588 1 -1.1104 3.8468 -5.99459 20.882
22445 2 2.2208 19.2008 -7.44614 14.0091
849 2 2.2208 27.6744 0.942578 13.6943
409 1 -1.1104 6.54472 -6.08591 15.1258
428 2 2.2208 10.6807 -1.88437 16.5524
429 1 -1.1104 12.219 -6.11874 17.8003
430 1 -1.1104 12.1314 -0.739674 18.172
431 1 -1.1104 12.3315 -5.96233 14.9192
432 1 -1.1104 11.8058 -0.361193 15.2171
433 1 -1.1104 12.011 -3.50294 17.5799
434 2 2.2208 10.5082 -4.46286 19.241
435 1 -1.1104 12.0365 -3.09996 15.0715
436 1 -1.1104 9.30846 -5.76674 17.9433
437 1 -1.1104 9.20745 -0.00690226 18.1093
438 2 2.2208 7.90128 -1.75606 19.2106
440 1 -1.1104 9.3642 -6.0441 14.9461
441 1 -1.1104 8.98133 -0.31708 15.1176
442 2 2.2208 7.99446 -4.49664 16.3015
444 1 -1.1104 9.19133 -2.98927 17.7274
445 1 -1.1104 9.2965 -2.98126 15.0798
622 1 -1.1104 12.179 -3.32234 20.9187
587 1 -1.1104 6.55939 -3.209 20.6595
439 2 2.2208 13.5464 -2.13484 19.1685
625 1 -1.1104 9.2425 -3.02313 20.6213
22429 2 2.2208 22.2898 -7.4748 16.4265
22426 2 2.2208 7.92059 -7.49678 19.364
443 2 2.2208 13.7564 -4.81228 16.5657
450 2 2.2208 16.236 -1.8838 16.6307
451 1 -1.1104 17.8012 -6.00547 18.2131
452 1 -1.1104 17.7447 -0.47877 17.9919
453 1 -1.1104 17.7857 -6.0697 15.1465
454 1 -1.1104 17.8466 -0.74384 15.4419
455 1 -1.1104 17.7003 -3.29188 17.9188
456 2 2.2208 16.2662 -4.60243 19.4989
457 1 -1.1104 17.6922 -3.38957 15.2919
458 1 -1.1104 15.016 -6.19573 17.9044
459 1 -1.1104 15.1398 -0.539161 17.9816
460 2 2.2208 19.1252 -1.91757 19.4131
461 1 -1.1104 15.0267 -6.14338 15.2611
462 1 -1.1104 14.7863 -0.453165 14.944
463 2 2.2208 19.1362 -4.80345 16.5462
464 1 -1.1104 14.8907 -3.42455 17.9687
465 1 -1.1104 14.9154 -3.14263 15.0375
649 1 -1.1104 15.0923 -6.18906 20.5669
648 1 -1.1104 17.8222 -3.30844 20.8857
474 1 -1.1104 20.7376 -3.48002 14.9473
469 1 -1.1104 20.5478 -6.22963 17.9669
22433 2 2.2208 5.16035 -7.48475 22.0108
825 2 2.2208 10.6947 6.52695 13.7381
401 2 2.2208 27.6432 -1.99634 16.5325
413 2 2.2208 27.6392 -4.95013 19.45
22438 2 2.2208 19.1225 -7.35038 25.1393
472 1 -1.1104 20.5277 -0.447526 15.3247
671 1 -1.1104 20.7269 -0.470328 21.0441
471 1 -1.1104 20.8142 -6.22842 15.311
470 1 -1.1104 20.9257 -0.683614 18.3149
473 1 -1.1104 20.3693 -3.48849 17.8135
475 2 2.2208 21.8287 -2.10563 16.8075
476 1 -1.1104 23.2591 -6.01152 17.8322
477 1 -1.1104 23.6887 -0.703122 17.8697
478 1 -1.1104 23.6455 -6.23266 14.9494
479 1 -1.1104 23.5693 -0.537626 15.0319
480 1 -1.1104 23.4669 -3.35184 18.2287
481 2 2.2208 21.717 -4.81579 19.4339
482 1 -1.1104 23.5669 -3.20015 15.4456
483 1 -1.1104 26.404 -6.0562 17.8416
484 1 -1.1104 26.2452 -0.682515 17.9577
485 2 2.2208 25.1 -1.95375 19.4602
486 1 -1.1104 26.534 -6.18209 15.1787
487 1 -1.1104 26.2966 -0.541363 15.2867
488 2 2.2208 25.0796 -4.65975 16.5907
489 1 -1.1104 26.123 -3.34247 17.886
490 1 -1.1104 26.3877 -3.39522 15.1603
676 1 -1.1104 26.0994 -6.2132 20.7181
675 1 -1.1104 23.9053 -3.08231 21.1886
678 1 -1.1104 26.5231 -3.50638 20.8746
644 2 2.2208 21.9564 3.71973 22.3533
22436 2 2.2208 13.5182 -7.40854 25.2055
492 2 2.2208 5.01429 3.64267 16.5892
493 1 -1.1104 1.14755 5.15846 18.1396
495 1 -1.1104 0.600281 5.34494 15.4144
497 1 -1.1104 0.612308 2.48851 17.8609
498 1 -1.1104 1.06234 7.93096 17.9696
502 2 2.2208 4.82633 0.735508 19.3542
503 2 2.2208 5.04609 6.63159 19.3881
504 1 -1.1104 0.736142 2.43542 15.1486
505 1 -1.1104 0.613756 8.34917 14.8025
508 1 -1.1104 3.9152 5.09412 18.0324
509 2 2.2208 2.31584 3.81537 19.3666
510 1 -1.1104 3.45817 5.35289 15.0767
511 2 2.2208 2.05721 1.00575 16.4559
512 2 2.2208 2.2546 6.65005 16.6036
513 1 -1.1104 3.31253 2.43372 17.6533
514 1 -1.1104 3.93321 7.8882 17.6336
515 1 -1.1104 3.46682 2.25992 14.7005
516 1 -1.1104 3.54057 8.02184 15.1414
709 1 -1.1104 3.30554 7.76489 20.6776
704 1 -1.1104 0.520666 7.98889 20.7974
707 1 -1.1104 3.54685 5.14009 20.8915
708 1 -1.1104 3.64113 2.36163 20.5338
499 1 -1.1104 6.03921 2.0926 17.9591
494 1 -1.1104 6.47292 4.94299 17.7649
506 1 -1.1104 6.38354 2.22324 15.1979
705 1 -1.1104 6.51018 2.57576 20.7533
706 1 -1.1104 6.27773 8.38455 20.6872
501 2 2.2208 27.6187 0.900503 19.2281
796 1 -1.1104 20.7955 5.14969 26.5155
507 1 -1.1104 6.56599 8.04468 15.2432
500 1 -1.1104 6.80006 7.96325 17.9614
496 1 -1.1104 6.3644 5.0533 15.0597
517 2 2.2208 10.4921 3.73509 16.5415
518 1 -1.1104 12.1042 5.03225 18.0238
519 1 -1.1104 12.1279 5.32709 15.1818
520 1 -1.1104 11.978 2.12888 17.9514
521 1 -1.1104 12.1357 7.95683 17.7224
522 2 2.2208 10.7778 1.01664 19.4671
523 2 2.2208 10.8118 6.636 19.3606
524 1 -1.1104 11.9257 2.3679 15.2963
525 1 -1.1104 12.2039 7.99203 15.1958
526 1 -1.1104 9.25455 5.34504 17.892
527 2 2.2208 7.88582 3.94805 19.4414
529 1 -1.1104 9.3473 5.29557 15.1235
530 2 2.2208 7.74433 0.906273 16.6602
531 2 2.2208 8.02854 6.54886 16.3421
533 1 -1.1104 9.15711 2.68087 18.1269
534 1 -1.1104 9.30522 7.96006 17.996
535 1 -1.1104 9.0233 2.49879 15.2004
536 1 -1.1104 9.2389 8.02608 15.2761
740 1 -1.1104 9.50367 2.49233 20.7931
738 1 -1.1104 12.2656 8.11989 20.9857
532 2 2.2208 13.4907 0.884068 16.4844
702 1 -1.1104 6.36018 5.50028 20.8805
645 1 -1.1104 23.3521 5.15448 23.7136
537 2 2.2208 13.4725 6.58728 16.5033
528 2 2.2208 13.4607 3.69673 19.3199
550 2 2.2208 19.2261 1.04748 16.555
543 2 2.2208 16.4325 1.01282 19.313
538 2 2.2208 16.2698 3.83555 16.6805
539 1 -1.1104 17.3695 5.15014 18.3497
540 1 -1.1104 17.9708 5.1632 15.2881
541 1 -1.1104 17.581 2.36536 17.8617
542 1 -1.1104 18.1155 7.69282 17.9518
544 2 2.2208 16.3524 6.79943 19.3288
545 1 -1.1104 17.7259 2.12381 15.1034
546 1 -1.1104 17.7449 8.02021 15.1152
547 1 -1.1104 14.8546 5.4069 17.9072
548 2 2.2208 19.0048 3.76802 19.6466
549 1 -1.1104 14.943 5.27196 15.2896
551 2 2.2208 19.2338 6.59339 16.4264
552 1 -1.1104 14.8237 2.3759 17.9303
553 1 -1.1104 15.0331 8.32847 17.8981
554 1 -1.1104 14.766 2.27331 15.2957
555 1 -1.1104 14.9547 8.17243 15.3128
765 1 -1.1104 17.919 7.95354 20.6503
764 1 -1.1104 17.7011 2.31887 20.7142
767 1 -1.1104 15.0304 2.54497 20.5151
766 1 -1.1104 14.9646 5.34442 20.7266
557 1 -1.1104 20.346 5.20308 17.9836
617 1 -1.1104 20.7219 7.8926 20.8333
763 1 -1.1104 17.7912 5.0182 21.0379
619 1 -1.1104 20.6218 5.02688 20.9259
22440 2 2.2208 25.0215 -7.51978 24.9471
491 2 2.2208 27.5142 3.83337 16.347
558 1 -1.1104 20.7542 5.09549 15.0147
559 1 -1.1104 20.8135 2.16018 17.9922
556 2 2.2208 27.5172 6.54058 19.2224
560 1 -1.1104 20.7993 7.93764 17.9935
562 1 -1.1104 20.5491 7.9882 15.1981
561 1 -1.1104 20.5644 2.41697 15.395
568 2 2.2208 22.1626 0.864858 19.4427
563 2 2.2208 22.1954 3.5477 16.7022
564 1 -1.1104 23.4168 5.3127 18.018
565 1 -1.1104 23.4238 5.02632 15.1087
566 1 -1.1104 23.6711 2.2106 17.8817
567 1 -1.1104 23.5032 7.86578 17.9017
569 2 2.2208 22.0098 6.49816 19.385
570 1 -1.1104 23.4539 2.41659 15.2873
571 1 -1.1104 23.3279 7.97113 15.2601
572 1 -1.1104 26.5639 5.29106 17.5607
573 2 2.2208 24.8294 3.91873 19.3801
574 1 -1.1104 25.9739 5.44113 14.9491
575 2 2.2208 24.9667 0.76209 16.5301
576 2 2.2208 24.7683 6.40364 16.5141
577 1 -1.1104 26.3818 2.42621 17.8872
578 1 -1.1104 26.2873 8.15172 18.1268
579 1 -1.1104 26.0195 2.29387 15.045
580 1 -1.1104 26.0608 8.16599 15.1318
592 1 -1.1104 23.2743 5.11872 20.7204
669 1 -1.1104 23.5487 2.17588 23.6859
468 1 -1.1104 23.37 2.35724 20.9329
467 1 -1.1104 23.521 7.98029 20.9406
449 1 -1.1104 25.9705 5.22467 20.4295
583 1 -1.1104 0.896446 -0.299755 20.683
594 2 2.2208 5.01223 -1.82864 22.0359
595 1 -1.1104 1.11584 -6.12566 23.8646
596 1 -1.1104 0.787981 -0.564369 23.775
599 1 -1.1104 1.03897 -6.23734 26.5475
600 1 -1.1104 0.951001 -0.735888 26.4691
603 1 -1.1104 0.923525 -3.42315 23.4911
606 2 2.2208 5.14945 -4.73682 24.9432
607 1 -1.1104 1.06824 -3.32711 26.553
609 1 -1.1104 3.85696 -6.15437 23.5548
610 1 -1.1104 3.57704 -0.362568 23.3653
611 2 2.2208 2.19114 -1.94795 25.0776
612 1 -1.1104 3.90932 -6.25097 26.1831
613 1 -1.1104 3.65346 -0.700834 26.3322
614 2 2.2208 2.26959 -4.8306 22.148
615 1 -1.1104 3.59494 -3.14725 23.6926
616 1 -1.1104 3.65359 -3.46026 26.3278
605 2 2.2208 -0.487274 -4.75862 25.1613
810 2 2.2208 22.0505 6.51663 13.7575
608 1 -1.1104 6.33105 -3.195 26.3277
597 1 -1.1104 6.43703 -6.0844 23.3983
847 2 2.2208 2.11745 3.87553 13.6629
794 2 2.2208 24.7387 3.77075 24.9977
22449 2 2.2208 13.6843 -7.41093 13.8829
22423 2 2.2208 -0.342338 -7.52153 16.6963
623 1 -1.1104 9.2975 -5.89963 20.6521
624 1 -1.1104 9.51324 -0.380862 21.018
621 1 -1.1104 12.2061 -0.708241 20.7309
620 1 -1.1104 12.2816 -6.29357 20.6629
805 2 2.2208 24.7615 3.90066 13.6962
598 1 -1.1104 6.4395 -0.483808 23.6821
601 1 -1.1104 6.72954 -6.22565 26.4108
604 1 -1.1104 6.49138 -3.48348 23.4184
602 1 -1.1104 6.19739 -0.469412 26.5872
626 2 2.2208 10.6996 -1.87049 22.1708
627 1 -1.1104 12.2442 -5.89929 23.6539
628 1 -1.1104 11.9777 -0.336993 23.6192
629 1 -1.1104 11.9934 -6.04084 26.4005
630 1 -1.1104 12.0945 -0.489477 26.5714
631 1 -1.1104 12.0118 -3.00536 23.8351
632 2 2.2208 10.5971 -4.49741 25.0155
633 1 -1.1104 11.9459 -3.24896 26.5325
634 1 -1.1104 9.23352 -6.05539 23.5358
635 1 -1.1104 9.22179 -0.632695 23.7998
636 2 2.2208 7.81688 -1.98621 24.8767
638 1 -1.1104 9.4021 -5.91808 26.6108
639 1 -1.1104 9.05667 -0.553915 26.3459
640 2 2.2208 7.84605 -4.79072 22.0487
642 1 -1.1104 9.32898 -3.44433 23.4864
643 1 -1.1104 9.14103 -3.31068 26.26
637 2 2.2208 13.5508 -1.90019 25.1277
641 2 2.2208 13.6139 -4.67567 22.197
22435 2 2.2208 7.89086 -7.43008 25.0813
837 2 2.2208 2.35107 -1.89922 13.7634
811 2 2.2208 10.6937 -1.8603 27.766
22434 2 2.2208 10.8446 -7.48658 22.0609
22421 2 2.2208 2.46209 -7.54837 19.6352
647 1 -1.1104 17.9495 -0.269927 20.6734
650 1 -1.1104 15.105 -0.30038 20.8363
651 1 -1.1104 15.0211 -3.2824 20.7895
646 1 -1.1104 17.7656 -6.14644 20.8959
792 2 2.2208 24.8819 0.963237 22.2088
821 2 2.2208 2.1279 6.35841 27.842
652 2 2.2208 16.5058 -1.70532 22.077
653 1 -1.1104 17.8623 -6.02192 23.7186
654 1 -1.1104 17.7107 -0.362508 23.5965
655 1 -1.1104 17.9222 -5.91107 26.4683
656 1 -1.1104 17.9063 -0.412863 26.3305
657 1 -1.1104 17.6359 -3.07528 23.6205
658 2 2.2208 16.1182 -4.54291 25.2274
659 1 -1.1104 17.4291 -3.25439 26.5276
660 1 -1.1104 14.9751 -5.82088 23.8244
661 1 -1.1104 14.8552 -0.54369 23.5401
662 2 2.2208 19.2103 -1.82087 24.9052
663 1 -1.1104 14.8378 -5.94332 26.8455
664 1 -1.1104 15.0726 -0.455347 26.5886
665 2 2.2208 19.1568 -4.66751 22.3632
666 1 -1.1104 14.9307 -3.25884 23.6146
667 1 -1.1104 14.736 -3.11563 26.6678
790 1 -1.1104 26.4757 2.43474 23.5895
670 1 -1.1104 20.6387 -6.13466 20.8138
679 1 -1.1104 20.6286 -6.12868 23.7219
681 1 -1.1104 20.8798 -5.91969 26.5399
683 1 -1.1104 20.7888 -3.3495 23.4956
823 2 2.2208 7.93545 6.5197 27.7149
674 1 -1.1104 23.5616 -0.380316 20.7755
672 1 -1.1104 20.9049 -3.31175 20.6434
22427 2 2.2208 19.0722 -7.51123 19.4234
593 2 2.2208 27.6761 -1.9667 22.2324
682 1 -1.1104 20.6329 -0.463059 26.458
680 1 -1.1104 20.7338 -0.43245 23.8266
673 1 -1.1104 23.3841 -6.12723 20.6148
677 1 -1.1104 26.2471 -0.666659 20.8025
684 1 -1.1104 20.4663 -3.34773 26.3067
685 2 2.2208 22.316 -1.89473 22.2408
686 1 -1.1104 23.4286 -6.20307 23.5862
687 1 -1.1104 23.686 -0.539548 23.6035
688 1 -1.1104 23.7277 -6.31719 26.4235
689 1 -1.1104 23.3917 -0.31711 26.5922
690 1 -1.1104 23.5352 -3.46676 23.85
691 2 2.2208 22.1954 -4.7327 25.1829
692 1 -1.1104 23.5912 -3.58497 26.6109
693 1 -1.1104 26.3536 -6.33286 23.7622
694 1 -1.1104 26.2732 -0.205116 23.6483
695 2 2.2208 25.1021 -1.76036 25.0949
696 1 -1.1104 26.3718 -5.87307 26.6266
697 1 -1.1104 26.2701 -0.28614 26.4831
698 2 2.2208 24.8322 -4.81179 22.2069
699 1 -1.1104 26.4511 -3.33591 23.9719
700 1 -1.1104 26.4625 -3.23464 26.6112
701 1 -1.1104 0.624464 5.02052 20.8525
703 1 -1.1104 0.77265 2.52588 20.7617
730 2 2.2208 2.18633 0.836378 22.1758
721 2 2.2208 4.89089 0.897395 24.928
711 2 2.2208 5.09047 3.70158 22.0813
712 1 -1.1104 0.777615 4.99977 23.7114