ITEM: TIMESTEP
100000
ITEM: NUMBER OF ATOMS
18000
ITEM: BOX BOUNDS pp pp pp
-5.3521077646738446e-01 2.7875210776467753e+01
-6.4652240620118322e+00 3.3454522406200510e+02
-5.5240915291988413e-01 2.7892409152920788e+01
ITEM: ATOMS id type x y z
3673 2 5.30683 -0.747512 5.23682
5 2 2.61262 -3.24049 2.72118
14 2 5.6575 -3.54246 2.35838
9 1 0.98672 -2.13368 1.57633
63 2 2.24022 -0.210007 2.12069
3604 2 2.25613 -3.62974 5.80942
3665 1 1.80127 -1.65462 4.15936
6 1 0.773572 -4.21717 3.69563
10 1 3.29685 -5.24327 4.13763
3551 1 4.18896 -2.54454 4.12154
17 1 3.75014 -4.48655 1.31361
3548 1 0.916987 -4.98644 1.38868
17952 1 3.79375 -1.88162 1.27131
19 1 6.58552 -2.24437 0.82006
3782 2 -0.340784 13.6127 8.15174
20 1 6.81633 -1.88678 3.57289
3609 1 3.64375 -5.16616 7.09594
3662 2 -0.351069 1.89621 7.9547
3625 2 10.8866 -6.37265 5.15252
18 1 6.41869 -4.9112 3.90658
22 1 6.68943 -5.25293 0.868714
3685 2 10.692 -0.753454 4.99908
30 1 12.1693 -4.98115 3.75127
31 1 12.2275 -2.09742 0.939325
26 2 10.6899 -3.62429 2.41565
75 2 8.02135 -0.554358 2.28853
3616 2 8.01988 -3.54169 4.97327
24 1 9.37828 -2.27994 3.58642
3629 1 12.0625 -2.01619 3.73224
3571 1 12.3911 -5.03541 0.911838
3564 1 9.3134 -5.00095 3.6109
17958 1 9.50564 -4.96947 0.94709
21 1 9.29133 -2.13518 0.80365
3631 1 11.9441 -2.22584 6.23398
3572 1 11.9135 -5.13376 6.6357
3748 2 13.5722 7.72589 5.04612
7321 2 -0.355732 4.68531 10.8346
3688 2 13.5775 2.0165 5.25532
70 1 3.87842 0.524076 3.65985
65 1 1.37988 2.225 1.31038
66 1 1.11992 0.832879 3.7952
74 2 5.20571 2.13586 2.3679
69 1 4.13265 3.41737 0.902416
3664 2 2.32708 2.1856 5.16728
11 1 4.1337 0.596245 0.96081
3733 2 5.14617 4.71548 4.97872
123 2 2.27354 4.84183 2.06707
72 1 3.69951 3.45541 3.55671
3667 1 1.00998 3.6613 4.03486
3729 1 3.90473 6.36126 3.8521
129 1 3.8694 6.20085 1.04173
78 1 6.59659 0.971966 3.69574
3725 1 0.784359 6.30502 6.69352
177 1 1.04932 6.43453 1.09163
3679 1 7.02914 3.09261 6.90696
130 1 1.11569 6.31243 4.00751
3677 1 6.58264 0.580224 6.48186
3671 1 3.82653 3.47665 6.31689
3726 1 3.5929 6.34649 6.73551
122 2 -0.361511 7.42052 2.77244
18000 1 1.56654 0.0359655 -0.330647
3687 2 13.5197 -0.672744 8.08288
141 1 6.74008 6.40416 0.789457
138 1 6.81493 6.55029 3.43787
77 1 6.72939 0.815211 0.886739
80 1 6.79542 3.70815 3.80013
71 1 6.71011 3.70161 0.895428
89 1 12.1297 0.637458 0.696923
32 1 12.2407 0.888787 3.7076
82 1 9.41263 0.77181 3.50951
90 1 12.1993 3.31632 3.65982
86 2 10.7741 2.03696 2.15076
81 1 9.54774 3.68876 0.929811
3676 2 8.20306 2.21344 5.13262
23 1 9.56185 0.683352 0.778612
3745 2 10.9333 4.96745 4.96508
91 1 12.3987 3.52712 0.871309
135 2 8.11284 5.01784 2.29328
3683 1 9.50932 3.54983 3.58911
149 1 9.45976 6.47515 0.670835
83 1 12.5648 6.20882 3.65525
14492 1 12.1199 6.24106 0.968896
84 1 9.65899 6.44716 3.63601
3749 1 12.5017 6.4117 6.58561
3721 2 -0.511982 4.8578 5.28385
3737 1 6.64938 6.00849 6.05273
3741 1 9.44457 6.24671 6.45759
3689 1 12.2438 0.824786 6.6101
3684 1 9.74985 3.49037 6.34192
3681 1 9.2952 0.515539 6.43796
13 2 5.37827 -6.412 -0.518197
124 2 2.77678 7.44498 -0.612095
14520 1 -0.503067 4.3363 1.69009
7383 2 2.33299 10.7204 13.5479
126 1 1.47565 9.0833 0.466567
3793 2 5.18053 10.4305 5.47976
139 1 3.66146 11.9518 0.562413
134 2 5.18809 7.53412 2.31141
128 1 0.985243 9.12164 3.62859
183 2 2.53703 10.2526 2.10602
3724 2 2.29432 7.653 5.28564
131 1 3.94807 9.03424 0.771932
132 1 4.05115 9.01455 3.57084
186 1 0.87476 11.9173 3.73521
189 1 0.869981 11.8053 0.655559
190 1 3.67381 12.2733 3.27592
198 1 6.52279 12.1041 3.44463
197 1 6.61253 12.4571 0.712027
137 1 6.72886 9.55852 1.30927
3727 1 0.94842 9.20819 6.35832
140 1 6.88996 9.58778 4.2482
3739 1 6.63321 8.75712 6.8291
92 1 12.3212 9.23843 3.3669
3805 2 10.9863 10.7362 5.08202
150 1 12.358 9.44372 0.396591
146 2 10.8957 8.01032 2.37182
195 2 8.17461 10.6092 2.48158
142 1 9.70354 9.32934 3.66467
3736 2 8.07507 7.64147 5.15165
143 1 9.47686 9.39932 0.715678
144 1 12.5997 12.1243 0.775312
210 1 12.1939 12.1259 3.41359
201 1 9.64268 12.1088 1.00979
202 1 9.39157 12.1198 3.7029
3743 1 9.41387 9.24852 6.2866
3799 1 6.73633 12.2645 6.46139
152 1 12.4822 12.1286 6.41333
3755 1 12.3488 9.22607 6.2889
3628 2 13.5898 -3.45036 5.05173
7226 2 11.1076 -3.7896 13.6138
194 2 5.19394 13.4889 2.11089
3784 2 2.32158 13.5311 4.84003
254 2 5.02746 19.0362 2.31394
3853 2 5.11749 16.1274 5.09883
245 1 0.896574 17.6476 0.794298
246 1 0.716776 17.7127 3.56955
187 1 0.752942 14.8011 1.20239
188 1 1.06324 15.0347 3.82767
249 1 3.71892 17.6891 0.783189
243 2 2.06991 16.4697 2.35217
250 1 3.64457 17.7829 3.74103
3844 2 2.26134 19.1756 5.13743
191 1 3.7437 14.7129 0.760642
192 1 3.72255 15.1191 3.50727
257 1 6.71043 17.9265 1.1854
3791 1 4.08184 14.8812 6.67581
3849 1 3.70657 18.079 6.47936
68 1 1.70373 4.31391 -0.624849
3809 1 6.7336 15.0523 6.30122
3800 1 6.95677 15.2184 9.02923
4 2 2.44313 -3.44153 -0.546607
3811 1 12.0894 15.0276 6.52119
3801 1 6.51521 14.9452 3.42985
258 1 6.60485 17.8606 3.64573
3803 1 9.43317 14.5508 6.49031
3796 2 7.91011 13.4706 4.69807
199 1 6.95813 15.333 0.589256
206 2 10.8118 13.5107 2.32853
3865 2 10.586 16.2504 5.11382
269 1 12.4355 17.9259 0.83557
270 1 12.3143 17.6322 3.45047
211 1 12.3488 15.0524 0.938828
266 2 10.9018 19.0471 2.23546
212 1 11.9905 14.8015 3.70877
255 2 8.08856 16.4413 2.33567
262 1 9.47697 17.7335 3.62071
203 1 9.41879 17.9116 0.740437
204 1 9.68306 14.7018 0.816354
200 1 9.27797 15.0738 3.77087
3856 2 7.83572 19.2066 4.99969
61 2 -0.396511 1.59027 -0.271947
3861 1 9.31225 17.7144 6.48136
3869 1 12.0013 17.7326 6.28109
3611 1 3.71945 -2.27594 6.91583
3862 1 9.5926 17.5646 9.17675
58 1 1.05286 -5.32993 6.63304
12 1 0.674588 -2.21831 6.70429
3605 1 0.907734 -2.05165 9.36793
7273 2 5.24514 -0.926897 10.8493
7205 1 1.0928 -5.15253 12.4368
7207 1 0.714619 -2.2838 12.32
3614 2 5.14971 -3.67217 8.02007
7209 1 3.66804 -5.10447 12.6764
3663 2 2.44229 -0.829798 8.07096
3610 1 3.74107 -5.03337 9.83553
7204 2 2.40673 -3.6386 10.9985
7211 1 3.82674 -2.20632 12.259
3612 1 3.67984 -2.23927 9.51178
3658 1 0.967836 -4.79116 9.4048
3620 1 6.59779 -2.34206 9.31152
3619 1 6.44407 -2.31611 6.4904
3621 1 8.87054 -5.10329 6.42741
3857 1 6.32993 18.1142 6.4891
3842 2 -0.251494 19.4127 7.91781
7461 1 9.2064 17.6877 12.2066
7455 2 8.13049 16.3388 13.6099
7217 1 6.64281 -5.2179 12.4082
7219 1 6.48471 -2.25109 12.2564
3617 1 6.30015 -5.34127 6.77834
3618 1 6.45363 -5.1928 9.8228
3623 1 9.39864 -2.43627 6.43323
7232 1 12.4434 -2.23922 12.2972
7172 1 12.1558 -4.92525 9.23611
7285 2 10.8597 -0.612341 10.7429
7229 1 12.4121 -4.95692 12.252
3626 2 10.677 -3.92275 7.90157
3632 1 12.0863 -1.9496 9.34426
7221 1 9.59458 -5.14052 11.9097
3675 2 8.00157 -0.941392 7.97544
3622 1 9.36774 -5.10507 9.31409
7216 2 8.01805 -3.71715 10.8557
7223 1 9.62747 -2.06787 12.287
3624 1 9.40393 -1.95407 9.38499
179 2 -0.485037 8.2172 -0.323003
3669 1 3.89455 0.673176 6.56847
184 2 2.08422 13.6042 -0.49668
7261 1 0.968254 3.51348 6.88108
3666 1 1.03762 0.749178 6.35951
3608 1 0.904379 0.685622 9.37154
7269 1 3.83859 0.432296 12.2234
3607 1 0.96373 3.41626 9.59565
7265 1 1.01009 0.370319 12.3782
3674 2 5.33003 1.95456 8.00589
3670 1 3.63939 0.43776 9.53606
7264 2 2.30704 1.826 10.9165
7333 2 5.02703 4.77262 10.8075
7267 1 1.09732 3.37963 12.1876
7329 1 3.77255 6.31826 12.1003
3723 2 2.37974 4.80258 7.98952
7271 1 3.84536 3.35357 12.3656
3672 1 3.70448 3.27815 9.12496
3778 1 3.4988 6.16905 9.51282
7325 1 0.905379 6.27004 12.412
3668 1 0.877061 6.18447 9.4436
3678 1 6.51191 0.602619 9.35392
7279 1 6.47402 3.52302 12.2378
3680 1 6.65666 3.78886 9.7003
7454 2 5.38227 19.2689 13.5162
7468 2 13.5516 19.2303 10.662
7231 1 12.0807 0.565748 12.5892
7396 2 8.18163 13.5249 10.8924
3730 1 6.74614 6.69911 9.07831
7337 1 6.43703 6.35976 12.0018
7277 1 6.57286 0.647826 12.1536
3691 1 12.4192 3.6632 6.36219
3682 1 9.19637 0.653806 9.21612
7289 1 12.2955 3.3419 11.9971
3690 1 12.1158 0.80076 9.73234
3686 2 10.6825 2.03108 8.03629
7281 1 9.21075 0.676818 12.2544
7276 2 7.7964 2.08681 10.8632
3742 1 9.65955 3.34741 9.58398
3735 2 8.15417 4.91668 8.11493
7345 2 10.9122 4.92109 10.8662
7291 1 8.9709 3.3855 12.2653
3692 1 12.1581 3.46002 9.15446
3750 1 12.4316 6.55102 9.49084
7341 1 9.67527 6.36402 9.32449
7349 1 12.3023 6.60082 12.4859
7283 1 9.42238 6.26457 12.054
7456 2 8.08251 19.1652 10.7068
3858 1 6.37806 18.0503 9.46117
3789 1 3.55329 12.3134 6.19265
7228 2 13.434 -3.49391 10.5959
3785 1 1.05725 12.1219 6.58417
3731 1 3.53417 9.13411 6.77663
7393 2 5.0577 10.5401 10.7229
7327 1 0.886018 9.03612 12.1621
3734 2 4.98046 7.88517 8.24767
3728 1 0.879151 9.04523 9.36427
3783 2 2.3259 10.5102 8.11628
7324 2 2.14759 7.6397 10.7101
7331 1 3.61552 9.07978 12.3728
3732 1 3.72216 9.00516 9.63363
7389 1 3.47097 11.965 12.2391
3786 1 0.912246 11.888 9.48172
7385 1 0.696796 11.9414 12.0542
3790 1 3.62636 11.8394 9.57827
3740 1 5.23536 10.7482 7.60489
7339 1 6.559 9.02388 12.0281
3738 1 6.49112 9.13372 9.626
3661 2 -0.313094 -0.819757 5.13803
3867 2 13.5461 16.4064 7.59217
7397 1 6.54108 12.0698 12.407
3751 1 9.52377 12.0283 6.75948
3804 1 9.02337 11.9093 9.4624
7401 1 9.57352 11.937 12.2053
3744 1 9.42665 9.17055 9.37031
7343 1 9.44352 9.24974 12.2167
7336 2 7.95078 7.75448 10.9299
3795 2 7.85827 10.3561 7.98471
7405 2 10.8359 10.4969 10.7063
7351 1 12.2569 9.21686 11.9022
3746 2 10.8952 7.74308 8.01982
3752 1 12.3155 9.15562 9.00345
7355 1 12.2837 11.8889 12.2019
3802 1 6.58569 12.4937 9.2726
3810 1 12.1893 12.074 9.51036
256 2 7.81728 18.9047 -0.461789
3870 1 12.2063 17.8301 9.19245
7441 2 -0.381089 16.2305 10.9192
7399 1 6.71506 14.7504 12.0511
3845 1 0.754003 17.7983 6.53887
7312 2 -0.486575 -0.924101 10.9189
7457 1 6.48158 17.6676 12.1098
3794 2 4.80913 13.1746 7.92117
3787 1 0.896443 14.8749 6.52759
7384 2 2.19885 13.3476 10.923
7387 1 1.03787 14.7664 12.2396
7444 2 2.44748 19.2602 11.1802
7391 1 3.83184 14.9623 12.4781
7449 1 3.85552 17.6588 12.6379
3846 1 0.878759 17.7804 9.53541
3788 1 0.836943 14.8413 9.58395
3854 2 5.04835 19.379 7.87089
7445 1 0.72223 18.0778 12.157
7453 2 5.09115 16.4188 10.985
3850 1 3.52826 17.6478 9.5942
3843 2 2.05691 16.2567 8.15476
3792 1 3.68422 14.8383 9.5604
7409 1 12.2272 14.8585 12.2022
3866 2 10.8993 19.2216 7.62923
3855 2 7.80018 17.0852 7.89279
3798 2 7.92864 13.6645 7.84207
7469 1 11.9878 17.8567 11.9229
7403 1 9.38675 14.8357 12.2075
3812 1 12.1201 15.063 9.46091
7465 2 10.8163 16.3062 10.6898
3806 2 11.1442 13.4359 7.94322
3797 1 9.48211 14.3318 9.22364
136 2 7.96192 7.90933 -0.475976
7466 2 11.1311 19.2017 13.5444
7334 2 5.042 7.69277 13.6632
14406 1 -0.623593 -3.54599 -0.386328
7467 2 13.6961 16.2498 13.5685
7346 2 10.649 7.82763 13.5347
7408 2 13.4334 13.4444 10.8484
3722 2 -0.467386 7.55963 8.06402
242 2 -0.588972 19.2656 2.12084
3868 2 13.5995 19.181 4.91745
7407 2 13.4703 10.5341 13.5453
7335 2 7.95332 4.92103 13.4045
193 2 5.12556 10.791 -0.451558
7323 2 2.40196 4.84233 13.5323
244 2 2.31946 19.0402 -0.484276
7 1 -0.394382 -0.0442632 1.61038
3841 2 -0.435429 16.2937 4.97951
133 2 5.42203 4.91745 -0.527254
7395 2 7.89456 10.5325 13.6365
16 2 7.93135 -3.49736 -0.493636
64 2 2.82951 2.13891 -0.491118
10873 2 5.04852 -0.728428 16.6288
10805 1 0.705193 -4.97273 17.9892
7206 1 1.04074 -5.18163 15.2032
10807 1 1.10565 -2.15352 17.9561
10814 2 4.99938 -3.53568 19.6939
7208 1 0.891062 -2.20799 15.0332
10809 1 3.29193 -4.70794 18.3198
10863 2 2.30412 -0.880775 19.4615
7210 1 3.87175 -5.04362 15.493
10804 2 2.36808 -3.52569 16.6231
10811 1 3.74933 -2.06705 17.9092
7212 1 3.80712 -2.3311 15.1059
10819 1 6.4706 -2.0831 18.3969
10808 1 0.853317 -2.13862 20.8081
10806 1 0.823229 -4.86203 20.9419
7220 1 6.60445 -1.96494 15.1092
196 2 8.08743 13.409 27.7572
7275 2 7.98497 -0.866357 13.6867
7406 2 10.8821 13.5044 13.6807
11008 2 13.602 13.4059 16.4778
14415 2 8.05327 -6.39989 24.9102
10817 1 6.32057 -4.90401 17.9961
7218 1 6.45462 -4.97736 15.333
10885 2 10.7321 -0.779002 16.5856
10829 1 12.3623 -4.99615 18.1378
7230 1 12.1676 -5.04222 15.1809
10831 1 12.1269 -2.3566 15.2255
10826 2 10.6352 -3.64799 19.2594
10821 1 9.31854 -5.30305 17.8385
10875 2 7.89375 -0.769801 19.591
7222 1 9.51845 -5.17614 14.6678
10816 2 7.86102 -3.58435 16.6053
10823 1 9.26627 -2.20903 17.9497
7224 1 9.18347 -2.16238 15.2072
10889 1 12.0243 -2.23257 18.0216
10824 1 9.19072 -2.3702 20.5913
14468 1 -0.35177 4.814 25.5694
10818 1 6.77114 -5.12374 20.8605
10832 1 12.0606 -2.09204 20.7553
14403 2 2.31663 -6.36759 25.1517
7270 1 3.7582 0.518467 15.048
10865 1 1.09623 0.53706 18.1151
7266 1 1.20424 0.836047 15.2213
10874 2 5.14399 1.94817 19.5787
10869 1 3.68124 0.576802 17.952
10864 2 2.40794 2.16739 16.6372
10933 2 5.08411 4.86631 16.4251
10867 1 0.940437 3.50496 18.1046
7268 1 1.03855 3.37734 15.2442
10923 2 2.23677 4.86285 19.5023
10871 1 3.71936 3.62743 17.8836
7272 1 3.82303 3.36582 15.0542
10929 1 3.7046 6.37127 18.0223
10925 1 0.829315 6.23804 18.1997
7330 1 3.76396 6.23378 15.0546
10926 1 0.713612 6.3 20.9202
10866 1 1.022 0.6135 21.0607
10872 1 3.8658 3.3171 20.8764
14521 2 -0.424121 4.73575 22.1187
7338 1 6.37257 6.18555 14.9421
10937 1 6.66292 6.26301 17.9604
7326 1 1.06328 6.18554 15.1831
10868 1 1.05567 3.45793 20.7354
10930 1 3.65351 6.46352 20.9679
10870 1 3.73452 0.496957 20.7004
73 2 5.1949 -0.733229 27.8246
10879 1 6.58517 3.39199 17.9225
10877 1 6.748 0.925255 17.9599
7280 1 6.67887 3.56548 15.0048
7278 1 6.55124 0.651541 14.9662
10880 1 6.65819 3.34315 20.7217
10893 1 12.202 0.732844 17.9102
7290 1 12.0896 0.564877 15.3612
10881 1 9.45456 0.78423 18.1102
10886 2 10.8674 1.98047 19.461
7282 1 9.27447 0.586388 14.8832
10876 2 8.1003 2.11246 16.6332
10945 2 10.8228 4.82452 16.5519
10891 1 12.2693 3.54766 17.9244
7292 1 12.1142 3.36431 15.1724
10935 2 7.8798 4.85637 19.4117
10883 1 9.57041 3.59156 18.0688
7284 1 9.19772 3.66251 15.227
10949 1 12.3211 6.34472 18.0477
10941 1 9.3241 6.26659 17.805
7342 1 8.99159 6.66705 14.7547
10882 1 9.26147 0.673448 20.8767
10942 1 9.43164 6.16722 20.6561
10938 1 6.62975 6.41597 20.8397
10890 1 12.1322 0.596729 20.6627
10950 1 12.3224 6.64689 20.5886
10884 1 9.63658 3.32992 20.8673
14413 2 5.13093 -6.26771 22.4868
10993 2 5.0158 10.5868 16.4945
10927 1 0.698245 8.92896 17.6511
10934 2 5.20723 7.64431 19.5029
7328 1 0.963895 9.21388 14.9461
10983 2 2.31901 10.7494 19.394
10924 2 2.57181 7.77655 16.5883
10931 1 3.56313 9.04788 18.2018
7332 1 3.93762 9.11553 15.2028
10985 1 0.846813 11.8764 17.9717
7386 1 0.742028 11.9973 14.9742
10989 1 3.47058 12.038 17.9162
7390 1 3.63637 11.7878 15.2166
10928 1 0.865332 9.25952 20.6831
10939 1 6.37684 9.04316 17.8417
7340 1 6.37462 9.06612 15.0654
10986 1 0.970551 12.2449 20.4173
10998 1 6.39048 12.1186 20.7184
10815 2 7.89283 -6.36362 19.3142
209 2 10.9245 10.7635 27.6495
10990 1 3.80413 11.982 20.757
7274 2 5.04098 1.90765 13.9162
10997 1 6.75724 12.0414 18.0071
7398 1 6.55063 12.1288 15.0793
7350 1 11.7247 6.63079 15.2563
11005 2 10.7236 10.607 16.4945
10951 1 12.0915 9.37639 18.1694
10946 2 10.7863 7.91197 19.3884
7352 1 12.1665 9.53336 15.0573
10995 2 7.91589 10.4114 19.3014
10936 2 7.98409 7.52455 16.4882
10943 1 9.27268 9.06053 17.8572
7344 1 9.29149 9.51231 15.0938
11009 1 12.1184 12.0838 17.8208
7410 1 12.2195 12.3941 15.0567
11001 1 9.47179 11.7228 18.0838
7402 1 9.46609 12.1502 15.1283
7227 2 13.6493 -6.19745 13.8604
10952 1 12.0761 9.22389 20.9362
265 2 10.8438 16.248 27.8673
14606 1 9.30228 15.1129 26.6504
10827 2 13.5326 -6.41124 19.3538
10984 2 2.10936 13.291 16.681
10994 2 5.19061 13.3839 19.311
11053 2 5.00944 16.3223 16.3978
11045 1 0.689682 17.5723 17.8435
7446 1 0.750698 17.5938 15.0365
10987 1 1.12242 14.6066 18.0007
11054 2 5.05792 19.0989 19.2875
7388 1 0.834108 14.9288 15.3646
11049 1 3.62856 17.4642 17.9893
11043 2 2.3389 16.173 19.4015
7450 1 3.54245 17.5731 15.2973
11044 2 2.15209 18.9187 16.179
10991 1 4.04098 14.9361 17.82
7392 1 3.78109 14.5631 15.4298
7286 2 10.6897 2.08269 13.7573
7214 2 5.24421 -3.55593 13.7714
10988 1 1.09262 14.9102 20.7665
11000 1 7.06422 14.8841 20.5658
11068 2 13.5888 19.3193 16.4053
88 2 13.6438 2.05446 27.6011
14425 2 10.6689 -6.40514 22.0432
11070 1 12.2015 17.5771 20.8284
7458 1 6.62252 17.6602 14.8838
7400 1 6.68076 14.9957 14.9536
10999 1 6.6621 14.8325 17.8394
11057 1 6.26295 17.7387 17.7373
10996 2 8.05435 13.2835 16.5199
11006 2 10.8716 13.4369 19.2724
11065 2 10.986 16.3975 16.6151
11069 1 12.3693 17.8757 17.8005
7470 1 12.5419 17.749 14.8096
11011 1 12.2893 14.9513 17.9779
7412 1 12.455 14.8667 15.1283
11061 1 9.48746 17.6462 18.0178
11055 2 7.97787 16.3683 19.142
7462 1 9.61348 17.524 15.0646
11056 2 8.07327 18.8909 16.4449
11003 1 9.68051 14.9191 17.8519
7404 1 9.79966 15.0139 14.9004
11066 2 10.6215 19.214 19.4229
10948 2 13.5825 7.39598 16.3551
14547 2 13.667 5.10852 24.9774
10812 1 3.70188 -2.1851 20.867
7287 2 13.2903 -0.666594 13.858
14428 2 13.5761 -3.54607 22.1801
10825 2 10.8359 -6.34789 16.7155
10810 1 3.88148 -5.29897 20.8795
17948 1 1.17804 -5.46615 26.9068
14473 2 5.27186 -0.742225 22.1934
14405 1 0.941294 -5.04669 23.9325
14418 1 3.77196 -2.04157 26.4773
14407 1 0.5821 -2.38511 23.6199
14414 2 5.1175 -3.48658 25.1762
14463 2 2.17963 -0.564242 25.0144
14410 1 3.65508 -4.75619 23.9519
14404 2 2.23686 -3.5422 22.3337
14411 1 3.65708 -1.98952 23.7117
17950 1 4.05753 -4.95995 27.0404
14458 1 1.08838 -2.39785 26.3801
7262 2 -0.349862 1.96687 13.6785
10947 2 13.6389 4.97884 19.409
14603 1 9.42059 14.7823 23.6074
14611 1 12.4807 14.7657 23.696
10820 1 6.32347 -2.3249 20.9751
14409 1 6.56419 -5.01786 23.6613
10822 1 9.51901 -4.90191 20.7716
10830 1 12.0197 -4.88994 20.8957
14419 1 6.67255 -2.13606 23.6611
14420 1 6.73732 -2.07526 26.397
17960 1 6.65991 -4.9924 26.3334
14432 1 12.1722 -2.25897 26.2526
17964 1 9.35144 -5.03042 26.5628
14485 2 10.8795 -0.635594 22.0871
14429 1 11.8802 -5.09401 23.5189
14431 1 12.3163 -1.98283 23.4571
14426 2 10.7295 -3.52388 24.8055
14421 1 9.18557 -4.8963 23.4517
14475 2 8.00499 -0.669432 24.8426
14422 1 12.294 -5.13447 26.5312
14416 2 7.91663 -3.66146 22.1365
14423 1 9.50354 -2.24435 23.4442
14424 1 9.38251 -1.96326 26.4538
7394 2 5.1641 13.4108 13.7276
145 2 10.943 5.06918 27.7318
7202 2 -0.369291 -3.81105 13.8313
85 2 10.8003 -0.67903 27.8755
29 2 13.5992 -3.78883 27.9168
14469 1 3.88125 0.725319 23.606
14465 1 0.746139 0.562763 23.7511
14474 2 5.20355 2.06993 25.1373
14464 2 2.56541 1.95447 22.2275
14412 1 3.66795 0.546576 26.5177
67 1 1.23731 2.16771 26.5608
14533 2 5.07836 4.95988 22.2834
14467 1 0.859555 3.33412 23.4162
14523 2 2.23875 4.66953 25.1375
14471 1 3.49122 3.2757 23.8093
14472 1 4.02944 3.50983 26.439
14529 1 4.05272 6.30195 23.8635
14479 1 6.29602 3.73016 23.7529
14525 1 1.10884 5.99766 23.7776
14530 1 4.04096 6.17277 26.6114
14480 1 6.73033 6.41903 26.3654
14662 1 9.10926 17.6312 26.4571
253 2 5.04333 15.9952 27.8229
11012 1 12.4001 14.905 20.7398
14666 2 10.639 18.9576 25.0647
10892 1 12.3921 3.49368 20.9105
11007 2 13.6366 10.6727 19.3438
7263 2 2.37096 -0.80132 13.7508
14477 1 6.64304 0.703986 23.5955
14470 1 6.33243 0.730108 26.5683
10878 1 6.5322 0.607093 20.8651
14478 1 6.7847 3.68533 26.6046
14482 1 9.21068 1.06574 26.3281
14489 1 12.252 0.739155 23.455
14490 1 12.0616 0.800262 26.3188
14481 1 9.35883 0.941429 23.7073
14476 2 8.02292 2.25041 22.1902
76 2 10.7711 2.27783 25.016
14486 1 12.3909 3.59592 26.4631
14484 1 9.34936 3.68674 26.4425
14483 1 9.10474 3.82801 23.5747
14535 2 7.98692 5.05867 24.9453
14545 2 10.9227 5.01589 21.9859
14491 1 12.158 3.55109 23.4437
14542 1 9.66325 6.30811 26.3907
14541 1 9.38954 6.45902 23.6483
14549 1 12.111 6.38359 23.6651
14550 1 12.4522 6.54567 26.679
14537 1 6.69641 6.29431 23.5142
14522 2 -0.214932 7.12074 24.9628
10940 1 6.39585 9.16647 20.8057
181 2 -0.526645 10.3138 24.3853
14604 1 6.47126 14.8579 26.3577
10932 1 3.53134 9.11075 20.9706
14528 1 -0.0711821 9.471 26.3764
125 1 0.920477 6.76875 26.9781
14638 1 1.29879 10.9993 23.142
14527 1 1.31515 8.55523 24.3621
14593 2 4.95439 10.6689 22.102
14534 2 5.16351 7.6585 25.0361
14540 1 3.83538 12.1186 26.2199
14583 2 2.65163 10.4833 24.9526
14524 2 2.00322 7.81104 22.3358
14531 1 4.06083 9.25889 23.6963
14532 1 3.46436 9.0595 26.4659
14589 1 3.683 12.1502 23.6394
14590 1 0.79689 11.8894 25.9633
14539 1 6.65745 9.29002 23.9591
11062 1 9.42403 17.6608 20.8085
14665 2 10.9556 16.2003 22.2635
14548 2 13.5864 7.65473 22.257
14538 1 6.23373 9.15729 26.6933
14597 1 6.64963 11.9678 23.4458
14600 1 6.34428 11.9142 26.3464
10861 2 -0.290691 -0.577064 16.6043
11002 1 9.56371 11.958 20.9014
11010 1 12.3948 12.0571 20.6829
10944 1 9.159 9.22195 20.8161
14602 1 9.42299 12.0557 26.3547
14601 1 9.40232 12.1886 23.677
14610 1 12.2405 12.031 26.2737
14609 1 12.3502 11.9968 23.4614
14544 1 9.23988 9.30324 26.4608
14543 1 9.4662 9.30685 23.4927
14536 2 7.9142 7.87191 22.1773
14595 2 8.0741 10.7051 24.9842
14605 2 10.9476 10.5771 22.2078
14551 1 12.1767 9.26966 23.4656
14546 2 10.5617 7.82775 24.9031
14552 1 11.7449 9.5296 25.8285
14582 2 -0.578458 13.7502 25.1376
14656 2 7.93816 19.2086 22.2179
11058 1 6.57926 17.8368 20.7832
10992 1 4.10077 15.0145 20.5502
14661 1 9.40249 17.8067 23.4181
14585 1 -0.353617 8.72091 22.6954
11050 1 3.6717 17.7719 20.6833
14584 2 2.26003 13.2718 22.0963
14658 1 6.54041 17.609 26.2601
11046 1 0.846752 17.5768 20.506
14592 1 3.76858 17.6385 26.4741
14643 2 2.29201 16.2313 24.9663
14650 1 0.979109 17.5543 26.4502
14649 1 3.73149 17.6398 23.5525
14588 1 1.11727 14.9662 26.3678
14594 2 5.19263 13.6645 24.8504
14598 1 3.70262 15.2023 26.3716
14654 2 4.94558 18.9079 25.034
14587 1 0.839366 14.6475 23.4611
14653 2 5.20515 16.3727 22.0335
14645 1 0.788315 17.5694 23.4836
14644 2 2.14271 19.0139 22.098
14591 1 3.67629 14.7328 23.4143
14599 1 6.54629 15.1562 23.5661
14670 1 12.2576 17.732 26.4533
14596 2 8.02338 13.2544 21.9144
14612 1 12.1728 14.787 26.7166
14655 2 7.94111 16.3388 24.9335
14657 1 6.71538 17.9171 23.4619
11004 1 9.82264 14.7145 20.7968
14669 1 12.1809 17.7259 23.6461
205 2 10.9571 13.3995 25.0495
25 2 10.7579 -6.36068 27.7657
14668 2 13.6041 18.9448 22.1378
10862 2 -0.170757 2.00768 19.3822
7443 2 2.41323 16.2332 13.8641
79 2 7.94554 2.34075 27.8166
7322 2 -0.370677 7.69008 13.7623
3913 2 4.89057 22.1902 5.14453
305 1 1.14668 23.2402 0.75492
306 1 0.878359 23.0683 3.43318
247 1 0.636317 20.4611 0.708788
314 2 5.40473 25.0241 2.10277
248 1 1.09872 20.4507 3.58402
309 1 4.05648 23.1828 0.933583
303 2 2.34482 21.7874 2.22789
310 1 3.8233 23.4922 3.81969
3904 2 2.36253 24.9614 4.98159
252 1 3.56376 20.5278 3.65412
251 1 3.57051 20.3527 0.811362
307 1 1.5099 26.5548 0.338234
318 1 6.49812 23.8708 3.75542
3859 1 6.25528 20.7778 3.74569
319 1 6.83159 26.4276 0.898375
317 1 7.00797 23.4046 1.00457
4170 1 12.4044 46.2388 9.45815
14773 1 4.46074 25.865 0.311973
7703 1 9.17782 40.721 9.40406
7586 2 10.6642 30.6886 13.6114
7696 2 7.40858 41.9994 10.6039
3905 1 0.832321 23.4458 6.24737
3847 1 1.07615 20.6794 6.50804
4155 2 7.8646 44.8377 8.01179
261 1 6.51893 20.6108 0.526366
3925 2 10.7981 22.0234 4.80006
329 1 12.3918 23.4971 0.484579
330 1 12.3098 23.5052 3.20413
326 2 11.0852 24.9982 2.03888
272 1 12.1885 20.5224 3.62745
321 1 9.65993 23.8213 0.198624
315 2 7.87439 22.0648 2.60741
322 1 9.56349 23.706 3.13858
3916 2 7.84518 25.105 5.17255
263 1 12.2078 20.7027 0.890902
264 1 9.40979 20.6212 3.4523
14664 1 9.24626 21.0215 0.880939
323 1 9.69741 26.5814 0.983781
331 1 12.5085 26.3956 0.68536
539 2 -0.491229 41.7932 2.51427
553 2 5.18787 45.0075 -0.546472
7575 2 7.9396 27.9757 13.5579
7694 2 5.09826 41.9658 13.6422
312 1 3.64947 26.3358 3.38545
4112 2 10.5957 41.972 10.9359
308 1 0.864355 26.2037 3.40564
3961 2 -0.336922 27.5693 4.90036
3973 2 5.14686 27.9977 4.96099
363 2 2.24293 27.8803 2.0827
426 1 1.17111 31.8925 3.42352
374 2 5.33279 30.7617 2.44708
368 1 1.01542 28.9152 3.66231
370 1 3.69907 29.3771 3.44855
3964 2 2.36243 30.7994 5.00394
371 1 3.82722 32.0263 0.923568
372 1 3.73817 32.178 3.67455
369 1 4.09303 28.9383 0.467265
417 1 1.05324 29.6544 0.773797
7755 2 7.89755 44.9689 13.4612
378 1 6.71565 29.1984 3.64778
379 1 6.50812 31.9929 0.745134
380 1 6.72184 32.2022 3.68872
3919 1 6.41854 26.6957 6.66158
3971 1 3.69849 32.1103 6.36261
14818 1 0.648216 32.4182 0.45345
320 1 6.65446 26.4867 3.66162
324 1 9.42338 26.2725 3.86353
332 1 12.5576 26.3077 3.48352
377 1 6.5669 29.4062 0.843556
3985 2 10.8955 27.9091 5.0468
375 2 8.20211 27.8431 2.37293
390 1 12.4213 29.0217 3.86078
391 1 12.3329 29.0503 0.759679
386 2 10.8957 30.6156 2.15652
392 1 12.2627 31.8817 3.40401
381 1 9.18847 29.2052 0.726894
382 1 9.25826 29.4524 3.58745
3976 2 8.00191 30.71 4.9921
383 1 9.3788 32.2027 0.623133
384 1 9.57167 32.1212 3.42228
395 1 12.1377 31.7103 0.204399
567 2 13.6265 44.881 2.37289
7647 2 13.499 33.4102 13.6021
7528 2 13.5241 24.882 10.6372
7574 2 4.95577 30.3723 13.6396
423 2 2.28543 33.5574 2.25201
4033 2 5.07116 33.6069 4.90926
425 1 0.922123 35.2075 0.912345
434 2 4.86581 36.2542 2.25558
429 1 3.60105 34.9578 0.714524
430 1 3.52975 34.9333 3.52298
4024 2 2.34843 36.4616 4.99422
428 1 0.930197 34.6206 3.7867
486 1 0.729013 37.7232 3.48996
427 1 0.646679 37.7587 0.526906
431 1 3.60924 37.9202 0.725515
432 1 3.76324 37.674 3.67156
4093 2 5.17568 39.0739 4.8985
7643 1 8.83875 43.3355 11.9515
438 1 6.38652 34.8657 3.42544
437 1 6.33067 34.77 0.824415
439 1 6.5722 37.8392 0.820988
440 1 6.49295 37.677 3.46743
7711 1 12.2043 40.6428 12.3571
4025 1 0.912536 34.9216 6.40393
4099 1 6.77378 43.2605 6.58523
7695 2 7.85811 39.3407 13.582
436 2 7.76811 36.3735 -0.508429
4045 2 10.6831 33.5824 4.97163
449 1 12.2626 34.3512 0.714935
450 1 12.2516 34.8574 3.52436
446 2 10.8006 36.2161 2.42654
441 1 9.2934 34.9921 1.011
435 2 8.03437 33.394 2.23431
442 1 9.13764 34.9236 3.53378
4036 2 7.98276 36.36 4.82762
509 1 12.3255 37.1672 1.11551
452 1 12.2774 37.7066 3.82777
443 1 9.37331 37.8061 0.806387
444 1 9.31967 37.6575 3.41323
4105 2 10.9829 39.2761 5.04698
7563 2 2.06274 27.8119 13.6771
566 2 10.8324 45.0691 -0.553424
362 2 -0.486844 30.1425 2.58424
4049 1 12.1848 34.6375 6.10859
4043 1 9.37843 37.6759 6.1313
3987 2 13.6277 27.8629 7.99517
483 2 2.27626 39.3407 2.31155
4047 2 13.6158 33.2937 8.0681
4153 2 5.233 44.8172 5.2848
485 1 0.706257 40.4726 0.981987
487 1 0.810221 43.2421 1.16003
494 2 5.18593 42.043 2.10748
488 1 0.862003 40.518 3.75053
489 1 3.53195 40.6121 0.891009
543 2 2.27692 44.9393 2.52151
490 1 3.85413 40.5253 3.48915
4084 1 0.829665 43.2152 3.89293
491 1 3.92531 43.373 0.622203
492 1 3.64985 43.1493 3.41584
482 2 2.24883 41.9923 4.84971
500 1 6.65117 43.4146 3.72501
4087 1 0.562633 43.417 6.94923
4097 1 6.49149 40.4876 6.27483
497 1 6.38806 40.8847 0.700051
498 1 6.49953 40.4904 3.56346
4091 1 3.70185 43.3272 6.17663
4085 1 0.95573 40.5246 6.7119
4048 2 13.6722 36.2119 5.09248
7709 1 12.1179 40.3021 9.51861
495 2 7.96443 39.187 2.29962
499 1 6.76772 43.5504 0.890838
14910 1 12.2741 40.1904 0.934936
510 1 12.351 40.8212 3.52949
569 1 12.3918 43.2871 1.01891
4165 2 10.6351 44.6781 5.31074
506 2 10.8465 41.9324 1.99909
501 1 9.37849 40.7572 0.743622
555 2 8.08782 44.8825 2.21002
502 1 9.36356 40.5482 3.49686
4096 2 8.01162 42.0889 4.89813
503 1 9.52677 43.31 0.688724
504 1 9.41825 43.2361 3.41099
565 1 12.0256 43.4543 4.14669
512 1 12.3319 40.4704 6.27958
570 1 11.8704 43.6936 6.95892
4111 1 11.3974 43.3753 12.5138
4103 1 9.22813 43.311 6.70435
4102 1 9.49137 43.3108 9.39594
3851 1 3.80833 20.8423 6.60964
3909 1 3.67636 23.5303 6.5576
7459 1 3.95005 20.6648 9.58339
7505 1 1.37821 23.6595 11.9773
7447 1 1.08375 20.5846 12.2802
7513 2 5.19385 21.9328 10.8445
7517 1 4.19339 23.1796 12.4639
3906 1 0.916132 23.5645 9.07657
3914 2 5.07979 24.8914 8.18628
7509 1 3.99552 20.5184 12.3812
3903 2 2.36185 22.0393 7.94493
3910 1 3.71917 23.5515 9.5286
7504 2 2.27816 25.029 10.5485
3852 1 1.24922 20.5724 9.35249
7501 2 0.224343 22.0716 10.8864
7560 1 1.02136 26.5161 11.9074
7511 1 3.9209 26.1181 11.7379
7451 1 6.62676 20.2785 11.9625
7519 1 6.64672 25.8086 12.1558
3917 1 7.10236 23.7809 6.84942
3912 1 3.71725 26.6611 8.90025
3911 1 3.77686 26.3391 6.31909
3908 1 0.621688 26.3628 9.19293
3929 1 12.4445 23.4375 6.12742
3921 1 9.66681 23.4247 6.22156
3860 1 6.47522 21.1873 6.54598
3918 1 6.60552 23.5755 9.75369
7515 1 6.39558 20.962 9.07104
3871 1 11.9577 20.7231 6.37396
3863 1 9.49158 20.6375 6.17391
7471 1 12.3442 20.8483 11.6622
7463 1 9.90265 20.2253 11.5291
7525 2 10.9241 22.1853 10.6945
7529 1 12.3071 23.767 12.1554
3930 1 12.1619 23.4924 9.17613
3926 2 10.7796 24.856 7.77312
3872 1 11.8792 20.6768 8.91357
7521 1 9.44008 23.2486 12.307
3915 2 8.15855 22.043 7.82787
3922 1 9.50665 23.4082 9.48803
7516 2 8.17225 24.7756 10.6993
3864 1 8.66871 19.9007 8.58917
3924 1 9.74933 26.1399 9.31384
7588 2 13.5972 30.4667 10.8088
3920 1 6.82167 26.1835 9.16011
7531 1 12.3025 26.5548 12.1281
3907 1 1.02596 26.2326 6.15869
3968 1 0.632396 31.9304 6.39359
3965 1 0.885335 28.8947 6.20484
3969 1 3.65506 29.4747 6.20741
7573 2 5.05894 27.7851 10.8479
3963 2 2.18521 27.6523 7.64174
7565 1 0.898381 29.2439 12.0588
3966 1 0.797281 29.2039 9.02411
7567 1 0.981434 32.0041 9.30093
3974 2 5.01746 30.6173 7.792
7569 1 3.41779 28.764 11.9067
3970 1 3.74929 29.2303 9.1468
7564 2 2.26285 30.3801 10.5556
7571 1 3.08883 31.8115 12.2307
3972 1 3.63818 32.1186 9.40518
7625 1 0.724246 35.0187 12.3506
7572 1 6.17661 31.5774 12.1222
3977 1 6.61603 29.462 6.44378
3978 1 6.54 28.9151 9.51677
3979 1 6.23254 32.1812 6.45736
7577 1 6.58483 28.8537 12.1294
7699 1 6.19939 43.5796 12.3124
4110 1 12.0198 43.3324 9.84138
3983 1 9.16396 32.2131 6.13549
3991 1 12.2059 31.9519 6.50592
3989 1 12.3472 28.991 6.37512
3981 1 9.4377 29.248 6.15636
3990 1 12.4006 26.3029 9.43503
3980 1 6.5161 31.7904 9.13048
3923 1 9.34822 26.3233 6.37202
3931 1 12.0412 26.2719 6.37612
7523 1 9.17402 26.4548 12.1864
7585 2 10.8656 27.8466 10.8326
3975 2 7.91354 27.6092 7.98328
7589 1 12.2081 29.3442 12.1112
7591 1 12.2628 32.2176 12.2111
3986 2 10.8347 30.7229 7.6404
3992 1 12.415 32.1579 9.54194
7581 1 9.43411 29.3547 12.3693
3982 1 9.24845 28.9742 9.28494
7576 2 7.90433 30.4772 10.5386
7583 1 12.1258 29.2923 9.13966
3984 1 9.81595 32.0228 9.04259