LAMMPS (29 Oct 2020)
OMP_NUM_THREADS environment is not set. Defaulting to 1 thread. (../comm.cpp:94)
  using 1 OpenMP thread(s) per MPI task
OMP_NUM_THREADS environment is not set. Defaulting to 1 thread. (../comm.cpp:94)
  using 1 OpenMP thread(s) per MPI task
Reading data file ...
  orthogonal box = (-0.35877922 -4.2466794 -0.35088779) to (27.698779 332.32668 27.690888)
  2 by 13 by 2 MPI processor grid
  reading atoms ...
  17640 atoms
  reading velocities ...
  17640 velocities
Finding 1-2 1-3 1-4 neighbors ...
  special bond factors lj:    0.0      0.0      0.0     
  special bond factors coul:  0.0      0.0      0.0     
     0 = max # of 1-2 neighbors
     0 = max # of 1-3 neighbors
     0 = max # of 1-4 neighbors
     1 = max # of special neighbors
  special bonds CPU = 0.004 seconds
  read_data CPU = 0.070 seconds
Setting atom values ...
  11760 settings made for charge
Setting atom values ...
  5880 settings made for charge
PPPM initialization ...
  using 12-bit tables for long-range coulomb (../kspace.cpp:328)
  G vector (1/distance) = 0.29883693
  grid = 40 240 40
  stencil order = 5
  estimated absolute RMS force accuracy = 0.00015601769
  estimated relative force accuracy = 1.0834829e-05
  using single precision MKL FFT
  3d grid and FFT values/proc = 15000 7600
Neighbor list info ...
  update every 1 steps, delay 0 steps, check yes
  max neighbors/atom: 2000, page size: 100000
  master list distance cutoff = 11.3
  ghost atom cutoff = 11.3
  binsize = 5.65, bins = 5 60 5
  2 neighbor lists, perpetual/occasional/extra = 2 0 0
  (1) pair coul/long, perpetual
      attributes: half, newton on
      pair build: half/bin/newton
      stencil: half/bin/3d/newton
      bin: standard
  (2) pair eam/alloy, perpetual, copy from (1)
      attributes: half, newton on
      pair build: copy
      stencil: none
      bin: none
Setting up Verlet run ...
  Unit style    : metal
  Current step  : 0
  Time step     : 0.001
Per MPI rank memory allocation (min/avg/max) = 8.155 | 8.179 | 8.193 Mbytes
Step Temp E_pair E_mol TotEng Press 
       0          600   -230496.61            0    -229128.6    596.58639 
  100000    599.49494   -230490.63            0   -229123.77    319.96512 
Loop time of 658.738 on 52 procs for 100000 steps with 17640 atoms

Performance: 13.116 ns/day, 1.830 hours/ns, 151.805 timesteps/s
99.8% CPU use with 52 MPI tasks x 1 OpenMP threads

MPI task timing breakdown:
Section |  min time  |  avg time  |  max time  |%varavg| %total
---------------------------------------------------------------
Pair    | 428.94     | 448.12     | 463.51     |  41.3 | 68.03
Bond    | 0.0065597  | 0.0097681  | 0.014617   |   1.9 |  0.00
Kspace  | 137.57     | 154.03     | 174.27     |  83.3 | 23.38
Neigh   | 30.575     | 33.673     | 36.885     |  35.7 |  5.11
Comm    | 16.765     | 18.458     | 20.54      |  22.6 |  2.80
Output  | 5.4274e-05 | 6.0906e-05 | 0.00030386 |   0.0 |  0.00
Modify  | 2.1709     | 3.0298     | 5.1428     |  53.9 |  0.46
Other   |            | 1.42       |            |       |  0.22

Nlocal:        339.231 ave         365 max         313 min
Histogram: 5 5 9 4 2 5 4 5 4 9
Nghost:        4115.35 ave        4233 max        4036 min
Histogram: 12 8 4 4 7 1 2 4 6 4
Neighs:        67382.7 ave       73988 max       60257 min
Histogram: 5 7 6 5 1 2 5 9 6 6

Total # of neighbors = 3503899
Ave neighs/atom = 198.63373
Ave special neighs/atom = 0.0000000
Neighbor list builds = 16213
Dangerous builds = 0
11760 atoms in group oxygen
PPPM initialization ...
  using 12-bit tables for long-range coulomb (../kspace.cpp:328)
  G vector (1/distance) = 0.29883693
  grid = 40 240 40
  stencil order = 5
  estimated absolute RMS force accuracy = 0.00015601769
  estimated relative force accuracy = 1.0834829e-05
  using single precision MKL FFT
  3d grid and FFT values/proc = 15000 7600
Setting up Verlet run ...
  Unit style    : metal
  Current step  : 0
  Time step     : 0.001
Per MPI rank memory allocation (min/avg/max) = 8.407 | 8.430 | 8.444 Mbytes
Step f_2 Temp v_Tdiff v_deltaT 
       0            0    599.49494            0            0 
  100000    693.51661    600.87054  0.018123739    210.41493 
  200000    1372.2227    603.32839  0.020301694    235.70079 
  300000    2050.2179    601.30114  0.021458691     249.1334 
  400000    2726.6881    605.33069  0.020428415      237.172 
  500000    3404.3872    603.66557  0.020974087     243.5072 
  600000    4087.1759    603.90398  0.019768157    229.50646 
  700000    4764.8743    596.12256  0.020433906    237.23575 
  800000    5434.6342    606.00965  0.021103224    245.00647 
  900000    6112.7296    601.45546    0.0209861    243.64668 
 1000000    6787.3832    602.64578   0.02117377     245.8255 
Loop time of 6560.43 on 52 procs for 1000000 steps with 17640 atoms

Performance: 13.170 ns/day, 1.822 hours/ns, 152.429 timesteps/s
99.9% CPU use with 52 MPI tasks x 1 OpenMP threads

MPI task timing breakdown:
Section |  min time  |  avg time  |  max time  |%varavg| %total
---------------------------------------------------------------
Pair    | 4229.8     | 4448.3     | 4637.4     | 133.4 | 67.80
Bond    | 0.065909   | 0.099054   | 0.14755    |   6.3 |  0.00
Kspace  | 1349.4     | 1547.5     | 1780.3     | 260.0 | 23.59
Neigh   | 311.78     | 345.4      | 377.68     | 109.7 |  5.26
Comm    | 166.87     | 185.24     | 206.83     |  70.4 |  2.82
Output  | 0.0010946  | 0.0011669  | 0.0023586  |   0.5 |  0.00
Modify  | 5.54       | 6.0796     | 6.6236     |  12.1 |  0.09
Other   |            | 27.78      |            |       |  0.42

Nlocal:        339.231 ave         367 max         313 min
Histogram: 4 5 10 1 5 5 9 8 2 3
Nghost:        4125.60 ave        4238 max        4019 min
Histogram: 4 4 7 7 2 10 6 6 3 3
Neighs:        67390.7 ave       74464 max       60367 min
Histogram: 4 5 7 6 1 4 7 14 1 3

Total # of neighbors = 3504317
Ave neighs/atom = 198.65743
Ave special neighs/atom = 0.0000000
Neighbor list builds = 166236
Dangerous builds = 0
Total wall time: 2:00:19
