LAMMPS (29 Oct 2020)
OMP_NUM_THREADS environment is not set. Defaulting to 1 thread. (../comm.cpp:94)
  using 1 OpenMP thread(s) per MPI task
OMP_NUM_THREADS environment is not set. Defaulting to 1 thread. (../comm.cpp:94)
  using 1 OpenMP thread(s) per MPI task
Reading data file ...
  triclinic box = (0.0000000 0.0000000 0.0000000) to (27.894000 334.72800 27.894000) with tilt (0.0000000 0.0000000 0.0000000)
  2 by 13 by 2 MPI processor grid
  reading atoms ...
  24000 atoms
  reading velocities ...
  24000 velocities
Finding 1-2 1-3 1-4 neighbors ...
  special bond factors lj:    0.0      0.0      0.0     
  special bond factors coul:  0.0      0.0      0.0     
     0 = max # of 1-2 neighbors
     0 = max # of 1-3 neighbors
     0 = max # of 1-4 neighbors
     1 = max # of special neighbors
  special bonds CPU = 0.003 seconds
  read_data CPU = 0.086 seconds
180 atoms in group vac_Th
180 atoms in group oct_Th
3000 atoms in group tot_oct_Th
3000 atoms in group tot_oct_O
2820 atoms in group delete_oct_Th
WARNING: Ignoring 'compress yes' for molecular system (../delete_atoms.cpp:125)
Deleted 180 atoms, new total = 23820
WARNING: Ignoring 'compress yes' for molecular system (../delete_atoms.cpp:125)
Deleted 3000 atoms, new total = 20820
WARNING: Ignoring 'compress yes' for molecular system (../delete_atoms.cpp:125)
Deleted 2820 atoms, new total = 18000
Setting atom values ...
  12000 settings made for charge
Setting atom values ...
  5820 settings made for charge
Setting atom values ...
  0 settings made for charge
Setting atom values ...
  180 settings made for charge
PPPM initialization ...
  using 12-bit tables for long-range coulomb (../kspace.cpp:328)
  G vector (1/distance) = 0.29916851
  grid = 40 240 40
  stencil order = 5
  estimated absolute RMS force accuracy = 0.00015502622
  estimated relative force accuracy = 1.0765975e-05
  using single precision MKL FFT
  3d grid and FFT values/proc = 18225 7600
Neighbor list info ...
  update every 1 steps, delay 0 steps, check yes
  max neighbors/atom: 2000, page size: 100000
  master list distance cutoff = 13
  ghost atom cutoff = 13
  binsize = 6.5, bins = 5 52 5
  2 neighbor lists, perpetual/occasional/extra = 2 0 0
  (1) pair coul/long, perpetual
      attributes: half, newton on
      pair build: half/bin/newton/tri
      stencil: half/bin/3d/newton/tri
      bin: standard
  (2) pair eam/alloy, perpetual, copy from (1)
      attributes: half, newton on
      pair build: copy
      stencil: none
      bin: none
Setting up cg style minimization ...
  Unit style    : metal
  Current step  : 0
WARNING: Energy due to 3 extra global DOFs will be included in minimizer energies
Per MPI rank memory allocation (min/avg/max) = 10.44 | 10.47 | 10.49 Mbytes
Step Temp E_pair E_mol TotEng Press Volume 
       0            0   -230771.96            0   -230771.96    33071.151    260443.57 
     593            0   -234521.45            0   -234521.45    46.986184    267770.16 
Loop time of 8.753 on 52 procs for 593 steps with 18000 atoms

99.6% CPU use with 52 MPI tasks x 1 OpenMP threads

Minimization stats:
  Stopping criterion = linesearch alpha is zero
  Energy initial, next-to-last, final = 
      -230771.95807641  -234521.445169453  -234521.445169453
  Force two-norm initial, final = 9438.3416 35.260285
  Force max component initial, final = 5969.6330 20.854137
  Final line search alpha, max atom move = 8.3189873e-12 1.7348530e-10
  Iterations, force evaluations = 593 755

MPI task timing breakdown:
Section |  min time  |  avg time  |  max time  |%varavg| %total
---------------------------------------------------------------
Pair    | 4.7475     | 4.9239     | 5.0494     |   2.8 | 56.25
Bond    | 7.5529e-05 | 9.9102e-05 | 0.00017084 |   0.0 |  0.00
Kspace  | 1.5604     | 1.688      | 1.8631     |   4.8 | 19.29
Neigh   | 0.015053   | 0.016498   | 0.01799    |   0.6 |  0.19
Comm    | 0.17426    | 0.17838    | 0.18379    |   0.6 |  2.04
Output  | 0          | 0          | 0          |   0.0 |  0.00
Modify  | 0          | 0          | 0          |   0.0 |  0.00
Other   |            | 1.946      |            |       | 22.23

Nlocal:        346.154 ave         376 max         322 min
Histogram: 6 9 3 5 3 10 7 2 4 3
Nghost:        5615.90 ave        5714 max        5488 min
Histogram: 4 3 8 9 4 0 0 1 7 16
Neighs:       111094.0 ave      120788 max      103638 min
Histogram: 5 10 3 6 7 6 7 2 3 3

Total # of neighbors = 5776867
Ave neighs/atom = 320.93706
Ave special neighs/atom = 0.0000000
Neighbor list builds = 4
Dangerous builds = 0
Resetting atom IDs ...
PPPM initialization ...
  using 12-bit tables for long-range coulomb (../kspace.cpp:328)
  G vector (1/distance) = 0.29863217
  grid = 40 240 40
  stencil order = 5
  estimated absolute RMS force accuracy = 0.00015948471
  estimated relative force accuracy = 1.10756e-05
  using single precision MKL FFT
  3d grid and FFT values/proc = 18225 7600
Finding 1-2 1-3 1-4 neighbors ...
  special bond factors lj:    0.0      0.0      0.0     
  special bond factors coul:  0.0      0.0      0.0     
     0 = max # of 1-2 neighbors
     0 = max # of 1-3 neighbors
     0 = max # of 1-4 neighbors
     1 = max # of special neighbors
  special bonds CPU = 0.001 seconds
PPPM initialization ...
  using 12-bit tables for long-range coulomb (../kspace.cpp:328)
  G vector (1/distance) = 0.29863217
  grid = 40 240 40
  stencil order = 5
  estimated absolute RMS force accuracy = 0.00015948471
  estimated relative force accuracy = 1.10756e-05
  using single precision MKL FFT
  3d grid and FFT values/proc = 18225 7600
Setting up Verlet run ...
  Unit style    : metal
  Current step  : 0
  Time step     : 0.001
Per MPI rank memory allocation (min/avg/max) = 10.59 | 10.62 | 10.64 Mbytes
Step Temp KinEng PotEng Press 
       0          600     1395.932   -234521.46    5614.5272 
  100000    600.07616    1396.1092   -233535.62   -263.20495 
Loop time of 930.727 on 52 procs for 100000 steps with 18000 atoms

Performance: 9.283 ns/day, 2.585 hours/ns, 107.443 timesteps/s
99.8% CPU use with 52 MPI tasks x 1 OpenMP threads

MPI task timing breakdown:
Section |  min time  |  avg time  |  max time  |%varavg| %total
---------------------------------------------------------------
Pair    | 547.65     | 558.03     | 571.21     |  22.6 | 59.96
Bond    | 0.010644   | 0.014736   | 0.019654   |   1.7 |  0.00
Kspace  | 195.08     | 208.56     | 219.38     |  37.8 | 22.41
Neigh   | 4.1191     | 4.2902     | 4.587      |   5.4 |  0.46
Comm    | 26.337     | 27.049     | 27.703     |   7.5 |  2.91
Output  | 0.0074362  | 0.0074402  | 0.0076128  |   0.0 |  0.00
Modify  | 113.29     | 121.45     | 129.6      |  32.1 | 13.05
Other   |            | 11.33      |            |       |  1.22

Nlocal:        346.154 ave         368 max         327 min
Histogram: 2 6 6 8 6 10 7 2 1 4
Nghost:        5550.77 ave        5685 max        5449 min
Histogram: 4 4 19 5 3 3 0 4 5 5
Neighs:       107263.0 ave      115254 max      100722 min
Histogram: 3 1 13 6 7 8 8 3 1 2

Total # of neighbors = 5577658
Ave neighs/atom = 309.86989
Ave special neighs/atom = 0.0000000
Neighbor list builds = 1072
Dangerous builds = 0
System init for write_data ...
PPPM initialization ...
  using 12-bit tables for long-range coulomb (../kspace.cpp:328)
  G vector (1/distance) = 0.2983391
  grid = 40 240 40
  stencil order = 5
  estimated absolute RMS force accuracy = 0.0001618869
  estimated relative force accuracy = 1.1242423e-05
  using single precision MKL FFT
  3d grid and FFT values/proc = 18225 7600
Total wall time: 0:15:40
