LAMMPS (29 Oct 2020)
OMP_NUM_THREADS environment is not set. Defaulting to 1 thread. (../comm.cpp:94)
  using 1 OpenMP thread(s) per MPI task
#-------------------------------
#
#This input script is used to simulate the defected configuration generated by overlapping cascades initiated at
#different energies
#Ziqiang Wang on 01/24/2022
#
#-------------------------------

clear
OMP_NUM_THREADS environment is not set. Defaulting to 1 thread. (../comm.cpp:94)
  using 1 OpenMP thread(s) per MPI task
units                    metal
dimension                    3
boundary                 p p p
atom_style               full
atom_modify              map  array

read_data               perfect_relaxed.dat
Reading data file ...
  triclinic box = (0.0000000 0.0000000 0.0000000) to (27.894000 334.72800 27.894000) with tilt (0.0000000 0.0000000 0.0000000)
  2 by 13 by 2 MPI processor grid
  reading atoms ...
  24000 atoms
  reading velocities ...
  24000 velocities
Finding 1-2 1-3 1-4 neighbors ...
  special bond factors lj:    0.0      0.0      0.0     
  special bond factors coul:  0.0      0.0      0.0     
     0 = max # of 1-2 neighbors
     0 = max # of 1-3 neighbors
     0 = max # of 1-4 neighbors
     1 = max # of special neighbors
  special bonds CPU = 0.003 seconds
  read_data CPU = 0.086 seconds

variable                ratio    equal   0.01

group                   vac_Th    id      11    6   31  251   76   96  341  161  156  181  226  431  246  271                                           293  321  521  406  428  456  656  481  501  701  541  561  791  616                                           636  676  881  696  721  743  771  976  856  878  906 1126  931  951                                           973  996 1221 1038 1081 1106 1121 1181 1201 1401 1241 1261 1491 1326                                          1351 1376 1581 1421 1443 1471 1671 1556 1578 1606 1806 1631 1651 1851                                          1691 1711 1951 1766 1786 1826 2051 1846 1871 1891 1926 1946 2191 2021                                          2046 2076 2281 2111 2131 2171 2188 2417 2256 2278 2306 2506 2331 2351                                          2551 2391 2411 2641 2476 2501 2526 2731 2571 2593 2621 2821 2706 2728                                          2756 2956 2781 2801 2841 2861 2916 2936 2976 2996 3013 3033 3253 3054                                          3112 3122 3154 3223 3243 3273 3476 3347 3357 3443 3463 3493 3513 3570                                          3580 3792 3663 3683 3883 3713 3733 3977 3802 3877 3933 3953 4176 4035                                          4045 4312 1139 4143 4193 4213 4270 4280 4492 4373 4393 4413 4433 4672                                          4502 4577 4593 4633 4653 4853 4725 4735 4823 4843 4873 4893
180 atoms in group vac_Th


group                   oct_Th    id      18017 21002 18037 18257 21072 21092 18365 18167 21152 18187 21222 18437                                            21242 18277 18295 21317 18524 18412 18430 21452 18659 18487 18507 18707                                            21537 21557 18815 18622 18642 21672 18887 21692 18727 18745 21767 18979                                            18862 18880 21902 19129 18937 18957 18975 21992 19224 19065 19087 22102                                            19124 19187 19207 19407 22237 22257 19515 19332 22347 22372 19587 19427                                            19445 22467 19674 19562 19580 22602 19809 19637 19657 19857 22687 22707                                            19978 19772 19792 22822 20057 22842 19877 19897 22922 22942 20215 20027                                            23042 23072 20287 20117 20137 23167 20190 23438 20262 20280 23302 20509                                            20337 20357 20557 23387 23407 20665 20482 23497 23522 20737 20577 20595                                            23617 20824 20712 20730 23752 20959 20787 20807 23837 23857 20922 20942                                            23972 23992 21019 21039 21259 21060 21139 21149 21160 21229 21249 21279                                            21478 21372 21382 21449 21469 21499 21519 21594 21604 21817 21669 21689                                            21889 21719 21739 21980 21827 21880 21939 21959 22178 22062 22072 22315                                            22135 22149 22199 22219 22294 22304 22517 22379 22399 22419 22439 22675                                            22527 22580 22599 22639 22659 22859 22749 22759 22829 22849 22879 22899
180 atoms in group oct_Th

group                   tot_oct_Th   type   4
3000 atoms in group tot_oct_Th
group                   tot_oct_O    type   3
3000 atoms in group tot_oct_O

group                   delete_oct_Th    subtract   tot_oct_Th   oct_Th
2820 atoms in group delete_oct_Th


delete_atoms            group  vac_Th
WARNING: Ignoring 'compress yes' for molecular system (../delete_atoms.cpp:125)
Deleted 180 atoms, new total = 23820
delete_atoms            group  tot_oct_O
WARNING: Ignoring 'compress yes' for molecular system (../delete_atoms.cpp:125)
Deleted 3000 atoms, new total = 20820
delete_atoms            group  delete_oct_Th
WARNING: Ignoring 'compress yes' for molecular system (../delete_atoms.cpp:125)
Deleted 2820 atoms, new total = 18000

kspace_style                   pppm            1.0e-5
pair_style                     hybrid/overlay     coul/long    11.0   eam/alloy
pair_coeff                     * * coul/long
pair_coeff                     * * eam/alloy CeThUNpPuAmCmO.eam.alloy O Th O Th
neighbor                 2.0  bin
neigh_modify             delay  0  every  1  check   yes

set                      type      1      charge    -1.1104
Setting atom values ...
  12000 settings made for charge
set                      type      2      charge     2.2208
Setting atom values ...
  5820 settings made for charge
set                      type      3      charge    -1.1104
Setting atom values ...
  0 settings made for charge
set                      type      4      charge     2.2208
Setting atom values ...
  180 settings made for charge

# Minimize the defected configuration at 0K
min_style                cg
fix                      relax   all  box/relax  aniso 0.0 vmax 0.001
minimize                 1.0e-30 1.0e-30 10000 10000
PPPM initialization ...
  using 12-bit tables for long-range coulomb (../kspace.cpp:328)
  G vector (1/distance) = 0.29916851
  grid = 40 240 40
  stencil order = 5
  estimated absolute RMS force accuracy = 0.00015502622
  estimated relative force accuracy = 1.0765975e-05
  using single precision MKL FFT
  3d grid and FFT values/proc = 18225 7600
Neighbor list info ...
  update every 1 steps, delay 0 steps, check yes
  max neighbors/atom: 2000, page size: 100000
  master list distance cutoff = 13
  ghost atom cutoff = 13
  binsize = 6.5, bins = 5 52 5
  2 neighbor lists, perpetual/occasional/extra = 2 0 0
  (1) pair coul/long, perpetual
      attributes: half, newton on
      pair build: half/bin/newton/tri
      stencil: half/bin/3d/newton/tri
      bin: standard
  (2) pair eam/alloy, perpetual, copy from (1)
      attributes: half, newton on
      pair build: copy
      stencil: none
      bin: none
Per MPI rank memory allocation (min/avg/max) = 10.44 | 10.47 | 10.49 Mbytes
Step Temp E_pair E_mol TotEng Press Volume 
       0            0   -230771.96            0   -230771.96    33071.151    260443.57 
     593            0   -234521.45            0   -234521.45    46.986184    267770.16 
Loop time of 8.753 on 52 procs for 593 steps with 18000 atoms

99.6% CPU use with 52 MPI tasks x 1 OpenMP threads

Minimization stats:
  Stopping criterion = linesearch alpha is zero
  Energy initial, next-to-last, final = 
      -230771.95807641  -234521.445169453  -234521.445169453
  Force two-norm initial, final = 9438.3416 35.260285
  Force max component initial, final = 5969.6330 20.854137
  Final line search alpha, max atom move = 8.3189873e-12 1.7348530e-10
  Iterations, force evaluations = 593 755

MPI task timing breakdown:
Section |  min time  |  avg time  |  max time  |%varavg| %total
---------------------------------------------------------------
Pair    | 4.7475     | 4.9239     | 5.0494     |   2.8 | 56.25
Bond    | 7.5529e-05 | 9.9102e-05 | 0.00017084 |   0.0 |  0.00
Kspace  | 1.5604     | 1.688      | 1.8631     |   4.8 | 19.29
Neigh   | 0.015053   | 0.016498   | 0.01799    |   0.6 |  0.19
Comm    | 0.17426    | 0.17838    | 0.18379    |   0.6 |  2.04
Output  | 0          | 0          | 0          |   0.0 |  0.00
Modify  | 0          | 0          | 0          |   0.0 |  0.00
Other   |            | 1.946      |            |       | 22.23

Nlocal:        346.154 ave         376 max         322 min
Histogram: 6 9 3 5 3 10 7 2 4 3
Nghost:        5615.90 ave        5714 max        5488 min
Histogram: 4 3 8 9 4 0 0 1 7 16
Neighs:       111094.0 ave      120788 max      103638 min
Histogram: 5 10 3 6 7 6 7 2 3 3

Total # of neighbors = 5776867
Ave neighs/atom = 320.93706
Ave special neighs/atom = 0.0000000
Neighbor list builds = 4
Dangerous builds = 0
unfix                    relax
reset_timestep           0

# Apply the temperature to the system and relax the configurations
reset_atom_ids
Resetting atom IDs ...
PPPM initialization ...
  using 12-bit tables for long-range coulomb (../kspace.cpp:328)
  G vector (1/distance) = 0.29863217
  grid = 40 240 40
  stencil order = 5
  estimated absolute RMS force accuracy = 0.00015948471
  estimated relative force accuracy = 1.10756e-05
  using single precision MKL FFT
  3d grid and FFT values/proc = 18225 7600
Finding 1-2 1-3 1-4 neighbors ...
  special bond factors lj:    0.0      0.0      0.0     
  special bond factors coul:  0.0      0.0      0.0     
     0 = max # of 1-2 neighbors
     0 = max # of 1-3 neighbors
     0 = max # of 1-4 neighbors
     1 = max # of special neighbors
  special bonds CPU = 0.001 seconds
variable                 temp   index  600
velocity                 all  create  ${temp}  4526826  rot  yes  mom  yes  dist  gaussian
velocity                 all  create  600  4526826  rot  yes  mom  yes  dist  gaussian
fix                      npt  all  npt  temp  ${temp}  ${temp}  $(100*dt)  aniso  0.0  0.0  $(1000*dt)
fix                      npt  all  npt  temp  600  ${temp}  $(100*dt)  aniso  0.0  0.0  $(1000*dt)
fix                      npt  all  npt  temp  600  600  $(100*dt)  aniso  0.0  0.0  $(1000*dt)
fix                      npt  all  npt  temp  600  600  0.10000000000000000555  aniso  0.0  0.0  $(1000*dt)
fix                      npt  all  npt  temp  600  600  0.10000000000000000555  aniso  0.0  0.0  1
timestep                 0.001
thermo                   100000
thermo_style             custom  step  temp  ke  pe  press

shell                    mkdir   Frenkel_${ratio}_relax
shell                    mkdir   Frenkel_0.01_relax
dump                     1  all  custom  100000  ./Frenkel_${ratio}_relax/dump_relax.atom.*  id type q mass x y z
dump                     1  all  custom  100000  ./Frenkel_0.01_relax/dump_relax.atom.*  id type q mass x y z
dump_modify              1  element  O Th O Th

run                      100000
PPPM initialization ...
  using 12-bit tables for long-range coulomb (../kspace.cpp:328)
  G vector (1/distance) = 0.29863217
  grid = 40 240 40
  stencil order = 5
  estimated absolute RMS force accuracy = 0.00015948471
  estimated relative force accuracy = 1.10756e-05
  using single precision MKL FFT
  3d grid and FFT values/proc = 18225 7600
Per MPI rank memory allocation (min/avg/max) = 10.59 | 10.62 | 10.64 Mbytes
Step Temp KinEng PotEng Press 
       0          600     1395.932   -234521.46    5614.5272 
  100000    600.07616    1396.1092   -233535.62   -263.20495 
Loop time of 930.727 on 52 procs for 100000 steps with 18000 atoms

Performance: 9.283 ns/day, 2.585 hours/ns, 107.443 timesteps/s
99.8% CPU use with 52 MPI tasks x 1 OpenMP threads

MPI task timing breakdown:
Section |  min time  |  avg time  |  max time  |%varavg| %total
---------------------------------------------------------------
Pair    | 547.65     | 558.03     | 571.21     |  22.6 | 59.96
Bond    | 0.010644   | 0.014736   | 0.019654   |   1.7 |  0.00
Kspace  | 195.08     | 208.56     | 219.38     |  37.8 | 22.41
Neigh   | 4.1191     | 4.2902     | 4.587      |   5.4 |  0.46
Comm    | 26.337     | 27.049     | 27.703     |   7.5 |  2.91
Output  | 0.0074362  | 0.0074402  | 0.0076128  |   0.0 |  0.00
Modify  | 113.29     | 121.45     | 129.6      |  32.1 | 13.05
Other   |            | 11.33      |            |       |  1.22

Nlocal:        346.154 ave         368 max         327 min
Histogram: 2 6 6 8 6 10 7 2 1 4
Nghost:        5550.77 ave        5685 max        5449 min
Histogram: 4 4 19 5 3 3 0 4 5 5
Neighs:       107263.0 ave      115254 max      100722 min
Histogram: 3 1 13 6 7 8 8 3 1 2

Total # of neighbors = 5577658
Ave neighs/atom = 309.86989
Ave special neighs/atom = 0.0000000
Neighbor list builds = 1072
Dangerous builds = 0
shell                    mkdir  thermal_condu
write_data               ./thermal_condu/Frenkel_${ratio}_relaxed.dat
write_data               ./thermal_condu/Frenkel_0.01_relaxed.dat
System init for write_data ...
PPPM initialization ...
  using 12-bit tables for long-range coulomb (../kspace.cpp:328)
  G vector (1/distance) = 0.2983391
  grid = 40 240 40
  stencil order = 5
  estimated absolute RMS force accuracy = 0.0001618869
  estimated relative force accuracy = 1.1242423e-05
  using single precision MKL FFT
  3d grid and FFT values/proc = 18225 7600

Total wall time: 0:15:40
