LAMMPS (29 Oct 2020)
OMP_NUM_THREADS environment is not set. Defaulting to 1 thread. (../comm.cpp:94)
  using 1 OpenMP thread(s) per MPI task
OMP_NUM_THREADS environment is not set. Defaulting to 1 thread. (../comm.cpp:94)
  using 1 OpenMP thread(s) per MPI task
Reading data file ...
  orthogonal box = (-0.48992072 -5.8777852 -0.49246707) to (27.829921 333.95779 27.832467)
  2 by 13 by 2 MPI processor grid
  reading atoms ...
  17640 atoms
  reading velocities ...
  17640 velocities
Finding 1-2 1-3 1-4 neighbors ...
  special bond factors lj:    0.0      0.0      0.0     
  special bond factors coul:  0.0      0.0      0.0     
     0 = max # of 1-2 neighbors
     0 = max # of 1-3 neighbors
     0 = max # of 1-4 neighbors
     1 = max # of special neighbors
  special bonds CPU = 0.004 seconds
  read_data CPU = 0.065 seconds
Setting atom values ...
  11760 settings made for charge
Setting atom values ...
  5880 settings made for charge
PPPM initialization ...
  using 12-bit tables for long-range coulomb (../kspace.cpp:328)
  G vector (1/distance) = 0.29829751
  grid = 40 240 40
  stencil order = 5
  estimated absolute RMS force accuracy = 0.00016040732
  estimated relative force accuracy = 1.1139672e-05
  using single precision MKL FFT
  3d grid and FFT values/proc = 15000 7600
Neighbor list info ...
  update every 1 steps, delay 0 steps, check yes
  max neighbors/atom: 2000, page size: 100000
  master list distance cutoff = 11.3
  ghost atom cutoff = 11.3
  binsize = 5.65, bins = 6 61 6
  2 neighbor lists, perpetual/occasional/extra = 2 0 0
  (1) pair coul/long, perpetual
      attributes: half, newton on
      pair build: half/bin/newton
      stencil: half/bin/3d/newton
      bin: standard
  (2) pair eam/alloy, perpetual, copy from (1)
      attributes: half, newton on
      pair build: copy
      stencil: none
      bin: none
Setting up Verlet run ...
  Unit style    : metal
  Current step  : 0
  Time step     : 0.001
Per MPI rank memory allocation (min/avg/max) = 8.140 | 8.164 | 8.179 Mbytes
Step Temp E_pair E_mol TotEng Press 
       0         1500   -227960.56            0   -224540.53   -417.92804 
   50000    1502.0634   -227968.89            0   -224544.15   -375.31576 
Loop time of 333.539 on 52 procs for 50000 steps with 17640 atoms

Performance: 12.952 ns/day, 1.853 hours/ns, 149.907 timesteps/s
99.8% CPU use with 52 MPI tasks x 1 OpenMP threads

MPI task timing breakdown:
Section |  min time  |  avg time  |  max time  |%varavg| %total
---------------------------------------------------------------
Pair    | 217.58     | 225.52     | 235.48     |  25.4 | 67.61
Bond    | 0.0031121  | 0.0050829  | 0.006967   |   1.4 |  0.00
Kspace  | 63.523     | 74.569     | 83.182     |  50.7 | 22.36
Neigh   | 21.307     | 23.107     | 25.519     |  17.0 |  6.93
Comm    | 7.4994     | 8.0094     | 9.2138     |  14.1 |  2.40
Output  | 5.0981e-05 | 5.5618e-05 | 0.00026008 |   0.0 |  0.00
Modify  | 0.84802    | 1.656      | 2.635      |  43.8 |  0.50
Other   |            | 0.6759     |            |       |  0.20

Nlocal:        339.231 ave         365 max         313 min
Histogram: 1 1 10 6 10 10 3 4 3 4
Nghost:        3902.21 ave        4074 max        3792 min
Histogram: 3 7 9 13 7 5 1 3 3 1
Neighs:        66907.7 ave       75547 max       58672 min
Histogram: 1 5 4 5 12 12 8 0 1 4

Total # of neighbors = 3479198
Ave neighs/atom = 197.23345
Ave special neighs/atom = 0.0000000
Neighbor list builds = 12493
Dangerous builds = 0
11760 atoms in group oxygen
PPPM initialization ...
  using 12-bit tables for long-range coulomb (../kspace.cpp:328)
  G vector (1/distance) = 0.29829751
  grid = 40 240 40
  stencil order = 5
  estimated absolute RMS force accuracy = 0.00016040732
  estimated relative force accuracy = 1.1139672e-05
  using single precision MKL FFT
  3d grid and FFT values/proc = 15000 7600
Setting up Verlet run ...
  Unit style    : metal
  Current step  : 0
  Time step     : 0.001
Per MPI rank memory allocation (min/avg/max) = 8.391 | 8.414 | 8.429 Mbytes
Step f_2 Temp v_Tdiff v_deltaT 
       0            0    1502.0634            0            0 
  100000    1580.4425    1488.9993   0.07100485    824.35971 
  200000    3024.8607    1495.2988  0.088048044    1022.2296 
  300000    4449.8143    1489.7759  0.088269537    1024.8011 
  400000    5876.8844    1504.8998  0.087453016    1015.3214 
  500000    7306.1843    1492.7075  0.088635369    1029.0484 
  600000    8734.2382     1481.516  0.087129383     1011.564 
  700000    10165.009    1489.0657  0.088604796    1028.6935 
  800000      11599.4    1503.5562  0.086104564    999.66599 
  900000    13029.626    1488.7102  0.088731738    1030.1672 
 1000000    14469.379    1498.3472  0.086759879    1007.2741 
Loop time of 6548.31 on 52 procs for 1000000 steps with 17640 atoms

Performance: 13.194 ns/day, 1.819 hours/ns, 152.711 timesteps/s
99.8% CPU use with 52 MPI tasks x 1 OpenMP threads

MPI task timing breakdown:
Section |  min time  |  avg time  |  max time  |%varavg| %total
---------------------------------------------------------------
Pair    | 4288.5     | 4424.1     | 4560.8     |  91.6 | 67.56
Bond    | 0.067638   | 0.10278    | 0.16788    |   6.2 |  0.00
Kspace  | 1295.1     | 1457.2     | 1607.3     | 183.2 | 22.25
Neigh   | 431.07     | 465.9      | 503.94     |  74.6 |  7.11
Comm    | 147.7      | 162.25     | 197.91     |  95.1 |  2.48
Output  | 0.0010898  | 0.0011517  | 0.0023589  |   0.5 |  0.00
Modify  | 5.3667     | 5.8388     | 6.5051     |  11.6 |  0.09
Other   |            | 32.91      |            |       |  0.50

Nlocal:        339.231 ave         366 max         314 min
Histogram: 1 4 3 12 10 6 6 5 3 2
Nghost:        3899.58 ave        4021 max        3808 min
Histogram: 7 2 6 10 8 5 7 4 1 2
Neighs:        66872.1 ave       75866 max       59032 min
Histogram: 4 4 3 6 12 13 4 3 1 2

Total # of neighbors = 3477349
Ave neighs/atom = 197.12863
Ave special neighs/atom = 0.0000000
Neighbor list builds = 253720
Dangerous builds = 0
Total wall time: 1:54:42
