ITEM: TIMESTEP
80000
ITEM: NUMBER OF ATOMS
18000
ITEM: BOX BOUNDS xy xz yz pp pp pp
-1.8480516983235301e-01 2.8078805169832361e+01 0.0000000000000000e+00
-2.1875082923158984e+00 3.3691550829232204e+02 0.0000000000000000e+00
-1.6197564921507246e-01 2.8055975649214503e+01 0.0000000000000000e+00
ITEM: ATOMS id type q mass x y z
1 4 2.2208 232.038 2.74574 12.5369 3.02174
2 3 -1.1104 15.9994 8.34464 7.19355 2.12839
9183 2 2.2208 232.038 -0.0397846 17.831 8.55013
9189 2 2.2208 232.038 -0.192668 12.1556 8.50499
122 2 2.2208 232.038 2.94112 23.5295 11.1013
168 1 -1.1104 15.9994 1.11979 5.3856 4.16127
9170 3 -1.1104 15.9994 1.26699 11.1706 1.55624
36 3 -1.1104 15.9994 6.21606 -1.40124 -0.0216107
9 4 2.2208 232.038 11.4035 0.649395 5.0606
307 1 -1.1104 15.9994 3.85955 -1.38284 12.1567
8485 2 2.2208 232.038 3.91803 -2.10451 0.452586
12 4 2.2208 232.038 8.1257 5.08055 2.92476
13 2 2.2208 232.038 5.36501 3.15758 3.0477
14 3 -1.1104 15.9994 7.13442 22.2807 1.28606
15 4 2.2208 232.038 5.3972 -0.19977 4.17699
133 1 -1.1104 15.9994 0.934408 0.143311 2.69031
232 1 -1.1104 15.9994 12.7227 -0.72455 6.66012
18 2 2.2208 232.038 5.62018 7.47931 2.63268
174 1 -1.1104 15.9994 8.57405 9.71746 0.5094
20 2 2.2208 232.038 11.3866 2.82944 2.43953
21 4 2.2208 232.038 2.42863 4.37353 2.59364
22 4 2.2208 232.038 5.96242 11.6072 2.8843
23 2 2.2208 232.038 2.50011 9.22367 2.94194
100 2 2.2208 232.038 11.3543 23.609 8.3534
349 1 -1.1104 15.9994 10.1608 22.1054 12.6123
98 2 2.2208 232.038 5.86824 23.4845 8.39773
27 2 2.2208 232.038 8.66755 9.38784 3.10846
28 2 2.2208 232.038 5.61338 15.276 2.78606
348 1 -1.1104 15.9994 7.21197 22.2369 12.6006
30 2 2.2208 232.038 11.5746 12.0229 2.95809
4 3 -1.1104 15.9994 7.91369 19.5225 1.05183
32 4 2.2208 232.038 8.47673 0.839395 2.63799
33 2 2.2208 232.038 2.2997 15.6064 2.65639
169 1 -1.1104 15.9994 0.98699 8.31167 4.2242
347 1 -1.1104 15.9994 4.33546 21.8403 12.7686
26 3 -1.1104 15.9994 3.69821 0.185024 0.00649747
37 2 2.2208 232.038 8.64696 17.6049 2.85761
38 2 2.2208 232.038 5.08717 18.399 2.99658
124 2 2.2208 232.038 8.72534 23.4566 11.3081
40 2 2.2208 232.038 11.8587 17.616 2.93982
729 2 2.2208 232.038 -0.0677263 20.9201 0.0309915
42 4 2.2208 232.038 8.93727 14.1667 2.79019
43 2 2.2208 232.038 2.75773 20.7331 2.73502
346 1 -1.1104 15.9994 1.68049 22.0186 12.4509
345 1 -1.1104 15.9994 12.7509 19.288 12.8106
34 3 -1.1104 15.9994 1.56368 19.4676 1.11605
47 2 2.2208 232.038 8.23306 20.8767 2.77779
138 1 -1.1104 15.9994 8.10873 0.830318 0.193933
49 1 -1.1104 15.9994 13.0098 22.1737 12.354
50 2 2.2208 232.038 11.4111 23.3745 2.79814
155 1 -1.1104 15.9994 10.494 2.64512 0.294805
52 2 2.2208 232.038 3.7648 0.214015 7.08943
344 1 -1.1104 15.9994 12.6495 16.1964 12.5548
343 1 -1.1104 15.9994 10.0471 19.243 12.6321
136 1 -1.1104 15.9994 8.27444 -2.15209 6.39536
56 2 2.2208 232.038 8.19964 0.623419 6.65479
342 1 -1.1104 15.9994 7.20688 19.0294 12.5797
58 2 2.2208 232.038 6.05577 0.739377 9.1678
11 3 -1.1104 15.9994 10.3308 4.72367 1.90315
60 2 2.2208 232.038 11.2525 0.498772 8.822
172 1 -1.1104 15.9994 1.54465 11.1663 4.20626
62 2 2.2208 232.038 2.80854 6.15343 5.67455
63 2 2.2208 232.038 2.65736 3.54498 8.65634
9848 3 -1.1104 15.9994 1.15227 22.2738 1.58892
65 2 2.2208 232.038 5.57772 3.56535 6.21658
66 2 2.2208 232.038 8.56857 6.63947 5.91978
67 2 2.2208 232.038 8.48849 3.85122 8.67001
68 2 2.2208 232.038 5.64963 6.56929 8.52546
69 2 2.2208 232.038 11.2721 3.92796 5.76914
70 2 2.2208 232.038 11.3689 6.56409 8.58666
71 3 -1.1104 15.9994 10.3445 -0.0756603 6.72612
72 2 2.2208 232.038 2.76335 12.1509 6.15169
73 2 2.2208 232.038 2.82946 9.05069 8.43919
74 3 -1.1104 15.9994 6.62552 2.01752 4.68273
75 2 2.2208 232.038 5.68745 9.35987 5.87886
76 2 2.2208 232.038 8.58909 12.127 6.06097
77 2 2.2208 232.038 8.56858 9.34537 8.56903
78 2 2.2208 232.038 5.59473 11.9718 8.56162
79 2 2.2208 232.038 11.3962 9.20993 5.7497
80 2 2.2208 232.038 11.4048 12.2015 8.61292
340 1 -1.1104 15.9994 7.00218 16.4105 12.66
82 2 2.2208 232.038 2.61533 17.9336 5.7961
83 2 2.2208 232.038 2.68411 15.128 8.62805
84 3 -1.1104 15.9994 10.228 18.6948 1.30603
85 2 2.2208 232.038 5.74974 15.0693 6.03603
86 2 2.2208 232.038 8.54531 18.0503 5.9654
87 2 2.2208 232.038 8.57043 15.0476 8.65124
88 2 2.2208 232.038 5.50837 17.9534 8.61981
89 2 2.2208 232.038 11.6157 14.9153 5.61621
90 2 2.2208 232.038 11.229 17.7487 8.55361
64 3 -1.1104 15.9994 12.8801 16.2462 1.42178
482 1 -1.1104 15.9994 6.93804 2.14474 12.8743
93 2 2.2208 232.038 2.90188 20.6377 8.53437
94 3 -1.1104 15.9994 12.5604 2.20197 6.48338
95 2 2.2208 232.038 5.54662 20.9598 5.59189
306 1 -1.1104 15.9994 1.07903 -0.915108 9.96807
97 2 2.2208 232.038 8.39438 20.7949 8.43166
705 2 2.2208 232.038 13.8747 23.3011 -0.085541
99 2 2.2208 232.038 11.2733 20.7739 5.61034
220 1 -1.1104 15.9994 1.96129 1.74373 7.13863
61 2 2.2208 232.038 -0.27195 3.88526 5.67535
102 2 2.2208 232.038 2.65236 0.536249 11.352
728 2 2.2208 232.038 11.3386 15.1631 -0.0283916
104 2 2.2208 232.038 8.36302 0.645882 11.6427
238 1 -1.1104 15.9994 1.3295 4.81135 10.1808
106 3 -1.1104 15.9994 6.08678 3.05231 0.659344
107 2 2.2208 232.038 2.73595 6.15784 11.3421
108 2 2.2208 232.038 5.50897 3.49449 11.3848
109 2 2.2208 232.038 8.44742 6.4139 11.2796
110 2 2.2208 232.038 11.4045 3.68952 11.0876
111 3 -1.1104 15.9994 3.89731 16.3202 1.21632
112 2 2.2208 232.038 2.79261 11.9809 11.0888
113 2 2.2208 232.038 5.59992 9.24508 11.363
114 2 2.2208 232.038 8.34702 12.1559 11.3983
115 2 2.2208 232.038 11.2295 9.42979 11.2233
116 4 2.2208 232.038 11.3586 6.68408 2.64438
117 2 2.2208 232.038 2.91801 17.9344 11.0718
118 2 2.2208 232.038 5.60797 14.9696 11.274
119 2 2.2208 232.038 8.67778 17.7608 11.3057
120 2 2.2208 232.038 11.4272 14.8115 11.3397
121 3 -1.1104 15.9994 12.7966 10.6959 1.69958
92 2 2.2208 232.038 2.79856 23.5686 5.54022
123 2 2.2208 232.038 5.8328 20.6875 11.4847
54 3 -1.1104 15.9994 1.36372 -1.7059 4.40552
125 2 2.2208 232.038 11.5557 20.5658 11.257
186 1 -1.1104 15.9994 1.73456 13.9209 1.18276
48 2 2.2208 232.038 5.4157 23.3617 2.64161
135 1 -1.1104 15.9994 10.6197 -1.61088 0.144765
225 1 -1.1104 15.9994 10.8124 -1.7827 8.81343
170 1 -1.1104 15.9994 1.27033 8.32274 1.40586
476 1 -1.1104 15.9994 1.39003 -0.84444 12.7793
132 1 -1.1104 15.9994 3.97309 1.48313 5.09066
9194 2 2.2208 232.038 0.0225932 0.681138 8.55497
134 1 -1.1104 15.9994 8.68781 -1.28834 2.0663
16 3 -1.1104 15.9994 6.08352 7.25314 0.274966
150 1 -1.1104 15.9994 0.985571 5.63124 1.22422
137 1 -1.1104 15.9994 12.9435 -0.701841 4.14222
9199 2 2.2208 232.038 -0.140926 17.9454 3.03467
139 1 -1.1104 15.9994 10.727 0.579618 2.26882
140 1 -1.1104 15.9994 7.64064 -0.414916 4.45015
141 1 -1.1104 15.9994 9.98248 2.07002 4.16214
338 1 -1.1104 15.9994 1.47772 19.1777 12.5759
337 1 -1.1104 15.9994 4.11356 16.4278 12.5895
144 1 -1.1104 15.9994 12.9163 2.22874 0.96354
24 3 -1.1104 15.9994 3.99328 -1.49336 5.57092
146 1 -1.1104 15.9994 3.57854 2.20535 1.90738
147 1 -1.1104 15.9994 5.84997 5.37534 2.16055
148 1 -1.1104 15.9994 3.9686 4.15292 4.30706
149 1 -1.1104 15.9994 7.26487 5.13725 7.28808
227 1 -1.1104 15.9994 8.17656 -1.75137 11.3678
151 1 -1.1104 15.9994 3.43831 6.66411 3.58135
8667 1 -1.1104 15.9994 10.4127 -1.31051 4.39865
153 1 -1.1104 15.9994 4.50106 9.28222 4.1148
154 1 -1.1104 15.9994 8.01572 5.23029 0.361452
6 3 -1.1104 15.9994 3.57932 5.02039 0.859042
156 1 -1.1104 15.9994 8.23739 2.97762 2.33321
157 1 -1.1104 15.9994 9.85283 5.21232 4.4341
158 1 -1.1104 15.9994 6.36429 9.567 2.07536
183 1 -1.1104 15.9994 12.6708 4.826 4.00674
160 1 -1.1104 15.9994 6.82042 4.6293 4.55042
161 1 -1.1104 15.9994 10.0223 10.8672 4.51175
162 1 -1.1104 15.9994 13.0189 4.82835 1.36204
163 1 -1.1104 15.9994 12.8752 1.90259 3.9865
164 1 -1.1104 15.9994 13.206 7.75123 1.37179
165 1 -1.1104 15.9994 9.84098 7.95391 4.46262
126 1 -1.1104 15.9994 1.62191 -1.74315 0.891871
167 1 -1.1104 15.9994 3.76847 10.9869 1.89647
9190 2 2.2208 232.038 -0.306306 9.12793 5.8596
8 2 2.2208 232.038 5.77448 1.06643 -0.0520986
194 1 -1.1104 15.9994 9.22129 16.2454 1.19652
171 1 -1.1104 15.9994 4.28517 13.4826 2.19957
216 1 -1.1104 15.9994 2.00979 -1.14238 7.27163
173 1 -1.1104 15.9994 4.2522 11.7388 4.54688
152 1 -1.1104 15.9994 1.21148 2.5377 4.12573
175 1 -1.1104 15.9994 10.8362 8.92494 2.25808
176 1 -1.1104 15.9994 6.94823 7.75264 4.60004
177 1 -1.1104 15.9994 12.9003 10.6072 4.44986
178 1 -1.1104 15.9994 8.23153 11.9703 2.48618
179 1 -1.1104 15.9994 10.2599 12.8402 1.17374
180 1 -1.1104 15.9994 7.20166 10.676 4.67475
181 1 -1.1104 15.9994 9.8081 13.5507 4.66782
182 1 -1.1104 15.9994 12.6881 7.88242 4.40466
188 1 -1.1104 15.9994 0.852917 13.8726 3.73158
184 1 -1.1104 15.9994 13.0579 13.3857 1.60679
185 1 -1.1104 15.9994 12.8609 13.4621 4.49727
341 1 -1.1104 15.9994 9.73251 16.4272 12.6835
187 1 -1.1104 15.9994 6.97025 14.2816 1.32575
159 1 -1.1104 15.9994 10.7935 6.70582 0.206009
189 1 -1.1104 15.9994 3.49465 14.4506 4.49186
190 1 -1.1104 15.9994 1.12945 16.8195 1.07901
191 1 -1.1104 15.9994 2.9289 17.5856 3.24212
192 1 -1.1104 15.9994 0.962724 16.5757 4.44395
193 1 -1.1104 15.9994 4.03093 19.5677 4.56945
130 1 -1.1104 15.9994 0.979252 2.87236 1.24778
195 1 -1.1104 15.9994 11.1069 14.9521 2.73171
196 1 -1.1104 15.9994 6.46535 13.7299 4.39531
197 1 -1.1104 15.9994 7.71131 15.9037 3.64114
198 1 -1.1104 15.9994 5.78082 20.5507 2.50676
199 1 -1.1104 15.9994 9.54067 19.3745 4.17487
200 1 -1.1104 15.9994 6.34043 17.1018 1.69439
201 1 -1.1104 15.9994 7.1695 18.7029 4.04507
202 1 -1.1104 15.9994 13.0494 16.2266 4.37148
203 1 -1.1104 15.9994 10.3131 16.8401 4.6635
204 1 -1.1104 15.9994 12.9372 19.1157 1.53562
205 1 -1.1104 15.9994 12.6005 19.2958 4.26014
206 1 -1.1104 15.9994 1.23519 19.5696 4.13966
207 1 -1.1104 15.9994 3.94257 22.3284 1.30859
208 1 -1.1104 15.9994 1.54069 22.1953 4.31087
209 1 -1.1104 15.9994 4.16174 22.2519 4.13135
210 1 -1.1104 15.9994 7.04782 22.1121 4.23673
211 1 -1.1104 15.9994 9.80802 22.05 1.39625
212 1 -1.1104 15.9994 5.08106 16.4993 4.50573
213 1 -1.1104 15.9994 10.0495 22.2288 4.41157
214 1 -1.1104 15.9994 12.4932 21.9258 1.2802
215 1 -1.1104 15.9994 12.8616 22.116 4.02886
81 3 -1.1104 15.9994 4.11112 19.3535 1.16418
217 1 -1.1104 15.9994 3.85101 -0.353917 9.2331
218 1 -1.1104 15.9994 1.41842 1.91681 9.79406
219 1 -1.1104 15.9994 6.27101 -0.140031 11.3452
9173 4 2.2208 232.038 1.75171 0.518211 4.73613
221 1 -1.1104 15.9994 4.59098 2.23 7.65599
9174 2 2.2208 232.038 -0.00417018 9.15053 11.2823
223 1 -1.1104 15.9994 4.07322 2.22857 10.4101
166 1 -1.1104 15.9994 3.84402 8.30992 1.20446
339 1 -1.1104 15.9994 4.24765 19.2011 12.5086
9204 2 2.2208 232.038 1.91441 0.999709 0.795595
142 1 -1.1104 15.9994 12.9041 -0.45321 1.35157
228 1 -1.1104 15.9994 5.96645 -0.056704 6.60628
229 1 -1.1104 15.9994 9.68097 2.57237 6.82614
230 1 -1.1104 15.9994 8.50269 0.106374 9.17984
231 1 -1.1104 15.9994 10.678 -0.0198408 11.511
224 1 -1.1104 15.9994 6.38211 -1.68092 8.5518
233 1 -1.1104 15.9994 13.0123 -0.665973 9.78795
234 1 -1.1104 15.9994 10.0353 2.38162 9.39128
235 1 -1.1104 15.9994 13.1104 2.32497 9.77364
236 1 -1.1104 15.9994 1.36252 4.68576 7.29745
237 1 -1.1104 15.9994 4.20835 4.92674 7.1654
128 1 -1.1104 15.9994 3.96642 -1.10608 2.49755
239 1 -1.1104 15.9994 4.20159 5.01622 9.85603
240 1 -1.1104 15.9994 1.08828 7.34514 6.77394
241 1 -1.1104 15.9994 4.20173 7.64172 6.97183
242 1 -1.1104 15.9994 1.39487 7.74789 9.868
243 1 -1.1104 15.9994 4.02852 7.74266 9.82454
244 1 -1.1104 15.9994 7.05402 2.39313 7.54317
245 1 -1.1104 15.9994 10.037 5.21357 7.06242
246 1 -1.1104 15.9994 6.87167 5.39731 9.82016
247 1 -1.1104 15.9994 9.95054 5.26294 9.94974
248 1 -1.1104 15.9994 6.96074 7.83586 7.29259
249 1 -1.1104 15.9994 9.80879 7.94337 7.05115
250 1 -1.1104 15.9994 6.85474 7.96321 9.95945
251 1 -1.1104 15.9994 9.74351 7.89638 9.79856
252 1 -1.1104 15.9994 12.6909 5.17746 7.09653
253 1 -1.1104 15.9994 12.7887 5.01983 9.84564
254 1 -1.1104 15.9994 12.8089 7.73993 7.08809
255 1 -1.1104 15.9994 12.4958 7.95593 9.86643
256 1 -1.1104 15.9994 1.25544 10.5163 7.06955
257 1 -1.1104 15.9994 3.96916 10.5747 7.15834
258 1 -1.1104 15.9994 1.46746 10.6238 9.71711
259 1 -1.1104 15.9994 4.4252 10.683 9.90924
260 1 -1.1104 15.9994 1.33011 13.6915 7.05263
261 1 -1.1104 15.9994 4.44063 13.4731 7.01818
262 1 -1.1104 15.9994 1.43708 13.6136 9.82292
263 1 -1.1104 15.9994 4.19921 13.6193 9.87498
264 1 -1.1104 15.9994 6.94628 10.6026 7.35185
265 1 -1.1104 15.9994 9.92735 10.7055 7.15349
266 1 -1.1104 15.9994 7.1412 10.7677 9.99962
267 1 -1.1104 15.9994 10.0668 10.8559 9.83421
268 1 -1.1104 15.9994 7.21018 13.4201 7.25162
269 1 -1.1104 15.9994 9.91008 13.5268 7.17165
270 1 -1.1104 15.9994 7.18054 13.7391 9.92858
271 1 -1.1104 15.9994 10.0043 13.6154 9.84011
272 1 -1.1104 15.9994 12.8021 10.5746 7.14874
273 1 -1.1104 15.9994 12.8376 10.811 9.80864
274 1 -1.1104 15.9994 12.775 13.5614 7.30306
275 1 -1.1104 15.9994 12.9492 13.503 10.029
276 1 -1.1104 15.9994 1.06049 16.5139 7.1642
277 1 -1.1104 15.9994 4.27026 16.4533 7.22426
278 1 -1.1104 15.9994 1.51358 16.5467 9.92388
279 1 -1.1104 15.9994 4.20928 16.4309 9.74959
280 1 -1.1104 15.9994 1.06133 19.4676 7.22395
281 1 -1.1104 15.9994 4.17155 19.2784 7.24132
282 1 -1.1104 15.9994 1.46945 19.2847 9.75406
283 1 -1.1104 15.9994 4.47139 19.4558 10.0439
284 1 -1.1104 15.9994 7.20906 16.4737 7.09174
285 1 -1.1104 15.9994 9.86966 16.7072 7.48371
286 1 -1.1104 15.9994 7.21395 16.6759 9.82883
287 1 -1.1104 15.9994 9.94789 16.3897 10.1073
288 1 -1.1104 15.9994 6.80425 19.4237 6.86113
289 1 -1.1104 15.9994 9.82147 19.4247 7.04778
290 1 -1.1104 15.9994 7.07456 19.4531 9.81319
291 1 -1.1104 15.9994 9.97023 19.2232 10.0235
292 1 -1.1104 15.9994 12.7338 16.4526 7.10313
293 1 -1.1104 15.9994 12.8122 16.5334 9.95144
294 1 -1.1104 15.9994 12.5989 19.3187 7.10176
295 1 -1.1104 15.9994 12.8852 19.2929 9.9574
296 1 -1.1104 15.9994 1.20968 22.1858 6.95531
297 1 -1.1104 15.9994 4.2424 22.03 7.22502
298 1 -1.1104 15.9994 1.43581 22.1786 9.80508
299 1 -1.1104 15.9994 4.40845 22.084 10.0028
300 1 -1.1104 15.9994 7.03709 22.1478 6.85663
301 1 -1.1104 15.9994 9.76231 22.1774 7.0942
302 1 -1.1104 15.9994 7.36802 22.1538 9.66615
303 1 -1.1104 15.9994 10.0557 22.026 9.72411
304 1 -1.1104 15.9994 12.8057 22.1798 6.88165
305 1 -1.1104 15.9994 12.9272 22.1861 9.64787
127 1 -1.1104 15.9994 5.95965 0.815951 2.1727
8475 4 2.2208 232.038 11.2994 -1.73343 2.23472
308 1 -1.1104 15.9994 1.19117 1.84786 12.7708
309 1 -1.1104 15.9994 3.90123 1.50199 12.9492
9175 2 2.2208 232.038 0.1055 20.5999 11.3736
226 1 -1.1104 15.9994 6.72579 -1.09314 13.8974
312 1 -1.1104 15.9994 7.21308 2.4594 10.1673
313 1 -1.1104 15.9994 9.95169 2.42963 12.528
314 1 -1.1104 15.9994 13.1366 -0.882261 12.6053
315 1 -1.1104 15.9994 12.802 2.21597 12.3418
316 1 -1.1104 15.9994 1.20425 4.70021 12.9215
317 1 -1.1104 15.9994 4.22597 4.80485 12.7703
318 1 -1.1104 15.9994 1.40095 7.70862 12.5168
319 1 -1.1104 15.9994 4.19308 7.68755 12.6518
320 1 -1.1104 15.9994 7.2058 5.01202 12.6544
321 1 -1.1104 15.9994 10.0135 5.26418 12.5613
322 1 -1.1104 15.9994 6.9223 7.87939 12.6835
323 1 -1.1104 15.9994 9.93717 8.00152 12.782
324 1 -1.1104 15.9994 12.9055 5.04823 12.66
325 1 -1.1104 15.9994 12.7135 8.07454 12.7432
326 1 -1.1104 15.9994 1.42627 10.6524 12.5759
327 1 -1.1104 15.9994 4.26215 10.6855 12.6914
328 1 -1.1104 15.9994 1.4188 13.4802 12.548
329 1 -1.1104 15.9994 4.10269 13.4918 12.6227
330 1 -1.1104 15.9994 6.99497 10.6077 12.6826
331 1 -1.1104 15.9994 9.62005 10.8177 12.6974
332 1 -1.1104 15.9994 7.19485 13.768 12.669
333 1 -1.1104 15.9994 9.91908 13.5377 12.601
334 1 -1.1104 15.9994 12.4773 10.8388 12.4183
335 1 -1.1104 15.9994 12.6363 13.5328 12.7702
336 1 -1.1104 15.9994 1.3418 16.3487 12.5442
9180 2 2.2208 232.038 -0.0644193 23.4545 8.49886
96 2 2.2208 232.038 8.50277 23.6316 5.50395
5 3 -1.1104 15.9994 5.90842 11.9487 0.493496
9179 2 2.2208 232.038 -0.147612 3.36268 11.3627
9193 2 2.2208 232.038 -0.0486316 6.33557 8.5055
9169 2 2.2208 232.038 -0.00772531 14.8632 11.3931
44 2 2.2208 232.038 -0.000708353 23.5854 2.92642
449 2 2.2208 232.038 11.1595 20.6212 0.0216856
432 2 2.2208 232.038 8.6095 23.4748 0.0798462
374 2 2.2208 232.038 5.55987 23.482 13.9417
10 2 2.2208 232.038 11.5134 0.722123 -0.123549
355 2 2.2208 232.038 11.4229 0.828399 13.8344
716 2 2.2208 232.038 5.58061 4.9211 -0.0953874
724 2 2.2208 232.038 0.0138351 15.2231 -0.0155557
731 2 2.2208 232.038 5.66368 20.6757 0.0789923
434 2 2.2208 232.038 11.2731 -2.0141 22.1345
365 2 2.2208 232.038 11.192 12.2674 14.1311
691 1 -1.1104 15.9994 1.20554 22.0883 23.8892
625 1 -1.1104 15.9994 7.09198 2.46095 26.4238
718 2 2.2208 232.038 11.4904 4.65032 27.8963
615 1 -1.1104 15.9994 3.79006 -1.01228 21.3185
613 1 -1.1104 15.9994 1.26568 -0.63 23.7716
19 3 -1.1104 15.9994 9.63225 2.428 26.0849
9131 1 -1.1104 15.9994 6.16709 -1.55252 23.8066
131 1 -1.1104 15.9994 4.17011 2.60903 26.7615
619 1 -1.1104 15.9994 8.64112 -1.44356 21.743
362 1 -1.1104 15.9994 12.5634 21.9581 26.7101
9516 2 2.2208 232.038 -0.00411193 17.7227 14.0311
622 1 -1.1104 15.9994 10.3551 -1.38233 24.092
473 2 2.2208 232.038 5.53502 23.6856 25.2341
382 2 2.2208 232.038 8.86413 -1.87951 19.3223
367 1 -1.1104 15.9994 12.816 22.4049 23.9639
425 2 2.2208 232.038 11.3916 23.5224 19.61
386 2 2.2208 232.038 0.0251038 3.54304 16.9596
471 2 2.2208 232.038 8.27335 23.6877 22.2768
530 1 -1.1104 15.9994 10.7691 -1.37185 20.0128
372 1 -1.1104 15.9994 9.81628 21.9918 26.7573
380 2 2.2208 232.038 5.7409 -2.15241 17.2144
690 1 -1.1104 15.9994 12.7468 19.2114 26.8892
419 2 2.2208 232.038 0.0352278 23.3705 19.5238
376 1 -1.1104 15.9994 7.26988 21.9762 26.6129
377 2 2.2208 232.038 2.95421 0.5286 16.9138
689 1 -1.1104 15.9994 12.7579 19.3668 23.9085
360 2 2.2208 232.038 11.5446 6.66087 14.1344
717 2 2.2208 232.038 8.48072 7.40991 28.0206
381 2 2.2208 232.038 8.72852 0.878814 16.7959
726 2 2.2208 232.038 5.70423 14.9757 27.8439
383 2 2.2208 232.038 5.94175 0.782061 19.4126
688 1 -1.1104 15.9994 12.843 16.3143 26.6657
385 2 2.2208 232.038 11.4774 0.914425 19.5779
31 3 -1.1104 15.9994 10.3844 0.0349062 26.4031
387 2 2.2208 232.038 2.97758 6.39294 17.0012
388 2 2.2208 232.038 2.89283 3.47342 19.4933
682 1 -1.1104 15.9994 9.9937 16.5037 26.7936
390 2 2.2208 232.038 5.73663 3.76708 16.8034
391 2 2.2208 232.038 8.56484 6.5143 16.7541
392 2 2.2208 232.038 8.56888 3.77734 19.3911
393 2 2.2208 232.038 5.75543 6.45597 19.5668
394 2 2.2208 232.038 11.2874 3.70904 16.6847
395 2 2.2208 232.038 11.2604 6.43778 19.4935
687 1 -1.1104 15.9994 12.7504 16.4053 23.9
397 2 2.2208 232.038 2.64637 12.0786 16.6636
398 2 2.2208 232.038 2.77301 9.23433 19.4624
686 1 -1.1104 15.9994 10.0352 19.234 26.7565
400 2 2.2208 232.038 5.85839 9.32758 16.9767
401 2 2.2208 232.038 8.5055 12.3078 16.8637
402 2 2.2208 232.038 8.487 9.44501 19.6431
403 2 2.2208 232.038 5.5646 12.0987 19.4613
404 2 2.2208 232.038 11.3954 9.40388 16.7362
405 2 2.2208 232.038 11.3419 12.1633 19.6839
406 1 -1.1104 15.9994 9.97558 22.0637 23.7607
407 2 2.2208 232.038 2.87912 17.969 16.8758
408 2 2.2208 232.038 2.78717 15.0746 19.5299
712 2 2.2208 232.038 8.24623 0.572628 26.1444
410 2 2.2208 232.038 5.49592 14.9771 16.8184
411 2 2.2208 232.038 8.28283 17.7631 16.8533
412 2 2.2208 232.038 8.50846 15.1075 19.7188
413 2 2.2208 232.038 5.45411 18.0439 19.6114
414 2 2.2208 232.038 11.2451 15.0657 16.848
415 2 2.2208 232.038 11.2331 17.9805 19.4692
685 1 -1.1104 15.9994 6.80404 19.1056 26.741
17 2 2.2208 232.038 8.50755 3.2476 27.9075
418 2 2.2208 232.038 2.8937 20.6938 19.6353
359 2 2.2208 232.038 5.64791 6.35241 13.9442
420 2 2.2208 232.038 5.53737 20.6581 16.7653
466 2 2.2208 232.038 -0.0439262 20.6089 22.5311
422 2 2.2208 232.038 8.55915 20.7707 19.558
421 2 2.2208 232.038 8.435 23.5603 16.6311
424 2 2.2208 232.038 11.2162 20.961 16.6826
469 2 2.2208 232.038 -0.0854331 23.4011 25.264
426 1 -1.1104 15.9994 7.05726 22.3839 23.6475
427 2 2.2208 232.038 2.52245 0.709282 22.3646
680 1 -1.1104 15.9994 10.0206 16.6583 23.8635
429 1 -1.1104 15.9994 4.45807 22.0283 26.9709
467 2 2.2208 232.038 2.69934 23.3786 22.6836
431 2 2.2208 232.038 8.56994 1.06656 21.8098
638 1 -1.1104 15.9994 3.9506 8.30862 26.5372
433 2 2.2208 232.038 5.93547 0.641341 23.7638
684 1 -1.1104 15.9994 9.7459 19.4039 24.1176
435 2 2.2208 232.038 11.1312 0.836385 24.4391
692 1 -1.1104 15.9994 4.09748 22.3477 24.1687
437 2 2.2208 232.038 2.8337 6.55831 22.2823
438 2 2.2208 232.038 2.93544 3.83763 25.2608
439 1 -1.1104 15.9994 1.54553 22.0941 26.6563
440 2 2.2208 232.038 5.56877 3.82998 21.9662
441 2 2.2208 232.038 8.43722 6.70485 22.1398
442 2 2.2208 232.038 8.29686 3.97258 24.6893
443 2 2.2208 232.038 5.71066 6.6525 25.0011
444 2 2.2208 232.038 11.2571 3.7615 22.178
445 2 2.2208 232.038 11.2492 6.59211 24.9229
9050 1 -1.1104 15.9994 6.64935 -1.55671 19.516
447 2 2.2208 232.038 2.58093 12.2401 22.5442
448 2 2.2208 232.038 2.7997 9.4229 25.1247
683 1 -1.1104 15.9994 7.1133 19.5023 23.6691
450 2 2.2208 232.038 5.53706 9.55893 22.1487
451 2 2.2208 232.038 8.48436 12.3204 22.2633
452 2 2.2208 232.038 8.22014 9.40514 24.9497
453 2 2.2208 232.038 5.69929 12.3162 25.203
454 2 2.2208 232.038 11.3958 9.45612 22.6011
455 2 2.2208 232.038 11.2193 12.3606 25.4592
531 1 -1.1104 15.9994 8.07891 -1.49204 16.5073
457 2 2.2208 232.038 2.78315 17.8317 22.3175
458 2 2.2208 232.038 2.74659 15.2429 25.2061
46 3 -1.1104 15.9994 3.80853 -1.60402 26.3595
460 2 2.2208 232.038 5.6797 14.9612 22.4911
461 2 2.2208 232.038 8.5335 18.0122 22.4061
462 2 2.2208 232.038 8.49233 15.3829 25.3096
463 2 2.2208 232.038 5.64368 17.942 25.1671
464 2 2.2208 232.038 11.3289 14.885 22.626
465 2 2.2208 232.038 11.4911 17.8412 25.3787
361 2 2.2208 232.038 2.82387 9.15415 14.0185
389 2 2.2208 232.038 -0.166914 6.43022 19.5927
468 2 2.2208 232.038 2.85341 20.6916 25.5253
423 2 2.2208 232.038 5.51113 23.5397 19.6083
470 2 2.2208 232.038 5.57557 20.811 22.473
366 2 2.2208 232.038 2.8429 14.9714 14.0449
472 2 2.2208 232.038 8.38729 20.8369 25.0624
9854 2 2.2208 232.038 0.0866754 12.2189 25.2671
474 2 2.2208 232.038 11.3238 20.6873 22.5507
475 2 2.2208 232.038 11.2409 23.4253 25.1227
459 2 2.2208 232.038 -0.050981 17.9122 25.2017
477 1 -1.1104 15.9994 4.0907 -0.741566 15.3037
478 1 -1.1104 15.9994 1.42234 2.28771 15.6016
479 1 -1.1104 15.9994 4.2318 2.43816 15.5468
480 1 -1.1104 15.9994 6.9924 2.44452 15.406
481 1 -1.1104 15.9994 10.3057 -0.366236 17.5111
45 3 -1.1104 15.9994 1.20205 -0.671287 26.2891
483 1 -1.1104 15.9994 9.87285 2.30093 15.2284
484 1 -1.1104 15.9994 12.4339 -0.551787 15.4755
485 1 -1.1104 15.9994 12.8136 2.17363 15.1777
486 1 -1.1104 15.9994 1.31222 5.07847 15.4421
487 1 -1.1104 15.9994 4.1565 5.26714 15.4359
488 1 -1.1104 15.9994 1.43062 7.80882 15.4394
489 1 -1.1104 15.9994 4.49448 7.77107 15.5166
490 1 -1.1104 15.9994 7.18208 5.26026 15.4361
491 1 -1.1104 15.9994 9.98601 5.24142 15.2047
492 1 -1.1104 15.9994 7.28224 8.16931 15.6325
493 1 -1.1104 15.9994 10.1554 8.00253 15.3234
494 1 -1.1104 15.9994 12.6465 5.17349 15.4436
495 1 -1.1104 15.9994 12.7911 8.03106 15.3528
496 1 -1.1104 15.9994 1.37425 10.5751 15.3735
497 1 -1.1104 15.9994 4.12062 10.6748 15.4699
498 1 -1.1104 15.9994 1.20688 13.6459 15.2218
499 1 -1.1104 15.9994 3.88814 13.4902 15.4805
500 1 -1.1104 15.9994 6.99298 10.9883 15.3881
501 1 -1.1104 15.9994 9.93537 10.9842 15.6674
502 1 -1.1104 15.9994 6.97385 13.6429 15.2808
503 1 -1.1104 15.9994 9.89 13.7948 15.3083
504 1 -1.1104 15.9994 12.7781 10.9113 15.264
505 1 -1.1104 15.9994 12.6785 13.5518 15.4965
506 1 -1.1104 15.9994 1.28687 16.4215 15.2308
507 1 -1.1104 15.9994 4.08732 16.4831 15.3992
508 1 -1.1104 15.9994 1.39525 19.237 15.7284
509 1 -1.1104 15.9994 4.27308 19.2907 15.3813
510 1 -1.1104 15.9994 6.96277 16.2872 15.528
511 1 -1.1104 15.9994 9.80662 16.6385 15.3457
512 1 -1.1104 15.9994 6.9638 19.1383 15.3723
513 1 -1.1104 15.9994 9.85736 19.2195 15.2904
514 1 -1.1104 15.9994 12.7201 16.3406 15.4392
515 1 -1.1104 15.9994 12.7867 19.5143 15.4182
516 1 -1.1104 15.9994 1.31226 21.936 15.4247
517 1 -1.1104 15.9994 4.29282 22.0713 15.5595
518 1 -1.1104 15.9994 6.99852 21.9907 15.1534
519 1 -1.1104 15.9994 9.78878 22.284 15.2854
520 1 -1.1104 15.9994 12.7961 22.3902 15.2804
521 1 -1.1104 15.9994 1.37227 -0.946463 15.8263
522 1 -1.1104 15.9994 4.31398 -0.664467 18.4311
523 1 -1.1104 15.9994 1.57767 -0.642985 18.279
524 1 -1.1104 15.9994 1.31203 -0.689042 21.0473
525 1 -1.1104 15.9994 1.43579 2.15142 18.2803
526 1 -1.1104 15.9994 4.58308 2.25992 18.3576
527 1 -1.1104 15.9994 1.42347 2.17664 21.0641
528 1 -1.1104 15.9994 4.24412 2.14025 21.2596
529 1 -1.1104 15.9994 6.29394 0.188384 16.6649
727 2 2.2208 232.038 8.56793 17.9626 27.9194
720 2 2.2208 232.038 2.88706 12.0309 28.0845
532 1 -1.1104 15.9994 8.42545 0.387641 19.4763
533 1 -1.1104 15.9994 7.32431 2.51793 17.9537
534 1 -1.1104 15.9994 10.0006 2.59566 18.0169
535 1 -1.1104 15.9994 6.91337 2.61694 20.7074
536 1 -1.1104 15.9994 10.0843 2.41484 20.5732
537 1 -1.1104 15.9994 13.0956 -0.655033 18.3112
538 1 -1.1104 15.9994 13.0789 -0.876953 21.4529
539 1 -1.1104 15.9994 12.6242 2.12078 18.063
540 1 -1.1104 15.9994 12.7587 2.18613 20.9612
541 1 -1.1104 15.9994 1.35066 5.02108 18.1352
542 1 -1.1104 15.9994 4.36588 5.02825 18.3726
543 1 -1.1104 15.9994 1.20866 5.22205 21.1115
544 1 -1.1104 15.9994 4.00223 5.3149 20.7947
545 1 -1.1104 15.9994 1.27397 7.81307 18.2023
546 1 -1.1104 15.9994 4.47614 8.05048 18.3297
547 1 -1.1104 15.9994 1.42361 8.20718 21.0291
548 1 -1.1104 15.9994 4.35379 7.94321 20.9898
549 1 -1.1104 15.9994 7.18085 5.27818 18.2123
550 1 -1.1104 15.9994 9.86467 5.00362 17.9177
551 1 -1.1104 15.9994 7.04251 5.31893 20.9529
552 1 -1.1104 15.9994 9.80833 5.09554 20.6885
553 1 -1.1104 15.9994 7.12006 7.84786 18.3244
554 1 -1.1104 15.9994 9.75391 8.05841 18.0396
555 1 -1.1104 15.9994 7.18712 8.22816 20.8763
556 1 -1.1104 15.9994 10.1289 7.9643 21.0112
557 1 -1.1104 15.9994 12.4523 5.02777 18.1948
558 1 -1.1104 15.9994 12.7077 5.03548 20.9978
559 1 -1.1104 15.9994 12.5829 7.89151 18.1118
560 1 -1.1104 15.9994 12.8907 7.91457 21.2111
561 1 -1.1104 15.9994 1.31091 10.5661 18.2125
562 1 -1.1104 15.9994 4.05913 10.8765 18.14
563 1 -1.1104 15.9994 1.53632 10.9861 21.1475
564 1 -1.1104 15.9994 4.16013 10.8188 20.6933
565 1 -1.1104 15.9994 1.44456 13.3478 18.1753
566 1 -1.1104 15.9994 4.18302 13.5408 18.2916
567 1 -1.1104 15.9994 1.23176 13.7802 20.9567
568 1 -1.1104 15.9994 4.07817 13.6723 21.0413
569 1 -1.1104 15.9994 7.09867 10.7921 18.2298
570 1 -1.1104 15.9994 9.94967 10.9724 18.3479
571 1 -1.1104 15.9994 7.0394 10.9832 20.9553
572 1 -1.1104 15.9994 10.0224 10.9279 21.1838
573 1 -1.1104 15.9994 7.09851 13.8314 18.2355
574 1 -1.1104 15.9994 10.0313 13.673 18.2939
575 1 -1.1104 15.9994 6.768 13.6898 21.1276
576 1 -1.1104 15.9994 9.74739 13.6599 21.1346
577 1 -1.1104 15.9994 12.614 10.5939 18.296
578 1 -1.1104 15.9994 12.75 10.7598 20.9298
579 1 -1.1104 15.9994 12.7586 13.4192 18.3149
580 1 -1.1104 15.9994 12.5674 13.6742 21.1739
581 1 -1.1104 15.9994 1.45164 16.3801 18.0169
582 1 -1.1104 15.9994 4.12177 16.6216 18.2313
583 1 -1.1104 15.9994 1.37333 16.6014 20.6468
584 1 -1.1104 15.9994 4.24535 16.5838 20.9271
585 1 -1.1104 15.9994 1.35017 19.1912 18.3617
586 1 -1.1104 15.9994 4.07034 19.4265 18.2121
587 1 -1.1104 15.9994 1.54945 19.2832 21.1807
588 1 -1.1104 15.9994 4.27132 19.4188 20.8003
589 1 -1.1104 15.9994 6.88476 16.561 18.2789
590 1 -1.1104 15.9994 9.57114 16.4327 18.1638
591 1 -1.1104 15.9994 7.16839 16.5781 21.0666
592 1 -1.1104 15.9994 9.86787 16.6031 20.9198
593 1 -1.1104 15.9994 7.05902 19.4236 18.1995
594 1 -1.1104 15.9994 9.85725 19.3473 18.1233
595 1 -1.1104 15.9994 7.11912 19.5944 21.0781
596 1 -1.1104 15.9994 9.95379 19.3561 20.9589
597 1 -1.1104 15.9994 12.5661 16.4062 18.2041
598 1 -1.1104 15.9994 12.7552 16.4548 21.1415
599 1 -1.1104 15.9994 12.6579 19.2724 18.0118
600 1 -1.1104 15.9994 12.7455 19.0423 21.0325
601 1 -1.1104 15.9994 1.52732 21.9896 18.0948
602 1 -1.1104 15.9994 4.37306 22.1186 18.2909
603 1 -1.1104 15.9994 1.22624 21.9313 20.9588
604 1 -1.1104 15.9994 4.03263 22.3935 21.2398
605 1 -1.1104 15.9994 7.16182 22.1216 17.859
606 1 -1.1104 15.9994 9.79241 22.2905 18.4161
607 1 -1.1104 15.9994 7.00757 22.2706 20.806
608 1 -1.1104 15.9994 9.91163 22.1021 21.1505
609 1 -1.1104 15.9994 12.5935 22.2133 18.2259
610 1 -1.1104 15.9994 12.7142 22.2474 20.7983
396 2 2.2208 232.038 -0.152279 9.18631 16.9569
612 1 -1.1104 15.9994 6.34773 0.228106 21.5475
375 2 2.2208 232.038 11.4197 23.4781 13.9622
614 1 -1.1104 15.9994 3.84283 -0.584817 23.9618
358 2 2.2208 232.038 8.61926 3.7343 14.0468
616 1 -1.1104 15.9994 4.05346 2.0353 24.0257
617 1 -1.1104 15.9994 1.09668 2.06804 23.9644
618 1 -1.1104 15.9994 1.57545 2.03543 26.6105
681 1 -1.1104 15.9994 7.0323 16.5781 26.9465
620 1 -1.1104 15.9994 10.7844 0.454635 22.2304
621 1 -1.1104 15.9994 5.87993 0.174471 25.9523
710 2 2.2208 232.038 3.33321 0.601988 26.0223
623 1 -1.1104 15.9994 6.85055 2.64191 23.3643
624 1 -1.1104 15.9994 9.60672 2.72394 23.4797
39 3 -1.1104 15.9994 8.32251 -1.85506 26.1599
626 1 -1.1104 15.9994 8.27245 0.4423 23.8732
627 1 -1.1104 15.9994 13.0637 -0.643929 24.2306
628 1 -1.1104 15.9994 13.1009 -0.913855 26.9542
629 1 -1.1104 15.9994 12.6542 2.22295 23.8495
630 1 -1.1104 15.9994 12.4924 2.00466 26.4246
631 1 -1.1104 15.9994 1.42658 4.9955 23.8944
632 1 -1.1104 15.9994 4.18442 5.08912 23.605
633 1 -1.1104 15.9994 1.18323 5.0867 26.6361
634 1 -1.1104 15.9994 4.22582 5.72901 26.486
635 1 -1.1104 15.9994 1.34246 7.85269 23.6458
636 1 -1.1104 15.9994 4.2733 7.95827 23.7292
637 1 -1.1104 15.9994 1.10402 8.13748 26.5334
417 2 2.2208 232.038 2.96334 23.5332 16.7692
639 1 -1.1104 15.9994 6.79706 5.48157 23.4955
640 1 -1.1104 15.9994 9.74196 5.31931 23.2963
641 1 -1.1104 15.9994 7.12102 5.16158 26.1904
642 1 -1.1104 15.9994 9.871 5.05958 26.1878
643 1 -1.1104 15.9994 7.04747 8.11049 23.5456
644 1 -1.1104 15.9994 9.89473 8.1176 23.8469
645 1 -1.1104 15.9994 7.11124 8.1717 26.2839
646 1 -1.1104 15.9994 10.0418 8.27349 26.4716
647 1 -1.1104 15.9994 12.6473 5.18178 23.6442
648 1 -1.1104 15.9994 13.1954 5.19727 26.5873
649 1 -1.1104 15.9994 12.6703 7.91354 23.8245