LAMMPS (29 Oct 2020)
OMP_NUM_THREADS environment is not set. Defaulting to 1 thread. (../comm.cpp:94)
  using 1 OpenMP thread(s) per MPI task
OMP_NUM_THREADS environment is not set. Defaulting to 1 thread. (../comm.cpp:94)
  using 1 OpenMP thread(s) per MPI task
Reading data file ...
  orthogonal box = (-0.27717828 -3.4472206 -0.27717828) to (27.617178 331.52722 27.617178)
  2 by 13 by 2 MPI processor grid
  reading atoms ...
  18000 atoms
  reading velocities ...
  18000 velocities
Finding 1-2 1-3 1-4 neighbors ...
  special bond factors lj:    0.0      0.0      0.0     
  special bond factors coul:  0.0      0.0      0.0     
     0 = max # of 1-2 neighbors
     0 = max # of 1-3 neighbors
     0 = max # of 1-4 neighbors
     1 = max # of special neighbors
  special bonds CPU = 0.004 seconds
  read_data CPU = 0.075 seconds
120 atoms in group Th_delete
240 atoms in group O_delete
360 atoms in group delete
WARNING: Ignoring 'compress yes' for molecular system (../delete_atoms.cpp:125)
Deleted 360 atoms, new total = 17640
Setting atom values ...
  11760 settings made for charge
Setting atom values ...
  5880 settings made for charge
PPPM initialization ...
  using 12-bit tables for long-range coulomb (../kspace.cpp:328)
  G vector (1/distance) = 0.29912164
  grid = 40 240 40
  stencil order = 5
  estimated absolute RMS force accuracy = 0.00015376724
  estimated relative force accuracy = 1.0678544e-05
  using single precision MKL FFT
  3d grid and FFT values/proc = 18225 7600
Neighbor list info ...
  update every 1 steps, delay 0 steps, check yes
  max neighbors/atom: 2000, page size: 100000
  master list distance cutoff = 13
  ghost atom cutoff = 13
  binsize = 6.5, bins = 5 52 5
  2 neighbor lists, perpetual/occasional/extra = 2 0 0
  (1) pair coul/long, perpetual
      attributes: half, newton on
      pair build: half/bin/newton
      stencil: half/bin/3d/newton
      bin: standard
  (2) pair eam/alloy, perpetual, copy from (1)
      attributes: half, newton on
      pair build: copy
      stencil: none
      bin: none
Setting up cg style minimization ...
  Unit style    : metal
  Current step  : 0
WARNING: Energy due to 3 extra global DOFs will be included in minimizer energies
Per MPI rank memory allocation (min/avg/max) = 9.468 | 10.10 | 10.28 Mbytes
Step Temp E_pair E_mol TotEng Press Volume 
       0            0   -230608.63            0   -230608.63   -4106.1171    260641.98 
     262            0   -231333.88            0   -231333.88     33.89544    261397.04 
Loop time of 4.64416 on 52 procs for 262 steps with 17640 atoms

99.4% CPU use with 52 MPI tasks x 1 OpenMP threads

Minimization stats:
  Stopping criterion = linesearch alpha is zero
  Energy initial, next-to-last, final = 
     -230608.627667571  -231333.884336859  -231333.884336859
  Force two-norm initial, final = 1200.5509 19.907016
  Force max component initial, final = 885.21993 12.831226
  Final line search alpha, max atom move = 2.5060126e-11 3.2155214e-10
  Iterations, force evaluations = 262 436

MPI task timing breakdown:
Section |  min time  |  avg time  |  max time  |%varavg| %total
---------------------------------------------------------------
Pair    | 2.7189     | 2.847      | 2.9676     |   3.1 | 61.30
Bond    | 3.713e-05  | 5.4933e-05 | 8.8997e-05 |   0.0 |  0.00
Kspace  | 0.68196    | 0.80294    | 0.93355    |   6.0 | 17.29
Neigh   | 0.0075814  | 0.008949   | 0.010216   |   0.6 |  0.19
Comm    | 0.072656   | 0.074234   | 0.076017   |   0.2 |  1.60
Output  | 0          | 0          | 0          |   0.0 |  0.00
Modify  | 0          | 0          | 0          |   0.0 |  0.00
Other   |            | 0.911      |            |       | 19.62

Nlocal:        339.231 ave         372 max         303 min
Histogram: 2 5 2 8 7 8 10 2 5 3
Nghost:        5528.67 ave        5657 max        5381 min
Histogram: 1 6 6 5 6 6 8 3 7 4
Neighs:       107330.0 ave      118418 max       94139 min
Histogram: 2 3 3 6 6 10 9 5 4 4

Total # of neighbors = 5581164
Ave neighs/atom = 316.39252
Ave special neighs/atom = 0.0000000
Neighbor list builds = 3
Dangerous builds = 0
Resetting atom IDs ...
PPPM initialization ...
  using 12-bit tables for long-range coulomb (../kspace.cpp:328)
  G vector (1/distance) = 0.29907536
  grid = 40 240 40
  stencil order = 5
  estimated absolute RMS force accuracy = 0.00015410438
  estimated relative force accuracy = 1.0701957e-05
  using single precision MKL FFT
  3d grid and FFT values/proc = 18225 7600
Finding 1-2 1-3 1-4 neighbors ...
  special bond factors lj:    0.0      0.0      0.0     
  special bond factors coul:  0.0      0.0      0.0     
     0 = max # of 1-2 neighbors
     0 = max # of 1-3 neighbors
     0 = max # of 1-4 neighbors
     1 = max # of special neighbors
  special bonds CPU = 0.001 seconds
PPPM initialization ...
  using 12-bit tables for long-range coulomb (../kspace.cpp:328)
  G vector (1/distance) = 0.29907536
  grid = 40 240 40
  stencil order = 5
  estimated absolute RMS force accuracy = 0.00015410438
  estimated relative force accuracy = 1.0701957e-05
  using single precision MKL FFT
  3d grid and FFT values/proc = 18225 7600
Setting up Verlet run ...
  Unit style    : metal
  Current step  : 262
  Time step     : 0.001
Per MPI rank memory allocation (min/avg/max) = 8.344 | 9.120 | 9.151 Mbytes
Step Dt Time Atoms Temp PotEng KinEng Press Volume 
     262        0.001            0    17640          300   -231333.89    684.00591    2828.7728    261397.04 
   20000        0.001       19.738    17640    303.07438   -230831.82    691.01555    -170.4168       263251 
   40000        0.001       39.738    17640    301.01326   -230843.67    686.31615    424.62833    263184.99 
   60000        0.001       59.738    17640     298.9252   -230853.97    681.55534    180.92601    263187.23 
   80000        0.001       79.738    17640    300.81848   -230852.63    685.87206   -8.4062429    263210.02 
  100000        0.001       99.738    17640    299.89423   -230852.65    683.76475   -113.48943    263218.32 
  100262        0.001          100    17640     299.2941   -230855.72    682.39644   -357.47791    263219.39 
Loop time of 820.11 on 52 procs for 100000 steps with 17640 atoms

Performance: 10.535 ns/day, 2.278 hours/ns, 121.935 timesteps/s
99.8% CPU use with 52 MPI tasks x 1 OpenMP threads

MPI task timing breakdown:
Section |  min time  |  avg time  |  max time  |%varavg| %total
---------------------------------------------------------------
Pair    | 519.94     | 533.42     | 554.69     |  35.6 | 65.04
Bond    | 0.010179   | 0.013408   | 0.018169   |   1.9 |  0.00
Kspace  | 145.07     | 166.39     | 179.72     |  63.9 | 20.29
Neigh   | 0.4346     | 0.46924    | 0.51033    |   2.6 |  0.06
Comm    | 15.618     | 16.205     | 16.622     |   5.2 |  1.98
Output  | 0.02519    | 0.025213   | 0.026246   |   0.1 |  0.00
Modify  | 92.83      | 96.156     | 99.835     |  20.7 | 11.72
Other   |            | 7.432      |            |       |  0.91

Nlocal:        339.231 ave         367 max         318 min
Histogram: 4 7 7 7 10 4 5 3 2 3
Nghost:        5528.10 ave        5658 max        5399 min
Histogram: 4 4 7 7 6 3 5 4 7 5
Neighs:       107249.0 ave      117692 max       98318 min
Histogram: 3 6 9 2 7 13 1 6 3 2

Total # of neighbors = 5576959
Ave neighs/atom = 316.15414
Ave special neighs/atom = 0.0000000
Neighbor list builds = 163
Dangerous builds = 0
WARNING: Shell command 'mkdir' failed with error 'File exists' (../input.cpp:1197)
System init for write_data ...
PPPM initialization ...
  using 12-bit tables for long-range coulomb (../kspace.cpp:328)
  G vector (1/distance) = 0.298943
  grid = 40 240 40
  stencil order = 5
  estimated absolute RMS force accuracy = 0.00015518835
  estimated relative force accuracy = 1.0777234e-05
  using single precision MKL FFT
  3d grid and FFT values/proc = 18225 7600
Total wall time: 0:13:45
