LAMMPS (29 Oct 2020)
OMP_NUM_THREADS environment is not set. Defaulting to 1 thread. (../comm.cpp:94)
  using 1 OpenMP thread(s) per MPI task
#---------------------------------------
#
# This script is used to calculate the thermal conuctivity of UO2 using Muller-Plathe method
# By Ziqiang Wang on 03/18/2022 on Jilin university
#
#---------------------------------------

variable     Nevery    equal   50
variable     T         equal   1500

clear
OMP_NUM_THREADS environment is not set. Defaulting to 1 thread. (../comm.cpp:94)
  using 1 OpenMP thread(s) per MPI task
units          metal
boundary       p p p
atom_style     full

read_data Frenkel_0.005_relaxed.dat
Reading data file ...
  triclinic box = (-0.23813825 -2.6429791 -0.22658236) to (28.132138 337.37098 28.120582) with tilt (0.0000000 0.0000000 0.0000000)
  2 by 13 by 2 MPI processor grid
  reading atoms ...
  18000 atoms
  reading velocities ...
  18000 velocities
Finding 1-2 1-3 1-4 neighbors ...
  special bond factors lj:    0.0      0.0      0.0     
  special bond factors coul:  0.0      0.0      0.0     
     0 = max # of 1-2 neighbors
     0 = max # of 1-3 neighbors
     0 = max # of 1-4 neighbors
     1 = max # of special neighbors
  special bonds CPU = 0.004 seconds
  read_data CPU = 0.070 seconds

set           type     1    charge     -1.1104
Setting atom values ...
  11940 settings made for charge
set           type     2    charge      2.2208
Setting atom values ...
  5970 settings made for charge

kspace_style    pppm   1.0e-05
pair_style      hybrid/overlay  coul/long  11.0  eam/alloy
pair_coeff      * * coul/long
pair_coeff      * * eam/alloy CeThUNpPuAmCmO.eam.alloy O Th O Th
newton          on
neighbor        0.3 bin
neigh_modify    delay 0 check yes every 1

#The first equilation
velocity        all create $T 10003 mom yes rot yes dist gaussian
velocity        all create 1500 10003 mom yes rot yes dist gaussian
fix             nvt  all  nvt  temp  $T $T  0.1
fix             nvt  all  nvt  temp  1500 $T  0.1
fix             nvt  all  nvt  temp  1500 1500  0.1

run             100000
PPPM initialization ...
  using 12-bit tables for long-range coulomb (../kspace.cpp:328)
  G vector (1/distance) = 0.29826854
  grid = 40 240 40
  stencil order = 5
  estimated absolute RMS force accuracy = 0.00016233523
  estimated relative force accuracy = 1.1273557e-05
  using single precision MKL FFT
  3d grid and FFT values/proc = 15000 7600
Neighbor list info ...
  update every 1 steps, delay 0 steps, check yes
  max neighbors/atom: 2000, page size: 100000
  master list distance cutoff = 11.3
  ghost atom cutoff = 11.3
  binsize = 5.65, bins = 6 61 6
  2 neighbor lists, perpetual/occasional/extra = 2 0 0
  (1) pair coul/long, perpetual
      attributes: half, newton on
      pair build: half/bin/newton/tri
      stencil: half/bin/3d/newton/tri
      bin: standard
  (2) pair eam/alloy, perpetual, copy from (1)
      attributes: half, newton on
      pair build: copy
      stencil: none
      bin: none
Per MPI rank memory allocation (min/avg/max) = 8.313 | 8.341 | 8.357 Mbytes
Step Temp E_pair E_mol TotEng Press 
       0         1500    -232741.8            0   -229251.97    1051.2809 
  100000    1497.3977   -232699.05            0   -229215.28     2214.103 
Loop time of 684.571 on 52 procs for 100000 steps with 18000 atoms

Performance: 12.621 ns/day, 1.902 hours/ns, 146.077 timesteps/s
99.8% CPU use with 52 MPI tasks x 1 OpenMP threads

MPI task timing breakdown:
Section |  min time  |  avg time  |  max time  |%varavg| %total
---------------------------------------------------------------
Pair    | 445.68     | 457.18     | 470.1      |  25.8 | 66.78
Bond    | 0.0075472  | 0.010124   | 0.015285   |   1.8 |  0.00
Kspace  | 128        | 143.12     | 155.26     |  54.5 | 20.91
Neigh   | 60.234     | 62.986     | 66.66      |  21.8 |  9.20
Comm    | 15.761     | 16.794     | 19.07      |  21.9 |  2.45
Output  | 5.3126e-05 | 5.8348e-05 | 0.00026392 |   0.0 |  0.00
Modify  | 1.8574     | 3.208      | 5.1127     |  63.3 |  0.47
Other   |            | 1.278      |            |       |  0.19

Nlocal:        346.154 ave         365 max         332 min
Histogram: 7 6 10 5 3 4 7 3 2 5
Nghost:        3969.92 ave        4086 max        3902 min
Histogram: 6 12 6 8 6 4 5 1 0 4
Neighs:        69526.0 ave       73734 max       65959 min
Histogram: 1 9 8 10 3 5 5 2 3 6

Total # of neighbors = 3615351
Ave neighs/atom = 200.85283
Ave special neighs/atom = 0.0000000
Neighbor list builds = 24995
Dangerous builds = 0
unfix           nvt
reset_timestep  0

# the second run
fix             1 all nve

group           oxygen type 1
11940 atoms in group oxygen
fix             2 oxygen thermal/conductivity ${Nevery} y 20
fix             2 oxygen thermal/conductivity 50 y 20

compute         ke all ke/atom
variable        temp atom c_ke/1.5
compute         layers all chunk/atom bin/1d y lower 0.05 units reduced
fix             3      all ave/chunk  2000 50 100000 layers v_temp file profile_${T}K.mp
fix             3      all ave/chunk  2000 50 100000 layers v_temp file profile_1500K.mp

variable        Tdiff    equal     f_3[11][3]-f_3[1][3]
variable        deltaT   equal     v_Tdiff*1.5/0.0001292

timestep        0.001
thermo_style    custom step f_2 temp v_Tdiff v_deltaT
thermo          100000

run             1000000
PPPM initialization ...
  using 12-bit tables for long-range coulomb (../kspace.cpp:328)
  G vector (1/distance) = 0.29826854
  grid = 40 240 40
  stencil order = 5
  estimated absolute RMS force accuracy = 0.00016233523
  estimated relative force accuracy = 1.1273557e-05
  using single precision MKL FFT
  3d grid and FFT values/proc = 15000 7600
Per MPI rank memory allocation (min/avg/max) = 8.564 | 8.592 | 8.608 Mbytes
Step f_2 Temp v_Tdiff v_deltaT 
       0            0    1497.3977            0            0 
  100000    1588.2485    1496.8404  0.067435504    782.91994 
  200000    3062.0652      1512.65  0.083004348    963.67277 
  300000    4550.3259    1496.2915   0.08123197    943.09562 
  400000    6017.7559    1513.9112  0.084427914    980.20023 
  500000     7484.465    1509.6365  0.084948912    986.24898 
  600000     8969.078    1514.1255  0.085167502    988.78679 
  700000     10445.17    1514.0859  0.086621376    1005.6661 
  800000    11942.165    1494.0221  0.082453571     957.2783 
  900000    13429.057    1512.2201   0.08383211    973.28301 
 1000000    14904.088    1509.0673  0.083941343     974.5512 
Loop time of 6826.8 on 52 procs for 1000000 steps with 18000 atoms

Performance: 12.656 ns/day, 1.896 hours/ns, 146.481 timesteps/s
99.8% CPU use with 52 MPI tasks x 1 OpenMP threads

MPI task timing breakdown:
Section |  min time  |  avg time  |  max time  |%varavg| %total
---------------------------------------------------------------
Pair    | 4452.4     | 4527.7     | 4641.5     |  70.0 | 66.32
Bond    | 0.079132   | 0.10163    | 0.14193    |   4.5 |  0.00
Kspace  | 1321.8     | 1449.7     | 1535.4     | 133.0 | 21.23
Neigh   | 616.34     | 639.74     | 681.79     |  56.7 |  9.37
Comm    | 157.44     | 169.12     | 203.01     |  93.7 |  2.48
Output  | 0.0010804  | 0.0011459  | 0.0022888  |   0.5 |  0.00
Modify  | 5.3658     | 5.9461     | 6.5525     |  11.4 |  0.09
Other   |            | 34.49      |            |       |  0.51

Nlocal:        346.154 ave         368 max         330 min
Histogram: 4 4 7 13 6 6 6 3 0 3
Nghost:        3959.52 ave        4069 max        3880 min
Histogram: 2 2 13 11 12 5 1 1 3 2
Neighs:        69498.1 ave       73694 max       65445 min
Histogram: 2 3 4 10 9 9 8 3 0 4

Total # of neighbors = 3613899
Ave neighs/atom = 200.77217
Ave special neighs/atom = 0.0000000
Neighbor list builds = 253588
Dangerous builds = 0

Total wall time: 2:05:11
