LAMMPS data file via write_data, version 29 Oct 2020, timestep = 100000

18000 atoms
4 atom types

-0.1466233906752155 28.040623390675385 xlo xhi
-1.6705545749678683 336.3985545749636 ylo yhi
-0.13312569250703632 28.027125692507543 zlo zhi
0.0 0.0 0.0 xy xz yz

Masses

1 15.9994
2 232.0381
3 15.9994
4 232.0381

Atoms # full

1 0 1 -1.1104 1.3460030637054108 -0.13087947399072455 1.115930164768673 0 0 0
2 0 1 -1.1104 3.992207720170881 -0.22372766924406737 1.29682729144424 0 0 0
3 0 1 -1.1104 3.911469049712899 -0.27711527558785437 4.168906239960523 0 0 0
4 0 1 -1.1104 0.9651501714417217 -0.17830052135482669 3.921134505022903 0 0 0
5 0 1 -1.1104 0.9897578372716943 2.515931643423765 1.2353446382869842 0 0 0
6 0 1 -1.1104 3.7171411874791724 2.589470532204703 1.2961128268443143 0 0 0
7 0 1 -1.1104 3.968979500967196 2.5317399917146943 4.084230724161166 0 0 0
8 0 1 -1.1104 1.088904642155443 2.6355040298220507 3.9554946311385564 0 0 0
9 0 1 -1.1104 6.504312681199431 2.7925572390688433 3.888349449745192 0 0 0
10 0 1 -1.1104 9.625557845999026 -0.24163846973760988 1.3689632625036197 0 0 0
11 0 1 -1.1104 9.556963350459641 -0.1465640604976772 3.961364004778395 0 0 0
12 0 1 -1.1104 6.711763482531853 -0.46871160311087195 6.779680672578543 0 0 0
13 0 1 -1.1104 6.656792990194465 5.3672804969710075 1.3467232710458512 0 0 0
14 0 1 -1.1104 9.55036300653417 2.6317986848507777 1.4041158538556502 0 0 0
15 0 1 -1.1104 9.38702998182047 2.5790036498810225 3.934285565536429 0 0 0
16 0 1 -1.1104 6.751978340630618 2.3442560498811087 6.829343921143866 0 0 0
17 0 1 -1.1104 12.446102922259925 -0.3281522646738449 1.2145410539829722 0 0 0
18 0 1 -1.1104 12.313225461002348 -0.13617443508296548 3.9329961871076113 0 0 0
19 0 1 -1.1104 12.32580549254754 2.453018619500664 1.2563389896800048 0 0 0
20 0 1 -1.1104 12.20610872922322 2.6133706806644614 3.9463843565284598 0 0 0
21 0 1 -1.1104 0.9298800376491839 5.347197144626858 1.1738768559684203 0 0 0
22 0 1 -1.1104 3.859672249302167 5.433676110772738 1.1582404127740153 0 0 0
23 0 1 -1.1104 3.85035049836668 5.565435399503411 4.064158056509727 0 0 0
24 0 1 -1.1104 1.0092431172812781 5.557567167547301 4.078575999864873 0 0 0
25 0 1 -1.1104 0.9654589348977878 8.183194996547146 1.1385007135020102 0 0 0
26 0 1 -1.1104 3.753173326539783 8.373060328330167 1.1173616124690635 0 0 0
27 0 1 -1.1104 3.6633411886415352 8.195442077191728 3.9133514346498024 0 0 0
28 0 1 -1.1104 0.9266207014604063 8.322867113451084 3.9700364601390095 0 0 0
29 0 1 -1.1104 9.423329695197612 8.344426269757248 1.3116622909972533 0 0 0
30 0 1 -1.1104 9.552238437034822 5.4086964652523255 1.1085657779028169 0 0 0
31 0 1 -1.1104 9.487910416545434 5.446030148297285 3.9349015217309504 0 0 0
32 0 1 -1.1104 6.743716595239398 5.555911532535028 4.105145436763364 0 0 0
33 0 1 -1.1104 6.6787776416143565 8.084726279653026 1.2456441366811482 0 0 0
34 0 1 -1.1104 12.287982752807999 8.358625099853874 1.2276100735296505 0 0 0
35 0 1 -1.1104 9.406910652012028 8.24716442658545 4.131815842082852 0 0 0
36 0 1 -1.1104 6.504629444828444 8.242205974512485 3.910619657523 0 0 0
37 0 1 -1.1104 12.325120394873375 5.442160317089417 1.1456918258218192 0 0 0
38 0 1 -1.1104 12.243989986584502 5.381078036270999 4.118743260883914 0 0 0
39 0 1 -1.1104 12.196212268851477 11.068695649416247 1.3847368697501647 0 0 0
40 0 1 -1.1104 12.203187581386404 8.228062250013275 4.032261132574174 0 0 0
41 0 1 -1.1104 1.0632052947338935 10.954472100560487 1.1842804561679519 0 0 0
42 0 1 -1.1104 3.8742673842960413 11.232352138575935 1.2695098659393174 0 0 0
43 0 1 -1.1104 3.7294717813773244 11.304249995496463 3.9696355691134153 0 0 0
44 0 1 -1.1104 0.8098630037897336 11.071769469227066 3.9256585681511464 0 0 0
45 0 1 -1.1104 1.0200341420656018 13.728081986177541 1.186126329113434 0 0 0
46 0 1 -1.1104 3.6174593413453136 14.021841166168787 1.1542742652391507 0 0 0
47 0 1 -1.1104 3.9444241148508055 14.150845202373107 3.9614895134099353 0 0 0
48 0 1 -1.1104 1.1262804998907203 13.913113862879328 3.9080974024942776 0 0 0
49 0 1 -1.1104 6.628235818876308 11.240389553030406 1.1042816433897966 0 0 0
50 0 1 -1.1104 9.382964295321013 10.976967643872268 1.0380358306724107 0 0 0
51 0 1 -1.1104 9.478940901789715 11.120535363078677 3.779925320717932 0 0 0
52 0 1 -1.1104 6.62921521262142 11.114819150920262 3.835891415103186 0 0 0
53 0 1 -1.1104 6.520386650933391 13.951986453183487 1.3069598388885872 0 0 0
54 0 1 -1.1104 9.450257748910172 13.887762165565006 1.1508948170910511 0 0 0
55 0 1 -1.1104 9.753776591858927 14.099710251088819 3.802916516997042 0 0 0
56 0 1 -1.1104 6.7917723486422314 13.844733804813547 4.215619715578934 0 0 0
57 0 1 -1.1104 12.210622052682426 13.962821039210423 1.2074977334688328 0 0 0
58 0 1 -1.1104 12.470603157429046 10.979876861742936 4.0868391776157935 0 0 0
59 0 1 -1.1104 12.135375485818583 16.882599245749983 1.2666700974595264 0 0 0
60 0 1 -1.1104 12.421136606475017 13.949623682476105 4.158498289970726 0 0 0
61 0 1 -1.1104 0.7922034627552154 16.78608023842106 0.9863077128993736 0 0 0
62 0 1 -1.1104 3.740254197934949 16.647958040240706 1.349644889487514 0 0 0
63 0 1 -1.1104 3.953973738917501 16.86418110850685 4.259767517811668 0 0 0
64 0 1 -1.1104 1.074618879389003 16.83760236092956 4.12431149163734 0 0 0
65 0 1 -1.1104 0.8578606275671739 19.40748187700505 1.1570894264329654 0 0 0
66 0 1 -1.1104 3.6618900615711163 19.329266693689615 1.0294902038237357 0 0 0
67 0 1 -1.1104 3.8636374926158523 19.60894936152051 4.049368762240465 0 0 0
68 0 1 -1.1104 1.028376319949339 19.485731948105247 4.131272795908657 0 0 0
69 0 1 -1.1104 6.494012612858143 16.715166086599137 1.1443640137065365 0 0 0
70 0 1 -1.1104 9.28332087268296 16.694007817024776 1.3061845555118832 0 0 0
71 0 1 -1.1104 9.612522384635401 16.793350809408462 4.160144992221003 0 0 0
72 0 1 -1.1104 6.8324144860456935 16.6197435141885 4.107401583909005 0 0 0
73 0 1 -1.1104 6.637124017966974 19.450561948477027 1.1374519856336414 0 0 0
74 0 1 -1.1104 9.530407957148444 19.474914751276295 1.2312910502573837 0 0 0
75 0 1 -1.1104 9.538558525946621 19.728553122753652 4.074378250411593 0 0 0
76 0 1 -1.1104 6.650161774394111 19.631905571915727 4.055581261076614 0 0 0
77 0 1 -1.1104 12.284010430173858 19.903720454936373 1.2170828835289633 0 0 0
78 0 1 -1.1104 12.484838146445561 16.672876118316303 3.9717962663789366 0 0 0
79 0 1 -1.1104 12.24569797803538 22.53610700678296 1.05443251044541 0 0 0
80 0 1 -1.1104 12.281038051444263 19.54984210208181 4.0083675361613205 0 0 0
81 0 1 -1.1104 0.9243684244726454 22.206240422419135 1.1441270196843958 0 0 0
82 0 1 -1.1104 3.598845045288332 22.224591826919852 1.091121211227773 0 0 0
83 0 1 -1.1104 3.604363244546733 22.42132998816411 3.849637571622052 0 0 0
84 0 1 -1.1104 0.8759431539294236 22.353709681266324 4.104464759154454 0 0 0
85 0 1 -1.1104 6.518339845155867 22.20280151936124 1.0546366561181673 0 0 0
86 0 1 -1.1104 9.433908919296192 22.178687797863326 1.3058224163104144 0 0 0
87 0 1 -1.1104 9.70225077207697 22.44459111057387 4.163734343959863 0 0 0
88 0 1 -1.1104 6.635348384420023 22.338158858363514 3.8145400948204533 0 0 0
12131 0 2 2.2208 2.639660798990965 4.001644522957496 13.91262373803958 0 0 0
12029 0 2 2.2208 10.852682595239983 9.71812309831393 -0.08302715361989849 0 0 0
91 0 1 -1.1104 1.1028637683418663 -0.16227818943972785 7.017066612085076 0 0 0
92 0 1 -1.1104 3.7767196745332425 -0.1797459167823213 7.01806700836076 0 0 0
93 0 1 -1.1104 4.0221365723221645 2.3029898495151393 9.731741425803056 0 0 0
94 0 1 -1.1104 1.208679905219266 2.4645428465276025 9.583431968663364 0 0 0
95 0 1 -1.1104 1.016419047176597 2.732837007151906 6.765516425920159 0 0 0
96 0 1 -1.1104 4.029547905129285 2.6566886444621414 6.857311477797757 0 0 0
97 0 1 -1.1104 4.157057691572466 5.084184445991655 9.647732286618377 0 0 0
98 0 1 -1.1104 1.0610709324907674 5.480260867113848 9.479390115265753 0 0 0
99 0 1 -1.1104 6.8541003932109525 5.149052249633436 6.713877843379869 0 0 0
100 0 1 -1.1104 9.415743429721147 -0.03715043978205029 6.8975005142485335 0 0 0
101 0 1 -1.1104 9.47016336363157 -0.2597234345788083 9.932211941172476 0 0 0
102 0 1 -1.1104 3.923398020889666 -0.3476395006033009 9.80270080155978 0 0 0
103 0 1 -1.1104 7.31280526704598 7.601284077773494 8.130230498085549 0 0 0
104 0 1 -1.1104 9.527173939107932 2.7535265806338716 6.685417039752143 0 0 0
105 0 1 -1.1104 9.777193166588496 2.443566551918828 9.65381474496683 0 0 0
106 0 1 -1.1104 6.9464417354951244 5.017235213336159 9.899981032679685 0 0 0
107 0 1 -1.1104 12.427562010393144 -0.21448891105875587 6.739644552115692 0 0 0
108 0 1 -1.1104 12.37205965570969 -0.0981645331244351 9.6755676150843 0 0 0
109 0 1 -1.1104 12.199374464924865 2.345199049857915 6.6624486998095565 0 0 0
110 0 1 -1.1104 12.55109108981332 2.5113947366319227 9.69988634009137 0 0 0
111 0 1 -1.1104 1.094203008287981 5.50119281173624 6.79810320091646 0 0 0
112 0 1 -1.1104 3.8556184548021597 5.378756353703092 6.765603635739128 0 0 0
113 0 1 -1.1104 3.2017212604657863 7.622267226838599 8.612289736614176 0 0 0
15082 0 2 2.2208 13.681447693833148 15.313518880021116 8.214066461120403 0 0 0
115 0 1 -1.1104 0.9756270700560531 8.279040135680686 6.669840533096768 0 0 0
116 0 1 -1.1104 5.183040275871309 8.035704805568974 6.570592285218695 0 0 0
117 0 1 -1.1104 3.4723677272022853 11.928543870032357 8.188792675847683 0 0 0
12134 0 2 2.2208 5.182919481312204 6.824112695163187 13.946624475147111 0 0 0
119 0 1 -1.1104 7.068312663884209 9.926235237172431 6.37225582176195 0 0 0
120 0 1 -1.1104 9.428628539667695 5.619149377005964 6.771883552562305 0 0 0
121 0 1 -1.1104 9.65525086387307 5.285566127887371 9.681071383804346 0 0 0
122 0 1 -1.1104 5.303858781652825 7.3654465584992845 10.188808788758536 0 0 0
123 0 1 -1.1104 5.239413826137412 11.97678185124671 6.1461171154447305 0 0 0
124 0 1 -1.1104 9.661644504129764 8.175421119925176 6.8088272522921365 0 0 0
125 0 1 -1.1104 9.45555488711514 8.264037837938652 9.760903632578366 0 0 0
126 0 2 2.2208 5.459052509903909 9.855060092324095 8.061611023535662 0 0 0
127 0 1 -1.1104 12.258966566749999 5.349091919346632 6.825307979316375 0 0 0
128 0 1 -1.1104 12.352990188300073 5.41080428167735 9.537430306273864 0 0 0
129 0 1 -1.1104 12.372892843239724 8.324169215105307 6.878371155202703 0 0 0
130 0 1 -1.1104 12.226520281027241 8.126286351424499 9.773260477563293 0 0 0
131 0 1 -1.1104 1.0589857898074497 11.16976484583062 6.784923232129633 0 0 0
132 0 1 -1.1104 3.505990990663485 9.820176865944116 6.409902165709437 0 0 0
133 0 1 -1.1104 5.396036405182737 12.048967529037482 10.449018483091441 0 0 0
134 0 1 -1.1104 0.7839097499872734 11.014022931629686 9.79134001287185 0 0 0
135 0 1 -1.1104 0.9750522505776349 14.030344314040537 6.904928810427622 0 0 0
136 0 1 -1.1104 3.8310195745123194 14.29833506513072 6.866166051751435 0 0 0
137 0 1 -1.1104 3.740885406393709 14.264052250819196 9.779294898200952 0 0 0
138 0 1 -1.1104 1.2003787061701467 13.865343157809821 9.695764781758973 0 0 0
139 0 1 -1.1104 7.128608766922904 11.87463668110998 8.270618543074152 0 0 0
140 0 1 -1.1104 9.44455128617324 11.221927587356529 6.663852627677241 0 0 0
141 0 1 -1.1104 9.637016760652724 11.179723095118876 9.47371025337524 0 0 0
142 0 1 -1.1104 6.97389171840395 9.84511823304683 9.839677260147248 0 0 0
143 0 1 -1.1104 6.6533052163252595 14.245126316920118 6.980829978414749 0 0 0
144 0 1 -1.1104 9.2559752573093 14.02633354231862 6.869031660273979 0 0 0
145 0 1 -1.1104 9.410772677126587 13.836112509307501 9.549916322046176 0 0 0
146 0 1 -1.1104 6.699450203179046 14.213090313798663 9.788997031097214 0 0 0
147 0 1 -1.1104 12.19778108293861 11.098569467045664 6.687725257077692 0 0 0
148 0 1 -1.1104 12.464965743917046 11.23841274588682 9.356836559098275 0 0 0
149 0 1 -1.1104 12.213293295919255 13.963605260660584 6.804812463330748 0 0 0
150 0 1 -1.1104 12.262247598051585 14.14683956569479 9.684609403416658 0 0 0
151 0 1 -1.1104 0.6244811863487129 16.742291175686677 6.8873430760389365 0 0 0
152 0 1 -1.1104 3.511279719054183 16.89112845288598 6.965982506613209 0 0 0
153 0 1 -1.1104 3.9305754254576 16.958421416428887 9.781179669886953 0 0 0
154 0 1 -1.1104 1.078329279968845 16.996099620477164 9.663798512213754 0 0 0
155 0 1 -1.1104 0.8211347581574999 19.680309925881037 6.844979364842147 0 0 0
156 0 1 -1.1104 3.7870602310437795 19.55758533520724 6.766753517268968 0 0 0
157 0 1 -1.1104 3.9896141573909754 19.729008083053237 9.524556965321517 0 0 0
158 0 1 -1.1104 1.0800735503919618 19.500724366604416 9.925303780779164 0 0 0
159 0 1 -1.1104 6.434378131682432 16.904198469213036 6.764237534142649 0 0 0
160 0 1 -1.1104 9.524707922039543 16.975851305606334 6.79527830029771 0 0 0
161 0 1 -1.1104 9.505650112949407 16.844026809368625 9.765367134251951 0 0 0
162 0 1 -1.1104 6.827409975640825 17.065352342929387 9.522961942040101 0 0 0
163 0 1 -1.1104 6.530088742338114 19.796160520274842 6.823892661361845 0 0 0
164 0 1 -1.1104 9.37789594758093 19.68208100544696 6.94988016480094 0 0 0
165 0 1 -1.1104 9.444877959843797 19.80582708916393 9.708995355225776 0 0 0
166 0 1 -1.1104 6.834148320544695 19.720808870214647 9.655117728669248 0 0 0
167 0 1 -1.1104 12.35180618493648 16.771589268032745 6.845732163093098 0 0 0
168 0 1 -1.1104 12.308451739438727 16.848680429627745 9.733643526984277 0 0 0
169 0 1 -1.1104 12.164805807966212 19.48290330801806 6.843627198365759 0 0 0
170 0 1 -1.1104 12.321033741644909 19.82564091399485 9.664666548798191 0 0 0
171 0 1 -1.1104 0.9141381088434113 22.425439476982117 6.835418663475505 0 0 0
172 0 1 -1.1104 3.5601465796491927 22.37754447384543 6.895500103183657 0 0 0
173 0 1 -1.1104 3.8978225533000557 22.51941653556135 9.67951510110849 0 0 0
174 0 1 -1.1104 0.9558708502038005 22.38964372572277 9.613541719733673 0 0 0
175 0 1 -1.1104 6.5301397030623045 22.469806677246645 6.713692415381923 0 0 0
176 0 1 -1.1104 9.50997074658223 22.346167078890375 7.058013359203478 0 0 0
177 0 1 -1.1104 9.540693479027698 22.49523887251446 9.772566571765136 0 0 0
178 0 1 -1.1104 6.70622062838999 22.53322848650811 9.475075676550848 0 0 0
179 0 1 -1.1104 12.330093634976345 22.416954017582302 6.766227482788752 0 0 0
180 0 1 -1.1104 12.42047115737964 22.566494696214377 9.630254430533242 0 0 0
181 0 1 -1.1104 1.217957672681791 -0.34090981581901186 12.605553920313502 0 0 0
182 0 1 -1.1104 3.9392667795662297 -0.10429649132476826 12.581870587840847 0 0 0
183 0 1 -1.1104 1.012297339651346 2.522839910081329 12.378312704881544 0 0 0
184 0 1 -1.1104 3.958984172517908 2.7383872617489784 12.639146792059453 0 0 0
185 0 1 -1.1104 6.692983724147606 -0.3644561143045337 12.64319298405033 0 0 0
186 0 1 -1.1104 9.54635418205474 -0.18430448810387712 12.516618778073273 0 0 0
187 0 1 -1.1104 6.788207876960711 2.573433154565717 12.580031517015547 0 0 0
188 0 1 -1.1104 9.753075392268082 2.702398808769111 12.464164256493445 0 0 0
189 0 1 -1.1104 12.241897313194718 -0.23552543567886494 12.439175639242158 0 0 0
190 0 1 -1.1104 12.47438739655589 2.619909076488059 12.452871036683776 0 0 0
191 0 1 -1.1104 1.2692265529038729 5.398673768758132 12.361887213494045 0 0 0
192 0 1 -1.1104 3.93167815699033 5.495712479954512 12.389173329880837 0 0 0
193 0 1 -1.1104 1.0356964837669687 8.406209736972386 12.487216677129474 0 0 0
194 0 1 -1.1104 3.850871322073218 8.31649167767302 12.631774429957732 0 0 0
195 0 1 -1.1104 6.592888866390912 5.343056469180079 12.821683948241443 0 0 0
196 0 1 -1.1104 9.475851032648059 5.312142505712291 12.363364099077554 0 0 0
197 0 1 -1.1104 6.79070874481496 8.097205111328428 12.58085803331783 0 0 0
198 0 1 -1.1104 9.652283770027454 8.154710820992404 12.639001298347514 0 0 0
199 0 1 -1.1104 12.381736882903555 5.549564898532355 12.497134798178369 0 0 0
200 0 1 -1.1104 12.346581764262838 8.232783764178034 12.76333063147189 0 0 0
201 0 1 -1.1104 0.9360635233814985 11.151598059997765 12.567699290902404 0 0 0
202 0 1 -1.1104 3.6774720822758193 10.98264122314005 12.559889711565248 0 0 0
203 0 1 -1.1104 1.0525765720639533 13.95305350148726 12.457380555273627 0 0 0
204 0 1 -1.1104 3.7230300616998373 13.646180928903469 12.81508542195377 0 0 0
205 0 1 -1.1104 6.703082999648101 10.99371138930623 12.767716182098289 0 0 0
206 0 1 -1.1104 9.454095146591063 11.03286896129734 12.27153396343483 0 0 0
207 0 1 -1.1104 6.7682947704903915 13.891258828730892 12.56871631364811 0 0 0
208 0 1 -1.1104 9.304988529398715 13.861462744730588 12.458430903429695 0 0 0
209 0 1 -1.1104 12.336089116584246 11.100630332613537 12.517196588529204 0 0 0
210 0 1 -1.1104 12.109209512642014 14.001969860406538 12.539879948320696 0 0 0
211 0 1 -1.1104 0.9937873443721359 16.585556992871428 12.468881377076267 0 0 0
212 0 1 -1.1104 3.8416178765867355 16.693576782220937 12.568909313488506 0 0 0
213 0 1 -1.1104 0.8620476473520045 19.50708954621075 12.725016042569019 0 0 0
214 0 1 -1.1104 3.970130529317931 19.497863913919975 12.345729726557321 0 0 0
215 0 1 -1.1104 6.627265891235486 16.922887604553164 12.668132842418844 0 0 0
216 0 1 -1.1104 9.413310497315857 16.696887158635093 12.581735273856426 0 0 0
217 0 1 -1.1104 6.67419994108455 19.674814871564063 12.53912394647101 0 0 0
218 0 1 -1.1104 9.580477801428879 19.708067181987122 12.747868751277853 0 0 0
219 0 1 -1.1104 12.33457497768477 16.687917325454503 12.745692008472034 0 0 0
220 0 1 -1.1104 12.307826702958916 19.4375692421744 12.527974066477588 0 0 0
221 0 1 -1.1104 1.060772694047219 22.41340329524755 12.406898371857016 0 0 0
222 0 1 -1.1104 3.772360376252739 22.129869443582756 12.453904458401484 0 0 0
223 0 1 -1.1104 6.525071332408845 22.367714305838174 12.433240347150571 0 0 0
224 0 1 -1.1104 9.343801955789871 22.509499082305396 12.581481453806822 0 0 0
225 0 1 -1.1104 12.13357347409598 22.34036684585702 12.622343695289926 0 0 0
12125 0 2 2.2208 10.807896790416224 20.93461774131387 11.250186507803885 0 0 0
12110 0 2 2.2208 11.003740733486852 3.9797929258671725 10.976522072365073 0 0 0
15121 0 2 2.2208 13.707832593640969 23.60322839878468 11.115541618653092 0 0 0
12124 0 2 2.2208 8.070069569211011 23.83174992260582 10.985794291461058 0 0 0
12053 0 2 2.2208 2.619887576909576 -1.6700333752860623 8.24717806302819 0 0 0
12109 0 2 2.2208 7.920618758198498 6.8530806857222295 10.813626350851434 0 0 0
12059 0 2 2.2208 10.897520926762324 -1.4868770768999335 5.46804927645706 0 0 0
12008 0 2 2.2208 5.361599390456509 1.1640400688281043 2.628597280771641 0 0 0
15012 0 2 2.2208 13.626059208140799 4.165133810702231 2.5585690313302716 0 0 0
12010 0 2 2.2208 10.935351495585055 1.1648941939619712 2.6331886902770787 0 0 0
12123 0 2 2.2208 5.188579562777241 21.000275700573027 11.165652009415696 0 0 0
12108 0 2 2.2208 5.326224731056769 3.8391603935078504 11.217965032981024 0 0 0
12013 0 2 2.2208 2.3895993181542488 3.99216912265587 2.6456590886579563 0 0 0
12122 0 2 2.2208 2.420228481950393 23.52645370725614 10.998892134433795 0 0 0
12107 0 2 2.2208 2.612187260629213 6.940899021626446 10.706059835956548 0 0 0
12112 0 2 2.2208 2.58908144127417 12.33067405615305 11.109115472404865 0 0 0
12017 0 2 2.2208 8.020114202177998 4.111155338848101 2.700779201793654 0 0 0
12018 0 2 2.2208 5.209620816061527 6.7251060459007945 2.675343920062921 0 0 0
12104 0 2 2.2208 8.183416603498701 1.0500206353135477 11.153363212576659 0 0 0
12020 0 2 2.2208 10.84756869152679 6.7982490308220065 2.57204381468375 0 0 0
5718 0 1 -1.1104 1.0498892840744545 -0.3992730245056259 9.712131427438958 0 1 0
15092 0 2 2.2208 13.548092342918027 20.944176257522244 8.308651609974502 0 0 0
12023 0 2 2.2208 2.414654028527709 9.551444296817133 2.596143204261662 0 0 0
12120 0 2 2.2208 10.644818991492434 15.346365084159599 11.1022158825462 0 0 0
12102 0 2 2.2208 2.387806008110597 0.9474450142838753 11.202005931788227 0 0 0
12113 0 2 2.2208 5.287004717324957 9.653510847729335 11.45324317679312 0 0 0
12027 0 2 2.2208 8.096948964773102 9.638683076103977 2.5123465623802677 0 0 0
12028 0 2 2.2208 5.2739401267001265 12.671878145361035 2.6562777319092112 0 0 0
12100 0 2 2.2208 10.946231207281008 23.714355418137846 8.22252114617848 0 0 0
12030 0 2 2.2208 10.912286910747682 12.504016035116484 2.6642616931597627 0 0 0
12099 0 2 2.2208 10.988275877652677 20.874861477854214 5.390782558799235 0 0 0
12098 0 2 2.2208 5.254771672772558 23.827981178865006 8.29707486102012 0 0 0
12033 0 2 2.2208 2.408361273772791 15.25247424171508 2.543630070776582 0 0 0
12007 0 2 2.2208 8.061450486257913 -1.6252078797168372 2.57571533639803 0 0 0
12097 0 2 2.2208 8.04244151250503 21.065350312880987 8.320015058643767 0 0 0
12096 0 2 2.2208 8.112505782731983 23.751903962444043 5.555788859306961 0 0 0
12037 0 2 2.2208 8.03261297362625 15.298866380469788 2.5796026897590996 0 0 0
12038 0 2 2.2208 5.227133790727976 18.095461400229564 2.772721318421637 0 0 0
12095 0 2 2.2208 5.050348706431887 21.051358858331 5.538043839079095 0 0 0
12040 0 2 2.2208 10.937248111674936 18.26206095821928 2.694868610424803 0 0 0
15032 0 2 2.2208 13.635191551743516 15.258152787351454 2.5805113860932103 0 0 0
12093 0 2 2.2208 2.423013953088748 20.790254039632728 8.18090184620166 0 0 0
12043 0 2 2.2208 2.3629249276122 20.853222244787364 2.498408092874334 0 0 0
15116 0 2 2.2208 13.685354674137026 18.069004703323547 11.212560901636746 0 0 0
12092 0 2 2.2208 2.341038759015357 23.832301130058703 5.4324424391564134 0 0 0
12105 0 2 2.2208 10.89471164043542 -1.603569794989388 11.168268359564529 0 0 0
12047 0 2 2.2208 8.015708728815756 20.91066443286706 2.589467908720438 0 0 0
12048 0 2 2.2208 5.114202226284189 23.53935522445692 2.6057831044110293 0 0 0
12090 0 2 2.2208 10.925756774694646 18.319094562251234 8.355930189581205 0 0 0
12050 0 2 2.2208 10.928670708103235 23.503688156334732 2.5603816471301655 0 0 0
12119 0 2 2.2208 7.997522587118324 18.08849186552237 11.129156297435648 0 0 0
12052 0 2 2.2208 2.5710017961431304 1.2845362252472712 5.398521885443144 0 0 0
15101 0 2 2.2208 13.889666162297035 1.1254519581725044 11.111136220542985 0 0 0
12118 0 2 2.2208 5.312674308583963 15.24224499010292 11.232145931172496 0 0 0
12057 0 2 2.2208 8.098623272218077 -1.5917207816446721 8.416881694455387 0 0 0
12056 0 2 2.2208 8.023030282771701 1.1820235654050641 5.396788336780913 0 0 0
15081 0 2 2.2208 13.490513422512949 18.085706734501112 5.319921822566436 0 0 0
12058 0 2 2.2208 5.414705436361414 1.082166533778029 8.436194124275609 0 0 0
5629 0 1 -1.1104 6.7036122830688285 -0.10684606516957978 3.993892225280331 0 1 0
12060 0 2 2.2208 11.019838374870684 1.149570840925149 8.17212744340927 0 0 0
12117 0 2 2.2208 2.407454857887576 18.114613358016417 11.202309949385452 0 0 0
12062 0 2 2.2208 2.572923007008488 7.029549171065206 5.689106371952904 0 0 0
12063 0 2 2.2208 2.493387267346709 3.939600867679273 8.154050727476083 0 0 0
12089 0 2 2.2208 10.779447034227562 15.259966915250162 5.569128502709693 0 0 0
12065 0 2 2.2208 5.3834122528804915 4.095206544674527 5.359945044371203 0 0 0
12066 0 2 2.2208 8.103975882029859 6.912163858033026 5.589391161175973 0 0 0
12067 0 2 2.2208 8.294126207405467 3.813372987905266 8.25574323747788 0 0 0
12068 0 2 2.2208 5.4156845223051056 6.3646795193673675 8.169796865323855 0 0 0
12069 0 2 2.2208 10.928633413634563 3.8696718114496025 5.402764922685742 0 0 0
12070 0 2 2.2208 10.878691881270097 6.830507690214702 8.334733492805368 0 0 0
12115 0 2 2.2208 10.906002428320836 9.645117349717422 11.168628337519705 0 0 0
12072 0 2 2.2208 2.6835046778723592 12.37586870558787 5.836795663290689 0 0 0
12073 0 2 2.2208 2.1322697465866858 9.690249304315316 8.158086489323926 0 0 0
12114 0 2 2.2208 7.7701479603708155 12.302220924582404 10.781812899752762 0 0 0
12075 0 2 2.2208 5.189207247183251 9.764331224417578 4.8971659144778465 0 0 0
12076 0 2 2.2208 7.59781786278093 12.365245170233857 5.8758402064417075 0 0 0
12077 0 2 2.2208 8.580076382478389 9.598035920397498 8.087170225563087 0 0 0
12078 0 2 2.2208 5.2529220080321455 13.14367184670913 8.392758289586316 0 0 0
12079 0 2 2.2208 10.915445104768407 9.68159003134474 5.301801092846421 0 0 0
12080 0 2 2.2208 10.804684091104505 12.568952000041339 8.065125115084943 0 0 0
114 0 1 -1.1104 3.8615517000388255 9.785219377888335 9.791711395766132 0 0 0
12082 0 2 2.2208 2.2328306567788867 18.21628278812645 5.62555920465071 0 0 0
12083 0 2 2.2208 2.3399249291133897 15.461233484371535 8.318673029331999 0 0 0
15042 0 2 2.2208 13.738555518119837 20.91895722822288 2.549572147195933 0 0 0
12085 0 2 2.2208 5.2538913177981845 15.352172114631019 5.418401885492387 0 0 0
12086 0 2 2.2208 7.983629020336379 18.29913278522137 5.576107269301017 0 0 0
12087 0 2 2.2208 8.009191211664948 15.480089952934817 8.219366222958522 0 0 0
12088 0 2 2.2208 5.185237660802198 18.267689040156895 8.12069555627757 0 0 0
5723 0 1 -1.1104 6.801419829696273 2.339903306947651 9.748813767486215 0 1 0
15022 0 2 2.2208 13.718357563648983 9.556031988722097 2.637894560576305 0 0 0
12025 0 2 2.2208 5.327929884344028 9.754984625655398 -0.07796671000988305 0 0 0
15062 0 2 2.2208 13.809192376143827 3.9529046465388644 8.19451330670886 0 0 0
15071 0 2 2.2208 13.670056750898425 12.468697320261928 5.4466329365328905 0 0 0
90 0 1 -1.1104 12.46899172744795 22.401542292970426 4.057891227143663 0 0 0
5726 0 1 -1.1104 6.7387267380067835 -0.4522720571813696 9.803916378243859 0 1 0
118 0 1 -1.1104 0.7988210897462785 8.434205575636382 9.676010435285058 0 0 0
5633 0 1 -1.1104 6.716924423804137 -0.40976970432712023 1.3109094420162213 0 1 0
372 0 1 -1.1104 6.57662765930896 2.54455715883397 1.24149143096719 0 0 1
12141 0 2 2.2208 2.3208481833251016 15.298114001122576 13.781358722064821 0 0 0
15091 0 2 2.2208 13.807150053334581 23.88811068893509 5.287542117820717 0 0 0
15111 0 2 2.2208 13.649790918791153 12.55417872390609 10.973729727573561 0 0 0
15002 0 2 2.2208 13.766526932626256 -1.6105919223514802 2.6379167382848463 0 0 0
15051 0 2 2.2208 13.656562141568276 1.1181963907942851 5.294671641892376 0 0 0
12150 0 2 2.2208 10.829320429009336 23.783658914160007 13.851419293392503 0 0 0
12140 0 2 2.2208 10.674333440723387 12.497862235729732 13.827926260621442 0 0 0
12003 0 2 2.2208 2.564954504242629 -1.5359895016492358 2.587974197332856 0 0 0
15072 0 2 2.2208 13.745413771950536 9.825027972769895 8.16594457335859 0 0 0
15052 0 2 2.2208 13.871545990027867 -1.6026485588868884 8.213238148390753 0 0 0
15061 0 2 2.2208 13.565621781430973 6.857404890963704 5.469627789428845 0 0 0
15106 0 2 2.2208 13.728934457439333 6.710181125878581 10.92009288236704 0 0 0
12149 0 2 2.2208 5.208180992253951 23.718918133013418 13.86142738318493 0 0 0
15131 0 2 2.2208 13.774117976090835 3.9127968069844092 13.868683827896152 0 0 0
12133 0 2 2.2208 8.058048410897532 3.9035529799954567 13.791320083644736 0 0 0
15136 0 2 2.2208 13.708302044305594 9.6238303345154 13.836331093484194 0 0 0
15001 0 2 2.2208 13.812003632564329 1.2163891197433943 -0.12958089353308616 0 0 0
12148 0 2 2.2208 8.032880483342455 21.01107665208168 13.857669762965052 0 0 0
12139 0 2 2.2208 5.370982864181065 12.418300788986427 13.83380424523046 0 0 0
12006 0 2 2.2208 8.058406802384145 1.0866927134983613 0.0238268474268821 0 0 0
12130 0 2 2.2208 10.883783900169888 1.2071956815402545 13.839137023807451 0 0 0
12128 0 2 2.2208 8.172976472194515 -1.6180588373060467 13.821994347639146 0 0 0
12009 0 2 2.2208 10.892420297378479 -1.64347330508013 -0.13005061409094987 0 0 0
226 0 1 -1.1104 3.951265568987537 -0.3277398059510728 15.48432101341062 0 0 0
227 0 1 -1.1104 1.317763663095712 -0.210613866711225 15.340548508999953 0 0 0
228 0 1 -1.1104 3.8474299879005533 2.553647813282076 15.418811558320181 0 0 0
229 0 1 -1.1104 1.1143778217688194 2.633242489221722 15.32684993219513 0 0 0
230 0 1 -1.1104 9.512399203360756 -0.3934435505602593 15.336482789587452 0 0 0
231 0 1 -1.1104 6.687172407920294 -0.16539002991780927 15.417584528151993 0 0 0
232 0 1 -1.1104 9.3064128326305 2.5707623937853765 15.339600628959502 0 0 0
233 0 1 -1.1104 6.530911192318765 2.5922858254113317 15.219674025018687 0 0 0
234 0 1 -1.1104 12.219459257660402 -0.22663915378347507 15.49836780145898 0 0 0
235 0 1 -1.1104 12.24887372054371 2.3807649971494804 15.329663283154378 0 0 0
236 0 1 -1.1104 3.9271523304724005 5.3087768862507785 15.391634822377199 0 0 0
237 0 1 -1.1104 1.2246456782437773 5.270388148212131 15.21674306838777 0 0 0
238 0 1 -1.1104 3.6646852140446073 8.465382396286314 15.657407018704196 0 0 0
239 0 1 -1.1104 0.8521687489602052 8.375404379255697 15.351826723801471 0 0 0
240 0 1 -1.1104 9.495609899201074 5.28395817516863 15.155166372746173 0 0 0
241 0 1 -1.1104 6.792621465462495 5.492847637408587 15.51632497971888 0 0 0
242 0 1 -1.1104 9.477452301213617 8.352060336899926 15.297229159447985 0 0 0
243 0 1 -1.1104 6.5094349021240685 8.231405729332606 15.309668243411366 0 0 0
244 0 1 -1.1104 12.29931488544906 5.109254624713697 15.201753098079024 0 0 0
245 0 1 -1.1104 12.314701359987952 7.938924980599095 15.425963597675024 0 0 0
246 0 1 -1.1104 3.740312426071322 11.266392925215314 15.378618097983948 0 0 0
247 0 1 -1.1104 1.0031019343077583 11.240082775429427 15.444014958140107 0 0 0
248 0 1 -1.1104 3.5192273968371386 14.182126307535079 15.509992637135477 0 0 0
249 0 1 -1.1104 0.9540316671348869 13.953847802136325 15.252022339469722 0 0 0
250 0 1 -1.1104 9.315558692878753 11.101867992765207 15.315014488299237 0 0 0
251 0 1 -1.1104 6.592638716970814 11.132484360257015 15.441164007041795 0 0 0
252 0 1 -1.1104 9.363047714009657 13.941024374036356 15.299818132802395 0 0 0
253 0 1 -1.1104 6.619827819703636 14.037423017220336 15.29870141636648 0 0 0
254 0 1 -1.1104 12.196273136351365 10.924536528015782 15.191521195514012 0 0 0
255 0 1 -1.1104 12.209923457495002 13.746331508748995 15.364245482374741 0 0 0
256 0 1 -1.1104 3.9396840589206286 16.775911158196596 15.32109513874958 0 0 0
257 0 1 -1.1104 1.0727352915437887 16.790867599329836 15.277461744234753 0 0 0
258 0 1 -1.1104 3.6573180912852448 19.685889459847886 15.328193744653293 0 0 0
259 0 1 -1.1104 0.9282135918023472 19.57240637956544 15.35131730251243 0 0 0
260 0 1 -1.1104 9.605389545957983 16.85095008309226 15.284334831254325 0 0 0
261 0 1 -1.1104 6.930755027211522 16.993472228068466 15.328305664810289 0 0 0