ITEM: TIMESTEP
80000
ITEM: NUMBER OF ATOMS
17910
ITEM: BOX BOUNDS pp pp pp
-3.5706631936647576e-01 2.7697066319366773e+01
-4.2977042178309226e+00 3.3237770421784302e+02
-3.5419047318336494e-01 2.7694190473183312e+01
ITEM: ATOMS id type q x y z
1 2 2.2208 5.40433 1.34347 5.21292
2 1 -1.1104 1.25417 -2.87236 1.07528
3 1 -1.1104 1.25688 2.71205 0.99599
6 1 -1.1104 1.20574 -2.85892 3.89385
7 1 -1.1104 1.32325 2.53183 3.93932
10 1 -1.1104 1.14457 0.00724734 1.10816
12 2 2.2208 5.36759 -1.4354 2.64674
13 2 2.2208 5.49616 4.12017 2.25724
14 1 -1.1104 1.20316 -0.153288 3.86168
16 1 -1.1104 4.0161 -3.01728 1.34695
17 1 -1.1104 3.94251 2.49769 0.977314
18 2 2.2208 2.50416 1.35236 2.5373
19 1 -1.1104 3.97237 -2.84732 3.89725
20 1 -1.1104 3.99186 2.73162 3.8294
21 2 2.2208 2.60891 -1.38043 5.23799
22 2 2.2208 2.66559 4.04793 5.29798
23 1 -1.1104 4.12799 -0.172344 0.946597
24 1 -1.1104 4.06732 0.00834294 3.81075
25 2 2.2208 5.44352 6.87455 5.21688
26 1 -1.1104 1.47957 8.36239 1.2296
28 1 -1.1104 1.29771 8.20544 3.98414
30 1 -1.1104 1.06963 5.58293 1.22611
32 1 -1.1104 1.28112 5.39896 3.98075
34 1 -1.1104 4.14367 8.35942 1.11923
35 2 2.2208 2.62411 6.92106 2.55001
37 1 -1.1104 4.01395 5.49877 1.06424
38 1 -1.1104 4.0292 5.52701 3.80833
36 1 -1.1104 4.04235 8.40667 3.80679
94 1 -1.1104 3.98786 5.62844 6.63882
84 1 -1.1104 1.04728 -0.152567 6.81529
88 1 -1.1104 3.91774 -0.0340337 6.63529
81 1 -1.1104 1.18762 2.72101 6.68342
8572 2 2.2208 10.9697 -4.24382 10.8532
172 2 2.2208 5.42475 6.86504 -0.310635
164 2 2.2208 8.15606 -1.51727 -0.25173
8943 2 2.2208 -0.325384 1.22958 5.28312
86 1 -1.1104 3.91036 -2.68884 6.7396
87 1 -1.1104 4.03469 2.7922 6.70842
161 2 2.2208 2.70142 1.35681 13.7893
8942 2 2.2208 -0.263503 -1.43491 2.21555
8938 2 2.2208 -0.213815 4.01586 2.46277
8940 2 2.2208 -0.170289 6.82523 5.41735
168 2 2.2208 11.0882 -1.5231 13.7687
9 1 -1.1104 6.79969 2.80383 3.78917
5 1 -1.1104 6.83122 2.7188 1.08237
29 1 -1.1104 6.8494 8.39185 3.85341
27 1 -1.1104 6.85636 8.32578 0.990394
33 1 -1.1104 6.82109 5.49563 3.80432
8 1 -1.1104 6.79906 -2.7539 4.1228
4 1 -1.1104 6.81751 -2.72825 1.36209
15 1 -1.1104 6.77382 0.0206773 3.95884
11 1 -1.1104 6.82267 -0.0530339 1.17759
31 1 -1.1104 6.80198 5.496 1.03248
46 2 2.2208 10.8869 1.48385 5.38324
47 1 -1.1104 12.34 -2.73008 1.12341
48 1 -1.1104 12.3286 2.81809 1.11018
49 1 -1.1104 12.2515 -2.71075 3.91803
50 1 -1.1104 12.3675 2.6747 3.98981
51 1 -1.1104 12.4841 0.0690643 1.09045
52 2 2.2208 10.9944 -1.36575 2.51193
53 2 2.2208 10.9807 4.10865 2.48784
54 1 -1.1104 12.2891 0.0547976 3.91156
55 1 -1.1104 9.49673 -3.026 1.00185
56 1 -1.1104 9.65591 2.78953 0.963999
57 2 2.2208 8.22105 1.33863 2.56031
58 1 -1.1104 9.53416 -2.72471 4.05506
59 1 -1.1104 9.6357 2.82068 3.84368
60 2 2.2208 8.1677 -1.33942 5.33847
61 2 2.2208 8.29205 4.34058 5.25002
62 1 -1.1104 9.53479 -0.1309 1.15964
63 1 -1.1104 9.51453 0.0835025 4.19876
64 2 2.2208 11.0558 7.00542 5.41194
66 1 -1.1104 12.4636 8.30237 4.01325
67 1 -1.1104 12.3292 5.57284 1.17376
68 1 -1.1104 12.4069 5.57319 3.90518
69 1 -1.1104 9.81625 8.32723 1.07416
70 2 2.2208 8.20575 7.00206 2.56505
71 1 -1.1104 9.6022 8.49206 3.94368
72 1 -1.1104 9.63878 5.53517 1.20967
73 1 -1.1104 9.60734 5.68672 3.92118
65 1 -1.1104 12.5234 8.27911 1.14826
142 1 -1.1104 9.53563 -2.83803 6.7339
9116 2 2.2208 -0.23223 -1.48651 13.7456
151 1 -1.1104 9.39236 8.48954 9.53772
141 1 -1.1104 12.4153 0.00459034 6.69306
146 1 -1.1104 12.374 5.5342 6.76903
138 1 -1.1104 9.65254 2.77137 9.52582
17703 2 2.2208 -0.216234 -4.20383 10.958
92 1 -1.1104 6.88045 5.61782 6.75166
8905 2 2.2208 -0.128338 6.98089 10.966
89 1 -1.1104 1.16579 8.30436 6.64596
8800 2 2.2208 -0.0988725 1.27243 10.929
8574 2 2.2208 2.65348 -4.34256 2.59022
8801 2 2.2208 -0.229806 -1.52889 8.07791
8840 2 2.2208 -0.228026 4.10237 8.17681
93 1 -1.1104 4.08402 8.52895 6.64169
91 1 -1.1104 1.20505 5.44002 6.67534
80 1 -1.1104 1.17796 -2.75557 6.62372
130 1 -1.1104 3.99883 8.29731 9.53305
95 2 2.2208 5.24069 1.33538 10.9572
96 1 -1.1104 1.28459 -2.85772 12.4328
97 1 -1.1104 1.28289 2.83379 12.3304
100 1 -1.1104 1.14931 -2.83266 9.45073
101 1 -1.1104 1.32569 2.76853 9.47473
104 1 -1.1104 1.20551 -0.00198955 12.3078
106 2 2.2208 5.35063 -1.39973 8.19984
107 2 2.2208 5.46596 4.14536 8.00155
108 1 -1.1104 1.22631 -0.0309306 9.48025
110 1 -1.1104 4.09366 -2.86045 12.2372
111 1 -1.1104 4.08776 2.87955 12.4955
112 2 2.2208 2.56586 1.32223 8.05908
113 1 -1.1104 3.94905 -2.95629 9.43128
114 1 -1.1104 4.02814 2.65364 9.6146
115 2 2.2208 2.67103 -1.48957 10.8775
116 2 2.2208 2.63719 4.12579 11.0497
117 1 -1.1104 3.93626 -0.0759111 12.4435
118 1 -1.1104 3.94247 -0.158582 9.50143
119 2 2.2208 5.33059 6.97988 11.0509
120 1 -1.1104 1.12993 8.41814 12.2254
122 1 -1.1104 1.33025 8.41965 9.47862
124 1 -1.1104 1.15215 5.51964 12.3745
126 1 -1.1104 1.12928 5.60218 9.59475
128 1 -1.1104 4.00057 8.40588 12.3775
129 2 2.2208 2.63326 6.96662 8.07908
131 1 -1.1104 3.99647 5.54982 12.4466
132 1 -1.1104 3.96898 5.41435 9.5001
102 1 -1.1104 6.82932 -2.74906 9.51534
123 1 -1.1104 6.68428 8.46962 9.47617
8579 2 2.2208 5.38836 -4.39808 10.9556
8575 2 2.2208 5.34702 -4.25928 5.4326
8586 2 2.2208 2.69715 -4.25085 13.6308
159 2 2.2208 5.42875 -1.52248 13.7285
155 1 -1.1104 12.5832 2.8509 12.2732
78 2 2.2208 10.9231 4.25368 8.21689
140 1 -1.1104 12.3963 2.81559 6.84918
90 1 -1.1104 6.8469 8.39289 6.61239
150 1 -1.1104 9.70303 5.46472 12.3523
83 1 -1.1104 6.71559 2.72705 6.61771
135 2 2.2208 8.33221 -1.43402 10.9495
127 1 -1.1104 6.74103 5.63069 9.68294
98 1 -1.1104 6.80003 -2.86562 12.2119
125 1 -1.1104 6.84943 5.60543 12.3571
121 1 -1.1104 6.62346 8.38101 12.3744
103 1 -1.1104 6.88501 2.82491 9.43425
82 1 -1.1104 6.67806 -2.81235 6.81165
85 1 -1.1104 6.68026 -0.138571 6.78448
40 2 2.2208 8.16918 1.36449 8.21825
139 1 -1.1104 12.2216 -2.84243 6.73346
144 1 -1.1104 9.55211 -0.00427621 6.83219
145 1 -1.1104 12.452 8.39639 6.84146
149 1 -1.1104 9.71568 5.68815 6.80218
143 1 -1.1104 9.56773 2.96858 6.7668
157 1 -1.1104 12.517 2.8718 9.48659
76 2 2.2208 11.0249 6.89365 10.9201
153 2 2.2208 11.0509 1.41663 10.894
79 1 -1.1104 9.61773 -0.0232382 9.42498
105 1 -1.1104 6.81781 -0.0329336 12.5379
109 1 -1.1104 6.62814 0.00261093 9.65798
75 1 -1.1104 12.2172 8.3843 12.2429
136 2 2.2208 11.1136 -1.44145 8.09873
39 1 -1.1104 9.7573 -2.71821 9.36454
41 1 -1.1104 9.48265 8.17006 12.1013
154 1 -1.1104 12.2892 -2.98995 12.3252
156 1 -1.1104 12.4712 -2.8123 9.58906
45 1 -1.1104 12.502 5.55719 12.2906
148 1 -1.1104 9.5841 5.58634 9.71327
99 1 -1.1104 6.70422 2.70337 12.3883
74 1 -1.1104 12.4531 8.46408 9.60025
77 1 -1.1104 12.4234 0.0227845 9.40969
137 1 -1.1104 12.4393 0.0502897 12.2007
147 1 -1.1104 9.65285 8.31774 6.71927
152 2 2.2208 8.07598 7.17003 8.11276
42 1 -1.1104 12.3217 5.51407 9.48839
44 1 -1.1104 9.70749 -2.92627 12.3028
133 1 -1.1104 9.59267 0.0126558 12.2128
134 2 2.2208 8.24265 4.10151 10.9391
43 1 -1.1104 9.59336 2.69897 12.3868
169 2 2.2208 11.1049 4.15649 13.7395
173 2 2.2208 5.472 1.25196 16.4674
174 1 -1.1104 1.37822 -2.84004 17.9315
175 1 -1.1104 1.13711 2.86507 18.1189
178 1 -1.1104 1.37076 -2.87542 15.1685
180 1 -1.1104 1.14357 2.78498 15.124
186 1 -1.1104 1.25243 0.0125751 17.9393
188 2 2.2208 5.35157 -1.4899 19.3156
189 2 2.2208 5.47123 4.07738 19.3479
190 1 -1.1104 1.31141 0.0786442 15.1974
194 1 -1.1104 4.0387 -2.87229 17.9209
195 1 -1.1104 4.08279 2.62556 17.9992
196 2 2.2208 2.63007 1.26622 19.3533
197 1 -1.1104 4.01678 -2.92208 15.0307
199 1 -1.1104 3.9667 2.67859 15.2734
201 2 2.2208 2.61995 -1.4418 16.4055
202 2 2.2208 2.58407 4.05913 16.6192
203 1 -1.1104 4.02754 -0.127389 17.8693
204 1 -1.1104 4.10923 -0.154064 15.1557
206 2 2.2208 5.29475 6.90322 16.5378
207 1 -1.1104 1.1201 8.38743 17.6296
209 1 -1.1104 1.14237 8.44092 14.9325
213 1 -1.1104 1.00933 5.56828 17.8953
215 1 -1.1104 1.14123 5.56116 15.1184
219 1 -1.1104 3.99839 8.30221 17.9521
220 2 2.2208 2.46865 6.9533 19.4239
221 1 -1.1104 4.07089 8.22907 15.1934
223 1 -1.1104 3.93423 5.40419 17.934
224 1 -1.1104 3.91856 5.60722 15.2254
225 1 -1.1104 3.90567 5.63567 20.7225
8655 2 2.2208 5.3797 -4.26875 16.444
9119 2 2.2208 -0.0815917 -1.46371 19.3524
9007 2 2.2208 -0.171528 1.42915 16.4219
8654 2 2.2208 2.64619 -4.2806 19.3764
9068 2 2.2208 -0.302035 6.93926 16.4964
191 1 -1.1104 1.29341 -0.0305721 20.9131
205 1 -1.1104 4.14457 -0.0258018 20.8445
162 2 2.2208 5.38625 4.20538 13.8157
9070 2 2.2208 -0.294497 4.23204 19.2344
183 1 -1.1104 6.71334 -2.89165 20.7272
8657 2 2.2208 8.25669 -4.33384 24.9116
17728 2 2.2208 -0.0651133 -4.30161 16.3265
184 1 -1.1104 6.80666 2.71581 15.0897
192 1 -1.1104 6.84956 -0.197606 15.1276
177 1 -1.1104 6.83221 2.57093 17.9259
211 1 -1.1104 6.87071 8.36092 14.9511
187 1 -1.1104 6.80087 -0.16126 17.9039
214 1 -1.1104 6.8491 5.4195 17.8468
176 1 -1.1104 6.69209 -2.78447 17.8713
217 1 -1.1104 6.75467 5.52456 15.0681
208 1 -1.1104 6.86176 8.3032 17.8972
182 1 -1.1104 6.8645 -3.01069 14.9854
237 2 2.2208 11.1212 1.38338 16.4854
238 1 -1.1104 12.4327 -2.78567 17.9616
239 1 -1.1104 12.4134 2.8041 17.9631
240 1 -1.1104 12.4571 -2.80457 15.1528
242 1 -1.1104 12.4273 2.74644 15.1167
244 1 -1.1104 12.5986 0.0345885 17.8549
245 2 2.2208 11.0862 -1.45004 19.3383
246 2 2.2208 11.1003 4.01353 19.3485
247 1 -1.1104 12.6546 0.0170972 14.9448
249 1 -1.1104 9.58876 -2.91946 17.9254
250 1 -1.1104 9.66646 2.55981 17.9011
251 2 2.2208 8.14102 1.16273 19.3222
252 1 -1.1104 9.53215 -2.70871 15.0659
254 1 -1.1104 9.60762 2.62667 15.1582
256 2 2.2208 8.25289 -1.43839 16.5656
257 2 2.2208 8.26096 4.07405 16.4826
258 1 -1.1104 9.636 -0.128668 17.9733
259 1 -1.1104 9.80413 -0.0386471 15.132
261 2 2.2208 11.2362 6.99193 16.5384
263 1 -1.1104 12.4722 8.44357 15.2364
265 1 -1.1104 12.5737 5.62947 17.8835
266 1 -1.1104 12.422 5.59581 15.081
268 1 -1.1104 9.71962 8.26754 17.8877
269 2 2.2208 8.26411 6.82822 19.3706
270 1 -1.1104 9.69947 8.33586 15.0727
272 1 -1.1104 9.69669 5.36327 17.8947
273 1 -1.1104 9.73687 5.47016 15.1882
262 1 -1.1104 12.4728 8.3847 18.0073
253 1 -1.1104 9.50046 -2.82456 20.6748
255 1 -1.1104 9.66175 2.67079 20.7167
267 1 -1.1104 12.403 5.48104 20.7074
276 2 2.2208 10.8832 -4.13094 16.421
166 2 2.2208 8.20414 6.9351 13.6936
193 1 -1.1104 6.97155 -0.281599 20.7149
8653 2 2.2208 8.04885 -4.22873 19.3226
248 1 -1.1104 12.4776 0.00431928 20.7846
243 1 -1.1104 12.484 2.66362 20.8902
271 1 -1.1104 9.65398 8.17836 20.6813
274 1 -1.1104 9.648 5.41506 20.7288
179 1 -1.1104 1.25345 -2.74924 20.7743
200 1 -1.1104 3.9404 2.70221 20.859
216 1 -1.1104 1.23398 5.64304 20.6759
326 1 -1.1104 12.414 8.33042 26.2575
17900 2 2.2208 -0.282627 -4.31027 27.8347
160 2 2.2208 2.55528 6.91778 13.7509
324 2 2.2208 2.66642 -1.50861 27.7688
181 1 -1.1104 1.10843 2.58406 20.8222
210 1 -1.1104 1.16969 8.4192 20.5448
198 1 -1.1104 4.04053 -2.90036 20.8296
222 1 -1.1104 4.00628 8.20384 20.6721
312 1 -1.1104 1.30633 8.49622 26.3361
285 2 2.2208 5.49375 1.18824 22.1644
286 1 -1.1104 1.06977 -2.9947 23.619
287 1 -1.1104 1.19962 2.56849 23.6354
290 1 -1.1104 1.33056 -2.85582 26.2922
291 1 -1.1104 1.32011 2.70798 26.3437
294 1 -1.1104 1.17699 -0.0568963 23.7106
296 2 2.2208 5.46352 -1.52655 24.9467
297 2 2.2208 5.52929 4.11148 24.8729
298 1 -1.1104 1.27404 -0.068716 26.3944
300 1 -1.1104 3.95383 -2.98724 23.5962
301 1 -1.1104 4.08668 2.55551 23.6367
302 2 2.2208 2.66998 1.29725 24.971
303 1 -1.1104 4.15621 -2.85636 26.4769
304 1 -1.1104 4.11702 2.94029 26.2553
305 2 2.2208 2.73391 -1.52196 22.1997
306 2 2.2208 2.58711 4.04109 22.2038
307 1 -1.1104 4.08163 -0.20304 23.6465
308 1 -1.1104 4.0409 0.0193923 26.2555
309 2 2.2208 5.38828 6.86711 22.156
310 1 -1.1104 1.24579 8.42769 23.4345
314 1 -1.1104 1.17623 5.51709 23.5876
316 1 -1.1104 1.24241 5.63615 26.3699
318 1 -1.1104 4.10063 8.33819 23.504
319 2 2.2208 2.66354 6.96012 24.8971
321 1 -1.1104 4.04436 5.47635 23.4333
322 1 -1.1104 3.9779 5.54642 26.3432
320 1 -1.1104 4.10421 8.38898 26.3007
299 1 -1.1104 6.78976 -0.029535 26.3098
292 1 -1.1104 6.87117 -2.86731 26.4996
9008 2 2.2208 -0.233663 7.05002 22.1308
9010 2 2.2208 -0.23293 1.36656 22.1977
8995 2 2.2208 -0.155823 4.21703 24.9916
158 2 2.2208 10.9142 6.90549 27.759
229 2 2.2208 10.9469 -4.17004 22.0512
212 1 -1.1104 6.75617 8.30423 20.7358
278 1 -1.1104 9.75768 2.77827 23.5827
9067 2 2.2208 -0.177071 -1.51447 24.9982
228 2 2.2208 8.2351 -1.54659 22.138
329 1 -1.1104 9.55614 -2.88008 23.5476
327 1 -1.1104 9.60077 8.40211 23.482
241 1 -1.1104 12.4139 -2.76907 20.6554
230 1 -1.1104 9.56708 2.73767 26.3152
325 1 -1.1104 12.3304 8.35921 23.4038
185 1 -1.1104 6.7395 2.69184 20.7618
275 1 -1.1104 12.3188 -2.87591 23.4809
282 1 -1.1104 9.63475 5.64805 23.6752
235 1 -1.1104 12.4066 -2.86154 26.3134
289 1 -1.1104 6.96422 2.64571 23.6492
317 1 -1.1104 6.6807 5.57172 26.2869
293 1 -1.1104 6.71573 2.62871 26.2929
288 1 -1.1104 6.76756 -2.82837 23.6307
323 2 2.2208 10.9814 6.90352 22.1207
218 1 -1.1104 6.85396 5.50729 20.7927
260 1 -1.1104 9.64144 -0.0995862 20.8802
264 1 -1.1104 12.4213 8.27008 20.6141
332 1 -1.1104 12.4565 5.50158 23.4433
311 1 -1.1104 6.84814 8.2497 23.5504
315 1 -1.1104 6.93863 5.48872 23.4699
295 1 -1.1104 6.91514 -0.201207 23.5357
313 1 -1.1104 6.85063 8.26578 26.3759
226 1 -1.1104 9.60921 -0.08887 23.6356
236 1 -1.1104 12.4551 2.85676 23.6648
234 1 -1.1104 12.4496 2.78419 26.3816
330 1 -1.1104 12.4593 -0.124872 26.2868
227 2 2.2208 8.23801 4.07553 22.0815
283 1 -1.1104 9.45375 5.5477 26.4646
328 1 -1.1104 12.4601 5.59556 26.4499
284 1 -1.1104 9.7711 -0.0663887 26.4413
280 2 2.2208 8.18437 6.9984 24.9201
231 2 2.2208 11.014 -1.45179 24.9947
277 2 2.2208 8.33218 1.23077 25.0119
279 2 2.2208 10.9836 1.39752 22.1429
232 1 -1.1104 9.6864 -2.75752 26.3332
331 2 2.2208 11.1157 4.1952 25.0441
233 1 -1.1104 12.2515 0.00416607 23.4399
281 1 -1.1104 9.57339 8.30755 26.3398
8610 2 2.2208 5.37568 -4.29266 22.242
171 2 2.2208 2.66462 4.15978 27.729
170 2 2.2208 5.38183 1.25912 27.6366
8955 2 2.2208 -0.237357 4.22771 13.6983
8953 2 2.2208 -0.0559324 7.00926 27.7692
9069 2 2.2208 -0.149587 1.25246 27.6317
165 2 2.2208 10.9981 1.32433 27.7757
167 2 2.2208 8.17954 1.32614 13.7868
163 2 2.2208 8.11806 4.05564 27.668
333 2 2.2208 5.41496 12.6357 5.30795
334 1 -1.1104 1.29425 11.2227 1.10561
338 2 2.2208 5.43647 9.80524 2.50148
339 1 -1.1104 1.0992 11.057 3.91551
341 2 2.2208 2.67197 12.4834 2.55166
342 2 2.2208 2.64246 9.74064 5.34655
343 1 -1.1104 4.11004 11.1593 1.19384
345 1 -1.1104 3.90966 11.2344 3.96218
346 2 2.2208 5.50561 18.2668 5.30038
347 1 -1.1104 1.35946 13.9022 1.20934
349 1 -1.1104 1.16518 19.5507 1.17195
353 1 -1.1104 1.18727 13.8173 3.93159
354 1 -1.1104 1.32829 19.6781 3.96492
356 1 -1.1104 1.17202 16.7028 1.07596
359 2 2.2208 5.47243 15.4277 2.50468
360 2 2.2208 5.36786 20.951 2.50976
361 1 -1.1104 1.25095 16.6868 3.87401
363 1 -1.1104 4.22607 13.907 1.17194
365 1 -1.1104 3.84314 19.5666 1.27233
367 2 2.2208 2.59231 18.1963 2.63674
368 1 -1.1104 3.91402 14.048 4.02872
369 1 -1.1104 4.13136 19.6193 3.92354
370 2 2.2208 2.65765 15.3641 5.37866
371 2 2.2208 2.64746 21.1211 5.46995
372 1 -1.1104 3.96957 16.7126 1.21147
374 1 -1.1104 4.03113 16.8242 3.9756
391 1 -1.1104 7.00837 19.5232 3.94966
348 1 -1.1104 1.18983 14.022 6.66633
376 2 2.2208 -0.098821 9.52431 2.57399
335 1 -1.1104 1.0573 11.0149 6.7791
378 2 2.2208 -0.0259859 21.0319 2.62627
375 2 2.2208 -0.181952 15.2402 2.57768
9293 2 2.2208 -0.200855 12.4599 5.41001
489 2 2.2208 2.56743 20.9123 -0.195162
9296 2 2.2208 -0.0569043 18.2081 5.23765
499 2 2.2208 2.67667 9.76849 -0.373128
492 2 2.2208 5.41961 18.2172 -0.245833
493 2 2.2208 8.16385 15.4728 -0.186775
502 2 2.2208 -0.0816549 18.223 -0.229451
392 1 -1.1104 6.80597 16.8921 1.23126
362 1 -1.1104 6.80018 16.7553 3.93063
340 1 -1.1104 6.76684 11.153 3.79928
350 1 -1.1104 6.94553 13.933 1.11606
355 1 -1.1104 6.72315 13.8203 3.83175
336 1 -1.1104 6.94936 11.1118 0.982425
390 1 -1.1104 6.77938 19.5203 0.979432
380 2 2.2208 10.9282 12.5742 5.25555
381 1 -1.1104 12.4577 11.0701 1.06613
383 2 2.2208 11.2132 9.65837 2.49566
384 1 -1.1104 12.3611 11.0338 3.83433
385 2 2.2208 8.29723 12.495 2.56183
386 2 2.2208 8.2472 9.66163 5.30602
387 1 -1.1104 9.56838 10.9506 0.984912
389 1 -1.1104 9.70551 11.1257 3.90664
393 2 2.2208 10.994 18.1636 5.34348
394 1 -1.1104 12.4676 14.0714 1.30002
396 1 -1.1104 12.4565 19.5715 1.16314
398 1 -1.1104 12.4379 13.9271 3.94083
399 1 -1.1104 12.3826 19.4802 3.84218
400 1 -1.1104 12.2972 16.9187 1.3587
402 2 2.2208 10.9508 15.4114 2.59623
403 2 2.2208 10.9739 20.9942 2.57737
404 1 -1.1104 12.2806 16.7326 3.99056
405 1 -1.1104 9.69069 13.959 1.16223
407 1 -1.1104 9.6156 19.6419 1.15236
409 2 2.2208 8.26373 18.2449 2.59961
410 1 -1.1104 9.47909 13.9505 3.92654
411 1 -1.1104 9.65472 19.7117 4.05187
412 2 2.2208 8.15449 15.4678 5.37899
413 2 2.2208 8.14804 21.0457 5.30153
414 1 -1.1104 9.63465 16.7926 1.19347
416 1 -1.1104 9.51038 16.9177 3.94313
388 1 -1.1104 9.48999 11.256 6.7515
379 2 2.2208 10.9787 9.84439 8.20399
496 2 2.2208 10.9678 18.2402 -0.146907
497 2 2.2208 8.21666 20.9578 -0.348078
494 2 2.2208 10.9344 12.5787 -0.206552
9261 2 2.2208 -0.23706 12.5977 10.9922
435 1 -1.1104 1.16748 19.5508 6.79786
366 1 -1.1104 3.99017 19.5799 6.68382
357 1 -1.1104 1.26698 16.6931 6.6515
344 1 -1.1104 3.92517 11.2261 6.6404
373 1 -1.1104 4.04832 16.7989 6.76531
337 1 -1.1104 6.80663 11.244 6.7125
9299 2 2.2208 -0.343457 15.4189 8.01942
9298 2 2.2208 -0.225466 18.2179 10.9854
9274 2 2.2208 -0.180461 9.64964 8.20076
364 1 -1.1104 4.12479 13.9238 6.81289
419 1 -1.1104 3.96354 19.6219 12.3918
420 1 -1.1104 4.00539 14.0375 12.4128
424 1 -1.1104 1.22261 19.5685 9.59374
425 1 -1.1104 1.07733 16.8692 9.4422
426 2 2.2208 5.48316 20.8748 8.2226
427 1 -1.1104 1.18521 13.9726 9.50777
428 2 2.2208 5.41424 15.4582 8.13934
431 1 -1.1104 1.20107 19.7768 12.4095
432 1 -1.1104 1.22409 13.9452 12.3848
433 2 2.2208 5.24298 18.0967 11.0706
434 1 -1.1104 3.9674 19.6275 9.5554
436 2 2.2208 2.48159 18.2037 8.24116
437 1 -1.1104 3.98957 16.8187 9.52792
438 1 -1.1104 4.18731 14.0399 9.74875
440 1 -1.1104 1.12918 16.7692 12.3648
441 1 -1.1104 3.87376 16.8449 12.3114
442 2 2.2208 2.66843 21.023 11.0721
443 2 2.2208 5.37454 12.6426 10.9851
444 1 -1.1104 1.16085 11.3176 12.365
446 2 2.2208 2.60142 15.3181 10.9147
447 2 2.2208 5.46244 9.88606 8.04297
448 1 -1.1104 1.23675 11.1695 9.50542
450 2 2.2208 2.43853 12.6039 8.05047
451 2 2.2208 2.63864 9.82506 11.0309
452 1 -1.1104 4.08601 11.1927 12.314
453 1 -1.1104 3.83544 11.2796 9.56845
9297 2 2.2208 -0.195579 21.0477 8.12415
439 1 -1.1104 6.58231 16.7087 12.4758
500 2 2.2208 5.56286 12.5572 -0.247117
352 1 -1.1104 6.74716 19.5828 6.70338
351 1 -1.1104 6.95769 14.0566 6.85148
458 1 -1.1104 9.67033 16.7656 12.378
476 1 -1.1104 12.4524 19.6235 12.4007
415 1 -1.1104 9.5334 16.7871 6.79614
408 1 -1.1104 9.53317 19.6908 6.84791
395 1 -1.1104 12.3427 13.9086 6.6821
465 1 -1.1104 9.60963 14.1014 12.4336
406 1 -1.1104 9.4838 13.9175 6.71588
401 1 -1.1104 12.3761 16.7048 6.84699
382 1 -1.1104 12.3368 11.2574 6.90025
358 1 -1.1104 6.79024 16.8872 6.70992
469 2 2.2208 10.9269 15.1709 8.08674
459 2 2.2208 8.22594 20.9474 10.9075
449 1 -1.1104 6.63261 11.1436 9.59104
423 1 -1.1104 6.81765 14.0637 9.66121
421 1 -1.1104 6.77304 19.4966 9.52871
454 1 -1.1104 12.4501 11.116 12.315
468 1 -1.1104 9.47798 11.1743 9.53482
429 1 -1.1104 6.73975 19.5663 12.281
397 1 -1.1104 12.2439 19.5154 6.90832
430 1 -1.1104 6.77153 14.0028 12.5601
445 1 -1.1104 6.80788 11.35 12.399
422 1 -1.1104 6.68432 16.7911 9.77489
460 2 2.2208 8.16135 15.5609 11.0279
456 2 2.2208 10.956 18.2516 10.9541
473 1 -1.1104 12.4845 13.8941 9.60814
471 1 -1.1104 9.59328 11.1489 12.3708
464 1 -1.1104 9.46452 19.6018 12.4758
474 2 2.2208 8.09697 9.78436 10.9747
455 2 2.2208 11.0626 12.6152 10.9217
470 1 -1.1104 12.4284 16.7616 12.4058
377 1 -1.1104 12.417 11.3078 9.57738
461 1 -1.1104 9.5843 19.613 9.6395
477 1 -1.1104 12.396 13.8733 12.3815
463 2 2.2208 8.33863 18.224 8.06557
466 1 -1.1104 12.4088 16.7885 9.60514
475 2 2.2208 8.1802 12.6095 8.22872
467 2 2.2208 11.0376 21.0811 8.14762
457 1 -1.1104 9.61691 16.9097 9.44041
472 1 -1.1104 12.5096 19.5492 9.58147
462 1 -1.1104 9.65604 13.9646 9.55534
9311 2 2.2208 -0.258091 15.4457 13.8146
495 2 2.2208 8.2825 9.59928 -0.252672
480 2 2.2208 5.46449 9.77708 13.7431
483 2 2.2208 10.9153 20.9924 13.7173
503 2 2.2208 5.42926 12.5738 16.5113
504 1 -1.1104 1.0848 11.0705 17.834
506 2 2.2208 5.4264 9.65064 19.3537
507 1 -1.1104 1.11766 11.0644 15.0463
511 2 2.2208 2.61649 12.4439 19.2936
512 2 2.2208 2.5702 9.79207 16.3455
513 1 -1.1104 3.94738 11.1159 17.7956
514 1 -1.1104 3.91846 11.173 15.0031
516 2 2.2208 5.36437 18.1252 16.5781
517 1 -1.1104 1.21138 13.9206 17.8657
518 1 -1.1104 1.19895 19.5991 17.9849
521 1 -1.1104 1.27503 13.9593 15.1139
523 1 -1.1104 1.1927 19.5897 15.1659
529 1 -1.1104 1.1616 16.9045 17.9435
531 2 2.2208 5.51019 15.4287 19.2446
532 2 2.2208 5.55489 21.1561 19.4103
533 1 -1.1104 1.02719 16.76 15.2684
537 1 -1.1104 3.89827 14.0054 17.8783
538 1 -1.1104 4.10851 19.6702 17.989
539 2 2.2208 2.64682 18.2446 19.2521
540 1 -1.1104 4.10474 14.0471 15.2101
542 1 -1.1104 4.00648 19.4371 15.2286
544 2 2.2208 2.55234 15.3453 16.5806
545 2 2.2208 2.66671 20.8792 16.609
546 1 -1.1104 4.00818 16.8112 17.9351
547 1 -1.1104 3.88625 16.673 15.1834
522 1 -1.1104 1.27565 13.9005 20.6312
515 1 -1.1104 3.97477 11.0479 20.5626
509 1 -1.1104 6.80522 11.176 15.1622
553 2 2.2208 -0.20709 12.5968 16.5181
541 1 -1.1104 4.09811 13.9482 20.7452
552 2 2.2208 -0.343921 20.9006 19.4374
551 2 2.2208 -0.210718 15.4218 19.4096
550 2 2.2208 -0.181414 9.7549 19.2422
9422 2 2.2208 -0.304933 18.2447 16.5788
481 2 2.2208 2.58235 12.5665 13.6203
9312 2 2.2208 -0.0893333 21.0409 13.759
648 1 -1.1104 9.56583 13.8004 23.4467
482 2 2.2208 5.33619 15.2986 13.8233
478 2 2.2208 2.51589 18.1014 13.893
479 2 2.2208 5.37276 20.8961 13.8172
9363 2 2.2208 13.9846 21.1131 16.5156
519 1 -1.1104 6.86232 14.0767 17.9501
520 1 -1.1104 6.81549 19.5645 17.8507
525 1 -1.1104 6.75895 13.8757 15.2509
527 1 -1.1104 6.83173 19.6141 15.096
530 1 -1.1104 6.84292 16.9793 17.9665
535 1 -1.1104 6.80939 16.7638 15.1549
505 1 -1.1104 6.73263 11.1512 18.0249
554 2 2.2208 10.9773 12.5058 16.3905
555 1 -1.1104 12.5957 11.1779 17.8998
556 2 2.2208 11.0232 9.77189 19.186
557 1 -1.1104 12.3956 11.2574 15.0884
559 2 2.2208 8.12653 12.5773 19.3595
560 2 2.2208 8.22377 9.66922 16.5804
561 1 -1.1104 9.56817 10.9674 17.8525
562 1 -1.1104 9.6977 11.2319 14.9905
564 2 2.2208 11.0116 18.2001 16.6602
565 1 -1.1104 12.4602 13.891 18.0122
566 1 -1.1104 12.4893 19.7396 17.9245
567 1 -1.1104 12.3685 14.036 15.2737
569 1 -1.1104 12.3661 19.6673 15.0463
571 1 -1.1104 12.3753 16.7364 18.0351
572 2 2.2208 10.9428 15.2268 19.3267
573 2 2.2208 10.9387 21.0815 19.2115
574 1 -1.1104 12.3492 16.8112 15.233
576 1 -1.1104 9.61629 13.9613 17.8068
577 1 -1.1104 9.68257 19.6148 18.1012
578 2 2.2208 8.26037 18.2344 19.4509
579 1 -1.1104 9.61743 14.0329 15.2205
581 1 -1.1104 9.48137 19.6356 15.2265
583 2 2.2208 8.2322 15.4969 16.5873
584 2 2.2208 8.16311 21.1276 16.5433
585 1 -1.1104 9.57429 16.7781 18.0667
586 1 -1.1104 9.55459 16.9641 15.2242
587 1 -1.1104 9.65199 16.8796 20.7443
654 1 -1.1104 12.3306 19.6348 26.5155
510 1 -1.1104 6.78169 11.1342 20.6535
563 1 -1.1104 9.5715 11.2467 20.601
488 2 2.2208 8.15027 12.5945 13.7557
485 2 2.2208 8.21262 18.2183 13.9027
484 2 2.2208 11.0083 15.3778 13.8814
9315 2 2.2208 -0.289492 9.80053 13.6316
543 1 -1.1104 4.13498 19.6765 20.8009
548 1 -1.1104 4.00993 16.7897 20.6964
524 1 -1.1104 1.18417 19.4811 20.7769
508 1 -1.1104 1.26309 11.1208 20.7357
637 2 2.2208 -0.134774 9.7828 24.8413
633 2 2.2208 -0.273738 15.3214 24.962
534 1 -1.1104 1.2386 16.7996 20.7538
636 2 2.2208 -0.259021 18.2565 22.2533
594 1 -1.1104 4.21523 19.4405 23.6214
596 1 -1.1104 3.96529 13.7646 23.4973
598 1 -1.1104 1.17985 19.4986 26.3354
599 1 -1.1104 1.1591 16.6491 26.3416
600 1 -1.1104 1.26942 13.8803 26.3756
602 2 2.2208 5.36443 21.0315 24.9633
603 2 2.2208 5.4057 15.4399 25.0171
605 1 -1.1104 1.43942 19.5541 23.6079
606 1 -1.1104 1.0671 14.0715 23.4186
607 2 2.2208 5.44342 18.1045 22.2163
608 1 -1.1104 4.03554 19.6122 26.3615
609 2 2.2208 2.61668 18.2077 24.8976
610 1 -1.1104 4.04477 16.9714 26.3729
611 1 -1.1104 4.04922 14.0774 26.3225
613 1 -1.1104 1.05769 16.805 23.6439
614 1 -1.1104 3.90836 16.583 23.4705
615 2 2.2208 2.69133 20.9258 22.1151
616 2 2.2208 5.52868 12.4782 22.2045
617 1 -1.1104 1.25127 11.2492 23.4454
619 2 2.2208 2.71691 15.2622 22.0678
620 2 2.2208 5.46025 9.76461 24.9135
621 1 -1.1104 1.25893 11.0728 26.4057
623 2 2.2208 2.70094 12.4951 25.0154
624 2 2.2208 2.79585 9.79995 21.9341
625 1 -1.1104 4.23247 11.0069 23.5048
626 1 -1.1104 4.11081 11.1772 26.3905
635 2 2.2208 -0.168115 20.842 25.0277
638 2 2.2208 -0.152185 12.7437 22.1111
647 1 -1.1104 9.79661 19.5084 23.5597
653 1 -1.1104 12.3861 16.672 23.4998
528 1 -1.1104 6.84812 19.7755 20.5805
536 1 -1.1104 6.833 16.7957 20.8878
526 1 -1.1104 6.87042 13.9376 20.8953
656 1 -1.1104 9.53103 11.0799 23.3893
580 1 -1.1104 9.58473 13.9897 20.6229
629 2 2.2208 10.9304 9.78845 24.9748
582 1 -1.1104 9.67257 19.7238 20.7408
657 2 2.2208 8.3102 9.69076 22.0231
659 1 -1.1104 12.4999 19.4924 23.6651
597 1 -1.1104 6.78749 16.8778 26.5434
618 1 -1.1104 6.9132 11.2359 23.5418
622 1 -1.1104 6.80455 11.096 26.3314
604 1 -1.1104 6.66947 14.0389 23.6972
601 1 -1.1104 6.98739 19.5096 23.413
652 2 2.2208 10.9727 15.3304 25.0106
639 1 -1.1104 9.68554 16.6836 26.3251
558 1 -1.1104 12.3864 11.0559 20.7062
575 1 -1.1104 12.3551 16.7553 20.7037
568 1 -1.1104 12.4016 13.9121 20.6366
570 1 -1.1104 12.2649 19.8241 20.8068
612 1 -1.1104 6.82973 16.772 23.6282
595 1 -1.1104 6.84392 13.935 26.46
651 2 2.2208 11.0261 20.9726 24.8356
644 1 -1.1104 9.56586 13.9417 26.3722
650 1 -1.1104 9.46139 11.1742 26.3294
642 2 2.2208 8.13339 15.3257 22.1484
658 2 2.2208 8.15799 12.5391 25.0176
634 1 -1.1104 12.4568 13.9525 23.6093
632 2 2.2208 11.1065 18.2643 22.1189
630 1 -1.1104 12.2524 11.0522 23.6309
643 1 -1.1104 9.60932 19.4726 26.4802
649 1 -1.1104 12.4398 16.8495 26.4773
641 2 2.2208 8.27209 21.024 22.1067
631 2 2.2208 11.0072 12.5245 22.0636
655 1 -1.1104 12.378 13.9989 26.4966
628 1 -1.1104 12.235 11.1009 26.4341
640 1 -1.1104 9.53334 16.7405 23.4323
646 2 2.2208 8.24868 18.2196 24.9458
645 1 -1.1104 6.90455 19.676 26.2843
498 2 2.2208 2.61529 15.195 27.8223
501 2 2.2208 -0.139404 12.5171 27.7603
487 2 2.2208 11.1401 9.80074 13.6756
660 2 2.2208 5.37144 23.7364 5.22399
661 2 2.2208 5.58844 29.3907 5.2272
662 1 -1.1104 1.10822 25.2236 1.22896
663 1 -1.1104 1.25996 25.3149 4.10872
664 1 -1.1104 1.14969 22.3026 1.09299
665 1 -1.1104 1.26432 27.8943 1.15782
666 2 2.2208 5.36961 26.4818 2.46695
667 1 -1.1104 1.24993 22.5509 3.89916
668 1 -1.1104 1.33351 28.1855 3.80798
669 1 -1.1104 3.89666 25.1487 1.09254
670 2 2.2208 2.5183 23.8623 2.50303
671 2 2.2208 2.73235 29.5011 2.5633
672 1 -1.1104 3.97178 25.16 3.952
673 2 2.2208 2.68016 26.6254 5.35589
674 1 -1.1104 4.07589 22.3283 1.13843
675 1 -1.1104 3.99677 28.1004 1.07126
676 1 -1.1104 4.1206 22.355 3.87188
677 1 -1.1104 4.11506 27.8581 3.83223
678 1 -1.1104 1.424 30.764 1.09637
679 1 -1.1104 1.14369 30.9756 3.86958
680 1 -1.1104 1.22594 33.5344 1.26189
681 2 2.2208 5.49203 32.2267 2.45084
682 1 -1.1104 1.20949 33.54 4.07792
684 1 -1.1104 4.17323 30.8584 1.10508
685 1 -1.1104 4.08773 30.7842 3.95411
686 2 2.2208 2.6479 32.1977 5.33937
687 1 -1.1104 3.92863 33.7964 1.04252
688 1 -1.1104 4.03913 33.6575 3.87106
736 1 -1.1104 1.37965 28.0063 6.59386
9634 2 2.2208 -0.142742 26.6014 2.517
9635 2 2.2208 -0.0385209 23.8767 5.33485
9633 2 2.2208 -0.368929 32.1876 2.5909
9636 2 2.2208 -0.0785568 29.4753 5.12933
819 2 2.2208 2.61788 32.3456 -0.216726
818 2 2.2208 2.65765 26.6612 -0.321138
956 2 2.2208 5.34456 29.5183 -0.328934
821 2 2.2208 -0.116337 23.781 -0.226109
731 1 -1.1104 9.44297 30.7117 12.2051
694 1 -1.1104 6.84383 25.2252 3.72849
683 1 -1.1104 6.79114 33.6192 3.81691
695 1 -1.1104 6.73475 22.3578 0.999231
719 1 -1.1104 6.72353 33.6745 1.14959
738 1 -1.1104 7.00527 27.9874 6.55009
718 1 -1.1104 6.85692 30.7265 3.90007
698 1 -1.1104 6.84302 28.0017 3.77613
697 1 -1.1104 6.72746 22.2884 3.86059
696 1 -1.1104 6.82364 28.0616 1.06337
693 1 -1.1104 6.72224 25.161 1.10191
717 1 -1.1104 6.90363 30.7972 1.01156
699 2 2.2208 10.917 23.8123 5.30815
700 2 2.2208 11.1501 29.4469 5.31259
701 1 -1.1104 12.2234 25.1424 1.06014
702 1 -1.1104 12.3267 25.1782 3.97477
703 1 -1.1104 12.3759 22.375 0.924219
704 1 -1.1104 12.4419 27.9861 1.07908
705 2 2.2208 11.0083 26.6075 2.42309
706 1 -1.1104 12.3867 22.2232 3.83289
707 1 -1.1104 12.5224 27.9631 3.84811
708 1 -1.1104 9.40473 25.092 1.01867
709 2 2.2208 8.19731 23.6742 2.36
710 2 2.2208 8.13983 29.3755 2.51783
711 1 -1.1104 9.64926 25.1648 3.84817
712 2 2.2208 8.32359 26.6396 5.2681
713 1 -1.1104 9.59442 22.2537 1.15599
714 1 -1.1104 9.59761 27.8832 0.962103
715 1 -1.1104 9.59506 22.4646 3.891
716 1 -1.1104 9.6459 28.0365 3.83475
720 1 -1.1104 12.418 30.7282 1.14645
721 1 -1.1104 12.5156 30.6993 3.92264
722 1 -1.1104 12.4759 33.5604 1.08421
723 2 2.2208 11.1109 32.1898 2.48489
724 1 -1.1104 12.4355 33.4743 3.95523
725 1 -1.1104 9.62054 30.7372 1.09257
726 1 -1.1104 9.64081 30.8881 4.0019
727 2 2.2208 8.19421 32.1423 5.25656
728 1 -1.1104 9.59747 33.5437 0.964679
729 1 -1.1104 9.77666 33.7271 3.66519
793 1 -1.1104 12.4248 33.4565 6.61173
920 2 2.2208 10.9774 29.4155 -0.279342
957 2 2.2208 8.24658 32.2364 -0.365653
822 2 2.2208 11.0745 23.7001 -0.328299
955 2 2.2208 8.05326 26.6415 -0.406072
735 1 -1.1104 1.23294 22.429 6.7345
747 1 -1.1104 4.12553 33.5724 6.72808
744 1 -1.1104 1.25932 33.4842 6.88583
741 1 -1.1104 4.26108 28.0207 6.61343
739 1 -1.1104 4.13304 25.1559 6.80977
746 1 -1.1104 4.04772 30.8931 6.69554
742 1 -1.1104 1.26843 30.8166 6.71857
733 1 -1.1104 1.33513 25.2432 6.86597
740 1 -1.1104 3.99119 22.5719 6.74238
748 2 2.2208 5.46227 23.7831 10.9025
749 2 2.2208 5.42005 29.2746 10.7249
750 1 -1.1104 1.19964 25.3346 12.2796
752 1 -1.1104 1.17529 25.1526 9.55876
754 1 -1.1104 1.02245 22.55 12.3696
755 1 -1.1104 1.26071 28.1518 12.2996