ITEM: TIMESTEP
20000
ITEM: NUMBER OF ATOMS
17910
ITEM: BOX BOUNDS pp pp pp
-3.5564448823163114e-01 2.7695644488231704e+01
-4.3065371121485754e+00 3.3238653711215289e+02
-3.5182375250421710e-01 2.7691823752504362e+01
ITEM: ATOMS id type q x y z
1 2 2.2208 5.31334 1.14701 5.29348
2 1 -1.1104 1.31192 -2.92116 1.03178
3 1 -1.1104 1.06052 2.63856 0.978159
6 1 -1.1104 1.1046 -2.96155 3.81271
7 1 -1.1104 1.03447 2.68179 3.89257
10 1 -1.1104 1.03741 -0.0595203 1.12284
12 2 2.2208 5.34753 -1.5546 2.44562
13 2 2.2208 5.31718 4.09986 2.44124
14 1 -1.1104 1.18681 -0.188071 3.83081
16 1 -1.1104 4.03842 -2.94238 0.98406
17 1 -1.1104 3.89118 2.797 1.17006
18 2 2.2208 2.47274 1.45771 2.3811
19 1 -1.1104 3.91648 -2.89416 3.68766
20 1 -1.1104 3.87902 2.62779 3.80869
21 2 2.2208 2.632 -1.48446 5.19031
22 2 2.2208 2.51522 4.05561 5.143
23 1 -1.1104 3.9937 0.0505477 1.19128
24 1 -1.1104 4.07005 -0.0944835 3.85006
25 2 2.2208 5.17142 6.96574 5.23931
26 1 -1.1104 1.08564 8.28939 1.01316
28 1 -1.1104 0.994099 8.27307 3.75409
30 1 -1.1104 1.20143 5.40619 1.16178
32 1 -1.1104 1.09155 5.48501 3.99379
34 1 -1.1104 3.97319 8.34454 1.05423
35 2 2.2208 2.40684 6.92459 2.38552
37 1 -1.1104 3.90096 5.60544 1.01839
38 1 -1.1104 3.90047 5.52348 3.8361
8943 2 2.2208 -0.26708 1.22834 5.23888
8942 2 2.2208 -0.243337 -1.46062 2.43584
36 1 -1.1104 3.77458 8.32976 3.79794
8938 2 2.2208 -0.284836 4.11917 2.35897
171 2 2.2208 2.54616 4.11856 -0.333971
8940 2 2.2208 -0.186756 7.00898 5.28458
172 2 2.2208 5.32087 6.93309 -0.32056
17711 2 2.2208 -0.260804 -4.35403 5.26785
324 2 2.2208 2.46453 -1.43657 -0.367912
87 1 -1.1104 3.78033 2.64799 6.47587
9069 2 2.2208 -0.427953 1.257 -0.397023
170 2 2.2208 5.19231 1.34839 -0.285135
9 1 -1.1104 6.78519 2.82234 3.79637
31 1 -1.1104 6.70079 5.56381 1.10173
27 1 -1.1104 6.80957 8.41071 1.21262
11 1 -1.1104 6.75185 0.00403832 1.08366
15 1 -1.1104 6.84489 -0.0312524 3.93545
4 1 -1.1104 6.63271 -2.91602 1.0341
164 2 2.2208 8.04554 -1.46018 -0.339757
5 1 -1.1104 6.54445 2.71557 1.04811
29 1 -1.1104 6.64796 8.31557 3.89941
33 1 -1.1104 6.69391 5.44184 3.83074
165 2 2.2208 10.8016 1.22284 -0.318528
8 1 -1.1104 6.72602 -2.94976 3.87431
46 2 2.2208 10.9503 1.16002 5.33793
47 1 -1.1104 12.2245 -2.85591 0.929696
48 1 -1.1104 12.2548 2.63741 1.09301
49 1 -1.1104 12.3801 -2.85112 3.75724
50 1 -1.1104 12.3679 2.64843 3.92497
51 1 -1.1104 12.4967 -0.175979 1.08004
52 2 2.2208 11.0078 -1.58491 2.45337
53 2 2.2208 10.917 3.98548 2.49172
54 1 -1.1104 12.3993 -0.110094 3.79719
55 1 -1.1104 9.4538 -3.06256 1.03838
56 1 -1.1104 9.42187 2.6708 1.18843
57 2 2.2208 8.09961 1.21701 2.57671
58 1 -1.1104 9.63953 -3.10901 3.8256
59 1 -1.1104 9.61815 2.73936 3.98179
60 2 2.2208 8.28872 -1.73778 5.20499
61 2 2.2208 8.14257 4.00343 5.29188
62 1 -1.1104 9.53546 -0.180809 1.04602
63 1 -1.1104 9.6703 -0.294841 3.87581
64 2 2.2208 10.9545 6.87245 5.31013
65 1 -1.1104 12.3855 8.16298 0.956588
66 1 -1.1104 12.363 8.5081 3.75368
67 1 -1.1104 12.3691 5.36493 1.11433
68 1 -1.1104 12.3552 5.47965 3.87359
69 1 -1.1104 9.62754 8.28348 1.07789
70 2 2.2208 8.06406 6.82271 2.56268
71 1 -1.1104 9.53057 8.41506 3.81555
72 1 -1.1104 9.46518 5.40679 0.948702
73 1 -1.1104 9.53473 5.5851 3.92981
163 2 2.2208 7.9886 4.0319 -0.288457
158 2 2.2208 10.8754 6.92441 -0.314702
142 1 -1.1104 9.58369 -2.90355 6.63172
85 1 -1.1104 6.96021 -0.249502 6.64697
82 1 -1.1104 6.76528 -3.09557 6.7945
149 1 -1.1104 9.42284 5.59937 6.62832
139 1 -1.1104 12.389 -2.98794 6.50922
143 1 -1.1104 9.48185 2.60286 6.73612
8578 2 2.2208 2.58143 -4.35404 7.94574
86 1 -1.1104 3.91011 -2.91859 6.53018
8840 2 2.2208 -0.198403 4.10838 7.93745
8801 2 2.2208 -0.31202 -1.55463 8.1254
89 1 -1.1104 1.07427 8.40469 6.61175
91 1 -1.1104 1.21076 5.38227 6.78083
93 1 -1.1104 3.90164 8.30278 6.6796
94 1 -1.1104 3.90232 5.51333 6.67133
88 1 -1.1104 3.96326 -0.131962 6.7451
80 1 -1.1104 1.03748 -2.87445 6.66268
84 1 -1.1104 1.10947 -0.153811 6.67838
81 1 -1.1104 1.05314 2.71988 6.63408
95 2 2.2208 5.26487 1.32799 10.842
96 1 -1.1104 1.10846 -2.88743 12.2478
97 1 -1.1104 1.24333 2.70876 12.3112
100 1 -1.1104 1.11268 -2.86751 9.4282
101 1 -1.1104 1.15383 2.78737 9.47232
104 1 -1.1104 1.16168 -0.0429201 12.2871
106 2 2.2208 5.27176 -1.52815 8.17316
107 2 2.2208 5.17491 4.02696 8.02635
108 1 -1.1104 1.00732 -0.100895 9.53263
110 1 -1.1104 3.86161 -2.94965 12.2516
111 1 -1.1104 3.89759 2.75294 12.3409
112 2 2.2208 2.36404 1.22321 8.06713
113 1 -1.1104 3.96701 -3.0038 9.46974
114 1 -1.1104 3.87892 2.56028 9.53172
115 2 2.2208 2.58815 -1.52372 10.8946
116 2 2.2208 2.53595 4.14456 10.9147
117 1 -1.1104 4.03843 -0.129188 12.2294
118 1 -1.1104 3.88609 -0.217712 9.50683
119 2 2.2208 5.27186 6.99819 10.8282
120 1 -1.1104 1.13473 8.30949 12.3243
122 1 -1.1104 0.978366 8.36764 9.49402
124 1 -1.1104 1.19786 5.63446 12.2591
126 1 -1.1104 0.945949 5.59979 9.50713
128 1 -1.1104 3.71954 8.2701 12.2193
129 2 2.2208 2.54918 6.97651 8.03884
130 1 -1.1104 3.75403 8.29473 9.5481
131 1 -1.1104 3.90648 5.62978 12.3366
132 1 -1.1104 3.76643 5.39192 9.39087
8905 2 2.2208 -0.3047 7.05088 10.9587
8800 2 2.2208 -0.368788 1.33627 10.9249
8579 2 2.2208 5.30121 -4.27243 10.9297
159 2 2.2208 5.33437 -1.50617 13.7022
156 1 -1.1104 12.3368 -3.01861 9.26693
8573 2 2.2208 8.11101 -4.43915 8.24691
90 1 -1.1104 6.67136 8.41904 6.63937
8572 2 2.2208 10.9887 -4.32065 10.8695
140 1 -1.1104 12.2573 2.37227 6.68078
42 1 -1.1104 12.3207 5.57764 9.42964
102 1 -1.1104 6.78855 -2.87258 9.5644
151 1 -1.1104 9.32725 8.49083 9.29342
153 2 2.2208 10.9708 1.34148 10.7145
125 1 -1.1104 6.64064 5.67154 12.189
99 1 -1.1104 6.69353 2.89148 12.505
127 1 -1.1104 6.67683 5.42842 9.54338
77 1 -1.1104 12.3094 -0.1513 9.39898
134 2 2.2208 7.93958 4.08371 10.8736
152 2 2.2208 8.07886 6.90696 8.02273
43 1 -1.1104 9.44999 2.55229 12.1212
133 1 -1.1104 9.49608 -0.186497 12.2558
78 2 2.2208 10.8296 4.11392 8.08816
44 1 -1.1104 9.58428 -2.96217 12.2632
141 1 -1.1104 12.439 -0.21546 6.64343
147 1 -1.1104 9.54735 8.42081 6.60241
41 1 -1.1104 9.43301 8.40028 12.2633
79 1 -1.1104 9.47107 -0.167849 9.35722
144 1 -1.1104 9.67437 -0.239441 6.75799
92 1 -1.1104 6.69983 5.48381 6.74241
146 1 -1.1104 12.3219 5.30282 6.72673
103 1 -1.1104 6.5854 2.66743 9.5394
105 1 -1.1104 6.7122 -0.0726544 12.3186
75 1 -1.1104 12.2096 8.2713 12.2796
137 1 -1.1104 12.2972 -0.137339 12.0252
157 1 -1.1104 12.2819 2.69785 9.39461
148 1 -1.1104 9.54774 5.69345 9.39677
135 2 2.2208 8.26575 -1.53765 10.8154
154 1 -1.1104 12.4575 -2.83145 12.0483
74 1 -1.1104 12.1736 8.27004 9.31453
39 1 -1.1104 9.63949 -2.98612 9.50312
40 2 2.2208 8.10053 1.30767 8.04068
155 1 -1.1104 12.3587 2.66373 12.2777
98 1 -1.1104 6.82465 -3.02003 12.2546
121 1 -1.1104 6.66682 8.32729 12.2079
123 1 -1.1104 6.61197 8.31157 9.32288
109 1 -1.1104 6.63352 -0.139873 9.40584
138 1 -1.1104 9.55117 2.63411 9.53183
136 2 2.2208 10.9905 -1.55789 8.00403
83 1 -1.1104 6.73117 2.70106 6.78577
45 1 -1.1104 12.2978 5.37546 12.2179
76 2 2.2208 10.8514 6.96852 10.8185
150 1 -1.1104 9.49137 5.5155 12.1873
145 1 -1.1104 12.5315 8.08108 6.55021
168 2 2.2208 10.9842 -1.44522 13.4241
8584 2 2.2208 8.18532 -4.34639 13.6613
169 2 2.2208 10.8748 4.06575 13.5332
173 2 2.2208 5.44421 1.29839 16.5335
174 1 -1.1104 1.18925 -2.97531 17.8414
175 1 -1.1104 1.19793 2.69806 17.9677
178 1 -1.1104 1.1385 -2.92695 14.886
180 1 -1.1104 1.20494 2.63229 15.0632
186 1 -1.1104 1.30274 -0.0769029 17.8094
188 2 2.2208 5.40974 -1.36051 19.2634
189 2 2.2208 5.33414 4.18674 19.3108
190 1 -1.1104 1.16135 -0.0784889 15.0297
194 1 -1.1104 4.00797 -3.0004 17.7671
195 1 -1.1104 4.07745 2.66388 17.6924
196 2 2.2208 2.56382 1.23197 19.2409
197 1 -1.1104 3.98782 -2.98396 15.033
199 1 -1.1104 4.03816 2.73469 14.9992
201 2 2.2208 2.63356 -1.63462 16.3515
202 2 2.2208 2.57263 4.01498 16.5179
203 1 -1.1104 4.00667 -0.182275 17.8277
204 1 -1.1104 4.02952 -0.28145 15.009
206 2 2.2208 5.2279 6.91913 16.555
207 1 -1.1104 1.08781 8.24797 17.8974
209 1 -1.1104 0.980536 8.3946 15.1473
213 1 -1.1104 1.0467 5.51149 17.9608
215 1 -1.1104 1.03976 5.46935 15.1714
219 1 -1.1104 3.82789 8.29517 17.8587
220 2 2.2208 2.55688 6.99743 19.3362
221 1 -1.1104 3.75262 8.3004 15.1764
223 1 -1.1104 3.93923 5.41652 18.0336
224 1 -1.1104 3.96384 5.46832 15.2066
9119 2 2.2208 -0.281471 -1.66694 19.3643
9007 2 2.2208 -0.198647 1.26097 16.4392
9070 2 2.2208 -0.259617 3.95851 19.2497
9068 2 2.2208 -0.314977 6.91371 16.5142
9116 2 2.2208 -0.25662 -1.40808 13.6474
8955 2 2.2208 -0.298508 4.12343 13.7358
8654 2 2.2208 2.52038 -4.38122 19.3131
161 2 2.2208 2.56247 1.23781 13.5165
8586 2 2.2208 2.47659 -4.40498 13.5702
184 1 -1.1104 6.93822 2.77143 15.2129
8655 2 2.2208 5.39874 -4.30048 16.4724
17728 2 2.2208 -0.298252 -4.41188 16.4611
160 2 2.2208 2.49847 6.78482 13.7102
162 2 2.2208 5.28538 4.19978 13.6373
9005 2 2.2208 13.715 4.19769 16.3919
208 1 -1.1104 6.6468 8.30492 17.9156
214 1 -1.1104 6.62476 5.64387 17.8053
192 1 -1.1104 6.75614 -0.124897 15.134
176 1 -1.1104 6.86741 -2.91376 17.8801
182 1 -1.1104 6.85334 -3.03735 15.1238
166 2 2.2208 8.194 6.85222 13.5916
217 1 -1.1104 6.77694 5.54368 14.9018
177 1 -1.1104 6.77754 2.79099 17.9651
211 1 -1.1104 6.64071 8.29754 15.2003
187 1 -1.1104 6.83615 -0.0800176 17.9214
237 2 2.2208 10.9921 1.32347 16.3211
238 1 -1.1104 12.3349 -2.8589 17.9651
239 1 -1.1104 12.3651 2.76239 17.9137
240 1 -1.1104 12.4973 -2.76219 14.8739
242 1 -1.1104 12.3474 2.81599 14.9154
244 1 -1.1104 12.5209 -0.0264073 17.8603
245 2 2.2208 10.8569 -1.4037 19.3983
246 2 2.2208 11.005 4.1661 19.3448
247 1 -1.1104 12.3935 0.00320027 14.9516
249 1 -1.1104 9.51694 -2.81984 17.9311
250 1 -1.1104 9.48962 2.80248 17.9114
251 2 2.2208 8.17707 1.47452 19.3019
252 1 -1.1104 9.67614 -2.7822 15.1038
254 1 -1.1104 9.66047 2.75779 15.0248
256 2 2.2208 8.27892 -1.49105 16.4576
257 2 2.2208 8.24143 4.17684 16.4263
258 1 -1.1104 9.68766 -0.0223091 17.8274
259 1 -1.1104 9.54008 -0.0243894 14.9526
261 2 2.2208 10.7854 6.97446 16.4884
263 1 -1.1104 12.2786 8.43969 15.1051
265 1 -1.1104 12.3113 5.57746 17.9154
266 1 -1.1104 12.2843 5.57383 15.0987
268 1 -1.1104 9.44679 8.31907 18.0556
269 2 2.2208 7.967 6.91723 19.3647
270 1 -1.1104 9.38499 8.36081 15.1091
272 1 -1.1104 9.30097 5.67085 17.9327
273 1 -1.1104 9.5839 5.49165 14.9618
262 1 -1.1104 12.2294 8.27517 17.8976
167 2 2.2208 8.05441 1.36889 13.7104
243 1 -1.1104 12.3514 2.77669 20.7629
183 1 -1.1104 6.72238 -2.79426 20.5812
8610 2 2.2208 5.24096 -4.2147 22.1476
200 1 -1.1104 3.96082 2.70846 20.4872
225 1 -1.1104 4.03144 5.59266 20.8448
222 1 -1.1104 3.84046 8.50462 20.547
17901 2 2.2208 -0.239219 -4.31486 22.1019
218 1 -1.1104 6.63599 5.56994 20.6667
8995 2 2.2208 -0.311191 4.16333 24.838
205 1 -1.1104 4.02153 -0.0253802 20.6151
191 1 -1.1104 1.17619 -0.141779 20.7767
8953 2 2.2208 -0.339347 6.94942 27.7143
210 1 -1.1104 1.15551 8.40036 20.6896
179 1 -1.1104 1.20804 -2.88509 20.6389
198 1 -1.1104 3.89433 -2.91348 20.7777
216 1 -1.1104 1.0809 5.56656 20.5594
9067 2 2.2208 -0.512593 -1.4958 24.7904
9010 2 2.2208 -0.311554 1.30492 22.0792
181 1 -1.1104 1.08649 2.83161 20.8674
285 2 2.2208 5.27067 1.24697 22.0129
286 1 -1.1104 1.05238 -2.97877 23.4081
287 1 -1.1104 1.07429 2.74437 23.4544
290 1 -1.1104 1.05552 -2.83384 26.3521
291 1 -1.1104 1.15909 2.72615 26.432
294 1 -1.1104 1.01012 -0.0139861 23.4918
296 2 2.2208 5.16887 -1.45713 24.971
297 2 2.2208 5.16947 4.08265 24.8552
298 1 -1.1104 1.00276 -0.0544509 26.3042
300 1 -1.1104 3.85866 -2.92642 23.5763
301 1 -1.1104 3.83722 2.52214 23.5107
302 2 2.2208 2.44588 1.32209 24.8891
303 1 -1.1104 3.75779 -2.88795 26.3913
304 1 -1.1104 3.82729 2.66586 26.4301
305 2 2.2208 2.47919 -1.49237 22.0761
306 2 2.2208 2.47119 4.13646 21.9299
307 1 -1.1104 3.74198 -0.189516 23.4742
308 1 -1.1104 3.82122 -0.133166 26.3578
309 2 2.2208 5.28952 6.98533 22.0254
310 1 -1.1104 1.05257 8.59772 23.4951
312 1 -1.1104 1.08336 8.42728 26.1341
314 1 -1.1104 0.995099 5.6724 23.4724
316 1 -1.1104 1.09815 5.58116 26.2666
318 1 -1.1104 3.83001 8.37336 23.4448
319 2 2.2208 2.48786 6.86359 24.9257
321 1 -1.1104 3.72108 5.43467 23.553
322 1 -1.1104 3.91898 5.42216 26.2871
320 1 -1.1104 3.84311 8.36102 26.2889
185 1 -1.1104 6.86114 2.82775 20.7217
8583 2 2.2208 5.26925 -4.35925 27.6142
267 1 -1.1104 12.3732 5.48649 20.7108
264 1 -1.1104 12.2398 8.28247 20.8623
331 2 2.2208 10.7885 4.15841 24.8475
227 2 2.2208 8.0752 4.09726 22.0946
311 1 -1.1104 6.77056 8.35189 23.5232
212 1 -1.1104 6.7252 8.39232 20.6586
313 1 -1.1104 6.6052 8.33725 26.3507
317 1 -1.1104 6.60506 5.5361 26.3289
277 2 2.2208 8.03603 1.3929 24.8999
8657 2 2.2208 8.12939 -4.21252 24.864
283 1 -1.1104 9.39708 5.43613 26.3806
253 1 -1.1104 9.36117 -2.77648 20.6486
260 1 -1.1104 9.48045 -0.0329938 20.6077
274 1 -1.1104 9.43476 5.4372 20.6844
235 1 -1.1104 12.2727 -2.91846 26.1981
293 1 -1.1104 6.77459 2.65936 26.3143
248 1 -1.1104 12.1789 -0.0113572 20.6792
231 2 2.2208 10.9035 -1.52252 24.72
327 1 -1.1104 9.58044 8.32961 23.412
299 1 -1.1104 6.59943 -0.189584 26.3102
289 1 -1.1104 6.6255 2.77162 23.582
282 1 -1.1104 9.34219 5.53381 23.5425
193 1 -1.1104 6.75865 -0.025119 20.6908
271 1 -1.1104 9.41282 8.40581 20.684
278 1 -1.1104 9.33365 2.79196 23.5252
295 1 -1.1104 6.55232 -0.0424299 23.5318
292 1 -1.1104 6.79842 -3.01293 26.3723
330 1 -1.1104 12.1351 -0.107524 26.2515
315 1 -1.1104 6.41144 5.5787 23.6284
236 1 -1.1104 12.0509 2.62449 23.4146
232 1 -1.1104 9.57995 -2.82814 26.2977
234 1 -1.1104 12.1971 2.70568 26.2726
328 1 -1.1104 12.1407 5.63283 26.3443
280 2 2.2208 7.99999 6.90195 24.9021
284 1 -1.1104 9.40471 -0.284423 26.2796
329 1 -1.1104 9.55172 -2.7709 23.3942
233 1 -1.1104 12.2591 -0.0995106 23.4278
279 2 2.2208 10.7086 1.37094 22.0392
255 1 -1.1104 9.58471 2.84729 20.65
332 1 -1.1104 12.235 5.35128 23.551
281 1 -1.1104 9.29951 8.20486 26.3159
326 1 -1.1104 12.2602 8.45223 26.2969
275 1 -1.1104 12.2521 -3.00629 23.4956
325 1 -1.1104 12.4308 8.34443 23.5747
288 1 -1.1104 6.59308 -2.79603 23.5265
230 1 -1.1104 9.49113 2.69779 26.3141
241 1 -1.1104 12.2903 -2.90433 20.7955
323 2 2.2208 10.8299 6.8432 22.0295
228 2 2.2208 8.03861 -1.48768 22.0529
226 1 -1.1104 9.45535 -0.0129099 23.3798
333 2 2.2208 5.30623 12.504 5.30021
334 1 -1.1104 1.10567 11.0023 1.10352
338 2 2.2208 5.3276 9.72543 2.51802
339 1 -1.1104 1.07091 11.1456 3.81208
341 2 2.2208 2.48557 12.5026 2.44126
342 2 2.2208 2.41744 9.73725 5.17699
343 1 -1.1104 3.9456 11.1891 1.01832
345 1 -1.1104 3.91192 11.0628 3.8464
346 2 2.2208 5.25645 18.0787 5.24476
347 1 -1.1104 1.04145 13.8427 0.947791
349 1 -1.1104 1.01091 19.4855 0.955609
353 1 -1.1104 0.99206 13.8967 3.93011
354 1 -1.1104 1.15208 19.5179 3.75706
356 1 -1.1104 0.982561 16.8204 1.00708
359 2 2.2208 5.25104 15.2476 2.59954
360 2 2.2208 5.30444 20.9995 2.37938
361 1 -1.1104 1.05634 16.8299 3.89555
363 1 -1.1104 3.74278 13.9415 1.09014
365 1 -1.1104 3.85678 19.6361 0.857437
367 2 2.2208 2.446 18.1368 2.33391
368 1 -1.1104 3.79665 13.9371 3.88079
369 1 -1.1104 3.90769 19.6371 3.71586
370 2 2.2208 2.46111 15.3259 5.14968
371 2 2.2208 2.44959 20.9432 5.17457
372 1 -1.1104 3.71473 16.7174 1.18035
374 1 -1.1104 3.80777 16.7499 3.83049
501 2 2.2208 -0.31917 12.5119 -0.41382
502 2 2.2208 -0.483717 18.1406 -0.380184
378 2 2.2208 -0.360694 20.9554 2.4075
500 2 2.2208 5.22904 12.6235 -0.355931
489 2 2.2208 2.46469 20.8871 -0.519174
499 2 2.2208 2.51246 9.79728 -0.325201
498 2 2.2208 2.30315 15.3262 -0.288923
375 2 2.2208 -0.340995 15.4055 2.2996
376 2 2.2208 -0.348238 9.63348 2.32638
364 1 -1.1104 3.99403 13.9769 6.63691
348 1 -1.1104 1.13045 13.8876 6.54073
335 1 -1.1104 1.17744 11.0856 6.69731
9296 2 2.2208 -0.413474 18.221 5.20827
352 1 -1.1104 6.76347 19.4166 6.72235
492 2 2.2208 5.3731 18.21 -0.301102
355 1 -1.1104 6.70661 13.7982 3.82398
340 1 -1.1104 6.62287 11.1371 3.81178
362 1 -1.1104 6.61695 16.8893 3.81782
392 1 -1.1104 6.55124 16.7272 1.07016
495 2 2.2208 8.13218 9.7111 -0.384417
390 1 -1.1104 6.78 19.5243 1.07214
336 1 -1.1104 6.68911 11.1323 0.910234
350 1 -1.1104 6.68123 13.8293 1.00426
391 1 -1.1104 6.72514 19.6886 3.86706
380 2 2.2208 10.8676 12.5126 5.2891
381 1 -1.1104 12.3649 11.0552 1.13662
383 2 2.2208 10.9408 9.68306 2.59615
384 1 -1.1104 12.2663 11.2175 3.8459
385 2 2.2208 8.11974 12.5291 2.32596
386 2 2.2208 8.13347 9.68188 5.22531
387 1 -1.1104 9.62165 11.2037 1.1263
389 1 -1.1104 9.42774 11.1123 3.77119
393 2 2.2208 10.8669 18.0716 5.19149
394 1 -1.1104 12.237 13.9541 1.09085
396 1 -1.1104 12.2165 19.5264 1.02177
398 1 -1.1104 12.3945 13.9203 3.91564
399 1 -1.1104 12.3231 19.3959 3.94692
400 1 -1.1104 12.0934 16.7717 1.03624
402 2 2.2208 10.8416 15.3264 2.45599
403 2 2.2208 10.8432 20.9612 2.50247
404 1 -1.1104 12.0913 16.6494 3.8757
405 1 -1.1104 9.53977 14.1131 0.911424
407 1 -1.1104 9.56411 19.7876 1.00438
409 2 2.2208 8.05563 18.2331 2.4607
410 1 -1.1104 9.52817 13.8079 3.91497
411 1 -1.1104 9.35425 19.4634 3.89369
412 2 2.2208 8.08158 15.3075 5.23227
413 2 2.2208 8.13637 21.0032 5.19579
414 1 -1.1104 9.44498 16.9428 1.10623
416 1 -1.1104 9.47042 16.6718 3.94343
497 2 2.2208 8.03714 21.0872 -0.336047
496 2 2.2208 10.9438 18.1245 -0.383715
493 2 2.2208 8.00783 15.4492 -0.397363
494 2 2.2208 11.0016 12.4559 -0.351349
9299 2 2.2208 -0.372897 15.3215 8.05578
366 1 -1.1104 3.91598 19.4876 6.62138
373 1 -1.1104 3.89946 16.6395 6.52964
435 1 -1.1104 1.05106 19.7059 6.62457
9274 2 2.2208 -0.307051 9.82678 8.10969
344 1 -1.1104 3.92549 11.0445 6.63979
357 1 -1.1104 1.18576 16.7823 6.68793
419 1 -1.1104 3.72743 19.5847 12.1707
420 1 -1.1104 3.81718 13.7479 12.2371
424 1 -1.1104 0.957033 19.4793 9.40185
425 1 -1.1104 1.16639 16.6345 9.48663
426 2 2.2208 5.32973 21.0149 7.96971
427 1 -1.1104 1.18875 13.918 9.41753
428 2 2.2208 5.41754 15.3702 8.19439
431 1 -1.1104 1.01863 19.5715 12.0684
432 1 -1.1104 0.927376 13.8479 12.2803
433 2 2.2208 5.264 18.1338 10.8263
434 1 -1.1104 3.92433 19.3253 9.42774
436 2 2.2208 2.53133 18.0217 8.13624
437 1 -1.1104 3.90901 16.6211 9.44004
438 1 -1.1104 4.14603 13.9038 9.49661
440 1 -1.1104 1.14761 16.707 12.2756
441 1 -1.1104 3.92901 16.6764 12.2379
442 2 2.2208 2.57339 20.8755 10.6649
443 2 2.2208 5.43313 12.4948 10.9273
444 1 -1.1104 1.11474 11.0702 12.0834
446 2 2.2208 2.44447 15.2282 10.9057
447 2 2.2208 5.319 9.74221 7.97418
448 1 -1.1104 1.2185 11.2334 9.40431
450 2 2.2208 2.5834 12.5391 8.02476
451 2 2.2208 2.47351 9.73354 10.8526
452 1 -1.1104 4.05007 11.0409 12.2787
453 1 -1.1104 4.14132 10.9942 9.54802
9261 2 2.2208 -0.348456 12.5329 10.8758
9298 2 2.2208 -0.344462 18.1264 10.8032
9297 2 2.2208 -0.323483 20.9578 8.0042
439 1 -1.1104 6.7276 16.6326 12.2608
461 1 -1.1104 9.3801 19.6531 9.38364
9234 2 2.2208 13.6895 20.9987 10.8085
475 2 2.2208 8.20152 12.5772 8.0146
351 1 -1.1104 6.68189 13.932 6.72836
470 1 -1.1104 12.2846 16.7006 12.1241
397 1 -1.1104 12.2932 19.4387 6.74684
415 1 -1.1104 9.42527 16.8722 6.70801
464 1 -1.1104 9.38024 19.6413 12.3152
455 2 2.2208 10.9633 12.5884 10.8638
430 1 -1.1104 6.72516 13.9689 12.2407
421 1 -1.1104 6.71136 19.6953 9.46045
423 1 -1.1104 6.85877 13.9756 9.62816
422 1 -1.1104 6.76555 16.7299 9.53949
471 1 -1.1104 9.49908 11.1653 12.3482
382 1 -1.1104 12.2283 11.1085 6.55152
408 1 -1.1104 9.52976 19.6429 6.59742
468 1 -1.1104 9.60182 11.2081 9.63403
467 2 2.2208 10.8123 20.8614 7.99836
476 1 -1.1104 12.1752 19.5233 12.4088
474 2 2.2208 8.05371 9.74338 10.8112
472 1 -1.1104 12.1575 19.7044 9.5048
477 1 -1.1104 12.352 13.9013 12.3155
358 1 -1.1104 6.75415 16.7313 6.64492
337 1 -1.1104 6.72776 11.2518 6.63549
388 1 -1.1104 9.57302 11.2658 6.78355
377 1 -1.1104 12.3276 11.1858 9.41177
473 1 -1.1104 12.3951 13.9543 9.39531
449 1 -1.1104 6.8844 11.1864 9.46334
445 1 -1.1104 6.79263 11.2411 12.3418
469 2 2.2208 10.9384 15.4146 7.98675
460 2 2.2208 8.26232 15.2774 10.8763
463 2 2.2208 8.11019 18.1185 8.19977
462 1 -1.1104 9.59925 13.8856 9.46928
395 1 -1.1104 12.2244 13.8961 6.65367
406 1 -1.1104 9.41181 14.0865 6.71644
465 1 -1.1104 9.5917 14.028 12.2948
459 2 2.2208 8.03411 21.0255 10.7714
458 1 -1.1104 9.53589 16.7142 12.2989
379 2 2.2208 10.9112 9.74874 8.01917
429 1 -1.1104 6.58939 19.5698 12.4378
457 1 -1.1104 9.48745 16.8602 9.61515
456 2 2.2208 10.8556 18.388 10.8985
401 1 -1.1104 12.2023 16.7527 6.5965
454 1 -1.1104 12.1579 11.0714 12.1781
466 1 -1.1104 12.4138 16.7349 9.27173
9295 2 2.2208 13.7734 18.0812 7.98887
488 2 2.2208 8.19874 12.5361 13.7128
503 2 2.2208 5.25626 12.5257 16.323
504 1 -1.1104 1.13004 11.2165 17.8187
506 2 2.2208 5.29806 9.81983 19.2785
507 1 -1.1104 1.16419 11.1492 14.9968
511 2 2.2208 2.56467 12.4812 19.1997
512 2 2.2208 2.45028 9.74086 16.4335
513 1 -1.1104 3.89995 11.1752 17.8618
514 1 -1.1104 3.91255 10.9823 15.1221
516 2 2.2208 5.2648 18.0521 16.4666
517 1 -1.1104 1.21899 13.9941 17.8462
518 1 -1.1104 1.12516 19.5217 17.8071
521 1 -1.1104 1.04349 13.8598 14.9477
523 1 -1.1104 1.03352 19.3581 14.863
529 1 -1.1104 1.13384 16.7998 17.8766
531 2 2.2208 5.3938 15.3747 19.2766
532 2 2.2208 5.3017 20.9098 19.2154
533 1 -1.1104 1.00877 16.6644 15.0065
537 1 -1.1104 3.8912 13.9435 17.7608
538 1 -1.1104 3.91667 19.7021 17.7837
539 2 2.2208 2.48543 18.0583 19.3408
540 1 -1.1104 4.0789 13.9686 14.9525
542 1 -1.1104 3.78597 19.5115 15.0196
544 2 2.2208 2.4173 15.366 16.3517
545 2 2.2208 2.53423 20.9149 16.4026
546 1 -1.1104 3.87331 16.8766 17.8725
547 1 -1.1104 3.89109 16.6799 14.9335
480 2 2.2208 5.35685 9.70059 13.5448
553 2 2.2208 -0.22349 12.5537 16.3749
482 2 2.2208 5.34488 15.2553 13.5708
478 2 2.2208 2.44804 18.0789 13.5734
481 2 2.2208 2.50643 12.5675 13.6145
9315 2 2.2208 -0.309083 9.71654 13.616
550 2 2.2208 -0.239488 9.75126 19.2277
551 2 2.2208 -0.283222 15.2871 19.1512
552 2 2.2208 -0.236642 20.9334 19.2495
515 1 -1.1104 3.8157 11.2373 20.5879
9311 2 2.2208 -0.383694 15.2714 13.6296
479 2 2.2208 5.20116 21.0014 13.7275
590 2 2.2208 13.713 15.3569 16.4946
505 1 -1.1104 6.58876 11.1622 17.8704
509 1 -1.1104 6.80451 11.104 15.1537
535 1 -1.1104 6.68537 16.5704 15.0483
519 1 -1.1104 6.80889 13.8543 17.801
525 1 -1.1104 6.75189 13.8179 14.949
487 2 2.2208 10.842 9.61672 13.6776
520 1 -1.1104 6.63077 19.4561 17.8695
530 1 -1.1104 6.7941 16.7416 17.8731
527 1 -1.1104 6.72167 19.477 15.1796
554 2 2.2208 10.8941 12.5346 16.4657
555 1 -1.1104 12.1753 11.2123 17.9807
556 2 2.2208 10.8707 9.72151 19.2793
557 1 -1.1104 12.2755 11.1519 15.1407
559 2 2.2208 8.16198 12.5007 19.3061
560 2 2.2208 8.05896 9.70695 16.5177
561 1 -1.1104 9.47388 11.1476 17.8894
562 1 -1.1104 9.49379 11.0787 15.2227
564 2 2.2208 11.0139 18.168 16.4099
565 1 -1.1104 12.3933 14.0845 17.9591
566 1 -1.1104 12.3587 19.6092 17.8329
567 1 -1.1104 12.3911 13.9591 15.1316
569 1 -1.1104 12.4017 19.5465 15.1798
571 1 -1.1104 12.144 16.7081 17.676
572 2 2.2208 10.9501 15.3909 19.2388
573 2 2.2208 10.9577 21.0183 19.2761
574 1 -1.1104 12.3065 16.637 15.0584
576 1 -1.1104 9.56372 13.9262 17.9587
577 1 -1.1104 9.66362 19.5009 17.9436
578 2 2.2208 8.1771 18.1965 19.2584
579 1 -1.1104 9.56871 13.9462 15.1089
581 1 -1.1104 9.63368 19.6115 15.0848
583 2 2.2208 8.17448 15.3181 16.4829
584 2 2.2208 8.17746 20.8482 16.3861
585 1 -1.1104 9.43502 16.8081 17.7228
586 1 -1.1104 9.36389 16.7431 14.9581
484 2 2.2208 10.962 15.3292 13.7101
485 2 2.2208 8.07772 18.0987 13.6569
483 2 2.2208 10.7617 21.0029 13.6136
570 1 -1.1104 12.3259 19.5297 20.7502
536 1 -1.1104 6.69775 16.8102 20.7808
534 1 -1.1104 1.32335 16.6508 20.6576
541 1 -1.1104 3.87785 13.9964 20.6364
524 1 -1.1104 1.12197 19.5395 20.726
543 1 -1.1104 3.95248 19.5658 20.6091
548 1 -1.1104 3.94916 16.77 20.6213
508 1 -1.1104 1.00612 11.0744 20.6902
522 1 -1.1104 1.17526 13.8259 20.5791
594 1 -1.1104 4.05167 19.4891 23.577
596 1 -1.1104 3.83 13.9232 23.3923
598 1 -1.1104 1.01567 19.4953 26.3679
599 1 -1.1104 1.13429 16.7774 26.2989
600 1 -1.1104 1.07172 13.9832 26.1907
602 2 2.2208 5.37672 21.0955 24.8618
603 2 2.2208 5.21461 15.3612 24.8684
605 1 -1.1104 1.09191 19.5542 23.5216
606 1 -1.1104 1.04646 13.9116 23.2763
607 2 2.2208 5.28482 18.1021 22.0463
608 1 -1.1104 3.98504 19.6683 26.1597
609 2 2.2208 2.56525 18.0968 24.9569
610 1 -1.1104 3.94613 16.9506 26.3282
611 1 -1.1104 3.81736 14.2154 26.3896
613 1 -1.1104 1.04311 16.8665 23.6107
614 1 -1.1104 3.85312 16.6657 23.5297
615 2 2.2208 2.55644 20.9426 22.1196
616 2 2.2208 5.25986 12.6644 21.9611
617 1 -1.1104 0.942161 11.2149 23.4524
619 2 2.2208 2.45737 15.2825 22.0268
620 2 2.2208 5.23102 9.74291 25.0026
621 1 -1.1104 1.2513 11.3104 26.2641
623 2 2.2208 2.47802 12.588 24.7619
624 2 2.2208 2.46382 9.88202 22.1564
625 1 -1.1104 3.95398 11.1275 23.3286
626 1 -1.1104 3.93999 11.2215 26.2385
636 2 2.2208 -0.333523 18.0978 22.2335
638 2 2.2208 -0.256899 12.6181 21.9461
637 2 2.2208 -0.415142 9.80281 24.839
633 2 2.2208 -0.265958 15.2407 24.8657
510 1 -1.1104 6.56072 11.1206 20.7659
635 2 2.2208 -0.37799 20.9128 24.8965
595 1 -1.1104 6.74263 14.0638 26.3079
622 1 -1.1104 6.84971 11.1145 26.2737
587 1 -1.1104 9.58034 16.813 20.6632
618 1 -1.1104 6.71418 11.2471 23.5057
604 1 -1.1104 6.63181 13.9864 23.431
526 1 -1.1104 6.57921 14.035 20.5809
601 1 -1.1104 6.71854 19.547 23.4091
653 1 -1.1104 12.3756 16.8346 23.39
650 1 -1.1104 9.69374 11.1119 26.286
648 1 -1.1104 9.39753 13.9252 23.527
582 1 -1.1104 9.56009 19.5732 20.6836
628 1 -1.1104 12.4344 11.2632 26.2742
640 1 -1.1104 9.60219 16.7522 23.6267
658 2 2.2208 8.06375 12.5463 24.8492
644 1 -1.1104 9.44248 13.8262 26.177
612 1 -1.1104 6.64947 16.7608 23.5728
632 2 2.2208 10.94 18.1068 22.152
639 1 -1.1104 9.52758 16.819 26.352
646 2 2.2208 8.06245 18.1928 24.8371
630 1 -1.1104 12.3212 11.2017 23.463
652 2 2.2208 10.8292 15.3773 24.9028
558 1 -1.1104 12.3129 11.182 20.6782
659 1 -1.1104 12.3563 19.7334 23.4417
563 1 -1.1104 9.42059 11.2603 20.7964
651 2 2.2208 10.7527 20.8473 24.8123
655 1 -1.1104 12.2079 14.0158 26.2079
629 2 2.2208 10.9129 9.78531 24.9009
656 1 -1.1104 9.47189 11.1546 23.7134
657 2 2.2208 8.12503 9.85753 22.0662
631 2 2.2208 10.9532 12.6246 22.1163
642 2 2.2208 8.20231 15.4058 22.1188
580 1 -1.1104 9.54355 13.9695 20.7958
643 1 -1.1104 9.65535 19.507 26.162
568 1 -1.1104 12.2832 13.9963 20.7696
649 1 -1.1104 12.3316 16.803 26.1991
641 2 2.2208 8.06594 20.9454 22.0449
645 1 -1.1104 6.71452 19.6849 26.2003
597 1 -1.1104 6.76717 16.8728 26.263
654 1 -1.1104 12.2372 19.6807 26.192
647 1 -1.1104 9.48435 19.4652 23.461
634 1 -1.1104 12.2423 14.1015 23.5574
575 1 -1.1104 12.4243 16.8452 20.7279
528 1 -1.1104 6.74099 19.6289 20.6497
660 2 2.2208 5.1935 23.7032 5.33859
661 2 2.2208 5.34592 29.4911 5.24364
662 1 -1.1104 1.0976 25.1168 0.996316
663 1 -1.1104 1.05574 25.3099 3.73611
664 1 -1.1104 1.12257 22.2626 0.97035
665 1 -1.1104 1.05004 27.962 1.04163
666 2 2.2208 5.21292 26.4326 2.44869
667 1 -1.1104 1.00307 22.3925 3.79192
668 1 -1.1104 0.901628 27.9594 3.68222
669 1 -1.1104 3.8321 25.115 1.09412
670 2 2.2208 2.4237 23.6697 2.28867
671 2 2.2208 2.37006 29.3264 2.43604
672 1 -1.1104 3.84428 25.0656 3.76286
673 2 2.2208 2.50986 26.5063 5.13567
674 1 -1.1104 3.82541 22.2496 0.829913
675 1 -1.1104 3.87661 28.0173 0.861988
676 1 -1.1104 3.77686 22.3224 3.62914
677 1 -1.1104 3.86554 27.9615 3.7851
678 1 -1.1104 1.0005 30.7552 1.02438
679 1 -1.1104 0.989456 30.7449 3.79942
680 1 -1.1104 1.04999 33.4766 1.08297
681 2 2.2208 5.22989 32.2681 2.48267
682 1 -1.1104 0.977537 33.5464 3.80811
684 1 -1.1104 3.91206 30.8186 1.1465
685 1 -1.1104 3.70389 30.8588 3.90987
686 2 2.2208 2.35733 32.1786 5.24752
687 1 -1.1104 3.84687 33.6372 1.14976
688 1 -1.1104 3.86998 33.6906 3.97791
9636 2 2.2208 -0.355795 29.4518 5.24706
817 2 2.2208 5.26105 23.7003 -0.315119
9634 2 2.2208 -0.495875 26.6284 2.41273
819 2 2.2208 2.5022 32.1664 -0.440065
9642 2 2.2208 -0.332619 29.4538 -0.44285
9635 2 2.2208 -0.267206 23.7204 5.05636
818 2 2.2208 2.49168 26.6755 -0.440614
683 1 -1.1104 6.56286 33.5386 3.93429
698 1 -1.1104 6.63805 28.0223 3.87742
733 1 -1.1104 0.985327 24.963 6.49843
736 1 -1.1104 1.25272 27.8302 6.67245
742 1 -1.1104 1.12671 30.6082 6.79893
821 2 2.2208 -0.229923 23.7198 -0.233312
956 2 2.2208 5.32012 29.2899 -0.221307
696 1 -1.1104 6.59481 27.9211 1.08579
955 2 2.2208 8.03531 26.5768 -0.322713
697 1 -1.1104 6.58422 22.4427 3.78996
718 1 -1.1104 6.65195 30.8146 3.8345
693 1 -1.1104 6.55155 25.1491 0.991918
694 1 -1.1104 6.6615 25.1627 3.94321
695 1 -1.1104 6.67468 22.3787 1.01794
719 1 -1.1104 6.52029 33.6092 1.19492
717 1 -1.1104 6.50231 30.7522 1.15366
699 2 2.2208 10.9689 23.7561 5.39791
700 2 2.2208 10.9528 29.2811 5.32982
701 1 -1.1104 12.2688 25.0473 1.08281
702 1 -1.1104 12.3862 25.0688 3.88417
703 1 -1.1104 12.263 22.2062 0.993193
704 1 -1.1104 12.3714 28.0191 1.11219
705 2 2.2208 10.9469 26.5133 2.42657
706 1 -1.1104 12.2691 22.2407 3.88167
707 1 -1.1104 12.2706 27.8872 3.75938
708 1 -1.1104 9.43138 25.1981 1.08472
709 2 2.2208 8.13219 23.9208 2.38998
710 2 2.2208 7.87318 29.4217 2.39484
711 1 -1.1104 9.49127 25.0338 3.99076
712 2 2.2208 8.12603 26.5886 5.30927
713 1 -1.1104 9.49662 22.434 1.06291
714 1 -1.1104 9.56249 27.8479 0.887401
715 1 -1.1104 9.52484 22.2171 3.88165
716 1 -1.1104 9.42671 27.9014 3.73019
720 1 -1.1104 12.3158 30.7559 1.0087
721 1 -1.1104 12.5857 30.5572 4.05142
722 1 -1.1104 12.168 33.5015 1.07258
723 2 2.2208 10.8153 32.1856 2.49054
724 1 -1.1104 12.3261 33.4785 3.90579
725 1 -1.1104 9.47538 30.7827 1.21055
726 1 -1.1104 9.43163 30.6906 3.83215
727 2 2.2208 8.0246 32.1081 5.3218
728 1 -1.1104 9.3277 33.5938 1.14983
729 1 -1.1104 9.46144 33.6446 3.93255
920 2 2.2208 10.8961 29.4003 -0.367001
822 2 2.2208 10.8078 23.7168 -0.331259
793 1 -1.1104 12.2164 33.4781 6.63771
795 1 -1.1104 9.39881 33.5795 6.76994
9501 2 2.2208 13.6974 32.1566 5.2676
744 1 -1.1104 0.961949 33.4485 6.64681
9630 2 2.2208 -0.251791 32.0906 8.07231
740 1 -1.1104 3.81223 22.2456 6.5195
739 1 -1.1104 3.78199 25.2063 6.62285
746 1 -1.1104 3.93519 30.7792 6.61638
9631 2 2.2208 -0.227471 29.3316 10.9674
735 1 -1.1104 1.07045 22.4039 6.49198
747 1 -1.1104 3.69688 33.6218 6.61313
741 1 -1.1104 4.03448 28.0367 6.54353
748 2 2.2208 5.29496 23.7517 10.9571
749 2 2.2208 5.45882 29.3705 10.815
750 1 -1.1104 1.14737 25.2091 12.2608
752 1 -1.1104 1.09571 25.147 9.25144
754 1 -1.1104 0.99624 22.351 12.2208