ITEM: TIMESTEP
100000
ITEM: NUMBER OF ATOMS
17910
ITEM: BOX BOUNDS pp pp pp
-3.5528064227756129e-01 2.7695280642277591e+01
-4.3507434610130504e+00 3.3243074346102412e+02
-3.5998778302537765e-01 2.7699987783025517e+01
ITEM: ATOMS id type q x y z
1 2 2.2208 5.1847 1.26508 5.21085
2 1 -1.1104 0.944224 -2.91894 1.26266
3 1 -1.1104 1.10021 2.666 1.09137
6 1 -1.1104 1.04222 -2.93466 4.0304
7 1 -1.1104 1.05057 2.79025 3.82647
10 1 -1.1104 1.07607 -0.213089 1.07029
12 2 2.2208 5.25866 -1.54066 2.39811
13 2 2.2208 5.2907 4.06587 2.47664
14 1 -1.1104 1.04821 0.0136579 3.7955
16 1 -1.1104 3.82755 -2.95341 1.17423
17 1 -1.1104 3.90986 2.55338 1.10453
18 2 2.2208 2.48453 1.3552 2.49738
19 1 -1.1104 3.6913 -3.09735 4.03143
20 1 -1.1104 3.90803 2.68657 3.91124
21 2 2.2208 2.46378 -1.50038 5.24745
22 2 2.2208 2.37025 3.94853 5.37583
23 1 -1.1104 3.91144 -0.187486 1.06819
24 1 -1.1104 3.83613 -0.194352 3.78567
25 2 2.2208 5.14995 6.85579 5.20482
26 1 -1.1104 0.899761 8.45094 0.916571
28 1 -1.1104 0.899148 8.39447 3.88706
30 1 -1.1104 1.0581 5.51243 1.11391
32 1 -1.1104 1.05731 5.53666 3.84429
34 1 -1.1104 3.89381 8.24255 0.877237
35 2 2.2208 2.3626 6.87492 2.41338
37 1 -1.1104 3.84967 5.5361 1.01701
38 1 -1.1104 3.81505 5.56578 3.8329
36 1 -1.1104 3.67716 8.39214 3.76139
164 2 2.2208 8.1014 -1.56458 -0.387474
29 1 -1.1104 6.57968 8.45016 3.87022
84 1 -1.1104 1.04227 -0.104295 6.56613
93 1 -1.1104 3.65504 8.27455 6.46842
8574 2 2.2208 2.27373 -4.41314 2.46366
15 1 -1.1104 6.37752 -0.113291 3.84038
31 1 -1.1104 6.68591 5.4258 0.977745
33 1 -1.1104 6.53285 5.58705 3.84445
4 1 -1.1104 6.60508 -2.97338 1.1802
83 1 -1.1104 6.65327 2.82294 6.5614
92 1 -1.1104 6.62685 5.52296 6.67799
8939 2 2.2208 13.5441 1.29067 8.04749
163 2 2.2208 8.11522 4.08679 -0.357338
171 2 2.2208 2.54884 4.08838 -0.316745
170 2 2.2208 5.25919 1.2293 -0.303465
172 2 2.2208 5.28228 6.82405 -0.281697
324 2 2.2208 2.39379 -1.65434 -0.441819
8573 2 2.2208 7.98273 -4.26552 8.17447
8576 2 2.2208 7.97589 -4.51822 2.40988
27 1 -1.1104 6.61994 8.30703 1.13374
148 1 -1.1104 9.5254 5.37221 9.5364
8577 2 2.2208 10.8497 -4.41289 5.26334
8 1 -1.1104 6.58545 -2.97403 3.85421
11 1 -1.1104 6.84647 -0.268144 1.181
5 1 -1.1104 6.51095 2.69954 0.941391
9 1 -1.1104 6.58069 2.71818 3.96338
46 2 2.2208 10.7427 1.22192 5.26171
47 1 -1.1104 12.2836 -3.1543 0.997796
48 1 -1.1104 12.2327 2.83872 1.12367
49 1 -1.1104 12.1996 -2.97289 3.86371
50 1 -1.1104 12.2568 2.59871 3.98886
51 1 -1.1104 12.352 -0.285224 1.02079
52 2 2.2208 10.9045 -1.65191 2.38587
53 2 2.2208 10.7981 4.10909 2.48021
54 1 -1.1104 12.0993 -0.136046 3.73069
55 1 -1.1104 9.39476 -2.99112 1.04431
56 1 -1.1104 9.50091 2.79765 1.03377
57 2 2.2208 7.96981 1.21902 2.50027
58 1 -1.1104 9.34243 -3.06454 3.64547
59 1 -1.1104 9.35628 2.64312 3.7724
60 2 2.2208 7.85782 -1.55968 5.25191
61 2 2.2208 8.00952 4.17396 5.15155
62 1 -1.1104 9.61245 -0.150965 0.955527
63 1 -1.1104 9.40547 -0.159254 3.93097
64 2 2.2208 10.8854 6.95141 5.25204
66 1 -1.1104 12.4137 8.39186 3.8783
67 1 -1.1104 12.2752 5.6323 1.11209
68 1 -1.1104 12.2809 5.53437 3.85476
69 1 -1.1104 9.37642 8.35875 0.956402
70 2 2.2208 8.02295 6.95138 2.31273
71 1 -1.1104 9.63347 8.30938 3.73635
72 1 -1.1104 9.51219 5.53953 0.833983
73 1 -1.1104 9.41351 5.54985 3.67776
65 1 -1.1104 12.1471 8.33305 0.907825
142 1 -1.1104 9.41883 -2.90171 6.60354
144 1 -1.1104 9.44574 -0.210085 6.65681
165 2 2.2208 10.8789 1.18982 -0.35558
85 1 -1.1104 6.65732 -0.0772507 6.5473
143 1 -1.1104 9.40428 2.71385 6.48796
141 1 -1.1104 12.2717 -0.127123 6.63873
8841 2 2.2208 13.5737 6.96368 2.38203
8949 2 2.2208 13.5195 4.01449 -0.376809
8578 2 2.2208 2.46219 -4.37009 7.95628
40 2 2.2208 8.00502 1.36286 7.978
8801 2 2.2208 -0.397046 -1.50585 8.08905
88 1 -1.1104 3.9139 -0.190141 6.55106
8882 2 2.2208 13.5848 -1.5584 5.29897
89 1 -1.1104 0.934148 8.28355 6.79563
86 1 -1.1104 3.94853 -2.94406 6.71773
91 1 -1.1104 0.906124 5.54277 6.58345
152 2 2.2208 7.95608 6.95396 8.03365
8579 2 2.2208 5.07945 -4.32447 10.7288
80 1 -1.1104 1.0186 -2.80534 6.73307
87 1 -1.1104 3.85485 2.65778 6.61992
123 1 -1.1104 6.58345 8.30972 9.3222
41 1 -1.1104 9.34437 8.2766 12.2755
81 1 -1.1104 0.912654 2.53153 6.71507
94 1 -1.1104 3.82389 5.31446 6.64341
130 1 -1.1104 3.74838 8.2594 9.41315
95 2 2.2208 5.07106 1.3268 10.7171
96 1 -1.1104 0.882664 -2.98432 12.1729
97 1 -1.1104 1.01874 2.76437 12.3814
100 1 -1.1104 0.965817 -3.00183 9.61939
101 1 -1.1104 0.892039 2.72151 9.41897
104 1 -1.1104 0.984749 0.107165 12.0993
106 2 2.2208 5.26624 -1.48146 8.01069
107 2 2.2208 5.18118 4.12427 7.96577
108 1 -1.1104 1.02765 -0.186885 9.35548
110 1 -1.1104 3.70628 -2.89225 12.1058
111 1 -1.1104 3.83027 2.62692 12.2276
112 2 2.2208 2.42334 1.21346 7.95613
113 1 -1.1104 3.77759 -2.89991 9.42758
114 1 -1.1104 3.74603 2.67317 9.34339
115 2 2.2208 2.32026 -1.56929 10.9304
116 2 2.2208 2.40379 4.09364 10.9073
117 1 -1.1104 3.68609 -0.178581 12.1958
118 1 -1.1104 3.87603 -0.0831063 9.33931
119 2 2.2208 5.15883 6.87038 10.8357
120 1 -1.1104 1.03353 8.2148 12.349
122 1 -1.1104 1.02131 8.37616 9.49139
124 1 -1.1104 0.987784 5.48914 12.2249
126 1 -1.1104 1.12219 5.46343 9.3198
128 1 -1.1104 3.67952 8.41259 12.3186
129 2 2.2208 2.33578 6.91308 8.00466
131 1 -1.1104 3.72528 5.40393 12.3708
132 1 -1.1104 3.83124 5.38825 9.44859
127 1 -1.1104 6.63928 5.61384 9.41968
103 1 -1.1104 6.57401 2.67785 9.58403
121 1 -1.1104 6.53356 8.19421 12.2712
102 1 -1.1104 6.61919 -2.92543 9.42772
82 1 -1.1104 6.6188 -2.97069 6.66242
99 1 -1.1104 6.51937 2.60798 12.3465
90 1 -1.1104 6.49804 8.3538 6.54477
156 1 -1.1104 12.175 -3.10544 9.58896
8575 2 2.2208 5.16615 -4.37867 5.204
75 1 -1.1104 12.223 8.29763 12.2743
146 1 -1.1104 12.2597 5.38783 6.60143
39 1 -1.1104 9.48474 -2.86855 9.44557
147 1 -1.1104 9.37236 8.36384 6.53077
154 1 -1.1104 11.9592 -3.02202 12.3521
17713 2 2.2208 13.7005 -4.31066 8.21018
138 1 -1.1104 9.35567 2.64047 9.30256
151 1 -1.1104 9.35609 8.39867 9.45385
137 1 -1.1104 12.2657 -0.157454 12.2526
98 1 -1.1104 6.46013 -3.13834 12.2258
145 1 -1.1104 12.2379 8.31727 6.73191
139 1 -1.1104 12.2703 -3.03505 6.78124
8941 2 2.2208 13.6162 -1.58241 10.9409
109 1 -1.1104 6.55765 -0.137116 9.53128
135 2 2.2208 8.00508 -1.44289 10.7845
105 1 -1.1104 6.54092 -0.144511 12.1466
134 2 2.2208 8.00095 4.01329 10.9143
149 1 -1.1104 9.45945 5.64236 6.64865
140 1 -1.1104 12.1193 2.61028 6.76491
155 1 -1.1104 12.2224 2.65832 12.3208
76 2 2.2208 10.8392 6.92967 10.9347
77 1 -1.1104 12.0984 -0.201626 9.56737
78 2 2.2208 10.8544 4.21362 8.06951
44 1 -1.1104 9.25041 -2.84614 12.123
42 1 -1.1104 12.2999 5.58683 9.46868
150 1 -1.1104 9.33879 5.49731 12.3404
43 1 -1.1104 9.34577 2.63208 12.478
45 1 -1.1104 12.2079 5.49431 12.3162
125 1 -1.1104 6.38885 5.44617 12.1992
8842 2 2.2208 13.6653 4.15507 10.9483
74 1 -1.1104 12.067 8.35066 9.65618
153 2 2.2208 10.8374 1.22751 10.7833
79 1 -1.1104 9.34555 -0.0922458 9.2741
136 2 2.2208 10.7687 -1.55362 8.06353
133 1 -1.1104 9.32345 -0.0419827 12.1113
157 1 -1.1104 12.1052 2.74243 9.63136
166 2 2.2208 7.92457 6.8763 13.7433
8583 2 2.2208 5.18394 -4.48906 -0.350245
173 2 2.2208 5.17653 1.42573 16.4695
174 1 -1.1104 0.999071 -3.03025 17.9076
175 1 -1.1104 1.05874 2.72918 18.0123
178 1 -1.1104 1.03892 -3.03218 15.1686
180 1 -1.1104 1.12612 2.67581 15.1532
186 1 -1.1104 1.17315 -0.211705 17.9075
188 2 2.2208 5.21678 -1.47154 19.3183
189 2 2.2208 5.13392 4.17681 19.2988
190 1 -1.1104 1.01509 -0.22575 15.0503
194 1 -1.1104 3.68629 -2.86308 17.9557
195 1 -1.1104 3.88786 2.96596 17.7931
196 2 2.2208 2.37981 1.19452 19.3004
197 1 -1.1104 3.77112 -2.96376 15.1366
199 1 -1.1104 3.87259 2.53558 15.013
201 2 2.2208 2.45802 -1.53253 16.4295
202 2 2.2208 2.3884 4.11485 16.4445
203 1 -1.1104 3.84905 -0.0014539 17.7599
204 1 -1.1104 3.69664 -0.210076 15.009
206 2 2.2208 5.2297 6.90998 16.5447
207 1 -1.1104 1.19288 8.2116 17.942
209 1 -1.1104 1.03732 8.32438 15.0938
213 1 -1.1104 0.932527 5.55972 17.8629
215 1 -1.1104 0.847464 5.47017 15.0991
219 1 -1.1104 3.93753 8.28638 17.909
220 2 2.2208 2.42593 6.82003 19.2085
221 1 -1.1104 3.69235 8.31257 15.0895
223 1 -1.1104 3.73715 5.63071 17.8085
224 1 -1.1104 3.68483 5.58978 15.1699
9011 2 2.2208 13.7129 1.18818 19.3117
187 1 -1.1104 6.58555 0.0318807 17.9407
192 1 -1.1104 6.54813 0.00867846 15.0906
205 1 -1.1104 3.7731 -0.240261 20.7386
211 1 -1.1104 6.55392 8.27759 15.2123
8951 2 2.2208 13.5634 1.31821 13.7458
183 1 -1.1104 6.43907 -2.95145 20.727
9078 2 2.2208 13.5834 -1.42157 16.4788
198 1 -1.1104 3.74815 -3.00704 20.7376
191 1 -1.1104 1.02193 -0.38018 20.636
216 1 -1.1104 0.995565 5.47854 20.6371
222 1 -1.1104 3.7948 8.31329 20.5848
8584 2 2.2208 7.94354 -4.26812 13.7697
161 2 2.2208 2.33235 1.15623 13.5354
162 2 2.2208 5.0792 4.06736 13.6993
167 2 2.2208 7.92703 1.20147 13.6768
276 2 2.2208 10.761 -4.42802 16.4625
282 1 -1.1104 9.47656 5.43999 23.3145
176 1 -1.1104 6.47732 -2.84967 17.8707
177 1 -1.1104 6.63212 2.78816 17.9308
214 1 -1.1104 6.60713 5.69457 17.9231
217 1 -1.1104 6.54019 5.58453 15.1202
262 1 -1.1104 12.3569 8.32696 17.9487
182 1 -1.1104 6.50745 -2.81863 15.1166
208 1 -1.1104 6.67884 8.43812 18.0854
184 1 -1.1104 6.59996 2.8316 15.1167
237 2 2.2208 10.6857 1.25245 16.5074
238 1 -1.1104 12.1236 -2.87987 17.8718
239 1 -1.1104 12.1545 2.55056 17.9519
240 1 -1.1104 12.2469 -2.89085 15.0701
242 1 -1.1104 12.2074 2.65395 15.1272
244 1 -1.1104 12.1579 -0.200882 17.9355
245 2 2.2208 10.7013 -1.51848 19.3636
246 2 2.2208 10.9573 4.03943 19.2715
247 1 -1.1104 12.1506 0.0522247 15.1152
249 1 -1.1104 9.40047 -2.90586 17.8526
250 1 -1.1104 9.41622 2.72003 17.8965
251 2 2.2208 7.93824 1.32399 19.3633
252 1 -1.1104 9.30226 -2.97525 15.1356
254 1 -1.1104 9.34547 2.71559 15.157
256 2 2.2208 7.9709 -1.47843 16.5724
257 2 2.2208 7.96618 4.20741 16.4293
258 1 -1.1104 9.27405 0.0197484 17.9789
259 1 -1.1104 9.38987 -0.205518 15.084
261 2 2.2208 10.8054 6.91827 16.4394
263 1 -1.1104 12.2396 8.33818 15.1054
265 1 -1.1104 12.1885 5.46035 17.9045
266 1 -1.1104 12.2556 5.52421 15.0085
268 1 -1.1104 9.5351 8.21669 17.9387
269 2 2.2208 8.04287 6.9114 19.3873
270 1 -1.1104 9.3671 8.35192 15.2541
272 1 -1.1104 9.31724 5.55148 17.6403
273 1 -1.1104 9.41429 5.58504 14.9526
253 1 -1.1104 9.32326 -2.9559 20.7071
218 1 -1.1104 6.58328 5.50949 20.6876
168 2 2.2208 10.6902 -1.50282 13.6642
193 1 -1.1104 6.52489 -0.171301 20.635
243 1 -1.1104 12.2732 2.60651 20.7101
289 1 -1.1104 6.55675 2.77963 23.4664
299 1 -1.1104 6.68044 -0.128028 26.2938
9005 2 2.2208 13.6473 4.1503 16.5597
169 2 2.2208 10.7676 4.05318 13.7034
225 1 -1.1104 3.75743 5.43003 20.6451
210 1 -1.1104 1.11354 8.3131 20.5874
200 1 -1.1104 3.79607 2.65016 20.5109
181 1 -1.1104 1.03498 2.50047 20.7816
159 2 2.2208 5.0777 -1.5465 13.6138
325 1 -1.1104 12.1378 8.18731 23.436
235 1 -1.1104 12.2545 -2.9563 26.3241
313 1 -1.1104 6.52452 8.32854 26.2797
179 1 -1.1104 0.986961 -3.03935 20.7518
312 1 -1.1104 1.02725 8.30543 26.1732
285 2 2.2208 5.16504 1.2943 22.0551
286 1 -1.1104 1.02187 -2.86137 23.6813
287 1 -1.1104 1.06563 2.72425 23.6891
290 1 -1.1104 0.998535 -2.98726 26.2623
291 1 -1.1104 1.14655 2.88594 26.341
294 1 -1.1104 1.12286 -0.142496 23.5271
296 2 2.2208 5.20774 -1.60445 25.0189
297 2 2.2208 5.25353 4.13391 24.7973
298 1 -1.1104 1.11439 -0.131559 26.4179
300 1 -1.1104 3.77174 -2.87156 23.7792
301 1 -1.1104 3.84467 2.66586 23.2603
302 2 2.2208 2.42894 1.26087 24.9725
303 1 -1.1104 3.75353 -3.02832 26.3711
304 1 -1.1104 3.94534 2.64847 26.2883
305 2 2.2208 2.3563 -1.57209 22.1278
306 2 2.2208 2.35571 4.04353 22.0317
307 1 -1.1104 3.83379 -0.0721176 23.5458
308 1 -1.1104 3.87209 -0.131625 26.3486
309 2 2.2208 5.13271 6.92158 22.0781
310 1 -1.1104 0.941498 8.22307 23.4377
314 1 -1.1104 1.09339 5.46554 23.5844
316 1 -1.1104 1.05853 5.47334 26.5181
318 1 -1.1104 3.76515 8.32417 23.6386
319 2 2.2208 2.29632 6.77787 24.9145
321 1 -1.1104 3.79452 5.5725 23.3233
322 1 -1.1104 3.91437 5.41873 26.1544
320 1 -1.1104 3.7136 8.25638 26.4127
295 1 -1.1104 6.63458 -0.0217619 23.5216
311 1 -1.1104 6.45311 8.41827 23.4292
315 1 -1.1104 6.68951 5.49056 23.3461
293 1 -1.1104 6.70933 2.46595 26.369
212 1 -1.1104 6.57389 8.2856 20.7645
185 1 -1.1104 6.56507 2.74652 20.7542
288 1 -1.1104 6.60118 -3.06192 23.7228
234 1 -1.1104 12.255 2.56648 26.2835
8610 2 2.2208 5.14673 -4.37507 22.1234
9004 2 2.2208 13.6984 6.85221 19.2871
241 1 -1.1104 12.0385 -2.83399 20.7424
248 1 -1.1104 12.1754 -0.143767 20.6699
255 1 -1.1104 9.46394 2.66326 20.6527
271 1 -1.1104 9.29132 8.40486 20.7167
260 1 -1.1104 9.43323 -0.107743 20.7758
267 1 -1.1104 12.2758 5.40879 20.7145
277 2 2.2208 8.00247 1.31365 24.7773
9002 2 2.2208 13.5111 -1.50526 22.1391
327 1 -1.1104 9.34501 8.17319 23.4498
317 1 -1.1104 6.75219 5.43054 26.2315
292 1 -1.1104 6.51931 -2.93531 26.4291
284 1 -1.1104 9.40974 -0.172174 26.2657
227 2 2.2208 7.9833 4.06868 21.9612
274 1 -1.1104 9.45853 5.52257 20.5831
232 1 -1.1104 9.45832 -2.98932 26.2785
275 1 -1.1104 12.1335 -2.81072 23.5554
8657 2 2.2208 7.98448 -4.45118 24.8998
283 1 -1.1104 9.40246 5.46944 26.1168
236 1 -1.1104 12.213 2.62013 23.5155
279 2 2.2208 10.9355 1.22871 22.0923
323 2 2.2208 10.8154 6.86621 22.0014
328 1 -1.1104 12.2329 5.45638 26.3542
330 1 -1.1104 12.3103 -0.0938501 26.4866
326 1 -1.1104 12.0822 8.43739 26.1916
280 2 2.2208 7.90834 6.89755 24.8116
231 2 2.2208 10.7869 -1.52834 24.9214
331 2 2.2208 10.8032 4.07498 24.775
332 1 -1.1104 12.1888 5.48629 23.4839
228 2 2.2208 7.95179 -1.5623 22.1065
329 1 -1.1104 9.4033 -3.01536 23.3888
281 1 -1.1104 9.38431 8.20284 26.2508
226 1 -1.1104 9.4071 -0.271862 23.485
233 1 -1.1104 12.2754 -0.171418 23.5756
278 1 -1.1104 9.47543 2.74806 23.3701
264 1 -1.1104 12.2707 8.21105 20.6165
230 1 -1.1104 9.44622 2.56033 26.0985
9067 2 2.2208 -0.403492 -1.48395 24.8844
17761 2 2.2208 13.7501 -4.30214 24.9372
9010 2 2.2208 -0.362522 1.27941 22.2352
158 2 2.2208 10.8015 6.92212 27.503
8587 2 2.2208 10.8497 -4.40167 27.7037
160 2 2.2208 2.43784 6.94846 13.6892
333 2 2.2208 5.07498 12.5881 5.1204
334 1 -1.1104 0.970676 11.0855 1.03828
338 2 2.2208 5.19818 9.70992 2.447
339 1 -1.1104 0.89325 11.2539 3.72826
341 2 2.2208 2.44654 12.5319 2.36459
342 2 2.2208 2.35337 9.72526 5.05384
343 1 -1.1104 3.8865 11.2888 0.975374
345 1 -1.1104 3.5948 11.0809 3.76536
346 2 2.2208 5.09495 18.1047 5.16495
347 1 -1.1104 0.995593 13.7992 0.944312
349 1 -1.1104 1.05385 19.5853 1.17958
353 1 -1.1104 0.967047 14.012 3.84186
354 1 -1.1104 1.12092 19.5389 3.93665
356 1 -1.1104 1.05313 16.7623 1.20984
359 2 2.2208 5.13434 15.3433 2.37607
360 2 2.2208 5.26738 21.0038 2.36107
361 1 -1.1104 0.991107 16.7714 3.87046
363 1 -1.1104 3.77604 14.0105 1.10134
365 1 -1.1104 3.86877 19.4693 1.07708
367 2 2.2208 2.51672 18.1865 2.41781
368 1 -1.1104 3.6908 13.9114 3.80433
369 1 -1.1104 3.91414 19.5327 3.8221
370 2 2.2208 2.3959 15.3556 5.22363
371 2 2.2208 2.48706 21.0494 5.20338
372 1 -1.1104 3.79165 16.7812 0.946531
374 1 -1.1104 3.72878 16.7674 3.90606
502 2 2.2208 -0.455268 18.158 -0.182072
344 1 -1.1104 3.82145 11.0972 6.48512
375 2 2.2208 -0.411047 15.316 2.44889
9177 2 2.2208 13.6531 15.2857 5.30448
492 2 2.2208 5.25471 18.1283 -0.261719
501 2 2.2208 -0.373909 12.5728 -0.375602
475 2 2.2208 7.97263 12.5448 8.09273
340 1 -1.1104 6.41302 11.23 3.69777
362 1 -1.1104 6.51879 16.8175 3.79274
357 1 -1.1104 1.10025 16.673 6.69332
366 1 -1.1104 3.84716 19.5037 6.67433
499 2 2.2208 2.43627 9.7527 -0.294788
406 1 -1.1104 9.49993 13.9202 6.54197
422 1 -1.1104 6.60109 16.6807 9.70346
454 1 -1.1104 12.192 11.0784 12.2441
392 1 -1.1104 6.61891 16.7273 1.01329
337 1 -1.1104 6.71259 11.2058 6.59696
493 2 2.2208 7.97638 15.3109 -0.484272
336 1 -1.1104 6.72207 11.1067 1.02062
350 1 -1.1104 6.64358 14.0026 0.917898
391 1 -1.1104 6.53059 19.6285 3.91226
390 1 -1.1104 6.62539 19.6829 1.13522
355 1 -1.1104 6.59732 14.1267 3.80274
380 2 2.2208 10.7337 12.5789 5.25666
381 1 -1.1104 12.3113 11.0807 0.997697
383 2 2.2208 10.8048 9.69683 2.38167
384 1 -1.1104 12.1893 11.1932 3.73828
385 2 2.2208 7.99595 12.6496 2.40008
386 2 2.2208 8.0195 9.817 5.17337
387 1 -1.1104 9.42293 11.0223 1.12627
389 1 -1.1104 9.36354 11.2196 3.78214
393 2 2.2208 10.779 18.2154 5.21592
394 1 -1.1104 12.1906 13.8711 1.09129
396 1 -1.1104 12.2974 19.5479 1.0434
398 1 -1.1104 12.1303 14.0111 3.8385
399 1 -1.1104 12.1208 19.5976 3.77002
400 1 -1.1104 12.2133 16.7314 1.07622
402 2 2.2208 10.9143 15.3308 2.40998
403 2 2.2208 10.7859 21.0031 2.41984
404 1 -1.1104 12.2737 16.7979 3.90852
405 1 -1.1104 9.36529 13.8956 0.993538
407 1 -1.1104 9.30582 19.5515 0.948576
409 2 2.2208 8.00172 18.1409 2.35469
410 1 -1.1104 9.30905 14.0788 3.71995
411 1 -1.1104 9.29533 19.4868 3.92524
412 2 2.2208 8.09062 15.4441 5.23477
413 2 2.2208 7.96676 20.9603 5.28458
414 1 -1.1104 9.52169 16.7488 1.10838
416 1 -1.1104 9.44705 16.7298 3.86487
477 1 -1.1104 12.1803 13.8203 12.2619
455 2 2.2208 10.7655 12.4841 10.9443
470 1 -1.1104 12.2132 16.7699 12.2098
9296 2 2.2208 -0.293519 18.239 5.27194
489 2 2.2208 2.36547 20.9759 -0.314699
496 2 2.2208 10.8617 18.1143 -0.406943
464 1 -1.1104 9.42484 19.3685 12.2538
494 2 2.2208 10.6528 12.4082 -0.328245
373 1 -1.1104 3.7352 16.8437 6.69319
348 1 -1.1104 1.03461 13.8065 6.61207
335 1 -1.1104 1.25072 11.1142 6.52125
352 1 -1.1104 6.70281 19.5763 6.62532
474 2 2.2208 7.91085 9.6689 10.8294
435 1 -1.1104 1.12815 19.6215 6.56127
364 1 -1.1104 3.86221 13.9585 6.58967
419 1 -1.1104 3.73073 19.5647 12.278
420 1 -1.1104 3.70425 13.8818 12.3304
424 1 -1.1104 1.12304 19.6054 9.44758
425 1 -1.1104 0.963734 16.8506 9.41481
426 2 2.2208 5.24077 20.9169 8.06924
427 1 -1.1104 0.994085 13.8413 9.54093
428 2 2.2208 5.21674 15.3629 8.05056
431 1 -1.1104 0.974492 19.4266 12.2304
432 1 -1.1104 0.852082 13.8239 12.2634
433 2 2.2208 5.19129 18.1413 10.9441
434 1 -1.1104 3.92753 19.4621 9.45368
436 2 2.2208 2.48157 18.1513 8.06803
437 1 -1.1104 3.72856 16.6383 9.47597
438 1 -1.1104 3.80446 13.8779 9.42355
440 1 -1.1104 0.962967 16.7714 12.2186
441 1 -1.1104 3.7522 16.6852 12.231
442 2 2.2208 2.54396 20.8907 10.782
443 2 2.2208 5.20282 12.527 10.8055
444 1 -1.1104 1.05568 11.0299 12.2026
446 2 2.2208 2.37308 15.2579 10.8169
447 2 2.2208 5.25163 9.78418 7.89206
448 1 -1.1104 1.02781 11.0968 9.39031
450 2 2.2208 2.45248 12.4197 8.00989
451 2 2.2208 2.42672 9.65184 10.8337
452 1 -1.1104 3.97952 11.0686 12.2595
453 1 -1.1104 3.88358 11.0133 9.34938
421 1 -1.1104 6.63089 19.4338 9.25806
445 1 -1.1104 6.73403 11.1808 12.3351
449 1 -1.1104 6.59116 11.0611 9.53219
378 2 2.2208 -0.419712 20.9853 2.51985
9294 2 2.2208 13.4936 15.2276 10.7971
418 2 2.2208 13.6648 12.4806 2.50257
468 1 -1.1104 9.44637 11.2172 9.45995
401 1 -1.1104 12.2764 16.8761 6.68907
463 2 2.2208 7.99294 18.0844 8.06355
473 1 -1.1104 12.1665 13.9133 9.45276
395 1 -1.1104 12.1783 13.9803 6.70367
382 1 -1.1104 12.2011 11.009 6.72055
358 1 -1.1104 6.59021 16.692 6.67083
415 1 -1.1104 9.43288 16.6864 6.58959
388 1 -1.1104 9.40629 11.1667 6.61806
462 1 -1.1104 9.28295 13.9338 9.41435
461 1 -1.1104 9.39226 19.5803 9.4581
456 2 2.2208 10.8248 18.167 10.891
423 1 -1.1104 6.56961 13.7852 9.35446
408 1 -1.1104 9.42264 19.5157 6.67061
397 1 -1.1104 12.0557 19.6623 6.59356
467 2 2.2208 10.7591 20.9699 8.08577
460 2 2.2208 8.07165 15.2013 11.0023
459 2 2.2208 7.9605 20.803 10.9143
472 1 -1.1104 12.1847 19.5018 9.52922
458 1 -1.1104 9.36534 16.6355 12.2667
465 1 -1.1104 9.35372 13.8836 12.2378
377 1 -1.1104 12.3195 11.1435 9.58967
469 2 2.2208 10.8281 15.3557 8.01635
351 1 -1.1104 6.64807 13.8496 6.59759
429 1 -1.1104 6.5683 19.4663 12.3416
439 1 -1.1104 6.51958 16.6764 12.4733
430 1 -1.1104 6.48213 13.9948 12.1299
379 2 2.2208 10.7328 9.67627 8.14715
457 1 -1.1104 9.37806 16.8272 9.44677
476 1 -1.1104 12.2318 19.5436 12.3064
471 1 -1.1104 9.51278 10.9637 12.2242
466 1 -1.1104 12.2014 16.7937 9.48071
495 2 2.2208 7.9476 9.66575 -0.447798
417 2 2.2208 13.6585 18.0539 2.53924
9246 2 2.2208 13.4904 12.4757 8.07814
484 2 2.2208 10.7892 15.2547 13.6575
488 2 2.2208 8.06683 12.4017 13.6867
497 2 2.2208 8.02117 21.0083 -0.27502
9301 2 2.2208 13.6688 17.978 13.5347
503 2 2.2208 5.2209 12.6079 16.4302
504 1 -1.1104 1.02731 11.1531 17.8607
506 2 2.2208 5.30338 9.76505 19.3219
507 1 -1.1104 1.00298 11.0941 14.975
511 2 2.2208 2.44056 12.4883 19.2379
512 2 2.2208 2.51288 9.6743 16.5256
513 1 -1.1104 3.91373 11.2227 17.9106
514 1 -1.1104 3.80475 11.1391 15.0712
516 2 2.2208 5.05729 18.0666 16.4874
517 1 -1.1104 0.877966 13.9012 17.8361
518 1 -1.1104 1.0551 19.4242 17.884
521 1 -1.1104 1.12888 13.9408 14.9643
523 1 -1.1104 0.9986 19.5539 15.164
529 1 -1.1104 0.975709 16.7081 17.9081
531 2 2.2208 5.20222 15.3457 19.2343
532 2 2.2208 5.24061 20.8136 19.3594
533 1 -1.1104 0.821969 16.7655 15.1107
537 1 -1.1104 3.73577 13.9003 17.9405
538 1 -1.1104 3.78289 19.4346 18.0685
539 2 2.2208 2.31075 18.0722 19.3343
540 1 -1.1104 3.79553 13.8835 14.9982
542 1 -1.1104 3.77585 19.5133 15.2887
544 2 2.2208 2.25817 15.3874 16.4664
545 2 2.2208 2.33019 20.9104 16.4581
546 1 -1.1104 3.70809 16.7117 17.7434
547 1 -1.1104 3.63885 16.5985 15.06
638 2 2.2208 -0.318908 12.5726 22.0565
480 2 2.2208 5.2168 9.73708 13.7406
481 2 2.2208 2.32722 12.4587 13.6657
522 1 -1.1104 0.872704 13.9754 20.6853
530 1 -1.1104 6.58918 16.7235 17.8323
505 1 -1.1104 6.66008 11.254 17.9964
527 1 -1.1104 6.687 19.4601 15.158
509 1 -1.1104 6.53108 11.0313 15.1155
525 1 -1.1104 6.62503 13.899 15.1041
482 2 2.2208 5.07508 15.1987 13.6186
9422 2 2.2208 -0.403356 18.1085 16.5567
520 1 -1.1104 6.62495 19.6143 17.9392
589 2 2.2208 13.7055 18.1196 19.3045
654 1 -1.1104 12.3077 19.4305 26.3032
519 1 -1.1104 6.5063 13.9701 17.8423
535 1 -1.1104 6.41071 16.6401 15.1526
554 2 2.2208 10.7115 12.5503 16.5299
555 1 -1.1104 12.3663 11.1305 17.9335
556 2 2.2208 10.88 9.69142 19.2623
557 1 -1.1104 12.0915 11.1626 15.0145
559 2 2.2208 7.99999 12.6271 19.3793
560 2 2.2208 8.0127 9.62586 16.5167
561 1 -1.1104 9.55137 11.0301 17.8081
562 1 -1.1104 9.3178 10.9127 15.0299
564 2 2.2208 10.883 18.1019 16.4532
565 1 -1.1104 12.0251 13.9496 17.8818
566 1 -1.1104 12.1872 19.4214 17.8482
567 1 -1.1104 12.0857 13.9341 15.1115
569 1 -1.1104 12.2892 19.3852 14.9865
571 1 -1.1104 12.2158 16.6504 17.892
572 2 2.2208 10.8187 15.2374 19.2688
573 2 2.2208 10.6465 21.0387 19.2865
574 1 -1.1104 12.2014 16.6932 14.9871
576 1 -1.1104 9.27381 13.9693 17.9452
577 1 -1.1104 9.49843 19.5722 17.8133
578 2 2.2208 7.96073 18.0332 19.2872
579 1 -1.1104 9.35148 13.7062 15.0495
581 1 -1.1104 9.55518 19.5028 15.0986
583 2 2.2208 8.03232 15.2768 16.4428
584 2 2.2208 8.02025 20.8946 16.4819
585 1 -1.1104 9.4773 16.813 17.8162
586 1 -1.1104 9.36113 16.6333 15.1183
485 2 2.2208 7.96625 18.0333 13.7547
558 1 -1.1104 12.1198 11.0793 20.8072
655 1 -1.1104 12.1517 13.8841 26.3325
640 1 -1.1104 9.45194 16.7665 23.4455
487 2 2.2208 10.894 9.64618 13.661
483 2 2.2208 10.8753 20.9098 13.6818
568 1 -1.1104 12.2309 13.8154 20.6555
508 1 -1.1104 1.07029 11.0166 20.7259
515 1 -1.1104 3.90242 11.1377 20.6917
524 1 -1.1104 0.965275 19.5749 20.6605
548 1 -1.1104 3.9054 16.5811 20.6312
541 1 -1.1104 3.77705 13.9146 20.7898
543 1 -1.1104 3.68724 19.5141 20.7681
534 1 -1.1104 1.0969 16.5863 20.6432
594 1 -1.1104 3.86623 19.7871 23.4018
596 1 -1.1104 3.8482 13.9867 23.61
598 1 -1.1104 0.877576 19.5175 26.4135
599 1 -1.1104 1.09306 16.8202 26.4669
600 1 -1.1104 1.05642 13.7281 26.2242
602 2 2.2208 5.29724 20.96 24.9333
603 2 2.2208 5.18342 15.3475 24.9203
605 1 -1.1104 0.833377 19.5844 23.5249
606 1 -1.1104 1.14903 14.0367 23.4818
607 2 2.2208 5.15154 18.1659 22.0834
608 1 -1.1104 3.98028 19.5483 26.296
609 2 2.2208 2.4144 18.1912 24.9843
610 1 -1.1104 3.88457 16.8106 26.354
611 1 -1.1104 3.88131 13.9858 26.3946
613 1 -1.1104 0.954904 16.8428 23.4719
614 1 -1.1104 3.82839 16.8651 23.6305
615 2 2.2208 2.35 20.9047 22.0876
616 2 2.2208 5.20605 12.5512 22.1104
617 1 -1.1104 0.975135 11.1303 23.5609
619 2 2.2208 2.42002 15.4068 22.0685
620 2 2.2208 5.13103 9.70796 24.9622
621 1 -1.1104 1.0399 11.0579 26.3215
623 2 2.2208 2.48287 12.4926 24.9383
624 2 2.2208 2.50174 9.64144 22.098
625 1 -1.1104 3.84369 11.1971 23.6535
626 1 -1.1104 3.86083 11.0207 26.3568
526 1 -1.1104 6.72445 13.9261 20.6522
510 1 -1.1104 6.55562 11.0861 20.6893
604 1 -1.1104 6.65051 14.0519 23.483
645 1 -1.1104 6.68587 19.532 26.3966
618 1 -1.1104 6.6847 11.2814 23.4129
649 1 -1.1104 12.1248 16.6778 26.2779
593 2 2.2208 13.5659 12.5586 24.9719
591 2 2.2208 13.6737 15.3275 22.2294
592 2 2.2208 13.6281 18.1168 24.6955
563 1 -1.1104 9.32421 11.2436 20.6968
629 2 2.2208 10.7513 9.72051 24.8094
648 1 -1.1104 9.47342 13.8182 23.4873
632 2 2.2208 10.7733 18.1824 21.892
595 1 -1.1104 6.66382 13.8088 26.1804
628 1 -1.1104 12.1107 11.0969 26.3062
650 1 -1.1104 9.30238 11.0166 26.3359
622 1 -1.1104 6.64554 10.9508 26.1324
639 1 -1.1104 9.38066 16.6573 26.2584
656 1 -1.1104 9.22385 10.9667 23.5811
630 1 -1.1104 12.0922 11.0831 23.5853
570 1 -1.1104 12.1377 19.6527 20.5753
582 1 -1.1104 9.28856 19.5656 20.6244
536 1 -1.1104 6.65984 16.7764 20.6764
651 2 2.2208 10.842 20.9246 24.8293
634 1 -1.1104 12.338 13.953 23.544
644 1 -1.1104 9.44787 13.8003 26.3232
528 1 -1.1104 6.61037 19.4961 20.7253
643 1 -1.1104 9.56904 19.5043 26.2808
641 2 2.2208 7.99979 21.0011 22.1064
659 1 -1.1104 12.0624 19.5453 23.331
631 2 2.2208 10.8653 12.5586 22.0802
646 2 2.2208 7.96453 18.153 24.9303
657 2 2.2208 7.99948 9.80055 22.0129
653 1 -1.1104 12.1988 16.8006 23.4318
658 2 2.2208 8.0025 12.4456 24.8808
601 1 -1.1104 6.64377 19.5761 23.6043
597 1 -1.1104 6.6192 16.7677 26.2802
612 1 -1.1104 6.65693 16.8662 23.3908
580 1 -1.1104 9.38746 13.9059 20.6833
587 1 -1.1104 9.28664 16.6941 20.6347
575 1 -1.1104 12.2015 16.6807 20.7366
642 2 2.2208 8.02922 15.3475 22.1328
652 2 2.2208 10.8042 15.342 24.9065
647 1 -1.1104 9.32624 19.6381 23.3497
9360 2 2.2208 13.6767 9.64743 16.6149
588 2 2.2208 13.5821 12.5879 19.3778
590 2 2.2208 13.5921 15.3126 16.4962
636 2 2.2208 -0.512826 18.092 22.1011
9315 2 2.2208 -0.361039 9.70989 13.7228
9363 2 2.2208 13.6244 20.8274 16.4167
627 2 2.2208 13.7153 20.9274 22.0296
500 2 2.2208 5.32342 12.505 27.694
498 2 2.2208 2.34558 15.327 27.6922
490 2 2.2208 13.5831 15.3119 27.7154
479 2 2.2208 5.26491 20.8734 13.7453
478 2 2.2208 2.4153 18.12 13.7862
660 2 2.2208 5.2948 23.9225 5.24295
661 2 2.2208 5.36157 29.4321 5.34025
662 1 -1.1104 1.07828 25.1339 1.0716
663 1 -1.1104 0.998091 25.0807 3.96146
664 1 -1.1104 1.05369 22.3943 1.13256
665 1 -1.1104 1.10274 27.9657 1.07279
666 2 2.2208 5.34418 26.5673 2.44526
667 1 -1.1104 0.854813 22.3086 3.82785
668 1 -1.1104 1.09764 27.8628 3.74005
669 1 -1.1104 3.76 25.1925 1.18435
670 2 2.2208 2.33477 23.7779 2.57804
671 2 2.2208 2.45701 29.2346 2.38559
672 1 -1.1104 3.85981 25.1271 3.91861
673 2 2.2208 2.44564 26.5523 5.24826
674 1 -1.1104 3.84216 22.3734 1.08452
675 1 -1.1104 3.9133 27.8589 1.16168
676 1 -1.1104 3.71673 22.3342 3.8428
677 1 -1.1104 3.77423 27.9007 3.84657
678 1 -1.1104 1.1712 30.6749 0.929934
679 1 -1.1104 1.19792 30.6748 3.67136
680 1 -1.1104 1.08515 33.6045 1.04544
681 2 2.2208 5.44859 32.1093 2.34434
682 1 -1.1104 1.06565 33.4694 3.83343
684 1 -1.1104 3.96309 30.7278 1.01154
685 1 -1.1104 4.05227 30.5956 3.81101
686 2 2.2208 2.51697 32.0387 5.25124
687 1 -1.1104 3.89188 33.5429 1.09436
688 1 -1.1104 3.95091 33.448 3.72478
820 2 2.2208 13.6236 26.4561 -0.35447
683 1 -1.1104 6.7979 33.4282 3.62122
718 1 -1.1104 6.84016 30.7321 3.82519
821 2 2.2208 -0.369018 23.6433 -0.283213
733 1 -1.1104 0.960514 25.0708 6.75804
696 1 -1.1104 6.7198 27.9094 0.87677
717 1 -1.1104 6.72736 30.6861 0.9316
698 1 -1.1104 6.6581 27.9526 3.79842
735 1 -1.1104 1.07358 22.4601 6.60905
740 1 -1.1104 3.7335 22.4574 6.62622
745 1 -1.1104 6.82341 33.5756 6.72575
9640 2 2.2208 13.7486 29.5066 13.5829
9631 2 2.2208 -0.303549 29.3209 10.6976
694 1 -1.1104 6.69197 25.1819 3.97601
695 1 -1.1104 6.63202 22.4406 1.10405
719 1 -1.1104 6.70487 33.5876 0.996854
693 1 -1.1104 6.53858 25.1997 1.06381
697 1 -1.1104 6.70491 22.4553 3.90753
699 2 2.2208 10.8311 23.7427 5.36315
700 2 2.2208 10.9387 29.3028 5.37777
701 1 -1.1104 12.2061 25.1908 0.954406
702 1 -1.1104 12.1716 25.088 4.10566
703 1 -1.1104 12.2009 22.3756 1.12601
704 1 -1.1104 12.2784 27.948 1.00377
705 2 2.2208 10.8544 26.5647 2.40602
706 1 -1.1104 12.1871 22.4168 3.96682
707 1 -1.1104 12.2845 27.7981 3.9647
708 1 -1.1104 9.4764 25.1061 0.997732
709 2 2.2208 8.09737 23.7177 2.52217
710 2 2.2208 8.05793 29.3253 2.37551
711 1 -1.1104 9.58862 25.2272 3.77643
712 2 2.2208 8.02945 26.6517 5.32804
713 1 -1.1104 9.42546 22.3661 1.0843
714 1 -1.1104 9.45249 28.019 0.786992
715 1 -1.1104 9.45909 22.3086 3.75529
716 1 -1.1104 9.55786 28.012 3.78182
720 1 -1.1104 12.2235 30.5691 1.07699
721 1 -1.1104 12.3365 30.6895 4.03364
722 1 -1.1104 12.3309 33.3674 1.07094
723 2 2.2208 10.768 32.0667 2.43195
724 1 -1.1104 12.2102 33.5873 3.90507
725 1 -1.1104 9.44658 30.7955 1.07277
726 1 -1.1104 9.59412 30.6831 3.8973
727 2 2.2208 8.22544 32.1502 5.26157
728 1 -1.1104 9.43214 33.4442 1.08697
729 1 -1.1104 9.44811 33.4765 3.90134
9632 2 2.2208 -0.358443 26.4093 8.12088
9634 2 2.2208 -0.424435 26.5032 2.48731
737 1 -1.1104 6.5854 22.5006 6.71848
793 1 -1.1104 12.443 33.4535 6.72917
795 1 -1.1104 9.74849 33.5144 6.65801
9573 2 2.2208 13.7536 26.5848 11.0039
919 2 2.2208 8.01594 23.6044 13.6199
743 1 -1.1104 6.78447 30.8596 6.68972
753 1 -1.1104 6.76462 25.1334 9.39584
746 1 -1.1104 3.92737 30.856 6.53899
739 1 -1.1104 3.80509 25.2291 6.70368
9635 2 2.2208 -0.485046 23.6384 5.27043
741 1 -1.1104 3.88308 28.082 6.64678
742 1 -1.1104 0.984466 30.7442 6.57923
747 1 -1.1104 3.89241 33.6147 6.56771
744 1 -1.1104 1.11484 33.4091 6.63162
736 1 -1.1104 1.04764 27.8464 6.65382
748 2 2.2208 5.39454 23.7773 10.8674
749 2 2.2208 5.28632 29.3558 10.8838
750 1 -1.1104 1.11678 25.1289 12.1131
752 1 -1.1104 1.04877 25.1085 9.46712
754 1 -1.1104 1.22992 22.3227 11.9788
755 1 -1.1104 1.13228 27.9861 12.2906
758 2 2.2208 5.34881 26.6309 8.08307
759 1 -1.1104 1.02964 22.3884 9.36809
760 1 -1.1104 1.13799 27.7682 9.41509
763 1 -1.1104 3.95193 25.1035 12.2014
764 2 2.2208 2.46945 23.7842 8.07535
765 2 2.2208 2.53552 29.3596 7.87913