ITEM: TIMESTEP
10000
ITEM: NUMBER OF ATOMS
17910
ITEM: BOX BOUNDS pp pp pp
-3.5725578555421306e-01 2.7697255785554148e+01
-4.3390198902475507e+00 3.3241901989024853e+02
-3.5442703170525330e-01 2.7694427031705334e+01
ITEM: ATOMS id type q x y z
1 2 2.2208 5.26807 1.30044 5.12374
2 1 -1.1104 0.983802 -3.0598 0.852216
3 1 -1.1104 1.03817 2.65999 0.78719
6 1 -1.1104 1.02931 -2.98709 3.76028
7 1 -1.1104 1.02823 2.74156 3.73172
10 1 -1.1104 1.05653 -0.175266 0.87922
12 2 2.2208 5.08331 -1.47322 2.16629
13 2 2.2208 5.19167 4.20755 2.27716
14 1 -1.1104 0.984763 0.067124 3.52686
16 1 -1.1104 3.72953 -2.89923 0.923527
17 1 -1.1104 3.7384 2.77186 0.912405
18 2 2.2208 2.42921 1.32663 2.21517
19 1 -1.1104 3.70895 -3.00914 3.74684
20 1 -1.1104 3.84816 2.79958 3.68402
21 2 2.2208 2.42901 -1.57772 5.07035
22 2 2.2208 2.56739 4.11699 5.17258
23 1 -1.1104 3.81338 -0.0924296 0.909311
24 1 -1.1104 3.71092 -0.0883122 3.74109
25 2 2.2208 5.22463 6.97285 5.18046
26 1 -1.1104 1.15987 8.39529 1.01192
28 1 -1.1104 0.947132 8.2769 3.75133
30 1 -1.1104 1.05657 5.52766 0.860235
32 1 -1.1104 1.01839 5.38265 3.81861
34 1 -1.1104 3.93252 8.40798 0.873785
35 2 2.2208 2.42921 6.94918 2.29177
36 1 -1.1104 3.92213 8.30768 3.72668
37 1 -1.1104 3.91017 5.75013 0.798949
38 1 -1.1104 3.70959 5.40915 3.47105
11 1 -1.1104 6.54378 -0.0400125 0.97251
87 1 -1.1104 3.76904 2.78084 6.54562
8 1 -1.1104 6.58659 -2.88265 3.55328
15 1 -1.1104 6.62652 -0.0775544 3.82313
86 1 -1.1104 3.68727 -2.85086 6.55196
81 1 -1.1104 1.01887 2.66459 6.36665
166 2 2.2208 8.18135 6.95168 13.5213
8574 2 2.2208 2.27592 -4.39925 2.35743
9 1 -1.1104 6.71442 2.81818 3.64328
5 1 -1.1104 6.46582 2.83409 0.746309
93 1 -1.1104 3.85421 8.43154 6.54791
94 1 -1.1104 3.88795 5.55228 6.45659
80 1 -1.1104 0.931356 -2.81457 6.50969
84 1 -1.1104 1.06168 -0.180998 6.3262
92 1 -1.1104 6.59269 5.62804 6.62406
89 1 -1.1104 1.02287 8.35571 6.4897
91 1 -1.1104 1.12304 5.61856 6.59378
88 1 -1.1104 3.90666 -0.0677476 6.48984
8840 2 2.2208 -0.410916 4.12173 7.85717
90 1 -1.1104 6.67508 8.4107 6.39706
168 2 2.2208 10.8733 -1.51315 13.5334
8800 2 2.2208 -0.574314 1.2577 10.5913
137 1 -1.1104 12.0427 -0.0173235 12.068
138 1 -1.1104 9.46039 2.86085 9.33267
27 1 -1.1104 6.70505 8.50469 0.935612
29 1 -1.1104 6.65391 8.3141 3.59167
33 1 -1.1104 6.42845 5.52344 3.75388
4 1 -1.1104 6.65291 -2.88911 0.74013
31 1 -1.1104 6.71979 5.54791 0.930439
46 2 2.2208 10.8749 1.27911 5.11726
47 1 -1.1104 12.1822 -2.98566 0.909317
48 1 -1.1104 12.0642 2.78972 0.951614
49 1 -1.1104 12.2166 -2.77876 3.72727
50 1 -1.1104 12.2592 2.76162 3.66963
51 1 -1.1104 12.2752 -0.030757 0.939233
52 2 2.2208 10.7555 -1.46271 2.20122
53 2 2.2208 10.7812 4.14507 2.37671
54 1 -1.1104 12.1465 0.0235523 3.69582
55 1 -1.1104 9.41918 -2.87135 0.976237
56 1 -1.1104 9.36904 2.72118 1.03028
57 2 2.2208 8.00721 1.27445 2.304
58 1 -1.1104 9.35964 -2.89769 3.57999
59 1 -1.1104 9.54346 2.72315 3.85121
60 2 2.2208 8.00743 -1.48558 4.9839
61 2 2.2208 7.93343 4.31592 5.12694
62 1 -1.1104 9.45328 -0.0604994 0.88804
63 1 -1.1104 9.43539 -0.0320363 3.58072
64 2 2.2208 10.8642 6.98734 5.07593
65 1 -1.1104 12.216 8.40988 0.824916
66 1 -1.1104 12.2262 8.42441 3.82072
67 1 -1.1104 12.2661 5.67878 0.946102
68 1 -1.1104 12.2503 5.69443 3.77586
69 1 -1.1104 9.43972 8.48619 0.97756
70 2 2.2208 8.03663 6.93033 2.34675
71 1 -1.1104 9.50823 8.37233 3.62823
72 1 -1.1104 9.51091 5.54965 1.01013
73 1 -1.1104 9.43602 5.63208 3.7416
149 1 -1.1104 9.51433 5.54112 6.45489
140 1 -1.1104 12.3334 2.6057 6.30374
146 1 -1.1104 12.3111 5.51959 6.56828
139 1 -1.1104 12.2807 -3.01927 6.58643
144 1 -1.1104 9.56191 -0.159619 6.35943
135 2 2.2208 7.93338 -1.3795 10.6935
83 1 -1.1104 6.53129 2.97875 6.39573
85 1 -1.1104 6.75752 -0.115176 6.60232
8577 2 2.2208 10.7904 -4.38553 5.12237
8882 2 2.2208 13.6765 -1.43706 4.94182
147 1 -1.1104 9.4653 8.35241 6.48347
145 1 -1.1104 12.1767 8.32022 6.44509
142 1 -1.1104 9.3671 -2.8725 6.36233
143 1 -1.1104 9.48416 2.87691 6.59399
141 1 -1.1104 12.337 -0.202406 6.37342
8576 2 2.2208 8.04866 -4.39983 2.27221
148 1 -1.1104 9.29805 5.76507 9.36371
82 1 -1.1104 6.5267 -2.77779 6.35369
95 2 2.2208 5.089 1.27564 10.7832
96 1 -1.1104 0.929541 -3.03675 11.9084
97 1 -1.1104 0.98151 2.65495 11.9498
100 1 -1.1104 0.848455 -2.99846 9.11602
101 1 -1.1104 0.876495 2.66942 9.21859
104 1 -1.1104 0.861502 -0.140375 11.9587
106 2 2.2208 5.20324 -1.53571 7.93562
107 2 2.2208 5.2058 4.03367 8.02396
108 1 -1.1104 0.788946 -0.145676 9.10772
110 1 -1.1104 3.63884 -2.90249 12.1699
111 1 -1.1104 3.81599 2.72307 12.1375
112 2 2.2208 2.30239 1.39718 7.82118
113 1 -1.1104 3.89143 -2.92704 9.35245
114 1 -1.1104 3.66094 2.85035 9.31116
115 2 2.2208 2.31825 -1.57 10.5492
116 2 2.2208 2.40382 4.19551 10.748
117 1 -1.1104 3.74061 -0.0900898 12.2413
118 1 -1.1104 3.63707 -0.15985 9.32907
119 2 2.2208 5.19195 6.89597 10.7516
120 1 -1.1104 1.07255 8.35785 12.106
122 1 -1.1104 1.04365 8.42275 9.44379
124 1 -1.1104 0.998769 5.49729 12.1623
126 1 -1.1104 0.957267 5.64449 9.32595
128 1 -1.1104 3.9252 8.23139 12.0089
129 2 2.2208 2.40837 6.98425 7.99874
130 1 -1.1104 3.87913 8.40095 9.24873
131 1 -1.1104 3.75894 5.48191 12.1282
132 1 -1.1104 3.9334 5.50501 9.29398
125 1 -1.1104 6.75147 5.55182 12.2125
103 1 -1.1104 6.52552 2.63218 9.36521
98 1 -1.1104 6.67085 -2.87688 12.0818
105 1 -1.1104 6.42863 -0.0227289 12.3021
121 1 -1.1104 6.59165 8.29109 12.1087
8905 2 2.2208 -0.285359 7.03634 10.8268
159 2 2.2208 5.16784 -1.53218 13.6125
8586 2 2.2208 2.29267 -4.23443 13.4558
161 2 2.2208 2.30944 1.18833 13.5065
160 2 2.2208 2.44183 6.85517 13.592
162 2 2.2208 5.23899 4.08178 13.5525
157 1 -1.1104 12.3238 2.62417 9.32402
150 1 -1.1104 9.58732 5.5593 12.0946
169 2 2.2208 10.8881 4.16254 13.4877
8572 2 2.2208 10.6938 -4.34507 10.758
8957 2 2.2208 13.6863 -4.29505 13.6204
154 1 -1.1104 12.3245 -2.72353 12.2353
151 1 -1.1104 9.67935 8.49402 9.35873
8573 2 2.2208 8.02035 -4.31608 7.88604
8941 2 2.2208 13.5689 -1.38962 10.5525
152 2 2.2208 8.02971 6.91806 7.81876
17713 2 2.2208 13.5786 -4.30193 7.90576
167 2 2.2208 8.03617 1.29084 13.5602
123 1 -1.1104 6.78334 8.20313 9.33808
99 1 -1.1104 6.67086 2.77154 12.1232
109 1 -1.1104 6.60149 0.0113538 9.41977
127 1 -1.1104 6.67306 5.44191 9.2741
102 1 -1.1104 6.65423 -2.87621 9.31797
153 2 2.2208 10.7269 1.2516 10.6232
156 1 -1.1104 12.2477 -2.80463 9.38275
42 1 -1.1104 12.2128 5.47122 9.2573
41 1 -1.1104 9.54134 8.33984 12.0458
40 2 2.2208 8.05371 1.46997 7.83484
39 1 -1.1104 9.38933 -2.73111 9.17642
155 1 -1.1104 12.1581 2.72957 12.1064
45 1 -1.1104 12.2722 5.41416 12.1551
136 2 2.2208 10.7957 -1.48706 7.75708
44 1 -1.1104 9.45114 -2.81953 12.075
79 1 -1.1104 9.31382 -0.0240607 9.2387
43 1 -1.1104 9.4751 2.7534 12.059
78 2 2.2208 10.8129 4.19451 7.95168
74 1 -1.1104 12.5316 8.2934 9.27194
77 1 -1.1104 12.066 -0.0559961 9.30102
76 2 2.2208 11.0013 7.0111 10.6735
75 1 -1.1104 12.3433 8.23357 12.0455
134 2 2.2208 8.02837 4.19571 10.8362
133 1 -1.1104 9.31329 -0.0304831 12.2368
8883 2 2.2208 13.5948 1.3689 2.31821
8799 2 2.2208 13.7589 4.27321 5.07627
8955 2 2.2208 -0.271857 4.08778 13.4323
8579 2 2.2208 5.16959 -4.3236 10.819
8939 2 2.2208 13.6093 1.29007 7.85695
8946 2 2.2208 13.6827 6.91162 13.4502
8578 2 2.2208 2.41391 -4.36219 7.89027
173 2 2.2208 5.31231 1.32581 16.3508
174 1 -1.1104 0.9123 -3.06155 17.6736
175 1 -1.1104 0.989962 2.60614 17.5239
178 1 -1.1104 0.834454 -2.95625 14.8116
180 1 -1.1104 1.08234 2.75079 14.893
186 1 -1.1104 0.927595 -0.247373 17.7936
188 2 2.2208 5.22223 -1.63053 19.0669
189 2 2.2208 5.31088 4.11064 19.1841
190 1 -1.1104 0.901378 -0.244089 14.8577
194 1 -1.1104 3.79039 -2.99965 17.7613
195 1 -1.1104 3.75686 2.6038 17.6605
196 2 2.2208 2.38122 1.24543 19.0677
197 1 -1.1104 3.74372 -2.81539 14.9998
199 1 -1.1104 3.90553 2.77695 14.8927
201 2 2.2208 2.26587 -1.51269 16.251
202 2 2.2208 2.31725 4.11456 16.2222
203 1 -1.1104 3.58934 -0.227763 17.794
204 1 -1.1104 3.72143 -0.0672511 14.9894
206 2 2.2208 5.18784 6.98698 16.3256
207 1 -1.1104 1.0239 8.39758 17.6415
209 1 -1.1104 1.05538 8.55119 14.9162
213 1 -1.1104 1.1852 5.52664 17.6374
215 1 -1.1104 1.01009 5.74161 14.9248
219 1 -1.1104 3.88935 8.38054 17.6722
220 2 2.2208 2.56524 6.85819 19.059
221 1 -1.1104 3.73823 8.4491 14.8706
223 1 -1.1104 3.89037 5.48882 17.6515
224 1 -1.1104 3.84991 5.59371 14.8482
181 1 -1.1104 1.02662 2.67272 20.4854
176 1 -1.1104 6.57005 -2.92474 17.7687
182 1 -1.1104 6.66432 -2.92787 14.8663
179 1 -1.1104 0.920532 -3.0552 20.364
210 1 -1.1104 1.08327 8.33419 20.498
200 1 -1.1104 3.97454 2.57663 20.352
217 1 -1.1104 6.67582 5.54213 15.0297
9008 2 2.2208 -0.39785 6.88502 21.883
192 1 -1.1104 6.62648 -0.0650257 15.1131
185 1 -1.1104 6.54706 2.5966 20.558
191 1 -1.1104 1.04801 -0.182266 20.6452
183 1 -1.1104 6.77827 -2.98641 20.6497
198 1 -1.1104 3.8981 -3.06776 20.5456
216 1 -1.1104 1.00467 5.45178 20.3873
225 1 -1.1104 3.96528 5.54636 20.6364
193 1 -1.1104 6.64713 -0.268783 20.5375
8654 2 2.2208 2.42218 -4.47404 19.032
187 1 -1.1104 6.58493 -0.1789 17.9211
208 1 -1.1104 6.61831 8.37298 17.6802
218 1 -1.1104 6.81053 5.51017 20.5311
8653 2 2.2208 8.03481 -4.34124 19.2319
211 1 -1.1104 6.48018 8.41918 14.9275
214 1 -1.1104 6.62972 5.40407 17.7627
184 1 -1.1104 6.58152 2.6804 14.9605
8945 2 2.2208 13.7118 -1.43051 27.6098
177 1 -1.1104 6.62184 2.59886 17.7381
237 2 2.2208 10.8547 1.30825 16.3764
238 1 -1.1104 12.1927 -2.9043 17.8917
239 1 -1.1104 12.3435 2.78436 17.7479
240 1 -1.1104 12.1775 -3.01802 15.0291
242 1 -1.1104 12.0835 2.57232 14.946
244 1 -1.1104 12.1944 -0.0569327 17.8197
245 2 2.2208 10.8192 -1.5767 19.305
246 2 2.2208 10.8502 4.16366 19.1558
247 1 -1.1104 12.3412 -0.130907 14.8849
249 1 -1.1104 9.44611 -2.90171 17.8414
250 1 -1.1104 9.48286 2.7452 17.8145
251 2 2.2208 8.07116 1.19246 19.2468
252 1 -1.1104 9.45442 -2.95796 14.9833
254 1 -1.1104 9.3865 2.68588 15.0568
256 2 2.2208 8.02855 -1.50661 16.4058
257 2 2.2208 8.08974 4.18777 16.3783
258 1 -1.1104 9.40261 -0.0968204 17.8159
259 1 -1.1104 9.47071 -0.159829 15.0154
261 2 2.2208 10.9855 6.97666 16.308
263 1 -1.1104 12.2016 8.3984 14.7624
265 1 -1.1104 12.323 5.67475 17.7832
266 1 -1.1104 12.308 5.45457 14.9108
268 1 -1.1104 9.38086 8.45804 17.7409
269 2 2.2208 8.09878 6.89286 19.1558
270 1 -1.1104 9.50359 8.38034 14.8497
272 1 -1.1104 9.61838 5.63761 17.7336
273 1 -1.1104 9.58036 5.45459 14.9491
253 1 -1.1104 9.39011 -2.97739 20.7154
264 1 -1.1104 12.2464 8.41221 20.3465
248 1 -1.1104 12.1412 0.127502 20.5262
274 1 -1.1104 9.36138 5.44664 20.6526
262 1 -1.1104 12.2595 8.36846 17.5738
267 1 -1.1104 12.239 5.63297 20.5247
165 2 2.2208 10.8087 1.37704 27.6489
212 1 -1.1104 6.8155 8.32536 20.4654
243 1 -1.1104 12.1797 2.77719 20.667
158 2 2.2208 10.7243 7.06776 27.4747
241 1 -1.1104 12.2239 -2.68254 20.7477
260 1 -1.1104 9.39322 -0.167526 20.7496
255 1 -1.1104 9.45783 2.77082 20.602
205 1 -1.1104 3.84839 -0.278655 20.4331
222 1 -1.1104 3.99278 8.42724 20.4341
8600 2 2.2208 2.32961 -4.38825 24.8124
8657 2 2.2208 7.98351 -4.27945 24.7448
171 2 2.2208 2.42313 4.1706 27.5409
172 2 2.2208 5.3121 6.99606 27.4164
8583 2 2.2208 5.1778 -4.23967 27.4558
285 2 2.2208 5.18655 1.12049 21.9265
286 1 -1.1104 0.955158 -3.02519 23.1714
287 1 -1.1104 1.14209 2.77054 23.2875
290 1 -1.1104 0.90597 -2.91071 25.9999
291 1 -1.1104 0.964207 2.8333 26.008
294 1 -1.1104 1.0746 0.0432018 23.4182
296 2 2.2208 5.19591 -1.50861 24.83
297 2 2.2208 5.21416 4.18459 24.6361
298 1 -1.1104 0.864727 -0.0957889 26.2462
300 1 -1.1104 3.70817 -3.07289 23.4099
301 1 -1.1104 3.78076 2.71428 23.2655
302 2 2.2208 2.40288 1.28952 24.8033
303 1 -1.1104 3.79046 -2.88735 26.1501
304 1 -1.1104 3.78446 2.73447 26.261
305 2 2.2208 2.37648 -1.68954 21.8183
306 2 2.2208 2.5359 3.96198 21.9303
307 1 -1.1104 3.8342 -0.224396 23.3944
308 1 -1.1104 3.87864 -0.0923844 26.2157
309 2 2.2208 5.27698 7.05577 21.8892
310 1 -1.1104 1.02975 8.47129 23.2429
312 1 -1.1104 0.965038 8.41675 26.2263
314 1 -1.1104 1.24201 5.56793 23.1099
316 1 -1.1104 1.1343 5.60317 26.1093
318 1 -1.1104 3.76409 8.422 23.3131
319 2 2.2208 2.4406 7.00888 24.614
320 1 -1.1104 3.88821 8.30239 26.1126
321 1 -1.1104 4.07448 5.71562 23.215
322 1 -1.1104 3.86628 5.48782 26.148
292 1 -1.1104 6.72126 -2.98812 25.9643
299 1 -1.1104 6.58842 -0.116966 26.157
311 1 -1.1104 6.55943 8.55831 23.239
8610 2 2.2208 5.17797 -4.31893 21.9468
229 2 2.2208 10.8403 -4.27411 22.0413
293 1 -1.1104 6.64526 2.71042 26.1538
170 2 2.2208 5.22754 1.42672 27.4846
324 2 2.2208 2.39011 -1.62715 27.5887
8587 2 2.2208 10.8256 -4.27204 27.5742
271 1 -1.1104 9.62538 8.34964 20.4356
17761 2 2.2208 13.6396 -4.30069 24.8734
163 2 2.2208 8.04199 4.09746 27.6452
278 1 -1.1104 9.4446 2.74154 23.5161
281 1 -1.1104 9.5122 8.44581 25.957
313 1 -1.1104 6.64091 8.31887 26.1568
288 1 -1.1104 6.6663 -2.75278 23.3626
315 1 -1.1104 6.76283 5.51164 23.3528
289 1 -1.1104 6.54189 2.668 23.3458
279 2 2.2208 10.7745 1.32147 21.9511
280 2 2.2208 8.13736 6.90814 24.7566
328 1 -1.1104 12.1377 5.63897 26.2869
331 2 2.2208 10.8025 4.19637 24.7791
323 2 2.2208 10.7517 6.97665 21.9106
230 1 -1.1104 9.45215 2.74401 26.2493
164 2 2.2208 8.10788 -1.49615 27.5073
9002 2 2.2208 13.739 -1.48801 22.1303
329 1 -1.1104 9.47278 -2.89972 23.5696
295 1 -1.1104 6.62384 -0.0331605 23.3398
284 1 -1.1104 9.50642 -0.0265547 26.2382
317 1 -1.1104 6.7619 5.44159 26.0858
283 1 -1.1104 9.43885 5.49876 26.2699
277 2 2.2208 8.06542 1.34704 24.7216
228 2 2.2208 8.0316 -1.61107 22.0065
326 1 -1.1104 12.1851 8.40749 26.1123
330 1 -1.1104 12.3702 0.0569232 26.2883
227 2 2.2208 8.11854 4.02361 22.0275
226 1 -1.1104 9.49278 -0.0972762 23.3307
325 1 -1.1104 12.0645 8.37397 23.3329
332 1 -1.1104 12.2337 5.47913 23.225
327 1 -1.1104 9.42727 8.36932 23.2484
235 1 -1.1104 12.2952 -2.81698 26.3081
236 1 -1.1104 12.2264 2.66384 23.3279
234 1 -1.1104 12.3444 2.84369 26.1761
233 1 -1.1104 12.2491 -0.173588 23.3888
232 1 -1.1104 9.45516 -2.84879 26.1978
231 2 2.2208 10.8151 -1.46385 24.9081
275 1 -1.1104 12.299 -2.92919 23.5387
282 1 -1.1104 9.59233 5.44394 23.3378
9004 2 2.2208 13.7491 6.89243 19.0936
9070 2 2.2208 -0.357139 4.11503 19.0807
9068 2 2.2208 -0.347414 7.01305 16.3556
17901 2 2.2208 -0.472811 -4.38067 21.8156
9119 2 2.2208 -0.429849 -1.50017 19.0751
9007 2 2.2208 -0.436142 1.25734 16.2448
9069 2 2.2208 -0.42077 1.33725 27.5145
276 2 2.2208 10.8207 -4.3288 16.3735
8953 2 2.2208 -0.32141 7.04281 27.7102
333 2 2.2208 5.29068 12.5653 4.95337
334 1 -1.1104 1.06724 11.1813 0.962171
338 2 2.2208 5.23098 9.80449 2.12738
339 1 -1.1104 1.00752 11.08 3.71352
341 2 2.2208 2.47819 12.5145 2.21746
342 2 2.2208 2.49539 9.86561 5.12118
343 1 -1.1104 3.86412 11.2135 0.843442
345 1 -1.1104 3.84426 10.9869 3.63475
346 2 2.2208 5.27746 18.1426 5.12138
347 1 -1.1104 1.0211 13.9025 0.838581
349 1 -1.1104 1.22237 19.6354 0.894009
353 1 -1.1104 1.04364 13.8876 3.66038
354 1 -1.1104 1.33364 19.6251 3.83448
356 1 -1.1104 0.975523 16.6607 0.82875
359 2 2.2208 5.33636 15.4894 2.3829
360 2 2.2208 5.39401 20.9826 2.39803
361 1 -1.1104 1.02296 16.7852 3.74049
363 1 -1.1104 4.01792 14.0359 0.949828
365 1 -1.1104 4.07049 19.6623 0.917667
367 2 2.2208 2.54064 18.2175 2.32354
368 1 -1.1104 3.87666 13.8893 3.61132
369 1 -1.1104 3.98028 19.6539 3.88205
370 2 2.2208 2.41687 15.2205 5.0425
371 2 2.2208 2.59591 21.0775 5.21341
372 1 -1.1104 3.79135 16.8224 0.857502
374 1 -1.1104 3.79395 16.6981 3.67674
350 1 -1.1104 6.72153 13.9918 0.990484
340 1 -1.1104 6.75543 11.1404 3.74305
362 1 -1.1104 6.67337 16.7806 3.64104
344 1 -1.1104 3.93045 11.2377 6.43668
435 1 -1.1104 1.20393 19.5842 6.4718
390 1 -1.1104 6.86012 19.5426 0.886672
337 1 -1.1104 6.6581 11.1261 6.48722
348 1 -1.1104 1.07891 13.9802 6.51405
357 1 -1.1104 0.894802 16.7509 6.51221
373 1 -1.1104 3.76093 16.6895 6.53096
366 1 -1.1104 3.96642 19.6019 6.69391
364 1 -1.1104 3.73726 13.8956 6.42402
335 1 -1.1104 0.99845 10.9996 6.57048
378 2 2.2208 -0.285229 21.0036 2.2722
484 2 2.2208 10.9648 15.4025 13.6021
376 2 2.2208 -0.309119 9.7477 2.34266
449 1 -1.1104 6.72996 11.1384 9.39313
392 1 -1.1104 6.6035 16.7562 0.892162
336 1 -1.1104 6.60245 11.2952 0.857974
391 1 -1.1104 6.67224 19.4912 3.72174
355 1 -1.1104 6.71473 13.9642 3.82361
380 2 2.2208 10.8086 12.6208 5.16163
381 1 -1.1104 12.3409 11.2575 0.97918
383 2 2.2208 10.8815 9.86002 2.29786
384 1 -1.1104 12.3842 11.3054 3.70647
385 2 2.2208 8.06239 12.5619 2.36111
386 2 2.2208 8.1075 9.71489 5.11949
387 1 -1.1104 9.47783 11.3156 0.92566
389 1 -1.1104 9.53855 11.1389 3.81293
393 2 2.2208 10.8042 18.1655 5.31899
394 1 -1.1104 12.3702 14.1767 1.07477
396 1 -1.1104 12.3731 19.5159 1.02105
398 1 -1.1104 12.4465 14.0513 3.88245
399 1 -1.1104 12.2809 19.6649 3.77143
400 1 -1.1104 12.2612 16.9362 1.08286
402 2 2.2208 11.0268 15.4194 2.42374
403 2 2.2208 10.851 21.0222 2.41064
404 1 -1.1104 12.3843 16.7602 3.89062
405 1 -1.1104 9.53761 14.1763 0.928431
407 1 -1.1104 9.59855 19.7111 0.93338
409 2 2.2208 8.11826 18.1477 2.14651
410 1 -1.1104 9.68748 13.9434 3.59654
411 1 -1.1104 9.54367 19.4121 3.73553
412 2 2.2208 8.2055 15.3166 5.16401
413 2 2.2208 8.10197 20.9823 5.09132
414 1 -1.1104 9.43669 16.9725 0.878969
416 1 -1.1104 9.53147 16.6884 3.70256
382 1 -1.1104 12.2776 11.3137 6.56535
397 1 -1.1104 12.2574 19.5681 6.62645
351 1 -1.1104 6.60981 13.9101 6.49484
415 1 -1.1104 9.47306 16.6337 6.50647
358 1 -1.1104 6.66468 16.835 6.46356
401 1 -1.1104 12.1557 16.7377 6.64153
408 1 -1.1104 9.4539 19.3996 6.58884
395 1 -1.1104 12.1402 14.0934 6.56171
9315 2 2.2208 -0.380816 9.84319 13.6565
472 1 -1.1104 12.0756 19.5475 9.41163
474 2 2.2208 8.1348 9.67113 10.7197
9297 2 2.2208 -0.308833 20.952 7.97649
481 2 2.2208 2.53435 12.5558 13.5391
419 1 -1.1104 3.86297 19.7463 12.2963
420 1 -1.1104 3.92594 13.9226 12.0987
424 1 -1.1104 0.969294 19.4695 9.32128
425 1 -1.1104 1.14286 16.7791 9.19132
426 2 2.2208 5.19373 20.9992 8.06082
427 1 -1.1104 1.01841 13.8364 9.4113
428 2 2.2208 5.26274 15.4766 7.9243
431 1 -1.1104 1.08853 19.5609 12.2082
432 1 -1.1104 1.14762 14.0314 12.2162
433 2 2.2208 5.26798 18.2436 10.8383
434 1 -1.1104 3.71117 19.6345 9.48253
436 2 2.2208 2.45081 18.1507 7.86163
437 1 -1.1104 3.905 16.8501 9.46316
438 1 -1.1104 3.87114 14.1488 9.18774
440 1 -1.1104 1.20437 16.9067 12.0092
441 1 -1.1104 3.95759 16.9043 12.2351
442 2 2.2208 2.5046 21.0248 10.8158
443 2 2.2208 5.27975 12.533 10.6543
444 1 -1.1104 1.21142 11.2409 12.2367
446 2 2.2208 2.54504 15.4574 10.8717
447 2 2.2208 5.38885 9.64154 7.89637
448 1 -1.1104 1.14068 11.2122 9.27672
450 2 2.2208 2.37948 12.6194 7.91371
451 2 2.2208 2.50888 9.80492 10.6817
452 1 -1.1104 3.89477 11.0326 12.0019
453 1 -1.1104 3.9864 11.1934 9.21061
421 1 -1.1104 6.52058 19.6125 9.50411
423 1 -1.1104 6.62062 13.9831 9.22886
439 1 -1.1104 6.70127 16.6899 12.2643
476 1 -1.1104 12.2334 19.4757 12.1267
467 2 2.2208 10.8256 20.9958 8.0894
480 2 2.2208 5.27726 9.77162 13.4602
478 2 2.2208 2.52176 18.296 13.5623
479 2 2.2208 5.33569 21.1038 13.6245
482 2 2.2208 5.28178 15.3464 13.5153
485 2 2.2208 8.05437 18.1052 13.6804
488 2 2.2208 8.142 12.5241 13.4847
9306 2 2.2208 13.7202 12.4498 13.5439
466 1 -1.1104 12.3517 16.6699 9.37209
483 2 2.2208 10.905 20.9629 13.5415
9301 2 2.2208 13.747 18.1628 13.4755
445 1 -1.1104 6.68234 11.1366 12.0884
377 1 -1.1104 12.3372 10.9956 9.31702
487 2 2.2208 10.8047 9.71108 13.4553
352 1 -1.1104 6.59767 19.7121 6.45161
429 1 -1.1104 6.63732 19.6962 12.2077
475 2 2.2208 8.07106 12.4497 7.90446
379 2 2.2208 10.9722 9.66724 7.90413
473 1 -1.1104 12.4098 13.8654 9.40341
469 2 2.2208 10.8875 15.2561 7.98908
455 2 2.2208 10.8195 12.5484 10.6363
430 1 -1.1104 6.678 13.8772 12.1778
422 1 -1.1104 6.68135 16.7861 9.42438
454 1 -1.1104 12.3242 11.0503 12.2072
457 1 -1.1104 9.51746 16.7416 9.32639
388 1 -1.1104 9.5266 11.0923 6.51891
406 1 -1.1104 9.37359 13.9656 6.4854
458 1 -1.1104 9.63611 16.6235 12.1
459 2 2.2208 8.0155 21.1009 10.8846
462 1 -1.1104 9.39068 13.8842 9.32127
463 2 2.2208 8.01677 18.133 7.96774
460 2 2.2208 8.06693 15.2863 10.8868
456 2 2.2208 10.8347 18.1816 10.8148
465 1 -1.1104 9.47277 13.9087 12.0416
477 1 -1.1104 12.3132 13.8828 12.2859
468 1 -1.1104 9.59049 11.1175 9.16731
470 1 -1.1104 12.3753 16.827 12.1321
464 1 -1.1104 9.50864 19.5093 12.2455
471 1 -1.1104 9.52687 11.0763 12.0043
461 1 -1.1104 9.30215 19.6255 9.44715
417 2 2.2208 13.6182 18.2865 2.44795
418 2 2.2208 13.7796 12.7051 2.4218
375 2 2.2208 -0.299275 15.3732 2.42937
9293 2 2.2208 -0.315936 12.5563 5.12218
9248 2 2.2208 13.6792 9.7591 10.7475
9294 2 2.2208 13.7424 15.3526 10.8347
9234 2 2.2208 13.721 20.9937 10.8453
9312 2 2.2208 -0.322161 20.9112 13.5408
9298 2 2.2208 -0.405719 18.1618 10.7467
492 2 2.2208 5.20263 18.1767 -0.672539
503 2 2.2208 5.19317 12.6679 16.2845
504 1 -1.1104 0.924791 11.134 17.7075
506 2 2.2208 5.43991 9.77397 19.0756
507 1 -1.1104 0.9652 11.4363 14.9027
511 2 2.2208 2.50138 12.5934 19.1185
512 2 2.2208 2.45476 9.76531 16.3128
513 1 -1.1104 3.80219 11.2309 17.6566
514 1 -1.1104 3.85493 11.1756 14.866
516 2 2.2208 5.3273 18.2185 16.4562
517 1 -1.1104 1.25435 14.0502 17.8463
518 1 -1.1104 1.12534 19.5534 17.7518
521 1 -1.1104 1.10949 14.1685 15.1152
523 1 -1.1104 1.13971 19.7318 15.0118
529 1 -1.1104 1.2535 16.8047 17.7168
531 2 2.2208 5.20137 15.4346 19.1637
532 2 2.2208 5.34552 21.0371 19.1523
533 1 -1.1104 1.10575 16.8629 14.6911
537 1 -1.1104 3.92689 14.0661 17.8107
538 1 -1.1104 3.72985 19.583 17.9208
539 2 2.2208 2.50364 18.3061 19.3094
540 1 -1.1104 3.92502 14.1392 14.9548
542 1 -1.1104 3.89238 19.719 15.1725
544 2 2.2208 2.61872 15.4082 16.3797
545 2 2.2208 2.6008 20.9572 16.5584
546 1 -1.1104 4.06791 16.925 17.8349
547 1 -1.1104 3.91953 16.9493 15.0103
524 1 -1.1104 1.11274 19.7551 20.4908
543 1 -1.1104 3.9889 19.7019 20.636
509 1 -1.1104 6.57833 11.1981 14.8648
535 1 -1.1104 6.662 16.8665 14.987
541 1 -1.1104 3.92893 14.0019 20.5528
526 1 -1.1104 6.74888 13.9413 20.4879
519 1 -1.1104 6.76834 14.0685 17.6893
505 1 -1.1104 6.58741 11.2886 17.6764
522 1 -1.1104 1.05796 14.0506 20.6546
508 1 -1.1104 0.950083 11.248 20.4417
534 1 -1.1104 0.96379 16.8424 20.6179
525 1 -1.1104 6.65352 14.0289 14.911
496 2 2.2208 10.9297 18.2803 27.6362
548 1 -1.1104 3.71951 16.8544 20.6026
515 1 -1.1104 3.93436 11.2939 20.5712
528 1 -1.1104 6.84177 19.6356 20.5997
553 2 2.2208 -0.265178 12.7289 16.28
495 2 2.2208 8.03588 9.84999 27.6116
520 1 -1.1104 6.51243 19.716 17.7376
527 1 -1.1104 6.65519 19.6932 14.8841
653 1 -1.1104 12.4412 16.7996 23.3241
530 1 -1.1104 6.77537 16.8435 17.7548
554 2 2.2208 10.8564 12.5976 16.1567
555 1 -1.1104 12.3546 11.1672 17.5419
556 2 2.2208 10.7781 9.84242 18.9792
557 1 -1.1104 12.133 11.2231 14.8785
559 2 2.2208 8.10633 12.6241 18.9953
560 2 2.2208 7.96844 9.7994 16.3414
561 1 -1.1104 9.32363 11.2516 17.5575
562 1 -1.1104 9.34657 11.1831 14.8071
564 2 2.2208 10.8624 18.1483 16.3283
565 1 -1.1104 12.1858 13.8813 17.6584
566 1 -1.1104 12.1766 19.7222 17.8077
567 1 -1.1104 12.3447 14.1647 15.0173
569 1 -1.1104 12.2272 19.6765 14.8424
571 1 -1.1104 12.3656 16.6983 17.8298
572 2 2.2208 10.9547 15.4088 19.1823
573 2 2.2208 10.9641 21.1251 19.2173
574 1 -1.1104 12.3397 16.9021 15.0814
576 1 -1.1104 9.59771 14.0751 17.6858
577 1 -1.1104 9.35581 19.5773 17.9848
578 2 2.2208 8.1147 18.1488 19.1722
579 1 -1.1104 9.43144 13.9276 14.8267
581 1 -1.1104 9.5241 19.5121 15.1134
583 2 2.2208 8.03514 15.4904 16.3207
584 2 2.2208 8.10195 20.962 16.3569
585 1 -1.1104 9.55413 16.8313 17.6663
586 1 -1.1104 9.52147 16.8033 14.8881
575 1 -1.1104 12.3666 16.8333 20.5526
563 1 -1.1104 9.39012 11.1848 20.4477
570 1 -1.1104 12.4491 19.7065 20.5059
582 1 -1.1104 9.65137 19.6519 20.6337
651 2 2.2208 11.0232 21.0637 24.7844
558 1 -1.1104 12.2978 11.1728 20.3737
587 1 -1.1104 9.43081 16.744 20.46
580 1 -1.1104 9.48385 13.9313 20.4616
568 1 -1.1104 12.3321 13.9021 20.4499
638 2 2.2208 -0.338607 12.7027 21.8986
659 1 -1.1104 12.2624 19.6831 23.3651
498 2 2.2208 2.5526 15.3152 27.729
500 2 2.2208 5.37887 12.5464 27.4696
597 1 -1.1104 6.6751 16.8198 25.9898
637 2 2.2208 -0.412033 9.82847 24.7014
594 1 -1.1104 3.92882 19.6979 23.3267
596 1 -1.1104 3.92735 14.084 23.337
598 1 -1.1104 0.978008 19.7322 26.0531
599 1 -1.1104 1.12492 16.9278 26.2582
600 1 -1.1104 1.16908 13.8898 26.1843
602 2 2.2208 5.22677 21.1855 24.7253
603 2 2.2208 5.2613 15.4813 24.7704
605 1 -1.1104 0.978842 19.7453 23.2459
606 1 -1.1104 1.06903 14.165 23.3521
607 2 2.2208 5.39842 18.3521 21.9788
608 1 -1.1104 3.85445 19.6742 26.1268
609 2 2.2208 2.48329 18.3691 24.7427
610 1 -1.1104 3.82787 16.9504 26.1332
611 1 -1.1104 3.8774 14.0736 26.2036
613 1 -1.1104 1.15746 16.9048 23.4074
614 1 -1.1104 4.04113 16.8463 23.4392
615 2 2.2208 2.61432 21.1498 21.9054
616 2 2.2208 5.37073 12.6727 21.921
617 1 -1.1104 0.987714 11.3216 23.3705
619 2 2.2208 2.528 15.4863 21.9386
620 2 2.2208 5.38011 9.7799 24.7146
621 1 -1.1104 1.04625 11.2371 26.0987
623 2 2.2208 2.42964 12.7111 24.7056
624 2 2.2208 2.48564 9.89413 21.8818
625 1 -1.1104 3.8959 11.3278 23.3563
626 1 -1.1104 4.00095 11.2129 26.1109
595 1 -1.1104 6.79908 13.9192 26.2576
536 1 -1.1104 6.53561 16.6756 20.5223
601 1 -1.1104 6.63523 19.698 23.3036
612 1 -1.1104 6.72825 16.9645 23.1917
489 2 2.2208 2.48249 21.1319 27.5104
635 2 2.2208 -0.364025 21.0477 24.8047
502 2 2.2208 -0.272473 18.2423 27.5423
499 2 2.2208 2.48662 9.69828 27.5003
656 1 -1.1104 9.50655 11.1805 23.2234
493 2 2.2208 8.12068 15.3904 27.6002
655 1 -1.1104 12.4086 14.0968 26.1694
647 1 -1.1104 9.41099 19.6191 23.2819
510 1 -1.1104 6.65837 11.1866 20.5355
646 2 2.2208 8.17663 18.2852 24.7504
622 1 -1.1104 6.75908 11.1866 26.1013
604 1 -1.1104 6.80565 14.1451 23.5027
618 1 -1.1104 6.75921 11.3537 23.3456
645 1 -1.1104 6.72314 19.6956 26.0609
652 2 2.2208 10.9762 15.4608 24.6877
497 2 2.2208 8.02076 21.111 27.4946
654 1 -1.1104 12.3433 19.6797 26.283
641 2 2.2208 8.08677 21.0783 21.8831
649 1 -1.1104 12.3205 16.8847 26.1381
643 1 -1.1104 9.60366 19.6729 26.0877
642 2 2.2208 7.98437 15.4448 21.8431
631 2 2.2208 10.882 12.5733 21.9307
650 1 -1.1104 9.55035 11.203 26.0886
628 1 -1.1104 12.313 11.3129 26.0532
644 1 -1.1104 9.51173 14.0439 26.0833
632 2 2.2208 10.9572 18.2877 21.927
634 1 -1.1104 12.2488 14.017 23.3736
639 1 -1.1104 9.4981 16.8307 26.1306
630 1 -1.1104 12.3641 11.1762 23.2785
629 2 2.2208 10.9205 9.82414 24.5902
657 2 2.2208 8.13094 9.85879 21.8765
658 2 2.2208 8.12136 12.7241 24.7012
640 1 -1.1104 9.59873 16.9464 23.1349
648 1 -1.1104 9.63288 14.0556 23.1944
550 2 2.2208 -0.358906 9.74943 19.1955
627 2 2.2208 13.8315 21.0869 22.0848
501 2 2.2208 -0.291751 12.4649 27.519
490 2 2.2208 13.7558 15.5237 27.5004
593 2 2.2208 13.7122 12.6585 24.6742
636 2 2.2208 -0.265111 18.2853 21.9934
494 2 2.2208 10.9747 12.735 27.6239
660 2 2.2208 5.23158 23.8247 5.26835
661 2 2.2208 5.22481 29.5535 5.09066
662 1 -1.1104 1.04763 25.1761 0.855758
663 1 -1.1104 1.13792 25.3098 3.80857
664 1 -1.1104 1.03086 22.4666 0.858059
665 1 -1.1104 1.13033 28.0648 0.81479
666 2 2.2208 5.27246 26.5869 2.44347
667 1 -1.1104 1.09538 22.3929 3.66669
668 1 -1.1104 1.12689 28.2155 3.83145
669 1 -1.1104 3.83041 25.2352 0.97253
670 2 2.2208 2.48554 23.77 2.35607
671 2 2.2208 2.43818 29.3886 2.31061
672 1 -1.1104 4.01048 25.3043 3.90287
673 2 2.2208 2.55218 26.6785 5.10862
674 1 -1.1104 3.70871 22.2816 1.04192
675 1 -1.1104 3.94119 27.9206 1.00954
676 1 -1.1104 3.86297 22.4984 3.91834
677 1 -1.1104 3.74946 28.0697 3.75352
678 1 -1.1104 1.11952 30.779 1.04055
679 1 -1.1104 0.931169 30.9129 3.78439
680 1 -1.1104 1.11014 33.4972 1.10911
681 2 2.2208 5.15108 32.3467 2.23167
682 1 -1.1104 1.16469 33.8151 3.81017
684 1 -1.1104 3.79936 30.7629 0.810265
685 1 -1.1104 3.82295 30.7585 3.70389
686 2 2.2208 2.54321 32.3029 5.11006
687 1 -1.1104 3.79852 33.721 0.999348
688 1 -1.1104 3.91682 33.6311 3.60383
742 1 -1.1104 1.00867 30.8635 6.54865
698 1 -1.1104 6.68911 28.1293 3.9168
735 1 -1.1104 1.07652 22.4032 6.6164
746 1 -1.1104 3.70721 30.9193 6.45427
747 1 -1.1104 3.95849 33.6994 6.61062
744 1 -1.1104 1.23352 33.5296 6.55113
718 1 -1.1104 6.74529 30.9726 3.68544
717 1 -1.1104 6.56535 30.7917 0.954775
741 1 -1.1104 3.87844 28.0037 6.51083
733 1 -1.1104 1.08164 25.3566 6.56507
739 1 -1.1104 3.93058 25.2846 6.60996
9635 2 2.2208 -0.368677 23.7892 5.25411
737 1 -1.1104 6.64551 22.4304 6.63584
683 1 -1.1104 6.68997 33.5982 3.67083
9634 2 2.2208 -0.275302 26.5964 2.39576
740 1 -1.1104 3.90009 22.4043 6.66169
695 1 -1.1104 6.62869 22.3337 0.905662
745 1 -1.1104 6.62204 33.8228 6.55383
693 1 -1.1104 6.82246 25.0943 0.860315
719 1 -1.1104 6.53702 33.5652 0.852941
694 1 -1.1104 6.62817 25.2599 3.61007
734 1 -1.1104 6.77515 25.2368 6.51248
791 1 -1.1104 9.55845 28.0408 6.71104
9501 2 2.2208 13.7855 32.2132 5.22117
696 1 -1.1104 6.59305 27.8763 0.992493
697 1 -1.1104 6.82351 22.412 3.68502
699 2 2.2208 10.8406 23.917 5.19769
700 2 2.2208 10.8393 29.424 5.28578
701 1 -1.1104 12.2189 25.1558 1.08375
702 1 -1.1104 12.2728 25.2543 3.94554
703 1 -1.1104 12.1164 22.4214 1.04279
704 1 -1.1104 12.2011 27.9722 1.05593
705 2 2.2208 10.7543 26.6474 2.41661
706 1 -1.1104 12.1964 22.336 3.85591
707 1 -1.1104 12.2671 28.0336 3.7598
708 1 -1.1104 9.49587 25.3599 0.96254
709 2 2.2208 8.10618 23.8694 2.35172
710 2 2.2208 7.93071 29.4625 2.3497
711 1 -1.1104 9.32668 25.1878 3.79281
712 2 2.2208 8.0102 26.6636 5.17668
713 1 -1.1104 9.46485 22.5233 0.921877
714 1 -1.1104 9.3989 27.9956 0.973405
715 1 -1.1104 9.43561 22.4432 3.84506
716 1 -1.1104 9.44973 28.101 3.90889
720 1 -1.1104 12.2225 30.9179 1.17343
721 1 -1.1104 12.2699 30.7738 3.95202
722 1 -1.1104 12.219 33.7402 1.10196
723 2 2.2208 10.7505 32.2768 2.43966
724 1 -1.1104 12.1306 33.7916 3.92329
725 1 -1.1104 9.45413 30.8552 1.01606
726 1 -1.1104 9.42754 30.7905 4.02687
727 2 2.2208 8.06843 32.3185 5.23705
728 1 -1.1104 9.47626 33.7002 1.05775
729 1 -1.1104 9.36429 33.7464 3.88949
790 1 -1.1104 9.47186 22.2235 6.60438
789 1 -1.1104 9.62502 25.3071 6.63769
786 1 -1.1104 12.4075 25.1845 6.58976
788 1 -1.1104 12.285 27.9674 6.58417
794 1 -1.1104 9.2896 30.9032 6.77182
738 1 -1.1104 6.65215 28.0868 6.64285
795 1 -1.1104 9.45269 33.7079 6.54293
957 2 2.2208 7.99481 32.2914 -0.429075
815 2 2.2208 2.46181 23.7668 13.5242