ITEM: TIMESTEP
90000
ITEM: NUMBER OF ATOMS
17910
ITEM: BOX BOUNDS pp pp pp
-3.5442406650848879e-01 2.7694424066508535e+01
-4.3665430306601012e+00 3.3244654303067080e+02
-3.5514810363770405e-01 2.7695148103637827e+01
ITEM: ATOMS id type q x y z
1 2 2.2208 5.12543 1.26373 5.16995
2 1 -1.1104 1.06388 -3.08961 1.04451
3 1 -1.1104 0.981615 2.56136 0.953927
6 1 -1.1104 0.831902 -3.14825 3.81815
7 1 -1.1104 1.04795 2.48055 3.73458
10 1 -1.1104 0.918227 -0.25607 0.957098
12 2 2.2208 5.20974 -1.59474 2.39256
13 2 2.2208 5.29761 3.9988 2.24169
14 1 -1.1104 0.930337 -0.354997 3.75679
16 1 -1.1104 3.79766 -3.05018 1.02708
17 1 -1.1104 3.8082 2.55808 0.869334
18 2 2.2208 2.46559 1.29093 2.37542
19 1 -1.1104 3.7628 -2.90361 3.75586
20 1 -1.1104 3.88272 2.71487 3.67842
21 2 2.2208 2.20244 -1.59031 5.10357
22 2 2.2208 2.34512 4.09013 5.16032
23 1 -1.1104 3.84533 -0.185239 0.84539
24 1 -1.1104 3.66854 -0.076314 3.7161
25 2 2.2208 5.15339 6.84385 5.16695
26 1 -1.1104 1.03929 8.35817 0.671887
28 1 -1.1104 0.816179 8.08047 3.49405
30 1 -1.1104 0.982948 5.39541 1.14198
32 1 -1.1104 0.894731 5.37811 3.8511
34 1 -1.1104 3.89954 8.11915 0.72252
35 2 2.2208 2.3884 6.84216 2.28964
37 1 -1.1104 3.91673 5.34936 0.856185
38 1 -1.1104 3.86012 5.43678 3.7595
36 1 -1.1104 3.64159 8.33622 3.4979
5 1 -1.1104 6.57653 2.65324 0.753031
27 1 -1.1104 6.52705 8.25557 1.05903
33 1 -1.1104 6.53858 5.44924 3.6826
4 1 -1.1104 6.66483 -3.12093 0.860666
84 1 -1.1104 1.03725 -0.077096 6.55725
83 1 -1.1104 6.54311 2.53521 6.53317
81 1 -1.1104 0.834313 2.64545 6.68663
86 1 -1.1104 3.60624 -2.85995 6.60269
93 1 -1.1104 3.79423 8.35913 6.36172
94 1 -1.1104 3.67445 5.4269 6.56396
90 1 -1.1104 6.59752 8.33861 6.4674
91 1 -1.1104 0.908324 5.60632 6.61435
80 1 -1.1104 0.790989 -2.84786 6.69862
89 1 -1.1104 0.989522 8.32815 6.4608
9 1 -1.1104 6.63202 2.54048 3.75255
11 1 -1.1104 6.6326 -0.273629 0.94994
15 1 -1.1104 6.64822 -0.221179 3.70164
85 1 -1.1104 6.76462 -0.224522 6.55965
92 1 -1.1104 6.50538 5.43885 6.61317
8882 2 2.2208 13.6693 -1.57524 5.08776
8905 2 2.2208 -0.535181 6.86269 10.7911
31 1 -1.1104 6.70167 5.59773 0.879506
8943 2 2.2208 -0.410485 1.21824 5.08103
8 1 -1.1104 6.59963 -2.99151 3.74775
82 1 -1.1104 6.4902 -2.95022 6.54157
143 1 -1.1104 9.26221 2.4916 6.35765
29 1 -1.1104 6.47056 8.14956 3.65473
46 2 2.2208 10.821 1.21645 5.11829
47 1 -1.1104 12.1253 -2.96691 0.908981
48 1 -1.1104 12.3149 2.63657 0.961888
49 1 -1.1104 12.276 -2.9981 3.76614
50 1 -1.1104 12.2004 2.67848 3.72328
51 1 -1.1104 12.1569 -0.21282 1.00345
52 2 2.2208 10.7092 -1.62227 2.28604
53 2 2.2208 10.8426 4.21803 2.2823
54 1 -1.1104 12.0789 -0.0956535 3.63632
55 1 -1.1104 9.26467 -3.0722 0.894894
56 1 -1.1104 9.52644 2.6901 0.774209
57 2 2.2208 7.98505 1.22032 2.19987
58 1 -1.1104 9.30186 -3.11513 3.84893
59 1 -1.1104 9.45473 2.80823 3.55197
60 2 2.2208 7.91348 -1.54376 5.12022
61 2 2.2208 7.95315 3.90804 5.16392
62 1 -1.1104 9.4608 -0.231183 0.796317
63 1 -1.1104 9.30498 -0.150541 3.62558
64 2 2.2208 10.7398 6.86495 5.17517
66 1 -1.1104 12.1924 8.27118 3.61388
67 1 -1.1104 12.1765 5.44165 0.90577
68 1 -1.1104 12.1436 5.60327 3.75177
69 1 -1.1104 9.37811 8.36184 0.982821
70 2 2.2208 7.96869 6.92208 2.24668
71 1 -1.1104 9.39521 8.25371 3.82711
72 1 -1.1104 9.40111 5.57365 0.823633
73 1 -1.1104 9.38008 5.67244 3.63335
65 1 -1.1104 12.0998 8.28943 0.882022
140 1 -1.1104 12.1985 2.5855 6.48497
142 1 -1.1104 9.46253 -2.96121 6.61765
17713 2 2.2208 13.6672 -4.31854 8.00487
139 1 -1.1104 12.3541 -3.07338 6.46368
145 1 -1.1104 12.3359 8.26013 6.59464
147 1 -1.1104 9.47511 8.17309 6.52627
146 1 -1.1104 12.0193 5.46452 6.63631
8883 2 2.2208 13.4346 1.2866 2.32289
144 1 -1.1104 9.31798 -0.19887 6.51764
141 1 -1.1104 12.1401 -0.250352 6.36004
149 1 -1.1104 9.22728 5.42692 6.53119
8841 2 2.2208 13.6665 6.8881 2.32423
87 1 -1.1104 3.587 2.75249 6.56239
161 2 2.2208 2.36367 1.29086 13.6538
79 1 -1.1104 9.13761 0.0507595 9.49561
8840 2 2.2208 -0.619913 4.18274 7.89899
153 2 2.2208 10.8398 1.28881 10.8038
88 1 -1.1104 3.94754 -0.127582 6.62389
160 2 2.2208 2.29632 6.9209 13.4755
130 1 -1.1104 3.65977 8.30431 9.15517
95 2 2.2208 5.18256 1.18732 10.8025
96 1 -1.1104 1.02333 -2.89595 12.1675
97 1 -1.1104 0.814053 2.58573 12.2306
100 1 -1.1104 1.00532 -3.00607 9.32314
101 1 -1.1104 0.811244 2.81096 9.50965
104 1 -1.1104 1.00035 -0.202354 12.2878
106 2 2.2208 5.15872 -1.50759 7.86392
107 2 2.2208 5.02669 3.99852 8.04981
108 1 -1.1104 0.96217 0.0814728 9.48121
110 1 -1.1104 3.79528 -3.09721 12.2966
111 1 -1.1104 3.61693 2.64408 12.2116
112 2 2.2208 2.34282 1.2515 7.98949
113 1 -1.1104 3.83086 -2.95732 9.4787
114 1 -1.1104 3.57841 2.64338 9.37676
115 2 2.2208 2.42144 -1.5251 10.8024
116 2 2.2208 2.30661 4.00682 10.7424
117 1 -1.1104 3.73753 -0.052511 12.1698
118 1 -1.1104 3.72091 -0.111592 9.29447
119 2 2.2208 5.18415 6.92049 10.6945
120 1 -1.1104 1.03961 8.26957 12.0862
122 1 -1.1104 0.857667 8.37719 9.34873
124 1 -1.1104 0.854494 5.4703 12.0991
126 1 -1.1104 0.668155 5.6151 9.35202
128 1 -1.1104 3.72782 8.282 11.818
129 2 2.2208 2.31076 6.94947 7.92469
131 1 -1.1104 3.77552 5.51617 12.1671
132 1 -1.1104 3.5076 5.59576 9.31512
103 1 -1.1104 6.43795 2.60202 9.2657
102 1 -1.1104 6.74044 -2.91947 9.44184
8957 2 2.2208 13.4164 -4.54088 13.5353
162 2 2.2208 5.16152 4.21837 13.5486
8578 2 2.2208 2.33772 -4.4066 8.01468
8941 2 2.2208 13.6545 -1.60613 10.7359
136 2 2.2208 10.8624 -1.55896 7.88089
41 1 -1.1104 9.36945 8.29874 12.1174
74 1 -1.1104 12.1567 8.29869 9.32774
98 1 -1.1104 6.60183 -2.97585 12.1795
105 1 -1.1104 6.61758 -0.124459 12.2325
109 1 -1.1104 6.43538 -0.103711 9.24469
127 1 -1.1104 6.43721 5.58511 9.30181
125 1 -1.1104 6.52951 5.59291 12.0185
148 1 -1.1104 9.38309 5.33849 9.32043
154 1 -1.1104 12.1645 -3.11731 11.9467
156 1 -1.1104 12.2888 -2.91755 9.24769
169 2 2.2208 10.7754 4.04476 13.5392
138 1 -1.1104 9.26271 2.70228 9.19959
151 1 -1.1104 9.30515 8.16817 9.38751
137 1 -1.1104 12.2873 -0.20105 12.0077
39 1 -1.1104 9.5006 -2.92484 9.33888
75 1 -1.1104 12.1448 8.20631 12.1331
133 1 -1.1104 9.47349 0.0731483 12.2693
77 1 -1.1104 12.2435 -0.229833 9.25772
150 1 -1.1104 9.44473 5.60662 12.1301
45 1 -1.1104 12.2027 5.3773 12.1743
99 1 -1.1104 6.48698 2.67832 12.0708
123 1 -1.1104 6.59005 8.31995 9.24796
44 1 -1.1104 9.35437 -2.97823 12.1408
166 2 2.2208 8.0716 6.96686 13.5589
78 2 2.2208 10.8602 4.06182 8.0025
168 2 2.2208 10.7624 -1.50278 13.4912
134 2 2.2208 7.97762 4.14123 10.65
43 1 -1.1104 9.4589 2.77432 11.9343
42 1 -1.1104 12.3123 5.42965 9.36684
155 1 -1.1104 12.1372 2.65671 12.1361
135 2 2.2208 7.96885 -1.54176 10.8918
167 2 2.2208 7.86255 1.25843 13.5236
76 2 2.2208 10.8273 6.81188 10.7387
152 2 2.2208 7.88523 6.82943 7.90879
157 1 -1.1104 12.2302 2.58224 9.34826
121 1 -1.1104 6.61863 8.39726 12.0743
40 2 2.2208 7.9566 1.20885 7.91422
8942 2 2.2208 -0.488188 -1.74719 2.32907
8938 2 2.2208 -0.57541 3.94282 2.35372
8939 2 2.2208 13.6379 1.15852 7.91127
8946 2 2.2208 13.6736 6.82996 13.4225
8575 2 2.2208 5.14042 -4.297 5.255
8577 2 2.2208 10.9494 -4.47689 5.12025
8574 2 2.2208 2.47893 -4.45581 2.30972
17707 2 2.2208 13.6263 -4.3262 2.37316
173 2 2.2208 5.21762 1.28579 16.4499
174 1 -1.1104 0.969804 -2.86558 17.6957
175 1 -1.1104 0.858546 2.57422 17.8028
178 1 -1.1104 0.951429 -3.03129 14.9859
180 1 -1.1104 0.96821 2.70892 15.0271
186 1 -1.1104 1.01368 -0.149108 17.8034
188 2 2.2208 5.10173 -1.55803 19.1361
189 2 2.2208 5.06492 4.17022 19.1371
190 1 -1.1104 0.872491 -0.282862 15.0007
194 1 -1.1104 3.67748 -2.96508 17.81
195 1 -1.1104 3.63198 2.59257 17.7439
196 2 2.2208 2.32379 1.28098 19.0903
197 1 -1.1104 3.74917 -2.99047 15.0627
199 1 -1.1104 3.78391 2.55607 15.0573
201 2 2.2208 2.35756 -1.58564 16.4395
202 2 2.2208 2.23282 4.01121 16.3604
203 1 -1.1104 3.73437 -0.128603 17.8336
204 1 -1.1104 3.90466 -0.142999 15.0281
206 2 2.2208 5.13557 6.98145 16.2948
207 1 -1.1104 0.950483 8.31267 17.5957
209 1 -1.1104 1.04282 8.23338 14.999
213 1 -1.1104 0.931919 5.37161 17.7692
215 1 -1.1104 0.873339 5.28552 14.9398
219 1 -1.1104 3.63664 8.41449 17.7257
220 2 2.2208 2.29655 6.89618 19.1731
221 1 -1.1104 3.64701 8.25937 14.7795
223 1 -1.1104 3.63747 5.52564 17.7238
224 1 -1.1104 3.78242 5.55035 14.9412
181 1 -1.1104 0.959212 2.59683 20.5256
187 1 -1.1104 6.60304 -0.219127 17.7978
200 1 -1.1104 3.81444 2.76048 20.5212
184 1 -1.1104 6.47172 2.68147 14.8513
198 1 -1.1104 3.72198 -2.76236 20.7024
225 1 -1.1104 3.79892 5.48327 20.553
205 1 -1.1104 3.73458 -0.0657164 20.5122
185 1 -1.1104 6.58648 2.63021 20.5149
193 1 -1.1104 6.40934 -0.176785 20.7419
211 1 -1.1104 6.59802 8.32122 14.9824
214 1 -1.1104 6.51786 5.68057 17.7417
176 1 -1.1104 6.50114 -3.07082 17.8691
182 1 -1.1104 6.45375 -2.84224 14.8939
216 1 -1.1104 0.854853 5.51851 20.6003
191 1 -1.1104 1.00206 -0.22365 20.5513
179 1 -1.1104 0.930604 -2.93082 20.609
210 1 -1.1104 0.988769 8.21452 20.5299
222 1 -1.1104 3.7157 8.28828 20.5225
183 1 -1.1104 6.56107 -2.98897 20.7805
8654 2 2.2208 2.32524 -4.38484 19.1653
192 1 -1.1104 6.58448 -0.170366 15.0312
217 1 -1.1104 6.62956 5.62661 14.8108
8655 2 2.2208 5.16092 -4.47774 16.3319
177 1 -1.1104 6.47393 2.66739 17.7101
212 1 -1.1104 6.70286 8.25125 20.5386
9078 2 2.2208 13.4097 -1.60783 16.2366
218 1 -1.1104 6.65538 5.55615 20.3779
208 1 -1.1104 6.3845 8.35674 17.6415
237 2 2.2208 10.7897 1.27018 16.33
238 1 -1.1104 12.1206 -3.0125 17.6588
239 1 -1.1104 12.169 2.74802 17.7693
240 1 -1.1104 12.0996 -2.99345 14.845
242 1 -1.1104 12.1233 2.63882 14.9427
244 1 -1.1104 12.1086 -0.106486 17.6874
245 2 2.2208 10.7491 -1.59621 19.1814
246 2 2.2208 10.867 4.06766 19.0542
247 1 -1.1104 12.1857 -0.149506 14.9804
249 1 -1.1104 9.36352 -3.01181 17.7848
250 1 -1.1104 9.31839 2.624 17.7258
251 2 2.2208 7.96343 1.32255 19.2006
252 1 -1.1104 9.24184 -2.85951 14.8727
254 1 -1.1104 9.34045 2.64324 14.8896
256 2 2.2208 7.94775 -1.52412 16.2959
257 2 2.2208 7.94334 4.13001 16.3479
258 1 -1.1104 9.40083 -0.18466 17.8051
259 1 -1.1104 9.37447 -0.0545296 14.9061
261 2 2.2208 10.7905 6.9756 16.3878
263 1 -1.1104 12.3309 8.14742 14.9575
265 1 -1.1104 12.1574 5.44915 17.7317
266 1 -1.1104 12.2704 5.32775 14.6939
268 1 -1.1104 9.32916 8.4029 17.7026
269 2 2.2208 7.92377 6.98968 19.1373
270 1 -1.1104 9.35706 8.34772 14.942
272 1 -1.1104 9.36399 5.54936 17.8031
273 1 -1.1104 9.48115 5.58504 14.9622
262 1 -1.1104 12.0862 8.32392 17.6307
243 1 -1.1104 12.2142 2.4917 20.4366
253 1 -1.1104 9.41547 -3.00439 20.5646
9005 2 2.2208 13.4763 4.03002 16.3446
255 1 -1.1104 9.52211 2.59661 20.4433
267 1 -1.1104 12.3092 5.32513 20.4728
260 1 -1.1104 9.31225 -0.130223 20.6386
271 1 -1.1104 9.47 8.18956 20.4071
264 1 -1.1104 12.2611 8.1584 20.4749
274 1 -1.1104 9.50216 5.3358 20.5147
248 1 -1.1104 12.1146 -0.21176 20.5456
241 1 -1.1104 12.2268 -3.09284 20.5839
9010 2 2.2208 -0.382068 1.27571 22.0068
9069 2 2.2208 -0.328202 1.20871 27.5945
9093 2 2.2208 13.6347 3.90246 21.8672
324 2 2.2208 2.36874 -1.61016 27.6513
172 2 2.2208 5.26736 6.76168 27.502
9006 2 2.2208 13.4285 6.84738 24.706
170 2 2.2208 5.10541 1.11927 27.4768
312 1 -1.1104 0.845688 8.18052 26.1133
285 2 2.2208 5.07467 1.2483 21.9858
286 1 -1.1104 0.952991 -2.89465 23.5776
287 1 -1.1104 0.966648 2.64908 23.3597
290 1 -1.1104 0.975727 -2.93683 26.2351
291 1 -1.1104 1.02023 2.66335 26.2389
294 1 -1.1104 1.03316 -0.0830469 23.2841
296 2 2.2208 5.23594 -1.62306 24.7188
297 2 2.2208 5.24433 4.05988 24.6762
298 1 -1.1104 1.07396 -0.240949 26.2632
300 1 -1.1104 3.82645 -2.85729 23.2982
301 1 -1.1104 3.68763 2.73313 23.2915
302 2 2.2208 2.45083 1.16989 24.8208
303 1 -1.1104 3.92612 -2.94097 26.2146
304 1 -1.1104 3.86043 2.5161 26.1666
305 2 2.2208 2.4218 -1.48056 22.0105
306 2 2.2208 2.24961 3.98311 21.9792
307 1 -1.1104 3.77873 -0.0821107 23.3222
308 1 -1.1104 3.7268 -0.226845 26.0783
309 2 2.2208 5.29811 6.82286 21.8273
310 1 -1.1104 0.820335 8.13883 23.3235
314 1 -1.1104 0.88462 5.40821 23.349
316 1 -1.1104 1.09804 5.42503 26.2498
318 1 -1.1104 3.79137 8.29148 23.1278
319 2 2.2208 2.23546 6.75423 24.6396
321 1 -1.1104 3.81621 5.35582 23.3634
322 1 -1.1104 3.91711 5.40569 26.1112
320 1 -1.1104 3.61124 8.21385 25.9336
295 1 -1.1104 6.4995 -0.223149 23.3423
299 1 -1.1104 6.62927 -0.235717 26.1768
171 2 2.2208 2.50835 4.05314 27.5526
8945 2 2.2208 13.5538 -1.69892 27.6431
293 1 -1.1104 6.53643 2.65551 25.924
292 1 -1.1104 6.60519 -2.98426 26.1646
9003 2 2.2208 13.6561 1.28448 24.87
288 1 -1.1104 6.69149 -2.99084 23.5465
9070 2 2.2208 -0.516082 4.03135 19.1935
163 2 2.2208 7.93584 3.95798 27.4804
9002 2 2.2208 13.5484 -1.46504 21.9339
317 1 -1.1104 6.67735 5.44535 26.1876
331 2 2.2208 10.5819 4.02283 24.5548
231 2 2.2208 10.8633 -1.57428 24.7583
280 2 2.2208 8.03267 6.84183 24.7934
326 1 -1.1104 12.0977 8.23058 26.1897
164 2 2.2208 8.07562 -1.66601 27.5069
281 1 -1.1104 9.28603 8.13476 26.1688
289 1 -1.1104 6.63294 2.72585 23.1862
315 1 -1.1104 6.67173 5.46192 23.1884
313 1 -1.1104 6.49118 8.34328 26.1698
311 1 -1.1104 6.58434 8.23861 23.5142
329 1 -1.1104 9.42009 -3.0101 23.3476
228 2 2.2208 7.96176 -1.57966 21.9531
278 1 -1.1104 9.35962 2.49896 23.2112
233 1 -1.1104 12.3178 -0.0957987 23.4353
327 1 -1.1104 9.39736 8.18209 23.4287
232 1 -1.1104 9.50437 -2.91335 26.1607
158 2 2.2208 10.7296 6.80013 27.5134
235 1 -1.1104 12.1566 -2.93152 26.1446
282 1 -1.1104 9.37868 5.43899 23.1926
275 1 -1.1104 12.3088 -2.93671 23.29
325 1 -1.1104 12.2017 8.32948 23.1621
234 1 -1.1104 12.0801 2.58526 26.2884
230 1 -1.1104 9.34214 2.57781 26.0212
236 1 -1.1104 12.1817 2.78471 23.3957
332 1 -1.1104 12.1001 5.49321 23.2028
226 1 -1.1104 9.52814 -0.262142 23.3392
323 2 2.2208 10.8347 6.65056 21.7455
328 1 -1.1104 12.2612 5.37709 26.1092
227 2 2.2208 7.9912 4.01211 21.7102
283 1 -1.1104 9.47022 5.46365 25.9951
284 1 -1.1104 9.43341 -0.125187 26.1543
330 1 -1.1104 12.3307 -0.119735 26.106
279 2 2.2208 10.7721 1.27054 21.9216
277 2 2.2208 8.03377 1.20561 24.7631
9004 2 2.2208 13.6289 6.85596 19.1742
165 2 2.2208 10.7995 1.13805 27.5328
8995 2 2.2208 -0.50848 4.02696 24.7858
8953 2 2.2208 -0.335196 6.84834 27.5678
9119 2 2.2208 -0.36629 -1.545 19.126
8583 2 2.2208 5.18192 -4.45355 27.6591
17761 2 2.2208 13.7532 -4.37539 24.6643
8587 2 2.2208 10.8707 -4.43991 27.4993
159 2 2.2208 5.06177 -1.50378 13.6323
333 2 2.2208 5.19453 12.4622 5.10555
334 1 -1.1104 0.877225 11.0129 0.845699
338 2 2.2208 5.06486 9.64767 2.27579
339 1 -1.1104 0.892039 10.8997 3.6828
341 2 2.2208 2.40734 12.4992 2.35097
342 2 2.2208 2.41905 9.73569 5.07298
343 1 -1.1104 3.71774 11.0408 0.810158
345 1 -1.1104 3.77211 11.1542 3.59923
346 2 2.2208 5.25193 18.1077 4.91244
347 1 -1.1104 1.07276 14.0403 0.992801
349 1 -1.1104 1.0817 19.3901 0.730364
353 1 -1.1104 1.05919 13.872 3.79752
354 1 -1.1104 1.09704 19.555 3.55577
356 1 -1.1104 1.07102 16.5704 0.950933
359 2 2.2208 5.17368 15.3432 2.42559
360 2 2.2208 5.23029 20.9271 2.32026
361 1 -1.1104 1.11663 16.6585 3.75182
363 1 -1.1104 3.69114 13.7976 0.849362
365 1 -1.1104 4.01821 19.3939 0.951629
367 2 2.2208 2.38761 18.02 2.19293
368 1 -1.1104 3.86143 13.9314 3.80625
369 1 -1.1104 3.78672 19.5195 3.63815
370 2 2.2208 2.41025 15.3638 5.21265
371 2 2.2208 2.45443 20.938 5.04621
372 1 -1.1104 3.73499 16.6531 0.90883
374 1 -1.1104 3.80579 16.6344 3.72698
364 1 -1.1104 3.78851 14.0277 6.62655
348 1 -1.1104 0.960407 13.926 6.51054
335 1 -1.1104 0.99042 11.1248 6.374
366 1 -1.1104 3.82405 19.5936 6.40472
344 1 -1.1104 3.75517 11.1001 6.45521
373 1 -1.1104 3.86835 16.7985 6.62799
435 1 -1.1104 1.13241 19.5496 6.50984
357 1 -1.1104 0.930248 16.7073 6.5644
362 1 -1.1104 6.61176 16.7334 3.70662
352 1 -1.1104 6.68938 19.5764 6.40965
9306 2 2.2208 13.5077 12.4388 13.5765
485 2 2.2208 7.98492 18.0574 13.4601
484 2 2.2208 10.7846 15.2844 13.5654
391 1 -1.1104 6.53959 19.5799 3.70946
355 1 -1.1104 6.55242 13.914 3.81112
337 1 -1.1104 6.52473 11.2311 6.54568
350 1 -1.1104 6.42813 13.9334 1.0631
336 1 -1.1104 6.55718 11.0113 0.930482
390 1 -1.1104 6.8364 19.5412 0.92589
351 1 -1.1104 6.56293 13.8991 6.53093
358 1 -1.1104 6.70094 16.6462 6.50741
340 1 -1.1104 6.5024 10.9519 3.62929
392 1 -1.1104 6.6326 16.7907 0.958906
380 2 2.2208 10.8244 12.4033 5.15959
381 1 -1.1104 12.2065 11.0036 1.08686
383 2 2.2208 10.762 9.6642 2.31353
384 1 -1.1104 12.3122 11.1058 3.81784
385 2 2.2208 7.99159 12.5046 2.32568
386 2 2.2208 7.90392 9.7882 5.13009
387 1 -1.1104 9.33174 11.1831 0.898864
389 1 -1.1104 9.35386 11.0036 3.77143
393 2 2.2208 10.7814 18.0601 5.15804
394 1 -1.1104 12.3023 13.7738 0.875436
396 1 -1.1104 12.4468 19.4439 0.842293
398 1 -1.1104 12.2145 13.7859 3.79315
399 1 -1.1104 12.3173 19.2893 3.70949
400 1 -1.1104 12.2555 16.645 0.908656
402 2 2.2208 10.895 15.3166 2.34084
403 2 2.2208 10.8987 20.8121 2.20402
404 1 -1.1104 12.214 16.5731 3.63561
405 1 -1.1104 9.46259 13.9249 0.939646
407 1 -1.1104 9.63209 19.5272 0.798467
409 2 2.2208 8.03242 18.1183 2.37818
410 1 -1.1104 9.43061 13.8859 3.73756
411 1 -1.1104 9.54534 19.437 3.56138
412 2 2.2208 8.01109 15.1893 5.14831
413 2 2.2208 8.00042 20.8933 4.97958
414 1 -1.1104 9.61111 16.7133 0.980518
416 1 -1.1104 9.34209 16.6653 3.74957
406 1 -1.1104 9.41017 13.7929 6.50381
415 1 -1.1104 9.46687 16.7837 6.54603
388 1 -1.1104 9.44887 11.1174 6.56984
382 1 -1.1104 12.1621 10.8909 6.58127
401 1 -1.1104 12.1827 16.5946 6.45765
397 1 -1.1104 12.1394 19.3411 6.36277
395 1 -1.1104 12.3209 13.7688 6.64144
473 1 -1.1104 12.1443 13.8569 9.38413
471 1 -1.1104 9.33818 11.1276 12.1401
9298 2 2.2208 -0.290532 17.911 10.7789
378 2 2.2208 -0.274349 20.859 2.29258
482 2 2.2208 5.06761 15.1986 13.4168
478 2 2.2208 2.45402 18.0094 13.5955
419 1 -1.1104 3.66328 19.4184 12.0656
420 1 -1.1104 3.85265 13.7512 12.0455
424 1 -1.1104 1.09445 19.4139 9.24428
425 1 -1.1104 0.980281 16.6653 9.33798
426 2 2.2208 5.22463 20.935 7.7938
427 1 -1.1104 0.840997 13.801 9.26964
428 2 2.2208 5.21336 15.225 7.98988
431 1 -1.1104 1.03314 19.3603 12.1119
432 1 -1.1104 1.05171 13.9194 12.0978
433 2 2.2208 5.11552 18.0518 10.6537
434 1 -1.1104 3.82712 19.4923 9.12687
436 2 2.2208 2.37392 18.046 7.85311
437 1 -1.1104 3.72354 16.6916 9.27908
438 1 -1.1104 3.85344 13.8263 9.43165
440 1 -1.1104 1.03005 16.6765 12.3087
441 1 -1.1104 3.77391 16.4847 12.0089
442 2 2.2208 2.58333 20.7695 10.6421
443 2 2.2208 5.26021 12.3781 10.7476
444 1 -1.1104 0.814261 11.0098 11.9867
446 2 2.2208 2.31669 15.1976 10.6282
447 2 2.2208 5.15045 9.76414 7.8359
448 1 -1.1104 1.05373 11.0946 9.31907
450 2 2.2208 2.43152 12.4788 7.95558
451 2 2.2208 2.31001 9.64377 10.6257
452 1 -1.1104 3.61891 11.0118 12.134
453 1 -1.1104 3.77216 11.0639 9.34399
481 2 2.2208 2.42351 12.5392 13.6065
479 2 2.2208 5.20624 20.8072 13.5004
480 2 2.2208 5.15068 9.70841 13.4219
455 2 2.2208 10.7849 12.4187 10.74
464 1 -1.1104 9.34915 19.3361 11.9726
445 1 -1.1104 6.54572 11.1341 12.0615
474 2 2.2208 8.0634 9.63147 10.6445
468 1 -1.1104 9.41755 11.1315 9.31668
454 1 -1.1104 12.202 11.0394 12.1575
470 1 -1.1104 12.2328 16.6328 12.1996
408 1 -1.1104 9.37415 19.5509 6.26198
460 2 2.2208 8.03841 15.2403 10.7136
475 2 2.2208 8.08223 12.5691 7.95943
439 1 -1.1104 6.47363 16.5886 12.0791
449 1 -1.1104 6.55387 10.9798 9.29446
430 1 -1.1104 6.76926 13.8671 12.091
429 1 -1.1104 6.27698 19.4707 12.0468
462 1 -1.1104 9.31702 13.8099 9.55997
472 1 -1.1104 12.3646 19.4477 9.30245
461 1 -1.1104 9.59348 19.2957 9.21982
456 2 2.2208 10.8851 18.0666 10.84
483 2 2.2208 10.8788 20.8803 13.3847
487 2 2.2208 10.8748 9.66786 13.5671
488 2 2.2208 7.96101 12.5507 13.4437
463 2 2.2208 7.96597 18.0137 7.86934
377 1 -1.1104 12.2475 11.0768 9.4547
422 1 -1.1104 6.59335 16.6979 9.38281
467 2 2.2208 10.8907 20.7715 7.89054
477 1 -1.1104 12.1487 13.788 12.3004
466 1 -1.1104 12.3607 16.7282 9.43275
465 1 -1.1104 9.61445 14.0197 12.1568
476 1 -1.1104 12.1902 19.4351 12.1977
421 1 -1.1104 6.57786 19.5632 9.36918
423 1 -1.1104 6.68526 13.8066 9.27648
458 1 -1.1104 9.38351 16.6567 12.1411
457 1 -1.1104 9.36973 16.5474 9.18947
379 2 2.2208 10.749 9.57148 7.88916
459 2 2.2208 7.96136 21.0185 10.6947
469 2 2.2208 10.8431 15.2512 7.98367
9177 2 2.2208 13.5646 15.2532 5.12344
9301 2 2.2208 13.648 18.0228 13.4732
418 2 2.2208 13.6741 12.4121 2.40778
9274 2 2.2208 -0.408594 9.62983 7.88434
9294 2 2.2208 13.5643 15.1594 10.8177
9146 2 2.2208 13.5403 9.57583 5.03395
9145 2 2.2208 13.6825 20.8089 5.16917
9295 2 2.2208 13.6462 17.9358 7.87563
503 2 2.2208 5.22848 12.4522 16.3611
504 1 -1.1104 0.950446 11.0048 17.7655
506 2 2.2208 4.96622 9.72703 19.1067
507 1 -1.1104 0.97414 11.0746 14.8368
511 2 2.2208 2.2374 12.559 19.2784
512 2 2.2208 2.3211 9.75171 16.3603
513 1 -1.1104 3.70339 11.1785 17.6953
514 1 -1.1104 3.81096 11.0001 14.9343
516 2 2.2208 5.37231 18.1621 16.2466
517 1 -1.1104 0.889388 13.7988 17.9123
518 1 -1.1104 1.09977 19.6276 17.8838
521 1 -1.1104 0.968019 13.8645 14.9669
523 1 -1.1104 1.0277 19.4118 15.0714
529 1 -1.1104 1.10247 16.6952 17.8809
531 2 2.2208 5.16283 15.4335 19.1351
532 2 2.2208 5.1249 20.8714 19.1574
533 1 -1.1104 0.993471 16.6353 15.1473
537 1 -1.1104 3.90032 13.9162 17.7871
538 1 -1.1104 3.93755 19.4438 17.8382
539 2 2.2208 2.44834 18.0907 19.1905
540 1 -1.1104 3.7343 13.8048 14.9698
542 1 -1.1104 3.85285 19.3978 15.0373
544 2 2.2208 2.39229 15.2966 16.4735
545 2 2.2208 2.39825 20.8606 16.3231
546 1 -1.1104 3.84057 16.8051 17.7387
547 1 -1.1104 3.71773 16.6179 14.8526
527 1 -1.1104 6.75832 19.5702 14.9213
530 1 -1.1104 6.53586 16.8383 17.6268
548 1 -1.1104 3.82415 16.7652 20.5131
520 1 -1.1104 6.69601 19.6497 17.6772
515 1 -1.1104 3.67559 11.0599 20.6806
522 1 -1.1104 0.781926 14.0743 20.678
541 1 -1.1104 3.59573 13.8875 20.4757
543 1 -1.1104 3.67563 19.5751 20.5722
508 1 -1.1104 1.06902 11.1182 20.6508
524 1 -1.1104 1.11586 19.5594 20.6316
510 1 -1.1104 6.47468 11.1093 20.4638
519 1 -1.1104 6.75815 13.8189 17.5475
525 1 -1.1104 6.44699 13.9126 14.7453
657 2 2.2208 7.96284 9.75177 21.8694
588 2 2.2208 13.6047 12.4628 19.1975
646 2 2.2208 8.04228 18.0184 24.6093
505 1 -1.1104 6.42148 10.8451 17.7096
528 1 -1.1104 6.5804 19.6136 20.4829
535 1 -1.1104 6.5179 16.5918 14.8797
509 1 -1.1104 6.57137 11.0873 14.8834
554 2 2.2208 10.668 12.4741 16.367
555 1 -1.1104 12.3397 11.1171 17.9031
556 2 2.2208 10.8472 9.79642 19.1337
557 1 -1.1104 12.2887 11.0403 15.0161
559 2 2.2208 7.78527 12.4685 19.1208
560 2 2.2208 7.85035 9.65619 16.2704
561 1 -1.1104 9.15194 11.066 17.7229
562 1 -1.1104 9.26765 11.0976 14.9278
564 2 2.2208 10.9131 18.0901 16.3334
565 1 -1.1104 12.2085 13.929 17.6948
566 1 -1.1104 12.2513 19.3377 17.8539
567 1 -1.1104 12.0875 13.8468 14.8755
569 1 -1.1104 12.1909 19.5041 14.9491
571 1 -1.1104 12.231 16.6196 17.7465
572 2 2.2208 10.7722 15.2805 19.0635
573 2 2.2208 10.8509 20.8556 19.2692
574 1 -1.1104 12.2485 16.5819 15.0013
576 1 -1.1104 9.32782 13.8122 17.7413
577 1 -1.1104 9.49019 19.5082 17.7634
578 2 2.2208 8.13108 18.1117 19.0964
579 1 -1.1104 9.3685 13.894 15.0094
581 1 -1.1104 9.45991 19.5249 14.6927
583 2 2.2208 8.03256 15.2781 16.2533
584 2 2.2208 8.05823 20.9879 16.3053
585 1 -1.1104 9.43648 16.744 17.7271
586 1 -1.1104 9.43336 16.6058 14.9885
580 1 -1.1104 9.28514 13.8397 20.4549
582 1 -1.1104 9.5611 19.4399 20.6385
536 1 -1.1104 6.67398 16.7571 20.6105
526 1 -1.1104 6.37035 14.022 20.4846
563 1 -1.1104 9.20946 11.0882 20.5321
568 1 -1.1104 12.1949 13.8304 20.5706
558 1 -1.1104 12.1142 11.0255 20.667
587 1 -1.1104 9.44461 16.7861 20.6274
570 1 -1.1104 12.3388 19.3986 20.6895
631 2 2.2208 10.7816 12.474 21.9639
659 1 -1.1104 12.3486 19.4436 23.3677
636 2 2.2208 -0.396058 18.1312 22.0389
641 2 2.2208 8.02115 20.8058 21.9605
534 1 -1.1104 0.946555 16.7276 20.6958
498 2 2.2208 2.36577 15.2215 27.431
500 2 2.2208 5.12174 12.5039 27.4931
499 2 2.2208 2.37538 9.65868 27.4802
594 1 -1.1104 3.74159 19.4791 23.3627
596 1 -1.1104 3.65506 13.8379 23.4795
598 1 -1.1104 0.984563 19.6576 26.0902
599 1 -1.1104 0.962313 16.6047 26.1502
600 1 -1.1104 0.996429 13.8119 26.1633
602 2 2.2208 5.25718 20.7922 24.8485
603 2 2.2208 5.28581 15.2813 24.8548
605 1 -1.1104 0.899061 19.5418 23.4625
606 1 -1.1104 0.921963 13.8901 23.3431
607 2 2.2208 5.10646 18.1981 21.9626
608 1 -1.1104 3.75637 19.3729 26.2108
609 2 2.2208 2.32844 18.1812 24.8392
610 1 -1.1104 3.71755 16.765 26.1048
611 1 -1.1104 3.77713 13.9019 26.1203
613 1 -1.1104 0.937195 16.6777 23.4366
614 1 -1.1104 3.86686 16.7711 23.2422
615 2 2.2208 2.49366 20.9581 21.9446
616 2 2.2208 4.98647 12.4261 22.0015
617 1 -1.1104 0.873592 10.9348 23.3943
619 2 2.2208 2.29759 15.2769 22.1427
620 2 2.2208 5.07876 9.62753 24.7131
621 1 -1.1104 1.02137 11.0328 26.1866
623 2 2.2208 2.41924 12.465 24.9149
624 2 2.2208 2.31048 9.59127 21.9723
625 1 -1.1104 3.72261 11.0322 23.5201
626 1 -1.1104 3.8623 10.987 26.0765
492 2 2.2208 5.25718 18.0187 27.5652
622 1 -1.1104 6.53381 11.1235 26.1247
601 1 -1.1104 6.51291 19.398 23.4466
489 2 2.2208 2.36819 20.8998 27.4508
648 1 -1.1104 9.1296 13.7144 23.2678
654 1 -1.1104 12.3112 19.328 26.1639
604 1 -1.1104 6.32105 13.805 23.4898
655 1 -1.1104 12.1514 13.799 26.0511
640 1 -1.1104 9.51469 16.7974 23.3943
575 1 -1.1104 12.3754 16.6095 20.5455
496 2 2.2208 10.9075 18.0792 27.6139
647 1 -1.1104 9.47758 19.4141 23.2953
494 2 2.2208 10.808 12.4157 27.6
642 2 2.2208 7.95984 15.221 21.9091
493 2 2.2208 7.9935 15.3303 27.7777
658 2 2.2208 7.94486 12.4665 24.8325
651 2 2.2208 10.9094 20.7422 24.7052
495 2 2.2208 7.82555 9.59703 27.5894
632 2 2.2208 10.9677 18.0185 21.9569
612 1 -1.1104 6.68754 16.7391 23.3738
597 1 -1.1104 6.65803 16.6305 26.3447
618 1 -1.1104 6.50407 11.0466 23.2417
595 1 -1.1104 6.72956 13.8733 26.3357
630 1 -1.1104 12.2692 11.0804 23.4727
644 1 -1.1104 9.47263 13.9188 26.2192
650 1 -1.1104 9.22621 11.1579 26.2034
656 1 -1.1104 9.40287 11.0755 23.2405
653 1 -1.1104 12.2572 16.591 23.3427
628 1 -1.1104 12.0158 10.9478 26.2133
629 2 2.2208 10.7863 9.659 24.7085
645 1 -1.1104 6.59789 19.4712 26.2364
634 1 -1.1104 12.0678 13.9057 23.3763
652 2 2.2208 10.7566 15.2711 24.749
649 1 -1.1104 12.2019 16.6038 26.2277
643 1 -1.1104 9.4124 19.4926 25.8738
639 1 -1.1104 9.41853 16.6441 26.2398
590 2 2.2208 13.5442 15.2442 16.3893
637 2 2.2208 -0.507089 9.69212 24.8494
486 2 2.2208 13.5128 9.70674 27.6175
638 2 2.2208 -0.408676 12.3812 22.1005
549 2 2.2208 13.641 9.7301 21.9279
591 2 2.2208 13.7176 15.1997 21.9259
592 2 2.2208 13.546 18.0598 24.7507
552 2 2.2208 -0.332209 20.8715 19.3335
497 2 2.2208 8.04771 20.862 27.4544
9311 2 2.2208 -0.421276 15.2099 13.5905
660 2 2.2208 5.19495 23.7739 5.19294
661 2 2.2208 5.24631 29.2607 5.18738
662 1 -1.1104 1.02773 25.2083 0.935096
663 1 -1.1104 1.09172 25.1267 3.65036
664 1 -1.1104 1.20615 22.2014 0.750693
665 1 -1.1104 1.0157 27.9625 0.758305
666 2 2.2208 5.24095 26.5299 2.31249
667 1 -1.1104 0.900485 22.3699 3.52865
668 1 -1.1104 0.998803 27.8893 3.61901
669 1 -1.1104 3.83647 25.2321 0.845971
670 2 2.2208 2.41081 23.7779 2.26588
671 2 2.2208 2.43933 29.2603 2.38351
672 1 -1.1104 3.85358 25.216 3.6615
673 2 2.2208 2.36284 26.594 5.07204
674 1 -1.1104 3.90095 22.3137 0.864291
675 1 -1.1104 3.85957 27.926 0.843831
676 1 -1.1104 3.87543 22.4028 3.62598
677 1 -1.1104 3.78065 27.927 3.71153
678 1 -1.1104 0.981055 30.6816 0.941656
679 1 -1.1104 1.07346 30.659 3.74832
680 1 -1.1104 1.1511 33.4445 0.959421
681 2 2.2208 5.38381 32.1477 2.1391
682 1 -1.1104 1.04746 33.3092 3.70901
684 1 -1.1104 3.76065 30.7826 0.809756
685 1 -1.1104 4.05381 30.7677 3.73889
686 2 2.2208 2.5538 32.1414 5.08401
687 1 -1.1104 3.85562 33.4355 0.798972
688 1 -1.1104 3.92057 33.394 3.62699
735 1 -1.1104 1.06222 22.2476 6.48245
696 1 -1.1104 6.70036 28.0289 1.02797
746 1 -1.1104 3.88968 30.7007 6.64978
741 1 -1.1104 3.90825 28.016 6.57259
744 1 -1.1104 1.02501 33.5727 6.5132
742 1 -1.1104 1.06114 30.6825 6.55394
697 1 -1.1104 6.48188 22.2934 3.75833
739 1 -1.1104 3.85157 25.066 6.58504
698 1 -1.1104 6.69416 27.9932 3.87157
683 1 -1.1104 6.71153 33.4696 3.50231
745 1 -1.1104 6.6695 33.3702 6.38834
747 1 -1.1104 3.81944 33.6019 6.41
918 2 2.2208 7.80354 29.1822 13.4828
9650 2 2.2208 -0.343644 32.0249 13.4984
730 2 2.2208 13.7197 23.6252 2.38305
694 1 -1.1104 6.60754 25.0918 3.67262
693 1 -1.1104 6.57968 25.157 0.965667
738 1 -1.1104 6.61311 27.8523 6.62592
717 1 -1.1104 6.68973 30.8051 0.788563
719 1 -1.1104 6.7046 33.6057 0.853037
695 1 -1.1104 6.56199 22.2954 0.988686
718 1 -1.1104 6.7356 30.7053 3.83562
699 2 2.2208 10.9822 23.5844 5.07523
700 2 2.2208 10.7693 29.3503 5.2474
701 1 -1.1104 12.2244 25.1882 1.16036
702 1 -1.1104 12.1492 25.1682 3.92082
703 1 -1.1104 12.3026 22.3076 0.887545
704 1 -1.1104 12.3321 28.0084 0.893724
705 2 2.2208 10.7953 26.6338 2.41765
706 1 -1.1104 12.3942 22.3047 3.71325
707 1 -1.1104 12.242 27.9307 3.68598
708 1 -1.1104 9.56902 24.9863 0.930113
709 2 2.2208 8.02473 23.7782 2.34069
710 2 2.2208 8.09956 29.4456 2.31499
711 1 -1.1104 9.40871 25.0225 3.74969
712 2 2.2208 7.96247 26.4694 5.27478
713 1 -1.1104 9.42261 22.1837 0.989801
714 1 -1.1104 9.42035 27.9459 0.930253
715 1 -1.1104 9.52257 22.1112 3.76311
716 1 -1.1104 9.3712 27.8771 3.63778
720 1 -1.1104 12.3325 30.8077 0.929637
721 1 -1.1104 12.2376 30.6169 3.96736
722 1 -1.1104 12.3057 33.4981 0.889723
723 2 2.2208 10.9416 32.1339 2.27664
724 1 -1.1104 12.2353 33.4328 3.76022
725 1 -1.1104 9.54616 30.7407 0.913751
726 1 -1.1104 9.51524 30.7288 3.65594
727 2 2.2208 8.14167 32.098 5.01247
728 1 -1.1104 9.46426 33.5225 0.928501
729 1 -1.1104 9.63707 33.5279 3.71339
793 1 -1.1104 12.203 33.3895 6.56592
787 1 -1.1104 12.246 22.1998 6.42207
789 1 -1.1104 9.22844 25.3359 6.63727
788 1 -1.1104 12.3924 27.778 6.41622
790 1 -1.1104 9.55309 22.4118 6.54632
737 1 -1.1104 6.76727 22.3158 6.45869
794 1 -1.1104 9.36002 30.7751 6.41115
9630 2 2.2208 -0.325593 32.1668 7.82438
740 1 -1.1104 3.88619 22.5081 6.58411
733 1 -1.1104 1.10609 25.1517 6.59626
736 1 -1.1104 1.05766 27.8999 6.3437
743 1 -1.1104 6.56506 30.5932 6.63896
815 2 2.2208 2.41253 23.5942 13.4348
748 2 2.2208 5.21796 23.6534 10.7487
749 2 2.2208 5.06927 29.3566 10.7611
750 1 -1.1104 1.05072 25.0688 12.1105
752 1 -1.1104 0.901765 25.0721 9.34528
754 1 -1.1104 1.16235 22.1601 12.0624
755 1 -1.1104 1.07265 27.8434 12.0473
758 2 2.2208 5.22118 26.4982 7.97734
759 1 -1.1104 0.941096 22.1667 9.30573