ITEM: TIMESTEP
60000
ITEM: NUMBER OF ATOMS
17910
ITEM: BOX BOUNDS pp pp pp
-3.6024638399395775e-01 2.7700246383994518e+01
-4.2401172539591929e+00 3.3232011725396580e+02
-3.5899716000237308e-01 2.7698997160002506e+01
ITEM: ATOMS id type q x y z
1 2 2.2208 5.17973 1.41593 5.24482
2 1 -1.1104 0.954632 -2.78763 0.967002
3 1 -1.1104 0.928022 2.71327 0.956423
6 1 -1.1104 0.946171 -2.80999 3.93144
7 1 -1.1104 0.955321 2.71203 3.87434
10 1 -1.1104 1.13048 0.0226809 1.06674
12 2 2.2208 5.33752 -1.30593 2.42758
13 2 2.2208 5.27121 4.33839 2.48317
14 1 -1.1104 0.987963 -0.00741837 3.87147
16 1 -1.1104 3.57738 -2.7437 1.10976
17 1 -1.1104 3.96075 2.89043 1.03157
18 2 2.2208 2.42573 1.43834 2.50001
19 1 -1.1104 3.80122 -2.79649 3.88179
20 1 -1.1104 3.87018 3.02863 3.87404
21 2 2.2208 2.42715 -1.37685 5.30941
22 2 2.2208 2.28517 4.13757 5.34146
23 1 -1.1104 3.99822 0.0586361 1.20762
24 1 -1.1104 3.80462 0.145471 3.84573
25 2 2.2208 5.21111 6.95196 5.29299
26 1 -1.1104 1.0664 8.39223 1.14672
28 1 -1.1104 0.984056 8.30995 3.78223
30 1 -1.1104 1.10334 5.62768 0.929685
32 1 -1.1104 1.05912 5.59123 3.9206
34 1 -1.1104 3.79289 8.31875 0.834763
35 2 2.2208 2.42563 7.06791 2.51502
37 1 -1.1104 3.80603 5.60781 1.08631
38 1 -1.1104 3.95145 5.63728 3.83654
36 1 -1.1104 3.86808 8.62817 3.77888
8 1 -1.1104 6.54034 -2.75113 3.71787
81 1 -1.1104 0.975209 2.73506 6.70769
80 1 -1.1104 0.913093 -2.6872 6.6614
86 1 -1.1104 3.81642 -2.85025 6.62167
8574 2 2.2208 2.36718 -4.16435 2.46373
324 2 2.2208 2.36348 -1.44494 -0.323026
8575 2 2.2208 5.28115 -4.22734 5.15213
171 2 2.2208 2.44171 4.23584 -0.383282
8578 2 2.2208 2.26858 -4.10494 8.10688
29 1 -1.1104 6.71133 8.32339 3.92668
11 1 -1.1104 6.89921 0.166894 0.956728
15 1 -1.1104 6.73462 -0.00144624 3.77391
9 1 -1.1104 6.60613 2.71868 3.78864
4 1 -1.1104 6.50967 -2.73795 1.03449
89 1 -1.1104 0.944454 8.25093 6.63371
87 1 -1.1104 3.76529 2.71681 6.62886
91 1 -1.1104 1.05002 5.48415 6.68251
82 1 -1.1104 6.64048 -2.8478 6.53022
8576 2 2.2208 8.12864 -4.10455 2.28255
149 1 -1.1104 9.3792 5.4755 6.67831
33 1 -1.1104 6.63787 5.55019 4.07849
5 1 -1.1104 6.73787 2.9716 1.19157
31 1 -1.1104 6.69284 5.86213 1.11253
27 1 -1.1104 6.68267 8.57307 1.09683
46 2 2.2208 10.7912 1.37208 5.28917
47 1 -1.1104 12.2405 -2.88762 1.0605
48 1 -1.1104 12.257 2.69336 0.966039
49 1 -1.1104 12.2272 -2.76672 3.86546
50 1 -1.1104 12.1777 2.81306 3.91259
51 1 -1.1104 12.4031 -0.0574484 1.0213
52 2 2.2208 10.7962 -1.39203 2.46373
53 2 2.2208 10.8121 4.21515 2.50023
54 1 -1.1104 12.144 -0.0582008 3.79178
55 1 -1.1104 9.4792 -2.74948 0.912458
56 1 -1.1104 9.46012 2.92152 0.935859
57 2 2.2208 8.12435 1.45431 2.41141
58 1 -1.1104 9.44931 -2.71971 3.82954
59 1 -1.1104 9.52919 2.76655 3.95726
60 2 2.2208 8.05565 -1.34151 5.23431
61 2 2.2208 8.05677 4.19285 5.33978
62 1 -1.1104 9.59058 0.109531 1.17125
63 1 -1.1104 9.44271 0.0236896 3.91258
64 2 2.2208 10.8295 6.99676 5.16227
66 1 -1.1104 12.0576 8.45698 3.88337
67 1 -1.1104 12.3749 5.56796 1.12813
68 1 -1.1104 12.3412 5.65233 3.8629
69 1 -1.1104 9.29058 8.44498 0.975881
70 2 2.2208 8.01492 6.99032 2.56192
71 1 -1.1104 9.44945 8.36972 3.87965
72 1 -1.1104 9.44963 5.69268 1.07435
73 1 -1.1104 9.4014 5.59695 3.86627
65 1 -1.1104 12.2059 8.43775 1.22346
165 2 2.2208 10.872 1.47112 -0.33538
8840 2 2.2208 -0.31913 4.09675 8.0603
141 1 -1.1104 12.2211 -0.0152301 6.50959
8799 2 2.2208 13.5796 4.25832 5.25426
142 1 -1.1104 9.42112 -2.93646 6.6235
88 1 -1.1104 3.77334 -0.0371149 6.62584
94 1 -1.1104 3.76566 5.67704 6.72632
84 1 -1.1104 0.986196 0.0625165 6.7009
93 1 -1.1104 3.69549 8.36872 6.59634
85 1 -1.1104 6.52308 -0.0416297 6.63581
139 1 -1.1104 12.2313 -2.80783 6.64403
95 2 2.2208 5.20903 1.32424 10.8688
96 1 -1.1104 0.912233 -2.82802 12.2159
97 1 -1.1104 0.98003 2.8199 12.3291
100 1 -1.1104 1.03186 -2.65409 9.44782
101 1 -1.1104 1.052 2.82039 9.55813
104 1 -1.1104 0.832499 0.11645 12.295
106 2 2.2208 5.21718 -1.4538 7.90329
107 2 2.2208 5.04158 4.1891 8.10848
108 1 -1.1104 0.976485 0.0452678 9.5673
110 1 -1.1104 3.69449 -2.87725 12.1783
111 1 -1.1104 3.72925 2.76911 12.2037
112 2 2.2208 2.37727 1.39973 8.16226
113 1 -1.1104 3.80133 -2.68929 9.41302
114 1 -1.1104 3.79908 2.88397 9.49831
115 2 2.2208 2.40577 -1.49639 10.6874
116 2 2.2208 2.38431 4.26415 11.0231
117 1 -1.1104 3.6612 -0.0319087 12.2917
118 1 -1.1104 3.71497 -0.0258444 9.36983
119 2 2.2208 5.19903 7.00005 10.7674
120 1 -1.1104 1.04077 8.46141 12.1536
122 1 -1.1104 0.904368 8.47807 9.52533
124 1 -1.1104 0.974259 5.66097 12.1455
126 1 -1.1104 1.08373 5.64542 9.40492
128 1 -1.1104 3.82611 8.4585 12.2513
129 2 2.2208 2.35863 7.01703 8.12652
130 1 -1.1104 4.03181 8.62289 9.5238
131 1 -1.1104 3.9046 5.66403 12.3149
132 1 -1.1104 3.73908 5.69103 9.44965
8579 2 2.2208 5.26788 -4.20212 10.7863
148 1 -1.1104 9.31034 5.41032 9.56416
99 1 -1.1104 6.60418 2.78436 12.2229
98 1 -1.1104 6.62967 -2.87564 12.1592
8942 2 2.2208 -0.30234 -1.40923 2.40855
123 1 -1.1104 6.74786 8.25421 9.47436
83 1 -1.1104 6.59681 2.74395 6.64435
103 1 -1.1104 6.46246 2.75465 9.42048
109 1 -1.1104 6.53905 -0.020902 9.44541
102 1 -1.1104 6.45155 -2.76383 9.34202
121 1 -1.1104 6.56877 8.35977 12.3229
90 1 -1.1104 6.64773 8.35905 6.57106
105 1 -1.1104 6.53979 -0.0581864 12.2966
125 1 -1.1104 6.7609 5.56462 12.2863
159 2 2.2208 5.113 -1.43134 13.6616
8586 2 2.2208 2.38721 -4.20052 13.6398
8572 2 2.2208 10.7936 -4.24543 10.8739
8883 2 2.2208 13.5544 1.31205 2.52589
8940 2 2.2208 -0.31895 6.79067 5.30211
155 1 -1.1104 12.388 2.8996 12.3756
78 2 2.2208 10.7671 4.24517 8.12271
8939 2 2.2208 13.6574 1.36894 8.10127
153 2 2.2208 10.717 1.24858 10.8961
92 1 -1.1104 6.55583 5.52317 6.80868
40 2 2.2208 7.99381 1.42751 8.06416
8877 2 2.2208 13.6713 7.01822 8.09346
8842 2 2.2208 13.523 4.1553 10.8556
157 1 -1.1104 12.1017 2.81139 9.5255
79 1 -1.1104 9.37625 -0.141639 9.43013
75 1 -1.1104 12.2278 8.27277 12.1945
135 2 2.2208 7.9336 -1.45376 10.8236
133 1 -1.1104 9.44395 -0.183859 12.3673
43 1 -1.1104 9.24222 2.54471 12.1658
76 2 2.2208 10.8862 6.89677 10.9366
8941 2 2.2208 13.6314 -1.30143 10.9218
145 1 -1.1104 12.271 8.37205 6.746
146 1 -1.1104 12.312 5.6664 6.57928
143 1 -1.1104 9.29722 2.84035 6.6081
147 1 -1.1104 9.4306 8.16242 6.69237
150 1 -1.1104 9.53608 5.33246 12.2457
166 2 2.2208 8.08477 6.99249 13.5782
45 1 -1.1104 12.3609 5.55556 12.4181
152 2 2.2208 7.96435 6.83861 8.04769
42 1 -1.1104 12.2401 5.64665 9.42099
134 2 2.2208 8.03585 4.07772 10.9183
39 1 -1.1104 9.40074 -2.88624 9.37745
154 1 -1.1104 12.293 -2.74215 12.414
127 1 -1.1104 6.69338 5.43521 9.47473
156 1 -1.1104 12.2385 -2.77862 9.49086
41 1 -1.1104 9.37359 8.34545 12.2555
138 1 -1.1104 9.28809 2.63897 9.46214
151 1 -1.1104 9.38571 8.19931 9.52694
77 1 -1.1104 12.265 -0.0271189 9.53262
140 1 -1.1104 12.1681 2.76723 6.72891
137 1 -1.1104 12.1184 0.00950558 12.372
136 2 2.2208 10.6806 -1.48443 8.00385
44 1 -1.1104 9.26309 -3.04842 12.2122
74 1 -1.1104 12.1922 8.25095 9.52176
144 1 -1.1104 9.3778 0.0090377 6.65216
164 2 2.2208 8.09629 -1.29099 -0.356907
8587 2 2.2208 10.8591 -4.19733 -0.318516
170 2 2.2208 5.31822 1.45583 -0.293381
173 2 2.2208 5.21887 1.43016 16.5464
174 1 -1.1104 1.00346 -2.9587 17.8248
175 1 -1.1104 0.935321 2.93802 17.8576
178 1 -1.1104 1.01386 -2.98142 15.1176
180 1 -1.1104 1.04859 2.86977 15.1254
186 1 -1.1104 1.01194 -0.094539 17.9173
188 2 2.2208 5.25796 -1.35916 19.2725
189 2 2.2208 5.20555 4.24454 19.3142
190 1 -1.1104 1.01306 -0.0269059 15.0161
194 1 -1.1104 3.80431 -2.88496 17.8819
195 1 -1.1104 3.85068 2.729 17.8016
196 2 2.2208 2.50506 1.45444 19.2735
197 1 -1.1104 3.7753 -2.7616 15.1431
199 1 -1.1104 3.83705 2.86725 15.0684
201 2 2.2208 2.43695 -1.38514 16.5038
202 2 2.2208 2.30379 4.21719 16.4243
203 1 -1.1104 3.85348 -0.0653599 18.0818
204 1 -1.1104 3.79923 0.103639 15.147
206 2 2.2208 5.22766 6.94435 16.2219
207 1 -1.1104 1.11838 8.4923 18.0546
209 1 -1.1104 0.997184 8.45895 15.1395
213 1 -1.1104 1.12245 5.73313 17.7952
215 1 -1.1104 0.927528 5.61911 14.9743
219 1 -1.1104 3.88176 8.23902 17.5991
220 2 2.2208 2.58937 7.09841 19.2231
221 1 -1.1104 3.77052 8.4067 14.9567
223 1 -1.1104 3.78876 5.47175 17.795
224 1 -1.1104 3.90357 5.65113 14.9813
216 1 -1.1104 0.869784 5.45193 20.7104
198 1 -1.1104 3.7837 -2.90023 20.6566
222 1 -1.1104 4.03542 8.24728 20.5161
9070 2 2.2208 -0.358777 4.14453 19.2257
192 1 -1.1104 6.58773 -0.0218499 15.1531
187 1 -1.1104 6.66997 0.127421 17.7989
217 1 -1.1104 6.74269 5.5305 15.0542
212 1 -1.1104 6.78558 8.60278 20.5217
183 1 -1.1104 6.61166 -2.80556 20.8217
179 1 -1.1104 1.10552 -2.79192 20.5455
225 1 -1.1104 3.85594 5.6379 20.7527
210 1 -1.1104 1.18188 8.34996 20.7181
162 2 2.2208 5.17514 4.24628 13.6361
161 2 2.2208 2.35933 1.37357 13.7104
218 1 -1.1104 6.57091 5.66323 20.8734
248 1 -1.1104 12.223 -0.172237 20.8466
177 1 -1.1104 6.52097 2.91338 17.8222
208 1 -1.1104 6.67782 8.38444 17.6677
214 1 -1.1104 6.78118 5.69389 17.9881
182 1 -1.1104 6.52397 -2.90902 15.0721
184 1 -1.1104 6.58878 2.73677 15.0926
9011 2 2.2208 13.6258 1.29744 19.2938
211 1 -1.1104 6.71327 8.40112 15.0289
176 1 -1.1104 6.60434 -2.68798 17.9326
237 2 2.2208 10.6975 1.34332 16.5367
238 1 -1.1104 12.3489 -2.99219 17.852
239 1 -1.1104 12.1775 2.67352 17.9031
240 1 -1.1104 12.295 -2.94851 15.1109
242 1 -1.1104 12.2762 2.70055 15.0118
244 1 -1.1104 12.1039 -0.143946 17.9662
245 2 2.2208 10.7086 -1.4381 19.4703
246 2 2.2208 10.8536 4.24428 19.3375
247 1 -1.1104 12.1151 -0.057108 15.2624
249 1 -1.1104 9.37779 -2.8427 18.0622
250 1 -1.1104 9.43058 2.79935 18.0048
251 2 2.2208 8.10036 1.34374 19.2843
252 1 -1.1104 9.26442 -2.81982 15.2194
254 1 -1.1104 9.48681 2.82105 15.1004
256 2 2.2208 8.00389 -1.46624 16.4712
257 2 2.2208 8.04246 4.22564 16.5278
258 1 -1.1104 9.39512 0.00890798 17.8617
259 1 -1.1104 9.1465 0.0165851 15.141
261 2 2.2208 10.892 6.92376 16.5369
263 1 -1.1104 12.2253 8.41091 15.0838
265 1 -1.1104 12.3087 5.52467 17.8896
266 1 -1.1104 12.3416 5.46689 15.1641
268 1 -1.1104 9.40246 8.47222 17.746
269 2 2.2208 8.0707 7.01686 19.3359
270 1 -1.1104 9.48417 8.46753 14.9155
272 1 -1.1104 9.51717 5.65766 17.9655
273 1 -1.1104 9.43875 5.63265 15.1208
262 1 -1.1104 12.2565 8.33908 18.0393
267 1 -1.1104 12.238 5.42607 20.7426
243 1 -1.1104 12.388 2.69604 20.8892
274 1 -1.1104 9.4489 5.57797 20.703
9078 2 2.2208 13.5963 -1.44708 16.5887
260 1 -1.1104 9.36244 -0.0653277 20.7339
264 1 -1.1104 12.435 8.21758 20.7647
271 1 -1.1104 9.57137 8.15473 20.6059
241 1 -1.1104 12.2532 -2.96203 20.5641
9006 2 2.2208 13.5813 7.08772 24.967
8951 2 2.2208 13.5854 1.37931 13.6438
167 2 2.2208 7.91136 1.3989 13.6136
193 1 -1.1104 6.61074 -0.0712687 20.5662
8600 2 2.2208 2.43598 -4.29773 24.9747
229 2 2.2208 10.7768 -4.21476 22.0999
8610 2 2.2208 5.25398 -4.0902 22.0239
181 1 -1.1104 0.980897 2.72175 20.6462
191 1 -1.1104 1.03315 -0.07496 20.6642
205 1 -1.1104 3.91617 -0.0725713 20.8489
200 1 -1.1104 3.80223 2.80072 20.666
312 1 -1.1104 1.07897 8.33388 26.3602
285 2 2.2208 5.24179 1.35435 22.126
286 1 -1.1104 1.08144 -2.85604 23.4868
287 1 -1.1104 0.954374 2.69087 23.4954
290 1 -1.1104 1.02094 -2.86037 26.3384
291 1 -1.1104 1.07809 2.84458 26.2448
294 1 -1.1104 0.950291 -0.0891343 23.4566
296 2 2.2208 5.18292 -1.35772 24.9488
297 2 2.2208 5.17264 4.11683 24.9764
298 1 -1.1104 1.04311 -0.00764656 26.2993
300 1 -1.1104 3.94104 -2.80554 23.3536
301 1 -1.1104 3.76669 2.70085 23.5647
302 2 2.2208 2.45377 1.38375 24.9397
303 1 -1.1104 3.83812 -2.88753 26.3115
304 1 -1.1104 3.95259 2.78456 26.3249
305 2 2.2208 2.41238 -1.35886 21.9852
306 2 2.2208 2.34906 4.08469 22.0903
307 1 -1.1104 3.83001 0.00962495 23.5882
308 1 -1.1104 3.82351 0.0747483 26.4179
309 2 2.2208 5.26265 6.90221 22.1158
310 1 -1.1104 0.943884 8.47938 23.4938
314 1 -1.1104 1.05007 5.57194 23.5415
316 1 -1.1104 0.874751 5.57775 26.2358
318 1 -1.1104 3.87182 8.43823 23.2262
319 2 2.2208 2.48793 7.00524 24.8583
321 1 -1.1104 3.90589 5.49449 23.4389
322 1 -1.1104 3.8114 5.53657 26.3303
320 1 -1.1104 3.92721 8.37268 25.9903
331 2 2.2208 10.9576 4.20203 24.9767
292 1 -1.1104 6.55433 -2.75163 26.2941
315 1 -1.1104 6.56702 5.50701 23.5841
185 1 -1.1104 6.52812 2.8065 20.7731
313 1 -1.1104 6.60269 8.44282 26.2257
299 1 -1.1104 6.69317 0.0799241 26.3559
8653 2 2.2208 7.99075 -4.24375 19.3738
325 1 -1.1104 12.146 8.44118 23.5612
172 2 2.2208 5.30218 6.98378 27.7514
8583 2 2.2208 5.24796 -4.21747 27.6155
232 1 -1.1104 9.43608 -2.77015 26.3248
158 2 2.2208 10.8441 6.97944 27.7109
163 2 2.2208 7.95828 4.3329 27.6341
282 1 -1.1104 9.46445 5.68615 23.5177
8657 2 2.2208 7.97342 -4.27554 24.8678
253 1 -1.1104 9.36992 -2.89771 20.805
288 1 -1.1104 6.77295 -2.81594 23.6003
328 1 -1.1104 12.3496 5.71176 26.3088
293 1 -1.1104 6.72357 2.88421 26.4098
278 1 -1.1104 9.52656 2.86703 23.5804
228 2 2.2208 8.04644 -1.3547 22.1275
327 1 -1.1104 9.36144 8.52119 23.462
255 1 -1.1104 9.47444 2.69337 20.8179
235 1 -1.1104 12.3367 -2.68372 26.3006
275 1 -1.1104 12.1899 -2.8366 23.4036
329 1 -1.1104 9.56887 -2.78084 23.6045
289 1 -1.1104 6.74717 2.83077 23.5958
317 1 -1.1104 6.56151 5.74063 26.3587
311 1 -1.1104 6.66931 8.37347 23.2802
236 1 -1.1104 12.2962 2.90207 23.592
284 1 -1.1104 9.57839 0.142185 26.2583
295 1 -1.1104 6.65994 -0.0407436 23.5863
230 1 -1.1104 9.6183 2.86058 26.3035
283 1 -1.1104 9.46763 5.6552 26.4283
323 2 2.2208 11.0136 6.92114 22.1731
277 2 2.2208 8.13444 1.41119 24.9811
231 2 2.2208 10.9181 -1.37541 25.0293
279 2 2.2208 10.8738 1.46356 22.2632
227 2 2.2208 8.07427 4.10533 22.0987
330 1 -1.1104 12.3285 0.0540338 26.2842
233 1 -1.1104 12.3605 -0.0289944 23.5494
226 1 -1.1104 9.39685 0.0807091 23.5291
234 1 -1.1104 12.2056 2.9152 26.3032
281 1 -1.1104 9.52998 8.38955 26.1974
332 1 -1.1104 12.3304 5.65557 23.639
326 1 -1.1104 12.2653 8.48169 26.4651
280 2 2.2208 7.99518 7.02937 24.7772
9068 2 2.2208 -0.330941 7.01247 16.4726
8654 2 2.2208 2.3715 -4.18405 19.2397
169 2 2.2208 10.9302 4.19209 13.8405
160 2 2.2208 2.40365 7.07515 13.6595
168 2 2.2208 10.8162 -1.49416 13.8198
333 2 2.2208 5.25882 12.5167 5.20286
334 1 -1.1104 1.03747 11.2218 1.0723
338 2 2.2208 5.33246 9.89895 2.45165
339 1 -1.1104 1.20051 11.1853 3.79803
341 2 2.2208 2.53944 12.6419 2.5386
342 2 2.2208 2.37047 9.73725 5.2237
343 1 -1.1104 3.79754 11.2827 1.00971
345 1 -1.1104 3.95123 11.2654 3.89115
346 2 2.2208 5.19633 18.1271 5.20941
347 1 -1.1104 1.10477 13.9741 0.892098
349 1 -1.1104 1.03186 19.6391 1.09396
353 1 -1.1104 1.00867 13.903 3.72732
354 1 -1.1104 1.20331 19.5816 3.90627
356 1 -1.1104 1.04271 16.8588 1.01079
359 2 2.2208 5.24826 15.3339 2.43575
360 2 2.2208 5.27495 20.9624 2.51513
361 1 -1.1104 1.04428 16.7124 3.75747
363 1 -1.1104 3.93177 14.0283 0.94321
365 1 -1.1104 3.95817 19.7629 1.17838
367 2 2.2208 2.49073 18.1694 2.44127
368 1 -1.1104 3.87282 13.9332 3.92539
369 1 -1.1104 3.79108 19.4035 3.93902
370 2 2.2208 2.45962 15.2858 5.35548
371 2 2.2208 2.42115 20.965 5.32495
372 1 -1.1104 3.76102 16.7562 1.03025
374 1 -1.1104 3.78588 16.5363 3.92596
492 2 2.2208 5.2567 18.28 -0.311904
340 1 -1.1104 6.72136 11.1601 3.89544
9293 2 2.2208 -0.225187 12.539 5.21663
376 2 2.2208 -0.214376 9.77433 2.50408
336 1 -1.1104 6.67623 11.3166 0.959832
391 1 -1.1104 6.58462 19.4794 3.96552
378 2 2.2208 -0.325869 20.8884 2.5246
9299 2 2.2208 -0.354848 15.4147 8.10858
392 1 -1.1104 6.54521 16.9129 1.04946
350 1 -1.1104 6.75996 13.9707 1.14865
348 1 -1.1104 1.00005 14.0428 6.64458
366 1 -1.1104 3.9041 19.6836 6.72113
357 1 -1.1104 1.19629 16.7394 6.60228
335 1 -1.1104 1.01954 11.1281 6.64531
435 1 -1.1104 0.900476 19.5555 6.63806
358 1 -1.1104 6.44615 16.7774 6.57796
499 2 2.2208 2.391 9.82127 -0.423756
362 1 -1.1104 6.73497 16.6931 3.88684
494 2 2.2208 10.8513 12.4602 -0.383119
390 1 -1.1104 6.54515 19.6138 1.08421
355 1 -1.1104 6.66525 13.895 3.88354
380 2 2.2208 10.8811 12.5703 5.35228
381 1 -1.1104 12.2364 11.1461 1.14152
383 2 2.2208 10.7665 9.85859 2.43512
384 1 -1.1104 12.2528 11.1601 3.85501
385 2 2.2208 8.11321 12.558 2.43252
386 2 2.2208 8.24229 9.78137 5.27293
387 1 -1.1104 9.5003 11.1541 1.04643
389 1 -1.1104 9.56177 11.3023 3.95304
393 2 2.2208 10.8276 18.2389 5.29895
394 1 -1.1104 12.2811 14.0002 1.26831
396 1 -1.1104 12.1432 19.624 1.10668
398 1 -1.1104 12.2225 13.9282 4.04258
399 1 -1.1104 12.2316 19.5521 3.92904
400 1 -1.1104 12.1345 16.8515 1.10474
402 2 2.2208 10.805 15.5198 2.48552
403 2 2.2208 10.7456 20.9784 2.40758
404 1 -1.1104 12.2577 16.7718 3.80563
405 1 -1.1104 9.43103 14.1625 0.980516
407 1 -1.1104 9.27824 19.6902 1.15041
409 2 2.2208 7.96836 18.2677 2.49961
410 1 -1.1104 9.35621 14.0582 3.7962
411 1 -1.1104 9.34787 19.5823 3.88448
412 2 2.2208 7.98471 15.4175 5.23346
413 2 2.2208 8.01795 21.0054 5.37666
414 1 -1.1104 9.38299 16.9165 1.04183
416 1 -1.1104 9.53823 16.8922 3.86554
406 1 -1.1104 9.49745 13.8846 6.65105
408 1 -1.1104 9.52608 19.5641 6.69747
352 1 -1.1104 6.88788 19.4616 6.57741
415 1 -1.1104 9.33897 16.6659 6.64877
9145 2 2.2208 13.6479 20.9653 5.25553
493 2 2.2208 8.00275 15.4384 -0.292006
9177 2 2.2208 13.6135 15.4505 5.41524
496 2 2.2208 10.6897 18.2524 -0.342148
417 2 2.2208 13.6508 18.1858 2.52862
382 1 -1.1104 12.3117 11.2144 6.68507
9296 2 2.2208 -0.294639 18.0684 5.26772
491 2 2.2208 13.6451 21.0189 -0.349288
364 1 -1.1104 3.74682 13.8335 6.70753
9261 2 2.2208 -0.402672 12.5917 10.8345
490 2 2.2208 13.5855 15.3487 -0.323222
344 1 -1.1104 3.85401 11.2229 6.7588
373 1 -1.1104 3.82834 16.8605 6.66523
419 1 -1.1104 3.82784 19.5337 12.167
420 1 -1.1104 3.79386 14.0855 12.2906
424 1 -1.1104 1.07317 19.4881 9.49421
425 1 -1.1104 1.04593 16.858 9.43322
426 2 2.2208 5.21889 20.9918 7.97235
427 1 -1.1104 1.14367 14.1156 9.3709
428 2 2.2208 5.2489 15.4114 7.97614
431 1 -1.1104 1.05903 19.5029 12.4011
432 1 -1.1104 0.995634 13.9652 12.3253
433 2 2.2208 5.21102 18.1599 10.8008
434 1 -1.1104 3.86932 19.721 9.43101
436 2 2.2208 2.42721 18.1286 8.0107
437 1 -1.1104 3.77053 16.9829 9.43419
438 1 -1.1104 3.823 14.0522 9.36355
440 1 -1.1104 1.1409 16.7745 12.3092
441 1 -1.1104 3.8705 16.8147 12.3486
442 2 2.2208 2.42313 20.9196 10.8671
443 2 2.2208 5.23244 12.5942 10.7313
444 1 -1.1104 1.14952 11.2156 12.2022
446 2 2.2208 2.51517 15.3455 10.9577
447 2 2.2208 5.21109 9.79564 7.95157
448 1 -1.1104 0.924556 11.2612 9.41315
450 2 2.2208 2.48362 12.6611 8.15593
451 2 2.2208 2.4694 9.79703 10.8093
452 1 -1.1104 3.86563 11.3114 12.2482
453 1 -1.1104 3.85164 11.3411 9.42521
9274 2 2.2208 -0.374905 9.79236 8.06707
439 1 -1.1104 6.61622 16.7815 12.2455
479 2 2.2208 5.24284 20.9766 13.5187
421 1 -1.1104 6.73036 19.4771 9.44308
449 1 -1.1104 6.55864 10.9107 9.46696
351 1 -1.1104 6.62628 13.9436 6.78482
445 1 -1.1104 6.69776 11.1624 12.192
481 2 2.2208 2.42676 12.4899 13.6386
482 2 2.2208 5.21698 15.3674 13.6004
9246 2 2.2208 13.5806 12.446 8.11914
9294 2 2.2208 13.5983 15.2376 10.8862
9248 2 2.2208 13.6677 9.64856 10.9321
9234 2 2.2208 13.6545 20.9356 10.7953
9295 2 2.2208 13.6377 17.9862 8.14778
457 1 -1.1104 9.40343 16.8453 9.55819
422 1 -1.1104 6.61002 16.6617 9.39326
429 1 -1.1104 6.60554 19.5892 12.2334
430 1 -1.1104 6.55565 14.0482 12.2209
423 1 -1.1104 6.55415 13.7635 9.47914
475 2 2.2208 7.92435 12.5236 8.11478
462 1 -1.1104 9.45794 13.9815 9.47202
401 1 -1.1104 12.0751 16.6582 6.66728
476 1 -1.1104 12.2758 19.5194 12.2198
466 1 -1.1104 12.1873 16.6698 9.43208
454 1 -1.1104 12.2213 11.1848 12.1858
465 1 -1.1104 9.40592 13.8391 12.2727
455 2 2.2208 10.7311 12.5238 10.8234
377 1 -1.1104 12.109 11.0981 9.44604
461 1 -1.1104 9.46368 19.5638 9.55227
477 1 -1.1104 12.3113 13.9903 12.2349
337 1 -1.1104 6.73752 11.1541 6.57642
469 2 2.2208 10.8447 15.2825 8.10302
470 1 -1.1104 12.1963 16.7868 12.1855
463 2 2.2208 8.09838 18.1824 7.98284
472 1 -1.1104 12.2251 19.5743 9.44437
395 1 -1.1104 12.2598 14.092 6.84789
397 1 -1.1104 12.178 19.4618 6.76019
379 2 2.2208 10.771 9.70752 8.13923
468 1 -1.1104 9.28526 11.1137 9.57944
388 1 -1.1104 9.48402 11.0386 6.83825
456 2 2.2208 10.757 18.126 10.8042
459 2 2.2208 8.01044 20.9053 10.9016
473 1 -1.1104 12.2438 13.8586 9.57005
474 2 2.2208 8.02471 9.65033 10.784
460 2 2.2208 7.94807 15.3939 10.8842
467 2 2.2208 10.7513 20.9435 8.08973
458 1 -1.1104 9.42318 16.729 12.4175
464 1 -1.1104 9.42715 19.401 12.2042
471 1 -1.1104 9.43316 11.1633 12.2878
478 2 2.2208 2.56831 18.1635 13.6167
485 2 2.2208 8.08461 18.146 13.6745
486 2 2.2208 13.6147 9.93322 -0.229206
487 2 2.2208 10.7382 9.87179 13.6109
483 2 2.2208 10.8687 20.9162 13.5474
9301 2 2.2208 13.6314 18.202 13.6845
500 2 2.2208 5.14464 12.5865 -0.390552
503 2 2.2208 5.22586 12.6216 16.532
504 1 -1.1104 0.909622 11.0838 17.8769
506 2 2.2208 5.28504 9.80725 19.2699
507 1 -1.1104 0.896182 11.296 15.1256
511 2 2.2208 2.33627 12.4982 19.2415
512 2 2.2208 2.35145 9.83058 16.3251
513 1 -1.1104 3.61808 11.1454 17.9418
514 1 -1.1104 3.85754 11.1942 15.1714
516 2 2.2208 5.24995 18.1424 16.4714
517 1 -1.1104 0.887612 13.9305 17.7728
518 1 -1.1104 1.27286 19.6614 17.8869
521 1 -1.1104 0.939785 14.0773 15.065
523 1 -1.1104 1.11049 19.7917 15.0882
529 1 -1.1104 1.09202 16.7807 17.6084
531 2 2.2208 5.25499 15.3593 19.3667
532 2 2.2208 5.20821 21.0061 19.2114
533 1 -1.1104 1.07528 16.8768 15.0384
537 1 -1.1104 3.7869 13.8856 17.7831
538 1 -1.1104 3.97327 19.6652 17.8548
539 2 2.2208 2.52635 18.1656 19.1441
540 1 -1.1104 3.80465 14.0594 15.0776
542 1 -1.1104 3.85424 19.7607 14.9759
544 2 2.2208 2.37512 15.3014 16.3535
545 2 2.2208 2.51529 21.1439 16.3002
546 1 -1.1104 3.9022 16.6974 17.7748
547 1 -1.1104 3.88111 16.8976 14.9963
497 2 2.2208 7.97034 21.0653 27.7054
551 2 2.2208 -0.312163 15.2893 19.2009
648 1 -1.1104 9.4094 14.1584 23.4704
509 1 -1.1104 6.66599 11.2 15.0281
527 1 -1.1104 6.65654 19.4511 14.9681
519 1 -1.1104 6.6958 14.0667 17.8778
530 1 -1.1104 6.59406 16.7145 17.8653
525 1 -1.1104 6.37117 13.8914 14.9834
548 1 -1.1104 3.90262 16.9117 20.5258
543 1 -1.1104 3.71661 19.6586 20.7474
541 1 -1.1104 3.81552 13.9724 20.6428
628 1 -1.1104 12.2447 11.2986 26.3226
510 1 -1.1104 6.67587 11.241 20.8367
528 1 -1.1104 6.52245 19.6983 20.7289
633 2 2.2208 -0.397729 15.4837 24.7784
590 2 2.2208 13.6419 15.391 16.5913
520 1 -1.1104 6.70371 19.5552 17.7453
505 1 -1.1104 6.57995 11.0629 17.7919
535 1 -1.1104 6.66401 16.7769 15.0956
554 2 2.2208 10.7473 12.5979 16.4722
555 1 -1.1104 12.2447 11.1785 17.7221
556 2 2.2208 10.8009 9.70911 19.277
557 1 -1.1104 12.0953 11.2901 15.0098
559 2 2.2208 8.11397 12.6605 19.3294
560 2 2.2208 8.04144 9.82162 16.3419
561 1 -1.1104 9.45818 11.1677 17.8955
562 1 -1.1104 9.30628 11.2896 15.0354
564 2 2.2208 10.9315 18.2386 16.4641
565 1 -1.1104 12.0895 13.9667 18.0212
566 1 -1.1104 12.1828 19.5665 17.9421
567 1 -1.1104 12.3018 14.1477 15.309
569 1 -1.1104 12.2992 19.7109 15.0529
571 1 -1.1104 12.3055 16.7327 17.8829
572 2 2.2208 10.9115 15.3162 19.3589
573 2 2.2208 10.7572 20.9871 19.4719
574 1 -1.1104 12.1599 16.9513 15.0868
576 1 -1.1104 9.43592 14.0478 18.0188
577 1 -1.1104 9.51915 19.508 17.9828
578 2 2.2208 8.03231 18.1968 19.2331
579 1 -1.1104 9.38715 13.9987 15.0988
581 1 -1.1104 9.58509 19.609 15.0152
583 2 2.2208 7.97766 15.3763 16.4144
584 2 2.2208 8.19708 20.9902 16.5015
585 1 -1.1104 9.40145 16.766 17.9726
586 1 -1.1104 9.42276 16.8696 15.0792
484 2 2.2208 10.9596 15.4232 13.6926
488 2 2.2208 7.95147 12.6461 13.7062
593 2 2.2208 13.6716 12.6053 24.8589
558 1 -1.1104 12.1235 11.0136 20.5664
630 1 -1.1104 12.4204 11.1835 23.3734
591 2 2.2208 13.5985 15.3894 22.2317
588 2 2.2208 13.5752 12.4658 19.3253
515 1 -1.1104 3.88391 11.2087 20.6792
526 1 -1.1104 6.62554 14.064 20.6568
642 2 2.2208 8.04422 15.5326 22.0142
636 2 2.2208 -0.268427 18.2119 22.1132
508 1 -1.1104 1.00791 11.1212 20.8342
637 2 2.2208 -0.348072 9.79481 24.8983
534 1 -1.1104 1.03796 16.7072 20.4928
524 1 -1.1104 0.960738 19.6028 20.7756
522 1 -1.1104 0.965898 13.8311 20.5834
594 1 -1.1104 4.03561 19.7163 23.5099
596 1 -1.1104 3.84216 14.1452 23.2292
598 1 -1.1104 1.18699 19.4009 26.423
599 1 -1.1104 1.16337 16.8522 26.1985
600 1 -1.1104 1.0458 14.0325 26.3155
602 2 2.2208 5.27525 21.0522 24.787
603 2 2.2208 5.37357 15.3854 24.8802
605 1 -1.1104 1.03227 19.6825 23.5424
606 1 -1.1104 1.008 14.0185 23.4674
607 2 2.2208 5.23502 18.2055 22.0926
608 1 -1.1104 3.84192 19.4452 26.1915
609 2 2.2208 2.57146 18.1654 24.7892
610 1 -1.1104 3.96208 16.7464 26.2762
611 1 -1.1104 3.87822 13.9182 26.102
613 1 -1.1104 1.17837 16.8911 23.3911
614 1 -1.1104 4.01649 16.8774 23.4999
615 2 2.2208 2.4288 21.0395 22.0672
616 2 2.2208 5.22576 12.6519 22.0429
617 1 -1.1104 1.04913 11.1743 23.5505
619 2 2.2208 2.46028 15.3855 21.9742
620 2 2.2208 5.38945 9.89321 24.838
621 1 -1.1104 0.945983 11.1198 26.2747
623 2 2.2208 2.37248 12.6767 24.8894
624 2 2.2208 2.51244 9.82211 22.0106
625 1 -1.1104 3.94819 11.444 23.5425
626 1 -1.1104 3.72577 11.2311 26.3098
644 1 -1.1104 9.34955 13.9573 26.2708
658 2 2.2208 8.03595 12.6311 24.8106
622 1 -1.1104 6.54855 11.2573 26.3052
595 1 -1.1104 6.66574 14.024 26.3006
612 1 -1.1104 6.72591 16.7656 23.4183
601 1 -1.1104 6.60369 19.4627 23.4038
536 1 -1.1104 6.55715 16.8717 20.696
645 1 -1.1104 6.62293 19.6428 26.2185
650 1 -1.1104 9.4481 11.1228 26.2345
489 2 2.2208 2.45313 20.9469 27.6005
592 2 2.2208 13.5569 18.1982 24.9805
629 2 2.2208 10.9343 9.8326 24.8466
657 2 2.2208 8.01291 9.81566 22.0721
647 1 -1.1104 9.58635 19.6791 23.6223
643 1 -1.1104 9.27609 19.6941 26.2985
568 1 -1.1104 12.248 13.947 20.7143
575 1 -1.1104 12.2781 16.7748 20.8375
580 1 -1.1104 9.48771 13.9031 20.7188
563 1 -1.1104 9.48243 11.2573 20.5329
570 1 -1.1104 12.1386 19.5146 20.8124
587 1 -1.1104 9.48295 16.8589 20.7236
627 2 2.2208 13.6118 20.8656 22.042
641 2 2.2208 8.06448 20.9852 22.0192
618 1 -1.1104 6.79148 11.2388 23.5406
631 2 2.2208 10.8623 12.5863 21.9986
604 1 -1.1104 6.67549 13.8996 23.4766
597 1 -1.1104 6.72751 16.9193 26.3722
655 1 -1.1104 11.9871 14.1006 26.3561
640 1 -1.1104 9.44271 16.8402 23.5122
639 1 -1.1104 9.43734 16.7831 26.3418
651 2 2.2208 10.8994 20.9578 24.8906
656 1 -1.1104 9.52207 11.3179 23.4143
652 2 2.2208 10.6758 15.323 24.9773
659 1 -1.1104 12.3141 19.4482 23.49
646 2 2.2208 8.00296 18.2247 24.8981
653 1 -1.1104 12.1558 16.5764 23.696
654 1 -1.1104 12.0526 19.569 26.4489
649 1 -1.1104 12.218 16.8545 26.3816
634 1 -1.1104 12.202 13.9522 23.49
582 1 -1.1104 9.39225 19.5617 20.7646
632 2 2.2208 10.8816 18.0893 22.2056
498 2 2.2208 2.46392 15.365 27.5861
495 2 2.2208 8.02104 9.81759 27.612
480 2 2.2208 5.31101 9.847 13.7188
660 2 2.2208 5.17534 23.7795 5.30259
661 2 2.2208 5.18761 29.3421 5.26713
662 1 -1.1104 1.02785 25.1868 1.04348
663 1 -1.1104 0.920776 25.22 3.97872
664 1 -1.1104 1.0391 22.2943 1.11924
665 1 -1.1104 1.21821 28.0564 1.05978
666 2 2.2208 5.25858 26.6838 2.47546
667 1 -1.1104 1.06533 22.4807 3.92496
668 1 -1.1104 1.15487 27.8938 3.84488
669 1 -1.1104 3.93043 25.1995 1.06719
670 2 2.2208 2.55257 23.7853 2.52259
671 2 2.2208 2.35694 29.4418 2.51677
672 1 -1.1104 3.75435 25.2301 3.89956
673 2 2.2208 2.39023 26.5435 5.31718
674 1 -1.1104 3.7482 22.4469 0.851455
675 1 -1.1104 4.06548 27.9099 1.01228
676 1 -1.1104 3.87113 22.2619 3.788
677 1 -1.1104 3.93574 27.9504 3.80931
678 1 -1.1104 0.92234 30.867 1.05545
679 1 -1.1104 1.00689 30.7568 3.88147
680 1 -1.1104 0.881257 33.5907 1.14625
681 2 2.2208 5.20644 32.0187 2.44397
682 1 -1.1104 0.866816 33.5603 3.96242
684 1 -1.1104 3.89515 30.7248 1.26795
685 1 -1.1104 3.68057 30.5933 4.0303
686 2 2.2208 2.36479 32.187 5.43061
687 1 -1.1104 3.70265 33.4881 1.05757
688 1 -1.1104 3.66544 33.4155 3.84512
9634 2 2.2208 -0.345404 26.597 2.41067
683 1 -1.1104 6.68925 33.4572 3.77355
719 1 -1.1104 6.4886 33.5424 0.859591
747 1 -1.1104 3.69018 33.6146 6.68352
817 2 2.2208 5.23262 23.827 -0.283434
718 1 -1.1104 6.60441 30.7889 4.07157
693 1 -1.1104 6.74272 25.1233 1.08732
697 1 -1.1104 6.68651 22.3517 3.71792
737 1 -1.1104 6.48684 22.3824 6.59893
740 1 -1.1104 3.67419 22.4383 6.66959
739 1 -1.1104 3.70563 25.1974 6.66438
733 1 -1.1104 0.916782 25.2447 6.72563
742 1 -1.1104 0.901441 30.7555 6.58014
736 1 -1.1104 0.957058 27.9287 6.67885
735 1 -1.1104 0.915371 22.3395 6.65342
745 1 -1.1104 6.35229 33.514 6.70608
956 2 2.2208 5.38074 29.5185 -0.321335
732 2 2.2208 10.8714 32.3002 7.98748
717 1 -1.1104 6.75042 30.7892 1.06994
689 1 -1.1104 9.17411 33.6205 9.3008
9636 2 2.2208 -0.411403 29.2998 5.14984
9637 2 2.2208 13.5529 29.3412 2.43553
696 1 -1.1104 6.73076 27.9569 1.01686
694 1 -1.1104 6.63757 25.1095 3.90726
695 1 -1.1104 6.72769 22.4832 1.02292
698 1 -1.1104 6.66566 27.9627 3.88543
699 2 2.2208 10.8736 23.6901 5.19334
700 2 2.2208 10.7734 29.3315 5.23338
701 1 -1.1104 12.2049 25.1652 0.973233
702 1 -1.1104 12.3488 25.2211 3.91373
703 1 -1.1104 12.2816 22.4525 0.924089
704 1 -1.1104 12.2349 28.0722 0.922943
705 2 2.2208 10.8244 26.5113 2.36319
706 1 -1.1104 12.2236 22.2436 3.80247
707 1 -1.1104 12.2939 27.9584 3.66361
708 1 -1.1104 9.41135 25.2455 0.968716
709 2 2.2208 8.20027 23.7422 2.49201
710 2 2.2208 8.0878 29.3208 2.52309
711 1 -1.1104 9.49775 25.0081 3.848
712 2 2.2208 8.0584 26.575 5.21368
713 1 -1.1104 9.54915 22.4188 1.04639
714 1 -1.1104 9.53986 28.0138 1.01884
715 1 -1.1104 9.41038 22.4265 3.91439
716 1 -1.1104 9.41354 27.8942 3.88521
720 1 -1.1104 12.2591 30.8224 1.11393
721 1 -1.1104 12.1234 30.7487 4.01559
722 1 -1.1104 12.3453 33.6206 0.901233
723 2 2.2208 10.826 32.301 2.40707
724 1 -1.1104 12.1503 33.6085 3.72474
725 1 -1.1104 9.53393 30.7617 1.15752
726 1 -1.1104 9.40729 30.8028 4.00528
727 2 2.2208 7.91391 32.2147 5.31475
728 1 -1.1104 9.42055 33.5118 1.00431
729 1 -1.1104 9.30892 33.4769 3.95805
793 1 -1.1104 12.1896 33.5756 6.53421
794 1 -1.1104 9.38938 30.7824 6.77683
920 2 2.2208 10.7606 29.4855 -0.296786
788 1 -1.1104 12.2809 27.9502 6.4094
795 1 -1.1104 9.32613 33.7156 6.6169
790 1 -1.1104 9.25918 22.2967 6.79926
9501 2 2.2208 13.5313 32.241 5.27997
791 1 -1.1104 9.49249 27.9246 6.55251
738 1 -1.1104 6.66429 28.0509 6.6609
789 1 -1.1104 9.37194 25.1655 6.72184
787 1 -1.1104 12.1983 22.4074 6.6766
741 1 -1.1104 3.82341 27.8715 6.68526
743 1 -1.1104 6.5693 30.8369 6.79101
803 1 -1.1104 12.2459 22.4472 9.42508
746 1 -1.1104 3.72099 30.6929 6.7368
744 1 -1.1104 0.80154 33.6214 6.66084
748 2 2.2208 5.10459 23.8021 10.7772