ITEM: TIMESTEP
30000
ITEM: NUMBER OF ATOMS
17910
ITEM: BOX BOUNDS pp pp pp
-3.6613880295591100e-01 2.7706138802955987e+01
-4.3234217050570578e+00 3.3240342170506682e+02
-3.5613572599232263e-01 2.7696135725992530e+01
ITEM: ATOMS id type q x y z
1 2 2.2208 5.3931 1.25799 5.36392
2 1 -1.1104 1.06162 -3.01496 1.08056
3 1 -1.1104 1.02147 2.4808 1.15232
6 1 -1.1104 1.1689 -2.78751 4.03501
7 1 -1.1104 1.02574 2.73803 4.00677
10 1 -1.1104 1.16016 -0.304178 1.26214
12 2 2.2208 5.39057 -1.54441 2.46242
13 2 2.2208 5.30822 4.16003 2.48157
14 1 -1.1104 1.06786 -0.145695 3.87493
16 1 -1.1104 3.82355 -2.96722 1.08112
17 1 -1.1104 3.80342 2.60838 1.22204
18 2 2.2208 2.55676 1.1223 2.53351
19 1 -1.1104 4.04609 -2.87171 3.81288
20 1 -1.1104 4.00264 2.5759 4.0035
21 2 2.2208 2.56592 -1.50462 5.37857
22 2 2.2208 2.55267 3.97992 5.4394
23 1 -1.1104 4.0201 -0.123433 1.14696
24 1 -1.1104 3.97979 -0.172037 3.88202
25 2 2.2208 5.22741 6.97017 5.34047
26 1 -1.1104 1.03849 8.24217 1.20655
28 1 -1.1104 1.05887 8.36438 4.14251
30 1 -1.1104 1.10414 5.39231 1.35371
32 1 -1.1104 1.07612 5.43312 4.24755
34 1 -1.1104 3.72519 8.28949 1.24293
35 2 2.2208 2.40621 6.81368 2.58838
37 1 -1.1104 3.87876 5.54354 1.13482
38 1 -1.1104 3.75322 5.34723 3.80521
36 1 -1.1104 3.87448 8.23681 4.02488
172 2 2.2208 5.29294 6.84438 -0.235208
324 2 2.2208 2.4858 -1.57174 -0.262754
27 1 -1.1104 6.46969 8.37348 1.1344
170 2 2.2208 5.33369 1.29654 -0.237051
8943 2 2.2208 -0.336937 1.34108 5.43812
8938 2 2.2208 -0.330142 4.09168 2.70129
8942 2 2.2208 -0.249274 -1.59728 2.56999
17711 2 2.2208 -0.363745 -4.34932 5.37588
9069 2 2.2208 -0.226958 1.15684 -0.225599
171 2 2.2208 2.52341 4.06574 -0.158392
9 1 -1.1104 6.85146 2.61912 4.11427
5 1 -1.1104 6.65448 2.77791 1.11474
29 1 -1.1104 6.5787 8.27842 3.98349
11 1 -1.1104 6.85136 -0.0483002 1.13362
8575 2 2.2208 5.34002 -4.34863 5.31563
8577 2 2.2208 10.8473 -4.34362 5.29461
31 1 -1.1104 6.69582 5.44021 1.13001
15 1 -1.1104 6.76021 -0.330309 3.99624
8 1 -1.1104 6.81295 -3.05433 3.86595
33 1 -1.1104 6.69036 5.53071 4.11078
4 1 -1.1104 6.71612 -2.92666 0.965353
46 2 2.2208 10.9844 1.11538 5.4603
47 1 -1.1104 12.5082 -3.06402 1.24686
48 1 -1.1104 12.2246 2.51629 1.22813
49 1 -1.1104 12.3562 -2.98687 3.99969
50 1 -1.1104 12.3375 2.64098 4.00564
51 1 -1.1104 12.4444 -0.198468 1.12424
52 2 2.2208 11.0275 -1.6508 2.56296
53 2 2.2208 10.971 3.94742 2.62156
54 1 -1.1104 12.4945 -0.209571 4.04128
55 1 -1.1104 9.55011 -2.9772 1.21981
56 1 -1.1104 9.56038 2.68609 1.13224
57 2 2.2208 8.11011 1.1465 2.5752
58 1 -1.1104 9.54431 -2.82003 3.9691
59 1 -1.1104 9.57461 2.49818 4.0849
60 2 2.2208 8.14756 -1.57539 5.25833
61 2 2.2208 8.01616 4.02676 5.3963
62 1 -1.1104 9.49287 -0.0141737 1.16227
63 1 -1.1104 9.64219 -0.239206 3.87335
64 2 2.2208 10.9272 6.89553 5.42382
65 1 -1.1104 12.299 8.31969 1.24645
66 1 -1.1104 12.3073 8.09378 4.07009
67 1 -1.1104 12.3062 5.16702 1.20421
68 1 -1.1104 12.4135 5.36035 3.98287
69 1 -1.1104 9.30235 8.12234 1.1492
70 2 2.2208 8.17194 6.80669 2.61983
71 1 -1.1104 9.50351 8.16988 3.99837
72 1 -1.1104 9.55359 5.50051 1.21305
73 1 -1.1104 9.72339 5.31804 4.08261
8587 2 2.2208 10.9909 -4.37158 -0.263106
164 2 2.2208 8.17641 -1.32717 -0.237692
158 2 2.2208 10.7817 6.78052 -0.243388
163 2 2.2208 8.20586 4.16174 -0.166517
165 2 2.2208 10.932 1.29252 -0.205623
8883 2 2.2208 13.8513 1.29214 2.64499
81 1 -1.1104 0.9776 2.67124 6.74837
87 1 -1.1104 3.84153 2.49551 6.87186
91 1 -1.1104 1.01853 5.38742 6.97062
92 1 -1.1104 6.58122 5.43569 6.84491
88 1 -1.1104 4.00525 -0.23223 6.76592
89 1 -1.1104 1.09425 8.19329 6.99827
80 1 -1.1104 1.11583 -2.84558 6.87645
86 1 -1.1104 3.96577 -3.02696 6.72975
84 1 -1.1104 1.16062 0.0127064 6.62263
8801 2 2.2208 -0.276519 -1.37905 8.06982
8800 2 2.2208 -0.297155 1.12807 11.1976
93 1 -1.1104 3.847 8.39695 6.74932
94 1 -1.1104 3.89222 5.501 6.72604
95 2 2.2208 5.2618 1.15341 10.9881
96 1 -1.1104 1.11497 -2.965 12.4572
97 1 -1.1104 1.08895 2.62213 12.3487
100 1 -1.1104 1.22504 -3.0109 9.63593
101 1 -1.1104 1.05382 2.62717 9.60491
104 1 -1.1104 1.07887 -0.178381 12.4996
106 2 2.2208 5.33878 -1.53156 8.15185
107 2 2.2208 5.13835 4.0716 8.05707
108 1 -1.1104 1.18213 -0.115908 9.72697
110 1 -1.1104 3.92102 -2.93922 12.452
111 1 -1.1104 3.86548 2.52198 12.4463
112 2 2.2208 2.50198 1.0812 8.24289
113 1 -1.1104 3.98279 -2.9355 9.55538
114 1 -1.1104 3.84934 2.45185 9.61795
115 2 2.2208 2.52406 -1.62179 11.0371
116 2 2.2208 2.49103 4.0483 11.0305
117 1 -1.1104 3.82398 -0.183578 12.4319
118 1 -1.1104 3.99494 -0.285905 9.56286
119 2 2.2208 5.26623 6.70746 10.9598
120 1 -1.1104 0.834196 8.21022 12.429
122 1 -1.1104 1.03217 8.24953 9.70804
124 1 -1.1104 0.945548 5.36773 12.4541
126 1 -1.1104 1.11054 5.4329 9.67638
128 1 -1.1104 3.79422 8.2061 12.5196
129 2 2.2208 2.4462 6.81247 8.31363
130 1 -1.1104 3.8308 8.13722 9.73301
131 1 -1.1104 3.90798 5.31753 12.2497
132 1 -1.1104 3.76958 5.34373 9.54612
8578 2 2.2208 2.46738 -4.33821 8.18565
8905 2 2.2208 -0.495763 6.82547 11.0665
8579 2 2.2208 5.37326 -4.32064 10.9587
82 1 -1.1104 6.75042 -2.9468 6.6864
99 1 -1.1104 6.74215 2.59957 12.3948
17703 2 2.2208 -0.253779 -4.31384 11.0547
146 1 -1.1104 12.285 5.53067 6.86495
145 1 -1.1104 12.3071 8.19756 6.7832
147 1 -1.1104 9.58274 8.2349 6.90778
154 1 -1.1104 12.4528 -2.91643 12.5718
140 1 -1.1104 12.2626 2.50594 6.86961
8572 2 2.2208 10.8426 -4.34557 11.0896
127 1 -1.1104 6.63877 5.38268 9.54462
8573 2 2.2208 8.16245 -4.28804 8.26961
83 1 -1.1104 6.47845 2.66795 6.75185
90 1 -1.1104 6.73695 8.08827 6.72169
135 2 2.2208 8.02797 -1.47596 11.052
142 1 -1.1104 9.48059 -2.99714 6.73174
143 1 -1.1104 9.40716 2.75061 6.90632
139 1 -1.1104 12.3003 -3.04269 6.76852
149 1 -1.1104 9.52437 5.4484 6.70395
40 2 2.2208 8.12674 1.25704 8.32242
136 2 2.2208 10.9277 -1.6254 8.15463
85 1 -1.1104 6.80279 -0.137989 6.97276
109 1 -1.1104 6.65215 0.0123173 9.75064
125 1 -1.1104 6.60865 5.24138 12.3325
98 1 -1.1104 6.63469 -2.76694 12.2837
102 1 -1.1104 6.66173 -2.91202 9.55217
105 1 -1.1104 6.87756 -0.0577345 12.4958
155 1 -1.1104 12.1636 2.67467 12.5323
148 1 -1.1104 9.51812 5.46338 9.48408
138 1 -1.1104 9.60705 2.68133 9.62859
133 1 -1.1104 9.67441 -0.377246 12.3316
157 1 -1.1104 12.3609 2.83123 9.54326
153 2 2.2208 10.9963 1.20632 10.9814
121 1 -1.1104 6.71111 8.40113 12.4342
151 1 -1.1104 9.58329 8.26418 9.66659
103 1 -1.1104 6.66191 2.70675 9.49446
123 1 -1.1104 6.781 8.16294 9.61139
43 1 -1.1104 9.44325 2.53494 12.4738
152 2 2.2208 8.16941 6.74395 8.15515
150 1 -1.1104 9.3777 5.43473 12.446
141 1 -1.1104 12.3274 -0.278062 6.82205
156 1 -1.1104 12.3359 -2.83873 9.59763
144 1 -1.1104 9.62135 -0.197607 6.73398
42 1 -1.1104 12.3838 5.51147 9.83632
79 1 -1.1104 9.5397 -0.0770677 9.48526
41 1 -1.1104 9.50127 8.1483 12.3749
75 1 -1.1104 12.2094 8.27794 12.3789
137 1 -1.1104 12.4123 -0.196262 12.4395
44 1 -1.1104 9.37751 -3.0439 12.3743
134 2 2.2208 7.9766 3.99078 10.8741
78 2 2.2208 10.9773 4.07045 8.15575
76 2 2.2208 10.8894 6.83012 11.1003
77 1 -1.1104 12.5402 -0.117062 9.7736
39 1 -1.1104 9.57151 -2.87967 9.58403
74 1 -1.1104 12.5005 8.39528 9.59704
45 1 -1.1104 12.3272 5.39511 12.4227
173 2 2.2208 5.37348 1.28879 16.5675
174 1 -1.1104 1.10668 -2.95785 18.1321
175 1 -1.1104 1.05353 2.61196 17.8507
178 1 -1.1104 1.09247 -2.92569 15.191
180 1 -1.1104 1.06981 2.73833 15.122
186 1 -1.1104 1.27515 -0.209924 17.9745
188 2 2.2208 5.30582 -1.56717 19.4241
189 2 2.2208 5.37175 4.04245 19.3821
190 1 -1.1104 1.12029 0.0347788 15.2675
194 1 -1.1104 3.88449 -2.97391 17.9609
195 1 -1.1104 3.98641 2.648 17.9767
196 2 2.2208 2.69688 1.2275 19.2885
197 1 -1.1104 3.88998 -2.90422 15.1798
199 1 -1.1104 3.94872 2.59467 15.3065
201 2 2.2208 2.53655 -1.60193 16.5592
202 2 2.2208 2.41046 4.05771 16.5577
203 1 -1.1104 3.96872 -0.103113 17.998
204 1 -1.1104 3.89561 -0.128871 15.1311
206 2 2.2208 5.17621 6.81806 16.4443
207 1 -1.1104 1.11216 8.17512 18.0466
209 1 -1.1104 0.890789 8.17782 15.1655
213 1 -1.1104 1.12645 5.38215 18.2102
215 1 -1.1104 1.00543 5.37681 15.2801
219 1 -1.1104 3.84741 8.13871 18.1176
220 2 2.2208 2.54636 6.7943 19.4718
221 1 -1.1104 3.72916 8.153 15.2234
223 1 -1.1104 3.93118 5.51074 17.9111
224 1 -1.1104 3.92498 5.30061 15.0406
9007 2 2.2208 -0.302045 1.22582 16.5903
9119 2 2.2208 -0.263225 -1.65812 19.4459
162 2 2.2208 5.40865 3.88342 13.8512
159 2 2.2208 5.19771 -1.4919 13.7956
9116 2 2.2208 -0.276511 -1.56219 13.89
160 2 2.2208 2.3454 6.68566 13.8696
217 1 -1.1104 6.71892 5.45801 15.1047
177 1 -1.1104 6.83086 2.70532 17.954
211 1 -1.1104 6.7088 8.2384 15.1311
184 1 -1.1104 6.81614 2.67197 15.2946
179 1 -1.1104 1.292 -2.90937 20.7841
8955 2 2.2208 -0.355384 3.99397 13.7407
9070 2 2.2208 -0.22903 4.03849 19.4885
161 2 2.2208 2.47901 1.24216 13.9145
222 1 -1.1104 3.84933 8.22858 20.9088
214 1 -1.1104 6.63829 5.48704 17.9021
182 1 -1.1104 6.60438 -2.87841 15.2389
8653 2 2.2208 8.15806 -4.34106 19.4283
192 1 -1.1104 6.74885 -0.114388 15.2025
176 1 -1.1104 6.65086 -2.97908 18.0914
208 1 -1.1104 6.40485 8.35582 17.8569
187 1 -1.1104 6.75794 -0.0472428 17.9017
237 2 2.2208 10.9421 1.25259 16.61
238 1 -1.1104 12.1652 -2.92484 18.0083
239 1 -1.1104 12.388 2.87565 17.9985
240 1 -1.1104 12.3089 -3.08729 15.2534
242 1 -1.1104 12.2748 2.67908 15.1586
244 1 -1.1104 12.2844 -0.0652629 18.0796
245 2 2.2208 10.9392 -1.45831 19.4052
246 2 2.2208 10.9148 4.13648 19.4852
247 1 -1.1104 12.5009 -0.0676747 15.4484
249 1 -1.1104 9.3176 -3.04181 18.0501
250 1 -1.1104 9.58248 2.70377 18.0039
251 2 2.2208 8.16753 1.20963 19.3008
252 1 -1.1104 9.51754 -2.95121 15.2748
254 1 -1.1104 9.44053 2.63574 15.2897
256 2 2.2208 8.05631 -1.65488 16.5979
257 2 2.2208 8.20052 4.12118 16.6495
258 1 -1.1104 9.57284 -0.29175 18.025
259 1 -1.1104 9.50156 -0.338083 15.2783
261 2 2.2208 11.028 6.78541 16.7223
263 1 -1.1104 12.3196 8.26358 15.3142
265 1 -1.1104 12.3012 5.57605 18.0785
266 1 -1.1104 12.3333 5.50684 15.2014
268 1 -1.1104 9.48998 8.19508 18.0437
269 2 2.2208 7.95267 6.89434 19.3104
270 1 -1.1104 9.40226 8.27646 15.2093
272 1 -1.1104 9.49933 5.55003 18.1667
273 1 -1.1104 9.58122 5.38416 15.2361
262 1 -1.1104 12.3312 8.31613 17.9929
169 2 2.2208 10.8035 4.04971 13.7741
9004 2 2.2208 13.8313 6.83862 19.4461
8584 2 2.2208 8.12881 -4.37378 13.8585
167 2 2.2208 8.21465 1.27083 13.8824
168 2 2.2208 11.052 -1.52598 13.9313
276 2 2.2208 10.9537 -4.44402 16.6601
166 2 2.2208 8.11198 6.92616 13.9024
200 1 -1.1104 4.05925 2.76416 20.6936
181 1 -1.1104 1.27774 2.69256 20.7626
205 1 -1.1104 3.90759 -0.113445 20.7035
9067 2 2.2208 -0.163259 -1.5301 25.036
191 1 -1.1104 1.09884 -0.0546459 20.8011
198 1 -1.1104 4.05205 -2.83824 20.8719
8995 2 2.2208 -0.229148 3.98604 25.0584
225 1 -1.1104 3.83978 5.59375 20.7768
210 1 -1.1104 0.974538 8.15255 20.7582
216 1 -1.1104 1.01769 5.43503 20.8841
8600 2 2.2208 2.60471 -4.31097 24.8755
285 2 2.2208 5.30882 1.33974 22.2043
286 1 -1.1104 1.18614 -2.8681 23.6204
287 1 -1.1104 1.28911 2.62592 23.5137
290 1 -1.1104 1.07107 -2.82729 26.4473
291 1 -1.1104 1.27811 2.68104 26.3063
294 1 -1.1104 1.41602 -0.0813171 23.5886
296 2 2.2208 5.39268 -1.52576 24.9184
297 2 2.2208 5.29662 4.0874 24.9677
298 1 -1.1104 1.14199 -0.0358028 26.4454
300 1 -1.1104 3.95205 -2.8822 23.5921
301 1 -1.1104 3.9332 2.66536 23.4729
302 2 2.2208 2.60747 1.34318 25.0161
303 1 -1.1104 4.08005 -2.78248 26.3941
304 1 -1.1104 3.99558 2.64914 26.4295
305 2 2.2208 2.58754 -1.52144 22.2187
306 2 2.2208 2.53447 4.01468 22.1585
307 1 -1.1104 4.12206 -0.0547318 23.4766
308 1 -1.1104 3.94994 -0.0467791 26.2679
309 2 2.2208 5.32621 6.80027 22.2974
310 1 -1.1104 1.10276 8.28012 23.5824
312 1 -1.1104 0.950329 8.23888 26.4934
314 1 -1.1104 1.16725 5.38912 23.7005
316 1 -1.1104 1.14595 5.46098 26.5374
318 1 -1.1104 3.97013 8.31606 23.6093
319 2 2.2208 2.55513 6.82043 24.8921
321 1 -1.1104 3.80952 5.36512 23.6648
322 1 -1.1104 4.0035 5.44441 26.4404
320 1 -1.1104 3.89243 8.2034 26.4118
9008 2 2.2208 -0.281093 6.81496 22.1546
317 1 -1.1104 6.71701 5.28143 26.4202
311 1 -1.1104 6.79986 8.14423 23.7538
295 1 -1.1104 6.9226 -0.0715195 23.6723
315 1 -1.1104 6.80783 5.49936 23.6251
313 1 -1.1104 6.78766 8.27364 26.4361
9003 2 2.2208 13.7886 1.1537 24.9469
253 1 -1.1104 9.49602 -2.86814 20.775
183 1 -1.1104 6.82746 -2.9535 20.8936
248 1 -1.1104 12.3981 -0.154981 20.8181
284 1 -1.1104 9.68375 -0.0739721 26.4157
218 1 -1.1104 6.58868 5.49254 20.7584
185 1 -1.1104 6.82898 2.71577 20.8183
280 2 2.2208 8.09747 6.8724 25.0169
275 1 -1.1104 12.5311 -2.94302 23.6139
279 2 2.2208 11.0411 1.28397 22.1833
289 1 -1.1104 6.73087 2.6487 23.6092
292 1 -1.1104 6.84382 -2.9649 26.283
193 1 -1.1104 6.88519 -0.217431 20.8383
267 1 -1.1104 12.4741 5.40299 20.8452
274 1 -1.1104 9.44493 5.61599 20.7169
271 1 -1.1104 9.40106 8.36426 20.7166
264 1 -1.1104 12.3773 8.22972 20.7627
243 1 -1.1104 12.3229 2.54442 20.6434
255 1 -1.1104 9.70089 2.79569 20.9684
323 2 2.2208 10.9665 6.87014 22.0159
228 2 2.2208 8.25881 -1.44656 22.2855
212 1 -1.1104 6.58759 8.19733 20.801
299 1 -1.1104 6.70467 0.0845353 26.516
288 1 -1.1104 6.7747 -2.8366 23.5791
277 2 2.2208 8.18518 1.38883 25.0077
227 2 2.2208 8.17542 4.06984 22.2497
331 2 2.2208 10.9628 4.04769 24.9792
231 2 2.2208 11.1465 -1.43368 25.0493
325 1 -1.1104 12.3632 8.24053 23.5652
241 1 -1.1104 12.2762 -2.94846 20.8034
260 1 -1.1104 9.67725 -0.127434 20.8352
235 1 -1.1104 12.3439 -2.815 26.4467
293 1 -1.1104 6.83918 2.81579 26.3022
226 1 -1.1104 9.75378 -0.0296321 23.7247
332 1 -1.1104 12.3152 5.47992 23.6394
327 1 -1.1104 9.58777 8.25778 23.4976
283 1 -1.1104 9.50832 5.36139 26.3672
230 1 -1.1104 9.62777 2.69887 26.4223
282 1 -1.1104 9.5456 5.44168 23.5766
328 1 -1.1104 12.2877 5.42989 26.4665
234 1 -1.1104 12.4867 2.68045 26.2451
330 1 -1.1104 12.4912 -0.0556526 26.4432
326 1 -1.1104 12.4401 8.21262 26.3763
232 1 -1.1104 9.63268 -3.01457 26.2949
278 1 -1.1104 9.56379 2.69592 23.6823
281 1 -1.1104 9.54087 8.13484 26.4302
236 1 -1.1104 12.4428 2.7416 23.4696
233 1 -1.1104 12.5354 -0.00316354 23.5469
329 1 -1.1104 9.64138 -2.92669 23.7137
8657 2 2.2208 8.25626 -4.38339 24.9842
333 2 2.2208 5.31239 12.4781 5.39778
334 1 -1.1104 1.12863 10.941 1.09444
338 2 2.2208 5.21283 9.68688 2.6526
339 1 -1.1104 0.94874 11.0374 4.1939
341 2 2.2208 2.37145 12.4478 2.62559
342 2 2.2208 2.44591 9.62723 5.5378
343 1 -1.1104 3.90761 11.1067 1.3494
345 1 -1.1104 3.80166 11.0023 4.23369
346 2 2.2208 5.21124 18.1387 5.36152
347 1 -1.1104 1.04391 13.7374 1.2594
349 1 -1.1104 0.956433 19.586 1.34269
353 1 -1.1104 0.978066 13.8645 3.99533
354 1 -1.1104 0.972427 19.4071 4.00892
356 1 -1.1104 1.09722 16.6075 1.06071
359 2 2.2208 5.23346 15.2939 2.62992
360 2 2.2208 5.27873 20.8609 2.52139
361 1 -1.1104 1.10627 16.6546 3.91773
363 1 -1.1104 3.85066 13.8281 1.15939
365 1 -1.1104 3.92408 19.4781 1.09125
367 2 2.2208 2.38411 18.1369 2.60214
368 1 -1.1104 4.03522 13.82 3.96912
369 1 -1.1104 3.81009 19.4728 3.89301
370 2 2.2208 2.55831 15.2181 5.36074
371 2 2.2208 2.51266 20.8887 5.48815
372 1 -1.1104 3.85163 16.7277 1.24032
374 1 -1.1104 3.77401 16.6058 3.93912
489 2 2.2208 2.42882 20.8858 -0.193522
376 2 2.2208 -0.329407 9.63215 2.69108
499 2 2.2208 2.50901 9.58011 -0.161449
375 2 2.2208 -0.421371 15.2646 2.63357
500 2 2.2208 5.31397 12.4065 -0.143223
391 1 -1.1104 6.64099 19.4803 4.0279
362 1 -1.1104 6.57955 16.6309 4.19305
390 1 -1.1104 6.67182 19.5182 1.27737
9293 2 2.2208 -0.46142 12.4423 5.45294
498 2 2.2208 2.48655 15.3006 -0.217243
492 2 2.2208 5.25204 18.0714 -0.199765
495 2 2.2208 8.09902 9.60845 -0.253369
392 1 -1.1104 6.62224 16.5842 1.24683
417 2 2.2208 13.632 17.9964 2.69413
355 1 -1.1104 6.81197 13.9135 4.13916
350 1 -1.1104 6.59528 13.9103 1.41334
340 1 -1.1104 6.67953 11.0109 3.89242
336 1 -1.1104 6.80748 11.0899 1.03873
380 2 2.2208 10.9515 12.4756 5.43492
381 1 -1.1104 12.2966 11.0391 1.04883
383 2 2.2208 10.8913 9.62335 2.51009
384 1 -1.1104 12.2761 11.093 3.91818
385 2 2.2208 8.06727 12.3607 2.72409
386 2 2.2208 8.17313 9.63958 5.37877
387 1 -1.1104 9.39994 10.9101 1.1136
389 1 -1.1104 9.53601 11.008 3.93984
393 2 2.2208 10.9698 18.0676 5.46921
394 1 -1.1104 12.2118 13.9178 1.05476
396 1 -1.1104 12.4952 19.5655 1.4433
398 1 -1.1104 12.379 13.8112 3.88169
399 1 -1.1104 12.2081 19.4487 3.99872
400 1 -1.1104 12.3457 16.701 1.21307
402 2 2.2208 10.8812 15.2517 2.55328
403 2 2.2208 10.9038 20.9404 2.6657
404 1 -1.1104 12.1211 16.5191 4.14485
405 1 -1.1104 9.41796 13.7905 1.1848
407 1 -1.1104 9.62176 19.508 1.28349
409 2 2.2208 8.10268 18.0078 2.60805
410 1 -1.1104 9.57259 13.9098 3.87405
411 1 -1.1104 9.4214 19.3618 3.97092
412 2 2.2208 8.20086 15.28 5.45809
413 2 2.2208 8.1235 20.8668 5.34315
414 1 -1.1104 9.53073 16.6783 1.2145
416 1 -1.1104 9.33577 16.6309 4.06877
497 2 2.2208 8.07444 21.0021 -0.128484
494 2 2.2208 10.8561 12.45 -0.321699
493 2 2.2208 8.18889 15.2067 -0.156163
9177 2 2.2208 13.6486 15.2854 5.3891
496 2 2.2208 10.9674 18.1409 -0.128775
344 1 -1.1104 4.04465 11.0216 6.91299
373 1 -1.1104 3.9513 16.6107 6.65111
364 1 -1.1104 3.91301 13.843 6.93418
435 1 -1.1104 1.18186 19.2893 6.73501
357 1 -1.1104 1.17722 16.5915 6.68238
9298 2 2.2208 -0.307333 18.0539 11.0046
9299 2 2.2208 -0.148326 15.2472 8.20635
335 1 -1.1104 0.890765 11.039 6.83105
348 1 -1.1104 1.09414 13.7969 6.77932
366 1 -1.1104 3.94902 19.4662 6.8121
419 1 -1.1104 3.9909 19.6152 12.4284
420 1 -1.1104 3.81961 13.8481 12.5198
424 1 -1.1104 1.03787 19.5196 9.67009
425 1 -1.1104 1.17599 16.7466 9.63011
426 2 2.2208 5.39838 20.8321 8.28693
427 1 -1.1104 1.18786 13.9667 9.62878
428 2 2.2208 5.32111 15.2407 8.23299
431 1 -1.1104 1.0984 19.3356 12.4998
432 1 -1.1104 1.03162 13.878 12.4934
433 2 2.2208 5.51184 18.0299 11.0155
434 1 -1.1104 4.00228 19.5473 9.5722
436 2 2.2208 2.50864 18.1922 8.18192
437 1 -1.1104 4.04782 16.7601 9.41612
438 1 -1.1104 3.99392 13.8393 9.6383
440 1 -1.1104 1.07322 16.6543 12.4108
441 1 -1.1104 4.05752 16.8028 12.5243
442 2 2.2208 2.52076 20.9213 11.0876
443 2 2.2208 5.23091 12.4954 11.002
444 1 -1.1104 0.909004 11.0974 12.4236
446 2 2.2208 2.65999 15.2384 11.0755
447 2 2.2208 5.42029 9.46343 8.16759
448 1 -1.1104 1.06219 11.2431 9.48733
450 2 2.2208 2.68512 12.4237 8.20607
451 2 2.2208 2.50085 9.69674 11.0253
452 1 -1.1104 3.7813 11.0917 12.3806
453 1 -1.1104 3.97223 10.9121 9.54156
429 1 -1.1104 6.63359 19.5825 12.3623
9274 2 2.2208 -0.393271 9.74882 8.34087
9297 2 2.2208 -0.354737 20.9573 8.37327
337 1 -1.1104 6.94538 11.0865 6.77949
351 1 -1.1104 6.7527 13.9307 6.8072
439 1 -1.1104 6.8874 16.7629 12.5717
422 1 -1.1104 6.75719 16.5859 9.66517
463 2 2.2208 8.16005 18.0935 8.21413
470 1 -1.1104 12.2866 16.714 12.4032
461 1 -1.1104 9.56695 19.6139 9.644
464 1 -1.1104 9.53604 19.5058 12.4296
9294 2 2.2208 13.7924 15.2853 11.1356
9246 2 2.2208 13.7558 12.4273 8.17543
382 1 -1.1104 12.4511 11.0701 6.8176
9295 2 2.2208 13.7604 18.1823 8.19977
455 2 2.2208 10.9178 12.4614 11.0739
421 1 -1.1104 6.76122 19.4328 9.56883
9234 2 2.2208 13.8699 20.9366 11.0339
415 1 -1.1104 9.59559 16.7005 6.93075
388 1 -1.1104 9.51686 10.9456 6.72347
401 1 -1.1104 12.2741 16.7161 6.89319
408 1 -1.1104 9.60302 19.6265 6.96663
397 1 -1.1104 12.4302 19.4971 6.81225
358 1 -1.1104 6.82689 16.6054 6.93405
352 1 -1.1104 6.83495 19.4881 6.79768
395 1 -1.1104 12.2732 13.9652 6.78071
406 1 -1.1104 9.64843 13.6583 6.81411
471 1 -1.1104 9.4998 10.9959 12.4229
454 1 -1.1104 12.2663 11.1127 12.5648
469 2 2.2208 10.8755 15.2888 8.32101
445 1 -1.1104 6.56575 11.1192 12.2639
430 1 -1.1104 6.81015 13.9943 12.4752
467 2 2.2208 10.9149 20.9906 8.28201
423 1 -1.1104 6.6752 13.7699 9.6395
474 2 2.2208 8.11827 9.60548 10.8784
476 1 -1.1104 12.204 19.5357 12.4584
460 2 2.2208 8.22214 15.2355 11.124
462 1 -1.1104 9.58633 13.8671 9.69733
465 1 -1.1104 9.49273 13.8443 12.2816
449 1 -1.1104 6.74205 10.9869 9.44992
457 1 -1.1104 9.47965 16.8732 9.66288
456 2 2.2208 10.8917 18.155 11.061
459 2 2.2208 8.06028 20.9332 11.0168
377 1 -1.1104 12.4054 11.2443 9.68393
466 1 -1.1104 12.3135 16.9135 9.55242
472 1 -1.1104 12.391 19.6975 9.70468
458 1 -1.1104 9.74162 16.4794 12.3991
473 1 -1.1104 12.4075 14.0847 9.64813
477 1 -1.1104 12.2879 13.8976 12.3412
468 1 -1.1104 9.53929 11.0305 9.6418
475 2 2.2208 8.11359 12.4749 8.24127
379 2 2.2208 11.0679 9.55976 8.19349
503 2 2.2208 5.28421 12.5369 16.6551
504 1 -1.1104 1.13742 11.0001 18.125
506 2 2.2208 5.34228 9.71206 19.3539
507 1 -1.1104 1.15876 10.8157 15.2306
511 2 2.2208 2.46689 12.4591 19.4813
512 2 2.2208 2.46295 9.50952 16.7043
513 1 -1.1104 3.87413 10.9719 18.0415
514 1 -1.1104 3.96863 11.0763 15.3847
516 2 2.2208 5.37341 18.0522 16.7836
517 1 -1.1104 0.92479 13.8011 17.981
518 1 -1.1104 1.19794 19.3927 18.0322
521 1 -1.1104 1.05928 13.7564 15.1079
523 1 -1.1104 1.15586 19.5009 15.297
529 1 -1.1104 1.25081 16.601 18.123
531 2 2.2208 5.18305 15.3173 19.528
532 2 2.2208 5.32516 20.862 19.447
533 1 -1.1104 1.07583 16.5556 15.1718
537 1 -1.1104 3.78089 13.9431 18.1118
538 1 -1.1104 3.94748 19.4612 18.045
539 2 2.2208 2.51326 18.0614 19.5441
540 1 -1.1104 3.87926 13.8932 15.243
542 1 -1.1104 4.08353 19.4492 15.3254
544 2 2.2208 2.33617 15.2439 16.5577
545 2 2.2208 2.6097 20.9413 16.6684
546 1 -1.1104 3.85416 16.7007 18.0079
547 1 -1.1104 3.75144 16.6641 15.2872
550 2 2.2208 -0.319125 9.74344 19.5691
9311 2 2.2208 -0.312184 15.2075 13.8471
480 2 2.2208 5.23279 9.6365 13.833
9312 2 2.2208 -0.298091 20.8974 13.8818
478 2 2.2208 2.50168 18.0078 13.8051
482 2 2.2208 5.42581 15.2955 13.9944
481 2 2.2208 2.528 12.3305 13.8818
525 1 -1.1104 6.67809 13.8018 15.2273
535 1 -1.1104 6.65605 16.7464 15.3263
519 1 -1.1104 6.70678 13.8942 18.0384
527 1 -1.1104 6.92521 19.4191 15.3489
505 1 -1.1104 6.79321 11.1637 17.9046
520 1 -1.1104 6.67759 19.4232 18.0778
479 2 2.2208 5.33568 20.9666 13.9416
484 2 2.2208 11.018 15.2028 13.7305
509 1 -1.1104 6.79434 11.007 15.0641
530 1 -1.1104 6.71842 16.5531 18.2242
575 1 -1.1104 12.3448 16.7455 20.8517
554 2 2.2208 10.9173 12.4339 16.6067
555 1 -1.1104 12.3115 11.1219 18.0721
556 2 2.2208 10.8437 9.71515 19.4614
557 1 -1.1104 12.2949 11.0757 15.2434
559 2 2.2208 8.19389 12.4474 19.2507
560 2 2.2208 8.09269 9.65608 16.4814
561 1 -1.1104 9.52746 10.9933 17.9961
562 1 -1.1104 9.49998 11.1728 15.1738
564 2 2.2208 10.9591 18.1218 16.5462
565 1 -1.1104 12.4505 13.9184 17.9181
566 1 -1.1104 12.2042 19.5079 18.1494
567 1 -1.1104 12.4514 13.8847 15.2117
569 1 -1.1104 12.4266 19.5351 15.3195
571 1 -1.1104 12.2324 16.6559 18.0295
572 2 2.2208 10.8635 15.3198 19.3224
573 2 2.2208 10.9452 20.8446 19.5206
574 1 -1.1104 12.5315 16.7303 15.1927
576 1 -1.1104 9.49065 13.8934 17.8966
577 1 -1.1104 9.53837 19.434 18.0956
578 2 2.2208 8.03691 18.1284 19.5372
579 1 -1.1104 9.5493 13.8478 15.1813
581 1 -1.1104 9.67326 19.6466 15.2722
583 2 2.2208 8.09254 15.3652 16.6664
584 2 2.2208 8.05131 20.9846 16.7752
585 1 -1.1104 9.57178 16.6872 18.0413
586 1 -1.1104 9.55453 16.6124 15.0941
483 2 2.2208 10.8502 21.0735 13.9011
485 2 2.2208 8.2324 18.0823 13.8936
9306 2 2.2208 13.7346 12.4985 13.8526
590 2 2.2208 13.8506 15.2356 16.7068
9363 2 2.2208 13.8451 20.8945 16.5875
589 2 2.2208 13.7248 18.2395 19.4189
9301 2 2.2208 13.6555 18.1113 13.6934
488 2 2.2208 8.1047 12.413 13.6712
487 2 2.2208 10.8581 9.69109 13.8368
524 1 -1.1104 1.02953 19.5264 20.9881
633 2 2.2208 -0.294266 15.3604 25.0676
515 1 -1.1104 3.87361 10.9918 20.7976
522 1 -1.1104 1.12497 13.9585 20.8999
548 1 -1.1104 3.88313 16.8062 20.9991
637 2 2.2208 -0.362721 9.70351 25.0864
543 1 -1.1104 3.91133 19.5772 20.8236
534 1 -1.1104 1.09085 16.6488 20.7717
638 2 2.2208 -0.361572 12.5083 22.2841
541 1 -1.1104 3.99872 13.8405 20.8388
508 1 -1.1104 1.06525 11.0917 20.9388
594 1 -1.1104 3.83123 19.6802 23.736
596 1 -1.1104 3.89003 13.7702 23.5373
598 1 -1.1104 1.09606 19.5992 26.7129
599 1 -1.1104 1.0621 16.7373 26.4298
600 1 -1.1104 1.23764 13.8228 26.5558
602 2 2.2208 5.39138 21.0365 25.0861
603 2 2.2208 5.34452 15.2417 25.0043
605 1 -1.1104 1.09583 19.5467 23.7274
606 1 -1.1104 1.18991 13.8676 23.7506
607 2 2.2208 5.22401 18.0103 22.385
608 1 -1.1104 3.93334 19.4432 26.4461
609 2 2.2208 2.49551 18.1418 25.1693
610 1 -1.1104 3.81201 16.5688 26.5404
611 1 -1.1104 3.95349 13.8432 26.3845
613 1 -1.1104 1.09966 16.6752 23.654
614 1 -1.1104 3.83659 16.6507 23.8417
615 2 2.2208 2.44107 20.8723 22.1662
616 2 2.2208 5.29288 12.5084 22.1749
617 1 -1.1104 1.02522 11.03 23.5472
619 2 2.2208 2.57002 15.3008 22.2743
620 2 2.2208 5.44921 9.65327 24.9476
621 1 -1.1104 0.918352 11.0688 26.4601
623 2 2.2208 2.51265 12.3752 25.1012
624 2 2.2208 2.53435 9.54536 22.2372
625 1 -1.1104 3.97311 11.122 23.664
626 1 -1.1104 3.94777 10.9247 26.5162
618 1 -1.1104 6.77263 11.0005 23.4466
601 1 -1.1104 6.53913 19.4678 23.6639
595 1 -1.1104 6.8489 13.9711 26.4842
645 1 -1.1104 6.79956 19.605 26.5327
597 1 -1.1104 6.6161 16.8634 26.4924
592 2 2.2208 13.7006 18.0439 24.9585
627 2 2.2208 13.7164 20.9198 22.2481
657 2 2.2208 8.0316 9.61123 22.1036
652 2 2.2208 10.918 15.2914 25.0279
582 1 -1.1104 9.55847 19.5058 20.8503
587 1 -1.1104 9.39757 16.686 20.7605
655 1 -1.1104 12.5176 13.9428 26.3849
659 1 -1.1104 12.1888 19.3661 23.6733
650 1 -1.1104 9.53235 11.1002 26.5014
526 1 -1.1104 6.78273 13.9948 20.8036
580 1 -1.1104 9.4816 13.9338 20.8033
647 1 -1.1104 9.43583 19.4465 23.5531
629 2 2.2208 11.0215 9.57917 24.9293
568 1 -1.1104 12.2004 13.791 20.7073
558 1 -1.1104 12.266 10.9832 20.8938
656 1 -1.1104 9.57455 10.9048 23.7311
510 1 -1.1104 6.62822 11.1508 20.7007
649 1 -1.1104 12.2951 16.6906 26.4945
651 2 2.2208 10.9023 20.9245 25.1287
630 1 -1.1104 12.4344 11.0276 23.5974
528 1 -1.1104 6.79199 19.4407 20.792
643 1 -1.1104 9.5877 19.5292 26.5002
646 2 2.2208 8.18562 18.0276 24.9958
641 2 2.2208 8.16458 20.8551 22.2897
604 1 -1.1104 6.59651 13.8324 23.6295
653 1 -1.1104 12.1832 16.5869 23.5462
622 1 -1.1104 6.67199 11.0445 26.3975
634 1 -1.1104 12.1408 13.6765 23.5449
612 1 -1.1104 6.65651 16.7213 23.7435
536 1 -1.1104 6.57622 16.7266 21.0469
654 1 -1.1104 12.3733 19.4661 26.4941
658 2 2.2208 8.0673 12.3805 24.9701
640 1 -1.1104 9.4563 16.7596 23.6511
639 1 -1.1104 9.53935 16.7671 26.49
632 2 2.2208 10.9254 18.0854 22.1148
570 1 -1.1104 12.4281 19.5927 20.8443
644 1 -1.1104 9.62907 13.9247 26.484
563 1 -1.1104 9.44644 11.0197 20.8049
642 2 2.2208 8.13609 15.3515 22.1969
631 2 2.2208 10.8145 12.3875 22.1896
628 1 -1.1104 12.3097 11.0804 26.2916
648 1 -1.1104 9.29243 13.7596 23.6032
660 2 2.2208 5.35705 23.7251 5.44538
661 2 2.2208 5.19278 29.347 5.34958
662 1 -1.1104 1.07413 25.1069 1.27196
663 1 -1.1104 1.00456 25.1209 4.00022
664 1 -1.1104 1.1465 22.5067 1.01261
665 1 -1.1104 1.11639 27.9227 0.944628
666 2 2.2208 5.25525 26.5297 2.7078
667 1 -1.1104 1.08762 22.3168 3.99775
668 1 -1.1104 0.932967 27.8008 3.92825
669 1 -1.1104 3.76044 25.1063 1.3002
670 2 2.2208 2.31892 23.7417 2.61532
671 2 2.2208 2.511 29.3367 2.43111
672 1 -1.1104 3.95664 25.0381 4.12474
673 2 2.2208 2.47944 26.3841 5.40159
674 1 -1.1104 3.8186 22.4184 1.28525
675 1 -1.1104 3.97973 27.971 1.1627
676 1 -1.1104 3.98688 22.1591 4.23251
677 1 -1.1104 3.89614 27.9206 4.01626
678 1 -1.1104 1.07051 30.725 1.16549
679 1 -1.1104 1.19157 30.6375 3.98047
680 1 -1.1104 0.961181 33.5827 0.978484
681 2 2.2208 5.30965 32.1761 2.43209
682 1 -1.1104 1.07388 33.3208 3.78937
684 1 -1.1104 4.00461 30.6273 0.98713
685 1 -1.1104 3.84473 30.7364 3.88477
686 2 2.2208 2.47539 31.9769 5.24655
687 1 -1.1104 3.81442 33.582 1.15634
688 1 -1.1104 3.75563 33.5716 3.95983
956 2 2.2208 5.3252 29.3431 -0.266117
817 2 2.2208 5.05202 23.7608 -0.219556
819 2 2.2208 2.41551 32.2462 -0.354255
9642 2 2.2208 -0.468993 29.3259 -0.255599
696 1 -1.1104 6.66167 27.9488 1.14145
698 1 -1.1104 6.66628 27.8252 3.98948
719 1 -1.1104 6.57711 33.6256 1.02822
9636 2 2.2208 -0.476459 29.3426 5.36631
818 2 2.2208 2.39485 26.5246 -0.193371
9634 2 2.2208 -0.459597 26.4824 2.58908
821 2 2.2208 -0.418605 23.7062 -0.265163
697 1 -1.1104 6.91354 22.3591 4.19053
695 1 -1.1104 6.61765 22.3027 1.25942
957 2 2.2208 8.08939 32.1294 -0.324388
693 1 -1.1104 6.61607 25.1206 1.13514
683 1 -1.1104 6.5908 33.5096 3.84383
694 1 -1.1104 6.69541 25.1351 4.03692
718 1 -1.1104 6.57957 30.5975 3.81507
717 1 -1.1104 6.80738 30.8483 1.0138
699 2 2.2208 10.923 23.7119 5.36949
700 2 2.2208 10.7575 29.3165 5.29534
701 1 -1.1104 12.2451 25.1865 1.29003
702 1 -1.1104 12.3299 25.0542 3.92255
703 1 -1.1104 12.2531 22.4233 1.13462
704 1 -1.1104 12.1871 28.0966 1.0408
705 2 2.2208 10.8505 26.5891 2.53367
706 1 -1.1104 12.3557 22.3053 4.04085
707 1 -1.1104 12.1477 27.9888 4.03725
708 1 -1.1104 9.37883 25.1846 1.27003
709 2 2.2208 8.01856 23.6546 2.59028
710 2 2.2208 8.01274 29.3381 2.50913
711 1 -1.1104 9.55924 25.052 4.03711
712 2 2.2208 8.15262 26.3412 5.4566
713 1 -1.1104 9.51794 22.4018 1.28552
714 1 -1.1104 9.41666 28.0363 1.14488
715 1 -1.1104 9.68586 22.0837 4.00498
716 1 -1.1104 9.43292 27.9008 3.88814
720 1 -1.1104 12.4264 30.9141 1.15705
721 1 -1.1104 12.195 30.7382 3.94492
722 1 -1.1104 12.1568 33.6442 0.892673
723 2 2.2208 10.9029 32.1756 2.47198
724 1 -1.1104 12.1624 33.5717 3.77807
725 1 -1.1104 9.52461 30.7789 1.04643
726 1 -1.1104 9.46084 30.6325 3.83881
727 2 2.2208 7.94328 32.0762 5.18369
728 1 -1.1104 9.39419 33.6804 1.13991
729 1 -1.1104 9.48709 33.4873 3.94995
955 2 2.2208 8.0208 26.5791 -0.295398
920 2 2.2208 10.8721 29.416 -0.336777
745 1 -1.1104 6.58256 33.3942 6.73936
795 1 -1.1104 9.22413 33.5664 6.76392
820 2 2.2208 13.6322 26.3847 -0.235829
822 2 2.2208 10.8854 23.6695 -0.114193
741 1 -1.1104 4.01353 27.8399 6.75419
733 1 -1.1104 0.986169 25.0874 6.71065
742 1 -1.1104 0.962575 30.7559 6.67927
744 1 -1.1104 1.13622 33.5364 6.6335
746 1 -1.1104 3.75944 30.6942 6.7179
747 1 -1.1104 3.88016 33.4427 6.79868
740 1 -1.1104 3.94748 22.2476 7.00467
736 1 -1.1104 1.1445 27.8948 6.79126
739 1 -1.1104 3.78936 25.0319 6.9303
735 1 -1.1104 1.09407 22.2328 6.82717
748 2 2.2208 5.3081 23.7016 10.9742
749 2 2.2208 5.2378 29.2586 10.973
750 1 -1.1104 1.03482 25.1277 12.4609
752 1 -1.1104 1.05856 25.1139 9.50586
754 1 -1.1104 0.968938 22.2635 12.5257
755 1 -1.1104 0.970829 27.9303 12.3057
758 2 2.2208 5.21255 26.5797 8.26441
759 1 -1.1104 1.03824 22.3862 9.72792
760 1 -1.1104 0.992685 27.7799 9.58693