ITEM: TIMESTEP
40000
ITEM: NUMBER OF ATOMS
17910
ITEM: BOX BOUNDS pp pp pp
-3.4519674442562787e-01 2.7685196744425838e+01
-4.3538242759831043e+00 3.3243382427599261e+02
-3.5725269654180031e-01 2.7697252696542030e+01
ITEM: ATOMS id type q x y z
1 2 2.2208 5.21524 1.26206 5.22793
2 1 -1.1104 1.17382 -2.86216 1.0042
3 1 -1.1104 1.1799 2.83753 0.929129
6 1 -1.1104 1.32111 -2.74911 3.60448
7 1 -1.1104 0.967954 2.68141 3.71169
10 1 -1.1104 1.16001 -0.125073 0.973561
12 2 2.2208 5.34397 -1.58021 2.54326
13 2 2.2208 5.30365 4.02441 2.41231
14 1 -1.1104 1.06115 -0.110461 3.90947
16 1 -1.1104 3.95072 -2.93019 1.01704
17 1 -1.1104 3.81875 2.73362 1.03103
18 2 2.2208 2.29927 1.37722 2.492
19 1 -1.1104 4.05735 -2.8597 3.98873
20 1 -1.1104 3.67826 2.67027 3.68604
21 2 2.2208 2.40418 -1.50177 5.22242
22 2 2.2208 2.40145 4.22272 5.11535
23 1 -1.1104 3.9098 -0.122878 1.17948
24 1 -1.1104 3.82533 -0.0695914 3.96265
25 2 2.2208 5.26123 6.88531 5.23448
26 1 -1.1104 1.06254 8.41214 1.06188
28 1 -1.1104 1.01768 8.49676 3.84837
30 1 -1.1104 1.12856 5.59361 1.003
32 1 -1.1104 1.00276 5.62969 3.84866
34 1 -1.1104 3.9211 8.30115 1.05971
35 2 2.2208 2.50341 7.03567 2.38072
37 1 -1.1104 3.98289 5.34945 0.885009
38 1 -1.1104 3.79415 5.66506 3.8327
36 1 -1.1104 3.84478 8.40292 3.72481
87 1 -1.1104 3.87509 2.73095 6.53268
86 1 -1.1104 3.90587 -2.92829 6.58226
91 1 -1.1104 0.876624 5.50918 6.51781
27 1 -1.1104 6.53367 8.40134 0.962008
80 1 -1.1104 1.06899 -2.90932 6.61249
81 1 -1.1104 1.16658 2.63856 6.54036
93 1 -1.1104 3.88269 8.1521 6.60218
17711 2 2.2208 -0.243274 -4.33234 5.14504
9 1 -1.1104 6.62678 2.74104 3.78499
89 1 -1.1104 1.11545 8.36773 6.73357
17900 2 2.2208 -0.274982 -4.32473 -0.203583
8942 2 2.2208 -0.219583 -1.46652 2.53756
8574 2 2.2208 2.64282 -4.18441 2.38442
8938 2 2.2208 -0.314006 4.17965 2.38406
8583 2 2.2208 5.31995 -4.22095 -0.363747
84 1 -1.1104 1.15442 -0.0431351 6.56199
83 1 -1.1104 6.59317 2.47209 6.50344
92 1 -1.1104 6.63898 5.27868 6.58159
90 1 -1.1104 6.6219 8.16663 6.5121
8943 2 2.2208 -0.251676 1.31566 5.34489
9069 2 2.2208 -0.228205 1.31734 -0.37133
5 1 -1.1104 6.72088 2.66867 0.942269
11 1 -1.1104 6.74466 -0.0923134 1.00936
31 1 -1.1104 6.67681 5.56738 1.0364
15 1 -1.1104 6.79395 -0.15019 3.80169
82 1 -1.1104 6.70147 -2.86829 6.60681
8 1 -1.1104 6.75548 -2.91076 3.80999
29 1 -1.1104 6.73617 8.08705 3.81613
33 1 -1.1104 6.75914 5.41107 3.81045
4 1 -1.1104 6.61872 -2.91888 1.08559
46 2 2.2208 11.0254 1.33764 5.29065
47 1 -1.1104 12.325 -2.89196 1.25646
48 1 -1.1104 12.3868 2.51967 1.12465
49 1 -1.1104 12.2929 -2.99962 3.88666
50 1 -1.1104 12.3842 2.63389 3.93269
51 1 -1.1104 12.0952 -0.177513 0.914009
52 2 2.2208 10.8203 -1.52549 2.50857
53 2 2.2208 11.1092 4.04081 2.43659
54 1 -1.1104 12.3939 -0.253492 3.77058
55 1 -1.1104 9.54641 -2.93189 0.881145
56 1 -1.1104 9.50575 2.64831 0.942853
57 2 2.2208 8.13997 1.35472 2.29192
58 1 -1.1104 9.57863 -2.96731 3.86637
59 1 -1.1104 9.6819 2.67006 3.85053
60 2 2.2208 8.1692 -1.45579 5.23764
61 2 2.2208 8.08388 3.95476 5.13043
62 1 -1.1104 9.51016 -0.201991 0.941052
63 1 -1.1104 9.35858 0.0144596 3.9259
64 2 2.2208 10.9917 6.89932 5.26895
66 1 -1.1104 12.4901 8.16878 3.98496
67 1 -1.1104 12.4293 5.41679 1.10973
68 1 -1.1104 12.3353 5.3451 3.82898
69 1 -1.1104 9.39278 8.30917 1.018
70 2 2.2208 8.1264 6.77358 2.46362
71 1 -1.1104 9.72844 8.30465 3.85306
72 1 -1.1104 9.69255 5.3686 1.26123
73 1 -1.1104 9.57527 5.59592 3.82702
141 1 -1.1104 12.4396 -0.126086 6.64259
142 1 -1.1104 9.7063 -3.01881 6.65873
147 1 -1.1104 9.50237 8.2336 6.64849
8587 2 2.2208 10.8451 -4.35094 -0.329064
8576 2 2.2208 8.14663 -4.25096 2.48283
149 1 -1.1104 9.43629 5.35185 6.64002
144 1 -1.1104 9.49762 -0.187667 6.74812
65 1 -1.1104 12.3 8.28202 1.11335
88 1 -1.1104 3.80981 -0.200029 6.78135
94 1 -1.1104 3.69632 5.4373 6.58991
17703 2 2.2208 -0.331091 -4.34994 10.7848
95 2 2.2208 5.28308 1.16162 10.8248
96 1 -1.1104 1.08327 -2.87358 12.245
97 1 -1.1104 1.08687 2.62769 12.3083
100 1 -1.1104 1.0533 -3.06193 9.37344
101 1 -1.1104 1.10265 2.65204 9.5183
104 1 -1.1104 0.888645 -0.137929 12.3586
106 2 2.2208 5.23473 -1.64627 7.95438
107 2 2.2208 5.18834 3.96456 8.0343
108 1 -1.1104 1.24078 -0.100263 9.43983
110 1 -1.1104 4.04666 -2.96272 12.3719
111 1 -1.1104 3.8776 2.73075 12.265
112 2 2.2208 2.52607 1.24093 8.03986
113 1 -1.1104 3.82729 -2.92531 9.38419
114 1 -1.1104 3.77238 2.61151 9.46623
115 2 2.2208 2.59895 -1.57965 10.7366
116 2 2.2208 2.49306 4.02752 10.9181
117 1 -1.1104 3.81905 -0.108098 12.2262
118 1 -1.1104 4.05876 -0.286546 9.36872
119 2 2.2208 5.23124 6.73297 10.7502
120 1 -1.1104 1.24728 8.23216 12.1706
122 1 -1.1104 1.01508 8.23586 9.50287
124 1 -1.1104 1.19502 5.47979 12.21
126 1 -1.1104 1.19067 5.27267 9.30531
128 1 -1.1104 3.98608 8.32966 12.1004
129 2 2.2208 2.46965 6.87195 8.01819
130 1 -1.1104 3.9481 8.37855 9.3922
131 1 -1.1104 3.98271 5.50165 12.3687
132 1 -1.1104 3.8893 5.51024 9.56767
127 1 -1.1104 6.64564 5.36087 9.42705
8905 2 2.2208 -0.243184 6.86468 10.9324
8586 2 2.2208 2.50811 -4.31586 13.5992
105 1 -1.1104 6.53597 -0.316694 12.1658
8801 2 2.2208 -0.319585 -1.59826 8.05454
161 2 2.2208 2.40856 1.23648 13.6552
102 1 -1.1104 6.56722 -2.89835 9.49172
8800 2 2.2208 -0.36788 1.29372 10.8068
162 2 2.2208 5.29801 4.02806 13.646
160 2 2.2208 2.59637 6.97034 13.6087
85 1 -1.1104 6.61681 -0.164151 6.7385
8573 2 2.2208 8.19953 -4.29448 8.02082
139 1 -1.1104 12.7316 -2.93666 6.76193
143 1 -1.1104 9.55068 2.52049 6.68502
146 1 -1.1104 12.3209 5.52916 6.68432
140 1 -1.1104 12.3762 2.73221 6.72668
134 2 2.2208 8.15268 4.08382 10.8161
78 2 2.2208 10.874 4.02569 8.27389
45 1 -1.1104 12.3605 5.54134 12.3322
76 2 2.2208 10.95 6.90295 10.8089
79 1 -1.1104 9.63359 -0.178532 9.58339
123 1 -1.1104 6.6867 8.15954 9.29374
125 1 -1.1104 6.66615 5.30942 12.3126
98 1 -1.1104 6.73107 -2.91822 12.3128
103 1 -1.1104 6.61269 2.6239 9.28874
121 1 -1.1104 6.79554 8.28535 12.1728
41 1 -1.1104 9.44545 8.26194 12.2455
74 1 -1.1104 12.3719 8.25076 9.55127
77 1 -1.1104 12.4324 -0.212838 9.53827
39 1 -1.1104 9.40623 -3.02543 9.42611
44 1 -1.1104 9.60113 -2.89698 12.2382
135 2 2.2208 8.07208 -1.49691 10.7648
145 1 -1.1104 12.273 8.27558 6.76644
8877 2 2.2208 13.6441 6.71711 8.12434
137 1 -1.1104 12.3077 -0.0443246 12.2402
136 2 2.2208 10.9897 -1.55908 8.07386
8572 2 2.2208 10.8153 -4.30517 10.9206
42 1 -1.1104 12.3196 5.34007 9.61679
138 1 -1.1104 9.4814 2.56748 9.60532
148 1 -1.1104 9.54252 5.49582 9.47457
155 1 -1.1104 12.2475 2.75085 12.2656
40 2 2.2208 8.08113 1.25743 7.96003
151 1 -1.1104 9.59438 8.17792 9.43235
99 1 -1.1104 6.68469 2.53649 12.033
109 1 -1.1104 6.7003 -0.114254 9.37496
153 2 2.2208 10.9066 1.24019 10.8934
157 1 -1.1104 12.2805 2.5898 9.35118
154 1 -1.1104 12.382 -2.9044 12.2756
169 2 2.2208 10.9346 4.08974 13.5754
168 2 2.2208 10.9852 -1.51353 13.6167
43 1 -1.1104 9.51323 2.69418 12.3825
150 1 -1.1104 9.46618 5.46413 12.2638
133 1 -1.1104 9.44245 -0.0252811 12.2323
75 1 -1.1104 12.1998 8.40537 12.2768
156 1 -1.1104 12.3418 -2.98162 9.49856
152 2 2.2208 7.97326 6.76895 8.0715
166 2 2.2208 8.00437 6.84173 13.5659
167 2 2.2208 8.03831 1.12544 13.5426
173 2 2.2208 5.33664 1.21946 16.5069
174 1 -1.1104 0.924475 -2.98367 17.871
175 1 -1.1104 1.11949 2.80483 17.7292
178 1 -1.1104 1.08125 -3.13391 15.0523
180 1 -1.1104 1.26824 2.56502 15.1985
186 1 -1.1104 1.05164 -0.0549334 17.9308
188 2 2.2208 5.26236 -1.52855 19.2173
189 2 2.2208 5.50806 3.9594 19.2656
190 1 -1.1104 1.01571 -0.203253 15.1594
194 1 -1.1104 3.88218 -3.09916 17.9428
195 1 -1.1104 4.00137 2.48752 17.9764
196 2 2.2208 2.568 1.14062 19.1875
197 1 -1.1104 3.78817 -2.83047 15.2666
199 1 -1.1104 3.97116 2.70553 15.1368
201 2 2.2208 2.37384 -1.58737 16.492
202 2 2.2208 2.61857 4.03854 16.5104
203 1 -1.1104 3.885 -0.176383 17.7799
204 1 -1.1104 3.91895 -0.0292776 14.9618
206 2 2.2208 5.38242 6.84709 16.4942
207 1 -1.1104 1.19395 8.3702 17.8656
209 1 -1.1104 1.26949 8.26012 15.026
213 1 -1.1104 1.33544 5.652 17.7105
215 1 -1.1104 1.13462 5.39045 15.0184
219 1 -1.1104 4.03827 8.1766 17.8413
220 2 2.2208 2.53101 7.01071 19.2862
221 1 -1.1104 3.86323 8.48556 14.8953
223 1 -1.1104 4.11586 5.39837 17.813
224 1 -1.1104 3.88874 5.50591 15.191
211 1 -1.1104 6.60959 8.11416 15.034
192 1 -1.1104 6.64794 -0.184392 15.0572
217 1 -1.1104 6.68102 5.39467 14.9601
200 1 -1.1104 3.95812 2.59624 20.5888
198 1 -1.1104 3.87285 -2.92662 20.7302
9070 2 2.2208 -0.183691 4.11052 19.1807
9007 2 2.2208 -0.234902 1.33496 16.4895
9068 2 2.2208 -0.209305 6.89413 16.293
216 1 -1.1104 1.13638 5.54379 20.638
181 1 -1.1104 1.12073 2.73545 20.499
8955 2 2.2208 -0.247861 4.04068 13.7246
159 2 2.2208 5.32529 -1.60581 13.7716
176 1 -1.1104 6.75836 -2.89128 17.9714
177 1 -1.1104 6.82188 2.54883 17.7303
182 1 -1.1104 6.69662 -2.89715 15.0891
214 1 -1.1104 6.90284 5.35617 17.7591
208 1 -1.1104 6.82879 8.25285 17.9096
8653 2 2.2208 8.18219 -4.32945 19.316
184 1 -1.1104 6.75002 2.59482 14.9608
187 1 -1.1104 6.79518 -0.215183 17.9265
237 2 2.2208 10.9521 1.19147 16.3441
238 1 -1.1104 12.3669 -3.10226 17.9272
239 1 -1.1104 12.5028 2.68973 17.9643
240 1 -1.1104 12.3222 -3.03449 15.2182
242 1 -1.1104 12.6068 2.61981 15.1787
244 1 -1.1104 12.495 -0.19931 17.8811
245 2 2.2208 10.9084 -1.65639 19.246
246 2 2.2208 11.0436 3.98472 19.3218
247 1 -1.1104 12.271 -0.246016 14.9535
249 1 -1.1104 9.52227 -3.01304 17.9621
250 1 -1.1104 9.67623 2.63694 17.7314
251 2 2.2208 8.21705 1.25795 19.2201
252 1 -1.1104 9.56228 -2.87963 15.0216
254 1 -1.1104 9.52075 2.51427 15.008
256 2 2.2208 8.22367 -1.57297 16.4467
257 2 2.2208 8.19076 3.99255 16.3451
258 1 -1.1104 9.70474 -0.212681 17.7778
259 1 -1.1104 9.47049 -0.167165 15.0642
261 2 2.2208 11.0213 6.83631 16.5261
263 1 -1.1104 12.2278 8.21381 15.0844
265 1 -1.1104 12.4069 5.44394 18.0472
266 1 -1.1104 12.3993 5.41423 15.0944
268 1 -1.1104 9.65779 8.18246 17.8932
269 2 2.2208 8.19124 6.75488 19.1934
270 1 -1.1104 9.48546 8.26475 15.1787
272 1 -1.1104 9.61008 5.09586 17.8632
273 1 -1.1104 9.5694 5.45016 14.9889
262 1 -1.1104 12.3536 8.1872 17.9748
260 1 -1.1104 9.46358 -0.154506 20.6701
243 1 -1.1104 12.3638 2.66327 20.6717
212 1 -1.1104 6.94028 8.18308 20.7097
185 1 -1.1104 6.87153 2.58373 20.5958
218 1 -1.1104 6.81036 5.52337 20.482
248 1 -1.1104 12.332 -0.309035 20.4952
191 1 -1.1104 1.21824 -0.179138 20.6492
179 1 -1.1104 1.20483 -3.01191 20.6898
8610 2 2.2208 5.22248 -4.24779 22.135
205 1 -1.1104 3.9222 -0.081346 20.6189
222 1 -1.1104 3.96566 8.2261 20.6322
225 1 -1.1104 4.07704 5.39126 20.8685
183 1 -1.1104 6.59593 -2.95058 20.8498
312 1 -1.1104 1.01681 8.27874 26.3421
8600 2 2.2208 2.42308 -4.25769 24.9456
210 1 -1.1104 1.27621 8.2625 20.6561
285 2 2.2208 5.18834 1.28304 21.979
286 1 -1.1104 1.10265 -2.9568 23.473
287 1 -1.1104 1.10928 2.65726 23.4014
290 1 -1.1104 1.06278 -2.85974 26.4721
291 1 -1.1104 1.21981 2.68687 26.1852
294 1 -1.1104 1.05985 -0.131844 23.4628
296 2 2.2208 5.21253 -1.39952 24.8799
297 2 2.2208 5.33608 4.21227 24.8415
298 1 -1.1104 1.15931 -0.0776067 26.2031
300 1 -1.1104 3.83268 -3.03138 23.562
301 1 -1.1104 3.9372 2.654 23.502
302 2 2.2208 2.48297 1.21366 24.8865
303 1 -1.1104 3.84014 -2.94927 26.1751
304 1 -1.1104 3.77338 2.78957 26.2361
305 2 2.2208 2.56619 -1.63356 22.0366
306 2 2.2208 2.54223 4.10743 22.1388
307 1 -1.1104 3.8905 -0.271121 23.4085
308 1 -1.1104 3.84227 -0.0550255 26.3356
309 2 2.2208 5.49999 6.98318 22.0993
310 1 -1.1104 1.20785 8.39969 23.5278
314 1 -1.1104 0.895302 5.67239 23.5785
316 1 -1.1104 1.2243 5.57518 26.2505
318 1 -1.1104 3.84546 8.34646 23.4894
319 2 2.2208 2.48642 6.96169 24.9095
321 1 -1.1104 3.79851 5.54283 23.5536
322 1 -1.1104 3.97231 5.53644 26.3117
320 1 -1.1104 3.79202 8.24748 26.2824
170 2 2.2208 5.27903 1.38253 27.5794
292 1 -1.1104 6.60556 -3.04102 26.2459
171 2 2.2208 2.56968 4.23249 27.6064
324 2 2.2208 2.6085 -1.44767 27.6745
172 2 2.2208 5.37167 6.84172 27.6307
9008 2 2.2208 -0.231924 6.93309 21.9498
9067 2 2.2208 -0.307441 -1.53628 24.9704
9010 2 2.2208 -0.317925 1.26918 21.9766
8953 2 2.2208 -0.214838 6.93636 27.6679
8657 2 2.2208 8.00325 -4.38719 24.8666
280 2 2.2208 8.20208 6.91695 24.9062
274 1 -1.1104 9.5638 5.51156 20.845
271 1 -1.1104 9.63179 8.29171 20.7245
284 1 -1.1104 9.59938 -0.252883 26.2578
236 1 -1.1104 12.5428 2.69699 23.3964
329 1 -1.1104 9.41709 -2.87546 23.4159
241 1 -1.1104 12.243 -3.03343 20.7293
264 1 -1.1104 12.3908 8.35002 20.6139
163 2 2.2208 8.17046 4.06924 27.6954
293 1 -1.1104 6.67029 2.84438 26.2292
288 1 -1.1104 6.69385 -2.81684 23.593
311 1 -1.1104 6.72225 8.34539 23.4587
289 1 -1.1104 6.79314 2.8721 23.4587
299 1 -1.1104 6.79834 -0.215684 26.255
317 1 -1.1104 6.88545 5.54592 26.3359
313 1 -1.1104 6.81426 8.28623 26.1227
193 1 -1.1104 6.64752 -0.182481 20.7535
295 1 -1.1104 6.72029 -0.0338905 23.5706
315 1 -1.1104 6.86269 5.54708 23.3998
229 2 2.2208 10.9408 -4.34566 22.1523
267 1 -1.1104 12.3881 5.65064 20.7727
253 1 -1.1104 9.57906 -2.95768 20.6552
330 1 -1.1104 12.3265 -0.149806 26.203
158 2 2.2208 11.0092 6.81075 27.6754
279 2 2.2208 11.0171 1.2234 22.012
275 1 -1.1104 12.2512 -3.06781 23.5725
323 2 2.2208 10.9641 6.92818 22.1449
325 1 -1.1104 12.4123 8.38452 23.4537
228 2 2.2208 8.12061 -1.47097 22.0739
282 1 -1.1104 9.55983 5.61132 23.7297
283 1 -1.1104 9.73275 5.30996 26.4202
327 1 -1.1104 9.59076 8.34447 23.4164
230 1 -1.1104 9.44934 2.53286 26.224
231 2 2.2208 10.9831 -1.57886 24.9309
331 2 2.2208 11.0231 4.09878 24.7568
227 2 2.2208 8.13151 4.10322 22.0922
277 2 2.2208 8.21912 1.27925 24.8825
332 1 -1.1104 12.3174 5.39655 23.3751
226 1 -1.1104 9.75295 -0.215961 23.4335
255 1 -1.1104 9.58011 2.72952 20.8457
235 1 -1.1104 12.3875 -3.03304 26.416
328 1 -1.1104 12.3675 5.46457 26.2363
281 1 -1.1104 9.70795 8.22277 26.3438
278 1 -1.1104 9.6597 2.71969 23.5802
234 1 -1.1104 12.3658 2.75728 26.3693
232 1 -1.1104 9.46198 -2.94769 26.2282
233 1 -1.1104 12.2388 -0.223683 23.3832
326 1 -1.1104 12.4953 8.28896 26.3184
165 2 2.2208 10.8977 1.23252 27.5824
164 2 2.2208 8.04088 -1.66338 27.5915
333 2 2.2208 5.30876 12.5099 5.28066
334 1 -1.1104 1.18544 11.201 1.08209
338 2 2.2208 5.38348 9.69741 2.44406
339 1 -1.1104 1.03919 11.2017 3.67486
341 2 2.2208 2.51833 12.4751 2.43034
342 2 2.2208 2.48701 9.73045 5.27965
343 1 -1.1104 3.85097 11.1481 1.07178
345 1 -1.1104 3.80386 11.1445 3.9574
346 2 2.2208 5.47801 18.2225 5.25204
347 1 -1.1104 1.26537 13.9747 1.1341
349 1 -1.1104 1.2304 19.6722 1.08711
353 1 -1.1104 1.22873 13.9281 3.80421
354 1 -1.1104 0.994455 19.4825 3.85066
356 1 -1.1104 1.42195 16.873 0.900436
359 2 2.2208 5.29823 15.4296 2.4712
360 2 2.2208 5.24692 20.8809 2.25517
361 1 -1.1104 1.139 16.6939 3.75302
363 1 -1.1104 4.03529 14.0572 1.00447
365 1 -1.1104 3.92445 19.6358 0.917706
367 2 2.2208 2.5064 18.1943 2.50101
368 1 -1.1104 3.94306 13.9574 3.88772
369 1 -1.1104 3.84452 19.5234 3.85058
370 2 2.2208 2.46126 15.313 5.19979
371 2 2.2208 2.54714 20.969 5.2975
372 1 -1.1104 4.05722 16.7822 1.046
374 1 -1.1104 3.85322 16.87 3.83987
336 1 -1.1104 6.70759 11.2056 1.01964
435 1 -1.1104 1.17057 19.6043 6.56351
335 1 -1.1104 1.05278 11.1745 6.62222
351 1 -1.1104 6.62683 13.9826 6.49861
373 1 -1.1104 4.08563 16.7698 6.68614
364 1 -1.1104 3.84445 13.861 6.64022
340 1 -1.1104 6.7129 11.0335 3.91292
498 2 2.2208 2.65796 15.5279 -0.296784
376 2 2.2208 -0.328737 9.8316 2.32583
9296 2 2.2208 -0.235135 18.2224 5.29853
375 2 2.2208 -0.242916 15.4492 2.39535
378 2 2.2208 -0.249377 20.9991 2.45929
500 2 2.2208 5.25789 12.5639 -0.344771
390 1 -1.1104 6.72201 19.6522 0.879601
362 1 -1.1104 6.7326 16.7929 3.89931
391 1 -1.1104 6.71626 19.5004 3.68542
355 1 -1.1104 6.73692 14.0172 3.73496
392 1 -1.1104 6.80673 16.9261 1.02396
350 1 -1.1104 6.88481 14.039 1.01132
380 2 2.2208 10.9197 12.4727 5.38695
381 1 -1.1104 12.2782 11.1355 0.889669
383 2 2.2208 10.9003 9.62222 2.40531
384 1 -1.1104 12.3134 10.9391 3.74459
385 2 2.2208 8.1724 12.5678 2.36573
386 2 2.2208 8.12947 9.48713 5.1083
387 1 -1.1104 9.5259 11.141 0.98785
389 1 -1.1104 9.52331 10.9829 3.81807
393 2 2.2208 10.9209 18.1762 5.36737
394 1 -1.1104 12.3955 13.7751 1.02015
396 1 -1.1104 12.3052 19.5657 1.14056
398 1 -1.1104 12.3125 13.9162 3.81909
399 1 -1.1104 12.3783 19.524 3.87858
400 1 -1.1104 12.4052 16.8217 1.16453
402 2 2.2208 11.013 15.2692 2.51226
403 2 2.2208 11.0182 20.9762 2.48811
404 1 -1.1104 12.1428 16.6861 3.99027
405 1 -1.1104 9.55441 13.9468 1.07563
407 1 -1.1104 9.50883 19.7292 1.26079
409 2 2.2208 8.17397 18.141 2.4188
410 1 -1.1104 9.58429 13.8457 3.93225
411 1 -1.1104 9.55429 19.421 4.00436
412 2 2.2208 8.14363 15.4238 5.27683
413 2 2.2208 8.18487 20.9665 5.34176
414 1 -1.1104 9.61492 16.8679 1.00044
416 1 -1.1104 9.54865 16.6419 3.87323
418 2 2.2208 13.6294 12.4559 2.44801
401 1 -1.1104 12.4706 16.7166 6.65575
395 1 -1.1104 12.2551 13.9015 6.63419
337 1 -1.1104 6.68807 11.0169 6.59409
382 1 -1.1104 12.3331 11.0738 6.59281
497 2 2.2208 8.20196 20.9797 -0.231055
496 2 2.2208 10.9764 18.1341 -0.271813
493 2 2.2208 8.15952 15.4193 -0.283953
366 1 -1.1104 4.0179 19.6527 6.67103
357 1 -1.1104 1.26444 16.7765 6.59322
348 1 -1.1104 1.15078 13.9204 6.64088
9298 2 2.2208 -0.182414 18.071 10.8637
344 1 -1.1104 3.80866 10.9259 6.78954
9297 2 2.2208 -0.292491 21.0962 8.04692
9274 2 2.2208 -0.235549 9.73597 8.09915
482 2 2.2208 5.30597 15.3766 13.6194
9299 2 2.2208 -0.23095 15.3544 8.05505
481 2 2.2208 2.70859 12.4647 13.6402
419 1 -1.1104 3.864 19.5933 12.2388
420 1 -1.1104 3.9984 13.8373 12.0559
424 1 -1.1104 1.13944 19.6933 9.43066
425 1 -1.1104 1.20696 16.7842 9.27684
426 2 2.2208 5.39666 21.1036 8.22226
427 1 -1.1104 1.12205 14.0776 9.42947
428 2 2.2208 5.25857 15.2584 8.09551
431 1 -1.1104 1.25999 19.5116 12.2386
432 1 -1.1104 1.20654 13.7676 12.2069
433 2 2.2208 5.41042 18.242 10.7961
434 1 -1.1104 3.87068 19.6172 9.43847
436 2 2.2208 2.61249 18.1286 8.05495
437 1 -1.1104 3.87692 16.7108 9.56831
438 1 -1.1104 3.99359 13.8753 9.41714
440 1 -1.1104 1.13363 16.6127 12.0748
441 1 -1.1104 3.93413 16.7973 12.2028
442 2 2.2208 2.48275 21.0417 10.7883
443 2 2.2208 5.41832 12.3911 10.888
444 1 -1.1104 1.23434 11.0324 12.3196
446 2 2.2208 2.59907 15.2138 10.8939
447 2 2.2208 5.46369 9.55046 7.96293
448 1 -1.1104 1.14621 11.1824 9.52335
450 2 2.2208 2.51347 12.4675 8.1258
451 2 2.2208 2.5488 9.80805 10.7485
452 1 -1.1104 4.01684 11.1029 12.3116
453 1 -1.1104 4.05303 11.1197 9.49001
478 2 2.2208 2.4898 18.2348 13.5225
422 1 -1.1104 6.68853 16.6808 9.54609
479 2 2.2208 5.41727 20.9338 13.6556
480 2 2.2208 5.32888 9.68672 13.5831
9311 2 2.2208 -0.174162 15.2581 13.6512
352 1 -1.1104 6.84836 19.5647 6.66881
9301 2 2.2208 13.6309 18.2197 13.5849
470 1 -1.1104 12.2675 16.8181 12.181
463 2 2.2208 8.1692 18.202 8.08268
468 1 -1.1104 9.62115 11.1212 9.45775
415 1 -1.1104 9.64843 16.677 6.74849
397 1 -1.1104 12.4112 19.6099 6.74256
408 1 -1.1104 9.54932 19.487 6.71761
406 1 -1.1104 9.66229 13.8473 6.61308
388 1 -1.1104 9.50087 11.0829 6.69154
483 2 2.2208 10.9055 21.0004 13.6281
379 2 2.2208 10.8923 9.65803 8.02273
358 1 -1.1104 6.81619 16.7515 6.77616
449 1 -1.1104 6.84083 10.9863 9.35075
377 1 -1.1104 12.4229 11.1164 9.49054
466 1 -1.1104 12.2828 16.7801 9.34181
430 1 -1.1104 6.85932 13.9171 12.1663
423 1 -1.1104 6.79417 13.7501 9.31454
421 1 -1.1104 6.79072 19.6971 9.34882
429 1 -1.1104 6.68516 19.7012 12.0912
445 1 -1.1104 6.86417 11.1162 12.1567
439 1 -1.1104 6.81573 16.8545 12.3265
484 2 2.2208 10.9498 15.2967 13.6271
488 2 2.2208 8.13794 12.5584 13.5274
458 1 -1.1104 9.59676 16.6935 12.2186
473 1 -1.1104 12.3446 14.0575 9.4355
457 1 -1.1104 9.50739 16.7551 9.44407
477 1 -1.1104 12.3326 13.9079 12.3321
464 1 -1.1104 9.44588 19.6225 12.1973
459 2 2.2208 8.15245 20.9852 10.8957
461 1 -1.1104 9.53636 19.518 9.5099
456 2 2.2208 10.9477 18.1515 10.8291
9246 2 2.2208 13.6541 12.3833 8.04602
475 2 2.2208 8.13207 12.4379 8.12181
454 1 -1.1104 12.3391 11.1638 12.3685
471 1 -1.1104 9.69956 11.2306 12.3298
472 1 -1.1104 12.4482 19.6284 9.48096
469 2 2.2208 10.9228 15.3977 8.05555
465 1 -1.1104 9.56611 13.9113 12.2691
455 2 2.2208 10.8549 12.5987 10.8739
462 1 -1.1104 9.53631 14.0035 9.52114
460 2 2.2208 8.10126 15.4054 10.8571
476 1 -1.1104 12.4278 19.7042 12.2164
474 2 2.2208 8.2858 9.65986 10.6874
467 2 2.2208 10.9813 21.0447 8.0146
503 2 2.2208 5.32432 12.5814 16.3867
504 1 -1.1104 1.15084 11.2656 18.0421
506 2 2.2208 5.30433 9.58291 19.2614
507 1 -1.1104 1.36025 11.3318 15.1884
511 2 2.2208 2.5809 12.5343 19.2041
512 2 2.2208 2.54812 9.7586 16.5301
513 1 -1.1104 3.94829 10.9626 17.8513
514 1 -1.1104 4.03601 11.1955 15.1468
516 2 2.2208 5.25452 18.1306 16.47
517 1 -1.1104 1.22068 14.0417 17.7606
518 1 -1.1104 1.00067 19.5172 17.7454
521 1 -1.1104 1.25044 14.0989 14.9655
523 1 -1.1104 0.960768 19.5479 15.0075
529 1 -1.1104 1.23647 16.7892 17.9641
531 2 2.2208 5.50292 15.207 19.2659
532 2 2.2208 5.32157 20.9896 19.2445
533 1 -1.1104 1.1633 16.9188 15.128
537 1 -1.1104 4.0241 13.9008 17.8804
538 1 -1.1104 3.92685 19.5707 17.8818
539 2 2.2208 2.6082 18.0859 19.3052
540 1 -1.1104 4.04341 13.9499 14.9726
542 1 -1.1104 3.9869 19.5727 15.0449
544 2 2.2208 2.71797 15.3778 16.4651
545 2 2.2208 2.48269 20.9087 16.3777
546 1 -1.1104 4.07483 16.7059 17.7417
547 1 -1.1104 3.91244 16.7684 15.0787
548 1 -1.1104 4.03592 16.7073 20.6177
515 1 -1.1104 3.84643 10.9746 20.7095
543 1 -1.1104 3.97404 19.5683 20.7316
524 1 -1.1104 1.08458 19.7993 20.6144
541 1 -1.1104 4.0718 13.9025 20.6562
552 2 2.2208 -0.238523 21.0304 19.1416
551 2 2.2208 -0.188658 15.4431 19.4265
9422 2 2.2208 -0.31282 18.122 16.4977
553 2 2.2208 -0.259375 12.6517 16.3955
550 2 2.2208 -0.173832 9.72216 19.391
9315 2 2.2208 -0.169251 9.68355 13.7302
9312 2 2.2208 -0.279702 20.8703 13.7288
505 1 -1.1104 6.70384 11.0759 17.6863
520 1 -1.1104 6.73355 19.3843 17.7505
519 1 -1.1104 6.73815 13.8813 17.7092
510 1 -1.1104 6.81132 11.1389 20.6162
527 1 -1.1104 6.81343 19.6252 14.8726
528 1 -1.1104 6.72245 19.675 20.716
535 1 -1.1104 6.78099 16.7941 15.1101
525 1 -1.1104 6.66605 13.8979 14.936
509 1 -1.1104 6.78431 11.0008 14.9998
536 1 -1.1104 6.85724 16.8264 20.6209
530 1 -1.1104 6.75007 16.6799 17.957
554 2 2.2208 10.9308 12.505 16.4134
555 1 -1.1104 12.2869 11.0186 17.863
556 2 2.2208 10.9433 9.57813 19.2812
557 1 -1.1104 12.3524 11.1114 15.1069
559 2 2.2208 8.35281 12.5011 19.215
560 2 2.2208 8.17264 9.56867 16.4563
561 1 -1.1104 9.40998 10.9015 18.0125
562 1 -1.1104 9.63742 11.146 15.1546
564 2 2.2208 10.9566 18.1404 16.3662
565 1 -1.1104 12.3722 13.9141 17.6679
566 1 -1.1104 12.4089 19.5409 17.9095
567 1 -1.1104 12.3361 13.9985 15.0054
569 1 -1.1104 12.2684 19.6155 15.0864
571 1 -1.1104 12.19 16.7867 17.9742
572 2 2.2208 10.9916 15.4228 19.3382
573 2 2.2208 10.8324 21.0361 19.3096
574 1 -1.1104 12.4054 16.7568 15.001
576 1 -1.1104 9.54085 14.007 17.8562
577 1 -1.1104 9.61411 19.5337 17.9855
578 2 2.2208 8.23053 18.0637 19.3614
579 1 -1.1104 9.5015 13.9196 15.0659
581 1 -1.1104 9.49092 19.4332 15.2387
583 2 2.2208 8.27148 15.2702 16.4914
584 2 2.2208 8.16904 20.888 16.5025
585 1 -1.1104 9.55693 16.77 17.8284
586 1 -1.1104 9.44202 16.6258 14.9855
485 2 2.2208 8.19771 18.1196 13.7376
570 1 -1.1104 12.1508 19.5671 20.6017
589 2 2.2208 13.6693 18.0764 19.4465
580 1 -1.1104 9.54409 14.026 20.6155
568 1 -1.1104 12.3097 14.0623 20.5533
558 1 -1.1104 12.2993 11.1735 20.5943
487 2 2.2208 10.8418 9.67094 13.7059
522 1 -1.1104 1.25265 14.0171 20.708
502 2 2.2208 -0.0969219 18.1537 27.6782
638 2 2.2208 -0.162789 12.6368 22.1236
635 2 2.2208 -0.220524 20.9279 24.8534
508 1 -1.1104 1.04274 11.0723 20.8799
534 1 -1.1104 1.14673 16.7974 20.742
594 1 -1.1104 3.95882 19.4548 23.4819
596 1 -1.1104 3.9764 13.9732 23.4337
598 1 -1.1104 1.05537 19.6088 26.2633
599 1 -1.1104 1.14321 16.9577 26.1333
600 1 -1.1104 1.22547 14.0928 26.3637
602 2 2.2208 5.47323 20.9661 24.8405
603 2 2.2208 5.29586 15.2919 24.9679
605 1 -1.1104 1.1933 19.4565 23.4572
606 1 -1.1104 1.13924 13.9654 23.5654
607 2 2.2208 5.43688 18.1364 22.094
608 1 -1.1104 3.93147 19.5708 26.2421
609 2 2.2208 2.58209 18.113 24.6225
610 1 -1.1104 3.90863 16.7369 26.2338
611 1 -1.1104 3.78918 14.0051 26.2676
613 1 -1.1104 1.21643 16.7653 23.4557
614 1 -1.1104 3.95065 16.6866 23.3543
615 2 2.2208 2.55379 21.0369 22.0155
616 2 2.2208 5.3783 12.5565 22.0349
617 1 -1.1104 1.22815 11.2259 23.6273
619 2 2.2208 2.62724 15.264 22.0336
620 2 2.2208 5.40217 9.79554 24.8044
621 1 -1.1104 1.13821 11.1223 26.3828
623 2 2.2208 2.54756 12.5966 24.9181
624 2 2.2208 2.59298 9.84586 22.3021
625 1 -1.1104 3.98085 11.1842 23.5668
626 1 -1.1104 3.86212 10.9813 26.3618
637 2 2.2208 -0.131495 9.71231 24.9238
499 2 2.2208 2.45267 9.64686 27.6622
492 2 2.2208 5.32615 18.1436 27.5569
622 1 -1.1104 6.68449 11.2227 26.2545
489 2 2.2208 2.57408 20.921 27.5954
633 2 2.2208 -0.339437 15.5483 24.9296
636 2 2.2208 -0.1538 18.1805 22.0018
501 2 2.2208 -0.104209 12.6381 27.6951
526 1 -1.1104 6.79077 13.9921 20.7138
575 1 -1.1104 12.3476 16.8071 20.7579
582 1 -1.1104 9.51697 19.6102 20.7694
587 1 -1.1104 9.55798 16.8281 20.7603
563 1 -1.1104 9.49523 11.1473 20.6536
612 1 -1.1104 6.8935 16.8779 23.357
604 1 -1.1104 6.79417 13.8054 23.5077
595 1 -1.1104 6.67528 14.0069 26.3047
495 2 2.2208 8.24332 9.704 27.619
601 1 -1.1104 6.75702 19.6381 23.5282
618 1 -1.1104 6.79662 11.1258 23.3615
647 1 -1.1104 9.65538 19.598 23.5874
650 1 -1.1104 9.50336 10.9902 26.2073
659 1 -1.1104 12.3876 19.5901 23.5564
645 1 -1.1104 6.86536 19.5954 26.2506
657 2 2.2208 8.19671 9.78289 22.023
639 1 -1.1104 9.7053 16.7268 26.2278
655 1 -1.1104 12.3339 13.8033 26.1517
644 1 -1.1104 9.41406 14.0697 26.2057
652 2 2.2208 11.0569 15.4474 24.845
656 1 -1.1104 9.57422 11.0756 23.4686
649 1 -1.1104 12.533 16.7038 26.3167
494 2 2.2208 10.967 12.547 27.6119
653 1 -1.1104 12.4125 16.7542 23.3427
641 2 2.2208 8.1549 20.9874 22.1413
630 1 -1.1104 12.38 11.2079 23.2902
646 2 2.2208 8.33354 18.261 24.8858
642 2 2.2208 8.17556 15.3001 22.1161
651 2 2.2208 11.0784 21.0313 24.8972
629 2 2.2208 10.9751 9.62823 24.8059
643 1 -1.1104 9.63706 19.5186 26.4794
658 2 2.2208 8.1938 12.5658 24.8748
597 1 -1.1104 6.8633 16.8288 26.3794
634 1 -1.1104 12.4298 13.9478 23.2265
654 1 -1.1104 12.2629 19.5374 26.3279
640 1 -1.1104 9.62748 16.7899 23.4509
632 2 2.2208 10.9202 18.2641 22.1065
648 1 -1.1104 9.60449 13.9252 23.3677
628 1 -1.1104 12.4909 11.1402 26.3002
631 2 2.2208 10.9146 12.5338 22.0758
660 2 2.2208 5.45462 23.6437 5.19065
661 2 2.2208 5.25648 29.3898 5.41384
662 1 -1.1104 1.234 25.2449 1.06076
663 1 -1.1104 1.23006 25.2179 3.83261
664 1 -1.1104 1.17796 22.2994 0.980031
665 1 -1.1104 1.08306 28.1413 1.15769
666 2 2.2208 5.29484 26.6284 2.49936
667 1 -1.1104 1.05626 22.3807 3.8648
668 1 -1.1104 1.09737 27.9974 4.02866
669 1 -1.1104 4.0159 25.1209 1.05024
670 2 2.2208 2.55604 23.7484 2.45364
671 2 2.2208 2.50407 29.4874 2.51834
672 1 -1.1104 3.9432 25.121 3.84331
673 2 2.2208 2.60825 26.6069 5.31372
674 1 -1.1104 3.98292 22.3915 1.0258
675 1 -1.1104 3.89997 27.9163 1.20348
676 1 -1.1104 3.83118 22.3989 3.88787
677 1 -1.1104 3.83423 27.9782 3.91687
678 1 -1.1104 1.25482 30.9926 1.07305
679 1 -1.1104 1.11233 30.7912 3.88303
680 1 -1.1104 1.00798 33.8251 1.06987
681 2 2.2208 5.33493 32.2327 2.59586
682 1 -1.1104 1.09071 33.6343 3.95854
684 1 -1.1104 3.84845 30.7402 1.2483
685 1 -1.1104 3.92922 30.7617 3.8995
686 2 2.2208 2.51915 32.2364 5.35049
687 1 -1.1104 3.84712 33.6385 1.06287
688 1 -1.1104 3.90363 33.7102 3.90966
717 1 -1.1104 6.66406 30.8935 1.11459
746 1 -1.1104 3.79043 30.7536 6.791
719 1 -1.1104 6.72358 33.7233 1.10755
733 1 -1.1104 1.19801 25.169 6.54019
9634 2 2.2208 -0.205701 26.6093 2.56179
695 1 -1.1104 6.64668 22.4871 1.08718
683 1 -1.1104 6.67752 33.7058 3.88998
956 2 2.2208 5.314 29.4703 -0.264305
9636 2 2.2208 -0.217022 29.4173 5.4148
9633 2 2.2208 -0.236664 32.213 2.44672
9635 2 2.2208 -0.226897 23.8241 5.26764
9642 2 2.2208 -0.281183 29.3963 -0.301683
821 2 2.2208 -0.2621 23.7873 -0.302145
694 1 -1.1104 6.70534 25.2038 4.0112
696 1 -1.1104 6.64894 28.0887 1.21389
955 2 2.2208 8.17588 26.6963 -0.26696
693 1 -1.1104 6.89472 25.347 1.13758
718 1 -1.1104 6.63309 30.8294 3.82451
697 1 -1.1104 6.63519 22.3184 3.8493
698 1 -1.1104 6.68104 27.9577 3.99543
699 2 2.2208 10.8529 23.87 5.24687
700 2 2.2208 10.8939 29.4401 5.38196
701 1 -1.1104 12.39 25.1547 1.2503
702 1 -1.1104 12.2222 25.1769 4.09291
703 1 -1.1104 12.3441 22.3605 1.14009
704 1 -1.1104 12.4141 28.0118 1.27739
705 2 2.2208 10.9777 26.6754 2.60227
706 1 -1.1104 12.4128 22.4422 4.01287
707 1 -1.1104 12.4555 28.0351 3.95217
708 1 -1.1104 9.66483 25.3669 1.03928
709 2 2.2208 8.10364 23.7914 2.4159
710 2 2.2208 8.14693 29.461 2.56343
711 1 -1.1104 9.49156 25.2251 3.76877
712 2 2.2208 8.22761 26.6665 5.35603
713 1 -1.1104 9.58813 22.4268 0.964676
714 1 -1.1104 9.47418 28.0963 1.26724
715 1 -1.1104 9.40098 22.4251 3.7093
716 1 -1.1104 9.62943 28.0668 3.96942
720 1 -1.1104 12.2342 30.933 1.19263
721 1 -1.1104 12.2558 30.6821 4.18581
722 1 -1.1104 12.3085 33.6609 1.06608
723 2 2.2208 10.8845 32.2665 2.55569
724 1 -1.1104 12.3512 33.5942 3.84407
725 1 -1.1104 9.55118 30.9785 1.31997
726 1 -1.1104 9.60965 30.9163 4.01409
727 2 2.2208 8.02394 32.2282 5.36562
728 1 -1.1104 9.49525 33.8247 1.07649
729 1 -1.1104 9.42745 33.6153 3.95797
788 1 -1.1104 12.374 28.0642 6.63652
795 1 -1.1104 9.35018 33.7415 6.67561
793 1 -1.1104 12.1516 33.7353 6.7014
789 1 -1.1104 9.64556 25.2746 6.60906
790 1 -1.1104 9.62907 22.2659 6.55299
822 2 2.2208 11.0382 23.8011 -0.290346
957 2 2.2208 8.18458 32.3045 -0.304969
920 2 2.2208 10.9845 29.4002 -0.251354
740 1 -1.1104 4.17784 22.3425 6.63241
735 1 -1.1104 1.19564 22.3861 6.66634
736 1 -1.1104 1.07 28.1001 6.73815
744 1 -1.1104 1.23536 33.5688 6.79889
741 1 -1.1104 3.79215 27.9657 6.75137
745 1 -1.1104 6.58151 33.7005 6.74197
742 1 -1.1104 1.13664 30.9103 6.60731
747 1 -1.1104 3.9443 33.4618 6.64832
739 1 -1.1104 4.00473 25.2469 6.74662
9632 2 2.2208 -0.158791 26.5366 8.09938
9630 2 2.2208 -0.242935 32.2777 8.13137
748 2 2.2208 5.4746 23.8233 10.9176
749 2 2.2208 5.26601 29.3307 10.9626
750 1 -1.1104 1.1634 25.2083 12.3421
752 1 -1.1104 1.22853 25.2125 9.43435
754 1 -1.1104 1.14217 22.3873 12.1998
755 1 -1.1104 1.18713 27.9844 12.3172