ITEM: TIMESTEP
50000
ITEM: NUMBER OF ATOMS
17910
ITEM: BOX BOUNDS pp pp pp
-3.5653621990551265e-01 2.7696536219906019e+01
-4.2710285650177076e+00 3.3235102856502687e+02
-3.5792150444925103e-01 2.7697921504449525e+01
ITEM: ATOMS id type q x y z
1 2 2.2208 5.19778 1.37188 5.11635
2 1 -1.1104 0.885335 -2.7167 0.862563
3 1 -1.1104 1.03113 2.78273 0.779848
6 1 -1.1104 0.848107 -2.83227 3.69541
7 1 -1.1104 0.922822 2.85494 3.62337
10 1 -1.1104 0.843096 -0.0231054 0.882857
12 2 2.2208 5.15941 -1.45311 2.34718
13 2 2.2208 5.23942 4.08198 2.22023
14 1 -1.1104 0.867239 0.0198401 3.76423
16 1 -1.1104 3.75866 -2.87048 0.984624
17 1 -1.1104 3.80033 2.75413 0.792458
18 2 2.2208 2.2432 1.32655 2.21287
19 1 -1.1104 3.79139 -2.92262 3.72181
20 1 -1.1104 3.8105 2.71259 3.58399
21 2 2.2208 2.5087 -1.50917 5.12425
22 2 2.2208 2.3365 4.24382 5.0748
23 1 -1.1104 3.7958 -0.182102 0.933297
24 1 -1.1104 3.60978 -0.0742019 3.67948
25 2 2.2208 5.30877 6.78792 5.20448
26 1 -1.1104 1.29899 8.36906 0.952304
28 1 -1.1104 1.0751 8.38011 3.91897
30 1 -1.1104 0.962537 5.54026 0.970286
32 1 -1.1104 0.933104 5.56591 3.79771
34 1 -1.1104 3.96292 8.37987 0.860189
35 2 2.2208 2.47445 7.07833 2.37808
37 1 -1.1104 3.71804 5.61257 0.930808
38 1 -1.1104 3.85881 5.47111 3.75778
36 1 -1.1104 3.83466 8.42038 3.79667
80 1 -1.1104 1.09212 -2.8193 6.49891
94 1 -1.1104 3.68512 5.62819 6.57672
11 1 -1.1104 6.63687 0.0582972 0.910158
8 1 -1.1104 6.64796 -2.88721 3.75947
15 1 -1.1104 6.49626 -0.0564279 3.71401
9 1 -1.1104 6.52958 2.56577 3.67919
31 1 -1.1104 6.53005 5.65608 1.01692
33 1 -1.1104 6.72111 5.4908 3.805
89 1 -1.1104 1.2056 8.33521 6.68565
87 1 -1.1104 3.7611 2.85613 6.52262
84 1 -1.1104 1.15542 -0.0361448 6.54006
8840 2 2.2208 -0.490811 4.31914 8.02861
29 1 -1.1104 6.67915 8.24088 3.81711
5 1 -1.1104 6.69291 2.81199 0.945382
27 1 -1.1104 6.68145 8.46256 0.964528
4 1 -1.1104 6.63418 -2.78791 1.01443
166 2 2.2208 8.02083 6.89625 13.6272
82 1 -1.1104 6.62709 -2.5471 6.63571
86 1 -1.1104 3.81377 -2.81896 6.56799
91 1 -1.1104 0.919764 5.5212 6.60377
93 1 -1.1104 3.91915 8.34541 6.62438
83 1 -1.1104 6.54285 2.7542 6.6121
92 1 -1.1104 6.6597 5.44441 6.53155
88 1 -1.1104 3.94474 -0.0391922 6.48042
8905 2 2.2208 -0.331047 6.89265 10.6711
8842 2 2.2208 13.673 4.11961 10.7719
8576 2 2.2208 7.99471 -4.24348 2.30518
8943 2 2.2208 -0.385437 1.37686 5.09272
8577 2 2.2208 10.8149 -4.14061 5.18373
8955 2 2.2208 -0.312458 4.21745 13.6195
46 2 2.2208 10.8678 1.34102 5.24445
47 1 -1.1104 12.1855 -2.77053 0.983491
48 1 -1.1104 12.3058 2.71068 0.851291
49 1 -1.1104 12.1832 -2.83363 3.67919
50 1 -1.1104 12.2886 2.70888 3.80249
51 1 -1.1104 12.1439 0.0607366 0.89471
52 2 2.2208 10.8079 -1.36964 2.23307
53 2 2.2208 10.8622 4.08164 2.29281
54 1 -1.1104 12.1854 -0.0546303 3.64114
55 1 -1.1104 9.31475 -2.89005 0.961052
56 1 -1.1104 9.48924 2.74065 0.883696
57 2 2.2208 8.0748 1.3022 2.34816
58 1 -1.1104 9.34674 -2.79968 3.74371
59 1 -1.1104 9.32845 2.74362 3.80534
60 2 2.2208 8.05525 -1.52037 5.26863
61 2 2.2208 7.97679 4.05324 5.24697
62 1 -1.1104 9.41454 -0.0851739 1.00604
63 1 -1.1104 9.35763 -0.143478 3.8468
64 2 2.2208 10.8728 6.95883 5.09141
66 1 -1.1104 12.0953 8.45892 3.79163
67 1 -1.1104 12.0048 5.67071 0.990992
68 1 -1.1104 12.3766 5.51032 3.78969
69 1 -1.1104 9.45161 8.27981 0.998762
70 2 2.2208 8.07426 6.84431 2.33716
71 1 -1.1104 9.47457 8.47467 3.74859
72 1 -1.1104 9.38261 5.45048 0.931257
73 1 -1.1104 9.43176 5.58739 3.66931
65 1 -1.1104 12.2938 8.40809 0.959648
144 1 -1.1104 9.46507 -0.0536734 6.62958
8882 2 2.2208 13.591 -1.44303 5.07808
167 2 2.2208 7.94871 1.45651 13.6565
8799 2 2.2208 13.6228 4.15306 5.17159
139 1 -1.1104 12.1941 -2.86515 6.499
147 1 -1.1104 9.4551 8.21508 6.53131
146 1 -1.1104 12.2114 5.57514 6.56545
142 1 -1.1104 9.40384 -2.7641 6.56695
141 1 -1.1104 12.1878 -0.102557 6.63482
8938 2 2.2208 -0.387636 4.27851 2.31756
168 2 2.2208 10.8442 -1.51295 13.6655
8946 2 2.2208 13.7082 6.99618 13.5857
81 1 -1.1104 1.05885 2.77397 6.46528
85 1 -1.1104 6.70271 -0.0195648 6.57865
161 2 2.2208 2.40155 1.29077 13.6238
90 1 -1.1104 6.6875 8.16565 6.65177
105 1 -1.1104 6.58842 0.0358838 12.1807
95 2 2.2208 5.08821 1.36944 10.8447
96 1 -1.1104 0.957858 -2.92521 11.966
97 1 -1.1104 0.927006 2.62866 12.2167
100 1 -1.1104 1.04356 -2.80572 9.2912
101 1 -1.1104 0.91532 2.95983 9.40662
104 1 -1.1104 0.988867 -0.251911 12.175
106 2 2.2208 5.20634 -1.35153 7.99696
107 2 2.2208 5.12437 4.17996 7.99712
108 1 -1.1104 1.05263 -0.000795252 9.24263
110 1 -1.1104 3.76837 -2.82674 12.2792
111 1 -1.1104 3.72332 2.81654 12.2405
112 2 2.2208 2.40475 1.45772 7.83641
113 1 -1.1104 3.90081 -2.76516 9.40436
114 1 -1.1104 3.59116 2.57903 9.4408
115 2 2.2208 2.28565 -1.32734 10.6948
116 2 2.2208 2.34863 4.09892 10.9127
117 1 -1.1104 3.73042 0.0142867 12.3537
118 1 -1.1104 3.98964 -0.0736651 9.44462
119 2 2.2208 5.30897 6.84568 10.8138
120 1 -1.1104 1.20928 8.26118 12.2884
122 1 -1.1104 1.0792 8.3922 9.41262
124 1 -1.1104 0.95835 5.49903 12.0925
126 1 -1.1104 1.04223 5.65579 9.32971
128 1 -1.1104 3.93532 8.38536 12.1013
129 2 2.2208 2.45909 7.01654 8.12412
130 1 -1.1104 4.06891 8.17171 9.29938
131 1 -1.1104 3.71551 5.6263 12.1354
132 1 -1.1104 3.88621 5.4442 9.43856
109 1 -1.1104 6.69038 -0.19092 9.33111
98 1 -1.1104 6.59938 -2.74412 12.202
127 1 -1.1104 6.62615 5.51179 9.44219
123 1 -1.1104 6.80445 8.26665 9.44546
121 1 -1.1104 6.83801 8.36759 12.3485
103 1 -1.1104 6.33016 2.74757 9.46216
125 1 -1.1104 6.55544 5.52024 12.2784
160 2 2.2208 2.53583 6.93621 13.5779
8579 2 2.2208 5.18516 -4.17952 10.7568
159 2 2.2208 5.14545 -1.33737 13.587
8939 2 2.2208 13.7443 1.39944 8.03889
8877 2 2.2208 13.6893 6.82462 8.00459
149 1 -1.1104 9.5496 5.36535 6.36084
140 1 -1.1104 12.2705 2.79381 6.5884
8941 2 2.2208 13.6335 -1.35478 10.855
136 2 2.2208 10.7962 -1.45432 7.93064
77 1 -1.1104 12.3079 0.109992 9.40253
138 1 -1.1104 9.34913 2.71745 9.4774
169 2 2.2208 10.8129 4.10855 13.5941
40 2 2.2208 7.95021 1.26483 8.07105
157 1 -1.1104 12.2585 2.63461 9.48575
102 1 -1.1104 6.6438 -3.01302 9.54721
148 1 -1.1104 9.41594 5.41805 9.29825
155 1 -1.1104 12.2431 2.73504 12.2203
143 1 -1.1104 9.38973 2.6843 6.73648
145 1 -1.1104 12.2705 8.2955 6.46344
151 1 -1.1104 9.48926 8.45813 9.26017
154 1 -1.1104 12.2904 -2.91211 12.1318
99 1 -1.1104 6.48094 2.69566 12.2764
153 2 2.2208 10.8042 1.41598 10.8721
133 1 -1.1104 9.38688 0.0172445 12.2509
150 1 -1.1104 9.41151 5.62995 12.173
156 1 -1.1104 12.0323 -2.74988 9.39084
79 1 -1.1104 9.37145 -0.0228287 9.42034
43 1 -1.1104 9.39871 2.84258 12.1908
76 2 2.2208 10.8386 6.98728 10.7342
45 1 -1.1104 12.2677 5.53659 12.1486
78 2 2.2208 10.7797 4.09637 7.95454
134 2 2.2208 7.95975 4.11196 10.8688
152 2 2.2208 8.1014 6.80669 8.01519
75 1 -1.1104 12.142 8.38137 12.1006
135 2 2.2208 8.03138 -1.48221 10.7167
44 1 -1.1104 9.46225 -2.88635 12.1539
74 1 -1.1104 12.1789 8.29655 9.28237
42 1 -1.1104 12.27 5.58935 9.41442
39 1 -1.1104 9.45206 -2.79026 9.40807
41 1 -1.1104 9.56054 8.36617 12.0468
137 1 -1.1104 12.1789 -0.126422 12.2594
162 2 2.2208 5.099 4.24767 13.59
173 2 2.2208 5.09663 1.47725 16.4532
174 1 -1.1104 1.07539 -2.83262 17.6082
175 1 -1.1104 0.901629 2.8013 17.8477
178 1 -1.1104 1.11971 -2.88546 14.8407
180 1 -1.1104 0.976786 2.72781 14.9324
186 1 -1.1104 1.17889 0.00920927 17.8458
188 2 2.2208 5.21555 -1.33886 19.1784
189 2 2.2208 5.18966 4.23886 19.1663
190 1 -1.1104 0.854781 0.0061309 15.1657
194 1 -1.1104 3.76061 -2.91421 17.737
195 1 -1.1104 3.69149 2.8883 17.8048
196 2 2.2208 2.46909 1.39151 19.2275
197 1 -1.1104 3.94915 -2.74906 15.0008
199 1 -1.1104 3.77776 2.7738 15.0218
201 2 2.2208 2.45096 -1.53508 16.3775
202 2 2.2208 2.34938 4.24612 16.4707
203 1 -1.1104 3.97107 -0.0372088 17.6225
204 1 -1.1104 3.65086 -0.0686606 15.0374
206 2 2.2208 5.31753 7.04449 16.447
207 1 -1.1104 0.998322 8.49497 17.6515
209 1 -1.1104 1.17644 8.33867 15.0768
213 1 -1.1104 1.1267 5.56483 17.8634
215 1 -1.1104 1.00948 5.50817 15.012
219 1 -1.1104 3.82075 8.28951 17.7171
220 2 2.2208 2.45095 7.07524 19.2177
221 1 -1.1104 4.03576 8.4681 14.9384
223 1 -1.1104 3.9069 5.65047 17.8472
224 1 -1.1104 3.81178 5.67599 14.9248
9067 2 2.2208 -0.345072 -1.34821 24.8629
191 1 -1.1104 0.944258 -0.00808666 20.7413
181 1 -1.1104 1.06155 2.75118 20.6537
211 1 -1.1104 6.859 8.26568 15.2411
210 1 -1.1104 0.983144 8.54339 20.3495
179 1 -1.1104 1.10871 -2.93642 20.4533
217 1 -1.1104 6.57936 5.55617 14.9902
208 1 -1.1104 6.6276 8.44808 17.883
192 1 -1.1104 6.57748 0.0884655 15.0773
177 1 -1.1104 6.56283 2.83958 17.9391
182 1 -1.1104 6.77202 -2.79002 14.8404
184 1 -1.1104 6.57514 2.97103 15.0644
222 1 -1.1104 3.69554 8.42631 20.6428
176 1 -1.1104 6.57937 -2.76383 17.8091
214 1 -1.1104 6.68228 5.76271 17.8216
187 1 -1.1104 6.76258 0.0706105 17.771
193 1 -1.1104 6.49487 0.0770147 20.7139
158 2 2.2208 10.8305 6.87439 27.6155
198 1 -1.1104 3.84411 -2.75373 20.5442
212 1 -1.1104 6.51627 8.47652 20.636
216 1 -1.1104 0.918337 5.60758 20.5261
229 2 2.2208 10.7707 -4.05554 22.1293
165 2 2.2208 10.8044 1.34735 27.6566
183 1 -1.1104 6.66252 -2.67524 20.6018
237 2 2.2208 10.8907 1.34782 16.3995
238 1 -1.1104 12.3664 -2.82014 17.9295
239 1 -1.1104 12.2604 2.88842 17.7985
240 1 -1.1104 12.2756 -2.80331 15.0708
242 1 -1.1104 12.2254 2.61586 14.9253
244 1 -1.1104 12.4293 -0.0517432 17.8871
245 2 2.2208 10.8638 -1.56968 19.1694
246 2 2.2208 10.846 4.24747 19.1292
247 1 -1.1104 12.2808 -0.085293 14.9983
249 1 -1.1104 9.50775 -2.76329 17.6222
250 1 -1.1104 9.47509 2.71953 17.6801
251 2 2.2208 8.04303 1.35663 19.2767
252 1 -1.1104 9.43762 -2.87217 14.8934
254 1 -1.1104 9.29457 2.85647 14.9696
256 2 2.2208 8.06258 -1.44185 16.3288
257 2 2.2208 7.96397 4.19091 16.4466
258 1 -1.1104 9.65084 -0.0212455 17.8528
259 1 -1.1104 9.48816 0.0477704 14.9431
261 2 2.2208 10.7774 6.97581 16.4175
263 1 -1.1104 12.3399 8.36469 14.9701
265 1 -1.1104 12.3195 5.6122 17.6416
266 1 -1.1104 12.1336 5.55572 14.8761
268 1 -1.1104 9.40296 8.23844 17.6808
269 2 2.2208 8.07138 6.96506 19.2194
270 1 -1.1104 9.65989 8.31043 14.9208
272 1 -1.1104 9.42103 5.43034 17.8479
273 1 -1.1104 9.27597 5.58963 14.9428
262 1 -1.1104 12.201 8.53008 17.6882
260 1 -1.1104 9.28187 0.0459872 20.7236
243 1 -1.1104 12.2817 2.80581 20.6178
8945 2 2.2208 13.6754 -1.43297 27.5862
17901 2 2.2208 -0.415024 -4.25161 21.9251
9078 2 2.2208 13.7477 -1.45681 16.4271
163 2 2.2208 8.05764 4.08235 27.5498
9011 2 2.2208 13.6122 1.45604 19.2941
241 1 -1.1104 12.1913 -2.71667 20.7051
267 1 -1.1104 12.2549 5.60183 20.6006
248 1 -1.1104 12.1107 -0.149546 20.7233
9004 2 2.2208 13.5902 6.91206 19.1081
218 1 -1.1104 6.60291 5.69957 20.5866
330 1 -1.1104 12.1011 -0.0297547 26.3402
227 2 2.2208 7.90498 4.22261 21.9498
279 2 2.2208 10.8549 1.4354 21.9648
205 1 -1.1104 3.78734 -0.054481 20.5404
200 1 -1.1104 3.76232 2.68918 20.5856
185 1 -1.1104 6.3946 2.9902 20.5999
225 1 -1.1104 3.76509 5.74265 20.6584
312 1 -1.1104 0.807663 8.43002 26.2632
285 2 2.2208 5.19961 1.35134 22.0886
286 1 -1.1104 0.879007 -2.83838 23.0921
287 1 -1.1104 1.07477 2.79953 23.3557
290 1 -1.1104 0.989805 -2.82366 26.0921
291 1 -1.1104 0.99286 2.8233 26.1504
294 1 -1.1104 0.910016 0.0663962 23.5893
296 2 2.2208 5.08139 -1.45435 24.8885
297 2 2.2208 5.27766 4.21882 24.8775
298 1 -1.1104 0.8457 0.00190345 26.2781
300 1 -1.1104 3.60916 -2.78195 23.4869
301 1 -1.1104 3.8022 2.7157 23.3443
302 2 2.2208 2.43509 1.36096 24.7821
303 1 -1.1104 3.59829 -2.95311 26.4156
304 1 -1.1104 3.88623 2.73594 26.0819
305 2 2.2208 2.40035 -1.38984 22.0405
306 2 2.2208 2.34729 4.10157 22.0163
307 1 -1.1104 3.63054 -0.113532 23.5537
308 1 -1.1104 3.67878 -0.151206 26.2358
309 2 2.2208 5.16872 6.99405 22.1482
310 1 -1.1104 0.994021 8.31748 23.3201
314 1 -1.1104 0.886968 5.60029 23.2496
316 1 -1.1104 1.10354 5.64919 26.1
318 1 -1.1104 3.88844 8.38157 23.5292
319 2 2.2208 2.47727 6.97489 24.7993
321 1 -1.1104 3.88115 5.64751 23.5278
322 1 -1.1104 3.83481 5.66013 26.2069
320 1 -1.1104 3.85944 8.48811 26.1994
317 1 -1.1104 6.69988 5.61747 26.1079
292 1 -1.1104 6.47421 -2.77662 26.242
293 1 -1.1104 6.5985 2.8261 26.3347
313 1 -1.1104 6.63395 8.44125 26.1203
299 1 -1.1104 6.52519 -0.0624812 26.3001
311 1 -1.1104 6.6896 8.33084 23.3256
295 1 -1.1104 6.5714 -0.0273079 23.6075
315 1 -1.1104 6.66685 5.3494 23.4636
289 1 -1.1104 6.54459 2.73716 23.4705
288 1 -1.1104 6.42757 -2.73655 23.4497
170 2 2.2208 5.16032 1.27481 27.6896
283 1 -1.1104 9.37324 5.55217 26.2262
8587 2 2.2208 10.7853 -4.10415 27.4858
253 1 -1.1104 9.41109 -2.69196 20.5637
164 2 2.2208 7.99128 -1.43294 27.6383
8949 2 2.2208 13.5812 4.16523 27.4661
274 1 -1.1104 9.47749 5.58187 20.6662
230 1 -1.1104 9.41602 2.74422 26.2032
280 2 2.2208 8.05949 7.04136 24.7061
281 1 -1.1104 9.4085 8.29142 26.178
326 1 -1.1104 12.2193 8.27183 26.3825
9093 2 2.2208 13.6234 4.16594 22.0504
332 1 -1.1104 12.3318 5.3579 23.3724
324 2 2.2208 2.30718 -1.38928 27.6293
255 1 -1.1104 9.34727 2.76224 20.4787
271 1 -1.1104 9.49621 8.35993 20.5696
234 1 -1.1104 12.2144 2.80363 26.1094
226 1 -1.1104 9.32851 0.174176 23.4565
278 1 -1.1104 9.31128 2.90132 23.2964
235 1 -1.1104 12.1596 -2.72829 26.1408
328 1 -1.1104 12.2798 5.63862 26.1824
331 2 2.2208 10.608 4.24584 24.762
325 1 -1.1104 12.1786 8.26713 23.5313
232 1 -1.1104 9.41285 -2.87286 26.1379
282 1 -1.1104 9.33546 5.65932 23.3275
327 1 -1.1104 9.52032 8.33744 23.3519
264 1 -1.1104 12.306 8.49859 20.539
277 2 2.2208 7.98673 1.34096 24.9784
329 1 -1.1104 9.31439 -2.63661 23.4049
236 1 -1.1104 12.1651 2.70209 23.2657
284 1 -1.1104 9.28245 -0.0911391 26.2159
231 2 2.2208 10.7638 -1.38252 24.6853
233 1 -1.1104 12.0611 0.0145134 23.466
323 2 2.2208 10.9622 6.98333 21.9914
275 1 -1.1104 12.2352 -2.65478 23.3613
228 2 2.2208 7.87284 -1.23573 22.0708
172 2 2.2208 5.22334 6.92104 27.5595
171 2 2.2208 2.37032 4.25694 27.668
9005 2 2.2208 13.5859 4.22688 16.3467
9002 2 2.2208 13.5979 -1.46082 21.9546
9007 2 2.2208 -0.490213 1.38717 16.357
8583 2 2.2208 5.11527 -4.15485 27.691
17761 2 2.2208 13.573 -4.15359 24.7404
8600 2 2.2208 2.31407 -4.21473 24.8416
8610 2 2.2208 5.1009 -4.08245 21.999
17728 2 2.2208 -0.290276 -4.27167 16.3522
8653 2 2.2208 7.96824 -4.17513 19.2233
8951 2 2.2208 13.6146 1.27101 13.4545
333 2 2.2208 5.23776 12.4717 5.20293
334 1 -1.1104 0.928709 11.2446 0.932107
338 2 2.2208 5.22573 9.71663 2.2829
339 1 -1.1104 1.09475 11.2043 3.87845
341 2 2.2208 2.39801 12.5549 2.30423
342 2 2.2208 2.57556 9.7277 5.37188
343 1 -1.1104 3.67335 11.1406 0.79232
345 1 -1.1104 3.85893 11.1597 3.83234
346 2 2.2208 5.25998 18.1697 5.16305
347 1 -1.1104 1.05806 13.9227 0.996508
349 1 -1.1104 1.06007 19.693 0.73917
353 1 -1.1104 0.998086 13.931 3.74297
354 1 -1.1104 0.880203 19.4141 3.63921
356 1 -1.1104 1.08192 16.8035 0.93043
359 2 2.2208 5.19696 15.2449 2.39127
360 2 2.2208 5.333 20.896 2.23979
361 1 -1.1104 1.12704 16.7766 3.64366
363 1 -1.1104 3.87687 13.9118 1.09316
365 1 -1.1104 3.82729 19.7251 0.883742
367 2 2.2208 2.46209 18.2408 2.35153
368 1 -1.1104 3.64589 13.9294 3.75778
369 1 -1.1104 3.79149 19.4205 3.8122
370 2 2.2208 2.40038 15.3303 5.09583
371 2 2.2208 2.44672 20.9957 5.20543
372 1 -1.1104 3.69045 16.7153 0.890481
374 1 -1.1104 4.00378 16.709 3.82771
340 1 -1.1104 6.55214 11.0825 3.71834
392 1 -1.1104 6.44521 16.8475 1.0264
336 1 -1.1104 6.58783 11.3094 0.90074
348 1 -1.1104 1.05457 13.9711 6.58026
335 1 -1.1104 1.02606 11.2337 6.79099
373 1 -1.1104 3.76157 16.8662 6.53305
485 2 2.2208 8.11951 18.1484 13.5003
9296 2 2.2208 -0.418848 18.1917 5.09334
350 1 -1.1104 6.54577 14.0023 0.791635
362 1 -1.1104 6.81031 16.7043 3.75839
390 1 -1.1104 6.58294 19.5581 0.928598
391 1 -1.1104 6.54287 19.4506 3.67014
351 1 -1.1104 6.62567 13.9358 6.54663
435 1 -1.1104 1.14882 19.4906 6.4149
9298 2 2.2208 -0.460475 18.1878 10.7588
355 1 -1.1104 6.5869 13.9543 3.79949
352 1 -1.1104 6.74674 19.4852 6.52378
417 2 2.2208 13.7624 18.1909 2.34048
418 2 2.2208 13.6571 12.5645 2.34494
380 2 2.2208 10.8265 12.559 5.18465
381 1 -1.1104 12.334 11.2913 0.927627
383 2 2.2208 10.7637 9.78935 2.42691
384 1 -1.1104 12.2737 11.0796 3.80491
385 2 2.2208 7.88745 12.5733 2.41416
386 2 2.2208 8.03101 9.66609 5.20064
387 1 -1.1104 9.41465 11.0528 0.859359
389 1 -1.1104 9.2967 11.2134 3.74201
393 2 2.2208 10.9827 18.1131 5.19755
394 1 -1.1104 12.1415 14.1541 0.932731
396 1 -1.1104 12.233 19.5646 0.854671
398 1 -1.1104 12.1733 13.9398 3.76945
399 1 -1.1104 12.11 19.592 3.68906
400 1 -1.1104 12.171 16.8432 1.00641
402 2 2.2208 10.86 15.4462 2.38243
403 2 2.2208 10.7795 20.9497 2.25818
404 1 -1.1104 12.2937 16.7738 3.61389
405 1 -1.1104 9.20645 13.9885 1.00537
407 1 -1.1104 9.50579 19.522 1.0117
409 2 2.2208 8.00175 18.1423 2.36793
410 1 -1.1104 9.45499 14.009 3.90419
411 1 -1.1104 9.35774 19.545 3.95032
412 2 2.2208 8.04626 15.2504 5.17975
413 2 2.2208 8.05844 20.8521 5.22228
414 1 -1.1104 9.37578 16.8132 1.00273
416 1 -1.1104 9.65752 16.8948 3.80958
406 1 -1.1104 9.31237 13.9642 6.61162
9311 2 2.2208 -0.32363 15.2177 13.5177
9177 2 2.2208 13.6081 15.3973 5.01229
9299 2 2.2208 -0.392938 15.3815 8.03329
401 1 -1.1104 12.2822 16.6931 6.50844
415 1 -1.1104 9.48966 16.4639 6.5835
382 1 -1.1104 12.3126 11.1773 6.5152
395 1 -1.1104 12.3463 13.9608 6.65211
408 1 -1.1104 9.53195 19.4557 6.58659
9248 2 2.2208 13.6738 9.71527 10.7969
9295 2 2.2208 13.7365 18.227 7.92992
472 1 -1.1104 12.2695 19.4066 9.2499
463 2 2.2208 8.01416 18.0895 7.8763
366 1 -1.1104 3.91878 19.6696 6.60702
344 1 -1.1104 3.8428 11.0685 6.7053
364 1 -1.1104 4.01445 13.8531 6.57238
357 1 -1.1104 1.0433 16.7697 6.37453
419 1 -1.1104 3.83111 19.5201 12.1468
420 1 -1.1104 3.93119 13.9781 12.2132
424 1 -1.1104 1.01534 19.5381 9.33339
425 1 -1.1104 1.01227 16.759 9.35361
426 2 2.2208 5.36248 21.03 7.99628
427 1 -1.1104 0.967025 14.1343 9.37863
428 2 2.2208 5.20893 15.3887 7.94739
431 1 -1.1104 0.955378 19.7233 12.0572
432 1 -1.1104 1.09906 13.9948 12.1155
433 2 2.2208 5.24753 18.1402 10.7641
434 1 -1.1104 3.70934 19.5254 9.42368
436 2 2.2208 2.51733 18.1924 7.95761
437 1 -1.1104 3.8929 16.7823 9.39377
438 1 -1.1104 3.78921 14.0083 9.23067
440 1 -1.1104 1.02144 16.8285 12.2003
441 1 -1.1104 3.82895 16.816 12.12
442 2 2.2208 2.49815 20.9164 10.8341
443 2 2.2208 5.24029 12.6086 10.7752
444 1 -1.1104 1.0766 10.9558 12.2627
446 2 2.2208 2.39771 15.5342 10.8247
447 2 2.2208 5.38657 9.62532 8.02385
448 1 -1.1104 1.10903 11.2146 9.65299
450 2 2.2208 2.41426 12.5639 8.18348
451 2 2.2208 2.40982 9.85541 10.8313
452 1 -1.1104 3.98802 11.3028 12.1831
453 1 -1.1104 3.88166 11.044 9.41891
445 1 -1.1104 6.696 11.1299 12.122
337 1 -1.1104 6.77657 11.1714 6.47949
481 2 2.2208 2.49396 12.5082 13.5835
449 1 -1.1104 6.54402 11.1515 9.19723
430 1 -1.1104 6.63777 13.9606 12.1419
422 1 -1.1104 6.67681 16.681 9.39263
468 1 -1.1104 9.36124 11.1371 9.46328
479 2 2.2208 5.38731 20.9375 13.5637
478 2 2.2208 2.43482 18.2014 13.591
480 2 2.2208 5.45734 9.82708 13.5253
483 2 2.2208 10.9679 21.0113 13.612
9246 2 2.2208 13.647 12.5539 8.04976
9234 2 2.2208 13.6573 21.0107 10.8816
358 1 -1.1104 6.62123 16.7828 6.54536
456 2 2.2208 10.8756 18.2004 10.6696
460 2 2.2208 7.98128 15.3913 10.7991
473 1 -1.1104 12.4038 13.8831 9.37301
466 1 -1.1104 12.29 16.6963 9.37812
471 1 -1.1104 9.51303 11.2056 12.2389
475 2 2.2208 8.03356 12.5974 7.95439
397 1 -1.1104 12.3274 19.4397 6.61029
454 1 -1.1104 12.3973 11.2958 12.1392
377 1 -1.1104 12.2949 11.1211 9.38478
457 1 -1.1104 9.58473 16.7673 9.26524
421 1 -1.1104 6.56127 19.4229 9.34772
439 1 -1.1104 6.56274 16.6924 12.1765
464 1 -1.1104 9.40657 19.6155 12.1791
458 1 -1.1104 9.50372 16.7399 12.2171
467 2 2.2208 10.8733 20.8832 8.08704
459 2 2.2208 8.09341 21.0622 10.8776
388 1 -1.1104 9.4871 11.116 6.59574
461 1 -1.1104 9.35823 19.5685 9.35286
423 1 -1.1104 6.52722 13.9278 9.45679
429 1 -1.1104 6.75003 19.5663 12.266
477 1 -1.1104 12.1511 13.9984 12.1843
9294 2 2.2208 13.6905 15.4325 10.6906
470 1 -1.1104 12.2987 16.8686 12.1688
476 1 -1.1104 12.2947 19.7368 12.1454
469 2 2.2208 10.9074 15.2903 7.98311
465 1 -1.1104 9.46643 13.9677 12.1902
455 2 2.2208 10.9124 12.4427 10.8045
462 1 -1.1104 9.21423 14.018 9.37586
474 2 2.2208 8.05502 9.79628 10.7887
379 2 2.2208 10.9016 9.77884 7.97402
487 2 2.2208 10.8809 9.7246 13.6035
488 2 2.2208 8.0131 12.5687 13.5647
375 2 2.2208 -0.427016 15.322 2.25661
497 2 2.2208 7.99769 20.9361 -0.409944
482 2 2.2208 5.19035 15.3686 13.6386
484 2 2.2208 10.9558 15.3374 13.4178
9306 2 2.2208 13.7498 12.5535 13.691
9145 2 2.2208 13.7205 20.8856 5.17724
9261 2 2.2208 -0.285897 12.5657 10.9362
9146 2 2.2208 13.7486 9.794 5.15467
503 2 2.2208 5.25043 12.5632 16.4416
504 1 -1.1104 0.995275 11.2908 17.8
506 2 2.2208 5.29785 9.81073 19.1599
507 1 -1.1104 1.18972 11.2513 15.0852
511 2 2.2208 2.45415 12.5335 19.2387
512 2 2.2208 2.54329 9.82364 16.2947
513 1 -1.1104 3.80246 11.1257 17.6804
514 1 -1.1104 3.96545 11.0771 14.8866
516 2 2.2208 5.17466 18.0574 16.3554
517 1 -1.1104 0.94934 13.9669 17.8849
518 1 -1.1104 1.07574 19.6647 17.5971
521 1 -1.1104 1.12056 14.047 15.0296
523 1 -1.1104 1.05238 19.4629 15.0786
529 1 -1.1104 0.929445 16.8318 17.7988
531 2 2.2208 5.12124 15.4594 19.2375
532 2 2.2208 5.28549 20.8902 19.0884
533 1 -1.1104 1.07311 16.5639 14.9507
537 1 -1.1104 3.76976 14.0064 17.7604
538 1 -1.1104 3.84992 19.415 17.7581
539 2 2.2208 2.35269 18.2616 19.2431
540 1 -1.1104 3.91243 14.0509 15.0484
542 1 -1.1104 3.94338 19.5537 14.9661
544 2 2.2208 2.31234 15.3457 16.3816
545 2 2.2208 2.42464 20.972 16.3055
546 1 -1.1104 3.74445 16.6411 17.7068
547 1 -1.1104 3.71627 16.7527 14.9391
548 1 -1.1104 3.85795 16.8705 20.6748
543 1 -1.1104 3.80094 19.6279 20.5307
515 1 -1.1104 3.82274 11.1823 20.5845
522 1 -1.1104 0.979892 14.0361 20.6896
501 2 2.2208 -0.508708 12.4533 27.5858
505 1 -1.1104 6.66073 11.2325 17.8153
509 1 -1.1104 6.70397 11.0565 14.9878
541 1 -1.1104 3.71004 14.0153 20.6674
524 1 -1.1104 1.12183 19.6095 20.6429
525 1 -1.1104 6.56741 13.9085 14.9879
520 1 -1.1104 6.71748 19.5717 17.828
535 1 -1.1104 6.62802 16.7109 15.0026
534 1 -1.1104 1.0614 16.779 20.6584
508 1 -1.1104 0.984796 11.1887 20.5092
494 2 2.2208 10.7784 12.6664 27.6976
530 1 -1.1104 6.53142 16.7386 17.9084
527 1 -1.1104 6.71234 19.5278 14.9319
519 1 -1.1104 6.5015 13.9466 17.699
554 2 2.2208 10.8379 12.6489 16.2139
555 1 -1.1104 12.2089 11.3503 17.7259
556 2 2.2208 10.7591 9.81031 19.2643
557 1 -1.1104 12.4091 11.2053 14.9556
559 2 2.2208 8.02748 12.6692 19.171
560 2 2.2208 8.1723 9.82671 16.3803
561 1 -1.1104 9.47774 11.1788 17.7688
562 1 -1.1104 9.51403 11.0757 14.983
564 2 2.2208 10.8296 18.2161 16.4642
565 1 -1.1104 12.1239 14.2345 17.5724
566 1 -1.1104 12.3634 19.6886 17.6928
567 1 -1.1104 12.1859 14.082 14.8691
569 1 -1.1104 12.2997 19.6274 15.0425
571 1 -1.1104 12.3963 17.013 17.8266
572 2 2.2208 10.8018 15.3999 19.2089
573 2 2.2208 10.9029 20.9814 19.0985
574 1 -1.1104 12.1157 16.8693 14.9247
576 1 -1.1104 9.36031 13.9839 17.6621
577 1 -1.1104 9.52586 19.7492 17.6717
578 2 2.2208 8.06176 18.1698 19.0463
579 1 -1.1104 9.32913 13.893 14.9761
581 1 -1.1104 9.65323 19.642 14.932
583 2 2.2208 8.03071 15.3622 16.3566
584 2 2.2208 8.05272 20.9589 16.2383
585 1 -1.1104 9.45717 16.8782 17.7769
586 1 -1.1104 9.4423 16.8705 14.9939
510 1 -1.1104 6.57413 11.2265 20.5162
652 2 2.2208 10.846 15.3916 24.6702
656 1 -1.1104 9.51565 11.0175 23.2713
568 1 -1.1104 12.3345 14.0412 20.5111
570 1 -1.1104 12.2538 19.7274 20.5895
558 1 -1.1104 12.2229 11.3468 20.4964
587 1 -1.1104 9.39313 16.801 20.556
638 2 2.2208 -0.350648 12.6781 21.9885
495 2 2.2208 7.85921 9.86811 27.6494
588 2 2.2208 13.6169 12.5883 19.0885
496 2 2.2208 10.8027 18.1659 27.6952
633 2 2.2208 -0.408238 15.503 24.8828
500 2 2.2208 5.22295 12.5718 27.523
536 1 -1.1104 6.68572 16.8888 20.5853
594 1 -1.1104 3.76358 19.6223 23.4977
596 1 -1.1104 3.82049 14.0686 23.2817
598 1 -1.1104 1.00261 19.5936 26.2091
599 1 -1.1104 0.961441 16.6678 26.2016
600 1 -1.1104 0.952706 13.9429 26.1685
602 2 2.2208 5.11344 21.085 24.8765
603 2 2.2208 5.32481 15.3554 24.8995
605 1 -1.1104 1.10523 19.559 23.4175
606 1 -1.1104 0.999312 14.0346 23.3461
607 2 2.2208 5.1979 18.1192 22.0331
608 1 -1.1104 3.9523 19.6216 26.1528
609 2 2.2208 2.46716 18.2929 24.7998
610 1 -1.1104 3.85571 16.8625 26.145
611 1 -1.1104 3.76633 14.0627 26.1711
613 1 -1.1104 1.11785 16.7721 23.4138
614 1 -1.1104 3.99212 16.9302 23.4356
615 2 2.2208 2.53149 20.9648 22.0098
616 2 2.2208 5.1469 12.5488 22.0344
617 1 -1.1104 0.911894 11.0757 23.2997
619 2 2.2208 2.38729 15.4996 22.0848
620 2 2.2208 5.27306 9.7868 24.7511
621 1 -1.1104 0.831363 11.0985 26.0164
623 2 2.2208 2.26616 12.5753 24.7641
624 2 2.2208 2.29037 9.84595 21.9115
625 1 -1.1104 3.74907 11.1602 23.4038
626 1 -1.1104 3.78373 11.3037 26.1898
604 1 -1.1104 6.67211 14.0197 23.5148
595 1 -1.1104 6.7138 13.8631 26.1881
622 1 -1.1104 6.61661 11.192 26.1954
597 1 -1.1104 6.72769 16.6944 26.1925
618 1 -1.1104 6.55144 11.2551 23.3662
645 1 -1.1104 6.60672 19.5905 26.2635
612 1 -1.1104 6.7198 16.8696 23.4166
601 1 -1.1104 6.55229 19.6187 23.4334
492 2 2.2208 5.06193 18.1798 27.5657
498 2 2.2208 2.34399 15.2785 27.6211
499 2 2.2208 2.51005 9.76848 27.5708
489 2 2.2208 2.40531 21.0878 27.5976
592 2 2.2208 13.6493 18.051 24.743
528 1 -1.1104 6.6256 19.5955 20.6376
649 1 -1.1104 12.0933 16.8466 26.1952
563 1 -1.1104 9.30506 11.206 20.5425
580 1 -1.1104 9.55671 14.0987 20.5176
658 2 2.2208 8.09262 12.479 24.7194
493 2 2.2208 8.00609 15.3665 27.6271
490 2 2.2208 13.7099 15.36 27.617
549 2 2.2208 13.765 9.74262 22.014
644 1 -1.1104 9.52174 13.8249 26.1724
653 1 -1.1104 12.2226 16.7715 23.2881
641 2 2.2208 7.9724 20.8419 21.8094
655 1 -1.1104 12.2212 14.0733 26.0977
582 1 -1.1104 9.42493 19.4848 20.4589
526 1 -1.1104 6.65733 14.0303 20.6065
629 2 2.2208 10.7958 9.69234 24.818
657 2 2.2208 8.00949 9.77821 21.9527
643 1 -1.1104 9.45993 19.4142 26.2234
648 1 -1.1104 9.50804 13.9529 23.3744
628 1 -1.1104 12.1962 11.4892 26.2472
630 1 -1.1104 12.3318 11.0959 23.3778
646 2 2.2208 8.06333 18.1509 24.8162
642 2 2.2208 7.89472 15.3957 22.015
634 1 -1.1104 12.2176 13.9307 23.2268
654 1 -1.1104 12.3261 19.5678 26.2263
640 1 -1.1104 9.3588 16.6699 23.256
632 2 2.2208 10.7714 18.2068 21.9613
651 2 2.2208 10.8084 20.8795 24.8662
631 2 2.2208 10.8548 12.6231 21.8522
659 1 -1.1104 12.1962 19.4525 23.3256
650 1 -1.1104 9.42267 11.0078 26.2941
647 1 -1.1104 9.21762 19.5333 23.4327
639 1 -1.1104 9.45582 16.7092 26.0374
575 1 -1.1104 12.2508 16.895 20.5648
590 2 2.2208 13.6549 15.52 16.4138
502 2 2.2208 -0.342524 18.2385 27.4973
591 2 2.2208 13.63 15.35 21.9602
491 2 2.2208 13.5636 20.9164 27.5212
486 2 2.2208 13.5379 9.82498 27.6094
593 2 2.2208 13.6948 12.594 24.8069
550 2 2.2208 -0.411533 9.93382 19.0565
9360 2 2.2208 13.7176 9.73603 16.4104
9301 2 2.2208 13.6954 18.1999 13.6151
660 2 2.2208 5.22759 23.8447 5.08144
661 2 2.2208 5.33207 29.4377 5.21436
662 1 -1.1104 0.95212 25.2246 0.869516
663 1 -1.1104 1.02269 25.3191 3.67734
664 1 -1.1104 1.00925 22.5355 1.04246
665 1 -1.1104 1.15195 28.1203 0.922743
666 2 2.2208 5.3395 26.5759 2.34164
667 1 -1.1104 1.27693 22.4134 3.80854
668 1 -1.1104 1.04905 28.023 3.83868
669 1 -1.1104 3.96081 25.3433 0.935677
670 2 2.2208 2.40113 23.9762 2.25484
671 2 2.2208 2.56924 29.409 2.36256
672 1 -1.1104 3.92573 25.2423 3.87283
673 2 2.2208 2.48986 26.7043 5.08384
674 1 -1.1104 3.84057 22.5775 0.888179
675 1 -1.1104 3.91817 28.0064 0.847956
676 1 -1.1104 3.91984 22.3292 3.69979
677 1 -1.1104 4.02181 28.0855 3.76109
678 1 -1.1104 1.10758 30.72 1.15327
679 1 -1.1104 1.10619 30.8222 3.9557
680 1 -1.1104 1.09418 33.6596 1.03633
681 2 2.2208 5.27099 32.2632 2.36296
682 1 -1.1104 1.08265 33.724 3.67659
684 1 -1.1104 3.89736 30.7805 1.04905
685 1 -1.1104 3.84178 30.8346 3.75957
686 2 2.2208 2.39956 32.1776 5.22246
687 1 -1.1104 3.74389 33.5958 0.748873
688 1 -1.1104 3.91155 33.6652 3.76007
9642 2 2.2208 -0.355598 29.4234 -0.446378
9634 2 2.2208 -0.459519 26.5395 2.37093
733 1 -1.1104 0.965525 25.1355 6.43702
693 1 -1.1104 6.77577 25.2023 0.868784
694 1 -1.1104 6.79715 25.2777 3.72678
742 1 -1.1104 1.14609 30.9499 6.71167
740 1 -1.1104 3.85828 22.4742 6.61287
744 1 -1.1104 1.10393 33.6699 6.44474
741 1 -1.1104 3.82815 28.0659 6.51978
747 1 -1.1104 3.89382 33.4658 6.54282
739 1 -1.1104 3.88578 25.1931 6.52058
719 1 -1.1104 6.60761 33.6251 1.10819
683 1 -1.1104 6.56421 33.6396 3.77324
697 1 -1.1104 6.79134 22.3758 3.64491
918 2 2.2208 7.9341 29.2924 13.7157
717 1 -1.1104 6.6105 30.9393 0.865592
718 1 -1.1104 6.59184 30.846 3.75446
695 1 -1.1104 6.56641 22.3753 0.900543
696 1 -1.1104 6.67678 27.9475 0.895137
698 1 -1.1104 6.64671 28.0811 3.88998
699 2 2.2208 10.7892 23.6878 5.17373
700 2 2.2208 10.882 29.2877 5.09187
701 1 -1.1104 12.2596 25.1923 1.07603
702 1 -1.1104 12.1751 25.2132 3.93963
703 1 -1.1104 12.1091 22.4415 0.879528
704 1 -1.1104 12.1426 27.9692 0.932379
705 2 2.2208 10.7954 26.5393 2.38986
706 1 -1.1104 12.2792 22.3924 3.88551
707 1 -1.1104 12.223 27.962 3.67922
708 1 -1.1104 9.53202 25.1179 0.851108
709 2 2.2208 8.03684 23.7179 2.42553
710 2 2.2208 8.14708 29.4081 2.3135
711 1 -1.1104 9.47758 24.9842 3.61843
712 2 2.2208 8.05576 26.547 5.11765
713 1 -1.1104 9.32643 22.2121 0.839595
714 1 -1.1104 9.42511 27.9671 0.865882
715 1 -1.1104 9.45999 22.3657 3.70761
716 1 -1.1104 9.35149 27.7916 3.64242
720 1 -1.1104 12.157 30.7474 1.0314
721 1 -1.1104 12.3013 30.7133 3.86528
722 1 -1.1104 12.3503 33.5569 1.02853
723 2 2.2208 10.7687 32.3725 2.38259
724 1 -1.1104 12.3663 33.554 3.8061
725 1 -1.1104 9.37468 30.9796 1.04428
726 1 -1.1104 9.52783 30.8624 3.73002
727 2 2.2208 8.1065 32.2332 5.17007
728 1 -1.1104 9.49213 33.7934 0.958805
729 1 -1.1104 9.44486 33.667 3.73393
793 1 -1.1104 12.2374 33.5618 6.49101
789 1 -1.1104 9.4236 25.1767 6.49085
790 1 -1.1104 9.45075 22.2299 6.58992
788 1 -1.1104 12.293 27.9273 6.50685
920 2 2.2208 10.971 29.4577 -0.476328
9636 2 2.2208 -0.46103 29.3819 5.2245
794 1 -1.1104 9.57741 30.7673 6.60628
791 1 -1.1104 9.45992 27.909 6.52369
743 1 -1.1104 6.76191 30.7122 6.57966
919 2 2.2208 8.08793 23.7289 13.5656
736 1 -1.1104 1.08708 28.0767 6.62766
745 1 -1.1104 6.80472 33.3729 6.58674
9650 2 2.2208 -0.372699 32.2678 13.5377
876 2 2.2208 2.46964 29.3992 13.5735