ITEM: TIMESTEP
70000
ITEM: NUMBER OF ATOMS
17910
ITEM: BOX BOUNDS pp pp pp
-3.4868111803864166e-01 2.7688681118039078e+01
-4.2494075738567894e+00 3.3232940757386575e+02
-3.6436536633344341e-01 2.7704365366333601e+01
ITEM: ATOMS id type q x y z
1 2 2.2208 5.27756 1.41837 5.2985
2 1 -1.1104 1.14148 -2.87306 1.18535
3 1 -1.1104 1.17322 2.62427 1.12213
6 1 -1.1104 1.20211 -2.84732 4.04999
7 1 -1.1104 1.21255 2.873 3.88116
10 1 -1.1104 1.12897 -0.160765 1.20175
12 2 2.2208 5.32228 -1.49554 2.62318
13 2 2.2208 5.31754 4.19678 2.50102
14 1 -1.1104 1.09362 0.0525263 3.99336
16 1 -1.1104 4.04558 -2.8697 1.24563
17 1 -1.1104 3.96328 2.84907 1.13547
18 2 2.2208 2.54885 1.40641 2.4658
19 1 -1.1104 3.9161 -2.90297 4.06802
20 1 -1.1104 4.01698 2.6805 4.0919
21 2 2.2208 2.52537 -1.27239 5.52933
22 2 2.2208 2.44136 4.01595 5.36686
23 1 -1.1104 3.87764 0.0065215 1.22478
24 1 -1.1104 4.04122 -0.0105883 3.8804
25 2 2.2208 5.22647 7.05826 5.48075
26 1 -1.1104 1.09895 8.38192 1.36161
28 1 -1.1104 0.963417 8.36847 4.11387
30 1 -1.1104 1.10644 5.44856 1.04188
32 1 -1.1104 1.04144 5.61855 4.02064
34 1 -1.1104 3.9147 8.28083 1.29454
35 2 2.2208 2.48382 6.97723 2.68212
37 1 -1.1104 3.90402 5.51948 1.093
38 1 -1.1104 3.82889 5.46349 3.88994
36 1 -1.1104 3.96619 8.31463 4.13265
80 1 -1.1104 1.14745 -2.80999 6.70623
4 1 -1.1104 6.81257 -2.92359 1.07271
82 1 -1.1104 6.60903 -2.8617 6.79707
84 1 -1.1104 1.18403 -0.0988235 6.7731
8574 2 2.2208 2.52698 -4.37766 2.73986
8943 2 2.2208 -0.403435 1.36012 5.28913
17711 2 2.2208 -0.253161 -4.17849 5.42592
8953 2 2.2208 -0.310502 6.96357 -0.188134
8938 2 2.2208 -0.197119 4.2046 2.59854
8575 2 2.2208 5.21652 -4.23405 5.34035
8940 2 2.2208 -0.347696 6.87891 5.53677
8942 2 2.2208 -0.336926 -1.43721 2.52702
172 2 2.2208 5.23378 6.95964 -0.210195
9 1 -1.1104 6.8542 2.6645 4.09227
15 1 -1.1104 6.70854 -0.137541 3.95175
5 1 -1.1104 6.80961 2.66703 1.22546
31 1 -1.1104 6.72295 5.55379 1.14098
27 1 -1.1104 6.78196 8.38813 1.21364
11 1 -1.1104 6.54056 -0.142131 1.06272
29 1 -1.1104 6.65398 8.3972 4.13125
33 1 -1.1104 6.69226 5.5018 3.90007
8 1 -1.1104 6.61296 -2.89136 4.0312
46 2 2.2208 10.8917 1.36974 5.42478
47 1 -1.1104 12.2797 -2.76481 1.19584
48 1 -1.1104 12.4293 2.54201 1.03015
49 1 -1.1104 12.264 -2.70819 3.91709
50 1 -1.1104 12.4581 3.01211 3.81136
51 1 -1.1104 12.3838 -0.128498 1.24474
52 2 2.2208 10.8839 -1.35404 2.65362
53 2 2.2208 10.96 4.26077 2.5887
54 1 -1.1104 12.2645 0.154577 4.03874
55 1 -1.1104 9.49056 -2.89933 1.20026
56 1 -1.1104 9.57272 2.68128 1.1771
57 2 2.2208 8.1308 1.40065 2.62219
58 1 -1.1104 9.52936 -2.85178 4.0136
59 1 -1.1104 9.66811 3.00286 3.98605
60 2 2.2208 8.11126 -1.43788 5.38402
61 2 2.2208 8.1362 4.11227 5.34349
62 1 -1.1104 9.51732 -0.0592604 1.27687
63 1 -1.1104 9.47587 0.176721 4.1695
64 2 2.2208 10.8645 7.01147 5.41965
66 1 -1.1104 12.0351 8.60959 4.13357
67 1 -1.1104 12.3123 5.5889 1.14318
68 1 -1.1104 12.3597 5.79953 3.91964
69 1 -1.1104 9.52264 8.27443 1.18461
70 2 2.2208 8.0933 6.93541 2.58776
71 1 -1.1104 9.24801 8.26325 4.17488
72 1 -1.1104 9.58533 5.55383 1.18611
73 1 -1.1104 9.5883 5.59586 3.99148
65 1 -1.1104 12.266 8.33661 1.18085
140 1 -1.1104 12.2522 2.73119 6.73573
139 1 -1.1104 12.2572 -2.83889 6.76202
141 1 -1.1104 12.318 -0.102428 6.9012
144 1 -1.1104 9.57846 -0.114703 6.85563
146 1 -1.1104 12.2242 5.56151 6.78525
158 2 2.2208 10.8475 6.87684 -0.288068
164 2 2.2208 8.12189 -1.41838 -0.226723
86 1 -1.1104 3.92748 -2.7721 6.77753
89 1 -1.1104 0.915319 8.30106 6.83074
94 1 -1.1104 3.85904 5.501 6.88086
91 1 -1.1104 1.0763 5.47995 6.7438
17703 2 2.2208 -0.160472 -4.14785 10.9804
8840 2 2.2208 -0.315116 4.10988 8.23213
8905 2 2.2208 -0.343462 6.91716 11.0963
8800 2 2.2208 -0.236037 1.42892 10.9701
8579 2 2.2208 5.35361 -4.06772 10.9765
87 1 -1.1104 3.87893 2.79124 6.87956
81 1 -1.1104 0.995379 2.68213 6.71092
93 1 -1.1104 3.69303 8.38706 6.8668
88 1 -1.1104 3.94495 0.136777 6.81719
130 1 -1.1104 3.90807 8.40249 9.70363
95 2 2.2208 5.41163 1.31922 11.1717
96 1 -1.1104 1.21487 -2.77323 12.4191
97 1 -1.1104 1.27576 2.81752 12.3604
100 1 -1.1104 1.16808 -2.74689 9.54963
101 1 -1.1104 1.15116 2.70373 9.6139
104 1 -1.1104 1.24415 0.0696727 12.3299
106 2 2.2208 5.40185 -1.34926 8.20062
107 2 2.2208 5.34703 4.17901 8.20965
108 1 -1.1104 1.23197 -0.00866595 9.47746
110 1 -1.1104 3.94237 -2.86626 12.3933
111 1 -1.1104 4.10539 2.63973 12.5251
112 2 2.2208 2.5407 1.43873 8.24927
113 1 -1.1104 3.94109 -2.83188 9.50675
114 1 -1.1104 3.86272 2.8519 9.74587
115 2 2.2208 2.63314 -1.43373 10.9989
116 2 2.2208 2.59543 4.31482 11.085
117 1 -1.1104 3.93886 -0.123161 12.4929
118 1 -1.1104 3.95195 0.0351982 9.70469
119 2 2.2208 5.45189 7.06388 11.0863
120 1 -1.1104 1.21382 8.39255 12.3953
122 1 -1.1104 1.06514 8.34033 9.79084
124 1 -1.1104 1.31031 5.63578 12.5522
126 1 -1.1104 0.994008 5.54757 9.69335
128 1 -1.1104 4.09447 8.30595 12.481
129 2 2.2208 2.38813 6.86452 8.28916
131 1 -1.1104 4.1207 5.55046 12.4522
132 1 -1.1104 3.87802 5.64001 9.65846
98 1 -1.1104 6.74411 -2.8291 12.3361
8801 2 2.2208 -0.248492 -1.40965 8.11395
92 1 -1.1104 6.58524 5.5654 6.73134
85 1 -1.1104 6.82912 -0.135308 6.86857
75 1 -1.1104 12.2854 8.43078 12.355
79 1 -1.1104 9.48807 -0.0654076 9.66709
157 1 -1.1104 12.3848 2.82365 9.47219
145 1 -1.1104 12.3722 8.371 6.75948
121 1 -1.1104 6.72775 8.54707 12.4154
40 2 2.2208 8.13323 1.32718 8.25294
99 1 -1.1104 6.80289 2.79564 12.4016
109 1 -1.1104 6.64669 0.072118 9.68833
125 1 -1.1104 6.79303 5.67829 12.2576
102 1 -1.1104 6.78139 -2.56694 9.58052
123 1 -1.1104 6.75137 8.48029 9.60649
153 2 2.2208 10.9503 1.44195 11.0006
83 1 -1.1104 6.83161 2.73735 6.92724
90 1 -1.1104 6.63526 8.35558 6.79358
149 1 -1.1104 9.4759 5.60058 6.89535
147 1 -1.1104 9.37263 8.31949 6.87793
142 1 -1.1104 9.40338 -3.03942 6.74799
143 1 -1.1104 9.62839 2.70269 6.76309
76 2 2.2208 10.8798 7.03569 10.9473
138 1 -1.1104 9.60768 2.76797 9.60986
127 1 -1.1104 6.81833 5.54417 9.48992
43 1 -1.1104 9.48277 2.77998 12.4285
105 1 -1.1104 6.80152 0.00976996 12.4517
133 1 -1.1104 9.46001 0.0523328 12.5011
154 1 -1.1104 12.4642 -2.75886 12.2254
39 1 -1.1104 9.55628 -2.76782 9.44415
134 2 2.2208 8.13301 4.19427 10.9944
103 1 -1.1104 6.7595 2.82588 9.58765
45 1 -1.1104 12.2967 5.61037 12.3158
41 1 -1.1104 9.49896 8.47928 12.3038
156 1 -1.1104 12.4258 -2.85043 9.43759
151 1 -1.1104 9.45058 8.33999 9.53181
44 1 -1.1104 9.59391 -2.83709 12.2999
42 1 -1.1104 12.3294 5.61811 9.60466
152 2 2.2208 8.07143 6.9805 8.24211
137 1 -1.1104 12.3108 -0.0729895 12.3328
77 1 -1.1104 12.4054 0.056063 9.64993
74 1 -1.1104 12.3231 8.46147 9.58382
135 2 2.2208 8.20903 -1.43174 11.0331
136 2 2.2208 10.8979 -1.45607 8.14272
148 1 -1.1104 9.41486 5.51959 9.51747
155 1 -1.1104 12.2926 2.71159 12.3244
78 2 2.2208 10.8472 4.22075 8.11754
150 1 -1.1104 9.66456 5.64054 12.3529
173 2 2.2208 5.37432 1.45956 16.6181
174 1 -1.1104 1.08958 -2.7919 18.1463
175 1 -1.1104 1.08502 2.97948 17.9185
178 1 -1.1104 1.20169 -2.6314 15.2694
180 1 -1.1104 1.27675 2.89743 15.0945
186 1 -1.1104 1.19075 0.0468102 18.1375
188 2 2.2208 5.44794 -1.41273 19.3426
189 2 2.2208 5.22015 4.25086 19.3656
190 1 -1.1104 1.22062 0.0545215 15.2512
194 1 -1.1104 4.03223 -2.94991 18.1013
195 1 -1.1104 3.95349 2.84572 18.0758
196 2 2.2208 2.60148 1.42886 19.466
197 1 -1.1104 4.00478 -2.7184 15.1645
199 1 -1.1104 3.97742 3.01191 15.2396
201 2 2.2208 2.59665 -1.39806 16.6323
202 2 2.2208 2.55088 4.31187 16.6429
203 1 -1.1104 3.96685 -0.0383687 18.1368
204 1 -1.1104 3.93075 0.124657 15.4309
206 2 2.2208 5.29545 7.0897 16.5608
207 1 -1.1104 1.07551 8.42293 18.1167
209 1 -1.1104 1.27858 8.47831 15.1321
213 1 -1.1104 1.08971 5.76432 18.241
215 1 -1.1104 1.06538 5.69174 15.4305
219 1 -1.1104 3.89483 8.45937 18.0089
220 2 2.2208 2.48847 7.04121 19.4606
221 1 -1.1104 4.05914 8.48771 15.25
223 1 -1.1104 3.96971 5.732 17.9946
224 1 -1.1104 3.92871 5.68851 15.17
191 1 -1.1104 1.08187 -0.0388935 20.8192
9070 2 2.2208 -0.39636 4.19889 19.4928
9119 2 2.2208 -0.230564 -1.36095 19.4656
9007 2 2.2208 -0.167075 1.34575 16.6602
9068 2 2.2208 -0.23624 7.01998 16.6996
8955 2 2.2208 -0.167079 4.18724 13.9831
159 2 2.2208 5.43102 -1.41457 13.8479
162 2 2.2208 5.43907 4.20064 13.7758
161 2 2.2208 2.5228 1.46856 13.7914
160 2 2.2208 2.67591 6.99701 13.7799
9116 2 2.2208 -0.144009 -1.29967 13.6854
211 1 -1.1104 6.77766 8.30569 15.0526
187 1 -1.1104 6.8017 -0.00504778 18.0151
214 1 -1.1104 6.71917 5.60393 18.0408
182 1 -1.1104 6.8495 -2.79147 15.1181
183 1 -1.1104 6.88871 -2.8448 20.6901
192 1 -1.1104 6.7983 -0.0205969 15.2498
177 1 -1.1104 6.72822 2.755 17.8629
208 1 -1.1104 6.5652 8.44558 18.0403
169 2 2.2208 10.9831 4.21255 13.7474
184 1 -1.1104 6.8119 2.84521 15.1908
176 1 -1.1104 6.80918 -2.75243 17.963
217 1 -1.1104 6.73924 5.64852 15.1178
237 2 2.2208 11.0576 1.24312 16.62
238 1 -1.1104 12.4903 -2.88617 17.9802
239 1 -1.1104 12.3361 2.67599 17.9314
240 1 -1.1104 12.4033 -2.87334 15.1851
242 1 -1.1104 12.3744 2.81473 15.1485
244 1 -1.1104 12.5357 -0.154847 18.0152
245 2 2.2208 10.9684 -1.54709 19.4631
246 2 2.2208 10.9041 4.14301 19.3177
247 1 -1.1104 12.2654 -0.0957117 15.157
249 1 -1.1104 9.68695 -2.94812 17.7974
250 1 -1.1104 9.51558 2.77826 17.8274
251 2 2.2208 8.18425 1.31633 19.3611
252 1 -1.1104 9.667 -2.77646 15.1173
254 1 -1.1104 9.53598 2.85004 15.1081
256 2 2.2208 8.23971 -1.40996 16.6185
257 2 2.2208 8.13121 4.2627 16.6371
258 1 -1.1104 9.64659 -0.0878623 18.0711
259 1 -1.1104 9.59275 -0.108043 15.2273
261 2 2.2208 10.8064 7.04458 16.5417
263 1 -1.1104 12.3453 8.45832 15.2505
265 1 -1.1104 12.3573 5.49751 17.9623
266 1 -1.1104 12.2377 5.70451 15.257
268 1 -1.1104 9.26696 8.4447 18.1036
269 2 2.2208 8.09954 7.03998 19.5325
270 1 -1.1104 9.52839 8.48976 15.2392
272 1 -1.1104 9.47391 5.73899 17.9829
273 1 -1.1104 9.56558 5.57179 15.1941
262 1 -1.1104 12.3502 8.24887 18.0191
253 1 -1.1104 9.70462 -2.95693 20.7244
276 2 2.2208 11.0634 -4.36069 16.5072
8653 2 2.2208 8.22736 -4.23795 19.3987
167 2 2.2208 8.19656 1.54665 13.8725
168 2 2.2208 10.9233 -1.43342 13.7724
166 2 2.2208 8.25908 6.99862 13.7762
198 1 -1.1104 4.05202 -2.88835 20.9375
225 1 -1.1104 3.94328 5.52867 20.9376
205 1 -1.1104 3.90421 -0.126325 20.8453
200 1 -1.1104 3.87757 2.72703 21.0482
181 1 -1.1104 1.1326 2.69895 20.6661
210 1 -1.1104 1.13841 8.2226 21.0157
9069 2 2.2208 -0.148384 1.2306 27.7513
9067 2 2.2208 -0.150654 -1.41123 24.9477
9010 2 2.2208 -0.248769 1.27445 22.1249
179 1 -1.1104 1.27789 -2.85196 20.85
222 1 -1.1104 3.90456 8.44645 20.7741
216 1 -1.1104 1.06274 5.55034 20.8246
171 2 2.2208 2.57827 4.1613 27.8213
312 1 -1.1104 1.19877 8.35872 26.6171
285 2 2.2208 5.28471 1.48246 22.216
286 1 -1.1104 1.12567 -2.85632 23.7016
287 1 -1.1104 1.23116 2.76904 23.602
290 1 -1.1104 1.11495 -2.75623 26.3937
291 1 -1.1104 1.12406 2.76316 26.4299
294 1 -1.1104 0.998964 0.0542815 23.6046
296 2 2.2208 5.33403 -1.47331 25.1067
297 2 2.2208 5.41374 4.29782 25.1128
298 1 -1.1104 1.46656 0.0653425 26.4123
300 1 -1.1104 3.93397 -2.81122 23.8012
301 1 -1.1104 4.04191 2.8997 23.6805
302 2 2.2208 2.72808 1.37738 25.0783
303 1 -1.1104 3.96363 -2.92339 26.6662
304 1 -1.1104 3.99778 2.77207 26.3837
305 2 2.2208 2.48664 -1.458 22.1986
306 2 2.2208 2.38671 4.24158 22.1954
307 1 -1.1104 3.90074 -0.0178451 23.7361
308 1 -1.1104 4.09326 -0.0416867 26.5619
309 2 2.2208 5.28799 7.05295 22.1689
310 1 -1.1104 1.09622 8.30392 23.8029
314 1 -1.1104 0.893864 5.64853 23.7247
316 1 -1.1104 1.28419 5.59979 26.4939
318 1 -1.1104 3.91437 8.22849 23.7311
319 2 2.2208 2.47234 6.85087 25.156
321 1 -1.1104 3.83152 5.59131 23.8252
322 1 -1.1104 3.99739 5.59082 26.5055
320 1 -1.1104 3.90149 8.3178 26.5624
288 1 -1.1104 6.70722 -2.92198 23.657
8600 2 2.2208 2.55924 -4.3316 25.0297
8995 2 2.2208 -0.309464 4.01019 24.9845
218 1 -1.1104 6.66162 5.57378 20.8248
9008 2 2.2208 -0.261213 6.93676 22.3433
17901 2 2.2208 -0.19563 -4.16241 22.1916
8610 2 2.2208 5.32523 -4.18723 22.3269
324 2 2.2208 2.59457 -1.51822 27.9942
170 2 2.2208 5.40236 1.3503 27.8421
17900 2 2.2208 -0.146968 -4.30632 27.7551
212 1 -1.1104 6.66446 8.41106 20.8061
9006 2 2.2208 13.7882 6.94159 24.9588
248 1 -1.1104 12.3818 -0.134627 20.699
9093 2 2.2208 13.7555 4.11304 22.2033
193 1 -1.1104 6.73752 -0.0757477 20.7977
295 1 -1.1104 6.8072 -0.0949702 23.6472
289 1 -1.1104 6.79888 2.79841 23.6569
317 1 -1.1104 6.80304 5.56186 26.4399
282 1 -1.1104 9.6415 5.48556 23.5144
325 1 -1.1104 12.2318 8.4899 23.6503
230 1 -1.1104 9.5888 2.66225 26.451
185 1 -1.1104 6.66198 2.89443 20.6559
327 1 -1.1104 9.3832 8.38523 23.6754
228 2 2.2208 8.04663 -1.50567 22.2122
267 1 -1.1104 12.4524 5.46518 20.6921
274 1 -1.1104 9.65875 5.55341 20.798
264 1 -1.1104 12.4024 8.37061 20.9316
255 1 -1.1104 9.51409 2.72806 20.6334
243 1 -1.1104 12.3573 2.64696 20.7501
241 1 -1.1104 12.4094 -2.75958 20.909
271 1 -1.1104 9.60933 8.29281 20.9742
278 1 -1.1104 9.55201 2.61884 23.5029
328 1 -1.1104 12.3826 5.47926 26.4578
236 1 -1.1104 12.2142 2.78366 23.5015
313 1 -1.1104 6.76906 8.31022 26.5522
299 1 -1.1104 6.80905 0.00464537 26.3609
226 1 -1.1104 9.55208 -0.0962913 23.6893
315 1 -1.1104 6.68009 5.50234 23.4537
293 1 -1.1104 6.64785 2.85067 26.4668
292 1 -1.1104 6.72622 -2.93079 26.4469
284 1 -1.1104 9.5604 -0.0507464 26.3958
283 1 -1.1104 9.58274 5.62172 26.4109
227 2 2.2208 8.07992 4.12077 22.1945
234 1 -1.1104 12.3415 2.77442 26.3566
279 2 2.2208 10.9804 1.28959 22.1522
231 2 2.2208 10.928 -1.45171 24.9514
311 1 -1.1104 6.75987 8.27704 23.6256
232 1 -1.1104 9.45322 -2.73327 26.4585
277 2 2.2208 8.17712 1.30372 24.992
329 1 -1.1104 9.55858 -2.94771 23.528
275 1 -1.1104 12.207 -3.0119 23.7041
165 2 2.2208 10.8982 1.40717 27.7885
235 1 -1.1104 12.1825 -2.80745 26.3993
260 1 -1.1104 9.5102 -0.0325794 20.947
280 2 2.2208 8.14856 7.02181 25.0163
326 1 -1.1104 12.379 8.44794 26.2868
233 1 -1.1104 12.2497 -0.0479656 23.5936
323 2 2.2208 11.0584 6.96557 22.2402
332 1 -1.1104 12.5024 5.59199 23.5525
330 1 -1.1104 12.316 -0.0749861 26.279
281 1 -1.1104 9.49553 8.4371 26.4884
331 2 2.2208 10.9274 4.05132 25.0013
163 2 2.2208 8.20966 4.20436 27.8391
333 2 2.2208 5.24676 12.5096 5.458
334 1 -1.1104 1.0974 11.045 1.1435
338 2 2.2208 5.2658 9.62866 2.65251
339 1 -1.1104 1.08066 11.2185 4.04972
341 2 2.2208 2.4829 12.5488 2.46765
342 2 2.2208 2.48333 9.84166 5.48692
343 1 -1.1104 3.90336 11.0608 1.20468
345 1 -1.1104 3.79304 11.1926 4.13869
346 2 2.2208 5.28177 18.1597 5.34304
347 1 -1.1104 1.05861 14.0571 1.0307
349 1 -1.1104 1.09252 19.5587 1.03083
353 1 -1.1104 1.05382 14.0215 3.88395
354 1 -1.1104 0.984772 19.5433 3.89012
356 1 -1.1104 1.08413 16.8411 0.982313
359 2 2.2208 5.37051 15.2254 2.53534
360 2 2.2208 5.22599 20.9631 2.65203
361 1 -1.1104 1.12529 16.5531 3.78566
363 1 -1.1104 3.9058 13.7325 1.07931
365 1 -1.1104 3.89942 19.5328 1.20434
367 2 2.2208 2.45853 18.0142 2.57593
368 1 -1.1104 3.94168 13.875 3.87147
369 1 -1.1104 3.79758 19.5272 4.00874
370 2 2.2208 2.59773 15.4283 5.30039
371 2 2.2208 2.36084 21.0683 5.28719
372 1 -1.1104 3.9753 16.6387 1.21554
374 1 -1.1104 3.96202 16.6525 3.88658
9293 2 2.2208 -0.362465 12.5877 5.33367
9296 2 2.2208 -0.374187 18.0638 5.28955
375 2 2.2208 -0.3571 15.361 2.46979
344 1 -1.1104 3.93648 11.0466 6.92568
435 1 -1.1104 1.10805 19.6869 6.59084
376 2 2.2208 -0.427812 9.74633 2.66946
378 2 2.2208 -0.283955 20.9198 2.43705
501 2 2.2208 -0.222195 12.553 -0.217733
489 2 2.2208 2.47579 21.0042 -0.252175
502 2 2.2208 -0.376169 18.1772 -0.337032
498 2 2.2208 2.53989 15.46 -0.39214
499 2 2.2208 2.51474 9.75883 -0.0863396
500 2 2.2208 5.31699 12.526 -0.366006
492 2 2.2208 5.24854 18.114 -0.306567
350 1 -1.1104 6.76319 13.9377 1.02157
392 1 -1.1104 6.65225 16.8462 1.18618
390 1 -1.1104 6.74406 19.6067 1.05258
355 1 -1.1104 6.68515 13.9333 3.94894
391 1 -1.1104 6.70525 19.5157 3.84845
336 1 -1.1104 6.6662 11.1259 1.1591
340 1 -1.1104 6.54449 11.1447 3.91997
362 1 -1.1104 6.70016 16.5863 4.0496
380 2 2.2208 10.8442 12.612 5.35765
381 1 -1.1104 12.285 11.0925 1.21567
383 2 2.2208 10.8858 9.62978 2.60069
384 1 -1.1104 12.2516 11.1946 3.94418
385 2 2.2208 8.05194 12.4911 2.6428
386 2 2.2208 8.05869 9.76078 5.50423
387 1 -1.1104 9.4584 11.209 1.29092
389 1 -1.1104 9.32587 11.0306 4.01305
393 2 2.2208 10.7065 18.1008 5.41623
394 1 -1.1104 12.2563 14.0441 1.17449
396 1 -1.1104 12.3189 19.4451 1.12318
398 1 -1.1104 12.0818 14.0569 3.89343
399 1 -1.1104 12.2067 19.6774 3.98639
400 1 -1.1104 12.282 16.62 1.25933
402 2 2.2208 10.7985 15.2953 2.48824
403 2 2.2208 10.9122 20.9132 2.39838
404 1 -1.1104 12.2224 16.8098 3.94117
405 1 -1.1104 9.50162 13.969 1.22748
407 1 -1.1104 9.48771 19.5017 1.10985
409 2 2.2208 8.03105 18.093 2.55501
410 1 -1.1104 9.33882 13.9424 4.04607
411 1 -1.1104 9.41238 19.537 3.94543
412 2 2.2208 8.08067 15.4759 5.41574
413 2 2.2208 8.15939 21.0386 5.25882
414 1 -1.1104 9.42164 16.7679 1.23859
416 1 -1.1104 9.34363 16.8704 4.02151
495 2 2.2208 8.1159 9.84719 -0.089446
494 2 2.2208 10.9354 12.5502 -0.145744
497 2 2.2208 8.06823 21.0623 -0.169719
493 2 2.2208 8.13023 15.3833 -0.127941
496 2 2.2208 10.8132 18.1946 -0.293221
366 1 -1.1104 3.86918 19.5775 6.62621
357 1 -1.1104 1.12947 16.872 6.74741
373 1 -1.1104 3.97305 16.681 6.6385
348 1 -1.1104 0.944634 14.0015 6.67171
335 1 -1.1104 0.911444 11.0968 6.80672
9261 2 2.2208 -0.256231 12.4979 10.8308
9299 2 2.2208 -0.332888 15.4676 8.0718
364 1 -1.1104 3.75155 13.9276 6.58851
9274 2 2.2208 -0.458548 9.71036 8.17329
9298 2 2.2208 -0.311205 18.3083 10.8644
419 1 -1.1104 3.93235 19.5407 12.1448
420 1 -1.1104 3.90163 14.1012 12.4576
424 1 -1.1104 1.24774 19.5114 9.51016
425 1 -1.1104 0.990706 16.938 9.3491
426 2 2.2208 5.27168 21.0134 8.02664
427 1 -1.1104 1.10276 13.9848 9.43407
428 2 2.2208 5.29392 15.2968 8.17648
431 1 -1.1104 1.09943 19.6516 12.4372
432 1 -1.1104 0.943454 14.1271 12.2227
433 2 2.2208 5.33913 18.208 10.9174
434 1 -1.1104 3.86565 19.6387 9.4081
436 2 2.2208 2.53522 18.1878 8.01175
437 1 -1.1104 3.95536 16.8333 9.4551
438 1 -1.1104 3.76641 13.9846 9.51659
440 1 -1.1104 1.13111 16.7536 12.1932
441 1 -1.1104 3.91879 16.828 12.2965
442 2 2.2208 2.61956 20.9968 10.795
443 2 2.2208 5.20245 12.6763 10.9237
444 1 -1.1104 1.12353 11.2547 12.3747
446 2 2.2208 2.3506 15.4628 10.8653
447 2 2.2208 5.30124 9.60387 8.13991
448 1 -1.1104 1.02741 11.1523 9.50296
450 2 2.2208 2.3759 12.5856 8.00254
451 2 2.2208 2.42243 9.84238 11.0018
452 1 -1.1104 3.9923 11.2097 12.4975
453 1 -1.1104 3.81361 11.2486 9.61015
9297 2 2.2208 -0.424819 20.9814 8.15093
351 1 -1.1104 6.55721 13.9298 6.71615
352 1 -1.1104 6.81607 19.5499 6.53789
406 1 -1.1104 9.49142 14.0789 6.86351
415 1 -1.1104 9.42166 16.7364 6.7614
388 1 -1.1104 9.56687 11.1663 6.77845
382 1 -1.1104 12.305 11.1373 6.82419
397 1 -1.1104 12.1702 19.5735 6.66045
408 1 -1.1104 9.48771 19.6963 6.73047
471 1 -1.1104 9.40707 11.2312 12.2666
474 2 2.2208 8.21114 9.83147 10.872
337 1 -1.1104 6.71204 11.1637 6.7573
430 1 -1.1104 6.73536 14.1717 12.4302
445 1 -1.1104 6.63308 11.4354 12.3631
429 1 -1.1104 6.64873 19.7454 12.3525
423 1 -1.1104 6.68852 13.9684 9.5579
460 2 2.2208 8.18202 15.4195 11.1716
358 1 -1.1104 6.63118 16.8345 6.88355
467 2 2.2208 10.8648 21.0034 8.0593
395 1 -1.1104 12.243 13.911 6.73556
472 1 -1.1104 12.3916 19.6229 9.4859
473 1 -1.1104 12.1603 14.006 9.50145
439 1 -1.1104 6.63775 16.9394 12.4424
421 1 -1.1104 6.80432 19.6399 9.5615
476 1 -1.1104 12.2077 19.6445 12.3713
401 1 -1.1104 12.1665 16.6884 6.77069
462 1 -1.1104 9.48282 14.1272 9.66218
422 1 -1.1104 6.6969 16.6975 9.69804
475 2 2.2208 8.06935 12.6815 8.10314
466 1 -1.1104 12.2788 16.7715 9.56958
463 2 2.2208 8.17333 18.1155 8.25719
470 1 -1.1104 12.3202 16.9187 12.3522
469 2 2.2208 10.8564 15.4047 8.14742
457 1 -1.1104 9.52076 16.8326 9.62058
477 1 -1.1104 12.3065 14.0748 12.4398
461 1 -1.1104 9.77622 19.5813 9.57865
377 1 -1.1104 12.2794 11.2827 9.64475
455 2 2.2208 10.8787 12.5931 10.9685
465 1 -1.1104 9.57351 13.9774 12.4719
449 1 -1.1104 6.54071 11.3838 9.53545
454 1 -1.1104 12.2758 11.2189 12.3325
459 2 2.2208 8.20406 21.0862 10.9097
456 2 2.2208 10.9336 18.1556 11.0515
468 1 -1.1104 9.39824 11.2808 9.51123
379 2 2.2208 10.7908 9.82508 8.11486
464 1 -1.1104 9.54151 19.5526 12.2601
458 1 -1.1104 9.44724 16.8475 12.4165
487 2 2.2208 10.9186 9.73472 13.8193
503 2 2.2208 5.27497 12.712 16.4449
504 1 -1.1104 1.16702 11.2285 18.0296
506 2 2.2208 5.422 9.93449 19.3447
507 1 -1.1104 1.04404 11.243 15.2372
511 2 2.2208 2.57488 12.5383 19.413
512 2 2.2208 2.57153 9.78542 16.6644
513 1 -1.1104 3.92314 11.2009 18.006
514 1 -1.1104 3.89029 11.2588 15.1955
516 2 2.2208 5.17702 18.2531 16.684
517 1 -1.1104 0.987468 14.1879 17.9379
518 1 -1.1104 1.10806 19.726 17.8509
521 1 -1.1104 1.15758 13.9656 15.2116
523 1 -1.1104 1.02022 19.5832 15.1369
529 1 -1.1104 1.0973 17.0089 18.0472
531 2 2.2208 5.22234 15.5009 19.3769
532 2 2.2208 5.31267 21.0463 19.4317
533 1 -1.1104 1.06925 16.7845 15.0675
537 1 -1.1104 3.87562 14.0546 18.0037
538 1 -1.1104 3.85874 19.8109 18.0488
539 2 2.2208 2.38056 18.2962 19.4511
540 1 -1.1104 3.84656 14.0867 15.1219
542 1 -1.1104 3.9222 19.64 15.2086
544 2 2.2208 2.4272 15.5752 16.5937
545 2 2.2208 2.47959 21.0169 16.4541
546 1 -1.1104 3.83379 16.9252 18.0444
547 1 -1.1104 3.82856 16.9553 15.06
527 1 -1.1104 6.58487 19.7296 15.18
479 2 2.2208 5.33342 20.9607 13.7176
480 2 2.2208 5.3669 9.84696 13.8246
552 2 2.2208 -0.28811 20.9677 19.3286
9312 2 2.2208 -0.358706 20.9993 13.7652
551 2 2.2208 -0.29137 15.328 19.4865
550 2 2.2208 -0.260888 9.80257 19.4613
553 2 2.2208 -0.317683 12.6754 16.6241
9422 2 2.2208 -0.338962 18.2712 16.5595
481 2 2.2208 2.49525 12.6038 13.7718
9311 2 2.2208 -0.341895 15.3809 13.8326
482 2 2.2208 5.31701 15.4075 13.7236
478 2 2.2208 2.37636 18.1927 13.7384
9315 2 2.2208 -0.345172 9.83607 13.8296
505 1 -1.1104 6.72845 11.3477 17.973
530 1 -1.1104 6.50595 16.8217 18.1499
525 1 -1.1104 6.70327 14.0643 15.1096
519 1 -1.1104 6.80252 14.0915 18.0201
520 1 -1.1104 6.58461 19.6315 17.9147
509 1 -1.1104 6.64101 11.1788 15.3414
535 1 -1.1104 6.53225 16.8266 15.2162
554 2 2.2208 10.8232 12.564 16.6309
555 1 -1.1104 12.3413 11.0849 17.9072
556 2 2.2208 10.9834 9.72691 19.4351
557 1 -1.1104 12.3575 11.3268 15.2229
559 2 2.2208 8.11991 12.6174 19.4743
560 2 2.2208 8.06029 9.83207 16.5763
561 1 -1.1104 9.61848 11.0525 18.0867
562 1 -1.1104 9.44704 11.3403 15.2261
564 2 2.2208 10.8418 18.2488 16.5258
565 1 -1.1104 12.2408 14.0526 17.8477
566 1 -1.1104 12.0809 19.6271 17.9661
567 1 -1.1104 12.58 14.1429 15.0991
569 1 -1.1104 12.1512 19.7559 15.1824
571 1 -1.1104 12.1707 16.8014 17.8756
572 2 2.2208 10.8706 15.3962 19.348
573 2 2.2208 10.787 20.9211 19.3609
574 1 -1.1104 12.1367 16.751 15.1854
576 1 -1.1104 9.52591 13.979 17.9606
577 1 -1.1104 9.28596 19.6521 17.9896
578 2 2.2208 8.00721 18.1053 19.3563
579 1 -1.1104 9.53246 14.0965 15.2397
581 1 -1.1104 9.47274 19.8258 15.0973
583 2 2.2208 8.03501 15.5164 16.5808
584 2 2.2208 8.04527 20.9478 16.54
585 1 -1.1104 9.40083 16.8578 18.0085
586 1 -1.1104 9.36922 16.9581 15.18
570 1 -1.1104 12.1519 19.5373 20.849
483 2 2.2208 10.8303 21.0258 13.6097
589 2 2.2208 13.6225 18.1993 19.4045
488 2 2.2208 8.03026 12.5442 13.8097
484 2 2.2208 10.9462 15.3823 13.7701
485 2 2.2208 8.09102 18.3163 13.842
548 1 -1.1104 3.83049 16.8395 20.8452
515 1 -1.1104 3.90822 11.151 20.7881
524 1 -1.1104 0.979395 19.5314 20.6132
522 1 -1.1104 1.14047 13.8238 20.9242
534 1 -1.1104 0.97729 16.6789 20.8777
638 2 2.2208 -0.313586 12.6222 22.3039
635 2 2.2208 -0.233443 21.0248 24.8715
637 2 2.2208 -0.157748 9.75488 25.1443
508 1 -1.1104 1.19074 11.0456 20.8268
543 1 -1.1104 3.75362 19.7141 20.7907
636 2 2.2208 -0.295604 18.1944 22.184
541 1 -1.1104 3.97186 13.9382 20.8319
633 2 2.2208 -0.294344 15.3645 25.0217
594 1 -1.1104 3.72441 19.7184 23.6291
596 1 -1.1104 4.09629 14.1169 23.6419
598 1 -1.1104 1.11578 19.6378 26.3559
599 1 -1.1104 1.25787 16.8451 26.378
600 1 -1.1104 1.13636 13.9027 26.3667
602 2 2.2208 5.23375 20.9277 25.0284
603 2 2.2208 5.34204 15.3838 25.0658
605 1 -1.1104 1.02082 19.5265 23.529
606 1 -1.1104 1.17925 13.8596 23.7243
607 2 2.2208 5.21309 18.244 22.2242
608 1 -1.1104 3.84621 19.4726 26.3476
609 2 2.2208 2.41326 18.126 24.9116
610 1 -1.1104 3.95683 16.7692 26.3589
611 1 -1.1104 3.91524 14.1198 26.3821
613 1 -1.1104 1.17949 16.8041 23.5671
614 1 -1.1104 3.92387 16.8434 23.6016
615 2 2.2208 2.5265 21.0993 22.0791
616 2 2.2208 5.31765 12.649 22.1782
617 1 -1.1104 1.15666 11.0584 23.5527
619 2 2.2208 2.56053 15.3359 22.2613
620 2 2.2208 5.42293 9.58185 25.0476
621 1 -1.1104 1.1706 11.2237 26.4732
623 2 2.2208 2.59418 12.4467 25.041
624 2 2.2208 2.49115 9.64099 22.1792
625 1 -1.1104 3.95052 10.9972 23.5651
626 1 -1.1104 3.90869 11.1346 26.4409
528 1 -1.1104 6.56922 19.6105 20.7273
536 1 -1.1104 6.66278 16.9948 20.8837
575 1 -1.1104 12.1768 16.8034 20.7582
657 2 2.2208 8.18845 9.74706 22.3082
629 2 2.2208 10.9102 9.76155 25.1234
656 1 -1.1104 9.66541 11.3356 23.7371
650 1 -1.1104 9.51455 11.1254 26.5548
563 1 -1.1104 9.46383 11.0864 20.7628
658 2 2.2208 8.15725 12.5741 25.0416
510 1 -1.1104 6.68563 11.3846 20.8552
526 1 -1.1104 6.7825 14.2081 20.8077
644 1 -1.1104 9.52752 14.0333 26.5355
645 1 -1.1104 6.69996 19.622 26.3411
604 1 -1.1104 6.88884 13.9041 23.5723
601 1 -1.1104 6.63419 19.5768 23.5984
612 1 -1.1104 6.64127 16.7755 23.6802
597 1 -1.1104 6.67466 16.7895 26.5167
634 1 -1.1104 12.3557 14.0678 23.6832
642 2 2.2208 8.03153 15.4118 22.2995
587 1 -1.1104 9.46017 16.8631 20.7377
558 1 -1.1104 12.2487 11.2202 20.6905
568 1 -1.1104 12.2997 13.9089 20.7984
622 1 -1.1104 6.74383 11.2238 26.4224
618 1 -1.1104 6.67189 11.053 23.6084
647 1 -1.1104 9.49162 19.5818 23.7422
640 1 -1.1104 9.44926 16.7363 23.7488
655 1 -1.1104 12.308 14.0947 26.6447
631 2 2.2208 11.0545 12.5865 22.1991
582 1 -1.1104 9.43327 19.6136 20.9502
580 1 -1.1104 9.64825 13.9449 20.8136
641 2 2.2208 8.06656 20.9375 22.1173
649 1 -1.1104 12.3255 16.8418 26.3762
643 1 -1.1104 9.32021 19.6855 26.4383
630 1 -1.1104 12.338 11.3209 23.5149
632 2 2.2208 10.7998 18.2714 22.2619
654 1 -1.1104 12.1084 19.5747 26.3735
653 1 -1.1104 12.298 16.8314 23.5909
651 2 2.2208 10.7718 20.9909 25.0457
646 2 2.2208 8.01944 18.111 25.0444
595 1 -1.1104 6.74092 13.9987 26.4064
659 1 -1.1104 12.314 19.4754 23.7239
639 1 -1.1104 9.3882 16.8296 26.4032
652 2 2.2208 10.9233 15.4153 25.0524
648 1 -1.1104 9.53584 14.0374 23.6983
628 1 -1.1104 12.3163 11.2942 26.5572
660 2 2.2208 5.35721 23.8063 5.46772
661 2 2.2208 5.33577 29.4646 5.35277
662 1 -1.1104 1.20832 25.2591 1.20331
663 1 -1.1104 1.20914 25.252 3.85412
664 1 -1.1104 1.27044 22.5757 0.938156
665 1 -1.1104 1.11519 28.035 1.17966
666 2 2.2208 5.19186 26.6318 2.53254
667 1 -1.1104 0.915785 22.4419 3.9361
668 1 -1.1104 1.01975 28.0388 4.00509
669 1 -1.1104 3.90962 25.1776 1.17409
670 2 2.2208 2.41036 23.7974 2.54365
671 2 2.2208 2.44423 29.5012 2.52595
672 1 -1.1104 4.04931 25.1258 4.08076
673 2 2.2208 2.57442 26.5228 5.22994
674 1 -1.1104 3.98479 22.3312 1.16654
675 1 -1.1104 3.88018 28.0578 1.06622
676 1 -1.1104 3.81413 22.4029 4.00686
677 1 -1.1104 3.81123 28.0342 3.95416
678 1 -1.1104 0.992408 30.7701 1.11989
679 1 -1.1104 1.03617 30.8834 3.93677
680 1 -1.1104 0.919318 33.6383 1.07564
681 2 2.2208 5.16212 32.3125 2.4974
682 1 -1.1104 1.05201 33.56 3.8726
684 1 -1.1104 3.85269 30.9578 1.13538
685 1 -1.1104 3.78198 30.7757 3.98895
686 2 2.2208 2.41994 32.2603 5.33627
687 1 -1.1104 3.78862 33.7641 1.2597
688 1 -1.1104 3.81013 33.6022 4.03868
740 1 -1.1104 3.82336 22.4173 6.63603
9642 2 2.2208 -0.43913 29.5153 -0.372751
739 1 -1.1104 3.90323 25.0949 6.71812
733 1 -1.1104 1.13979 25.3301 6.70479
736 1 -1.1104 1.24944 28.0777 6.68391
746 1 -1.1104 3.88335 30.8459 6.78684
9633 2 2.2208 -0.506022 32.3009 2.50109
735 1 -1.1104 1.07787 22.5205 6.84976
821 2 2.2208 -0.135361 23.8097 -0.405538
9636 2 2.2208 -0.231653 29.4152 5.27055
9634 2 2.2208 -0.228126 26.6441 2.5638
9635 2 2.2208 -0.33988 23.8318 5.42944
819 2 2.2208 2.36278 32.3602 -0.274568
956 2 2.2208 5.16025 29.4331 -0.294376
818 2 2.2208 2.56226 26.6832 -0.303649
695 1 -1.1104 6.6495 22.5336 1.20264
697 1 -1.1104 6.57658 22.4502 3.97634
737 1 -1.1104 6.68472 22.2817 6.77741
719 1 -1.1104 6.5833 33.7635 1.18386
718 1 -1.1104 6.69548 30.898 3.78637
683 1 -1.1104 6.59984 33.7811 4.0278
694 1 -1.1104 6.76193 25.4075 3.9572
696 1 -1.1104 6.57304 28.0946 1.01939
717 1 -1.1104 6.73557 30.8948 1.09134
698 1 -1.1104 6.74196 28.0495 3.998
693 1 -1.1104 6.66319 25.2224 1.25886
699 2 2.2208 10.9436 23.8167 5.26803
700 2 2.2208 10.9008 29.3993 5.34345
701 1 -1.1104 12.2186 25.2766 1.03818
702 1 -1.1104 12.4307 25.3406 3.84508
703 1 -1.1104 12.2026 22.4866 1.15733
704 1 -1.1104 12.1682 28.2705 1.10459
705 2 2.2208 10.8456 26.699 2.34666
706 1 -1.1104 12.4113 22.4216 3.8089
707 1 -1.1104 12.4564 27.9795 3.91261
708 1 -1.1104 9.38974 25.1366 0.995192
709 2 2.2208 8.01447 23.9119 2.44073
710 2 2.2208 7.97621 29.4495 2.47115
711 1 -1.1104 9.60439 25.3119 3.90498
712 2 2.2208 8.21669 26.6675 5.28789
713 1 -1.1104 9.49914 22.456 1.19597
714 1 -1.1104 9.42355 27.9793 0.991749
715 1 -1.1104 9.38823 22.5657 3.89924
716 1 -1.1104 9.54828 28.1535 3.8481
720 1 -1.1104 12.2239 31.0451 1.18006
721 1 -1.1104 12.306 30.8811 3.94852
722 1 -1.1104 12.251 33.7589 1.14989
723 2 2.2208 10.7416 32.1382 2.61037
724 1 -1.1104 12.172 33.654 4.14668
725 1 -1.1104 9.35764 30.8283 1.06842
726 1 -1.1104 9.39751 30.8034 4.04443
727 2 2.2208 7.93945 32.1893 5.33547
728 1 -1.1104 9.40411 33.4317 1.20168
729 1 -1.1104 9.45628 33.575 3.89583
786 1 -1.1104 12.2085 25.1621 6.7776
788 1 -1.1104 12.3977 27.9403 6.70634
957 2 2.2208 8.07058 32.1932 -0.234424
822 2 2.2208 10.8663 23.7963 -0.228097
789 1 -1.1104 9.53616 25.2442 6.66747
955 2 2.2208 7.97552 26.682 -0.251394
742 1 -1.1104 1.06234 30.9599 6.87942
747 1 -1.1104 3.77289 33.7711 6.72149
744 1 -1.1104 0.96529 33.7095 6.66011
9632 2 2.2208 -0.324377 26.7303 8.02341
741 1 -1.1104 3.98329 28.0632 6.75606
748 2 2.2208 5.31309 23.8395 10.8343
749 2 2.2208 5.34908 29.4112 10.9885
750 1 -1.1104 1.0265 25.4841 12.3602
752 1 -1.1104 0.95572 25.3459 9.49203
754 1 -1.1104 1.09244 22.5104 12.3252
755 1 -1.1104 1.1499 28.0736 12.278