ITEM: TIMESTEP
400000
ITEM: NUMBER OF ATOMS
18000
ITEM: BOX BOUNDS xy xz yz pp pp pp
-1.4390262688489930e-01 2.8037902626884435e+01 0.0000000000000000e+00
-1.5515753750053918e+00 3.3627957537498253e+02 0.0000000000000000e+00
-1.3247359622174840e-01 2.8026473596222122e+01 0.0000000000000000e+00
ITEM: ATOMS id type q mass x y z
26 2 2.2208 232.038 8.41089 12.4817 -0.0936814
324 1 -1.1104 15.9994 12.5761 5.33736 12.6314
8994 2 2.2208 232.038 0.0114435 7.06016 8.44335
4 1 -1.1104 15.9994 12.7282 22.288 12.6151
323 1 -1.1104 15.9994 9.65118 8.40156 12.4375
322 1 -1.1104 15.9994 6.99013 5.23656 12.522
8982 2 2.2208 232.038 13.8584 -1.66488 2.6589
8 2 2.2208 232.038 5.34901 1.35259 2.53973
9 1 -1.1104 15.9994 12.6657 8.06154 12.6734
10 2 2.2208 232.038 11.1209 1.05212 2.67583
11 1 -1.1104 15.9994 10.1753 22.1976 12.6363
321 1 -1.1104 15.9994 9.52582 5.60795 12.7574
13 2 2.2208 232.038 2.41141 3.91617 2.75855
14 1 -1.1104 15.9994 7.29071 22.1198 12.5186
105 2 2.2208 232.038 11.1943 -1.54578 11.106
9004 2 2.2208 232.038 -0.168084 6.99665 2.78601
17 2 2.2208 232.038 8.33571 3.98341 2.6034
18 2 2.2208 232.038 5.50574 6.75606 2.77746
9086 2 2.2208 232.038 14.0005 6.87591 11.1163
20 2 2.2208 232.038 11.1177 6.85259 2.43051
21 1 -1.1104 15.9994 4.29307 22.3312 12.5172
22 1 -1.1104 15.9994 1.50928 16.6842 12.4412
23 2 2.2208 232.038 2.89266 9.656 2.68125
320 1 -1.1104 15.9994 7.07423 2.47571 12.7639
8993 2 2.2208 232.038 -0.187187 9.92839 5.6319
84 2 2.2208 232.038 0.00547967 18.1167 8.51654
27 2 2.2208 232.038 8.46293 9.6019 2.68183
28 2 2.2208 232.038 5.54981 12.4957 2.71767
8998 2 2.2208 232.038 -0.0272455 1.10685 8.3005
30 2 2.2208 232.038 11.194 12.6266 2.62843
31 1 -1.1104 15.9994 12.5804 13.7961 12.697
32 1 -1.1104 15.9994 13.0341 10.8302 12.4304
33 2 2.2208 232.038 2.71954 15.3434 2.7757
319 1 -1.1104 15.9994 4.13394 8.14946 12.5355
35 1 -1.1104 15.9994 9.81767 13.8397 12.501
36 1 -1.1104 15.9994 7.10647 13.9023 12.4012
37 2 2.2208 232.038 8.41697 15.3092 2.66421
38 2 2.2208 232.038 5.72268 18.2801 2.66476
39 1 -1.1104 15.9994 9.89713 11.13 12.6038
40 2 2.2208 232.038 11.1445 18.2275 2.82977
41 1 -1.1104 15.9994 6.92888 11.0373 12.2803
42 1 -1.1104 15.9994 4.02863 13.9978 12.7904
43 2 2.2208 232.038 2.82883 20.8751 2.74627
318 1 -1.1104 15.9994 1.32819 8.03964 12.4253
45 1 -1.1104 15.9994 1.39496 13.8722 12.5135
46 1 -1.1104 15.9994 4.21597 11.1059 12.5064
47 2 2.2208 232.038 8.37265 21.2174 2.80855
48 2 2.2208 232.038 5.49817 23.6228 2.6235
49 1 -1.1104 15.9994 1.33718 10.9744 12.5627
50 2 2.2208 232.038 11.2241 23.9323 2.51355
51 1 -1.1104 15.9994 1.41495 22.239 12.6248
52 2 2.2208 232.038 2.6859 1.26059 5.53521
9041 2 2.2208 232.038 13.9153 6.86148 5.36735
54 1 -1.1104 15.9994 12.8102 19.3482 12.6466
8981 2 2.2208 232.038 0.0830954 15.3562 11.1752
56 2 2.2208 232.038 8.20809 1.18187 5.55718
9052 2 2.2208 232.038 13.9033 9.61132 8.4271
58 2 2.2208 232.038 5.63143 1.14864 8.41065
94 2 2.2208 232.038 0.0519581 23.7641 8.35787
60 2 2.2208 232.038 11.1329 1.38008 8.24453
61 1 -1.1104 15.9994 12.8047 16.4872 12.5677
62 2 2.2208 232.038 2.75769 6.86787 5.50111
63 2 2.2208 232.038 2.74848 4.04481 8.22402
64 1 -1.1104 15.9994 9.81513 19.5445 12.471
65 2 2.2208 232.038 5.45858 4.05304 5.49909
66 2 2.2208 232.038 8.36617 7.01819 5.65868
67 2 2.2208 232.038 8.39179 4.05261 8.4784
68 2 2.2208 232.038 5.59681 6.83987 8.33624
69 2 2.2208 232.038 10.9587 4.01765 5.58215
70 2 2.2208 232.038 11.2093 6.78905 8.36944
71 1 -1.1104 15.9994 6.98455 19.461 12.6479
72 2 2.2208 232.038 2.8345 12.4188 5.60835
73 2 2.2208 232.038 2.64257 9.76703 8.37877
74 1 -1.1104 15.9994 9.86654 16.7017 12.4679
75 2 2.2208 232.038 5.46503 9.84265 5.39363
76 2 2.2208 232.038 8.33415 12.4489 5.61322
77 2 2.2208 232.038 8.3943 9.63653 8.14885
78 2 2.2208 232.038 5.56082 12.5291 8.37949
79 2 2.2208 232.038 11.253 9.65336 5.51887
80 2 2.2208 232.038 11.1884 12.6017 8.34965
317 1 -1.1104 15.9994 4.06713 5.21276 12.4029
82 2 2.2208 232.038 2.73556 18.0698 5.61309
83 2 2.2208 232.038 2.7329 15.2796 8.46815
673 2 2.2208 232.038 -0.00646637 20.8799 0.0210981
85 2 2.2208 232.038 5.62822 15.2379 5.55616
86 2 2.2208 232.038 8.24428 17.9404 5.67829
87 2 2.2208 232.038 8.43695 15.2183 8.39701
88 2 2.2208 232.038 5.43828 17.9115 8.49537
89 2 2.2208 232.038 11.1903 15.3289 5.57599
90 2 2.2208 232.038 11.1455 18.1994 8.27466
9042 2 2.2208 232.038 13.9172 4.05964 8.31802
92 2 2.2208 232.038 2.82036 23.6853 5.42197
93 2 2.2208 232.038 2.78274 20.9808 8.268
467 1 -1.1104 15.9994 6.81151 8.27296 12.7197
95 2 2.2208 232.038 5.69746 20.8764 5.46752
96 2 2.2208 232.038 8.38773 23.74 5.49515
97 2 2.2208 232.038 8.16727 20.755 8.36644
98 2 2.2208 232.038 5.43581 23.6238 8.33878
99 2 2.2208 232.038 11.1642 20.7731 5.51634
100 2 2.2208 232.038 11.0718 23.3259 8.32793
101 1 -1.1104 15.9994 7.02587 16.6536 12.653
102 2 2.2208 232.038 2.77746 1.23799 11.0817
483 1 -1.1104 15.9994 1.36334 19.5228 12.5781
104 2 2.2208 232.038 8.44414 1.16221 11.1757
8984 2 2.2208 232.038 -0.0442366 3.95724 11.0631
106 1 -1.1104 15.9994 4.12699 19.5557 12.3583
107 2 2.2208 232.038 2.7172 6.80973 11.3313
108 2 2.2208 232.038 5.59268 3.99587 11.1044
109 2 2.2208 232.038 8.24273 6.89396 11.1466
110 2 2.2208 232.038 11.2298 4.0864 11.1309
111 1 -1.1104 15.9994 1.54035 19.5416 9.80353
112 2 2.2208 232.038 2.70704 12.4616 11.2348
113 2 2.2208 232.038 5.46419 9.77483 11.1153
114 2 2.2208 232.038 8.39614 12.3568 11.1421
115 2 2.2208 232.038 11.2297 9.67378 11.1999
116 1 -1.1104 15.9994 4.34689 16.793 12.7193
117 2 2.2208 232.038 2.69184 18.168 11.2226
118 2 2.2208 232.038 5.50095 15.4657 11.2758
119 2 2.2208 232.038 8.50557 17.8317 11.1478
120 2 2.2208 232.038 11.337 15.1453 11.1415
674 2 2.2208 232.038 2.84486 23.7584 -0.0613599
122 2 2.2208 232.038 2.89215 23.6461 11.285
123 2 2.2208 232.038 5.73712 20.8254 11.1832
124 2 2.2208 232.038 8.37003 23.6842 11.2246
125 2 2.2208 232.038 11.1537 20.8507 11.0466
126 1 -1.1104 15.9994 1.32264 -0.296273 1.08156
127 1 -1.1104 15.9994 4.05568 -0.165403 1.38584
128 1 -1.1104 15.9994 1.12683 -0.152865 3.96309
129 1 -1.1104 15.9994 3.77343 -0.347846 4.01958
130 1 -1.1104 15.9994 1.17291 2.54054 1.14362
131 1 -1.1104 15.9994 3.97212 2.74369 1.15655
132 1 -1.1104 15.9994 1.05686 2.47648 4.06528
133 1 -1.1104 15.9994 3.96221 2.58259 4.11125
134 1 -1.1104 15.9994 6.81633 -0.248548 1.37387
135 1 -1.1104 15.9994 9.81821 -0.312745 1.05509
136 1 -1.1104 15.9994 6.90897 -0.034372 4.09251
137 1 -1.1104 15.9994 9.55222 -0.0807021 3.98388
138 1 -1.1104 15.9994 6.7689 2.3777 1.02848
139 1 -1.1104 15.9994 9.60965 2.48835 1.40258
140 1 -1.1104 15.9994 6.76962 2.76981 3.72667
141 1 -1.1104 15.9994 9.60981 2.66958 4.20144
142 1 -1.1104 15.9994 12.7018 -0.329411 1.26621
143 1 -1.1104 15.9994 12.4246 -0.329117 4.1169
144 1 -1.1104 15.9994 12.4856 2.65558 1.27288
145 1 -1.1104 15.9994 12.5888 2.4523 4.0229
146 1 -1.1104 15.9994 1.32452 5.31797 1.38369
147 1 -1.1104 15.9994 3.99163 5.3337 1.46342
148 1 -1.1104 15.9994 1.06391 5.48945 4.14786
149 1 -1.1104 15.9994 3.97935 5.33643 4.15447
150 1 -1.1104 15.9994 1.53501 8.2832 1.28268
151 1 -1.1104 15.9994 4.31904 8.2003 1.33762
152 1 -1.1104 15.9994 1.50378 8.11395 4.02237
153 1 -1.1104 15.9994 4.18487 8.40898 4.02656
154 1 -1.1104 15.9994 6.77713 5.4617 1.39803
155 1 -1.1104 15.9994 9.91756 5.34681 1.19047
156 1 -1.1104 15.9994 6.89329 5.51792 4.30823
157 1 -1.1104 15.9994 9.75423 5.2936 4.00898
158 1 -1.1104 15.9994 6.9602 8.12896 1.43118
159 1 -1.1104 15.9994 9.74351 8.16794 1.16606
160 1 -1.1104 15.9994 7.06934 8.49117 4.21077
161 1 -1.1104 15.9994 9.82112 7.97601 3.93522
162 1 -1.1104 15.9994 12.7306 5.53425 1.19596
163 1 -1.1104 15.9994 12.4051 5.57473 4.10028
164 1 -1.1104 15.9994 12.5789 8.29781 1.27682
165 1 -1.1104 15.9994 12.752 8.45366 4.0687
166 1 -1.1104 15.9994 1.34498 10.9807 1.51287
167 1 -1.1104 15.9994 4.10684 11.0332 1.30496
168 1 -1.1104 15.9994 1.33742 11.0071 4.1919
169 1 -1.1104 15.9994 4.15589 11.1361 4.12649
170 1 -1.1104 15.9994 1.36176 13.9497 1.36821
171 1 -1.1104 15.9994 4.07592 13.9606 1.33915
172 1 -1.1104 15.9994 1.44242 13.6968 4.23133
173 1 -1.1104 15.9994 4.24455 13.7787 4.2111
174 1 -1.1104 15.9994 6.88569 10.9225 1.45394
175 1 -1.1104 15.9994 9.69243 11.2451 1.30519
176 1 -1.1104 15.9994 7.17662 11.1468 4.0985
177 1 -1.1104 15.9994 9.9878 10.8607 3.98004
178 1 -1.1104 15.9994 6.83925 13.8581 1.29015
179 1 -1.1104 15.9994 9.64847 14.0483 1.37145
180 1 -1.1104 15.9994 6.9718 14.0481 4.09272
181 1 -1.1104 15.9994 9.75805 14.014 3.97114
182 1 -1.1104 15.9994 12.4932 11.258 1.16675
183 1 -1.1104 15.9994 12.768 11.2524 3.88686
184 1 -1.1104 15.9994 12.6879 14.0668 1.4271
185 1 -1.1104 15.9994 12.5781 13.9732 4.27788
186 1 -1.1104 15.9994 1.2942 16.7619 1.41584
187 1 -1.1104 15.9994 4.17429 16.4746 1.27668
188 1 -1.1104 15.9994 1.50457 16.4403 4.30593
189 1 -1.1104 15.9994 4.22349 16.691 3.98567
190 1 -1.1104 15.9994 1.30648 19.7203 1.43206
191 1 -1.1104 15.9994 4.55024 19.5351 1.17989
192 1 -1.1104 15.9994 1.40664 19.5764 4.158
193 1 -1.1104 15.9994 4.17132 19.4507 4.24035
194 1 -1.1104 15.9994 7.12152 16.753 1.35375
195 1 -1.1104 15.9994 9.73196 16.7651 1.42893
196 1 -1.1104 15.9994 6.97508 16.6722 4.1873
197 1 -1.1104 15.9994 9.6347 16.8211 4.19039
198 1 -1.1104 15.9994 7.29388 19.666 1.24997
199 1 -1.1104 15.9994 9.94148 19.5247 1.32712
200 1 -1.1104 15.9994 7.03716 19.5128 4.07492
201 1 -1.1104 15.9994 9.74492 19.711 4.13978
202 1 -1.1104 15.9994 12.6239 16.8533 1.47502
203 1 -1.1104 15.9994 12.6319 16.8004 4.19825
204 1 -1.1104 15.9994 12.4289 19.6588 1.26993
205 1 -1.1104 15.9994 12.6611 19.6413 3.98794
206 1 -1.1104 15.9994 1.41161 22.4482 1.61438
207 1 -1.1104 15.9994 4.09714 22.2124 1.41386
208 1 -1.1104 15.9994 1.02648 22.4275 4.52728
209 1 -1.1104 15.9994 4.30728 22.2383 4.0467
210 1 -1.1104 15.9994 6.88317 22.3582 1.3394
211 1 -1.1104 15.9994 9.70676 22.6554 1.40602
212 1 -1.1104 15.9994 6.87369 22.4816 4.15032
213 1 -1.1104 15.9994 10.0318 22.3195 4.31413
214 1 -1.1104 15.9994 12.6934 22.4053 1.2151
215 1 -1.1104 15.9994 12.7761 22.4773 3.93964
216 1 -1.1104 15.9994 1.29767 -0.216547 6.8775
217 1 -1.1104 15.9994 4.00746 -0.161781 6.87517
9031 2 2.2208 232.038 13.9625 1.1392 5.42043
219 1 -1.1104 15.9994 4.18234 -0.264232 9.61778
220 1 -1.1104 15.9994 1.36149 2.59375 6.96328
221 1 -1.1104 15.9994 4.01964 2.71047 7.00406
222 1 -1.1104 15.9994 1.27087 -0.204574 9.72903
223 1 -1.1104 15.9994 4.24811 2.39991 9.73845
224 1 -1.1104 15.9994 6.85992 -0.327777 6.86896
225 1 -1.1104 15.9994 9.57168 -0.391476 6.98927
226 1 -1.1104 15.9994 7.09333 -0.209175 9.6673
227 1 -1.1104 15.9994 9.77944 -0.115388 9.51631
228 1 -1.1104 15.9994 6.77297 2.42944 6.89285
229 1 -1.1104 15.9994 9.64391 2.60698 6.93931
230 1 -1.1104 15.9994 7.06468 2.62391 9.789
231 1 -1.1104 15.9994 9.74457 2.57107 9.72488
232 1 -1.1104 15.9994 12.489 -0.0660548 6.76465
233 1 -1.1104 15.9994 12.7355 -0.243965 9.65969
234 1 -1.1104 15.9994 12.455 2.64809 6.99551
235 1 -1.1104 15.9994 12.6304 2.63696 9.80359
236 1 -1.1104 15.9994 1.51268 5.59399 6.95443
237 1 -1.1104 15.9994 4.36344 5.54294 6.95194
238 1 -1.1104 15.9994 1.3656 2.59148 9.66283
239 1 -1.1104 15.9994 4.31871 5.25851 9.64502
240 1 -1.1104 15.9994 1.14506 8.41812 7.09357
241 1 -1.1104 15.9994 4.16359 8.2898 6.98724
242 1 -1.1104 15.9994 1.37821 5.43289 9.93559
243 1 -1.1104 15.9994 4.08742 8.1828 9.77299
244 1 -1.1104 15.9994 7.10815 5.39255 7.05765
245 1 -1.1104 15.9994 9.92941 5.64215 7.07647
246 1 -1.1104 15.9994 6.93301 5.53774 9.75393
247 1 -1.1104 15.9994 9.73761 5.53252 9.73564
248 1 -1.1104 15.9994 6.85874 8.1172 7.06283
249 1 -1.1104 15.9994 9.69758 8.39384 6.66449
250 1 -1.1104 15.9994 6.87062 8.30647 9.69266
251 1 -1.1104 15.9994 9.7727 8.22359 9.5572
252 1 -1.1104 15.9994 12.8025 5.43516 6.83378
253 1 -1.1104 15.9994 12.5995 5.53601 9.81807
254 1 -1.1104 15.9994 12.5237 8.2371 6.88962
255 1 -1.1104 15.9994 12.4565 8.37376 9.85836
256 1 -1.1104 15.9994 1.11823 11.0495 6.95106
257 1 -1.1104 15.9994 4.0504 11.0577 7.08045
258 1 -1.1104 15.9994 1.3341 8.19308 9.74472
259 1 -1.1104 15.9994 4.15087 11.0933 9.6923
260 1 -1.1104 15.9994 1.30105 13.7216 6.99397
261 1 -1.1104 15.9994 4.30933 13.9336 6.94948
262 1 -1.1104 15.9994 1.16941 11.1736 9.7969
263 1 -1.1104 15.9994 4.35663 13.9507 9.94101
264 1 -1.1104 15.9994 6.88415 11.0566 6.87861
265 1 -1.1104 15.9994 9.78441 11.068 6.83944
266 1 -1.1104 15.9994 7.03459 10.8802 9.55281
267 1 -1.1104 15.9994 9.81902 10.8843 9.67281
268 1 -1.1104 15.9994 6.92267 13.8817 6.85875
269 1 -1.1104 15.9994 9.81722 13.7762 6.86075
270 1 -1.1104 15.9994 6.9854 13.898 9.51292
271 1 -1.1104 15.9994 9.72689 13.791 9.70161
272 1 -1.1104 15.9994 12.6755 11.182 6.838
273 1 -1.1104 15.9994 12.5639 11.0766 9.74941
274 1 -1.1104 15.9994 12.6572 14.0093 7.10027
275 1 -1.1104 15.9994 12.7874 13.951 9.91176
276 1 -1.1104 15.9994 1.41328 16.8742 6.94257
277 1 -1.1104 15.9994 4.11882 16.6583 6.85962
278 1 -1.1104 15.9994 1.366 13.9009 9.84408
279 1 -1.1104 15.9994 4.14959 16.5717 9.9327
280 1 -1.1104 15.9994 1.37215 19.7889 7.12233
281 1 -1.1104 15.9994 4.16036 19.6048 6.92843
282 1 -1.1104 15.9994 1.44122 16.7636 9.81244
283 1 -1.1104 15.9994 4.26859 19.4255 9.58974
284 1 -1.1104 15.9994 6.90081 16.6033 7.03698
285 1 -1.1104 15.9994 9.69759 16.7098 7.01644
286 1 -1.1104 15.9994 7.12696 16.6656 9.74913
287 1 -1.1104 15.9994 9.99098 16.5144 9.72712
288 1 -1.1104 15.9994 6.97187 19.3018 7.02378
289 1 -1.1104 15.9994 9.8881 19.4394 6.88913
290 1 -1.1104 15.9994 7.07675 19.4142 9.84149
291 1 -1.1104 15.9994 9.66997 19.3994 9.64261
292 1 -1.1104 15.9994 12.46 16.5571 7.05874
293 1 -1.1104 15.9994 12.6751 16.5693 9.85655
294 1 -1.1104 15.9994 12.5424 19.5221 6.90977
295 1 -1.1104 15.9994 12.6962 19.4328 9.77835
296 1 -1.1104 15.9994 1.45405 22.2243 7.25044
297 1 -1.1104 15.9994 4.26414 22.2259 6.81294
298 1 -1.1104 15.9994 1.46088 22.4757 9.91726
299 1 -1.1104 15.9994 4.24768 22.2019 9.65049
300 1 -1.1104 15.9994 6.93539 22.1383 7.03762
301 1 -1.1104 15.9994 9.73664 22.1524 7.0631
302 1 -1.1104 15.9994 7.04856 22.0732 9.83279
303 1 -1.1104 15.9994 9.71126 22.2056 9.8103
304 1 -1.1104 15.9994 12.675 22.4053 6.94762
305 1 -1.1104 15.9994 12.4372 22.2726 9.87412
306 1 -1.1104 15.9994 1.34529 -0.379291 12.4116
307 1 -1.1104 15.9994 4.07039 -0.336149 12.4337
308 1 -1.1104 15.9994 1.26655 2.50452 12.503
309 1 -1.1104 15.9994 4.09531 2.50788 12.4843
316 1 -1.1104 15.9994 1.41184 5.35316 12.7417
311 1 -1.1104 15.9994 9.72686 -0.311927 12.4364
312 1 -1.1104 15.9994 6.86379 -0.418435 12.3681
313 1 -1.1104 15.9994 9.74347 2.76553 12.4176
314 1 -1.1104 15.9994 12.5395 -0.147319 12.4609
315 1 -1.1104 15.9994 12.5388 2.6942 12.5816
34 2 2.2208 232.038 -0.0703983 18.0858 2.75758
91 2 2.2208 232.038 0.0127589 20.982 5.71748
669 2 2.2208 232.038 2.90053 18.23 -0.0664952
8992 2 2.2208 232.038 13.8014 4.01488 2.76682
81 2 2.2208 232.038 -0.0874052 15.3238 5.54027
9688 2 2.2208 232.038 -0.0170819 9.7589 -0.0423916
121 2 2.2208 232.038 0.0876441 20.9594 11.0703
9690 2 2.2208 232.038 -0.117744 4.07707 0.016545
666 2 2.2208 232.038 2.75413 12.3952 -0.069533
660 2 2.2208 232.038 5.58685 -1.50167 0.0234813
663 2 2.2208 232.038 2.80168 6.73168 -0.132217
328 2 2.2208 232.038 8.25082 -1.56589 13.7836
9677 2 2.2208 232.038 13.8385 1.2256 -0.0597028
329 2 2.2208 232.038 5.4639 1.20413 13.917
671 2 2.2208 232.038 8.46394 18.292 -0.171156
667 2 2.2208 232.038 13.8942 18.1971 0.00861708
9319 2 2.2208 232.038 13.9192 3.83358 14.0073
348 2 2.2208 232.038 8.48721 20.8132 13.8693
338 2 2.2208 232.038 8.36959 9.64109 13.8775
670 2 2.2208 232.038 5.76274 15.3131 0.0750108
25 2 2.2208 232.038 5.63774 9.69189 -0.0826756
9662 2 2.2208 232.038 0.0242807 6.83799 13.8095
330 2 2.2208 232.038 11.1773 1.39304 14.0061
325 2 2.2208 232.038 5.46128 4.08556 -0.242845
672 2 2.2208 232.038 11.239 15.2626 -0.00110398
343 2 2.2208 232.038 8.34029 15.2051 13.946
9675 2 2.2208 232.038 -0.0118846 9.6462 22.4106
327 1 -1.1104 15.9994 6.95582 22.3069 26.5013
334 2 2.2208 232.038 5.45826 6.64599 13.8493
9669 2 2.2208 232.038 0.0456301 9.77174 16.7564
9700 2 2.2208 232.038 0.146885 12.6161 19.6882
9390 2 2.2208 232.038 13.9751 -1.45038 25.1995
332 1 -1.1104 15.9994 9.75374 22.0654 23.7049
9673 2 2.2208 232.038 -0.112579 3.98332 22.2535
405 2 2.2208 232.038 5.50205 -1.51366 22.3779
409 2 2.2208 232.038 11.2488 -1.4784 22.5396
9339 2 2.2208 232.038 13.9162 1.15445 16.7789
337 1 -1.1104 15.9994 7.16145 22.3809 23.7019
9350 2 2.2208 232.038 13.9592 3.94752 19.4342
431 2 2.2208 232.038 0.134046 15.4832 22.5267
9668 2 2.2208 232.038 -0.21004 6.83557 19.4774
9672 2 2.2208 232.038 0.0373529 1.32527 25.1688
342 1 -1.1104 15.9994 4.28901 22.1972 26.7476
374 2 2.2208 232.038 11.2178 21.0309 28.0289
664 2 2.2208 232.038 -0.00861631 15.3323 16.6894
407 2 2.2208 232.038 8.28326 -1.59674 25.1449
677 1 -1.1104 15.9994 9.84603 13.9295 26.6672
434 2 2.2208 232.038 0.0180095 18.1591 25.3721
384 2 2.2208 232.038 0.0322769 18.0732 19.6304
357 2 2.2208 232.038 8.3763 -1.60576 19.7115
341 2 2.2208 232.038 2.78641 15.3545 13.9725
351 1 -1.1104 15.9994 1.37633 22.2763 26.7212
352 2 2.2208 232.038 2.64601 1.14012 16.7097
9676 2 2.2208 232.038 -0.128728 12.5201 25.3544
354 1 -1.1104 15.9994 4.25294 22.367 23.8338
650 1 -1.1104 15.9994 1.39503 19.5131 23.8727
356 2 2.2208 232.038 8.31201 1.08868 16.6823
644 1 -1.1104 15.9994 12.5063 13.7556 23.8098
358 2 2.2208 232.038 5.43889 1.10214 19.5067
649 1 -1.1104 15.9994 4.40944 16.627 26.5887
360 2 2.2208 232.038 11.1472 1.257 19.4722
361 1 -1.1104 15.9994 0.997727 22.2175 24.0013
362 2 2.2208 232.038 2.75397 6.8127 16.6652
363 2 2.2208 232.038 2.46763 3.87742 19.5745
364 1 -1.1104 15.9994 12.6833 19.4806 26.7515
365 2 2.2208 232.038 5.48371 3.86682 16.7449
366 2 2.2208 232.038 8.4005 6.81395 16.7366
367 2 2.2208 232.038 8.27885 3.83045 19.4444
368 2 2.2208 232.038 5.66612 6.68785 19.5072
369 2 2.2208 232.038 11.1217 3.99869 16.6675
370 2 2.2208 232.038 11.2833 6.86735 19.5958
371 1 -1.1104 15.9994 12.4695 19.6758 24.0078
372 2 2.2208 232.038 2.84807 12.4548 16.6908
373 2 2.2208 232.038 2.74363 9.68174 19.5693
345 2 2.2208 232.038 11.1704 18.144 14.0726
375 2 2.2208 232.038 5.65681 9.54476 16.7666
376 2 2.2208 232.038 8.34362 12.2712 16.6664
377 2 2.2208 232.038 8.43028 9.51712 19.4564
378 2 2.2208 232.038 5.55993 12.4529 19.5833
379 2 2.2208 232.038 11.2648 9.59683 16.7302
380 2 2.2208 232.038 11.4105 12.5693 19.5183
381 1 -1.1104 15.9994 12.6888 16.5596 26.7724
382 2 2.2208 232.038 2.76752 18.0812 16.7815
383 2 2.2208 232.038 2.74476 15.6255 19.7302
648 1 -1.1104 15.9994 1.57272 16.6089 26.7841
385 2 2.2208 232.038 5.5693 15.3446 16.852
386 2 2.2208 232.038 8.56509 18.2346 16.8323
387 2 2.2208 232.038 8.51607 15.289 19.5111
388 2 2.2208 232.038 5.69038 18.1384 19.5368
389 2 2.2208 232.038 11.3756 15.259 16.8686
390 2 2.2208 232.038 11.3465 18.0835 19.4765
391 1 -1.1104 15.9994 12.6663 22.4006 26.5732
392 2 2.2208 232.038 2.72292 23.7564 16.9615
393 2 2.2208 232.038 2.91119 20.7918 19.5063
9674 2 2.2208 232.038 -0.071828 6.86967 25.1001
395 2 2.2208 232.038 5.80041 20.7984 16.8536
396 2 2.2208 232.038 8.33949 23.6593 16.9167
397 2 2.2208 232.038 8.52524 21.0001 19.5253
398 2 2.2208 232.038 5.55373 23.7072 19.6261
399 2 2.2208 232.038 11.2294 21.0673 16.672
400 2 2.2208 232.038 11.2166 23.7906 19.5238
401 1 -1.1104 15.9994 12.8658 16.6608 24.0108
402 2 2.2208 232.038 2.65112 1.2747 22.3469
647 1 -1.1104 15.9994 4.13591 16.9797 23.8964
404 1 -1.1104 15.9994 9.93885 19.589 26.6244
646 1 -1.1104 15.9994 1.57934 16.7818 23.8285
406 2 2.2208 232.038 8.29841 1.25767 22.4055
651 1 -1.1104 15.9994 4.36727 19.6303 23.7262
408 2 2.2208 232.038 5.53756 1.18579 25.2465
654 1 -1.1104 15.9994 7.04376 16.6244 23.9247
410 2 2.2208 232.038 11.0818 1.34901 25.3659
411 1 -1.1104 15.9994 7.16156 19.5693 26.6563
412 2 2.2208 232.038 2.50093 6.89019 22.1171
413 2 2.2208 232.038 2.61655 4.14541 25.2724
414 1 -1.1104 15.9994 9.80451 19.4413 23.8815
415 2 2.2208 232.038 5.49403 4.00724 22.4583
416 2 2.2208 232.038 8.36737 6.91251 22.2684
417 2 2.2208 232.038 8.23698 4.23294 25.1199
418 2 2.2208 232.038 5.45511 6.91327 25.3392
419 2 2.2208 232.038 11.1327 3.95946 22.4176
420 2 2.2208 232.038 11.1699 6.99932 25.1604
421 1 -1.1104 15.9994 6.98881 19.6279 23.8235
422 2 2.2208 232.038 2.93752 12.5578 22.4602
423 2 2.2208 232.038 2.68658 9.70648 25.2085
424 1 -1.1104 15.9994 9.90599 16.6928 26.73
425 2 2.2208 232.038 5.57701 9.61285 22.2784
426 2 2.2208 232.038 8.54599 12.3687 22.2632
427 2 2.2208 232.038 8.35303 9.46025 25.1954
428 2 2.2208 232.038 5.60814 12.4165 25.2584
429 2 2.2208 232.038 11.216 9.79064 22.3447
430 2 2.2208 232.038 11.2502 12.4308 25.1392
652 1 -1.1104 15.9994 1.57291 19.5859 26.7197
432 2 2.2208 232.038 2.88897 18.4244 22.48
433 2 2.2208 232.038 2.84654 15.3456 25.2835
653 1 -1.1104 15.9994 4.36446 19.3905 26.5125
435 2 2.2208 232.038 5.66217 15.2304 22.578
436 2 2.2208 232.038 8.2447 18.1762 22.5142
437 2 2.2208 232.038 8.43466 15.3059 25.2939
438 2 2.2208 232.038 5.79022 18.1059 25.2837
439 2 2.2208 232.038 11.1334 15.2718 22.4227
440 2 2.2208 232.038 11.2452 18.0618 25.3014
656 1 -1.1104 15.9994 7.14681 16.6198 26.6411
442 1 -1.1104 15.9994 12.4498 22.4363 23.7217
443 2 2.2208 232.038 2.7767 21.1081 25.2232
655 1 -1.1104 15.9994 9.84897 16.6209 23.8768
445 2 2.2208 232.038 5.73853 21.1254 22.3617
446 2 2.2208 232.038 8.5015 23.7262 22.1338
447 2 2.2208 232.038 8.40653 20.9479 25.1876
448 2 2.2208 232.038 5.68653 23.8529 24.9283
449 2 2.2208 232.038 11.2029 20.7991 22.3531
450 2 2.2208 232.038 11.2027 23.776 25.1143
451 1 -1.1104 15.9994 1.23253 -0.445804 15.1681
452 1 -1.1104 15.9994 3.98422 -0.193635 15.3117
453 1 -1.1104 15.9994 1.41127 2.67853 15.3771
454 1 -1.1104 15.9994 4.25139 2.42115 15.3033
455 1 -1.1104 15.9994 7.00204 -0.235889 15.3602
456 1 -1.1104 15.9994 9.86973 -0.175554 15.2665
457 1 -1.1104 15.9994 6.92387 2.3839 15.3792
458 1 -1.1104 15.9994 9.82954 2.7128 15.2399
459 1 -1.1104 15.9994 12.4913 -0.361744 15.3539
460 1 -1.1104 15.9994 12.6004 2.54855 15.3587
461 1 -1.1104 15.9994 1.30537 5.19578 15.3871
462 1 -1.1104 15.9994 4.10514 5.16126 15.3887
463 1 -1.1104 15.9994 1.53736 8.14384 15.1901
464 1 -1.1104 15.9994 4.22644 8.21323 15.369
465 1 -1.1104 15.9994 6.96394 5.44006 15.355
466 1 -1.1104 15.9994 9.75052 5.42748 15.5062
643 1 -1.1104 15.9994 12.6684 11.0641 26.646
468 1 -1.1104 15.9994 9.84827 8.19397 15.3752
469 1 -1.1104 15.9994 12.4949 5.34618 15.4231
470 1 -1.1104 15.9994 12.6893 7.98733 15.4363
471 1 -1.1104 15.9994 1.69104 11.0352 15.262
472 1 -1.1104 15.9994 4.35935 10.9127 15.3
473 1 -1.1104 15.9994 1.41924 13.9404 15.2539
474 1 -1.1104 15.9994 4.21935 13.822 15.4079
475 1 -1.1104 15.9994 6.95489 8.13991 15.4971
476 1 -1.1104 15.9994 9.70578 10.9504 15.2404
477 1 -1.1104 15.9994 7.02695 11.0715 15.1674
478 1 -1.1104 15.9994 9.80279 13.8227 15.4535
479 1 -1.1104 15.9994 12.7207 10.8592 15.2634
480 1 -1.1104 15.9994 12.6895 13.824 15.424
481 1 -1.1104 15.9994 1.37775 16.6737 15.4865
482 1 -1.1104 15.9994 4.19312 16.6762 15.3584
645 1 -1.1104 15.9994 12.5614 13.7671 26.6638
484 1 -1.1104 15.9994 1.56916 19.3871 15.3177
485 1 -1.1104 15.9994 6.90615 13.9241 15.3063
486 1 -1.1104 15.9994 9.72575 16.6475 15.4037
487 1 -1.1104 15.9994 7.09219 16.7271 15.377
488 1 -1.1104 15.9994 9.76142 19.5969 15.3434
489 1 -1.1104 15.9994 12.6217 16.6533 15.5241
490 1 -1.1104 15.9994 12.3296 19.4729 15.4129
491 1 -1.1104 15.9994 3.81536 22.32 15.3613
492 1 -1.1104 15.9994 4.4993 19.5672 15.1218
493 1 -1.1104 15.9994 6.9753 22.3224 15.5149
494 1 -1.1104 15.9994 9.61421 22.2369 15.3046
495 1 -1.1104 15.9994 12.58 22.3584 15.3424
496 1 -1.1104 15.9994 1.08448 -0.288054 17.9546
497 1 -1.1104 15.9994 4.01124 -0.353002 18.1623
498 1 -1.1104 15.9994 1.19667 -0.167128 21.0508
499 1 -1.1104 15.9994 4.28532 -0.33419 20.9006
500 1 -1.1104 15.9994 1.15102 2.53571 18.2034
501 1 -1.1104 15.9994 4.01651 2.49874 18.0537
502 1 -1.1104 15.9994 1.2395 2.71499 20.8904
503 1 -1.1104 15.9994 3.95379 2.62934 20.9686
504 1 -1.1104 15.9994 6.95476 -0.281161 18.2001
505 1 -1.1104 15.9994 9.72095 -0.279268 18.1556
506 1 -1.1104 15.9994 6.97711 -0.157866 20.9246
507 1 -1.1104 15.9994 9.77966 -0.174494 21.0556
508 1 -1.1104 15.9994 6.78961 2.35343 18.1352
509 1 -1.1104 15.9994 9.81635 2.39822 18.009
510 1 -1.1104 15.9994 6.87414 2.52243 20.8907
511 1 -1.1104 15.9994 9.72031 2.51344 20.9654
512 1 -1.1104 15.9994 12.3565 -0.205985 18.1195
513 1 -1.1104 15.9994 12.5119 -0.169302 21.0973
514 1 -1.1104 15.9994 12.5653 2.63455 18.0748
515 1 -1.1104 15.9994 12.5481 2.47934 20.8132
516 1 -1.1104 15.9994 1.31126 5.33459 18.05
517 1 -1.1104 15.9994 4.19233 5.24981 18.2031
518 1 -1.1104 15.9994 1.05715 5.4786 20.8957
519 1 -1.1104 15.9994 4.01015 5.49741 20.9658
520 1 -1.1104 15.9994 1.3666 8.20595 17.9888
521 1 -1.1104 15.9994 4.32833 8.10407 18.2221
522 1 -1.1104 15.9994 1.31688 8.28975 20.8543
523 1 -1.1104 15.9994 4.13773 8.19889 20.9859
524 1 -1.1104 15.9994 6.89104 5.25355 18.0282
525 1 -1.1104 15.9994 9.87341 5.47241 18.2059
526 1 -1.1104 15.9994 6.82243 5.21582 20.8737
527 1 -1.1104 15.9994 9.72041 5.3612 20.9965
528 1 -1.1104 15.9994 7.19568 8.14389 18.3368
529 1 -1.1104 15.9994 9.83712 8.18907 18.1129
530 1 -1.1104 15.9994 6.92575 8.00862 20.928
531 1 -1.1104 15.9994 9.84268 8.23018 20.9486
532 1 -1.1104 15.9994 12.6408 5.48228 18.0082
533 1 -1.1104 15.9994 12.7312 5.33923 21.0214
534 1 -1.1104 15.9994 12.668 8.08078 18.3437
535 1 -1.1104 15.9994 12.5863 8.22688 21.151
536 1 -1.1104 15.9994 1.59609 10.942 17.8637
537 1 -1.1104 15.9994 4.24079 11.0825 18.2851
538 1 -1.1104 15.9994 1.58522 11.2088 20.8238
539 1 -1.1104 15.9994 4.26201 11.0387 20.9149
540 1 -1.1104 15.9994 1.48103 13.7449 17.9335
541 1 -1.1104 15.9994 4.11826 14.0806 18.2243
542 1 -1.1104 15.9994 1.42383 14.1952 21.0343
543 1 -1.1104 15.9994 4.13485 13.8912 21.1078
544 1 -1.1104 15.9994 7.0453 10.9245 18.0273
545 1 -1.1104 15.9994 9.92662 11.0008 18.0245
546 1 -1.1104 15.9994 7.16052 10.7648 20.8315
547 1 -1.1104 15.9994 9.92718 11.0843 20.9574
548 1 -1.1104 15.9994 7.06666 13.7087 18.1644
549 1 -1.1104 15.9994 9.9965 13.9088 18.3318
550 1 -1.1104 15.9994 7.1737 13.729 20.7255
551 1 -1.1104 15.9994 9.96079 13.956 20.9415
552 1 -1.1104 15.9994 12.6594 10.9136 18.2545
553 1 -1.1104 15.9994 12.6649 11.0297 21.0906
554 1 -1.1104 15.9994 12.9668 13.8114 18.1422
555 1 -1.1104 15.9994 12.7032 13.9135 21.0749
556 1 -1.1104 15.9994 1.30177 16.5293 18.3867
557 1 -1.1104 15.9994 4.26933 16.8378 18.0522
558 1 -1.1104 15.9994 1.61862 17.0642 21.1231
559 1 -1.1104 15.9994 4.40898 16.6345 21.0364
560 1 -1.1104 15.9994 4.27213 19.5512 18.0402
561 1 -1.1104 15.9994 7.0885 19.4744 15.3057
562 1 -1.1104 15.9994 1.67267 19.0968 18.5083
563 1 -1.1104 15.9994 4.09917 19.2651 20.6989
564 1 -1.1104 15.9994 7.13293 16.8273 18.2206
565 1 -1.1104 15.9994 9.94557 16.7086 18.2114
566 1 -1.1104 15.9994 7.13748 16.6745 21.0472
567 1 -1.1104 15.9994 9.80991 16.6342 21.211
568 1 -1.1104 15.9994 7.15621 19.5552 18.2219
569 1 -1.1104 15.9994 9.98617 19.6972 18.0331
570 1 -1.1104 15.9994 7.06897 19.7311 20.9311
571 1 -1.1104 15.9994 10.0933 19.3862 20.7978
572 1 -1.1104 15.9994 12.7091 16.5291 18.4721
573 1 -1.1104 15.9994 12.8952 16.712 21.1952
574 1 -1.1104 15.9994 12.7026 19.4589 18.1586
575 1 -1.1104 15.9994 12.7336 19.6228 21.2175
576 1 -1.1104 15.9994 1.51379 22.3799 18.6026
577 1 -1.1104 15.9994 4.23476 22.3756 18.0348
578 1 -1.1104 15.9994 1.34119 20.0841 21.1089
579 1 -1.1104 15.9994 4.52171 21.9626 20.6372
580 1 -1.1104 15.9994 6.9977 22.3177 18.2144
581 1 -1.1104 15.9994 9.77769 22.3127 18.1234
582 1 -1.1104 15.9994 7.20043 22.5464 20.8679
583 1 -1.1104 15.9994 9.97388 22.188 20.9296
584 1 -1.1104 15.9994 12.6494 22.4646 18.2805
585 1 -1.1104 15.9994 12.6275 22.2405 20.9865
586 1 -1.1104 15.9994 1.28494 -0.0870699 23.7242
587 1 -1.1104 15.9994 4.08136 -0.289442 23.7337
588 1 -1.1104 15.9994 1.35125 -0.178345 26.3587
589 1 -1.1104 15.9994 4.19773 -0.3136 26.6456
590 1 -1.1104 15.9994 1.1531 2.80102 23.8082
591 1 -1.1104 15.9994 4.10031 2.39247 23.7861
592 1 -1.1104 15.9994 1.37622 2.58256 26.4238
593 1 -1.1104 15.9994 4.13934 2.54025 26.6284
594 1 -1.1104 15.9994 6.92428 -0.0998486 23.6557
595 1 -1.1104 15.9994 9.65805 -0.141456 23.7355
596 1 -1.1104 15.9994 6.81271 -0.285547 26.5154
597 1 -1.1104 15.9994 9.57771 -0.106041 26.6416
598 1 -1.1104 15.9994 6.88722 2.64673 23.7874
599 1 -1.1104 15.9994 9.59015 2.74731 23.854
600 1 -1.1104 15.9994 7.01332 2.8707 26.5315
601 1 -1.1104 15.9994 10.0007 2.92392 26.59
602 1 -1.1104 15.9994 12.5055 -0.192395 23.9613
603 1 -1.1104 15.9994 12.1792 0.0395509 26.8472
604 1 -1.1104 15.9994 12.4765 2.6529 23.7627
605 1 -1.1104 15.9994 12.745 2.68133 26.5721
606 1 -1.1104 15.9994 1.40559 5.60192 23.7473
607 1 -1.1104 15.9994 4.05365 5.35931 23.7363
608 1 -1.1104 15.9994 1.18909 5.44002 26.6975
609 1 -1.1104 15.9994 4.0815 5.40171 26.6598
610 1 -1.1104 15.9994 1.32607 8.32883 23.6212
611 1 -1.1104 15.9994 3.99047 8.29295 23.7867
612 1 -1.1104 15.9994 1.41325 8.29966 26.5172
613 1 -1.1104 15.9994 4.09495 8.19364 26.6331
614 1 -1.1104 15.9994 6.93437 5.43165 23.6901
615 1 -1.1104 15.9994 9.66454 5.49908 23.8878
616 1 -1.1104 15.9994 6.83256 5.43974 26.683
617 1 -1.1104 15.9994 9.67255 5.48601 26.6395
618 1 -1.1104 15.9994 6.78479 8.26721 23.8789
619 1 -1.1104 15.9994 9.67842 8.38267 23.8151
620 1 -1.1104 15.9994 7.00187 8.09938 26.7065
621 1 -1.1104 15.9994 9.92284 8.23067 26.6433
622 1 -1.1104 15.9994 12.4567 5.48646 23.8508
623 1 -1.1104 15.9994 12.6287 5.54904 26.6933
624 1 -1.1104 15.9994 12.5944 8.26739 23.7613
625 1 -1.1104 15.9994 12.7553 8.20832 26.6442
626 1 -1.1104 15.9994 1.27321 11.1699 23.7876
627 1 -1.1104 15.9994 4.19635 11.0131 23.7121
628 1 -1.1104 15.9994 1.31082 11.0154 26.5621
629 1 -1.1104 15.9994 4.36924 10.9464 26.5748
630 1 -1.1104 15.9994 1.40219 13.9512 23.8939
631 1 -1.1104 15.9994 4.4608 13.7896 23.7523
632 1 -1.1104 15.9994 1.2332 13.7496 26.655
633 1 -1.1104 15.9994 3.904 13.6396 26.4845
634 1 -1.1104 15.9994 7.05867 10.9758 23.6197