ITEM: TIMESTEP
10000
ITEM: NUMBER OF ATOMS
18000
ITEM: BOX BOUNDS xy xz yz pp pp pp
-1.5245733813448420e-01 2.8046457338135074e+01 0.0000000000000000e+00
-1.5764531185936272e+00 3.3630445311859449e+02 0.0000000000000000e+00
-1.3621274170369249e-01 2.8030212741703703e+01 0.0000000000000000e+00
ITEM: ATOMS id type q mass x y z
91 2 2.2208 232.038 -0.202654 21.0715 5.55251
324 1 -1.1104 15.9994 12.7257 5.30052 12.588
7 2 2.2208 232.038 8.50963 -1.67427 2.65202
4 1 -1.1104 15.9994 12.5183 22.5023 12.5829
323 1 -1.1104 15.9994 9.79127 8.2933 12.6613
322 1 -1.1104 15.9994 7.06334 8.25161 12.6908
666 2 2.2208 232.038 2.70633 12.4576 -0.082829
8 2 2.2208 232.038 5.68379 1.35317 2.6685
9 1 -1.1104 15.9994 12.7321 8.20893 12.4709
10 2 2.2208 232.038 11.1503 1.39146 2.58417
11 1 -1.1104 15.9994 9.78304 22.4804 12.3772
321 1 -1.1104 15.9994 9.72951 5.49606 12.4643
13 2 2.2208 232.038 2.81851 4.16818 2.7568
14 1 -1.1104 15.9994 6.88011 22.6451 12.3655
24 2 2.2208 232.038 -0.0701417 12.5822 2.76324
53 2 2.2208 232.038 2.85356 -1.432 8.3513
17 2 2.2208 232.038 8.48879 4.20551 2.73504
18 2 2.2208 232.038 5.60024 6.74194 2.68563
9004 2 2.2208 232.038 -0.0862847 6.99382 2.74968
20 2 2.2208 232.038 11.228 7.17243 2.63143
21 1 -1.1104 15.9994 4.15186 22.5459 12.5125
22 1 -1.1104 15.9994 1.06577 16.569 12.7367
23 2 2.2208 232.038 2.66683 9.83528 2.83629
320 1 -1.1104 15.9994 7.00116 5.4058 12.6343
2 2 2.2208 232.038 13.9619 20.8002 8.44322
9002 2 2.2208 232.038 13.7985 9.82196 2.73162
27 2 2.2208 232.038 8.18525 9.73446 2.70289
28 2 2.2208 232.038 5.54962 12.5146 2.54264
55 2 2.2208 232.038 5.59457 -1.37465 5.45273
30 2 2.2208 232.038 11.1454 12.7333 2.75234
31 1 -1.1104 15.9994 12.4176 13.8483 12.6064
32 1 -1.1104 15.9994 12.6564 11.1422 12.5971
33 2 2.2208 232.038 2.81362 15.1984 2.58826
319 1 -1.1104 15.9994 4.30812 8.36615 12.5922
35 1 -1.1104 15.9994 9.69448 14.0403 12.6322
36 1 -1.1104 15.9994 6.98556 13.9103 12.5121
37 2 2.2208 232.038 8.386 15.4127 2.77278
38 2 2.2208 232.038 5.32373 18.1753 2.83837
39 1 -1.1104 15.9994 9.89344 11.2314 12.4929
40 2 2.2208 232.038 11.0718 18.0837 2.82043
41 1 -1.1104 15.9994 6.77879 11.0799 12.5094
42 1 -1.1104 15.9994 4.30859 13.8 12.5702
43 2 2.2208 232.038 2.55108 21.1207 2.67088
318 1 -1.1104 15.9994 1.25205 8.56018 12.5427
45 1 -1.1104 15.9994 1.16939 13.9299 11.8063
46 1 -1.1104 15.9994 4.02676 10.9249 12.4902
47 2 2.2208 232.038 8.15612 20.9392 2.6087
48 2 2.2208 232.038 5.4824 23.8404 2.86968
49 1 -1.1104 15.9994 1.38283 11.2785 12.7533
50 2 2.2208 232.038 11.0272 23.664 2.53267
51 1 -1.1104 15.9994 1.22314 22.3091 12.5261
52 2 2.2208 232.038 2.83499 1.50906 5.53158
1 2 2.2208 232.038 13.8854 23.7814 5.42
54 1 -1.1104 15.9994 12.6091 19.4755 12.3534
9101 2 2.2208 232.038 13.9179 23.7102 11.2344
56 2 2.2208 232.038 8.48934 1.38446 5.53085
8997 2 2.2208 232.038 -0.0966248 4.12916 5.62563
58 2 2.2208 232.038 5.58585 1.30363 8.20014
6 2 2.2208 232.038 13.7803 18.098 5.47092
60 2 2.2208 232.038 11.0975 1.27161 8.29569
61 1 -1.1104 15.9994 12.6888 16.7464 12.584
62 2 2.2208 232.038 2.77184 6.74128 5.58546
63 2 2.2208 232.038 2.75688 4.10405 8.42835
64 1 -1.1104 15.9994 9.69449 19.6802 12.5765
65 2 2.2208 232.038 5.64937 4.04357 5.44781
66 2 2.2208 232.038 8.36662 6.91695 5.48494
67 2 2.2208 232.038 8.42202 4.00846 8.28846
68 2 2.2208 232.038 5.69091 6.8622 8.26674
69 2 2.2208 232.038 11.162 4.30205 5.4689
70 2 2.2208 232.038 11.2687 7.08307 8.4494
71 1 -1.1104 15.9994 6.69993 19.571 12.6827
72 2 2.2208 232.038 2.66901 12.5186 5.63067
73 2 2.2208 232.038 2.76789 9.81584 8.41875
74 1 -1.1104 15.9994 9.72343 16.7714 12.4787
75 2 2.2208 232.038 5.47705 9.70722 5.56989
76 2 2.2208 232.038 8.23331 12.599 5.57391
77 2 2.2208 232.038 8.44593 9.73979 8.32369
78 2 2.2208 232.038 5.55598 12.6477 8.15184
79 2 2.2208 232.038 10.9276 9.76831 5.49587
80 2 2.2208 232.038 11.2303 12.6628 8.48092
317 1 -1.1104 15.9994 4.22698 5.46366 12.6515
82 2 2.2208 232.038 2.61656 18.2423 5.35744
83 2 2.2208 232.038 2.78352 15.5629 8.15597
8998 2 2.2208 232.038 0.0927046 1.3286 8.32619
85 2 2.2208 232.038 5.66071 15.4148 5.5359
86 2 2.2208 232.038 8.262 18.1846 5.47438
87 2 2.2208 232.038 8.33546 15.2128 8.48258
88 2 2.2208 232.038 5.42768 18.3138 8.15746
89 2 2.2208 232.038 11.1062 15.5325 5.64409
90 2 2.2208 232.038 11.0377 17.9679 8.47409
9003 2 2.2208 232.038 -0.0265392 -1.38087 5.48079
92 2 2.2208 232.038 2.53945 23.8985 5.58226
93 2 2.2208 232.038 2.46618 20.9734 8.36136
8992 2 2.2208 232.038 13.9925 4.09612 2.57626
95 2 2.2208 232.038 5.40692 21.0507 5.53194
96 2 2.2208 232.038 8.19772 23.8074 5.4388
97 2 2.2208 232.038 8.24069 20.9613 8.17753
98 2 2.2208 232.038 5.34114 23.9288 8.34965
99 2 2.2208 232.038 11.0533 20.9956 5.48713
100 2 2.2208 232.038 11.048 23.4947 8.31419
101 1 -1.1104 15.9994 6.88461 16.8434 12.4717
102 2 2.2208 232.038 2.74491 1.27214 11.1279
8984 2 2.2208 232.038 -0.149024 4.12679 11.2063
104 2 2.2208 232.038 8.34232 1.25293 11.2112
9007 2 2.2208 232.038 0.117214 1.53455 2.83423
106 1 -1.1104 15.9994 3.97378 19.6244 12.3569
107 2 2.2208 232.038 2.96294 6.88446 11.214
108 2 2.2208 232.038 5.70739 4.1502 11.165
109 2 2.2208 232.038 8.38791 6.86382 11.1225
110 2 2.2208 232.038 11.2067 4.01841 11.1246
111 1 -1.1104 15.9994 1.18853 19.566 12.5694
112 2 2.2208 232.038 2.76956 12.6005 11.311
113 2 2.2208 232.038 5.51594 9.73623 11.0976
114 2 2.2208 232.038 8.26566 12.4815 11.096
115 2 2.2208 232.038 11.2228 9.8731 11.1619
116 1 -1.1104 15.9994 4.01546 16.6495 12.4526
117 2 2.2208 232.038 2.68918 18.2372 11.209
118 2 2.2208 232.038 5.61893 15.4811 11.0008
119 2 2.2208 232.038 8.22874 18.202 11.1862
120 2 2.2208 232.038 11.1881 15.4225 11.162
8987 2 2.2208 232.038 -0.000729597 -1.54754 11.0361
122 2 2.2208 232.038 2.48558 23.7192 11.0553
123 2 2.2208 232.038 5.37963 21.0555 11.2706
124 2 2.2208 232.038 8.1257 23.6615 10.9309
125 2 2.2208 232.038 11.2352 20.9426 11.2472
126 1 -1.1104 15.9994 1.54273 0.0614626 1.31041
127 1 -1.1104 15.9994 4.54051 -0.191215 1.24224
128 1 -1.1104 15.9994 1.38827 0.0465067 4.06047
129 1 -1.1104 15.9994 4.19531 -0.122132 4.03112
130 1 -1.1104 15.9994 1.53424 2.8478 1.30176
131 1 -1.1104 15.9994 4.35793 2.62872 1.17214
132 1 -1.1104 15.9994 1.4082 2.77626 4.09854
133 1 -1.1104 15.9994 4.21412 2.71961 4.09739
134 1 -1.1104 15.9994 7.28431 -0.257946 1.19697
135 1 -1.1104 15.9994 10.0624 -0.0729316 1.16345
136 1 -1.1104 15.9994 6.87547 -0.0869227 4.18123
137 1 -1.1104 15.9994 9.88081 -0.0563056 3.95948
138 1 -1.1104 15.9994 7.13635 2.66421 1.25447
139 1 -1.1104 15.9994 9.95292 2.79586 1.15758
140 1 -1.1104 15.9994 7.09259 2.81301 4.14911
141 1 -1.1104 15.9994 9.92055 2.71947 4.11776
142 1 -1.1104 15.9994 12.9658 -0.27608 1.19912
143 1 -1.1104 15.9994 12.71 -0.353533 3.99642
144 1 -1.1104 15.9994 12.6638 2.58504 1.24248
145 1 -1.1104 15.9994 12.5217 2.66717 4.00095
146 1 -1.1104 15.9994 1.07115 5.65528 1.34391
147 1 -1.1104 15.9994 4.05265 5.43658 1.24272
148 1 -1.1104 15.9994 1.22276 5.53907 4.15311
149 1 -1.1104 15.9994 4.22904 5.42661 4.04665
150 1 -1.1104 15.9994 1.31684 8.37353 1.35826
151 1 -1.1104 15.9994 4.34477 8.30271 1.49667
152 1 -1.1104 15.9994 1.36966 8.25195 4.21925
153 1 -1.1104 15.9994 4.20441 8.20553 4.24152
154 1 -1.1104 15.9994 6.95775 5.50909 1.39708
155 1 -1.1104 15.9994 9.93581 5.56032 1.36538
156 1 -1.1104 15.9994 6.87698 5.35993 4.02202
157 1 -1.1104 15.9994 9.69478 5.67907 4.0469
158 1 -1.1104 15.9994 6.96551 8.23495 1.39446
159 1 -1.1104 15.9994 9.83112 8.43056 1.17297
160 1 -1.1104 15.9994 6.91795 8.14582 4.07922
161 1 -1.1104 15.9994 9.6806 8.36684 4.01897
162 1 -1.1104 15.9994 12.7087 5.35775 1.1358
163 1 -1.1104 15.9994 12.7219 5.50384 4.18998
164 1 -1.1104 15.9994 12.6455 8.39769 1.1547
165 1 -1.1104 15.9994 12.4456 8.3992 4.15829
166 1 -1.1104 15.9994 1.10409 11.161 1.33546
167 1 -1.1104 15.9994 3.96442 10.9224 1.35046
168 1 -1.1104 15.9994 1.19404 11.1181 4.15473
169 1 -1.1104 15.9994 4.02356 11.1371 4.27402
170 1 -1.1104 15.9994 1.30376 13.8235 1.37454
171 1 -1.1104 15.9994 4.10239 13.7003 1.31314
172 1 -1.1104 15.9994 1.30448 13.9765 4.47258
173 1 -1.1104 15.9994 3.90669 13.7986 3.99946
174 1 -1.1104 15.9994 6.75903 11.0536 1.21358
175 1 -1.1104 15.9994 9.63836 11.0754 1.35388
176 1 -1.1104 15.9994 6.79373 11.1954 4.09689
177 1 -1.1104 15.9994 9.49666 11.1567 4.01015
178 1 -1.1104 15.9994 6.82309 13.818 1.1082
179 1 -1.1104 15.9994 9.73403 13.9795 1.32338
180 1 -1.1104 15.9994 6.8326 13.8989 4.08071
181 1 -1.1104 15.9994 9.62718 13.8595 4.23608
182 1 -1.1104 15.9994 12.4321 11.0899 1.42088
183 1 -1.1104 15.9994 12.4 11.2898 4.18405
184 1 -1.1104 15.9994 12.4638 13.8871 1.43491
185 1 -1.1104 15.9994 12.5572 13.8832 4.2731
186 1 -1.1104 15.9994 1.07393 16.5561 1.30635
187 1 -1.1104 15.9994 3.99312 16.5667 1.25679
188 1 -1.1104 15.9994 1.22174 16.7132 3.96681
189 1 -1.1104 15.9994 4.028 16.6087 4.20877
190 1 -1.1104 15.9994 1.12688 19.4988 1.27009
191 1 -1.1104 15.9994 3.93392 19.5203 1.31029
192 1 -1.1104 15.9994 1.19782 19.6681 4.18438
193 1 -1.1104 15.9994 4.03878 19.5946 4.13722
194 1 -1.1104 15.9994 6.76266 16.5245 1.39492
195 1 -1.1104 15.9994 9.78902 16.6919 1.6202
196 1 -1.1104 15.9994 6.94497 16.6819 4.126
197 1 -1.1104 15.9994 9.66444 16.7441 4.31715
198 1 -1.1104 15.9994 6.74631 19.569 1.43624
199 1 -1.1104 15.9994 9.61235 19.6243 1.46167
200 1 -1.1104 15.9994 6.78987 19.7263 4.2435
201 1 -1.1104 15.9994 9.64428 19.5946 4.04964
202 1 -1.1104 15.9994 12.5021 16.5628 1.30271
203 1 -1.1104 15.9994 12.4462 16.578 4.19069
204 1 -1.1104 15.9994 12.432 19.3289 1.19913
205 1 -1.1104 15.9994 12.4892 19.5861 4.06733
206 1 -1.1104 15.9994 1.3294 22.4974 1.41959
207 1 -1.1104 15.9994 4.09948 22.3155 1.458
208 1 -1.1104 15.9994 1.07452 22.4356 4.23432
209 1 -1.1104 15.9994 3.9693 22.4589 4.33755
210 1 -1.1104 15.9994 6.8983 22.2245 1.22266
211 1 -1.1104 15.9994 9.76037 22.3994 1.26388
212 1 -1.1104 15.9994 6.70447 22.4201 4.121
213 1 -1.1104 15.9994 9.61169 22.3695 4.01528
214 1 -1.1104 15.9994 12.5223 22.3067 1.34599
215 1 -1.1104 15.9994 12.5857 22.2051 4.09193
216 1 -1.1104 15.9994 1.43703 -0.034228 7.06201
217 1 -1.1104 15.9994 4.04976 -0.0410544 6.82956
8993 2 2.2208 232.038 -0.108982 9.69134 5.46891
219 1 -1.1104 15.9994 4.41704 -0.204712 9.64947
220 1 -1.1104 15.9994 1.29331 2.84896 7.00025
221 1 -1.1104 15.9994 4.11005 2.74989 6.88354
222 1 -1.1104 15.9994 1.58209 -0.16114 9.71767
223 1 -1.1104 15.9994 4.21161 2.42933 9.59831
224 1 -1.1104 15.9994 6.94971 -0.0987148 6.97805
225 1 -1.1104 15.9994 9.7929 -0.303135 6.99427
226 1 -1.1104 15.9994 7.0581 -0.40285 9.80321
227 1 -1.1104 15.9994 9.8502 -0.0178749 9.6549
228 1 -1.1104 15.9994 7.0959 2.69173 6.78383
229 1 -1.1104 15.9994 9.82052 2.50053 6.93383
230 1 -1.1104 15.9994 7.16978 2.79604 9.73523
231 1 -1.1104 15.9994 9.81581 2.5344 9.88471
232 1 -1.1104 15.9994 12.8046 -0.232682 6.70282
233 1 -1.1104 15.9994 12.6172 -0.249353 9.58957
234 1 -1.1104 15.9994 12.6906 2.61247 6.8577
235 1 -1.1104 15.9994 12.6532 2.36547 9.69484
236 1 -1.1104 15.9994 1.39604 5.47671 6.88703
237 1 -1.1104 15.9994 4.31373 5.43163 6.8246
238 1 -1.1104 15.9994 1.47868 2.73196 9.77035
239 1 -1.1104 15.9994 4.27482 5.52144 9.51695
240 1 -1.1104 15.9994 1.16971 8.50487 6.87079
241 1 -1.1104 15.9994 4.02952 8.47922 7.00674
242 1 -1.1104 15.9994 1.36789 5.51472 9.70521
243 1 -1.1104 15.9994 4.30191 8.22299 9.88947
244 1 -1.1104 15.9994 6.84557 5.64355 6.84747
245 1 -1.1104 15.9994 9.39672 5.27069 6.7048
246 1 -1.1104 15.9994 7.04348 5.42981 9.70869
247 1 -1.1104 15.9994 9.80047 5.42548 9.64222
248 1 -1.1104 15.9994 7.04558 8.2371 6.95716
249 1 -1.1104 15.9994 9.79139 8.34754 6.99405
250 1 -1.1104 15.9994 6.99378 8.50587 9.78278
251 1 -1.1104 15.9994 9.7519 8.28274 9.7177
252 1 -1.1104 15.9994 12.3019 5.47472 7.0182
253 1 -1.1104 15.9994 12.5927 5.2853 9.63001
254 1 -1.1104 15.9994 12.71 8.30849 7.15188
255 1 -1.1104 15.9994 12.7057 8.16068 9.86724
256 1 -1.1104 15.9994 1.19188 11.0998 6.91176
257 1 -1.1104 15.9994 4.04171 11.2213 7.0185
258 1 -1.1104 15.9994 1.44652 8.42146 9.79784
259 1 -1.1104 15.9994 4.24987 11.1074 9.74069
260 1 -1.1104 15.9994 1.62627 13.6222 7.41777
261 1 -1.1104 15.9994 4.1307 14.1583 6.6412
262 1 -1.1104 15.9994 1.38855 11.3899 9.86607
263 1 -1.1104 15.9994 3.81724 13.9226 9.60365
264 1 -1.1104 15.9994 6.86209 11.198 6.90776
265 1 -1.1104 15.9994 9.65769 11.0932 6.88969
266 1 -1.1104 15.9994 7.01474 11.2435 9.80306
267 1 -1.1104 15.9994 9.84541 11.1034 9.69192
268 1 -1.1104 15.9994 6.8302 14.1222 6.95114
269 1 -1.1104 15.9994 9.81121 13.7882 6.98646
270 1 -1.1104 15.9994 6.76509 13.8262 9.6622
271 1 -1.1104 15.9994 9.63291 13.815 9.7171
272 1 -1.1104 15.9994 12.5731 11.0716 6.9944
273 1 -1.1104 15.9994 12.5466 11.0191 9.79351
274 1 -1.1104 15.9994 12.6041 13.8928 7.12777
275 1 -1.1104 15.9994 12.5101 13.9343 9.70538
276 1 -1.1104 15.9994 1.16734 16.6288 6.73105
277 1 -1.1104 15.9994 3.95385 17.0095 6.90585
278 1 -1.1104 15.9994 1.22585 16.7257 9.74285
279 1 -1.1104 15.9994 4.41351 16.602 9.54831
280 1 -1.1104 15.9994 1.14078 19.6743 6.92104
281 1 -1.1104 15.9994 4.03465 19.7835 6.95254
282 1 -1.1104 15.9994 1.16535 19.4224 9.88825
283 1 -1.1104 15.9994 3.91414 19.3727 9.62064
284 1 -1.1104 15.9994 6.77402 16.8021 7.01158
285 1 -1.1104 15.9994 9.55372 16.5894 7.03283
286 1 -1.1104 15.9994 7.20877 16.6614 9.83372
287 1 -1.1104 15.9994 9.94293 16.5181 9.70643
288 1 -1.1104 15.9994 6.93064 19.5678 6.90196
289 1 -1.1104 15.9994 9.843 19.4134 6.78234
290 1 -1.1104 15.9994 6.91596 19.4994 9.75175
291 1 -1.1104 15.9994 9.8107 19.44 9.63077
292 1 -1.1104 15.9994 12.5886 16.7318 7.06386
293 1 -1.1104 15.9994 12.4997 16.4878 9.76716
294 1 -1.1104 15.9994 12.7042 19.548 7.00523
295 1 -1.1104 15.9994 12.4703 19.402 9.7079
296 1 -1.1104 15.9994 1.09932 22.4499 6.87826
297 1 -1.1104 15.9994 4.06911 22.4487 6.88093
298 1 -1.1104 15.9994 0.937207 22.2757 9.61235
299 1 -1.1104 15.9994 3.90332 22.2692 9.57192
300 1 -1.1104 15.9994 6.88219 22.3955 6.93893
301 1 -1.1104 15.9994 9.64576 22.3214 6.81345
302 1 -1.1104 15.9994 6.76788 22.1871 9.59534
303 1 -1.1104 15.9994 9.82991 22.1314 9.71849
304 1 -1.1104 15.9994 12.3445 22.4349 6.96168
305 1 -1.1104 15.9994 12.5396 22.151 9.81483
306 1 -1.1104 15.9994 1.47876 -0.0434638 12.6344
307 1 -1.1104 15.9994 4.22851 -0.327402 12.3595
308 1 -1.1104 15.9994 1.4296 2.64278 12.5861
309 1 -1.1104 15.9994 4.25412 2.70467 12.431
310 1 -1.1104 15.9994 7.01856 -0.110014 12.6248
311 1 -1.1104 15.9994 9.72851 -0.326461 12.5225
312 1 -1.1104 15.9994 7.22874 2.60279 12.7501
313 1 -1.1104 15.9994 9.88306 2.54431 12.5208
314 1 -1.1104 15.9994 12.5295 -0.17758 12.5546
315 1 -1.1104 15.9994 12.6643 2.50249 12.3298
316 1 -1.1104 15.9994 1.31257 5.5475 12.4949
672 2 2.2208 232.038 11.1513 15.2181 -0.0655794
9042 2 2.2208 232.038 13.952 3.94713 8.26419
8983 2 2.2208 232.038 0.026959 9.90457 11.144
675 2 2.2208 232.038 5.42893 20.8121 -0.107579
34 2 2.2208 232.038 -0.128516 18.0766 2.65718
8994 2 2.2208 232.038 -0.0634562 7.04159 8.40871
3 2 2.2208 232.038 2.90308 -1.44824 2.59152
16 2 2.2208 232.038 8.41479 6.78238 -0.0983079
350 2 2.2208 232.038 11.0239 23.8024 13.8638
676 2 2.2208 232.038 8.30394 23.6448 -0.147498
335 2 2.2208 232.038 11.3145 6.96357 13.8186
329 2 2.2208 232.038 5.56912 1.294 13.8101
348 2 2.2208 232.038 8.20687 21.1097 13.8499
330 2 2.2208 232.038 11.2133 1.16231 13.9567
9690 2 2.2208 232.038 -0.0600155 4.22985 -0.112773
9031 2 2.2208 232.038 13.9182 1.26863 5.32882
671 2 2.2208 232.038 8.16831 18.0747 -0.094757
663 2 2.2208 232.038 2.67259 7.07659 -0.0331487
29 2 2.2208 232.038 11.0844 9.76252 -0.100415
338 2 2.2208 232.038 8.43341 9.72309 13.8147
674 2 2.2208 232.038 2.60203 23.7839 -0.0331632
25 2 2.2208 232.038 5.59115 9.55183 -0.0463735
9661 2 2.2208 232.038 -0.0865831 1.33748 13.8935
669 2 2.2208 232.038 2.51784 18.1809 -0.076439
349 2 2.2208 232.038 5.52078 23.8146 13.8411
325 2 2.2208 232.038 5.55507 4.14496 -0.10956
343 2 2.2208 232.038 8.37667 15.3228 13.779
9692 2 2.2208 232.038 0.0218049 -1.528 0.0270602
409 2 2.2208 232.038 11.2871 -1.49327 22.3336
327 1 -1.1104 15.9994 7.07178 22.0118 26.5977
355 2 2.2208 232.038 5.60648 -1.57735 16.7139
403 2 2.2208 232.038 2.74738 -1.57329 25.3694
357 2 2.2208 232.038 8.31886 -1.51264 19.62
9420 2 2.2208 232.038 13.8759 15.3188 25.2583
332 1 -1.1104 15.9994 9.7752 22.4026 23.6659
353 2 2.2208 232.038 2.84064 -1.43297 19.5757
405 2 2.2208 232.038 5.53466 -1.36345 22.4689
9671 2 2.2208 232.038 0.0303128 -1.30703 22.3735
340 2 2.2208 232.038 11.2831 12.5325 14.0822
337 1 -1.1104 15.9994 7.00606 22.2599 23.8256
9370 2 2.2208 232.038 13.7982 15.4544 19.5941
9700 2 2.2208 232.038 -0.156485 12.5928 19.4984
407 2 2.2208 232.038 8.41265 -1.42032 25.2263
334 2 2.2208 232.038 5.57189 6.91098 14.1366
342 1 -1.1104 15.9994 4.22245 22.1863 26.8687
665 2 2.2208 232.038 13.731 23.7901 27.9296
431 2 2.2208 232.038 0.0243748 15.4074 22.2916
9674 2 2.2208 232.038 -0.104022 6.85196 25.2255
677 1 -1.1104 15.9994 9.88266 13.8142 26.795
9665 2 2.2208 232.038 0.0251082 -1.44298 16.7902
9419 2 2.2208 232.038 13.8673 18.2426 22.3672
9673 2 2.2208 232.038 -0.168893 4.18104 22.4728
9669 2 2.2208 232.038 -0.116526 9.74587 16.9529
351 1 -1.1104 15.9994 1.32165 22.243 26.8524
352 2 2.2208 232.038 2.9503 1.18605 16.7749
9672 2 2.2208 232.038 0.0222568 1.34954 25.1985
354 1 -1.1104 15.9994 4.29104 21.9952 24.0358
9379 2 2.2208 232.038 13.8379 23.7663 16.7286
356 2 2.2208 232.038 8.23145 1.23308 16.7766
9676 2 2.2208 232.038 -0.0760366 12.4031 25.337
358 2 2.2208 232.038 5.63512 1.32029 19.6198
336 2 2.2208 232.038 2.73123 9.79045 13.9597
360 2 2.2208 232.038 11.2896 1.24248 19.4092
361 1 -1.1104 15.9994 1.16913 22.1636 24.0233
362 2 2.2208 232.038 2.7656 6.91167 16.8509
363 2 2.2208 232.038 2.77975 3.99008 19.5953
364 1 -1.1104 15.9994 12.4743 19.6343 26.6737
365 2 2.2208 232.038 5.56488 4.08711 16.7782
366 2 2.2208 232.038 8.6008 6.96982 16.6387
367 2 2.2208 232.038 8.48585 4.08304 19.4613
368 2 2.2208 232.038 5.73663 6.96064 19.5975
369 2 2.2208 232.038 11.4136 4.01807 16.6178
370 2 2.2208 232.038 11.0903 6.79993 19.4716
371 1 -1.1104 15.9994 12.6358 19.458 24.0967
372 2 2.2208 232.038 2.56289 12.5389 16.5322
373 2 2.2208 232.038 2.69745 9.80281 19.4968
9667 2 2.2208 232.038 -0.0416849 4.13049 16.632
375 2 2.2208 232.038 5.64284 9.88779 16.6774
376 2 2.2208 232.038 8.32515 12.7094 16.7758
377 2 2.2208 232.038 8.25344 9.82004 19.5344
378 2 2.2208 232.038 5.38917 12.5565 19.4563
379 2 2.2208 232.038 11.1631 9.74177 16.7804
380 2 2.2208 232.038 11.2176 12.5863 19.6212
381 1 -1.1104 15.9994 12.4553 16.5519 26.6122
382 2 2.2208 232.038 2.65353 18.2172 16.9907
383 2 2.2208 232.038 2.71806 15.4184 19.4949
667 2 2.2208 232.038 13.8673 18.2311 27.7975
385 2 2.2208 232.038 5.61213 15.3493 16.7606
386 2 2.2208 232.038 8.41272 18.1285 16.6891
387 2 2.2208 232.038 8.44535 15.2985 19.5591
388 2 2.2208 232.038 5.57455 18.086 19.716
389 2 2.2208 232.038 11.1446 15.3476 16.8096
390 2 2.2208 232.038 11.1157 18.2785 19.4578
391 1 -1.1104 15.9994 12.569 22.3869 26.6347
392 2 2.2208 232.038 2.75237 23.8034 16.8447
393 2 2.2208 232.038 2.38987 21.2585 19.4937
9668 2 2.2208 232.038 -0.179579 6.88002 19.6259
395 2 2.2208 232.038 5.58144 20.934 16.9266
396 2 2.2208 232.038 8.30485 23.8336 16.761
397 2 2.2208 232.038 8.24453 21.1107 19.5613
398 2 2.2208 232.038 5.46309 23.7404 19.5965
399 2 2.2208 232.038 11.058 20.8923 16.6377
400 2 2.2208 232.038 10.9666 23.8851 19.544
401 1 -1.1104 15.9994 12.5743 16.8556 23.7117
402 2 2.2208 232.038 2.81919 1.42961 22.5842
346 2 2.2208 232.038 2.58076 21.0049 14.0219
404 1 -1.1104 15.9994 9.64216 19.4173 26.8082
9666 2 2.2208 232.038 0.0633007 1.27696 19.6717
406 2 2.2208 232.038 8.53409 1.23823 22.3097
9369 2 2.2208 232.038 13.8791 18.119 16.695
408 2 2.2208 232.038 5.70014 1.22374 25.3096
654 1 -1.1104 15.9994 6.82108 16.5016 23.8259
410 2 2.2208 232.038 11.3091 1.44681 25.1896
411 1 -1.1104 15.9994 6.74402 19.2236 26.6358
412 2 2.2208 232.038 2.70984 6.90545 22.3858
413 2 2.2208 232.038 2.82326 4.15813 25.2584
414 1 -1.1104 15.9994 9.87427 19.6192 23.9483
415 2 2.2208 232.038 5.71356 4.04167 22.2464
416 2 2.2208 232.038 8.41725 6.92154 22.5708
417 2 2.2208 232.038 8.4155 3.99922 25.2317
418 2 2.2208 232.038 5.55251 6.89598 25.1815
419 2 2.2208 232.038 11.2529 4.05595 22.2679
420 2 2.2208 232.038 11.3048 6.89427 25.167
421 1 -1.1104 15.9994 6.95086 19.4055 23.826
422 2 2.2208 232.038 2.54408 12.415 22.4307
423 2 2.2208 232.038 2.53272 9.58902 25.3526
424 1 -1.1104 15.9994 9.77503 16.4602 26.9308
425 2 2.2208 232.038 5.43419 9.6096 22.4066
426 2 2.2208 232.038 8.17367 12.548 22.3296
427 2 2.2208 232.038 8.42053 9.85594 25.2154
428 2 2.2208 232.038 5.58653 12.418 25.2389
429 2 2.2208 232.038 11.1774 9.69396 22.2865
430 2 2.2208 232.038 11.2566 12.538 25.1641
652 1 -1.1104 15.9994 0.970259 19.4601 26.6845
432 2 2.2208 232.038 2.74462 18.0843 22.3733
433 2 2.2208 232.038 2.78963 15.1265 25.273
653 1 -1.1104 15.9994 3.87256 19.3772 26.6395
435 2 2.2208 232.038 5.58443 15.2251 22.2988
436 2 2.2208 232.038 8.29925 18.1659 22.4165
437 2 2.2208 232.038 8.31697 15.3531 25.1688
438 2 2.2208 232.038 5.50325 17.9344 25.2039
439 2 2.2208 232.038 11.2055 15.5316 22.4718
440 2 2.2208 232.038 11.1111 18.2176 25.3627
656 1 -1.1104 15.9994 6.86551 16.5998 26.712
442 1 -1.1104 15.9994 12.6364 22.5114 23.8829
443 2 2.2208 232.038 2.69481 20.9703 25.3031
655 1 -1.1104 15.9994 9.7392 16.7253 23.9145
445 2 2.2208 232.038 5.39391 20.8932 22.4006
446 2 2.2208 232.038 8.23646 23.7889 22.3891
447 2 2.2208 232.038 8.30048 20.8816 25.181
448 2 2.2208 232.038 5.30366 23.6285 25.1667
449 2 2.2208 232.038 11.1254 20.9269 22.4805
450 2 2.2208 232.038 10.9611 23.6671 25.1177
451 1 -1.1104 15.9994 1.4777 -0.443616 15.4917
452 1 -1.1104 15.9994 4.19064 -0.213378 15.2118
453 1 -1.1104 15.9994 1.29967 2.52655 15.3113
454 1 -1.1104 15.9994 4.19324 2.53173 15.1696
455 1 -1.1104 15.9994 6.83566 -0.312109 15.4351
456 1 -1.1104 15.9994 9.70516 -0.192954 15.2849
457 1 -1.1104 15.9994 6.98391 2.68212 15.4585
458 1 -1.1104 15.9994 9.7529 2.58146 15.4866
459 1 -1.1104 15.9994 12.3761 -0.33059 15.2879
460 1 -1.1104 15.9994 12.7378 2.48264 15.2413
461 1 -1.1104 15.9994 1.07193 5.64304 15.2618
462 1 -1.1104 15.9994 3.96511 5.37058 15.3817
463 1 -1.1104 15.9994 1.21456 8.36366 15.458
464 1 -1.1104 15.9994 4.04615 8.27651 15.2906
465 1 -1.1104 15.9994 7.06789 5.40364 15.5954
466 1 -1.1104 15.9994 9.97391 5.44538 15.3249
467 1 -1.1104 15.9994 6.91625 8.40175 15.3869
468 1 -1.1104 15.9994 9.85833 8.33363 15.4313
469 1 -1.1104 15.9994 12.8938 5.43145 15.3556
470 1 -1.1104 15.9994 12.5364 8.00199 15.2732
471 1 -1.1104 15.9994 1.24736 10.9517 15.3311
472 1 -1.1104 15.9994 4.15765 10.9988 15.3308
473 1 -1.1104 15.9994 1.53667 13.6971 14.973
474 1 -1.1104 15.9994 4.30815 13.8438 15.3378
475 1 -1.1104 15.9994 7.02699 11.2684 15.2567
476 1 -1.1104 15.9994 9.74589 11.0693 15.5416
477 1 -1.1104 15.9994 6.88706 13.8931 15.3128
478 1 -1.1104 15.9994 9.76667 13.9778 15.3923
479 1 -1.1104 15.9994 12.7426 11.1338 15.3405
480 1 -1.1104 15.9994 12.6492 13.8968 15.2842
481 1 -1.1104 15.9994 1.61947 16.4915 15.4002
482 1 -1.1104 15.9994 4.32494 16.6971 15.2465
483 1 -1.1104 15.9994 1.51702 19.3023 15.198
484 1 -1.1104 15.9994 4.10049 19.4427 15.2348
485 1 -1.1104 15.9994 7.14785 16.7343 15.3048
486 1 -1.1104 15.9994 10.0302 16.7194 15.1627
487 1 -1.1104 15.9994 6.95424 19.5941 15.3624
488 1 -1.1104 15.9994 9.67886 19.4398 15.2791
489 1 -1.1104 15.9994 12.6228 16.6866 15.3931
490 1 -1.1104 15.9994 12.3505 19.5583 15.3098
491 1 -1.1104 15.9994 1.4807 22.6159 15.2433
492 1 -1.1104 15.9994 4.3942 22.3669 15.0933
493 1 -1.1104 15.9994 7.07641 22.4557 15.301
494 1 -1.1104 15.9994 9.6674 22.2902 15.1923
495 1 -1.1104 15.9994 12.6578 22.4341 15.2114
496 1 -1.1104 15.9994 1.34721 -0.154236 18.2863
497 1 -1.1104 15.9994 4.36067 -0.204865 18.1786
498 1 -1.1104 15.9994 1.35751 -0.115719 21.0996
499 1 -1.1104 15.9994 4.1739 -0.121818 21.1224
500 1 -1.1104 15.9994 1.3564 2.74375 18.3203
501 1 -1.1104 15.9994 4.0887 2.54221 18.2926
502 1 -1.1104 15.9994 1.47459 2.5862 21.0792
503 1 -1.1104 15.9994 4.32327 2.50271 21.1126
504 1 -1.1104 15.9994 7.03927 -0.0717253 18.1367
505 1 -1.1104 15.9994 9.76039 -0.290861 17.979
506 1 -1.1104 15.9994 6.91171 -0.119446 20.9238
507 1 -1.1104 15.9994 9.88329 -0.182447 20.8234
508 1 -1.1104 15.9994 6.96837 2.66015 18.1508
509 1 -1.1104 15.9994 9.8233 2.38784 18.233
510 1 -1.1104 15.9994 7.18892 2.48335 20.8522
511 1 -1.1104 15.9994 9.81486 2.71596 20.9656
512 1 -1.1104 15.9994 12.6362 -0.141006 17.8924
513 1 -1.1104 15.9994 12.804 -0.335023 20.8342
514 1 -1.1104 15.9994 12.6434 2.58651 18.0062
515 1 -1.1104 15.9994 12.5735 2.49942 21.0368
516 1 -1.1104 15.9994 1.34473 5.51923 18.1221
517 1 -1.1104 15.9994 4.24798 5.44783 17.8854
518 1 -1.1104 15.9994 1.39769 5.41262 20.8596
519 1 -1.1104 15.9994 4.24111 5.44528 20.6434
520 1 -1.1104 15.9994 1.32327 8.32111 18.1968
521 1 -1.1104 15.9994 4.34415 8.28841 18.2055
522 1 -1.1104 15.9994 1.33188 8.32901 20.9101
523 1 -1.1104 15.9994 4.08842 8.1502 21.1958
524 1 -1.1104 15.9994 7.02805 5.3339 18.213
525 1 -1.1104 15.9994 9.87519 5.36666 18.1065
526 1 -1.1104 15.9994 7.13091 5.5772 20.9607
527 1 -1.1104 15.9994 9.84074 5.33711 21.0669
528 1 -1.1104 15.9994 7.16862 8.16262 18.219
529 1 -1.1104 15.9994 9.7554 8.47687 18.3283
530 1 -1.1104 15.9994 6.88298 8.3346 21.0766
531 1 -1.1104 15.9994 9.81086 8.17137 21.1864
532 1 -1.1104 15.9994 12.8754 5.287 18.0619
533 1 -1.1104 15.9994 12.6172 5.40809 20.8378
534 1 -1.1104 15.9994 12.5424 8.19198 18.2005
535 1 -1.1104 15.9994 12.4836 8.21254 20.9908
536 1 -1.1104 15.9994 1.04387 11.086 18.0914
537 1 -1.1104 15.9994 3.99376 11.0745 18.1004
538 1 -1.1104 15.9994 1.12882 11.0285 21.1808
539 1 -1.1104 15.9994 4.05796 11.0935 20.8856
540 1 -1.1104 15.9994 1.25416 13.8524 18.0369
541 1 -1.1104 15.9994 4.04352 13.902 18.2958
542 1 -1.1104 15.9994 1.42826 13.8849 20.8609
543 1 -1.1104 15.9994 4.09863 13.7505 21.1552
544 1 -1.1104 15.9994 6.86019 10.9532 18.1329
545 1 -1.1104 15.9994 9.8079 11.1026 18.2523
546 1 -1.1104 15.9994 6.9806 11.1227 21.0359
547 1 -1.1104 15.9994 9.68006 11.1133 21.0848
548 1 -1.1104 15.9994 6.95606 13.9239 18.1616
549 1 -1.1104 15.9994 9.71227 13.7861 18.1967
550 1 -1.1104 15.9994 7.08003 13.9086 21.0092
551 1 -1.1104 15.9994 9.93361 13.9999 21.003
552 1 -1.1104 15.9994 12.5179 11.1255 18.2745
553 1 -1.1104 15.9994 12.6295 11.2997 20.8694
554 1 -1.1104 15.9994 12.5146 13.9799 18.1092
555 1 -1.1104 15.9994 12.5763 13.9575 21.0436
556 1 -1.1104 15.9994 1.30854 16.7178 18.1907
557 1 -1.1104 15.9994 3.98254 16.7091 18.1561
558 1 -1.1104 15.9994 1.38376 16.762 20.8634
559 1 -1.1104 15.9994 4.21659 16.5217 20.9559
560 1 -1.1104 15.9994 1.30873 19.401 18.454
561 1 -1.1104 15.9994 4.24241 19.5187 18.1133
562 1 -1.1104 15.9994 1.04866 19.6442 21.1609
563 1 -1.1104 15.9994 4.0335 19.3149 20.9457
564 1 -1.1104 15.9994 6.94018 16.608 18.1711
565 1 -1.1104 15.9994 9.69456 16.7165 18.0931
566 1 -1.1104 15.9994 7.09955 16.7628 20.8699
567 1 -1.1104 15.9994 9.69141 16.6872 21.0145
568 1 -1.1104 15.9994 7.07233 19.4527 18.2617
569 1 -1.1104 15.9994 9.85055 19.4804 17.9559
570 1 -1.1104 15.9994 7.0374 19.5181 21.0326
571 1 -1.1104 15.9994 9.65499 19.5995 21.115
572 1 -1.1104 15.9994 12.4049 16.7419 18.1238
573 1 -1.1104 15.9994 12.4768 16.8099 20.8002
574 1 -1.1104 15.9994 12.6158 19.5901 18.1037
575 1 -1.1104 15.9994 12.5547 19.5842 21.2257
576 1 -1.1104 15.9994 1.23762 22.7719 18.2374
577 1 -1.1104 15.9994 3.99903 22.3639 18.1438
578 1 -1.1104 15.9994 1.00474 22.3044 20.9662
579 1 -1.1104 15.9994 4.11481 22.0848 20.7879
580 1 -1.1104 15.9994 6.94774 22.404 18.1576
581 1 -1.1104 15.9994 9.68519 22.251 18.1215
582 1 -1.1104 15.9994 7.02719 22.4224 20.9993
583 1 -1.1104 15.9994 9.76353 22.3394 20.868
584 1 -1.1104 15.9994 12.4548 22.4811 18.0193
585 1 -1.1104 15.9994 12.6284 22.2719 21.088
586 1 -1.1104 15.9994 1.39593 -0.230242 23.9551
587 1 -1.1104 15.9994 4.0429 -0.164778 23.8896
588 1 -1.1104 15.9994 1.19029 -0.172909 26.7323
589 1 -1.1104 15.9994 4.27381 -0.118092 26.6878
590 1 -1.1104 15.9994 1.54832 2.64998 24.0928
591 1 -1.1104 15.9994 4.30149 2.68655 23.752
592 1 -1.1104 15.9994 1.3983 2.73841 26.6991
593 1 -1.1104 15.9994 4.22411 2.85461 26.4525
594 1 -1.1104 15.9994 7.01735 -0.103203 23.7862
595 1 -1.1104 15.9994 9.86701 0.0665513 23.7974
596 1 -1.1104 15.9994 7.06875 -0.0545773 26.6059
597 1 -1.1104 15.9994 9.93907 -0.184664 26.4609
598 1 -1.1104 15.9994 7.06098 2.61084 23.7307
599 1 -1.1104 15.9994 9.86674 2.7509 23.854
600 1 -1.1104 15.9994 6.94424 2.62498 26.7316
601 1 -1.1104 15.9994 9.88214 2.67173 26.5653
602 1 -1.1104 15.9994 12.7622 -0.11711 23.716
603 1 -1.1104 15.9994 12.7077 -0.153076 26.4969
604 1 -1.1104 15.9994 12.733 2.66227 23.8093
605 1 -1.1104 15.9994 12.6438 2.66249 26.7096
606 1 -1.1104 15.9994 1.27174 5.43705 23.8085
607 1 -1.1104 15.9994 4.13661 5.3306 23.4985
608 1 -1.1104 15.9994 1.21562 5.26788 26.6205
609 1 -1.1104 15.9994 4.07627 5.58521 26.746
610 1 -1.1104 15.9994 1.24487 8.23742 23.7285
611 1 -1.1104 15.9994 4.27925 8.0865 23.9093
612 1 -1.1104 15.9994 1.13573 7.98466 26.6891
613 1 -1.1104 15.9994 4.06929 8.27139 26.9059
614 1 -1.1104 15.9994 6.99072 5.41476 23.8352
615 1 -1.1104 15.9994 9.88694 5.32771 23.7962
616 1 -1.1104 15.9994 6.86173 5.51949 26.7427
617 1 -1.1104 15.9994 9.76005 5.49351 26.7287
618 1 -1.1104 15.9994 7.0939 8.2838 23.7962
619 1 -1.1104 15.9994 9.90515 8.2449 23.8382
620 1 -1.1104 15.9994 6.78493 8.45164 26.6525
621 1 -1.1104 15.9994 9.63396 8.12671 26.5631
622 1 -1.1104 15.9994 12.6229 5.53712 23.668
623 1 -1.1104 15.9994 12.68 5.4639 26.4757
624 1 -1.1104 15.9994 12.7164 8.45905 23.8075
625 1 -1.1104 15.9994 12.5351 8.10833 26.6931
626 1 -1.1104 15.9994 1.08357 11.1027 23.9564
627 1 -1.1104 15.9994 3.77766 10.9064 23.8304
628 1 -1.1104 15.9994 1.27735 11.0522 26.7562
629 1 -1.1104 15.9994 4.04113 10.9152 26.5392
630 1 -1.1104 15.9994 1.28954 13.8624 23.8545
631 1 -1.1104 15.9994 4.06186 13.4792 23.8998
632 1 -1.1104 15.9994 1.22925 13.859 26.8246