ITEM: TIMESTEP
420000
ITEM: NUMBER OF ATOMS
18000
ITEM: BOX BOUNDS xy xz yz pp pp pp
-1.4010974730877085e-01 2.8034109747308463e+01 0.0000000000000000e+00
-1.7033845112153689e+00 3.3643138451119967e+02 0.0000000000000000e+00
-1.4855514371979084e-01 2.8042555143720215e+01 0.0000000000000000e+00
ITEM: ATOMS id type q mass x y z
9086 2 2.2208 232.038 13.9574 6.74733 11.1921
324 1 -1.1104 15.9994 12.4293 5.32485 12.39
55 2 2.2208 232.038 5.38201 -1.69117 5.39967
4 1 -1.1104 15.9994 12.5431 22.2832 12.4892
323 1 -1.1104 15.9994 9.63203 8.03267 12.5316
322 1 -1.1104 15.9994 6.91058 5.18762 12.4088
103 2 2.2208 232.038 5.46437 -1.64507 10.9728
8 2 2.2208 232.038 5.40109 0.957961 2.67703
9 1 -1.1104 15.9994 12.3317 8.12213 12.466
10 2 2.2208 232.038 11.1045 0.989187 2.67716
11 1 -1.1104 15.9994 9.6388 22.0605 12.5704
321 1 -1.1104 15.9994 9.56678 5.31839 12.4315
13 2 2.2208 232.038 2.61152 3.80904 2.88419
14 1 -1.1104 15.9994 6.82787 22.2036 12.2578
335 2 2.2208 232.038 11.0137 6.73629 13.8413
9688 2 2.2208 232.038 -0.17234 9.50725 -0.147011
17 2 2.2208 232.038 8.28219 4.03719 2.72185
18 2 2.2208 232.038 5.35891 6.79126 2.66008
9004 2 2.2208 232.038 -0.176776 6.81857 2.75196
20 2 2.2208 232.038 11.0556 6.95909 2.69676
21 1 -1.1104 15.9994 3.94348 21.9767 12.0967
22 1 -1.1104 15.9994 1.33001 16.6276 12.532
23 2 2.2208 232.038 2.46321 9.59778 2.71568
320 1 -1.1104 15.9994 6.7905 2.38693 12.5552
34 2 2.2208 232.038 -0.0716886 17.8604 2.69105
3 2 2.2208 232.038 2.54659 -1.69322 2.66873
27 2 2.2208 232.038 8.2391 9.62482 2.63047
28 2 2.2208 232.038 5.48966 12.4109 2.54231
334 2 2.2208 232.038 5.45666 6.79501 13.761
30 2 2.2208 232.038 10.7741 12.4187 2.57931
31 1 -1.1104 15.9994 12.5407 13.6768 12.7271
32 1 -1.1104 15.9994 12.5898 10.9268 12.3175
33 2 2.2208 232.038 2.74775 15.1984 2.60185
319 1 -1.1104 15.9994 3.9214 8.11434 12.2978
35 1 -1.1104 15.9994 9.66561 13.7594 12.2635
36 1 -1.1104 15.9994 6.71402 13.6788 12.5886
37 2 2.2208 232.038 8.23046 15.2241 2.44051
38 2 2.2208 232.038 5.44695 18.0221 2.70347
39 1 -1.1104 15.9994 9.51666 10.9715 12.3922
40 2 2.2208 232.038 11.0484 17.8939 2.56087
41 1 -1.1104 15.9994 6.93576 10.9473 12.6728
42 1 -1.1104 15.9994 4.04379 13.5914 12.3863
43 2 2.2208 232.038 2.52286 20.8382 2.61132
318 1 -1.1104 15.9994 1.27836 7.8403 12.5772
45 1 -1.1104 15.9994 1.23785 13.7163 12.3384
46 1 -1.1104 15.9994 4.16423 10.96 12.5781
47 2 2.2208 232.038 8.20454 20.8041 2.3819
48 2 2.2208 232.038 5.34396 23.6332 2.58891
49 1 -1.1104 15.9994 1.30701 10.7672 12.4084
50 2 2.2208 232.038 11.043 23.5346 2.35958
51 1 -1.1104 15.9994 1.14504 22.1187 12.5363
52 2 2.2208 232.038 2.52761 1.08287 5.50759
9042 2 2.2208 232.038 13.7588 3.86769 8.29561
54 1 -1.1104 15.9994 12.5799 19.5116 12.646
9032 2 2.2208 232.038 13.8407 -1.63686 8.32229
56 2 2.2208 232.038 8.08338 1.06181 5.32976
59 2 2.2208 232.038 11.135 -1.60927 5.48372
58 2 2.2208 232.038 5.47931 1.24671 8.22342
5 2 2.2208 232.038 13.6948 15.205 8.29111
60 2 2.2208 232.038 10.8815 0.870828 8.26192
61 1 -1.1104 15.9994 12.2236 16.5001 12.5763
62 2 2.2208 232.038 2.58186 6.77045 5.39127
63 2 2.2208 232.038 2.57922 3.90808 8.1442
64 1 -1.1104 15.9994 9.76174 19.2486 12.3686
65 2 2.2208 232.038 5.38624 3.9606 5.46897
66 2 2.2208 232.038 8.17887 6.86192 5.44579
67 2 2.2208 232.038 8.49004 3.82667 8.12615
68 2 2.2208 232.038 5.34231 6.76353 8.20422
69 2 2.2208 232.038 11.013 4.03089 5.35293
70 2 2.2208 232.038 11.0357 6.77642 8.15364
71 1 -1.1104 15.9994 6.95165 19.4486 12.3472
72 2 2.2208 232.038 2.62632 12.3244 5.4033
73 2 2.2208 232.038 2.59183 9.52287 8.16432
74 1 -1.1104 15.9994 9.48792 16.5323 12.4856
75 2 2.2208 232.038 5.41188 9.4229 5.49167
76 2 2.2208 232.038 8.33696 12.4298 5.40049
77 2 2.2208 232.038 8.18062 9.6402 8.29371
78 2 2.2208 232.038 5.3848 12.3845 8.21696
79 2 2.2208 232.038 11.1059 9.68355 5.41233
80 2 2.2208 232.038 11.0322 12.4416 8.15454
317 1 -1.1104 15.9994 4.34252 5.40244 12.4875
82 2 2.2208 232.038 2.65856 18.101 5.38297
83 2 2.2208 232.038 2.63739 15.3134 8.11475
9096 2 2.2208 232.038 13.9128 18.0903 11.0392
85 2 2.2208 232.038 5.50443 15.2415 5.40836
86 2 2.2208 232.038 8.27115 18.0241 5.35515
87 2 2.2208 232.038 8.03726 15.1687 8.24261
88 2 2.2208 232.038 5.50748 18.0134 8.37195
89 2 2.2208 232.038 11.048 15.4063 5.44318
90 2 2.2208 232.038 10.9678 18.0796 8.26664
6 2 2.2208 232.038 13.8721 17.9513 5.27149
92 2 2.2208 232.038 2.63283 23.4942 5.37207
93 2 2.2208 232.038 2.73887 20.8115 8.23399
467 1 -1.1104 15.9994 6.86741 8.04569 12.2196
95 2 2.2208 232.038 5.47919 20.9431 5.36468
96 2 2.2208 232.038 7.93475 23.6008 5.36193
97 2 2.2208 232.038 8.07153 20.8553 8.30539
98 2 2.2208 232.038 5.26809 23.6977 8.13977
99 2 2.2208 232.038 10.9839 20.7538 5.1706
100 2 2.2208 232.038 11.0667 23.4654 7.99442
101 1 -1.1104 15.9994 6.71129 16.6344 12.5207
102 2 2.2208 232.038 2.73123 0.929382 11.0156
483 1 -1.1104 15.9994 1.23041 19.2751 12.4887
104 2 2.2208 232.038 8.21014 0.944327 11.238
12 2 2.2208 232.038 13.8495 20.7086 2.43081
106 1 -1.1104 15.9994 4.00043 19.3253 12.3984
107 2 2.2208 232.038 2.62936 6.56994 11.0614
108 2 2.2208 232.038 5.61388 3.92506 10.97
109 2 2.2208 232.038 8.26128 6.73682 11.0186
110 2 2.2208 232.038 11.0132 3.955 11.0157
111 1 -1.1104 15.9994 1.33861 19.4537 9.77141
112 2 2.2208 232.038 2.57361 12.3093 10.9972
113 2 2.2208 232.038 5.50881 9.51025 11.1817
114 2 2.2208 232.038 8.20819 12.3644 10.9693
115 2 2.2208 232.038 10.9823 9.5289 10.9542
116 1 -1.1104 15.9994 4.00638 16.4887 12.5485
117 2 2.2208 232.038 2.56673 17.9841 11.1181
118 2 2.2208 232.038 5.29499 15.0837 11.0457
119 2 2.2208 232.038 8.1701 18.0753 11.1694
120 2 2.2208 232.038 10.9557 15.2555 10.999
15 2 2.2208 232.038 13.8486 15.0985 2.69195
122 2 2.2208 232.038 2.52638 23.5715 10.9044
123 2 2.2208 232.038 5.33139 20.6792 11.0261
124 2 2.2208 232.038 8.21409 23.6525 11.2564
125 2 2.2208 232.038 10.9591 20.9035 11.1468
126 1 -1.1104 15.9994 1.28363 -0.284675 1.35397
127 1 -1.1104 15.9994 4.23174 -0.259948 1.05344
128 1 -1.1104 15.9994 1.17034 -0.577725 4.16167
129 1 -1.1104 15.9994 3.96479 -0.365667 4.02728
130 1 -1.1104 15.9994 1.34806 2.47056 1.40906
131 1 -1.1104 15.9994 4.37245 2.42732 1.28573
132 1 -1.1104 15.9994 1.22006 2.25931 3.9983
133 1 -1.1104 15.9994 4.06202 2.5047 4.11525
134 1 -1.1104 15.9994 6.76838 -0.298936 1.18987
135 1 -1.1104 15.9994 9.70949 -0.219024 1.10583
136 1 -1.1104 15.9994 6.79042 -0.258726 3.77494
137 1 -1.1104 15.9994 9.65962 -0.482294 3.97554
138 1 -1.1104 15.9994 7.12182 2.5658 1.31607
139 1 -1.1104 15.9994 9.7642 2.63733 1.39497
140 1 -1.1104 15.9994 6.75518 2.56647 4.02023
141 1 -1.1104 15.9994 9.73202 2.55355 4.14108
142 1 -1.1104 15.9994 12.493 -0.334922 1.32428
143 1 -1.1104 15.9994 12.5235 -0.413921 4.12987
144 1 -1.1104 15.9994 12.4261 2.43935 1.13321
145 1 -1.1104 15.9994 12.3598 2.60892 3.94944
146 1 -1.1104 15.9994 1.10524 5.28068 1.40542
147 1 -1.1104 15.9994 3.91382 5.30677 1.33442
148 1 -1.1104 15.9994 1.18003 5.09692 4.15254
149 1 -1.1104 15.9994 4.00094 5.35358 4.19775
150 1 -1.1104 15.9994 1.18174 8.10608 1.08234
151 1 -1.1104 15.9994 3.87711 8.18101 1.34287
152 1 -1.1104 15.9994 1.47376 8.05916 3.96707
153 1 -1.1104 15.9994 4.154 8.10271 4.07383
154 1 -1.1104 15.9994 6.83855 5.36958 1.24592
155 1 -1.1104 15.9994 9.72616 5.46966 1.36369
156 1 -1.1104 15.9994 6.76353 5.45486 3.89128
157 1 -1.1104 15.9994 9.58713 5.41641 3.991
158 1 -1.1104 15.9994 6.947 8.34789 1.32861
159 1 -1.1104 15.9994 9.85948 8.30679 1.18992
160 1 -1.1104 15.9994 6.84325 8.10178 4.10745
161 1 -1.1104 15.9994 9.57763 8.27315 4.17385
162 1 -1.1104 15.9994 12.617 5.38392 1.18778
163 1 -1.1104 15.9994 12.4283 5.35373 4.01219
164 1 -1.1104 15.9994 12.6642 8.10178 1.27501
165 1 -1.1104 15.9994 12.6349 8.17213 4.18712
166 1 -1.1104 15.9994 1.1858 10.8003 1.25675
167 1 -1.1104 15.9994 4.06772 10.9755 1.33353
168 1 -1.1104 15.9994 0.952452 10.7526 3.94325
169 1 -1.1104 15.9994 3.90282 10.8499 4.28247
170 1 -1.1104 15.9994 1.05697 13.6211 1.37852
171 1 -1.1104 15.9994 4.08155 13.7745 1.27333
172 1 -1.1104 15.9994 1.24041 13.588 3.96813
173 1 -1.1104 15.9994 4.07613 13.7569 3.96352
174 1 -1.1104 15.9994 6.81274 11.1001 1.19764
175 1 -1.1104 15.9994 9.6069 11.2622 1.32475
176 1 -1.1104 15.9994 6.84623 11.0287 4.09586
177 1 -1.1104 15.9994 9.83225 10.8536 3.99781
178 1 -1.1104 15.9994 7.01843 13.8167 1.11146
179 1 -1.1104 15.9994 9.55299 13.9173 0.981093
180 1 -1.1104 15.9994 6.95027 13.6316 3.94703
181 1 -1.1104 15.9994 9.58823 13.9157 4.03135
182 1 -1.1104 15.9994 12.4355 10.7844 1.38381
183 1 -1.1104 15.9994 12.5076 10.9963 4.24165
184 1 -1.1104 15.9994 12.3394 13.7317 1.28878
185 1 -1.1104 15.9994 12.2556 14.1013 4.02212
186 1 -1.1104 15.9994 1.29991 16.597 1.24359
187 1 -1.1104 15.9994 4.04914 16.5819 1.21301
188 1 -1.1104 15.9994 1.29506 16.4636 3.99717
189 1 -1.1104 15.9994 4.09845 16.6766 4.11756
190 1 -1.1104 15.9994 1.225 19.3417 1.39932
191 1 -1.1104 15.9994 4.05009 19.5296 1.46696
192 1 -1.1104 15.9994 1.13373 19.3344 4.13627
193 1 -1.1104 15.9994 4.11535 19.4504 4.22537
194 1 -1.1104 15.9994 6.80391 16.6489 1.06451
195 1 -1.1104 15.9994 9.59024 16.5732 1.15897
196 1 -1.1104 15.9994 6.80976 16.5768 4.07627
197 1 -1.1104 15.9994 9.56087 16.4654 3.93339
198 1 -1.1104 15.9994 6.8993 19.2501 1.3366
199 1 -1.1104 15.9994 9.60866 19.346 1.25476
200 1 -1.1104 15.9994 6.98672 19.479 4.1988
201 1 -1.1104 15.9994 9.65101 19.2984 3.83259
202 1 -1.1104 15.9994 12.5454 16.674 1.00096
203 1 -1.1104 15.9994 12.4422 16.5885 3.99817
204 1 -1.1104 15.9994 12.38 19.399 1.07331
205 1 -1.1104 15.9994 12.4662 19.3717 3.77816
206 1 -1.1104 15.9994 1.132 22.4082 1.16222
207 1 -1.1104 15.9994 3.95378 22.2065 1.287
208 1 -1.1104 15.9994 1.07366 22.086 3.96698
209 1 -1.1104 15.9994 3.92328 22.125 4.07334
210 1 -1.1104 15.9994 6.71309 22.1747 1.09403
211 1 -1.1104 15.9994 9.58125 22.3053 1.11441
212 1 -1.1104 15.9994 6.80456 22.2052 3.98134
213 1 -1.1104 15.9994 9.69542 22.1073 3.95496
214 1 -1.1104 15.9994 12.4101 22.3021 1.06122
215 1 -1.1104 15.9994 12.4242 22.1143 3.92217
216 1 -1.1104 15.9994 1.09515 -0.457534 6.98058
217 1 -1.1104 15.9994 3.7338 -0.371532 6.79072
2 2 2.2208 232.038 13.767 20.6956 8.18525
219 1 -1.1104 15.9994 3.91138 -0.463621 9.54793
220 1 -1.1104 15.9994 1.15249 2.48067 6.83997
221 1 -1.1104 15.9994 4.18212 2.3777 6.78832
222 1 -1.1104 15.9994 1.1994 -0.446612 9.73837
223 1 -1.1104 15.9994 4.1823 2.32254 9.57366
224 1 -1.1104 15.9994 6.77051 -0.318042 6.73969
225 1 -1.1104 15.9994 9.44099 -0.357475 6.9347
226 1 -1.1104 15.9994 6.8211 -0.337391 9.62485
227 1 -1.1104 15.9994 9.71009 -0.446972 9.67519
228 1 -1.1104 15.9994 6.83828 2.52214 6.73674
229 1 -1.1104 15.9994 9.61432 2.36033 6.84343
230 1 -1.1104 15.9994 6.91514 2.50197 9.66789
231 1 -1.1104 15.9994 9.5632 2.38742 9.6781
232 1 -1.1104 15.9994 12.5445 -0.240607 7.02455
233 1 -1.1104 15.9994 12.4247 -0.375346 9.68853
234 1 -1.1104 15.9994 12.4453 2.53245 6.888
235 1 -1.1104 15.9994 12.4613 2.55504 9.67408
236 1 -1.1104 15.9994 1.08246 5.2325 6.86229
237 1 -1.1104 15.9994 4.15429 5.33532 6.70926
238 1 -1.1104 15.9994 1.29022 2.41006 9.5083
239 1 -1.1104 15.9994 4.01821 5.37312 9.59768
240 1 -1.1104 15.9994 1.16184 8.01923 6.91541
241 1 -1.1104 15.9994 3.98535 8.03283 6.79407
242 1 -1.1104 15.9994 1.48803 5.20024 9.74925
243 1 -1.1104 15.9994 4.0442 8.15818 9.67583
244 1 -1.1104 15.9994 6.89875 5.35674 6.70869
245 1 -1.1104 15.9994 9.71082 5.30644 6.75491
246 1 -1.1104 15.9994 6.89104 5.20498 9.52181
247 1 -1.1104 15.9994 9.67715 5.26144 9.61117
248 1 -1.1104 15.9994 6.81653 8.21749 7.02333
249 1 -1.1104 15.9994 9.85577 8.13794 6.84876
250 1 -1.1104 15.9994 6.96283 8.14295 9.70073
251 1 -1.1104 15.9994 9.6355 8.26176 9.61997
252 1 -1.1104 15.9994 12.3694 5.25599 6.90042
253 1 -1.1104 15.9994 12.5979 5.49972 9.48645
254 1 -1.1104 15.9994 12.5467 7.99041 6.88601
255 1 -1.1104 15.9994 12.436 8.18846 9.6981
256 1 -1.1104 15.9994 1.37005 11.044 6.76338
257 1 -1.1104 15.9994 4.00743 10.7403 6.9395
258 1 -1.1104 15.9994 1.15259 7.94125 9.68243
259 1 -1.1104 15.9994 3.97585 11.0202 9.70565
260 1 -1.1104 15.9994 1.30104 13.944 6.81676
261 1 -1.1104 15.9994 4.22464 13.7467 6.77117
262 1 -1.1104 15.9994 1.08526 10.7387 9.5502
263 1 -1.1104 15.9994 3.97155 13.7192 9.52137
264 1 -1.1104 15.9994 6.93926 11.0547 6.96543
265 1 -1.1104 15.9994 9.75346 11.0174 6.80735
266 1 -1.1104 15.9994 6.62403 11.0613 9.75666
267 1 -1.1104 15.9994 9.60838 10.9948 9.39772
268 1 -1.1104 15.9994 6.85344 13.8426 6.79827
269 1 -1.1104 15.9994 9.74447 13.933 6.76199
270 1 -1.1104 15.9994 6.85708 13.8527 9.77729
271 1 -1.1104 15.9994 9.64132 13.7641 9.51245
272 1 -1.1104 15.9994 12.4612 11.1059 6.72105
273 1 -1.1104 15.9994 12.3335 11.1288 9.48093
274 1 -1.1104 15.9994 12.2821 13.918 6.96401
275 1 -1.1104 15.9994 12.4123 14.0066 9.63738
276 1 -1.1104 15.9994 1.39314 16.7819 6.77166
277 1 -1.1104 15.9994 4.15899 16.4685 6.85511
278 1 -1.1104 15.9994 1.34578 13.6364 9.60154
279 1 -1.1104 15.9994 4.02816 16.5358 9.77271
280 1 -1.1104 15.9994 1.2949 19.4178 7.11833
281 1 -1.1104 15.9994 4.11692 19.278 6.99317
282 1 -1.1104 15.9994 1.37147 16.6859 9.59178
283 1 -1.1104 15.9994 4.061 19.5553 9.54678
284 1 -1.1104 15.9994 7.01972 16.5763 6.82505
285 1 -1.1104 15.9994 9.81814 16.9476 6.7887
286 1 -1.1104 15.9994 6.79478 16.6798 9.51699
287 1 -1.1104 15.9994 9.41042 16.5659 9.58625
288 1 -1.1104 15.9994 6.90724 19.5237 6.8033
289 1 -1.1104 15.9994 9.64879 19.6794 6.77655
290 1 -1.1104 15.9994 6.74016 19.5522 9.55719
291 1 -1.1104 15.9994 9.50901 19.4313 9.61608
292 1 -1.1104 15.9994 12.5247 16.5816 6.90127
293 1 -1.1104 15.9994 12.3519 16.724 9.98082
294 1 -1.1104 15.9994 12.4917 19.4433 6.68095
295 1 -1.1104 15.9994 12.3082 19.4312 9.69471
296 1 -1.1104 15.9994 1.28437 21.9862 6.81004
297 1 -1.1104 15.9994 3.99138 22.2043 6.89961
298 1 -1.1104 15.9994 1.13759 22.276 9.5173
299 1 -1.1104 15.9994 3.89628 22.3176 9.60424
300 1 -1.1104 15.9994 6.73897 22.3202 6.83125
301 1 -1.1104 15.9994 9.37537 22.4836 6.8884
302 1 -1.1104 15.9994 6.79721 22.2582 9.63245
303 1 -1.1104 15.9994 9.66539 22.3986 9.64832
304 1 -1.1104 15.9994 12.1294 22.3637 6.52092
305 1 -1.1104 15.9994 12.5266 22.1986 9.37293
306 1 -1.1104 15.9994 1.06464 -0.276496 12.4848
307 1 -1.1104 15.9994 4.00745 -0.289741 12.577
308 1 -1.1104 15.9994 1.26224 2.4125 12.4727
309 1 -1.1104 15.9994 4.12135 2.57012 12.378
316 1 -1.1104 15.9994 1.26818 5.26748 12.4326
311 1 -1.1104 15.9994 9.72467 -0.303866 12.6217
312 1 -1.1104 15.9994 6.78209 -0.239508 12.6027
313 1 -1.1104 15.9994 9.90327 2.52456 12.4439
314 1 -1.1104 15.9994 12.64 -0.401725 12.5901
315 1 -1.1104 15.9994 12.4222 2.448 12.5548
340 2 2.2208 232.038 10.8376 12.4459 13.6778
346 2 2.2208 232.038 2.56686 20.7931 13.7383
8992 2 2.2208 232.038 13.6823 4.04936 2.65306
8991 2 2.2208 232.038 13.7783 12.3921 5.65655
9052 2 2.2208 232.038 13.7746 9.59155 8.24979
9091 2 2.2208 232.038 13.7344 12.4712 11.1033
345 2 2.2208 232.038 11.0424 18.0503 13.8305
348 2 2.2208 232.038 8.23109 20.9122 13.9615
9101 2 2.2208 232.038 13.6479 23.5944 11.1589
81 2 2.2208 232.038 -0.0931593 15.2222 5.5987
669 2 2.2208 232.038 2.57944 18.141 -0.0817365
9329 2 2.2208 232.038 13.7816 15.1665 13.9121
9031 2 2.2208 232.038 13.8766 1.34838 5.52959
338 2 2.2208 232.038 8.26576 9.48975 13.8835
9081 2 2.2208 232.038 13.8566 1.23306 11.1877
9334 2 2.2208 232.038 13.8836 20.8387 13.9346
9677 2 2.2208 232.038 13.7348 1.11599 -0.202826
329 2 2.2208 232.038 5.35973 1.13779 13.9578
343 2 2.2208 232.038 8.13352 15.2174 13.8485
9324 2 2.2208 232.038 13.8909 9.7798 13.8807
25 2 2.2208 232.038 5.30352 9.66127 -0.165502
659 2 2.2208 232.038 2.71882 1.11209 -0.0509808
29 2 2.2208 232.038 11.1564 9.55223 -0.129528
661 2 2.2208 232.038 8.2885 1.19422 -0.0993881
7 2 2.2208 232.038 8.17144 -1.62476 2.41325
663 2 2.2208 232.038 2.64462 6.7934 0.0318025
325 2 2.2208 232.038 5.52246 4.01138 -0.133751
19 2 2.2208 232.038 10.993 3.9599 -0.188744
341 2 2.2208 232.038 2.57036 15.1893 13.9869
84 2 2.2208 232.038 -0.0499484 18.0842 8.2409
326 2 2.2208 232.038 2.5579 -1.64309 13.9343
671 2 2.2208 232.038 8.3125 17.9341 -0.201867
8984 2 2.2208 232.038 0.00212403 3.97466 11.0926
9041 2 2.2208 232.038 13.8654 6.68057 5.49594
336 2 2.2208 232.038 2.70339 9.57724 13.8644
331 2 2.2208 232.038 2.48348 3.78835 13.9176
330 2 2.2208 232.038 11.077 1.19377 13.8896
333 2 2.2208 232.038 8.26661 3.84107 13.885
344 2 2.2208 232.038 5.31471 17.7534 13.8766
359 2 2.2208 232.038 10.9103 -1.66562 16.9155
327 1 -1.1104 15.9994 6.86433 22.315 26.512
349 2 2.2208 232.038 5.31593 23.8118 13.9243
9340 2 2.2208 232.038 13.9487 -1.6917 19.4761
407 2 2.2208 232.038 8.2411 -1.64683 25.2887
9339 2 2.2208 232.038 13.7195 0.953726 16.8659
332 1 -1.1104 15.9994 9.7974 22.2626 23.589
9370 2 2.2208 232.038 13.8376 15.2493 19.531
374 2 2.2208 232.038 11.0428 20.9542 27.9251
1142 1 -1.1104 15.9994 1.57019 24.0123 15.0966
9379 2 2.2208 232.038 13.7643 23.7662 16.574
337 1 -1.1104 15.9994 7.23709 22.2097 23.7082
657 2 2.2208 232.038 13.8293 23.7925 22.1555
9399 2 2.2208 232.038 13.7582 6.75101 22.349
676 2 2.2208 232.038 8.19854 23.6438 27.8582
9369 2 2.2208 232.038 13.7352 18.0452 16.6983
342 1 -1.1104 15.9994 3.89255 22.3226 26.5928
9350 2 2.2208 232.038 13.7823 4.0494 19.5237
26 2 2.2208 232.038 8.1864 12.257 27.9998
9666 2 2.2208 232.038 -0.0409704 1.28209 19.446
677 1 -1.1104 15.9994 9.84294 13.7096 26.397
9319 2 2.2208 232.038 13.8208 4.04301 14.0332
9380 2 2.2208 232.038 13.891 20.7503 19.5994
642 1 -1.1104 15.9994 12.5629 10.8175 23.7725
9359 2 2.2208 232.038 13.7074 12.4306 16.8539
351 1 -1.1104 15.9994 1.07797 22.1674 26.4703
352 2 2.2208 232.038 2.57367 1.08079 16.6512
641 1 -1.1104 15.9994 9.47952 10.7648 26.8314
354 1 -1.1104 15.9994 4.41371 21.9081 23.8854
650 1 -1.1104 15.9994 1.19762 19.304 23.8165
356 2 2.2208 232.038 8.26321 1.15225 16.6278
644 1 -1.1104 15.9994 12.322 13.5881 23.6862
358 2 2.2208 232.038 5.47926 1.03258 19.4572
649 1 -1.1104 15.9994 3.97677 16.5627 26.4782
360 2 2.2208 232.038 10.9976 1.12088 19.6411
361 1 -1.1104 15.9994 1.09155 22.0866 23.6621
362 2 2.2208 232.038 2.72843 6.73496 16.8478
363 2 2.2208 232.038 2.61589 3.9529 19.6141
364 1 -1.1104 15.9994 12.5045 19.5247 26.5204
365 2 2.2208 232.038 5.5108 3.91547 16.6556
366 2 2.2208 232.038 8.26464 6.74458 16.822
367 2 2.2208 232.038 8.24763 3.60486 19.5464
368 2 2.2208 232.038 5.57704 6.68844 19.4
369 2 2.2208 232.038 11.0132 3.98622 16.7065
370 2 2.2208 232.038 11.0827 6.56879 19.5738
371 1 -1.1104 15.9994 12.4918 19.246 23.5908
372 2 2.2208 232.038 2.45763 12.3091 16.7468
373 2 2.2208 232.038 2.52952 9.5581 19.5211
640 1 -1.1104 15.9994 6.86709 14.03 26.6173
375 2 2.2208 232.038 5.22281 9.58656 16.6846
376 2 2.2208 232.038 8.24848 12.3059 16.7504
377 2 2.2208 232.038 8.28085 9.61326 19.5027
378 2 2.2208 232.038 5.47436 12.2859 19.4512
379 2 2.2208 232.038 11.0699 9.6488 16.5769
380 2 2.2208 232.038 11.0999 12.2461 19.5679
381 1 -1.1104 15.9994 12.4368 16.5965 26.4802
382 2 2.2208 232.038 2.66431 17.8776 16.7599
383 2 2.2208 232.038 2.48158 15.0932 19.6912
648 1 -1.1104 15.9994 1.05864 16.6429 26.5309
385 2 2.2208 232.038 5.2612 15.0739 16.6769
386 2 2.2208 232.038 8.06689 17.9413 16.5762
387 2 2.2208 232.038 8.17665 15.2444 19.3099
388 2 2.2208 232.038 5.30631 17.9647 19.4595
389 2 2.2208 232.038 10.9739 15.29 16.6248
390 2 2.2208 232.038 10.9258 17.9739 19.6051
391 1 -1.1104 15.9994 12.3568 22.2822 26.4823
392 2 2.2208 232.038 2.95551 23.6631 17.0745
393 2 2.2208 232.038 2.87125 20.6362 19.5164
670 2 2.2208 232.038 5.39159 15.2038 28.0132
395 2 2.2208 232.038 5.40304 20.6372 16.5774
396 2 2.2208 232.038 8.10777 23.8052 16.7576
397 2 2.2208 232.038 8.26241 20.8612 19.4175
398 2 2.2208 232.038 5.61182 23.5632 19.6723
399 2 2.2208 232.038 11.1269 20.9031 16.8724
400 2 2.2208 232.038 11.005 23.6803 19.5673
401 1 -1.1104 15.9994 12.5871 16.5566 23.7288
402 2 2.2208 232.038 2.55655 1.14068 22.4173
647 1 -1.1104 15.9994 4.01916 16.6862 23.8719
404 1 -1.1104 15.9994 9.62854 19.5421 26.6016
646 1 -1.1104 15.9994 1.17443 16.5292 23.9026
406 2 2.2208 232.038 8.14367 1.10516 22.5574
651 1 -1.1104 15.9994 4.00492 19.2918 23.817
408 2 2.2208 232.038 5.4059 1.29686 25.1145
654 1 -1.1104 15.9994 6.73641 16.5039 23.548
410 2 2.2208 232.038 11.0917 1.00758 25.1846
411 1 -1.1104 15.9994 6.66024 19.4455 26.7033
412 2 2.2208 232.038 2.58773 6.79522 22.369
413 2 2.2208 232.038 2.62212 3.89841 25.255
414 1 -1.1104 15.9994 9.62576 19.4994 23.8044
415 2 2.2208 232.038 5.49331 4.0518 22.4
416 2 2.2208 232.038 8.27732 6.73639 22.4417
417 2 2.2208 232.038 8.24447 3.84656 25.2704
418 2 2.2208 232.038 5.50931 6.68974 25.2311
419 2 2.2208 232.038 11.1053 3.99947 22.5029
420 2 2.2208 232.038 11.1015 6.86029 25.1724
421 1 -1.1104 15.9994 6.73287 19.3627 23.8485
422 2 2.2208 232.038 2.48373 12.2349 22.4081
423 2 2.2208 232.038 2.56762 9.41918 25.3672
424 1 -1.1104 15.9994 9.70521 16.6756 26.5233
425 2 2.2208 232.038 5.56918 9.46057 22.2044
426 2 2.2208 232.038 8.1721 12.4858 22.2397
427 2 2.2208 232.038 8.13912 9.57327 25.2237
428 2 2.2208 232.038 5.28714 12.4196 25.1676
429 2 2.2208 232.038 10.9949 9.5268 22.2556
430 2 2.2208 232.038 10.967 12.2638 25.1335
652 1 -1.1104 15.9994 1.11983 19.5225 26.7081
432 2 2.2208 232.038 2.55182 17.9632 22.411
433 2 2.2208 232.038 2.5531 15.239 25.2916
653 1 -1.1104 15.9994 3.92343 19.3348 26.7095
435 2 2.2208 232.038 5.28734 15.1639 22.3282
436 2 2.2208 232.038 8.2188 18.0207 22.345
437 2 2.2208 232.038 8.19367 15.21 25.0858
438 2 2.2208 232.038 5.34997 18.0336 25.2189
439 2 2.2208 232.038 11.1208 15.2558 22.3644
440 2 2.2208 232.038 10.9162 18.1129 25.2109
656 1 -1.1104 15.9994 6.86923 16.6933 26.4829
442 1 -1.1104 15.9994 12.4333 22.4715 23.5727
443 2 2.2208 232.038 2.59975 20.7871 25.005
655 1 -1.1104 15.9994 9.70934 16.7806 23.8211
445 2 2.2208 232.038 5.72071 20.8769 22.4434
446 2 2.2208 232.038 8.42194 23.6958 22.4354
447 2 2.2208 232.038 8.20651 20.7497 25.1917
448 2 2.2208 232.038 5.24994 23.7148 24.9782
449 2 2.2208 232.038 11.2235 20.7851 22.2803
450 2 2.2208 232.038 11.1016 23.8221 25.0763
451 1 -1.1104 15.9994 1.17698 -0.29192 15.358
452 1 -1.1104 15.9994 3.98489 -0.219713 15.3278
453 1 -1.1104 15.9994 1.31121 2.47764 15.2997
454 1 -1.1104 15.9994 4.07116 2.42319 15.2237
455 1 -1.1104 15.9994 6.83154 -0.315727 15.3174
456 1 -1.1104 15.9994 9.57972 -0.265802 15.3123
457 1 -1.1104 15.9994 7.10549 2.45174 15.2164
458 1 -1.1104 15.9994 9.79357 2.57272 15.3575
459 1 -1.1104 15.9994 12.3288 -0.253557 15.4638
460 1 -1.1104 15.9994 12.6048 2.58123 15.3191
461 1 -1.1104 15.9994 1.2965 5.35373 15.368
462 1 -1.1104 15.9994 4.1181 5.16414 15.2219
463 1 -1.1104 15.9994 1.24357 8.05947 15.5696
464 1 -1.1104 15.9994 4.07506 8.03625 15.2805
465 1 -1.1104 15.9994 7.01821 5.33287 15.3787
466 1 -1.1104 15.9994 9.67034 5.53089 15.3183
643 1 -1.1104 15.9994 12.6145 10.7634 26.7515
468 1 -1.1104 15.9994 9.76098 8.33148 15.3808
469 1 -1.1104 15.9994 12.374 5.43007 15.2965
470 1 -1.1104 15.9994 12.6716 8.24118 15.2469
471 1 -1.1104 15.9994 0.978558 10.7504 15.2283
472 1 -1.1104 15.9994 3.89378 10.9191 15.271
473 1 -1.1104 15.9994 1.23184 13.5751 15.3151
474 1 -1.1104 15.9994 3.95963 13.5486 15.2926
475 1 -1.1104 15.9994 6.7977 8.00807 15.0184
476 1 -1.1104 15.9994 9.59714 10.976 15.2959
477 1 -1.1104 15.9994 6.90344 10.6857 15.4333
478 1 -1.1104 15.9994 9.43918 13.8209 15.1572
479 1 -1.1104 15.9994 12.458 10.9721 15.1121
480 1 -1.1104 15.9994 12.3216 13.7542 15.3579
481 1 -1.1104 15.9994 1.15578 16.4476 15.438
482 1 -1.1104 15.9994 4.0124 16.2797 15.3587
645 1 -1.1104 15.9994 12.5746 13.6075 26.436
484 1 -1.1104 15.9994 1.48246 19.3606 15.1275
485 1 -1.1104 15.9994 6.66801 13.6478 15.3664
486 1 -1.1104 15.9994 9.67728 16.5774 15.1975
487 1 -1.1104 15.9994 6.73041 16.4556 15.3559
488 1 -1.1104 15.9994 9.29041 19.3854 15.2358
489 1 -1.1104 15.9994 12.3315 16.5263 15.4364
490 1 -1.1104 15.9994 12.2367 19.4191 15.2662
491 1 -1.1104 15.9994 3.89722 22.1661 15.1317
492 1 -1.1104 15.9994 4.10572 19.145 15.3556
493 1 -1.1104 15.9994 6.69247 22.2675 15.0744
494 1 -1.1104 15.9994 9.70569 22.2341 15.4818
495 1 -1.1104 15.9994 12.313 22.2728 15.3162
496 1 -1.1104 15.9994 1.15884 -0.414876 18.1514
497 1 -1.1104 15.9994 3.77989 -0.345825 18.0564
498 1 -1.1104 15.9994 1.2656 -0.372431 20.8299
499 1 -1.1104 15.9994 4.13925 -0.261445 20.9479
500 1 -1.1104 15.9994 1.09488 2.86055 18.1641
501 1 -1.1104 15.9994 3.96208 2.54958 18.1602
502 1 -1.1104 15.9994 1.34727 2.55806 20.9094
503 1 -1.1104 15.9994 4.18455 2.35521 21.0161
504 1 -1.1104 15.9994 6.72247 -0.537365 18.1483
505 1 -1.1104 15.9994 9.52372 -0.247072 18.1949
506 1 -1.1104 15.9994 7.08579 -0.0460927 21.0705
507 1 -1.1104 15.9994 9.65538 -0.471027 21.0953
508 1 -1.1104 15.9994 6.93758 2.36447 18.0467
509 1 -1.1104 15.9994 9.67653 2.50913 18.1323
510 1 -1.1104 15.9994 6.72782 2.49117 20.9416
511 1 -1.1104 15.9994 9.48159 2.37786 21.115
512 1 -1.1104 15.9994 12.4086 -0.418452 18.4981
513 1 -1.1104 15.9994 12.5498 -0.112064 21.003
514 1 -1.1104 15.9994 12.4057 2.42766 18.1389
515 1 -1.1104 15.9994 12.3445 2.5929 21.0622
516 1 -1.1104 15.9994 1.33481 5.43797 18.2908
517 1 -1.1104 15.9994 4.14934 5.39433 18.134
518 1 -1.1104 15.9994 0.958245 5.42045 21.0706
519 1 -1.1104 15.9994 3.85542 5.39121 20.9699
520 1 -1.1104 15.9994 1.27108 8.01906 18.1116
521 1 -1.1104 15.9994 3.98224 8.29314 18.1622
522 1 -1.1104 15.9994 1.29543 8.10975 21.0229
523 1 -1.1104 15.9994 4.12174 8.09523 21.1008
524 1 -1.1104 15.9994 6.91121 5.03827 18.244
525 1 -1.1104 15.9994 9.56912 5.29923 18.1102
526 1 -1.1104 15.9994 6.86227 5.16495 20.8049
527 1 -1.1104 15.9994 9.70974 5.17434 20.9254
528 1 -1.1104 15.9994 6.8037 8.0209 17.8471
529 1 -1.1104 15.9994 9.70119 8.16084 18.171
530 1 -1.1104 15.9994 7.04606 8.06827 20.9607
531 1 -1.1104 15.9994 9.59927 8.01147 21.0155
532 1 -1.1104 15.9994 12.5117 5.25694 18.174
533 1 -1.1104 15.9994 12.3025 5.24503 21.0066
534 1 -1.1104 15.9994 12.4157 8.03332 18.1169
535 1 -1.1104 15.9994 12.3204 8.06029 21.0101
536 1 -1.1104 15.9994 1.036 10.9349 18.2098
537 1 -1.1104 15.9994 3.89972 10.8541 18.2514
538 1 -1.1104 15.9994 1.07178 10.9944 21.0567
539 1 -1.1104 15.9994 3.79797 10.7102 21.1259
540 1 -1.1104 15.9994 0.913359 13.7556 18.2471
541 1 -1.1104 15.9994 4.10776 13.4777 18.0465
542 1 -1.1104 15.9994 1.17222 13.7184 21.1949
543 1 -1.1104 15.9994 3.98159 13.4377 20.9536
544 1 -1.1104 15.9994 6.73841 10.7964 18.1303
545 1 -1.1104 15.9994 9.68272 10.8259 18.1122
546 1 -1.1104 15.9994 6.86345 10.9912 20.684
547 1 -1.1104 15.9994 9.79927 10.8101 20.9603
548 1 -1.1104 15.9994 6.71683 13.5705 18.1586
549 1 -1.1104 15.9994 9.47623 13.7555 18.1254
550 1 -1.1104 15.9994 6.73496 13.7867 20.9432
551 1 -1.1104 15.9994 9.87317 13.5544 20.9604
552 1 -1.1104 15.9994 12.3453 11.017 18.0401
553 1 -1.1104 15.9994 12.4178 10.8013 20.9782
554 1 -1.1104 15.9994 12.3391 13.8409 18.3147
555 1 -1.1104 15.9994 12.8002 13.7162 21.0533
556 1 -1.1104 15.9994 1.32407 16.3552 18.1659
557 1 -1.1104 15.9994 4.0358 16.4281 18.1028
558 1 -1.1104 15.9994 1.12657 16.4788 20.992
559 1 -1.1104 15.9994 3.88298 16.4115 20.8952
560 1 -1.1104 15.9994 4.3031 19.3707 18.1578
561 1 -1.1104 15.9994 6.71982 19.1654 15.0817
562 1 -1.1104 15.9994 1.52111 19.3148 18.2571
563 1 -1.1104 15.9994 4.04985 19.191 20.8923
564 1 -1.1104 15.9994 6.68551 16.5437 18.1155
565 1 -1.1104 15.9994 9.45297 16.5042 17.8904
566 1 -1.1104 15.9994 6.8356 16.4678 20.834
567 1 -1.1104 15.9994 9.77357 16.3691 20.9357
568 1 -1.1104 15.9994 6.96042 19.4031 18.0044
569 1 -1.1104 15.9994 9.80815 19.2542 18.0508
570 1 -1.1104 15.9994 6.85771 19.2971 21.0396
571 1 -1.1104 15.9994 9.62581 19.3776 21.03
572 1 -1.1104 15.9994 12.201 16.6075 18.0985
573 1 -1.1104 15.9994 12.5066 16.746 21.0197
574 1 -1.1104 15.9994 12.6005 19.3827 18.1057
575 1 -1.1104 15.9994 12.5387 19.4454 20.7469
576 1 -1.1104 15.9994 1.64275 22.453 18.558
577 1 -1.1104 15.9994 4.24328 22.0188 18.0073
578 1 -1.1104 15.9994 1.31084 19.6443 21.1349
579 1 -1.1104 15.9994 4.28098 21.9416 20.8002
580 1 -1.1104 15.9994 6.80466 22.3053 18.0624
581 1 -1.1104 15.9994 9.52643 22.3282 18.1872
582 1 -1.1104 15.9994 6.96822 22.0523 20.9154
583 1 -1.1104 15.9994 9.64817 22.3196 20.8807
584 1 -1.1104 15.9994 12.284 22.3298 18.2361
585 1 -1.1104 15.9994 12.5481 22.3217 20.8482
586 1 -1.1104 15.9994 1.27367 -0.312045 23.8021
587 1 -1.1104 15.9994 4.09365 -0.212474 23.7847
588 1 -1.1104 15.9994 1.19758 -0.460578 26.5439
589 1 -1.1104 15.9994 3.93915 -0.467506 26.5624
590 1 -1.1104 15.9994 1.07807 2.55973 23.8375
591 1 -1.1104 15.9994 3.88908 2.65575 23.8106
592 1 -1.1104 15.9994 1.06143 2.58228 26.8097
593 1 -1.1104 15.9994 4.09023 2.54932 26.7711
594 1 -1.1104 15.9994 6.94684 -0.268174 23.8155
595 1 -1.1104 15.9994 9.82564 -0.585372 23.7579
596 1 -1.1104 15.9994 6.70783 -0.263429 26.4522
597 1 -1.1104 15.9994 9.64722 -0.184638 26.5175
598 1 -1.1104 15.9994 6.85983 2.5236 23.8469
599 1 -1.1104 15.9994 9.5921 2.54538 24.0364
600 1 -1.1104 15.9994 6.86687 2.58982 26.5322
601 1 -1.1104 15.9994 9.8136 2.45358 26.7929
602 1 -1.1104 15.9994 12.5451 -0.247976 23.8564
603 1 -1.1104 15.9994 12.5589 -0.442302 26.6525
604 1 -1.1104 15.9994 12.6284 2.4647 23.8585
605 1 -1.1104 15.9994 12.6073 2.35229 26.5203
606 1 -1.1104 15.9994 1.34069 5.49804 24.0359
607 1 -1.1104 15.9994 4.38893 5.3915 23.8456
608 1 -1.1104 15.9994 1.17465 5.38606 26.7645
609 1 -1.1104 15.9994 3.96165 5.35923 26.6378
610 1 -1.1104 15.9994 1.37311 8.15657 23.8764
611 1 -1.1104 15.9994 4.07512 8.27104 23.8737
612 1 -1.1104 15.9994 1.42427 8.08574 26.6754
613 1 -1.1104 15.9994 4.09363 8.07364 26.7577
614 1 -1.1104 15.9994 6.96805 5.29626 23.8521
615 1 -1.1104 15.9994 9.78208 5.50715 23.6513
616 1 -1.1104 15.9994 6.84535 5.3446 26.4959
617 1 -1.1104 15.9994 9.60097 5.11584 26.7762
618 1 -1.1104 15.9994 6.85949 8.04306 23.7519
619 1 -1.1104 15.9994 9.50923 8.20998 23.8833
620 1 -1.1104 15.9994 6.75585 8.26634 26.6228
621 1 -1.1104 15.9994 9.72467 8.06709 26.5648
622 1 -1.1104 15.9994 12.5244 5.30745 23.7185
623 1 -1.1104 15.9994 12.2519 5.10822 26.4955