ITEM: TIMESTEP
470000
ITEM: NUMBER OF ATOMS
18000
ITEM: BOX BOUNDS xy xz yz pp pp pp
-1.3800537818987008e-01 2.8032005378190227e+01 0.0000000000000000e+00
-1.6604387020758051e+00 3.3638843870206881e+02 0.0000000000000000e+00
-1.3820284566447327e-01 2.8032202845665228e+01 0.0000000000000000e+00
ITEM: ATOMS id type q mass x y z
666 2 2.2208 232.038 2.74475 12.4412 -0.0470664
324 1 -1.1104 15.9994 12.4188 5.57451 12.4494
103 2 2.2208 232.038 5.49035 -1.49076 11.2417
4 1 -1.1104 15.9994 12.461 22.4205 12.4524
323 1 -1.1104 15.9994 9.59404 8.3246 12.5193
322 1 -1.1104 15.9994 6.8542 5.47365 12.7796
105 2 2.2208 232.038 11.0999 -1.61418 11.0868
8 2 2.2208 232.038 5.56409 1.28162 2.47649
9 1 -1.1104 15.9994 12.4611 8.10784 12.458
10 2 2.2208 232.038 11.1293 1.17978 2.52115
11 1 -1.1104 15.9994 9.69655 22.2801 12.4443
321 1 -1.1104 15.9994 9.65712 5.38815 12.407
13 2 2.2208 232.038 2.67208 4.1124 2.55435
14 1 -1.1104 15.9994 7.03767 22.3606 12.4553
328 2 2.2208 232.038 8.24911 -1.57591 14.028
7 2 2.2208 232.038 8.20821 -1.57613 2.65546
17 2 2.2208 232.038 8.23768 4.17721 2.64831
18 2 2.2208 232.038 5.39233 6.75447 2.62964
9031 2 2.2208 232.038 13.863 1.09627 5.31226
20 2 2.2208 232.038 11.0316 6.77569 2.6626
21 1 -1.1104 15.9994 4.28088 22.2137 12.8565
22 1 -1.1104 15.9994 1.29954 16.5749 12.5909
23 2 2.2208 232.038 2.80549 9.56489 2.58486
320 1 -1.1104 15.9994 6.89358 2.5513 12.5275
53 2 2.2208 232.038 2.75915 -1.58436 8.28815
9701 2 2.2208 232.038 13.8383 6.90017 -0.0985227
27 2 2.2208 232.038 8.27672 9.57507 2.74471
28 2 2.2208 232.038 5.50735 12.4778 2.7499
9002 2 2.2208 232.038 13.9142 9.68144 2.59194
30 2 2.2208 232.038 11.1163 12.4651 2.63942
31 1 -1.1104 15.9994 12.2948 13.9481 12.7089
32 1 -1.1104 15.9994 12.496 10.9953 12.7375
33 2 2.2208 232.038 2.57636 15.2247 2.86934
319 1 -1.1104 15.9994 4.04254 8.37551 12.5362
35 1 -1.1104 15.9994 9.51374 13.757 12.5732
36 1 -1.1104 15.9994 6.86694 13.9664 12.4418
37 2 2.2208 232.038 8.20917 15.121 2.75435
38 2 2.2208 232.038 5.34828 18.0566 2.79562
39 1 -1.1104 15.9994 9.65395 11.0376 12.6387
40 2 2.2208 232.038 10.9514 18.0739 2.73642
41 1 -1.1104 15.9994 6.79957 11.1905 12.5375
42 1 -1.1104 15.9994 4.03338 13.6936 12.5444
43 2 2.2208 232.038 2.74404 20.9962 2.79681
318 1 -1.1104 15.9994 1.22134 8.27203 12.5007
45 1 -1.1104 15.9994 1.40909 13.6376 12.6128
46 1 -1.1104 15.9994 4.01224 10.9352 12.4642
47 2 2.2208 232.038 8.18607 20.8402 2.59346
48 2 2.2208 232.038 5.46859 23.6669 2.8005
49 1 -1.1104 15.9994 1.09179 10.9183 12.3691
50 2 2.2208 232.038 10.9999 23.6566 2.53782
51 1 -1.1104 15.9994 1.4102 22.1807 12.4742
52 2 2.2208 232.038 2.95254 1.10978 5.5057
8997 2 2.2208 232.038 0.0528541 3.97991 5.3187
54 1 -1.1104 15.9994 12.5283 19.509 12.5522
9688 2 2.2208 232.038 0.0383512 9.48759 -0.0484665
56 2 2.2208 232.038 8.36064 1.09577 5.37489
8992 2 2.2208 232.038 13.7936 4.1225 2.6497
58 2 2.2208 232.038 5.57335 1.23099 8.40253
9101 2 2.2208 232.038 13.8076 23.7062 11.2666
60 2 2.2208 232.038 11.2721 1.14796 8.23216
61 1 -1.1104 15.9994 12.3876 16.7638 12.5844
62 2 2.2208 232.038 2.63608 6.81727 5.47129
63 2 2.2208 232.038 2.47349 4.07707 8.20982
64 1 -1.1104 15.9994 9.82786 19.6651 12.4442
65 2 2.2208 232.038 5.37178 4.15561 5.55067
66 2 2.2208 232.038 8.33116 6.79855 5.44224
67 2 2.2208 232.038 8.25763 3.93434 8.18597
68 2 2.2208 232.038 5.34262 6.82957 8.17171
69 2 2.2208 232.038 11.0716 3.89064 5.44692
70 2 2.2208 232.038 10.9604 6.87661 8.24377
71 1 -1.1104 15.9994 7.08514 19.6786 12.4814
72 2 2.2208 232.038 2.75847 12.5003 5.40921
73 2 2.2208 232.038 2.67182 9.53184 8.31127
74 1 -1.1104 15.9994 9.64206 16.9294 12.3917
75 2 2.2208 232.038 5.52717 9.62086 5.43132
76 2 2.2208 232.038 8.33266 12.3543 5.4495
77 2 2.2208 232.038 8.36904 9.50098 8.35542
78 2 2.2208 232.038 5.54632 12.2651 8.26863
79 2 2.2208 232.038 11.1412 9.5761 5.57401
80 2 2.2208 232.038 11.1511 12.4793 8.37919
317 1 -1.1104 15.9994 4.03076 5.53179 12.3929
82 2 2.2208 232.038 2.52297 18.0032 5.60897
83 2 2.2208 232.038 2.60487 15.2483 8.33379
8991 2 2.2208 232.038 13.9775 12.4259 5.53276
85 2 2.2208 232.038 5.37407 15.3903 5.52854
86 2 2.2208 232.038 8.23677 18.0302 5.55182
87 2 2.2208 232.038 8.50638 15.1834 8.17463
88 2 2.2208 232.038 5.3964 17.8288 8.35199
89 2 2.2208 232.038 11.2167 15.2076 5.35864
90 2 2.2208 232.038 11.1786 18.055 8.2735
9004 2 2.2208 232.038 -0.0676337 6.81824 2.57101
92 2 2.2208 232.038 2.64862 23.7596 5.50972
93 2 2.2208 232.038 2.50879 20.8172 8.39387
467 1 -1.1104 15.9994 6.86017 8.22539 12.4051
95 2 2.2208 232.038 5.31241 20.741 5.43157
96 2 2.2208 232.038 8.12615 23.6776 5.59256
97 2 2.2208 232.038 8.14974 20.9447 8.21897
98 2 2.2208 232.038 5.50143 23.6871 8.26602
99 2 2.2208 232.038 11.0058 20.9837 5.31899
100 2 2.2208 232.038 10.9592 23.4366 8.26298
101 1 -1.1104 15.9994 6.83567 16.8503 12.5967
102 2 2.2208 232.038 2.58805 1.33236 11.1445
483 1 -1.1104 15.9994 1.32071 19.3575 12.5838
104 2 2.2208 232.038 8.47978 1.08966 10.9806
55 2 2.2208 232.038 5.58927 -1.61497 5.49304
106 1 -1.1104 15.9994 4.32146 19.4607 12.3287
107 2 2.2208 232.038 2.5095 6.80635 11.1366
108 2 2.2208 232.038 5.5298 3.9106 11.0959
109 2 2.2208 232.038 8.23775 6.79841 11.1702
110 2 2.2208 232.038 11.0569 4.10075 10.9992
111 1 -1.1104 15.9994 1.35965 19.318 9.98145
112 2 2.2208 232.038 2.69085 12.3598 11.1644
113 2 2.2208 232.038 5.44598 9.58075 11.1585
114 2 2.2208 232.038 8.13749 12.5466 11.1249
115 2 2.2208 232.038 10.958 9.66252 11.2806
116 1 -1.1104 15.9994 4.16111 16.3336 12.7228
117 2 2.2208 232.038 2.72437 17.9437 11.3589
118 2 2.2208 232.038 5.39785 15.2107 11.0735
119 2 2.2208 232.038 8.43377 18.2381 11.0264
120 2 2.2208 232.038 10.9239 15.2561 11.1906
6 2 2.2208 232.038 13.9165 18.0119 5.56927
122 2 2.2208 232.038 2.59069 23.6081 11.3242
123 2 2.2208 232.038 5.49178 20.9271 11.1155
124 2 2.2208 232.038 8.42675 23.6244 11.0888
125 2 2.2208 232.038 11.0926 20.8782 11.1288
126 1 -1.1104 15.9994 1.27539 -0.243759 1.12151
127 1 -1.1104 15.9994 3.92306 -0.40274 1.06024
128 1 -1.1104 15.9994 1.38162 -0.277664 4.12012
129 1 -1.1104 15.9994 3.92826 -0.42483 3.96079
130 1 -1.1104 15.9994 1.19648 2.62153 1.27952
131 1 -1.1104 15.9994 3.93096 2.66031 1.27399
132 1 -1.1104 15.9994 1.55913 2.50176 3.93524
133 1 -1.1104 15.9994 4.26007 2.49405 4.05407
134 1 -1.1104 15.9994 6.93531 -0.187744 1.24042
135 1 -1.1104 15.9994 9.7043 -0.110221 1.28316
136 1 -1.1104 15.9994 6.78551 -0.143927 3.93793
137 1 -1.1104 15.9994 9.67349 -0.398861 4.05855
138 1 -1.1104 15.9994 6.88785 2.62857 1.03335
139 1 -1.1104 15.9994 9.62082 2.79638 1.29281
140 1 -1.1104 15.9994 7.03202 2.71155 3.85508
141 1 -1.1104 15.9994 9.74741 2.3556 4.04709
142 1 -1.1104 15.9994 12.3521 -0.221944 1.17195
143 1 -1.1104 15.9994 12.5073 -0.273855 4.04093
144 1 -1.1104 15.9994 12.325 2.60002 1.09758
145 1 -1.1104 15.9994 12.4836 2.53904 3.87608
146 1 -1.1104 15.9994 1.20479 5.36467 1.09826
147 1 -1.1104 15.9994 4.0707 5.31609 1.09092
148 1 -1.1104 15.9994 1.3545 5.49665 4.07967
149 1 -1.1104 15.9994 4.06709 5.44831 3.9829
150 1 -1.1104 15.9994 1.30199 8.14156 1.34043
151 1 -1.1104 15.9994 4.06026 8.09262 1.13267
152 1 -1.1104 15.9994 1.10113 8.23296 4.00922
153 1 -1.1104 15.9994 4.18024 8.11665 3.99823
154 1 -1.1104 15.9994 6.8672 5.61655 1.22522
155 1 -1.1104 15.9994 9.83687 5.42408 1.09372
156 1 -1.1104 15.9994 6.84093 5.34931 3.96107
157 1 -1.1104 15.9994 9.60864 5.35699 3.94379
158 1 -1.1104 15.9994 6.65717 8.35706 1.29153
159 1 -1.1104 15.9994 9.65271 8.29672 1.27275
160 1 -1.1104 15.9994 6.90604 8.0578 4.01916
161 1 -1.1104 15.9994 9.67196 8.1606 4.08361
162 1 -1.1104 15.9994 12.4952 5.57157 1.21773
163 1 -1.1104 15.9994 12.2808 5.25831 4.01308
164 1 -1.1104 15.9994 12.6117 8.42807 1.22754
165 1 -1.1104 15.9994 12.5556 8.08398 3.90384
166 1 -1.1104 15.9994 1.49893 11.0177 1.51385
167 1 -1.1104 15.9994 4.17241 11.0116 1.27378
168 1 -1.1104 15.9994 1.30996 11.0331 4.04552
169 1 -1.1104 15.9994 4.26273 10.9557 4.12423
170 1 -1.1104 15.9994 1.16975 13.7879 1.31654
171 1 -1.1104 15.9994 3.90611 13.7857 1.42745
172 1 -1.1104 15.9994 1.23547 13.795 4.14863
173 1 -1.1104 15.9994 4.14728 13.8783 4.13964
174 1 -1.1104 15.9994 6.80523 11.0996 1.26316
175 1 -1.1104 15.9994 9.77863 11.0597 1.31919
176 1 -1.1104 15.9994 7.01189 11.0739 4.14816
177 1 -1.1104 15.9994 9.78051 11.0598 4.1632
178 1 -1.1104 15.9994 6.68032 13.8374 1.38108
179 1 -1.1104 15.9994 9.55684 13.6281 1.30899
180 1 -1.1104 15.9994 6.87914 13.9676 4.05348
181 1 -1.1104 15.9994 9.84145 13.5277 4.24319
182 1 -1.1104 15.9994 12.5939 11.3195 1.27553
183 1 -1.1104 15.9994 12.5947 10.8773 4.13754
184 1 -1.1104 15.9994 12.3018 13.9093 1.20264
185 1 -1.1104 15.9994 12.6562 13.9021 3.97041
186 1 -1.1104 15.9994 1.23516 16.6227 1.13281
187 1 -1.1104 15.9994 4.09916 16.6319 1.25678
188 1 -1.1104 15.9994 1.14289 16.7439 4.05121
189 1 -1.1104 15.9994 3.95724 16.584 4.1499
190 1 -1.1104 15.9994 1.02107 19.6786 1.61735
191 1 -1.1104 15.9994 3.786 19.2815 1.51196
192 1 -1.1104 15.9994 1.37859 19.6239 4.26776
193 1 -1.1104 15.9994 3.95152 19.3004 4.17707
194 1 -1.1104 15.9994 6.88954 16.5574 1.46318
195 1 -1.1104 15.9994 9.64955 16.6935 1.25431
196 1 -1.1104 15.9994 6.79143 16.6993 4.24879
197 1 -1.1104 15.9994 9.642 16.4131 4.02451
198 1 -1.1104 15.9994 6.65235 19.4643 1.33402
199 1 -1.1104 15.9994 9.68633 19.4084 1.10094
200 1 -1.1104 15.9994 6.83324 19.5553 3.97686
201 1 -1.1104 15.9994 9.58157 19.4239 3.95272
202 1 -1.1104 15.9994 12.5546 16.5945 1.12447
203 1 -1.1104 15.9994 12.4296 16.5223 3.89621
204 1 -1.1104 15.9994 12.37 19.4528 1.14568
205 1 -1.1104 15.9994 12.6011 19.1652 4.06198
206 1 -1.1104 15.9994 1.10991 22.3999 1.19601
207 1 -1.1104 15.9994 4.14399 22.3216 1.49467
208 1 -1.1104 15.9994 1.32016 22.3562 4.24223
209 1 -1.1104 15.9994 4.01674 22.4563 4.34654
210 1 -1.1104 15.9994 6.90585 22.502 1.41567
211 1 -1.1104 15.9994 9.62749 22.1538 1.08586
212 1 -1.1104 15.9994 6.97247 22.0518 4.13259
213 1 -1.1104 15.9994 9.67031 22.2353 4.03529
214 1 -1.1104 15.9994 12.5403 22.4248 1.22397
215 1 -1.1104 15.9994 12.4401 22.087 3.90794
216 1 -1.1104 15.9994 1.3337 -0.366832 6.90424
217 1 -1.1104 15.9994 4.18333 -0.211751 6.97785
8981 2 2.2208 232.038 -0.0283195 15.1935 11.2627
219 1 -1.1104 15.9994 4.22468 -0.224683 9.61053
220 1 -1.1104 15.9994 1.41587 2.3874 6.79503
221 1 -1.1104 15.9994 4.14791 2.60118 6.80152
222 1 -1.1104 15.9994 1.22384 -0.299093 9.61365
223 1 -1.1104 15.9994 4.11755 2.70863 9.47126
224 1 -1.1104 15.9994 7.04695 -0.364939 6.769
225 1 -1.1104 15.9994 9.77266 -0.371014 6.87204
226 1 -1.1104 15.9994 7.142 -0.28398 9.64663
227 1 -1.1104 15.9994 9.87126 -0.15253 9.75832
228 1 -1.1104 15.9994 6.92023 2.64599 6.7311
229 1 -1.1104 15.9994 9.59782 2.45013 6.89869
230 1 -1.1104 15.9994 7.0997 2.52754 9.66713
231 1 -1.1104 15.9994 9.69145 2.61586 9.76686
232 1 -1.1104 15.9994 12.5381 -0.252003 6.81567
233 1 -1.1104 15.9994 12.576 -0.140856 9.71583
234 1 -1.1104 15.9994 12.3771 2.604 6.87677
235 1 -1.1104 15.9994 12.8375 2.82198 9.74792
236 1 -1.1104 15.9994 1.16837 5.34622 6.7535
237 1 -1.1104 15.9994 3.911 5.33854 6.75762
238 1 -1.1104 15.9994 1.10937 2.58774 9.70073
239 1 -1.1104 15.9994 4.02827 5.43652 9.46331
240 1 -1.1104 15.9994 1.36078 8.20319 6.74936
241 1 -1.1104 15.9994 4.11016 8.32303 6.73538
242 1 -1.1104 15.9994 1.1273 5.26136 9.75436
243 1 -1.1104 15.9994 3.97341 8.05058 9.6941
244 1 -1.1104 15.9994 6.88976 5.36896 6.9549
245 1 -1.1104 15.9994 9.69893 5.30695 6.74704
246 1 -1.1104 15.9994 6.90936 5.33368 9.8813
247 1 -1.1104 15.9994 9.4699 5.39733 9.54768
248 1 -1.1104 15.9994 6.9364 8.12378 6.77453
249 1 -1.1104 15.9994 9.65798 8.11402 6.97166
250 1 -1.1104 15.9994 6.6831 8.20513 9.5001
251 1 -1.1104 15.9994 9.75313 8.06162 9.76276
252 1 -1.1104 15.9994 12.3961 5.38914 6.78756
253 1 -1.1104 15.9994 12.382 5.51874 9.6074
254 1 -1.1104 15.9994 12.453 8.09911 6.81379
255 1 -1.1104 15.9994 12.6682 8.14781 9.54127
256 1 -1.1104 15.9994 1.41373 11.0445 6.97408
257 1 -1.1104 15.9994 4.28317 11.046 6.87379
258 1 -1.1104 15.9994 1.10512 8.14424 9.67847
259 1 -1.1104 15.9994 4.01186 11.0292 9.55844
260 1 -1.1104 15.9994 1.21305 13.796 6.87627
261 1 -1.1104 15.9994 4.20297 14.0156 7.08792
262 1 -1.1104 15.9994 1.22269 11.0171 9.75683
263 1 -1.1104 15.9994 4.17207 13.6251 9.69069
264 1 -1.1104 15.9994 6.81048 10.8653 6.86848
265 1 -1.1104 15.9994 9.67322 11.0109 6.82723
266 1 -1.1104 15.9994 6.91499 11.0257 9.7412
267 1 -1.1104 15.9994 9.64287 10.8785 9.76437
268 1 -1.1104 15.9994 6.96279 13.8786 6.77836
269 1 -1.1104 15.9994 9.83797 13.8342 6.83476
270 1 -1.1104 15.9994 6.89015 13.8323 9.47398
271 1 -1.1104 15.9994 9.68418 13.5968 9.75525
272 1 -1.1104 15.9994 12.4405 11.0776 6.85758
273 1 -1.1104 15.9994 12.4299 10.9619 9.76005
274 1 -1.1104 15.9994 12.647 13.893 6.80702
275 1 -1.1104 15.9994 12.6863 13.8103 9.83979
276 1 -1.1104 15.9994 1.19324 16.4478 6.85296
277 1 -1.1104 15.9994 3.98354 16.728 6.90365
278 1 -1.1104 15.9994 1.37566 13.8768 9.74805
279 1 -1.1104 15.9994 4.01821 16.5528 9.86689
280 1 -1.1104 15.9994 1.02672 19.4739 7.00319
281 1 -1.1104 15.9994 4.0835 19.3196 6.86264
282 1 -1.1104 15.9994 1.28126 16.6223 9.84061
283 1 -1.1104 15.9994 4.16031 19.317 9.61885
284 1 -1.1104 15.9994 6.99241 16.5683 7.03458
285 1 -1.1104 15.9994 9.73833 16.5945 6.72485
286 1 -1.1104 15.9994 7.06688 16.9018 9.91319
287 1 -1.1104 15.9994 10.1005 16.2401 9.28205
288 1 -1.1104 15.9994 6.94892 19.4094 6.96058
289 1 -1.1104 15.9994 9.60547 19.5645 6.69987
290 1 -1.1104 15.9994 6.95801 19.5295 9.71409
291 1 -1.1104 15.9994 9.92634 19.5118 9.63291
292 1 -1.1104 15.9994 12.4986 16.572 6.83227
293 1 -1.1104 15.9994 12.6817 16.5025 9.93624
294 1 -1.1104 15.9994 12.5655 19.5952 6.78185
295 1 -1.1104 15.9994 12.4605 19.3491 9.72428
296 1 -1.1104 15.9994 1.33933 22.3859 7.02339
297 1 -1.1104 15.9994 4.1015 22.3318 6.94467
298 1 -1.1104 15.9994 1.02153 22.1295 9.87378
299 1 -1.1104 15.9994 3.85627 22.0432 9.81828
300 1 -1.1104 15.9994 6.94629 22.3068 6.91641
301 1 -1.1104 15.9994 9.64009 22.3153 6.84899
302 1 -1.1104 15.9994 6.80222 22.2607 9.70369
303 1 -1.1104 15.9994 9.59103 22.2256 9.60185
304 1 -1.1104 15.9994 12.5772 22.3195 6.99344
305 1 -1.1104 15.9994 12.4322 22.2845 9.64857
306 1 -1.1104 15.9994 1.29506 -0.15897 12.3248
307 1 -1.1104 15.9994 4.00778 -0.223064 12.385
308 1 -1.1104 15.9994 1.22144 2.78984 12.5494
309 1 -1.1104 15.9994 4.09107 2.60626 12.3659
316 1 -1.1104 15.9994 1.12139 5.45301 12.5282
311 1 -1.1104 15.9994 9.66424 -0.292161 12.5073
312 1 -1.1104 15.9994 6.82167 -0.301566 12.4848
313 1 -1.1104 15.9994 9.76537 2.57088 12.5829
314 1 -1.1104 15.9994 12.623 -0.204069 12.527
315 1 -1.1104 15.9994 12.5899 2.61264 12.4919
5 2 2.2208 232.038 13.9061 15.2221 8.40065
9052 2 2.2208 232.038 13.9579 9.50942 8.37028
1 2 2.2208 232.038 13.8427 23.5358 5.49692
8993 2 2.2208 232.038 -0.0643405 9.7609 5.38026
12 2 2.2208 232.038 13.8282 20.7556 2.53536
91 2 2.2208 232.038 -0.0416519 21.0289 5.5468
2 2 2.2208 232.038 13.8156 20.7584 8.31273
9041 2 2.2208 232.038 13.7417 6.64869 5.34781
15 2 2.2208 232.038 13.9421 15.2362 2.68504
9096 2 2.2208 232.038 13.8736 17.9821 11.2402
344 2 2.2208 232.038 5.41989 18.1718 13.9055
9007 2 2.2208 232.038 -0.0135484 1.26572 2.66803
668 2 2.2208 232.038 -0.0918489 15.2289 -0.114543
9091 2 2.2208 232.038 13.8529 12.2734 11.2842
669 2 2.2208 232.038 2.53052 18.0451 -0.0762318
9081 2 2.2208 232.038 13.9724 1.1784 11.152
8988 2 2.2208 232.038 -0.0844096 12.2027 8.412
121 2 2.2208 232.038 -0.0650551 20.7571 11.1875
335 2 2.2208 232.038 11.0383 6.90415 13.8311
676 2 2.2208 232.038 8.09124 23.6951 -0.212331
338 2 2.2208 232.038 8.21518 9.80955 13.8172
329 2 2.2208 232.038 5.47585 1.26427 13.7291
662 2 2.2208 232.038 10.9671 -1.70937 -0.032269
336 2 2.2208 232.038 2.45204 9.64239 13.903
9329 2 2.2208 232.038 13.6844 15.3184 13.9141
670 2 2.2208 232.038 5.4961 15.2618 -0.0966686
9661 2 2.2208 232.038 -0.168522 1.17085 13.9026
675 2 2.2208 232.038 5.28605 20.8687 -0.0490922
409 2 2.2208 232.038 11.0796 -1.48129 22.3275
327 1 -1.1104 15.9994 6.59652 22.4963 26.7086
359 2 2.2208 232.038 11.1486 -1.52378 16.844
405 2 2.2208 232.038 5.38679 -1.55498 22.2956
9420 2 2.2208 232.038 13.891 15.2839 25.2922
357 2 2.2208 232.038 8.09606 -1.46448 19.6785
332 1 -1.1104 15.9994 9.55447 22.3334 23.5514
355 2 2.2208 232.038 5.50381 -1.36695 16.7449
353 2 2.2208 232.038 2.60128 -1.61589 19.5771
346 2 2.2208 232.038 2.61477 20.9364 14.0306
350 2 2.2208 232.038 11.0341 23.7465 13.9779
337 1 -1.1104 15.9994 6.78381 22.3507 23.7704
657 2 2.2208 232.038 13.7483 23.6208 22.4853
348 2 2.2208 232.038 8.28392 20.8537 13.9312
9359 2 2.2208 232.038 13.8538 12.3397 16.8295
9389 2 2.2208 232.038 13.8986 1.342 22.426
342 1 -1.1104 15.9994 3.91556 22.2603 26.9104
9379 2 2.2208 232.038 13.8241 23.7332 17.0208
9380 2 2.2208 232.038 13.7557 21.0034 19.6997
9409 2 2.2208 232.038 13.9236 12.6158 22.5241
677 1 -1.1104 15.9994 9.65352 13.9416 26.6413
343 2 2.2208 232.038 8.10494 15.327 13.9575
325 2 2.2208 232.038 5.39288 3.91835 27.9143
642 1 -1.1104 15.9994 12.486 11.1774 23.8453
9360 2 2.2208 232.038 13.9454 9.57399 19.7134
351 1 -1.1104 15.9994 1.23282 22.1126 26.6363
352 2 2.2208 232.038 2.73776 1.1668 16.7079
641 1 -1.1104 15.9994 9.76987 11.1192 26.6351
354 1 -1.1104 15.9994 4.23325 21.9326 24.0826
650 1 -1.1104 15.9994 1.18943 19.1874 23.8478
356 2 2.2208 232.038 8.36077 1.41813 16.8945
644 1 -1.1104 15.9994 12.2579 14.0331 23.8788
358 2 2.2208 232.038 5.36874 1.47711 19.5501
649 1 -1.1104 15.9994 4.03898 16.4886 26.6134
360 2 2.2208 232.038 10.9224 1.16378 19.6654
361 1 -1.1104 15.9994 1.18293 22.3287 23.8841
362 2 2.2208 232.038 2.58027 6.97842 16.8677
363 2 2.2208 232.038 2.68749 4.14015 19.449
364 1 -1.1104 15.9994 12.3867 19.2564 26.5262
365 2 2.2208 232.038 5.48571 4.09062 16.7896
366 2 2.2208 232.038 8.22933 6.95794 17.0057
367 2 2.2208 232.038 8.2292 4.02778 19.7452
368 2 2.2208 232.038 5.45842 6.87058 19.647
369 2 2.2208 232.038 11.0413 4.24618 16.9144
370 2 2.2208 232.038 11.1356 6.79932 19.6556
371 1 -1.1104 15.9994 12.433 19.5209 23.6989
372 2 2.2208 232.038 2.61141 12.35 16.8011
373 2 2.2208 232.038 2.54573 9.73418 19.6134
640 1 -1.1104 15.9994 6.80978 13.7696 26.6401
375 2 2.2208 232.038 5.5551 9.66671 16.7753
376 2 2.2208 232.038 8.23759 12.5215 16.7351
377 2 2.2208 232.038 8.39994 9.90665 19.6354
378 2 2.2208 232.038 5.42742 12.51 19.6839
379 2 2.2208 232.038 11.0374 9.68148 16.8156
380 2 2.2208 232.038 11.157 12.4576 19.5602
381 1 -1.1104 15.9994 12.5486 16.6498 26.4923
382 2 2.2208 232.038 2.64245 18.2518 16.7787
383 2 2.2208 232.038 2.47223 15.3163 19.5225
648 1 -1.1104 15.9994 1.06143 16.6939 26.6462
385 2 2.2208 232.038 5.46349 15.4159 16.7697
386 2 2.2208 232.038 8.23537 18.0814 16.7979
387 2 2.2208 232.038 8.13895 15.2606 19.7187
388 2 2.2208 232.038 5.317 18.0487 19.6431
389 2 2.2208 232.038 11.1079 15.2299 16.8734
390 2 2.2208 232.038 11.1762 18.1697 19.5535
391 1 -1.1104 15.9994 12.3638 22.0943 26.488
392 2 2.2208 232.038 2.49887 23.6324 16.8636
393 2 2.2208 232.038 2.81349 20.8713 19.6101
671 2 2.2208 232.038 8.28037 18.1687 27.9176
395 2 2.2208 232.038 5.48637 20.978 16.7188
396 2 2.2208 232.038 8.17268 23.6671 16.8364
397 2 2.2208 232.038 8.05992 20.8594 19.5367
398 2 2.2208 232.038 5.30922 23.7722 19.6088
399 2 2.2208 232.038 11.0879 21.0445 16.715
400 2 2.2208 232.038 10.8084 23.8152 19.6504
401 1 -1.1104 15.9994 12.2516 16.7319 23.7369
402 2 2.2208 232.038 2.55508 1.17557 22.3138
647 1 -1.1104 15.9994 3.94889 16.5772 23.662
404 1 -1.1104 15.9994 9.67735 19.5605 26.4749
646 1 -1.1104 15.9994 1.05993 16.6292 23.8825
406 2 2.2208 232.038 8.19637 1.30943 22.5555
651 1 -1.1104 15.9994 3.89852 19.3282 24.0317
408 2 2.2208 232.038 5.35782 1.29856 25.1358
654 1 -1.1104 15.9994 6.86163 16.8193 23.8215
410 2 2.2208 232.038 11.038 1.21133 25.2454
411 1 -1.1104 15.9994 6.75536 19.5559 26.6675
412 2 2.2208 232.038 2.65202 6.82642 22.3737
413 2 2.2208 232.038 2.59094 4.01396 25.1389
414 1 -1.1104 15.9994 9.62385 19.4318 23.6118
415 2 2.2208 232.038 5.50529 4.15666 22.4026
416 2 2.2208 232.038 8.36165 7.00015 22.4272
417 2 2.2208 232.038 8.09239 4.23091 25.1245
418 2 2.2208 232.038 5.40227 6.92372 25.2211
419 2 2.2208 232.038 11.2332 4.07965 22.4607
420 2 2.2208 232.038 11.1925 6.94918 25.1339
421 1 -1.1104 15.9994 6.77628 19.5378 23.8869
422 2 2.2208 232.038 2.51278 12.4525 22.5559
423 2 2.2208 232.038 2.6026 9.74668 25.217
424 1 -1.1104 15.9994 9.57309 16.6458 26.6227
425 2 2.2208 232.038 5.43014 9.6602 22.3084
426 2 2.2208 232.038 8.27868 12.3171 22.4108
427 2 2.2208 232.038 8.34274 9.61174 25.3112
428 2 2.2208 232.038 5.5315 12.5107 25.0388
429 2 2.2208 232.038 11.3188 9.78789 22.4083
430 2 2.2208 232.038 11.0784 12.514 25.2806
652 1 -1.1104 15.9994 0.929895 19.3467 26.8089
432 2 2.2208 232.038 2.65273 18.0067 22.404
433 2 2.2208 232.038 2.40329 15.2944 25.2821
653 1 -1.1104 15.9994 3.93272 19.4315 26.8616
435 2 2.2208 232.038 5.27077 15.2306 22.3994
436 2 2.2208 232.038 8.12584 18.0889 22.297
437 2 2.2208 232.038 8.12805 15.2174 25.1227
438 2 2.2208 232.038 5.43419 18.0548 25.2906
439 2 2.2208 232.038 11.0771 15.3285 22.3472
440 2 2.2208 232.038 10.8717 18.0314 25.0645
656 1 -1.1104 15.9994 6.81433 16.7151 26.8195
442 1 -1.1104 15.9994 12.3932 22.276 23.7479
443 2 2.2208 232.038 2.58525 20.9287 25.2048
655 1 -1.1104 15.9994 9.6654 16.6205 23.8498
445 2 2.2208 232.038 5.27154 20.876 22.4677
446 2 2.2208 232.038 8.19933 23.7664 22.3543
447 2 2.2208 232.038 8.00035 21.0012 25.1929
448 2 2.2208 232.038 5.36613 23.8101 25.163
449 2 2.2208 232.038 10.9376 20.7851 22.306
450 2 2.2208 232.038 11.0341 23.6355 25.1511
451 1 -1.1104 15.9994 1.1533 -0.206747 15.2213
452 1 -1.1104 15.9994 4.10537 -0.0283345 15.1598
453 1 -1.1104 15.9994 1.33921 2.60892 15.206
454 1 -1.1104 15.9994 4.17887 2.63955 15.252
455 1 -1.1104 15.9994 6.77772 -0.00343542 15.2792
456 1 -1.1104 15.9994 9.81576 -0.0885466 15.2735
457 1 -1.1104 15.9994 6.95799 2.75294 15.5151
458 1 -1.1104 15.9994 9.76178 2.68178 15.3753
459 1 -1.1104 15.9994 12.4772 -0.0247132 15.4
460 1 -1.1104 15.9994 12.8256 2.79863 15.5226
461 1 -1.1104 15.9994 1.34443 5.51507 15.5193
462 1 -1.1104 15.9994 4.13015 5.40266 15.3795
463 1 -1.1104 15.9994 1.07743 8.04745 15.4925
464 1 -1.1104 15.9994 3.87984 8.29388 15.3883
465 1 -1.1104 15.9994 6.92658 5.54383 15.6019
466 1 -1.1104 15.9994 9.48426 5.38184 15.5526
643 1 -1.1104 15.9994 12.5871 10.8648 26.6459
468 1 -1.1104 15.9994 9.61599 8.22091 15.2474
469 1 -1.1104 15.9994 12.3387 5.37885 15.275
470 1 -1.1104 15.9994 12.4217 8.24129 15.5028
471 1 -1.1104 15.9994 1.25718 11.0337 15.5072
472 1 -1.1104 15.9994 4.11311 11.0615 15.3767
473 1 -1.1104 15.9994 1.36302 13.7048 15.5714
474 1 -1.1104 15.9994 4.15981 13.9207 15.3731
475 1 -1.1104 15.9994 6.89181 8.31794 15.2068
476 1 -1.1104 15.9994 9.80698 11.1137 15.4515
477 1 -1.1104 15.9994 6.88544 11.1177 15.4046
478 1 -1.1104 15.9994 9.54302 13.8217 15.4616
479 1 -1.1104 15.9994 12.5648 11.0355 15.5493
480 1 -1.1104 15.9994 12.3756 13.7986 15.5148
481 1 -1.1104 15.9994 1.26427 16.6049 15.258
482 1 -1.1104 15.9994 4.10152 16.8804 15.4087
645 1 -1.1104 15.9994 12.5651 13.7207 26.6673
484 1 -1.1104 15.9994 1.36901 19.3912 15.269
485 1 -1.1104 15.9994 6.81943 13.9362 15.2574
486 1 -1.1104 15.9994 9.5948 16.7526 15.1166
487 1 -1.1104 15.9994 6.83854 16.6998 15.4324
488 1 -1.1104 15.9994 9.59816 19.4949 15.3733
489 1 -1.1104 15.9994 12.3792 16.5329 15.3535
490 1 -1.1104 15.9994 12.4096 19.456 15.2913
491 1 -1.1104 15.9994 4.15896 22.2909 15.4113
492 1 -1.1104 15.9994 4.06292 19.5271 15.1165
493 1 -1.1104 15.9994 6.88641 22.3093 15.4603
494 1 -1.1104 15.9994 9.81473 22.4068 15.2465
495 1 -1.1104 15.9994 12.5912 22.3115 15.4452
496 1 -1.1104 15.9994 1.38776 -0.209215 18.2375
497 1 -1.1104 15.9994 4.25002 -0.118995 18.1368
498 1 -1.1104 15.9994 1.22005 -0.472674 20.8078
499 1 -1.1104 15.9994 3.76068 -0.158048 20.8544
500 1 -1.1104 15.9994 1.18493 2.46655 17.9327
501 1 -1.1104 15.9994 3.92996 2.71203 17.9988
502 1 -1.1104 15.9994 1.15749 2.56229 20.9275
503 1 -1.1104 15.9994 3.93993 2.52055 20.9142
504 1 -1.1104 15.9994 6.83005 0.130252 18.2546
505 1 -1.1104 15.9994 9.54602 -0.178408 18.1588
506 1 -1.1104 15.9994 6.68462 0.0330281 20.8711
507 1 -1.1104 15.9994 9.44925 -0.251526 21.0395
508 1 -1.1104 15.9994 6.89078 2.81205 18.2599
509 1 -1.1104 15.9994 9.63145 2.84556 18.1459
510 1 -1.1104 15.9994 6.84133 2.64556 21.1419
511 1 -1.1104 15.9994 9.7047 2.65107 21.0644
512 1 -1.1104 15.9994 12.3393 -0.262987 18.3336
513 1 -1.1104 15.9994 12.394 -0.112393 20.8421
514 1 -1.1104 15.9994 12.3951 2.61808 18.0495
515 1 -1.1104 15.9994 12.4368 2.70954 20.9909
516 1 -1.1104 15.9994 1.21488 5.42961 18.3176
517 1 -1.1104 15.9994 4.11184 5.46998 18.0756
518 1 -1.1104 15.9994 1.19851 5.3627 20.8904
519 1 -1.1104 15.9994 4.11563 5.50124 21.0392
520 1 -1.1104 15.9994 1.17779 8.18276 18.1953
521 1 -1.1104 15.9994 4.20704 8.39035 18.1148
522 1 -1.1104 15.9994 1.2668 8.30772 20.9756
523 1 -1.1104 15.9994 4.10496 8.04796 20.9157
524 1 -1.1104 15.9994 6.81015 5.59442 18.4382
525 1 -1.1104 15.9994 9.70387 5.34276 18.3612
526 1 -1.1104 15.9994 6.88929 5.42679 21.0692
527 1 -1.1104 15.9994 9.89625 5.38921 21.1131
528 1 -1.1104 15.9994 6.9229 8.42152 18.2715
529 1 -1.1104 15.9994 9.59952 8.25295 18.2388
530 1 -1.1104 15.9994 6.88957 8.24904 21.2195
531 1 -1.1104 15.9994 9.86617 8.19501 21.099
532 1 -1.1104 15.9994 12.5844 5.55004 18.3125
533 1 -1.1104 15.9994 12.7945 5.608 20.9558
534 1 -1.1104 15.9994 12.3106 8.13894 18.2359
535 1 -1.1104 15.9994 12.6254 8.33011 21.2486
536 1 -1.1104 15.9994 1.16658 11.0235 18.204
537 1 -1.1104 15.9994 3.88441 10.9769 18.1377
538 1 -1.1104 15.9994 1.488 11.0596 21.1023
539 1 -1.1104 15.9994 4.08062 11.04 21.0443
540 1 -1.1104 15.9994 1.19647 13.6974 18.2436
541 1 -1.1104 15.9994 4.275 14.0442 18.5177
542 1 -1.1104 15.9994 1.05125 13.9469 20.9824
543 1 -1.1104 15.9994 3.75377 13.7088 21.1067
544 1 -1.1104 15.9994 6.80405 11.2491 18.3459
545 1 -1.1104 15.9994 9.59993 10.9551 18.1044
546 1 -1.1104 15.9994 6.89341 10.9676 21.1547
547 1 -1.1104 15.9994 9.74525 11.0449 21.1132
548 1 -1.1104 15.9994 6.8973 14.0251 18.0572
549 1 -1.1104 15.9994 9.67983 13.8418 18.2568
550 1 -1.1104 15.9994 6.71834 13.7676 21.0447
551 1 -1.1104 15.9994 9.79753 13.8357 21.0098
552 1 -1.1104 15.9994 12.4253 10.9455 18.2244
553 1 -1.1104 15.9994 12.5507 11.1474 20.9632
554 1 -1.1104 15.9994 12.5933 13.6663 18.1824
555 1 -1.1104 15.9994 12.444 13.9341 21.0311
556 1 -1.1104 15.9994 1.14104 16.6776 18.0731
557 1 -1.1104 15.9994 4.07967 16.6571 18.3664
558 1 -1.1104 15.9994 1.21769 16.646 20.8588
559 1 -1.1104 15.9994 3.93519 16.5298 21.055
560 1 -1.1104 15.9994 4.24197 19.6036 18.1706
561 1 -1.1104 15.9994 6.73362 19.4707 15.3156
562 1 -1.1104 15.9994 1.504 19.2324 18.5735
563 1 -1.1104 15.9994 3.87219 19.467 21.1001
564 1 -1.1104 15.9994 6.70128 16.5686 18.4832
565 1 -1.1104 15.9994 9.63901 16.6933 18.1044
566 1 -1.1104 15.9994 6.834 16.5947 21.1764
567 1 -1.1104 15.9994 9.54814 16.8942 20.8023
568 1 -1.1104 15.9994 6.81508 19.374 18.267
569 1 -1.1104 15.9994 9.73205 19.5845 18.235
570 1 -1.1104 15.9994 6.63271 19.4706 21.0072
571 1 -1.1104 15.9994 9.65506 19.5624 21.0131
572 1 -1.1104 15.9994 12.4774 16.7204 17.9893
573 1 -1.1104 15.9994 12.491 16.7524 20.8362
574 1 -1.1104 15.9994 12.4651 19.5885 18.2032
575 1 -1.1104 15.9994 12.5343 19.5253 21.1287
576 1 -1.1104 15.9994 1.26717 22.6101 18.9162
577 1 -1.1104 15.9994 4.14663 22.3506 18.0475
578 1 -1.1104 15.9994 1.31196 19.8868 21.1668
579 1 -1.1104 15.9994 4.04763 22.337 20.9433
580 1 -1.1104 15.9994 6.76699 22.354 18.172
581 1 -1.1104 15.9994 9.58506 22.2508 18.1219
582 1 -1.1104 15.9994 6.73759 22.219 20.9862
583 1 -1.1104 15.9994 9.48002 22.2655 20.7874
584 1 -1.1104 15.9994 12.3438 22.5017 18.2061
585 1 -1.1104 15.9994 12.321 22.1941 21.0299
586 1 -1.1104 15.9994 1.11252 -0.397068 23.6514
587 1 -1.1104 15.9994 4.09371 -0.26569 23.7106
588 1 -1.1104 15.9994 1.24468 -0.384267 26.4601
589 1 -1.1104 15.9994 3.97974 -0.174718 26.4936
590 1 -1.1104 15.9994 1.10561 2.51232 23.7593
591 1 -1.1104 15.9994 4.01026 2.66114 23.7366
592 1 -1.1104 15.9994 1.23965 2.49416 26.584
593 1 -1.1104 15.9994 3.97739 2.59832 26.6707
594 1 -1.1104 15.9994 6.94853 -0.272945 23.5888
595 1 -1.1104 15.9994 9.74653 -0.0437346 23.6959
596 1 -1.1104 15.9994 6.93303 -0.334655 26.33
597 1 -1.1104 15.9994 9.72222 -0.306132 26.6349
598 1 -1.1104 15.9994 6.76018 2.58427 23.7975
599 1 -1.1104 15.9994 9.70239 2.79473 23.7304
600 1 -1.1104 15.9994 6.87058 2.51309 26.6107
601 1 -1.1104 15.9994 9.66661 2.59315 26.6117
602 1 -1.1104 15.9994 12.4936 -0.24552 23.856
603 1 -1.1104 15.9994 12.5915 -0.129856 26.6871
604 1 -1.1104 15.9994 12.539 2.59025 23.7676
605 1 -1.1104 15.9994 12.4026 2.65626 26.5476
606 1 -1.1104 15.9994 1.07471 5.25228 23.8326
607 1 -1.1104 15.9994 3.91987 5.48649 23.8448
608 1 -1.1104 15.9994 1.27489 5.31913 26.6594
609 1 -1.1104 15.9994 4.00617 5.2691 26.4776
610 1 -1.1104 15.9994 1.08368 8.11868 23.8763
611 1 -1.1104 15.9994 4.0364 8.32455 23.9555
612 1 -1.1104 15.9994 1.18217 8.15685 26.6817
613 1 -1.1104 15.9994 3.74938 8.11433 26.4436
614 1 -1.1104 15.9994 6.67155 5.39313 23.7455
615 1 -1.1104 15.9994 9.47519 5.73248 23.9174
616 1 -1.1104 15.9994 6.6342 5.25686 26.489
617 1 -1.1104 15.9994 9.47755 5.47252 26.489
618 1 -1.1104 15.9994 6.81422 8.14571 23.7555
619 1 -1.1104 15.9994 9.96305 8.48251 23.6853
620 1 -1.1104 15.9994 6.88962 8.22203 26.6268
621 1 -1.1104 15.9994 9.72168 8.22722 26.5441
622 1 -1.1104 15.9994 12.3823 5.41613 23.7711
623 1 -1.1104 15.9994 12.5589 5.42034 26.5293
624 1 -1.1104 15.9994 12.6339 8.33407 23.9488
625 1 -1.1104 15.9994 12.5623 8.14103 26.7499
626 1 -1.1104 15.9994 1.2258 11.02 23.9029
627 1 -1.1104 15.9994 4.06187 11.1185 23.8438
628 1 -1.1104 15.9994 1.23309 11.0452 26.7538
629 1 -1.1104 15.9994 4.13656 10.9939 26.681
630 1 -1.1104 15.9994 1.07514 13.7867 23.8293
631 1 -1.1104 15.9994 3.95515 13.7035 23.9127
632 1 -1.1104 15.9994 1.15205 13.764 26.6932
633 1 -1.1104 15.9994 4.13054 13.752 26.7621