ITEM: TIMESTEP
390000
ITEM: NUMBER OF ATOMS
18000
ITEM: BOX BOUNDS xy xz yz pp pp pp
-1.3905580793456243e-01 2.8033055807933788e+01 0.0000000000000000e+00
-1.4884063010534001e+00 3.3621640630102968e+02 0.0000000000000000e+00
-1.3250433233464876e-01 2.8026504332335186e+01 0.0000000000000000e+00
ITEM: ATOMS id type q mass x y z
9690 2 2.2208 232.038 0.0293691 4.12875 -0.0876294
324 1 -1.1104 15.9994 12.6501 5.48304 12.4858
8994 2 2.2208 232.038 -0.0286269 7.09372 8.34463
4 1 -1.1104 15.9994 12.6239 22.3427 12.5988
323 1 -1.1104 15.9994 9.92484 8.2406 12.6045
322 1 -1.1104 15.9994 7.07455 5.46221 12.5507
8993 2 2.2208 232.038 0.02378 9.83677 5.39904
8 2 2.2208 232.038 5.76124 1.4078 2.65241
9 1 -1.1104 15.9994 12.5636 8.32576 12.7214
10 2 2.2208 232.038 11.2278 1.4864 2.67999
11 1 -1.1104 15.9994 9.78539 22.2889 12.6424
321 1 -1.1104 15.9994 9.84826 5.58958 12.5199
13 2 2.2208 232.038 2.82098 4.10313 2.54058
14 1 -1.1104 15.9994 6.91578 22.1004 12.4346
9007 2 2.2208 232.038 -0.00436182 1.27327 2.59697
8983 2 2.2208 232.038 0.0820632 9.8599 10.956
17 2 2.2208 232.038 8.39297 4.14524 2.62159
18 2 2.2208 232.038 5.64575 7.01644 2.55161
8997 2 2.2208 232.038 -0.128795 4.19485 5.62622
20 2 2.2208 232.038 11.3245 6.94553 2.48608
21 1 -1.1104 15.9994 4.15397 22.5363 12.543
22 1 -1.1104 15.9994 1.16089 16.7826 12.4487
23 2 2.2208 232.038 2.67934 9.89117 2.49417
320 1 -1.1104 15.9994 6.85855 2.68611 12.4519
9003 2 2.2208 232.038 -0.0867636 -1.44335 5.48913
9661 2 2.2208 232.038 -0.163024 1.42938 13.9348
27 2 2.2208 232.038 8.33193 9.85791 2.64378
28 2 2.2208 232.038 5.67639 12.677 2.57567
8988 2 2.2208 232.038 0.0678222 12.4992 8.21996
30 2 2.2208 232.038 11.3218 12.6307 2.64179
31 1 -1.1104 15.9994 12.6438 13.9957 12.4363
32 1 -1.1104 15.9994 12.6057 11.1593 12.4945
33 2 2.2208 232.038 2.78164 15.3979 2.67307
319 1 -1.1104 15.9994 4.38623 8.27513 12.4217
35 1 -1.1104 15.9994 9.78748 13.9258 12.7252
36 1 -1.1104 15.9994 6.95705 13.885 12.4893
37 2 2.2208 232.038 8.46341 15.5286 2.64738
38 2 2.2208 232.038 5.58643 18.3819 2.62307
39 1 -1.1104 15.9994 9.90072 11.1302 12.5463
40 2 2.2208 232.038 11.0747 18.2576 2.66782
41 1 -1.1104 15.9994 6.95238 11.2054 12.6877
42 1 -1.1104 15.9994 4.35277 14.0232 12.6462
43 2 2.2208 232.038 2.76139 20.9666 2.63325
318 1 -1.1104 15.9994 1.66883 8.69106 12.5843
45 1 -1.1104 15.9994 1.61663 14.1329 12.4523
46 1 -1.1104 15.9994 4.07514 11.2073 12.4618
47 2 2.2208 232.038 8.30941 21.1818 2.75352
48 2 2.2208 232.038 5.42864 23.8572 2.68321
49 1 -1.1104 15.9994 1.28244 11.3132 12.3504
50 2 2.2208 232.038 11.1649 23.8287 2.62675
51 1 -1.1104 15.9994 1.49673 22.6252 13.0496
52 2 2.2208 232.038 2.74136 1.30236 5.41365
55 2 2.2208 232.038 5.74815 -1.34493 5.58042
54 1 -1.1104 15.9994 12.5081 19.5605 12.6664
91 2 2.2208 232.038 -0.110331 20.9951 5.33017
56 2 2.2208 232.038 8.46572 1.40171 5.46444
8987 2 2.2208 232.038 -0.0618994 -1.44647 11.2118
58 2 2.2208 232.038 5.64398 1.46344 8.30816
344 2 2.2208 232.038 5.4135 18.0253 13.891
60 2 2.2208 232.038 11.2317 1.16686 8.34551
61 1 -1.1104 15.9994 12.6721 16.7565 12.5154
62 2 2.2208 232.038 2.77545 6.95088 5.49894
63 2 2.2208 232.038 2.7602 4.11018 8.215
64 1 -1.1104 15.9994 9.69393 19.5275 12.62
65 2 2.2208 232.038 5.46986 4.35967 5.38606
66 2 2.2208 232.038 8.44286 7.07494 5.4867
67 2 2.2208 232.038 8.49559 4.16672 8.27916
68 2 2.2208 232.038 5.62379 6.91105 8.34002
69 2 2.2208 232.038 11.2946 4.1967 5.68896
70 2 2.2208 232.038 11.3523 7.01844 8.38609
71 1 -1.1104 15.9994 6.86758 19.4388 12.4827
72 2 2.2208 232.038 2.73266 12.6819 5.43359
73 2 2.2208 232.038 2.95461 9.82612 8.36387
74 1 -1.1104 15.9994 9.83435 16.7058 12.373
75 2 2.2208 232.038 5.55418 9.7674 5.44473
76 2 2.2208 232.038 8.33001 12.612 5.46242
77 2 2.2208 232.038 8.31758 9.76389 8.35924
78 2 2.2208 232.038 5.4957 12.6061 8.22699
79 2 2.2208 232.038 11.1772 9.97569 5.40229
80 2 2.2208 232.038 11.2119 12.8181 8.26292
317 1 -1.1104 15.9994 4.24159 5.48938 12.5041
82 2 2.2208 232.038 2.83737 18.2276 5.46118
83 2 2.2208 232.038 2.58291 15.4356 8.37614
6 2 2.2208 232.038 14.0027 18.2745 5.43511
85 2 2.2208 232.038 5.50778 15.4245 5.57558
86 2 2.2208 232.038 8.28061 18.1859 5.59996
87 2 2.2208 232.038 8.30195 15.3824 8.34124
88 2 2.2208 232.038 5.46646 18.157 8.37517
89 2 2.2208 232.038 11.1204 15.3809 5.30857
90 2 2.2208 232.038 11.0563 18.1276 8.25494
53 2 2.2208 232.038 2.92119 -1.53691 8.23714
92 2 2.2208 232.038 2.61794 23.766 5.37523
93 2 2.2208 232.038 2.75626 21.1324 8.38782
467 1 -1.1104 15.9994 7.06469 8.48123 12.4056
95 2 2.2208 232.038 5.61054 21.0795 5.45886
96 2 2.2208 232.038 8.19031 23.9423 5.56948
97 2 2.2208 232.038 8.47319 20.7836 8.35467
98 2 2.2208 232.038 5.59028 23.4945 8.37706
99 2 2.2208 232.038 11.066 20.9851 5.44549
100 2 2.2208 232.038 11.225 23.3608 8.41903
101 1 -1.1104 15.9994 6.95457 16.634 12.6173
102 2 2.2208 232.038 2.67484 1.40833 11.0879
483 1 -1.1104 15.9994 1.20512 19.7665 12.3641
104 2 2.2208 232.038 8.37876 1.30376 10.9975
8998 2 2.2208 232.038 -0.0292574 1.32785 8.30189
106 1 -1.1104 15.9994 3.87859 19.5273 12.4243
107 2 2.2208 232.038 2.87922 6.90178 11.1953
108 2 2.2208 232.038 5.61864 4.20964 11.1384
109 2 2.2208 232.038 8.48044 7.14302 11.0129
110 2 2.2208 232.038 11.3365 4.03815 11.0208
111 1 -1.1104 15.9994 1.22954 19.4152 9.48947
112 2 2.2208 232.038 2.90974 12.8164 11.0479
113 2 2.2208 232.038 5.53332 9.851 11.1206
114 2 2.2208 232.038 8.51892 12.6924 11.2652
115 2 2.2208 232.038 11.3605 9.96335 11.096
116 1 -1.1104 15.9994 4.1131 16.8108 12.3096
117 2 2.2208 232.038 2.48603 18.1357 11.1048
118 2 2.2208 232.038 5.60987 15.2434 11.0889
119 2 2.2208 232.038 8.19414 18.0671 11.1208
120 2 2.2208 232.038 11.1691 15.4026 11.1808
346 2 2.2208 232.038 2.69837 20.8456 13.7997
122 2 2.2208 232.038 2.62048 23.8964 11.2191
123 2 2.2208 232.038 5.44377 20.9874 11.184
124 2 2.2208 232.038 8.29607 23.566 11.2211
125 2 2.2208 232.038 11.2509 20.7961 11.2692
126 1 -1.1104 15.9994 1.2553 -0.0772638 1.1736
127 1 -1.1104 15.9994 4.06139 -0.144458 1.31321
128 1 -1.1104 15.9994 1.37219 -0.136242 4.18023
129 1 -1.1104 15.9994 4.20945 0.0258946 4.08822
130 1 -1.1104 15.9994 1.48113 2.71814 1.27585
131 1 -1.1104 15.9994 4.04965 2.58105 1.30581
132 1 -1.1104 15.9994 1.42379 2.53089 4.03215
133 1 -1.1104 15.9994 4.28784 2.81515 3.94308
134 1 -1.1104 15.9994 6.93692 -0.11773 1.23552
135 1 -1.1104 15.9994 9.8639 0.14384 1.21611
136 1 -1.1104 15.9994 6.98187 0.0806886 3.92569
137 1 -1.1104 15.9994 9.78121 -0.0243921 4.08459
138 1 -1.1104 15.9994 7.00348 2.78507 1.16432
139 1 -1.1104 15.9994 9.85947 2.73884 1.26211
140 1 -1.1104 15.9994 7.0962 2.81087 3.99835
141 1 -1.1104 15.9994 9.95493 2.87177 4.08249
142 1 -1.1104 15.9994 12.8473 -0.151764 1.10686
143 1 -1.1104 15.9994 12.7005 -0.130892 3.88291
144 1 -1.1104 15.9994 12.8332 2.78239 1.25259
145 1 -1.1104 15.9994 12.6379 2.75136 4.21083
146 1 -1.1104 15.9994 1.43581 5.56787 1.31474
147 1 -1.1104 15.9994 4.25116 5.52239 1.2108
148 1 -1.1104 15.9994 1.20162 5.46298 3.99203
149 1 -1.1104 15.9994 3.95375 5.59197 4.02378
150 1 -1.1104 15.9994 1.32244 8.48601 1.20114
151 1 -1.1104 15.9994 4.36817 8.34903 1.11921
152 1 -1.1104 15.9994 1.2252 8.28194 4.01506
153 1 -1.1104 15.9994 4.13664 8.46677 3.80818
154 1 -1.1104 15.9994 7.08669 5.65289 1.24284
155 1 -1.1104 15.9994 10.0223 5.31642 1.13459
156 1 -1.1104 15.9994 6.92708 5.61505 4.01231
157 1 -1.1104 15.9994 9.9244 5.60505 4.13795
158 1 -1.1104 15.9994 7.08996 8.39557 1.26679
159 1 -1.1104 15.9994 9.8893 8.116 1.12182
160 1 -1.1104 15.9994 6.98009 8.38666 4.0331
161 1 -1.1104 15.9994 9.97 8.45748 3.93751
162 1 -1.1104 15.9994 12.6533 5.41952 1.17205
163 1 -1.1104 15.9994 12.7755 5.54799 4.3061
164 1 -1.1104 15.9994 12.6565 8.32764 1.17396
165 1 -1.1104 15.9994 12.5696 8.42783 4.0966
166 1 -1.1104 15.9994 1.20709 11.0852 1.15538
167 1 -1.1104 15.9994 4.08644 11.0173 1.2524
168 1 -1.1104 15.9994 1.37272 11.2938 3.87949
169 1 -1.1104 15.9994 4.17864 11.1975 3.90954
170 1 -1.1104 15.9994 1.3408 13.86 1.20372
171 1 -1.1104 15.9994 4.02169 13.7682 1.33069
172 1 -1.1104 15.9994 1.18018 13.8942 4.21977
173 1 -1.1104 15.9994 4.33855 13.9397 4.04398
174 1 -1.1104 15.9994 6.86108 11.3225 1.36447
175 1 -1.1104 15.9994 9.73984 11.202 1.2921
176 1 -1.1104 15.9994 6.96063 11.1302 4.02309
177 1 -1.1104 15.9994 9.68791 11.3783 3.89068
178 1 -1.1104 15.9994 7.19881 14.05 1.42525
179 1 -1.1104 15.9994 10.0156 14.1365 1.21027
180 1 -1.1104 15.9994 7.11877 14.1592 4.19175
181 1 -1.1104 15.9994 9.82285 14.0304 4.22028
182 1 -1.1104 15.9994 12.4379 11.223 1.47402
183 1 -1.1104 15.9994 12.7609 11.2139 4.11458
184 1 -1.1104 15.9994 12.6931 13.8984 1.28267
185 1 -1.1104 15.9994 12.7116 13.8353 4.05862
186 1 -1.1104 15.9994 1.25903 16.7364 1.33399
187 1 -1.1104 15.9994 4.18641 16.5742 1.28705
188 1 -1.1104 15.9994 1.30102 16.901 4.11042
189 1 -1.1104 15.9994 3.87979 16.7344 3.96377
190 1 -1.1104 15.9994 1.3901 19.5255 1.28155
191 1 -1.1104 15.9994 4.18271 19.7129 1.28554
192 1 -1.1104 15.9994 1.39211 19.6832 3.97904
193 1 -1.1104 15.9994 4.0766 19.5208 3.99786
194 1 -1.1104 15.9994 6.8894 16.9734 1.1267
195 1 -1.1104 15.9994 9.69544 17.0364 1.25044
196 1 -1.1104 15.9994 6.99395 16.9794 4.23376
197 1 -1.1104 15.9994 9.83394 16.8471 3.95477
198 1 -1.1104 15.9994 6.86389 19.8762 1.38584
199 1 -1.1104 15.9994 9.63498 19.7132 1.17618
200 1 -1.1104 15.9994 6.95874 19.7818 4.24312
201 1 -1.1104 15.9994 9.70741 19.6815 4.07043
202 1 -1.1104 15.9994 12.4553 16.731 1.3895
203 1 -1.1104 15.9994 12.6525 16.6701 4.12565
204 1 -1.1104 15.9994 12.5023 19.5645 1.42202
205 1 -1.1104 15.9994 12.4912 19.4301 4.23989
206 1 -1.1104 15.9994 1.22198 22.4588 1.17528
207 1 -1.1104 15.9994 3.96794 22.385 1.34644
208 1 -1.1104 15.9994 1.09382 22.5002 3.96452
209 1 -1.1104 15.9994 3.97594 22.1899 4.33109
210 1 -1.1104 15.9994 6.96893 22.6202 1.4226
211 1 -1.1104 15.9994 9.66583 22.5593 1.33137
212 1 -1.1104 15.9994 6.83101 22.4708 4.09104
213 1 -1.1104 15.9994 9.4753 22.5541 4.07476
214 1 -1.1104 15.9994 12.6539 22.4014 1.43566
215 1 -1.1104 15.9994 12.5164 22.21 4.23268
216 1 -1.1104 15.9994 1.44003 -0.106118 6.88988
217 1 -1.1104 15.9994 4.39124 -0.256492 7.00377
8984 2 2.2208 232.038 -0.0820592 4.22685 11.0763
219 1 -1.1104 15.9994 4.27661 0.0385123 9.80467
220 1 -1.1104 15.9994 1.42669 2.72149 6.81944
221 1 -1.1104 15.9994 4.09925 2.60123 6.70495
222 1 -1.1104 15.9994 1.46526 -0.055119 9.66588
223 1 -1.1104 15.9994 4.03674 2.70821 9.64119
224 1 -1.1104 15.9994 7.36046 -0.10673 6.85146
225 1 -1.1104 15.9994 9.91949 -0.173424 6.82282
226 1 -1.1104 15.9994 6.8953 -0.072662 9.70024
227 1 -1.1104 15.9994 9.83244 -0.213511 9.58593
228 1 -1.1104 15.9994 7.05769 2.66419 6.97755
229 1 -1.1104 15.9994 9.92944 2.58031 6.89206
230 1 -1.1104 15.9994 6.9633 2.9539 9.70986
231 1 -1.1104 15.9994 9.75149 2.84674 9.75558
232 1 -1.1104 15.9994 12.7279 -0.0902191 6.92724
233 1 -1.1104 15.9994 12.7567 -0.170294 9.58494
234 1 -1.1104 15.9994 12.8591 2.74395 7.03774
235 1 -1.1104 15.9994 12.5851 2.62828 9.59611
236 1 -1.1104 15.9994 1.29231 5.44415 6.80982
237 1 -1.1104 15.9994 4.18932 5.47888 7.00182
238 1 -1.1104 15.9994 1.17523 2.85014 9.58114
239 1 -1.1104 15.9994 4.1334 5.55141 9.79413
240 1 -1.1104 15.9994 1.43096 8.30461 6.82914
241 1 -1.1104 15.9994 4.18241 8.4762 6.94029
242 1 -1.1104 15.9994 1.45488 5.57548 9.70342
243 1 -1.1104 15.9994 4.19495 8.42389 9.66661
244 1 -1.1104 15.9994 6.82041 5.4528 6.8484
245 1 -1.1104 15.9994 9.78286 5.44001 7.00304
246 1 -1.1104 15.9994 7.12873 5.84789 9.74403
247 1 -1.1104 15.9994 9.93708 5.51008 9.63673
248 1 -1.1104 15.9994 6.93754 8.17243 6.86969
249 1 -1.1104 15.9994 9.80407 8.20069 6.88538
250 1 -1.1104 15.9994 7.05677 8.47716 9.63513
251 1 -1.1104 15.9994 9.87635 8.55206 9.68894
252 1 -1.1104 15.9994 12.4796 5.53929 7.1008
253 1 -1.1104 15.9994 12.617 5.37156 9.85173
254 1 -1.1104 15.9994 12.6288 8.23787 7.0233
255 1 -1.1104 15.9994 12.7515 8.39287 9.74325
256 1 -1.1104 15.9994 1.29524 11.2478 6.63927
257 1 -1.1104 15.9994 4.11658 11.2431 6.83006
258 1 -1.1104 15.9994 1.38252 8.32384 9.68837
259 1 -1.1104 15.9994 4.24729 11.3506 9.78338
260 1 -1.1104 15.9994 1.34782 13.8801 6.9464
261 1 -1.1104 15.9994 4.15163 14.1123 6.90252
262 1 -1.1104 15.9994 1.58587 11.2455 9.51826
263 1 -1.1104 15.9994 4.13222 14.334 9.63742
264 1 -1.1104 15.9994 6.76623 11.1486 6.91074
265 1 -1.1104 15.9994 9.69501 11.2607 6.78164
266 1 -1.1104 15.9994 7.09107 11.2505 9.9934
267 1 -1.1104 15.9994 10.0114 11.3646 9.64773
268 1 -1.1104 15.9994 7.00552 13.8599 6.90011
269 1 -1.1104 15.9994 9.80949 14.0983 6.94716
270 1 -1.1104 15.9994 6.81046 13.9492 9.72237
271 1 -1.1104 15.9994 9.63424 14.0946 9.88643
272 1 -1.1104 15.9994 12.5423 11.2909 6.8999
273 1 -1.1104 15.9994 12.764 11.1824 9.63612
274 1 -1.1104 15.9994 12.6912 14.0368 6.86548
275 1 -1.1104 15.9994 12.4104 14.1301 9.70069
276 1 -1.1104 15.9994 1.20057 16.6389 6.95597
277 1 -1.1104 15.9994 4.11117 16.8431 6.79148
278 1 -1.1104 15.9994 1.41956 13.7542 9.72285
279 1 -1.1104 15.9994 3.79821 16.9943 9.49278
280 1 -1.1104 15.9994 1.16002 19.4966 6.6779
281 1 -1.1104 15.9994 4.12087 19.6169 6.84725
282 1 -1.1104 15.9994 1.16952 16.5686 9.60499
283 1 -1.1104 15.9994 4.01734 19.5024 9.64461
284 1 -1.1104 15.9994 6.96429 16.7348 7.1447
285 1 -1.1104 15.9994 9.72075 16.7941 6.81121
286 1 -1.1104 15.9994 6.82025 16.8089 9.89333
287 1 -1.1104 15.9994 9.8177 16.8252 9.59961
288 1 -1.1104 15.9994 6.89294 19.6039 7.05146
289 1 -1.1104 15.9994 9.83743 19.4303 6.79481
290 1 -1.1104 15.9994 7.0229 19.611 9.78987
291 1 -1.1104 15.9994 9.86021 19.4916 9.76648
292 1 -1.1104 15.9994 12.5601 16.7557 6.76852
293 1 -1.1104 15.9994 12.5271 16.7693 9.55956
294 1 -1.1104 15.9994 12.5787 19.5533 7.03203
295 1 -1.1104 15.9994 12.637 19.5487 9.76398
296 1 -1.1104 15.9994 1.11842 22.3766 6.90477
297 1 -1.1104 15.9994 4.20075 22.4141 7.05944
298 1 -1.1104 15.9994 1.20669 22.3038 9.99083
299 1 -1.1104 15.9994 3.98462 22.4402 9.95744
300 1 -1.1104 15.9994 7.04269 22.2948 7.04425
301 1 -1.1104 15.9994 9.83541 22.2516 6.84863
302 1 -1.1104 15.9994 7.10182 22.3861 9.62563
303 1 -1.1104 15.9994 9.88184 22.2627 9.71069
304 1 -1.1104 15.9994 12.8304 22.3205 7.06641
305 1 -1.1104 15.9994 12.6362 22.2287 9.78047
306 1 -1.1104 15.9994 1.20392 0.0296679 12.3801
307 1 -1.1104 15.9994 4.23558 -0.226029 12.5009
308 1 -1.1104 15.9994 1.3108 2.96068 12.4519
309 1 -1.1104 15.9994 4.18903 2.73614 12.534
316 1 -1.1104 15.9994 1.27403 5.56454 12.7231
311 1 -1.1104 15.9994 9.91819 -0.324693 12.3173
312 1 -1.1104 15.9994 7.10836 -0.0182346 12.5128
313 1 -1.1104 15.9994 9.82721 2.45346 12.4074
314 1 -1.1104 15.9994 12.7273 -0.0990711 12.5293
315 1 -1.1104 15.9994 12.5223 2.58932 12.3584
7 2 2.2208 232.038 8.51707 -1.3755 2.65399
9004 2 2.2208 232.038 0.0134899 6.90772 2.675
103 2 2.2208 232.038 5.60318 -1.37608 11.0666
3 2 2.2208 232.038 2.82108 -1.4471 2.58062
8981 2 2.2208 232.038 -0.00215187 15.2797 11.2161
5 2 2.2208 232.038 13.8483 15.3841 8.20282
44 2 2.2208 232.038 -0.0659433 23.9045 2.54939
663 2 2.2208 232.038 2.72792 7.00221 -0.143456
326 2 2.2208 232.038 2.78241 -1.51324 13.8241
26 2 2.2208 232.038 8.49125 12.5854 -0.0263094
9664 2 2.2208 232.038 -0.0586877 18.2678 13.9198
667 2 2.2208 232.038 13.9861 18.173 -0.0902614
334 2 2.2208 232.038 5.60857 7.05169 13.8364
325 2 2.2208 232.038 5.53028 4.25305 -0.0229165
659 2 2.2208 232.038 2.79123 1.15345 -0.0123988
335 2 2.2208 232.038 11.3347 6.85355 13.8793
9663 2 2.2208 232.038 -0.0778797 12.5373 13.883
669 2 2.2208 232.038 2.62097 18.1147 -0.0371894
673 2 2.2208 232.038 0.0224952 21.0314 0.0374533
374 2 2.2208 232.038 11.0939 21.0796 -0.0726065
676 2 2.2208 232.038 8.42388 24.0538 0.0230185
333 2 2.2208 232.038 8.44355 4.12749 13.7158
431 2 2.2208 232.038 -0.0917539 15.559 22.4004
327 1 -1.1104 15.9994 6.82837 22.617 26.7596
407 2 2.2208 232.038 8.37564 -1.31921 25.1578
355 2 2.2208 232.038 5.57664 -1.3022 16.679
9676 2 2.2208 232.038 -0.0886114 12.5666 25.2097
331 2 2.2208 232.038 2.8248 4.26597 13.9573
332 1 -1.1104 15.9994 9.80085 22.5469 23.9429
9370 2 2.2208 232.038 13.9543 15.3221 19.7117
658 2 2.2208 232.038 13.796 20.954 25.2763
9668 2 2.2208 232.038 -0.0370289 6.90355 19.6651
338 2 2.2208 232.038 8.49691 9.81209 13.9551
337 1 -1.1104 15.9994 6.86656 22.7487 23.858
9688 2 2.2208 232.038 -0.0294 9.86 27.8709
665 2 2.2208 232.038 13.9535 23.7377 27.9346
444 2 2.2208 232.038 -0.0331059 23.8418 25.1666
405 2 2.2208 232.038 5.45081 -1.33607 22.4353
342 1 -1.1104 15.9994 4.01681 22.5166 26.7515
9665 2 2.2208 232.038 0.0810763 -1.29771 16.7291
409 2 2.2208 232.038 11.3217 -1.35983 22.2073
9673 2 2.2208 232.038 0.0810253 4.21769 22.4672
677 1 -1.1104 15.9994 9.88372 13.8927 26.4121
357 2 2.2208 232.038 8.35331 -1.47149 19.6684
662 2 2.2208 232.038 11.3119 -1.388 28.013
9700 2 2.2208 232.038 -0.0216071 12.5378 19.6474
9379 2 2.2208 232.038 13.9394 23.8516 16.7847
351 1 -1.1104 15.9994 1.39 22.2432 26.6884
352 2 2.2208 232.038 2.8391 1.36009 16.5862
343 2 2.2208 232.038 8.29355 15.4948 14.0913
354 1 -1.1104 15.9994 4.05535 22.2765 24.0468
650 1 -1.1104 15.9994 1.23641 19.609 23.7987
356 2 2.2208 232.038 8.45658 1.23429 16.7537
644 1 -1.1104 15.9994 12.5585 13.9825 23.8411
358 2 2.2208 232.038 5.51161 1.27873 19.5191
649 1 -1.1104 15.9994 4.12057 16.6554 26.7103
360 2 2.2208 232.038 11.2748 1.3471 19.6818
361 1 -1.1104 15.9994 1.13283 22.3719 23.7872
362 2 2.2208 232.038 2.78476 6.93284 16.8379
363 2 2.2208 232.038 2.93753 4.12226 19.6292
364 1 -1.1104 15.9994 12.4295 19.7156 26.7134
365 2 2.2208 232.038 5.5787 4.1128 16.6672
366 2 2.2208 232.038 8.4797 6.95316 16.7465
367 2 2.2208 232.038 8.35846 4.17505 19.5375
368 2 2.2208 232.038 5.61163 6.96906 19.4983
369 2 2.2208 232.038 11.1707 4.08439 16.7801
370 2 2.2208 232.038 11.1677 7.01038 19.51
371 1 -1.1104 15.9994 12.3856 19.7748 23.8544
372 2 2.2208 232.038 2.75258 12.7166 16.6929
373 2 2.2208 232.038 2.87054 9.85568 19.6523
670 2 2.2208 232.038 5.52613 15.4128 27.988
375 2 2.2208 232.038 5.63431 9.73181 16.6529
376 2 2.2208 232.038 8.37192 12.5837 16.7458
377 2 2.2208 232.038 8.48592 9.80864 19.5255
378 2 2.2208 232.038 5.65519 12.6789 19.5737
379 2 2.2208 232.038 11.3433 9.68176 16.788
380 2 2.2208 232.038 11.1969 12.618 19.55
381 1 -1.1104 15.9994 12.7392 16.8644 26.6588
382 2 2.2208 232.038 2.76076 18.2301 16.6666
383 2 2.2208 232.038 2.75242 15.492 19.6765
648 1 -1.1104 15.9994 1.07766 16.6495 26.7284
385 2 2.2208 232.038 5.58906 15.4583 16.7201
386 2 2.2208 232.038 8.41435 18.2589 16.7814
387 2 2.2208 232.038 8.19071 15.5288 19.4925
388 2 2.2208 232.038 5.55739 18.2004 19.5088
389 2 2.2208 232.038 11.2781 15.4343 16.6215
390 2 2.2208 232.038 11.2277 18.1394 19.5904
391 1 -1.1104 15.9994 12.3489 22.401 26.706
392 2 2.2208 232.038 2.70877 23.9762 17.0828
393 2 2.2208 232.038 2.98313 20.924 19.5384
9667 2 2.2208 232.038 -0.0185787 4.07865 16.8689
395 2 2.2208 232.038 5.50497 21.1027 16.6119
396 2 2.2208 232.038 8.29739 23.7504 16.8388
397 2 2.2208 232.038 8.37351 21.2137 19.6756
398 2 2.2208 232.038 5.36021 24.0319 19.7761
399 2 2.2208 232.038 11.164 21.1302 16.763
400 2 2.2208 232.038 11.1117 23.8771 19.802
401 1 -1.1104 15.9994 12.4782 16.8368 23.6495
402 2 2.2208 232.038 2.58298 1.39201 22.435
647 1 -1.1104 15.9994 4.06321 16.7026 23.8469
404 1 -1.1104 15.9994 9.6346 19.7621 26.5638
646 1 -1.1104 15.9994 1.4167 16.8133 23.722
406 2 2.2208 232.038 8.38949 1.46785 22.315
651 1 -1.1104 15.9994 4.20479 19.4062 23.8147
408 2 2.2208 232.038 5.41061 1.45923 25.1487
654 1 -1.1104 15.9994 6.82007 16.978 23.9762
410 2 2.2208 232.038 11.3642 1.34798 25.1943
411 1 -1.1104 15.9994 6.65087 19.6271 26.7183
412 2 2.2208 232.038 2.78406 6.96214 22.3234
413 2 2.2208 232.038 2.71561 4.23676 25.326
414 1 -1.1104 15.9994 9.71729 19.5398 23.8219
415 2 2.2208 232.038 5.5697 4.05826 22.3905
416 2 2.2208 232.038 8.59244 7.02362 22.3685
417 2 2.2208 232.038 8.54802 4.20769 25.2026
418 2 2.2208 232.038 5.58488 6.9023 25.1244
419 2 2.2208 232.038 11.2315 4.14083 22.2046
420 2 2.2208 232.038 11.2769 6.82964 25.213
421 1 -1.1104 15.9994 6.79961 19.8069 24.0069
422 2 2.2208 232.038 2.65097 12.6975 22.3892
423 2 2.2208 232.038 2.73026 9.80276 25.0504
424 1 -1.1104 15.9994 9.91797 16.8157 26.4997
425 2 2.2208 232.038 5.68263 9.93881 22.3513
426 2 2.2208 232.038 8.33598 12.7628 22.5978
427 2 2.2208 232.038 8.35483 9.79269 25.2331
428 2 2.2208 232.038 5.44341 12.6521 25.2498
429 2 2.2208 232.038 11.1327 9.81489 22.4199
430 2 2.2208 232.038 11.1272 12.6138 25.3513
652 1 -1.1104 15.9994 1.19901 19.5438 26.5427
432 2 2.2208 232.038 2.68841 18.4793 22.2795
433 2 2.2208 232.038 2.64342 15.4067 25.1406
653 1 -1.1104 15.9994 3.7702 19.4049 26.694
435 2 2.2208 232.038 5.55996 15.5258 22.3483
436 2 2.2208 232.038 8.34971 18.2506 22.3072
437 2 2.2208 232.038 8.30362 15.3211 25.1858
438 2 2.2208 232.038 5.34984 18.0866 25.2655
439 2 2.2208 232.038 11.132 15.4059 22.2849
440 2 2.2208 232.038 10.9888 18.2815 25.0045
656 1 -1.1104 15.9994 6.96705 16.6288 26.6015
442 1 -1.1104 15.9994 12.5284 22.4357 23.7869
443 2 2.2208 232.038 2.66073 20.9668 24.9916
655 1 -1.1104 15.9994 9.75002 16.8138 23.7032
445 2 2.2208 232.038 5.52567 21.046 22.495
446 2 2.2208 232.038 8.29984 24.0046 22.3692
447 2 2.2208 232.038 8.12345 21.2726 25.3002
448 2 2.2208 232.038 5.33047 23.8853 25.3298
449 2 2.2208 232.038 11.1776 21.1146 22.5154
450 2 2.2208 232.038 11.2272 23.8185 25.2046
451 1 -1.1104 15.9994 1.39311 -0.0543889 15.1707
452 1 -1.1104 15.9994 4.25958 0.00146418 15.2263
453 1 -1.1104 15.9994 1.48925 2.86321 15.3027
454 1 -1.1104 15.9994 4.2187 2.63455 15.2266
455 1 -1.1104 15.9994 7.10613 -0.177792 15.3523
456 1 -1.1104 15.9994 9.9374 -0.142509 15.1731
457 1 -1.1104 15.9994 6.90506 2.53644 15.3814
458 1 -1.1104 15.9994 9.9464 2.46105 15.4305
459 1 -1.1104 15.9994 12.7663 -0.44318 15.2547
460 1 -1.1104 15.9994 12.8528 2.54113 15.2084
461 1 -1.1104 15.9994 1.26066 5.45716 15.353
462 1 -1.1104 15.9994 4.22297 5.69494 15.3145
463 1 -1.1104 15.9994 1.43026 8.296 15.3534
464 1 -1.1104 15.9994 4.13593 8.26206 15.3926
465 1 -1.1104 15.9994 7.02658 5.30583 15.3081
466 1 -1.1104 15.9994 9.78879 5.35489 15.2446
643 1 -1.1104 15.9994 12.7793 11.0669 26.7913
468 1 -1.1104 15.9994 10.0307 8.46441 15.4638
469 1 -1.1104 15.9994 12.5005 5.18748 15.23
470 1 -1.1104 15.9994 12.8913 8.32331 15.4745
471 1 -1.1104 15.9994 1.45395 11.2189 15.4915
472 1 -1.1104 15.9994 4.35359 11.205 15.3531
473 1 -1.1104 15.9994 1.46715 14.0697 15.2837
474 1 -1.1104 15.9994 4.22153 13.8772 15.3324
475 1 -1.1104 15.9994 6.9805 8.2573 15.4291
476 1 -1.1104 15.9994 9.99788 11.2145 15.4366
477 1 -1.1104 15.9994 7.20424 11.0774 15.4326
478 1 -1.1104 15.9994 9.96846 14.0926 15.2697
479 1 -1.1104 15.9994 12.6806 11.2677 15.615
480 1 -1.1104 15.9994 12.6626 14.0099 15.2953
481 1 -1.1104 15.9994 1.34865 16.7671 15.2854
482 1 -1.1104 15.9994 4.20742 16.6232 15.3696
645 1 -1.1104 15.9994 12.5745 13.9383 26.6959
484 1 -1.1104 15.9994 1.5624 19.5256 15.2013
485 1 -1.1104 15.9994 7.12598 13.9659 15.3411
486 1 -1.1104 15.9994 9.81358 16.8491 15.2993
487 1 -1.1104 15.9994 6.9448 16.8424 15.4379
488 1 -1.1104 15.9994 9.77396 19.6085 15.4469
489 1 -1.1104 15.9994 12.6898 16.7935 15.3706
490 1 -1.1104 15.9994 12.7006 19.5534 15.6512
491 1 -1.1104 15.9994 3.78793 22.3647 15.3836
492 1 -1.1104 15.9994 4.22347 19.7276 15.2399
493 1 -1.1104 15.9994 6.87219 22.3307 15.0998
494 1 -1.1104 15.9994 9.66129 22.4145 15.2804
495 1 -1.1104 15.9994 12.5003 22.3086 15.3997
496 1 -1.1104 15.9994 1.41436 -0.23325 18.0441
497 1 -1.1104 15.9994 4.18208 -0.0380753 18.0633
498 1 -1.1104 15.9994 1.38906 -0.0785273 20.7444
499 1 -1.1104 15.9994 4.15398 -0.119902 21.0615
500 1 -1.1104 15.9994 1.51024 2.67432 17.9929
501 1 -1.1104 15.9994 4.38599 2.64031 17.9705
502 1 -1.1104 15.9994 1.46765 2.77765 20.8341
503 1 -1.1104 15.9994 4.18306 2.63459 20.982
504 1 -1.1104 15.9994 6.98271 -0.106917 18.1971
505 1 -1.1104 15.9994 9.88229 -0.502793 18.2509
506 1 -1.1104 15.9994 6.92758 0.0403766 20.9961
507 1 -1.1104 15.9994 9.83776 0.328719 21.1145
508 1 -1.1104 15.9994 7.14075 2.54452 18.2488
509 1 -1.1104 15.9994 9.95698 2.65375 18.3159
510 1 -1.1104 15.9994 6.88213 2.88297 20.7924
511 1 -1.1104 15.9994 9.69038 2.92613 20.881
512 1 -1.1104 15.9994 12.7077 -0.0208578 18.0202
513 1 -1.1104 15.9994 12.7537 -0.19123 20.8911
514 1 -1.1104 15.9994 12.6241 2.78495 17.9294
515 1 -1.1104 15.9994 12.9073 2.42883 20.8953
516 1 -1.1104 15.9994 1.51272 5.48865 18.413
517 1 -1.1104 15.9994 4.25234 5.48173 18.2318
518 1 -1.1104 15.9994 1.38878 5.57709 21.0514
519 1 -1.1104 15.9994 4.17428 5.50934 20.8859
520 1 -1.1104 15.9994 1.39558 8.12124 18.2578
521 1 -1.1104 15.9994 4.17681 8.34643 18.0433
522 1 -1.1104 15.9994 1.32783 8.52246 21.1285
523 1 -1.1104 15.9994 4.11019 8.22609 20.8915
524 1 -1.1104 15.9994 7.03252 5.58365 18.0693
525 1 -1.1104 15.9994 9.79235 5.42813 18.2856
526 1 -1.1104 15.9994 7.0326 5.61791 20.87
527 1 -1.1104 15.9994 9.98531 5.48708 20.9053
528 1 -1.1104 15.9994 7.02049 8.24861 18.0576
529 1 -1.1104 15.9994 9.6635 8.25742 18.1213
530 1 -1.1104 15.9994 7.15728 8.50103 20.9588
531 1 -1.1104 15.9994 9.92412 8.23526 20.9845
532 1 -1.1104 15.9994 12.6182 5.571 17.9849
533 1 -1.1104 15.9994 12.6827 5.41145 20.7908
534 1 -1.1104 15.9994 12.6037 8.24217 18.0884
535 1 -1.1104 15.9994 12.5257 8.28382 20.9539
536 1 -1.1104 15.9994 1.36361 11.0712 18.2931
537 1 -1.1104 15.9994 4.39829 11.2004 18.1356
538 1 -1.1104 15.9994 1.62546 11.078 21.1584
539 1 -1.1104 15.9994 4.31701 11.1798 20.8862
540 1 -1.1104 15.9994 1.28612 13.7747 18.1339
541 1 -1.1104 15.9994 3.97822 14.0677 18.2275
542 1 -1.1104 15.9994 1.29279 14.0823 21.0268
543 1 -1.1104 15.9994 4.23272 13.8966 21.0584
544 1 -1.1104 15.9994 7.13611 11.3003 18.2464
545 1 -1.1104 15.9994 9.90594 11.0301 18.1388
546 1 -1.1104 15.9994 7.0952 11.3088 21.037
547 1 -1.1104 15.9994 9.72821 11.2398 20.941
548 1 -1.1104 15.9994 6.9893 14.0103 18.1421
549 1 -1.1104 15.9994 9.77253 14.0207 18.0163
550 1 -1.1104 15.9994 6.87987 14.0562 20.9864
551 1 -1.1104 15.9994 9.65445 14.0011 21.1194
552 1 -1.1104 15.9994 12.6068 11.1579 18.3273
553 1 -1.1104 15.9994 12.461 11.0809 21.1131
554 1 -1.1104 15.9994 12.5153 14.01 18.127
555 1 -1.1104 15.9994 12.4644 13.8678 20.9242
556 1 -1.1104 15.9994 1.59476 16.4636 17.8688
557 1 -1.1104 15.9994 4.4312 16.7889 18.2691
558 1 -1.1104 15.9994 1.25661 16.9189 20.918
559 1 -1.1104 15.9994 4.19971 16.7367 20.9809
560 1 -1.1104 15.9994 4.35308 19.7093 18.0104
561 1 -1.1104 15.9994 6.77749 19.6294 15.4599
562 1 -1.1104 15.9994 1.68547 19.5639 18.1849
563 1 -1.1104 15.9994 4.00602 19.4538 20.7326
564 1 -1.1104 15.9994 7.14926 16.7775 18.0302
565 1 -1.1104 15.9994 9.91493 16.7203 18.0994
566 1 -1.1104 15.9994 6.90079 16.8362 20.9726
567 1 -1.1104 15.9994 9.70394 16.743 20.8815
568 1 -1.1104 15.9994 7.19246 19.3632 18.2917
569 1 -1.1104 15.9994 9.99713 19.6679 18.1316
570 1 -1.1104 15.9994 6.79869 19.641 21.1575
571 1 -1.1104 15.9994 9.73121 19.839 20.923
572 1 -1.1104 15.9994 12.5666 17.0918 18.2733
573 1 -1.1104 15.9994 12.6201 16.6536 20.9063
574 1 -1.1104 15.9994 12.4724 19.807 18.4432
575 1 -1.1104 15.9994 12.602 19.4986 21.1771
576 1 -1.1104 15.9994 1.54102 22.6343 18.818
577 1 -1.1104 15.9994 4.18948 22.5836 18.0437
578 1 -1.1104 15.9994 1.25949 19.8943 20.9054
579 1 -1.1104 15.9994 4.24622 22.2057 21.0008
580 1 -1.1104 15.9994 6.83432 22.3875 18.019
581 1 -1.1104 15.9994 9.71566 22.3819 18.1873
582 1 -1.1104 15.9994 6.84666 22.6179 20.9371
583 1 -1.1104 15.9994 9.71582 22.5532 21.0639
584 1 -1.1104 15.9994 12.3566 22.4958 18.2304
585 1 -1.1104 15.9994 12.5594 22.4352 21.1041
586 1 -1.1104 15.9994 1.35891 -0.14898 23.8344
587 1 -1.1104 15.9994 4.01307 0.0074129 23.9605
588 1 -1.1104 15.9994 1.53992 -0.166756 26.5545
589 1 -1.1104 15.9994 4.2388 -0.0960986 26.632
590 1 -1.1104 15.9994 1.33391 2.83539 23.8612
591 1 -1.1104 15.9994 4.14716 2.7737 23.8512
592 1 -1.1104 15.9994 1.2923 2.57202 26.6476
593 1 -1.1104 15.9994 3.98894 2.86995 26.7152
594 1 -1.1104 15.9994 6.85364 -0.160959 23.8013
595 1 -1.1104 15.9994 9.92699 0.0727272 23.8257
596 1 -1.1104 15.9994 7.06236 -0.233982 26.5686
597 1 -1.1104 15.9994 9.9031 -0.125139 26.5959
598 1 -1.1104 15.9994 6.98594 2.6832 23.6421
599 1 -1.1104 15.9994 9.84113 2.64273 23.5813
600 1 -1.1104 15.9994 6.84134 2.53941 26.701
601 1 -1.1104 15.9994 9.90509 2.71153 26.5531
602 1 -1.1104 15.9994 12.622 -0.067444 23.6691
603 1 -1.1104 15.9994 12.8053 -0.0963648 26.6412
604 1 -1.1104 15.9994 12.6049 2.8873 24.0138
605 1 -1.1104 15.9994 12.6638 2.61427 26.6586
606 1 -1.1104 15.9994 1.42529 5.58481 23.8695
607 1 -1.1104 15.9994 4.18989 5.51963 23.8012
608 1 -1.1104 15.9994 1.37397 5.51239 26.8094
609 1 -1.1104 15.9994 4.15021 5.67395 26.5114
610 1 -1.1104 15.9994 1.41989 8.39352 23.9179
611 1 -1.1104 15.9994 4.12962 8.19384 23.7072
612 1 -1.1104 15.9994 1.56656 8.42429 26.6038
613 1 -1.1104 15.9994 4.29418 8.40399 26.364
614 1 -1.1104 15.9994 7.07699 5.36894 23.7696
615 1 -1.1104 15.9994 9.84731 5.58928 23.7597
616 1 -1.1104 15.9994 7.11749 5.41253 26.6547
617 1 -1.1104 15.9994 9.95167 5.45687 26.5387
618 1 -1.1104 15.9994 6.94682 8.3226 23.9306
619 1 -1.1104 15.9994 9.75855 8.23203 23.8572
620 1 -1.1104 15.9994 6.99054 8.27103 26.736
621 1 -1.1104 15.9994 9.83667 8.32402 26.528
622 1 -1.1104 15.9994 12.5588 5.67891 23.6361
623 1 -1.1104 15.9994 12.6634 5.54849 26.5002
624 1 -1.1104 15.9994 12.9014 8.42195 23.7705
625 1 -1.1104 15.9994 12.5339 8.37426 26.5875
626 1 -1.1104 15.9994 1.26923 11.3607 23.7857
627 1 -1.1104 15.9994 4.01556 11.2476 23.5554
628 1 -1.1104 15.9994 1.49528 11.1517 26.4583
629 1 -1.1104 15.9994 4.31658 11.1819 26.5489
630 1 -1.1104 15.9994 1.25372 14.0122 23.6707
631 1 -1.1104 15.9994 4.1789 13.9172 23.8391
632 1 -1.1104 15.9994 1.17584 13.9737 26.6069
633 1 -1.1104 15.9994 3.93993 13.9165 26.6368
634 1 -1.1104 15.9994 6.92219 11.1372 23.8554
635 1 -1.1104 15.9994 9.71941 11.2567 23.8482
636 1 -1.1104 15.9994 7.07262 11.046 26.7925
637 1 -1.1104 15.9994 9.68491 22.6946 26.6469
638 1 -1.1104 15.9994 6.90423 14.0596 23.72