ITEM: TIMESTEP
340000
ITEM: NUMBER OF ATOMS
18000
ITEM: BOX BOUNDS xy xz yz pp pp pp
-1.3957361346315514e-01 2.8033573613463219e+01 0.0000000000000000e+00
-1.6322564482805988e+00 3.3636025644825651e+02 0.0000000000000000e+00
-1.4299099885763306e-01 2.8036990998858116e+01 0.0000000000000000e+00
ITEM: ATOMS id type q mass x y z
9002 2 2.2208 232.038 13.9506 9.60017 2.59581
324 1 -1.1104 15.9994 12.514 5.45396 12.6072
3 2 2.2208 232.038 2.44768 -1.6238 2.72787
4 1 -1.1104 15.9994 12.5215 22.2018 12.5936
323 1 -1.1104 15.9994 9.70879 8.16668 12.4673
322 1 -1.1104 15.9994 6.8339 5.41452 12.5724
5 2 2.2208 232.038 13.8106 15.2169 8.34913
8 2 2.2208 232.038 5.39363 1.30435 2.68077
9 1 -1.1104 15.9994 12.4979 8.16653 12.4886
10 2 2.2208 232.038 11.1105 1.37374 2.67273
11 1 -1.1104 15.9994 9.64877 22.2215 12.7206
321 1 -1.1104 15.9994 9.6883 5.33119 12.5951
13 2 2.2208 232.038 2.49291 3.95098 2.61813
14 1 -1.1104 15.9994 6.84305 22.3734 12.5354
336 2 2.2208 232.038 2.70952 9.62425 13.8322
9081 2 2.2208 232.038 13.7621 1.15051 11.096
17 2 2.2208 232.038 8.21424 4.00909 2.61344
18 2 2.2208 232.038 5.39891 6.76258 2.70359
8982 2 2.2208 232.038 14.0614 -1.44749 2.58468
20 2 2.2208 232.038 11.1318 6.68154 2.60526
21 1 -1.1104 15.9994 4.14724 22.3655 12.3514
22 1 -1.1104 15.9994 0.891999 16.6391 12.5596
23 2 2.2208 232.038 2.53647 9.66637 2.61236
320 1 -1.1104 15.9994 6.76044 2.54747 12.3925
9052 2 2.2208 232.038 13.9339 9.72886 8.35771
105 2 2.2208 232.038 11.0219 -1.62167 10.9697
27 2 2.2208 232.038 8.13627 9.66288 2.61245
28 2 2.2208 232.038 5.44333 12.3877 2.71112
338 2 2.2208 232.038 8.30432 9.54259 14.0007
30 2 2.2208 232.038 10.9694 12.3298 2.65611
31 1 -1.1104 15.9994 12.4879 13.8416 12.5488
32 1 -1.1104 15.9994 12.4319 10.9248 12.6048
33 2 2.2208 232.038 2.5287 15.3224 2.79066
319 1 -1.1104 15.9994 3.99061 7.9668 12.448
35 1 -1.1104 15.9994 9.6945 13.8849 12.5781
36 1 -1.1104 15.9994 6.85991 13.5636 12.5784
37 2 2.2208 232.038 8.18855 15.2471 2.80315
38 2 2.2208 232.038 5.4068 17.937 2.58291
39 1 -1.1104 15.9994 9.69945 10.9181 12.4565
40 2 2.2208 232.038 10.9425 18.1103 2.60926
41 1 -1.1104 15.9994 6.72091 11.054 12.5157
42 1 -1.1104 15.9994 4.08152 13.7965 12.4384
43 2 2.2208 232.038 2.70286 20.842 2.6659
318 1 -1.1104 15.9994 1.23834 8.07655 12.5709
45 1 -1.1104 15.9994 1.16365 13.9334 12.5044
46 1 -1.1104 15.9994 4.10089 10.848 12.373
47 2 2.2208 232.038 8.25604 20.7807 2.887
48 2 2.2208 232.038 5.44987 23.7386 2.69367
49 1 -1.1104 15.9994 1.15991 10.9427 12.4392
50 2 2.2208 232.038 10.8218 23.5013 2.57101
51 1 -1.1104 15.9994 1.24006 21.9628 12.382
52 2 2.2208 232.038 2.64421 1.14416 5.52364
44 2 2.2208 232.038 -0.338561 23.6791 2.53805
54 1 -1.1104 15.9994 12.4304 19.2946 12.6497
346 2 2.2208 232.038 2.84412 20.93 13.9103
56 2 2.2208 232.038 8.19822 1.09761 5.33429
84 2 2.2208 232.038 -0.393344 17.9805 8.38046
58 2 2.2208 232.038 5.50015 1.23062 8.11412
9319 2 2.2208 232.038 13.7513 3.93019 13.9283
60 2 2.2208 232.038 11.0082 1.16186 8.16674
61 1 -1.1104 15.9994 12.3179 16.5818 12.5065
62 2 2.2208 232.038 2.57675 6.87454 5.31463
63 2 2.2208 232.038 2.65259 4.0201 8.2139
64 1 -1.1104 15.9994 9.78133 19.4052 12.52
65 2 2.2208 232.038 5.27815 4.04724 5.40092
66 2 2.2208 232.038 8.21598 6.71629 5.45422
67 2 2.2208 232.038 8.39727 3.99603 8.06533
68 2 2.2208 232.038 5.44642 6.84502 8.24997
69 2 2.2208 232.038 11.1917 3.99004 5.56851
70 2 2.2208 232.038 11.1564 6.68572 8.29935
71 1 -1.1104 15.9994 7.04017 19.3952 12.4802
72 2 2.2208 232.038 2.50291 12.4732 5.5015
73 2 2.2208 232.038 2.52383 9.64858 8.08294
74 1 -1.1104 15.9994 9.6397 16.7095 12.5829
75 2 2.2208 232.038 5.44584 9.55011 5.51609
76 2 2.2208 232.038 8.17106 12.3863 5.53572
77 2 2.2208 232.038 8.32577 9.45523 8.20469
78 2 2.2208 232.038 5.44297 12.2855 8.3267
79 2 2.2208 232.038 11.0288 9.60816 5.42747
80 2 2.2208 232.038 10.9076 12.4122 8.38006
317 1 -1.1104 15.9994 4.16897 5.50684 12.3984
82 2 2.2208 232.038 2.48544 18.04 5.42859
83 2 2.2208 232.038 2.55031 15.1446 8.30644
8994 2 2.2208 232.038 -0.106887 6.74762 8.3285
85 2 2.2208 232.038 5.40578 15.2426 5.60239
86 2 2.2208 232.038 8.09176 17.9833 5.59194
87 2 2.2208 232.038 8.18155 15.3001 8.51432
88 2 2.2208 232.038 5.43781 17.9852 8.29776
89 2 2.2208 232.038 10.9933 15.3463 5.58268
90 2 2.2208 232.038 11.0644 18.1126 8.38474
9101 2 2.2208 232.038 13.8512 23.5361 11.3267
92 2 2.2208 232.038 2.67159 23.6923 5.49986
93 2 2.2208 232.038 2.62847 20.827 8.12905
467 1 -1.1104 15.9994 6.81097 8.20265 12.4357
95 2 2.2208 232.038 5.33082 20.8872 5.44665
96 2 2.2208 232.038 8.30396 23.6551 5.52228
97 2 2.2208 232.038 8.27403 20.8163 8.24916
98 2 2.2208 232.038 5.46768 23.6688 8.34978
99 2 2.2208 232.038 10.9806 20.8734 5.50406
100 2 2.2208 232.038 11.2782 23.4102 8.56846
101 1 -1.1104 15.9994 6.66913 16.3537 12.8175
102 2 2.2208 232.038 2.57255 1.28528 11.0158
483 1 -1.1104 15.9994 1.37622 19.2404 12.9447
104 2 2.2208 232.038 8.15542 1.08164 11.0821
331 2 2.2208 232.038 2.55325 4.15259 13.9505
106 1 -1.1104 15.9994 4.26774 19.4392 12.5213
107 2 2.2208 232.038 2.73965 6.78521 11.0732
108 2 2.2208 232.038 5.49319 4.00319 11.0125
109 2 2.2208 232.038 8.3183 6.72543 11.0735
110 2 2.2208 232.038 11.0109 3.99913 11.3067
111 1 -1.1104 15.9994 1.14259 19.4759 9.78694
112 2 2.2208 232.038 2.53041 12.3027 11.0877
113 2 2.2208 232.038 5.3919 9.52428 11.0363
114 2 2.2208 232.038 8.16285 12.186 11.0099
115 2 2.2208 232.038 11.0845 9.59245 11.2094
116 1 -1.1104 15.9994 3.84122 16.7347 12.5377
117 2 2.2208 232.038 2.62076 18.1426 11.0469
118 2 2.2208 232.038 5.47054 15.0753 11.2184
119 2 2.2208 232.038 8.3976 18.0424 11.1046
120 2 2.2208 232.038 11.0307 15.2169 11.128
2 2 2.2208 232.038 13.9425 20.7874 8.35874
122 2 2.2208 232.038 2.68038 23.5145 10.9758
123 2 2.2208 232.038 5.50906 20.8269 11.1094
124 2 2.2208 232.038 8.28227 23.6718 11.3344
125 2 2.2208 232.038 11.0591 20.7663 11.3175
126 1 -1.1104 15.9994 1.07484 -0.0809479 1.26607
127 1 -1.1104 15.9994 4.08029 -0.26397 1.15079
128 1 -1.1104 15.9994 1.33149 -0.286676 4.20463
129 1 -1.1104 15.9994 4.11322 -0.320576 3.90038
130 1 -1.1104 15.9994 1.17848 2.47321 1.2158
131 1 -1.1104 15.9994 3.96333 2.49798 1.39932
132 1 -1.1104 15.9994 0.975115 2.50102 4.01228
133 1 -1.1104 15.9994 3.92981 2.42937 4.2396
134 1 -1.1104 15.9994 6.93269 -0.367948 1.17801
135 1 -1.1104 15.9994 9.69786 -0.15197 1.22634
136 1 -1.1104 15.9994 6.9166 -0.255644 3.89158
137 1 -1.1104 15.9994 9.83761 -0.155174 4.0732
138 1 -1.1104 15.9994 6.85672 2.63358 1.27767
139 1 -1.1104 15.9994 9.60759 2.48814 1.2676
140 1 -1.1104 15.9994 6.72366 2.67527 3.99885
141 1 -1.1104 15.9994 9.63261 2.72321 4.116
142 1 -1.1104 15.9994 12.7684 -0.0823627 1.17407
143 1 -1.1104 15.9994 12.5722 -0.119473 4.20444
144 1 -1.1104 15.9994 12.5478 2.51265 1.26405
145 1 -1.1104 15.9994 12.5287 2.80267 3.94713
146 1 -1.1104 15.9994 1.2159 5.36578 1.16295
147 1 -1.1104 15.9994 3.90629 5.30171 1.20956
148 1 -1.1104 15.9994 1.15301 5.29675 3.91674
149 1 -1.1104 15.9994 3.97865 5.28573 4.05926
150 1 -1.1104 15.9994 1.1241 8.25643 1.29237
151 1 -1.1104 15.9994 4.01218 8.05682 1.28324
152 1 -1.1104 15.9994 1.26528 8.06391 3.96638
153 1 -1.1104 15.9994 4.13296 8.09183 3.98899
154 1 -1.1104 15.9994 6.78111 5.28916 1.27848
155 1 -1.1104 15.9994 9.72935 5.3183 1.21653
156 1 -1.1104 15.9994 6.92345 5.34043 4.023
157 1 -1.1104 15.9994 9.87106 5.31586 4.04362
158 1 -1.1104 15.9994 6.95534 8.133 1.4223
159 1 -1.1104 15.9994 9.88054 8.04825 1.19803
160 1 -1.1104 15.9994 6.90597 8.174 4.10402
161 1 -1.1104 15.9994 9.57719 8.36555 3.76192
162 1 -1.1104 15.9994 12.5452 5.24199 1.36045
163 1 -1.1104 15.9994 12.5983 5.42233 4.2892
164 1 -1.1104 15.9994 12.4766 8.22952 1.20191
165 1 -1.1104 15.9994 12.3069 8.27756 4.19423
166 1 -1.1104 15.9994 1.20828 11.013 1.36317
167 1 -1.1104 15.9994 3.95378 10.8992 1.12164
168 1 -1.1104 15.9994 1.04294 11.0524 4.07934
169 1 -1.1104 15.9994 4.03776 10.9733 4.03439
170 1 -1.1104 15.9994 1.07175 13.8372 1.31261
171 1 -1.1104 15.9994 3.98336 13.5643 1.2492
172 1 -1.1104 15.9994 1.08913 13.7169 4.02692
173 1 -1.1104 15.9994 3.81877 13.9646 3.9927
174 1 -1.1104 15.9994 6.71359 10.9002 1.30981
175 1 -1.1104 15.9994 9.51199 10.9142 1.15976
176 1 -1.1104 15.9994 6.847 11.2348 4.17522
177 1 -1.1104 15.9994 9.40976 11.0082 4.06225
178 1 -1.1104 15.9994 6.77554 13.8898 1.49471
179 1 -1.1104 15.9994 9.75234 13.7061 1.25868
180 1 -1.1104 15.9994 6.74093 14.0199 4.23907
181 1 -1.1104 15.9994 9.64947 13.7878 4.11979
182 1 -1.1104 15.9994 12.4921 10.952 1.14352
183 1 -1.1104 15.9994 12.393 11.0164 4.04037
184 1 -1.1104 15.9994 12.497 13.7624 1.37514
185 1 -1.1104 15.9994 12.257 13.9377 4.15798
186 1 -1.1104 15.9994 1.15736 16.6167 1.27767
187 1 -1.1104 15.9994 3.98475 16.4789 0.979841
188 1 -1.1104 15.9994 1.09788 16.454 4.16489
189 1 -1.1104 15.9994 3.92695 16.7635 4.02075
190 1 -1.1104 15.9994 1.09971 19.3584 1.2772
191 1 -1.1104 15.9994 3.89824 19.4796 1.01068
192 1 -1.1104 15.9994 1.16786 19.4327 4.01081
193 1 -1.1104 15.9994 4.09395 19.3245 3.83367
194 1 -1.1104 15.9994 6.83295 16.6273 1.24636
195 1 -1.1104 15.9994 9.65304 16.57 1.34563
196 1 -1.1104 15.9994 6.74997 16.8667 4.02979
197 1 -1.1104 15.9994 9.46135 16.8461 4.07219
198 1 -1.1104 15.9994 6.75202 19.3469 1.15454
199 1 -1.1104 15.9994 9.55059 19.4401 1.51876
200 1 -1.1104 15.9994 6.70383 19.3921 4.32241
201 1 -1.1104 15.9994 9.37667 19.556 4.48394
202 1 -1.1104 15.9994 12.3981 16.7042 1.31841
203 1 -1.1104 15.9994 12.4541 16.7798 4.03609
204 1 -1.1104 15.9994 12.2758 19.6419 1.24187
205 1 -1.1104 15.9994 12.3107 19.4742 4.05701
206 1 -1.1104 15.9994 1.17006 22.2596 1.30186
207 1 -1.1104 15.9994 3.97407 22.2702 1.44774
208 1 -1.1104 15.9994 1.19128 22.3765 4.12744
209 1 -1.1104 15.9994 3.85455 22.2471 4.10484
210 1 -1.1104 15.9994 6.83757 22.174 1.43376
211 1 -1.1104 15.9994 9.4814 21.9992 1.45317
212 1 -1.1104 15.9994 6.66714 22.2605 4.15343
213 1 -1.1104 15.9994 9.71269 22.2877 4.13922
214 1 -1.1104 15.9994 12.4029 22.4284 1.42756
215 1 -1.1104 15.9994 12.2481 22.3108 4.1603
216 1 -1.1104 15.9994 1.23094 -0.309798 6.93141
217 1 -1.1104 15.9994 4.07537 -0.324004 6.86778
330 2 2.2208 232.038 10.9867 1.12397 13.9256
219 1 -1.1104 15.9994 3.9013 -0.128031 9.50414
220 1 -1.1104 15.9994 1.33646 2.43232 7.00772
221 1 -1.1104 15.9994 4.06875 2.55534 6.86204
222 1 -1.1104 15.9994 1.05753 -0.240134 9.73836
223 1 -1.1104 15.9994 4.09588 2.69644 9.7572
224 1 -1.1104 15.9994 6.82858 -0.239281 6.70357
225 1 -1.1104 15.9994 9.56142 -0.213052 7.00191
226 1 -1.1104 15.9994 6.62281 -0.245602 9.53243
227 1 -1.1104 15.9994 9.58957 -0.202322 9.78945
228 1 -1.1104 15.9994 6.81201 2.59188 6.71133
229 1 -1.1104 15.9994 9.60784 2.5109 6.7939
230 1 -1.1104 15.9994 6.93011 2.69566 9.66453
231 1 -1.1104 15.9994 9.71066 2.58813 9.70844
232 1 -1.1104 15.9994 12.6546 -0.334653 6.74482
233 1 -1.1104 15.9994 12.374 -0.163895 9.56468
234 1 -1.1104 15.9994 12.4618 2.65449 6.97631
235 1 -1.1104 15.9994 12.4244 2.60668 9.80206
236 1 -1.1104 15.9994 1.18363 5.35526 6.77113
237 1 -1.1104 15.9994 4.01937 5.6282 6.96113
238 1 -1.1104 15.9994 1.2075 2.43499 9.75434
239 1 -1.1104 15.9994 4.11966 5.39002 9.60842
240 1 -1.1104 15.9994 1.10764 8.25488 6.91951
241 1 -1.1104 15.9994 3.85782 8.35398 6.83202
242 1 -1.1104 15.9994 1.31648 5.3393 9.70736
243 1 -1.1104 15.9994 4.05644 8.17899 9.52394
244 1 -1.1104 15.9994 6.77317 5.55145 6.86698
245 1 -1.1104 15.9994 9.66231 5.34052 6.70922
246 1 -1.1104 15.9994 6.89328 5.34548 9.76073
247 1 -1.1104 15.9994 9.7316 5.29479 9.56382
248 1 -1.1104 15.9994 6.79514 8.12093 6.89601
249 1 -1.1104 15.9994 9.67312 8.06724 6.6308
250 1 -1.1104 15.9994 6.94347 8.12578 9.76179
251 1 -1.1104 15.9994 9.6858 8.16653 9.66474
252 1 -1.1104 15.9994 12.5318 5.32488 6.93641
253 1 -1.1104 15.9994 12.5182 5.47396 9.75375
254 1 -1.1104 15.9994 12.662 8.39471 6.8819
255 1 -1.1104 15.9994 12.2775 8.11246 9.76859
256 1 -1.1104 15.9994 1.01533 11.0208 6.89964
257 1 -1.1104 15.9994 3.82613 10.9779 6.88988
258 1 -1.1104 15.9994 1.23023 8.08871 9.65997
259 1 -1.1104 15.9994 3.98219 10.8116 9.55977
260 1 -1.1104 15.9994 1.07765 13.7606 7.04931
261 1 -1.1104 15.9994 3.98699 13.7811 6.81319
262 1 -1.1104 15.9994 1.15641 10.9961 9.65906
263 1 -1.1104 15.9994 3.94489 13.664 9.67121
264 1 -1.1104 15.9994 6.94425 11.0063 6.89532
265 1 -1.1104 15.9994 9.67561 11.0316 6.88459
266 1 -1.1104 15.9994 6.75199 10.8731 9.7295
267 1 -1.1104 15.9994 9.5176 11.055 9.60863
268 1 -1.1104 15.9994 6.62662 13.7632 7.03228
269 1 -1.1104 15.9994 9.57972 13.766 6.96079
270 1 -1.1104 15.9994 6.71192 13.6646 9.72374
271 1 -1.1104 15.9994 9.64342 13.8648 9.60794
272 1 -1.1104 15.9994 12.4696 10.9103 6.92446
273 1 -1.1104 15.9994 12.4548 11.075 9.70437
274 1 -1.1104 15.9994 12.3779 13.8742 7.07927
275 1 -1.1104 15.9994 12.3437 13.9155 9.84167
276 1 -1.1104 15.9994 1.05022 16.5744 6.89817
277 1 -1.1104 15.9994 3.84431 16.694 6.9106
278 1 -1.1104 15.9994 0.991049 13.6824 9.94509
279 1 -1.1104 15.9994 4.17335 16.517 9.80361
280 1 -1.1104 15.9994 1.12698 19.3209 6.92861
281 1 -1.1104 15.9994 3.91932 19.4973 6.77005
282 1 -1.1104 15.9994 1.11354 16.7276 9.77693
283 1 -1.1104 15.9994 4.10906 19.2922 9.57118
284 1 -1.1104 15.9994 6.83613 16.6716 6.8525
285 1 -1.1104 15.9994 9.62955 16.7532 7.21064
286 1 -1.1104 15.9994 6.70475 16.4997 9.78577
287 1 -1.1104 15.9994 9.46416 16.4841 9.88998
288 1 -1.1104 15.9994 6.66283 19.4374 6.93929
289 1 -1.1104 15.9994 9.92264 19.6181 7.19261
290 1 -1.1104 15.9994 6.95487 19.3059 9.60076
291 1 -1.1104 15.9994 9.7613 19.2922 9.85466
292 1 -1.1104 15.9994 12.3576 16.5006 6.86144
293 1 -1.1104 15.9994 12.4531 16.6178 9.65894
294 1 -1.1104 15.9994 12.6842 19.397 6.76073
295 1 -1.1104 15.9994 12.5716 19.3812 9.77685
296 1 -1.1104 15.9994 1.24578 22.2481 6.84278
297 1 -1.1104 15.9994 4.05625 22.281 6.878
298 1 -1.1104 15.9994 1.13469 22.1843 9.6095
299 1 -1.1104 15.9994 3.9938 22.1718 9.58153
300 1 -1.1104 15.9994 6.93417 22.221 6.87604
301 1 -1.1104 15.9994 9.6543 22.4576 7.04922
302 1 -1.1104 15.9994 6.8693 22.2276 9.64019
303 1 -1.1104 15.9994 9.70831 22.2231 10.0688
304 1 -1.1104 15.9994 12.5567 22.3065 7.14994
305 1 -1.1104 15.9994 12.6466 22.1378 9.84233
306 1 -1.1104 15.9994 1.26627 -0.135004 12.5306
307 1 -1.1104 15.9994 4.14738 -0.305014 12.3516
308 1 -1.1104 15.9994 1.08581 2.79415 12.7086
309 1 -1.1104 15.9994 4.01089 2.66865 12.4521
316 1 -1.1104 15.9994 1.18472 5.49063 12.5699
311 1 -1.1104 15.9994 9.5258 -0.361183 12.4833
312 1 -1.1104 15.9994 6.72314 -0.429709 12.3534
313 1 -1.1104 15.9994 9.55753 2.55189 12.587
314 1 -1.1104 15.9994 12.4581 -0.119854 12.4116
315 1 -1.1104 15.9994 12.43 2.64004 12.499
12 2 2.2208 232.038 13.7266 20.9583 2.82357
8983 2 2.2208 232.038 -0.133271 9.54152 11.0013
15 2 2.2208 232.038 13.6513 15.2045 2.76801
339 2 2.2208 232.038 5.4593 12.3835 14.0205
59 2 2.2208 232.038 11.0825 -1.6893 5.4336
103 2 2.2208 232.038 5.28027 -1.63775 10.9126
334 2 2.2208 232.038 5.51908 6.84618 13.9248
9086 2 2.2208 232.038 13.9508 6.78494 11.2275
6 2 2.2208 232.038 13.7353 17.9414 5.44263
9091 2 2.2208 232.038 13.8936 12.4194 11.1595
1 2 2.2208 232.038 13.7721 23.6466 5.49332
9032 2 2.2208 232.038 13.9413 -1.61401 8.36351
8991 2 2.2208 232.038 13.7129 12.3439 5.58869
672 2 2.2208 232.038 11.1786 15.1942 -0.0830414
659 2 2.2208 232.038 2.50849 1.12057 -0.148196
660 2 2.2208 232.038 5.33417 -1.65117 -0.295118
662 2 2.2208 232.038 11.127 -1.33196 -0.167019
666 2 2.2208 232.038 2.57678 12.5541 -0.159731
347 2 2.2208 232.038 -0.0802977 23.763 13.816
665 2 2.2208 232.038 13.9326 23.704 0.0307738
669 2 2.2208 232.038 2.54716 18.1841 -0.248628
9329 2 2.2208 232.038 13.8069 15.2495 13.8441
340 2 2.2208 232.038 11.0568 12.4342 13.873
26 2 2.2208 232.038 8.08622 12.3934 -0.0608405
19 2 2.2208 232.038 11.015 4.01373 -0.130922
663 2 2.2208 232.038 2.63611 6.78548 28.1229
327 1 -1.1104 15.9994 6.89713 22.2741 26.7091
345 2 2.2208 232.038 10.9912 17.9481 13.9248
405 2 2.2208 232.038 5.37016 -1.68097 22.3096
9675 2 2.2208 232.038 -0.388178 9.62666 22.3109
9419 2 2.2208 232.038 14.0016 18.0804 22.4488
332 1 -1.1104 15.9994 9.79953 21.914 23.8736
658 2 2.2208 232.038 14.024 20.9094 25.3719
9339 2 2.2208 232.038 13.9488 1.06652 16.7522
409 2 2.2208 232.038 10.8929 -1.56786 22.3367
325 2 2.2208 232.038 5.44632 3.95342 28.0393
337 1 -1.1104 15.9994 7.23538 22.1999 23.8129
9390 2 2.2208 232.038 13.8365 -1.53067 25.1216
348 2 2.2208 232.038 8.23999 20.7588 13.9798
355 2 2.2208 232.038 5.31326 -1.51384 16.727
9667 2 2.2208 232.038 -0.372466 4.04612 16.5952
342 1 -1.1104 15.9994 4.11757 22.4641 26.7686
9409 2 2.2208 232.038 13.9788 12.333 22.3707
9410 2 2.2208 232.038 13.9275 9.49177 25.13
357 2 2.2208 232.038 8.15695 -1.7064 19.6959
677 1 -1.1104 15.9994 9.71204 13.5675 26.7233
16 2 2.2208 232.038 8.34808 6.66538 28.068
350 2 2.2208 232.038 11.1198 23.6741 14.1183
359 2 2.2208 232.038 10.9061 -1.68612 16.668
407 2 2.2208 232.038 8.04836 -1.63383 25.1415
351 1 -1.1104 15.9994 1.30848 22.139 26.808
352 2 2.2208 232.038 2.55481 1.20489 16.7512
29 2 2.2208 232.038 11.025 9.6663 28.0268
354 1 -1.1104 15.9994 4.43076 21.9886 24.2751
650 1 -1.1104 15.9994 1.34611 19.4346 23.6207
356 2 2.2208 232.038 8.14637 1.07372 16.7851
644 1 -1.1104 15.9994 12.3298 13.4376 23.7525
358 2 2.2208 232.038 5.46551 1.25508 19.6498
649 1 -1.1104 15.9994 3.99728 16.7069 26.5603
360 2 2.2208 232.038 11.2045 1.09929 19.3871
361 1 -1.1104 15.9994 0.971892 22.0707 23.8519
362 2 2.2208 232.038 2.64937 6.8135 16.6924
363 2 2.2208 232.038 2.56545 4.04338 19.5375
364 1 -1.1104 15.9994 12.428 19.3223 26.844
365 2 2.2208 232.038 5.39658 4.09185 16.7367
366 2 2.2208 232.038 8.36192 6.77393 16.8608
367 2 2.2208 232.038 8.40373 4.02335 19.5628
368 2 2.2208 232.038 5.56993 6.70087 19.6585
369 2 2.2208 232.038 10.9747 3.94604 16.552
370 2 2.2208 232.038 11.0921 6.89154 19.5315
371 1 -1.1104 15.9994 12.5793 19.1869 24.0801
372 2 2.2208 232.038 2.65785 12.4352 16.747
373 2 2.2208 232.038 2.58537 9.67316 19.5494
9677 2 2.2208 232.038 13.9794 1.28197 28.0345
375 2 2.2208 232.038 5.55026 9.58527 16.5985
376 2 2.2208 232.038 8.35577 12.3144 16.7154
377 2 2.2208 232.038 8.25753 9.71755 19.7183
378 2 2.2208 232.038 5.54166 12.5201 19.4815
379 2 2.2208 232.038 11.2397 9.62254 16.8853
380 2 2.2208 232.038 11.1501 12.4109 19.74
381 1 -1.1104 15.9994 12.4337 16.6454 26.6549
382 2 2.2208 232.038 2.71831 18.1223 17.1007
383 2 2.2208 232.038 2.54445 15.1965 19.4717
648 1 -1.1104 15.9994 1.1956 16.6638 26.6644
385 2 2.2208 232.038 5.46012 15.4834 16.7595
386 2 2.2208 232.038 8.08641 17.9569 16.9713
387 2 2.2208 232.038 8.31624 15.2009 19.7218
388 2 2.2208 232.038 5.51413 18.0331 19.7693
389 2 2.2208 232.038 11.1016 15.1187 16.7887
390 2 2.2208 232.038 11.0707 18.0262 19.6286
391 1 -1.1104 15.9994 12.6045 22.1019 26.6599
392 2 2.2208 232.038 2.48868 23.4345 16.682
393 2 2.2208 232.038 2.79223 20.8052 19.8102
9669 2 2.2208 232.038 -0.205111 9.45923 16.6433
395 2 2.2208 232.038 5.2832 20.8368 16.7302
396 2 2.2208 232.038 8.1751 23.6568 16.8683
397 2 2.2208 232.038 8.25907 20.921 19.5696
398 2 2.2208 232.038 5.39118 23.6846 19.5881
399 2 2.2208 232.038 11.034 20.963 16.8186
400 2 2.2208 232.038 11.157 23.6249 19.6891
401 1 -1.1104 15.9994 12.4668 16.3192 23.818
402 2 2.2208 232.038 2.53033 1.37579 22.1737
647 1 -1.1104 15.9994 4.0019 16.48 23.8537
404 1 -1.1104 15.9994 9.63009 19.371 26.6822
646 1 -1.1104 15.9994 1.09329 16.6933 23.9068
406 2 2.2208 232.038 8.23595 1.27363 22.4479
651 1 -1.1104 15.9994 4.16729 19.3881 23.7846
408 2 2.2208 232.038 5.35731 1.23736 25.3739
654 1 -1.1104 15.9994 6.9542 16.5719 23.963
410 2 2.2208 232.038 11.1046 1.11275 25.167
411 1 -1.1104 15.9994 6.89222 19.6099 26.6
412 2 2.2208 232.038 2.47771 6.82715 22.3612
413 2 2.2208 232.038 2.49492 4.04192 25.1752
414 1 -1.1104 15.9994 9.76854 19.3428 23.8426
415 2 2.2208 232.038 5.39095 3.92586 22.4499
416 2 2.2208 232.038 8.1245 6.79074 22.5221
417 2 2.2208 232.038 8.32823 4.00826 25.2382
418 2 2.2208 232.038 5.26317 6.73235 25.1676
419 2 2.2208 232.038 11.0629 4.12109 22.2476
420 2 2.2208 232.038 11.0694 6.79875 25.2368
421 1 -1.1104 15.9994 6.98528 19.3155 23.832
422 2 2.2208 232.038 2.52034 12.5075 22.4272
423 2 2.2208 232.038 2.54284 9.58992 25.1936
424 1 -1.1104 15.9994 9.72514 16.4139 26.6696
425 2 2.2208 232.038 5.32645 9.66065 22.3008
426 2 2.2208 232.038 8.13709 12.4285 22.4591
427 2 2.2208 232.038 8.13237 9.53938 25.2254
428 2 2.2208 232.038 5.35317 12.387 25.4388
429 2 2.2208 232.038 10.9636 9.60759 22.4654
430 2 2.2208 232.038 11.15 12.2234 25.4495
652 1 -1.1104 15.9994 1.08385 19.4034 26.5069
432 2 2.2208 232.038 2.56757 18.0197 22.3654
433 2 2.2208 232.038 2.49026 15.3428 25.172
653 1 -1.1104 15.9994 4.05776 19.3866 26.5231
435 2 2.2208 232.038 5.24514 15.3068 22.4181
436 2 2.2208 232.038 8.21271 17.9475 22.4402
437 2 2.2208 232.038 8.2815 15.0465 25.2482
438 2 2.2208 232.038 5.43305 17.9952 25.2106
439 2 2.2208 232.038 11.091 15.175 22.5196
440 2 2.2208 232.038 10.9513 17.9995 25.2251
656 1 -1.1104 15.9994 6.81738 16.7202 26.6489
442 1 -1.1104 15.9994 12.598 22.1849 23.911
443 2 2.2208 232.038 2.60905 20.8581 25.0628
655 1 -1.1104 15.9994 9.75374 16.3484 24.0785
445 2 2.2208 232.038 5.56766 20.8262 22.5443
446 2 2.2208 232.038 8.47324 23.6033 22.4317
447 2 2.2208 232.038 8.30684 20.8357 25.2129
448 2 2.2208 232.038 5.5027 23.7607 25.2163
449 2 2.2208 232.038 11.0655 20.7865 22.3223
450 2 2.2208 232.038 11.1634 23.5785 25.0465
451 1 -1.1104 15.9994 1.26663 -0.380429 15.3675
452 1 -1.1104 15.9994 4.06326 -0.00219265 15.2496
453 1 -1.1104 15.9994 1.06523 2.69531 15.5432
454 1 -1.1104 15.9994 4.06344 2.65167 15.4477
455 1 -1.1104 15.9994 6.89404 -0.232511 15.221
456 1 -1.1104 15.9994 9.66585 -0.177691 15.3749
457 1 -1.1104 15.9994 6.72975 2.56701 15.3318
458 1 -1.1104 15.9994 9.3942 2.44784 15.4222
459 1 -1.1104 15.9994 12.342 -0.438994 15.115
460 1 -1.1104 15.9994 12.2394 2.24228 15.3266
461 1 -1.1104 15.9994 1.20846 5.32541 15.3868
462 1 -1.1104 15.9994 4.06448 5.3694 15.1494
463 1 -1.1104 15.9994 1.31642 8.14458 15.3559
464 1 -1.1104 15.9994 4.04341 8.2742 15.0882
465 1 -1.1104 15.9994 6.79903 5.34115 15.5012
466 1 -1.1104 15.9994 9.6072 5.24554 15.2848
643 1 -1.1104 15.9994 12.4127 10.7232 26.5522
468 1 -1.1104 15.9994 9.81706 8.16187 15.4236
469 1 -1.1104 15.9994 12.4164 5.22002 15.3755
470 1 -1.1104 15.9994 12.6487 8.10265 15.3401
471 1 -1.1104 15.9994 1.2337 11.1133 15.2409
472 1 -1.1104 15.9994 4.03867 11.1118 15.4106
473 1 -1.1104 15.9994 1.28644 14.1044 15.4113
474 1 -1.1104 15.9994 4.17518 13.8034 15.2189
475 1 -1.1104 15.9994 6.93379 8.12261 15.3515
476 1 -1.1104 15.9994 9.8228 10.9603 15.2889
477 1 -1.1104 15.9994 7.11686 10.9141 15.2995
478 1 -1.1104 15.9994 9.4999 14.0019 15.3954
479 1 -1.1104 15.9994 12.5221 11.1257 15.3095
480 1 -1.1104 15.9994 12.4208 13.8239 15.2722
481 1 -1.1104 15.9994 1.22826 17.2283 15.3451
482 1 -1.1104 15.9994 4.01236 16.7475 15.7062
645 1 -1.1104 15.9994 12.4299 13.6147 26.7121
484 1 -1.1104 15.9994 3.82428 19.4704 15.3066
485 1 -1.1104 15.9994 6.93769 13.8217 15.417
486 1 -1.1104 15.9994 9.54755 16.4937 15.4983
487 1 -1.1104 15.9994 6.69901 16.6968 15.4435
488 1 -1.1104 15.9994 9.49485 19.4735 15.2867
489 1 -1.1104 15.9994 12.4805 16.6317 15.2862
490 1 -1.1104 15.9994 12.5058 19.3841 15.3249
491 1 -1.1104 15.9994 1.32731 22.1863 15.389
492 1 -1.1104 15.9994 4.06265 22.2842 15.1908
493 1 -1.1104 15.9994 6.83454 22.1033 15.4183
494 1 -1.1104 15.9994 9.6971 22.4014 15.488
495 1 -1.1104 15.9994 12.6028 22.1763 15.3626
496 1 -1.1104 15.9994 1.23229 -0.136467 18.1749
497 1 -1.1104 15.9994 3.86852 -0.257705 18.0628
498 1 -1.1104 15.9994 1.07785 -0.205838 20.8938
499 1 -1.1104 15.9994 3.95484 -0.115631 20.9424
500 1 -1.1104 15.9994 1.03794 2.65814 18.3326
501 1 -1.1104 15.9994 3.89909 2.53287 18.2055
502 1 -1.1104 15.9994 1.03558 2.71839 21.0249
503 1 -1.1104 15.9994 4.08756 2.82351 20.967
504 1 -1.1104 15.9994 6.7164 -0.136399 18.154
505 1 -1.1104 15.9994 9.58172 -0.416145 18.3142
506 1 -1.1104 15.9994 6.59668 -0.460132 20.9679
507 1 -1.1104 15.9994 9.37506 -0.380639 21.2095
508 1 -1.1104 15.9994 6.93442 2.59139 18.3286
509 1 -1.1104 15.9994 9.67556 2.43268 18.2495
510 1 -1.1104 15.9994 6.97941 2.4293 21.1054
511 1 -1.1104 15.9994 9.73956 2.39142 20.9658
512 1 -1.1104 15.9994 12.5439 -0.294646 17.9526
513 1 -1.1104 15.9994 12.3866 -0.065944 21.0625
514 1 -1.1104 15.9994 12.6204 2.524 17.9547
515 1 -1.1104 15.9994 12.5449 2.67453 20.9368
516 1 -1.1104 15.9994 1.21055 5.36414 18.1239
517 1 -1.1104 15.9994 4.12103 5.46738 18.0263
518 1 -1.1104 15.9994 1.18771 5.38349 21.0015
519 1 -1.1104 15.9994 4.0703 5.48829 20.93
520 1 -1.1104 15.9994 1.1738 8.1249 18.1118
521 1 -1.1104 15.9994 4.08323 8.23925 18.064
522 1 -1.1104 15.9994 0.957566 8.43643 21.0295
523 1 -1.1104 15.9994 3.79776 8.17318 20.8751
524 1 -1.1104 15.9994 7.08711 5.33007 18.3163
525 1 -1.1104 15.9994 9.86578 5.36044 18.1639
526 1 -1.1104 15.9994 6.73205 5.17235 20.9852
527 1 -1.1104 15.9994 9.61334 5.5155 21.0529
528 1 -1.1104 15.9994 6.99515 8.32761 18.2085
529 1 -1.1104 15.9994 9.67842 8.03582 18.1514
530 1 -1.1104 15.9994 6.83083 8.22975 21.1005
531 1 -1.1104 15.9994 9.66823 8.34347 20.9547
532 1 -1.1104 15.9994 12.5916 5.51296 18.1585
533 1 -1.1104 15.9994 12.6299 5.46352 21.0341
534 1 -1.1104 15.9994 12.6229 8.1375 18.0978
535 1 -1.1104 15.9994 12.3543 8.26209 20.8462
536 1 -1.1104 15.9994 1.23601 10.8597 18.1204
537 1 -1.1104 15.9994 4.06444 10.8853 18.0403
538 1 -1.1104 15.9994 1.18685 11.0867 21.0596
539 1 -1.1104 15.9994 3.95307 10.9207 20.9736
540 1 -1.1104 15.9994 1.42129 13.6714 18.3357
541 1 -1.1104 15.9994 4.25838 13.7959 17.9335
542 1 -1.1104 15.9994 1.30518 14.016 20.9866
543 1 -1.1104 15.9994 4.13693 13.7638 20.9228
544 1 -1.1104 15.9994 6.8695 11.0747 18.2788
545 1 -1.1104 15.9994 9.67951 10.9167 18.135
546 1 -1.1104 15.9994 6.98229 10.8019 21.0621
547 1 -1.1104 15.9994 9.7619 11.0504 20.9194
548 1 -1.1104 15.9994 7.02079 13.9718 18.1741
549 1 -1.1104 15.9994 9.64433 13.8417 18.393
550 1 -1.1104 15.9994 6.86431 13.7452 21.1642
551 1 -1.1104 15.9994 9.80783 13.8156 21.2616
552 1 -1.1104 15.9994 12.5973 11.0059 18.2164
553 1 -1.1104 15.9994 12.5395 10.9675 20.9366
554 1 -1.1104 15.9994 12.4714 13.8378 18.1929
555 1 -1.1104 15.9994 12.4827 13.7917 20.9615
556 1 -1.1104 15.9994 1.2494 16.5285 18.0849
557 1 -1.1104 15.9994 4.04119 16.7402 18.5744
558 1 -1.1104 15.9994 1.20796 16.5935 21.0146
559 1 -1.1104 15.9994 3.91121 16.6295 21.1342
560 1 -1.1104 15.9994 4.17689 19.4568 18.1493
561 1 -1.1104 15.9994 6.62635 19.4883 15.225
562 1 -1.1104 15.9994 1.4014 19.634 18.2975
563 1 -1.1104 15.9994 4.03353 19.3651 21.1252
564 1 -1.1104 15.9994 6.66597 16.5677 18.3318
565 1 -1.1104 15.9994 9.46676 16.694 18.2768
566 1 -1.1104 15.9994 6.75962 16.5718 21.2153
567 1 -1.1104 15.9994 9.71427 16.6505 21.1533
568 1 -1.1104 15.9994 6.85004 19.5753 18.1478
569 1 -1.1104 15.9994 9.64039 19.4408 18.1587
570 1 -1.1104 15.9994 6.95496 19.3453 21.0772
571 1 -1.1104 15.9994 9.75571 19.4519 21.0068
572 1 -1.1104 15.9994 12.195 16.6358 18.239
573 1 -1.1104 15.9994 12.5629 16.5099 20.9635
574 1 -1.1104 15.9994 12.3456 19.4038 18.1241
575 1 -1.1104 15.9994 12.6095 19.4485 21.0231
576 1 -1.1104 15.9994 1.02037 21.9455 20.4372
577 1 -1.1104 15.9994 3.73057 22.1697 18.1077
578 1 -1.1104 15.9994 1.32817 19.2961 21.0471
579 1 -1.1104 15.9994 4.25626 22.0038 20.9798
580 1 -1.1104 15.9994 6.73779 22.2464 18.1693
581 1 -1.1104 15.9994 9.5936 22.1943 18.2014
582 1 -1.1104 15.9994 7.00345 22.3497 20.7683
583 1 -1.1104 15.9994 9.87955 22.299 21.0625
584 1 -1.1104 15.9994 12.5508 22.2961 18.2707
585 1 -1.1104 15.9994 12.6909 22.0581 21.0983
586 1 -1.1104 15.9994 1.25672 -0.373068 23.7377
587 1 -1.1104 15.9994 4.03289 -0.317043 23.7532
588 1 -1.1104 15.9994 1.08659 0.0129215 26.5325
589 1 -1.1104 15.9994 3.95915 -0.327931 26.6436
590 1 -1.1104 15.9994 1.30737 2.50431 23.7422
591 1 -1.1104 15.9994 3.95773 2.7628 23.8559
592 1 -1.1104 15.9994 1.19619 2.59274 26.5115
593 1 -1.1104 15.9994 4.04468 2.49783 26.7555
594 1 -1.1104 15.9994 6.86627 -0.0651151 23.9247
595 1 -1.1104 15.9994 9.6924 -0.41902 23.7758
596 1 -1.1104 15.9994 6.86104 -0.287415 26.8007
597 1 -1.1104 15.9994 9.61635 -0.4683 26.3928
598 1 -1.1104 15.9994 6.8115 2.64886 23.9074
599 1 -1.1104 15.9994 9.70641 2.32229 23.9748
600 1 -1.1104 15.9994 6.83565 2.62867 26.5802
601 1 -1.1104 15.9994 9.72904 2.43808 26.6684
602 1 -1.1104 15.9994 12.5401 -0.234557 23.7256
603 1 -1.1104 15.9994 12.462 -0.218182 26.4607
604 1 -1.1104 15.9994 12.3556 2.64653 23.7341
605 1 -1.1104 15.9994 12.5746 2.46581 26.5367
606 1 -1.1104 15.9994 1.03518 5.42872 23.7547
607 1 -1.1104 15.9994 3.97981 5.32018 23.7395
608 1 -1.1104 15.9994 1.21212 5.48655 26.6029
609 1 -1.1104 15.9994 4.02152 5.31478 26.6232
610 1 -1.1104 15.9994 1.09626 8.24072 23.8725
611 1 -1.1104 15.9994 3.87891 8.16983 23.6604
612 1 -1.1104 15.9994 1.17685 8.2282 26.6398
613 1 -1.1104 15.9994 3.97615 8.10966 26.5859
614 1 -1.1104 15.9994 6.72376 5.44887 23.6988
615 1 -1.1104 15.9994 9.46565 5.17471 23.7485
616 1 -1.1104 15.9994 6.90084 5.37261 26.6716
617 1 -1.1104 15.9994 9.81865 5.22352 26.4953
618 1 -1.1104 15.9994 6.66175 8.14921 23.8551
619 1 -1.1104 15.9994 9.6594 7.96864 23.8456
620 1 -1.1104 15.9994 6.88084 8.12178 26.822
621 1 -1.1104 15.9994 9.62297 8.00317 26.6759
622 1 -1.1104 15.9994 12.5484 5.61182 23.823
623 1 -1.1104 15.9994 12.427 5.26559 26.6294
624 1 -1.1104 15.9994 12.544 8.00741 23.633
625 1 -1.1104 15.9994 12.4896 8.0886 26.5101
626 1 -1.1104 15.9994 1.02761 11.114 23.7173
627 1 -1.1104 15.9994 3.88251 10.8661 23.87
628 1 -1.1104 15.9994 1.09487 11.2328 26.773
629 1 -1.1104 15.9994 3.84372 10.952 26.5354
630 1 -1.1104 15.9994 1.22512 13.7635 23.8659
631 1 -1.1104 15.9994 3.99263 13.7469 23.6327
632 1 -1.1104 15.9994 1.11618 13.8628 26.6316
633 1 -1.1104 15.9994 3.95189 13.8256 26.6533
634 1 -1.1104 15.9994 6.69233 11.0678 23.9616
635 1 -1.1104 15.9994 9.31203 10.818 23.6836
636 1 -1.1104 15.9994 6.53343 10.9315 26.6756
637 1 -1.1104 15.9994 9.77678 22.3015 26.679