ITEM: TIMESTEP
100000
ITEM: NUMBER OF ATOMS
18000
ITEM: BOX BOUNDS xy xz yz pp pp pp
-2.3311594243682679e-01 2.8127115942437637e+01 0.0000000000000000e+00
-2.6398871743120553e+00 3.3736788717431824e+02 0.0000000000000000e+00
-2.1862169875777029e-01 2.8112621698758144e+01 0.0000000000000000e+00
ITEM: ATOMS id type q mass x y z
91 2 2.2208 232.038 -0.138322 20.0739 5.36584
8981 2 2.2208 232.038 -0.19706 14.4754 11.2204
659 2 2.2208 232.038 2.59819 0.355218 -0.109611
4 1 -1.1104 15.9994 12.5528 21.2923 12.3332
1 2 2.2208 232.038 13.8994 22.7043 5.64032
343 2 2.2208 232.038 8.12453 14.2917 13.9118
8992 2 2.2208 232.038 13.8882 3.05434 2.3708
8 2 2.2208 232.038 5.59368 0.369563 2.68999
9 1 -1.1104 15.9994 12.5107 7.02169 12.5685
10 2 2.2208 232.038 10.9334 0.179373 2.27616
11 1 -1.1104 15.9994 9.52096 21.242 12.5742
675 2 2.2208 232.038 5.80803 19.9458 -0.15716
13 2 2.2208 232.038 2.51502 3.11453 2.43312
14 1 -1.1104 15.9994 6.72204 21.4191 12.5448
669 2 2.2208 232.038 3.03569 17.1865 -0.137429
9324 2 2.2208 232.038 13.7349 8.57814 13.7081
17 2 2.2208 232.038 8.22802 3.1615 2.53436
18 2 2.2208 232.038 5.3831 6.04738 2.41809
9041 2 2.2208 232.038 13.7497 5.81904 5.03079
20 2 2.2208 232.038 10.8918 5.96198 2.44465
21 1 -1.1104 15.9994 3.93035 21.2723 12.4794
22 1 -1.1104 15.9994 1.326 15.6333 12.4782
23 2 2.2208 232.038 2.56756 8.59015 2.27638
338 2 2.2208 232.038 8.23089 8.56076 13.6693
44 2 2.2208 232.038 -0.135081 22.7921 2.53106
339 2 2.2208 232.038 5.43163 11.3331 13.8189
27 2 2.2208 232.038 8.44818 8.7409 2.29885
28 2 2.2208 232.038 5.53824 11.5535 2.4151
333 2 2.2208 232.038 8.14044 2.80462 13.9352
30 2 2.2208 232.038 11.3081 11.6031 2.33919
31 1 -1.1104 15.9994 12.3939 12.5558 12.5627
32 1 -1.1104 15.9994 12.4467 9.83621 12.2487
33 2 2.2208 232.038 2.76905 14.4762 2.51571
324 1 -1.1104 15.9994 12.3629 4.24778 12.3816
35 1 -1.1104 15.9994 9.54724 12.652 12.6707
36 1 -1.1104 15.9994 6.60529 13.092 12.4859
37 2 2.2208 232.038 8.52496 14.2187 2.52614
38 2 2.2208 232.038 5.54251 17.1458 2.84762
39 1 -1.1104 15.9994 9.81836 9.69922 12.3257
40 2 2.2208 232.038 11.3199 16.9823 2.67263
41 1 -1.1104 15.9994 6.82026 10.1308 12.3214
42 1 -1.1104 15.9994 3.90309 12.7721 12.4878
43 2 2.2208 232.038 2.72472 20.044 2.76369
323 1 -1.1104 15.9994 9.53137 7.04074 12.301
45 1 -1.1104 15.9994 1.08531 12.8624 12.5995
46 1 -1.1104 15.9994 3.93777 9.93385 12.3659
47 2 2.2208 232.038 8.48864 20.101 2.54472
48 2 2.2208 232.038 5.56143 22.7831 2.51521
49 1 -1.1104 15.9994 1.14381 7.15103 12.5375
50 2 2.2208 232.038 11.3742 22.7775 2.53052
51 1 -1.1104 15.9994 1.02228 21.1959 12.4264
52 2 2.2208 232.038 2.32374 0.157049 5.16534
9081 2 2.2208 232.038 13.7725 0.149527 11.0459
54 1 -1.1104 15.9994 12.4847 18.2789 12.6558
9908 1 -1.1104 15.9994 13.67 23.0335 8.25396
56 2 2.2208 232.038 8.21092 -0.0500023 5.4097
9002 2 2.2208 232.038 13.7762 8.48056 2.31166
58 2 2.2208 232.038 5.25413 0.0430297 8.13067
330 2 2.2208 232.038 10.8741 0.196861 13.945
60 2 2.2208 232.038 10.9713 0.0914536 8.03248
61 1 -1.1104 15.9994 12.4519 15.5057 12.6372
62 2 2.2208 232.038 2.42059 5.858 5.12281
63 2 2.2208 232.038 2.39442 2.90915 7.92422
64 1 -1.1104 15.9994 9.57623 18.243 12.2378
65 2 2.2208 232.038 5.22414 3.17534 5.46258
66 2 2.2208 232.038 8.04621 5.92603 5.23676
67 2 2.2208 232.038 8.2229 2.91858 8.16871
68 2 2.2208 232.038 5.39088 5.74903 8.08451
69 2 2.2208 232.038 10.8536 2.76871 5.02957
70 2 2.2208 232.038 10.9687 5.78007 7.99629
71 1 -1.1104 15.9994 6.87113 18.4802 12.452
72 2 2.2208 232.038 2.69933 11.6059 5.62152
73 2 2.2208 232.038 2.3585 8.6917 8.15572
74 1 -1.1104 15.9994 9.8957 15.4955 12.318
75 2 2.2208 232.038 5.2211 8.81265 5.18222
76 2 2.2208 232.038 8.41641 11.4776 5.19551
77 2 2.2208 232.038 8.1637 8.4509 8.17961
78 2 2.2208 232.038 5.39374 11.5464 8.10675
79 2 2.2208 232.038 11.1933 8.66933 5.10069
80 2 2.2208 232.038 11.1177 11.3296 8.1028
322 1 -1.1104 15.9994 7.02061 7.06139 12.3846
82 2 2.2208 232.038 2.67279 17.1015 5.35779
83 2 2.2208 232.038 2.69956 14.3304 8.20682
672 2 2.2208 232.038 11.151 14.2814 0.0864399
85 2 2.2208 232.038 5.51106 14.3521 5.11734
86 2 2.2208 232.038 8.38704 17.1694 5.32384
87 2 2.2208 232.038 8.19372 13.9264 8.38779
88 2 2.2208 232.038 5.32099 17.2422 7.97922
89 2 2.2208 232.038 11.1513 14.2447 5.64641
90 2 2.2208 232.038 10.9012 16.9044 8.19769
321 1 -1.1104 15.9994 9.34189 4.12661 12.3381
92 2 2.2208 232.038 2.7563 23.0525 5.36579
93 2 2.2208 232.038 2.52102 20.0678 8.1393
81 2 2.2208 232.038 -0.203953 14.3248 5.46407
95 2 2.2208 232.038 5.69081 20.0608 5.58804
96 2 2.2208 232.038 8.74399 22.8282 5.32889
97 2 2.2208 232.038 8.13272 19.9308 8.45909
98 2 2.2208 232.038 5.5855 22.6828 8.32232
99 2 2.2208 232.038 10.9425 19.9304 5.47806
100 2 2.2208 232.038 11.2353 22.5532 8.47169
101 1 -1.1104 15.9994 6.95789 15.8287 12.4851
102 2 2.2208 232.038 2.34464 0.258348 10.7597
9096 2 2.2208 232.038 13.6934 16.8791 11.1969
104 2 2.2208 232.038 8.36947 0.143956 11.0035
471 1 -1.1104 15.9994 1.13765 10.0683 12.4244
106 1 -1.1104 15.9994 3.91448 18.537 12.3144
107 2 2.2208 232.038 2.28189 5.74373 10.788
108 2 2.2208 232.038 5.222 2.83175 10.9246
109 2 2.2208 232.038 8.13878 5.70016 10.8625
110 2 2.2208 232.038 10.9684 2.85756 10.9832
111 1 -1.1104 15.9994 0.977367 18.36 12.5777
112 2 2.2208 232.038 2.59097 11.4864 10.8209
113 2 2.2208 232.038 5.21804 8.62801 10.9599
114 2 2.2208 232.038 8.3466 11.2098 10.9364
115 2 2.2208 232.038 11.1111 8.47107 10.9332
116 1 -1.1104 15.9994 4.05592 15.7902 12.2541
117 2 2.2208 232.038 2.6528 16.8896 11.1005
118 2 2.2208 232.038 5.39764 14.1818 10.9502
119 2 2.2208 232.038 8.28161 16.982 10.98
120 2 2.2208 232.038 11.1367 14.1758 10.9563
320 1 -1.1104 15.9994 6.48717 4.20014 12.5686
122 2 2.2208 232.038 2.67828 22.8592 11.1439
123 2 2.2208 232.038 5.23177 19.8883 10.9374
124 2 2.2208 232.038 8.26258 22.7758 11.0768
125 2 2.2208 232.038 11.0113 19.5564 11.2494
126 1 -1.1104 15.9994 1.04443 -1.05175 1.04102
127 1 -1.1104 15.9994 3.83343 -1.02805 1.42604
128 1 -1.1104 15.9994 0.906938 -1.37591 3.80896
129 1 -1.1104 15.9994 3.78579 -1.46251 4.17199
130 1 -1.1104 15.9994 1.07972 1.64031 1.16857
131 1 -1.1104 15.9994 3.88159 1.88311 1.01417
132 1 -1.1104 15.9994 1.07259 1.58065 3.88633
133 1 -1.1104 15.9994 3.80673 1.66172 3.98437
134 1 -1.1104 15.9994 6.96075 -1.22539 1.05052
135 1 -1.1104 15.9994 9.61221 -1.22683 0.720789
136 1 -1.1104 15.9994 6.93659 -1.23115 3.82591
137 1 -1.1104 15.9994 9.65616 -1.423 3.55355
138 1 -1.1104 15.9994 6.82352 1.79307 1.17125
139 1 -1.1104 15.9994 9.62368 1.60535 0.962899
140 1 -1.1104 15.9994 6.6228 1.78114 3.85991
141 1 -1.1104 15.9994 9.58433 1.58275 3.68209
142 1 -1.1104 15.9994 12.4182 -1.25315 0.809961
143 1 -1.1104 15.9994 12.4967 -1.03443 4.06759
144 1 -1.1104 15.9994 12.2028 1.64853 1.17239
145 1 -1.1104 15.9994 12.4545 1.54224 3.89863
146 1 -1.1104 15.9994 0.974849 4.50946 1.1715
147 1 -1.1104 15.9994 4.08189 4.58716 0.946228
148 1 -1.1104 15.9994 1.34287 4.23836 4.08336
149 1 -1.1104 15.9994 3.94093 4.51368 3.92039
150 1 -1.1104 15.9994 1.09388 7.29311 1.17386
151 1 -1.1104 15.9994 3.98713 7.38772 0.717258
152 1 -1.1104 15.9994 1.09864 7.24395 3.78128
153 1 -1.1104 15.9994 3.92562 7.30941 3.56405
154 1 -1.1104 15.9994 6.84176 4.55738 1.11106
155 1 -1.1104 15.9994 9.50536 4.52825 1.05425
156 1 -1.1104 15.9994 6.91015 4.6108 3.83442
157 1 -1.1104 15.9994 9.74716 4.3623 3.97483
158 1 -1.1104 15.9994 6.93407 7.49127 1.07766
159 1 -1.1104 15.9994 9.68921 7.30025 1.04143
160 1 -1.1104 15.9994 6.74959 7.31556 3.93581
161 1 -1.1104 15.9994 9.70143 7.24992 3.91164
162 1 -1.1104 15.9994 12.4949 4.47464 1.16832
163 1 -1.1104 15.9994 12.518 4.13195 4.05214
164 1 -1.1104 15.9994 12.5615 7.32098 1.00606
165 1 -1.1104 15.9994 12.4108 6.98203 3.67405
166 1 -1.1104 15.9994 0.954948 10.1375 1.16827
167 1 -1.1104 15.9994 3.83271 9.8823 1.11617
168 1 -1.1104 15.9994 1.19178 10.1983 4.04348
169 1 -1.1104 15.9994 3.89201 10.0041 3.89247
170 1 -1.1104 15.9994 1.1827 13.0951 1.15202
171 1 -1.1104 15.9994 4.14214 12.7797 1.13912
172 1 -1.1104 15.9994 1.61518 12.9395 4.20833
173 1 -1.1104 15.9994 4.35249 12.8091 4.05786
174 1 -1.1104 15.9994 6.99734 10.1347 1.05011
175 1 -1.1104 15.9994 9.89192 10.0627 1.08006
176 1 -1.1104 15.9994 6.9832 10.2059 3.90866
177 1 -1.1104 15.9994 9.94121 10.1716 3.76389
178 1 -1.1104 15.9994 7.00473 12.7716 1.14482
179 1 -1.1104 15.9994 9.71271 12.9885 1.27108
180 1 -1.1104 15.9994 6.90942 12.9264 3.93135
181 1 -1.1104 15.9994 9.66998 12.8376 3.90446
182 1 -1.1104 15.9994 12.6027 10.076 1.0296
183 1 -1.1104 15.9994 12.5798 9.70756 3.80199
184 1 -1.1104 15.9994 12.6378 12.9749 0.79645
185 1 -1.1104 15.9994 12.6725 12.6047 3.87294
186 1 -1.1104 15.9994 1.21221 15.6946 1.05922
187 1 -1.1104 15.9994 4.21796 15.5426 1.08008
188 1 -1.1104 15.9994 1.15536 15.8835 4.13438
189 1 -1.1104 15.9994 3.99231 15.7877 3.84329
190 1 -1.1104 15.9994 1.62813 18.4363 1.28141
191 1 -1.1104 15.9994 4.32266 18.6817 1.3076
192 1 -1.1104 15.9994 1.20318 18.6029 4.09778
193 1 -1.1104 15.9994 4.09805 18.6833 3.9974
194 1 -1.1104 15.9994 6.79868 15.8251 1.08042
195 1 -1.1104 15.9994 9.92775 15.951 1.19876
196 1 -1.1104 15.9994 7.16368 15.7454 3.67658
197 1 -1.1104 15.9994 9.95798 15.567 4.07627
198 1 -1.1104 15.9994 6.95593 18.6279 1.47084
199 1 -1.1104 15.9994 9.97179 18.8463 1.28463
200 1 -1.1104 15.9994 6.81386 18.4588 4.31211
201 1 -1.1104 15.9994 9.56978 18.6561 4.01836
202 1 -1.1104 15.9994 12.7154 15.5833 1.23351
203 1 -1.1104 15.9994 12.7323 15.3056 4.11554
204 1 -1.1104 15.9994 12.9098 18.616 1.16585
205 1 -1.1104 15.9994 12.6296 18.4173 3.99329
206 1 -1.1104 15.9994 1.25 21.3011 1.29803
207 1 -1.1104 15.9994 4.26392 21.4633 1.21576
208 1 -1.1104 15.9994 1.32442 21.5314 4.15753
209 1 -1.1104 15.9994 4.30572 21.5192 4.01961
210 1 -1.1104 15.9994 6.98396 21.5055 1.11928
211 1 -1.1104 15.9994 9.95506 21.2704 1.21171
212 1 -1.1104 15.9994 7.06694 21.2977 4.22846
213 1 -1.1104 15.9994 9.97783 21.4198 3.82676
214 1 -1.1104 15.9994 12.6719 21.7729 1.05175
215 1 -1.1104 15.9994 12.669 21.2641 4.22495
216 1 -1.1104 15.9994 1.0586 -1.49715 6.61934
217 1 -1.1104 15.9994 3.79224 -0.948991 6.89968
218 1 -1.1104 15.9994 0.824633 -1.51358 9.61093
219 1 -1.1104 15.9994 3.73548 -1.17601 9.67822
220 1 -1.1104 15.9994 0.885596 1.01453 6.62381
221 1 -1.1104 15.9994 3.9605 1.79266 6.76355
222 1 -1.1104 15.9994 1.17409 1.60281 9.13494
223 1 -1.1104 15.9994 3.79462 1.59252 9.35091
224 1 -1.1104 15.9994 6.71268 -1.31156 6.6168
225 1 -1.1104 15.9994 9.43469 -1.39226 6.70169
226 1 -1.1104 15.9994 6.52664 -1.45648 9.56016
227 1 -1.1104 15.9994 9.50914 -1.20327 9.34723
228 1 -1.1104 15.9994 6.80454 1.58225 6.62191
229 1 -1.1104 15.9994 9.47815 1.36643 6.48378
230 1 -1.1104 15.9994 6.8596 1.29506 9.28119
231 1 -1.1104 15.9994 9.63845 1.36354 9.48112
232 1 -1.1104 15.9994 12.4816 -1.36782 6.68984
233 1 -1.1104 15.9994 12.233 -1.43589 9.55886
234 1 -1.1104 15.9994 12.4617 1.64092 6.65548
235 1 -1.1104 15.9994 12.4301 1.44805 9.55949
236 1 -1.1104 15.9994 0.823771 3.99442 6.66377
237 1 -1.1104 15.9994 3.89533 4.33072 6.7826
238 1 -1.1104 15.9994 0.701372 4.45265 9.44086
239 1 -1.1104 15.9994 3.82868 4.32208 9.43221
240 1 -1.1104 15.9994 1.00855 7.14057 6.53895
241 1 -1.1104 15.9994 4.01713 7.22821 6.7996
242 1 -1.1104 15.9994 0.990997 7.14295 9.605
243 1 -1.1104 15.9994 3.57715 7.2438 9.49337
244 1 -1.1104 15.9994 6.9203 4.41637 6.77894
245 1 -1.1104 15.9994 9.60976 4.22894 6.82318
246 1 -1.1104 15.9994 6.61933 4.39217 9.63891
247 1 -1.1104 15.9994 9.35804 4.33593 9.53967
248 1 -1.1104 15.9994 6.68292 7.1717 6.7353
249 1 -1.1104 15.9994 9.54392 7.12474 6.7892
250 1 -1.1104 15.9994 6.63722 7.07341 9.6399
251 1 -1.1104 15.9994 9.54504 7.17072 9.51594
252 1 -1.1104 15.9994 12.6625 4.36404 6.80315
253 1 -1.1104 15.9994 12.3967 4.36976 9.67373
254 1 -1.1104 15.9994 12.3239 7.04034 6.65093
255 1 -1.1104 15.9994 12.4056 7.11678 9.4148
256 1 -1.1104 15.9994 0.908624 9.87123 6.83865
257 1 -1.1104 15.9994 3.83854 10.0702 7.01595
258 1 -1.1104 15.9994 1.14325 10.0348 9.73541
259 1 -1.1104 15.9994 3.88133 10.0493 9.59933
260 1 -1.1104 15.9994 1.10257 12.8547 6.85858
261 1 -1.1104 15.9994 3.8438 12.8504 6.94162
262 1 -1.1104 15.9994 1.26842 12.71 9.4936
263 1 -1.1104 15.9994 3.9486 12.936 9.72075
264 1 -1.1104 15.9994 6.7113 10.1402 6.46502
265 1 -1.1104 15.9994 9.45322 10.0668 6.61652
266 1 -1.1104 15.9994 6.88746 9.95974 9.52928
267 1 -1.1104 15.9994 9.83733 9.94 9.5448
268 1 -1.1104 15.9994 6.69715 12.8198 7.0223
269 1 -1.1104 15.9994 9.60654 12.7712 6.81472
270 1 -1.1104 15.9994 6.69002 12.772 9.66244
271 1 -1.1104 15.9994 9.72667 12.6483 9.50504
272 1 -1.1104 15.9994 12.4969 10.0063 6.60251
273 1 -1.1104 15.9994 12.4316 9.8206 9.41873
274 1 -1.1104 15.9994 12.4469 12.8062 6.56699
275 1 -1.1104 15.9994 12.554 12.4285 9.53551
276 1 -1.1104 15.9994 1.41351 15.776 6.97131
277 1 -1.1104 15.9994 4.11623 15.7197 6.63736
278 1 -1.1104 15.9994 1.13639 15.6908 9.53619
279 1 -1.1104 15.9994 4.18468 15.7806 9.53016
280 1 -1.1104 15.9994 1.36706 18.5813 6.8081
281 1 -1.1104 15.9994 4.09054 18.503 6.74395
282 1 -1.1104 15.9994 1.15465 18.5636 9.34025
283 1 -1.1104 15.9994 3.77189 18.7107 9.59075
284 1 -1.1104 15.9994 6.90578 15.8356 6.34947
285 1 -1.1104 15.9994 9.69851 15.4529 6.82222
286 1 -1.1104 15.9994 6.88052 15.4366 9.67957
287 1 -1.1104 15.9994 9.63917 15.5416 9.48914
288 1 -1.1104 15.9994 6.80703 18.7041 7.01303
289 1 -1.1104 15.9994 9.49667 18.5965 6.85565
290 1 -1.1104 15.9994 6.39096 18.4452 9.75214
291 1 -1.1104 15.9994 9.53742 18.3535 9.56812
292 1 -1.1104 15.9994 12.6643 15.4322 6.78134
293 1 -1.1104 15.9994 12.6551 15.4112 9.71381
294 1 -1.1104 15.9994 12.3972 18.2367 6.76404
295 1 -1.1104 15.9994 12.4138 18.0706 9.67217
296 1 -1.1104 15.9994 1.21305 21.4302 6.65679
297 1 -1.1104 15.9994 4.15154 21.4193 6.96893
298 1 -1.1104 15.9994 1.11738 21.3036 9.59459
299 1 -1.1104 15.9994 4.0562 21.6715 9.6568
300 1 -1.1104 15.9994 7.16951 21.3336 6.94937
301 1 -1.1104 15.9994 9.94467 21.4874 6.70103
302 1 -1.1104 15.9994 6.94358 21.2362 9.87083
303 1 -1.1104 15.9994 9.59655 21.4228 9.49023
304 1 -1.1104 15.9994 12.4068 20.9831 6.82238
305 1 -1.1104 15.9994 12.2391 20.9978 9.51448
9091 2 2.2208 232.038 13.8486 11.3598 11.0167
307 1 -1.1104 15.9994 3.90127 -1.25649 12.6496
308 1 -1.1104 15.9994 0.950257 -1.23235 12.3817
309 1 -1.1104 15.9994 3.63866 1.39611 12.4573
310 1 -1.1104 15.9994 6.92977 -1.38692 12.6063
311 1 -1.1104 15.9994 9.55525 -1.23655 12.5743
312 1 -1.1104 15.9994 6.65907 1.32233 12.1143
313 1 -1.1104 15.9994 9.5369 1.64545 12.3475
314 1 -1.1104 15.9994 12.3658 -1.22135 12.4588
315 1 -1.1104 15.9994 12.2336 1.4629 12.4602
316 1 -1.1104 15.9994 0.936803 1.43293 12.2071
317 1 -1.1104 15.9994 3.71395 4.18536 12.5188
318 1 -1.1104 15.9994 1.00074 4.11236 12.4646
319 1 -1.1104 15.9994 3.94127 6.8735 12.5711
374 2 2.2208 232.038 11.3356 19.9758 -0.207647
105 2 2.2208 232.038 10.7218 -2.50267 11.0789
331 2 2.2208 232.038 2.44359 2.98353 13.887
2 2 2.2208 232.038 13.7345 19.7295 8.11145
9319 2 2.2208 232.038 13.5369 3.0964 13.8591
349 2 2.2208 232.038 5.3168 22.8001 13.8406
346 2 2.2208 232.038 2.48304 19.7064 13.8858
329 2 2.2208 232.038 5.17811 0.150403 13.8004
335 2 2.2208 232.038 10.9198 5.75735 13.7711
59 2 2.2208 232.038 10.9716 -2.32062 5.22615
336 2 2.2208 232.038 2.63422 8.619 13.9252
94 2 2.2208 232.038 -0.137468 22.7975 8.20098
121 2 2.2208 232.038 -0.22696 20.0634 10.8402
9086 2 2.2208 232.038 13.9144 5.47105 10.9726
34 2 2.2208 232.038 -0.194216 17.0916 2.70144
674 2 2.2208 232.038 2.77565 22.5973 -0.188643
676 2 2.2208 232.038 8.65429 22.6953 -0.13936
670 2 2.2208 232.038 5.61091 14.2402 -0.180807
403 2 2.2208 232.038 2.51905 -2.59386 25.2849
327 1 -1.1104 15.9994 7.27802 21.2876 26.8302
9370 2 2.2208 232.038 13.9381 14.3748 19.6855
9369 2 2.2208 232.038 13.8528 16.9092 16.6551
9339 2 2.2208 232.038 13.8558 -0.0825973 16.5967
26 2 2.2208 232.038 8.2305 11.391 27.8872
332 1 -1.1104 15.9994 9.8997 21.2579 23.6716
671 2 2.2208 232.038 8.52004 17.153 28.077
341 2 2.2208 232.038 2.58732 14.2321 14.0048
652 1 -1.1104 15.9994 1.48908 18.5654 27.0611
9334 2 2.2208 232.038 13.8207 19.9669 13.9966
337 1 -1.1104 15.9994 6.93649 21.2048 23.9518
673 2 2.2208 232.038 -0.0472758 19.9882 28.001
661 2 2.2208 232.038 8.29972 0.141371 27.8835
663 2 2.2208 232.038 2.67137 5.94604 27.9439
361 1 -1.1104 15.9994 0.957369 21.0942 24.3294
342 1 -1.1104 15.9994 4.26595 21.283 26.9398
29 2 2.2208 232.038 11.2464 8.61956 27.9414
9349 2 2.2208 232.038 13.6673 5.88323 16.4666
25 2 2.2208 232.038 5.44068 8.81534 27.9572
653 1 -1.1104 15.9994 4.2759 18.4059 26.8528
677 1 -1.1104 15.9994 9.70299 12.6387 26.7803
664 2 2.2208 232.038 -0.202166 14.2322 16.8249
666 2 2.2208 232.038 2.61118 11.5868 28.0197
348 2 2.2208 232.038 8.05425 19.9898 13.9875
351 1 -1.1104 15.9994 1.36468 21.3976 26.6829
352 2 2.2208 232.038 2.67142 0.135888 16.5882
407 2 2.2208 232.038 8.26465 -2.50602 25.2167
354 1 -1.1104 15.9994 4.2432 21.2707 24.1718
9700 2 2.2208 232.038 -0.119058 11.5833 19.5445
356 2 2.2208 232.038 8.15214 -0.0407675 16.9752
9409 2 2.2208 232.038 13.6289 11.4404 22.6339
358 2 2.2208 232.038 5.29956 0.0714884 19.6442
394 2 2.2208 232.038 -0.201466 22.9625 19.2243
360 2 2.2208 232.038 10.9555 0.160529 19.4652
325 2 2.2208 232.038 5.46906 3.08254 28.0334
362 2 2.2208 232.038 2.72059 5.82342 16.7369
363 2 2.2208 232.038 2.56753 3.02285 19.459
364 1 -1.1104 15.9994 12.5329 18.4939 26.8563
365 2 2.2208 232.038 5.22809 2.70912 16.9355
366 2 2.2208 232.038 8.21128 5.8819 16.7764
367 2 2.2208 232.038 8.11126 2.94848 19.7104
368 2 2.2208 232.038 5.56403 5.75447 19.5668
369 2 2.2208 232.038 10.8893 2.98224 16.6016
370 2 2.2208 232.038 11.0661 5.92292 19.3668
371 1 -1.1104 15.9994 12.5338 18.3867 23.9544
372 2 2.2208 232.038 2.50227 11.3506 16.6848
373 2 2.2208 232.038 2.67569 8.63992 19.6776
651 1 -1.1104 15.9994 4.17894 18.3592 23.731
375 2 2.2208 232.038 5.35676 8.59028 16.6142
376 2 2.2208 232.038 8.09138 11.3373 16.5731
377 2 2.2208 232.038 8.18942 8.80881 19.4497
378 2 2.2208 232.038 5.34009 11.4449 19.6149
379 2 2.2208 232.038 10.9901 8.71351 16.6213
380 2 2.2208 232.038 10.9778 11.631 19.4844
381 1 -1.1104 15.9994 12.8126 15.83 26.6012
382 2 2.2208 232.038 2.73003 17.0715 16.7358
383 2 2.2208 232.038 2.51489 14.298 19.5925
1142 1 -1.1104 15.9994 1.09996 21.0573 15.353
385 2 2.2208 232.038 5.29482 14.0559 16.5839
386 2 2.2208 232.038 8.195 17.3616 16.6343
387 2 2.2208 232.038 8.08568 14.35 19.5054
388 2 2.2208 232.038 5.26783 17.3218 19.5515
389 2 2.2208 232.038 10.9509 14.3264 16.7909
390 2 2.2208 232.038 10.8856 17.1678 19.6207
391 1 -1.1104 15.9994 12.6727 21.1221 26.5314
392 2 2.2208 232.038 2.39095 22.526 16.6866
393 2 2.2208 232.038 2.63166 19.7772 19.37
656 1 -1.1104 15.9994 7.14868 15.8003 26.6909
395 2 2.2208 232.038 5.15197 20.1844 16.4054
396 2 2.2208 232.038 8.08272 23.0135 16.7299
397 2 2.2208 232.038 8.27461 20.0077 19.7122
398 2 2.2208 232.038 5.32074 22.5561 19.7498
399 2 2.2208 232.038 11.081 19.9379 16.8733
400 2 2.2208 232.038 11.1572 22.9576 19.6154
401 1 -1.1104 15.9994 12.6589 15.7992 23.96
402 2 2.2208 232.038 2.37459 0.217797 22.3839
409 2 2.2208 232.038 10.9882 -2.51193 22.1774
404 1 -1.1104 15.9994 9.59658 18.4049 26.5419
655 1 -1.1104 15.9994 9.64407 15.6723 24.0906
406 2 2.2208 232.038 8.25925 0.353392 22.4219
654 1 -1.1104 15.9994 6.95755 15.7548 23.8274
408 2 2.2208 232.038 5.34584 0.153908 25.198
650 1 -1.1104 15.9994 1.55934 18.5034 23.861
410 2 2.2208 232.038 11.1814 0.377534 25.0463
411 1 -1.1104 15.9994 7.02207 18.3677 26.6587
412 2 2.2208 232.038 2.68177 5.89203 22.3056
413 2 2.2208 232.038 2.39303 3.15525 25.1183
414 1 -1.1104 15.9994 9.85996 18.4606 23.6618
415 2 2.2208 232.038 5.3001 3.01598 22.5025
416 2 2.2208 232.038 8.3682 5.7974 22.3889
417 2 2.2208 232.038 8.23275 3.09495 25.1889
418 2 2.2208 232.038 5.36658 5.93977 25.128
419 2 2.2208 232.038 11.1706 2.9901 22.3818
420 2 2.2208 232.038 11.1018 5.85738 25.0344
421 1 -1.1104 15.9994 7.14328 18.4754 23.5877
422 2 2.2208 232.038 2.59983 11.5097 22.359
423 2 2.2208 232.038 2.5145 8.75751 25.3319
424 1 -1.1104 15.9994 9.81604 15.6909 26.8324
425 2 2.2208 232.038 5.31742 8.57617 22.3708
426 2 2.2208 232.038 8.28626 11.5836 22.441
427 2 2.2208 232.038 8.32548 8.55915 25.2229
428 2 2.2208 232.038 5.46663 11.4567 24.9732
429 2 2.2208 232.038 10.9505 8.67142 22.3101
430 2 2.2208 232.038 10.9553 11.418 25.3094
434 2 2.2208 232.038 -0.115061 17.2289 25.1749
432 2 2.2208 232.038 2.46542 16.9464 22.4282
433 2 2.2208 232.038 2.54116 14.3546 25.2544
345 2 2.2208 232.038 10.9356 17.106 13.9294
435 2 2.2208 232.038 5.30361 14.3304 22.3364
436 2 2.2208 232.038 8.38514 17.2432 22.39
437 2 2.2208 232.038 8.36618 14.3689 25.4328
438 2 2.2208 232.038 5.53148 16.9873 25.2366
439 2 2.2208 232.038 11.0493 14.3415 22.4047
440 2 2.2208 232.038 11.3211 17.0079 25.3725
9410 2 2.2208 232.038 13.8338 8.75273 25.046
442 1 -1.1104 15.9994 12.6134 21.231 23.6824
443 2 2.2208 232.038 2.82488 19.9057 25.3812
350 2 2.2208 232.038 11.1645 22.6549 13.952
445 2 2.2208 232.038 5.33074 19.8532 22.4904
446 2 2.2208 232.038 8.48277 22.6929 22.4688
447 2 2.2208 232.038 8.30498 19.8431 25.2924
448 2 2.2208 232.038 5.79329 22.6925 25.1864
449 2 2.2208 232.038 11.2255 20.0122 22.4172
450 2 2.2208 232.038 11.311 22.6769 25.3571
451 1 -1.1104 15.9994 1.04462 -1.22046 15.3303
452 1 -1.1104 15.9994 4.13435 -1.45112 15.2154
453 1 -1.1104 15.9994 1.02568 1.45852 15.2309
454 1 -1.1104 15.9994 3.96604 1.33105 15.3527
455 1 -1.1104 15.9994 6.92472 -1.31244 15.6435
456 1 -1.1104 15.9994 9.68836 -1.2927 15.3837
457 1 -1.1104 15.9994 6.69513 1.40291 15.037
458 1 -1.1104 15.9994 9.50263 1.59315 15.2617
459 1 -1.1104 15.9994 12.3491 -1.39081 15.2424
460 1 -1.1104 15.9994 12.2019 1.42263 15.3125
461 1 -1.1104 15.9994 0.915852 4.27652 15.1337
462 1 -1.1104 15.9994 3.67368 4.00879 15.4064
463 1 -1.1104 15.9994 1.22495 6.97403 15.3351
464 1 -1.1104 15.9994 4.00201 7.13042 15.5391
465 1 -1.1104 15.9994 6.97366 4.12218 15.5973
466 1 -1.1104 15.9994 9.59745 4.37845 15.0229
467 1 -1.1104 15.9994 6.75028 7.03408 15.0918
468 1 -1.1104 15.9994 9.55035 7.23579 15.2764
469 1 -1.1104 15.9994 12.3992 4.45859 15.1356
470 1 -1.1104 15.9994 12.2911 7.22571 15.3028
19 2 2.2208 232.038 11.1468 3.06682 28.054
472 1 -1.1104 15.9994 3.91506 10.044 15.2169
473 1 -1.1104 15.9994 1.01837 9.73486 15.2334
474 1 -1.1104 15.9994 3.87141 12.679 15.2906
475 1 -1.1104 15.9994 6.70084 9.83355 15.1752
476 1 -1.1104 15.9994 9.56514 10.0702 15.0921
477 1 -1.1104 15.9994 7.02507 12.6343 15.1938
478 1 -1.1104 15.9994 9.72727 12.8774 15.4358
479 1 -1.1104 15.9994 12.3227 10.2035 15.2176
480 1 -1.1104 15.9994 12.6491 12.9933 15.3614
481 1 -1.1104 15.9994 1.22206 12.6984 15.4267
482 1 -1.1104 15.9994 4.00038 15.5668 15.1485
483 1 -1.1104 15.9994 1.04966 15.5248 15.4017
484 1 -1.1104 15.9994 1.21832 18.0567 15.2302
485 1 -1.1104 15.9994 6.56223 15.4728 15.1799
486 1 -1.1104 15.9994 9.28657 15.6051 15.2521
487 1 -1.1104 15.9994 6.77212 18.5251 15.3506
488 1 -1.1104 15.9994 9.5888 18.4576 15.1738
489 1 -1.1104 15.9994 12.1566 15.8851 15.4776
490 1 -1.1104 15.9994 12.5428 18.5142 15.2601
491 1 -1.1104 15.9994 3.74993 21.4262 15.0251
492 1 -1.1104 15.9994 4.08387 18.3229 15.2783
493 1 -1.1104 15.9994 6.68551 21.5672 15.1883
494 1 -1.1104 15.9994 9.61342 21.3395 15.2205
495 1 -1.1104 15.9994 12.488 21.3477 15.2926
496 1 -1.1104 15.9994 0.946558 -1.45029 18.2293
497 1 -1.1104 15.9994 3.80925 -1.29127 18.1382
498 1 -1.1104 15.9994 0.971064 -1.30263 21.0334
499 1 -1.1104 15.9994 3.97665 -1.44846 20.8909
500 1 -1.1104 15.9994 1.12379 1.47672 18.1875
501 1 -1.1104 15.9994 4.02296 1.4613 18.2129
502 1 -1.1104 15.9994 1.09942 1.39562 21.0027
503 1 -1.1104 15.9994 3.80727 1.50813 20.9417
504 1 -1.1104 15.9994 6.55521 -1.44929 18.3685
505 1 -1.1104 15.9994 9.63137 -1.14841 18.3602
506 1 -1.1104 15.9994 6.79759 -1.19183 21.0464
507 1 -1.1104 15.9994 9.46999 -1.29017 21.0335
508 1 -1.1104 15.9994 6.63843 1.25774 18.08
509 1 -1.1104 15.9994 9.42804 1.57575 18.23
510 1 -1.1104 15.9994 6.68965 1.49503 20.9668
511 1 -1.1104 15.9994 9.57924 1.41492 21.1425
512 1 -1.1104 15.9994 12.5137 -1.36733 18.1611
513 1 -1.1104 15.9994 12.707 -1.44052 21.0767
514 1 -1.1104 15.9994 12.4808 1.1373 18.1359
515 1 -1.1104 15.9994 12.4586 1.3239 20.825
516 1 -1.1104 15.9994 1.32708 4.17892 17.8035
517 1 -1.1104 15.9994 4.21081 4.14842 18.1004
518 1 -1.1104 15.9994 1.31279 4.13842 21.0291
519 1 -1.1104 15.9994 4.03368 4.43104 20.7852
520 1 -1.1104 15.9994 1.24529 6.93329 18.1182
521 1 -1.1104 15.9994 3.94762 6.97101 18.3551
522 1 -1.1104 15.9994 1.24208 7.15243 20.8599
523 1 -1.1104 15.9994 4.1301 7.36423 21.0197
524 1 -1.1104 15.9994 6.99059 4.41873 18.5557
525 1 -1.1104 15.9994 9.64916 4.50905 17.7807
526 1 -1.1104 15.9994 6.47095 4.36966 21.1515
527 1 -1.1104 15.9994 9.44612 4.2297 20.7363
528 1 -1.1104 15.9994 6.58592 7.21932 17.8754
529 1 -1.1104 15.9994 9.65777 7.32445 18.2446
530 1 -1.1104 15.9994 6.97814 7.27066 21.0662
531 1 -1.1104 15.9994 9.74441 7.04144 20.953
532 1 -1.1104 15.9994 12.2408 4.09129 18.0007
533 1 -1.1104 15.9994 12.2671 4.66658 21.0282
534 1 -1.1104 15.9994 12.4044 7.00132 18.0111
535 1 -1.1104 15.9994 12.4374 7.23615 20.8204
536 1 -1.1104 15.9994 1.35863 9.92792 18.1684
537 1 -1.1104 15.9994 4.18022 9.99611 18.1165
538 1 -1.1104 15.9994 1.08425 10.0369 21.0771
539 1 -1.1104 15.9994 3.86358 10.0439 21.0164
540 1 -1.1104 15.9994 1.13999 12.7659 18.1688
541 1 -1.1104 15.9994 3.89095 12.9285 18.0449
542 1 -1.1104 15.9994 1.01756 13.0297 20.7896
543 1 -1.1104 15.9994 3.72504 12.5835 20.644
544 1 -1.1104 15.9994 6.89373 9.75393 17.8558
545 1 -1.1104 15.9994 9.55687 10.1811 17.878
546 1 -1.1104 15.9994 6.58607 9.92188 20.7897
547 1 -1.1104 15.9994 9.55846 10.2923 20.9371
548 1 -1.1104 15.9994 6.91262 12.6067 18.0178
549 1 -1.1104 15.9994 9.61015 12.8282 18.1112
550 1 -1.1104 15.9994 6.46565 13.0376 20.8718
551 1 -1.1104 15.9994 9.4621 12.8807 21.0098
552 1 -1.1104 15.9994 12.3763 9.78434 18.154
553 1 -1.1104 15.9994 12.3255 9.97796 21.1999
554 1 -1.1104 15.9994 12.3729 12.8469 18.1363
555 1 -1.1104 15.9994 12.3883 12.9571 20.9803
556 1 -1.1104 15.9994 1.2702 15.4815 18.1938
557 1 -1.1104 15.9994 3.99735 15.9057 18.3473
558 1 -1.1104 15.9994 1.00415 15.8945 21.2299
559 1 -1.1104 15.9994 3.74498 15.3144 21.1582
560 1 -1.1104 15.9994 1.25847 18.1785 18.2884
561 1 -1.1104 15.9994 4.20684 18.4645 17.9058
562 1 -1.1104 15.9994 1.15602 18.9645 21.0583
563 1 -1.1104 15.9994 3.69149 18.1901 20.82
564 1 -1.1104 15.9994 6.56634 15.5205 17.9876
565 1 -1.1104 15.9994 9.3156 15.8711 17.9454
566 1 -1.1104 15.9994 6.6664 15.8159 20.9033
567 1 -1.1104 15.9994 9.77721 15.6094 21.2147
568 1 -1.1104 15.9994 7.16873 18.3082 18.394
569 1 -1.1104 15.9994 9.87461 18.6535 18.2193
570 1 -1.1104 15.9994 6.6597 18.8253 20.9832
571 1 -1.1104 15.9994 9.71792 18.6599 21.045
572 1 -1.1104 15.9994 12.169 15.8009 18.4614
573 1 -1.1104 15.9994 12.6554 15.553 21.1302
574 1 -1.1104 15.9994 12.6333 18.6229 18.157
575 1 -1.1104 15.9994 12.4451 18.5102 21.1172
576 1 -1.1104 15.9994 1.47011 21.5964 18.4506
577 1 -1.1104 15.9994 4.02568 21.1533 18.1075
649 1 -1.1104 15.9994 4.19867 15.6834 26.5666
579 1 -1.1104 15.9994 4.03689 20.6695 20.8262
580 1 -1.1104 15.9994 6.84148 21.3132 18.1932
581 1 -1.1104 15.9994 9.7251 21.544 18.0756
582 1 -1.1104 15.9994 6.93396 21.4446 21.0082
583 1 -1.1104 15.9994 9.72 21.298 20.9489
584 1 -1.1104 15.9994 12.3487 21.4156 18.0515
585 1 -1.1104 15.9994 12.5589 21.3549 20.9312
586 1 -1.1104 15.9994 1.10111 -1.21536 23.7614
587 1 -1.1104 15.9994 3.78605 -1.15734 23.5974
588 1 -1.1104 15.9994 1.09769 -1.15779 26.478
589 1 -1.1104 15.9994 4.07126 -1.13377 26.5173
590 1 -1.1104 15.9994 1.12922 2.09678 23.7055
591 1 -1.1104 15.9994 3.93481 1.52811 23.8032
592 1 -1.1104 15.9994 1.09621 1.67008 26.8039
593 1 -1.1104 15.9994 3.98741 1.6154 26.5787
594 1 -1.1104 15.9994 6.62853 -1.50288 23.8748
595 1 -1.1104 15.9994 9.60899 -1.12138 23.9484
596 1 -1.1104 15.9994 6.75621 -1.22849 26.4874
597 1 -1.1104 15.9994 9.92892 -1.08871 26.4083
598 1 -1.1104 15.9994 6.94715 1.48733 23.9566
599 1 -1.1104 15.9994 9.76896 1.69527 23.6542
600 1 -1.1104 15.9994 6.69242 1.63754 26.7935
601 1 -1.1104 15.9994 9.48164 1.61479 26.487
602 1 -1.1104 15.9994 12.6509 -1.17632 23.5903
603 1 -1.1104 15.9994 12.7342 -1.20042 26.4214
604 1 -1.1104 15.9994 12.5668 1.76608 23.7145
605 1 -1.1104 15.9994 12.3094 1.83 26.4157
606 1 -1.1104 15.9994 1.12484 4.68864 23.5909
607 1 -1.1104 15.9994 4.01914 4.46482 23.9409
608 1 -1.1104 15.9994 1.19778 4.41866 26.3635
609 1 -1.1104 15.9994 3.86359 4.46228 26.5287
610 1 -1.1104 15.9994 1.06156 7.40071 23.9614
611 1 -1.1104 15.9994 4.08642 7.21867 23.6731
612 1 -1.1104 15.9994 1.13079 7.35417 26.7634
613 1 -1.1104 15.9994 4.25856 7.39439 26.2493
614 1 -1.1104 15.9994 6.86862 4.35712 23.7608
615 1 -1.1104 15.9994 9.80597 4.33265 23.6717
616 1 -1.1104 15.9994 6.78398 4.53447 26.4889
617 1 -1.1104 15.9994 9.76394 4.33468 26.3283
618 1 -1.1104 15.9994 6.90305 7.07908 23.8616
619 1 -1.1104 15.9994 9.55587 7.32332 23.5581
620 1 -1.1104 15.9994 6.91539 7.43901 26.7493
621 1 -1.1104 15.9994 9.49589 7.01158 26.502
622 1 -1.1104 15.9994 12.5501 4.44401 23.8359
623 1 -1.1104 15.9994 12.3995 4.50112 26.801
624 1 -1.1104 15.9994 12.3299 7.29164 23.6248
625 1 -1.1104 15.9994 12.6422 7.34565 26.4213
626 1 -1.1104 15.9994 1.1577 10.026 23.7932
627 1 -1.1104 15.9994 4.05182 10.082 23.9385
628 1 -1.1104 15.9994 1.19915 10.2658 26.7429
629 1 -1.1104 15.9994 3.91614 10.321 26.4972
630 1 -1.1104 15.9994 1.2324 12.8321 23.7293
631 1 -1.1104 15.9994 3.869 12.8565 23.8451
632 1 -1.1104 15.9994 1.1064 12.9403 26.5987
633 1 -1.1104 15.9994 4.11627 12.8117 26.4058
634 1 -1.1104 15.9994 6.87365 10.0661 23.6768
635 1 -1.1104 15.9994 9.33472 9.98886 23.8065
636 1 -1.1104 15.9994 6.6398 10.3169 26.5708
637 1 -1.1104 15.9994 9.92205 21.4092 26.7093
638 1 -1.1104 15.9994 6.73064 12.8418 23.5
639 1 -1.1104 15.9994 9.76331 12.7937 24.0385
640 1 -1.1104 15.9994 6.92626 12.9948 26.4747