ITEM: TIMESTEP
100000
ITEM: NUMBER OF ATOMS
18000
ITEM: BOX BOUNDS xy xz yz pp pp pp
-2.2045400600276460e-01 2.8114454006003339e+01 0.0000000000000000e+00
-2.5223927161123698e+00 3.3725039271613565e+02 0.0000000000000000e+00
-2.0084670048323702e-01 2.8094846700482982e+01 0.0000000000000000e+00
ITEM: ATOMS id type q mass x y z
9025 2 2.2208 232.038 13.9399 22.9823 5.55886
893 1 -1.1104 15.9994 1.0119 18.7821 9.8682
84 2 2.2208 232.038 11.0214 22.833 13.9329
4 1 -1.1104 15.9994 6.81461 21.4511 12.4279
5 1 -1.1104 15.9994 3.77743 21.3414 12.6286
6 1 -1.1104 15.9994 1.07741 21.4306 12.6751
499 1 -1.1104 15.9994 9.53238 15.7281 12.6956
8 2 2.2208 232.038 5.33104 0.221396 2.55323
9 1 -1.1104 15.9994 12.4731 21.5011 12.6096
10 2 2.2208 232.038 11.1544 0.0163745 2.62264
22 2 2.2208 232.038 2.92591 11.3288 0.0685545
664 1 -1.1104 15.9994 4.91038 16.9652 0.738713
13 2 2.2208 232.038 2.87223 2.85164 2.50961
469 1 -1.1104 15.9994 9.8926 1.62644 12.7005
127 1 -1.1104 15.9994 4.13687 -1.1853 1.05228
16 1 -1.1104 15.9994 12.5266 13.2218 12.5919
17 2 2.2208 232.038 8.41606 2.61718 2.53968
18 2 2.2208 232.038 4.87471 5.84947 2.44669
19 1 -1.1104 15.9994 6.92586 18.7573 12.5179
20 2 2.2208 232.038 11.5715 5.80231 2.66047
21 4 2.2208 232.038 2.6999 17.0103 2.68213
9227 1 -1.1104 15.9994 2.46755 14.8397 4.82025
23 2 2.2208 232.038 2.64265 8.75386 2.64279
24 4 2.2208 232.038 7.96111 6.0114 2.69947
335 2 2.2208 232.038 -0.115188 -2.48257 5.83513
26 1 -1.1104 15.9994 12.4321 18.882 12.7351
27 2 2.2208 232.038 8.38149 9.15923 2.57028
28 2 2.2208 232.038 5.5423 11.62 2.56939
29 1 -1.1104 15.9994 6.77147 15.9572 12.4356
30 2 2.2208 232.038 11.2367 11.4883 2.70949
31 3 -1.1104 15.9994 6.6209 15.9314 9.84211
32 1 -1.1104 15.9994 4.17942 18.5398 12.5393
33 2 2.2208 232.038 2.55724 13.7943 2.52245
34 3 -1.1104 15.9994 3.91966 4.92866 9.77211
8947 2 2.2208 232.038 0.228013 19.6086 4.88725
8972 2 2.2208 232.038 -0.207448 11.4126 2.62119
37 2 2.2208 232.038 8.48315 14.3543 2.72725
38 2 2.2208 232.038 5.77936 17.3974 2.66272
9866 1 -1.1104 15.9994 1.1052 21.483 6.98925
40 2 2.2208 232.038 11.4053 17.3474 2.54732
41 1 -1.1104 15.9994 1.21621 18.717 12.5707
15 1 -1.1104 15.9994 12.2114 16.1257 12.3752
43 2 2.2208 232.038 2.60996 20.5533 2.43517
44 1 -1.1104 15.9994 3.99384 15.6587 12.4435
333 1 -1.1104 15.9994 9.62736 12.861 12.6292
46 1 -1.1104 15.9994 1.16465 15.8042 12.5489
47 2 2.2208 232.038 8.34266 20.0966 2.6024
48 2 2.2208 232.038 5.32439 23.1491 2.74536
49 1 -1.1104 15.9994 9.65754 7.8932 9.74181
50 2 2.2208 232.038 11.0373 22.4535 2.53627
484 1 -1.1104 15.9994 3.60376 10.3306 12.6444
52 2 2.2208 232.038 2.49984 0.277096 5.00882
14 3 -1.1104 15.9994 9.9346 10.2139 1.24931
54 4 2.2208 232.038 2.43923 -0.293794 8.32765
224 1 -1.1104 15.9994 4.4078 -1.91772 8.25294
56 2 2.2208 232.038 8.20917 -0.0202882 5.43725
219 1 -1.1104 15.9994 2.35452 -2.1673 10.0583
58 2 2.2208 232.038 5.77171 0.0463672 8.40455
313 1 -1.1104 15.9994 9.5795 4.28721 13.0974
60 2 2.2208 232.038 11.0421 -0.088259 8.18188
61 1 -1.1104 15.9994 12.3354 10.2839 12.553
62 2 2.2208 232.038 2.67989 5.77717 5.25374
63 2 2.2208 232.038 3.18496 2.75707 8.0719
64 3 -1.1104 15.9994 9.63438 -1.61854 6.85225
65 2 2.2208 232.038 5.89933 3.05791 4.97471
66 2 2.2208 232.038 8.30473 5.78317 6.03994
67 2 2.2208 232.038 8.17242 2.86077 8.20373
68 2 2.2208 232.038 5.75901 5.85745 8.23145
69 2 2.2208 232.038 10.9025 3.02593 5.13141
70 2 2.2208 232.038 10.9039 5.53257 8.32746
332 1 -1.1104 15.9994 6.86855 13.0328 12.6699
72 2 2.2208 232.038 2.50957 11.792 5.37682
73 2 2.2208 232.038 2.41977 6.18318 8.45199
74 3 -1.1104 15.9994 3.96867 21.7597 4.04448
75 2 2.2208 232.038 5.5253 8.72453 5.32374
76 2 2.2208 232.038 8.18588 11.6569 5.48664
77 2 2.2208 232.038 7.98579 9.01575 8.31223
78 2 2.2208 232.038 5.40586 11.6641 8.24507
79 2 2.2208 232.038 10.8861 8.6617 5.08145
80 2 2.2208 232.038 11.1015 12.0192 8.0904
81 4 2.2208 232.038 2.4959 9.3014 8.07528
82 2 2.2208 232.038 2.67852 17.2639 5.97928
83 2 2.2208 232.038 2.71061 14.5484 8.14038
71 2 2.2208 232.038 8.36123 11.7997 -0.0325784
85 2 2.2208 232.038 5.32789 14.4546 5.39521
86 2 2.2208 232.038 8.45005 17.1139 5.37782
87 2 2.2208 232.038 7.98148 14.4137 8.47462
88 2 2.2208 232.038 5.56442 17.342 8.29582
89 2 2.2208 232.038 11.0935 14.5162 5.36522
90 2 2.2208 232.038 11.15 17.2035 8.1374
91 3 -1.1104 15.9994 9.91645 21.5845 9.7201
92 2 2.2208 232.038 2.4472 23.2268 5.6567
93 2 2.2208 232.038 2.8743 20.2465 8.34579
331 1 -1.1104 15.9994 9.32236 9.98667 12.2915
95 2 2.2208 232.038 5.39027 20.1852 5.15675
96 2 2.2208 232.038 8.08316 23.0267 5.25437
97 2 2.2208 232.038 8.33669 20.1429 8.3485
98 2 2.2208 232.038 5.37649 22.7429 8.23714
99 2 2.2208 232.038 11.0533 20.2803 5.67236
100 2 2.2208 232.038 11.0823 23.037 8.32515
101 3 -1.1104 15.9994 9.80156 12.877 4.25989
102 2 2.2208 232.038 2.6783 0.247023 11.5609
9274 3 -1.1104 15.9994 0.794174 4.73303 4.51665
104 2 2.2208 232.038 8.44259 -0.0097202 11.1288
8596 2 2.2208 232.038 2.73897 -2.339 2.85513
106 4 2.2208 232.038 11.1851 8.82998 8.39845
107 2 2.2208 232.038 2.56189 5.86636 11.5922
108 2 2.2208 232.038 5.39893 3.02088 10.86
109 2 2.2208 232.038 8.27822 5.99935 10.8521
110 2 2.2208 232.038 10.886 2.80436 10.9765
111 1 -1.1104 15.9994 9.62965 21.3027 12.6055
112 2 2.2208 232.038 2.30893 11.6559 10.9159
113 2 2.2208 232.038 5.04636 8.7417 11.2322
114 2 2.2208 232.038 8.00137 11.5608 11.3103
115 2 2.2208 232.038 11.0713 8.66976 11.4324
116 1 -1.1104 15.9994 9.72248 18.4718 12.3366
117 2 2.2208 232.038 2.63657 17.3294 11.0901
118 2 2.2208 232.038 5.34774 14.4121 10.9975
119 2 2.2208 232.038 8.14624 17.439 11.1522
120 2 2.2208 232.038 11.0411 14.4844 10.5988
355 2 2.2208 232.038 5.73288 3.07914 -0.20751
122 2 2.2208 232.038 2.52068 22.8901 11.2027
123 2 2.2208 232.038 5.47394 19.9964 11.4043
124 2 2.2208 232.038 8.21181 22.888 10.9754
125 2 2.2208 232.038 11.1247 20.0297 11.0887
660 1 -1.1104 15.9994 4.2959 12.748 1.0427
8981 2 2.2208 232.038 -0.0909221 0.361659 2.41538
8946 2 2.2208 232.038 13.9481 3.00394 2.65924
129 1 -1.1104 15.9994 4.12594 -1.27298 4.22061
130 1 -1.1104 15.9994 0.874418 1.4195 0.647412
131 1 -1.1104 15.9994 4.09146 1.63179 0.957362
132 1 -1.1104 15.9994 2.44605 0.342568 2.6866
133 1 -1.1104 15.9994 4.12224 1.819 4.03218
134 1 -1.1104 15.9994 7.02173 -1.22943 1.38555
135 1 -1.1104 15.9994 12.5437 -1.48477 1.40707
25 2 2.2208 232.038 5.92372 8.44038 0.148708
137 1 -1.1104 15.9994 9.6739 -1.37212 3.87972
138 1 -1.1104 15.9994 6.77948 1.54996 1.11663
139 1 -1.1104 15.9994 9.82774 1.2598 1.17487
140 1 -1.1104 15.9994 6.96794 1.4465 3.97641
141 1 -1.1104 15.9994 9.70193 1.21251 4.18481
360 2 2.2208 232.038 5.51871 22.8959 13.9151
143 1 -1.1104 15.9994 12.3767 -1.16978 4.14764
144 1 -1.1104 15.9994 12.8162 1.41716 1.30038
145 1 -1.1104 15.9994 12.5717 1.60442 3.92279
146 1 -1.1104 15.9994 1.13923 4.25039 1.07237
147 1 -1.1104 15.9994 4.03646 4.43513 0.943271
148 1 -1.1104 15.9994 0.939833 1.93634 3.59667
149 1 -1.1104 15.9994 3.85249 4.46824 3.77502
150 1 -1.1104 15.9994 3.39229 7.05416 1.22826
151 1 -1.1104 15.9994 6.19281 8.01281 2.51708
152 1 -1.1104 15.9994 1.242 7.01573 3.32485
153 1 -1.1104 15.9994 3.84347 7.43684 4.13076
314 1 -1.1104 15.9994 12.6899 -1.17626 12.3352
155 1 -1.1104 15.9994 9.73034 5.59215 1.2342
156 1 -1.1104 15.9994 6.39099 3.80362 2.76247
157 1 -1.1104 15.9994 10.4432 3.59387 2.74046
158 1 -1.1104 15.9994 6.51049 5.74668 0.821541
159 1 -1.1104 15.9994 8.11441 7.95527 0.605594
160 1 -1.1104 15.9994 6.16805 5.8455 4.39566
161 1 -1.1104 15.9994 8.16118 7.79144 4.36041
162 1 -1.1104 15.9994 12.7106 4.39757 1.26091
163 1 -1.1104 15.9994 12.5992 4.47438 4.31769
164 1 -1.1104 15.9994 12.8756 7.13796 1.18561
165 1 -1.1104 15.9994 12.909 7.28512 4.10366
166 1 -1.1104 15.9994 1.26747 9.70764 0.995249
167 1 -1.1104 15.9994 4.4557 9.95032 0.937962
168 1 -1.1104 15.9994 1.36598 9.66601 4.38118
169 1 -1.1104 15.9994 4.11796 10.1061 3.98719
170 1 -1.1104 15.9994 1.09834 12.8755 0.875903
171 1 -1.1104 15.9994 2.34693 11.4577 2.50702
172 1 -1.1104 15.9994 0.8466 12.8003 4.14597
173 1 -1.1104 15.9994 4.2986 12.9528 4.11916
174 1 -1.1104 15.9994 6.99889 10.6458 1.32092
175 1 -1.1104 15.9994 10.5063 8.08848 2.7103
176 1 -1.1104 15.9994 6.73707 10.1877 4.25359
177 1 -1.1104 15.9994 9.80479 7.40678 7.05009
178 1 -1.1104 15.9994 7.15506 13.2723 1.35472
36 2 2.2208 232.038 8.58952 17.1802 0.0806131
180 1 -1.1104 15.9994 7.05256 12.9186 4.12459
181 1 -1.1104 15.9994 9.90077 13.0176 1.35541
182 1 -1.1104 15.9994 12.7872 9.95932 1.40361
183 1 -1.1104 15.9994 12.3812 10.0022 4.11841
184 1 -1.1104 15.9994 12.6986 12.77 1.23362
185 1 -1.1104 15.9994 12.5911 13.0149 3.9041
186 1 -1.1104 15.9994 0.77546 15.2457 2.55516
128 1 -1.1104 15.9994 0.82674 -1.36763 3.81873
188 1 -1.1104 15.9994 4.52179 15.3087 2.92924
189 1 -1.1104 15.9994 4.35332 17.311 4.47307
190 1 -1.1104 15.9994 0.407959 17.0717 0.310292
191 1 -1.1104 15.9994 4.82755 19.3663 3.00136
126 1 -1.1104 15.9994 0.969989 -1.97073 1.4776
193 1 -1.1104 15.9994 2.34537 18.9382 4.36997
194 1 -1.1104 15.9994 7.39156 16.0227 1.56719
195 1 -1.1104 15.9994 10.1032 15.9355 1.28665
196 1 -1.1104 15.9994 7.08195 15.6111 4.18277
197 1 -1.1104 15.9994 9.65093 10.3841 4.0819
198 1 -1.1104 15.9994 7.13185 18.8427 1.16693
199 1 -1.1104 15.9994 9.95458 18.6446 1.17574
200 1 -1.1104 15.9994 9.68714 15.8981 3.88744
201 1 -1.1104 15.9994 9.74141 18.7157 4.00757
202 1 -1.1104 15.9994 12.7187 15.8853 1.10362
203 1 -1.1104 15.9994 12.6899 15.8286 3.87938
204 1 -1.1104 15.9994 12.7112 18.8691 1.01575
205 1 -1.1104 15.9994 12.5705 18.9242 3.95498
206 1 -1.1104 15.9994 2.88537 18.6543 1.17719
207 1 -1.1104 15.9994 3.81767 21.5248 0.711123
208 1 -1.1104 15.9994 1.24939 21.6981 4.28921
209 1 -1.1104 15.9994 7.14539 18.7965 4.29808
210 1 -1.1104 15.9994 6.45313 21.7025 1.29981
211 1 -1.1104 15.9994 9.59955 21.4349 1.0813
212 1 -1.1104 15.9994 6.70314 21.7348 3.89855
213 1 -1.1104 15.9994 9.5105 21.6041 4.01427
214 1 -1.1104 15.9994 12.4956 21.4201 1.05732
215 1 -1.1104 15.9994 12.4242 21.6922 4.21555
336 2 2.2208 232.038 5.3302 5.85167 13.8946
39 3 -1.1104 15.9994 9.78059 -1.36669 1.35599
218 1 -1.1104 15.9994 0.879721 -1.50836 12.4983
891 1 -1.1104 15.9994 1.1802 21.4217 9.48295
220 1 -1.1104 15.9994 0.619692 -0.0623594 6.29566
221 1 -1.1104 15.9994 3.80085 0.69408 6.86401
222 1 -1.1104 15.9994 0.700426 -0.106213 10.1237
223 1 -1.1104 15.9994 4.05078 0.264505 9.86361
8995 2 2.2208 232.038 13.9088 5.88798 5.47572
225 1 -1.1104 15.9994 6.9797 -1.32719 6.89837
226 1 -1.1104 15.9994 6.82567 -1.4174 9.70424
227 1 -1.1104 15.9994 12.3824 -1.31455 9.6071
228 1 -1.1104 15.9994 6.901 1.61959 6.5675
229 1 -1.1104 15.9994 9.56521 1.34438 6.89294
230 1 -1.1104 15.9994 7.10438 1.51281 9.8643
231 1 -1.1104 15.9994 9.75186 1.23445 9.6989
232 1 -1.1104 15.9994 12.5399 -1.38935 6.70339
8273 3 -1.1104 15.9994 9.65309 -1.54301 9.84848
234 1 -1.1104 15.9994 12.5085 1.48334 6.80783
235 1 -1.1104 15.9994 12.4034 1.66296 9.56787
187 1 -1.1104 15.9994 2.85681 15.5404 0.880206
237 1 -1.1104 15.9994 2.18351 2.63015 5.91378
238 1 -1.1104 15.9994 2.70094 2.53854 10.542
239 1 -1.1104 15.9994 5.07168 2.35729 8.741
240 1 -1.1104 15.9994 1.17289 4.70832 7.1556
241 1 -1.1104 15.9994 3.91354 4.7201 7.10406
242 1 -1.1104 15.9994 0.891727 4.99154 10.051
243 1 -1.1104 15.9994 0.681513 7.67211 8.89126
244 1 -1.1104 15.9994 6.65565 4.27199 6.68116
245 1 -1.1104 15.9994 8.4837 4.27084 4.25314
246 1 -1.1104 15.9994 6.60118 4.60778 9.80005
247 1 -1.1104 15.9994 9.46233 4.03666 6.79517
248 1 -1.1104 15.9994 6.92643 7.41888 6.8919
249 1 -1.1104 15.9994 10.5891 6.2224 4.79568
250 1 -1.1104 15.9994 6.60579 7.44704 9.72548
251 1 -1.1104 15.9994 8.33799 5.76233 8.36927
252 1 -1.1104 15.9994 12.4165 4.57235 7.04079
253 1 -1.1104 15.9994 12.5148 4.50289 9.89593
254 1 -1.1104 15.9994 12.7526 7.46799 6.94958
255 1 -1.1104 15.9994 12.9428 9.58458 10.041
256 1 -1.1104 15.9994 1.16872 10.5353 6.89428
257 1 -1.1104 15.9994 2.91673 7.64053 9.96242
258 1 -1.1104 15.9994 4.12445 7.57673 7.27332
259 1 -1.1104 15.9994 4.12899 10.1962 9.64957
260 1 -1.1104 15.9994 0.932365 13.3486 6.88989
261 1 -1.1104 15.9994 3.96329 10.3308 6.85749
262 1 -1.1104 15.9994 1.14769 10.2392 9.70331
263 1 -1.1104 15.9994 3.92203 12.9438 9.66813
264 1 -1.1104 15.9994 6.76735 10.3951 7.06367
265 1 -1.1104 15.9994 9.78904 10.0018 6.99229
266 1 -1.1104 15.9994 6.98035 10.2733 9.80958
267 1 -1.1104 15.9994 9.56483 4.06434 9.84499
268 1 -1.1104 15.9994 6.81652 13.0255 6.88347
269 1 -1.1104 15.9994 12.4624 10.0435 7.00389
270 1 -1.1104 15.9994 6.711 13.1156 9.73822
271 1 -1.1104 15.9994 12.0194 7.02929 9.66455
272 1 -1.1104 15.9994 10.2825 10.4145 9.62059
273 1 -1.1104 15.9994 9.24522 12.8365 7.00438
274 1 -1.1104 15.9994 12.5227 13.0103 6.54896
275 1 -1.1104 15.9994 12.9314 12.8209 9.549
276 1 -1.1104 15.9994 1.34652 16.1586 7.14236
277 1 -1.1104 15.9994 4.23465 15.9055 6.97185
278 1 -1.1104 15.9994 0.987844 12.9407 9.4112
279 1 -1.1104 15.9994 3.87564 12.9338 6.95143
280 1 -1.1104 15.9994 1.07538 18.8772 6.88565
281 1 -1.1104 15.9994 4.03339 19.1653 6.78689
282 1 -1.1104 15.9994 1.10638 15.8718 9.81868
283 1 -1.1104 15.9994 3.93937 15.9714 9.62552
284 1 -1.1104 15.9994 6.91578 15.7882 6.92418
285 1 -1.1104 15.9994 9.89599 15.9516 6.65844
286 1 -1.1104 15.9994 9.47547 12.9991 9.97828
287 1 -1.1104 15.9994 11.2266 14.233 8.34468
288 1 -1.1104 15.9994 6.78324 18.9635 7.1831
289 1 -1.1104 15.9994 9.68516 18.5725 6.93768
290 1 -1.1104 15.9994 6.80617 18.6876 9.69375
291 1 -1.1104 15.9994 9.4238 15.99 9.55382
292 1 -1.1104 15.9994 12.7558 16.0788 6.82377
293 1 -1.1104 15.9994 12.5175 15.9235 9.72693
294 1 -1.1104 15.9994 12.4995 18.9986 7.05323
295 1 -1.1104 15.9994 12.6037 18.6716 9.84624
296 1 -1.1104 15.9994 0.508017 16.9742 4.50476
297 1 -1.1104 15.9994 3.85659 21.9871 7.05679
298 1 -1.1104 15.9994 3.79432 18.7436 9.86274
299 1 -1.1104 15.9994 4.00076 21.5618 9.88499
300 1 -1.1104 15.9994 6.80479 21.5954 6.75184
301 1 -1.1104 15.9994 9.59759 21.5994 6.93303
302 1 -1.1104 15.9994 6.92686 21.3724 9.70201
303 1 -1.1104 15.9994 9.72348 18.6477 9.70559
304 1 -1.1104 15.9994 12.3398 21.8835 6.90735
305 1 -1.1104 15.9994 12.8053 21.6807 9.60526
330 1 -1.1104 15.9994 6.49592 10.1136 12.5229
307 1 -1.1104 15.9994 4.46058 -1.55197 12.3887
308 1 -1.1104 15.9994 1.19306 1.60913 12.6006
309 1 -1.1104 15.9994 4.44529 1.66434 12.4612
310 1 -1.1104 15.9994 7.08359 -1.39605 12.2446
217 1 -1.1104 15.9994 2.58843 -1.74354 6.37712
312 1 -1.1104 15.9994 7.14979 1.38055 12.6706
136 1 -1.1104 15.9994 6.6634 -1.25052 4.29215
192 1 -1.1104 15.9994 0.708333 19.2857 2.35067
315 1 -1.1104 15.9994 12.4765 1.84229 12.5376
316 1 -1.1104 15.9994 1.15913 4.50326 12.7056
317 1 -1.1104 15.9994 3.91957 4.4961 12.7554
318 1 -1.1104 15.9994 0.830563 7.20471 12.3059
319 1 -1.1104 15.9994 3.93495 7.47451 12.7124
320 1 -1.1104 15.9994 6.56472 4.35497 12.5033
8942 2 2.2208 232.038 -0.160392 -2.49422 10.5417
154 1 -1.1104 15.9994 8.30254 3.65578 0.458601
323 1 -1.1104 15.9994 9.65156 6.76029 12.2322
324 1 -1.1104 15.9994 12.2203 4.27154 12.6958
325 1 -1.1104 15.9994 12.7532 7.15575 12.5023
326 1 -1.1104 15.9994 0.767457 10.3354 12.4712
327 1 -1.1104 15.9994 1.57017 7.62321 6.63494
328 1 -1.1104 15.9994 1.02762 12.9245 12.3509
329 1 -1.1104 15.9994 3.97924 12.9354 12.2979
801 1 -1.1104 15.9994 1.01559 21.7042 1.21795
344 2 2.2208 232.038 7.8843 3.01544 13.9178
311 1 -1.1104 15.9994 9.88093 -1.2787 12.4004
322 1 -1.1104 15.9994 6.84027 7.12418 12.4621
42 2 2.2208 232.038 2.42065 23.2087 -0.11984
216 1 -1.1104 15.9994 0.463234 -2.11744 8.1105
8952 2 2.2208 232.038 -0.121633 14.4349 5.2208
236 1 -1.1104 15.9994 0.998347 1.82723 8.26585
682 2 2.2208 232.038 11.3429 8.70596 0.107856
343 4 2.2208 232.038 10.9836 14.237 13.6498
9005 2 2.2208 232.038 13.9009 11.4633 5.34865
35 2 2.2208 232.038 5.63269 14.7594 0.268777
94 2 2.2208 232.038 10.9592 6.09954 13.9388
9015 2 2.2208 232.038 13.9136 17.5335 5.4875
375 2 2.2208 232.038 8.38253 0.0320275 -0.191089
8962 2 2.2208 232.038 -0.0249888 2.90894 5.74333
352 2 2.2208 232.038 2.52127 14.2146 13.9154
53 2 2.2208 232.038 13.7131 0.474896 10.9587
51 2 2.2208 232.038 13.9034 22.912 11.2845
350 2 2.2208 232.038 11.2989 14.3534 -0.0496438
45 2 2.2208 232.038 8.00903 22.9636 0.0343519
365 2 2.2208 232.038 5.2029 11.3759 13.8586
490 1 -1.1104 15.9994 10.9249 8.55875 13.7581
516 1 -1.1104 15.9994 9.94963 -1.39324 18.2295
338 4 2.2208 232.038 2.56273 11.4717 24.9947
339 3 -1.1104 15.9994 1.18203 4.3477 26.5595
518 1 -1.1104 15.9994 9.63633 -1.73669 20.9867
9623 2 2.2208 232.038 13.858 8.64453 19.6564
462 1 -1.1104 15.9994 0.886531 -1.62257 15.2351
368 2 2.2208 232.038 -0.145169 19.8719 16.7314
1292 1 -1.1104 15.9994 4.10344 21.9827 25.9414
614 1 -1.1104 15.9994 12.4675 -1.46041 26.7406
9652 3 -1.1104 15.9994 0.963781 18.4468 23.6367
9286 2 2.2208 232.038 13.7403 8.59378 13.9491
348 3 -1.1104 15.9994 9.83757 10.1614 21.2248
524 1 -1.1104 15.9994 12.4119 -1.87201 21.212
470 1 -1.1104 15.9994 12.4942 -1.1135 16.002
372 4 2.2208 232.038 11.1406 2.94087 14.236
667 1 -1.1104 15.9994 6.88521 13.3499 26.9879
353 3 -1.1104 15.9994 6.77493 18.7114 26.2577
9351 2 2.2208 232.038 13.8431 0.0727716 22.4235
675 1 -1.1104 15.9994 12.6161 18.502 23.5517
662 1 -1.1104 15.9994 3.99987 18.6239 23.6346
671 1 -1.1104 15.9994 7.11914 16.2039 26.8298
358 3 -1.1104 15.9994 9.61147 4.42822 21.3978
648 1 -1.1104 15.9994 9.79075 10.1407 26.8865
349 2 2.2208 232.038 8.28337 8.4945 14.1034
342 2 2.2208 232.038 2.7283 2.84096 14.0412
684 2 2.2208 232.038 11.2894 20.1997 27.8672
363 2 2.2208 232.038 2.52613 0.147505 16.7299
661 1 -1.1104 15.9994 2.63976 17.2122 25.3552
9362 2 2.2208 232.038 13.8991 2.83456 25.1584
668 1 -1.1104 15.9994 9.89154 16.4542 26.683
367 2 2.2208 232.038 8.09926 0.327522 16.7019
346 3 -1.1104 15.9994 1.41135 12.5346 26.5774
369 2 2.2208 232.038 5.45707 0.255563 19.4701
683 2 2.2208 232.038 8.43528 5.87276 27.7017
371 2 2.2208 232.038 10.8871 0.40629 19.6598
347 2 2.2208 232.038 2.16409 8.7421 14.0634
373 2 2.2208 232.038 2.49619 5.81831 16.8271
374 2 2.2208 232.038 2.53125 3.11948 19.6489
673 1 -1.1104 15.9994 12.3989 15.6901 23.5247
376 2 2.2208 232.038 5.45244 3.02748 16.8534
377 2 2.2208 232.038 8.1958 5.6999 16.8728
378 2 2.2208 232.038 8.23096 3.05484 19.7879
379 2 2.2208 232.038 5.27951 5.98844 19.6958
380 2 2.2208 232.038 11.1322 3.10697 17.3967
381 2 2.2208 232.038 11.151 5.84504 19.6419
382 3 -1.1104 15.9994 6.70494 1.62534 18.104
383 2 2.2208 232.038 2.35914 11.4806 16.6707
384 2 2.2208 232.038 2.58769 8.65859 19.5431
659 1 -1.1104 15.9994 1.00303 15.4456 26.6664
386 2 2.2208 232.038 5.38527 8.75328 16.7804
387 2 2.2208 232.038 8.10868 11.4447 16.7745
388 2 2.2208 232.038 8.34053 8.59915 19.743
389 2 2.2208 232.038 5.4431 11.4824 19.4582
390 2 2.2208 232.038 11.1663 8.67064 16.86
391 2 2.2208 232.038 11.1975 11.5449 19.8459
663 1 -1.1104 15.9994 1.0292 18.9736 26.6927
393 2 2.2208 232.038 2.52079 16.9606 16.5804
394 2 2.2208 232.038 2.54518 14.3895 19.4609
395 4 2.2208 232.038 8.30308 17.4391 25.2652
396 2 2.2208 232.038 5.3684 14.2716 16.7082
397 2 2.2208 232.038 8.17581 16.9679 16.9264
398 2 2.2208 232.038 8.25165 14.2798 19.5467
399 2 2.2208 232.038 5.2388 17.1237 19.5107
400 2 2.2208 232.038 11.1253 14.4008 16.953
401 2 2.2208 232.038 11.2084 17.1212 19.4614
505 1 -1.1104 15.9994 9.54089 21.5087 15.45
403 2 2.2208 232.038 2.5778 22.8646 16.7328
404 2 2.2208 232.038 2.52591 19.9364 19.5082
405 3 -1.1104 15.9994 1.30574 4.2804 15.4793
406 2 2.2208 232.038 5.37657 20.0548 16.7343
407 2 2.2208 232.038 8.29215 23.1302 16.8269
408 2 2.2208 232.038 8.29867 19.9046 19.5949
409 2 2.2208 232.038 5.55977 22.8749 19.5302
410 2 2.2208 232.038 10.9849 20.2241 16.705
411 2 2.2208 232.038 11.1066 22.9366 19.7336
179 1 -1.1104 15.9994 9.6865 13.3987 26.8567
413 2 2.2208 232.038 2.74588 0.169485 22.3294
680 1 -1.1104 15.9994 4.19363 19.0729 26.5107
608 1 -1.1104 15.9994 9.72849 -1.32941 26.7297
1296 1 -1.1104 15.9994 8.01505 23.2628 25.0414
417 2 2.2208 232.038 8.1177 0.0027612 22.654
677 1 -1.1104 15.9994 0.905575 21.3825 23.9639
419 2 2.2208 232.038 5.34968 0.216553 25.1649
679 1 -1.1104 15.9994 1.11665 21.9057 26.6712
421 2 2.2208 232.038 11.2315 -0.0476092 25.452
422 3 -1.1104 15.9994 9.45779 18.5334 15.3894
423 2 2.2208 232.038 2.4352 5.80992 22.3743
424 2 2.2208 232.038 2.71633 3.19287 25.0305
425 4 2.2208 232.038 2.37959 22.9602 25.024
426 2 2.2208 232.038 5.4513 2.8378 22.3048
427 2 2.2208 232.038 8.33803 5.78939 22.6501
428 2 2.2208 232.038 8.29715 3.01664 25.1761
429 2 2.2208 232.038 5.38808 5.80747 25.0931
430 2 2.2208 232.038 11.0674 2.96464 22.4861
431 2 2.2208 232.038 11.4169 5.87206 25.1196
432 1 -1.1104 15.9994 12.7253 21.2969 26.6261
433 2 2.2208 232.038 2.50641 11.5999 21.964
434 2 2.2208 232.038 2.54321 8.39021 25.6215
435 1 -1.1104 15.9994 12.7211 21.4031 24.0981
436 2 2.2208 232.038 5.47836 8.91751 22.3432
437 2 2.2208 232.038 8.41242 11.4687 22.8473
438 2 2.2208 232.038 8.49477 8.75972 25.4095
439 2 2.2208 232.038 5.9252 11.4586 25.5123
440 2 2.2208 232.038 11.2369 8.51743 22.5605
441 2 2.2208 232.038 11.1184 11.7663 25.5303
442 1 -1.1104 15.9994 9.80511 21.8628 26.8701
443 2 2.2208 232.038 2.25889 16.8318 22.5542
444 2 2.2208 232.038 2.56705 14.5818 25.316
445 1 -1.1104 15.9994 6.76093 21.5409 27.0022
446 2 2.2208 232.038 5.14348 14.3499 22.2223
447 2 2.2208 232.038 8.27252 17.1648 22.1527
448 2 2.2208 232.038 8.17586 14.2658 25.2011
449 2 2.2208 232.038 5.17022 17.3497 25.0112
450 2 2.2208 232.038 11.0709 14.2759 22.3575
451 2 2.2208 232.038 11.3861 17.157 25.0877
452 1 -1.1104 15.9994 10.0365 21.151 24.1163
453 2 2.2208 232.038 2.80346 22.8991 21.7562
454 2 2.2208 232.038 2.58957 19.704 24.8488
455 1 -1.1104 15.9994 6.39283 21.3834 23.6814
456 2 2.2208 232.038 5.4304 20.0165 22.1453
457 3 -1.1104 15.9994 0.776217 12.8833 15.239
458 2 2.2208 232.038 8.26379 21.0842 25.3001
459 2 2.2208 232.038 5.85935 23.1805 25.0459
460 2 2.2208 232.038 11.0391 19.9492 22.3412
461 2 2.2208 232.038 11.3772 22.882 25.251
345 2 2.2208 232.038 5.53032 20.0801 28.041
463 1 -1.1104 15.9994 4.20249 -1.34419 15.8362
676 1 -1.1104 15.9994 12.5419 18.5242 26.619
465 1 -1.1104 15.9994 4.30913 1.60905 15.4128
466 1 -1.1104 15.9994 6.88417 -1.43355 15.1976
321 1 -1.1104 15.9994 9.93589 4.61056 15.6855
468 1 -1.1104 15.9994 6.79581 1.5917 15.268
356 2 2.2208 232.038 11.0324 2.92272 28.0405
665 1 -1.1104 15.9994 6.9548 16.0721 23.9056
670 1 -1.1104 15.9994 10.022 18.2954 23.5144
472 1 -1.1104 15.9994 1.05206 1.44375 15.4811
473 1 -1.1104 15.9994 4.13093 4.51912 15.4693
474 1 -1.1104 15.9994 1.14378 7.10138 15.404
475 1 -1.1104 15.9994 3.86401 7.43727 15.5788
476 1 -1.1104 15.9994 6.90911 4.46705 15.3332
681 2 2.2208 232.038 2.52231 17.2616 27.7361
478 1 -1.1104 15.9994 6.91532 7.36363 15.6401
479 1 -1.1104 15.9994 9.5252 7.29709 15.651
480 1 -1.1104 15.9994 12.4328 4.0991 15.5379
481 1 -1.1104 15.9994 12.6158 7.19826 15.3469
482 1 -1.1104 15.9994 0.955828 10.2144 15.3676
483 1 -1.1104 15.9994 3.73601 10.1143 15.451
666 1 -1.1104 15.9994 9.44688 15.7766 24.1345
485 1 -1.1104 15.9994 3.79929 13.0311 15.1366
486 1 -1.1104 15.9994 6.50072 10.0675 15.3629
487 1 -1.1104 15.9994 9.2012 10.2541 15.2721
488 1 -1.1104 15.9994 6.6698 12.966 15.402
489 1 -1.1104 15.9994 12.4705 13.2692 15.1298
672 1 -1.1104 15.9994 9.51208 19.1578 26.2705
491 1 -1.1104 15.9994 12.1013 15.8722 15.2891
492 1 -1.1104 15.9994 1.07657 15.5108 15.4977
493 1 -1.1104 15.9994 3.83235 15.7075 15.2773
494 1 -1.1104 15.9994 1.31314 18.3204 15.0661
495 1 -1.1104 15.9994 4.10656 18.5497 15.3403
496 1 -1.1104 15.9994 6.6919 15.6714 15.5272
497 1 -1.1104 15.9994 9.82694 12.9972 15.2923
498 1 -1.1104 15.9994 6.80865 18.5426 15.4513
477 1 -1.1104 15.9994 9.63384 1.87337 15.5792
500 1 -1.1104 15.9994 9.57149 15.4548 15.5397
501 1 -1.1104 15.9994 12.4521 18.7549 15.4423
502 1 -1.1104 15.9994 1.28201 21.1502 15.3486
503 1 -1.1104 15.9994 4.08806 21.2008 15.2853
504 1 -1.1104 15.9994 6.93463 21.6566 15.2968
674 1 -1.1104 15.9994 12.3529 15.5826 26.6517
506 1 -1.1104 15.9994 12.3952 21.3817 15.4262
507 1 -1.1104 15.9994 1.34922 -1.3351 18.3353
508 1 -1.1104 15.9994 4.26472 -1.33964 18.5255
509 1 -1.1104 15.9994 1.27338 -1.32006 20.989
510 1 -1.1104 15.9994 4.05957 -1.31942 21.1275
511 1 -1.1104 15.9994 1.12696 1.5902 18.2916
512 1 -1.1104 15.9994 3.87704 1.36376 18.0859
513 1 -1.1104 15.9994 1.17781 1.50077 20.8289
514 1 -1.1104 15.9994 3.88691 1.56835 20.9385
515 1 -1.1104 15.9994 6.90758 -1.28248 18.2351
658 1 -1.1104 15.9994 4.0501 15.6458 23.6743
517 1 -1.1104 15.9994 6.8761 -1.27293 21.2293
9625 2 2.2208 232.038 -0.207117 8.56307 22.2362
519 1 -1.1104 15.9994 9.33247 1.52812 18.1349
520 1 -1.1104 15.9994 12.6986 1.66626 17.9854
521 1 -1.1104 15.9994 6.71133 1.60242 20.6638
522 1 -1.1104 15.9994 9.30056 1.23369 21.1179
523 1 -1.1104 15.9994 12.7131 -1.35889 18.5795
471 1 -1.1104 15.9994 12.5539 1.33912 14.9919
669 1 -1.1104 15.9994 7.31047 18.7296 23.5874
526 1 -1.1104 15.9994 12.4505 1.14547 21.1133
527 1 -1.1104 15.9994 0.73878 4.32916 18.3353
528 1 -1.1104 15.9994 3.90431 4.479 18.1138
529 1 -1.1104 15.9994 0.99531 4.4832 21.1401
530 1 -1.1104 15.9994 4.10864 4.21314 20.8581
531 1 -1.1104 15.9994 1.02033 6.99372 18.2201
532 1 -1.1104 15.9994 4.03182 7.37315 18.3741
533 1 -1.1104 15.9994 1.10804 7.36874 20.9226
534 1 -1.1104 15.9994 3.85899 7.20058 21.1149
535 1 -1.1104 15.9994 6.69631 4.43358 18.2316
536 1 -1.1104 15.9994 9.39888 -1.055 15.3373
537 1 -1.1104 15.9994 6.93213 4.33177 21.1182
538 1 -1.1104 15.9994 11.0281 2.7534 19.9828
539 1 -1.1104 15.9994 6.65389 7.27733 18.3766
540 1 -1.1104 15.9994 9.80526 7.16666 18.361
541 1 -1.1104 15.9994 6.87994 7.32518 21.1687
542 1 -1.1104 15.9994 9.59546 4.4872 18.284
543 1 -1.1104 15.9994 12.6238 4.6777 18.2662
544 1 -1.1104 15.9994 12.659 4.65032 21.1247
545 1 -1.1104 15.9994 12.6136 7.668 18.0398
546 1 -1.1104 15.9994 12.7026 7.15482 21.0457
547 1 -1.1104 15.9994 1.31732 9.66783 17.8936
548 1 -1.1104 15.9994 4.2465 9.92269 18.3174
549 1 -1.1104 15.9994 1.03008 10.2031 20.7662
550 1 -1.1104 15.9994 3.92669 10.0564 21.0985
551 1 -1.1104 15.9994 1.10218 12.6081 18.1892
552 1 -1.1104 15.9994 3.78707 12.9809 18.0147
553 1 -1.1104 15.9994 1.16907 12.9741 20.9464
554 1 -1.1104 15.9994 3.97122 12.7948 20.7596
555 1 -1.1104 15.9994 7.01056 10.133 18.2131
556 1 -1.1104 15.9994 12.7682 10.3034 18.4184
557 1 -1.1104 15.9994 7.13386 9.90866 21.2477
558 1 -1.1104 15.9994 9.89829 7.13324 20.9918
559 1 -1.1104 15.9994 6.76192 12.8403 18.0042
560 1 -1.1104 15.9994 9.73945 12.8128 18.3097
561 1 -1.1104 15.9994 6.6232 12.685 20.9794
562 1 -1.1104 15.9994 9.57213 12.9629 21.0498
563 1 -1.1104 15.9994 12.3708 10.137 15.6926
564 1 -1.1104 15.9994 12.3685 10.0367 21.2416
565 1 -1.1104 15.9994 12.5505 13.0017 18.0394
566 1 -1.1104 15.9994 12.7563 12.7777 21.0533
567 1 -1.1104 15.9994 0.856108 15.6194 18.3544
568 1 -1.1104 15.9994 3.85863 15.6751 18.2269
569 1 -1.1104 15.9994 0.964391 15.7095 20.9264
570 1 -1.1104 15.9994 3.78848 15.6738 20.9296
571 1 -1.1104 15.9994 1.30462 18.4603 18.1441
572 1 -1.1104 15.9994 4.04331 18.5981 17.962
573 1 -1.1104 15.9994 1.1087 18.5835 20.9226
574 1 -1.1104 15.9994 3.77303 18.5003 20.8082
575 1 -1.1104 15.9994 6.8101 15.7355 18.3363
576 1 -1.1104 15.9994 9.59553 15.7 18.3361
577 1 -1.1104 15.9994 6.59438 15.7603 20.8831
578 1 -1.1104 15.9994 9.94676 15.7822 21.2122
579 1 -1.1104 15.9994 6.87814 18.6734 18.1555
580 1 -1.1104 15.9994 9.52846 18.495 17.9597
581 1 -1.1104 15.9994 6.61404 18.4881 20.7179
582 1 -1.1104 15.9994 9.55797 18.2917 20.7944
583 1 -1.1104 15.9994 12.5104 15.7658 18.0707
584 1 -1.1104 15.9994 12.8272 15.8579 20.8253
585 1 -1.1104 15.9994 12.2123 18.5762 18.0077
586 1 -1.1104 15.9994 12.5383 18.6736 20.753
587 1 -1.1104 15.9994 1.3091 21.2689 18.1495
588 1 -1.1104 15.9994 4.01586 21.5955 18.1197
589 1 -1.1104 15.9994 1.12455 21.4397 20.8321
590 1 -1.1104 15.9994 3.92487 21.4136 20.8939
591 1 -1.1104 15.9994 6.86002 21.6171 18.0259
592 1 -1.1104 15.9994 9.67493 21.4955 18.0435
593 1 -1.1104 15.9994 6.67957 21.0274 20.7098
594 1 -1.1104 15.9994 9.90061 21.286 20.6949
595 1 -1.1104 15.9994 12.6401 21.4129 18.2907
596 1 -1.1104 15.9994 12.7802 21.3428 21.3837
597 1 -1.1104 15.9994 1.22033 -1.36831 23.816
598 1 -1.1104 15.9994 3.92312 -1.16643 23.9821
599 1 -1.1104 15.9994 1.23836 -1.12628 26.808
600 1 -1.1104 15.9994 4.00773 -1.2727 26.604
601 1 -1.1104 15.9994 1.24698 1.60889 23.4177
602 1 -1.1104 15.9994 4.01113 1.60486 23.8214
603 1 -1.1104 15.9994 1.40104 1.736 26.2265
604 1 -1.1104 15.9994 4.1045 1.67531 26.6029
605 1 -1.1104 15.9994 6.65896 -1.26505 24.0845
606 1 -1.1104 15.9994 9.6967 -1.32002 24.0191
607 1 -1.1104 15.9994 6.84334 -1.58938 26.8958
9382 2 2.2208 232.038 13.9256 14.4576 25.1813
609 1 -1.1104 15.9994 6.67388 1.54996 23.822
610 1 -1.1104 15.9994 9.58258 1.2778 23.6809
611 1 -1.1104 15.9994 6.85442 1.39316 26.6717
612 1 -1.1104 15.9994 9.60531 1.61826 26.7857
613 1 -1.1104 15.9994 12.6098 -1.32609 24.0112
11 2 2.2208 232.038 5.42889 17.1829 14.0192
615 1 -1.1104 15.9994 12.313 1.42314 23.928
616 1 -1.1104 15.9994 12.5132 1.41499 26.7927
617 1 -1.1104 15.9994 1.14775 4.36219 23.8128
618 1 -1.1104 15.9994 4.04405 4.67591 23.687
619 3 -1.1104 15.9994 9.98968 9.91438 18.1723
620 1 -1.1104 15.9994 3.92082 4.53186 26.3028
621 1 -1.1104 15.9994 1.28556 7.27226 24.1196
622 1 -1.1104 15.9994 4.20492 7.55816 23.9369
623 1 -1.1104 15.9994 1.12269 7.24233 27.0162
624 1 -1.1104 15.9994 4.01053 7.07387 26.9608
625 1 -1.1104 15.9994 6.80232 4.24091 23.6925
626 1 -1.1104 15.9994 9.76247 4.1873 23.8675
627 1 -1.1104 15.9994 6.84727 4.37046 26.3254
628 1 -1.1104 15.9994 9.96759 4.58738 26.557
629 1 -1.1104 15.9994 6.96659 7.07975 23.9656
630 1 -1.1104 15.9994 9.8128 7.22303 23.9021
3 2 2.2208 232.038 2.93246 -2.4222 14.121
632 1 -1.1104 15.9994 9.91683 7.37754 26.9801
633 1 -1.1104 15.9994 12.6128 4.46138 23.6244
634 1 -1.1104 15.9994 12.5008 4.17452 26.5172
635 1 -1.1104 15.9994 12.8431 7.12874 23.9273
636 1 -1.1104 15.9994 12.6865 7.26227 26.679