LAMMPS (29 Oct 2020)
OMP_NUM_THREADS environment is not set. Defaulting to 1 thread. (../comm.cpp:94)
  using 1 OpenMP thread(s) per MPI task
#---------------------------------------
#
# This script is used to calculate the thermal conuctivity of UO2 using Muller-Plathe method
# By Ziqiang Wang on 03/18/2022 on Jilin university
#
#---------------------------------------

variable     Nevery    equal   50
variable     T         equal   1500

clear
OMP_NUM_THREADS environment is not set. Defaulting to 1 thread. (../comm.cpp:94)
  using 1 OpenMP thread(s) per MPI task
units          metal
boundary       p p p
atom_style     full

read_data Frenkel_0.005_relaxed.dat
Reading data file ...
  triclinic box = (-0.23813825 -2.6429791 -0.22658236) to (28.132138 337.37098 28.120582) with tilt (0.0000000 0.0000000 0.0000000)
  2 by 13 by 2 MPI processor grid
  reading atoms ...
  18000 atoms
  reading velocities ...
  18000 velocities
Finding 1-2 1-3 1-4 neighbors ...
  special bond factors lj:    0.0      0.0      0.0     
  special bond factors coul:  0.0      0.0      0.0     
     0 = max # of 1-2 neighbors
     0 = max # of 1-3 neighbors
     0 = max # of 1-4 neighbors
     1 = max # of special neighbors
  special bonds CPU = 0.004 seconds
  read_data CPU = 0.056 seconds

set           type     1    charge     -1.1104
Setting atom values ...
  11940 settings made for charge
set           type     2    charge      2.2208
Setting atom values ...
  5970 settings made for charge

kspace_style    pppm   1.0e-05
pair_style      hybrid/overlay  coul/long  11.0  eam/alloy
pair_coeff      * * coul/long
pair_coeff      * * eam/alloy CeThUNpPuAmCmO.eam.alloy O Th O Th
newton          on
neighbor        0.3 bin
neigh_modify    delay 0 check yes every 1

#The first equilation
velocity        all create $T 10002 mom yes rot yes dist gaussian
velocity        all create 1500 10002 mom yes rot yes dist gaussian
fix             nvt  all  nvt  temp  $T $T  0.1
fix             nvt  all  nvt  temp  1500 $T  0.1
fix             nvt  all  nvt  temp  1500 1500  0.1

run             100000
PPPM initialization ...
  using 12-bit tables for long-range coulomb (../kspace.cpp:328)
  G vector (1/distance) = 0.29826854
  grid = 40 240 40
  stencil order = 5
  estimated absolute RMS force accuracy = 0.00016233523
  estimated relative force accuracy = 1.1273557e-05
  using single precision MKL FFT
  3d grid and FFT values/proc = 15000 7600
Neighbor list info ...
  update every 1 steps, delay 0 steps, check yes
  max neighbors/atom: 2000, page size: 100000
  master list distance cutoff = 11.3
  ghost atom cutoff = 11.3
  binsize = 5.65, bins = 6 61 6
  2 neighbor lists, perpetual/occasional/extra = 2 0 0
  (1) pair coul/long, perpetual
      attributes: half, newton on
      pair build: half/bin/newton/tri
      stencil: half/bin/3d/newton/tri
      bin: standard
  (2) pair eam/alloy, perpetual, copy from (1)
      attributes: half, newton on
      pair build: copy
      stencil: none
      bin: none
Per MPI rank memory allocation (min/avg/max) = 8.313 | 8.341 | 8.357 Mbytes
Step Temp E_pair E_mol TotEng Press 
       0         1500    -232741.8            0   -229251.97    1051.2809 
  100000    1493.6049    -232734.7            0   -229259.75    1302.3498 
Loop time of 686.002 on 52 procs for 100000 steps with 18000 atoms

Performance: 12.595 ns/day, 1.906 hours/ns, 145.772 timesteps/s
99.8% CPU use with 52 MPI tasks x 1 OpenMP threads

MPI task timing breakdown:
Section |  min time  |  avg time  |  max time  |%varavg| %total
---------------------------------------------------------------
Pair    | 449.78     | 458.38     | 471.59     |  27.2 | 66.82
Bond    | 0.0062814  | 0.010338   | 0.018521   |   2.2 |  0.00
Kspace  | 127.1      | 143.13     | 153.2      |  56.9 | 20.86
Neigh   | 60.622     | 63.125     | 68.486     |  22.2 |  9.20
Comm    | 15.814     | 16.838     | 19.231     |  22.2 |  2.45
Output  | 5.4691e-05 | 5.9745e-05 | 0.00025726 |   0.0 |  0.00
Modify  | 1.8516     | 3.254      | 5.3164     |  65.4 |  0.47
Other   |            | 1.269      |            |       |  0.18

Nlocal:        346.154 ave         367 max         321 min
Histogram: 1 1 3 6 8 15 7 3 5 3
Nghost:        3967.15 ave        4085 max        3897 min
Histogram: 7 7 9 7 10 4 0 3 3 2
Neighs:        69520.5 ave       74732 max       64410 min
Histogram: 1 4 3 9 12 7 8 2 5 1

Total # of neighbors = 3615068
Ave neighs/atom = 200.83711
Ave special neighs/atom = 0.0000000
Neighbor list builds = 24994
Dangerous builds = 0
unfix           nvt
reset_timestep  0

# the second run
fix             1 all nve

group           oxygen type 1
11940 atoms in group oxygen
fix             2 oxygen thermal/conductivity ${Nevery} y 20
fix             2 oxygen thermal/conductivity 50 y 20

compute         ke all ke/atom
variable        temp atom c_ke/1.5
compute         layers all chunk/atom bin/1d y lower 0.05 units reduced
fix             3      all ave/chunk  2000 50 100000 layers v_temp file profile_${T}K.mp
fix             3      all ave/chunk  2000 50 100000 layers v_temp file profile_1500K.mp

variable        Tdiff    equal     f_3[11][3]-f_3[1][3]
variable        deltaT   equal     v_Tdiff*1.5/0.0001292

timestep        0.001
thermo_style    custom step f_2 temp v_Tdiff v_deltaT
thermo          100000

run             1000000
PPPM initialization ...
  using 12-bit tables for long-range coulomb (../kspace.cpp:328)
  G vector (1/distance) = 0.29826854
  grid = 40 240 40
  stencil order = 5
  estimated absolute RMS force accuracy = 0.00016233523
  estimated relative force accuracy = 1.1273557e-05
  using single precision MKL FFT
  3d grid and FFT values/proc = 15000 7600
Per MPI rank memory allocation (min/avg/max) = 8.564 | 8.592 | 8.608 Mbytes
Step f_2 Temp v_Tdiff v_deltaT 
       0            0    1493.6049            0            0 
  100000    1572.6783     1491.267  0.067039391     778.3211 
  200000    3036.0646    1486.7735  0.082299133    955.48529 
  300000    4507.3717    1495.6785  0.083608588    970.68794 
  400000    5985.8352    1493.7892  0.082284143    955.31126 
  500000    7442.8254    1500.0647  0.084643892    982.70772 
  600000    8920.5136    1495.4586   0.08380088    972.92043 
  700000     10393.84    1486.8505  0.083034483    964.02263 
  800000     11866.05    1486.6414  0.084393111    979.79618 
  900000    13318.603    1491.6889  0.085936824    997.71854 
 1000000    14779.522    1502.5808  0.083537657    969.86444 
Loop time of 6819.83 on 52 procs for 1000000 steps with 18000 atoms

Performance: 12.669 ns/day, 1.894 hours/ns, 146.631 timesteps/s
99.8% CPU use with 52 MPI tasks x 1 OpenMP threads

MPI task timing breakdown:
Section |  min time  |  avg time  |  max time  |%varavg| %total
---------------------------------------------------------------
Pair    | 4443.2     | 4528.4     | 4632.7     |  63.5 | 66.40
Bond    | 0.062144   | 0.10208    | 0.16753    |   6.2 |  0.00
Kspace  | 1330.3     | 1443.1     | 1532.7     | 121.8 | 21.16
Neigh   | 615.42     | 638.73     | 673.69     |  56.6 |  9.37
Comm    | 157.76     | 169.51     | 202.87     |  91.6 |  2.49
Output  | 0.0010791  | 0.0011351  | 0.0023377  |   0.5 |  0.00
Modify  | 5.3611     | 5.9573     | 6.5299     |  12.0 |  0.09
Other   |            | 34.03      |            |       |  0.50

Nlocal:        346.154 ave         367 max         329 min
Histogram: 3 4 7 11 7 4 6 6 3 1
Nghost:        3970.83 ave        4087 max        3893 min
Histogram: 4 6 10 10 8 3 4 4 1 2
Neighs:        69503.2 ave       73661 max       65629 min
Histogram: 3 4 6 10 5 5 8 5 4 2

Total # of neighbors = 3614164
Ave neighs/atom = 200.78689
Ave special neighs/atom = 0.0000000
Neighbor list builds = 253283
Dangerous builds = 0

Total wall time: 2:05:06
