ITEM: TIMESTEP
80000
ITEM: NUMBER OF ATOMS
17640
ITEM: BOX BOUNDS pp pp pp
-3.2667188009779247e-01 2.7666671880098566e+01
-3.8327576536267824e+00 3.3191275765362275e+02
-3.1588134169963056e-01 2.7655881341700386e+01
ITEM: ATOMS id type q x y z
1 2 2.2208 5.301 1.71551 5.21018
2 1 -1.1104 1.0271 -2.52561 1.08003
3 1 -1.1104 1.12362 3.10064 1.02071
6 1 -1.1104 0.960108 -2.42646 3.87059
7 1 -1.1104 1.09359 3.20457 3.82364
10 1 -1.1104 1.12379 0.330939 1.04168
12 2 2.2208 5.23468 -1.06058 2.42915
13 2 2.2208 5.20131 4.56283 2.44884
14 1 -1.1104 1.00342 0.32372 3.83257
16 1 -1.1104 3.80773 -2.55607 0.935583
17 1 -1.1104 3.98547 3.10475 1.02615
18 2 2.2208 2.55249 1.76443 2.42952
19 1 -1.1104 3.83752 -2.58527 3.86793
20 1 -1.1104 3.84338 3.08427 3.8246
21 2 2.2208 2.44078 -1.1896 5.22381
22 2 2.2208 2.53775 4.54615 5.23863
23 1 -1.1104 3.96522 0.345399 1.03685
24 1 -1.1104 3.86467 0.263629 3.85275
170 1 -1.1104 1.11901 0.247739 6.43947
166 1 -1.1104 1.08612 -2.58048 6.70864
167 1 -1.1104 0.964158 3.05819 6.63623
11 1 -1.1104 6.6718 0.312832 0.963993
8 1 -1.1104 6.56204 -2.45865 3.92097
9 1 -1.1104 6.55436 3.23053 3.84837
15 1 -1.1104 6.62484 0.379051 3.82836
4 1 -1.1104 6.66884 -2.58299 1.02454
171 1 -1.1104 6.62599 0.242215 6.52809
5 1 -1.1104 6.73058 3.05819 1.05707
29 2 2.2208 5.33705 -3.89217 5.22377
173 1 -1.1104 3.90792 3.11778 6.61677
172 1 -1.1104 3.88248 -2.47877 6.64052
174 1 -1.1104 3.83696 0.258562 6.70869
168 1 -1.1104 6.70685 -2.58922 6.65544
31 2 2.2208 10.9001 1.66551 5.30744
32 1 -1.1104 12.2534 -2.48431 1.05663
33 1 -1.1104 12.2179 3.09141 1.12977
34 1 -1.1104 12.2183 -2.52979 3.95001
35 1 -1.1104 12.2508 3.13085 3.879
36 1 -1.1104 12.2438 0.305604 1.04195
37 2 2.2208 10.8469 -1.14479 2.46471
38 2 2.2208 10.8701 4.49304 2.48286
39 1 -1.1104 12.2127 0.298878 3.8753
40 1 -1.1104 9.49204 -2.55713 1.08576
41 1 -1.1104 9.45848 3.09439 1.06745
42 2 2.2208 8.04503 1.79268 2.42446
43 1 -1.1104 9.41099 -2.50542 3.92796
44 1 -1.1104 9.46179 3.12271 3.89384
45 2 2.2208 8.07256 -1.06331 5.23381
46 2 2.2208 8.03828 4.60455 5.21247
47 1 -1.1104 9.43565 0.372075 1.20891
48 1 -1.1104 9.41142 0.30435 3.92691
370 2 2.2208 10.8286 1.69624 -0.323486
210 1 -1.1104 9.4271 0.339069 6.69079
49 2 2.2208 13.6785 1.74802 2.40616
50 2 2.2208 13.6545 -0.980953 5.32532
9130 2 2.2208 13.5886 4.52922 5.26224
52 2 2.2208 10.9256 -3.79578 5.3828
51 2 2.2208 8.08228 -3.94635 2.48018
206 1 -1.1104 12.2684 3.11282 6.72121
208 1 -1.1104 9.52716 -2.4723 6.74724
378 2 2.2208 13.6539 4.56284 -0.290077
373 2 2.2208 8.15547 4.48889 -0.242464
54 2 2.2208 5.33376 7.32385 5.24743
55 2 2.2208 5.30057 13.0481 5.16984
56 1 -1.1104 1.14038 8.63508 1.10655
58 1 -1.1104 1.14382 8.64452 3.88748
60 1 -1.1104 1.00215 5.90434 1.01894
61 1 -1.1104 1.16985 11.5008 1.07508
66 2 2.2208 5.25908 10.1246 2.36686
67 1 -1.1104 1.18966 5.92042 3.88137
68 1 -1.1104 1.06547 11.5055 3.95435
71 1 -1.1104 3.94161 8.63067 0.982481
72 2 2.2208 2.56344 7.27044 2.44524
73 2 2.2208 2.51177 12.9177 2.41323
74 1 -1.1104 3.89604 8.7086 3.79742
75 2 2.2208 2.50947 10.0697 5.21069
76 1 -1.1104 3.86931 5.88313 1.11155
77 1 -1.1104 3.89127 11.4423 0.954949
79 1 -1.1104 3.95587 5.94537 3.82111
80 1 -1.1104 3.94411 11.5587 3.76135
78 1 -1.1104 3.8416 11.5862 6.62179
238 1 -1.1104 3.86021 8.67307 6.59109
70 1 -1.1104 6.70357 11.5992 3.85621
64 1 -1.1104 6.61696 11.6504 1.06297
69 1 -1.1104 6.69184 5.9755 3.84886
59 1 -1.1104 6.74196 8.67704 3.78118
57 1 -1.1104 6.68034 8.72167 0.973497
63 1 -1.1104 6.68935 5.81171 1.06706
65 1 -1.1104 6.59519 11.5254 6.60535
239 1 -1.1104 3.91562 5.94343 6.5225
235 1 -1.1104 6.73463 8.6915 6.60778
234 1 -1.1104 1.06504 8.75919 6.67374
381 2 2.2208 5.265 12.9656 -0.389306
84 2 2.2208 10.8324 7.43175 5.21951
85 2 2.2208 10.8501 12.9682 5.19079
86 1 -1.1104 12.3155 8.73784 1.0096
87 1 -1.1104 12.2627 8.67254 3.90174
88 1 -1.1104 12.2837 5.90821 1.11928
89 1 -1.1104 12.2134 11.6518 1.08413
91 2 2.2208 10.8672 10.1455 2.40962
92 1 -1.1104 12.3195 5.95024 3.92253
93 1 -1.1104 12.1754 11.4959 3.90971
94 1 -1.1104 9.49702 8.71564 1.06068
95 2 2.2208 8.11257 7.34763 2.39633
96 2 2.2208 8.01001 13.0425 2.44392
97 1 -1.1104 9.48077 8.75988 3.81513
98 2 2.2208 8.07896 10.1285 5.25772
99 1 -1.1104 9.52816 5.83611 1.01439
100 1 -1.1104 9.38671 11.5975 1.0775
102 1 -1.1104 9.4258 6.00717 3.78551
103 1 -1.1104 9.49138 11.4935 3.81793
90 1 -1.1104 12.2962 11.653 6.7267
384 2 2.2208 10.8255 7.28402 -0.373518
9424 2 2.2208 13.6786 12.9487 2.48757
9425 2 2.2208 13.6594 7.35535 2.41942
387 2 2.2208 13.661 10.2044 -0.362346
266 1 -1.1104 12.1632 5.88953 6.64771
101 1 -1.1104 9.39481 11.6139 6.62368
385 2 2.2208 8.07098 10.1246 -0.274683
106 2 2.2208 5.25573 18.5112 5.31272
107 1 -1.1104 1.15542 14.2978 1.0957
109 1 -1.1104 1.00816 19.9132 1.07745
113 1 -1.1104 0.967959 14.2856 3.91876
114 1 -1.1104 0.988518 19.9648 3.92118
116 1 -1.1104 1.02105 17.0901 1.09644
119 2 2.2208 5.26856 15.7899 2.33721
120 2 2.2208 5.31744 21.2794 2.54581
121 1 -1.1104 1.12252 17.1542 3.82342
123 1 -1.1104 3.90499 14.3335 0.981442
125 1 -1.1104 3.85816 20.0113 1.15748
127 2 2.2208 2.42111 18.4774 2.44801
128 1 -1.1104 3.92763 14.2456 3.78097
129 1 -1.1104 3.78553 19.839 3.95478
130 2 2.2208 2.48109 15.7133 5.26185
131 2 2.2208 2.4761 21.3326 5.25184
132 1 -1.1104 3.83168 17.2201 1.04293
134 1 -1.1104 3.86619 17.0505 3.8431
124 1 -1.1104 3.97177 14.348 6.59754
302 1 -1.1104 0.96674 19.9473 6.62655
374 2 2.2208 2.43031 15.6541 -0.279631
110 1 -1.1104 6.70577 14.431 0.976806
140 1 -1.1104 6.72161 17.0901 0.988222
115 1 -1.1104 6.63519 14.4615 3.86879
139 1 -1.1104 6.67686 19.8985 3.87588
133 1 -1.1104 3.7858 17.0713 6.69084
118 1 -1.1104 6.61527 17.1229 6.65586
376 2 2.2208 2.43471 21.3271 -0.324612
122 1 -1.1104 6.6618 17.2068 3.8443
138 1 -1.1104 6.57007 19.8028 1.11049
141 2 2.2208 10.8062 18.5642 5.22252
142 1 -1.1104 12.3267 14.3436 1.0268
144 1 -1.1104 12.2706 20.0071 1.04282
146 1 -1.1104 12.2436 14.3607 3.79573
147 1 -1.1104 12.2442 19.956 3.81612
148 1 -1.1104 12.3452 17.1513 0.999753
150 2 2.2208 10.9444 15.7507 2.35063
151 2 2.2208 10.893 21.3688 2.49535
152 1 -1.1104 12.2148 17.1701 3.87351
153 1 -1.1104 9.50445 14.3503 0.945086
155 1 -1.1104 9.41292 19.9291 1.11556
157 2 2.2208 7.98189 18.5353 2.4663
158 1 -1.1104 9.38625 14.3322 3.82187
159 1 -1.1104 9.4337 19.9958 3.81192
160 2 2.2208 8.04555 15.7524 5.15248
161 2 2.2208 8.0942 21.3084 5.21072
162 1 -1.1104 9.52365 17.1881 1.03454
164 1 -1.1104 9.43834 17.2423 3.76316
156 1 -1.1104 9.4442 19.9372 6.66552
9228 2 2.2208 13.7039 15.8264 5.28578
9207 2 2.2208 13.6309 21.4036 5.28806
9427 2 2.2208 13.6759 18.5677 2.44028
350 2 2.2208 8.15403 21.3166 -0.292161
349 2 2.2208 10.931 18.6056 -0.348962
149 1 -1.1104 12.1477 17.2591 6.70745
348 2 2.2208 8.13574 15.8277 -0.369839
169 1 -1.1104 6.69178 3.15537 6.60931
202 2 2.2208 2.49487 -3.87646 8.08191
175 2 2.2208 5.17494 1.69765 10.8457
176 1 -1.1104 1.04885 -2.36229 12.2948
177 1 -1.1104 1.14852 3.12217 12.2681
180 1 -1.1104 1.10351 -2.63536 9.56986
181 1 -1.1104 1.09254 3.06286 9.42975
184 1 -1.1104 1.1441 0.364228 12.2279
186 2 2.2208 5.31159 -1.16713 8.03224
187 2 2.2208 5.26335 4.42467 8.04793
188 1 -1.1104 0.979931 0.275113 9.42834
190 1 -1.1104 3.91417 -2.56249 12.2313
191 1 -1.1104 4.01129 3.19571 12.201
192 2 2.2208 2.42927 1.65394 7.92821
193 1 -1.1104 3.84888 -2.41574 9.39023
194 1 -1.1104 3.81237 3.04624 9.39724
195 2 2.2208 2.45987 -1.12037 10.841
196 2 2.2208 2.54005 4.54324 10.7322
197 1 -1.1104 3.93717 0.283619 12.2819
198 1 -1.1104 3.76459 0.352168 9.50764
337 2 2.2208 5.25815 -1.10856 13.6248
178 1 -1.1104 6.71883 -2.50583 12.2981
185 1 -1.1104 6.66647 0.443923 12.2253
182 1 -1.1104 6.73213 -2.55944 9.4564
183 1 -1.1104 6.64931 2.99086 9.46972
179 1 -1.1104 6.69866 3.21692 12.2577
189 1 -1.1104 6.64697 0.174258 9.38157
336 2 2.2208 2.55639 -3.84814 13.6426
233 2 2.2208 13.6914 -3.90253 8.02218
205 1 -1.1104 12.2825 -2.37811 6.69186
207 1 -1.1104 12.3128 0.353687 6.74099
209 1 -1.1104 9.53799 3.076 6.57419
330 2 2.2208 13.6502 4.60127 10.8547
229 2 2.2208 13.6767 1.77971 8.13315
230 2 2.2208 13.7062 -1.05212 10.8285
211 2 2.2208 10.9329 1.81139 10.82
212 1 -1.1104 12.3627 -2.44671 12.2252
213 1 -1.1104 12.2643 3.21844 12.2391
214 1 -1.1104 12.1939 -2.4684 9.49625
215 1 -1.1104 12.3101 3.19104 9.4411
216 1 -1.1104 12.2311 0.401598 12.233
217 2 2.2208 10.859 -1.04836 8.10868
218 2 2.2208 10.8641 4.58679 8.02144
219 1 -1.1104 12.3342 0.34667 9.54468
220 1 -1.1104 9.59364 -2.63399 12.2378
221 1 -1.1104 9.45585 3.12592 12.2174
222 2 2.2208 8.10755 1.68098 7.99568
223 1 -1.1104 9.45102 -2.40716 9.40411
224 1 -1.1104 9.38864 3.15841 9.3661
225 2 2.2208 8.07938 -1.03643 10.7976
226 2 2.2208 8.03367 4.50458 10.7999
227 1 -1.1104 9.44222 0.201182 12.1722
228 1 -1.1104 9.53645 0.357905 9.43425
351 2 2.2208 7.94579 1.78924 13.6046
353 2 2.2208 10.8988 4.58798 13.6
352 2 2.2208 10.8026 -1.04929 13.6094
236 1 -1.1104 1.16073 5.95127 6.64125
62 1 -1.1104 1.18772 11.5356 6.8254
240 2 2.2208 5.36952 7.33182 10.7602
241 2 2.2208 5.2531 12.9545 10.8653
242 1 -1.1104 1.08479 8.76396 12.2407
244 1 -1.1104 1.16082 8.6995 9.41076
246 1 -1.1104 1.08444 5.81148 12.1989
247 1 -1.1104 1.09939 11.5735 12.3646
250 2 2.2208 5.3512 10.1804 8.02229
251 1 -1.1104 1.10949 5.86346 9.3971
252 1 -1.1104 1.17731 11.5208 9.56051
255 1 -1.1104 3.88586 8.70371 12.1675
256 2 2.2208 2.51879 7.27431 8.01589
257 2 2.2208 2.58261 12.9418 8.16151
258 1 -1.1104 3.91486 8.68828 9.35171
259 2 2.2208 2.54009 10.1306 10.8791
260 1 -1.1104 3.78616 5.97921 12.1859
261 1 -1.1104 3.90758 11.5878 12.3316
262 1 -1.1104 3.91954 5.90181 9.42261
263 1 -1.1104 4.03533 11.4404 9.52746
237 1 -1.1104 6.67495 5.97416 6.65558
243 1 -1.1104 6.63249 8.80457 12.2065
254 1 -1.1104 6.70786 11.5286 9.48853
249 1 -1.1104 6.67278 11.4974 12.2542
253 1 -1.1104 6.63193 5.90646 9.42954
248 1 -1.1104 6.62435 6.02304 12.232
245 1 -1.1104 6.7093 8.77305 9.4065
356 2 2.2208 2.48512 12.9488 13.6682
269 1 -1.1104 9.4651 6.00844 6.58766
265 1 -1.1104 12.3223 8.82031 6.76314
9341 2 2.2208 13.6248 7.3398 8.05943
331 2 2.2208 13.5787 10.212 10.8372
9342 2 2.2208 13.7343 13.0113 8.10257
267 1 -1.1104 9.53359 8.83757 6.72215
285 1 -1.1104 9.43123 8.76468 12.199
284 1 -1.1104 12.3193 11.527 9.53732
264 1 -1.1104 9.43255 11.6736 9.46255
268 1 -1.1104 9.49361 5.82547 9.45179
270 1 -1.1104 9.60475 11.5257 12.2803
271 1 -1.1104 9.39823 5.96128 12.2188
272 2 2.2208 8.08863 10.2532 10.8939
273 1 -1.1104 9.53197 8.77394 9.44435
274 2 2.2208 7.98755 12.9792 8.13504
275 2 2.2208 8.03074 7.3653 8.01249
276 2 2.2208 10.7552 7.31578 10.8792
277 2 2.2208 10.8397 12.9541 10.9209
278 1 -1.1104 12.2294 8.75975 12.3607
279 1 -1.1104 12.2575 8.68554 9.56255
280 1 -1.1104 12.176 6.01506 12.2411
281 1 -1.1104 12.3254 11.6284 12.2838
282 2 2.2208 10.8669 10.2493 8.13118
283 1 -1.1104 12.1281 5.96522 9.47859
359 2 2.2208 7.98562 12.9723 13.6569
358 2 2.2208 10.928 10.1104 13.6618
357 2 2.2208 7.9816 7.39092 13.5807
111 1 -1.1104 6.66085 14.3902 6.60784
108 1 -1.1104 1.14567 14.3194 6.7336
312 2 2.2208 -0.291408 18.4648 10.8396
296 1 -1.1104 6.54226 19.8288 12.3644
117 1 -1.1104 0.9933 17.1283 6.62005
288 1 -1.1104 6.69683 19.8763 9.5927
289 1 -1.1104 6.7343 17.1851 9.56305
290 1 -1.1104 6.72936 14.4379 9.55077
297 1 -1.1104 6.61988 14.2475 12.2669
126 1 -1.1104 3.77793 19.9548 6.71373
112 1 -1.1104 6.62074 19.9282 6.78831
300 2 2.2208 5.21104 18.4567 10.9188
301 1 -1.1104 3.84601 19.8668 9.5013
303 2 2.2208 2.39237 18.5594 8.01765
295 2 2.2208 5.21044 15.8195 7.99246
304 1 -1.1104 3.91713 17.1219 9.46326
298 1 -1.1104 1.06993 19.8283 12.2524
299 1 -1.1104 1.06847 14.2818 12.2056
287 1 -1.1104 3.86007 14.4004 12.296
286 1 -1.1104 3.85143 19.9456 12.3497
294 1 -1.1104 1.06644 14.269 9.4645
293 2 2.2208 5.23192 21.4364 8.13746
292 1 -1.1104 1.08739 17.1401 9.50531
310 2 2.2208 2.42255 15.7557 10.9086
309 2 2.2208 2.44785 21.2999 10.806
291 1 -1.1104 1.10485 19.9308 9.48465
308 1 -1.1104 3.83724 17.1531 12.2191
307 1 -1.1104 1.06951 17.0587 12.2873
305 1 -1.1104 3.81546 14.3269 9.42693
360 2 2.2208 2.48285 18.4866 13.8024
362 2 2.2208 5.27128 15.7064 13.6797
319 1 -1.1104 9.43716 14.4886 9.45643
320 2 2.2208 8.03065 18.5781 8.18014
154 1 -1.1104 9.45343 14.4237 6.68271
329 1 -1.1104 12.2276 20.0134 12.2692
105 2 2.2208 10.9005 18.5921 10.9656
306 1 -1.1104 6.69248 17.0204 12.4064
326 1 -1.1104 12.1924 17.2112 12.3415
318 1 -1.1104 9.49175 19.9937 9.48315
104 2 2.2208 13.642 15.8396 10.9085
317 2 2.2208 8.13787 15.8355 10.9191
328 1 -1.1104 12.2608 14.4343 9.47292
321 1 -1.1104 9.28822 20.0093 12.3056
165 1 -1.1104 12.2579 14.4157 12.3871
325 2 2.2208 10.9066 15.8909 8.08574
323 1 -1.1104 12.3242 17.2006 9.55292
324 2 2.2208 10.8099 21.3172 8.09375
145 1 -1.1104 12.2146 19.9684 6.64822
163 1 -1.1104 9.3628 17.2109 6.60276
143 1 -1.1104 12.2956 14.4112 6.64628
327 1 -1.1104 12.2963 20.0385 9.4219
365 2 2.2208 8.00956 18.607 13.6943
314 1 -1.1104 9.56292 17.2681 9.50509
9426 2 2.2208 13.6783 18.5948 7.968
315 1 -1.1104 9.48044 17.2093 12.3456
316 2 2.2208 8.08827 21.3709 10.8702
322 1 -1.1104 9.39887 14.3745 12.2337
363 2 2.2208 10.8176 21.4199 13.6632
388 2 2.2208 5.24854 1.66669 16.418
389 1 -1.1104 1.04417 -2.48016 17.6873
390 1 -1.1104 0.998055 3.15482 17.8657
393 1 -1.1104 1.20283 -2.55703 15.0205
395 1 -1.1104 1.15347 3.12729 15.1358
401 1 -1.1104 1.12737 0.419004 17.8224
403 2 2.2208 5.24372 -1.11784 19.322
404 2 2.2208 5.36545 4.53257 19.2125
405 1 -1.1104 1.04749 0.337831 15.08
409 1 -1.1104 3.8376 -2.43479 17.8712
410 1 -1.1104 3.87831 3.09539 17.7604
411 2 2.2208 2.60715 1.77564 19.2297
412 1 -1.1104 3.97715 -2.45927 14.9981
414 1 -1.1104 3.83175 3.06908 15.0569
416 2 2.2208 2.50448 -1.06391 16.5556
417 2 2.2208 2.51599 4.51273 16.4232
418 1 -1.1104 3.9433 0.299727 17.9475
419 1 -1.1104 3.76632 0.321901 15.0554
415 1 -1.1104 4.04154 3.04363 20.6421
339 2 2.2208 2.49467 1.70349 13.647
402 1 -1.1104 6.66773 0.395016 17.7693
397 1 -1.1104 6.69948 -2.579 15.0187
407 1 -1.1104 6.6295 0.331352 14.935
399 1 -1.1104 6.62755 3.10255 15.0489
391 1 -1.1104 6.73008 -2.38723 17.8194
392 1 -1.1104 6.68349 3.1737 17.8052
400 1 -1.1104 6.79068 3.16326 20.5199
420 1 -1.1104 3.87035 0.348458 20.6631
406 1 -1.1104 1.12565 0.283103 20.633
408 1 -1.1104 6.65837 0.287687 20.6461
398 1 -1.1104 6.67253 -2.49728 20.625
340 2 2.2208 5.20992 4.48482 13.6394
425 2 2.2208 -0.262684 -1.08476 19.2051
413 1 -1.1104 3.87488 -2.54253 20.5742
396 1 -1.1104 1.1502 3.14324 20.6266
431 2 2.2208 10.778 1.79848 16.3814
432 1 -1.1104 12.2104 -2.48253 17.9353
433 1 -1.1104 12.4073 3.1143 17.9012
434 1 -1.1104 12.2425 -2.54563 15.0052
436 1 -1.1104 12.2397 3.16923 15.0294
438 1 -1.1104 12.1116 0.361401 17.7555
439 2 2.2208 10.7905 -1.04102 19.2047
440 2 2.2208 10.8845 4.50582 19.2642
441 1 -1.1104 12.2089 0.41825 14.9734
443 1 -1.1104 9.43859 -2.48921 17.8645
444 1 -1.1104 9.53592 3.19981 17.8299
445 2 2.2208 7.99187 1.72189 19.2817
446 1 -1.1104 9.45389 -2.43407 14.9933
448 1 -1.1104 9.38065 3.09122 15.0101
450 2 2.2208 8.07786 -0.979807 16.3779
451 2 2.2208 8.0675 4.5639 16.4362
452 1 -1.1104 9.28998 0.342843 17.734
453 1 -1.1104 9.39153 0.331101 14.9681
454 1 -1.1104 9.44774 0.299604 20.526
437 1 -1.1104 12.2958 3.12692 20.6552
447 1 -1.1104 9.52141 -2.43684 20.7198
9496 2 2.2208 13.7168 4.51927 16.488
459 2 2.2208 13.6266 -1.07801 16.6057
9502 2 2.2208 13.6318 1.79957 19.2609
344 2 2.2208 13.6495 1.79976 13.6306
435 1 -1.1104 12.3125 -2.47682 20.6593
347 2 2.2208 13.6137 -3.80135 13.6299
464 2 2.2208 5.29615 7.32629 16.4458
465 2 2.2208 5.3032 12.9447 16.5278
466 1 -1.1104 1.06032 8.68057 17.9047
468 1 -1.1104 1.07218 8.63014 15.0184
472 1 -1.1104 1.18213 5.93189 17.7733
473 1 -1.1104 1.03901 11.4265 17.885
476 2 2.2208 5.37079 10.1822 19.1451
477 1 -1.1104 1.04317 5.92117 14.962
479 1 -1.1104 1.03073 11.4606 15.1945
485 1 -1.1104 3.83756 8.73656 17.7516
486 2 2.2208 2.50184 7.3317 19.1791
487 2 2.2208 2.4863 12.9426 19.2982
488 1 -1.1104 3.82618 8.62534 15.0217
490 2 2.2208 2.42705 10.1058 16.5015
491 1 -1.1104 3.94789 5.85423 17.8552
492 1 -1.1104 3.95501 11.5028 17.8626
493 1 -1.1104 3.91187 5.81017 15.03
495 1 -1.1104 3.84435 11.4504 15.0644
474 1 -1.1104 6.72561 5.95276 17.8374
470 1 -1.1104 6.64851 8.7222 15.092
475 1 -1.1104 6.74066 11.5771 17.8881
467 1 -1.1104 6.70583 8.72016 17.7797
481 1 -1.1104 6.73049 5.92273 15.1096
483 1 -1.1104 6.59704 11.5159 15.022
469 1 -1.1104 1.07109 8.77044 20.6282
494 1 -1.1104 3.92096 5.83788 20.7441
355 2 2.2208 5.24483 10.1204 13.6335
496 1 -1.1104 3.96091 11.535 20.5863
489 1 -1.1104 3.93168 8.72699 20.5992
482 1 -1.1104 6.58087 5.82514 20.6323
471 1 -1.1104 6.76854 8.66777 20.4916
354 2 2.2208 2.46313 7.31774 13.6167
484 1 -1.1104 6.76281 11.5545 20.6979
500 2 2.2208 10.7685 7.34938 16.4855
501 2 2.2208 10.9156 13.017 16.432
502 1 -1.1104 12.226 8.64232 17.8396
503 1 -1.1104 12.2678 8.78111 15.1134
505 1 -1.1104 12.2547 5.97781 17.8591
506 1 -1.1104 12.1629 11.471 17.7335
507 2 2.2208 10.8912 10.1808 19.2568
508 1 -1.1104 12.2781 5.92282 15.0094
510 1 -1.1104 12.219 11.6571 14.9139
512 1 -1.1104 9.45994 8.72747 17.8929
513 2 2.2208 8.10368 7.28805 19.2364
514 2 2.2208 8.04486 13.0084 19.2904
515 1 -1.1104 9.44523 8.79825 15.1111
517 2 2.2208 8.10388 10.2309 16.4387
518 1 -1.1104 9.5115 5.9443 17.8905
519 1 -1.1104 9.50007 11.6567 17.8137
520 1 -1.1104 9.52798 6.03852 15.0197
522 1 -1.1104 9.41627 11.5679 15.0794
511 1 -1.1104 12.3778 11.5499 20.6901
504 1 -1.1104 12.3381 8.79569 20.5595
9570 2 2.2208 13.589 10.0999 16.465
9571 2 2.2208 13.6584 7.27733 19.1964
9572 2 2.2208 13.6115 12.9834 19.3217
9439 2 2.2208 13.6291 7.29636 13.6922
523 1 -1.1104 9.48233 11.5513 20.6506
341 2 2.2208 13.6924 13.0159 13.691
527 2 2.2208 5.30775 18.5199 16.4935
528 1 -1.1104 1.12153 14.3567 17.8501
529 1 -1.1104 1.06499 19.9691 17.8915
532 1 -1.1104 1.10521 14.3107 14.888
534 1 -1.1104 1.10949 19.9486 15.1287
540 1 -1.1104 1.03233 17.2212 17.841
542 2 2.2208 5.242 15.7935 19.3283
543 2 2.2208 5.22976 21.3904 19.275
544 1 -1.1104 1.07474 17.1142 14.9997
548 1 -1.1104 3.91074 14.3616 17.9672
549 1 -1.1104 3.91083 19.8614 17.9083
550 2 2.2208 2.47465 18.5669 19.2103
551 1 -1.1104 3.91244 14.2371 15.0528
553 1 -1.1104 3.93753 19.8738 15.0868
555 2 2.2208 2.52914 15.7372 16.5313
556 2 2.2208 2.4687 21.3539 16.4078
557 1 -1.1104 3.85159 17.0992 17.9011
558 1 -1.1104 3.90844 17.1261 15.0874
536 1 -1.1104 6.59412 14.3735 15.0136
538 1 -1.1104 6.7399 19.9509 15.1186
531 1 -1.1104 6.70751 19.8604 17.8882
530 1 -1.1104 6.67958 14.2477 17.8707
546 1 -1.1104 6.69689 17.1961 15.1332
361 2 2.2208 5.30623 21.3354 13.6632
541 1 -1.1104 6.57991 17.1221 17.8986
537 1 -1.1104 6.79285 14.4828 20.691
9454 2 2.2208 -0.365543 21.274 13.6691
569 1 -1.1104 12.1536 19.9265 20.7322
563 2 2.2208 10.739 18.5769 16.3909
564 1 -1.1104 12.3183 14.3923 17.7998
565 1 -1.1104 12.2964 19.9546 17.9498
566 1 -1.1104 12.2545 14.416 15.0827
568 1 -1.1104 12.2513 19.9764 15.1023
570 1 -1.1104 12.1949 17.2111 17.945
571 2 2.2208 10.8394 15.841 19.2145
572 2 2.2208 10.8116 21.3758 19.3036
573 1 -1.1104 12.2036 17.1838 15.0489
575 1 -1.1104 9.52374 14.4741 17.9135
576 1 -1.1104 9.50076 20.0336 17.836
577 2 2.2208 8.07788 18.5341 19.1527
578 1 -1.1104 9.37456 14.3262 15.1319
580 1 -1.1104 9.34895 19.9967 15.1257
582 2 2.2208 8.03913 15.7829 16.4913
583 2 2.2208 7.96811 21.4226 16.4785
584 1 -1.1104 9.37043 17.2569 17.7587
585 1 -1.1104 9.43212 17.2029 14.9827
567 1 -1.1104 12.2399 14.3939 20.6599
574 1 -1.1104 12.2843 17.153 20.6686
9642 2 2.2208 13.6476 18.623 19.3399
9643 2 2.2208 13.6322 21.4364 16.4543
9640 2 2.2208 13.5847 15.858 16.4999
364 2 2.2208 10.8397 15.7741 13.6862
579 1 -1.1104 9.45329 14.4214 20.6882
9430 2 2.2208 13.7102 18.6176 13.7515
394 1 -1.1104 1.18471 -2.59679 20.605
367 2 2.2208 2.52403 -1.13362 27.6095
591 2 2.2208 5.3281 1.77779 21.9331
592 1 -1.1104 1.03976 -2.48902 23.3855
593 1 -1.1104 1.02231 3.08004 23.3507
596 1 -1.1104 1.08746 -2.54138 26.2814
597 1 -1.1104 1.19431 3.08404 26.2788
600 1 -1.1104 1.18082 0.260922 23.3387
602 2 2.2208 5.29943 -1.06507 24.7713
603 2 2.2208 5.39773 4.44954 24.8495
604 1 -1.1104 1.08723 0.295228 26.17
606 1 -1.1104 3.88525 -2.47381 23.351
607 1 -1.1104 3.80425 3.08064 23.4076
608 2 2.2208 2.4893 1.67037 24.773
609 1 -1.1104 3.87667 -2.43075 26.1753
610 1 -1.1104 3.91871 3.14547 26.1948
611 2 2.2208 2.49889 -1.12855 22.0176
612 2 2.2208 2.50625 4.52175 22.0304
613 1 -1.1104 4.04511 0.264308 23.422
614 1 -1.1104 3.80491 0.325765 26.1873
598 1 -1.1104 6.6193 -2.52449 26.2309
601 1 -1.1104 6.75481 0.287734 23.4762
605 1 -1.1104 6.68967 0.278416 26.2269
595 1 -1.1104 6.70493 3.01044 23.3058
599 1 -1.1104 6.74701 3.10414 26.114
368 2 2.2208 2.54831 4.52695 27.5672
366 2 2.2208 5.31377 1.70463 27.5187
594 1 -1.1104 6.65981 -2.51215 23.3712
442 1 -1.1104 12.2528 0.39965 20.526
449 1 -1.1104 9.56787 3.12033 20.6286
627 2 2.2208 10.9527 1.70058 21.9703
628 1 -1.1104 12.2768 -2.45688 23.5244
629 1 -1.1104 12.2846 3.02007 23.4544
630 1 -1.1104 12.2318 -2.46946 26.2913
631 1 -1.1104 12.2477 3.09687 26.2618
632 1 -1.1104 12.3358 0.303796 23.3598
633 2 2.2208 10.9018 -1.09415 24.9549
634 2 2.2208 10.8847 4.51994 24.7973
635 1 -1.1104 12.2829 0.327563 26.2152
636 1 -1.1104 9.46955 -2.52211 23.5176
637 1 -1.1104 9.54777 3.04791 23.3247
638 2 2.2208 8.16405 1.66292 24.8256
639 1 -1.1104 9.48324 -2.52312 26.2775
640 1 -1.1104 9.44743 3.10348 26.2189
641 2 2.2208 8.0772 -1.04527 22.0317
642 2 2.2208 8.14137 4.49093 21.9796
643 1 -1.1104 9.58039 0.274613 23.4356
644 1 -1.1104 9.46944 0.243632 26.3006
653 2 2.2208 13.6897 -1.07866 22.1296
427 2 2.2208 13.6716 4.48189 22.0258
654 2 2.2208 13.5933 1.7189 24.7848
371 2 2.2208 8.09005 -1.15071 27.7205
377 2 2.2208 13.6354 -1.02015 27.6338
649 2 2.2208 10.8627 -3.88969 27.6887
478 1 -1.1104 1.1554 5.96916 20.5362
480 1 -1.1104 1.08932 11.5515 20.7805
656 2 2.2208 5.26571 7.22413 22.0785
657 2 2.2208 5.30279 12.9292 22.0377
658 1 -1.1104 1.09809 8.74152 23.4108
660 1 -1.1104 1.19014 8.74579 26.1681
662 1 -1.1104 1.01159 5.85624 23.3494
663 1 -1.1104 1.15103 11.5075 23.4742
666 2 2.2208 5.3185 10.1286 24.7855
667 1 -1.1104 1.14604 5.94881 26.0902
668 1 -1.1104 1.07721 11.6076 26.2508
671 1 -1.1104 3.93354 8.65066 23.3486
672 2 2.2208 2.47335 7.28395 24.7518
673 2 2.2208 2.456 12.9753 24.8104
674 1 -1.1104 3.90003 8.67208 26.1666
675 2 2.2208 2.64145 10.1369 21.9838
676 1 -1.1104 3.92338 5.87979 23.457
677 1 -1.1104 3.92838 11.4627 23.4432
678 1 -1.1104 3.96686 5.88972 26.2209
679 1 -1.1104 3.92695 11.5151 26.1775
670 1 -1.1104 6.67197 11.6115 26.2087
665 1 -1.1104 6.71485 11.5209 23.4294
661 1 -1.1104 6.74107 8.68152 26.1842
659 1 -1.1104 6.72797 8.71329 23.3164
669 1 -1.1104 6.78484 5.85071 26.1819
664 1 -1.1104 6.68534 5.90787 23.4783
380 2 2.2208 2.52241 10.035 27.5719
379 2 2.2208 5.34041 7.32617 27.5075
710 2 2.2208 13.645 7.26436 24.7687
509 1 -1.1104 12.1618 5.94019 20.656
516 1 -1.1104 9.4821 8.68977 20.7229
521 1 -1.1104 9.32157 5.96123 20.6079
9762 2 2.2208 13.7513 10.0804 21.9848
708 2 2.2208 13.7336 12.973 24.817
687 1 -1.1104 9.41559 11.5368 26.2796
688 1 -1.1104 9.47078 5.88338 26.1439
689 1 -1.1104 9.54253 11.6568 23.521
690 1 -1.1104 9.46898 5.93774 23.3328
691 2 2.2208 8.0959 10.1445 22.0341
692 1 -1.1104 9.51142 8.72159 26.2561
693 2 2.2208 8.03359 12.9821 24.8753
694 2 2.2208 8.12878 7.33877 24.8121
695 2 2.2208 10.8766 7.37245 21.9479
696 2 2.2208 10.8457 12.9368 22.1071
697 1 -1.1104 12.2898 8.69788 23.2865
698 1 -1.1104 12.2836 8.72273 26.0988
699 1 -1.1104 12.2901 5.75939 23.5271
700 1 -1.1104 12.2719 11.6032 23.4381
701 2 2.2208 10.8993 10.1627 24.7734
702 1 -1.1104 12.1999 5.91985 26.2247
703 1 -1.1104 12.2382 11.4804 26.3123
704 1 -1.1104 9.5401 8.72078 23.4507
386 2 2.2208 10.8752 12.9993 27.557
554 1 -1.1104 3.82738 19.8711 20.631
545 1 -1.1104 1.01421 17.1927 20.6554
552 1 -1.1104 3.86506 14.3493 20.7003
559 1 -1.1104 3.79005 17.1477 20.6828
533 1 -1.1104 1.12878 14.4028 20.6629
714 1 -1.1104 6.6465 17.02 26.2623
535 1 -1.1104 1.02223 20.0649 20.6532
681 1 -1.1104 6.7266 17.076 23.4563
647 2 2.2208 2.48956 15.7543 22.0252
652 2 2.2208 2.4826 21.3356 22.0585
655 1 -1.1104 3.81618 17.1211 23.4535
680 1 -1.1104 1.12797 17.0931 23.443
682 1 -1.1104 3.87133 14.3586 26.195
683 1 -1.1104 3.84888 17.0692 26.2878
686 2 2.2208 2.46943 18.5237 24.8876
705 1 -1.1104 3.79348 19.905 26.2692
706 2 2.2208 5.22021 18.553 22.0219
707 1 -1.1104 1.08878 14.389 23.4565
709 1 -1.1104 0.99494 19.9228 23.3895
711 1 -1.1104 3.89738 19.9596 23.4977
713 1 -1.1104 3.87677 14.2793 23.4678
715 1 -1.1104 1.07276 19.8759 26.2593
716 1 -1.1104 1.08297 17.0823 26.2347
717 1 -1.1104 1.12092 14.2881 26.2856
719 2 2.2208 5.29219 21.3017 24.8368
720 2 2.2208 5.20141 15.6895 24.8459
712 1 -1.1104 6.67043 14.3263 26.2309
718 1 -1.1104 6.62476 19.899 23.4865
721 1 -1.1104 6.62915 14.2664 23.4374
562 1 -1.1104 6.61033 19.7942 26.2061
539 1 -1.1104 6.62683 19.9697 20.5924
547 1 -1.1104 6.67345 17.2145 20.7743
375 2 2.2208 5.20674 18.5024 27.6465
581 1 -1.1104 9.38366 19.9145 20.6347
497 1 -1.1104 12.3116 20.0105 26.245
526 1 -1.1104 9.43021 14.417 23.5062
615 2 2.2208 8.00896 21.4017 22.1013
586 1 -1.1104 9.46252 17.1586 20.5832
524 2 2.2208 10.8698 21.3496 24.82
525 1 -1.1104 12.375 17.124 26.2301
498 1 -1.1104 12.322 17.3223 23.4015
462 1 -1.1104 12.2453 19.9357 23.4586
561 2 2.2208 8.01534 18.5327 24.861
616 1 -1.1104 9.46536 17.2326 23.4057
461 1 -1.1104 12.324 14.4446 23.5058
590 2 2.2208 13.6909 15.8098 22.0868
617 1 -1.1104 9.50913 17.2123 26.1594
9497 2 2.2208 13.6279 21.4207 22.0993
560 1 -1.1104 9.31783 19.9655 23.4491
460 2 2.2208 10.7983 18.5796 22.0595
587 1 -1.1104 9.43462 14.4243 26.1613
463 1 -1.1104 12.4029 14.284 26.2793
458 2 2.2208 13.6794 18.5321 24.8368
499 2 2.2208 10.857 15.796 24.7926
589 2 2.2208 8.13413 15.7861 22.1163
588 1 -1.1104 9.48869 19.9901 26.2294
346 2 2.2208 13.576 21.4629 27.6949
345 2 2.2208 13.7256 15.7533 27.6451
722 2 2.2208 5.25389 24.0689 5.26074
723 2 2.2208 5.27765 29.7545 5.28422
724 1 -1.1104 1.07082 25.5796 1.1312
725 1 -1.1104 1.12855 25.4633 3.93082
726 1 -1.1104 1.08517 22.8124 1.06048
727 1 -1.1104 1.07162 28.3391 1.04131
728 2 2.2208 5.31099 26.9402 2.53864
729 1 -1.1104 1.0556 22.665 3.8273
730 1 -1.1104 1.06475 28.3381 3.97275
731 1 -1.1104 3.84914 25.5945 1.10293
732 2 2.2208 2.4746 24.1402 2.42405
733 2 2.2208 2.46052 29.6857 2.50531
734 1 -1.1104 3.88176 25.447 3.93208
735 2 2.2208 2.42062 26.9092 5.32541
736 1 -1.1104 3.9016 22.8021 1.04569
737 1 -1.1104 3.92251 28.4676 1.2059
738 1 -1.1104 3.87906 22.6981 3.86145
739 1 -1.1104 3.83518 28.2181 3.8918
865 1 -1.1104 1.03172 22.8182 6.57442
1059 2 2.2208 5.2393 24.0721 -0.329874
745 1 -1.1104 6.69031 22.718 1.15096
743 1 -1.1104 6.60427 25.4597 1.18313
1060 2 2.2208 2.51152 26.9685 -0.236112
1061 2 2.2208 5.27363 29.743 -0.308245
744 1 -1.1104 6.63031 25.5038 3.93571
747 1 -1.1104 6.66872 22.624 3.85642
746 1 -1.1104 6.69683 28.3489 1.00847
866 1 -1.1104 1.0518 28.3786 6.81669
863 1 -1.1104 1.09641 25.5281 6.77963
870 1 -1.1104 3.81132 22.6789 6.7332
864 1 -1.1104 6.67702 25.4256 6.76132
742 2 2.2208 -0.315011 27.0089 2.53526
1063 2 2.2208 -0.353918 29.8065 -0.264595
748 1 -1.1104 6.69277 28.4275 3.87071
749 2 2.2208 10.8642 24.1467 5.32426
750 2 2.2208 10.8091 29.8546 5.32023
751 1 -1.1104 12.1623 25.5747 0.994087
752 1 -1.1104 12.2763 25.6221 3.80305
753 1 -1.1104 12.1713 22.6946 1.09301
754 1 -1.1104 12.2504 28.3601 1.01783
755 2 2.2208 10.7694 26.9395 2.49916
756 1 -1.1104 12.2811 22.7949 3.82517
757 1 -1.1104 12.1626 28.4471 3.85447
758 1 -1.1104 9.43293 25.6185 1.00903
759 2 2.2208 7.98931 24.1356 2.54362
760 2 2.2208 8.06394 29.7844 2.45101
761 1 -1.1104 9.37489 25.5827 3.84128
762 2 2.2208 7.95583 27.021 5.31915
763 1 -1.1104 9.39592 22.7497 1.05247
764 1 -1.1104 9.43915 28.3027 1.12176
765 1 -1.1104 9.5378 22.7441 3.92604
766 1 -1.1104 9.5014 28.4318 3.89655
898 1 -1.1104 12.2966 28.4116 6.65681
767 2 2.2208 13.6403 24.1612 2.46798
1066 2 2.2208 8.03868 27.0033 -0.389792
1065 2 2.2208 10.8362 24.1897 -0.313088
901 1 -1.1104 9.35787 28.3356 6.68008
896 1 -1.1104 12.2325 25.5705 6.55461
897 1 -1.1104 12.2493 22.728 6.60881
1068 2 2.2208 10.8966 29.6738 -0.307583
770 2 2.2208 5.2395 35.427 5.33677
771 1 -1.1104 0.984922 31.2294 1.16885
772 1 -1.1104 1.05965 36.7659 1.04894
774 1 -1.1104 1.02712 31.0909 3.818
775 1 -1.1104 1.03266 36.6894 3.8379
777 1 -1.1104 1.04252 33.9514 1.15042
778 2 2.2208 5.30612 32.6543 2.40353
779 2 2.2208 5.19133 38.1849 2.51938
780 1 -1.1104 1.10288 33.9921 3.88556
782 1 -1.1104 3.91191 31.2289 1.12565
783 1 -1.1104 3.81765 36.7018 1.0956
784 2 2.2208 2.44619 35.3751 2.5034
785 1 -1.1104 3.9486 31.0092 3.9851
786 1 -1.1104 3.88928 36.7623 3.90397
787 2 2.2208 2.42813 32.5961 5.30241
788 2 2.2208 2.47022 38.2276 5.34111
789 1 -1.1104 3.83892 33.9892 1.12582
790 1 -1.1104 3.91348 33.929 3.9432
791 2 2.2208 -0.328331 35.3257 5.2842
773 1 -1.1104 6.58162 36.7958 1.23617
794 1 -1.1104 6.7689 31.1416 1.05168
795 1 -1.1104 6.74573 31.2023 3.90723
926 1 -1.1104 3.83641 31.2257 6.78121
1070 2 2.2208 2.50442 32.5953 -0.234799
793 2 2.2208 -0.389195 32.5859 2.48566
927 1 -1.1104 3.82764 36.726 6.74613
925 1 -1.1104 6.65587 33.9628 6.6567
776 1 -1.1104 6.61203 36.7858 4.01393
781 1 -1.1104 6.63751 34.0171 3.9252
796 1 -1.1104 6.72047 33.9915 1.12918
797 2 2.2208 10.916 35.3762 5.41229
798 1 -1.1104 12.2384 31.2278 1.14587
799 1 -1.1104 12.3025 36.8695 1.21552
800 1 -1.1104 12.2034 31.2429 3.95215
801 1 -1.1104 12.2408 36.6818 3.93358
802 1 -1.1104 12.3476 33.9848 1.03904
803 2 2.2208 10.8757 32.655 2.57363
804 2 2.2208 10.8314 38.1979 2.50469
805 1 -1.1104 12.2718 34.0242 3.93092
806 1 -1.1104 9.53755 31.2315 1.16362
807 1 -1.1104 9.46687 36.8369 1.08641
808 2 2.2208 8.07882 35.4612 2.58645
809 1 -1.1104 9.42843 31.1827 3.88012
810 1 -1.1104 9.48702 36.7487 3.95009
811 2 2.2208 8.07468 32.6251 5.31157
812 2 2.2208 8.08141 38.1761 5.34952
813 1 -1.1104 9.56982 34.0644 1.15447
814 1 -1.1104 9.44555 34.0125 3.97909