ITEM: TIMESTEP
100000
ITEM: NUMBER OF ATOMS
17820
ITEM: BOX BOUNDS pp pp pp
-4.3523153676955212e-01 2.7775231536769414e+01
-5.3740495267338275e+00 3.3345404952671907e+02
-4.4583409925269490e-01 2.7785834099252988e+01
ITEM: ATOMS id type q x y z
1 2 2.2208 5.41057 0.445902 5.34833
2 1 -1.1104 1.12091 -4.17618 1.06213
6 1 -1.1104 1.25748 -3.80029 3.72622
10 1 -1.1104 1.00153 -1.22507 0.969442
12 2 2.2208 5.39173 -2.58394 2.55469
14 1 -1.1104 1.09614 -0.994303 3.70982
16 1 -1.1104 3.81682 -3.89419 0.876754
18 2 2.2208 2.81004 0.163771 2.58546
19 1 -1.1104 3.83193 -3.98742 3.75173
21 2 2.2208 2.35729 -2.57029 5.20137
23 1 -1.1104 3.98701 -1.09388 0.933942
24 1 -1.1104 4.06775 -1.20069 4.11176
4 1 -1.1104 6.48914 -4.03907 1.291
166 1 -1.1104 0.95008 -4.21297 6.50043
11 1 -1.1104 6.463 -0.84047 1.30574
199 2 2.2208 -0.394644 3.17735 8.16022
556 2 2.2208 10.9142 14.4347 13.6718
202 2 2.2208 2.58739 -5.33027 7.91444
26 2 2.2208 2.41317 17.0878 13.6326
83 2 2.2208 -0.31549 11.5529 5.28599
709 2 2.2208 5.56489 5.88622 -0.409272
136 2 2.2208 -0.112912 19.8324 2.49499
231 2 2.2208 8.17414 -5.34779 8.06545
15 1 -1.1104 6.93336 -1.05473 3.76644
8 1 -1.1104 6.81518 -3.96073 3.94081
31 2 2.2208 10.8645 0.135195 5.1358
32 1 -1.1104 12.3419 -3.91263 1.30303
34 1 -1.1104 12.6478 -4.00546 4.08133
36 1 -1.1104 12.331 -1.00041 1.23451
37 2 2.2208 10.958 -2.53206 2.47514
39 1 -1.1104 12.3519 -1.29134 3.96765
40 1 -1.1104 9.40543 -4.17911 0.818531
42 2 2.2208 8.09762 0.424308 2.34355
43 1 -1.1104 9.75026 -3.99117 3.75315
45 2 2.2208 8.00939 -2.44862 5.18164
47 1 -1.1104 9.76636 -0.826488 1.18961
48 1 -1.1104 9.53736 -1.1853 3.99655
205 1 -1.1104 12.3426 -4.1334 6.84665
208 1 -1.1104 9.45627 -4.07826 6.43903
207 1 -1.1104 12.4488 -1.28762 6.72496
210 1 -1.1104 9.54225 -1.13424 6.64985
201 2 2.2208 -0.331024 0.176384 10.9077
29 2 2.2208 5.49484 -5.19664 5.19664
586 2 2.2208 10.8362 17.0329 -0.43515
230 2 2.2208 13.6273 -2.69038 11.0799
3 1 -1.1104 1.07487 1.60106 1.02451
7 1 -1.1104 1.05003 1.80676 3.89832
13 2 2.2208 5.18657 3.21973 2.38087
17 1 -1.1104 3.75613 1.66092 1.04104
20 1 -1.1104 4.01126 1.41138 3.91651
22 2 2.2208 2.36106 3.19277 5.33463
54 2 2.2208 5.16464 5.95653 5.29062
56 1 -1.1104 0.974543 7.42098 1.05799
58 1 -1.1104 1.03268 7.3923 4.09771
60 1 -1.1104 0.980509 4.63629 0.779055
67 1 -1.1104 1.11327 4.50397 3.64615
71 1 -1.1104 4.0669 7.45496 0.952568
72 2 2.2208 2.46942 6.0598 2.33757
76 1 -1.1104 3.83211 4.55432 1.04279
79 1 -1.1104 3.89583 4.31587 4.08354
74 1 -1.1104 3.81514 7.4093 3.72079
239 1 -1.1104 3.7708 4.64931 6.77945
137 2 2.2208 -0.35752 17.1515 5.25127
8408 2 2.2208 -0.340264 -5.33841 10.6785
173 1 -1.1104 3.80678 1.87562 6.68704
347 2 2.2208 5.43919 0.187977 -0.355804
336 2 2.2208 13.641 20.0415 5.29962
237 1 -1.1104 6.73471 4.55697 6.72109
59 1 -1.1104 6.7836 7.30937 3.98382
63 1 -1.1104 6.98349 4.34224 0.971362
57 1 -1.1104 6.78551 7.33583 1.16161
5 1 -1.1104 6.69978 1.82039 0.931622
9 1 -1.1104 6.55032 1.79619 3.71729
69 1 -1.1104 6.53984 4.623 3.82567
33 1 -1.1104 12.4478 1.84791 1.19644
35 1 -1.1104 12.2141 1.65434 3.74963
38 2 2.2208 10.9638 3.22185 2.43448
41 1 -1.1104 9.47832 2.00791 1.11631
44 1 -1.1104 9.52889 1.60944 3.77779
46 2 2.2208 8.15187 3.16352 5.3873
84 2 2.2208 11.101 6.00716 5.40989
87 1 -1.1104 12.4072 7.14701 3.85218
88 1 -1.1104 12.3906 4.45345 1.00535
92 1 -1.1104 12.5121 4.50749 3.83302
95 2 2.2208 8.11427 5.89987 2.58441
99 1 -1.1104 9.66173 4.60459 0.805652
102 1 -1.1104 9.49568 4.47547 3.76721
94 1 -1.1104 9.51275 7.409 1.32491
97 1 -1.1104 9.55125 7.32964 4.12266
267 1 -1.1104 9.70595 7.31597 6.83713
9095 2 2.2208 -0.231706 0.273539 5.14182
265 1 -1.1104 12.4477 7.19557 6.70931
266 1 -1.1104 12.468 4.45726 6.74705
710 2 2.2208 8.03533 3.02171 -0.332331
30 2 2.2208 2.66194 14.1897 -0.421223
55 2 2.2208 5.33345 11.4613 5.28674
61 1 -1.1104 0.806674 10.1537 1.03923
66 2 2.2208 5.4486 8.69609 2.53346
68 1 -1.1104 1.32638 10.235 3.84822
73 2 2.2208 2.46671 11.4244 2.4733
75 2 2.2208 2.42934 8.92493 5.30782
77 1 -1.1104 3.68544 10.077 0.972651
80 1 -1.1104 4.15905 10.2418 3.75958
107 1 -1.1104 1.06981 12.9599 1.20745
113 1 -1.1104 0.954085 13.0821 3.84034
123 1 -1.1104 3.9475 12.8382 1.13935
128 1 -1.1104 3.81517 12.8246 4.02271
108 1 -1.1104 0.996203 12.99 6.81315
124 1 -1.1104 3.70915 13.1992 6.8905
62 1 -1.1104 0.964165 10.2272 6.71501
64 1 -1.1104 6.67691 10.1179 1.1812
105 2 2.2208 13.6421 5.94086 2.30958
111 1 -1.1104 6.73429 12.7762 6.77042
9094 2 2.2208 -0.240714 -2.65408 2.35002
668 2 2.2208 11.0773 11.6551 -0.414069
86 1 -1.1104 12.2674 7.26052 1.01242
8415 2 2.2208 10.9718 -5.20367 -0.177317
70 1 -1.1104 6.96405 10.0492 3.82731
110 1 -1.1104 6.70773 13.0462 1.41006
115 1 -1.1104 6.7601 12.8263 4.05127
85 2 2.2208 10.9518 11.5548 5.24433
89 1 -1.1104 12.1904 10.1122 1.17128
91 2 2.2208 11.0092 8.61837 2.39174
93 1 -1.1104 12.2883 10.0164 4.09393
96 2 2.2208 8.13525 11.5269 2.4098
98 2 2.2208 8.19696 8.72525 5.36562
100 1 -1.1104 9.56572 10.1437 0.977301
103 1 -1.1104 9.54036 9.99428 3.74861
142 1 -1.1104 12.4983 12.9188 1.0619
146 1 -1.1104 12.3326 12.8704 3.82246
153 1 -1.1104 9.50414 12.9062 1.0529
158 1 -1.1104 9.60166 13.0565 3.92635
356 2 2.2208 8.04864 14.4439 -0.283158
349 2 2.2208 2.45581 -2.53394 -0.461918
317 2 2.2208 8.06914 14.3267 10.8038
130 2 2.2208 2.3717 14.3518 5.21512
119 2 2.2208 5.0697 14.3275 2.57403
106 2 2.2208 5.19238 17.2615 5.2708
109 1 -1.1104 0.989089 18.3957 1.14218
114 1 -1.1104 1.14729 18.3996 3.90198
116 1 -1.1104 0.969673 15.7411 1.06357
120 2 2.2208 5.36097 19.9666 2.39126
121 1 -1.1104 0.966396 15.7057 4.07374
125 1 -1.1104 3.74589 18.7168 1.08511
127 2 2.2208 2.44705 17.1041 2.33455
129 1 -1.1104 3.93787 18.6235 3.87481
131 2 2.2208 2.51412 19.9201 5.38407
132 1 -1.1104 3.79443 15.6253 1.02492
134 1 -1.1104 3.7245 15.7761 3.68591
133 1 -1.1104 3.779 15.9702 6.4756
51 2 2.2208 8.28896 -5.30223 2.48152
302 1 -1.1104 0.832555 18.5808 6.76553
117 1 -1.1104 1.06318 15.8294 6.65193
140 1 -1.1104 6.93568 15.8465 0.957867
122 1 -1.1104 6.37887 15.7681 4.07564
118 1 -1.1104 6.71797 15.8664 6.8353
325 2 2.2208 10.9852 14.3462 8.07881
529 2 2.2208 5.21069 20.0346 13.6119
138 1 -1.1104 6.60029 18.5723 1.04123
139 1 -1.1104 6.61924 18.3749 3.90135
160 2 2.2208 8.01935 14.5116 5.52685
150 2 2.2208 10.8255 14.2947 2.55984
141 2 2.2208 10.9473 17.1791 5.36235
144 1 -1.1104 12.2264 18.4532 0.977398
147 1 -1.1104 12.2103 18.5193 3.71342
148 1 -1.1104 12.3396 15.6601 0.881926
151 2 2.2208 10.8998 20.0774 2.49442
152 1 -1.1104 12.405 15.6287 3.84177
155 1 -1.1104 9.44613 18.5476 1.16653
157 2 2.2208 8.34602 17.272 2.42026
159 1 -1.1104 9.50899 18.6489 3.851
161 2 2.2208 8.09358 20.0103 5.11606
162 1 -1.1104 9.6037 15.7842 1.07031
164 1 -1.1104 9.37604 15.6931 3.9241
326 1 -1.1104 12.4807 15.7108 12.2063
204 2 2.2208 -0.394331 5.98496 11.0319
352 2 2.2208 2.49438 8.72308 -0.296241
590 2 2.2208 8.16848 20.1324 -0.355534
306 1 -1.1104 6.82677 15.6658 12.3161
174 1 -1.1104 3.74411 -1.07083 6.73272
170 1 -1.1104 1.04937 -1.05417 6.71789
324 2 2.2208 10.9882 19.8564 8.14506
289 1 -1.1104 6.49772 15.73 9.58202
172 1 -1.1104 3.693 -3.71665 6.68552
175 2 2.2208 5.25442 0.353024 11.0537
176 1 -1.1104 1.19476 -4.05305 12.217
180 1 -1.1104 0.95581 -3.59377 9.52667
184 1 -1.1104 1.08575 -1.15741 12.3861
186 2 2.2208 5.13769 -2.4305 8.10606
188 1 -1.1104 1.18819 -1.06121 9.38965
190 1 -1.1104 3.89835 -3.98876 12.417
192 2 2.2208 2.55264 0.317322 8.00659
193 1 -1.1104 3.71338 -3.83194 9.53702
195 2 2.2208 2.5162 -2.57746 10.9705
197 1 -1.1104 4.00058 -1.15669 12.3671
198 1 -1.1104 4.14594 -0.993094 9.53724
351 2 2.2208 -0.195514 14.2831 13.5875
178 1 -1.1104 6.3385 -4.17161 12.572
171 1 -1.1104 6.60652 -0.939524 6.71606
168 1 -1.1104 6.70964 -3.77562 6.70448
607 2 2.2208 10.9896 0.444914 -0.089248
185 1 -1.1104 6.59831 -1.0676 12.4101
182 1 -1.1104 6.50043 -3.89827 9.64294
189 1 -1.1104 6.74795 -1.14169 9.42215
211 2 2.2208 10.8712 0.278009 10.8618
212 1 -1.1104 12.2919 -4.1807 12.4699
214 1 -1.1104 12.1239 -3.91063 9.63256
216 1 -1.1104 12.3453 -1.40469 12.438
217 2 2.2208 10.7254 -2.5179 8.0752
219 1 -1.1104 12.3273 -1.02969 9.70283
220 1 -1.1104 9.13447 -3.91004 12.2372
222 2 2.2208 8.12206 0.334681 8.12083
223 1 -1.1104 9.43851 -3.97575 9.38719
225 2 2.2208 7.87447 -2.48295 11.0345
227 1 -1.1104 9.23764 -1.14157 12.4115
228 1 -1.1104 9.45245 -0.981924 9.63313
320 2 2.2208 8.05718 17.2776 8.18946
167 1 -1.1104 1.00008 1.76856 6.49736
236 1 -1.1104 0.875256 4.61718 6.92632
296 1 -1.1104 6.63357 18.3849 12.3775
323 1 -1.1104 12.2455 15.692 9.36473
238 1 -1.1104 3.8675 7.38174 6.61476
177 1 -1.1104 1.16361 1.52377 12.0418
181 1 -1.1104 1.0563 1.66344 9.28874
187 2 2.2208 5.178 3.23683 8.18229
191 1 -1.1104 3.79237 1.64933 12.3991
194 1 -1.1104 3.85579 1.80428 9.69582
196 2 2.2208 2.33726 3.06867 10.8791
240 2 2.2208 5.30417 5.97436 11.1365
242 1 -1.1104 0.922337 7.14875 12.4396
246 1 -1.1104 1.15598 4.42525 12.6307
251 1 -1.1104 1.09952 4.60049 9.78735
256 2 2.2208 2.40127 5.96654 8.2662
260 1 -1.1104 3.70524 4.6347 12.4549
262 1 -1.1104 3.82345 4.52147 9.47012
244 1 -1.1104 1.03996 7.17459 9.54363
258 1 -1.1104 3.70355 7.46545 9.54864
255 1 -1.1104 3.91545 7.48502 12.4244
234 1 -1.1104 1.23069 7.48242 7.08004
179 1 -1.1104 6.53333 1.85377 12.3575
316 2 2.2208 8.07636 19.9838 11.0507
269 1 -1.1104 9.55865 4.62142 6.57941
235 1 -1.1104 6.68986 7.30742 6.79818
169 1 -1.1104 6.68525 1.87603 6.74153
209 1 -1.1104 9.68101 1.81675 6.43199
206 1 -1.1104 12.4551 1.63769 6.6385
253 1 -1.1104 6.65495 4.73096 9.50852
183 1 -1.1104 6.71483 1.65415 9.62979
248 1 -1.1104 6.73386 4.70418 12.2887
245 1 -1.1104 6.67914 7.33101 9.66874
243 1 -1.1104 6.6629 7.42073 12.5574
213 1 -1.1104 12.4367 1.71423 12.3681
215 1 -1.1104 12.3391 1.58694 9.22333
218 2 2.2208 10.9308 3.10089 8.06868
221 1 -1.1104 9.49849 1.70719 12.1425
224 1 -1.1104 9.40237 1.80547 9.50654
226 2 2.2208 8.08508 3.2374 10.8301
268 1 -1.1104 9.55833 4.74154 9.6166
271 1 -1.1104 9.4287 4.38607 12.2669
273 1 -1.1104 9.55367 7.43665 9.49263
275 2 2.2208 8.16523 6.09389 8.11214
276 2 2.2208 11.0382 5.71457 10.981
280 1 -1.1104 12.4823 4.41337 12.3969
283 1 -1.1104 12.3818 4.22625 9.51407
279 1 -1.1104 12.439 7.0201 9.64001
278 1 -1.1104 12.1805 7.09372 12.3111
285 1 -1.1104 9.43909 7.1265 12.2952
327 1 -1.1104 12.4143 18.6394 9.63681
318 1 -1.1104 9.30128 18.6097 9.55683
468 2 2.2208 10.9764 8.70082 13.5763
78 1 -1.1104 4.0382 10.2013 6.7812
241 2 2.2208 5.13034 11.5322 10.9861
247 1 -1.1104 0.958566 10.0111 12.4421
250 2 2.2208 5.24066 8.59349 8.14278
252 1 -1.1104 0.986291 10.1637 9.57475
257 2 2.2208 2.50625 11.4644 8.06065
259 2 2.2208 2.40272 8.62528 11.0687
261 1 -1.1104 4.0098 10.1315 12.328
263 1 -1.1104 3.81829 10.1781 9.4849
287 1 -1.1104 4.0573 13.2492 12.2366
294 1 -1.1104 0.965968 12.9133 9.73201
299 1 -1.1104 1.2503 12.8448 12.1353
305 1 -1.1104 3.84159 12.8985 9.58921
290 1 -1.1104 6.63693 12.9809 9.65472
25 2 2.2208 5.51182 11.6629 -0.319581
321 1 -1.1104 9.66874 18.4387 12.3517
65 1 -1.1104 6.5448 10.0865 6.82827
154 1 -1.1104 9.55758 12.8014 6.61768
156 1 -1.1104 9.54489 18.5644 6.72274
249 1 -1.1104 6.60744 10.0348 12.4806
90 1 -1.1104 12.518 10.2026 6.8527
101 1 -1.1104 9.677 9.79628 6.67194
143 1 -1.1104 12.1554 13.0072 6.60413
254 1 -1.1104 6.6896 10.2986 9.5027
297 1 -1.1104 6.71413 12.9954 12.5149
330 1 -1.1104 12.3451 13.1328 12.3966
328 1 -1.1104 12.3966 12.8118 9.53388
322 1 -1.1104 9.46935 12.862 12.1942
319 1 -1.1104 9.3804 13.0565 9.52549
264 1 -1.1104 9.57834 10.2054 9.52623
270 1 -1.1104 9.84379 10.041 12.3778
272 2 2.2208 8.07991 8.69435 10.9644
274 2 2.2208 8.12347 11.5033 8.26378
277 2 2.2208 11.0865 11.5783 10.886
281 1 -1.1104 12.5566 9.92275 12.2951
282 2 2.2208 11.1402 8.49194 8.02823
284 1 -1.1104 12.4638 9.83698 9.50333
9096 2 2.2208 -0.316141 3.11206 2.2523
126 1 -1.1104 3.8016 18.8363 6.91574
288 1 -1.1104 6.72161 18.8962 9.59277
331 2 2.2208 10.8597 17.0302 10.9552
295 2 2.2208 5.06884 14.241 8.28248
308 1 -1.1104 3.71802 15.7137 12.1479
307 1 -1.1104 1.15015 15.9186 12.1478
310 2 2.2208 2.42982 14.3469 10.6855
309 2 2.2208 2.36513 19.8042 11.0707
286 1 -1.1104 3.89483 18.5019 12.2392
291 1 -1.1104 0.925666 18.6466 9.55986
292 1 -1.1104 0.897495 15.7692 9.47737
293 2 2.2208 5.23998 19.9743 8.19579
298 1 -1.1104 0.825164 18.6233 12.4629
300 2 2.2208 5.15202 17.2112 10.8131
301 1 -1.1104 3.72342 18.5528 9.5401
303 2 2.2208 2.50054 17.0606 8.10317
304 1 -1.1104 3.77573 15.6832 9.3567
329 1 -1.1104 12.195 18.4843 12.4981
315 1 -1.1104 9.51783 15.7477 12.389
112 1 -1.1104 6.7722 18.5482 6.68319
314 1 -1.1104 9.52579 15.9639 9.40332
145 1 -1.1104 12.2555 18.4705 6.60462
163 1 -1.1104 9.65305 15.7371 6.67341
149 1 -1.1104 12.3104 15.904 6.70889
81 2 2.2208 -0.277824 5.95273 5.27151
611 2 2.2208 13.5857 3.14149 -0.29043
313 2 2.2208 -0.364038 14.334 7.96885
340 2 2.2208 13.6468 11.4327 8.18852
667 2 2.2208 8.26243 8.62605 -0.192338
200 2 2.2208 -0.274966 -2.48567 8.07907
165 2 2.2208 13.6015 17.0812 2.30969
430 2 2.2208 10.9751 3.02121 13.5945
467 2 2.2208 8.02607 11.4241 13.6721
361 2 2.2208 5.55957 0.400567 16.3477
365 1 -1.1104 1.07385 -4.08771 15.0255
372 1 -1.1104 0.698711 -3.69914 17.7869
375 1 -1.1104 0.958011 -1.3032 15.3527
380 2 2.2208 2.33003 0.319561 19.5605
381 1 -1.1104 3.91058 -3.96252 15.522
384 2 2.2208 2.14499 -2.76509 16.6244
386 1 -1.1104 1.4434 -1.11202 18.125
387 1 -1.1104 3.79617 -1 15.5106
376 1 -1.1104 0.928171 -1.14081 21.0911
377 1 -1.1104 6.53759 -1.16603 15.207
388 1 -1.1104 3.64575 -1.1417 20.7291
373 1 -1.1104 6.8985 -0.954113 17.8519
363 1 -1.1104 6.6916 -4.09016 17.9494
9354 2 2.2208 -0.149855 0.156622 16.7331
698 2 2.2208 -0.324656 14.2569 25.2015
344 2 2.2208 2.36249 0.345478 13.846
358 2 2.2208 10.8786 5.75121 27.6638
8473 2 2.2208 5.36195 -5.24187 22.1194
612 2 2.2208 -0.0882396 14.3678 19.3082
424 2 2.2208 7.96839 -5.262 19.4012
368 1 -1.1104 6.76054 -4.26949 15.2147
398 2 2.2208 11.115 0.455739 16.4665
399 1 -1.1104 12.3176 -4.06626 17.9993
401 1 -1.1104 12.1666 -4.15163 15.1574
405 1 -1.1104 12.4684 -0.939383 17.7689
406 2 2.2208 10.9764 -2.66695 19.3094
408 1 -1.1104 12.2334 -1.38644 15.1522
410 1 -1.1104 9.53344 -3.97538 17.9916
412 2 2.2208 8.06016 0.311073 19.2797
413 1 -1.1104 9.41142 -4.09215 15.074
417 2 2.2208 8.03792 -2.58762 16.7667
419 1 -1.1104 9.66468 -1.20426 17.8608
420 1 -1.1104 9.36752 -1.25082 15.2487
409 1 -1.1104 11.9134 -1.03546 20.4139
421 1 -1.1104 8.82744 -1.29674 20.8018
353 2 2.2208 5.16469 -2.54129 14.043
8471 2 2.2208 10.9055 -5.36394 22.38
345 2 2.2208 2.54527 11.5408 13.684
9133 2 2.2208 13.5529 5.7874 24.9754
379 1 -1.1104 3.71829 1.2174 17.7959
362 1 -1.1104 0.999894 1.69343 18.1667
366 1 -1.1104 1.06832 1.66903 15.2468
374 2 2.2208 4.91249 3.01614 19.5635
382 1 -1.1104 3.87302 1.81405 15.1388
385 2 2.2208 2.52206 3.09488 16.7642
431 2 2.2208 5.34603 5.86512 16.7993
439 1 -1.1104 1.40555 4.38405 18.1978
444 1 -1.1104 1.15205 4.43202 15.4988
453 2 2.2208 2.32967 5.98435 19.5791
455 1 -1.1104 3.8402 7.47929 15.4914
458 1 -1.1104 4.0166 4.54983 18.1019
460 1 -1.1104 3.8814 4.53678 15.2673
435 1 -1.1104 1.13186 7.36449 15.0952
452 1 -1.1104 3.88059 7.28088 18.0088
433 1 -1.1104 0.85758 7.22703 18.1504
461 1 -1.1104 3.38559 4.29865 20.7722
445 1 -1.1104 1.00372 4.56994 21.0097
436 1 -1.1104 0.960278 7.40981 20.7864
708 2 2.2208 2.38213 5.81591 13.9618
456 1 -1.1104 3.68617 7.1664 20.9105
609 2 2.2208 13.5908 -5.09683 25.0626
8469 2 2.2208 7.96156 -5.18669 25.2871
370 1 -1.1104 6.72345 1.7689 15.1052
437 1 -1.1104 6.50767 7.24645 15.2793
434 1 -1.1104 6.76372 7.46168 18.2559
448 1 -1.1104 6.84164 4.4929 15.1583
371 1 -1.1104 6.55433 1.46487 20.6777
364 1 -1.1104 6.53339 1.85472 17.9099
449 1 -1.1104 6.32248 4.39488 20.9222
441 1 -1.1104 6.84599 4.60473 18.0062
400 1 -1.1104 12.2793 1.89107 17.9798
403 1 -1.1104 12.3443 1.93215 15.1265
407 2 2.2208 10.866 3.23778 19.3648
411 1 -1.1104 9.54533 1.63855 17.8144
415 1 -1.1104 9.62493 1.55048 14.9822
418 2 2.2208 8.18433 3.06551 16.3846
469 2 2.2208 11.0099 6.15955 16.5088
472 1 -1.1104 12.3035 7.43001 15.1361
474 1 -1.1104 12.3197 4.6003 17.8973
477 1 -1.1104 12.5348 4.60811 15.2062
482 2 2.2208 8.1917 5.83391 19.2902
487 1 -1.1104 9.71711 4.56851 17.6864
489 1 -1.1104 9.58607 4.42774 14.9761
471 1 -1.1104 12.23 7.37651 17.934
481 1 -1.1104 9.33012 7.40534 17.9292
484 1 -1.1104 9.48087 7.25312 15.2346
404 1 -1.1104 12.2334 1.70999 20.7446
490 1 -1.1104 9.27937 4.59978 20.7612
485 1 -1.1104 9.53422 7.56675 20.7989
473 1 -1.1104 12.381 7.28829 20.8375
432 2 2.2208 5.29682 11.5244 16.6114
440 1 -1.1104 1.036 10.198 17.9204
443 2 2.2208 5.24647 8.89613 19.4499
446 1 -1.1104 1.06415 10.2513 15.1527
454 2 2.2208 2.42286 11.5441 19.3132
457 2 2.2208 2.46336 8.73875 16.6235
459 1 -1.1104 3.8325 10.0751 18.1242
462 1 -1.1104 3.70656 10.3179 15.3075
496 1 -1.1104 1.26242 13.0312 18.001
500 1 -1.1104 1.14324 13.0575 15.0499
516 1 -1.1104 4.09199 12.8391 18.0468
519 1 -1.1104 3.93506 13.1256 14.9984
447 1 -1.1104 1.01469 10.3444 20.7108
646 2 2.2208 -0.334151 8.87769 25.0582
557 2 2.2208 11.0857 19.9802 13.8666
647 2 2.2208 -0.317915 11.7989 22.1945
450 1 -1.1104 6.59042 9.96446 15.1807
504 1 -1.1104 6.8711 12.9267 15.136
498 1 -1.1104 6.89207 13.1161 17.9022
442 1 -1.1104 6.74644 10.2298 17.9357
470 2 2.2208 10.8773 11.4482 16.7414
475 1 -1.1104 12.3639 10.1503 17.9423
476 2 2.2208 10.8502 8.76917 19.3651
479 1 -1.1104 12.2505 10.1632 14.973
483 2 2.2208 8.17547 11.5243 19.4501
486 2 2.2208 8.14274 8.86245 16.7661
488 1 -1.1104 9.60023 10.0335 17.973
491 1 -1.1104 9.39061 10.1722 15.2957
533 1 -1.1104 12.3016 12.9245 18.1602
535 1 -1.1104 12.3953 13.071 15.307
544 1 -1.1104 9.35575 12.7621 18.1388
547 1 -1.1104 9.87908 12.8786 15.1395
480 1 -1.1104 12.546 10.3038 20.7291
510 2 2.2208 5.37972 14.5161 19.4835
523 2 2.2208 2.61988 14.2395 16.4793
495 2 2.2208 5.22141 17.2077 16.668
497 1 -1.1104 1.12486 18.49 18.1737
502 1 -1.1104 0.932871 18.5142 15.1981
508 1 -1.1104 1.12016 15.6113 17.6452
511 2 2.2208 5.49013 20.1505 19.2485
512 1 -1.1104 1.08226 15.8625 15.0302
517 1 -1.1104 4.01214 18.4463 18.0673
518 2 2.2208 2.5466 17.0947 19.3215
521 1 -1.1104 3.9844 18.5398 15.0769
524 2 2.2208 2.60142 19.9341 16.5296
525 1 -1.1104 3.7727 15.5066 18.0408
526 1 -1.1104 3.81481 15.7579 14.9881
503 1 -1.1104 1.09916 18.2069 20.8998
522 1 -1.1104 4.08546 18.5621 20.8535
527 1 -1.1104 4.13177 15.5864 20.8626
515 1 -1.1104 6.94754 15.7309 20.9463
499 1 -1.1104 6.68488 18.6741 17.7313
584 2 2.2208 -0.317281 11.6424 16.5626
346 2 2.2208 -0.266281 3.03722 13.7462
513 1 -1.1104 1.43962 15.5524 20.6455
360 2 2.2208 5.47005 17.1329 27.6895
355 2 2.2208 5.31944 8.65594 14.0269
506 1 -1.1104 6.64959 18.4686 15.134
514 1 -1.1104 6.83266 15.8385 15.302
509 1 -1.1104 6.61003 15.946 18.0853
551 2 2.2208 8.25219 14.313 16.595
540 2 2.2208 10.8712 14.3198 19.5338
532 2 2.2208 11.0434 17.1507 16.5557
534 1 -1.1104 12.4352 18.8132 17.8736
537 1 -1.1104 12.4885 18.6194 15.1099
539 1 -1.1104 12.3121 15.9678 17.8218
541 2 2.2208 11.0584 19.9859 19.1737
542 1 -1.1104 12.5809 15.8194 14.8996
545 1 -1.1104 9.48047 18.5645 18.1422
546 2 2.2208 8.14825 17.1838 19.2498
549 1 -1.1104 9.53825 18.4304 15.2364
552 2 2.2208 8.21247 19.9914 16.4449
553 1 -1.1104 9.49757 15.6147 18.0414
554 1 -1.1104 9.69551 15.777 15.1098
589 2 2.2208 -0.328914 17.1972 16.4535
616 2 2.2208 13.6021 0.370152 24.9463
700 2 2.2208 -0.267068 19.9709 24.8115
645 2 2.2208 13.554 0.313989 19.3592
8599 1 -1.1104 0.907165 -3.99771 20.8717
394 2 2.2208 13.6717 8.85402 22.1089
615 2 2.2208 13.6464 -2.58845 22.2722
8760 1 -1.1104 3.66492 -3.92107 26.2175
558 2 2.2208 5.10967 0.267009 22.2655
559 1 -1.1104 1.15683 -4.19808 23.7702
563 1 -1.1104 0.854502 -3.74832 26.38
566 1 -1.1104 0.94314 -1.04707 23.5973
568 2 2.2208 5.2955 -2.6428 25.0451
570 1 -1.1104 0.995904 -1.12754 26.4364
571 1 -1.1104 3.94499 -3.83148 23.2254
573 2 2.2208 2.43186 0.18287 25.2162
576 2 2.2208 2.42033 -2.42013 22.3468
578 1 -1.1104 3.83916 -0.921754 23.6885
579 1 -1.1104 3.69374 -1.21323 26.3701
531 2 2.2208 8.0265 17.149 13.8342
402 1 -1.1104 12.3045 -3.80395 20.6755
414 1 -1.1104 9.56604 -4.00967 20.8404
574 1 -1.1104 6.30709 -4.08757 26.4697
378 1 -1.1104 6.58702 -1.10253 23.2454
369 1 -1.1104 6.52589 -3.85271 20.8252
606 1 -1.1104 6.59974 -1.18869 26.1845
567 1 -1.1104 6.7154 -3.98877 23.6394
561 1 -1.1104 9.52646 -4.30812 23.8544
592 2 2.2208 10.6563 0.130165 21.9961
593 1 -1.1104 12.3186 -3.75421 23.434
595 1 -1.1104 12.4307 -4.1284 26.77
597 1 -1.1104 12.5188 -0.635348 23.1092
599 1 -1.1104 12.3718 -1.0346 26.6911
601 2 2.2208 7.94911 0.20433 24.8046
603 2 2.2208 8.21743 -2.83872 22.2473
605 1 -1.1104 9.39039 -0.961867 23.3897
367 1 -1.1104 0.996731 1.67218 20.9999
383 1 -1.1104 3.68237 1.52522 20.8391
560 1 -1.1104 1.18427 1.90878 23.863
564 1 -1.1104 0.715251 1.61284 26.4028
569 2 2.2208 5.21193 3.18089 25.0465
572 1 -1.1104 3.95143 1.72281 23.6153
575 1 -1.1104 3.58076 1.57279 26.5551
577 2 2.2208 2.27366 3.17737 22.3712
617 2 2.2208 5.14526 5.97942 22.4427
619 1 -1.1104 0.983538 7.54787 23.7396
623 1 -1.1104 1.07641 4.70623 23.7595
628 1 -1.1104 0.923596 4.39418 26.5365
633 2 2.2208 2.37343 5.98303 25.1672
637 1 -1.1104 3.88101 4.57548 23.6854
639 1 -1.1104 3.77861 4.52542 26.4147
632 1 -1.1104 3.60822 7.40471 23.7785
635 1 -1.1104 4.33255 7.26084 26.4472
620 1 -1.1104 6.47925 7.22267 24.0724
621 1 -1.1104 1.18775 7.34349 26.4269
397 2 2.2208 5.28723 3.21985 13.7591
438 1 -1.1104 6.68767 7.37556 21.0822
478 1 -1.1104 12.1508 4.64872 20.5774
562 1 -1.1104 6.73244 1.64193 23.5389
602 1 -1.1104 9.56781 1.18038 26.5618
622 1 -1.1104 6.93705 7.31352 26.5044
625 1 -1.1104 6.7538 4.71511 23.6205
630 1 -1.1104 6.59066 4.38251 26.3745
416 1 -1.1104 9.50987 1.48789 20.7137
565 1 -1.1104 6.6434 1.53896 26.2933
594 1 -1.1104 12.2463 1.7918 23.7465
596 1 -1.1104 12.3222 1.88205 26.5821
598 2 2.2208 10.6907 2.87982 24.9651
600 1 -1.1104 9.35201 1.49545 23.5462
604 2 2.2208 7.94075 2.94188 22.1527
649 1 -1.1104 9.4624 4.30218 26.2783
651 1 -1.1104 9.27986 4.40248 23.3978
653 1 -1.1104 9.54939 7.17548 26.6007
655 2 2.2208 8.17641 5.84512 24.9134
656 2 2.2208 10.9121 5.88926 22.2323
660 1 -1.1104 12.0221 4.67021 23.6497
663 1 -1.1104 12.1419 4.50356 26.417
665 1 -1.1104 9.62664 7.12884 23.7657
659 1 -1.1104 12.322 7.3308 26.3652
658 1 -1.1104 12.2119 7.41838 23.5136
501 1 -1.1104 1.15501 13.0229 20.812
520 1 -1.1104 3.97343 12.6857 20.6964
463 1 -1.1104 3.94856 10.0759 20.9291
357 2 2.2208 -0.380412 20.0225 13.6904
618 2 2.2208 5.37839 11.5101 22.3479
624 1 -1.1104 1.03626 10.3309 23.611
627 2 2.2208 5.4107 8.735 25.1261
629 1 -1.1104 1.05756 10.0863 26.5224
634 2 2.2208 2.53006 11.4537 25.1407
636 2 2.2208 2.35522 8.76398 22.3008
638 1 -1.1104 3.908 10.1299 23.6673
640 1 -1.1104 3.99084 10.1497 26.5621
674 1 -1.1104 3.93284 12.8635 23.7553
678 1 -1.1104 1.0201 13.0207 26.6664
684 1 -1.1104 1.12505 13.0263 23.7812
689 1 -1.1104 4.0331 13.1125 26.4836
390 2 2.2208 -0.256418 6.15325 22.2738
505 1 -1.1104 6.87693 12.9427 20.9471
536 1 -1.1104 12.3267 13.0494 20.9394
591 2 2.2208 11.0853 17.38 21.9672
492 1 -1.1104 9.63995 10.1202 20.8797
451 1 -1.1104 6.70732 10.1581 20.887
548 1 -1.1104 9.54526 12.7605 20.7516
682 1 -1.1104 6.66288 12.9888 23.707
626 1 -1.1104 6.79462 10.0553 23.6288
673 1 -1.1104 6.76016 12.952 26.4769
631 1 -1.1104 6.7156 10.2778 26.4339
707 1 -1.1104 9.69172 13.0081 26.5444
422 1 -1.1104 12.4125 13.0348 26.27
528 1 -1.1104 12.5033 13.0462 23.5144
648 1 -1.1104 9.70648 10.0737 26.4064
650 1 -1.1104 9.44586 10.1318 23.8989
652 2 2.2208 8.12871 8.74255 22.3027
654 2 2.2208 8.27714 11.4823 25.1962
657 2 2.2208 11.0304 11.5195 22.1377
661 1 -1.1104 12.254 10.2551 23.4657
662 2 2.2208 11.0741 8.66224 24.9855
664 1 -1.1104 12.4852 10.219 26.3847
587 1 -1.1104 9.76278 13.0629 23.6804
643 2 2.2208 -0.380548 3.04886 19.4443
582 2 2.2208 -0.295421 5.82883 16.5675
507 1 -1.1104 6.99106 18.6667 20.6493
429 2 2.2208 10.8219 -2.60629 13.9604
425 2 2.2208 10.9603 14.6951 24.9817
679 1 -1.1104 6.82767 18.7709 23.5128
681 2 2.2208 5.25298 14.3373 24.974
694 2 2.2208 2.45678 14.2565 22.2474
693 2 2.2208 2.44883 19.8992 22.2066
672 1 -1.1104 4.11197 18.3299 23.7151
676 1 -1.1104 1.0851 18.6491 26.3036
677 1 -1.1104 1.09127 15.8038 26.2307
680 2 2.2208 5.2756 20.0058 24.9427
683 1 -1.1104 1.17103 18.6619 23.6737
685 2 2.2208 5.35431 17.1744 22.2082
686 1 -1.1104 3.95055 18.6974 26.3636
687 2 2.2208 2.50506 17.1237 24.9808
688 1 -1.1104 3.93987 15.8864 26.3813
691 1 -1.1104 0.867972 15.7454 23.5861
692 1 -1.1104 3.6566 15.6655 23.722
696 1 -1.1104 6.8571 18.7083 26.1698
675 1 -1.1104 6.79111 15.8097 26.3066
704 2 2.2208 8.11773 19.9922 22.1057
703 1 -1.1104 9.61455 15.8285 23.6226
543 1 -1.1104 12.4106 15.7412 20.4015
550 1 -1.1104 9.70818 18.4469 20.7871
538 1 -1.1104 12.415 18.8081 20.5148
395 1 -1.1104 12.3312 16.0915 23.4853
581 1 -1.1104 12.4138 15.7202 26.4401
671 1 -1.1104 12.4032 18.71 26.2838
644 1 -1.1104 12.395 18.8646 23.4722
706 1 -1.1104 9.57196 18.6316 26.6848
666 1 -1.1104 9.62674 18.6864 23.5734
465 2 2.2208 10.9497 20.1882 24.9318
695 2 2.2208 8.13718 17.4062 24.9643
690 1 -1.1104 6.57585 15.9243 23.6335
702 1 -1.1104 9.52677 15.9476 26.3178
555 1 -1.1104 9.69919 15.6298 20.883
705 2 2.2208 8.16054 14.2041 22.2755
701 2 2.2208 -0.332894 17.0928 22.1603
348 2 2.2208 -0.257218 8.7042 13.7415
585 2 2.2208 13.6607 3.03175 22.2637
423 2 2.2208 10.9286 -5.35276 16.6601
613 2 2.2208 -0.33327 19.8648 19.4638
9076 2 2.2208 -0.325826 -2.74081 13.8121
359 2 2.2208 2.48902 20.0884 27.6532
428 2 2.2208 7.9973 0.34326 13.7269
350 2 2.2208 2.29729 2.93415 27.701
494 2 2.2208 5.29557 14.5247 13.7043
493 2 2.2208 8.15912 5.80819 13.7615
27 2 2.2208 -0.219386 17.196 27.7185
711 2 2.2208 5.19855 22.8756 5.17808
713 1 -1.1104 1.09778 24.0959 0.840814
714 1 -1.1104 0.947267 24.0697 3.79423
715 1 -1.1104 0.913421 21.2563 0.912381
717 2 2.2208 5.43673 25.8753 2.25399
718 1 -1.1104 1.18255 21.3549 3.76022
720 1 -1.1104 3.98944 24.4295 0.806622
721 2 2.2208 2.59009 22.8478 2.37181
723 1 -1.1104 3.89307 24.48 3.67115
724 2 2.2208 2.53924 25.8257 5.1244
725 1 -1.1104 3.73856 21.5237 1.03815
727 1 -1.1104 3.82302 21.4018 3.84039
716 1 -1.1104 1.30349 26.8845 1.07074
728 1 -1.1104 4.05462 27.1353 3.77043
719 1 -1.1104 1.27962 26.8642 3.65389
732 1 -1.1104 6.8275 24.4173 1.04972
736 1 -1.1104 6.67698 21.3665 3.61631
726 1 -1.1104 4.10134 27.204 1.01979
859 1 -1.1104 3.99492 21.503 6.53371
852 1 -1.1104 1.1508 24.4547 6.63846
860 1 -1.1104 3.94662 26.9555 6.60792
1487 1 -1.1104 9.16325 46.7521 1.0485
1086 2 2.2208 2.32793 22.8858 13.4374
857 1 -1.1104 6.55023 27.0696 6.45176
733 1 -1.1104 6.63652 24.1834 3.6369
734 1 -1.1104 6.81564 21.4794 1.12855
737 1 -1.1104 6.65287 27.2274 3.64884
738 2 2.2208 10.8968 22.7414 5.36383
740 1 -1.1104 12.3033 24.0585 1.02028
741 1 -1.1104 12.2003 24.5287 3.73702
742 1 -1.1104 12.3168 21.3039 1.11078
744 2 2.2208 10.93 25.7472 2.48939
745 1 -1.1104 12.2813 21.4714 3.8021
747 1 -1.1104 9.69235 24.1253 1.00704
748 2 2.2208 8.09248 22.9235 2.55306
750 1 -1.1104 9.51673 24.2291 3.96467
751 2 2.2208 8.12691 25.5295 5.02958
752 1 -1.1104 9.54497 21.4125 0.933812
754 1 -1.1104 9.55382 21.5477 3.8583
886 1 -1.1104 12.3 21.3608 6.80962
746 1 -1.1104 12.2878 27.105 4.0808
743 1 -1.1104 12.3359 27.2604 0.790205
887 1 -1.1104 12.2244 26.9698 6.62428
853 1 -1.1104 6.7615 24.3257 6.60148
735 1 -1.1104 6.9127 27.2364 0.73734
753 1 -1.1104 9.62227 26.9429 0.924639
758 2 2.2208 13.6561 25.6031 5.08492
10061 2 2.2208 13.6348 39.7004 13.516
712 2 2.2208 5.08139 28.5638 5.01529
722 2 2.2208 2.33052 28.5289 2.33022
760 1 -1.1104 0.657494 29.7576 1.02054
763 1 -1.1104 1.00734 29.7221 3.81221
766 1 -1.1104 0.97847 32.6578 0.74619
767 2 2.2208 5.07646 31.2599 2.3527
769 1 -1.1104 0.82892 32.8596 3.58567
771 1 -1.1104 3.59968 29.9114 0.815093
774 1 -1.1104 3.65604 29.9256 3.80753
776 2 2.2208 2.28393 31.3509 5.12146
778 1 -1.1104 3.75825 32.7092 0.921084
779 1 -1.1104 3.72445 32.891 3.85058
784 1 -1.1104 6.4232 30.1414 3.66948
913 1 -1.1104 0.821214 32.8311 6.44788
911 1 -1.1104 6.58769 29.8816 6.50653
915 1 -1.1104 3.78782 29.8754 6.7205
1051 2 2.2208 -0.375057 36.8621 13.5356
914 1 -1.1104 6.35973 32.7196 6.90412
731 2 2.2208 -0.37625 25.4762 2.28115
755 1 -1.1104 9.26377 27.0255 3.56452
770 1 -1.1104 6.50972 32.5774 3.92335
1435 1 -1.1104 6.31657 46.7004 0.691216
783 1 -1.1104 6.52299 30.1189 0.911531
785 1 -1.1104 6.61392 32.9767 1.09254
739 2 2.2208 10.6451 28.5882 5.12356
749 2 2.2208 7.92054 28.6117 2.26624
787 1 -1.1104 12.1866 30.0407 0.919705
789 1 -1.1104 12.3672 29.778 3.61678
791 1 -1.1104 12.2319 32.543 0.745474
792 2 2.2208 10.8615 31.3023 2.38704
794 1 -1.1104 12.2559 32.6285 3.82237
795 1 -1.1104 9.41742 29.7434 0.96018
798 1 -1.1104 9.42548 30.1561 3.69903
800 2 2.2208 7.91906 31.3045 5.13187
802 1 -1.1104 9.39185 32.691 1.01173
803 1 -1.1104 9.42729 32.7901 3.85187
943 1 -1.1104 12.1732 29.9682 6.57019
942 2 2.2208 -0.249837 36.8365 8.0286
945 1 -1.1104 12.2559 32.7297 6.54507
1003 1 -1.1104 9.53333 44.0974 9.52298
759 2 2.2208 5.27167 34.0078 5.14379
761 1 -1.1104 1.03398 35.4857 0.919678
764 1 -1.1104 0.76343 35.5878 3.62489
768 2 2.2208 5.30195 36.9163 2.47188
772 1 -1.1104 3.88236 35.7174 0.914755
773 2 2.2208 2.23501 34.1256 2.35776
775 1 -1.1104 3.68334 35.568 3.78883
777 2 2.2208 2.3934 37.0571 5.10084
805 2 2.2208 5.37037 39.8081 5.09173
811 1 -1.1104 0.866811 38.3924 0.910667
816 1 -1.1104 0.877411 38.2155 3.79231
821 2 2.2208 2.28299 39.8039 2.19663
825 1 -1.1104 3.56528 38.4468 0.683651
827 1 -1.1104 3.9948 38.5119 3.73182
1045 2 2.2208 2.38192 39.921 13.6247
782 2 2.2208 -0.391956 34.2312 5.16374
916 1 -1.1104 3.79417 35.4498 6.39212
983 1 -1.1104 0.838363 38.4518 6.79149
989 1 -1.1104 3.80504 38.1957 6.62195
985 1 -1.1104 6.59716 38.1277 6.58683
851 2 2.2208 13.4946 39.7562 2.08004
818 1 -1.1104 6.73704 38.322 3.85476
762 1 -1.1104 6.68632 35.6184 0.798786
1012 1 -1.1104 12.355 43.9697 9.36122
765 1 -1.1104 6.85237 35.6067 3.41074
813 1 -1.1104 6.49211 38.1967 0.918182