LAMMPS (29 Oct 2020)
OMP_NUM_THREADS environment is not set. Defaulting to 1 thread. (../comm.cpp:94)
  using 1 OpenMP thread(s) per MPI task
OMP_NUM_THREADS environment is not set. Defaulting to 1 thread. (../comm.cpp:94)
  using 1 OpenMP thread(s) per MPI task
Reading data file ...
  triclinic box = (-0.1058618 -1.2969996 -0.1097397) to (27.999862 336.02500 28.003740) with tilt (0.0000000 0.0000000 0.0000000)
  2 by 13 by 2 MPI processor grid
  reading atoms ...
  18000 atoms
  reading velocities ...
  18000 velocities
Finding 1-2 1-3 1-4 neighbors ...
  special bond factors lj:    0.0      0.0      0.0     
  special bond factors coul:  0.0      0.0      0.0     
     0 = max # of 1-2 neighbors
     0 = max # of 1-3 neighbors
     0 = max # of 1-4 neighbors
     1 = max # of special neighbors
  special bonds CPU = 0.004 seconds
  read_data CPU = 0.074 seconds
Setting atom values ...
  12000 settings made for charge
Setting atom values ...
  6000 settings made for charge
PPPM initialization ...
  using 12-bit tables for long-range coulomb (../kspace.cpp:328)
  G vector (1/distance) = 0.29874114
  grid = 40 240 40
  stencil order = 5
  estimated absolute RMS force accuracy = 0.00015848406
  estimated relative force accuracy = 1.1006109e-05
  using single precision MKL FFT
  3d grid and FFT values/proc = 15000 7600
Neighbor list info ...
  update every 1 steps, delay 0 steps, check yes
  max neighbors/atom: 2000, page size: 100000
  master list distance cutoff = 11.3
  ghost atom cutoff = 11.3
  binsize = 5.65, bins = 5 60 5
  2 neighbor lists, perpetual/occasional/extra = 2 0 0
  (1) pair coul/long, perpetual
      attributes: half, newton on
      pair build: half/bin/newton/tri
      stencil: half/bin/3d/newton/tri
      bin: standard
  (2) pair eam/alloy, perpetual, copy from (1)
      attributes: half, newton on
      pair build: copy
      stencil: none
      bin: none
Setting up Verlet run ...
  Unit style    : metal
  Current step  : 0
  Time step     : 0.001
Per MPI rank memory allocation (min/avg/max) = 8.325 | 8.354 | 8.370 Mbytes
Step Temp E_pair E_mol TotEng Press 
       0          600   -234971.18            0   -233575.24    86.730005 
  100000    601.20028   -234945.49            0   -233546.77    150.53309 
Loop time of 696.31 on 52 procs for 100000 steps with 18000 atoms

Performance: 12.408 ns/day, 1.934 hours/ns, 143.614 timesteps/s
99.8% CPU use with 52 MPI tasks x 1 OpenMP threads

MPI task timing breakdown:
Section |  min time  |  avg time  |  max time  |%varavg| %total
---------------------------------------------------------------
Pair    | 454.09     | 464.61     | 477.54     |  27.6 | 66.72
Bond    | 0.0062896  | 0.010822   | 0.016749   |   2.2 |  0.00
Kspace  | 144.3      | 158.46     | 171.25     |  52.5 | 22.76
Neigh   | 46.68      | 48.893     | 52.968     |  22.1 |  7.02
Comm    | 17.829     | 19.723     | 22.267     |  24.7 |  2.83
Output  | 5.8748e-05 | 6.429e-05  | 0.00029719 |   0.0 |  0.00
Modify  | 2.1327     | 3.0737     | 5.0539     |  56.6 |  0.44
Other   |            | 1.54       |            |       |  0.22

Nlocal:        346.154 ave         371 max         327 min
Histogram: 3 8 3 14 5 8 1 6 2 2
Nghost:        4131.17 ave        4244 max        4016 min
Histogram: 2 5 6 5 9 6 7 4 3 5
Neighs:        69878.2 ave       75079 max       65904 min
Histogram: 3 6 4 14 4 10 2 5 3 1

Total # of neighbors = 3633664
Ave neighs/atom = 201.87022
Ave special neighs/atom = 0.0000000
Neighbor list builds = 16232
Dangerous builds = 0
12000 atoms in group oxygen
PPPM initialization ...
  using 12-bit tables for long-range coulomb (../kspace.cpp:328)
  G vector (1/distance) = 0.29874114
  grid = 40 240 40
  stencil order = 5
  estimated absolute RMS force accuracy = 0.00015848406
  estimated relative force accuracy = 1.1006109e-05
  using single precision MKL FFT
  3d grid and FFT values/proc = 15000 7600
Setting up Verlet run ...
  Unit style    : metal
  Current step  : 0
  Time step     : 0.001
Per MPI rank memory allocation (min/avg/max) = 8.576 | 8.604 | 8.621 Mbytes
Step f_2 Temp v_Tdiff v_deltaT 
       0            0    601.20028            0            0 
  100000    686.91231    600.52598  0.020186316    234.36126 
  200000    1345.4473    604.39997  0.022119071    256.80036 
  300000      2006.79    602.41466    0.0223932    259.98297 
  400000    2672.3279    605.99959  0.022627305    262.70091 
  500000    3342.6951    602.61512  0.021913968    254.41913 
  600000    4003.1746    606.21906   0.02204212    255.90696 
  700000    4670.9679    603.08526  0.022816403    264.89633 
  800000    5336.4059    601.03056  0.022359979    259.59728 
  900000    6001.7366     604.7661  0.022023097    255.68611 
 1000000    6663.8419    605.56174  0.022716109    263.73191 
 1100000    7326.7152    605.94767  0.022986547    266.87168 
 1200000    7996.7749    610.08978  0.022753345    264.16422 
 1300000    8662.7883    609.59732  0.022627143    262.69903 
 1400000    9334.6908    605.12259  0.022443016    260.56133 
 1500000    10003.256    611.73113    0.0226657    263.14667 
Loop time of 10406.2 on 52 procs for 1500000 steps with 18000 atoms

Performance: 12.454 ns/day, 1.927 hours/ns, 144.144 timesteps/s
99.8% CPU use with 52 MPI tasks x 1 OpenMP threads

MPI task timing breakdown:
Section |  min time  |  avg time  |  max time  |%varavg| %total
---------------------------------------------------------------
Pair    | 6717.6     | 6892.3     | 7139.8     | 129.5 | 66.23
Bond    | 0.10541    | 0.1611     | 0.24604    |   8.3 |  0.00
Kspace  | 2143.6     | 2407.2     | 2596.8     | 224.1 | 23.13
Neigh   | 727.29     | 756.94     | 818.75     |  80.1 |  7.27
Comm    | 269.77     | 296.29     | 340.79     |  97.8 |  2.85
Output  | 0.0016842  | 0.0017734  | 0.0034613  |   0.6 |  0.00
Modify  | 8.5432     | 9.4241     | 10.226     |  13.1 |  0.09
Other   |            | 43.9       |            |       |  0.42

Nlocal:        346.154 ave         370 max         323 min
Histogram: 1 3 4 7 14 10 5 4 3 1
Nghost:        4141.60 ave        4253 max        4031 min
Histogram: 2 4 4 7 13 6 5 3 4 4
Neighs:        69874.9 ave       74464 max       65301 min
Histogram: 1 5 3 5 11 13 5 5 2 2

Total # of neighbors = 3633496
Ave neighs/atom = 201.86089
Ave special neighs/atom = 0.0000000
Neighbor list builds = 250925
Dangerous builds = 0
Total wall time: 3:05:03
