LAMMPS (29 Oct 2020)
OMP_NUM_THREADS environment is not set. Defaulting to 1 thread. (../comm.cpp:94)
  using 1 OpenMP thread(s) per MPI task
OMP_NUM_THREADS environment is not set. Defaulting to 1 thread. (../comm.cpp:94)
  using 1 OpenMP thread(s) per MPI task
Reading data file ...
  orthogonal box = (-0.36806627 -3.2125600 -0.34696946) to (27.708066 249.27256 27.686969)
  2 by 13 by 2 MPI processor grid
  reading atoms ...
  13500 atoms
  reading velocities ...
  13500 velocities
Finding 1-2 1-3 1-4 neighbors ...
  special bond factors lj:    0.0      0.0      0.0     
  special bond factors coul:  0.0      0.0      0.0     
     0 = max # of 1-2 neighbors
     0 = max # of 1-3 neighbors
     0 = max # of 1-4 neighbors
     1 = max # of special neighbors
  special bonds CPU = 0.004 seconds
  read_data CPU = 0.061 seconds
Setting atom values ...
  9000 settings made for charge
Setting atom values ...
  4500 settings made for charge
PPPM initialization ...
  using 12-bit tables for long-range coulomb (../kspace.cpp:328)
  G vector (1/distance) = 0.29996485
  grid = 40 192 40
  stencil order = 5
  estimated absolute RMS force accuracy = 0.00014342205
  estimated relative force accuracy = 9.9601102e-06
  using single precision MKL FFT
  3d grid and FFT values/proc = 12500 6000
Neighbor list info ...
  update every 1 steps, delay 0 steps, check yes
  max neighbors/atom: 2000, page size: 100000
  master list distance cutoff = 11.3
  ghost atom cutoff = 11.3
  binsize = 5.65, bins = 5 45 5
  2 neighbor lists, perpetual/occasional/extra = 2 0 0
  (1) pair coul/long, perpetual
      attributes: half, newton on
      pair build: half/bin/newton
      stencil: half/bin/3d/newton
      bin: standard
  (2) pair eam/alloy, perpetual, copy from (1)
      attributes: half, newton on
      pair build: copy
      stencil: none
      bin: none
Setting up Verlet run ...
  Unit style    : metal
  Current step  : 0
  Time step     : 0.001
Per MPI rank memory allocation (min/avg/max) = 7.951 | 7.977 | 7.988 Mbytes
Step Temp E_pair E_mol TotEng Press 
       0          600   -176634.64            0   -175587.71   -961.61191 
  100000    605.65559   -176616.34            0   -175559.55   -308.53422 
Loop time of 501.859 on 52 procs for 100000 steps with 13500 atoms

Performance: 17.216 ns/day, 1.394 hours/ns, 199.259 timesteps/s
99.8% CPU use with 52 MPI tasks x 1 OpenMP threads

MPI task timing breakdown:
Section |  min time  |  avg time  |  max time  |%varavg| %total
---------------------------------------------------------------
Pair    | 340.81     | 347.83     | 353.38     |  13.4 | 69.31
Bond    | 0.0061351  | 0.0084908  | 0.013814   |   1.9 |  0.00
Kspace  | 104.7      | 111.23     | 118.48     |  29.9 | 22.16
Neigh   | 25.814     | 26.935     | 27.969     |   9.8 |  5.37
Comm    | 11.806     | 12.461     | 13.865     |  15.9 |  2.48
Output  | 5.5752e-05 | 6.0642e-05 | 0.00026241 |   0.0 |  0.00
Modify  | 1.4082     | 2.3194     | 3.537      |  41.7 |  0.46
Other   |            | 1.079      |            |       |  0.21

Nlocal:        259.615 ave         273 max         238 min
Histogram: 1 0 3 2 5 9 16 9 3 4
Nghost:        3668.10 ave        3696 max        3639 min
Histogram: 3 3 3 7 10 6 6 10 3 1
Neighs:        52446.8 ave       55508 max       48219 min
Histogram: 1 2 2 5 5 14 11 4 4 4

Total # of neighbors = 2727231
Ave neighs/atom = 202.01711
Ave special neighs/atom = 0.0000000
Neighbor list builds = 15979
Dangerous builds = 0
9000 atoms in group oxygen
PPPM initialization ...
  using 12-bit tables for long-range coulomb (../kspace.cpp:328)
  G vector (1/distance) = 0.29996485
  grid = 40 192 40
  stencil order = 5
  estimated absolute RMS force accuracy = 0.00014342205
  estimated relative force accuracy = 9.9601102e-06
  using single precision MKL FFT
  3d grid and FFT values/proc = 12500 6000
Setting up Verlet run ...
  Unit style    : metal
  Current step  : 0
  Time step     : 0.001
Per MPI rank memory allocation (min/avg/max) = 8.202 | 8.228 | 8.238 Mbytes
Step f_2 Temp v_Tdiff v_deltaT 
       0            0    605.65559            0            0 
  100000    714.78684    605.67404  0.013611487     158.0281 
  200000    1421.3967    603.81026  0.013922464    161.63852 
  300000    2126.7018    605.12194  0.014578804    169.25856 
  400000    2834.8825    607.76166  0.013714117    159.21963 
  500000    3541.8563    602.72053  0.014305276    166.08292 
  600000    4250.1252    609.79201  0.014460049    167.87983 
  700000    4952.1175    610.33282  0.014826238    172.13125 
  800000     5653.445     605.1873   0.01407835    163.44834 
  900000     6361.301     611.6283  0.014230737    165.21753 
 1000000    7061.8766    601.27934  0.014482123     168.1361 
 1100000    7768.3457    609.56919  0.013939334    161.83438 
 1200000    8471.9485     604.9853  0.013628489    158.22549 
 1300000    9182.1229     604.1427   0.01387065    161.03695 
 1400000    9882.3574     606.3832  0.014872673    172.67036 
 1500000    10591.182    606.03093  0.014183685    164.67127 
Loop time of 7464.22 on 52 procs for 1500000 steps with 13500 atoms

Performance: 17.363 ns/day, 1.382 hours/ns, 200.959 timesteps/s
99.9% CPU use with 52 MPI tasks x 1 OpenMP threads

MPI task timing breakdown:
Section |  min time  |  avg time  |  max time  |%varavg| %total
---------------------------------------------------------------
Pair    | 5038.9     | 5150.2     | 5226.1     |  55.9 | 69.00
Bond    | 0.094046   | 0.1283     | 0.20934    |   6.9 |  0.00
Kspace  | 1585.1     | 1677.1     | 1793.9     | 121.3 | 22.47
Neigh   | 393.3      | 411.53     | 425.91     |  37.5 |  5.51
Comm    | 176.47     | 186.85     | 207.28     |  60.3 |  2.50
Output  | 0.0015421  | 0.001639   | 0.0035432  |   0.7 |  0.00
Modify  | 6.1537     | 6.6572     | 7.2316     |  10.2 |  0.09
Other   |            | 31.77      |            |       |  0.43

Nlocal:        259.615 ave         268 max         240 min
Histogram: 1 2 1 1 2 8 9 5 15 8
Nghost:        3644.23 ave        3689 max        3548 min
Histogram: 2 1 1 0 1 5 17 12 5 8
Neighs:        52450.2 ave       55005 max       48346 min
Histogram: 2 2 1 4 5 8 8 9 12 1

Total # of neighbors = 2727413
Ave neighs/atom = 202.03059
Ave special neighs/atom = 0.0000000
Neighbor list builds = 243976
Dangerous builds = 0
Total wall time: 2:12:46
