LAMMPS (29 Oct 2020)
OMP_NUM_THREADS environment is not set. Defaulting to 1 thread. (../comm.cpp:94)
  using 1 OpenMP thread(s) per MPI task
OMP_NUM_THREADS environment is not set. Defaulting to 1 thread. (../comm.cpp:94)
  using 1 OpenMP thread(s) per MPI task
Reading data file ...
  orthogonal box = (-0.27717828 -3.4472206 -0.27717828) to (27.617178 331.52722 27.617178)
  2 by 13 by 2 MPI processor grid
  reading atoms ...
  18000 atoms
  reading velocities ...
  18000 velocities
Finding 1-2 1-3 1-4 neighbors ...
  special bond factors lj:    0.0      0.0      0.0     
  special bond factors coul:  0.0      0.0      0.0     
     0 = max # of 1-2 neighbors
     0 = max # of 1-3 neighbors
     0 = max # of 1-4 neighbors
     1 = max # of special neighbors
  special bonds CPU = 0.003 seconds
  read_data CPU = 0.059 seconds
90 atoms in group Th
90 atoms in group O
Setting atom values ...
  90 settings made for type
Setting atom values ...
  90 settings made for type
Setting atom values ...
  12000 settings made for charge
Setting atom values ...
  6000 settings made for charge
PPPM initialization ...
  using 12-bit tables for long-range coulomb (../kspace.cpp:328)
  G vector (1/distance) = 0.2991486
  grid = 40 240 40
  stencil order = 5
  estimated absolute RMS force accuracy = 0.00015521489
  estimated relative force accuracy = 1.0779078e-05
  using single precision MKL FFT
  3d grid and FFT values/proc = 18225 7600
Neighbor list info ...
  update every 1 steps, delay 0 steps, check yes
  max neighbors/atom: 2000, page size: 100000
  master list distance cutoff = 13
  ghost atom cutoff = 13
  binsize = 6.5, bins = 5 52 5
  2 neighbor lists, perpetual/occasional/extra = 2 0 0
  (1) pair coul/long, perpetual
      attributes: half, newton on
      pair build: half/bin/newton
      stencil: half/bin/3d/newton
      bin: standard
  (2) pair eam/alloy, perpetual, copy from (1)
      attributes: half, newton on
      pair build: copy
      stencil: none
      bin: none
Setting up cg style minimization ...
  Unit style    : metal
  Current step  : 0
WARNING: Energy due to 3 extra global DOFs will be included in minimizer energies
Per MPI rank memory allocation (min/avg/max) = 9.513 | 10.22 | 10.28 Mbytes
Step Temp E_pair E_mol TotEng Press Volume 
       0            0   -223404.58            0   -223404.58    42412.933    260641.98 
    2280            0   -233823.48            0   -233823.48    105.65732    268728.24 
Loop time of 35.8689 on 52 procs for 2280 steps with 18000 atoms

99.8% CPU use with 52 MPI tasks x 1 OpenMP threads

Minimization stats:
  Stopping criterion = linesearch alpha is zero
  Energy initial, next-to-last, final = 
     -223404.575643803  -233823.482933581  -233823.482933581
  Force two-norm initial, final = 13098.711 41.933406
  Force max component initial, final = 10141.283 23.339802
  Final line search alpha, max atom move = 5.1075535e-12 1.1920929e-10
  Iterations, force evaluations = 2280 3212

MPI task timing breakdown:
Section |  min time  |  avg time  |  max time  |%varavg| %total
---------------------------------------------------------------
Pair    | 20.53      | 21.392     | 22.228     |   9.7 | 59.64
Bond    | 0.00030798 | 0.00040978 | 0.00060514 |   0.0 |  0.00
Kspace  | 6.0498     | 6.8945     | 7.7811     |  17.4 | 19.22
Neigh   | 0.068461   | 0.078677   | 0.090878   |   2.1 |  0.22
Comm    | 0.68345    | 0.70708    | 0.73104    |   1.1 |  1.97
Output  | 0          | 0          | 0          |   0.0 |  0.00
Modify  | 0          | 0          | 0          |   0.0 |  0.00
Other   |            | 6.796      |            |       | 18.95

Nlocal:        346.154 ave         392 max         306 min
Histogram: 4 6 8 6 2 7 7 7 2 3
Nghost:        5596.48 ave        5699 max        5479 min
Histogram: 1 9 5 8 0 1 6 10 10 2
Neighs:       109443.0 ave      124465 max       97193 min
Histogram: 5 6 6 7 4 8 7 4 3 2

Total # of neighbors = 5691040
Ave neighs/atom = 316.16889
Ave special neighs/atom = 0.0000000
Neighbor list builds = 27
Dangerous builds = 0
PPPM initialization ...
  using 12-bit tables for long-range coulomb (../kspace.cpp:328)
  G vector (1/distance) = 0.29864975
  grid = 40 240 40
  stencil order = 5
  estimated absolute RMS force accuracy = 0.00015893325
  estimated relative force accuracy = 1.1037303e-05
  using single precision MKL FFT
  3d grid and FFT values/proc = 18225 7600
Setting up Verlet run ...
  Unit style    : metal
  Current step  : 0
  Time step     : 0.001
Per MPI rank memory allocation (min/avg/max) = 10.38 | 10.41 | 10.42 Mbytes
Step Dt Time Atoms Temp PotEng KinEng Press Volume v_latt 
       0        0.001            0    18000          600   -233823.49     1395.932    5653.7515    268728.24    5.6373768 
   10000        0.001           10    18000    601.62052   -234376.46    1399.7022   -832.15748    268569.69    5.6362283 
   20000        0.001           20    18000    603.61075   -234407.37    1404.3326   -54.905117     268412.7    5.6351303 
   30000        0.001           30    18000     598.1226    -234420.6    1391.5641    286.95983    268131.75    5.6331633 
   40000        0.001           40    18000    598.82816    -234440.5    1393.2057   -788.08453    268326.08    5.6345237 
   50000        0.001           50    18000    601.60989   -234443.91    1399.6775   -243.57864    268254.59    5.6340233 
   60000        0.001           60    18000    600.82751   -234451.56    1397.8572   -1242.0117    268347.18    5.6346714 
   70000        0.001           70    18000    605.10957   -234444.73    1407.8197    143.26963    268156.52    5.6333366 
   80000        0.001           80    18000      593.812   -234461.83    1381.5353    698.08173    268006.26    5.6322844 
   90000        0.001           90    18000    602.30229   -234453.04    1401.2884    1632.6235    267946.63    5.6318666 
  100000        0.001          100    18000    598.01783   -234450.21    1391.3204   -648.66104    268295.17    5.6343073 
Loop time of 882.295 on 52 procs for 100000 steps with 18000 atoms

Performance: 9.793 ns/day, 2.451 hours/ns, 113.341 timesteps/s
99.8% CPU use with 52 MPI tasks x 1 OpenMP threads

MPI task timing breakdown:
Section |  min time  |  avg time  |  max time  |%varavg| %total
---------------------------------------------------------------
Pair    | 533.37     | 549.49     | 563.27     |  27.8 | 62.28
Bond    | 0.0096493  | 0.014407   | 0.021042   |   2.0 |  0.00
Kspace  | 183.09     | 197.16     | 213.28     |  46.7 | 22.35
Neigh   | 3.1        | 3.2431     | 3.4423     |   4.7 |  0.37
Comm    | 24.067     | 25.052     | 26.027     |   9.8 |  2.84
Output  | 0.0094064  | 0.0094616  | 0.011516   |   0.3 |  0.00
Modify  | 92.266     | 98.688     | 104.41     |  24.5 | 11.19
Other   |            | 8.636      |            |       |  0.98

Nlocal:        346.154 ave         372 max         320 min
Histogram: 1 4 3 9 11 7 7 4 3 3
Nghost:        5590.19 ave        5721 max        5484 min
Histogram: 2 13 12 1 1 3 4 8 1 7
Neighs:       109361.0 ave      119030 max       99784 min
Histogram: 1 2 6 10 11 6 6 7 0 3

Total # of neighbors = 5686794
Ave neighs/atom = 315.93300
Ave special neighs/atom = 0.0000000
Neighbor list builds = 1099
Dangerous builds = 0
System init for write_data ...
PPPM initialization ...
  using 12-bit tables for long-range coulomb (../kspace.cpp:328)
  G vector (1/distance) = 0.29861983
  grid = 40 240 40
  stencil order = 5
  estimated absolute RMS force accuracy = 0.00015946851
  estimated relative force accuracy = 1.1074475e-05
  using single precision MKL FFT
  3d grid and FFT values/proc = 18225 7600
Total wall time: 0:15:18
