ITEM: TIMESTEP
100000
ITEM: NUMBER OF ATOMS
18000
ITEM: BOX BOUNDS xy xz yz pp pp pp
-1.2826352227901039e-01 2.8022263522278482e+01 0.0000000000000000e+00
-1.6067704715957492e+00 3.3633477047159823e+02 0.0000000000000000e+00
-1.2572834984397757e-01 2.8019728349844016e+01 0.0000000000000000e+00
ITEM: ATOMS id type q mass x y z
218 1 -1.1104 15.9994 4.43833 -0.104882 10.4311
893 1 -1.1104 15.9994 0.0501302 22.0018 10.2756
9274 3 -1.1104 15.9994 0.806608 4.91122 6.8828
4 1 -1.1104 15.9994 6.86187 22.0313 12.4869
5 1 -1.1104 15.9994 4.01069 21.881 12.6295
6 1 -1.1104 15.9994 1.15219 21.9927 12.8074
8273 3 -1.1104 15.9994 6.86744 -0.890025 12.5405
8 2 2.2208 232.038 5.47144 0.341629 2.75181
9 1 -1.1104 15.9994 12.709 19.1836 12.7592
10 2 2.2208 232.038 11.1504 0.432323 2.67006
219 1 -1.1104 15.9994 4.54787 -1.40832 8.13005
126 1 -1.1104 15.9994 1.10955 -1.09439 1.27686
13 2 2.2208 232.038 2.62667 3.19391 2.49597
652 1 -1.1104 15.9994 9.68271 13.3514 1.30846
15 1 -1.1104 15.9994 12.4917 13.6413 12.5849
16 1 -1.1104 15.9994 12.4841 16.2952 12.4852
17 2 2.2208 232.038 8.32015 3.12776 2.7881
18 2 2.2208 232.038 4.87054 6.19116 2.90359
19 1 -1.1104 15.9994 7.02889 19.0773 12.6912
20 2 2.2208 232.038 11.3722 6.23546 2.80507
21 4 2.2208 232.038 2.39399 17.5095 2.57339
42 2 2.2208 232.038 2.56297 23.3398 0.249925
23 2 2.2208 232.038 2.55352 9.23599 2.31848
24 4 2.2208 232.038 8.06404 6.41172 2.48201
682 2 2.2208 232.038 11.1254 9.09198 0.0492047
26 1 -1.1104 15.9994 9.83268 13.4974 12.676
27 2 2.2208 232.038 8.32225 9.63155 2.80551
28 2 2.2208 232.038 5.36842 12.0194 2.71353
29 1 -1.1104 15.9994 6.84905 16.1416 12.6303
30 2 2.2208 232.038 11.0718 12.085 2.80324
31 3 -1.1104 15.9994 4.07484 16.2649 12.3801
32 1 -1.1104 15.9994 4.27806 19.1418 12.73
33 2 2.2208 232.038 2.54581 14.2933 2.50833
34 3 -1.1104 15.9994 3.86787 4.88876 9.93529
493 1 -1.1104 15.9994 4.01255 13.4687 12.6302
684 2 2.2208 232.038 11.0666 20.6086 -0.106292
37 2 2.2208 232.038 8.25743 14.7872 2.74963
38 2 2.2208 232.038 5.67152 17.704 2.89872
8946 2 2.2208 232.038 13.8693 3.23079 2.75244
40 2 2.2208 232.038 11.0656 17.6228 2.69774
41 1 -1.1104 15.9994 1.27362 19.0686 12.8749
8945 2 2.2208 232.038 -0.00598406 23.676 8.53671
43 2 2.2208 232.038 2.77847 20.9461 3.05888
44 1 -1.1104 15.9994 1.1233 13.2471 9.77231
9227 1 -1.1104 15.9994 -0.0391439 18.7648 6.67858
46 1 -1.1104 15.9994 1.26954 16.2327 12.6765
47 2 2.2208 232.038 8.26736 20.5481 2.86361
48 2 2.2208 232.038 5.44902 23.3194 3.04255
22 2 2.2208 232.038 2.79681 11.7957 0.0459782
50 2 2.2208 232.038 11.0369 22.9376 2.89345
39 3 -1.1104 15.9994 9.57058 -0.720863 1.2692
52 2 2.2208 232.038 2.56474 0.529612 5.23948
217 1 -1.1104 15.9994 2.33399 -1.3264 6.59498
54 4 2.2208 232.038 2.7825 0.344351 8.37104
332 1 -1.1104 15.9994 6.94014 13.3229 12.666
56 2 2.2208 232.038 8.37912 0.517635 5.52062
648 1 -1.1104 15.9994 6.37715 6.36052 0.999604
58 2 2.2208 232.038 5.898 0.579464 8.46808
9633 2 2.2208 232.038 13.8678 6.21715 -0.134366
60 2 2.2208 232.038 11.2292 0.327015 8.32185
355 2 2.2208 232.038 5.56967 3.37677 -0.0759407
62 2 2.2208 232.038 2.57618 5.74434 5.46629
63 2 2.2208 232.038 2.54466 3.89123 8.45362
64 3 -1.1104 15.9994 9.75767 -0.890378 7.0097
65 2 2.2208 232.038 5.46677 3.0813 5.41068
66 2 2.2208 232.038 8.71715 6.06111 5.83586
67 2 2.2208 232.038 8.37698 3.23971 8.39107
68 2 2.2208 232.038 5.1893 6.34097 8.30438
69 2 2.2208 232.038 11.2521 3.1565 5.60405
70 2 2.2208 232.038 11.4156 6.01121 8.06517
25 2 2.2208 232.038 5.91178 8.70655 0.164019
72 2 2.2208 232.038 2.66746 12.1716 5.66567
73 2 2.2208 232.038 2.4487 8.98508 5.692
74 3 -1.1104 15.9994 4.02299 22.3151 4.51023
75 2 2.2208 232.038 5.90397 8.84775 5.33195
76 2 2.2208 232.038 8.15356 12.0744 5.63336
77 2 2.2208 232.038 7.77788 9.18666 8.38882
78 2 2.2208 232.038 5.20511 12.0039 8.5101
79 2 2.2208 232.038 11.2363 9.06206 4.99845
80 2 2.2208 232.038 11.0914 12.475 8.26997
81 4 2.2208 232.038 2.60449 8.92924 8.91088
82 2 2.2208 232.038 2.48262 17.8731 6.15198
83 2 2.2208 232.038 2.58101 14.8377 8.44642
333 1 -1.1104 15.9994 10.5647 10.9281 10.1464
85 2 2.2208 232.038 5.42167 14.9797 5.5297
86 2 2.2208 232.038 8.40498 17.6933 5.58218
87 2 2.2208 232.038 8.3347 14.8267 8.26105
88 2 2.2208 232.038 5.60384 17.625 8.4662
89 2 2.2208 232.038 11.0293 15.0531 5.39368
90 2 2.2208 232.038 11.1994 17.6521 8.45163
91 3 -1.1104 15.9994 9.79813 21.829 12.5219
92 2 2.2208 232.038 2.4168 23.3474 6.01411
93 2 2.2208 232.038 3.14876 20.4538 8.45813
499 1 -1.1104 15.9994 9.7609 16.1186 12.6386
95 2 2.2208 232.038 5.6369 20.6079 5.68399
96 2 2.2208 232.038 8.32613 23.3669 5.67935
97 2 2.2208 232.038 8.43547 20.5826 8.49357
98 2 2.2208 232.038 5.5209 23.3421 8.43641
99 2 2.2208 232.038 11.1278 20.462 5.74007
100 2 2.2208 232.038 11.1613 23.3152 8.41908
101 3 -1.1104 15.9994 9.75293 13.4219 4.09437
102 2 2.2208 232.038 2.38975 0.265051 11.8178
331 1 -1.1104 15.9994 9.24184 10.6758 12.6662
104 2 2.2208 232.038 8.19628 0.356033 11.129
803 1 -1.1104 15.9994 1.30025 22.1802 4.31342
106 4 2.2208 232.038 10.9296 9.32348 8.31107
107 2 2.2208 232.038 2.49001 6.27916 11.3413
108 2 2.2208 232.038 5.4588 3.35028 11.1003
109 2 2.2208 232.038 8.16018 6.28095 10.8606
110 2 2.2208 232.038 11.0685 3.20745 10.9005
111 1 -1.1104 15.9994 12.5385 21.9503 12.522
112 2 2.2208 232.038 2.50499 11.9155 11.3055
113 2 2.2208 232.038 5.49842 9.07832 11.3207
114 2 2.2208 232.038 8.29498 12.0907 10.9397
115 2 2.2208 232.038 10.8597 9.04206 11.6681
116 1 -1.1104 15.9994 9.75244 19.0305 12.6048
117 2 2.2208 232.038 2.45809 17.8209 11.1543
118 2 2.2208 232.038 5.41055 14.8356 11.1206
119 2 2.2208 232.038 8.24546 17.5691 11.2145
120 2 2.2208 232.038 11.229 14.8819 10.8647
330 1 -1.1104 15.9994 6.50938 10.3943 12.7658
122 2 2.2208 232.038 2.56211 23.239 11.0788
123 2 2.2208 232.038 5.55194 20.562 11.2091
124 2 2.2208 232.038 8.31106 23.3768 11.0981
125 2 2.2208 232.038 11.1949 20.6044 11.1191
344 2 2.2208 232.038 7.94913 3.60958 13.9522
127 1 -1.1104 15.9994 4.02759 -1.11339 1.22968
128 1 -1.1104 15.9994 1.15211 -0.808839 4.03367
129 1 -1.1104 15.9994 4.14682 -1.06779 4.19392
130 1 -1.1104 15.9994 1.09118 1.74372 1.31131
131 1 -1.1104 15.9994 4.14798 1.83732 1.08062
132 1 -1.1104 15.9994 1.30604 2.00391 3.94713
133 1 -1.1104 15.9994 4.14854 1.76101 3.86535
134 1 -1.1104 15.9994 6.86871 -1.10534 1.45119
135 1 -1.1104 15.9994 12.5151 -0.892898 1.2121
136 1 -1.1104 15.9994 7.03669 -0.98338 4.26514
137 1 -1.1104 15.9994 9.81378 -1.05051 4.05552
138 1 -1.1104 15.9994 6.9074 1.78679 1.36314
139 1 -1.1104 15.9994 9.76635 2.08687 1.31744
140 1 -1.1104 15.9994 6.87594 1.85814 4.05791
141 1 -1.1104 15.9994 9.84738 1.81653 4.07652
49 1 -1.1104 15.9994 12.4922 10.8064 12.5226
143 1 -1.1104 15.9994 12.5687 -0.925996 4.05438
144 1 -1.1104 15.9994 12.544 1.83881 1.26069
145 1 -1.1104 15.9994 12.6178 1.78641 4.13117
146 1 -1.1104 15.9994 1.33061 4.64617 1.21899
147 1 -1.1104 15.9994 3.95003 4.63115 1.41234
148 1 -1.1104 15.9994 1.01978 4.75233 4.10018
149 1 -1.1104 15.9994 3.77629 4.36331 4.20446
150 1 -1.1104 15.9994 0.965369 7.68012 1.625
151 1 -1.1104 15.9994 3.73149 7.44224 1.13231
152 1 -1.1104 15.9994 1.00264 8.35078 7.24171
153 1 -1.1104 15.9994 3.1791 7.74167 3.99247
154 1 -1.1104 15.9994 6.82743 4.79595 3.65628
155 1 -1.1104 15.9994 9.96067 5.83886 1.0595
156 1 -1.1104 15.9994 4.96857 6.65428 5.22826
157 1 -1.1104 15.9994 9.50343 4.96946 3.71638
158 1 -1.1104 15.9994 7.83235 4.32462 0.868952
159 1 -1.1104 15.9994 8.16688 8.21125 0.853965
160 1 -1.1104 15.9994 5.91014 8.22648 2.85307
161 1 -1.1104 15.9994 10.8557 6.60054 5.46819
162 1 -1.1104 15.9994 12.4956 4.81576 1.33786
163 1 -1.1104 15.9994 12.4196 4.64185 4.09011
164 1 -1.1104 15.9994 12.566 7.6501 1.45736
165 1 -1.1104 15.9994 12.7301 7.73736 4.07362
166 1 -1.1104 15.9994 1.12331 10.3766 1.00702
167 1 -1.1104 15.9994 4.19903 10.2073 0.994068
168 1 -1.1104 15.9994 0.717405 7.201 4.95108
169 1 -1.1104 15.9994 3.96868 10.2579 4.54567
170 1 -1.1104 15.9994 1.17376 13.1599 0.914957
171 1 -1.1104 15.9994 4.33096 13.4748 1.19004
172 1 -1.1104 15.9994 1.13176 13.2687 4.12533
173 1 -1.1104 15.9994 2.90431 11.7485 2.59617
174 1 -1.1104 15.9994 6.8956 10.622 1.26178
175 1 -1.1104 15.9994 10.0412 8.06626 3.01799
176 1 -1.1104 15.9994 6.8951 10.746 4.11868
177 1 -1.1104 15.9994 7.86829 7.65079 4.38803
178 1 -1.1104 15.9994 6.88365 13.3466 1.43379
179 1 -1.1104 15.9994 9.76938 10.6786 1.26743
180 1 -1.1104 15.9994 6.83677 13.46 4.10775
181 1 -1.1104 15.9994 9.68311 10.765 4.26105
182 1 -1.1104 15.9994 12.4937 10.3757 1.45017
183 1 -1.1104 15.9994 12.5282 10.6244 4.06982
184 1 -1.1104 15.9994 12.4404 13.3898 1.3131
185 1 -1.1104 15.9994 12.5466 13.5318 4.10853
186 1 -1.1104 15.9994 0.823294 15.6473 2.25848
187 1 -1.1104 15.9994 2.93285 15.9328 0.848694
188 1 -1.1104 15.9994 1.33194 16.6239 4.54705
189 1 -1.1104 15.9994 4.09165 16.0623 3.32002
190 1 -1.1104 15.9994 0.784049 18.2066 1.04394
191 1 -1.1104 15.9994 2.81303 19.7603 1.10864
192 1 -1.1104 15.9994 1.08731 19.2184 3.51765
193 1 -1.1104 15.9994 3.60296 18.6889 4.11567
194 1 -1.1104 15.9994 6.83243 16.1991 1.45742
195 1 -1.1104 15.9994 9.72041 16.2492 1.4076
196 1 -1.1104 15.9994 6.82998 16.2627 4.31833
197 1 -1.1104 15.9994 9.60599 16.1652 4.0574
198 1 -1.1104 15.9994 7.1174 18.9577 1.51391
199 1 -1.1104 15.9994 9.80006 19.1655 1.18499
200 1 -1.1104 15.9994 7.00408 19.0875 4.41773
201 1 -1.1104 15.9994 9.82964 19.0808 4.1391
202 1 -1.1104 15.9994 12.4924 16.2019 1.34071
203 1 -1.1104 15.9994 12.4628 16.3239 4.16317
204 1 -1.1104 15.9994 12.6679 18.9601 1.38972
205 1 -1.1104 15.9994 12.5612 19.0886 4.14196
206 1 -1.1104 15.9994 1.14038 21.9529 1.50031
207 1 -1.1104 15.9994 4.11764 22.2337 1.57704
208 1 -1.1104 15.9994 2.09042 20.2759 6.29801
209 1 -1.1104 15.9994 5.11 20.0902 2.73601
210 1 -1.1104 15.9994 6.82849 21.9486 1.67175
211 1 -1.1104 15.9994 9.55877 21.8951 1.48075
212 1 -1.1104 15.9994 7.10292 22.0318 4.30644
213 1 -1.1104 15.9994 9.66039 21.8957 4.27376
214 1 -1.1104 15.9994 12.3635 21.7779 1.41331
215 1 -1.1104 15.9994 12.4914 21.8824 4.33154
329 1 -1.1104 15.9994 3.99949 13.3324 10.041
36 2 2.2208 232.038 8.33757 17.6598 0.161871
9040 2 2.2208 232.038 13.7836 6.2186 11.1301
328 1 -1.1104 15.9994 1.1579 13.234 12.5904
45 2 2.2208 232.038 8.16056 23.3659 0.0527576
221 1 -1.1104 15.9994 4.49269 0.874419 6.53783
660 1 -1.1104 15.9994 4.64149 17.9452 0.86556
223 1 -1.1104 15.9994 4.43391 2.21505 9.13176
224 1 -1.1104 15.9994 7.0089 -0.943548 6.93752
225 1 -1.1104 15.9994 9.72371 -1.03031 9.82257
226 1 -1.1104 15.9994 7.04608 -1.15068 9.73781
227 1 -1.1104 15.9994 12.5426 -1.18803 9.68188
228 1 -1.1104 15.9994 7.01375 1.73474 6.83218
229 1 -1.1104 15.9994 9.7298 1.76959 6.97247
230 1 -1.1104 15.9994 7.09468 1.99461 9.79906
231 1 -1.1104 15.9994 9.7217 1.61866 9.64156
232 1 -1.1104 15.9994 12.432 -0.87161 6.83181
310 1 -1.1104 15.9994 9.8221 1.80606 12.5224
234 1 -1.1104 15.9994 12.5299 1.7476 7.05456
235 1 -1.1104 15.9994 12.5549 1.87958 9.88118
236 1 -1.1104 15.9994 1.40245 1.75074 9.37809
237 1 -1.1104 15.9994 2.08899 2.32462 6.68304
238 1 -1.1104 15.9994 2.04006 -1.131 9.9201
239 1 -1.1104 15.9994 4.16873 4.29313 6.95982
240 1 -1.1104 15.9994 0.973896 10.715 6.09405
241 1 -1.1104 15.9994 2.88842 6.36839 7.8737
242 1 -1.1104 15.9994 1.09504 4.71786 9.9175
243 1 -1.1104 15.9994 4.05449 7.57135 10.0515
244 1 -1.1104 15.9994 7.2478 4.44619 6.55861
245 1 -1.1104 15.9994 9.85664 4.52066 6.97621
246 1 -1.1104 15.9994 6.67249 4.78871 9.65952
247 1 -1.1104 15.9994 9.50646 4.64294 9.76214
248 1 -1.1104 15.9994 6.90036 7.50533 7.05856
249 1 -1.1104 15.9994 9.21395 8.78764 10.1115
250 1 -1.1104 15.9994 6.61709 7.72625 9.7813
251 1 -1.1104 15.9994 11.861 7.6469 9.80206
252 1 -1.1104 15.9994 12.8205 4.62504 6.80682
253 1 -1.1104 15.9994 12.3656 4.72396 9.71697
254 1 -1.1104 15.9994 9.39057 6.89141 8.24476
255 1 -1.1104 15.9994 12.4065 7.9606 7.1237
256 1 -1.1104 15.9994 1.08056 9.85176 3.81121
257 1 -1.1104 15.9994 3.30188 10.8778 7.44041
258 1 -1.1104 15.9994 1.05339 7.67994 9.97405
259 1 -1.1104 15.9994 4.22857 8.39759 7.06851
260 1 -1.1104 15.9994 1.07292 13.385 7.03781
261 1 -1.1104 15.9994 4.13826 13.5083 4.32261
262 1 -1.1104 15.9994 1.04597 10.4992 9.77847
263 1 -1.1104 15.9994 4.00009 10.4329 10.0354
264 1 -1.1104 15.9994 6.53526 10.6007 6.99324
265 1 -1.1104 15.9994 9.46617 9.10994 6.57032
266 1 -1.1104 15.9994 6.73372 10.7836 10.0074
267 1 -1.1104 15.9994 9.06021 11.1746 8.17423
268 1 -1.1104 15.9994 6.72855 13.4337 7.16616
269 1 -1.1104 15.9994 9.53211 13.7136 6.77463
270 1 -1.1104 15.9994 6.80497 13.4449 9.69935
271 1 -1.1104 15.9994 9.781 13.5438 9.77546
272 1 -1.1104 15.9994 11.8064 10.803 6.65921
273 1 -1.1104 15.9994 12.8304 10.3905 9.22432
274 1 -1.1104 15.9994 12.4948 13.5184 6.88002
275 1 -1.1104 15.9994 12.6704 13.5877 9.61962
276 1 -1.1104 15.9994 1.19969 15.9588 7.09581
277 1 -1.1104 15.9994 4.24288 16.4425 6.76942
278 1 -1.1104 15.9994 1.36604 15.9528 10.1201
279 1 -1.1104 15.9994 4.09048 13.5781 7.07583
280 1 -1.1104 15.9994 2.04493 18.0872 8.44745
281 1 -1.1104 15.9994 4.50425 19.1319 7.08752
282 1 -1.1104 15.9994 4.21948 16.0865 9.53181
283 1 -1.1104 15.9994 4.38109 19.0492 9.93578
284 1 -1.1104 15.9994 6.9285 16.3007 7.07787
285 1 -1.1104 15.9994 9.758 16.3532 6.9106
286 1 -1.1104 15.9994 6.99494 16.1398 9.77047
287 1 -1.1104 15.9994 9.78494 16.3343 9.82901
288 1 -1.1104 15.9994 7.20833 19.1567 7.03358
289 1 -1.1104 15.9994 9.97438 19.0303 7.1079
290 1 -1.1104 15.9994 7.01049 19.0381 9.8323
291 1 -1.1104 15.9994 9.68085 19.1014 9.81544
292 1 -1.1104 15.9994 12.3979 16.1453 7.00361
293 1 -1.1104 15.9994 12.6232 16.3697 9.69512
294 1 -1.1104 15.9994 12.6422 18.9446 6.9802
295 1 -1.1104 15.9994 12.602 19.1183 9.92533
296 1 -1.1104 15.9994 2.06747 22.5757 8.40122
297 1 -1.1104 15.9994 4.38276 21.9902 6.97626
298 1 -1.1104 15.9994 1.79654 20.1841 10.3225
299 1 -1.1104 15.9994 4.25805 21.922 9.89607
300 1 -1.1104 15.9994 7.09338 22.0098 7.16308
301 1 -1.1104 15.9994 9.84953 21.9708 7.03231
302 1 -1.1104 15.9994 6.96949 21.8824 9.71021
303 1 -1.1104 15.9994 9.90861 22.0639 9.82532
304 1 -1.1104 15.9994 12.5806 21.7474 7.08681
305 1 -1.1104 15.9994 12.6531 22.0092 9.76401
327 1 -1.1104 15.9994 3.87649 10.5775 12.7989
307 1 -1.1104 15.9994 4.20665 -1.1233 12.75
308 1 -1.1104 15.9994 1.0596 2.12116 12.5357
309 1 -1.1104 15.9994 3.97019 1.95303 12.4045
326 1 -1.1104 15.9994 1.21432 10.4565 12.4416
311 1 -1.1104 15.9994 9.4633 -0.966874 12.5164
312 1 -1.1104 15.9994 6.77666 2.06085 12.6869
313 1 -1.1104 15.9994 9.80376 4.4615 12.5688
314 1 -1.1104 15.9994 12.6227 -0.688824 12.3647
315 1 -1.1104 15.9994 12.4992 2.09211 12.5681
316 1 -1.1104 15.9994 1.20041 4.72493 12.7517
317 1 -1.1104 15.9994 4.08527 4.72276 12.6404
318 1 -1.1104 15.9994 1.17841 7.58865 12.6133
319 1 -1.1104 15.9994 4.00004 7.74008 12.7702
320 1 -1.1104 15.9994 6.80699 4.95762 12.4618
345 2 2.2208 232.038 5.32354 20.4066 0.541267
322 1 -1.1104 15.9994 6.92054 7.71694 12.5331
323 1 -1.1104 15.9994 9.67367 7.16167 12.4364
324 1 -1.1104 15.9994 12.4739 4.69504 12.7757
325 1 -1.1104 15.9994 12.6682 7.64091 12.5293
8995 2 2.2208 232.038 13.891 6.33024 5.5943
220 1 -1.1104 15.9994 0.281419 0.429206 6.62869
8966 2 2.2208 232.038 13.8524 14.8317 2.78596
35 2 2.2208 232.038 5.5543 14.8457 -0.0802954
9229 1 -1.1104 15.9994 -0.119489 18.4768 10.5408
9005 2 2.2208 232.038 13.9073 11.9367 5.46513
9025 2 2.2208 232.038 13.9397 23.1761 5.7248
372 4 2.2208 232.038 11.1557 3.31248 14.0104
356 2 2.2208 232.038 11.1198 3.33581 -0.0708287
8989 2 2.2208 232.038 13.9222 17.5673 0.0963395
385 2 2.2208 232.038 11.0574 0.121029 13.7958
343 4 2.2208 232.038 11.2014 14.9362 13.9201
351 2 2.2208 232.038 10.9087 11.5884 14.0369
338 4 2.2208 232.038 2.45703 11.9885 24.9281
339 3 -1.1104 15.9994 1.1119 4.61686 26.6967
9362 2 2.2208 232.038 13.9081 3.37113 25.3596
11 2 2.2208 232.038 5.54229 17.6521 13.9582
354 2 2.2208 232.038 8.07814 14.7507 14.0603
9285 2 2.2208 232.038 13.8558 9.10598 25.36
463 1 -1.1104 15.9994 4.18521 -0.877903 15.5409
57 2 2.2208 232.038 11.1547 18.0896 14.0358
346 3 -1.1104 15.9994 1.17535 10.7421 26.3042
9440 1 -1.1104 15.9994 1.35168 19.1063 15.6541
348 3 -1.1104 15.9994 9.81626 13.3091 23.5698
518 1 -1.1104 15.9994 9.56094 -1.03415 20.9393
84 2 2.2208 232.038 11.1422 23.2414 13.9505
14 3 -1.1104 15.9994 9.83547 10.5565 26.7959
672 1 -1.1104 15.9994 9.49243 19.0154 26.5631
353 3 -1.1104 15.9994 6.95173 18.7488 26.5049
357 2 2.2208 232.038 2.75489 20.4794 14.0467
678 1 -1.1104 15.9994 3.68969 22.2781 24.02
671 1 -1.1104 15.9994 7.51 15.9414 26.8451
9652 3 -1.1104 15.9994 1.04122 16.1011 23.9711
358 3 -1.1104 15.9994 7.04369 4.62203 23.5436
653 1 -1.1104 15.9994 12.547 10.4177 23.7894
661 1 -1.1104 15.9994 1.03878 19.1978 23.6822
466 1 -1.1104 15.9994 6.91939 -0.690472 15.3055
666 1 -1.1104 15.9994 9.3292 15.9759 23.8921
363 2 2.2208 232.038 2.34002 0.526366 16.5795
670 1 -1.1104 15.9994 9.63089 18.7222 23.9691
680 1 -1.1104 15.9994 3.81189 22.5171 26.7635
662 1 -1.1104 15.9994 4.14676 19.5119 23.8128
367 2 2.2208 232.038 8.20553 0.703101 16.7684
655 1 -1.1104 15.9994 12.6582 13.3625 23.8536
369 2 2.2208 232.038 5.29534 0.467588 19.5313
668 1 -1.1104 15.9994 10.0892 16.5647 26.6367
371 2 2.2208 232.038 11.0235 0.918695 19.5645
683 2 2.2208 232.038 8.24879 6.13675 27.4733
373 2 2.2208 232.038 2.49529 6.15871 16.7278
374 2 2.2208 232.038 2.58166 3.48941 19.5371
659 1 -1.1104 15.9994 1.07806 16.2911 26.9034
376 2 2.2208 232.038 5.33629 3.32612 16.7524
377 2 2.2208 232.038 8.19608 6.24799 16.9349
378 2 2.2208 232.038 8.09788 3.5349 19.7802
379 2 2.2208 232.038 5.36631 6.26257 19.5494
380 2 2.2208 232.038 10.9686 3.62704 17.0552
381 2 2.2208 232.038 11.0211 6.2883 19.8527
382 3 -1.1104 15.9994 3.89208 -0.973962 18.37
383 2 2.2208 232.038 2.51822 11.9379 16.8372
384 2 2.2208 232.038 2.58391 9.04188 19.5612
681 2 2.2208 232.038 2.6527 17.9285 27.6452
386 2 2.2208 232.038 5.41991 8.96997 16.8367
387 2 2.2208 232.038 8.15292 11.8164 16.9163
388 2 2.2208 232.038 8.13951 9.01377 19.6606
389 2 2.2208 232.038 5.43324 11.9219 19.5985
390 2 2.2208 232.038 11.1419 9.14211 16.8844
391 2 2.2208 232.038 11.1267 11.797 19.738
485 1 -1.1104 15.9994 3.99206 10.5205 15.4367
393 2 2.2208 232.038 2.64062 17.6603 16.8425
394 2 2.2208 232.038 2.53705 14.784 19.5004
395 4 2.2208 232.038 8.29705 17.4675 25.2524
396 2 2.2208 232.038 5.33902 14.7693 16.9217
397 2 2.2208 232.038 8.26891 17.7612 16.7151
398 2 2.2208 232.038 8.14899 14.7173 19.6213
399 2 2.2208 232.038 5.42911 17.5079 19.6012
400 2 2.2208 232.038 11.1035 14.6627 17.0957
401 2 2.2208 232.038 11.0587 17.5514 19.5829
341 2 2.2208 232.038 13.997 12.0781 22.4491
403 2 2.2208 232.038 2.58042 23.2547 16.8377
404 2 2.2208 232.038 2.58432 20.4788 19.5834
405 3 -1.1104 15.9994 1.21414 4.96239 15.4768
406 2 2.2208 232.038 5.47327 20.5167 16.7743
407 2 2.2208 232.038 8.34605 23.4525 16.8923
408 2 2.2208 232.038 8.31742 20.5132 19.6031
409 2 2.2208 232.038 5.53926 23.3041 19.6698
410 2 2.2208 232.038 10.9855 20.591 16.9162
411 2 2.2208 232.038 11.0891 23.3773 19.7329
651 1 -1.1104 15.9994 8.09977 11.9746 25.1721
413 2 2.2208 232.038 2.54067 0.622142 22.4332
669 1 -1.1104 15.9994 6.84078 18.6397 23.7949
415 3 -1.1104 15.9994 1.3467 22.1913 26.5724
664 1 -1.1104 15.9994 4.11319 19.584 26.6998
417 2 2.2208 232.038 8.32064 0.482342 22.3118
673 1 -1.1104 15.9994 12.3762 16.1748 23.8093
419 2 2.2208 232.038 5.44867 0.467253 25.175
9617 2 2.2208 232.038 -0.186082 6.30581 19.7524
421 2 2.2208 232.038 11.0224 0.499665 25.2801
422 3 -1.1104 15.9994 9.56756 19.1212 15.3497
423 2 2.2208 232.038 2.66413 6.28936 22.4593
424 2 2.2208 232.038 2.66392 3.50585 25.1677
425 4 2.2208 232.038 2.47937 23.6747 25.2337
426 2 2.2208 232.038 5.5142 3.25975 22.3278
427 2 2.2208 232.038 8.17326 6.31324 22.5042
428 2 2.2208 232.038 8.27842 3.22337 25.1539
429 2 2.2208 232.038 5.36853 6.11577 25.1373
430 2 2.2208 232.038 11.0309 3.42058 22.5003
431 2 2.2208 232.038 11.0222 6.28761 25.3499
432 1 -1.1104 15.9994 12.395 21.862 26.6778
433 2 2.2208 232.038 2.36609 11.975 21.8727
434 2 2.2208 232.038 2.60766 8.69219 25.3064
435 1 -1.1104 15.9994 12.6478 21.9597 23.8126
436 2 2.2208 232.038 5.43658 9.03159 22.3139
437 2 2.2208 232.038 8.26656 11.7576 22.5006
438 2 2.2208 232.038 8.24551 9.23688 25.2763
439 2 2.2208 232.038 5.64448 11.7848 25.1963
440 2 2.2208 232.038 11.1043 8.93517 22.5069
441 2 2.2208 232.038 10.9146 12.0018 25.2215
442 1 -1.1104 15.9994 9.55671 22.003 26.7969
443 2 2.2208 232.038 2.37916 17.5698 22.4504
444 2 2.2208 232.038 2.59579 15.2362 25.3195
445 1 -1.1104 15.9994 6.82053 21.7966 27.051
446 2 2.2208 232.038 5.28805 14.7526 22.6382
447 2 2.2208 232.038 8.41717 17.4531 22.1763
448 2 2.2208 232.038 8.13804 14.2632 25.1825
449 2 2.2208 232.038 5.04907 17.9804 25.2061
450 2 2.2208 232.038 11.1536 14.6966 22.3224
451 2 2.2208 232.038 11.6046 17.6536 25.3329
452 1 -1.1104 15.9994 9.90996 21.4946 23.9931
453 2 2.2208 232.038 2.61407 23.2086 21.9957
454 2 2.2208 232.038 2.59614 20.4077 25.1832
455 1 -1.1104 15.9994 6.67217 21.5541 23.9659
456 2 2.2208 232.038 5.52043 20.3045 22.2028
457 3 -1.1104 15.9994 3.97894 13.3762 15.5673
458 2 2.2208 232.038 8.20711 20.6072 25.2943
459 2 2.2208 232.038 5.68024 23.1302 25.464
460 2 2.2208 232.038 11.0792 20.5161 22.4615
461 2 2.2208 232.038 10.9964 23.2675 25.1323
665 1 -1.1104 15.9994 6.67979 15.9431 24.3567
663 1 -1.1104 15.9994 2.90493 17.7566 25.4701
658 1 -1.1104 15.9994 4.16409 16.4945 23.6586
677 1 -1.1104 15.9994 1.14975 22.1756 23.8921
650 1 -1.1104 15.9994 9.76709 13.5877 26.6001
654 1 -1.1104 15.9994 12.4962 10.5386 26.6919
468 1 -1.1104 15.9994 6.72697 2.08232 15.3667
469 1 -1.1104 15.9994 9.643 2.24593 15.2382
470 1 -1.1104 15.9994 12.7312 -0.834205 15.3719
471 1 -1.1104 15.9994 12.131 1.90991 15.4446
472 1 -1.1104 15.9994 1.11006 2.32014 15.4966
473 1 -1.1104 15.9994 3.89088 1.97612 15.315
474 1 -1.1104 15.9994 1.04043 7.72632 15.3436
475 1 -1.1104 15.9994 4.11361 4.8103 15.4455
476 1 -1.1104 15.9994 6.81532 4.97671 15.3334
477 1 -1.1104 15.9994 12.6097 4.72444 15.5247
478 1 -1.1104 15.9994 6.63146 7.71007 15.4019
479 1 -1.1104 15.9994 9.38821 7.60714 15.4802
321 1 -1.1104 15.9994 9.80256 4.92922 15.483
481 1 -1.1104 15.9994 12.6602 7.6076 15.5954
482 1 -1.1104 15.9994 1.12584 10.5371 15.3261
483 1 -1.1104 15.9994 3.83861 7.70944 15.4183
484 1 -1.1104 15.9994 1.19926 13.3445 15.3784
675 1 -1.1104 15.9994 12.4136 19.1976 23.9412
486 1 -1.1104 15.9994 6.79243 10.5959 15.4822
487 1 -1.1104 15.9994 9.56195 10.5705 15.6701
488 1 -1.1104 15.9994 6.96543 13.4118 15.3811
489 1 -1.1104 15.9994 9.8972 13.5919 15.3929
490 1 -1.1104 15.9994 12.4837 10.6617 15.6294
491 1 -1.1104 15.9994 12.5337 13.6779 15.4346
492 1 -1.1104 15.9994 1.24516 16.1963 15.4533
676 1 -1.1104 15.9994 12.5824 19.0443 26.882
494 1 -1.1104 15.9994 4.08484 19.0644 15.5335
495 1 -1.1104 15.9994 4.06668 16.2098 15.2351
496 1 -1.1104 15.9994 6.90905 16.3574 15.514
497 1 -1.1104 15.9994 9.8813 16.204 15.2261
498 1 -1.1104 15.9994 6.89474 19.3227 15.3777
667 1 -1.1104 15.9994 6.68896 13.3684 26.8213
500 1 -1.1104 15.9994 12.4232 16.3534 15.2095
501 1 -1.1104 15.9994 12.4937 19.1602 15.625
502 1 -1.1104 15.9994 1.33577 21.8175 15.4327
503 1 -1.1104 15.9994 4.13005 21.8866 15.3224
504 1 -1.1104 15.9994 6.97269 22.0033 15.4196
505 1 -1.1104 15.9994 9.79043 21.8934 15.3695
506 1 -1.1104 15.9994 12.5963 21.7613 15.37
507 1 -1.1104 15.9994 1.15096 -0.870426 18.4648
657 1 -1.1104 15.9994 3.48454 13.6645 23.7229
509 1 -1.1104 15.9994 1.11955 -0.890525 21.2031
510 1 -1.1104 15.9994 3.98278 -0.863659 21.1021
511 1 -1.1104 15.9994 1.24756 2.1798 18.1509
512 1 -1.1104 15.9994 3.85002 1.93331 18.1575
513 1 -1.1104 15.9994 1.1815 1.9473 21.0571
514 1 -1.1104 15.9994 4.03796 1.96537 20.993
515 1 -1.1104 15.9994 6.80234 -0.892 18.1104
656 1 -1.1104 15.9994 12.5204 13.3428 26.6223
517 1 -1.1104 15.9994 6.8101 -0.755862 20.8491
516 1 -1.1104 15.9994 9.6889 -0.867214 18.2428
519 1 -1.1104 15.9994 6.81565 1.89385 18.2258
520 1 -1.1104 15.9994 9.65926 -0.773062 15.6375
521 1 -1.1104 15.9994 6.8809 1.94696 21.0643
522 1 -1.1104 15.9994 9.67967 2.0387 21.0015
523 1 -1.1104 15.9994 12.283 -0.898422 18.241
524 1 -1.1104 15.9994 12.2944 -0.976181 20.9104
525 1 -1.1104 15.9994 12.4376 2.09892 18.1811
526 1 -1.1104 15.9994 12.472 1.9394 21.0715
527 1 -1.1104 15.9994 1.14255 4.86402 18.2555
528 1 -1.1104 15.9994 3.94769 4.8029 18.0884
529 1 -1.1104 15.9994 1.32191 4.91446 20.9088
530 1 -1.1104 15.9994 4.1379 4.73984 21.0003
531 1 -1.1104 15.9994 1.12795 7.68583 18.3302
532 1 -1.1104 15.9994 3.93956 7.59271 18.1103
533 1 -1.1104 15.9994 1.26877 7.678 21.1166
534 1 -1.1104 15.9994 4.03757 7.58741 20.9101
535 1 -1.1104 15.9994 6.77064 4.60164 18.0688
536 1 -1.1104 15.9994 9.4766 2.16761 18.2305
537 1 -1.1104 15.9994 6.69358 4.92542 20.9374
538 1 -1.1104 15.9994 9.59813 4.84686 21.1468
539 1 -1.1104 15.9994 6.89771 7.60335 18.1594
540 1 -1.1104 15.9994 9.60719 4.82421 18.3992
541 1 -1.1104 15.9994 6.77531 7.69513 20.9233
542 1 -1.1104 15.9994 9.53389 7.59117 21.0153
543 1 -1.1104 15.9994 12.5379 4.90272 18.3908
544 1 -1.1104 15.9994 12.4142 4.76019 21.1555
545 1 -1.1104 15.9994 12.4381 7.68217 18.4197
546 1 -1.1104 15.9994 12.5794 7.70087 21.243
547 1 -1.1104 15.9994 1.29089 10.5769 18.1943
548 1 -1.1104 15.9994 4.01854 10.4441 18.1426
549 1 -1.1104 15.9994 1.04282 10.4852 20.8935
550 1 -1.1104 15.9994 3.82286 10.4612 20.9119
551 1 -1.1104 15.9994 1.19415 13.2186 18.1647
552 1 -1.1104 15.9994 3.90324 13.3186 18.3722
553 1 -1.1104 15.9994 1.03288 13.3976 20.8123
554 1 -1.1104 15.9994 4.10054 13.3307 20.9249
555 1 -1.1104 15.9994 6.91561 10.4225 18.3682
556 1 -1.1104 15.9994 9.76109 10.3398 18.3797
557 1 -1.1104 15.9994 6.89459 10.5242 21.0147
558 1 -1.1104 15.9994 9.6927 10.3785 21.2368
559 1 -1.1104 15.9994 6.80113 13.2358 18.2748
560 1 -1.1104 15.9994 9.61575 13.3485 18.0668
561 1 -1.1104 15.9994 6.76482 13.3472 20.9729
562 1 -1.1104 15.9994 9.71281 13.1649 20.9446
563 1 -1.1104 15.9994 12.5469 10.5755 18.2638
564 1 -1.1104 15.9994 12.5266 10.3247 21.0174
565 1 -1.1104 15.9994 12.5781 13.4242 18.2689
566 1 -1.1104 15.9994 12.485 13.3708 21.0004
567 1 -1.1104 15.9994 1.27568 16.1657 18.2063
568 1 -1.1104 15.9994 4.15428 16.1395 18.079
569 1 -1.1104 15.9994 1.21025 16.0798 21.0491
570 1 -1.1104 15.9994 3.87948 16.0137 21.1306
571 1 -1.1104 15.9994 1.22269 19.0074 18.3779
572 1 -1.1104 15.9994 3.96175 18.9116 18.3622
573 1 -1.1104 15.9994 1.1866 19.22 21.101
574 1 -1.1104 15.9994 4.06512 18.8109 21.151
575 1 -1.1104 15.9994 6.88872 16.2602 18.2395
576 1 -1.1104 15.9994 9.75364 16.2607 18.0923
577 1 -1.1104 15.9994 6.80491 16.0971 21.2599
578 1 -1.1104 15.9994 9.7526 15.9572 20.8975
579 1 -1.1104 15.9994 6.65415 18.9278 18.2958
580 1 -1.1104 15.9994 9.59624 18.9887 18.1971
581 1 -1.1104 15.9994 7.01779 18.8113 20.9678
582 1 -1.1104 15.9994 9.79004 18.7999 21.0882
583 1 -1.1104 15.9994 12.4224 16.3272 18.1217
584 1 -1.1104 15.9994 12.4527 16.1554 20.9103
585 1 -1.1104 15.9994 12.3693 19.1896 18.3756
586 1 -1.1104 15.9994 12.4421 18.9968 21.186
587 1 -1.1104 15.9994 1.18674 21.9382 18.2679
588 1 -1.1104 15.9994 4.10729 22.035 18.1318
589 1 -1.1104 15.9994 1.17855 21.976 20.9499
590 1 -1.1104 15.9994 3.90737 21.7522 20.9883
591 1 -1.1104 15.9994 7.06815 21.7376 17.8635
592 1 -1.1104 15.9994 9.65495 21.8789 18.2705
593 1 -1.1104 15.9994 6.58456 21.5995 20.6615
594 1 -1.1104 15.9994 9.89168 21.7445 20.9336
595 1 -1.1104 15.9994 12.5646 21.9673 18.2007
596 1 -1.1104 15.9994 12.6984 21.8507 21.0572
597 1 -1.1104 15.9994 1.43862 -0.786681 23.9056
598 1 -1.1104 15.9994 3.98858 -0.763542 23.9723
599 1 -1.1104 15.9994 1.35958 -0.868918 26.5823
600 1 -1.1104 15.9994 4.10057 -1.03202 26.6323
601 1 -1.1104 15.9994 1.3825 2.01502 23.8476
602 1 -1.1104 15.9994 4.20344 1.95999 23.7314
603 1 -1.1104 15.9994 1.33818 1.95259 26.7999
604 1 -1.1104 15.9994 3.97102 1.77752 26.4719
605 1 -1.1104 15.9994 6.75826 -0.968352 23.6634
606 1 -1.1104 15.9994 9.52655 -1.03953 23.7446
607 1 -1.1104 15.9994 6.78515 -0.83653 26.687
608 1 -1.1104 15.9994 9.55374 -0.761617 26.4892
609 1 -1.1104 15.9994 6.9318 1.83484 23.761
610 1 -1.1104 15.9994 9.65103 1.87956 23.9223
611 1 -1.1104 15.9994 6.65035 2.02397 26.6253
612 1 -1.1104 15.9994 9.5798 1.81821 26.7033
613 1 -1.1104 15.9994 12.411 -0.850545 23.7931
614 1 -1.1104 15.9994 12.326 -0.861957 26.6051
615 1 -1.1104 15.9994 12.5886 2.2345 23.8169
616 1 -1.1104 15.9994 12.4669 1.83543 26.7079
617 1 -1.1104 15.9994 1.10944 4.75052 23.8494
618 1 -1.1104 15.9994 4.13108 4.72079 23.7278
619 3 -1.1104 15.9994 9.80263 7.48579 18.2183
620 1 -1.1104 15.9994 4.11789 4.58027 26.6914
621 1 -1.1104 15.9994 1.08941 7.77902 23.8906
622 1 -1.1104 15.9994 2.7183 6.27308 25.2363
623 1 -1.1104 15.9994 1.22055 7.70852 26.9167
624 1 -1.1104 15.9994 4.37433 7.75311 26.6374
625 1 -1.1104 15.9994 6.5218 7.47447 23.6264
626 1 -1.1104 15.9994 9.72596 4.70088 23.955
627 1 -1.1104 15.9994 6.7961 4.80425 26.3561
628 1 -1.1104 15.9994 9.77218 4.58901 26.5335
629 1 -1.1104 15.9994 6.94534 7.52003 26.3909
630 1 -1.1104 15.9994 9.59309 7.70694 23.9451
674 1 -1.1104 15.9994 12.779 16.0599 26.5982
632 1 -1.1104 15.9994 9.81193 7.66148 26.7195
633 1 -1.1104 15.9994 12.3876 4.81057 24.0133
634 1 -1.1104 15.9994 12.4827 4.75465 26.6859
635 1 -1.1104 15.9994 12.5165 7.68755 23.996
636 1 -1.1104 15.9994 12.496 7.67324 26.837
637 1 -1.1104 15.9994 1.40923 10.4012 23.569
638 1 -1.1104 15.9994 3.98151 8.05697 23.6213
639 1 -1.1104 15.9994 0.817004 12.9565 23.5056
640 1 -1.1104 15.9994 3.62297 10.5592 26.225
641 1 -1.1104 15.9994 4.48808 16.1682 26.5893
642 1 -1.1104 15.9994 4.17867 11.0322 23.5994
643 1 -1.1104 15.9994 1.09527 13.4277 26.0118
644 1 -1.1104 15.9994 3.81493 13.2343 26.38
645 1 -1.1104 15.9994 6.78119 10.2549 23.7977
646 1 -1.1104 15.9994 9.79569 10.3217 23.8533
647 1 -1.1104 15.9994 6.75619 10.3526 26.7376
679 1 -1.1104 15.9994 1.03583 19.3201 26.5167
649 1 -1.1104 15.9994 6.59651 13.1856 23.6345
336 2 2.2208 232.038 5.3645 6.27827 13.935
94 2 2.2208 232.038 11.2501 6.56957 14.0257