LAMMPS (29 Oct 2020)
OMP_NUM_THREADS environment is not set. Defaulting to 1 thread. (../comm.cpp:94)
  using 1 OpenMP thread(s) per MPI task
OMP_NUM_THREADS environment is not set. Defaulting to 1 thread. (../comm.cpp:94)
  using 1 OpenMP thread(s) per MPI task
Reading data file ...
  orthogonal box = (-0.4452594 -5.3575306 -0.42886177) to (27.785259 333.43753 27.768862)
  2 by 13 by 2 MPI processor grid
  reading atoms ...
  17820 atoms
  reading velocities ...
  17820 velocities
Finding 1-2 1-3 1-4 neighbors ...
  special bond factors lj:    0.0      0.0      0.0     
  special bond factors coul:  0.0      0.0      0.0     
     0 = max # of 1-2 neighbors
     0 = max # of 1-3 neighbors
     0 = max # of 1-4 neighbors
     1 = max # of special neighbors
  special bonds CPU = 0.004 seconds
  read_data CPU = 0.075 seconds
Setting atom values ...
  11880 settings made for charge
Setting atom values ...
  5940 settings made for charge
PPPM initialization ...
  using 12-bit tables for long-range coulomb (../kspace.cpp:328)
  G vector (1/distance) = 0.29850375
  grid = 40 240 40
  stencil order = 5
  estimated absolute RMS force accuracy = 0.00015960538
  estimated relative force accuracy = 1.108398e-05
  using single precision MKL FFT
  3d grid and FFT values/proc = 15000 7600
Neighbor list info ...
  update every 1 steps, delay 0 steps, check yes
  max neighbors/atom: 2000, page size: 100000
  master list distance cutoff = 11.3
  ghost atom cutoff = 11.3
  binsize = 5.65, bins = 5 60 5
  2 neighbor lists, perpetual/occasional/extra = 2 0 0
  (1) pair coul/long, perpetual
      attributes: half, newton on
      pair build: half/bin/newton
      stencil: half/bin/3d/newton
      bin: standard
  (2) pair eam/alloy, perpetual, copy from (1)
      attributes: half, newton on
      pair build: copy
      stencil: none
      bin: none
Setting up Verlet run ...
  Unit style    : metal
  Current step  : 0
  Time step     : 0.001
Per MPI rank memory allocation (min/avg/max) = 8.148 | 8.172 | 8.185 Mbytes
Step Temp E_pair E_mol TotEng Press 
       0         1200   -231483.78            0   -228719.84   -451.15561 
   50000    1191.7989   -231482.87            0   -228737.81   -78.985993 
Loop time of 329.731 on 52 procs for 50000 steps with 17820 atoms

Performance: 13.102 ns/day, 1.832 hours/ns, 151.639 timesteps/s
99.8% CPU use with 52 MPI tasks x 1 OpenMP threads

MPI task timing breakdown:
Section |  min time  |  avg time  |  max time  |%varavg| %total
---------------------------------------------------------------
Pair    | 216.15     | 225.18     | 231.12     |  23.6 | 68.29
Bond    | 0.0031267  | 0.0050975  | 0.0072577  |   1.2 |  0.00
Kspace  | 64.1       | 71.182     | 81.202     |  51.5 | 21.59
Neigh   | 20.865     | 23.283     | 25.057     |  22.6 |  7.06
Comm    | 7.3868     | 7.8883     | 8.982      |  13.9 |  2.39
Output  | 5.0862e-05 | 5.6063e-05 | 0.00028177 |   0.0 |  0.00
Modify  | 0.89247    | 1.5495     | 2.4945     |  40.6 |  0.47
Other   |            | 0.6402     |            |       |  0.19

Nlocal:        342.692 ave         364 max         312 min
Histogram: 1 3 5 3 3 7 10 11 4 5
Nghost:        4012.44 ave        4136 max        3918 min
Histogram: 11 1 9 3 3 10 6 5 0 4
Neighs:        68529.7 ave       74967 max       57840 min
Histogram: 1 1 5 1 4 4 15 13 5 3

Total # of neighbors = 3563546
Ave neighs/atom = 199.97452
Ave special neighs/atom = 0.0000000
Neighbor list builds = 10972
Dangerous builds = 0
11880 atoms in group oxygen
PPPM initialization ...
  using 12-bit tables for long-range coulomb (../kspace.cpp:328)
  G vector (1/distance) = 0.29850375
  grid = 40 240 40
  stencil order = 5
  estimated absolute RMS force accuracy = 0.00015960538
  estimated relative force accuracy = 1.108398e-05
  using single precision MKL FFT
  3d grid and FFT values/proc = 15000 7600
Setting up Verlet run ...
  Unit style    : metal
  Current step  : 0
  Time step     : 0.001
Per MPI rank memory allocation (min/avg/max) = 8.399 | 8.423 | 8.436 Mbytes
Step f_2 Temp v_Tdiff v_deltaT 
       0            0    1191.7989            0            0 
  100000    1316.0861    1203.0499  0.046673213    541.87167 
  200000    2561.6705    1198.5443  0.056320696    653.87805 
  300000    3828.2443    1192.5157  0.055643698    646.01817 
  400000    5084.5027    1208.8828   0.05556157    645.06467 
  500000    6335.8888    1192.9692  0.055178193     640.6137 
  600000    7602.8992    1194.9117  0.055400052    643.18946 
  700000    8878.6356    1199.3943  0.053309592    618.91941 
  800000    10140.653    1200.9563  0.056111453    651.44875 
  900000    11412.611    1195.1707  0.056181328       652.26 
 1000000    12673.934    1202.6983  0.055933138    649.37854 
Loop time of 6578.24 on 52 procs for 1000000 steps with 17820 atoms

Performance: 13.134 ns/day, 1.827 hours/ns, 152.016 timesteps/s
99.8% CPU use with 52 MPI tasks x 1 OpenMP threads

MPI task timing breakdown:
Section |  min time  |  avg time  |  max time  |%varavg| %total
---------------------------------------------------------------
Pair    | 4270.7     | 4438.6     | 4574.7     |  99.8 | 67.47
Bond    | 0.07327    | 0.0995     | 0.13101    |   4.8 |  0.00
Kspace  | 1279.8     | 1442.8     | 1640.5     | 209.2 | 21.93
Neigh   | 448.24     | 498.78     | 537.46     | 100.7 |  7.58
Comm    | 151.13     | 160.93     | 188.86     |  73.3 |  2.45
Output  | 0.0010458  | 0.0011037  | 0.002373   |   0.5 |  0.00
Modify  | 5.3379     | 5.7789     | 6.2826     |   9.4 |  0.09
Other   |            | 31.27      |            |       |  0.48

Nlocal:        342.692 ave         366 max         316 min
Histogram: 2 2 2 6 10 12 7 3 2 6
Nghost:        4020.21 ave        4152 max        3910 min
Histogram: 4 10 7 7 1 5 6 2 4 6
Neighs:        68512.7 ave       74360 max       59892 min
Histogram: 4 0 0 3 7 9 14 7 5 3

Total # of neighbors = 3562662
Ave neighs/atom = 199.92492
Ave special neighs/atom = 0.0000000
Neighbor list builds = 235256
Dangerous builds = 0
Total wall time: 1:55:08
