LAMMPS (29 Oct 2020)
OMP_NUM_THREADS environment is not set. Defaulting to 1 thread. (../comm.cpp:94)
  using 1 OpenMP thread(s) per MPI task
OMP_NUM_THREADS environment is not set. Defaulting to 1 thread. (../comm.cpp:94)
  using 1 OpenMP thread(s) per MPI task
Reading data file ...
  triclinic box = (-0.22382693 -2.6877098 -0.22315101) to (28.117827 337.41571 28.117151) with tilt (0.0000000 0.0000000 0.0000000)
  2 by 13 by 2 MPI processor grid
  reading atoms ...
  18000 atoms
  reading velocities ...
  18000 velocities
Finding 1-2 1-3 1-4 neighbors ...
  special bond factors lj:    0.0      0.0      0.0     
  special bond factors coul:  0.0      0.0      0.0     
     0 = max # of 1-2 neighbors
     0 = max # of 1-3 neighbors
     0 = max # of 1-4 neighbors
     1 = max # of special neighbors
  special bonds CPU = 0.003 seconds
  read_data CPU = 0.066 seconds
Setting atom values ...
  11970 settings made for charge
Setting atom values ...
  5985 settings made for charge
Setting atom values ...
  30 settings made for charge
Setting atom values ...
  15 settings made for charge
PPPM initialization ...
  using 12-bit tables for long-range coulomb (../kspace.cpp:328)
  G vector (1/distance) = 0.29827943
  grid = 40 240 40
  stencil order = 5
  estimated absolute RMS force accuracy = 0.00016228246
  estimated relative force accuracy = 1.1269893e-05
  using single precision MKL FFT
  3d grid and FFT values/proc = 15000 7600
Neighbor list info ...
  update every 1 steps, delay 0 steps, check yes
  max neighbors/atom: 2000, page size: 100000
  master list distance cutoff = 11.3
  ghost atom cutoff = 11.3
  binsize = 5.65, bins = 6 61 6
  2 neighbor lists, perpetual/occasional/extra = 2 0 0
  (1) pair coul/long, perpetual
      attributes: half, newton on
      pair build: half/bin/newton/tri
      stencil: half/bin/3d/newton/tri
      bin: standard
  (2) pair eam/alloy, perpetual, copy from (1)
      attributes: half, newton on
      pair build: copy
      stencil: none
      bin: none
Setting up Verlet run ...
  Unit style    : metal
  Current step  : 0
  Time step     : 0.001
Per MPI rank memory allocation (min/avg/max) = 8.313 | 8.341 | 8.357 Mbytes
Step Temp E_pair E_mol TotEng Press 
       0         1500   -232940.51            0   -229450.68   -939.48167 
  100000     1504.582   -232913.14            0   -229412.65   -607.67788 
Loop time of 707.928 on 52 procs for 100000 steps with 18000 atoms

Performance: 12.205 ns/day, 1.966 hours/ns, 141.257 timesteps/s
99.8% CPU use with 52 MPI tasks x 1 OpenMP threads

MPI task timing breakdown:
Section |  min time  |  avg time  |  max time  |%varavg| %total
---------------------------------------------------------------
Pair    | 454.53     | 462.47     | 470.47     |  18.9 | 65.33
Bond    | 0.0070637  | 0.01031    | 0.014709   |   1.8 |  0.00
Kspace  | 145.48     | 157.32     | 167.36     |  45.5 | 22.22
Neigh   | 58.19      | 61.599     | 66.256     |  27.3 |  8.70
Comm    | 20.007     | 21.796     | 25.659     |  26.7 |  3.08
Output  | 5.477e-05  | 6.0303e-05 | 0.00027296 |   0.0 |  0.00
Modify  | 1.9491     | 3.2127     | 5.232      |  53.3 |  0.45
Other   |            | 1.524      |            |       |  0.22

Nlocal:        346.154 ave         368 max         328 min
Histogram: 2 3 11 7 7 8 5 4 3 2
Nghost:        3974.44 ave        4074 max        3886 min
Histogram: 2 7 10 6 2 6 9 2 5 3
Neighs:        69534.3 ave       74494 max       65606 min
Histogram: 3 6 7 9 5 9 5 5 2 1

Total # of neighbors = 3615785
Ave neighs/atom = 200.87694
Ave special neighs/atom = 0.0000000
Neighbor list builds = 24995
Dangerous builds = 0
11970 atoms in group oxygen
PPPM initialization ...
  using 12-bit tables for long-range coulomb (../kspace.cpp:328)
  G vector (1/distance) = 0.29827943
  grid = 40 240 40
  stencil order = 5
  estimated absolute RMS force accuracy = 0.00016228246
  estimated relative force accuracy = 1.1269893e-05
  using single precision MKL FFT
  3d grid and FFT values/proc = 15000 7600
Setting up Verlet run ...
  Unit style    : metal
  Current step  : 0
  Time step     : 0.001
Per MPI rank memory allocation (min/avg/max) = 8.564 | 8.592 | 8.607 Mbytes
Step f_2 Temp v_Tdiff v_deltaT 
       0            0     1504.582            0            0 
  100000    1624.4928     1503.054  0.062880469     730.0364 
  200000    3147.8876    1491.6975   0.07669292    890.39768 
  300000    4680.5779    1500.2056  0.076720807    890.72144 
  400000    6209.7495    1519.1865  0.077442485    899.10005 
  500000    7728.0967    1516.6189  0.076855873    892.28955 
  600000    9245.2855    1508.3159  0.080604895    935.81534 
  700000    10770.576    1507.7098  0.078436152    910.63644 
  800000    12282.826    1506.0139  0.076374257    886.69804 
  900000    13816.833    1510.1526  0.076796506     891.6003 
 1000000    15338.997    1503.0074  0.077421249    898.85351 
Loop time of 7007.36 on 52 procs for 1000000 steps with 18000 atoms

Performance: 12.330 ns/day, 1.946 hours/ns, 142.707 timesteps/s
99.8% CPU use with 52 MPI tasks x 1 OpenMP threads

MPI task timing breakdown:
Section |  min time  |  avg time  |  max time  |%varavg| %total
---------------------------------------------------------------
Pair    | 4437       | 4565.1     | 4655.8     |  72.2 | 65.15
Bond    | 0.066198   | 0.1034     | 0.14495    |   5.8 |  0.00
Kspace  | 1459.2     | 1560.9     | 1692.6     | 139.4 | 22.27
Neigh   | 601.36     | 626.4      | 655.07     |  54.7 |  8.94
Comm    | 199.76     | 217.63     | 255.15     |  87.7 |  3.11
Output  | 0.0012145  | 0.0012643  | 0.0024397  |   0.5 |  0.00
Modify  | 5.8535     | 6.3475     | 6.7871     |   8.8 |  0.09
Other   |            | 30.95      |            |       |  0.44

Nlocal:        346.154 ave         358 max         332 min
Histogram: 2 1 2 9 9 8 6 6 5 4
Nghost:        3970.37 ave        4046 max        3891 min
Histogram: 4 1 5 9 8 5 6 6 4 4
Neighs:        69518.2 ave       72900 max       65727 min
Histogram: 1 1 2 9 13 7 8 9 1 1

Total # of neighbors = 3614946
Ave neighs/atom = 200.83033
Ave special neighs/atom = 0.0000000
Neighbor list builds = 252831
Dangerous builds = 0
Total wall time: 2:08:35
