ITEM: TIMESTEP
20000
ITEM: NUMBER OF ATOMS
18000
ITEM: BOX BOUNDS pp pp pp
-4.4289078037785179e-01 2.7782890780378093e+01
-5.2214329359694531e+00 3.3330143293596905e+02
-4.4337350166257616e-01 2.7783373501663032e+01
ITEM: ATOMS id type q x y z
1 2 2.2208 5.06952 0.408594 5.34951
3 1 -1.1104 1.0014 -3.63003 1.36488
15 1 -1.1104 1.18477 -3.57283 4.0022
21 2 2.2208 5.12349 -2.43032 2.29004
23 1 -1.1104 1.08491 -0.866949 0.919586
31 1 -1.1104 1.10129 -0.767707 3.69021
35 2 2.2208 2.21187 0.537362 2.31564
37 1 -1.1104 3.77597 -3.93737 1.26167
43 1 -1.1104 3.94296 -3.7927 3.99976
46 2 2.2208 2.25186 -2.25418 5.26528
48 1 -1.1104 3.71284 -0.876639 1.15306
52 1 -1.1104 3.64204 -0.723647 3.77296
18 1 -1.1104 6.73388 -4.04797 4.0567
189 2 2.2208 10.8084 6.18864 10.9206
9 1 -1.1104 6.61143 -3.62804 0.996435
33 1 -1.1104 6.37972 -0.931117 3.82495
113 2 2.2208 13.602 -2.22325 5.32695
66 2 2.2208 2.40465 -5.1619 2.67846
4 1 -1.1104 0.996828 -3.594 6.62262
55 2 2.2208 2.37374 -2.56725 -0.234039
195 1 -1.1104 9.55555 1.96376 12.2365
62 2 2.2208 -0.39233 0.728044 5.23171
27 1 -1.1104 6.51928 -0.820247 0.816559
153 1 -1.1104 3.89513 7.42939 9.79623
69 2 2.2208 10.7861 0.643008 5.21656
71 1 -1.1104 12.2031 -3.57644 1.02573
77 1 -1.1104 12.4351 -3.63306 3.7228
80 2 2.2208 10.8065 -2.43813 2.34537
82 1 -1.1104 12.3 -0.777747 0.909238
86 1 -1.1104 12.0097 -0.750157 3.64987
88 2 2.2208 8.00716 0.341896 2.37134
90 1 -1.1104 9.40808 -3.84951 0.98671
96 1 -1.1104 9.36843 -3.59449 3.83802
99 2 2.2208 7.86669 -2.39866 5.12611
101 1 -1.1104 9.28968 -1.01946 1.23137
105 1 -1.1104 9.36965 -0.852006 3.89768
67 2 2.2208 5.19802 -5.12455 -0.310857
119 2 2.2208 10.7837 -5.02756 5.30425
102 1 -1.1104 9.33154 -0.953813 6.64097
91 1 -1.1104 9.26859 -4.01127 6.55193
83 1 -1.1104 12.2666 -0.917208 6.45974
183 1 -1.1104 9.25596 2.11704 9.46718
17 1 -1.1104 0.947767 7.24745 3.84825
114 2 2.2208 13.5673 3.32081 5.05851
19 1 -1.1104 6.37385 1.87625 4.36385
2 2 2.2208 5.175 6.09183 5.37431
5 1 -1.1104 0.849446 1.93456 1.10485
16 1 -1.1104 0.999104 1.97025 3.94183
22 2 2.2208 5.08759 3.27857 2.51497
25 1 -1.1104 0.836231 4.79508 1.24218
32 1 -1.1104 0.926242 4.49637 4.06022
36 2 2.2208 2.32982 6.10948 2.39086
39 1 -1.1104 3.87787 1.93784 0.818122
44 1 -1.1104 3.70761 1.91088 3.74278
47 2 2.2208 2.37569 3.21627 5.26504
50 1 -1.1104 3.63457 4.64703 0.831672
53 1 -1.1104 3.73781 4.64204 3.8379
168 2 2.2208 2.28285 -5.09853 8.04654
199 1 -1.1104 12.2871 7.45763 9.53883
56 2 2.2208 5.34397 6.08542 -0.33403
29 1 -1.1104 6.50535 4.82909 1.08652
169 2 2.2208 5.1129 -5.04376 10.9773
76 1 -1.1104 11.9721 7.71248 6.59324
26 1 -1.1104 0.96242 4.6599 6.95374
208 2 2.2208 13.575 -2.2447 10.5707
179 1 -1.1104 12.2397 4.85554 9.54964
95 1 -1.1104 9.25723 7.47676 6.91981
126 1 -1.1104 0.860668 7.58659 12.5719
34 1 -1.1104 6.72594 4.77886 4.10629
211 2 2.2208 13.5942 -4.99028 7.96543
42 1 -1.1104 3.57388 7.26489 6.70446
11 1 -1.1104 6.63487 1.84763 1.31275
70 2 2.2208 10.8603 5.95921 5.49699
73 1 -1.1104 12.1702 1.99902 0.889104
78 1 -1.1104 12.348 1.89112 3.63134
81 2 2.2208 10.6279 3.31775 2.29624
84 1 -1.1104 12.2172 4.82255 1.2617
87 1 -1.1104 12.0933 4.76016 4.0954
89 2 2.2208 8.09097 6.17823 2.68097
92 1 -1.1104 9.39791 1.94369 0.948871
97 1 -1.1104 9.40509 1.98789 3.93546
100 2 2.2208 8.01142 3.24805 5.46297
103 1 -1.1104 9.33263 4.72414 1.00495
106 1 -1.1104 9.46761 4.83474 3.81141
112 2 2.2208 13.6847 6.25381 2.41231
132 1 -1.1104 0.957403 7.53038 9.75267
75 1 -1.1104 12.3797 7.66964 0.902999
61 2 2.2208 -0.455484 6.18406 5.15606
41 1 -1.1104 3.97016 7.38548 0.913557
93 1 -1.1104 9.61389 1.85238 6.84017
192 1 -1.1104 12.2723 1.92393 9.52929
20 1 -1.1104 6.66689 7.63226 4.17564
24 1 -1.1104 0.81655 -0.821439 6.86949
38 1 -1.1104 3.65018 -3.86568 6.76371
49 1 -1.1104 3.67075 -1.08408 6.52285
122 2 2.2208 5.28961 0.486018 10.9144
124 1 -1.1104 0.789898 -3.84833 12.3614
130 1 -1.1104 1.14933 -3.55558 9.68129
136 2 2.2208 5.16697 -2.27398 8.00308
138 1 -1.1104 0.956842 -0.975358 12.4336
142 1 -1.1104 0.754301 -0.827958 9.61849
146 2 2.2208 2.31511 0.495774 8.1509
148 1 -1.1104 3.60196 -3.90438 12.5241
151 1 -1.1104 3.95556 -3.87093 9.42573
154 2 2.2208 2.4781 -2.36878 11.0101
156 1 -1.1104 3.85763 -0.937326 12.2305
158 1 -1.1104 3.65537 -1.08686 9.44075
28 1 -1.1104 6.6571 -0.939765 6.63981
144 1 -1.1104 6.5448 -0.909603 9.5472
140 1 -1.1104 6.67338 -0.895123 12.4046
127 1 -1.1104 6.46802 -3.73025 12.4487
129 1 -1.1104 6.38487 7.41021 12.6042
107 2 2.2208 7.95432 3.38639 -0.390646
198 2 2.2208 8.04597 6.07566 8.16128
150 1 -1.1104 3.675 7.56093 12.4044
212 2 2.2208 8.02588 -5.13315 8.04699
206 2 2.2208 13.6024 0.676913 7.88434
72 1 -1.1104 12.2267 -3.556 6.61899
133 1 -1.1104 6.5844 -3.58717 9.42252
10 1 -1.1104 6.56644 -3.70629 6.81185
190 2 2.2208 10.7769 0.538669 10.9174
177 2 2.2208 8.18186 -2.26289 10.8229
197 1 -1.1104 9.31611 -3.76662 12.2714
196 2 2.2208 10.7544 -2.22048 7.93638
180 1 -1.1104 12.2322 -3.80245 9.40674
188 1 -1.1104 12.3794 -0.867195 12.0688
175 1 -1.1104 9.56751 -1.1463 12.3283
178 2 2.2208 7.9738 0.515283 8.17615
186 1 -1.1104 12.0036 -3.93835 12.3283
193 1 -1.1104 9.22618 -3.74256 9.39777
184 1 -1.1104 12.2233 -0.92652 9.36735
173 1 -1.1104 9.57891 -0.813399 9.45922
181 1 -1.1104 12.2861 7.74663 12.2842
120 2 2.2208 10.5699 -5.19292 -0.338466
135 1 -1.1104 6.69808 7.46425 9.5705
172 1 -1.1104 9.39887 4.73224 9.6632
141 1 -1.1104 6.50938 4.78746 12.6356
6 1 -1.1104 0.880036 2.02042 6.75054
51 1 -1.1104 3.84397 4.67214 6.65507
40 1 -1.1104 3.53595 2.01734 6.71851
128 1 -1.1104 6.85225 2.04006 12.5318
191 2 2.2208 10.7943 3.22531 8.22303
111 2 2.2208 13.546 0.343404 2.29874
121 1 -1.1104 3.87862 4.57851 9.69382
123 2 2.2208 5.10082 6.12836 11.2457
125 1 -1.1104 0.789605 1.98701 12.6435
131 1 -1.1104 0.782106 1.79936 9.50262
137 2 2.2208 5.1793 3.43392 8.24053
139 1 -1.1104 0.9637 4.93135 12.4929
143 1 -1.1104 0.905104 4.74559 9.55008
147 2 2.2208 2.26756 5.96751 8.29301
149 1 -1.1104 3.91617 1.93544 12.2815
152 1 -1.1104 3.71892 1.78925 9.57325
155 2 2.2208 2.53439 3.36088 11.0063
157 1 -1.1104 3.72006 4.67175 12.3766
174 1 -1.1104 9.4139 4.94831 12.4179
98 1 -1.1104 9.6091 7.52706 4.14555
145 1 -1.1104 6.66147 4.74987 9.71938
8 1 -1.1104 0.859253 7.46361 6.78198
12 1 -1.1104 6.4774 1.87489 6.84848
182 1 -1.1104 9.54222 7.63573 9.61289
134 1 -1.1104 6.55045 1.93217 9.64506
14 1 -1.1104 6.48716 7.45048 6.88001
79 1 -1.1104 12.3516 7.57812 3.8901
185 1 -1.1104 12.2254 1.95683 12.3917
187 1 -1.1104 12.2752 4.80357 12.3869
85 1 -1.1104 12.1501 4.55121 6.73876
45 1 -1.1104 4.02655 7.53048 3.67083
30 1 -1.1104 6.63165 4.60235 6.95902
176 2 2.2208 8.00295 3.47067 11.0798
104 1 -1.1104 9.37918 4.74677 6.61947
74 1 -1.1104 12.0262 1.98201 6.4684
207 2 2.2208 13.5094 6.03905 8.053
109 2 2.2208 10.7214 6.16311 -0.267549
7 1 -1.1104 0.689778 7.46842 1.09767
116 2 2.2208 13.6439 3.0812 -0.373405
167 2 2.2208 -0.413801 0.573151 10.9462
293 2 2.2208 13.4986 -5.33352 13.58
94 1 -1.1104 9.43638 7.5383 1.23924
13 1 -1.1104 6.88111 7.59231 1.37673
115 2 2.2208 13.5776 -2.31238 -0.337402
54 2 2.2208 2.1549 3.30867 -0.260742
110 2 2.2208 10.5746 0.500689 -0.275644
214 2 2.2208 5.10486 0.494624 16.4697
216 1 -1.1104 0.946379 -3.75531 17.8623
222 1 -1.1104 0.82462 -3.64874 15.1192
228 2 2.2208 5.32613 -2.2139 19.3942
230 1 -1.1104 0.724616 -0.795675 17.86
234 1 -1.1104 0.888194 -0.853339 15.2167
238 2 2.2208 2.18613 0.515004 19.3296
240 1 -1.1104 3.60681 -3.5221 18.2839
243 1 -1.1104 3.56498 -3.65097 15.2907
246 2 2.2208 2.24947 -2.25404 16.5732
248 1 -1.1104 3.61481 -0.742224 18.0205
250 1 -1.1104 3.72194 -0.830268 15.1177
232 1 -1.1104 6.5803 -0.706151 18.0096
347 2 2.2208 -0.309379 3.35695 25.0811
108 2 2.2208 7.99198 -2.26658 27.7931
236 1 -1.1104 6.55597 -0.783076 15.3433
264 1 -1.1104 12.3085 7.70905 18.0257
319 1 -1.1104 1.05448 7.52861 26.3995
159 2 2.2208 5.15866 -2.24776 13.9001
225 1 -1.1104 6.35171 -3.72043 15.1312
219 1 -1.1104 6.64944 -3.45654 18.1186
260 2 2.2208 10.8094 0.519341 16.7037
262 1 -1.1104 12.1297 -3.66538 17.9966
265 1 -1.1104 12.2149 -3.86764 15.0668
268 2 2.2208 10.7118 -2.31177 19.5045
270 1 -1.1104 12.2245 -0.802414 17.9305
272 1 -1.1104 12.1677 -1.05826 14.983
274 2 2.2208 7.99618 0.573053 19.3052
276 1 -1.1104 9.28959 -3.75203 17.7529
279 1 -1.1104 9.38319 -3.87928 15.0968
282 2 2.2208 8.00677 -2.13101 16.5038
284 1 -1.1104 9.24384 -0.963651 18.0699
286 1 -1.1104 9.46885 -0.909409 15.2912
290 2 2.2208 13.5516 3.36221 16.6317
242 1 -1.1104 3.69743 7.55384 17.82
203 2 2.2208 8.02709 6.25026 13.72
292 2 2.2208 10.7689 -5.09639 16.4967
369 1 -1.1104 12.2035 -3.53818 20.7512
205 2 2.2208 13.6998 0.662937 13.831
296 1 -1.1104 0.94117 7.56306 20.8876
379 1 -1.1104 12.2363 7.52197 26.6435
57 2 2.2208 4.88459 0.413765 27.7628
215 2 2.2208 5.27636 6.10327 16.4833
217 1 -1.1104 0.870352 1.93975 17.9662
223 1 -1.1104 0.984385 1.83944 15.1733
229 2 2.2208 5.15806 3.39289 19.3669
231 1 -1.1104 0.981945 4.8497 18.1722
235 1 -1.1104 1.0764 4.97543 15.2323
239 2 2.2208 2.51436 6.1546 19.4434
241 1 -1.1104 3.61725 1.94642 17.8902
244 1 -1.1104 3.84742 1.97162 15.0844
247 2 2.2208 2.37393 3.61859 16.6062
249 1 -1.1104 3.92545 4.89233 18.1372
251 1 -1.1104 3.90394 4.95412 15.2885
322 1 -1.1104 6.65882 7.47819 26.7252
252 2 2.2208 2.24093 -5.18574 13.7163
213 2 2.2208 7.91322 -5.17192 13.768
226 1 -1.1104 6.64654 1.8982 15.1548
313 1 -1.1104 0.975059 7.54101 23.478
200 2 2.2208 10.7437 -2.41695 13.7804
384 1 -1.1104 9.50253 4.75504 20.9399
291 2 2.2208 8.06889 -5.26371 19.4206
278 1 -1.1104 9.57354 7.54039 18.0169
221 1 -1.1104 6.63938 7.51376 17.942
161 2 2.2208 2.27574 0.656178 13.8667
202 2 2.2208 10.8386 3.1388 13.8451
160 2 2.2208 5.18522 3.39489 13.8168
381 1 -1.1104 9.52631 1.69755 20.8098
253 2 2.2208 -0.383359 3.37366 19.3664
233 1 -1.1104 6.72568 4.78983 17.8747
237 1 -1.1104 6.62062 4.57257 15.1356
220 1 -1.1104 6.41835 2.05201 17.7921
261 2 2.2208 10.8497 6.25923 16.4183
263 1 -1.1104 12.1676 1.76691 18.0602
266 1 -1.1104 12.1467 1.8264 15.2406
269 2 2.2208 10.7547 3.2761 19.5145
271 1 -1.1104 12.2842 4.64785 18.2782
273 1 -1.1104 12.1342 4.75239 15.4812
275 2 2.2208 7.98586 6.1908 19.4365
277 1 -1.1104 9.13209 2.01846 18.1685
280 1 -1.1104 9.48 1.90871 15.0525
283 2 2.2208 8.01319 3.50317 16.61
285 1 -1.1104 9.5978 4.92174 17.8115
287 1 -1.1104 9.3959 4.90755 15.2442
267 1 -1.1104 12.308 7.48976 15.1582
304 1 -1.1104 3.66825 -3.94311 20.7879
307 1 -1.1104 3.79997 -0.890763 20.9342
300 1 -1.1104 0.746473 -0.897563 20.7878
367 2 2.2208 10.8984 6.09468 22.2907
227 1 -1.1104 6.64412 7.73735 15.1604
378 1 -1.1104 12.2677 7.5224 23.6731
294 1 -1.1104 0.757237 -3.75831 20.8749
309 2 2.2208 5.10148 0.632741 22.24
311 1 -1.1104 0.76623 -3.91409 23.5568
317 1 -1.1104 0.877419 -3.74123 26.5709
323 2 2.2208 5.10806 -2.46472 24.962
325 1 -1.1104 0.758066 -1.18393 23.6377
329 1 -1.1104 0.853145 -1.04822 26.6895
333 2 2.2208 2.12889 0.2526 25.212
335 1 -1.1104 3.51037 -3.54318 23.7216
338 1 -1.1104 3.61215 -3.81176 26.5751
341 2 2.2208 2.36922 -2.23051 22.171
343 1 -1.1104 3.47727 -0.797877 23.7602
345 1 -1.1104 3.61771 -1.09555 26.5672
327 1 -1.1104 6.36052 -1.17357 23.6331
314 1 -1.1104 6.19602 -3.95486 23.6293
387 1 -1.1104 9.47357 7.68001 23.6219
370 1 -1.1104 12.1948 1.92483 20.7807
302 1 -1.1104 6.41613 -0.640746 20.8686
331 1 -1.1104 6.38136 -0.967283 26.3875
320 1 -1.1104 6.48796 -3.71873 26.5372
297 1 -1.1104 6.47325 -3.75203 20.6693
380 1 -1.1104 9.29469 -3.72727 20.7022
383 1 -1.1104 9.33347 -1.12849 20.9372
374 1 -1.1104 12.125 -0.967956 21.2468
386 1 -1.1104 9.21013 -3.68923 26.3846
391 2 2.2208 10.7997 -2.26537 24.8754
390 1 -1.1104 9.31311 -3.78533 23.4939
355 1 -1.1104 9.12483 -0.704862 26.5311
358 1 -1.1104 9.19274 -0.697004 23.8117
360 2 2.2208 7.76591 -2.42027 22.154
364 2 2.2208 7.80194 0.417597 25.1418
366 1 -1.1104 12.207 -3.61242 23.4956
368 1 -1.1104 11.9381 -0.715663 26.3566
372 1 -1.1104 11.9513 -3.77699 26.3744
373 2 2.2208 10.6155 0.433789 22.4136
377 1 -1.1104 12.2996 -0.988745 23.7451
363 1 -1.1104 12.1263 2.21165 23.7789
245 1 -1.1104 3.6704 7.71646 15.1499
204 2 2.2208 13.6453 6.3026 13.6502
395 2 2.2208 13.5418 3.17503 22.4749
301 1 -1.1104 1.34663 4.74338 20.753
308 1 -1.1104 3.98023 4.68216 20.6973
295 1 -1.1104 0.943701 1.95704 20.7965
305 1 -1.1104 3.71613 1.8764 20.7712
306 1 -1.1104 4.08559 7.44896 20.5049
303 1 -1.1104 6.65095 4.91726 20.8146
340 1 -1.1104 3.90264 7.49707 26.4655
337 1 -1.1104 3.92553 7.51613 23.6424
361 1 -1.1104 9.49291 7.57402 26.6075
310 2 2.2208 5.38703 6.18457 22.3247
312 1 -1.1104 0.753272 1.80631 23.6034
318 1 -1.1104 0.927392 1.93837 26.6636
324 2 2.2208 5.15546 3.35296 24.93
326 1 -1.1104 0.827882 4.53133 23.56
330 1 -1.1104 0.842007 4.71283 26.48
334 2 2.2208 2.3237 6.2557 24.8528
336 1 -1.1104 3.90133 1.77548 23.624
339 1 -1.1104 3.38254 1.71398 26.4003
342 2 2.2208 2.27122 3.22865 22.307
344 1 -1.1104 3.77333 4.61623 23.3977
346 1 -1.1104 3.67398 4.50016 26.1769
396 2 2.2208 10.646 -5.01987 22.1826
321 1 -1.1104 6.28657 1.91284 26.475
328 1 -1.1104 6.66218 4.79258 23.5408
162 2 2.2208 2.21581 6.52401 13.9889
332 1 -1.1104 6.50653 4.66954 26.2572
259 2 2.2208 5.11711 -5.05334 16.7106
365 1 -1.1104 12.191 4.72868 26.5074
353 2 2.2208 2.36585 -5.08215 25.0406
389 1 -1.1104 9.32527 2.09633 23.5295
357 2 2.2208 7.99795 6.13469 25.3355
376 1 -1.1104 12.1239 4.90637 23.9098
288 2 2.2208 13.6042 0.47147 19.6049
388 2 2.2208 10.5787 3.5238 25.1375
299 1 -1.1104 6.84959 7.52726 20.9345
375 1 -1.1104 12.2834 4.61584 20.9638
354 1 -1.1104 9.26866 4.5965 26.5387
382 1 -1.1104 9.6017 7.7259 20.6373
356 1 -1.1104 9.35469 4.96104 23.7705
385 1 -1.1104 9.25987 2.03404 26.3133
359 2 2.2208 8.06051 3.34656 22.2161
298 1 -1.1104 6.51213 2.15803 20.8456
362 1 -1.1104 12.392 1.96257 26.4851
315 1 -1.1104 6.44154 1.91582 23.743
257 2 2.2208 2.18039 -5.04362 19.2435
9700 2 2.2208 13.5105 -5.23806 25.083
9617 2 2.2208 13.5637 -5.03543 19.3097
316 1 -1.1104 6.68534 7.47848 23.9632
281 1 -1.1104 9.54311 7.69241 15.1216
371 1 -1.1104 12.5947 7.44181 20.9414
201 2 2.2208 7.96528 0.305577 13.7638
398 2 2.2208 5.35905 11.7614 5.17277
400 1 -1.1104 0.989697 13.2533 1.1911
406 1 -1.1104 1.12254 13.1529 3.92099
410 2 2.2208 5.2777 9.04694 2.60423
413 1 -1.1104 0.935881 10.3743 0.930411
421 1 -1.1104 1.19208 10.2366 3.63734
425 2 2.2208 2.44252 11.8075 2.39522
427 1 -1.1104 3.89557 13.1213 0.874945
430 1 -1.1104 3.9386 13.2028 3.8678
432 2 2.2208 2.40996 8.72434 5.29336
435 1 -1.1104 3.66351 10.4463 1.10332
439 1 -1.1104 3.79588 10.3292 4.03299
403 1 -1.1104 6.50975 13.085 1.01601
408 1 -1.1104 6.61007 13.2706 3.67626
537 2 2.2208 -0.322471 20.2398 7.99863
493 2 2.2208 13.5573 8.91892 -0.460092
541 2 2.2208 -0.430478 14.5142 13.6442
428 1 -1.1104 3.80965 13.191 6.5323
401 1 -1.1104 0.932511 12.9785 6.66495
571 2 2.2208 10.7691 17.4511 10.9994
423 1 -1.1104 6.74331 10.316 3.92288
417 1 -1.1104 6.72127 10.2589 1.10526
485 2 2.2208 8.21333 20.3835 -0.433898
453 2 2.2208 11.0254 11.6297 5.07375
455 1 -1.1104 12.0994 13.0837 1.17685
458 1 -1.1104 12.3614 13.2516 3.91967
460 2 2.2208 10.9298 8.96083 2.36141
463 1 -1.1104 12.3288 10.3987 0.984002
467 1 -1.1104 12.2981 10.3875 3.76208
469 2 2.2208 8.09778 11.8126 2.4307
471 1 -1.1104 9.16311 13.0957 0.874892
474 1 -1.1104 9.42672 13.16 3.52828
476 2 2.2208 8.1296 8.92046 5.38997
479 1 -1.1104 9.6403 10.312 1.05704
483 1 -1.1104 9.50765 10.4019 3.83753
447 2 2.2208 -0.258396 14.6085 2.5079
404 1 -1.1104 6.57209 13.1385 6.66685
574 2 2.2208 13.6076 20.3635 10.7935
452 2 2.2208 -0.383273 11.7618 5.18321
399 2 2.2208 5.151 17.3792 5.28923
402 1 -1.1104 1.26039 18.9042 1.00124
407 1 -1.1104 0.929512 18.866 3.62046
411 2 2.2208 5.1692 14.5395 2.34265
412 2 2.2208 5.33013 20.0789 2.4088
415 1 -1.1104 1.03183 16.0854 1.10959
422 1 -1.1104 1.1296 15.9813 3.85205
426 2 2.2208 2.53402 17.4783 2.24404
429 1 -1.1104 3.94345 18.8644 0.929975
431 1 -1.1104 3.68035 18.775 3.901
433 2 2.2208 2.41626 14.5441 5.2657
434 2 2.2208 2.41001 20.1607 5.1881
437 1 -1.1104 3.84769 16.0727 0.934594
440 1 -1.1104 3.97619 15.993 3.85985
405 1 -1.1104 6.65372 18.9672 1.03179
544 2 2.2208 4.99843 20.0932 13.4771
449 2 2.2208 -0.212649 17.4318 5.10819
559 2 2.2208 10.9208 14.5458 8.03864
448 2 2.2208 -0.335404 8.95289 2.44596
446 2 2.2208 -0.239296 20.3242 2.20653
409 1 -1.1104 6.51608 18.5624 3.84014
419 1 -1.1104 6.76262 15.991 0.968659
424 1 -1.1104 6.80225 15.9591 3.90163
515 1 -1.1104 6.33808 15.943 11.9665
454 2 2.2208 10.8127 17.5475 5.17223
457 1 -1.1104 12.2387 18.8937 1.05227
459 1 -1.1104 12.0562 18.9304 3.76011
461 2 2.2208 10.959 14.782 2.4535
462 2 2.2208 10.7034 20.2422 2.36853
465 1 -1.1104 12.2409 16.0604 0.98295
468 1 -1.1104 12.4435 15.9309 3.96646
470 2 2.2208 8.1124 17.3958 2.59847
473 1 -1.1104 9.40381 18.8489 1.07003
475 1 -1.1104 9.27855 18.9466 3.91661
477 2 2.2208 8.06797 14.5009 5.17904
478 2 2.2208 7.98107 20.2331 5.36265
481 1 -1.1104 9.50107 15.9554 0.920829
484 1 -1.1104 9.5008 16.0712 3.76699
451 2 2.2208 -0.460335 11.804 -0.319651
487 2 2.2208 8.04528 9.05181 -0.252656
414 1 -1.1104 0.912282 10.0523 6.68126
552 2 2.2208 7.8008 20.2109 10.803
436 1 -1.1104 3.75281 10.1481 6.71844
499 2 2.2208 5.2055 11.8928 10.9019
501 1 -1.1104 1.21655 13.1739 12.2539
505 1 -1.1104 0.752264 13.1269 9.33585
509 2 2.2208 5.01945 8.93027 8.31216
512 1 -1.1104 0.839495 10.3521 12.1358
516 1 -1.1104 0.691763 10.2683 9.36406
520 2 2.2208 2.26276 11.6579 8.11001
522 1 -1.1104 3.78741 13.1055 12.2361
524 1 -1.1104 3.73602 12.9827 9.26614
526 2 2.2208 2.35686 8.94723 10.9432
529 1 -1.1104 3.68628 10.3945 12.6922
531 1 -1.1104 3.64849 10.2157 9.48468
518 1 -1.1104 6.43649 10.3167 9.50597
514 1 -1.1104 6.52914 10.4764 12.1582
507 1 -1.1104 6.57336 13.2076 9.45457
418 1 -1.1104 6.546 10.3841 6.70976
443 2 2.2208 2.30151 8.83982 -0.342513
464 1 -1.1104 12.4153 10.3927 6.63787
503 1 -1.1104 6.6489 13.0564 12.298
472 1 -1.1104 9.52088 13.1506 6.39207
480 1 -1.1104 9.76106 10.1217 6.59117
456 1 -1.1104 12.258 13.1071 6.61196
572 1 -1.1104 12.4801 13.335 12.1421
570 2 2.2208 11.0149 11.8772 10.961
562 2 2.2208 10.819 8.92872 8.249
568 1 -1.1104 9.74862 13.3039 12.1996
566 1 -1.1104 9.63775 13.2175 9.36319
557 1 -1.1104 12.2289 10.6016 12.4729
555 1 -1.1104 12.2852 10.3923 9.56187
554 2 2.2208 7.93557 9.008 10.8838
564 1 -1.1104 12.4468 13.1606 9.42013
550 2 2.2208 8.09634 11.6417 8.00016
547 1 -1.1104 9.33356 10.3076 9.28664
549 1 -1.1104 9.43291 10.6063 12.2549
438 1 -1.1104 3.68027 15.9043 6.76513
416 1 -1.1104 0.965968 16.0132 6.55806
497 1 -1.1104 6.63485 19.0112 6.80717
420 1 -1.1104 6.54148 16.1168 6.46659
498 1 -1.1104 3.79403 18.7595 6.73489
496 1 -1.1104 1.19086 18.7909 6.76292
500 2 2.2208 5.15794 17.3039 10.6764
502 1 -1.1104 0.936067 18.5777 12.1882
506 1 -1.1104 0.927029 18.9424 9.51082
510 2 2.2208 5.20568 14.5562 7.91584
511 2 2.2208 5.11694 20.1189 8.05144
513 1 -1.1104 0.982681 15.8354 12.2703
517 1 -1.1104 1.02198 15.9628 9.24492
521 2 2.2208 2.30366 17.3818 8.00268
523 1 -1.1104 3.6783 18.8408 12.1799
525 1 -1.1104 3.70045 18.9815 9.29
527 2 2.2208 2.29496 14.4694 10.6026
528 2 2.2208 2.36165 20.2047 10.7626
530 1 -1.1104 3.68539 15.8647 12.1632
532 1 -1.1104 3.80191 15.9936 9.45163
504 1 -1.1104 6.42733 18.7662 12.5124
519 1 -1.1104 6.65885 16.0285 9.23958
577 2 2.2208 10.8938 14.7796 13.5674
482 1 -1.1104 9.40829 16.019 6.39783
491 2 2.2208 13.6525 8.88704 5.18065
563 1 -1.1104 12.2798 18.8736 9.56649
466 1 -1.1104 12.1849 15.926 6.74613
560 1 -1.1104 12.3741 19.0539 6.75499
558 2 2.2208 10.9072 20.2303 8.16751
551 1 -1.1104 12.2036 16.0286 9.49495
546 1 -1.1104 9.52778 15.8666 9.42352
508 1 -1.1104 6.48363 18.7168 9.52216
548 1 -1.1104 9.33891 15.9684 12.2836
561 1 -1.1104 9.53858 18.6823 6.70158
569 2 2.2208 8.12241 17.2943 7.90493
565 1 -1.1104 9.62754 18.7268 9.38086
567 1 -1.1104 9.18673 18.7364 12.2701
573 1 -1.1104 11.8991 18.8476 12.3102
556 1 -1.1104 12.3423 16.2582 12.0801
553 2 2.2208 7.94479 14.5487 10.7308
545 2 2.2208 -0.289688 20.1922 13.6453
582 2 2.2208 13.4865 17.3105 8.0891
583 2 2.2208 13.6401 17.3368 13.6964
194 1 -1.1104 9.50437 7.74296 12.4676
486 2 2.2208 7.97652 14.5534 -0.400997
444 2 2.2208 5.54869 17.3794 -0.40244
586 2 2.2208 5.32747 11.8767 16.6388
588 1 -1.1104 0.894009 13.4124 17.9596
592 1 -1.1104 1.02437 13.4548 15.0708
596 2 2.2208 5.40392 9.03523 19.2252
599 1 -1.1104 1.06778 10.5935 17.7172
603 1 -1.1104 0.96081 10.7228 14.9843
607 2 2.2208 2.29064 11.7639 19.1849
609 1 -1.1104 3.74585 13.2188 17.9665
611 1 -1.1104 3.82858 13.3029 15.3348
613 2 2.2208 2.48334 9.05011 16.4763
616 1 -1.1104 4.102 10.4657 18.0559
618 1 -1.1104 3.90738 10.4721 15.2988
601 1 -1.1104 6.99136 10.4094 18.0414
594 1 -1.1104 6.71185 13.2984 15.1313
590 1 -1.1104 6.63673 13.5415 17.8628
535 2 2.2208 5.19221 9.0693 13.9322
578 2 2.2208 10.9572 8.96511 13.7911
536 2 2.2208 2.50729 11.9119 13.9181
704 2 2.2208 -0.255768 20.3226 25.0023
605 1 -1.1104 6.68191 10.3545 15.0969
625 2 2.2208 10.8948 11.9371 16.3878
627 1 -1.1104 12.4641 13.3065 17.8861
629 1 -1.1104 12.1842 13.3173 14.9658
632 2 2.2208 10.9612 8.98238 19.2718
635 1 -1.1104 12.372 10.6193 17.7164
637 1 -1.1104 12.4463 10.4056 15.1279
639 2 2.2208 8.23766 11.8676 19.2718
641 1 -1.1104 9.6145 13.3718 18.009
643 1 -1.1104 9.47081 13.6321 15.0394
646 2 2.2208 8.35113 8.89399 16.5936
649 1 -1.1104 9.69759 10.6377 17.877
651 1 -1.1104 9.63049 10.5693 15.1086
727 1 -1.1104 12.3174 15.9734 20.5688
718 2 2.2208 10.8401 20.2669 25.0082
621 2 2.2208 -0.416332 20.1373 19.3826
224 1 -1.1104 0.782144 7.79408 15.2474
587 2 2.2208 5.20887 17.4009 16.279
589 1 -1.1104 1.03832 19.0139 18.0835
593 1 -1.1104 1.12739 18.9275 15.0486
597 2 2.2208 5.3003 14.7147 19.3261
598 2 2.2208 5.41287 20.2437 19.1249
600 1 -1.1104 1.06609 16.3151 18.0612
604 1 -1.1104 1.00711 16.1971 15.3075
608 2 2.2208 2.63801 17.5311 19.1701
610 1 -1.1104 3.83954 18.944 17.5151
612 1 -1.1104 3.79961 18.815 14.8876
614 2 2.2208 2.32459 14.7252 16.7975
615 2 2.2208 2.47485 20.3625 16.4049
617 1 -1.1104 3.85679 15.8814 17.9049
619 1 -1.1104 3.82498 16.1636 14.9467
595 1 -1.1104 6.52061 18.8106 15.1558
579 2 2.2208 8.2206 11.9113 13.7859
713 2 2.2208 8.17059 20.226 22.1695
534 2 2.2208 4.9616 14.7712 13.6432
707 2 2.2208 -0.34988 17.4576 22.0552
450 2 2.2208 -0.397564 17.3503 27.6637
606 1 -1.1104 6.53273 16.1251 14.9431
445 2 2.2208 5.21845 11.752 27.7523
591 1 -1.1104 6.53001 18.7172 17.7756
602 1 -1.1104 6.49922 16.1252 17.9386
709 1 -1.1104 9.65947 16.1054 26.2984
626 2 2.2208 10.8738 17.5563 16.4704
628 1 -1.1104 12.0659 18.7733 18.1304
630 1 -1.1104 12.2771 18.9829 15.0771
633 2 2.2208 10.9206 14.7241 19.1205
634 2 2.2208 10.7392 20.2263 19.2882
636 1 -1.1104 12.2762 16.0232 17.7341
638 1 -1.1104 12.292 16.1989 15.0847
640 2 2.2208 8.04307 17.4256 19.3067
642 1 -1.1104 9.19563 18.9523 17.9812
644 1 -1.1104 9.22137 18.8992 15.1062
647 2 2.2208 7.96092 14.9165 16.6241
648 2 2.2208 7.9644 20.3591 16.4341
650 1 -1.1104 9.56882 16.2034 17.9411
652 1 -1.1104 9.37551 16.2331 15.0762
719 1 -1.1104 12.4204 15.8627 26.3596
489 2 2.2208 10.607 11.7515 27.6655
645 1 -1.1104 9.43108 18.8966 20.8395
657 2 2.2208 13.5527 20.3812 16.5924
662 1 -1.1104 0.961784 10.5029 20.5746
668 1 -1.1104 3.81638 10.4928 20.7027
660 1 -1.1104 6.53385 13.2325 20.7006
658 1 -1.1104 0.733069 13.0487 20.7757
716 1 -1.1104 9.48335 18.8993 26.3862
666 1 -1.1104 3.70941 13.1161 20.6161
670 2 2.2208 5.26976 11.689 22.2147
672 1 -1.1104 0.97615 13.1199 23.6526
676 1 -1.1104 0.924373 13.1635 26.4808
680 2 2.2208 5.36409 8.89044 25.1638
683 1 -1.1104 1.13754 10.2423 23.365
687 1 -1.1104 1.00647 10.0858 26.0745
691 2 2.2208 2.44153 11.6254 24.8792
693 1 -1.1104 3.76123 13.1807 23.2656
695 1 -1.1104 3.88822 13.1023 26.1055
697 2 2.2208 2.51583 8.96357 22.0553
700 1 -1.1104 3.87499 10.3307 23.6035
702 1 -1.1104 3.64957 10.2879 26.5136
685 1 -1.1104 6.83305 10.1869 23.4174
674 1 -1.1104 6.79877 12.9596 23.4762
689 1 -1.1104 6.62997 10.3882 26.546
739 2 2.2208 10.9951 17.3641 22.2456
726 1 -1.1104 12.4227 10.377 20.7313
678 1 -1.1104 6.73801 13.224 26.5332
722 1 -1.1104 12.2664 13.1179 20.853
731 1 -1.1104 9.70089 10.3711 20.7541
730 1 -1.1104 9.47933 13.2294 20.6225
664 1 -1.1104 6.61488 10.3069 20.6041
740 1 -1.1104 12.4757 13.2788 23.6676
738 2 2.2208 10.9696 11.6017 22.213
737 2 2.2208 8.09841 11.676 24.9343
710 1 -1.1104 9.39099 10.3591 26.4012
712 1 -1.1104 9.61224 10.3065 23.5725
715 2 2.2208 8.23677 9.10385 22.0722
717 2 2.2208 10.9671 8.87572 24.9246
721 1 -1.1104 12.2549 10.3915 26.2908
723 1 -1.1104 12.3635 13.1816 26.4646
729 1 -1.1104 12.3783 10.4483 23.6813
733 1 -1.1104 9.36665 13.2204 26.378
735 1 -1.1104 9.61436 12.9026 23.3901
533 2 2.2208 2.29161 17.448 13.6713
663 1 -1.1104 1.08477 16.0301 20.6743
659 1 -1.1104 1.11827 18.7832 20.8425
669 1 -1.1104 3.81847 16.1342 20.5404
576 2 2.2208 7.89699 17.4192 13.6444
667 1 -1.1104 3.86445 18.8787 20.6335
681 2 2.2208 5.50729 14.3985 24.9038
671 2 2.2208 5.24999 17.3166 22.1177
673 1 -1.1104 1.21926 18.8613 23.6017
677 1 -1.1104 1.18244 18.9202 26.3386
682 2 2.2208 5.3958 20.1774 25.0043
684 1 -1.1104 1.1686 16.0251 23.5458
688 1 -1.1104 1.1108 16.2038 26.442
692 2 2.2208 2.53398 17.3896 24.9631
694 1 -1.1104 3.85813 18.7772 23.4352
696 1 -1.1104 4.01813 18.6685 26.4067
698 2 2.2208 2.58033 14.6844 22.0212
699 2 2.2208 2.38079 20.1366 22.115
701 1 -1.1104 3.93215 16.0538 23.6
703 1 -1.1104 3.98415 15.8661 26.5614
686 1 -1.1104 6.71472 15.8451 23.3101
690 1 -1.1104 6.84178 15.98 26.1631
675 1 -1.1104 6.67556 18.8372 23.4368
661 1 -1.1104 6.87637 18.8967 20.5497
665 1 -1.1104 6.7997 15.8407 20.6105
736 2 2.2208 8.17398 17.3621 24.6802
708 2 2.2208 -0.363954 11.7121 22.0654
679 1 -1.1104 6.83057 18.8409 26.2467
720 1 -1.1104 12.1916 18.6858 26.3555
631 1 -1.1104 12.2261 18.7233 20.9462
732 1 -1.1104 9.64168 16.0853 20.6224
711 1 -1.1104 9.62906 15.7414 23.6229
714 2 2.2208 8.20109 14.4357 22.0233
734 1 -1.1104 9.56187 18.7105 23.6304
725 1 -1.1104 12.3362 16.0397 23.4322
724 2 2.2208 10.9247 14.6451 25.0422
728 1 -1.1104 12.607 18.9265 23.5702
705 2 2.2208 -0.305248 14.5992 24.9735
488 2 2.2208 10.874 17.3973 27.7783
218 1 -1.1104 1.10956 7.60162 17.8084
654 2 2.2208 13.639 17.4939 19.4318
745 2 2.2208 13.6474 20.1813 22.0514
442 2 2.2208 2.49924 14.6178 27.7313
441 2 2.2208 2.51997 20.2489 27.602
585 2 2.2208 10.7356 20.1577 13.7722
744 2 2.2208 13.572 14.5084 22.2949
706 2 2.2208 -0.386541 9.01351 24.7856
653 2 2.2208 13.6521 11.9466 19.288
620 2 2.2208 -0.353868 17.5587 16.525
623 2 2.2208 -0.372145 11.9574 16.6223
746 2 2.2208 5.18618 23.0822 5.4088
749 1 -1.1104 0.698082 24.5425 1.27748
753 1 -1.1104 1.17123 24.6468 3.88243
757 2 2.2208 4.99387 25.9219 2.35161
759 1 -1.1104 0.995835 21.7858 0.886906
765 1 -1.1104 1.2388 21.6857 3.91432
771 2 2.2208 2.32568 23.0329 2.46374
773 1 -1.1104 3.64118 24.6047 0.905918
775 1 -1.1104 3.79883 24.5089 3.89934
778 2 2.2208 2.50751 25.9001 5.15622
780 1 -1.1104 3.98951 21.6882 1.10985
783 1 -1.1104 3.92655 21.6995 3.88407
784 1 -1.1104 3.75 27.2905 3.5912
766 1 -1.1104 0.967775 27.5227 4.03743
841 1 -1.1104 4.0185 27.2726 6.43345
755 1 -1.1104 6.71643 24.3259 3.9267
751 1 -1.1104 6.49612 24.3758 1.22553
824 2 2.2208 13.547 31.5045 5.10864
781 1 -1.1104 3.6028 27.6536 0.876291
840 1 -1.1104 3.77395 21.4401 6.67085
833 1 -1.1104 1.04895 27.2642 6.94366
762 1 -1.1104 6.82556 21.6191 1.28963
768 1 -1.1104 6.53524 21.4093 4.11825
830 1 -1.1104 6.75407 24.5909 6.87249
793 2 2.2208 10.8363 22.9989 5.20662
795 1 -1.1104 12.2652 24.4576 0.980805
797 1 -1.1104 12.2901 24.3583 3.79903
799 2 2.2208 10.6134 25.892 2.46063
801 1 -1.1104 12.1731 21.6966 0.954323
804 1 -1.1104 12.0511 21.5833 3.76571
807 2 2.2208 7.98473 22.9859 2.57971
809 1 -1.1104 9.3652 24.5222 0.885328
811 1 -1.1104 9.56174 24.4048 3.8364
814 2 2.2208 7.84865 25.8696 5.11502
816 1 -1.1104 9.53831 21.6334 0.990486
819 1 -1.1104 9.17107 21.7648 3.86689
817 1 -1.1104 9.12823 27.3087 1.18015
820 1 -1.1104 9.34716 27.0545 3.91458
882 2 2.2208 -0.402388 22.9138 10.9919
897 1 -1.1104 12.2296 21.7568 6.59325
769 1 -1.1104 6.61964 26.937 3.63994
898 1 -1.1104 12.2474 27.465 6.67145
760 1 -1.1104 1.06314 27.5715 0.794793
763 1 -1.1104 6.43779 27.3276 0.908079
748 2 2.2208 5.33452 28.6207 5.28347
750 1 -1.1104 1.04887 30.3366 0.838615
754 1 -1.1104 0.846812 30.1594 3.65708
758 2 2.2208 5.09187 31.5495 2.42084
761 1 -1.1104 0.868714 33.1522 0.977077
767 1 -1.1104 1.11232 33.0197 3.84683
772 2 2.2208 2.42132 28.8687 2.30594
774 1 -1.1104 3.71106 30.231 0.886051
776 1 -1.1104 3.77676 30.2517 3.77119
779 2 2.2208 2.59909 31.3344 5.53899
782 1 -1.1104 3.74115 32.9262 1.03764
785 1 -1.1104 3.86565 33.0378 3.88108
752 1 -1.1104 6.50402 30.0584 1.15994
770 1 -1.1104 6.55683 32.7335 3.73945
764 1 -1.1104 6.44082 32.9498 1.01496
756 1 -1.1104 6.62213 29.775 3.99873
829 1 -1.1104 1.046 30.0107 6.45785
842 1 -1.1104 3.81774 32.6601 6.7662
790 2 2.2208 -0.392485 31.5426 2.48562
813 2 2.2208 7.98381 25.7453 -0.382702
1036 2 2.2208 13.6161 28.7469 13.6438
802 1 -1.1104 12.0376 27.057 0.941659
805 1 -1.1104 12.3193 27.2068 3.71764
794 2 2.2208 11.0199 28.7344 5.16432
796 1 -1.1104 12.0173 30.0028 1.06263
798 1 -1.1104 12.2166 30.1576 3.81422
800 2 2.2208 10.8102 31.421 2.40756
803 1 -1.1104 12.1394 32.9122 0.923162
806 1 -1.1104 12.0829 32.9927 3.67711
808 2 2.2208 7.73319 28.5762 2.42723
810 1 -1.1104 9.15501 29.8823 0.954324
812 1 -1.1104 9.55534 29.8696 3.89405
815 2 2.2208 8.03251 31.383 5.18558
818 1 -1.1104 9.22671 32.7965 1.14395
821 1 -1.1104 9.40638 32.7266 4.00227
1115 2 2.2208 10.7401 28.697 -0.390986
837 1 -1.1104 6.30439 32.7803 6.56835
899 1 -1.1104 12.3367 32.7853 6.66721
901 1 -1.1104 9.529 30.2705 6.57255
896 1 -1.1104 12.3206 30.17 6.51361
838 1 -1.1104 3.79406 24.4853 6.71261
832 1 -1.1104 1.05055 21.6363 6.64464
908 1 -1.1104 9.33097 30.2341 9.43802
828 1 -1.1104 0.982224 24.6036 6.69572
835 1 -1.1104 6.59387 21.6916 6.84681
844 2 2.2208 5.17435 23.1751 10.9465
846 1 -1.1104 0.95082 24.282 12.4484
850 1 -1.1104 0.845465 24.7537 9.5521
854 2 2.2208 5.26963 25.9865 8.04589