ITEM: TIMESTEP
60000
ITEM: NUMBER OF ATOMS
18000
ITEM: BOX BOUNDS pp pp pp
-4.3312965413813415e-01 2.7773129654138334e+01
-5.2031525785309292e+00 3.3328315257853075e+02
-4.3387795459845929e-01 2.7773877954599556e+01
ITEM: ATOMS id type q x y z
1 2 2.2208 4.92538 0.580402 5.38681
3 1 -1.1104 0.856854 -3.8593 1.21614
15 1 -1.1104 0.863183 -3.73918 3.95399
21 2 2.2208 5.03051 -2.34322 2.50536
23 1 -1.1104 0.662438 -0.855382 0.822424
31 1 -1.1104 0.635867 -0.982492 3.59136
35 2 2.2208 2.07331 0.482679 2.50943
37 1 -1.1104 3.55662 -3.84316 0.781791
43 1 -1.1104 3.64356 -3.62784 3.84964
46 2 2.2208 2.26194 -2.35452 5.199
48 1 -1.1104 3.65509 -1.03161 1.26013
52 1 -1.1104 3.53614 -1.02988 3.98869
18 1 -1.1104 6.4856 -3.87817 3.89799
41 1 -1.1104 3.71495 7.48834 0.843492
108 2 2.2208 7.78803 -2.32313 -0.393277
56 2 2.2208 5.05991 6.08744 -0.449549
207 2 2.2208 13.4524 6.10309 8.0986
55 2 2.2208 1.95171 -2.28191 -0.265918
162 2 2.2208 2.25655 6.2405 13.4585
104 1 -1.1104 9.28302 4.6513 6.71153
27 1 -1.1104 6.56709 -0.987429 0.882476
9 1 -1.1104 6.37916 -3.61676 1.11088
160 2 2.2208 5.05474 3.2757 13.7247
33 1 -1.1104 6.129 -1.12495 4.0326
69 2 2.2208 10.7211 0.466212 5.27601
71 1 -1.1104 12.0525 -3.63516 0.889505
77 1 -1.1104 12.3261 -4.11388 3.95891
80 2 2.2208 10.7074 -2.2617 2.28061
82 1 -1.1104 12.1894 -0.92315 0.934573
86 1 -1.1104 11.9203 -1.08314 3.82009
88 2 2.2208 7.70641 0.434765 2.37674
90 1 -1.1104 9.16924 -3.69324 0.80574
96 1 -1.1104 9.37592 -3.72744 3.65594
99 2 2.2208 7.77071 -2.5144 5.33197
101 1 -1.1104 9.28111 -0.889078 0.750988
105 1 -1.1104 9.09428 -1.18216 3.71533
42 1 -1.1104 3.85172 7.38697 6.60806
83 1 -1.1104 12.1912 -0.675994 6.80136
168 2 2.2208 2.32784 -5.07169 8.22279
12 1 -1.1104 6.534 1.92547 6.73342
95 1 -1.1104 9.48982 7.40907 6.54323
194 1 -1.1104 9.47449 7.766 12.232
57 2 2.2208 5.18664 0.431728 -0.447632
2 2 2.2208 5.11918 5.79463 5.28053
5 1 -1.1104 0.69699 2.01617 1.12847
16 1 -1.1104 0.906262 1.69719 4.05318
22 2 2.2208 5.00093 3.24143 2.37129
25 1 -1.1104 0.807131 4.88852 1.0496
32 1 -1.1104 0.819599 4.77013 3.81526
36 2 2.2208 2.20269 6.00393 2.40039
39 1 -1.1104 3.54624 1.88536 1.21076
44 1 -1.1104 3.46015 1.95315 3.88225
47 2 2.2208 2.21273 3.25866 5.2187
50 1 -1.1104 3.79707 4.63528 1.074
53 1 -1.1104 3.53648 4.64883 3.55624
172 1 -1.1104 9.16582 4.80977 9.55062
17 1 -1.1104 0.89336 7.54116 3.7271
7 1 -1.1104 0.974239 7.55955 1.20235
45 1 -1.1104 3.62964 7.35105 3.76201
13 1 -1.1104 6.7554 7.41783 0.981384
20 1 -1.1104 6.40866 7.5417 3.92388
198 2 2.2208 7.842 5.82626 8.18364
40 1 -1.1104 3.89782 1.86238 6.83879
182 1 -1.1104 9.45035 7.48963 9.34095
109 2 2.2208 10.6144 6.00652 -0.332763
181 1 -1.1104 12.1559 7.70542 12.1752
29 1 -1.1104 6.47974 4.44249 1.01993
11 1 -1.1104 6.47045 1.76241 0.921453
34 1 -1.1104 6.48027 4.63663 3.81941
112 2 2.2208 13.6362 6.10032 2.33834
19 1 -1.1104 6.4145 1.72973 3.69622
70 2 2.2208 10.7242 6.01984 4.90953
73 1 -1.1104 12.1519 1.72722 1.14428
78 1 -1.1104 12.1589 1.66481 3.77962
81 2 2.2208 10.7922 3.20174 2.6117
84 1 -1.1104 12.138 4.5947 0.989446
87 1 -1.1104 12.2515 4.69471 3.67154
89 2 2.2208 7.83806 6.04627 2.34302
92 1 -1.1104 9.29454 1.94522 1.13493
97 1 -1.1104 9.1738 1.84349 3.84515
100 2 2.2208 8.01782 3.20635 5.41982
103 1 -1.1104 9.37413 4.64636 1.06421
106 1 -1.1104 9.45915 4.54066 3.96588
94 1 -1.1104 9.42055 7.48578 0.954721
75 1 -1.1104 12.1695 7.32084 0.854338
79 1 -1.1104 12.1236 7.41504 3.66151
66 2 2.2208 2.19492 -5.021 2.52834
206 2 2.2208 13.5205 0.71088 8.06669
195 1 -1.1104 9.37026 1.90323 12.2992
24 1 -1.1104 0.834755 -0.737445 6.59642
38 1 -1.1104 3.63281 -3.81711 6.83752
49 1 -1.1104 3.59656 -0.874419 6.67865
4 1 -1.1104 0.914151 -3.74753 6.85287
122 2 2.2208 5.22906 0.446543 10.9752
124 1 -1.1104 0.956244 -3.74231 12.5947
130 1 -1.1104 0.807217 -3.77181 9.78522
136 2 2.2208 4.91883 -2.2298 8.3264
138 1 -1.1104 1.09669 -0.865331 12.3833
142 1 -1.1104 0.948928 -0.820481 9.62722
146 2 2.2208 2.14808 0.556768 8.23592
148 1 -1.1104 3.93779 -3.70202 12.4648
151 1 -1.1104 3.67043 -3.60527 9.70569
154 2 2.2208 2.34477 -2.28831 11.1061
156 1 -1.1104 3.9368 -0.843556 12.4552
158 1 -1.1104 3.63217 -0.646691 9.58096
28 1 -1.1104 6.46798 -0.873345 6.59923
144 1 -1.1104 6.40168 -0.973196 9.70729
133 1 -1.1104 6.55755 -3.90023 9.68708
127 1 -1.1104 6.65778 -3.96033 12.535
10 1 -1.1104 6.3044 -3.79989 6.99467
140 1 -1.1104 6.72356 -0.897225 12.5059
179 1 -1.1104 12.1704 4.5827 9.50205
102 1 -1.1104 9.3201 -1.10953 6.56843
91 1 -1.1104 9.27015 -3.8484 6.60874
72 1 -1.1104 12.0444 -3.63041 6.61085
190 2 2.2208 10.7225 0.383934 10.9692
177 2 2.2208 7.89089 -2.32917 11.0631
197 1 -1.1104 9.39041 -3.76311 12.3801
196 2 2.2208 10.8181 -2.39479 8.0081
180 1 -1.1104 12.2784 -3.65043 9.64131
188 1 -1.1104 12.3568 -0.820264 12.2826
175 1 -1.1104 9.39016 -0.935005 12.284
178 2 2.2208 8.02414 0.425578 8.01809
186 1 -1.1104 12.1036 -3.57426 12.3544
193 1 -1.1104 9.49253 -3.89539 9.28284
184 1 -1.1104 12.1206 -1.02021 9.57776
173 1 -1.1104 9.25281 -1.08214 9.66797
183 1 -1.1104 9.28991 1.97221 9.35285
128 1 -1.1104 6.64763 1.84162 12.6095
115 2 2.2208 13.6294 -2.35643 -0.367225
176 2 2.2208 7.95244 3.20846 10.9067
116 2 2.2208 13.5841 3.23093 -0.222229
26 1 -1.1104 0.802212 4.7521 6.60228
51 1 -1.1104 3.47434 4.56112 6.40093
113 2 2.2208 13.4078 -2.40613 5.30429
8 1 -1.1104 1.01406 7.6055 6.72455
30 1 -1.1104 6.4736 4.5767 6.67581
6 1 -1.1104 0.955245 2.05745 6.7385
153 1 -1.1104 3.50424 7.6771 9.49406
132 1 -1.1104 0.801296 7.6478 9.49575
126 1 -1.1104 0.940475 7.63942 12.1673
150 1 -1.1104 3.65726 7.68176 12.2091
121 1 -1.1104 3.80407 4.77418 9.46403
123 2 2.2208 5.05271 6.20712 10.881
125 1 -1.1104 0.983695 1.90348 12.3516
131 1 -1.1104 0.808841 1.90511 9.32581
137 2 2.2208 5.07874 3.28431 8.1455
139 1 -1.1104 0.806803 4.87084 12.2949
143 1 -1.1104 1.02398 4.85129 9.33839
147 2 2.2208 2.04939 6.21157 8.12641
149 1 -1.1104 3.60487 1.84418 12.4532
152 1 -1.1104 3.73398 1.93742 9.65167
155 2 2.2208 2.26193 3.2378 10.9008
157 1 -1.1104 3.55324 4.64991 12.2397
141 1 -1.1104 6.23027 4.69186 12.1879
199 1 -1.1104 12.1206 7.37655 9.34414
187 1 -1.1104 12.1349 4.90902 12.3117
76 1 -1.1104 12.3752 7.50083 6.38477
74 1 -1.1104 12.323 2.1122 6.72017
93 1 -1.1104 9.67305 1.69477 6.65004
145 1 -1.1104 6.52146 4.4717 9.42593
189 2 2.2208 10.699 6.15112 10.7529
85 1 -1.1104 12.1996 4.6375 6.55937
174 1 -1.1104 9.18051 4.81423 12.4146
192 1 -1.1104 11.9362 1.84857 9.44029
191 2 2.2208 10.9353 3.21658 7.96343
134 1 -1.1104 6.5513 1.90599 9.62249
14 1 -1.1104 6.45342 7.36572 6.50315
129 1 -1.1104 6.59537 7.42367 12.3318
135 1 -1.1104 6.5266 7.47157 9.47537
98 1 -1.1104 9.34668 7.19996 3.61723
185 1 -1.1104 12.0125 2.10385 12.131
211 2 2.2208 13.4323 -5.15568 8.13257
202 2 2.2208 10.719 3.40313 13.5763
54 2 2.2208 2.308 3.35719 -0.320157
111 2 2.2208 13.3303 0.226698 2.52443
209 2 2.2208 13.6 3.48852 11.1108
119 2 2.2208 10.7418 -5.17382 5.37114
110 2 2.2208 10.7709 0.582735 -0.350343
214 2 2.2208 5.0632 0.509345 16.6248
216 1 -1.1104 0.93832 -3.92118 18.2506
222 1 -1.1104 0.889749 -3.79878 15.3248
228 2 2.2208 5.09378 -2.45974 19.3306
230 1 -1.1104 0.867795 -0.8783 17.9651
234 1 -1.1104 0.956439 -0.881145 15.1205
238 2 2.2208 2.23682 0.398611 19.1278
240 1 -1.1104 3.67475 -3.91168 18.1411
243 1 -1.1104 3.66388 -3.7633 15.3482
246 2 2.2208 2.24469 -2.42987 16.6304
248 1 -1.1104 3.66065 -1.09939 17.9738
250 1 -1.1104 3.60184 -0.948664 15.1682
200 2 2.2208 10.8293 -2.30277 13.7122
225 1 -1.1104 6.44399 -3.76156 15.239
376 1 -1.1104 12.1283 4.56172 23.7148
291 2 2.2208 7.87475 -5.17746 19.3601
219 1 -1.1104 6.59205 -3.89519 18.0276
232 1 -1.1104 6.4978 -0.9494 17.9597
9616 2 2.2208 13.4237 6.09635 19.2777
236 1 -1.1104 6.45117 -0.897876 15.2697
260 2 2.2208 10.7512 0.350524 16.6995
262 1 -1.1104 12.2344 -3.44293 17.9081
265 1 -1.1104 12.2804 -3.67318 15.296
268 2 2.2208 10.6089 -2.29855 19.3436
270 1 -1.1104 12.0738 -0.69981 18.0938
272 1 -1.1104 12.0485 -0.869163 15.1805
274 2 2.2208 7.91345 0.505789 19.4007
276 1 -1.1104 9.47961 -3.76618 17.9948
279 1 -1.1104 9.39939 -3.72461 15.0884
282 2 2.2208 7.79973 -2.39264 16.6935
284 1 -1.1104 9.24906 -0.926727 17.9838
286 1 -1.1104 9.31347 -1.15684 15.1813
374 1 -1.1104 12.3307 -0.964003 20.8705
380 1 -1.1104 9.22506 -3.78547 20.7926
252 2 2.2208 2.26016 -5.16057 13.8902
385 1 -1.1104 9.35779 1.91679 26.3427
161 2 2.2208 2.4174 0.455222 13.798
204 2 2.2208 13.6207 6.28305 13.806
224 1 -1.1104 0.779574 7.55989 15.1311
215 2 2.2208 5.16094 6.19212 16.483
217 1 -1.1104 0.697797 1.92024 17.8838
223 1 -1.1104 0.820079 2.09476 15.1625
229 2 2.2208 4.9326 3.19833 19.199
231 1 -1.1104 0.801989 4.73055 18.0044
235 1 -1.1104 0.95023 4.75594 14.9413
239 2 2.2208 2.25891 6.10233 19.4264
241 1 -1.1104 3.50452 1.77731 17.779
244 1 -1.1104 3.67465 1.87567 15.0183
247 2 2.2208 2.06443 3.36823 16.5513
249 1 -1.1104 3.44651 4.60104 18.0118
251 1 -1.1104 3.7929 4.65208 15.039
245 1 -1.1104 3.71208 7.63741 14.8865
218 1 -1.1104 0.798873 7.36038 18.0097
226 1 -1.1104 6.53085 1.94684 15.1915
259 2 2.2208 5.1129 -5.28195 16.7955
242 1 -1.1104 3.68383 7.37778 17.9304
201 2 2.2208 8.014 0.517009 13.888
290 2 2.2208 13.6372 3.27452 16.5376
9617 2 2.2208 13.4785 -5.19051 19.4464
237 1 -1.1104 6.56194 4.81293 15.1527
221 1 -1.1104 6.61677 7.38425 18.0686
227 1 -1.1104 6.48339 7.58406 15.1729
220 1 -1.1104 6.33685 1.84093 18.0767
292 2 2.2208 10.7933 -4.95618 16.6456
233 1 -1.1104 6.28195 4.62493 17.8485
264 1 -1.1104 11.9941 7.54953 17.8592
267 1 -1.1104 12.159 7.54064 15.0462
261 2 2.2208 10.6101 6.09323 16.4956
263 1 -1.1104 12.087 2.02502 17.7444
266 1 -1.1104 12.0748 2.02565 15.1663
269 2 2.2208 10.7738 3.15316 19.2323
271 1 -1.1104 11.9715 4.80903 17.9367
273 1 -1.1104 12.1347 4.773 14.9629
275 2 2.2208 7.86848 6.16682 19.3096
277 1 -1.1104 9.27337 1.87505 18.0039
280 1 -1.1104 9.31288 1.95877 15.0159
283 2 2.2208 8.00044 3.33664 16.5416
285 1 -1.1104 9.1257 4.59891 18.0943
287 1 -1.1104 9.36376 4.80475 15.0654
278 1 -1.1104 9.40121 7.61226 17.8568
281 1 -1.1104 9.20965 7.51874 15.1415
381 1 -1.1104 9.50181 1.655 20.8683
307 1 -1.1104 3.90397 -1.08629 20.6455
300 1 -1.1104 1.05531 -1.07592 20.7424
294 1 -1.1104 0.550541 -3.68753 21.0801
304 1 -1.1104 3.41661 -3.88702 20.6675
309 2 2.2208 5.06131 0.503189 22.255
311 1 -1.1104 0.984724 -3.8523 23.8324
317 1 -1.1104 0.83882 -3.91876 26.6167
323 2 2.2208 4.96327 -2.25542 25.1462
325 1 -1.1104 0.869307 -0.953153 23.5769
329 1 -1.1104 0.829131 -1.10555 26.3289
333 2 2.2208 2.28164 0.298095 25.0488
335 1 -1.1104 3.66089 -3.72492 23.6642
338 1 -1.1104 3.68244 -3.7109 26.2634
341 2 2.2208 2.33624 -2.29044 22.0857
343 1 -1.1104 3.60244 -0.948105 23.7375
345 1 -1.1104 3.66798 -0.850127 26.7591
327 1 -1.1104 6.35958 -0.947312 23.6107
320 1 -1.1104 6.41721 -3.88019 26.3099
361 1 -1.1104 9.22277 7.37294 26.48
353 2 2.2208 2.25153 -5.18265 25.0605
205 2 2.2208 13.5155 0.546281 13.7041
297 1 -1.1104 6.26173 -4.06757 20.9005
369 1 -1.1104 11.8587 -3.78806 20.5901
302 1 -1.1104 6.76945 -1.31185 20.7356
383 1 -1.1104 9.21645 -1.02227 20.7571
331 1 -1.1104 6.48966 -0.825898 26.3096
314 1 -1.1104 6.55046 -3.68368 23.647
386 1 -1.1104 9.2744 -4.04657 26.4124
391 2 2.2208 10.8076 -2.33643 24.9931
390 1 -1.1104 9.55061 -3.7895 23.7353
355 1 -1.1104 9.12513 -1.2479 26.2642
358 1 -1.1104 9.54362 -0.791983 23.4975
360 2 2.2208 8.04735 -2.4447 22.1776
364 2 2.2208 7.95961 0.465006 25.0334
366 1 -1.1104 12.4426 -3.78896 23.3881
368 1 -1.1104 12.2282 -0.948679 26.3407
372 1 -1.1104 12.2128 -3.89307 26.1874
373 2 2.2208 10.8774 0.484097 22.1956
377 1 -1.1104 12.1415 -1.02308 23.5409
313 1 -1.1104 0.867375 7.27498 23.753
295 1 -1.1104 0.530146 1.5932 20.6001
305 1 -1.1104 3.6466 2.02251 20.7708
393 2 2.2208 13.5639 6.07776 25.0306
308 1 -1.1104 3.69575 4.68554 20.851
306 1 -1.1104 3.7233 7.6521 20.7182
301 1 -1.1104 0.992303 4.48977 20.624
296 1 -1.1104 0.888061 7.54208 20.827
337 1 -1.1104 3.71509 7.73104 23.6714
340 1 -1.1104 3.7106 7.41647 26.2206
310 2 2.2208 5.24849 5.93996 22.207
312 1 -1.1104 0.974388 1.69037 23.6637
318 1 -1.1104 0.841802 1.90075 26.4842
324 2 2.2208 4.95451 3.24755 25.0035
326 1 -1.1104 0.85636 4.51366 23.5349
330 1 -1.1104 1.09792 4.80986 26.5234
334 2 2.2208 2.35584 6.16842 25.0622
336 1 -1.1104 3.80447 1.80758 23.569
339 1 -1.1104 3.54547 1.87096 26.5202
342 2 2.2208 2.36278 3.15328 22.1602
344 1 -1.1104 3.69002 4.6588 23.5309
346 1 -1.1104 3.68559 4.65663 26.4539
319 1 -1.1104 0.988985 7.59006 26.6104
395 2 2.2208 13.5017 3.35829 22.0719
322 1 -1.1104 6.56716 7.50562 26.4703
362 1 -1.1104 12.0498 1.82905 26.4286
316 1 -1.1104 6.53314 7.26731 23.587
389 1 -1.1104 9.32402 1.94421 23.6791
387 1 -1.1104 9.26942 7.51728 23.6476
378 1 -1.1104 12.1301 7.36243 23.6622
363 1 -1.1104 12.2858 2.0909 23.4876
375 1 -1.1104 12.1575 4.53271 20.6779
354 1 -1.1104 9.35166 4.73263 26.4243
359 2 2.2208 8.07629 3.24121 22.2372
379 1 -1.1104 12.3041 7.57531 26.4551
328 1 -1.1104 6.52678 4.39307 23.5251
315 1 -1.1104 6.42907 1.73346 23.595
332 1 -1.1104 6.58832 4.71136 26.0405
321 1 -1.1104 6.34764 1.87594 26.3163
356 1 -1.1104 9.43028 4.65087 23.5458
299 1 -1.1104 6.53351 7.32095 20.9923
370 1 -1.1104 12.1006 1.91559 20.6235
298 1 -1.1104 6.62504 1.75302 20.8296
303 1 -1.1104 6.43863 4.44428 20.5948
382 1 -1.1104 9.33707 7.57948 21.003
384 1 -1.1104 9.2867 4.7585 20.878
365 1 -1.1104 12.0939 4.71176 26.3953
388 2 2.2208 10.8303 3.2625 25.0826
357 2 2.2208 7.98622 6.02807 24.9323
367 2 2.2208 10.7119 6.03114 22.1328
289 2 2.2208 13.5891 -2.17526 16.5576
371 1 -1.1104 12.1866 7.52474 20.8661
159 2 2.2208 5.21021 -2.3619 13.7655
253 2 2.2208 -0.446227 3.2786 19.2836
171 2 2.2208 -0.532045 -2.35221 13.9731
293 2 2.2208 13.6014 -4.92587 13.8943
288 2 2.2208 13.5146 0.529796 19.2269
397 2 2.2208 7.93179 -5.13576 25.0631
213 2 2.2208 7.97363 -5.09938 13.9534
107 2 2.2208 7.80327 3.30455 27.6838
203 2 2.2208 7.92642 6.14416 13.7306
398 2 2.2208 5.29856 11.8407 5.26809
400 1 -1.1104 0.989274 13.0879 1.33469
406 1 -1.1104 1.10357 13.1846 3.90079
410 2 2.2208 5.07051 8.70166 2.36819
413 1 -1.1104 1.02882 10.3859 1.0985
421 1 -1.1104 1.23139 10.1731 3.66747
425 2 2.2208 2.5546 11.6295 2.64714
427 1 -1.1104 3.80884 13.1698 0.999961
430 1 -1.1104 3.92326 13.2999 3.8365
432 2 2.2208 2.56407 8.82017 5.22369
435 1 -1.1104 3.83206 10.3892 1.14939
439 1 -1.1104 4.12466 10.0873 3.89024
401 1 -1.1104 0.907879 13.2846 6.82194
417 1 -1.1104 6.59587 10.2244 1.03953
442 2 2.2208 2.24005 14.5413 -0.408836
428 1 -1.1104 3.71267 12.9339 6.48054
414 1 -1.1104 1.04479 10.3727 6.47938
538 2 2.2208 -0.403333 14.473 8.06657
582 2 2.2208 13.6875 17.4445 8.00416
584 2 2.2208 13.5401 12.0588 8.08999
423 1 -1.1104 6.69094 10.2461 3.87632
408 1 -1.1104 6.9135 13.0783 4.09986
567 1 -1.1104 9.64122 18.7891 12.3475
403 1 -1.1104 6.73429 13.0699 1.24726
453 2 2.2208 10.7229 11.6335 5.34689
455 1 -1.1104 12.1424 13.0725 0.898414
458 1 -1.1104 12.1262 13.3815 3.87387
460 2 2.2208 10.7108 8.8559 2.39272
463 1 -1.1104 12.1576 10.0639 1.00145
467 1 -1.1104 12.2493 10.3555 3.74455
469 2 2.2208 8.06383 11.6498 2.50566
471 1 -1.1104 9.53877 13.0243 0.929754
474 1 -1.1104 9.44075 12.9027 3.81893
476 2 2.2208 7.88838 8.76976 5.22139
479 1 -1.1104 9.34238 10.2895 1.14252
483 1 -1.1104 9.58499 10.0704 4.03884
444 2 2.2208 5.0695 17.4107 -0.391798
487 2 2.2208 8.01776 8.85357 -0.433059
480 1 -1.1104 9.65481 10.1869 6.94008
464 1 -1.1104 12.2545 10.3449 6.57269
433 2 2.2208 2.4882 14.5968 5.26853
399 2 2.2208 5.4138 17.3935 5.29174
402 1 -1.1104 0.759565 18.7137 1.11624
407 1 -1.1104 1.05122 18.8516 4.01509
411 2 2.2208 5.31085 14.4922 2.50096
412 2 2.2208 5.09507 20.1942 2.50292
415 1 -1.1104 0.935945 16.1348 1.03367
422 1 -1.1104 0.909536 16.1524 3.8023
426 2 2.2208 2.41724 17.4818 2.40972
429 1 -1.1104 3.60811 19.0002 1.07873
431 1 -1.1104 3.94575 18.7391 3.96768
434 2 2.2208 2.36285 20.0281 5.31756
437 1 -1.1104 3.92431 16.0672 1.12256
440 1 -1.1104 4.12277 16.0502 4.05866
405 1 -1.1104 6.30042 18.7295 0.962295
419 1 -1.1104 6.67295 15.9163 1.12249
447 2 2.2208 -0.434749 14.5352 2.58677
443 2 2.2208 2.51036 9.01634 -0.399879
445 2 2.2208 5.29144 11.6563 -0.228492
409 1 -1.1104 6.65438 18.7077 3.77387
486 2 2.2208 7.96867 14.4493 -0.28015
424 1 -1.1104 6.65245 15.901 3.87357
477 2 2.2208 8.25254 14.4821 5.49716
454 2 2.2208 11.023 17.5407 5.26362
457 1 -1.1104 12.222 18.7746 0.97209
459 1 -1.1104 12.4457 18.9972 3.94478
461 2 2.2208 10.6217 14.4155 2.37336
462 2 2.2208 10.9149 20.1094 2.41192
465 1 -1.1104 12.1787 15.8351 1.25303
468 1 -1.1104 12.161 16.1864 3.91065
470 2 2.2208 7.88196 17.2728 2.42462
473 1 -1.1104 9.18636 18.8535 1.21595
475 1 -1.1104 9.59208 19.0432 3.95002
478 2 2.2208 8.18042 20.2413 5.43455
481 1 -1.1104 9.43677 15.9596 1.19202
484 1 -1.1104 9.26268 15.9512 4.00108
561 1 -1.1104 9.67069 18.6062 6.92224
569 2 2.2208 8.17054 17.3045 8.18754
544 2 2.2208 5.13046 19.9347 13.7063
565 1 -1.1104 9.44016 18.4303 9.65468
560 1 -1.1104 12.3262 18.8201 6.78677
482 1 -1.1104 9.41189 15.8974 6.89296
493 2 2.2208 13.5775 8.86205 -0.258855
436 1 -1.1104 3.82206 10.2113 6.64795
499 2 2.2208 5.16885 11.6582 11.0281
501 1 -1.1104 0.938546 13.3532 12.3255
505 1 -1.1104 0.908016 12.9621 9.68046
509 2 2.2208 5.07765 8.82851 8.00888
512 1 -1.1104 0.867791 10.4396 12.1384
516 1 -1.1104 0.757586 10.3242 9.46159
520 2 2.2208 2.20911 11.6067 8.05433
522 1 -1.1104 3.8524 13.1584 12.3338
524 1 -1.1104 3.8353 13.1104 9.41732
526 2 2.2208 2.2425 9.12013 10.8618
529 1 -1.1104 3.76652 10.5622 12.3277
531 1 -1.1104 3.50661 10.3487 9.39089
418 1 -1.1104 6.74883 10.2183 6.70255
507 1 -1.1104 6.71439 12.894 9.55062
518 1 -1.1104 6.42013 10.218 9.40087
563 1 -1.1104 12.3741 19.01 9.73221
503 1 -1.1104 6.62056 13.145 12.4723
404 1 -1.1104 6.65383 13.052 6.81346
472 1 -1.1104 9.51189 13.0953 6.92089
456 1 -1.1104 12.1511 13.0379 6.5829
514 1 -1.1104 6.53313 10.2787 12.3637
572 1 -1.1104 12.1458 13.1399 12.4056
570 2 2.2208 10.8243 11.7013 11.1673
562 2 2.2208 10.9357 8.71696 7.91165
568 1 -1.1104 9.34853 13.4417 12.531
566 1 -1.1104 9.51922 12.9767 9.64496
557 1 -1.1104 12.2827 10.4532 12.5366
555 1 -1.1104 12.2905 10.1962 9.56477
554 2 2.2208 8.11544 8.91213 10.899
564 1 -1.1104 12.3038 13.2277 9.6554
550 2 2.2208 7.9857 11.4832 8.39084
547 1 -1.1104 9.48296 10.101 9.60091
549 1 -1.1104 9.35645 10.6471 12.3541
490 2 2.2208 13.4492 11.7026 2.37784
551 1 -1.1104 12.3786 16.1934 9.53073
496 1 -1.1104 0.952922 18.7885 6.7342
416 1 -1.1104 1.2557 16.0438 6.59317
558 2 2.2208 11.0629 20.2511 8.14794
438 1 -1.1104 3.87166 15.6261 6.81279
498 1 -1.1104 3.98307 18.7883 6.73191
527 2 2.2208 2.41152 14.4187 10.9704
510 2 2.2208 5.24925 14.5147 8.15649
500 2 2.2208 5.22076 17.345 10.9652
502 1 -1.1104 1.01353 18.8629 12.5875
506 1 -1.1104 0.852987 18.5426 9.64766
511 2 2.2208 5.1707 20.1507 8.30237
513 1 -1.1104 0.838082 16.1311 12.2247
517 1 -1.1104 1.05444 15.7809 9.2759
521 2 2.2208 2.52279 17.3274 8.02139
523 1 -1.1104 3.86532 18.8245 12.1339
525 1 -1.1104 3.84116 18.6844 9.59623
528 2 2.2208 2.26253 20.1 10.9559
530 1 -1.1104 3.84076 15.905 12.6025
532 1 -1.1104 3.85545 15.8073 9.7482
504 1 -1.1104 6.8155 18.5928 12.5425
446 2 2.2208 -0.362943 20.2422 2.50178
573 1 -1.1104 12.3031 18.6548 12.5849
546 1 -1.1104 9.39836 15.6946 9.75247
548 1 -1.1104 9.58702 16.0076 12.381
571 2 2.2208 11.0198 17.36 10.8915
559 2 2.2208 10.91 14.7168 8.37212
515 1 -1.1104 6.68714 15.8549 12.4362
556 1 -1.1104 12.3823 15.9901 12.4349
508 1 -1.1104 6.76376 18.8189 9.45303
519 1 -1.1104 6.39425 15.8565 9.73471
420 1 -1.1104 6.71397 15.9336 6.81573
497 1 -1.1104 6.76983 18.6449 6.79167
466 1 -1.1104 12.2561 15.9857 6.73505
552 2 2.2208 8.14403 20.0741 10.9791
553 2 2.2208 7.9434 14.36 11.0223
485 2 2.2208 7.76132 20.1407 -0.152149
488 2 2.2208 10.8394 17.414 -0.218061
492 2 2.2208 13.5417 14.5275 5.29859
580 2 2.2208 13.552 9.00639 10.911
579 2 2.2208 8.11531 11.8727 13.6868
535 2 2.2208 5.28628 8.88641 13.5817
489 2 2.2208 10.7999 11.626 -0.274323
586 2 2.2208 5.17495 11.7117 16.5912
588 1 -1.1104 0.668532 13.0656 17.9415
592 1 -1.1104 0.573088 12.8348 15.0628
596 2 2.2208 5.11156 9.006 19.4946
599 1 -1.1104 1.07412 10.2608 18.1289
603 1 -1.1104 0.941186 10.1972 15.3032
607 2 2.2208 2.16999 11.4118 19.5594
609 1 -1.1104 3.85455 13.1218 18.156
611 1 -1.1104 3.59312 13.0884 15.276
613 2 2.2208 2.29884 8.87932 16.4827
616 1 -1.1104 3.67253 10.1364 18.2373
618 1 -1.1104 3.80132 10.4699 15.1829
601 1 -1.1104 6.29458 10.2404 18.0313
590 1 -1.1104 6.8661 13.0785 18.1833
534 2 2.2208 5.26064 14.5357 13.806
597 2 2.2208 5.24416 14.5954 19.463
605 1 -1.1104 6.64681 10.4027 15.2333
594 1 -1.1104 6.57687 13.0767 15.2895
441 2 2.2208 2.52864 20.2516 27.706
625 2 2.2208 10.5797 11.5388 16.641
627 1 -1.1104 12.4013 13.0985 18.221
629 1 -1.1104 12.0499 13.3939 15.4104
632 2 2.2208 10.7461 8.97075 19.559
635 1 -1.1104 11.9549 10.2754 18.0959
637 1 -1.1104 12.1824 10.3686 15.3318
639 2 2.2208 7.90077 11.677 19.6612
641 1 -1.1104 9.29999 13.0876 18.2966
643 1 -1.1104 9.30575 12.8549 15.3236
646 2 2.2208 7.91968 8.95445 16.5807
649 1 -1.1104 9.26888 10.384 18.2046
651 1 -1.1104 9.52183 10.2235 15.0464
743 2 2.2208 13.4945 8.86518 22.2328
664 1 -1.1104 6.49855 10.2974 20.7571
533 2 2.2208 2.44743 17.2258 13.7453
654 2 2.2208 13.4196 17.1786 19.6649
614 2 2.2208 2.3462 14.3995 16.975
583 2 2.2208 13.6406 17.3246 13.9573
587 2 2.2208 5.10923 17.4019 16.7685
589 1 -1.1104 0.810267 18.6007 18.1383
593 1 -1.1104 0.823783 18.4413 15.2697
598 2 2.2208 5.07396 20.2732 19.6659
600 1 -1.1104 1.07217 15.8731 18.0504
604 1 -1.1104 1.05553 15.5886 15.1931
608 2 2.2208 2.27539 17.3341 19.5952
610 1 -1.1104 3.63784 18.8524 17.8611
612 1 -1.1104 3.504 18.7114 15.1149
615 2 2.2208 2.2801 19.9453 16.5619
617 1 -1.1104 3.82699 15.8884 18.3259
619 1 -1.1104 4.0465 15.7058 15.6074
602 1 -1.1104 6.49814 16.0768 18.1581
591 1 -1.1104 6.48341 18.7183 18.0758
665 1 -1.1104 6.45479 16.2264 20.9749
705 2 2.2208 -0.285845 14.5165 25.0388
744 2 2.2208 13.5782 14.4769 22.4389
578 2 2.2208 10.7877 8.75386 13.7501
663 1 -1.1104 0.882957 15.7095 20.8151
595 1 -1.1104 6.38266 18.4462 15.1908
606 1 -1.1104 6.81719 15.7993 15.2638
655 2 2.2208 13.5894 8.91251 16.5659
647 2 2.2208 7.9696 14.5629 16.8008
626 2 2.2208 10.8018 17.3184 16.635
628 1 -1.1104 12.212 18.7357 18.1982
630 1 -1.1104 12.1599 18.7059 15.4321
633 2 2.2208 10.8162 14.6423 19.4125
634 2 2.2208 10.8448 20.2545 19.4791
636 1 -1.1104 12.1554 15.8111 18.1058
638 1 -1.1104 12.1678 15.9032 15.3208
640 2 2.2208 8.02118 17.2854 19.5657
642 1 -1.1104 9.33302 18.7284 17.8512
644 1 -1.1104 9.37933 18.6689 15.1514
648 2 2.2208 7.83987 20.0202 16.7053
650 1 -1.1104 9.4461 15.9088 17.8931
652 1 -1.1104 9.36076 15.8779 15.2429
577 2 2.2208 10.8181 14.6107 13.8635
576 2 2.2208 7.93564 17.2568 13.8631
661 1 -1.1104 6.61434 18.9149 20.9466
727 1 -1.1104 11.8017 16.0742 21.0063
631 1 -1.1104 12.0882 18.9044 21.2603
585 2 2.2208 10.9057 20.078 13.8578
536 2 2.2208 2.51483 11.9186 13.7982
662 1 -1.1104 0.904477 10.3687 21.0177
660 1 -1.1104 6.55318 13.5942 20.9984
658 1 -1.1104 0.812502 12.9972 21.0006
668 1 -1.1104 3.91107 10.3427 20.9702
666 1 -1.1104 3.55846 13.1526 20.8669
670 2 2.2208 5.16744 11.8301 22.3621
672 1 -1.1104 1.14301 13.1394 23.6627
676 1 -1.1104 1.1366 13.0987 26.5344
680 2 2.2208 5.13054 8.79085 25.0459
683 1 -1.1104 0.992389 10.0315 23.7726
687 1 -1.1104 1.16394 10.5875 26.5524
691 2 2.2208 2.37795 11.6433 25.0516
693 1 -1.1104 3.74693 13.2209 23.7171
695 1 -1.1104 3.68648 13.0752 26.5348
697 2 2.2208 2.25511 8.75574 22.3255
700 1 -1.1104 3.80922 10.4012 23.7694
702 1 -1.1104 3.97517 10.3478 26.639
685 1 -1.1104 6.51574 10.3682 23.5392
689 1 -1.1104 6.65642 10.2191 26.4836
674 1 -1.1104 6.34111 13.2631 23.8187
678 1 -1.1104 6.53804 13.1257 26.8401
581 2 2.2208 13.6456 11.8776 13.7217
730 1 -1.1104 9.05837 13.0012 21.0162
726 1 -1.1104 12.1526 10.2963 20.8123
731 1 -1.1104 9.19483 10.1537 20.8581
722 1 -1.1104 12.0186 13.2385 21.0578
740 1 -1.1104 12.0361 13.1895 23.6641
738 2 2.2208 10.6504 11.6959 22.1101
737 2 2.2208 7.98984 11.7896 25.1457
710 1 -1.1104 9.53933 10.3005 26.6088
712 1 -1.1104 9.18661 10.3613 23.5772
715 2 2.2208 7.78488 8.91456 22.3404
717 2 2.2208 10.8001 8.91286 24.9441
721 1 -1.1104 12.2542 10.2435 26.3976
723 1 -1.1104 12.1641 13.028 26.6095
729 1 -1.1104 12.0482 10.4243 23.4614
733 1 -1.1104 9.31893 12.9322 26.5615
735 1 -1.1104 9.33261 13.207 23.7333
686 1 -1.1104 6.67523 16.1702 23.854
669 1 -1.1104 3.59594 16.1256 21.0549
659 1 -1.1104 0.878228 18.4018 21.1637
667 1 -1.1104 3.65672 18.9236 20.8923
698 2 2.2208 2.35921 14.4648 22.1927
681 2 2.2208 5.08099 14.562 25.2089
671 2 2.2208 5.0506 17.4247 22.4242
673 1 -1.1104 0.9023 18.5343 24.0335
677 1 -1.1104 0.935613 18.7636 26.4628
682 2 2.2208 5.24485 20.3187 25.1022
684 1 -1.1104 1.07404 15.8577 23.5473
688 1 -1.1104 0.876143 15.8738 26.3674
692 2 2.2208 2.4274 17.4229 25.1406
694 1 -1.1104 3.76424 18.8145 23.6747
696 1 -1.1104 3.87185 18.9191 26.5981
699 2 2.2208 2.18453 20.0565 22.5041
701 1 -1.1104 3.95598 16.0771 23.7424
703 1 -1.1104 3.4813 16.0649 26.6681
690 1 -1.1104 6.36965 15.9397 26.4858
675 1 -1.1104 6.37054 19.1184 23.3857
679 1 -1.1104 6.72168 18.7778 26.4904
645 1 -1.1104 9.56656 18.8175 20.6875
714 2 2.2208 7.90681 14.6371 22.478
724 2 2.2208 10.8288 14.4836 25.2405
728 1 -1.1104 11.9794 18.8087 23.8262
718 2 2.2208 10.6088 20.3311 25.1827
713 2 2.2208 8.00839 20.2038 22.1469
719 1 -1.1104 12.1259 15.8935 26.707
709 1 -1.1104 9.23054 15.8028 26.7448
711 1 -1.1104 9.37647 16.0177 23.9474
716 1 -1.1104 9.36627 18.7446 26.4895
732 1 -1.1104 9.06592 15.7913 20.832
736 2 2.2208 7.93263 17.3832 25.2339
725 1 -1.1104 12.103 15.9663 23.8779
720 1 -1.1104 12.0148 19.0544 26.6959
734 1 -1.1104 9.19597 18.9276 23.7032
739 2 2.2208 10.6156 17.3988 22.5536
653 2 2.2208 13.5296 11.5792 19.3922
656 2 2.2208 13.6184 14.4361 16.7601
745 2 2.2208 13.4208 20.2144 22.3932
742 2 2.2208 13.3179 17.465 25.1102
741 2 2.2208 13.4267 11.7586 24.8866
746 2 2.2208 5.11981 22.7681 5.54566
749 1 -1.1104 1.1798 24.512 1.22536
753 1 -1.1104 1.08217 24.5505 3.93804
757 2 2.2208 5.2632 25.8717 2.3934
759 1 -1.1104 1.06413 21.6587 1.04848
765 1 -1.1104 1.20175 21.7725 3.81193
771 2 2.2208 2.43365 22.9622 2.53036
773 1 -1.1104 3.81209 24.4858 1.02301
775 1 -1.1104 4.01341 24.5123 4.03246
778 2 2.2208 2.48886 25.8491 5.22895
780 1 -1.1104 3.87758 21.7421 1.06131
783 1 -1.1104 3.79976 21.6755 4.03237
840 1 -1.1104 3.85258 21.4547 6.93663
768 1 -1.1104 6.66933 21.3846 3.97696
781 1 -1.1104 3.75964 27.2154 0.920741
784 1 -1.1104 3.72491 27.2651 3.76912
832 1 -1.1104 0.673165 21.6887 6.62231
833 1 -1.1104 0.894328 27.295 6.79099
906 2 2.2208 7.91394 31.4933 10.8295
762 1 -1.1104 6.61848 21.6572 1.11507
763 1 -1.1104 6.50369 27.327 0.746936
823 2 2.2208 13.6026 25.9318 -0.33203
760 1 -1.1104 0.847404 27.3115 1.20988
836 1 -1.1104 6.7341 27.0794 6.65468
830 1 -1.1104 6.74842 24.2853 6.88076
755 1 -1.1104 6.61186 24.2277 4.11604
769 1 -1.1104 6.63342 27.2041 3.70707
904 1 -1.1104 9.67007 27.264 6.84879
926 2 2.2208 13.5727 28.5829 8.05951
751 1 -1.1104 6.73708 24.5085 1.21546
793 2 2.2208 10.8221 23.1441 5.15213
795 1 -1.1104 12.0356 24.4183 1.09732
797 1 -1.1104 12.4258 24.5104 3.88258
799 2 2.2208 10.7866 25.7798 2.50411
801 1 -1.1104 12.1879 21.5458 1.02728
804 1 -1.1104 12.3008 21.7259 3.90706
807 2 2.2208 7.94725 23.0407 2.58574
809 1 -1.1104 9.5347 24.5197 1.01545
811 1 -1.1104 9.37777 24.5538 3.98011
814 2 2.2208 8.04447 26.0346 5.25006
816 1 -1.1104 9.46378 21.6195 1.22921
819 1 -1.1104 9.51657 21.8129 3.69757
817 1 -1.1104 9.39896 27.2797 0.986305
805 1 -1.1104 12.2519 27.1352 3.80679
820 1 -1.1104 9.39084 27.2804 3.75222
802 1 -1.1104 12.3327 27.4347 1.07236
835 1 -1.1104 6.67106 21.3935 6.67018
898 1 -1.1104 12.345 27.112 6.6409
986 2 2.2208 5.20874 31.6015 13.4868
1037 2 2.2208 8.05894 28.5419 13.6069
766 1 -1.1104 0.988291 27.4043 4.00197
748 2 2.2208 5.10588 28.6527 5.10148
750 1 -1.1104 1.01507 30.0078 0.839789
754 1 -1.1104 1.2394 30.2675 3.57246
758 2 2.2208 5.04553 31.4899 2.4434
761 1 -1.1104 0.971172 32.9886 0.939975
767 1 -1.1104 1.04206 33.2186 4.09272
772 2 2.2208 2.34045 28.6192 2.3177
774 1 -1.1104 3.62546 30.0257 0.868283
776 1 -1.1104 3.81261 30.0678 3.81421
779 2 2.2208 2.23278 31.6119 5.19696
782 1 -1.1104 3.85744 32.7776 0.887101
785 1 -1.1104 3.81045 33.0468 3.76248
834 1 -1.1104 0.865991 32.9965 6.71156
770 1 -1.1104 6.38032 32.7602 3.95293
829 1 -1.1104 0.90222 30.204 6.43204
756 1 -1.1104 6.62285 30.0389 3.72221
752 1 -1.1104 6.56195 30.0125 1.15179
915 1 -1.1104 12.3892 30.0096 9.42496
884 2 2.2208 -0.31843 26.0351 8.00213
1113 2 2.2208 7.9914 31.5293 -0.482938
764 1 -1.1104 6.75386 32.8884 0.998161
794 2 2.2208 10.8908 28.6562 5.10672
796 1 -1.1104 12.2872 30.395 1.05086
798 1 -1.1104 12.3963 29.9442 3.84105
800 2 2.2208 10.8101 31.6264 2.54225
803 1 -1.1104 12.4507 33.0392 0.934079
806 1 -1.1104 12.1178 33.134 3.71599
808 2 2.2208 8.19218 28.74 2.38818
810 1 -1.1104 9.32119 29.9656 0.886096
812 1 -1.1104 9.48285 30.1431 3.72942
815 2 2.2208 8.0768 31.3291 5.21514
818 1 -1.1104 9.49047 32.7656 0.930263
821 1 -1.1104 9.30759 32.9488 3.72093
905 1 -1.1104 9.4019 33.1288 6.49454
896 1 -1.1104 12.1878 29.9533 6.45346
917 2 2.2208 10.938 31.4259 7.94864
893 2 2.2208 13.5887 31.5252 10.8813
828 1 -1.1104 1.1335 24.5534 6.73208
777 2 2.2208 2.34171 26.0029 -0.330789
841 1 -1.1104 3.95909 27.3322 6.79586
838 1 -1.1104 3.75095 24.3368 6.59612
844 2 2.2208 5.36034 22.927 11.082
846 1 -1.1104 0.956537 24.5871 12.2983
850 1 -1.1104 0.868825 24.7189 9.49192
854 2 2.2208 5.26218 25.6649 8.15131
856 1 -1.1104 0.932549 21.6898 11.9794
862 1 -1.1104 1.22022 21.4477 9.19662
868 2 2.2208 2.41107 22.9742 7.99384
870 1 -1.1104 3.8749 24.2762 12.2263
872 1 -1.1104 3.51817 24.4563 9.52619
874 2 2.2208 2.33523 25.8941 10.8974
876 1 -1.1104 3.84258 21.6348 12.57
879 1 -1.1104 3.84954 21.6743 9.76241
857 1 -1.1104 1.15211 27.1803 12.2346
848 1 -1.1104 6.68716 24.3517 12.5032
877 1 -1.1104 3.9727 27.3321 12.393