30000
Atoms. Timestep: 2000000
2 26.9503 22.2464 135.772
2 15.3929 14.33 456.755
2 4.38275 17.0076 68.3392
2 25.7112 10.5037 69.2344
1 10.289 29.3461 480.951
1 -2.32048 3.89649 55.8491
1 13.1192 10.8785 179.134
1 29.0941 17.708 66.3631
1 17.5735 22.7118 397.778
1 10.0236 -0.41662 75.0072
1 16.1677 17.7879 122.964
1 2.73468 8.48186 83.7
2 3.2493 6.53724 466.175
2 23.8049 15.0783 168.027
2 22.2872 8.66485 71.7029
2 11.3275 1.51931 55.3198
1 24.8199 11.79 461.457
1 23.7103 29.5462 106.936
1 12.3973 14.0957 476.18
1 26.4628 28.7132 67.56
1 10.201 1.55229 354.951
1 26.5729 9.81291 441.27
1 28.4237 15.3816 465.068
1 29.6316 -0.619708 493.052
2 24.5279 15.1047 59.1021
2 19.0306 15.7537 91.2239
2 11.7723 27.0294 79.6965
2 13.3422 26.6738 478.98
1 4.35998 22.7739 382.518
1 24.9401 25.9694 135.368
1 22.7412 1.30189 129.292
1 17.3955 15.184 463.046
1 24.7283 1.68144 474.353
1 20.6288 12.3974 488.232
1 8.72553 14.0677 410.593
1 11.94 -0.273207 82.7683
2 13.4708 11.5308 55.8978
2 13.4765 23.4869 55.2704
2 24.2552 23.8375 58.1527
2 3.52261 1.09436 93.4469
1 22.2276 18.2217 396.938
1 2.12396 -0.825487 69.5872
1 -0.230395 27.9163 438.27
1 0.822605 28.575 146.932
1 4.60909 25.5457 142.551
1 26.7802 12.8294 159.49
1 22.7718 3.82499 486.476
1 0.157088 11.1324 156.302
2 5.53407 22.6802 86.5265
2 2.58024 9.62547 464.565
2 24.1431 11.6946 489.763
2 25.6911 8.64314 480.416
1 10.3761 13.7012 146.717
1 2.51314 15.8519 419.767
1 11.1322 24.7944 453.901
1 10.511 11.4904 159.207
1 12.2835 27.0955 76.9111
1 13.702 0.123643 440.486
1 6.51515 0.611278 97.3283
1 2.65983 21.1976 356.112
2 9.46034 11.1498 432.297
2 3.53504 1.5121 64.0886
2 16.4953 1.56051 72.2842
2 6.45615 -0.63506 101.751
1 14.0188 18.3064 325.222
1 16.1965 8.30663 452.731
1 1.54066 3.21132 442.593
1 -0.505665 0.385633 103.936
1 3.75572 28.0688 419.212
1 17.8035 28.6132 120.54
1 12.6956 9.28894 440.534
1 3.73993 17.1654 58.7251
2 25.0624 0.0789744 493.412
2 11.6532 1.03202 485.64
2 9.78622 14.4238 434.161
2 1.17218 15.1035 54.2769
1 11.004 -1.73973 96.3796
1 5.6117 1.88681 471.51
1 10.6042 8.10014 79.3757
1 26.1366 18.1655 73.5714
1 10.1218 12.8234 181.228
1 27.6881 21.0845 418.399
1 22.8055 12.5626 445.888
1 15.5775 15.2488 129.099
2 8.37771 27.115 471.075
2 9.80152 -0.332651 476.734
2 6.75514 3.38171 63.368
2 2.58856 25.5104 113.58
1 20.46 7.4776 464.252
1 16.3585 -0.703685 492.843
1 11.1605 6.43631 444.632
1 12.404 19.0183 96.7746
1 23.7663 26.868 61.9949
1 26.7613 12.9334 478.012
1 23.1283 17.2976 110.161
1 12.6827 0.674798 57.0171
2 12.5314 28.3512 100.583
2 20.4915 16.9047 87.6997
2 16.7755 25.2423 469.441
2 0.0977087 18.0681 430.069
1 27.0917 11.6654 474.549
1 14.8327 1.57492 491.57
1 8.97942 18.3137 482.662
1 18.4156 19.9398 67.7158
1 1.47228 15.6274 56.6495
1 2.28164 20.6622 107.211
1 3.10865 24.0039 157.742
1 8.50683 0.469414 87.3877
2 22.9458 5.43854 481.425
2 3.68751 -0.32321 480.14
2 19.6967 15.9634 462.785
2 3.78684 28.5105 447.984
1 0.909947 16.6893 97.2734
1 15.0647 17.6377 131.553
1 25.7872 5.9001 443.007
1 18.8623 3.43262 482.556
1 23.4237 20.9196 79.9338
1 8.25151 0.602236 398.913
1 26.073 23.8755 486.753
1 -1.14886 10.4186 54.3988
2 -0.957427 25.2737 487.364
2 7.73867 11.4101 493.369
2 13.9473 26.7865 475.026
2 1.44626 6.43942 68.5344
1 3.82907 10.9508 465.788
1 24.8099 7.50625 474.371
1 22.8945 25.2736 56.6512
1 18.5225 25.2205 430.995
1 6.65054 1.66747 84.0921
1 9.74527 21.6551 116.488
1 -1.23157 2.37885 77.5628
1 21.4907 12.5901 474.946
2 0.595844 -0.350644 55.5772
2 9.06486 14.8294 447.292
2 19.0673 14.148 447.971
2 23.2156 22.3522 493.1
1 23.0158 24.6692 71.5413
1 22.0019 19.6488 390.705
1 1.05276 26.1803 412.679
1 23.2587 5.02816 59.2699
1 2.84134 8.13219 442.79
1 -0.84011 9.13131 398.978
1 14.8687 10.28 118.751
1 -2.22652 27.7188 110.848
2 -2.18998 19.5245 97.4031
2 -1.10614 22.4391 468.801
2 2.91997 15.3047 98.516
2 14.7676 -0.836386 451.402
1 0.459832 1.20461 124.207
1 9.76706 26.7066 62.3257
1 14.2383 25.9921 446.865
1 17.7063 17.31 185.382
1 23.7969 8.15022 154.125
1 12.4138 4.96167 81.4517
1 21.316 3.30834 77.057
1 3.09737 27.6072 60.2202
2 3.89661 6.96183 84.9799
2 25.8473 1.78765 73.3932
2 24.266 20.7267 65.4183
2 3.69471 13.2095 487.505
1 -0.091254 18.0574 245.676
1 22.5712 12.6663 113.044
1 24.5876 9.20621 206.186
1 14.747 8.32232 167.769
1 25.6092 15.0857 70.2805
1 19.068 28.9284 490.471
1 28.5398 0.602961 435.544
1 16.6268 18.5095 56.4724
2 14.2953 2.14431 471.636
2 9.18915 22.3199 487.62
2 12.8363 12.332 474.478
2 7.46648 26.0807 482.08
1 13.815 20.9874 111.519
1 2.14557 29.3678 95.2487
1 19.2451 7.46381 138.9
1 13.1237 -0.261614 123.891
1 2.70577 27.0938 446.512
1 4.94729 26.717 72.9882
1 6.97287 3.62178 483.367
1 1.09072 24.2 153.214
2 17.389 24.3664 88.6701
2 9.39025 8.64212 62.5554
2 27.4737 1.33423 468.985
2 10.9006 2.57536 90.5756
1 5.81282 27.3513 194.979
1 26.7494 -0.469666 97.0037
1 4.61712 1.36501 487.872
1 9.6417 4.91286 63.9594
1 26.2552 9.12254 67.3753
1 5.17845 10.4791 72.0885
1 5.21511 2.40869 459.265
1 12.2673 23.7948 491.586
2 1.21024 20.2871 437.965
2 1.91842 25.1906 56.1113
2 -0.687396 0.416603 71.9438
2 3.02324 29.4262 92.7601
1 12.7498 3.75516 465.247
1 29.4149 21.5357 450.007
1 23.9582 -0.437683 411.333
1 5.82913 20.1717 89.0439
1 10.9996 12.2437 477.57
1 21.1674 14.9725 458.714
1 10.33 19.8321 456.59
1 1.24112 12.3624 56.5141
2 19.165 9.88531 465.851
2 27.5903 17.0653 480.587
2 26.522 15.2411 476.934
2 24.4464 0.8569 438.918
1 20.4705 6.99896 76.8306
1 -1.87607 29.1383 60.0793
1 23.7651 4.05294 105.716
1 7.28817 23.3935 459.708
1 11.2401 7.70041 415.28
1 28.3669 27.9076 446.488
1 1.63424 21.5722 60.3323
1 8.74709 5.75689 54.3884
2 29.1006 12.9362 459.28
2 21.4857 24.9345 87.4265
2 19.1282 9.28828 429.743
2 2.04965 -0.704829 411.472
1 23.0254 27.4683 73.2146
1 19.9103 7.75055 83.864
1 3.06334 23.9472 83.8074
1 -0.922606 17.8748 190.716
1 15.3064 10.8367 85.785
1 25.7907 26.5958 162.565
1 1.96229 14.2694 79.1887
1 -1.06282 16.9831 457.284
2 7.65784 17.9194 463.026
2 19.6058 2.62544 75.763
2 23.8425 9.46482 80.822
2 16.7217 25.038 462.08
1 5.35936 10.281 59.9707
1 4.48552 25.9874 455.322
1 27.9318 4.20304 63.13
1 12.421 6.50324 91.2135
1 26.3727 16.0925 178.047
1 14.4649 23.0385 85.4415
1 25.8216 20.2813 144.652
1 5.86618 2.33119 462.935
2 0.90624 7.3824 83.1188
2 17.668 14.608 87.9818
2 26.5731 19.0618 477.41
2 4.63167 14.345 483.942
1 25.7295 8.82825 93.5306
1 18.4988 13.0766 102.455
1 26.6709 22.3637 435.714
1 5.74303 16.2447 70.6295
1 5.38398 5.05115 67.4449
1 29.316 13.0276 109.004
1 2.73013 5.06053 453.078
1 14.0726 28.2117 65.5801
2 20.7013 7.3126 81.7973
2 28.5826 -1.43664 77.6395
2 5.59584 11.007 63.1637
2 4.98121 19.0973 400.334
1 18.1552 17.2525 461.677
1 18.1519 29.0795 70.0329
1 6.75524 0.754421 61.3696
1 3.66511 1.60342 122.066
1 12.3911 23.6015 60.2359
1 7.10804 21.671 104.784
1 13.7836 13.4348 127.924
1 13.5678 2.40528 60.1264
2 -0.71515 7.96891 86.2846
2 -0.560096 -1.59779 418.652
2 14.5784 3.98543 484.741
2 2.48824 6.39621 487.716
1 11.6141 -2.2096 456.109
1 9.9553 7.62599 431.627
1 27.3655 6.73689 476.118
1 22.2604 1.19827 459.859
1 25.9312 5.8223 58.2812
1 -1.40561 2.01248 472.8
1 25.2019 16.2139 481.548
1 17.11 23.5747 70.0645
2 8.18713 20.9706 466.078
2 9.94323 26.4454 414.873
2 4.26801 24.8237 441.59
2 10.4949 26.3303 448.703
1 8.60508 8.57367 83.9908
1 5.7657 5.6798 86.1082
1 3.04832 16.2438 474.45
1 2.76312 16.514 53.3337
1 23.7914 16.151 107.687
1 23.1839 6.69036 463.276
1 8.07757 20.012 437.813
1 11.2281 15.6679 59.2739
2 26.5122 26.5633 467.082
2 3.69112 23.9194 89.8819
2 24.1438 1.17597 86.1643
2 1.32973 14.9659 444.361
1 7.72594 16.084 465.021
1 8.78859 16.8683 417.943
1 3.29906 24.7756 466.784
1 27.5341 8.86334 83.9532
1 22.0526 20.5996 477.007
1 9.13796 28.0195 422.884
1 24.1752 25.1314 95.2411
1 8.4183 -1.76916 97.7051
2 -1.10083 27.0838 77.7639
2 23.3256 7.13684 143.373
2 20.1983 26.655 485.772
2 20.9073 0.0577378 449.363
1 3.33965 -0.090439 79.275
1 -0.480424 23.12 138.968
1 18.0576 -1.15535 379.112
1 6.41267 20.2568 473.618
1 -1.29246 9.47588 487.442
1 1.1258 26.0494 409.406
1 0.0763964 14.3297 462.635
1 0.521917 10.2142 452.172
2 28.9517 18.0683 114.513
2 3.16159 8.63848 103.448
2 14.9417 13.9873 108.262
2 11.8065 14.093 465.399
1 3.70724 7.01909 93.8828
1 8.15393 1.83854 486.925
1 -1.18099 23.0897 448.591
1 9.79755 3.28901 421.115
1 2.23759 9.45486 444.918
1 11.6253 6.56334 83.9508
1 3.49992 8.23606 236.561
1 17.8098 5.8409 104.076
2 23.5365 -0.607326 473.595
2 1.76647 12.6854 124.367
2 21.6322 5.75204 456.97
2 22.4494 7.99857 473.766
1 8.91932 3.2206 215.119
1 25.5225 7.58201 86.2029
1 20.6309 12.8016 483.292
1 9.2884 14.6289 482.122
1 20.5061 0.10071 429.115
1 5.33096 23.8152 124.716
1 21.1232 24.1882 475.871
1 19.2942 0.864605 483.373
2 14.4665 22.9247 477.555
2 16.8484 9.15564 82.4277
2 11.7247 0.487895 463.497
2 2.53818 11.7314 156.25
1 17.2595 1.50573 91.4311
1 14.5987 6.48916 77.8473
1 17.1956 28.3306 96.6567
1 19.1665 19.9863 62.0096
1 23.5492 25.2139 108.977
1 10.1284 17.3985 86.5841
1 -0.114451 18.0874 152.111
1 14.9753 7.60045 491.119
2 26.9747 21.3103 450.961
2 9.65482 15.9267 146.171
2 25.4587 -2.21039 73.9343
2 11.3188 5.54548 485.217
1 10.4512 22.6026 81.0334
1 19.2705 -1.96123 477.754
1 23.0762 7.33457 166.393
1 18.8307 21.3125 456.109
1 15.8476 15.6323 470.891
1 6.24931 2.05943 71.4077
1 -0.965095 2.48296 389.23
1 2.08116 5.95123 91.4652
2 9.88462 29.5288 458.02
2 5.12669 -1.44473 79.4508
2 6.77815 -0.359639 131.756
2 0.959192 27.8635 106.742
1 26.2355 25.757 451.159
1 26.5738 24.5834 125.548
1 14.0641 23.4685 453.225
1 3.22076 -1.92578 492.949
1 4.076 25.4379 469.999
1 24.1029 1.91054 76.9086
1 27.2804 1.6817 429.264
1 8.99327 14.9358 461.866
2 -0.0757383 19.7411 111.045
2 -0.133989 3.99316 485.71
2 19.5609 28.2544 60.7731
2 21.5665 6.03274 62.8359
1 24.1187 8.75533 65.071
1 8.58031 9.4709 449.837
1 3.52902 21.4359 479.88
1 23.9908 -0.338012 98.1037
1 -0.0312776 16.1836 78.3951
1 26.3427 5.60344 81.6765
1 4.15682 22.8419 118.461
1 9.64615 0.667288 66.6157
2 0.22889 24.9734 124.999
2 10.4654 17.3489 476.528
2 -2.11057 23.2717 491.384
2 -1.74014 26.7086 59.3128
1 14.537 4.04574 223.812
1 4.27501 19.7011 459.304
1 2.49625 23.4319 451.605
1 12.6932 -0.140687 470.19
1 24.1319 29.402 60.7974
1 17.6145 10.9585 62.9206
1 3.62679 26.6742 64.0742
1 13.5329 -0.801164 491.824
2 5.97159 17.9187 62.8447
2 10.7641 10.8957 131.413
2 13.4679 0.376317 65.0337
2 11.0263 12.8587 490.881
1 11.2223 19.4787 157.737
1 2.43164 1.64443 114.122
1 11.1988 25.3815 144.581
1 25.6093 29.0233 484.78
1 17.8163 12.1376 427.18
1 10.4111 15.9525 114.236
1 14.1749 4.71637 152.68
1 11.7046 6.98481 441.849
2 22.8832 0.706879 64.457
2 19.2338 1.09515 435.907
2 17.0995 22.814 455.804
2 28.1848 4.11583 70.9807
1 3.57036 24.2726 73.1948
1 18.3927 19.9392 452.257
1 19.4258 11.135 86.2112
1 29.3772 22.0035 115.444
1 21.87 1.89062 132.439
1 16.3335 18.3062 118.178
1 9.34862 26.1748 403.355
1 -1.72325 6.06713 74.3629
2 17.274 18.0313 66.8963
2 28.034 10.1318 79.6222
2 23.3632 3.41042 157.868
2 27.3924 4.37293 475.862
1 14.7144 4.39288 130.013
1 1.3209 23.4912 54.378
1 20.3533 5.43034 71.5495
1 10.295 27.3541 125.733
1 7.65054 8.42859 486.624
1 9.43922 7.592 218.02
1 1.65424 10.2963 76.0184
1 -2.25082 18.8638 449.463
2 25.2115 1.30379 78.7224
2 26.6824 11.0612 483.62
2 -0.0108997 12.3132 99.2131
2 5.35545 27.1772 81.7188
1 0.0827237 25.5677 473.87
1 15.4124 4.33289 133.176
1 16.0135 18.1959 72.878
1 5.28223 2.41777 88.962
1 15.4499 6.83722 478.043
1 4.10434 0.302918 72.4545
1 9.97403 28.4967 138.2
1 6.11386 9.10297 119.54
2 25.3385 -2.15147 85.1148
2 8.65861 1.83361 113.081
2 7.36805 3.69201 70.1922
2 5.33923 12.275 441.705
1 22.818 14.644 429.158
1 19.2955 26.1445 491.63
1 22.0278 14.7889 487.02
1 15.0298 8.11696 95.7168
1 14.0221 -1.0175 486.135
1 15.2814 5.9947 139.494
1 28.7665 8.8465 56.0966
1 2.44549 27.1031 460.405
2 12.667 21.9254 460.38
2 11.0943 23.2245 83.2952
2 21.3181 19.9728 63.0551
2 23.4119 -0.185501 481.776
1 25.5971 15.619 461.519
1 16.7615 28.5083 112.287
1 15.7029 6.07227 450.704
1 21.8311 26.8859 133.357
1 21.5836 1.81304 102.909
1 11.3258 1.85636 419.125
1 1.90803 8.75367 439.577
1 4.15948 3.70049 54.4116
2 10.4588 2.99568 106.312
2 7.53923 19.1365 488.75
2 -1.24557 25.6566 85.4405
2 20.9201 21.7802 71.3191
1 7.55157 -0.862014 80.0855
1 17.6023 4.31264 66.7914
1 -0.307886 -1.51018 88.5026
1 23.6806 0.557812 471.664
1 -2.27242 8.24366 72.1565
1 19.2076 12.3387 109.728
1 1.38788 19.2808 471.399
1 10.5058 2.16978 117.543
2 8.27971 10.0321 490.281
2 25.6493 2.97277 479.509
2 12.4336 18.7842 62.2707
2 11.2605 25.3482 443.994
1 12.4678 9.94935 120.513
1 -1.18731 20.0347 68.2044
1 16.7144 1.9133 110.486
1 8.692 25.956 78.2986
1 16.7636 8.77674 439.218
1 4.44371 16.9459 415.11
1 7.20734 20.2279 101.488
1 2.35659 -2.07667 133.456
2 14.4309 4.38372 70.8496
2 8.04471 0.112345 56.1689
2 18.5743 13.8997 151.519
2 13.6205 18.4096 66.5844
1 17.8843 1.69722 60.2957
1 22.5032 3.62463 68.4834
1 9.58164 16.7862 420.681
1 2.6881 29.4595 462.243
1 14.3102 17.3228 443.373
1 11.3746 18.1078 77.1405
1 17.5951 17.4025 94.1388
1 20.5854 27.1452 71.5952
2 8.63647 8.95555 389.591
2 20.1793 8.56911 118.208
2 17.0115 6.57309 490.648
2 24.9747 6.22251 60.5676
1 14.557 1.73658 447.914
1 29.4847 0.698812 468.02
1 6.6929 7.70939 457.268
1 14.5309 2.80774 375.96
1 17.1362 -0.0720218 120.887
1 17.4428 27.1252 488.987
1 11.4912 24.3666 99.6008
1 21.3114 12.3214 132.122
2 22.2637 1.77557 491.011
2 4.90504 25.554 53.8716
2 5.7419 -2.17748 411.699
2 25.4835 12.2811 107.639
1 25.2451 21.8667 54.9499
1 7.25898 13.2643 89.9339
1 19.2314 28.8984 480.243
1 12.0142 -0.0530375 69.6368
1 -0.0744783 10.1013 120.564
1 7.08113 24.1442 462.506
1 8.73278 4.01246 107.595
1 4.64832 -2.0961 74.6946
2 7.25897 11.5375 478.778
2 19.7329 3.34172 61.8991
2 27.985 22.4789 64.3191
2 6.44982 29.4671 66.9407
1 6.07919 15.9522 102.598
1 15.6372 27.2606 469.342
1 5.69908 -1.06642 56.4184
1 26.4422 28.0177 58.1793
1 18.3653 0.077179 210.41
1 13.0018 17.4499 60.3521
1 27.8603 22.0994 106.416
1 14.4765 1.65939 385.193
2 10.5302 16.8312 112.066
2 7.32534 27.7713 408.791
2 14.0957 1.14712 482.629
2 4.15132 24.5972 78.5776
1 3.28222 10.8992 55.1328
1 -0.101771 3.24299 75.3395
1 24.0219 -0.778074 66.138
1 13.6271 10.9093 67.8294
1 22.223 16.6965 168.091
1 26.8208 11.2152 86.3668
1 6.37405 10.4072 473.385
1 2.68342 3.39666 118.07
2 2.83585 22.2863 484.795
2 13.5027 28.5627 59.8436
2 17.109 29.2651 478.51
2 20.146 27.9239 79.8427
1 6.90337 4.11805 389.429
1 24.4592 17.1461 488.134
1 4.51851 5.93745 56.2739
1 25.5073 16.7253 159.433
1 23.8979 28.7255 75.9514
1 11.9101 25.4546 150.678
1 -2.2881 7.11292 405.19
1 20.8614 12.8884 58.5191
2 17.6632 14.9723 60.7205
2 1.05559 17.7728 452.751
2 17.5388 16.2531 145.059
2 13.8017 15.4325 482.01
1 11.1548 1.46552 88.4126
1 12.1968 18.3277 342.666
1 -0.17211 -0.918356 94.862
1 18.0793 -0.339861 399.432
1 8.3199 21.179 56.5311
1 -0.0530905 28.8324 96.8492
1 7.5129 26.7268 124.922
1 9.48184 23.5146 140.609
2 11.9814 25.3947 62.1523
2 28.8592 14.9121 101.213
2 5.83817 9.02655 471.66
2 13.7963 21.9962 141.798
1 5.38219 12.1735 483.211
1 -2.15183 10.0175 432.923
1 3.94405 15.5374 460.99
1 2.21048 17.9249 488.377
1 14.5256 -0.644146 67.3768
1 2.55487 16.1727 67.0417
1 22.2516 17.2401 486.025
1 17.5124 25.8469 93.931
2 13.9958 23.2373 473.159
2 6.86553 2.45521 95.7675
2 11.1571 17.7503 55.0159
2 6.79056 7.924 465.416
1 -1.62604 5.67733 139.656
1 28.4142 -2.03592 136.996
1 25.8676 29.1684 477.899
1 13.3224 16.3627 62.7981
1 14.7629 3.96749 91.4287
1 2.03294 9.43245 111.96
1 17.2426 26.5561 402.78
1 27.7638 16.0438 446.319
2 10.752 20.0877 68.41
2 7.42548 19.5606 475.607
2 7.09759 -0.593807 458.81
2 8.81711 27.9243 445.596
1 8.28682 14.3386 445.314
1 10.8745 21.5008 88.1707
1 16.3075 21.8586 100.418
1 13.1567 14.5029 463.262
1 7.94225 21.914 493.296
1 4.41074 7.13871 102.196
1 23.5025 9.68481 451.379
1 10.2423 10.7691 156.439
2 -1.75348 9.34166 453.129
2 3.61703 8.67334 71.6564
2 15.4183 7.85909 100.663
2 21.4903 22.2124 79.7542
1 16.2115 -2.21014 58.1348
1 2.53887 8.43379 99.6473
1 -0.682184 10.7567 421.724
1 4.24643 23.3165 95.6682
1 -0.781182 9.79624 115.739
1 5.3084 20.7869 127.853
1 16.8837 23.232 104.14
1 21.8389 15.4557 464.217
2 3.23906 20.3669 61.5071
2 -1.12277 28.9082 466.251
2 14.9911 11.1173 65.8745
2 16.4643 -1.11754 129.114
1 3.36782 0.188089 470.586
1 8.98021 26.8199 84.6865
1 13.7718 -2.17546 69.6447
1 13.0808 23.6731 66.1484
1 2.27202 17.1534 436.157
1 24.602 18.3513 119.995
1 -0.662772 23.195 72.7235
1 2.75977 8.9788 466.769
2 10.1399 1.15719 82.1793
2 2.32012 12.0938 61.3794
2 1.5591 0.112439 462.858
2 8.30825 5.34806 65.8338
1 -0.263834 -2.00285 164.174
1 19.2047 10.8102 467.853
1 1.56581 14.9947 464.936
1 28.0455 13.7049 426.884
1 2.23749 22.0318 142.501
1 0.431782 20.5603 73.9376
1 22.9008 24.9675 112.519
1 10.3501 20.0237 104.921
2 7.03965 29.363 489.786
2 18.5675 24.6305 442.668
2 20.4203 22.661 459.19
2 25.3505 18.7152 116.067
1 4.39685 4.85484 480.783
1 21.3383 9.92681 88.4122
1 9.91161 -1.71781 492.974
1 25.0979 -0.289796 75.44
1 -1.79348 27.9304 114.461
1 6.59785 10.2833 417.105
1 22.6584 5.98508 82.9028
1 28.6844 3.22207 91.7716
2 20.4974 11.9227 112.017
2 3.53942 5.80425 416.807
2 9.82231 26.7308 64.8353
2 5.23162 18.1691 94.8757
1 20.4419 7.70755 434.378
1 0.59019 15.3351 150.801
1 12.2631 6.35538 57.1121
1 -0.42247 0.506001 454.417
1 10.3564 20.1402 62.486
1 26.7222 3.80272 56.8745
1 15.0566 26.5367 102.94
1 24.6632 14.337 120.83
2 0.643782 21.8421 481.573
2 0.52501 9.05417 100.751
2 9.76562 19.3332 64.6837
2 23.4676 18.7111 59.6917
1 25.5955 16.7146 111.673
1 3.98198 -2.12727 406.977
1 -2.02966 17.6727 486.739
1 11.3301 21.7313 100.376
1 9.46747 10.2044 82.0212
1 11.6645 25.0889 127.318
1 -0.0695741 11.5216 406.734
1 24.4417 10.0201 136.322
2 2.07006 27.1036 62.1742
2 4.20278 9.54468 493.231
2 8.46636 4.49172 92.8179
2 13.5236 14.0057 452.636
1 3.18731 26.8191 441.446
1 5.1035 -0.470725 179.268
1 20.2337 7.31844 79.4807
1 21.1882 0.0794419 66.3518
1 11.6957 26.5157 475.451
1 13.0047 0.950202 99.5245
1 24.1663 -1.84947 211.267
1 18.6116 -0.777042 465.874
2 14.9016 13.7963 485.159
2 24.8135 10.8756 65.7698
2 -2.04661 3.94695 96.369
2 22.6172 -1.08797 68.0536
1 29.3783 19.8142 106.81
1 23.9838 1.10401 90.9012
1 6.31977 19.4995 461.715
1 19.9141 -2.01624 100.839
1 2.49744 12.3133 106.011
1 12.4545 27.8245 429.937
1 -1.86224 8.22746 481.132
1 28.5094 17.1242 112.409
2 11.1657 7.09776 490.501
2 23.0585 13.3035 82.9377
2 6.10875 -0.947146 107.289
2 11.003 5.06544 76.8042
1 19.4162 11.288 169.912
1 22.7562 13.3251 466.43
1 0.916066 4.24977 455.033
1 19.3344 8.01367 134.16
1 12.5761 -0.127285 483.795
1 21.8358 13.4573 102.385
1 -2.11541 9.11179 75.3414
1 11.2306 2.99346 444.776
2 13.0662 10.7405 84.9931
2 16.7392 25.7491 69.4155
2 11.883 -2.1074 71.0614
2 19.7577 5.77918 111.385
1 -1.3857 12.3664 142.611
1 8.75539 24.6487 92.2328
1 14.6567 14.9823 387.431
1 27.4574 12.5123 70.0693
1 17.8189 28.5853 465.2
1 23.6968 7.845 59.7561
1 5.73949 18.6662 493.088
1 4.28665 8.09744 112.867
2 11.1213 17.5647 116.122
2 14.4335 0.464759 101.173
2 24.6647 28.8274 491.758
2 15.8658 15.5386 80.0311
1 1.60303 12.6375 138.016
1 6.03378 16.6692 483.996
1 20.332 6.77732 93.5508
1 15.9563 6.84963 88.8157
1 28.151 23.8277 56.156
1 19.5038 15.0313 481.529
1 9.48826 19.1913 71.4982
1 21.2409 23.6867 58.646
2 9.89202 6.96537 474.463
2 21.2513 1.95707 68.0036
2 20.655 -0.656782 92.1355
2 5.7224 28.4464 56.6049
1 15.6084 10.4098 380.446
1 5.26339 8.40004 90.2066
1 8.83377 18.8892 477.243
1 0.341364 25.2817 109.025
1 15.7457 25.3718 90.0268
1 25.5906 16.0988 145.717
1 20.5486 20.6215 474.257
1 15.0682 8.55329 487.962
2 -1.07101 16.038 60.0387
2 12.7052 14.922 61.0613
2 8.35717 20.5858 106.324
2 -1.96435 13.5218 74.9698
1 24.1674 20.8528 231.472
1 25.2347 25.5036 407.059
1 7.56249 5.5531 101.082
1 7.10944 28.7017 107.048
1 15.9334 -0.350729 55.2286
1 20.8174 23.5334 114.112
1 5.96726 0.658198 474.09
1 9.31938 26.2236 443.223
2 16.796 6.3585 61.0328
2 20.8991 21.8032 93.3864
2 12.4766 14.7092 64.368
2 2.02132 4.8816 492.033
1 2.48114 16.0257 77.1318
1 20.3264 12.1534 127.677
1 13.7607 26.1621 194.385
1 12.4362 -2.27667 489.797
1 20.6367 21.4943 453.317
1 -0.943849 28.6137 154.746
1 21.5768 2.89634 90.9573
1 18.8611 4.78065 53.3892
2 -1.02231 6.61037 469.986
2 15.3799 10.9203 98.8374
2 28.5192 -0.300404 73.9814
2 28.7896 2.79384 121.43
1 14.7231 28.9894 422.8
1 13.4344 21.3513 436.938
1 4.13571 -1.42663 439.357
1 25.1459 29.4458 418.821
1 24.1906 12.8395 87.1308
1 19.4903 27.2866 122.6
1 22.0139 7.70882 69.6598
1 0.0447628 16.8029 144.393
2 13.0473 3.55382 74.1778
2 6.87324 -1.15588 119.808
2 19.4771 -0.652416 77.656
2 22.1878 29.2867 54.2463
1 24.6795 24.5638 442.37
1 8.88822 10.5459 182.222
1 21.0945 16.2334 435.746
1 24.8434 26.3735 97.9885
1 25.8099 15.2654 424.547
1 15.2819 8.79249 484.491
1 13.4003 6.36793 126.068
1 27.5378 17.2486 432.424
2 19.5501 27.9596 84.4274
2 -0.533076 9.02992 66.2917
2 5.00623 3.57643 90.9198
2 18.4639 5.93767 121.549
1 15.4374 12.7789 464.3
1 26.1445 -0.989959 105.553
1 6.35892 22.5917 465.156
1 3.01489 15.2534 137.296
1 14.1906 9.06509 99.1655
1 25.5705 19.682 466.272
1 29.4937 14.3194 91.6117
1 13.9162 -0.989068 78.3914
2 -1.53856 24.962 98.9624
2 15.4944 25.6321 488.486
2 15.1666 12.8151 58.964
2 -1.22831 25.2512 63.3238
1 14.1017 8.09246 445.794
1 27.288 22.3498 399.771
1 10.2434 0.0274798 490.589
1 28.1373 23.0567 479.714
1 28.4241 1.93946 136.011
1 19.6158 27.575 397.231
1 26.1556 2.9014 438.171
1 -0.939323 1.45057 119.991
2 26.7243 15.3147 483.393
2 2.49855 21.8195 80.195
2 -0.676073 1.24041 79.5475
2 24.126 21.3399 475.717
1 12.1447 14.8472 454.553
1 25.5653 17.01 62.3807
1 22.2782 22.3763 457.399
1 -1.17363 15.6576 140.098
1 8.07836 -2.25308 464.605
1 9.36358 18.1513 470.981
1 21.4525 15.3686 91.0402
1 20.4053 13.994 456.151
2 20.2356 22.3652 97.1506
2 -0.257379 13.7937 63.1605
2 20.389 12.2585 492.637
2 11.5118 20.2012 94.7381
1 9.00316 0.736353 90.353
1 18.5046 12.2613 461.311
1 5.01174 0.948454 108.665
1 23.312 -0.987447 86.1552
1 13.1074 12.6191 65.1779
1 27.5214 13.6594 178.715
1 15.7869 3.52772 61.8985
1 -1.18298 28.5342 90.581
2 23.0228 19.0122 96.4354
2 10.9987 8.71869 486.981
2 27.9188 13.585 98.0745
2 29.4534 19.6812 69.9392
1 1.73612 17.9795 476.639
1 13.6152 1.44732 423.193
1 14.8356 -1.28216 130.8
1 -0.689207 27.7884 434.561
1 8.65375 -1.59324 478.617
1 19.0757 26.6551 438.997
1 19.4039 8.78246 74.4708
1 0.848684 18.4312 412.312
2 11.3763 -2.26978 54.2507
2 1.53406 7.24774 106.344
2 9.02672 4.29314 80.4308
2 15.9103 29.5103 70.0027
1 28.2409 1.35439 56.2831
1 4.03798 21.969 88.3265
1 14.5121 8.94737 83.0169
1 13.0353 20.633 411.439
1 19.5078 26.5632 458.478
1 19.1627 12.3236 83.6773
1 23.5259 -1.41098 70.2961
1 29.2433 24.256 62.0059
2 0.654815 12.0465 475.706
2 7.34556 6.02347 472.365
2 29.6374 26.7834 477.301
2 4.39837 19.5676 90.628
1 20.7748 5.20912 100.559
1 24.7152 11.0357 215.638
1 14.6127 18.8086 448.932
1 15.8182 19.0661 98.4541
1 29.2708 9.32256 67.8899
1 24.0927 23.3811 152.949
1 1.10458 28.4673 466.761
1 21.9396 6.00905 454.646
2 16.6443 1.77311 83.281
2 13.6445 6.68588 82.9695
2 14.6861 28.7742 103.655
2 2.6521 26.5273 72.8184
1 27.3295 19.4453 58.2751
1 12.8183 3.83102 78.6111
1 23.5939 15.8975 474.519
1 9.763 11.8831 124.591
1 14.5472 27.1462 151.919
1 16.5709 28.3535 439.537
1 29.3476 29.5158 464.552
1 14.6397 5.73525 182.202
2 27.151 -2.24943 468.648
2 7.78104 20.5443 93.3854
2 2.71703 1.12795 153.824
2 -2.21724 3.17278 64.1091
1 29.0945 21.1299 98.8256
1 1.67326 24.0071 138.025
1 12.649 19.5882 54.9975
1 0.0892067 2.59346 59.8752
1 13.3205 14.6231 53.7023
1 22.6544 5.33177 75.0697
1 22.6359 10.5524 211.297
1 5.66431 28.4176 98.2784
2 11.076 13.9591 84.3122
2 13.3798 8.415 103.821
2 0.448245 15.6935 80.5735
2 2.46601 16.6918 466.319
1 4.68186 -0.594636 59.7308
1 14.5668 5.67722 193.241
1 11.5934 14.719 451.369
1 14.9906 29.4334 108.212
1 7.50469 7.47875 125.344
1 14.7282 8.73706 475.72
1 27.8166 11.3382 490.24
1 5.41201 25.2407 83.0894
2 8.83297 16.2744 100.729
2 1.24474 26.2133 466.925
2 1.33646 11.0898 83.691
2 9.83798 -0.265964 69.0431
1 15.8553 29.445 463.643
1 14.4969 23.6295 489.867
1 2.71685 13.4696 472.863
1 25.712 15.7521 472.615
1 0.0246627 21.5134 406.816
1 20.0119 21.6791 138.844
1 14.3844 -1.68154 81.4919
1 11.4398 15.1171 486.357
2 3.6357 11.3182 473.301
2 25.4756 8.88965 109.654
2 21.6393 25.5309 69.9933
2 29.0523 13.6667 485.361
1 3.77366 1.03528 116.547
1 3.66818 17.4744 401.68
1 18.6712 9.7141 143.665
1 -1.28332 5.08599 396.441
1 18.8168 11.8614 133.473
1 25.5968 20.6807 439.533
1 4.43483 26.1889 56.0917
1 4.18246 27.0215 87.6974
2 22.2693 5.38653 441.347
2 18.6556 23.9593 492.684
2 22.8242 7.89019 158.36
2 26.4769 24.5254 440.816
1 22.9818 6.2442 72.3263
1 -1.20824 3.32512 466.327
1 12.9061 20.4014 478.583
1 11.4994 17.8754 107.524
1 -0.14862 12.9304 90.4478
1 10.005 16.1891 435.589
1 27.5667 13.3404 142.441
1 18.2614 7.04844 112.648
2 25.0673 28.9222 69.4593
2 27.2927 22.0997 447.508
2 13.017 25.3364 103.064
2 13.3089 17.2094 82.3735
1 26.3209 8.86648 483.953
1 21.1736 -0.512834 123.361
1 -0.848066 5.0353 90.7997
1 17.2956 28.2125 359.599
1 7.87562 15.0484 94.7062
1 12.9413 21.703 79.7764
1 -1.86137 3.7449 487.02
1 24.373 15.5256 490.686
2 16.4117 5.17853 92.1916
2 6.00274 7.1627 62.9595
2 28.7845 0.88053 60.7598
2 25.5165 28.2599 92.6058
1 15.9866 23.047 419.949
1 6.90038 8.6889 141
1 29.0395 23.2654 53.4271
1 7.26841 13.1487 108.634
1 0.923335 19.3157 481.036
1 3.04962 4.29439 114.79
1 13.9533 28.8459 88.5962
1 14.6543 12.7192 95.1374
2 22.0825 27.0802 57.6828
2 16.0247 25.5241 104.647
2 -1.74675 5.46921 67.1087
2 8.62167 7.87121 74.76
1 15.1276 23.5469 137.036
1 -1.41158 7.50911 137.336
1 1.52063 22.3902 89.6414
1 11.636 14.7445 68.5849
1 19.5929 29.5574 146.25
1 18.0203 4.9004 108.049
1 6.71341 28.7226 462.05
1 24.4852 8.31006 439.945
2 19.7454 21.8151 126.05
2 7.05881 22.2933 102.63
2 -0.303973 11.4871 450.169
2 20.8754 21.6245 59.3885
1 24.1072 5.3345 69.7045
1 6.52168 18.4348 109.277
1 3.70443 14.5825 482.036
1 20.0863 22.9247 168.962
1 -0.24957 1.33228 69.7746
1 16.3723 5.57978 492.845
1 22.4487 12.153 124.093
1 29.1136 27.9145 57.577
2 19.4608 24.6758 67.0625
2 14.0089 9.48531 490.078
2 3.58047 1.47343 77.4108
2 6.0414 14.2874 62.0555
1 28.4481 17.5882 63.1238
1 22.9409 0.857667 88.1001
1 13.325 13.2893 70.3531
1 27.3339 20.3239 74.9254
1 6.73121 1.20343 450.538
1 12.3078 9.30906 96.847
1 17.4619 -0.283458 455.035
1 21.2632 20.6339 410.506
2 12.5771 19.2724 105.956
2 1.41572 1.43685 103.388
2 22.5119 12.3382 68.5616
2 13.416 0.683817 443.502
1 12.1548 27.0564 472.804
1 25.9884 27.4784 74.0483
1 28.1834 0.342608 117.109
1 21.0097 -1.39101 76.0058
1 29.5207 -1.62391 482.569
1 21.6827 3.02026 58.3973
1 19.8276 12.5428 465.569
1 21.5157 11.5769 165.806
2 18.7046 27.792 92.2442
2 14.2916 12.7682 492.512
2 14.0978 11.8575 120.301
2 2.83974 6.20329 134.231
1 15.7295 27.8083 129.743
1 22.8188 22.7519 474.262
1 22.4357 27.7546 114.03
1 -1.2552 -1.70866 64.0032
1 7.47692 -0.780058 65.6076
1 24.8847 16.4678 84.7277
1 -0.646981 11.5265 75.0283
1 18.1286 20.7454 471.02
2 18.9275 11.8929 66.0784
2 0.604327 27.7327 489.609
2 -0.223324 18.3808 128.698
2 5.45155 21.4497 73.3934
1 -0.630318 12.0292 103.141
1 28.1601 20.5053 478.284
1 20.581 20.8485 421.889
1 11.4722 0.500705 493.489
1 9.39998 28.9943 461.903
1 7.55727 15.508 155.752
1 6.41304 1.60893 102.822
1 1.13835 28.7649 63.4276
2 -1.66894 10.2118 73.2645
2 14.6548 1.5658 91.6097
2 23.6781 9.83082 94.03
2 14.7096 7.97009 71.9821
1 17.0445 4.48061 463.129
1 14.0074 18.5759 78.5161
1 15.1998 15.2214 117.511
1 6.32157 25.6985 80.111
1 8.60427 8.71654 95.0622
1 16.6476 24.0028 63.0466
1 6.16743 7.08378 434.385
1 20.5156 8.22192 446.807
2 21.5818 11.6337 453.869
2 7.47732 24.7639 83.8993
2 10.7895 4.09521 68.7761
2 12.6149 16.7458 95.8626
1 10.2193 23.5181 451.222
1 28.7353 24.4605 477.246
1 6.01156 20.0917 121.97
1 22.1575 3.94753 114.138
1 27.0311 17.601 482.9
1 11.1752 0.809786 136.953
1 -0.779592 1.62232 488.09
1 5.36175 13.3005 70.5645
2 15.1237 21.7889 74.437
2 26.6466 13.3177 82.022
2 20.5303 -1.53152 475.6
2 4.30305 13.4846 477.192
1 13.5139 1.24238 86.5379
1 16.1027 25.1933 170.686
1 10.5222 8.28986 150.277
1 23.7253 16.4312 434.057
1 5.20002 18.7796 148.854
1 11.5093 3.3319 473.985
1 23.8645 20.1471 109.571
1 22.8772 7.51863 151.248
2 10.6445 25.0598 473.307
2 8.89544 19.5515 60.867
2 19.9029 11.6939 62.4127
2 28.8762 -1.19954 107.636
1 11.8323 20.7459 153.834
1 14.4125 27.6101 97.2076
1 17.6299 6.66234 125.972
1 -1.824 -0.412886 66.1914
1 24.9715 22.9054 470.432
1 3.73977 25.0451 102.83
1 0.393983 18.845 132.158
1 2.70574 28.6537 456.601
2 10.3162 10.2373 476.771
2 1.65081 18.9646 483.877
2 8.33851 3.92116 490.734
2 20.9512 13.5861 56.1537
1 -1.33656 17.6245 93.3931
1 -0.8289 1.67074 88.8563
1 9.73521 15.8867 122.263
1 9.84561 19.1293 122.885
1 19.6417 21.9566 111.813
1 8.70472 20.2377 89.5504
1 8.68843 16.8084 480.04
1 2.27849 29.313 102.563
2 29.5482 19.3326 57.7831
2 -0.440417 24.9892 95.1723
2 11.8692 10.6168 466.814
2 5.57189 2.34384 73.6822
1 28.3585 16.0354 72.2735
1 7.90628 28.8779 459.293
1 7.11257 0.605116 74.4681
1 6.29647 19.2979 74.1707
1 18.1968 16.8912 87.3566
1 1.29193 7.88724 134.081
1 -0.351022 26.6281 75.3122
1 7.97567 0.769667 469.064
2 5.18779 24.5063 71.3834
2 8.15115 19.2806 493.405
2 8.72784 4.29095 73.4753
2 8.20324 2.13968 462.968
1 7.42093 5.37599 480.943
1 11.7305 8.03116 143.531
1 16.6563 8.72508 110.182
1 19.046 24.9227 74.0318
1 6.87485 7.93452 87.7254
1 3.76527 26.9863 485.224
1 23.0692 5.42322 144.985
1 2.38685 3.92906 438.293
2 29.3852 19.4746 62.3924
2 28.1482 29.5045 58.8579
2 28.3422 7.04164 73.2216
2 26.7361 16.2536 78.0097
1 4.53235 13.1028 78.8072
1 26.8423 11.0407 426.981
1 19.258 21.5681 486.05
1 9.46756 5.52966 82.2623
1 21.062 21.1013 174.155
1 20.9101 17.1285 160.297
1 17.7016 21.7881 64.6539
1 15.6776 28.1558 174.487
2 18.6878 29.2531 105.223