ITEM: TIMESTEP
20000
ITEM: NUMBER OF ATOMS
17640
ITEM: BOX BOUNDS pp pp pp
-4.3278497825719092e-01 2.7772784978257267e+01
-5.1796043976267656e+00 3.3325960439762036e+02
-4.4597724224380247e-01 2.7785977242243803e+01
ITEM: ATOMS id type q x y z
1 2 2.2208 5.28022 0.476564 5.26532
2 1 -1.1104 1.00407 -3.68499 0.732298
6 1 -1.1104 0.749344 -3.8556 3.94178
10 1 -1.1104 1.00704 -1.04246 0.93376
12 2 2.2208 5.07261 -2.4454 2.24986
14 1 -1.1104 1.09586 -1.24445 3.7523
16 1 -1.1104 3.72591 -3.87036 0.929493
18 2 2.2208 2.47073 0.387794 2.48574
19 1 -1.1104 3.77142 -3.95925 3.61577
21 2 2.2208 2.41602 -2.44136 5.22402
23 1 -1.1104 3.93054 -0.99839 0.735874
24 1 -1.1104 3.88742 -0.856568 3.64163
202 2 2.2208 13.592 5.94392 8.00287
11 1 -1.1104 6.65221 -0.884588 0.940256
30 2 2.2208 -0.429217 8.79595 8.05862
8934 2 2.2208 8.03473 -5.07599 7.92693
51 2 2.2208 -0.386226 11.6106 10.79
8928 2 2.2208 7.93873 -5.162 2.34686
166 1 -1.1104 0.992119 -3.54166 6.72076
354 2 2.2208 8.07158 6.12627 13.6685
4 1 -1.1104 6.6067 -3.87318 0.768422
8 1 -1.1104 6.59023 -3.81344 3.75986
15 1 -1.1104 6.6302 -0.907701 3.73732
31 2 2.2208 10.7267 0.341006 5.3501
32 1 -1.1104 12.444 -3.65865 1.14965
34 1 -1.1104 12.2727 -3.79083 3.82467
36 1 -1.1104 12.2874 -0.932819 1.08509
37 2 2.2208 10.8154 -2.20624 2.45211
39 1 -1.1104 12.2951 -1.00091 3.8075
40 1 -1.1104 9.32125 -3.8585 0.962323
42 2 2.2208 8.10948 0.32479 2.19933
43 1 -1.1104 9.30809 -3.68355 3.73071
45 2 2.2208 8.06405 -2.50102 5.17202
47 1 -1.1104 9.59524 -1.01483 0.97911
48 1 -1.1104 9.52399 -0.929566 3.79991
357 2 2.2208 2.23624 17.1867 13.6702
52 2 2.2208 13.6846 8.84572 10.762
204 2 2.2208 13.3669 14.5564 5.25265
3 1 -1.1104 0.930239 1.73883 1.12329
7 1 -1.1104 0.873955 1.74737 3.95252
13 2 2.2208 5.16726 3.16558 2.28159
17 1 -1.1104 3.85711 1.71989 0.975362
20 1 -1.1104 3.692 1.79454 3.77517
22 2 2.2208 2.31772 3.19904 5.4469
54 2 2.2208 5.02016 5.97668 5.19528
58 1 -1.1104 0.842277 7.61528 3.90524
60 1 -1.1104 0.910051 4.46653 1.185
67 1 -1.1104 0.929167 4.68923 3.9093
71 1 -1.1104 3.72911 7.59831 1.02995
72 2 2.2208 2.45513 6.06321 2.38239
76 1 -1.1104 3.70458 4.72249 0.970822
79 1 -1.1104 3.90906 4.57043 3.69333
74 1 -1.1104 3.7168 7.51245 3.95242
56 1 -1.1104 0.855127 7.19018 0.863339
69 1 -1.1104 6.55582 4.80272 3.85078
5 1 -1.1104 6.76998 1.69846 0.740728
9 1 -1.1104 6.73134 1.8981 3.4708
57 1 -1.1104 6.68662 7.29614 1.03302
369 2 2.2208 10.9027 0.370991 -0.381322
368 2 2.2208 -0.426507 0.292625 -0.241988
238 1 -1.1104 3.8496 7.36396 6.86517
173 1 -1.1104 3.63959 1.73301 6.55558
167 1 -1.1104 0.777809 1.84211 6.73843
104 2 2.2208 13.47 11.5634 2.44397
199 2 2.2208 -0.386893 3.42949 8.06683
63 1 -1.1104 6.5295 4.41964 0.902739
59 1 -1.1104 6.49303 7.46239 3.97111
33 1 -1.1104 12.1394 1.78165 1.13268
35 1 -1.1104 12.1812 1.88464 3.98386
38 2 2.2208 10.6919 3.15352 2.38789
41 1 -1.1104 9.27282 1.75845 0.911903
44 1 -1.1104 9.51908 1.70171 3.81619
46 2 2.2208 8.02459 3.15121 5.12032
84 2 2.2208 10.6846 5.88129 5.06292
87 1 -1.1104 11.9534 7.41684 3.86258
88 1 -1.1104 12.1457 4.66422 1.08986
92 1 -1.1104 11.9517 4.83904 3.53888
95 2 2.2208 7.89443 5.84491 2.40847
97 1 -1.1104 9.22044 7.23666 3.78505
99 1 -1.1104 9.09907 4.55862 0.978002
102 1 -1.1104 9.29743 4.51961 3.73128
94 1 -1.1104 9.32951 7.34873 1.31312
105 2 2.2208 13.5471 6.01674 2.49406
8932 2 2.2208 5.08656 -5.15166 10.9327
237 1 -1.1104 6.59886 4.55698 6.66759
231 2 2.2208 13.6328 19.9078 5.26825
55 2 2.2208 5.21555 11.5402 5.32588
61 1 -1.1104 1.08926 10.0642 1.16169
66 2 2.2208 5.19547 8.9675 2.30739
68 1 -1.1104 0.849095 10.345 3.97705
73 2 2.2208 2.28283 11.6992 2.61674
75 2 2.2208 2.28379 8.8743 5.23649
77 1 -1.1104 3.93265 10.1892 0.797786
80 1 -1.1104 3.75391 10.2686 3.6671
107 1 -1.1104 0.85842 12.8436 1.021
113 1 -1.1104 0.737834 12.9535 3.75054
123 1 -1.1104 3.62405 13.0612 0.855428
128 1 -1.1104 3.59448 12.8815 3.85658
70 1 -1.1104 6.50012 10.1792 3.96519
110 1 -1.1104 6.51235 13.1021 0.913236
64 1 -1.1104 6.71451 10.2967 1.16922
332 2 2.2208 13.6651 17.1821 8.31109
62 1 -1.1104 0.900639 10.0835 6.53057
378 2 2.2208 13.6531 3.21506 -0.236701
86 1 -1.1104 12.4279 7.55247 1.0161
115 1 -1.1104 6.63501 13.1006 3.78755
85 2 2.2208 10.7083 11.586 5.15572
89 1 -1.1104 12.295 10.2355 1.22443
91 2 2.2208 10.7091 8.79931 2.55647
93 1 -1.1104 12.0138 10.0252 3.82654
96 2 2.2208 8.07843 11.7586 2.41604
98 2 2.2208 7.85484 8.62128 5.19594
100 1 -1.1104 9.56177 10.0859 1.13677
103 1 -1.1104 9.28922 10.1486 3.9785
142 1 -1.1104 12.1796 12.9786 1.10641
146 1 -1.1104 12.0436 12.8039 3.85042
153 1 -1.1104 9.33293 12.7998 0.779775
158 1 -1.1104 9.41472 13.0833 3.85702
8929 2 2.2208 10.8855 -5.15064 5.0402
65 1 -1.1104 6.38465 10.2676 6.76831
233 2 2.2208 13.6743 3.12278 5.45337
130 2 2.2208 2.29815 14.3086 5.23434
106 2 2.2208 5.12665 17.4016 5.31265
109 1 -1.1104 0.836672 18.3123 0.885507
114 1 -1.1104 0.797297 18.3338 3.85293
116 1 -1.1104 0.606174 15.6266 0.950936
119 2 2.2208 5.15922 14.2215 2.48839
120 2 2.2208 5.08641 19.9842 2.15104
121 1 -1.1104 0.916992 15.7499 3.8719
125 1 -1.1104 3.79372 18.4836 0.701884
127 2 2.2208 2.31518 16.9762 2.20101
129 1 -1.1104 3.6002 18.4485 3.57632
131 2 2.2208 2.37713 19.9211 5.2131
132 1 -1.1104 3.65841 15.768 0.752622
134 1 -1.1104 3.80152 15.7188 3.74696
373 2 2.2208 2.10473 14.2984 -0.30418
138 1 -1.1104 6.63627 18.5687 1.20832
333 2 2.2208 13.4844 14.3372 10.8459
117 1 -1.1104 1.29399 15.5824 6.83194
380 2 2.2208 2.29944 8.95024 -0.359372
8944 2 2.2208 5.12283 -5.11075 -0.415697
313 2 2.2208 -0.291749 14.3492 8.04
160 2 2.2208 8.06188 14.605 5.2719
150 2 2.2208 10.8461 14.3995 2.495
140 1 -1.1104 6.41925 15.7725 0.899776
139 1 -1.1104 6.33637 18.7725 3.73267
122 1 -1.1104 6.6874 16.1329 3.9885
141 2 2.2208 10.8371 17.2056 5.3511
144 1 -1.1104 12.1927 18.6696 1.01908
147 1 -1.1104 12.2757 18.536 3.8759
148 1 -1.1104 12.0205 15.7406 1.13007
151 2 2.2208 10.6895 19.9495 2.48224
152 1 -1.1104 12.1086 15.852 4.01422
155 1 -1.1104 9.44641 18.5508 0.951525
157 2 2.2208 7.96173 17.2065 2.36837
159 1 -1.1104 9.05589 18.7263 3.62063
161 2 2.2208 7.85036 19.9371 5.14747
162 1 -1.1104 9.3491 15.5476 1.1077
164 1 -1.1104 9.47719 15.9136 3.96709
325 2 2.2208 10.7489 14.3516 8.0961
53 2 2.2208 13.4961 11.6328 7.968
345 2 2.2208 13.4641 20.1567 -0.36148
112 1 -1.1104 6.65825 18.6086 6.68057
201 2 2.2208 -0.319236 0.313868 10.9066
172 1 -1.1104 3.75208 -3.66766 6.61247
170 1 -1.1104 0.950721 -0.911032 6.69472
174 1 -1.1104 3.74449 -0.859027 6.50676
175 2 2.2208 5.1008 0.404502 10.6276
176 1 -1.1104 0.765583 -3.97435 12.272
180 1 -1.1104 0.963287 -3.98013 9.45473
184 1 -1.1104 0.917985 -1.09245 12.2781
186 2 2.2208 5.22619 -2.41575 8.00923
188 1 -1.1104 0.973533 -1.23337 9.4749
190 1 -1.1104 3.75559 -3.55209 12.272
192 2 2.2208 2.41308 0.301679 8.04093
193 1 -1.1104 3.69273 -3.77783 9.3769
195 2 2.2208 2.2108 -2.41289 10.8358
197 1 -1.1104 3.57877 -0.759812 12.1069
198 1 -1.1104 3.78915 -0.925188 9.33154
171 1 -1.1104 6.61864 -0.987875 6.64376
189 1 -1.1104 6.64994 -1.08344 9.46517
178 1 -1.1104 6.64608 -3.95343 12.0956
320 2 2.2208 7.97753 17.1546 7.98644
182 1 -1.1104 6.38869 -3.81506 9.22465
205 1 -1.1104 12.4613 -3.79395 6.59596
207 1 -1.1104 12.1376 -0.86262 6.57877
208 1 -1.1104 9.44623 -3.74437 6.65113
185 1 -1.1104 6.51543 -1.0415 12.2244
168 1 -1.1104 6.5514 -3.85374 6.44665
210 1 -1.1104 9.40922 -1.1207 6.89411
211 2 2.2208 10.8722 0.35676 10.8961
212 1 -1.1104 12.3356 -3.71155 12.4162
214 1 -1.1104 12.4131 -3.8563 9.39347
216 1 -1.1104 12.1385 -0.946512 12.2222
217 2 2.2208 10.991 -2.38297 8.0372
219 1 -1.1104 12.2836 -1.06466 9.42727
220 1 -1.1104 9.4465 -3.56963 12.2664
222 2 2.2208 8.03066 0.476261 8.13343
223 1 -1.1104 9.27177 -3.90847 9.62506
225 2 2.2208 7.97684 -2.50158 10.9396
227 1 -1.1104 9.40188 -0.951718 12.33
228 1 -1.1104 9.53699 -0.862259 9.46171
165 2 2.2208 13.5147 17.2403 2.46471
236 1 -1.1104 1.15555 4.68145 6.71995
234 1 -1.1104 0.889462 7.43237 6.61504
239 1 -1.1104 3.91156 4.71466 6.48315
177 1 -1.1104 1.0938 1.63043 12.3435
181 1 -1.1104 0.969241 1.85596 9.44293
187 2 2.2208 5.22369 3.0927 7.9116
191 1 -1.1104 3.90788 1.96267 12.3948
194 1 -1.1104 3.81411 1.9573 9.24326
196 2 2.2208 2.37446 3.04157 11.066
240 2 2.2208 5.08562 5.83755 10.8785
242 1 -1.1104 0.923878 7.2067 12.6454
244 1 -1.1104 0.897005 7.17076 9.46297
246 1 -1.1104 0.902724 4.44597 12.3439
251 1 -1.1104 1.16474 4.40317 9.65871
255 1 -1.1104 3.77881 7.37574 12.2342
256 2 2.2208 2.45041 6.05866 8.04125
258 1 -1.1104 3.77044 7.35673 9.74633
260 1 -1.1104 3.53055 4.79832 12.5557
262 1 -1.1104 3.87552 4.55042 9.41212
235 1 -1.1104 6.45762 7.34848 6.98936
183 1 -1.1104 6.61217 1.71174 9.31363
179 1 -1.1104 6.53406 1.49767 12.1287
206 1 -1.1104 12.1691 1.67829 6.76564
266 1 -1.1104 12.1547 4.53806 6.49871
169 1 -1.1104 6.49926 1.73127 6.62096
267 1 -1.1104 9.23586 7.24773 6.39105
265 1 -1.1104 11.9874 7.41205 6.75887
269 1 -1.1104 9.3597 4.44511 6.60271
248 1 -1.1104 6.60855 4.68293 12.491
245 1 -1.1104 6.8022 7.29224 9.4771
253 1 -1.1104 6.49062 4.35738 9.54781
243 1 -1.1104 6.31714 7.60711 12.1385
209 1 -1.1104 9.29419 1.70208 6.61685
213 1 -1.1104 12.1836 1.66257 12.4119
215 1 -1.1104 12.255 1.79465 9.38943
218 2 2.2208 10.7715 3.06297 8.06625
221 1 -1.1104 9.41923 2.00618 12.2472
224 1 -1.1104 9.35571 1.94247 9.39071
226 2 2.2208 7.99355 3.22802 10.8395
268 1 -1.1104 9.4061 4.48239 9.30123
271 1 -1.1104 9.51081 4.71927 12.1166
275 2 2.2208 7.94643 5.93089 7.98926
276 2 2.2208 10.7996 6.00606 10.5958
278 1 -1.1104 12.1424 7.67332 12.2475
279 1 -1.1104 12.3122 7.40384 9.50889
280 1 -1.1104 12.1666 4.57564 12.2569
283 1 -1.1104 12.1982 4.68972 9.41763
285 1 -1.1104 9.3497 7.49769 12.1883
273 1 -1.1104 9.34839 7.43977 9.14699
78 1 -1.1104 3.71258 9.99539 6.51207
108 1 -1.1104 0.804819 12.9503 6.61878
124 1 -1.1104 3.60721 13.0296 6.58191
294 1 -1.1104 1.03502 13.0887 9.55646
305 1 -1.1104 3.70643 13.3704 9.43371
241 2 2.2208 5.27017 11.6851 10.9867
247 1 -1.1104 1.03969 9.88243 12.0885
250 2 2.2208 5.31721 8.85081 8.31373
252 1 -1.1104 0.865267 10.1701 9.5135
257 2 2.2208 2.40315 11.6712 7.92227
259 2 2.2208 2.39158 8.73229 10.6975
261 1 -1.1104 3.9112 10.3802 12.2544
263 1 -1.1104 3.83008 10.1856 9.39881
299 1 -1.1104 0.871355 12.8736 12.2838
287 1 -1.1104 3.76388 12.8352 12.208
249 1 -1.1104 6.80872 10.1908 12.6004
111 1 -1.1104 6.50147 13.1745 6.58587
254 1 -1.1104 6.67386 10.1032 9.78725
28 2 2.2208 13.5732 20.1218 11.1351
90 1 -1.1104 12.1006 10.3579 6.54482
154 1 -1.1104 9.24727 12.9534 6.42041
101 1 -1.1104 9.1773 10.26 6.69778
290 1 -1.1104 6.47112 12.9238 9.49372
297 1 -1.1104 6.6217 12.9841 12.4118
143 1 -1.1104 11.824 13.0443 6.56863
330 1 -1.1104 12.2331 13.1889 12.3485
328 1 -1.1104 12.0689 12.8611 9.47479
322 1 -1.1104 9.37414 13.0487 12.3155
319 1 -1.1104 9.13521 13.2683 9.21334
264 1 -1.1104 9.40678 10.3414 9.69789
270 1 -1.1104 9.57751 10.2821 12.5702
272 2 2.2208 8.04829 8.9231 10.9544
274 2 2.2208 7.97677 11.6568 7.9399
277 2 2.2208 10.8486 11.5396 10.9957
281 1 -1.1104 12.4202 10.432 12.1804
282 2 2.2208 10.5744 8.77028 8.09176
284 1 -1.1104 12.1631 10.0769 9.3412
149 1 -1.1104 11.9729 15.6958 6.70372
296 1 -1.1104 6.54903 18.69 12.3892
306 1 -1.1104 6.50182 15.761 12.2439
289 1 -1.1104 6.49421 15.9635 9.45231
126 1 -1.1104 3.7756 18.7038 6.54481
302 1 -1.1104 0.809048 18.3578 6.56723
133 1 -1.1104 3.69102 15.8711 6.61213
293 2 2.2208 5.12727 20.0717 8.12421
291 1 -1.1104 0.990511 18.7832 9.19938
298 1 -1.1104 1.04418 18.4193 12.0496
295 2 2.2208 5.19328 14.5651 8.09959
310 2 2.2208 2.4683 14.4669 10.9806
309 2 2.2208 2.16156 20.1091 11.0403
308 1 -1.1104 3.77888 15.774 12.4362
307 1 -1.1104 0.894688 15.6158 12.3417
304 1 -1.1104 3.76859 15.966 9.65018
303 2 2.2208 2.44392 17.1215 8.11673
301 1 -1.1104 3.47952 18.7499 9.70154
300 2 2.2208 5.05258 17.3704 11.0733
292 1 -1.1104 0.999593 15.9573 9.32675
286 1 -1.1104 3.64351 18.7596 12.4108
366 2 2.2208 2.35791 3.16704 -0.231283
314 1 -1.1104 9.57838 15.7843 9.5406
316 2 2.2208 8.1121 20.117 10.7528
329 1 -1.1104 12.1806 18.8164 12.4073
331 2 2.2208 10.7932 17.2082 10.8262
318 1 -1.1104 9.21283 18.4956 9.39273
288 1 -1.1104 6.55305 18.81 9.46936
145 1 -1.1104 12.1302 18.3559 6.62276
324 2 2.2208 10.7316 20.007 8.14964
317 2 2.2208 8.0161 14.3359 10.929
323 1 -1.1104 12.2623 15.6721 9.52656
327 1 -1.1104 12.3067 18.5215 9.66465
156 1 -1.1104 9.33416 18.5662 6.46818
321 1 -1.1104 9.4798 18.8064 12.1268
326 1 -1.1104 12.1877 16.0111 12.0512
315 1 -1.1104 9.25661 15.9587 12.1898
163 1 -1.1104 9.36086 15.727 6.66442
118 1 -1.1104 6.47704 16.1692 6.76204
384 2 2.2208 10.9194 6.17754 -0.284303
385 2 2.2208 8.08044 8.83714 -0.161036
8940 2 2.2208 11.0121 -5.12855 -0.309459
386 2 2.2208 10.802 11.6242 -0.339332
229 2 2.2208 13.5104 0.361323 7.99164
25 2 2.2208 -0.38648 -2.50484 2.45664
232 2 2.2208 13.4759 8.65686 5.25817
29 2 2.2208 -0.288532 5.91568 11.0063
49 2 2.2208 13.5078 0.259334 2.53261
203 2 2.2208 13.4636 3.07936 10.9655
8952 2 2.2208 2.25554 -5.05643 13.6085
361 2 2.2208 10.864 14.6235 13.659
379 2 2.2208 5.08775 6.10637 -0.38586
349 2 2.2208 7.8895 20.1655 -0.412421
338 2 2.2208 5.07605 -2.22531 13.5698
344 2 2.2208 13.5791 14.3515 -0.43282
350 2 2.2208 10.8686 3.31447 13.5945
352 2 2.2208 5.19629 9.09016 13.6108
370 2 2.2208 7.89294 -2.33636 -0.407711
353 2 2.2208 2.39017 11.5106 13.623
343 2 2.2208 8.08164 0.438114 13.5508
388 2 2.2208 5.30058 0.548618 16.5108
389 1 -1.1104 0.947048 -3.9301 17.9625
393 1 -1.1104 0.967663 -3.82429 15.0683
401 1 -1.1104 0.893783 -0.978785 17.8238
403 2 2.2208 5.07044 -2.17304 19.2065
405 1 -1.1104 0.943125 -1.00546 15.0721
409 1 -1.1104 3.74991 -3.54774 17.7767
411 2 2.2208 2.54173 0.496196 19.3812
412 1 -1.1104 3.70151 -3.54704 15.106
416 2 2.2208 2.29523 -2.36639 16.4598
418 1 -1.1104 3.80454 -0.702337 17.9606
419 1 -1.1104 3.80681 -0.889508 15.1481
9055 2 2.2208 7.82414 -5.11661 19.2723
9086 2 2.2208 5.01222 -5.00349 16.3113
397 1 -1.1104 6.65933 -3.768 14.8698
394 1 -1.1104 0.866998 -3.78418 20.7018
391 1 -1.1104 6.40737 -3.76288 17.7081
402 1 -1.1104 6.65506 -0.708971 18.1057
407 1 -1.1104 6.64622 -0.970961 15.1539
431 2 2.2208 10.734 0.338635 16.6888
432 1 -1.1104 12.4363 -3.89522 17.9651
434 1 -1.1104 12.5491 -3.77791 15.2156
438 1 -1.1104 12.1937 -1.10066 17.791
439 2 2.2208 10.8982 -2.5148 19.4804
441 1 -1.1104 12.2064 -0.849611 15.0406
443 1 -1.1104 9.44049 -3.65698 17.9898
445 2 2.2208 8.03251 0.694697 19.4542
446 1 -1.1104 9.55245 -3.65623 15.2261
450 2 2.2208 7.86693 -2.24939 16.6484
452 1 -1.1104 9.51526 -0.618327 18.2738
453 1 -1.1104 9.43174 -0.966351 15.4354
356 2 2.2208 8.18072 11.7625 13.8724
9020 2 2.2208 5.22168 -5.0219 22.0159
355 2 2.2208 10.8113 8.69987 13.8235
447 1 -1.1104 9.3635 -3.98967 20.6654
442 1 -1.1104 12.13 -1.16137 20.7985
462 2 2.2208 10.6692 17.2524 22.3143
341 2 2.2208 5.11073 3.51878 13.9
340 2 2.2208 13.6636 0.539176 13.7879
390 1 -1.1104 1.24847 1.60904 17.7225
395 1 -1.1104 1.00164 1.74265 15.0086
404 2 2.2208 5.22657 3.44698 19.2691
410 1 -1.1104 3.86963 1.87409 18.0012
414 1 -1.1104 3.6378 1.79 15.2071
417 2 2.2208 2.35917 3.21076 16.4646
464 2 2.2208 5.19389 6.08282 16.6108
466 1 -1.1104 0.918291 7.13349 18.017
468 1 -1.1104 0.904917 7.49263 15.3304
472 1 -1.1104 0.903037 4.39828 17.9286
477 1 -1.1104 1.07568 4.62578 15.101
485 1 -1.1104 3.66196 7.24457 17.9227
486 2 2.2208 2.30924 5.88073 19.3744
488 1 -1.1104 3.84572 7.5033 15.2921
491 1 -1.1104 3.72055 4.66328 17.9954
493 1 -1.1104 3.83446 4.83125 15.2422
9016 2 2.2208 8.06066 -5.11394 24.8929
9056 2 2.2208 11.0758 -5.15026 16.5345
392 1 -1.1104 6.51352 2.03721 18.0378
470 1 -1.1104 6.69984 7.53829 14.9864
474 1 -1.1104 6.63822 4.68062 17.9881
489 1 -1.1104 3.99108 7.5042 20.7345
478 1 -1.1104 0.945559 4.41559 20.7543
396 1 -1.1104 0.926445 1.76814 20.7462
482 1 -1.1104 6.54394 4.74525 20.7471
381 2 2.2208 5.1505 11.7651 27.6428
481 1 -1.1104 6.59305 4.74543 15.3891
467 1 -1.1104 6.62429 7.30119 17.8304
399 1 -1.1104 6.48751 1.93749 14.9934
433 1 -1.1104 12.074 1.85103 18.2394
436 1 -1.1104 12.1694 1.96895 15.376
440 2 2.2208 10.7322 3.22937 19.5242
444 1 -1.1104 9.2757 1.94957 17.9214
448 1 -1.1104 9.34849 2.03 14.9187
451 2 2.2208 8.02577 3.45331 16.5064
500 2 2.2208 10.7219 5.92401 16.5593
503 1 -1.1104 12.1941 7.42758 15.0627
505 1 -1.1104 12.0705 4.60844 18.2967
508 1 -1.1104 12.0941 4.68248 15.2337
512 1 -1.1104 9.15712 7.38996 17.7755
513 2 2.2208 8.04957 6.05455 19.3562
515 1 -1.1104 9.5724 7.43881 15.2916
518 1 -1.1104 9.36689 4.63123 18.0142
520 1 -1.1104 9.34004 4.67951 14.9826
560 1 -1.1104 11.999 15.7592 26.5155
502 1 -1.1104 12.2079 7.32356 18.1621
509 1 -1.1104 12.2158 4.70022 21.0395
348 2 2.2208 10.8339 17.2829 27.7074
465 2 2.2208 5.0958 11.6721 16.5285
473 1 -1.1104 0.733603 10.1849 17.6102
476 2 2.2208 5.15643 8.92008 19.3135
479 1 -1.1104 0.794567 10.0472 14.9234
487 2 2.2208 2.32582 11.6373 19.2508
490 2 2.2208 2.28612 8.75455 16.5091
492 1 -1.1104 3.82349 10.1752 17.7734
495 1 -1.1104 3.66619 10.0999 14.9119
528 1 -1.1104 0.749564 12.8761 17.8783
532 1 -1.1104 1.05208 12.9347 14.9709
548 1 -1.1104 3.56875 13.1377 17.7289
551 1 -1.1104 3.75597 12.8775 15.1057
483 1 -1.1104 6.51355 10.3986 15.3231
9087 2 2.2208 -0.238099 -5.0716 16.451
484 1 -1.1104 6.3809 10.4045 20.6696
421 2 2.2208 -0.404139 5.9141 22.1083
362 2 2.2208 7.87328 17.377 13.6833
587 2 2.2208 7.91694 17.4901 24.8981
536 1 -1.1104 6.6878 13.2283 15.2514
475 1 -1.1104 6.46471 10.1525 18.0328
530 1 -1.1104 6.26827 12.9951 18.1384
501 2 2.2208 10.6797 11.7836 16.5888
506 1 -1.1104 11.9307 10.1645 17.8151
507 2 2.2208 10.6891 9.12124 19.3688
510 1 -1.1104 12.1512 10.0691 15.0189
514 2 2.2208 7.98206 11.6908 19.4185
517 2 2.2208 7.94181 8.76524 16.4449
519 1 -1.1104 9.35514 10.1526 17.9321
522 1 -1.1104 9.28723 10.2503 15.2904
564 1 -1.1104 12.3493 12.8975 17.8205
566 1 -1.1104 12.2069 13.052 15.0579
575 1 -1.1104 9.4684 13.0501 18.0552
578 1 -1.1104 9.58803 13.2038 15.1381
424 2 2.2208 -0.334215 0.298033 16.4024
523 1 -1.1104 9.41992 10.5505 20.7191
615 2 2.2208 7.8365 14.3475 22.0793
527 2 2.2208 5.10339 17.3455 16.3429
529 1 -1.1104 0.951136 18.7728 17.7538
534 1 -1.1104 0.742757 18.8547 14.9959
540 1 -1.1104 0.815656 16.1042 18.1992
542 2 2.2208 4.98977 14.6278 19.1849
543 2 2.2208 4.93246 20.2329 19.291
544 1 -1.1104 1.00366 15.8426 15.1313
549 1 -1.1104 3.84134 18.7757 17.8454
550 2 2.2208 2.37941 17.6113 19.1695
553 1 -1.1104 3.7726 18.5761 15.2053
555 2 2.2208 2.231 14.5673 16.5211
556 2 2.2208 2.3833 20.1111 16.402
557 1 -1.1104 3.6163 16.0028 17.6875
558 1 -1.1104 3.93756 15.6089 14.981
372 2 2.2208 7.94833 3.19232 27.7164
538 1 -1.1104 6.68096 18.8342 14.9258
650 2 2.2208 13.5719 11.7745 19.2801
541 1 -1.1104 6.56929 15.9902 17.8417
531 1 -1.1104 6.86278 18.5464 17.5807
539 1 -1.1104 6.56528 18.7948 20.6441
524 1 -1.1104 12.2797 15.6768 23.7307
554 1 -1.1104 3.70761 18.8476 20.657
545 1 -1.1104 1.06897 16.0897 20.7703
559 1 -1.1104 3.77743 16.1209 20.4566
574 1 -1.1104 12.1278 15.7515 21.084
618 2 2.2208 13.4258 17.1068 19.4687
429 2 2.2208 13.5438 3.38538 16.6735
569 1 -1.1104 12.1368 18.58 20.7721
455 2 2.2208 13.5233 17.1337 25.1619
546 1 -1.1104 6.80148 15.9789 15.1938
582 2 2.2208 8.0602 14.5405 16.657
563 2 2.2208 10.8606 17.1669 16.5917
565 1 -1.1104 12.1024 18.5298 17.9432
568 1 -1.1104 12.222 18.6498 15.1882
570 1 -1.1104 12.2527 15.5461 18.1558
571 2 2.2208 10.8008 14.361 19.5966
572 2 2.2208 10.7872 20.0473 19.4742
573 1 -1.1104 12.4084 15.8195 15.0133
576 1 -1.1104 9.52795 18.6983 17.9925
577 2 2.2208 7.96494 17.3678 19.3362
580 1 -1.1104 9.32984 18.5532 15.0687
583 2 2.2208 7.96717 20.0896 16.5929
584 1 -1.1104 9.46338 16.0095 18.0117
585 1 -1.1104 9.4801 15.9508 15.1939
586 1 -1.1104 9.40923 15.8922 20.7713
8946 2 2.2208 -0.388973 -5.10882 27.6477
423 2 2.2208 13.5559 3.26727 22.2232
651 2 2.2208 13.4805 6.00628 19.5818
426 2 2.2208 13.518 8.78625 16.492
590 1 -1.1104 9.27516 18.7685 26.3041
406 1 -1.1104 0.90189 -0.969584 20.718
413 1 -1.1104 3.98127 -3.92976 20.5223
420 1 -1.1104 3.8012 -0.85548 20.7611
591 2 2.2208 5.10557 0.521742 22.1667
592 1 -1.1104 0.924469 -4.02366 23.4628
596 1 -1.1104 1.1388 -3.8398 25.9648
600 1 -1.1104 0.966244 -1.1139 23.4859
602 2 2.2208 5.39403 -2.20232 25.1072
604 1 -1.1104 0.996324 -0.982297 26.2938
606 1 -1.1104 3.56181 -3.75706 23.4709
608 2 2.2208 2.38792 0.355732 24.9962
609 1 -1.1104 3.91161 -3.53841 26.5926
611 2 2.2208 2.28936 -2.31581 22.118
613 1 -1.1104 3.68678 -1.17243 23.5009
614 1 -1.1104 3.60812 -0.904656 26.3208
408 1 -1.1104 6.65968 -0.783351 20.7742
605 1 -1.1104 6.54793 -1.02215 26.5423
653 2 2.2208 13.6007 -2.31586 22.2712
547 1 -1.1104 6.37996 15.8421 20.5549
346 2 2.2208 10.977 -2.42543 13.7286
398 1 -1.1104 6.53594 -3.60956 20.6107
598 1 -1.1104 6.74181 -3.73143 26.2351
601 1 -1.1104 6.53326 -0.819771 23.5242
594 1 -1.1104 6.39871 -3.65267 23.3814
454 1 -1.1104 9.63728 -0.941899 20.8136
435 1 -1.1104 12.2481 -3.93288 21.0231
627 2 2.2208 10.7367 0.417953 22.2413
628 1 -1.1104 12.0828 -4.0905 23.5591
630 1 -1.1104 12.1175 -3.77662 26.477
632 1 -1.1104 12.0648 -1.03426 23.7406
633 2 2.2208 10.9279 -2.49562 24.8874
635 1 -1.1104 12.329 -1.07491 26.3657
636 1 -1.1104 9.45177 -3.59055 23.3748
638 2 2.2208 8.21526 0.585499 25.075
639 1 -1.1104 9.36692 -3.70626 26.1874
641 2 2.2208 7.99282 -2.26222 22.0977
643 1 -1.1104 9.4007 -0.858687 23.5011
644 1 -1.1104 9.37069 -0.98944 26.5268
620 1 -1.1104 9.07612 16.0455 26.4728
351 2 2.2208 2.35994 6.11173 13.9417
469 1 -1.1104 1.15866 7.32199 20.7716
494 1 -1.1104 3.77776 4.76142 21.0658
415 1 -1.1104 3.75237 1.94151 20.5495
593 1 -1.1104 1.1642 1.73295 23.4193
597 1 -1.1104 0.857689 1.98063 26.4477
603 2 2.2208 5.05021 3.19839 24.9908
607 1 -1.1104 3.91592 1.84231 23.4211
610 1 -1.1104 3.75029 1.92064 26.633
612 2 2.2208 2.28949 3.19242 22.0904
656 2 2.2208 5.0794 6.03544 22.4241
662 1 -1.1104 0.803041 4.45512 23.6918
667 1 -1.1104 0.704152 4.55617 26.3416
672 2 2.2208 2.21081 5.89583 25.003
674 1 -1.1104 3.87086 7.54331 26.3429
676 1 -1.1104 3.54837 4.43433 23.6694
678 1 -1.1104 3.63827 4.62355 26.43
658 1 -1.1104 0.774015 7.47425 23.5084
660 1 -1.1104 1.00282 7.45681 26.4031
400 1 -1.1104 6.61263 1.87005 20.7724
471 1 -1.1104 6.92135 7.52062 20.7439
661 1 -1.1104 6.52864 7.642 26.6411
599 1 -1.1104 6.40704 1.78778 26.0781
659 1 -1.1104 6.52543 7.60298 23.729
499 1 -1.1104 11.991 18.6166 26.2363
449 1 -1.1104 9.27201 1.97948 20.8739
516 1 -1.1104 9.45809 7.58527 20.8994
437 1 -1.1104 12.1069 1.78317 21.0594
521 1 -1.1104 9.61972 4.6141 20.8769
595 1 -1.1104 6.59803 1.79207 23.6987
669 1 -1.1104 6.54957 4.67735 26.4226
664 1 -1.1104 6.4417 4.57927 23.543
629 1 -1.1104 12.1439 1.94255 23.6396
631 1 -1.1104 12.1338 1.70449 26.4003
634 2 2.2208 10.7339 3.34252 24.9473
637 1 -1.1104 9.40632 2.0364 23.5921
640 1 -1.1104 9.31547 1.94995 26.4008
642 2 2.2208 7.77902 3.25414 22.206
688 1 -1.1104 9.52631 4.77961 26.2065
690 1 -1.1104 8.96061 4.99501 23.5261
692 1 -1.1104 9.50501 7.70167 26.4144
694 2 2.2208 7.98839 6.26589 25.0696
695 2 2.2208 10.7134 6.02653 22.1769
698 1 -1.1104 12.3061 7.32845 26.3188
699 1 -1.1104 11.9414 4.58702 23.5815
702 1 -1.1104 12.3681 4.73739 26.5512
697 1 -1.1104 12.2819 7.48813 23.5859
504 1 -1.1104 12.2389 7.44984 20.8616
704 1 -1.1104 9.29483 7.56471 23.7022
525 2 2.2208 10.7615 14.5874 24.9643
671 1 -1.1104 3.48063 7.41072 23.5151
552 1 -1.1104 3.7419 13.1034 20.5367
533 1 -1.1104 0.902331 13.2253 20.8158
480 1 -1.1104 0.891234 10.0576 20.6167
496 1 -1.1104 3.68361 10.2823 20.7076
657 2 2.2208 5.00516 11.5107 22.2786
663 1 -1.1104 0.987048 10.0723 23.7516
666 2 2.2208 5.06602 8.96579 24.9134
668 1 -1.1104 0.849961 10.308 26.5659
673 2 2.2208 2.15663 11.6449 24.9835
675 2 2.2208 2.27875 8.83805 22.1236
677 1 -1.1104 3.83587 10.145 23.576
679 1 -1.1104 3.62003 10.3496 26.5109
681 1 -1.1104 3.55323 12.843 26.1202
706 1 -1.1104 0.999925 12.9146 23.4783
713 1 -1.1104 3.64809 13.1057 23.4225
717 1 -1.1104 0.738473 13.0864 26.4697
537 1 -1.1104 6.43059 13.0026 20.7526
709 1 -1.1104 6.52807 13.022 23.506
562 1 -1.1104 9.28304 18.7915 23.3926
567 1 -1.1104 12.3242 12.8868 21.0682
579 1 -1.1104 9.30866 13.1834 20.8725
670 1 -1.1104 6.54763 10.3278 26.488
665 1 -1.1104 6.52102 10.3323 23.6748
712 1 -1.1104 6.35723 13.1575 26.1938
511 1 -1.1104 12.3135 10.1124 20.6526
589 1 -1.1104 9.34419 13.2877 26.277
687 1 -1.1104 9.35941 10.3782 26.6525
689 1 -1.1104 9.69267 10.2821 23.5531
691 2 2.2208 8.11412 8.96919 22.1573
693 2 2.2208 7.99419 11.7973 24.9225
696 2 2.2208 10.9839 11.5652 22.3384
700 1 -1.1104 12.5047 10.263 23.7444
701 2 2.2208 10.7554 8.9823 25.029
703 1 -1.1104 11.9966 10.1941 26.6616
561 1 -1.1104 9.42617 13.0672 23.6474
463 1 -1.1104 12.2818 12.7248 23.7429
498 1 -1.1104 12.3059 12.7673 26.6591
581 1 -1.1104 9.47133 18.8739 20.6903
718 1 -1.1104 6.42142 18.6317 23.5298
680 1 -1.1104 6.55076 15.9478 23.1691
535 1 -1.1104 1.05836 18.8401 20.4721
720 2 2.2208 5.13547 14.5102 24.7278
719 2 2.2208 5.02397 20.0746 24.6527
716 1 -1.1104 0.766377 15.985 26.4347
647 2 2.2208 2.34193 14.4587 21.9732
649 2 2.2208 2.21091 20.1261 22.1128
652 1 -1.1104 3.59519 15.8043 23.3972
655 1 -1.1104 0.817202 15.8871 23.5481
682 1 -1.1104 3.49637 15.8897 26.4168
683 2 2.2208 2.22412 17.1823 24.8587
686 1 -1.1104 3.69858 18.7233 26.253
705 2 2.2208 5.05864 17.3553 21.9168
707 1 -1.1104 0.642765 18.8351 23.4148
711 1 -1.1104 3.39209 18.5522 23.3659
715 1 -1.1104 0.686052 18.5595 26.4413
714 1 -1.1104 6.30635 15.9887 26.0278
588 1 -1.1104 6.58944 18.8339 26.1604
497 1 -1.1104 11.96 18.7067 23.5231
616 2 2.2208 7.76216 20.1114 22.1834
617 1 -1.1104 9.25469 16.0116 23.5642
526 2 2.2208 10.8156 20.2275 24.9096
461 2 2.2208 13.5676 19.973 22.2704
342 2 2.2208 -0.393805 14.282 13.7338
710 2 2.2208 13.499 6.09345 24.9453
430 2 2.2208 13.6528 14.5397 22.2418
360 2 2.2208 10.8984 19.9566 13.8157
425 2 2.2208 -0.423325 -2.38725 19.3531
375 2 2.2208 2.19271 19.7409 27.6837
359 2 2.2208 5.31672 14.3217 13.7186
336 2 2.2208 13.6716 6.04932 13.6793
428 2 2.2208 13.4584 0.408045 19.4944
460 2 2.2208 13.5681 20.1432 16.5378
654 2 2.2208 13.4959 0.387227 25.0308
347 2 2.2208 7.77156 14.3268 27.6688
427 2 2.2208 -0.306132 3.18944 19.2464
365 2 2.2208 2.42927 -2.382 27.596
376 2 2.2208 13.5257 11.6105 13.8125
374 2 2.2208 5.12483 17.2276 27.6471
364 2 2.2208 5.21401 0.543333 27.7641
337 2 2.2208 -0.397888 3.11528 13.7163
8947 2 2.2208 13.646 -5.13025 13.6792
358 2 2.2208 5.18181 20.1482 13.7563
339 2 2.2208 2.41671 0.428325 13.7608
387 2 2.2208 13.6161 8.85695 27.7252
721 2 2.2208 5.2516 22.7422 5.17012
723 1 -1.1104 1.09751 24.2093 0.950396
724 1 -1.1104 0.95904 24.1254 3.78179
725 1 -1.1104 0.792107 21.3297 1.10731
727 2 2.2208 5.14425 25.5497 2.57658
728 1 -1.1104 0.966482 21.2513 4.05066
730 1 -1.1104 3.95995 24.1477 1.23542
731 2 2.2208 2.37738 22.7433 2.52683
733 1 -1.1104 3.76119 24.2256 3.93832
734 2 2.2208 2.34337 25.5698 5.27147
735 1 -1.1104 3.63331 21.2582 1.04975
737 1 -1.1104 3.82014 21.31 3.94622
1032 2 2.2208 13.5306 42.6481 5.41926
1399 2 2.2208 13.6601 36.8281 -0.387318
743 1 -1.1104 6.64179 24.2308 3.68347
742 1 -1.1104 6.44866 24.3767 0.889621
746 1 -1.1104 6.52976 21.3774 3.58548
1030 2 2.2208 13.5531 37.0267 5.4435
747 1 -1.1104 6.37514 26.961 4.09651
736 1 -1.1104 3.73665 27.3147 1.31361
726 1 -1.1104 0.880551 26.8596 1.23469
738 1 -1.1104 3.47305 27.1365 4.05424
729 1 -1.1104 0.769038 26.9881 3.91198
1398 2 2.2208 13.5072 31.2185 -0.291266
1067 2 2.2208 2.29034 25.6777 -0.190738
1034 2 2.2208 13.6664 28.7164 8.20108
744 1 -1.1104 6.59784 21.573 0.87546
745 1 -1.1104 6.46788 27.3112 1.28231
748 2 2.2208 10.5742 22.8496 5.18749
750 1 -1.1104 12.1715 24.0692 1.08039
751 1 -1.1104 12.1763 24.1449 3.78571
752 1 -1.1104 11.8063 21.2196 1.00597
754 2 2.2208 10.693 25.6346 2.41885
755 1 -1.1104 12.2784 21.3261 3.95552
757 1 -1.1104 9.35529 24.3215 1.09613
758 2 2.2208 7.85864 22.8471 2.33702
760 1 -1.1104 9.39251 24.3607 3.82054
761 2 2.2208 7.94268 25.6304 5.26676
762 1 -1.1104 9.34792 21.4595 1.1373
764 1 -1.1104 9.32999 21.638 3.9183
756 1 -1.1104 12.2767 27.1011 3.75317
765 1 -1.1104 9.26875 27.0594 3.98141
753 1 -1.1104 12.1274 26.7164 1.03355
860 2 2.2208 -0.306067 39.5374 -0.0165048
763 1 -1.1104 9.32575 27.2122 1.10838
1072 2 2.2208 10.6176 22.7991 -0.373354
898 1 -1.1104 9.32233 24.3644 6.75386
1074 2 2.2208 13.4749 25.6597 -0.346851
1010 2 2.2208 8.22259 31.2376 -0.446465
722 2 2.2208 5.02706 28.4599 5.40728
732 2 2.2208 2.34418 28.5028 2.62026
770 1 -1.1104 0.908745 29.8862 1.26845
773 1 -1.1104 0.969385 29.7537 4.08713
776 1 -1.1104 0.671977 32.5445 1.18295
777 2 2.2208 5.17622 31.438 2.46106
779 1 -1.1104 1.01736 32.6921 3.9406
781 1 -1.1104 3.73384 30.0838 1.27413
784 1 -1.1104 3.7438 29.9111 4.01337
786 2 2.2208 2.43655 31.3233 5.31983
788 1 -1.1104 3.65201 32.9463 1.08797
789 1 -1.1104 3.74718 32.6425 3.98089
780 1 -1.1104 6.6016 32.6129 4.17152
793 1 -1.1104 6.70965 30.0701 1.36296
1071 2 2.2208 -0.386449 28.3724 -0.058633
923 1 -1.1104 1.13725 32.7851 6.71489
919 1 -1.1104 0.96148 29.9463 6.81598
1059 2 2.2208 8.06252 36.9443 -0.0328978
1077 2 2.2208 2.25797 31.3973 -0.307316
794 1 -1.1104 6.75696 29.6541 4.32168
795 1 -1.1104 6.61266 32.8244 1.20853
749 2 2.2208 10.8028 28.4692 5.33917
759 2 2.2208 7.96205 28.5754 2.52656
797 1 -1.1104 12.1302 29.8653 0.995853
799 1 -1.1104 12.2044 30.0145 3.82424
801 1 -1.1104 12.1804 32.5024 0.994982
802 2 2.2208 10.8098 31.1823 2.47853
804 1 -1.1104 12.2083 32.6001 4.00787
805 1 -1.1104 9.50207 29.9678 1.16385
808 1 -1.1104 9.44092 29.8608 3.88659
810 2 2.2208 8.11407 31.0374 5.34384
812 1 -1.1104 9.47498 32.5934 0.977698
813 1 -1.1104 9.52505 32.7698 3.90607
766 2 2.2208 13.5088 22.7308 2.59777
1075 2 2.2208 11.0052 28.4753 -0.37171
1603 1 -1.1104 6.57223 46.6592 12.5837
1408 1 -1.1104 6.81562 46.6917 3.95467
1026 1 -1.1104 12.4283 41.3316 9.81976
1031 2 2.2208 13.5863 31.3316 5.48263
1078 2 2.2208 5.34802 34.2522 -0.281303
1006 2 2.2208 5.16682 39.7937 -0.120382
769 2 2.2208 5.18466 33.9939 5.40619
771 1 -1.1104 1.15963 35.2889 1.12103