ITEM: TIMESTEP
60000
ITEM: NUMBER OF ATOMS
17640
ITEM: BOX BOUNDS pp pp pp
-4.5098880156798216e-01 2.7790988801567895e+01
-5.3159875447363536e+00 3.3339598754473201e+02
-4.4271228321074618e-01 2.7782712283211069e+01
ITEM: ATOMS id type q x y z
1 2 2.2208 5.46137 0.627371 5.40184
2 1 -1.1104 1.28705 -3.68577 1.0697
6 1 -1.1104 1.16554 -3.79862 3.91341
10 1 -1.1104 1.09784 -1.02105 0.979033
12 2 2.2208 5.39167 -2.17929 2.49328
14 1 -1.1104 0.952455 -0.955989 3.83453
16 1 -1.1104 4.0179 -3.9732 1.11781
18 2 2.2208 2.64812 0.462148 2.47066
19 1 -1.1104 4.00893 -3.39157 3.90798
21 2 2.2208 2.4414 -2.27925 5.3479
23 1 -1.1104 3.92012 -0.835031 1.19407
24 1 -1.1104 3.79065 -0.65268 4.07453
365 2 2.2208 2.56074 -2.39901 -0.288885
25 2 2.2208 -0.285954 -2.43599 2.60682
26 2 2.2208 -0.209468 0.442854 5.27682
368 2 2.2208 -0.185304 0.353981 -0.429688
364 2 2.2208 5.5456 0.56794 -0.291732
312 2 2.2208 -0.413678 17.2931 11.1745
15 1 -1.1104 6.67595 -1.16134 4.24921
11 1 -1.1104 6.79226 -0.748722 1.19076
8 1 -1.1104 6.7056 -3.73016 3.92777
4 1 -1.1104 6.91515 -3.67568 1.30687
31 2 2.2208 10.9827 0.459112 5.5204
32 1 -1.1104 12.3781 -3.78529 1.38638
34 1 -1.1104 12.2589 -4.0517 4.10912
36 1 -1.1104 12.4002 -0.956713 1.24069
37 2 2.2208 11.065 -2.48484 2.62057
39 1 -1.1104 12.4648 -0.989255 4.12287
40 1 -1.1104 9.76728 -3.96545 1.1194
42 2 2.2208 8.25245 0.328913 2.62089
43 1 -1.1104 9.48726 -3.77764 3.92433
45 2 2.2208 8.15687 -2.40749 5.43735
47 1 -1.1104 9.65603 -1.00677 1.10167
48 1 -1.1104 9.77937 -1.05525 3.99115
369 2 2.2208 11.2586 0.358656 -0.241911
370 2 2.2208 8.31813 -2.36856 -0.141316
8940 2 2.2208 11.0389 -5.14125 -0.270738
81 2 2.2208 -0.200986 5.82922 5.26727
3 1 -1.1104 1.32176 1.73676 1.14232
7 1 -1.1104 1.09521 1.99603 3.96634
13 2 2.2208 5.44957 3.29657 2.49146
17 1 -1.1104 4.01265 1.72311 1.08828
20 1 -1.1104 3.9186 1.93501 3.66885
22 2 2.2208 2.72137 3.28118 5.13194
54 2 2.2208 5.4151 5.99663 5.21907
58 1 -1.1104 1.18454 7.55456 3.8281
60 1 -1.1104 1.07279 4.60252 1.02503
67 1 -1.1104 1.17805 4.68951 3.66229
71 1 -1.1104 3.74677 7.42567 1.16816
72 2 2.2208 2.60288 6.05282 2.50564
76 1 -1.1104 3.94207 4.5216 1.00346
79 1 -1.1104 4.12473 4.83822 3.70359
74 1 -1.1104 3.79576 7.47668 3.9199
56 1 -1.1104 1.18571 7.35826 0.767193
27 2 2.2208 -0.210107 3.23666 2.36565
379 2 2.2208 5.20331 6.15098 -0.187938
366 2 2.2208 2.5212 3.30886 -0.409001
384 2 2.2208 11.056 6.0196 -0.20771
59 1 -1.1104 6.68018 7.45747 3.91172
5 1 -1.1104 6.83388 1.8954 1.14059
9 1 -1.1104 6.86922 1.84092 4.02421
69 1 -1.1104 6.85219 4.64696 4.16835
63 1 -1.1104 6.64786 4.86701 1.34196
57 1 -1.1104 6.39848 7.6509 1.2458
33 1 -1.1104 12.6116 1.70182 1.28532
35 1 -1.1104 12.3178 1.90846 4.18148
38 2 2.2208 10.9447 3.34378 2.56528
41 1 -1.1104 9.61727 1.81542 1.23859
44 1 -1.1104 9.5211 1.7012 4.09308
46 2 2.2208 8.2551 3.25876 5.44106
84 2 2.2208 10.9202 5.92077 5.49917
87 1 -1.1104 12.3979 7.51878 4.27792
88 1 -1.1104 12.546 4.6449 1.25856
92 1 -1.1104 12.2927 4.78275 3.87512
95 2 2.2208 8.09237 6.16455 2.64417
97 1 -1.1104 9.56297 7.56956 3.99661
99 1 -1.1104 9.74223 4.67327 1.16757
102 1 -1.1104 9.65188 4.66281 4.0383
94 1 -1.1104 9.40946 7.37815 1.28374
86 1 -1.1104 12.2737 7.33163 1.30701
372 2 2.2208 8.38745 3.3326 -0.177925
8935 2 2.2208 10.8776 -5.2224 11.1979
381 2 2.2208 5.38158 11.6576 -0.373277
55 2 2.2208 5.21339 11.7239 5.48111
61 1 -1.1104 0.948215 10.3674 0.914768
66 2 2.2208 5.24653 8.97205 2.50136
68 1 -1.1104 1.13773 10.0867 3.8625
73 2 2.2208 2.43821 11.6713 2.48861
75 2 2.2208 2.63484 8.77395 5.30192
77 1 -1.1104 3.8059 10.2765 1.02835
80 1 -1.1104 3.88218 10.2705 3.95272
107 1 -1.1104 0.896674 13.2004 0.963197
113 1 -1.1104 0.909546 12.9599 3.72444
123 1 -1.1104 4.05538 13.0048 1.25428
128 1 -1.1104 3.70912 13.0081 3.84748
82 2 2.2208 -0.184487 8.6519 2.30782
382 2 2.2208 -0.491399 11.6903 -0.383848
380 2 2.2208 2.41117 8.94531 -0.301864
64 1 -1.1104 6.65517 10.4009 1.26748
110 1 -1.1104 6.71787 13.1051 1.25813
115 1 -1.1104 6.62593 13.1759 4.2955
70 1 -1.1104 6.7744 10.3341 3.98262
85 2 2.2208 10.9847 11.681 5.56779
89 1 -1.1104 12.2598 10.2855 1.23094
91 2 2.2208 10.9361 8.94843 2.63119
93 1 -1.1104 12.2603 10.2051 4.10505
96 2 2.2208 8.11738 11.7487 2.81289
98 2 2.2208 8.18766 8.93802 5.27337
100 1 -1.1104 9.5491 10.3161 1.07187
103 1 -1.1104 9.53765 10.3261 3.94277
142 1 -1.1104 12.4185 12.9886 1.06975
146 1 -1.1104 12.2837 13.0981 4.17478
153 1 -1.1104 9.4883 12.8346 1.28221
158 1 -1.1104 9.51571 13.0875 4.06848
386 2 2.2208 11.0039 11.75 -0.318074
385 2 2.2208 8.21384 9.0318 -0.0903428
371 2 2.2208 -0.144886 17.2371 -0.140181
374 2 2.2208 5.38521 17.2456 -0.107591
130 2 2.2208 2.43458 14.353 5.22547
119 2 2.2208 5.33793 14.4918 2.54056
106 2 2.2208 5.1686 17.2947 5.49704
109 1 -1.1104 1.29128 18.4391 1.17866
114 1 -1.1104 0.986124 18.9406 4.06311
116 1 -1.1104 1.12674 15.7365 1.21544
120 2 2.2208 5.37913 20.1134 2.60948
121 1 -1.1104 1.23934 15.9124 4.10332
125 1 -1.1104 4.08914 18.5427 1.22454
127 2 2.2208 2.73686 17.4935 2.82167
129 1 -1.1104 3.86529 18.828 4.21495
131 2 2.2208 2.39181 20.2923 5.47511
132 1 -1.1104 3.92346 15.6966 1.15151
134 1 -1.1104 3.71406 15.7568 4.05718
135 2 2.2208 -0.127219 14.5381 2.66587
137 2 2.2208 -0.26719 17.3444 5.30654
136 2 2.2208 -0.32845 20.2119 2.50115
373 2 2.2208 2.5165 14.4145 -0.056754
8931 2 2.2208 2.60754 -5.29258 8.37108
139 1 -1.1104 6.78629 19.0192 4.07279
8929 2 2.2208 10.9337 -5.22801 5.444
347 2 2.2208 8.05517 14.2781 -0.216874
349 2 2.2208 8.21616 20.1067 -0.236113
138 1 -1.1104 6.77854 18.5792 1.19425
122 1 -1.1104 6.69369 16.0992 4.02382
140 1 -1.1104 6.80718 15.8068 1.27825
160 2 2.2208 8.05194 14.4002 5.39951
150 2 2.2208 10.936 14.355 2.70866
141 2 2.2208 10.8921 17.3216 5.38257
144 1 -1.1104 12.4416 18.9058 1.01916
147 1 -1.1104 12.4564 18.7885 3.82005
148 1 -1.1104 12.522 15.9607 0.859338
151 2 2.2208 10.9943 20.2017 2.51617
152 1 -1.1104 12.3349 15.7534 3.89013
155 1 -1.1104 9.59983 18.3073 0.99663
157 2 2.2208 8.1806 17.1318 2.50943
159 1 -1.1104 9.5686 18.7939 3.72482
161 2 2.2208 8.24096 20.16 5.32303
162 1 -1.1104 9.65356 15.5987 1.23312
164 1 -1.1104 9.54468 15.9234 4.08023
174 1 -1.1104 4.03351 -0.975185 6.76071
170 1 -1.1104 1.19354 -0.945888 6.5778
172 1 -1.1104 4.06425 -3.83431 6.7273
200 2 2.2208 -0.0298218 -2.35822 8.13987
166 1 -1.1104 1.34014 -3.90359 6.6502
175 2 2.2208 5.53096 0.424883 10.8271
176 1 -1.1104 1.30104 -3.8455 12.4668
180 1 -1.1104 1.20884 -3.8689 9.74809
184 1 -1.1104 1.36501 -1.17009 12.2516
186 2 2.2208 5.46313 -2.47492 8.17943
188 1 -1.1104 1.14637 -0.952085 9.2363
190 1 -1.1104 3.87436 -3.88148 12.1609
192 2 2.2208 2.45302 0.479608 7.96286
193 1 -1.1104 3.96074 -3.8265 9.58448
195 2 2.2208 2.72812 -2.45069 10.9934
197 1 -1.1104 4.18045 -1.11726 12.27
198 1 -1.1104 4.44645 -0.945089 9.42683
201 2 2.2208 -0.257399 0.486275 10.9457
318 1 -1.1104 9.54788 18.9749 9.6113
205 1 -1.1104 12.2698 -3.83352 6.9783
171 1 -1.1104 6.88899 -0.929172 6.90697
207 1 -1.1104 12.4582 -1.05304 6.74332
210 1 -1.1104 9.72313 -1.03425 6.89002
168 1 -1.1104 6.78391 -3.76522 6.64296
182 1 -1.1104 6.89986 -3.77466 9.72851
185 1 -1.1104 7.00365 -0.93741 12.5203
208 1 -1.1104 9.61847 -3.92288 6.85737
178 1 -1.1104 6.62695 -3.73796 12.4472
189 1 -1.1104 7.04333 -1.0227 9.76802
211 2 2.2208 11.2952 0.450025 10.9382
212 1 -1.1104 12.4341 -3.77961 12.5323
214 1 -1.1104 12.4705 -3.91138 9.78794
216 1 -1.1104 12.5396 -1.00857 12.4078
217 2 2.2208 10.9817 -2.46687 8.28536
219 1 -1.1104 12.5402 -1.06646 9.60159
220 1 -1.1104 9.45156 -3.93626 12.3965
222 2 2.2208 8.2084 0.56502 8.24496
223 1 -1.1104 9.58928 -3.86725 9.678
225 2 2.2208 8.27452 -2.31829 11.0291
227 1 -1.1104 9.80837 -1.25207 12.2089
228 1 -1.1104 9.76307 -0.784286 9.52115
8934 2 2.2208 8.22619 -5.25409 8.34937
236 1 -1.1104 1.1984 4.54838 6.58003
238 1 -1.1104 4.0922 7.46196 6.58871
239 1 -1.1104 3.925 4.51673 6.64107
167 1 -1.1104 1.11662 1.71167 6.73972
173 1 -1.1104 3.81762 2.04093 6.60199
234 1 -1.1104 1.23112 7.44979 6.89653
177 1 -1.1104 1.18186 1.91276 12.4048
181 1 -1.1104 1.2471 1.91475 9.51214
187 2 2.2208 5.39266 3.17687 8.19861
191 1 -1.1104 4.22003 1.79321 12.2005
194 1 -1.1104 3.97851 1.70717 9.38642
196 2 2.2208 2.62061 3.15075 10.7709
240 2 2.2208 5.21858 5.97827 11.0436
244 1 -1.1104 1.18999 7.40917 9.43496
246 1 -1.1104 0.830944 4.63643 12.2448
251 1 -1.1104 1.13373 4.40064 9.57285
255 1 -1.1104 3.84502 7.38113 12.2025
256 2 2.2208 2.45752 5.92611 8.07453
258 1 -1.1104 3.93932 7.3188 9.25794
260 1 -1.1104 3.72543 4.62004 12.2428
262 1 -1.1104 4.0899 4.66928 9.36543
242 1 -1.1104 1.26312 7.35453 12.2272
199 2 2.2208 -0.364967 3.17366 8.25543
29 2 2.2208 -0.314479 6.05996 10.9276
265 1 -1.1104 12.4791 7.33176 7.03115
169 1 -1.1104 6.63304 1.95855 6.77635
235 1 -1.1104 6.89392 7.44917 6.7051
266 1 -1.1104 12.4013 4.52776 6.70755
267 1 -1.1104 9.70559 7.37371 6.88251
245 1 -1.1104 6.64666 7.35916 9.87584
248 1 -1.1104 6.6949 4.88676 12.368
253 1 -1.1104 6.8112 4.61881 9.47082
183 1 -1.1104 6.8648 1.88818 9.64251
237 1 -1.1104 6.71934 4.7272 6.74702
269 1 -1.1104 9.53254 4.60137 6.89111
206 1 -1.1104 12.4299 1.80905 6.87463
209 1 -1.1104 9.60916 1.8033 6.94198
243 1 -1.1104 6.6929 7.47529 12.5449
179 1 -1.1104 6.88773 1.81583 12.4228
213 1 -1.1104 12.6905 1.60632 12.3114
215 1 -1.1104 12.5782 1.71552 9.58257
218 2 2.2208 10.9506 3.50378 8.25966
221 1 -1.1104 9.66475 1.82706 12.3483
224 1 -1.1104 9.79311 1.9562 9.56359
226 2 2.2208 8.23792 3.23991 10.8378
268 1 -1.1104 9.55943 4.86651 9.68839
271 1 -1.1104 9.71384 4.49603 12.3432
275 2 2.2208 8.2249 6.08366 8.28481
276 2 2.2208 11.1092 5.9532 11.1825
280 1 -1.1104 12.4896 4.37185 12.3589
283 1 -1.1104 12.4244 4.60601 9.67895
285 1 -1.1104 9.68151 7.45201 12.5358
278 1 -1.1104 12.5039 7.47729 12.307
279 1 -1.1104 12.1203 7.35378 9.54452
273 1 -1.1104 9.49085 7.71422 9.61288
51 2 2.2208 -0.273153 11.5533 11.0371
30 2 2.2208 -0.247596 8.77429 8.07341
62 1 -1.1104 1.17622 10.2478 6.63496
108 1 -1.1104 1.15357 13.1117 6.63539
78 1 -1.1104 4.07252 10.1665 6.88505
124 1 -1.1104 3.88868 13.1307 6.78283
294 1 -1.1104 0.963421 13.1734 9.75976
305 1 -1.1104 3.80008 13.0635 9.5953
241 2 2.2208 5.17968 11.6446 10.973
247 1 -1.1104 1.08274 10.3415 12.4128
250 2 2.2208 5.4444 8.79282 8.04596
252 1 -1.1104 1.17364 10.0207 9.564
257 2 2.2208 2.48188 11.5667 8.29339
259 2 2.2208 2.56363 8.66688 10.8673
261 1 -1.1104 3.7735 10.2088 12.3391
263 1 -1.1104 3.97373 10.4057 9.60019
299 1 -1.1104 0.996759 13.1163 12.6566
287 1 -1.1104 3.82514 12.9576 12.4414
111 1 -1.1104 6.80621 12.9708 6.84291
143 1 -1.1104 12.3951 13.0206 6.86684
101 1 -1.1104 9.67743 10.2948 6.83605
65 1 -1.1104 6.63123 10.3133 6.54381
297 1 -1.1104 6.51931 13.1486 12.4644
249 1 -1.1104 6.60116 10.5446 12.2865
154 1 -1.1104 9.59771 12.8946 7.00443
90 1 -1.1104 12.436 10.3352 6.80494
290 1 -1.1104 6.69621 13.1677 9.68445
254 1 -1.1104 6.90265 10.0783 9.44262
330 1 -1.1104 12.4836 13.0207 12.4893
328 1 -1.1104 12.1508 12.8853 9.78134
322 1 -1.1104 9.49993 13.0912 12.5823
319 1 -1.1104 9.44518 13.3136 9.75297
264 1 -1.1104 9.3781 10.5015 9.64334
270 1 -1.1104 9.57575 10.2293 12.5572
272 2 2.2208 8.0256 8.64435 11.073
274 2 2.2208 8.08795 11.717 8.22657
277 2 2.2208 10.706 11.7329 10.9549
281 1 -1.1104 12.563 10.2784 12.4505
282 2 2.2208 10.9863 8.7855 8.29864
284 1 -1.1104 12.2917 10.2354 9.7877
126 1 -1.1104 3.76114 18.7662 6.98718
302 1 -1.1104 0.863744 18.5962 7.00456
8932 2 2.2208 5.48847 -5.29013 11.1271
311 2 2.2208 -0.331429 20.0007 8.37602
313 2 2.2208 -0.386005 14.3799 8.18737
117 1 -1.1104 1.07436 15.8562 6.7394
133 1 -1.1104 3.8204 15.8839 6.77975
295 2 2.2208 5.06169 14.5127 8.43302
310 2 2.2208 2.45725 14.514 11.0686
300 2 2.2208 5.31722 17.3768 11.1493
301 1 -1.1104 3.9234 18.7131 9.82859
303 2 2.2208 2.38064 17.2094 7.99741
286 1 -1.1104 3.985 18.7747 12.5285
292 1 -1.1104 1.01095 15.7733 9.58513
293 2 2.2208 5.4776 20.0018 8.18669
291 1 -1.1104 0.941823 18.7184 9.88123
298 1 -1.1104 1.1224 18.7246 12.5638
309 2 2.2208 2.37706 20.1515 10.9934
308 1 -1.1104 3.83427 15.9929 12.672
307 1 -1.1104 0.982151 15.8044 12.3677
304 1 -1.1104 3.8308 15.9006 9.83295
316 2 2.2208 8.17334 20.291 11.233
315 1 -1.1104 9.37097 16.0675 12.5518
112 1 -1.1104 6.73531 18.4609 6.95974
324 2 2.2208 10.9277 20.1198 8.25858
329 1 -1.1104 12.3074 18.777 12.2522
317 2 2.2208 7.9906 14.4644 11.1671
296 1 -1.1104 6.72718 18.6554 12.5343
331 2 2.2208 10.8291 17.2196 10.9292
327 1 -1.1104 12.2193 18.4899 9.59736
288 1 -1.1104 6.7111 18.7616 9.70189
289 1 -1.1104 6.6414 16.0774 9.89804
306 1 -1.1104 6.50481 15.974 12.5115
321 1 -1.1104 9.55253 18.808 12.3128
118 1 -1.1104 6.61076 15.7055 6.82296
323 1 -1.1104 12.1909 15.7883 9.60194
326 1 -1.1104 12.3445 16.0526 12.3241
163 1 -1.1104 9.47668 15.7896 6.83611
145 1 -1.1104 12.428 18.657 6.72011
325 2 2.2208 11.0555 14.3419 8.17549
314 1 -1.1104 9.51141 15.9786 9.65739
149 1 -1.1104 12.2263 15.8427 6.90684
156 1 -1.1104 9.47623 18.6983 6.75353
320 2 2.2208 8.1143 17.2307 8.24055
375 2 2.2208 2.60617 20.1849 -0.0812681
8925 2 2.2208 2.63141 -5.16388 2.63617
83 2 2.2208 -0.237892 11.589 5.23322
8926 2 2.2208 5.51264 -5.25844 5.40528
8927 2 2.2208 -0.196075 -5.28266 5.33079
8928 2 2.2208 8.17456 -5.14839 2.50055
8933 2 2.2208 -0.287865 -4.97441 10.8373
28 2 2.2208 13.6422 20.1552 10.9812
104 2 2.2208 13.5946 11.643 2.56786
204 2 2.2208 13.6661 14.4096 5.47589
165 2 2.2208 13.5625 17.3136 2.37059
8944 2 2.2208 5.39082 -5.16841 -0.365669
105 2 2.2208 13.5286 6.09257 2.73555
333 2 2.2208 13.6181 14.472 10.9957
339 2 2.2208 2.67321 0.412234 13.6243
388 2 2.2208 5.38959 0.388639 16.7473
389 1 -1.1104 1.03487 -3.79634 18.2061
393 1 -1.1104 1.01663 -3.84386 15.2375
401 1 -1.1104 1.36329 -1.18091 17.9851
403 2 2.2208 5.55374 -2.44114 19.4665
405 1 -1.1104 1.3189 -0.849782 15.1645
409 1 -1.1104 3.74624 -3.88841 17.8916
411 2 2.2208 2.55043 0.418174 19.4335
412 1 -1.1104 3.89679 -4.08217 15.1519
416 2 2.2208 2.46702 -2.39145 16.545
418 1 -1.1104 4.07592 -1.08158 17.7945
419 1 -1.1104 3.96272 -1.30062 15.146
424 2 2.2208 -0.0554643 0.349284 16.7491
456 2 2.2208 -0.403292 17.2368 16.8441
338 2 2.2208 5.33587 -2.44545 13.891
8947 2 2.2208 13.6426 -5.23222 13.9448
334 2 2.2208 -0.230863 -2.33968 13.7122
526 2 2.2208 10.9657 20.076 25.1973
590 1 -1.1104 9.58916 18.5345 26.5527
620 1 -1.1104 9.53724 15.7721 26.4964
397 1 -1.1104 6.53359 -3.77509 15.2016
407 1 -1.1104 6.57594 -0.874883 15.3893
391 1 -1.1104 6.86693 -3.97512 18.0867
402 1 -1.1104 6.87121 -0.957947 18.1529
431 2 2.2208 11.1343 0.394346 16.552
432 1 -1.1104 12.4609 -3.52415 17.9104
434 1 -1.1104 12.2748 -3.90025 15.507
438 1 -1.1104 12.5393 -0.813541 18.0439
439 2 2.2208 11.2581 -2.4745 19.5262
441 1 -1.1104 12.3661 -1.08534 15.2862
443 1 -1.1104 9.63501 -3.90153 18.2584
445 2 2.2208 8.44125 0.383464 19.5139
446 1 -1.1104 9.51929 -3.66619 15.3081
450 2 2.2208 8.25605 -2.33701 16.6567
452 1 -1.1104 9.62301 -1.11228 18.1583
453 1 -1.1104 9.40702 -0.92059 15.2709
346 2 2.2208 10.9525 -2.33267 13.804
343 2 2.2208 7.94878 0.540264 13.8008
617 1 -1.1104 9.65987 15.6591 23.8087
337 2 2.2208 -0.373763 3.22 13.82
390 1 -1.1104 1.2676 1.76579 18.0477
395 1 -1.1104 1.06225 2.10113 15.3422
404 2 2.2208 5.33177 3.22974 19.5591
410 1 -1.1104 4.09234 1.65043 18.2205
414 1 -1.1104 3.72814 1.62287 15.2007
417 2 2.2208 2.5808 3.19668 16.6334
464 2 2.2208 5.24637 6.04594 16.6003
466 1 -1.1104 1.19152 7.34329 17.9268
468 1 -1.1104 1.16164 7.12146 15.0009
472 1 -1.1104 0.886605 4.55317 17.9737
477 1 -1.1104 1.23866 4.53823 15.116
486 2 2.2208 2.60768 6.02234 19.3976
491 1 -1.1104 3.84724 4.66904 18.0505
493 1 -1.1104 3.95316 4.4917 15.2284
485 1 -1.1104 3.99477 7.56402 17.8779
488 1 -1.1104 3.93454 7.31657 14.929
341 2 2.2208 5.4585 3.16737 13.6892
621 2 2.2208 -0.302167 6.02951 16.7246
427 2 2.2208 -0.245359 3.20008 19.6067
351 2 2.2208 2.44746 5.78735 13.723
354 2 2.2208 8.13197 6.21413 13.8818
350 2 2.2208 10.8623 3.28459 13.7908
474 1 -1.1104 6.71664 4.84479 17.7879
399 1 -1.1104 6.71651 1.86107 15.4111
470 1 -1.1104 6.7953 7.53611 15.5408
481 1 -1.1104 6.77653 4.51704 15.1933
467 1 -1.1104 6.91384 7.47976 18.1642
392 1 -1.1104 6.9321 1.89419 18.3231
433 1 -1.1104 12.5 1.83917 18.1517
436 1 -1.1104 12.4558 1.82984 15.1133
440 2 2.2208 10.8993 3.29361 19.6756
444 1 -1.1104 9.67619 1.86785 18.2112
448 1 -1.1104 9.4857 1.80981 15.0715
451 2 2.2208 8.20352 3.35668 16.8356
500 2 2.2208 10.7944 6.12302 16.7532
503 1 -1.1104 12.535 7.37161 15.1838
505 1 -1.1104 12.5737 4.79527 17.9457
508 1 -1.1104 12.3299 4.51982 15.0688
512 1 -1.1104 9.55648 7.57317 18.2099
513 2 2.2208 8.23754 6.1167 19.4686
515 1 -1.1104 9.60459 7.50538 15.3045
518 1 -1.1104 9.72956 4.72517 18.4111
520 1 -1.1104 9.54554 4.72727 15.3661
502 1 -1.1104 12.8003 7.57451 18.2131
367 2 2.2208 -0.27883 8.70955 13.8415
465 2 2.2208 5.32915 11.5409 16.664
473 1 -1.1104 1.04521 10.1273 18.1333
476 2 2.2208 5.42322 8.77109 19.671
479 1 -1.1104 0.963729 10.2178 15.3072
487 2 2.2208 2.73425 11.6953 19.6833
490 2 2.2208 2.31793 8.83548 16.6715
492 1 -1.1104 3.98427 10.4482 18.2109
495 1 -1.1104 3.74182 9.94279 15.4308
528 1 -1.1104 0.996333 12.9448 18.2053
532 1 -1.1104 1.13796 13.0521 15.2849
548 1 -1.1104 3.85904 13.1599 18.2001
551 1 -1.1104 4.01094 12.82 15.2159
622 2 2.2208 -0.275651 8.95864 19.5961
648 2 2.2208 -0.413329 11.7175 16.7861
352 2 2.2208 5.26221 8.84346 13.7889
353 2 2.2208 2.44655 11.4476 13.7501
355 2 2.2208 11.1197 8.92362 13.7772
475 1 -1.1104 6.7194 10.2343 18.1884
483 1 -1.1104 6.54788 10.2358 15.0551
536 1 -1.1104 6.82927 13.2336 15.1931
530 1 -1.1104 6.67792 13.0689 18.0724
501 2 2.2208 10.8956 11.6309 16.7018
506 1 -1.1104 12.5978 10.4919 17.8656
507 2 2.2208 11.112 8.87866 19.5384
510 1 -1.1104 12.28 10.1999 15.2649
514 2 2.2208 8.19946 11.6375 19.5896
517 2 2.2208 8.14614 8.92292 16.9848
519 1 -1.1104 9.66645 10.173 18.099
522 1 -1.1104 9.48446 10.2545 15.4216
564 1 -1.1104 12.1849 13.1308 18.0499
566 1 -1.1104 12.3569 12.9913 15.3599
575 1 -1.1104 9.52307 13.0653 17.9367
578 1 -1.1104 9.44221 13.2445 15.2235
430 2 2.2208 13.678 14.4418 22.1394
342 2 2.2208 -0.370707 14.505 13.6993
359 2 2.2208 5.06308 14.3682 13.7751
9016 2 2.2208 8.23267 -5.29783 25.2349
458 2 2.2208 -0.389095 20.0503 19.6162
542 2 2.2208 5.39485 14.5061 19.5104
555 2 2.2208 2.25471 14.3571 16.7883
527 2 2.2208 5.00392 17.2859 16.9524
529 1 -1.1104 1.10506 18.6334 18.069
534 1 -1.1104 1.02681 18.4623 15.3685
540 1 -1.1104 1.09507 15.8908 18.0917
543 2 2.2208 5.057 20.0367 19.5474
544 1 -1.1104 0.910334 15.8379 15.2034
549 1 -1.1104 3.7409 18.6846 18.1215
550 2 2.2208 2.47316 17.2582 19.534
553 1 -1.1104 3.84706 18.6594 15.5063
556 2 2.2208 2.36595 20.1808 16.8391
557 1 -1.1104 3.79379 15.9485 18.43
558 1 -1.1104 3.70403 15.7975 15.5487
348 2 2.2208 10.9903 17.1633 27.7924
457 2 2.2208 -0.309389 14.3193 19.7433
358 2 2.2208 5.10137 20.1969 13.9645
357 2 2.2208 2.57436 17.2814 14.0472
362 2 2.2208 8.01425 17.4128 13.8296
571 2 2.2208 11.0258 14.3639 19.4465
531 1 -1.1104 6.59741 18.8532 18.2466
546 1 -1.1104 6.51912 15.9412 15.3524
538 1 -1.1104 6.42099 18.7657 15.3522
541 1 -1.1104 6.62879 15.9243 18.196
582 2 2.2208 8.0053 14.5528 16.6347
563 2 2.2208 10.7774 17.4249 16.5956
565 1 -1.1104 12.5332 18.7144 18.1905
568 1 -1.1104 12.1696 18.6454 15.2518
570 1 -1.1104 12.1766 15.7276 18.0229
572 2 2.2208 10.9021 20.2875 19.4447
573 1 -1.1104 11.9977 15.9392 15.2884
576 1 -1.1104 9.54286 18.8557 17.9372
577 2 2.2208 8.04139 17.3125 19.4988
580 1 -1.1104 9.51404 18.8124 15.1629
583 2 2.2208 7.80473 20.0499 16.6887
584 1 -1.1104 9.39276 16.1142 18.2943
585 1 -1.1104 9.24556 16.1277 15.287
360 2 2.2208 10.8942 20.1766 13.8137
361 2 2.2208 10.875 14.4531 13.9638
413 1 -1.1104 3.90843 -3.82784 20.8051
420 1 -1.1104 4.22028 -1.01987 20.8804
406 1 -1.1104 1.39673 -0.9763 20.8618
624 2 2.2208 -0.0194254 -2.61049 25.1105
625 2 2.2208 -0.192818 0.47968 22.1243
394 1 -1.1104 1.15448 -3.78565 20.9896
591 2 2.2208 5.36459 0.458775 22.4031
592 1 -1.1104 1.26614 -4.03825 23.7658
596 1 -1.1104 1.337 -4.04483 26.6958
600 1 -1.1104 1.33269 -0.882362 23.6284
602 2 2.2208 5.37261 -2.33052 25.3186
604 1 -1.1104 1.24249 -1.18668 26.4673
606 1 -1.1104 4.06009 -3.94171 23.8275
608 2 2.2208 2.62384 0.512112 25.1
609 1 -1.1104 4.1416 -3.94569 26.4886
611 2 2.2208 2.7711 -2.44197 22.199
613 1 -1.1104 4.0118 -0.982828 23.7202
614 1 -1.1104 4.02528 -0.759437 26.3388
408 1 -1.1104 6.9457 -0.812809 21.2373
442 1 -1.1104 12.6299 -0.878345 20.8444
435 1 -1.1104 12.5215 -3.75731 21.0017
447 1 -1.1104 9.74199 -3.92136 20.8556
454 1 -1.1104 9.8031 -1.42132 20.9495
601 1 -1.1104 6.78944 -0.863327 23.9817
598 1 -1.1104 6.8211 -3.80392 26.5762
594 1 -1.1104 6.75952 -3.97494 23.7798
398 1 -1.1104 6.842 -3.67884 20.7707
605 1 -1.1104 7.01768 -0.999885 26.5672
627 2 2.2208 10.9946 0.398866 22.3539
628 1 -1.1104 12.4025 -3.87221 23.9623
630 1 -1.1104 12.3057 -3.8779 26.5658
632 1 -1.1104 12.3283 -1.21544 23.6365
633 2 2.2208 11.1133 -2.43993 25.3015
635 1 -1.1104 12.8329 -0.9044 26.7033
636 1 -1.1104 9.33753 -4.15411 23.6541
638 2 2.2208 8.36778 0.555929 25.1529
639 1 -1.1104 9.47562 -3.73814 26.5447
641 2 2.2208 8.32574 -2.36236 22.3548
643 1 -1.1104 9.51164 -0.980145 23.7754
644 1 -1.1104 9.81872 -0.979557 26.6045
8948 2 2.2208 8.12366 -5.07445 13.8832
494 1 -1.1104 3.95923 4.64697 20.9395
489 1 -1.1104 3.73098 7.47347 20.8863
396 1 -1.1104 1.16514 1.8018 20.7558
626 2 2.2208 -0.318592 3.1756 25.1003
415 1 -1.1104 3.81731 1.7895 21.0953
469 1 -1.1104 1.02166 7.40116 20.5683
478 1 -1.1104 1.14036 4.71011 20.8182
593 1 -1.1104 1.22082 2.04351 23.765
597 1 -1.1104 0.99205 1.81794 26.3096
603 2 2.2208 5.33925 3.3629 25.4084
607 1 -1.1104 3.89923 2.01304 23.8333
610 1 -1.1104 3.8521 1.96052 26.6145
612 2 2.2208 2.44256 3.35913 22.2633
656 2 2.2208 5.36655 5.98633 22.2069
662 1 -1.1104 1.28948 4.86865 23.5407
667 1 -1.1104 1.17903 4.75231 26.6313
672 2 2.2208 2.57037 6.12549 25.0518
676 1 -1.1104 4.11589 4.65613 23.8984
678 1 -1.1104 3.96316 4.84511 26.5138
658 1 -1.1104 0.822807 7.57323 23.694
671 1 -1.1104 4.08276 7.39208 23.7861
660 1 -1.1104 0.889594 7.45094 26.2771
674 1 -1.1104 3.6766 7.47175 26.6123
482 1 -1.1104 6.72861 4.7017 20.7909
509 1 -1.1104 12.525 4.80479 20.8064
400 1 -1.1104 6.66077 1.85976 21.1257
437 1 -1.1104 12.2026 1.99851 21.0723
449 1 -1.1104 9.32065 1.59333 21.1397
504 1 -1.1104 12.5026 7.59208 20.8784
516 1 -1.1104 9.78939 7.14458 20.8544
595 1 -1.1104 6.72796 1.84613 23.8872
659 1 -1.1104 6.87211 7.44739 23.8499
471 1 -1.1104 6.73284 7.42585 20.9451
521 1 -1.1104 9.619 4.4406 21.0377
599 1 -1.1104 6.89775 1.73314 26.6145
664 1 -1.1104 6.877 4.52268 23.8507
669 1 -1.1104 6.71238 4.75496 26.8555
629 1 -1.1104 12.712 1.5923 23.892
631 1 -1.1104 12.4485 1.99988 26.7432
634 2 2.2208 11.2201 3.35633 25.1817
637 1 -1.1104 9.83185 1.91635 23.8968
640 1 -1.1104 9.69113 1.88082 26.721
642 2 2.2208 8.05932 3.17126 22.3477
688 1 -1.1104 9.7262 4.6237 26.4965
690 1 -1.1104 9.53637 4.73013 23.7667
692 1 -1.1104 9.76325 7.52097 26.6054
694 2 2.2208 8.16157 5.98464 25.3
695 2 2.2208 11.1178 6.1169 22.2587
698 1 -1.1104 12.504 7.44859 26.6237
699 1 -1.1104 12.507 4.39467 23.7638
702 1 -1.1104 12.387 4.69549 26.7913
704 1 -1.1104 9.67995 7.32414 23.6953
697 1 -1.1104 12.571 7.27868 23.8609
661 1 -1.1104 6.86714 7.57145 26.5042
496 1 -1.1104 4.06831 10.304 20.873
480 1 -1.1104 1.18373 10.1739 20.9134
552 1 -1.1104 4.00395 13.092 21.1993
685 2 2.2208 -0.0378984 11.6569 22.2845
356 2 2.2208 7.95271 11.6181 13.905
533 1 -1.1104 1.20972 13.0236 21.0861
657 2 2.2208 5.51754 11.6025 22.4599
663 1 -1.1104 1.28693 10.3066 23.5722
666 2 2.2208 5.27614 8.72187 25.0479
668 1 -1.1104 1.00002 10.2457 26.3102
673 2 2.2208 2.4417 11.7214 25.0673
675 2 2.2208 2.66872 8.78391 22.4416
677 1 -1.1104 4.16552 10.1205 23.55
679 1 -1.1104 3.82518 10.1738 26.5148
681 1 -1.1104 3.94656 13.1495 26.7187
706 1 -1.1104 0.987344 13.263 23.7656
713 1 -1.1104 3.79679 12.8676 23.8308
717 1 -1.1104 1.30687 13.1994 26.5175
511 1 -1.1104 12.3669 10.3246 20.8174
523 1 -1.1104 9.42789 10.0081 20.6963
537 1 -1.1104 6.84749 12.9409 21.122
670 1 -1.1104 6.61292 10.1559 26.5309
709 1 -1.1104 6.85432 13.2298 24.0035
712 1 -1.1104 6.66207 12.9558 26.5424
484 1 -1.1104 6.69911 10.1694 21.1017
579 1 -1.1104 9.86594 12.8533 20.965
567 1 -1.1104 12.3916 12.8507 20.7269
665 1 -1.1104 6.8857 10.1215 23.9242
589 1 -1.1104 9.65962 13.0178 26.6541
687 1 -1.1104 9.56799 10.31 26.5351
689 1 -1.1104 9.79115 9.98113 23.4928
691 2 2.2208 8.25259 8.61502 22.3757
693 2 2.2208 8.25348 11.5777 25.3177
696 2 2.2208 11.2229 11.6962 22.3683
700 1 -1.1104 12.4032 10.2989 23.777
701 2 2.2208 10.9509 8.7676 25.1288
703 1 -1.1104 12.4611 10.2131 26.6153
561 1 -1.1104 9.63182 12.8142 23.8761
463 1 -1.1104 12.3912 13.08 23.8043
498 1 -1.1104 12.4035 13.1521 26.5557
535 1 -1.1104 0.95677 18.6443 20.9153
559 1 -1.1104 4.12414 15.9461 21.1234
646 2 2.2208 -0.203342 14.695 25.0458
647 2 2.2208 2.49138 14.5648 22.4764
554 1 -1.1104 3.73007 18.6993 20.8816
545 1 -1.1104 1.12963 15.7748 20.8649
9085 2 2.2208 2.48514 -5.27237 19.4449
623 2 2.2208 -0.355081 17.4262 22.2938
720 2 2.2208 5.41676 14.4131 25.2035
719 2 2.2208 5.29791 20.1634 25.1662
716 1 -1.1104 1.08269 15.7975 26.5867
649 2 2.2208 2.40361 20.0805 22.5444
652 1 -1.1104 3.91695 15.9494 23.8648
655 1 -1.1104 1.19747 15.9527 23.6012
682 1 -1.1104 3.84733 15.9608 26.743
683 2 2.2208 2.582 17.2471 25.2972
686 1 -1.1104 3.99491 18.7622 26.4092
705 2 2.2208 5.19209 17.3627 22.4711
707 1 -1.1104 0.975236 18.6161 23.8211
711 1 -1.1104 3.78791 18.654 23.9106
715 1 -1.1104 1.05638 18.5958 26.6674
524 1 -1.1104 12.265 15.5282 23.4708
616 2 2.2208 8.06889 20.2036 22.2617
615 2 2.2208 8.16077 14.3161 22.3438
525 2 2.2208 10.8185 14.4542 25.1159
499 1 -1.1104 12.3665 18.6771 26.4584
718 1 -1.1104 6.75108 18.4693 23.6958
714 1 -1.1104 6.60567 15.6896 26.7475
680 1 -1.1104 6.80766 15.7581 23.8694
588 1 -1.1104 6.89364 18.8148 26.601
462 2 2.2208 10.9268 17.3961 22.1392
539 1 -1.1104 6.48136 18.7174 20.9421
581 1 -1.1104 9.2445 18.7586 20.7821
574 1 -1.1104 12.207 16.0269 20.7322
586 1 -1.1104 9.74946 15.8222 20.9081
562 1 -1.1104 9.64974 18.8085 23.6789
560 1 -1.1104 12.3939 15.9094 26.4438
497 1 -1.1104 12.3482 18.6302 23.7444
547 1 -1.1104 7.13118 15.7031 21.0497
569 1 -1.1104 12.2407 19.0384 21.0276
587 2 2.2208 8.00673 17.2993 25.3599
9020 2 2.2208 5.41871 -5.16672 22.3355
425 2 2.2208 -0.290063 -2.59986 19.7487
335 2 2.2208 -0.220987 20.0106 13.9083
9087 2 2.2208 -0.253964 -5.26126 16.6297
9056 2 2.2208 10.994 -5.1963 16.699
421 2 2.2208 -0.403636 6.13089 22.3701
9086 2 2.2208 5.37648 -5.33305 16.7288
8952 2 2.2208 2.44669 -5.12342 13.9074
429 2 2.2208 13.6765 3.16706 16.6125
383 2 2.2208 -0.316935 6.14697 27.7198
721 2 2.2208 5.31917 23.078 5.40881
723 1 -1.1104 1.10763 24.461 0.988551
724 1 -1.1104 1.13717 24.4799 3.94165
725 1 -1.1104 1.17728 21.5593 1.36876
727 2 2.2208 5.29354 25.7872 2.67112
728 1 -1.1104 1.06663 21.6811 3.95806
730 1 -1.1104 3.83741 24.2326 1.13648
731 2 2.2208 2.46213 23.0199 2.78059
733 1 -1.1104 3.78364 24.5124 4.11621
734 2 2.2208 2.46036 25.7775 5.3653
735 1 -1.1104 4.0631 21.3874 1.25247
737 1 -1.1104 3.95348 21.72 3.91617
726 1 -1.1104 1.21714 27.4173 0.883913
738 1 -1.1104 3.97478 27.0742 4.04752
1075 2 2.2208 10.8961 28.519 -0.0640498
1010 2 2.2208 8.16988 31.5979 -0.101469
1054 2 2.2208 2.20755 45.6114 13.7051
1066 2 2.2208 5.53498 22.9338 -0.300049
1058 2 2.2208 5.18354 42.8245 13.6704
746 1 -1.1104 6.73038 21.5771 3.95904
742 1 -1.1104 6.78514 24.3834 1.02054
743 1 -1.1104 6.65712 24.381 3.88473
744 1 -1.1104 6.87571 21.5381 1.16926
748 2 2.2208 10.8372 23.092 5.21833
750 1 -1.1104 12.2475 24.5145 1.15807
751 1 -1.1104 12.324 24.3716 3.78004
752 1 -1.1104 12.7809 21.692 1.06808
754 2 2.2208 10.8617 25.7009 2.58396
755 1 -1.1104 12.3933 21.6418 3.8839
757 1 -1.1104 9.51753 24.4104 1.15774
758 2 2.2208 8.12653 22.963 2.47881
760 1 -1.1104 9.36488 24.3729 3.83178
761 2 2.2208 8.13814 25.7173 5.30564
762 1 -1.1104 9.74407 21.5679 0.893161
764 1 -1.1104 9.62528 21.5641 3.74585
763 1 -1.1104 9.44125 27.132 1.05297
753 1 -1.1104 12.3858 27.0476 1.1443
765 1 -1.1104 9.52395 27.0522 3.96288
1618 1 -1.1104 3.57483 46.8427 9.43071
1040 2 2.2208 -0.320078 31.3335 8.15886
747 1 -1.1104 6.79337 27.1369 4.13956
736 1 -1.1104 3.98675 27.2446 1.11812
729 1 -1.1104 0.938076 27.2933 3.60318
722 2 2.2208 5.288 28.5741 5.49078
732 2 2.2208 2.4988 28.5722 2.5144
770 1 -1.1104 1.18646 29.8179 1.14211
773 1 -1.1104 1.19955 30.0036 3.68241
776 1 -1.1104 0.940425 32.6847 0.997444
777 2 2.2208 5.29674 31.5454 2.65023
779 1 -1.1104 0.963424 32.7769 3.69898
781 1 -1.1104 3.98257 30.0214 1.53411
784 1 -1.1104 4.01061 30.1079 4.10247
786 2 2.2208 2.52776 31.3869 5.11816
788 1 -1.1104 3.82981 32.8868 1.10677
789 1 -1.1104 3.88395 32.8378 3.85013
839 2 2.2208 -0.343773 39.9805 5.31898
814 2 2.2208 13.6158 34.2118 2.56254
1076 2 2.2208 2.23367 37.171 -0.191987
1070 2 2.2208 5.30943 28.6869 -0.199984
745 1 -1.1104 6.59436 27.2582 1.35659
756 1 -1.1104 12.2203 27.3102 4.04669
741 2 2.2208 -0.33952 23.0623 5.51271
794 1 -1.1104 6.73833 30.1435 3.87069
793 1 -1.1104 6.70448 29.9588 1.07641
780 1 -1.1104 6.43959 32.9752 4.09048
795 1 -1.1104 6.64365 32.7564 1.37775
749 2 2.2208 10.8137 28.6418 5.24638
759 2 2.2208 8.16045 28.6494 2.58825
797 1 -1.1104 12.3808 30.1096 1.16098
799 1 -1.1104 12.3132 30.1159 4.01877
801 1 -1.1104 12.3672 32.8534 1.28453
802 2 2.2208 10.9287 31.4481 2.57848
804 1 -1.1104 12.1306 32.9454 4.0332
805 1 -1.1104 9.76369 30.1725 1.26843
808 1 -1.1104 9.45137 30.0051 3.96995
810 2 2.2208 7.9851 31.4958 5.25499
812 1 -1.1104 9.42867 32.8682 1.40537
813 1 -1.1104 9.35862 32.8797 4.16554
900 1 -1.1104 9.17852 26.9682 6.87716
955 1 -1.1104 12.1142 32.638 6.99201
956 1 -1.1104 9.24851 29.8635 6.61231
860 2 2.2208 -0.191553 39.9846 -0.293129
1636 1 -1.1104 11.7299 46.6819 12.5767
769 2 2.2208 5.20808 34.2475 5.4382
771 1 -1.1104 0.662643 35.785 1.1584
774 1 -1.1104 0.974773 35.5301 4.01421
778 2 2.2208 5.36103 36.9977 2.60338