ITEM: TIMESTEP
70000
ITEM: NUMBER OF ATOMS
17730
ITEM: BOX BOUNDS pp pp pp
-4.3640960269545570e-01 2.7776409602694418e+01
-5.3934009068988091e+00 3.3347340090689806e+02
-4.3642735565663643e-01 2.7776427355656267e+01
ITEM: ATOMS id type q x y z
1 2 2.2208 5.04458 0.396497 5.1582
2 1 -1.1104 0.917113 -3.96907 0.945913
6 1 -1.1104 0.886736 -4.07737 3.71524
10 1 -1.1104 1.01844 -1.32755 0.820206
12 2 2.2208 5.29778 -2.47632 2.37942
14 1 -1.1104 0.91889 -1.31114 3.73116
16 1 -1.1104 3.9587 -4.02795 1.0163
18 2 2.2208 2.37958 0.234952 2.30056
19 1 -1.1104 3.47753 -3.81622 3.84868
21 2 2.2208 2.5147 -2.7144 5.3855
23 1 -1.1104 3.91127 -1.17417 0.898258
24 1 -1.1104 3.76196 -1.12853 3.91034
11 1 -1.1104 6.80976 -1.42096 1.05601
4 1 -1.1104 6.77799 -4.07678 0.97709
15 1 -1.1104 6.56545 -0.997155 3.75814
174 1 -1.1104 3.89256 -1.01347 6.67541
166 1 -1.1104 0.903248 -4.11604 6.54142
170 1 -1.1104 0.880044 -1.10747 6.57389
371 2 2.2208 5.44339 14.4802 13.6086
361 2 2.2208 2.57504 11.4022 13.5031
8 1 -1.1104 6.50636 -3.89976 3.79779
31 2 2.2208 10.8349 0.247732 5.02789
32 1 -1.1104 12.251 -3.99423 0.992074
34 1 -1.1104 12.4191 -4.0217 3.79712
36 1 -1.1104 12.3694 -1.32547 0.631439
37 2 2.2208 10.8352 -2.65831 2.16332
39 1 -1.1104 12.2913 -1.35579 3.74495
40 1 -1.1104 9.52423 -4.12305 0.753059
42 2 2.2208 8.09946 0.088196 2.26997
43 1 -1.1104 9.6263 -4.02311 3.60143
45 2 2.2208 7.99057 -2.45906 5.19803
47 1 -1.1104 9.4326 -1.28209 0.989044
48 1 -1.1104 9.31507 -1.14818 3.61216
338 2 2.2208 13.6396 3.07131 10.8587
207 1 -1.1104 12.3149 -0.968242 6.45155
205 1 -1.1104 12.5015 -3.73712 6.6391
26 2 2.2208 -0.383236 0.339544 5.23767
208 1 -1.1104 9.72778 -3.89381 6.45938
210 1 -1.1104 9.38076 -1.00467 6.37804
204 2 2.2208 -0.241937 -5.19243 10.593
3 1 -1.1104 1.07142 1.54271 0.760904
7 1 -1.1104 0.947364 1.65424 3.65583
13 2 2.2208 5.30394 3.02187 2.34601
17 1 -1.1104 3.95861 1.80484 0.712572
20 1 -1.1104 3.66345 1.65442 3.57198
22 2 2.2208 2.29772 3.12379 5.09184
54 2 2.2208 5.23399 5.94806 5.09865
56 1 -1.1104 1.11372 7.41104 0.885628
60 1 -1.1104 0.992712 4.38941 0.917752
67 1 -1.1104 1.25514 4.47363 3.63652
72 2 2.2208 2.38597 5.87991 2.18536
76 1 -1.1104 3.92734 4.3568 0.825018
79 1 -1.1104 4.07622 4.4162 3.74372
58 1 -1.1104 1.1365 7.28898 3.79427
71 1 -1.1104 3.9249 7.22393 0.771898
74 1 -1.1104 3.90069 7.18465 3.5256
5 1 -1.1104 6.76172 1.51018 0.801891
59 1 -1.1104 6.70871 7.3352 3.88396
9 1 -1.1104 6.50859 1.60494 3.63089
57 1 -1.1104 6.80931 7.16582 0.998685
69 1 -1.1104 6.7692 4.29165 3.62767
236 1 -1.1104 1.22255 4.52096 6.39964
238 1 -1.1104 3.93245 7.32096 6.55199
167 1 -1.1104 0.949738 1.83646 6.4714
169 1 -1.1104 6.66099 1.70092 6.62441
239 1 -1.1104 3.82204 4.55967 6.572
173 1 -1.1104 3.93502 1.81317 6.53805
136 2 2.2208 -0.31561 19.9784 2.27984
63 1 -1.1104 6.57343 4.55787 0.889972
33 1 -1.1104 12.3649 1.38818 1.04461
35 1 -1.1104 12.4667 1.55224 3.62845
38 2 2.2208 10.8338 2.95033 2.10916
41 1 -1.1104 9.57241 1.41781 0.785465
44 1 -1.1104 9.37761 1.5975 3.4946
46 2 2.2208 7.96564 3.05109 5.02591
84 2 2.2208 11.0217 5.88819 5.11595
88 1 -1.1104 12.2948 4.27479 0.848127
92 1 -1.1104 12.3656 4.41803 3.68467
94 1 -1.1104 9.47037 7.20976 0.899049
95 2 2.2208 8.22793 5.88396 2.31701
97 1 -1.1104 9.78226 7.1752 3.72765
99 1 -1.1104 9.44295 4.4144 0.737956
102 1 -1.1104 9.76412 4.52011 3.53534
86 1 -1.1104 12.4365 7.03011 1.1339
87 1 -1.1104 12.4544 7.25394 3.85449
209 1 -1.1104 9.28277 1.78024 6.46592
202 2 2.2208 2.58702 -5.32562 7.95299
347 2 2.2208 2.41415 -5.27886 13.4963
206 1 -1.1104 12.2091 1.74358 6.54018
267 1 -1.1104 9.39148 7.23171 6.5467
321 1 -1.1104 9.74244 18.6737 12.2521
55 2 2.2208 5.122 11.5683 5.09748
61 1 -1.1104 1.09573 10.1675 0.872781
66 2 2.2208 5.29113 8.63075 2.16843
68 1 -1.1104 1.06738 10.0602 3.57927
73 2 2.2208 2.45996 11.4714 2.4281
75 2 2.2208 2.53619 8.55996 5.01076
77 1 -1.1104 3.86397 9.98946 0.792759
80 1 -1.1104 3.91065 9.96478 3.49801
107 1 -1.1104 1.06225 13.135 1.13598
113 1 -1.1104 0.919028 13.0992 3.92614
123 1 -1.1104 3.9427 12.8515 0.991594
128 1 -1.1104 3.87404 12.9897 3.90281
110 1 -1.1104 6.47561 13.1598 0.667183
64 1 -1.1104 6.64373 10.0592 0.721535
62 1 -1.1104 1.2855 9.92541 6.36572
111 1 -1.1104 6.74912 12.8825 6.39444
70 1 -1.1104 6.62557 10.3121 3.72973
65 1 -1.1104 7.06148 10.0426 6.63374
78 1 -1.1104 3.94533 10.1494 6.36986
130 2 2.2208 2.29884 14.5948 5.00843
124 1 -1.1104 3.66121 12.9115 6.40737
108 1 -1.1104 0.819597 12.8061 6.87593
314 1 -1.1104 9.64137 16.0218 9.32928
115 1 -1.1104 6.69525 13.1386 3.51178
313 2 2.2208 -0.296282 14.202 8.10918
366 2 2.2208 13.5125 5.85794 13.3596
85 2 2.2208 10.9799 11.5987 5.16046
89 1 -1.1104 12.3002 9.80269 0.794208
91 2 2.2208 11.1286 8.71385 2.35322
93 1 -1.1104 12.3568 10.2183 3.55865
96 2 2.2208 8.14885 11.4753 2.27074
98 2 2.2208 8.03409 8.71131 5.14538
100 1 -1.1104 9.50437 9.9736 0.902899
103 1 -1.1104 9.47324 10.0369 3.52586
142 1 -1.1104 12.1817 12.8488 0.821223
146 1 -1.1104 12.4445 12.8779 3.61252
153 1 -1.1104 9.41329 12.9245 0.760997
158 1 -1.1104 9.57971 12.9061 3.55267
101 1 -1.1104 9.57851 10.1608 6.46665
143 1 -1.1104 12.4161 13.0419 6.52076
154 1 -1.1104 9.48428 13.0985 6.55083
331 2 2.2208 10.9502 17.3154 10.6106
119 2 2.2208 5.19846 14.3074 2.29443
106 2 2.2208 5.18034 17.1525 5.12015
109 1 -1.1104 1.08099 18.6204 1.00846
114 1 -1.1104 0.865526 18.5345 3.72717
116 1 -1.1104 1.0357 15.7703 0.912683
120 2 2.2208 5.37035 20 2.22784
121 1 -1.1104 0.958683 15.9599 3.76127
125 1 -1.1104 4.10524 18.5453 1.03981
127 2 2.2208 2.38412 17.176 2.19853
129 1 -1.1104 3.69093 18.3909 3.70139
131 2 2.2208 2.59963 19.799 5.15938
132 1 -1.1104 3.82953 15.9287 0.794724
134 1 -1.1104 3.68199 15.7161 3.6424
138 1 -1.1104 6.74711 18.671 0.886573
140 1 -1.1104 6.76466 15.7757 0.957391
139 1 -1.1104 6.66049 18.7424 3.55455
117 1 -1.1104 0.965867 15.6586 6.68919
133 1 -1.1104 3.84935 15.5491 6.76211
118 1 -1.1104 6.70784 15.7552 6.69207
311 2 2.2208 -0.0994022 19.9719 7.90624
323 1 -1.1104 12.4257 15.8237 9.1343
350 2 2.2208 -0.315047 19.999 13.6683
112 1 -1.1104 6.55753 18.5841 6.36625
122 1 -1.1104 6.70293 15.9241 3.99794
160 2 2.2208 8.05572 14.377 5.06004
150 2 2.2208 10.9634 14.314 2.12071
141 2 2.2208 11.1052 17.2463 5.08768
144 1 -1.1104 12.3466 18.5404 0.815878
147 1 -1.1104 12.4629 18.44 3.6224
148 1 -1.1104 12.4038 15.9108 0.538625
151 2 2.2208 10.9769 19.8368 2.40538
152 1 -1.1104 12.2609 15.5767 3.76757
155 1 -1.1104 9.58014 18.4446 0.781685
157 2 2.2208 8.1192 17.1814 2.38224
159 1 -1.1104 9.39273 18.5617 3.67139
161 2 2.2208 8.22341 19.8743 5.19158
162 1 -1.1104 9.61907 15.839 0.807313
164 1 -1.1104 9.54933 15.8062 3.37011
163 1 -1.1104 9.4116 15.8262 6.37849
145 1 -1.1104 12.3129 18.5437 6.511
149 1 -1.1104 12.5546 15.9115 6.37007
199 2 2.2208 -0.217647 3.1839 7.94774
353 2 2.2208 8.03792 -5.19601 13.6673
171 1 -1.1104 6.51268 -1.02151 6.51837
168 1 -1.1104 6.91714 -3.92469 6.60778
172 1 -1.1104 3.99587 -4.00717 6.56984
175 2 2.2208 5.1258 0.128043 10.7932
176 1 -1.1104 0.977609 -3.99284 11.9971
180 1 -1.1104 1.03515 -3.71691 9.36602
184 1 -1.1104 0.931513 -1.19139 12.0574
186 2 2.2208 5.37935 -2.4413 8.08726
188 1 -1.1104 1.10967 -0.913389 9.15921
190 1 -1.1104 3.69674 -3.78078 12.223
192 2 2.2208 2.3686 0.381019 7.84983
193 1 -1.1104 3.84889 -4.00705 9.38038
195 2 2.2208 2.30648 -2.35064 10.6312
197 1 -1.1104 3.79804 -1.12203 12.0122
198 1 -1.1104 3.91816 -1.26419 9.41389
178 1 -1.1104 6.53914 -3.82849 12.1462
182 1 -1.1104 6.83454 -3.76567 9.37245
185 1 -1.1104 6.53868 -1.26593 12.2368
189 1 -1.1104 6.97702 -1.14616 9.38792
379 2 2.2208 8.13223 19.9522 -0.419202
399 2 2.2208 8.14063 8.70358 -0.367373
29 2 2.2208 5.41358 -5.39177 5.1101
231 2 2.2208 8.18276 -5.36727 7.93242
137 2 2.2208 -0.421692 17.1668 5.24597
348 2 2.2208 5.37779 -2.48776 13.5785
318 1 -1.1104 9.59749 18.6732 9.37637
211 2 2.2208 10.9083 0.300802 10.6833
212 1 -1.1104 12.3991 -3.85799 12.3388
214 1 -1.1104 12.3676 -3.85257 9.57385
216 1 -1.1104 12.4759 -1.06972 12.4227
217 2 2.2208 10.9473 -2.41761 7.89001
219 1 -1.1104 12.4331 -1.1436 9.35795
220 1 -1.1104 9.4176 -3.85796 12.2003
222 2 2.2208 8.21518 0.309221 7.75969
223 1 -1.1104 9.50411 -3.79029 9.19189
225 2 2.2208 8.08572 -2.45477 10.771
227 1 -1.1104 9.57467 -1.00912 12.1421
228 1 -1.1104 9.74122 -0.808084 9.13474
306 1 -1.1104 6.77879 15.7203 12.173
312 2 2.2208 -0.0713952 17.0673 10.9098
327 1 -1.1104 12.5127 18.6574 9.37617
237 1 -1.1104 6.55649 4.51396 6.4674
234 1 -1.1104 1.03491 7.18046 6.52359
352 2 2.2208 5.28609 2.97471 13.5212
177 1 -1.1104 1.13774 1.69039 12.1004
181 1 -1.1104 1.04161 1.84495 9.20709
187 2 2.2208 5.35922 3.218 7.93668
191 1 -1.1104 3.79967 1.5245 12.1784
194 1 -1.1104 3.71433 1.61359 9.39837
196 2 2.2208 2.56796 3.05113 10.8688
240 2 2.2208 5.24405 5.89472 10.7854
244 1 -1.1104 1.0807 7.19842 9.27949
246 1 -1.1104 1.04966 4.45868 12.1505
251 1 -1.1104 0.9167 4.54849 9.31323
255 1 -1.1104 3.74282 7.4107 12.2742
256 2 2.2208 2.44197 5.85803 7.93922
260 1 -1.1104 3.79547 4.65288 12.0701
262 1 -1.1104 3.71345 4.49469 9.37103
258 1 -1.1104 3.91367 7.26573 9.33024
242 1 -1.1104 0.91596 7.31463 12.1037
179 1 -1.1104 6.71005 1.59126 12.2744
245 1 -1.1104 6.87809 7.39513 9.15505
248 1 -1.1104 6.61515 4.49419 12.2379
390 2 2.2208 10.9614 -5.37385 -0.434778
265 1 -1.1104 12.5093 7.3363 6.66495
269 1 -1.1104 9.33293 4.47831 6.39076
266 1 -1.1104 12.297 4.55692 6.60639
288 1 -1.1104 6.72688 18.8147 9.36723
183 1 -1.1104 6.76732 1.89074 9.15966
253 1 -1.1104 6.76825 4.57794 9.53865
243 1 -1.1104 6.81054 7.30446 12.099
235 1 -1.1104 6.60737 7.2871 6.44592
27 2 2.2208 -0.389976 2.90646 2.29529
326 1 -1.1104 12.6509 15.7083 12.0787
213 1 -1.1104 12.1181 1.66917 12.0193
215 1 -1.1104 12.3844 1.72727 9.25674
218 2 2.2208 10.9418 3.20511 7.95209
221 1 -1.1104 9.42286 1.84794 12.2879
224 1 -1.1104 9.54945 1.69217 9.35649
226 2 2.2208 8.12821 3.09025 10.7344
268 1 -1.1104 9.36967 4.50535 9.21157
271 1 -1.1104 9.38641 4.66321 12.142
273 1 -1.1104 9.55999 7.41824 9.28433
275 2 2.2208 8.08382 5.82487 7.84885
276 2 2.2208 10.9156 5.86688 10.5808
280 1 -1.1104 11.9706 4.59841 12.2945
283 1 -1.1104 12.218 4.56652 9.35809
278 1 -1.1104 12.2269 7.32175 11.8827
285 1 -1.1104 9.4675 7.59427 12.149
279 1 -1.1104 12.4347 7.42504 9.1992
357 2 2.2208 10.7571 3.09049 13.4176
287 1 -1.1104 4.03432 13.0445 12.214
305 1 -1.1104 4.07636 12.9661 9.4158
299 1 -1.1104 1.23073 12.8176 12.1964
241 2 2.2208 5.39498 11.5008 10.7606
247 1 -1.1104 1.34937 9.9965 12.0883
250 2 2.2208 5.4478 8.76907 7.97034
252 1 -1.1104 1.1237 9.96899 9.19782
257 2 2.2208 2.50933 11.543 7.80782
259 2 2.2208 2.4848 8.8353 10.5505
261 1 -1.1104 3.95927 10.0505 11.9754
263 1 -1.1104 3.95751 10.2835 9.08218
294 1 -1.1104 1.34573 12.8409 9.58852
297 1 -1.1104 6.7249 12.887 12.3382
249 1 -1.1104 6.61179 10.1481 12.0789
254 1 -1.1104 6.81992 10.1949 9.31864
360 2 2.2208 5.30205 8.67242 13.4925
295 2 2.2208 5.20074 14.3281 8.00116
310 2 2.2208 2.64384 14.329 10.8737
364 2 2.2208 10.8225 8.85164 13.4662
90 1 -1.1104 12.4183 10.2784 6.5917
367 2 2.2208 -0.417038 3.05593 13.4156
325 2 2.2208 10.9276 14.3809 7.7829
317 2 2.2208 8.12336 14.5497 10.7123
290 1 -1.1104 6.71956 13.0815 9.24465
324 2 2.2208 10.9446 20.0079 8.10205
330 1 -1.1104 12.5652 13.0112 12.0899
328 1 -1.1104 12.3499 13.0844 9.24446
322 1 -1.1104 9.62258 13.2527 11.8776
319 1 -1.1104 9.45406 13.1724 9.22096
264 1 -1.1104 9.66933 10.4096 9.48818
270 1 -1.1104 9.73498 10.4495 12.3572
272 2 2.2208 8.16244 8.90656 10.6823
274 2 2.2208 8.24828 11.7318 7.98863
277 2 2.2208 11.1529 11.8093 10.7659
281 1 -1.1104 12.459 10.1909 12.095
282 2 2.2208 10.9439 8.90208 8.06133
284 1 -1.1104 12.3403 10.3185 9.39196
302 1 -1.1104 1.41141 18.5841 6.59989
126 1 -1.1104 3.94119 18.4378 6.68536
359 2 2.2208 2.42185 5.8057 13.5036
28 2 2.2208 2.38437 -5.30781 2.43782
232 2 2.2208 10.952 -5.16086 10.9635
296 1 -1.1104 6.95629 18.6492 12.254
291 1 -1.1104 1.14243 18.3966 9.54137
309 2 2.2208 2.5844 20.103 10.7883
308 1 -1.1104 3.85032 15.91 12.2142
307 1 -1.1104 1.13709 15.6252 12.1682
286 1 -1.1104 4.02442 18.685 12.226
304 1 -1.1104 3.87045 15.6576 9.35917
303 2 2.2208 2.57233 17.03 8.16106
301 1 -1.1104 3.96322 18.69 9.27294
292 1 -1.1104 1.18981 15.6156 9.37296
300 2 2.2208 5.3836 17.3413 10.7636
298 1 -1.1104 1.25506 18.6037 12.1579
293 2 2.2208 5.2992 19.9672 7.9179
289 1 -1.1104 6.58433 15.8974 9.40435
351 2 2.2208 -0.256772 14.1727 13.6082
316 2 2.2208 8.16064 20.0347 10.7402
329 1 -1.1104 12.5745 18.3989 12.1226
156 1 -1.1104 9.63973 18.6647 6.52744
349 2 2.2208 2.41571 0.196295 13.4979
320 2 2.2208 8.13302 17.0679 7.94765
315 1 -1.1104 9.62337 15.9242 12.2954
373 2 2.2208 11.0721 14.4248 13.5772
404 2 2.2208 5.49241 17.0752 -0.376643
363 2 2.2208 8.15478 5.88306 13.5612
203 2 2.2208 5.31747 -5.32926 10.7921
368 2 2.2208 2.59141 17.2662 13.5937
343 2 2.2208 -0.161745 8.6968 7.88003
342 2 2.2208 -0.125947 11.4869 10.675
52 2 2.2208 11.0539 -5.32979 5.01775
49 2 2.2208 13.6509 0.0193613 2.32954
81 2 2.2208 -0.218411 5.72962 4.94735
83 2 2.2208 -0.342832 11.5934 5.38013
376 2 2.2208 8.27198 17.3484 13.5855
335 2 2.2208 13.6522 8.78608 5.25444
25 2 2.2208 -0.404082 -2.69963 2.53576
341 2 2.2208 13.6153 8.84713 10.7311
201 2 2.2208 -0.39317 0.318193 10.7408
82 2 2.2208 -0.390844 8.79592 2.38119
397 2 2.2208 -0.376262 5.90449 -0.411537
381 2 2.2208 5.14392 0.202473 -0.344386
372 2 2.2208 11.0835 20.0083 13.6391
388 2 2.2208 8.14278 -2.69118 -0.343416
406 2 2.2208 5.34729 0.23585 16.5771
407 1 -1.1104 1.38711 -3.77637 17.7434
411 1 -1.1104 1.01427 -3.85923 14.7803
419 1 -1.1104 0.981181 -1.07428 17.7139
421 2 2.2208 5.26482 -2.56445 19.0843
423 1 -1.1104 1.11044 -1.15932 14.8423
427 1 -1.1104 4.01982 -4.13138 17.8752
429 2 2.2208 2.55677 0.189425 18.989
430 1 -1.1104 3.77343 -4.03457 15.0487
434 2 2.2208 2.42289 -2.43068 16.2881
436 1 -1.1104 3.99266 -1.38533 17.5689
437 1 -1.1104 4.07101 -1.1886 14.8943
409 1 -1.1104 6.89236 -3.91033 17.7306
420 1 -1.1104 6.65984 -0.981828 17.8874
425 1 -1.1104 6.99564 -1.04823 14.9782
415 1 -1.1104 6.68853 -3.90429 15.0858
424 1 -1.1104 1.29869 -1.20873 20.5988
412 1 -1.1104 0.852047 -3.99276 20.5085
438 1 -1.1104 4.08427 -1.18804 20.5763
516 2 2.2208 -0.2211 11.5461 16.4673
449 2 2.2208 10.9717 0.356329 16.5362
450 1 -1.1104 12.478 -3.86127 17.8579
452 1 -1.1104 12.3509 -3.88883 15.1625
456 1 -1.1104 12.4218 -1.26455 17.868
457 2 2.2208 10.9661 -2.47561 19.1943
459 1 -1.1104 12.4836 -1.05696 15.193
461 1 -1.1104 9.71701 -3.77298 17.7148
463 2 2.2208 8.10249 0.375201 19.4966
464 1 -1.1104 9.54094 -3.9968 14.9052
468 2 2.2208 8.13088 -2.45278 16.4894
470 1 -1.1104 9.48944 -1.1426 17.7068
471 1 -1.1104 9.6056 -1.16328 15.0595
403 2 2.2208 2.44178 14.4577 27.7127
465 1 -1.1104 9.31203 -4.07302 20.5635
383 2 2.2208 2.40157 3.06511 27.6962
701 1 -1.1104 9.58913 15.7812 23.3811
635 1 -1.1104 12.5424 18.3552 26.2394
408 1 -1.1104 1.1469 1.65705 17.8561
413 1 -1.1104 1.14901 1.61741 14.8686
422 2 2.2208 5.2389 3.14913 19.3452
428 1 -1.1104 3.66641 1.69185 17.9183
432 1 -1.1104 3.89544 1.50607 14.934
435 2 2.2208 2.53693 3.21309 16.333
482 2 2.2208 5.52674 5.95762 16.3342
484 1 -1.1104 1.15863 7.30794 17.7561
486 1 -1.1104 1.36041 7.39329 14.7377
490 1 -1.1104 0.979353 4.64629 17.7872
495 1 -1.1104 0.944291 4.37864 15.1363
503 1 -1.1104 3.93093 7.26154 17.7599
504 2 2.2208 2.48379 5.87406 19.1242
506 1 -1.1104 4.05247 6.93707 14.8384
509 1 -1.1104 3.92631 4.48547 17.5373
511 1 -1.1104 3.69611 4.22953 14.6749
488 1 -1.1104 6.78043 7.23028 14.8628
410 1 -1.1104 6.53121 1.77786 17.9236
492 1 -1.1104 6.53625 4.49432 17.988
499 1 -1.1104 6.42914 4.37668 15.2232
485 1 -1.1104 6.84745 7.38829 17.6876
507 1 -1.1104 3.90758 7.2549 20.6032
417 1 -1.1104 6.80402 1.50732 14.9191
487 1 -1.1104 0.893077 7.15018 20.751
489 1 -1.1104 6.75821 7.15392 20.6753
447 2 2.2208 -0.181855 17.1262 16.3635
451 1 -1.1104 12.5686 1.58853 17.8047
454 1 -1.1104 12.4551 1.84368 15.0935
458 2 2.2208 11.1371 2.92697 19.2547
462 1 -1.1104 9.45956 1.80546 17.7155
466 1 -1.1104 9.66316 1.48637 14.9549
469 2 2.2208 7.92519 3.03444 16.4366
518 2 2.2208 11.0206 5.80563 16.4745
523 1 -1.1104 12.3721 4.40669 17.9424
526 1 -1.1104 12.1499 4.58067 15.0081
530 1 -1.1104 9.77566 7.16253 17.8735
531 2 2.2208 8.26596 5.86101 19.2534
533 1 -1.1104 9.5973 7.4565 15.2167
536 1 -1.1104 9.2824 4.52842 17.6014
538 1 -1.1104 9.28546 4.34336 14.9367
521 1 -1.1104 12.3326 7.3844 14.7224
539 1 -1.1104 9.50383 4.50602 20.5385
534 1 -1.1104 9.3965 7.31233 20.5417
527 1 -1.1104 12.247 4.5173 20.7312
467 1 -1.1104 9.76445 1.63365 20.6341
522 1 -1.1104 12.0859 7.32325 20.6254
455 1 -1.1104 12.5428 1.77052 20.5375
520 1 -1.1104 12.497 7.20295 17.8454
382 2 2.2208 2.25416 -2.69901 27.7564
638 2 2.2208 10.8604 14.5218 24.8506
698 1 -1.1104 9.37613 18.5074 26.2685
483 2 2.2208 5.38733 11.5441 16.4558
491 1 -1.1104 1.05811 10.1476 17.772
494 2 2.2208 5.37154 8.49942 19.2354
497 1 -1.1104 0.890828 10.1847 14.9647
505 2 2.2208 2.45408 11.3596 19.2495
508 2 2.2208 2.62537 8.72187 16.486
510 1 -1.1104 4.00697 9.85768 17.9784
513 1 -1.1104 3.88949 9.95625 15.156
546 1 -1.1104 1.17817 12.9309 17.9677
550 1 -1.1104 1.11173 13.0428 14.8805
566 1 -1.1104 3.68003 12.8947 17.8534
569 1 -1.1104 3.93064 12.918 14.7405
493 1 -1.1104 6.70606 10.0592 17.9247
548 1 -1.1104 6.63687 13.0547 17.79
551 1 -1.1104 0.882763 12.8216 20.7263
498 1 -1.1104 1.14355 9.88252 20.6163
570 1 -1.1104 3.95205 12.637 20.5317
573 2 2.2208 2.51838 14.3778 16.3165
502 1 -1.1104 6.7381 10.0818 20.5917
501 1 -1.1104 6.51897 10.1796 14.9475
554 1 -1.1104 6.70928 13.1316 15.1524
519 2 2.2208 11.0478 11.547 16.2835
524 1 -1.1104 12.3617 9.93465 17.7638
525 2 2.2208 10.9198 8.76147 19.1956
528 1 -1.1104 12.1832 10.0629 14.8787
532 2 2.2208 8.0692 11.5698 19.1777
535 2 2.2208 8.18604 8.77149 16.4413
537 1 -1.1104 9.57623 10.2651 17.7134
540 1 -1.1104 9.33943 10.1972 15.0436
582 1 -1.1104 12.385 12.8177 17.7458
584 1 -1.1104 12.5473 12.9712 14.8722
593 1 -1.1104 9.62921 13.2226 17.6842
596 1 -1.1104 9.7189 12.7597 14.8021
448 2 2.2208 -0.416107 14.3532 19.1973
541 1 -1.1104 9.47626 10.0884 20.5197
597 1 -1.1104 9.34432 12.9578 20.6276
529 1 -1.1104 12.462 10.2019 20.6891
600 2 2.2208 8.16112 14.5263 16.5029
439 2 2.2208 -0.172566 -5.22691 16.2794
704 1 -1.1104 9.4776 15.8002 26.2406
560 2 2.2208 5.27167 14.2172 19.2529
545 2 2.2208 5.40837 17.1236 16.2556
547 1 -1.1104 1.21086 18.6402 17.9401
552 1 -1.1104 1.13749 18.5078 14.9339
558 1 -1.1104 0.857476 15.7825 17.8382
561 2 2.2208 5.12028 19.9569 19.3133
562 1 -1.1104 1.38867 15.8976 14.9759
567 1 -1.1104 3.79126 18.705 17.9361
568 2 2.2208 2.41579 17.1496 19.257
571 1 -1.1104 3.97457 18.4617 15.0841
574 2 2.2208 2.39089 19.972 16.439
575 1 -1.1104 3.85318 15.7752 17.7298
576 1 -1.1104 4.0625 15.6811 14.9169
559 1 -1.1104 6.87967 15.6158 17.8137
564 1 -1.1104 6.85031 15.8814 14.8517
557 1 -1.1104 6.62231 18.6305 20.7551
577 1 -1.1104 3.79924 15.582 20.7219
553 1 -1.1104 1.23135 18.496 20.8038
565 1 -1.1104 6.65858 15.5416 20.5418
572 1 -1.1104 4.04213 18.5399 20.8347
563 1 -1.1104 1.16296 15.6657 20.5867
667 2 2.2208 8.21874 17.386 24.737
475 2 2.2208 7.98969 -5.38194 19.34
556 1 -1.1104 6.74065 18.6249 15.0745
549 1 -1.1104 6.64564 18.4838 17.6708
587 1 -1.1104 12.4097 18.4303 20.8168
589 2 2.2208 10.6866 14.3356 19.2414
581 2 2.2208 11.122 17.2056 16.6591
583 1 -1.1104 12.6119 18.6035 17.8362
586 1 -1.1104 12.4134 18.6502 15.1142
588 1 -1.1104 12.4808 15.5897 17.9046
590 2 2.2208 10.9509 19.9436 19.3856
591 1 -1.1104 12.1586 15.782 14.8784
594 1 -1.1104 9.58065 18.3606 18.0706
595 2 2.2208 8.01356 17.4207 19.2873
598 1 -1.1104 9.55039 18.5068 15.0587
601 2 2.2208 8.06594 19.8738 16.4009
602 1 -1.1104 9.73393 15.8769 17.8082
603 1 -1.1104 9.69574 15.6012 15.0407
599 1 -1.1104 9.38678 18.8028 20.5938
592 1 -1.1104 12.3128 15.7267 20.6135
396 2 2.2208 -0.423861 11.4618 27.6895
416 1 -1.1104 6.38104 -3.93714 20.7968
431 1 -1.1104 3.71273 -4.24501 20.4833
426 1 -1.1104 6.72147 -1.16316 20.5032
609 2 2.2208 5.24076 0.364091 21.9776
610 1 -1.1104 1.08666 -3.9177 23.2328
614 1 -1.1104 0.990275 -3.93682 26.2299
618 1 -1.1104 1.49271 -1.27624 23.4163
620 2 2.2208 5.42918 -2.29044 24.9573
622 1 -1.1104 1.18139 -1.17551 26.237
624 1 -1.1104 3.85785 -3.9718 23.5733
626 2 2.2208 2.53049 0.281764 24.8555
627 1 -1.1104 3.89161 -3.86138 26.5428
629 2 2.2208 2.4766 -2.62844 21.8349
631 1 -1.1104 4.08538 -1.26998 23.408
632 1 -1.1104 3.92787 -1.15204 26.4034
623 1 -1.1104 6.84614 -1.08182 26.4419
619 1 -1.1104 6.70404 -1.00258 23.4741
616 1 -1.1104 6.80054 -3.84061 26.3488
443 2 2.2208 -0.290393 -2.5219 19.2584
728 2 2.2208 13.6534 5.93429 24.9455
460 1 -1.1104 12.1727 -1.06466 20.7077
472 1 -1.1104 9.34592 -1.26795 20.7601
453 1 -1.1104 12.1345 -4.22892 20.6441
700 2 2.2208 8.22594 20.1638 22.3316
395 2 2.2208 5.10005 11.5563 27.7003
612 1 -1.1104 6.63196 -3.78133 23.588
444 2 2.2208 -0.37725 5.89173 22.1466
387 2 2.2208 10.8422 0.139912 27.5513
643 2 2.2208 -0.100867 0.194434 21.806
645 2 2.2208 10.9336 0.396437 22.2496
646 1 -1.1104 12.1669 -4.05873 23.4814
648 1 -1.1104 12.3487 -3.99564 26.3411
650 1 -1.1104 12.5314 -1.03222 23.4742
651 2 2.2208 10.9008 -2.64134 24.8418
653 1 -1.1104 12.313 -1.22311 26.1805
654 1 -1.1104 9.50946 -3.96371 23.2662
656 2 2.2208 8.12962 0.210299 24.8941
657 1 -1.1104 9.61735 -4.03408 26.1813
659 2 2.2208 7.94905 -2.56041 22.147
661 1 -1.1104 9.5879 -1.24887 23.4253
662 1 -1.1104 9.55837 -1.37108 26.3344
640 2 2.2208 2.54426 -5.21838 24.8917
512 1 -1.1104 3.90764 4.72034 20.3981
496 1 -1.1104 1.26935 4.37157 20.6877
414 1 -1.1104 1.16764 1.81801 20.6202
669 2 2.2208 7.92238 -5.24534 24.8435
433 1 -1.1104 3.98823 1.92314 20.7312
418 1 -1.1104 6.94286 1.6962 20.7474
611 1 -1.1104 1.03678 1.54494 23.4215
615 1 -1.1104 0.987273 1.71535 26.0681
621 2 2.2208 5.29615 3.04036 24.7847
625 1 -1.1104 3.91404 1.62053 23.4966
628 1 -1.1104 3.6194 1.73683 26.2255
630 2 2.2208 2.43765 2.98488 22.1872
674 2 2.2208 5.35706 5.84723 21.9709
678 1 -1.1104 0.929546 7.3508 26.1726
680 1 -1.1104 0.956166 4.527 23.412
685 1 -1.1104 1.00165 4.53938 26.3749
689 1 -1.1104 4.04318 7.54804 23.3896
690 2 2.2208 2.43802 5.8255 24.9904
692 1 -1.1104 3.80727 7.35573 26.1478
694 1 -1.1104 3.76131 4.46164 23.3813
696 1 -1.1104 3.67217 4.50707 26.2589
676 1 -1.1104 1.18611 7.24166 23.6273
682 1 -1.1104 6.60664 4.51399 23.5388
687 1 -1.1104 6.41481 4.19066 26.3234
613 1 -1.1104 6.71443 1.61428 23.7866
617 1 -1.1104 6.58325 1.65056 26.3956
679 1 -1.1104 6.55588 7.47973 26.3488
500 1 -1.1104 6.73276 4.50938 20.7831
723 2 2.2208 -0.426413 17.1303 21.8999
389 2 2.2208 7.95514 2.89524 27.6872
647 1 -1.1104 12.4182 1.73639 23.5444
649 1 -1.1104 12.3631 1.71145 26.3366
652 2 2.2208 10.8672 3.30473 24.9094
655 1 -1.1104 9.4552 1.68638 23.4511
658 1 -1.1104 9.60829 1.58546 26.2391
660 2 2.2208 8.07665 3.18564 22.1448
706 1 -1.1104 9.1888 4.40404 26.176
708 1 -1.1104 9.65785 4.52516 23.4089
712 2 2.2208 7.83725 5.95023 24.9549
713 2 2.2208 10.8465 5.99304 21.9844
717 1 -1.1104 12.5926 4.46246 23.4546
720 1 -1.1104 12.1537 4.70607 26.2764
710 1 -1.1104 9.3872 7.26285 26.2587
715 1 -1.1104 12.2454 7.40597 23.4568
722 1 -1.1104 9.38821 7.20037 23.4822
716 1 -1.1104 12.2459 7.40316 26.4305
398 2 2.2208 10.8363 6.00095 27.5817
514 1 -1.1104 3.76373 10.1357 20.6924
555 1 -1.1104 6.74374 12.9169 20.593
677 1 -1.1104 6.7308 7.31522 23.4372
746 1 -1.1104 3.85397 12.8985 26.2802
675 2 2.2208 5.18502 11.3923 22.0485
681 1 -1.1104 1.19033 10.1308 23.5419
684 2 2.2208 5.29188 8.92697 24.973
686 1 -1.1104 0.906002 10.1798 26.1102
691 2 2.2208 2.25108 11.5909 24.8773
693 2 2.2208 2.69006 8.57416 22.0344
695 1 -1.1104 3.81394 10.0254 23.6927
697 1 -1.1104 3.67193 10.2117 26.2877
731 1 -1.1104 3.78792 12.8998 23.3185
735 1 -1.1104 0.902219 12.9271 26.4346
741 1 -1.1104 1.04866 13.2327 23.7016
688 1 -1.1104 6.64694 10.3783 26.3457
730 1 -1.1104 6.5078 12.9966 26.2517
683 1 -1.1104 6.8008 10.1823 23.4468
702 2 2.2208 -0.213229 8.77573 24.7029
585 1 -1.1104 12.2473 13.0905 20.4892
374 2 2.2208 13.6526 14.4421 27.5222
739 1 -1.1104 6.6177 12.858 23.4344
673 1 -1.1104 9.35562 12.931 26.3594
664 1 -1.1104 9.60236 12.9039 23.4132
634 1 -1.1104 12.2375 13.1439 26.1612
705 1 -1.1104 9.44506 10.1499 26.2595
707 1 -1.1104 9.60215 10.0312 23.5354
709 2 2.2208 8.15312 8.65956 22.1941
711 2 2.2208 8.14698 11.4929 24.8616
714 2 2.2208 11.1277 11.5947 21.952
718 1 -1.1104 12.2583 10.187 23.3248
719 2 2.2208 11.0429 8.67381 24.9329
721 1 -1.1104 12.3524 10.2816 26.2896
608 1 -1.1104 12.2392 13.2114 23.2809
544 2 2.2208 -0.306463 3.02251 19.3446
400 2 2.2208 10.7855 11.4809 27.7753
543 2 2.2208 13.5625 8.60738 16.1849
633 1 -1.1104 12.5418 18.7869 23.4698
405 2 2.2208 2.53084 19.6769 27.7313
641 2 2.2208 10.9894 20.1491 24.9326
738 2 2.2208 5.30983 14.3385 24.906
727 2 2.2208 2.3812 14.4395 22.1714
748 1 -1.1104 0.85162 15.9714 23.425
745 1 -1.1104 3.77593 15.673 26.2165
744 2 2.2208 2.39692 17.0298 24.9606
743 1 -1.1104 3.83721 18.5104 26.5259
750 2 2.2208 2.60147 19.8589 22.1497
749 1 -1.1104 3.90686 15.6516 23.4463
729 1 -1.1104 3.91335 18.1799 23.6734
733 1 -1.1104 0.875632 18.494 26.4084
734 1 -1.1104 0.702991 15.799 26.1408
737 2 2.2208 5.24794 19.9095 24.907
740 1 -1.1104 1.26304 18.6674 23.6365
742 2 2.2208 5.41403 16.8857 22.2663
747 1 -1.1104 6.833 15.5447 23.3723
736 1 -1.1104 6.75453 18.4126 23.5451
670 1 -1.1104 6.66663 18.7654 26.3534
358 2 2.2208 -0.267749 8.58927 13.8068
481 2 2.2208 -0.398949 5.76543 16.4517
604 1 -1.1104 9.46888 15.7175 20.6912
369 2 2.2208 5.37841 20.0844 13.8238
639 2 2.2208 5.12528 -5.28512 22.1254
663 1 -1.1104 12.3988 15.8257 25.9351
607 2 2.2208 10.842 16.9092 21.8739
732 1 -1.1104 6.58953 15.8454 26.2051
636 1 -1.1104 12.4775 16.0674 23.1994
665 1 -1.1104 9.56952 18.7704 23.5852
699 2 2.2208 8.04574 14.3567 22.1149
474 2 2.2208 10.7438 -5.18109 16.4421
440 2 2.2208 5.22476 -5.21898 16.3332
393 2 2.2208 5.16644 5.83007 27.7186
476 2 2.2208 -0.335811 20.1332 19.1965
394 2 2.2208 2.34689 8.77643 27.5889
642 2 2.2208 -0.263816 -2.64369 24.6545
515 2 2.2208 -0.38188 8.77835 19.2437
378 2 2.2208 10.9539 17.1619 27.487
703 2 2.2208 -0.43031 11.4713 22.1156
355 2 2.2208 8.09883 0.285127 13.707
365 2 2.2208 8.06433 11.6586 13.784
377 2 2.2208 7.96021 14.5536 27.6599
724 2 2.2208 -0.350366 19.7906 24.9662
385 2 2.2208 5.33796 -5.1948 27.6478
356 2 2.2208 10.8363 -2.42507 13.6904
751 2 2.2208 5.31148 22.769 5.24918
753 1 -1.1104 0.847949 23.9916 0.948561
754 1 -1.1104 1.04357 24.2212 3.76261
755 1 -1.1104 1.18536 21.2213 0.820215
757 2 2.2208 5.31675 25.5961 2.72203
758 1 -1.1104 1.10526 21.4015 3.66225
760 1 -1.1104 3.67342 24.2201 1.12432
761 2 2.2208 2.32231 22.703 2.26356
763 1 -1.1104 3.87045 23.9915 4.03382
764 2 2.2208 2.44892 25.5736 5.23973
765 1 -1.1104 3.93113 21.6028 0.851809
767 1 -1.1104 3.76048 21.1491 3.63378
766 1 -1.1104 3.82478 27.0044 1.13523
772 1 -1.1104 6.49204 24.4724 1.10036
898 1 -1.1104 3.98048 24.289 6.55929
768 1 -1.1104 3.85546 26.9213 3.95484
759 1 -1.1104 1.00621 26.9126 3.85067
775 1 -1.1104 7.04354 27.1911 0.950275
756 1 -1.1104 1.13015 26.773 1.28028
900 1 -1.1104 4.00863 27.2483 6.78293
892 1 -1.1104 1.03664 24.436 6.60386
893 1 -1.1104 6.87372 24.4401 6.76899
899 1 -1.1104 3.8422 21.2323 6.4616
894 1 -1.1104 1.17441 21.6459 6.56944
895 1 -1.1104 1.08985 27.1004 6.93339
774 1 -1.1104 6.60749 21.6377 1.16431
776 1 -1.1104 6.7182 21.3929 3.78956
773 1 -1.1104 6.67755 24.1769 4.06838
897 1 -1.1104 6.81153 27.1393 6.5008
777 1 -1.1104 6.90781 27.0659 3.65751
896 1 -1.1104 6.69002 21.3231 6.66272
778 2 2.2208 11.1202 22.9051 5.17217
780 1 -1.1104 12.1808 24.0189 1.2091
781 1 -1.1104 12.4302 24.0771 3.78676
782 1 -1.1104 12.4317 21.1552 1.04569
784 2 2.2208 10.9686 25.5754 2.44782
785 1 -1.1104 12.263 21.4009 3.89703
787 1 -1.1104 9.51 24.0227 1.15671
788 2 2.2208 8.01361 22.8413 2.48983
790 1 -1.1104 9.71148 24.557 4.00209
791 2 2.2208 8.32233 25.7469 5.27282
792 1 -1.1104 9.5626 21.2898 0.980781
794 1 -1.1104 9.44822 21.4801 3.90245
793 1 -1.1104 9.80414 27.0348 1.19149
795 1 -1.1104 9.55116 27.1731 3.90902
783 1 -1.1104 12.4034 26.9979 0.957611
926 1 -1.1104 12.3484 21.3171 6.50229
928 1 -1.1104 9.72431 24.1124 6.73664
929 1 -1.1104 9.51293 21.3276 6.60664
786 1 -1.1104 12.4145 26.9344 3.82344
930 1 -1.1104 9.64114 26.9916 6.81528
752 2 2.2208 5.3528 28.4726 5.49372
762 2 2.2208 2.56765 28.3757 2.57855
800 1 -1.1104 1.10576 29.8371 1.126
803 1 -1.1104 1.11877 29.892 3.81436
806 1 -1.1104 1.20837 32.7696 1.13998
807 2 2.2208 5.12331 31.1897 2.54453
809 1 -1.1104 1.11773 32.4798 3.93425
811 1 -1.1104 3.86708 29.9165 1.02311
814 1 -1.1104 3.91038 29.5604 4.01291
816 2 2.2208 2.56534 31.2424 5.27487
818 1 -1.1104 3.78872 32.6521 1.16489
819 1 -1.1104 3.98427 32.5084 4.17272
957 1 -1.1104 3.92523 32.6082 7.03893
953 1 -1.1104 1.13793 32.6011 6.51043
949 1 -1.1104 0.908924 29.7434 6.7418
955 1 -1.1104 3.72948 29.9614 6.78436
951 1 -1.1104 6.67322 29.9402 6.73487
954 1 -1.1104 6.84055 32.6802 6.88775
825 1 -1.1104 6.38031 32.5849 1.10904
824 1 -1.1104 6.80363 29.7841 3.92454
823 1 -1.1104 6.69593 29.9263 0.896918
810 1 -1.1104 6.88283 32.6693 3.89111
779 2 2.2208 11.002 28.3115 5.42216
789 2 2.2208 8.2589 28.6228 2.56265
827 1 -1.1104 12.5624 30.0021 1.29017
829 1 -1.1104 12.5253 29.8848 3.91154
831 1 -1.1104 12.0483 32.6955 0.97713
832 2 2.2208 11.0357 31.3432 2.4857
834 1 -1.1104 12.3424 32.5958 3.9342
835 1 -1.1104 9.77003 29.9475 1.0362
838 1 -1.1104 9.76207 29.8359 3.91424
840 2 2.2208 8.22812 31.2557 5.12327
842 1 -1.1104 9.14174 32.6673 0.842046
843 1 -1.1104 9.52765 32.6537 3.65971
985 1 -1.1104 12.4629 32.4065 6.91831
986 1 -1.1104 9.58257 29.7753 6.71817
983 1 -1.1104 12.5324 29.6469 6.77558
799 2 2.2208 5.34169 34.1317 5.38951
801 1 -1.1104 0.936967 35.3671 1.42865
804 1 -1.1104 1.24908 35.4378 4.21197
808 2 2.2208 5.43386 37.1061 2.61933
812 1 -1.1104 3.74888 35.3203 1.03031
813 2 2.2208 2.56068 34.154 2.49719
815 1 -1.1104 3.9236 35.4494 3.7922
817 2 2.2208 2.7552 36.8417 5.3932
845 2 2.2208 5.22113 39.8915 5.32894