ITEM: TIMESTEP
90000
ITEM: NUMBER OF ATOMS
17730
ITEM: BOX BOUNDS pp pp pp
-4.4703100574630644e-01 2.7787031005745163e+01
-5.0999818771247947e+00 3.3317998187712766e+02
-4.3847364174580195e-01 2.7778473641745290e+01
ITEM: ATOMS id type q x y z
1 2 2.2208 5.18769 0.674205 5.05149
2 1 -1.1104 0.876194 -3.6213 1.13315
6 1 -1.1104 1.29808 -3.66156 3.88958
10 1 -1.1104 0.839641 -0.669202 0.660537
12 2 2.2208 5.30954 -2.30569 2.47175
14 1 -1.1104 0.953877 -0.867876 3.63142
16 1 -1.1104 4.0947 -3.60335 0.849268
18 2 2.2208 2.31043 0.505222 2.26714
19 1 -1.1104 3.87943 -3.69706 3.70618
21 2 2.2208 2.52847 -2.22049 5.08516
23 1 -1.1104 3.66839 -0.947878 0.949548
24 1 -1.1104 3.82756 -0.620822 3.61014
4 1 -1.1104 6.94462 -3.45363 1.00058
333 2 2.2208 13.4803 14.7061 10.5865
166 1 -1.1104 0.853061 -3.62417 6.96363
332 2 2.2208 13.6208 17.5912 7.94844
231 2 2.2208 8.21736 -5.07827 7.98656
368 2 2.2208 2.42052 17.4061 13.5493
342 2 2.2208 -0.52917 11.7356 10.7546
8 1 -1.1104 6.64069 -3.64667 3.8073
11 1 -1.1104 6.37075 -0.557501 1.05223
15 1 -1.1104 6.83268 -0.860565 4.09357
31 2 2.2208 10.8487 0.525506 5.07398
32 1 -1.1104 12.2122 -3.46903 1.09664
34 1 -1.1104 12.2609 -3.59219 3.83913
36 1 -1.1104 11.9738 -0.550779 1.08717
37 2 2.2208 10.9088 -2.21293 2.39301
39 1 -1.1104 12.3273 -0.836698 3.83889
40 1 -1.1104 9.63326 -3.66815 1.14385
42 2 2.2208 8.18246 0.585372 2.43887
43 1 -1.1104 9.34536 -3.46694 4.03145
45 2 2.2208 7.98059 -2.32795 5.44704
47 1 -1.1104 9.2066 -0.818748 0.902166
48 1 -1.1104 9.55358 -0.735874 3.60526
205 1 -1.1104 12.1268 -3.54082 6.69578
208 1 -1.1104 9.49859 -3.56294 6.65304
380 2 2.2208 13.5857 17.6132 13.5338
316 2 2.2208 8.00479 20.4195 10.7292
202 2 2.2208 2.31374 -5.03869 8.06036
400 2 2.2208 10.7001 11.9899 -0.317356
3 1 -1.1104 0.790114 1.99341 1.22453
7 1 -1.1104 1.04442 1.92689 3.83831
13 2 2.2208 5.19514 3.36165 2.37987
17 1 -1.1104 3.73388 1.83907 0.905107
20 1 -1.1104 3.86059 2.14386 3.81125
22 2 2.2208 2.14728 3.54055 5.19587
54 2 2.2208 5.11006 6.30805 5.00968
56 1 -1.1104 0.784672 7.70386 1.00441
60 1 -1.1104 0.736528 4.7724 0.848482
67 1 -1.1104 0.945526 5.09564 3.42785
72 2 2.2208 2.34232 6.54392 2.33098
76 1 -1.1104 3.62689 4.92969 0.907436
79 1 -1.1104 3.77575 4.96532 3.57794
58 1 -1.1104 0.748258 7.82572 3.79083
71 1 -1.1104 3.62362 7.65139 0.808873
74 1 -1.1104 3.7413 7.97798 3.77006
323 1 -1.1104 12.166 16.2872 9.17704
376 2 2.2208 7.88589 17.5052 13.6524
5 1 -1.1104 6.63631 1.99761 0.745917
69 1 -1.1104 6.69154 4.73937 3.756
9 1 -1.1104 6.76809 1.99973 3.66369
57 1 -1.1104 6.54362 7.64335 0.998803
381 2 2.2208 5.11546 0.641284 -0.464725
325 2 2.2208 10.7229 14.8671 8.06604
234 1 -1.1104 0.93796 7.5578 6.80902
236 1 -1.1104 0.80719 4.86411 6.52138
230 2 2.2208 13.5193 -2.28387 11.0378
63 1 -1.1104 6.50535 4.84035 0.809689
59 1 -1.1104 6.53784 7.44381 3.6763
33 1 -1.1104 12.1397 2.16525 1.02953
35 1 -1.1104 12.2262 2.04383 3.88461
38 2 2.2208 10.8876 3.38365 2.36929
41 1 -1.1104 9.50102 1.87697 1.07807
44 1 -1.1104 9.54855 2.03718 3.96071
46 2 2.2208 7.94711 3.47953 5.16317
84 2 2.2208 10.7159 6.28581 5.22753
88 1 -1.1104 11.9481 4.88593 0.891307
92 1 -1.1104 12.2262 4.89693 3.78671
95 2 2.2208 8.05104 6.06008 2.14159
97 1 -1.1104 9.15061 7.72219 3.60509
99 1 -1.1104 9.39498 4.60312 0.904249
102 1 -1.1104 9.53824 5.11785 3.57379
86 1 -1.1104 12.3768 7.71084 0.962413
94 1 -1.1104 9.41476 7.53854 0.832399
169 1 -1.1104 6.32125 1.92238 6.45172
237 1 -1.1104 6.51228 5.08026 6.66909
55 2 2.2208 5.1496 11.7182 5.03162
61 1 -1.1104 0.859895 10.4829 0.871184
66 2 2.2208 5.13018 9.01163 2.13691
68 1 -1.1104 0.651537 10.4993 3.68952
73 2 2.2208 2.34601 11.8554 2.33039
75 2 2.2208 2.2637 9.32796 5.1783
77 1 -1.1104 3.8016 10.5116 0.767187
80 1 -1.1104 3.69552 10.3705 3.61476
107 1 -1.1104 0.79269 13.3411 0.89779
113 1 -1.1104 1.0562 13.3495 3.6276
123 1 -1.1104 3.58913 13.3964 0.685707
128 1 -1.1104 4.03529 13.0928 3.42818
70 1 -1.1104 6.5852 10.2919 3.67858
52 2 2.2208 10.8597 -4.89106 5.29925
337 2 2.2208 13.3537 14.9007 5.0376
62 1 -1.1104 0.988255 10.5741 6.76235
108 1 -1.1104 0.961547 13.3375 6.59421
78 1 -1.1104 3.60917 10.4697 6.48273
65 1 -1.1104 6.5048 10.4981 6.48465
29 2 2.2208 5.3013 -4.93248 5.21493
87 1 -1.1104 12.0216 7.61486 3.70895
64 1 -1.1104 6.58782 10.374 0.683685
115 1 -1.1104 6.66352 13.1146 3.71749
110 1 -1.1104 6.28201 13.449 0.734869
85 2 2.2208 10.8658 11.7615 5.12859
89 1 -1.1104 12.1316 10.6318 0.951302
91 2 2.2208 10.7537 9.03319 2.32477
93 1 -1.1104 12.1559 10.1936 3.77133
96 2 2.2208 8.00233 11.9192 2.35259
98 2 2.2208 7.83292 8.85362 5.11374
100 1 -1.1104 9.36732 10.6393 1.20337
103 1 -1.1104 9.37383 10.3834 3.81983
142 1 -1.1104 12.0827 13.4247 1.1669
146 1 -1.1104 11.9836 13.113 3.75522
153 1 -1.1104 9.24003 13.2994 0.989719
158 1 -1.1104 9.31447 13.489 3.62363
90 1 -1.1104 12.2924 10.6099 6.75396
143 1 -1.1104 11.9595 13.3463 6.46513
154 1 -1.1104 9.19431 13.4913 6.48142
101 1 -1.1104 9.46674 10.529 6.52589
130 2 2.2208 2.51925 14.6217 5.08194
119 2 2.2208 4.9421 14.8205 2.06456
106 2 2.2208 5.09706 17.6396 5.0036
109 1 -1.1104 0.86281 18.8879 0.780312
114 1 -1.1104 0.892336 18.7555 3.60035
116 1 -1.1104 0.948773 16.1083 0.810935
120 2 2.2208 5.1307 20.446 2.29441
121 1 -1.1104 0.747239 16.0996 3.87654
125 1 -1.1104 3.72624 18.8082 0.723099
127 2 2.2208 2.27401 17.5237 2.16327
129 1 -1.1104 3.70492 18.9353 3.54944
131 2 2.2208 2.4312 20.3702 5.20141
132 1 -1.1104 3.7075 16.2139 0.68801
134 1 -1.1104 3.55329 16.038 3.48755
372 2 2.2208 10.6154 20.2633 13.4903
365 2 2.2208 8.00456 11.7937 13.6033
117 1 -1.1104 0.807476 16.1607 6.75768
302 1 -1.1104 1.207 18.8031 6.51827
126 1 -1.1104 3.93871 18.9788 6.51544
355 2 2.2208 7.87972 0.637356 13.4282
351 2 2.2208 -0.386739 14.7445 13.493
336 2 2.2208 13.5412 20.571 5.19211
156 1 -1.1104 9.34616 19.0786 6.51649
26 2 2.2208 -0.483362 0.656144 5.07048
145 1 -1.1104 12.0244 18.9113 6.65429
122 1 -1.1104 6.36924 16.0844 3.57001
138 1 -1.1104 6.51874 19.1224 0.797748
140 1 -1.1104 6.29059 16.2364 0.507428
139 1 -1.1104 6.60124 18.9681 3.62439
160 2 2.2208 8.08327 14.7056 5.19878
150 2 2.2208 10.5424 14.797 2.28654
141 2 2.2208 10.7441 17.6239 5.09048
144 1 -1.1104 12.259 18.8828 0.800041
147 1 -1.1104 12.0492 18.962 3.82122
148 1 -1.1104 12.0157 16.0581 0.918347
151 2 2.2208 10.8586 20.4775 2.41924
152 1 -1.1104 12.0145 16.1851 3.67619
155 1 -1.1104 9.36358 19.0792 0.998157
157 2 2.2208 7.7981 17.6138 2.22457
159 1 -1.1104 9.32247 19.0966 3.55885
161 2 2.2208 7.9064 20.4502 4.98852
162 1 -1.1104 9.16765 16.1929 0.73777
164 1 -1.1104 8.91373 16.2461 3.67351
118 1 -1.1104 6.47337 15.977 6.37511
149 1 -1.1104 12.0609 16.3102 6.45734
112 1 -1.1104 6.5692 18.8387 6.24356
361 2 2.2208 2.35995 12.0787 13.4108
171 1 -1.1104 6.6109 -0.972891 6.71341
51 2 2.2208 8.11619 -4.93527 2.37636
229 2 2.2208 13.712 0.617169 8.15576
331 2 2.2208 10.8028 17.6421 10.7614
172 1 -1.1104 3.81321 -3.5707 6.35831
174 1 -1.1104 3.53165 -0.770964 6.52237
170 1 -1.1104 0.545043 -0.483956 6.74456
175 2 2.2208 5.02966 0.654694 10.7253
176 1 -1.1104 1.03838 -3.94316 12.3644
180 1 -1.1104 1.14116 -3.77082 9.60374
184 1 -1.1104 0.921727 -0.954468 12.2621
186 2 2.2208 4.96716 -1.97526 8.02093
188 1 -1.1104 0.92023 -0.774382 9.49213
190 1 -1.1104 3.74986 -3.73081 12.2101
192 2 2.2208 2.2505 0.691959 8.00555
193 1 -1.1104 3.78225 -3.58098 9.32259
195 2 2.2208 2.60458 -2.36046 10.991
197 1 -1.1104 3.8526 -0.839201 12.3405
198 1 -1.1104 3.796 -0.639085 9.37811
185 1 -1.1104 6.37317 -1.04745 12.0706
178 1 -1.1104 6.74011 -3.71966 12.3816
105 2 2.2208 13.4292 6.28234 2.38264
339 2 2.2208 13.6238 6.13041 7.98296
327 1 -1.1104 12.3236 19.0463 9.42984
321 1 -1.1104 9.2893 18.9196 12.252
311 2 2.2208 -0.506841 20.3452 7.9753
168 1 -1.1104 6.79747 -3.65732 6.95042
210 1 -1.1104 9.44415 -0.679399 6.567
207 1 -1.1104 12.065 -0.721261 6.66994
182 1 -1.1104 6.70963 -3.74485 9.5085
189 1 -1.1104 6.43247 -0.696783 9.41748
211 2 2.2208 10.6369 0.530243 10.8347
212 1 -1.1104 12.1954 -3.85789 12.2997
214 1 -1.1104 12.1732 -3.49794 9.49973
216 1 -1.1104 11.9918 -0.845509 12.2742
217 2 2.2208 10.8285 -2.1097 7.9772
219 1 -1.1104 12.0121 -0.827581 9.53491
220 1 -1.1104 9.43661 -3.56759 12.3002
222 2 2.2208 7.88126 0.498453 8.11411
223 1 -1.1104 9.41507 -3.67247 9.50448
225 2 2.2208 7.93866 -2.48819 10.9714
227 1 -1.1104 9.2252 -0.871956 12.2012
228 1 -1.1104 8.96719 -0.99321 9.38245
334 2 2.2208 13.7315 3.3088 5.19145
326 1 -1.1104 12.3175 16.1187 11.9708
167 1 -1.1104 0.965497 2.17408 6.65437
239 1 -1.1104 3.48652 4.88277 6.51758
173 1 -1.1104 3.49426 1.83599 6.52759
238 1 -1.1104 3.54555 7.7898 6.47313
177 1 -1.1104 1.06936 2.11815 12.2173
181 1 -1.1104 0.759339 1.96695 9.33929
187 2 2.2208 5.19075 3.38522 7.73988
191 1 -1.1104 3.60939 1.73878 12.182
194 1 -1.1104 3.68607 2.20569 9.27466
196 2 2.2208 2.18699 3.50857 10.7484
240 2 2.2208 5.28253 6.10319 10.96
244 1 -1.1104 0.72384 7.88244 9.4372
246 1 -1.1104 0.928487 4.94066 12.0072
251 1 -1.1104 0.726437 4.87939 9.31541
255 1 -1.1104 3.75336 7.55636 12.094
256 2 2.2208 2.37915 6.41779 8.1176
260 1 -1.1104 3.66461 4.65468 11.9704
262 1 -1.1104 3.72066 4.9647 9.43076
258 1 -1.1104 3.76422 7.68848 9.42717
242 1 -1.1104 0.887499 7.4736 12.3338
183 1 -1.1104 6.72169 2.18339 9.33282
253 1 -1.1104 6.44277 4.99089 9.23447
315 1 -1.1104 9.51629 16.0823 12.1591
209 1 -1.1104 9.20914 2.1779 6.75192
349 2 2.2208 2.29881 0.478267 13.6426
235 1 -1.1104 6.46137 7.53777 6.498
269 1 -1.1104 9.36901 4.78365 6.56503
266 1 -1.1104 12.1487 4.77025 6.84064
267 1 -1.1104 9.23644 7.71092 6.35119
265 1 -1.1104 12.2001 7.66517 6.67638
206 1 -1.1104 12.2284 2.0813 6.74321
179 1 -1.1104 6.40814 1.79918 12.1539
243 1 -1.1104 6.89065 7.4331 12.0915
245 1 -1.1104 6.831 7.96572 9.28301
248 1 -1.1104 6.66858 4.83478 12.1572
213 1 -1.1104 12.2448 1.81641 12.6975
215 1 -1.1104 12.1892 1.9156 9.69714
218 2 2.2208 10.5701 3.39308 8.02488
221 1 -1.1104 9.17071 2.1563 12.1691
224 1 -1.1104 9.33069 2.05811 9.48623
226 2 2.2208 8.06115 3.6149 10.8915
268 1 -1.1104 9.14319 5.01768 9.42023
271 1 -1.1104 9.51107 4.79872 12.3953
273 1 -1.1104 9.5717 7.7257 9.28311
275 2 2.2208 7.91984 6.36431 7.94035
276 2 2.2208 10.9326 6.36669 10.793
280 1 -1.1104 12.2629 4.86266 12.2018
283 1 -1.1104 12.2812 4.67053 9.4098
285 1 -1.1104 9.58746 7.55795 12.1926
279 1 -1.1104 12.4001 7.53742 9.42633
278 1 -1.1104 12.3973 7.52667 12.2632
359 2 2.2208 2.2203 6.22271 13.6058
387 2 2.2208 10.6254 0.64205 -0.508555
124 1 -1.1104 3.83429 13.2742 6.19313
287 1 -1.1104 3.80105 13.5797 12.2802
305 1 -1.1104 3.79218 13.2778 9.47716
299 1 -1.1104 0.734784 13.4256 11.9
241 2 2.2208 5.17858 11.76 10.9088
247 1 -1.1104 0.955023 10.3292 12.0676
250 2 2.2208 5.31273 9.02829 8.14844
252 1 -1.1104 1.03772 10.5949 9.51996
257 2 2.2208 2.37573 12.0127 7.95197
259 2 2.2208 2.4247 9.20884 10.6944
261 1 -1.1104 3.75616 10.6205 12.3784
263 1 -1.1104 3.84329 10.4905 9.4545
294 1 -1.1104 0.992757 13.1772 9.47974
371 2 2.2208 5.30959 14.762 13.6182
137 2 2.2208 -0.496913 17.5808 5.08379
314 1 -1.1104 9.25245 16.2063 9.24725
324 2 2.2208 10.9627 20.4674 7.95548
329 1 -1.1104 12.1304 19.0836 12.244
111 1 -1.1104 6.50343 13.3873 6.45065
290 1 -1.1104 6.48458 13.3704 9.45072
249 1 -1.1104 6.29704 10.0178 11.9287
254 1 -1.1104 6.79937 10.5615 9.25625
297 1 -1.1104 6.52318 13.1875 12.0261
330 1 -1.1104 12.2268 13.2504 12.1797
328 1 -1.1104 12.4073 13.2974 9.3642
322 1 -1.1104 9.29425 13.3224 12.2045
319 1 -1.1104 9.47947 13.3842 9.39786
264 1 -1.1104 9.4728 10.5628 9.30137
270 1 -1.1104 9.46849 10.4463 12.2326
272 2 2.2208 8.22361 8.96843 10.6438
274 2 2.2208 8.0104 11.8076 7.82269
277 2 2.2208 10.7906 11.8953 10.8531
281 1 -1.1104 12.2039 10.4101 12.2017
282 2 2.2208 10.9136 9.19873 8.01814
284 1 -1.1104 12.0983 10.534 9.40162
288 1 -1.1104 6.46027 19.2169 9.39808
306 1 -1.1104 6.61969 16.0906 11.9657
295 2 2.2208 5.27683 14.6111 7.87423
382 2 2.2208 2.48864 -2.30451 -0.407136
133 1 -1.1104 3.69938 16.1629 6.59282
310 2 2.2208 2.39399 14.7943 10.719
291 1 -1.1104 0.961989 18.639 9.29935
309 2 2.2208 2.29495 20.3273 10.7234
308 1 -1.1104 3.8271 16.1759 12.204
307 1 -1.1104 0.986488 16.2313 12.1394
286 1 -1.1104 3.62578 18.8679 12.1382
304 1 -1.1104 3.67618 16.1432 9.48519
303 2 2.2208 2.45592 17.4677 7.96272
301 1 -1.1104 3.74824 18.7999 9.45701
292 1 -1.1104 0.916405 15.8713 9.44384
300 2 2.2208 5.30789 17.4314 10.843
298 1 -1.1104 0.79523 19.1647 11.9905
293 2 2.2208 5.03509 20.521 7.94721
320 2 2.2208 7.93564 17.6815 7.94503
289 1 -1.1104 6.49451 16.0916 9.01255
317 2 2.2208 7.95102 14.6356 10.5569
200 2 2.2208 -0.279225 -2.11808 8.21125
165 2 2.2208 13.4158 17.511 2.18947
296 1 -1.1104 6.44902 18.9828 12.1171
318 1 -1.1104 9.56994 19.0922 9.34117
163 1 -1.1104 9.48758 16.2752 6.59116
373 2 2.2208 10.9181 14.6681 13.5768
340 2 2.2208 13.6265 11.9709 7.81944
104 2 2.2208 13.5131 12.0493 2.37623
28 2 2.2208 2.3392 -5.05603 2.3473
83 2 2.2208 -0.49886 11.9647 5.06455
335 2 2.2208 13.5651 9.18075 5.24582
402 2 2.2208 13.6477 9.04085 -0.242001
348 2 2.2208 5.2764 -2.28307 13.572
360 2 2.2208 5.12712 9.0588 13.5133
369 2 2.2208 4.98764 20.3113 13.5199
406 2 2.2208 5.14361 0.453227 16.4652
407 1 -1.1104 0.863507 -3.77119 18.2301
411 1 -1.1104 0.751723 -3.82688 15.417
419 1 -1.1104 0.936692 -1.01363 17.7479
421 2 2.2208 5.10722 -2.30633 19.3078
423 1 -1.1104 1.16725 -0.918922 15.0008
427 1 -1.1104 3.54996 -3.65831 18.1125
429 2 2.2208 2.43208 0.675002 19.5777
430 1 -1.1104 3.66291 -3.60284 15.0642
434 2 2.2208 2.46031 -2.25174 16.5835
436 1 -1.1104 3.7275 -0.866701 18.0347
437 1 -1.1104 3.76914 -0.729269 15.2801
440 2 2.2208 5.14957 -4.89652 16.6284
438 1 -1.1104 4.17356 -0.718373 20.7718
424 1 -1.1104 1.0986 -0.726762 20.7951
606 2 2.2208 13.5228 20.3298 22.0203
415 1 -1.1104 6.61451 -3.54867 15.0391
478 2 2.2208 13.3928 20.3966 16.2189
412 1 -1.1104 0.823424 -3.56223 20.8579
431 1 -1.1104 3.9115 -3.66771 20.7909
416 1 -1.1104 6.78548 -3.67438 20.8016
702 2 2.2208 -0.409236 8.94748 24.8736
473 2 2.2208 13.7253 -5.07876 19.3167
639 2 2.2208 5.40373 -4.83391 22.2391
425 1 -1.1104 6.49414 -0.797825 14.9938
420 1 -1.1104 6.50678 -0.756149 17.9657
409 1 -1.1104 6.52217 -3.59321 17.7815
449 2 2.2208 10.7279 0.609143 16.5028
450 1 -1.1104 12.2579 -3.58722 17.7533
452 1 -1.1104 12.3164 -3.72602 14.894
456 1 -1.1104 12.2162 -0.867852 17.8482
457 2 2.2208 10.8651 -2.40431 19.2702
459 1 -1.1104 12.1185 -0.778142 15.0804
461 1 -1.1104 9.3139 -3.54856 18.1595
463 2 2.2208 8.12971 0.492655 19.4404
464 1 -1.1104 9.53013 -3.75809 15.2982
468 2 2.2208 8.06245 -2.28264 16.5742
470 1 -1.1104 9.44989 -0.584259 17.8644
471 1 -1.1104 9.35217 -1.00234 15.1802
377 2 2.2208 7.75299 14.7137 27.5791
700 2 2.2208 7.94153 20.3495 22.1446
398 2 2.2208 10.7164 6.16897 27.7442
403 2 2.2208 2.27324 14.7389 27.4385
408 1 -1.1104 0.925049 1.80459 18.2113
413 1 -1.1104 0.770195 2.08009 15.2928
422 2 2.2208 5.08868 3.23994 19.2632
428 1 -1.1104 3.75471 2.01966 17.9026
432 1 -1.1104 3.46472 1.85552 15.1585
435 2 2.2208 2.31683 3.31744 16.6567
482 2 2.2208 5.17031 6.23888 16.5761
490 1 -1.1104 1.03875 4.78066 18.0886
495 1 -1.1104 0.92248 4.84804 14.9712
503 1 -1.1104 3.64548 7.62182 17.5322
504 2 2.2208 2.15291 6.38546 19.1958
509 1 -1.1104 3.78391 4.67318 17.8484
511 1 -1.1104 3.63192 4.70539 15.0603
484 1 -1.1104 0.817523 7.61791 17.7805
486 1 -1.1104 0.788762 7.60695 15.0484
506 1 -1.1104 3.6117 7.6395 14.7476
394 2 2.2208 2.23252 8.99479 27.5554
488 1 -1.1104 6.65074 7.86925 15.0099
496 1 -1.1104 1.0215 5.15607 20.926
638 2 2.2208 10.6709 14.7349 24.7803
672 2 2.2208 13.4852 0.498343 25.0045
410 1 -1.1104 6.46132 1.9179 17.9201
499 1 -1.1104 6.47077 4.68561 15.1013
485 1 -1.1104 6.73927 7.80295 17.7598
417 1 -1.1104 6.53562 1.99465 15.0279
492 1 -1.1104 6.49761 4.98761 17.7037
451 1 -1.1104 12.2329 2.03301 18.0188
454 1 -1.1104 12.2875 2.08888 15.2175
458 2 2.2208 10.8137 3.49492 19.1989
462 1 -1.1104 9.23197 2.06196 17.7116
466 1 -1.1104 9.54617 1.96169 14.894
469 2 2.2208 8.05502 3.54311 16.4297
518 2 2.2208 11.0075 6.03345 16.4926
523 1 -1.1104 12.1892 4.98317 17.938
526 1 -1.1104 12.3188 4.89105 15.1165
530 1 -1.1104 9.50741 7.5359 17.8143
531 2 2.2208 7.99075 6.25324 19.278
533 1 -1.1104 9.61221 7.59133 15.0212
536 1 -1.1104 9.49965 4.71732 17.9255
538 1 -1.1104 9.46209 4.90044 15.1162
520 1 -1.1104 12.4507 7.67673 17.9974
521 1 -1.1104 12.3706 7.54975 15.1521
396 2 2.2208 -0.54349 11.9334 27.7049
534 1 -1.1104 9.24859 7.54925 20.7807
539 1 -1.1104 9.28814 4.73008 20.6562
663 1 -1.1104 12.2488 16.0174 26.2021
699 2 2.2208 7.8727 14.4876 21.9854
483 2 2.2208 5.27775 11.8682 16.4733
491 1 -1.1104 0.945108 10.3665 17.8465
494 2 2.2208 5.16944 9.18155 19.1157
497 1 -1.1104 0.913046 10.7235 14.9152
505 2 2.2208 2.1546 11.934 19.1514
508 2 2.2208 2.30296 9.13047 16.2068
510 1 -1.1104 3.87364 10.4532 17.6461
513 1 -1.1104 3.7841 10.3352 15.0646
546 1 -1.1104 0.906642 13.3231 17.743
550 1 -1.1104 0.936189 13.3777 14.7745
566 1 -1.1104 3.79212 13.2407 17.6177
569 1 -1.1104 3.73191 13.3462 15.0025
580 2 2.2208 13.4121 14.638 22.1815
551 1 -1.1104 0.816912 13.2128 20.5914
554 1 -1.1104 6.64034 13.4496 15.1025
642 2 2.2208 -0.434282 -2.06705 24.9309
498 1 -1.1104 0.702655 10.459 20.6276
501 1 -1.1104 6.58695 10.7123 14.7779
548 1 -1.1104 6.60819 13.3313 17.8395
493 1 -1.1104 6.59751 10.465 17.5934
519 2 2.2208 10.893 11.7718 16.3195
524 1 -1.1104 12.214 10.618 17.6809
525 2 2.2208 10.8386 9.01678 19.2499
528 1 -1.1104 12.2882 10.5443 15.0446
532 2 2.2208 8.0737 11.955 19.1059
535 2 2.2208 8.03484 9.10568 16.3843
537 1 -1.1104 9.46643 10.4145 17.8049
540 1 -1.1104 9.32997 10.4012 15.0616
582 1 -1.1104 12.1448 13.4874 17.575
584 1 -1.1104 12.3597 13.3281 14.9416
593 1 -1.1104 9.32982 13.1794 17.7562
596 1 -1.1104 9.48468 13.1708 14.8869
445 2 2.2208 13.4251 9.23734 22.0623
585 1 -1.1104 11.8327 13.3295 20.7478
502 1 -1.1104 6.49578 10.3636 20.4564
555 1 -1.1104 6.31427 13.2525 20.4699
541 1 -1.1104 9.42806 10.3093 20.6622
363 2 2.2208 8.12131 6.28533 13.7902
374 2 2.2208 13.4427 14.6715 27.7202
573 2 2.2208 2.29521 14.6586 16.4045
560 2 2.2208 5.13846 14.7198 18.9671
545 2 2.2208 5.17663 17.5014 16.4047
547 1 -1.1104 0.780465 18.8454 17.7101
552 1 -1.1104 0.961646 18.9124 14.7431
558 1 -1.1104 0.997856 16.0606 17.8065
561 2 2.2208 5.21547 20.3976 19.1185
562 1 -1.1104 0.948399 16.0661 14.8483
567 1 -1.1104 3.65672 18.9363 17.8262
568 2 2.2208 2.23786 17.51 19.2486
571 1 -1.1104 3.65995 19.008 15.0265
574 2 2.2208 2.3621 20.3472 16.3766
575 1 -1.1104 3.84832 16.143 17.7755
576 1 -1.1104 3.66875 16.1628 14.8976
544 2 2.2208 -0.358395 3.40672 19.2778
643 2 2.2208 -0.354959 0.719909 22.2861
564 1 -1.1104 6.58136 16.1215 14.9835
577 1 -1.1104 3.85116 16.3193 20.4662
572 1 -1.1104 3.64463 19.0129 20.735
563 1 -1.1104 0.917431 16.2846 20.6508
565 1 -1.1104 6.69153 15.9249 20.4361
701 1 -1.1104 9.28164 16.1642 23.3655
587 1 -1.1104 11.9861 19.0259 20.646
549 1 -1.1104 6.44701 18.8624 17.833
556 1 -1.1104 6.48626 18.8893 14.9653
559 1 -1.1104 6.68067 16.2302 17.6245
589 2 2.2208 10.6753 14.7884 19.1581
600 2 2.2208 8.01521 14.6238 16.2946
581 2 2.2208 10.644 17.4608 16.3198
583 1 -1.1104 12.066 18.836 17.7155
586 1 -1.1104 12.1555 18.8494 14.9249
588 1 -1.1104 12.0869 16.2321 17.5042
590 2 2.2208 10.6584 20.2588 19.1045
591 1 -1.1104 12.2042 16.1467 14.6397
594 1 -1.1104 9.13534 18.9011 17.8419
595 2 2.2208 7.89892 17.5761 19.3092
598 1 -1.1104 9.23292 18.8839 15.0654
601 2 2.2208 7.86382 20.4328 16.4407
602 1 -1.1104 9.39779 16.1304 17.922
603 1 -1.1104 9.44712 15.9052 15.0054
640 2 2.2208 2.31119 -5.03999 24.9163
604 1 -1.1104 9.2272 15.9075 20.689
399 2 2.2208 7.98613 8.93983 27.7984
517 2 2.2208 13.6619 11.9318 19.2429
599 1 -1.1104 9.4126 18.6617 20.7583
609 2 2.2208 5.24882 0.680086 22.1819
610 1 -1.1104 0.811785 -3.66293 23.7638
614 1 -1.1104 0.949568 -3.65786 26.5948
618 1 -1.1104 1.09304 -0.909876 23.3634
620 2 2.2208 5.22872 -2.21695 25.1039
622 1 -1.1104 0.942922 -0.722059 26.2288
624 1 -1.1104 3.94643 -3.60712 23.6391
626 2 2.2208 2.47303 0.607014 24.9506
627 1 -1.1104 3.66503 -3.47586 26.3744
629 2 2.2208 2.6178 -2.1285 22.0301
631 1 -1.1104 3.80313 -0.771234 23.4344
632 1 -1.1104 3.86302 -0.78429 26.1819
426 1 -1.1104 6.76027 -0.943112 20.9218
619 1 -1.1104 6.53342 -0.88306 23.6291
623 1 -1.1104 6.76368 -0.877901 26.4492
667 2 2.2208 8.14442 17.4387 24.8648
356 2 2.2208 10.8035 -2.11665 13.6667
641 2 2.2208 10.9187 20.4915 24.7143
393 2 2.2208 5.15908 6.16927 27.6928
465 1 -1.1104 9.37112 -3.57535 20.7556
472 1 -1.1104 9.55305 -0.769192 20.7602
460 1 -1.1104 12.5354 -1.04424 20.7652
612 1 -1.1104 6.64504 -3.6198 23.7799
453 1 -1.1104 12.1891 -3.78234 20.5152
616 1 -1.1104 6.76656 -3.53316 26.5064
645 2 2.2208 10.9008 0.575249 22.082
646 1 -1.1104 12.1019 -3.44167 23.57
648 1 -1.1104 12.2217 -3.74225 26.4676
650 1 -1.1104 12.1686 -0.779951 23.6256
651 2 2.2208 10.793 -2.14788 24.9612
653 1 -1.1104 12.1899 -0.742967 26.5831
654 1 -1.1104 9.22764 -3.75263 23.63
656 2 2.2208 7.94989 0.597215 24.9477
657 1 -1.1104 9.45576 -3.7112 26.2898
659 2 2.2208 8.09557 -2.2426 22.2709
661 1 -1.1104 9.49826 -0.794543 23.6384
662 1 -1.1104 9.43605 -0.752873 26.3764
433 1 -1.1104 3.6194 2.05791 20.7508
379 2 2.2208 7.98105 20.4322 27.7548
414 1 -1.1104 1.00434 2.2091 20.8104
487 1 -1.1104 0.859638 7.85004 20.6042
512 1 -1.1104 3.76533 4.89385 20.5251
507 1 -1.1104 3.60159 7.65603 20.5012
611 1 -1.1104 0.977676 1.95049 23.6015
615 1 -1.1104 0.994404 1.95107 26.3795
621 2 2.2208 5.25621 3.38764 24.9391
625 1 -1.1104 3.86353 2.1739 23.4181
628 1 -1.1104 3.77887 2.10362 26.2785
630 2 2.2208 2.47629 3.64786 22.1037
674 2 2.2208 5.02861 6.10273 22.089
678 1 -1.1104 0.970723 7.53273 26.352
680 1 -1.1104 0.757325 4.81921 23.4128
685 1 -1.1104 0.64402 4.61925 26.3829
689 1 -1.1104 3.62368 7.55807 23.2963
690 2 2.2208 2.20772 6.18303 24.77
694 1 -1.1104 3.58999 4.8568 23.6434
696 1 -1.1104 3.80656 4.81253 26.2966
676 1 -1.1104 0.942575 7.54439 23.4533
692 1 -1.1104 3.73472 7.75229 26.1706
405 2 2.2208 2.37461 20.3098 27.6698
747 1 -1.1104 6.47295 15.8868 23.2521
522 1 -1.1104 12.1669 7.50245 20.6255
500 1 -1.1104 6.39501 4.66636 20.5402
489 1 -1.1104 6.47024 7.58108 20.512
527 1 -1.1104 12.162 4.59636 20.8708
455 1 -1.1104 12.3893 1.90263 20.6532
682 1 -1.1104 6.47944 4.54782 23.3183
418 1 -1.1104 6.57033 1.93707 20.7886
467 1 -1.1104 9.41887 2.03857 20.6305
617 1 -1.1104 6.5354 1.92102 26.35
613 1 -1.1104 6.55215 1.80805 23.5693
687 1 -1.1104 6.67786 4.77148 26.2878
677 1 -1.1104 6.40282 7.44491 23.5853
679 1 -1.1104 6.56559 7.69078 26.5039
647 1 -1.1104 12.2478 1.988 23.6474
649 1 -1.1104 12.1872 2.16049 26.4576
652 2 2.2208 10.775 3.52811 24.9988
655 1 -1.1104 9.44988 1.89498 23.2833
658 1 -1.1104 9.41101 2.11282 26.358
660 2 2.2208 8.03571 3.34807 21.897
706 1 -1.1104 9.18627 4.97409 26.0895
708 1 -1.1104 9.3287 4.69353 23.3366
712 2 2.2208 7.84653 6.24664 24.8476
713 2 2.2208 10.8723 6.20476 22.1044
717 1 -1.1104 12.3256 4.79763 23.6513
720 1 -1.1104 12.0663 4.7503 26.3847
710 1 -1.1104 9.29506 7.64148 26.2707
722 1 -1.1104 9.18183 7.37647 23.5158
716 1 -1.1104 12.2526 7.5721 26.5494
715 1 -1.1104 12.1423 7.59426 23.3443
475 2 2.2208 7.82721 -5.03893 19.3956
388 2 2.2208 8.00467 -2.2028 27.7734
514 1 -1.1104 3.71429 10.449 20.5197
570 1 -1.1104 3.51993 13.292 20.3344
746 1 -1.1104 3.71351 13.1778 25.7687
675 2 2.2208 4.99064 11.7115 21.9567
681 1 -1.1104 0.932162 10.5869 23.3046
684 2 2.2208 5.06774 9.02263 24.6728
686 1 -1.1104 0.794335 10.3319 26.3022
691 2 2.2208 2.20885 11.8468 24.8519
693 2 2.2208 2.27476 9.11055 21.8589
695 1 -1.1104 3.69914 10.1174 23.1954
697 1 -1.1104 3.49532 10.4797 26.0951
731 1 -1.1104 3.6764 12.9758 23.1521
735 1 -1.1104 0.862201 13.1928 26.2339
741 1 -1.1104 0.797247 13.4263 23.41
688 1 -1.1104 6.46621 10.4502 26.2837
683 1 -1.1104 6.57733 10.3828 23.4818
352 2 2.2208 5.0369 3.20642 13.8288
392 2 2.2208 13.5353 3.32079 27.8196
597 1 -1.1104 9.16169 13.0474 20.5809
529 1 -1.1104 12.1636 10.4602 20.6295
739 1 -1.1104 6.45224 13.0713 23.4782
730 1 -1.1104 6.45424 13.4162 26.2299
673 1 -1.1104 9.16093 13.3271 26.3241
664 1 -1.1104 9.28022 13.3349 23.469
634 1 -1.1104 12.1565 13.1176 26.4226
705 1 -1.1104 9.16654 10.496 26.3622
707 1 -1.1104 9.29288 10.405 23.418
709 2 2.2208 7.83029 8.915 22.0807
711 2 2.2208 7.89362 11.8937 24.9572
714 2 2.2208 10.6178 11.6843 22.1156
718 1 -1.1104 12.1476 10.4254 23.5726
719 2 2.2208 10.6785 9.17627 25.1225
721 1 -1.1104 12.0012 10.4051 26.3341
608 1 -1.1104 12.062 13.3058 23.634
665 1 -1.1104 9.3581 19.0979 23.5494
633 1 -1.1104 12.3129 18.9211 23.3162
553 1 -1.1104 0.92655 18.9473 20.5435
698 1 -1.1104 9.52782 18.8773 26.3831
727 2 2.2208 2.47192 14.6789 21.9824
378 2 2.2208 10.6466 17.5603 27.59
732 1 -1.1104 6.53013 16.1098 26.014
738 2 2.2208 5.15749 14.7931 24.9301
748 1 -1.1104 0.858205 16.2443 23.4808
745 1 -1.1104 3.61396 16.0481 26.2987
744 2 2.2208 2.27467 17.359 24.8402
743 1 -1.1104 3.87192 18.7623 26.1495
750 2 2.2208 2.16463 20.2764 22.0008
749 1 -1.1104 3.5473 15.8666 23.3589
729 1 -1.1104 3.69877 18.6362 23.4495
733 1 -1.1104 1.00265 18.7479 26.3666
734 1 -1.1104 0.837109 15.9785 26.0876
737 2 2.2208 5.18535 20.2522 24.7968
740 1 -1.1104 0.806542 19.1178 23.1872
742 2 2.2208 5.24765 17.4237 21.8714
390 2 2.2208 10.9711 -4.97402 27.7173
592 1 -1.1104 12.1388 16.1433 20.4959
670 1 -1.1104 6.56291 18.8191 26.158
636 1 -1.1104 12.117 16.0526 23.4892
635 1 -1.1104 12.2306 18.9086 26.2931
557 1 -1.1104 6.52027 18.926 20.6586
736 1 -1.1104 6.56311 18.7885 23.5371
607 2 2.2208 10.8523 17.5149 22.1114
704 1 -1.1104 9.36997 16.1281 26.231
479 2 2.2208 13.5612 17.4867 18.9252
384 2 2.2208 -0.491054 -5.04601 27.7984
726 2 2.2208 13.6631 11.6894 24.9699
364 2 2.2208 10.9915 9.00208 13.6677
404 2 2.2208 5.12821 17.6318 27.4539
395 2 2.2208 5.07945 11.8099 27.5916
543 2 2.2208 13.7357 9.01978 16.5196
366 2 2.2208 13.7657 6.28819 13.6573
353 2 2.2208 8.12535 -5.0494 13.721
605 2 2.2208 13.5875 17.6184 24.9891
542 2 2.2208 13.7388 6.19431 19.4569
389 2 2.2208 7.97454 3.31584 27.8187
357 2 2.2208 10.935 3.42965 13.7732
383 2 2.2208 2.24338 3.42933 27.6932
751 2 2.2208 5.06041 23.1753 5.24996
753 1 -1.1104 0.792072 24.4864 0.931516
754 1 -1.1104 0.90104 24.5555 3.9066
755 1 -1.1104 0.974354 21.6729 0.993996
757 2 2.2208 5.09021 25.8838 2.32986
758 1 -1.1104 0.840682 21.6277 3.80252
760 1 -1.1104 3.51693 24.6573 1.12412
761 2 2.2208 2.17809 23.0999 2.4733
763 1 -1.1104 3.88504 24.5833 3.73644
764 2 2.2208 2.22746 25.9418 5.20666
765 1 -1.1104 3.54458 21.6683 0.883634
767 1 -1.1104 3.78714 21.7585 3.6224
759 1 -1.1104 0.756275 27.4084 3.58141
768 1 -1.1104 3.39756 27.2679 3.74903
1077 2 2.2208 13.6522 37.1707 10.4943
766 1 -1.1104 3.41007 27.4323 0.965072
895 1 -1.1104 0.807753 27.2963 6.31433
773 1 -1.1104 6.56275 24.8273 3.78322
1476 1 -1.1104 0.98208 47.0565 3.67285
1085 2 2.2208 4.99471 25.883 13.6515
892 1 -1.1104 1.07842 24.4759 6.77561
894 1 -1.1104 1.05963 21.6997 6.69517
1094 2 2.2208 2.55534 34.4562 13.6391
774 1 -1.1104 6.44271 21.8823 1.14751
772 1 -1.1104 6.34755 24.3681 1.00615
776 1 -1.1104 6.62346 22.0744 3.92002
778 2 2.2208 10.9228 23.3671 5.01577
780 1 -1.1104 12.3801 24.5838 0.801784
781 1 -1.1104 12.3521 24.611 3.48108
782 1 -1.1104 12.4086 21.7075 0.887325
784 2 2.2208 10.7637 26.1404 2.27595
785 1 -1.1104 12.2499 21.9669 3.86479
787 1 -1.1104 9.37772 24.7806 0.822138
788 2 2.2208 7.90038 23.299 2.49202
790 1 -1.1104 9.27619 24.7379 3.67401
791 2 2.2208 7.77585 26.0093 5.13981
792 1 -1.1104 9.27991 21.9591 1.06959
794 1 -1.1104 9.51132 21.9356 3.98075
930 1 -1.1104 9.2595 27.4658 6.34941
928 1 -1.1104 9.34945 24.7198 6.64997
896 1 -1.1104 6.46351 21.8017 6.51074
929 1 -1.1104 9.3665 21.8858 6.59885
1089 2 2.2208 5.15757 31.3794 13.6125
756 1 -1.1104 0.724419 27.2081 0.842913
900 1 -1.1104 3.5189 27.4226 6.63779
752 2 2.2208 5.03484 28.7305 5.30719
762 2 2.2208 2.22729 28.8123 2.37194
800 1 -1.1104 0.840913 30.2551 0.989918
803 1 -1.1104 1.03753 30.2217 3.88216
806 1 -1.1104 0.712609 32.8845 0.942714
807 2 2.2208 5.13067 31.4698 2.51844
809 1 -1.1104 1.01688 33.0895 3.71785
811 1 -1.1104 3.65995 30.0673 0.92283
814 1 -1.1104 3.80314 30.0834 3.7351
816 2 2.2208 2.38267 31.6454 5.00778
818 1 -1.1104 3.8079 33.0314 1.15791
819 1 -1.1104 3.833 33.0139 3.83094
1102 2 2.2208 2.48039 40.06 13.6037
1103 2 2.2208 2.19078 45.7902 13.4572
824 1 -1.1104 6.56904 30.1511 3.78081
823 1 -1.1104 6.54854 29.885 0.982971
1080 2 2.2208 -0.439505 34.5208 10.6923
775 1 -1.1104 6.42751 27.1387 0.912135
777 1 -1.1104 6.21458 27.3932 3.59568
795 1 -1.1104 9.30647 27.4779 3.72241
786 1 -1.1104 11.9917 27.385 3.89564
793 1 -1.1104 9.31294 27.6143 0.986871
783 1 -1.1104 12.1406 27.4246 1.10733
1129 2 2.2208 7.88984 31.7655 -0.293851
825 1 -1.1104 6.56286 33.0412 1.10799
810 1 -1.1104 6.66235 32.901 3.83185
779 2 2.2208 10.8217 28.7754 5.17634
789 2 2.2208 7.95355 28.8921 2.40694
827 1 -1.1104 12.2354 30.3267 0.798245
829 1 -1.1104 12.2772 30.3468 3.94832
831 1 -1.1104 11.9813 33.0909 0.941569
832 2 2.2208 10.9751 31.6294 2.39889
834 1 -1.1104 12.4581 33.2288 3.67625
835 1 -1.1104 9.50617 30.4072 1.01683
838 1 -1.1104 9.50026 30.28 3.80847
840 2 2.2208 7.97707 31.7016 5.26548
842 1 -1.1104 9.38523 33.2235 0.88464
843 1 -1.1104 9.63911 32.9936 3.97255
988 1 -1.1104 9.4303 32.8072 6.79697
1032 1 -1.1104 6.746 41.2973 11.9773
822 2 2.2208 -0.544756 31.7052 2.3699
897 1 -1.1104 6.42798 27.4695 6.46169
954 1 -1.1104 6.58158 33.1452 6.50836
1048 1 -1.1104 9.53321 41.371 9.01051
1491 1 -1.1104 3.96622 47.1657 0.877355
1100 2 2.2208 5.12121 42.7769 13.6216
799 2 2.2208 5.16621 34.4116 5.1161
801 1 -1.1104 0.971222 35.7566 0.793362
804 1 -1.1104 0.727551 35.8677 3.77805
808 2 2.2208 5.24211 37.2839 2.29478
812 1 -1.1104 3.97048 35.8497 1.05372
813 2 2.2208 2.22745 34.5349 2.44748
815 1 -1.1104 3.66213 35.854 3.87899
817 2 2.2208 2.31773 37.2469 4.96639
845 2 2.2208 4.99112 40.2329 5.17053
851 1 -1.1104 0.774583 38.7746 0.689875
856 1 -1.1104 0.742287 38.7244 3.58584
861 2 2.2208 2.09964 40.2579 2.39353
865 1 -1.1104 3.59445 38.679 0.874347