LAMMPS (29 Oct 2020)
OMP_NUM_THREADS environment is not set. Defaulting to 1 thread. (../comm.cpp:94)
  using 1 OpenMP thread(s) per MPI task
OMP_NUM_THREADS environment is not set. Defaulting to 1 thread. (../comm.cpp:94)
  using 1 OpenMP thread(s) per MPI task
Reading data file ...
  orthogonal box = (0.0000000 0.0000000 0.0000000) to (5.4680000 5.4680000 5.4680000)
  2 by 2 by 13 MPI processor grid
  reading atoms ...
  12 atoms
Finding 1-2 1-3 1-4 neighbors ...
  special bond factors lj:    0.0      0.0      0.0     
  special bond factors coul:  0.0      0.0      0.0     
     0 = max # of 1-2 neighbors
     0 = max # of 1-3 neighbors
     0 = max # of 1-4 neighbors
     1 = max # of special neighbors
  special bonds CPU = 0.002 seconds
  read_data CPU = 0.011 seconds
Replicating atoms ...
  orthogonal box = (0.0000000 0.0000000 0.0000000) to (27.340000 246.06000 27.340000)
  2 by 13 by 2 MPI processor grid
  13500 atoms
Finding 1-2 1-3 1-4 neighbors ...
  special bond factors lj:    0.0      0.0      0.0     
  special bond factors coul:  0.0      0.0      0.0     
     0 = max # of 1-2 neighbors
     0 = max # of 1-3 neighbors
     0 = max # of 1-4 neighbors
     1 = max # of special neighbors
  special bonds CPU = 0.002 seconds
  replicate CPU = 0.013 seconds
Setting atom values ...
  9000 settings made for charge
Setting atom values ...
  4500 settings made for charge
PPPM initialization ...
  using 12-bit tables for long-range coulomb (../kspace.cpp:328)
  G vector (1/distance) = 0.30128132
  grid = 40 192 40
  stencil order = 5
  estimated absolute RMS force accuracy = 0.00013375008
  estimated relative force accuracy = 9.2884292e-06
  using single precision MKL FFT
  3d grid and FFT values/proc = 16038 6000
Neighbor list info ...
  update every 1 steps, delay 0 steps, check yes
  max neighbors/atom: 2000, page size: 100000
  master list distance cutoff = 13
  ghost atom cutoff = 13
  binsize = 6.5, bins = 5 38 5
  2 neighbor lists, perpetual/occasional/extra = 2 0 0
  (1) pair coul/long, perpetual
      attributes: half, newton on
      pair build: half/bin/newton
      stencil: half/bin/3d/newton
      bin: standard
  (2) pair eam/alloy, perpetual, copy from (1)
      attributes: half, newton on
      pair build: copy
      stencil: none
      bin: none
Setting up cg style minimization ...
  Unit style    : metal
  Current step  : 0
WARNING: Energy due to 3 extra global DOFs will be included in minimizer energies
Per MPI rank memory allocation (min/avg/max) = 9.279 | 9.294 | 9.316 Mbytes
Step Temp E_pair E_mol TotEng Press Volume 
       0            0   -177246.57            0   -177246.57    136385.19    183923.85 
      24            0   -177709.64            0   -177709.64   -68.047622    195482.39 
Loop time of 0.938456 on 52 procs for 24 steps with 13500 atoms

98.9% CPU use with 52 MPI tasks x 1 OpenMP threads

Minimization stats:
  Stopping criterion = linesearch alpha is zero
  Energy initial, next-to-last, final = 
      -177246.56651169  -177709.642906469  -177709.642906469
  Force two-norm initial, final = 27117.868 168.11602
  Force max component initial, final = 15656.807 144.88969
  Final line search alpha, max atom move = 4.1137948e-13 5.9604645e-11
  Iterations, force evaluations = 24 102

MPI task timing breakdown:
Section |  min time  |  avg time  |  max time  |%varavg| %total
---------------------------------------------------------------
Pair    | 0.5225     | 0.54481    | 0.56374    |   1.1 | 58.05
Bond    | 7.7432e-06 | 1.1763e-05 | 2.3779e-05 |   0.0 |  0.00
Kspace  | 0.16633    | 0.18594    | 0.20922    |   1.9 | 19.81
Neigh   | 0.0086719  | 0.010249   | 0.011111   |   0.5 |  1.09
Comm    | 0.019144   | 0.019942   | 0.020666   |   0.3 |  2.13
Output  | 0          | 0          | 0          |   0.0 |  0.00
Modify  | 0          | 0          | 0          |   0.0 |  0.00
Other   |            | 0.1775     |            |       | 18.91

Nlocal:        259.615 ave         283 max         224 min
Histogram: 2 1 1 3 6 10 13 6 7 3
Nghost:        5000.23 ave        5159 max        4887 min
Histogram: 19 5 0 2 7 3 0 0 9 7
Neighs:        83769.2 ave       92459 max       72764 min
Histogram: 3 1 1 3 7 18 7 2 9 1

Total # of neighbors = 4356000
Ave neighs/atom = 322.66667
Ave special neighs/atom = 0.0000000
Neighbor list builds = 4
Dangerous builds = 0
4500 atoms in group thorium
9000 atoms in group oxygen
Setting atom values ...
  0 settings made for type/subset
Setting atom values ...
  0 settings made for type/subset
0 atoms in group delete
WARNING: Ignoring 'compress yes' for molecular system (../delete_atoms.cpp:125)
Deleted 0 atoms, new total = 13500
PPPM initialization ...
  using 12-bit tables for long-range coulomb (../kspace.cpp:328)
  G vector (1/distance) = 0.30024452
  grid = 40 192 40
  stencil order = 5
  estimated absolute RMS force accuracy = 0.00014135159
  estimated relative force accuracy = 9.816325e-06
  using single precision MKL FFT
  3d grid and FFT values/proc = 16038 6000
Setting up cg style minimization ...
  Unit style    : metal
  Current step  : 0
WARNING: Energy due to 3 extra global DOFs will be included in minimizer energies
Per MPI rank memory allocation (min/avg/max) = 9.279 | 9.338 | 10.07 Mbytes
Step Temp E_pair E_mol TotEng Press Volume 
       0            0   -177709.67            0   -177709.67   -70.330898    195482.39 
       1            0   -177709.67            0   -177709.67   -70.330898    195482.39 
Loop time of 0.376589 on 52 procs for 1 steps with 13500 atoms

99.4% CPU use with 52 MPI tasks x 1 OpenMP threads

Minimization stats:
  Stopping criterion = linesearch alpha is zero
  Energy initial, next-to-last, final = 
     -177709.674194775  -177709.674194775  -177709.674194775
  Force two-norm initial, final = 171.70814 171.70814
  Force max component initial, final = 148.25401 148.25401
  Final line search alpha, max atom move = 4.0204406e-13 5.9604645e-11
  Iterations, force evaluations = 1 44

MPI task timing breakdown:
Section |  min time  |  avg time  |  max time  |%varavg| %total
---------------------------------------------------------------
Pair    | 0.21462    | 0.22575    | 0.23801    |   1.0 | 59.95
Bond    | 3.3425e-06 | 4.7938e-06 | 1.0538e-05 |   0.0 |  0.00
Kspace  | 0.058969   | 0.071159   | 0.082353   |   1.7 | 18.90
Neigh   | 0          | 0          | 0          |   0.0 |  0.00
Comm    | 0.0071893  | 0.0075488  | 0.0079625  |   0.2 |  2.00
Output  | 0          | 0          | 0          |   0.0 |  0.00
Modify  | 0          | 0          | 0          |   0.0 |  0.00
Other   |            | 0.07213    |            |       | 19.15

Nlocal:        259.615 ave         300 max         220 min
Histogram: 2 1 4 10 14 5 6 5 4 1
Nghost:        5000.23 ave        5152 max        4868 min
Histogram: 7 14 3 0 6 4 2 0 3 13
Neighs:        83769.2 ave       95764 max       69015 min
Histogram: 1 1 1 9 9 14 4 6 3 4

Total # of neighbors = 4356000
Ave neighs/atom = 322.66667
Ave special neighs/atom = 0.0000000
Neighbor list builds = 0
Dangerous builds = 0
Resetting atom IDs ...
PPPM initialization ...
  using 12-bit tables for long-range coulomb (../kspace.cpp:328)
  G vector (1/distance) = 0.30024452
  grid = 40 192 40
  stencil order = 5
  estimated absolute RMS force accuracy = 0.00014135159
  estimated relative force accuracy = 9.816325e-06
  using single precision MKL FFT
  3d grid and FFT values/proc = 16038 6000
Finding 1-2 1-3 1-4 neighbors ...
  special bond factors lj:    0.0      0.0      0.0     
  special bond factors coul:  0.0      0.0      0.0     
     0 = max # of 1-2 neighbors
     0 = max # of 1-3 neighbors
     0 = max # of 1-4 neighbors
     1 = max # of special neighbors
  special bonds CPU = 0.001 seconds
PPPM initialization ...
  using 12-bit tables for long-range coulomb (../kspace.cpp:328)
  G vector (1/distance) = 0.30024452
  grid = 40 192 40
  stencil order = 5
  estimated absolute RMS force accuracy = 0.00014135159
  estimated relative force accuracy = 9.816325e-06
  using single precision MKL FFT
  3d grid and FFT values/proc = 16038 6000
Setting up Verlet run ...
  Unit style    : metal
  Current step  : 0
  Time step     : 0.001
Per MPI rank memory allocation (min/avg/max) = 9.417 | 9.477 | 10.21 Mbytes
Step Dt Time Atoms Temp PotEng KinEng Press Volume 
       0        0.001            0    13500          600   -177709.67    1046.9296    5650.1027    195482.39 
   10000        0.001           10    13500    600.31174   -176629.56    1047.4736   -607.48525    198735.44 
   20000        0.001           20    13500    597.57427   -176622.16     1042.697    272.84986    198612.59 
   30000        0.001           30    13500    598.13529   -176635.36    1043.6759    107.85226    198631.18 
   40000        0.001           40    13500    602.31745   -176633.73    1050.9733   -1419.1167    198783.91 
   50000        0.001           50    13500    599.49231   -176651.32    1046.0438    1172.1016    198465.41 
   60000        0.001           60    13500    601.25214   -176635.54    1049.1145    120.69167    198591.39 
   70000        0.001           70    13500    594.51826   -176637.09    1037.3646   -1337.0778     198769.6 
   80000        0.001           80    13500     602.6187   -176608.65    1051.4989    1032.2135    198627.33 
   90000        0.001           90    13500    598.56256   -176631.72    1044.4214    99.420873    198641.83 
  100000        0.001          100    13500    607.01325   -176634.63    1059.1669   -895.36755    198727.15 
Loop time of 674.188 on 52 procs for 100000 steps with 13500 atoms

Performance: 12.815 ns/day, 1.873 hours/ns, 148.327 timesteps/s
99.8% CPU use with 52 MPI tasks x 1 OpenMP threads

MPI task timing breakdown:
Section |  min time  |  avg time  |  max time  |%varavg| %total
---------------------------------------------------------------
Pair    | 416.61     | 425.21     | 430.4      |  16.3 | 63.07
Bond    | 0.0077973  | 0.011909   | 0.017824   |   2.1 |  0.00
Kspace  | 137.61     | 142.93     | 151.87     |  29.1 | 21.20
Neigh   | 0.040625   | 0.043274   | 0.044388   |   0.4 |  0.01
Comm    | 16.632     | 17.72      | 19.06      |  16.4 |  2.63
Output  | 0.040026   | 0.040064   | 0.041747   |   0.1 |  0.01
Modify  | 76.254     | 82.095     | 85.82      |  23.7 | 12.18
Other   |            | 6.138      |            |       |  0.91

Nlocal:        259.615 ave         271 max         240 min
Histogram: 2 1 1 2 4 6 10 19 6 1
Nghost:        4970.15 ave        5133 max        4897 min
Histogram: 24 1 5 4 6 4 0 0 0 8
Neighs:        83286.4 ave       86751 max       77052 min
Histogram: 2 1 1 3 5 4 10 12 12 2

Total # of neighbors = 4330893
Ave neighs/atom = 320.80689
Ave special neighs/atom = 0.0000000
Neighbor list builds = 19
Dangerous builds = 0
System init for write_data ...
PPPM initialization ...
  using 12-bit tables for long-range coulomb (../kspace.cpp:328)
  G vector (1/distance) = 0.29996485
  grid = 40 192 40
  stencil order = 5
  estimated absolute RMS force accuracy = 0.00014342205
  estimated relative force accuracy = 9.9601102e-06
  using single precision MKL FFT
  3d grid and FFT values/proc = 16038 6000
Total wall time: 0:11:16
