LAMMPS (29 Oct 2020)
OMP_NUM_THREADS environment is not set. Defaulting to 1 thread. (../comm.cpp:94)
  using 1 OpenMP thread(s) per MPI task
OMP_NUM_THREADS environment is not set. Defaulting to 1 thread. (../comm.cpp:94)
  using 1 OpenMP thread(s) per MPI task
Reading data file ...
  orthogonal box = (0.036967065 0.39996549 0.036967048) to (27.303033 327.68003 27.303033)
  2 by 13 by 2 MPI processor grid
  reading atoms ...
  18000 atoms
  reading velocities ...
  18000 velocities
Finding 1-2 1-3 1-4 neighbors ...
  special bond factors lj:    0.0      0.0      0.0     
  special bond factors coul:  0.0      0.0      0.0     
     0 = max # of 1-2 neighbors
     0 = max # of 1-3 neighbors
     0 = max # of 1-4 neighbors
     1 = max # of special neighbors
  special bonds CPU = 0.003 seconds
  read_data CPU = 0.063 seconds
191 atoms in group sphere
16 atoms in group O_delete
175 atoms in group 1
5 atoms in group U_add
180 atoms in group cluster
6000 atoms in group U
12000 atoms in group O
60 atoms in group U_group
120 atoms in group O_group
The number of U atoms: 60
The number of O atoms: 120
WARNING: Ignoring 'compress yes' for molecular system (../delete_atoms.cpp:125)
Deleted 180 atoms, new total = 17820
191 atoms in group sphere_1
16 atoms in group O_delete_1
175 atoms in group mid_1
5 atoms in group O_add_1
180 atoms in group cluster_1
60 atoms in group U_group_1
120 atoms in group O_group_1
The number of U atoms: 60
The number of O atoms: 120
WARNING: Ignoring 'compress yes' for molecular system (../delete_atoms.cpp:125)
Deleted 180 atoms, new total = 17640
Setting atom values ...
  11760 settings made for charge
Setting atom values ...
  5880 settings made for charge
PPPM initialization ...
  using 12-bit tables for long-range coulomb (../kspace.cpp:328)
  G vector (1/distance) = 0.30035472
  grid = 40 240 40
  stencil order = 5
  estimated absolute RMS force accuracy = 0.00014415173
  estimated relative force accuracy = 1.0010784e-05
  using single precision MKL FFT
  3d grid and FFT values/proc = 18225 7600
Neighbor list info ...
  update every 1 steps, delay 0 steps, check yes
  max neighbors/atom: 2000, page size: 100000
  master list distance cutoff = 13
  ghost atom cutoff = 13
  binsize = 6.5, bins = 5 51 5
  2 neighbor lists, perpetual/occasional/extra = 2 0 0
  (1) pair coul/long, perpetual
      attributes: half, newton on
      pair build: half/bin/newton
      stencil: half/bin/3d/newton
      bin: standard
  (2) pair eam/alloy, perpetual, copy from (1)
      attributes: half, newton on
      pair build: copy
      stencil: none
      bin: none
Setting up cg style minimization ...
  Unit style    : metal
  Current step  : 0
WARNING: Energy due to 3 extra global DOFs will be included in minimizer energies
Per MPI rank memory allocation (min/avg/max) = 9.484 | 10.19 | 10.29 Mbytes
Step PotEng KinEng v_latt 
       0   -238550.35            0    5.4536981 
      50   -238738.52            0    5.4529386 
Loop time of 1.3101 on 52 procs for 50 steps with 17640 atoms

98.7% CPU use with 52 MPI tasks x 1 OpenMP threads

Minimization stats:
  Stopping criterion = linesearch alpha is zero
  Energy initial, next-to-last, final = 
     -238550.347046673  -238738.524308105  -238738.524308105
  Force two-norm initial, final = 597.80241 67.051799
  Force max component initial, final = 479.84357 33.285327
  Final line search alpha, max atom move = 2.4249703e-12 8.0715929e-11
  Iterations, force evaluations = 50 112

MPI task timing breakdown:
Section |  min time  |  avg time  |  max time  |%varavg| %total
---------------------------------------------------------------
Pair    | 0.70549    | 0.76763    | 0.82904    |   3.0 | 58.59
Bond    | 8.7991e-06 | 1.3963e-05 | 2.1793e-05 |   0.0 |  0.00
Kspace  | 0.23965    | 0.30116    | 0.36365    |   4.8 | 22.99
Neigh   | 0          | 0          | 0          |   0.0 |  0.00
Comm    | 0.017182   | 0.018397   | 0.019598   |   0.5 |  1.40
Output  | 0          | 0          | 0          |   0.0 |  0.00
Modify  | 0          | 0          | 0          |   0.0 |  0.00
Other   |            | 0.2229     |            |       | 17.01

Nlocal:        339.231 ave         410 max         272 min
Histogram: 1 3 5 11 11 0 13 3 3 2
Nghost:        5593.85 ave        5836 max        5184 min
Histogram: 4 1 2 5 6 4 2 7 10 11
Neighs:       111774.0 ave      137214 max       77113 min
Histogram: 1 0 3 3 13 11 4 11 4 2

Total # of neighbors = 5812240
Ave neighs/atom = 329.49206
Ave special neighs/atom = 0.0000000
Neighbor list builds = 0
Dangerous builds = 0
Resetting atom IDs ...
PPPM initialization ...
  using 12-bit tables for long-range coulomb (../kspace.cpp:328)
  G vector (1/distance) = 0.30036298
  grid = 40 240 40
  stencil order = 5
  estimated absolute RMS force accuracy = 0.00014408424
  estimated relative force accuracy = 1.0006097e-05
  using single precision MKL FFT
  3d grid and FFT values/proc = 18225 7600
Finding 1-2 1-3 1-4 neighbors ...
  special bond factors lj:    0.0      0.0      0.0     
  special bond factors coul:  0.0      0.0      0.0     
     0 = max # of 1-2 neighbors
     0 = max # of 1-3 neighbors
     0 = max # of 1-4 neighbors
     1 = max # of special neighbors
  special bonds CPU = 0.001 seconds
PPPM initialization ...
  using 12-bit tables for long-range coulomb (../kspace.cpp:328)
  G vector (1/distance) = 0.30036298
  grid = 40 240 40
  stencil order = 5
  estimated absolute RMS force accuracy = 0.00014408424
  estimated relative force accuracy = 1.0006097e-05
  using single precision MKL FFT
  3d grid and FFT values/proc = 18225 7600
Setting up Verlet run ...
  Unit style    : metal
  Current step  : 0
  Time step     : 0.001
Per MPI rank memory allocation (min/avg/max) = 9.628 | 10.36 | 10.44 Mbytes
Step Dt Time Atoms Temp PotEng KinEng Press Volume 
       0        0.001            0    17640          600   -238738.52    1368.0118    5895.6532    243210.91 
   50000        0.001           50    17640    604.34948   -237585.76    1377.9287    350.61881    247594.39 
  100000        0.001          100    17640    601.76264   -237574.26    1372.0307   -145.11617    247639.84 
Loop time of 826.248 on 52 procs for 100000 steps with 17640 atoms

Performance: 10.457 ns/day, 2.295 hours/ns, 121.029 timesteps/s
99.8% CPU use with 52 MPI tasks x 1 OpenMP threads

MPI task timing breakdown:
Section |  min time  |  avg time  |  max time  |%varavg| %total
---------------------------------------------------------------
Pair    | 493.5      | 528.58     | 547.68     |  57.7 | 63.97
Bond    | 0.0089185  | 0.014251   | 0.025666   |   2.7 |  0.00
Kspace  | 167.38     | 186.91     | 222.65     |  99.3 | 22.62
Neigh   | 1.9123     | 2.4321     | 2.6101     |  11.1 |  0.29
Comm    | 15.237     | 16.106     | 16.756     |  10.5 |  1.95
Output  | 0.012171   | 0.012179   | 0.0125     |   0.0 |  0.00
Modify  | 79.029     | 83.094     | 87.458     |  25.2 | 10.06
Other   |            | 9.101      |            |       |  1.10

Nlocal:        339.231 ave         363 max         292 min
Histogram: 1 1 4 2 0 4 16 11 6 7
Nghost:        5580.10 ave        5796 max        5251 min
Histogram: 6 5 1 4 0 8 0 2 18 8
Neighs:       112484.0 ave      123129 max       86818 min
Histogram: 2 2 1 2 1 1 6 20 8 9

Total # of neighbors = 5849149
Ave neighs/atom = 331.58441
Ave special neighs/atom = 0.0000000
Neighbor list builds = 859
Dangerous builds = 0
System init for write_data ...
PPPM initialization ...
  using 12-bit tables for long-range coulomb (../kspace.cpp:328)
  G vector (1/distance) = 0.30004351
  grid = 40 240 40
  stencil order = 5
  estimated absolute RMS force accuracy = 0.00014653672
  estimated relative force accuracy = 1.0176412e-05
  using single precision MKL FFT
  3d grid and FFT values/proc = 18225 7600
Total wall time: 0:13:48
