ITEM: TIMESTEP
40000
ITEM: NUMBER OF ATOMS
13500
ITEM: BOX BOUNDS pp pp pp
-4.9112616894864780e-01 2.7831126168948167e+01
-4.2324222075449676e+00 2.5029242220754560e+02
-5.1247322369875148e-01 2.7852473223697992e+01
ITEM: ATOMS id type q x y z
2 2 2.2208 5.35455 1.27153 5.26405
3 1 -1.1104 1.40488 -3.16311 0.903134
11 1 -1.1104 1.16215 -2.71764 3.82922
15 1 -1.1104 1.03694 -0.170643 1.17083
19 2 2.2208 5.51438 -1.53093 2.28099
21 1 -1.1104 1.01145 -0.0292793 3.9868
23 1 -1.1104 3.98736 -2.70748 0.815917
28 2 2.2208 2.58439 1.36423 2.3999
29 1 -1.1104 3.95033 -2.99727 3.83389
31 2 2.2208 2.62665 -1.35049 5.21811
33 1 -1.1104 4.06588 -0.145867 1.12425
35 1 -1.1104 3.83593 0.044241 3.79698
7 1 -1.1104 6.91829 -2.98305 0.91497
6628 2 2.2208 -0.456323 -4.01734 5.33383
6626 2 2.2208 -0.503073 -1.37169 2.63753
6627 2 2.2208 -0.333062 4.2469 2.57326
98 2 2.2208 -0.333455 7.15241 -0.150756
139 2 2.2208 13.7207 12.858 2.40228
6677 2 2.2208 -0.464582 12.9327 5.29351
17 1 -1.1104 6.70777 -0.130981 0.909588
13 1 -1.1104 6.82107 -2.87222 3.8558
22 1 -1.1104 6.73816 -0.384824 3.87286
36 2 2.2208 11.0066 1.21199 4.98104
37 1 -1.1104 12.6074 -2.82603 1.00423
41 1 -1.1104 12.5482 -2.74503 3.81674
43 1 -1.1104 12.5238 -0.0577792 0.907878
45 2 2.2208 10.8796 -1.39955 2.38334
47 1 -1.1104 12.1686 -0.154599 3.78991
48 1 -1.1104 9.8446 -3.31054 0.998886
52 2 2.2208 8.01225 1.30907 2.17983
53 1 -1.1104 9.66111 -2.98051 3.80721
55 2 2.2208 8.09364 -1.48147 5.15558
57 1 -1.1104 9.60349 0.00634114 1.06702
59 1 -1.1104 9.3825 -0.111226 3.50985
97 2 2.2208 5.17664 7.02789 -0.451845
142 2 2.2208 11.0481 12.7732 -0.445576
6752 2 2.2208 -0.269555 4.12015 8.30744
248 1 -1.1104 12.3867 13.9653 9.58701
246 1 -1.1104 12.4617 11.2903 9.63551
6601 2 2.2208 -0.390982 1.59259 5.32408
96 2 2.2208 2.35636 9.96332 -0.393334
5 1 -1.1104 1.1964 2.74969 1.12376
12 1 -1.1104 1.04184 2.71264 3.681
20 2 2.2208 5.30422 4.34591 2.51795
25 1 -1.1104 4.06702 2.78079 0.998822
30 1 -1.1104 4.0163 2.8297 4.03467
32 2 2.2208 2.49502 4.13313 5.51279
63 2 2.2208 5.43774 7.05087 5.21076
72 1 -1.1104 0.891837 5.80465 1.40537
78 1 -1.1104 1.20483 5.57059 4.20874
84 2 2.2208 2.37478 7.31044 2.42669
89 1 -1.1104 3.79127 5.61857 0.948962
93 1 -1.1104 4.0672 5.52099 3.97521
80 1 -1.1104 3.73442 8.54444 0.88283
70 1 -1.1104 0.937359 8.52946 3.86383
65 1 -1.1104 1.00788 8.62822 1.06769
14 1 -1.1104 6.76532 2.50854 3.69076
102 1 -1.1104 6.66963 8.48451 3.75851
86 1 -1.1104 3.96107 8.60806 3.98718
387 2 2.2208 2.57022 4.25033 -0.271632
234 2 2.2208 8.23729 9.89507 10.8334
90 1 -1.1104 3.80529 5.47464 6.86056
107 1 -1.1104 6.74875 5.44866 3.79964
99 1 -1.1104 6.48575 8.19543 1.20211
104 1 -1.1104 6.58804 5.63668 0.894698
9 1 -1.1104 6.84699 2.54763 0.708734
39 1 -1.1104 12.3987 2.88838 1.01513
42 1 -1.1104 12.4287 2.75301 3.65793
46 2 2.2208 10.9754 4.38235 2.43496
50 1 -1.1104 9.63301 3.02138 1.03752
54 1 -1.1104 9.62822 2.76206 3.95425
56 2 2.2208 8.32038 4.08632 5.13836
109 2 2.2208 11.164 6.94863 5.40194
117 1 -1.1104 12.3688 5.91932 1.11978
122 1 -1.1104 12.2571 5.55808 3.9252
128 2 2.2208 8.22843 6.85325 2.43168
133 1 -1.1104 9.46961 5.69123 0.56537
137 1 -1.1104 9.5109 5.64285 3.70611
124 1 -1.1104 9.63485 8.32841 1.35866
111 1 -1.1104 12.3859 8.75627 1.27981
130 1 -1.1104 9.53833 8.54056 3.84517
233 1 -1.1104 12.2874 14.0655 12.2704
144 2 2.2208 10.9332 7.04052 -0.374489
251 1 -1.1104 6.79343 14.1676 12.4
6836 2 2.2208 -0.331343 9.91633 8.23418
143 2 2.2208 8.13409 9.86678 -0.155238
64 2 2.2208 5.2692 12.7386 5.37046
67 1 -1.1104 0.923245 14.0331 1.05251
71 1 -1.1104 0.976689 14.1753 3.99407
74 1 -1.1104 0.948492 11.3593 1.14657
77 2 2.2208 5.14746 9.88305 2.52277
79 1 -1.1104 0.892488 11.4698 3.90065
82 1 -1.1104 3.85794 14.0783 0.817981
85 2 2.2208 2.37404 12.9951 2.58003
87 1 -1.1104 3.84939 14.4859 3.65205
88 2 2.2208 2.39206 9.80499 5.52083
91 1 -1.1104 3.76488 11.331 1.09335
94 1 -1.1104 3.68607 11.5446 4.0228
100 1 -1.1104 6.80302 14.3151 1.35048
108 1 -1.1104 6.79533 11.2706 3.93433
7003 2 2.2208 -0.103893 1.39044 -0.330775
415 2 2.2208 2.59706 -1.39001 -0.273977
6712 2 2.2208 -0.337521 12.8386 -0.414597
115 1 -1.1104 12.3433 8.40316 3.98561
105 1 -1.1104 6.50488 11.3922 1.01453
101 1 -1.1104 6.84648 14.2092 6.79979
103 1 -1.1104 6.39821 14.1588 3.9979
110 2 2.2208 10.8657 12.8315 5.29561
113 1 -1.1104 12.5008 14.2361 1.02284
116 1 -1.1104 12.1211 14.2274 3.80012
119 1 -1.1104 12.2631 11.5501 0.944722
121 2 2.2208 10.9952 9.94739 2.6321
123 1 -1.1104 12.3677 11.2971 3.78956
126 1 -1.1104 9.72899 13.7823 1.20976
129 2 2.2208 7.9873 12.7278 2.62443
131 1 -1.1104 9.21449 13.9722 4.10715
132 2 2.2208 8.216 9.68979 5.18177
135 1 -1.1104 9.21987 11.1384 1.49123
138 1 -1.1104 9.61475 11.3648 4.15344
114 1 -1.1104 12.2664 14.2925 6.55094
444 2 2.2208 8.27332 -1.58526 -0.404722
127 1 -1.1104 9.53931 14.2384 6.67518
145 2 2.2208 13.6036 9.98326 -0.220091
34 1 -1.1104 4.12662 -0.302192 6.58856
16 1 -1.1104 1.35407 0.0161139 6.65372
4 1 -1.1104 0.993648 -2.88116 6.67879
6750 2 2.2208 -0.170301 -1.35644 8.11894
18 1 -1.1104 6.80638 -0.00248521 6.70032
95 2 2.2208 5.33601 12.642 -0.375384
24 1 -1.1104 3.96534 -2.90896 6.61296
146 2 2.2208 5.41458 1.30797 10.9646
147 1 -1.1104 0.895359 -2.98821 12.5519
150 1 -1.1104 1.16553 -2.71744 9.61928
154 1 -1.1104 1.28518 -0.0928709 12.4025
156 2 2.2208 5.51611 -1.67445 7.95136
158 1 -1.1104 0.964502 -0.0733165 9.49924
160 1 -1.1104 3.86681 -2.84094 12.2327
162 2 2.2208 2.60232 1.27537 8.21709
163 1 -1.1104 3.86607 -3.10689 9.36343
165 2 2.2208 2.38046 -1.46365 10.9651
167 1 -1.1104 4.01529 -0.0565982 12.6171
168 1 -1.1104 3.70188 -0.322689 9.4294
237 2 2.2208 10.5542 12.7746 10.9141
6751 2 2.2208 -0.393823 1.12021 11.186
8 1 -1.1104 6.72819 -2.87618 6.52143
38 1 -1.1104 12.4595 -2.97456 6.71746
49 1 -1.1104 9.48828 -2.72534 6.60232
173 2 2.2208 5.22395 -4.01863 10.8256
229 1 -1.1104 9.79277 11.4587 9.46758
58 1 -1.1104 9.77159 -8.74412e-05 6.46851
44 1 -1.1104 12.5205 0.0450999 6.47325
155 1 -1.1104 6.88077 0.090122 12.3547
149 1 -1.1104 6.63219 -2.90757 12.4083
152 1 -1.1104 7.03868 -2.85364 9.51896
159 1 -1.1104 6.77019 -0.0210783 9.5868
177 2 2.2208 10.9695 1.41545 11.0468
178 1 -1.1104 12.2835 -2.64114 12.4185
180 1 -1.1104 12.3055 -2.7863 9.49263
182 1 -1.1104 12.4798 0.245356 12.3121
183 2 2.2208 11.1563 -1.46019 7.88821
185 1 -1.1104 12.5169 0.00491575 9.49236
186 1 -1.1104 9.5188 -2.7773 12.0799
188 2 2.2208 8.34523 1.38999 7.9694
189 1 -1.1104 9.65762 -2.63394 9.27189
191 2 2.2208 8.22475 -1.35293 11.0242
193 1 -1.1104 9.6683 -0.052676 12.3361
194 1 -1.1104 9.65141 0.0297401 9.26397
6 1 -1.1104 0.916326 2.9959 6.73783
26 1 -1.1104 3.73389 2.37394 6.66877
81 1 -1.1104 3.95667 8.26472 6.74619
73 1 -1.1104 1.24144 5.7168 6.81157
66 1 -1.1104 0.902299 8.56535 6.7309
148 1 -1.1104 0.858999 2.68359 12.6533
151 1 -1.1104 1.29203 2.80978 9.60531
157 2 2.2208 5.57238 4.02542 8.33822
161 1 -1.1104 3.95619 2.72899 12.3345
164 1 -1.1104 3.9607 2.63804 9.62027
166 2 2.2208 2.5256 4.23946 10.9093
198 1 -1.1104 3.43678 8.42648 12.1856
201 1 -1.1104 3.90994 5.55384 9.63412
203 1 -1.1104 3.76669 5.62159 12.4371
208 2 2.2208 2.56143 6.96321 8.2877
210 2 2.2208 5.29479 6.90937 11.0547
215 1 -1.1104 1.07793 8.39017 9.51993
218 1 -1.1104 0.791506 5.45265 12.4162
223 1 -1.1104 1.04615 5.65122 9.54676
206 1 -1.1104 3.93037 8.48193 9.41289
212 1 -1.1104 0.940588 8.47139 12.2936
136 1 -1.1104 9.58146 11.2733 6.88099
220 1 -1.1104 6.61049 5.50002 12.5454
217 1 -1.1104 6.69165 8.69392 9.80747
244 1 -1.1104 12.351 11.2464 12.405
76 1 -1.1104 6.91094 5.55391 6.63023
125 1 -1.1104 9.67351 8.48888 6.51706
118 1 -1.1104 12.2877 5.71977 6.85411
10 1 -1.1104 6.72552 2.55463 6.73815
40 1 -1.1104 12.5251 2.8884 6.5005
112 1 -1.1104 12.8403 8.69178 6.89738
69 1 -1.1104 6.8358 8.44711 6.98509
176 1 -1.1104 6.67188 2.77512 12.308
153 1 -1.1104 7.07135 2.98962 9.48158
214 1 -1.1104 6.56975 8.23726 12.509
51 1 -1.1104 9.61534 2.61371 6.52906
225 1 -1.1104 6.88757 5.75424 9.59057
134 1 -1.1104 9.37806 5.5137 6.58495
250 1 -1.1104 12.2886 5.45314 9.80858
179 1 -1.1104 12.3246 2.91725 12.4072
181 1 -1.1104 12.4526 2.51625 9.57836
184 2 2.2208 11.1366 3.87333 8.13568
187 1 -1.1104 9.41403 2.55291 12.4125
190 1 -1.1104 9.80001 3.04198 9.68277
192 2 2.2208 8.31287 4.2936 10.9151
247 1 -1.1104 12.3847 5.66367 12.6326
230 1 -1.1104 9.80018 5.8829 9.16154
232 1 -1.1104 9.56511 5.53708 12.4101
238 2 2.2208 10.9191 7.03881 10.8772
240 1 -1.1104 9.57245 8.67038 9.31365
242 2 2.2208 8.1516 7.07053 8.04687
236 1 -1.1104 12.594 8.42143 12.4948
249 1 -1.1104 12.3687 8.5191 9.78536
245 1 -1.1104 9.68693 8.57273 12.4182
235 1 -1.1104 9.15025 14.0841 9.6523
92 1 -1.1104 4.04281 11.2385 6.72254
83 1 -1.1104 3.83029 14.2509 6.44787
241 2 2.2208 8.31428 12.7564 7.90418
68 1 -1.1104 1.02689 14.3716 6.73423
75 1 -1.1104 1.05319 11.4118 6.73682
200 1 -1.1104 4.04454 11.303 9.42215
202 1 -1.1104 3.969 11.0185 12.4036
204 2 2.2208 2.2534 9.8747 11.0297
205 1 -1.1104 3.59988 14.1067 9.46984
207 2 2.2208 2.32113 12.6328 8.16034
209 1 -1.1104 3.9665 14.0567 12.2654
211 2 2.2208 5.16452 12.6802 10.9273
213 1 -1.1104 1.06012 14.2001 12.5198
216 1 -1.1104 0.744167 14.0346 9.85418
219 1 -1.1104 1.0337 11.1255 12.4224
222 2 2.2208 5.26579 9.84167 8.19463
224 1 -1.1104 1.04063 11.1606 9.51054
252 1 -1.1104 6.39791 14.114 9.53166
221 1 -1.1104 6.61217 11.3573 12.4044
239 2 2.2208 11.1453 10.1041 8.10395
243 1 -1.1104 9.43274 14.0412 12.5101
106 1 -1.1104 6.75286 11.4114 6.69822
231 1 -1.1104 9.56157 11.2352 12.3431
120 1 -1.1104 12.3869 11.4591 6.54133
199 1 -1.1104 6.96598 11.4808 9.49455
6709 2 2.2208 -0.299377 7.02631 5.32603
7024 2 2.2208 -0.235592 -4.1836 -0.433677
435 2 2.2208 11.1633 1.4557 -0.368792
257 2 2.2208 13.6706 12.828 8.04939
197 2 2.2208 10.8878 -3.9691 10.8453
27 2 2.2208 2.56995 -4.23729 2.49587
6749 2 2.2208 -0.29465 -4.22064 10.8834
1 2 2.2208 5.23346 -4.20051 5.32038
170 2 2.2208 5.26765 -1.40764 13.5876
386 2 2.2208 5.30148 -4.16683 -0.445918
260 2 2.2208 5.29508 1.30193 16.6219
261 1 -1.1104 0.831879 -2.74492 18.0611
263 1 -1.1104 1.27669 -2.94992 15.0968
268 1 -1.1104 1.23071 -0.0292579 18.0661
269 2 2.2208 5.47896 -1.40421 19.5778
271 1 -1.1104 1.07566 -0.223931 15.0484
273 1 -1.1104 3.92711 -3.07669 18.3149
276 2 2.2208 2.78037 1.54339 19.736
277 1 -1.1104 4.09793 -3.03646 15.3605
281 2 2.2208 2.42806 -1.54865 16.7329
283 1 -1.1104 3.98626 -0.0457749 18.0569
284 1 -1.1104 4.03935 -0.075587 15.3488
293 1 -1.1104 6.90634 0.141102 17.9649
509 1 -1.1104 7.10034 14.5743 26.5615
7089 2 2.2208 -0.299963 12.4484 22.4876
285 1 -1.1104 4.19831 0.152367 21.2009
6941 2 2.2208 -0.318157 6.97725 16.5804
321 2 2.2208 8.41947 -4.1948 19.3654
475 2 2.2208 -0.345603 9.80857 25.2959
294 1 -1.1104 6.69341 0.2244 15.0677
288 1 -1.1104 6.73722 -2.85861 18.2075
290 1 -1.1104 7.22018 -2.88521 15.409
296 2 2.2208 10.9072 1.46001 16.6566
297 1 -1.1104 12.3488 -2.97614 18.2075
299 1 -1.1104 12.6886 -2.66316 15.3685
303 1 -1.1104 12.4312 0.00210627 17.9266
304 2 2.2208 11.0457 -1.40385 19.5746
306 1 -1.1104 12.3032 0.0478012 15.1203
308 1 -1.1104 9.54638 -2.85065 17.8157
310 2 2.2208 7.91344 1.54119 19.2944
311 1 -1.1104 9.95468 -2.87449 14.8815
315 2 2.2208 8.37241 -1.31234 16.7037
317 1 -1.1104 9.58181 0.0908815 18.1866
318 1 -1.1104 9.74142 -0.0286301 15.2969
319 1 -1.1104 9.60789 -0.0131769 21.118
320 2 2.2208 11.1853 -4.19622 16.6006
171 2 2.2208 5.23674 4.08202 13.8463
291 1 -1.1104 6.8155 -2.88478 21.0241
226 2 2.2208 5.61817 9.91885 13.9014
174 2 2.2208 8.25131 1.32986 13.7875
6904 2 2.2208 -0.139397 -1.24993 19.4941
6957 2 2.2208 -0.466275 12.5706 16.7017
255 2 2.2208 8.27211 6.91591 13.8408
262 1 -1.1104 1.01838 2.66303 18.0572
265 1 -1.1104 0.933795 2.64202 15.3048
270 2 2.2208 5.37577 4.34673 19.4632
274 1 -1.1104 3.95245 2.82714 18.3728
279 1 -1.1104 3.8954 2.48934 15.4745
282 2 2.2208 2.37783 3.9418 16.7876
323 2 2.2208 5.40771 7.09694 16.6388
328 1 -1.1104 1.38154 8.54581 15.2359
331 1 -1.1104 0.874037 5.42635 18.0435
335 1 -1.1104 1.33651 5.66833 15.0673
342 2 2.2208 2.2744 6.93695 19.3707
348 1 -1.1104 3.55914 5.5447 18.0216
350 1 -1.1104 4.18604 5.40845 15.3705
340 1 -1.1104 3.76561 8.51213 18.017
344 1 -1.1104 4.14569 8.78317 15.3402
325 1 -1.1104 1.07939 8.49797 18.2337
266 1 -1.1104 1.17979 2.94764 20.8289
497 1 -1.1104 9.74685 11.5966 20.8853
436 2 2.2208 8.18561 4.03749 27.8563
253 2 2.2208 8.04208 12.5924 13.7216
490 1 -1.1104 6.80269 11.3272 20.9255
292 1 -1.1104 6.63426 2.91937 15.1285
327 1 -1.1104 6.65284 8.49147 18.2034
338 1 -1.1104 6.86413 5.63086 15.3058
289 1 -1.1104 6.71572 2.92851 17.909
330 1 -1.1104 7.19754 8.56943 15.1333
333 1 -1.1104 6.62179 5.74854 18.1168
298 1 -1.1104 12.2987 2.91043 18.1146
301 1 -1.1104 12.1133 2.81733 15.0723
305 2 2.2208 10.9293 4.3372 19.3065
309 1 -1.1104 9.52789 2.82434 17.8275
313 1 -1.1104 9.45441 2.80511 15.1492
316 2 2.2208 7.97721 4.08642 16.4302
358 2 2.2208 10.8332 7.11563 16.7145
362 1 -1.1104 12.5997 8.48649 15.3124
364 1 -1.1104 12.5228 5.71343 17.9961
367 1 -1.1104 12.2189 5.6296 15.1657
370 1 -1.1104 9.50419 8.41361 17.9916
372 2 2.2208 8.00099 7.00082 19.4697
378 1 -1.1104 9.34444 5.56689 18.166
380 1 -1.1104 9.51652 5.64593 15.2428
360 1 -1.1104 12.2947 8.54195 17.8911
302 1 -1.1104 12.4195 2.60915 20.8641
381 1 -1.1104 9.58581 5.82681 20.9561
175 2 2.2208 11.099 -1.40144 13.8554
227 2 2.2208 2.3888 7.10155 13.7852
507 1 -1.1104 6.70186 14.0573 23.6297
324 2 2.2208 5.42671 12.8633 16.6689
326 1 -1.1104 1.10833 14.0815 18.2433
329 1 -1.1104 1.14971 14.0655 15.2693
332 1 -1.1104 1.36667 11.204 18.22
334 2 2.2208 5.32443 10.0308 19.4177
337 1 -1.1104 1.37462 11.4181 15.2173
341 1 -1.1104 4.00959 14.0518 17.9934
343 2 2.2208 2.52804 12.4561 19.4267
345 1 -1.1104 3.68637 13.9726 14.9605
347 2 2.2208 2.72976 10.0586 16.4238
349 1 -1.1104 4.12175 11.5779 18.0249
352 1 -1.1104 4.22525 11.329 15.1993
500 1 -1.1104 12.5224 14.12 26.5566
6940 2 2.2208 -0.27659 9.75126 19.6072
498 2 2.2208 8.11275 12.9502 25.3033
6772 2 2.2208 -0.363975 -1.45168 13.7987
169 2 2.2208 2.40682 1.21216 14.0542
374 1 -1.1104 9.77929 8.37823 15.0964
354 1 -1.1104 6.50684 14.262 15.2089
353 1 -1.1104 6.84081 14.0506 18.0041
356 1 -1.1104 6.91715 11.2545 18.0428
357 1 -1.1104 7.03201 11.418 15.2206
359 2 2.2208 11.0318 12.9634 16.6593
361 1 -1.1104 12.7048 14.1939 18.1984
363 1 -1.1104 12.4351 14.2319 15.1659
365 1 -1.1104 12.5951 11.5447 17.9868
366 2 2.2208 10.9637 9.95216 19.3862
369 1 -1.1104 12.4773 11.2485 15.204
371 1 -1.1104 9.51053 14.2036 18.0722
373 2 2.2208 8.21569 12.7719 19.2721
375 1 -1.1104 9.58678 14.2115 15.3124
377 2 2.2208 8.35184 10.0907 16.6173
379 1 -1.1104 9.88425 11.1874 17.9627
382 1 -1.1104 9.71164 11.4168 15.2804
494 1 -1.1104 12.4262 11.267 20.6947
492 1 -1.1104 12.4586 14.023 21.1269
254 2 2.2208 11.1598 9.94332 13.6874
481 2 2.2208 8.09653 10.0158 22.2918
278 1 -1.1104 4.02225 -2.70092 20.8576
272 1 -1.1104 1.28003 0.1186 20.9901
264 1 -1.1104 1.28307 -2.81611 20.8568
388 2 2.2208 5.51313 1.54626 22.2214
389 1 -1.1104 0.979357 -2.73929 23.7323
392 1 -1.1104 1.06259 -2.72215 26.5533
396 1 -1.1104 1.03677 -0.11655 23.5445
398 2 2.2208 5.379 -1.39081 25.2497
400 1 -1.1104 1.21255 0.00170617 26.6093
402 1 -1.1104 4.09534 -2.89816 23.5624
404 2 2.2208 2.48687 1.36785 25.0175
405 1 -1.1104 3.8405 -3.02434 26.4363
407 2 2.2208 2.65842 -1.2458 22.2348
409 1 -1.1104 3.90284 -0.0248937 23.938
410 1 -1.1104 3.94329 -0.114966 26.8629
7001 2 2.2208 -0.132874 -1.3841 25.1414
195 2 2.2208 10.912 4.13304 13.7903
376 1 -1.1104 9.76747 14.2532 21.0592
300 1 -1.1104 12.7393 -2.98033 20.892
295 1 -1.1104 6.65198 0.169122 20.6726
307 1 -1.1104 12.5382 -0.0524285 20.8405
416 1 -1.1104 6.98912 -2.98253 23.6845
394 1 -1.1104 6.64707 -2.76546 26.6016
401 1 -1.1104 6.76517 -0.0379132 26.4839
397 1 -1.1104 6.81674 0.039775 23.6395
312 1 -1.1104 9.75816 -2.71323 20.7644
417 2 2.2208 10.9467 1.52168 22.2828
418 1 -1.1104 12.2502 -3.10952 23.7999
420 1 -1.1104 12.1383 -2.55883 26.5989
422 1 -1.1104 12.2861 -0.0239907 23.6465
423 2 2.2208 10.9301 -1.14772 25.2041
425 1 -1.1104 12.4416 0.227333 26.4334
426 1 -1.1104 9.6774 -2.9933 23.7223
428 2 2.2208 8.34606 1.20451 25.2415
429 1 -1.1104 9.57869 -2.85844 26.5186
431 2 2.2208 8.18015 -1.71636 22.4871
433 1 -1.1104 9.36097 -0.237013 23.8221
434 1 -1.1104 9.62747 0.0881111 26.8225
449 1 -1.1104 1.15345 8.66304 21.0128
280 1 -1.1104 4.14884 2.99814 20.8616
336 1 -1.1104 0.472853 5.84525 20.9871
487 1 -1.1104 12.5184 11.5269 23.5772
351 1 -1.1104 3.72726 5.75811 20.8273
458 1 -1.1104 3.95709 8.32117 20.6887
390 1 -1.1104 1.03148 2.68207 23.6655
393 1 -1.1104 1.17917 2.73486 26.5202
399 2 2.2208 5.41837 4.05023 25.0256
403 1 -1.1104 4.03192 2.67321 23.6316
406 1 -1.1104 3.90777 2.74752 26.5948
408 2 2.2208 2.36602 4.20594 22.3482
448 1 -1.1104 3.9787 5.72598 26.5982
453 1 -1.1104 4.17762 5.44424 23.6489
454 2 2.2208 2.51759 7.02976 25.28
462 2 2.2208 5.06849 7.15674 22.2516
464 1 -1.1104 0.866442 8.14468 23.8422
469 1 -1.1104 1.31232 5.50808 23.796
474 1 -1.1104 1.05124 5.57171 26.7825
467 1 -1.1104 1.13217 8.60391 26.6491
457 1 -1.1104 3.96174 8.24967 23.6066
445 1 -1.1104 3.75561 8.56933 26.352
391 1 -1.1104 6.82886 2.57656 23.835
508 1 -1.1104 6.64554 8.45632 26.5968
6907 2 2.2208 -0.444647 1.42196 16.5895
451 1 -1.1104 6.7207 8.68306 20.9955
491 1 -1.1104 12.2792 8.71465 20.7826
368 1 -1.1104 12.4539 5.5506 20.7459
496 1 -1.1104 9.44912 8.556 20.7595
339 1 -1.1104 6.6176 5.74393 21.3544
314 1 -1.1104 9.61198 3.17991 20.7334
267 1 -1.1104 6.9926 2.99622 20.7471
471 1 -1.1104 6.96664 5.69559 23.8275
495 1 -1.1104 6.62393 5.51424 26.6347
466 1 -1.1104 6.61043 8.63732 23.7756
395 1 -1.1104 6.86241 2.72339 26.385
505 1 -1.1104 12.4638 8.66878 23.6188
503 1 -1.1104 12.1482 8.66418 26.7487
419 1 -1.1104 12.3689 2.78996 23.8709
421 1 -1.1104 12.4788 2.95018 26.4645
424 2 2.2208 10.8955 4.29066 25.1682
427 1 -1.1104 9.6015 2.51252 23.598
430 1 -1.1104 9.69434 2.97655 26.4543
432 2 2.2208 8.15585 4.14773 22.3033
502 1 -1.1104 9.53269 8.5989 23.8337
478 1 -1.1104 9.56077 5.94877 26.3373
480 1 -1.1104 9.3955 5.29303 23.7005
483 1 -1.1104 12.4666 5.7389 26.6521
486 2 2.2208 10.8205 7.31461 22.1826
488 1 -1.1104 12.127 5.60571 23.6837
499 2 2.2208 8.07099 7.09831 25.2944
489 1 -1.1104 9.35981 8.53226 26.6829
477 1 -1.1104 9.67089 11.2922 26.9146
510 1 -1.1104 6.88304 11.3341 23.8443
450 1 -1.1104 0.843224 13.9216 21.0734
346 1 -1.1104 4.00482 14.0014 21.0384
459 1 -1.1104 3.88534 11.2244 20.8469
455 1 -1.1104 0.950679 11.2603 20.9987
446 2 2.2208 2.50467 12.5004 25.2277
447 1 -1.1104 4.23105 11.3175 26.7192
452 1 -1.1104 4.09214 11.2078 23.8651
456 1 -1.1104 3.65593 14.1009 23.9728
460 1 -1.1104 1.11784 11.2078 26.6884
461 2 2.2208 2.64034 9.84401 22.3076
463 2 2.2208 5.41193 12.7182 22.2903
465 1 -1.1104 0.708015 13.9584 23.9096
468 1 -1.1104 1.17049 14.1957 26.4372
470 1 -1.1104 1.12169 10.9875 23.6052
472 1 -1.1104 4.28199 14.2072 26.5871
473 2 2.2208 5.47076 9.99632 25.1216
493 1 -1.1104 6.96468 11.5017 26.5895
6840 2 2.2208 -0.239909 9.70975 13.9415
506 1 -1.1104 12.6264 11.2172 26.6098
501 1 -1.1104 9.57013 14.0605 23.9766
355 1 -1.1104 6.6638 14.1233 20.8556
485 2 2.2208 10.9906 9.90884 25.4083
482 1 -1.1104 9.74209 13.9854 26.8047
484 2 2.2208 10.8841 12.7463 22.3342
479 1 -1.1104 9.7705 11.2388 23.7141
504 1 -1.1104 12.1809 14.1001 23.7198
7002 2 2.2208 -0.267728 1.51873 22.2548
411 2 2.2208 5.43135 1.42749 27.8603
437 2 2.2208 11.2192 -4.15349 22.0515
7023 2 2.2208 -0.304074 -4.13873 22.3672
228 2 2.2208 2.61258 12.7239 13.8975
6841 2 2.2208 13.6175 4.08657 16.5374
6771 2 2.2208 -0.344822 4.04969 13.7842
514 2 2.2208 5.27903 18.3807 5.40479
516 1 -1.1104 1.13746 19.8379 1.12429
518 1 -1.1104 0.826841 19.7042 3.9043
519 1 -1.1104 0.999681 16.64 0.776643
523 2 2.2208 5.26568 21.4621 2.67235
524 1 -1.1104 1.00673 16.9262 3.90637
526 1 -1.1104 3.90753 19.9251 1.09479
528 2 2.2208 2.47999 18.4204 2.51534
530 1 -1.1104 3.98155 19.8056 3.98891
532 2 2.2208 2.23331 20.9657 5.31873
533 1 -1.1104 3.8701 16.5445 1.0235
536 1 -1.1104 3.76424 17.0811 3.98657
522 2 2.2208 5.30555 15.4752 2.41607
635 2 2.2208 4.96903 15.6727 8.20265
626 2 2.2208 10.7989 29.75 -0.371316
527 1 -1.1104 3.75117 19.8956 6.87422
520 1 -1.1104 0.994277 16.9452 6.67732
539 1 -1.1104 6.71637 20.1052 1.07635
7255 2 2.2208 13.5581 24.041 8.15055
517 1 -1.1104 0.905384 19.7402 6.76037
542 1 -1.1104 6.40999 16.761 6.75867
7619 2 2.2208 13.6089 26.7409 -0.472565
538 2 2.2208 2.50544 15.4018 -0.519672
748 1 -1.1104 12.1209 34.0473 9.74517
540 1 -1.1104 6.54447 19.781 4.07053
541 1 -1.1104 6.71307 17.1603 0.956301
544 1 -1.1104 6.68421 17.0039 3.82777
561 2 2.2208 7.89612 15.5 5.40029
546 2 2.2208 10.9081 18.3313 5.23628
548 1 -1.1104 12.0513 19.852 1.24773
549 1 -1.1104 12.4001 19.8033 3.99597
550 1 -1.1104 12.153 17.1937 1.08527
554 2 2.2208 10.8909 20.9917 2.73227
555 1 -1.1104 12.2854 16.9571 3.88916
557 1 -1.1104 9.32965 19.741 0.988862
558 2 2.2208 8.08983 18.2867 2.40312
560 1 -1.1104 9.55385 19.7899 4.02935
562 2 2.2208 8.13473 21.309 5.38858
563 1 -1.1104 9.54389 16.8421 1.14388
566 1 -1.1104 9.44697 17.0321 3.95398
688 2 2.2208 -0.210203 26.8471 8.17459
927 2 2.2208 8.28921 21.2951 -0.409955
652 1 -1.1104 6.64066 19.6935 7.09005
656 1 -1.1104 9.65843 19.7455 6.58362
515 2 2.2208 5.34574 24.1702 5.21803
521 1 -1.1104 0.626133 22.6627 0.858127
525 1 -1.1104 0.900741 22.5695 3.93858
529 2 2.2208 2.10082 24.0034 2.434
535 1 -1.1104 3.71426 22.6183 0.98771
537 1 -1.1104 3.58721 22.6596 3.77505
570 1 -1.1104 1.17129 25.5694 1.16019
572 1 -1.1104 1.04764 25.4047 3.94674
576 2 2.2208 5.30023 26.9206 2.50962
580 1 -1.1104 4.07992 25.3773 1.056
583 1 -1.1104 3.91724 25.3422 3.64585
585 2 2.2208 2.39047 26.679 5.38801
587 1 -1.1104 3.62871 28.2866 1.28716
589 1 -1.1104 3.70096 28.1874 3.99786
594 1 -1.1104 6.75627 25.5754 1.10112
574 1 -1.1104 0.963077 28.3861 1.25567
600 1 -1.1104 6.61849 28.119 3.90213
7280 2 2.2208 -0.378839 24.0557 11.0735
679 2 2.2208 7.84031 15.5597 11.1876
628 1 -1.1104 4.13453 22.4978 6.48712
692 1 -1.1104 1.03405 28.1889 6.89239
7279 2 2.2208 -0.363218 18.3494 11.1841
7556 2 2.2208 -0.36594 18.3569 -0.465045
545 1 -1.1104 6.82507 22.7873 4.29985
598 1 -1.1104 6.55888 28.0831 0.924591
596 1 -1.1104 6.8897 25.4791 3.96827
543 1 -1.1104 6.63266 22.8089 1.26196
547 2 2.2208 10.8893 24.1515 5.27082
552 1 -1.1104 12.2309 22.6325 0.939046
556 1 -1.1104 12.5059 22.8658 3.7532
559 2 2.2208 8.12053 24.0346 2.66207
565 1 -1.1104 9.57354 22.5835 1.5442
567 1 -1.1104 9.78823 22.4447 4.19944
603 1 -1.1104 12.2986 25.4665 0.942888
605 1 -1.1104 12.1996 25.5931 3.78875
609 2 2.2208 10.7519 26.8187 2.42507
613 1 -1.1104 9.39922 25.3292 1.0216
616 1 -1.1104 9.4612 25.3762 3.80303
618 2 2.2208 8.11306 26.7779 5.44306
607 1 -1.1104 11.9229 28.5919 1.16458
611 1 -1.1104 12.4427 28.2317 3.72516
620 1 -1.1104 9.41587 28.1918 1.20786
655 1 -1.1104 12.2044 22.5952 6.6267
902 2 2.2208 2.48178 21.1787 -0.351435
578 1 -1.1104 0.718498 28.0825 4.06053
569 2 2.2208 5.16925 29.5941 5.67171
571 1 -1.1104 0.865643 30.9885 1.08231
573 1 -1.1104 0.939313 30.9358 3.8835
575 1 -1.1104 1.03801 33.9527 1.1851
577 2 2.2208 5.1378 32.413 2.64744
579 1 -1.1104 0.896753 34.0603 3.84059
581 1 -1.1104 3.77926 30.9969 1.02805
582 2 2.2208 2.16038 29.6458 2.55932
584 1 -1.1104 3.77335 31.1312 4.06069
586 2 2.2208 2.50064 32.5022 5.39053
588 1 -1.1104 3.82195 33.7774 0.822904
590 1 -1.1104 3.84073 33.8747 3.73179
599 1 -1.1104 6.47582 33.7225 1.17884
693 1 -1.1104 0.778793 34.0662 6.75396
625 2 2.2208 7.90293 32.3724 -0.237465
758 1 -1.1104 12.2471 33.6613 12.3504
730 2 2.2208 10.7929 29.628 10.8881
731 1 -1.1104 9.56367 30.9271 9.38692
622 1 -1.1104 9.48819 28.1001 3.76082
597 1 -1.1104 6.59757 31.0095 3.99402
601 1 -1.1104 6.59196 33.77 4.02533
595 1 -1.1104 6.58411 30.9224 1.25784
602 2 2.2208 10.9514 29.6233 4.97557
604 1 -1.1104 12.1456 31.2584 0.92033
606 1 -1.1104 12.3759 31.1657 3.71052
608 1 -1.1104 12.1983 34.0924 1.37353
610 2 2.2208 10.9136 32.4852 2.56641
612 1 -1.1104 12.5237 34.2859 4.49082
614 1 -1.1104 9.5074 30.9285 0.991116
615 2 2.2208 7.89763 29.5404 2.51692
617 1 -1.1104 9.48121 30.9619 3.75587
619 2 2.2208 7.90034 32.3298 5.4292
621 1 -1.1104 9.3015 33.7484 1.29483
623 1 -1.1104 9.40805 33.6457 3.88832
744 1 -1.1104 9.39611 31.0588 6.52726
7162 2 2.2208 -0.362906 18.3324 5.41925
925 2 2.2208 10.7665 18.3708 -0.252735
534 1 -1.1104 3.6743 17.3029 6.70733
740 1 -1.1104 12.1708 30.9042 6.63044
985 2 2.2208 8.08047 26.8035 -0.277979
629 2 2.2208 5.30659 18.403 11.1772
631 1 -1.1104 0.977607 19.7819 12.5046
632 1 -1.1104 0.765094 19.7203 9.78719
633 1 -1.1104 1.11956 17.1644 12.3724
636 2 2.2208 5.43048 21.2049 8.38494
637 1 -1.1104 1.31059 16.957 9.39953
639 1 -1.1104 3.78102 19.9297 12.3062
640 2 2.2208 2.51503 18.5199 8.29969
642 1 -1.1104 3.71567 19.7634 9.6594
644 2 2.2208 2.38754 21.4743 11.1526
645 1 -1.1104 3.85894 17.149 12.6066
647 1 -1.1104 3.7088 17.0929 9.82203
687 2 2.2208 -0.506878 29.8293 11.0116
663 1 -1.1104 6.36581 16.9273 9.82657
955 2 2.2208 5.23813 29.7924 -0.2118
591 2 2.2208 2.40464 32.5947 -0.369182
7328 2 2.2208 13.6731 32.4838 10.8937
551 1 -1.1104 12.4181 17.1886 6.50095
654 1 -1.1104 12.3894 19.707 7.08007
564 1 -1.1104 9.464 16.7473 6.78454
726 2 2.2208 8.14402 32.2357 11.0864
7161 2 2.2208 -0.488672 15.4921 2.45117
7648 2 2.2208 -0.440124 29.4862 -0.259369
661 1 -1.1104 6.48124 17.1136 12.6122
660 1 -1.1104 6.72339 19.74 9.71184
659 1 -1.1104 6.66209 20.0277 12.5548
568 2 2.2208 8.23805 15.4132 -0.139828
665 2 2.2208 10.7622 18.3013 11.0598
667 1 -1.1104 12.4798 19.7469 12.5592
668 1 -1.1104 12.3525 19.4299 9.73878
669 1 -1.1104 12.48 17.0699 12.0759
672 2 2.2208 10.7901 21.0883 8.21615
673 1 -1.1104 12.3158 16.8108 9.1314
675 1 -1.1104 9.50219 19.6581 12.302
676 2 2.2208 7.93361 18.141 8.15796
678 1 -1.1104 9.25565 19.8303 9.38188
680 2 2.2208 8.10047 21.1831 11.1393
681 1 -1.1104 9.69673 16.7771 12.4166
683 1 -1.1104 9.33053 16.8037 9.81547
553 2 2.2208 10.9901 15.6346 2.50214
723 1 -1.1104 9.52773 28.2307 12.2868
690 1 -1.1104 1.13101 25.3207 6.79642
735 1 -1.1104 6.65595 28.2501 6.74656
698 1 -1.1104 3.63495 28.29 6.81735
746 1 -1.1104 9.33513 33.8023 6.56725
627 1 -1.1104 1.11905 22.4951 6.72987
694 1 -1.1104 4.03787 25.3354 6.70943
630 2 2.2208 5.05082 24.0499 11.0921
634 1 -1.1104 0.961227 22.8552 12.4398
638 1 -1.1104 1.04583 22.6808 9.43687
641 2 2.2208 2.46107 23.9137 7.9711
646 1 -1.1104 3.46564 22.8143 12.7856
648 1 -1.1104 3.67786 22.7138 9.61767
702 2 2.2208 2.2792 26.8508 11.1709
704 1 -1.1104 0.933399 25.5397 12.9367
706 1 -1.1104 1.05245 25.2621 9.82151
710 2 2.2208 5.24677 26.7124 8.16911
714 1 -1.1104 3.87935 25.4909 12.5506
717 1 -1.1104 3.62126 25.45 9.65378
696 1 -1.1104 3.65471 28.4524 9.60365
752 1 -1.1104 6.87032 25.7015 12.6881
712 1 -1.1104 0.872645 28.1788 9.79287
662 1 -1.1104 6.37319 22.874 12.6892
756 1 -1.1104 6.5857 28.3798 12.1763
954 2 2.2208 2.41025 26.9139 -0.257997
733 1 -1.1104 6.71054 25.3207 6.8494
759 1 -1.1104 12.4106 28.1364 12.395
664 1 -1.1104 6.40956 22.3575 10.2607
754 1 -1.1104 6.3785 25.2108 9.61314
653 1 -1.1104 6.64514 22.6361 6.84456
739 1 -1.1104 12.3172 25.2961 6.66836
658 1 -1.1104 9.64569 22.6159 6.88217
743 1 -1.1104 9.4887 25.3452 6.67317
741 1 -1.1104 12.3888 28.0071 7.01187
721 1 -1.1104 9.61905 28.1639 9.50782
666 2 2.2208 11.0784 23.8703 11.1259
670 1 -1.1104 12.3125 22.311 12.642
674 1 -1.1104 12.0822 22.5938 9.57286
677 2 2.2208 7.98352 24.068 8.34028
682 1 -1.1104 9.69226 22.4393 12.3871
684 1 -1.1104 9.34817 22.5305 9.58048
725 1 -1.1104 11.9111 25.4059 9.54317
727 2 2.2208 8.07415 26.894 10.9012
729 1 -1.1104 12.6281 25.3302 12.5781
732 1 -1.1104 9.19372 25.5345 9.59515
747 1 -1.1104 9.74895 25.471 12.5271
751 2 2.2208 10.8876 26.8575 8.13465
749 1 -1.1104 12.2359 28.1222 9.64443
722 1 -1.1104 9.27321 33.6675 12.3652
753 1 -1.1104 6.60341 30.9909 12.5907
695 1 -1.1104 3.95591 31.1562 6.81499
691 1 -1.1104 0.965797 31.0356 6.59728
761 1 -1.1104 6.49496 33.9558 9.42668
736 1 -1.1104 6.50609 33.7376 6.58844
724 1 -1.1104 12.3794 31.0771 9.41467
700 1 -1.1104 3.81076 28.2278 12.4306
757 1 -1.1104 6.66698 34.0036 12.3613
708 1 -1.1104 1.08766 28.3683 12.4032
699 1 -1.1104 3.71668 33.9355 6.71986
689 1 -1.1104 3.71038 33.8556 9.67877
697 1 -1.1104 3.66109 34.2602 12.3871
701 2 2.2208 2.19558 32.6647 11.0302
703 2 2.2208 5.32655 29.8078 10.9675
705 1 -1.1104 1.01775 31.3472 12.6264
707 1 -1.1104 1.0019 31.3682 9.36673
709 1 -1.1104 0.601288 33.8038 12.3497
711 2 2.2208 5.27726 32.3764 8.17544
713 1 -1.1104 0.747479 34.0662 9.49372
715 1 -1.1104 3.86381 31.2451 12.4745
716 2 2.2208 2.29808 29.8454 8.34294
718 1 -1.1104 3.7199 31.1432 9.75893
755 1 -1.1104 6.8242 31.1222 9.4368
760 1 -1.1104 6.76177 28.0843 9.29101
738 1 -1.1104 9.42732 30.7918 12.5429
750 2 2.2208 10.794 32.4765 8.1683
728 1 -1.1104 12.2062 30.9298 12.4257
737 2 2.2208 8.29249 29.4982 8.033
745 1 -1.1104 9.65073 28.0744 6.52118
734 1 -1.1104 6.48623 30.9456 6.82753
742 1 -1.1104 12.0089 33.9559 7.14385
720 1 -1.1104 9.34999 33.8176 9.4638
531 2 2.2208 2.41123 15.6802 5.22631
671 2 2.2208 10.7234 15.4808 8.32845
926 2 2.2208 10.9822 24.0765 -0.242071
657 2 2.2208 13.6438 15.3369 11.0063
643 2 2.2208 2.42521 15.4106 11.0046
7195 2 2.2208 13.5984 29.6066 2.28063
7219 2 2.2208 -0.31767 26.7513 2.58683
7164 2 2.2208 13.6419 32.4475 -0.299852
7523 2 2.2208 13.5083 21.1649 -0.381177
7131 2 2.2208 13.6018 18.2566 2.37152
7132 2 2.2208 13.6202 21.0353 5.5945
904 2 2.2208 5.36073 18.5294 -0.451414
903 2 2.2208 5.28702 24.2104 -0.351757
762 2 2.2208 5.08846 18.3123 16.9543
764 1 -1.1104 1.00026 19.8284 18.1371
765 1 -1.1104 0.825636 19.837 15.3706
767 1 -1.1104 0.91296 17.026 18.1235
770 2 2.2208 5.36543 21.1342 19.826
771 1 -1.1104 0.867201 17.1003 15.403
775 1 -1.1104 3.65934 19.4694 18.22
776 2 2.2208 2.4835 18.1349 19.6109
778 1 -1.1104 3.75355 19.7224 15.3187
781 2 2.2208 2.25672 21.1466 16.6305
782 1 -1.1104 3.77202 16.8083 18.0834
784 1 -1.1104 3.74665 16.7978 15.3876
779 1 -1.1104 3.70844 19.7885 20.8415