ITEM: TIMESTEP
10000
ITEM: NUMBER OF ATOMS
13500
ITEM: BOX BOUNDS pp pp pp
-4.8160421848624407e-01 2.7821604218485760e+01
-4.4003071822198478e+00 2.5046030718222050e+02
-4.9346260380087309e-01 2.7833462603800719e+01
ITEM: ATOMS id type q x y z
2 2 2.2208 4.94218 1.34184 5.20247
3 1 -1.1104 0.824773 -2.88614 0.958717
11 1 -1.1104 0.903624 -2.75535 3.59526
15 1 -1.1104 1.0498 -0.138237 1.15034
19 2 2.2208 5.02533 -1.4782 2.30265
21 1 -1.1104 0.853701 0.174304 3.90232
23 1 -1.1104 3.66204 -3.03987 1.13002
28 2 2.2208 2.35119 1.32228 2.29109
29 1 -1.1104 3.70061 -2.89705 3.85514
31 2 2.2208 2.40488 -1.39866 5.14441
33 1 -1.1104 3.91806 -0.262542 0.84604
35 1 -1.1104 3.82895 -0.171078 3.88845
96 2 2.2208 2.24851 9.82192 -0.413228
95 2 2.2208 5.02717 12.6236 -0.291413
4 1 -1.1104 0.868477 -2.91407 6.74642
24 1 -1.1104 3.81575 -2.98088 6.57349
436 2 2.2208 8.13617 4.12359 -0.343511
227 2 2.2208 2.4215 6.78474 13.6393
6595 2 2.2208 13.6564 -1.60295 5.17541
144 2 2.2208 10.8728 6.9283 -0.375611
233 1 -1.1104 12.2657 14.1041 12.5358
27 2 2.2208 2.0282 -4.39776 2.50626
61 2 2.2208 7.97894 -4.24766 2.27312
22 1 -1.1104 6.43791 -0.0127738 3.67349
7 1 -1.1104 6.64745 -2.91089 0.855352
17 1 -1.1104 6.68698 -0.0181733 0.7056
13 1 -1.1104 6.61121 -2.98981 3.90054
36 2 2.2208 10.6886 1.08547 5.25903
37 1 -1.1104 12.4342 -2.83652 1.03412
41 1 -1.1104 12.1935 -3.29452 3.89544
43 1 -1.1104 12.295 -0.114465 1.17215
45 2 2.2208 10.6122 -1.56676 2.57343
47 1 -1.1104 12.3348 -0.25059 4.00278
48 1 -1.1104 9.40999 -3.00893 1.05751
52 2 2.2208 7.96832 1.28056 2.41343
53 1 -1.1104 9.28946 -2.87534 3.81758
55 2 2.2208 7.95522 -1.69806 5.33112
57 1 -1.1104 9.34078 -0.209672 1.24382
59 1 -1.1104 9.2981 -0.242612 4.00329
8 1 -1.1104 6.49169 -2.98035 6.69853
44 1 -1.1104 12.011 -0.1829 6.87226
58 1 -1.1104 9.39998 0.0433727 6.66605
244 1 -1.1104 12.1091 11.3968 12.1604
143 2 2.2208 8.1293 9.89285 -0.462228
5 1 -1.1104 1.1028 2.92268 1.34869
12 1 -1.1104 0.402746 2.97132 4.16051
20 2 2.2208 5.05269 4.13419 2.23465
25 1 -1.1104 3.89997 2.49132 0.778069
30 1 -1.1104 3.47077 2.72661 3.78797
32 2 2.2208 2.29448 4.07794 5.23319
63 2 2.2208 5.33866 7.09301 5.25907
70 1 -1.1104 0.645926 8.17547 3.55953
72 1 -1.1104 0.902569 5.76783 0.618744
78 1 -1.1104 0.963651 5.80859 3.8307
84 2 2.2208 2.51926 6.88507 2.04696
86 1 -1.1104 3.9546 8.22955 3.31176
89 1 -1.1104 3.85567 5.53922 0.923747
93 1 -1.1104 3.86804 5.51013 3.72636
65 1 -1.1104 0.983563 8.36271 0.705897
80 1 -1.1104 3.73347 8.29037 0.630024
6743 2 2.2208 13.6253 -1.63342 11.0516
235 1 -1.1104 9.37444 14.0352 9.49146
246 1 -1.1104 12.1893 11.2839 9.3519
145 2 2.2208 13.6974 9.68304 -0.48617
104 1 -1.1104 6.53279 5.54629 0.795963
435 2 2.2208 10.9734 1.22635 -0.303699
102 1 -1.1104 6.62698 8.33426 4.02635
9 1 -1.1104 6.92637 2.66609 1.14784
107 1 -1.1104 6.84366 5.33985 3.5769
14 1 -1.1104 6.06404 2.81457 3.92128
39 1 -1.1104 12.1637 2.58806 0.948559
42 1 -1.1104 12.2799 2.62722 3.98422
46 2 2.2208 11.0099 4.22463 2.44216
50 1 -1.1104 9.43294 2.77841 1.00706
54 1 -1.1104 9.30969 2.49382 3.81036
56 2 2.2208 7.8997 3.95708 4.9377
109 2 2.2208 10.7265 6.99985 5.2344
111 1 -1.1104 12.1167 8.29102 1.09987
115 1 -1.1104 11.995 8.6264 3.94381
117 1 -1.1104 12.3158 5.56428 1.0506
122 1 -1.1104 12.4453 5.58248 3.81882
124 1 -1.1104 9.34641 8.07792 1.16491
128 2 2.2208 7.99369 6.90825 2.3424
130 1 -1.1104 9.30288 8.28275 3.88627
133 1 -1.1104 9.53362 5.52179 0.853794
137 1 -1.1104 9.71366 5.45371 3.9681
99 1 -1.1104 6.3939 8.17959 0.969192
241 2 2.2208 8.01311 12.5174 8.0743
252 1 -1.1104 6.60399 13.8844 9.504
259 2 2.2208 13.6599 12.7314 13.6895
1 2 2.2208 4.89928 -4.38981 5.08104
442 2 2.2208 10.976 -4.16625 -0.383062
64 2 2.2208 5.14781 12.509 5.33516
67 1 -1.1104 0.671495 13.8249 1.01003
71 1 -1.1104 0.879589 13.9521 3.77896
74 1 -1.1104 0.812369 11.1996 0.900422
77 2 2.2208 5.40379 9.69884 2.42806
79 1 -1.1104 0.760165 11.0259 3.90979
82 1 -1.1104 3.36302 13.9686 0.655254
85 2 2.2208 2.26767 12.4025 2.54037
87 1 -1.1104 3.98171 13.8202 3.52186
88 2 2.2208 2.32708 9.58017 4.8869
91 1 -1.1104 3.69634 11.2454 1.16064
94 1 -1.1104 3.72521 11.1493 3.94836
105 1 -1.1104 6.97569 11.0169 1.39371
103 1 -1.1104 6.63233 13.7742 4.04277
6750 2 2.2208 -0.331675 -1.41112 8.22301
444 2 2.2208 8.01521 -1.49001 -0.384748
125 1 -1.1104 9.58225 8.34049 6.61803
6740 2 2.2208 13.4994 4.15684 10.9113
108 1 -1.1104 6.55644 11.1656 4.05226
100 1 -1.1104 6.47614 13.8355 1.17856
110 2 2.2208 10.8048 12.7525 5.13862
113 1 -1.1104 12.3227 14.1019 0.991388
116 1 -1.1104 12.2697 14.154 4.02906
119 1 -1.1104 12.205 11.0978 0.65839
121 2 2.2208 10.8074 9.88571 2.26712
123 1 -1.1104 12.2075 11.4059 3.64736
126 1 -1.1104 9.60294 13.8643 1.22429
129 2 2.2208 8.16456 12.6011 2.40252
131 1 -1.1104 9.28504 14.0409 3.97798
132 2 2.2208 8.08376 9.68709 5.29518
135 1 -1.1104 9.42346 11.0652 0.870237
138 1 -1.1104 9.29127 11.1148 3.70835
234 2 2.2208 7.99352 9.7574 10.7196
199 1 -1.1104 6.67058 10.8134 9.31903
237 2 2.2208 10.802 12.6877 10.9869
16 1 -1.1104 0.930389 0.033991 6.81539
34 1 -1.1104 3.6367 0.0843025 6.75601
146 2 2.2208 5.2669 1.35733 10.9898
147 1 -1.1104 1.1761 -2.97212 12.4468
150 1 -1.1104 1.12271 -2.81439 9.76622
154 1 -1.1104 0.556897 -0.0254137 12.5933
156 2 2.2208 4.99503 -1.40399 8.16247
158 1 -1.1104 0.914695 -0.124279 9.79265
160 1 -1.1104 4.09788 -2.74139 12.6804
162 2 2.2208 2.45015 1.48524 8.04291
163 1 -1.1104 3.56643 -2.66334 9.49986
165 2 2.2208 2.49511 -1.58977 11.1798
167 1 -1.1104 3.88363 0.0396933 12.3941
168 1 -1.1104 3.71045 0.123696 9.53308
18 1 -1.1104 6.60369 -0.390085 6.66645
152 1 -1.1104 6.57776 -2.98443 9.37257
172 2 2.2208 2.35969 -4.0055 8.13363
228 2 2.2208 2.3005 12.5801 13.4628
38 1 -1.1104 12.3528 -3.07279 6.74658
49 1 -1.1104 9.50969 -3.01098 6.7578
6840 2 2.2208 -0.277794 9.57902 13.4935
149 1 -1.1104 6.58978 -2.97138 12.0357
159 1 -1.1104 6.45547 -0.0219231 9.42742
155 1 -1.1104 6.50737 -0.100999 12.3584
177 2 2.2208 10.8481 1.41831 10.9531
178 1 -1.1104 12.1579 -3.13445 12.4627
180 1 -1.1104 12.2411 -2.95439 9.48426
182 1 -1.1104 12.314 -0.254068 12.267
183 2 2.2208 10.8088 -1.54747 8.18315
185 1 -1.1104 12.1228 -0.00368046 9.63162
186 1 -1.1104 9.34651 -3.09573 12.2147
188 2 2.2208 8.05022 1.45494 7.98583
189 1 -1.1104 9.44021 -2.93326 9.4062
191 2 2.2208 7.75827 -1.51043 10.8242
193 1 -1.1104 9.18412 -0.450311 12.6152
194 1 -1.1104 9.1925 0.0402635 9.76777
248 1 -1.1104 12.3352 14.0595 9.51433
197 2 2.2208 10.829 -4.31468 10.8077
229 1 -1.1104 9.57667 11.3083 9.45255
81 1 -1.1104 3.68753 8.38858 6.25216
90 1 -1.1104 3.49109 5.48428 6.59384
243 1 -1.1104 9.52188 14.0551 12.3583
73 1 -1.1104 0.928867 5.79075 6.42696
66 1 -1.1104 0.770981 8.60799 6.45575
6 1 -1.1104 0.758057 2.8587 6.71954
26 1 -1.1104 3.6985 2.90367 6.61452
148 1 -1.1104 1.19366 2.68736 12.1553
151 1 -1.1104 0.936721 2.64412 9.43207
157 2 2.2208 5.01413 4.20832 7.98714
161 1 -1.1104 4.05223 2.94234 12.2558
164 1 -1.1104 4.06761 2.85275 9.61849
166 2 2.2208 2.45843 4.06719 10.9129
198 1 -1.1104 3.75509 8.25411 12.1738
201 1 -1.1104 4.01841 5.73684 9.46041
203 1 -1.1104 3.64909 5.50702 12.3003
208 2 2.2208 2.10362 6.8932 7.83028
210 2 2.2208 5.28531 6.73731 10.8759
212 1 -1.1104 0.936109 8.04619 12.2814
215 1 -1.1104 0.718342 8.1149 9.3218
218 1 -1.1104 0.646859 4.99469 11.9347
223 1 -1.1104 1.00904 5.45696 9.35704
206 1 -1.1104 3.40726 8.28808 9.10627
76 1 -1.1104 6.22776 5.57902 6.59964
153 1 -1.1104 6.59778 2.86713 9.59502
225 1 -1.1104 6.67887 5.54647 9.44332
69 1 -1.1104 6.81213 8.35285 6.72702
10 1 -1.1104 6.39578 2.73617 6.81207
221 1 -1.1104 6.57256 11.1754 12.224
112 1 -1.1104 12.1156 8.24205 6.72613
40 1 -1.1104 12.1715 2.80227 6.66401
134 1 -1.1104 9.19167 5.56518 6.41798
214 1 -1.1104 6.60121 8.43852 12.5814
176 1 -1.1104 6.90957 2.74381 12.5851
118 1 -1.1104 12.0945 5.34979 6.57678
51 1 -1.1104 9.36398 2.74015 6.72666
220 1 -1.1104 6.58661 5.51333 12.7205
217 1 -1.1104 6.48833 8.34522 9.6372
250 1 -1.1104 12.1197 5.70701 9.52896
249 1 -1.1104 12.2453 8.56158 9.547
179 1 -1.1104 11.9405 2.66145 12.5283
181 1 -1.1104 12.0886 2.75016 9.47156
184 2 2.2208 10.819 3.98398 7.99941
187 1 -1.1104 9.31101 2.82877 12.3074
190 1 -1.1104 9.44519 2.96586 9.67256
192 2 2.2208 7.93359 4.23143 10.9126
247 1 -1.1104 12.1235 5.50275 12.3223
230 1 -1.1104 9.43181 5.56865 9.35553
232 1 -1.1104 9.3871 5.5601 12.4568
236 1 -1.1104 12.3566 8.5625 12.2942
238 2 2.2208 10.8827 7.05635 10.8424
240 1 -1.1104 9.43773 8.39488 9.47034
242 2 2.2208 8.06817 6.83657 7.94848
245 1 -1.1104 9.59911 8.38268 12.2549
239 2 2.2208 10.7176 9.99214 8.04018
83 1 -1.1104 3.78282 14.0525 6.64543
92 1 -1.1104 3.77732 11.1269 6.71193
75 1 -1.1104 0.920399 11.3679 6.6387
6771 2 2.2208 -0.391277 4.30512 13.6946
68 1 -1.1104 0.955581 14.1103 6.59194
200 1 -1.1104 4.02619 10.8072 9.76957
202 1 -1.1104 3.62265 11.2309 12.2893
204 2 2.2208 2.33263 9.65897 10.85
205 1 -1.1104 3.76765 13.5569 9.24994
207 2 2.2208 2.35952 12.5024 7.92505
209 1 -1.1104 3.8261 14.0665 12.2005
211 2 2.2208 5.11526 12.6142 10.8351
213 1 -1.1104 0.871035 13.9201 12.2526
216 1 -1.1104 1.1317 13.9356 9.63234
219 1 -1.1104 1.0355 10.9417 12.1366
222 2 2.2208 4.98735 9.48888 7.90821
224 1 -1.1104 0.819102 11.1074 9.49413
101 1 -1.1104 6.63103 14.1723 6.82492
6594 2 2.2208 13.5313 4.0075 5.23551
127 1 -1.1104 9.32455 13.9209 6.80758
106 1 -1.1104 6.74828 11.4735 6.50886
120 1 -1.1104 12.2732 11.3288 6.48016
136 1 -1.1104 9.42637 11.1242 6.38236
231 1 -1.1104 9.39957 11.4619 12.4518
251 1 -1.1104 6.46121 14.0803 12.4214
114 1 -1.1104 12.0952 14.0949 6.69384
196 2 2.2208 8.24231 -4.39219 7.93296
6751 2 2.2208 -0.393541 1.51241 10.9018
258 2 2.2208 13.5348 9.86854 10.9367
256 2 2.2208 13.5006 6.92262 7.98023
257 2 2.2208 13.5878 12.5144 8.10083
7003 2 2.2208 -0.407862 1.1765 -0.298216
7024 2 2.2208 -0.304405 -4.30199 -0.506609
6835 2 2.2208 -0.485912 12.6809 10.8638
6715 2 2.2208 13.4677 1.21507 8.13013
6627 2 2.2208 -0.444885 4.26804 2.56427
141 2 2.2208 13.5201 9.77229 5.29752
142 2 2.2208 10.8817 12.6244 -0.432552
169 2 2.2208 2.41486 1.1645 13.6906
415 2 2.2208 2.38223 -1.56637 -0.434173
226 2 2.2208 5.02214 9.76016 13.6234
260 2 2.2208 5.04745 1.12544 16.5091
261 1 -1.1104 0.759538 -2.84013 17.9723
263 1 -1.1104 1.16136 -3.11283 15.2841
268 1 -1.1104 0.957672 -0.16522 18.1351
269 2 2.2208 5.24639 -1.76053 19.4413
271 1 -1.1104 0.997888 -0.254504 15.2983
273 1 -1.1104 3.68832 -3.01271 18.2662
276 2 2.2208 2.44222 1.19874 19.4838
277 1 -1.1104 3.73961 -2.82722 15.4121
281 2 2.2208 2.4373 -1.59368 16.7599
283 1 -1.1104 3.80137 -0.00566313 18.1081
284 1 -1.1104 3.70748 -0.145637 15.1739
174 2 2.2208 8.28372 1.41803 13.8395
412 2 2.2208 5.34644 -4.37034 22.3013
288 1 -1.1104 6.63494 -3.22009 17.7913
294 1 -1.1104 6.51075 -0.230805 15.5439
97 2 2.2208 5.23628 6.785 27.7156
6907 2 2.2208 -0.386824 1.28647 16.3742
286 2 2.2208 5.05712 -4.31959 16.6873
948 2 2.2208 7.97171 15.1446 22.254
278 1 -1.1104 3.76148 -2.85572 21.025
290 1 -1.1104 6.6165 -3.10903 14.9152
293 1 -1.1104 6.88353 -0.343747 18.1262
296 2 2.2208 10.9081 1.31006 16.6977
297 1 -1.1104 12.3854 -2.96519 18.0707
299 1 -1.1104 12.4207 -2.98974 15.2786
303 1 -1.1104 12.1662 -0.256693 18.0302
304 2 2.2208 10.8346 -1.67509 19.4396
306 1 -1.1104 12.1361 -0.218485 15.2001
308 1 -1.1104 9.48231 -2.95702 18.0988
310 2 2.2208 8.0048 1.3681 19.4343
311 1 -1.1104 9.53766 -2.94473 15.3016
315 2 2.2208 8.18151 -1.4938 16.6445
317 1 -1.1104 9.58915 -0.156015 18.1062
318 1 -1.1104 9.28204 0.0900871 15.3156
485 2 2.2208 10.8969 9.53099 25.2098
312 1 -1.1104 9.52313 -2.94381 20.7841
307 1 -1.1104 12.5435 -0.0286366 20.9298
7001 2 2.2208 -0.31419 -1.48944 25.0869
484 2 2.2208 10.7192 12.3852 22.5248
262 1 -1.1104 0.927027 2.5887 17.9834
265 1 -1.1104 1.11557 2.6716 15.2889
270 2 2.2208 5.26022 3.9925 19.4244
274 1 -1.1104 3.5534 2.6461 18.2278
279 1 -1.1104 3.66332 2.55397 15.0627
282 2 2.2208 2.34285 4.0087 16.5874
323 2 2.2208 5.23066 6.83377 16.5985
325 1 -1.1104 0.811985 8.25175 17.8758
328 1 -1.1104 0.868619 8.20651 15.1904
331 1 -1.1104 1.09477 5.45158 17.7657
335 1 -1.1104 1.03449 5.43223 14.8992
340 1 -1.1104 3.99923 8.20442 17.9588
342 2 2.2208 2.39493 6.95303 19.2935
348 1 -1.1104 3.78122 5.60999 17.7794
350 1 -1.1104 3.91805 5.7534 14.9132
344 1 -1.1104 3.47899 8.52054 14.8256
479 1 -1.1104 9.34474 11.0723 24.0683
287 2 2.2208 2.57656 -4.25048 13.7574
267 1 -1.1104 6.42575 2.59135 20.7382
6957 2 2.2208 -0.336689 12.4838 16.4387
292 1 -1.1104 6.62526 2.5796 15.2208
338 1 -1.1104 6.4344 5.19277 15.4059
289 1 -1.1104 6.50131 2.15792 17.94
327 1 -1.1104 6.68942 8.30157 18.1331
333 1 -1.1104 6.63245 5.38627 18.0053
298 1 -1.1104 12.4586 2.46741 17.8571
301 1 -1.1104 12.192 2.89 15.3779
305 2 2.2208 10.7929 3.93861 19.4633
309 1 -1.1104 9.4389 2.6935 18.1703
313 1 -1.1104 9.56484 2.82713 15.2539
316 2 2.2208 8.08023 3.94063 16.6628
358 2 2.2208 10.9512 6.93355 16.5884
360 1 -1.1104 12.3509 8.05691 18.0423
362 1 -1.1104 12.3532 8.42358 15.1221
364 1 -1.1104 12.1668 5.15863 17.863
367 1 -1.1104 12.3455 5.76675 15.1991
370 1 -1.1104 9.46667 8.15043 18.0916
372 2 2.2208 7.85765 6.72519 19.3205
378 1 -1.1104 9.45063 5.40284 17.9336
380 1 -1.1104 9.36488 5.60637 15.2079
330 1 -1.1104 6.41617 8.41516 15.3683
374 1 -1.1104 9.3781 8.49846 15.2021
381 1 -1.1104 9.36093 5.26865 20.8354
506 1 -1.1104 11.997 11.0091 26.4661
195 2 2.2208 10.8595 4.2579 13.7456
171 2 2.2208 5.17102 4.08891 13.8199
324 2 2.2208 5.02546 12.5681 16.2734
326 1 -1.1104 0.97639 14.0641 18.0711
329 1 -1.1104 1.00978 14.1349 15.0123
332 1 -1.1104 1.0019 11.1262 17.6264
334 2 2.2208 5.30016 9.56434 19.2419
337 1 -1.1104 0.715989 11.2281 14.8347
341 1 -1.1104 3.70881 14.0022 17.8159
343 2 2.2208 2.45633 12.4218 19.2383
345 1 -1.1104 3.82576 14.2284 15.066
347 2 2.2208 2.18683 9.64987 16.3265
349 1 -1.1104 3.83133 11.073 17.7605
352 1 -1.1104 3.55005 11.3416 14.9327
320 2 2.2208 10.9657 -4.34788 16.5496
475 2 2.2208 -0.497682 9.6508 25.2649
7002 2 2.2208 -0.51617 1.31695 22.4331
413 2 2.2208 2.70521 -4.3643 25.0075
354 1 -1.1104 6.65626 14.1637 15.0824
356 1 -1.1104 6.54643 11.2812 17.8397
353 1 -1.1104 6.58964 13.966 17.8253
357 1 -1.1104 6.29812 11.1106 15.1532
359 2 2.2208 10.7079 12.6424 16.5372
361 1 -1.1104 12.0691 13.8913 18.0617
363 1 -1.1104 12.2705 14.0139 15.3902
365 1 -1.1104 11.9899 11.0903 18.011
366 2 2.2208 10.9996 9.56954 19.4854
369 1 -1.1104 12.0782 11.134 15.36
371 1 -1.1104 9.29393 13.9002 18.0187
373 2 2.2208 8.17369 12.4195 19.4973
375 1 -1.1104 9.34381 14.0623 14.9853
377 2 2.2208 7.95965 9.71334 16.6728
379 1 -1.1104 9.47345 10.9872 18.3684
382 1 -1.1104 9.23445 11.2632 15.5914
384 2 2.2208 13.4324 12.3495 19.5129
355 1 -1.1104 6.54268 13.8248 20.6104
254 2 2.2208 10.9148 9.90083 13.7357
285 1 -1.1104 3.50576 -0.0980509 21.1252
272 1 -1.1104 0.517739 -0.195182 21.0503
477 1 -1.1104 9.34276 11.3987 26.6291
264 1 -1.1104 0.9604 -2.93398 20.8786
387 2 2.2208 2.23776 4.32992 27.816
388 2 2.2208 5.03322 1.26539 22.4581
389 1 -1.1104 0.972157 -3.10331 23.6978
392 1 -1.1104 1.05578 -2.86825 26.554
396 1 -1.1104 1.06693 -0.194519 23.8205
398 2 2.2208 5.50035 -1.64917 24.9977
400 1 -1.1104 1.32193 -0.0522303 26.7435
402 1 -1.1104 3.95925 -2.89289 23.7009
404 2 2.2208 2.29112 1.36027 25.265
405 1 -1.1104 3.94553 -3.15583 26.4873
407 2 2.2208 2.28163 -1.68064 22.3143
409 1 -1.1104 4.13527 -0.210847 23.926
410 1 -1.1104 3.98176 -0.325631 26.7116
401 1 -1.1104 6.85928 0.0210883 26.3134
416 1 -1.1104 6.73387 -2.92172 23.555
170 2 2.2208 5.28344 -1.45988 13.8706
411 2 2.2208 5.27842 1.2186 27.7007
321 2 2.2208 8.19106 -4.27936 19.3185
394 1 -1.1104 6.67156 -2.85846 26.6258
295 1 -1.1104 6.62568 -0.166563 20.9558
319 1 -1.1104 9.34082 0.0151145 21.0569
291 1 -1.1104 6.45829 -3.20334 20.7405
300 1 -1.1104 12.3227 -2.79995 20.6753
397 1 -1.1104 6.95784 -0.328973 23.5878
417 2 2.2208 10.9793 1.36648 22.1289
418 1 -1.1104 12.3046 -3.22946 23.7287
420 1 -1.1104 12.7328 -3.03673 26.3532
422 1 -1.1104 12.2562 -0.0952594 23.5979
423 2 2.2208 10.8025 -1.50556 25.1134
425 1 -1.1104 12.3849 -0.101095 26.7306
426 1 -1.1104 9.49799 -2.89466 23.4932
428 2 2.2208 8.11872 1.20348 24.9891
429 1 -1.1104 9.69357 -2.83127 26.3852
431 2 2.2208 7.99157 -1.6379 22.1829
433 1 -1.1104 9.71981 -0.110395 23.7002
434 1 -1.1104 9.57119 -0.343447 26.7124
805 2 2.2208 10.7732 15.2024 19.6485
280 1 -1.1104 3.7702 2.6985 20.9725
336 1 -1.1104 0.851429 5.32565 20.655
266 1 -1.1104 1.1312 2.74126 20.7679
458 1 -1.1104 3.96948 8.15901 20.6229
383 2 2.2208 13.6202 9.87427 16.5755
6873 2 2.2208 13.6214 -1.50763 16.4838
351 1 -1.1104 3.77461 5.39331 20.7005
449 1 -1.1104 1.11212 8.22083 20.755
390 1 -1.1104 0.896077 2.5076 23.9647
393 1 -1.1104 1.06044 2.55299 26.9796
399 2 2.2208 5.34956 4.0938 24.8853
403 1 -1.1104 3.81721 2.44532 23.736
406 1 -1.1104 3.63097 2.75358 26.2651
408 2 2.2208 2.39547 3.91941 22.3147
445 1 -1.1104 3.50696 8.2354 26.1169
448 1 -1.1104 3.86174 5.57411 26.3273
453 1 -1.1104 3.92475 5.3644 23.4036
454 2 2.2208 2.26271 6.83952 24.9223
457 1 -1.1104 3.59786 7.99633 23.4351
462 2 2.2208 5.21272 6.87842 22.1031
464 1 -1.1104 0.756965 8.04368 23.6122
469 1 -1.1104 0.853385 5.19816 23.5376
474 1 -1.1104 0.829432 5.49198 26.2966
467 1 -1.1104 0.985624 8.2864 26.5138
466 1 -1.1104 6.5008 8.18585 23.536
495 1 -1.1104 6.66859 5.48888 26.1904
496 1 -1.1104 9.35341 8.28555 20.8633
538 2 2.2208 2.20544 15.1718 27.7089
395 1 -1.1104 6.6955 2.70963 26.6973
491 1 -1.1104 12.3638 8.12086 20.8368
314 1 -1.1104 9.40083 2.82843 20.8157
339 1 -1.1104 6.63431 5.31524 21.0056
451 1 -1.1104 6.63321 8.13078 20.703
391 1 -1.1104 6.59278 2.55959 23.7578
471 1 -1.1104 6.69102 5.62502 23.5246
368 1 -1.1104 12.0905 5.59349 20.621
508 1 -1.1104 6.68114 8.25621 26.4673
302 1 -1.1104 12.3816 2.71631 20.9494
505 1 -1.1104 12.3293 8.06265 23.5794
503 1 -1.1104 12.2238 8.19834 26.4325
419 1 -1.1104 11.9995 2.8732 23.5426
421 1 -1.1104 12.5199 2.80917 26.2675
424 2 2.2208 10.6867 3.99472 25.0146
427 1 -1.1104 9.28063 2.60056 23.4452
430 1 -1.1104 9.36898 2.58795 26.3888
432 2 2.2208 7.83499 4.03202 22.3335
502 1 -1.1104 9.41486 8.18606 23.701
478 1 -1.1104 9.37112 5.50042 26.3597
480 1 -1.1104 9.48396 5.42951 23.6346
483 1 -1.1104 12.2375 5.4246 26.527
486 2 2.2208 10.8339 6.56329 22.0968
488 1 -1.1104 12.4501 5.39592 23.7809
489 1 -1.1104 9.22554 8.41528 26.6543
499 2 2.2208 7.96117 6.89726 25.0465
7089 2 2.2208 -0.307245 12.4315 22.2374
346 1 -1.1104 3.65004 13.9716 20.6854
455 1 -1.1104 0.896447 11.0368 20.4764
459 1 -1.1104 3.85313 10.8989 20.5957
450 1 -1.1104 0.859828 13.9413 20.8949
6811 2 2.2208 13.6746 6.97257 13.6569
446 2 2.2208 2.36902 12.3876 24.9628
447 1 -1.1104 3.57914 11.2861 26.6188
452 1 -1.1104 3.54461 10.8021 23.6275
456 1 -1.1104 3.88732 13.4816 23.6738
460 1 -1.1104 0.978476 11.1253 26.3068
461 2 2.2208 2.16812 9.6145 22.1385
463 2 2.2208 5.17186 12.3338 22.0192
465 1 -1.1104 1.1394 13.6735 23.6622
468 1 -1.1104 0.726169 14.0525 26.5836
470 1 -1.1104 0.895966 11.0999 23.6444
472 1 -1.1104 3.67575 13.992 26.1581
473 2 2.2208 5.13562 9.40474 24.9697
507 1 -1.1104 6.59604 13.8089 23.7015
497 1 -1.1104 9.24757 11.1829 21.3069
490 1 -1.1104 6.58064 10.9044 21.1454
376 1 -1.1104 9.2873 13.9006 20.9632
500 1 -1.1104 12.4629 13.8718 26.4875
493 1 -1.1104 6.35444 11.0045 26.7915
498 2 2.2208 7.89535 12.443 25.2121
481 2 2.2208 7.98396 9.54077 22.1806
487 1 -1.1104 12.4446 11.1468 23.7886
504 1 -1.1104 12.2038 13.8552 23.6658
494 1 -1.1104 12.045 11.0961 20.8252
492 1 -1.1104 12.142 13.5975 20.8565
501 1 -1.1104 9.30969 13.8631 23.9085
509 1 -1.1104 6.50962 14.1191 26.6869
510 1 -1.1104 6.52577 10.949 23.9602
482 1 -1.1104 9.24344 13.9248 26.8058
175 2 2.2208 10.7478 -1.52652 13.8078
6772 2 2.2208 -0.404677 -1.49313 13.9074
255 2 2.2208 8.13308 6.90909 13.9763
6744 2 2.2208 13.614 1.18557 13.7065
7023 2 2.2208 -0.343012 -4.34321 22.2219
98 2 2.2208 -0.453847 7.04595 27.7374
6841 2 2.2208 13.6196 4.04639 16.6674
253 2 2.2208 8.00202 12.7022 13.7792
514 2 2.2208 5.26435 18.3608 5.38201
516 1 -1.1104 0.707254 19.4563 1.07795
518 1 -1.1104 1.29509 19.5511 3.81424
519 1 -1.1104 1.10662 16.8289 0.716634
523 2 2.2208 5.20773 21.0787 2.55652
524 1 -1.1104 0.895261 16.6854 3.87848
526 1 -1.1104 3.77215 19.741 1.26109
528 2 2.2208 2.48577 18.0737 2.34373
530 1 -1.1104 3.90321 19.7532 3.80985
532 2 2.2208 2.58111 21.1261 5.35521
533 1 -1.1104 4.09406 16.9199 1.23802
536 1 -1.1104 3.86841 16.7667 3.99537
7162 2 2.2208 -0.516157 18.4853 5.268
635 2 2.2208 5.12814 15.2611 8.09017
903 2 2.2208 5.33398 23.7802 -0.393944
954 2 2.2208 2.38331 26.6373 -0.226695
955 2 2.2208 5.2338 29.6749 -0.440525
520 1 -1.1104 0.717731 17.0029 6.7941
527 1 -1.1104 3.67017 19.5345 6.76537
927 2 2.2208 7.95414 21.1213 -0.231637
522 2 2.2208 5.23078 15.3838 2.47257
568 2 2.2208 8.05933 15.315 -0.346056
539 1 -1.1104 6.66168 19.5365 1.25345
540 1 -1.1104 6.84697 19.5741 4.06295
544 1 -1.1104 6.69242 16.8121 3.87057
719 2 2.2208 -0.45462 32.4331 8.11337
541 1 -1.1104 6.87081 16.7294 1.09363
546 2 2.2208 10.9739 18.213 5.38523
548 1 -1.1104 12.1336 19.5285 1.0174
549 1 -1.1104 12.5257 19.7381 3.6193
550 1 -1.1104 12.5462 17.0022 0.721867
554 2 2.2208 10.9368 20.7907 2.45527
555 1 -1.1104 12.3085 16.8705 3.7205
557 1 -1.1104 9.44558 19.7963 0.922894
558 2 2.2208 8.19999 18.0471 2.64223
560 1 -1.1104 9.87992 19.3642 3.90624
562 2 2.2208 8.29758 20.9803 5.36111
563 1 -1.1104 9.56908 16.9558 1.27612
566 1 -1.1104 9.60991 16.6922 3.94971
553 2 2.2208 11.0643 15.3896 2.47336
687 2 2.2208 -0.277671 29.8473 10.8045
758 1 -1.1104 12.4487 33.7539 12.5464
7159 2 2.2208 -0.367183 23.9619 5.19788
515 2 2.2208 5.28273 23.8723 5.24906
521 1 -1.1104 0.926117 22.3827 0.828094
525 1 -1.1104 0.977403 22.5336 3.71834
529 2 2.2208 2.2952 23.6726 2.41964
535 1 -1.1104 3.88001 22.5416 0.999521
537 1 -1.1104 3.63059 22.7747 4.10834
570 1 -1.1104 1.29117 24.9784 0.926366
572 1 -1.1104 0.761336 25.1989 3.63981
576 2 2.2208 5.36584 26.7232 2.324
580 1 -1.1104 3.94641 25.2629 0.879263
583 1 -1.1104 3.42161 25.4505 3.4321
585 2 2.2208 2.46505 26.7741 4.82647
574 1 -1.1104 0.797422 28.1092 0.956059
587 1 -1.1104 3.63213 28.0598 1.11193
589 1 -1.1104 4.16461 28.2192 3.64382
643 2 2.2208 2.33571 15.5289 11.174
788 2 2.2208 2.45565 23.8113 13.3346
694 1 -1.1104 4.08024 25.0108 6.6706
698 1 -1.1104 3.85119 27.9452 6.44318
7580 2 2.2208 -0.231127 24.0089 -0.408975
858 2 2.2208 2.42206 29.8252 13.472
594 1 -1.1104 6.55757 25.2922 0.943464
596 1 -1.1104 6.67828 25.1232 3.77895
545 1 -1.1104 6.53799 22.5554 3.84384
543 1 -1.1104 6.58581 22.3058 1.15597
547 2 2.2208 10.9688 23.7635 5.2194
552 1 -1.1104 12.4656 22.3317 1.21905
556 1 -1.1104 12.5115 22.3296 3.8853
559 2 2.2208 7.94481 23.6567 2.2677
565 1 -1.1104 9.37316 22.608 0.74349
567 1 -1.1104 9.34168 22.2245 3.69371
603 1 -1.1104 12.4507 25.3278 0.845037
605 1 -1.1104 12.246 25.2191 3.83463
609 2 2.2208 10.6962 26.7525 2.30057
613 1 -1.1104 9.77291 25.2086 0.871273
616 1 -1.1104 9.37723 25.0668 3.71622
618 2 2.2208 8.18794 26.6836 5.0442
620 1 -1.1104 9.90789 27.9963 0.818166
598 1 -1.1104 6.82967 28.0019 1.02119
600 1 -1.1104 6.81986 28.0818 3.79726
611 1 -1.1104 12.0025 28.1447 3.81544
561 2 2.2208 7.95162 15.4645 5.20811
622 1 -1.1104 9.49087 28.2221 3.70589
607 1 -1.1104 12.5785 28.2826 0.883152
578 1 -1.1104 1.08346 28.1002 3.70368
671 2 2.2208 10.8725 15.3104 8.11654
569 2 2.2208 5.19499 29.5643 5.2366
571 1 -1.1104 1.13234 30.7867 0.927141
573 1 -1.1104 1.12654 30.9738 3.74466
575 1 -1.1104 1.15861 33.6898 0.913897
577 2 2.2208 5.40229 32.2753 2.42028
579 1 -1.1104 1.29472 33.7492 3.7721
581 1 -1.1104 4.04551 30.8667 1.04402
582 2 2.2208 2.37814 29.4199 2.3525
584 1 -1.1104 4.01484 30.9866 4.05901
586 2 2.2208 2.28908 32.4452 5.29783
588 1 -1.1104 4.07678 33.6739 0.967812
590 1 -1.1104 3.92056 33.7572 3.85604
593 2 2.2208 -0.439126 29.5886 5.19093
692 1 -1.1104 1.22705 28.2054 6.40729
904 2 2.2208 5.28361 18.1748 -0.218661
531 2 2.2208 2.31875 15.5692 5.35069
591 2 2.2208 2.55327 32.2548 -0.289337
595 1 -1.1104 6.63655 30.8211 1.04717
736 1 -1.1104 6.65747 33.8505 6.56674
601 1 -1.1104 6.71755 34.0187 3.80268
597 1 -1.1104 6.8824 30.9432 3.81351
599 1 -1.1104 7.02809 33.8868 1.01187
602 2 2.2208 10.7765 29.6694 5.23726
604 1 -1.1104 12.4124 31.0785 1.05509
606 1 -1.1104 12.0854 31.1204 3.88286
608 1 -1.1104 12.4238 33.771 1.04154
610 2 2.2208 10.9192 32.49 2.51743
612 1 -1.1104 12.7076 34.1335 4.02734
614 1 -1.1104 9.54812 30.7648 0.91343
615 2 2.2208 7.94385 29.4997 2.31403
617 1 -1.1104 9.3342 31.0094 3.61568
619 2 2.2208 8.17871 32.4704 5.16214
621 1 -1.1104 9.64362 33.6658 1.04871
623 1 -1.1104 9.58987 33.8354 3.8662
730 2 2.2208 10.8737 29.4741 10.6135
926 2 2.2208 11.1017 23.7058 -0.112711
542 1 -1.1104 6.6465 16.8591 6.7647
7327 2 2.2208 13.5283 26.8695 10.9106
7517 2 2.2208 -0.247435 26.9338 13.4105
534 1 -1.1104 3.74226 17.0181 6.70151
517 1 -1.1104 0.751625 20.0814 6.6583
902 2 2.2208 2.51244 20.9982 -0.473271
629 2 2.2208 5.26097 18.2502 10.6798
631 1 -1.1104 0.999935 19.6684 12.1931
632 1 -1.1104 0.606758 19.6847 9.43786
633 1 -1.1104 0.812303 16.8187 12.3207
636 2 2.2208 5.354 20.9041 8.05662
637 1 -1.1104 0.825818 16.8646 9.64063
639 1 -1.1104 3.56717 19.6793 12.4108
640 2 2.2208 2.31329 18.2948 8.18741
642 1 -1.1104 3.67151 19.5684 9.47586
644 2 2.2208 2.32172 20.9824 10.9083
645 1 -1.1104 3.81974 16.9388 12.2404
647 1 -1.1104 3.81378 16.6213 9.66011
654 1 -1.1104 12.3199 19.8008 6.76022
564 1 -1.1104 9.50558 16.8222 6.69446
656 1 -1.1104 9.46453 19.4298 6.71129
659 1 -1.1104 6.79666 19.9083 12.287
679 2 2.2208 8.00426 15.3714 10.8209
652 1 -1.1104 6.57595 19.4407 6.75725
740 1 -1.1104 12.472 31.1225 6.71309
551 1 -1.1104 12.576 17.088 6.58451
661 1 -1.1104 6.82595 16.9962 12.3086
660 1 -1.1104 6.66661 19.8073 9.48418
663 1 -1.1104 6.48467 16.7373 9.40072
665 2 2.2208 10.9105 18.2279 10.9865
667 1 -1.1104 12.5988 19.7939 12.4417
668 1 -1.1104 12.1319 19.6338 9.64569
669 1 -1.1104 12.5609 16.8088 12.1943
672 2 2.2208 11.204 21.089 8.21267
673 1 -1.1104 12.4688 16.7901 9.40104
675 1 -1.1104 9.35064 19.6582 12.5898
676 2 2.2208 8.03509 18.1783 8.13368
678 1 -1.1104 9.57616 19.5881 9.64613
680 2 2.2208 8.23377 21.0932 10.9357
681 1 -1.1104 9.85689 16.6685 12.1567
683 1 -1.1104 9.39171 16.7395 9.45136
690 1 -1.1104 1.11333 25.4681 6.58279
628 1 -1.1104 3.95767 22.3466 6.72561
627 1 -1.1104 1.23401 22.5281 6.71257
630 2 2.2208 5.33199 23.8235 10.8262
634 1 -1.1104 0.987927 22.6882 12.0358
638 1 -1.1104 1.15713 22.3622 9.39756
641 2 2.2208 2.48589 23.7046 7.99157
646 1 -1.1104 3.87242 22.4336 12.1435
648 1 -1.1104 4.11332 22.1998 9.4005
702 2 2.2208 2.67261 26.7214 10.6629
704 1 -1.1104 1.10333 25.5081 11.9766
706 1 -1.1104 1.49203 25.3584 9.21405
710 2 2.2208 5.32342 26.767 7.94685
714 1 -1.1104 3.93044 25.2312 12.3353
717 1 -1.1104 4.16315 25.4848 9.53416
742 1 -1.1104 12.4265 34.1091 6.86715
712 1 -1.1104 1.0812 28.0034 9.52809
759 1 -1.1104 12.0623 28.1939 12.0886
739 1 -1.1104 12.3285 25.39 6.48291
743 1 -1.1104 9.64678 25.2348 6.62203
664 1 -1.1104 6.7159 22.4526 9.60988
653 1 -1.1104 6.79822 22.2372 6.5254
741 1 -1.1104 12.424 28.3663 6.70186
655 1 -1.1104 12.4525 22.5989 6.60326
658 1 -1.1104 9.76547 22.2666 6.6651
745 1 -1.1104 9.73281 28.0781 6.46344
733 1 -1.1104 6.98573 25.1543 6.46179
754 1 -1.1104 6.66086 25.171 9.56451
662 1 -1.1104 6.49144 22.6498 12.5695
752 1 -1.1104 6.72321 25.2442 12.2805
666 2 2.2208 11.0381 23.8805 10.8868
670 1 -1.1104 12.4366 22.6252 12.3849
674 1 -1.1104 12.4472 22.6912 9.48768
677 2 2.2208 8.40648 23.8062 7.93101
682 1 -1.1104 9.6313 22.4281 11.98
684 1 -1.1104 9.53234 22.4399 9.37437
725 1 -1.1104 12.5813 25.3391 9.29476
727 2 2.2208 8.07226 26.5961 10.8006
729 1 -1.1104 12.3608 25.1626 12.0926
732 1 -1.1104 9.57175 24.9361 9.34715
747 1 -1.1104 9.67697 25.2925 12.5527
751 2 2.2208 10.8814 26.6608 7.89371
721 1 -1.1104 9.39661 28.0227 9.37946
723 1 -1.1104 9.30055 27.9754 12.1219
735 1 -1.1104 6.81063 27.8596 6.51087
756 1 -1.1104 6.75235 28.2081 12.1564
7283 2 2.2208 -0.436473 20.944 13.5429
693 1 -1.1104 0.871787 33.9124 6.67111
7160 2 2.2208 -0.447315 21.0002 2.20145
708 1 -1.1104 1.23507 28.3717 12.2676
700 1 -1.1104 4.03026 27.8998 12.3506
699 1 -1.1104 3.89885 33.8296 6.6766
691 1 -1.1104 1.04702 31.1201 6.82468
695 1 -1.1104 3.80767 31.0758 6.6174
696 1 -1.1104 3.72848 28.184 9.31246
757 1 -1.1104 6.96109 33.8933 12.4559
689 1 -1.1104 4.11153 33.7988 9.29578
697 1 -1.1104 3.74088 34.1917 12.2494
701 2 2.2208 2.49735 32.5403 10.6906
703 2 2.2208 5.26889 29.632 11.1621
705 1 -1.1104 1.14463 31.1694 12.0469
707 1 -1.1104 1.05239 31.0389 9.40643
709 1 -1.1104 1.02308 34.0487 12.1306
711 2 2.2208 5.31485 32.2942 8.04567
713 1 -1.1104 1.08634 33.8379 9.41859
715 1 -1.1104 3.86245 31.2877 12.3075
716 2 2.2208 2.33269 29.6721 8.03886
718 1 -1.1104 3.6825 30.8237 9.71717
737 2 2.2208 8.04082 29.3183 7.98095
724 1 -1.1104 12.178 31.1573 9.7182
726 2 2.2208 8.1437 32.4995 10.8922
722 1 -1.1104 9.54318 34.1601 12.3608
738 1 -1.1104 9.56908 31.1331 12.037
734 1 -1.1104 6.64802 30.8842 6.48161
744 1 -1.1104 9.71152 31.0647 6.57427
746 1 -1.1104 9.77734 34.0648 6.73039
688 2 2.2208 -0.318151 26.875 8.21374
749 1 -1.1104 12.246 28.0415 9.36552
760 1 -1.1104 6.58915 28.1353 9.28128
748 1 -1.1104 12.471 33.853 9.72881
728 1 -1.1104 12.3499 30.8405 12.4822
761 1 -1.1104 6.74509 33.8831 9.64345
753 1 -1.1104 6.67667 31.0801 12.2541
755 1 -1.1104 6.71926 31.0398 9.4717
731 1 -1.1104 9.53314 30.8244 9.31363
750 2 2.2208 10.9692 32.6359 8.15152
720 1 -1.1104 9.5022 33.7383 9.52319
592 2 2.2208 -0.245157 32.5663 2.58542
899 2 2.2208 8.03386 29.7342 13.4338
925 2 2.2208 10.7061 18.1269 -0.27885
7118 2 2.2208 13.6278 15.3749 5.25865
7282 2 2.2208 -0.447864 21.2147 8.09848
7280 2 2.2208 -0.307217 24.0349 10.8632
7196 2 2.2208 13.5892 26.7283 5.26571
7219 2 2.2208 -0.426301 26.9458 2.42197
7523 2 2.2208 13.5775 20.8799 -0.3352
856 2 2.2208 -0.330295 32.6646 13.6435
626 2 2.2208 11.1692 29.5365 -0.453839
824 2 2.2208 8.24662 23.8415 13.6365
649 2 2.2208 2.31552 18.3069 13.5935
762 2 2.2208 5.42545 18.3013 16.6958