LAMMPS (29 Oct 2020)
OMP_NUM_THREADS environment is not set. Defaulting to 1 thread. (../comm.cpp:94)
  using 1 OpenMP thread(s) per MPI task
OMP_NUM_THREADS environment is not set. Defaulting to 1 thread. (../comm.cpp:94)
  using 1 OpenMP thread(s) per MPI task
Reading data file ...
  orthogonal box = (-0.35516565 -4.2468482 -0.35447675) to (27.695166 332.32685 27.694477)
  2 by 13 by 2 MPI processor grid
  reading atoms ...
  17640 atoms
  reading velocities ...
  17640 velocities
Finding 1-2 1-3 1-4 neighbors ...
  special bond factors lj:    0.0      0.0      0.0     
  special bond factors coul:  0.0      0.0      0.0     
     0 = max # of 1-2 neighbors
     0 = max # of 1-3 neighbors
     0 = max # of 1-4 neighbors
     1 = max # of special neighbors
  special bonds CPU = 0.004 seconds
  read_data CPU = 0.057 seconds
Setting atom values ...
  11760 settings made for charge
Setting atom values ...
  5880 settings made for charge
PPPM initialization ...
  using 12-bit tables for long-range coulomb (../kspace.cpp:328)
  G vector (1/distance) = 0.29883693
  grid = 40 240 40
  stencil order = 5
  estimated absolute RMS force accuracy = 0.00015601772
  estimated relative force accuracy = 1.0834831e-05
  using single precision MKL FFT
  3d grid and FFT values/proc = 15000 7600
Neighbor list info ...
  update every 1 steps, delay 0 steps, check yes
  max neighbors/atom: 2000, page size: 100000
  master list distance cutoff = 11.3
  ghost atom cutoff = 11.3
  binsize = 5.65, bins = 5 60 5
  2 neighbor lists, perpetual/occasional/extra = 2 0 0
  (1) pair coul/long, perpetual
      attributes: half, newton on
      pair build: half/bin/newton
      stencil: half/bin/3d/newton
      bin: standard
  (2) pair eam/alloy, perpetual, copy from (1)
      attributes: half, newton on
      pair build: copy
      stencil: none
      bin: none
Setting up Verlet run ...
  Unit style    : metal
  Current step  : 0
  Time step     : 0.001
Per MPI rank memory allocation (min/avg/max) = 8.142 | 8.178 | 8.198 Mbytes
Step Temp E_pair E_mol TotEng Press 
       0          600   -230565.12            0   -229197.11    96.489836 
  100000    599.57498   -230559.62            0   -229192.58   -1.2608075 
Loop time of 647.427 on 52 procs for 100000 steps with 17640 atoms

Performance: 13.345 ns/day, 1.798 hours/ns, 154.458 timesteps/s
99.8% CPU use with 52 MPI tasks x 1 OpenMP threads

MPI task timing breakdown:
Section |  min time  |  avg time  |  max time  |%varavg| %total
---------------------------------------------------------------
Pair    | 422.27     | 449.06     | 461.9      |  42.2 | 69.36
Bond    | 0.0061421  | 0.0095971  | 0.016601   |   2.2 |  0.00
Kspace  | 130.11     | 144.88     | 177.32     |  90.2 | 22.38
Neigh   | 26.112     | 34.225     | 37.433     |  48.0 |  5.29
Comm    | 13.77      | 14.838     | 16.925     |  26.7 |  2.29
Output  | 5.3928e-05 | 5.9401e-05 | 0.00027337 |   0.0 |  0.00
Modify  | 1.6818     | 3.1637     | 5.234      |  63.7 |  0.49
Other   |            | 1.253      |            |       |  0.19

Nlocal:        339.231 ave         368 max         300 min
Histogram: 3 5 0 0 5 16 9 2 5 7
Nghost:        4089.54 ave        4274 max        3829 min
Histogram: 4 5 3 4 4 2 9 4 6 11
Neighs:        67632.4 ave       74516 max       51882 min
Histogram: 4 0 0 3 1 0 9 20 7 8

Total # of neighbors = 3516884
Ave neighs/atom = 199.36984
Ave special neighs/atom = 0.0000000
Neighbor list builds = 16217
Dangerous builds = 0
11760 atoms in group oxygen
PPPM initialization ...
  using 12-bit tables for long-range coulomb (../kspace.cpp:328)
  G vector (1/distance) = 0.29883693
  grid = 40 240 40
  stencil order = 5
  estimated absolute RMS force accuracy = 0.00015601772
  estimated relative force accuracy = 1.0834831e-05
  using single precision MKL FFT
  3d grid and FFT values/proc = 15000 7600
Setting up Verlet run ...
  Unit style    : metal
  Current step  : 0
  Time step     : 0.001
Per MPI rank memory allocation (min/avg/max) = 8.393 | 8.429 | 8.449 Mbytes
Step f_2 Temp v_Tdiff v_deltaT 
       0            0    599.57498            0            0 
  100000    2132.9442    605.85572   0.05467194    634.73614 
  200000    4159.9579    596.72329  0.058910577    683.94633 
  300000    6196.2606     596.3041  0.058803706    682.70557 
  400000    8218.1338    601.20354  0.060046098    697.12962 
  500000    10245.668    604.08635  0.058585049    680.16697 
  600000     12296.46    605.80644   0.05853997    679.64361 
  700000    14351.143    603.39516  0.058734564    681.90283 
  800000    16392.062    605.57377  0.059566527    691.56184 
  900000    18446.319    608.16834  0.058466437    678.78991 
 1000000    20483.389    603.51986  0.058527427    679.49799 
Loop time of 6447.37 on 52 procs for 1000000 steps with 17640 atoms

Performance: 13.401 ns/day, 1.791 hours/ns, 155.102 timesteps/s
99.8% CPU use with 52 MPI tasks x 1 OpenMP threads

MPI task timing breakdown:
Section |  min time  |  avg time  |  max time  |%varavg| %total
---------------------------------------------------------------
Pair    | 4167       | 4413.6     | 4573       | 121.9 | 68.46
Bond    | 0.067674   | 0.096244   | 0.15502    |   6.0 |  0.00
Kspace  | 1267.4     | 1451.7     | 1770.3     | 265.4 | 22.52
Neigh   | 296.3      | 391.35     | 429.85     | 167.6 |  6.07
Comm    | 141.94     | 153.61     | 180.24     |  85.3 |  2.38
Output  | 0.0010199  | 0.0010874  | 0.0023505  |   0.5 |  0.00
Modify  | 7.5609     | 9.0218     | 11.316     |  33.8 |  0.14
Other   |            | 27.96      |            |       |  0.43

Nlocal:        339.231 ave         366 max         292 min
Histogram: 1 3 4 0 0 3 18 10 10 3
Nghost:        4122.52 ave        4267 max        3841 min
Histogram: 4 3 6 3 0 2 2 4 8 20
Neighs:        67631.7 ave       74052 max       50446 min
Histogram: 2 2 0 2 2 0 2 19 16 7

Total # of neighbors = 3516847
Ave neighs/atom = 199.36774
Ave special neighs/atom = 0.0000000
Neighbor list builds = 185940
Dangerous builds = 0
Total wall time: 1:58:15
