LAMMPS (29 Oct 2020)
OMP_NUM_THREADS environment is not set. Defaulting to 1 thread. (../comm.cpp:94)
  using 1 OpenMP thread(s) per MPI task
OMP_NUM_THREADS environment is not set. Defaulting to 1 thread. (../comm.cpp:94)
  using 1 OpenMP thread(s) per MPI task
Reading data file ...
  orthogonal box = (-0.058697649 -0.68900824 -0.050757586) to (27.398698 328.76901 27.390758)
  2 by 13 by 2 MPI processor grid
  reading atoms ...
  17910 atoms
  reading velocities ...
  17910 velocities
Finding 1-2 1-3 1-4 neighbors ...
  special bond factors lj:    0.0      0.0      0.0     
  special bond factors coul:  0.0      0.0      0.0     
     0 = max # of 1-2 neighbors
     0 = max # of 1-3 neighbors
     0 = max # of 1-4 neighbors
     1 = max # of special neighbors
  special bonds CPU = 0.003 seconds
  read_data CPU = 0.063 seconds
Setting atom values ...
  11940 settings made for charge
Setting atom values ...
  5970 settings made for charge
PPPM initialization ...
  using 12-bit tables for long-range coulomb (../kspace.cpp:328)
  G vector (1/distance) = 0.30002652
  grid = 40 240 40
  stencil order = 5
  estimated absolute RMS force accuracy = 0.00014786264
  estimated relative force accuracy = 1.0268492e-05
  using single precision MKL FFT
  3d grid and FFT values/proc = 15000 7600
Neighbor list info ...
  update every 1 steps, delay 0 steps, check yes
  max neighbors/atom: 2000, page size: 100000
  master list distance cutoff = 11.3
  ghost atom cutoff = 11.3
  binsize = 5.65, bins = 5 59 5
  2 neighbor lists, perpetual/occasional/extra = 2 0 0
  (1) pair coul/long, perpetual
      attributes: half, newton on
      pair build: half/bin/newton
      stencil: half/bin/3d/newton
      bin: standard
  (2) pair eam/alloy, perpetual, copy from (1)
      attributes: half, newton on
      pair build: copy
      stencil: none
      bin: none
Setting up Verlet run ...
  Unit style    : metal
  Current step  : 0
  Time step     : 0.001
Per MPI rank memory allocation (min/avg/max) = 8.168 | 8.195 | 8.211 Mbytes
Step Temp E_pair E_mol TotEng Press 
       0          600   -241207.02            0   -239818.07   -2000.9413 
  100000    606.35644   -241217.92            0   -239814.25   -1741.8823 
Loop time of 659.383 on 52 procs for 100000 steps with 17910 atoms

Performance: 13.103 ns/day, 1.832 hours/ns, 151.657 timesteps/s
99.8% CPU use with 52 MPI tasks x 1 OpenMP threads

MPI task timing breakdown:
Section |  min time  |  avg time  |  max time  |%varavg| %total
---------------------------------------------------------------
Pair    | 436.02     | 445.88     | 456.19     |  22.2 | 67.62
Bond    | 0.0065724  | 0.011343   | 0.016789   |   1.9 |  0.00
Kspace  | 145.09     | 154.93     | 163.31     |  43.7 | 23.50
Neigh   | 34.529     | 36.627     | 38.87      |  16.6 |  5.55
Comm    | 15.329     | 16.376     | 18.414     |  21.2 |  2.48
Output  | 6.2518e-05 | 6.8055e-05 | 0.00029564 |   0.0 |  0.00
Modify  | 2.6282     | 4.0293     | 6.554      |  59.5 |  0.61
Other   |            | 1.525      |            |       |  0.23

Nlocal:        344.423 ave         366 max         326 min
Histogram: 3 1 10 9 8 6 5 3 2 5
Nghost:        4293.83 ave        4348 max        4249 min
Histogram: 8 5 9 7 3 0 4 5 7 4
Neighs:        73586.6 ave       78213 max       69378 min
Histogram: 2 6 5 12 6 5 4 4 5 3

Total # of neighbors = 3826501
Ave neighs/atom = 213.65165
Ave special neighs/atom = 0.0000000
Neighbor list builds = 16197
Dangerous builds = 0
11940 atoms in group oxygen
PPPM initialization ...
  using 12-bit tables for long-range coulomb (../kspace.cpp:328)
  G vector (1/distance) = 0.30002652
  grid = 40 240 40
  stencil order = 5
  estimated absolute RMS force accuracy = 0.00014786264
  estimated relative force accuracy = 1.0268492e-05
  using single precision MKL FFT
  3d grid and FFT values/proc = 15000 7600
Setting up Verlet run ...
  Unit style    : metal
  Current step  : 0
  Time step     : 0.001
Per MPI rank memory allocation (min/avg/max) = 8.418 | 8.446 | 8.462 Mbytes
Step f_2 Temp v_Tdiff v_deltaT 
       0            0    606.35644            0            0 
  100000    693.92442    608.36372  0.019390488    225.12177 
  200000     1377.105    607.39598  0.021418271    248.66414 
  300000    2054.8467    606.27848  0.021116755    245.16357 
  400000    2737.6944    604.23366  0.021196742     246.0922 
  500000    3428.1438    606.86866    0.0205017    238.02283 
  600000      4107.33    611.05139  0.020843595    241.99221 
  700000    4797.8446    604.63557  0.020809202     241.5929 
  800000    5484.0235    605.04858   0.02104968    244.38482 
  900000    6175.4843    607.33005  0.020579044    238.92079 
 1000000      6859.31    612.20778  0.020561646     238.7188 
Loop time of 6534.22 on 52 procs for 1000000 steps with 17910 atoms

Performance: 13.223 ns/day, 1.815 hours/ns, 153.040 timesteps/s
99.8% CPU use with 52 MPI tasks x 1 OpenMP threads

MPI task timing breakdown:
Section |  min time  |  avg time  |  max time  |%varavg| %total
---------------------------------------------------------------
Pair    | 4296.2     | 4397.4     | 4504.9     |  63.3 | 67.30
Bond    | 0.08074    | 0.11461    | 0.15871    |   5.3 |  0.00
Kspace  | 1445.2     | 1551       | 1650.6     | 122.9 | 23.74
Neigh   | 356.64     | 376.82     | 392.7      |  46.0 |  5.77
Comm    | 153.65     | 163.54     | 187.13     |  67.0 |  2.50
Output  | 0.0011791  | 0.0012469  | 0.0024043  |   0.5 |  0.00
Modify  | 5.8053     | 6.3847     | 6.9787     |  11.0 |  0.10
Other   |            | 38.93      |            |       |  0.60

Nlocal:        344.423 ave         364 max         331 min
Histogram: 8 4 8 9 5 4 6 3 3 2
Nghost:        4293.79 ave        4349 max        4223 min
Histogram: 4 0 4 7 11 5 1 4 9 7
Neighs:        73589.2 ave       77255 max       70420 min
Histogram: 6 4 8 5 5 9 3 3 6 3

Total # of neighbors = 3826641
Ave neighs/atom = 213.65946
Ave special neighs/atom = 0.0000000
Neighbor list builds = 166753
Dangerous builds = 0
Total wall time: 1:59:54
