LAMMPS (29 Oct 2020)
OMP_NUM_THREADS environment is not set. Defaulting to 1 thread. (../comm.cpp:94)
  using 1 OpenMP thread(s) per MPI task
#---------------------------------------
#
# This script is used to calculate the thermal conuctivity of UO2 using Muller-Plathe method
# By Ziqiang Wang on 03/18/2022 on Jilin university
#
#---------------------------------------

variable     Nevery    equal   50
variable     T         equal   1200

clear
OMP_NUM_THREADS environment is not set. Defaulting to 1 thread. (../comm.cpp:94)
  using 1 OpenMP thread(s) per MPI task
units          metal
boundary       p p p
atom_style     full

read_data Frenkel_0.0025_relaxed.dat
Reading data file ...
  triclinic box = (-0.17574415 -2.2371655 -0.17776064) to (28.069744 336.96517 28.071761) with tilt (0.0000000 0.0000000 0.0000000)
  2 by 13 by 2 MPI processor grid
  reading atoms ...
  18000 atoms
  reading velocities ...
  18000 velocities
Finding 1-2 1-3 1-4 neighbors ...
  special bond factors lj:    0.0      0.0      0.0     
  special bond factors coul:  0.0      0.0      0.0     
     0 = max # of 1-2 neighbors
     0 = max # of 1-3 neighbors
     0 = max # of 1-4 neighbors
     1 = max # of special neighbors
  special bonds CPU = 0.004 seconds
  read_data CPU = 0.068 seconds

set           type     1    charge     -1.1104
Setting atom values ...
  11970 settings made for charge
set           type     2    charge      2.2208
Setting atom values ...
  5985 settings made for charge
set           type     3    charge     -1.1104
Setting atom values ...
  30 settings made for charge
set           type     4    charge      2.2208
Setting atom values ...
  15 settings made for charge

kspace_style    pppm   1.0e-05
pair_style      hybrid/overlay  coul/long  11.0  eam/alloy
pair_coeff      * * coul/long
pair_coeff      * * eam/alloy CeThUNpPuAmCmO.eam.alloy O Th O Th
newton          on
neighbor        0.3 bin
neigh_modify    delay 0 check yes every 1

#The first equilation
velocity        all create $T 10003 mom yes rot yes dist gaussian
velocity        all create 1200 10003 mom yes rot yes dist gaussian
fix             nvt  all  nvt  temp  $T $T  0.1
fix             nvt  all  nvt  temp  1200 $T  0.1
fix             nvt  all  nvt  temp  1200 1200  0.1

run             100000
PPPM initialization ...
  using 12-bit tables for long-range coulomb (../kspace.cpp:328)
  G vector (1/distance) = 0.2984483
  grid = 40 240 40
  stencil order = 5
  estimated absolute RMS force accuracy = 0.00016091325
  estimated relative force accuracy = 1.1174807e-05
  using single precision MKL FFT
  3d grid and FFT values/proc = 15000 7600
Neighbor list info ...
  update every 1 steps, delay 0 steps, check yes
  max neighbors/atom: 2000, page size: 100000
  master list distance cutoff = 11.3
  ghost atom cutoff = 11.3
  binsize = 5.65, bins = 5 61 5
  2 neighbor lists, perpetual/occasional/extra = 2 0 0
  (1) pair coul/long, perpetual
      attributes: half, newton on
      pair build: half/bin/newton/tri
      stencil: half/bin/3d/newton/tri
      bin: standard
  (2) pair eam/alloy, perpetual, copy from (1)
      attributes: half, newton on
      pair build: copy
      stencil: none
      bin: none
Per MPI rank memory allocation (min/avg/max) = 8.316 | 8.344 | 8.360 Mbytes
Step Temp E_pair E_mol TotEng Press 
       0         1200   -233728.07            0   -230936.21    -770.0496 
  100000    1197.5659   -233722.36            0   -230936.16   -1010.0954 
Loop time of 691.573 on 52 procs for 100000 steps with 18000 atoms

Performance: 12.493 ns/day, 1.921 hours/ns, 144.598 timesteps/s
99.8% CPU use with 52 MPI tasks x 1 OpenMP threads

MPI task timing breakdown:
Section |  min time  |  avg time  |  max time  |%varavg| %total
---------------------------------------------------------------
Pair    | 454.65     | 463.15     | 471.63     |  20.3 | 66.97
Bond    | 0.0067829  | 0.010607   | 0.016765   |   2.0 |  0.00
Kspace  | 126.94     | 141.02     | 152.14     |  53.3 | 20.39
Neigh   | 63.434     | 66.243     | 70.954     |  28.1 |  9.58
Comm    | 14.9       | 16.392     | 18.284     |  19.7 |  2.37
Output  | 5.5947e-05 | 6.1363e-05 | 0.00026701 |   0.0 |  0.00
Modify  | 1.8451     | 3.4211     | 5.3872     |  60.8 |  0.49
Other   |            | 1.33       |            |       |  0.19

Nlocal:        346.154 ave         366 max         326 min
Histogram: 1 5 7 6 7 9 2 7 4 4
Nghost:        4023.77 ave        4126 max        3938 min
Histogram: 3 7 11 4 5 6 5 2 3 6
Neighs:        69708.9 ave       73537 max       65478 min
Histogram: 2 4 3 10 7 7 3 6 6 4

Total # of neighbors = 3624864
Ave neighs/atom = 201.38133
Ave special neighs/atom = 0.0000000
Neighbor list builds = 21976
Dangerous builds = 0
unfix           nvt
reset_timestep  0

# the second run
fix             1 all nve

group           oxygen type 1
11970 atoms in group oxygen
fix             2 oxygen thermal/conductivity ${Nevery} y 20
fix             2 oxygen thermal/conductivity 50 y 20

compute         ke all ke/atom
variable        temp atom c_ke/1.5
compute         layers all chunk/atom bin/1d y lower 0.05 units reduced
fix             3      all ave/chunk  2000 50 100000 layers v_temp file profile_${T}K.mp
fix             3      all ave/chunk  2000 50 100000 layers v_temp file profile_1200K.mp

variable        Tdiff    equal     f_3[11][3]-f_3[1][3]
variable        deltaT   equal     v_Tdiff*1.5/0.0001292

timestep        0.001
thermo_style    custom step f_2 temp v_Tdiff v_deltaT
thermo          100000

run             1000000
PPPM initialization ...
  using 12-bit tables for long-range coulomb (../kspace.cpp:328)
  G vector (1/distance) = 0.2984483
  grid = 40 240 40
  stencil order = 5
  estimated absolute RMS force accuracy = 0.00016091325
  estimated relative force accuracy = 1.1174807e-05
  using single precision MKL FFT
  3d grid and FFT values/proc = 15000 7600
Per MPI rank memory allocation (min/avg/max) = 8.566 | 8.594 | 8.610 Mbytes
Step f_2 Temp v_Tdiff v_deltaT 
       0            0    1197.5659            0            0 
  100000     1315.084     1199.811  0.046597534    540.99305 
  200000    2581.0158    1202.2056  0.054382613    631.37709 
  300000    3850.6066    1204.5514  0.054537893    633.17987 
  400000    5113.3108     1200.455  0.054733423    635.44996 
  500000    6379.8022    1206.8533  0.054168559    628.89194 
  600000    7645.3883    1206.5857  0.053498087    621.10782 
  700000    8916.7746    1214.7658  0.056533309    656.34646 
  800000    10186.944    1208.3836  0.052598559    610.66438 
  900000    11449.409    1207.6578  0.055279493    641.78978 
 1000000    12705.074    1212.0667  0.054143744    628.60384 
Loop time of 6885.3 on 52 procs for 1000000 steps with 18000 atoms

Performance: 12.548 ns/day, 1.913 hours/ns, 145.237 timesteps/s
99.8% CPU use with 52 MPI tasks x 1 OpenMP threads

MPI task timing breakdown:
Section |  min time  |  avg time  |  max time  |%varavg| %total
---------------------------------------------------------------
Pair    | 4483.6     | 4555.7     | 4626.8     |  53.2 | 66.17
Bond    | 0.075188   | 0.10572    | 0.14905    |   5.5 |  0.00
Kspace  | 1293.8     | 1417.1     | 1504.4     | 135.3 | 20.58
Neigh   | 679.42     | 709.09     | 752.34     |  76.3 | 10.30
Comm    | 152.99     | 165.36     | 184.2      |  62.7 |  2.40
Output  | 0.0010201  | 0.0010933  | 0.0023275  |   0.5 |  0.00
Modify  | 5.373      | 5.9214     | 6.4538     |  10.6 |  0.09
Other   |            | 31.93      |            |       |  0.46

Nlocal:        346.154 ave         365 max         331 min
Histogram: 5 6 7 5 9 5 6 3 3 3
Nghost:        4029.31 ave        4120 max        3954 min
Histogram: 4 9 3 6 7 6 9 2 3 3
Neighs:        69719.5 ave       73591 max       66757 min
Histogram: 5 7 7 7 6 5 4 6 2 3

Total # of neighbors = 3625412
Ave neighs/atom = 201.41178
Ave special neighs/atom = 0.0000000
Neighbor list builds = 234859
Dangerous builds = 0

Total wall time: 2:06:17
