LAMMPS (29 Oct 2020)
OMP_NUM_THREADS environment is not set. Defaulting to 1 thread. (../comm.cpp:94)
  using 1 OpenMP thread(s) per MPI task
#---------------------------------------
#
# This script is used to calculate the thermal conuctivity of UO2 using Muller-Plathe method
# By Ziqiang Wang on 03/18/2022 on Jilin university
#
#---------------------------------------

variable     Nevery    equal   50
variable     T         equal   600

clear
OMP_NUM_THREADS environment is not set. Defaulting to 1 thread. (../comm.cpp:94)
  using 1 OpenMP thread(s) per MPI task
units          metal
boundary       p p p
atom_style     full

read_data vac_0.005_relaxed.dat
Reading data file ...
  orthogonal box = (-0.35251335 -4.3413457 -0.35893375) to (27.692513 332.42135 27.698934)
  2 by 13 by 2 MPI processor grid
  reading atoms ...
  17910 atoms
  reading velocities ...
  17910 velocities
Finding 1-2 1-3 1-4 neighbors ...
  special bond factors lj:    0.0      0.0      0.0     
  special bond factors coul:  0.0      0.0      0.0     
     0 = max # of 1-2 neighbors
     0 = max # of 1-3 neighbors
     0 = max # of 1-4 neighbors
     1 = max # of special neighbors
  special bonds CPU = 0.004 seconds
  read_data CPU = 0.070 seconds

set           type     1    charge     -1.1104
Setting atom values ...
  11940 settings made for charge
set           type     2    charge      2.2208
Setting atom values ...
  5970 settings made for charge

kspace_style    pppm   1.0e-05
pair_style      hybrid/overlay  coul/long  11.0  eam/alloy
pair_coeff      * * coul/long
pair_coeff      * * eam/alloy CeThUNpPuAmCmO.eam.alloy O Th
newton          on
neighbor        0.3 bin
neigh_modify    delay 0 check yes every 1

#The first equilation
velocity        all create $T 15022 mom yes rot yes dist gaussian
velocity        all create 600 15022 mom yes rot yes dist gaussian
fix             nvt  all  nvt  temp  $T $T  0.1
fix             nvt  all  nvt  temp  600 $T  0.1
fix             nvt  all  nvt  temp  600 600  0.1

run             100000
PPPM initialization ...
  using 12-bit tables for long-range coulomb (../kspace.cpp:328)
  G vector (1/distance) = 0.29883925
  grid = 40 240 40
  stencil order = 5
  estimated absolute RMS force accuracy = 0.00015728343
  estimated relative force accuracy = 1.092273e-05
  using single precision MKL FFT
  3d grid and FFT values/proc = 15000 7600
Neighbor list info ...
  update every 1 steps, delay 0 steps, check yes
  max neighbors/atom: 2000, page size: 100000
  master list distance cutoff = 11.3
  ghost atom cutoff = 11.3
  binsize = 5.65, bins = 5 60 5
  2 neighbor lists, perpetual/occasional/extra = 2 0 0
  (1) pair coul/long, perpetual
      attributes: half, newton on
      pair build: half/bin/newton
      stencil: half/bin/3d/newton
      bin: standard
  (2) pair eam/alloy, perpetual, copy from (1)
      attributes: half, newton on
      pair build: copy
      stencil: none
      bin: none
Per MPI rank memory allocation (min/avg/max) = 8.158 | 8.182 | 8.198 Mbytes
Step Temp E_pair E_mol TotEng Press 
       0          600   -234188.23            0   -232799.28   -285.62364 
  100000    599.28802   -234199.18            0   -232811.88   -900.89786 
Loop time of 645.156 on 52 procs for 100000 steps with 17910 atoms

Performance: 13.392 ns/day, 1.792 hours/ns, 155.001 timesteps/s
99.8% CPU use with 52 MPI tasks x 1 OpenMP threads

MPI task timing breakdown:
Section |  min time  |  avg time  |  max time  |%varavg| %total
---------------------------------------------------------------
Pair    | 440.31     | 450.78     | 463.19     |  25.6 | 69.87
Bond    | 0.0064761  | 0.010251   | 0.01406    |   1.9 |  0.00
Kspace  | 125.15     | 140.26     | 153.9      |  56.5 | 21.74
Neigh   | 31.988     | 34.97      | 37.176     |  20.4 |  5.42
Comm    | 13.932     | 14.903     | 17.55      |  21.9 |  2.31
Output  | 5.3069e-05 | 5.8058e-05 | 0.00025891 |   0.0 |  0.00
Modify  | 1.6689     | 2.9759     | 5.0815     |  63.5 |  0.46
Other   |            | 1.25       |            |       |  0.19

Nlocal:        344.423 ave         367 max         317 min
Histogram: 2 0 4 3 13 10 9 3 2 6
Nghost:        4155.60 ave        4287 max        4030 min
Histogram: 5 2 5 6 3 8 16 4 2 1
Neighs:        69255.3 ave       73901 max       61775 min
Histogram: 2 0 3 3 3 12 13 5 5 6

Total # of neighbors = 3601275
Ave neighs/atom = 201.07621
Ave special neighs/atom = 0.0000000
Neighbor list builds = 16218
Dangerous builds = 0
unfix           nvt
reset_timestep  0

# the second run
fix             1 all nve

group           oxygen type 1
11940 atoms in group oxygen
fix             2 oxygen thermal/conductivity ${Nevery} y 20
fix             2 oxygen thermal/conductivity 50 y 20

compute         ke all ke/atom
variable        temp atom c_ke/1.5
compute         layers all chunk/atom bin/1d y lower 0.05 units reduced
fix             3      all ave/chunk  2000 50 100000 layers v_temp file profile_${T}K.mp
fix             3      all ave/chunk  2000 50 100000 layers v_temp file profile_600K.mp

variable        Tdiff    equal     f_3[11][3]-f_3[1][3]
variable        deltaT   equal     v_Tdiff*1.5/0.0001292

timestep        0.001
thermo_style    custom step f_2 temp v_Tdiff v_deltaT
thermo          100000

run             1500000
PPPM initialization ...
  using 12-bit tables for long-range coulomb (../kspace.cpp:328)
  G vector (1/distance) = 0.29883925
  grid = 40 240 40
  stencil order = 5
  estimated absolute RMS force accuracy = 0.00015728343
  estimated relative force accuracy = 1.092273e-05
  using single precision MKL FFT
  3d grid and FFT values/proc = 15000 7600
Per MPI rank memory allocation (min/avg/max) = 8.408 | 8.433 | 8.449 Mbytes
Step f_2 Temp v_Tdiff v_deltaT 
       0            0    599.28802            0            0 
  100000    708.41743     601.6186  0.016752573    194.49582 
  200000    1406.6344     600.4187    0.0186627    216.67221 
  300000    2095.2798    599.88602  0.018434453    214.02229 
  400000    2788.7377    588.45188  0.018225174    211.59258 
  500000    3478.3344    597.76162   0.01847384    214.47956 
  600000    4168.9039    602.61642   0.01845739    214.28858 
  700000    4860.9388    598.04679  0.018327201    212.77711 
  800000    5550.3621    600.35591  0.018255064    211.93959 
  900000    6239.6934    598.28288  0.018707395    217.19112 
 1000000    6931.4454    595.41876  0.018753886    217.73088 
 1100000    7625.2565    595.34236  0.017782749    206.45607 
 1200000    8325.5201    595.30933  0.018168543    210.93509 
 1300000    9021.5134    604.16088   0.01857194    215.61849 
 1400000    9712.6799    599.60052  0.018061213      209.689 
 1500000    10408.676    600.23265  0.018655003    216.58286 
Loop time of 9537.56 on 52 procs for 1500000 steps with 17910 atoms

Performance: 13.588 ns/day, 1.766 hours/ns, 157.273 timesteps/s
99.8% CPU use with 52 MPI tasks x 1 OpenMP threads

MPI task timing breakdown:
Section |  min time  |  avg time  |  max time  |%varavg| %total
---------------------------------------------------------------
Pair    | 6477.3     | 6632.2     | 6796.4     |  88.3 | 69.54
Bond    | 0.10104    | 0.15372    | 0.20487    |   6.6 |  0.00
Kspace  | 1920.5     | 2096.9     | 2267.8     | 188.3 | 21.99
Neigh   | 490.87     | 534.64     | 569.34     |  75.3 |  5.61
Comm    | 207.41     | 222.56     | 264.61     |  83.5 |  2.33
Output  | 0.0015736  | 0.0016753  | 0.0034576  |   0.6 |  0.00
Modify  | 7.9024     | 8.6378     | 9.3678     |  13.2 |  0.09
Other   |            | 42.43      |            |       |  0.44

Nlocal:        344.423 ave         370 max         319 min
Histogram: 2 1 3 11 12 7 6 7 2 1
Nghost:        4150.58 ave        4249 max        4005 min
Histogram: 2 3 3 6 5 2 8 9 10 4
Neighs:        69258.7 ave       75185 max       62030 min
Histogram: 1 1 2 7 9 12 8 9 2 1

Total # of neighbors = 3601450
Ave neighs/atom = 201.08599
Ave special neighs/atom = 0.0000000
Neighbor list builds = 248035
Dangerous builds = 0

Total wall time: 2:49:43
