LAMMPS (29 Oct 2020)
OMP_NUM_THREADS environment is not set. Defaulting to 1 thread. (../comm.cpp:94)
  using 1 OpenMP thread(s) per MPI task
OMP_NUM_THREADS environment is not set. Defaulting to 1 thread. (../comm.cpp:94)
  using 1 OpenMP thread(s) per MPI task
Reading data file ...
  triclinic box = (-0.19293012 -2.0019739 -0.1813524) to (28.086930 336.72997 28.075352) with tilt (0.0000000 0.0000000 0.0000000)
  2 by 13 by 2 MPI processor grid
  reading atoms ...
  18000 atoms
  reading velocities ...
  18000 velocities
Finding 1-2 1-3 1-4 neighbors ...
  special bond factors lj:    0.0      0.0      0.0     
  special bond factors coul:  0.0      0.0      0.0     
     0 = max # of 1-2 neighbors
     0 = max # of 1-3 neighbors
     0 = max # of 1-4 neighbors
     1 = max # of special neighbors
  special bonds CPU = 0.004 seconds
  read_data CPU = 0.056 seconds
Setting atom values ...
  12000 settings made for charge
Setting atom values ...
  6000 settings made for charge
PPPM initialization ...
  using 12-bit tables for long-range coulomb (../kspace.cpp:328)
  G vector (1/distance) = 0.2984651
  grid = 40 240 40
  stencil order = 5
  estimated absolute RMS force accuracy = 0.00016068616
  estimated relative force accuracy = 1.1159036e-05
  using single precision MKL FFT
  3d grid and FFT values/proc = 15000 7600
Neighbor list info ...
  update every 1 steps, delay 0 steps, check yes
  max neighbors/atom: 2000, page size: 100000
  master list distance cutoff = 11.3
  ghost atom cutoff = 11.3
  binsize = 5.65, bins = 6 60 6
  2 neighbor lists, perpetual/occasional/extra = 2 0 0
  (1) pair coul/long, perpetual
      attributes: half, newton on
      pair build: half/bin/newton/tri
      stencil: half/bin/3d/newton/tri
      bin: standard
  (2) pair eam/alloy, perpetual, copy from (1)
      attributes: half, newton on
      pair build: copy
      stencil: none
      bin: none
Setting up Verlet run ...
  Unit style    : metal
  Current step  : 0
  Time step     : 0.001
Per MPI rank memory allocation (min/avg/max) = 8.317 | 8.344 | 8.360 Mbytes
Step Temp E_pair E_mol TotEng Press 
       0         1200   -233687.64            0   -230895.78   -723.76448 
  100000    1209.5787   -233699.28            0   -230885.13   -1185.0954 
Loop time of 675.922 on 52 procs for 100000 steps with 18000 atoms

Performance: 12.783 ns/day, 1.878 hours/ns, 147.946 timesteps/s
99.8% CPU use with 52 MPI tasks x 1 OpenMP threads

MPI task timing breakdown:
Section |  min time  |  avg time  |  max time  |%varavg| %total
---------------------------------------------------------------
Pair    | 448.43     | 457.57     | 468.5      |  24.5 | 67.70
Bond    | 0.0068781  | 0.010781   | 0.014984   |   2.0 |  0.00
Kspace  | 127.74     | 141.77     | 154.68     |  56.0 | 20.97
Neigh   | 53.316     | 55.85      | 60.22      |  24.8 |  8.26
Comm    | 15.16      | 16.198     | 18.332     |  20.9 |  2.40
Output  | 5.622e-05  | 6.2959e-05 | 0.00029379 |   0.0 |  0.00
Modify  | 1.8309     | 3.2551     | 5.2359     |  62.7 |  0.48
Other   |            | 1.269      |            |       |  0.19

Nlocal:        346.154 ave         366 max         329 min
Histogram: 2 7 9 5 9 6 4 3 3 4
Nghost:        4013.92 ave        4118 max        3948 min
Histogram: 8 11 7 5 3 6 0 3 4 5
Neighs:        69740.3 ave       73615 max       66661 min
Histogram: 5 5 9 9 2 7 5 3 2 5

Total # of neighbors = 3626495
Ave neighs/atom = 201.47194
Ave special neighs/atom = 0.0000000
Neighbor list builds = 22027
Dangerous builds = 0
12000 atoms in group oxygen
PPPM initialization ...
  using 12-bit tables for long-range coulomb (../kspace.cpp:328)
  G vector (1/distance) = 0.2984651
  grid = 40 240 40
  stencil order = 5
  estimated absolute RMS force accuracy = 0.00016068616
  estimated relative force accuracy = 1.1159036e-05
  using single precision MKL FFT
  3d grid and FFT values/proc = 15000 7600
Setting up Verlet run ...
  Unit style    : metal
  Current step  : 0
  Time step     : 0.001
Per MPI rank memory allocation (min/avg/max) = 8.568 | 8.595 | 8.610 Mbytes
Step f_2 Temp v_Tdiff v_deltaT 
       0            0    1209.5787            0            0 
  100000    1312.5726    1196.7152  0.046185764    536.21243 
  200000    2562.2383    1200.3849  0.055079126    639.46354 
  300000    3809.8456    1203.9079   0.05520823    640.96242 
  400000    5064.2673    1209.0924  0.056030465    650.50849 
  500000     6305.043    1197.6909  0.056921663    660.85522 
  600000    7549.2736    1193.9863   0.05742362    666.68289 
  700000    8803.4596    1215.7228  0.055437763    643.62727 
  800000     10053.95    1211.1008  0.055775462    647.54793 
  900000    11306.576    1203.1043  0.055884673    648.81586 
 1000000    12547.328    1199.3507  0.057923114    672.48198 
 1100000    13791.339    1212.3584  0.055563472    645.08675 
 1200000    15042.744    1206.7584  0.055495229    644.29445 
 1300000    16295.859    1212.9582   0.05536167    642.74384 
 1400000    17544.302    1204.0971  0.057410563     666.5313 
 1500000    18796.042     1211.518  0.054977633    638.28521 
Loop time of 10025.9 on 52 procs for 1500000 steps with 18000 atoms

Performance: 12.927 ns/day, 1.857 hours/ns, 149.613 timesteps/s
99.8% CPU use with 52 MPI tasks x 1 OpenMP threads

MPI task timing breakdown:
Section |  min time  |  avg time  |  max time  |%varavg| %total
---------------------------------------------------------------
Pair    | 6641.6     | 6739.8     | 6879.5     |  69.6 | 67.22
Bond    | 0.10111    | 0.15823    | 0.21319    |   7.2 |  0.00
Kspace  | 1909.2     | 2088.8     | 2210.2     | 143.9 | 20.83
Neigh   | 856.97     | 895.18     | 956.29     |  74.9 |  8.93
Comm    | 233        | 247.55     | 290.65     |  89.3 |  2.47
Output  | 0.0015811  | 0.0016615  | 0.0034458  |   0.6 |  0.00
Modify  | 8.1049     | 8.7551     | 9.5154     |  11.5 |  0.09
Other   |            | 45.54      |            |       |  0.45

Nlocal:        346.154 ave         367 max         331 min
Histogram: 3 4 7 14 5 9 4 4 1 1
Nghost:        4016.29 ave        4108 max        3933 min
Histogram: 2 3 3 13 9 9 3 4 4 2
Neighs:        69734.9 ave       74127 max       66335 min
Histogram: 2 5 7 8 13 6 5 5 0 1

Total # of neighbors = 3626217
Ave neighs/atom = 201.45650
Ave special neighs/atom = 0.0000000
Neighbor list builds = 354253
Dangerous builds = 0
Total wall time: 2:58:22
