LAMMPS (29 Oct 2020)
OMP_NUM_THREADS environment is not set. Defaulting to 1 thread. (../comm.cpp:94)
  using 1 OpenMP thread(s) per MPI task
#---------------------------------------
#
# This script is used to calculate the thermal conuctivity of UO2 using Muller-Plathe method
# By Ziqiang Wang on 03/18/2022 on Jilin university
#
#---------------------------------------

variable     Nevery    equal   50
variable     T         equal   600

clear
OMP_NUM_THREADS environment is not set. Defaulting to 1 thread. (../comm.cpp:94)
  using 1 OpenMP thread(s) per MPI task
units          metal
boundary       p p p
atom_style     full

read_data Frenkel_0.005_relaxed.dat
Reading data file ...
  triclinic box = (-0.094087469 -2.5649136 -0.095845001) to (27.988087 337.29291 27.989845) with tilt (0.0000000 0.0000000 0.0000000)
  2 by 13 by 2 MPI processor grid
  reading atoms ...
  18000 atoms
  reading velocities ...
  18000 velocities
Finding 1-2 1-3 1-4 neighbors ...
  special bond factors lj:    0.0      0.0      0.0     
  special bond factors coul:  0.0      0.0      0.0     
     0 = max # of 1-2 neighbors
     0 = max # of 1-3 neighbors
     0 = max # of 1-4 neighbors
     1 = max # of special neighbors
  special bonds CPU = 0.006 seconds
  read_data CPU = 0.063 seconds

set           type     1    charge     -1.1104
Setting atom values ...
  11880 settings made for charge
set           type     2    charge      2.2208
Setting atom values ...
  5940 settings made for charge

kspace_style    pppm   1.0e-05
pair_style      hybrid/overlay  coul/long  11.0  eam/alloy
pair_coeff      * * coul/long
pair_coeff      * * eam/alloy CeThUNpPuAmCmO.eam.alloy O Th O Th
newton          on
neighbor        0.3 bin
neigh_modify    delay 0 check yes every 1

#The first equilation
velocity        all create $T 10002 mom yes rot yes dist gaussian
velocity        all create 600 10002 mom yes rot yes dist gaussian
fix             nvt  all  nvt  temp  $T $T  0.1
fix             nvt  all  nvt  temp  600 $T  0.1
fix             nvt  all  nvt  temp  600 600  0.1

run             100000
PPPM initialization ...
  using 12-bit tables for long-range coulomb (../kspace.cpp:328)
  G vector (1/distance) = 0.29856002
  grid = 40 240 40
  stencil order = 5
  estimated absolute RMS force accuracy = 0.00016033161
  estimated relative force accuracy = 1.1134414e-05
  using single precision MKL FFT
  3d grid and FFT values/proc = 15000 7600
Neighbor list info ...
  update every 1 steps, delay 0 steps, check yes
  max neighbors/atom: 2000, page size: 100000
  master list distance cutoff = 11.3
  ghost atom cutoff = 11.3
  binsize = 5.65, bins = 5 61 5
  2 neighbor lists, perpetual/occasional/extra = 2 0 0
  (1) pair coul/long, perpetual
      attributes: half, newton on
      pair build: half/bin/newton/tri
      stencil: half/bin/3d/newton/tri
      bin: standard
  (2) pair eam/alloy, perpetual, copy from (1)
      attributes: half, newton on
      pair build: copy
      stencil: none
      bin: none
Per MPI rank memory allocation (min/avg/max) = 8.323 | 8.348 | 8.369 Mbytes
Step Temp E_pair E_mol TotEng Press 
       0          600   -234964.47            0   -233568.54    211.16334 
  100000    597.87216   -235003.21            0   -233612.23   -946.54587 
Loop time of 685.528 on 52 procs for 100000 steps with 18000 atoms

Performance: 12.603 ns/day, 1.904 hours/ns, 145.873 timesteps/s
99.8% CPU use with 52 MPI tasks x 1 OpenMP threads

MPI task timing breakdown:
Section |  min time  |  avg time  |  max time  |%varavg| %total
---------------------------------------------------------------
Pair    | 451.71     | 465.56     | 480.17     |  34.9 | 67.91
Bond    | 0.0077489  | 0.011105   | 0.015253   |   1.8 |  0.00
Kspace  | 131.85     | 149.78     | 163.68     |  67.2 | 21.85
Neigh   | 46.516     | 49.405     | 55.881     |  31.6 |  7.21
Comm    | 13.997     | 15.252     | 18.274     |  27.5 |  2.22
Output  | 5.62e-05   | 6.2297e-05 | 0.00030149 |   0.0 |  0.00
Modify  | 1.8018     | 4.2867     | 6.0741     |  73.2 |  0.63
Other   |            | 1.229      |            |       |  0.18

Nlocal:        346.154 ave         371 max         325 min
Histogram: 3 3 8 11 8 2 8 1 5 3
Nghost:        4095.00 ave        4321 max        3960 min
Histogram: 4 5 15 7 11 5 1 0 1 3
Neighs:        69418.5 ave       75051 max       64701 min
Histogram: 3 4 9 8 9 2 8 3 3 3

Total # of neighbors = 3609760
Ave neighs/atom = 200.54222
Ave special neighs/atom = 0.0000000
Neighbor list builds = 16224
Dangerous builds = 0
unfix           nvt
reset_timestep  0

# the second run
fix             1 all nve

group           oxygen type 1
11880 atoms in group oxygen
fix             2 oxygen thermal/conductivity ${Nevery} y 20
fix             2 oxygen thermal/conductivity 50 y 20

compute         ke all ke/atom
variable        temp atom c_ke/1.5
compute         layers all chunk/atom bin/1d y lower 0.05 units reduced
fix             3      all ave/chunk  2000 50 100000 layers v_temp file profile_${T}K.mp
fix             3      all ave/chunk  2000 50 100000 layers v_temp file profile_600K.mp

variable        Tdiff    equal     f_3[11][3]-f_3[1][3]
variable        deltaT   equal     v_Tdiff*1.5/0.0001292

timestep        0.001
thermo_style    custom step f_2 temp v_Tdiff v_deltaT
thermo          100000

run             1000000
PPPM initialization ...
  using 12-bit tables for long-range coulomb (../kspace.cpp:328)
  G vector (1/distance) = 0.29856002
  grid = 40 240 40
  stencil order = 5
  estimated absolute RMS force accuracy = 0.00016033161
  estimated relative force accuracy = 1.1134414e-05
  using single precision MKL FFT
  3d grid and FFT values/proc = 15000 7600
Per MPI rank memory allocation (min/avg/max) = 8.573 | 8.599 | 8.620 Mbytes
Step f_2 Temp v_Tdiff v_deltaT 
       0            0    597.87216            0            0 
  100000    664.44391    599.82424   0.02089075    242.53967 
  200000    1313.9862     601.6188  0.023902511    277.50593 
  300000    1961.9892    600.79586  0.023579004    273.75004 
  400000    2611.7195    601.84802  0.023033917    267.42163 
  500000     3266.391    608.12353   0.02343516    272.08003 
  600000    3925.4642    603.47859  0.023265857    270.11444 
  700000    4582.6728    606.85124   0.02279272    264.62136 
  800000    5231.2645    599.06504  0.023544318    273.34734 
  900000    5885.7063    605.94932  0.022746366    264.08319 
 1000000    6540.8224    604.75081  0.023249872    269.92886 
Loop time of 6801.41 on 52 procs for 1000000 steps with 18000 atoms

Performance: 12.703 ns/day, 1.889 hours/ns, 147.028 timesteps/s
99.8% CPU use with 52 MPI tasks x 1 OpenMP threads

MPI task timing breakdown:
Section |  min time  |  avg time  |  max time  |%varavg| %total
---------------------------------------------------------------
Pair    | 4418.6     | 4579.7     | 4734.4     | 123.4 | 67.33
Bond    | 0.065501   | 0.10831    | 0.15494    |   6.2 |  0.00
Kspace  | 1320.9     | 1513.8     | 1669.8     | 230.2 | 22.26
Neigh   | 481.21     | 510.54     | 584.03     | 106.3 |  7.51
Comm    | 139.18     | 151.94     | 182.02     |  90.0 |  2.23
Output  | 0.0010561  | 0.0011102  | 0.0023208  |   0.5 |  0.00
Modify  | 5.1993     | 6.0621     | 6.6971     |  17.1 |  0.09
Other   |            | 39.28      |            |       |  0.58

Nlocal:        346.154 ave         367 max         323 min
Histogram: 3 1 6 5 10 8 6 6 4 3
Nghost:        4089.85 ave        4275 max        3990 min
Histogram: 3 12 14 8 4 3 4 0 0 4
Neighs:        69409.4 ave       74110 max       64286 min
Histogram: 3 0 6 8 9 7 6 6 3 4

Total # of neighbors = 3609289
Ave neighs/atom = 200.51606
Ave special neighs/atom = 0.0000000
Neighbor list builds = 167412
Dangerous builds = 0

Total wall time: 2:04:47
