ITEM: TIMESTEP
40000
ITEM: NUMBER OF ATOMS
17640
ITEM: BOX BOUNDS pp pp pp
-4.0718509227582916e-01 2.7747185092275579e+01
-4.9280248022439208e+00 3.3300802480224138e+02
-4.1154418186623931e-01 2.7751544181866045e+01
ITEM: ATOMS id type q x y z
1 2 2.2208 4.85272 0.614751 5.18951
2 1 -1.1104 0.681446 -3.3723 1.01622
6 1 -1.1104 0.659333 -3.45969 3.71384
9 1 -1.1104 0.756558 -0.680348 0.708647
11 2 2.2208 5.00268 -2.26534 2.23197
13 1 -1.1104 0.712824 -0.692827 3.60184
15 1 -1.1104 3.55304 -3.32301 0.917236
17 2 2.2208 2.3698 0.645359 2.40443
18 1 -1.1104 3.79092 -3.6116 3.71056
20 2 2.2208 2.20061 -2.23355 4.98987
22 1 -1.1104 3.61596 -0.549596 0.854332
23 1 -1.1104 3.54412 -0.75139 3.63949
14 1 -1.1104 6.26645 -0.394788 3.6228
8 1 -1.1104 6.59546 -3.37297 3.61745
4 1 -1.1104 6.28979 -3.46893 0.765648
10 1 -1.1104 6.54975 -0.694997 0.89739
164 1 -1.1104 0.818484 -0.975335 6.53045
3 1 -1.1104 0.615714 1.99024 0.812179
7 1 -1.1104 0.981693 2.20561 3.4581
16 1 -1.1104 3.56052 2.11602 0.918851
19 1 -1.1104 3.96242 1.95765 3.63444
21 2 2.2208 2.13515 3.55645 5.00269
5 1 -1.1104 6.33089 2.10892 1.24899
12 2 2.2208 4.97543 3.45663 2.22303
160 1 -1.1104 0.616425 -3.5288 6.48213
165 1 -1.1104 6.44731 -0.721122 6.52692
166 1 -1.1104 3.50081 -3.44483 6.43774
162 1 -1.1104 6.23389 -3.51191 6.33297
168 1 -1.1104 3.56298 -0.646995 6.47364
167 1 -1.1104 3.36346 2.09427 6.29943
163 1 -1.1104 6.16481 1.98494 6.47555
161 1 -1.1104 0.57049 1.99515 6.49353
318 2 2.2208 10.4881 3.33469 13.5383
338 2 2.2208 7.9745 14.9643 -0.210891
49 2 2.2208 13.4312 -2.04604 5.1018
48 2 2.2208 13.3776 0.774787 2.20772
31 2 2.2208 10.5481 0.71675 5.1073
32 1 -1.1104 11.8855 -3.57913 1.11763
34 1 -1.1104 11.9635 -3.52454 3.71293
36 1 -1.1104 11.8436 -0.653613 0.748651
37 2 2.2208 10.4425 -1.93883 2.12256
39 1 -1.1104 12.0209 -0.621733 3.84012
40 1 -1.1104 9.10195 -3.48372 0.748461
42 2 2.2208 7.83062 0.656499 2.33237
43 1 -1.1104 9.22679 -3.49065 3.58655
45 2 2.2208 7.75451 -2.13879 4.98326
46 1 -1.1104 9.14395 -0.539888 0.703292
47 1 -1.1104 9.13478 -0.770513 3.74128
201 1 -1.1104 11.8607 -0.586197 6.51414
205 1 -1.1104 8.99604 -0.765764 6.39588
33 1 -1.1104 11.7874 2.06632 0.825975
35 1 -1.1104 11.9457 2.19275 3.62131
41 1 -1.1104 8.96581 2.27008 0.804865
44 1 -1.1104 9.25815 1.93858 3.44785
38 2 2.2208 10.4308 3.49139 2.34818
202 1 -1.1104 9.16093 -3.55677 6.44924
199 1 -1.1104 11.9828 -3.39583 6.44091
200 1 -1.1104 11.9971 2.19578 6.32852
227 2 2.2208 7.90138 20.4876 10.8748
226 2 2.2208 13.4258 3.4702 4.91759
8257 2 2.2208 10.7053 -4.84408 5.04364
8256 2 2.2208 7.8716 -4.90334 2.23011
53 1 -1.1104 0.719557 7.51673 0.704672
55 1 -1.1104 1.04299 7.52013 3.55908
57 1 -1.1104 0.895982 4.82312 0.656548
64 1 -1.1104 3.47464 4.79183 3.4101
67 1 -1.1104 3.49043 7.69588 1.14011
68 2 2.2208 2.15145 6.19996 2.02517
71 1 -1.1104 3.61718 4.87281 0.797056
230 1 -1.1104 0.728986 4.93065 3.68126
60 1 -1.1104 6.49901 4.93135 1.2081
54 1 -1.1104 6.3973 7.87383 0.830514
56 1 -1.1104 6.47529 7.60797 3.55725
52 2 2.2208 4.94134 11.9931 5.0726
58 1 -1.1104 0.726256 10.4123 0.815387
63 2 2.2208 5.13604 9.08818 2.3796
65 1 -1.1104 0.603564 10.3378 3.62642
69 2 2.2208 2.19151 11.7089 2.22301
70 2 2.2208 2.04288 9.11518 5.15964
72 1 -1.1104 3.59177 10.4686 0.813998
74 1 -1.1104 3.60996 10.2415 3.62463
66 1 -1.1104 6.51597 10.5082 3.79111
61 1 -1.1104 6.28885 10.5527 1.02629
233 1 -1.1104 0.87114 4.78447 6.54516
231 1 -1.1104 3.46991 4.71377 6.60248
73 1 -1.1104 3.51944 10.7078 6.40901
62 1 -1.1104 6.31609 10.6889 6.5798
228 1 -1.1104 0.796806 7.68472 6.49391
232 1 -1.1104 3.38925 7.88354 6.66516
204 2 2.2208 13.4154 9.22791 5.13518
98 2 2.2208 13.3035 11.9847 2.20535
78 2 2.2208 10.6227 6.32374 5.11159
80 1 -1.1104 11.9727 7.56216 0.691257
81 1 -1.1104 11.9989 7.74501 3.71971
82 1 -1.1104 11.874 4.8743 1.04026
86 1 -1.1104 12.2173 5.17717 3.96668
88 1 -1.1104 9.2965 7.95122 0.784114
89 2 2.2208 8.02983 6.40916 2.17009
91 1 -1.1104 9.25998 7.91924 3.58456
93 1 -1.1104 9.21594 5.10339 0.767321
96 1 -1.1104 9.34139 4.99889 3.46693
260 1 -1.1104 11.8666 5.21875 6.76075
259 1 -1.1104 12.0784 8.03563 6.61015
99 2 2.2208 13.4289 6.29007 2.38524
79 2 2.2208 10.6792 12.0767 5.13084
83 1 -1.1104 11.9594 10.6454 0.817013
85 2 2.2208 10.6602 9.20247 2.22131
87 1 -1.1104 12.053 10.615 3.54399
90 2 2.2208 7.9754 12.0091 2.47754
92 2 2.2208 7.93515 9.1554 5.1277
94 1 -1.1104 9.25804 10.6182 0.854106
97 1 -1.1104 9.37318 10.7935 3.71933
84 1 -1.1104 11.9849 10.7606 6.43378
261 1 -1.1104 9.38189 7.75436 6.37325
95 1 -1.1104 9.20505 10.7724 6.55626
101 1 -1.1104 0.598833 13.2023 0.971891
107 1 -1.1104 0.729504 13.1386 3.77506
117 1 -1.1104 3.39235 13.0564 1.00104
122 1 -1.1104 3.73986 13.1853 3.75572
109 1 -1.1104 6.42774 13.4064 3.75502
104 1 -1.1104 6.43472 13.3969 0.980492
100 2 2.2208 4.90093 17.6529 5.28181
103 1 -1.1104 0.869543 18.8014 0.855799
108 1 -1.1104 0.829639 19.003 3.62871
110 1 -1.1104 0.852511 16.0018 1.08292
113 2 2.2208 4.97001 14.6419 2.2812
114 2 2.2208 5.09815 20.439 2.37698
115 1 -1.1104 0.928578 15.9033 3.85771
119 1 -1.1104 3.62535 19.0471 0.925801
121 2 2.2208 2.19115 17.5133 2.41963
123 1 -1.1104 3.58791 18.8333 3.8218
124 2 2.2208 2.23785 14.6053 5.13176
125 2 2.2208 2.38569 20.3437 5.1768
126 1 -1.1104 3.56981 16.0343 0.740651
128 1 -1.1104 3.72869 15.9266 3.63265
133 1 -1.1104 6.47315 19.1165 3.89443
132 1 -1.1104 6.43159 18.8969 1.04571
134 1 -1.1104 6.20699 16.1199 0.910862
116 1 -1.1104 6.48878 16.2197 3.87104
118 1 -1.1104 3.59994 13.4288 6.5111
112 1 -1.1104 6.35941 16.3479 6.72125
296 1 -1.1104 0.838879 19.1797 6.54376
127 1 -1.1104 3.61722 16.1654 6.68368
102 1 -1.1104 0.703379 13.2419 6.47029
106 1 -1.1104 6.43486 19.1581 6.595
143 1 -1.1104 11.7896 16.3337 6.51337
198 2 2.2208 13.3133 14.956 5.24904
136 1 -1.1104 11.9726 13.398 0.872313
140 1 -1.1104 12.286 13.3351 3.8146
147 1 -1.1104 9.28613 13.4942 1.12184
152 1 -1.1104 9.29522 13.5316 3.76329
150 1 -1.1104 9.42431 19.1106 6.68402
333 2 2.2208 13.1825 3.52988 -0.365593
135 2 2.2208 10.4599 17.7904 5.23084
138 1 -1.1104 12.2073 19.1294 1.00076
141 1 -1.1104 11.8646 18.9774 3.61517
142 1 -1.1104 12.1492 16.223 1.0118
144 2 2.2208 10.7515 14.7221 2.49168
145 2 2.2208 10.6746 20.4503 2.24989
146 1 -1.1104 11.9054 16.1398 3.89891
149 1 -1.1104 9.21739 18.9902 0.861379
151 2 2.2208 7.76333 17.5468 2.49249
153 1 -1.1104 8.90598 19.035 3.72169
154 2 2.2208 7.7133 14.9213 5.18603
155 2 2.2208 7.70804 20.5069 5.13486
156 1 -1.1104 9.24819 16.2238 1.15412
158 1 -1.1104 9.0118 16.3161 3.96157
148 1 -1.1104 8.95727 13.4176 6.57678
336 2 2.2208 13.5838 20.5411 5.06678
137 1 -1.1104 11.8645 13.4709 6.4682
139 1 -1.1104 12.4533 19.0586 6.4765
313 2 2.2208 2.05528 0.768298 13.6069
170 2 2.2208 4.88944 0.75597 10.8969
171 1 -1.1104 0.76981 -3.54066 12.1806
175 1 -1.1104 0.793891 -3.68715 9.37015
179 1 -1.1104 0.300299 -0.635032 12.3162
181 2 2.2208 4.94541 -2.02599 7.88382
183 1 -1.1104 0.642012 -0.793468 9.35513
185 1 -1.1104 3.57616 -3.53717 12.1486
187 2 2.2208 1.98741 0.649366 7.91461
188 1 -1.1104 3.52153 -3.42047 9.3689
190 2 2.2208 2.26644 -2.04967 10.668
192 1 -1.1104 3.28347 -0.636706 12.2106
193 1 -1.1104 3.48252 -0.476763 9.31057
173 1 -1.1104 6.41723 -3.59153 12.1888
180 1 -1.1104 6.21163 -0.639351 12.3258
184 1 -1.1104 6.26978 -0.863466 9.34491
177 1 -1.1104 6.15773 -3.64184 9.2099
172 1 -1.1104 0.51508 2.21093 12.0805
176 1 -1.1104 0.586019 2.16486 9.38789
186 1 -1.1104 3.32753 2.04355 11.9555
189 1 -1.1104 3.35984 2.34953 9.19884
191 2 2.2208 2.07772 3.51417 10.612
182 2 2.2208 4.91421 3.4986 7.90099
178 1 -1.1104 6.1435 2.01179 9.4138
174 1 -1.1104 6.21394 2.28043 12.0165
317 2 2.2208 10.5663 -2.15143 13.5549
17277 2 2.2208 13.5286 -4.80804 2.41328
159 2 2.2208 13.4346 17.6493 2.39058
308 1 -1.1104 9.23118 16.3454 9.36922
203 1 -1.1104 9.48162 1.80809 6.62196
306 1 -1.1104 9.46284 19.1721 9.33977
319 2 2.2208 2.09693 6.3939 13.5756
312 2 2.2208 4.8792 -2.17017 13.6278
224 2 2.2208 13.2861 0.657194 7.80923
225 2 2.2208 13.232 -2.0974 10.6692
206 2 2.2208 10.381 0.632057 10.7231
207 1 -1.1104 12.0235 -3.48745 12.1329
209 1 -1.1104 11.853 -3.36297 9.32833
211 1 -1.1104 12.0202 -0.664932 12.0298
212 2 2.2208 10.4399 -2.10048 7.88538
214 1 -1.1104 11.9328 -0.667314 9.35818
215 1 -1.1104 9.31863 -3.47786 12.0939
217 2 2.2208 7.79249 0.760592 7.71469
218 1 -1.1104 9.09966 -3.63685 9.2518
220 2 2.2208 7.8359 -2.13655 10.6488
222 1 -1.1104 8.99626 -0.756075 12.2011
223 1 -1.1104 9.08529 -0.700708 9.2193
197 2 2.2208 13.2642 3.41355 10.7069
208 1 -1.1104 11.8304 2.1192 12.1184
210 1 -1.1104 11.6569 1.95472 9.21022
216 1 -1.1104 8.94675 2.00804 12.2609
219 1 -1.1104 8.89209 2.00912 9.39408
221 2 2.2208 7.65756 3.3991 10.709
213 2 2.2208 10.408 3.62625 7.72439
130 2 2.2208 10.5729 14.7027 7.94614
323 2 2.2208 10.5003 9.2474 13.5949
30 1 -1.1104 11.9666 18.9266 12.1616
29 1 -1.1104 12.1076 13.2832 11.8457
59 1 -1.1104 0.585954 10.4601 6.50951
76 1 -1.1104 12.0546 13.4166 9.16957
321 2 2.2208 2.09187 11.8812 13.6999
234 2 2.2208 5.0942 6.40964 10.7721
236 1 -1.1104 0.612246 7.87696 12.1067
238 1 -1.1104 0.6449 7.72154 9.41621
240 1 -1.1104 0.693706 4.98787 12.1668
245 1 -1.1104 0.698226 4.9097 9.35961
249 1 -1.1104 3.4421 7.60195 12.1408
250 2 2.2208 2.46457 6.24281 7.95485
252 1 -1.1104 3.55075 7.73592 9.35203
254 1 -1.1104 3.60971 4.83806 12.2536
256 1 -1.1104 3.78708 4.94185 9.38247
237 1 -1.1104 6.38774 7.85412 12.1797
247 1 -1.1104 6.41556 4.7121 9.18762
242 1 -1.1104 6.29187 5.06249 12.1907
239 1 -1.1104 6.22112 7.61969 9.34571
235 2 2.2208 4.9548 11.9259 10.6909
241 1 -1.1104 0.74508 10.6179 12.1823
244 2 2.2208 4.76678 9.3156 7.86603
246 1 -1.1104 0.504526 10.3804 9.28263
251 2 2.2208 2.06663 11.8223 7.91838
253 2 2.2208 2.10001 9.10838 10.6356
255 1 -1.1104 3.63756 10.2761 11.9426
257 1 -1.1104 3.24466 10.5052 9.3741
248 1 -1.1104 6.19448 10.6845 9.14635
229 1 -1.1104 6.34982 8.15796 6.5023
243 1 -1.1104 6.48784 10.6251 11.9124
25 2 2.2208 13.4827 20.4743 11.0885
50 2 2.2208 13.3763 9.2246 10.7677
51 2 2.2208 13.4057 6.44418 7.96248
263 1 -1.1104 9.07334 4.98443 6.45952
262 1 -1.1104 9.41267 4.95593 9.22638
265 1 -1.1104 9.10424 4.79476 12.1178
267 1 -1.1104 8.98106 7.86377 9.14928
269 2 2.2208 7.77807 6.30919 7.98404
270 2 2.2208 10.6732 6.23911 10.7321
272 1 -1.1104 11.9416 7.83175 12.0836
273 1 -1.1104 11.8212 7.76862 9.41372
274 1 -1.1104 11.8483 4.86719 12.1466
277 1 -1.1104 12.0253 4.80318 9.27559
279 1 -1.1104 9.19155 7.65911 11.935
337 2 2.2208 13.5594 12.0078 7.93032
258 1 -1.1104 9.18879 10.7108 9.30181
264 1 -1.1104 9.14012 10.6536 12.3597
266 2 2.2208 7.83673 9.12207 10.6803
268 2 2.2208 7.82356 12.0905 7.87322
271 2 2.2208 10.531 11.9782 10.74
275 1 -1.1104 11.8593 10.4739 12.0088
276 2 2.2208 10.6918 9.18837 7.86988
278 1 -1.1104 11.964 10.5725 9.26307
28 2 2.2208 10.6557 17.6582 10.8143
196 2 2.2208 7.82301 17.6259 7.90338
330 2 2.2208 13.4484 6.35396 13.5702
320 2 2.2208 4.98119 9.04949 13.5256
332 2 2.2208 13.3179 0.633813 13.4938
326 2 2.2208 4.84609 20.556 13.5765
111 1 -1.1104 0.904248 16.2905 6.34515
120 1 -1.1104 3.50162 19.0542 6.57719
105 1 -1.1104 6.22172 13.5984 6.47156
281 1 -1.1104 3.49868 13.2875 12.2164
288 1 -1.1104 0.664069 13.1171 9.37728
293 1 -1.1104 0.820204 13.4018 12.3731
299 1 -1.1104 3.41756 13.3064 9.30427
284 1 -1.1104 6.4198 13.5481 9.34936
291 1 -1.1104 6.13577 13.5553 11.995
280 1 -1.1104 3.67238 19.0277 12.32
285 1 -1.1104 0.907297 19.0549 9.34735
286 1 -1.1104 0.816418 16.2683 9.21019
287 2 2.2208 5.04045 20.5892 8.11877
289 2 2.2208 4.90824 14.8111 7.97816
292 1 -1.1104 0.929223 18.8784 12.3562
294 2 2.2208 5.02534 17.6956 10.9525
295 1 -1.1104 3.64634 18.9261 9.53684
297 2 2.2208 2.21483 17.5464 7.98662
298 1 -1.1104 3.50656 16.085 9.54983
301 1 -1.1104 0.610228 15.9623 12.0504
302 1 -1.1104 3.56376 16.2532 12.3322
303 2 2.2208 2.07032 20.4416 10.6568
304 2 2.2208 2.17144 14.5901 10.7178
290 1 -1.1104 6.37159 19.1256 12.4623
283 1 -1.1104 6.49594 16.3686 9.48284
300 1 -1.1104 6.37914 16.2071 12.2127
282 1 -1.1104 6.5274 19.2073 9.56078
195 1 -1.1104 9.21251 18.9307 12.1346
8936 2 2.2208 13.5271 17.4927 13.6655
8924 2 2.2208 13.3737 14.9055 10.6427
77 1 -1.1104 12.2349 19.0995 9.45173
309 1 -1.1104 9.31538 16.2812 12.1304
131 2 2.2208 10.6709 20.6142 7.96794
24 2 2.2208 13.3044 17.5595 7.86705
307 2 2.2208 7.7743 14.8869 10.7218
169 1 -1.1104 11.9 16.2401 9.40834
157 1 -1.1104 9.07689 16.2633 6.61287
194 1 -1.1104 8.87314 13.274 12.1751
305 1 -1.1104 9.09127 13.4353 9.35675
129 1 -1.1104 12.1241 16.1107 12.178
8944 2 2.2208 13.4086 11.9711 13.3722
324 2 2.2208 7.82209 6.28666 13.4764
322 2 2.2208 7.5597 12.0338 13.5155
310 2 2.2208 10.7403 17.6004 -0.309399
9063 2 2.2208 13.4573 -2.07138 -0.453317
315 2 2.2208 7.82107 20.2459 -0.435952
539 2 2.2208 10.5002 14.6869 13.4983
8260 2 2.2208 13.2544 -4.82272 7.90805
8255 2 2.2208 2.01455 -4.84339 2.29938
334 2 2.2208 5.00652 6.14535 -0.394175
633 2 2.2208 5.09931 11.9766 -0.412591
329 2 2.2208 7.76845 17.4862 13.5756
327 2 2.2208 4.87235 14.8087 13.6103
8272 2 2.2208 2.32576 -4.87139 13.6005
341 2 2.2208 4.87512 0.632577 16.5595
342 1 -1.1104 0.684628 -3.63474 17.67
346 1 -1.1104 0.950831 -3.44892 14.8388
354 1 -1.1104 0.70252 -0.743514 17.9231
356 2 2.2208 4.97318 -2.21836 19.1252
358 1 -1.1104 0.808356 -0.664551 15.104
362 1 -1.1104 3.45175 -3.77222 17.831
364 2 2.2208 2.08991 0.768505 19.2131
365 1 -1.1104 3.84024 -3.67697 15.1173
369 2 2.2208 2.18544 -2.0749 16.4173
371 1 -1.1104 3.66053 -0.883921 17.7455
372 1 -1.1104 3.47285 -0.74257 14.974
344 1 -1.1104 6.3558 -3.54134 17.7309
355 1 -1.1104 6.35323 -0.842959 17.7621
350 1 -1.1104 6.49608 -3.67459 15.0462
360 1 -1.1104 6.32421 -0.913642 14.9476
343 1 -1.1104 0.689264 2.05503 17.8481
348 1 -1.1104 0.666711 2.13514 15.0278
357 2 2.2208 4.8979 3.46726 19.1497
363 1 -1.1104 3.42633 2.06316 17.8867
367 1 -1.1104 3.78022 2.1938 15.2034
370 2 2.2208 2.01838 3.53323 16.3979
352 1 -1.1104 6.54629 2.21015 14.9438
345 1 -1.1104 6.3831 2.06684 17.6895
359 1 -1.1104 0.845256 -0.725157 20.7466
361 1 -1.1104 6.47947 -0.796429 20.5708
347 1 -1.1104 0.747734 -3.33892 20.6168
373 1 -1.1104 3.71161 -0.698563 20.6535
8377 2 2.2208 5.09092 -4.97991 22.0189
351 1 -1.1104 6.34756 -3.41955 20.7078
353 1 -1.1104 6.37869 2.04821 20.5348
339 2 2.2208 13.4574 14.8346 27.5797
384 2 2.2208 10.5277 0.734465 16.4323
385 1 -1.1104 12.0226 -3.75107 17.7781
387 1 -1.1104 11.9015 -3.63809 15.0926
391 1 -1.1104 12.0535 -0.643573 17.8568
392 2 2.2208 10.5331 -2.2638 19.1703
394 1 -1.1104 11.8741 -0.73821 14.8247
396 1 -1.1104 9.1986 -3.55512 17.8753
398 2 2.2208 7.79463 0.588505 19.2495
399 1 -1.1104 9.26312 -3.686 15.1038
403 2 2.2208 7.81463 -2.14406 16.3839
405 1 -1.1104 9.24501 -0.761636 17.6406
406 1 -1.1104 9.15075 -0.799359 14.9963
8990 2 2.2208 13.4856 0.697095 19.2113
9028 2 2.2208 13.2579 -2.1224 16.474
400 1 -1.1104 9.09909 -3.5096 20.3905
395 1 -1.1104 11.9308 -0.851886 20.6549
388 1 -1.1104 11.9195 -3.60454 20.6471
386 1 -1.1104 12.0209 2.29683 17.6792
389 1 -1.1104 11.9318 1.96041 14.809
397 1 -1.1104 9.00591 2.23975 17.7073
401 1 -1.1104 9.24165 2.053 15.1584
404 2 2.2208 7.75259 3.46001 16.3696
393 2 2.2208 10.5213 3.42748 19.201
600 2 2.2208 13.4839 3.53156 16.3451
407 1 -1.1104 9.29589 -0.674177 20.571
390 1 -1.1104 11.9278 1.897 20.4937
328 2 2.2208 10.5966 20.3522 13.6716
570 1 -1.1104 12.2646 13.4009 26.2943
402 1 -1.1104 9.13574 2.1357 20.5892
417 2 2.2208 4.92044 6.39808 16.2589
419 1 -1.1104 0.589643 7.81131 17.8173
421 1 -1.1104 0.729211 7.63658 14.899
425 1 -1.1104 0.733465 4.99137 17.8145
430 1 -1.1104 0.689535 4.83558 15.0563
439 2 2.2208 2.15562 6.34521 19.1881
441 1 -1.1104 3.49243 7.78293 14.9253
444 1 -1.1104 3.4397 4.97819 17.6907
446 1 -1.1104 3.41994 4.99854 14.959
438 1 -1.1104 3.55878 7.76083 17.7985
420 1 -1.1104 6.41956 7.604 17.6912
423 1 -1.1104 6.34414 7.7487 14.9374
427 1 -1.1104 6.29747 4.86366 17.8108
434 1 -1.1104 6.29536 4.97794 14.9039
418 2 2.2208 4.96803 11.9207 16.3375
426 1 -1.1104 0.725631 10.5285 17.8072
429 2 2.2208 5.07126 9.1886 19.1493
432 1 -1.1104 0.758678 10.3033 15.012
440 2 2.2208 2.1685 11.8912 19.1905
443 2 2.2208 2.172 9.28208 16.4497
445 1 -1.1104 3.56645 10.4899 17.8758
448 1 -1.1104 3.52928 10.5045 15.0272
428 1 -1.1104 6.30995 10.6129 17.699
436 1 -1.1104 6.4249 10.5403 14.7991
442 1 -1.1104 3.75408 7.91052 20.6793
431 1 -1.1104 0.842224 4.83908 20.5357
435 1 -1.1104 6.16645 5.05421 20.6192
424 1 -1.1104 6.43644 7.75044 20.5956
422 1 -1.1104 1.03804 7.63011 20.6403
449 1 -1.1104 3.42348 10.7379 20.7455
437 1 -1.1104 6.55103 10.4997 20.6188
569 2 2.2208 13.4513 12.0043 19.3488
453 2 2.2208 10.5793 6.09931 16.2146
455 1 -1.1104 11.9569 7.71664 17.76
456 1 -1.1104 11.9433 7.62079 15.0536
458 1 -1.1104 12.0057 5.04004 17.7708
461 1 -1.1104 11.8554 4.79413 15.0077
465 1 -1.1104 9.16764 7.82455 17.7057
466 2 2.2208 7.78944 6.36751 19.114
468 1 -1.1104 9.16489 7.74985 14.7958
471 1 -1.1104 9.18869 4.95153 17.8743
473 1 -1.1104 9.00628 5.08915 14.9676
462 1 -1.1104 11.8039 4.54762 20.7356
571 2 2.2208 13.3391 9.23369 16.3366
454 2 2.2208 10.5834 11.956 16.3125
459 1 -1.1104 12.0004 10.5307 17.6984
460 2 2.2208 10.6135 9.10775 19.0287
463 1 -1.1104 12.0703 10.5628 14.857
467 2 2.2208 7.89265 11.9011 19.3281
470 2 2.2208 7.79034 9.10778 16.3243
472 1 -1.1104 9.12713 10.4616 17.8389
475 1 -1.1104 9.07236 10.5417 15.1087
474 1 -1.1104 9.1167 5.04421 20.57
9059 2 2.2208 13.3192 6.33806 19.0625
476 1 -1.1104 9.1152 10.525 20.8831
481 1 -1.1104 0.78045 13.1952 17.6315
485 1 -1.1104 0.734876 13.2383 15.1094
500 1 -1.1104 3.48486 13.1571 17.796
503 1 -1.1104 3.52218 13.2398 14.9393
489 1 -1.1104 6.3754 13.3936 15.089
483 1 -1.1104 6.26969 13.4204 17.7611
480 2 2.2208 4.84005 17.5017 16.6225
482 1 -1.1104 0.662951 19.0866 17.9169
487 1 -1.1104 0.896435 19.0874 15.1618
492 1 -1.1104 0.772678 16.2565 17.6687
494 2 2.2208 4.94679 14.7154 19.1988
495 2 2.2208 4.97449 20.3518 19.1161
496 1 -1.1104 0.852895 16.1928 14.9991
501 1 -1.1104 3.43708 18.7568 17.9091
502 2 2.2208 1.94039 17.5421 19.2399
505 1 -1.1104 3.83229 19.2182 15.1726
507 2 2.2208 2.1375 14.681 16.4716
508 2 2.2208 2.16686 20.4602 16.4544
509 1 -1.1104 3.46413 15.9109 17.8097
510 1 -1.1104 3.63031 16.1247 15.0678
484 1 -1.1104 6.14626 18.9156 17.6067
498 1 -1.1104 6.39258 16.6855 15.0343
493 1 -1.1104 6.45423 16.0597 17.6079
490 1 -1.1104 6.32169 13.3691 20.6406
504 1 -1.1104 3.49877 13.5498 20.586
488 1 -1.1104 0.615222 19.3444 20.6956
506 1 -1.1104 3.47874 18.9683 20.6363
491 1 -1.1104 6.22286 19.1051 20.5771
499 1 -1.1104 6.33567 16.2679 20.5866
511 1 -1.1104 3.6328 16.2264 20.3734
516 1 -1.1104 11.7921 13.2418 17.9025
518 1 -1.1104 12.0248 13.3337 14.8551
527 1 -1.1104 9.11545 13.3419 17.8103
530 1 -1.1104 9.32686 13.3161 14.9327
519 1 -1.1104 12.0517 13.2298 20.6369
376 2 2.2208 13.2579 14.715 16.4469
515 2 2.2208 10.5125 17.8118 16.4055
517 1 -1.1104 12.064 19.2869 17.92
520 1 -1.1104 12.0296 19.0656 14.9266
522 1 -1.1104 12.092 16.2821 17.7736
523 2 2.2208 10.6889 14.8053 19.3283
524 2 2.2208 10.6125 20.6105 19.2993
525 1 -1.1104 11.9058 16.1461 15.0057
528 1 -1.1104 9.51342 19.0235 18.085
529 2 2.2208 7.76785 17.5303 19.093
532 1 -1.1104 9.23653 19.102 14.8861
534 2 2.2208 7.92931 14.5928 16.4765
535 1 -1.1104 9.20623 16.2523 17.8945
536 1 -1.1104 9.09404 16.0649 14.9966
375 2 2.2208 13.3813 17.7181 19.0681
537 1 -1.1104 9.27302 16.11 20.5742
526 1 -1.1104 12.0411 16.1549 20.8411
9131 2 2.2208 13.3873 20.4507 16.3296
521 1 -1.1104 11.9302 19.1093 20.7071
533 1 -1.1104 8.94167 18.959 20.7181
366 1 -1.1104 3.6178 -3.41543 20.5129
349 1 -1.1104 0.739649 1.95428 20.5274
596 2 2.2208 10.5021 0.839269 27.5054
542 2 2.2208 5.15941 0.559628 21.9105
543 1 -1.1104 0.63612 -3.77384 23.514
547 1 -1.1104 0.792359 -3.7092 26.4076
551 1 -1.1104 0.941589 -0.905869 23.3341
553 2 2.2208 5.02373 -2.25344 24.8259
555 1 -1.1104 0.795305 -0.887841 26.0064
557 1 -1.1104 3.41036 -3.46673 23.4481
559 2 2.2208 2.2041 0.571246 24.7792
560 1 -1.1104 3.60794 -3.76625 26.2122
562 2 2.2208 2.15273 -2.14979 21.9587
564 1 -1.1104 3.80969 -0.796838 23.3113
565 1 -1.1104 3.64925 -0.778316 26.1095
552 1 -1.1104 6.57538 -0.858915 23.5329
545 1 -1.1104 6.54668 -3.78771 23.5102
556 1 -1.1104 6.18113 -0.941834 26.2674
549 1 -1.1104 6.45747 -3.61933 26.3614
368 1 -1.1104 3.59651 1.9022 20.6908
544 1 -1.1104 0.855654 2.17376 23.5075
548 1 -1.1104 0.76901 1.92285 26.215
554 2 2.2208 4.92764 3.4455 24.6799
558 1 -1.1104 3.61961 2.019 23.4606
561 1 -1.1104 3.50698 2.00313 26.1952
563 2 2.2208 2.23495 3.49488 22.1351
550 1 -1.1104 6.31921 2.0896 26.3384
546 1 -1.1104 6.1404 1.92856 23.4343
568 2 2.2208 2.22207 3.35745 27.5436
379 1 -1.1104 9.11713 16.1808 23.5475
636 1 -1.1104 9.19453 13.4144 26.2035
597 2 2.2208 7.82212 -2.10786 27.5566
604 1 -1.1104 9.22718 13.5027 23.3306
381 2 2.2208 2.06988 14.5433 27.7431
567 2 2.2208 1.99571 -2.1577 27.5002
663 2 2.2208 13.4179 9.11757 27.4882
9191 2 2.2208 13.5117 3.49542 21.9775
410 2 2.2208 7.7969 -4.91571 19.2627
9203 2 2.2208 13.304 0.889116 24.8174
9206 2 2.2208 13.3483 -2.41446 22.0212
578 2 2.2208 10.6736 0.571746 21.9463
579 1 -1.1104 11.9679 -3.67569 23.6439
581 1 -1.1104 12.0502 -3.57013 26.5186
583 1 -1.1104 12.0223 -0.692551 23.361
584 2 2.2208 10.7097 -2.08802 24.908
586 1 -1.1104 12.1217 -0.719631 26.171
587 1 -1.1104 9.39593 -3.59754 23.2065
589 2 2.2208 7.75517 0.630059 24.8429
590 1 -1.1104 9.15728 -3.56635 26.2967
592 2 2.2208 8.04755 -2.13671 22.0449
594 1 -1.1104 9.32168 -0.805626 23.3394
595 1 -1.1104 9.35361 -0.684467 26.145
580 1 -1.1104 11.9788 2.14265 23.3533
582 1 -1.1104 11.858 2.20388 26.2653
588 1 -1.1104 9.03032 2.21784 23.3955
591 1 -1.1104 9.07393 2.22419 26.1326
593 2 2.2208 7.74207 3.57161 22.0156
585 2 2.2208 10.4718 3.492 24.813
598 2 2.2208 7.67379 3.56853 27.6254
9061 2 2.2208 13.4392 17.4939 24.8294
412 2 2.2208 10.4592 17.5885 21.9044
433 1 -1.1104 0.736349 10.4855 20.6855
662 2 2.2208 10.7567 6.36534 27.5134
447 1 -1.1104 3.3897 4.9376 20.7452
607 2 2.2208 5.02168 6.38201 21.9845
609 1 -1.1104 0.748663 7.73473 23.4057
611 1 -1.1104 0.651619 7.53162 26.1127
613 1 -1.1104 0.70616 4.96342 23.4405
618 1 -1.1104 0.713234 4.77923 26.0239
622 1 -1.1104 3.63095 7.60473 23.5726
623 2 2.2208 2.20789 6.24943 24.8852
625 1 -1.1104 3.58572 7.66995 26.3722
627 1 -1.1104 3.36913 4.84607 23.5881
629 1 -1.1104 3.59571 4.78089 26.2651
615 1 -1.1104 6.26261 4.89379 23.4413
610 1 -1.1104 6.27602 7.76569 23.562
612 1 -1.1104 6.51334 7.92594 26.1992
620 1 -1.1104 6.28701 4.96748 26.3011
608 2 2.2208 4.94442 12.0349 21.9927
614 1 -1.1104 0.843092 10.4667 23.5115
617 2 2.2208 5.2513 9.20007 24.8764
619 1 -1.1104 0.68603 10.4641 26.1983
624 2 2.2208 2.26029 11.8483 24.8801
626 2 2.2208 2.20908 9.08233 22.1911
628 1 -1.1104 3.87939 10.4802 23.4314
630 1 -1.1104 3.71457 10.5121 26.1958
616 1 -1.1104 6.52495 10.7793 23.457
621 1 -1.1104 6.57562 10.7353 26.2609
383 2 2.2208 2.09941 20.3411 27.6503
8417 2 2.2208 2.09361 -4.85301 19.2342
413 1 -1.1104 12.1368 13.5549 23.6626
469 1 -1.1104 9.21898 7.58345 20.5116
634 2 2.2208 7.83648 17.4793 24.9013
658 2 2.2208 10.4939 11.9328 27.6188
464 1 -1.1104 12.0391 10.3861 20.4528
457 1 -1.1104 12.1519 7.64357 20.6361
9025 2 2.2208 13.4001 6.40494 24.8441
639 1 -1.1104 8.92855 5.10808 26.135
641 1 -1.1104 9.23936 4.79996 23.4206
645 2 2.2208 7.76951 6.35984 24.6305
646 2 2.2208 10.6925 6.19484 21.8341
648 1 -1.1104 11.9574 7.67682 23.2153
649 1 -1.1104 11.9516 7.66794 26.0603
650 1 -1.1104 12.0669 4.77765 23.3587
653 1 -1.1104 12.0463 5.00493 26.2634
655 1 -1.1104 9.242 7.64757 23.208
643 1 -1.1104 9.16652 7.8281 25.966
9250 2 2.2208 13.5267 9.21687 21.9475
659 2 2.2208 13.5345 12.0162 24.752
638 1 -1.1104 9.34227 10.4826 26.2433
640 1 -1.1104 9.2247 10.6936 23.4612
642 2 2.2208 7.82344 9.08959 22.1204
644 2 2.2208 7.75264 12.061 24.841
647 2 2.2208 10.6291 11.9859 21.9745
651 1 -1.1104 12.1958 10.7722 23.1349
652 2 2.2208 10.5763 9.08901 24.5987
654 1 -1.1104 12.051 10.4781 26.2222
657 2 2.2208 7.91444 9.30424 27.6123
486 1 -1.1104 0.759474 13.4278 20.6047
497 1 -1.1104 0.675824 16.2234 20.5326
514 1 -1.1104 6.36785 13.3742 23.5282
451 1 -1.1104 3.54051 13.2653 26.3705
512 1 -1.1104 0.668077 13.2898 23.2656
573 1 -1.1104 0.89329 13.1818 26.1745
656 1 -1.1104 3.63003 13.3758 23.4582
660 1 -1.1104 6.29385 13.2899 26.1914
635 1 -1.1104 6.42651 18.8442 26.4326
450 1 -1.1104 6.33849 16.3007 23.4852
378 1 -1.1104 3.6279 19.1039 23.4238
408 2 2.2208 2.02985 14.8312 21.9666
414 2 2.2208 2.13562 20.4087 22.032
415 1 -1.1104 3.37772 16.2777 23.2639
416 1 -1.1104 0.371704 16.2427 23.541
452 1 -1.1104 3.66515 16.0617 26.1572
477 2 2.2208 2.25057 17.5009 24.9618
478 1 -1.1104 3.63808 18.9037 26.3118
479 2 2.2208 5.02574 17.7211 22.0493
513 1 -1.1104 0.7807 19.0255 23.5335
538 2 2.2208 4.94015 14.7701 24.8993
540 2 2.2208 5.2028 20.3611 24.9224
599 1 -1.1104 0.865603 16.0061 26.2888
606 1 -1.1104 0.845456 18.9173 26.3986
572 1 -1.1104 6.39634 19.0128 23.4645
631 1 -1.1104 6.48341 16.1199 26.3718
566 2 2.2208 4.95964 0.577119 27.5968
576 2 2.2208 10.6942 14.8775 24.9962
575 1 -1.1104 11.9199 16.3509 23.4388
577 2 2.2208 10.6765 20.3701 24.8979
541 1 -1.1104 12.0543 18.9239 23.5067
531 1 -1.1104 9.2382 13.4092 20.4572
9062 2 2.2208 13.4877 14.8895 22.0224
605 1 -1.1104 9.26404 19.0786 23.3795
574 1 -1.1104 11.9378 19.2326 26.4741
637 1 -1.1104 9.3472 18.8251 26.2663
603 1 -1.1104 12.077 16.3347 26.4077
380 2 2.2208 7.73723 20.5679 22.104
377 2 2.2208 13.3628 20.3639 22.1082
602 1 -1.1104 9.40649 16.2073 26.3416
661 2 2.2208 7.81708 14.6581 21.9654
632 2 2.2208 2.21988 9.04226 27.5024
314 2 2.2208 4.94156 3.52796 13.7056
316 2 2.2208 7.67136 0.669985 13.6936
8942 2 2.2208 13.6271 20.3988 27.7151
325 2 2.2208 2.29578 17.6872 13.6896
340 2 2.2208 5.01859 17.469 27.6654
664 2 2.2208 4.96004 23.2996 5.20418
666 1 -1.1104 0.700914 24.5714 0.957864
667 1 -1.1104 0.957138 24.7881 3.82298
668 1 -1.1104 0.777488 21.7583 1.01028
669 1 -1.1104 0.770081 27.3409 0.907886
670 2 2.2208 4.87218 25.9431 2.28087
671 1 -1.1104 0.80815 21.8763 3.73796
673 1 -1.1104 3.67017 24.6101 0.899584
674 2 2.2208 2.2698 23.1814 2.33936
676 1 -1.1104 3.61416 24.5332 3.63751
677 2 2.2208 2.20369 26.2553 5.14108
678 1 -1.1104 3.60054 21.9181 0.928844
679 1 -1.1104 3.65528 27.4587 0.964235
680 1 -1.1104 3.71373 21.7948 3.81841
681 1 -1.1104 3.68679 27.2808 3.82045
672 1 -1.1104 0.828643 27.5105 3.6667
687 1 -1.1104 6.44516 21.7073 0.95005
685 1 -1.1104 6.41269 24.504 1.04878
689 1 -1.1104 6.49592 21.9507 3.77141
688 1 -1.1104 6.27826 27.4023 0.905317
686 1 -1.1104 6.20366 24.7267 3.88619
690 1 -1.1104 6.47441 27.4692 3.71708
807 1 -1.1104 6.48876 27.4322 6.50655
806 1 -1.1104 6.33847 21.9109 6.49048
809 1 -1.1104 3.66431 21.796 6.62168
665 2 2.2208 5.10741 28.8519 5.22404
675 2 2.2208 2.15443 28.8863 2.24245
803 1 -1.1104 6.32792 24.5133 6.57564
810 1 -1.1104 3.63401 27.4726 6.55103
804 1 -1.1104 0.868156 21.9124 6.58373
808 1 -1.1104 3.49343 24.6593 6.62842
805 1 -1.1104 0.796176 27.5365 6.4971
691 2 2.2208 10.5954 23.3789 5.16068
693 1 -1.1104 12.1878 24.6352 1.06959
694 1 -1.1104 12.0987 24.755 3.82281
695 1 -1.1104 12.1093 21.9351 0.953635
697 2 2.2208 10.7632 26.1899 2.35296
698 1 -1.1104 12.0311 21.882 3.66702
700 1 -1.1104 9.20319 24.7706 0.938157
701 2 2.2208 7.74703 23.2615 2.29148
703 1 -1.1104 9.19615 24.5533 3.5596
704 2 2.2208 7.91499 26.1393 5.16988
705 1 -1.1104 9.38899 21.7836 1.02796
707 1 -1.1104 9.23915 21.8746 3.65828
696 1 -1.1104 11.9378 27.5193 1.0242
708 1 -1.1104 9.26196 27.3623 3.68133
699 1 -1.1104 12.3353 27.261 3.87439
836 1 -1.1104 11.9187 21.7874 6.56007
837 1 -1.1104 12.1121 27.4227 6.69219
706 1 -1.1104 9.07449 27.6809 0.717708
692 2 2.2208 10.7839 28.7741 5.14388
702 2 2.2208 7.71272 28.8373 2.4884
9619 2 2.2208 13.6388 28.7295 2.34192
9620 2 2.2208 13.5524 25.8551 5.27788
838 1 -1.1104 9.14173 24.7868 6.63981
9618 2 2.2208 13.4885 23.265 2.34275
840 1 -1.1104 9.26804 27.5201 6.56784
715 1 -1.1104 0.665035 30.2635 1.03341
718 1 -1.1104 0.849324 30.2931 3.85533
721 1 -1.1104 0.711273 33.1368 0.788792
722 2 2.2208 4.94346 31.6611 2.31774
724 1 -1.1104 0.588738 33.0432 3.56615
726 1 -1.1104 3.47657 30.3411 1.03932
729 1 -1.1104 3.56655 30.1876 3.92349
731 2 2.2208 2.10528 31.8026 5.05141
733 1 -1.1104 3.49608 33.1 1.0827
734 1 -1.1104 3.49523 33.2838 3.76269
738 1 -1.1104 6.2167 33.0184 0.996351
737 1 -1.1104 6.24492 30.2581 3.70267
867 1 -1.1104 3.47478 33.1896 6.70694
736 1 -1.1104 6.45296 30.2394 1.03061
714 2 2.2208 4.9477 34.5847 5.03112
716 1 -1.1104 0.866134 35.9958 0.998996
719 1 -1.1104 0.854827 36.0122 3.80237
723 2 2.2208 4.99137 37.2626 2.41387
727 1 -1.1104 3.552 35.8223 0.779233
728 2 2.2208 2.16282 34.446 2.18363
730 1 -1.1104 3.58514 35.9891 3.90641
732 2 2.2208 2.13724 37.4893 5.16702
866 1 -1.1104 3.33443 36.1029 6.71825
720 1 -1.1104 6.43421 35.9199 3.58442
862 1 -1.1104 6.34178 35.7895 6.47481
865 1 -1.1104 3.59138 30.2222 6.72437
860 1 -1.1104 0.648993 35.8774 6.44065
725 1 -1.1104 6.44383 33.0853 3.73279
717 1 -1.1104 6.48903 35.7374 0.889022
863 1 -1.1104 0.6808 33.2268 6.49477
859 1 -1.1104 0.82964 30.4746 6.54835
861 1 -1.1104 6.44102 30.2469 6.67823
9624 2 2.2208 13.5723 34.381 2.24066
957 2 2.2208 13.4836 37.2752 5.2078
740 1 -1.1104 12.0504 30.314 0.915483
742 1 -1.1104 12.0417 30.2045 3.84543
744 1 -1.1104 11.9228 32.872 0.834524
745 2 2.2208 10.5482 31.5208 2.38019
747 1 -1.1104 12.0742 33.1398 3.81428
748 1 -1.1104 9.24048 30.2128 1.05504
751 1 -1.1104 9.15005 30.2573 3.98624
753 2 2.2208 7.64349 31.5964 5.21832
755 1 -1.1104 9.23116 32.9281 1.00246
756 1 -1.1104 9.16836 32.9337 3.60629
898 1 -1.1104 9.34993 32.8724 6.44715
9366 2 2.2208 13.5631 31.5165 5.19213
739 2 2.2208 10.7165 34.4163 5.17163
741 1 -1.1104 12.0323 35.7327 0.983422
743 1 -1.1104 12.0282 35.8716 3.77838
746 2 2.2208 10.7582 37.2385 2.37851
749 1 -1.1104 9.46426 35.9377 0.866441
750 2 2.2208 7.95961 34.447 2.25431
752 1 -1.1104 9.19765 35.9055 3.90271
754 2 2.2208 7.90655 37.2568 5.13832
893 1 -1.1104 12.0063 30.3119 6.7051