LAMMPS (29 Oct 2020)
OMP_NUM_THREADS environment is not set. Defaulting to 1 thread. (../comm.cpp:94)
  using 1 OpenMP thread(s) per MPI task
OMP_NUM_THREADS environment is not set. Defaulting to 1 thread. (../comm.cpp:94)
  using 1 OpenMP thread(s) per MPI task
Reading data file ...
  orthogonal box = (-0.27717828 -3.4472206 -0.27717828) to (27.617178 331.52722 27.617178)
  2 by 13 by 2 MPI processor grid
  reading atoms ...
  18000 atoms
  reading velocities ...
  18000 velocities
Finding 1-2 1-3 1-4 neighbors ...
  special bond factors lj:    0.0      0.0      0.0     
  special bond factors coul:  0.0      0.0      0.0     
     0 = max # of 1-2 neighbors
     0 = max # of 1-3 neighbors
     0 = max # of 1-4 neighbors
     1 = max # of special neighbors
  special bonds CPU = 0.004 seconds
  read_data CPU = 0.091 seconds
99 atoms in group sphere
4 atoms in group oxygen
13 atoms in group thorium
86 atoms in group 1
90 atoms in group cluster
6000 atoms in group Th
12000 atoms in group O
30 atoms in group Th_group
60 atoms in group O_group
WARNING: Ignoring 'compress yes' for molecular system (../delete_atoms.cpp:125)
Deleted 90 atoms, new total = 17910
99 atoms in group sphere
4 atoms in group oxygen
13 atoms in group thorium
86 atoms in group 1
90 atoms in group cluster
5970 atoms in group Th
11940 atoms in group O
30 atoms in group Th_group
60 atoms in group O_group
WARNING: Ignoring 'compress yes' for molecular system (../delete_atoms.cpp:125)
Deleted 90 atoms, new total = 17820
99 atoms in group sphere
4 atoms in group oxygen
13 atoms in group thorium
86 atoms in group 1
90 atoms in group cluster
5940 atoms in group Th
11880 atoms in group O
30 atoms in group Th_group
60 atoms in group O_group
WARNING: Ignoring 'compress yes' for molecular system (../delete_atoms.cpp:125)
Deleted 90 atoms, new total = 17730
99 atoms in group sphere
4 atoms in group oxygen
13 atoms in group thorium
86 atoms in group 1
90 atoms in group cluster
5910 atoms in group Th
11820 atoms in group O
30 atoms in group Th_group
60 atoms in group O_group
WARNING: Ignoring 'compress yes' for molecular system (../delete_atoms.cpp:125)
Deleted 90 atoms, new total = 17640
Setting atom values ...
  11760 settings made for charge
Setting atom values ...
  5880 settings made for charge
PPPM initialization ...
  using 12-bit tables for long-range coulomb (../kspace.cpp:328)
  G vector (1/distance) = 0.29912164
  grid = 40 240 40
  stencil order = 5
  estimated absolute RMS force accuracy = 0.00015376724
  estimated relative force accuracy = 1.0678544e-05
  using single precision MKL FFT
  3d grid and FFT values/proc = 18225 7600
Neighbor list info ...
  update every 1 steps, delay 0 steps, check yes
  max neighbors/atom: 2000, page size: 100000
  master list distance cutoff = 13
  ghost atom cutoff = 13
  binsize = 6.5, bins = 5 52 5
  2 neighbor lists, perpetual/occasional/extra = 2 0 0
  (1) pair coul/long, perpetual
      attributes: half, newton on
      pair build: half/bin/newton
      stencil: half/bin/3d/newton
      bin: standard
  (2) pair eam/alloy, perpetual, copy from (1)
      attributes: half, newton on
      pair build: copy
      stencil: none
      bin: none
Setting up cg style minimization ...
  Unit style    : metal
  Current step  : 0
Per MPI rank memory allocation (min/avg/max) = 9.467 | 10.07 | 10.28 Mbytes
Step Temp E_pair E_mol TotEng Press 
       0            0   -230862.45            0   -230862.45   -926.62736 
     220            0   -231783.89            0   -231783.89    1055.9812 
Loop time of 4.2465 on 52 procs for 220 steps with 17640 atoms

99.6% CPU use with 52 MPI tasks x 1 OpenMP threads

Minimization stats:
  Stopping criterion = linesearch alpha is zero
  Energy initial, next-to-last, final = 
     -230862.445485862  -231783.894818591  -231783.894818591
  Force two-norm initial, final = 180.70645 0.021086391
  Force max component initial, final = 13.194848 0.0028413325
  Final line search alpha, max atom move = 1.5258789e-05 4.3355293e-08
  Iterations, force evaluations = 220 456

MPI task timing breakdown:
Section |  min time  |  avg time  |  max time  |%varavg| %total
---------------------------------------------------------------
Pair    | 2.8671     | 3.059      | 3.4595     |   5.6 | 72.04
Bond    | 3.8551e-05 | 5.1536e-05 | 8.2647e-05 |   0.0 |  0.00
Kspace  | 0.65042    | 1.0496     | 1.2399     |   9.6 | 24.72
Neigh   | 0.030823   | 0.035083   | 0.04037    |   1.0 |  0.83
Comm    | 0.079354   | 0.081591   | 0.085142   |   0.5 |  1.92
Output  | 0          | 0          | 0          |   0.0 |  0.00
Modify  | 0          | 0          | 0          |   0.0 |  0.00
Other   |            | 0.02118    |            |       |  0.50

Nlocal:        339.231 ave         406 max         303 min
Histogram: 4 4 10 19 7 4 2 0 0 2
Nghost:        5525.19 ave        5736 max        5362 min
Histogram: 16 1 2 6 4 4 5 3 5 6
Neighs:       107550.0 ave      130667 max       94383 min
Histogram: 5 5 9 13 12 3 2 1 0 2

Total # of neighbors = 5592618
Ave neighs/atom = 317.04184
Ave special neighs/atom = 0.0000000
Neighbor list builds = 12
Dangerous builds = 0
Resetting atom IDs ...
PPPM initialization ...
  using 12-bit tables for long-range coulomb (../kspace.cpp:328)
  G vector (1/distance) = 0.29912164
  grid = 40 240 40
  stencil order = 5
  estimated absolute RMS force accuracy = 0.00015376724
  estimated relative force accuracy = 1.0678544e-05
  using single precision MKL FFT
  3d grid and FFT values/proc = 18225 7600
Finding 1-2 1-3 1-4 neighbors ...
  special bond factors lj:    0.0      0.0      0.0     
  special bond factors coul:  0.0      0.0      0.0     
     0 = max # of 1-2 neighbors
     0 = max # of 1-3 neighbors
     0 = max # of 1-4 neighbors
     1 = max # of special neighbors
  special bonds CPU = 0.001 seconds
PPPM initialization ...
  using 12-bit tables for long-range coulomb (../kspace.cpp:328)
  G vector (1/distance) = 0.29912164
  grid = 40 240 40
  stencil order = 5
  estimated absolute RMS force accuracy = 0.00015376724
  estimated relative force accuracy = 1.0678544e-05
  using single precision MKL FFT
  3d grid and FFT values/proc = 18225 7600
Setting up Verlet run ...
  Unit style    : metal
  Current step  : 220
  Time step     : 0.001
Per MPI rank memory allocation (min/avg/max) = 9.104 | 9.135 | 9.157 Mbytes
Step Dt Time Atoms Temp PotEng KinEng Press Volume 
     220        0.001            0    17640         1200   -231783.89    2736.0236    12268.278    260641.98 
   10000        0.001         9.78    17640    1195.1025   -228901.23    2724.8572    128.67392    269763.09 
   20000        0.001        19.78    17640     1206.616   -228945.47    2751.1083   -504.07824    269822.36 
   30000        0.001        29.78    17640    1193.6022   -228951.07    2721.4364   -219.03526    269715.35 
   40000        0.001        39.78    17640    1208.8416   -228974.48    2756.1826    319.57705    269639.31 
   50000        0.001        49.78    17640    1195.1833   -228958.03    2725.0414    -609.4963    269894.18 
   60000        0.001        59.78    17640    1202.1552   -229001.08    2740.9375   -491.98894    269611.89 
   70000        0.001        69.78    17640    1192.9857   -228966.01    2720.0309    1959.2946    269410.42 
   80000        0.001        79.78    17640    1199.3097   -228961.43    2734.4498   -503.22256    269699.41 
   90000        0.001        89.78    17640    1203.1859   -228947.39    2743.2876   -626.34556    269694.63 
  100000        0.001        99.78    17640    1190.7998   -228954.76    2715.0469    1639.2402    269387.56 
  100220        0.001          100    17640    1212.0143      -228964    2763.4165    1407.1192    269377.18 
Loop time of 818.756 on 52 procs for 100000 steps with 17640 atoms

Performance: 10.553 ns/day, 2.274 hours/ns, 122.136 timesteps/s
99.8% CPU use with 52 MPI tasks x 1 OpenMP threads

MPI task timing breakdown:
Section |  min time  |  avg time  |  max time  |%varavg| %total
---------------------------------------------------------------
Pair    | 502.73     | 520.89     | 541.61     |  36.3 | 63.62
Bond    | 0.0098026  | 0.013715   | 0.01864    |   2.0 |  0.00
Kspace  | 148.34     | 169.71     | 188.25     |  65.4 | 20.73
Neigh   | 6.786      | 7.5446     | 8.1066     |  10.9 |  0.92
Comm    | 16.313     | 16.667     | 17.153     |   5.9 |  2.04
Output  | 0.048108   | 0.048164   | 0.050096   |   0.1 |  0.01
Modify  | 92.201     | 96.338     | 99.731     |  22.7 | 11.77
Other   |            | 7.545      |            |       |  0.92

Nlocal:        339.231 ave         369 max         316 min
Histogram: 3 3 7 10 9 10 7 0 0 3
Nghost:        5471.35 ave        5663 max        5310 min
Histogram: 8 10 3 3 3 7 6 0 1 11
Neighs:       104316.0 ave      115446 max       90111 min
Histogram: 2 5 0 2 4 12 14 9 1 3

Total # of neighbors = 5424443
Ave neighs/atom = 307.50811
Ave special neighs/atom = 0.0000000
Neighbor list builds = 2696
Dangerous builds = 0
WARNING: Shell command 'mkdir' failed with error 'File exists' (../input.cpp:1197)
System init for write_data ...
PPPM initialization ...
  using 12-bit tables for long-range coulomb (../kspace.cpp:328)
  G vector (1/distance) = 0.29851483
  grid = 40 240 40
  stencil order = 5
  estimated absolute RMS force accuracy = 0.00015865338
  estimated relative force accuracy = 1.1017867e-05
  using single precision MKL FFT
  3d grid and FFT values/proc = 18225 7600
Total wall time: 0:13:43
