LAMMPS (29 Oct 2020)
OMP_NUM_THREADS environment is not set. Defaulting to 1 thread. (../comm.cpp:94)
  using 1 OpenMP thread(s) per MPI task
OMP_NUM_THREADS environment is not set. Defaulting to 1 thread. (../comm.cpp:94)
  using 1 OpenMP thread(s) per MPI task
Reading data file ...
  triclinic box = (0.0000000 0.0000000 0.0000000) to (27.894000 334.72800 27.894000) with tilt (0.0000000 0.0000000 0.0000000)
  2 by 13 by 2 MPI processor grid
  reading atoms ...
  24000 atoms
  reading velocities ...
  24000 velocities
Finding 1-2 1-3 1-4 neighbors ...
  special bond factors lj:    0.0      0.0      0.0     
  special bond factors coul:  0.0      0.0      0.0     
     0 = max # of 1-2 neighbors
     0 = max # of 1-3 neighbors
     0 = max # of 1-4 neighbors
     1 = max # of special neighbors
  special bonds CPU = 0.004 seconds
  read_data CPU = 0.071 seconds
180 atoms in group vac_Th
180 atoms in group oct_Th
3000 atoms in group tot_oct_Th
3000 atoms in group tot_oct_O
2820 atoms in group delete_oct_Th
WARNING: Ignoring 'compress yes' for molecular system (../delete_atoms.cpp:125)
Deleted 180 atoms, new total = 23820
WARNING: Ignoring 'compress yes' for molecular system (../delete_atoms.cpp:125)
Deleted 3000 atoms, new total = 20820
WARNING: Ignoring 'compress yes' for molecular system (../delete_atoms.cpp:125)
Deleted 2820 atoms, new total = 18000
Setting atom values ...
  12000 settings made for charge
Setting atom values ...
  5820 settings made for charge
Setting atom values ...
  0 settings made for charge
Setting atom values ...
  180 settings made for charge
PPPM initialization ...
  using 12-bit tables for long-range coulomb (../kspace.cpp:328)
  G vector (1/distance) = 0.29916851
  grid = 40 240 40
  stencil order = 5
  estimated absolute RMS force accuracy = 0.00015502622
  estimated relative force accuracy = 1.0765975e-05
  using single precision MKL FFT
  3d grid and FFT values/proc = 18225 7600
Neighbor list info ...
  update every 1 steps, delay 0 steps, check yes
  max neighbors/atom: 2000, page size: 100000
  master list distance cutoff = 13
  ghost atom cutoff = 13
  binsize = 6.5, bins = 5 52 5
  2 neighbor lists, perpetual/occasional/extra = 2 0 0
  (1) pair coul/long, perpetual
      attributes: half, newton on
      pair build: half/bin/newton/tri
      stencil: half/bin/3d/newton/tri
      bin: standard
  (2) pair eam/alloy, perpetual, copy from (1)
      attributes: half, newton on
      pair build: copy
      stencil: none
      bin: none
Setting up cg style minimization ...
  Unit style    : metal
  Current step  : 0
WARNING: Energy due to 3 extra global DOFs will be included in minimizer energies
Per MPI rank memory allocation (min/avg/max) = 10.44 | 10.47 | 10.50 Mbytes
Step Temp E_pair E_mol TotEng Press Volume 
       0            0    104471.96            0    104471.96    720750.39    260443.57 
   10000            0   -189431.79            0   -189431.79    546.99952    304533.66 
Loop time of 100.717 on 52 procs for 10000 steps with 18000 atoms

99.8% CPU use with 52 MPI tasks x 1 OpenMP threads

Minimization stats:
  Stopping criterion = max force evaluations
  Energy initial, next-to-last, final = 
      104471.957857824  -189426.132780226  -189431.792080821
  Force two-norm initial, final = 572395.23 1339.2237
  Force max component initial, final = 339068.83 154.23387
  Final line search alpha, max atom move = 2.0771589e-06 0.00032036825
  Iterations, force evaluations = 10000 10000

MPI task timing breakdown:
Section |  min time  |  avg time  |  max time  |%varavg| %total
---------------------------------------------------------------
Pair    | 51.721     | 54.638     | 58.618     |  24.3 | 54.25
Bond    | 0.00084747 | 0.0012042  | 0.0021674  |   0.7 |  0.00
Kspace  | 15.325     | 19.38      | 22.345     |  41.2 | 19.24
Neigh   | 0.41111    | 0.46584    | 0.5442     |   4.4 |  0.46
Comm    | 1.2578     | 1.3027     | 1.346      |   2.0 |  1.29
Output  | 0          | 0          | 0          |   0.0 |  0.00
Modify  | 0          | 0          | 0          |   0.0 |  0.00
Other   |            | 24.93      |            |       | 24.75

Nlocal:        346.154 ave         394 max         302 min
Histogram: 4 4 6 4 12 7 5 3 4 3
Nghost:        4844.87 ave        5054 max        4676 min
Histogram: 6 7 11 2 0 5 11 5 1 4
Neighs:        93311.9 ave      111019 max       80705 min
Histogram: 3 5 5 15 8 5 5 3 2 1

Total # of neighbors = 4852220
Ave neighs/atom = 269.56778
Ave special neighs/atom = 0.0000000
Neighbor list builds = 138
Dangerous builds = 0
Resetting atom IDs ...
PPPM initialization ...
  using 12-bit tables for long-range coulomb (../kspace.cpp:328)
  G vector (1/distance) = 0.29901505
  grid = 45 225 45
  stencil order = 5
  estimated absolute RMS force accuracy = 0.00014329471
  estimated relative force accuracy = 9.9512667e-06
  using single precision MKL FFT
  3d grid and FFT values/proc = 21600 9720
Finding 1-2 1-3 1-4 neighbors ...
  special bond factors lj:    0.0      0.0      0.0     
  special bond factors coul:  0.0      0.0      0.0     
     0 = max # of 1-2 neighbors
     0 = max # of 1-3 neighbors
     0 = max # of 1-4 neighbors
     1 = max # of special neighbors
  special bonds CPU = 0.001 seconds
PPPM initialization ...
  using 12-bit tables for long-range coulomb (../kspace.cpp:328)
  G vector (1/distance) = 0.29901505
  grid = 45 225 45
  stencil order = 5
  estimated absolute RMS force accuracy = 0.00014329471
  estimated relative force accuracy = 9.9512667e-06
  using single precision MKL FFT
  3d grid and FFT values/proc = 21600 9720
Setting up Verlet run ...
  Unit style    : metal
  Current step  : 0
  Time step     : 0.001
Per MPI rank memory allocation (min/avg/max) = 10.77 | 10.83 | 10.92 Mbytes
Step Temp KinEng PotEng Press 
       0          600     1395.932   -189431.81    5443.8796 
  100000    599.76291    1395.3804   -233703.24    742.93515 
Loop time of 977.771 on 52 procs for 100000 steps with 18000 atoms

Performance: 8.836 ns/day, 2.716 hours/ns, 102.273 timesteps/s
99.8% CPU use with 52 MPI tasks x 1 OpenMP threads

MPI task timing breakdown:
Section |  min time  |  avg time  |  max time  |%varavg| %total
---------------------------------------------------------------
Pair    | 536.81     | 565.83     | 612.67     |  95.6 | 57.87
Bond    | 0.01049    | 0.014861   | 0.022265   |   2.0 |  0.00
Kspace  | 187.28     | 234.69     | 263.66     | 149.6 | 24.00
Neigh   | 5.8671     | 6.3626     | 7.0961     |  12.2 |  0.65
Comm    | 16.772     | 17.737     | 18.534     |   9.3 |  1.81
Output  | 0.0061203  | 0.0061244  | 0.006286   |   0.0 |  0.00
Modify  | 128.25     | 136.68     | 149.63     |  46.8 | 13.98
Other   |            | 16.45      |            |       |  1.68

Nlocal:        346.154 ave         368 max         321 min
Histogram: 2 3 7 2 9 7 8 4 6 4
Nghost:        5387.38 ave        5562 max        5234 min
Histogram: 7 8 4 3 4 4 10 3 6 3
Neighs:       106701.0 ave      116109 max       96309 min
Histogram: 1 3 7 6 7 7 8 6 3 4

Total # of neighbors = 5548473
Ave neighs/atom = 308.24850
Ave special neighs/atom = 0.0000000
Neighbor list builds = 1545
Dangerous builds = 0
WARNING: Shell command 'mkdir' failed with error 'File exists' (../input.cpp:1197)
System init for write_data ...
PPPM initialization ...
  using 12-bit tables for long-range coulomb (../kspace.cpp:328)
  G vector (1/distance) = 0.29821044
  grid = 40 240 40
  stencil order = 5
  estimated absolute RMS force accuracy = 0.00016337673
  estimated relative force accuracy = 1.1345886e-05
  using single precision MKL FFT
  3d grid and FFT values/proc = 18225 7600
Total wall time: 0:17:59
