LAMMPS (29 Oct 2020)
OMP_NUM_THREADS environment is not set. Defaulting to 1 thread. (../comm.cpp:94)
  using 1 OpenMP thread(s) per MPI task
#-------------------------------
#
#This input script is used to simulate the defected configuration generated by overlapping cascades initiated at
#different energies
#Ziqiang Wang on 01/24/2022
#
#-------------------------------

clear
OMP_NUM_THREADS environment is not set. Defaulting to 1 thread. (../comm.cpp:94)
  using 1 OpenMP thread(s) per MPI task
units                    metal
dimension                    3
boundary                 p p p
atom_style               full
atom_modify              map  array

read_data               perfect_relaxed.dat
Reading data file ...
  triclinic box = (0.0000000 0.0000000 0.0000000) to (27.894000 334.72800 27.894000) with tilt (0.0000000 0.0000000 0.0000000)
  2 by 13 by 2 MPI processor grid
  reading atoms ...
  24000 atoms
  reading velocities ...
  24000 velocities
Finding 1-2 1-3 1-4 neighbors ...
  special bond factors lj:    0.0      0.0      0.0     
  special bond factors coul:  0.0      0.0      0.0     
     0 = max # of 1-2 neighbors
     0 = max # of 1-3 neighbors
     0 = max # of 1-4 neighbors
     1 = max # of special neighbors
  special bonds CPU = 0.004 seconds
  read_data CPU = 0.070 seconds

variable                ratio    equal   0.01

group                   vac_Th    id      5089 2735  408 1345 3148  128 5249 1052 1891 5555 1584 1784 3638 3187                                            3093 1489 1296 5040 1163 1758 4286 5571 3815 4403 5120 5540 2825  537                                            1867 3254 4896  234 1570 4114 4522 2420  292 3114 4598  546 5013 4792                                            634 2467 1023 1316 1627 2901 5850 3410  294 2533 3155  561 3130 1277                                            4853 5262 4809  277 1813 4056  527 4770 4405  583 3880 2932  468 5893                                            2105  542 2982  485 3994 4876 1721 4931 2626 3500  476  672 1978 5623                                            4428 2763 5400 2015 5276 4922 2337 1945 4170 5202 5597 4839 2306 4115                                            4353 5424 5569 2937 4525 1164 4993 5107 3088 3188 5697 4847 5675 3602                                            2567 3872  806 2673 5511 3278 5668 1799 4336  742 5358 5822 3324 5215                                            2067 3160 5831 2941 2789 1396 5019 4776 5126 2035 1854 5087 1225 1697                                            4421 4830 2102 2807 4133 1704 5726 1385 5567 2671 4757 5265 1954 5377                                            5608 5719 4756  454 5508 3493 5681 3674 3587 4062 1946 5769 5842 4995                                            5827 3238 5744 5128 4207 2028 4715 5046 5440 5879 2160 2418
180 atoms in group vac_Th

group                   oct_Th    id      18003 18004 18007 18008 18010 18013 18014 18017 18018 18020 18023 18024                                            18027 18028 18030 18033 18034 18037 18043 18044 18047 18053 18063 18064                                            18068 18073 18074 18077 18078 18080 18083 18084 18087 18093 18094 18097                                            18131 18132 18136 18137 18138 18139 18140 18141 18142 18143 18144 18145                                            18146 18147 18148 18153 18163 18164 18168 18173 18177 18178 18180 18188                                            18190 18198 18203 18204 18207 18208 18210 18213 18214 18217 18218 18220                                            18227 18228 18230 18240 18248 18250 18253 18254 18257 18263 18298 18299                                            18302 18303 18308 18318 18363 18364 18365 18366 18372 18377 18379 18381                                            18382 18383 18384 18385 18388 18392 18393 18405 18434 18437 18438 18440                                            18450 18460 18589 18653 18670 18694 18698 18700 18713 18714 18718 18723                                            18727 18728 18730 18740 18758 18763 18775 18785 18818 18820 18821 18827                                            18832 18838 18839 18842 18843 18848 18849 18852 18853 18858 18862 18863                                            18865 18872 18875 18883 18884 18887 18888 18890 18893 18894 18897 18898                                            18900 18903 18904 18907 18908 18910 18913 18914 18917 18918 18920 18922                                            18924 18938 18940 18943 18944 18947 18948 18953 18957 18993 18994 18997
180 atoms in group oct_Th

group                   tot_oct_Th   type   4
3000 atoms in group tot_oct_Th
group                   tot_oct_O    type   3
3000 atoms in group tot_oct_O

group                   delete_oct_Th    subtract   tot_oct_Th   oct_Th
2820 atoms in group delete_oct_Th


delete_atoms            group  vac_Th
WARNING: Ignoring 'compress yes' for molecular system (../delete_atoms.cpp:125)
Deleted 180 atoms, new total = 23820
delete_atoms            group  tot_oct_O
WARNING: Ignoring 'compress yes' for molecular system (../delete_atoms.cpp:125)
Deleted 3000 atoms, new total = 20820
delete_atoms            group  delete_oct_Th
WARNING: Ignoring 'compress yes' for molecular system (../delete_atoms.cpp:125)
Deleted 2820 atoms, new total = 18000

kspace_style                   pppm            1.0e-5
pair_style                     hybrid/overlay     coul/long    11.0   eam/alloy
pair_coeff                     * * coul/long
pair_coeff                     * * eam/alloy CeThUNpPuAmCmO.eam.alloy O Th O Th
neighbor                 2.0  bin
neigh_modify             delay  0  every  1  check   yes

set                      type      1      charge    -1.1104
Setting atom values ...
  12000 settings made for charge
set                      type      2      charge     2.2208
Setting atom values ...
  5820 settings made for charge
set                      type      3      charge    -1.1104
Setting atom values ...
  0 settings made for charge
set                      type      4      charge     2.2208
Setting atom values ...
  180 settings made for charge

# Minimize the defected configuration at 0K
min_style                cg
fix                      relax   all  box/relax  aniso 0.0 vmax 0.001
minimize                 1.0e-30 1.0e-30 10000 10000
PPPM initialization ...
  using 12-bit tables for long-range coulomb (../kspace.cpp:328)
  G vector (1/distance) = 0.29916851
  grid = 40 240 40
  stencil order = 5
  estimated absolute RMS force accuracy = 0.00015502622
  estimated relative force accuracy = 1.0765975e-05
  using single precision MKL FFT
  3d grid and FFT values/proc = 18225 7600
Neighbor list info ...
  update every 1 steps, delay 0 steps, check yes
  max neighbors/atom: 2000, page size: 100000
  master list distance cutoff = 13
  ghost atom cutoff = 13
  binsize = 6.5, bins = 5 52 5
  2 neighbor lists, perpetual/occasional/extra = 2 0 0
  (1) pair coul/long, perpetual
      attributes: half, newton on
      pair build: half/bin/newton/tri
      stencil: half/bin/3d/newton/tri
      bin: standard
  (2) pair eam/alloy, perpetual, copy from (1)
      attributes: half, newton on
      pair build: copy
      stencil: none
      bin: none
Per MPI rank memory allocation (min/avg/max) = 10.44 | 10.47 | 10.50 Mbytes
Step Temp E_pair E_mol TotEng Press Volume 
       0            0    58380.259            0    58380.259    626318.35    260443.57 
   10000            0   -202897.81            0   -202897.81   -1938.3215    303123.37 
Loop time of 101.405 on 52 procs for 10000 steps with 18000 atoms

99.8% CPU use with 52 MPI tasks x 1 OpenMP threads

Minimization stats:
  Stopping criterion = max force evaluations
  Energy initial, next-to-last, final = 
       58380.259482197  -202888.958177383  -202897.807083681
  Force two-norm initial, final = 492181.97 1247.5537
  Force max component initial, final = 291774.56 480.65309
  Final line search alpha, max atom move = 5.6904031e-06 0.0027351098
  Iterations, force evaluations = 10000 10000

MPI task timing breakdown:
Section |  min time  |  avg time  |  max time  |%varavg| %total
---------------------------------------------------------------
Pair    | 53.6       | 56.782     | 59.566     |  19.1 | 56.00
Bond    | 0.00073556 | 0.001209   | 0.0018085  |   0.6 |  0.00
Kspace  | 15.093     | 17.962     | 21.18      |  34.5 | 17.71
Neigh   | 0.38654    | 0.44095    | 0.50171    |   4.0 |  0.43
Comm    | 1.3083     | 1.338      | 1.3774     |   1.7 |  1.32
Output  | 0          | 0          | 0          |   0.0 |  0.00
Modify  | 0          | 0          | 0          |   0.0 |  0.00
Other   |            | 24.88      |            |       | 24.54

Nlocal:        346.154 ave         391 max         298 min
Histogram: 1 4 5 6 8 9 8 1 7 3
Nghost:        4771.81 ave        4931 max        4648 min
Histogram: 5 2 8 10 9 9 2 1 2 4
Neighs:        93674.1 ave      105981 max       79241 min
Histogram: 1 3 6 6 10 5 6 6 4 5

Total # of neighbors = 4871054
Ave neighs/atom = 270.61411
Ave special neighs/atom = 0.0000000
Neighbor list builds = 125
Dangerous builds = 0
unfix                    relax
reset_timestep           0

# Apply the temperature to the system and relax the configurations
reset_atom_ids
Resetting atom IDs ...
PPPM initialization ...
  using 12-bit tables for long-range coulomb (../kspace.cpp:328)
  G vector (1/distance) = 0.2985756
  grid = 45 225 45
  stencil order = 5
  estimated absolute RMS force accuracy = 0.00014921392
  estimated relative force accuracy = 1.0362333e-05
  using single precision MKL FFT
  3d grid and FFT values/proc = 21600 9720
Finding 1-2 1-3 1-4 neighbors ...
  special bond factors lj:    0.0      0.0      0.0     
  special bond factors coul:  0.0      0.0      0.0     
     0 = max # of 1-2 neighbors
     0 = max # of 1-3 neighbors
     0 = max # of 1-4 neighbors
     1 = max # of special neighbors
  special bonds CPU = 0.001 seconds
variable                 temp   index  600
velocity                 all  create  ${temp}  4526826  rot  yes  mom  yes  dist  gaussian
velocity                 all  create  600  4526826  rot  yes  mom  yes  dist  gaussian
fix                      npt  all  npt  temp  ${temp}  ${temp}  $(100*dt)  aniso  0.0  0.0  $(1000*dt)
fix                      npt  all  npt  temp  600  ${temp}  $(100*dt)  aniso  0.0  0.0  $(1000*dt)
fix                      npt  all  npt  temp  600  600  $(100*dt)  aniso  0.0  0.0  $(1000*dt)
fix                      npt  all  npt  temp  600  600  0.10000000000000000555  aniso  0.0  0.0  $(1000*dt)
fix                      npt  all  npt  temp  600  600  0.10000000000000000555  aniso  0.0  0.0  1
timestep                 0.001
thermo                   100000
thermo_style             custom  step  temp  ke  pe  press

shell                    mkdir   Frenkel_${ratio}_relax
shell                    mkdir   Frenkel_0.01_relax
WARNING: Shell command 'mkdir' failed with error 'File exists' (../input.cpp:1197)
dump                     1  all  custom  100000  ./Frenkel_${ratio}_relax/dump_relax.atom.*  id type q mass x y z
dump                     1  all  custom  100000  ./Frenkel_0.01_relax/dump_relax.atom.*  id type q mass x y z
dump_modify              1  element  O Th O Th

run                      100000
PPPM initialization ...
  using 12-bit tables for long-range coulomb (../kspace.cpp:328)
  G vector (1/distance) = 0.2985756
  grid = 45 225 45
  stencil order = 5
  estimated absolute RMS force accuracy = 0.00014921392
  estimated relative force accuracy = 1.0362333e-05
  using single precision MKL FFT
  3d grid and FFT values/proc = 21600 9720
Per MPI rank memory allocation (min/avg/max) = 10.77 | 10.83 | 10.92 Mbytes
Step Temp KinEng PotEng Press 
       0          600     1395.932   -202897.87    2980.9456 
  100000    602.24483    1401.1547   -233658.84   -44.707468 
Loop time of 964.269 on 52 procs for 100000 steps with 18000 atoms

Performance: 8.960 ns/day, 2.679 hours/ns, 103.705 timesteps/s
99.8% CPU use with 52 MPI tasks x 1 OpenMP threads

MPI task timing breakdown:
Section |  min time  |  avg time  |  max time  |%varavg| %total
---------------------------------------------------------------
Pair    | 532.3      | 562.68     | 595.19     |  71.3 | 58.35
Bond    | 0.010114   | 0.013905   | 0.021255   |   2.0 |  0.00
Kspace  | 189.28     | 222.33     | 253.29     | 114.7 | 23.06
Neigh   | 5.4084     | 5.9014     | 6.4553     |  10.2 |  0.61
Comm    | 16.737     | 17.528     | 18.257     |   7.5 |  1.82
Output  | 0.0073944  | 0.0073983  | 0.0075494  |   0.0 |  0.00
Modify  | 128.15     | 136.92     | 152.8      |  48.1 | 14.20
Other   |            | 18.89      |            |       |  1.96

Nlocal:        346.154 ave         365 max         321 min
Histogram: 1 1 7 4 4 11 6 10 2 6
Nghost:        5447.77 ave        5563 max        5256 min
Histogram: 2 3 2 2 2 7 13 10 5 6
Neighs:       106656.0 ave      114748 max       97057 min
Histogram: 1 4 5 4 5 13 9 3 4 4

Total # of neighbors = 5546111
Ave neighs/atom = 308.11728
Ave special neighs/atom = 0.0000000
Neighbor list builds = 1441
Dangerous builds = 0
shell                    mkdir  thermal_condu
WARNING: Shell command 'mkdir' failed with error 'File exists' (../input.cpp:1197)
write_data               ./thermal_condu/Frenkel_${ratio}_relaxed.dat
write_data               ./thermal_condu/Frenkel_0.01_relaxed.dat
System init for write_data ...
PPPM initialization ...
  using 12-bit tables for long-range coulomb (../kspace.cpp:328)
  G vector (1/distance) = 0.29813813
  grid = 40 240 40
  stencil order = 5
  estimated absolute RMS force accuracy = 0.00016414515
  estimated relative force accuracy = 1.1399249e-05
  using single precision MKL FFT
  3d grid and FFT values/proc = 18225 7600

Total wall time: 0:17:46
