LAMMPS (29 Oct 2020)
OMP_NUM_THREADS environment is not set. Defaulting to 1 thread. (../comm.cpp:94)
  using 1 OpenMP thread(s) per MPI task
OMP_NUM_THREADS environment is not set. Defaulting to 1 thread. (../comm.cpp:94)
  using 1 OpenMP thread(s) per MPI task
Reading data file ...
  orthogonal box = (-0.27717828 -3.4472206 -0.27717828) to (27.617178 331.52722 27.617178)
  2 by 13 by 2 MPI processor grid
  reading atoms ...
  18000 atoms
  reading velocities ...
  18000 velocities
Finding 1-2 1-3 1-4 neighbors ...
  special bond factors lj:    0.0      0.0      0.0     
  special bond factors coul:  0.0      0.0      0.0     
     0 = max # of 1-2 neighbors
     0 = max # of 1-3 neighbors
     0 = max # of 1-4 neighbors
     1 = max # of special neighbors
  special bonds CPU = 0.004 seconds
  read_data CPU = 0.078 seconds
99 atoms in group sphere
4 atoms in group oxygen
13 atoms in group thorium
86 atoms in group 1
90 atoms in group cluster
6000 atoms in group Th
12000 atoms in group O
30 atoms in group Th_group
60 atoms in group O_group
WARNING: Ignoring 'compress yes' for molecular system (../delete_atoms.cpp:125)
Deleted 90 atoms, new total = 17910
99 atoms in group sphere
4 atoms in group oxygen
13 atoms in group thorium
86 atoms in group 1
90 atoms in group cluster
5970 atoms in group Th
11940 atoms in group O
30 atoms in group Th_group
60 atoms in group O_group
WARNING: Ignoring 'compress yes' for molecular system (../delete_atoms.cpp:125)
Deleted 90 atoms, new total = 17820
99 atoms in group sphere
4 atoms in group oxygen
13 atoms in group thorium
86 atoms in group 1
90 atoms in group cluster
5940 atoms in group Th
11880 atoms in group O
30 atoms in group Th_group
60 atoms in group O_group
WARNING: Ignoring 'compress yes' for molecular system (../delete_atoms.cpp:125)
Deleted 90 atoms, new total = 17730
99 atoms in group sphere
4 atoms in group oxygen
13 atoms in group thorium
86 atoms in group 1
90 atoms in group cluster
5910 atoms in group Th
11820 atoms in group O
30 atoms in group Th_group
60 atoms in group O_group
WARNING: Ignoring 'compress yes' for molecular system (../delete_atoms.cpp:125)
Deleted 90 atoms, new total = 17640
Setting atom values ...
  11760 settings made for charge
Setting atom values ...
  5880 settings made for charge
PPPM initialization ...
  using 12-bit tables for long-range coulomb (../kspace.cpp:328)
  G vector (1/distance) = 0.29912164
  grid = 40 240 40
  stencil order = 5
  estimated absolute RMS force accuracy = 0.00015376724
  estimated relative force accuracy = 1.0678544e-05
  using single precision MKL FFT
  3d grid and FFT values/proc = 18225 7600
Neighbor list info ...
  update every 1 steps, delay 0 steps, check yes
  max neighbors/atom: 2000, page size: 100000
  master list distance cutoff = 13
  ghost atom cutoff = 13
  binsize = 6.5, bins = 5 52 5
  2 neighbor lists, perpetual/occasional/extra = 2 0 0
  (1) pair coul/long, perpetual
      attributes: half, newton on
      pair build: half/bin/newton
      stencil: half/bin/3d/newton
      bin: standard
  (2) pair eam/alloy, perpetual, copy from (1)
      attributes: half, newton on
      pair build: copy
      stencil: none
      bin: none
Setting up cg style minimization ...
  Unit style    : metal
  Current step  : 0
WARNING: Energy due to 3 extra global DOFs will be included in minimizer energies
Per MPI rank memory allocation (min/avg/max) = 9.467 | 10.07 | 10.28 Mbytes
Step Temp E_pair E_mol TotEng Press Volume 
       0            0   -230862.45            0   -230862.45   -926.62736    260641.98 
     144            0   -231412.78            0   -231412.78    255.83755    261082.43 
Loop time of 2.69011 on 52 procs for 144 steps with 17640 atoms

99.2% CPU use with 52 MPI tasks x 1 OpenMP threads

Minimization stats:
  Stopping criterion = linesearch alpha is zero
  Energy initial, next-to-last, final = 
     -230862.445485862  -231412.780036106  -231412.780036106
  Force two-norm initial, final = 718.03663 81.239275
  Force max component initial, final = 653.16324 46.360948
  Final line search alpha, max atom move = 1.0325639e-12 4.7870640e-11
  Iterations, force evaluations = 144 242

MPI task timing breakdown:
Section |  min time  |  avg time  |  max time  |%varavg| %total
---------------------------------------------------------------
Pair    | 1.5437     | 1.6202     | 1.7331     |   3.3 | 60.23
Bond    | 2.0751e-05 | 2.9578e-05 | 4.3006e-05 |   0.0 |  0.00
Kspace  | 0.40403    | 0.51707    | 0.59417    |   5.8 | 19.22
Neigh   | 0.0047868  | 0.0057442  | 0.0072731  |   0.8 |  0.21
Comm    | 0.039255   | 0.041041   | 0.0429     |   0.4 |  1.53
Output  | 0          | 0          | 0          |   0.0 |  0.00
Modify  | 0          | 0          | 0          |   0.0 |  0.00
Other   |            | 0.506      |            |       | 18.81

Nlocal:        339.231 ave         412 max         285 min
Histogram: 9 3 3 16 6 2 0 5 6 2
Nghost:        5539.85 ave        5746 max        5332 min
Histogram: 4 10 2 2 6 6 6 6 3 7
Neighs:       107586.0 ave      132891 max       91476 min
Histogram: 4 10 5 16 2 5 2 4 2 2

Total # of neighbors = 5594452
Ave neighs/atom = 317.14580
Ave special neighs/atom = 0.0000000
Neighbor list builds = 2
Dangerous builds = 0
Resetting atom IDs ...
PPPM initialization ...
  using 12-bit tables for long-range coulomb (../kspace.cpp:328)
  G vector (1/distance) = 0.29909119
  grid = 40 240 40
  stencil order = 5
  estimated absolute RMS force accuracy = 0.00015400819
  estimated relative force accuracy = 1.0695277e-05
  using single precision MKL FFT
  3d grid and FFT values/proc = 18225 7600
Finding 1-2 1-3 1-4 neighbors ...
  special bond factors lj:    0.0      0.0      0.0     
  special bond factors coul:  0.0      0.0      0.0     
     0 = max # of 1-2 neighbors
     0 = max # of 1-3 neighbors
     0 = max # of 1-4 neighbors
     1 = max # of special neighbors
  special bonds CPU = 0.001 seconds
PPPM initialization ...
  using 12-bit tables for long-range coulomb (../kspace.cpp:328)
  G vector (1/distance) = 0.29909119
  grid = 40 240 40
  stencil order = 5
  estimated absolute RMS force accuracy = 0.00015400819
  estimated relative force accuracy = 1.0695277e-05
  using single precision MKL FFT
  3d grid and FFT values/proc = 18225 7600
Setting up Verlet run ...
  Unit style    : metal
  Current step  : 144
  Time step     : 0.001
Per MPI rank memory allocation (min/avg/max) = 8.380 | 9.105 | 9.157 Mbytes
Step Dt Time Atoms Temp PotEng KinEng Press Volume 
     144        0.001            0    17640          300   -231412.78    684.00591    3054.1141    261082.43 
   20000        0.001       19.856    17640    299.36909   -231159.92    682.56743   -444.10215    262780.11 
   40000        0.001       39.856    17640    302.15541   -231158.06    688.92029   -1000.5262    262905.13 
   60000        0.001       59.856    17640     300.1104   -231156.43    684.25763     -6.35385     262722.3 
   80000        0.001       79.856    17640     303.3225   -231169.33    691.58128    498.10896    262639.58 
  100000        0.001       99.856    17640    299.85089   -231164.89    683.66594   -592.19763    262826.15 
  100144        0.001          100    17640    298.15355   -231167.03    679.79596   -768.71039    262845.36 
Loop time of 818.899 on 52 procs for 100000 steps with 17640 atoms

Performance: 10.551 ns/day, 2.275 hours/ns, 122.115 timesteps/s
99.8% CPU use with 52 MPI tasks x 1 OpenMP threads

MPI task timing breakdown:
Section |  min time  |  avg time  |  max time  |%varavg| %total
---------------------------------------------------------------
Pair    | 516.19     | 531.32     | 554.39     |  40.0 | 64.88
Bond    | 0.0084338  | 0.013043   | 0.017871   |   1.8 |  0.00
Kspace  | 143.9      | 167.22     | 182.69     |  71.9 | 20.42
Neigh   | 0.78747    | 0.8699     | 0.94377    |   3.7 |  0.11
Comm    | 15.718     | 16.249     | 17.005     |   7.9 |  1.98
Output  | 0.025146   | 0.025172   | 0.026204   |   0.1 |  0.00
Modify  | 92.435     | 95.866     | 100.04     |  21.6 | 11.71
Other   |            | 7.331      |            |       |  0.90

Nlocal:        339.231 ave         364 max         317 min
Histogram: 1 2 5 8 15 14 2 1 0 4
Nghost:        5511.38 ave        5703 max        5358 min
Histogram: 14 6 0 4 8 4 1 3 0 12
Neighs:       107631.0 ave      119489 max       93783 min
Histogram: 1 4 2 4 5 18 12 1 3 2

Total # of neighbors = 5596811
Ave neighs/atom = 317.27954
Ave special neighs/atom = 0.0000000
Neighbor list builds = 302
Dangerous builds = 0
WARNING: Shell command 'mkdir' failed with error 'File exists' (../input.cpp:1197)
System init for write_data ...
PPPM initialization ...
  using 12-bit tables for long-range coulomb (../kspace.cpp:328)
  G vector (1/distance) = 0.29897467
  grid = 40 240 40
  stencil order = 5
  estimated absolute RMS force accuracy = 0.00015490723
  estimated relative force accuracy = 1.0757712e-05
  using single precision MKL FFT
  3d grid and FFT values/proc = 18225 7600
Total wall time: 0:13:42
