ITEM: TIMESTEP
40000
ITEM: NUMBER OF ATOMS
17820
ITEM: BOX BOUNDS pp pp pp
-4.3780421659305557e-01 2.7777804216593335e+01
-5.3499077230982337e+00 3.3342990772310253e+02
-4.4044057715640578e-01 2.7780440577156320e+01
ITEM: ATOMS id type q x y z
1 2 2.2208 5.14219 0.267149 5.28253
2 1 -1.1104 0.9302 -4.05906 0.683171
6 1 -1.1104 0.859395 -4.02289 3.7455
10 1 -1.1104 0.915169 -1.36166 1.07419
12 2 2.2208 5.01299 -2.48473 2.48875
14 1 -1.1104 0.755766 -0.984817 3.81077
16 1 -1.1104 3.70427 -3.82301 0.876678
18 2 2.2208 2.27304 0.30076 2.37788
19 1 -1.1104 3.48527 -3.83553 4.02172
21 2 2.2208 2.1098 -2.56764 5.2399
23 1 -1.1104 3.61676 -1.24286 1.27541
24 1 -1.1104 3.52939 -1.00748 3.81279
4 1 -1.1104 6.69425 -3.98871 1.13674
174 1 -1.1104 3.63869 -1.21593 6.59549
8 1 -1.1104 6.44468 -3.62543 3.83357
11 1 -1.1104 6.42683 -1.31859 0.965335
546 2 2.2208 2.13104 3.11274 -0.477419
172 1 -1.1104 3.76228 -4.11327 6.68502
166 1 -1.1104 0.726711 -3.78061 6.54973
171 1 -1.1104 6.48766 -0.993892 6.53387
455 2 2.2208 7.68946 11.9279 13.6509
15 1 -1.1104 6.60654 -1.10611 3.8634
428 2 2.2208 2.35271 11.6037 13.5779
31 2 2.2208 10.7143 0.323213 5.28106
32 1 -1.1104 12.4078 -3.81051 1.26746
34 1 -1.1104 12.2784 -4.06191 4.01741
36 1 -1.1104 12.3274 -1.00401 1.00569
37 2 2.2208 11.0078 -2.42512 2.35597
39 1 -1.1104 12.2333 -1.29556 3.90069
40 1 -1.1104 9.51186 -3.99643 1.04568
42 2 2.2208 7.99317 0.346394 2.38273
43 1 -1.1104 9.57196 -3.80453 3.77416
45 2 2.2208 7.97586 -2.46439 5.25743
47 1 -1.1104 9.43019 -1.25909 0.997485
48 1 -1.1104 9.39687 -1.12636 3.88238
453 2 2.2208 7.77658 6.02404 13.4974
454 2 2.2208 10.584 8.84229 13.5603
207 1 -1.1104 11.9416 -1.0176 6.60621
208 1 -1.1104 9.44018 -3.90081 6.70018
9197 2 2.2208 7.96736 -5.2554 13.5585
575 2 2.2208 7.99548 -2.69573 -0.389341
9029 2 2.2208 5.06599 -5.17138 5.12761
51 2 2.2208 10.8654 14.5003 7.88742
3 1 -1.1104 0.694538 1.5582 0.879138
7 1 -1.1104 0.868152 1.86667 3.60667
13 2 2.2208 4.9798 3.11091 2.44883
17 1 -1.1104 3.56215 1.87222 0.742198
20 1 -1.1104 3.40622 1.93418 3.60333
22 2 2.2208 1.92183 3.26271 5.05845
54 2 2.2208 4.90343 5.95017 5.15992
56 1 -1.1104 0.679086 7.35667 0.988267
60 1 -1.1104 0.876554 4.5517 0.964804
67 1 -1.1104 0.665404 4.72525 3.61833
71 1 -1.1104 3.54844 7.48073 1.21901
72 2 2.2208 2.09101 6.01953 2.39655
74 1 -1.1104 3.72318 7.56181 3.80239
76 1 -1.1104 3.4637 4.52876 1.18301
79 1 -1.1104 3.26293 4.77425 3.96873
58 1 -1.1104 0.847982 7.54675 3.6296
238 1 -1.1104 3.58105 7.50689 6.74898
57 1 -1.1104 6.45522 7.50688 0.883365
59 1 -1.1104 6.39197 7.39867 3.78383
173 1 -1.1104 3.65884 1.68703 6.61835
239 1 -1.1104 3.94829 4.54644 6.60891
167 1 -1.1104 0.739555 1.97455 6.61912
5 1 -1.1104 6.42744 1.6616 1.00136
234 1 -1.1104 0.679409 7.47753 6.68094
69 1 -1.1104 6.19322 4.54465 3.85624
9558 2 2.2208 13.5408 14.6251 5.12559
235 1 -1.1104 6.3946 7.64649 6.47207
517 2 2.2208 10.6938 14.5542 13.6236
9 1 -1.1104 6.37082 1.57859 3.97592
63 1 -1.1104 6.26263 4.57675 1.14439
33 1 -1.1104 12.0362 1.75667 0.977353
35 1 -1.1104 11.9605 1.74285 3.84909
38 2 2.2208 10.6259 3.13315 2.35537
41 1 -1.1104 9.15449 1.72867 1.04901
44 1 -1.1104 9.17944 1.70125 3.96033
46 2 2.2208 7.81004 3.09076 5.12139
84 2 2.2208 10.5992 6.09064 5.18813
86 1 -1.1104 12.3553 7.4315 1.00053
87 1 -1.1104 12.2186 7.32472 3.85479
88 1 -1.1104 11.9612 4.42869 0.73144
92 1 -1.1104 12.0793 4.5421 3.67633
95 2 2.2208 7.77227 6.0693 2.44482
97 1 -1.1104 9.41243 7.24517 3.66537
99 1 -1.1104 9.07693 4.57843 1.10901
102 1 -1.1104 9.07611 4.48697 3.74506
94 1 -1.1104 9.64035 7.14184 1.07894
209 1 -1.1104 9.20922 1.92933 6.70745
237 1 -1.1104 6.53993 4.58892 6.7905
269 1 -1.1104 9.12682 4.9776 6.47434
266 1 -1.1104 11.9748 4.61304 6.5472
9488 2 2.2208 13.5845 17.2304 8.02289
230 2 2.2208 13.6489 -2.55339 10.7447
391 2 2.2208 10.7964 -2.49955 13.6201
55 2 2.2208 4.95037 11.8698 5.13061
61 1 -1.1104 0.991259 10.0422 1.25026
66 2 2.2208 4.9795 9.05698 2.4455
68 1 -1.1104 0.868336 10.2479 3.77281
73 2 2.2208 2.13745 11.6646 2.36066
75 2 2.2208 2.29012 8.88714 5.22616
77 1 -1.1104 3.64024 10.3142 0.995854
80 1 -1.1104 3.91131 10.4608 3.76113
107 1 -1.1104 0.678016 13.0367 0.812375
113 1 -1.1104 0.834024 13.0668 3.70538
123 1 -1.1104 3.70009 13.1934 0.807026
128 1 -1.1104 3.43382 12.9508 3.7887
115 1 -1.1104 6.3275 13.2236 3.71475
110 1 -1.1104 6.66923 12.8755 0.982803
70 1 -1.1104 6.55746 10.4327 3.77648
9034 2 2.2208 2.2906 -5.24087 8.06811
9487 2 2.2208 13.4802 5.88952 2.16055
78 1 -1.1104 3.49641 10.2238 6.62789
64 1 -1.1104 6.37067 10.1576 0.885564
85 2 2.2208 10.7546 11.7032 5.178
89 1 -1.1104 11.9982 10.3565 0.918416
91 2 2.2208 10.7989 8.79225 2.41236
93 1 -1.1104 11.9428 10.3298 3.77242
96 2 2.2208 8.01669 11.5234 2.31168
98 2 2.2208 7.86231 8.82647 5.04135
100 1 -1.1104 9.1861 10.039 0.93968
103 1 -1.1104 9.25911 10.0295 3.75875
142 1 -1.1104 12.1463 13.3057 0.663785
146 1 -1.1104 12.1031 13.1628 3.7156
153 1 -1.1104 9.45689 13.0587 1.07283
158 1 -1.1104 9.24101 12.898 3.73863
9489 2 2.2208 13.471 8.75334 5.22204
143 1 -1.1104 12.2097 13.2469 6.42925
101 1 -1.1104 9.15661 10.3292 6.58421
516 2 2.2208 10.7258 20.1615 13.4886
50 2 2.2208 13.589 -2.68424 5.17129
9537 2 2.2208 13.4817 20.2172 5.1875
130 2 2.2208 2.20934 14.5038 5.06811
119 2 2.2208 4.92423 14.4463 2.28905
106 2 2.2208 5.08964 17.453 5.12957
109 1 -1.1104 0.903813 18.5194 1.16458
114 1 -1.1104 0.704562 18.3929 3.86257
116 1 -1.1104 0.938733 15.8483 0.904435
120 2 2.2208 5.26281 20.1598 2.11359
121 1 -1.1104 0.761945 15.8203 3.79362
125 1 -1.1104 3.83301 18.6484 0.850607
127 2 2.2208 2.60113 17.278 2.52227
129 1 -1.1104 3.51554 18.6422 3.92692
131 2 2.2208 2.24612 20.1283 5.23468
132 1 -1.1104 3.49347 15.8484 1.02083
134 1 -1.1104 3.83733 15.8451 3.86383
126 1 -1.1104 3.92204 18.8847 6.68031
138 1 -1.1104 6.47671 18.5352 0.729857
140 1 -1.1104 6.17683 15.7344 0.839823
133 1 -1.1104 3.73205 16.2048 6.56177
112 1 -1.1104 6.65269 19.0266 6.36527
118 1 -1.1104 6.46555 15.9203 6.38753
122 1 -1.1104 6.62024 16.0676 3.62647
139 1 -1.1104 6.44615 18.743 3.56748
160 2 2.2208 7.92704 14.588 5.32058
150 2 2.2208 10.6113 14.4974 2.37352
141 2 2.2208 10.7264 17.4213 5.19555
144 1 -1.1104 12.0194 18.7746 0.86359
147 1 -1.1104 11.918 19.0393 3.51879
148 1 -1.1104 12.2827 16.0936 0.708687
151 2 2.2208 10.688 20.1838 2.2427
152 1 -1.1104 12.1069 16.2845 3.63844
155 1 -1.1104 9.13607 18.8301 0.875973
157 2 2.2208 7.91448 17.4033 2.19397
159 1 -1.1104 9.32248 18.8011 3.8683
161 2 2.2208 7.80181 20.1489 4.87467
162 1 -1.1104 9.16451 15.9253 0.91217
164 1 -1.1104 9.51817 15.8479 3.729
156 1 -1.1104 9.3808 18.5452 6.55695
149 1 -1.1104 12.2266 15.8331 6.43433
233 2 2.2208 7.8584 14.6487 10.8008
9621 2 2.2208 13.523 11.716 2.42276
163 1 -1.1104 9.29366 15.9233 6.7094
9676 2 2.2208 13.4367 8.79369 10.8332
200 2 2.2208 -0.435568 -2.28479 7.95043
574 2 2.2208 10.7845 0.412179 -0.352975
170 1 -1.1104 0.677476 -0.863504 6.71177
9855 2 2.2208 13.5047 5.90553 13.4282
168 1 -1.1104 6.72699 -3.72187 6.82925
544 2 2.2208 5.07302 0.250951 -0.37392
175 2 2.2208 5.03308 0.328205 10.7588
176 1 -1.1104 0.861649 -3.83442 12.1808
180 1 -1.1104 0.965459 -3.93908 9.30758
184 1 -1.1104 0.795874 -0.914052 12.4218
186 2 2.2208 5.08191 -2.47796 7.99521
188 1 -1.1104 0.985031 -1.08668 9.38232
190 1 -1.1104 3.57347 -3.76497 12.315
192 2 2.2208 2.21851 0.329388 7.92982
193 1 -1.1104 3.7445 -3.77557 9.59895
195 2 2.2208 2.22085 -2.40093 10.8832
197 1 -1.1104 3.56387 -0.917816 12.1513
198 1 -1.1104 3.66669 -1.00917 9.28969
178 1 -1.1104 6.25172 -3.873 12.2799
182 1 -1.1104 6.56268 -3.81298 9.4456
189 1 -1.1104 6.31959 -1.07136 9.42102
185 1 -1.1104 6.34765 -0.997463 12.4667
205 1 -1.1104 12.218 -3.80042 6.79613
210 1 -1.1104 9.23604 -1.06048 6.69657
9620 2 2.2208 13.5077 14.4194 10.7661
49 2 2.2208 13.4474 0.392621 2.52387
165 1 -1.1104 12.1216 18.4906 12.1899
229 2 2.2208 13.4245 0.305768 8.01102
211 2 2.2208 10.7845 0.329953 10.989
212 1 -1.1104 12.1607 -3.88773 12.122
214 1 -1.1104 12.2612 -4.01757 9.38187
216 1 -1.1104 12.2476 -1.24752 12.1035
217 2 2.2208 10.7512 -2.45809 8.10152
219 1 -1.1104 11.9381 -0.897802 9.39636
220 1 -1.1104 9.2104 -3.96524 12.2751
222 2 2.2208 7.92932 0.308731 8.01464
223 1 -1.1104 9.29846 -3.92565 9.62349
225 2 2.2208 7.76427 -2.39134 11.0462
227 1 -1.1104 9.33439 -1.08931 12.2655
228 1 -1.1104 9.18216 -1.09677 9.49597
52 2 2.2208 10.5751 20.1794 7.86453
9460 2 2.2208 13.2958 3.18853 5.29484
610 2 2.2208 2.00161 8.64074 -0.172699
9722 2 2.2208 13.3747 20.1928 10.7923
9462 2 2.2208 13.5229 17.4922 2.21214
236 1 -1.1104 0.776164 4.6478 6.42381
177 1 -1.1104 0.684097 1.83573 12.3462
181 1 -1.1104 0.66606 1.66215 9.68578
187 2 2.2208 4.93507 3.03144 8.13114
191 1 -1.1104 3.68598 1.75353 12.187
194 1 -1.1104 3.48984 1.70631 9.35891
196 2 2.2208 2.16856 3.36235 10.8668
240 2 2.2208 5.02864 6.05466 10.9527
242 1 -1.1104 0.748268 7.59768 12.1438
246 1 -1.1104 0.661385 4.84033 12.0504
251 1 -1.1104 0.630476 4.65369 9.45985
255 1 -1.1104 3.68241 7.56249 11.957
256 2 2.2208 2.12233 5.94851 8.06164
258 1 -1.1104 3.58458 7.41291 9.50748
260 1 -1.1104 3.51479 4.55921 12.3574
262 1 -1.1104 3.57708 4.6965 9.51827
244 1 -1.1104 0.673799 7.5077 9.4631
245 1 -1.1104 6.353 7.3639 9.2307
248 1 -1.1104 6.49652 4.71944 12.1537
179 1 -1.1104 6.43817 1.72782 12.2347
253 1 -1.1104 6.33804 4.65486 9.51954
183 1 -1.1104 6.35287 1.78352 9.43165
243 1 -1.1104 6.51655 7.59437 12.1077
9672 2 2.2208 13.4169 11.7326 7.86262
169 1 -1.1104 6.45411 1.66271 6.57331
265 1 -1.1104 11.8944 7.62729 6.56063
267 1 -1.1104 9.02294 7.57974 6.60043
206 1 -1.1104 11.9764 1.77469 6.59531
213 1 -1.1104 12.1118 1.74829 12.2606
215 1 -1.1104 12.1587 1.81314 9.35886
218 2 2.2208 10.5561 3.16035 8.09908
221 1 -1.1104 9.21689 1.91626 11.941
224 1 -1.1104 9.34557 1.5994 9.39103
226 2 2.2208 7.76276 3.04494 10.6768
268 1 -1.1104 9.26289 4.66573 9.38818
271 1 -1.1104 9.0878 4.54222 12.1986
273 1 -1.1104 9.34701 7.54957 9.49661
275 2 2.2208 7.70814 6.08362 7.9657
276 2 2.2208 10.6851 6.12668 10.6777
279 1 -1.1104 12.2879 7.50378 9.29477
280 1 -1.1104 11.9818 4.51002 12.1327
283 1 -1.1104 12.1241 4.69292 9.43446
278 1 -1.1104 11.984 7.48941 12.1238
285 1 -1.1104 9.10766 7.48113 12.2113
9595 2 2.2208 13.4504 3.16223 10.726
9671 2 2.2208 13.4808 6.01976 7.99863
124 1 -1.1104 3.596 13.1504 6.60835
65 1 -1.1104 6.18405 10.6234 6.49015
108 1 -1.1104 0.832399 13.1847 6.56421
62 1 -1.1104 0.761249 10.3352 6.35161
111 1 -1.1104 6.52533 13.469 6.84859
241 2 2.2208 5.00759 11.7575 10.8265
247 1 -1.1104 1.01298 10.4829 12.2453
250 2 2.2208 4.90164 8.88163 8.05025
252 1 -1.1104 0.803082 10.3069 9.36598
257 2 2.2208 2.29537 11.8023 7.91694
259 2 2.2208 2.21195 8.89341 10.8335
261 1 -1.1104 3.92645 10.4132 12.4806
263 1 -1.1104 3.55759 10.3185 9.57995
287 1 -1.1104 3.84075 13.2884 12.3211
294 1 -1.1104 0.921042 13.0371 9.42617
299 1 -1.1104 1.18969 13.0328 12.3693
305 1 -1.1104 3.53822 13.367 9.28771
254 1 -1.1104 6.48272 10.3503 9.21609
297 1 -1.1104 6.52791 13.1647 12.2922
290 1 -1.1104 6.41068 12.9914 9.57937
9035 2 2.2208 5.01023 -5.22765 10.9557
53 1 -1.1104 12.4141 15.7318 9.29368
90 1 -1.1104 12.0741 10.1705 6.49699
154 1 -1.1104 9.36288 13.066 6.65484
315 1 -1.1104 9.02984 16.0597 12.1974
249 1 -1.1104 6.49979 10.4537 12.1892
312 1 -1.1104 12.0427 12.9996 9.24137
231 1 -1.1104 9.47206 13.1022 9.34606
264 1 -1.1104 9.15362 10.3171 9.47076
270 1 -1.1104 9.01779 10.4675 12.1627
272 2 2.2208 7.71816 8.98806 10.769
274 2 2.2208 7.94185 11.6212 7.88184
277 2 2.2208 10.7931 11.7784 10.6759
281 1 -1.1104 12.0876 10.4076 12.328
282 2 2.2208 10.5626 8.95909 7.9605
284 1 -1.1104 12.1075 10.3021 9.37445
202 1 -1.1104 9.51185 13.1854 12.1029
105 1 -1.1104 12.1215 13.0336 12.1604
9033 2 2.2208 13.5689 -5.27924 2.47879
518 2 2.2208 7.81134 17.3281 13.5581
288 1 -1.1104 6.38533 18.8023 9.36366
302 1 -1.1104 0.989756 18.6675 6.5348
232 1 -1.1104 9.23641 18.5891 9.55637
117 1 -1.1104 0.869133 15.7702 6.58481
289 1 -1.1104 6.64485 15.9209 9.22142
310 2 2.2208 2.36274 14.6897 10.9528
308 1 -1.1104 3.68006 16.0233 12.4267
307 1 -1.1104 0.85602 15.9048 12.1086
304 1 -1.1104 3.75176 16.187 9.56905
303 2 2.2208 2.2438 17.2196 7.87989
295 2 2.2208 5.06803 14.5595 8.09948
309 2 2.2208 2.20913 20.214 10.8575
286 1 -1.1104 3.73044 18.7078 12.4147
291 1 -1.1104 0.988107 18.6504 9.35935
292 1 -1.1104 1.00702 15.8336 9.34597
293 2 2.2208 5.05044 20.2515 8.02463
298 1 -1.1104 0.920979 18.6975 12.1936
300 2 2.2208 5.08895 17.6117 10.9905
301 1 -1.1104 3.64905 19.0611 9.49911
9031 2 2.2208 8.11609 -5.18739 2.45838
9786 2 2.2208 13.6048 0.147044 13.5963
306 1 -1.1104 6.51516 16.2163 12.1019
296 1 -1.1104 6.45269 19.0091 12.3925
29 1 -1.1104 12.0127 18.7664 9.40568
203 1 -1.1104 8.99161 18.7247 12.1502
30 1 -1.1104 12.0312 15.799 12.2518
316 2 2.2208 7.63101 20.2654 10.9213
104 2 2.2208 10.6032 17.2987 10.8977
145 1 -1.1104 12.1345 18.7282 6.55694
314 1 -1.1104 9.72134 15.7997 9.50612
204 2 2.2208 7.98 17.3345 7.96551
9032 2 2.2208 10.6629 -5.25755 5.29708
9787 2 2.2208 13.5356 17.1944 13.5366
359 2 2.2208 5.11855 3.14747 13.501
609 2 2.2208 5.0805 5.90394 -0.182613
9037 2 2.2208 7.95258 -5.3098 7.94426
636 2 2.2208 10.6382 11.6655 -0.348966
489 2 2.2208 2.19199 17.3251 13.5963
426 2 2.2208 2.37926 6.09467 13.6567
392 2 2.2208 10.5813 3.24763 13.5072
576 2 2.2208 7.93327 3.12799 -0.321026
427 2 2.2208 5.20253 8.88166 13.6206
317 2 2.2208 5.21919 0.336632 16.4891
318 1 -1.1104 0.723029 -3.87734 17.8377
322 1 -1.1104 0.804314 -3.79049 15.0196
330 1 -1.1104 0.92707 -1.33256 17.8958
332 2 2.2208 5.14932 -2.53948 19.5003
334 1 -1.1104 0.871145 -1.10265 15.2479
338 1 -1.1104 3.83703 -4.16399 17.8921
340 2 2.2208 2.13472 0.24467 19.2419
341 1 -1.1104 3.79575 -3.77283 15.0886
345 2 2.2208 2.33373 -2.68856 16.5269
347 1 -1.1104 3.82878 -1.16779 18.2367
348 1 -1.1104 3.70406 -1.05884 15.3401
323 1 -1.1104 0.571469 -3.68537 20.857
331 1 -1.1104 6.45942 -1.07943 17.8129
336 1 -1.1104 6.50673 -1.20433 15.1115
320 1 -1.1104 6.7266 -3.85025 17.9943
337 1 -1.1104 6.44064 -0.91492 20.6606
342 1 -1.1104 3.48268 -3.90829 20.5921
326 1 -1.1104 6.51068 -3.90785 14.8617
10048 2 2.2208 13.4849 8.63224 21.9647
335 1 -1.1104 0.721408 -0.982909 20.6017
9316 2 2.2208 5.13139 -5.15902 16.3857
9092 2 2.2208 2.12314 -5.28412 24.7424
9126 2 2.2208 5.09255 -5.30843 22.1993
9858 2 2.2208 13.435 11.5018 19.1654
635 2 2.2208 7.80571 8.70002 27.7168
360 2 2.2208 10.6246 0.367653 16.3963
361 1 -1.1104 12.1868 -4.09144 17.9458
363 1 -1.1104 11.9468 -3.7421 15.0516
367 1 -1.1104 12.1141 -1.31587 17.8294
368 2 2.2208 10.7204 -2.6173 19.2241
370 1 -1.1104 12.1497 -1.04569 15.0011
372 1 -1.1104 9.31828 -3.80474 17.7069
374 2 2.2208 7.72101 0.44266 19.417
375 1 -1.1104 9.23465 -3.90089 15.0536
379 2 2.2208 8.02942 -2.54252 16.5354
381 1 -1.1104 9.19922 -0.926234 17.9267
382 1 -1.1104 9.3317 -1.09993 15.1235
364 1 -1.1104 12.088 -3.86804 20.6921
9926 2 2.2208 13.6034 14.4637 16.4433
634 2 2.2208 10.6284 6.13717 27.7242
637 2 2.2208 13.4263 11.4809 24.7433
388 2 2.2208 13.541 -2.5299 16.5373
9781 2 2.2208 13.5811 14.281 22.0716
319 1 -1.1104 0.862451 1.78398 17.9094
324 1 -1.1104 1.07509 1.7732 14.9467
333 2 2.2208 5.20825 3.10421 19.3688
339 1 -1.1104 3.79377 1.86905 17.9275
343 1 -1.1104 3.70486 1.66017 15.1456
346 2 2.2208 2.32495 3.08534 16.473
393 2 2.2208 5.13114 6.00608 16.3706
395 1 -1.1104 1.04848 7.30711 17.8316
401 1 -1.1104 1.12878 4.5166 17.7974
406 1 -1.1104 0.825766 4.82492 14.9637
415 2 2.2208 2.25941 5.90943 19.3561
420 1 -1.1104 3.85813 4.67827 17.7993
422 1 -1.1104 3.46242 4.92384 15.154
417 1 -1.1104 3.75743 7.48206 15.0004
414 1 -1.1104 3.67105 7.4187 17.8165
328 1 -1.1104 6.51032 1.646 14.9557
418 1 -1.1104 3.80888 7.36857 20.571
399 1 -1.1104 6.61799 7.47702 14.8122
403 1 -1.1104 6.65587 4.52508 17.9722
423 1 -1.1104 3.62662 4.55725 20.6571
410 1 -1.1104 6.24108 4.50843 14.8959
321 1 -1.1104 6.58256 1.75295 17.9919
407 1 -1.1104 0.839315 4.51198 20.5598
584 2 2.2208 13.5466 3.15938 27.6091
396 1 -1.1104 6.37611 7.41509 17.6103
362 1 -1.1104 12.1885 1.53376 17.9364
365 1 -1.1104 11.9853 1.75638 15.0329
369 2 2.2208 10.7468 3.00344 19.2491
373 1 -1.1104 9.43278 1.9182 17.7263
377 1 -1.1104 9.27691 1.90791 15.2032
380 2 2.2208 7.84477 3.16666 16.5224
429 2 2.2208 10.651 6.08198 16.279
431 1 -1.1104 12.1034 7.4783 17.7341
432 1 -1.1104 12.1351 7.47069 14.9619
434 1 -1.1104 12.2856 4.55185 17.7494
437 1 -1.1104 11.8531 4.55433 14.9461
441 1 -1.1104 9.2515 7.57384 17.6311
442 2 2.2208 7.8579 5.9399 19.1465
447 1 -1.1104 9.43217 4.5332 17.8716
449 1 -1.1104 8.948 4.68892 15.1986
444 1 -1.1104 9.26436 7.44475 14.9381
445 1 -1.1104 9.46495 7.15294 20.3746
378 1 -1.1104 9.38615 1.76122 20.7837
450 1 -1.1104 9.34721 4.6239 20.5919
9199 2 2.2208 7.9833 -5.31225 19.1766
9857 2 2.2208 13.5588 5.78234 19.2286
386 2 2.2208 7.85085 14.3837 27.7063
671 1 -1.1104 9.48232 15.8395 23.565
9856 2 2.2208 13.5266 8.71871 16.2431
397 1 -1.1104 1.09534 7.51784 14.8993
394 2 2.2208 5.16319 11.7889 16.4844
402 1 -1.1104 0.706367 10.247 17.7859
405 2 2.2208 5.02564 8.8663 19.2385
408 1 -1.1104 0.949925 10.148 15.0014
416 2 2.2208 2.1367 11.6864 19.251
419 2 2.2208 2.31368 8.87127 16.4002
421 1 -1.1104 3.5555 10.2641 17.9313
424 1 -1.1104 3.66634 10.2781 15.2537
457 1 -1.1104 1.04183 13.1071 17.8253
461 1 -1.1104 1.04345 13.174 15.0416
477 1 -1.1104 3.69259 13.0677 17.731
480 1 -1.1104 3.94192 13.1088 14.9688
481 1 -1.1104 3.63998 13.1497 20.771
412 1 -1.1104 6.42468 10.4326 15.071
459 1 -1.1104 6.4925 13.0092 18.1249
462 1 -1.1104 0.784849 13.1898 20.5674
425 1 -1.1104 3.65579 10.431 20.7022
466 1 -1.1104 6.24461 13.0554 20.7943
9782 2 2.2208 13.2841 3.08124 16.2439
358 2 2.2208 2.28346 0.224302 13.7393
465 1 -1.1104 6.4515 13.2904 15.3046
404 1 -1.1104 6.39199 10.2681 17.978
430 2 2.2208 10.6362 11.813 16.4725
435 1 -1.1104 12.161 10.277 17.7843
436 2 2.2208 10.8125 8.7878 19.0501
439 1 -1.1104 11.9972 10.3851 14.9955
443 2 2.2208 7.82446 11.579 19.2344
446 2 2.2208 7.82279 8.84222 16.3371
448 1 -1.1104 9.39481 10.4939 17.7098
451 1 -1.1104 9.16789 10.2471 15.0019
493 1 -1.1104 12.0772 13.0671 17.9281
495 1 -1.1104 12.1369 13.1787 14.915
504 1 -1.1104 9.33423 13.1172 17.7833
507 1 -1.1104 9.23533 13.1876 14.9514
508 1 -1.1104 8.9352 12.8557 20.6614
496 1 -1.1104 11.9698 12.9415 20.57
440 1 -1.1104 12.3314 10.0574 20.5216
452 1 -1.1104 9.3353 10.158 20.6118
9288 2 2.2208 10.784 -5.25592 16.3128
484 2 2.2208 2.43136 14.486 16.4089
471 2 2.2208 5.05079 14.4742 19.3203
456 2 2.2208 4.99761 17.5388 16.4282
458 1 -1.1104 1.04595 18.8567 17.6133
463 1 -1.1104 0.633827 18.7483 14.844
469 1 -1.1104 0.666783 15.8636 17.7258
472 2 2.2208 4.99241 20.0727 19.4767
473 1 -1.1104 0.814178 16.0186 14.8524
478 1 -1.1104 3.61251 18.7537 17.8485
479 2 2.2208 2.1778 17.0562 19.3645
482 1 -1.1104 3.53302 19.034 15.1733
485 2 2.2208 2.22152 20.2746 16.4141
486 1 -1.1104 3.69855 15.996 17.9535
487 1 -1.1104 3.6294 15.9598 15.0346
470 1 -1.1104 6.35166 15.9272 17.6983
483 1 -1.1104 3.72362 18.549 20.8082
488 1 -1.1104 3.65364 15.8464 20.8054
474 1 -1.1104 0.773239 15.921 20.739
475 1 -1.1104 6.33882 16.1894 14.8836
464 1 -1.1104 0.781578 18.5454 20.5886
468 1 -1.1104 6.57618 18.6635 20.5956
663 2 2.2208 2.3498 19.8625 27.7628
511 2 2.2208 7.67107 14.5708 16.4635
460 1 -1.1104 6.274 18.8818 17.9466
498 1 -1.1104 12.099 18.4898 20.7055
467 1 -1.1104 6.26081 18.8669 15.2284
500 2 2.2208 10.7298 14.508 19.276
492 2 2.2208 10.6185 17.2597 16.4581
494 1 -1.1104 12.0551 18.6875 17.85
497 1 -1.1104 12.1254 18.652 14.712
499 1 -1.1104 11.9959 15.9374 17.8686
501 2 2.2208 10.6513 20.0042 19.1641
502 1 -1.1104 12.1349 15.8609 15.1692
505 1 -1.1104 9.33414 18.7474 17.8412
506 2 2.2208 7.79121 17.3367 19.1728
509 1 -1.1104 9.24969 18.6658 15.0036
512 2 2.2208 7.83618 19.9816 16.4587
513 1 -1.1104 9.24537 15.8785 17.9334
514 1 -1.1104 9.33763 15.9076 14.9639
515 1 -1.1104 9.30869 15.7436 20.7538
503 1 -1.1104 12.2368 15.6552 20.596
639 2 2.2208 13.4908 5.88153 25.0127
9929 2 2.2208 13.4338 20.1208 16.3723
674 1 -1.1104 9.23205 18.4436 26.4068
349 1 -1.1104 3.61813 -1.21559 20.9307
327 1 -1.1104 6.60117 -3.84388 20.7699
677 2 2.2208 7.89085 17.0018 24.8418
551 1 -1.1104 12.267 18.8235 26.1972
520 2 2.2208 4.98492 0.377231 22.2556
521 1 -1.1104 0.758326 -3.72256 23.5397
525 1 -1.1104 0.701549 -3.80506 26.2926
529 1 -1.1104 0.735738 -1.07287 23.6153
531 2 2.2208 5.02418 -2.47648 25.0007
533 1 -1.1104 0.825169 -1.04809 26.5264
535 1 -1.1104 3.92768 -3.79116 23.3839
537 2 2.2208 2.20872 0.271854 24.956
538 1 -1.1104 3.50435 -3.9958 26.1403
540 2 2.2208 2.19279 -2.40305 22.2027
542 1 -1.1104 3.40931 -1.20531 23.7154
543 1 -1.1104 3.5544 -0.956894 26.5732
527 1 -1.1104 6.40155 -3.95524 26.2669
523 1 -1.1104 6.60773 -4.03676 23.5671
530 1 -1.1104 6.25334 -0.979852 23.6634
534 1 -1.1104 6.53423 -1.06073 26.6276
545 2 2.2208 2.21143 -2.52574 27.7088
638 2 2.2208 13.3387 8.91871 27.6821
578 2 2.2208 10.7371 14.3287 25.0112
9788 2 2.2208 13.6175 0.365164 19.2351
383 1 -1.1104 9.21082 -1.14495 20.5652
389 2 2.2208 7.996 20.0434 27.4949
384 2 2.2208 13.4024 20.1998 27.5829
376 1 -1.1104 9.48533 -4.04728 20.6518
371 1 -1.1104 12.1761 -1.15167 20.8778
556 2 2.2208 10.775 0.181504 22.2036
557 1 -1.1104 12.2853 -4.02265 23.4633
559 1 -1.1104 12.1898 -3.97623 26.437
561 1 -1.1104 11.9464 -1.3387 23.5175
562 2 2.2208 10.6399 -2.70663 25.0958
564 1 -1.1104 12.1464 -1.27224 26.374
565 1 -1.1104 9.47256 -4.41783 23.6602
567 2 2.2208 7.81447 0.182356 25.209
568 1 -1.1104 9.21748 -4.18563 26.4468
570 2 2.2208 8.03022 -2.5208 22.0086
572 1 -1.1104 8.95974 -1.51248 23.7443
573 1 -1.1104 9.23731 -1.42246 26.5331
665 2 2.2208 2.21324 14.504 27.6528
9780 2 2.2208 13.573 20.1435 21.9574
9898 2 2.2208 -0.402007 5.82879 16.4185
670 1 -1.1104 9.27197 15.7623 26.3486
325 1 -1.1104 0.966929 1.78591 20.5126
344 1 -1.1104 3.86094 1.78162 20.7945
400 1 -1.1104 6.54795 7.27127 20.4888
411 1 -1.1104 6.57372 4.47385 20.7637
329 1 -1.1104 6.46017 1.83916 20.8471
522 1 -1.1104 0.878519 1.7766 23.4739
526 1 -1.1104 0.693713 1.48212 26.3088
532 2 2.2208 5.05595 3.02409 25.1587
536 1 -1.1104 3.64663 1.37982 23.5788
539 1 -1.1104 3.44035 1.69628 26.3874
541 2 2.2208 2.22207 3.06178 22.0182
585 2 2.2208 5.04608 5.69657 22.1784
587 1 -1.1104 0.798998 7.29956 23.4731
591 1 -1.1104 0.980788 4.62698 23.1259
596 1 -1.1104 0.725947 4.49064 26.1989
601 2 2.2208 2.33387 5.93291 24.8702
603 1 -1.1104 3.8376 7.43381 26.1416
605 1 -1.1104 3.70321 4.27137 23.421
607 1 -1.1104 3.71078 4.49486 26.6596
589 1 -1.1104 0.895418 7.22656 26.2547
600 1 -1.1104 3.80397 7.28618 23.4062
598 1 -1.1104 6.45024 4.47106 26.4974
588 1 -1.1104 6.62191 7.12108 23.4555
524 1 -1.1104 6.70627 1.69327 23.7074
528 1 -1.1104 6.55225 1.64355 26.7078
593 1 -1.1104 6.37168 4.24798 23.6056
590 1 -1.1104 6.59038 7.42175 26.4132
366 1 -1.1104 12.0073 1.68794 20.7241
580 1 -1.1104 12.1403 15.6258 26.0841
583 2 2.2208 13.4209 0.206496 24.9582
433 1 -1.1104 12.1443 7.26279 20.5392
438 1 -1.1104 12.1621 4.23426 20.6667
558 1 -1.1104 12.1777 1.72635 23.4737
560 1 -1.1104 11.9424 1.71953 26.3341
563 2 2.2208 10.6525 3.07877 24.9882
566 1 -1.1104 9.4632 1.50904 23.4913
569 1 -1.1104 9.50043 1.4771 26.3555
571 2 2.2208 7.93387 3.03341 22.0661
617 1 -1.1104 9.2607 4.51926 26.3813
619 1 -1.1104 9.30285 4.42713 23.4374
623 2 2.2208 7.93022 5.9881 24.7882
624 2 2.2208 10.6741 5.84646 21.9509
627 1 -1.1104 12.1242 7.34215 26.509
628 1 -1.1104 12.1352 4.6125 23.4702
631 1 -1.1104 11.9633 4.69456 26.2707
633 1 -1.1104 9.41158 7.17387 23.4832
621 1 -1.1104 9.36424 7.33442 26.4274
9289 2 2.2208 13.5621 -5.17922 19.2839
398 1 -1.1104 0.902243 7.35228 20.4709
409 1 -1.1104 0.786026 10.268 20.7891
413 1 -1.1104 6.51596 10.0787 20.7811
579 2 2.2208 10.8154 20.2411 24.9547
586 2 2.2208 5.0921 11.5461 22.0174
592 1 -1.1104 0.956647 9.95667 23.4473
595 2 2.2208 5.00742 8.89094 24.7806
597 1 -1.1104 0.677422 10.1496 26.6374
602 2 2.2208 2.09465 11.5532 24.9873
604 2 2.2208 2.25862 8.70351 22.0763
606 1 -1.1104 3.51122 10.1594 23.4923
608 1 -1.1104 3.31505 10.2196 26.3902
642 1 -1.1104 3.77997 12.8632 23.5204
646 1 -1.1104 0.594905 13.0018 26.1761
652 1 -1.1104 0.863687 13.2023 23.4986
657 1 -1.1104 3.60069 12.8866 26.3644
650 1 -1.1104 6.48062 12.8959 23.5393
594 1 -1.1104 6.54685 10.0874 23.3269
641 1 -1.1104 6.59845 12.803 26.2143
611 2 2.2208 4.96937 11.5539 27.7358
385 2 2.2208 13.5271 14.4668 27.5851
626 1 -1.1104 12.1086 7.4958 23.1674
599 1 -1.1104 6.25803 10.3249 26.1095
679 1 -1.1104 9.22277 13.1485 23.7445
675 1 -1.1104 9.3521 12.8859 26.3259
616 1 -1.1104 9.45006 10.0701 26.5018
618 1 -1.1104 9.36718 10.2453 23.4235
620 2 2.2208 8.03361 8.52706 21.953
622 2 2.2208 7.94451 11.6417 24.7294
625 2 2.2208 10.7748 11.6427 22.0251
629 1 -1.1104 12.169 10.1731 23.213
630 2 2.2208 10.8329 8.82739 24.6663
632 1 -1.1104 12.0558 10.3088 26.0804
548 1 -1.1104 12.2197 12.8032 23.4219
550 1 -1.1104 12.1155 13.0378 26.244
387 2 2.2208 10.8147 17.317 27.5465
510 1 -1.1104 9.14122 18.7066 20.4907
549 1 -1.1104 12.201 18.6818 23.3331
662 2 2.2208 2.1467 14.3414 22.0852
647 1 -1.1104 6.61233 18.6062 23.624
658 1 -1.1104 6.7215 15.6131 23.5178
676 1 -1.1104 6.51416 18.4848 25.9532
643 1 -1.1104 6.45944 15.8127 26.3414
649 2 2.2208 5.10456 14.1447 24.9231
661 2 2.2208 2.3013 19.9957 22.0238
640 1 -1.1104 3.66458 18.3971 23.4777
644 1 -1.1104 0.690144 18.5989 26.3813
645 1 -1.1104 0.820778 15.8213 26.303
648 2 2.2208 5.2576 19.9924 24.8772
651 1 -1.1104 0.74102 18.8254 23.4713
653 2 2.2208 5.1867 17.1665 22.0901
654 1 -1.1104 3.5672 18.5601 26.1618
655 2 2.2208 2.31814 17.2154 24.903
656 1 -1.1104 3.62924 15.553 26.1764
659 1 -1.1104 0.707154 15.8497 23.5049
660 1 -1.1104 3.59196 15.579 23.4454
673 2 2.2208 7.9591 14.3116 22.11
519 2 2.2208 13.5645 17.312 24.6343
577 1 -1.1104 12.3162 15.6873 23.3954
582 2 2.2208 13.5133 -2.64955 22.0564
547 2 2.2208 10.7139 17.2449 21.8698
672 2 2.2208 7.96325 20.1269 21.9388
678 1 -1.1104 9.56225 18.6713 23.3398
476 1 -1.1104 6.53078 15.8172 20.3935
491 2 2.2208 5.04642 14.6679 13.7925
9989 2 2.2208 13.6024 3.05405 22.2126
390 2 2.2208 7.79888 0.269183 13.7034
9860 2 2.2208 13.4074 11.6548 13.7216
9127 2 2.2208 5.12157 -5.29524 27.7257
357 2 2.2208 5.17965 -2.59575 13.7402
490 2 2.2208 4.9957 20.2888 13.7761
9928 2 2.2208 13.5672 17.2992 19.2777
664 2 2.2208 4.96636 17.1406 27.6445
680 2 2.2208 5.04621 22.8819 5.00043
682 1 -1.1104 0.911026 24.3963 0.967159
683 1 -1.1104 0.710605 24.2274 3.73404
684 1 -1.1104 1.0049 21.5307 0.947189
686 2 2.2208 4.91146 25.6923 2.145
687 1 -1.1104 0.588813 21.5364 3.84866
689 1 -1.1104 3.46959 24.3633 0.636814
690 2 2.2208 2.23268 22.9761 2.30522
692 1 -1.1104 3.60083 24.3831 3.61493
693 2 2.2208 2.17074 25.9188 5.01584
694 1 -1.1104 3.7338 21.5592 0.678098
696 1 -1.1104 3.52279 21.529 3.82235
685 1 -1.1104 0.78676 27.227 0.778561
695 1 -1.1104 3.56107 27.114 0.845673
697 1 -1.1104 3.70445 27.2951 3.36922
705 1 -1.1104 6.38497 21.5837 3.45509
702 1 -1.1104 6.40524 24.4089 3.47599
706 1 -1.1104 6.35952 27.2253 3.81918
828 1 -1.1104 3.40709 21.629 6.42092
827 1 -1.1104 3.43107 24.4402 6.40836
703 1 -1.1104 6.68506 21.5889 0.78366
826 1 -1.1104 6.46345 27.1533 6.49225
822 1 -1.1104 6.47637 24.3418 6.29631
824 1 -1.1104 0.978368 27.3482 6.41288
996 2 2.2208 13.5223 37.1689 5.2622
701 1 -1.1104 6.34788 24.2607 0.6965
707 2 2.2208 10.5755 22.9825 5.10719
709 1 -1.1104 12.024 24.5245 0.796139
710 1 -1.1104 12.028 24.5161 3.74948
711 1 -1.1104 12.1287 21.8462 1.07012
713 2 2.2208 10.7899 25.9538 2.30058
714 1 -1.1104 12.1932 21.6834 3.84223
716 1 -1.1104 9.27388 24.4866 0.741979
717 2 2.2208 7.86368 23.1677 2.2755
719 1 -1.1104 9.24336 24.5927 3.62215
720 2 2.2208 7.68267 25.8632 4.99582
721 1 -1.1104 9.44076 21.5219 0.947653
723 1 -1.1104 9.15196 21.5514 3.76298
712 1 -1.1104 12.1479 27.2943 0.871977
715 1 -1.1104 12.3558 27.5209 3.81451
724 1 -1.1104 9.48709 27.3551 3.60566
722 1 -1.1104 9.30298 27.2113 0.859174
858 1 -1.1104 9.26146 21.581 6.54746
857 1 -1.1104 9.21662 24.345 6.49954
1639 1 -1.1104 9.2438 46.8514 9.4294
825 1 -1.1104 6.38038 21.6771 6.49782
859 1 -1.1104 9.1726 27.2129 6.14124
10416 2 2.2208 13.6563 28.7613 13.4254
688 1 -1.1104 0.782796 27.1576 3.64571
681 2 2.2208 4.84483 28.7031 5.03918
691 2 2.2208 2.26646 28.7126 2.16473
729 1 -1.1104 0.761473 29.9968 0.744628
732 1 -1.1104 0.81291 29.8521 3.64807
735 1 -1.1104 0.957387 32.687 0.850665
736 2 2.2208 5.03924 31.4811 2.30811
738 1 -1.1104 0.963621 32.9251 3.59823
740 1 -1.1104 3.53113 30.0386 0.707
743 1 -1.1104 3.7496 30.0367 3.55195
745 2 2.2208 2.07177 31.678 5.11343
747 1 -1.1104 3.80022 32.7401 0.706723
748 1 -1.1104 3.68794 32.9693 3.50646
886 1 -1.1104 3.78039 32.9383 6.4016
878 1 -1.1104 0.727742 30.2916 6.48349
884 1 -1.1104 3.50824 30.0823 6.38973
753 1 -1.1104 6.59817 30.3039 3.64445
1028 2 2.2208 7.96856 40.1036 13.5573
883 1 -1.1104 6.7108 32.8138 6.48023
704 1 -1.1104 6.52485 27.3731 0.889347
752 1 -1.1104 6.4283 30.0333 0.888103
880 1 -1.1104 6.47421 29.9216 6.40238
754 1 -1.1104 6.62176 32.8464 0.795581
739 1 -1.1104 6.66286 33.0067 3.81544
708 2 2.2208 10.6615 28.9 5.10425
718 2 2.2208 7.97377 28.5418 2.40181
756 1 -1.1104 12.1114 29.996 0.870143
758 1 -1.1104 12.2093 30.2865 3.61428
760 1 -1.1104 12.1117 32.9212 0.784824
761 2 2.2208 10.7593 31.4927 2.25976
763 1 -1.1104 12.1199 33.0213 3.59049
764 1 -1.1104 9.3588 29.96 1.06068
767 1 -1.1104 9.37673 30.2226 3.65059
769 2 2.2208 8.00881 31.6803 5.02173
771 1 -1.1104 9.28366 32.6965 0.871488
772 1 -1.1104 9.46394 32.8972 3.55673
917 1 -1.1104 9.37575 33.0237 6.30502
1010 2 2.2208 5.0489 25.9229 13.6527
997 2 2.2208 13.5336 31.7274 5.14352
914 1 -1.1104 12.2092 32.9065 6.33875
728 2 2.2208 4.99887 34.3207 4.95529
730 1 -1.1104 0.866339 35.5989 0.91267
733 1 -1.1104 0.829129 35.4669 3.66882
737 2 2.2208 5.07468 37.077 2.30777
741 1 -1.1104 3.62977 35.7492 1.06745
742 2 2.2208 2.28141 34.245 2.33551
744 1 -1.1104 3.79949 35.6787 3.69498
746 2 2.2208 2.23299 37.0869 5.16032
774 2 2.2208 5.03077 40.1574 5.17261
780 1 -1.1104 0.965619 38.41 1.00709