ITEM: TIMESTEP
10000
ITEM: NUMBER OF ATOMS
17820
ITEM: BOX BOUNDS pp pp pp
-4.4021521362481464e-01 2.7780215213624633e+01
-5.2505311153238825e+00 3.3333053111533047e+02
-4.3642780015714594e-01 2.7776427800157151e+01
ITEM: ATOMS id type q x y z
1 2 2.2208 5.04493 0.449261 5.08948
2 1 -1.1104 1.06479 -3.88234 0.800949
6 1 -1.1104 0.964155 -3.6438 3.61966
10 1 -1.1104 0.972709 -0.983926 0.894671
12 2 2.2208 5.17865 -2.278 2.1975
14 1 -1.1104 0.900821 -0.83181 3.56706
16 1 -1.1104 3.82511 -3.67675 0.76867
18 2 2.2208 2.45715 0.674392 2.45736
19 1 -1.1104 3.78043 -3.73335 3.53765
21 2 2.2208 2.37492 -2.26833 5.16141
23 1 -1.1104 3.88809 -0.790989 0.828977
24 1 -1.1104 3.63097 -0.932683 3.61296
170 1 -1.1104 0.985144 -0.792361 6.3333
8 1 -1.1104 6.69789 -3.68754 3.74745
9039 2 2.2208 13.6679 -5.11658 8.05053
168 1 -1.1104 6.53578 -3.56476 6.31679
172 1 -1.1104 3.79873 -3.69254 6.37178
171 1 -1.1104 6.55629 -0.902245 6.69177
576 2 2.2208 8.04662 3.4525 -0.36799
9034 2 2.2208 2.30707 -5.05431 7.85703
490 2 2.2208 5.14542 20.2454 13.5426
15 1 -1.1104 6.29423 -0.850679 3.75454
4 1 -1.1104 6.65847 -3.86141 0.867762
11 1 -1.1104 6.96632 -0.758428 0.917809
31 2 2.2208 10.751 0.254404 5.00626
32 1 -1.1104 12.2338 -3.78882 0.893525
34 1 -1.1104 12.236 -3.75683 3.68572
36 1 -1.1104 12.3352 -1.0057 0.77711
37 2 2.2208 10.7506 -2.40542 2.24355
39 1 -1.1104 11.8689 -0.96947 3.49805
40 1 -1.1104 9.23435 -3.63615 0.865116
42 2 2.2208 7.81144 0.622132 2.47927
43 1 -1.1104 9.43833 -3.70485 3.73178
45 2 2.2208 7.90851 -2.25488 5.08813
47 1 -1.1104 9.57948 -0.881081 0.663288
48 1 -1.1104 9.2017 -0.975034 3.51728
208 1 -1.1104 9.3971 -3.84911 6.37894
205 1 -1.1104 12.302 -3.58193 6.41945
210 1 -1.1104 9.3433 -0.955879 6.38854
9031 2 2.2208 7.99613 -5.11403 2.30346
207 1 -1.1104 12.37 -0.961607 6.20253
316 2 2.2208 7.86532 20.3778 10.5123
9032 2 2.2208 10.8359 -5.18923 5.04437
491 2 2.2208 5.24383 14.7256 13.5481
3 1 -1.1104 0.944233 1.80653 0.872018
7 1 -1.1104 0.834259 1.91753 3.62022
13 2 2.2208 5.16419 3.50084 2.38355
17 1 -1.1104 3.75674 2.05711 0.94878
20 1 -1.1104 3.68103 1.98986 3.83435
22 2 2.2208 2.35043 3.51972 4.97533
54 2 2.2208 5.01364 6.0807 5.07298
56 1 -1.1104 0.824145 7.4245 0.911416
58 1 -1.1104 1.07125 7.52686 3.77574
60 1 -1.1104 0.857509 4.63608 0.906631
67 1 -1.1104 0.950333 4.80401 3.69787
71 1 -1.1104 3.6729 7.57909 0.833626
72 2 2.2208 2.42923 6.23592 2.22468
74 1 -1.1104 3.86587 7.76862 3.68498
76 1 -1.1104 3.71872 4.89453 0.892574
79 1 -1.1104 3.71993 4.87182 3.58897
238 1 -1.1104 3.71966 7.52957 6.56094
9 1 -1.1104 6.46983 1.91341 3.81099
5 1 -1.1104 6.47055 2.04034 0.914379
236 1 -1.1104 0.848451 4.84184 6.5324
239 1 -1.1104 3.50221 4.57876 6.65843
57 1 -1.1104 6.56305 7.81903 0.810718
234 1 -1.1104 0.827817 7.51574 6.48503
237 1 -1.1104 6.50582 4.75839 6.3604
69 1 -1.1104 6.42748 4.76156 3.73617
63 1 -1.1104 6.55319 5.0267 0.800861
169 1 -1.1104 6.58772 1.93815 6.41683
59 1 -1.1104 6.45734 7.44636 3.76771
33 1 -1.1104 12.2587 1.83983 1.15275
35 1 -1.1104 12.1933 1.93721 3.77833
38 2 2.2208 10.8283 3.41037 2.31099
41 1 -1.1104 9.25128 1.97622 0.893779
44 1 -1.1104 9.41584 1.94501 3.51401
46 2 2.2208 8.00127 3.46284 5.15206
84 2 2.2208 10.9977 6.23425 5.1528
86 1 -1.1104 12.2001 7.51001 0.823292
87 1 -1.1104 12.1364 7.70978 3.74028
88 1 -1.1104 12.2042 4.62585 0.915522
92 1 -1.1104 12.2248 4.8885 3.71791
94 1 -1.1104 9.45386 7.63573 0.945601
95 2 2.2208 8.08594 6.25196 2.33687
97 1 -1.1104 9.28385 7.79582 3.70495
99 1 -1.1104 9.45672 4.92809 0.935707
102 1 -1.1104 9.23379 4.55961 3.59326
206 1 -1.1104 12.041 1.8403 6.52236
265 1 -1.1104 12.3302 7.47657 6.50474
235 1 -1.1104 6.60327 7.37665 6.4766
269 1 -1.1104 9.58887 4.96954 6.47791
209 1 -1.1104 9.4887 1.91523 6.26365
267 1 -1.1104 9.50023 7.63794 6.54728
266 1 -1.1104 12.1938 4.70133 6.4943
352 2 2.2208 -0.191295 3.30136 13.5533
9033 2 2.2208 13.4965 -5.19607 2.39532
55 2 2.2208 5.19692 11.9697 4.97749
61 1 -1.1104 1.12649 10.282 0.834245
66 2 2.2208 5.10124 9.05644 2.23487
68 1 -1.1104 0.886658 10.2468 3.61319
73 2 2.2208 2.32974 11.7067 2.26354
75 2 2.2208 2.30105 8.89608 5.13887
77 1 -1.1104 3.84999 10.452 0.846907
80 1 -1.1104 3.69067 10.4601 3.53907
107 1 -1.1104 1.05218 13.2068 0.870079
113 1 -1.1104 0.867142 13.198 3.74575
123 1 -1.1104 3.94972 13.2028 0.840326
128 1 -1.1104 3.70031 13.4678 3.78508
108 1 -1.1104 0.968593 13.1386 6.38581
62 1 -1.1104 0.80079 10.3538 6.62836
124 1 -1.1104 3.74877 13.1437 6.31842
64 1 -1.1104 6.69924 10.35 1.10955
78 1 -1.1104 3.84618 10.3013 6.52992
165 1 -1.1104 12.1069 18.8135 12.3257
110 1 -1.1104 6.70773 13.3157 0.855919
115 1 -1.1104 6.60693 13.1831 3.47209
70 1 -1.1104 6.52956 10.4608 3.60881
85 2 2.2208 10.8425 11.7603 4.99605
89 1 -1.1104 12.4943 10.4948 0.909982
91 2 2.2208 10.8961 8.96418 2.27773
93 1 -1.1104 12.399 10.4249 3.52311
96 2 2.2208 8.03881 11.7705 2.24125
98 2 2.2208 7.96944 8.81988 5.14711
100 1 -1.1104 9.61132 10.4407 0.69154
103 1 -1.1104 9.47121 10.5892 3.63476
142 1 -1.1104 12.3259 13.1959 0.855218
146 1 -1.1104 12.3598 13.1905 3.62997
153 1 -1.1104 9.54624 13.2248 0.830344
158 1 -1.1104 9.35287 13.3147 3.73389
90 1 -1.1104 12.0457 10.3584 6.35493
143 1 -1.1104 12.3029 13.0852 6.5465
101 1 -1.1104 9.49385 10.3651 6.41419
154 1 -1.1104 9.45059 13.1986 6.49533
130 2 2.2208 2.28189 14.4562 5.1843
106 2 2.2208 5.33975 17.3332 5.09679
109 1 -1.1104 0.900578 18.6321 1.0417
114 1 -1.1104 0.881436 18.6296 3.41383
116 1 -1.1104 0.896049 15.9472 0.987175
119 2 2.2208 5.36174 14.739 2.40756
120 2 2.2208 5.18786 20.2517 2.24816
121 1 -1.1104 0.882879 15.9167 3.73935
125 1 -1.1104 3.78478 18.667 0.901712
127 2 2.2208 2.48594 17.3002 2.2647
129 1 -1.1104 3.98609 18.7674 3.5307
131 2 2.2208 2.19174 19.922 4.81346
132 1 -1.1104 3.62991 15.8241 0.98748
134 1 -1.1104 3.85208 16.1648 3.59521
391 2 2.2208 10.8508 -2.41429 13.4925
117 1 -1.1104 0.796875 15.9744 6.55166
133 1 -1.1104 3.42906 15.8952 6.45266
126 1 -1.1104 3.4902 18.66 6.34012
9682 2 2.2208 -0.412672 11.7097 10.5756
302 1 -1.1104 0.759387 18.8115 6.26271
426 2 2.2208 2.48498 6.17878 13.5169
9290 2 2.2208 2.44413 -5.06896 13.4735
140 1 -1.1104 6.68126 16.1359 0.833438
139 1 -1.1104 6.71099 18.6923 3.70583
112 1 -1.1104 6.61714 18.7742 6.44019
122 1 -1.1104 6.64747 15.991 3.65963
138 1 -1.1104 6.61236 18.7398 0.971836
141 2 2.2208 10.7102 17.3853 5.1986
144 1 -1.1104 12.4115 18.998 1.11894
147 1 -1.1104 12.1719 18.888 3.911
148 1 -1.1104 12.1197 15.8581 0.844442
150 2 2.2208 10.922 14.5899 2.28387
151 2 2.2208 10.931 20.3331 2.26965
152 1 -1.1104 12.315 15.9199 3.9493
155 1 -1.1104 9.52882 18.7727 0.972473
157 2 2.2208 8.1661 17.4399 2.2414
159 1 -1.1104 9.44633 18.8348 3.63973
160 2 2.2208 8.0909 14.5379 5.08126
161 2 2.2208 7.89086 20.3012 5.08001
162 1 -1.1104 9.56093 16.0944 1.06
164 1 -1.1104 9.42397 16.0597 3.86792
163 1 -1.1104 9.48907 15.7882 6.44374
149 1 -1.1104 12.1151 16.1517 6.5801
118 1 -1.1104 6.35689 15.7871 6.4397
314 1 -1.1104 9.46623 16.0811 9.50089
232 1 -1.1104 9.34447 18.9298 8.97049
174 1 -1.1104 3.61917 -0.832073 6.47451
9558 2 2.2208 13.6036 14.5339 5.10731
166 1 -1.1104 0.844767 -3.542 6.50063
9671 2 2.2208 13.6035 5.91273 8.02774
358 2 2.2208 2.29531 0.395669 13.4498
386 2 2.2208 8.06471 14.6409 -0.370357
175 2 2.2208 5.34189 0.554509 10.4628
176 1 -1.1104 1.06158 -3.77688 11.9792
180 1 -1.1104 0.912932 -3.65871 9.29985
184 1 -1.1104 0.930444 -0.967248 12.0361
186 2 2.2208 5.32108 -2.39397 7.84141
188 1 -1.1104 1.02837 -0.93197 9.11865
190 1 -1.1104 3.90157 -3.80205 12.1226
192 2 2.2208 2.32556 0.618521 7.63758
193 1 -1.1104 3.96289 -3.76102 9.17639
195 2 2.2208 2.37938 -2.24749 10.6152
197 1 -1.1104 3.85068 -0.911022 12.0879
198 1 -1.1104 3.78769 -0.976814 9.19241
182 1 -1.1104 6.76058 -3.80314 9.21305
9537 2 2.2208 13.506 20.1667 5.25336
9037 2 2.2208 8.02423 -5.13194 7.91224
189 1 -1.1104 6.50115 -1.02423 9.36975
185 1 -1.1104 6.58583 -1.01054 12.0817
178 1 -1.1104 6.83395 -3.81343 11.971
211 2 2.2208 10.8974 0.364842 10.6404
212 1 -1.1104 12.1596 -3.68761 11.9318
214 1 -1.1104 12.2562 -3.79686 9.11154
216 1 -1.1104 12.2784 -0.948504 12.0678
217 2 2.2208 10.8884 -2.27283 7.87041
219 1 -1.1104 12.3238 -1.06894 9.18012
220 1 -1.1104 9.53262 -3.78453 12.1687
222 2 2.2208 8.14888 0.334122 7.6683
223 1 -1.1104 9.4309 -3.63497 9.2322
225 2 2.2208 8.02294 -2.13323 10.7616
227 1 -1.1104 9.31223 -0.862858 12.1728
228 1 -1.1104 9.60641 -0.817383 9.07729
9786 2 2.2208 13.6319 0.372516 13.3271
51 2 2.2208 10.8722 14.4841 8.00384
517 2 2.2208 10.629 14.6976 13.4186
9462 2 2.2208 13.5693 17.424 2.49105
390 2 2.2208 7.97829 0.501513 13.4766
9028 2 2.2208 2.42207 -5.13034 2.20336
518 2 2.2208 8.0778 17.6029 13.4287
167 1 -1.1104 1.0039 1.97082 6.26948
454 2 2.2208 10.9665 9.0426 13.455
173 1 -1.1104 3.7911 2.0291 6.38068
177 1 -1.1104 1.01188 2.05236 12.0455
181 1 -1.1104 1.10545 1.89293 9.4125
187 2 2.2208 5.21013 3.30055 7.89404
191 1 -1.1104 3.84063 1.93753 12.0505
194 1 -1.1104 3.72113 1.90681 9.25019
196 2 2.2208 2.50778 3.20031 10.7876
240 2 2.2208 5.24979 6.14668 10.61
242 1 -1.1104 1.05992 7.58686 12.2682
246 1 -1.1104 1.19281 4.84703 12.195
251 1 -1.1104 1.05738 4.85481 9.29869
255 1 -1.1104 3.83437 7.52537 12.0956
256 2 2.2208 2.31406 6.0658 7.95747
258 1 -1.1104 3.73856 7.31185 9.48862
260 1 -1.1104 3.85457 4.59943 12.2553
262 1 -1.1104 4.09122 4.6693 9.37639
245 1 -1.1104 6.70753 7.48026 9.30542
253 1 -1.1104 6.74592 4.66186 9.23229
243 1 -1.1104 6.50958 7.58 12.1865
296 1 -1.1104 6.25546 18.8079 12.1367
306 1 -1.1104 6.79052 15.9555 11.9159
359 2 2.2208 5.05054 3.23093 13.5193
392 2 2.2208 10.8973 3.27974 13.4828
315 1 -1.1104 9.54658 15.8801 11.9462
248 1 -1.1104 6.5931 4.6968 12.1741
179 1 -1.1104 6.44447 1.72724 12.0831
183 1 -1.1104 6.76753 1.70103 9.14508
213 1 -1.1104 12.3467 1.80559 11.9748
215 1 -1.1104 12.4931 1.93303 9.33671
218 2 2.2208 10.7904 3.29421 7.87127
221 1 -1.1104 9.25462 1.84143 12.1063
224 1 -1.1104 9.53144 1.76629 9.19419
226 2 2.2208 7.9308 3.40206 10.6752
268 1 -1.1104 9.48736 4.47776 9.24517
271 1 -1.1104 9.4084 4.66736 12.2359
273 1 -1.1104 9.3761 7.29718 9.24917
275 2 2.2208 7.99448 6.14353 7.72396
276 2 2.2208 10.8378 5.99439 10.6548
278 1 -1.1104 12.2921 7.31545 12.0827
279 1 -1.1104 12.2871 7.32715 9.19471
280 1 -1.1104 12.2845 4.46749 12.1596
283 1 -1.1104 12.4256 4.61644 9.41014
355 2 2.2208 -0.359624 -2.28396 13.3781
9487 2 2.2208 13.6076 6.19309 2.3332
9035 2 2.2208 5.29992 -5.12402 10.5986
244 1 -1.1104 0.94792 7.35236 9.38703
241 2 2.2208 5.21846 11.7817 10.8209
247 1 -1.1104 0.963283 10.2356 12.0294
250 2 2.2208 5.19508 9.02277 7.95517
252 1 -1.1104 0.889309 10.1896 9.24924
257 2 2.2208 2.52207 11.6675 7.86169
259 2 2.2208 2.30361 8.88503 10.8498
261 1 -1.1104 3.6542 10.3457 12.1861
263 1 -1.1104 3.64396 10.1278 9.39821
287 1 -1.1104 3.90397 13.2398 11.9973
294 1 -1.1104 1.08814 13.0877 9.13943
299 1 -1.1104 1.09517 12.9509 12.0792
305 1 -1.1104 3.84095 12.901 9.12478
254 1 -1.1104 6.50107 10.3242 9.29429
290 1 -1.1104 6.63163 13.1692 9.19698
297 1 -1.1104 6.64704 13.1437 12.1639
289 1 -1.1104 6.63686 15.8626 9.07083
9029 2 2.2208 5.3161 -5.25212 5.10276
65 1 -1.1104 6.67637 10.1919 6.58096
285 1 -1.1104 9.49634 7.51881 12.1989
249 1 -1.1104 6.44844 10.4753 12.3405
111 1 -1.1104 6.66401 13.1943 6.3626
312 1 -1.1104 12.1453 13.0383 9.159
231 1 -1.1104 9.40117 13.2967 9.15098
264 1 -1.1104 9.12798 10.2325 9.44499
270 1 -1.1104 9.42719 10.3936 12.1635
272 2 2.2208 7.91054 8.77931 10.8191
274 2 2.2208 8.13806 11.6975 7.78231
277 2 2.2208 10.8755 11.7797 10.7936
281 1 -1.1104 12.2385 10.4888 12.0051
282 2 2.2208 10.7907 8.78577 7.92609
284 1 -1.1104 12.1893 10.0532 9.26077
202 1 -1.1104 9.34966 12.9656 12.0464
105 1 -1.1104 12.1936 13.2265 12.2694
455 2 2.2208 8.04645 11.8169 13.3809
357 2 2.2208 5.28017 -2.23477 13.499
229 2 2.2208 13.6022 0.470198 8.02319
9488 2 2.2208 13.5955 17.5318 7.9193
233 2 2.2208 8.03559 14.4843 10.5773
310 2 2.2208 2.5018 14.475 10.733
286 1 -1.1104 3.64346 18.5362 11.9115
291 1 -1.1104 0.796329 18.7411 9.22121
292 1 -1.1104 0.847075 15.9091 9.34726
293 2 2.2208 5.08179 20.1378 7.68163
295 2 2.2208 5.07496 14.3597 7.83255
298 1 -1.1104 0.644546 18.6834 12.0404
300 2 2.2208 5.17601 17.2601 10.6192
301 1 -1.1104 3.66183 18.6484 9.07953
303 2 2.2208 2.16727 17.3547 7.89773
304 1 -1.1104 3.57619 15.803 9.35633
307 1 -1.1104 1.12426 15.7717 12.1519
308 1 -1.1104 3.85623 15.9326 12.2835
309 2 2.2208 2.23247 20.1023 10.6707
288 1 -1.1104 6.43385 18.8385 9.25163
53 1 -1.1104 12.1001 15.8496 9.46974
29 1 -1.1104 12.1976 19.0559 9.50235
428 2 2.2208 2.35805 11.7744 13.6207
52 2 2.2208 10.7387 20.4343 8.04081
30 1 -1.1104 12.231 16.0798 12.2415
104 2 2.2208 10.8867 17.4501 10.651
156 1 -1.1104 9.29859 18.8274 6.49629
203 1 -1.1104 9.27959 18.9002 11.9224
145 1 -1.1104 12.0324 18.8606 6.59406
204 2 2.2208 7.97279 17.2434 7.90881
313 2 2.2208 -0.326511 14.5396 7.81225
9620 2 2.2208 13.6743 14.5783 10.7763
27 2 2.2208 -0.384057 3.40905 2.28405
9460 2 2.2208 13.5578 3.32427 5.10991
9901 2 2.2208 -0.239211 8.94296 13.451
25 2 2.2208 -0.402726 -2.42691 2.17797
49 2 2.2208 13.4002 0.488955 2.4126
201 2 2.2208 -0.398632 0.547107 10.7386
489 2 2.2208 2.20584 17.3664 13.3532
9690 2 2.2208 -0.345533 6.1019 10.7292
9971 2 2.2208 -0.409087 20.2011 13.6818
9672 2 2.2208 13.5587 11.6448 7.80764
199 2 2.2208 -0.321128 3.26379 7.78877
427 2 2.2208 5.09366 8.96701 13.4791
516 2 2.2208 10.8132 20.3248 13.6268
664 2 2.2208 5.0965 17.3989 -0.275633
317 2 2.2208 5.35929 0.571396 16.3961
318 1 -1.1104 1.01532 -3.80049 17.6453
322 1 -1.1104 0.9533 -3.7445 14.8733
330 1 -1.1104 1.15253 -0.943177 17.6491
332 2 2.2208 5.21388 -2.41929 19.3544
334 1 -1.1104 0.860116 -0.970755 14.9659
338 1 -1.1104 3.85829 -3.63492 17.8243
340 2 2.2208 2.42535 0.516381 19.0259
341 1 -1.1104 3.73724 -3.69388 14.9105
345 2 2.2208 2.37965 -2.36917 16.388
347 1 -1.1104 3.74296 -0.941106 17.7101
348 1 -1.1104 3.74125 -0.870239 14.9342
349 1 -1.1104 3.66748 -0.933081 20.5494
342 1 -1.1104 3.81048 -3.62296 20.6449
9088 2 2.2208 8.09117 -4.82189 24.7438
320 1 -1.1104 6.57683 -3.79375 17.7595
331 1 -1.1104 6.5591 -0.759105 17.7973
326 1 -1.1104 6.4438 -3.78623 14.8632
574 2 2.2208 10.9026 0.450576 27.4943
335 1 -1.1104 0.898437 -1.07652 20.3805
336 1 -1.1104 6.56329 -0.969951 14.9753
634 2 2.2208 10.8468 6.17256 27.6029
360 2 2.2208 10.8485 0.439045 16.2218
361 1 -1.1104 12.1714 -4.04831 17.6524
363 1 -1.1104 12.2696 -3.78029 14.7227
367 1 -1.1104 12.2562 -1.1548 17.7763
368 2 2.2208 10.7479 -2.39177 19.093
370 1 -1.1104 12.0936 -0.979825 14.8266
372 1 -1.1104 9.46479 -3.77027 17.7663
374 2 2.2208 8.1442 0.431187 19.0562
375 1 -1.1104 9.49343 -3.95142 14.7932
379 2 2.2208 7.89668 -2.40646 16.3937
381 1 -1.1104 9.33429 -1.10555 17.6207
382 1 -1.1104 9.25896 -0.829206 14.9782
337 1 -1.1104 6.45415 -1.07811 20.5444
383 1 -1.1104 9.33287 -0.957756 20.4361
612 2 2.2208 -0.423052 11.5814 27.5891
611 2 2.2208 5.2388 11.8588 27.6255
9090 2 2.2208 10.7911 -4.98975 27.7047
327 1 -1.1104 6.58769 -3.90599 20.539
364 1 -1.1104 12.2529 -3.87205 20.5381
371 1 -1.1104 12.1445 -1.24171 20.6888
376 1 -1.1104 9.38754 -3.68766 20.555
9316 2 2.2208 5.0891 -5.02395 16.4024
319 1 -1.1104 0.815795 2.05415 17.978
324 1 -1.1104 0.985038 1.77904 14.9234
333 2 2.2208 5.16011 3.19668 19.2868
339 1 -1.1104 3.74524 1.86101 17.8376
343 1 -1.1104 3.68356 1.59235 14.9501
346 2 2.2208 2.25789 3.16305 16.3694
393 2 2.2208 5.15453 6.03025 16.4575
395 1 -1.1104 0.871439 7.4418 17.8259
397 1 -1.1104 1.22469 7.41134 14.8934
401 1 -1.1104 0.950271 4.77448 17.9041
406 1 -1.1104 1.17863 4.69622 14.9528
414 1 -1.1104 3.76364 7.39916 17.7876
415 2 2.2208 2.40605 6.14799 19.1886
420 1 -1.1104 3.87202 4.62431 17.9679
422 1 -1.1104 3.77679 4.58492 15.2804
417 1 -1.1104 3.83415 7.51876 14.924
399 1 -1.1104 6.50631 7.44275 14.9294
321 1 -1.1104 6.67466 1.9048 17.7899
418 1 -1.1104 3.91571 7.42721 20.4673
407 1 -1.1104 0.897375 4.78161 20.7865
344 1 -1.1104 3.81782 1.97811 20.664
411 1 -1.1104 6.63195 4.75464 20.5142
423 1 -1.1104 3.66342 4.80864 20.6894
325 1 -1.1104 0.948874 1.89547 20.5118
396 1 -1.1104 6.46846 7.59152 17.8617
329 1 -1.1104 6.61388 1.76323 20.699
410 1 -1.1104 6.66611 4.66319 15.0247
328 1 -1.1104 6.65736 2.0031 14.9507
403 1 -1.1104 6.76166 4.72882 17.7927
362 1 -1.1104 12.4812 1.66438 17.6318
365 1 -1.1104 12.4068 1.70379 14.6395
369 2 2.2208 10.9325 3.25286 19.116
373 1 -1.1104 9.84043 1.83686 17.6707
377 1 -1.1104 9.52711 1.91158 14.9704
380 2 2.2208 8.06646 3.29692 16.2426
429 2 2.2208 10.7938 6.05524 16.5058
431 1 -1.1104 12.2725 7.41956 17.7064
432 1 -1.1104 12.5192 7.59074 14.842
434 1 -1.1104 12.2345 4.55601 17.7537
437 1 -1.1104 12.4592 4.70936 14.9628
441 1 -1.1104 9.47997 7.53271 17.9737
442 2 2.2208 7.94455 6.07012 19.209
444 1 -1.1104 9.55731 7.62993 15.0631
447 1 -1.1104 9.51917 4.5939 17.7181
449 1 -1.1104 9.56739 4.75923 14.8903
366 1 -1.1104 12.1988 1.82475 20.4616
378 1 -1.1104 9.4823 1.76212 20.3955
445 1 -1.1104 9.38217 7.38563 20.5925
450 1 -1.1104 9.49021 4.68288 20.6757
665 2 2.2208 2.43355 14.5031 27.7981
438 1 -1.1104 12.2821 4.63634 20.4656
9126 2 2.2208 5.22914 -5.04007 21.9617
394 2 2.2208 5.22543 11.9489 16.2845
402 1 -1.1104 1.05202 10.1097 17.8356
405 2 2.2208 5.29466 8.9644 19.1471
408 1 -1.1104 0.973449 10.2258 14.9628
416 2 2.2208 2.40042 11.7665 19.1601
419 2 2.2208 2.48446 8.9309 16.2932
421 1 -1.1104 3.92943 10.3322 17.8529
424 1 -1.1104 3.80029 10.3447 15.0662
457 1 -1.1104 0.852584 13.005 17.7294
461 1 -1.1104 0.940758 13.283 14.8747
477 1 -1.1104 3.66231 13.1186 17.5785
480 1 -1.1104 3.82914 13.1889 14.9458
412 1 -1.1104 6.57507 10.4082 15.0284
481 1 -1.1104 3.64479 13.3245 20.4749
425 1 -1.1104 3.79819 10.4391 20.6035
404 1 -1.1104 6.68746 10.4552 17.7706
610 2 2.2208 2.33276 8.9509 27.4394
409 1 -1.1104 1.06232 10.6395 20.535
462 1 -1.1104 0.996788 13.3911 20.4975
385 2 2.2208 13.5639 14.5143 27.4172
465 1 -1.1104 6.55348 13.295 14.9519
413 1 -1.1104 6.70659 10.6408 20.7252
459 1 -1.1104 6.5725 13.3866 17.9202
430 2 2.2208 10.9367 11.8178 16.2995
435 1 -1.1104 12.197 10.2433 17.6516
436 2 2.2208 10.926 8.82035 19.1266
439 1 -1.1104 12.4472 10.4837 14.9095
443 2 2.2208 8.06703 11.7906 19.2567
446 2 2.2208 7.97859 8.96217 16.4442
448 1 -1.1104 9.4234 10.2517 17.7011
451 1 -1.1104 9.44043 10.3572 14.86
493 1 -1.1104 12.1571 13.2018 17.5975
495 1 -1.1104 12.1326 13.4337 14.8426
504 1 -1.1104 9.47245 12.8248 17.8735
507 1 -1.1104 9.40684 13.0293 14.9985
440 1 -1.1104 12.3178 10.2069 20.4077
433 1 -1.1104 12.3863 7.53558 20.5825
452 1 -1.1104 9.49241 10.14 20.4649
615 2 2.2208 -0.43019 6.27796 27.7683
471 2 2.2208 5.12522 14.6334 19.1471
456 2 2.2208 5.25527 17.3933 16.208
458 1 -1.1104 1.17327 18.6533 17.6799
463 1 -1.1104 0.954919 18.9933 14.9124
469 1 -1.1104 0.947278 15.9499 17.6354
472 2 2.2208 5.0886 20.2673 19.3154
473 1 -1.1104 1.0157 16.1036 14.7685
478 1 -1.1104 3.95741 18.8529 17.7617
479 2 2.2208 2.51041 17.208 19.0717
482 1 -1.1104 3.6382 18.8456 14.858
484 2 2.2208 2.51607 14.617 16.2228
485 2 2.2208 2.4271 20.2017 16.51
486 1 -1.1104 3.86775 15.8468 17.7846
487 1 -1.1104 3.69522 15.9908 15.0065
470 1 -1.1104 6.65836 16.0187 17.664
474 1 -1.1104 0.693772 15.9842 20.3902
464 1 -1.1104 0.842083 18.8523 20.5502
9781 2 2.2208 13.6417 14.5608 21.8923
475 1 -1.1104 6.57003 16.0939 14.7879
500 2 2.2208 10.6812 14.6102 19.1674
460 1 -1.1104 6.57836 18.9677 17.7425
467 1 -1.1104 6.52657 18.8432 15.0032
492 2 2.2208 10.79 17.3943 16.3087
494 1 -1.1104 12.0348 19.0437 17.7939
497 1 -1.1104 12.1904 19.0641 15.0639
499 1 -1.1104 12.2798 16.073 17.6243
501 2 2.2208 10.5347 20.2395 19.2661
502 1 -1.1104 12.1565 16.1745 14.852
505 1 -1.1104 9.23734 18.7161 17.7592
506 2 2.2208 7.87567 17.487 19.3265
509 1 -1.1104 9.40905 19.089 14.9913
511 2 2.2208 7.94426 14.6275 16.3319
512 2 2.2208 7.94114 20.2839 16.4142
513 1 -1.1104 9.40608 15.9805 17.7856
514 1 -1.1104 9.20211 15.9404 14.9015
498 1 -1.1104 11.8966 18.6666 20.5923
510 1 -1.1104 9.27235 18.8526 20.6325
515 1 -1.1104 9.34166 15.9005 20.8899
468 1 -1.1104 6.42753 18.9123 20.7661
476 1 -1.1104 6.69832 16.1576 20.6791
503 1 -1.1104 12.0371 16.0371 20.2587
9926 2 2.2208 13.5655 14.6812 16.2877
9092 2 2.2208 2.5343 -5.11755 24.8743
323 1 -1.1104 1.07506 -3.75038 20.5278
520 2 2.2208 5.20374 0.365311 21.9551
521 1 -1.1104 0.948542 -3.75494 23.5863
525 1 -1.1104 1.17543 -3.59114 26.2619
529 1 -1.1104 0.95305 -0.976615 23.1285
531 2 2.2208 5.2008 -2.35806 24.8496
533 1 -1.1104 0.83507 -0.924516 26.1073
535 1 -1.1104 3.86465 -3.71877 23.4533
537 2 2.2208 2.43103 0.348859 24.906
538 1 -1.1104 3.88518 -3.71305 26.152
540 2 2.2208 2.33058 -2.3085 21.9921
542 1 -1.1104 3.85512 -0.833436 23.416
543 1 -1.1104 3.68668 -0.913292 26.1325
544 2 2.2208 5.30355 0.51617 27.6197
530 1 -1.1104 6.62581 -1.0093 23.3306
9898 2 2.2208 -0.234355 6.14529 16.3311
9856 2 2.2208 13.678 9.0443 16.2533
637 2 2.2208 13.53 11.6138 24.7046
9929 2 2.2208 13.3846 20.292 16.4938
9127 2 2.2208 5.28535 -5.13722 27.6745
527 1 -1.1104 6.79113 -3.73979 26.4149
389 2 2.2208 7.84114 20.1552 27.7447
523 1 -1.1104 6.5763 -3.72151 23.4249
534 1 -1.1104 6.71973 -1.01 26.3294
556 2 2.2208 10.833 0.337547 22.0672
557 1 -1.1104 12.3091 -3.97739 23.2679
559 1 -1.1104 12.1959 -3.583 26.2894
561 1 -1.1104 12.2644 -0.939731 23.2668
562 2 2.2208 10.9709 -2.287 24.7962
564 1 -1.1104 12.3392 -0.905457 26.154
565 1 -1.1104 9.50838 -3.68418 23.3977
567 2 2.2208 8.07524 0.328295 24.6283
568 1 -1.1104 9.55936 -3.6669 26.1537
570 2 2.2208 7.95974 -2.24938 21.8418
572 1 -1.1104 9.46438 -1.01842 23.3604
573 1 -1.1104 9.38846 -0.99602 26.0326
552 2 2.2208 -0.247542 0.589523 27.6446
575 2 2.2208 8.10496 -2.17975 27.5867
553 2 2.2208 -0.343348 -2.40017 24.785
398 1 -1.1104 1.00572 7.82062 20.563
522 1 -1.1104 1.00351 1.64508 23.4622
526 1 -1.1104 1.19707 2.14127 26.2305
532 2 2.2208 5.19222 3.26818 24.8477
536 1 -1.1104 3.90563 1.90356 23.4647
539 1 -1.1104 3.74873 1.88389 26.2797
541 2 2.2208 2.5451 3.42515 22.07
585 2 2.2208 5.18505 6.17015 21.9987
587 1 -1.1104 1.11585 7.52083 23.4535
591 1 -1.1104 0.967189 4.54699 23.5655
596 1 -1.1104 0.986138 4.83238 26.2259
600 1 -1.1104 3.90179 7.70485 23.2699
601 2 2.2208 2.44186 6.26787 24.9442
603 1 -1.1104 3.67431 7.63867 26.1994
605 1 -1.1104 3.90018 4.76656 23.4234
607 1 -1.1104 4.07333 4.88046 26.1724
593 1 -1.1104 6.42944 4.86358 23.2089
588 1 -1.1104 6.78165 7.53484 23.4958
546 2 2.2208 2.47731 3.42069 27.5507
400 1 -1.1104 6.51088 7.83055 20.7204
9129 2 2.2208 -0.41857 -5.20449 27.6497
524 1 -1.1104 6.72322 1.8266 23.5251
528 1 -1.1104 6.53429 1.66628 26.2271
590 1 -1.1104 6.61185 7.43346 26.1743
598 1 -1.1104 7.04939 4.41364 26.0048
558 1 -1.1104 12.2685 1.79364 23.4342
560 1 -1.1104 12.1825 1.74173 26.3237
563 2 2.2208 10.9785 3.2236 24.7995
566 1 -1.1104 9.47811 1.63962 23.4337
569 1 -1.1104 9.62962 1.88675 26.1516
571 2 2.2208 7.95641 3.18183 22.1123
617 1 -1.1104 9.66964 4.77204 26.2409
619 1 -1.1104 9.34819 4.59688 23.5243
621 1 -1.1104 9.40537 7.74238 26.2146
623 2 2.2208 8.11291 6.08392 24.8356
624 2 2.2208 10.7813 6.13388 21.9905
626 1 -1.1104 12.3609 7.364 23.3797
627 1 -1.1104 12.153 7.4666 26.0988
628 1 -1.1104 12.175 4.61145 23.1115
631 1 -1.1104 12.2933 4.90391 26.0966
633 1 -1.1104 9.599 7.57966 23.3302
667 2 2.2208 -0.376109 17.3791 27.6545
9989 2 2.2208 13.6246 2.94284 21.8955
9089 2 2.2208 10.8048 -5.15012 21.8366
387 2 2.2208 10.8677 17.4466 27.5896
589 1 -1.1104 0.977886 7.52455 26.2385
586 2 2.2208 5.27634 11.8573 21.8547
592 1 -1.1104 0.849134 10.4228 23.2941
595 2 2.2208 5.27714 9.04107 24.8302
597 1 -1.1104 0.870269 10.252 26.0967
602 2 2.2208 2.37864 11.8749 24.8286
604 2 2.2208 2.55208 8.88879 22.0511
606 1 -1.1104 3.88982 10.6108 23.432
608 1 -1.1104 3.71085 10.3656 26.221
642 1 -1.1104 3.72192 13.5424 23.6099
646 1 -1.1104 0.807022 13.0639 26.3789
652 1 -1.1104 0.947984 13.2168 23.4665
657 1 -1.1104 3.73474 13.1078 26.3675
9315 2 2.2208 2.15814 -5.21902 19.3545
466 1 -1.1104 6.48185 13.4045 20.614
641 1 -1.1104 6.58813 13.3145 26.1491
677 2 2.2208 7.90082 17.4244 24.8183
614 2 2.2208 -0.363406 11.9187 21.825
496 1 -1.1104 12.0871 13.1233 20.3439
508 1 -1.1104 9.28633 13.0425 20.8218
636 2 2.2208 10.924 11.8592 27.5706
10048 2 2.2208 13.6236 8.74851 21.9656
594 1 -1.1104 6.79733 10.4279 23.3947
599 1 -1.1104 6.47181 10.324 26.3318
650 1 -1.1104 6.51051 13.2086 23.4913
679 1 -1.1104 9.25527 13.1822 23.3425
675 1 -1.1104 9.4618 13.4877 26.3458
616 1 -1.1104 9.34168 10.5889 26.136
618 1 -1.1104 9.51273 10.4583 23.1869
620 2 2.2208 8.11498 8.94162 22.0222
622 2 2.2208 7.98266 11.9255 24.6444
625 2 2.2208 10.7469 11.729 21.7783
629 1 -1.1104 12.2426 10.2241 23.3222
630 2 2.2208 10.8308 8.88114 24.7767
632 1 -1.1104 12.1351 10.141 26.3497
548 1 -1.1104 12.342 13.1625 23.431
550 1 -1.1104 12.2959 13.1352 26.065
545 2 2.2208 2.45739 -2.13342 27.6605
9969 2 2.2208 -0.35941 17.3074 16.1897
674 1 -1.1104 9.07704 18.6252 26.4262
483 1 -1.1104 3.53611 18.6914 20.4699
519 2 2.2208 13.6471 17.5107 24.8466
662 2 2.2208 2.46489 14.62 22.0425
9928 2 2.2208 13.446 17.4079 19.1329
488 1 -1.1104 3.84532 16.0629 20.7224
640 1 -1.1104 3.44254 18.8824 23.4
644 1 -1.1104 1.05544 18.8177 26.3945
645 1 -1.1104 1.12651 16.1259 26.5149
648 2 2.2208 5.08804 20.2675 24.9289
649 2 2.2208 5.13119 14.5339 24.9419
651 1 -1.1104 0.808671 18.9426 23.4205
653 2 2.2208 5.16153 17.5414 22.1823
654 1 -1.1104 3.74538 18.9071 26.306
655 2 2.2208 2.27819 17.4911 24.8045
656 1 -1.1104 3.78622 16.0994 26.4029
659 1 -1.1104 0.889262 15.9265 23.4974
660 1 -1.1104 3.76111 16.0257 23.4645
661 2 2.2208 2.02306 20.3299 21.9968
643 1 -1.1104 6.64104 16.3383 26.3295
9858 2 2.2208 13.528 11.6998 19.134
9780 2 2.2208 13.6814 20.2912 22.0411
547 2 2.2208 10.7057 17.3561 22.0803
638 2 2.2208 13.5163 8.82838 27.5828
580 1 -1.1104 12.2055 15.9243 26.1405
577 1 -1.1104 12.1052 15.8433 23.1663
647 1 -1.1104 6.6834 18.8893 23.5632
579 2 2.2208 10.6909 20.2976 25.0286
671 1 -1.1104 9.25379 16.1962 23.6142
670 1 -1.1104 9.45129 16.1025 26.3844
678 1 -1.1104 9.4455 19.0963 23.619
549 1 -1.1104 12.2778 18.6756 23.2652
672 2 2.2208 7.93871 20.3761 22.2661
673 2 2.2208 7.88389 14.7031 22.0389
578 2 2.2208 10.7845 14.6162 24.809
551 1 -1.1104 12.2005 18.8943 26.52
658 1 -1.1104 6.52262 16.0882 23.4491
676 1 -1.1104 6.37921 18.9355 26.3285
353 2 2.2208 -0.373042 0.407429 16.3131
582 2 2.2208 13.5392 -2.51484 21.9633
635 2 2.2208 7.97383 9.12204 27.5208
609 2 2.2208 5.24267 6.35566 27.6839
453 2 2.2208 8.00102 6.10386 13.7062
663 2 2.2208 2.15258 20.1867 27.6959
680 2 2.2208 5.15121 23.0954 5.00367
682 1 -1.1104 0.854963 24.5175 1.04784
683 1 -1.1104 0.796605 24.4897 3.89281
684 1 -1.1104 0.805535 21.4658 0.90625
686 2 2.2208 5.02179 25.6613 2.18874
687 1 -1.1104 0.785887 21.5178 3.63534
689 1 -1.1104 3.65627 24.4192 0.917253
690 2 2.2208 2.33159 22.9735 2.17967
692 1 -1.1104 3.85147 24.1922 3.83264
693 2 2.2208 2.28858 25.7614 5.1319
694 1 -1.1104 3.73219 21.5912 0.643425
696 1 -1.1104 3.66027 21.3973 3.49553
695 1 -1.1104 3.42978 27.3125 0.861987
697 1 -1.1104 3.75631 27.1006 3.55369
827 1 -1.1104 3.81434 24.3449 6.62309
821 1 -1.1104 0.926182 24.3505 6.54065
824 1 -1.1104 0.7594 27.1486 6.7445
823 1 -1.1104 0.7182 21.5135 6.39518
828 1 -1.1104 3.66118 21.4666 6.27083
971 2 2.2208 -0.436845 40.1091 10.859
1433 1 -1.1104 11.9786 46.8626 0.882588
701 1 -1.1104 6.43439 24.6945 0.889456
702 1 -1.1104 6.63752 24.5844 3.59802
825 1 -1.1104 6.4503 21.5535 6.22512
706 1 -1.1104 6.56462 27.4799 3.59999
703 1 -1.1104 6.49917 21.5985 0.848329
705 1 -1.1104 6.5245 21.5972 3.63734
707 2 2.2208 10.7832 23.1436 4.95286
709 1 -1.1104 12.2282 24.4654 0.747611
710 1 -1.1104 12.0192 24.5856 3.80513
711 1 -1.1104 12.3185 21.8216 0.894033
713 2 2.2208 10.9152 26.0688 2.42238
714 1 -1.1104 12.2539 21.6037 3.7035
716 1 -1.1104 9.4685 24.4626 1.08809
717 2 2.2208 7.90151 23.0077 2.30802
719 1 -1.1104 9.47436 24.5915 3.53057
720 2 2.2208 7.88992 25.9983 5.06272
721 1 -1.1104 9.39744 21.4736 0.670574
723 1 -1.1104 9.40156 21.6101 3.56678
724 1 -1.1104 9.32441 27.3542 3.66282
822 1 -1.1104 6.77326 24.5181 6.27713
854 1 -1.1104 12.0653 24.4764 6.43278
820 2 2.2208 13.6469 40.0501 2.54896
688 1 -1.1104 0.962313 27.2957 3.84241
685 1 -1.1104 0.784357 27.1531 0.867381
829 1 -1.1104 3.48128 27.3465 6.46956
1053 2 2.2208 2.12383 42.7411 -0.398342
681 2 2.2208 5.00877 28.6907 5.15321
691 2 2.2208 2.33082 28.6373 2.29164
729 1 -1.1104 0.703434 30.1307 0.903021
732 1 -1.1104 1.00223 29.9868 3.65406
735 1 -1.1104 0.854527 32.7493 1.10586
736 2 2.2208 5.24137 31.5189 2.46719
738 1 -1.1104 0.869086 32.9118 3.91248
740 1 -1.1104 3.64346 29.9118 0.642733
743 1 -1.1104 3.66592 29.952 3.54061
745 2 2.2208 2.32995 31.3483 5.08071
747 1 -1.1104 3.6322 32.6226 0.88374
748 1 -1.1104 3.90051 32.7438 3.86517
878 1 -1.1104 0.99003 30.1882 6.48612
884 1 -1.1104 3.67149 30.2281 6.63855
886 1 -1.1104 4.03282 33.0843 6.67557
882 1 -1.1104 1.12944 32.9041 6.62813
754 1 -1.1104 6.48063 32.9466 1.06316
1042 2 2.2208 13.5401 25.9199 -0.440811
704 1 -1.1104 6.5894 27.2987 0.861139
722 1 -1.1104 9.51015 27.4549 1.2263
712 1 -1.1104 12.3056 27.4118 0.842879
715 1 -1.1104 12.2611 27.4153 3.73298
856 1 -1.1104 11.965 27.3503 6.52243
859 1 -1.1104 9.07842 27.1814 6.56107
739 1 -1.1104 6.58956 33.122 3.81973
753 1 -1.1104 6.59702 30.37 3.91194
752 1 -1.1104 6.44748 30.2494 0.964802
708 2 2.2208 10.6471 28.7407 5.122
718 2 2.2208 7.98925 28.8612 2.35736
756 1 -1.1104 12.1676 30.3108 0.89284
758 1 -1.1104 12.2511 30.2419 3.8979
760 1 -1.1104 12.2728 32.8868 1.01612
761 2 2.2208 10.813 31.5418 2.36883
763 1 -1.1104 12.2373 32.9777 3.7303
764 1 -1.1104 9.3377 30.1198 1.01642
767 1 -1.1104 9.46702 30.1332 3.87913
769 2 2.2208 8.13051 31.7316 5.35734
771 1 -1.1104 9.38787 32.8598 1.04323
772 1 -1.1104 9.35777 32.9638 3.73268
917 1 -1.1104 9.63481 32.8687 6.53263
883 1 -1.1104 6.79863 33.047 6.61628
880 1 -1.1104 6.39368 30.3088 6.88109
912 1 -1.1104 12.391 30.2723 6.62167
914 1 -1.1104 12.3674 33.2712 6.32475
10481 2 2.2208 13.3828 23.1916 13.6043
728 2 2.2208 5.24249 34.622 5.24091