ITEM: TIMESTEP
20000
ITEM: NUMBER OF ATOMS
17820
ITEM: BOX BOUNDS pp pp pp
-4.4596833949438230e-01 2.7785968339494332e+01
-5.3158977317443874e+00 3.3339589773174907e+02
-4.3062185597750258e-01 2.7770621855977303e+01
ITEM: ATOMS id type q x y z
1 2 2.2208 5.13693 0.183418 5.19465
2 1 -1.1104 0.900593 -3.87459 1.16862
6 1 -1.1104 0.868314 -3.88437 4.00883
10 1 -1.1104 1.05009 -1.07112 0.726228
12 2 2.2208 5.12526 -2.41435 2.54132
14 1 -1.1104 0.899457 -1.35814 3.6519
16 1 -1.1104 4.01095 -3.7676 0.914519
18 2 2.2208 2.23383 0.258534 2.35327
19 1 -1.1104 3.64377 -3.86763 3.85278
21 2 2.2208 2.35972 -2.64411 5.28835
23 1 -1.1104 3.73208 -0.858066 1.03106
24 1 -1.1104 3.5805 -1.08024 3.82691
4 1 -1.1104 6.74865 -3.75319 1.28511
8 1 -1.1104 6.552 -3.8057 4.05515
15 1 -1.1104 6.56526 -0.943997 3.93024
174 1 -1.1104 3.84658 -0.878619 6.63124
168 1 -1.1104 6.66869 -3.82177 6.77249
171 1 -1.1104 6.79592 -1.06267 6.65464
575 2 2.2208 8.08051 -2.58768 -0.325383
11 1 -1.1104 6.62614 -0.938761 1.43434
9621 2 2.2208 13.6514 11.3844 2.61792
392 2 2.2208 10.7494 3.17999 13.7029
31 2 2.2208 10.9269 0.389371 5.39825
32 1 -1.1104 12.1377 -3.91202 1.15791
34 1 -1.1104 12.2568 -3.94602 3.77471
36 1 -1.1104 12.2095 -0.999124 1.02284
37 2 2.2208 10.917 -2.38969 2.49732
39 1 -1.1104 12.4756 -1.20379 3.75889
40 1 -1.1104 9.25235 -3.8331 1.0514
42 2 2.2208 8.10523 0.474252 2.48928
43 1 -1.1104 9.42858 -3.83688 3.68096
45 2 2.2208 8.1655 -2.35137 5.32375
47 1 -1.1104 9.39642 -0.865187 1.02398
48 1 -1.1104 9.75487 -0.831971 3.69269
611 2 2.2208 4.99462 11.5861 -0.410509
665 2 2.2208 2.43078 14.2378 -0.41039
9690 2 2.2208 -0.44742 5.79692 10.8177
3 1 -1.1104 0.970529 1.88447 1.10301
7 1 -1.1104 0.859375 1.57343 3.74393
13 2 2.2208 5.03039 3.16489 2.35346
17 1 -1.1104 3.78054 1.82074 0.771943
20 1 -1.1104 3.6822 1.70478 3.63751
22 2 2.2208 2.37646 2.93505 5.15704
54 2 2.2208 4.94953 5.93714 5.06552
56 1 -1.1104 0.941715 7.4887 1.03774
58 1 -1.1104 0.744018 7.33446 3.5609
60 1 -1.1104 0.859714 4.51664 0.767981
67 1 -1.1104 0.847461 4.50896 3.74502
71 1 -1.1104 3.54526 7.40964 0.721983
72 2 2.2208 2.18392 5.98951 2.30848
74 1 -1.1104 3.67037 7.46325 3.64928
76 1 -1.1104 3.6672 4.48319 0.916133
79 1 -1.1104 3.58818 4.72438 3.68545
9 1 -1.1104 6.47131 1.82977 3.85853
57 1 -1.1104 6.40618 7.03228 0.992106
63 1 -1.1104 6.46623 4.46192 1.05189
59 1 -1.1104 6.19081 7.31519 3.70661
428 2 2.2208 2.2244 11.4225 13.6303
9028 2 2.2208 2.53186 -5.20233 2.32816
236 1 -1.1104 0.790676 4.35826 6.50945
238 1 -1.1104 3.67395 7.30628 6.41656
235 1 -1.1104 6.61826 7.21844 6.51534
169 1 -1.1104 6.67569 1.84038 6.45624
544 2 2.2208 5.32582 0.412069 -0.222856
9488 2 2.2208 13.6363 17.2918 8.15258
69 1 -1.1104 6.52492 4.53942 3.8595
5 1 -1.1104 6.5916 1.54465 1.14607
33 1 -1.1104 12.2951 1.55754 0.911574
35 1 -1.1104 12.2831 1.90582 3.88736
38 2 2.2208 10.9332 3.12048 2.25173
41 1 -1.1104 9.31216 1.67487 1.10731
44 1 -1.1104 9.56046 1.74238 3.97294
46 2 2.2208 8.07549 3.24257 5.26457
84 2 2.2208 10.794 5.84641 5.13171
86 1 -1.1104 12.1318 7.11679 0.940985
87 1 -1.1104 12.1776 7.28056 3.99095
88 1 -1.1104 12.1199 4.43805 0.896181
92 1 -1.1104 12.2015 4.67241 3.59819
94 1 -1.1104 9.47745 7.15618 1.04197
95 2 2.2208 7.90364 5.7305 2.28655
97 1 -1.1104 9.33368 7.09138 3.66741
99 1 -1.1104 9.32825 4.29782 0.902146
102 1 -1.1104 9.33848 4.41361 3.58543
489 2 2.2208 2.28621 17.0806 13.723
9537 2 2.2208 13.5372 19.9155 5.12828
269 1 -1.1104 9.42405 4.49996 6.72996
55 2 2.2208 5.27481 11.4351 5.3846
61 1 -1.1104 0.912951 10.1552 0.794022
66 2 2.2208 5.10517 8.67739 2.3403
68 1 -1.1104 1.04173 10.2311 3.75109
73 2 2.2208 2.54552 11.5398 2.46668
75 2 2.2208 2.27073 8.75151 5.19698
77 1 -1.1104 3.66506 10.2179 1.02408
80 1 -1.1104 3.73883 10.0212 3.86883
107 1 -1.1104 0.887949 12.9271 0.844054
113 1 -1.1104 1.00534 13.0529 3.57924
123 1 -1.1104 3.65854 12.9992 1.12184
128 1 -1.1104 3.66341 12.8916 3.83268
115 1 -1.1104 6.52828 12.8392 4.04453
81 2 2.2208 -0.331081 6.03972 5.19617
70 1 -1.1104 6.54885 10.081 3.66739
64 1 -1.1104 6.26882 9.77056 0.673473
110 1 -1.1104 6.41147 12.7807 1.15276
306 1 -1.1104 6.48289 15.5302 12.3514
124 1 -1.1104 3.96722 12.808 6.54825
62 1 -1.1104 0.715152 9.82117 6.51631
111 1 -1.1104 6.66815 12.7353 6.72815
453 2 2.2208 8.03238 5.93916 13.656
9489 2 2.2208 13.5644 8.72378 5.36938
30 1 -1.1104 12.37 15.953 12.172
610 2 2.2208 2.29946 8.8596 -0.410336
352 2 2.2208 -0.295791 3.1307 13.7185
85 2 2.2208 10.859 11.6632 5.18148
89 1 -1.1104 12.0558 9.82035 1.08621
91 2 2.2208 10.7655 8.4623 2.48984
93 1 -1.1104 12.2758 9.92997 3.80921
96 2 2.2208 7.86502 11.4226 2.32705
98 2 2.2208 7.93146 8.59528 5.01955
100 1 -1.1104 9.18636 10.0203 1.11939
103 1 -1.1104 9.4302 9.84988 4.02744
142 1 -1.1104 12.187 12.6601 1.13304
146 1 -1.1104 12.4016 12.8035 3.81759
153 1 -1.1104 9.28166 12.7538 1.04338
158 1 -1.1104 9.31213 12.8963 3.70346
391 2 2.2208 10.8546 -2.62119 13.6797
130 2 2.2208 2.37925 14.2378 5.21109
106 2 2.2208 5.27417 17.1715 5.43297
109 1 -1.1104 0.867248 18.4774 1.0879
114 1 -1.1104 1.05059 18.61 3.88997
116 1 -1.1104 0.832877 15.7365 1.1342
119 2 2.2208 5.11452 14.4916 2.49294
120 2 2.2208 5.12877 19.852 2.44627
121 1 -1.1104 1.09494 15.7349 3.93337
125 1 -1.1104 3.719 18.3709 1.05479
127 2 2.2208 2.2785 17.1734 2.65454
129 1 -1.1104 3.71565 18.5461 3.84454
131 2 2.2208 2.32014 19.9821 5.35046
132 1 -1.1104 3.76284 15.7324 1.19802
134 1 -1.1104 4.01218 15.7145 3.99158
122 1 -1.1104 6.67452 15.7205 3.94452
139 1 -1.1104 6.62291 18.4849 3.95006
138 1 -1.1104 6.54322 18.599 1.16562
140 1 -1.1104 6.36213 15.6502 1.11943
25 2 2.2208 -0.518192 -2.57309 2.39422
490 2 2.2208 5.1112 19.7985 13.5958
389 2 2.2208 7.95151 19.8466 -0.238489
386 2 2.2208 7.88671 14.1881 -0.410874
358 2 2.2208 2.2394 0.336459 13.5768
9038 2 2.2208 10.9311 -5.23171 10.6933
51 2 2.2208 10.7627 14.2556 8.2114
150 2 2.2208 10.702 14.1306 2.2447
160 2 2.2208 7.86841 14.2236 5.24419
141 2 2.2208 10.9188 17.0946 5.39167
144 1 -1.1104 12.1435 18.3448 0.799938
147 1 -1.1104 12.2456 18.5262 3.77948
148 1 -1.1104 12.1709 15.4313 0.842993
151 2 2.2208 10.9221 19.9888 2.35015
152 1 -1.1104 11.9972 15.4352 3.68198
155 1 -1.1104 9.23424 18.3277 0.990583
157 2 2.2208 7.95766 17.1305 2.6332
159 1 -1.1104 9.23377 18.6228 3.7778
161 2 2.2208 8.04926 20.1372 5.10749
162 1 -1.1104 9.18304 15.8527 1.01194
164 1 -1.1104 9.24132 15.7266 3.96142
638 2 2.2208 13.4916 8.67489 -0.282315
170 1 -1.1104 0.965299 -1.10197 6.28274
172 1 -1.1104 3.98006 -3.91246 6.62747
166 1 -1.1104 1.02069 -3.83822 6.82235
175 2 2.2208 5.1764 0.372525 10.8278
176 1 -1.1104 1.21063 -3.97977 12.3109
180 1 -1.1104 0.998097 -3.93529 9.53804
184 1 -1.1104 0.969197 -0.980748 12.2062
186 2 2.2208 5.38674 -2.49029 8.14147
188 1 -1.1104 1.11482 -1.13136 9.26679
190 1 -1.1104 3.94669 -3.78707 12.1663
192 2 2.2208 2.34398 0.305414 8.06412
193 1 -1.1104 3.95821 -3.91884 9.35267
195 2 2.2208 2.38096 -2.4723 10.946
197 1 -1.1104 3.68009 -1.09041 12.2751
198 1 -1.1104 3.90075 -1.25802 9.43356
178 1 -1.1104 6.67408 -3.75963 12.1231
9031 2 2.2208 8.07545 -5.17848 2.54244
185 1 -1.1104 6.67971 -1.00339 12.2232
182 1 -1.1104 6.83834 -4.03874 9.48998
210 1 -1.1104 9.6419 -1.12792 6.62375
207 1 -1.1104 12.3979 -0.89704 6.46583
208 1 -1.1104 9.6591 -3.79423 6.63275
205 1 -1.1104 12.3665 -3.96738 6.67178
189 1 -1.1104 6.62034 -1.18618 9.54885
211 2 2.2208 10.9402 0.381034 10.8285
212 1 -1.1104 12.3893 -3.911 12.5253
214 1 -1.1104 12.2207 -3.85674 9.39602
216 1 -1.1104 12.2963 -1.04359 12.4182
217 2 2.2208 10.9695 -2.43053 7.88494
219 1 -1.1104 12.5037 -1.06794 9.58503
220 1 -1.1104 9.59642 -3.89421 12.2515
222 2 2.2208 8.04091 0.442102 7.95517
223 1 -1.1104 9.55444 -3.58827 9.33496
225 2 2.2208 8.19018 -2.43379 10.8851
227 1 -1.1104 9.61082 -1.06117 12.2433
228 1 -1.1104 9.54993 -0.803918 9.32026
201 2 2.2208 -0.325085 0.253757 10.9083
314 1 -1.1104 9.54056 15.6755 9.40765
9487 2 2.2208 13.648 5.84958 2.47396
9558 2 2.2208 13.5927 14.2923 5.36836
167 1 -1.1104 0.994669 1.78429 6.64175
234 1 -1.1104 0.843995 7.27325 6.61601
173 1 -1.1104 3.97545 1.76622 6.74966
239 1 -1.1104 3.51678 4.48432 6.37143
177 1 -1.1104 0.962464 1.67511 12.1562
181 1 -1.1104 1.0275 1.83175 9.22727
187 2 2.2208 5.32389 3.16911 7.96793
191 1 -1.1104 3.72935 1.60338 12.2518
194 1 -1.1104 3.64448 1.52588 9.56793
196 2 2.2208 2.44213 3.07779 10.7413
240 2 2.2208 5.2241 5.91528 10.8584
242 1 -1.1104 1.09963 7.30797 12.2386
246 1 -1.1104 0.964822 4.47885 12.1755
251 1 -1.1104 1.00352 4.61936 9.42603
255 1 -1.1104 4.05139 7.13718 12.308
256 2 2.2208 2.31105 5.99682 7.90154
258 1 -1.1104 3.73409 7.45477 9.32482
260 1 -1.1104 3.77296 4.36127 12.1594
262 1 -1.1104 3.90474 4.54188 9.26993
244 1 -1.1104 0.757845 7.62938 9.38289
183 1 -1.1104 6.38684 1.71543 9.39368
237 1 -1.1104 6.50451 4.5225 6.56137
245 1 -1.1104 6.45768 7.15763 9.41539
243 1 -1.1104 6.58256 7.21082 12.1691
316 2 2.2208 8.09551 19.7987 10.9915
9029 2 2.2208 5.26437 -5.27616 5.32152
581 2 2.2208 13.5952 -2.44256 -0.224076
253 1 -1.1104 6.56221 4.45887 9.45703
179 1 -1.1104 6.29424 1.62173 12.4713
265 1 -1.1104 11.9245 7.26508 6.75872
209 1 -1.1104 9.43117 1.87418 6.73534
267 1 -1.1104 9.20084 7.31392 6.54096
206 1 -1.1104 12.1585 2.04751 6.57703
266 1 -1.1104 12.3983 4.68034 6.80121
248 1 -1.1104 6.64151 4.34319 12.2403
213 1 -1.1104 12.0795 1.86891 12.2086
215 1 -1.1104 12.1978 1.84783 9.28313
218 2 2.2208 10.8797 3.25353 8.12054
221 1 -1.1104 9.32652 1.72462 12.2138
224 1 -1.1104 9.26669 1.87326 9.44767
226 2 2.2208 7.94608 2.94716 10.8725
268 1 -1.1104 9.46994 4.63764 9.46639
271 1 -1.1104 9.48111 4.61698 12.5639
273 1 -1.1104 9.34935 7.25295 9.40437
275 2 2.2208 7.92567 5.92246 7.92054
276 2 2.2208 10.9548 5.98756 10.828
279 1 -1.1104 12.3729 7.2544 9.35476
280 1 -1.1104 12.2238 4.6661 12.2171
283 1 -1.1104 12.2486 4.58085 9.5878
285 1 -1.1104 9.42519 7.30775 12.2534
278 1 -1.1104 12.2321 7.36021 12.3202
315 1 -1.1104 9.56686 15.6193 12.2871
288 1 -1.1104 6.73342 18.5708 9.51603
65 1 -1.1104 6.68093 9.83931 6.50615
108 1 -1.1104 1.29311 12.3814 6.27309
78 1 -1.1104 3.95469 10.0241 6.6181
241 2 2.2208 5.22292 11.5182 10.8132
247 1 -1.1104 0.619907 10.1728 12.3358
250 2 2.2208 5.35693 8.76065 7.96927
252 1 -1.1104 1.03537 10.152 9.44273
257 2 2.2208 2.42897 11.5406 8.0524
259 2 2.2208 2.36198 8.78682 10.7986
261 1 -1.1104 3.45153 9.96288 12.3681
263 1 -1.1104 3.99838 10.0306 9.27621
287 1 -1.1104 3.5971 12.5115 12.0377
294 1 -1.1104 1.06948 13.0394 9.15088
299 1 -1.1104 1.01066 13.1308 12.0485
305 1 -1.1104 3.96164 12.6417 9.36245
249 1 -1.1104 6.572 9.97496 12.0883
254 1 -1.1104 6.79776 10.0898 9.37934
297 1 -1.1104 6.53693 12.8135 12.1064
290 1 -1.1104 6.60697 13.1553 9.4981
295 2 2.2208 5.27087 14.4439 8.05062
230 2 2.2208 13.7164 -2.40827 10.8915
143 1 -1.1104 12.1637 13.0314 6.825
154 1 -1.1104 9.32451 13.0138 6.82597
90 1 -1.1104 12.2934 10.2837 6.51982
101 1 -1.1104 9.41491 10.3984 6.82149
312 1 -1.1104 12.3071 12.8722 9.48826
231 1 -1.1104 9.37041 12.7395 9.70893
264 1 -1.1104 9.48371 10.0597 9.60174
270 1 -1.1104 9.30178 10.032 12.4523
272 2 2.2208 7.91766 8.64924 10.7139
274 2 2.2208 8.066 11.6945 8.28264
277 2 2.2208 10.7634 11.4543 10.8847
281 1 -1.1104 12.5075 10.2926 12.2305
282 2 2.2208 10.7266 8.89888 8.0201
284 1 -1.1104 12.1885 10.0022 9.42623
202 1 -1.1104 9.28704 12.9598 12.4482
105 1 -1.1104 12.271 13.2145 12.2782
133 1 -1.1104 3.75878 15.6701 6.61397
126 1 -1.1104 3.62207 18.5384 6.5711
296 1 -1.1104 6.72352 18.3725 12.3772
118 1 -1.1104 6.51755 15.6656 6.65457
112 1 -1.1104 6.65026 18.6029 6.64044
302 1 -1.1104 0.822313 18.5165 6.67073
289 1 -1.1104 6.71747 15.6638 9.347
117 1 -1.1104 1.11539 15.526 6.72555
310 2 2.2208 2.49856 14.218 10.7135
286 1 -1.1104 3.77049 18.3633 12.1264
291 1 -1.1104 0.849244 18.6036 9.26259
292 1 -1.1104 1.15366 15.7656 9.48551
293 2 2.2208 5.17699 20.0782 8.38444
298 1 -1.1104 0.896026 18.5922 12.3001
300 2 2.2208 5.21357 17.0162 10.7893
301 1 -1.1104 3.918 18.5868 9.28777
303 2 2.2208 2.38922 17.2638 8.10935
304 1 -1.1104 4.06873 15.5602 9.61036
307 1 -1.1104 0.910749 15.7387 12.3102
308 1 -1.1104 3.75826 15.7208 12.304
309 2 2.2208 2.13899 20.0051 10.858
200 2 2.2208 -0.520996 -2.51251 8.08251
233 2 2.2208 8.04282 14.2255 10.9473
163 1 -1.1104 9.2788 15.7957 6.50022
232 1 -1.1104 9.60167 18.5345 9.40639
204 2 2.2208 8.05641 17.2344 7.97312
52 2 2.2208 10.8873 19.9009 8.06373
29 1 -1.1104 12.4763 18.3889 9.68778
145 1 -1.1104 12.3549 18.52 6.67517
165 1 -1.1104 12.367 18.7282 12.4728
149 1 -1.1104 12.2676 15.7393 6.68276
104 2 2.2208 10.9149 17.1199 11.0002
9462 2 2.2208 13.5528 16.9538 2.20729
53 1 -1.1104 12.3286 15.7194 9.49354
156 1 -1.1104 9.50291 18.5054 6.67187
203 1 -1.1104 9.57381 18.6168 12.1101
9620 2 2.2208 13.6568 14.3324 10.7
664 2 2.2208 5.09999 16.9672 -0.297443
426 2 2.2208 2.32312 5.81444 13.5456
357 2 2.2208 5.29441 -2.4168 13.6505
576 2 2.2208 7.87487 3.25098 -0.423829
663 2 2.2208 2.21599 19.9455 -0.344361
317 2 2.2208 5.18119 0.134991 16.3035
318 1 -1.1104 1.11513 -4.0782 17.7664
322 1 -1.1104 0.716305 -4.22678 14.9505
330 1 -1.1104 1.06236 -1.10974 17.9715
332 2 2.2208 5.12565 -2.35814 19.4821
334 1 -1.1104 0.983335 -1.27028 14.9926
338 1 -1.1104 3.8765 -3.69244 17.9517
340 2 2.2208 2.431 0.320503 19.3301
341 1 -1.1104 3.9639 -3.66937 15.0202
345 2 2.2208 2.48998 -2.42979 16.4327
347 1 -1.1104 3.70119 -1.00998 17.9523
348 1 -1.1104 3.79247 -1.05939 15.0609
9092 2 2.2208 2.38741 -5.22867 25.0255
326 1 -1.1104 6.71093 -3.74021 15.0896
519 2 2.2208 13.5879 17.0354 24.9566
335 1 -1.1104 0.837464 -1.09252 20.8638
9126 2 2.2208 5.0143 -5.35121 22.2654
516 2 2.2208 10.7783 19.8327 13.8512
320 1 -1.1104 6.73816 -3.89547 18.142
331 1 -1.1104 6.55591 -1.04635 17.8867
336 1 -1.1104 6.72254 -1.12953 15.0786
360 2 2.2208 10.8128 0.258417 16.6094
361 1 -1.1104 12.6176 -3.88184 17.5785
363 1 -1.1104 12.3287 -3.70108 15.1551
367 1 -1.1104 12.2391 -1.06219 18.06
368 2 2.2208 10.845 -2.44382 19.4314
370 1 -1.1104 12.381 -0.87246 15.4423
372 1 -1.1104 9.61378 -3.94719 17.9836
374 2 2.2208 7.93703 0.40994 19.3542
375 1 -1.1104 9.59034 -3.76528 15.1298
379 2 2.2208 8.11213 -2.37154 16.5038
381 1 -1.1104 9.58518 -1.18156 17.9114
382 1 -1.1104 9.5261 -1.13919 15.0872
9288 2 2.2208 10.9902 -5.33858 16.4288
364 1 -1.1104 12.2033 -3.63996 20.6744
376 1 -1.1104 9.31659 -3.98486 20.8714
383 1 -1.1104 9.30817 -1.06652 20.7953
9989 2 2.2208 13.8602 3.01071 22.4429
354 2 2.2208 -0.349683 -2.46616 19.3857
9857 2 2.2208 13.612 5.798 19.2552
319 1 -1.1104 1.02605 1.74026 17.896
324 1 -1.1104 0.903703 1.63333 15.0241
333 2 2.2208 5.0758 3.15587 19.2755
339 1 -1.1104 3.90701 1.66838 17.8115
343 1 -1.1104 3.88948 1.59613 15.023
346 2 2.2208 2.41111 3.02561 16.2962
393 2 2.2208 5.12683 5.94141 16.4678
395 1 -1.1104 0.898514 7.26066 17.9522
397 1 -1.1104 0.831002 7.12321 14.9483
401 1 -1.1104 0.886159 4.36487 17.6303
406 1 -1.1104 1.00559 4.45164 14.9711
414 1 -1.1104 3.53081 7.26577 17.9627
415 2 2.2208 2.23893 5.82083 19.2634
420 1 -1.1104 3.80767 4.41258 17.8411
422 1 -1.1104 3.79823 4.69856 14.9528
417 1 -1.1104 3.60099 7.44321 15.1611
325 1 -1.1104 0.933756 1.5593 20.6637
328 1 -1.1104 6.72681 1.69924 15.2911
321 1 -1.1104 6.70299 1.80043 18.173
396 1 -1.1104 6.5422 7.33394 17.953
410 1 -1.1104 6.571 4.48288 15.2
403 1 -1.1104 6.5491 4.6125 17.8824
418 1 -1.1104 3.7815 7.32738 20.6488
423 1 -1.1104 3.67416 4.51467 20.9008
329 1 -1.1104 6.6275 1.80858 20.7291
582 2 2.2208 13.5275 -2.51944 22.1251
9781 2 2.2208 13.3695 14.4419 22.1956
678 1 -1.1104 9.18483 18.4754 23.5531
577 1 -1.1104 12.0211 15.7455 23.5672
9289 2 2.2208 13.5812 -5.25671 19.264
399 1 -1.1104 6.4711 7.14932 15.0295
362 1 -1.1104 12.1894 1.6296 17.8801
365 1 -1.1104 12.4392 1.82581 14.9297
369 2 2.2208 10.9151 2.93893 19.3141
373 1 -1.1104 9.40934 1.45835 17.8272
377 1 -1.1104 9.47672 1.75105 14.9559
380 2 2.2208 8.01219 3.13726 16.6402
429 2 2.2208 10.7325 5.84771 16.5295
431 1 -1.1104 12.1347 7.14184 17.9885
432 1 -1.1104 12.2106 7.48612 15.2031
434 1 -1.1104 12.1733 4.39502 17.959
437 1 -1.1104 12.0523 4.69464 15.0616
441 1 -1.1104 9.38702 7.21328 17.8942
442 2 2.2208 7.93934 5.81057 19.3635
447 1 -1.1104 9.45387 4.34002 17.935
449 1 -1.1104 9.41144 4.4157 15.0803
444 1 -1.1104 9.44276 7.34922 15.1039
438 1 -1.1104 12.2714 4.487 20.6226
9089 2 2.2208 10.9898 -5.27419 22.2078
394 2 2.2208 5.17219 11.422 16.5195
402 1 -1.1104 0.962637 10.058 18.1476
405 2 2.2208 5.32685 8.74212 19.3032
408 1 -1.1104 1.07686 10.006 15.1094
416 2 2.2208 2.32446 11.488 19.2398
419 2 2.2208 2.16561 8.65148 16.5944
421 1 -1.1104 3.75419 10.1949 17.9496
424 1 -1.1104 3.58605 10.2724 15.2086
457 1 -1.1104 1.03526 12.9922 17.8366
461 1 -1.1104 0.809895 12.9884 15.2233
477 1 -1.1104 3.93511 13.0248 17.4865
480 1 -1.1104 3.57102 13.0513 14.5777
404 1 -1.1104 6.47267 10.0963 17.8521
459 1 -1.1104 6.75782 12.8044 17.8503
9788 2 2.2208 13.6999 0.296872 19.4789
412 1 -1.1104 6.5646 9.99646 14.9176
409 1 -1.1104 0.790105 9.86413 20.9456
635 2 2.2208 7.92575 8.60023 27.7899
9199 2 2.2208 8.1337 -5.05607 19.5756
465 1 -1.1104 6.6434 12.7894 15.1389
9316 2 2.2208 5.41189 -5.24206 16.6162
430 2 2.2208 10.6922 11.4928 16.8088
435 1 -1.1104 12.1148 10.1021 18.0617
436 2 2.2208 10.8681 8.65185 19.2704
439 1 -1.1104 12.2209 10.1912 15.121
443 2 2.2208 7.94653 11.5493 19.467
446 2 2.2208 8.05347 8.75153 16.4235
448 1 -1.1104 9.19895 9.98206 18.0821
451 1 -1.1104 9.51474 10.0688 15.2122
493 1 -1.1104 12.056 12.9851 17.9087
495 1 -1.1104 12.2538 12.9265 15.294
504 1 -1.1104 9.4323 12.9944 18.0286
507 1 -1.1104 9.31906 12.8051 15.2556
9315 2 2.2208 2.48876 -5.30258 19.3046
390 2 2.2208 8.13593 0.169614 13.755
9317 2 2.2208 -0.494356 -5.14848 16.5563
574 2 2.2208 10.8329 0.553851 27.806
484 2 2.2208 2.13833 14.4775 16.4866
471 2 2.2208 5.18291 14.35 19.1336
456 2 2.2208 5.29259 17.2197 16.5576
458 1 -1.1104 0.923336 18.3825 17.8786
463 1 -1.1104 0.916861 18.3309 15.297
469 1 -1.1104 0.717293 15.5566 17.9325
472 2 2.2208 5.16934 19.7704 19.3472
473 1 -1.1104 0.734864 15.7303 14.9554
478 1 -1.1104 3.8317 18.3941 17.9923
479 2 2.2208 2.2491 16.9763 19.3024
482 1 -1.1104 3.80782 18.5397 15.0081
485 2 2.2208 2.22378 19.8316 16.3466
486 1 -1.1104 3.70868 15.6817 17.922
487 1 -1.1104 3.5468 15.8069 15.0334
475 1 -1.1104 6.51879 15.6864 15.1143
460 1 -1.1104 6.75034 18.482 17.8823
470 1 -1.1104 6.68794 15.7367 17.7913
385 2 2.2208 13.6191 14.2328 27.7732
9290 2 2.2208 2.49194 -5.33219 13.6839
677 2 2.2208 7.92608 17.0915 24.8874
639 2 2.2208 13.6713 5.88581 25.0479
9855 2 2.2208 13.589 6.02902 13.8757
467 1 -1.1104 6.45783 18.4388 15.1179
500 2 2.2208 10.7765 14.3175 19.4585
492 2 2.2208 10.7967 17.0483 16.5637
494 1 -1.1104 12.2961 18.4738 17.9373
497 1 -1.1104 12.151 18.4665 15.2045
499 1 -1.1104 12.2388 15.704 18.1965
501 2 2.2208 10.7114 19.8368 19.2921
502 1 -1.1104 12.0549 15.6522 15.126
505 1 -1.1104 9.38696 18.4703 17.8594
506 2 2.2208 7.93082 17.175 19.285
509 1 -1.1104 9.29421 18.4887 15.0299
511 2 2.2208 8.1303 14.1755 16.573
512 2 2.2208 7.82605 19.9627 16.4733
513 1 -1.1104 9.57929 15.8719 18.0037
514 1 -1.1104 9.45703 15.5726 15.0941
517 2 2.2208 10.8363 14.3709 13.8239
636 2 2.2208 10.7736 11.3446 27.8205
614 2 2.2208 -0.401296 11.5853 21.9726
578 2 2.2208 10.8876 14.211 25.0566
491 2 2.2208 5.06227 14.3744 13.7233
323 1 -1.1104 0.910364 -3.88409 20.5742
349 1 -1.1104 3.72207 -1.05087 20.9123
342 1 -1.1104 3.81303 -3.86022 20.8815
520 2 2.2208 5.15881 0.302416 22.0977
521 1 -1.1104 0.889713 -3.94151 23.9028
525 1 -1.1104 0.886744 -4.13076 26.5098
529 1 -1.1104 0.90934 -1.26092 23.5557
531 2 2.2208 5.27557 -2.32096 25.1073
533 1 -1.1104 0.994688 -1.18379 26.2847
535 1 -1.1104 3.79324 -3.871 23.5932
537 2 2.2208 2.36435 0.0321734 24.9309
538 1 -1.1104 3.92693 -3.84565 26.3623
540 2 2.2208 2.14178 -2.50497 22.1899
542 1 -1.1104 3.81042 -1.08944 23.6865
543 1 -1.1104 3.87791 -1.12164 26.3886
523 1 -1.1104 6.58226 -3.68012 23.6267
534 1 -1.1104 6.59417 -1.05638 26.6369
553 2 2.2208 -0.539533 -2.52608 25.0555
351 2 2.2208 -0.488076 19.7449 19.2819
327 1 -1.1104 6.55363 -3.55579 20.8445
527 1 -1.1104 6.65084 -3.80019 26.4349
337 1 -1.1104 6.50694 -0.86543 20.7838
530 1 -1.1104 6.51762 -1.01006 23.5848
371 1 -1.1104 12.2176 -0.800817 20.8507
556 2 2.2208 10.6797 0.0228948 22.3446
557 1 -1.1104 12.2292 -3.94488 23.7521
559 1 -1.1104 12.3216 -3.8186 26.4555
561 1 -1.1104 12.1971 -1.2337 23.67
562 2 2.2208 10.8732 -2.41175 25.0648
564 1 -1.1104 12.3019 -0.980407 26.3714
565 1 -1.1104 9.40906 -3.79581 23.6474
567 2 2.2208 8.02383 0.231102 25.0621
568 1 -1.1104 9.26991 -4.13085 26.4118
570 2 2.2208 8.0155 -2.32348 22.2982
572 1 -1.1104 9.42554 -1.2559 23.6106
573 1 -1.1104 9.40436 -1.04779 26.4607
398 1 -1.1104 0.751441 7.0402 20.6866
400 1 -1.1104 6.59599 7.28127 20.8056
407 1 -1.1104 1.04224 4.16148 20.4911
344 1 -1.1104 3.86294 1.66553 20.6755
522 1 -1.1104 0.860063 1.56582 23.663
526 1 -1.1104 0.793287 1.50561 26.4937
532 2 2.2208 5.06584 2.94212 24.9821
536 1 -1.1104 3.83383 1.65021 23.3046
539 1 -1.1104 3.83901 1.52315 26.1489
541 2 2.2208 2.1823 2.83884 22.1227
585 2 2.2208 5.06524 5.88839 22.2293
587 1 -1.1104 0.83216 6.96196 23.421
591 1 -1.1104 0.993115 4.19504 23.2991
596 1 -1.1104 0.968209 4.41373 26.2157
600 1 -1.1104 3.61712 7.17376 23.3746
601 2 2.2208 2.27209 5.81124 24.8147
603 1 -1.1104 3.47381 7.57378 26.1922
605 1 -1.1104 3.68299 4.36491 23.6714
607 1 -1.1104 3.69915 4.53052 26.2658
589 1 -1.1104 0.811694 7.40208 26.5429
590 1 -1.1104 6.52765 7.25451 26.5536
593 1 -1.1104 6.45387 4.54125 23.7515
528 1 -1.1104 6.79585 1.65569 26.4482
524 1 -1.1104 6.79164 1.8526 23.7574
411 1 -1.1104 6.42088 4.51114 20.6318
598 1 -1.1104 6.42406 4.34253 26.4241
588 1 -1.1104 6.52321 7.33339 23.644
468 1 -1.1104 6.69739 18.5294 20.6951
549 1 -1.1104 12.1701 18.5869 23.6061
366 1 -1.1104 12.515 1.69787 20.7361
450 1 -1.1104 9.43933 4.64576 20.6046
637 2 2.2208 13.7098 11.4286 24.8862
445 1 -1.1104 9.24861 7.37621 20.643
378 1 -1.1104 9.55689 1.63405 20.7443
433 1 -1.1104 12.1914 7.17647 20.8072
558 1 -1.1104 12.2057 1.59288 23.4379
560 1 -1.1104 12.3088 1.68158 26.1855
563 2 2.2208 10.7832 3.15364 24.943
566 1 -1.1104 9.4765 1.58353 23.639
569 1 -1.1104 9.66634 1.84745 26.5468
571 2 2.2208 7.88063 3.11979 22.1901
617 1 -1.1104 9.10988 4.60716 26.3781
619 1 -1.1104 9.36762 4.55266 23.619
621 1 -1.1104 9.39067 7.15613 26.3958
623 2 2.2208 8.03374 6.03552 24.9284
624 2 2.2208 10.8814 5.88228 22.0095
626 1 -1.1104 12.2326 7.05727 23.5888
627 1 -1.1104 12.1007 7.27472 26.2863
628 1 -1.1104 12.1971 4.34162 23.5312
631 1 -1.1104 12.3254 4.44941 26.3455
633 1 -1.1104 9.48608 7.20922 23.4011
481 1 -1.1104 3.97405 12.8331 20.4896
466 1 -1.1104 6.84061 13.2194 20.5058
425 1 -1.1104 3.5117 10.4045 20.6371
462 1 -1.1104 1.04449 12.9662 20.4578
586 2 2.2208 5.07599 11.5472 22.05
592 1 -1.1104 1.06411 9.78835 23.7938
595 2 2.2208 5.14108 8.60392 24.9478
597 1 -1.1104 1.01536 10.0269 26.3131
602 2 2.2208 2.42189 11.3576 24.8847
604 2 2.2208 2.232 8.67858 22.0013
606 1 -1.1104 3.92568 10.0598 23.3208
608 1 -1.1104 3.90044 10.2675 26.1296
642 1 -1.1104 3.81514 12.903 23.4166
646 1 -1.1104 0.86661 12.6648 26.0728
652 1 -1.1104 1.15407 12.8353 23.4836
657 1 -1.1104 3.75302 12.9043 26.5045
413 1 -1.1104 6.47654 10.2552 20.6447
641 1 -1.1104 6.60497 12.6878 26.4013
594 1 -1.1104 6.58345 10.1058 23.4149
650 1 -1.1104 6.72126 12.8316 23.3922
599 1 -1.1104 6.64135 9.97991 26.1787
662 2 2.2208 2.40965 14.313 22.1108
673 2 2.2208 7.89777 14.2462 22.1595
496 1 -1.1104 12.2415 12.9859 20.7827
440 1 -1.1104 12.075 10.0503 20.9516
452 1 -1.1104 9.42989 9.96939 20.8231
508 1 -1.1104 9.62462 12.7943 20.9228
679 1 -1.1104 9.35238 12.6685 23.6582
675 1 -1.1104 9.50308 12.7994 26.5731
616 1 -1.1104 9.37727 9.96858 26.2938
618 1 -1.1104 9.29785 10.0475 23.4385
620 2 2.2208 7.89983 8.60788 22.2129
622 2 2.2208 7.99495 11.573 25.0265
625 2 2.2208 10.7878 11.2654 22.2074
629 1 -1.1104 12.3117 9.74527 23.7979
630 2 2.2208 10.6987 8.60012 24.9199
632 1 -1.1104 12.0703 10.0966 26.5861
548 1 -1.1104 12.1616 12.7949 23.5688
550 1 -1.1104 12.1267 12.8961 26.4965
9856 2 2.2208 13.5418 8.70025 16.5055
647 1 -1.1104 6.5657 18.4522 23.4222
488 1 -1.1104 3.70122 15.856 20.6853
476 1 -1.1104 6.41271 15.7863 20.5502
658 1 -1.1104 6.39141 15.7657 23.5458
661 2 2.2208 2.11605 19.8405 22.2729
643 1 -1.1104 6.43476 15.5255 26.4902
483 1 -1.1104 3.86722 18.6264 20.9311
676 1 -1.1104 6.4496 18.3184 26.1535
464 1 -1.1104 0.94048 18.3847 20.7789
649 2 2.2208 5.1282 14.1421 24.9422
474 1 -1.1104 0.637957 15.615 20.7626
640 1 -1.1104 3.51565 18.4638 23.5142
644 1 -1.1104 0.856745 18.3152 26.6752
645 1 -1.1104 0.735413 15.4545 26.4819
648 2 2.2208 5.04773 19.6589 24.9558
651 1 -1.1104 0.859193 18.5053 23.6969
653 2 2.2208 5.12629 17.0948 22.2309
654 1 -1.1104 3.64026 18.4141 26.3538
655 2 2.2208 2.07399 17.0312 25.0423
656 1 -1.1104 3.715 15.6025 26.3135
659 1 -1.1104 0.985683 15.4254 23.6891
660 1 -1.1104 3.74833 15.4892 23.6714
353 2 2.2208 -0.283791 0.344015 16.4826
671 1 -1.1104 9.33673 15.4843 23.8426
580 1 -1.1104 12.4141 15.6905 26.157
579 2 2.2208 10.6243 19.8144 24.8361
670 1 -1.1104 9.30138 15.6212 26.5371
672 2 2.2208 7.84212 19.7937 22.1729
503 1 -1.1104 12.1772 15.7641 20.7947
515 1 -1.1104 8.97743 15.8955 21.1405
498 1 -1.1104 12.4021 18.5006 20.6967
547 2 2.2208 10.7062 17.178 22.2522
510 1 -1.1104 9.43944 18.4567 20.7674
551 1 -1.1104 11.8289 18.4379 26.254
674 1 -1.1104 9.27672 18.4385 26.3903
454 2 2.2208 10.9682 8.74153 13.8211
350 2 2.2208 -0.477275 5.61443 22.0904
455 2 2.2208 8.083 11.4767 13.7256
9926 2 2.2208 13.5883 14.2769 16.6147
634 2 2.2208 10.8983 5.74925 27.7387
609 2 2.2208 4.94505 5.926 27.7045
10048 2 2.2208 13.5645 8.49637 22.1708
9128 2 2.2208 -0.457143 -5.21193 22.0851
355 2 2.2208 -0.408863 -2.69127 13.7799
9858 2 2.2208 13.4605 11.5819 19.4921
9197 2 2.2208 8.10335 -5.22544 13.8011
427 2 2.2208 5.00387 8.67277 13.6961
359 2 2.2208 5.26799 3.1614 13.8547
384 2 2.2208 13.4679 19.8039 27.5509
546 2 2.2208 2.18673 3.02672 27.5725
518 2 2.2208 7.88058 17.0693 13.843
387 2 2.2208 10.6811 17.2011 27.6537
545 2 2.2208 2.38893 -2.49105 27.7061
9901 2 2.2208 -0.428258 8.61632 13.6609
680 2 2.2208 4.9719 22.707 5.07056
682 1 -1.1104 0.905992 24.118 1.07507
683 1 -1.1104 0.88414 24.1386 3.80358
684 1 -1.1104 0.718288 21.3559 0.868773
686 2 2.2208 5.04009 25.6699 2.37065
687 1 -1.1104 1.07473 21.523 3.91658
689 1 -1.1104 3.72058 24.0542 0.801836
690 2 2.2208 2.32054 22.7042 2.36148
692 1 -1.1104 3.60329 24.009 3.64228
693 2 2.2208 2.38133 25.5326 5.27009
694 1 -1.1104 3.56306 21.2837 1.03307
696 1 -1.1104 3.76586 21.2417 3.83768
695 1 -1.1104 3.4902 26.8871 1.09494
688 1 -1.1104 0.981826 26.9877 3.8691
703 1 -1.1104 6.5883 21.4672 1.04162
701 1 -1.1104 6.49335 24.3007 1.01253
706 1 -1.1104 6.60072 26.907 3.85821
1415 1 -1.1104 3.72711 46.3848 3.85384
702 1 -1.1104 6.58437 24.0949 3.85216
697 1 -1.1104 3.76312 27.0605 3.84294
1391 1 -1.1104 0.883138 46.5318 1.22874
822 1 -1.1104 6.42265 24.2138 6.75103
1043 2 2.2208 10.8606 28.1624 -0.457868
1394 1 -1.1104 6.5103 46.4367 0.948566
1007 2 2.2208 13.5497 39.5631 8.03364
705 1 -1.1104 6.46164 21.1939 3.99403
707 2 2.2208 10.9809 22.7286 5.38494
709 1 -1.1104 12.3424 23.9908 1.08339
710 1 -1.1104 12.0691 24.2502 3.92715
711 1 -1.1104 12.2015 21.2524 0.874556
713 2 2.2208 10.5233 25.6503 2.48781
714 1 -1.1104 12.2918 21.2274 3.69171
716 1 -1.1104 9.4494 24.1013 1.05674
717 2 2.2208 8.05518 22.845 2.41221
719 1 -1.1104 9.40687 23.925 3.78905
720 2 2.2208 7.91174 25.4794 5.48809
721 1 -1.1104 9.33702 21.2545 0.922224
723 1 -1.1104 9.57325 21.2745 3.84881
712 1 -1.1104 11.9088 26.7192 1.02318
722 1 -1.1104 9.10645 26.8035 1.06207
724 1 -1.1104 9.13945 26.9248 4.03982
704 1 -1.1104 6.40289 27.013 0.973523
715 1 -1.1104 12.1558 27.0148 3.85768
1053 2 2.2208 2.43929 42.3197 -0.225678
1029 2 2.2208 10.7219 45.2043 -0.18016
685 1 -1.1104 0.680071 27.0365 0.833532
681 2 2.2208 5.07789 28.4418 5.16957
691 2 2.2208 2.19939 28.4374 2.36523
729 1 -1.1104 0.574984 29.6835 1.07344
732 1 -1.1104 0.907804 29.5707 3.98166
735 1 -1.1104 0.845998 32.3021 0.990064
736 2 2.2208 5.12264 30.9976 2.77052
738 1 -1.1104 0.776747 32.3936 3.99263
740 1 -1.1104 3.44531 29.6963 1.0129
743 1 -1.1104 3.4619 29.6829 3.78758
745 2 2.2208 2.32795 30.989 5.30611
747 1 -1.1104 3.9242 32.5085 1.4625
748 1 -1.1104 3.72602 32.553 4.1034
754 1 -1.1104 6.4605 32.5115 0.865012
739 1 -1.1104 6.5636 32.5706 3.88807
752 1 -1.1104 6.64909 29.7348 1.13324
1045 2 2.2208 2.16463 31.1077 -0.411183
1037 2 2.2208 5.10348 28.279 -0.385617
824 1 -1.1104 0.901234 26.8881 6.61959
1036 2 2.2208 2.14991 25.48 -0.281151
1619 1 -1.1104 12.2727 46.5287 6.78169
753 1 -1.1104 6.52053 29.5103 3.93862
708 2 2.2208 10.6129 28.1809 5.33077
718 2 2.2208 7.8523 28.0862 2.44956
756 1 -1.1104 12.2165 29.6114 0.89114
758 1 -1.1104 12.1548 29.6757 3.98654
760 1 -1.1104 12.0689 32.6826 0.967712
761 2 2.2208 10.8956 31.0478 2.34369
763 1 -1.1104 12.3228 32.578 3.87022
764 1 -1.1104 9.51591 29.6286 1.10807
767 1 -1.1104 9.52982 29.5642 3.78435
769 2 2.2208 8.25456 31.0223 5.14097
771 1 -1.1104 9.2391 32.3344 0.964633
772 1 -1.1104 9.51638 32.5432 3.7334
970 2 2.2208 -0.458256 45.3662 11.0734
1398 1 -1.1104 6.59694 46.5172 3.84539
1050 2 2.2208 7.76432 31.2517 -0.384103
914 1 -1.1104 12.2306 32.5961 6.6599
1436 1 -1.1104 12.1748 46.5643 4.09273
728 2 2.2208 5.13676 34.0702 5.19435
730 1 -1.1104 1.00789 35.094 0.972508
733 1 -1.1104 0.503285 35.1484 3.88252
737 2 2.2208 4.92223 36.6724 2.58119
741 1 -1.1104 3.71555 35.3185 1.12295
742 2 2.2208 2.1771 33.8153 2.3654
744 1 -1.1104 3.3112 35.3681 4.01254
746 2 2.2208 2.19952 36.7063 5.34295
774 2 2.2208 4.94163 39.472 5.32542
780 1 -1.1104 0.761602 37.8675 1.16446
785 1 -1.1104 0.724093 38.1486 3.89835
790 2 2.2208 2.29462 39.6115 2.48664
794 1 -1.1104 3.66751 38.1076 1.11949
796 1 -1.1104 3.55995 38.102 3.81358
731 1 -1.1104 6.38225 35.4264 1.1467
782 1 -1.1104 6.37116 38.0796 1.13661
787 1 -1.1104 6.39442 38.153 4.31774
734 1 -1.1104 6.2806 35.5403 3.7664