ITEM: TIMESTEP
20000
ITEM: NUMBER OF ATOMS
17910
ITEM: BOX BOUNDS pp pp pp
-3.5233768653983161e-01 2.7692337686539595e+01
-4.3909441498892434e+00 3.3247094414988817e+02
-3.5630934884013116e-01 2.7696309348840305e+01
ITEM: ATOMS id type q x y z
1 2 2.2208 5.23688 1.09222 5.16098
2 1 -1.1104 1.17931 -2.8843 1.1657
3 1 -1.1104 1.06374 2.56485 1.12543
6 1 -1.1104 0.919269 -3.18902 4.04608
7 1 -1.1104 1.07382 2.46444 3.92345
10 1 -1.1104 1.02437 -0.258426 1.03787
12 2 2.2208 5.33686 -1.65953 2.40902
13 2 2.2208 5.36639 3.88186 2.376
14 1 -1.1104 0.959272 -0.443896 3.84562
16 1 -1.1104 3.92561 -3.10993 0.945986
17 1 -1.1104 3.90759 2.61032 1.06051
18 2 2.2208 2.47681 1.11341 2.43843
19 1 -1.1104 3.8308 -2.94406 3.77551
20 1 -1.1104 3.84801 2.54546 3.89364
21 2 2.2208 2.40072 -1.68534 5.33286
22 2 2.2208 2.56923 3.93462 5.29059
23 1 -1.1104 3.84362 -0.245929 1.03714
24 1 -1.1104 3.69147 -0.295444 3.79855
9414 2 2.2208 13.5968 3.95756 10.797
5 1 -1.1104 6.77403 2.59496 1.08984
15 1 -1.1104 6.538 -0.295852 3.82836
49 2 2.2208 13.6039 1.17087 2.43419
8 1 -1.1104 6.78033 -3.10274 3.97003
9 1 -1.1104 6.64297 2.47732 3.68338
28 2 2.2208 2.41102 -4.34363 2.56696
143 1 -1.1104 12.1922 13.8259 6.56254
172 1 -1.1104 3.76853 -3.0031 6.56765
173 1 -1.1104 3.9554 2.42329 6.77513
174 1 -1.1104 3.85327 -0.407131 6.6863
169 1 -1.1104 6.72002 2.47637 6.65715
4 1 -1.1104 6.65022 -3.11515 0.987478
11 1 -1.1104 6.65702 -0.265645 0.99908
31 2 2.2208 10.8744 1.01563 5.27116
32 1 -1.1104 12.1992 -3.15253 0.9932
33 1 -1.1104 12.1691 2.61952 1.02688
34 1 -1.1104 12.5322 -3.05983 3.81036
35 1 -1.1104 12.199 2.63795 3.70509
36 1 -1.1104 12.2173 -0.234503 1.05388
37 2 2.2208 10.9035 -1.85697 2.50742
38 2 2.2208 10.8165 4.03797 2.38895
39 1 -1.1104 12.1671 -0.29991 3.91078
40 1 -1.1104 9.45507 -3.05905 1.08044
41 1 -1.1104 9.47448 2.62684 0.835433
42 2 2.2208 8.11255 1.07939 2.47815
43 1 -1.1104 9.71184 -3.11382 3.89022
44 1 -1.1104 9.51803 2.38042 3.92628
45 2 2.2208 8.10977 -1.68824 5.18156
46 2 2.2208 7.94377 3.88261 5.31701
47 1 -1.1104 9.39853 -0.322524 1.10544
48 1 -1.1104 9.30415 -0.410702 3.79039
210 1 -1.1104 9.4311 -0.383212 6.71708
206 1 -1.1104 12.3208 2.66551 6.66572
207 1 -1.1104 12.158 -0.301808 6.62317
209 1 -1.1104 9.5777 2.38011 6.67294
171 1 -1.1104 6.5453 -0.32489 6.66149
205 1 -1.1104 12.2319 -3.20323 6.62399
313 2 2.2208 -0.300301 15.0928 8.07533
324 2 2.2208 10.8219 20.74 8.13159
9495 2 2.2208 13.5296 9.48365 10.8127
562 2 2.2208 2.46701 -1.68111 -0.31728
296 1 -1.1104 6.53243 19.3474 12.2963
54 2 2.2208 5.22347 6.7524 5.21035
55 2 2.2208 5.22253 12.3451 5.23736
56 1 -1.1104 1.02979 8.03752 0.997192
58 1 -1.1104 0.936123 8.36539 3.86667
60 1 -1.1104 1.05292 5.33152 1.14424
61 1 -1.1104 0.84886 11.0954 1.10583
66 2 2.2208 5.18976 9.61989 2.44979
67 1 -1.1104 1.06791 5.37941 3.84641
68 1 -1.1104 0.979632 11.0178 3.82509
71 1 -1.1104 3.75524 8.31991 1.19733
72 2 2.2208 2.39541 6.77671 2.52393
73 2 2.2208 2.38809 12.3002 2.45257
74 1 -1.1104 3.80043 8.17561 3.9397
75 2 2.2208 2.38778 9.64027 5.36399
76 1 -1.1104 3.87398 5.41653 1.182
77 1 -1.1104 3.76464 10.9711 1.14272
79 1 -1.1104 3.99596 5.33545 3.8923
80 1 -1.1104 3.87793 10.9437 3.94878
333 2 2.2208 13.5592 15.0235 10.8142
238 1 -1.1104 3.75129 8.21867 6.75604
62 1 -1.1104 0.990413 10.9447 6.72826
311 2 2.2208 -0.251703 20.7033 8.03569
9490 2 2.2208 13.5267 6.75967 8.01653
289 1 -1.1104 6.65375 16.6247 9.42308
70 1 -1.1104 6.76448 11.0462 3.82902
63 1 -1.1104 6.71212 5.49707 0.944934
59 1 -1.1104 6.49939 8.17542 3.77556
64 1 -1.1104 6.62071 10.9404 0.904901
69 1 -1.1104 6.58344 5.49699 3.80865
57 1 -1.1104 6.7195 8.2573 1.05849
84 2 2.2208 10.6932 6.8405 5.16966
85 2 2.2208 10.873 12.2567 5.33466
86 1 -1.1104 12.3297 8.16743 0.962412
87 1 -1.1104 12.1055 8.03667 3.82746
88 1 -1.1104 12.304 5.48183 0.935782
89 1 -1.1104 12.2831 11.0186 1.02171
91 2 2.2208 10.9025 9.44189 2.51151
92 1 -1.1104 12.2565 5.33642 3.79653
93 1 -1.1104 12.3631 10.9405 3.71979
94 1 -1.1104 9.5567 8.19384 0.996448
95 2 2.2208 8.05349 6.84989 2.42879
96 2 2.2208 8.02519 12.2066 2.41975
97 1 -1.1104 9.37875 8.19836 3.87443
98 2 2.2208 7.96886 9.63162 5.16496
99 1 -1.1104 9.39161 5.31066 1.01093
100 1 -1.1104 9.33176 11.0148 0.965134
102 1 -1.1104 9.42129 5.37949 3.88985
103 1 -1.1104 9.48952 10.8504 3.79056
136 2 2.2208 -0.350969 20.7929 2.35706
65 1 -1.1104 6.64305 10.9364 6.61527
269 1 -1.1104 9.25546 5.27105 6.57891
265 1 -1.1104 12.2453 8.23279 6.46958
237 1 -1.1104 6.5607 5.42934 6.72904
229 2 2.2208 13.6243 1.23854 8.14032
325 2 2.2208 10.8019 15.1512 7.93266
328 1 -1.1104 12.1465 13.6593 9.3208
106 2 2.2208 5.26267 18.0207 5.27861
107 1 -1.1104 1.09784 13.8176 1.12828
109 1 -1.1104 1.06663 19.388 0.838477
113 1 -1.1104 0.99364 13.6829 3.94733
114 1 -1.1104 1.0507 19.545 3.74604
116 1 -1.1104 1.14782 16.5755 0.969716
119 2 2.2208 5.269 15.2595 2.4319
120 2 2.2208 5.26948 20.7543 2.4388
121 1 -1.1104 1.14248 16.6331 3.75946
123 1 -1.1104 3.7857 13.7795 0.876262
125 1 -1.1104 3.86473 19.4852 1.04239
127 2 2.2208 2.52944 18.0155 2.46076
128 1 -1.1104 3.95679 13.9004 3.69958
129 1 -1.1104 3.82408 19.498 3.92433
130 2 2.2208 2.50146 15.1363 5.12485
131 2 2.2208 2.46071 20.7874 5.16345
132 1 -1.1104 3.86081 16.5065 1.03942
134 1 -1.1104 3.94945 16.6993 3.75002
9541 2 2.2208 13.6603 20.7567 10.8299
110 1 -1.1104 6.55202 13.6937 1.0864
9491 2 2.2208 13.6685 12.3781 8.06769
139 1 -1.1104 6.60352 19.4749 3.80498
138 1 -1.1104 6.64115 19.4079 0.921455
302 1 -1.1104 1.11262 19.3132 6.59379
126 1 -1.1104 3.93071 19.3022 6.67421
117 1 -1.1104 1.08202 16.4762 6.49818
118 1 -1.1104 6.63176 16.6061 6.53804
9279 2 2.2208 13.6085 4.10128 5.20243
112 1 -1.1104 6.67445 19.4126 6.6849
145 1 -1.1104 12.23 19.4327 6.54107
326 1 -1.1104 12.097 16.483 12.3565
115 1 -1.1104 6.74592 13.809 3.84691
140 1 -1.1104 6.61924 16.6371 1.01796
122 1 -1.1104 6.55681 16.6283 3.76765
141 2 2.2208 10.7568 18.0236 5.21765
142 1 -1.1104 12.3001 13.7888 1.02055
144 1 -1.1104 12.2582 19.4257 1.01887
146 1 -1.1104 12.2405 13.7524 3.73416
147 1 -1.1104 12.256 19.2587 3.82245
148 1 -1.1104 12.3204 16.5758 1.0444
150 2 2.2208 10.9331 15.1369 2.33633
151 2 2.2208 10.895 20.864 2.40839
152 1 -1.1104 12.3235 16.5658 3.78555
153 1 -1.1104 9.4021 13.7741 0.962441
155 1 -1.1104 9.49952 19.4138 1.13835
157 2 2.2208 8.06419 17.9805 2.4511
158 1 -1.1104 9.46069 13.6143 3.69918
159 1 -1.1104 9.53055 19.3384 3.76117
160 2 2.2208 8.0708 15.1732 5.04164
161 2 2.2208 8.05593 20.8589 5.32162
162 1 -1.1104 9.52746 16.5108 1.04446
164 1 -1.1104 9.39968 16.5277 3.88408
332 2 2.2208 13.5794 17.9268 7.9737
137 2 2.2208 -0.319998 18.0139 5.16388
166 1 -1.1104 0.99678 -3.06166 6.73803
26 2 2.2208 -0.309971 1.10483 5.26829
9508 2 2.2208 -0.373433 9.55266 8.14483
376 2 2.2208 5.31688 3.88348 13.6825
167 1 -1.1104 1.19756 2.60556 6.69431
170 1 -1.1104 0.993169 -0.0925462 6.63536
175 2 2.2208 5.1856 1.03839 10.9552
176 1 -1.1104 1.08993 -3.07478 12.1769
177 1 -1.1104 1.07053 2.51759 12.3683
180 1 -1.1104 0.981701 -3.02859 9.46449
181 1 -1.1104 0.987909 2.53335 9.5591
184 1 -1.1104 0.992852 -0.271079 12.3578
186 2 2.2208 5.29915 -1.65768 8.08879
187 2 2.2208 5.16316 3.90538 8.12826
188 1 -1.1104 1.00106 -0.34204 9.49148
190 1 -1.1104 3.81793 -3.05187 12.0749
191 1 -1.1104 3.81918 2.47912 12.2124
192 2 2.2208 2.43442 1.09888 8.0953
193 1 -1.1104 3.79946 -3.06668 9.37821
194 1 -1.1104 3.77847 2.50908 9.53915
195 2 2.2208 2.44229 -1.82038 10.8416
196 2 2.2208 2.40189 3.87729 10.9642
197 1 -1.1104 3.75494 -0.393666 12.4049
198 1 -1.1104 3.84606 -0.304554 9.52488
178 1 -1.1104 6.72626 -3.02215 12.4934
27 2 2.2208 -0.341998 3.91962 2.60708
9308 2 2.2208 13.673 9.5539 5.32371
322 1 -1.1104 9.46405 13.8067 12.2999
330 1 -1.1104 12.0999 13.7301 12.1505
189 1 -1.1104 6.75129 -0.490299 9.47736
208 1 -1.1104 9.32908 -3.21169 6.68645
179 1 -1.1104 6.58367 2.56425 12.2686
183 1 -1.1104 6.60434 2.35577 9.46324
185 1 -1.1104 6.45416 -0.330796 12.3725
182 1 -1.1104 6.61683 -3.11813 9.47345
168 1 -1.1104 6.61962 -3.02783 6.67119
211 2 2.2208 10.7252 1.1642 10.9271
212 1 -1.1104 12.2004 -3.21472 12.2525
213 1 -1.1104 12.2623 2.57715 12.2233
214 1 -1.1104 12.2825 -3.15885 9.46396
215 1 -1.1104 12.1242 2.56406 9.59367
216 1 -1.1104 12.3631 -0.334702 12.4373
217 2 2.2208 10.873 -1.73223 8.05604
218 2 2.2208 10.7528 4.03466 8.0184
219 1 -1.1104 12.3415 -0.395491 9.34714
220 1 -1.1104 9.44031 -3.12113 12.4793
221 1 -1.1104 9.46124 2.5158 12.2899
222 2 2.2208 8.01907 1.11689 8.11111
223 1 -1.1104 9.58492 -3.08127 9.49105
224 1 -1.1104 9.49189 2.50207 9.32195
225 2 2.2208 8.14023 -1.85927 10.8691
226 2 2.2208 8.04594 3.87056 10.7894
227 1 -1.1104 9.27421 -0.214726 12.3261
228 1 -1.1104 9.52863 -0.315191 9.5142
471 2 2.2208 10.7171 9.57177 13.7326
135 2 2.2208 -0.322942 15.1284 2.49006
236 1 -1.1104 1.0354 5.40878 6.61903
9501 2 2.2208 -0.337296 12.3862 10.903
409 2 2.2208 10.9277 3.98153 13.7169
239 1 -1.1104 3.6901 5.35908 6.633
234 1 -1.1104 1.14402 8.12566 6.55139
78 1 -1.1104 3.85184 11.0725 6.63527
240 2 2.2208 5.12142 6.76697 10.8884
241 2 2.2208 5.17385 12.418 10.9242
242 1 -1.1104 1.08558 8.18309 12.1326
244 1 -1.1104 1.04179 8.23236 9.35294
246 1 -1.1104 1.08973 5.38855 12.2096
247 1 -1.1104 1.16471 11.1751 12.2126
250 2 2.2208 5.21337 9.53426 8.134
251 1 -1.1104 0.997377 5.41536 9.54997
252 1 -1.1104 1.1778 11.0095 9.59552
255 1 -1.1104 3.8382 8.04678 12.3265
256 2 2.2208 2.33632 6.89621 8.02854
257 2 2.2208 2.46004 12.361 8.05368
258 1 -1.1104 3.77017 8.18585 9.5551
259 2 2.2208 2.53047 9.56202 10.9833
260 1 -1.1104 3.84858 5.22711 12.2844
261 1 -1.1104 3.91479 10.8951 12.4329
262 1 -1.1104 3.79135 5.33433 9.57779
263 1 -1.1104 3.97255 10.9912 9.55735
199 2 2.2208 -0.328313 4.04756 8.07051
235 1 -1.1104 6.52713 8.1385 6.5975
90 1 -1.1104 12.2375 10.9893 6.55275
249 1 -1.1104 6.77975 10.862 12.1829
254 1 -1.1104 6.66769 10.9852 9.46592
101 1 -1.1104 9.44882 10.8788 6.55889
266 1 -1.1104 12.0581 5.33826 6.53131
267 1 -1.1104 9.2956 8.08131 6.57632
243 1 -1.1104 6.5036 8.00458 12.3693
248 1 -1.1104 6.66703 5.24392 12.2782
245 1 -1.1104 6.57284 8.18122 9.51051
253 1 -1.1104 6.55194 5.27306 9.45262
264 1 -1.1104 9.56369 10.9872 9.33688
268 1 -1.1104 9.32089 5.2886 9.45505
270 1 -1.1104 9.43755 10.855 12.2495
271 1 -1.1104 9.36289 5.19197 12.3057
272 2 2.2208 8.05152 9.59802 10.8312
273 1 -1.1104 9.28406 7.99042 9.32767
274 2 2.2208 8.16469 12.3431 7.95605
275 2 2.2208 7.93857 6.88234 7.93507
276 2 2.2208 10.7359 6.77576 10.7941
277 2 2.2208 10.7881 12.4258 10.7598
278 1 -1.1104 12.1846 8.02987 12.2031
279 1 -1.1104 12.0508 8.07109 9.30939
280 1 -1.1104 12.2026 5.26996 12.2265
281 1 -1.1104 12.3528 10.93 12.1435
282 2 2.2208 10.8265 9.44638 8.02201
283 1 -1.1104 12.1348 5.2396 9.35233
284 1 -1.1104 12.2627 10.7969 9.35027
285 1 -1.1104 9.39664 8.072 12.2527
314 1 -1.1104 9.37916 16.5652 9.44998
601 2 2.2208 13.6825 4.02201 -0.316059
331 2 2.2208 10.694 18.0547 10.8213
408 2 2.2208 10.9046 -1.60278 13.7189
111 1 -1.1104 6.5834 13.7586 6.63125
288 1 -1.1104 6.67623 19.367 9.44165
124 1 -1.1104 3.76344 13.9107 6.63825
133 1 -1.1104 3.88088 16.6829 6.58157
108 1 -1.1104 0.972395 13.7099 6.68251
286 1 -1.1104 3.63562 19.327 12.1558
287 1 -1.1104 3.80805 13.7658 12.2562
291 1 -1.1104 1.06618 19.388 9.39554
292 1 -1.1104 1.13561 16.521 9.33091
293 2 2.2208 5.2769 20.8357 8.12651
294 1 -1.1104 0.995648 13.6166 9.58651
295 2 2.2208 5.21412 15.176 8.01377
298 1 -1.1104 0.854583 19.3255 12.3205
299 1 -1.1104 1.01022 13.8172 12.3216
300 2 2.2208 5.28682 17.926 10.9172
301 1 -1.1104 3.92995 19.2967 9.41526
303 2 2.2208 2.5618 18.0027 8.00958
304 1 -1.1104 3.9596 16.5042 9.50159
305 1 -1.1104 3.8616 13.7785 9.53837
307 1 -1.1104 1.1091 16.5641 12.0245
308 1 -1.1104 3.96929 16.6044 12.3607
309 2 2.2208 2.4552 20.701 10.8367
310 2 2.2208 2.57888 15.1729 10.8339
323 1 -1.1104 12.0932 16.5825 9.38683
317 2 2.2208 7.94827 15.0563 10.7637
316 2 2.2208 7.936 20.7785 10.9099
321 1 -1.1104 9.38478 19.4465 12.2348
507 2 2.2208 5.30783 20.7938 13.6111
320 2 2.2208 8.01258 17.9284 8.06405
149 1 -1.1104 12.1641 16.6483 6.65797
315 1 -1.1104 9.51119 16.4964 12.2088
329 1 -1.1104 12.2847 19.2307 12.1866
319 1 -1.1104 9.36348 13.6785 9.37491
327 1 -1.1104 12.181 19.4815 9.4378
163 1 -1.1104 9.45146 16.4706 6.45417
156 1 -1.1104 9.41128 19.4047 6.65829
297 1 -1.1104 6.5151 13.7064 12.3472
290 1 -1.1104 6.47927 13.9109 9.51429
154 1 -1.1104 9.47777 13.5726 6.54715
318 1 -1.1104 9.37892 19.5292 9.52068
306 1 -1.1104 6.76249 16.5314 12.28
407 2 2.2208 7.90163 1.06312 13.7109
626 2 2.2208 5.25915 6.75593 -0.326454
627 2 2.2208 2.4447 9.66853 -0.366443
707 2 2.2208 10.8652 17.9312 -0.269715
628 2 2.2208 5.19837 12.5203 -0.350744
629 2 2.2208 -0.318605 12.4619 -0.206932
9723 2 2.2208 -0.365069 9.70756 13.6153
334 2 2.2208 5.30377 1.07845 16.5835
335 1 -1.1104 1.05867 -3.08482 17.8637
336 1 -1.1104 1.16388 2.58703 17.8222
339 1 -1.1104 0.964302 -3.07137 14.8941
341 1 -1.1104 1.08568 2.71874 15.0705
347 1 -1.1104 1.06232 -0.251447 17.7386
349 2 2.2208 5.2686 -1.53579 19.3147
350 2 2.2208 5.27209 3.96397 19.2954
351 1 -1.1104 1.05321 -0.274419 14.9275
355 1 -1.1104 3.90845 -2.93798 17.9489
356 1 -1.1104 4.06737 2.5284 17.921
357 2 2.2208 2.43662 1.25678 19.3421
358 1 -1.1104 3.76925 -3.04896 15.1091
360 1 -1.1104 3.81503 2.51012 15.1185
362 2 2.2208 2.47332 -1.71853 16.5382
363 2 2.2208 2.5797 3.97749 16.5107
364 1 -1.1104 3.8065 -0.276494 18.0331
365 1 -1.1104 3.87585 -0.325739 15.2008
533 2 2.2208 10.9612 20.9261 13.6448
9678 2 2.2208 13.4991 9.59564 16.4488
403 2 2.2208 8.11688 -4.47523 19.2667
352 1 -1.1104 0.967203 -0.0592889 20.7613
443 2 2.2208 2.54322 6.66731 13.7606
9870 2 2.2208 13.6275 9.70571 22.1141
340 1 -1.1104 0.944475 -2.92707 20.6199
366 1 -1.1104 3.85638 -0.287003 20.7316
346 1 -1.1104 6.6424 2.62243 20.6918
9789 2 2.2208 -0.3659 20.8191 19.2348
592 2 2.2208 7.97723 -1.68918 27.7407
345 1 -1.1104 6.56875 2.50663 15.1436
348 1 -1.1104 6.70633 -0.234832 17.9484
343 1 -1.1104 6.62989 -3.16887 15.1044
353 1 -1.1104 6.59788 -0.391152 15.1488
338 1 -1.1104 6.78844 2.37939 17.8151
337 1 -1.1104 6.70062 -3.026 17.9646
377 2 2.2208 10.8015 1.29794 16.5531
378 1 -1.1104 12.175 -3.08964 17.7485
379 1 -1.1104 12.2804 2.63497 17.9577
380 1 -1.1104 12.3255 -3.08317 14.9905
382 1 -1.1104 12.1325 2.59538 15.0427
384 1 -1.1104 12.2369 -0.0886027 18.044
385 2 2.2208 10.8693 -1.65418 19.1954
386 2 2.2208 10.8431 3.98658 19.3555
387 1 -1.1104 12.2289 -0.160419 15.1991
389 1 -1.1104 9.37813 -3.06945 17.7688
390 1 -1.1104 9.60243 2.60156 17.9681
391 2 2.2208 8.11571 1.13673 19.331
392 1 -1.1104 9.52549 -3.00863 15.2148
394 1 -1.1104 9.28999 2.62231 15.2174
396 2 2.2208 8.15076 -1.60363 16.4926
398 1 -1.1104 9.52982 -0.281758 17.8602
399 1 -1.1104 9.41581 -0.112638 15.2306
381 1 -1.1104 12.2055 -2.98663 20.6979
706 2 2.2208 8.10436 20.8829 27.6561
397 2 2.2208 8.02511 4.00437 16.5161
393 1 -1.1104 9.40105 -3.16314 20.7394
388 1 -1.1104 12.3779 -0.170104 20.8408
383 1 -1.1104 12.3782 2.63541 20.7443
703 1 -1.1104 12.2657 19.4769 23.4831
708 2 2.2208 8.00857 15.1817 27.6784
682 2 2.2208 2.43186 15.1687 27.6776
470 2 2.2208 8.04928 6.70874 13.6719
410 2 2.2208 5.179 6.77715 16.5502
411 2 2.2208 5.18216 12.4244 16.5195
412 1 -1.1104 1.01775 8.24231 17.811
414 1 -1.1104 1.07221 8.19761 14.8665
418 1 -1.1104 0.872436 5.50293 17.9518
419 1 -1.1104 0.904102 10.9592 17.8816
422 2 2.2208 5.22586 9.611 19.2999
423 1 -1.1104 1.12802 5.4027 15.1983
425 1 -1.1104 0.932818 10.9375 15.1629
431 1 -1.1104 3.81236 8.29309 17.8562
432 2 2.2208 2.40369 6.75829 19.2411
433 2 2.2208 2.38867 12.3 19.2707
434 1 -1.1104 3.8533 8.13171 15.1343
436 2 2.2208 2.40237 9.61089 16.4043
437 1 -1.1104 3.74392 5.5738 17.6944
438 1 -1.1104 3.86283 11.1446 17.908
439 1 -1.1104 3.94726 5.21872 15.1011
441 1 -1.1104 3.82276 10.9459 15.2141
416 1 -1.1104 6.58329 8.24222 15.1641
654 2 2.2208 13.5982 12.4435 24.8617
429 1 -1.1104 6.56192 11.0677 14.9879
427 1 -1.1104 6.67059 5.41402 15.2153
435 1 -1.1104 3.79639 8.30812 20.714
424 1 -1.1104 1.0038 5.41235 20.7537
445 2 2.2208 2.56371 12.3911 13.7857
9685 2 2.2208 -0.415633 12.3781 16.5522
413 1 -1.1104 6.65831 8.13785 17.8577
420 1 -1.1104 6.48378 5.36863 18.0457
421 1 -1.1104 6.60529 10.9176 17.7701
446 2 2.2208 10.7855 6.8236 16.5935
447 2 2.2208 10.8771 12.4155 16.5585
448 1 -1.1104 12.1742 8.15489 17.9743
449 1 -1.1104 12.1525 8.17281 15.0849
451 1 -1.1104 12.269 5.46355 17.9785
452 1 -1.1104 12.0864 10.9539 17.8076
453 2 2.2208 10.6877 9.61833 19.4207
454 1 -1.1104 12.2228 5.32946 15.1315
456 1 -1.1104 12.2552 10.9224 15.1451
458 1 -1.1104 9.36721 8.22509 17.9879
459 2 2.2208 8.02312 6.84745 19.3677
460 2 2.2208 8.06602 12.5363 19.2508
461 1 -1.1104 9.41814 8.23589 15.1681
463 2 2.2208 8.02928 9.65567 16.5389
464 1 -1.1104 9.41891 5.35109 18.037
465 1 -1.1104 9.28183 11.1591 17.8552
466 1 -1.1104 9.56585 5.41103 15.0861
468 1 -1.1104 9.36582 11.0395 15.1083
430 1 -1.1104 6.64134 11.0932 20.593
467 1 -1.1104 9.41024 5.41191 20.834
428 1 -1.1104 6.58114 5.4908 20.771
457 1 -1.1104 12.1659 11.0496 20.757
700 1 -1.1104 12.2569 16.6755 23.6511
705 2 2.2208 10.9 18.0878 22.1997
473 2 2.2208 5.17648 17.974 16.5482
474 1 -1.1104 1.04245 13.7174 17.8963
475 1 -1.1104 0.938262 19.5337 17.788
478 1 -1.1104 1.3142 13.8104 15.1939
480 1 -1.1104 1.00628 19.192 15.0538
486 1 -1.1104 0.926279 16.6577 18.0267
488 2 2.2208 5.11784 15.2594 19.2806
489 2 2.2208 5.09013 20.6779 19.2735
490 1 -1.1104 0.991323 16.5389 14.9234
494 1 -1.1104 3.82816 14.0314 17.941
495 1 -1.1104 3.82902 19.3678 17.8229
496 2 2.2208 2.32156 18.1188 19.277
497 1 -1.1104 3.90044 13.7996 15.1229
499 1 -1.1104 3.86689 19.3059 15.048
501 2 2.2208 2.34665 15.2583 16.5897
502 2 2.2208 2.41681 20.7435 16.5231
503 1 -1.1104 3.69756 16.6417 17.8802
504 1 -1.1104 3.8754 16.6625 15.1417
482 1 -1.1104 6.58216 13.7728 15.0213
487 1 -1.1104 6.51467 16.6434 17.9868
500 1 -1.1104 3.72968 19.3789 20.6044
481 1 -1.1104 1.07343 19.4804 20.7077
680 2 2.2208 2.40614 20.9087 27.624
508 2 2.2208 5.21099 15.3163 13.7475
667 1 -1.1104 6.76526 13.8236 23.3726
563 2 2.2208 2.49376 3.89766 27.7074
532 1 -1.1104 9.56455 16.5561 20.5341
693 1 -1.1104 6.62605 19.4468 26.1445
476 1 -1.1104 6.55097 13.7861 17.9599
492 1 -1.1104 6.6696 16.5262 15.2002
477 1 -1.1104 6.52921 19.3684 17.7792
484 1 -1.1104 6.68573 19.2989 15.1337
509 2 2.2208 10.8537 18.0251 16.6015
510 1 -1.1104 12.1998 13.8707 17.8954
511 1 -1.1104 12.2125 19.416 17.959
512 1 -1.1104 12.2086 13.7603 15.0421
514 1 -1.1104 12.237 19.4303 14.9682
516 1 -1.1104 12.3281 16.6151 17.9543
517 2 2.2208 10.8846 15.2415 19.2246
518 2 2.2208 10.822 20.8101 19.3456
519 1 -1.1104 12.2908 16.5378 15.1435
521 1 -1.1104 9.4804 13.867 17.7289
522 1 -1.1104 9.31945 19.4434 17.8981
523 2 2.2208 8.01449 18.0594 19.2306
524 1 -1.1104 9.39329 13.7213 15.06
526 1 -1.1104 9.50533 19.4074 15.0034
528 2 2.2208 7.94354 15.1359 16.4388
529 2 2.2208 8.10135 20.8587 16.3741
530 1 -1.1104 9.31743 16.67 17.7754
531 1 -1.1104 9.60293 16.6028 14.9918
405 2 2.2208 13.5896 -1.49897 16.5052
513 1 -1.1104 12.3069 13.8727 20.642
493 1 -1.1104 6.82312 16.4846 20.5885
9748 2 2.2208 13.6739 15.2754 16.5764
342 1 -1.1104 0.889272 2.79836 20.6777
359 1 -1.1104 3.80754 -3.05763 20.756
675 1 -1.1104 6.51384 16.6145 23.4
658 1 -1.1104 6.68016 13.8194 26.2396
9604 2 2.2208 13.6606 4.00624 16.5336
361 1 -1.1104 3.73946 2.7133 20.7532
537 2 2.2208 5.15342 1.15887 22.1012
538 1 -1.1104 1.0985 -2.9608 23.3281
539 1 -1.1104 1.05977 2.70001 23.5598
542 1 -1.1104 1.03012 -3.13489 26.3179
543 1 -1.1104 1.037 2.48576 26.3929
546 1 -1.1104 0.941883 -0.126272 23.4732
548 2 2.2208 5.15055 -1.74325 24.9392
549 2 2.2208 5.18387 3.89579 24.9016
550 1 -1.1104 1.07593 -0.354079 26.2089
552 1 -1.1104 3.89236 -3.09724 23.5013
553 1 -1.1104 3.83487 2.67264 23.5253
554 2 2.2208 2.42277 1.2128 24.9523
555 1 -1.1104 3.74825 -3.06205 26.33
556 1 -1.1104 3.95965 2.37035 26.3295
557 2 2.2208 2.44985 -1.51357 22.1141
558 2 2.2208 2.37595 4.05716 22.118
559 1 -1.1104 3.76037 -0.146681 23.3855
560 1 -1.1104 3.81492 -0.218238 26.199
354 1 -1.1104 6.72736 -0.305414 20.7353
541 1 -1.1104 6.57489 2.54604 23.4036
660 1 -1.1104 6.48716 16.6407 26.2424
686 2 2.2208 -0.324313 18.1502 22.0544
344 1 -1.1104 6.59155 -3.17725 20.617
483 1 -1.1104 6.65021 13.805 20.7604
694 2 2.2208 8.04978 18.0296 24.8863
698 2 2.2208 10.8071 20.817 24.9199
547 1 -1.1104 6.69031 -0.335076 23.4493
540 1 -1.1104 6.59312 -3.11437 23.6486
551 1 -1.1104 6.61083 -0.208826 26.2006
544 1 -1.1104 6.61086 -3.10923 26.2222
395 1 -1.1104 9.6051 2.67069 20.7595
400 1 -1.1104 9.57843 -0.0487634 20.5065
545 1 -1.1104 6.64812 2.61174 26.3728
573 2 2.2208 11.0065 1.20761 22.1386
574 1 -1.1104 12.1818 -2.947 23.4352
575 1 -1.1104 12.2671 2.73393 23.4477
576 1 -1.1104 12.2171 -2.98966 26.2848
577 1 -1.1104 12.294 2.51016 26.3523
578 1 -1.1104 12.4158 -0.0600834 23.5965
579 2 2.2208 10.9026 -1.62932 24.8684
580 2 2.2208 10.7684 4.02045 24.9088
581 1 -1.1104 12.1962 -0.189518 26.1798
582 1 -1.1104 9.45014 -3.07807 23.5677
583 1 -1.1104 9.40156 2.3906 23.4381
584 2 2.2208 8.11426 1.1093 24.7853
585 1 -1.1104 9.41044 -3.05005 26.4502
586 1 -1.1104 9.51133 2.54404 26.1551
587 2 2.2208 8.06871 -1.70939 22.1257
588 2 2.2208 8.07716 3.96897 22.1549
589 1 -1.1104 9.54451 -0.253771 23.4417
590 1 -1.1104 9.33127 -0.385986 26.3802
653 2 2.2208 10.8995 12.347 27.663
688 1 -1.1104 9.36643 16.6683 23.4751
709 2 2.2208 13.6243 20.9179 22.0678
440 1 -1.1104 3.7925 5.44653 20.469
415 1 -1.1104 1.07784 8.16402 20.5693
426 1 -1.1104 1.1225 10.9469 20.6764
442 1 -1.1104 3.84912 10.9832 20.7366
602 2 2.2208 5.26218 6.76467 22.2384
603 2 2.2208 5.21755 12.4948 21.9867
604 1 -1.1104 0.895275 8.23126 23.3864
606 1 -1.1104 1.10424 8.36488 26.1669
608 1 -1.1104 1.05296 5.49983 23.5684
609 1 -1.1104 0.901295 10.9294 23.612
612 2 2.2208 5.17248 9.514 24.9069
613 1 -1.1104 0.942534 5.3072 26.4477
614 1 -1.1104 0.998689 11.1363 26.3288
617 1 -1.1104 3.94784 8.08936 23.656
618 2 2.2208 2.31273 6.80845 24.8982
619 2 2.2208 2.49146 12.5398 24.8558
620 1 -1.1104 3.81243 8.05909 26.3823
621 2 2.2208 2.5362 9.66661 22.1237
622 1 -1.1104 3.82162 5.36554 23.3522
623 1 -1.1104 3.80226 11.0226 23.6208
624 1 -1.1104 3.79281 5.31519 26.3542
625 1 -1.1104 3.88307 11.0326 26.4525
561 2 2.2208 5.31655 1.18778 27.7074
689 2 2.2208 8.01682 20.8447 21.983
692 1 -1.1104 9.3389 13.8202 26.1841
469 1 -1.1104 9.41875 10.9572 20.5634
615 1 -1.1104 6.55926 5.25924 26.2015
611 1 -1.1104 6.48517 10.9288 23.4097
616 1 -1.1104 6.85209 10.8705 26.1678
455 1 -1.1104 12.2216 5.46257 20.665
462 1 -1.1104 9.51673 8.1484 20.7834
450 1 -1.1104 12.3377 8.31091 20.6806
417 1 -1.1104 6.64268 8.37486 20.6366
605 1 -1.1104 6.70371 8.17712 23.5796
607 1 -1.1104 6.53072 8.18689 26.3932
610 1 -1.1104 6.6318 5.21272 23.4454
633 1 -1.1104 9.61668 10.9396 26.2362
634 1 -1.1104 9.39163 5.43517 26.3419
635 1 -1.1104 9.40611 11.076 23.2862
636 1 -1.1104 9.37398 5.36294 23.5679
637 2 2.2208 7.84674 9.64196 22.0971
638 1 -1.1104 9.33046 8.13725 26.3059
639 2 2.2208 8.08642 12.3144 24.755
640 2 2.2208 8.06526 6.85435 24.9423
641 2 2.2208 10.8644 6.85926 22.0862
642 2 2.2208 10.9339 12.5026 21.9996
643 1 -1.1104 12.203 8.39081 23.4048
644 1 -1.1104 12.0698 8.11066 26.1741
645 1 -1.1104 12.2619 5.58363 23.3962
646 1 -1.1104 12.2316 11.0435 23.4745
647 2 2.2208 10.7595 9.55243 24.7848
648 1 -1.1104 12.2516 5.32625 26.2628
649 1 -1.1104 12.4269 11.0723 26.1953
650 1 -1.1104 9.41556 8.35291 23.4927
690 2 2.2208 8.06134 15.2807 21.9502
695 1 -1.1104 9.50274 19.3408 23.5208
9608 2 2.2208 13.6444 1.16513 13.7801
479 1 -1.1104 1.11048 13.7445 20.686
505 1 -1.1104 3.82564 16.5839 20.6222
498 1 -1.1104 3.83697 13.805 20.6966
491 1 -1.1104 0.932604 16.6299 20.739
669 1 -1.1104 1.01803 13.8777 23.4991
678 2 2.2208 2.36188 20.8674 21.991
677 1 -1.1104 3.75184 16.4549 23.3426
671 1 -1.1104 3.74309 19.6086 26.3096
676 1 -1.1104 1.02395 16.6954 23.5421
679 2 2.2208 2.4216 15.2173 22.017
672 2 2.2208 2.43419 17.9684 24.7686
673 1 -1.1104 3.83852 16.8288 26.137
674 1 -1.1104 3.95568 13.8169 26.183
670 2 2.2208 5.18189 18.0122 22.0162
657 1 -1.1104 3.94136 19.2759 23.3734
659 1 -1.1104 3.76542 13.7286 23.3371
661 1 -1.1104 1.08603 19.2744 26.208
662 1 -1.1104 0.951495 16.5784 26.2043
663 1 -1.1104 1.07733 13.923 26.2864
665 2 2.2208 5.24018 20.8719 24.7476
666 2 2.2208 5.29647 15.2027 24.7079
668 1 -1.1104 1.11697 19.6464 23.3683
485 1 -1.1104 6.58248 19.4469 20.7022
664 1 -1.1104 6.67137 19.373 23.4914
699 2 2.2208 10.8321 15.2726 24.884
701 1 -1.1104 12.2902 19.4258 26.2446
696 1 -1.1104 9.42224 13.8229 23.3863
591 2 2.2208 10.8004 1.1718 27.703
691 1 -1.1104 9.36758 19.3277 26.2996
520 1 -1.1104 12.3004 16.6762 20.8862
702 1 -1.1104 12.2155 13.7459 26.2744
704 1 -1.1104 12.3091 13.8512 23.5107
687 1 -1.1104 9.43723 16.5756 26.3213
525 1 -1.1104 9.48949 13.7738 20.6415
697 1 -1.1104 12.2745 16.5686 26.4531
515 1 -1.1104 12.5149 19.5137 20.7099
527 1 -1.1104 9.56075 19.4163 20.6791
681 2 2.2208 5.19049 18.0889 27.5882
536 2 2.2208 13.5061 17.9705 13.6289
9719 2 2.2208 -0.364086 9.55643 19.2336
371 2 2.2208 -0.272224 -1.56136 19.3496
9651 2 2.2208 -0.280081 3.92578 13.6815
9680 2 2.2208 13.5201 12.4746 19.1913
651 2 2.2208 10.8452 6.78127 27.6376
9682 2 2.2208 13.6817 12.4112 13.666
652 2 2.2208 8.09194 9.68399 27.5922
535 2 2.2208 8.13344 17.8895 13.7046
593 2 2.2208 8.13173 3.96483 27.571
598 2 2.2208 13.515 -1.53062 27.6864
710 2 2.2208 13.5088 20.856 27.6376
506 2 2.2208 2.44458 18.0189 13.7167
534 2 2.2208 10.8007 15.075 13.7327
655 2 2.2208 13.6689 9.54734 27.6733
374 2 2.2208 5.20597 -1.75451 13.8349
9677 2 2.2208 13.5582 6.77539 13.6543
444 2 2.2208 5.1109 9.55641 13.7931
375 2 2.2208 2.39756 1.14556 13.7649
472 2 2.2208 8.14499 12.2993 13.7144
714 2 2.2208 5.12459 23.6104 5.27261
715 2 2.2208 5.17751 29.3077 5.30096
716 1 -1.1104 1.06567 25.0462 0.855508
717 1 -1.1104 0.929181 24.9586 3.67496
718 1 -1.1104 0.991706 22.2632 0.945052
719 1 -1.1104 0.935337 27.8231 0.947407
720 2 2.2208 5.28012 26.2664 2.45598
721 1 -1.1104 0.984448 22.2021 3.73327
722 1 -1.1104 0.899683 27.8599 3.82866
723 1 -1.1104 3.82102 25.0174 0.981675
724 2 2.2208 2.43976 23.601 2.39231
725 2 2.2208 2.35799 29.308 2.42601
726 1 -1.1104 3.67435 24.8533 3.75462
727 2 2.2208 2.39613 26.4371 5.17973
728 1 -1.1104 3.87075 22.2437 0.870915
729 1 -1.1104 3.84971 28.0443 1.05096
730 1 -1.1104 4.03067 22.2473 3.77603
731 1 -1.1104 3.65599 27.8709 3.75518
1590 1 -1.1104 0.993952 47.5327 6.61204
854 2 2.2208 13.5299 40.4472 2.33003
1223 2 2.2208 -0.266638 43.2802 13.6489
735 1 -1.1104 6.79634 24.8737 1.04168
739 1 -1.1104 6.74283 22.2278 3.83041
740 1 -1.1104 6.60047 27.8904 3.79883
736 1 -1.1104 6.60605 25.0589 3.8573
737 1 -1.1104 6.6884 22.207 0.965829
807 2 2.2208 13.6254 34.8866 2.45808
863 1 -1.1104 3.88282 27.8199 6.62976
855 1 -1.1104 0.888934 25.0938 6.49985
861 1 -1.1104 3.85301 25.0863 6.777
862 1 -1.1104 3.91468 22.1927 6.60116
859 1 -1.1104 6.69543 22.1511 6.72514
1030 2 2.2208 13.6168 43.247 10.7332
738 1 -1.1104 6.72816 27.6465 0.986357
741 2 2.2208 10.8668 23.6487 5.20618
742 2 2.2208 10.906 29.3174 5.34423
743 1 -1.1104 12.2533 25.0469 0.897873
744 1 -1.1104 12.2739 25.0243 3.62468
745 1 -1.1104 12.2628 22.2337 1.11145
746 1 -1.1104 12.4354 27.8816 0.970822
747 2 2.2208 10.8931 26.4605 2.41626
748 1 -1.1104 12.239 22.347 3.91035
749 1 -1.1104 12.3332 27.8541 3.85401
750 1 -1.1104 9.44518 25.1003 1.08025
751 2 2.2208 8.0847 23.5526 2.38574
752 2 2.2208 8.08969 29.1868 2.34803
753 1 -1.1104 9.44603 24.9607 3.7107
754 2 2.2208 8.04733 26.4142 5.20452
755 1 -1.1104 9.55271 22.2856 0.96405
756 1 -1.1104 9.4877 27.9403 0.942035
757 1 -1.1104 9.53532 22.2381 3.82126
758 1 -1.1104 9.52989 27.7733 3.85396
1039 2 2.2208 10.9385 32.1217 13.7204
10200 2 2.2208 -0.319797 32.0353 7.89353
893 1 -1.1104 9.52081 27.8905 6.58329
889 1 -1.1104 12.2875 22.2035 6.65017
891 1 -1.1104 9.39461 25.0528 6.56827
1023 1 -1.1104 9.42017 42.0353 6.47628
1014 1 -1.1104 9.51369 41.7753 12.0655
1636 1 -1.1104 9.21891 47.4164 12.1256
1016 1 -1.1104 12.2787 38.9882 9.22495
1045 2 2.2208 10.8896 43.149 13.5941
762 2 2.2208 5.3699 34.8731 5.13956
763 1 -1.1104 0.979126 30.581 0.961442
764 1 -1.1104 1.03748 36.2386 1.06145
766 1 -1.1104 0.963999 30.646 3.81549
767 1 -1.1104 1.08034 36.2736 3.85643
769 1 -1.1104 1.04124 33.3312 0.931203
770 2 2.2208 5.23441 32.0038 2.29985
771 2 2.2208 5.29704 37.7006 2.41136
772 1 -1.1104 1.02053 33.5824 3.70595
774 1 -1.1104 3.74922 30.7982 1.00701
775 1 -1.1104 3.93604 36.3916 0.968011
776 2 2.2208 2.53508 34.8044 2.42692
777 1 -1.1104 3.75727 30.8485 3.76246
778 1 -1.1104 3.8976 36.1812 3.77221
779 2 2.2208 2.60007 32.0647 5.29774
780 2 2.2208 2.54013 37.6552 5.30408
781 1 -1.1104 3.80999 33.5459 0.98125
782 1 -1.1104 4.02842 33.5602 3.73782
1629 1 -1.1104 12.6944 47.1104 12.098
1599 1 -1.1104 6.61333 47.6889 9.39283
1630 1 -1.1104 12.1001 47.4865 9.24093
768 1 -1.1104 6.71871 36.1906 3.73039
787 1 -1.1104 6.62302 30.5882 3.89163
773 1 -1.1104 6.76429 33.3047 3.77893
788 1 -1.1104 6.75103 33.4717 0.946213
786 1 -1.1104 6.72315 30.5725 0.946575
914 1 -1.1104 6.67824 30.6995 6.6984
917 1 -1.1104 6.82784 33.4539 6.55618
1019 1 -1.1104 12.2642 39.0063 12.0389
765 1 -1.1104 6.78969 36.3384 0.860482
789 2 2.2208 10.8701 34.9034 5.15432
790 1 -1.1104 12.4752 30.7817 1.2473
791 1 -1.1104 12.3394 36.4214 1.05334
792 1 -1.1104 12.3389 30.6359 3.8446
793 1 -1.1104 12.2078 36.2672 3.67176
794 1 -1.1104 12.2405 33.7285 0.922445
795 2 2.2208 10.9043 31.98 2.44651
796 2 2.2208 10.9681 37.6681 2.32813
797 1 -1.1104 12.3308 33.3105 3.81647
798 1 -1.1104 9.56538 30.6297 1.01975
799 1 -1.1104 9.46443 36.1544 0.89095
800 2 2.2208 8.15633 34.8029 2.26797
801 1 -1.1104 9.4238 30.5951 3.85506
802 1 -1.1104 9.58526 36.341 3.72011
803 2 2.2208 8.01452 31.964 5.19396
804 2 2.2208 8.15854 37.6502 5.03331
805 1 -1.1104 9.50705 33.3703 1.01276
806 1 -1.1104 9.50406 33.4778 3.86944
1401 1 -1.1104 6.61413 47.5441 3.90751
761 2 2.2208 13.6525 26.403 5.24677
974 1 -1.1104 6.62991 44.9025 9.48622