ITEM: TIMESTEP
30000
ITEM: NUMBER OF ATOMS
17910
ITEM: BOX BOUNDS pp pp pp
-3.4813954223264570e-01 2.7688139542232236e+01
-4.3361719072909723e+00 3.3241617190729136e+02
-3.5981384046357745e-01 2.7699813840463726e+01
ITEM: ATOMS id type q x y z
1 2 2.2208 5.28995 1.33166 5.42981
2 1 -1.1104 1.02455 -2.88515 1.10445
3 1 -1.1104 1.08351 2.61253 1.16032
6 1 -1.1104 1.17243 -3.09928 4.05046
7 1 -1.1104 1.22853 2.74057 4.04822
10 1 -1.1104 1.17285 -0.0807239 1.07493
12 2 2.2208 5.4299 -1.49342 2.64475
13 2 2.2208 5.28016 4.05547 2.49535
14 1 -1.1104 1.0007 -0.181749 3.93643
16 1 -1.1104 3.84735 -2.98262 1.13676
17 1 -1.1104 3.86146 2.56252 1.15815
18 2 2.2208 2.50091 1.32927 2.60783
19 1 -1.1104 4.05237 -2.95829 3.99097
20 1 -1.1104 3.86869 2.56001 4.06936
21 2 2.2208 2.54402 -1.52376 5.52349
22 2 2.2208 2.67149 4.1044 5.35284
23 1 -1.1104 3.97259 -0.266801 1.32039
24 1 -1.1104 3.87226 -0.229576 3.85557
26 2 2.2208 -0.279875 1.20858 5.35196
25 2 2.2208 -0.345701 -1.56337 2.51411
27 2 2.2208 -0.260709 3.96974 2.69945
595 2 2.2208 11.119 -4.47448 -0.309602
569 2 2.2208 -0.259282 1.33777 -0.186495
561 2 2.2208 5.33828 1.20241 -0.155127
562 2 2.2208 2.58988 -1.47193 -0.104452
333 2 2.2208 13.8729 15.2854 10.994
29 2 2.2208 5.39296 -4.34838 5.36242
9501 2 2.2208 -0.42577 12.4228 10.9085
708 2 2.2208 8.22411 15.3494 -0.0798899
52 2 2.2208 10.9469 -4.24406 5.37931
592 2 2.2208 8.13815 -1.5235 -0.156442
8 1 -1.1104 6.7827 -2.84891 4.09745
4 1 -1.1104 6.6777 -3.00827 1.16358
5 1 -1.1104 6.77509 2.4976 1.0241
15 1 -1.1104 6.82769 -0.207195 4.04265
11 1 -1.1104 6.68062 -0.172135 1.24243
9 1 -1.1104 6.69034 2.79168 3.97221
31 2 2.2208 11.0301 1.23488 5.26729
32 1 -1.1104 12.2074 -2.91628 1.23356
33 1 -1.1104 12.3978 2.58455 1.01211
34 1 -1.1104 12.3676 -2.80175 3.84171
35 1 -1.1104 12.3421 2.72195 3.84246
36 1 -1.1104 12.4128 -0.115299 1.04598
37 2 2.2208 10.877 -1.50706 2.47618
38 2 2.2208 10.931 4.0955 2.57844
39 1 -1.1104 12.4872 -0.0678283 3.96441
40 1 -1.1104 9.50341 -2.89784 1.25495
41 1 -1.1104 9.48433 2.65689 1.32738
42 2 2.2208 8.10285 1.28852 2.59696
43 1 -1.1104 9.63445 -2.92039 3.91211
44 1 -1.1104 9.58181 2.64342 4.06364
45 2 2.2208 8.19948 -1.50836 5.34513
46 2 2.2208 8.10005 4.18536 5.35378
47 1 -1.1104 9.57114 -0.0653182 1.20526
48 1 -1.1104 9.5913 -0.108512 3.91092
143 1 -1.1104 12.4456 13.7853 6.75485
51 2 2.2208 8.15139 -4.35501 2.61581
591 2 2.2208 11.0556 1.31747 -0.22616
207 1 -1.1104 12.5449 -0.171123 6.73565
593 2 2.2208 8.10197 4.01451 -0.303793
81 2 2.2208 -0.158554 6.85098 5.39402
627 2 2.2208 2.61273 9.71198 -0.127691
54 2 2.2208 5.35582 6.94527 5.47477
55 2 2.2208 5.43717 12.5017 5.59524
56 1 -1.1104 1.17209 8.20956 1.16644
58 1 -1.1104 1.30917 8.33995 4.02512
60 1 -1.1104 1.36892 5.44535 1.1932
61 1 -1.1104 1.30346 11.217 1.06862
66 2 2.2208 5.36183 9.71121 2.77976
67 1 -1.1104 1.17505 5.49251 3.97427
68 1 -1.1104 1.23186 11.0292 3.83841
71 1 -1.1104 3.86193 8.26473 1.18972
72 2 2.2208 2.55605 6.85721 2.51542
73 2 2.2208 2.77211 12.5623 2.51078
74 1 -1.1104 4.0653 8.14448 3.99741
75 2 2.2208 2.53325 9.8487 5.33031
76 1 -1.1104 3.95881 5.34836 1.11777
77 1 -1.1104 4.17946 11.0068 1.23018
79 1 -1.1104 3.95284 5.45193 4.12178
80 1 -1.1104 4.04938 11.1257 4.0793
83 2 2.2208 -0.213252 12.4134 5.42092
629 2 2.2208 -0.200245 12.4986 -0.133049
632 2 2.2208 -0.180748 6.78059 -0.26095
82 2 2.2208 -0.219251 9.60547 2.58196
566 2 2.2208 5.4253 -4.37169 -0.177037
628 2 2.2208 5.39602 12.4813 -0.190687
681 2 2.2208 5.30298 18.2475 -0.17857
63 1 -1.1104 6.67743 5.3058 1.14135
70 1 -1.1104 6.77948 11.0446 4.08392
57 1 -1.1104 6.59721 8.14356 1.25889
59 1 -1.1104 6.86089 8.27646 4.03063
69 1 -1.1104 6.74827 5.50711 3.8626
64 1 -1.1104 6.80793 11.0008 1.28682
84 2 2.2208 11.0059 6.82467 5.27198
85 2 2.2208 11.2035 12.3378 5.45199
86 1 -1.1104 12.4897 8.33725 1.11237
87 1 -1.1104 12.4808 8.33156 3.88954
88 1 -1.1104 12.3624 5.53019 1.12405
89 1 -1.1104 12.5312 11.021 1.05955
91 2 2.2208 11.0245 9.64667 2.53256
92 1 -1.1104 12.4384 5.53559 3.92614
93 1 -1.1104 12.3925 11.1152 3.92818
94 1 -1.1104 9.54705 8.42691 1.07028
95 2 2.2208 8.01095 6.91417 2.51137
96 2 2.2208 8.13791 12.4555 2.75328
97 1 -1.1104 9.70098 8.11545 3.74103
98 2 2.2208 8.26408 9.59067 5.50012
99 1 -1.1104 9.58985 5.47463 1.28009
100 1 -1.1104 9.61851 11.1377 1.14608
102 1 -1.1104 9.68376 5.27572 3.94601
103 1 -1.1104 9.7714 10.9324 4.15568
269 1 -1.1104 9.54727 5.40009 6.93554
652 2 2.2208 8.20504 9.64651 -0.261821
106 2 2.2208 5.4125 17.9871 5.32673
107 1 -1.1104 1.28999 13.9048 1.11763
109 1 -1.1104 1.02886 19.5624 1.16108
113 1 -1.1104 1.38263 13.856 3.87181
114 1 -1.1104 1.22089 19.6237 3.93896
116 1 -1.1104 1.16873 16.7142 1.16738
119 2 2.2208 5.38265 15.2298 2.66729
120 2 2.2208 5.32423 20.8283 2.74777
121 1 -1.1104 1.22238 16.6772 3.95655
123 1 -1.1104 4.09279 13.957 1.2158
125 1 -1.1104 3.89718 19.5439 1.34185
127 2 2.2208 2.51778 18.0574 2.66851
128 1 -1.1104 4.12134 13.8736 4.20467
129 1 -1.1104 3.809 19.443 4.02074
130 2 2.2208 2.56726 15.2501 5.51704
131 2 2.2208 2.52468 20.8916 5.50869
132 1 -1.1104 3.95448 16.6596 1.24149
134 1 -1.1104 3.85922 16.741 4.23884
302 1 -1.1104 1.25874 19.4489 6.84112
136 2 2.2208 -0.240889 20.9412 2.57313
137 2 2.2208 -0.223067 17.961 5.36347
135 2 2.2208 -0.181161 15.2179 2.62954
126 1 -1.1104 3.99611 19.4052 6.78562
331 2 2.2208 10.974 17.9795 11.1013
319 1 -1.1104 9.58247 13.8352 9.75747
139 1 -1.1104 6.78641 19.4976 3.90764
138 1 -1.1104 6.86076 19.6262 1.18573
122 1 -1.1104 6.77905 16.6812 3.94745
140 1 -1.1104 6.71723 16.8123 1.23563
115 1 -1.1104 6.93871 13.7637 4.06215
110 1 -1.1104 6.76864 13.789 1.36691
141 2 2.2208 10.9142 18.1418 5.40928
142 1 -1.1104 12.3769 13.8264 1.11845
144 1 -1.1104 12.396 19.439 1.25461
146 1 -1.1104 12.4419 14.0362 3.88038
147 1 -1.1104 12.3029 19.4397 4.05769
148 1 -1.1104 12.3411 16.5925 1.18872
150 2 2.2208 10.9819 15.2365 2.67148
151 2 2.2208 10.8925 20.8392 2.6048
152 1 -1.1104 12.3976 16.7903 4.07902
153 1 -1.1104 9.53101 13.9324 1.23177
155 1 -1.1104 9.5068 19.494 1.29059
157 2 2.2208 8.18474 18.0363 2.64842
158 1 -1.1104 9.68651 13.9474 4.07942
159 1 -1.1104 9.50085 19.6779 4.09273
160 2 2.2208 8.22312 15.2538 5.44884
161 2 2.2208 8.17789 21.0235 5.48687
162 1 -1.1104 9.55556 16.7491 1.13603
164 1 -1.1104 9.58284 16.7541 3.93254
112 1 -1.1104 6.88371 19.5874 6.82908
118 1 -1.1104 6.81206 16.7469 6.7933
317 2 2.2208 8.09719 15.2689 11.0806
653 2 2.2208 10.9415 12.5222 -0.248586
173 1 -1.1104 3.87275 2.68631 6.87549
167 1 -1.1104 1.14692 2.55575 6.93625
170 1 -1.1104 1.29425 -0.136668 6.92504
166 1 -1.1104 1.22775 -2.86705 6.67599
172 1 -1.1104 4.06863 -2.9568 6.82415
174 1 -1.1104 3.98156 -0.123579 6.81
175 2 2.2208 5.36259 1.31793 10.8991
176 1 -1.1104 1.25955 -2.8921 12.2605
177 1 -1.1104 1.46509 2.7192 12.3265
180 1 -1.1104 1.14988 -2.88495 9.46121
181 1 -1.1104 1.34271 2.71601 9.6146
184 1 -1.1104 1.11666 -0.044654 12.408
186 2 2.2208 5.41954 -1.64358 8.20005
187 2 2.2208 5.28309 4.2155 8.15588
188 1 -1.1104 1.12479 -0.152743 9.66907
190 1 -1.1104 3.95827 -2.9788 12.2969
191 1 -1.1104 4.16336 2.71115 12.3025
192 2 2.2208 2.65361 1.24302 8.27217
193 1 -1.1104 4.13762 -3.05853 9.4592
194 1 -1.1104 4.09496 2.82301 9.64433
195 2 2.2208 2.48139 -1.48891 11.0028
196 2 2.2208 2.62279 4.19746 10.9144
197 1 -1.1104 3.94978 -0.190463 12.2992
198 1 -1.1104 4.01513 -0.208736 9.51973
199 2 2.2208 -0.0648136 3.98689 8.10825
201 2 2.2208 -0.0905368 1.45019 11.048
200 2 2.2208 -0.329869 -1.42888 8.1417
183 1 -1.1104 6.78831 2.67171 9.51668
189 1 -1.1104 6.83411 -0.0993215 9.46018
707 2 2.2208 10.9285 18.0931 -0.123076
202 2 2.2208 2.57111 -4.33739 8.18839
204 2 2.2208 -0.227807 -4.25103 10.9964
684 2 2.2208 -0.232785 18.0377 -0.075215
316 2 2.2208 8.17786 20.9474 11.0323
168 1 -1.1104 6.93907 -2.8442 6.79265
210 1 -1.1104 9.63059 -0.112661 6.58367
206 1 -1.1104 12.4957 2.73271 6.68501
169 1 -1.1104 6.72243 2.81852 6.70853
208 1 -1.1104 9.67771 -2.85978 6.90074
178 1 -1.1104 6.78071 -2.76728 12.2279
205 1 -1.1104 12.4166 -3.05593 6.6962
171 1 -1.1104 6.67444 -0.0903808 6.82168
179 1 -1.1104 6.81758 2.76248 12.4672
209 1 -1.1104 9.44434 2.58084 6.64408
185 1 -1.1104 6.80378 -0.00762784 12.3695
182 1 -1.1104 6.91077 -3.07079 9.58507
211 2 2.2208 10.9675 1.42495 10.8786
212 1 -1.1104 12.4478 -2.86037 12.4647
213 1 -1.1104 12.4501 2.69068 12.4241
214 1 -1.1104 12.3911 -2.88557 9.53198
215 1 -1.1104 12.4061 2.72912 9.65672
216 1 -1.1104 12.4209 -0.132228 12.4516
217 2 2.2208 11.0652 -1.45779 8.14948
218 2 2.2208 10.9812 4.08734 8.17874
219 1 -1.1104 12.3868 -0.043397 9.46022
220 1 -1.1104 9.65704 -2.93755 12.4279
221 1 -1.1104 9.58533 2.68275 12.2913
222 2 2.2208 8.13929 1.33218 8.04231
223 1 -1.1104 9.70428 -2.75373 9.63129
224 1 -1.1104 9.55476 2.82921 9.55756
225 2 2.2208 8.25257 -1.42824 10.8239
226 2 2.2208 8.094 4.11119 11.0377
227 1 -1.1104 9.63165 -0.0819421 12.4038
228 1 -1.1104 9.63297 0.0762583 9.4589
329 1 -1.1104 12.3109 19.4809 12.5027
236 1 -1.1104 1.21033 5.41743 6.75724
78 1 -1.1104 3.91255 11.0267 6.90913
238 1 -1.1104 3.97767 8.21394 6.91398
239 1 -1.1104 3.96337 5.47096 6.88663
62 1 -1.1104 1.11835 10.9542 6.80888
234 1 -1.1104 1.12994 8.32908 6.73873
9509 2 2.2208 -0.240842 6.83416 10.9078
9508 2 2.2208 -0.231763 9.63914 8.18536
240 2 2.2208 5.24796 6.93893 10.9864
241 2 2.2208 5.18381 12.5899 11.0723
242 1 -1.1104 1.10101 8.25574 12.3795
244 1 -1.1104 1.17026 8.15899 9.47008
246 1 -1.1104 1.20457 5.42213 12.4566
247 1 -1.1104 0.966154 10.9016 12.3446
250 2 2.2208 5.41713 9.77877 8.44034
251 1 -1.1104 1.13183 5.42526 9.65198
252 1 -1.1104 1.14693 11.138 9.56549
255 1 -1.1104 3.78001 8.37427 12.3801
256 2 2.2208 2.56019 6.91451 8.11902
257 2 2.2208 2.52087 12.4708 8.2149
258 1 -1.1104 3.81932 8.34778 9.66358
259 2 2.2208 2.51715 9.70442 11.0256
260 1 -1.1104 3.96531 5.42833 12.3818
261 1 -1.1104 3.92824 11.0199 12.4336
262 1 -1.1104 3.98822 5.61249 9.58687
263 1 -1.1104 3.99616 11.1607 9.6313
318 1 -1.1104 9.56205 19.5272 9.78562
237 1 -1.1104 6.7919 5.51943 6.72505
265 1 -1.1104 12.3833 8.17647 6.68598
267 1 -1.1104 9.59346 8.22123 6.68235
90 1 -1.1104 12.4551 10.9098 6.82174
243 1 -1.1104 6.68834 8.2433 12.3596
101 1 -1.1104 9.60674 11.0308 6.92555
235 1 -1.1104 6.77609 8.36547 6.9726
65 1 -1.1104 6.75205 11.1811 6.87378
254 1 -1.1104 6.94478 11.1056 9.63809
248 1 -1.1104 6.61301 5.54702 12.5931
245 1 -1.1104 6.57262 8.30647 9.74433
249 1 -1.1104 6.75557 11.1784 12.4343
266 1 -1.1104 12.3038 5.44507 6.80321
253 1 -1.1104 6.77564 5.44775 9.66622
264 1 -1.1104 9.65405 11.1265 9.70483
268 1 -1.1104 9.47469 5.66556 9.71199
270 1 -1.1104 9.47643 11.1469 12.537
271 1 -1.1104 9.39375 5.54233 12.4418
272 2 2.2208 8.12817 9.75417 11.0683
273 1 -1.1104 9.37759 8.34589 9.57169
274 2 2.2208 8.21245 12.4622 8.25189
275 2 2.2208 8.16327 6.85821 8.28543
276 2 2.2208 10.9031 6.97873 11.039
277 2 2.2208 10.9454 12.4625 11.1939
278 1 -1.1104 12.2026 8.32931 12.4443
279 1 -1.1104 12.1897 8.23143 9.56982
280 1 -1.1104 12.3986 5.40262 12.4018
281 1 -1.1104 12.2431 10.9806 12.4794
282 2 2.2208 10.8838 9.45742 8.18154
283 1 -1.1104 12.3963 5.47432 9.40713
284 1 -1.1104 12.364 10.9157 9.67473
285 1 -1.1104 9.52141 8.29352 12.4312
290 1 -1.1104 6.67325 13.9862 9.55787
297 1 -1.1104 6.53142 13.9737 12.3696
313 2 2.2208 -0.263469 15.1266 8.12906
124 1 -1.1104 4.04609 13.9403 6.90174
117 1 -1.1104 1.19064 16.6465 6.88716
312 2 2.2208 -0.343028 18.0547 11.0651
311 2 2.2208 -0.290283 20.8023 8.19229
108 1 -1.1104 1.13848 13.6881 6.82436
133 1 -1.1104 3.97942 16.6065 6.92021
286 1 -1.1104 4.03779 19.5976 12.4073
287 1 -1.1104 3.7793 13.8892 12.4645
291 1 -1.1104 1.07037 19.2945 9.60299
292 1 -1.1104 1.02926 16.5774 9.77846
293 2 2.2208 5.32534 20.9225 8.2002
294 1 -1.1104 1.09847 13.8239 9.62113
295 2 2.2208 5.42127 15.4074 8.37636
298 1 -1.1104 1.19196 19.5733 12.532
299 1 -1.1104 1.05023 13.7716 12.342
300 2 2.2208 5.34922 18.2652 11.0779
301 1 -1.1104 3.95047 19.568 9.55904
303 2 2.2208 2.58653 18.0042 8.34566
304 1 -1.1104 3.97899 16.7937 9.71077
305 1 -1.1104 3.90134 14.0251 9.86507
307 1 -1.1104 1.15676 16.5571 12.5151
308 1 -1.1104 3.81294 16.7339 12.449
309 2 2.2208 2.52445 20.8244 11.0022
310 2 2.2208 2.4888 15.3634 11.1363
328 1 -1.1104 12.6529 13.9049 9.41525
321 1 -1.1104 9.67336 19.3102 12.5884
145 1 -1.1104 12.4613 19.4632 6.6586
327 1 -1.1104 12.4238 19.5014 9.65023
326 1 -1.1104 12.2629 16.7026 12.4531
289 1 -1.1104 6.7024 16.7514 9.67435
325 2 2.2208 11.0135 15.283 8.26684
320 2 2.2208 8.28749 18.179 8.2231
149 1 -1.1104 12.3275 16.784 7.01811
163 1 -1.1104 9.51307 16.7241 6.7711
330 1 -1.1104 12.3251 13.9629 12.4457
322 1 -1.1104 9.32648 13.8572 12.5932
323 1 -1.1104 12.5306 16.6236 9.73711
314 1 -1.1104 9.54726 16.7383 9.57328
111 1 -1.1104 6.74372 14.0378 6.82529
315 1 -1.1104 9.51311 16.6445 12.2871
324 2 2.2208 11.0358 20.9693 8.15532
156 1 -1.1104 9.65737 19.5744 6.94312
154 1 -1.1104 9.57293 13.8222 6.86083
306 1 -1.1104 6.58847 16.777 12.4589
288 1 -1.1104 6.86588 19.5729 9.64085
296 1 -1.1104 6.75755 19.5464 12.3784
706 2 2.2208 8.13112 20.9842 -0.071275
203 2 2.2208 5.49456 -4.24139 10.9812
564 2 2.2208 -0.153307 -4.38082 -0.204916
626 2 2.2208 5.24481 6.79782 -0.184856
682 2 2.2208 2.54553 15.3633 -0.303368
680 2 2.2208 2.51646 20.9035 -0.241944
231 2 2.2208 8.19607 -4.24679 8.09985
651 2 2.2208 10.9738 6.92535 -0.271438
563 2 2.2208 2.43253 4.01152 -0.198199
408 2 2.2208 10.9996 -1.46211 13.9279
334 2 2.2208 5.5226 1.28403 16.6919
335 1 -1.1104 1.38644 -2.86309 17.9762
336 1 -1.1104 1.28623 2.74115 17.9634
339 1 -1.1104 1.22253 -3.14668 15.1557
341 1 -1.1104 1.16651 2.73573 15.2058
347 1 -1.1104 1.20371 -0.0406645 18.0495
349 2 2.2208 5.33676 -1.5438 19.3711
350 2 2.2208 5.42651 4.10361 19.5824
351 1 -1.1104 1.259 -0.27331 15.1241
355 1 -1.1104 4.15583 -3.00173 17.9863
356 1 -1.1104 4.06639 2.68415 18.0223
357 2 2.2208 2.66976 1.21747 19.454
358 1 -1.1104 3.94353 -2.83611 15.0608
360 1 -1.1104 3.96543 2.75868 15.2145
362 2 2.2208 2.61592 -1.52419 16.5462
363 2 2.2208 2.66213 4.12366 16.6543
364 1 -1.1104 3.91959 -0.212302 17.9553
365 1 -1.1104 4.04077 -0.0241756 15.3041
371 2 2.2208 0.0216386 -1.492 19.405
9647 2 2.2208 -0.227169 4.12213 19.4402
376 2 2.2208 5.45752 4.11095 13.8695
370 2 2.2208 -0.149338 1.18385 16.6951
709 2 2.2208 13.892 21.069 22.2649
372 2 2.2208 -0.209201 -1.51367 13.7832
373 2 2.2208 2.68984 -4.42214 13.7172
367 2 2.2208 -0.149983 -4.38509 16.6592
533 2 2.2208 10.9866 20.9209 13.8408
9651 2 2.2208 -0.164446 4.07838 13.8595
9678 2 2.2208 13.8981 9.61359 16.6323
375 2 2.2208 2.63385 1.35311 13.8069
567 2 2.2208 5.44266 -4.34036 22.2327
444 2 2.2208 5.24349 9.73668 13.8946
337 1 -1.1104 6.95088 -2.91771 18.0327
345 1 -1.1104 7.02332 2.5237 15.2956
348 1 -1.1104 6.66218 -0.114476 18.2412
343 1 -1.1104 6.73851 -2.97942 15.1969
353 1 -1.1104 6.71373 -0.0279882 15.2126
338 1 -1.1104 6.93319 2.67506 18.172
377 2 2.2208 11.1497 1.41334 16.6631
378 1 -1.1104 12.4581 -2.79919 17.9866
379 1 -1.1104 12.3941 2.81236 18.1285
380 1 -1.1104 12.3749 -2.84207 15.1862
382 1 -1.1104 12.5014 2.60956 15.1615
384 1 -1.1104 12.3966 -0.157808 17.9581
385 2 2.2208 10.9322 -1.54383 19.4706
386 2 2.2208 11.0075 4.04404 19.5085
387 1 -1.1104 12.51 -0.119876 15.3412
389 1 -1.1104 9.69657 -2.96813 18.0057
390 1 -1.1104 9.65935 2.67884 18.1049
391 2 2.2208 8.30399 1.21523 19.4949
392 1 -1.1104 9.59305 -2.83095 15.3119
394 1 -1.1104 9.70851 2.73614 15.2434
396 2 2.2208 8.2666 -1.46305 16.5528
398 1 -1.1104 9.52737 -0.12886 17.905
399 1 -1.1104 9.5416 -0.0888876 15.2355
397 2 2.2208 8.2319 4.00868 16.7412
565 2 2.2208 -0.159405 -4.48868 22.2659
409 2 2.2208 11.0531 4.09456 13.7866
410 2 2.2208 5.49852 6.84948 16.7286
411 2 2.2208 5.38664 12.5392 16.8576
412 1 -1.1104 1.22822 8.35855 17.9464
414 1 -1.1104 1.09329 8.47175 15.2199
418 1 -1.1104 1.1196 5.51142 17.9575
419 1 -1.1104 1.22555 11.159 18.0335
422 2 2.2208 5.49351 9.79872 19.5728
423 1 -1.1104 1.31228 5.6522 15.2731
425 1 -1.1104 1.13062 11.2241 15.1665
431 1 -1.1104 4.01683 8.36787 18.0728
432 2 2.2208 2.68034 6.87136 19.3674
433 2 2.2208 2.53117 12.4686 19.4871
434 1 -1.1104 3.92551 8.24432 15.264
436 2 2.2208 2.62496 9.75064 16.6967
437 1 -1.1104 4.08815 5.41342 18.1482
438 1 -1.1104 3.98602 11.1349 17.9953
439 1 -1.1104 3.97648 5.44888 15.2116
441 1 -1.1104 3.97073 11.2478 15.3229
472 2 2.2208 8.06526 12.6189 13.9721
9720 2 2.2208 -0.259587 6.92247 16.4986
9685 2 2.2208 -0.27454 12.4534 16.6806
369 2 2.2208 2.69799 -4.34826 19.3707
404 2 2.2208 8.15316 -4.30371 13.832
570 2 2.2208 -0.232196 -1.55036 25.0953
435 1 -1.1104 3.9795 8.17438 20.8519
413 1 -1.1104 6.70604 8.33349 18.0777
421 1 -1.1104 6.93198 11.1904 18.1713
416 1 -1.1104 6.78308 8.34829 15.2412
429 1 -1.1104 6.58798 11.1413 15.213
420 1 -1.1104 6.84199 5.31955 18.1156
427 1 -1.1104 6.87146 5.54306 15.309
446 2 2.2208 11.079 6.79017 16.617
447 2 2.2208 11.0068 12.6263 16.7547
448 1 -1.1104 12.4298 8.36359 18.1153
449 1 -1.1104 12.3266 8.44271 15.2448
451 1 -1.1104 12.5173 5.39838 18.1315
452 1 -1.1104 12.4783 11.0182 18.109
453 2 2.2208 10.9954 9.65057 19.5891
454 1 -1.1104 12.4285 5.4119 15.3142
456 1 -1.1104 12.3403 11.2154 15.2501
458 1 -1.1104 9.48128 8.30812 18.0699
459 2 2.2208 8.33423 6.81733 19.4918
460 2 2.2208 8.42209 12.6168 19.5939
461 1 -1.1104 9.59761 8.31036 15.1602
463 2 2.2208 8.1366 9.73429 16.6756
464 1 -1.1104 9.68341 5.50956 18.1139
465 1 -1.1104 9.7305 11.1267 18.1562
466 1 -1.1104 9.70804 5.55606 15.238
468 1 -1.1104 9.42436 11.1811 15.281
470 2 2.2208 8.01299 6.9307 13.8818
508 2 2.2208 5.35493 15.3854 13.9903
507 2 2.2208 5.45408 20.9079 13.8533
473 2 2.2208 5.36141 18.3087 16.8182
474 1 -1.1104 1.06232 14.0106 18.1256
475 1 -1.1104 1.03942 19.5281 17.9776
478 1 -1.1104 1.1066 14.0225 15.2718
480 1 -1.1104 1.09841 19.4976 15.2882
486 1 -1.1104 1.03344 16.9251 18.1963
488 2 2.2208 5.37425 15.2078 19.5552
489 2 2.2208 5.40363 20.936 19.4712
490 1 -1.1104 1.06139 16.6461 15.3347
494 1 -1.1104 3.95296 13.8823 18.1621
495 1 -1.1104 3.85593 19.7209 18.0303
496 2 2.2208 2.45723 18.3019 19.4559
497 1 -1.1104 3.77816 14.1197 15.3029
499 1 -1.1104 3.89974 19.57 15.3503
501 2 2.2208 2.44932 15.4117 16.7434
502 2 2.2208 2.56544 20.9282 16.5802
503 1 -1.1104 4.00892 16.7934 18.0624
504 1 -1.1104 3.93366 16.7937 15.3989
9791 2 2.2208 -0.328503 18.0721 16.684
9789 2 2.2208 -0.277868 21.1085 19.3578
9790 2 2.2208 -0.267819 15.3494 19.5192
506 2 2.2208 2.51542 18.0504 13.9225
505 1 -1.1104 3.94974 16.759 20.7924
479 1 -1.1104 1.28459 13.7878 20.8973
9792 2 2.2208 -0.320829 15.2254 13.7986
471 2 2.2208 10.8827 9.77352 13.9803
374 2 2.2208 5.317 -1.51567 13.775
487 1 -1.1104 6.90968 16.8781 18.103
484 1 -1.1104 6.78638 19.4498 15.3002
476 1 -1.1104 6.94245 13.9012 18.1949
482 1 -1.1104 6.63964 14.014 15.3339
492 1 -1.1104 6.6413 16.8085 15.378
477 1 -1.1104 6.66596 19.4955 18.0805
509 2 2.2208 11.038 18.1637 16.7401
510 1 -1.1104 12.4421 13.9157 18.0169
511 1 -1.1104 12.2202 19.4469 18.069
512 1 -1.1104 12.3132 14.0112 15.1815
514 1 -1.1104 12.2771 19.5594 15.315
516 1 -1.1104 12.5174 16.6674 18.1072
517 2 2.2208 11.0989 15.4194 19.5373
518 2 2.2208 11.0817 20.9083 19.4471
519 1 -1.1104 12.2081 16.6944 15.3639
521 1 -1.1104 9.74276 14.0537 18.0566
522 1 -1.1104 9.49591 19.4907 18.1637
523 2 2.2208 8.24806 18.1401 19.5206
524 1 -1.1104 9.40926 13.9843 15.3018
526 1 -1.1104 9.62178 19.4845 15.3499
528 2 2.2208 8.18174 15.4181 16.6575
529 2 2.2208 8.19447 20.8057 16.7072
530 1 -1.1104 9.86264 16.7097 18.039
531 1 -1.1104 9.5635 16.8106 15.0487
535 2 2.2208 8.06387 18.1715 13.8067
407 2 2.2208 8.24427 1.29459 13.7492
366 1 -1.1104 4.08724 -0.138528 20.8517
342 1 -1.1104 1.22012 2.60588 20.7455
572 2 2.2208 -0.214208 4.06321 25.0531
361 1 -1.1104 4.00536 2.72517 21.0031
359 1 -1.1104 4.10029 -2.96751 20.8033
571 2 2.2208 -0.128247 1.31705 22.1341
340 1 -1.1104 1.34597 -2.9874 20.7939
352 1 -1.1104 1.28172 -0.180386 20.8406
537 2 2.2208 5.34685 1.27803 22.3848
538 1 -1.1104 1.23706 -2.91614 23.6701
539 1 -1.1104 1.17993 2.76612 23.5928
542 1 -1.1104 1.28292 -2.86344 26.4927
543 1 -1.1104 1.18055 2.71459 26.3684
546 1 -1.1104 1.13469 -0.14054 23.5822
548 2 2.2208 5.29026 -1.55671 24.9994
549 2 2.2208 5.44637 4.00988 25.0573
550 1 -1.1104 1.20346 -0.0491041 26.4293
552 1 -1.1104 3.9527 -2.96459 23.7167
553 1 -1.1104 3.91655 2.57086 23.7862
554 2 2.2208 2.55466 1.32391 25.0697
555 1 -1.1104 4.06532 -3.08732 26.4594
556 1 -1.1104 3.98801 2.66814 26.3979
557 2 2.2208 2.74013 -1.54514 22.2458
558 2 2.2208 2.62479 4.06117 22.2653
559 1 -1.1104 4.01426 -0.240241 23.6793
560 1 -1.1104 3.98469 -0.21339 26.3568
534 2 2.2208 10.8801 15.3605 13.854
705 2 2.2208 11.0856 18.1996 22.243
346 1 -1.1104 6.91771 2.67145 21.0591
354 1 -1.1104 7.04493 -0.159558 20.8266
381 1 -1.1104 12.3903 -2.81461 20.8621
393 1 -1.1104 9.4842 -2.7378 20.8188
344 1 -1.1104 6.80873 -2.98312 20.7366
395 1 -1.1104 9.64266 2.79419 20.8472
547 1 -1.1104 6.77849 -0.0943509 23.6432
551 1 -1.1104 6.7724 -0.271817 26.4739
400 1 -1.1104 9.76868 -0.0532296 20.8624
541 1 -1.1104 6.77783 2.74862 23.6289
545 1 -1.1104 6.76304 2.66559 26.3223
540 1 -1.1104 6.81925 -2.93961 23.5135
388 1 -1.1104 12.4821 0.143327 20.9473
383 1 -1.1104 12.4932 2.75714 20.7814
544 1 -1.1104 6.80701 -2.78944 26.411
573 2 2.2208 11.0241 1.22683 22.2223
574 1 -1.1104 12.4591 -2.76774 23.7091
575 1 -1.1104 12.4143 2.70529 23.6138
576 1 -1.1104 12.3815 -2.9166 26.5343
577 1 -1.1104 12.4816 2.69679 26.4103
578 1 -1.1104 12.5114 -0.139819 23.7384
579 2 2.2208 11.1014 -1.47497 25.1613
580 2 2.2208 10.9626 4.16091 25.0806
581 1 -1.1104 12.4081 -0.0130725 26.295
582 1 -1.1104 9.67247 -2.83055 23.6499
583 1 -1.1104 9.62703 2.7137 23.7051
584 2 2.2208 8.30396 1.31103 25.0459
585 1 -1.1104 9.62554 -3.09728 26.4053
586 1 -1.1104 9.66731 2.68104 26.53
587 2 2.2208 8.21789 -1.52733 22.2144
588 2 2.2208 8.22599 4.15205 22.2411
589 1 -1.1104 9.68777 -0.101412 23.7075
590 1 -1.1104 9.64599 -0.183865 26.5357
440 1 -1.1104 3.95726 5.47079 20.8853
631 2 2.2208 -0.279163 12.4237 22.3405
424 1 -1.1104 1.26294 5.50444 20.8324
442 1 -1.1104 3.89281 11.0739 20.8501
9898 2 2.2208 -0.259512 6.85917 22.0857
426 1 -1.1104 1.12277 10.9302 20.755
415 1 -1.1104 1.10264 8.21757 20.8248
602 2 2.2208 5.36732 6.89767 22.3774
603 2 2.2208 5.37475 12.4593 22.3839
604 1 -1.1104 1.18969 8.31213 23.5679
606 1 -1.1104 1.11007 8.39156 26.5059
608 1 -1.1104 1.18308 5.48392 23.6131
609 1 -1.1104 1.17198 11.1152 23.5415
612 2 2.2208 5.24812 9.65705 25.1344
613 1 -1.1104 1.16111 5.57032 26.4977
614 1 -1.1104 1.30119 11.1115 26.3755
617 1 -1.1104 4.04378 8.27641 23.6517
618 2 2.2208 2.53252 6.84469 24.9903
619 2 2.2208 2.551 12.5856 25.038
620 1 -1.1104 3.89432 8.25299 26.3277
621 2 2.2208 2.4976 9.6099 22.2378
622 1 -1.1104 3.98277 5.46698 23.7104
623 1 -1.1104 3.88733 11.1609 23.7105
624 1 -1.1104 3.77997 5.55986 26.5671
625 1 -1.1104 4.00427 11.0963 26.4292
630 2 2.2208 -0.194413 9.61596 24.9296
469 1 -1.1104 9.67538 11.3359 21.0553
417 1 -1.1104 6.83371 8.30135 20.8947
457 1 -1.1104 12.4411 11.1373 20.8855
455 1 -1.1104 12.4812 5.52968 20.9266
616 1 -1.1104 6.86642 10.9776 26.4337
430 1 -1.1104 6.79053 11.2366 21.0058
428 1 -1.1104 6.81577 5.46384 20.806
450 1 -1.1104 12.3112 8.42148 20.9262
462 1 -1.1104 9.57338 8.34149 20.9408
611 1 -1.1104 6.77728 11.0774 23.7139
607 1 -1.1104 6.65097 8.16255 26.5076
610 1 -1.1104 6.74481 5.51727 23.707
467 1 -1.1104 9.63911 5.59079 20.9225
605 1 -1.1104 6.68603 8.45348 23.8189
615 1 -1.1104 6.71713 5.43968 26.4499
633 1 -1.1104 9.72382 11.0946 26.4483
634 1 -1.1104 9.46181 5.53497 26.4034
635 1 -1.1104 9.66937 10.8774 23.6261
636 1 -1.1104 9.36871 5.38721 23.7255
637 2 2.2208 8.11794 9.60814 22.2968
638 1 -1.1104 9.44065 8.34781 26.3241
639 2 2.2208 8.29615 12.4194 25.0071
640 2 2.2208 8.07826 6.87135 25.0898
641 2 2.2208 11.0264 6.8485 22.281
642 2 2.2208 11.1189 12.5023 22.4499
643 1 -1.1104 12.4072 8.34824 23.7308
644 1 -1.1104 12.3385 8.32688 26.4002
645 1 -1.1104 12.2795 5.75496 23.7926
646 1 -1.1104 12.5379 11.2547 23.7304
647 2 2.2208 11.0098 9.71483 25.0471
648 1 -1.1104 12.2478 5.46509 26.4513
649 1 -1.1104 12.4966 11.2639 26.4606
650 1 -1.1104 9.62084 8.15815 23.7156
696 1 -1.1104 9.69249 13.7996 23.8251
500 1 -1.1104 3.93542 19.7253 20.9756
491 1 -1.1104 1.21529 16.76 20.9644
683 2 2.2208 -0.211897 15.2246 25.0813
481 1 -1.1104 1.07098 19.6855 20.8045
498 1 -1.1104 4.02902 13.7547 21.0337
669 1 -1.1104 1.21243 13.9362 23.7394
678 2 2.2208 2.61536 21.0065 22.2623
677 1 -1.1104 3.92604 16.7933 23.5993
671 1 -1.1104 3.92009 19.4639 26.5523
676 1 -1.1104 1.05299 16.8924 23.631
679 2 2.2208 2.53736 15.2884 22.3729
672 2 2.2208 2.54072 18.1738 24.9739
673 1 -1.1104 3.96514 16.6188 26.3316
674 1 -1.1104 4.06614 13.8152 26.5198
670 2 2.2208 5.37049 18.2215 22.2113
657 1 -1.1104 4.12664 19.5187 23.6745
659 1 -1.1104 3.95763 14.0062 23.8025
661 1 -1.1104 1.11396 19.396 26.4251
662 1 -1.1104 1.08795 16.5756 26.409
663 1 -1.1104 1.20278 13.8772 26.4439
665 2 2.2208 5.58229 20.9577 25.1118
666 2 2.2208 5.50728 15.2719 25.2014
668 1 -1.1104 1.29851 19.6666 23.6837
685 2 2.2208 -0.255999 20.9718 24.9723
686 2 2.2208 -0.282319 18.2366 22.1468
658 1 -1.1104 6.98412 13.6557 26.5669
689 2 2.2208 8.2407 21.0056 22.2913
675 1 -1.1104 6.94402 16.7953 23.6957
660 1 -1.1104 6.8356 16.6244 26.5318
693 1 -1.1104 6.73301 19.4383 26.3769
667 1 -1.1104 6.77684 13.9019 23.753
695 1 -1.1104 9.53034 19.6123 23.639
687 1 -1.1104 9.66982 16.581 26.5068
485 1 -1.1104 6.80077 19.5454 20.7464
483 1 -1.1104 6.88428 14.0461 20.9629
515 1 -1.1104 12.4432 19.7024 20.8723
527 1 -1.1104 9.68173 19.4762 20.8763
513 1 -1.1104 12.5403 13.9827 20.9431
692 1 -1.1104 9.69559 13.8851 26.5022
532 1 -1.1104 9.73187 16.8319 20.8119
691 1 -1.1104 9.57991 19.543 26.5158
703 1 -1.1104 12.3394 19.5523 23.7028
704 1 -1.1104 12.541 14.0309 23.7908
525 1 -1.1104 9.73043 14.1808 20.8872
702 1 -1.1104 12.5123 13.9314 26.4908
664 1 -1.1104 6.8216 19.6336 23.6217
698 2 2.2208 11.0419 20.9487 24.9895
493 1 -1.1104 6.77026 16.8045 21.0389
690 2 2.2208 8.20043 15.4544 22.4194
688 1 -1.1104 9.63558 16.6381 23.6739
520 1 -1.1104 12.5032 16.8498 20.9869
699 2 2.2208 11.0698 15.3172 25.0289
700 1 -1.1104 12.5028 16.693 23.6412
697 1 -1.1104 12.3339 16.8833 26.4099
701 1 -1.1104 12.4243 19.6302 26.5576
694 2 2.2208 8.2522 18.1137 25.046
9793 2 2.2208 -0.217776 20.8435 13.8978
403 2 2.2208 8.22204 -4.31537 19.433
445 2 2.2208 2.43262 12.5995 14.0165
443 2 2.2208 2.51432 6.88352 13.6914
714 2 2.2208 5.34182 23.6414 5.36344
715 2 2.2208 5.33424 29.2864 5.44893
716 1 -1.1104 1.12912 25.1364 1.22668
717 1 -1.1104 1.12271 25.0425 4.05875
718 1 -1.1104 1.03875 22.4272 1.24382
719 1 -1.1104 1.28347 28.0509 1.2727
720 2 2.2208 5.25262 26.5308 2.7426
721 1 -1.1104 1.19514 22.3718 4.00632
722 1 -1.1104 1.08742 27.8355 4.08577
723 1 -1.1104 3.88571 25.0604 1.24788
724 2 2.2208 2.4484 23.6933 2.73574
725 2 2.2208 2.59809 29.3097 2.64518
726 1 -1.1104 3.90166 25.1172 3.97721
727 2 2.2208 2.44235 26.5368 5.45676
728 1 -1.1104 3.87668 22.3569 1.23623
729 1 -1.1104 4.04113 27.8583 1.39566
730 1 -1.1104 4.01391 22.2771 4.11419
731 1 -1.1104 3.9215 27.9162 4.20503
863 1 -1.1104 3.8925 28.0527 6.89881
862 1 -1.1104 3.90519 22.2569 6.88549
855 1 -1.1104 1.1174 25.1135 6.82468
1061 2 2.2208 -0.19344 40.6862 -0.379581
732 2 2.2208 -0.265362 29.2922 5.36737
733 2 2.2208 -0.274881 23.7276 5.35061
734 2 2.2208 -0.259681 26.5218 2.5338
1279 2 2.2208 -0.308231 23.7556 -0.193868
736 1 -1.1104 6.7803 25.0345 4.05153
739 1 -1.1104 6.77768 22.1407 3.88853
740 1 -1.1104 6.77334 27.71 3.99135
738 1 -1.1104 6.76181 27.9737 1.19943
737 1 -1.1104 6.73294 22.3864 1.15297
856 1 -1.1104 6.69341 25.1074 6.96251
735 1 -1.1104 6.69863 25.2755 1.26909
741 2 2.2208 11.036 23.6825 5.39288
742 2 2.2208 11.0454 29.2336 5.35596
743 1 -1.1104 12.3411 25.1057 1.30243
744 1 -1.1104 12.473 25.011 4.08497
745 1 -1.1104 12.5149 22.2681 1.2509
746 1 -1.1104 12.2644 27.8969 1.19354
747 2 2.2208 10.9564 26.4412 2.65958
748 1 -1.1104 12.3627 22.3586 4.02256
749 1 -1.1104 12.4599 27.8168 3.93075
750 1 -1.1104 9.56336 25.0105 1.32755
751 2 2.2208 8.12354 23.6761 2.60154
752 2 2.2208 8.16255 29.1737 2.73298
753 1 -1.1104 9.66468 25.0414 4.02335
754 2 2.2208 8.16744 26.4185 5.37312
755 1 -1.1104 9.56836 22.3737 1.2018
756 1 -1.1104 9.54171 27.8915 1.36585
757 1 -1.1104 9.55058 22.3175 3.95072
758 1 -1.1104 9.53731 27.8564 4.05122
860 1 -1.1104 6.60185 27.9117 6.82408
891 1 -1.1104 9.65078 25.1706 6.73495
889 1 -1.1104 12.4665 22.194 6.70457
1018 1 -1.1104 12.5053 44.4919 12.392
1592 1 -1.1104 4.04807 47.3738 6.63207
785 2 2.2208 -0.235378 34.8041 5.30026
783 2 2.2208 -0.251812 37.7532 2.52802
762 2 2.2208 5.40963 34.8632 5.27517
763 1 -1.1104 1.26689 30.747 1.21478
764 1 -1.1104 1.18268 36.3864 1.02691
766 1 -1.1104 1.19889 30.6713 4.00135
767 1 -1.1104 1.06084 36.3112 4.03178
769 1 -1.1104 1.05839 33.5907 1.05081
770 2 2.2208 5.37321 32.1174 2.55562
771 2 2.2208 5.30519 37.7966 2.52231
772 1 -1.1104 1.30008 33.4058 3.89643
774 1 -1.1104 4.05956 30.7358 1.26533
775 1 -1.1104 3.98072 36.3418 1.18903
776 2 2.2208 2.45411 34.9142 2.49872
777 1 -1.1104 4.04468 30.7009 3.95122
778 1 -1.1104 3.87726 36.2024 3.87295
779 2 2.2208 2.56228 31.96 5.32824
780 2 2.2208 2.56887 37.7035 5.28246
781 1 -1.1104 4.02443 33.4653 1.20367
782 1 -1.1104 4.12968 33.3344 3.9694
784 2 2.2208 -0.235807 31.9616 2.53301
916 1 -1.1104 1.07954 33.332 6.59795
918 1 -1.1104 4.08231 30.7829 6.83114
912 1 -1.1104 1.20742 30.4433 6.80826
1019 1 -1.1104 12.3633 39.0655 12.5109
1011 1 -1.1104 9.57087 42.0672 9.68761
787 1 -1.1104 6.87998 30.4462 4.13427
788 1 -1.1104 6.84883 33.4672 1.28852
773 1 -1.1104 6.8298 33.3561 4.02287
768 1 -1.1104 6.85793 36.1303 4.03809
765 1 -1.1104 6.65797 36.3289 1.29296
786 1 -1.1104 6.74127 30.6929 1.26351
789 2 2.2208 11.0613 34.7029 5.50059
790 1 -1.1104 12.1933 30.6969 1.28242
791 1 -1.1104 12.3576 36.3261 1.36593
792 1 -1.1104 12.364 30.5913 3.99766
793 1 -1.1104 12.3133 36.1112 4.10428
794 1 -1.1104 12.355 33.4229 1.25732
795 2 2.2208 10.9593 32.1332 2.62412