ITEM: TIMESTEP
40000
ITEM: NUMBER OF ATOMS
17910
ITEM: BOX BOUNDS pp pp pp
-3.6110274167429512e-01 2.7701102741673715e+01
-4.3416398004573402e+00 3.3242163980046291e+02
-3.5583666563811467e-01 2.7695836665638566e+01
ITEM: ATOMS id type q x y z
1 2 2.2208 5.31317 1.26886 5.19286
2 1 -1.1104 1.12157 -2.84415 0.933626
3 1 -1.1104 1.19479 2.7318 1.03954
6 1 -1.1104 1.13164 -2.80828 3.89589
7 1 -1.1104 1.09073 2.74254 3.8063
10 1 -1.1104 1.16436 -0.0729019 1.14066
12 2 2.2208 5.32822 -1.48775 2.47208
13 2 2.2208 5.34814 4.20233 2.35117
14 1 -1.1104 1.0541 -0.0362485 3.79227
16 1 -1.1104 3.93759 -2.95349 1.13234
17 1 -1.1104 3.94637 2.90559 0.921481
18 2 2.2208 2.51293 1.41814 2.27645
19 1 -1.1104 3.9455 -2.89432 3.90265
20 1 -1.1104 3.87064 2.8429 3.69546
21 2 2.2208 2.37459 -1.41509 5.24006
23 1 -1.1104 4.06963 -0.0254559 0.98232
24 1 -1.1104 3.97875 0.0517147 3.66455
169 1 -1.1104 6.5885 2.78595 6.67518
9 1 -1.1104 6.69412 2.7719 3.88695
173 1 -1.1104 3.78708 2.5567 6.44837
172 1 -1.1104 3.76148 -2.92479 6.72777
5 1 -1.1104 6.66284 2.84563 1.08735
8 1 -1.1104 6.80462 -2.93043 3.90082
11 1 -1.1104 6.74677 0.017887 1.08064
22 2 2.2208 2.44971 4.11303 5.28349
174 1 -1.1104 3.96591 -0.306344 6.4516
166 1 -1.1104 1.06435 -2.90608 6.68746
171 1 -1.1104 6.78883 -0.0603573 6.49729
29 2 2.2208 5.29347 -4.36827 5.29284
9508 2 2.2208 -0.418052 9.73553 8.13004
4 1 -1.1104 6.77155 -2.85695 1.12238
15 1 -1.1104 6.68611 -0.0118361 3.86421
31 2 2.2208 11.0114 1.4295 5.17948
32 1 -1.1104 12.3401 -2.80052 1.1184
33 1 -1.1104 12.2825 2.81789 1.0831
34 1 -1.1104 12.3171 -2.8076 3.94106
35 1 -1.1104 12.504 2.8106 3.81332
36 1 -1.1104 12.4666 -0.0749724 1.15471
37 2 2.2208 10.9613 -1.50605 2.50954
38 2 2.2208 10.9695 4.04444 2.38167
39 1 -1.1104 12.2863 -0.0968435 3.8814
40 1 -1.1104 9.54312 -2.90479 0.978493
41 1 -1.1104 9.48619 2.7659 1.08911
42 2 2.2208 8.01288 1.29553 2.48272
43 1 -1.1104 9.59293 -2.8923 3.68473
44 1 -1.1104 9.56685 2.80774 3.96753
45 2 2.2208 8.20966 -1.41897 5.08577
46 2 2.2208 8.05725 4.1581 5.33171
47 1 -1.1104 9.47183 -0.13917 1.04818
48 1 -1.1104 9.59299 -0.0527812 3.73394
206 1 -1.1104 12.4343 2.94074 6.76226
28 2 2.2208 2.64826 -4.17606 2.57067
680 2 2.2208 2.38911 20.9105 -0.427024
136 2 2.2208 -0.284748 21.0459 2.32834
210 1 -1.1104 9.73899 -0.123954 6.47433
205 1 -1.1104 12.2764 -2.83421 6.71956
332 2 2.2208 13.7239 18.1131 7.96679
232 2 2.2208 10.8399 -4.22869 10.9982
52 2 2.2208 10.8955 -4.19721 5.26901
203 2 2.2208 5.25672 -4.23253 10.8114
54 2 2.2208 5.21912 6.8745 5.22303
55 2 2.2208 5.41465 12.4288 5.28529
56 1 -1.1104 1.1036 8.58417 1.27274
58 1 -1.1104 1.08934 8.41462 3.91783
60 1 -1.1104 1.1932 5.68786 1.04613
61 1 -1.1104 1.06301 11.3083 1.11553
66 2 2.2208 5.31506 9.68566 2.49689
67 1 -1.1104 0.972846 5.58933 3.7901
68 1 -1.1104 1.10424 11.2232 3.78855
71 1 -1.1104 3.99057 8.51654 1.10971
72 2 2.2208 2.44939 7.13423 2.44574
73 2 2.2208 2.47032 12.6663 2.41483
74 1 -1.1104 4.0041 8.47568 3.92874
75 2 2.2208 2.51945 9.90517 5.37883
76 1 -1.1104 3.92806 5.74253 0.940924
77 1 -1.1104 3.97006 11.1982 1.0428
79 1 -1.1104 3.83194 5.6993 3.75597
80 1 -1.1104 3.84813 11.2018 3.89307
238 1 -1.1104 3.7929 8.28596 6.60259
239 1 -1.1104 3.94355 5.32388 6.5324
62 1 -1.1104 1.14996 11.1865 6.72724
70 1 -1.1104 6.66149 10.9738 3.89824
69 1 -1.1104 6.80961 5.48216 3.86554
59 1 -1.1104 6.7428 8.26736 3.87045
235 1 -1.1104 6.75545 8.34758 6.62482
65 1 -1.1104 6.67964 11.1176 6.81512
236 1 -1.1104 1.11333 5.5392 6.64665
63 1 -1.1104 6.7543 5.74184 1.19658
57 1 -1.1104 6.69512 8.3767 1.09805
237 1 -1.1104 6.73762 5.5652 6.74582
64 1 -1.1104 6.88431 11.1541 0.925438
84 2 2.2208 11.0592 6.83124 5.38854
85 2 2.2208 10.9325 12.5124 5.31232
86 1 -1.1104 12.2472 8.44868 0.995744
87 1 -1.1104 12.3311 8.34129 3.93501
88 1 -1.1104 12.2643 5.54108 1.08998
89 1 -1.1104 12.4336 11.2919 0.983251
91 2 2.2208 10.8801 9.65329 2.45338
92 1 -1.1104 12.3007 5.55554 3.86925
93 1 -1.1104 12.4656 11.1707 3.91223
94 1 -1.1104 9.45613 8.40065 1.05858
95 2 2.2208 8.14767 6.87955 2.50647
96 2 2.2208 8.10948 12.4756 2.41369
97 1 -1.1104 9.6159 8.54241 3.85481
98 2 2.2208 8.11329 9.76667 5.22311
99 1 -1.1104 9.51104 5.44682 1.17573
100 1 -1.1104 9.7504 11.1065 0.967305
102 1 -1.1104 9.5508 5.60376 4.03377
103 1 -1.1104 9.50216 11.1937 3.72919
265 1 -1.1104 12.3864 8.38888 6.58857
652 2 2.2208 8.11912 9.66633 -0.364677
202 2 2.2208 2.39136 -4.30916 8.03369
51 2 2.2208 8.00653 -4.32694 2.40802
267 1 -1.1104 9.57857 8.27195 6.61142
101 1 -1.1104 9.51722 11.0632 6.57687
199 2 2.2208 -0.361821 4.21805 8.00003
106 2 2.2208 5.27033 18.1714 5.38519
107 1 -1.1104 1.11343 14.1759 1.16073
109 1 -1.1104 1.0932 19.5515 1.08141
113 1 -1.1104 1.14631 13.9558 3.85271
114 1 -1.1104 1.09993 19.5948 3.79784
116 1 -1.1104 1.25249 16.854 0.946657
119 2 2.2208 5.26977 15.1961 2.57854
120 2 2.2208 5.2797 20.881 2.51894
121 1 -1.1104 1.11156 16.8636 3.86022
123 1 -1.1104 3.87217 13.9491 1.17162
125 1 -1.1104 3.78366 19.5035 1.07833
127 2 2.2208 2.52915 18.1226 2.42171
128 1 -1.1104 3.96186 13.9576 3.90878
129 1 -1.1104 3.90525 19.4586 3.97759
130 2 2.2208 2.50386 15.4974 5.34421
131 2 2.2208 2.43016 21.0028 5.33457
132 1 -1.1104 3.99764 16.6762 1.10686
134 1 -1.1104 3.86096 16.7464 3.85907
302 1 -1.1104 0.991097 19.5301 6.71875
139 1 -1.1104 6.90054 19.5355 3.87208
138 1 -1.1104 6.63114 19.5886 1.1103
124 1 -1.1104 3.95873 13.9379 6.71421
133 1 -1.1104 3.88833 16.7918 6.90296
112 1 -1.1104 6.66421 19.5917 6.59022
111 1 -1.1104 6.90693 13.9558 6.78174
122 1 -1.1104 6.64733 16.7777 3.94647
118 1 -1.1104 6.73102 16.7044 6.63541
108 1 -1.1104 1.24099 14.0302 6.68663
126 1 -1.1104 3.84159 19.6614 6.71607
708 2 2.2208 8.23134 15.4333 -0.390308
115 1 -1.1104 6.83737 13.8373 3.92974
110 1 -1.1104 6.73379 14.068 1.11246
140 1 -1.1104 6.80199 16.7148 1.14508
231 2 2.2208 8.20183 -4.23628 8.14399
154 1 -1.1104 9.66528 13.7727 6.57486
141 2 2.2208 10.9764 18.1259 5.38065
142 1 -1.1104 12.4327 13.9682 1.08152
144 1 -1.1104 12.4556 19.5634 1.20392
146 1 -1.1104 12.5133 14.0204 3.8549
147 1 -1.1104 12.3506 19.577 3.92575
148 1 -1.1104 12.3819 16.8438 1.04792
150 2 2.2208 10.8692 15.4114 2.46857
151 2 2.2208 10.9586 20.8938 2.47412
152 1 -1.1104 12.3127 16.8362 3.74423
153 1 -1.1104 9.46153 13.9338 0.970958
155 1 -1.1104 9.4213 19.3691 0.990372
157 2 2.2208 8.09659 18.0946 2.51165
158 1 -1.1104 9.54948 13.8688 3.84365
159 1 -1.1104 9.58066 19.4102 3.94744
160 2 2.2208 8.14574 15.2661 5.31337
161 2 2.2208 8.07394 20.8694 5.2171
162 1 -1.1104 9.64725 16.8373 1.06213
164 1 -1.1104 9.48323 16.662 3.93708
149 1 -1.1104 12.2923 16.6266 6.73513
163 1 -1.1104 9.58401 16.7668 6.67313
137 2 2.2208 -0.325046 18.1873 5.15223
170 1 -1.1104 1.02314 -0.111458 6.52426
168 1 -1.1104 6.58757 -3.04818 6.69492
167 1 -1.1104 1.13965 2.81926 6.58957
593 2 2.2208 8.11905 4.19457 -0.250971
323 1 -1.1104 12.2223 16.7418 9.39583
175 2 2.2208 5.38574 1.33173 10.8177
176 1 -1.1104 1.03292 -2.94329 12.1783
177 1 -1.1104 0.99417 2.74908 12.1581
180 1 -1.1104 0.957105 -2.89944 9.47536
181 1 -1.1104 1.20561 2.75983 9.26293
184 1 -1.1104 1.14677 -0.17312 12.2794
186 2 2.2208 5.33243 -1.57806 8.07776
187 2 2.2208 5.36968 4.11858 8.17705
188 1 -1.1104 1.10834 -0.110337 9.40303
190 1 -1.1104 3.87958 -2.8201 12.0674
191 1 -1.1104 3.85373 2.63623 12.2029
192 2 2.2208 2.39554 1.28094 7.94592
193 1 -1.1104 3.90479 -2.87212 9.43948
194 1 -1.1104 4.01527 2.68822 9.3931
195 2 2.2208 2.41483 -1.46566 10.9118
196 2 2.2208 2.5462 4.07151 10.6944
197 1 -1.1104 3.99635 -0.0709372 12.188
198 1 -1.1104 3.89165 -0.124048 9.37776
178 1 -1.1104 6.73466 -2.84093 12.2957
182 1 -1.1104 6.89776 -2.81025 9.4055
179 1 -1.1104 6.69968 2.86287 12.2476
185 1 -1.1104 6.8643 -0.068405 12.4285
189 1 -1.1104 6.60499 0.00272833 9.38221
183 1 -1.1104 6.78558 2.707 9.47068
322 1 -1.1104 9.50868 13.8912 12.1793
165 2 2.2208 13.7929 18.2387 2.56925
329 1 -1.1104 12.2894 19.4498 12.1826
626 2 2.2208 5.25641 7.03904 -0.35006
316 2 2.2208 8.09992 20.9524 10.7005
209 1 -1.1104 9.56167 2.74091 6.65207
207 1 -1.1104 12.3329 0.030459 6.70163
208 1 -1.1104 9.49888 -2.98144 6.6379
9279 2 2.2208 13.89 4.06998 5.21194
318 1 -1.1104 9.54694 19.5902 9.39687
330 1 -1.1104 12.3643 13.9307 12.3449
211 2 2.2208 11.0302 1.39099 10.8371
212 1 -1.1104 12.3675 -2.81981 12.3162
213 1 -1.1104 12.0734 2.74143 12.2878
214 1 -1.1104 12.2548 -2.91135 9.53177
215 1 -1.1104 12.4418 2.74325 9.58642
216 1 -1.1104 12.1896 -0.0710598 12.3017
217 2 2.2208 10.8887 -1.4561 8.02641
219 1 -1.1104 12.3807 -0.0971566 9.53002
220 1 -1.1104 9.52423 -2.65039 12.2954
221 1 -1.1104 9.60017 3.01065 12.4657
222 2 2.2208 8.02279 1.36659 8.03738
223 1 -1.1104 9.54983 -2.90024 9.42358
224 1 -1.1104 9.45268 2.83086 9.52911
225 2 2.2208 8.12446 -1.41483 10.8412
226 2 2.2208 8.17334 4.20365 10.9582
227 1 -1.1104 9.52419 0.0816262 12.1566
228 1 -1.1104 9.408 -0.0812045 9.38466
320 2 2.2208 8.06477 18.0826 8.01081
628 2 2.2208 5.42412 12.4687 -0.348103
325 2 2.2208 10.9336 15.4601 8.01255
50 2 2.2208 13.8038 -1.51834 5.31999
53 2 2.2208 13.8236 -4.25811 2.50734
331 2 2.2208 10.8525 18.1843 10.7467
321 1 -1.1104 9.46519 19.4805 12.1807
78 1 -1.1104 3.90277 11.1157 6.72533
234 1 -1.1104 0.989974 8.41085 6.69182
326 1 -1.1104 12.2998 16.6134 12.2613
240 2 2.2208 5.30566 6.98948 10.946
241 2 2.2208 5.37448 12.521 10.9544
242 1 -1.1104 1.03178 8.30857 12.3427
244 1 -1.1104 1.08183 8.37416 9.45894
246 1 -1.1104 1.00289 5.46245 12.2196
247 1 -1.1104 1.07499 11.2185 12.5732
250 2 2.2208 5.34596 9.71396 8.07527
251 1 -1.1104 1.07152 5.56006 9.37398
252 1 -1.1104 1.07336 11.1938 9.46927
255 1 -1.1104 4.05561 8.33341 12.3642
256 2 2.2208 2.43786 7.00236 8.04881
257 2 2.2208 2.4724 12.5285 8.14463
258 1 -1.1104 3.93273 8.58472 9.67403
259 2 2.2208 2.51169 9.7603 10.966
260 1 -1.1104 3.9275 5.48659 12.1979
261 1 -1.1104 3.93151 11.1373 12.2599
262 1 -1.1104 3.9019 5.73928 9.31768
263 1 -1.1104 3.76189 11.238 9.59093
245 1 -1.1104 6.74529 8.42259 9.48106
243 1 -1.1104 6.82409 8.45722 12.3417
254 1 -1.1104 6.74502 11.233 9.53766
249 1 -1.1104 6.71471 11.1988 12.3911
314 1 -1.1104 9.40659 16.7827 9.43261
269 1 -1.1104 9.5561 5.48399 6.83972
266 1 -1.1104 12.55 5.53732 6.55066
90 1 -1.1104 12.253 11.2737 6.79221
218 2 2.2208 11.0242 4.23742 8.12624
253 1 -1.1104 6.7405 5.56801 9.53684
248 1 -1.1104 6.73841 5.69131 12.3683
315 1 -1.1104 9.59073 16.6097 12.2795
327 1 -1.1104 12.3068 19.4677 9.38654
319 1 -1.1104 9.53061 13.9983 9.19438
264 1 -1.1104 9.54244 11.2214 9.37647
268 1 -1.1104 9.52856 5.73242 9.45929
270 1 -1.1104 9.56952 11.2182 12.2206
271 1 -1.1104 9.60079 5.69733 12.2675
272 2 2.2208 8.13082 9.72776 10.9101
273 1 -1.1104 9.48522 8.44742 9.38384
274 2 2.2208 8.0955 12.5717 8.1257
275 2 2.2208 8.11923 6.96799 8.08791
276 2 2.2208 10.9296 7.01487 10.8796
277 2 2.2208 10.9201 12.6541 10.8244
278 1 -1.1104 12.4307 8.4019 12.3134
279 1 -1.1104 12.334 8.37001 9.36481
280 1 -1.1104 12.3361 5.53311 12.3546
281 1 -1.1104 12.4421 11.0411 12.4297
282 2 2.2208 10.8426 9.7842 7.99246
283 1 -1.1104 12.2633 5.51306 9.53401
284 1 -1.1104 12.4198 11.2454 9.66363
285 1 -1.1104 9.6207 8.48322 12.1534
297 1 -1.1104 6.69871 14.1253 12.3659
328 1 -1.1104 12.3005 14.0455 9.47679
117 1 -1.1104 1.13664 16.9026 6.64026
317 2 2.2208 8.24567 15.3106 10.8542
81 2 2.2208 -0.364262 7.04648 5.15242
296 1 -1.1104 6.76538 19.6846 12.0528
289 1 -1.1104 6.82046 16.6399 9.53826
286 1 -1.1104 4.04336 19.6113 12.1788
287 1 -1.1104 3.88995 13.9957 12.4612
291 1 -1.1104 1.02829 19.604 9.56524
292 1 -1.1104 1.36128 16.7141 9.52209
293 2 2.2208 5.17693 20.9331 8.03044
294 1 -1.1104 1.22692 13.9349 9.52576
295 2 2.2208 5.30285 15.2643 8.16609
298 1 -1.1104 1.11364 19.4591 12.3799
299 1 -1.1104 1.15919 13.9627 12.33
300 2 2.2208 5.38598 18.2154 10.8226
301 1 -1.1104 3.7612 19.539 9.43913
303 2 2.2208 2.44553 18.2221 8.1536
304 1 -1.1104 4.16435 16.8793 9.58768
305 1 -1.1104 4.03922 13.9941 9.6411
307 1 -1.1104 1.11319 16.7527 12.2649
308 1 -1.1104 3.99155 16.8309 12.3479
309 2 2.2208 2.4947 20.8958 10.8954
310 2 2.2208 2.67513 15.2933 10.9818
290 1 -1.1104 6.73584 13.875 9.61432
288 1 -1.1104 6.68166 19.6051 9.36861
306 1 -1.1104 6.82379 16.8314 12.2878
311 2 2.2208 -0.383598 20.9647 8.20033
324 2 2.2208 10.8105 21.0181 8.01676
145 1 -1.1104 12.3948 19.6093 6.73051
143 1 -1.1104 12.5983 13.9927 6.5102
156 1 -1.1104 9.34336 19.5252 6.60078
706 2 2.2208 8.1284 20.8468 -0.297621
135 2 2.2208 -0.209164 15.3496 2.56008
204 2 2.2208 -0.425244 -4.43401 10.83
313 2 2.2208 -0.254456 15.3589 8.03407
26 2 2.2208 -0.272715 1.42104 5.21712
9356 2 2.2208 13.6975 20.9416 5.23646
30 2 2.2208 -0.379892 -4.30382 5.22913
27 2 2.2208 -0.256651 4.22345 2.48781
200 2 2.2208 -0.35063 -1.60128 8.01011
9495 2 2.2208 13.877 9.72074 10.9191
9377 2 2.2208 13.7875 15.3231 5.11005
598 2 2.2208 13.7749 -1.5682 -0.326303
506 2 2.2208 2.69242 18.1615 13.6874
595 2 2.2208 10.9738 -4.23172 -0.401152
9723 2 2.2208 -0.305651 9.65725 13.9035
561 2 2.2208 5.26292 1.3075 -0.445125
563 2 2.2208 2.46791 4.25586 -0.461051
681 2 2.2208 5.2448 18.105 -0.229193
373 2 2.2208 2.47691 -4.21586 13.6374
375 2 2.2208 2.52431 1.31232 13.5476
591 2 2.2208 10.8238 1.26481 -0.227177
374 2 2.2208 5.39033 -1.42222 13.681
592 2 2.2208 8.10894 -1.52854 -0.335114
445 2 2.2208 2.51713 12.5891 13.8037
372 2 2.2208 -0.386666 -1.40692 13.6956
682 2 2.2208 2.61398 15.2807 -0.33193
710 2 2.2208 13.8492 20.8989 -0.25855
334 2 2.2208 5.37302 1.42778 16.4756
335 1 -1.1104 1.10472 -2.86586 17.8422
336 1 -1.1104 1.08931 2.73254 17.8858
339 1 -1.1104 1.12218 -2.86607 15.0691
341 1 -1.1104 1.15085 2.81526 14.9887
347 1 -1.1104 1.08862 -0.0571773 17.7889
349 2 2.2208 5.42488 -1.43683 19.3317
351 1 -1.1104 1.14686 0.152956 15.0036
355 1 -1.1104 3.79482 -2.94986 17.8269
356 1 -1.1104 3.92312 2.74916 17.9373
357 2 2.2208 2.61117 1.22528 19.4624
358 1 -1.1104 3.96097 -2.87195 15.0542
360 1 -1.1104 4.14734 2.83947 15.1096
362 2 2.2208 2.49879 -1.50101 16.4474
363 2 2.2208 2.50988 4.08604 16.5237
364 1 -1.1104 3.86587 -0.0443385 17.9689
365 1 -1.1104 3.91961 -0.0412795 15.0991
340 1 -1.1104 1.23923 -2.98624 20.6328
342 1 -1.1104 1.04895 2.70624 20.722
345 1 -1.1104 6.75342 2.73493 15.0636
350 2 2.2208 5.21064 4.22689 19.2545
359 1 -1.1104 4.0711 -2.92625 20.6819
344 1 -1.1104 6.81251 -3.04156 20.7899
338 1 -1.1104 6.70306 2.77562 17.8825
337 1 -1.1104 6.49434 -2.87925 17.9153
353 1 -1.1104 6.76243 0.0639167 15.1774
348 1 -1.1104 6.74421 0.00460832 17.9112
361 1 -1.1104 3.95626 2.75146 20.7576
366 1 -1.1104 3.98062 -0.0408468 20.8545
352 1 -1.1104 1.03728 -0.217756 20.5341
534 2 2.2208 10.9989 15.4146 13.6129
343 1 -1.1104 6.71767 -2.64646 15.0857
377 2 2.2208 10.8811 1.34173 16.5441
378 1 -1.1104 12.2031 -2.74551 17.8932
379 1 -1.1104 12.362 2.72415 17.8167
380 1 -1.1104 12.3612 -2.76934 15.0305
382 1 -1.1104 12.3701 2.72623 15.1164
384 1 -1.1104 12.3554 -0.0462768 17.9382
385 2 2.2208 10.9686 -1.41588 19.2252
387 1 -1.1104 12.4087 0.0218751 15.1809
389 1 -1.1104 9.3794 -2.94371 17.9003
390 1 -1.1104 9.47631 2.72424 17.9126
391 2 2.2208 8.13676 1.38375 19.3167
392 1 -1.1104 9.36582 -2.61938 15.1401
394 1 -1.1104 9.51222 2.80616 15.12
396 2 2.2208 8.0678 -1.42541 16.5079
398 1 -1.1104 9.55392 -0.103429 17.8883
399 1 -1.1104 9.58492 0.102515 15.081
397 2 2.2208 8.05441 4.1537 16.5056
386 2 2.2208 10.9983 4.15193 19.2225
388 1 -1.1104 12.4044 0.0267181 20.7603
369 2 2.2208 2.56165 -4.44667 19.125
594 2 2.2208 13.8559 -4.42363 24.944
533 2 2.2208 10.7728 21.0127 13.7116
393 1 -1.1104 9.54508 -2.94586 20.6633
400 1 -1.1104 9.48767 -0.0881113 20.7669
381 1 -1.1104 12.3918 -2.95573 20.7553
9811 2 2.2208 13.9047 4.18422 22.1348
402 2 2.2208 10.8422 -4.20787 16.5665
409 2 2.2208 10.9774 4.29427 13.7512
410 2 2.2208 5.42987 7.0359 16.48
411 2 2.2208 5.30944 12.6426 16.5832
412 1 -1.1104 1.09572 8.35121 18.045
414 1 -1.1104 0.894163 8.29426 15.2768
418 1 -1.1104 1.21779 5.62201 17.8507
419 1 -1.1104 0.824237 11.1425 17.8829
422 2 2.2208 5.30079 9.73959 19.3174
423 1 -1.1104 1.09206 5.53331 15.089
425 1 -1.1104 1.19026 11.1516 15.1819
431 1 -1.1104 3.95244 8.37611 17.974
432 2 2.2208 2.49406 6.95406 19.3179
433 2 2.2208 2.55159 12.658 19.4201
434 1 -1.1104 3.75397 8.51487 15.1283
436 2 2.2208 2.44802 9.75702 16.6453
437 1 -1.1104 3.9814 5.48362 17.8705
438 1 -1.1104 3.61819 11.1504 17.9538
439 1 -1.1104 3.9628 5.65024 15.1596
441 1 -1.1104 3.87276 11.1882 15.1323
420 1 -1.1104 6.62301 5.64107 17.8181
416 1 -1.1104 6.5701 8.39114 15.098
427 1 -1.1104 6.72858 5.6872 14.9834
435 1 -1.1104 3.95679 8.25428 20.7099
426 1 -1.1104 1.22599 11.262 20.8779
413 1 -1.1104 6.86361 8.28023 17.7997
429 1 -1.1104 6.74058 11.285 15.2272
430 1 -1.1104 6.68498 11.1074 20.6242
442 1 -1.1104 3.94763 11.13 20.8375
428 1 -1.1104 6.76355 5.59806 20.6663
440 1 -1.1104 3.9241 5.34245 20.6884
421 1 -1.1104 6.69482 11.1278 17.9056
417 1 -1.1104 6.8558 8.34776 20.614
424 1 -1.1104 1.16106 5.54273 20.7495
686 2 2.2208 -0.341822 18.3268 21.9778
446 2 2.2208 10.9734 6.95862 16.5762
447 2 2.2208 10.8522 12.7031 16.4336
448 1 -1.1104 12.3282 8.52767 17.8269
449 1 -1.1104 12.4083 8.28539 15.042
451 1 -1.1104 12.463 5.56458 17.864
452 1 -1.1104 12.4556 11.1986 17.9497
453 2 2.2208 11.0297 9.83054 19.3084
454 1 -1.1104 12.345 5.59102 15.1284
456 1 -1.1104 12.2931 11.1837 15.1126
458 1 -1.1104 9.55795 8.25832 17.8832
459 2 2.2208 8.10658 6.99542 19.2787
460 2 2.2208 8.17815 12.6534 19.2614
461 1 -1.1104 9.54955 8.36306 14.9862
463 2 2.2208 8.11094 9.87322 16.6249
464 1 -1.1104 9.45363 5.4565 17.989
465 1 -1.1104 9.52173 11.2804 17.8255
466 1 -1.1104 9.59007 5.50593 15.1624
468 1 -1.1104 9.55454 11.1133 15.1885
455 1 -1.1104 12.5065 5.60852 20.7275
469 1 -1.1104 9.55118 11.1378 20.5792
368 2 2.2208 5.30333 -4.23487 16.3441
457 1 -1.1104 12.4606 11.1045 20.6869
462 1 -1.1104 9.63841 8.46961 20.6879
403 2 2.2208 8.03757 -4.32027 19.2355
571 2 2.2208 -0.31097 1.24759 22.0985
473 2 2.2208 5.39049 18.0922 16.4411
474 1 -1.1104 1.20472 14.0825 17.8398
475 1 -1.1104 1.17523 19.6036 18.01
478 1 -1.1104 1.05648 14.0397 15.0503
480 1 -1.1104 1.14022 19.5535 15.14
486 1 -1.1104 1.18965 16.8405 17.956
488 2 2.2208 5.40434 15.3997 19.3301
489 2 2.2208 5.33536 20.966 19.2945
490 1 -1.1104 0.981108 16.9506 15.106
494 1 -1.1104 4.02551 14.1264 17.9618
495 1 -1.1104 4.01015 19.561 17.8322
496 2 2.2208 2.66365 18.2773 19.2924
497 1 -1.1104 3.89927 14.1077 15.1972
499 1 -1.1104 3.94684 19.6891 15.0607
501 2 2.2208 2.45815 15.5034 16.4724
502 2 2.2208 2.55004 21.0067 16.5179
503 1 -1.1104 3.96145 16.9223 17.9302
504 1 -1.1104 3.9252 16.8078 15.1819
476 1 -1.1104 6.72599 14.0526 17.8518
485 1 -1.1104 6.58415 19.5499 20.7383
481 1 -1.1104 1.18719 19.7186 20.7108
500 1 -1.1104 3.81729 19.5656 20.658
483 1 -1.1104 6.8176 14.0385 20.6572
477 1 -1.1104 6.79866 19.5236 17.8302
492 1 -1.1104 6.79137 16.8568 15.1531
482 1 -1.1104 6.68815 14.0051 15.0903
484 1 -1.1104 6.6839 19.5007 14.9611
493 1 -1.1104 6.70856 16.7766 20.5651
505 1 -1.1104 3.95386 16.6231 20.743
596 2 2.2208 10.9542 -4.22954 22.1651
567 2 2.2208 5.40809 -4.41467 21.9647
487 1 -1.1104 6.8636 16.8048 17.8465
568 2 2.2208 2.49659 -4.31501 24.9147
513 1 -1.1104 12.3791 13.9169 20.7447
509 2 2.2208 10.926 18.3 16.4795
510 1 -1.1104 12.2561 13.9796 17.9438
511 1 -1.1104 12.2301 19.631 17.8901
512 1 -1.1104 12.2986 13.9543 15.1059
514 1 -1.1104 12.237 19.6851 15.1366
516 1 -1.1104 12.4511 16.7621 17.9133
517 2 2.2208 10.9522 15.4088 19.2237
518 2 2.2208 10.8358 20.9998 19.3391
519 1 -1.1104 12.2228 16.815 15.1828
521 1 -1.1104 9.39208 14.1497 17.8031
522 1 -1.1104 9.53829 19.5693 18.0343
523 2 2.2208 8.15523 18.2485 19.2779
524 1 -1.1104 9.58647 14.0342 14.9867
526 1 -1.1104 9.3891 19.6345 15.1246
528 2 2.2208 8.17569 15.526 16.4428
529 2 2.2208 7.98222 20.8622 16.4014
530 1 -1.1104 9.69533 16.8741 17.8587
531 1 -1.1104 9.51303 16.7401 14.9595
527 1 -1.1104 9.41467 19.6528 20.7611
515 1 -1.1104 12.3115 19.4371 20.6661
532 1 -1.1104 9.41438 16.6467 20.6462
520 1 -1.1104 12.3253 16.684 20.7584
700 1 -1.1104 12.4195 16.8209 23.5795
653 2 2.2208 10.9739 12.5968 27.7667
346 1 -1.1104 6.6049 2.69579 20.6937
354 1 -1.1104 6.84769 -0.24885 20.5922
600 2 2.2208 13.7625 1.365 24.9694
537 2 2.2208 5.41592 1.41583 22.1067
538 1 -1.1104 1.19783 -2.97547 23.4874
539 1 -1.1104 1.00774 2.76546 23.5394
542 1 -1.1104 0.929291 -2.91811 26.2001
543 1 -1.1104 1.21464 2.63282 26.2572
546 1 -1.1104 0.964064 -0.0790316 23.4213
548 2 2.2208 5.27508 -1.58209 24.8486
549 2 2.2208 5.32608 4.10184 24.9097
550 1 -1.1104 1.19901 -0.186151 26.2071
552 1 -1.1104 3.93723 -2.97964 23.4784
553 1 -1.1104 3.85344 2.64098 23.6224
554 2 2.2208 2.48715 1.35026 24.8653
555 1 -1.1104 3.76568 -2.97488 26.2905
556 1 -1.1104 3.9131 2.71058 26.344
557 2 2.2208 2.49954 -1.48481 22.0751
558 2 2.2208 2.46101 4.16658 22.1722
559 1 -1.1104 3.86977 -0.0862381 23.5903
560 1 -1.1104 3.96867 -0.184523 26.3437
545 1 -1.1104 6.66466 2.72408 26.2
551 1 -1.1104 6.69138 -0.1107 26.3451
540 1 -1.1104 6.81393 -3.09525 23.5491
541 1 -1.1104 6.72784 2.83866 23.4385
544 1 -1.1104 6.72852 -2.84999 26.3622
694 2 2.2208 8.20432 18.1085 24.8988
692 1 -1.1104 9.67565 13.9922 26.3107
572 2 2.2208 -0.259805 4.1701 24.961
702 1 -1.1104 12.2517 14.0291 26.4325
535 2 2.2208 8.14103 18.1853 13.5794
395 1 -1.1104 9.57448 2.66161 20.6875
383 1 -1.1104 12.5759 2.85155 20.5664
597 2 2.2208 8.15031 -4.28546 24.9496
547 1 -1.1104 6.63852 -0.228397 23.4149
630 2 2.2208 -0.357157 9.86151 25.0419
699 2 2.2208 11.0141 15.4761 24.9884
9610 2 2.2208 13.7878 1.32749 19.3757
573 2 2.2208 10.8953 1.27893 22.1765
574 1 -1.1104 12.4161 -2.90315 23.5177
575 1 -1.1104 12.3445 2.59209 23.3338
576 1 -1.1104 12.5389 -2.95975 26.2443
577 1 -1.1104 12.3909 2.68312 26.3383
578 1 -1.1104 12.4172 -0.266455 23.6438
579 2 2.2208 11.0541 -1.50939 24.9748
580 2 2.2208 11.037 4.01157 24.9546
581 1 -1.1104 12.3909 -0.00758653 26.5604
582 1 -1.1104 9.62267 -2.82164 23.5643
583 1 -1.1104 9.55119 2.62761 23.4446
584 2 2.2208 8.03387 1.25397 24.8879
585 1 -1.1104 9.63703 -2.8845 26.3183
586 1 -1.1104 9.47815 2.65193 26.3592
587 2 2.2208 8.19712 -1.55485 22.0479
588 2 2.2208 8.20904 4.12631 22.0526
589 1 -1.1104 9.50278 -0.0904089 23.5938
590 1 -1.1104 9.48292 -0.133791 26.319
698 2 2.2208 10.9087 21.0011 25.0104
703 1 -1.1104 12.3909 19.5426 23.4576
444 2 2.2208 5.2531 9.8335 13.6925
697 1 -1.1104 12.5648 16.7294 26.323
701 1 -1.1104 12.2812 19.4842 26.3894
690 2 2.2208 8.2526 15.3167 22.057
415 1 -1.1104 1.21966 8.41728 20.8252
704 1 -1.1104 12.3313 13.9552 23.6495
602 2 2.2208 5.4375 6.94767 22.0835
603 2 2.2208 5.42446 12.5502 21.9531
604 1 -1.1104 1.16146 8.50084 23.7571
606 1 -1.1104 1.16216 8.34449 26.4539
608 1 -1.1104 1.16878 5.44514 23.5435
609 1 -1.1104 1.1493 11.1919 23.515
612 2 2.2208 5.43773 9.68552 24.9555
613 1 -1.1104 0.908478 5.62156 26.2538
614 1 -1.1104 1.29111 11.1279 26.3194
617 1 -1.1104 4.09064 8.22781 23.4886
618 2 2.2208 2.48335 7.0746 24.9747
619 2 2.2208 2.64876 12.4603 24.8882
620 1 -1.1104 4.01977 8.3485 26.2538
621 2 2.2208 2.59458 9.80627 22.1562
622 1 -1.1104 3.87982 5.55791 23.4371
623 1 -1.1104 4.09477 10.981 23.5706
624 1 -1.1104 3.7554 5.40434 26.205
625 1 -1.1104 3.91549 11.1847 26.328
611 1 -1.1104 6.90746 11.2826 23.3693
607 1 -1.1104 6.86864 8.23173 26.3344
615 1 -1.1104 6.68878 5.53399 26.375
610 1 -1.1104 6.73683 5.57487 23.4113
605 1 -1.1104 6.82088 8.33094 23.35
616 1 -1.1104 6.73843 11.0932 26.224
683 2 2.2208 -0.142302 15.4499 24.9069
570 2 2.2208 -0.397551 -1.53977 24.9186
467 1 -1.1104 9.52308 5.48581 20.6597
450 1 -1.1104 12.3638 8.28776 20.6323
9898 2 2.2208 -0.314527 7.0838 22.1987
687 1 -1.1104 9.65139 16.7776 26.3831
691 1 -1.1104 9.4851 19.6692 26.4098
9720 2 2.2208 -0.413226 6.90379 16.5061
633 1 -1.1104 9.44391 11.1677 26.2889
634 1 -1.1104 9.50675 5.55611 26.4176
635 1 -1.1104 9.72261 11.0446 23.4122
636 1 -1.1104 9.51569 5.32521 23.5691
637 2 2.2208 8.22633 9.64932 21.9932
638 1 -1.1104 9.537 8.35141 26.1707
639 2 2.2208 8.14561 12.5231 24.8209
640 2 2.2208 8.17201 7.0055 24.79
641 2 2.2208 11.1063 6.93085 22.0887
642 2 2.2208 10.9571 12.5736 22.0284
643 1 -1.1104 12.5707 8.29916 23.5074
644 1 -1.1104 12.4345 8.36999 26.3296
645 1 -1.1104 12.2183 5.39327 23.3864
646 1 -1.1104 12.5914 11.1153 23.4705
647 2 2.2208 11.0872 9.71815 24.8367
648 1 -1.1104 12.2656 5.47547 26.2671
649 1 -1.1104 12.3807 11.2253 26.169
650 1 -1.1104 9.67105 8.35667 23.4455
695 1 -1.1104 9.6198 19.7174 23.5049
684 2 2.2208 -0.240189 18.1901 27.7482
498 1 -1.1104 4.08175 13.8628 20.7068
491 1 -1.1104 1.12411 16.876 20.8288
479 1 -1.1104 1.12583 13.9598 20.6639
507 2 2.2208 5.36545 21.0139 13.6452
675 1 -1.1104 6.75402 16.9134 23.4615
667 1 -1.1104 6.70914 14.0756 23.5062
660 1 -1.1104 6.81057 16.7363 26.3195
669 1 -1.1104 1.18523 13.9473 23.7003
678 2 2.2208 2.58819 21.0185 22.1766
677 1 -1.1104 4.12789 16.654 23.5054
671 1 -1.1104 3.91785 19.4772 26.2989
676 1 -1.1104 1.16047 16.8276 23.3721
679 2 2.2208 2.54937 15.303 22.1893
672 2 2.2208 2.57746 18.134 24.7035
673 1 -1.1104 4.08379 16.6212 26.3668
674 1 -1.1104 4.03927 13.8051 26.4612
670 2 2.2208 5.3164 18.1707 22.1426
657 1 -1.1104 3.98079 19.5297 23.4745
659 1 -1.1104 3.94411 13.987 23.6642
661 1 -1.1104 1.13729 19.5762 26.3117
662 1 -1.1104 1.46295 16.6616 26.1436
663 1 -1.1104 1.35674 13.8938 26.3866
665 2 2.2208 5.28947 20.9573 25.0423
666 2 2.2208 5.37649 15.3283 24.9927
668 1 -1.1104 1.13568 19.5743 23.6147
693 1 -1.1104 6.69511 19.3474 26.3102
658 1 -1.1104 6.92026 13.9245 26.2023
632 2 2.2208 -0.379194 6.92288 27.6789
685 2 2.2208 -0.290536 21.0377 24.8685
712 2 2.2208 13.8246 18.2324 25.0071
525 1 -1.1104 9.59067 13.8373 20.5617
689 2 2.2208 8.13405 21.0015 22.2214
705 2 2.2208 10.9646 18.2248 22.1518
696 1 -1.1104 9.52913 13.8654 23.423
664 1 -1.1104 6.74683 19.5608 23.6059
688 1 -1.1104 9.64352 16.789 23.4933
9647 2 2.2208 -0.367803 4.09095 19.1993
656 2 2.2208 13.7558 6.96825 24.9795
631 2 2.2208 -0.304277 12.5814 22.1595
9719 2 2.2208 -0.332004 9.78912 19.3796
376 2 2.2208 5.37512 4.2461 13.7669
651 2 2.2208 10.8537 6.9638 27.7269
408 2 2.2208 10.7648 -1.36631 13.749
472 2 2.2208 8.21963 12.4837 13.6298
9792 2 2.2208 -0.360932 15.3958 13.5733
627 2 2.2208 2.58518 9.91375 27.821
629 2 2.2208 -0.215697 12.6799 27.7673
566 2 2.2208 5.29945 -4.3327 27.7038
407 2 2.2208 8.1733 1.51006 13.7026
707 2 2.2208 10.9319 18.1403 27.7413
404 2 2.2208 8.266 -4.18385 13.5865
443 2 2.2208 2.52759 6.87803 13.7474
562 2 2.2208 2.59362 -1.56991 27.711
470 2 2.2208 8.10457 7.07021 13.6825
508 2 2.2208 5.43953 15.3778 13.7529
471 2 2.2208 10.9911 9.64045 13.6175
714 2 2.2208 5.19602 23.6826 5.29951
715 2 2.2208 5.19246 29.3723 5.28344
716 1 -1.1104 1.177 25.4626 0.908006
717 1 -1.1104 1.20825 25.2305 3.70408
718 1 -1.1104 1.25159 22.4353 0.918383
719 1 -1.1104 1.15905 28.2391 1.01829
720 2 2.2208 5.27332 26.6305 2.44397
721 1 -1.1104 1.15852 22.3868 3.818
722 1 -1.1104 0.983718 28.0542 3.79359
723 1 -1.1104 4.00757 25.1241 1.09274
724 2 2.2208 2.45808 23.8489 2.35719
725 2 2.2208 2.64157 29.5639 2.38551
726 1 -1.1104 3.88745 25.2742 3.9275
727 2 2.2208 2.38925 26.6727 5.25454
728 1 -1.1104 3.90045 22.3295 1.02687
729 1 -1.1104 3.93151 28.079 0.928256
730 1 -1.1104 3.92584 22.2395 3.79507
731 1 -1.1104 3.83263 28.1144 3.83826
858 1 -1.1104 0.920944 28.0112 6.71667
857 1 -1.1104 1.08837 22.3466 6.70875
855 1 -1.1104 1.10047 25.1918 6.71311
739 1 -1.1104 6.69741 22.3045 4.00715
740 1 -1.1104 6.56934 28.0155 3.79921
736 1 -1.1104 6.70881 25.1133 3.76049
737 1 -1.1104 6.71106 22.2759 1.1171
738 1 -1.1104 6.6123 27.9919 1.10755
863 1 -1.1104 3.62693 28.03 6.70055
862 1 -1.1104 3.8202 22.5089 6.76054
1638 1 -1.1104 9.44727 47.6448 9.58826
859 1 -1.1104 6.55077 22.3292 6.69516
735 1 -1.1104 6.76942 25.1391 1.03125
860 1 -1.1104 6.54215 28.0493 6.60031
741 2 2.2208 10.8912 23.7732 5.17952
742 2 2.2208 10.731 29.2909 5.23218
743 1 -1.1104 12.3115 25.2819 0.99322
744 1 -1.1104 12.2818 25.0498 3.87267
745 1 -1.1104 12.2507 22.4658 0.980225
746 1 -1.1104 12.283 27.9905 0.923842
747 2 2.2208 10.9649 26.5769 2.34318
748 1 -1.1104 12.3706 22.3545 3.77441
749 1 -1.1104 12.2321 28.065 3.75314
750 1 -1.1104 9.57031 25.0063 0.947284
751 2 2.2208 8.07736 23.6557 2.43682
752 2 2.2208 8.01564 29.4507 2.60162
753 1 -1.1104 9.43513 25.0688 3.7288
754 2 2.2208 7.99117 26.5521 5.16462
755 1 -1.1104 9.43967 22.1308 1.08087
756 1 -1.1104 9.54112 28.0103 1.08617
757 1 -1.1104 9.66545 22.2201 3.81154
758 1 -1.1104 9.34372 27.9797 3.84593
891 1 -1.1104 9.34039 24.9686 6.56458
759 2 2.2208 13.6433 23.7865 2.37898
893 1 -1.1104 9.39141 28.0643 6.53436
888 1 -1.1104 12.0824 25.2911 6.56817
1032 2 2.2208 10.8021 46.3831 -0.27287
1226 2 2.2208 2.34418 46.2605 13.7569
1051 2 2.2208 2.53758 32.2993 -0.413953
762 2 2.2208 5.2829 35.1723 5.34369
763 1 -1.1104 1.07012 30.8143 1.0261
764 1 -1.1104 0.917801 36.5548 1.12193
766 1 -1.1104 1.04039 30.9936 3.80044
767 1 -1.1104 1.30275 36.5233 3.84967
769 1 -1.1104 1.12344 33.7549 0.874688
770 2 2.2208 5.32561 32.3258 2.6202
771 2 2.2208 5.32042 37.8679 2.50795
772 1 -1.1104 1.18287 33.6635 3.8606
774 1 -1.1104 4.01064 30.8463 1.02978
775 1 -1.1104 3.96681 36.376 1.10127
776 2 2.2208 2.4798 35.0034 2.47752
777 1 -1.1104 3.79501 30.946 3.87055
778 1 -1.1104 3.94815 36.466 3.98947
779 2 2.2208 2.40897 32.2242 5.3561
780 2 2.2208 2.57897 37.9696 5.22182
781 1 -1.1104 3.97607 33.6275 0.987485
782 1 -1.1104 3.84692 33.7391 3.96511
773 1 -1.1104 6.72345 33.8418 3.96286
765 1 -1.1104 6.67553 36.4273 1.20964
912 1 -1.1104 0.964151 30.827 6.63385
918 1 -1.1104 3.97428 30.8435 6.64015
787 1 -1.1104 6.58648 30.919 3.99851
788 1 -1.1104 6.77404 33.6757 1.04353
914 1 -1.1104 6.61942 30.8904 6.78192
1305 2 2.2208 11.0757 23.7916 -0.374398
768 1 -1.1104 6.55843 36.6124 3.91162
786 1 -1.1104 6.69388 30.7983 1.23514
917 1 -1.1104 6.73442 33.5936 6.76752
915 1 -1.1104 6.76455 36.5508 6.81596
760 2 2.2208 13.7046 29.451 2.49667
789 2 2.2208 10.8366 35.0356 5.27912
790 1 -1.1104 12.3203 30.7954 1.00523
791 1 -1.1104 12.346 36.4531 0.961266
792 1 -1.1104 12.2872 30.8117 3.8784