ITEM: TIMESTEP
70000
ITEM: NUMBER OF ATOMS
17910
ITEM: BOX BOUNDS pp pp pp
-3.5383185561828689e-01 2.7693831855618168e+01
-4.3064104058513069e+00 3.3238641040586998e+02
-3.5992799808666631e-01 2.7699927998086661e+01
ITEM: ATOMS id type q x y z
1 2 2.2208 5.48396 1.35602 5.35964
2 1 -1.1104 1.23214 -2.82222 1.11547
3 1 -1.1104 1.20051 2.80051 1.23447
6 1 -1.1104 1.29428 -2.90371 4.08791
7 1 -1.1104 1.22695 2.82105 3.9412
10 1 -1.1104 1.06567 0.0512358 1.24519
12 2 2.2208 5.44724 -1.44783 2.53357
13 2 2.2208 5.3219 4.19944 2.55873
14 1 -1.1104 1.1561 -0.00787367 4.09843
16 1 -1.1104 3.98601 -2.70123 1.13863
17 1 -1.1104 4.08132 2.8037 1.11264
18 2 2.2208 2.65035 1.48832 2.64666
19 1 -1.1104 3.98806 -2.66783 3.86379
20 1 -1.1104 4.03179 2.80752 4.01321
21 2 2.2208 2.62875 -1.34464 5.3781
23 1 -1.1104 3.91713 -0.0428702 1.01274
24 1 -1.1104 4.00249 0.0722823 3.84632
22 2 2.2208 2.58436 4.27026 5.30111
26 2 2.2208 -0.171198 1.43776 5.36493
25 2 2.2208 -0.255863 -1.35986 2.62812
27 2 2.2208 -0.166736 4.24214 2.58512
561 2 2.2208 5.3753 1.38732 -0.414534
680 2 2.2208 2.56792 21.0833 -0.0561666
569 2 2.2208 -0.286152 1.53056 -0.278696
562 2 2.2208 2.60714 -1.43199 -0.316477
563 2 2.2208 2.56112 4.10073 -0.234491
167 1 -1.1104 1.15 2.81762 6.74972
290 1 -1.1104 6.77388 13.8949 9.80149
592 2 2.2208 8.31898 -1.38776 -0.110498
8 1 -1.1104 6.86036 -2.82204 3.98077
15 1 -1.1104 6.65336 -0.0234747 3.94739
5 1 -1.1104 6.8044 2.64713 0.995311
11 1 -1.1104 6.90873 -0.106197 1.16275
4 1 -1.1104 6.83762 -2.79658 1.2127
9 1 -1.1104 6.74052 2.64175 3.92692
31 2 2.2208 11.0006 1.36548 5.36203
32 1 -1.1104 12.2485 -2.78682 1.21622
33 1 -1.1104 12.3731 2.79668 1.13851
34 1 -1.1104 12.4686 -2.81572 3.95621
35 1 -1.1104 12.4905 2.73112 3.93068
36 1 -1.1104 12.559 -0.00103454 1.04895
37 2 2.2208 11.0001 -1.4983 2.74494
39 1 -1.1104 12.2952 -0.141303 3.91551
40 1 -1.1104 9.57977 -2.98978 1.30747
41 1 -1.1104 9.5396 2.73216 1.1546
42 2 2.2208 8.2032 1.42111 2.60298
43 1 -1.1104 9.59598 -2.80615 4.16914
44 1 -1.1104 9.6078 2.79693 3.92516
45 2 2.2208 8.17926 -1.43728 5.43058
47 1 -1.1104 9.6391 -0.0451489 1.22165
48 1 -1.1104 9.49464 -0.0114715 4.08748
46 2 2.2208 8.13554 4.18261 5.38332
38 2 2.2208 11.0026 4.23523 2.45838
206 1 -1.1104 12.4539 2.81284 6.79304
593 2 2.2208 8.17817 4.20935 -0.259466
209 1 -1.1104 9.56983 2.82382 6.64416
54 2 2.2208 5.3915 7.00303 5.47477
55 2 2.2208 5.39627 12.5989 5.47935
56 1 -1.1104 1.05075 8.48687 1.21475
58 1 -1.1104 1.27155 8.42608 3.99359
60 1 -1.1104 1.2382 5.51639 1.14318
61 1 -1.1104 1.15872 11.1474 1.15573
66 2 2.2208 5.5076 9.75958 2.6454
67 1 -1.1104 1.16827 5.58642 4.00689
68 1 -1.1104 1.25948 11.248 3.9646
71 1 -1.1104 3.94646 8.41445 1.16572
72 2 2.2208 2.45411 7.05687 2.61992
73 2 2.2208 2.6506 12.6115 2.60341
74 1 -1.1104 4.08621 8.306 3.98737
75 2 2.2208 2.67977 9.69722 5.38181
76 1 -1.1104 4.03614 5.65139 1.07766
77 1 -1.1104 4.0352 11.0674 1.25874
79 1 -1.1104 3.94907 5.45046 3.92448
80 1 -1.1104 4.21047 11.1218 4.14804
82 2 2.2208 -0.185058 9.75991 2.7351
83 2 2.2208 -0.170558 12.6498 5.34681
81 2 2.2208 -0.326104 7.01019 5.36993
628 2 2.2208 5.28148 12.4852 -0.19318
626 2 2.2208 5.24432 6.99702 -0.281287
632 2 2.2208 -0.33424 7.12098 -0.365436
78 1 -1.1104 3.80891 11.1042 6.99846
236 1 -1.1104 1.13661 5.55719 6.83647
627 2 2.2208 2.42685 9.74801 -0.200391
652 2 2.2208 8.16206 9.84689 -0.210851
653 2 2.2208 10.9567 12.642 -0.219372
59 1 -1.1104 6.83982 8.30437 4.09534
64 1 -1.1104 6.80205 11.2191 1.12409
69 1 -1.1104 6.72688 5.6592 4.0872
70 1 -1.1104 6.99084 11.0105 4.04786
57 1 -1.1104 6.68092 8.43087 1.17005
63 1 -1.1104 6.7809 5.5127 1.21628
84 2 2.2208 10.9965 7.04999 5.28844
85 2 2.2208 11.0812 12.5949 5.44878
86 1 -1.1104 12.3496 8.49306 1.1744
87 1 -1.1104 12.5361 8.47597 3.9468
88 1 -1.1104 12.4366 5.55394 1.31645
89 1 -1.1104 12.3775 11.2637 1.31889
91 2 2.2208 11.1 9.94425 2.66889
92 1 -1.1104 12.498 5.66695 4.04732
93 1 -1.1104 12.6483 11.1215 4.01446
94 1 -1.1104 9.53305 8.54695 1.18751
95 2 2.2208 8.24829 7.05083 2.56635
96 2 2.2208 8.2412 12.6 2.73633
97 1 -1.1104 9.80287 8.51444 3.96364
98 2 2.2208 8.32765 9.80461 5.53244
99 1 -1.1104 9.56436 5.66983 1.11119
100 1 -1.1104 9.52587 11.3081 1.27746
102 1 -1.1104 9.5717 5.58853 4.0254
103 1 -1.1104 9.79521 11.2638 4.06105
267 1 -1.1104 9.7661 8.39692 6.76277
651 2 2.2208 10.9952 7.10663 -0.173626
203 2 2.2208 5.27205 -4.19795 10.9211
684 2 2.2208 -0.173298 18.1781 -0.214262
106 2 2.2208 5.38635 18.0875 5.53776
107 1 -1.1104 1.20435 13.9946 1.34944
109 1 -1.1104 1.24643 19.5061 1.21176
113 1 -1.1104 1.24278 14.1181 4.09021
114 1 -1.1104 1.33573 19.4308 4.0941
116 1 -1.1104 1.13743 16.7506 1.31136
119 2 2.2208 5.3771 15.3066 2.68567
120 2 2.2208 5.4107 20.9568 2.58342
121 1 -1.1104 1.25977 16.9394 4.01184
123 1 -1.1104 4.02171 13.8205 1.20951
125 1 -1.1104 3.98416 19.7116 1.31325
127 2 2.2208 2.69721 18.0914 2.549
128 1 -1.1104 3.92632 13.9143 4.07647
129 1 -1.1104 4.14195 19.5733 4.16284
130 2 2.2208 2.55357 15.4691 5.39514
131 2 2.2208 2.66795 20.79 5.41682
132 1 -1.1104 4.01174 16.7299 1.20895
134 1 -1.1104 4.02786 16.7945 3.98303
629 2 2.2208 -0.230264 12.6585 -0.00894251
135 2 2.2208 -0.214394 15.5066 2.6104
136 2 2.2208 -0.140343 20.8606 2.53054
115 1 -1.1104 6.68852 13.8813 4.09617
133 1 -1.1104 3.98443 16.6762 6.8109
681 2 2.2208 5.45144 18.1775 -0.342299
707 2 2.2208 11.0735 18.2808 -0.082439
139 1 -1.1104 6.91303 19.5272 3.89828
138 1 -1.1104 6.76291 19.507 1.16408
140 1 -1.1104 7.0496 16.9102 1.15067
122 1 -1.1104 6.73615 16.8024 4.03174
110 1 -1.1104 6.83422 14.1052 1.4923
141 2 2.2208 10.8703 18.1249 5.43067
142 1 -1.1104 12.5081 14.2361 1.22476
144 1 -1.1104 12.3164 19.7749 1.17731
146 1 -1.1104 12.4043 13.8859 4.03379
147 1 -1.1104 12.4254 19.4735 4.11143
148 1 -1.1104 12.4204 16.9145 1.17202
150 2 2.2208 11.0512 15.3654 2.60526
151 2 2.2208 10.8603 21.0842 2.60933
152 1 -1.1104 12.3633 16.5298 3.93449
153 1 -1.1104 9.57211 14.0609 1.18199
155 1 -1.1104 9.52537 19.8408 1.23908
157 2 2.2208 8.15148 18.1543 2.66453
158 1 -1.1104 9.516 14.0221 4.07145
159 1 -1.1104 9.68408 19.6177 3.94704
160 2 2.2208 8.23857 15.2773 5.41676
161 2 2.2208 8.19055 20.9858 5.30084
162 1 -1.1104 9.81753 16.899 1.31442
164 1 -1.1104 9.47102 16.7131 4.08446
163 1 -1.1104 9.6404 16.8291 6.82184
708 2 2.2208 8.22218 15.4306 -0.143425
706 2 2.2208 8.14955 21.0641 -0.225428
595 2 2.2208 10.9512 -4.24499 -0.177566
202 2 2.2208 2.52172 -4.2757 8.07538
170 1 -1.1104 1.13365 0.0409141 6.87758
172 1 -1.1104 3.81884 -2.79232 6.68617
173 1 -1.1104 3.82081 3.09638 6.92113
174 1 -1.1104 3.89736 0.173397 6.69178
166 1 -1.1104 1.14764 -2.77293 6.67918
199 2 2.2208 -0.153637 4.23603 8.1443
200 2 2.2208 -0.196419 -1.42765 8.33044
201 2 2.2208 -0.373534 1.47651 11.0441
175 2 2.2208 5.49504 1.46936 11.0001
176 1 -1.1104 1.09311 -2.87385 12.3676
177 1 -1.1104 1.15517 2.82563 12.4519
180 1 -1.1104 1.14519 -2.92159 9.50363
181 1 -1.1104 1.21335 2.6561 9.55195
184 1 -1.1104 0.964024 0.103076 12.4583
186 2 2.2208 5.29586 -1.32992 8.18734
187 2 2.2208 5.30228 4.23697 8.20831
188 1 -1.1104 1.26119 -0.156085 9.55867
190 1 -1.1104 3.84107 -2.96792 12.3282
191 1 -1.1104 4.1124 2.66558 12.4588
192 2 2.2208 2.59917 1.4287 8.18403
193 1 -1.1104 3.80518 -2.8058 9.42588
194 1 -1.1104 4.04918 2.70376 9.64679
195 2 2.2208 2.55426 -1.48745 10.9453
196 2 2.2208 2.49616 4.15885 11.1205
197 1 -1.1104 4.11618 -0.187567 12.4396
198 1 -1.1104 4.1456 -0.0364279 9.58244
169 1 -1.1104 6.82376 2.91928 6.84172
231 2 2.2208 8.11319 -4.27561 8.13499
232 2 2.2208 10.8325 -4.10258 10.9302
168 1 -1.1104 6.64549 -2.7293 6.7296
171 1 -1.1104 6.76957 0.076254 6.67851
207 1 -1.1104 12.3521 -0.0460974 6.69654
205 1 -1.1104 12.2356 -2.8815 6.65822
189 1 -1.1104 6.93393 0.0814267 9.38838
182 1 -1.1104 6.6557 -2.98025 9.48066
178 1 -1.1104 6.723 -2.98625 12.3384
208 1 -1.1104 9.38186 -2.83992 6.84766
210 1 -1.1104 9.56862 0.00441597 6.83598
183 1 -1.1104 6.77308 2.80333 9.57733
179 1 -1.1104 6.74907 2.84847 12.3368
185 1 -1.1104 6.82433 -0.0506852 12.5332
211 2 2.2208 10.9304 1.54839 10.9298
212 1 -1.1104 12.2065 -2.74716 12.241
213 1 -1.1104 12.4642 2.89678 12.402
214 1 -1.1104 12.3054 -2.74596 9.44568
215 1 -1.1104 12.231 2.83958 9.46542
216 1 -1.1104 12.4223 -0.115497 12.6146
217 2 2.2208 10.8954 -1.30176 8.23864
219 1 -1.1104 12.3037 0.0628363 9.6144
220 1 -1.1104 9.43388 -2.75297 12.3831
221 1 -1.1104 9.61387 2.95482 12.2991
222 2 2.2208 8.18847 1.43182 8.08585
223 1 -1.1104 9.45384 -2.79865 9.5708
224 1 -1.1104 9.66141 2.77584 9.47562
225 2 2.2208 8.14533 -1.29943 11.0598
226 2 2.2208 8.20341 4.10964 10.9293
227 1 -1.1104 9.48039 0.118463 12.2287
228 1 -1.1104 9.53912 0.105367 9.53671
218 2 2.2208 10.9767 4.33583 8.10231
62 1 -1.1104 1.03086 11.1732 6.68732
9509 2 2.2208 -0.213435 7.01704 10.949
239 1 -1.1104 3.92318 5.65855 6.84151
9508 2 2.2208 -0.147973 9.85247 8.20553
9501 2 2.2208 -0.229648 12.6866 11.1177
234 1 -1.1104 1.16491 8.3511 6.65666
238 1 -1.1104 3.97373 8.4104 6.87748
240 2 2.2208 5.37677 7.04511 11.0292
241 2 2.2208 5.34761 12.5881 11.0368
242 1 -1.1104 1.26606 8.36795 12.3493
244 1 -1.1104 1.11609 8.47287 9.49333
246 1 -1.1104 1.00036 5.65436 12.4144
247 1 -1.1104 1.21321 11.0897 12.6275
250 2 2.2208 5.36236 9.87019 8.23889
251 1 -1.1104 1.28198 5.54448 9.5315
252 1 -1.1104 1.25472 11.3744 9.70495
255 1 -1.1104 4.06043 8.31986 12.4111
256 2 2.2208 2.51648 6.8825 8.20614
257 2 2.2208 2.57019 12.665 8.16895
258 1 -1.1104 4.03046 8.27882 9.65525
259 2 2.2208 2.49393 9.80996 11.0083
260 1 -1.1104 3.91046 5.45602 12.3982
261 1 -1.1104 4.03099 11.3374 12.4074
262 1 -1.1104 3.85307 5.502 9.6247
263 1 -1.1104 4.05501 11.0176 9.73251
249 1 -1.1104 6.80215 11.0412 12.3282
52 2 2.2208 10.963 -4.17412 5.28266
51 2 2.2208 8.13832 -4.27644 2.60301
65 1 -1.1104 6.69192 11.1188 6.85605
235 1 -1.1104 6.79423 8.34777 6.85903
101 1 -1.1104 9.55775 11.2881 6.73667
90 1 -1.1104 12.3072 11.1304 6.76311
265 1 -1.1104 12.4629 8.4352 6.80728
254 1 -1.1104 6.83174 11.2115 9.54073
245 1 -1.1104 6.81578 8.39636 9.65263
253 1 -1.1104 6.76091 5.62863 9.62422
243 1 -1.1104 6.80935 8.31702 12.5067
237 1 -1.1104 6.78178 5.63524 6.82098
266 1 -1.1104 12.2699 5.64274 6.7498
269 1 -1.1104 9.44556 5.69847 6.66058
248 1 -1.1104 6.84773 5.52042 12.4454
264 1 -1.1104 9.6869 11.0279 9.63515
268 1 -1.1104 9.58666 5.61314 9.53442
270 1 -1.1104 9.59909 11.2212 12.3151
271 1 -1.1104 9.69144 5.66405 12.322
272 2 2.2208 8.24922 9.75626 11.0106
273 1 -1.1104 9.60729 8.38837 9.56382
274 2 2.2208 8.24163 12.6287 8.29432
275 2 2.2208 8.07998 7.02594 8.21348
276 2 2.2208 10.9644 6.97039 10.8966
277 2 2.2208 11.0242 12.7138 11.0727
278 1 -1.1104 12.5363 8.51422 12.3376
279 1 -1.1104 12.5385 8.52506 9.5798
280 1 -1.1104 12.3546 5.58507 12.2844
281 1 -1.1104 12.4208 11.3092 12.3519
282 2 2.2208 11.0603 9.84997 8.10038
283 1 -1.1104 12.443 5.70444 9.51946
284 1 -1.1104 12.4284 11.1711 9.67268
285 1 -1.1104 9.53532 8.39234 12.4329
126 1 -1.1104 3.92541 19.4926 6.92556
124 1 -1.1104 4.05169 13.9576 6.96513
118 1 -1.1104 6.6253 16.5877 6.79455
117 1 -1.1104 1.10581 16.7497 6.81786
108 1 -1.1104 1.31082 14.1082 6.98134
302 1 -1.1104 1.24704 19.6124 6.74853
312 2 2.2208 -0.261771 18.3389 11.1198
311 2 2.2208 -0.352309 21.013 8.18522
313 2 2.2208 -0.136047 15.5008 8.22455
286 1 -1.1104 3.99477 19.7315 12.3841
287 1 -1.1104 4.01427 14.1298 12.456
291 1 -1.1104 1.04246 19.6518 9.68022
292 1 -1.1104 1.09077 16.9212 9.66518
293 2 2.2208 5.32597 20.9888 8.2246
294 1 -1.1104 1.13571 14.1507 9.70592
295 2 2.2208 5.26732 15.2958 8.25445
298 1 -1.1104 1.2364 19.5318 12.4297
299 1 -1.1104 1.2367 13.8703 12.5447
300 2 2.2208 5.41329 18.1718 11.0666
301 1 -1.1104 4.02868 19.559 9.68319
303 2 2.2208 2.60587 18.2233 8.35628
304 1 -1.1104 3.89011 16.7768 9.73018
305 1 -1.1104 3.71856 13.9744 9.72778
307 1 -1.1104 1.09233 16.7271 12.6281
308 1 -1.1104 3.85651 16.9374 12.4577
309 2 2.2208 2.5891 21.0191 11.0257
310 2 2.2208 2.42514 15.4353 11.167
297 1 -1.1104 6.84557 14.0416 12.4792
149 1 -1.1104 12.4778 16.7472 6.75631
289 1 -1.1104 6.7604 16.7194 9.51128
306 1 -1.1104 6.81175 16.6919 12.3198
296 1 -1.1104 6.76515 19.6081 12.3053
288 1 -1.1104 6.79569 19.561 9.52694
314 1 -1.1104 9.56945 16.765 9.58101
317 2 2.2208 8.35343 15.4446 11.1164
331 2 2.2208 11.063 18.1904 10.9706
327 1 -1.1104 12.4103 19.643 9.68654
319 1 -1.1104 9.71733 13.9207 9.71251
154 1 -1.1104 9.6253 14.0689 6.92989
329 1 -1.1104 12.443 19.707 12.4687
112 1 -1.1104 6.79735 19.5222 6.8516
328 1 -1.1104 12.3686 14.1571 9.70139
326 1 -1.1104 12.3671 16.9549 12.4756
323 1 -1.1104 12.3899 16.8835 9.54048
324 2 2.2208 10.9995 21.0669 8.28523
143 1 -1.1104 12.4847 14.0241 6.91282
315 1 -1.1104 9.66869 16.7063 12.35
111 1 -1.1104 6.94345 13.9313 7.00705
325 2 2.2208 11.0329 15.4308 8.2361
321 1 -1.1104 9.71037 19.5256 12.4185
322 1 -1.1104 9.52537 13.988 12.5597
320 2 2.2208 8.11462 18.1408 8.17147
145 1 -1.1104 12.1932 19.5301 6.83328
156 1 -1.1104 9.43794 19.6701 6.75037
318 1 -1.1104 9.62076 19.6178 9.72569
330 1 -1.1104 12.4684 14.1306 12.4827
316 2 2.2208 8.19124 21.0063 11.0607
566 2 2.2208 5.41302 -4.17064 -0.267205
29 2 2.2208 5.26332 -4.16257 5.32703
28 2 2.2208 2.66021 -4.10419 2.46359
376 2 2.2208 5.28632 4.10261 13.7925
375 2 2.2208 2.54598 1.35944 13.9002
407 2 2.2208 8.18163 1.47629 13.8931
444 2 2.2208 5.42165 9.68156 13.876
506 2 2.2208 2.60235 18.2021 13.8753
682 2 2.2208 2.57249 15.3285 -0.147775
334 2 2.2208 5.3017 1.39226 16.6676
335 1 -1.1104 1.02143 -2.9415 17.945
336 1 -1.1104 0.973616 2.92391 18.0024
339 1 -1.1104 1.17074 -2.9088 15.1938
341 1 -1.1104 1.1956 2.82044 15.2976
347 1 -1.1104 0.951895 -0.156031 17.9223
349 2 2.2208 5.35206 -1.51992 19.3167
351 1 -1.1104 1.01609 -0.0326664 15.1761
355 1 -1.1104 3.74391 -2.96554 17.9912
356 1 -1.1104 3.87189 2.81908 18.0314
357 2 2.2208 2.55397 1.39663 19.4393
358 1 -1.1104 3.97547 -2.95278 15.1625
360 1 -1.1104 3.99968 2.64019 15.2583
362 2 2.2208 2.44242 -1.59056 16.5911
363 2 2.2208 2.49961 4.22777 16.6652
364 1 -1.1104 3.8449 -0.0208011 17.9163
365 1 -1.1104 3.82947 -0.127005 15.0581
350 2 2.2208 5.38692 4.21153 19.3771
371 2 2.2208 -0.257953 -1.62399 19.4128
9647 2 2.2208 -0.409082 4.20721 19.5152
370 2 2.2208 -0.36215 1.37716 16.622
9651 2 2.2208 -0.4506 4.16649 13.8798
337 1 -1.1104 6.68417 -2.88148 17.871
705 2 2.2208 11.0287 18.2902 22.2238
374 2 2.2208 5.38203 -1.43582 13.8434
404 2 2.2208 8.08502 -4.27863 13.7316
352 1 -1.1104 1.17202 -0.000613764 20.7889
340 1 -1.1104 1.25194 -2.83412 20.7214
361 1 -1.1104 4.12667 2.76015 20.8731
373 2 2.2208 2.57708 -4.37924 13.7622
372 2 2.2208 -0.206143 -1.39115 13.7806
483 1 -1.1104 6.69934 14.1693 20.9755
338 1 -1.1104 6.70704 2.82988 17.9141
345 1 -1.1104 6.7333 2.71189 15.1533
348 1 -1.1104 6.62011 -0.0681501 18.1317
353 1 -1.1104 6.63611 -0.100369 15.3205
343 1 -1.1104 6.79675 -2.98428 15.1602
377 2 2.2208 11.0543 1.35649 16.633
378 1 -1.1104 12.2956 -2.90721 17.8813
379 1 -1.1104 12.3954 2.7441 17.8884
380 1 -1.1104 12.3284 -2.82058 15.0451
382 1 -1.1104 12.397 2.85362 15.042
384 1 -1.1104 12.3257 0.103575 18.0572
385 2 2.2208 10.9366 -1.51691 19.3638
387 1 -1.1104 12.3516 -0.00623087 15.268
389 1 -1.1104 9.45518 -2.85951 18.0578
390 1 -1.1104 9.66145 2.80473 17.8779
391 2 2.2208 8.14198 1.23718 19.3935
392 1 -1.1104 9.54234 -3.00369 15.1915
394 1 -1.1104 9.64597 2.8917 15.2335
396 2 2.2208 8.10688 -1.57483 16.7312
398 1 -1.1104 9.62263 -0.0924863 17.8999
399 1 -1.1104 9.36989 -0.00308062 15.1947
397 2 2.2208 8.15925 4.21674 16.5327
386 2 2.2208 10.936 4.07598 19.2838
408 2 2.2208 10.901 -1.36075 13.7965
600 2 2.2208 13.7768 1.41377 25.0614
9719 2 2.2208 -0.27267 9.80797 19.4511
381 1 -1.1104 12.347 -2.70853 20.7397
410 2 2.2208 5.31244 7.0025 16.6369
411 2 2.2208 5.3766 12.5213 16.6223
412 1 -1.1104 1.02192 8.43174 17.9681
414 1 -1.1104 1.02057 8.38841 15.1801
418 1 -1.1104 1.08399 5.65454 17.9676
419 1 -1.1104 0.963223 11.1221 18.0074
422 2 2.2208 5.42717 9.80199 19.3411
423 1 -1.1104 1.04579 5.49412 15.1486
425 1 -1.1104 1.12852 11.2356 15.3734
431 1 -1.1104 3.93064 8.43656 18.0243
432 2 2.2208 2.45549 6.91008 19.3353
433 2 2.2208 2.62617 12.7358 19.5617
434 1 -1.1104 3.90201 8.30353 15.2247
436 2 2.2208 2.46951 9.78471 16.643
437 1 -1.1104 3.83686 5.64044 17.7887
438 1 -1.1104 3.99041 11.2017 18.1367
439 1 -1.1104 3.98691 5.50979 15.268
441 1 -1.1104 3.96095 11.0636 15.3436
9720 2 2.2208 -0.387805 7.05986 16.6304
9685 2 2.2208 -0.256974 12.6972 16.6835
688 1 -1.1104 9.62561 16.8976 23.6473
424 1 -1.1104 1.04945 5.6194 20.7551
692 1 -1.1104 9.51702 14.041 26.5343
420 1 -1.1104 6.82837 5.69778 18.1168
427 1 -1.1104 6.70982 5.48581 15.2744
440 1 -1.1104 3.91544 5.62241 20.7017
445 2 2.2208 2.56493 12.5102 13.9485
9723 2 2.2208 -0.30085 9.75652 13.8873
421 1 -1.1104 6.72648 11.2875 18.0011
413 1 -1.1104 6.79962 8.5277 17.9853
429 1 -1.1104 6.76062 11.1179 15.1604
416 1 -1.1104 6.71192 8.24947 15.3631
446 2 2.2208 10.9733 7.01054 16.5789
447 2 2.2208 10.9463 12.7551 16.7247
448 1 -1.1104 12.3535 8.30654 18.0608
449 1 -1.1104 12.2756 8.38853 15.2693
451 1 -1.1104 12.4087 5.45866 17.9661
452 1 -1.1104 12.4329 11.1583 18.1179
453 2 2.2208 10.9302 9.84395 19.431
454 1 -1.1104 12.4355 5.62417 15.1037
456 1 -1.1104 12.3412 11.3078 15.1764
458 1 -1.1104 9.51764 8.53099 18.1575
459 2 2.2208 8.24645 7.07919 19.3821
460 2 2.2208 8.17927 12.6249 19.4914
461 1 -1.1104 9.58468 8.46062 15.1892
463 2 2.2208 8.1747 9.91671 16.7546
464 1 -1.1104 9.55469 5.68256 18.0294
465 1 -1.1104 9.60534 11.2894 18.0426
466 1 -1.1104 9.63795 5.68852 15.22
468 1 -1.1104 9.59618 11.3506 15.2063
428 1 -1.1104 6.71728 5.62573 20.8706
471 2 2.2208 11.0122 9.88681 13.7603
472 2 2.2208 8.15522 12.653 13.738
9792 2 2.2208 -0.246366 15.3288 13.956
9793 2 2.2208 -0.194852 21.0021 13.9151
507 2 2.2208 5.3729 21.0689 13.8151
9790 2 2.2208 -0.138478 15.4869 19.5254
9789 2 2.2208 -0.143266 21.1362 19.4482
473 2 2.2208 5.3685 18.0957 16.665
474 1 -1.1104 1.26675 13.887 18.1492
475 1 -1.1104 1.17304 19.6714 17.8892
478 1 -1.1104 1.2792 14.0692 15.231
480 1 -1.1104 1.0486 19.5497 15.1251
486 1 -1.1104 1.24647 16.8956 18.0238
488 2 2.2208 5.34471 15.5699 19.5142
489 2 2.2208 5.36975 21.0431 19.3446
490 1 -1.1104 1.30117 16.7609 15.3288
494 1 -1.1104 4.08664 13.8448 18.0862
495 1 -1.1104 3.98061 19.5485 18.1276
496 2 2.2208 2.4674 18.3458 19.3463
497 1 -1.1104 4.08171 13.9703 15.238
499 1 -1.1104 3.89946 19.569 15.3207
501 2 2.2208 2.63473 15.3168 16.6646
502 2 2.2208 2.58844 20.9877 16.6445
503 1 -1.1104 3.82811 16.724 18.0202
504 1 -1.1104 4.00891 16.802 15.1494
9791 2 2.2208 -0.198281 18.1743 16.6038
508 2 2.2208 5.41858 15.3104 13.8449
479 1 -1.1104 1.16355 14.0576 20.9872
693 1 -1.1104 6.85045 19.7126 26.3067
535 2 2.2208 8.05651 18.2426 13.7913
476 1 -1.1104 6.85847 14.0842 18.2258
477 1 -1.1104 6.6008 19.607 17.8715
492 1 -1.1104 6.72686 16.7401 15.1772
484 1 -1.1104 6.63788 19.538 15.0541
487 1 -1.1104 6.7028 16.7688 18.1041
482 1 -1.1104 6.86703 13.891 15.2773
509 2 2.2208 10.9622 18.278 16.6571
510 1 -1.1104 12.313 13.9973 18.2551
511 1 -1.1104 12.4057 19.4961 17.9852
512 1 -1.1104 12.4377 14.102 15.428
514 1 -1.1104 12.3485 19.5463 15.2151
516 1 -1.1104 12.4161 16.8782 18.0113
517 2 2.2208 10.9693 15.4541 19.4585
518 2 2.2208 11.09 21.088 19.4571
519 1 -1.1104 12.4038 16.7819 15.4119
521 1 -1.1104 9.58854 14.0361 18.1785
522 1 -1.1104 9.57489 19.8358 18.1796
523 2 2.2208 8.09645 18.1962 19.4168
524 1 -1.1104 9.61439 14.0096 15.368
526 1 -1.1104 9.45628 19.6671 15.2173
528 2 2.2208 8.28117 15.3454 16.7391
529 2 2.2208 8.1566 21.0096 16.4523
530 1 -1.1104 9.52053 16.9641 18.0634
531 1 -1.1104 9.73354 16.8856 15.2575
534 2 2.2208 11.0174 15.4946 13.9483
533 2 2.2208 10.9766 20.9252 13.841
515 1 -1.1104 12.4022 19.6694 21.0231
532 1 -1.1104 9.47142 16.7277 20.8127
443 2 2.2208 2.56603 6.90429 13.7979
366 1 -1.1104 3.85407 -0.0985192 20.8081
342 1 -1.1104 1.28664 2.84834 20.8291
359 1 -1.1104 4.00798 -2.91241 20.8215
537 2 2.2208 5.44232 1.30643 22.243
538 1 -1.1104 1.09613 -2.80599 23.5369
539 1 -1.1104 1.2168 2.72891 23.4762
542 1 -1.1104 1.12198 -2.78407 26.2993
543 1 -1.1104 1.14768 2.84817 26.4981
546 1 -1.1104 1.10909 -0.106719 23.5582
548 2 2.2208 5.41017 -1.48802 24.9348
550 1 -1.1104 1.20533 0.0395172 26.5442
552 1 -1.1104 3.8749 -2.77858 23.6635
553 1 -1.1104 3.99878 2.70001 23.6334
554 2 2.2208 2.46319 1.37735 24.9929
555 1 -1.1104 4.02384 -2.82939 26.4273
556 1 -1.1104 4.01133 2.73198 26.3187
557 2 2.2208 2.51805 -1.412 22.0593
558 2 2.2208 2.63139 4.11885 22.2313
559 1 -1.1104 3.6497 0.0526046 23.4906
560 1 -1.1104 4.10831 -0.137622 26.3339
549 2 2.2208 5.34779 4.242 24.968
572 2 2.2208 -0.336795 4.29818 25.0686
571 2 2.2208 -0.274486 1.35476 22.218
570 2 2.2208 -0.355697 -1.41578 24.927
547 1 -1.1104 6.7375 -0.0649893 23.4702
700 1 -1.1104 12.3851 16.9653 23.6879
354 1 -1.1104 6.7506 -0.0842436 20.746
395 1 -1.1104 9.58709 2.70771 20.6937
346 1 -1.1104 6.89691 2.7154 20.6136
545 1 -1.1104 6.77511 2.76748 26.3259
551 1 -1.1104 6.9127 -0.107182 26.3234
344 1 -1.1104 6.89114 -3.01711 20.6731
400 1 -1.1104 9.61184 -0.175983 20.7786
383 1 -1.1104 12.2806 2.80733 20.8042
544 1 -1.1104 6.89286 -2.87026 26.3778
540 1 -1.1104 6.82767 -2.8932 23.6182
388 1 -1.1104 12.2049 -0.0316944 20.7877
393 1 -1.1104 9.54509 -2.97237 20.8526
541 1 -1.1104 6.67433 2.87232 23.6567
573 2 2.2208 11.0794 1.38133 22.2145
574 1 -1.1104 12.4762 -2.9374 23.5567
575 1 -1.1104 12.414 2.77698 23.5534
576 1 -1.1104 12.4333 -2.89421 26.2628
577 1 -1.1104 12.3319 2.6676 26.3499
578 1 -1.1104 12.4594 0.0626246 23.5451
579 2 2.2208 11.0125 -1.40652 25.0433
581 1 -1.1104 12.4111 -0.0493276 26.4362
582 1 -1.1104 9.57511 -2.77506 23.6776
583 1 -1.1104 9.52712 2.85578 23.6001
584 2 2.2208 8.1745 1.29921 25.1539
585 1 -1.1104 9.65228 -2.85649 26.5582
586 1 -1.1104 9.566 2.77546 26.4816
587 2 2.2208 8.23232 -1.54382 22.2501
588 2 2.2208 8.21667 4.07781 22.1705
589 1 -1.1104 9.50655 0.15532 23.7013
590 1 -1.1104 9.58471 -0.186227 26.6183
580 2 2.2208 11.0011 4.06135 24.9698
597 2 2.2208 8.22938 -4.34429 24.9666
442 1 -1.1104 4.08041 11.3127 20.982
426 1 -1.1104 1.21169 11.1368 20.7178
415 1 -1.1104 1.2084 8.42659 20.7627
9898 2 2.2208 -0.28284 6.92008 22.1059
435 1 -1.1104 3.96644 8.44032 20.6281
630 2 2.2208 -0.256132 9.9012 24.9276
631 2 2.2208 -0.153172 12.5434 22.2653
602 2 2.2208 5.41346 6.95621 22.2135
603 2 2.2208 5.49313 12.6356 22.2904
604 1 -1.1104 1.16776 8.51381 23.5306
606 1 -1.1104 1.11227 8.41627 26.177
608 1 -1.1104 1.04136 5.6286 23.6235
609 1 -1.1104 1.13497 11.1377 23.4976
612 2 2.2208 5.41046 9.8297 25.0818
613 1 -1.1104 1.09587 5.55434 26.3915
614 1 -1.1104 1.14131 11.1223 26.4137
617 1 -1.1104 3.96326 8.42207 23.4104
618 2 2.2208 2.46764 7.01465 24.8353
619 2 2.2208 2.56604 12.4973 25.0497
620 1 -1.1104 3.93782 8.36968 26.2665
621 2 2.2208 2.73026 9.89003 22.0236
622 1 -1.1104 3.87152 5.62567 23.537
623 1 -1.1104 4.05145 11.1264 23.6168
624 1 -1.1104 3.92938 5.46074 26.3803
625 1 -1.1104 3.94551 11.1643 26.4113
675 1 -1.1104 6.77376 16.8415 23.7142
430 1 -1.1104 6.7607 11.3679 20.8097
469 1 -1.1104 9.72293 11.3027 20.8585
450 1 -1.1104 12.3036 8.35517 20.7228
605 1 -1.1104 6.80745 8.4632 23.6814
615 1 -1.1104 6.74747 5.63313 26.4814
417 1 -1.1104 6.72931 8.46562 20.8017
467 1 -1.1104 9.54418 5.67529 20.8819
455 1 -1.1104 12.3406 5.52985 20.7217
611 1 -1.1104 6.90683 11.2863 23.6045
607 1 -1.1104 6.84408 8.39829 26.5044
610 1 -1.1104 6.94789 5.64893 23.7575
616 1 -1.1104 6.80118 11.2998 26.4182
457 1 -1.1104 12.444 11.3231 20.9468
462 1 -1.1104 9.54306 8.42735 20.9176
633 1 -1.1104 9.76259 11.2355 26.6093
634 1 -1.1104 9.61455 5.60222 26.5318
635 1 -1.1104 9.69762 11.1673 23.7387
636 1 -1.1104 9.76793 5.73856 23.6799
637 2 2.2208 8.15106 9.79181 22.2959
638 1 -1.1104 9.67179 8.32953 26.4493
639 2 2.2208 8.37751 12.5541 25.1264
640 2 2.2208 8.31917 7.01073 25.143
641 2 2.2208 11.066 6.98329 22.2317
642 2 2.2208 11.0055 12.6896 22.2596
643 1 -1.1104 12.2902 8.33795 23.6234
644 1 -1.1104 12.3164 8.1547 26.3411
645 1 -1.1104 12.4322 5.49758 23.6096
646 1 -1.1104 12.4833 11.1783 23.6921
647 2 2.2208 10.9758 9.75183 25.0486
648 1 -1.1104 12.3898 5.30836 26.4336
649 1 -1.1104 12.4662 11.1432 26.4426
650 1 -1.1104 9.45251 8.3721 23.6157
498 1 -1.1104 3.9377 14.0659 20.9049
500 1 -1.1104 3.8248 19.7344 20.7555
505 1 -1.1104 3.90252 16.9382 20.7415
491 1 -1.1104 1.25215 16.8545 20.8541
685 2 2.2208 -0.165075 20.9643 24.986
683 2 2.2208 -0.194841 15.4152 25.0831
686 2 2.2208 -0.150022 18.226 22.3438
481 1 -1.1104 1.09382 19.6163 20.8772
669 1 -1.1104 1.22519 13.942 23.7716
678 2 2.2208 2.51274 21.0566 22.1441
677 1 -1.1104 4.04484 16.9028 23.7149
671 1 -1.1104 4.06021 19.7695 26.397
676 1 -1.1104 1.35293 16.7102 23.7425
679 2 2.2208 2.61609 15.4115 22.2488
672 2 2.2208 2.59075 18.1685 25.179
673 1 -1.1104 4.01191 16.8543 26.5107
674 1 -1.1104 3.92003 13.9815 26.2897
670 2 2.2208 5.26761 18.4279 22.2516
657 1 -1.1104 3.95946 19.7225 23.579
659 1 -1.1104 4.13989 14.0187 23.5372
661 1 -1.1104 1.23197 19.5874 26.4533
662 1 -1.1104 1.19405 16.6273 26.5666
663 1 -1.1104 1.11068 13.9335 26.5764
665 2 2.2208 5.30623 21.1113 24.9498
666 2 2.2208 5.38815 15.3899 25.0172
668 1 -1.1104 1.10625 19.5143 23.743
658 1 -1.1104 6.65529 14.0687 26.6545
485 1 -1.1104 6.8118 19.7161 20.65
493 1 -1.1104 6.61454 16.9122 20.9659
520 1 -1.1104 12.4265 16.8547 20.8698
513 1 -1.1104 12.4022 14.1777 20.9839
690 2 2.2208 8.07923 15.48 22.3761
701 1 -1.1104 12.4936 19.6491 26.4901
703 1 -1.1104 12.407 19.7031 23.7277
697 1 -1.1104 12.3923 16.8367 26.4595
704 1 -1.1104 12.5278 14.0463 23.8153
687 1 -1.1104 9.69237 16.9231 26.3315
525 1 -1.1104 9.56854 13.9834 21.0188
691 1 -1.1104 9.70257 19.6096 26.5391
527 1 -1.1104 9.63648 19.5033 20.8981
702 1 -1.1104 12.237 14.008 26.5695
694 2 2.2208 8.27246 18.2454 25.1181
695 1 -1.1104 9.54129 19.715 23.7221
667 1 -1.1104 6.94706 14.0394 23.6945
696 1 -1.1104 9.68861 14.1492 23.7729
664 1 -1.1104 6.58589 19.7406 23.5752
660 1 -1.1104 6.86816 16.7778 26.4774
689 2 2.2208 8.07904 21.0905 22.3763
699 2 2.2208 10.8985 15.5501 25.2219
698 2 2.2208 10.9972 21.0716 25.0368
470 2 2.2208 8.12947 6.87156 13.8135
591 2 2.2208 11.0445 1.35338 27.8462
409 2 2.2208 11.0077 4.32358 13.7135
714 2 2.2208 5.29994 23.8442 5.42798
715 2 2.2208 5.33357 29.3159 5.48189
716 1 -1.1104 0.97769 25.0636 1.13796
717 1 -1.1104 1.16087 25.1425 4.00085
718 1 -1.1104 1.22193 22.3898 1.31685
719 1 -1.1104 1.14925 28.0197 1.15247
720 2 2.2208 5.27275 26.6857 2.65125
721 1 -1.1104 1.24969 22.3333 4.06267
722 1 -1.1104 1.13135 28.1615 4.00745
723 1 -1.1104 3.93481 25.2571 1.24118
724 2 2.2208 2.67451 23.8615 2.68582
725 2 2.2208 2.60196 29.4706 2.61847
726 1 -1.1104 3.84296 25.3072 3.93389
727 2 2.2208 2.42285 26.6518 5.4589
728 1 -1.1104 3.9192 22.5678 1.17102
729 1 -1.1104 3.98884 28.0024 1.12929
730 1 -1.1104 3.88776 22.4324 4.01011
731 1 -1.1104 3.89775 27.9879 4.03787
1055 2 2.2208 8.0343 37.6953 -0.26959
732 2 2.2208 -0.242813 29.6086 5.40704
734 2 2.2208 -0.224196 26.7428 2.61648
981 1 -1.1104 6.86379 39.3709 12.2076
1276 2 2.2208 2.57122 26.6043 -0.237236
1026 1 -1.1104 12.438 42.1043 9.59888
1047 2 2.2208 5.44003 29.4395 -0.319795
1275 2 2.2208 5.33481 23.8778 -0.166344
738 1 -1.1104 6.68599 27.9655 1.14638
740 1 -1.1104 6.84378 28.0238 3.99575
739 1 -1.1104 6.55228 22.403 3.94655
737 1 -1.1104 6.78549 22.3797 1.10514
735 1 -1.1104 6.70062 25.2577 1.33132
736 1 -1.1104 6.68386 25.2117 4.19042
741 2 2.2208 10.9656 23.8177 5.40206
742 2 2.2208 11.0408 29.4103 5.40042
743 1 -1.1104 12.3877 25.2148 1.17929
744 1 -1.1104 12.3596 25.2784 4.07665
745 1 -1.1104 12.3915 22.5173 1.27685
746 1 -1.1104 12.4271 27.9527 1.17212
747 2 2.2208 11.0705 26.6238 2.42855
748 1 -1.1104 12.1691 22.4257 4.13659
749 1 -1.1104 12.494 28.0867 4.00851
750 1 -1.1104 9.4341 25.3928 1.24676
751 2 2.2208 8.15242 23.9065 2.60673
752 2 2.2208 8.33567 29.3809 2.50225
753 1 -1.1104 9.68178 25.2247 4.00976
754 2 2.2208 8.19527 26.5758 5.42027
755 1 -1.1104 9.6008 22.5549 1.07433
756 1 -1.1104 9.65522 28.1637 1.19292
757 1 -1.1104 9.35001 22.4249 3.81686
758 1 -1.1104 9.59751 27.9733 3.99773
1306 2 2.2208 8.13677 26.6948 -0.149255
1305 2 2.2208 11.007 23.8609 -0.0943149
1049 2 2.2208 11.0993 29.402 -0.248572
762 2 2.2208 5.28498 34.9067 5.46091
763 1 -1.1104 1.32497 30.8032 1.24758
764 1 -1.1104 1.22245 36.5262 1.18309
766 1 -1.1104 1.03108 30.8887 4.13082
767 1 -1.1104 1.11043 36.4171 4.02353
769 1 -1.1104 1.2839 33.6432 1.06888
770 2 2.2208 5.40596 32.107 2.5657
771 2 2.2208 5.46921 37.8158 2.61231
772 1 -1.1104 1.18528 33.7173 3.99791
774 1 -1.1104 4.11648 30.6952 1.20033
775 1 -1.1104 3.95468 36.4214 1.21251
776 2 2.2208 2.61054 35.0256 2.66128
777 1 -1.1104 3.81553 30.8411 3.89017
778 1 -1.1104 3.80197 36.5113 3.99381
779 2 2.2208 2.49828 32.3207 5.38168
780 2 2.2208 2.64156 37.7621 5.34398
781 1 -1.1104 4.01811 33.5622 1.25614
782 1 -1.1104 4.00885 33.618 4.08192
784 2 2.2208 -0.124604 32.2409 2.61355
920 1 -1.1104 3.88719 33.6727 6.88821
785 2 2.2208 -0.238505 34.9967 5.43147
1053 2 2.2208 -0.18894 35.0869 -0.163533
1051 2 2.2208 2.61832 32.1168 -0.235377
783 2 2.2208 -0.0679182 37.9426 2.52515
1050 2 2.2208 2.58294 37.9048 -0.297537
918 1 -1.1104 4.03966 30.9595 6.75511
1052 2 2.2208 5.29607 35.0138 -0.0855929
786 1 -1.1104 7.00056 30.7998 1.21423
765 1 -1.1104 6.66395 36.3265 1.2487
788 1 -1.1104 6.76013 33.6262 1.20983
773 1 -1.1104 6.73353 33.4222 4.07628
768 1 -1.1104 6.55581 36.3057 4.04763
787 1 -1.1104 6.6811 30.759 3.94955
789 2 2.2208 10.9521 35.0128 5.31138
790 1 -1.1104 12.4675 30.7295 1.05016
791 1 -1.1104 12.3162 36.3638 1.25911
792 1 -1.1104 12.3809 30.8214 3.93047
793 1 -1.1104 12.43 36.5215 4.05537
794 1 -1.1104 12.5135 33.6126 1.1238
795 2 2.2208 11.0848 32.2784 2.49392
796 2 2.2208 10.9517 37.8273 2.7086
797 1 -1.1104 12.4494 33.5402 3.9131
798 1 -1.1104 9.74496 30.8724 1.12505
799 1 -1.1104 9.46322 36.3896 1.27379
800 2 2.2208 8.13953 34.8634 2.65591
801 1 -1.1104 9.49325 30.7432 3.88612
802 1 -1.1104 9.53282 36.5699 4.0078
803 2 2.2208 8.09602 32.0701 5.37663