ITEM: TIMESTEP
60000
ITEM: NUMBER OF ATOMS
17910
ITEM: BOX BOUNDS pp pp pp
-3.5428772367307093e-01 2.7694287723672783e+01
-4.4098915987948439e+00 3.3248989159880904e+02
-3.5412839475390595e-01 2.7694128394754017e+01
ITEM: ATOMS id type q x y z
1 2 2.2208 5.31242 1.1817 5.18049
2 1 -1.1104 1.03035 -3.24552 1.06617
3 1 -1.1104 0.999271 2.54649 0.921491
6 1 -1.1104 1.25347 -2.97372 3.80875
7 1 -1.1104 1.15251 2.71875 3.72809
10 1 -1.1104 1.07633 -0.37298 0.968172
12 2 2.2208 5.26567 -1.73897 2.37894
13 2 2.2208 5.30329 4.08721 2.39214
14 1 -1.1104 1.07298 -0.0676566 3.66543
16 1 -1.1104 3.83511 -3.00253 0.989877
17 1 -1.1104 3.87211 2.5124 1.00522
18 2 2.2208 2.40825 1.13121 2.29151
19 1 -1.1104 4.02869 -3.17536 3.84015
20 1 -1.1104 3.85324 2.48463 3.80137
21 2 2.2208 2.53747 -1.62985 5.09974
23 1 -1.1104 3.83556 -0.134575 0.966921
24 1 -1.1104 3.82722 -0.354352 3.81552
22 2 2.2208 2.48751 4.08767 5.25111
332 2 2.2208 13.7478 17.9746 8.17808
8 1 -1.1104 6.6499 -3.04003 3.88481
9501 2 2.2208 -0.38205 12.4258 10.7554
11 1 -1.1104 6.62868 -0.235366 1.16852
4 1 -1.1104 6.53155 -3.12163 1.11205
25 2 2.2208 -0.261599 -1.6093 2.49436
229 2 2.2208 13.6197 1.09952 8.02018
174 1 -1.1104 3.84112 -0.138164 6.5662
598 2 2.2208 13.7788 -1.65018 -0.275644
28 2 2.2208 2.52968 -4.48802 2.54957
52 2 2.2208 10.8021 -4.43249 5.26609
5 1 -1.1104 6.66453 2.55639 1.04446
9491 2 2.2208 13.5464 12.4233 7.96331
202 2 2.2208 2.41274 -4.27302 8.05269
15 1 -1.1104 6.77399 -0.0815506 3.86823
9 1 -1.1104 6.5797 2.61249 3.85988
31 2 2.2208 10.8604 1.08932 5.21481
32 1 -1.1104 12.207 -2.9902 0.880609
33 1 -1.1104 12.2737 2.41945 1.02375
34 1 -1.1104 12.1342 -3.04712 3.79182
35 1 -1.1104 12.405 2.51867 3.79351
36 1 -1.1104 12.2541 -0.282499 1.05921
37 2 2.2208 10.6875 -1.75895 2.40771
38 2 2.2208 10.9704 4.0088 2.5232
39 1 -1.1104 12.1919 -0.216572 3.83553
40 1 -1.1104 9.36449 -3.11492 1.03085
41 1 -1.1104 9.61713 2.53434 1.09652
42 2 2.2208 7.91943 1.19416 2.41147
43 1 -1.1104 9.39789 -3.06262 3.89358
44 1 -1.1104 9.40476 2.41626 3.75111
45 2 2.2208 8.06811 -1.57865 5.23753
47 1 -1.1104 9.36634 -0.260389 0.869241
48 1 -1.1104 9.47308 -0.296375 3.66363
46 2 2.2208 7.96527 3.97766 5.24851
51 2 2.2208 8.10179 -4.52786 2.43233
49 2 2.2208 13.5669 1.09077 2.38389
311 2 2.2208 -0.436099 20.7372 7.88441
168 1 -1.1104 6.6583 -3.06174 6.80626
53 2 2.2208 13.7747 -4.35449 2.33694
563 2 2.2208 2.51346 3.92105 -0.352651
81 2 2.2208 -0.440447 6.80799 5.20828
54 2 2.2208 5.21776 6.86549 5.25156
55 2 2.2208 5.30593 12.3521 5.28264
56 1 -1.1104 1.07038 8.21924 0.968281
58 1 -1.1104 1.00537 8.26863 3.88919
60 1 -1.1104 1.17928 5.38367 1.03756
61 1 -1.1104 1.11723 10.8796 1.02969
66 2 2.2208 5.27806 9.55887 2.59286
67 1 -1.1104 0.921343 5.55291 3.86662
68 1 -1.1104 1.00978 10.9516 3.87433
71 1 -1.1104 3.88311 8.16967 1.20428
72 2 2.2208 2.56517 6.70505 2.55004
73 2 2.2208 2.56272 12.2611 2.54327
74 1 -1.1104 3.885 8.18633 3.90459
75 2 2.2208 2.55547 9.55668 5.24053
76 1 -1.1104 3.92469 5.32783 1.26692
77 1 -1.1104 3.94683 10.9475 1.00247
79 1 -1.1104 3.79796 5.43552 3.88713
80 1 -1.1104 3.96399 10.9539 3.86334
62 1 -1.1104 1.1431 10.9926 6.65645
57 1 -1.1104 6.67345 8.22273 1.1159
70 1 -1.1104 6.73201 11.0059 4.01005
9414 2 2.2208 13.6949 3.92176 10.8539
9356 2 2.2208 13.7323 20.6937 5.33359
9377 2 2.2208 13.6457 15.2016 5.33466
239 1 -1.1104 3.83569 5.47293 6.61072
65 1 -1.1104 6.88194 10.9382 6.80857
627 2 2.2208 2.43359 9.56673 -0.39342
651 2 2.2208 10.9142 6.61549 -0.278384
290 1 -1.1104 6.56798 13.7075 9.60181
63 1 -1.1104 6.80628 5.40871 1.09712
472 2 2.2208 8.05376 12.2087 13.6675
64 1 -1.1104 6.76035 10.9964 0.929001
69 1 -1.1104 6.62647 5.48928 3.6932
59 1 -1.1104 6.74708 8.21964 3.82918
84 2 2.2208 10.7656 6.77709 5.35968
85 2 2.2208 10.8285 12.318 5.37741
86 1 -1.1104 12.2844 8.15621 1.06441
87 1 -1.1104 12.215 8.08536 3.82778
88 1 -1.1104 12.3664 5.28258 1.04872
89 1 -1.1104 12.3224 10.9898 0.987421
91 2 2.2208 10.9042 9.63913 2.45639
92 1 -1.1104 12.2364 5.37976 3.81135
93 1 -1.1104 12.1914 11.02 3.83337
94 1 -1.1104 9.50205 8.02443 0.975311
95 2 2.2208 8.15216 6.79064 2.43342
96 2 2.2208 8.1174 12.3606 2.45852
97 1 -1.1104 9.44685 8.1548 3.80513
98 2 2.2208 8.09281 9.56425 5.3703
99 1 -1.1104 9.59375 5.26956 1.03894
100 1 -1.1104 9.50386 10.9716 1.00783
102 1 -1.1104 9.43584 5.38979 3.88156
103 1 -1.1104 9.43175 10.8328 3.96739
265 1 -1.1104 12.2247 8.0855 6.81194
297 1 -1.1104 6.68535 13.8116 12.3163
200 2 2.2208 -0.361665 -1.64525 8.00059
101 1 -1.1104 9.50899 11.0253 6.91849
106 2 2.2208 5.31139 17.8576 5.28305
107 1 -1.1104 1.14239 13.5309 1.19145
109 1 -1.1104 1.03043 19.3918 0.919977
113 1 -1.1104 1.16067 13.7373 3.86338
114 1 -1.1104 1.0682 19.4233 3.76495
116 1 -1.1104 1.02341 16.542 0.8535
119 2 2.2208 5.25368 15.2831 2.36867
120 2 2.2208 5.32168 20.7909 2.449
121 1 -1.1104 1.07127 16.5248 3.60758
123 1 -1.1104 3.89788 13.7194 0.922202
125 1 -1.1104 3.90052 19.3977 1.00425
127 2 2.2208 2.60484 17.9464 2.34754
128 1 -1.1104 4.04913 13.7408 3.78197
129 1 -1.1104 3.94439 19.2557 3.79911
130 2 2.2208 2.503 15.0761 5.13909
131 2 2.2208 2.41863 20.6532 5.26156
132 1 -1.1104 3.88222 16.609 0.95003
134 1 -1.1104 3.74157 16.4719 3.79599
296 1 -1.1104 6.68309 19.3778 12.2179
117 1 -1.1104 1.14527 16.4903 6.48456
115 1 -1.1104 6.65594 13.7483 3.7277
201 2 2.2208 -0.381599 1.22214 10.9739
137 2 2.2208 -0.367667 17.8204 5.1166
326 1 -1.1104 12.2591 16.5311 12.2498
9508 2 2.2208 -0.254317 9.54331 7.95
312 2 2.2208 -0.230692 17.9842 10.628
165 2 2.2208 13.5937 17.968 2.40267
110 1 -1.1104 6.70133 13.747 0.941791
140 1 -1.1104 6.70016 16.5451 1.08872
122 1 -1.1104 6.7013 16.5841 3.87015
139 1 -1.1104 6.69074 19.4145 4.08088
138 1 -1.1104 6.64006 19.4465 1.05901
141 2 2.2208 10.863 17.9277 5.31486
142 1 -1.1104 12.2003 13.9207 1.15589
144 1 -1.1104 12.0534 19.4504 1.03406
146 1 -1.1104 12.4544 13.6746 3.86751
147 1 -1.1104 12.2602 19.1758 3.82616
148 1 -1.1104 12.2674 16.6824 1.08623
150 2 2.2208 10.9305 15.2166 2.48934
151 2 2.2208 10.9476 20.7538 2.44379
152 1 -1.1104 12.2503 16.5536 4.05286
153 1 -1.1104 9.6268 13.8746 1.05071
155 1 -1.1104 9.41429 19.2761 0.914739
157 2 2.2208 8.05399 18.0086 2.46962
158 1 -1.1104 9.47509 13.6401 3.91333
159 1 -1.1104 9.46433 19.315 3.78613
160 2 2.2208 7.93432 15.0571 5.19298
161 2 2.2208 8.2719 20.6814 5.3404
162 1 -1.1104 9.4713 16.6331 1.15129
164 1 -1.1104 9.42809 16.5302 3.82753
149 1 -1.1104 12.2783 16.7428 6.84608
111 1 -1.1104 6.61023 13.6747 6.63177
145 1 -1.1104 12.3402 19.4686 6.65802
143 1 -1.1104 12.1423 13.8223 6.69511
167 1 -1.1104 1.11831 2.57226 6.59352
172 1 -1.1104 3.9422 -3.01405 6.57539
325 2 2.2208 10.8451 15.2092 8.14438
173 1 -1.1104 3.83594 2.69193 6.69124
170 1 -1.1104 1.06601 -0.261131 6.64347
166 1 -1.1104 1.13899 -2.92465 6.56013
175 2 2.2208 5.06313 1.22066 10.8967
176 1 -1.1104 0.97095 -3.02497 12.2883
177 1 -1.1104 0.995355 2.51361 12.1407
180 1 -1.1104 1.03483 -3.04255 9.48816
181 1 -1.1104 0.910148 2.60428 9.49742
184 1 -1.1104 1.14116 -0.225946 12.3352
186 2 2.2208 5.26491 -1.61439 8.06344
187 2 2.2208 5.22535 4.05953 8.08175
188 1 -1.1104 0.830382 -0.205844 9.53194
190 1 -1.1104 3.76404 -2.93049 12.2532
191 1 -1.1104 3.86108 2.66291 12.2936
192 2 2.2208 2.38583 1.2109 8.09931
193 1 -1.1104 3.77795 -3.04498 9.37973
194 1 -1.1104 3.60787 2.62472 9.43515
195 2 2.2208 2.38053 -1.62666 10.8303
196 2 2.2208 2.37487 4.00363 10.8417
197 1 -1.1104 3.77476 -0.18154 12.3256
198 1 -1.1104 3.72003 -0.277797 9.42222
171 1 -1.1104 6.73222 -0.192209 6.72434
169 1 -1.1104 6.67529 2.63081 6.63385
322 1 -1.1104 9.67313 13.7405 12.2164
327 1 -1.1104 12.2949 19.2858 9.41205
199 2 2.2208 -0.370724 4.02841 8.08891
156 1 -1.1104 9.50625 19.4045 6.72837
163 1 -1.1104 9.30938 16.6792 6.63065
318 1 -1.1104 9.3431 19.4598 9.46609
205 1 -1.1104 12.3354 -3.0133 6.56921
230 2 2.2208 13.619 -1.56733 10.925
179 1 -1.1104 6.58182 2.80913 12.3588
182 1 -1.1104 6.55236 -2.91795 9.3805
323 1 -1.1104 12.3038 16.5576 9.53885
207 1 -1.1104 12.2471 -0.328893 6.71262
208 1 -1.1104 9.5297 -2.95185 6.72653
178 1 -1.1104 6.60578 -3.01124 12.1804
189 1 -1.1104 6.35818 -0.175495 9.47796
210 1 -1.1104 9.46666 -0.107497 6.71835
206 1 -1.1104 12.1344 2.51206 6.5425
209 1 -1.1104 9.36871 2.6291 6.61683
185 1 -1.1104 6.60468 -0.253182 12.2231
183 1 -1.1104 6.74717 2.62199 9.62963
211 2 2.2208 10.9605 1.18667 10.9543
212 1 -1.1104 12.229 -2.97274 12.3405
213 1 -1.1104 12.3396 2.51416 12.2471
214 1 -1.1104 12.2216 -2.94847 9.40897
215 1 -1.1104 12.2623 2.58243 9.55689
216 1 -1.1104 12.3363 -0.279376 12.4359
217 2 2.2208 10.8908 -1.61003 8.11483
219 1 -1.1104 12.2796 -0.224576 9.62374
220 1 -1.1104 9.36899 -2.98652 12.4788
221 1 -1.1104 9.6358 2.46795 12.4054
222 2 2.2208 8.06442 1.07103 8.12226
223 1 -1.1104 9.43067 -2.92967 9.65096
224 1 -1.1104 9.47741 2.42979 9.65231
225 2 2.2208 8.12658 -1.56935 10.9522
226 2 2.2208 8.04909 3.85651 10.9418
227 1 -1.1104 9.46822 -0.138168 12.254
228 1 -1.1104 9.33062 -0.285303 9.50088
218 2 2.2208 10.8466 3.89607 8.01789
316 2 2.2208 8.02158 20.7368 10.913
238 1 -1.1104 3.61884 8.20504 6.77928
236 1 -1.1104 0.975442 5.31547 6.6169
234 1 -1.1104 0.922288 8.23285 6.52694
78 1 -1.1104 3.9031 11.1684 6.64164
240 2 2.2208 5.26717 6.73639 10.8783
241 2 2.2208 5.13655 12.2795 10.9331
242 1 -1.1104 1.02827 7.98676 12.2033
244 1 -1.1104 0.895271 8.15626 9.37335
246 1 -1.1104 0.895305 5.18826 12.2428
247 1 -1.1104 1.27315 10.9842 12.2573
250 2 2.2208 5.254 9.59501 8.1644
251 1 -1.1104 1.11416 5.31102 9.37843
252 1 -1.1104 1.0286 10.9988 9.46771
255 1 -1.1104 3.92739 8.16561 12.2805
256 2 2.2208 2.27356 6.83096 8.10767
257 2 2.2208 2.40753 12.3844 8.02144
258 1 -1.1104 3.88406 8.18665 9.49922
259 2 2.2208 2.43488 9.54948 10.9347
260 1 -1.1104 3.73974 5.4811 12.325
261 1 -1.1104 3.9771 10.9529 12.4253
262 1 -1.1104 3.86274 5.36927 9.59184
263 1 -1.1104 3.65783 10.9293 9.51848
254 1 -1.1104 6.51923 10.9264 9.57326
249 1 -1.1104 6.71246 11.0461 12.3001
235 1 -1.1104 6.70828 8.03248 6.7218
248 1 -1.1104 6.64999 5.47714 12.2862
317 2 2.2208 8.0921 15.2129 10.8311
27 2 2.2208 -0.322441 4.0787 2.53389
376 2 2.2208 5.19896 4.06877 13.7037
315 1 -1.1104 9.45642 16.6208 12.3567
266 1 -1.1104 12.1957 5.30737 6.72595
245 1 -1.1104 6.59679 8.1723 9.60715
243 1 -1.1104 6.88513 8.26003 12.5079
237 1 -1.1104 6.60445 5.36026 6.62362
269 1 -1.1104 9.3439 5.42821 6.5683
267 1 -1.1104 9.52614 8.27846 6.63615
90 1 -1.1104 12.2448 10.9347 6.67519
253 1 -1.1104 6.6187 5.39402 9.57025
264 1 -1.1104 9.50819 10.9249 9.5547
268 1 -1.1104 9.29964 5.26453 9.42433
270 1 -1.1104 9.50206 10.9788 12.3118
271 1 -1.1104 9.51634 5.35945 12.222
272 2 2.2208 8.11984 9.64081 10.9254
273 1 -1.1104 9.46219 8.11764 9.44217
274 2 2.2208 8.06228 12.3961 8.21273
275 2 2.2208 7.96282 6.74151 8.10343
276 2 2.2208 10.9261 6.72739 10.8727
277 2 2.2208 10.9224 12.3864 10.8435
278 1 -1.1104 12.3462 8.18149 12.1977
279 1 -1.1104 12.2617 8.05176 9.53053
280 1 -1.1104 12.2883 5.36369 12.2249
281 1 -1.1104 12.4232 10.8529 12.3066
282 2 2.2208 10.8646 9.56404 8.08783
283 1 -1.1104 12.2918 5.39454 9.42456
284 1 -1.1104 12.3329 10.8856 9.54151
285 1 -1.1104 9.58224 8.30586 12.4018
118 1 -1.1104 6.53049 16.4334 6.61335
330 1 -1.1104 12.432 13.7065 12.1861
124 1 -1.1104 3.83512 13.7849 6.66125
108 1 -1.1104 1.02723 13.7209 6.62597
154 1 -1.1104 9.33954 13.921 6.77461
133 1 -1.1104 3.81331 16.6039 6.6536
302 1 -1.1104 1.00637 19.2179 6.58375
126 1 -1.1104 3.83242 19.4172 6.68205
286 1 -1.1104 3.82991 19.3283 12.1009
287 1 -1.1104 3.7119 13.8157 12.3048
291 1 -1.1104 1.057 19.3931 9.34142
292 1 -1.1104 1.05188 16.5507 9.39581
293 2 2.2208 5.25414 20.6953 8.02859
294 1 -1.1104 1.10557 13.691 9.35937
295 2 2.2208 5.16722 15.1777 8.10098
298 1 -1.1104 1.00191 19.3634 12.1486
299 1 -1.1104 0.9759 13.6926 12.2576
300 2 2.2208 5.22654 17.9439 10.8453
301 1 -1.1104 3.66972 19.2368 9.45723
303 2 2.2208 2.4038 17.8855 8.05544
304 1 -1.1104 3.71537 16.5018 9.38458
305 1 -1.1104 3.85932 13.7256 9.53872
307 1 -1.1104 0.964557 16.5921 12.177
308 1 -1.1104 3.82994 16.6168 12.256
309 2 2.2208 2.36851 20.7553 10.8211
310 2 2.2208 2.45428 15.1256 10.8061
288 1 -1.1104 6.53715 19.3875 9.47271
306 1 -1.1104 6.76306 16.5353 12.2248
289 1 -1.1104 6.65397 16.5182 9.43051
112 1 -1.1104 6.697 19.3476 6.79057
320 2 2.2208 7.96008 17.9778 7.98091
319 1 -1.1104 9.34175 13.8118 9.56674
331 2 2.2208 10.8164 17.9876 10.8635
329 1 -1.1104 12.2167 19.337 12.4022
533 2 2.2208 10.9513 20.7726 13.6436
328 1 -1.1104 12.1855 13.7569 9.39267
324 2 2.2208 10.7822 20.7683 8.10458
314 1 -1.1104 9.48428 16.5979 9.45668
321 1 -1.1104 9.50296 19.3693 12.2472
507 2 2.2208 5.25729 20.8601 13.6569
708 2 2.2208 8.12036 15.1674 -0.338162
407 2 2.2208 8.06042 1.25945 13.68
408 2 2.2208 10.7908 -1.51481 13.5793
710 2 2.2208 13.7448 20.8039 -0.306919
445 2 2.2208 2.46322 12.3164 13.6384
374 2 2.2208 5.18419 -1.59377 13.645
506 2 2.2208 2.5075 17.9729 13.5368
652 2 2.2208 8.09076 9.51577 -0.377622
626 2 2.2208 5.3965 6.79584 -0.278691
653 2 2.2208 10.7125 12.4488 -0.312324
682 2 2.2208 2.44765 15.0194 -0.351545
632 2 2.2208 -0.298996 6.796 -0.336481
561 2 2.2208 5.14779 1.28681 -0.345675
569 2 2.2208 -0.388553 0.960872 -0.429051
334 2 2.2208 5.30788 1.23724 16.4383
335 1 -1.1104 1.01657 -3.19911 18.0465
336 1 -1.1104 1.08414 2.52001 17.7992
339 1 -1.1104 1.0624 -3.05179 15.1388
341 1 -1.1104 1.08506 2.50637 14.984
347 1 -1.1104 1.09348 -0.273596 17.8227
349 2 2.2208 5.17208 -1.53791 19.3249
351 1 -1.1104 1.14126 -0.312431 15.1985
355 1 -1.1104 3.66411 -2.92241 18.0523
356 1 -1.1104 3.89126 2.56045 17.9644
357 2 2.2208 2.47974 1.22339 19.2576
358 1 -1.1104 3.88556 -3.07884 14.9724
360 1 -1.1104 3.92606 2.71006 15.091
362 2 2.2208 2.49535 -1.58027 16.4229
363 2 2.2208 2.56807 3.92928 16.3816
364 1 -1.1104 3.95152 -0.342884 17.8763
365 1 -1.1104 3.92014 -0.189402 15.1118
350 2 2.2208 5.32558 4.09405 19.2555
403 2 2.2208 7.85702 -4.35152 19.1251
369 2 2.2208 2.52837 -4.32928 19.4194
342 1 -1.1104 1.101 2.65386 20.8466
338 1 -1.1104 6.65929 2.67828 17.8759
353 1 -1.1104 6.65077 -0.120825 15.0373
346 1 -1.1104 6.63268 2.67697 20.7911
597 2 2.2208 7.9608 -4.456 24.9266
352 1 -1.1104 1.05628 -0.200361 20.7778
361 1 -1.1104 3.81556 2.58694 20.6633
359 1 -1.1104 3.90599 -2.99375 20.7712
340 1 -1.1104 1.02569 -2.93729 20.7099
596 2 2.2208 10.7905 -4.4673 22.0503
337 1 -1.1104 6.30991 -2.94149 17.7381
348 1 -1.1104 6.73007 -0.156365 17.8903
343 1 -1.1104 6.63882 -3.07117 15.1235
345 1 -1.1104 6.68389 2.71474 15.1348
377 2 2.2208 10.8082 1.257 16.5372
378 1 -1.1104 12.1441 -2.86248 17.8417
379 1 -1.1104 12.3189 2.70957 17.9625
380 1 -1.1104 12.1248 -2.96769 15.063
382 1 -1.1104 12.436 2.66929 15.016
384 1 -1.1104 12.2266 -0.0477197 17.7508
385 2 2.2208 10.8525 -1.53438 19.2967
387 1 -1.1104 12.2158 -0.18913 15.0745
389 1 -1.1104 9.33344 -2.91999 17.8266
390 1 -1.1104 9.38292 2.50815 17.7996
391 2 2.2208 7.99837 1.254 19.3564
392 1 -1.1104 9.33337 -3.01559 15.0852
394 1 -1.1104 9.465 2.71381 15.0402
396 2 2.2208 8.03119 -1.56042 16.4944
398 1 -1.1104 9.45489 -0.0713365 17.8447
399 1 -1.1104 9.44875 -0.168327 15.0731
397 2 2.2208 8.0906 4.02501 16.4673
386 2 2.2208 10.8199 4.00312 19.2905
701 1 -1.1104 12.2419 19.4538 26.258
9651 2 2.2208 -0.352658 3.88109 13.6743
705 2 2.2208 10.8612 18.0077 22.1122
695 1 -1.1104 9.33884 19.5337 23.4847
685 2 2.2208 -0.26335 20.7849 24.7697
9604 2 2.2208 13.7392 4.09905 16.3843
9680 2 2.2208 13.6593 12.3359 19.2698
410 2 2.2208 5.20907 6.71205 16.522
411 2 2.2208 5.18421 12.3809 16.4658
412 1 -1.1104 1.05456 8.14019 17.8707
414 1 -1.1104 0.80899 8.01164 15.1009
418 1 -1.1104 1.15347 5.24955 17.8249
419 1 -1.1104 1.13078 10.9968 17.8348
422 2 2.2208 5.2489 9.60852 19.1827
423 1 -1.1104 1.14374 5.24673 15.1115
425 1 -1.1104 1.09373 10.8973 14.9693
431 1 -1.1104 3.87168 8.13557 17.8859
432 2 2.2208 2.43092 6.73262 19.2299
433 2 2.2208 2.54917 12.4269 19.2076
434 1 -1.1104 3.60689 8.15628 15.076
436 2 2.2208 2.36207 9.52812 16.4947
437 1 -1.1104 3.8711 5.33672 17.7624
438 1 -1.1104 3.91153 11.0286 17.8687
439 1 -1.1104 3.91958 5.43432 15.0386
441 1 -1.1104 3.69031 11.0045 15.1544
421 1 -1.1104 6.7666 11.001 17.9192
413 1 -1.1104 6.59063 8.1474 17.9921
435 1 -1.1104 3.88796 8.08644 20.6089
442 1 -1.1104 4.04652 10.8579 20.6602
427 1 -1.1104 6.56601 5.54655 15.0722
417 1 -1.1104 6.78906 8.25382 20.5823
689 2 2.2208 8.16602 20.8745 22.1388
424 1 -1.1104 0.961619 5.42586 20.7488
440 1 -1.1104 3.89475 5.42631 20.5184
630 2 2.2208 -0.278815 9.59201 24.9035
444 2 2.2208 5.31614 9.58942 13.8418
416 1 -1.1104 6.54305 8.31095 15.3376
443 2 2.2208 2.49816 6.81845 13.6554
420 1 -1.1104 6.67197 5.47647 17.8219
429 1 -1.1104 6.40863 11.0982 15.1183
446 2 2.2208 10.8696 6.78347 16.4443
447 2 2.2208 10.9566 12.4551 16.4044
448 1 -1.1104 12.1477 8.25415 17.7652
449 1 -1.1104 12.4369 8.34389 15.0336
451 1 -1.1104 12.2302 5.41754 17.771
452 1 -1.1104 12.3973 11.1831 17.8398
453 2 2.2208 10.9067 9.65371 19.212
454 1 -1.1104 12.2764 5.33818 15.0048
456 1 -1.1104 12.337 11.1349 15.0301
458 1 -1.1104 9.47405 8.16378 17.9629
459 2 2.2208 8.14076 6.92841 19.3863
460 2 2.2208 8.20288 12.5261 19.2358
461 1 -1.1104 9.44031 8.11035 15.1583
463 2 2.2208 8.06496 9.64796 16.5553
464 1 -1.1104 9.49724 5.30162 17.8435
465 1 -1.1104 9.50124 11.0211 17.9084
466 1 -1.1104 9.5542 5.42071 15.018
468 1 -1.1104 9.5131 10.9147 15.0883
428 1 -1.1104 6.59661 5.41164 20.7276
696 1 -1.1104 9.47317 13.9524 23.5217
688 1 -1.1104 9.327 16.8717 23.471
462 1 -1.1104 9.5478 8.27998 20.7287
457 1 -1.1104 12.4071 11.0458 20.6343
473 2 2.2208 5.30364 17.9773 16.4049
474 1 -1.1104 1.16132 13.5867 17.9194
475 1 -1.1104 1.11644 19.2467 17.7972
478 1 -1.1104 0.992948 13.7243 15.0303
480 1 -1.1104 1.08632 19.2858 14.8132
486 1 -1.1104 1.05131 16.4004 17.787
488 2 2.2208 5.38238 15.1906 19.2391
489 2 2.2208 5.32574 20.8235 19.2183
490 1 -1.1104 1.03049 16.47 14.9597
494 1 -1.1104 4.0614 13.8587 17.7647
495 1 -1.1104 3.97653 19.2466 17.729
496 2 2.2208 2.56198 17.9787 19.188
497 1 -1.1104 3.89609 13.8207 15.1181
499 1 -1.1104 3.83903 19.3481 15.047
501 2 2.2208 2.38535 15.1804 16.3417
502 2 2.2208 2.54286 20.6504 16.4706
503 1 -1.1104 3.8556 16.5279 17.849
504 1 -1.1104 3.92036 16.5921 14.9453
570 2 2.2208 -0.360872 -1.62344 24.9042
500 1 -1.1104 3.78599 19.4035 20.6752
485 1 -1.1104 6.72188 19.4081 20.5779
691 1 -1.1104 9.45932 19.4324 26.2531
692 1 -1.1104 9.40693 13.7795 26.2042
709 2 2.2208 13.7317 20.9147 22.2464
491 1 -1.1104 1.06157 16.5932 20.6548
493 1 -1.1104 6.69501 16.5269 20.6026
9682 2 2.2208 13.8747 12.323 13.5003
697 1 -1.1104 12.2002 16.4446 26.3785
572 2 2.2208 -0.381494 3.99593 24.9508
658 1 -1.1104 6.65908 13.8034 26.1912
527 1 -1.1104 9.49924 19.5372 20.6216
492 1 -1.1104 6.89813 16.5341 15.0811
477 1 -1.1104 6.60198 19.4502 17.9029
476 1 -1.1104 6.7663 13.7934 17.9154
482 1 -1.1104 6.65827 13.8408 15.259
484 1 -1.1104 6.76513 19.4091 15.0768
487 1 -1.1104 6.58877 16.5924 17.8063
509 2 2.2208 10.8309 18.1016 16.5034
510 1 -1.1104 12.3005 13.8691 17.9605
511 1 -1.1104 12.3421 19.4387 18.0001
512 1 -1.1104 12.3076 13.8538 15.0945
514 1 -1.1104 12.345 19.4199 15.147
516 1 -1.1104 12.1024 16.7953 18.0608
517 2 2.2208 10.9204 15.226 19.2877
518 2 2.2208 10.8031 20.9569 19.2385
519 1 -1.1104 12.3088 16.661 15.169
521 1 -1.1104 9.68663 13.8869 17.7716
522 1 -1.1104 9.49907 19.4901 17.8092
523 2 2.2208 8.16523 17.9312 19.2401
524 1 -1.1104 9.54599 13.7791 14.9823
526 1 -1.1104 9.50116 19.3895 15.07
528 2 2.2208 8.10443 15.2359 16.4763
529 2 2.2208 7.91507 20.8808 16.4131
530 1 -1.1104 9.40206 16.6516 17.8416
531 1 -1.1104 9.61695 16.6183 15.0765
515 1 -1.1104 12.2554 19.4474 20.7083
532 1 -1.1104 9.58774 16.5697 20.5801
366 1 -1.1104 3.75032 -0.225764 20.5771
537 2 2.2208 5.31062 1.15007 22.1437
538 1 -1.1104 1.14794 -3.05906 23.5427
539 1 -1.1104 0.941038 2.58213 23.4531
542 1 -1.1104 1.00979 -2.94527 26.338
543 1 -1.1104 0.877703 2.52964 26.1642
546 1 -1.1104 1.04804 -0.163112 23.5657
548 2 2.2208 5.19476 -1.54418 24.9117
550 1 -1.1104 1.02004 -0.199481 26.3416
552 1 -1.1104 3.85344 -2.83779 23.5071
553 1 -1.1104 3.90538 2.69556 23.4402
554 2 2.2208 2.40098 1.1118 24.8794
555 1 -1.1104 3.75101 -2.9852 26.307
556 1 -1.1104 3.61081 2.46205 26.2422
557 2 2.2208 2.4063 -1.53681 22.1053
558 2 2.2208 2.49067 3.98622 22.1564
559 1 -1.1104 3.88166 -0.142101 23.4327
560 1 -1.1104 3.81597 -0.255994 26.3
549 2 2.2208 5.43222 4.01648 24.8251
9723 2 2.2208 -0.282166 9.57388 13.6053
545 1 -1.1104 6.4383 2.6319 26.3247
544 1 -1.1104 6.53002 -2.98396 26.2921
540 1 -1.1104 6.86435 -2.96796 23.4817
694 2 2.2208 8.08975 18.0423 24.9059
571 2 2.2208 -0.286953 1.22439 22.0657
693 1 -1.1104 6.65006 19.3803 26.2995
400 1 -1.1104 9.44694 -0.168925 20.7124
344 1 -1.1104 6.68465 -3.08231 20.5686
395 1 -1.1104 9.36879 2.61923 20.4818
381 1 -1.1104 12.2259 -2.98345 20.7465
547 1 -1.1104 6.67533 -0.206851 23.5527
383 1 -1.1104 12.1407 2.86512 20.6772
388 1 -1.1104 12.2994 -0.178854 20.5801
354 1 -1.1104 6.71827 -0.174948 20.6897
393 1 -1.1104 9.38296 -2.89775 20.6934
541 1 -1.1104 6.8666 2.58526 23.6231
551 1 -1.1104 6.62008 -0.128645 26.3532
573 2 2.2208 10.9028 1.26207 22.0664
574 1 -1.1104 12.3388 -3.07596 23.5243
575 1 -1.1104 12.4031 2.54643 23.3564
576 1 -1.1104 12.3369 -3.0998 26.2641
577 1 -1.1104 12.2219 2.39621 26.2076
578 1 -1.1104 12.1511 -0.220602 23.3935
579 2 2.2208 10.962 -1.68779 25.0499
580 2 2.2208 10.8235 3.99735 24.8552
581 1 -1.1104 12.4012 -0.519864 26.3389
582 1 -1.1104 9.57081 -2.87881 23.5745
583 1 -1.1104 9.52044 2.65371 23.3366
584 2 2.2208 8.10612 1.15552 24.9593
585 1 -1.1104 9.44008 -3.14271 26.423
586 1 -1.1104 9.39935 2.53251 26.2457
587 2 2.2208 8.14972 -1.52638 22.0904
588 2 2.2208 8.09281 4.07726 22.0273
589 1 -1.1104 9.47628 -0.0414029 23.4815
590 1 -1.1104 9.48102 -0.147088 26.2141
690 2 2.2208 8.06682 15.3124 22.1156
593 2 2.2208 8.20868 3.93506 27.6853
426 1 -1.1104 1.19827 10.9802 20.6203
415 1 -1.1104 1.04225 8.12957 20.6345
602 2 2.2208 5.23934 6.79398 22.1461
603 2 2.2208 5.29745 12.4025 22.1188
604 1 -1.1104 1.02916 8.16585 23.2767
606 1 -1.1104 1.16817 8.10362 26.2233
608 1 -1.1104 1.21117 5.30575 23.4578
609 1 -1.1104 1.03853 10.9996 23.5001
612 2 2.2208 5.35526 9.54983 24.8548
613 1 -1.1104 1.04682 5.40353 26.3225
614 1 -1.1104 1.12246 10.9648 26.2784
617 1 -1.1104 3.90573 8.33148 23.5191
618 2 2.2208 2.43261 6.79799 24.8562
619 2 2.2208 2.49675 12.3681 25.0771
620 1 -1.1104 3.89087 8.2245 26.3532
621 2 2.2208 2.4704 9.58644 22.057
622 1 -1.1104 3.94801 5.44518 23.6209
623 1 -1.1104 3.94814 10.971 23.5078
624 1 -1.1104 3.93506 5.4445 26.4063
625 1 -1.1104 3.85868 10.9843 26.3529
611 1 -1.1104 6.68312 10.8947 23.4467
610 1 -1.1104 6.84373 5.44465 23.5859
615 1 -1.1104 6.61934 5.40286 26.3753
605 1 -1.1104 6.68468 8.19623 23.3343
9790 2 2.2208 -0.306735 15.1797 19.3032
704 1 -1.1104 12.3332 13.7028 23.511
455 1 -1.1104 12.2667 5.62059 20.7414
628 2 2.2208 5.32357 12.3971 27.6532
616 1 -1.1104 6.78864 11.0649 26.1867
469 1 -1.1104 9.70544 10.9851 20.688
430 1 -1.1104 6.71104 11.1104 20.6131
450 1 -1.1104 12.303 8.23907 20.5655
467 1 -1.1104 9.3548 5.47297 20.7092
607 1 -1.1104 6.77454 8.18838 26.257
633 1 -1.1104 9.48313 11.0528 26.3026
634 1 -1.1104 9.44733 5.34152 26.3262
635 1 -1.1104 9.53501 11.1138 23.5419
636 1 -1.1104 9.63376 5.33096 23.4514
637 2 2.2208 8.0498 9.72735 22.0295
638 1 -1.1104 9.33155 8.18716 26.2341
639 2 2.2208 8.12321 12.4438 24.8231
640 2 2.2208 8.18167 6.70638 24.8861
641 2 2.2208 10.8539 6.90365 22.1142
642 2 2.2208 10.9605 12.3558 22.0711
643 1 -1.1104 12.4046 8.22274 23.3748
644 1 -1.1104 12.1312 8.07012 26.1598
645 1 -1.1104 12.3035 5.25762 23.5417
646 1 -1.1104 12.357 10.9501 23.3818
647 2 2.2208 10.8871 9.64687 24.8991
648 1 -1.1104 12.2834 5.23072 26.1995
649 1 -1.1104 12.295 10.8904 26.2823
650 1 -1.1104 9.53242 8.2148 23.5882
9789 2 2.2208 -0.343657 20.7344 19.184
667 1 -1.1104 6.5457 13.9474 23.4087
9719 2 2.2208 -0.244608 9.59588 19.2322
479 1 -1.1104 1.27665 13.6598 20.7856
498 1 -1.1104 4.00393 13.6914 20.6656
481 1 -1.1104 0.906205 19.2746 20.5975
660 1 -1.1104 6.63853 16.7214 26.2093
702 1 -1.1104 12.2306 13.7091 26.2458
505 1 -1.1104 3.91824 16.6499 20.7561
669 1 -1.1104 1.17186 13.765 23.6471
678 2 2.2208 2.45745 20.8908 21.9218
677 1 -1.1104 4.02146 16.6363 23.4669
671 1 -1.1104 3.89514 19.3691 26.1515
676 1 -1.1104 1.17555 16.6745 23.4051
679 2 2.2208 2.49906 15.1991 22.0582
672 2 2.2208 2.62203 18.0563 24.7671
673 1 -1.1104 3.94016 16.6657 26.0845
674 1 -1.1104 3.88379 13.7991 26.232
670 2 2.2208 5.31034 17.9722 21.9916
657 1 -1.1104 3.84655 19.5245 23.2956
659 1 -1.1104 3.92771 13.6763 23.5352
661 1 -1.1104 1.1286 19.2643 26.1612
662 1 -1.1104 1.08183 16.4381 26.2369
663 1 -1.1104 1.2012 13.7771 26.4814
665 2 2.2208 5.04492 21.0229 24.8514
666 2 2.2208 5.30273 15.2108 24.897
668 1 -1.1104 0.968731 19.4974 23.4396
675 1 -1.1104 6.81996 16.6077 23.4198
483 1 -1.1104 6.90165 13.8226 20.7673
706 2 2.2208 8.05055 20.7987 27.6752
592 2 2.2208 7.96202 -1.63806 27.6231
664 1 -1.1104 6.53798 19.4835 23.5274
700 1 -1.1104 12.1454 16.4928 23.568
687 1 -1.1104 9.47046 16.53 26.3871
513 1 -1.1104 12.446 13.7718 20.701
703 1 -1.1104 12.2033 19.2795 23.5673
520 1 -1.1104 12.2117 16.6267 20.8602
698 2 2.2208 10.8541 20.8358 24.9628
525 1 -1.1104 9.58264 13.6493 20.6832
699 2 2.2208 10.8557 15.1666 24.8992
9647 2 2.2208 -0.159989 3.95645 19.2415
9898 2 2.2208 -0.367152 6.71889 22.046
9750 2 2.2208 13.5827 17.9823 19.348
9679 2 2.2208 13.6206 6.82249 19.179
9678 2 2.2208 13.8431 9.61677 16.428
9677 2 2.2208 13.872 6.88684 13.6819
9685 2 2.2208 -0.418767 12.336 16.4487
9720 2 2.2208 -0.369275 6.66616 16.4537
713 2 2.2208 13.6659 15.1223 22.1306
9608 2 2.2208 13.7013 1.24231 13.7929
683 2 2.2208 -0.332589 15.2367 24.7435
686 2 2.2208 -0.542882 18.0105 21.9565
534 2 2.2208 10.9401 15.2622 13.6177
562 2 2.2208 2.48634 -1.6549 27.6639
566 2 2.2208 5.16103 -4.36284 27.6421
707 2 2.2208 10.8108 17.9902 27.6624
591 2 2.2208 10.9391 1.03326 27.7123
535 2 2.2208 8.11483 18.0458 13.6074
595 2 2.2208 10.9968 -4.54684 27.5753
508 2 2.2208 5.31019 15.1014 13.7167
471 2 2.2208 11.0245 9.66087 13.6912
470 2 2.2208 8.09361 6.7359 13.6704
655 2 2.2208 13.6059 9.55747 27.5602
681 2 2.2208 5.19858 17.9787 27.7046
680 2 2.2208 2.41363 20.6705 27.7209
375 2 2.2208 2.43318 1.04268 13.8094
564 2 2.2208 -0.428084 -4.38332 27.7227
372 2 2.2208 -0.388624 -1.55972 13.6996
409 2 2.2208 10.9423 4.05183 13.691
714 2 2.2208 5.27216 23.5091 5.29931
715 2 2.2208 5.17742 29.1591 5.30274
716 1 -1.1104 0.947012 24.8628 1.01734
717 1 -1.1104 0.916105 24.988 3.66554
718 1 -1.1104 1.06524 22.2116 0.979404
719 1 -1.1104 0.994333 27.6262 0.907873
720 2 2.2208 5.12716 26.293 2.42667
721 1 -1.1104 1.19542 22.101 3.62953
722 1 -1.1104 0.997432 27.7845 3.70824
723 1 -1.1104 3.8582 24.79 0.8476
724 2 2.2208 2.49201 23.5865 2.4006
725 2 2.2208 2.45994 29.2204 2.46849
726 1 -1.1104 3.73307 24.9102 3.93915
727 2 2.2208 2.34467 26.3272 5.31977
728 1 -1.1104 3.81014 22.1278 1.08736
729 1 -1.1104 3.85623 27.7019 1.06528
730 1 -1.1104 3.87976 22.1982 3.81972
731 1 -1.1104 3.73861 27.7727 3.88005
761 2 2.2208 13.8282 26.4482 5.18938
735 1 -1.1104 6.72614 25.1219 1.03294
738 1 -1.1104 6.61138 27.8827 1.08586
860 1 -1.1104 6.62239 27.7046 6.8101
863 1 -1.1104 3.82378 27.7451 6.62453
1622 1 -1.1104 12.3706 47.4279 6.45805
1401 1 -1.1104 6.74586 47.4993 3.76517
1045 2 2.2208 10.9655 43.3118 13.5051
1611 1 -1.1104 3.94152 47.4542 9.23589
1453 1 -1.1104 9.48099 47.3947 3.65675
737 1 -1.1104 6.76272 22.2661 1.04507
736 1 -1.1104 6.48329 25.1298 3.91479
739 1 -1.1104 6.73485 22.3303 3.76031
740 1 -1.1104 6.79254 27.7995 3.87636
741 2 2.2208 10.8441 23.5423 5.26535
742 2 2.2208 10.9401 29.2516 5.28885
743 1 -1.1104 12.3056 24.9971 1.07501
744 1 -1.1104 12.3582 24.9087 3.71936
745 1 -1.1104 12.2768 22.1301 1.17056
746 1 -1.1104 12.3278 28.0281 0.922474
747 2 2.2208 10.8617 26.4555 2.39246
748 1 -1.1104 12.2351 21.9848 4.01525
749 1 -1.1104 12.4247 27.9103 3.85037
750 1 -1.1104 9.44981 25.0907 1.0905
751 2 2.2208 8.09621 23.6534 2.45507
752 2 2.2208 8.10113 29.1577 2.411
753 1 -1.1104 9.46899 25.1611 3.75999
754 2 2.2208 8.01788 26.4159 5.28036
755 1 -1.1104 9.42362 22.2701 1.12111
756 1 -1.1104 9.43209 27.7908 1.04538
757 1 -1.1104 9.49672 22.0741 3.86105
758 1 -1.1104 9.5177 27.7368 3.75469
1253 2 2.2208 8.15449 46.09 13.4926
856 1 -1.1104 6.69454 24.9083 6.61758
1007 1 -1.1104 9.56596 38.9787 9.26843
892 1 -1.1104 9.50754 22.2734 6.64279
889 1 -1.1104 12.294 22.1056 6.81889
890 1 -1.1104 12.4246 27.8615 6.63056
893 1 -1.1104 9.66508 27.8583 6.56094
888 1 -1.1104 12.316 24.8561 6.58268
762 2 2.2208 5.28521 34.729 5.34427
763 1 -1.1104 0.99649 30.444 1.02301
764 1 -1.1104 1.06703 36.0807 1.01218
766 1 -1.1104 1.08805 30.6008 3.74001
767 1 -1.1104 1.14909 36.2882 3.99856
769 1 -1.1104 1.20822 33.3141 1.10813
770 2 2.2208 5.20921 31.8697 2.64458
771 2 2.2208 5.0665 37.6595 2.43846
772 1 -1.1104 1.04287 33.383 3.77788
774 1 -1.1104 3.85936 30.5556 1.27208
775 1 -1.1104 3.85084 36.2755 1.05882
776 2 2.2208 2.47098 34.8138 2.50254
777 1 -1.1104 3.82075 30.5713 3.88738
778 1 -1.1104 4.02239 36.0642 3.76588
779 2 2.2208 2.54467 31.8928 5.14606
780 2 2.2208 2.46406 37.6119 5.37203
781 1 -1.1104 3.9073 33.3617 0.998366
782 1 -1.1104 3.85905 33.3571 3.74985
788 1 -1.1104 6.63253 33.3095 1.03045
919 1 -1.1104 3.90965 36.1904 6.55568
783 2 2.2208 -0.25541 37.6668 2.46861
785 2 2.2208 -0.266719 34.8376 5.26865
784 2 2.2208 -0.367011 31.9645 2.43438
913 1 -1.1104 0.974788 36.2168 6.67949
912 1 -1.1104 1.09993 30.4452 6.57467
916 1 -1.1104 1.27795 33.4368 6.62504
918 1 -1.1104 3.93474 30.482 6.6602
920 1 -1.1104 3.9202 33.3297 6.62118
914 1 -1.1104 6.69741 30.5802 6.62447
773 1 -1.1104 6.51288 33.3463 3.95629
786 1 -1.1104 6.57634 30.697 0.949351
787 1 -1.1104 6.59085 30.5505 3.93795
765 1 -1.1104 6.61037 36.1023 0.944818
768 1 -1.1104 6.68892 36.2788 3.7023
789 2 2.2208 10.998 34.8308 5.20705
790 1 -1.1104 12.3457 30.7524 1.07666
791 1 -1.1104 12.2043 36.2807 1.05314