ITEM: TIMESTEP
80000
ITEM: NUMBER OF ATOMS
17910
ITEM: BOX BOUNDS pp pp pp
-3.5051170673463383e-01 2.7690511706734664e+01
-4.3452764795867465e+00 3.3242527647960333e+02
-3.5533953397284740e-01 2.7695339533972867e+01
ITEM: ATOMS id type q x y z
1 2 2.2208 5.42565 1.24158 5.2816
2 1 -1.1104 1.27554 -2.95422 1.12037
3 1 -1.1104 1.20901 2.72062 1.0264
6 1 -1.1104 1.25015 -2.83982 3.92801
7 1 -1.1104 1.31902 2.80037 3.75839
10 1 -1.1104 1.21251 -0.18478 0.965453
12 2 2.2208 5.48679 -1.40848 2.46243
13 2 2.2208 5.53696 4.11877 2.34391
14 1 -1.1104 1.21622 -0.00643772 3.82477
16 1 -1.1104 3.9589 -2.83413 1.0481
17 1 -1.1104 4.05924 2.82301 1.08255
18 2 2.2208 2.55205 1.43588 2.41046
19 1 -1.1104 4.05043 -3.00628 3.85025
20 1 -1.1104 4.25089 2.80952 3.83317
21 2 2.2208 2.63774 -1.54208 5.25176
23 1 -1.1104 4.13765 -0.0104911 0.961017
24 1 -1.1104 3.95632 -0.0257594 3.87839
22 2 2.2208 2.65746 4.16711 5.15489
170 1 -1.1104 1.36901 -0.103803 6.54781
171 1 -1.1104 6.85713 -0.16 6.61542
25 2 2.2208 -0.176573 -1.43047 2.53638
26 2 2.2208 -0.208452 1.35368 5.22295
311 2 2.2208 -0.201195 20.9619 8.06356
563 2 2.2208 2.65525 4.06563 -0.390994
562 2 2.2208 2.50221 -1.58694 -0.333147
561 2 2.2208 5.56357 1.26707 -0.37993
569 2 2.2208 -0.315464 1.33584 -0.300925
11 1 -1.1104 6.86554 -0.152736 0.960538
8 1 -1.1104 6.82476 -2.96656 3.85948
9 1 -1.1104 6.89581 2.59321 3.84171
4 1 -1.1104 6.85189 -3.07782 0.881415
15 1 -1.1104 6.74695 -0.165183 3.74935
5 1 -1.1104 6.78721 2.6724 1.10001
31 2 2.2208 11.0736 1.25291 5.15976
32 1 -1.1104 12.5205 -3.14492 1.14828
33 1 -1.1104 12.2751 2.59253 1.05866
34 1 -1.1104 12.444 -2.86375 3.89104
35 1 -1.1104 12.5027 2.69549 3.8588
36 1 -1.1104 12.449 -0.257795 1.05117
37 2 2.2208 11.086 -1.69007 2.42863
39 1 -1.1104 12.4841 -0.0446682 3.78845
40 1 -1.1104 9.75028 -3.05555 1.21806
41 1 -1.1104 9.52485 2.63959 0.9887
42 2 2.2208 8.33231 1.35783 2.48308
43 1 -1.1104 9.58005 -3.11648 3.95199
44 1 -1.1104 9.70872 2.7255 3.89787
45 2 2.2208 8.26874 -1.54513 5.28494
47 1 -1.1104 9.78611 -0.181917 1.10451
48 1 -1.1104 9.6721 -0.113273 3.83998
46 2 2.2208 8.37251 4.07823 5.2562
38 2 2.2208 10.9943 4.16588 2.3557
207 1 -1.1104 12.5005 -0.133221 6.50682
208 1 -1.1104 9.6418 -3.04404 6.69038
210 1 -1.1104 9.65754 -0.110216 6.57999
206 1 -1.1104 12.4628 2.6909 6.60056
9541 2 2.2208 13.7002 20.8986 10.7276
205 1 -1.1104 12.2783 -3.00818 6.70969
591 2 2.2208 11.005 1.21241 -0.3702
54 2 2.2208 5.48262 6.91854 5.22988
55 2 2.2208 5.41034 12.3565 5.29383
56 1 -1.1104 1.21328 8.27639 1.02584
58 1 -1.1104 1.2431 8.25077 3.83803
60 1 -1.1104 1.22003 5.51197 0.971392
61 1 -1.1104 1.14137 11.1453 1.13857
66 2 2.2208 5.32152 9.83307 2.40786
67 1 -1.1104 1.23007 5.48386 3.92601
68 1 -1.1104 1.26287 11.0992 4.10835
71 1 -1.1104 4.07012 8.46781 0.87858
72 2 2.2208 2.60248 6.96112 2.41803
73 2 2.2208 2.68824 12.5537 2.56461
74 1 -1.1104 4.08934 8.33545 3.88918
75 2 2.2208 2.62948 9.62993 5.34661
76 1 -1.1104 3.81972 5.59824 0.881468
77 1 -1.1104 3.94367 11.1488 0.929845
79 1 -1.1104 4.0559 5.54701 3.74531
80 1 -1.1104 4.0395 11.1658 3.89464
82 2 2.2208 -0.207044 9.72897 2.54669
9508 2 2.2208 -0.192362 9.8388 8.09741
81 2 2.2208 -0.239819 6.88175 5.23989
78 1 -1.1104 3.94372 11.1168 6.71063
83 2 2.2208 -0.284055 12.5346 5.48231
627 2 2.2208 2.41795 9.74172 -0.373713
201 2 2.2208 -0.167391 1.30074 10.9088
651 2 2.2208 11.0495 6.82942 -0.465357
57 1 -1.1104 6.82902 8.27889 1.02697
59 1 -1.1104 6.75438 8.26601 3.86639
69 1 -1.1104 6.95193 5.46972 3.81332
64 1 -1.1104 6.82209 11.1293 1.19385
63 1 -1.1104 6.7431 5.52747 0.953275
70 1 -1.1104 6.87679 11.1174 3.98297
84 2 2.2208 11.0139 6.99069 5.27493
85 2 2.2208 11.0431 12.517 5.2643
86 1 -1.1104 12.482 8.19126 1.01229
87 1 -1.1104 12.2826 8.34941 3.90827
88 1 -1.1104 12.4146 5.53387 1.01729
89 1 -1.1104 12.5489 11.1456 1.10636
91 2 2.2208 10.9479 9.71485 2.5096
92 1 -1.1104 12.5658 5.53458 3.94844
93 1 -1.1104 12.4153 11.0717 3.87182
94 1 -1.1104 9.64258 8.24173 1.17605
95 2 2.2208 8.23102 6.88991 2.45611
96 2 2.2208 8.25799 12.5798 2.32906
97 1 -1.1104 9.56203 8.34703 4.00815
98 2 2.2208 8.22152 9.82292 5.22555
99 1 -1.1104 9.49595 5.50985 1.06006
100 1 -1.1104 9.59057 11.0865 1.02065
102 1 -1.1104 9.79628 5.5576 3.74851
103 1 -1.1104 9.55913 11.1439 3.76437
269 1 -1.1104 9.65942 5.54852 6.64615
65 1 -1.1104 6.8086 11.2037 6.84545
90 1 -1.1104 12.4099 11.2276 6.74487
653 2 2.2208 11.0351 12.5327 -0.324337
9414 2 2.2208 13.6581 4.14616 10.8522
106 2 2.2208 5.40712 18.1725 5.16441
107 1 -1.1104 1.16954 13.971 1.02724
109 1 -1.1104 1.0876 19.7751 0.948251
113 1 -1.1104 1.14599 13.8384 3.8538
114 1 -1.1104 1.06914 19.4548 3.82482
116 1 -1.1104 1.09388 16.8913 1.02661
119 2 2.2208 5.37719 15.2496 2.53187
120 2 2.2208 5.32509 20.8825 2.58611
121 1 -1.1104 1.27125 16.6326 3.85104
123 1 -1.1104 4.05265 13.9029 0.966675
125 1 -1.1104 3.93263 19.4714 1.13173
127 2 2.2208 2.54022 18.051 2.49767
128 1 -1.1104 4.02376 13.8988 3.89362
129 1 -1.1104 3.906 19.513 3.89085
130 2 2.2208 2.58929 15.2967 5.2917
131 2 2.2208 2.56879 20.9356 5.28489
132 1 -1.1104 3.84975 16.7285 1.15455
134 1 -1.1104 4.001 16.7559 3.9554
302 1 -1.1104 1.28301 19.5851 6.65227
139 1 -1.1104 6.74358 19.5829 3.77618
133 1 -1.1104 3.94872 16.802 6.69423
124 1 -1.1104 4.00186 13.9566 6.68927
136 2 2.2208 -0.201264 20.8793 2.42721
135 2 2.2208 -0.17039 15.3754 2.53991
681 2 2.2208 5.39457 18.255 -0.298702
320 2 2.2208 8.05839 18.0234 8.13914
680 2 2.2208 2.67355 20.9679 -0.322769
140 1 -1.1104 6.8052 16.7009 1.12374
115 1 -1.1104 6.61493 13.8446 3.79527
122 1 -1.1104 6.85314 16.7524 3.79834
110 1 -1.1104 6.86075 13.8702 0.883963
138 1 -1.1104 6.65383 19.4833 1.04385
141 2 2.2208 10.9976 18.0039 5.29305
142 1 -1.1104 12.5844 13.8042 1.03729
144 1 -1.1104 12.3713 19.5031 0.842918
146 1 -1.1104 12.4426 13.9342 3.91771
147 1 -1.1104 12.3893 19.4416 3.83743
148 1 -1.1104 12.2992 16.6698 1.05865
150 2 2.2208 10.9995 15.3609 2.40768
151 2 2.2208 11.0915 20.8694 2.53803
152 1 -1.1104 12.3279 16.6788 3.85034
153 1 -1.1104 9.72112 13.8677 1.08099
155 1 -1.1104 9.57278 19.5731 1.17335
157 2 2.2208 8.13992 18.1061 2.38789
158 1 -1.1104 9.64984 13.9345 3.75523
159 1 -1.1104 9.49458 19.3931 3.95122
160 2 2.2208 8.21899 15.2697 5.19085
161 2 2.2208 8.17384 21.0409 5.25024
162 1 -1.1104 9.48894 16.8058 0.971628
164 1 -1.1104 9.52756 16.6544 3.71238
706 2 2.2208 8.14387 21.0063 -0.282226
707 2 2.2208 10.9652 18.0717 -0.3332
156 1 -1.1104 9.44052 19.5233 6.93123
167 1 -1.1104 1.1434 2.69037 6.67585
174 1 -1.1104 4.07895 -0.163057 6.68561
166 1 -1.1104 1.11984 -2.84307 6.65952
172 1 -1.1104 4.02854 -2.92777 6.66252
173 1 -1.1104 4.00295 2.65967 6.72033
175 2 2.2208 5.40091 1.40526 10.9567
176 1 -1.1104 1.32316 -2.92364 12.1779
177 1 -1.1104 1.24618 2.475 12.3243
180 1 -1.1104 1.19527 -2.78237 9.486
181 1 -1.1104 1.34721 2.73317 9.57563
184 1 -1.1104 1.07705 -0.192603 12.3207
186 2 2.2208 5.40406 -1.40993 8.04442
188 1 -1.1104 1.21728 0.0150899 9.34859
190 1 -1.1104 3.98514 -2.84518 12.4174
191 1 -1.1104 4.00955 2.74103 12.4076
192 2 2.2208 2.55189 1.35941 8.12065
193 1 -1.1104 3.9683 -2.8325 9.57861
194 1 -1.1104 4.04984 2.70972 9.45529
195 2 2.2208 2.70871 -1.46593 10.8926
196 2 2.2208 2.69083 4.16958 10.9426
197 1 -1.1104 3.94275 -0.00693914 12.2975
198 1 -1.1104 3.93921 -0.138794 9.47853
187 2 2.2208 5.4419 4.11352 7.91584
200 2 2.2208 -0.181608 -1.49968 8.07276
199 2 2.2208 -0.177414 4.05375 8.00484
169 1 -1.1104 6.73191 2.66522 6.76138
168 1 -1.1104 6.70165 -2.90216 6.64503
209 1 -1.1104 9.63065 2.6472 6.76561
306 1 -1.1104 6.75283 16.7226 12.4262
290 1 -1.1104 6.80073 13.9323 9.38787
182 1 -1.1104 6.8178 -2.68487 9.51704
189 1 -1.1104 6.84801 0.0757635 9.86496
178 1 -1.1104 6.78817 -2.86838 12.3236
185 1 -1.1104 6.80537 0.000655119 12.5755
183 1 -1.1104 6.92722 2.84194 9.60803
179 1 -1.1104 6.97027 2.75514 12.364
289 1 -1.1104 6.59684 16.8226 9.51706
211 2 2.2208 11.1207 1.28861 10.8518
212 1 -1.1104 12.4953 -2.977 12.4934
213 1 -1.1104 12.4794 2.56891 12.2435
214 1 -1.1104 12.4873 -3.01945 9.58121
215 1 -1.1104 12.3975 2.69419 9.4457
216 1 -1.1104 12.5469 -0.157494 12.2866
217 2 2.2208 11.0852 -1.36696 8.05644
219 1 -1.1104 12.4517 -0.187329 9.48864
220 1 -1.1104 9.50528 -2.81184 12.329
221 1 -1.1104 9.84108 2.65144 12.2822
222 2 2.2208 8.15734 1.3905 8.16752
223 1 -1.1104 9.72802 -2.83321 9.50005
224 1 -1.1104 9.67473 2.60729 9.45971
225 2 2.2208 8.23424 -1.36677 11.01
226 2 2.2208 8.23745 4.10166 10.8432
227 1 -1.1104 9.64863 0.042483 12.2349
228 1 -1.1104 9.60117 -0.0880077 9.42455
218 2 2.2208 11.1217 4.11845 8.05969
322 1 -1.1104 9.65315 13.8964 12.2961
62 1 -1.1104 1.14783 11.1355 6.90843
235 1 -1.1104 6.68693 8.38342 6.58346
236 1 -1.1104 1.09312 5.47909 6.60653
239 1 -1.1104 3.93843 5.60011 6.55662
238 1 -1.1104 3.97508 8.34203 6.63343
237 1 -1.1104 6.8209 5.43361 6.61939
9501 2 2.2208 -0.32085 12.5224 10.8246
234 1 -1.1104 1.19814 8.44934 6.62918
240 2 2.2208 5.48567 6.94021 10.9193
241 2 2.2208 5.37261 12.6135 10.9279
242 1 -1.1104 1.16497 8.20246 12.1202
244 1 -1.1104 1.26317 8.37164 9.25988
246 1 -1.1104 1.32398 5.38279 12.3778
247 1 -1.1104 1.24099 11.0745 12.3238
250 2 2.2208 5.38414 9.66292 8.04255
251 1 -1.1104 1.11829 5.52727 9.47505
252 1 -1.1104 1.04473 11.1436 9.61685
255 1 -1.1104 4.02947 8.39007 12.3037
256 2 2.2208 2.60715 6.95537 8.02505
257 2 2.2208 2.57541 12.5775 8.0692
258 1 -1.1104 4.04042 8.2562 9.48548
259 2 2.2208 2.7312 9.8167 10.8241
260 1 -1.1104 4.23617 5.53765 12.28
261 1 -1.1104 4.17715 11.0432 12.2938
262 1 -1.1104 3.97216 5.43836 9.34609
263 1 -1.1104 3.98955 11.1368 9.50171
245 1 -1.1104 6.80245 8.43416 9.50698
296 1 -1.1104 6.70384 19.4849 12.1015
267 1 -1.1104 9.43994 8.31262 6.72695
101 1 -1.1104 9.51333 11.1539 6.74098
265 1 -1.1104 12.3657 8.48503 6.6868
266 1 -1.1104 12.4287 5.55589 6.65219
248 1 -1.1104 6.90821 5.53219 12.2694
243 1 -1.1104 6.87549 8.29079 12.3461
253 1 -1.1104 7.02452 5.61745 9.43945
254 1 -1.1104 6.78218 11.1695 9.563
249 1 -1.1104 6.97627 11.3176 12.3864
264 1 -1.1104 9.71023 11.3176 9.5904
268 1 -1.1104 9.65566 5.47269 9.53289
270 1 -1.1104 9.69297 10.9982 12.4123
271 1 -1.1104 9.71507 5.54585 12.2961
272 2 2.2208 8.24854 9.71625 10.9666
273 1 -1.1104 9.62415 8.46117 9.36151
274 2 2.2208 8.19362 12.4903 8.15715
275 2 2.2208 8.24668 6.84369 7.99225
276 2 2.2208 10.9523 7.09601 10.9121
277 2 2.2208 11.0917 12.5925 10.8083
278 1 -1.1104 12.3966 8.40463 12.4227
279 1 -1.1104 12.3032 8.29007 9.42568
280 1 -1.1104 12.4414 5.57472 12.2217
281 1 -1.1104 12.5574 11.1287 12.3223
282 2 2.2208 10.9823 9.8053 8.026
283 1 -1.1104 12.4427 5.4608 9.33533
284 1 -1.1104 12.3929 11.0618 9.54828
285 1 -1.1104 9.61753 8.32119 12.2751
327 1 -1.1104 12.2489 19.4043 9.48602
314 1 -1.1104 9.44138 16.742 9.52162
313 2 2.2208 -0.089936 15.4461 8.11831
312 2 2.2208 -0.190108 18.0298 10.8263
126 1 -1.1104 4.02864 19.5768 6.79626
108 1 -1.1104 1.20535 14.0148 6.79076
117 1 -1.1104 1.13094 16.8025 6.73061
112 1 -1.1104 6.7439 19.5586 6.57107
288 1 -1.1104 6.78126 19.5173 9.39536
286 1 -1.1104 3.94767 19.6413 12.4158
287 1 -1.1104 3.9039 13.8729 12.1897
291 1 -1.1104 1.30294 19.6087 9.41596
292 1 -1.1104 1.31772 16.8114 9.42963
293 2 2.2208 5.36617 20.8994 8.06345
294 1 -1.1104 1.16108 13.9849 9.35645
295 2 2.2208 5.44454 15.2597 7.96575
298 1 -1.1104 1.07229 19.3224 12.2348
299 1 -1.1104 1.18937 13.8411 12.3904
300 2 2.2208 5.27115 18.1168 10.9413
301 1 -1.1104 3.91709 19.742 9.61891
303 2 2.2208 2.67451 18.2037 8.08467
304 1 -1.1104 3.94508 16.7767 9.39859
305 1 -1.1104 3.81266 13.818 9.45577
307 1 -1.1104 1.16072 16.6384 12.1816
308 1 -1.1104 3.94327 16.7643 12.3414
309 2 2.2208 2.59069 21.0145 10.9299
310 2 2.2208 2.58529 15.2806 10.9184
326 1 -1.1104 12.3706 16.7552 12.2147
118 1 -1.1104 6.63049 16.6067 6.58388
111 1 -1.1104 6.77761 13.8493 6.57346
331 2 2.2208 10.8858 18.0797 10.8644
330 1 -1.1104 12.4432 13.8901 12.1036
154 1 -1.1104 9.52332 14.0062 6.57059
163 1 -1.1104 9.50719 16.7861 6.74127
149 1 -1.1104 12.4493 16.5444 6.72011
315 1 -1.1104 9.57661 16.5417 12.1993
145 1 -1.1104 12.364 19.4339 6.68441
317 2 2.2208 8.1249 15.3486 10.8972
328 1 -1.1104 12.3647 13.9157 9.34008
329 1 -1.1104 12.4229 19.5304 12.2382
323 1 -1.1104 12.3899 16.6162 9.47864
318 1 -1.1104 9.55027 19.7617 9.67243
324 2 2.2208 10.9361 20.9595 8.00004
321 1 -1.1104 9.53412 19.4587 12.3308
319 1 -1.1104 9.60837 14.0085 9.52018
143 1 -1.1104 12.3485 13.8451 6.65375
325 2 2.2208 10.9964 15.3794 8.10139
316 2 2.2208 8.15453 21.0026 10.8886
297 1 -1.1104 6.6367 13.9763 12.2627
9651 2 2.2208 -0.103604 3.92347 13.6782
372 2 2.2208 -0.17189 -1.59758 13.6671
374 2 2.2208 5.30548 -1.45953 13.7275
445 2 2.2208 2.5833 12.4198 13.6316
9723 2 2.2208 -0.162511 9.72267 13.6916
472 2 2.2208 8.40771 12.5333 13.71
470 2 2.2208 8.25723 7.03739 13.7088
9792 2 2.2208 -0.241106 15.2796 13.6642
9793 2 2.2208 -0.257656 20.9314 13.5647
592 2 2.2208 8.25124 -1.60456 -0.356689
628 2 2.2208 5.35224 12.4864 -0.470442
626 2 2.2208 5.39066 6.91276 -0.432735
652 2 2.2208 8.20238 9.7035 -0.384159
334 2 2.2208 5.42606 1.39641 16.4438
335 1 -1.1104 1.18426 -2.9017 17.9313
336 1 -1.1104 1.19883 2.55411 17.8588
339 1 -1.1104 1.37289 -2.88888 14.94
341 1 -1.1104 1.3023 2.66666 15.016
347 1 -1.1104 1.08869 -0.126813 17.9504
349 2 2.2208 5.42092 -1.4718 19.333
351 1 -1.1104 1.06427 -0.0922329 15.1688
355 1 -1.1104 4.01925 -2.96918 17.9542
356 1 -1.1104 3.95349 2.83114 17.8993
357 2 2.2208 2.60639 1.31577 19.2924
358 1 -1.1104 3.97773 -2.94793 15.1703
360 1 -1.1104 3.94952 2.76299 15.1509
362 2 2.2208 2.5975 -1.53075 16.4762
363 2 2.2208 2.59845 4.19901 16.5427
364 1 -1.1104 4.03774 -0.02797 17.837
365 1 -1.1104 3.88128 -0.231078 15.0107
350 2 2.2208 5.39429 4.08435 19.3031
342 1 -1.1104 1.26506 2.63229 20.7481
352 1 -1.1104 1.3566 -0.195134 20.7682
348 1 -1.1104 6.74226 -0.0631414 18.0274
345 1 -1.1104 6.82201 2.81815 15.1839
366 1 -1.1104 4.00848 -0.0257628 20.5735
361 1 -1.1104 3.91579 2.64999 20.8273
344 1 -1.1104 6.82553 -2.92297 20.8759
340 1 -1.1104 1.11086 -2.96117 20.7223
565 2 2.2208 -0.216593 -4.28016 22.1108
367 2 2.2208 -0.0643399 -4.31874 16.5494
359 1 -1.1104 4.02839 -2.90365 20.6589
369 2 2.2208 2.64208 -4.39946 19.4025
9647 2 2.2208 -0.215234 4.0545 19.3313
371 2 2.2208 -0.295465 -1.61079 19.3081
376 2 2.2208 5.45105 4.08068 13.7904
375 2 2.2208 2.55944 1.22802 13.6924
353 1 -1.1104 6.8173 -0.212535 15.2822
343 1 -1.1104 6.75349 -2.96164 15.2137
337 1 -1.1104 6.75269 -3.12527 18.0457
338 1 -1.1104 6.82717 2.70655 17.9525
377 2 2.2208 11.1124 1.32201 16.4265
378 1 -1.1104 12.2445 -2.93772 18.1274
379 1 -1.1104 12.5011 2.59458 17.748
380 1 -1.1104 12.4346 -2.83582 15.1872
382 1 -1.1104 12.5237 2.77237 14.9996
384 1 -1.1104 12.3328 -0.0579096 17.8904
385 2 2.2208 10.9368 -1.52532 19.4113
387 1 -1.1104 12.4706 -0.0288948 14.9274
389 1 -1.1104 9.52362 -2.97226 18.0109
390 1 -1.1104 9.71162 2.64961 17.9443
391 2 2.2208 8.19835 1.21066 19.4249
392 1 -1.1104 9.50732 -2.77071 15.1721
394 1 -1.1104 9.74749 2.6969 15.1842
396 2 2.2208 8.13696 -1.66494 16.7101
398 1 -1.1104 9.56178 -0.0848891 18.0466
399 1 -1.1104 9.80255 -0.0770806 14.9105
397 2 2.2208 8.2432 4.11131 16.5349
386 2 2.2208 11.1423 4.0708 19.223
713 2 2.2208 13.8976 15.2579 22.1917
410 2 2.2208 5.54637 6.96936 16.4245
411 2 2.2208 5.38192 12.5009 16.3959
412 1 -1.1104 1.16202 8.33642 17.8449
414 1 -1.1104 1.22431 8.33154 15.0537
418 1 -1.1104 1.11515 5.41601 17.9233
419 1 -1.1104 1.27672 11.074 17.9458
422 2 2.2208 5.51651 9.74785 19.3292
423 1 -1.1104 1.44293 5.63076 15.1563
425 1 -1.1104 1.26768 11.0408 15.1058
431 1 -1.1104 4.04751 8.34692 17.9278
432 2 2.2208 2.72922 6.89571 19.3228
433 2 2.2208 2.71949 12.4789 19.2508
434 1 -1.1104 3.9863 8.60044 15.034
436 2 2.2208 2.64996 9.75317 16.553
437 1 -1.1104 4.0282 5.59414 17.9568
438 1 -1.1104 4.05093 11.2216 17.8176
439 1 -1.1104 4.12222 5.5282 15.2271
441 1 -1.1104 3.9317 11.1698 14.9846
421 1 -1.1104 6.81566 10.8619 17.986
416 1 -1.1104 6.91845 8.3312 15.0607
424 1 -1.1104 1.16464 5.52693 20.5769
426 1 -1.1104 1.20031 11.101 20.6611
9720 2 2.2208 -0.250004 6.90385 16.439
9680 2 2.2208 13.8424 12.4301 19.2473
9719 2 2.2208 -0.229375 9.64134 19.302
9678 2 2.2208 14.0074 9.59448 16.4526
443 2 2.2208 2.7178 7.01359 13.6843
429 1 -1.1104 6.93293 11.1161 15.2194
420 1 -1.1104 6.74865 5.48503 17.9047
427 1 -1.1104 6.8856 5.653 15.0935
413 1 -1.1104 6.84005 8.28964 17.8938
428 1 -1.1104 6.75185 5.35399 20.8369
446 2 2.2208 11.0188 6.91046 16.5199
447 2 2.2208 11.0747 12.5172 16.3722
448 1 -1.1104 12.3922 8.1239 18.0158
449 1 -1.1104 12.3047 8.23192 15.1484
451 1 -1.1104 12.3329 5.43568 17.8492
452 1 -1.1104 12.5538 11.2084 17.7627
453 2 2.2208 11.1186 9.57841 19.3411
454 1 -1.1104 12.5314 5.49838 15.0283
456 1 -1.1104 12.4467 10.9236 14.9853
458 1 -1.1104 9.69394 8.2594 17.7474
459 2 2.2208 8.26578 6.91887 19.2749
460 2 2.2208 8.22559 12.3374 19.3186
461 1 -1.1104 9.65767 8.34938 15.003
463 2 2.2208 8.36934 9.7128 16.3764
464 1 -1.1104 9.41996 5.50638 17.874
465 1 -1.1104 9.8009 11.0552 17.936
466 1 -1.1104 9.76783 5.57943 15.1693
468 1 -1.1104 9.64475 11.206 15.0108
457 1 -1.1104 12.5002 10.9704 20.7448
471 2 2.2208 11.1044 9.66586 13.7255
370 2 2.2208 -0.299684 1.11776 16.4813
694 2 2.2208 8.14416 18.0381 25.0142
473 2 2.2208 5.44201 18.1357 16.6601
474 1 -1.1104 1.26412 13.9777 17.8139
475 1 -1.1104 1.07822 19.5026 17.7175
478 1 -1.1104 1.27027 13.7261 15.0658
480 1 -1.1104 1.31992 19.5871 14.9699
486 1 -1.1104 1.0474 16.6968 17.8401
488 2 2.2208 5.42115 15.1931 19.3193
489 2 2.2208 5.43101 20.8908 19.2515
490 1 -1.1104 1.19931 16.6056 15.0466
494 1 -1.1104 3.98394 13.8537 17.87
495 1 -1.1104 3.86607 19.4948 17.9245
496 2 2.2208 2.52369 18.1083 19.2277
497 1 -1.1104 4.01796 13.7625 15.0567
499 1 -1.1104 4.02397 19.4036 15.1895
501 2 2.2208 2.56398 15.2838 16.4866
502 2 2.2208 2.56419 20.8934 16.5336
503 1 -1.1104 3.96131 16.6811 17.8383
504 1 -1.1104 4.06352 16.7816 15.0673
500 1 -1.1104 3.91777 19.3902 20.7852
477 1 -1.1104 6.82047 19.4214 17.8476
487 1 -1.1104 6.72522 16.6077 17.9721
491 1 -1.1104 1.27697 16.7836 20.6281
498 1 -1.1104 3.96529 13.8156 20.7034
508 2 2.2208 5.4938 15.3321 13.7365
507 2 2.2208 5.285 20.9068 13.7592
698 2 2.2208 10.899 20.8501 24.8969
9791 2 2.2208 -0.22455 18.1018 16.4198
506 2 2.2208 2.62874 18.1197 13.7293
9790 2 2.2208 -0.154976 15.3518 19.1492
701 1 -1.1104 12.3902 19.4574 26.2753
535 2 2.2208 8.19387 18.0415 13.5511
476 1 -1.1104 6.68149 13.7843 17.9281
484 1 -1.1104 6.82071 19.5131 15.0704
492 1 -1.1104 6.86828 16.6006 15.134
482 1 -1.1104 6.88974 13.8669 15.0284
493 1 -1.1104 6.81892 16.6831 20.7169
509 2 2.2208 11.1408 17.968 16.5087
510 1 -1.1104 12.3332 13.7896 17.8445
511 1 -1.1104 12.42 19.5701 17.6977
512 1 -1.1104 12.3463 13.8481 15.004
514 1 -1.1104 12.511 19.5681 15.0761
516 1 -1.1104 12.3771 16.6374 17.9373
517 2 2.2208 11.02 15.2297 19.2903
518 2 2.2208 11.0009 20.7842 19.1626
519 1 -1.1104 12.4778 16.5653 15.1826
521 1 -1.1104 9.51802 13.8443 17.8864
522 1 -1.1104 9.62075 19.5009 17.9051
523 2 2.2208 8.27254 18.0927 19.3719
524 1 -1.1104 9.63778 13.8522 15.1698
526 1 -1.1104 9.67067 19.3181 15.0202
528 2 2.2208 8.17396 15.2696 16.5664
529 2 2.2208 8.20302 20.8334 16.3894
530 1 -1.1104 9.54567 16.7153 17.9334
531 1 -1.1104 9.6301 16.6534 15.0864
520 1 -1.1104 12.4154 16.7377 20.5163
513 1 -1.1104 12.3561 13.8796 20.5937
515 1 -1.1104 12.3717 19.5844 20.5537
708 2 2.2208 8.11463 15.2917 27.5765
9789 2 2.2208 -0.281661 21.0007 19.2496
9685 2 2.2208 -0.173969 12.4394 16.4655
570 2 2.2208 -0.200942 -1.42038 25.0195
537 2 2.2208 5.29735 1.22995 22.1372
538 1 -1.1104 1.16498 -2.78325 23.5316
539 1 -1.1104 1.29183 2.59716 23.516
542 1 -1.1104 1.19085 -3.04346 26.3815
543 1 -1.1104 1.10219 2.63762 26.2379
546 1 -1.1104 1.26839 -0.0967938 23.5233
548 2 2.2208 5.46334 -1.53018 24.9072
550 1 -1.1104 1.08398 -0.0955302 26.4174
552 1 -1.1104 3.94757 -2.95804 23.5696
553 1 -1.1104 3.97711 2.6204 23.4472
554 2 2.2208 2.60068 1.25391 24.9177
555 1 -1.1104 4.01275 -2.79875 26.3822
556 1 -1.1104 4.0188 2.74182 26.2485
557 2 2.2208 2.52602 -1.48614 22.1377
558 2 2.2208 2.53681 4.05772 22.093
559 1 -1.1104 4.04374 -0.227639 23.393
560 1 -1.1104 4.0436 -0.0171131 26.4339
549 2 2.2208 5.42575 4.08444 24.886
540 1 -1.1104 6.68295 -3.05331 23.5927
571 2 2.2208 -0.169076 1.27623 22.0937
572 2 2.2208 -0.300576 4.03229 24.9987
354 1 -1.1104 6.84571 -0.123755 20.8643
383 1 -1.1104 12.5092 2.7437 20.6251
381 1 -1.1104 12.3428 -2.76739 20.8361
395 1 -1.1104 9.61266 2.63935 20.8083
393 1 -1.1104 9.62268 -3.08163 20.6892
388 1 -1.1104 12.3672 -0.150864 20.7228
400 1 -1.1104 9.53195 -0.181076 20.9104
346 1 -1.1104 6.8128 2.64038 20.7195
544 1 -1.1104 6.77924 -2.9295 26.2432
545 1 -1.1104 6.99624 2.62004 26.3851
541 1 -1.1104 6.87373 2.65011 23.5935
551 1 -1.1104 6.73246 -0.216488 26.2475
547 1 -1.1104 6.81695 -0.0732541 23.5606
573 2 2.2208 10.9664 1.22667 22.0645
574 1 -1.1104 12.3601 -2.84347 23.5429
575 1 -1.1104 12.3706 2.76368 23.3269
576 1 -1.1104 12.3492 -2.84469 26.5057
577 1 -1.1104 12.6068 2.67881 26.2573
578 1 -1.1104 12.427 -0.0627361 23.6759
579 2 2.2208 11.0298 -1.53565 24.9928
581 1 -1.1104 12.3528 -0.173767 26.2866
582 1 -1.1104 9.49398 -3.02387 23.643
583 1 -1.1104 9.6573 2.53389 23.5605
584 2 2.2208 8.2652 1.2716 24.9198
585 1 -1.1104 9.59369 -2.99317 26.3673
586 1 -1.1104 9.7128 2.61424 26.1959
587 2 2.2208 8.18625 -1.57233 22.3154
588 2 2.2208 8.14875 3.89546 22.1464
589 1 -1.1104 9.7355 -0.1281 23.606
590 1 -1.1104 9.61501 -0.186904 26.4367
580 2 2.2208 11.0284 3.99439 24.7731
704 1 -1.1104 12.5058 13.9099 23.4455
9898 2 2.2208 -0.196716 6.77691 22.1408
630 2 2.2208 -0.263205 9.64413 24.9511
442 1 -1.1104 4.13817 11.0833 20.7127
435 1 -1.1104 4.13584 8.3833 20.7537
440 1 -1.1104 3.87868 5.56305 20.6646
689 2 2.2208 8.12096 20.7813 22.089
415 1 -1.1104 1.19849 8.28784 20.6943
602 2 2.2208 5.42355 6.94204 21.9847
603 2 2.2208 5.39665 12.5083 22.2015
604 1 -1.1104 1.1929 8.25886 23.4722
606 1 -1.1104 1.13239 8.2976 26.2952
608 1 -1.1104 1.10272 5.46679 23.5389
609 1 -1.1104 1.29399 10.9357 23.4516
612 2 2.2208 5.26963 9.66697 24.9256
613 1 -1.1104 1.18942 5.36461 26.3416
614 1 -1.1104 0.918118 11.0862 26.3275
617 1 -1.1104 3.97364 8.33816 23.5378
618 2 2.2208 2.60181 6.84993 24.805
619 2 2.2208 2.46294 12.4887 25.0256
620 1 -1.1104 3.86566 8.25535 26.2628
621 2 2.2208 2.58554 9.67396 21.9651
622 1 -1.1104 3.97601 5.4227 23.5506
623 1 -1.1104 4.10014 11.0858 23.4514
624 1 -1.1104 3.99239 5.46763 26.28
625 1 -1.1104 3.88189 11.0348 26.2024
607 1 -1.1104 6.64908 8.38488 26.2863
610 1 -1.1104 6.79253 5.56379 23.5292
532 1 -1.1104 9.66826 16.4606 20.6053
696 1 -1.1104 9.72258 13.7999 23.5877
417 1 -1.1104 6.83526 8.38752 20.7228
467 1 -1.1104 9.61812 5.47836 20.5123
462 1 -1.1104 9.47378 8.24344 20.681
450 1 -1.1104 12.3824 8.27891 20.7444
430 1 -1.1104 6.94492 11.0351 20.76
615 1 -1.1104 6.88908 5.46671 26.1845
611 1 -1.1104 6.78415 11.0633 23.5794
616 1 -1.1104 6.70865 11.1072 26.2911
605 1 -1.1104 6.83401 8.3095 23.4784
469 1 -1.1104 9.75981 10.9906 20.6782
455 1 -1.1104 12.4699 5.63784 20.7065
633 1 -1.1104 9.50487 11.2103 26.2829
634 1 -1.1104 9.63314 5.46663 26.2228
635 1 -1.1104 9.65958 11.0285 23.5754
636 1 -1.1104 9.67895 5.3572 23.266
637 2 2.2208 8.19748 9.75227 22.1428
638 1 -1.1104 9.49756 8.33321 26.3739
639 2 2.2208 8.16223 12.5595 24.9106
640 2 2.2208 8.19497 6.93093 24.813
641 2 2.2208 10.9502 6.86219 22.0281
642 2 2.2208 11.1258 12.3864 22.0241
643 1 -1.1104 12.3808 8.29893 23.4944
644 1 -1.1104 12.4307 8.36538 26.3876
645 1 -1.1104 12.4559 5.4542 23.466
646 1 -1.1104 12.5548 11.1273 23.6505
647 2 2.2208 11.0591 9.68716 24.9054
648 1 -1.1104 12.304 5.40539 26.197
649 1 -1.1104 12.2876 11.1701 26.327
650 1 -1.1104 9.67464 8.29853 23.5328
687 1 -1.1104 9.53596 16.5721 26.1873
667 1 -1.1104 6.79052 13.828 23.5031
505 1 -1.1104 4.05054 16.5177 20.6287
481 1 -1.1104 1.31421 19.4966 20.6981
485 1 -1.1104 6.79506 19.4742 20.6646
479 1 -1.1104 1.18982 13.9192 20.6688
699 2 2.2208 11.0527 15.2658 24.8965
669 1 -1.1104 1.02591 13.8669 23.5064
678 2 2.2208 2.48821 20.9168 22.0761
677 1 -1.1104 3.95913 16.6679 23.1984
671 1 -1.1104 3.95786 19.5544 26.1971
676 1 -1.1104 1.17161 16.7085 23.4295
679 2 2.2208 2.42356 15.2894 22.1869
672 2 2.2208 2.64268 18.1328 24.8065
673 1 -1.1104 4.00083 16.7598 26.232
674 1 -1.1104 3.87054 13.8698 26.2958
670 2 2.2208 5.38465 18.0465 22.0553
657 1 -1.1104 3.93653 19.6065 23.5375
659 1 -1.1104 3.85798 13.8681 23.6915
661 1 -1.1104 1.37252 19.3962 26.2717
662 1 -1.1104 1.14264 16.8247 26.244
663 1 -1.1104 1.11173 14.0404 26.3966
665 2 2.2208 5.31549 20.948 24.7818
666 2 2.2208 5.27073 15.2442 24.8429
668 1 -1.1104 1.16859 19.5059 23.6119
658 1 -1.1104 6.68609 13.9588 26.2183
685 2 2.2208 -0.25956 20.9748 24.9166
683 2 2.2208 -0.197783 15.2627 24.855
527 1 -1.1104 9.61361 19.3814 20.8395
525 1 -1.1104 9.66882 13.8136 20.7218
692 1 -1.1104 9.65742 13.8677 26.1172
705 2 2.2208 11.0419 18.0433 22.0853
688 1 -1.1104 9.73845 16.8258 23.5328
703 1 -1.1104 12.4413 19.3043 23.369
690 2 2.2208 8.28798 15.3152 22.1736
702 1 -1.1104 12.5556 13.9024 26.2992
695 1 -1.1104 9.57433 19.5397 23.5295
691 1 -1.1104 9.45895 19.4627 26.382
700 1 -1.1104 12.5554 16.5439 23.4769
697 1 -1.1104 12.3044 16.7135 26.3185
483 1 -1.1104 6.78332 13.7899 20.7683
675 1 -1.1104 6.95321 16.5029 23.593
660 1 -1.1104 6.67032 16.7458 26.4149
693 1 -1.1104 6.79222 19.4952 26.3491
664 1 -1.1104 6.6653 19.4517 23.5286
534 2 2.2208 11.0159 15.2348 13.7053
593 2 2.2208 8.27488 4.15224 27.6716
629 2 2.2208 -0.322175 12.5035 27.669
632 2 2.2208 -0.161059 6.89991 27.6343
533 2 2.2208 10.9713 20.873 13.6825
682 2 2.2208 2.53121 15.374 27.6638
684 2 2.2208 -0.192074 18.2346 27.7144
407 2 2.2208 8.28328 1.25951 13.7222
409 2 2.2208 11.0914 4.07276 13.6396
408 2 2.2208 11.0435 -1.49604 13.6631
444 2 2.2208 5.50216 9.83718 13.7517
714 2 2.2208 5.381 23.8022 5.24075
715 2 2.2208 5.41932 29.3481 5.41071
716 1 -1.1104 1.19089 25.1055 1.03454
717 1 -1.1104 1.00179 25.0964 3.6135
718 1 -1.1104 1.20831 22.4094 1.20744
719 1 -1.1104 1.21806 27.9231 1.14462
720 2 2.2208 5.3822 26.5982 2.65306
721 1 -1.1104 1.14538 22.4057 3.88526
722 1 -1.1104 1.20663 28.0388 3.94805
723 1 -1.1104 3.92427 25.1081 1.08737
724 2 2.2208 2.59962 23.7312 2.43482
725 2 2.2208 2.46916 29.3565 2.54057
726 1 -1.1104 3.94515 25.2793 3.8897
727 2 2.2208 2.53592 26.5786 5.31358
728 1 -1.1104 4.06514 22.3388 1.07563
729 1 -1.1104 3.93775 27.9499 1.14688
730 1 -1.1104 4.03835 22.3328 3.91791
731 1 -1.1104 4.01956 28.0194 3.92115
861 1 -1.1104 4.08414 25.1063 6.64485
736 1 -1.1104 6.69657 25.2341 3.93838
860 1 -1.1104 6.84016 27.9663 6.62909
857 1 -1.1104 1.11104 22.4329 6.71205
732 2 2.2208 -0.258062 29.326 5.27404
740 1 -1.1104 6.89829 27.881 3.96059
738 1 -1.1104 6.77559 28.0355 1.13899
739 1 -1.1104 6.82315 22.2719 3.88134
737 1 -1.1104 6.70701 22.1083 1.06818
735 1 -1.1104 6.78984 25.0334 1.20566
856 1 -1.1104 6.87693 25.1432 6.66004
741 2 2.2208 11.0948 23.6728 5.26193
742 2 2.2208 11.1076 29.3846 5.38248
743 1 -1.1104 12.4325 25.1276 1.14376
744 1 -1.1104 12.2812 25.3093 4.05868
745 1 -1.1104 12.5615 22.2845 1.04131
746 1 -1.1104 12.5237 27.9996 1.06837
747 2 2.2208 11.0321 26.6196 2.56484
748 1 -1.1104 12.4082 22.3031 3.85886
749 1 -1.1104 12.5087 28.0908 3.8606
750 1 -1.1104 9.64899 25.153 1.22701
751 2 2.2208 8.29258 23.8027 2.61204
752 2 2.2208 8.25267 29.1878 2.50195
753 1 -1.1104 9.48355 25.0675 3.99761
754 2 2.2208 8.26296 26.5615 5.25466
755 1 -1.1104 9.49433 22.5122 1.09088
756 1 -1.1104 9.61856 27.9535 1.04173
757 1 -1.1104 9.59311 22.3001 3.7773
758 1 -1.1104 9.77628 27.8631 3.8512
893 1 -1.1104 9.67176 27.8839 6.7724
1608 1 -1.1104 3.71322 47.5316 12.2379
1599 1 -1.1104 6.54818 47.6621 9.42109
1305 2 2.2208 11.0387 23.7848 -0.289667
762 2 2.2208 5.29258 34.9421 5.17565
763 1 -1.1104 1.11357 30.7288 1.08999
764 1 -1.1104 1.11859 36.3875 0.966611
766 1 -1.1104 1.13902 30.7298 3.94907
767 1 -1.1104 1.04573 36.3352 3.8811
769 1 -1.1104 1.18798 33.4329 1.02616
770 2 2.2208 5.34287 32.1502 2.46967
771 2 2.2208 5.3 37.8078 2.33051
772 1 -1.1104 1.11292 33.5886 3.93127
774 1 -1.1104 3.91532 30.816 1.28308
775 1 -1.1104 3.94032 36.4782 1.06288
776 2 2.2208 2.54559 35.0229 2.48305
777 1 -1.1104 3.87667 30.6148 4.04678
778 1 -1.1104 3.82415 36.36 3.85334
779 2 2.2208 2.53432 32.1852 5.35418
780 2 2.2208 2.49166 37.7314 5.18938
781 1 -1.1104 3.86287 33.5447 1.10847
782 1 -1.1104 3.8923 33.579 3.87515
918 1 -1.1104 4.05193 30.6443 6.80492
765 1 -1.1104 6.72204 36.321 1.08681
920 1 -1.1104 3.89781 33.4352 6.6237
914 1 -1.1104 6.71342 30.8014 6.83277
786 1 -1.1104 6.80733 30.6965 1.0863
787 1 -1.1104 6.69674 30.8675 4.05651
785 2 2.2208 -0.270923 34.9141 5.26228
917 1 -1.1104 6.80141 33.5738 6.84521
784 2 2.2208 -0.253894 32.0376 2.48507
1020 1 -1.1104 12.3113 42.0098 6.58718
1449 1 -1.1104 9.49269 47.6766 1.04344
10227 2 2.2208 13.7313 46.271 8.17521
788 1 -1.1104 6.66013 33.5346 0.971508
768 1 -1.1104 6.75077 36.2642 3.76841
773 1 -1.1104 6.72581 33.4023 3.95289
789 2 2.2208 10.8222 34.9589 5.2691
790 1 -1.1104 12.3975 30.9125 1.22262
791 1 -1.1104 12.2397 36.3283 1.03758
792 1 -1.1104 12.4252 30.9773 3.94751
793 1 -1.1104 12.2505 36.375 3.99061
794 1 -1.1104 12.232 33.6117 1.00688
795 2 2.2208 10.8823 32.1519 2.57266
796 2 2.2208 10.7383 37.5533 2.41602
797 1 -1.1104 12.3331 33.6407 3.88553
798 1 -1.1104 9.70308 30.785 1.12607
799 1 -1.1104 9.5607 36.1969 0.973435
800 2 2.2208 7.94142 34.8842 2.31213
801 1 -1.1104 9.58106 30.6562 3.91576
802 1 -1.1104 9.4412 36.3724 3.76346
803 2 2.2208 8.03513 32.1688 5.35047
804 2 2.2208 8.11081 37.7289 5.15805
805 1 -1.1104 9.40393 33.5444 1.04049
806 1 -1.1104 9.43128 33.5852 3.86868
948 1 -1.1104 12.2165 33.4119 6.71699
949 1 -1.1104 9.50971 30.7022 6.58558
951 1 -1.1104 9.5601 33.5431 6.69168
950 1 -1.1104 9.49742 36.3806 6.55179
946 1 -1.1104 12.4955 30.6122 6.7308
1055 2 2.2208 8.00038 37.7092 -0.374807
10201 2 2.2208 -0.299996 34.9497 10.7566
814 1 -1.1104 1.08612 39.2134 1.2296
808 2 2.2208 5.18156 40.5146 5.10197