ITEM: TIMESTEP
90000
ITEM: NUMBER OF ATOMS
17910
ITEM: BOX BOUNDS pp pp pp
-3.5296856027417511e-01 2.7692968560274149e+01
-4.3015253072234172e+00 3.3238152530724022e+02
-3.5572069827387010e-01 2.7695720698274137e+01
ITEM: ATOMS id type q x y z
1 2 2.2208 5.00297 1.20999 5.14695
2 1 -1.1104 0.809877 -2.98671 0.917549
3 1 -1.1104 0.601855 2.52568 0.855548
6 1 -1.1104 0.758341 -2.96764 3.70923
7 1 -1.1104 0.716096 2.65114 3.82769
10 1 -1.1104 0.657075 -0.113691 0.864629
12 2 2.2208 4.83276 -1.64876 2.30759
13 2 2.2208 5.03038 3.98419 2.29687
14 1 -1.1104 0.647567 -0.188274 3.69222
16 1 -1.1104 3.50028 -3.07511 0.956965
17 1 -1.1104 3.51609 2.69562 0.844948
18 2 2.2208 2.05461 1.07584 2.29536
19 1 -1.1104 3.44095 -2.93928 3.86411
20 1 -1.1104 3.56291 2.58616 3.68893
21 2 2.2208 2.10873 -1.56764 5.07889
23 1 -1.1104 3.41953 -0.327804 0.976873
24 1 -1.1104 3.43467 -0.271939 3.81031
22 2 2.2208 2.15913 3.94135 5.11485
172 1 -1.1104 3.39785 -2.90784 6.4752
167 1 -1.1104 0.613658 2.7093 6.66823
170 1 -1.1104 0.709834 -0.219731 6.37272
4 1 -1.1104 6.29173 -2.95859 0.930546
9 1 -1.1104 6.58996 2.59872 3.64346
5 1 -1.1104 6.29058 2.50861 0.908129
174 1 -1.1104 3.56998 -0.0625901 6.6157
8 1 -1.1104 6.39007 -2.96485 3.63951
11 1 -1.1104 6.24493 -0.147832 0.863316
15 1 -1.1104 6.40504 -0.237333 3.76791
171 1 -1.1104 6.41268 -0.236871 6.52855
166 1 -1.1104 0.612722 -3.08848 6.52449
173 1 -1.1104 3.53917 2.66505 6.38926
169 1 -1.1104 6.34856 2.61079 6.47587
328 1 -1.1104 12.2068 13.9422 9.53795
318 1 -1.1104 8.98328 19.5364 9.34837
168 1 -1.1104 6.25552 -2.9351 6.37859
31 2 2.2208 10.5291 1.28821 5.22256
32 1 -1.1104 11.9362 -3.1533 0.824159
33 1 -1.1104 11.9431 2.60348 0.882106
34 1 -1.1104 11.8702 -2.91803 3.89291
35 1 -1.1104 11.8639 2.75843 3.80894
36 1 -1.1104 11.9329 -0.138968 0.855522
37 2 2.2208 10.6295 -1.53712 2.47655
39 1 -1.1104 12.0481 -0.0148839 3.74278
40 1 -1.1104 9.02608 -2.80634 1.07745
41 1 -1.1104 9.16164 2.65812 0.982888
42 2 2.2208 7.76912 1.20455 2.26245
43 1 -1.1104 9.21349 -2.99455 3.82626
44 1 -1.1104 9.14999 2.68362 3.85103
45 2 2.2208 7.71817 -1.61207 5.1462
47 1 -1.1104 9.10942 -0.151006 0.96024
48 1 -1.1104 9.16102 -0.133565 3.81279
46 2 2.2208 7.7704 4.10292 5.17968
38 2 2.2208 10.5349 4.11921 2.37271
209 1 -1.1104 9.22595 2.74955 6.59509
206 1 -1.1104 12.0542 2.6732 6.5927
210 1 -1.1104 9.24514 -0.00695036 6.59764
205 1 -1.1104 11.8787 -2.91773 6.64855
9279 2 2.2208 13.4473 4.19694 5.19006
208 1 -1.1104 9.05028 -2.86957 6.6536
50 2 2.2208 13.379 -1.47051 5.13365
49 2 2.2208 13.2775 1.39765 2.33682
54 2 2.2208 4.9098 6.77576 5.10488
55 2 2.2208 4.94795 12.396 5.11669
56 1 -1.1104 0.597781 8.15681 0.964053
58 1 -1.1104 0.687208 8.00503 3.81095
60 1 -1.1104 0.700554 5.36014 0.81462
61 1 -1.1104 0.67605 10.9139 0.958053
66 2 2.2208 4.89963 9.61585 2.34282
67 1 -1.1104 0.72486 5.32735 3.80089
68 1 -1.1104 0.749941 10.8816 3.72072
71 1 -1.1104 3.38013 8.15957 1.0015
72 2 2.2208 2.08701 6.75105 2.34358
73 2 2.2208 2.11971 12.4511 2.24531
74 1 -1.1104 3.46871 8.13892 3.85089
75 2 2.2208 2.10226 9.58236 5.22322
76 1 -1.1104 3.43723 5.44214 0.979819
77 1 -1.1104 3.57415 10.9011 0.839306
79 1 -1.1104 3.51899 5.28812 3.72369
80 1 -1.1104 3.39387 11.1116 3.83015
234 1 -1.1104 0.560379 8.1911 6.68318
236 1 -1.1104 0.851924 5.37203 6.65169
57 1 -1.1104 6.18358 8.2509 0.74191
78 1 -1.1104 3.45433 11.144 6.546
239 1 -1.1104 3.69403 5.36159 6.59235
65 1 -1.1104 6.19264 10.9464 6.52983
69 1 -1.1104 6.33339 5.45065 3.63868
235 1 -1.1104 6.27872 8.23105 6.39802
238 1 -1.1104 3.4691 8.26171 6.63945
70 1 -1.1104 6.32096 11.0051 3.80596
64 1 -1.1104 6.35485 11.0886 0.82759
59 1 -1.1104 6.31338 8.19997 3.54187
63 1 -1.1104 6.33255 5.35641 0.862421
84 2 2.2208 10.5393 6.90821 5.19026
85 2 2.2208 10.5452 12.609 5.02581
86 1 -1.1104 11.7956 8.30563 0.79184
87 1 -1.1104 11.7485 8.31474 3.70218
88 1 -1.1104 11.8177 5.51012 1.03281
89 1 -1.1104 11.7107 11.1084 0.854569
91 2 2.2208 10.4494 9.67477 2.34994
92 1 -1.1104 11.9276 5.54122 3.83763
93 1 -1.1104 11.9587 11.1371 3.64467
94 1 -1.1104 9.00309 8.21645 0.875072
95 2 2.2208 7.61691 6.77968 2.22629
96 2 2.2208 7.76187 12.5903 2.15703
97 1 -1.1104 8.94347 8.3188 3.62416
98 2 2.2208 7.60941 9.63066 5.07068
99 1 -1.1104 9.01482 5.45706 0.750557
100 1 -1.1104 9.071 10.8774 0.894931
102 1 -1.1104 9.09849 5.46892 3.73976
103 1 -1.1104 9.10802 11.2246 3.75959
101 1 -1.1104 9.2055 11.2508 6.66749
90 1 -1.1104 11.8564 11.1579 6.52607
267 1 -1.1104 9.14242 8.49439 6.564
266 1 -1.1104 12.0243 5.41823 6.57354
265 1 -1.1104 11.7965 8.36488 6.43837
104 2 2.2208 13.3878 12.5005 2.30314
105 2 2.2208 13.2438 6.96171 2.31775
9308 2 2.2208 13.3059 9.78377 5.15835
106 2 2.2208 4.95215 18.0617 5.15201
107 1 -1.1104 0.655282 13.7826 1.04419
109 1 -1.1104 0.786427 19.6258 0.850216
113 1 -1.1104 0.66535 13.7582 3.73785
114 1 -1.1104 0.628319 19.4974 3.74573
116 1 -1.1104 0.652329 16.7992 1.04609
119 2 2.2208 4.83965 15.1886 2.16401
120 2 2.2208 4.95295 20.7799 2.35917
121 1 -1.1104 0.776453 16.6525 3.91051
123 1 -1.1104 3.33453 13.8043 0.807889
125 1 -1.1104 3.5626 19.3398 0.910724
127 2 2.2208 2.09767 18.0809 2.40212
128 1 -1.1104 3.36232 13.9673 3.56539
129 1 -1.1104 3.50277 19.4825 3.67607
130 2 2.2208 2.05526 15.2548 5.21245
131 2 2.2208 2.19451 20.8232 5.17781
132 1 -1.1104 3.54065 16.7165 0.899673
134 1 -1.1104 3.58644 16.6778 3.79319
302 1 -1.1104 0.778029 19.4001 6.6699
118 1 -1.1104 6.38818 16.5129 6.46092
108 1 -1.1104 0.640391 13.9052 6.65733
140 1 -1.1104 6.17195 16.68 0.905294
122 1 -1.1104 6.45948 16.5608 3.64854
115 1 -1.1104 6.23963 13.7947 3.44117
138 1 -1.1104 6.2876 19.5282 0.860186
139 1 -1.1104 6.41294 19.3861 3.76046
110 1 -1.1104 6.31627 14.0212 0.877842
406 2 2.2208 13.2651 -4.29016 13.4021
9682 2 2.2208 13.2166 12.5486 13.4374
143 1 -1.1104 11.9116 14.0364 6.43466
141 2 2.2208 10.5372 18.1068 5.11098
142 1 -1.1104 12.1001 13.8829 0.780167
144 1 -1.1104 11.9409 19.5873 0.934179
146 1 -1.1104 11.8081 14.0009 3.62512
147 1 -1.1104 12.0859 19.5517 3.72371
148 1 -1.1104 11.9115 16.7466 1.06058
150 2 2.2208 10.593 15.2413 2.22713
151 2 2.2208 10.5681 20.9232 2.32178
152 1 -1.1104 11.927 16.676 3.7373
153 1 -1.1104 9.20659 13.9878 0.847918
155 1 -1.1104 9.06592 19.503 0.945996
157 2 2.2208 7.78994 18.0123 2.30174
158 1 -1.1104 9.16569 13.8607 3.52996
159 1 -1.1104 9.25238 19.5367 3.84212
160 2 2.2208 7.79111 15.2835 5.03294
161 2 2.2208 7.92694 20.9323 5.13876
162 1 -1.1104 9.0014 16.6585 0.874161
164 1 -1.1104 9.151 16.7988 3.66966
156 1 -1.1104 9.13181 19.4777 6.66313
149 1 -1.1104 11.8977 16.7637 6.61017
9377 2 2.2208 13.3568 15.4133 5.07932
165 2 2.2208 13.3389 18.2536 2.39915
9356 2 2.2208 13.4995 20.8927 5.29055
53 2 2.2208 13.3725 -4.22676 2.34254
330 1 -1.1104 11.8802 13.8172 12.2487
470 2 2.2208 7.79306 6.82353 13.5321
375 2 2.2208 2.11541 1.23104 13.3979
329 1 -1.1104 12.0118 19.3848 12.1168
175 2 2.2208 4.8255 1.15277 10.7231
176 1 -1.1104 0.6608 -3.02208 12.2297
177 1 -1.1104 0.645766 2.66889 12.1513
180 1 -1.1104 0.810188 -3.02719 9.37557
181 1 -1.1104 0.667145 2.64567 9.5168
184 1 -1.1104 0.585692 -0.168661 12.1166
186 2 2.2208 4.90129 -1.60721 7.87875
188 1 -1.1104 0.548044 -0.238358 9.231
190 1 -1.1104 3.50404 -2.87916 12.1902
191 1 -1.1104 3.52432 2.68902 12.0189
192 2 2.2208 2.06243 1.26598 7.84504
193 1 -1.1104 3.5748 -2.9491 9.31123
194 1 -1.1104 3.53462 2.7148 9.21501
195 2 2.2208 1.94642 -1.54995 10.8315
197 1 -1.1104 3.41968 -0.118523 12.1519
198 1 -1.1104 3.47541 -0.108336 9.30991
187 2 2.2208 4.90934 3.99835 7.94646
196 2 2.2208 2.08926 3.99043 10.7393
179 1 -1.1104 6.26562 2.48414 12.2357
178 1 -1.1104 6.28902 -3.03823 12.1128
183 1 -1.1104 6.15257 2.51273 9.29916
189 1 -1.1104 6.26739 -0.221833 9.26211
182 1 -1.1104 6.33062 -3.03698 9.27344
185 1 -1.1104 6.29131 -0.105406 12.1237
374 2 2.2208 4.99033 -1.61289 13.5064
376 2 2.2208 4.88402 4.09937 13.5756
327 1 -1.1104 11.844 19.4729 9.36978
9608 2 2.2208 13.2816 1.35085 13.6317
230 2 2.2208 13.2986 -1.37556 10.7717
207 1 -1.1104 12.0314 -0.00654868 6.62084
319 1 -1.1104 9.16461 13.9458 9.21278
229 2 2.2208 13.342 1.307 8.02343
9414 2 2.2208 13.3372 4.01027 10.8488
211 2 2.2208 10.538 1.25483 10.7439
212 1 -1.1104 11.9505 -2.7574 12.0568
213 1 -1.1104 11.8163 2.71604 12.3339
214 1 -1.1104 11.9414 -2.83351 9.31412
215 1 -1.1104 11.9029 2.64657 9.51552
216 1 -1.1104 11.7893 -0.0818171 12.2168
217 2 2.2208 10.4737 -1.56314 8.0337
219 1 -1.1104 11.8803 -0.120954 9.36221
220 1 -1.1104 9.13452 -2.96053 12.2756
221 1 -1.1104 9.1846 2.55134 12.1867
222 2 2.2208 7.71525 1.22387 7.95575
223 1 -1.1104 9.09622 -3.05893 9.4258
224 1 -1.1104 9.20854 2.59005 9.3098
225 2 2.2208 7.67992 -1.60805 10.6896
227 1 -1.1104 8.98094 -0.132578 12.1203
228 1 -1.1104 9.0518 -0.217262 9.34021
218 2 2.2208 10.6337 4.04857 7.95737
226 2 2.2208 7.67639 3.92254 10.7499
409 2 2.2208 10.4042 3.98263 13.6557
536 2 2.2208 13.3692 18.0355 13.6522
408 2 2.2208 10.5088 -1.5328 13.5396
407 2 2.2208 7.80586 1.19123 13.5973
62 1 -1.1104 0.487917 10.9817 6.48502
237 1 -1.1104 6.4233 5.55219 6.44128
506 2 2.2208 2.1158 18.0661 13.5323
240 2 2.2208 4.90306 6.91594 10.9286
241 2 2.2208 4.92272 12.3466 10.7861
242 1 -1.1104 0.628212 8.20722 12.1955
244 1 -1.1104 0.692639 8.22787 9.32508
246 1 -1.1104 0.717383 5.39923 12.2118
247 1 -1.1104 0.710286 10.997 12.2429
250 2 2.2208 4.83117 9.58937 8.01759
251 1 -1.1104 0.645365 5.46516 9.31613
252 1 -1.1104 0.757647 11.1463 9.37215
255 1 -1.1104 3.42205 8.21579 12.1274
256 2 2.2208 2.16336 6.81007 7.94167
257 2 2.2208 2.07003 12.3237 7.93719
258 1 -1.1104 3.30324 8.14096 9.39896
259 2 2.2208 2.05505 9.63782 10.7615
260 1 -1.1104 3.58135 5.48595 12.2512
261 1 -1.1104 3.49502 11.1281 12.1939
262 1 -1.1104 3.49446 5.41456 9.52549
263 1 -1.1104 3.52049 10.937 9.35188
243 1 -1.1104 6.36692 8.23881 12.074
508 2 2.2208 4.99414 15.3491 13.5807
249 1 -1.1104 6.31066 10.9238 12.2496
254 1 -1.1104 6.42886 11.0072 9.45869
248 1 -1.1104 6.43929 5.2892 12.1918
253 1 -1.1104 6.31425 5.36569 9.28908
245 1 -1.1104 6.21102 8.26262 9.31775
9491 2 2.2208 13.316 12.5782 7.93234
9490 2 2.2208 13.3234 6.84876 7.91529
269 1 -1.1104 9.15469 5.7128 6.44763
471 2 2.2208 10.4556 9.57867 13.5412
316 2 2.2208 7.80141 20.8822 10.8088
264 1 -1.1104 9.06214 11.0975 9.39917
268 1 -1.1104 9.14094 5.44861 9.15364
270 1 -1.1104 9.18307 11.1242 12.1696
271 1 -1.1104 9.16176 5.42342 12.1599
272 2 2.2208 7.7554 9.56858 10.7607
273 1 -1.1104 9.15833 8.33092 9.29982
274 2 2.2208 7.75351 12.4877 7.9912
275 2 2.2208 7.69958 6.93202 7.91068
276 2 2.2208 10.5784 6.91505 10.7139
277 2 2.2208 10.5275 12.4615 10.8088
278 1 -1.1104 11.9369 8.31945 12.0231
279 1 -1.1104 11.9881 8.26004 9.20623
280 1 -1.1104 11.994 5.61068 12.1968
281 1 -1.1104 11.8869 10.9981 12.0649
282 2 2.2208 10.4912 9.78172 8.01435
283 1 -1.1104 11.9961 5.42459 9.2974
284 1 -1.1104 11.8426 11.1744 9.36995
285 1 -1.1104 9.11278 8.21684 12.176
9677 2 2.2208 13.3792 6.88585 13.6168
9495 2 2.2208 13.4107 9.68193 10.7378
126 1 -1.1104 3.57686 19.4475 6.42991
133 1 -1.1104 3.50596 16.6023 6.50565
124 1 -1.1104 3.47892 13.7771 6.51276
112 1 -1.1104 6.30627 19.3168 6.45152
117 1 -1.1104 0.594199 16.6016 6.46045
111 1 -1.1104 6.39331 13.7176 6.42756
306 1 -1.1104 6.5181 16.6346 12.2219
290 1 -1.1104 6.13661 13.7551 9.08871
324 2 2.2208 10.5243 20.8724 7.98093
288 1 -1.1104 6.26723 19.6124 9.23915
297 1 -1.1104 6.20454 13.7906 12.0701
289 1 -1.1104 6.33276 16.5279 9.23126
286 1 -1.1104 3.67352 19.4398 12.0963
287 1 -1.1104 3.47 13.8049 12.3196
291 1 -1.1104 0.83474 19.3455 9.3794
292 1 -1.1104 0.762511 16.6678 9.46084
293 2 2.2208 5.08595 20.8341 7.79425
294 1 -1.1104 0.868848 13.7937 9.40362
295 2 2.2208 4.8147 15.1314 7.7934
298 1 -1.1104 0.792926 19.5875 12.1846
299 1 -1.1104 0.75314 13.906 12.1298
300 2 2.2208 4.97706 17.9451 10.7089
301 1 -1.1104 3.51931 19.2972 9.24354
303 2 2.2208 2.18278 17.9306 7.84818
304 1 -1.1104 3.59189 16.4811 9.30661
305 1 -1.1104 3.50933 13.7102 9.45688
307 1 -1.1104 0.854726 16.7255 12.1037
308 1 -1.1104 3.67296 16.6521 12.1586
309 2 2.2208 2.25159 20.8354 10.6297
310 2 2.2208 2.20768 15.2365 10.7247
296 1 -1.1104 6.38702 19.3999 12.0765
315 1 -1.1104 9.14588 16.6303 12.215
325 2 2.2208 10.6009 15.2297 7.86617
317 2 2.2208 7.73022 15.3311 10.7518
9541 2 2.2208 13.3521 20.789 10.8266
320 2 2.2208 7.74849 18.1427 7.94022
331 2 2.2208 10.5492 18.0356 10.8371
326 1 -1.1104 12.0909 16.6419 12.2513
314 1 -1.1104 9.11798 16.8412 9.46412
163 1 -1.1104 9.18323 16.821 6.51658
154 1 -1.1104 9.1567 13.9351 6.50999
145 1 -1.1104 12.0269 19.62 6.63118
321 1 -1.1104 9.29749 19.4314 12.1623
323 1 -1.1104 11.9028 16.6238 9.37562
333 2 2.2208 13.3935 15.2864 10.8587
322 1 -1.1104 9.10223 14.0147 12.0591
332 2 2.2208 13.33 18.0827 8.03788
444 2 2.2208 4.69283 9.6445 13.6479
472 2 2.2208 7.69335 12.4708 13.4869
533 2 2.2208 10.6033 20.8567 13.6414
534 2 2.2208 10.4398 15.2383 13.6013
535 2 2.2208 7.81093 18.1462 13.6637
443 2 2.2208 2.02468 6.80736 13.6112
507 2 2.2208 4.99829 20.8082 13.4597
334 2 2.2208 4.85872 1.24164 16.3722
335 1 -1.1104 0.742113 -3.02355 18.0112
336 1 -1.1104 0.740101 2.66179 17.8334
339 1 -1.1104 0.808142 -3.02504 15.0635
341 1 -1.1104 0.680788 2.58865 15.0966
347 1 -1.1104 0.855417 -0.159304 17.7361
349 2 2.2208 4.84555 -1.64298 19.1456
351 1 -1.1104 0.731235 -0.238737 15.0911
355 1 -1.1104 3.51077 -3.06358 17.7436
356 1 -1.1104 3.61145 2.66253 17.6804
357 2 2.2208 2.19079 1.17505 19.1735
358 1 -1.1104 3.52629 -2.97181 15.0514
360 1 -1.1104 3.5726 2.70211 14.7634
362 2 2.2208 2.14482 -1.57358 16.4485
363 2 2.2208 2.11523 3.9582 16.3637
364 1 -1.1104 3.52672 -0.151596 17.677
365 1 -1.1104 3.58594 -0.108644 14.9605
350 2 2.2208 4.91504 4.14176 19.1932
366 1 -1.1104 3.59356 -0.161026 20.5958
361 1 -1.1104 3.69083 2.64528 20.6204
345 1 -1.1104 6.17958 2.72028 14.9914
338 1 -1.1104 6.30954 2.6144 17.9502
340 1 -1.1104 0.660718 -3.13703 20.5989
346 1 -1.1104 6.44824 2.56895 20.7131
353 1 -1.1104 6.54493 -0.328545 14.8504
343 1 -1.1104 6.41894 -3.02054 14.7857
337 1 -1.1104 6.37058 -3.02977 17.7008
348 1 -1.1104 6.32217 -0.168116 17.6254
344 1 -1.1104 6.28026 -2.99045 20.4235
359 1 -1.1104 3.40924 -3.0043 20.5774
352 1 -1.1104 0.610486 -0.212442 20.4839
354 1 -1.1104 6.3115 -0.248227 20.4751
377 2 2.2208 10.5811 1.19394 16.3961
378 1 -1.1104 11.9481 -2.93127 17.7817
379 1 -1.1104 12.0673 2.54779 17.8313
380 1 -1.1104 11.9827 -3.00783 14.7799
382 1 -1.1104 11.9804 2.52072 15.0686
384 1 -1.1104 11.944 -0.102679 17.7776
385 2 2.2208 10.5847 -1.59141 19.1797
387 1 -1.1104 11.8206 -0.176966 14.9533
389 1 -1.1104 9.19474 -3.03256 17.7416
390 1 -1.1104 9.14054 2.62773 17.7311
391 2 2.2208 7.82083 1.31814 19.1034
392 1 -1.1104 9.11019 -3.08228 14.9927
394 1 -1.1104 8.99325 2.51053 15.0582
396 2 2.2208 7.68898 -1.62489 16.2785
398 1 -1.1104 9.1718 -0.202232 17.8051
399 1 -1.1104 9.28127 -0.148759 14.9887
397 2 2.2208 7.67695 3.93839 16.4116
386 2 2.2208 10.5917 4.20911 19.1819
383 1 -1.1104 12.0882 2.829 20.692
388 1 -1.1104 12.0548 -0.119672 20.5105
9604 2 2.2208 13.4074 4.09015 16.3657
400 1 -1.1104 9.19135 -0.096083 20.5591
405 2 2.2208 13.3359 -1.47054 16.3805
9610 2 2.2208 13.4849 1.34047 19.1912
393 1 -1.1104 9.21817 -2.92355 20.6141
381 1 -1.1104 11.903 -3.11972 20.7539
395 1 -1.1104 9.26138 2.71276 20.4552
410 2 2.2208 4.88102 6.84961 16.3522
411 2 2.2208 4.89833 12.3742 16.5429
412 1 -1.1104 0.683536 8.20816 17.7167
414 1 -1.1104 0.66863 8.23794 14.8338
418 1 -1.1104 0.829454 5.39274 17.7793
419 1 -1.1104 0.747685 11.0727 17.9295
422 2 2.2208 4.94016 9.59896 19.2347
423 1 -1.1104 0.697834 5.41516 14.9459
425 1 -1.1104 0.55085 11.1618 15.0226
431 1 -1.1104 3.578 8.2293 17.7012
432 2 2.2208 2.06165 6.85808 19.1294
433 2 2.2208 2.17662 12.4651 19.134
434 1 -1.1104 3.37106 8.06691 14.9976
436 2 2.2208 2.11862 9.64185 16.3813
437 1 -1.1104 3.43101 5.47246 17.7691
438 1 -1.1104 3.40577 10.8262 17.8025
439 1 -1.1104 3.67202 5.38849 15.0417
441 1 -1.1104 3.36034 10.9547 14.9629
416 1 -1.1104 6.25563 8.2436 14.9409
415 1 -1.1104 0.654845 8.29729 20.3954
421 1 -1.1104 6.31389 10.9893 17.8377
435 1 -1.1104 3.5177 8.22208 20.6087
427 1 -1.1104 6.41932 5.40422 14.8751
429 1 -1.1104 6.24086 11.0045 15.0767
420 1 -1.1104 6.22491 5.47274 17.6713
413 1 -1.1104 6.33183 8.20318 17.7579
417 1 -1.1104 6.25731 8.2279 20.7017
430 1 -1.1104 6.47198 11.1044 20.6447
426 1 -1.1104 0.663932 11.1892 20.6515
442 1 -1.1104 3.56086 11.0273 20.567
440 1 -1.1104 3.49051 5.50037 20.5922
653 2 2.2208 10.4933 12.5411 27.5478
428 1 -1.1104 6.25946 5.4318 20.4921
424 1 -1.1104 0.698013 5.46444 20.4921
9678 2 2.2208 13.3668 9.66454 16.3493
446 2 2.2208 10.4225 6.87488 16.3032
447 2 2.2208 10.5094 12.5238 16.3421
448 1 -1.1104 11.899 8.25536 17.5883
449 1 -1.1104 11.8704 8.37064 14.8803
451 1 -1.1104 11.9253 5.42061 17.7435
452 1 -1.1104 11.9271 11.142 17.7899
453 2 2.2208 10.5936 9.67115 19.0955
454 1 -1.1104 11.9419 5.59689 15.009
456 1 -1.1104 11.7969 11.2114 14.8573
458 1 -1.1104 9.14132 8.13917 17.8365
459 2 2.2208 7.70243 6.88038 19.2941
460 2 2.2208 7.78308 12.4277 19.1586
461 1 -1.1104 9.2084 8.23237 14.9837
463 2 2.2208 7.57557 9.6207 16.4436
464 1 -1.1104 9.05936 5.41955 17.6933
465 1 -1.1104 9.00704 11.1627 17.7422
466 1 -1.1104 9.14132 5.56393 14.8335
468 1 -1.1104 9.05171 11.0586 14.9861
467 1 -1.1104 9.05434 5.42562 20.6128
469 1 -1.1104 9.27011 11.0476 20.4994
450 1 -1.1104 11.9327 8.29515 20.4761
455 1 -1.1104 11.8811 5.64784 20.4477
462 1 -1.1104 9.15703 8.32107 20.5711
9680 2 2.2208 13.3322 12.4573 19.2435
9679 2 2.2208 13.2852 6.94518 19.0913
707 2 2.2208 10.619 18.1107 27.5533
681 2 2.2208 4.98389 18.0222 27.5634
680 2 2.2208 2.16289 20.8579 27.4814
473 2 2.2208 4.81483 18.1086 16.3323
474 1 -1.1104 0.716123 13.9165 17.8685
475 1 -1.1104 0.774501 19.4637 17.7645
478 1 -1.1104 0.643024 13.8511 15.0805
480 1 -1.1104 0.751894 19.5735 14.844
486 1 -1.1104 0.651666 16.6261 17.6473
488 2 2.2208 4.89658 15.2442 19.1465
489 2 2.2208 5.07133 20.7986 19.1218
490 1 -1.1104 0.816782 16.6297 14.9327
494 1 -1.1104 3.50284 13.7622 17.677
495 1 -1.1104 3.43063 19.5227 17.7735
496 2 2.2208 2.00985 18.0312 19.1709
497 1 -1.1104 3.39282 13.9094 15.0446
499 1 -1.1104 3.5977 19.5869 14.9973
501 2 2.2208 2.09936 15.238 16.3454
502 2 2.2208 2.19371 20.978 16.3498
503 1 -1.1104 3.55633 16.5825 17.8025
504 1 -1.1104 3.51125 16.6172 14.8134
505 1 -1.1104 3.41969 16.6076 20.5519
491 1 -1.1104 0.733875 16.5966 20.4864
479 1 -1.1104 0.729149 13.9794 20.5302
477 1 -1.1104 6.22201 19.4289 17.6474
498 1 -1.1104 3.65224 13.7758 20.3663
481 1 -1.1104 0.713205 19.5184 20.8335
487 1 -1.1104 6.33176 16.6956 17.6448
493 1 -1.1104 6.23755 16.6362 20.461
492 1 -1.1104 6.35087 16.6515 15.0505
482 1 -1.1104 6.30074 13.8964 14.9351
476 1 -1.1104 6.33439 13.844 17.7863
484 1 -1.1104 6.40834 19.4721 15.0079
9751 2 2.2208 13.4182 20.9033 16.2865
9750 2 2.2208 13.4784 18.0857 19.1918
9748 2 2.2208 13.3316 15.2219 16.4098
532 1 -1.1104 9.23907 16.7634 20.5574
525 1 -1.1104 9.1691 13.979 20.5236
509 2 2.2208 10.607 18.1476 16.2607
510 1 -1.1104 11.9195 13.8194 17.6266
511 1 -1.1104 11.8872 19.5179 17.7979
512 1 -1.1104 11.8731 13.9308 14.9008
514 1 -1.1104 11.9577 19.4522 14.9034
516 1 -1.1104 12.1172 16.7323 17.7439
517 2 2.2208 10.5698 15.3257 19.0432
518 2 2.2208 10.5133 20.8351 19.2462
519 1 -1.1104 11.8998 16.6916 14.9737
521 1 -1.1104 9.10013 13.9982 17.7608
522 1 -1.1104 9.01223 19.4087 17.8569
523 2 2.2208 7.68915 18.0216 19.151
524 1 -1.1104 9.09457 13.9093 14.9501
526 1 -1.1104 9.18577 19.6067 15.0029
528 2 2.2208 7.72918 15.3127 16.4326
529 2 2.2208 7.72113 20.8693 16.4725
530 1 -1.1104 9.20981 16.742 17.6965
531 1 -1.1104 9.12728 16.7088 14.9648
515 1 -1.1104 11.9821 19.4397 20.5704
513 1 -1.1104 11.9855 13.9851 20.358
701 1 -1.1104 12.0456 19.4734 26.3085
561 2 2.2208 4.88339 1.2822 27.5356
342 1 -1.1104 0.72075 2.66355 20.5145
537 2 2.2208 4.92039 1.2473 21.9239
538 1 -1.1104 0.803963 -3.03147 23.2614
539 1 -1.1104 0.789589 2.65225 23.2624
542 1 -1.1104 0.651755 -2.92582 26.048
543 1 -1.1104 0.589577 2.7366 26.0107
546 1 -1.1104 0.576318 -0.171538 23.247
548 2 2.2208 4.91932 -1.60316 24.8121
550 1 -1.1104 0.625499 -0.0669293 26.1455
552 1 -1.1104 3.68749 -3.01555 23.3818
553 1 -1.1104 3.53173 2.62166 23.4215
554 2 2.2208 2.12812 1.26381 24.6987
555 1 -1.1104 3.54316 -2.98921 26.124
556 1 -1.1104 3.37198 2.6329 26.1257
557 2 2.2208 2.06508 -1.60332 21.8851
558 2 2.2208 2.19506 3.86772 21.9638
559 1 -1.1104 3.45642 -0.328888 23.4638
560 1 -1.1104 3.53524 -0.191856 26.2774
549 2 2.2208 4.85616 3.96488 24.8338
544 1 -1.1104 6.41163 -2.986 26.1049
540 1 -1.1104 6.50655 -2.95127 23.2179
545 1 -1.1104 6.29564 2.57074 26.0905
541 1 -1.1104 6.22233 2.80985 23.333
551 1 -1.1104 6.3971 -0.175813 26.1503
547 1 -1.1104 6.22737 -0.148554 23.4165
711 2 2.2208 13.3665 15.3381 27.6072
697 1 -1.1104 12.046 16.6378 26.251
594 2 2.2208 13.3467 -4.18146 24.6887
563 2 2.2208 2.0234 4.09424 27.5307
706 2 2.2208 7.59981 20.9088 27.676
9811 2 2.2208 13.2706 4.22444 22.0175
698 2 2.2208 10.656 20.8264 24.955
592 2 2.2208 7.69218 -1.59509 27.6661
601 2 2.2208 13.3458 4.04378 27.5066
708 2 2.2208 7.75702 15.1793 27.5116
593 2 2.2208 7.7428 4.02897 27.4762
573 2 2.2208 10.479 1.40103 21.906
574 1 -1.1104 12.0688 -2.856 23.3843
575 1 -1.1104 11.9252 2.76331 23.3602
576 1 -1.1104 12.0146 -2.94595 26.092
577 1 -1.1104 12.0604 2.54313 26.2047
578 1 -1.1104 11.9069 -0.0590623 23.2995
579 2 2.2208 10.5548 -1.59738 24.7082
581 1 -1.1104 12.0121 -0.164534 25.9933
582 1 -1.1104 9.21381 -2.99923 23.3801
583 1 -1.1104 9.1768 2.72 23.3528
584 2 2.2208 7.78597 1.28006 24.7586
585 1 -1.1104 9.27886 -2.88071 26.264
586 1 -1.1104 9.11138 2.67636 26.1496
587 2 2.2208 7.85925 -1.65681 21.9464
588 2 2.2208 7.56597 4.11957 22.0194
589 1 -1.1104 9.08886 -0.151698 23.3838
590 1 -1.1104 9.2829 -0.0162899 26.2299
580 2 2.2208 10.57 4.16554 24.6986
599 2 2.2208 13.4207 -1.44509 22.0206
600 2 2.2208 13.3188 1.26645 24.6657
598 2 2.2208 13.3493 -1.41958 27.5836
626 2 2.2208 4.88935 6.82392 27.5271
602 2 2.2208 4.80837 6.82532 21.9706
603 2 2.2208 4.85311 12.4778 21.9409
604 1 -1.1104 0.65362 8.24166 23.4062
606 1 -1.1104 0.645141 8.33385 26.1721
608 1 -1.1104 0.850839 5.36317 23.1931
609 1 -1.1104 0.696108 10.926 23.4039
612 2 2.2208 4.78706 9.6437 24.6916
613 1 -1.1104 0.767159 5.6003 26.1182
614 1 -1.1104 0.577923 11.0908 26.1656
617 1 -1.1104 3.49292 8.30324 23.3845
618 2 2.2208 2.13588 6.80694 24.7293
619 2 2.2208 2.05491 12.4333 24.8843
620 1 -1.1104 3.48841 8.17547 26.157
621 2 2.2208 2.09971 9.61984 22.0211
622 1 -1.1104 3.56291 5.51035 23.3184
623 1 -1.1104 3.54269 11.1547 23.4327
624 1 -1.1104 3.39088 5.41279 26.2095
625 1 -1.1104 3.39522 10.9058 26.213
628 2 2.2208 4.98622 12.3725 27.4864
610 1 -1.1104 6.32151 5.51265 23.3705
615 1 -1.1104 6.21353 5.36561 26.2337
611 1 -1.1104 6.28928 11.0811 23.2459
607 1 -1.1104 6.32029 8.18957 26.1589
605 1 -1.1104 6.22213 8.20781 23.4119
627 2 2.2208 1.95933 9.58329 27.5745
616 1 -1.1104 6.25045 10.8866 25.955
654 2 2.2208 13.3489 12.647 24.8441
457 1 -1.1104 11.9404 11.2123 20.7125
655 2 2.2208 13.1774 9.7183 27.5338
633 1 -1.1104 9.13351 11.124 26.1643
634 1 -1.1104 9.12718 5.44436 26.118
635 1 -1.1104 9.03797 11.0396 23.3679
636 1 -1.1104 9.08458 5.43651 23.333
637 2 2.2208 7.73492 9.66591 21.99
638 1 -1.1104 9.06067 8.28865 26.1478
639 2 2.2208 7.66552 12.4049 24.6805
640 2 2.2208 7.73378 6.83136 24.8306
641 2 2.2208 10.4848 6.80307 21.8861
642 2 2.2208 10.4988 12.5374 21.9755
643 1 -1.1104 11.9958 8.34802 23.3295
644 1 -1.1104 11.8944 8.33549 26.0164
645 1 -1.1104 11.9393 5.45437 23.3531
646 1 -1.1104 11.8339 11.0732 23.355
647 2 2.2208 10.5247 9.64095 24.6891
648 1 -1.1104 11.8627 5.4255 26.2144
649 1 -1.1104 11.9449 11.2056 25.9903
650 1 -1.1104 9.23516 8.21095 23.2821
656 2 2.2208 13.3387 6.92686 24.6517
652 2 2.2208 7.73205 9.56497 27.5341
9870 2 2.2208 13.3284 9.88877 21.9907
651 2 2.2208 10.3958 6.95193 27.5176
690 2 2.2208 7.77394 15.426 21.9692
483 1 -1.1104 6.36267 13.8402 20.6262
500 1 -1.1104 3.4686 19.3697 20.582
485 1 -1.1104 6.37222 19.2904 20.5326
675 1 -1.1104 6.34747 16.7125 23.28
664 1 -1.1104 6.49189 19.467 23.4223
658 1 -1.1104 6.35443 13.813 26.1629
669 1 -1.1104 0.651738 13.6625 23.572
678 2 2.2208 2.22803 20.8828 22.0498
677 1 -1.1104 3.56366 16.747 23.3895
671 1 -1.1104 3.59096 19.5347 26.1501
676 1 -1.1104 0.694384 16.6391 23.3439
679 2 2.2208 2.12936 15.2333 22.1031
672 2 2.2208 2.23481 18.09 24.7542
673 1 -1.1104 3.54173 16.6692 26.128
674 1 -1.1104 3.52433 13.8426 26.0902
670 2 2.2208 4.92942 18.1191 21.975
657 1 -1.1104 3.70927 19.502 23.3938
659 1 -1.1104 3.41097 13.8238 23.4641
661 1 -1.1104 0.685742 19.3422 26.2112
662 1 -1.1104 0.768188 16.5914 26.0952
663 1 -1.1104 0.620951 13.9415 26.3171
665 2 2.2208 4.9789 20.8957 24.8497
666 2 2.2208 4.95261 15.2293 24.6406
668 1 -1.1104 0.961731 19.6236 23.4716
703 1 -1.1104 12.1499 19.6295 23.5277
693 1 -1.1104 6.3553 19.4825 26.2712
660 1 -1.1104 6.29721 16.6058 26.1256
667 1 -1.1104 6.35491 13.839 23.3722
709 2 2.2208 13.337 20.9744 21.9918
702 1 -1.1104 11.9528 14.0321 26.092
713 2 2.2208 13.4006 15.2846 21.8998
712 2 2.2208 13.4372 18.1612 24.7287
520 1 -1.1104 11.9978 16.6861 20.5686
527 1 -1.1104 9.19297 19.5126 20.6507
692 1 -1.1104 9.20245 13.8205 26.0852
710 2 2.2208 13.381 20.9364 27.5659
699 2 2.2208 10.6005 15.3644 24.6467
696 1 -1.1104 9.17751 13.8522 23.3401
704 1 -1.1104 11.9757 13.9156 23.3199
695 1 -1.1104 9.29783 19.3664 23.4258
705 2 2.2208 10.5492 18.1523 21.9445
687 1 -1.1104 9.13171 16.7309 26.1932
691 1 -1.1104 9.04757 19.5967 26.156
688 1 -1.1104 9.15014 16.6879 23.4663
694 2 2.2208 7.7722 18.0657 24.8934
700 1 -1.1104 11.9137 16.8474 23.3091
689 2 2.2208 7.76094 20.8772 21.9912
682 2 2.2208 2.14649 15.2964 27.5554
591 2 2.2208 10.5797 1.2634 27.4032
562 2 2.2208 2.04737 -1.53646 27.4711
445 2 2.2208 2.12662 12.4479 13.6512
714 2 2.2208 4.9979 23.6893 5.25602
715 2 2.2208 5.04681 29.2505 5.13598
716 1 -1.1104 0.823578 25.2206 0.979286
717 1 -1.1104 0.803208 25.1963 3.80131
718 1 -1.1104 0.807875 22.3849 0.925946
719 1 -1.1104 0.703705 27.884 0.980288
720 2 2.2208 5.14721 26.5672 2.28899
721 1 -1.1104 0.777166 22.3094 3.86011
722 1 -1.1104 0.765059 28.0295 3.68722
723 1 -1.1104 3.64764 25.1078 0.922439
724 2 2.2208 2.32989 23.7762 2.29019
725 2 2.2208 2.27922 29.2182 2.40653
726 1 -1.1104 3.6618 25.0464 3.64879
727 2 2.2208 2.23436 26.5529 5.11573
728 1 -1.1104 3.59825 22.3778 0.980125
729 1 -1.1104 3.55722 27.808 0.987017
730 1 -1.1104 3.59254 22.3706 3.83724
731 1 -1.1104 3.65557 27.7671 3.7447
739 1 -1.1104 6.4252 22.1948 3.76257
862 1 -1.1104 3.64138 22.2342 6.61485
857 1 -1.1104 0.816313 22.1762 6.482
736 1 -1.1104 6.45791 24.9995 3.67735
863 1 -1.1104 3.60148 27.9122 6.47328
861 1 -1.1104 3.63774 25.026 6.56022
858 1 -1.1104 0.744913 27.9558 6.60185
855 1 -1.1104 0.864615 25.1492 6.51892
737 1 -1.1104 6.41807 22.3679 0.961083
735 1 -1.1104 6.42825 25.1838 1.03731
740 1 -1.1104 6.47588 27.9707 3.70866
860 1 -1.1104 6.34091 27.81 6.61431
856 1 -1.1104 6.4213 25.0475 6.64696
859 1 -1.1104 6.44885 22.2145 6.559
10227 2 2.2208 13.496 46.0215 8.11308
738 1 -1.1104 6.45495 28.0134 0.918654
741 2 2.2208 10.6675 23.775 5.10167
742 2 2.2208 10.7286 29.2662 5.19203
743 1 -1.1104 11.9822 25.1238 1.01947
744 1 -1.1104 12.0806 25.1531 3.7083
745 1 -1.1104 12.0671 22.2333 0.982826
746 1 -1.1104 12.1236 27.8381 1.00821
747 2 2.2208 10.7437 26.4163 2.43054
748 1 -1.1104 12.0126 22.3692 3.77301
749 1 -1.1104 11.9449 27.845 3.7796
750 1 -1.1104 9.28052 25.1186 1.09931
751 2 2.2208 7.87262 23.7735 2.30451
752 2 2.2208 7.97284 29.4277 2.32531
753 1 -1.1104 9.26746 25.1064 3.93827
754 2 2.2208 7.85606 26.4854 5.24347
755 1 -1.1104 9.24457 22.3412 0.928776
756 1 -1.1104 9.40903 28.0127 0.917975
757 1 -1.1104 9.32132 22.2961 3.77202
758 1 -1.1104 9.2458 28.0325 3.75287
890 1 -1.1104 12.2472 27.8805 6.71985
889 1 -1.1104 11.9222 22.3665 6.5008
759 2 2.2208 13.4681 23.6694 2.33287
760 2 2.2208 13.3931 29.2896 2.39042
761 2 2.2208 13.4126 26.431 5.30326
1305 2 2.2208 10.6792 23.6962 -0.451871
1453 1 -1.1104 9.37953 47.558 3.83958
762 2 2.2208 5.11137 34.9422 5.20869
763 1 -1.1104 0.778595 30.5728 1.12758
764 1 -1.1104 0.907995 36.3979 1.05764
766 1 -1.1104 0.980948 30.7664 3.89274
767 1 -1.1104 0.898457 36.3807 3.80326
769 1 -1.1104 0.936856 33.3967 1.0181
770 2 2.2208 5.02739 32.0449 2.46741
771 2 2.2208 4.91504 37.7415 2.41116
772 1 -1.1104 0.861281 33.6196 3.78008
774 1 -1.1104 3.552 30.6186 1.02915
775 1 -1.1104 3.79487 36.2634 0.951175
776 2 2.2208 2.28483 34.9431 2.44256
777 1 -1.1104 3.66258 30.7444 3.9121
778 1 -1.1104 3.69472 36.2242 3.7687
779 2 2.2208 2.39404 32.186 5.28776
780 2 2.2208 2.35 37.736 5.26603
781 1 -1.1104 3.69152 33.4423 0.923713
782 1 -1.1104 3.56507 33.5595 3.86096
773 1 -1.1104 6.34635 33.5786 3.83557
914 1 -1.1104 6.39227 30.7077 6.57763
920 1 -1.1104 3.7836 33.4589 6.68901
919 1 -1.1104 3.78641 36.2874 6.56354
912 1 -1.1104 0.85573 30.6816 6.47493
913 1 -1.1104 1.00943 36.4298 6.59165
786 1 -1.1104 6.37793 30.6798 0.953158
917 1 -1.1104 6.42522 33.3837 6.69097
788 1 -1.1104 6.49868 33.3539 1.21547
768 1 -1.1104 6.51636 36.362 3.76186
915 1 -1.1104 6.56469 36.4156 6.60078
916 1 -1.1104 0.977412 33.7483 6.54715
787 1 -1.1104 6.31871 30.6242 3.86632
765 1 -1.1104 6.5084 36.2859 1.05888
10009 2 2.2208 13.3376 32.1338 5.16377
789 2 2.2208 10.6357 34.8349 5.17997
790 1 -1.1104 12.0445 30.7101 1.0064
791 1 -1.1104 12.131 36.181 1.03266
792 1 -1.1104 12.0964 30.7806 3.87819
793 1 -1.1104 12.0524 36.3881 3.88358
794 1 -1.1104 12.0245 33.4371 1.08255
795 2 2.2208 10.6332 32.2347 2.34244
796 2 2.2208 10.7993 37.7806 2.40776
797 1 -1.1104 12.0831 33.5284 3.75012
798 1 -1.1104 9.19834 30.8532 0.935317
799 1 -1.1104 9.25865 36.4576 0.981522
800 2 2.2208 7.83114 34.9378 2.29779
801 1 -1.1104 9.21775 30.8987 3.67854
802 1 -1.1104 9.34244 36.3955 3.77277
803 2 2.2208 7.83301 32.0615 5.09329
804 2 2.2208 7.88312 37.6964 5.22707
805 1 -1.1104 9.34703 33.6271 0.981562
806 1 -1.1104 9.21509 33.5787 3.83873
946 1 -1.1104 12.0008 30.6738 6.57622