ITEM: TIMESTEP
100000
ITEM: NUMBER OF ATOMS
17910
ITEM: BOX BOUNDS pp pp pp
-3.5902376550945930e-01 2.7699023765509260e+01
-4.2338491324666636e+00 3.3231384913248252e+02
-3.5928938862376159e-01 2.7699289388623971e+01
ITEM: ATOMS id type q x y z
1 2 2.2208 5.30225 1.38754 5.34678
2 1 -1.1104 1.03271 -2.65329 0.970645
3 1 -1.1104 1.07418 2.90065 1.0458
6 1 -1.1104 1.17372 -2.73275 3.84642
7 1 -1.1104 1.00669 2.86709 3.8965
10 1 -1.1104 1.00722 0.0256744 1.09302
12 2 2.2208 5.2344 -1.21967 2.47664
13 2 2.2208 5.23727 4.31373 2.38641
14 1 -1.1104 1.09156 0.036101 3.94643
16 1 -1.1104 3.94561 -2.78497 1.15696
17 1 -1.1104 3.82864 2.81481 1.10048
18 2 2.2208 2.45073 1.57327 2.47467
19 1 -1.1104 3.92449 -2.79259 3.95326
20 1 -1.1104 3.841 2.85904 3.97149
21 2 2.2208 2.50471 -1.27361 5.31222
23 1 -1.1104 3.8564 0.052485 1.13038
24 1 -1.1104 3.76207 0.077409 3.97853
22 2 2.2208 2.46603 4.15976 5.28292
170 1 -1.1104 1.15715 0.058224 6.70886
28 2 2.2208 2.46378 -4.16998 2.3877
30 2 2.2208 -0.384334 -4.09509 5.29075
9723 2 2.2208 -0.28278 9.82566 13.6472
9 1 -1.1104 6.55488 2.8034 3.90819
9509 2 2.2208 -0.251423 7.04434 10.8815
29 2 2.2208 5.24156 -4.13179 5.22744
27 2 2.2208 -0.333609 4.25551 2.32005
174 1 -1.1104 4.01746 -0.0722073 6.84435
167 1 -1.1104 0.892819 2.82258 6.74712
52 2 2.2208 10.8789 -4.13084 5.31073
8 1 -1.1104 6.73449 -2.74156 3.92732
15 1 -1.1104 6.52333 0.0482171 3.98179
4 1 -1.1104 6.63868 -2.71327 1.1468
11 1 -1.1104 6.74726 0.0945107 1.205
5 1 -1.1104 6.53008 2.84407 1.19688
31 2 2.2208 10.865 1.48964 5.24728
32 1 -1.1104 12.2456 -2.81998 1.08631
33 1 -1.1104 12.09 3.08795 0.872046
34 1 -1.1104 12.2555 -2.82742 3.73215
35 1 -1.1104 12.2882 2.84506 3.87874
36 1 -1.1104 12.1196 -0.12692 1.12725
37 2 2.2208 10.9784 -1.39825 2.4941
39 1 -1.1104 12.2554 0.0789123 3.74186
40 1 -1.1104 9.33604 -2.78731 1.26816
41 1 -1.1104 9.26088 2.91017 1.0454
42 2 2.2208 8.11108 1.41287 2.54414
43 1 -1.1104 9.51902 -2.69246 3.97186
44 1 -1.1104 9.49468 2.85088 4.01859
45 2 2.2208 8.01644 -1.19025 5.20181
47 1 -1.1104 9.54287 0.0332125 0.987227
48 1 -1.1104 9.26319 0.0171706 3.82648
46 2 2.2208 8.09994 4.22077 5.27237
38 2 2.2208 10.8918 4.27875 2.45555
206 1 -1.1104 12.3606 2.9925 6.68839
297 1 -1.1104 6.56833 14.1001 12.2045
533 2 2.2208 10.8824 21.0458 13.7316
231 2 2.2208 8.17834 -4.08623 7.99327
171 1 -1.1104 6.92836 0.10525 6.67915
51 2 2.2208 7.97525 -4.12701 2.50281
81 2 2.2208 -0.291729 6.98014 5.21399
534 2 2.2208 10.9057 15.3784 13.6808
54 2 2.2208 5.40952 6.91448 5.1641
55 2 2.2208 5.27165 12.5015 5.18935
56 1 -1.1104 1.1002 8.43503 1.00795
58 1 -1.1104 1.14518 8.31033 3.78859
60 1 -1.1104 1.16779 5.57265 0.992811
61 1 -1.1104 1.05102 11.2201 0.91875
66 2 2.2208 5.32538 9.80954 2.36667
67 1 -1.1104 1.18795 5.60186 3.73458
68 1 -1.1104 1.0784 11.2305 3.65681
71 1 -1.1104 3.87899 8.44375 1.00954
72 2 2.2208 2.56044 7.06117 2.49313
73 2 2.2208 2.46074 12.6072 2.39504
74 1 -1.1104 3.87705 8.34342 3.94583
75 2 2.2208 2.56331 9.73406 5.20421
76 1 -1.1104 3.95198 5.62473 1.026
77 1 -1.1104 3.8948 11.2914 1.17901
79 1 -1.1104 3.96701 5.60941 3.80169
80 1 -1.1104 4.01457 11.1765 3.86661
9356 2 2.2208 13.7711 21.0331 5.11724
63 1 -1.1104 6.56142 5.59733 0.899256
137 2 2.2208 -0.298085 18.1578 5.02346
238 1 -1.1104 3.93373 8.39505 6.6181
329 1 -1.1104 12.0604 19.7244 12.2235
322 1 -1.1104 9.41854 14.0255 12.208
317 2 2.2208 8.05073 15.4561 10.8291
9491 2 2.2208 13.7973 12.6119 8.08384
69 1 -1.1104 6.78097 5.486 3.69427
64 1 -1.1104 6.56241 11.3402 0.981785
57 1 -1.1104 6.71067 8.4957 1.03039
70 1 -1.1104 6.89774 11.1537 3.86405
59 1 -1.1104 6.6575 8.37725 3.78052
84 2 2.2208 11.0612 7.07433 5.34846
85 2 2.2208 10.8526 12.6786 5.29024
86 1 -1.1104 12.3432 8.38183 0.922413
87 1 -1.1104 12.2879 8.38428 3.8262
88 1 -1.1104 12.1894 5.782 1.05727
89 1 -1.1104 12.3422 11.1532 1.02186
91 2 2.2208 10.936 9.80048 2.45923
92 1 -1.1104 12.2031 5.63873 3.86072
93 1 -1.1104 12.1921 11.3832 3.83327
94 1 -1.1104 9.53534 8.41881 0.919279
95 2 2.2208 8.16291 7.00855 2.27305
96 2 2.2208 8.0999 12.6288 2.48223
97 1 -1.1104 9.51611 8.54331 3.73672
98 2 2.2208 8.05844 9.65752 5.24931
99 1 -1.1104 9.46297 5.52244 1.00695
100 1 -1.1104 9.52726 11.2536 0.972019
102 1 -1.1104 9.48635 5.73159 3.84361
103 1 -1.1104 9.52136 11.248 3.74497
267 1 -1.1104 9.47656 8.42113 6.52259
265 1 -1.1104 12.3609 8.49868 6.56842
266 1 -1.1104 12.3394 5.72199 6.60312
90 1 -1.1104 12.4127 11.2006 6.56599
269 1 -1.1104 9.51788 5.66092 6.61419
289 1 -1.1104 6.92396 16.8142 9.29427
314 1 -1.1104 9.672 16.7748 9.63788
591 2 2.2208 10.6717 1.63855 -0.440789
312 2 2.2208 -0.371824 18.2349 10.8223
106 2 2.2208 5.20395 18.257 5.14243
107 1 -1.1104 1.04346 13.9927 1.027
109 1 -1.1104 1.06317 19.7548 0.995272
113 1 -1.1104 1.16885 14.0294 3.79076
114 1 -1.1104 1.04368 19.4054 3.72908
116 1 -1.1104 1.11037 16.8546 0.86526
119 2 2.2208 5.21734 15.4623 2.33219
120 2 2.2208 5.20691 20.877 2.50554
121 1 -1.1104 1.20358 16.7239 3.67384
123 1 -1.1104 3.91437 13.9673 0.901866
125 1 -1.1104 3.89444 19.614 1.05079
127 2 2.2208 2.42894 18.1772 2.30135
128 1 -1.1104 3.86993 13.9344 3.65603
129 1 -1.1104 3.72438 19.6184 3.76841
130 2 2.2208 2.44263 15.4276 5.09335
131 2 2.2208 2.44555 20.9655 5.24472
132 1 -1.1104 4.05682 16.7838 0.973948
134 1 -1.1104 3.86114 16.8558 3.75448
115 1 -1.1104 6.63203 14.038 3.89515
122 1 -1.1104 6.67714 16.7747 3.92992
133 1 -1.1104 3.81595 17.0168 6.52859
126 1 -1.1104 3.8165 19.7834 6.69892
302 1 -1.1104 1.13239 19.6248 6.6938
112 1 -1.1104 6.71163 19.7024 6.47212
325 2 2.2208 10.8112 15.5138 7.88001
204 2 2.2208 -0.254102 -4.26591 10.8767
136 2 2.2208 -0.303742 21.119 2.47509
163 1 -1.1104 9.29295 16.9535 6.66011
104 2 2.2208 13.6614 12.5273 2.41163
326 1 -1.1104 12.2905 16.8578 12.2949
140 1 -1.1104 6.78369 16.8719 1.15091
138 1 -1.1104 6.65957 19.6191 0.991669
139 1 -1.1104 6.66513 19.5129 3.84202
110 1 -1.1104 6.76149 14.0087 1.11948
141 2 2.2208 10.8901 18.3639 5.22527
142 1 -1.1104 12.4075 13.9703 1.10182
144 1 -1.1104 12.2758 19.7316 0.956517
146 1 -1.1104 12.2552 14.1173 4.073
147 1 -1.1104 12.2608 19.71 3.69333
148 1 -1.1104 12.3841 16.8918 0.830037
150 2 2.2208 10.8858 15.408 2.44032
151 2 2.2208 10.9154 21.0696 2.42179
152 1 -1.1104 12.3008 17.0054 3.60804
153 1 -1.1104 9.65679 14.0219 0.931503
155 1 -1.1104 9.32603 19.5553 0.991409
157 2 2.2208 8.01248 18.2546 2.44816
158 1 -1.1104 9.5387 13.9787 3.72458
159 1 -1.1104 9.43729 19.7581 3.77751
160 2 2.2208 7.94662 15.4717 5.12982
161 2 2.2208 8.12678 21.1495 5.25874
162 1 -1.1104 9.61124 16.7846 1.06279
164 1 -1.1104 9.5403 16.8059 3.86127
118 1 -1.1104 6.56092 16.8448 6.51412
154 1 -1.1104 9.42851 14.0615 6.37568
145 1 -1.1104 12.4301 19.6335 6.5594
320 2 2.2208 7.98653 18.4001 7.89735
173 1 -1.1104 3.74823 2.716 6.6431
172 1 -1.1104 3.96849 -2.8636 6.67262
313 2 2.2208 -0.323368 15.5898 8.0688
200 2 2.2208 -0.319236 -1.37302 8.06284
166 1 -1.1104 0.924772 -2.70056 6.51631
175 2 2.2208 5.39085 1.4242 10.7979
176 1 -1.1104 1.08897 -2.64162 12.3286
177 1 -1.1104 0.877564 2.85801 12.1719
180 1 -1.1104 1.11555 -2.83922 9.4655
181 1 -1.1104 1.11412 2.84578 9.53043
184 1 -1.1104 1.05312 0.0289073 12.393
186 2 2.2208 5.40794 -1.49075 8.06043
188 1 -1.1104 0.994486 0.0653558 9.48588
190 1 -1.1104 3.83908 -2.62235 12.2179
191 1 -1.1104 3.7016 2.92396 12.1743
192 2 2.2208 2.36655 1.46122 8.12548
193 1 -1.1104 3.81776 -2.69827 9.47822
194 1 -1.1104 3.99776 2.76248 9.40959
195 2 2.2208 2.52786 -1.31459 10.9081
197 1 -1.1104 3.87193 0.0878768 12.2902
198 1 -1.1104 3.9758 -0.0538264 9.614
187 2 2.2208 5.36998 4.1047 7.98569
196 2 2.2208 2.42127 4.19463 10.8908
183 1 -1.1104 6.8516 2.85622 9.53693
182 1 -1.1104 6.80858 -2.70531 9.47685
202 2 2.2208 2.4577 -4.14807 8.04317
201 2 2.2208 -0.338314 1.52204 10.7884
199 2 2.2208 -0.361349 4.26583 8.03456
375 2 2.2208 2.46421 1.37429 13.7231
328 1 -1.1104 12.2489 14.2712 9.28197
168 1 -1.1104 6.82246 -2.66881 6.77151
207 1 -1.1104 12.4058 0.174297 6.68953
83 2 2.2208 -0.231825 12.6327 5.17264
232 2 2.2208 10.8555 -4.10988 10.8347
185 1 -1.1104 6.83929 0.179275 12.1974
178 1 -1.1104 6.6625 -2.69454 12.3579
208 1 -1.1104 9.47373 -2.5916 6.69205
179 1 -1.1104 6.66709 2.87526 12.2447
169 1 -1.1104 6.69804 2.87911 6.67178
209 1 -1.1104 9.45534 2.94733 6.71403
189 1 -1.1104 6.73964 0.146555 9.44817
210 1 -1.1104 9.57689 0.154922 6.54973
205 1 -1.1104 12.2352 -2.62603 6.48136
211 2 2.2208 11.1021 1.40724 10.8332
212 1 -1.1104 12.264 -2.60796 12.18
213 1 -1.1104 12.4842 2.89079 12.3129
214 1 -1.1104 12.4529 -2.79663 9.48293
215 1 -1.1104 12.3859 2.68149 9.44479
216 1 -1.1104 12.5118 0.235234 12.2852
217 2 2.2208 10.9551 -1.34857 8.06037
219 1 -1.1104 12.2636 -0.029018 9.47774
220 1 -1.1104 9.42392 -2.7177 12.1936
221 1 -1.1104 9.59927 2.75528 12.1968
222 2 2.2208 8.19437 1.51992 8.0654
223 1 -1.1104 9.53809 -2.7949 9.50014
224 1 -1.1104 9.63425 2.84171 9.45782
225 2 2.2208 8.07616 -1.31636 10.829
227 1 -1.1104 9.64269 0.0598116 12.2919
228 1 -1.1104 9.47352 0.0357558 9.4512
218 2 2.2208 10.9335 4.31045 8.04509
226 2 2.2208 8.20813 4.17956 10.9676
306 1 -1.1104 6.69141 16.8451 12.1488
316 2 2.2208 8.14275 21.1787 10.8047
9508 2 2.2208 -0.313005 9.68012 7.99525
323 1 -1.1104 12.4568 17.0436 9.40386
239 1 -1.1104 3.95701 5.54091 6.74359
234 1 -1.1104 1.28943 8.32808 6.52534
236 1 -1.1104 1.06779 5.58623 6.68766
78 1 -1.1104 3.86966 11.255 6.66912
62 1 -1.1104 1.01033 11.0838 6.55252
240 2 2.2208 5.277 6.90237 10.782
241 2 2.2208 5.0521 12.713 10.7282
242 1 -1.1104 1.0804 8.40279 12.1271
244 1 -1.1104 1.11599 8.29362 9.42261
246 1 -1.1104 1.17906 5.63192 12.3485
247 1 -1.1104 1.08356 11.3044 12.1907
250 2 2.2208 5.23738 9.79609 8.1208
251 1 -1.1104 1.10028 5.61172 9.52167
252 1 -1.1104 1.04444 11.2035 9.37262
255 1 -1.1104 3.85933 8.45967 12.2243
256 2 2.2208 2.50871 6.9458 8.01063
257 2 2.2208 2.31047 12.5649 7.87142
258 1 -1.1104 3.92474 8.37804 9.41745
259 2 2.2208 2.5108 9.7906 10.7723
260 1 -1.1104 3.95763 5.67965 12.2637
261 1 -1.1104 3.80071 11.132 12.2077
262 1 -1.1104 3.74634 5.58902 9.54405
263 1 -1.1104 3.80699 11.2595 9.33374
248 1 -1.1104 6.72335 5.48339 12.3674
235 1 -1.1104 6.71135 8.35549 6.6334
249 1 -1.1104 6.67286 11.1579 12.1862
254 1 -1.1104 6.67848 11.1666 9.40413
245 1 -1.1104 6.61725 8.33803 9.43258
9501 2 2.2208 -0.357098 12.6051 10.7762
445 2 2.2208 2.50798 12.5208 13.6564
319 1 -1.1104 9.44503 13.899 9.32468
535 2 2.2208 8.10849 18.2728 13.6248
65 1 -1.1104 6.58394 11.1255 6.72008
101 1 -1.1104 9.42361 11.2907 6.54104
237 1 -1.1104 6.68221 5.58361 6.69371
243 1 -1.1104 6.70543 8.35623 12.2349
253 1 -1.1104 6.69924 5.59808 9.33114
264 1 -1.1104 9.39433 11.2083 9.2655
268 1 -1.1104 9.60206 5.62554 9.50511
270 1 -1.1104 9.51271 11.1562 12.1002
271 1 -1.1104 9.63463 5.52637 12.2035
272 2 2.2208 8.08612 9.85717 10.8901
273 1 -1.1104 9.68072 8.47843 9.5587
274 2 2.2208 7.97237 12.5989 7.89318
275 2 2.2208 8.14971 6.90678 8.04763
276 2 2.2208 10.9776 7.11644 11.0242
277 2 2.2208 10.8837 12.6747 10.7251
278 1 -1.1104 12.3499 8.48255 12.3342
279 1 -1.1104 12.3937 8.57075 9.43544
280 1 -1.1104 12.5157 5.54506 12.3772
281 1 -1.1104 12.3304 11.2646 12.1936
282 2 2.2208 10.8971 9.82736 7.96003
283 1 -1.1104 12.2552 5.69021 9.40188
284 1 -1.1104 12.232 11.3939 9.37934
285 1 -1.1104 9.41598 8.33947 12.3185
471 2 2.2208 10.8654 9.85026 13.6712
327 1 -1.1104 12.2018 19.8321 9.54849
311 2 2.2208 -0.455903 21.0431 7.9378
111 1 -1.1104 6.7111 13.9977 6.68448
290 1 -1.1104 6.58789 13.965 9.4281
117 1 -1.1104 1.14248 16.8238 6.54372
108 1 -1.1104 0.987826 13.9758 6.69526
124 1 -1.1104 3.82091 14.1327 6.45057
286 1 -1.1104 3.69813 19.5447 12.1234
287 1 -1.1104 3.81966 14.057 12.2273
291 1 -1.1104 1.14566 19.7648 9.44022
292 1 -1.1104 1.01406 16.966 9.36382
293 2 2.2208 5.34369 21.1586 8.13332
294 1 -1.1104 1.02662 14.0189 9.43232
295 2 2.2208 5.24464 15.4109 7.96334
298 1 -1.1104 1.05227 19.6877 12.2645
299 1 -1.1104 1.16132 14.0384 12.2176
300 2 2.2208 5.29254 18.2204 10.8278
301 1 -1.1104 4.01235 19.576 9.35752
303 2 2.2208 2.5568 18.3615 8.00044
304 1 -1.1104 3.83911 16.8395 9.33954
305 1 -1.1104 3.85457 14.086 9.21778
307 1 -1.1104 1.13561 16.8524 12.146
308 1 -1.1104 3.84811 16.8234 12.0944
309 2 2.2208 2.47657 21.1184 10.7486
310 2 2.2208 2.5698 15.4141 10.7188
507 2 2.2208 5.12908 21.0453 13.4733
508 2 2.2208 5.23686 15.4718 13.6623
374 2 2.2208 5.28691 -1.4087 13.7894
143 1 -1.1104 12.332 13.9915 6.71748
149 1 -1.1104 12.3998 16.8734 6.47399
156 1 -1.1104 9.56846 19.6846 6.71035
330 1 -1.1104 12.294 14.0514 12.1137
315 1 -1.1104 9.38734 16.7452 12.3539
331 2 2.2208 10.8683 18.2634 10.8174
288 1 -1.1104 6.77847 19.793 9.3902
296 1 -1.1104 6.6712 19.7032 12.1704
321 1 -1.1104 9.4005 19.6857 12.3258
324 2 2.2208 10.8927 21.0607 7.97619
318 1 -1.1104 9.4771 19.5981 9.4609
49 2 2.2208 13.7581 1.46708 2.40034
506 2 2.2208 2.43876 18.2232 13.59
444 2 2.2208 5.33654 9.79737 13.5503
472 2 2.2208 8.02834 12.6011 13.512
376 2 2.2208 5.39276 4.19936 13.7895
9279 2 2.2208 13.7536 4.2294 5.31359
408 2 2.2208 10.9889 -1.34441 13.6502
569 2 2.2208 -0.424822 1.42779 -0.227269
443 2 2.2208 2.52296 7.10712 13.618
706 2 2.2208 8.06208 21.154 -0.513307
682 2 2.2208 2.37288 15.4846 -0.481374
566 2 2.2208 5.25326 -4.19687 -0.297484
334 2 2.2208 5.27796 1.38163 16.6033
335 1 -1.1104 1.20209 -2.5375 17.9699
336 1 -1.1104 0.973475 3.09851 17.7983
339 1 -1.1104 1.0929 -2.7901 15.068
341 1 -1.1104 1.05893 2.88581 15.0356
347 1 -1.1104 1.12867 0.272068 17.8437
349 2 2.2208 5.29223 -1.39674 19.345
351 1 -1.1104 1.0766 -0.00997105 15.1702
355 1 -1.1104 3.93004 -2.7956 17.9354
356 1 -1.1104 3.93902 2.87465 17.8723
357 2 2.2208 2.47404 1.4845 19.3635
358 1 -1.1104 3.72318 -2.64877 15.1279
360 1 -1.1104 3.8213 2.81215 15.1647
362 2 2.2208 2.42936 -1.17158 16.5245
364 1 -1.1104 3.91661 0.0141955 18.1015
365 1 -1.1104 3.93002 0.14924 15.1964
350 2 2.2208 5.32111 4.26264 19.2055
363 2 2.2208 2.49827 4.34154 16.4587
352 1 -1.1104 1.0909 0.014654 20.8046
712 2 2.2208 13.7494 18.1462 24.8471
409 2 2.2208 11.0412 4.18202 13.7208
707 2 2.2208 10.8381 18.2481 27.7222
9720 2 2.2208 -0.318977 7.00761 16.392
368 2 2.2208 5.28176 -4.13773 16.5622
369 2 2.2208 2.54404 -4.06149 19.3094
371 2 2.2208 -0.34885 -1.31993 19.3342
567 2 2.2208 5.34858 -4.02657 22.0926
345 1 -1.1104 6.6137 2.72056 15.0614
338 1 -1.1104 6.79853 2.79142 17.7737
337 1 -1.1104 6.64914 -2.7025 17.9416
348 1 -1.1104 6.72195 0.0606921 17.9517
403 2 2.2208 8.04082 -4.24535 19.2929
343 1 -1.1104 6.72241 -2.81331 15.1615
353 1 -1.1104 6.73446 -0.0354594 15.0977
377 2 2.2208 10.8703 1.35314 16.3857
378 1 -1.1104 12.288 -2.66989 17.7693
379 1 -1.1104 12.3385 2.93322 17.8398
380 1 -1.1104 12.4163 -2.77323 14.8882
382 1 -1.1104 12.4726 2.68393 14.9939
384 1 -1.1104 12.2845 0.0958835 17.8433
385 2 2.2208 10.8728 -1.4895 19.3719
387 1 -1.1104 12.2914 -0.0813624 15.1586
389 1 -1.1104 9.41517 -2.73629 17.924
390 1 -1.1104 9.59527 2.98578 17.913
391 2 2.2208 8.23006 1.44364 19.4008
392 1 -1.1104 9.70248 -2.8846 14.9173
394 1 -1.1104 9.5491 2.86636 15.0435
396 2 2.2208 8.08802 -1.44966 16.5587
398 1 -1.1104 9.42513 -0.0099363 17.8097
399 1 -1.1104 9.54054 0.0979921 15.0397
397 2 2.2208 8.16433 4.2679 16.5031
386 2 2.2208 11.079 4.25894 19.1249
402 2 2.2208 11.0168 -4.20123 16.4336
565 2 2.2208 -0.402101 -4.04835 22.064
383 1 -1.1104 12.4241 2.86595 20.6799
692 1 -1.1104 9.55215 14.0483 26.1722
407 2 2.2208 8.10767 1.39643 13.6545
631 2 2.2208 -0.299681 12.6477 22.0202
681 2 2.2208 5.28574 18.2444 27.7129
9647 2 2.2208 -0.285397 4.29993 19.2336
410 2 2.2208 5.27079 7.022 16.3351
411 2 2.2208 5.22161 12.7584 16.4137
412 1 -1.1104 1.11074 8.44165 17.8107
414 1 -1.1104 1.0699 8.44793 14.9585
418 1 -1.1104 0.998927 5.83768 17.8607
419 1 -1.1104 1.26293 11.2548 17.8846
422 2 2.2208 5.39995 9.84141 19.2354
423 1 -1.1104 1.04363 5.6688 15.0973
425 1 -1.1104 1.0717 11.2168 15.0429
431 1 -1.1104 3.85582 8.36919 17.6764
432 2 2.2208 2.59049 7.19109 19.2844
433 2 2.2208 2.44438 12.6783 19.2921
434 1 -1.1104 3.97031 8.56539 14.8868
436 2 2.2208 2.57573 9.78327 16.3734
437 1 -1.1104 3.96734 5.7147 17.877
438 1 -1.1104 4.08984 11.3419 18.026
439 1 -1.1104 4.0003 5.68338 15.0549
441 1 -1.1104 3.95824 11.2638 14.9662
424 1 -1.1104 1.12067 5.82773 20.697
415 1 -1.1104 1.11371 8.40389 20.552
654 2 2.2208 13.6579 12.6248 24.9275
9719 2 2.2208 -0.290112 9.79785 19.1133
442 1 -1.1104 4.07373 11.2051 20.717
426 1 -1.1104 1.05257 11.2184 20.7002
698 2 2.2208 10.8233 20.9582 24.8459
430 1 -1.1104 6.81421 11.3196 20.6509
420 1 -1.1104 6.72816 5.5013 17.8342
416 1 -1.1104 6.70748 8.38365 15.0599
427 1 -1.1104 6.75143 5.64053 15.104
421 1 -1.1104 6.74052 11.3101 17.8263
429 1 -1.1104 6.7147 11.3074 14.9327
413 1 -1.1104 6.61664 8.38196 17.8439
446 2 2.2208 10.9978 7.04217 16.475
447 2 2.2208 10.8264 12.612 16.3692
448 1 -1.1104 12.422 8.42612 17.8686
449 1 -1.1104 12.2978 8.31241 14.9472
451 1 -1.1104 12.5143 5.70421 17.8337
452 1 -1.1104 12.2986 11.1521 17.8379
453 2 2.2208 10.9149 9.93159 19.1409
454 1 -1.1104 12.4298 5.45782 15.1179
456 1 -1.1104 12.2827 11.0562 14.9779
458 1 -1.1104 9.55657 8.5667 17.6395
459 2 2.2208 8.16621 6.93738 19.1697
460 2 2.2208 8.0579 12.809 19.2404
461 1 -1.1104 9.53091 8.35882 14.8908
463 2 2.2208 8.03136 9.8605 16.3659
464 1 -1.1104 9.67784 5.61735 17.7501
465 1 -1.1104 9.55349 11.4012 17.8544
466 1 -1.1104 9.57342 5.68684 15.0823
468 1 -1.1104 9.4089 11.3174 15.0418
9751 2 2.2208 13.6867 21.027 16.4405
653 2 2.2208 10.9068 12.6106 27.594
417 1 -1.1104 6.70386 8.48185 20.5589
467 1 -1.1104 9.61038 5.50948 20.5517
680 2 2.2208 2.55544 21.11 27.7361
710 2 2.2208 13.6052 20.8945 27.6235
473 2 2.2208 5.32457 18.3398 16.3361
474 1 -1.1104 1.0781 14.0954 17.8756
475 1 -1.1104 0.922316 19.5967 17.6613
478 1 -1.1104 1.00168 14.095 15.1583
480 1 -1.1104 0.950368 19.7038 15.0414
486 1 -1.1104 0.997039 16.793 17.8604
488 2 2.2208 5.28664 15.4768 19.2717
489 2 2.2208 5.22766 21.0362 19.0831
490 1 -1.1104 0.96332 16.8009 14.9179
494 1 -1.1104 3.74748 14.0907 17.8157
495 1 -1.1104 3.75541 19.6708 17.7697
496 2 2.2208 2.42778 18.2474 19.0362
497 1 -1.1104 3.757 13.9337 15.0503
499 1 -1.1104 3.80962 19.6601 15.0631
501 2 2.2208 2.37004 15.5226 16.4129
502 2 2.2208 2.34649 21.0691 16.2983
503 1 -1.1104 3.92459 16.8188 17.8199
504 1 -1.1104 3.69459 16.853 15.0858
479 1 -1.1104 1.10053 14.1611 20.688
484 1 -1.1104 6.52404 19.7455 14.8104
492 1 -1.1104 6.64228 16.8887 14.9947
477 1 -1.1104 6.6719 19.6646 17.7921
487 1 -1.1104 6.70279 16.8345 17.8344
476 1 -1.1104 6.67003 14.1022 17.8833
485 1 -1.1104 6.54394 19.708 20.6469
491 1 -1.1104 0.955557 16.9498 20.5872
505 1 -1.1104 3.8255 16.914 20.5527
481 1 -1.1104 1.06053 19.7257 20.3972
9790 2 2.2208 -0.392284 15.681 19.3052
482 1 -1.1104 6.5936 14.0778 14.9069
509 2 2.2208 10.7426 18.2943 16.5858
510 1 -1.1104 12.2677 13.9304 17.6572
511 1 -1.1104 12.1741 19.5793 17.8437
512 1 -1.1104 12.2513 14.0352 14.8121
514 1 -1.1104 12.2141 19.6535 15.0607
516 1 -1.1104 12.3292 16.6429 17.974
517 2 2.2208 10.9202 15.3257 19.1469
518 2 2.2208 10.7898 21.022 19.307
519 1 -1.1104 12.1057 16.8105 15.0354
521 1 -1.1104 9.47991 14.0933 17.7549
522 1 -1.1104 9.29086 19.6249 18.0046
523 2 2.2208 7.91064 18.2846 19.2462
524 1 -1.1104 9.47458 14.2433 15.0099
526 1 -1.1104 9.44541 19.5889 15.0945
528 2 2.2208 8.13001 15.4518 16.3202
529 2 2.2208 8.12345 21.101 16.3984
530 1 -1.1104 9.50268 16.8093 17.8597
531 1 -1.1104 9.44985 16.9242 15.0724
513 1 -1.1104 12.2475 13.995 20.5728
525 1 -1.1104 9.39089 14.1203 20.5758
515 1 -1.1104 12.2081 19.5283 20.6897
520 1 -1.1104 12.3052 16.8525 20.686
483 1 -1.1104 6.60722 14.2036 20.7156
690 2 2.2208 8.08989 15.4561 22.0299
689 2 2.2208 7.96144 21.0519 22.1237
9791 2 2.2208 -0.477502 18.2401 16.3957
652 2 2.2208 8.11374 9.88894 27.6345
361 1 -1.1104 3.80355 2.95658 20.6352
340 1 -1.1104 1.12716 -2.7407 20.6213
344 1 -1.1104 6.65891 -2.71001 20.5559
568 2 2.2208 2.3771 -4.21417 24.8983
700 1 -1.1104 12.1837 16.8388 23.4325
571 2 2.2208 -0.393696 1.47902 22.0808
366 1 -1.1104 3.9357 -0.0130634 20.8164
359 1 -1.1104 3.8321 -2.81264 20.8534
346 1 -1.1104 6.73394 2.83912 20.8116
342 1 -1.1104 1.10723 2.905 20.6138
537 2 2.2208 5.33129 1.41271 22.1813
538 1 -1.1104 1.03815 -2.60823 23.5732
539 1 -1.1104 1.00533 2.88867 23.4668
542 1 -1.1104 1.01105 -2.80223 26.3654
543 1 -1.1104 1.1425 2.95518 26.2869
546 1 -1.1104 1.20748 0.192672 23.5889
548 2 2.2208 5.32501 -1.34104 25.036
550 1 -1.1104 1.05885 0.031566 26.4382
552 1 -1.1104 4.00472 -2.81715 23.7362
553 1 -1.1104 3.98133 2.82025 23.442
554 2 2.2208 2.45374 1.51413 25.042
555 1 -1.1104 4.09598 -2.77235 26.476
556 1 -1.1104 3.89993 2.90735 26.3004
557 2 2.2208 2.49391 -1.16455 22.2615
558 2 2.2208 2.64265 4.31504 22.076
559 1 -1.1104 4.01732 0.0682082 23.5708
560 1 -1.1104 3.82755 0.0397712 26.3775
549 2 2.2208 5.32221 4.34984 24.962
547 1 -1.1104 6.72166 0.0830222 23.5735
551 1 -1.1104 6.70157 -0.0141027 26.4067
545 1 -1.1104 6.64728 2.84342 26.3274
697 1 -1.1104 12.3225 16.6705 26.2969
596 2 2.2208 10.9249 -4.11298 22.1312
597 2 2.2208 8.0205 -4.19344 24.9132
388 1 -1.1104 12.2506 0.0153325 20.6307
381 1 -1.1104 12.3331 -2.8804 20.7933
563 2 2.2208 2.57281 4.23291 27.6862
667 1 -1.1104 6.75568 14.1037 23.5759
354 1 -1.1104 6.73713 0.0984533 20.7885
400 1 -1.1104 9.50014 0.00120885 20.7184
395 1 -1.1104 9.62559 2.85435 20.6703
393 1 -1.1104 9.56339 -2.80545 20.619
540 1 -1.1104 6.78453 -2.66415 23.4944
544 1 -1.1104 6.74176 -2.76207 26.3938
541 1 -1.1104 6.67862 2.81979 23.454
573 2 2.2208 10.8772 1.39546 22.1492
574 1 -1.1104 12.3108 -2.65173 23.5148
575 1 -1.1104 12.282 2.87432 23.3852
576 1 -1.1104 12.3981 -2.8063 26.3099
577 1 -1.1104 12.1908 2.92146 26.3167
578 1 -1.1104 12.3786 -0.0075681 23.7138
579 2 2.2208 10.9228 -1.27995 24.907
581 1 -1.1104 12.1905 -0.0123408 26.6026
582 1 -1.1104 9.5675 -2.71714 23.3148
583 1 -1.1104 9.4218 2.84041 23.5419
584 2 2.2208 8.13762 1.44532 24.8724
585 1 -1.1104 9.52909 -2.70304 26.309
586 1 -1.1104 9.43796 2.84203 26.1828
587 2 2.2208 8.08229 -1.27663 22.0889
588 2 2.2208 8.0578 4.25468 22.1488
589 1 -1.1104 9.56355 0.00534697 23.3703
590 1 -1.1104 9.42339 0.150944 26.1431
580 2 2.2208 10.7858 4.26567 24.7693
658 1 -1.1104 6.62509 14.0265 26.494
9898 2 2.2208 -0.192951 7.04443 22.0987
572 2 2.2208 -0.201448 4.20358 24.7585
704 1 -1.1104 12.2773 14.0417 23.5076
696 1 -1.1104 9.51059 14.1211 23.4804
428 1 -1.1104 6.65142 5.72641 20.5527
440 1 -1.1104 3.95893 5.68913 20.7425
435 1 -1.1104 3.95605 8.4874 20.6474
602 2 2.2208 5.36355 7.06261 22.0607
603 2 2.2208 5.29647 12.769 22.0955
604 1 -1.1104 1.0851 8.49513 23.5455
606 1 -1.1104 1.16948 8.54517 26.2248
608 1 -1.1104 1.21982 5.65436 23.3584
609 1 -1.1104 1.11938 11.3184 23.3589
612 2 2.2208 5.24625 9.8544 24.9368
613 1 -1.1104 1.23452 5.71501 26.1803
614 1 -1.1104 1.1087 11.3411 26.1777
617 1 -1.1104 4.05798 8.40677 23.4802
618 2 2.2208 2.51458 7.07571 24.803
619 2 2.2208 2.45958 12.759 24.9014
620 1 -1.1104 3.91836 8.52155 26.319
621 2 2.2208 2.55518 9.79882 22.0982
622 1 -1.1104 3.95037 5.65017 23.5247
623 1 -1.1104 3.81817 11.2094 23.5364
624 1 -1.1104 3.80073 5.5918 26.2743
625 1 -1.1104 3.92734 11.2312 26.2712
605 1 -1.1104 6.79215 8.59 23.4323
626 2 2.2208 5.25902 7.02879 27.6625
705 2 2.2208 10.7651 18.3106 22.0607
469 1 -1.1104 9.51247 11.2712 20.6017
611 1 -1.1104 6.58793 11.28 23.4743
607 1 -1.1104 6.6788 8.4381 26.2211
616 1 -1.1104 6.66664 11.3279 26.1738
457 1 -1.1104 12.3253 11.2707 20.6624
450 1 -1.1104 12.1582 8.5079 20.5573
455 1 -1.1104 12.3294 5.69265 20.663
462 1 -1.1104 9.4324 8.4648 20.469
615 1 -1.1104 6.65328 5.75105 26.1186
610 1 -1.1104 6.70729 5.64729 23.3415
633 1 -1.1104 9.38558 11.2411 26.2232
634 1 -1.1104 9.49004 5.75917 26.1937
635 1 -1.1104 9.52044 11.321 23.3632
636 1 -1.1104 9.55154 5.73707 23.3596
637 2 2.2208 7.98008 9.93807 21.9347
638 1 -1.1104 9.60454 8.44322 26.2817
639 2 2.2208 8.04472 12.6633 24.9523
640 2 2.2208 8.097 7.11627 24.7533
641 2 2.2208 10.9226 7.12348 21.9433
642 2 2.2208 10.8233 12.6395 22.0572
643 1 -1.1104 12.3876 8.42744 23.4759
644 1 -1.1104 12.5267 8.30992 26.2466
645 1 -1.1104 12.2703 5.69629 23.4091
646 1 -1.1104 12.2659 11.1909 23.4117
647 2 2.2208 10.8481 9.78315 24.9009
648 1 -1.1104 12.3112 5.50735 26.2787
649 1 -1.1104 12.2029 11.2509 26.2502
650 1 -1.1104 9.54119 8.44762 23.3767
401 2 2.2208 13.7499 -4.22883 19.376
493 1 -1.1104 6.61821 16.713 20.7167
500 1 -1.1104 3.84193 19.6765 20.455
498 1 -1.1104 3.77643 13.8708 20.6636
675 1 -1.1104 6.72115 16.8747 23.5449
669 1 -1.1104 1.03881 14.1442 23.4492
678 2 2.2208 2.40679 21.107 21.9129
677 1 -1.1104 3.83088 17.0564 23.3933
671 1 -1.1104 3.94062 19.7559 26.1875
676 1 -1.1104 1.00254 16.8787 23.3973
679 2 2.2208 2.3227 15.5661 22.0447
672 2 2.2208 2.48842 18.3471 24.7721
673 1 -1.1104 3.7544 16.8555 26.1982
674 1 -1.1104 3.74352 14.0463 26.3095
670 2 2.2208 5.21931 18.3122 22.0034
657 1 -1.1104 3.76087 19.6434 23.297
659 1 -1.1104 3.87436 14.2135 23.5746
661 1 -1.1104 1.11328 19.7503 26.1587
662 1 -1.1104 0.979313 16.9258 26.2131
663 1 -1.1104 0.855545 14.1025 26.3318
665 2 2.2208 5.20987 21.1204 24.7999
666 2 2.2208 5.13767 15.5455 24.9274
668 1 -1.1104 0.980451 19.6573 23.3042
660 1 -1.1104 6.66283 16.8161 26.4865
628 2 2.2208 5.23594 12.6572 27.7121
592 2 2.2208 8.13825 -1.3744 27.8621
627 2 2.2208 2.38589 9.95957 27.6819
702 1 -1.1104 12.2305 13.9768 26.2957
708 2 2.2208 8.06171 15.421 27.7522
699 2 2.2208 10.8605 15.5304 24.7909
691 1 -1.1104 9.36541 19.6654 26.2628
664 1 -1.1104 6.47208 19.5699 23.5352
693 1 -1.1104 6.5851 19.5568 26.2917
687 1 -1.1104 9.43655 16.9116 26.3137
527 1 -1.1104 9.35825 19.7597 20.6999
703 1 -1.1104 12.2249 19.5163 23.5308
688 1 -1.1104 9.37091 17.008 23.4399
694 2 2.2208 8.00336 18.1159 24.9756
695 1 -1.1104 9.39892 19.7154 23.5025
701 1 -1.1104 12.1879 19.6782 26.3076
532 1 -1.1104 9.4518 16.9005 20.6406
632 2 2.2208 -0.266988 7.04618 27.7381
405 2 2.2208 13.7467 -1.34756 16.4745
601 2 2.2208 13.6408 4.37476 27.7276
406 2 2.2208 13.7131 -4.10566 13.6078
656 2 2.2208 13.8099 7.05647 24.8116
9870 2 2.2208 13.7625 9.94751 22.0395
9750 2 2.2208 13.67 18.2484 19.202
9685 2 2.2208 -0.232219 12.6639 16.5134
655 2 2.2208 13.8063 9.77818 27.6903
570 2 2.2208 -0.363598 -1.28575 24.9555
370 2 2.2208 -0.412038 1.51747 16.4648
561 2 2.2208 5.40741 1.36449 27.7621
562 2 2.2208 2.448 -1.35059 27.7895
651 2 2.2208 10.9284 7.11979 27.6086
593 2 2.2208 7.99081 4.32323 27.6485
595 2 2.2208 10.8329 -4.21578 27.7923
470 2 2.2208 8.16796 6.8616 13.6376
373 2 2.2208 2.48343 -3.93362 13.5588
684 2 2.2208 -0.351668 18.3131 27.4778
404 2 2.2208 8.17692 -4.14025 13.6779
9651 2 2.2208 -0.355198 4.20142 13.5372
598 2 2.2208 13.7088 -1.41495 27.7568
714 2 2.2208 5.28402 23.8803 5.15651
715 2 2.2208 5.24565 29.3362 5.21634
716 1 -1.1104 0.95379 25.2141 1.12611
717 1 -1.1104 0.966793 25.1457 3.8281
718 1 -1.1104 1.01744 22.5459 0.917614
719 1 -1.1104 1.05323 28.0431 1.06507
720 2 2.2208 5.20365 26.6235 2.33339
721 1 -1.1104 1.07731 22.2539 3.85211
722 1 -1.1104 1.03658 28.1309 3.82455
723 1 -1.1104 3.79154 25.2873 0.940871
724 2 2.2208 2.60271 23.8551 2.31062
725 2 2.2208 2.4617 29.547 2.49171
726 1 -1.1104 3.85683 25.3043 3.66943
727 2 2.2208 2.37688 26.6403 5.15141
728 1 -1.1104 3.918 22.3233 1.03025
729 1 -1.1104 3.79616 28.1232 1.07129
730 1 -1.1104 3.89518 22.3997 3.8148
731 1 -1.1104 3.68027 28.1169 3.77887
1638 1 -1.1104 9.51559 47.7261 9.28255
1028 2 2.2208 11.0293 46.4854 10.9224
1016 1 -1.1104 12.2269 39.2766 9.49851
855 1 -1.1104 0.99581 25.1784 6.53137
857 1 -1.1104 0.920346 22.4731 6.63586
1005 2 2.2208 -0.337433 40.6702 10.7371
733 2 2.2208 -0.418171 23.9329 5.21223
859 1 -1.1104 6.78094 22.3043 6.82872
738 1 -1.1104 6.61215 27.9163 0.901391
736 1 -1.1104 6.75528 25.2409 3.74714
737 1 -1.1104 6.64178 22.4208 1.15838
735 1 -1.1104 6.65993 25.1054 1.02267
739 1 -1.1104 6.66281 22.4135 3.95458
740 1 -1.1104 6.50562 27.9348 3.71924
741 2 2.2208 10.9975 23.7942 5.28619
742 2 2.2208 10.9807 29.5129 5.21976
743 1 -1.1104 12.3427 25.1904 0.896169
744 1 -1.1104 12.2582 25.255 3.61159
745 1 -1.1104 12.3339 22.531 0.935499
746 1 -1.1104 12.3332 28.0134 0.892636
747 2 2.2208 10.9885 26.6158 2.24375
748 1 -1.1104 12.537 22.4795 3.92435
749 1 -1.1104 12.3527 28.01 3.75281
750 1 -1.1104 9.42505 25.1816 0.912027
751 2 2.2208 8.19689 23.7993 2.42194
752 2 2.2208 8.04299 29.3661 2.4321
753 1 -1.1104 9.584 25.2084 3.84409
754 2 2.2208 8.10379 26.7059 5.14743
755 1 -1.1104 9.51721 22.3153 1.05043
756 1 -1.1104 9.43116 28.0788 0.954277
757 1 -1.1104 9.76625 22.4449 3.87354
758 1 -1.1104 9.38499 27.9823 3.73284
891 1 -1.1104 9.53379 25.1506 6.68116
860 1 -1.1104 6.77072 28.0131 6.54297
893 1 -1.1104 9.45111 28.0644 6.43908
1629 1 -1.1104 12.5344 47.5135 12.3242
1623 1 -1.1104 9.31089 47.6028 6.50017
762 2 2.2208 5.27814 35.0456 5.19947
763 1 -1.1104 1.06409 30.8816 1.05798
764 1 -1.1104 0.96219 36.4837 0.93069
766 1 -1.1104 1.04483 30.9391 3.81877
767 1 -1.1104 1.04526 36.5052 3.87937
769 1 -1.1104 1.0502 33.6792 1.07697
770 2 2.2208 5.27766 32.2123 2.34439
771 2 2.2208 5.20914 37.9843 2.31431
772 1 -1.1104 1.01645 33.6832 3.75462
774 1 -1.1104 3.97479 30.8944 0.943526
775 1 -1.1104 3.73019 36.512 1.13643
776 2 2.2208 2.4659 35.0727 2.42898
777 1 -1.1104 3.84291 30.898 3.77437
778 1 -1.1104 3.78398 36.7936 3.79861
779 2 2.2208 2.40399 32.3947 5.18477
780 2 2.2208 2.37353 37.926 5.20239
781 1 -1.1104 3.83331 33.6657 0.88142
782 1 -1.1104 3.85773 33.7604 3.83621
10361 2 2.2208 -0.389211 26.664 13.5035
916 1 -1.1104 1.00623 33.7243 6.71203
1439 1 -1.1104 12.2697 47.5409 3.7362
919 1 -1.1104 3.92191 36.381 6.59452
913 1 -1.1104 0.973687 36.4882 6.59785
920 1 -1.1104 3.71455 33.6401 6.52283
773 1 -1.1104 6.77839 33.5728 3.79319
765 1 -1.1104 6.57492 36.6437 1.07093
768 1 -1.1104 6.55704 36.317 3.84778
787 1 -1.1104 6.66173 30.7456 3.80682
786 1 -1.1104 6.77265 30.8748 0.909249
788 1 -1.1104 6.51964 33.6279 0.982444
789 2 2.2208 10.7957 34.9598 5.17165
790 1 -1.1104 12.2588 30.8134 1.00399
791 1 -1.1104 12.159 36.3832 0.93523
792 1 -1.1104 12.2267 31.0018 3.97474