ITEM: TIMESTEP
50000
ITEM: NUMBER OF ATOMS
17910
ITEM: BOX BOUNDS pp pp pp
-3.4995428035269421e-01 2.7689954280352126e+01
-4.3290328272688638e+00 3.3240903282727993e+02
-3.5465002338028095e-01 2.7694650023380486e+01
ITEM: ATOMS id type q x y z
1 2 2.2208 4.96105 1.15462 5.08397
2 1 -1.1104 1.04359 -3.0618 0.680685
3 1 -1.1104 0.750427 2.49543 0.822078
6 1 -1.1104 0.960175 -3.00302 3.53989
7 1 -1.1104 0.76138 2.49275 3.63547
10 1 -1.1104 0.839696 -0.180732 0.779685
12 2 2.2208 5.11095 -1.47462 2.16963
13 2 2.2208 4.99894 4.08097 2.18371
14 1 -1.1104 0.80531 -0.380767 3.683
16 1 -1.1104 3.74113 -2.79616 0.737675
17 1 -1.1104 3.60304 2.59789 0.842759
18 2 2.2208 2.24237 1.20981 2.20003
19 1 -1.1104 3.66653 -3.10973 3.64866
20 1 -1.1104 3.41823 2.62447 3.6199
21 2 2.2208 2.4109 -1.60368 5.13583
23 1 -1.1104 3.60779 -0.0980241 0.985339
24 1 -1.1104 3.77613 -0.181815 3.63815
22 2 2.2208 2.10358 3.93754 5.07844
11 1 -1.1104 6.48876 -0.156172 0.805944
166 1 -1.1104 0.979798 -2.90148 6.45309
8 1 -1.1104 6.45924 -3.00727 3.65019
167 1 -1.1104 0.798566 2.57619 6.41295
4 1 -1.1104 6.48768 -2.97991 0.829298
173 1 -1.1104 3.64343 2.48006 6.38254
15 1 -1.1104 6.54921 -0.0809031 3.66336
9 1 -1.1104 6.1822 2.77374 3.89763
172 1 -1.1104 3.60676 -3.00754 6.46253
174 1 -1.1104 3.62235 -0.174899 6.47739
5 1 -1.1104 6.29232 2.56664 0.927401
170 1 -1.1104 0.879112 -0.178162 6.60632
171 1 -1.1104 6.41996 -0.198293 6.37127
168 1 -1.1104 6.30732 -3.09335 6.45149
169 1 -1.1104 6.39609 2.71518 6.59619
31 2 2.2208 10.5555 1.23559 5.01776
32 1 -1.1104 12.0694 -3.09278 0.745058
33 1 -1.1104 11.9703 2.52558 0.890013
34 1 -1.1104 11.924 -2.99226 3.73143
35 1 -1.1104 12.1013 2.55256 3.76627
36 1 -1.1104 12.1491 -0.20851 0.698764
37 2 2.2208 10.6394 -1.64143 2.27671
38 2 2.2208 10.4137 3.94874 2.37054
39 1 -1.1104 11.9092 -0.181428 3.54458
40 1 -1.1104 9.28636 -3.18324 0.780019
41 1 -1.1104 9.23458 2.51089 0.818638
42 2 2.2208 7.79608 1.13995 2.15291
43 1 -1.1104 9.18446 -3.0066 3.60813
44 1 -1.1104 8.90481 2.50898 3.69194
45 2 2.2208 7.79898 -1.69217 5.06482
47 1 -1.1104 9.32144 -0.242483 0.837591
48 1 -1.1104 9.24554 -0.342485 3.76648
46 2 2.2208 7.60129 3.97698 5.05461
210 1 -1.1104 9.08284 -0.3047 6.60192
207 1 -1.1104 11.7964 -0.155654 6.39799
205 1 -1.1104 12.0699 -3.09033 6.48122
209 1 -1.1104 9.08299 2.61535 6.37376
9279 2 2.2208 13.4043 3.98524 5.12375
49 2 2.2208 13.4532 1.16891 2.23637
206 1 -1.1104 11.8241 2.63102 6.50428
50 2 2.2208 13.3959 -1.63759 5.15132
9414 2 2.2208 13.3369 3.93148 10.7722
208 1 -1.1104 9.23221 -3.04716 6.53854
104 2 2.2208 13.3829 12.2884 2.45101
54 2 2.2208 4.96558 6.81613 5.12722
55 2 2.2208 5.07212 12.4536 5.2333
56 1 -1.1104 0.722836 8.21471 1.01357
58 1 -1.1104 0.800018 8.19104 3.84588
60 1 -1.1104 0.74352 5.38648 0.797597
61 1 -1.1104 0.824994 11.0413 0.913521
66 2 2.2208 4.99248 9.6018 2.32332
67 1 -1.1104 0.621022 5.28034 3.65396
68 1 -1.1104 0.732417 11.0508 3.761
71 1 -1.1104 3.58567 8.31481 0.993976
72 2 2.2208 2.14862 6.79318 2.41724
73 2 2.2208 2.31265 12.4181 2.30697
74 1 -1.1104 3.62639 8.24568 3.65735
75 2 2.2208 2.27632 9.57108 5.16014
76 1 -1.1104 3.53372 5.4718 0.714111
77 1 -1.1104 3.68975 11.0568 0.927837
79 1 -1.1104 3.3946 5.40533 3.81704
80 1 -1.1104 3.63167 11.0505 3.96042
63 1 -1.1104 6.38706 5.40139 0.751267
239 1 -1.1104 3.49753 5.23035 6.54891
234 1 -1.1104 0.741492 8.08156 6.64268
238 1 -1.1104 3.56095 8.08468 6.58065
62 1 -1.1104 0.787746 10.9541 6.49221
237 1 -1.1104 6.33816 5.48102 6.27984
69 1 -1.1104 6.36455 5.55131 3.53576
57 1 -1.1104 6.35821 8.27227 0.886938
64 1 -1.1104 6.52848 11.0564 0.958142
70 1 -1.1104 6.49543 11.1496 3.8399
59 1 -1.1104 6.43675 8.23781 3.6653
235 1 -1.1104 6.38852 8.40341 6.47082
65 1 -1.1104 6.49602 11.2539 6.51324
78 1 -1.1104 3.56521 10.8788 6.69532
314 1 -1.1104 9.19297 16.6256 9.40054
9308 2 2.2208 13.4164 9.5633 5.16421
105 2 2.2208 13.325 6.79911 2.22168
84 2 2.2208 10.5925 6.68948 5.18198
85 2 2.2208 10.5871 12.4502 5.20903
86 1 -1.1104 11.8055 8.24437 1.0822
87 1 -1.1104 12.0293 8.22976 3.76814
88 1 -1.1104 11.7624 5.30385 0.846334
89 1 -1.1104 12.0411 11.1035 0.989884
91 2 2.2208 10.6674 9.59958 2.38457
92 1 -1.1104 11.8869 5.3723 3.65537
93 1 -1.1104 12.0894 11.0365 3.91023
94 1 -1.1104 9.12575 8.44029 0.79298
95 2 2.2208 7.88078 6.93095 2.17004
96 2 2.2208 7.79585 12.479 2.3297
97 1 -1.1104 9.22907 8.22823 3.86436
98 2 2.2208 7.88488 9.68531 5.14847
99 1 -1.1104 9.07972 5.50975 0.894095
100 1 -1.1104 9.16594 11.1538 1.04195
102 1 -1.1104 9.01911 5.43486 3.68623
103 1 -1.1104 9.33875 10.9762 3.76341
101 1 -1.1104 9.16739 10.9553 6.63088
266 1 -1.1104 12.0129 5.40792 6.45447
265 1 -1.1104 12.0726 8.07501 6.66868
267 1 -1.1104 9.33787 8.26709 6.48737
269 1 -1.1104 9.18761 5.42065 6.55686
90 1 -1.1104 12.067 10.9715 6.60227
106 2 2.2208 4.97557 18.2138 5.22338
107 1 -1.1104 0.756479 13.9792 1.05127
109 1 -1.1104 0.914826 19.6338 0.991922
113 1 -1.1104 0.910204 13.8266 3.82675
114 1 -1.1104 0.787632 19.4937 3.77118
116 1 -1.1104 0.837414 16.7147 1.17902
119 2 2.2208 5.05481 15.2943 2.45653
120 2 2.2208 5.14193 21.0454 2.28497
121 1 -1.1104 0.84484 16.7191 3.8939
123 1 -1.1104 3.60144 13.8892 0.889195
125 1 -1.1104 3.71858 19.478 1.06056
127 2 2.2208 2.29427 18.1558 2.42555
128 1 -1.1104 3.56114 13.9927 3.59829
129 1 -1.1104 3.57086 19.6465 3.82431
130 2 2.2208 2.28007 15.476 5.16901
131 2 2.2208 2.22133 20.9537 5.15829
132 1 -1.1104 3.70319 16.7612 1.16051
134 1 -1.1104 3.6004 16.8362 3.7909
302 1 -1.1104 0.7733 19.5401 6.56778
133 1 -1.1104 3.69976 16.7326 6.67319
122 1 -1.1104 6.39109 16.799 3.99134
139 1 -1.1104 6.41532 19.7802 3.75911
117 1 -1.1104 0.689765 16.7581 6.72551
108 1 -1.1104 0.789665 13.7969 6.61787
118 1 -1.1104 6.47086 16.5884 6.712
111 1 -1.1104 6.44973 13.9771 6.68047
140 1 -1.1104 6.59233 16.8473 0.97858
138 1 -1.1104 6.46743 19.6493 0.934471
112 1 -1.1104 6.4417 19.5118 6.60701
126 1 -1.1104 3.52978 19.5493 6.54425
124 1 -1.1104 3.76971 13.8223 6.53126
110 1 -1.1104 6.36803 13.9404 1.08527
115 1 -1.1104 6.3607 13.9062 3.84667
163 1 -1.1104 9.30324 16.7232 6.69888
149 1 -1.1104 11.9867 16.7185 6.67213
154 1 -1.1104 9.26618 13.9685 6.63784
141 2 2.2208 10.6692 18.0192 5.16479
142 1 -1.1104 12.0949 13.7533 0.939029
144 1 -1.1104 12.0648 19.4811 0.869446
146 1 -1.1104 12.0339 13.8126 3.73256
147 1 -1.1104 11.9284 19.4924 3.71012
148 1 -1.1104 12.1824 16.746 0.988701
150 2 2.2208 10.6342 15.3482 2.38121
151 2 2.2208 10.6412 20.9875 2.32312
152 1 -1.1104 12.0344 16.6228 3.77945
153 1 -1.1104 9.36812 13.9273 0.858571
155 1 -1.1104 9.27465 19.6891 1.07432
157 2 2.2208 7.8489 18.1705 2.4268
158 1 -1.1104 9.17087 13.7663 3.71055
159 1 -1.1104 9.19768 19.5604 3.8638
160 2 2.2208 7.94601 15.3412 5.30836
161 2 2.2208 7.89114 21.0217 5.1802
162 1 -1.1104 9.28227 16.7546 1.09029
164 1 -1.1104 9.27927 16.6125 3.94496
145 1 -1.1104 12.0658 19.4065 6.40603
143 1 -1.1104 12.1194 13.9862 6.5663
156 1 -1.1104 9.29571 19.6586 6.72356
9356 2 2.2208 13.415 20.9291 5.0859
165 2 2.2208 13.3826 18.0487 2.32412
175 2 2.2208 5.0875 1.22603 10.7589
176 1 -1.1104 0.812344 -3.08782 12.0942
177 1 -1.1104 0.770077 2.71087 12.0232
180 1 -1.1104 0.680192 -3.1327 9.31874
181 1 -1.1104 0.854106 2.51251 9.41768
184 1 -1.1104 0.768991 -0.251686 12.0111
186 2 2.2208 5.09642 -1.65709 7.84903
187 2 2.2208 5.03128 4.10236 7.84853
188 1 -1.1104 0.893515 -0.283957 9.35732
190 1 -1.1104 3.43386 -3.10439 11.9951
191 1 -1.1104 3.64524 2.65452 11.9807
192 2 2.2208 2.20706 1.20516 7.8986
193 1 -1.1104 3.50127 -3.12081 9.16303
194 1 -1.1104 3.71658 2.66559 9.27457
195 2 2.2208 2.15919 -1.60636 10.7265
196 2 2.2208 2.13309 4.15262 10.777
197 1 -1.1104 3.56243 -0.146097 12.0181
198 1 -1.1104 3.66309 -0.422591 9.34124
178 1 -1.1104 6.19836 -3.06321 12.156
182 1 -1.1104 6.48346 -3.07634 9.31609
189 1 -1.1104 6.46396 -0.200583 9.25815
374 2 2.2208 4.77759 -1.57255 13.5901
185 1 -1.1104 6.23332 -0.188846 12.0756
375 2 2.2208 2.0849 1.2905 13.3106
376 2 2.2208 5.0613 4.06574 13.6677
183 1 -1.1104 6.52748 2.56334 9.40245
179 1 -1.1104 6.39569 2.67796 12.201
409 2 2.2208 10.547 3.93067 13.5094
9608 2 2.2208 13.4168 1.15852 13.5898
230 2 2.2208 13.4212 -1.50514 10.5792
211 2 2.2208 10.6013 1.1446 10.6944
212 1 -1.1104 12.1169 -3.0853 12.0313
213 1 -1.1104 11.9572 2.51744 12.1517
214 1 -1.1104 12.0003 -2.94452 9.21392
215 1 -1.1104 12.0671 2.51513 9.45113
216 1 -1.1104 11.9519 -0.372099 12.0151
217 2 2.2208 10.5737 -1.63498 7.85028
219 1 -1.1104 12.0287 -0.162682 9.14104
220 1 -1.1104 9.16592 -3.04367 11.9824
221 1 -1.1104 9.16994 2.50569 12.195
222 2 2.2208 7.7829 1.10994 7.89151
223 1 -1.1104 9.18371 -3.1063 9.31882
224 1 -1.1104 9.16654 2.46688 9.25725
225 2 2.2208 7.76856 -1.63838 10.6946
226 2 2.2208 7.79672 4.00956 10.7475
227 1 -1.1104 9.13801 -0.119101 12.0725
228 1 -1.1104 9.25872 -0.196307 9.34643
218 2 2.2208 10.5746 3.94719 7.99932
9377 2 2.2208 13.3969 15.316 5.25911
9495 2 2.2208 13.3722 9.57762 10.8687
229 2 2.2208 13.3577 1.15353 7.81218
236 1 -1.1104 0.738637 5.37915 6.39463
240 2 2.2208 4.98544 6.8171 10.7266
241 2 2.2208 5.15185 12.425 10.8609
242 1 -1.1104 0.676559 8.30702 12.1414
244 1 -1.1104 0.903339 8.2166 9.43271
246 1 -1.1104 0.734313 5.46001 12.1348
247 1 -1.1104 0.933797 11.1511 12.2335
250 2 2.2208 5.10889 9.58847 7.9662
251 1 -1.1104 0.868147 5.25467 9.21659
252 1 -1.1104 0.80742 10.8994 9.21686
255 1 -1.1104 3.59422 8.09937 12.1973
256 2 2.2208 2.22222 6.76737 7.98229
257 2 2.2208 2.22851 12.4027 7.89869
258 1 -1.1104 3.7336 8.306 9.30871
259 2 2.2208 2.28268 9.62468 10.868
260 1 -1.1104 3.50647 5.45738 12.0934
261 1 -1.1104 3.53046 10.9092 12.1683
262 1 -1.1104 3.74715 5.51125 9.23482
263 1 -1.1104 3.74325 10.9945 9.30236
249 1 -1.1104 6.38944 10.9993 12.1786
245 1 -1.1104 6.49425 8.30625 9.31495
326 1 -1.1104 12.1762 16.7862 12.209
407 2 2.2208 7.72221 1.34106 13.5504
254 1 -1.1104 6.52477 11.0559 9.41832
253 1 -1.1104 6.44745 5.49429 9.1847
202 2 2.2208 2.16079 -4.3534 7.82751
248 1 -1.1104 6.35716 5.51532 12.1148
9491 2 2.2208 13.4042 12.3599 8.01744
533 2 2.2208 10.6146 20.8321 13.6216
9490 2 2.2208 13.304 6.77835 8.00867
470 2 2.2208 7.7244 6.9375 13.4947
243 1 -1.1104 6.35152 8.25014 12.1832
264 1 -1.1104 9.14566 11.0918 9.4686
268 1 -1.1104 9.21887 5.24166 9.25951
270 1 -1.1104 9.16486 11.0195 12.3415
271 1 -1.1104 9.07524 5.33521 12.1777
272 2 2.2208 7.87253 9.59801 10.7869
273 1 -1.1104 9.34061 7.98241 9.1535
274 2 2.2208 7.82974 12.5265 8.05022
275 2 2.2208 7.89732 6.73502 7.87559
276 2 2.2208 10.6238 6.74827 10.7659
277 2 2.2208 10.5704 12.5615 10.7966
278 1 -1.1104 11.9488 8.28134 12.2813
279 1 -1.1104 12.0853 8.12764 9.36975
280 1 -1.1104 11.9719 5.47795 12.212
281 1 -1.1104 11.9379 10.9886 12.2484
282 2 2.2208 10.6444 9.59323 7.89535
283 1 -1.1104 12.1927 5.27047 9.37822
284 1 -1.1104 11.9636 10.9128 9.39327
285 1 -1.1104 9.22816 8.3296 12.1091
408 2 2.2208 10.5112 -1.62577 13.3219
9677 2 2.2208 13.3757 6.87091 13.7008
320 2 2.2208 7.88262 18.196 8.03978
296 1 -1.1104 6.37483 19.5456 12.3296
289 1 -1.1104 6.26739 16.7393 9.46372
306 1 -1.1104 6.43729 16.6303 12.1865
286 1 -1.1104 3.60722 19.5502 12.2157
287 1 -1.1104 3.72339 13.7057 12.2228
291 1 -1.1104 0.759498 19.5266 9.31769
292 1 -1.1104 0.703493 16.5893 9.51021
293 2 2.2208 4.98457 20.8941 8.03562
294 1 -1.1104 0.789291 13.8077 9.45023
295 2 2.2208 5.02011 15.3152 8.06548
298 1 -1.1104 0.678474 19.493 12.1122
299 1 -1.1104 0.800527 13.9828 12.3064
300 2 2.2208 5.04722 18.1564 10.8909
301 1 -1.1104 3.61564 19.4907 9.41456
303 2 2.2208 2.2305 18.1146 7.99738
304 1 -1.1104 3.49167 16.5708 9.39914
305 1 -1.1104 3.43942 13.7943 9.53046
307 1 -1.1104 0.824677 16.7263 12.2699
308 1 -1.1104 3.52351 16.7178 12.0954
309 2 2.2208 2.07391 20.8187 10.759
310 2 2.2208 2.18278 15.2573 10.7577
297 1 -1.1104 6.41522 13.8463 12.1785
329 1 -1.1104 11.947 19.4306 12.1128
508 2 2.2208 4.95327 15.2739 13.5694
506 2 2.2208 2.2475 18.0892 13.6513
331 2 2.2208 10.656 17.9569 10.6984
315 1 -1.1104 9.2598 16.6536 12.1389
327 1 -1.1104 12.0512 19.4088 9.31995
323 1 -1.1104 12.1036 16.6523 9.49894
325 2 2.2208 10.5926 15.3155 8.02272
9541 2 2.2208 13.4401 20.8344 10.9238
328 1 -1.1104 12.071 13.8402 9.32559
534 2 2.2208 10.5462 15.1517 13.6711
318 1 -1.1104 9.14143 19.418 9.56313
288 1 -1.1104 6.34463 19.6416 9.44545
535 2 2.2208 7.78664 18.0474 13.6068
321 1 -1.1104 9.07332 19.5753 12.3322
316 2 2.2208 7.72265 20.9578 10.9213
290 1 -1.1104 6.33982 13.7703 9.45058
333 2 2.2208 13.4268 15.2828 10.9644
324 2 2.2208 10.7016 20.9863 7.98594
317 2 2.2208 7.77084 15.2983 10.8426
322 1 -1.1104 9.25307 13.7415 12.1941
319 1 -1.1104 9.25379 13.9346 9.47518
330 1 -1.1104 12.0518 13.9411 12.129
332 2 2.2208 13.4681 18.051 8.13112
711 2 2.2208 13.4293 15.3409 -0.35429
536 2 2.2208 13.4575 18.1685 13.5809
682 2 2.2208 2.19821 15.2712 -0.320063
443 2 2.2208 2.1328 6.76915 13.4691
444 2 2.2208 4.93626 9.63237 13.6199
9682 2 2.2208 13.361 12.4622 13.4187
334 2 2.2208 4.81673 1.14712 16.3542
335 1 -1.1104 0.749286 -3.07935 17.6451
336 1 -1.1104 0.722245 2.51557 17.7386
339 1 -1.1104 0.754196 -3.05537 14.7854
341 1 -1.1104 0.720738 2.55398 14.7995
347 1 -1.1104 0.787601 -0.213179 17.5093
349 2 2.2208 4.89481 -1.566 19.0358
351 1 -1.1104 0.714967 -0.226794 14.7039
355 1 -1.1104 3.60916 -3.0131 17.7444
356 1 -1.1104 3.52141 2.64808 17.7499
357 2 2.2208 2.19316 1.08888 19.1073
358 1 -1.1104 3.38035 -2.91654 14.8507
360 1 -1.1104 3.60093 2.67266 14.9127
362 2 2.2208 2.18311 -1.65179 16.3665
363 2 2.2208 2.15423 4.00042 16.4114
364 1 -1.1104 3.65655 -0.259602 17.7286
365 1 -1.1104 3.4299 -0.137279 14.9132
350 2 2.2208 4.91585 4.04766 19.1871
348 1 -1.1104 6.35332 -0.240338 17.7136
344 1 -1.1104 6.45386 -3.1159 20.5583
338 1 -1.1104 6.47917 2.66885 17.9533
343 1 -1.1104 6.15149 -2.88944 15.0261
359 1 -1.1104 3.64924 -2.97517 20.431
342 1 -1.1104 0.731506 2.52921 20.5661
340 1 -1.1104 0.926642 -3.08376 20.3118
352 1 -1.1104 0.81619 -0.363054 20.3781
353 1 -1.1104 6.31187 -0.128346 14.8476
354 1 -1.1104 6.34029 -0.195502 20.4828
361 1 -1.1104 3.55647 2.70887 20.5884
346 1 -1.1104 6.36434 2.49029 20.4987
337 1 -1.1104 6.29688 -3.01906 17.7155
345 1 -1.1104 6.32722 2.77702 15.0896
366 1 -1.1104 3.58915 -0.100904 20.3779
377 2 2.2208 10.6031 1.19612 16.3462
378 1 -1.1104 11.7026 -3.16769 17.7147
379 1 -1.1104 12.0849 2.62309 17.8973
380 1 -1.1104 11.9486 -3.02506 14.9018
382 1 -1.1104 11.9602 2.52255 15.0764
384 1 -1.1104 12.1128 -0.222303 17.6912
385 2 2.2208 10.5786 -1.5526 19.1124
387 1 -1.1104 11.9395 -0.213561 14.9248
389 1 -1.1104 8.95026 -3.04428 17.5373
390 1 -1.1104 9.22193 2.65254 17.7098
391 2 2.2208 7.8205 1.20108 19.0763
392 1 -1.1104 9.10834 -3.00948 14.8066
394 1 -1.1104 9.16631 2.55618 14.899
396 2 2.2208 7.73047 -1.58201 16.2543
398 1 -1.1104 9.26769 -0.119802 17.6811
399 1 -1.1104 9.10733 -0.204007 14.8961
397 2 2.2208 7.7712 4.01715 16.4409
386 2 2.2208 10.5431 3.99283 19.1359
400 1 -1.1104 9.24663 -0.177886 20.4157
388 1 -1.1104 12.0904 -0.383094 20.4326
395 1 -1.1104 9.08027 2.56135 20.4556
381 1 -1.1104 11.9858 -2.97018 20.616
383 1 -1.1104 11.9433 2.66178 20.3833
9604 2 2.2208 13.4158 3.96633 16.3058
405 2 2.2208 13.3942 -1.57597 16.3544
9610 2 2.2208 13.4601 1.14884 19.2558
393 1 -1.1104 9.20104 -2.9642 20.3646
410 2 2.2208 4.90859 6.92029 16.3938
411 2 2.2208 5.00771 12.5197 16.4506
412 1 -1.1104 0.712784 8.08432 17.921
414 1 -1.1104 0.677339 8.02096 14.809
418 1 -1.1104 0.673618 5.27719 17.7016
419 1 -1.1104 0.691534 10.9644 17.8108
422 2 2.2208 4.95215 9.61158 19.2567
423 1 -1.1104 0.798092 5.27121 14.964
425 1 -1.1104 0.960049 11.0018 15.0627
431 1 -1.1104 3.58919 8.13464 17.8498
432 2 2.2208 2.25792 6.73815 19.2654
433 2 2.2208 2.2537 12.4658 19.3235
434 1 -1.1104 3.54531 8.2234 15.1304
436 2 2.2208 2.11855 9.56819 16.5318
437 1 -1.1104 3.40349 5.40704 17.7727
438 1 -1.1104 3.50637 11.0905 18.0857
439 1 -1.1104 3.56336 5.49967 14.9561
441 1 -1.1104 3.65493 11.0049 15.0938
427 1 -1.1104 6.4786 5.53517 15.0739
415 1 -1.1104 0.588482 8.26612 20.6326
442 1 -1.1104 3.59173 11.0153 20.7509
413 1 -1.1104 6.44633 8.20727 17.9562
416 1 -1.1104 6.32897 8.34853 15.0127
435 1 -1.1104 3.4821 8.26594 20.5572
428 1 -1.1104 6.50469 5.30986 20.5954
420 1 -1.1104 6.25133 5.41713 17.7782
426 1 -1.1104 0.82068 11.1756 20.8073
417 1 -1.1104 6.40697 8.17878 20.6849
421 1 -1.1104 6.33062 10.9748 17.7902
440 1 -1.1104 3.68806 5.38573 20.572
424 1 -1.1104 0.819535 5.40058 20.5566
713 2 2.2208 13.4727 15.231 22.0682
654 2 2.2208 13.3528 12.5938 24.8193
429 1 -1.1104 6.45886 11.2997 15.1108
430 1 -1.1104 6.41074 11.0662 20.5815
446 2 2.2208 10.565 6.79599 16.2397
447 2 2.2208 10.7554 12.433 16.3757
448 1 -1.1104 12.1198 8.20884 17.6816
449 1 -1.1104 11.8913 8.17701 14.9311
451 1 -1.1104 11.9541 5.27253 17.602
452 1 -1.1104 12.0184 11.0254 17.7941
453 2 2.2208 10.6305 9.61249 19.2255
454 1 -1.1104 11.9404 5.3061 14.8727
456 1 -1.1104 12.0567 10.8306 15.0783
458 1 -1.1104 9.30197 8.25158 17.7417
459 2 2.2208 7.77861 6.84118 19.1443
460 2 2.2208 7.86471 12.4912 19.2319
461 1 -1.1104 9.11062 8.1441 15.0527
463 2 2.2208 7.75758 9.53455 16.4477
464 1 -1.1104 9.05942 5.56975 17.7491
465 1 -1.1104 9.33254 11.1416 17.8267
466 1 -1.1104 9.22089 5.35551 14.9033
468 1 -1.1104 9.26594 11.0751 15.049
469 1 -1.1104 9.12289 11.0471 20.6546
467 1 -1.1104 9.20464 5.56588 20.6924
450 1 -1.1104 12.0071 8.29704 20.7552
462 1 -1.1104 9.09301 8.32723 20.5711
457 1 -1.1104 12.0877 11.1427 20.4966
455 1 -1.1104 11.9117 5.40394 20.5213
9678 2 2.2208 13.4354 9.51069 16.3479
9679 2 2.2208 13.3654 6.84024 19.1617
473 2 2.2208 5.00974 18.1048 16.4778
474 1 -1.1104 0.875992 13.8586 17.8109
475 1 -1.1104 0.823304 19.4023 17.9516
478 1 -1.1104 0.721602 13.8422 14.9132
480 1 -1.1104 0.795908 19.4559 15.1078
486 1 -1.1104 0.839636 16.4349 17.904
488 2 2.2208 5.06529 15.3199 19.2717
489 2 2.2208 5.01296 20.7911 19.2077
490 1 -1.1104 0.777045 16.6882 15.1234
494 1 -1.1104 3.7149 13.816 17.957
495 1 -1.1104 3.65953 19.3988 17.7247
496 2 2.2208 2.22868 18.1028 19.3273
497 1 -1.1104 3.51242 13.8385 15.0875
499 1 -1.1104 3.51937 19.6332 14.9293
501 2 2.2208 2.23177 15.3307 16.3811
502 2 2.2208 2.18369 20.8251 16.4995
503 1 -1.1104 3.4568 16.5985 17.8648
504 1 -1.1104 3.51308 16.8255 15.0673
482 1 -1.1104 6.48067 14.003 14.9895
500 1 -1.1104 3.61823 19.4627 20.6703
498 1 -1.1104 3.55613 13.8975 20.691
479 1 -1.1104 0.87401 13.9584 20.7056
476 1 -1.1104 6.3848 13.859 17.8676
492 1 -1.1104 6.39358 16.6925 14.9883
491 1 -1.1104 1.00669 16.8281 20.6281
481 1 -1.1104 0.849878 19.5736 20.8713
505 1 -1.1104 3.7259 16.7014 20.684
483 1 -1.1104 6.29477 13.9044 20.6402
485 1 -1.1104 6.33956 19.4167 20.598
596 2 2.2208 10.6299 -4.28288 21.9443
9751 2 2.2208 13.4628 20.9456 16.5256
493 1 -1.1104 6.43336 16.652 20.6831
484 1 -1.1104 6.3908 19.4497 15.0639
487 1 -1.1104 6.38584 16.5357 17.8856
477 1 -1.1104 6.40855 19.5053 17.831
509 2 2.2208 10.4522 17.993 16.3711
510 1 -1.1104 11.9363 13.8633 17.8807
511 1 -1.1104 11.8972 19.464 17.7796
512 1 -1.1104 12.0529 13.7905 14.9599
514 1 -1.1104 11.987 19.4734 14.9377
516 1 -1.1104 11.9984 16.6869 17.9454
517 2 2.2208 10.7472 15.3156 19.3522
518 2 2.2208 10.5555 20.8223 19.251
519 1 -1.1104 12.0406 16.676 15.0062
521 1 -1.1104 9.21888 13.9475 17.95
522 1 -1.1104 9.12049 19.4691 17.9484
523 2 2.2208 7.75894 18.011 19.4074
524 1 -1.1104 9.31468 13.7579 15.0214
526 1 -1.1104 9.20207 19.4188 15.0675
528 2 2.2208 7.81212 15.2227 16.5109
529 2 2.2208 7.78223 20.8582 16.4521
530 1 -1.1104 9.13843 16.7012 17.82
531 1 -1.1104 9.0869 16.5609 15.0033
513 1 -1.1104 12.1541 13.9291 20.5994
532 1 -1.1104 9.20194 16.6816 20.7307
527 1 -1.1104 9.19421 19.4381 20.6097
520 1 -1.1104 12.0315 16.7619 20.8349
525 1 -1.1104 9.22668 13.8508 20.7549
515 1 -1.1104 12.0452 19.5303 20.6041
9750 2 2.2208 13.2802 18.0797 19.2959
712 2 2.2208 13.479 18.0923 24.662
708 2 2.2208 7.89988 15.341 27.5937
537 2 2.2208 4.90778 1.23108 21.8886
538 1 -1.1104 0.789106 -3.14149 23.1663
539 1 -1.1104 0.862391 2.54934 23.3938
542 1 -1.1104 0.96639 -2.96243 25.7574
543 1 -1.1104 0.719947 2.42782 26.0031
546 1 -1.1104 0.852765 -0.198378 23.2971
548 2 2.2208 5.1177 -1.60396 24.6099
549 2 2.2208 5.0824 3.99945 24.6707
550 1 -1.1104 0.896288 -0.289796 26.1364
552 1 -1.1104 3.538 -3.02105 23.2044
553 1 -1.1104 3.62133 2.59488 23.1524
554 2 2.2208 2.1839 1.09564 24.7359
555 1 -1.1104 3.71397 -2.99321 25.9682
556 1 -1.1104 3.69305 2.53135 26.0772
557 2 2.2208 2.18049 -1.69162 21.8883
558 2 2.2208 2.14351 3.95423 21.8516
559 1 -1.1104 3.55789 -0.257648 23.1919
560 1 -1.1104 3.69751 -0.261556 26.0448
544 1 -1.1104 6.41261 -2.97544 26.0598
540 1 -1.1104 6.3755 -3.08836 23.2275
541 1 -1.1104 6.35916 2.58551 23.2803
562 2 2.2208 2.28467 -1.56229 27.3877
545 1 -1.1104 6.68281 2.71499 26.1532
551 1 -1.1104 6.60372 -0.152364 26.0315
598 2 2.2208 13.3375 -1.65353 27.4281
701 1 -1.1104 12.1461 19.6049 26.0547
592 2 2.2208 7.93144 -1.69014 27.3594
601 2 2.2208 13.3717 3.92498 27.5356
547 1 -1.1104 6.40341 -0.198912 23.3191
593 2 2.2208 7.73148 4.11589 27.5539
573 2 2.2208 10.4617 1.20061 21.9565
574 1 -1.1104 11.9887 -3.06863 23.292
575 1 -1.1104 11.9684 2.56145 23.263
576 1 -1.1104 12.0183 -3.05279 26.0611
577 1 -1.1104 12.0817 2.51295 26.1557
578 1 -1.1104 11.9443 -0.227194 23.2035
579 2 2.2208 10.6771 -1.62383 24.6737
580 2 2.2208 10.6203 3.95718 24.7669
581 1 -1.1104 12.139 -0.215812 25.9928
582 1 -1.1104 9.10278 -2.97228 23.1052
583 1 -1.1104 9.17808 2.55486 23.3175
584 2 2.2208 7.82692 1.18903 24.6768
585 1 -1.1104 9.22863 -2.97755 25.8066
586 1 -1.1104 9.36177 2.69743 26.1759
587 2 2.2208 7.71503 -1.6123 21.8552
588 2 2.2208 7.81204 3.98405 22.0012
589 1 -1.1104 9.20214 -0.28945 23.2387
590 1 -1.1104 9.16553 -0.245442 26.1401
600 2 2.2208 13.4066 1.29165 24.6745
599 2 2.2208 13.41 -1.54649 21.994
9748 2 2.2208 13.4016 15.4203 16.3758
9811 2 2.2208 13.3076 4.04327 21.8604
626 2 2.2208 5.03461 6.92664 27.4536
602 2 2.2208 4.97576 6.85684 22.0118
603 2 2.2208 5.08776 12.5569 22.075
604 1 -1.1104 0.7893 8.12408 23.3464
606 1 -1.1104 0.804285 8.29826 26.2922
608 1 -1.1104 0.750788 5.28878 23.1696
609 1 -1.1104 0.753911 10.9357 23.5036
612 2 2.2208 4.95944 9.72545 24.8937
613 1 -1.1104 0.717104 5.47984 26.0166
614 1 -1.1104 0.840826 10.999 26.3363
617 1 -1.1104 3.58093 8.26141 23.3691
618 2 2.2208 2.21985 6.77143 24.7184
619 2 2.2208 2.20784 12.5355 24.96
620 1 -1.1104 3.716 8.21402 26.1473
621 2 2.2208 2.1516 9.67617 21.9896
622 1 -1.1104 3.58737 5.35637 23.3011
623 1 -1.1104 3.67934 11.2637 23.6192
624 1 -1.1104 3.48588 5.40069 25.956
625 1 -1.1104 3.56014 11.0693 26.3287
616 1 -1.1104 6.44 11.2253 26.1854
628 2 2.2208 4.98781 12.4565 27.6029
605 1 -1.1104 6.33582 8.38659 23.4295
607 1 -1.1104 6.46287 8.42882 26.1206
610 1 -1.1104 6.43523 5.53757 23.3235
689 2 2.2208 7.76138 20.9448 21.9997
615 1 -1.1104 6.24084 5.41705 26.1499
9870 2 2.2208 13.4532 9.64931 22.0035
611 1 -1.1104 6.37546 10.9965 23.4478
633 1 -1.1104 9.37385 11.1279 26.3273
634 1 -1.1104 9.06307 5.6183 26.0485
635 1 -1.1104 9.22558 11.0957 23.5857
636 1 -1.1104 9.18141 5.35678 23.4794
637 2 2.2208 7.75276 9.74574 22.0185
638 1 -1.1104 9.23633 8.35181 26.0631
639 2 2.2208 7.82402 12.5638 24.8245
640 2 2.2208 7.76418 6.94578 24.6435
641 2 2.2208 10.557 6.79601 21.9456
642 2 2.2208 10.6781 12.4634 21.9976
643 1 -1.1104 11.9822 8.26647 23.3639
644 1 -1.1104 11.9061 8.27955 26.373
645 1 -1.1104 11.9595 5.40583 23.3748
646 1 -1.1104 12.0225 10.9592 23.36
647 2 2.2208 10.6683 9.78545 24.7479
648 1 -1.1104 12.0115 5.4768 26.2704
649 1 -1.1104 12.2169 11.13 26.1563
650 1 -1.1104 9.12174 8.35871 23.3362
653 2 2.2208 10.5552 12.5076 27.6137
655 2 2.2208 13.3592 9.64515 27.6447
563 2 2.2208 2.12037 3.92784 27.3707
696 1 -1.1104 9.23903 13.8531 23.4073
656 2 2.2208 13.2813 6.84193 24.8293
693 1 -1.1104 6.49599 19.5397 26.0822
660 1 -1.1104 6.39824 16.8569 26.1944
688 1 -1.1104 9.20391 16.6113 23.5188
507 2 2.2208 4.91824 20.9515 13.62
675 1 -1.1104 6.44916 16.7181 23.3882
664 1 -1.1104 6.39621 19.5324 23.3746
667 1 -1.1104 6.4301 13.9567 23.462
669 1 -1.1104 0.848237 13.8164 23.6116
678 2 2.2208 2.29876 20.9489 22.072
677 1 -1.1104 3.71259 16.7085 23.5533
671 1 -1.1104 3.57789 19.4427 26.2906
676 1 -1.1104 0.859664 16.6042 23.4571
679 2 2.2208 2.30416 15.3689 21.9885
672 2 2.2208 2.16148 18.0112 24.8813
673 1 -1.1104 3.61376 16.6069 26.4819
674 1 -1.1104 3.55851 13.8906 26.1885
670 2 2.2208 5.07357 18.0398 22.1803
657 1 -1.1104 3.72622 19.4891 23.4636
659 1 -1.1104 3.67528 13.9975 23.4762
661 1 -1.1104 0.825191 19.5695 26.2547
662 1 -1.1104 0.878441 16.6509 26.4195
663 1 -1.1104 0.791169 13.9174 26.1793
665 2 2.2208 5.17454 21.0585 24.8174
666 2 2.2208 5.09117 15.3021 24.9513
668 1 -1.1104 0.762109 19.4742 23.5504
705 2 2.2208 10.5688 18.0578 22.0973
697 1 -1.1104 11.9768 16.7409 26.2098
698 2 2.2208 10.5286 21.0065 24.7991
709 2 2.2208 13.3947 20.8239 21.9921
627 2 2.2208 2.10199 9.54096 27.6994
702 1 -1.1104 12.0018 13.9179 26.1504
699 2 2.2208 10.6467 15.2594 24.8131
690 2 2.2208 7.78757 15.2682 21.9474
703 1 -1.1104 11.8754 19.4683 23.2772
9680 2 2.2208 13.5027 12.3688 19.1825
700 1 -1.1104 12.0637 16.5824 23.6578
695 1 -1.1104 9.16914 19.5309 23.2833
706 2 2.2208 7.92408 21.0303 27.6038
694 2 2.2208 7.7758 18.0094 24.7229
658 1 -1.1104 6.53246 14.0548 26.204
692 1 -1.1104 9.23407 13.9032 26.1958
704 1 -1.1104 11.9845 13.7885 23.3808
687 1 -1.1104 9.21734 16.7895 26.3421
691 1 -1.1104 9.39516 19.6391 26.2065
561 2 2.2208 5.06345 1.28366 27.5014
591 2 2.2208 10.7005 1.1345 27.5064
651 2 2.2208 10.4818 6.92404 27.5851
472 2 2.2208 7.84707 12.4901 13.6435
707 2 2.2208 10.7071 18.2301 27.6039
681 2 2.2208 5.01163 18.173 27.6287
680 2 2.2208 2.21366 20.8663 27.5964
445 2 2.2208 2.17693 12.5324 13.6734
471 2 2.2208 10.5795 9.64989 13.6666
710 2 2.2208 13.4357 20.8547 27.5779
652 2 2.2208 7.82186 9.7593 27.4259
714 2 2.2208 5.07489 23.8018 5.18889
715 2 2.2208 5.12925 29.4856 5.30706
716 1 -1.1104 0.898731 25.0564 0.965725
717 1 -1.1104 0.863867 25.1315 3.75315
718 1 -1.1104 0.944367 22.3415 1.1093
719 1 -1.1104 0.891236 27.8432 1.16794
720 2 2.2208 5.06276 26.5262 2.33141
721 1 -1.1104 0.801664 22.3926 3.83992
722 1 -1.1104 0.815475 27.9247 3.804
723 1 -1.1104 3.73089 25.0672 0.904497
724 2 2.2208 2.23029 23.7277 2.37502
725 2 2.2208 2.35027 29.3115 2.36694
726 1 -1.1104 3.65819 25.1712 3.72899
727 2 2.2208 2.28599 26.6439 5.09942
728 1 -1.1104 3.68421 22.2357 0.977571
729 1 -1.1104 3.60834 27.8924 0.92072
730 1 -1.1104 3.66934 22.3298 3.81587
731 1 -1.1104 3.64981 28.144 3.67392
857 1 -1.1104 1.06679 22.5295 6.69176
863 1 -1.1104 3.92019 28.0348 6.58816
862 1 -1.1104 3.73051 22.4688 6.6318
858 1 -1.1104 0.902744 27.9808 6.61874
855 1 -1.1104 0.897675 25.2546 6.74059
740 1 -1.1104 6.35488 27.9637 3.9489
735 1 -1.1104 6.50007 25.0966 0.962062
738 1 -1.1104 6.41553 27.9618 0.922898
861 1 -1.1104 3.67452 25.285 6.50846
739 1 -1.1104 6.54965 22.3074 3.83683
736 1 -1.1104 6.45412 25.2429 3.60466
860 1 -1.1104 6.56464 28.1821 6.66122
1029 2 2.2208 10.9015 40.5383 10.8462
737 1 -1.1104 6.55642 22.3543 0.845718
741 2 2.2208 10.7601 23.7732 5.23684
742 2 2.2208 10.8481 29.4677 5.1971
743 1 -1.1104 12.1458 25.2336 0.97492
744 1 -1.1104 12.0081 25.1657 3.78873
745 1 -1.1104 12.2585 22.4032 1.0337
746 1 -1.1104 12.0657 27.9491 0.891049
747 2 2.2208 10.6441 26.5137 2.39248
748 1 -1.1104 12.0821 22.2584 3.77996
749 1 -1.1104 12.194 28.0291 3.81417
750 1 -1.1104 9.16628 25.1314 0.957857
751 2 2.2208 7.87084 23.7516 2.32358
752 2 2.2208 7.87926 29.4176 2.35795
753 1 -1.1104 9.22185 25.1977 3.61286
754 2 2.2208 7.95703 26.606 5.07457
755 1 -1.1104 9.37179 22.3715 0.936356
756 1 -1.1104 9.23539 27.8155 0.800738
757 1 -1.1104 9.23495 22.4222 3.76572
758 1 -1.1104 9.30704 27.8928 3.55056
889 1 -1.1104 11.9754 22.3123 6.55562
888 1 -1.1104 11.9684 25.2423 6.72866
891 1 -1.1104 9.21093 25.3038 6.43499
890 1 -1.1104 12.1793 27.9995 6.58153
893 1 -1.1104 9.35862 28.1338 6.44048
892 1 -1.1104 9.53451 22.4814 6.69948
760 2 2.2208 13.5972 29.2748 2.34656
761 2 2.2208 13.5254 26.6098 5.22396
859 1 -1.1104 6.60291 22.3746 6.53296
759 2 2.2208 13.5384 23.8734 2.41914
762 2 2.2208 5.16479 34.9686 5.19029
763 1 -1.1104 0.881813 30.751 1.08254
764 1 -1.1104 0.876111 36.4062 0.998004
766 1 -1.1104 0.908675 30.7125 3.95791
767 1 -1.1104 0.944002 36.4723 3.87162
769 1 -1.1104 0.853973 33.6244 0.937303
770 2 2.2208 5.16353 32.1432 2.39908
771 2 2.2208 5.13993 37.8597 2.31052
772 1 -1.1104 0.966163 33.6532 3.77979
774 1 -1.1104 3.79479 30.6417 0.891205
775 1 -1.1104 3.73541 36.2854 0.87808
776 2 2.2208 2.33467 34.9609 2.22683
777 1 -1.1104 3.72581 30.9059 3.71519
778 1 -1.1104 3.70598 36.6124 3.56175
779 2 2.2208 2.3373 32.2242 5.2621
780 2 2.2208 2.3242 37.8209 5.19837
781 1 -1.1104 3.78764 33.4645 1.0813
782 1 -1.1104 3.68398 33.7139 3.85692
920 1 -1.1104 3.76096 33.5248 6.65463
916 1 -1.1104 0.913575 33.4973 6.7457
912 1 -1.1104 0.976723 30.6352 6.62846
918 1 -1.1104 3.78504 30.8239 6.61664
786 1 -1.1104 6.60563 30.8054 0.821188
919 1 -1.1104 3.64574 36.5087 6.54327
913 1 -1.1104 1.0084 36.3566 6.64459
788 1 -1.1104 6.51845 33.5797 0.79484
765 1 -1.1104 6.53634 36.3953 0.929647
787 1 -1.1104 6.60783 30.7967 3.59007
917 1 -1.1104 6.52276 33.7172 6.57774
914 1 -1.1104 6.3772 31.0396 6.44656
915 1 -1.1104 6.51222 36.4509 6.52015
768 1 -1.1104 6.55533 36.4275 3.71673
773 1 -1.1104 6.45001 33.4641 3.74208
789 2 2.2208 10.8485 34.924 5.14417
790 1 -1.1104 12.1615 30.6422 0.874591
791 1 -1.1104 12.0448 36.3855 0.988817
792 1 -1.1104 12.1764 30.8789 3.81079
793 1 -1.1104 12.008 36.4731 3.74822
794 1 -1.1104 12.0664 33.59 1.12836
795 2 2.2208 10.5571 32.084 2.39211
796 2 2.2208 10.6269 37.8627 2.35032
797 1 -1.1104 12.108 33.5383 3.76099
798 1 -1.1104 9.32018 30.7968 0.898085
799 1 -1.1104 9.1849 36.5556 1.06182
800 2 2.2208 7.89089 34.982 2.39588
801 1 -1.1104 9.25045 30.695 3.78502
802 1 -1.1104 9.38638 36.2647 3.74761
803 2 2.2208 7.96206 32.3464 5.28991
804 2 2.2208 8.00797 37.8141 5.07773
805 1 -1.1104 9.28899 33.6634 1.10345
806 1 -1.1104 9.30492 33.5801 3.8344
948 1 -1.1104 12.1117 33.5393 6.615