ITEM: TIMESTEP
10000
ITEM: NUMBER OF ATOMS
17910
ITEM: BOX BOUNDS pp pp pp
-3.5348933662053689e-01 2.7693489336620438e+01
-4.2890002890804020e+00 3.3236900028907962e+02
-3.5922537909720514e-01 2.7699225379097367e+01
ITEM: ATOMS id type q x y z
1 2 2.2208 5.13554 1.46848 5.08447
2 1 -1.1104 0.852892 -2.872 0.89186
3 1 -1.1104 0.932272 2.81453 0.781563
6 1 -1.1104 0.931781 -2.76032 3.7531
7 1 -1.1104 1.06268 2.75934 3.63811
10 1 -1.1104 0.823989 0.0790452 0.873712
12 2 2.2208 5.1015 -1.45077 2.19741
13 2 2.2208 5.1264 4.27422 2.21201
14 1 -1.1104 0.867373 -0.132945 3.53847
16 1 -1.1104 3.71018 -2.85432 0.753877
17 1 -1.1104 3.75095 2.73465 0.866307
18 2 2.2208 2.26638 1.32134 2.27628
19 1 -1.1104 3.72325 -2.84857 3.72421
20 1 -1.1104 3.63211 2.8313 3.68161
21 2 2.2208 2.23435 -1.37044 5.00564
22 2 2.2208 2.34085 4.2316 4.96601
23 1 -1.1104 3.57553 -0.097319 0.914915
24 1 -1.1104 3.75735 -0.106041 3.62811
174 1 -1.1104 3.6439 0.125985 6.50916
8 1 -1.1104 6.69402 -2.74557 3.46171
9 1 -1.1104 6.61636 2.88976 3.48906
4 1 -1.1104 6.52491 -2.88721 0.766664
11 1 -1.1104 6.39028 0.0113494 0.806314
172 1 -1.1104 3.82824 -2.77183 6.49239
166 1 -1.1104 0.878897 -2.93395 6.45997
167 1 -1.1104 0.929923 2.85195 6.54146
171 1 -1.1104 6.43721 0.0615364 6.35592
173 1 -1.1104 3.72651 2.9191 6.40308
170 1 -1.1104 0.716083 -0.105577 6.35473
105 2 2.2208 13.3553 6.95612 2.26939
9608 2 2.2208 13.5834 1.36375 13.6069
5 1 -1.1104 6.45497 2.70834 0.885154
15 1 -1.1104 6.56562 0.00679343 3.57682
31 2 2.2208 10.829 1.37346 5.00602
32 1 -1.1104 12.0271 -2.87599 0.785221
33 1 -1.1104 12.2871 2.70764 0.912129
34 1 -1.1104 12.2756 -2.85372 3.60484
35 1 -1.1104 12.211 2.79044 3.67362
36 1 -1.1104 12.1107 -0.124709 0.887533
37 2 2.2208 10.7875 -1.42794 2.27386
38 2 2.2208 10.7623 4.05775 2.19678
39 1 -1.1104 12.3095 0.0173464 3.66757
40 1 -1.1104 9.33426 -2.82362 0.902567
41 1 -1.1104 9.27825 2.73063 0.916525
42 2 2.2208 7.965 1.28093 2.23592
43 1 -1.1104 9.40138 -2.67456 3.73099
44 1 -1.1104 9.40521 2.77443 3.57234
45 2 2.2208 8.01932 -1.32419 5.04802
46 2 2.2208 8.03973 4.20333 5.00984
47 1 -1.1104 9.30793 -0.107414 0.846316
48 1 -1.1104 9.30228 -0.00824057 3.56491
205 1 -1.1104 12.12 -2.85796 6.46269
206 1 -1.1104 12.105 2.65955 6.54068
209 1 -1.1104 9.32097 2.83135 6.34691
50 2 2.2208 13.6548 -1.38302 4.95925
407 2 2.2208 8.01137 1.38938 13.3649
409 2 2.2208 10.7995 4.18345 13.4951
169 1 -1.1104 6.47482 2.95829 6.44013
210 1 -1.1104 9.21788 0.0108085 6.34473
9682 2 2.2208 13.6464 12.5588 13.4892
9490 2 2.2208 13.5904 6.9868 7.8702
408 2 2.2208 10.7266 -1.35801 13.5215
472 2 2.2208 7.96721 12.6436 13.5168
54 2 2.2208 5.17661 7.07165 5.01502
55 2 2.2208 5.14035 12.619 4.91112
56 1 -1.1104 1.02432 8.38641 0.691534
58 1 -1.1104 1.07166 8.33574 3.60864
60 1 -1.1104 0.882888 5.5997 0.881172
61 1 -1.1104 0.908415 11.2712 0.978749
66 2 2.2208 5.1725 9.83809 2.29762
67 1 -1.1104 0.812195 5.60696 3.6055
68 1 -1.1104 1.04755 11.2456 3.7147
71 1 -1.1104 3.7719 8.36934 0.941006
72 2 2.2208 2.32526 7.09674 2.17778
73 2 2.2208 2.41642 12.5367 2.23669
74 1 -1.1104 3.77461 8.43403 3.75868
75 2 2.2208 2.4299 9.78399 5.02481
76 1 -1.1104 3.5774 5.57598 0.870236
77 1 -1.1104 3.57817 11.0814 0.787513
79 1 -1.1104 3.78325 5.66084 3.42479
80 1 -1.1104 3.84511 11.1503 3.49413
62 1 -1.1104 1.0832 11.2488 6.35089
237 1 -1.1104 6.75496 5.60805 6.58632
63 1 -1.1104 6.55551 5.51899 0.892884
69 1 -1.1104 6.61268 5.69504 3.80925
57 1 -1.1104 6.52461 8.47875 0.861683
234 1 -1.1104 0.953189 8.4619 6.40385
235 1 -1.1104 6.54018 8.35734 6.46844
238 1 -1.1104 3.69445 8.45475 6.45407
78 1 -1.1104 3.90042 11.1582 6.40021
59 1 -1.1104 6.52158 8.39157 3.6418
239 1 -1.1104 3.78582 5.74623 6.24908
236 1 -1.1104 0.954803 5.57519 6.53526
65 1 -1.1104 6.53186 11.1833 6.19036
64 1 -1.1104 6.61781 11.2491 0.801281
70 1 -1.1104 6.59447 11.1629 3.4678
84 2 2.2208 10.6909 6.99502 4.93098
85 2 2.2208 10.7297 12.727 5.08173
86 1 -1.1104 12.1058 8.40179 0.850936
87 1 -1.1104 12.037 8.45192 3.61289
88 1 -1.1104 12.0156 5.59041 0.803928
89 1 -1.1104 12.1568 11.2856 0.633901
91 2 2.2208 10.6917 9.72569 2.11435
92 1 -1.1104 12.1136 5.61375 3.59841
93 1 -1.1104 11.9961 11.1586 3.47897
94 1 -1.1104 9.22237 8.427 0.726458
95 2 2.2208 8.00453 7.04538 2.05583
96 2 2.2208 8.05365 12.6577 2.29369
97 1 -1.1104 9.38909 8.40298 3.62969
98 2 2.2208 7.91632 9.73093 4.94601
99 1 -1.1104 9.24319 5.59758 0.698241
100 1 -1.1104 9.31606 11.2801 0.814053
102 1 -1.1104 9.49599 5.52266 3.49673
103 1 -1.1104 9.49275 11.1402 3.64332
101 1 -1.1104 9.34572 11.3385 6.43228
266 1 -1.1104 12.2749 5.46816 6.43023
267 1 -1.1104 9.30464 8.51529 6.37029
269 1 -1.1104 9.50118 5.73759 6.28585
90 1 -1.1104 12.0905 11.2611 6.27355
320 2 2.2208 7.95724 18.1081 7.86692
9414 2 2.2208 13.6866 4.11189 10.5636
265 1 -1.1104 12.1385 8.1599 6.39314
470 2 2.2208 7.98794 7.10398 13.389
106 2 2.2208 5.21616 18.2133 5.06194
107 1 -1.1104 0.980882 14.108 0.822863
109 1 -1.1104 0.883529 19.588 0.991747
113 1 -1.1104 1.01509 13.9204 3.58584
114 1 -1.1104 0.941748 19.649 3.78387
116 1 -1.1104 1.06565 16.86 0.883631
119 2 2.2208 5.22392 15.2728 2.14163
120 2 2.2208 5.25235 20.932 2.36464
121 1 -1.1104 0.812534 16.8627 3.67737
123 1 -1.1104 3.75878 13.783 0.945835
125 1 -1.1104 3.65685 19.5654 0.880329
127 2 2.2208 2.41386 18.2388 2.30153
128 1 -1.1104 3.72447 13.9881 3.70398
129 1 -1.1104 3.80942 19.6392 3.68441
130 2 2.2208 2.44175 15.4468 5.02556
131 2 2.2208 2.38662 20.947 5.09787
132 1 -1.1104 3.7666 16.7375 0.906926
134 1 -1.1104 3.81721 16.7624 3.73728
139 1 -1.1104 6.61 19.6125 3.63638
302 1 -1.1104 0.79444 19.5955 6.61179
126 1 -1.1104 3.6852 19.7108 6.51671
118 1 -1.1104 6.53207 16.8931 6.54937
117 1 -1.1104 1.02482 16.7434 6.52296
133 1 -1.1104 3.8696 16.9893 6.4254
138 1 -1.1104 6.458 19.4964 0.905855
115 1 -1.1104 6.57006 14.0087 3.60678
124 1 -1.1104 3.71889 14.0561 6.43921
140 1 -1.1104 6.47901 16.7298 0.77359
108 1 -1.1104 1.03271 14.0585 6.40743
112 1 -1.1104 6.55036 19.6207 6.54252
330 1 -1.1104 12.0931 14.067 12.1241
110 1 -1.1104 6.45777 13.8615 0.876326
111 1 -1.1104 6.68487 13.9747 6.51421
143 1 -1.1104 12.1704 13.9882 6.49279
122 1 -1.1104 6.57678 16.8051 3.7065
141 2 2.2208 10.7711 18.0508 5.29129
142 1 -1.1104 11.9349 14.1228 0.827736
144 1 -1.1104 12.0741 19.6762 0.916706
146 1 -1.1104 12.0987 14.0463 3.69569
147 1 -1.1104 12.1299 19.5748 3.755
148 1 -1.1104 12.0791 16.9015 0.832625
150 2 2.2208 10.6454 15.3947 2.28343
151 2 2.2208 10.7986 21.0049 2.31253
152 1 -1.1104 12.1059 16.7708 3.68042
153 1 -1.1104 9.21968 13.9412 0.902213
155 1 -1.1104 9.20013 19.6079 0.963685
157 2 2.2208 7.90366 18.2658 2.31863
158 1 -1.1104 9.32264 14.0066 3.63877
159 1 -1.1104 9.32949 19.5251 3.78858
160 2 2.2208 7.84073 15.479 5.18967
161 2 2.2208 7.97928 21.0818 5.13421
162 1 -1.1104 9.30463 16.7885 0.94446
164 1 -1.1104 9.29618 16.7613 3.80144
163 1 -1.1104 9.44681 16.8478 6.77655
145 1 -1.1104 12.1288 19.6547 6.56617
156 1 -1.1104 9.22746 19.6158 6.51923
306 1 -1.1104 6.50139 16.8289 12.0842
376 2 2.2208 5.27655 4.2548 13.4816
175 2 2.2208 5.09842 1.48941 10.6605
176 1 -1.1104 0.936571 -2.5808 11.9945
177 1 -1.1104 1.00325 2.86357 12.122
180 1 -1.1104 0.994318 -2.78611 9.17137
181 1 -1.1104 0.938908 2.92445 9.37805
184 1 -1.1104 0.940784 0.0768506 12.0723
186 2 2.2208 5.03011 -1.34806 7.89604
187 2 2.2208 5.26502 4.27233 7.78893
188 1 -1.1104 0.924496 0.13561 9.20197
190 1 -1.1104 3.7219 -2.70972 12.0827
191 1 -1.1104 3.91794 2.86227 12.1411
192 2 2.2208 2.24576 1.4978 7.89878
193 1 -1.1104 3.69319 -2.88391 9.2837
194 1 -1.1104 3.74906 2.90908 9.19353
195 2 2.2208 2.40391 -1.33241 10.6019
196 2 2.2208 2.56451 4.29061 10.7083
197 1 -1.1104 3.73215 0.176684 12.0568
198 1 -1.1104 3.78918 -0.118391 9.34358
189 1 -1.1104 6.60404 0.0713877 9.24889
178 1 -1.1104 6.63456 -2.8393 12.1051
179 1 -1.1104 6.59913 2.80567 11.9858
183 1 -1.1104 6.54881 2.86325 9.27351
168 1 -1.1104 6.56497 -2.69425 6.46055
185 1 -1.1104 6.34089 -0.0559042 12.0705
182 1 -1.1104 6.43168 -2.69966 9.34363
374 2 2.2208 5.10115 -1.36061 13.5359
9377 2 2.2208 13.5886 15.286 5.06538
375 2 2.2208 2.3476 1.60005 13.4614
535 2 2.2208 7.95088 18.1217 13.5903
207 1 -1.1104 12.1064 -0.133657 6.28255
208 1 -1.1104 9.41578 -2.79635 6.5956
444 2 2.2208 4.99308 9.72963 13.4815
211 2 2.2208 10.775 1.45446 10.7219
212 1 -1.1104 12.1023 -2.87027 12.1681
213 1 -1.1104 12.2331 2.65276 12.1307
214 1 -1.1104 11.9197 -2.66814 9.34849
215 1 -1.1104 12.1119 2.85767 9.34105
216 1 -1.1104 12.0057 0.0402717 12.1551
217 2 2.2208 10.8494 -1.31969 7.85347
218 2 2.2208 10.7587 4.13663 7.8299
219 1 -1.1104 12.3875 -0.0552841 9.41567
220 1 -1.1104 9.29711 -2.77994 12.0851
221 1 -1.1104 9.4679 2.84443 11.9083
222 2 2.2208 7.81944 1.46688 7.84649
223 1 -1.1104 9.21818 -2.69456 9.36848
224 1 -1.1104 9.28544 2.77728 9.14483
225 2 2.2208 7.90554 -1.38829 10.6428
226 2 2.2208 7.9878 4.25238 10.539
227 1 -1.1104 9.27054 0.0898933 12.1082
228 1 -1.1104 9.52639 0.108348 9.31613
165 2 2.2208 13.5369 18.2836 2.25807
328 1 -1.1104 12.2651 14.0855 9.23565
404 2 2.2208 7.96007 -4.29279 13.5354
322 1 -1.1104 9.29752 13.9906 12.0789
229 2 2.2208 13.4842 1.39393 7.90177
52 2 2.2208 10.754 -4.20798 4.99997
325 2 2.2208 10.8875 15.4505 8.01312
445 2 2.2208 2.30772 12.453 13.4659
240 2 2.2208 5.20721 7.04696 10.6502
241 2 2.2208 5.07662 12.4638 10.6408
242 1 -1.1104 0.909472 8.27647 12.0647
244 1 -1.1104 0.899492 8.47973 9.28766
246 1 -1.1104 0.977935 5.57773 12.1764
247 1 -1.1104 0.885915 11.2074 12.0489
250 2 2.2208 5.1444 9.74699 7.72031
251 1 -1.1104 1.0047 5.61969 9.37652
252 1 -1.1104 0.968971 11.2362 9.20727
255 1 -1.1104 3.74429 8.36841 12.0065
256 2 2.2208 2.33301 7.06272 7.89053
257 2 2.2208 2.40683 12.5402 7.69113
258 1 -1.1104 3.68961 8.46673 9.29027
259 2 2.2208 2.30567 9.85999 10.6397
260 1 -1.1104 3.95054 5.63637 12.089
261 1 -1.1104 3.65542 11.1845 11.9923
262 1 -1.1104 3.76406 5.62191 9.20895
263 1 -1.1104 3.68439 11.1123 9.12292
245 1 -1.1104 6.57477 8.44925 9.17012
243 1 -1.1104 6.63358 8.40095 11.9928
253 1 -1.1104 6.56383 5.68495 9.21896
248 1 -1.1104 6.70296 5.63735 12.0401
443 2 2.2208 2.32413 7.02698 13.4959
9677 2 2.2208 13.4978 6.9897 13.6166
9491 2 2.2208 13.6424 12.5702 7.77711
9495 2 2.2208 13.5454 9.75363 10.6856
232 2 2.2208 10.5684 -4.19636 10.6735
249 1 -1.1104 6.61309 11.1585 12.1903
254 1 -1.1104 6.44808 11.16 9.26803
264 1 -1.1104 9.25689 11.1546 9.2601
268 1 -1.1104 9.51095 5.62015 9.08417
270 1 -1.1104 9.33996 11.1641 12.141
271 1 -1.1104 9.47058 5.59992 12.0524
272 2 2.2208 7.99219 9.80412 10.6699
273 1 -1.1104 9.44044 8.43227 9.31995
274 2 2.2208 7.92532 12.6135 7.88542
275 2 2.2208 8.10152 7.10541 7.77241
276 2 2.2208 10.8089 7.03823 10.6486
277 2 2.2208 10.7518 12.6044 10.7105
278 1 -1.1104 12.0718 8.42796 12.0224
279 1 -1.1104 12.1538 8.56181 9.22551
280 1 -1.1104 12.104 5.5321 12.0717
281 1 -1.1104 12.0601 11.2645 11.9331
282 2 2.2208 10.7098 9.89577 7.75646
283 1 -1.1104 12.3727 5.61526 9.25931
284 1 -1.1104 12.2061 11.1463 9.1627
285 1 -1.1104 9.34706 8.50791 11.9925
471 2 2.2208 10.6552 9.82431 13.4907
296 1 -1.1104 6.47903 19.5457 12.1725
533 2 2.2208 10.7507 20.9043 13.5891
315 1 -1.1104 9.20234 16.7318 12.3709
288 1 -1.1104 6.46714 19.5422 9.33238
508 2 2.2208 5.19048 15.3773 13.3288
290 1 -1.1104 6.54316 13.9686 9.25521
286 1 -1.1104 3.64639 19.6187 12.1097
287 1 -1.1104 3.80557 14.127 12.1089
291 1 -1.1104 0.902298 19.6535 9.22391
292 1 -1.1104 0.979334 16.83 9.34006
293 2 2.2208 5.14203 20.988 7.97483
294 1 -1.1104 0.817367 14.0512 9.39348
295 2 2.2208 5.09766 15.4921 7.90563
298 1 -1.1104 0.922987 19.6851 12.211
299 1 -1.1104 1.07471 13.9047 12.0799
300 2 2.2208 5.14316 18.2636 10.6802
301 1 -1.1104 3.75478 19.513 9.39726
303 2 2.2208 2.38155 18.2203 7.84487
304 1 -1.1104 3.71901 16.7503 9.11978
305 1 -1.1104 3.61466 13.9782 9.24468
307 1 -1.1104 1.0542 16.802 12.1138
308 1 -1.1104 3.78717 16.7755 11.9198
309 2 2.2208 2.40907 21.1278 10.7568
310 2 2.2208 2.34621 15.4483 10.6873
507 2 2.2208 5.13884 21.0047 13.5647
506 2 2.2208 2.28314 18.1555 13.544
319 1 -1.1104 9.39602 13.9608 9.3053
329 1 -1.1104 12.1798 19.4937 12.2555
331 2 2.2208 10.7783 18.1955 10.7325
318 1 -1.1104 9.37657 19.4479 9.28106
314 1 -1.1104 9.42125 16.7523 9.46875
534 2 2.2208 10.8228 15.2862 13.5318
327 1 -1.1104 12.144 19.6561 9.33347
316 2 2.2208 7.91381 20.9684 10.7584
326 1 -1.1104 12.118 16.6542 12.2441
323 1 -1.1104 12.2447 16.9264 9.4063
324 2 2.2208 10.6243 20.9107 8.041
149 1 -1.1104 12.146 16.7458 6.62416
154 1 -1.1104 9.40698 14.1948 6.59052
321 1 -1.1104 9.35033 19.4721 12.2492
289 1 -1.1104 6.52322 16.8069 9.35179
317 2 2.2208 7.8903 15.3878 10.6768
297 1 -1.1104 6.50707 13.9145 11.9252
536 2 2.2208 13.6262 18.1937 13.6034
332 2 2.2208 13.4246 18.2097 7.94186
9279 2 2.2208 13.6468 4.21663 4.95522
28 2 2.2208 2.37848 -4.1036 2.25298
25 2 2.2208 -0.480529 -1.49294 2.29925
333 2 2.2208 13.5295 15.3458 10.629
81 2 2.2208 -0.489824 6.96794 5.08298
9508 2 2.2208 -0.384909 9.81283 7.84743
9541 2 2.2208 13.5249 20.9823 10.7741
49 2 2.2208 13.6754 1.322 2.28629
406 2 2.2208 13.4711 -4.25996 13.4616
203 2 2.2208 5.23281 -4.22284 10.7604
51 2 2.2208 8.07971 -4.10673 2.28982
373 2 2.2208 2.34492 -4.0521 13.4795
202 2 2.2208 2.28982 -4.23609 7.87284
53 2 2.2208 13.6197 -4.28089 2.2454
562 2 2.2208 2.31588 -1.33583 -0.512293
334 2 2.2208 5.18682 1.37387 16.2371
335 1 -1.1104 0.960153 -2.78131 17.626
336 1 -1.1104 1.05644 2.85997 17.6953
339 1 -1.1104 0.832963 -2.86826 14.9264
341 1 -1.1104 1.01476 2.83054 14.9667
347 1 -1.1104 0.881452 0.0842516 17.7632
349 2 2.2208 5.15871 -1.43668 18.9568
350 2 2.2208 5.16954 4.142 18.9644
351 1 -1.1104 1.01919 0.025194 14.8284
355 1 -1.1104 3.71032 -2.79207 17.6125
356 1 -1.1104 3.85219 2.83471 17.7012
357 2 2.2208 2.33838 1.42878 18.9709
358 1 -1.1104 3.68819 -2.6997 14.8162
360 1 -1.1104 3.75045 2.83701 14.8928
362 2 2.2208 2.23847 -1.42487 16.1662
363 2 2.2208 2.47177 4.29039 16.2998
364 1 -1.1104 3.60473 0.0190994 17.6424
365 1 -1.1104 3.77464 0.123309 14.9032
348 1 -1.1104 6.5068 -0.0359478 17.6022
345 1 -1.1104 6.65759 2.75237 14.7652
343 1 -1.1104 6.69462 -2.69723 14.888
342 1 -1.1104 0.822918 2.75265 20.5798
338 1 -1.1104 6.52598 2.74618 17.6529
353 1 -1.1104 6.48969 -0.076244 14.8094
361 1 -1.1104 3.67979 2.72735 20.3746
344 1 -1.1104 6.51761 -2.8226 20.5038
354 1 -1.1104 6.52007 -0.0117798 20.5848
346 1 -1.1104 6.48935 2.75081 20.5506
337 1 -1.1104 6.50636 -2.85746 17.7103
366 1 -1.1104 3.7875 -0.0446455 20.2841
352 1 -1.1104 0.850297 0.0211343 20.4995
710 2 2.2208 13.4734 20.961 27.5687
377 2 2.2208 10.6934 1.46673 16.3488
378 1 -1.1104 12.102 -2.70111 17.6779
379 1 -1.1104 12.2348 2.67094 17.7307
380 1 -1.1104 12.1297 -2.88033 14.8436
382 1 -1.1104 12.1489 2.74085 15.0184
384 1 -1.1104 12.1193 0.0131806 17.7266
385 2 2.2208 10.7384 -1.48303 19.1128
386 2 2.2208 10.6915 3.98015 19.1488
387 1 -1.1104 12.1023 -0.110814 14.976
389 1 -1.1104 9.33072 -2.72201 17.7514
390 1 -1.1104 9.34206 2.75473 17.7708
391 2 2.2208 7.95863 1.27608 18.9303
392 1 -1.1104 9.48805 -2.76396 14.8045
394 1 -1.1104 9.49631 2.90605 14.8546
396 2 2.2208 7.84865 -1.49957 16.4239
397 2 2.2208 8.08739 4.13495 16.2992
398 1 -1.1104 9.29897 -0.112102 17.76
399 1 -1.1104 9.17989 0.0357349 15.2149
706 2 2.2208 8.00576 20.9637 27.6162
388 1 -1.1104 12.0681 -0.17377 20.489
395 1 -1.1104 9.18636 2.66605 20.4869
400 1 -1.1104 9.34871 -0.0541893 20.4853
596 2 2.2208 10.7309 -4.29535 21.9898
694 2 2.2208 7.90336 18.1139 24.7538
688 1 -1.1104 9.3526 16.7105 23.3221
393 1 -1.1104 9.30802 -2.83579 20.6502
381 1 -1.1104 12.0553 -2.98418 20.494
410 2 2.2208 5.23515 6.95348 16.3901
411 2 2.2208 5.09759 12.5197 16.3373
412 1 -1.1104 0.90256 8.50817 17.8532
414 1 -1.1104 0.835867 8.42304 14.8596
418 1 -1.1104 1.03483 5.70731 17.6403
419 1 -1.1104 0.867926 11.1234 17.7775
422 2 2.2208 5.09128 9.69906 19.1268
423 1 -1.1104 1.10616 5.72553 14.9295
425 1 -1.1104 0.91427 11.2212 14.9789
431 1 -1.1104 3.82195 8.48799 17.6347
432 2 2.2208 2.27793 6.97823 19.0244
433 2 2.2208 2.23026 12.5958 19.1101
434 1 -1.1104 3.81458 8.23383 14.9329
436 2 2.2208 2.20481 9.69349 16.3567
437 1 -1.1104 3.89601 5.74856 17.529
438 1 -1.1104 3.77262 11.2017 17.7595
439 1 -1.1104 3.80453 5.47464 14.8474
441 1 -1.1104 3.60465 11.1903 14.8215
442 1 -1.1104 3.74474 11.1739 20.4851
429 1 -1.1104 6.45664 11.2568 14.7667
416 1 -1.1104 6.57841 8.33719 15.0222
415 1 -1.1104 0.975018 8.33931 20.5613
435 1 -1.1104 3.68746 8.2598 20.391
420 1 -1.1104 6.55699 5.57982 17.6664
427 1 -1.1104 6.53036 5.65452 14.9643
428 1 -1.1104 6.5628 5.66821 20.5377
426 1 -1.1104 0.858325 11.2117 20.6381
424 1 -1.1104 0.968485 5.48096 20.4495
440 1 -1.1104 3.74477 5.59139 20.3961
417 1 -1.1104 6.47395 8.55785 20.7636
689 2 2.2208 7.88779 20.9489 21.9517
9604 2 2.2208 13.5399 4.25834 16.2835
421 1 -1.1104 6.50209 11.1695 17.7976
413 1 -1.1104 6.69659 8.24197 17.835
446 2 2.2208 10.7064 7.01344 16.27
447 2 2.2208 10.8014 12.5019 16.3005
448 1 -1.1104 12.2061 8.41951 17.7586
449 1 -1.1104 12.1185 8.43135 14.9595
451 1 -1.1104 12.077 5.54816 17.8428
452 1 -1.1104 12.2033 11.1296 17.6546
453 2 2.2208 10.6287 9.76249 19.179
454 1 -1.1104 12.1782 5.58506 14.9786
456 1 -1.1104 12.3309 10.9877 14.7722
458 1 -1.1104 9.35685 8.39647 17.8406
459 2 2.2208 7.94629 6.95537 19.1934
460 2 2.2208 7.86107 12.5842 19.1208
461 1 -1.1104 9.33734 8.43379 14.864
463 2 2.2208 8.04429 9.77927 16.3105
464 1 -1.1104 9.3311 5.51215 17.7573
465 1 -1.1104 9.38318 11.2416 17.725
466 1 -1.1104 9.33699 5.72004 14.8595
468 1 -1.1104 9.4623 11.2075 14.8945
467 1 -1.1104 9.35104 5.56167 20.5475
462 1 -1.1104 9.3045 8.4878 20.5241
450 1 -1.1104 12.1462 8.37317 20.5703
457 1 -1.1104 12.1345 11.1416 20.3348
9678 2 2.2208 13.4962 9.72027 16.3401
430 1 -1.1104 6.52112 11.3401 20.6516
455 1 -1.1104 12.1452 5.4627 20.5719
656 2 2.2208 13.381 7.07236 24.7259
705 2 2.2208 10.7493 18.1958 21.9912
473 2 2.2208 5.03887 18.1379 16.1604
474 1 -1.1104 0.87669 13.9511 17.6543
475 1 -1.1104 0.848608 19.5781 17.8415
478 1 -1.1104 0.932507 13.8982 14.9422
480 1 -1.1104 0.818688 19.5162 14.9477
486 1 -1.1104 0.816146 16.7456 17.6346
488 2 2.2208 5.02406 15.3766 19.0282
489 2 2.2208 5.04767 20.9243 19.2256
490 1 -1.1104 0.958765 16.7235 14.9135
494 1 -1.1104 3.54569 14.012 17.7209
495 1 -1.1104 3.68622 19.7242 17.7203
496 2 2.2208 2.23967 18.2779 19.0859
497 1 -1.1104 3.86881 13.8342 14.7047
499 1 -1.1104 3.6941 19.4242 14.8943
501 2 2.2208 2.23803 15.2636 16.1257
502 2 2.2208 2.35947 21.0368 16.3458
503 1 -1.1104 3.6159 16.726 17.4436
504 1 -1.1104 3.716 16.6838 14.5744
500 1 -1.1104 3.71155 19.7693 20.6028
481 1 -1.1104 0.944594 19.612 20.6298
491 1 -1.1104 1.01997 16.8195 20.408
487 1 -1.1104 6.51357 16.7632 17.7769
476 1 -1.1104 6.32026 13.9178 17.756
492 1 -1.1104 6.4812 16.7207 14.9118
483 1 -1.1104 6.47133 13.976 20.5022
498 1 -1.1104 3.75646 13.9056 20.57
505 1 -1.1104 3.67367 16.863 20.4123
485 1 -1.1104 6.55341 19.5879 20.4109
479 1 -1.1104 0.841753 14.0895 20.46
493 1 -1.1104 6.54297 16.859 20.5062
704 1 -1.1104 12.1937 13.9268 23.1832
484 1 -1.1104 6.59554 19.487 14.8892
477 1 -1.1104 6.47586 19.5447 17.5661
482 1 -1.1104 6.63876 13.9373 15.0031
509 2 2.2208 10.7491 18.1416 16.3405
510 1 -1.1104 12.1841 13.8892 17.6226
511 1 -1.1104 12.1092 19.4701 17.6349
512 1 -1.1104 12.069 13.7263 14.9948
514 1 -1.1104 12.1298 19.6191 14.8926
516 1 -1.1104 12.0929 16.7604 17.7416
517 2 2.2208 10.7945 15.2707 18.948
518 2 2.2208 10.7231 20.9911 19.3433
519 1 -1.1104 12.1748 16.7852 15.0456
521 1 -1.1104 9.28668 13.8862 17.738
522 1 -1.1104 9.40535 19.8594 17.9892
523 2 2.2208 7.91016 18.2115 19.0679
524 1 -1.1104 9.42003 13.9669 14.7962
526 1 -1.1104 9.39259 19.598 15.12
528 2 2.2208 7.98237 15.296 16.4684
529 2 2.2208 7.90226 21.0158 16.4987
530 1 -1.1104 9.42788 16.9248 17.8195
531 1 -1.1104 9.35191 16.6899 15.1092
513 1 -1.1104 12.1229 13.9193 20.2812
515 1 -1.1104 12.0839 19.4337 20.6013
525 1 -1.1104 9.29618 13.8861 20.3911
527 1 -1.1104 9.31085 19.3839 20.6798
695 1 -1.1104 9.30745 19.4001 23.4342
9680 2 2.2208 13.5596 12.5129 19.114
520 1 -1.1104 12.2308 16.673 20.4689
707 2 2.2208 10.6866 18.197 27.644
340 1 -1.1104 0.859072 -2.87727 20.4011
359 1 -1.1104 3.6745 -2.64569 20.3303
568 2 2.2208 2.38913 -4.31215 24.58
561 2 2.2208 5.12403 1.39944 27.572
537 2 2.2208 5.03476 1.34437 21.8461
538 1 -1.1104 1.06561 -2.95987 23.0916
539 1 -1.1104 1.04894 2.8594 23.2901
542 1 -1.1104 1.11449 -2.79325 26.1592
543 1 -1.1104 0.926181 2.6745 26.0594
546 1 -1.1104 0.779617 -0.0378447 23.3599
548 2 2.2208 5.14973 -1.3413 24.765
549 2 2.2208 5.12384 4.09627 24.7367
550 1 -1.1104 1.15879 -0.0844264 26.0651
552 1 -1.1104 3.7949 -2.73702 23.2918
553 1 -1.1104 3.78397 2.70917 23.3539
554 2 2.2208 2.34146 1.41222 24.6232
555 1 -1.1104 3.72768 -2.82054 26.07
556 1 -1.1104 3.71101 2.67718 26.1367
557 2 2.2208 2.23517 -1.49607 21.9025
558 2 2.2208 2.36679 4.27464 21.9421
559 1 -1.1104 3.63313 -0.0196137 23.2793
560 1 -1.1104 3.80534 -0.200728 26.2471
540 1 -1.1104 6.49038 -2.9495 23.2613
547 1 -1.1104 6.52296 0.00114502 23.315
541 1 -1.1104 6.5831 2.70791 23.2742
551 1 -1.1104 6.46996 0.0144547 26.0972
545 1 -1.1104 6.4173 2.65517 26.1
563 2 2.2208 2.32155 4.0341 27.504
402 2 2.2208 10.8007 -4.12478 16.2999
702 1 -1.1104 12.0011 14.1249 26.1089
595 2 2.2208 10.6475 -4.35772 27.4434
593 2 2.2208 7.81524 4.08311 27.5096
544 1 -1.1104 6.45939 -2.71155 26.0724
600 2 2.2208 13.4966 1.22618 24.7226
383 1 -1.1104 11.9876 2.63376 20.5106
573 2 2.2208 10.6622 1.31047 21.7819
574 1 -1.1104 12.2173 -2.8444 23.2934
575 1 -1.1104 12.0446 2.67796 23.2882
576 1 -1.1104 12.1038 -2.78342 26.0674
577 1 -1.1104 11.8745 2.84107 26.2262
578 1 -1.1104 12.1715 -0.136596 23.2283
579 2 2.2208 10.6899 -1.42039 24.6789
580 2 2.2208 10.6735 4.14806 24.6751
581 1 -1.1104 12.0172 -0.113503 25.9566
582 1 -1.1104 9.26343 -2.92546 23.2766
583 1 -1.1104 9.32723 2.75354 23.3491
584 2 2.2208 7.89568 1.38895 24.758
585 1 -1.1104 9.3421 -2.86891 26.1614
586 1 -1.1104 9.18206 2.92236 26.0808
587 2 2.2208 7.80345 -1.40656 21.9421
588 2 2.2208 8.06378 4.01784 21.8266
589 1 -1.1104 9.31593 -0.0378312 23.3111
590 1 -1.1104 9.22879 -0.00283034 26.1875
9610 2 2.2208 13.6464 1.40766 19.1376
599 2 2.2208 13.5568 -1.35414 21.8827
591 2 2.2208 10.6887 1.35483 27.5563
403 2 2.2208 8.04831 -4.27948 19.2935
602 2 2.2208 5.21335 6.89694 21.9806
603 2 2.2208 5.10907 12.6453 21.8912
604 1 -1.1104 0.926952 8.3628 23.3753
606 1 -1.1104 0.901013 8.32603 26.1135
608 1 -1.1104 0.7824 5.589 23.3673
609 1 -1.1104 0.854745 11.1487 23.4517
612 2 2.2208 5.08568 9.71009 24.6354
613 1 -1.1104 0.82079 5.49318 26.1394
614 1 -1.1104 0.907549 11.2913 26.1078
617 1 -1.1104 3.75203 8.35492 23.1841
618 2 2.2208 2.3805 6.93064 24.69
619 2 2.2208 2.33695 12.5582 24.6295
620 1 -1.1104 3.90225 8.31048 25.959
621 2 2.2208 2.21049 9.78658 21.8903
622 1 -1.1104 3.67502 5.57615 23.337
623 1 -1.1104 3.73373 11.25 23.2229
624 1 -1.1104 3.77954 5.54655 26.1394
625 1 -1.1104 3.63163 11.1186 26.0109
610 1 -1.1104 6.45538 5.42485 23.3005
605 1 -1.1104 6.47641 8.24901 23.3688
628 2 2.2208 5.00999 12.5267 27.4715
627 2 2.2208 2.48177 9.68463 27.4055
469 1 -1.1104 9.37566 11.3203 20.577
653 2 2.2208 10.7048 12.5996 27.3642
611 1 -1.1104 6.42847 11.0815 23.2955
616 1 -1.1104 6.36302 11.2576 26.0411
607 1 -1.1104 6.59007 8.41681 26.148
615 1 -1.1104 6.59336 5.59476 26.0982
9679 2 2.2208 13.5195 6.93046 19.1864
633 1 -1.1104 9.2551 11.1216 26.0608
634 1 -1.1104 9.49629 5.63847 25.9834
635 1 -1.1104 9.31484 11.21 23.2789
636 1 -1.1104 9.30293 5.5564 23.2512
637 2 2.2208 7.96671 9.83876 21.9652
638 1 -1.1104 9.47042 8.34676 26.0321
639 2 2.2208 7.95069 12.581 24.6377
640 2 2.2208 7.99895 6.87424 24.6059
641 2 2.2208 10.8278 6.95049 21.9181
642 2 2.2208 10.8102 12.667 21.7323
643 1 -1.1104 12.0128 8.38917 23.2621
644 1 -1.1104 12.1753 8.421 26.1182
645 1 -1.1104 12.0752 5.56894 23.3169
646 1 -1.1104 12.1012 11.1057 23.2207
647 2 2.2208 10.7025 9.87158 24.7587
648 1 -1.1104 12.3114 5.49232 26.0871
649 1 -1.1104 12.0911 11.3255 25.9563
650 1 -1.1104 9.28009 8.43547 23.3385
651 2 2.2208 10.8894 7.06605 27.4591
652 2 2.2208 7.89828 9.89402 27.3998
9870 2 2.2208 13.5457 9.71331 21.8724
681 2 2.2208 5.13782 18.1939 27.5332
669 1 -1.1104 0.963184 13.9206 23.2101
678 2 2.2208 2.37449 21.0358 21.9739
677 1 -1.1104 3.56287 16.8495 23.2473
671 1 -1.1104 3.80091 19.647 26.2104
676 1 -1.1104 0.786335 16.7228 23.2698
679 2 2.2208 2.35426 15.3919 21.8617
672 2 2.2208 2.27793 18.3588 24.7107
673 1 -1.1104 3.68234 16.8944 26.0594
674 1 -1.1104 3.69066 13.9339 26.1217
670 2 2.2208 5.19572 18.2084 21.8343
657 1 -1.1104 3.74229 19.6272 23.4646
659 1 -1.1104 3.88596 14.0611 23.309
661 1 -1.1104 0.941856 19.6094 26.1533
662 1 -1.1104 1.07853 16.8523 26.1241
663 1 -1.1104 0.927832 13.992 26.0662
665 2 2.2208 5.13811 20.9489 24.7198
666 2 2.2208 5.18193 15.4509 24.7049
668 1 -1.1104 0.894093 19.6241 23.4198
682 2 2.2208 2.38906 15.3823 27.3965
680 2 2.2208 2.34613 20.9695 27.6029
658 1 -1.1104 6.50369 14.1268 26.2361
405 2 2.2208 13.5456 -1.43942 16.3301
703 1 -1.1104 12.1835 19.5541 23.2553
696 1 -1.1104 9.31328 14.0732 23.2915
708 2 2.2208 7.94152 15.3367 27.5843
692 1 -1.1104 9.22934 13.8302 25.9738
691 1 -1.1104 9.3096 19.4971 26.3053
532 1 -1.1104 9.51933 16.6692 20.544
592 2 2.2208 7.89908 -1.38557 27.5349
700 1 -1.1104 12.1406 16.659 23.2377
699 2 2.2208 10.7371 15.477 24.735
698 2 2.2208 10.7714 20.7214 24.8154
687 1 -1.1104 9.44149 16.6955 26.1916
690 2 2.2208 7.94158 15.3917 21.8265
701 1 -1.1104 12.1597 19.4636 26.0899
697 1 -1.1104 12.0988 16.9298 25.9246
667 1 -1.1104 6.54367 13.9953 23.3822
693 1 -1.1104 6.51391 19.6618 26.166
664 1 -1.1104 6.48031 19.5386 23.4094
675 1 -1.1104 6.58758 16.8421 23.3022
660 1 -1.1104 6.60122 16.9295 26.1319
598 2 2.2208 13.4553 -1.55755 27.5837
566 2 2.2208 5.0538 -4.26475 27.477
712 2 2.2208 13.5224 18.0959 24.6265
601 2 2.2208 13.5323 4.14615 27.4214
9750 2 2.2208 13.425 18.0711 19.089
626 2 2.2208 5.25217 6.98692 27.4524
594 2 2.2208 13.4416 -4.27774 24.7462
401 2 2.2208 13.5228 -4.21244 19.0993
713 2 2.2208 13.6077 15.4029 21.7517
9748 2 2.2208 13.5267 15.3282 16.3091
9751 2 2.2208 13.4895 20.8596 16.3665
9811 2 2.2208 13.5027 4.04776 21.9062
368 2 2.2208 5.01894 -4.21896 16.2395
709 2 2.2208 13.5907 20.8852 21.9071
655 2 2.2208 13.6347 9.87682 27.5729
632 2 2.2208 -0.431797 6.9606 27.6276
569 2 2.2208 -0.47724 1.49175 27.5552
367 2 2.2208 -0.536649 -4.23484 16.4464
9720 2 2.2208 -0.501533 6.98108 16.321
9719 2 2.2208 -0.660936 9.8401 19.0823
654 2 2.2208 13.416 12.5827 24.572
714 2 2.2208 5.11229 23.8538 5.04237
715 2 2.2208 5.14572 29.4663 5.01347
716 1 -1.1104 1.05296 25.1316 0.883217
717 1 -1.1104 1.07248 25.1309 3.57696
718 1 -1.1104 1.0204 22.4006 1.01876
719 1 -1.1104 0.769054 27.9784 0.957073
720 2 2.2208 5.22361 26.6596 2.26311
721 1 -1.1104 0.983283 22.3694 3.8571
722 1 -1.1104 0.970913 27.8477 3.69939
723 1 -1.1104 3.9459 25.1435 0.934314
724 2 2.2208 2.31117 23.7642 2.30207
725 2 2.2208 2.23151 29.3261 2.21478
726 1 -1.1104 3.82666 25.0955 3.65284
727 2 2.2208 2.29969 26.5728 5.06654
728 1 -1.1104 3.80854 22.2545 0.883319
729 1 -1.1104 3.617 27.9707 0.906961
730 1 -1.1104 3.89337 22.2732 3.78477
731 1 -1.1104 3.74513 27.9521 3.67726
857 1 -1.1104 1.05465 22.3885 6.60839
735 1 -1.1104 6.59455 25.0504 0.935595
736 1 -1.1104 6.51879 25.3987 3.78757
737 1 -1.1104 6.60254 22.2737 0.825205
862 1 -1.1104 3.74738 22.539 6.43714
855 1 -1.1104 0.899027 25.2363 6.2354
858 1 -1.1104 0.892967 27.9314 6.55814
861 1 -1.1104 3.74017 25.1808 6.48338
863 1 -1.1104 3.59083 28.0116 6.49894
740 1 -1.1104 6.64284 28.0701 3.68482
859 1 -1.1104 6.5674 22.3151 6.61027
738 1 -1.1104 6.49687 27.8752 0.770636
739 1 -1.1104 6.69917 22.4245 3.74339
741 2 2.2208 10.7343 23.7891 5.2651
742 2 2.2208 10.8392 29.4271 5.18954
743 1 -1.1104 11.9929 25.2495 0.945289
744 1 -1.1104 12.0342 25.1227 3.87388
745 1 -1.1104 12.2265 22.4394 1.0406
746 1 -1.1104 12.1158 27.9545 1.07292
747 2 2.2208 10.7678 26.5598 2.30079
748 1 -1.1104 12.0381 22.48 3.85849
749 1 -1.1104 12.1518 27.9163 3.91415
750 1 -1.1104 9.34902 25.1052 0.949274
751 2 2.2208 7.97135 23.9029 2.35864
752 2 2.2208 8.0592 29.4582 2.34681
753 1 -1.1104 9.32861 25.0504 3.88287
754 2 2.2208 8.02752 26.6516 5.16012
755 1 -1.1104 9.39021 22.2991 0.939894
756 1 -1.1104 9.32634 27.996 1.00257
757 1 -1.1104 9.38176 22.3341 3.68329
758 1 -1.1104 9.35988 28.0529 3.66159
889 1 -1.1104 12.0412 22.3816 6.5258
891 1 -1.1104 9.33803 25.2831 6.58993
860 1 -1.1104 6.39608 28.2392 6.46625
888 1 -1.1104 12.1465 25.22 6.65166
856 1 -1.1104 6.55518 25.3569 6.60563
890 1 -1.1104 12.3424 27.959 6.64449
893 1 -1.1104 9.40333 28.0256 6.56037
892 1 -1.1104 9.35441 22.4734 6.49559
1008 1 -1.1104 9.33286 44.6512 12.2436
762 2 2.2208 5.19942 35.0136 5.09315
763 1 -1.1104 0.93036 30.7457 1.05387
764 1 -1.1104 0.939172 36.3459 0.881147
766 1 -1.1104 0.810219 30.7109 3.92501
767 1 -1.1104 0.985251 36.3802 3.6144
769 1 -1.1104 1.05879 33.5696 1.01182
770 2 2.2208 5.14367 32.1557 2.31645
771 2 2.2208 5.1603 37.8468 2.35695
772 1 -1.1104 0.94292 33.4851 3.71627
774 1 -1.1104 3.70814 30.7716 0.929504
775 1 -1.1104 3.66695 36.3549 0.913958
776 2 2.2208 2.43787 35.0789 2.36166
777 1 -1.1104 3.68761 30.8587 3.70485
778 1 -1.1104 3.94687 36.4985 3.72756
779 2 2.2208 2.34787 32.2327 5.14844
780 2 2.2208 2.26158 37.8466 5.08992
781 1 -1.1104 3.75486 33.714 1.00858
782 1 -1.1104 3.72786 33.6082 3.79792
768 1 -1.1104 6.58165 36.451 3.80847
918 1 -1.1104 3.6804 30.8744 6.58249
920 1 -1.1104 3.75295 33.5418 6.59086
916 1 -1.1104 0.918544 33.6186 6.61438
919 1 -1.1104 3.69992 36.5008 6.56293
915 1 -1.1104 6.51271 36.4628 6.55053
917 1 -1.1104 6.53579 33.6478 6.46133
913 1 -1.1104 0.979252 36.5285 6.48947
773 1 -1.1104 6.60828 33.6268 3.72177
914 1 -1.1104 6.42887 30.8871 6.39072
912 1 -1.1104 0.996001 30.7532 6.73784
1014 1 -1.1104 9.30905 41.8725 12.1659
1028 2 2.2208 10.9832 46.3763 10.966
788 1 -1.1104 6.60894 33.5459 0.795321
765 1 -1.1104 6.41908 36.1354 0.826496
787 1 -1.1104 6.46572 30.9219 3.61678