LAMMPS (29 Oct 2020)
OMP_NUM_THREADS environment is not set. Defaulting to 1 thread. (../comm.cpp:94)
  using 1 OpenMP thread(s) per MPI task
OMP_NUM_THREADS environment is not set. Defaulting to 1 thread. (../comm.cpp:94)
  using 1 OpenMP thread(s) per MPI task
Reading data file ...
  orthogonal box = (-0.44755349 -5.1691138 -0.43914387) to (27.787553 333.24911 27.779144)
  2 by 13 by 2 MPI processor grid
  reading atoms ...
  17820 atoms
  reading velocities ...
  17820 velocities
Finding 1-2 1-3 1-4 neighbors ...
  special bond factors lj:    0.0      0.0      0.0     
  special bond factors coul:  0.0      0.0      0.0     
     0 = max # of 1-2 neighbors
     0 = max # of 1-3 neighbors
     0 = max # of 1-4 neighbors
     1 = max # of special neighbors
  special bonds CPU = 0.004 seconds
  read_data CPU = 0.075 seconds
Setting atom values ...
  11880 settings made for charge
Setting atom values ...
  5940 settings made for charge
PPPM initialization ...
  using 12-bit tables for long-range coulomb (../kspace.cpp:328)
  G vector (1/distance) = 0.2985213
  grid = 40 240 40
  stencil order = 5
  estimated absolute RMS force accuracy = 0.00015939683
  estimated relative force accuracy = 1.1069497e-05
  using single precision MKL FFT
  3d grid and FFT values/proc = 15000 7600
Neighbor list info ...
  update every 1 steps, delay 0 steps, check yes
  max neighbors/atom: 2000, page size: 100000
  master list distance cutoff = 11.3
  ghost atom cutoff = 11.3
  binsize = 5.65, bins = 5 60 5
  2 neighbor lists, perpetual/occasional/extra = 2 0 0
  (1) pair coul/long, perpetual
      attributes: half, newton on
      pair build: half/bin/newton
      stencil: half/bin/3d/newton
      bin: standard
  (2) pair eam/alloy, perpetual, copy from (1)
      attributes: half, newton on
      pair build: copy
      stencil: none
      bin: none
Setting up Verlet run ...
  Unit style    : metal
  Current step  : 0
  Time step     : 0.001
Per MPI rank memory allocation (min/avg/max) = 8.147 | 8.171 | 8.187 Mbytes
Step Temp E_pair E_mol TotEng Press 
       0         1200   -231368.92            0   -228604.97    921.01944 
   50000    1196.7519   -231407.46            0      -228651     55.52704 
Loop time of 335.269 on 52 procs for 50000 steps with 17820 atoms

Performance: 12.885 ns/day, 1.863 hours/ns, 149.134 timesteps/s
99.8% CPU use with 52 MPI tasks x 1 OpenMP threads

MPI task timing breakdown:
Section |  min time  |  avg time  |  max time  |%varavg| %total
---------------------------------------------------------------
Pair    | 217.36     | 224.92     | 230.03     |  16.3 | 67.09
Bond    | 0.0033548  | 0.0051408  | 0.007992   |   1.4 |  0.00
Kspace  | 69.027     | 75.235     | 85.173     |  36.1 | 22.44
Neigh   | 20.823     | 22.954     | 24.539     |  17.1 |  6.85
Comm    | 9.1582     | 9.8934     | 10.597     |  11.9 |  2.95
Output  | 5.5616e-05 | 6.1792e-05 | 0.00030615 |   0.0 |  0.00
Modify  | 1.0407     | 1.5134     | 2.5276     |  35.5 |  0.45
Other   |            | 0.7497     |            |       |  0.22

Nlocal:        342.692 ave         367 max         314 min
Histogram: 1 1 5 6 9 9 11 7 1 2
Nghost:        3997.27 ave        4102 max        3883 min
Histogram: 1 6 1 8 10 9 3 7 2 5
Neighs:        68476.4 ave       72999 max       60518 min
Histogram: 1 1 1 4 6 8 9 9 8 5

Total # of neighbors = 3560773
Ave neighs/atom = 199.81891
Ave special neighs/atom = 0.0000000
Neighbor list builds = 10991
Dangerous builds = 0
11880 atoms in group oxygen
PPPM initialization ...
  using 12-bit tables for long-range coulomb (../kspace.cpp:328)
  G vector (1/distance) = 0.2985213
  grid = 40 240 40
  stencil order = 5
  estimated absolute RMS force accuracy = 0.00015939683
  estimated relative force accuracy = 1.1069497e-05
  using single precision MKL FFT
  3d grid and FFT values/proc = 15000 7600
Setting up Verlet run ...
  Unit style    : metal
  Current step  : 0
  Time step     : 0.001
Per MPI rank memory allocation (min/avg/max) = 8.398 | 8.422 | 8.438 Mbytes
Step f_2 Temp v_Tdiff v_deltaT 
       0            0    1196.7519            0            0 
  100000    1296.3281    1195.0188  0.048297494    560.72942 
  200000    2530.7743    1189.3258  0.056927421    660.92207 
  300000    3767.9259    1196.3828  0.055002379    638.57252 
  400000    5008.2822    1197.0922   0.05398817    626.79764 
  500000    6255.8892    1195.0277  0.055262507    641.59258 
  600000    7493.3974    1197.7292   0.05637042    654.45534 
  700000    8726.8576    1201.3236  0.054677319     634.7986 
  800000    9974.6748    1195.1133  0.055863483    648.56985 
  900000    11215.888    1200.9903  0.055965938    649.75935 
 1000000     12456.76    1195.9711  0.055226266    641.17182 
Loop time of 6684.76 on 52 procs for 1000000 steps with 17820 atoms

Performance: 12.925 ns/day, 1.857 hours/ns, 149.594 timesteps/s
99.8% CPU use with 52 MPI tasks x 1 OpenMP threads

MPI task timing breakdown:
Section |  min time  |  avg time  |  max time  |%varavg| %total
---------------------------------------------------------------
Pair    | 4336       | 4460.2     | 4575.3     |  73.2 | 66.72
Bond    | 0.061366   | 0.10113    | 0.1777     |   6.8 |  0.00
Kspace  | 1366.3     | 1497.1     | 1639       | 134.3 | 22.40
Neigh   | 449.67     | 490.04     | 522        |  63.0 |  7.33
Comm    | 180.21     | 201.65     | 219.94     |  66.5 |  3.02
Output  | 0.0011388  | 0.0012172  | 0.0023256  |   0.5 |  0.00
Modify  | 5.799      | 6.2444     | 7.0339     |  10.8 |  0.09
Other   |            | 29.46      |            |       |  0.44

Nlocal:        342.692 ave         365 max         320 min
Histogram: 2 2 5 3 14 11 7 2 3 3
Nghost:        4002.23 ave        4135 max        3903 min
Histogram: 4 7 8 5 9 3 6 8 1 1
Neighs:        68473.8 ave       72607 max       62565 min
Histogram: 2 2 0 6 7 7 14 5 6 3

Total # of neighbors = 3560640
Ave neighs/atom = 199.81145
Ave special neighs/atom = 0.0000000
Neighbor list builds = 234768
Dangerous builds = 0
Total wall time: 1:57:00
