LAMMPS (29 Oct 2020)
OMP_NUM_THREADS environment is not set. Defaulting to 1 thread. (../comm.cpp:94)
  using 1 OpenMP thread(s) per MPI task
#-------------------------
#
#This script is used to create different concentrations of vacancies in thorium dioxide
#By Ziqiang Wang on 07/03/2023
#
#-------------------------

clear
OMP_NUM_THREADS environment is not set. Defaulting to 1 thread. (../comm.cpp:94)
  using 1 OpenMP thread(s) per MPI task
units                        metal
dimension                        3
boundary                     p p p
atom_style                   full
atom_modify                  map array

read_data                   perfect_relaxed.dat
Reading data file ...
  orthogonal box = (0.036967065 0.39996549 0.036967048) to (27.303033 327.68003 27.303033)
  2 by 13 by 2 MPI processor grid
  reading atoms ...
  18000 atoms
  reading velocities ...
  18000 velocities
Finding 1-2 1-3 1-4 neighbors ...
  special bond factors lj:    0.0      0.0      0.0     
  special bond factors coul:  0.0      0.0      0.0     
     0 = max # of 1-2 neighbors
     0 = max # of 1-3 neighbors
     0 = max # of 1-4 neighbors
     1 = max # of special neighbors
  special bonds CPU = 0.003 seconds
  read_data CPU = 0.347 seconds

# randomly create vacancies in the relaxed perfect crystal
variable                   vac_ratio  equal   0.02
group                      U_delete   id   3122  6781  6772 14486 14476 14485  2931  6529  2930 11126 11175 14716                                             13408  9806 13465 11521  7862 11512  6964  3374  7033  1779  1778  5377                                            10309 10299 10240  9652  6002  9661 13972 10370 10371 16562 16611  2212                                            12651 12602 12652 17776 14174 14175 13995 17596 17605  9302  9352  9351                                            6242  6241  6292  2173  2176  2174 15986 15975 15985  8739  8737  8678                                             17017 17008 17018   469   412 14810  9769  9712  9771  2799  2738  6397                                            8703  8714  8713 12002 12111 15661  9938  9997  9999  1934  1923  5533                                             14620 14677 11018  2534  2593  2524  3770  3819  3829  5260  5257  5259                                            16828 16887 16885 14162 14271 17821  4528  4587  4538  9628  9626  9625                                            6603 10213  6554 13707 17248 17317  6745  6747  6748  3326  6928  3327
120 atoms in group U_delete

group                      O_delete   id   3177  3178  3180  3238  3174  3176 14481 14482 10878 10880 10824 10832                                             2875  2876  2868  2926  2925  2927 11121 11122 11119 11120 11118 11124                                            9810  9812  9801  9802  9804  9862  7920  7978  7917  7918  7914  7916                                             3366  3368  3369  3370  3372  3380  1723  1724  1773  1774  1716  1782                                             6648  6656 10243 10244  6642  6644  6054  6056  6057  6058  6060  6118                                             10374 10376 10365 10366 10315 10316 16617 16618 16555 16556 16614 16616                                            12595 12596 12657 12658  9054  9056 14178 14180 14169 14170 14119 14120                                            13939 13940 13998 14000 13944 13952  9357  9358  5754  5756  9295  9296                                            6297  6298  2640  2698  2694  2696  2111  2119  2177  2179  2169  2170                                             15981 15982 15919 15920 12324 12332  8683  8684  5076  5084  8673  8674                                            13356 13364 13410 13412 17013 17014 14808 14816 14814 14818 14805 14806                                            6108  6116  6114  6120  9715  9716  2743  2744  2733  2734  2736  2794                                             8647  8648  8709  8710  5052  5060 12057 12058 12055 12056 12060 12118                                             9933  9934  6336  6344  9943  9944  1929  1930  1867  1868  1872  1880                                             11022 11024 11016 11074 11013 11014  2529  2530  2531  2539  2525  2527                                            3765  3766  3763  3764   168   176  1662  1664  1596  1604  5203  5204                                             13230 13232 16831 16832 13224 13282 14217 14218 14215 14216 14220 14278                                            930   932  4531  4532  4533  4534  6030  6032  9621  9622  5964  5972                                              6547  6548  6552  6560  6549  6550 13651 13652 13650 13654 13656 13664                                             3084  3092  6691  6692  3150  3152  3321  3322  3330  3332  3271  3272
240 atoms in group O_delete

group                       delete      union   U_delete O_delete
360 atoms in group delete
delete_atoms                group       delete
WARNING: Ignoring 'compress yes' for molecular system (../delete_atoms.cpp:125)
Deleted 360 atoms, new total = 17640

set                         type    1      charge   -1.1104
Setting atom values ...
  11760 settings made for charge
set                         type    2      charge    2.2208
Setting atom values ...
  5880 settings made for charge

kspace_style                pppm     1.0e-05
pair_style                  hybrid/overlay    coul/long   11.0  eam/alloy
pair_coeff                  * * coul/long
pair_coeff                  * * eam/alloy CeThUNpPuAmCmO.eam.alloy O U
neighbor                    2.0  bin
neigh_modify                every  1  delay  0  check  yes

# fully relaxing the defect configuration at 0K
fix                box_relax  all  box/relax aniso 0.0 vmax 0.001
min_style          cg
minimize           1.0e-30 1.0e-30 10000 10000
PPPM initialization ...
  using 12-bit tables for long-range coulomb (../kspace.cpp:328)
  G vector (1/distance) = 0.30035472
  grid = 40 240 40
  stencil order = 5
  estimated absolute RMS force accuracy = 0.00014415173
  estimated relative force accuracy = 1.0010784e-05
  using single precision MKL FFT
  3d grid and FFT values/proc = 18225 7600
Neighbor list info ...
  update every 1 steps, delay 0 steps, check yes
  max neighbors/atom: 2000, page size: 100000
  master list distance cutoff = 13
  ghost atom cutoff = 13
  binsize = 6.5, bins = 5 51 5
  2 neighbor lists, perpetual/occasional/extra = 2 0 0
  (1) pair coul/long, perpetual
      attributes: half, newton on
      pair build: half/bin/newton
      stencil: half/bin/3d/newton
      bin: standard
  (2) pair eam/alloy, perpetual, copy from (1)
      attributes: half, newton on
      pair build: copy
      stencil: none
      bin: none
Per MPI rank memory allocation (min/avg/max) = 9.487 | 10.24 | 10.29 Mbytes
Step Temp E_pair E_mol TotEng Press Volume 
       0            0   -237692.66            0   -237692.66   -5887.9706    243312.55 
    5064            0   -238557.69            0   -238557.69    20.712921    243961.67 
Loop time of 101.09 on 52 procs for 5064 steps with 17640 atoms

99.8% CPU use with 52 MPI tasks x 1 OpenMP threads

Minimization stats:
  Stopping criterion = max force evaluations
  Energy initial, next-to-last, final = 
     -237692.664872363   -238557.66796329  -238557.690032036
  Force two-norm initial, final = 1563.7636 58.864334
  Force max component initial, final = 962.41579 43.816129
  Final line search alpha, max atom move = 1.0974246e-05 0.00048084899
  Iterations, force evaluations = 5064 10000

MPI task timing breakdown:
Section |  min time  |  avg time  |  max time  |%varavg| %total
---------------------------------------------------------------
Pair    | 59.785     | 63.368     | 66.787     |  17.2 | 62.68
Bond    | 0.00093927 | 0.0012405  | 0.0019913  |   0.6 |  0.00
Kspace  | 14.723     | 18.144     | 21.745     |  32.2 | 17.95
Neigh   | 0.064534   | 0.072589   | 0.081815   |   1.2 |  0.07
Comm    | 1.4653     | 1.5096     | 1.5496     |   1.4 |  1.49
Output  | 0          | 0          | 0          |   0.0 |  0.00
Modify  | 0          | 0          | 0          |   0.0 |  0.00
Other   |            | 17.99      |            |       | 17.80

Nlocal:        339.231 ave         379 max         309 min
Histogram: 2 4 10 7 9 10 3 4 1 2
Nghost:        5591.63 ave        5764 max        5309 min
Histogram: 1 1 3 6 7 4 8 6 9 7
Neighs:       112302.0 ave      127258 max       99735 min
Histogram: 1 4 9 6 12 8 7 2 1 2

Total # of neighbors = 5839728
Ave neighs/atom = 331.05034
Ave special neighs/atom = 0.0000000
Neighbor list builds = 26
Dangerous builds = 0
unfix              box_relax

# apply the temperature into the system and relaxing at the temperature of interest
reset_atom_ids
Resetting atom IDs ...
PPPM initialization ...
  using 12-bit tables for long-range coulomb (../kspace.cpp:328)
  G vector (1/distance) = 0.30030802
  grid = 40 240 40
  stencil order = 5
  estimated absolute RMS force accuracy = 0.00014450714
  estimated relative force accuracy = 1.0035465e-05
  using single precision MKL FFT
  3d grid and FFT values/proc = 18225 7600
Finding 1-2 1-3 1-4 neighbors ...
  special bond factors lj:    0.0      0.0      0.0     
  special bond factors coul:  0.0      0.0      0.0     
     0 = max # of 1-2 neighbors
     0 = max # of 1-3 neighbors
     0 = max # of 1-4 neighbors
     1 = max # of special neighbors
  special bonds CPU = 0.001 seconds
variable                    temp      equal    600
velocity                    all  create   ${temp}  4542  dist  gaussian  rot  yes  mom  yes
velocity                    all  create   600  4542  dist  gaussian  rot  yes  mom  yes
fix                         npt  all  npt  temp  ${temp}  ${temp}  $(100*dt) aniso  0.0  0.0  $(1000*dt)
fix                         npt  all  npt  temp  600  ${temp}  $(100*dt) aniso  0.0  0.0  $(1000*dt)
fix                         npt  all  npt  temp  600  600  $(100*dt) aniso  0.0  0.0  $(1000*dt)
fix                         npt  all  npt  temp  600  600  0.10000000000000000555 aniso  0.0  0.0  $(1000*dt)
fix                         npt  all  npt  temp  600  600  0.10000000000000000555 aniso  0.0  0.0  1

thermo                      50000
thermo_style                custom   step dt time atoms temp pe ke press vol

shell                       mkdir vac_${vac_ratio}_${temp}K
shell                       mkdir vac_0.02_${temp}K
shell                       mkdir vac_0.02_600K
dump                        1  all  custom  50000  ./vac_${vac_ratio}_${temp}K/dump_relax.atom.* id type q x y z
dump                        1  all  custom  50000  ./vac_0.02_${temp}K/dump_relax.atom.* id type q x y z
dump                        1  all  custom  50000  ./vac_0.02_600K/dump_relax.atom.* id type q x y z
dump_modify                 1  element  O  U

run                         100000
PPPM initialization ...
  using 12-bit tables for long-range coulomb (../kspace.cpp:328)
  G vector (1/distance) = 0.30030802
  grid = 40 240 40
  stencil order = 5
  estimated absolute RMS force accuracy = 0.00014450714
  estimated relative force accuracy = 1.0035465e-05
  using single precision MKL FFT
  3d grid and FFT values/proc = 18225 7600
Per MPI rank memory allocation (min/avg/max) = 9.119 | 9.140 | 9.160 Mbytes
Step Dt Time Atoms Temp PotEng KinEng Press Volume 
    5064        0.001            0    17640          600   -238557.69    1368.0118    6010.0939    243961.67 
   50000        0.001       44.936    17640    595.10651    -237279.5    1356.8546    1211.8907    247966.49 
  100000        0.001       94.936    17640    589.13765    -237307.4    1343.2455   -567.82009    248148.38 
  105064        0.001          100    17640    598.28291   -237287.44    1364.0968    468.38119    248023.96 
Loop time of 790.018 on 52 procs for 100000 steps with 17640 atoms

Performance: 10.936 ns/day, 2.194 hours/ns, 126.579 timesteps/s
99.8% CPU use with 52 MPI tasks x 1 OpenMP threads

MPI task timing breakdown:
Section |  min time  |  avg time  |  max time  |%varavg| %total
---------------------------------------------------------------
Pair    | 487.54     | 517.07     | 537.89     |  43.6 | 65.45
Bond    | 0.0081278  | 0.013835   | 0.021112   |   2.8 |  0.00
Kspace  | 144.34     | 165.4      | 195.33     |  77.9 | 20.94
Neigh   | 2.3407     | 2.5971     | 2.7588     |   5.5 |  0.33
Comm    | 15.645     | 16.103     | 16.395     |   5.0 |  2.04
Output  | 0.012422   | 0.012445   | 0.01298    |   0.1 |  0.00
Modify  | 77.557     | 82.733     | 86.63      |  25.1 | 10.47
Other   |            | 6.091      |            |       |  0.77

Nlocal:        339.231 ave         366 max         311 min
Histogram: 1 0 4 12 11 7 4 9 3 1
Nghost:        5582.00 ave        5741 max        5329 min
Histogram: 1 2 3 6 7 5 5 9 5 9
Neighs:       111746.0 ave      120612 max       97633 min
Histogram: 1 0 0 4 14 8 6 9 7 3

Total # of neighbors = 5810807
Ave neighs/atom = 329.41083
Ave special neighs/atom = 0.0000000
Neighbor list builds = 920
Dangerous builds = 0
shell                       mkdir thermal_condu
write_data                  thermal_condu/vac_${vac_ratio}_relaxed.dat
write_data                  thermal_condu/vac_0.02_relaxed.dat
System init for write_data ...
PPPM initialization ...
  using 12-bit tables for long-range coulomb (../kspace.cpp:328)
  G vector (1/distance) = 0.30002194
  grid = 40 240 40
  stencil order = 5
  estimated absolute RMS force accuracy = 0.00014667383
  estimated relative force accuracy = 1.0185934e-05
  using single precision MKL FFT
  3d grid and FFT values/proc = 18225 7600
Total wall time: 0:14:51
