LAMMPS (29 Oct 2020)
OMP_NUM_THREADS environment is not set. Defaulting to 1 thread. (../comm.cpp:94)
  using 1 OpenMP thread(s) per MPI task
OMP_NUM_THREADS environment is not set. Defaulting to 1 thread. (../comm.cpp:94)
  using 1 OpenMP thread(s) per MPI task
Reading data file ...
  orthogonal box = (-0.32102895 -3.8423747 -0.31245959) to (27.661029 331.92237 27.652460)
  2 by 13 by 2 MPI processor grid
  reading atoms ...
  17640 atoms
  reading velocities ...
  17640 velocities
Finding 1-2 1-3 1-4 neighbors ...
  special bond factors lj:    0.0      0.0      0.0     
  special bond factors coul:  0.0      0.0      0.0     
     0 = max # of 1-2 neighbors
     0 = max # of 1-3 neighbors
     0 = max # of 1-4 neighbors
     1 = max # of special neighbors
  special bonds CPU = 0.005 seconds
  read_data CPU = 0.083 seconds
Setting atom values ...
  11760 settings made for charge
Setting atom values ...
  5880 settings made for charge
PPPM initialization ...
  using 12-bit tables for long-range coulomb (../kspace.cpp:328)
  G vector (1/distance) = 0.29897865
  grid = 40 240 40
  stencil order = 5
  estimated absolute RMS force accuracy = 0.00015489138
  estimated relative force accuracy = 1.0756611e-05
  using single precision MKL FFT
  3d grid and FFT values/proc = 15000 7600
Neighbor list info ...
  update every 1 steps, delay 0 steps, check yes
  max neighbors/atom: 2000, page size: 100000
  master list distance cutoff = 11.3
  ghost atom cutoff = 11.3
  binsize = 5.65, bins = 5 60 5
  2 neighbor lists, perpetual/occasional/extra = 2 0 0
  (1) pair coul/long, perpetual
      attributes: half, newton on
      pair build: half/bin/newton
      stencil: half/bin/3d/newton
      bin: standard
  (2) pair eam/alloy, perpetual, copy from (1)
      attributes: half, newton on
      pair build: copy
      stencil: none
      bin: none
Setting up Verlet run ...
  Unit style    : metal
  Current step  : 0
  Time step     : 0.001
Per MPI rank memory allocation (min/avg/max) = 8.154 | 8.185 | 8.206 Mbytes
Step Temp E_pair E_mol TotEng Press 
       0          300   -231211.64            0   -230527.63   -134.43286 
   50000     297.3825   -231209.45            0   -230531.41    441.75431 
Loop time of 319.994 on 52 procs for 50000 steps with 17640 atoms

Performance: 13.500 ns/day, 1.778 hours/ns, 156.253 timesteps/s
99.8% CPU use with 52 MPI tasks x 1 OpenMP threads

MPI task timing breakdown:
Section |  min time  |  avg time  |  max time  |%varavg| %total
---------------------------------------------------------------
Pair    | 210.39     | 219.49     | 229.9      |  31.4 | 68.59
Bond    | 0.0031277  | 0.0048845  | 0.0091234  |   1.5 |  0.00
Kspace  | 66.887     | 77.824     | 86.793     |  53.6 | 24.32
Neigh   | 10.228     | 11.978     | 13.162     |  17.7 |  3.74
Comm    | 7.7376     | 8.4863     | 9.275      |  13.1 |  2.65
Output  | 4.9683e-05 | 5.5103e-05 | 0.0002651  |   0.0 |  0.00
Modify  | 1.0289     | 1.5125     | 2.5305     |  40.3 |  0.47
Other   |            | 0.6948     |            |       |  0.22

Nlocal:        339.231 ave         367 max         317 min
Histogram: 3 3 2 12 14 9 3 2 2 2
Nghost:        4159.10 ave        4317 max        3959 min
Histogram: 4 0 7 5 0 11 9 0 12 4
Neighs:        67537.6 ave       73743 max       58238 min
Histogram: 2 2 4 2 1 6 20 8 4 3

Total # of neighbors = 3511954
Ave neighs/atom = 199.09036
Ave special neighs/atom = 0.0000000
Neighbor list builds = 5763
Dangerous builds = 0
11760 atoms in group oxygen
PPPM initialization ...
  using 12-bit tables for long-range coulomb (../kspace.cpp:328)
  G vector (1/distance) = 0.29897865
  grid = 40 240 40
  stencil order = 5
  estimated absolute RMS force accuracy = 0.00015489138
  estimated relative force accuracy = 1.0756611e-05
  using single precision MKL FFT
  3d grid and FFT values/proc = 15000 7600
Setting up Verlet run ...
  Unit style    : metal
  Current step  : 0
  Time step     : 0.001
Per MPI rank memory allocation (min/avg/max) = 8.405 | 8.435 | 8.456 Mbytes
Step f_2 Temp v_Tdiff v_deltaT 
       0            0     297.3825            0            0 
  100000    358.20091     297.8352 0.0072384356    84.037565 
  200000    709.04243    300.31804 0.0077520231    90.000268 
  300000    1059.2888    297.29017 0.0080453863    93.406188 
  400000    1408.2932    299.23587 0.0077318024    89.765508 
  500000    1759.8129    299.18881 0.0080161424    93.066669 
  600000    2108.7712    297.94862   0.00810147    94.057314 
  700000    2459.2003    300.39534 0.0075577729    87.745042 
  800000    2811.3973    297.64236  0.007698656    89.380681 
  900000    3162.7545    300.78857  0.008025084     93.17048 
 1000000    3517.2419    297.87838 0.0076747033    89.102592 
Loop time of 6393.45 on 52 procs for 1000000 steps with 17640 atoms

Performance: 13.514 ns/day, 1.776 hours/ns, 156.410 timesteps/s
99.9% CPU use with 52 MPI tasks x 1 OpenMP threads

MPI task timing breakdown:
Section |  min time  |  avg time  |  max time  |%varavg| %total
---------------------------------------------------------------
Pair    | 4173.4     | 4390.1     | 4600.9     | 145.9 | 68.67
Bond    | 0.065618   | 0.098641   | 0.16479    |   6.7 |  0.00
Kspace  | 1337       | 1553.9     | 1766.3     | 246.1 | 24.31
Neigh   | 206.82     | 243.72     | 267.66     |  79.3 |  3.81
Comm    | 155.48     | 170.5      | 184.04     |  55.0 |  2.67
Output  | 0.0010846  | 0.0011497  | 0.0023732  |   0.5 |  0.00
Modify  | 5.5008     | 6.1183     | 6.6846     |  10.8 |  0.10
Other   |            | 28.98      |            |       |  0.45

Nlocal:        339.231 ave         369 max         315 min
Histogram: 2 3 5 11 13 7 5 3 1 2
Nghost:        4162.27 ave        4309 max        3973 min
Histogram: 4 1 4 7 0 12 8 3 9 4
Neighs:        67539.5 ave       74582 max       57085 min
Histogram: 1 4 2 1 2 15 11 8 5 3

Total # of neighbors = 3512056
Ave neighs/atom = 199.09615
Ave special neighs/atom = 0.0000000
Neighbor list builds = 116931
Dangerous builds = 0
Total wall time: 1:51:53
