LAMMPS (29 Oct 2020)
OMP_NUM_THREADS environment is not set. Defaulting to 1 thread. (../comm.cpp:94)
  using 1 OpenMP thread(s) per MPI task
OMP_NUM_THREADS environment is not set. Defaulting to 1 thread. (../comm.cpp:94)
  using 1 OpenMP thread(s) per MPI task
Reading data file ...
  orthogonal box = (-0.31479556 -3.9077564 -0.31872584) to (27.654796 331.98776 27.658726)
  2 by 13 by 2 MPI processor grid
  reading atoms ...
  17640 atoms
  reading velocities ...
  17640 velocities
Finding 1-2 1-3 1-4 neighbors ...
  special bond factors lj:    0.0      0.0      0.0     
  special bond factors coul:  0.0      0.0      0.0     
     0 = max # of 1-2 neighbors
     0 = max # of 1-3 neighbors
     0 = max # of 1-4 neighbors
     1 = max # of special neighbors
  special bonds CPU = 0.003 seconds
  read_data CPU = 0.055 seconds
Setting atom values ...
  11760 settings made for charge
Setting atom values ...
  5880 settings made for charge
PPPM initialization ...
  using 12-bit tables for long-range coulomb (../kspace.cpp:328)
  G vector (1/distance) = 0.29896826
  grid = 40 240 40
  stencil order = 5
  estimated absolute RMS force accuracy = 0.00015499025
  estimated relative force accuracy = 1.0763477e-05
  using single precision MKL FFT
  3d grid and FFT values/proc = 15000 7600
Neighbor list info ...
  update every 1 steps, delay 0 steps, check yes
  max neighbors/atom: 2000, page size: 100000
  master list distance cutoff = 11.3
  ghost atom cutoff = 11.3
  binsize = 5.65, bins = 5 60 5
  2 neighbor lists, perpetual/occasional/extra = 2 0 0
  (1) pair coul/long, perpetual
      attributes: half, newton on
      pair build: half/bin/newton
      stencil: half/bin/3d/newton
      bin: standard
  (2) pair eam/alloy, perpetual, copy from (1)
      attributes: half, newton on
      pair build: copy
      stencil: none
      bin: none
Setting up Verlet run ...
  Unit style    : metal
  Current step  : 0
  Time step     : 0.001
Per MPI rank memory allocation (min/avg/max) = 8.162 | 8.186 | 8.203 Mbytes
Step Temp E_pair E_mol TotEng Press 
       0          300   -231135.25            0   -230451.25   -901.99312 
   50000    301.32004   -231124.31            0   -230437.29   -543.44996 
Loop time of 319.52 on 52 procs for 50000 steps with 17640 atoms

Performance: 13.520 ns/day, 1.775 hours/ns, 156.485 timesteps/s
99.8% CPU use with 52 MPI tasks x 1 OpenMP threads

MPI task timing breakdown:
Section |  min time  |  avg time  |  max time  |%varavg| %total
---------------------------------------------------------------
Pair    | 213.51     | 219.98     | 229.95     |  22.4 | 68.85
Bond    | 0.0032427  | 0.0051457  | 0.0077653  |   1.5 |  0.00
Kspace  | 66.364     | 76.806     | 83.995     |  40.2 | 24.04
Neigh   | 11.02      | 11.923     | 13.002     |  15.4 |  3.73
Comm    | 7.9944     | 8.6017     | 9.8172     |  14.9 |  2.69
Output  | 5.5612e-05 | 6.6129e-05 | 0.00027325 |   0.0 |  0.00
Modify  | 1.0687     | 1.5095     | 2.4023     |  34.4 |  0.47
Other   |            | 0.6991     |            |       |  0.22

Nlocal:        339.231 ave         364 max         319 min
Histogram: 3 4 9 5 9 9 6 2 2 3
Nghost:        4169.10 ave        4280 max        4035 min
Histogram: 4 3 7 2 0 11 12 3 3 7
Neighs:        67341.1 ave       73212 max       61174 min
Histogram: 2 3 6 6 10 6 8 5 3 3

Total # of neighbors = 3501736
Ave neighs/atom = 198.51111
Ave special neighs/atom = 0.0000000
Neighbor list builds = 5751
Dangerous builds = 0
11760 atoms in group oxygen
PPPM initialization ...
  using 12-bit tables for long-range coulomb (../kspace.cpp:328)
  G vector (1/distance) = 0.29896826
  grid = 40 240 40
  stencil order = 5
  estimated absolute RMS force accuracy = 0.00015499025
  estimated relative force accuracy = 1.0763477e-05
  using single precision MKL FFT
  3d grid and FFT values/proc = 15000 7600
Setting up Verlet run ...
  Unit style    : metal
  Current step  : 0
  Time step     : 0.001
Per MPI rank memory allocation (min/avg/max) = 8.413 | 8.437 | 8.454 Mbytes
Step f_2 Temp v_Tdiff v_deltaT 
       0            0    301.32004            0            0 
  100000    360.09947    301.49806 0.0073414991    85.234123 
  200000    717.24254     304.4208 0.0082610726    95.910286 
  300000    1072.2284     304.2877 0.0080011882    92.893052 
  400000    1432.1086    302.32463 0.0082639263    95.943416 
  500000    1790.3968    302.62881 0.0086244121    100.12862 
  600000    2144.5908     303.3414 0.0083894478     97.40071 
  700000    2502.8007    305.44794 0.0083873202    97.376009 
  800000    2859.8672    305.19098 0.0082610733    95.910294 
  900000    3223.1147    304.68344 0.0081535044    94.661429 
 1000000    3581.0127    304.58306 0.0081227453    94.304318 
Loop time of 6388.27 on 52 procs for 1000000 steps with 17640 atoms

Performance: 13.525 ns/day, 1.775 hours/ns, 156.537 timesteps/s
99.9% CPU use with 52 MPI tasks x 1 OpenMP threads

MPI task timing breakdown:
Section |  min time  |  avg time  |  max time  |%varavg| %total
---------------------------------------------------------------
Pair    | 4261.5     | 4403.1     | 4603.1     | 101.6 | 68.92
Bond    | 0.068449   | 0.10013    | 0.18658    |   7.8 |  0.00
Kspace  | 1319.4     | 1533.2     | 1679.9     | 183.1 | 24.00
Neigh   | 226.28     | 244.73     | 268.11     |  68.2 |  3.83
Comm    | 160.33     | 173.25     | 195.47     |  64.7 |  2.71
Output  | 0.0011798  | 0.0012453  | 0.0023708  |   0.5 |  0.00
Modify  | 5.4005     | 6.1246     | 6.716      |  10.6 |  0.10
Other   |            | 27.81      |            |       |  0.44

Nlocal:        339.231 ave         371 max         322 min
Histogram: 7 7 7 10 10 4 3 2 0 2
Nghost:        4193.19 ave        4282 max        4068 min
Histogram: 7 1 5 3 4 0 11 1 10 10
Neighs:        67341.6 ave       74451 max       61244 min
Histogram: 4 4 3 10 8 8 9 3 2 1

Total # of neighbors = 3501765
Ave neighs/atom = 198.51276
Ave special neighs/atom = 0.0000000
Neighbor list builds = 117584
Dangerous builds = 0
Total wall time: 1:51:48
