ITEM: TIMESTEP
20000
ITEM: NUMBER OF ATOMS
18000
ITEM: BOX BOUNDS pp pp pp
-3.9593098735870119e-01 2.7735930987358106e+01
-4.6528387074559925e+00 3.3273283870745360e+02
-3.9187756183728295e-01 2.7731877561837347e+01
ITEM: ATOMS id type q x y z
1 2 2.2208 5.25358 0.918144 5.27773
2 1 -1.1104 1.11602 -3.35723 0.985366
3 1 -1.1104 0.775139 2.34441 1.09884
6 1 -1.1104 1.01466 -3.44272 3.90114
7 1 -1.1104 0.991443 2.19376 3.98261
10 1 -1.1104 1.0514 -0.443763 1.00552
12 2 2.2208 5.37763 -1.96142 2.54276
13 2 2.2208 5.30861 3.68741 2.57295
14 1 -1.1104 1.08697 -0.618709 3.88506
16 1 -1.1104 3.81494 -3.41448 1.23077
17 1 -1.1104 3.82712 2.35026 1.02574
18 2 2.2208 2.50926 0.839537 2.4362
19 1 -1.1104 3.76721 -3.29047 3.90672
20 1 -1.1104 3.93858 2.27502 3.83187
21 2 2.2208 2.41747 -1.95682 5.30736
22 2 2.2208 2.36158 3.73375 5.41485
23 1 -1.1104 3.86339 -0.651501 0.991579
24 1 -1.1104 4.00767 -0.513752 3.82965
5 1 -1.1104 6.61333 2.21515 1.16116
11 1 -1.1104 6.75156 -0.489041 0.979564
15 1 -1.1104 6.74789 -0.428824 3.85301
202 2 2.2208 2.45543 -4.7834 8.05204
655 2 2.2208 13.6091 9.39025 -0.49719
563 2 2.2208 2.35292 3.68874 -0.340406
8 1 -1.1104 6.68595 -3.27076 4.04321
312 2 2.2208 -0.326814 17.8478 10.7821
711 2 2.2208 13.4414 14.887 -0.253914
628 2 2.2208 5.22752 12.0987 -0.384596
9 1 -1.1104 6.71166 2.44919 3.94426
4 1 -1.1104 6.72863 -3.19346 1.23668
31 2 2.2208 10.7912 0.882015 5.26311
32 1 -1.1104 12.4147 -3.13958 1.03575
33 1 -1.1104 12.3743 2.12331 1.02797
34 1 -1.1104 11.971 -3.28919 3.7498
35 1 -1.1104 12.2818 2.20747 3.74381
36 1 -1.1104 12.3041 -0.419125 0.920244
37 2 2.2208 10.8042 -1.86833 2.43965
38 2 2.2208 10.9968 3.68841 2.42461
39 1 -1.1104 12.312 -0.569933 3.78548
40 1 -1.1104 9.58396 -3.39159 1.15544
41 1 -1.1104 9.4969 2.3124 1.19873
42 2 2.2208 8.04701 1.14323 2.59682
43 1 -1.1104 9.3967 -3.31606 3.71616
44 1 -1.1104 9.46834 2.37906 4.02607
45 2 2.2208 8.08299 -1.9228 5.21275
46 2 2.2208 8.16407 3.82401 5.28506
47 1 -1.1104 9.51236 -0.311099 1.09314
48 1 -1.1104 9.38026 -0.367835 3.86593
591 2 2.2208 10.7929 1.02498 -0.439766
232 2 2.2208 10.8836 -4.76241 11.0564
30 2 2.2208 -0.314221 -4.64814 5.40427
165 2 2.2208 13.7337 17.8113 2.37661
595 2 2.2208 10.7796 -4.76708 -0.456805
321 1 -1.1104 9.29225 19.1793 12.1852
9539 2 2.2208 13.6135 9.38372 10.749
54 2 2.2208 5.19279 6.42305 5.25114
55 2 2.2208 5.13279 12.0771 5.26771
56 1 -1.1104 0.883598 8.046 1.03857
58 1 -1.1104 0.797064 7.84815 3.73731
60 1 -1.1104 0.88299 5.26349 0.873782
61 1 -1.1104 0.916859 10.8734 0.868293
66 2 2.2208 5.22302 9.36012 2.52681
67 1 -1.1104 0.931675 4.9994 3.82445
68 1 -1.1104 1.0964 10.7252 3.89329
71 1 -1.1104 3.71292 7.68562 1.00489
72 2 2.2208 2.41736 6.52388 2.35196
73 2 2.2208 2.3298 12.1391 2.40568
74 1 -1.1104 3.70691 7.95223 3.70037
75 2 2.2208 2.40484 9.23315 5.10553
76 1 -1.1104 3.82578 5.05998 0.945828
77 1 -1.1104 3.59029 10.456 0.929727
79 1 -1.1104 3.78076 4.9767 3.77775
80 1 -1.1104 3.77674 10.6065 3.90259
63 1 -1.1104 6.82944 5.12193 1.30969
681 2 2.2208 5.09014 17.8387 -0.411152
627 2 2.2208 2.40645 9.26812 -0.545332
28 2 2.2208 2.46131 -4.75019 2.46424
59 1 -1.1104 6.42911 7.99203 4.00375
57 1 -1.1104 6.66337 8.04219 1.28331
316 2 2.2208 8.06907 20.6596 10.8968
69 1 -1.1104 6.86135 5.30759 3.9216
64 1 -1.1104 6.50154 10.794 1.17209
70 1 -1.1104 6.73666 10.7579 4.0422
84 2 2.2208 10.8957 6.65759 5.27736
85 2 2.2208 10.7331 12.3075 5.23932
86 1 -1.1104 12.293 7.97383 0.935011
87 1 -1.1104 12.099 7.927 3.79693
88 1 -1.1104 12.4215 5.22048 0.975026
89 1 -1.1104 12.2255 10.6659 0.922517
91 2 2.2208 10.8062 9.40256 2.36519
92 1 -1.1104 12.4181 5.07319 3.82865
93 1 -1.1104 12.3343 10.8091 3.55731
94 1 -1.1104 9.3879 7.9307 0.918855
95 2 2.2208 8.22949 6.63091 2.28792
96 2 2.2208 7.92958 12.1474 2.58544
97 1 -1.1104 9.42139 7.89414 3.90868
98 2 2.2208 7.97893 9.15691 5.46328
99 1 -1.1104 9.52484 5.10127 0.973002
100 1 -1.1104 9.29903 10.7064 1.09842
102 1 -1.1104 9.67028 5.06604 3.82339
103 1 -1.1104 9.55222 10.8308 3.71474
651 2 2.2208 10.8742 6.55148 -0.367245
652 2 2.2208 7.9781 9.36528 -0.386097
333 2 2.2208 13.5451 14.9819 10.8885
331 2 2.2208 10.7306 17.8385 10.9813
706 2 2.2208 8.0176 20.4951 -0.249356
106 2 2.2208 5.1699 17.7013 5.2891
107 1 -1.1104 1.04091 13.715 1.12479
109 1 -1.1104 0.798477 19.0333 1.09443
113 1 -1.1104 1.00032 13.514 3.99707
114 1 -1.1104 1.04433 19.3892 3.93755
116 1 -1.1104 1.02719 16.3351 1.15742
119 2 2.2208 5.12388 15.1181 2.30534
120 2 2.2208 5.26367 20.7969 2.55523
121 1 -1.1104 0.870018 16.2298 4.02649
123 1 -1.1104 3.70233 13.4336 1.18219
125 1 -1.1104 3.46739 19.2773 1.03779
127 2 2.2208 2.1942 17.7396 2.44281
128 1 -1.1104 3.70458 13.5813 3.9162
129 1 -1.1104 4.10483 19.2661 3.75782
130 2 2.2208 2.3803 14.8344 5.29755
131 2 2.2208 2.45176 20.6744 5.34142
132 1 -1.1104 3.62083 16.5078 0.94172
134 1 -1.1104 3.823 16.4612 3.84234
710 2 2.2208 13.7681 20.6509 -0.307958
138 1 -1.1104 6.55343 19.1387 0.945058
682 2 2.2208 2.35558 14.9977 -0.426497
139 1 -1.1104 6.78992 19.2294 3.83054
115 1 -1.1104 6.38528 13.6139 4.01147
110 1 -1.1104 6.87845 13.6529 1.22676
315 1 -1.1104 9.34153 16.368 12.2523
9553 2 2.2208 -0.506438 6.44626 10.8651
154 1 -1.1104 9.43268 13.4355 6.66739
140 1 -1.1104 6.55964 16.3255 0.79151
122 1 -1.1104 6.67183 16.4482 3.66574
707 2 2.2208 10.7318 17.878 -0.335352
9458 2 2.2208 13.6269 3.76233 10.9056
141 2 2.2208 10.7239 17.8403 5.29745
142 1 -1.1104 12.1878 13.4805 1.08158
144 1 -1.1104 12.2149 19.0583 1.12526
146 1 -1.1104 12.2865 13.4527 3.93473
147 1 -1.1104 12.121 19.0877 3.77167
148 1 -1.1104 12.1408 16.2786 0.977112
150 2 2.2208 10.7443 14.8876 2.40835
151 2 2.2208 10.7996 20.6166 2.45651
152 1 -1.1104 12.0462 16.1018 3.81035
153 1 -1.1104 9.32385 13.5749 1.03994
155 1 -1.1104 9.28664 19.1721 1.22406
157 2 2.2208 8.02292 17.7916 2.48066
158 1 -1.1104 9.31653 13.5623 3.72685
159 1 -1.1104 9.51151 19.1939 3.94265
160 2 2.2208 7.91917 14.9064 5.25459
161 2 2.2208 8.00515 20.5827 5.33798
162 1 -1.1104 9.38583 16.3133 1.06758
164 1 -1.1104 9.38806 16.4559 4.04518
375 2 2.2208 2.4836 0.782744 13.6544
156 1 -1.1104 9.36518 19.3607 6.83213
111 1 -1.1104 6.59237 13.4568 6.71034
174 1 -1.1104 3.85218 -0.544912 6.68561
169 1 -1.1104 6.7698 2.32393 6.74077
168 1 -1.1104 6.70928 -3.18592 6.88499
166 1 -1.1104 1.11019 -3.30739 6.67799
172 1 -1.1104 4.02146 -3.34994 6.69344
170 1 -1.1104 1.02122 -0.513145 6.7925
167 1 -1.1104 0.936312 2.19305 6.59835
173 1 -1.1104 3.76312 2.33969 6.64566
175 2 2.2208 5.36006 0.847739 10.8665
176 1 -1.1104 0.980529 -3.44044 12.2875
177 1 -1.1104 0.993882 2.10785 12.3651
180 1 -1.1104 0.913147 -3.22457 9.55656
181 1 -1.1104 0.84741 2.17299 9.42804
184 1 -1.1104 1.00288 -0.707884 12.1918
186 2 2.2208 5.20409 -1.91631 7.9967
187 2 2.2208 5.28795 3.6029 8.07336
188 1 -1.1104 1.04056 -0.432412 9.4875
190 1 -1.1104 3.86951 -3.25476 12.456
191 1 -1.1104 3.76286 2.22984 12.1245
192 2 2.2208 2.46289 0.849265 7.99278
193 1 -1.1104 3.74538 -3.47674 9.58967
194 1 -1.1104 4.02385 2.24212 9.4044
195 2 2.2208 2.43885 -1.93452 10.895
196 2 2.2208 2.26461 3.52326 10.7973
197 1 -1.1104 3.99245 -0.551377 12.36
198 1 -1.1104 3.8701 -0.775933 9.40758
171 1 -1.1104 6.59673 -0.579895 6.73064
178 1 -1.1104 6.48847 -3.37046 12.4618
182 1 -1.1104 6.67228 -3.36578 9.5405
183 1 -1.1104 6.78628 2.16889 9.55694
185 1 -1.1104 6.69114 -0.497815 12.1826
137 2 2.2208 -0.355654 17.6945 5.45221
179 1 -1.1104 6.69263 2.14233 12.4701
210 1 -1.1104 9.5373 -0.519804 6.60096
189 1 -1.1104 6.71129 -0.550735 9.27551
206 1 -1.1104 12.2655 2.09486 6.65938
208 1 -1.1104 9.53049 -3.39259 6.63559
207 1 -1.1104 12.3072 -0.673529 6.52573
205 1 -1.1104 12.3831 -3.50223 6.63616
209 1 -1.1104 9.5099 2.23582 6.61111
211 2 2.2208 10.8787 1.02254 10.695
212 1 -1.1104 12.2722 -3.25496 12.2269
213 1 -1.1104 12.2235 2.36558 12.2586
214 1 -1.1104 12.347 -3.35441 9.45105
215 1 -1.1104 12.1796 2.20053 9.2868
216 1 -1.1104 12.3003 -0.373417 12.2552
217 2 2.2208 10.9245 -1.91953 8.18646
218 2 2.2208 10.8284 3.80429 8.03928
219 1 -1.1104 12.2108 -0.567084 9.40474
220 1 -1.1104 9.26855 -3.21343 12.3455
221 1 -1.1104 9.52302 2.20454 12.0643
222 2 2.2208 8.17758 0.874836 7.928
223 1 -1.1104 9.64088 -3.44492 9.46388
224 1 -1.1104 9.36819 2.56536 9.31702
225 2 2.2208 8.05731 -1.88066 10.8272
226 2 2.2208 8.13669 3.73066 10.9042
227 1 -1.1104 9.53613 -0.562481 12.0906
228 1 -1.1104 9.45292 -0.459928 9.28747
708 2 2.2208 8.13395 14.9859 -0.294435
50 2 2.2208 13.6118 -2.06079 5.12782
239 1 -1.1104 3.63597 5.03453 6.56937
234 1 -1.1104 0.900983 7.80553 6.44407
62 1 -1.1104 0.746393 10.7316 6.83855
78 1 -1.1104 3.71349 10.529 6.63067
238 1 -1.1104 3.68968 7.72558 6.77367
236 1 -1.1104 0.64769 4.97046 6.63914
240 2 2.2208 5.13479 6.42288 10.8644
241 2 2.2208 5.21577 12.0988 10.8352
242 1 -1.1104 0.924358 7.74964 12.392
244 1 -1.1104 0.634269 7.77405 9.30708
246 1 -1.1104 1.04802 5.12539 12.3096
247 1 -1.1104 1.0462 10.6763 12.1887
250 2 2.2208 5.09275 9.28247 8.08937
251 1 -1.1104 0.867333 4.87762 9.4076
252 1 -1.1104 0.964183 10.454 9.44
255 1 -1.1104 3.88613 8.02203 12.1252
256 2 2.2208 2.15237 6.43197 7.94487
257 2 2.2208 2.33836 12.0048 8.08609
258 1 -1.1104 3.39134 7.76082 9.53278
259 2 2.2208 2.34825 9.27414 10.9558
260 1 -1.1104 3.80865 5.12587 12.2115
261 1 -1.1104 3.87431 10.7535 12.3392
262 1 -1.1104 3.62182 5.0006 9.38767
263 1 -1.1104 3.63925 10.6704 9.45064
243 1 -1.1104 6.60695 7.7746 12.1846
248 1 -1.1104 6.63261 4.97208 12.3622
253 1 -1.1104 6.6607 5.07918 9.44593
237 1 -1.1104 6.45966 5.12036 6.60434
320 2 2.2208 8.01761 17.849 8.2448
65 1 -1.1104 6.64401 10.7519 6.77467
235 1 -1.1104 6.49624 7.86487 6.89009
249 1 -1.1104 6.61328 10.7863 12.2289
245 1 -1.1104 6.39037 7.76544 9.54351
254 1 -1.1104 6.42846 10.7068 9.31755
9535 2 2.2208 13.632 12.2016 8.01289
269 1 -1.1104 9.32856 5.26046 6.61549
267 1 -1.1104 9.44785 7.99541 6.65373
90 1 -1.1104 12.1145 10.8697 6.61087
266 1 -1.1104 12.1101 5.18795 6.7151
265 1 -1.1104 12.364 8.00837 6.57489
101 1 -1.1104 9.52004 10.581 6.5267
264 1 -1.1104 9.23854 10.7087 9.40276
268 1 -1.1104 9.47199 5.22341 9.30359
270 1 -1.1104 9.25248 10.7595 12.3185
271 1 -1.1104 9.38015 5.09342 12.3902
272 2 2.2208 7.84639 9.30983 10.7376
273 1 -1.1104 9.33748 8.0618 9.51922
274 2 2.2208 8.03042 12.163 8.07768
275 2 2.2208 7.93275 6.42954 8.09061
276 2 2.2208 10.7073 6.70514 10.7756
277 2 2.2208 10.8031 12.1931 10.9676
278 1 -1.1104 12.3434 7.9074 12.2054
279 1 -1.1104 12.2613 8.178 9.45355
280 1 -1.1104 12.1333 5.29466 12.3969
281 1 -1.1104 12.0361 10.6863 12.0858
282 2 2.2208 10.7982 9.56724 8.1398
283 1 -1.1104 12.268 5.26893 9.58508
284 1 -1.1104 12.2229 10.8386 9.24752
285 1 -1.1104 9.45188 7.7841 12.2744
149 1 -1.1104 12.2018 16.4028 6.73201
319 1 -1.1104 9.35485 13.4489 9.32963
133 1 -1.1104 3.74455 16.4531 6.64225
297 1 -1.1104 6.51563 13.6243 12.1599
117 1 -1.1104 1.06389 16.4192 6.86265
108 1 -1.1104 0.917038 13.4453 6.90371
302 1 -1.1104 1.08938 19.2733 6.64804
126 1 -1.1104 4.05563 19.2255 6.56649
124 1 -1.1104 3.81966 13.5338 6.66405
290 1 -1.1104 6.63876 13.3715 9.48653
286 1 -1.1104 3.94545 19.1741 12.408
287 1 -1.1104 3.65972 13.5715 12.4262
291 1 -1.1104 1.04102 19.1644 9.30962
292 1 -1.1104 1.04999 16.361 9.58153
293 2 2.2208 5.36325 20.5404 8.14853
294 1 -1.1104 1.00339 13.4946 9.49802
295 2 2.2208 5.10129 14.8327 8.11557
298 1 -1.1104 1.06087 19.3631 12.1923
299 1 -1.1104 0.974501 13.4658 12.16
300 2 2.2208 5.19478 17.7745 10.8641
301 1 -1.1104 3.80661 19.194 9.61606
303 2 2.2208 2.5954 17.8435 8.06212
304 1 -1.1104 3.72866 16.2664 9.38549
305 1 -1.1104 3.68967 13.408 9.62474
307 1 -1.1104 0.988366 16.3544 12.4069
308 1 -1.1104 3.77728 16.4169 12.3473
309 2 2.2208 2.47697 20.6628 11.0497
310 2 2.2208 2.44007 14.8826 10.9082
289 1 -1.1104 6.52469 16.3218 9.56411
326 1 -1.1104 12.0922 16.5742 12.4351
317 2 2.2208 7.96964 15.006 10.8716
163 1 -1.1104 9.27735 16.3543 6.8774
322 1 -1.1104 9.22199 13.6688 12.1515
329 1 -1.1104 12.0982 19.2648 12.1757
327 1 -1.1104 12.2294 19.172 9.52798
145 1 -1.1104 12.2507 19.2675 6.6671
325 2 2.2208 10.7804 14.9493 8.05467
314 1 -1.1104 9.42395 16.5678 9.55017
324 2 2.2208 10.8384 20.7219 8.1657
318 1 -1.1104 9.55537 19.4876 9.6171
323 1 -1.1104 12.1414 16.3575 9.49535
328 1 -1.1104 12.1401 13.6879 9.5865
143 1 -1.1104 12.1514 13.5247 6.66697
330 1 -1.1104 12.1679 13.617 12.33
112 1 -1.1104 6.63264 19.1194 6.78813
288 1 -1.1104 6.54625 19.1422 9.59767
296 1 -1.1104 6.85082 19.2809 12.4757
118 1 -1.1104 6.61295 16.4362 6.49624
306 1 -1.1104 6.56847 16.3827 12.1526
9534 2 2.2208 13.7263 6.57401 8.08533
601 2 2.2208 13.836 3.88105 -0.368553
104 2 2.2208 13.8474 12.1448 2.47881
26 2 2.2208 -0.541792 0.927964 5.2349
9352 2 2.2208 13.626 9.41012 5.23905
25 2 2.2208 -0.406757 -2.03503 2.44633
9400 2 2.2208 13.5673 20.5757 5.29993
332 2 2.2208 13.65 17.7926 8.02628
200 2 2.2208 -0.284346 -1.99715 8.09577
135 2 2.2208 -0.387858 14.8433 2.53853
9421 2 2.2208 13.5271 14.8485 5.3929
49 2 2.2208 13.5971 0.822677 2.51516
569 2 2.2208 -0.483207 0.871611 -0.401852
506 2 2.2208 2.44626 17.7903 13.6589
373 2 2.2208 2.43437 -4.58221 13.7025
9695 2 2.2208 -0.283938 3.62926 13.5983
407 2 2.2208 8.19538 0.742675 13.5402
408 2 2.2208 10.8561 -1.89684 13.7318
680 2 2.2208 2.34209 20.6154 -0.33328
443 2 2.2208 2.43899 6.40418 13.597
472 2 2.2208 7.90233 12.049 13.5462
592 2 2.2208 8.21139 -1.84349 -0.240512
507 2 2.2208 5.37948 20.6239 13.7595
9652 2 2.2208 13.71 0.908124 13.6134
562 2 2.2208 2.41882 -2.09854 -0.463218
561 2 2.2208 5.19437 0.857802 -0.316108
653 2 2.2208 10.7846 12.0844 -0.267594
533 2 2.2208 10.9551 20.6401 13.6796
534 2 2.2208 10.6777 14.9614 13.6483
593 2 2.2208 7.96737 3.51275 -0.24443
334 2 2.2208 5.29774 0.84494 16.4211
335 1 -1.1104 0.8854 -3.41404 17.8321
336 1 -1.1104 0.940434 2.28263 17.847
339 1 -1.1104 0.830057 -3.34722 15.0804
341 1 -1.1104 0.955715 2.0595 15.0783
347 1 -1.1104 1.06705 -0.553894 17.8149
349 2 2.2208 5.03664 -1.97416 19.2333
350 2 2.2208 5.09229 3.74479 19.3184
351 1 -1.1104 1.01874 -0.739561 15.1131
355 1 -1.1104 3.67896 -3.37187 18.0185
356 1 -1.1104 3.73703 2.36472 17.8428
357 2 2.2208 2.43903 0.964116 19.2548
358 1 -1.1104 3.87268 -3.61098 15.1891
360 1 -1.1104 3.78467 2.05746 14.8919
362 2 2.2208 2.34579 -2.04226 16.5296
364 1 -1.1104 3.79756 -0.591976 17.8319
365 1 -1.1104 3.97861 -0.708373 15.1004
363 2 2.2208 2.28466 3.64771 16.4122
338 1 -1.1104 6.59791 2.31872 17.909
9723 2 2.2208 13.6307 6.53261 19.4624
9792 2 2.2208 13.65 15.111 16.5299
401 2 2.2208 13.6455 -4.63933 19.3012
337 1 -1.1104 6.62401 -3.26766 18.0698
343 1 -1.1104 6.54208 -3.34692 15.2608
345 1 -1.1104 6.60392 2.22938 15.1344
9794 2 2.2208 13.5723 17.72 19.3785
713 2 2.2208 13.5737 14.948 22.1296
687 1 -1.1104 9.41711 16.3762 26.3845
348 1 -1.1104 6.73492 -0.465795 17.694
353 1 -1.1104 6.7758 -0.64728 14.9033
600 2 2.2208 13.7222 0.95694 25.0247
377 2 2.2208 10.988 0.81038 16.3411
378 1 -1.1104 12.2238 -3.23037 17.9827
379 1 -1.1104 12.2319 2.36018 17.8091
380 1 -1.1104 12.5188 -3.24899 15.2002
382 1 -1.1104 12.2443 2.23665 14.9045
384 1 -1.1104 12.5463 -0.552263 17.9932
385 2 2.2208 10.8448 -2.03728 19.3886
386 2 2.2208 10.8746 3.62091 19.2383
387 1 -1.1104 12.1758 -0.56705 15.1052
389 1 -1.1104 9.30667 -3.35916 17.8057
390 1 -1.1104 9.48547 2.40601 17.7489
391 2 2.2208 7.96074 0.895534 19.3817
392 1 -1.1104 9.45769 -3.28182 15.1119
394 1 -1.1104 9.44043 2.38552 14.8349
396 2 2.2208 8.00367 -1.968 16.547
398 1 -1.1104 9.64367 -0.37457 17.8681
399 1 -1.1104 9.38985 -0.598759 14.9896
9726 2 2.2208 13.5768 12.1148 13.6259
370 2 2.2208 -0.361968 0.814771 16.5451
690 2 2.2208 8.1418 15.0413 22.2646
9914 2 2.2208 13.6161 9.48041 22.0307
513 1 -1.1104 12.1301 13.4814 20.7197
397 2 2.2208 7.9417 3.70782 16.4732
697 1 -1.1104 12.2058 16.4755 26.2997
388 1 -1.1104 12.1347 -0.296044 20.6549
9654 2 2.2208 13.6602 0.864775 19.301
410 2 2.2208 5.08635 6.38091 16.5898
411 2 2.2208 5.15075 12.049 16.451
412 1 -1.1104 0.806961 7.74318 17.9227
414 1 -1.1104 0.962822 7.86025 15.1411
418 1 -1.1104 0.860095 5.08856 17.8677
419 1 -1.1104 1.00124 10.7154 17.9592
422 2 2.2208 5.29503 9.32244 19.366
423 1 -1.1104 0.930685 5.01018 14.9783
425 1 -1.1104 0.991677 10.7312 15.2152
431 1 -1.1104 3.60741 7.72067 17.882
432 2 2.2208 2.38109 6.50068 19.2227
433 2 2.2208 2.37586 12.0807 19.2086
434 1 -1.1104 3.65966 7.85701 15.0205
436 2 2.2208 2.33968 9.28363 16.5732
437 1 -1.1104 3.56291 4.99646 17.8061
438 1 -1.1104 3.92828 10.5942 17.8314
439 1 -1.1104 3.71202 4.973 15.0193
441 1 -1.1104 3.75562 10.6774 15.0493
420 1 -1.1104 6.47627 5.10819 17.9481
416 1 -1.1104 6.61194 7.80459 14.9618
427 1 -1.1104 6.63327 4.94157 15.1754
444 2 2.2208 5.27578 9.19613 13.5912
445 2 2.2208 2.16907 12.1316 13.6918
429 1 -1.1104 6.62261 10.6167 15.0567
702 1 -1.1104 12.0671 13.519 26.329
413 1 -1.1104 6.37307 8.03224 17.944
421 1 -1.1104 6.67468 10.6311 17.9501
446 2 2.2208 10.7991 6.56749 16.5884
447 2 2.2208 10.5171 12.2038 16.4562
448 1 -1.1104 12.0483 7.98668 17.9381
449 1 -1.1104 12.2309 7.95389 15.1582
451 1 -1.1104 12.1772 5.0495 18.0187
452 1 -1.1104 12.3344 10.7633 17.7442
453 2 2.2208 10.6604 9.28025 19.2608
454 1 -1.1104 12.2677 5.21229 15.2688
456 1 -1.1104 12.3667 10.6087 14.9885
458 1 -1.1104 9.20622 7.98726 17.8172
459 2 2.2208 8.02282 6.47952 19.2952
460 2 2.2208 7.83395 12.0543 19.3071
461 1 -1.1104 9.48795 7.97146 15.0691
463 2 2.2208 7.85837 9.3304 16.3344
464 1 -1.1104 9.32037 5.25417 18.0279
465 1 -1.1104 9.52254 10.8874 17.9322
466 1 -1.1104 9.62666 5.1547 15.1399
468 1 -1.1104 9.29976 10.8044 15.2784
471 2 2.2208 10.7203 9.27109 13.7078
9722 2 2.2208 13.6423 9.22368 16.5241
470 2 2.2208 7.99363 6.48924 13.6717
527 1 -1.1104 9.46816 19.087 20.9189
376 2 2.2208 5.37846 3.53579 13.6174
371 2 2.2208 -0.407019 -1.84446 19.2079
9855 2 2.2208 13.6073 3.84954 22.2942
473 2 2.2208 5.13254 17.7491 16.5235
474 1 -1.1104 0.813925 13.4198 18.0037
475 1 -1.1104 0.775614 19.1945 17.7223
478 1 -1.1104 0.916048 13.5862 15.1018
480 1 -1.1104 1.04758 18.9955 15.0228
486 1 -1.1104 0.954615 16.317 17.8451
488 2 2.2208 5.17299 15.0021 19.3267
489 2 2.2208 5.23371 20.4179 19.2142
490 1 -1.1104 1.15732 16.3092 14.9845
494 1 -1.1104 3.68135 13.5634 18.0337
495 1 -1.1104 3.74752 19.0191 18.107
496 2 2.2208 2.23793 17.6217 19.2859
497 1 -1.1104 3.57872 13.4242 15.1908
499 1 -1.1104 3.87116 19.1503 15.1809
501 2 2.2208 2.30642 14.9171 16.5955
502 2 2.2208 2.46217 20.4056 16.5132
503 1 -1.1104 3.62739 16.3485 17.9863
504 1 -1.1104 3.91015 16.3038 15.066
477 1 -1.1104 6.55875 19.0913 17.839
484 1 -1.1104 6.65953 19.0632 15.05
409 2 2.2208 10.8231 3.67695 13.7168
9724 2 2.2208 13.6849 12.1324 19.1505
698 2 2.2208 10.9228 20.5691 25.0424
658 1 -1.1104 6.56454 13.3343 26.4676
696 1 -1.1104 9.37839 13.6384 23.5066
482 1 -1.1104 6.5501 13.4308 15.0371
492 1 -1.1104 6.6049 16.3071 15.0757
476 1 -1.1104 6.63668 13.5442 17.8881
487 1 -1.1104 6.45605 16.3845 17.8509
712 2 2.2208 13.6889 17.7651 25.068
509 2 2.2208 10.891 17.8527 16.4633
510 1 -1.1104 12.2359 13.654 17.8652
511 1 -1.1104 12.1101 19.0783 18.0083
512 1 -1.1104 11.8569 13.6012 14.9522
514 1 -1.1104 12.146 19.2289 14.9326
516 1 -1.1104 12.4158 16.2446 17.9388
517 2 2.2208 10.6346 14.9872 19.386
518 2 2.2208 10.7966 20.636 19.3624
519 1 -1.1104 12.2428 16.4029 15.1889
521 1 -1.1104 9.35738 13.6888 17.96
522 1 -1.1104 9.32431 19.3095 17.9221
523 2 2.2208 8.03356 17.8909 19.2622
524 1 -1.1104 9.17663 13.4574 15.0448
526 1 -1.1104 9.54408 19.2379 15.1457
528 2 2.2208 7.99268 15.0496 16.4135
529 2 2.2208 8.02368 20.6513 16.3598
530 1 -1.1104 9.57465 16.4278 17.9592
531 1 -1.1104 9.35733 16.3793 15.0949
654 2 2.2208 13.5773 12.1846 24.91
691 1 -1.1104 9.32062 19.0034 26.3421
685 2 2.2208 -0.497924 20.7769 24.9013
515 1 -1.1104 12.3063 19.1042 20.8005
520 1 -1.1104 12.171 16.3471 20.7187
701 1 -1.1104 12.1446 19.361 26.4551
9836 2 2.2208 -0.230396 14.9556 13.7596
354 1 -1.1104 6.50693 -0.492351 20.5735
359 1 -1.1104 3.74198 -3.24277 20.7617
361 1 -1.1104 3.71586 2.37111 20.7979
340 1 -1.1104 1.12348 -3.44311 20.648
366 1 -1.1104 3.5458 -0.395926 20.6865
342 1 -1.1104 0.825619 2.23463 20.8565
352 1 -1.1104 0.920702 -0.601122 20.7038
537 2 2.2208 5.05643 0.816714 22.1015
538 1 -1.1104 1.04117 -3.33513 23.6493
539 1 -1.1104 1.02925 2.09513 23.4949
542 1 -1.1104 0.847886 -3.47317 26.375
543 1 -1.1104 1.16325 2.20107 26.4243
546 1 -1.1104 0.97665 -0.633342 23.5513
548 2 2.2208 5.15406 -1.89521 25.0202
550 1 -1.1104 1.17719 -0.686126 26.3377
552 1 -1.1104 3.78162 -3.27618 23.5136
553 1 -1.1104 3.79949 2.24103 23.6304
554 2 2.2208 2.478 0.866631 24.9422
555 1 -1.1104 3.77339 -3.41742 26.3323
556 1 -1.1104 4.03184 2.24966 26.3245
557 2 2.2208 2.40644 -1.79759 22.1191
559 1 -1.1104 3.73821 -0.515882 23.4083
560 1 -1.1104 3.83399 -0.523944 26.3583
558 2 2.2208 2.29629 3.56147 22.172
545 1 -1.1104 6.58171 2.00292 26.2598
541 1 -1.1104 6.52042 2.39313 23.4698
549 2 2.2208 5.19077 3.7621 24.7922
547 1 -1.1104 6.52447 -0.571756 23.361
346 1 -1.1104 6.68662 2.29238 20.6376
688 1 -1.1104 9.37837 16.4485 23.4752
508 2 2.2208 5.07299 14.9836 13.5907
544 1 -1.1104 6.59853 -3.36089 26.4626
551 1 -1.1104 6.50485 -0.636976 26.3169
540 1 -1.1104 6.56098 -3.1908 23.5609
344 1 -1.1104 6.55495 -3.35502 20.5985
395 1 -1.1104 9.42919 2.46706 20.744
393 1 -1.1104 9.50133 -3.45357 20.7542
381 1 -1.1104 12.4375 -3.29442 20.7138
383 1 -1.1104 12.0662 2.51118 20.7952
400 1 -1.1104 9.29415 -0.567403 20.8022
573 2 2.2208 10.7946 1.06635 22.0805
574 1 -1.1104 12.1434 -3.3234 23.4289
575 1 -1.1104 12.2678 2.42896 23.6801
576 1 -1.1104 12.2316 -3.19295 26.5147
577 1 -1.1104 12.1478 2.45487 26.3731
578 1 -1.1104 12.3194 -0.392913 23.5949
579 2 2.2208 10.8035 -1.98739 25.027
581 1 -1.1104 12.3015 -0.388873 26.328
582 1 -1.1104 9.40757 -3.35828 23.5306
583 1 -1.1104 9.41741 2.27558 23.5907
584 2 2.2208 7.93978 0.755496 24.867
585 1 -1.1104 9.3085 -3.40559 26.2611
586 1 -1.1104 9.40029 2.14027 26.2398
587 2 2.2208 8.13461 -1.91002 22.2222
589 1 -1.1104 9.52062 -0.539407 23.429
590 1 -1.1104 9.51743 -0.493617 26.4016
580 2 2.2208 10.8584 3.79569 24.9708
588 2 2.2208 8.01375 3.8577 22.1081
704 1 -1.1104 12.2069 13.4261 23.4683
424 1 -1.1104 0.817383 4.91712 20.8111
426 1 -1.1104 0.988714 10.7475 20.6286
435 1 -1.1104 3.82035 7.95561 20.6373
440 1 -1.1104 3.75377 5.2257 20.746
415 1 -1.1104 0.879692 7.82295 20.6899
442 1 -1.1104 3.67237 10.6786 20.5585
417 1 -1.1104 6.70829 7.67077 20.8409
602 2 2.2208 5.25221 6.35396 22.126
603 2 2.2208 5.27882 12.1611 22.0726
604 1 -1.1104 1.1277 7.85855 23.3632
606 1 -1.1104 1.07209 7.96015 26.1382
608 1 -1.1104 0.95251 5.12726 23.6258
609 1 -1.1104 0.87777 10.6627 23.5042
612 2 2.2208 5.38038 9.22904 24.9128
613 1 -1.1104 0.827963 5.25906 26.2921
614 1 -1.1104 1.14247 10.7806 26.1734
617 1 -1.1104 3.96709 8.03154 23.346
618 2 2.2208 2.39769 6.56774 24.7835
619 2 2.2208 2.35858 12.1643 24.8103
620 1 -1.1104 3.81594 7.79988 26.1816
621 2 2.2208 2.44114 9.40466 22.0292
622 1 -1.1104 3.90943 5.02391 23.3591
623 1 -1.1104 3.78379 10.8049 23.2864
624 1 -1.1104 3.66127 4.98876 26.0506
625 1 -1.1104 3.90468 10.6284 26.395
616 1 -1.1104 6.65067 10.6229 26.3813
611 1 -1.1104 6.69662 10.6235 23.5884
610 1 -1.1104 6.61361 5.12415 23.6997
607 1 -1.1104 6.58597 7.78626 26.4929
428 1 -1.1104 6.63178 5.0084 20.6833
430 1 -1.1104 6.5121 10.6601 20.69
615 1 -1.1104 6.56923 5.04334 26.5585
605 1 -1.1104 6.65664 7.71902 23.644
462 1 -1.1104 9.25531 7.70722 20.8498
469 1 -1.1104 9.29274 10.6375 20.704
457 1 -1.1104 12.1175 10.7682 20.6053
455 1 -1.1104 12.3557 5.23286 20.8394
450 1 -1.1104 12.1671 8.05434 20.7097
467 1 -1.1104 9.45296 5.06342 20.7736
633 1 -1.1104 9.62454 10.7197 26.1865
634 1 -1.1104 9.30722 5.14508 26.5099
635 1 -1.1104 9.48963 10.6134 23.5152
636 1 -1.1104 9.47343 4.97578 23.5427
637 2 2.2208 8.05205 9.28539 22.2158
638 1 -1.1104 9.39909 8.00614 26.241
639 2 2.2208 8.04474 12.0127 24.8943
640 2 2.2208 8.08982 6.38479 25.0421
641 2 2.2208 10.6774 6.46966 22.1328
642 2 2.2208 10.9024 12.1048 22.1257
643 1 -1.1104 12.1486 7.93549 23.3927
644 1 -1.1104 12.1764 7.96024 26.2385
645 1 -1.1104 12.2164 5.21151 23.5838
646 1 -1.1104 12.2317 10.7455 23.6319
647 2 2.2208 10.8766 9.28788 24.9311
648 1 -1.1104 12.146 5.16361 26.3434
649 1 -1.1104 12.4026 10.8368 26.4884
650 1 -1.1104 9.3742 7.86274 23.5721
703 1 -1.1104 12.2381 19.0985 23.6873
525 1 -1.1104 9.24653 13.4926 20.8111
689 2 2.2208 7.99733 20.5307 22.2527
695 1 -1.1104 9.34889 19.2151 23.4576
664 1 -1.1104 6.60668 19.1304 23.2603
481 1 -1.1104 1.04912 19.1131 20.6115
483 1 -1.1104 6.49081 13.5365 20.5825
498 1 -1.1104 3.817 13.4965 20.7643
479 1 -1.1104 0.916833 13.5235 20.6616
667 1 -1.1104 6.69937 13.5792 23.6331
491 1 -1.1104 0.702607 16.3939 20.6707
505 1 -1.1104 3.7694 16.3994 20.7501
500 1 -1.1104 3.7721 19.2809 20.7314
674 1 -1.1104 3.69859 13.5288 26.2148
672 2 2.2208 2.2736 17.797 24.936
666 2 2.2208 5.23145 14.8196 25.0126
663 1 -1.1104 1.0354 13.5969 26.2405
679 2 2.2208 2.49565 14.9313 22.1712
678 2 2.2208 2.33154 20.6949 22.1148
677 1 -1.1104 3.78826 16.3764 23.655
670 2 2.2208 5.14491 17.8677 22.1173
669 1 -1.1104 0.909367 13.5045 23.3411
662 1 -1.1104 0.836436 16.3065 26.4533
673 1 -1.1104 3.74451 16.386 26.3966
671 1 -1.1104 3.57751 19.3882 26.5116
676 1 -1.1104 1.11509 16.2719 23.6231
665 2 2.2208 5.18184 20.6092 24.9955
661 1 -1.1104 0.815973 19.0672 26.1414
668 1 -1.1104 0.985317 19.0841 23.402
657 1 -1.1104 3.79266 19.3128 23.6652
659 1 -1.1104 3.78419 13.4594 23.4405
493 1 -1.1104 6.61478 16.4284 20.6976
693 1 -1.1104 6.53011 19.1379 26.2422
675 1 -1.1104 6.63088 16.3007 23.4837
699 2 2.2208 10.8834 14.8732 25.0974
692 1 -1.1104 9.36316 13.5055 26.4706
532 1 -1.1104 9.35999 16.4576 20.6015
700 1 -1.1104 12.1852 16.2371 23.5106
694 2 2.2208 7.88359 17.7367 24.946
660 1 -1.1104 6.47463 16.3477 26.4131
485 1 -1.1104 6.60265 19.2172 20.5748
705 2 2.2208 10.7553 17.788 22.1792
9721 2 2.2208 13.5612 6.51552 13.7232
535 2 2.2208 7.97733 17.8356 13.5338
626 2 2.2208 5.26407 6.43314 27.8794
536 2 2.2208 13.7457 18.0689 13.7123
374 2 2.2208 5.32718 -2.00164 13.7442
714 2 2.2208 5.16772 23.4734 5.53227
715 2 2.2208 5.1335 29.0812 5.41749
716 1 -1.1104 1.00848 24.7622 1.20797
717 1 -1.1104 0.925829 24.8535 3.91594
718 1 -1.1104 1.02527 22.0744 0.99194
719 1 -1.1104 1.02066 27.655 1.36716
720 2 2.2208 5.10582 26.1519 2.45889
721 1 -1.1104 1.03729 22.1466 3.80209
722 1 -1.1104 0.908936 27.5965 4.0686
723 1 -1.1104 3.82861 24.7854 1.0805
724 2 2.2208 2.31598 23.4599 2.49366
725 2 2.2208 2.44467 29.0992 2.59606
726 1 -1.1104 3.73097 24.8611 3.98048
727 2 2.2208 2.24323 26.1457 5.36391
728 1 -1.1104 3.95579 21.8908 1.05455
729 1 -1.1104 3.89908 27.6625 1.10999
730 1 -1.1104 3.6851 22.1583 3.78189
731 1 -1.1104 3.58458 27.551 3.86587
735 1 -1.1104 6.54328 24.8139 1.1452
1003 2 2.2208 -0.482384 43.2853 8.08674
1599 1 -1.1104 6.48944 47.3884 9.65215
740 1 -1.1104 6.46045 27.5735 4.03953
736 1 -1.1104 6.60499 24.8762 3.92353
857 1 -1.1104 1.00758 22.0283 6.87643
1243 2 2.2208 5.21477 23.2162 -0.402355
1303 2 2.2208 2.60679 31.8562 -0.186171
759 2 2.2208 13.6595 23.3791 2.42273
738 1 -1.1104 6.61271 27.4261 1.10558
737 1 -1.1104 6.66051 22.0516 1.08149
739 1 -1.1104 6.44812 22.0298 4.01764
1274 2 2.2208 8.16889 26.0468 -0.253718
1394 1 -1.1104 1.20106 47.2915 1.11101
741 2 2.2208 10.8001 23.374 5.31676
742 2 2.2208 10.9938 29.0879 5.39722
743 1 -1.1104 12.2488 24.7639 1.12921
744 1 -1.1104 12.3696 24.5688 3.9885
745 1 -1.1104 12.4717 21.9831 1.00521
746 1 -1.1104 12.2309 27.5368 0.945342
747 2 2.2208 10.8574 26.11 2.54569
748 1 -1.1104 12.0752 21.8311 3.79197
749 1 -1.1104 12.0407 27.4506 4.04444
750 1 -1.1104 9.48606 24.6482 1.09925
751 2 2.2208 7.94277 23.4715 2.45047
752 2 2.2208 8.04363 28.851 2.48047
753 1 -1.1104 9.4842 24.7991 3.85573
754 2 2.2208 7.96385 26.3526 5.3646
755 1 -1.1104 9.48098 21.8989 0.756012
756 1 -1.1104 9.33485 27.4127 1.19305
757 1 -1.1104 9.2605 21.9275 3.68665
758 1 -1.1104 9.3323 27.5845 3.91183
1244 2 2.2208 2.38242 26.0846 -0.212977
1335 2 2.2208 13.7297 31.9535 -0.33204
1019 1 -1.1104 12.2993 38.8647 12.0293
1608 1 -1.1104 3.80692 47.3301 12.1813
1622 1 -1.1104 12.3373 47.2612 6.62558
762 2 2.2208 5.23888 34.684 5.22385
763 1 -1.1104 0.988612 30.3919 1.19389
764 1 -1.1104 1.14656 35.9884 0.807069
766 1 -1.1104 1.02036 30.4707 3.94954
767 1 -1.1104 0.993005 36.028 3.66698
769 1 -1.1104 1.14255 33.2952 1.03105
770 2 2.2208 5.28933 31.8184 2.36531
771 2 2.2208 5.31558 37.5024 2.33964
772 1 -1.1104 0.932635 33.2726 3.97754
774 1 -1.1104 4.07378 30.2367 0.932793
775 1 -1.1104 3.86556 36.0883 1.04645
776 2 2.2208 2.48045 34.6931 2.31838
777 1 -1.1104 3.82139 30.3536 3.95871
778 1 -1.1104 3.81222 35.9808 3.77328
779 2 2.2208 2.38133 31.8538 5.50171
780 2 2.2208 2.476 37.5344 5.22873
781 1 -1.1104 3.81633 33.2351 1.2391
782 1 -1.1104 3.885 33.1892 3.88669
786 1 -1.1104 6.69308 30.3986 0.945044
773 1 -1.1104 6.61677 33.1293 3.74238
788 1 -1.1104 6.63143 33.4042 1.07888
768 1 -1.1104 6.73922 35.9018 3.85248
765 1 -1.1104 6.59421 36.0533 1.06428
913 1 -1.1104 0.870565 36.0087 6.48475
915 1 -1.1104 6.72358 36.185 6.87227
1027 1 -1.1104 12.2434 41.6262 12.3163
1333 2 2.2208 8.16702 31.8834 -0.378922
787 1 -1.1104 6.79575 30.3185 3.86254
1279 2 2.2208 10.8404 28.925 -0.417549
10336 2 2.2208 13.7601 23.3416 13.7031
789 2 2.2208 10.751 34.7139 5.38096
790 1 -1.1104 12.2538 30.7376 1.14375
791 1 -1.1104 12.2172 36.0739 0.973904
792 1 -1.1104 12.45 30.3397 3.96461
793 1 -1.1104 12.1543 36.1706 3.91383
794 1 -1.1104 12.1902 33.3775 1.10376
795 2 2.2208 10.784 31.8644 2.49487
796 2 2.2208 10.8483 37.5216 2.44022
797 1 -1.1104 12.0583 33.2222 3.81732
798 1 -1.1104 9.43437 30.2062 0.840536
799 1 -1.1104 9.34211 36.1389 1.01253
800 2 2.2208 8.06185 34.7357 2.41127
801 1 -1.1104 9.68216 30.4308 3.98183
802 1 -1.1104 9.50433 36.0117 3.94325
803 2 2.2208 8.01871 31.7471 5.21902
804 2 2.2208 8.05038 37.5077 5.19616
805 1 -1.1104 9.4705 33.2399 0.965365
806 1 -1.1104 9.29345 33.0884 3.79953
807 2 2.2208 13.6186 34.6632 2.39586
733 2 2.2208 -0.428388 23.4205 5.24873