ITEM: TIMESTEP
90000
ITEM: NUMBER OF ATOMS
18000
ITEM: BOX BOUNDS pp pp pp
-3.8911466320552179e-01 2.7729114663205749e+01
-4.8353883061645755e+00 3.3291538830615963e+02
-3.9616539437020992e-01 2.7736165394370524e+01
ITEM: ATOMS id type q x y z
1 2 2.2208 5.48001 0.57353 4.99515
2 1 -1.1104 1.22463 -3.51735 0.869785
6 1 -1.1104 1.19419 -3.65582 3.55998
10 1 -1.1104 1.13676 -0.762408 0.729767
12 2 2.2208 5.39525 -2.08756 2.24292
14 1 -1.1104 1.15096 -0.712459 3.67675
16 1 -1.1104 3.88206 -3.59413 0.908344
18 2 2.2208 2.59726 0.676246 2.25623
19 1 -1.1104 3.94266 -3.49679 3.52916
21 2 2.2208 2.5893 -2.14782 4.93063
23 1 -1.1104 4.12441 -0.709056 0.70824
24 1 -1.1104 4.21363 -0.7094 3.56436
3 1 -1.1104 1.18675 2.15238 0.84465
7 1 -1.1104 1.36889 2.139 3.58913
13 2 2.2208 5.33419 3.54799 2.1254
17 1 -1.1104 3.80789 2.05742 1.02531
20 1 -1.1104 4.05254 1.98073 3.60347
167 1 -1.1104 1.24137 2.23553 6.41887
27 2 2.2208 -0.165689 3.5444 2.26818
22 2 2.2208 2.68277 3.61875 4.98025
25 2 2.2208 -0.271074 -2.1226 2.34005
172 1 -1.1104 3.82847 -3.66179 6.20557
170 1 -1.1104 1.19008 -0.600435 6.37325
166 1 -1.1104 1.03454 -3.38812 6.36496
174 1 -1.1104 3.97837 -0.653573 6.37865
173 1 -1.1104 3.88386 2.03973 6.28548
26 2 2.2208 -0.176148 0.76676 4.9989
9553 2 2.2208 -0.326255 6.47315 10.6916
9552 2 2.2208 -0.0898081 9.23967 7.83363
534 2 2.2208 10.9884 14.6782 13.2425
15 1 -1.1104 6.74526 -0.736116 3.62117
11 1 -1.1104 6.82053 -0.616597 0.714807
8 1 -1.1104 6.77992 -3.53766 3.62957
171 1 -1.1104 7.03239 -0.716782 6.41917
168 1 -1.1104 6.56954 -3.59106 6.5026
5 1 -1.1104 6.67165 2.10693 0.766473
9 1 -1.1104 6.70539 2.19153 3.60477
4 1 -1.1104 6.67679 -3.51962 0.774282
31 2 2.2208 11.0301 0.6848 5.11035
32 1 -1.1104 12.3809 -3.41948 0.744824
34 1 -1.1104 12.4026 -3.30006 3.48109
36 1 -1.1104 12.3635 -0.57849 0.772955
37 2 2.2208 10.8161 -2.0608 2.17369
39 1 -1.1104 12.6204 -0.60402 3.5487
40 1 -1.1104 9.41405 -3.24322 0.825581
42 2 2.2208 8.20795 0.745541 2.18821
43 1 -1.1104 9.53758 -3.445 3.63934
45 2 2.2208 8.27217 -2.06258 4.86999
47 1 -1.1104 9.74876 -0.594482 0.676311
48 1 -1.1104 9.48718 -0.623714 3.49579
33 1 -1.1104 12.3289 2.27089 0.68736
35 1 -1.1104 12.4048 2.11837 3.5643
38 2 2.2208 10.9178 3.53021 2.28371
41 1 -1.1104 9.49165 2.15795 0.788472
44 1 -1.1104 9.42815 2.04776 3.67759
46 2 2.2208 8.12134 3.5035 5.10673
209 1 -1.1104 9.65175 2.11682 6.57849
206 1 -1.1104 12.4065 2.1167 6.53557
207 1 -1.1104 12.6471 -0.690921 6.40761
208 1 -1.1104 9.46149 -3.4996 6.42977
210 1 -1.1104 9.84412 -0.826487 6.33689
205 1 -1.1104 12.3672 -3.74139 6.18844
201 2 2.2208 -0.283615 0.785773 10.6909
82 2 2.2208 -0.157388 9.10456 2.11347
54 2 2.2208 5.48191 6.35132 5.04713
56 1 -1.1104 1.2125 7.72372 0.768233
58 1 -1.1104 1.08225 7.72939 3.49845
60 1 -1.1104 1.11206 4.95969 0.806523
67 1 -1.1104 1.17932 4.9915 3.72959
71 1 -1.1104 4.04776 7.90568 0.713053
72 2 2.2208 2.44254 6.37369 2.2454
74 1 -1.1104 4.02788 7.88783 3.45723
76 1 -1.1104 3.91655 4.93961 0.950783
79 1 -1.1104 4.0318 5.14213 3.63222
55 2 2.2208 5.4564 12.045 4.99704
61 1 -1.1104 1.16698 10.5906 0.818127
66 2 2.2208 5.39915 9.27356 2.07066
68 1 -1.1104 1.29595 10.4324 3.7341
73 2 2.2208 2.59763 11.9294 2.20357
75 2 2.2208 2.50606 8.97229 4.97498
77 1 -1.1104 3.96967 10.7037 0.896267
80 1 -1.1104 3.97476 10.4474 3.80028
234 1 -1.1104 1.09856 7.58447 6.25511
78 1 -1.1104 3.94794 10.528 6.55461
239 1 -1.1104 3.94029 4.96187 6.49017
238 1 -1.1104 3.9715 7.79914 6.30138
81 2 2.2208 -0.327536 6.38214 5.02545
83 2 2.2208 -0.0957054 11.8569 4.91311
62 1 -1.1104 1.29078 10.4024 6.55328
69 1 -1.1104 6.768 4.95766 3.58895
59 1 -1.1104 6.93592 7.79026 3.68192
235 1 -1.1104 6.79666 7.79317 6.33778
63 1 -1.1104 6.68133 5.10975 0.674808
64 1 -1.1104 6.87257 10.6732 0.881999
237 1 -1.1104 6.83865 5.09177 6.46892
57 1 -1.1104 6.86174 7.81382 0.847341
70 1 -1.1104 6.78919 10.7259 3.55066
84 2 2.2208 11.0141 6.23911 5.00628
86 1 -1.1104 12.5435 7.76453 0.849863
87 1 -1.1104 12.2104 7.74487 3.55857
88 1 -1.1104 12.3146 5.01811 0.766659
92 1 -1.1104 12.6016 4.91295 3.59379
94 1 -1.1104 9.59458 7.83258 0.838526
95 2 2.2208 8.20152 6.32336 2.19691
97 1 -1.1104 9.71412 7.54784 3.56694
99 1 -1.1104 9.41901 4.99834 0.803993
102 1 -1.1104 9.55567 4.63054 3.59015
85 2 2.2208 11.0252 11.9206 5.05872
89 1 -1.1104 12.5417 10.6668 0.696467
91 2 2.2208 11.0037 9.2803 2.18396
93 1 -1.1104 12.3586 10.6407 3.44446
96 2 2.2208 8.20448 12.0448 2.22192
98 2 2.2208 8.24496 9.19179 5.13052
100 1 -1.1104 9.73249 10.6606 1.0153
103 1 -1.1104 9.52632 10.6119 3.78759
65 1 -1.1104 6.72491 10.6454 6.33535
265 1 -1.1104 12.4798 7.70192 6.44317
90 1 -1.1104 12.4849 10.5759 6.28279
266 1 -1.1104 12.4653 4.92276 6.39648
269 1 -1.1104 9.61434 4.9474 6.30153
267 1 -1.1104 9.70369 7.65059 6.27092
101 1 -1.1104 9.64453 10.5438 6.58516
320 2 2.2208 8.09528 17.7863 7.7594
107 1 -1.1104 1.20406 13.5154 0.816846
113 1 -1.1104 1.3497 13.2294 3.67728
123 1 -1.1104 3.91453 13.5371 0.968176
128 1 -1.1104 4.24014 13.4974 3.76898
106 2 2.2208 5.25001 17.6419 4.86828
109 1 -1.1104 1.2953 19.1868 0.832471
114 1 -1.1104 1.1239 19.0205 3.64233
116 1 -1.1104 1.08775 16.355 0.688863
119 2 2.2208 5.34477 14.9018 2.09641
120 2 2.2208 5.51204 20.5106 2.30125
121 1 -1.1104 1.17892 16.1746 3.69075
125 1 -1.1104 4.14545 19.0547 0.894759
127 2 2.2208 2.47881 17.6208 2.18789
129 1 -1.1104 3.89504 19.1718 3.63488
130 2 2.2208 2.64004 14.8072 4.94697
131 2 2.2208 2.58263 20.6205 5.07614
132 1 -1.1104 3.80074 16.3694 0.675256
134 1 -1.1104 3.97553 16.4097 3.33963
133 1 -1.1104 4.0047 16.2656 6.2332
126 1 -1.1104 3.98841 18.8521 6.44456
117 1 -1.1104 1.33665 16.2606 6.45745
302 1 -1.1104 1.0256 18.9228 6.28013
137 2 2.2208 -0.271283 17.5998 4.95573
108 1 -1.1104 1.20181 13.4104 6.41057
312 2 2.2208 -0.0462119 17.6907 10.6611
110 1 -1.1104 6.66876 13.6804 0.553509
139 1 -1.1104 6.65837 19.136 3.5761
111 1 -1.1104 6.80108 13.5374 6.3617
138 1 -1.1104 6.725 19.194 0.684001
140 1 -1.1104 6.81283 16.3041 0.84925
115 1 -1.1104 6.89079 13.4905 3.43509
163 1 -1.1104 9.47981 16.4172 6.32212
122 1 -1.1104 6.72547 16.3211 3.62338
142 1 -1.1104 12.3919 13.3835 0.966991
146 1 -1.1104 12.3653 13.385 3.59104
153 1 -1.1104 9.55373 13.565 0.828024
158 1 -1.1104 9.63835 13.4777 3.69133
141 2 2.2208 10.9105 17.6343 4.99543
144 1 -1.1104 12.5014 18.8726 0.751383
147 1 -1.1104 12.6404 19.1832 3.64592
148 1 -1.1104 12.4197 16.1729 0.786526
150 2 2.2208 11.099 14.6742 2.33595
151 2 2.2208 11.1407 20.5182 2.22275
152 1 -1.1104 12.4555 16.0912 3.70121
155 1 -1.1104 9.59268 19.2465 0.832416
157 2 2.2208 8.14217 17.6906 2.24522
159 1 -1.1104 9.64721 19.0591 3.46833
160 2 2.2208 8.20086 14.8414 5.04447
161 2 2.2208 8.09525 20.4235 5.00567
162 1 -1.1104 9.41887 16.5179 0.692627
164 1 -1.1104 9.5418 16.2673 3.51491
154 1 -1.1104 9.63854 13.2556 6.38951
145 1 -1.1104 12.1588 19.1043 6.3539
112 1 -1.1104 6.86765 19.1705 6.4615
118 1 -1.1104 6.87654 16.3107 6.40257
149 1 -1.1104 12.2143 16.1187 6.52871
143 1 -1.1104 12.512 13.492 6.49105
156 1 -1.1104 9.47084 19.1493 6.33433
200 2 2.2208 -0.206073 -1.976 7.79207
374 2 2.2208 5.50293 -2.19701 13.4202
175 2 2.2208 5.32899 0.719958 10.7449
176 1 -1.1104 1.13733 -3.55527 12.0105
180 1 -1.1104 1.24464 -3.39129 9.29177
184 1 -1.1104 1.29508 -0.777327 12.2306
186 2 2.2208 5.40028 -2.11364 7.85935
188 1 -1.1104 1.06424 -0.656609 9.41767
190 1 -1.1104 4.25539 -3.32329 11.8894
192 2 2.2208 2.52388 0.774495 7.74323
193 1 -1.1104 3.9565 -3.69526 9.26912
195 2 2.2208 2.53068 -2.09587 10.7139
197 1 -1.1104 4.06162 -0.576936 12.1624
198 1 -1.1104 3.92486 -0.770617 9.28583
177 1 -1.1104 1.09287 2.16656 11.993
181 1 -1.1104 1.11979 2.12564 9.24404
187 2 2.2208 5.32511 3.6927 7.90794
191 1 -1.1104 4.03514 2.23556 11.9179
194 1 -1.1104 3.96385 2.10859 9.09227
196 2 2.2208 2.52268 3.63053 10.6446
376 2 2.2208 5.44827 3.57628 13.4615
375 2 2.2208 2.53969 0.468647 13.5713
372 2 2.2208 -0.351326 -1.99802 13.4783
199 2 2.2208 -0.183917 3.57719 7.82248
135 2 2.2208 -0.0442328 14.8339 2.23015
9695 2 2.2208 -0.215479 3.51851 13.3803
189 1 -1.1104 6.868 -0.614606 9.17645
169 1 -1.1104 6.83285 2.00419 6.30791
315 1 -1.1104 9.53625 16.1356 12.0594
178 1 -1.1104 6.92197 -3.49494 12.0089
179 1 -1.1104 6.76202 2.21191 12.0025
182 1 -1.1104 6.65284 -3.67235 9.2179
326 1 -1.1104 12.3835 16.2763 12.2532
407 2 2.2208 8.06512 0.662054 13.5303
185 1 -1.1104 6.81568 -0.79395 12.0322
183 1 -1.1104 6.66983 2.15693 9.23913
211 2 2.2208 10.8724 0.592789 10.525
212 1 -1.1104 12.4009 -3.50864 11.9948
214 1 -1.1104 12.5467 -3.54532 9.16077
216 1 -1.1104 12.3487 -0.620383 11.9306
217 2 2.2208 11.1191 -2.0898 7.70717
219 1 -1.1104 12.3747 -0.823633 9.06548
220 1 -1.1104 9.78832 -3.54506 11.9981
222 2 2.2208 8.21363 0.763879 7.90721
223 1 -1.1104 9.4685 -3.47065 9.11589
225 2 2.2208 8.17151 -2.17179 10.4104
227 1 -1.1104 9.56113 -0.5791 12.0282
228 1 -1.1104 9.45078 -0.603473 9.18152
213 1 -1.1104 12.3311 2.10851 12.0684
215 1 -1.1104 12.4585 1.85848 9.26403
218 2 2.2208 11.0889 3.50267 7.89142
221 1 -1.1104 9.49726 2.07835 12.0765
224 1 -1.1104 9.56937 2.13794 9.239
226 2 2.2208 8.14316 3.5449 10.5391
409 2 2.2208 11.0144 3.44088 13.4111
408 2 2.2208 11.0584 -1.98453 13.3768
236 1 -1.1104 1.31456 4.99343 6.44976
9767 2 2.2208 -0.241807 9.26349 13.3627
9545 2 2.2208 -0.21087 11.9772 10.7205
136 2 2.2208 -0.307642 20.3444 2.10673
331 2 2.2208 10.9792 17.5753 10.7823
445 2 2.2208 2.58032 11.9841 13.4527
444 2 2.2208 5.46458 9.18563 13.4408
240 2 2.2208 5.30849 6.41269 10.75
242 1 -1.1104 1.14113 7.91908 12.055
244 1 -1.1104 1.18662 7.66327 9.14738
246 1 -1.1104 1.14346 4.98118 11.9178
251 1 -1.1104 1.26707 4.79291 9.14832
255 1 -1.1104 3.87257 7.72162 11.9555
256 2 2.2208 2.49041 6.30088 7.76627
258 1 -1.1104 3.97569 7.85711 9.08713
260 1 -1.1104 4.04207 4.9504 12.1268
262 1 -1.1104 4.08332 5.12503 9.32344
241 2 2.2208 5.33725 12.0511 10.5942
247 1 -1.1104 1.12878 10.5359 12.0893
250 2 2.2208 5.33407 9.006 7.79424
252 1 -1.1104 1.25235 10.5881 9.2809
257 2 2.2208 2.73156 12.0317 7.89833
259 2 2.2208 2.50289 9.20767 10.5171
261 1 -1.1104 3.9732 10.7385 12.0355
263 1 -1.1104 4.07279 10.5154 9.31181
443 2 2.2208 2.58759 6.33573 13.388
243 1 -1.1104 6.77098 7.88351 12.0328
472 2 2.2208 8.17632 11.961 13.4626
248 1 -1.1104 6.85652 5.02507 11.9924
249 1 -1.1104 6.88896 10.7378 12.1468
254 1 -1.1104 6.81688 10.4129 9.1885
245 1 -1.1104 6.80136 7.83449 9.1634
253 1 -1.1104 6.9391 5.06666 9.10045
268 1 -1.1104 9.83608 4.98861 8.98596
271 1 -1.1104 9.60356 4.87456 11.8104
273 1 -1.1104 9.49681 7.84529 9.0378
275 2 2.2208 8.33826 6.42561 7.75113
276 2 2.2208 11.0566 6.25366 10.5922
278 1 -1.1104 12.5958 7.73461 11.9345
279 1 -1.1104 12.4026 7.714 9.13661
280 1 -1.1104 12.587 4.9039 12.098
283 1 -1.1104 12.4368 4.87734 9.39247
285 1 -1.1104 9.72551 7.68404 11.8843
264 1 -1.1104 9.7039 10.5705 9.41884
270 1 -1.1104 9.80843 10.4676 12.0785
272 2 2.2208 8.21115 9.21492 10.6052
274 2 2.2208 8.02786 11.84 7.83846
277 2 2.2208 10.9364 12.0669 10.6581
281 1 -1.1104 12.4508 10.6469 12.0526
282 2 2.2208 11.1608 9.22176 7.85721
284 1 -1.1104 12.5856 10.7227 9.13526
470 2 2.2208 8.17026 6.40988 13.3298
471 2 2.2208 11.1206 9.20176 13.4086
124 1 -1.1104 4.03858 13.3999 6.39918
332 2 2.2208 13.6074 17.6788 7.77753
506 2 2.2208 2.64803 17.7648 13.5765
508 2 2.2208 5.36653 14.935 13.4875
287 1 -1.1104 4.09067 13.5482 12.0084
294 1 -1.1104 1.38041 13.4624 9.24614
299 1 -1.1104 0.96847 13.3851 12.1813
305 1 -1.1104 3.96519 13.4299 9.31831
310 2 2.2208 2.63925 14.9745 10.6725
286 1 -1.1104 4.00623 19.0988 11.9092
291 1 -1.1104 1.09537 18.9826 9.27127
292 1 -1.1104 1.18229 16.2497 9.37219
293 2 2.2208 5.30549 20.5478 7.80616
295 2 2.2208 5.27469 14.9309 7.8121
298 1 -1.1104 1.13141 19.0942 12.0762
300 2 2.2208 5.35658 17.6155 10.469
301 1 -1.1104 3.93178 19.1066 9.07632
303 2 2.2208 2.49838 17.7333 7.85883
304 1 -1.1104 3.82489 16.2004 9.23064
307 1 -1.1104 1.25846 16.1317 12.1787
308 1 -1.1104 3.94541 16.3046 12.0241
309 2 2.2208 2.57224 20.6493 10.6487
507 2 2.2208 5.42228 20.5277 13.3048
9836 2 2.2208 -0.219409 14.8697 13.5711
313 2 2.2208 -0.101376 14.7898 7.78493
9837 2 2.2208 -0.156506 20.4273 13.4693
306 1 -1.1104 6.63982 16.3942 11.965
311 2 2.2208 -0.362393 20.4325 7.78123
323 1 -1.1104 12.101 16.3881 9.32538
321 1 -1.1104 9.69439 19.0415 12.1414
289 1 -1.1104 6.6704 16.1288 9.24601
327 1 -1.1104 12.4343 19.0642 9.2506
290 1 -1.1104 6.76715 13.2181 9.14713
296 1 -1.1104 6.97789 19.008 11.946
297 1 -1.1104 6.93602 13.5478 12.1215
533 2 2.2208 10.968 20.374 13.4525
535 2 2.2208 8.27144 17.5666 13.3846
319 1 -1.1104 9.47942 13.2886 9.29317
330 1 -1.1104 12.315 13.4138 11.9176
314 1 -1.1104 9.58602 16.2138 9.22486
316 2 2.2208 8.29866 20.3443 10.6214
325 2 2.2208 10.8027 14.8146 7.69381
324 2 2.2208 10.9707 20.4232 7.82978
318 1 -1.1104 9.49178 18.9074 9.22201
288 1 -1.1104 6.71163 19.1029 9.26944
317 2 2.2208 8.19187 14.7238 10.5913
328 1 -1.1104 12.4099 13.4314 9.20423
322 1 -1.1104 9.55232 13.2672 12.1014
329 1 -1.1104 12.3739 19.032 11.9616
404 2 2.2208 8.29087 -4.78725 13.3764
334 2 2.2208 5.34494 0.742879 16.3493
335 1 -1.1104 1.18614 -3.40243 17.7788
339 1 -1.1104 1.18349 -3.56865 14.8577
347 1 -1.1104 1.22696 -0.458169 17.66
349 2 2.2208 5.36476 -1.98781 19.1432
351 1 -1.1104 1.07961 -0.813713 14.9509
355 1 -1.1104 3.92884 -3.57502 17.5568
357 2 2.2208 2.59259 0.779278 19.1178
358 1 -1.1104 3.92754 -3.43805 14.6493
362 2 2.2208 2.58331 -2.1469 16.4037
364 1 -1.1104 4.02036 -0.875165 17.5581
365 1 -1.1104 3.92602 -0.640298 14.8537
336 1 -1.1104 1.15375 2.13399 17.6105
341 1 -1.1104 1.22982 2.08001 14.7487
356 1 -1.1104 3.99665 2.09189 17.689
360 1 -1.1104 4.101 2.1375 14.8707
363 2 2.2208 2.44944 3.44042 16.1989
350 2 2.2208 5.3783 3.51777 19.0454
366 1 -1.1104 3.98088 -0.811069 20.4301
9691 2 2.2208 -0.176856 3.53744 18.9808
359 1 -1.1104 4.05248 -3.41272 20.486
352 1 -1.1104 1.04832 -0.692047 20.5193
340 1 -1.1104 1.2426 -3.60225 20.3167
361 1 -1.1104 4.25205 1.98508 20.3764
370 2 2.2208 -0.280481 0.778012 16.3396
346 1 -1.1104 7.03609 2.20286 20.5426
683 2 2.2208 -0.30032 14.6977 24.6383
342 1 -1.1104 1.2973 2.18503 20.289
343 1 -1.1104 6.92298 -3.54985 14.7524
345 1 -1.1104 6.88958 2.17821 14.7104
338 1 -1.1104 7.03811 2.18571 17.5157
344 1 -1.1104 6.86974 -3.52104 20.5685
353 1 -1.1104 6.68462 -0.731168 14.8608
348 1 -1.1104 6.7984 -0.700162 17.6971
337 1 -1.1104 6.74433 -3.35613 17.6966
377 2 2.2208 11.0404 0.86625 16.3236
378 1 -1.1104 12.6092 -3.30827 17.8434
380 1 -1.1104 12.427 -3.43208 14.9938
384 1 -1.1104 12.5372 -0.553486 17.6383
385 2 2.2208 11.1141 -2.08775 19.1594
387 1 -1.1104 12.3266 -0.671781 14.7449
389 1 -1.1104 9.8274 -3.40895 17.7516
391 2 2.2208 8.22906 0.866915 19.0216
392 1 -1.1104 9.7734 -3.45679 14.8329
396 2 2.2208 8.33923 -2.13855 16.2967
398 1 -1.1104 9.84396 -0.519095 17.6848
399 1 -1.1104 9.57475 -0.689862 14.9637
379 1 -1.1104 12.4056 2.11391 17.7847
382 1 -1.1104 12.2678 2.17846 14.9701
390 1 -1.1104 9.74999 2.40456 17.7147
394 1 -1.1104 9.6819 2.12961 14.8326
397 2 2.2208 8.34111 3.60779 16.2217
386 2 2.2208 11.014 3.56955 19.0354
383 1 -1.1104 12.3435 2.31323 20.5438
395 1 -1.1104 9.79497 2.25128 20.5669
354 1 -1.1104 6.83474 -0.623196 20.504
400 1 -1.1104 9.44111 -0.603818 20.5841
381 1 -1.1104 12.5895 -3.40478 20.6616
393 1 -1.1104 9.57368 -3.47422 20.5004
388 1 -1.1104 12.4647 -0.712448 20.522
9764 2 2.2208 -0.262547 6.50624 16.097
410 2 2.2208 5.32338 6.28128 16.2774
412 1 -1.1104 1.39873 8.05394 17.5233
414 1 -1.1104 1.10372 7.82081 14.7146
418 1 -1.1104 1.17511 5.01649 17.6483
423 1 -1.1104 1.14559 5.01675 14.6393
431 1 -1.1104 3.94658 7.7893 17.7767
432 2 2.2208 2.60842 6.30326 19.0636
434 1 -1.1104 4.04604 7.80786 14.8881
437 1 -1.1104 3.84527 4.90775 17.755
439 1 -1.1104 3.87163 4.97569 14.8993
420 1 -1.1104 6.59128 5.01882 17.5459
411 2 2.2208 5.31145 12.0012 16.1346
419 1 -1.1104 1.13967 10.7824 17.3768
422 2 2.2208 5.25399 9.22044 18.9214
425 1 -1.1104 1.08651 10.5486 14.7006
433 2 2.2208 2.573 12.1019 18.9534
436 2 2.2208 2.47294 9.33588 16.1462
438 1 -1.1104 3.81941 10.6871 17.4827
441 1 -1.1104 4.05539 10.6457 14.6634
442 1 -1.1104 3.86127 10.5747 20.3863
435 1 -1.1104 3.97611 7.89222 20.6074
424 1 -1.1104 1.15197 5.07268 20.2868
440 1 -1.1104 4.00281 4.86154 20.4578
415 1 -1.1104 1.20966 7.84418 20.3927
426 1 -1.1104 1.04958 10.7733 20.3896
631 2 2.2208 -0.192934 12.0585 21.8428
9763 2 2.2208 -0.22373 9.34193 18.9518
413 1 -1.1104 6.64592 7.75624 17.6512
430 1 -1.1104 6.75057 10.7949 20.4897
417 1 -1.1104 6.76792 7.75347 20.4719
416 1 -1.1104 6.86116 7.72217 14.674
427 1 -1.1104 6.78206 5.1097 14.8712
429 1 -1.1104 6.97553 10.5127 14.8826
421 1 -1.1104 6.61726 10.7198 17.6029
428 1 -1.1104 6.92039 4.81122 20.2785
446 2 2.2208 11.1533 6.29896 16.163
448 1 -1.1104 12.492 7.78512 17.4058
449 1 -1.1104 12.5899 7.71571 14.703
451 1 -1.1104 12.4775 4.75827 17.6675
454 1 -1.1104 12.5535 4.99235 15.0097
458 1 -1.1104 9.59859 7.82992 17.4672
459 2 2.2208 8.19142 6.46636 18.9703
461 1 -1.1104 9.70154 7.59474 14.6093
464 1 -1.1104 9.59164 4.95969 17.6766
466 1 -1.1104 9.57348 5.0159 14.7851
447 2 2.2208 11.045 11.9386 16.1431
452 1 -1.1104 12.3689 10.5 17.6284
453 2 2.2208 11.0848 9.20593 18.9757
456 1 -1.1104 12.4849 10.5432 14.8244
460 2 2.2208 8.23799 12.1165 19.034
463 2 2.2208 8.18446 9.16786 16.1111
465 1 -1.1104 9.37184 10.6285 17.7188
468 1 -1.1104 9.60637 10.4443 14.9155
467 1 -1.1104 9.61207 4.9801 20.5485
462 1 -1.1104 9.72762 7.70082 20.4219
455 1 -1.1104 12.4469 5.04299 20.4334
450 1 -1.1104 12.5373 7.89455 20.3504
469 1 -1.1104 9.68272 10.5874 20.4359
457 1 -1.1104 12.5265 10.7748 20.3797
474 1 -1.1104 1.05652 13.5312 17.6628
478 1 -1.1104 1.21506 13.4602 14.9202
494 1 -1.1104 3.95753 13.4401 17.5968
497 1 -1.1104 3.83093 13.5355 14.8485
473 2 2.2208 5.4033 17.7325 16.2596
475 1 -1.1104 1.44274 18.9308 17.6496
480 1 -1.1104 1.491 19.2289 14.7924
486 1 -1.1104 1.29191 16.2969 17.6867
488 2 2.2208 5.4578 14.8953 18.9439
489 2 2.2208 5.54085 20.5757 19.1188
490 1 -1.1104 1.33809 16.2909 14.936
495 1 -1.1104 4.12221 19.1295 17.5511
496 2 2.2208 2.68358 17.7191 19.1173
499 1 -1.1104 4.21534 19.0092 14.7269
501 2 2.2208 2.54782 14.9047 16.311
502 2 2.2208 2.7729 20.6117 16.3749
503 1 -1.1104 4.09436 16.3556 17.6779
504 1 -1.1104 4.13953 16.2375 14.8873
500 1 -1.1104 3.99425 19.0603 20.3446
9833 2 2.2208 -0.163686 20.4649 19.1376
498 1 -1.1104 3.90057 13.3403 20.254
479 1 -1.1104 1.22976 13.5808 20.6188
505 1 -1.1104 3.98611 16.2846 20.4428
491 1 -1.1104 1.22214 16.4563 20.309
481 1 -1.1104 1.10616 19.1939 20.3281
493 1 -1.1104 6.80762 16.3066 20.4756
9835 2 2.2208 -0.15704 17.6842 16.2542
476 1 -1.1104 6.97868 13.2476 17.4885
492 1 -1.1104 6.85202 16.246 14.767
693 1 -1.1104 6.76108 19.1635 25.9779
484 1 -1.1104 6.85608 19.0271 14.835
482 1 -1.1104 6.74331 13.4274 14.9903
477 1 -1.1104 7.07702 19.2015 17.7806
487 1 -1.1104 7.12627 16.2742 17.5457
513 1 -1.1104 12.2222 13.5028 20.5411
510 1 -1.1104 12.5263 13.272 17.6904
512 1 -1.1104 12.5701 13.2429 14.7146
521 1 -1.1104 9.68531 13.3763 17.678
524 1 -1.1104 9.6572 13.2879 14.8878
509 2 2.2208 11.0792 17.6117 16.2409
511 1 -1.1104 12.5651 19.1098 17.6003
514 1 -1.1104 12.4329 19.2344 14.791
516 1 -1.1104 12.472 16.2114 17.5858
517 2 2.2208 11.026 14.8371 18.9966
518 2 2.2208 11.1199 20.2719 19.0551
519 1 -1.1104 12.4263 16.3145 14.8894
522 1 -1.1104 9.81192 18.8646 17.6863
523 2 2.2208 8.1853 17.631 19.0785
526 1 -1.1104 9.64424 19.1588 14.8604
528 2 2.2208 8.28197 14.7172 16.2013
529 2 2.2208 8.35571 20.4261 16.2685
530 1 -1.1104 9.70228 16.0946 17.6476
531 1 -1.1104 9.66038 16.1545 14.7139
525 1 -1.1104 9.43858 13.3792 20.5302
485 1 -1.1104 6.83558 19.1546 20.4752
483 1 -1.1104 6.77492 13.5108 20.3528
532 1 -1.1104 9.60946 16.2279 20.4022
515 1 -1.1104 12.4339 18.9634 20.3609
527 1 -1.1104 9.63911 19.0618 20.6203
520 1 -1.1104 12.6153 16.1259 20.3482
571 2 2.2208 -0.287384 0.779503 22.0456
572 2 2.2208 -0.3057 3.70976 24.6996
537 2 2.2208 5.4991 0.84251 22.0082
538 1 -1.1104 1.08756 -3.44133 23.2366
542 1 -1.1104 1.15415 -3.41102 26.0625
546 1 -1.1104 1.1209 -0.569855 23.441
548 2 2.2208 5.51842 -2.00198 24.6539
550 1 -1.1104 1.20325 -0.38687 26.1041
552 1 -1.1104 4.16401 -3.38274 23.1849
554 2 2.2208 2.55562 0.745211 24.6578
555 1 -1.1104 3.92878 -3.64052 26.0446
557 2 2.2208 2.74673 -1.94987 22.03
559 1 -1.1104 4.06048 -0.57664 23.3264
560 1 -1.1104 4.0038 -0.903259 26.1224
539 1 -1.1104 1.28814 2.18657 23.0296
543 1 -1.1104 0.995439 2.29764 26.168
553 1 -1.1104 4.00864 2.08295 23.3658
556 1 -1.1104 3.78668 2.00747 26.1984
558 2 2.2208 2.5564 3.60175 21.7296
549 2 2.2208 5.36884 3.76607 24.7372
562 2 2.2208 2.68423 -2.24261 27.548
561 2 2.2208 5.37633 0.837922 27.4959
563 2 2.2208 2.63196 3.30776 27.5875
9729 2 2.2208 -0.245415 12.1328 16.1855
570 2 2.2208 -0.176931 -1.93142 24.8362
9834 2 2.2208 -0.175215 14.9068 19.095
711 2 2.2208 13.6315 14.8668 27.393
544 1 -1.1104 6.81452 -3.46166 26.166
545 1 -1.1104 6.66811 2.48134 26.2544
551 1 -1.1104 6.91885 -0.457205 26.0446
684 2 2.2208 -0.242835 17.7074 27.509
593 2 2.2208 8.15282 3.74102 27.4752
547 1 -1.1104 6.87334 -0.54809 23.2893
541 1 -1.1104 6.90278 2.38798 23.2812
540 1 -1.1104 6.92255 -3.396 23.3746
573 2 2.2208 11.0475 0.768684 21.8718
574 1 -1.1104 12.4833 -3.53551 23.31
576 1 -1.1104 12.4744 -3.43376 26.0866
578 1 -1.1104 12.638 -0.382206 23.0782
579 2 2.2208 11.0813 -2.05608 24.6845
581 1 -1.1104 12.3419 -0.608585 26.1234
582 1 -1.1104 9.743 -3.28865 23.2491
584 2 2.2208 8.07083 1.03879 24.7885
585 1 -1.1104 9.79426 -3.41113 26.1527
587 2 2.2208 8.16988 -1.96398 21.8007
589 1 -1.1104 9.71882 -0.489121 23.3919
590 1 -1.1104 9.58375 -0.527208 26.028
575 1 -1.1104 12.2739 2.25267 23.3789
577 1 -1.1104 12.3021 2.08318 26.1447
583 1 -1.1104 9.63667 2.26712 23.3855
586 1 -1.1104 9.50202 2.24653 26.1673
588 2 2.2208 8.3638 3.58621 21.8187
580 2 2.2208 11.0242 3.72363 24.7845
592 2 2.2208 8.21159 -2.02551 27.3939
591 2 2.2208 10.9051 0.964753 27.4368
632 2 2.2208 -0.259719 6.43283 27.5048
9942 2 2.2208 -0.238491 6.27828 21.8279
630 2 2.2208 -0.260302 9.21189 24.468
626 2 2.2208 5.35656 6.44561 27.5547
371 2 2.2208 -0.148071 -2.02554 19.0444
602 2 2.2208 5.37417 6.47685 21.868
606 1 -1.1104 1.07114 7.88945 26.2176
608 1 -1.1104 1.11771 4.94834 23.371
613 1 -1.1104 0.954379 5.01991 26.2794
617 1 -1.1104 3.89499 7.82371 23.3998
618 2 2.2208 2.48515 6.40428 24.7516
620 1 -1.1104 3.78357 7.61414 26.0822
622 1 -1.1104 3.89964 5.04073 23.3813
624 1 -1.1104 3.8173 4.7848 26.1309
603 2 2.2208 5.26661 12.2651 21.6208
604 1 -1.1104 0.969247 7.70826 23.4087
609 1 -1.1104 1.28402 10.5222 23.217
612 2 2.2208 5.38055 9.2466 24.6633
614 1 -1.1104 1.28303 10.5842 26.0134
619 2 2.2208 2.6204 11.8902 24.7494
621 2 2.2208 2.60474 9.24391 21.9149
623 1 -1.1104 4.029 10.6813 23.2585
625 1 -1.1104 3.90243 10.5095 26.0201
627 2 2.2208 2.62817 9.21144 27.4642
628 2 2.2208 5.35343 12.2052 27.5511
605 1 -1.1104 6.64078 7.85334 23.348
610 1 -1.1104 6.64626 5.09671 23.1856
607 1 -1.1104 6.87121 7.88859 26.1515
615 1 -1.1104 6.69711 5.1032 26.1203
611 1 -1.1104 6.76529 10.5594 23.1623
616 1 -1.1104 6.76835 10.6736 26.2315
634 1 -1.1104 9.37891 5.13581 26.338
636 1 -1.1104 9.43197 5.11775 23.5585
638 1 -1.1104 9.70372 8.02604 26.0374
640 2 2.2208 8.22113 6.56861 24.7467
641 2 2.2208 10.9616 6.454 21.7878
643 1 -1.1104 12.3433 7.87747 23.2353
644 1 -1.1104 12.3922 7.777 26.1716
645 1 -1.1104 12.2792 5.13965 23.4301
648 1 -1.1104 12.3929 4.88059 26.2692
650 1 -1.1104 9.45311 7.90517 23.1866
633 1 -1.1104 9.57272 10.7395 26.1803
635 1 -1.1104 9.43625 10.68 23.3979
637 2 2.2208 8.10859 9.26823 21.8944
639 2 2.2208 8.03273 11.9869 24.5954
642 2 2.2208 10.9406 11.9864 21.8299
646 1 -1.1104 12.4328 10.4821 23.3012
647 2 2.2208 11.1022 9.18845 24.613
649 1 -1.1104 12.4174 10.546 26.167
651 2 2.2208 10.8897 6.47302 27.5091
652 2 2.2208 8.27405 9.1969 27.5628
653 2 2.2208 11.0382 12.0075 27.4492
681 2 2.2208 5.32661 17.7166 27.5253
685 2 2.2208 -0.320621 20.4166 24.8499
569 2 2.2208 -0.231285 0.69568 27.5782
680 2 2.2208 2.76851 20.366 27.6758
674 1 -1.1104 3.97579 13.4098 26.2456
663 1 -1.1104 1.14791 13.483 26.1538
669 1 -1.1104 1.25002 13.3418 23.3675
659 1 -1.1104 3.98886 13.4505 23.1402
672 2 2.2208 2.53713 17.7855 24.71
666 2 2.2208 5.29856 14.885 24.5896
679 2 2.2208 2.65019 14.9003 21.921
678 2 2.2208 2.50618 20.4938 22.0306
677 1 -1.1104 4.03268 16.2671 23.2497
670 2 2.2208 5.39237 17.6985 21.8427
662 1 -1.1104 1.10537 16.3199 26.0929
673 1 -1.1104 3.92109 16.3291 26.0907
671 1 -1.1104 3.99547 18.9991 25.9713
676 1 -1.1104 1.28588 16.2844 23.3802
665 2 2.2208 5.40316 20.6504 24.5782
661 1 -1.1104 1.13755 19.1354 26.1036
668 1 -1.1104 1.21099 19.1417 23.1984
657 1 -1.1104 3.95425 19.0078 23.1382
682 2 2.2208 2.54471 14.8951 27.3903
686 2 2.2208 -0.372271 17.7216 21.9271
658 1 -1.1104 6.81531 13.482 25.9164
697 1 -1.1104 12.4033 16.5047 26.2896
690 2 2.2208 8.30129 14.816 21.8823
695 1 -1.1104 9.63475 18.935 23.2086
698 2 2.2208 10.9847 20.3326 24.6871
667 1 -1.1104 6.71346 13.4043 23.1354
688 1 -1.1104 9.66193 16.0659 23.2956
706 2 2.2208 8.19397 20.4115 27.5301
687 1 -1.1104 9.59304 16.1145 26.0043
702 1 -1.1104 12.469 13.5562 26.0546
708 2 2.2208 8.1632 14.7217 27.4387
700 1 -1.1104 12.5079 16.1928 23.2497
707 2 2.2208 10.8838 17.6498 27.4764
705 2 2.2208 11.116 17.4724 21.8141
692 1 -1.1104 9.59245 13.3724 26.1825
696 1 -1.1104 9.5782 13.2939 23.2747
704 1 -1.1104 12.2497 13.1635 23.2886
701 1 -1.1104 12.4772 19.2132 25.9733
694 2 2.2208 8.21098 17.5833 24.835
703 1 -1.1104 12.5797 19.0485 23.2272
675 1 -1.1104 6.84327 16.2346 23.2581
664 1 -1.1104 6.72893 19.1855 23.2214
660 1 -1.1104 6.64676 16.2555 26.245
689 2 2.2208 8.25253 20.3351 21.9293
691 1 -1.1104 9.52811 18.9039 26.0285
699 2 2.2208 11.0045 14.726 24.6177
629 2 2.2208 -0.144212 11.9001 27.4813
403 2 2.2208 8.35328 -4.78239 19.1039
595 2 2.2208 11.1328 -4.79245 27.4336
597 2 2.2208 8.18247 -4.72374 24.7479
402 2 2.2208 11.1509 -4.79086 16.2823
714 2 2.2208 5.33447 23.4498 5.13043
716 1 -1.1104 1.04425 24.496 0.809912
717 1 -1.1104 1.05632 24.8036 3.58133
718 1 -1.1104 1.25885 21.726 0.845724
719 1 -1.1104 1.10244 27.5 0.636027
720 2 2.2208 5.37285 26.1194 2.23184
721 1 -1.1104 1.23747 21.9771 3.57095
722 1 -1.1104 1.14432 27.4458 3.47178
723 1 -1.1104 4.089 24.5499 0.796046
724 2 2.2208 2.43014 23.2814 2.26079
726 1 -1.1104 3.88358 24.7428 3.70472
727 2 2.2208 2.35287 25.8983 4.96161
728 1 -1.1104 4.07125 21.8591 0.766128
729 1 -1.1104 3.9186 27.4308 0.68926
730 1 -1.1104 4.07862 22.0204 3.69894
731 1 -1.1104 4.0044 27.3751 3.45429
740 1 -1.1104 6.7816 27.7634 3.47651
715 2 2.2208 5.41102 28.9514 4.94315
725 2 2.2208 2.61484 28.8025 2.24163
863 1 -1.1104 3.77371 27.6428 6.24074
862 1 -1.1104 3.78337 21.8495 6.5957
857 1 -1.1104 1.06017 21.9013 6.36527
855 1 -1.1104 1.18528 24.6613 6.44342
861 1 -1.1104 3.97957 24.7555 6.38723
10447 2 2.2208 -0.250156 37.4105 13.399
858 1 -1.1104 1.0493 27.3918 6.34218
10271 2 2.2208 13.3709 45.9588 7.72155
736 1 -1.1104 6.75917 24.7871 3.65932
860 1 -1.1104 6.63642 27.5044 6.2419
859 1 -1.1104 6.72496 21.9315 6.28516
738 1 -1.1104 6.74102 27.6012 0.765663
737 1 -1.1104 6.7905 21.9948 0.934989
739 1 -1.1104 6.87858 21.9753 3.78875
735 1 -1.1104 6.94208 24.7333 0.863405
741 2 2.2208 10.7974 22.9913 5.15116
743 1 -1.1104 12.6873 24.442 0.713007
744 1 -1.1104 12.3733 24.6246 3.63054
745 1 -1.1104 12.6769 21.7076 0.745651
747 2 2.2208 11.0731 26.1047 2.36692
748 1 -1.1104 12.4537 21.8335 3.72048
749 1 -1.1104 12.3832 27.5191 3.70406
750 1 -1.1104 9.72009 24.809 0.744931
751 2 2.2208 8.17425 23.3778 2.24643
753 1 -1.1104 9.54384 24.5206 3.70039
754 2 2.2208 8.1935 26.0934 5.11855
755 1 -1.1104 9.51202 21.9353 0.901785
756 1 -1.1104 9.48751 27.5676 0.985393
757 1 -1.1104 9.7376 21.8246 3.67882
758 1 -1.1104 9.71869 27.3552 3.70236
742 2 2.2208 10.9923 28.7637 5.01952
746 1 -1.1104 12.3316 27.41 0.818451
752 2 2.2208 8.13999 28.9407 2.12769
893 1 -1.1104 9.38871 27.4325 6.44869
856 1 -1.1104 6.63436 24.7483 6.61959
892 1 -1.1104 9.46895 21.7571 6.58773
891 1 -1.1104 9.50367 24.6285 6.41101
889 1 -1.1104 12.3234 21.8814 6.51174
890 1 -1.1104 12.3498 27.4971 6.27347
888 1 -1.1104 12.4533 24.628 6.22165
763 1 -1.1104 0.921465 30.1578 0.870278
766 1 -1.1104 1.11118 30.1716 3.5222
769 1 -1.1104 0.96489 32.9498 0.917665
770 2 2.2208 5.29505 31.6793 2.10315
772 1 -1.1104 0.977918 32.9881 3.65309
774 1 -1.1104 3.87787 30.1843 0.857694
777 1 -1.1104 3.9162 30.2292 3.72116
779 2 2.2208 2.43691 31.6506 5.03066
781 1 -1.1104 3.72286 33.0862 0.794543
782 1 -1.1104 3.90342 33.1206 3.63324
762 2 2.2208 5.26724 34.5196 5.07915
764 1 -1.1104 1.07854 35.9318 1.08186
767 1 -1.1104 1.14955 35.7839 3.8579
771 2 2.2208 5.32858 37.2799 2.43509
775 1 -1.1104 3.74956 35.9531 1.01264
776 2 2.2208 2.39061 34.5409 2.42198
778 1 -1.1104 3.91971 35.8724 3.81801
780 2 2.2208 2.46051 37.1781 5.11461
918 1 -1.1104 3.91542 30.322 6.54187
920 1 -1.1104 3.68792 33.0531 6.46454
916 1 -1.1104 1.08558 33.1564 6.69015
912 1 -1.1104 1.0744 30.4584 6.49834
913 1 -1.1104 0.968479 35.9922 6.36719
919 1 -1.1104 3.95857 35.8593 6.56016
784 2 2.2208 -0.162909 31.624 2.25035
10182 2 2.2208 -0.248375 25.9877 7.80137
1017 2 2.2208 10.9398 43.0181 7.92722
788 1 -1.1104 6.66923 33.2165 0.663723
786 1 -1.1104 6.70777 30.3432 0.672566
773 1 -1.1104 6.65014 33.0762 3.58236
768 1 -1.1104 6.78692 35.9084 3.5902
917 1 -1.1104 6.63351 33.0481 6.32231
914 1 -1.1104 6.83152 30.2538 6.38744
765 1 -1.1104 6.63269 35.7682 0.983014
787 1 -1.1104 6.69882 30.492 3.56838
790 1 -1.1104 12.2166 30.2009 1.02265
792 1 -1.1104 12.2649 30.1754 3.8063
794 1 -1.1104 12.4153 32.9031 0.89448
795 2 2.2208 10.7466 31.7 2.45045
797 1 -1.1104 12.443 32.9715 3.6932
798 1 -1.1104 9.36692 30.3571 0.675428
801 1 -1.1104 9.41651 30.3305 3.72798
803 2 2.2208 8.21901 31.712 5.12544
805 1 -1.1104 9.4509 33.0294 1.03564
806 1 -1.1104 9.64899 33.2622 3.72307
789 2 2.2208 10.8762 34.5193 5.12687
791 1 -1.1104 12.3692 35.6563 0.865198
793 1 -1.1104 12.1549 35.9418 3.70141