LAMMPS (29 Oct 2020)
OMP_NUM_THREADS environment is not set. Defaulting to 1 thread. (../comm.cpp:94)
  using 1 OpenMP thread(s) per MPI task
#---------------------------------------
#
# This script is used to calculate the thermal conuctivity of UO2 using Muller-Plathe method
# By Ziqiang Wang on 03/18/2022 on Jilin university
#
#---------------------------------------

variable     Nevery    equal   50
variable     T         equal   600

clear
OMP_NUM_THREADS environment is not set. Defaulting to 1 thread. (../comm.cpp:94)
  using 1 OpenMP thread(s) per MPI task
units          metal
boundary       p p p
atom_style     full

read_data vac_0.005_relaxed.dat
Reading data file ...
  orthogonal box = (-0.36065559 -4.3231929 -0.3557321) to (27.700656 332.40319 27.695732)
  2 by 13 by 2 MPI processor grid
  reading atoms ...
  17910 atoms
  reading velocities ...
  17910 velocities
Finding 1-2 1-3 1-4 neighbors ...
  special bond factors lj:    0.0      0.0      0.0     
  special bond factors coul:  0.0      0.0      0.0     
     0 = max # of 1-2 neighbors
     0 = max # of 1-3 neighbors
     0 = max # of 1-4 neighbors
     1 = max # of special neighbors
  special bonds CPU = 0.005 seconds
  read_data CPU = 0.060 seconds

set           type     1    charge     -1.1104
Setting atom values ...
  11940 settings made for charge
set           type     2    charge      2.2208
Setting atom values ...
  5970 settings made for charge

kspace_style    pppm   1.0e-05
pair_style      hybrid/overlay  coul/long  11.0  eam/alloy
pair_coeff      * * coul/long
pair_coeff      * * eam/alloy CeThUNpPuAmCmO.eam.alloy O Th
newton          on
neighbor        0.3 bin
neigh_modify    delay 0 check yes every 1

#The first equilation
velocity        all create $T 10001 mom yes rot yes dist gaussian
velocity        all create 600 10001 mom yes rot yes dist gaussian
fix             nvt  all  nvt  temp  $T $T  0.1
fix             nvt  all  nvt  temp  600 $T  0.1
fix             nvt  all  nvt  temp  600 600  0.1

run             100000
PPPM initialization ...
  using 12-bit tables for long-range coulomb (../kspace.cpp:328)
  G vector (1/distance) = 0.29883711
  grid = 40 240 40
  stencil order = 5
  estimated absolute RMS force accuracy = 0.00015728919
  estimated relative force accuracy = 1.092313e-05
  using single precision MKL FFT
  3d grid and FFT values/proc = 15000 7600
Neighbor list info ...
  update every 1 steps, delay 0 steps, check yes
  max neighbors/atom: 2000, page size: 100000
  master list distance cutoff = 11.3
  ghost atom cutoff = 11.3
  binsize = 5.65, bins = 5 60 5
  2 neighbor lists, perpetual/occasional/extra = 2 0 0
  (1) pair coul/long, perpetual
      attributes: half, newton on
      pair build: half/bin/newton
      stencil: half/bin/3d/newton
      bin: standard
  (2) pair eam/alloy, perpetual, copy from (1)
      attributes: half, newton on
      pair build: copy
      stencil: none
      bin: none
Per MPI rank memory allocation (min/avg/max) = 8.153 | 8.182 | 8.200 Mbytes
Step Temp E_pair E_mol TotEng Press 
       0          600   -234174.92            0   -232785.97   -374.60947 
  100000    602.90903   -234169.55            0   -232773.86   -612.35652 
Loop time of 653.936 on 52 procs for 100000 steps with 17910 atoms

Performance: 13.212 ns/day, 1.816 hours/ns, 152.920 timesteps/s
99.8% CPU use with 52 MPI tasks x 1 OpenMP threads

MPI task timing breakdown:
Section |  min time  |  avg time  |  max time  |%varavg| %total
---------------------------------------------------------------
Pair    | 440.32     | 447.9      | 457.94     |  21.8 | 68.49
Bond    | 0.005946   | 0.010193   | 0.01499    |   2.0 |  0.00
Kspace  | 137.1      | 148.74     | 157.29     |  45.5 | 22.75
Neigh   | 32.602     | 34.49      | 36.537     |  17.6 |  5.27
Comm    | 17.169     | 18.34      | 19.649     |  16.1 |  2.80
Output  | 5.6914e-05 | 6.2928e-05 | 0.00027242 |   0.0 |  0.00
Modify  | 1.9699     | 3.026      | 5.1555     |  52.6 |  0.46
Other   |            | 1.425      |            |       |  0.22

Nlocal:        344.423 ave         366 max         323 min
Histogram: 1 6 4 5 12 6 8 6 1 3
Nghost:        4153.40 ave        4250 max        4062 min
Histogram: 4 7 6 3 3 13 4 5 1 6
Neighs:        69250.5 ave       73452 max       64508 min
Histogram: 1 4 5 4 9 7 10 5 5 2

Total # of neighbors = 3601025
Ave neighs/atom = 201.06226
Ave special neighs/atom = 0.0000000
Neighbor list builds = 16227
Dangerous builds = 0
unfix           nvt
reset_timestep  0

# the second run
fix             1 all nve

group           oxygen type 1
11940 atoms in group oxygen
fix             2 oxygen thermal/conductivity ${Nevery} y 20
fix             2 oxygen thermal/conductivity 50 y 20

compute         ke all ke/atom
variable        temp atom c_ke/1.5
compute         layers all chunk/atom bin/1d y lower 0.05 units reduced
fix             3      all ave/chunk  2000 50 100000 layers v_temp file profile_${T}K.mp
fix             3      all ave/chunk  2000 50 100000 layers v_temp file profile_600K.mp

variable        Tdiff    equal     f_3[11][3]-f_3[1][3]
variable        deltaT   equal     v_Tdiff*1.5/0.0001292

timestep        0.001
thermo_style    custom step f_2 temp v_Tdiff v_deltaT
thermo          100000

run             1500000
PPPM initialization ...
  using 12-bit tables for long-range coulomb (../kspace.cpp:328)
  G vector (1/distance) = 0.29883711
  grid = 40 240 40
  stencil order = 5
  estimated absolute RMS force accuracy = 0.00015728919
  estimated relative force accuracy = 1.092313e-05
  using single precision MKL FFT
  3d grid and FFT values/proc = 15000 7600
Per MPI rank memory allocation (min/avg/max) = 8.404 | 8.433 | 8.450 Mbytes
Step f_2 Temp v_Tdiff v_deltaT 
       0            0    602.90903            0            0 
  100000    702.17873    598.34132  0.016898132    196.18575 
  200000    1396.0528    601.79747  0.018440496    214.09245 
  300000    2081.3003    602.37173  0.019132259    222.12374 
  400000    2769.4648    603.64787  0.018762585    217.83187 
  500000     3465.153    608.55907  0.018059536    209.66954 
  600000    4154.2164    604.70282  0.018633201    216.32973 
  700000    4846.5003     606.5826  0.018554373    215.41454 
  800000    5539.5385    604.52619  0.018421856    213.87603 
  900000    6227.5257     601.0226  0.018286269    212.30188 
 1000000    6920.7942     598.0748  0.018563929    215.52549 
 1100000    7610.5527    603.82277  0.018575351     215.6581 
 1200000    8306.0458    602.11675  0.018349346     213.0342 
 1300000    8998.1418    598.28539  0.018964058    220.17095 
 1400000    9687.7648     601.6393  0.019054887    221.22547 
 1500000    10380.482    604.20584  0.017902886    207.85084 
Loop time of 9761.68 on 52 procs for 1500000 steps with 17910 atoms

Performance: 13.276 ns/day, 1.808 hours/ns, 153.662 timesteps/s
99.8% CPU use with 52 MPI tasks x 1 OpenMP threads

MPI task timing breakdown:
Section |  min time  |  avg time  |  max time  |%varavg| %total
---------------------------------------------------------------
Pair    | 6546.5     | 6691.9     | 6829.7     |  79.2 | 68.55
Bond    | 0.088615   | 0.15419    | 0.2362     |   7.4 |  0.00
Kspace  | 2051.6     | 2210.3     | 2363       | 157.5 | 22.64
Neigh   | 499.55     | 529.26     | 560.43     |  61.9 |  5.42
Comm    | 261.62     | 278.57     | 298.26     |  63.7 |  2.85
Output  | 0.0017271  | 0.0018112  | 0.003643   |   0.6 |  0.00
Modify  | 8.6456     | 9.3116     | 10.28      |  10.9 |  0.10
Other   |            | 42.21      |            |       |  0.43

Nlocal:        344.423 ave         361 max         328 min
Histogram: 2 3 8 11 6 5 5 1 7 4
Nghost:        4139.17 ave        4247 max        3993 min
Histogram: 2 2 5 5 5 6 8 10 5 4
Neighs:        69256.8 ave       72772 max       65549 min
Histogram: 3 1 6 8 10 7 1 8 3 5

Total # of neighbors = 3601354
Ave neighs/atom = 201.08063
Ave special neighs/atom = 0.0000000
Neighbor list builds = 248819
Dangerous builds = 0

Total wall time: 2:53:36
