LAMMPS data file via write_data, version 29 Oct 2020, timestep = 100000

18000 atoms
4 atom types

-0.2617929833447776 28.1557929833453 xlo xhi
-3.1577378433267422 337.88573784334096 ylo yhi
-0.2468280018879151 28.140828001887865 zlo zhi
0.0 0.0 0.0 xy xz yz

Masses

1 15.9994
2 232.0381
3 15.9994
4 232.0381

Atoms # full

49 0 1 -1.1104 12.618974813478246 9.73931274193931 12.678090682580958 0 0 0
225 0 1 -1.1104 9.799748251090667 -1.7769387956942309 6.989253728256537 0 0 0
221 0 1 -1.1104 2.3788875647665035 -2.703999096165899 6.384312876188853 0 0 0
4 0 1 -1.1104 6.787036595174438 21.238115371964938 12.598946158293836 0 0 0
5 0 1 -1.1104 3.9888778243266287 20.85177523605224 12.701583738093479 0 0 0
6 0 1 -1.1104 0.9852079913478129 21.02174305449531 12.634756310604411 0 0 0
9045 0 2 2.2208 13.768740437489274 10.742772437423556 10.851081513650083 0 0 0
8 0 2 2.2208 5.51316282592153 -0.35752375404651787 2.579332724217835 0 0 0
9 0 1 -1.1104 12.703613711032165 18.165945880940725 12.323357804821791 0 0 0
10 0 2 2.2208 11.388669058104671 -0.7604298320661487 2.7215303328640967 0 0 0
159 0 1 -1.1104 6.7465043250365015 4.124546619837381 1.1265228986076559 0 0 0
192 0 1 -1.1104 0.7275719473429532 18.7616819579799 2.6302974118855595 0 0 0
13 0 2 2.2208 2.515055560176128 2.3083790507739375 2.53904079326322 0 0 0
333 0 1 -1.1104 12.518280807017826 12.742919634814736 12.158959847631325 0 0 0
15 0 1 -1.1104 12.297964129134108 15.393411941577822 12.45642226049012 0 0 0
16 0 1 -1.1104 9.579607466872515 17.716719144084113 12.333192440509443 0 0 0
17 0 2 2.2208 8.251239701616454 2.2154835027220363 2.668524052743378 0 0 0
18 0 2 2.2208 4.9680727220919305 5.1943278224097496 2.5551298726309386 0 0 0
19 0 1 -1.1104 6.812483782062313 18.318699500969647 12.526097709333277 0 0 0
20 0 2 2.2208 11.682202764729938 5.250893320160368 2.5153395366223337 0 0 0
21 0 4 2.2208 2.558957538668094 16.99408221054597 2.2020716760309376 0 0 0
273 0 1 -1.1104 11.111734203509322 6.128299783416225 10.209698252616331 0 0 0
23 0 2 2.2208 2.322192614748172 8.222322936726703 2.5906153696929453 0 0 0
24 0 4 2.2208 8.279899715889313 5.140487196106795 2.357574181534605 0 0 0
471 0 1 -1.1104 12.601059969814237 1.175506059414501 13.116452172627167 0 0 0
26 0 1 -1.1104 9.609908527263318 14.850375640413091 12.054367541819138 0 0 0
27 0 2 2.2208 8.103273760142722 8.490284854519299 2.4387317048630246 0 0 0
28 0 2 2.2208 5.225077169113105 11.299593935832922 2.8175617590784423 0 0 0
29 0 1 -1.1104 9.551930127134847 12.428364787667682 13.027163663797651 0 0 0
30 0 2 2.2208 11.233227413325725 11.017598298694695 2.4394765290145224 0 0 0
31 0 3 -1.1104 4.083506136511311 15.305323255832526 12.966028992002514 0 0 0
32 0 1 -1.1104 3.6702130764797483 18.36161829356502 12.660574253094444 0 0 0
33 0 2 2.2208 2.385367486250109 13.355620459941242 2.5813918702790852 0 0 0
34 0 3 -1.1104 4.099182724025836 4.137682418733141 9.873441565192186 0 0 0
94 0 2 2.2208 10.960966999095419 5.71990120510661 13.65760028551665 0 0 0
84 0 2 2.2208 10.882721026462272 22.14572870612332 13.705427644987845 0 0 0
37 0 2 2.2208 8.15267211201098 13.675644355419942 2.636719063978381 0 0 0
38 0 2 2.2208 5.910278811294903 16.59729707931272 2.5863614908829367 0 0 0
158 0 1 -1.1104 9.68738967718547 4.076370204228765 0.9835616499296971 0 0 0
40 0 2 2.2208 11.108160608934629 16.58028705735433 2.600266522257871 0 0 0
41 0 1 -1.1104 1.0147399085501474 17.921741928456438 12.358036939567219 0 0 0
126 0 1 -1.1104 1.0066034234489645 -2.2900067194180633 1.0284300184630943 0 0 0
43 0 2 2.2208 2.595742581744818 20.303596475763516 2.347436464859431 0 0 0
44 0 1 -1.1104 4.041000401845322 12.269335587321187 9.94088016775644 0 0 0
187 0 1 -1.1104 3.80665517507252 12.728903650762208 1.0059236760254926 0 0 0
46 0 1 -1.1104 1.33600178326437 14.98436521323013 12.038794004897731 0 0 0
47 0 2 2.2208 8.209446940502502 19.405917338609555 2.3326613348569194 0 0 0
354 0 2 2.2208 7.943471144706013 14.024712445474357 13.802909447893398 0 0 0
278 0 1 -1.1104 0.856144070395014 15.717807914474786 9.450697247762522 0 0 0
50 0 2 2.2208 10.933460476623022 22.041055187049874 2.4306577181681353 0 0 0
485 0 1 -1.1104 4.044858303367413 9.70242964745899 12.687691044418095 0 0 0
52 0 2 2.2208 2.543987633887566 -0.21984194554401623 5.21256742103681 0 0 0
171 0 1 -1.1104 2.699043334140342 11.006033859886866 2.8916681799384287 0 0 0
54 0 4 2.2208 2.4257053694831874 -0.4362708981554839 8.521926593822053 0 0 0
14 0 3 -1.1104 9.871413915298087 9.348337316946976 1.054166686103318 0 0 0
56 0 2 2.2208 8.413228080623806 -0.38623403744772355 5.3786020093858955 0 0 0
9025 0 2 2.2208 13.945225616319922 22.321884051564997 5.504917132209412 0 0 0
58 0 2 2.2208 5.7721306536925585 -0.45180810829109647 8.371344988605602 0 0 0
891 0 1 -1.1104 1.1024426097654965 21.16486384043831 4.053974842202951 0 0 0
60 0 2 2.2208 11.140999007963535 -0.28104865909816207 8.43369903093984 0 0 0
61 0 1 -1.1104 9.014155095708533 6.493401276993516 8.72184615686163 0 0 0
62 0 2 2.2208 2.5143858464920084 5.122771202256232 5.357357325787471 0 0 0
63 0 2 2.2208 2.6990419974295663 2.937445996687478 8.25110233890828 0 0 0
64 0 3 -1.1104 9.906981368665756 -1.9225300870936666 4.215751720857386 0 0 0
65 0 2 2.2208 5.304887915966825 2.30644571520897 5.749526767386042 0 0 0
66 0 2 2.2208 8.208723456990578 5.739624329832954 5.941408084932054 0 0 0
67 0 2 2.2208 8.183988465475416 2.440455435229704 8.305824290830504 0 0 0
68 0 2 2.2208 5.585590599844929 5.409233431821124 8.601173566961412 0 0 0
69 0 2 2.2208 11.273080155980791 2.3504269813421566 5.399727982987376 0 0 0
70 0 2 2.2208 11.057024613283712 4.990883492668244 8.182066965306372 0 0 0
39 0 3 -1.1104 9.850297443704177 -1.897080145027346 1.0601259526541496 0 0 0
72 0 2 2.2208 2.417834512395627 10.949596302419057 5.167826672102322 0 0 0
73 0 2 2.2208 2.5244340530941987 7.901385354354321 8.069057113799506 0 0 0
74 0 3 -1.1104 4.0147476974202565 21.193604520819612 4.058958156939387 0 0 0
75 0 2 2.2208 5.417967281384955 7.906562867257944 5.275754320206127 0 0 0
76 0 2 2.2208 8.042432486518445 10.889884764122739 5.588731040032186 0 0 0
77 0 2 2.2208 7.676868797695954 8.481437720115478 8.341869730971199 0 0 0
78 0 2 2.2208 5.604271151437082 11.256569796875539 8.44764127211225 0 0 0
79 0 2 2.2208 11.07177141682818 8.208833763914484 4.726488762577054 0 0 0
80 0 2 2.2208 10.910072567877473 11.530747123350304 7.912665336152722 0 0 0
81 0 4 2.2208 2.3575859267894534 11.172526764414787 8.524929664198604 0 0 0
82 0 2 2.2208 2.4526548807654858 16.576912823599844 5.6895366889325585 0 0 0
83 0 2 2.2208 2.367036756651 14.54764772630781 8.337102342162119 0 0 0
314 0 1 -1.1104 12.471004222903295 -1.8264446822245353 12.38647745903675 0 0 0
85 0 2 2.2208 5.351037122317221 14.052451433327272 5.222783734110354 0 0 0
86 0 2 2.2208 8.289919182184367 16.771306523783707 5.466686010827043 0 0 0
87 0 2 2.2208 8.114057010760144 14.003324515144277 8.149550249975736 0 0 0
88 0 2 2.2208 5.572159929324691 16.87806925821258 8.18713444185676 0 0 0
89 0 2 2.2208 11.21525694304731 13.89708306972291 5.204369059671405 0 0 0
90 0 2 2.2208 11.181836675989931 17.013976907547715 7.813292697352496 0 0 0
91 0 3 -1.1104 9.412498196950125 21.00956853870497 12.204408985337643 0 0 0
92 0 2 2.2208 2.516650705898899 22.248106206590258 5.501657953940674 0 0 0
93 0 2 2.2208 3.01105079823654 19.398715822532118 8.105292062838073 0 0 0
307 0 1 -1.1104 4.1138289435889615 -2.1971924453440392 12.336248089102579 0 0 0
95 0 2 2.2208 5.274596397392657 19.479590091146456 5.246051629006627 0 0 0
96 0 2 2.2208 8.216174975525913 22.652918846181574 5.2140583480244835 0 0 0
97 0 2 2.2208 8.0315076579444 19.77233143876108 8.292357229485741 0 0 0
98 0 2 2.2208 5.285103072092898 22.722730840362754 8.133232918145746 0 0 0
99 0 2 2.2208 11.145130286407678 19.81382184772017 5.349256345551448 0 0 0
100 0 2 2.2208 11.35138842287231 22.459459024086225 8.286905119519599 0 0 0
101 0 3 -1.1104 9.64259015962649 12.221700865749392 3.6539340067415385 0 0 0
102 0 2 2.2208 2.3506324807987573 -0.5632153349355975 11.736977772521916 0 0 0
186 0 1 -1.1104 0.8181254857186631 16.687972000530614 4.10133725151672 0 0 0
104 0 2 2.2208 8.259284267677744 -0.4742168647231507 11.183301456106474 0 0 0
217 0 1 -1.1104 0.6348214444436491 -0.5884642388538213 6.56766410737098 0 0 0
106 0 4 2.2208 11.162744608332773 8.25761866886701 8.112380140406742 0 0 0
107 0 2 2.2208 2.63124825929443 5.490886547297482 11.1876969737511 0 0 0
108 0 2 2.2208 4.923241143628044 2.307604218879952 11.016401466039495 0 0 0
109 0 2 2.2208 8.421138266245784 5.058318612498705 10.944432394309041 0 0 0
110 0 2 2.2208 11.341861818107752 2.4803034676507085 10.921039678425563 0 0 0
111 0 1 -1.1104 12.29445131892134 21.167343887917717 12.243649888473035 0 0 0
112 0 2 2.2208 2.5159167394545436 10.961486467237249 11.667669416127474 0 0 0
113 0 2 2.2208 5.3554357356944555 8.426941742132763 11.11436437622181 0 0 0
114 0 2 2.2208 8.5397800148192 11.276298257687229 11.12355101055142 0 0 0
115 0 2 2.2208 10.939202194697414 8.368330828080255 11.40653532701702 0 0 0
216 0 1 -1.1104 0.5011263205863199 -2.5613878625653115 8.418126842244858 0 0 0
117 0 2 2.2208 2.641520417338804 16.84350136827381 10.937341217188829 0 0 0
118 0 2 2.2208 5.38248125100981 13.82446804207817 11.18301274314368 0 0 0
119 0 2 2.2208 8.486274095135864 16.77443609852591 10.652724296784466 0 0 0
120 0 2 2.2208 11.2998436688698 13.875127950198184 10.562221962495727 0 0 0
272 0 1 -1.1104 13.011244762514261 10.273412248124378 7.458712759332229 0 0 0
122 0 2 2.2208 2.365042233485812 22.653527228042027 11.034785395107082 0 0 0
123 0 2 2.2208 5.291649110053019 19.673551322173292 11.089554094621775 0 0 0
124 0 2 2.2208 8.345215445595583 22.542214681651753 11.02534380868412 0 0 0
125 0 2 2.2208 10.999127262591113 19.53687897604176 11.221690913422139 0 0 0
9642 0 2 2.2208 -0.16256793636911127 14.259065186626357 -0.06083282587080336 0 0 0
127 0 1 -1.1104 3.849652266129855 -1.9367372717198736 1.1325748660504291 0 0 0
191 0 1 -1.1104 4.5054249580366195 16.605219012395718 0.5340700181192555 0 0 0
129 0 1 -1.1104 4.286041621918057 -1.9475039218813057 3.9797981165217613 0 0 0
130 0 1 -1.1104 1.2344973321811066 1.0201376050741549 0.992509221843057 0 0 0
131 0 1 -1.1104 4.136582008789806 0.8727545348775024 1.0714171253655076 0 0 0
132 0 1 -1.1104 0.7678746253706599 1.170222260848035 4.131397153061611 0 0 0
133 0 1 -1.1104 3.986072181427389 0.8345462785718183 3.7758237368968834 0 0 0
232 0 1 -1.1104 12.653904845088826 -1.8688313020583829 6.995357924838492 0 0 0
135 0 1 -1.1104 12.85202723102275 -1.9420929539214715 1.4521965579901397 0 0 0
465 0 1 -1.1104 0.9150364912778066 -1.8013119232952461 12.999394291450155 0 0 0
137 0 1 -1.1104 9.668019335739817 0.9293129518731421 1.296836627558584 0 0 0
138 0 1 -1.1104 6.927203189537291 1.0874852032461082 1.206981887976708 0 0 0
139 0 1 -1.1104 9.213310127215802 6.868955774146431 0.9010120734741416 0 0 0
140 0 1 -1.1104 6.541388891093167 1.0805581811685687 4.214307587624387 0 0 0
141 0 1 -1.1104 9.704597133493372 0.8147418788079871 3.93584650391844 0 0 0
311 0 1 -1.1104 9.88409543402585 -1.8758656628661796 12.372026315697973 0 0 0
143 0 1 -1.1104 12.67248790872018 -2.07571144087773 4.166503524419747 0 0 0
144 0 1 -1.1104 12.34737063523572 1.0295234544713237 1.3662382945385922 0 0 0
145 0 1 -1.1104 12.62311373881488 0.824321464463898 4.08690301675253 0 0 0
146 0 1 -1.1104 0.9468193306156519 3.895490913149212 0.9022281919370148 0 0 0
147 0 1 -1.1104 3.8305628218252186 3.8065503407945185 1.2221863072309342 0 0 0
148 0 1 -1.1104 1.3280060493260357 4.058835242996059 3.8177032413679055 0 0 0
149 0 1 -1.1104 3.9547454123011736 3.4893687655305494 4.0977107976359735 0 0 0
150 0 1 -1.1104 0.9682291727959114 6.654657384598164 1.333952631702184 0 0 0
151 0 1 -1.1104 3.60003167397231 6.598054319073171 1.2662953466054594 0 0 0
152 0 1 -1.1104 1.1761104574819081 6.670869042305447 4.07389744408064 0 0 0
153 0 1 -1.1104 4.315017787676044 6.30073458023974 4.3678568725734 0 0 0
154 0 1 -1.1104 6.854220122433098 3.9302112586861657 3.7083839060787542 0 0 0
155 0 1 -1.1104 6.6274698226028015 6.584697675175247 1.2843339783792365 0 0 0
156 0 1 -1.1104 12.958363254035238 7.689440102299731 6.338234518874018 0 0 0
157 0 1 -1.1104 9.662958194444137 3.7159525616873736 3.679460243133978 0 0 0
128 0 1 -1.1104 1.3752488782200822 -1.653364305270293 3.628601607705514 0 0 0
42 0 2 2.2208 2.3008052910910157 22.67506232338995 0.005679177427815437 0 0 0
160 0 1 -1.1104 7.0465890140342395 6.543499317310565 4.080415560785911 0 0 0
161 0 1 -1.1104 8.573242323416304 8.231760069325274 6.220864320501 0 0 0
162 0 1 -1.1104 12.807669502804611 3.7612437226504123 1.278350864511442 0 0 0
163 0 1 -1.1104 12.450021020546364 3.849264726448234 3.9358843493587763 0 0 0
164 0 1 -1.1104 12.578541463175704 6.711062598006378 1.0692722321545602 0 0 0
165 0 1 -1.1104 12.673189330476221 6.617961899290864 4.06793492120917 0 0 0
166 0 1 -1.1104 0.9053985896866905 12.223472810337544 4.166157048163561 0 0 0
167 0 1 -1.1104 3.7507569864290513 9.358642809683735 0.635514917960059 0 0 0
168 0 1 -1.1104 1.0909164980817625 9.378669051580568 4.181055880623053 0 0 0
169 0 1 -1.1104 1.0325835202314146 9.490482107872067 7.192137819786197 0 0 0
8967 0 2 2.2208 13.913724455442875 19.772565547141607 8.208665834106407 0 0 0
9613 0 2 2.2208 -0.21178060502962806 5.323072427640732 13.85037372067108 0 0 0
172 0 1 -1.1104 2.633035437346124 14.44131709965998 4.641585455600752 0 0 0
173 0 1 -1.1104 4.3727472946037995 12.041116801941458 4.696351102823388 0 0 0
174 0 1 -1.1104 6.73113101142828 9.450095671664753 1.0409424394497342 0 0 0
175 0 1 -1.1104 9.907796123462957 6.556713289710827 3.5724637445594407 0 0 0
176 0 1 -1.1104 4.121428763633667 9.014199214422948 3.6939323200601746 0 0 0
177 0 1 -1.1104 6.504231514904431 6.719332256718371 6.850197331425414 0 0 0
178 0 1 -1.1104 6.943943770218539 12.220208867350042 1.0520086915928304 0 0 0
179 0 1 -1.1104 9.788776469548415 12.286397304071299 1.1668819153787373 0 0 0
180 0 1 -1.1104 6.914881024715924 12.178550308222466 3.8097849808507553 0 0 0
181 0 1 -1.1104 9.605150381207544 9.601035563736435 3.673323992396578 0 0 0
182 0 1 -1.1104 12.58780723003273 9.59472857122272 1.075717695249478 0 0 0
183 0 1 -1.1104 12.671322083197092 9.472063385636087 3.9030623302688126 0 0 0
184 0 1 -1.1104 12.628851860376447 12.42513519547074 1.032007858523491 0 0 0
185 0 1 -1.1104 12.550184843097085 12.322274843169934 3.5989302061288253 0 0 0
22 0 2 2.2208 2.60736484858994 11.03354809936463 0.14467486898832407 0 0 0
276 0 1 -1.1104 0.7405051139165518 15.183853336119315 6.754947259330511 0 0 0
48 0 2 2.2208 5.351817521134889 22.246689182672338 2.3035037259332056 0 0 0
189 0 1 -1.1104 4.98527117157942 14.275631582345994 2.5860643218246877 0 0 0
241 0 1 -1.1104 0.5496372015835561 1.6354844720772665 8.336366673994425 0 0 0
9298 0 2 2.2208 13.932134007042135 19.557709009844146 13.824434047557062 0 0 0
219 0 1 -1.1104 4.268803445356777 -2.318927175048991 8.560833708270936 0 0 0
193 0 1 -1.1104 4.4814820966084055 16.5520637751212 4.123351953096282 0 0 0
194 0 1 -1.1104 6.9896200576178895 15.094946235612012 0.9598170420960518 0 0 0
195 0 1 -1.1104 10.124979796039664 15.391269638183894 1.018506592544758 0 0 0
196 0 1 -1.1104 7.231450708864792 15.286266763304177 3.9337060042240695 0 0 0
197 0 1 -1.1104 9.921207882595482 15.277212394829757 3.8661413790917303 0 0 0
198 0 1 -1.1104 6.873184430217778 17.88442696637241 1.0498210398497871 0 0 0
199 0 1 -1.1104 9.448050831471322 18.29423890311124 0.8853032314376903 0 0 0
200 0 1 -1.1104 7.003644097942364 18.164290834086433 3.8432531068751046 0 0 0
201 0 1 -1.1104 9.946937666460085 18.374038690650163 3.814201039899389 0 0 0
202 0 1 -1.1104 12.62699274184923 15.136862851062393 1.1056779289944072 0 0 0
203 0 1 -1.1104 12.687944722733688 15.12837547105072 3.8999234132315377 0 0 0
204 0 1 -1.1104 12.235960283911789 17.939942405776556 0.8879783660843099 0 0 0
205 0 1 -1.1104 12.539869049317302 18.050800985696373 3.7903228782705534 0 0 0
206 0 1 -1.1104 0.8581927700806655 21.05552655912946 1.038935942357298 0 0 0
9229 0 1 -1.1104 1.4173421773083195 18.866148783108923 9.556761292638871 1 0 0
208 0 1 -1.1104 2.4319787458517133 18.88214110936825 4.549232834257557 0 0 0
209 0 1 -1.1104 4.394836581352878 18.504854800316988 2.675392007050898 0 0 0
210 0 1 -1.1104 6.392617563312961 20.732494549044787 1.1388427728944617 0 0 0
211 0 1 -1.1104 9.383049863771737 21.11885584256114 1.105262350253423 0 0 0
212 0 1 -1.1104 6.601970359229026 20.78628235347913 3.8067589733029448 0 0 0
213 0 1 -1.1104 9.497716216887317 20.97608247474688 3.8885078518435483 0 0 0
214 0 1 -1.1104 12.377755238017363 20.761590334701125 1.1741209248088476 0 0 0
215 0 1 -1.1104 12.705979535540834 21.053384176299563 3.918809462010702 0 0 0
136 0 1 -1.1104 7.329902432000296 -1.6160634167330605 3.8364043310355354 0 0 0
346 0 3 -1.1104 0.7971095694984413 9.439129219338014 1.2259339726654659 0 0 0
1 0 2 2.2208 13.781299201636013 -0.49468162413170613 5.700640135843827 0 0 0
679 0 1 -1.1104 0.3903809882107186 16.862027274215333 0.636164888130457 0 0 1
220 0 1 -1.1104 4.428485730835705 1.6154090602295434 8.275063472315656 0 0 0
298 0 1 -1.1104 0.6776752570472884 21.251024524569218 9.792549403559219 0 0 0
222 0 1 -1.1104 2.572538124243821 1.8242479542904604 10.50298891607739 0 0 0
223 0 1 -1.1104 3.9729868998782365 4.248459098648595 7.031310337548655 0 0 0
224 0 1 -1.1104 6.789599015639646 -1.949387856866957 6.9684957833251255 0 0 0
343 0 4 2.2208 11.253335392360981 13.783129977094607 13.67960054736136 0 0 0
226 0 1 -1.1104 6.924333357661115 -1.9030195421468608 10.02336413202094 0 0 0
227 0 1 -1.1104 9.677267177003325 -1.9845180140349816 9.724516464000422 0 0 0
228 0 1 -1.1104 6.8471330459977455 0.9156938903504547 6.871615545473704 0 0 0
229 0 1 -1.1104 9.85990612118553 1.3545623837285024 6.962664011785814 0 0 0
230 0 1 -1.1104 6.929987920037785 0.991078397800026 9.774766463914796 0 0 0
231 0 1 -1.1104 9.771909735123302 1.2253980556653346 9.594658496596955 0 0 0
218 0 1 -1.1104 2.071443513587325 -2.360191911129374 10.49798239609762 0 0 0
8941 0 2 2.2208 -0.1515822014206695 2.407276984470382 10.88875323293619 0 0 0
234 0 1 -1.1104 12.579448811910492 0.6536550554991888 6.872086398277493 0 0 0
235 0 1 -1.1104 12.792390557213308 0.9761899229310464 9.956128602387809 0 0 0
233 0 1 -1.1104 12.330368118474059 -1.951598714656875 9.705091243203562 0 0 0
237 0 1 -1.1104 4.348764584067418 -0.5201509363345367 6.561113224127741 0 0 0
238 0 1 -1.1104 4.045349626321171 -0.12191852790890717 10.103595275886894 0 0 0
239 0 1 -1.1104 1.2019473043441093 4.122463364326212 9.597986249537518 0 0 0
240 0 1 -1.1104 0.9711215883122317 6.786636787124705 7.060303578117205 0 0 0
805 0 1 -1.1104 3.065956106109475 22.64371238378312 2.40821952062677 0 0 0
242 0 1 -1.1104 1.1261509336319706 3.8875060373081336 12.58537938498621 0 0 0
243 0 1 -1.1104 4.005485063717197 7.087477219764311 9.55743656143968 0 0 0
244 0 1 -1.1104 6.775037491374425 3.922144110743337 6.864617735106693 0 0 0
245 0 1 -1.1104 9.46330910490056 3.86996330843719 6.782637118572777 0 0 0
246 0 1 -1.1104 6.704644076475672 3.713107161836338 9.741354519706988 0 0 0
247 0 1 -1.1104 9.606012943180621 3.6286328093616054 9.565705170039456 0 0 0
248 0 1 -1.1104 3.8046803564101754 6.817300677253457 6.61570281004335 0 0 0
249 0 1 -1.1104 12.792067642393159 8.513574892513185 9.599907641402995 0 0 0
250 0 1 -1.1104 6.757787648238962 6.927770250271353 9.918397582448726 0 0 0
251 0 1 -1.1104 10.633130082480324 9.737541291720103 6.570988327011349 0 0 0
252 0 1 -1.1104 12.827337677327654 3.5084519452480776 6.684545375673642 0 0 0
253 0 1 -1.1104 12.555879624660914 3.7082681900458203 9.44107666947795 0 0 0
315 0 1 -1.1104 11.76415351462383 3.7618715474299016 12.563456110051037 0 0 0
255 0 1 -1.1104 10.513962632812238 6.354144562127452 6.365713334942954 0 0 0
256 0 1 -1.1104 6.228258057612726 9.632543580656801 7.030699273246853 0 0 0
257 0 1 -1.1104 3.681626812141025 10.025013105727421 6.880222787804637 0 0 0
258 0 1 -1.1104 1.2819937811169764 6.858260000511136 9.819151266303281 0 0 0
259 0 1 -1.1104 6.846146368732521 9.88171458100121 9.862488188222194 0 0 0
260 0 1 -1.1104 0.9268393775980299 12.156318128085381 7.069373410011185 0 0 0
261 0 1 -1.1104 3.594364277894598 12.685768357058397 7.3930748231060655 0 0 0
262 0 1 -1.1104 1.1520762519387353 12.819572002742056 9.616383750166882 0 0 0
263 0 1 -1.1104 3.72960380996007 9.689891990814306 9.789303424199 0 0 0
264 0 1 -1.1104 6.83053232928123 9.338693159987695 4.135449362374599 0 0 0
170 0 1 -1.1104 0.9872850024020825 12.379594975176216 0.9637630731536246 0 0 0
266 0 1 -1.1104 8.375603414462129 10.8469048800775 7.8528266076119255 0 0 0
267 0 1 -1.1104 9.705873873228118 8.985705655671946 9.744925462492924 0 0 0
268 0 1 -1.1104 6.712392580118425 12.557100303551913 6.701289177323037 0 0 0
269 0 1 -1.1104 9.760767844333813 12.986750847568091 6.750337256107578 0 0 0
270 0 1 -1.1104 6.789903790571288 12.837586683527725 9.542764828081069 0 0 0
271 0 1 -1.1104 9.585274263082725 12.6367028930793 9.59244718106234 0 0 0
8947 0 2 2.2208 0.3155932170254601 19.334717010164233 4.646012624010447 0 0 0
9040 0 2 2.2208 13.843977835291907 5.123301160814338 10.621868125384466 0 0 0
274 0 1 -1.1104 12.533186870049741 12.410637024397827 6.30671552175601 0 0 0
275 0 1 -1.1104 12.41385746065014 12.697637181295208 8.973207739021074 0 0 0
306 0 1 -1.1104 0.6195257630618889 -0.30368587215318665 10.034162701961021 0 0 0
277 0 1 -1.1104 4.242764229159475 15.300247125695453 6.742197858082892 0 0 0
57 0 2 2.2208 11.191556374490979 17.017702308817924 13.715633881795407 0 0 0
279 0 1 -1.1104 3.9898123077595526 15.241313056007469 9.862159120828652 0 0 0
803 0 1 -1.1104 3.922337411851637 21.16862992909627 0.670984657954087 0 0 0
281 0 1 -1.1104 4.246257004557082 18.057392466431285 6.765760097499294 0 0 0
282 0 1 -1.1104 2.486367505088424 16.852229677188326 8.152528405587294 0 0 0
283 0 1 -1.1104 4.159410147283751 18.06423320034029 9.818261356723209 0 0 0
284 0 1 -1.1104 6.900854435467848 15.482350731140345 6.81216672142721 0 0 0
285 0 1 -1.1104 9.654616553727479 15.492314802223513 6.954530494033629 0 0 0
286 0 1 -1.1104 6.88825396488212 15.627634113620243 9.426125057715053 0 0 0
287 0 1 -1.1104 10.089985789293562 15.461384793986577 9.457610230723615 0 0 0
288 0 1 -1.1104 7.056753257694465 18.05078256239453 6.597183742302809 0 0 0
289 0 1 -1.1104 9.749185702814652 18.624806840462487 6.857230995444646 0 0 0
290 0 1 -1.1104 6.595646770439682 18.487485739470237 9.473013016958841 0 0 0
291 0 1 -1.1104 9.549738754564887 18.43687316949685 9.590324147431964 0 0 0
292 0 1 -1.1104 12.631222670291221 15.327990904778172 6.778107036353187 0 0 0
293 0 1 -1.1104 12.69738475748514 15.419412205556577 9.727090074435289 0 0 0
294 0 1 -1.1104 12.549359261462483 18.316020325636465 6.561852721860615 0 0 0
295 0 1 -1.1104 12.470461980846872 18.255620046462674 9.56820242082547 0 0 0
296 0 1 -1.1104 1.1419060343191634 20.872479921640668 6.833300732545107 0 0 0
297 0 1 -1.1104 4.1299066717134245 20.830991384016446 6.879802464845388 0 0 0
280 0 1 -1.1104 0.6292017615374631 18.12890645049442 6.717467489230938 0 0 0
299 0 1 -1.1104 3.913751916695605 21.255735248460866 9.433910783047981 0 0 0
300 0 1 -1.1104 6.994275611467545 21.458558707056223 6.760475818245664 0 0 0
301 0 1 -1.1104 9.866510186779069 21.352143463362093 6.6773189697029105 0 0 0
302 0 1 -1.1104 6.656517030644442 21.046402015011555 9.524484236396798 0 0 0
303 0 1 -1.1104 9.877951470438168 21.53439019867336 9.577484102755061 0 0 0
304 0 1 -1.1104 12.703947917913878 21.11624689234954 6.869158740917479 0 0 0
305 0 1 -1.1104 12.574051213864017 21.14305363061097 9.46333700899533 0 0 0
236 0 1 -1.1104 2.394399820596438 1.9267043749535968 6.162019708757744 0 0 0
116 0 1 -1.1104 10.793172386168479 19.49883965407705 13.761486159190413 0 0 0
308 0 1 -1.1104 0.9247903814560802 0.880076837343108 12.428270230350774 0 0 0
309 0 1 -1.1104 3.774979032722805 0.7709558781022561 12.94062970128577 0 0 0
310 0 1 -1.1104 7.000967430673461 -1.9839434436459735 12.608715095600397 0 0 0
134 0 1 -1.1104 6.711483868080626 -1.623558983166054 0.8825565083828083 0 0 0
312 0 1 -1.1104 6.60775777711006 0.9450932243114573 12.745832379876223 0 0 0
313 0 1 -1.1104 9.852409447372604 1.082390704990115 12.310843399571477 0 0 0
35 0 2 2.2208 5.406955163367346 13.92885206972934 -0.15707608082445026 0 0 0
332 0 1 -1.1104 6.836862798972907 12.334238464422132 12.379483380935152 0 0 0
9274 0 3 -1.1104 0.7999070790423469 4.1283706829960245 6.842784208594657 0 0 0
317 0 1 -1.1104 4.0387788115631915 3.782247847001323 12.598673458546852 0 0 0
318 0 1 -1.1104 1.1620598372593536 6.625751254245065 12.596714380057662 0 0 0
319 0 1 -1.1104 4.043395390811379 6.695392758954054 12.431921000201532 0 0 0
320 0 1 -1.1104 6.8988364373162385 3.581697169867694 12.487220635000778 0 0 0
321 0 1 -1.1104 9.544105586921843 3.8853682732756583 13.60898500976619 0 0 0
322 0 1 -1.1104 9.330472953820413 6.57680221320387 12.125063678165263 0 0 0
323 0 1 -1.1104 9.401352049686318 9.77788387405429 12.49885937009444 0 0 0
324 0 1 -1.1104 11.170227583380466 10.839946856558408 10.60836467626925 0 0 0
325 0 1 -1.1104 12.674535068022463 6.699895833629255 12.153469481174238 0 0 0
326 0 1 -1.1104 1.1923137047613828 9.422600422103256 12.88958919988072 0 0 0
327 0 1 -1.1104 0.9699221858222206 9.879560790100086 9.900542672414378 0 0 0
328 0 1 -1.1104 0.7437090862621581 12.247636747202327 12.492939414605232 0 0 0
329 0 1 -1.1104 3.8826063680743172 12.364441209582088 12.724558581506422 0 0 0
330 0 1 -1.1104 6.556022086651699 6.604985220928732 12.493984596061058 0 0 0
331 0 1 -1.1104 6.591066662525659 9.53216856574613 12.817091662058463 0 0 0
190 0 1 -1.1104 2.259587593930331 14.96031080791983 1.0150677740224991 0 0 0
493 0 1 -1.1104 6.726778968457525 15.256227140279043 12.481836038939395 0 0 0
207 0 1 -1.1104 2.5582072624776946 18.665247188398087 0.6519259472021323 0 0 0
265 0 1 -1.1104 13.021507820741164 5.9067304550441255 8.178833018862251 0 0 0
188 0 1 -1.1104 0.23753806414650744 14.400352490410093 2.5966139397575705 0 0 0
51 0 2 2.2208 13.821535793570408 22.466132341021915 10.87386624689731 0 0 0
8989 0 2 2.2208 13.872377128912921 16.5947153349095 -0.13700286448285354 0 0 0
8942 0 2 2.2208 -0.16717425457138652 -2.9802797526024745 10.598108704692498 0 0 0
385 0 2 2.2208 10.933070326853164 -0.8800980703461422 13.940052336996045 0 0 0
356 0 2 2.2208 11.136315163838322 2.3162879505654415 -0.037868876351899054 0 0 0
12 0 2 2.2208 2.329440666679926 5.240041735075184 -0.18050849655731852 0 0 0
345 0 2 2.2208 5.1948402381235335 19.139486513908786 0.06830715556082581 0 0 0
8951 0 4 2.2208 -0.2613127254101443 19.762129634465136 8.089477238184354 0 0 0
8962 0 2 2.2208 -0.16056517328364514 2.330169584144586 5.897585993524543 0 0 0
11 0 2 2.2208 5.278058273369434 17.055387463022566 13.825726369957286 0 0 0
359 0 2 2.2208 8.236475146582316 19.56339355595185 13.872206159089897 0 0 0
9641 0 2 2.2208 13.61269389269876 22.533691719242306 -0.16979381100268645 0 0 0
487 0 1 -1.1104 10.898332002987516 8.128076578566363 13.900929166544197 0 0 0
9050 0 2 2.2208 13.93584564342267 16.792398245683348 10.908515877314853 0 0 0
8938 0 2 2.2208 -0.2579024761074979 8.394922240846405 11.204162714557464 0 0 0
523 0 1 -1.1104 12.579633444644537 -2.048936471347703 18.38175657635846 0 0 0
338 0 4 2.2208 2.710510168551944 10.658167061492216 25.377171892959247 0 0 0
339 0 3 -1.1104 1.3209565868953994 3.666725075464112 26.67819318762178 0 0 -1
670 0 1 -1.1104 9.453915765608599 21.14953274061056 23.682624946284434 0 0 0
9650 0 2 2.2208 13.76962584937096 19.634710375759727 19.347925990658368 0 0 0
467 0 1 -1.1104 9.429849611727438 -1.9435581342093453 15.42142392624213 0 0 0
661 0 1 -1.1104 0.7332259877841193 18.078777413346824 23.374873031161233 0 0 0
45 0 2 2.2208 8.097691623353668 22.403875237205007 27.828285688917052 0 0 -1
664 0 1 -1.1104 3.8854785313059637 18.295101636597643 26.62139791505057 0 0 0
9362 0 2 2.2208 13.905105135779111 2.1419945361493857 25.33661624390209 0 0 0
382 0 3 -1.1104 4.308339609099048 -1.5934306303654093 17.606320796000944 0 0 0
348 0 3 -1.1104 9.673592163720519 12.433339783310664 23.832075863762462 0 0 0
669 0 1 -1.1104 6.980147150051306 18.187195930300184 24.20143722800003 0 0 0
1292 0 1 -1.1104 3.980516565507478 21.069498617803642 26.117518469452666 0 0 0
9277 0 2 2.2208 13.795622014184962 22.479154785436425 22.317450505080462 0 0 0
516 0 1 -1.1104 9.893821347769325 -2.116894069981 18.382967005866902 0 0 0
353 0 3 -1.1104 7.04156825685644 18.176785838683756 26.719105447242562 0 0 -1
350 0 2 2.2208 11.092249578272655 13.64493517743409 28.09356507356941 0 0 -1
340 0 2 2.2208 5.134179213659716 -0.49712678733964594 14.055005785520652 0 0 0
668 0 1 -1.1104 9.546621423152825 15.185163121942047 26.545825640004082 0 0 0
9652 0 3 -1.1104 2.2915301799520655 16.650681347207488 24.971727575977653 0 0 0
358 0 3 -1.1104 6.6111574700169315 1.053706435537656 20.958034472548032 0 0 0
357 0 2 2.2208 2.474441900829054 19.529188783915014 14.04202809339843 0 0 0
344 0 2 2.2208 7.718253303636412 2.404029911351283 14.03469804204658 0 0 0
479 0 1 -1.1104 9.453929738053859 6.5150987444140265 15.383724460408812 0 0 0
524 0 1 -1.1104 12.355451950266822 -1.9470881822264787 21.322149967756424 0 0 0
363 0 2 2.2208 2.633246901774748 -0.39485019583444897 16.78648779965495 0 0 0
351 0 2 2.2208 11.066362530025463 10.66752693367332 14.083567137665428 0 0 0
676 0 1 -1.1104 12.48825459701303 18.05474790883497 26.468538505155884 0 0 0
9301 0 2 2.2208 13.762907534233975 -0.6844278318091521 16.756572263771545 0 0 0
367 0 2 2.2208 8.033687505491931 -0.5369678783181158 16.589878836619718 0 0 0
673 0 1 -1.1104 12.721770382044083 15.276369520364096 23.77062325653251 0 0 0
369 0 2 2.2208 5.350143980464689 -0.43529755926917657 19.547820176750722 0 0 0
663 0 1 -1.1104 0.8813668592837594 18.230164083602237 26.351263148082367 0 0 0