ITEM: TIMESTEP
80000
ITEM: NUMBER OF ATOMS
17640
ITEM: BOX BOUNDS pp pp pp
-3.5348717712728289e-01 2.7693487177127874e+01
-4.3224641460607778e+00 3.3240246414605662e+02
-3.6017363754142373e-01 2.7700173637541365e+01
ITEM: ATOMS id type q x y z
1 2 2.2208 5.23209 1.23063 5.28556
2 1 -1.1104 1.03059 -2.7611 1.22909
3 1 -1.1104 0.937109 2.7167 1.0354
6 1 -1.1104 0.955291 -2.99634 4.06282
7 1 -1.1104 0.881038 2.75345 3.98067
10 1 -1.1104 1.00313 -0.0755262 1.05016
12 2 2.2208 5.23843 -1.52164 2.4994
13 2 2.2208 5.1876 4.08942 2.50658
14 1 -1.1104 0.998358 -0.101313 3.87023
16 1 -1.1104 3.80155 -2.90802 1.12416
17 1 -1.1104 3.77069 2.7846 1.04634
18 2 2.2208 2.48873 1.35121 2.42904
19 1 -1.1104 3.84944 -2.86394 3.74542
20 1 -1.1104 3.82113 2.84156 4.0171
21 2 2.2208 2.43921 -1.58922 5.36201
22 2 2.2208 2.42654 4.01026 5.4545
23 1 -1.1104 3.96396 -0.00212249 1.0971
24 1 -1.1104 3.8325 -0.0686278 3.92236
11 1 -1.1104 6.71996 -0.0217858 0.962391
4 1 -1.1104 6.60489 -2.93987 1.13139
8 1 -1.1104 6.57889 -3.0467 3.95969
9 1 -1.1104 6.6648 2.67941 4.03745
15 1 -1.1104 6.58899 -0.109603 3.76224
174 1 -1.1104 3.86906 -0.269605 6.734
5 1 -1.1104 6.66915 2.78225 1.26073
167 1 -1.1104 1.14086 2.71626 6.77314
170 1 -1.1104 1.09367 -0.257567 6.84043
172 1 -1.1104 3.81105 -2.91274 6.79339
25 2 2.2208 13.5275 15.4055 10.813
351 2 2.2208 8.12969 4.08456 -0.221817
168 1 -1.1104 6.61689 -2.94882 6.73864
322 1 -1.1104 9.27695 13.9776 12.2626
651 2 2.2208 5.13607 6.9526 -0.212629
349 2 2.2208 10.8981 1.20992 -0.29127
8484 2 2.2208 2.36764 -4.21979 2.53048
31 2 2.2208 10.9153 1.16731 5.29245
32 1 -1.1104 12.1337 -2.96667 1.14776
33 1 -1.1104 12.438 2.69894 1.08286
34 1 -1.1104 12.2041 -2.99516 3.95969
35 1 -1.1104 12.171 2.68154 3.84596
36 1 -1.1104 12.2191 -0.259548 1.20213
37 2 2.2208 10.8665 -1.59596 2.59624
38 2 2.2208 10.7712 4.14907 2.51797
39 1 -1.1104 12.3299 -0.108071 3.8431
40 1 -1.1104 9.29307 -2.99275 1.13387
41 1 -1.1104 9.587 2.75967 1.02916
42 2 2.2208 8.06035 1.34606 2.5941
43 1 -1.1104 9.45686 -2.84207 4.05594
44 1 -1.1104 9.43938 2.82348 4.02195
45 2 2.2208 7.93502 -1.57645 5.27769
46 2 2.2208 8.0306 4.22773 5.44987
47 1 -1.1104 9.40341 -0.137847 1.21935
48 1 -1.1104 9.39254 -0.0797224 4.0359
8485 2 2.2208 5.13428 -4.2446 5.26537
8870 2 2.2208 13.6032 -1.48356 5.29756
17263 2 2.2208 13.6407 -4.32612 2.58257
205 1 -1.1104 12.1168 -3.09837 6.76876
154 1 -1.1104 9.36146 14.0874 6.55799
8498 2 2.2208 5.19047 -4.35263 -0.220307
230 2 2.2208 13.542 -1.51725 10.8558
229 2 2.2208 13.5895 1.27388 8.10502
233 1 -1.1104 12.3082 19.5933 9.46555
358 2 2.2208 2.38243 9.67447 -0.260161
54 2 2.2208 5.29584 6.89047 5.34261
55 2 2.2208 5.30917 12.5476 5.23776
56 1 -1.1104 0.951125 8.24643 1.17443
58 1 -1.1104 0.983528 8.22903 3.9515
60 1 -1.1104 0.97323 5.52792 1.08647
61 1 -1.1104 1.11867 11.1404 1.16718
66 2 2.2208 5.30601 9.76422 2.42607
67 1 -1.1104 1.01604 5.46434 3.94366
68 1 -1.1104 1.03232 10.9816 3.84129
71 1 -1.1104 3.76069 8.35857 1.09533
72 2 2.2208 2.52837 6.88327 2.60124
73 2 2.2208 2.39798 12.5162 2.44955
74 1 -1.1104 3.82243 8.39902 3.92232
75 2 2.2208 2.39568 9.74967 5.22312
76 1 -1.1104 3.78325 5.52309 1.21066
77 1 -1.1104 3.89762 11.1734 1.06744
79 1 -1.1104 3.76707 5.57165 3.93914
80 1 -1.1104 3.89983 11.2711 3.85038
69 1 -1.1104 6.66371 5.65883 3.86527
70 1 -1.1104 6.75915 11.0373 3.91007
64 1 -1.1104 6.65992 11.131 1.06095
63 1 -1.1104 6.62307 5.61373 1.17526
62 1 -1.1104 1.1242 11.123 6.60927
57 1 -1.1104 6.59374 8.40685 1.08283
59 1 -1.1104 6.66039 8.37587 3.87785
238 1 -1.1104 3.77613 8.32653 6.6799
65 1 -1.1104 6.80652 11.1455 6.71787
235 1 -1.1104 6.72393 8.26277 6.72308
239 1 -1.1104 3.81321 5.52491 6.73075
9164 2 2.2208 13.6357 -1.5293 -0.280812
355 2 2.2208 -0.339218 6.80215 -0.215592
360 2 2.2208 7.87848 15.2485 -0.281995
84 2 2.2208 10.8507 6.87692 5.34683
85 2 2.2208 10.764 12.6542 5.35935
86 1 -1.1104 12.1842 8.45266 1.08565
87 1 -1.1104 12.246 8.35929 3.93334
88 1 -1.1104 12.3138 5.51549 1.14176
89 1 -1.1104 12.1689 11.2764 1.04971
91 2 2.2208 10.8291 9.81885 2.5291
92 1 -1.1104 12.2347 5.59722 3.9887
93 1 -1.1104 12.4013 11.119 3.89495
94 1 -1.1104 9.44407 8.3114 1.18353
95 2 2.2208 8.023 7.06018 2.56839
96 2 2.2208 8.14392 12.5339 2.50063
97 1 -1.1104 9.60145 8.27367 3.82706
98 2 2.2208 8.06702 9.69294 5.21611
99 1 -1.1104 9.34875 5.46327 1.05265
100 1 -1.1104 9.40947 11.0862 1.05385
102 1 -1.1104 9.4437 5.59521 3.89075
103 1 -1.1104 9.53475 11.0789 3.9258
315 1 -1.1104 9.47541 16.6782 12.4268
269 1 -1.1104 9.43189 5.56767 6.80904
266 1 -1.1104 12.2882 5.42827 6.85116
90 1 -1.1104 12.2917 11.2036 6.73292
145 1 -1.1104 12.2212 19.6377 6.58842
347 2 2.2208 10.862 6.81664 -0.259349
30 2 2.2208 13.6652 18.1328 7.99058
163 1 -1.1104 9.50013 16.8672 6.66875
106 2 2.2208 5.14947 18.1506 5.38844
107 1 -1.1104 1.05129 13.8736 1.0985
109 1 -1.1104 0.891486 19.4367 1.15171
113 1 -1.1104 0.893077 13.8777 3.91957
114 1 -1.1104 0.92834 19.4705 3.92649
116 1 -1.1104 0.91049 16.6506 0.988844
119 2 2.2208 5.1678 15.3518 2.48574
120 2 2.2208 5.25974 20.9176 2.56654
121 1 -1.1104 0.998668 16.5808 3.83555
123 1 -1.1104 3.91343 13.9272 0.97761
125 1 -1.1104 3.74991 19.4334 1.06943
127 2 2.2208 2.41453 18.0423 2.5064
128 1 -1.1104 3.79293 13.9748 3.84797
129 1 -1.1104 3.80007 19.5178 3.82107
130 2 2.2208 2.33108 15.2329 5.1523
131 2 2.2208 2.10586 20.9416 5.26542
132 1 -1.1104 3.86013 16.7278 1.10414
134 1 -1.1104 3.73338 16.7755 3.93486
126 1 -1.1104 3.7386 19.4102 6.71063
117 1 -1.1104 0.891086 16.646 6.68416
133 1 -1.1104 3.74934 16.7948 6.77004
139 1 -1.1104 6.57436 19.4922 4.03418
140 1 -1.1104 6.5878 16.709 1.06403
122 1 -1.1104 6.55829 16.8253 3.74018
112 1 -1.1104 6.627 19.4273 6.74667
110 1 -1.1104 6.62264 13.8245 1.16401
138 1 -1.1104 6.70958 19.5289 1.18364
115 1 -1.1104 6.67907 13.9665 3.87195
302 1 -1.1104 0.899876 19.48 6.69122
108 1 -1.1104 0.914669 13.8994 6.74376
653 2 2.2208 5.21576 12.5456 -0.364794
203 2 2.2208 13.7006 6.85449 8.12955
356 2 2.2208 2.49319 4.03092 -0.372625
149 1 -1.1104 12.2227 16.8345 6.64712
9161 2 2.2208 13.6079 20.9559 5.31636
141 2 2.2208 10.8015 18.1605 5.23
142 1 -1.1104 12.1578 13.9183 1.00931
144 1 -1.1104 12.1375 19.5113 1.09227
146 1 -1.1104 12.2167 13.9984 3.99035
147 1 -1.1104 12.1484 19.6601 3.9235
148 1 -1.1104 12.317 16.6767 1.11347
150 2 2.2208 10.7993 15.483 2.48348
151 2 2.2208 10.7491 20.8944 2.47934
152 1 -1.1104 12.1952 16.7595 3.85714
153 1 -1.1104 9.41224 13.9978 1.10542
155 1 -1.1104 9.43069 19.4538 1.10314
157 2 2.2208 7.89728 18.0841 2.50346
158 1 -1.1104 9.59214 13.9097 3.7749
159 1 -1.1104 9.39046 19.4721 3.87172
160 2 2.2208 8.02103 15.3648 5.28733
161 2 2.2208 8.01258 20.8177 5.29778
162 1 -1.1104 9.4902 16.6677 1.0732
164 1 -1.1104 9.33476 16.7648 3.98454
200 1 -1.1104 12.2151 19.5094 12.2663
156 1 -1.1104 9.44541 19.5432 6.64275
350 2 2.2208 8.10406 -1.54318 -0.314694
326 1 -1.1104 12.0884 16.7841 12.35
317 2 2.2208 7.95345 15.3604 11.0204
166 1 -1.1104 1.01988 -2.94772 6.75418
316 2 2.2208 8.02548 20.9886 10.962
171 1 -1.1104 6.66122 -0.0251223 6.74361
173 1 -1.1104 3.73345 2.65303 6.76131
169 1 -1.1104 6.54042 2.68188 6.82788
175 2 2.2208 5.23456 1.31323 11.0429
176 1 -1.1104 0.998573 -2.98603 12.4522
177 1 -1.1104 1.03279 2.61354 12.4102
180 1 -1.1104 1.04732 -2.93319 9.52659
181 1 -1.1104 1.10685 2.54065 9.60995
184 1 -1.1104 0.986253 -0.174584 12.4237
186 2 2.2208 5.23025 -1.57631 8.20438
187 2 2.2208 5.25945 4.26021 8.23035
188 1 -1.1104 1.12441 -0.193119 9.62226
190 1 -1.1104 3.64435 -2.7345 12.4161
191 1 -1.1104 3.72012 2.75039 12.4518
192 2 2.2208 2.50879 1.27329 8.0973
193 1 -1.1104 3.85658 -2.89587 9.56109
194 1 -1.1104 3.79655 2.86657 9.62808
195 2 2.2208 2.29192 -1.59453 10.9832
197 1 -1.1104 3.80997 -0.121401 12.427
198 1 -1.1104 3.92822 -0.065584 9.44797
196 2 2.2208 2.36771 4.06235 11.0145
178 1 -1.1104 6.61324 -2.88203 12.4687
185 1 -1.1104 6.57283 -0.238811 12.4651
183 1 -1.1104 6.5712 2.89062 9.61551
179 1 -1.1104 6.5652 2.71672 12.5606
182 1 -1.1104 6.59401 -2.86209 9.58394
189 1 -1.1104 6.61956 -0.0262207 9.75686
321 1 -1.1104 9.46915 19.4976 12.407
328 2 2.2208 13.6126 9.74165 5.35715
50 2 2.2208 10.7737 18.2469 10.9174
206 1 -1.1104 12.3486 2.69206 6.8509
208 1 -1.1104 9.32834 -3.05534 6.79069
210 1 -1.1104 9.39642 -0.251585 6.64577
209 1 -1.1104 9.49986 2.67542 6.8912
678 2 2.2208 5.24951 18.2012 -0.214285
319 1 -1.1104 9.2978 13.8659 9.48415
207 1 -1.1104 12.1987 -0.185326 6.65225
211 2 2.2208 10.7174 1.2143 11.0694
212 1 -1.1104 12.1876 -3.06154 12.3846
213 1 -1.1104 12.2843 2.74617 12.3351
214 1 -1.1104 12.2099 -3.02444 9.59946
215 1 -1.1104 12.2474 2.54069 9.39767
216 1 -1.1104 12.1361 -0.298794 12.4495
217 2 2.2208 10.7589 -1.56186 8.01424
218 2 2.2208 10.8802 4.0256 8.13709
219 1 -1.1104 12.1086 -0.239438 9.48239
220 1 -1.1104 9.41706 -3.11733 12.3589
221 1 -1.1104 9.35226 2.53719 12.4501
222 2 2.2208 8.00268 1.21494 8.15246
223 1 -1.1104 9.31378 -2.8964 9.57662
224 1 -1.1104 9.342 2.69638 9.75126
225 2 2.2208 7.90363 -1.50033 11.0801
226 2 2.2208 8.06855 4.10044 11.1118
227 1 -1.1104 9.31421 -0.267782 12.4035
228 1 -1.1104 9.36038 0.000793216 9.54629
231 2 2.2208 13.582 4.02748 10.8676
236 1 -1.1104 0.951103 5.56475 6.73761
234 1 -1.1104 0.943175 8.42536 6.74261
78 1 -1.1104 4.00309 11.214 6.59383
53 1 -1.1104 12.1426 13.8231 12.3009
240 2 2.2208 5.1991 7.0659 10.9902
241 2 2.2208 5.0835 12.4202 10.9541
242 1 -1.1104 1.12664 8.2503 12.2165
244 1 -1.1104 0.953223 8.21103 9.40753
246 1 -1.1104 0.887949 5.35253 12.2564
247 1 -1.1104 1.00904 11.2386 12.293
250 2 2.2208 5.26938 9.74263 8.07977
251 1 -1.1104 1.038 5.31619 9.51618
252 1 -1.1104 0.954711 11.1916 9.49159
255 1 -1.1104 3.75303 8.37202 12.4306
256 2 2.2208 2.50845 7.01256 8.08786
257 2 2.2208 2.56364 12.4696 7.99311
258 1 -1.1104 3.87589 8.38239 9.63746
259 2 2.2208 2.32021 9.81863 10.8676
260 1 -1.1104 3.89546 5.51468 12.2687
261 1 -1.1104 3.78622 11.0159 12.4657
262 1 -1.1104 3.76305 5.67905 9.50027
263 1 -1.1104 3.73712 11.0441 9.40301
248 1 -1.1104 6.7144 5.48813 12.6104
249 1 -1.1104 6.59677 10.9817 12.327
254 1 -1.1104 6.5393 11.3036 9.59361
243 1 -1.1104 6.50337 8.22554 12.4305
306 1 -1.1104 6.57784 16.5531 12.4798
143 1 -1.1104 12.2599 13.9861 6.80982
237 1 -1.1104 6.63866 5.4634 6.88238
253 1 -1.1104 6.5825 5.73786 9.82789
245 1 -1.1104 6.547 8.42876 9.59856
267 1 -1.1104 9.45916 8.28191 6.80143
202 2 2.2208 13.5861 12.5974 8.15479
318 1 -1.1104 9.47717 19.6606 9.51607
101 1 -1.1104 9.36874 11.2661 6.87226
265 1 -1.1104 12.2635 8.16381 6.61151
264 1 -1.1104 9.3546 10.995 9.51658
268 1 -1.1104 9.38017 5.47772 9.65507
270 1 -1.1104 9.41646 11.0294 12.4328
271 1 -1.1104 9.49497 5.52343 12.4845
272 2 2.2208 7.96938 9.70424 11.0007
273 1 -1.1104 9.42101 8.19613 9.61062
274 2 2.2208 7.98987 12.4976 8.1384
275 2 2.2208 8.01685 6.91088 8.30856
276 2 2.2208 10.8375 6.8885 10.8559
277 2 2.2208 10.646 12.3709 10.9188
278 1 -1.1104 12.0923 8.36235 12.3003
279 1 -1.1104 12.1581 8.18927 9.41299
280 1 -1.1104 12.299 5.56882 12.1375
281 1 -1.1104 12.2103 11.0543 12.5975
282 2 2.2208 10.8554 9.73664 8.09026
283 1 -1.1104 12.1912 5.31845 9.49088
284 1 -1.1104 12.1758 11.0697 9.4981
285 1 -1.1104 9.23499 8.22279 12.2769
52 2 2.2208 13.6271 9.67909 11
124 1 -1.1104 3.81844 13.9418 6.59733
104 2 2.2208 13.5318 12.5643 2.48913
111 1 -1.1104 6.63083 13.9766 6.65993
289 1 -1.1104 6.67001 16.905 9.59973
290 1 -1.1104 6.54093 14.0395 9.3844
288 1 -1.1104 6.77564 19.6239 9.4501
297 1 -1.1104 6.52831 13.678 12.3351
286 1 -1.1104 3.87692 19.44 12.5085
287 1 -1.1104 3.72925 13.9384 12.5448
291 1 -1.1104 1.01363 19.4182 9.40438
292 1 -1.1104 1.08913 16.6879 9.48361
293 2 2.2208 5.24815 20.8072 8.03686
294 1 -1.1104 1.21992 13.9905 9.51935
295 2 2.2208 5.19297 15.4365 8.11077
298 1 -1.1104 1.16911 19.2936 12.1527
299 1 -1.1104 1.09053 13.8519 12.2389
300 2 2.2208 5.20248 18.1082 10.9854
301 1 -1.1104 3.82298 19.3869 9.52046
303 2 2.2208 2.37386 18.0938 8.08353
304 1 -1.1104 3.90575 16.6518 9.55944
305 1 -1.1104 3.90949 13.8474 9.57753
307 1 -1.1104 0.969294 16.7063 12.3705
308 1 -1.1104 3.90022 16.6482 12.4338
309 2 2.2208 2.35972 20.783 10.8908
310 2 2.2208 2.52841 15.4165 11.0683
296 1 -1.1104 6.69496 19.5355 12.2055
204 1 -1.1104 12.1571 13.9691 9.50344
325 2 2.2208 10.7825 15.3068 8.09411
323 1 -1.1104 12.2722 16.7534 9.41261
324 2 2.2208 10.9086 21.0974 8.17365
320 2 2.2208 8.02913 18.1475 8.12107
314 1 -1.1104 9.36618 16.8031 9.4752
118 1 -1.1104 6.52839 16.7906 6.54531
199 2 2.2208 -0.322342 4.03323 8.18413
28 2 2.2208 -0.325194 6.88848 10.8622
201 2 2.2208 -0.312328 1.20339 11.0781
335 2 2.2208 13.492 9.69783 -0.343325
346 2 2.2208 2.46863 -1.45757 -0.364651
165 2 2.2208 13.5739 18.0914 2.49681
345 2 2.2208 5.30731 1.38023 -0.320128
232 2 2.2208 13.6515 15.2619 5.29114
354 2 2.2208 13.5736 15.2706 -0.390725
26 2 2.2208 -0.255291 1.23517 5.40078
8869 2 2.2208 -0.348437 -1.47477 8.20992
313 2 2.2208 -0.330288 15.221 8.12718
105 2 2.2208 13.5685 6.92681 2.52457
432 2 2.2208 2.37592 20.8593 -0.249246
334 2 2.2208 13.5674 6.85268 13.7005
677 2 2.2208 7.98142 9.7342 -0.2872
361 2 2.2208 10.66 18.0511 -0.297955
339 2 2.2208 10.7748 -1.579 13.6982
362 2 2.2208 5.14413 1.24428 16.677
363 1 -1.1104 0.815522 -2.98201 17.8975
364 1 -1.1104 1.09127 2.76709 18.0276
367 1 -1.1104 0.939944 -3.0314 15.2664
369 1 -1.1104 1.17544 2.67985 15.3352
375 1 -1.1104 1.06921 -0.00156477 17.8762
377 2 2.2208 5.2071 -1.4816 19.4952
378 2 2.2208 5.18192 4.13902 19.5316
379 1 -1.1104 0.878099 -0.048457 15.1625
383 1 -1.1104 3.66488 -2.87719 18.0845
384 1 -1.1104 3.86212 2.51688 18.1333
385 2 2.2208 2.39195 1.36873 19.3146
386 1 -1.1104 3.73516 -2.95304 15.1818
388 1 -1.1104 3.87599 2.81581 15.2868
390 2 2.2208 2.34986 -1.68128 16.6089
391 2 2.2208 2.43335 4.07899 16.662
392 1 -1.1104 3.86236 -0.191631 18.0101
393 1 -1.1104 3.60648 -0.157643 15.3494
380 1 -1.1104 1.01898 -0.161139 20.748
381 1 -1.1104 6.54491 -0.130115 15.2155
373 1 -1.1104 6.59855 2.79008 15.2367
376 1 -1.1104 6.67922 -0.103465 18.069
371 1 -1.1104 6.6408 -2.86198 15.2867
365 1 -1.1104 6.45587 -2.91645 18.151
366 1 -1.1104 6.65151 2.82791 18.1857
370 1 -1.1104 1.04666 2.58748 20.8538
681 2 2.2208 13.5653 6.86459 25.0185
8499 2 2.2208 8.01271 -4.26671 13.8871
679 2 2.2208 13.6291 12.5923 24.8784
329 2 2.2208 10.6608 12.5291 27.6632
405 2 2.2208 10.8133 1.26374 16.6427
406 1 -1.1104 12.3958 -3.03796 18.0482
407 1 -1.1104 12.2152 2.60145 17.9632
408 1 -1.1104 12.2026 -2.86068 15.1828
410 1 -1.1104 12.1185 2.60691 15.088
412 1 -1.1104 12.2448 -0.319921 17.951
413 2 2.2208 10.7359 -1.48317 19.4257
414 2 2.2208 10.849 4.14926 19.4092
415 1 -1.1104 12.3171 -0.122275 15.2379
417 1 -1.1104 9.39953 -2.827 17.9526
418 1 -1.1104 9.43182 2.78687 17.9687
419 2 2.2208 8.02769 1.40509 19.4705
420 1 -1.1104 9.4761 -3.00641 15.2387
422 1 -1.1104 9.41955 2.76317 15.2185
424 2 2.2208 8.07525 -1.48473 16.615
425 2 2.2208 7.99614 4.13189 16.5745
426 1 -1.1104 9.35362 -0.00408989 18.0269
427 1 -1.1104 9.46714 -0.153258 15.3045
333 2 2.2208 5.18671 4.26638 13.8138
436 2 2.2208 13.6803 1.30716 19.2645
9348 2 2.2208 -0.24977 15.3833 13.8308
409 1 -1.1104 12.1232 -2.85957 20.72
435 2 2.2208 13.5943 4.11919 16.4747
423 1 -1.1104 9.33546 2.60061 20.8362
654 1 -1.1104 12.0732 19.4755 23.6615
590 2 2.2208 13.6024 -1.56021 22.1981
596 2 2.2208 -0.348316 1.39745 22.1865
341 2 2.2208 10.8231 4.11768 13.7209
593 2 2.2208 10.8401 -4.24126 22.1616
438 2 2.2208 5.19869 6.96059 16.6337
439 2 2.2208 5.06386 12.7146 16.7082
440 1 -1.1104 0.996572 8.1129 17.8478
442 1 -1.1104 1.24884 8.21096 15.2074
446 1 -1.1104 0.948787 5.43417 17.919
447 1 -1.1104 0.98611 11.0479 18.1017
450 2 2.2208 5.16219 9.67124 19.3974
451 1 -1.1104 1.16752 5.50248 15.0459
453 1 -1.1104 0.999952 11.0651 15.2112
459 1 -1.1104 3.90436 8.31395 18.0408
460 2 2.2208 2.24842 6.96028 19.272
461 2 2.2208 2.39556 12.4703 19.3336
462 1 -1.1104 3.80463 8.49148 15.2117
464 2 2.2208 2.43561 9.70657 16.5889
465 1 -1.1104 3.61394 5.57368 17.8832
466 1 -1.1104 3.79848 11.1035 18.0263
467 1 -1.1104 3.93229 5.62027 15.1241
469 1 -1.1104 3.61273 11.4072 15.1784
448 1 -1.1104 6.53657 5.55015 18.0663
452 1 -1.1104 1.02658 5.44057 20.755
455 1 -1.1104 6.58232 5.61823 15.3077
443 1 -1.1104 0.911861 8.30874 20.7164
500 1 -1.1104 9.35455 19.5393 23.5754
587 1 -1.1104 9.29614 13.7044 26.4311
456 1 -1.1104 6.58577 5.48685 20.8727
468 1 -1.1104 3.76126 5.55289 20.7588
449 1 -1.1104 6.58742 10.9899 17.8837
441 1 -1.1104 6.56694 8.34114 18.0259
457 1 -1.1104 6.53763 11.2505 15.129
444 1 -1.1104 6.57382 8.40314 15.1429
474 2 2.2208 10.7886 6.86508 16.5572
475 2 2.2208 10.8134 12.5304 16.5725
476 1 -1.1104 12.2137 8.28817 17.9277
477 1 -1.1104 12.2104 8.10873 15.1619
479 1 -1.1104 12.0715 5.49601 17.9115
480 1 -1.1104 12.2877 11.1009 18.0509
481 2 2.2208 10.841 9.8074 19.4168
482 1 -1.1104 12.2643 5.37169 15.0936
484 1 -1.1104 12.2538 10.9277 15.3708
486 1 -1.1104 9.39332 8.39914 17.9412
487 2 2.2208 7.98108 6.88833 19.4301
488 2 2.2208 7.97205 12.4988 19.3841
489 1 -1.1104 9.5262 8.38194 15.264
491 2 2.2208 7.92851 9.7444 16.5755
492 1 -1.1104 9.32877 5.51945 17.9498
493 1 -1.1104 9.46912 11.243 17.9282
494 1 -1.1104 9.38908 5.58773 15.2538
496 1 -1.1104 9.43112 10.9679 15.0885
402 2 2.2208 13.5273 6.8125 19.3238
332 2 2.2208 2.39463 1.25924 13.9055
485 1 -1.1104 12.0969 11.0553 20.8961
9205 2 2.2208 13.5915 9.55782 22.2479
616 2 2.2208 8.02031 20.9548 22.2062
623 2 2.2208 10.7922 18.1074 22.1761
403 2 2.2208 13.5944 9.60787 16.6083
503 1 -1.1104 0.984678 20.0808 17.8353
397 1 -1.1104 3.70237 19.6142 17.6386
501 2 2.2208 5.3906 18.2354 16.6966
502 1 -1.1104 1.12006 13.6997 17.703
506 1 -1.1104 0.839977 13.9319 14.9705
508 1 -1.1104 0.937959 19.6809 14.9823
514 1 -1.1104 1.28889 17.1445 17.7398
516 2 2.2208 5.22379 15.3378 19.3817
517 1 -1.1104 1.02075 16.8571 14.9997
521 1 -1.1104 3.74753 13.9501 18.1103
522 2 2.2208 2.6865 18.3522 19.1206
523 1 -1.1104 3.74121 14.0716 15.2752
525 1 -1.1104 3.92324 19.518 15.0553
527 2 2.2208 2.47986 15.4118 16.692
528 2 2.2208 2.49798 20.9775 16.1571
529 1 -1.1104 4.07992 16.7469 18.1076
530 1 -1.1104 3.92916 16.8482 15.3868
510 1 -1.1104 6.54441 13.9001 15.2058
512 1 -1.1104 6.6289 19.497 15.1487
519 1 -1.1104 6.70332 16.5848 14.9913
515 1 -1.1104 6.76927 16.7779 17.865
504 1 -1.1104 6.6588 13.9681 18.0481
9478 2 2.2208 -0.175115 18.461 16.4478
518 1 -1.1104 0.714802 18.9399 20.6214
524 1 -1.1104 3.84385 13.9142 20.7931
526 2 2.2208 5.18832 15.2709 13.8827
692 1 -1.1104 6.66968 13.7653 23.473
532 2 2.2208 2.40008 18.2074 13.7611
511 1 -1.1104 6.58814 13.8935 20.7824
505 1 -1.1104 6.70765 19.6136 17.8632
8600 2 2.2208 8.02193 -4.27458 19.3941
534 2 2.2208 11.0039 18.126 16.5904
535 1 -1.1104 12.1929 13.8115 18.011
536 1 -1.1104 12.2312 19.4596 17.9728
537 1 -1.1104 12.2955 14.0171 15.2771
539 1 -1.1104 12.3171 19.4485 15.1236
541 1 -1.1104 12.2875 16.7055 18.0445
542 2 2.2208 10.6699 15.383 19.4457
543 2 2.2208 10.7206 21.0103 19.2421
544 1 -1.1104 12.2705 16.6867 15.1607
546 1 -1.1104 9.48088 13.9929 18.0581
547 1 -1.1104 9.35638 19.3645 17.8679
548 2 2.2208 8.01879 18.1112 19.2961
549 1 -1.1104 9.55289 13.8951 15.007
551 1 -1.1104 9.58949 19.4835 15.1682
553 2 2.2208 8.10739 15.342 16.4651
554 2 2.2208 8.17887 20.7921 16.3763
555 1 -1.1104 9.48606 16.6751 18.0494
556 1 -1.1104 9.52039 16.5949 15.2221
434 2 2.2208 13.5148 20.8676 27.7039
337 2 2.2208 7.92141 1.27302 13.8132
538 1 -1.1104 12.3481 13.8289 20.7693
557 1 -1.1104 9.18437 16.6288 20.7633
552 1 -1.1104 9.6439 19.5124 20.6916
550 1 -1.1104 9.50607 13.9459 20.918
437 1 -1.1104 12.1162 16.5463 26.3781
387 1 -1.1104 3.81617 -2.87452 20.7724
368 1 -1.1104 0.981324 -3.03449 20.7477
389 1 -1.1104 3.88983 2.79326 20.8013
372 1 -1.1104 6.81484 -2.87525 20.8737
394 1 -1.1104 3.89764 -0.058734 20.851
594 2 2.2208 7.92477 15.2204 22.2038
374 1 -1.1104 6.72849 2.76974 20.8802
562 2 2.2208 5.26594 1.29497 22.2762
563 1 -1.1104 1.13868 -2.9484 23.6259
564 1 -1.1104 1.03974 2.70617 23.6179
567 1 -1.1104 1.09402 -2.90739 26.4916
568 1 -1.1104 1.12587 2.67798 26.3808
571 1 -1.1104 0.969306 -0.139659 23.451
573 2 2.2208 5.20578 -1.58935 25.0716
574 2 2.2208 5.28006 4.11473 25.0395
575 1 -1.1104 1.10928 -0.0614383 26.3523
577 1 -1.1104 3.86549 -2.9544 23.7564
578 1 -1.1104 3.7547 2.60384 23.6247
579 2 2.2208 2.33301 1.29445 24.984
580 1 -1.1104 3.95813 -2.96481 26.396
581 1 -1.1104 3.92755 2.67663 26.3598
582 2 2.2208 2.44173 -1.51718 22.1367
583 2 2.2208 2.42119 4.01709 22.2718
584 1 -1.1104 3.84499 -0.286978 23.6301
585 1 -1.1104 3.86919 -0.0790818 26.3293
576 1 -1.1104 6.68219 0.0642275 26.4768
566 1 -1.1104 6.66363 2.58692 23.6123
569 1 -1.1104 6.80585 -2.95315 26.3566
570 1 -1.1104 6.67096 2.83841 26.3089
572 1 -1.1104 6.71708 -0.198934 23.6736
565 1 -1.1104 6.54411 -3.0174 23.6663
622 2 2.2208 10.7726 21.0146 24.8522
428 1 -1.1104 9.36335 -0.190354 20.806
382 1 -1.1104 6.50014 -0.0655239 20.9159
344 2 2.2208 5.34904 20.8839 13.7691
421 1 -1.1104 9.49447 -2.89031 20.7747
411 1 -1.1104 12.285 2.70284 20.8408
416 1 -1.1104 12.2468 -0.1982 20.7351
598 2 2.2208 10.9494 1.22874 22.1196
599 1 -1.1104 12.2348 -2.85564 23.5955
600 1 -1.1104 12.1994 2.71391 23.6228
601 1 -1.1104 12.2402 -2.99045 26.4687
602 1 -1.1104 12.3845 2.63972 26.3794
603 1 -1.1104 12.2876 -0.0919824 23.4795
604 2 2.2208 10.926 -1.60461 24.9401
605 2 2.2208 10.7719 3.96841 24.9719
606 1 -1.1104 12.2279 -0.203342 26.5128
607 1 -1.1104 9.39489 -2.91255 23.4987
608 1 -1.1104 9.46562 2.57889 23.6454
609 2 2.2208 8.15873 1.11744 24.963
610 1 -1.1104 9.63746 -2.91835 26.4067
611 1 -1.1104 9.46354 2.58327 26.3691
612 2 2.2208 7.99088 -1.51863 22.241
613 2 2.2208 8.01101 4.04822 22.2802
614 1 -1.1104 9.55612 -0.159524 23.5676
615 1 -1.1104 9.42021 -0.250632 26.2661
624 1 -1.1104 12.3201 13.7487 23.5049
656 1 -1.1104 12.2453 13.9091 26.2175
463 1 -1.1104 3.63604 8.36967 20.7685
458 1 -1.1104 6.43163 11.1276 20.7303
470 1 -1.1104 3.73758 11.1667 20.7514
454 1 -1.1104 1.01711 11.1135 20.9048
445 1 -1.1104 6.56265 8.22988 20.7389
627 2 2.2208 5.12385 6.93247 22.1771
628 2 2.2208 5.16369 12.5383 22.1694
629 1 -1.1104 0.903904 8.2017 23.4942
631 1 -1.1104 1.14563 8.4351 26.3302
633 1 -1.1104 1.11 5.5899 23.5966
634 1 -1.1104 0.946159 11.2002 23.5871
637 2 2.2208 5.21473 9.65946 24.8994
638 1 -1.1104 1.15728 5.51318 26.3513
639 1 -1.1104 1.03306 11.1018 26.3822
642 1 -1.1104 3.67613 8.37559 23.4966
643 2 2.2208 2.47026 6.86569 25.0033
644 2 2.2208 2.33942 12.4481 24.9757
645 1 -1.1104 3.7092 8.33755 26.3803
646 2 2.2208 2.3403 9.72975 22.1203
647 1 -1.1104 3.83656 5.55797 23.568
648 1 -1.1104 3.91689 11.1691 23.6469
649 1 -1.1104 3.84495 5.47267 26.2496
650 1 -1.1104 3.77362 11.073 26.3455
636 1 -1.1104 6.70467 10.9887 23.5819
630 1 -1.1104 6.55661 8.39855 23.5835
632 1 -1.1104 6.50265 8.27555 26.4009
640 1 -1.1104 6.63816 5.62583 26.4462
641 1 -1.1104 6.64703 11.0443 26.3304
399 2 2.2208 13.4478 18.0333 24.8939
478 1 -1.1104 12.2561 8.20935 20.8501
483 1 -1.1104 12.1275 5.49163 20.8186
9376 2 2.2208 -0.316668 -1.47683 24.804
635 1 -1.1104 6.58998 5.56173 23.6562
490 1 -1.1104 9.41063 8.18802 20.843
8612 2 2.2208 5.13236 -4.23114 16.5461
338 2 2.2208 -0.359469 4.07937 13.7394
497 1 -1.1104 9.30167 11.036 20.7861
495 1 -1.1104 9.42522 5.51821 20.7663
658 1 -1.1104 9.47076 10.9121 26.3084
659 1 -1.1104 9.46968 5.36135 26.4373
660 1 -1.1104 9.26564 11.1385 23.4034
661 1 -1.1104 9.23307 5.48966 23.6017
662 2 2.2208 7.95667 9.74149 22.1115
663 1 -1.1104 9.32567 8.18387 26.5408
664 2 2.2208 7.95448 12.4862 24.9384
665 2 2.2208 8.03803 6.95966 25.0673
666 2 2.2208 10.6674 6.86705 22.1642
667 2 2.2208 10.8882 12.4301 22.1763
668 1 -1.1104 12.0332 8.25594 23.6124
669 1 -1.1104 12.1996 8.33261 26.2735
670 1 -1.1104 12.0763 5.45982 23.559
671 1 -1.1104 12.2262 11.0135 23.6806
672 2 2.2208 10.8254 9.6081 24.9433
673 1 -1.1104 12.3567 5.46766 26.4317
674 1 -1.1104 12.1445 11.0622 26.4986
675 1 -1.1104 9.34542 8.18834 23.5283
520 1 -1.1104 6.44744 16.7112 20.7301
513 1 -1.1104 6.91775 19.408 21.0497
531 1 -1.1104 3.35944 16.8434 20.7726
682 1 -1.1104 3.63589 19.5394 20.8692
652 1 -1.1104 6.54721 16.7304 23.6023
586 1 -1.1104 6.56773 19.4943 26.3781
507 1 -1.1104 1.06998 13.8998 20.7957
1200 1 -1.1104 3.57257 19.8257 23.6285
430 2 2.2208 1.92369 20.6145 21.9791
431 1 -1.1104 3.77595 16.8292 23.544
473 1 -1.1104 1.01805 16.7426 23.2031
621 2 2.2208 2.47776 15.2495 22.1607
684 1 -1.1104 3.81613 13.9997 23.5274
686 1 -1.1104 1.02822 19.6351 26.4531
687 1 -1.1104 0.849376 16.8691 26.2503
688 1 -1.1104 0.811583 13.8988 26.3483
690 2 2.2208 5.24442 20.9973 24.9726
691 2 2.2208 5.10168 15.3892 24.9412
693 1 -1.1104 0.836984 19.4025 23.6463
694 1 -1.1104 1.01131 13.9262 23.5092
695 2 2.2208 5.08668 18.2716 22.1496
696 1 -1.1104 3.93546 19.4635 26.3303
697 2 2.2208 2.24829 18.1413 24.9228
698 1 -1.1104 3.50895 16.6345 26.2823
699 1 -1.1104 3.75625 13.8777 26.2487
689 1 -1.1104 6.53118 19.3976 23.6863
685 1 -1.1104 6.32652 16.6476 26.4284
683 1 -1.1104 6.57281 13.8111 26.2858
589 2 2.2208 13.528 20.9678 22.1473
404 2 2.2208 -0.309354 12.6354 22.1968
533 2 2.2208 7.90473 18.0759 24.9502
657 1 -1.1104 12.1192 16.6305 23.5694
626 2 2.2208 10.6743 15.2577 24.9371
618 1 -1.1104 9.2848 16.6358 26.3571
499 1 -1.1104 9.53332 13.6411 23.7212
588 1 -1.1104 9.53713 19.4624 26.3029
617 1 -1.1104 9.30525 16.5769 23.5263
676 1 -1.1104 12.338 19.1956 26.4667
540 1 -1.1104 12.2622 19.317 20.852
545 1 -1.1104 12.1514 16.6956 20.8963
620 2 2.2208 -0.306176 6.72578 16.5393
396 2 2.2208 -0.346386 6.91883 22.1374
400 2 2.2208 -0.32273 12.4118 16.6033
471 2 2.2208 10.7843 -4.28763 16.5834
472 2 2.2208 5.17886 9.73224 13.7703
331 2 2.2208 5.17009 -1.43238 13.9251
655 2 2.2208 -0.299341 9.7053 25.0661
591 2 2.2208 13.6508 15.3052 16.6826
595 2 2.2208 8.00978 6.95723 13.8117
352 2 2.2208 -0.231039 9.63946 13.6907
498 2 2.2208 7.88398 12.5461 13.6795
357 2 2.2208 2.37782 12.6524 13.8956
343 2 2.2208 2.4801 6.90128 13.8083
558 2 2.2208 10.991 21.0177 13.8219
336 2 2.2208 13.6245 12.5791 13.8697
559 2 2.2208 10.7932 15.3219 13.7896
560 2 2.2208 8.10255 18.1004 13.7923
680 2 2.2208 2.29038 15.2908 27.6384
342 2 2.2208 10.8688 9.58559 13.8898
619 2 2.2208 7.98629 20.8706 27.6738
700 2 2.2208 5.10459 23.7538 5.38625
701 2 2.2208 5.33765 29.3962 5.12584
702 1 -1.1104 0.992365 25.1815 1.0417
703 1 -1.1104 0.942022 25.1024 3.8222
704 1 -1.1104 0.992065 22.2754 1.11559
705 1 -1.1104 1.19658 28.0476 0.887824
706 2 2.2208 5.1894 26.4006 2.40079
707 1 -1.1104 0.845961 22.2378 3.79327
708 1 -1.1104 0.962288 28.0057 3.88201
709 1 -1.1104 3.62081 24.9267 1.08468
710 2 2.2208 2.32046 23.6086 2.47731
711 2 2.2208 2.48072 29.3547 2.31244
712 1 -1.1104 3.82321 24.9811 3.87472
713 2 2.2208 2.29833 26.5486 5.14463
714 1 -1.1104 3.79413 22.0978 1.19392
715 1 -1.1104 3.86475 27.9741 1.05593
716 1 -1.1104 3.77474 22.3703 3.92542
717 1 -1.1104 3.8807 27.8609 3.70189
844 1 -1.1104 3.58032 22.3061 6.5422
725 1 -1.1104 6.62339 22.3686 3.90911
840 1 -1.1104 1.0495 28.0204 6.63352
839 1 -1.1104 0.806511 22.2811 6.60939
724 1 -1.1104 6.74838 27.7372 1.23925
837 1 -1.1104 0.929537 25.1723 6.60217
723 1 -1.1104 6.49991 22.2523 1.02016
721 1 -1.1104 6.50946 24.9666 1.11974
722 1 -1.1104 6.52691 25.1625 4.05503
726 1 -1.1104 6.60594 27.9176 4.03473
838 1 -1.1104 6.52729 25.0229 6.73678
1329 2 2.2208 10.9816 46.2499 -0.281276
727 2 2.2208 10.8709 23.8414 5.43176
728 2 2.2208 10.8914 29.4161 5.18473
729 1 -1.1104 12.2192 25.0631 1.02058
730 1 -1.1104 12.1242 25.1566 3.94889
731 1 -1.1104 12.1565 22.3809 1.06013
732 1 -1.1104 12.1228 27.9406 1.09597
733 2 2.2208 10.7877 26.3957 2.44472
734 1 -1.1104 12.2464 22.4277 3.94164
735 1 -1.1104 12.4753 28.0012 3.96497
736 1 -1.1104 9.38312 25.1498 1.14559
737 2 2.2208 8.05924 23.7531 2.56691
738 2 2.2208 8.07189 29.2824 2.40231
739 1 -1.1104 9.32904 25.1072 3.94188
740 2 2.2208 8.04059 26.5975 5.42591
741 1 -1.1104 9.30939 22.2992 1.03907
742 1 -1.1104 9.5653 27.9851 0.885102
743 1 -1.1104 9.37689 22.3003 4.02285
744 1 -1.1104 9.58192 28.0036 3.80117
769 2 2.2208 -0.339978 34.7935 5.27783
1404 1 -1.1104 9.61577 47.4009 1.25576
869 1 -1.1104 12.3077 25.2301 6.79034
1003 2 2.2208 -0.325085 34.9242 10.8556
1352 1 -1.1104 6.86715 47.4044 1.00105
748 2 2.2208 5.35614 34.9496 5.27334
749 1 -1.1104 0.989176 30.7529 0.986544
750 1 -1.1104 1.02031 36.3417 1.15227
752 1 -1.1104 1.12582 30.7251 3.68573
753 1 -1.1104 1.1009 36.1827 3.88482
755 1 -1.1104 1.00047 33.5802 1.01562
756 2 2.2208 5.15829 32.1425 2.48045
757 2 2.2208 5.3567 37.6886 2.53692
758 1 -1.1104 1.11651 33.41 3.87144
760 1 -1.1104 3.79165 30.7777 0.993707
761 1 -1.1104 3.86718 36.3607 0.858375
762 2 2.2208 2.43903 34.9673 2.40216
763 1 -1.1104 3.9527 30.7171 3.80678
764 1 -1.1104 4.03477 36.2199 3.7552
765 2 2.2208 2.57367 32.0852 5.18573
766 2 2.2208 2.64403 37.6964 5.36963
767 1 -1.1104 3.89389 33.5541 0.958151
768 1 -1.1104 3.85607 33.42 3.87362
773 1 -1.1104 6.75218 30.7079 3.83197
774 1 -1.1104 6.67886 33.6117 1.10787
772 1 -1.1104 6.57091 30.7204 0.989042
751 1 -1.1104 6.59719 36.2928 1.07712
759 1 -1.1104 6.76601 33.4613 3.86149
896 1 -1.1104 3.9124 33.3411 6.63046
1053 2 2.2208 7.92318 23.6795 13.5579
888 1 -1.1104 0.985657 30.7968 6.50624
892 1 -1.1104 1.09442 33.6791 6.7868
894 1 -1.1104 3.73749 30.6163 6.59974
889 1 -1.1104 1.22194 36.5173 6.70689
893 1 -1.1104 6.77036 33.4526 6.62453
10091 2 2.2208 13.6253 37.6476 -0.374623
994 1 -1.1104 12.3031 44.9155 12.4341
754 1 -1.1104 6.91039 36.1639 3.78668
890 1 -1.1104 6.65194 30.6842 6.72546
775 2 2.2208 10.8732 34.6924 5.44536
776 1 -1.1104 12.2824 30.822 0.984652
777 1 -1.1104 12.3831 36.2745 1.2684
778 1 -1.1104 12.1975 30.8382 3.82993
780 1 -1.1104 12.5243 33.6337 1.00461
781 2 2.2208 11.0066 32.1151 2.27063
782 2 2.2208 10.8515 37.7789 2.36899
783 1 -1.1104 12.3945 33.9137 3.87231
784 1 -1.1104 9.48774 30.776 1.0011
785 1 -1.1104 9.52169 36.2619 0.790678
786 2 2.2208 8.18127 34.9072 2.37982
787 1 -1.1104 9.71586 30.7877 3.70327
788 1 -1.1104 9.78931 36.1861 3.74039
789 2 2.2208 8.18859 32.124 5.06626
790 2 2.2208 8.22498 37.6235 5.25152