ITEM: TIMESTEP
40000
ITEM: NUMBER OF ATOMS
17820
ITEM: BOX BOUNDS pp pp pp
-3.6183339968864586e-01 2.7701833399687896e+01
-4.2571589536610448e+00 3.3233715895365054e+02
-3.4981457251984782e-01 2.7689814572519598e+01
ITEM: ATOMS id type q x y z
1 2 2.2208 5.38934 1.46967 5.19933
2 1 -1.1104 0.987017 -2.70745 1.03288
3 1 -1.1104 1.25013 2.73463 1.02489
6 1 -1.1104 1.11144 -2.7902 3.85016
7 1 -1.1104 1.06548 2.93203 3.74969
10 1 -1.1104 1.15485 0.0283912 0.856251
12 2 2.2208 5.3255 -1.37393 2.26821
14 1 -1.1104 1.01499 0.0594837 3.62819
16 1 -1.1104 3.89809 -2.8227 0.929619
17 1 -1.1104 3.94751 2.76311 1.00083
18 2 2.2208 2.64744 1.46714 2.35675
19 1 -1.1104 3.91129 -2.66301 3.73443
20 1 -1.1104 3.81498 3.04766 3.75404
21 2 2.2208 2.67003 -1.33733 5.1631
22 2 2.2208 2.3853 4.21662 5.12964
23 1 -1.1104 3.98673 -0.00703291 0.91893
24 1 -1.1104 3.85644 0.0661607 3.74621
13 2 2.2208 5.32733 4.19036 2.33775
9 1 -1.1104 6.58096 2.89017 3.78433
172 1 -1.1104 3.8788 -2.79041 6.49762
15 1 -1.1104 6.59048 0.0165117 3.82861
5 1 -1.1104 6.72784 2.87879 0.929414
4 1 -1.1104 6.67678 -2.80151 0.999905
11 1 -1.1104 6.81447 0.0290951 0.884743
166 1 -1.1104 1.09686 -2.94522 6.61915
173 1 -1.1104 3.847 2.80403 6.5812
171 1 -1.1104 6.66427 -0.00805166 6.52873
169 1 -1.1104 6.69893 2.87681 6.73799
8 1 -1.1104 6.8293 -2.75266 3.82697
174 1 -1.1104 4.02962 0.0503715 6.61936
167 1 -1.1104 1.06754 2.76375 6.62016
170 1 -1.1104 1.26136 -0.00524467 6.49018
203 2 2.2208 5.38686 -4.24261 10.9118
9685 2 2.2208 13.6305 18.3513 8.05357
30 2 2.2208 -0.396751 -4.16209 5.31294
416 2 2.2208 8.04476 1.42374 13.5849
31 2 2.2208 10.8535 1.38703 5.19157
32 1 -1.1104 12.2937 -2.8815 1.04131
33 1 -1.1104 12.2275 2.7669 0.98772
34 1 -1.1104 12.2923 -2.64304 3.89005
35 1 -1.1104 12.2607 2.81829 3.80063
36 1 -1.1104 12.3475 -0.0542399 1.1069
37 2 2.2208 10.87 -1.48333 2.39487
38 2 2.2208 10.8184 4.21831 2.36102
39 1 -1.1104 12.271 0.111034 3.83397
40 1 -1.1104 9.52863 -2.86425 0.977515
41 1 -1.1104 9.48167 2.9091 0.967371
42 2 2.2208 8.02152 1.43038 2.26561
43 1 -1.1104 9.57221 -2.8504 3.69611
44 1 -1.1104 9.37541 2.78441 3.83743
45 2 2.2208 8.10673 -1.38243 5.25458
46 2 2.2208 8.08055 4.35735 5.26044
47 1 -1.1104 9.5165 0.053526 0.953945
48 1 -1.1104 9.37576 -0.116844 3.72404
205 1 -1.1104 12.2477 -2.75648 6.81411
208 1 -1.1104 9.66053 -2.70417 6.64539
207 1 -1.1104 12.3523 0.0270536 6.54958
9461 2 2.2208 13.5342 21.037 5.16524
206 1 -1.1104 12.2917 2.80068 6.47889
210 1 -1.1104 9.56116 0.0555803 6.63483
50 2 2.2208 13.7354 -1.21304 5.16485
9688 2 2.2208 13.605 7.10494 2.38925
232 2 2.2208 11.0266 -4.2465 10.8497
29 2 2.2208 5.31473 -4.13825 5.17637
54 2 2.2208 5.22985 7.18896 5.2016
55 2 2.2208 5.28324 12.7796 5.00143
56 1 -1.1104 0.98205 8.44066 0.982071
58 1 -1.1104 0.929927 8.4605 3.63595
60 1 -1.1104 0.985091 5.58224 0.85649
61 1 -1.1104 0.98242 11.2922 0.915555
66 2 2.2208 5.03708 9.89838 2.3715
67 1 -1.1104 1.10681 5.73737 3.89897
68 1 -1.1104 0.932981 11.3077 3.78762
71 1 -1.1104 3.73435 8.42263 1.04522
72 2 2.2208 2.37097 7.07324 2.31351
73 2 2.2208 2.34271 12.6929 2.35827
74 1 -1.1104 3.85416 8.5137 3.71004
75 2 2.2208 2.3998 10.0528 5.20614
76 1 -1.1104 3.84544 5.70365 0.804475
77 1 -1.1104 3.7659 11.1745 0.901456
79 1 -1.1104 3.9235 5.60725 3.73234
80 1 -1.1104 3.72175 11.4455 3.69316
59 1 -1.1104 6.69444 8.50717 3.73034
78 1 -1.1104 3.84196 11.3989 6.48212
237 1 -1.1104 6.61517 5.61784 6.7067
62 1 -1.1104 1.10392 11.3783 6.71174
238 1 -1.1104 3.91297 8.5094 6.43553
70 1 -1.1104 6.58121 11.2748 3.68746
64 1 -1.1104 6.59195 11.3184 0.948003
57 1 -1.1104 6.70366 8.45805 0.872056
69 1 -1.1104 6.73821 5.8016 3.88368
234 1 -1.1104 1.00975 8.4527 6.46299
239 1 -1.1104 3.86705 5.68765 6.49015
236 1 -1.1104 0.910243 5.71116 6.59538
235 1 -1.1104 6.54981 8.49248 6.52143
313 1 -1.1104 9.37121 14.2293 12.1339
52 2 2.2208 10.8949 -4.17138 5.2869
65 1 -1.1104 6.72134 11.3477 6.46185
63 1 -1.1104 6.66305 5.67403 1.07642
316 2 2.2208 7.98222 21.1188 10.8407
84 2 2.2208 10.9005 7.11901 5.12661
85 2 2.2208 10.7975 12.6905 5.19754
86 1 -1.1104 12.4111 8.53394 0.986767
87 1 -1.1104 12.1943 8.65662 3.89426
88 1 -1.1104 12.2626 5.67809 0.923551
89 1 -1.1104 12.3014 11.2799 1.0199
91 2 2.2208 10.9347 9.86872 2.34966
92 1 -1.1104 12.3623 5.64706 3.66737
93 1 -1.1104 12.3564 11.3358 3.80471
94 1 -1.1104 9.51588 8.44746 1.05661
95 2 2.2208 8.01274 7.0955 2.38678
96 2 2.2208 8.05101 12.5943 2.29485
97 1 -1.1104 9.52332 8.28223 3.77407
98 2 2.2208 7.97227 9.84559 5.15756
99 1 -1.1104 9.48471 5.59818 0.90358
100 1 -1.1104 9.47419 11.2835 0.942644
102 1 -1.1104 9.61531 5.52236 3.79878
103 1 -1.1104 9.43755 11.0704 3.63644
265 1 -1.1104 12.3747 8.43077 6.57698
90 1 -1.1104 12.2387 11.2476 6.50065
319 1 -1.1104 9.46875 14.0351 9.35024
269 1 -1.1104 9.54567 5.75586 6.72741
266 1 -1.1104 12.1917 5.59358 6.57499
267 1 -1.1104 9.51388 8.56491 6.60865
101 1 -1.1104 9.35727 11.3676 6.60452
289 1 -1.1104 6.65084 16.7575 9.25273
106 2 2.2208 5.16962 18.3233 5.09751
107 1 -1.1104 0.943105 14.1294 1.07716
109 1 -1.1104 0.856763 19.7251 1.07541
113 1 -1.1104 0.913428 14.0626 3.73435
114 1 -1.1104 1.06116 19.8205 3.73213
116 1 -1.1104 1.05725 16.8985 0.825135
119 2 2.2208 5.12318 15.4865 2.26526
120 2 2.2208 5.21528 21.1131 2.44799
121 1 -1.1104 1.01258 16.8607 3.68483
123 1 -1.1104 3.80331 14.0413 0.746834
125 1 -1.1104 3.66328 19.7299 0.928276
127 2 2.2208 2.39589 18.3725 2.36186
128 1 -1.1104 3.79776 14.1797 3.61272
129 1 -1.1104 3.96254 19.848 3.75425
130 2 2.2208 2.33572 15.4965 5.16186
131 2 2.2208 2.31962 21.3395 5.13222
132 1 -1.1104 3.86082 17.0592 0.932248
134 1 -1.1104 3.73133 17.0125 3.58338
110 1 -1.1104 6.60248 14.1197 0.873577
140 1 -1.1104 6.57476 16.9042 1.01897
122 1 -1.1104 6.66121 16.9449 3.83789
126 1 -1.1104 3.87203 19.7247 6.67351
108 1 -1.1104 1.02205 14.0798 6.51472
139 1 -1.1104 6.653 19.7689 3.72706
115 1 -1.1104 6.65075 14.0832 3.53957
111 1 -1.1104 6.76021 14.0646 6.47765
117 1 -1.1104 0.901566 16.9334 6.47969
302 1 -1.1104 1.00838 19.7989 6.50951
138 1 -1.1104 6.56415 19.6885 0.948469
112 1 -1.1104 6.62488 19.642 6.52746
118 1 -1.1104 6.53523 16.781 6.47503
133 1 -1.1104 3.71299 17.0123 6.52228
143 1 -1.1104 12.3034 13.9508 6.59547
141 2 2.2208 10.7662 18.2009 5.26469
142 1 -1.1104 12.1943 14.0075 1.09504
144 1 -1.1104 12.2041 19.8365 0.980314
146 1 -1.1104 12.2308 14.0732 3.94609
147 1 -1.1104 12.2231 19.5876 3.855
148 1 -1.1104 12.3103 16.8355 1.02394
150 2 2.2208 10.8448 15.36 2.43463
151 2 2.2208 10.7258 21.1 2.38933
152 1 -1.1104 12.2085 16.7996 3.80122
153 1 -1.1104 9.36243 13.9983 0.715209
155 1 -1.1104 9.35172 19.5166 1.23642
157 2 2.2208 8.01263 18.2316 2.5018
158 1 -1.1104 9.42201 13.9455 3.61333
159 1 -1.1104 9.52173 19.6477 3.88881
160 2 2.2208 8.02624 15.5801 5.12289
161 2 2.2208 8.11249 21.1013 5.30231
162 1 -1.1104 9.44419 16.7729 1.01921
164 1 -1.1104 9.44819 16.8211 3.76577
145 1 -1.1104 12.1222 19.6498 6.67827
154 1 -1.1104 9.40725 14.0073 6.48104
149 1 -1.1104 12.1753 16.9086 6.52378
28 2 2.2208 2.43524 -4.14875 2.35658
201 2 2.2208 -0.277606 1.40629 10.8256
156 1 -1.1104 9.46646 19.595 6.6717
163 1 -1.1104 9.39081 16.8356 6.54219
53 2 2.2208 13.6158 -4.27134 2.46822
168 1 -1.1104 6.75621 -2.80487 6.69003
175 2 2.2208 5.17712 1.35284 10.7794
176 1 -1.1104 1.15699 -2.89351 12.2788
177 1 -1.1104 1.17216 2.88441 12.1384
180 1 -1.1104 1.17853 -2.90802 9.48485
181 1 -1.1104 1.08224 2.76641 9.34463
184 1 -1.1104 1.00482 -0.0432938 12.2285
186 2 2.2208 5.2579 -1.39026 7.95167
187 2 2.2208 5.19443 4.24631 8.01622
188 1 -1.1104 1.12948 -0.0530094 9.34763
190 1 -1.1104 3.92904 -2.72855 12.1648
191 1 -1.1104 3.96468 2.88228 12.1437
192 2 2.2208 2.46512 1.50045 8.02751
193 1 -1.1104 3.89483 -2.69222 9.44288
194 1 -1.1104 3.72291 2.96815 9.50405
195 2 2.2208 2.4699 -1.43417 10.9273
196 2 2.2208 2.48493 4.30501 10.7837
197 1 -1.1104 3.84275 0.00254909 12.2365
198 1 -1.1104 3.84477 0.0775991 9.33852
179 1 -1.1104 6.76334 2.76152 12.2741
178 1 -1.1104 6.6883 -2.82688 12.2735
189 1 -1.1104 6.6592 0.0740818 9.41772
137 2 2.2208 -0.315468 18.3381 5.09849
9384 2 2.2208 13.6615 4.30613 5.18457
231 2 2.2208 8.15137 -4.18044 8.06218
327 2 2.2208 2.36875 12.7242 13.4214
183 1 -1.1104 6.49667 2.89887 9.56735
452 2 2.2208 2.40206 6.97624 13.5092
334 2 2.2208 10.8794 15.5094 13.5117
320 2 2.2208 7.9951 18.3333 7.93314
209 1 -1.1104 9.4555 2.86582 6.60429
317 2 2.2208 7.94521 15.4457 10.7378
104 1 -1.1104 12.0418 19.8017 12.0946
182 1 -1.1104 6.68915 -2.72468 9.48217
199 2 2.2208 -0.331819 4.32678 7.90755
105 1 -1.1104 12.3175 14.1112 9.58494
185 1 -1.1104 6.60347 0.121365 12.0485
9712 2 2.2208 -0.299584 15.5769 13.566
211 2 2.2208 10.8311 1.38742 10.9271
212 1 -1.1104 12.3517 -2.83678 12.2947
213 1 -1.1104 12.425 2.79281 12.281
214 1 -1.1104 12.2988 -2.72487 9.47377
215 1 -1.1104 12.313 2.74928 9.38476
216 1 -1.1104 12.2144 -0.0434997 12.2225
217 2 2.2208 10.9734 -1.32806 8.11766
218 2 2.2208 10.8752 4.19903 8.06987
219 1 -1.1104 12.2564 0.147174 9.44698
220 1 -1.1104 9.50306 -2.92549 12.2735
221 1 -1.1104 9.56011 2.87122 12.2066
222 2 2.2208 8.02537 1.36818 8.08691
223 1 -1.1104 9.53588 -2.72035 9.32268
224 1 -1.1104 9.35314 2.81514 9.53558
225 2 2.2208 8.06837 -1.35353 10.8717
226 2 2.2208 7.93587 4.18327 10.8078
227 1 -1.1104 9.40652 -0.124958 12.4697
228 1 -1.1104 9.31101 0.146925 9.58557
27 2 2.2208 -0.306878 4.22799 2.34068
311 2 2.2208 10.8595 21.189 8.06829
312 1 -1.1104 12.2289 16.8755 9.24474
9690 2 2.2208 13.6287 18.279 2.53007
240 2 2.2208 5.32318 7.15356 10.7912
241 2 2.2208 5.24515 12.7584 10.648
242 1 -1.1104 1.00916 8.40009 12.0767
244 1 -1.1104 1.01947 8.53636 9.26819
246 1 -1.1104 0.987269 5.71192 12.2059
247 1 -1.1104 1.1353 11.2022 11.9857
250 2 2.2208 5.25623 9.99222 7.93717
251 1 -1.1104 1.02795 5.78453 9.29669
252 1 -1.1104 1.13059 11.3143 9.40487
255 1 -1.1104 3.75331 8.566 12.1752
256 2 2.2208 2.48254 7.06188 7.76352
257 2 2.2208 2.41662 12.7208 7.97527
258 1 -1.1104 3.81481 8.40568 9.25636
259 2 2.2208 2.38575 9.82259 10.6301
260 1 -1.1104 3.97702 5.66402 12.1191
261 1 -1.1104 3.93155 11.1987 12.1767
262 1 -1.1104 3.78504 5.68418 9.28464
263 1 -1.1104 3.85661 11.3526 9.28247
253 1 -1.1104 6.69163 5.83387 9.43275
254 1 -1.1104 6.62816 11.4633 9.147
245 1 -1.1104 6.68833 8.57657 9.3567
248 1 -1.1104 6.78641 5.55224 12.1789
326 2 2.2208 5.28178 9.79436 13.4693
243 1 -1.1104 6.74638 8.40772 12.1502
26 2 2.2208 -0.236809 1.31784 5.13182
165 1 -1.1104 12.2085 16.9067 12.1539
229 2 2.2208 10.9002 15.4692 7.94809
135 1 -1.1104 12.292 19.6022 9.40582
9646 2 2.2208 13.6043 21.1014 10.7584
249 1 -1.1104 6.73926 11.3257 12.0211
318 1 -1.1104 9.38812 19.7992 9.37691
329 2 2.2208 7.89167 12.6959 13.5991
479 2 2.2208 8.24943 7.03143 13.5703
328 2 2.2208 10.8608 9.93168 13.6164
264 1 -1.1104 9.34524 11.3731 9.32881
268 1 -1.1104 9.45728 5.58179 9.68293
270 1 -1.1104 9.44056 11.4083 12.2437
271 1 -1.1104 9.71591 5.659 12.3493
272 2 2.2208 8.10447 10.0094 10.692
273 1 -1.1104 9.51406 8.47966 9.46292
274 2 2.2208 8.00808 12.6797 7.88056
275 2 2.2208 8.02149 7.06913 8.07932
276 2 2.2208 11.0007 7.0591 10.7987
277 2 2.2208 10.8827 12.7324 10.7577
278 1 -1.1104 12.3314 8.32805 12.1628
279 1 -1.1104 12.314 8.53118 9.32942
280 1 -1.1104 12.3339 5.67483 12.0599
281 1 -1.1104 12.1258 11.2193 12.1204
282 2 2.2208 10.8026 9.89473 7.96745
283 1 -1.1104 12.2561 5.73341 9.33299
284 1 -1.1104 12.1255 11.3256 9.25643
285 1 -1.1104 9.70912 8.49042 12.2706
9600 2 2.2208 13.6516 9.67373 10.7475
83 1 -1.1104 12.3285 13.9943 12.1767
124 1 -1.1104 3.86787 14.0708 6.40362
81 2 2.2208 -0.369859 7.09755 5.07623
332 2 2.2208 5.10539 15.5166 13.5687
296 1 -1.1104 6.52992 19.6319 12.3844
306 1 -1.1104 6.70618 16.8213 12.1587
290 1 -1.1104 6.61662 14.103 9.30383
310 2 2.2208 2.39997 15.4751 10.7096
286 1 -1.1104 3.75089 19.8533 12.3741
287 1 -1.1104 3.82483 14.0528 12.085
291 1 -1.1104 0.857151 19.7998 9.3225
292 1 -1.1104 1.0355 16.9415 9.28119
293 2 2.2208 5.21666 21.1542 7.98392
294 1 -1.1104 0.975268 14.256 9.28562
295 2 2.2208 5.24146 15.5147 7.88105
298 1 -1.1104 1.13402 19.6129 12.1805
299 1 -1.1104 1.14516 14.1101 12.0567
300 2 2.2208 5.18714 18.3898 10.8001
301 1 -1.1104 3.8537 19.7807 9.50251
303 2 2.2208 2.40736 18.4372 8.0353
304 1 -1.1104 3.80955 17.0834 9.34273
305 1 -1.1104 3.80527 14.2688 9.26281
307 1 -1.1104 1.2267 16.7707 12.1642
308 1 -1.1104 4.03198 16.9842 12.245
309 2 2.2208 2.41467 21.2489 10.6994
330 2 2.2208 2.5645 18.3771 13.5709
314 1 -1.1104 9.49251 16.8814 9.30126
333 2 2.2208 10.8012 21.1777 13.6849
82 2 2.2208 10.7926 18.248 10.5998
336 2 2.2208 8.12106 18.3213 13.4951
315 1 -1.1104 9.39568 17.0486 12.0179
297 1 -1.1104 6.57348 14.0765 12.0582
288 1 -1.1104 6.67551 19.7877 9.32764
321 1 -1.1104 9.26386 19.8527 12.1156
200 2 2.2208 -0.239042 -1.35687 8.03099
9703 2 2.2208 -0.310907 9.82846 13.4915
9711 2 2.2208 13.6373 18.3758 13.538
381 2 2.2208 -0.281999 -1.37568 13.5241
418 2 2.2208 10.9265 4.25206 13.5871
384 2 2.2208 2.53729 1.41183 13.5969
324 2 2.2208 10.8354 18.2871 -0.328322
383 2 2.2208 5.32328 -1.38595 13.5792
385 2 2.2208 5.3638 4.20669 13.4789
343 2 2.2208 5.2945 1.48378 16.4126
344 1 -1.1104 1.19675 -2.7983 17.8958
345 1 -1.1104 1.00294 2.90453 17.7399
348 1 -1.1104 1.04356 -2.82407 14.9443
350 1 -1.1104 1.06126 2.79871 14.8825
356 1 -1.1104 1.12776 0.101782 17.7705
358 2 2.2208 5.23344 -1.35663 19.2765
360 1 -1.1104 1.00734 -0.0771588 15.0154
364 1 -1.1104 3.85178 -2.71817 17.9708
365 1 -1.1104 3.91692 2.8625 17.6596
366 2 2.2208 2.55875 1.53788 19.1637
367 1 -1.1104 3.95646 -2.76312 15.0697
369 1 -1.1104 3.80049 3.01481 14.8196
371 2 2.2208 2.57596 -1.35969 16.4089
373 1 -1.1104 3.94054 0.0427177 17.7939
374 1 -1.1104 3.84451 0.0103126 15.0255
359 2 2.2208 5.15193 4.45113 19.1923
372 2 2.2208 2.54237 4.44867 16.2856
354 1 -1.1104 6.68135 2.82722 15.0452
349 1 -1.1104 1.08166 -3.00035 20.7121
368 1 -1.1104 3.8892 -2.9534 20.7683
375 1 -1.1104 3.74724 -0.0523688 20.5312
355 1 -1.1104 6.67302 2.81041 20.6428
346 1 -1.1104 6.71901 -2.92862 17.8636
362 1 -1.1104 6.70077 -0.00365191 14.9521
370 1 -1.1104 3.85613 2.98904 20.4572
351 1 -1.1104 1.17736 3.07807 20.5508
353 1 -1.1104 6.58568 -2.69306 20.8521
352 1 -1.1104 6.62693 -2.82994 14.8839
9864 2 2.2208 -0.284535 12.7302 21.9125
637 2 2.2208 5.10298 12.659 27.4872
347 1 -1.1104 6.63507 2.82017 17.8746
363 1 -1.1104 6.62875 0.103129 20.648
357 1 -1.1104 6.63776 -0.0916045 17.8484
386 2 2.2208 10.8402 1.50862 16.5217
387 1 -1.1104 12.2053 -2.67414 17.9452
388 1 -1.1104 12.3675 2.94415 17.9015
389 1 -1.1104 12.293 -2.80989 15.1823
391 1 -1.1104 12.3881 2.83889 15.1221
393 1 -1.1104 12.2362 0.147233 17.8415
394 2 2.2208 10.8232 -1.41354 19.3852
395 2 2.2208 10.7942 4.30871 19.2614
396 1 -1.1104 12.2141 0.0784246 15.0614
398 1 -1.1104 9.39523 -2.72711 18.0002
399 1 -1.1104 9.36045 2.93561 17.896
400 2 2.2208 7.88734 1.49394 19.1824
401 1 -1.1104 9.51448 -3.00355 15.0123
403 1 -1.1104 9.40487 2.85383 15.1876
405 2 2.2208 8.06617 -1.40747 16.3726
407 1 -1.1104 9.45095 0.154956 17.8765
408 1 -1.1104 9.58568 0.0164012 15.0284
406 2 2.2208 8.04018 4.1709 16.4168
397 1 -1.1104 12.1782 0.070778 20.6132
392 1 -1.1104 12.1605 3.01194 20.6264
404 1 -1.1104 9.42617 2.93088 20.6856
409 1 -1.1104 9.50989 0.0919475 20.7476
636 2 2.2208 2.45626 9.80531 27.5344
390 1 -1.1104 12.3113 -2.72402 20.8156
402 1 -1.1104 9.33607 -2.72447 20.6384
661 2 2.2208 8.06176 9.84231 27.738
575 2 2.2208 5.29259 -4.13858 27.6085
603 2 2.2208 10.8297 18.3335 21.927
608 1 -1.1104 12.2235 14.1154 23.291
9787 2 2.2208 -0.25809 18.3329 21.9856
419 2 2.2208 5.33674 7.07579 16.2518
420 2 2.2208 5.18153 12.6818 16.3596
421 1 -1.1104 1.01599 8.44964 17.7358
423 1 -1.1104 1.01194 8.39784 14.88
427 1 -1.1104 1.03881 5.53094 17.6299
428 1 -1.1104 0.977011 11.1796 17.7042
431 2 2.2208 5.32385 9.82074 19.065
432 1 -1.1104 0.860607 5.62759 14.9882
434 1 -1.1104 0.996226 11.2554 14.8242
440 1 -1.1104 3.86752 8.38196 17.6501
441 2 2.2208 2.43437 7.07932 19.1347
442 2 2.2208 2.48138 12.5433 19.0584
443 1 -1.1104 3.79217 8.46469 14.9646
445 2 2.2208 2.46154 9.84662 16.415
446 1 -1.1104 3.73601 5.63735 17.7822
447 1 -1.1104 3.8029 11.1625 17.6361
448 1 -1.1104 3.90462 5.82181 14.7892
450 1 -1.1104 3.72706 11.159 14.9245
430 1 -1.1104 6.60592 11.1859 17.5022
433 1 -1.1104 1.0883 5.75889 20.697
425 1 -1.1104 6.8539 8.4478 14.9164
451 1 -1.1104 4.02524 11.0318 20.522
444 1 -1.1104 3.8621 8.44576 20.5504
449 1 -1.1104 3.96277 5.62503 20.6953
435 1 -1.1104 1.07828 11.2393 20.5174
437 1 -1.1104 6.63035 5.79725 20.3485
439 1 -1.1104 6.71267 11.3033 20.551
436 1 -1.1104 6.71256 5.58073 14.9126
426 1 -1.1104 6.69839 8.38956 20.5984
424 1 -1.1104 1.02469 8.50592 20.573
410 2 2.2208 8.07434 15.3809 27.6235
429 1 -1.1104 6.64689 5.61556 17.6052
438 1 -1.1104 6.42642 11.339 14.8395
422 1 -1.1104 6.63483 8.41071 17.729
377 2 2.2208 5.29755 -4.22172 16.5095
455 2 2.2208 11.0815 7.09506 16.4911
456 2 2.2208 10.7729 12.6757 16.2048
457 1 -1.1104 12.3412 8.5133 17.8612
458 1 -1.1104 12.3187 8.48125 14.9485
460 1 -1.1104 12.4775 5.72213 17.7782
461 1 -1.1104 12.2989 11.1899 17.535
462 2 2.2208 10.975 9.97734 19.0381
463 1 -1.1104 12.3585 5.68329 14.9207
465 1 -1.1104 12.1737 11.3377 14.8454
467 1 -1.1104 9.39152 8.60948 17.7482
468 2 2.2208 8.18577 7.165 19.1658
469 2 2.2208 8.00641 12.5802 19.0603
470 1 -1.1104 9.44283 8.45446 14.9703
472 2 2.2208 7.96552 9.8553 16.2658
473 1 -1.1104 9.67959 5.86825 17.8578
474 1 -1.1104 9.37632 11.3154 17.7009
475 1 -1.1104 9.54499 5.58393 15.1356
477 1 -1.1104 9.40894 11.3576 14.8107
459 1 -1.1104 12.2916 8.39826 20.7696
606 2 2.2208 8.11462 -4.21517 24.9766
476 1 -1.1104 9.44235 5.68735 20.6031
471 1 -1.1104 9.5205 8.61445 20.6429
466 1 -1.1104 12.2342 11.2897 20.3015
482 2 2.2208 5.23305 18.2283 16.4396
483 1 -1.1104 1.0658 13.9869 17.7427
484 1 -1.1104 1.01488 19.7451 17.7208
487 1 -1.1104 0.99956 14.1124 14.8371
489 1 -1.1104 0.969727 19.6505 14.8664
495 1 -1.1104 1.04865 16.8621 17.6491
497 2 2.2208 5.27427 15.4161 19.0649
498 2 2.2208 5.34017 21.1015 19.3099
499 1 -1.1104 1.14876 16.9022 14.893
503 1 -1.1104 3.79248 13.9572 17.7418
504 1 -1.1104 3.88311 19.623 17.7191
505 2 2.2208 2.44535 18.3081 19.1585
506 1 -1.1104 3.70953 14.1098 14.9111
508 1 -1.1104 3.73607 19.6106 15.0748
510 2 2.2208 2.43891 15.5445 16.2824
511 2 2.2208 2.52609 21.0934 16.3751
512 1 -1.1104 3.83103 16.8788 17.6913
513 1 -1.1104 3.74328 16.8892 14.9797
488 1 -1.1104 1.08297 14.0754 20.503
493 1 -1.1104 6.56061 19.6833 15.15
494 1 -1.1104 6.73026 19.7816 20.6536
509 1 -1.1104 3.93545 19.7563 20.6285
496 1 -1.1104 6.75309 16.8389 17.9324
485 1 -1.1104 6.66243 13.9879 17.8486
491 1 -1.1104 6.68077 14.1696 14.9604
492 1 -1.1104 6.48186 14.2371 20.6977
500 1 -1.1104 1.18852 17.0234 20.6263
507 1 -1.1104 3.67093 13.917 20.539
490 1 -1.1104 1.19072 19.7606 20.5526
501 1 -1.1104 6.552 16.8815 15.1303
486 1 -1.1104 6.71148 19.7063 18.0098
514 1 -1.1104 3.91498 16.9463 20.5045
481 1 -1.1104 9.43748 14.0151 26.0445
502 1 -1.1104 6.6088 16.9618 20.6006
518 2 2.2208 10.8061 18.3521 16.3933
519 1 -1.1104 12.3038 14.2297 17.7115
520 1 -1.1104 12.3178 19.7191 17.7602
521 1 -1.1104 12.204 13.9364 15.0388
523 1 -1.1104 12.1586 19.8368 14.9423
525 1 -1.1104 12.1538 17.0337 17.5778
526 2 2.2208 10.9357 15.5386 19.0967
527 2 2.2208 10.9326 21.1379 19.2052
528 1 -1.1104 12.3272 16.9225 14.8492
530 1 -1.1104 9.41246 14.1221 17.8233
531 1 -1.1104 9.51912 19.8318 17.8065
532 2 2.2208 8.07427 18.3195 19.1827
533 1 -1.1104 9.33326 14.1735 14.9672
535 1 -1.1104 9.34003 19.7823 15.0562
537 2 2.2208 8.08452 15.4882 16.3478
538 2 2.2208 8.08435 21.0813 16.4534
539 1 -1.1104 9.53145 16.9224 17.6911
540 1 -1.1104 9.41306 16.8667 15.0008
541 1 -1.1104 9.45317 16.9263 20.5032
534 1 -1.1104 9.39374 14.1533 20.5246
536 1 -1.1104 9.51074 19.8125 20.4471
522 1 -1.1104 12.4057 14.1596 20.4425
524 1 -1.1104 12.3142 19.7057 20.6344
638 1 -1.1104 12.2323 19.7938 26.3028
529 1 -1.1104 12.2501 16.9568 20.4876
361 1 -1.1104 1.03106 -0.111613 20.5566
337 2 2.2208 7.99759 21.0217 27.665
9960 2 2.2208 13.6845 -4.10425 19.3058
546 2 2.2208 5.14686 1.42573 21.9815
547 1 -1.1104 0.924227 -2.83162 23.5072
548 1 -1.1104 1.15841 2.792 23.2784
551 1 -1.1104 0.985552 -2.77682 26.4417
552 1 -1.1104 1.03083 2.85871 26.2103
555 1 -1.1104 0.991662 -0.0358505 23.3118
557 2 2.2208 5.18564 -1.27654 24.7255
559 1 -1.1104 1.01555 0.13355 26.0435
561 1 -1.1104 3.78402 -2.67963 23.5629
562 1 -1.1104 3.92692 2.92549 23.2214
563 2 2.2208 2.37078 1.38524 24.7307
564 1 -1.1104 3.71818 -2.68798 26.1915
565 1 -1.1104 3.85657 2.81223 26.1208
566 2 2.2208 2.38552 -1.52635 21.9974
567 2 2.2208 2.49687 4.33976 22.1092
568 1 -1.1104 3.74837 0.0523428 23.2003
569 1 -1.1104 3.84535 0.0197404 26.0557
558 2 2.2208 5.24953 4.27192 24.763
550 1 -1.1104 6.68671 2.96675 23.5553
553 1 -1.1104 6.64092 -2.66117 26.3138
554 1 -1.1104 6.67052 2.84639 26.2364
571 2 2.2208 2.42934 -1.39885 27.6517
556 1 -1.1104 6.59335 0.0932659 23.3586
560 1 -1.1104 6.59811 0.10648 26.0533
549 1 -1.1104 6.58847 -2.78315 23.6355
639 1 -1.1104 12.3066 16.8851 23.4161
339 2 2.2208 2.57256 4.17254 27.5381
342 2 2.2208 8.05259 4.255 27.6662
663 1 -1.1104 12.341 16.8575 26.2803
582 2 2.2208 10.7357 1.58863 21.9759
583 1 -1.1104 12.1533 -2.79162 23.6095
584 1 -1.1104 12.2892 2.94338 23.6062
585 1 -1.1104 12.1791 -2.61522 26.3076
586 1 -1.1104 12.3239 2.97405 26.2661
587 1 -1.1104 12.2786 0.0956258 23.3213
588 2 2.2208 10.8743 -1.26019 24.8111
589 2 2.2208 10.8292 4.37077 24.9096
590 1 -1.1104 12.2721 0.252672 26.1583
591 1 -1.1104 9.28853 -2.7559 23.5809
592 1 -1.1104 9.29254 2.90835 23.3424
593 2 2.2208 8.0847 1.55561 24.7991
594 1 -1.1104 9.46961 -2.822 26.3947
595 1 -1.1104 9.48456 2.79309 26.1106
596 2 2.2208 7.98773 -1.26064 22.1037
597 2 2.2208 7.95694 4.25384 21.9084
598 1 -1.1104 9.48582 0.133212 23.587
599 1 -1.1104 9.48827 0.0874115 26.1957
517 2 2.2208 2.45721 15.4638 27.6257
414 2 2.2208 7.94354 15.583 21.9594
577 2 2.2208 2.46098 -4.13079 24.8283
380 2 2.2208 -0.207174 -1.43295 19.202
664 1 -1.1104 9.3915 14.1971 23.2095
415 2 2.2208 8.10686 21.1505 22.0693
605 2 2.2208 10.9332 -4.21964 22.0898
611 2 2.2208 5.25741 7.00145 21.924
612 2 2.2208 5.26299 12.7835 21.9961
613 1 -1.1104 0.977063 8.25147 23.5584
615 1 -1.1104 1.22894 8.34851 26.2594
617 1 -1.1104 0.968925 5.55581 23.487
618 1 -1.1104 1.33361 11.3212 23.3462
621 2 2.2208 5.2798 9.98368 24.7545
622 1 -1.1104 1.04263 5.6499 26.1503
623 1 -1.1104 1.04014 11.3 26.1737
626 1 -1.1104 3.78866 8.43644 23.31
627 2 2.2208 2.53101 6.98592 24.8526
628 2 2.2208 2.50912 12.6802 24.7889
629 1 -1.1104 3.96586 8.52843 26.1279
630 2 2.2208 2.50692 9.8899 21.9919
631 1 -1.1104 3.82009 5.66445 23.4788
632 1 -1.1104 3.83865 11.3244 23.2848
633 1 -1.1104 3.81793 5.64678 26.1166
634 1 -1.1104 3.72563 11.213 26.1746
619 1 -1.1104 6.61055 5.78349 23.3692
620 1 -1.1104 6.49179 11.277 23.3476
625 1 -1.1104 6.60405 11.3577 26.1016
616 1 -1.1104 6.56465 8.48175 26.1588
614 1 -1.1104 6.65581 8.57696 23.3366
624 1 -1.1104 6.60908 5.7186 26.2728
454 1 -1.1104 9.49266 16.9218 26.1768
480 1 -1.1104 9.43147 19.7073 26.2124
464 1 -1.1104 12.348 5.76436 20.5533
478 1 -1.1104 9.45208 11.4457 20.4806
9860 2 2.2208 -0.304089 9.85352 19.1913
662 2 2.2208 10.8707 12.6942 27.6167
660 2 2.2208 10.8077 7.11948 27.6772
609 1 -1.1104 12.3058 19.7136 23.449
642 1 -1.1104 9.42598 11.2862 26.2104
643 1 -1.1104 9.31276 5.6954 26.1921
644 1 -1.1104 9.29328 11.4405 23.2255
645 1 -1.1104 9.43556 5.76466 23.444
646 2 2.2208 8.08165 9.82986 21.9962
647 1 -1.1104 9.44385 8.49329 26.2895
648 2 2.2208 7.98807 12.6609 24.7144
649 2 2.2208 7.96932 7.13765 24.801
650 2 2.2208 10.8671 7.08876 22.0499
651 2 2.2208 10.9126 12.8503 21.7937
652 1 -1.1104 12.2549 8.4458 23.4082
653 1 -1.1104 12.3055 8.47463 26.2897
654 1 -1.1104 12.3661 5.5759 23.3325
655 1 -1.1104 12.1717 11.3872 23.2635
656 2 2.2208 10.848 9.88317 24.8874
657 1 -1.1104 12.1995 5.62562 26.1733
658 1 -1.1104 12.1264 11.2959 26.2343
659 1 -1.1104 9.44798 8.56012 23.3805
610 1 -1.1104 12.2471 14.168 26.1415
9888 2 2.2208 -0.22889 9.87128 24.7886
542 2 2.2208 5.15432 18.3062 27.5941
9931 2 2.2208 -0.231347 15.4628 19.1631
335 2 2.2208 2.28506 21.1269 27.5401
669 1 -1.1104 6.753 16.8557 26.2413
673 1 -1.1104 6.58937 19.868 23.4772
543 2 2.2208 2.60621 15.5569 22.0118
544 2 2.2208 2.37529 21.2177 22.0024
545 1 -1.1104 3.96621 16.9674 23.3769
570 1 -1.1104 1.15374 16.8601 23.3605
578 1 -1.1104 3.90503 14.0707 26.0613
600 1 -1.1104 3.82318 16.9106 26.0712
602 2 2.2208 2.50469 18.3251 24.7831
666 1 -1.1104 3.77895 19.8006 23.592
668 1 -1.1104 3.87815 14.0929 23.4
670 1 -1.1104 0.934276 19.7655 26.2523
671 1 -1.1104 1.14226 16.9674 26.0792
672 1 -1.1104 0.978148 14.1522 26.3416
674 2 2.2208 5.25275 21.1502 24.7794
675 2 2.2208 5.29007 15.5924 24.737
677 1 -1.1104 1.02564 19.7091 23.3349
678 1 -1.1104 1.12517 14.1647 23.3723
679 2 2.2208 5.22752 18.3933 22.0348
680 1 -1.1104 3.79868 19.6814 26.3432
572 1 -1.1104 6.77143 16.85 23.4972
667 1 -1.1104 6.53342 14.1517 26.0326
515 1 -1.1104 6.51455 19.5426 26.1635
676 1 -1.1104 6.69105 14.145 23.3288
453 1 -1.1104 9.48203 16.8396 23.4006
665 1 -1.1104 9.50233 19.7649 23.353
9863 2 2.2208 -0.438897 7.05864 27.5105
640 2 2.2208 10.7584 15.4508 24.7053
516 2 2.2208 8.06973 18.2724 24.8254
641 2 2.2208 10.8196 21.1283 24.8532
338 2 2.2208 5.2692 1.45661 27.5006
9890 2 2.2208 -0.382349 12.7292 27.6557
9934 2 2.2208 13.6056 15.4906 27.648
9707 2 2.2208 13.6415 4.26613 27.64
9932 2 2.2208 -0.333592 18.2921 16.3603
413 2 2.2208 -0.320171 4.31587 19.1281
579 2 2.2208 -0.25632 -1.46305 24.8405
9896 2 2.2208 13.6764 -1.34418 16.5157
9933 2 2.2208 13.6843 21.011 22.025
9930 2 2.2208 -0.344225 21.1031 19.164
10011 2 2.2208 13.7268 9.89101 21.9913
9957 2 2.2208 13.5511 18.3329 24.8608
379 2 2.2208 -0.244535 1.51124 16.4436
580 2 2.2208 -0.246956 1.38849 21.9141
340 2 2.2208 -0.386223 1.39605 27.571
9826 2 2.2208 -0.40725 12.5729 16.3179
9862 2 2.2208 13.5954 12.7948 24.8141
9823 2 2.2208 13.6131 7.00152 24.8064
601 2 2.2208 8.17023 -1.42009 27.5949
9788 2 2.2208 -0.394799 21.2518 24.8261
9714 2 2.2208 13.6188 21.0659 27.5521
635 2 2.2208 5.17346 7.20831 27.5444
322 2 2.2208 2.50437 -4.21117 13.6569
341 2 2.2208 10.881 1.46096 27.4989
417 2 2.2208 11.0273 -1.42717 13.7466
331 2 2.2208 5.25284 21.1217 13.7488
607 2 2.2208 13.5929 -1.39367 27.6141
681 2 2.2208 5.15682 23.9836 5.14948
682 2 2.2208 5.18083 29.462 5.16852
683 1 -1.1104 0.981319 25.4281 0.916358
684 1 -1.1104 0.836101 25.315 3.72851
685 1 -1.1104 0.827986 22.6244 0.951078
686 1 -1.1104 1.16021 28.1795 0.885043
687 2 2.2208 5.26912 26.7385 2.24662
688 1 -1.1104 0.855094 22.5356 3.79132
689 1 -1.1104 1.12821 28.1327 3.8094
690 1 -1.1104 3.75763 25.2951 0.999893
691 2 2.2208 2.29192 23.9707 2.34143
692 2 2.2208 2.49821 29.5474 2.33081
693 1 -1.1104 3.79689 25.4557 3.81462
694 2 2.2208 2.33506 26.7481 5.08227
695 1 -1.1104 3.73571 22.5894 0.936347
696 1 -1.1104 3.89223 28.0115 0.783346
697 1 -1.1104 3.63684 22.8346 3.80512
698 1 -1.1104 3.89521 28.139 3.62203
702 1 -1.1104 6.78355 25.1772 0.940179
704 1 -1.1104 6.59223 22.5214 0.81357
705 1 -1.1104 6.63947 28.2001 0.884984
825 1 -1.1104 1.03118 28.1085 6.68874
706 1 -1.1104 6.63886 22.7127 3.74802
830 1 -1.1104 3.86114 28.0607 6.5409
822 1 -1.1104 1.04324 25.3451 6.53813
829 1 -1.1104 3.7787 22.6004 6.59408
703 1 -1.1104 6.66861 25.4327 3.70444
827 1 -1.1104 6.64125 28.1073 6.57846
10454 2 2.2208 13.62 32.3383 -0.40185
823 1 -1.1104 6.65304 25.3067 6.51414
707 1 -1.1104 6.60944 28.15 3.81908
826 1 -1.1104 6.62458 22.423 6.56934
708 2 2.2208 10.959 23.8582 5.23632
709 2 2.2208 10.9919 29.5732 5.26623
710 1 -1.1104 12.1617 25.3138 0.950821
711 1 -1.1104 12.1691 25.2764 3.67451
712 1 -1.1104 12.0973 22.5572 0.918846
713 1 -1.1104 12.2316 28.1158 1.03883
714 2 2.2208 10.8744 26.6989 2.43707
715 1 -1.1104 12.231 22.4039 3.73961
716 1 -1.1104 12.2336 28.1228 3.90245
717 1 -1.1104 9.52616 25.2549 0.998476
718 2 2.2208 8.10801 23.8913 2.40828
719 2 2.2208 7.95243 29.5285 2.50794
720 1 -1.1104 9.36572 25.2732 3.83944
721 2 2.2208 8.02278 26.7092 5.11671
722 1 -1.1104 9.34492 22.3614 0.882924
723 1 -1.1104 9.34139 28.201 1.06808
724 1 -1.1104 9.43369 22.3719 3.9179
725 1 -1.1104 9.53319 28.2314 3.78819
857 1 -1.1104 12.3891 28.055 6.61822
860 1 -1.1104 9.38881 28.044 6.58619
859 1 -1.1104 9.5085 22.5774 6.75669
856 1 -1.1104 12.1694 22.4837 6.6064
1013 2 2.2208 7.84256 40.6865 13.4658
858 1 -1.1104 9.47761 25.3659 6.63004
855 1 -1.1104 12.2811 25.1275 6.613
729 2 2.2208 5.08886 35.2058 5.18379
730 1 -1.1104 0.989242 31.045 0.846201
731 1 -1.1104 1.03943 36.7215 0.897241
733 1 -1.1104 1.05513 30.9269 3.71136
734 1 -1.1104 0.951273 36.666 3.63355
736 1 -1.1104 0.958518 33.8316 0.975481
737 2 2.2208 5.21347 32.4515 2.35807
738 2 2.2208 5.27709 38.0139 2.34503
739 1 -1.1104 1.05389 33.8138 3.79275
741 1 -1.1104 3.74048 30.8566 0.952587
742 1 -1.1104 3.86531 36.6258 0.964608
743 2 2.2208 2.3551 35.2707 2.35449
744 1 -1.1104 3.86861 30.9237 3.80428
745 1 -1.1104 3.61639 36.6249 3.83668
746 2 2.2208 2.42604 32.4154 5.08577
747 2 2.2208 2.46223 37.9862 5.18697
748 1 -1.1104 3.69721 33.7908 0.80997
749 1 -1.1104 3.75452 33.814 3.54271
740 1 -1.1104 6.60577 33.8128 3.96667
887 1 -1.1104 3.79009 33.5314 6.54573
883 1 -1.1104 0.969434 33.7246 6.53731
885 1 -1.1104 3.75388 30.8162 6.71708
879 1 -1.1104 0.953666 30.9853 6.59681
753 1 -1.1104 6.70564 31.0815 1.05652
755 1 -1.1104 6.6193 33.8157 1.00861
735 1 -1.1104 6.52615 36.611 3.80555
884 1 -1.1104 6.73736 33.7226 6.65912
1008 2 2.2208 5.08711 43.5334 13.5426
880 1 -1.1104 0.947267 36.5867 6.43937
881 1 -1.1104 6.51379 30.7996 6.51333
754 1 -1.1104 6.63403 31.0622 3.78091
732 1 -1.1104 6.5977 36.6433 1.0023
756 2 2.2208 10.8405 35.1483 5.18963
757 1 -1.1104 12.1662 30.9445 0.921909
758 1 -1.1104 12.1849 36.5634 1.00517
759 1 -1.1104 12.3461 31.093 3.77824
760 1 -1.1104 12.2121 36.6662 3.74116
761 1 -1.1104 12.3218 33.7402 1.16839
762 2 2.2208 10.8675 32.3182 2.38355
763 2 2.2208 10.8441 37.99 2.40063
764 1 -1.1104 12.2585 33.8444 3.8148