ITEM: TIMESTEP
50000
ITEM: NUMBER OF ATOMS
17820
ITEM: BOX BOUNDS pp pp pp
-3.5223988347581919e-01 2.7692239883474929e+01
-4.2399836475967172e+00 3.3231998364757737e+02
-3.5195998906995302e-01 2.7691959989069794e+01
ITEM: ATOMS id type q x y z
1 2 2.2208 5.14307 1.33041 5.18995
2 1 -1.1104 1.08859 -2.88724 1.1281
3 1 -1.1104 1.14108 2.80098 1.16028
6 1 -1.1104 0.928986 -2.77323 3.97815
7 1 -1.1104 1.08577 2.64753 3.8872
10 1 -1.1104 0.981199 -0.0230489 1.10617
12 2 2.2208 5.20255 -1.43585 2.54932
14 1 -1.1104 1.02033 -0.0575755 3.8493
16 1 -1.1104 3.83394 -2.88468 1.21293
17 1 -1.1104 3.86256 2.7034 0.83559
18 2 2.2208 2.50089 1.24274 2.4444
19 1 -1.1104 3.93432 -2.841 3.86348
20 1 -1.1104 3.87221 2.54083 3.7915
21 2 2.2208 2.46558 -1.44302 5.24739
22 2 2.2208 2.49794 4.24886 5.14279
23 1 -1.1104 3.87658 0.0496674 1.04392
24 1 -1.1104 3.81844 -0.0752079 3.9159
13 2 2.2208 5.14479 4.00913 2.38284
9646 2 2.2208 13.7052 20.8259 10.9335
202 2 2.2208 2.42839 -4.30332 8.09126
542 2 2.2208 5.32495 18.1282 -0.243718
174 1 -1.1104 3.88413 0.0646547 6.66036
167 1 -1.1104 1.00997 2.56595 6.79578
172 1 -1.1104 3.72689 -2.83609 6.70806
230 2 2.2208 13.6195 -1.46935 10.8654
233 2 2.2208 13.586 -4.25729 8.17352
636 2 2.2208 2.4586 9.75267 -0.345598
8 1 -1.1104 6.76997 -2.82733 3.88572
11 1 -1.1104 6.64763 -0.0112869 1.07893
5 1 -1.1104 6.663 2.67809 0.971141
15 1 -1.1104 6.61921 -0.0696906 3.88382
9 1 -1.1104 6.56083 2.72736 3.74545
4 1 -1.1104 6.65524 -2.73768 1.06458
31 2 2.2208 10.8599 1.27722 5.20648
32 1 -1.1104 12.3449 -2.80709 1.0027
33 1 -1.1104 12.2352 2.73277 1.06581
34 1 -1.1104 12.3457 -2.83049 3.87144
35 1 -1.1104 12.1638 2.63133 3.71155
36 1 -1.1104 12.1955 0.00478682 0.901328
37 2 2.2208 10.804 -1.42429 2.50171
38 2 2.2208 10.7969 4.1211 2.36989
39 1 -1.1104 12.2277 -0.261936 3.71644
40 1 -1.1104 9.48213 -2.92737 1.23388
41 1 -1.1104 9.36933 2.6244 1.06085
42 2 2.2208 7.92503 1.27169 2.49467
43 1 -1.1104 9.53782 -2.83132 4.05441
44 1 -1.1104 9.51399 2.82737 3.89888
45 2 2.2208 8.08312 -1.45648 5.25734
47 1 -1.1104 9.36069 -0.10972 1.00376
48 1 -1.1104 9.41221 0.119595 3.82064
46 2 2.2208 7.92981 3.96615 5.22534
168 1 -1.1104 6.5534 -2.73501 6.54287
210 1 -1.1104 9.39124 -0.0332922 6.61128
206 1 -1.1104 12.2063 2.70001 6.60379
207 1 -1.1104 12.258 -0.000719478 6.70015
9683 2 2.2208 -0.384972 9.67889 2.58307
28 2 2.2208 2.40029 -4.21916 2.5432
54 2 2.2208 5.32929 6.82372 5.1825
55 2 2.2208 5.33824 12.5414 5.32767
56 1 -1.1104 1.1498 8.34301 1.05709
58 1 -1.1104 1.17128 8.14234 3.99715
60 1 -1.1104 0.909842 5.51686 1.12756
61 1 -1.1104 0.980728 11.061 1.14256
66 2 2.2208 5.27455 9.66437 2.45257
67 1 -1.1104 1.10225 5.51095 3.87404
68 1 -1.1104 1.07089 10.9515 3.87742
71 1 -1.1104 3.995 8.25698 1.10137
72 2 2.2208 2.60165 6.90273 2.42466
73 2 2.2208 2.40333 12.4317 2.57225
74 1 -1.1104 3.92563 8.18099 3.95371
75 2 2.2208 2.45438 9.75918 5.32059
76 1 -1.1104 3.71676 5.46971 1.00718
77 1 -1.1104 3.79853 11.0776 1.12267
79 1 -1.1104 3.85779 5.40639 3.81338
80 1 -1.1104 3.88583 11.0501 3.9864
239 1 -1.1104 3.81902 5.49827 6.66451
203 2 2.2208 5.27802 -4.18645 10.8019
9691 2 2.2208 13.6932 1.43094 8.09351
231 2 2.2208 8.07286 -4.23249 8.07325
417 2 2.2208 10.7831 -1.38629 13.6935
410 2 2.2208 8.05443 15.2699 -0.347897
52 2 2.2208 10.8961 -4.28383 5.3559
9688 2 2.2208 13.7215 6.78162 2.44721
70 1 -1.1104 6.52316 11.1128 3.83757
64 1 -1.1104 6.51125 11.0277 1.00236
59 1 -1.1104 6.6419 8.32214 3.67423
57 1 -1.1104 6.78665 8.16907 0.889493
63 1 -1.1104 6.57289 5.33928 0.967493
235 1 -1.1104 6.68153 8.27965 6.50352
69 1 -1.1104 6.50312 5.36311 3.85432
84 2 2.2208 10.7337 6.82865 5.26639
85 2 2.2208 10.8591 12.561 5.38506
86 1 -1.1104 12.3263 8.18388 1.11953
87 1 -1.1104 12.2864 8.17899 3.85116
88 1 -1.1104 12.3429 5.42161 1.03864
89 1 -1.1104 12.2085 10.9904 1.17314
91 2 2.2208 10.899 9.61756 2.53106
92 1 -1.1104 12.1635 5.41659 3.73251
93 1 -1.1104 12.2396 11.0651 3.90789
94 1 -1.1104 9.48015 8.34088 1.07229
95 2 2.2208 7.98818 6.82042 2.3992
96 2 2.2208 8.05623 12.4674 2.47366
97 1 -1.1104 9.35277 8.28975 3.81737
98 2 2.2208 8.09601 9.59196 5.21411
99 1 -1.1104 9.38444 5.44891 1.0737
100 1 -1.1104 9.34813 11.2369 1.1099
102 1 -1.1104 9.37132 5.5959 3.81258
103 1 -1.1104 9.44232 11.1179 3.91853
265 1 -1.1104 12.2172 8.22766 6.51117
269 1 -1.1104 9.38585 5.57961 6.53025
101 1 -1.1104 9.49267 11.1809 6.63103
318 1 -1.1104 9.59661 19.3985 9.53814
201 2 2.2208 -0.457324 1.34266 11.0186
382 2 2.2208 -0.280876 4.17047 13.684
165 1 -1.1104 12.3377 16.736 12.2655
106 2 2.2208 5.33438 17.9822 5.29025
107 1 -1.1104 1.14187 14.0237 1.07966
109 1 -1.1104 1.17212 19.4277 1.19739
113 1 -1.1104 0.993922 13.7834 3.84494
114 1 -1.1104 0.921969 19.3659 4.02208
116 1 -1.1104 1.10606 16.7258 1.0734
119 2 2.2208 5.11144 15.1531 2.502
120 2 2.2208 5.27373 20.9587 2.62677
121 1 -1.1104 1.11867 16.6281 3.70612
123 1 -1.1104 3.8907 13.8354 1.04113
125 1 -1.1104 3.87783 19.5188 1.27434
127 2 2.2208 2.5575 18.0934 2.55707
128 1 -1.1104 3.73511 13.8245 4.00084
129 1 -1.1104 3.78017 19.4129 3.99563
130 2 2.2208 2.46927 15.2626 5.34764
131 2 2.2208 2.51175 20.7998 5.38993
132 1 -1.1104 3.93035 16.6046 1.22104
134 1 -1.1104 3.96816 16.5853 3.95003
9818 2 2.2208 -0.3563 18.0507 -0.272794
290 1 -1.1104 6.72882 14.0133 9.31644
118 1 -1.1104 6.73116 16.8173 6.6246
324 2 2.2208 10.8277 18.009 -0.329659
311 2 2.2208 10.8753 20.8157 8.16167
138 1 -1.1104 6.71262 19.5477 1.04966
140 1 -1.1104 6.6452 16.7121 1.07827
112 1 -1.1104 6.59177 19.3426 6.59503
139 1 -1.1104 6.63912 19.4423 3.83913
115 1 -1.1104 6.50877 13.8281 3.83628
122 1 -1.1104 6.69599 16.5854 3.84789
110 1 -1.1104 6.76027 13.7186 0.941944
154 1 -1.1104 9.27341 13.9705 6.56152
141 2 2.2208 10.9334 18.0772 5.29982
142 1 -1.1104 12.2864 13.9234 1.05577
144 1 -1.1104 12.2169 19.5584 0.957846
146 1 -1.1104 12.4719 13.7793 3.97175
147 1 -1.1104 12.2514 19.5701 3.69634
148 1 -1.1104 12.312 16.5649 1.18809
150 2 2.2208 10.9135 15.3375 2.54445
151 2 2.2208 10.7778 20.9093 2.46614
152 1 -1.1104 12.3165 16.6819 3.91207
153 1 -1.1104 9.62365 14.0453 1.14918
155 1 -1.1104 9.50668 19.6331 0.964961
157 2 2.2208 8.03144 18.1623 2.44497
158 1 -1.1104 9.43903 13.925 3.88848
159 1 -1.1104 9.29398 19.4937 3.79504
160 2 2.2208 7.9946 15.4125 5.2194
161 2 2.2208 8.02488 20.8981 5.23007
162 1 -1.1104 9.27794 16.7186 1.09193
164 1 -1.1104 9.58435 16.6895 3.81461
143 1 -1.1104 12.1587 13.9807 6.67979
149 1 -1.1104 12.3233 16.7266 6.65397
9684 2 2.2208 13.6684 15.3584 10.8408
145 1 -1.1104 12.2467 19.41 6.62551
156 1 -1.1104 9.39472 19.6692 6.76648
312 1 -1.1104 12.2749 16.6237 9.40399
170 1 -1.1104 1.01204 -0.210915 6.71354
317 2 2.2208 8.17636 15.3627 10.7454
320 2 2.2208 8.06941 18.1787 8.15353
136 2 2.2208 -0.317008 20.7322 2.39724
173 1 -1.1104 3.83316 2.77589 6.58442
166 1 -1.1104 1.00036 -2.84008 6.78647
319 1 -1.1104 9.6269 13.9108 9.3405
49 2 2.2208 13.6353 1.30824 2.46041
175 2 2.2208 5.26237 1.26759 10.8126
176 1 -1.1104 1.1114 -2.94591 12.3102
177 1 -1.1104 1.15857 2.63558 12.3699
180 1 -1.1104 1.10535 -2.85588 9.67494
181 1 -1.1104 1.01237 2.78695 9.58508
184 1 -1.1104 1.02119 0.105106 12.3299
186 2 2.2208 5.1304 -1.48257 8.00168
187 2 2.2208 5.27232 4.10576 7.89214
188 1 -1.1104 1.00045 -0.0432926 9.48774
190 1 -1.1104 3.91657 -2.8123 12.3075
191 1 -1.1104 3.87636 2.62245 12.402
192 2 2.2208 2.40133 1.32115 8.02375
193 1 -1.1104 3.80715 -2.9301 9.41947
194 1 -1.1104 3.83623 2.66088 9.40469
195 2 2.2208 2.42909 -1.45383 10.8852
197 1 -1.1104 3.87792 -0.0545523 12.2658
198 1 -1.1104 3.82531 -0.0221165 9.41876
196 2 2.2208 2.54472 4.01775 10.9711
185 1 -1.1104 6.52676 0.00184195 12.36
169 1 -1.1104 6.62035 2.68896 6.50066
208 1 -1.1104 9.49857 -2.79932 6.88708
135 1 -1.1104 12.2085 19.5063 9.49261
178 1 -1.1104 6.65469 -2.80959 12.3483
179 1 -1.1104 6.54428 2.7993 12.1215
171 1 -1.1104 6.59606 -0.0299401 6.59733
205 1 -1.1104 12.3175 -2.71744 6.66148
209 1 -1.1104 9.44345 2.72838 6.60862
183 1 -1.1104 6.61552 2.78669 9.31165
189 1 -1.1104 6.50544 -0.0940257 9.51234
182 1 -1.1104 6.74516 -2.82675 9.37567
211 2 2.2208 10.7312 1.5001 10.865
212 1 -1.1104 12.1434 -2.90755 12.3485
213 1 -1.1104 12.1556 2.65486 12.3615
214 1 -1.1104 12.2594 -2.82589 9.46195
215 1 -1.1104 12.2571 2.83547 9.40904
216 1 -1.1104 12.1014 -0.0348092 12.3214
217 2 2.2208 10.8848 -1.36131 8.05951
218 2 2.2208 10.8151 4.13203 8.02471
219 1 -1.1104 12.2664 0.134956 9.50511
220 1 -1.1104 9.50253 -2.73374 12.3468
221 1 -1.1104 9.37138 2.82837 12.3537
222 2 2.2208 7.94309 1.28769 8.05705
223 1 -1.1104 9.38961 -2.76363 9.64143
224 1 -1.1104 9.38414 2.855 9.44443
225 2 2.2208 7.9355 -1.34539 11.0087
226 2 2.2208 7.97742 4.11341 10.855
227 1 -1.1104 9.35051 0.0117688 12.2877
228 1 -1.1104 9.35199 0.0463464 9.51238
163 1 -1.1104 9.46542 16.8243 6.64355
9413 2 2.2208 13.549 9.74726 5.21452
78 1 -1.1104 3.85539 11.1367 6.87983
234 1 -1.1104 1.11772 8.37592 6.76776
104 1 -1.1104 12.2256 19.531 12.3098
62 1 -1.1104 1.10548 11.1434 6.69346
236 1 -1.1104 1.04405 5.40309 6.69404
238 1 -1.1104 3.85547 8.20331 6.76644
240 2 2.2208 5.35052 6.77769 10.8513
241 2 2.2208 5.25932 12.4636 10.9072
242 1 -1.1104 0.96709 8.19951 12.1724
244 1 -1.1104 1.12088 8.2796 9.43403
246 1 -1.1104 1.13088 5.50499 12.299
247 1 -1.1104 0.941696 10.9975 12.1723
250 2 2.2208 5.27527 9.64386 8.15752
251 1 -1.1104 1.02478 5.45302 9.51701
252 1 -1.1104 1.02346 10.9731 9.42351
255 1 -1.1104 3.73147 8.28655 12.3051
256 2 2.2208 2.54728 6.87466 8.20426
257 2 2.2208 2.37416 12.4748 8.07166
258 1 -1.1104 3.90083 8.15821 9.47835
259 2 2.2208 2.39609 9.7634 10.8689
260 1 -1.1104 3.99751 5.52476 12.4217
261 1 -1.1104 3.81547 11.0448 12.4137
262 1 -1.1104 3.82749 5.40965 9.701
263 1 -1.1104 3.72927 11.1329 9.60931
249 1 -1.1104 6.88337 11.2693 12.2217
243 1 -1.1104 6.59749 8.34536 12.2813
248 1 -1.1104 6.75465 5.50458 12.2061
335 2 2.2208 2.47024 20.7985 -0.236434
229 2 2.2208 10.8848 15.3009 8.02212
313 1 -1.1104 9.39712 13.9182 12.3773
90 1 -1.1104 12.3262 11.0227 6.8312
267 1 -1.1104 9.47082 8.28721 6.74907
65 1 -1.1104 6.7414 11.067 6.63083
245 1 -1.1104 6.71294 8.36398 9.48876
237 1 -1.1104 6.63657 5.46175 6.64162
266 1 -1.1104 12.2304 5.5286 6.62358
254 1 -1.1104 6.7297 11.177 9.5185
253 1 -1.1104 6.63669 5.57788 9.34669
264 1 -1.1104 9.45866 11.0993 9.45386
268 1 -1.1104 9.66038 5.54714 9.44815
270 1 -1.1104 9.58635 11.18 12.4263
271 1 -1.1104 9.54336 5.58682 12.2222
272 2 2.2208 8.13332 9.77403 10.9401
273 1 -1.1104 9.49676 8.4137 9.49515
274 2 2.2208 8.07385 12.5021 7.94881
275 2 2.2208 8.15091 6.95137 8.10851
276 2 2.2208 10.9258 7.00144 10.8783
277 2 2.2208 10.8748 12.6144 10.8956
278 1 -1.1104 12.2081 8.27556 12.3281
279 1 -1.1104 12.3734 8.33024 9.50637
280 1 -1.1104 12.2898 5.51737 12.1566
281 1 -1.1104 12.4919 11.015 12.5531
282 2 2.2208 10.9033 9.56082 8.10759
283 1 -1.1104 12.3264 5.6615 9.30377
284 1 -1.1104 12.3497 11.015 9.63548
285 1 -1.1104 9.42524 8.30402 12.3666
105 1 -1.1104 12.414 13.8414 9.49869
296 1 -1.1104 6.54393 19.5916 12.2491
9384 2 2.2208 13.6611 4.15497 5.11337
124 1 -1.1104 3.88595 13.7735 6.71798
108 1 -1.1104 0.957302 13.8586 6.64141
133 1 -1.1104 3.78633 16.5855 6.69327
126 1 -1.1104 3.91658 19.2592 6.82943
302 1 -1.1104 1.22354 19.3737 6.90958
316 2 2.2208 8.2086 20.9402 10.8358
117 1 -1.1104 1.10172 16.6192 6.53281
310 2 2.2208 2.59624 15.2996 10.94
286 1 -1.1104 3.8881 19.557 12.368
287 1 -1.1104 3.83625 13.8915 12.3328
291 1 -1.1104 0.835467 19.4529 9.55269
292 1 -1.1104 1.09996 16.6083 9.43225
293 2 2.2208 5.30876 20.8434 8.00113
294 1 -1.1104 1.06908 13.764 9.60767
295 2 2.2208 5.29851 15.2963 8.04663
298 1 -1.1104 1.10418 19.4131 12.3016
299 1 -1.1104 0.959111 13.7726 12.2771
300 2 2.2208 5.20827 18.2665 10.9904
301 1 -1.1104 3.80996 19.6284 9.43296
303 2 2.2208 2.48497 17.9941 8.13152
304 1 -1.1104 3.93219 16.8448 9.57076
305 1 -1.1104 3.96732 13.8895 9.53434
307 1 -1.1104 1.14275 16.6118 12.2864
308 1 -1.1104 3.91876 16.8139 12.2229
309 2 2.2208 2.46515 20.9352 10.9071
321 1 -1.1104 9.4735 19.4507 12.3107
315 1 -1.1104 9.58539 16.6178 12.1888
83 1 -1.1104 12.19 13.9817 12.3797
82 2 2.2208 10.8772 18.0482 10.9128
111 1 -1.1104 6.58079 14.0347 6.49801
297 1 -1.1104 6.8017 14.0086 12.2322
306 1 -1.1104 6.76447 16.7187 12.2998
314 1 -1.1104 9.51723 16.8964 9.4345
289 1 -1.1104 6.62347 16.8789 9.54499
288 1 -1.1104 6.84689 19.5886 9.55782
9613 2 2.2208 -0.43022 9.69294 8.05959
9614 2 2.2208 -0.305431 6.8791 10.7567
517 2 2.2208 2.50202 15.3012 -0.311292
137 2 2.2208 -0.298171 18.0323 5.29459
199 2 2.2208 -0.310717 4.02126 8.11501
9692 2 2.2208 -0.338266 20.7875 8.06803
9596 2 2.2208 13.7886 12.4676 8.15049
607 2 2.2208 13.5422 -1.43882 -0.377066
9694 2 2.2208 -0.286965 15.1989 8.16413
9519 2 2.2208 13.5576 4.17499 10.8558
81 2 2.2208 -0.321538 6.86499 5.34944
26 2 2.2208 -0.35368 1.22476 5.34714
341 2 2.2208 10.8299 1.39924 -0.305173
338 2 2.2208 5.27786 1.30297 -0.465957
332 2 2.2208 5.29219 15.1691 13.7106
601 2 2.2208 8.1435 -1.5257 -0.286832
604 2 2.2208 10.8786 -4.26804 -0.169036
326 2 2.2208 5.21778 9.7115 13.6912
662 2 2.2208 10.8533 12.4359 -0.316405
9697 2 2.2208 13.6123 6.74865 13.6024
343 2 2.2208 5.13974 1.37984 16.558
344 1 -1.1104 0.977712 -2.80755 17.9732
345 1 -1.1104 1.21341 2.80598 18.0058
348 1 -1.1104 1.06075 -2.79533 15.1908
350 1 -1.1104 1.07145 2.84683 15.1501
356 1 -1.1104 0.848061 -0.110176 17.9383
358 2 2.2208 5.29211 -1.45872 19.3205
360 1 -1.1104 0.988478 0.000859653 15.107
364 1 -1.1104 3.65496 -2.87927 17.9514
365 1 -1.1104 3.99897 2.78424 18.0436
366 2 2.2208 2.54275 1.34929 19.3837
367 1 -1.1104 3.77947 -2.73905 15.1036
369 1 -1.1104 3.79372 2.72339 15.2262
371 2 2.2208 2.43793 -1.38204 16.5284
373 1 -1.1104 3.82047 -0.098328 17.9558
374 1 -1.1104 3.82385 0.0387708 15.2278
372 2 2.2208 2.46772 4.15078 16.5639
346 1 -1.1104 6.42397 -2.81447 17.9322
359 2 2.2208 5.29488 4.13954 19.2945
362 1 -1.1104 6.6793 0.043133 15.2365
577 2 2.2208 2.44572 -4.14755 24.8917
327 2 2.2208 2.26915 12.4431 13.6888
605 2 2.2208 10.8009 -4.08713 22.134
330 2 2.2208 2.54584 18.0979 13.7098
377 2 2.2208 5.17367 -4.09869 16.5281
452 2 2.2208 2.52261 6.82922 13.6362
379 2 2.2208 -0.540439 1.28774 16.5019
9820 2 2.2208 13.5756 6.85724 19.2797
352 1 -1.1104 6.65276 -2.87281 15.0951
357 1 -1.1104 6.38135 0.0432139 18.056
354 1 -1.1104 6.53901 2.7961 15.0851
347 1 -1.1104 6.70092 2.82523 17.9011
386 2 2.2208 10.7614 1.28998 16.5139
387 1 -1.1104 12.181 -2.94288 17.8726
388 1 -1.1104 12.1329 2.6908 17.9672
389 1 -1.1104 12.0054 -2.96865 15.182
391 1 -1.1104 12.0642 2.65844 15.1033
393 1 -1.1104 12.0375 -0.134416 17.7415
394 2 2.2208 10.6801 -1.43453 19.1527
395 2 2.2208 10.9002 4.09704 19.4167
396 1 -1.1104 12.1399 -0.142001 15.0595
398 1 -1.1104 9.21705 -2.90188 17.9005
399 1 -1.1104 9.35583 2.77951 18.016
400 2 2.2208 7.87976 1.46249 19.2673
401 1 -1.1104 9.27278 -2.76221 15.1708
403 1 -1.1104 9.20317 2.87992 15.0344
405 2 2.2208 7.9284 -1.48649 16.5569
407 1 -1.1104 9.19892 -0.040356 17.8795
408 1 -1.1104 9.33901 0.0950107 15.0909
406 2 2.2208 7.99856 4.1958 16.5627
404 1 -1.1104 9.33493 2.73325 20.8774
342 2 2.2208 7.8727 3.95138 27.675
339 2 2.2208 2.39722 4.11842 27.6483
363 1 -1.1104 6.48215 -0.170692 20.8182
390 1 -1.1104 12.306 -2.75152 20.6136
353 1 -1.1104 6.71508 -2.92203 20.7916
392 1 -1.1104 12.3151 2.66854 20.683
9892 2 2.2208 13.4579 20.8602 16.555
331 2 2.2208 5.27482 20.904 13.7258
479 2 2.2208 7.9751 6.96469 13.6692
419 2 2.2208 5.23401 7.03804 16.4618
420 2 2.2208 5.17607 12.5689 16.6233
421 1 -1.1104 1.01208 8.24472 17.8563
423 1 -1.1104 1.06 8.1315 14.9622
427 1 -1.1104 1.20174 5.59657 17.9639
428 1 -1.1104 0.98259 11.0598 17.8775
431 2 2.2208 5.31391 9.80013 19.283
432 1 -1.1104 1.08666 5.56979 15.1469
434 1 -1.1104 1.09534 11.0736 15.0842
440 1 -1.1104 3.8665 8.42013 17.9092
441 2 2.2208 2.59931 6.96078 19.2918
442 2 2.2208 2.34357 12.4785 19.2974
443 1 -1.1104 3.83938 8.28824 15.0586
445 2 2.2208 2.34195 9.61099 16.4245
446 1 -1.1104 3.89261 5.56637 17.9336
447 1 -1.1104 3.73114 11.1797 18.0324
448 1 -1.1104 3.92775 5.59399 15.1056
450 1 -1.1104 3.67963 11.2065 15.195
425 1 -1.1104 6.62912 8.48323 15.0859
9952 2 2.2208 13.7664 4.09572 21.972
9862 2 2.2208 13.6921 12.466 24.9067
449 1 -1.1104 3.74119 5.54571 20.7335
451 1 -1.1104 3.78735 11.2263 20.7086
415 2 2.2208 8.01854 20.9921 22.1393
418 2 2.2208 10.6793 4.14151 13.7001
9749 2 2.2208 13.5083 1.24498 13.7014
436 1 -1.1104 6.62879 5.57342 15.1592
438 1 -1.1104 6.62985 11.1614 15.1089
429 1 -1.1104 6.6749 5.60693 17.969
430 1 -1.1104 6.54828 11.1642 17.9841
422 1 -1.1104 6.64187 8.30431 17.7817
455 2 2.2208 10.8505 7.03277 16.3433
456 2 2.2208 10.7832 12.4679 16.6671
457 1 -1.1104 12.2514 8.23901 17.8161
458 1 -1.1104 12.292 8.36947 15.1119
460 1 -1.1104 12.1711 5.42977 17.9036
461 1 -1.1104 12.2516 11.1392 18.0139
462 2 2.2208 10.8645 9.76238 19.3323
463 1 -1.1104 12.0698 5.4463 15.1174
465 1 -1.1104 12.2564 11.1585 15.3054
467 1 -1.1104 9.48021 8.43304 17.6758
468 2 2.2208 8.07952 6.95962 19.1972
469 2 2.2208 8.03761 12.5386 19.2866
470 1 -1.1104 9.39969 8.39846 15.1651
472 2 2.2208 8.0053 9.87234 16.5205
473 1 -1.1104 9.54555 5.69791 17.7958
474 1 -1.1104 9.41224 11.0742 17.9844
475 1 -1.1104 9.45072 5.58593 15.1116
477 1 -1.1104 9.5155 11.162 14.9984
478 1 -1.1104 9.44282 11.1117 20.7209
471 1 -1.1104 9.39708 8.32178 20.4983
459 1 -1.1104 12.1729 8.25921 20.619
466 1 -1.1104 12.3686 10.9518 20.6588
516 2 2.2208 8.00286 18.0802 24.9852
638 1 -1.1104 12.2555 19.3962 26.3441
610 1 -1.1104 12.2324 13.7715 26.3849
9861 2 2.2208 -0.292364 6.86852 16.4868
515 1 -1.1104 6.59843 19.3515 26.2961
673 1 -1.1104 6.59742 19.4797 23.5756
9894 2 2.2208 13.6747 -1.31695 22.054
667 1 -1.1104 6.7708 13.9191 26.0954
482 2 2.2208 5.27385 18.1287 16.5022
483 1 -1.1104 0.999974 13.877 17.9927
484 1 -1.1104 0.896711 19.4718 17.8689
487 1 -1.1104 0.773031 14.0423 15.21
489 1 -1.1104 1.17428 19.378 15.1347
495 1 -1.1104 1.02984 16.7526 18.0304
497 2 2.2208 5.08711 15.4168 19.3326
498 2 2.2208 5.26501 20.8966 19.431
499 1 -1.1104 0.953313 16.6993 15.0889
503 1 -1.1104 3.76436 13.9168 18.0209
504 1 -1.1104 3.79381 19.5455 17.9042
505 2 2.2208 2.38871 18.2229 19.3174
506 1 -1.1104 3.91268 14.0081 15.193
508 1 -1.1104 3.84341 19.4079 15.1611
510 2 2.2208 2.40591 15.2706 16.4518
511 2 2.2208 2.2648 20.8289 16.4457
512 1 -1.1104 3.87747 16.7784 17.8085
513 1 -1.1104 3.8707 16.6752 15.0183
496 1 -1.1104 6.75595 16.7787 18.2153
485 1 -1.1104 6.7413 14.0673 17.8793
507 1 -1.1104 3.84674 13.9748 20.7921
669 1 -1.1104 6.71603 16.6988 26.3603
9819 2 2.2208 13.5589 9.66238 16.4917
491 1 -1.1104 6.71255 13.8673 15.1102
501 1 -1.1104 6.66369 16.7198 15.05
493 1 -1.1104 6.57982 19.4777 15.0789
486 1 -1.1104 6.67634 19.4988 17.9151
518 2 2.2208 10.7322 18.1011 16.4975
519 1 -1.1104 12.4135 13.8495 17.8634
520 1 -1.1104 12.1457 19.274 18.008
521 1 -1.1104 12.0568 13.9144 15.1973
523 1 -1.1104 12.1971 19.3512 15.0818
525 1 -1.1104 12.1694 16.5924 17.8351
526 2 2.2208 10.8573 15.3684 19.3156
527 2 2.2208 10.7913 20.8283 19.3034
528 1 -1.1104 12.2617 16.6123 15.0935
530 1 -1.1104 9.52623 14.0555 18.0685
531 1 -1.1104 9.40911 19.5508 17.7538
532 2 2.2208 8.01974 18.1406 19.4871
533 1 -1.1104 9.36693 14.0142 15.3523
535 1 -1.1104 9.33283 19.4545 15.0715
537 2 2.2208 8.11706 15.5044 16.5017
538 2 2.2208 8.04866 20.8521 16.41
539 1 -1.1104 9.41054 16.7515 17.9564
540 1 -1.1104 9.4994 16.8024 14.9577
524 1 -1.1104 12.4275 19.4865 20.6888
529 1 -1.1104 12.2897 16.7715 20.7991
536 1 -1.1104 9.41128 19.5538 20.799
541 1 -1.1104 9.47534 16.7058 20.7526
336 2 2.2208 8.00488 18.1611 13.558
370 1 -1.1104 3.99105 2.74185 20.6577
355 1 -1.1104 6.59991 2.76238 20.7248
609 1 -1.1104 12.2903 19.4188 23.6237
9959 2 2.2208 13.6324 15.2336 22.0183
349 1 -1.1104 0.921833 -2.81124 20.7859
368 1 -1.1104 3.75459 -2.85112 20.6862
375 1 -1.1104 3.80692 -0.0362341 20.8154
640 2 2.2208 10.8782 15.2668 25.0018
351 1 -1.1104 1.12744 2.78758 20.7626
361 1 -1.1104 1.07277 -0.093728 20.6338
546 2 2.2208 5.19817 1.39301 22.0883
547 1 -1.1104 0.946363 -2.75793 23.5863
548 1 -1.1104 1.07416 2.82566 23.5269
551 1 -1.1104 1.08163 -2.88034 26.4577
552 1 -1.1104 0.903869 2.76827 26.41
555 1 -1.1104 1.02876 0.0889107 23.5249
557 2 2.2208 5.21332 -1.50742 24.9222
559 1 -1.1104 1.10544 -0.0392404 26.3791
561 1 -1.1104 3.88107 -2.88069 23.4745
562 1 -1.1104 3.90461 2.79262 23.4801
563 2 2.2208 2.39547 1.32885 24.975
564 1 -1.1104 3.7324 -2.8756 26.4075
565 1 -1.1104 3.783 2.74758 26.2781
566 2 2.2208 2.48512 -1.4038 22.1714
567 2 2.2208 2.45256 4.1149 22.0456
568 1 -1.1104 3.83413 -0.0795578 23.6736
569 1 -1.1104 3.8397 -0.106205 26.2523
558 2 2.2208 5.09862 4.15501 24.7927
550 1 -1.1104 6.71196 2.75523 23.4088
502 1 -1.1104 6.62287 16.7156 20.947
664 1 -1.1104 9.35775 13.8865 23.5417
453 1 -1.1104 9.32473 16.8341 23.6136
10039 2 2.2208 -0.306259 6.90567 22.0924
397 1 -1.1104 12.0962 -0.000357052 20.6708
333 2 2.2208 10.885 20.8168 13.7584
409 1 -1.1104 9.32776 -0.0863428 20.488
402 1 -1.1104 9.41247 -2.88611 20.6799
556 1 -1.1104 6.52462 -0.126818 23.6243
549 1 -1.1104 6.66689 -2.92128 23.5231
560 1 -1.1104 6.65951 -0.0736531 26.3288
553 1 -1.1104 6.56222 -2.84148 26.3791
554 1 -1.1104 6.60213 2.73229 26.1447
582 2 2.2208 10.8218 1.29556 22.1646
583 1 -1.1104 12.3052 -2.72015 23.4751
584 1 -1.1104 12.3255 2.81624 23.3807
585 1 -1.1104 12.2317 -2.78937 26.3707
586 1 -1.1104 12.1911 2.79513 26.2302
587 1 -1.1104 12.254 0.0302989 23.5304
588 2 2.2208 10.9377 -1.47937 24.9745
589 2 2.2208 10.8328 4.07517 24.764
590 1 -1.1104 12.2429 -0.125328 26.4018
591 1 -1.1104 9.35214 -2.64069 23.5987
592 1 -1.1104 9.45883 2.64373 23.6095
593 2 2.2208 7.97237 1.28243 24.8705
594 1 -1.1104 9.54643 -2.83297 26.3237
595 1 -1.1104 9.34896 2.65815 26.2751
596 2 2.2208 8.04122 -1.41229 22.0609
597 2 2.2208 8.00743 4.1603 22.0463
598 1 -1.1104 9.45703 -0.134659 23.4284
599 1 -1.1104 9.31558 -0.175776 26.1638
481 1 -1.1104 9.44045 13.8903 26.381
676 1 -1.1104 6.47013 13.747 23.3405
435 1 -1.1104 0.92469 11.0583 20.7265
9889 2 2.2208 13.5342 15.2327 16.4926
444 1 -1.1104 3.88885 8.38768 20.6405
433 1 -1.1104 1.04437 5.50272 20.5957
424 1 -1.1104 0.976312 8.14668 20.6099
611 2 2.2208 5.26414 6.87515 22.0847
612 2 2.2208 5.24294 12.4305 22.0738
613 1 -1.1104 1.02401 8.30174 23.528
615 1 -1.1104 1.07522 8.31445 26.291
617 1 -1.1104 1.22706 5.56519 23.5569
618 1 -1.1104 1.10307 11.1762 23.5483
621 2 2.2208 5.36038 9.59161 24.8543
622 1 -1.1104 1.04316 5.61401 26.2301
623 1 -1.1104 1.18138 11.1911 26.3571
626 1 -1.1104 3.84771 8.31533 23.5092
627 2 2.2208 2.38843 6.96625 24.8559
628 2 2.2208 2.5603 12.5344 24.9374
629 1 -1.1104 3.872 8.20964 26.227
630 2 2.2208 2.38723 9.64631 22.0323
631 1 -1.1104 3.88151 5.51523 23.4291
632 1 -1.1104 4.04859 10.9862 23.4585
633 1 -1.1104 3.75456 5.54492 26.2202
634 1 -1.1104 4.03448 10.9796 26.2711
614 1 -1.1104 6.59168 8.26621 23.3531
572 1 -1.1104 6.50861 16.7136 23.6045
663 1 -1.1104 12.2662 16.7009 26.3123
437 1 -1.1104 6.63081 5.57115 20.7976
464 1 -1.1104 12.3102 5.4413 20.7326
476 1 -1.1104 9.5353 5.61583 20.6337
426 1 -1.1104 6.61807 8.29597 20.5819
616 1 -1.1104 6.72337 8.25557 26.2431
624 1 -1.1104 6.71225 5.47339 26.379
439 1 -1.1104 6.67807 11.0288 20.7126
619 1 -1.1104 6.67516 5.45108 23.5843
620 1 -1.1104 6.80364 11.0481 23.4426
625 1 -1.1104 6.71178 10.9529 26.2597
642 1 -1.1104 9.5308 11.1689 26.1912
643 1 -1.1104 9.44307 5.43502 26.2784
644 1 -1.1104 9.61724 11.0805 23.4671
645 1 -1.1104 9.4936 5.63629 23.3894
646 2 2.2208 8.0022 9.57984 21.9481
647 1 -1.1104 9.60518 8.30497 26.1395
648 2 2.2208 8.06647 12.4468 24.8029
649 2 2.2208 8.1488 6.92033 24.8042
650 2 2.2208 10.9082 6.92975 22.0839
651 2 2.2208 10.875 12.5125 22.0458
652 1 -1.1104 12.4242 8.34775 23.5088
653 1 -1.1104 12.3686 8.18479 26.2733
654 1 -1.1104 12.2991 5.57166 23.5227
655 1 -1.1104 12.3831 11.0635 23.4288
656 2 2.2208 11.0622 9.63207 24.8283
657 1 -1.1104 12.1667 5.41566 26.2685
658 1 -1.1104 12.4377 10.9699 26.2579
659 1 -1.1104 9.52169 8.2748 23.3
665 1 -1.1104 9.4798 19.5333 23.4895
641 2 2.2208 10.7595 20.7723 25.0136
500 1 -1.1104 0.9834 16.6508 20.8041
509 1 -1.1104 3.80476 19.5237 20.7139
488 1 -1.1104 1.08605 13.9107 20.7346
608 1 -1.1104 12.1806 13.8195 23.533
490 1 -1.1104 0.957781 19.3831 20.9063
480 1 -1.1104 9.45574 19.3309 26.2833
514 1 -1.1104 3.73104 16.7234 20.7897
543 2 2.2208 2.36487 15.3284 22.2072
544 2 2.2208 2.35158 20.8641 22.2494
545 1 -1.1104 3.73746 16.7348 23.6174
570 1 -1.1104 0.945011 16.7144 23.6395
578 1 -1.1104 3.9741 13.8658 26.4355
600 1 -1.1104 3.87683 16.7763 26.5197
602 2 2.2208 2.52948 18.1708 25.0482
666 1 -1.1104 3.81398 19.4569 23.567
668 1 -1.1104 3.73603 13.8041 23.6299
670 1 -1.1104 1.04839 19.6129 26.5153
671 1 -1.1104 1.09596 16.6135 26.4048
672 1 -1.1104 1.10405 13.9148 26.281
674 2 2.2208 5.17607 20.9214 25.001
675 2 2.2208 5.31968 15.3939 25.0288
677 1 -1.1104 1.18124 19.5873 23.7344
678 1 -1.1104 1.02087 13.8991 23.3742
679 2 2.2208 5.12627 18.0728 22.0916
680 1 -1.1104 3.89144 19.4408 26.4479
454 1 -1.1104 9.54069 16.5034 26.4298
603 2 2.2208 10.8831 18.0699 22.1544
639 1 -1.1104 12.318 16.6993 23.5641
414 2 2.2208 8.00801 15.3538 22.0501
492 1 -1.1104 6.65021 13.8889 20.6048
494 1 -1.1104 6.55106 19.4416 20.8034
534 1 -1.1104 9.62736 13.9454 20.6886
522 1 -1.1104 12.2585 13.8915 20.6723
9821 2 2.2208 13.6977 12.517 19.2536
9822 2 2.2208 -0.462837 15.3653 24.9215
329 2 2.2208 8.16515 12.6206 13.7043
9893 2 2.2208 13.6512 1.43081 24.8171
660 2 2.2208 11.0158 6.96198 27.7401
9888 2 2.2208 -0.320116 9.73018 24.8777
571 2 2.2208 2.3329 -1.54745 27.7981
334 2 2.2208 10.8304 15.4772 13.6883
9896 2 2.2208 13.5812 -1.62134 16.4859
9745 2 2.2208 13.5286 4.0621 16.4797
9931 2 2.2208 -0.28074 15.2523 19.4148
381 2 2.2208 -0.304757 -1.54808 13.7323
384 2 2.2208 2.45253 1.37836 13.76
637 2 2.2208 5.42167 12.3743 27.6215
416 2 2.2208 8.02421 1.48447 13.7428
383 2 2.2208 5.20927 -1.42366 13.7429
328 2 2.2208 10.929 9.76867 13.7626
635 2 2.2208 5.22347 6.91067 27.513
337 2 2.2208 7.94877 20.9299 27.6825
661 2 2.2208 8.09526 9.60358 27.6649
9707 2 2.2208 13.7347 4.00407 27.7061
9699 2 2.2208 13.6263 12.4947 13.8238
385 2 2.2208 5.23029 4.12517 13.8814
681 2 2.2208 5.14357 23.7751 5.27529
682 2 2.2208 5.2547 29.1686 5.33031
683 1 -1.1104 0.999888 25.0432 1.18278
684 1 -1.1104 0.951725 25.0138 3.92956
685 1 -1.1104 1.00938 22.2268 1.14661
686 1 -1.1104 1.00956 27.8899 1.191
687 2 2.2208 5.09926 26.4824 2.50186
688 1 -1.1104 1.0134 22.3531 3.93911
689 1 -1.1104 1.00061 27.9462 3.96426
690 1 -1.1104 3.67494 25.119 1.195
691 2 2.2208 2.42996 23.6619 2.58274
692 2 2.2208 2.43127 29.3165 2.62335
693 1 -1.1104 3.72603 25.1178 3.95423
694 2 2.2208 2.31641 26.3731 5.2208
695 1 -1.1104 3.83224 22.3388 1.28096
696 1 -1.1104 3.69038 27.9314 1.17094
697 1 -1.1104 3.85556 22.221 4.14179
698 1 -1.1104 3.72056 27.6534 3.91417
705 1 -1.1104 6.70041 27.8536 1.06295
702 1 -1.1104 6.45035 25.1475 1.26882
703 1 -1.1104 6.57536 25.1647 4.05274
707 1 -1.1104 6.5836 27.9527 3.94849
1556 1 -1.1104 6.66293 47.2787 12.2824
823 1 -1.1104 6.68885 25.0875 6.73996
970 2 2.2208 -0.329163 43.2395 8.0802
1239 2 2.2208 2.40541 26.5306 -0.274877
1015 2 2.2208 5.17811 23.7897 -0.284233
704 1 -1.1104 6.75298 22.3365 1.13115
706 1 -1.1104 6.65074 22.3349 3.90098
708 2 2.2208 10.844 23.7556 5.26209
709 2 2.2208 10.8413 29.2856 5.29561
710 1 -1.1104 12.2416 25.1573 1.01622
711 1 -1.1104 12.2969 25.1048 3.96684
712 1 -1.1104 12.1816 22.3146 1.02613
713 1 -1.1104 12.3689 27.9864 0.972578
714 2 2.2208 10.9518 26.4774 2.43763
715 1 -1.1104 12.2522 22.2444 4.01647
716 1 -1.1104 12.1475 27.9262 3.86295
717 1 -1.1104 9.47153 25.2851 1.14472
718 2 2.2208 8.03511 23.7369 2.52872
719 2 2.2208 8.18463 29.287 2.47739
720 1 -1.1104 9.35273 25.1165 3.85564
721 2 2.2208 7.95408 26.5665 5.38669
722 1 -1.1104 9.44543 22.4062 1.1268
723 1 -1.1104 9.50842 27.8298 1.00319
724 1 -1.1104 9.54869 22.2916 3.88962
725 1 -1.1104 9.3221 27.8829 3.91318
857 1 -1.1104 12.4029 27.7329 6.78923
1571 1 -1.1104 3.84947 47.4606 9.43795
10410 2 2.2208 13.6376 40.5235 13.6244
820 2 2.2208 13.6597 46.0838 2.40215
994 2 2.2208 -0.320964 34.8845 10.9402
1274 2 2.2208 10.8573 29.28 -0.382316
750 2 2.2208 -0.300355 37.6189 2.47202
729 2 2.2208 5.27721 34.6862 5.23521
730 1 -1.1104 1.14662 30.569 1.06689
731 1 -1.1104 1.03557 36.2642 1.04898
733 1 -1.1104 1.03443 30.8338 3.9211
734 1 -1.1104 1.13668 36.3882 3.85498
736 1 -1.1104 1.13281 33.3703 1.06795
737 2 2.2208 5.24535 32.0682 2.54277
738 2 2.2208 5.29031 37.7516 2.45942
739 1 -1.1104 1.10526 33.6333 3.91915
741 1 -1.1104 4.04663 30.6909 1.07839
742 1 -1.1104 3.8394 36.3628 1.10981
743 2 2.2208 2.56184 34.907 2.42278
744 1 -1.1104 3.76983 30.6053 3.79135
745 1 -1.1104 3.91615 36.2322 3.92747
746 2 2.2208 2.40062 32.0237 5.24492
747 2 2.2208 2.44635 37.6791 5.3042
748 1 -1.1104 3.92985 33.4995 1.03616
749 1 -1.1104 3.93257 33.3836 3.82204
740 1 -1.1104 6.70794 33.3746 3.89485
732 1 -1.1104 6.76277 36.3665 1.05905
879 1 -1.1104 1.10612 30.6669 6.75021
755 1 -1.1104 6.61635 33.5585 1.189
753 1 -1.1104 6.77052 30.5725 1.04473
884 1 -1.1104 6.53779 33.3947 6.75347
754 1 -1.1104 6.72299 30.6704 3.90878
1017 2 2.2208 5.28102 46.1932 -0.277117
1328 2 2.2208 8.14049 32.0685 -0.265805
801 2 2.2208 -0.336511 40.4065 5.24325
973 1 -1.1104 9.31726 44.7789 9.42918
735 1 -1.1104 6.59822 36.2583 3.96497
756 2 2.2208 10.7401 34.9775 5.33364
757 1 -1.1104 12.2385 30.7185 1.10022
758 1 -1.1104 12.1944 36.2544 1.28766
759 1 -1.1104 12.3321 30.726 4.04752
760 1 -1.1104 12.3608 36.2834 4.14068
761 1 -1.1104 12.1833 33.4527 1.16648
762 2 2.2208 10.8473 32.0406 2.50939
763 2 2.2208 10.8271 37.589 2.54338
764 1 -1.1104 12.241 33.6235 3.92522
765 1 -1.1104 9.56437 30.58 1.19942
766 1 -1.1104 9.57173 36.312 0.991087
767 2 2.2208 8.05498 34.8089 2.61531
768 1 -1.1104 9.46444 30.535 3.94346
769 1 -1.1104 9.47626 36.2563 3.81823
770 2 2.2208 8.12505 31.9255 5.32373
771 2 2.2208 7.97179 37.647 5.28637
772 1 -1.1104 9.4317 33.4828 1.22
773 1 -1.1104 9.49293 33.3038 3.88939