ITEM: TIMESTEP
80000
ITEM: NUMBER OF ATOMS
17820
ITEM: BOX BOUNDS pp pp pp
-3.6076233183728218e-01 2.7700762331836764e+01
-4.2226902201194330e+00 3.3230269022010225e+02
-3.5067319123429330e-01 2.7690673191233955e+01
ITEM: ATOMS id type q x y z
1 2 2.2208 5.2815 1.47842 5.27113
2 1 -1.1104 1.16565 -2.91746 0.90621
3 1 -1.1104 1.00256 2.74155 0.813778
6 1 -1.1104 1.00371 -2.90718 3.68642
7 1 -1.1104 1.0347 2.8636 3.63241
10 1 -1.1104 0.932063 0.0233379 1.13166
12 2 2.2208 5.21526 -1.41373 2.53125
14 1 -1.1104 1.03908 0.0739979 3.74076
16 1 -1.1104 3.93694 -2.79803 0.994403
17 1 -1.1104 3.75174 2.72893 0.896391
18 2 2.2208 2.42233 1.45412 2.28739
19 1 -1.1104 3.79582 -2.80585 3.82414
20 1 -1.1104 3.94698 2.72226 3.77936
21 2 2.2208 2.52739 -1.29696 5.13844
22 2 2.2208 2.38451 4.18472 5.05373
23 1 -1.1104 3.87175 -0.124759 0.989639
24 1 -1.1104 3.87496 0.0699204 3.71124
166 1 -1.1104 1.14106 -2.88051 6.43096
174 1 -1.1104 3.71405 0.105325 6.44955
5 1 -1.1104 6.70759 2.63275 0.943187
172 1 -1.1104 3.83883 -2.81936 6.46604
8 1 -1.1104 6.56758 -2.89201 3.8181
9 1 -1.1104 6.76823 2.9988 3.71836
13 2 2.2208 5.22098 4.18227 2.38137
170 1 -1.1104 1.048 0.0429051 6.6234
15 1 -1.1104 6.67257 0.0683196 3.99138
171 1 -1.1104 6.59573 0.0437346 6.74964
167 1 -1.1104 1.08752 2.87359 6.54323
4 1 -1.1104 6.68123 -2.6907 1.0784
384 2 2.2208 2.6035 1.28772 13.5936
452 2 2.2208 2.37145 6.93641 13.5406
165 1 -1.1104 12.1289 16.8121 12.3085
11 1 -1.1104 6.71835 -0.144039 1.22407
168 1 -1.1104 6.72007 -2.80731 6.57386
169 1 -1.1104 6.66519 2.80299 6.54535
31 2 2.2208 10.8982 1.3084 5.23427
32 1 -1.1104 12.2367 -2.91705 1.01533
33 1 -1.1104 12.4917 2.89568 1.05464
34 1 -1.1104 12.2126 -2.59168 3.73328
35 1 -1.1104 12.4022 2.85161 3.72764
36 1 -1.1104 12.3097 -0.00236259 1.20077
37 2 2.2208 10.7999 -1.44054 2.3798
38 2 2.2208 10.9161 4.16317 2.49139
39 1 -1.1104 12.2425 -0.0170187 3.73788
40 1 -1.1104 9.43472 -2.70514 0.987323
41 1 -1.1104 9.61563 2.89353 0.908591
42 2 2.2208 8.06289 1.46632 2.41991
43 1 -1.1104 9.49816 -2.88319 3.70259
44 1 -1.1104 9.57228 2.62 3.86992
45 2 2.2208 8.1107 -1.46046 5.27603
47 1 -1.1104 9.50067 0.119215 0.979141
48 1 -1.1104 9.50237 -0.17558 3.74135
46 2 2.2208 8.0512 4.26089 5.23047
205 1 -1.1104 12.3167 -2.96592 6.33511
206 1 -1.1104 12.0605 2.77674 6.68529
83 1 -1.1104 12.3411 14.0303 12.082
207 1 -1.1104 12.2622 -0.0395772 6.68388
210 1 -1.1104 9.49809 0.11139 6.66813
209 1 -1.1104 9.33449 2.91279 6.72905
54 2 2.2208 5.28014 6.92322 5.1835
55 2 2.2208 5.20032 12.5197 5.20638
56 1 -1.1104 1.02805 8.41356 0.948519
58 1 -1.1104 1.22465 8.48565 3.70589
60 1 -1.1104 1.14451 5.70422 0.883694
61 1 -1.1104 1.18466 11.0985 0.7892
66 2 2.2208 5.3179 9.91386 2.34241
67 1 -1.1104 1.02114 5.62958 3.7049
68 1 -1.1104 0.928098 11.1351 3.88527
71 1 -1.1104 3.94648 8.47736 0.943398
72 2 2.2208 2.45465 7.10014 2.28182
73 2 2.2208 2.37987 12.5009 2.41715
74 1 -1.1104 3.97125 8.40707 3.73592
75 2 2.2208 2.45465 9.71596 5.16079
76 1 -1.1104 4.00903 5.58641 1.06191
77 1 -1.1104 3.83579 11.3059 0.991231
79 1 -1.1104 3.89295 5.55259 3.73625
80 1 -1.1104 3.7336 11.2218 3.78387
78 1 -1.1104 3.69319 11.1846 6.57824
64 1 -1.1104 6.52081 11.2329 0.982482
238 1 -1.1104 3.81624 8.39504 6.36245
63 1 -1.1104 6.69991 5.58686 0.966183
69 1 -1.1104 6.72762 5.71667 3.79766
236 1 -1.1104 1.0668 5.59048 6.60731
70 1 -1.1104 6.62 11.3458 3.82237
57 1 -1.1104 6.68396 8.47904 0.960443
59 1 -1.1104 6.89797 8.41255 3.76637
234 1 -1.1104 1.12704 8.49078 6.60936
239 1 -1.1104 3.83566 5.64778 6.59224
62 1 -1.1104 0.91469 11.134 6.60233
65 1 -1.1104 6.65411 11.1189 6.43019
232 2 2.2208 10.8562 -4.37612 10.8772
231 2 2.2208 8.10582 -4.24529 7.97708
320 2 2.2208 8.05965 18.2688 7.98584
237 1 -1.1104 6.58498 5.70394 6.70722
235 1 -1.1104 6.62482 8.45689 6.52748
84 2 2.2208 10.8745 7.06158 5.20853
85 2 2.2208 10.7717 12.7621 5.21734
86 1 -1.1104 12.2506 8.45692 1.02474
87 1 -1.1104 12.2847 8.472 3.77769
88 1 -1.1104 12.4277 5.71498 1.05238
89 1 -1.1104 12.2074 11.1601 1.03712
91 2 2.2208 10.7445 9.91626 2.49826
92 1 -1.1104 12.1907 5.76517 3.76014
93 1 -1.1104 11.9878 11.1412 4.0664
94 1 -1.1104 9.42969 8.43804 1.0202
95 2 2.2208 8.12107 7.03865 2.45933
96 2 2.2208 7.94787 12.7194 2.31535
97 1 -1.1104 9.55583 8.41292 3.93995
98 2 2.2208 8.02304 9.84232 5.19325
99 1 -1.1104 9.55529 5.64181 0.872663
100 1 -1.1104 9.40808 11.3837 0.914745
102 1 -1.1104 9.41128 5.51109 3.91719
103 1 -1.1104 9.31625 11.1616 3.5862
269 1 -1.1104 9.37228 5.61549 6.71818
265 1 -1.1104 12.1609 8.37637 6.69441
267 1 -1.1104 9.45276 8.40649 6.69802
101 1 -1.1104 9.3619 11.19 6.51226
29 2 2.2208 5.27106 -4.24146 5.2805
266 1 -1.1104 12.1537 5.54643 6.70514
319 1 -1.1104 9.39661 14.0168 9.51257
106 2 2.2208 5.11859 18.2719 5.2357
107 1 -1.1104 0.962412 13.9643 0.873238
109 1 -1.1104 0.784459 19.5743 0.879856
113 1 -1.1104 0.899331 13.9465 3.68798
114 1 -1.1104 1.01479 19.6206 3.85842
116 1 -1.1104 0.967297 16.8099 1.0051
119 2 2.2208 5.11746 15.5334 2.36249
120 2 2.2208 5.13104 20.9596 2.33845
121 1 -1.1104 0.878679 16.8601 3.78452
123 1 -1.1104 3.83559 14.1884 0.883014
125 1 -1.1104 3.71512 19.806 0.932622
127 2 2.2208 2.23663 18.2328 2.30197
128 1 -1.1104 3.6281 13.893 3.70545
129 1 -1.1104 3.70231 19.4771 3.71751
130 2 2.2208 2.38796 15.2503 5.10943
131 2 2.2208 2.33263 20.9352 5.18008
132 1 -1.1104 3.77352 16.9388 0.903367
134 1 -1.1104 3.77938 16.7541 3.79048
115 1 -1.1104 6.72229 14.023 3.68489
133 1 -1.1104 3.70928 16.6979 6.53376
122 1 -1.1104 6.54046 16.6348 3.72556
112 1 -1.1104 6.5538 19.6686 6.51291
117 1 -1.1104 1.07872 16.7528 6.46895
302 1 -1.1104 1.08104 19.5015 6.53361
108 1 -1.1104 0.951603 13.9846 6.43377
124 1 -1.1104 3.75032 14.0745 6.65634
126 1 -1.1104 3.70951 19.5518 6.61171
138 1 -1.1104 6.59957 19.6947 0.96364
318 1 -1.1104 9.41366 19.6556 9.41843
110 1 -1.1104 6.66481 14.0711 0.930145
111 1 -1.1104 6.61926 13.9334 6.57163
140 1 -1.1104 6.57288 16.8871 1.08637
139 1 -1.1104 6.57988 19.514 3.71866
141 2 2.2208 10.8524 18.1864 5.25986
142 1 -1.1104 12.2012 13.9104 1.044
144 1 -1.1104 12.2388 19.6527 0.963563
146 1 -1.1104 12.2373 13.9935 3.7034
147 1 -1.1104 11.9999 19.4651 3.78145
148 1 -1.1104 12.1622 16.7692 0.793131
150 2 2.2208 10.8484 15.4965 2.3586
151 2 2.2208 10.7185 20.9677 2.28038
152 1 -1.1104 12.23 16.7874 3.71878
153 1 -1.1104 9.3243 14.1634 0.871179
155 1 -1.1104 9.44296 19.5904 0.990087
157 2 2.2208 8.01412 18.2188 2.38131
158 1 -1.1104 9.52187 13.96 3.73064
159 1 -1.1104 9.25682 19.6201 3.75965
160 2 2.2208 8.05656 15.4901 5.07453
161 2 2.2208 7.92873 21.0214 5.08824
162 1 -1.1104 9.4056 16.8867 0.859416
164 1 -1.1104 9.48413 16.8505 3.73907
154 1 -1.1104 9.46805 14.0023 6.71506
163 1 -1.1104 9.6152 16.7107 6.40814
143 1 -1.1104 12.1801 13.9287 6.61558
118 1 -1.1104 6.61439 16.8916 6.42564
156 1 -1.1104 9.33473 19.5068 6.42006
149 1 -1.1104 12.3038 16.7922 6.54074
50 2 2.2208 13.6686 -1.46737 5.0703
145 1 -1.1104 12.2127 19.6022 6.58524
173 1 -1.1104 3.76737 2.75995 6.53803
27 2 2.2208 -0.386715 4.30801 2.26874
175 2 2.2208 5.27192 1.24961 10.7643
176 1 -1.1104 0.878786 -2.82943 12.11
177 1 -1.1104 0.949918 2.68458 12.1728
180 1 -1.1104 1.02416 -2.79205 9.33352
181 1 -1.1104 1.09064 2.72011 9.46764
184 1 -1.1104 0.99461 -0.0341547 12.0721
186 2 2.2208 5.17049 -1.34574 7.83329
188 1 -1.1104 1.10554 -0.122289 9.36614
190 1 -1.1104 3.68821 -2.97507 12.098
191 1 -1.1104 4.00772 2.55576 12.1155
192 2 2.2208 2.54379 1.35753 7.91821
193 1 -1.1104 3.86813 -2.86681 9.32191
194 1 -1.1104 3.85151 2.7754 9.41891
195 2 2.2208 2.37903 -1.53191 10.7775
197 1 -1.1104 3.8006 -0.181446 12.1063
198 1 -1.1104 3.92662 -0.0914266 9.27965
196 2 2.2208 2.46661 4.07645 10.8342
187 2 2.2208 5.12818 4.18402 8.07936
179 1 -1.1104 6.65937 2.72397 12.1758
9699 2 2.2208 13.7183 12.6482 13.5203
185 1 -1.1104 6.65771 -0.176118 12.0857
178 1 -1.1104 6.73184 -3.04196 12.2458
9413 2 2.2208 13.5927 9.76269 5.35779
290 1 -1.1104 6.64356 13.9484 9.27277
297 1 -1.1104 6.64785 13.9738 12.1775
208 1 -1.1104 9.62078 -2.70056 6.54914
189 1 -1.1104 6.62266 0.00230317 9.36113
183 1 -1.1104 6.57863 2.74886 9.38057
316 2 2.2208 8.01559 21.1165 10.8382
182 1 -1.1104 6.59001 -2.86565 9.48277
211 2 2.2208 10.7812 1.39015 10.811
212 1 -1.1104 12.3868 -2.96086 12.1688
213 1 -1.1104 12.2143 2.67968 12.1689
214 1 -1.1104 12.2212 -2.82549 9.31762
215 1 -1.1104 12.0998 2.81723 9.32434
216 1 -1.1104 12.2527 0.103786 12.3238
217 2 2.2208 10.8072 -1.41192 7.98916
218 2 2.2208 10.6683 4.19521 7.93374
219 1 -1.1104 12.1614 -0.0906235 9.48535
220 1 -1.1104 9.49027 -2.78733 12.1131
221 1 -1.1104 9.28281 2.77489 12.3977
222 2 2.2208 8.04367 1.40157 8.08776
223 1 -1.1104 9.407 -2.83206 9.23504
224 1 -1.1104 9.33294 2.72799 9.528
225 2 2.2208 8.04818 -1.45613 10.6802
226 2 2.2208 8.00275 4.22554 10.8508
227 1 -1.1104 9.42814 -0.0153854 12.1165
228 1 -1.1104 9.50575 -0.0365789 9.41229
52 2 2.2208 10.8474 -4.29244 5.22945
418 2 2.2208 10.8194 4.1958 13.5871
416 2 2.2208 8.06721 1.35559 13.6269
317 2 2.2208 8.06861 15.5312 10.7213
315 1 -1.1104 9.47729 16.8936 12.0434
314 1 -1.1104 9.4114 16.8347 9.15788
9600 2 2.2208 13.6515 9.79033 10.8168
327 2 2.2208 2.53466 12.5236 13.5182
313 1 -1.1104 9.56118 13.903 12.331
240 2 2.2208 5.14072 6.93437 10.8069
241 2 2.2208 5.24848 12.4831 10.6872
242 1 -1.1104 0.92151 8.25988 12.1225
244 1 -1.1104 1.00472 8.35742 9.3742
246 1 -1.1104 1.1134 5.47497 12.1399
247 1 -1.1104 1.09669 11.0431 12.2432
250 2 2.2208 5.23092 9.63905 7.94384
251 1 -1.1104 1.08814 5.60115 9.32682
252 1 -1.1104 0.960223 11.1215 9.44498
255 1 -1.1104 3.81963 8.32057 12.266
256 2 2.2208 2.45357 7.12781 7.9169
257 2 2.2208 2.34351 12.5493 7.98528
258 1 -1.1104 3.83035 8.27242 9.33442
259 2 2.2208 2.30394 9.79331 10.7549
260 1 -1.1104 3.86899 5.42711 11.9505
261 1 -1.1104 3.9122 10.9521 11.9775
262 1 -1.1104 3.91458 5.65159 9.3779
263 1 -1.1104 3.71013 10.9492 9.28627
245 1 -1.1104 6.72548 8.22835 9.46949
248 1 -1.1104 6.65184 5.60099 12.2381
243 1 -1.1104 6.63394 8.40226 12.2599
253 1 -1.1104 6.65643 5.5255 9.54634
9482 2 2.2208 13.6944 15.4052 5.07113
254 1 -1.1104 6.52356 11.007 9.34099
312 1 -1.1104 12.2451 16.7717 9.35811
90 1 -1.1104 12.232 11.2074 6.83855
249 1 -1.1104 6.75942 11.2292 12.1814
321 1 -1.1104 9.33459 19.6793 12.1798
328 2 2.2208 10.871 9.79562 13.8195
264 1 -1.1104 9.3878 11.3098 9.2769
268 1 -1.1104 9.4826 5.56928 9.43991
270 1 -1.1104 9.42986 11.1341 12.3344
271 1 -1.1104 9.39338 5.60884 12.216
272 2 2.2208 8.00773 9.68399 10.7846
273 1 -1.1104 9.43491 8.41237 9.37444
274 2 2.2208 8.04197 12.5666 7.97268
275 2 2.2208 8.01155 6.96321 8.07901
276 2 2.2208 10.7639 6.94518 10.8687
277 2 2.2208 10.8351 12.5819 10.7623
278 1 -1.1104 12.1757 8.33241 12.2809
279 1 -1.1104 12.3444 8.47813 9.51723
280 1 -1.1104 12.1599 5.56864 12.1376
281 1 -1.1104 12.4244 11.1625 12.2362
282 2 2.2208 10.775 9.83406 8.0311
283 1 -1.1104 12.3354 5.63691 9.43281
284 1 -1.1104 12.1738 11.224 9.52336
285 1 -1.1104 9.35497 8.46283 12.1291
329 2 2.2208 8.1269 12.5884 13.5309
229 2 2.2208 10.9115 15.3992 8.00528
311 2 2.2208 10.8552 20.9893 8.11273
9685 2 2.2208 13.6861 18.229 7.98345
330 2 2.2208 2.32954 18.2116 13.5595
105 1 -1.1104 12.1314 14.0629 9.54344
288 1 -1.1104 6.50436 19.5703 9.53916
9688 2 2.2208 13.7446 7.07557 2.46824
296 1 -1.1104 6.44159 19.5015 12.4001
310 2 2.2208 2.27125 15.3922 10.7972
286 1 -1.1104 3.65139 19.5359 12.2427
287 1 -1.1104 3.85701 13.9241 12.1234
291 1 -1.1104 0.982408 19.4805 9.53245
292 1 -1.1104 1.06549 16.8204 9.28272
293 2 2.2208 5.15612 21.0014 7.96897
294 1 -1.1104 1.04646 14.0517 9.20649
295 2 2.2208 5.23127 15.49 7.98503
298 1 -1.1104 0.999654 19.4324 12.1993
299 1 -1.1104 0.930253 13.8623 12.0717
300 2 2.2208 5.03157 18.1326 10.8941
301 1 -1.1104 3.76821 19.51 9.31735
303 2 2.2208 2.4008 18.0721 7.94383
304 1 -1.1104 3.93191 16.814 9.29131
305 1 -1.1104 3.92548 13.9654 9.38672
307 1 -1.1104 0.960783 16.6818 12.1499
308 1 -1.1104 3.71585 16.6687 12.1369
309 2 2.2208 2.36834 20.9446 10.696
289 1 -1.1104 6.71625 16.862 9.25163
332 2 2.2208 5.24258 15.3007 13.5156
334 2 2.2208 10.8105 15.4334 13.5178
306 1 -1.1104 6.63176 16.8275 12.1911
336 2 2.2208 8.00165 18.2274 13.548
82 2 2.2208 10.9055 18.1368 10.79
104 1 -1.1104 12.1703 19.5745 12.0816
135 1 -1.1104 12.2349 19.5976 9.37471
201 2 2.2208 -0.413118 1.35645 10.7627
9691 2 2.2208 13.5855 1.34398 8.02459
9711 2 2.2208 13.5883 18.2977 13.6291
9596 2 2.2208 13.6706 12.7182 8.07683
326 2 2.2208 5.27992 9.76221 13.5705
9683 2 2.2208 -0.308276 9.85088 2.26686
81 2 2.2208 -0.377642 6.98081 5.06789
604 2 2.2208 10.7629 -4.2184 -0.342292
607 2 2.2208 13.7022 -1.38436 -0.382883
9613 2 2.2208 -0.341307 9.81105 7.94771
9697 2 2.2208 13.6947 7.0544 13.529
230 2 2.2208 13.4922 -1.34066 10.8564
9703 2 2.2208 -0.432466 9.56821 13.6106
136 2 2.2208 -0.540426 21.0573 2.27826
200 2 2.2208 -0.355004 -1.39456 7.87546
199 2 2.2208 -0.294671 4.15191 7.91616
9461 2 2.2208 13.5227 20.8936 5.15007
9595 2 2.2208 13.6772 7.03646 8.13829
381 2 2.2208 -0.472576 -1.42568 13.5509
25 2 2.2208 -0.332947 -1.50664 2.39251
9687 2 2.2208 13.5262 12.4303 2.37986
9690 2 2.2208 13.5189 18.0607 2.34353
331 2 2.2208 5.15776 20.9632 13.6252
322 2 2.2208 2.49707 -4.36655 13.6391
333 2 2.2208 10.7183 21.141 13.5202
571 2 2.2208 2.43133 -1.36485 -0.390162
383 2 2.2208 5.36377 -1.52125 13.3507
385 2 2.2208 5.27177 4.03811 13.5706
342 2 2.2208 8.08608 4.14842 -0.46955
343 2 2.2208 5.29788 1.26843 16.4158
344 1 -1.1104 1.29628 -2.87782 17.9818
345 1 -1.1104 0.967843 2.75897 17.7725
348 1 -1.1104 1.19815 -2.99219 15.1962
350 1 -1.1104 0.857741 2.63991 14.9568
356 1 -1.1104 1.04801 -0.0342184 17.6434
358 2 2.2208 5.31082 -1.38615 19.1755
360 1 -1.1104 1.17675 -0.13448 14.86
364 1 -1.1104 4.1098 -2.84149 17.7046
365 1 -1.1104 3.77096 2.86992 17.7677
366 2 2.2208 2.49492 1.32214 19.1484
367 1 -1.1104 4.10616 -2.9621 14.8286
369 1 -1.1104 3.87051 2.68347 14.8947
371 2 2.2208 2.60186 -1.47855 16.3868
373 1 -1.1104 3.80994 -0.041089 17.7955
374 1 -1.1104 4.11735 -0.158235 14.9409
372 2 2.2208 2.44195 4.09652 16.3985
359 2 2.2208 5.25371 4.25312 19.2193
362 1 -1.1104 6.77338 -0.171511 14.8664
355 1 -1.1104 6.66521 3.00112 20.5619
361 1 -1.1104 1.32097 0.0757213 20.6557
354 1 -1.1104 6.6637 2.80711 14.9382
346 1 -1.1104 6.89752 -2.71398 17.9251
351 1 -1.1104 1.18171 2.84553 20.7263
368 1 -1.1104 3.84729 -2.69416 20.5726
349 1 -1.1104 1.03273 -2.80222 20.7431
370 1 -1.1104 3.89148 2.9892 20.5682
352 1 -1.1104 6.76464 -2.94714 15.1173
347 1 -1.1104 6.71408 2.74688 17.7617
357 1 -1.1104 6.63163 0.122796 17.8812
9889 2 2.2208 13.6676 15.4404 16.361
516 2 2.2208 8.07233 18.2175 24.8252
353 1 -1.1104 6.74939 -2.88735 20.8138
386 2 2.2208 10.8306 1.5848 16.4396
387 1 -1.1104 12.2531 -2.88659 17.8416
388 1 -1.1104 12.2951 2.80267 17.912
389 1 -1.1104 12.211 -2.9166 14.8871
391 1 -1.1104 12.2822 2.76093 14.9721
393 1 -1.1104 12.3261 -0.115872 17.9129
394 2 2.2208 10.8838 -1.38885 19.2215
395 2 2.2208 10.929 4.26371 19.2027
396 1 -1.1104 12.2323 -0.0352168 15.2608
398 1 -1.1104 9.50799 -2.80117 17.8133
399 1 -1.1104 9.50411 3.00768 17.901
400 2 2.2208 8.03809 1.3808 19.2438
401 1 -1.1104 9.57709 -2.80988 14.9086
403 1 -1.1104 9.39212 2.7642 14.9264
405 2 2.2208 8.19366 -1.36166 16.4174
407 1 -1.1104 9.47575 0.126101 17.9248
408 1 -1.1104 9.60709 0.0278666 15.0452
406 2 2.2208 7.96457 4.1852 16.4948
402 1 -1.1104 9.52254 -2.75693 20.6255
390 1 -1.1104 12.3226 -2.8044 20.7262
392 1 -1.1104 12.2401 2.87867 20.7395
667 1 -1.1104 6.47672 14.1123 26.3005
363 1 -1.1104 6.70058 0.172209 20.5991
409 1 -1.1104 9.40439 0.0826567 20.8997
404 1 -1.1104 9.52021 2.70071 20.7567
419 2 2.2208 5.21627 6.93019 16.241
420 2 2.2208 5.32562 12.5112 16.3441
421 1 -1.1104 0.954493 8.3614 17.774
423 1 -1.1104 1.07724 8.26607 14.9318
427 1 -1.1104 1.23333 5.55064 17.7564
428 1 -1.1104 1.10172 11.1779 17.7882
431 2 2.2208 5.22577 9.80103 19.1213
432 1 -1.1104 1.12482 5.37594 14.9972
434 1 -1.1104 0.937174 10.9737 14.9852
440 1 -1.1104 3.81174 8.34514 17.7405
441 2 2.2208 2.56412 6.96215 19.0841
442 2 2.2208 2.51971 12.6141 19.1403
443 1 -1.1104 3.70136 8.33352 14.9488
445 2 2.2208 2.43979 9.8197 16.3179
446 1 -1.1104 3.85636 5.55048 17.675
447 1 -1.1104 4.07444 11.2838 17.7632
448 1 -1.1104 3.91358 5.40133 14.8547
450 1 -1.1104 3.91637 11.0312 14.8291
438 1 -1.1104 6.7921 11.0736 15.0324
429 1 -1.1104 6.70381 5.56646 17.8147
422 1 -1.1104 6.63574 8.35068 17.7769
424 1 -1.1104 1.073 8.51212 20.5545
449 1 -1.1104 3.94765 5.62173 20.4376
426 1 -1.1104 6.65105 8.53159 20.5274
425 1 -1.1104 6.63047 8.37019 14.9648
439 1 -1.1104 6.69985 11.3255 20.7499
437 1 -1.1104 6.7195 5.77243 20.6681
433 1 -1.1104 1.26081 5.62904 20.5369
451 1 -1.1104 3.8674 11.2689 20.5238
435 1 -1.1104 1.07929 11.2074 20.6128
669 1 -1.1104 6.61947 16.8856 26.3829
436 1 -1.1104 6.75556 5.543 15.0418
430 1 -1.1104 6.80963 11.1327 17.7784
455 2 2.2208 10.79 6.99328 16.4852
456 2 2.2208 10.8785 12.6306 16.38
457 1 -1.1104 12.1892 8.47637 17.6717
458 1 -1.1104 12.1376 8.34892 14.9862
460 1 -1.1104 12.2503 5.49765 17.6897
461 1 -1.1104 12.2262 11.2162 17.8071
462 2 2.2208 10.7292 9.87799 19.2597
463 1 -1.1104 12.3021 5.66848 14.9246
465 1 -1.1104 12.3099 11.2013 15.0015
467 1 -1.1104 9.48752 8.43959 17.8664
468 2 2.2208 8.14909 7.05598 19.1074
469 2 2.2208 8.06598 12.7982 19.2003
470 1 -1.1104 9.32963 8.38781 15.0689
472 2 2.2208 8.11048 9.87679 16.4642
473 1 -1.1104 9.45253 5.56709 17.7717
474 1 -1.1104 9.47255 11.3856 17.7953
475 1 -1.1104 9.5433 5.56277 14.9497
477 1 -1.1104 9.55288 11.302 15.0863
471 1 -1.1104 9.36311 8.55037 20.6487
478 1 -1.1104 9.50861 11.3742 20.4392
476 1 -1.1104 9.51777 5.65636 20.6324
466 1 -1.1104 12.2767 11.1074 20.6438
459 1 -1.1104 12.2059 8.33968 20.5268
464 1 -1.1104 12.2727 5.65728 20.5176
10011 2 2.2208 13.7365 9.60884 21.9583
482 2 2.2208 5.27175 18.2861 16.3251
483 1 -1.1104 0.96595 13.8874 17.7726
484 1 -1.1104 0.972759 19.6104 17.8223
487 1 -1.1104 1.05986 13.8737 14.8839
489 1 -1.1104 1.05273 19.6802 15.1518
495 1 -1.1104 1.07164 16.8341 17.7458
497 2 2.2208 5.2259 15.4502 19.1663
498 2 2.2208 5.13313 20.9262 19.2217
499 1 -1.1104 0.870458 16.7133 14.9204
503 1 -1.1104 3.85366 13.9674 17.916
504 1 -1.1104 3.78654 19.5642 17.7754
505 2 2.2208 2.50705 18.0852 19.1708
506 1 -1.1104 3.86289 13.9023 15.04
508 1 -1.1104 3.90595 19.5518 14.9895
510 2 2.2208 2.55341 15.4236 16.4649
511 2 2.2208 2.49957 20.8914 16.3392
512 1 -1.1104 3.85812 16.8663 17.7216
513 1 -1.1104 3.82758 16.8832 14.8382
485 1 -1.1104 6.43052 14.0856 17.7849
501 1 -1.1104 6.64832 16.886 15.1871
490 1 -1.1104 0.867573 19.6484 20.4474
500 1 -1.1104 0.8055 16.7878 20.5422
507 1 -1.1104 3.85698 13.994 20.6434
492 1 -1.1104 6.62172 14.0686 20.6532
502 1 -1.1104 6.54882 16.8398 20.6897
488 1 -1.1104 0.998135 14.0216 20.4606
514 1 -1.1104 3.81321 16.7677 20.5388
509 1 -1.1104 3.7505 19.493 20.6812
494 1 -1.1104 6.43013 19.6123 20.6135
639 1 -1.1104 12.2356 16.8205 23.3299
413 2 2.2208 -0.205337 4.20039 19.2596
496 1 -1.1104 6.51897 16.993 17.9416
491 1 -1.1104 6.76316 13.9735 14.9308
493 1 -1.1104 6.54629 19.8545 14.9451
486 1 -1.1104 6.53791 19.6681 17.6753
536 1 -1.1104 9.3727 19.6703 20.7352
518 2 2.2208 10.8197 18.1794 16.3076
519 1 -1.1104 12.2184 14.0313 17.8047
520 1 -1.1104 12.2401 19.474 17.6933
521 1 -1.1104 12.1434 14.0968 15.0105
523 1 -1.1104 12.3204 19.6875 14.981
525 1 -1.1104 12.1401 16.6107 17.8899
526 2 2.2208 10.7666 15.4756 19.1649
527 2 2.2208 10.9087 20.9 19.0813
528 1 -1.1104 12.2276 16.9566 14.9058
530 1 -1.1104 9.29667 14.163 17.8252
531 1 -1.1104 9.32181 19.5576 17.8497
532 2 2.2208 7.91764 18.243 19.2132
533 1 -1.1104 9.51891 14.1585 15.0867
535 1 -1.1104 9.48018 19.6775 14.9704
537 2 2.2208 8.02033 15.4675 16.3818
538 2 2.2208 7.94721 21.1314 16.4581
539 1 -1.1104 9.29663 16.8803 17.6778
540 1 -1.1104 9.41036 16.8476 14.8942
665 1 -1.1104 9.35352 19.6767 23.3338
529 1 -1.1104 12.2894 16.719 20.5205
534 1 -1.1104 9.47688 14.2077 20.6622
541 1 -1.1104 9.42338 16.9594 20.5151
522 1 -1.1104 12.2587 14.0066 20.6203
524 1 -1.1104 12.2661 19.5251 20.6293
410 2 2.2208 8.01221 15.6049 27.6099
375 1 -1.1104 4.06553 0.103291 20.5859
9896 2 2.2208 13.713 -1.44426 16.4847
411 2 2.2208 10.9449 -4.19962 16.4124
546 2 2.2208 5.37996 1.47959 21.995
547 1 -1.1104 0.957244 -2.8163 23.514
548 1 -1.1104 1.07584 2.8365 23.3449
551 1 -1.1104 1.22116 -2.78099 26.1622
552 1 -1.1104 1.11785 2.78909 26.2094
555 1 -1.1104 1.16636 0.0269157 23.6076
557 2 2.2208 5.30252 -1.44998 24.9321
559 1 -1.1104 1.17707 0.0408242 26.3079
561 1 -1.1104 3.80976 -2.8839 23.3825
562 1 -1.1104 3.96345 2.88503 23.435
563 2 2.2208 2.60076 1.4949 24.8172
564 1 -1.1104 3.85396 -2.70138 26.1934
565 1 -1.1104 3.95067 2.91534 26.2996
566 2 2.2208 2.52814 -1.39132 22.0586
567 2 2.2208 2.60281 4.32493 21.9086
568 1 -1.1104 3.90775 -0.0768831 23.4581
569 1 -1.1104 3.81479 0.124727 26.2249
558 2 2.2208 5.3839 4.35498 24.8201
560 1 -1.1104 6.78516 -0.0730231 26.3371
549 1 -1.1104 6.78812 -2.9005 23.483
339 2 2.2208 2.41459 4.21885 27.5467
550 1 -1.1104 6.73117 2.95524 23.3957
338 2 2.2208 5.23241 1.42299 27.7508
481 1 -1.1104 9.31134 14.1184 26.1395
453 1 -1.1104 9.45143 16.8931 23.3257
636 2 2.2208 2.51352 9.73584 27.5665
397 1 -1.1104 12.2291 0.00609271 20.7264
554 1 -1.1104 6.68163 2.8277 26.1795
556 1 -1.1104 6.68636 0.0439406 23.5
553 1 -1.1104 6.6967 -2.80605 26.3722
9931 2 2.2208 -0.589776 15.3912 19.1986
582 2 2.2208 10.9137 1.42561 22.2195
583 1 -1.1104 12.2664 -2.99953 23.5689
584 1 -1.1104 12.3902 2.75052 23.5799
585 1 -1.1104 12.2579 -2.86356 26.2849
586 1 -1.1104 12.5195 2.73715 26.3176
587 1 -1.1104 12.375 -0.149174 23.6368
588 2 2.2208 10.8811 -1.34569 24.9086
589 2 2.2208 10.941 4.12981 24.8998
590 1 -1.1104 12.1859 -0.0813206 26.2324
591 1 -1.1104 9.5112 -2.75056 23.4684
592 1 -1.1104 9.51584 2.85793 23.6294
593 2 2.2208 8.03719 1.40476 24.9566
594 1 -1.1104 9.59693 -2.64423 26.2466
595 1 -1.1104 9.57535 2.71176 26.2417
596 2 2.2208 8.06101 -1.51334 22.1769
597 2 2.2208 8.08639 4.38128 22.1022
598 1 -1.1104 9.53887 0.20239 23.6241
599 1 -1.1104 9.44263 0.0436593 26.2613
9822 2 2.2208 -0.29401 15.5283 24.7374
581 2 2.2208 -0.202968 4.15237 24.7434
9957 2 2.2208 13.498 18.2013 24.755
341 2 2.2208 10.9285 1.39196 27.595
444 1 -1.1104 3.88686 8.36797 20.6121
611 2 2.2208 5.33835 7.20243 22.046
612 2 2.2208 5.32284 12.7066 22.0087
613 1 -1.1104 1.02207 8.38592 23.3756
615 1 -1.1104 1.13277 8.38678 26.2193
617 1 -1.1104 1.05388 5.70607 23.204
618 1 -1.1104 1.03703 11.2291 23.2958
621 2 2.2208 5.363 9.92944 24.8586
622 1 -1.1104 1.06018 5.68359 26.1515
623 1 -1.1104 0.950497 11.1219 26.1656
626 1 -1.1104 3.86385 8.47817 23.4731
627 2 2.2208 2.55303 7.09761 24.7891
628 2 2.2208 2.44957 12.521 24.7288
629 1 -1.1104 3.99439 8.49966 26.3186
630 2 2.2208 2.57877 9.7827 21.9136
631 1 -1.1104 3.86568 5.67293 23.3984
632 1 -1.1104 3.9829 11.2209 23.2715
633 1 -1.1104 3.82673 5.63322 26.222
634 1 -1.1104 3.77444 11.1782 26.0567
637 2 2.2208 5.245 12.6203 27.5397
635 2 2.2208 5.49428 7.05655 27.6215
614 1 -1.1104 6.57339 8.54668 23.4419
619 1 -1.1104 6.74452 5.73037 23.5261
9933 2 2.2208 13.737 20.9898 22.0139
616 1 -1.1104 6.78302 8.54233 26.1254
454 1 -1.1104 9.40368 16.8887 26.1683
609 1 -1.1104 12.1539 19.6429 23.4074
624 1 -1.1104 6.6944 5.65077 26.2559
620 1 -1.1104 6.65256 11.3666 23.4558
9864 2 2.2208 -0.326843 12.6621 21.954
625 1 -1.1104 6.65814 11.266 26.3086
642 1 -1.1104 9.40974 11.2844 26.0462
643 1 -1.1104 9.45599 5.51448 26.2272
644 1 -1.1104 9.45177 11.2879 23.3054
645 1 -1.1104 9.44793 5.73394 23.4402
646 2 2.2208 8.01593 9.95363 22.1392
647 1 -1.1104 9.62755 8.49305 26.2143
648 2 2.2208 8.14078 12.7066 24.7791
649 2 2.2208 8.18483 7.0858 24.8805
650 2 2.2208 10.76 7.01013 21.9613
651 2 2.2208 10.9451 12.6096 21.957
652 1 -1.1104 12.2292 8.63903 23.2424
653 1 -1.1104 12.3442 8.27799 26.2532
654 1 -1.1104 12.2456 5.68825 23.4841
655 1 -1.1104 12.2778 11.2765 23.3787
656 2 2.2208 10.8749 9.91416 24.6991
657 1 -1.1104 12.3533 5.48913 26.3027
658 1 -1.1104 12.1975 11.212 26.3152
659 1 -1.1104 9.53953 8.4439 23.4257
663 1 -1.1104 12.2191 16.8349 26.1964
660 2 2.2208 10.9366 6.98501 27.7361
662 2 2.2208 10.7639 12.6892 27.6553
676 1 -1.1104 6.64936 14.119 23.5077
661 2 2.2208 8.04182 9.85406 27.6895
9861 2 2.2208 -0.25919 6.8186 16.4789
517 2 2.2208 2.34042 15.4072 27.6021
673 1 -1.1104 6.58799 19.7333 23.4715
335 2 2.2208 2.35547 21.0304 27.5765
543 2 2.2208 2.56057 15.3423 22.0205
544 2 2.2208 2.26252 20.9835 21.885
545 1 -1.1104 3.89579 17.0302 23.444
570 1 -1.1104 1.0215 16.8061 23.3297
578 1 -1.1104 3.81283 13.9678 26.1144
600 1 -1.1104 3.67751 16.7807 26.1958
602 2 2.2208 2.3886 18.3723 24.7877
666 1 -1.1104 3.79045 19.7674 23.4216
668 1 -1.1104 3.77219 14.0564 23.4598
670 1 -1.1104 0.925366 19.736 26.1555
671 1 -1.1104 0.984807 16.9505 26.3074
672 1 -1.1104 1.01197 14.0012 26.193
674 2 2.2208 5.24693 21.197 24.7544
675 2 2.2208 5.21286 15.5203 24.8449
677 1 -1.1104 1.01285 19.5213 23.2649
678 1 -1.1104 1.06208 14.0565 23.3719
679 2 2.2208 5.24 18.2563 22.1765
680 1 -1.1104 3.65457 19.6181 26.1192
572 1 -1.1104 6.63923 16.9166 23.4686
515 1 -1.1104 6.3734 19.6087 26.2378
480 1 -1.1104 9.37856 19.6187 26.2063
324 2 2.2208 10.8485 18.3041 27.4864
414 2 2.2208 8.05334 15.5603 22.0254
415 2 2.2208 7.98682 20.9877 22.0352
603 2 2.2208 10.9054 18.157 21.8927
610 1 -1.1104 11.9132 14.0131 26.2405
640 2 2.2208 10.7532 15.471 24.7607
664 1 -1.1104 9.44686 13.9259 23.3809
608 1 -1.1104 12.3549 14.0043 23.4627
638 1 -1.1104 12.2552 19.6663 26.1383
337 2 2.2208 8.02887 20.9008 27.5729
9892 2 2.2208 13.5863 21.0666 16.4988
641 2 2.2208 10.8652 21.0101 24.7374
9745 2 2.2208 13.665 4.24805 16.2907
9863 2 2.2208 -0.342347 7.13088 27.4928
542 2 2.2208 5.05403 18.324 27.652
579 2 2.2208 -0.257593 -1.39324 24.8488
576 2 2.2208 5.23491 -4.23186 22.0614
10039 2 2.2208 -0.276099 6.99504 21.8725
605 2 2.2208 10.8574 -4.26516 22.0964
9895 2 2.2208 13.6167 -4.40383 25.0011
340 2 2.2208 -0.38577 1.33275 27.5984
9821 2 2.2208 13.6239 12.6926 19.1511
9820 2 2.2208 13.5777 6.94901 19.1059
9826 2 2.2208 -0.43061 12.5243 16.3752
9862 2 2.2208 13.4931 12.5543 24.7852
580 2 2.2208 -0.246558 1.27122 22.0134
601 2 2.2208 8.06503 -1.40463 27.721
479 2 2.2208 8.00044 7.06666 13.5314
323 2 2.2208 8.12403 -4.27624 13.6747
417 2 2.2208 10.831 -1.39922 13.4987
9824 2 2.2208 13.6198 9.7086 27.6717
9934 2 2.2208 13.5965 15.3821 27.651
681 2 2.2208 5.28203 23.795 5.22757
682 2 2.2208 5.13813 29.4278 5.19876
683 1 -1.1104 0.961621 25.3437 1.02221
684 1 -1.1104 1.10764 25.0781 3.85663
685 1 -1.1104 0.868481 22.5976 1.1532
686 1 -1.1104 0.796826 27.9969 0.977075
687 2 2.2208 5.26681 26.7041 2.35497
688 1 -1.1104 0.946892 22.3353 3.66506
689 1 -1.1104 1.10259 27.8444 3.78027
690 1 -1.1104 3.89664 25.3059 0.973315
691 2 2.2208 2.38854 23.7568 2.35808
692 2 2.2208 2.18629 29.3563 2.47335
693 1 -1.1104 3.87887 25.2149 3.7982
694 2 2.2208 2.55304 26.5733 5.26302
695 1 -1.1104 3.64768 22.4632 0.90812
696 1 -1.1104 3.77931 28.0337 1.11458
697 1 -1.1104 3.824 22.2471 3.82775
698 1 -1.1104 3.8691 27.9762 3.7782
703 1 -1.1104 6.74184 25.2274 3.69093
705 1 -1.1104 6.72408 28.0251 1.09684
704 1 -1.1104 6.55199 22.5318 1.04415
829 1 -1.1104 3.85418 22.4331 6.60729
824 1 -1.1104 0.903524 22.3182 6.44227
707 1 -1.1104 6.64208 28.1081 3.93665
826 1 -1.1104 6.55331 22.4346 6.69669
823 1 -1.1104 6.60288 25.2287 6.64941
702 1 -1.1104 6.56783 25.3439 0.989856
827 1 -1.1104 6.58289 28.0964 6.74623
830 1 -1.1104 4.06681 27.8242 6.56875
828 1 -1.1104 3.8088 25.0814 6.74386
706 1 -1.1104 6.56454 22.3888 3.71786
825 1 -1.1104 1.1316 28.0158 6.59513
1024 2 2.2208 7.91573 43.4298 -0.452154
708 2 2.2208 10.762 23.745 5.08786
709 2 2.2208 10.6811 29.3486 5.23719
710 1 -1.1104 12.2445 25.1113 0.884431
711 1 -1.1104 12.2325 25.0685 3.79111
712 1 -1.1104 12.0799 22.2733 0.923558
713 1 -1.1104 12.342 28.0442 1.02
714 2 2.2208 10.834 26.5406 2.33774
715 1 -1.1104 12.1597 22.3947 3.71199
716 1 -1.1104 12.1263 27.8429 3.89845
717 1 -1.1104 9.42473 25.2043 0.953492
718 2 2.2208 8.06176 23.7975 2.34411
719 2 2.2208 7.96913 29.4862 2.38202
720 1 -1.1104 9.4404 25.1566 3.72002
721 2 2.2208 7.93458 26.6049 5.18493
722 1 -1.1104 9.30724 22.272 0.957047
723 1 -1.1104 9.40335 28.027 1.03302
724 1 -1.1104 9.35217 22.3922 3.74604
725 1 -1.1104 9.39833 27.9018 3.79451
856 1 -1.1104 12.023 22.4245 6.63339
1378 1 -1.1104 3.76776 47.6723 3.92139
860 1 -1.1104 9.41767 27.9307 6.79605
858 1 -1.1104 9.4489 25.1841 6.56828
855 1 -1.1104 12.2369 25.2232 6.61502
859 1 -1.1104 9.33258 22.2919 6.59931
857 1 -1.1104 12.2119 28.0325 6.62715
10399 2 2.2208 13.5581 26.5759 5.26576
1589 1 -1.1104 12.1233 47.4953 12.2588
729 2 2.2208 5.11385 35.0529 5.17947
730 1 -1.1104 1.02489 30.7892 1.10064
731 1 -1.1104 0.87335 36.4038 1.06855
733 1 -1.1104 0.849275 30.8268 3.93356
734 1 -1.1104 1.08201 36.3704 3.73474
736 1 -1.1104 0.9641 33.569 1.087
737 2 2.2208 5.06228 32.2702 2.37132
738 2 2.2208 5.16453 37.8206 2.4575
739 1 -1.1104 0.872155 33.5998 3.80372
741 1 -1.1104 3.87707 30.7866 0.997493
742 1 -1.1104 3.81174 36.4134 1.15746
743 2 2.2208 2.4852 35.0064 2.41746
744 1 -1.1104 3.59215 30.8338 3.74995
745 1 -1.1104 3.71685 36.4263 3.78157
746 2 2.2208 2.31086 32.1915 5.10481
747 2 2.2208 2.34303 37.8326 5.23296
748 1 -1.1104 3.78952 33.5653 1.00467
749 1 -1.1104 3.68305 33.6338 3.96853
753 1 -1.1104 6.49709 30.7792 1.14916
732 1 -1.1104 6.5799 36.3487 0.975725
885 1 -1.1104 3.76963 30.5968 6.54445
886 1 -1.1104 3.78275 36.5172 6.59627
883 1 -1.1104 0.884275 33.5662 6.65102
881 1 -1.1104 6.59935 30.8451 6.62159
740 1 -1.1104 6.4977 33.7287 3.64661
754 1 -1.1104 6.47992 30.8642 3.82587
735 1 -1.1104 6.49859 36.4368 3.84943
882 1 -1.1104 6.58067 36.4134 6.75386
887 1 -1.1104 3.76963 33.5454 6.60591
879 1 -1.1104 0.93286 30.7992 6.63998
880 1 -1.1104 0.993384 36.3474 6.68588
755 1 -1.1104 6.54174 33.4883 0.899037
884 1 -1.1104 6.50413 33.6526 6.59995
756 2 2.2208 10.7515 34.935 5.0665
757 1 -1.1104 12.1745 30.7165 0.922819
758 1 -1.1104 12.1175 36.2656 1.12919