ITEM: TIMESTEP
10000
ITEM: NUMBER OF ATOMS
17820
ITEM: BOX BOUNDS pp pp pp
-3.6380867717680471e-01 2.7703808677176664e+01
-4.2291675178718720e+00 3.3230916751786845e+02
-3.5651249578935107e-01 2.7696512495789420e+01
ITEM: ATOMS id type q x y z
1 2 2.2208 5.42443 1.34835 5.26431
2 1 -1.1104 1.12893 -2.71202 0.962429
3 1 -1.1104 1.03543 2.83305 0.908953
6 1 -1.1104 1.18783 -2.79185 3.63952
7 1 -1.1104 1.20212 3.00221 3.72496
10 1 -1.1104 1.12955 0.163961 0.95128
12 2 2.2208 5.33308 -1.30758 2.43964
13 2 2.2208 5.3512 4.17701 2.41071
14 1 -1.1104 1.14744 0.157769 3.73334
16 1 -1.1104 3.97292 -2.6509 0.865749
17 1 -1.1104 4.04749 2.97889 1.05001
18 2 2.2208 2.47702 1.59648 2.30993
19 1 -1.1104 3.93403 -2.80537 3.73385
20 1 -1.1104 3.90632 2.73449 4.07261
21 2 2.2208 2.59653 -1.39678 5.22443
22 2 2.2208 2.55041 4.27986 5.27459
23 1 -1.1104 3.9446 0.176154 0.992376
24 1 -1.1104 4.08626 -0.00195138 3.92675
5 1 -1.1104 6.82545 2.92399 0.910763
8 1 -1.1104 6.7344 -2.75459 3.73991
173 1 -1.1104 3.88361 2.8425 6.84155
322 2 2.2208 2.5914 -4.10021 13.6425
635 2 2.2208 5.31331 6.95503 -0.378671
9596 2 2.2208 13.6694 12.5535 8.04155
542 2 2.2208 5.26962 18.3077 -0.305468
166 1 -1.1104 1.18873 -2.8015 6.55525
203 2 2.2208 5.28577 -4.18243 10.8144
204 2 2.2208 -0.220962 -4.17064 10.8788
136 2 2.2208 -0.201194 20.9862 2.50543
104 1 -1.1104 12.4233 19.5218 12.297
29 2 2.2208 5.37946 -4.10846 5.14309
28 2 2.2208 2.5535 -4.10473 2.25446
4 1 -1.1104 6.66656 -2.49296 0.910502
15 1 -1.1104 6.78495 -0.0204966 3.7926
9 1 -1.1104 6.86028 2.92415 3.89245
11 1 -1.1104 6.71995 0.348551 0.94972
312 1 -1.1104 12.3562 16.789 9.54786
31 2 2.2208 11.0099 1.49158 5.40241
32 1 -1.1104 12.4481 -2.67535 1.02513
33 1 -1.1104 12.3565 2.8162 1.16393
34 1 -1.1104 12.4585 -2.79386 3.86481
35 1 -1.1104 12.3409 2.89013 4.02665
36 1 -1.1104 12.2081 0.0749552 1.09217
37 2 2.2208 11.0471 -1.32143 2.48035
38 2 2.2208 10.8637 4.29902 2.54422
39 1 -1.1104 12.4282 0.00683344 3.89712
40 1 -1.1104 9.52415 -2.60303 0.931687
41 1 -1.1104 9.62856 2.7642 1.09582
42 2 2.2208 8.12169 1.51823 2.56341
43 1 -1.1104 9.60804 -2.85217 3.84699
44 1 -1.1104 9.5114 2.79145 4.02256
45 2 2.2208 8.16716 -1.35293 5.1976
46 2 2.2208 8.22565 4.28112 5.38026
47 1 -1.1104 9.58788 0.0614261 1.29363
48 1 -1.1104 9.51503 0.0638921 4.00973
135 1 -1.1104 12.4169 19.7172 9.35384
171 1 -1.1104 7.02591 0.123827 6.62608
169 1 -1.1104 6.76234 2.83723 6.70142
208 1 -1.1104 9.47555 -2.70031 6.53142
210 1 -1.1104 9.67001 0.153606 6.62237
231 2 2.2208 8.08923 -4.1488 8.08815
51 2 2.2208 8.12656 -4.09486 2.31876
289 1 -1.1104 6.82775 16.8929 9.47365
54 2 2.2208 5.30197 6.96489 5.23704
55 2 2.2208 5.19983 12.5675 5.14089
56 1 -1.1104 1.0716 8.46262 1.07262
58 1 -1.1104 1.15851 8.50442 3.98052
60 1 -1.1104 1.0376 5.68511 1.07629
61 1 -1.1104 1.04642 11.2756 1.01314
66 2 2.2208 5.37179 9.79805 2.43961
67 1 -1.1104 1.03714 5.77229 3.91654
68 1 -1.1104 1.10443 11.1492 3.84155
71 1 -1.1104 3.75408 8.28008 0.906112
72 2 2.2208 2.36771 7.02085 2.51956
73 2 2.2208 2.42352 12.6379 2.3485
74 1 -1.1104 4.10496 8.26556 3.72172
75 2 2.2208 2.52483 9.91979 5.18048
76 1 -1.1104 3.73329 5.66466 1.19532
77 1 -1.1104 3.8253 11.2554 1.11241
79 1 -1.1104 3.94396 5.5781 3.73478
80 1 -1.1104 3.88533 11.038 3.82368
69 1 -1.1104 6.6196 5.64965 3.9277
59 1 -1.1104 6.79189 8.54318 3.8904
63 1 -1.1104 6.51104 5.67725 1.02416
64 1 -1.1104 6.57077 11.1683 1.0908
57 1 -1.1104 6.63876 8.39377 1.09775
70 1 -1.1104 6.73805 11.2615 3.8798
78 1 -1.1104 3.84563 11.2373 6.58732
236 1 -1.1104 1.12139 5.63166 6.60831
84 2 2.2208 10.8347 7.24917 5.22045
85 2 2.2208 10.8372 12.72 5.25653
86 1 -1.1104 12.2599 8.3712 0.983983
87 1 -1.1104 12.2335 8.52931 3.82559
88 1 -1.1104 12.0379 5.71788 1.27332
89 1 -1.1104 12.3329 11.1825 1.09125
91 2 2.2208 10.8804 9.74395 2.30284
92 1 -1.1104 12.2483 5.67873 4.00047
93 1 -1.1104 12.2981 11.1804 3.8449
94 1 -1.1104 9.32793 8.34942 0.939995
95 2 2.2208 8.00238 7.06181 2.51727
96 2 2.2208 7.95318 12.726 2.55755
97 1 -1.1104 9.62306 8.46978 3.72286
98 2 2.2208 8.09433 9.87619 5.24615
99 1 -1.1104 9.38175 5.59364 1.1352
100 1 -1.1104 9.3561 11.2794 0.949793
102 1 -1.1104 9.43644 5.60279 3.81474
103 1 -1.1104 9.51759 11.255 3.69771
265 1 -1.1104 12.1641 8.40421 6.8496
235 1 -1.1104 6.71563 8.56358 6.77431
65 1 -1.1104 6.72809 11.2067 6.54512
101 1 -1.1104 9.36947 11.303 6.72111
328 2 2.2208 10.8473 9.86487 13.6465
306 1 -1.1104 6.67587 16.8086 12.2189
320 2 2.2208 8.17083 18.2566 8.06058
106 2 2.2208 5.3987 18.1649 5.19099
107 1 -1.1104 1.05697 14.1933 1.16603
109 1 -1.1104 1.09538 19.7141 0.984398
113 1 -1.1104 1.04 13.9201 3.94248
114 1 -1.1104 1.04597 19.5449 3.86655
116 1 -1.1104 1.12893 16.8974 1.17365
119 2 2.2208 5.17879 15.4916 2.46712
120 2 2.2208 5.30542 21.1735 2.58061
121 1 -1.1104 1.1783 16.7359 3.85901
123 1 -1.1104 3.80463 14.0995 0.925254
125 1 -1.1104 4.0541 19.7455 1.11765
127 2 2.2208 2.57978 18.3686 2.47287
128 1 -1.1104 3.81079 13.9452 3.79027
129 1 -1.1104 3.95884 19.5645 3.95756
130 2 2.2208 2.42421 15.503 5.24063
131 2 2.2208 2.64 20.9933 5.37923
132 1 -1.1104 3.87223 16.7859 1.05148
134 1 -1.1104 3.8593 16.872 3.8377
124 1 -1.1104 3.85716 14.0414 6.58217
138 1 -1.1104 6.6013 19.7743 0.980994
117 1 -1.1104 1.05194 16.9427 6.75789
139 1 -1.1104 6.67674 19.7286 3.78477
110 1 -1.1104 6.5935 14.1199 1.10988
140 1 -1.1104 6.58443 16.8705 1.16609
118 1 -1.1104 6.75603 16.8316 6.56097
9690 2 2.2208 13.6039 18.2637 2.42619
143 1 -1.1104 12.2933 14.0882 6.84364
25 2 2.2208 -0.271585 -1.22896 2.40548
115 1 -1.1104 6.60433 13.9784 3.90883
122 1 -1.1104 6.7516 16.8543 3.82616
323 2 2.2208 8.17388 -4.123 13.622
156 1 -1.1104 9.44457 19.6523 6.68355
141 2 2.2208 10.9116 18.2775 5.41619
142 1 -1.1104 12.1967 13.9337 0.958693
144 1 -1.1104 12.3416 19.7134 1.04124
146 1 -1.1104 12.2768 14.0115 3.86955
147 1 -1.1104 12.2636 19.582 3.78312
148 1 -1.1104 12.0947 16.7709 1.03363
150 2 2.2208 10.8061 15.4087 2.38995
151 2 2.2208 10.8844 20.937 2.5074
152 1 -1.1104 12.3232 16.6873 3.93412
153 1 -1.1104 9.41481 14.1377 1.01799
155 1 -1.1104 9.46669 19.5413 1.16964
157 2 2.2208 8.08759 18.2445 2.58514
158 1 -1.1104 9.4416 13.9741 3.74008
159 1 -1.1104 9.42613 19.5569 4.06398
160 2 2.2208 8.06024 15.3683 5.31086
161 2 2.2208 8.24533 21.06 5.34989
162 1 -1.1104 9.36551 16.8644 1.00818
164 1 -1.1104 9.44616 16.7707 3.93256
145 1 -1.1104 12.3616 19.5968 6.54815
383 2 2.2208 5.34849 -1.32041 13.6903
111 1 -1.1104 6.59307 14.0962 6.69026
52 2 2.2208 10.9027 -4.21974 5.17952
315 1 -1.1104 9.50861 16.8181 12.2272
170 1 -1.1104 1.06189 -0.0324732 6.59674
172 1 -1.1104 3.95471 -2.85005 6.53526
167 1 -1.1104 1.30243 2.77548 6.53685
174 1 -1.1104 4.11053 0.054527 6.5868
175 2 2.2208 5.39234 1.35386 10.9281
176 1 -1.1104 1.08099 -2.74727 12.2923
177 1 -1.1104 0.976452 2.80181 12.2712
180 1 -1.1104 1.39972 -2.7449 9.51423
181 1 -1.1104 1.14342 2.86405 9.37353
184 1 -1.1104 1.20084 -0.00893126 12.1822
186 2 2.2208 5.34444 -1.29676 7.96228
187 2 2.2208 5.21074 4.26109 8.10248
188 1 -1.1104 1.21132 0.123646 9.4168
190 1 -1.1104 3.97152 -2.73373 12.1458
191 1 -1.1104 3.81987 2.79221 12.3246
192 2 2.2208 2.61906 1.41553 8.01773
193 1 -1.1104 4.01881 -2.80493 9.3277
194 1 -1.1104 3.88835 2.85109 9.64285
195 2 2.2208 2.50288 -1.33611 10.8309
196 2 2.2208 2.55764 4.24213 10.9509
197 1 -1.1104 3.95616 -0.0462354 12.3713
198 1 -1.1104 3.93551 -0.00950329 9.45972
178 1 -1.1104 6.82774 -2.82761 12.1688
189 1 -1.1104 6.85599 -0.0608226 9.3501
185 1 -1.1104 6.69002 -0.0412353 12.2374
182 1 -1.1104 6.69048 -2.72762 9.39607
662 2 2.2208 10.779 12.7153 -0.391111
27 2 2.2208 -0.268637 4.39271 2.43885
26 2 2.2208 -0.130069 1.47068 5.21693
199 2 2.2208 -0.182358 4.23798 8.111
206 1 -1.1104 12.4269 2.69988 6.84757
183 1 -1.1104 6.70576 2.76673 9.51265
179 1 -1.1104 6.6369 2.9032 12.3427
168 1 -1.1104 6.63712 -2.5964 6.59264
207 1 -1.1104 12.4006 -0.0371884 6.62873
205 1 -1.1104 12.2041 -2.86518 6.74639
209 1 -1.1104 9.62096 2.9984 6.81821
211 2 2.2208 11.0401 1.38872 10.9164
212 1 -1.1104 12.4094 -2.81073 12.425
213 1 -1.1104 12.1714 2.8203 12.1505
214 1 -1.1104 12.5395 -2.78535 9.61026
215 1 -1.1104 12.3687 2.9101 9.38752
216 1 -1.1104 12.3677 0.037118 12.38
217 2 2.2208 10.9453 -1.49224 8.00756
218 2 2.2208 10.9631 4.34148 8.13903
219 1 -1.1104 12.3769 -0.185049 9.45862
220 1 -1.1104 9.61198 -2.76277 12.2215
221 1 -1.1104 9.39386 2.72619 12.3368
222 2 2.2208 8.21151 1.44778 8.07179
223 1 -1.1104 9.54658 -2.68241 9.51399
224 1 -1.1104 9.54643 2.87268 9.5227
225 2 2.2208 8.12327 -1.43148 10.8393
226 2 2.2208 8.09866 4.23243 10.939
227 1 -1.1104 9.58127 -0.0639825 12.3147
228 1 -1.1104 9.60593 0.154485 9.59853
83 1 -1.1104 12.2031 13.9385 12.3438
82 2 2.2208 10.9095 18.2227 11.0265
237 1 -1.1104 6.76753 5.62773 6.59102
234 1 -1.1104 1.10565 8.60329 6.72926
62 1 -1.1104 1.17231 11.2271 6.61754
137 2 2.2208 -0.22322 18.2619 5.3505
239 1 -1.1104 3.77214 5.60476 6.6515
238 1 -1.1104 3.99926 8.50674 6.57098
240 2 2.2208 5.26867 7.0405 10.7832
241 2 2.2208 5.19687 12.5984 10.7509
242 1 -1.1104 1.13067 8.42399 12.2239
244 1 -1.1104 1.12958 8.30868 9.49273
246 1 -1.1104 1.14732 5.55695 12.2597
247 1 -1.1104 1.18606 11.1137 12.3369
250 2 2.2208 5.27958 9.90894 7.95271
251 1 -1.1104 1.09201 5.57284 9.53272
252 1 -1.1104 0.965838 11.3152 9.46331
255 1 -1.1104 3.90715 8.42954 12.419
256 2 2.2208 2.39266 7.03342 8.01452
257 2 2.2208 2.4336 12.7397 8.1165
258 1 -1.1104 3.96763 8.38765 9.40353
259 2 2.2208 2.4849 9.85647 10.7862
260 1 -1.1104 3.94871 5.53298 12.2352
261 1 -1.1104 3.83951 11.1602 12.348
262 1 -1.1104 3.80958 5.77283 9.26903
263 1 -1.1104 3.7903 11.2002 9.45263
253 1 -1.1104 6.67106 5.571 9.51807
249 1 -1.1104 6.68038 11.2449 12.298
327 2 2.2208 2.52825 12.5062 13.7288
9461 2 2.2208 13.6581 20.9129 5.25518
232 2 2.2208 10.9138 -4.14962 10.8852
266 1 -1.1104 12.3959 5.56484 6.85957
269 1 -1.1104 9.66999 5.85658 6.69532
254 1 -1.1104 6.63729 11.1099 9.56347
245 1 -1.1104 6.5029 8.45371 9.52279
248 1 -1.1104 6.62609 5.66468 12.1642
243 1 -1.1104 6.78618 8.40248 12.3766
267 1 -1.1104 9.46119 8.61704 6.61403
90 1 -1.1104 12.1204 11.2431 6.58144
264 1 -1.1104 9.34565 11.184 9.62261
268 1 -1.1104 9.39922 5.65728 9.4055
270 1 -1.1104 9.57482 11.1416 12.2956
271 1 -1.1104 9.5528 5.57266 12.2349
272 2 2.2208 8.03393 9.68986 10.8216
273 1 -1.1104 9.4336 8.42768 9.44305
274 2 2.2208 7.99531 12.6555 8.11595
275 2 2.2208 7.99557 7.05685 8.09349
276 2 2.2208 10.8512 7.04624 10.8065
277 2 2.2208 10.8832 12.6807 10.8975
278 1 -1.1104 12.2601 8.49935 12.2844
279 1 -1.1104 12.2454 8.45886 9.64701
280 1 -1.1104 12.4003 5.53539 12.3454
281 1 -1.1104 12.3252 11.2694 12.3506
282 2 2.2208 10.6711 9.95236 8.0665
283 1 -1.1104 12.2745 5.67312 9.57452
284 1 -1.1104 12.2444 11.33 9.42377
285 1 -1.1104 9.47621 8.24828 12.131
149 1 -1.1104 12.2065 16.866 6.66876
30 2 2.2208 -0.166476 -4.08886 5.12204
133 1 -1.1104 3.95751 16.7997 6.51408
126 1 -1.1104 3.96506 19.6162 6.74883
108 1 -1.1104 0.911351 13.9999 6.79062
302 1 -1.1104 1.07907 19.7511 6.65245
112 1 -1.1104 6.75414 19.6168 6.75788
296 1 -1.1104 6.7003 19.6872 12.2681
297 1 -1.1104 6.69603 14.0955 12.1877
288 1 -1.1104 6.75579 19.6679 9.49573
286 1 -1.1104 3.89112 19.669 12.301
287 1 -1.1104 3.90268 13.9278 12.3547
291 1 -1.1104 1.19 19.5377 9.47369
292 1 -1.1104 0.945618 16.8406 9.50826
293 2 2.2208 5.32889 20.9177 8.06951
294 1 -1.1104 1.02934 14.1647 9.59146
295 2 2.2208 5.23203 15.4799 8.07457
298 1 -1.1104 1.01311 19.6409 12.4378
299 1 -1.1104 1.25402 13.9041 12.3263
300 2 2.2208 5.31562 18.1857 10.9795
301 1 -1.1104 3.81583 19.6069 9.50921
303 2 2.2208 2.42829 18.2627 8.16005
304 1 -1.1104 3.93909 16.85 9.47084
305 1 -1.1104 3.86104 14.098 9.50412
307 1 -1.1104 0.981636 16.8522 12.1128
308 1 -1.1104 3.96003 16.8954 12.2057
309 2 2.2208 2.53405 20.9603 10.864
310 2 2.2208 2.48268 15.477 11.051
202 2 2.2208 2.65921 -4.1644 7.97029
9693 2 2.2208 -0.320654 18.284 10.887
335 2 2.2208 2.49166 21.089 -0.377242
9707 2 2.2208 13.5835 4.27449 -0.319485
318 1 -1.1104 9.61152 19.615 9.46234
311 2 2.2208 10.9539 21.0439 8.05623
105 1 -1.1104 12.3546 14.0233 9.62742
313 1 -1.1104 9.37904 14.0004 12.3173
290 1 -1.1104 6.62046 13.9921 9.4556
163 1 -1.1104 9.38388 16.7917 6.83473
154 1 -1.1104 9.43654 14.0891 6.71359
316 2 2.2208 8.16789 21.0721 10.7878
321 1 -1.1104 9.59365 19.6387 12.2888
319 1 -1.1104 9.57908 14.0062 9.64504
317 2 2.2208 8.06334 15.4691 10.8881
165 1 -1.1104 12.3254 16.8347 12.3828
229 2 2.2208 10.8457 15.426 8.1588
314 1 -1.1104 9.56228 16.8347 9.60318
200 2 2.2208 -0.173039 -1.35893 8.07989
49 2 2.2208 13.7287 1.51355 2.55838
9687 2 2.2208 13.6147 12.6255 2.43567
9614 2 2.2208 -0.290018 7.0284 10.8596
9606 2 2.2208 -0.344405 12.6483 10.9581
201 2 2.2208 -0.263494 1.4111 10.8273
416 2 2.2208 8.11503 1.40817 13.6716
385 2 2.2208 5.19244 4.28265 13.6739
9595 2 2.2208 13.6507 7.12676 8.07867
9818 2 2.2208 -0.272919 18.2173 -0.295301
9689 2 2.2208 -0.364013 15.396 2.5376
9613 2 2.2208 -0.340164 9.91332 8.06215
9692 2 2.2208 -0.321679 21.1254 8.14244
9683 2 2.2208 -0.299421 9.88461 2.50356
81 2 2.2208 -0.268826 7.09854 5.27291
418 2 2.2208 10.9282 4.26478 13.6018
9699 2 2.2208 13.6336 12.609 13.6228
337 2 2.2208 7.91499 21.0696 -0.30562
329 2 2.2208 8.06389 12.5797 13.611
410 2 2.2208 7.94933 15.5098 -0.320756
332 2 2.2208 5.2842 15.3724 13.6225
333 2 2.2208 11.0757 20.9749 13.6457
479 2 2.2208 8.02541 7.0171 13.6858
339 2 2.2208 2.41977 4.32174 -0.24876
331 2 2.2208 5.31252 21.1399 13.5857
601 2 2.2208 8.19128 -1.2293 -0.321107
324 2 2.2208 10.7378 18.1609 -0.277063
637 2 2.2208 5.25526 12.6519 -0.310015
660 2 2.2208 10.7854 6.93481 -0.32757
517 2 2.2208 2.42031 15.5336 -0.24458
343 2 2.2208 5.28421 1.43475 16.524
344 1 -1.1104 1.05282 -2.65196 17.8555
345 1 -1.1104 1.05706 2.89171 17.7511
348 1 -1.1104 1.22496 -2.73382 15.0181
350 1 -1.1104 1.01449 2.79493 15.0294
356 1 -1.1104 1.21661 0.0488324 17.9
358 2 2.2208 5.41932 -1.36595 19.2089
359 2 2.2208 5.18723 4.31869 19.2578
360 1 -1.1104 1.03217 0.0211469 15.0721
364 1 -1.1104 3.72786 -2.7924 17.7165
365 1 -1.1104 3.88977 2.79613 17.9159
366 2 2.2208 2.49838 1.38085 19.2605
367 1 -1.1104 4.10118 -2.71698 14.9363
369 1 -1.1104 3.77715 3.00485 15.0001
371 2 2.2208 2.49866 -1.35868 16.334
372 2 2.2208 2.36783 4.31073 16.4512
373 1 -1.1104 4.16479 -0.0535466 17.8379
374 1 -1.1104 3.95169 -0.0360355 15.0693
355 1 -1.1104 6.54633 2.77507 20.4788
352 1 -1.1104 6.78427 -2.73385 15.1258
378 2 2.2208 2.59286 -4.103 19.1899
605 2 2.2208 10.9049 -4.08636 21.9471
412 2 2.2208 8.02844 -4.11665 19.2305
349 1 -1.1104 1.01914 -2.74996 20.5967
375 1 -1.1104 3.94812 0.0259453 20.6356
370 1 -1.1104 3.81135 2.89946 20.6552
606 2 2.2208 8.28468 -3.999 24.6666
334 2 2.2208 10.8801 15.4068 13.6223
357 1 -1.1104 6.86063 0.145234 17.8733
346 1 -1.1104 6.58538 -2.83514 17.8081
362 1 -1.1104 6.70674 -0.0510606 15.0698
354 1 -1.1104 6.71954 2.82626 14.8899
347 1 -1.1104 6.64779 2.97642 17.6725
386 2 2.2208 10.8954 1.35877 16.3239
387 1 -1.1104 12.2821 -2.72872 17.7178
388 1 -1.1104 12.3691 2.92722 17.7608
389 1 -1.1104 12.4346 -2.75377 15.1383
391 1 -1.1104 12.1968 2.69055 15.0663
393 1 -1.1104 12.2589 0.119847 17.9097
394 2 2.2208 10.8851 -1.27555 19.202
395 2 2.2208 10.7191 4.24078 19.2913
396 1 -1.1104 12.349 0.046878 15.1105
398 1 -1.1104 9.4661 -2.77727 17.7537
399 1 -1.1104 9.5599 2.87787 17.8598
400 2 2.2208 8.10952 1.53669 19.1986
401 1 -1.1104 9.562 -2.70669 14.9958
403 1 -1.1104 9.52119 2.97672 15.0578
405 2 2.2208 8.11653 -1.36907 16.3967
406 2 2.2208 8.04022 4.28254 16.3681
407 1 -1.1104 9.55114 0.0860322 17.7762
408 1 -1.1104 9.39554 0.0287631 15.0133
411 2 2.2208 10.9652 -4.24111 16.418
9703 2 2.2208 -0.385377 9.83039 13.7063
9932 2 2.2208 -0.304814 18.162 16.5117
576 2 2.2208 5.23918 -4.10258 21.9998
336 2 2.2208 8.2072 18.235 13.6689
419 2 2.2208 5.19224 7.01231 16.4702
420 2 2.2208 5.28391 12.5666 16.5192
421 1 -1.1104 0.966373 8.35894 17.8914
423 1 -1.1104 1.01519 8.30982 15.042
427 1 -1.1104 0.930633 5.62647 17.8669
428 1 -1.1104 1.0523 11.1167 18.0204
431 2 2.2208 5.20146 9.75994 19.2658
432 1 -1.1104 0.976622 5.55485 15.0812
434 1 -1.1104 1.11318 11.0773 15.0776
440 1 -1.1104 3.83964 8.40164 17.8558
441 2 2.2208 2.35881 7.06405 19.2022
442 2 2.2208 2.49852 12.5221 19.3561
443 1 -1.1104 3.759 8.34375 15.1731
445 2 2.2208 2.4387 9.83464 16.5341
446 1 -1.1104 3.75553 5.49931 17.9304
447 1 -1.1104 3.838 11.1722 17.9795
448 1 -1.1104 3.84108 5.7035 15.2558
450 1 -1.1104 3.88113 11.0175 15.1003
433 1 -1.1104 0.948772 5.55568 20.6055
444 1 -1.1104 3.69752 8.48545 20.8021
435 1 -1.1104 0.999619 11.1583 20.8094
424 1 -1.1104 1.11278 8.31168 20.7061
9712 2 2.2208 -0.286248 15.3148 13.7522
9745 2 2.2208 13.597 4.35891 16.3993
377 2 2.2208 5.36407 -4.18692 16.3988
330 2 2.2208 2.44181 18.2658 13.6911
380 2 2.2208 -0.329989 -1.28669 19.2418
9862 2 2.2208 13.6737 12.6256 24.8734
436 1 -1.1104 6.63278 5.62082 14.9805
425 1 -1.1104 6.53325 8.34322 15.1718
429 1 -1.1104 6.64559 5.68718 17.846
438 1 -1.1104 6.65536 11.2952 15.0468
430 1 -1.1104 6.60196 11.2012 17.7721
437 1 -1.1104 6.56868 5.65126 20.7207
422 1 -1.1104 6.64919 8.422 17.9131
455 2 2.2208 10.7975 6.92907 16.5366
456 2 2.2208 10.8531 12.5958 16.3567
457 1 -1.1104 12.233 8.44989 17.892
458 1 -1.1104 12.1985 8.35542 15.0567
460 1 -1.1104 12.1255 5.70939 17.9766
461 1 -1.1104 12.2822 11.1519 17.9637
462 2 2.2208 10.81 9.71078 19.259
463 1 -1.1104 12.3156 5.61775 15.1116
465 1 -1.1104 12.228 11.098 15.1484
467 1 -1.1104 9.47103 8.2527 17.8575
468 2 2.2208 7.97043 7.02722 19.304
469 2 2.2208 8.1206 12.5948 19.2352
470 1 -1.1104 9.16941 8.42863 15.008
472 2 2.2208 8.07846 9.76297 16.5657
473 1 -1.1104 9.38146 5.63637 18.0127
474 1 -1.1104 9.39395 11.261 17.9551
475 1 -1.1104 9.56744 5.70535 14.9605
477 1 -1.1104 9.56605 11.2667 15.1445
476 1 -1.1104 9.31283 5.75055 20.6485
577 2 2.2208 2.50113 -4.19703 24.7876
453 1 -1.1104 9.39862 16.9326 23.5915
426 1 -1.1104 6.62822 8.41863 20.6232
580 2 2.2208 -0.251795 1.39474 22.0161
9957 2 2.2208 13.6108 18.1903 24.8045
581 2 2.2208 -0.38009 4.144 24.8609
482 2 2.2208 5.191 18.3875 16.4917
483 1 -1.1104 1.07198 13.9643 17.8633
484 1 -1.1104 0.876251 19.674 17.8921
487 1 -1.1104 1.10026 13.884 15.1847
489 1 -1.1104 1.22855 19.4597 15.2386
495 1 -1.1104 1.0543 16.7352 17.8231
497 2 2.2208 5.17571 15.4385 19.237
498 2 2.2208 5.14916 20.9545 19.2403
499 1 -1.1104 1.13507 16.7232 14.9514
503 1 -1.1104 3.94567 13.9447 17.8604
504 1 -1.1104 3.74904 19.591 17.8301
505 2 2.2208 2.31794 18.2232 19.2667
506 1 -1.1104 3.86665 14.0979 15.0049
508 1 -1.1104 3.95191 19.8871 15.0002
510 2 2.2208 2.46095 15.3277 16.5016
511 2 2.2208 2.33541 21.0516 16.454
512 1 -1.1104 3.82015 16.7839 17.9861
513 1 -1.1104 3.83847 17.0506 15.0659
514 1 -1.1104 3.67089 16.9239 20.7843
490 1 -1.1104 0.943912 19.6341 20.7267
501 1 -1.1104 6.64327 16.8871 15.0654
496 1 -1.1104 6.581 16.9245 17.8002
488 1 -1.1104 0.996074 14.036 20.5751
500 1 -1.1104 1.10272 16.7841 20.6331
9930 2 2.2208 -0.403781 21.0224 19.2445
509 1 -1.1104 3.63918 19.7633 20.5545
326 2 2.2208 5.314 9.75518 13.6874
493 1 -1.1104 6.75155 19.5593 15.0864
485 1 -1.1104 6.69424 14.0165 17.8611
486 1 -1.1104 6.67442 19.7615 17.8823
491 1 -1.1104 6.67376 14.0669 15.0833
518 2 2.2208 11.0502 18.1569 16.509
519 1 -1.1104 12.3218 14.0007 17.8189
520 1 -1.1104 12.4354 19.5202 17.9492
521 1 -1.1104 12.213 13.956 15.0222
523 1 -1.1104 12.4565 19.7136 15.1498
525 1 -1.1104 12.3711 16.8121 17.9419
526 2 2.2208 11.0019 15.3689 19.2221
527 2 2.2208 10.8239 20.9377 19.3707
528 1 -1.1104 12.1126 16.7625 15.0883
530 1 -1.1104 9.64378 13.9867 17.8188
531 1 -1.1104 9.62955 19.6571 17.9168
532 2 2.2208 7.98849 18.1308 19.3562
533 1 -1.1104 9.40579 13.9938 15.027
535 1 -1.1104 9.73569 19.7432 15.1156
537 2 2.2208 8.01679 15.341 16.4279
538 2 2.2208 8.27172 21.0139 16.5469
539 1 -1.1104 9.60459 16.9481 18.0359
540 1 -1.1104 9.48245 16.8375 15.1388
541 1 -1.1104 9.56239 16.6908 20.8083
376 2 2.2208 -0.282631 -4.17683 16.418
522 1 -1.1104 12.2954 13.8937 20.6925
524 1 -1.1104 12.2262 19.5467 20.6754
494 1 -1.1104 6.57415 19.6169 20.5565
536 1 -1.1104 9.35741 19.368 20.8006
603 2 2.2208 10.9326 18.1602 22.1257
382 2 2.2208 -0.365589 4.19921 13.6518
340 2 2.2208 -0.33492 1.50781 27.5881
9888 2 2.2208 -0.29628 9.90323 24.9582
361 1 -1.1104 1.20324 -0.0267883 20.7406
368 1 -1.1104 3.92609 -2.77026 20.4773
351 1 -1.1104 1.02607 2.77284 20.5751
546 2 2.2208 5.36781 1.44805 22.0163
547 1 -1.1104 1.07685 -2.77157 23.3642
548 1 -1.1104 1.13981 2.86632 23.3435
551 1 -1.1104 1.18007 -2.69194 26.2214
552 1 -1.1104 1.04032 2.78623 26.1096
555 1 -1.1104 1.13256 -0.05457 23.4832
557 2 2.2208 5.25866 -1.40951 24.7777
558 2 2.2208 5.30281 4.20055 24.9025
559 1 -1.1104 1.04939 0.142344 26.256
561 1 -1.1104 3.91505 -2.79677 23.4242
562 1 -1.1104 3.94364 2.89715 23.457
563 2 2.2208 2.52475 1.52948 24.8092
564 1 -1.1104 3.96691 -2.79499 26.1287
565 1 -1.1104 3.82595 2.86456 26.4032
566 2 2.2208 2.53289 -1.42321 22.0972
567 2 2.2208 2.3661 4.25382 22.0471
568 1 -1.1104 4.0405 -0.112502 23.449
569 1 -1.1104 3.79409 0.0787384 26.2354
549 1 -1.1104 6.79737 -2.64716 23.2652
669 1 -1.1104 6.58608 16.7735 26.4742
414 2 2.2208 8.13278 15.4327 22.1445
353 1 -1.1104 6.69176 -2.64187 20.6829
9819 2 2.2208 13.5742 9.67615 16.4432
392 1 -1.1104 12.1912 2.89531 20.5379
404 1 -1.1104 9.43189 2.91387 20.7277
397 1 -1.1104 12.0868 0.127482 20.6519
10039 2 2.2208 -0.364129 7.13771 22.0769
363 1 -1.1104 6.71356 0.171772 20.5762
554 1 -1.1104 6.61608 2.87446 26.2428
553 1 -1.1104 6.80584 -2.66808 26.058
560 1 -1.1104 6.66919 0.0331718 26.378
556 1 -1.1104 6.80261 0.215947 23.4978
550 1 -1.1104 6.71006 2.9657 23.4339
390 1 -1.1104 12.2489 -2.59917 20.5437
402 1 -1.1104 9.40376 -2.77165 20.5553
409 1 -1.1104 9.49321 0.128569 20.5819
582 2 2.2208 10.8931 1.50567 21.9813
583 1 -1.1104 12.2963 -2.64715 23.305
584 1 -1.1104 12.3415 2.90595 23.4587
585 1 -1.1104 12.4343 -2.76903 26.2059
586 1 -1.1104 12.2883 2.9203 26.2972
587 1 -1.1104 12.1754 0.210336 23.4672
588 2 2.2208 10.9816 -1.1987 24.8337
589 2 2.2208 10.8885 4.13599 24.7774
590 1 -1.1104 12.2624 0.0601112 26.2845
591 1 -1.1104 9.51774 -2.60842 23.3817
592 1 -1.1104 9.49398 2.7 23.4101
593 2 2.2208 8.04926 1.42887 24.8944
594 1 -1.1104 9.73538 -2.60437 26.2431
595 1 -1.1104 9.47218 2.73769 26.1838
596 2 2.2208 8.04658 -1.19512 21.9442
597 2 2.2208 7.95523 4.25454 21.9991
598 1 -1.1104 9.45018 0.109402 23.5008
599 1 -1.1104 9.55864 0.115274 26.3673
529 1 -1.1104 12.36 16.602 20.7544
9826 2 2.2208 -0.355548 12.4777 16.4056
9894 2 2.2208 13.6069 -1.32648 21.909
451 1 -1.1104 3.90311 11.2731 20.7325
439 1 -1.1104 6.57976 11.2637 20.4335
449 1 -1.1104 3.70434 5.68182 20.7946
608 1 -1.1104 12.308 14.0312 23.4668
611 2 2.2208 5.24639 7.00862 22.0494
612 2 2.2208 5.25957 12.6688 22.1333
613 1 -1.1104 1.14129 8.53658 23.5406
615 1 -1.1104 0.972414 8.31501 26.32
617 1 -1.1104 1.14046 5.65499 23.5652
618 1 -1.1104 1.22155 11.2724 23.6056
621 2 2.2208 5.28462 9.73747 24.8757
622 1 -1.1104 0.915727 5.51542 26.3123
623 1 -1.1104 0.997821 11.2607 26.3117
626 1 -1.1104 3.91062 8.39434 23.6064
627 2 2.2208 2.47416 6.97719 24.9283
628 2 2.2208 2.53197 12.6707 25.0071
629 1 -1.1104 3.83928 8.47817 26.3309
630 2 2.2208 2.53353 9.86672 22.1665
631 1 -1.1104 3.99558 5.60013 23.5674
632 1 -1.1104 3.93397 11.2507 23.5664
633 1 -1.1104 3.70287 5.67698 26.4537
634 1 -1.1104 3.84415 11.2777 26.4045
625 1 -1.1104 6.71482 11.2809 26.2659
614 1 -1.1104 6.661 8.38723 23.4674
667 1 -1.1104 6.43266 14.1211 26.3127
640 2 2.2208 10.8526 15.5001 24.9486
9933 2 2.2208 13.5926 21.0289 22.108
415 2 2.2208 7.97081 21.0896 22.1189
471 1 -1.1104 9.29317 8.49547 20.6548
459 1 -1.1104 12.3319 8.28094 20.7084
466 1 -1.1104 12.1145 11.1243 20.735
464 1 -1.1104 12.2569 5.54248 20.6212
534 1 -1.1104 9.46685 13.9097 20.673
619 1 -1.1104 6.68069 5.6073 23.4788
616 1 -1.1104 6.65539 8.42109 26.2971
624 1 -1.1104 6.58884 5.59209 26.3828
620 1 -1.1104 6.61436 11.2471 23.5015
478 1 -1.1104 9.33491 11.1133 20.7556
642 1 -1.1104 9.24278 11.352 26.3843
643 1 -1.1104 9.37283 5.45322 26.3832
644 1 -1.1104 9.48374 11.1843 23.5265
645 1 -1.1104 9.55316 5.57757 23.602
646 2 2.2208 8.00574 9.87069 22.1186
647 1 -1.1104 9.52643 8.30917 26.2356
648 2 2.2208 7.99163 12.6993 24.9205
649 2 2.2208 7.93494 7.01509 24.9404
650 2 2.2208 10.7638 6.96304 22.1045
651 2 2.2208 10.8191 12.5859 22.1452
652 1 -1.1104 12.2803 8.38654 23.4976
653 1 -1.1104 12.273 8.33132 26.3493
654 1 -1.1104 12.2372 5.58009 23.4271
655 1 -1.1104 12.1807 11.2475 23.496
656 2 2.2208 10.8179 9.74403 24.8391
657 1 -1.1104 12.1351 5.52299 26.2299
658 1 -1.1104 12.14 11.1649 26.3376
659 1 -1.1104 9.30943 8.38634 23.4586
639 1 -1.1104 12.3441 16.8614 23.4381
454 1 -1.1104 9.40491 16.6896 26.3464
663 1 -1.1104 12.2292 16.8049 26.3822
507 1 -1.1104 3.87644 14.0072 20.7084
492 1 -1.1104 6.4889 14.0972 20.6994
502 1 -1.1104 6.70544 16.8055 20.6926
543 2 2.2208 2.30246 15.4021 22.144
544 2 2.2208 2.28543 21.0875 22.1004
545 1 -1.1104 3.93317 16.8919 23.5455
570 1 -1.1104 1.09804 16.7996 23.4473
578 1 -1.1104 3.70652 14.1032 26.2337
600 1 -1.1104 3.64874 16.8816 26.4305
602 2 2.2208 2.5226 18.2298 24.8507
666 1 -1.1104 3.86395 19.5951 23.4579
668 1 -1.1104 3.85956 14.0383 23.5398
670 1 -1.1104 1.08051 19.501 26.2217
671 1 -1.1104 1.11126 16.6912 26.2097
672 1 -1.1104 0.84885 13.9083 26.3648
674 2 2.2208 5.14034 21.0811 24.9251
675 2 2.2208 5.09827 15.5385 24.9425
677 1 -1.1104 0.908795 19.6114 23.4613
678 1 -1.1104 0.859311 14.1331 23.4039
679 2 2.2208 5.14516 18.1921 22.0022
680 1 -1.1104 3.65882 19.5824 26.432
676 1 -1.1104 6.80143 14.027 23.4886
572 1 -1.1104 6.51324 17.0033 23.4706
379 2 2.2208 -0.294199 1.48835 16.4903
609 1 -1.1104 12.2959 19.6176 23.4995
641 2 2.2208 10.7831 20.9817 25.0948
664 1 -1.1104 9.57999 14.0079 23.425
481 1 -1.1104 9.30679 14.0343 26.3053
665 1 -1.1104 9.45057 19.6471 23.6927
515 1 -1.1104 6.42581 19.6296 26.2749
673 1 -1.1104 6.73056 19.7104 23.5196
638 1 -1.1104 12.0083 19.5323 26.3202
610 1 -1.1104 12.1877 13.9722 26.2926
480 1 -1.1104 9.17476 19.642 26.4051
516 2 2.2208 7.97256 18.3068 24.9872
341 2 2.2208 10.9298 1.42835 27.7637
338 2 2.2208 5.22457 1.49922 27.6278
575 2 2.2208 5.3342 -4.04613 27.6066
636 2 2.2208 2.49013 9.8061 27.7447
9824 2 2.2208 13.5896 9.85209 27.6873
579 2 2.2208 -0.27299 -1.32612 24.8011
573 2 2.2208 -0.29623 -4.12164 27.6733
9823 2 2.2208 13.4935 6.98694 24.9444
342 2 2.2208 8.17593 4.19462 27.6811
9820 2 2.2208 13.6298 7.11262 19.2572
10011 2 2.2208 13.736 9.76285 22.0864
571 2 2.2208 2.56548 -1.30623 27.6178
661 2 2.2208 8.03124 9.86844 27.6984
9713 2 2.2208 -0.249403 21.019 13.7281
381 2 2.2208 -0.27753 -1.31286 13.7247
384 2 2.2208 2.51922 1.42491 13.6967
452 2 2.2208 2.51294 7.15251 13.7757
417 2 2.2208 10.9076 -1.3188 13.6976
604 2 2.2208 10.9767 -4.04031 27.543
681 2 2.2208 5.22286 23.7675 5.4766
682 2 2.2208 5.23155 29.4176 5.25873
683 1 -1.1104 0.916483 25.21 0.993111
684 1 -1.1104 1.01606 25.2952 3.90386
685 1 -1.1104 1.12759 22.5819 1.07057
686 1 -1.1104 0.965818 28.1024 1.14011
687 2 2.2208 5.3096 26.5763 2.48443
688 1 -1.1104 1.12111 22.34 3.81783
689 1 -1.1104 1.14592 28.0691 3.82567
690 1 -1.1104 3.76736 25.1541 1.01191
691 2 2.2208 2.42966 23.8433 2.51756
692 2 2.2208 2.42651 29.4328 2.50876
693 1 -1.1104 3.86247 25.1746 3.94689
694 2 2.2208 2.31597 26.581 5.26561
695 1 -1.1104 3.94808 22.486 1.06767
696 1 -1.1104 3.85243 28.0865 1.02288
697 1 -1.1104 3.84978 22.3666 3.94259
698 1 -1.1104 3.97201 28.0071 3.76522
703 1 -1.1104 6.78668 25.3847 3.76971
704 1 -1.1104 6.61982 22.5159 1.13654
828 1 -1.1104 3.74305 25.2906 6.82922
830 1 -1.1104 3.75449 28.0385 6.51504
826 1 -1.1104 6.79327 22.3877 6.74253
829 1 -1.1104 3.82669 22.5279 6.7594
824 1 -1.1104 1.04795 22.52 6.69655
822 1 -1.1104 0.974337 25.2995 6.72471
10457 2 2.2208 13.5697 29.4847 13.6501
1568 1 -1.1104 3.70222 47.6517 12.329
976 1 -1.1104 9.29033 39.1864 12.1875
1589 1 -1.1104 12.3111 47.5062 12.2467
702 1 -1.1104 6.65217 25.0784 1.14433
706 1 -1.1104 6.75114 22.4465 3.98224
707 1 -1.1104 6.73763 28.1562 3.88378
705 1 -1.1104 6.61481 27.9521 1.04216
708 2 2.2208 10.8005 23.7851 5.18296
709 2 2.2208 10.9269 29.492 5.23621
710 1 -1.1104 12.2643 25.1994 0.893953
711 1 -1.1104 12.3951 25.1868 3.77674
712 1 -1.1104 12.345 22.3563 1.06671
713 1 -1.1104 12.3244 28.0718 1.10468
714 2 2.2208 10.8597 26.6565 2.37316
715 1 -1.1104 12.2352 22.347 3.90762
716 1 -1.1104 12.3125 28.0337 3.85444
717 1 -1.1104 9.4505 25.2359 1.07119
718 2 2.2208 8.00179 23.8784 2.51953
719 2 2.2208 8.00336 29.378 2.4701
720 1 -1.1104 9.43603 25.2038 3.90211
721 2 2.2208 8.01658 26.6366 5.21617
722 1 -1.1104 9.36003 22.3711 1.04412
723 1 -1.1104 9.47773 28.0056 1.05663
724 1 -1.1104 9.62521 22.3467 3.85949
725 1 -1.1104 9.48819 28.0922 3.84421
859 1 -1.1104 9.40552 22.4509 6.69588
857 1 -1.1104 12.2678 27.9338 6.62567
10410 2 2.2208 13.6434 40.5328 13.6841
855 1 -1.1104 12.2148 25.2256 6.556
856 1 -1.1104 12.3189 22.3665 6.77209
729 2 2.2208 5.22548 34.927 5.20587
730 1 -1.1104 1.04106 30.874 1.11595
731 1 -1.1104 0.872864 36.4173 0.912016
733 1 -1.1104 1.05738 30.8668 3.93975
734 1 -1.1104 1.06118 36.4159 3.7167
736 1 -1.1104 1.12911 33.6282 1.24178
737 2 2.2208 5.28401 32.2032 2.53038
738 2 2.2208 5.12423 37.8841 2.49046
739 1 -1.1104 1.04267 33.662 3.94507
741 1 -1.1104 3.8667 30.8189 1.1572
742 1 -1.1104 3.7589 36.5444 1.00815
743 2 2.2208 2.40439 35.0608 2.46145
744 1 -1.1104 3.90842 30.82 3.85817
745 1 -1.1104 3.7777 36.5408 3.83856
746 2 2.2208 2.395 32.213 5.25945
747 2 2.2208 2.35292 37.9021 5.28632
748 1 -1.1104 3.72864 33.6348 0.951353
749 1 -1.1104 3.87025 33.6097 3.81351
886 1 -1.1104 3.64359 36.1237 6.55956
881 1 -1.1104 6.62604 30.8292 6.72562
885 1 -1.1104 3.77679 30.6513 6.65621
883 1 -1.1104 0.900618 33.7573 6.71409
887 1 -1.1104 3.71926 33.4753 6.67911
879 1 -1.1104 1.12701 31.0653 6.74186
740 1 -1.1104 6.73132 33.6613 3.77905
753 1 -1.1104 6.59674 30.7751 1.13566
754 1 -1.1104 6.71005 30.9511 3.96899
755 1 -1.1104 6.6007 33.5902 0.99154