ITEM: TIMESTEP
70000
ITEM: NUMBER OF ATOMS
17820
ITEM: BOX BOUNDS pp pp pp
-3.5559939757663023e-01 2.7695599397575982e+01
-4.2975328128294299e+00 3.3237753281281169e+02
-3.5622286668677805e-01 2.7696222866686554e+01
ITEM: ATOMS id type q x y z
1 2 2.2208 5.40722 1.47851 5.30939
2 1 -1.1104 1.1618 -2.90006 1.0745
3 1 -1.1104 1.32801 2.87123 1.12419
6 1 -1.1104 1.26409 -2.78674 3.91485
7 1 -1.1104 1.22827 2.81099 3.81719
10 1 -1.1104 1.27513 0.000684708 1.15693
12 2 2.2208 5.48938 -1.27727 2.59031
14 1 -1.1104 1.22153 0.00992521 3.89041
16 1 -1.1104 3.95449 -2.7863 1.11373
17 1 -1.1104 3.90319 2.76037 1.0979
18 2 2.2208 2.64869 1.37289 2.52125
19 1 -1.1104 4.1515 -2.7367 3.88364
20 1 -1.1104 3.90421 2.75687 3.98684
21 2 2.2208 2.64345 -1.29421 5.35034
22 2 2.2208 2.54932 4.21653 5.20316
23 1 -1.1104 4.07779 -0.00740113 1.09746
24 1 -1.1104 4.00434 -0.090137 3.90797
13 2 2.2208 5.33944 4.1212 2.56314
30 2 2.2208 -0.293222 -4.13628 5.2992
338 2 2.2208 5.39068 1.32459 -0.271138
9 1 -1.1104 6.73802 2.81466 3.91589
4 1 -1.1104 6.76143 -2.78995 1.24103
8 1 -1.1104 6.86544 -2.64007 4.07847
154 1 -1.1104 9.51292 14.0031 6.5073
173 1 -1.1104 3.8648 2.95372 6.83646
167 1 -1.1104 1.09753 2.66451 6.71065
174 1 -1.1104 4.18 0.0312046 6.73336
28 2 2.2208 2.55298 -4.25509 2.48176
5 1 -1.1104 6.70343 2.74757 1.23156
15 1 -1.1104 6.68668 0.11246 4.01357
149 1 -1.1104 12.2396 16.9032 6.74036
11 1 -1.1104 6.92605 -0.00826846 1.12976
31 2 2.2208 11.0506 1.44455 5.17926
32 1 -1.1104 12.3908 -2.98104 1.1759
33 1 -1.1104 12.5448 2.90797 1.23492
34 1 -1.1104 12.4193 -2.69596 3.89963
35 1 -1.1104 12.542 2.75881 3.91762
36 1 -1.1104 12.6008 0.0121391 1.33083
37 2 2.2208 11.103 -1.44252 2.56004
38 2 2.2208 11.0374 4.21735 2.46634
39 1 -1.1104 12.3399 -0.00281622 3.91476
40 1 -1.1104 9.69387 -2.8654 1.22306
41 1 -1.1104 9.53594 2.88991 1.0022
42 2 2.2208 8.21164 1.44205 2.43706
43 1 -1.1104 9.50372 -2.80727 4.06166
44 1 -1.1104 9.64896 2.85629 3.81627
45 2 2.2208 8.29232 -1.26552 5.38532
47 1 -1.1104 9.70523 -0.118643 1.20444
48 1 -1.1104 9.52665 0.0961974 3.99046
46 2 2.2208 8.13309 4.23899 5.22619
601 2 2.2208 8.27304 -1.51242 -0.125581
342 2 2.2208 8.14629 4.27375 -0.267793
341 2 2.2208 11.124 1.56427 -0.169095
315 1 -1.1104 9.45162 16.6511 12.2858
156 1 -1.1104 9.45509 19.8691 6.87879
320 2 2.2208 8.09036 18.2268 8.19087
203 2 2.2208 5.41064 -4.28108 10.8573
54 2 2.2208 5.42175 7.12216 5.33582
55 2 2.2208 5.31459 12.6824 5.27973
56 1 -1.1104 1.20486 8.44382 1.21783
58 1 -1.1104 1.25381 8.35804 4.00707
60 1 -1.1104 1.29905 5.6533 1.04469
61 1 -1.1104 1.15922 11.3065 1.41413
66 2 2.2208 5.32373 9.85213 2.57607
67 1 -1.1104 1.33881 5.70983 3.82908
68 1 -1.1104 1.19699 11.2629 4.03869
71 1 -1.1104 3.89794 8.47393 1.18549
72 2 2.2208 2.62684 7.04611 2.43785
73 2 2.2208 2.53803 12.7356 2.58272
74 1 -1.1104 4.05042 8.40988 3.93919
75 2 2.2208 2.50707 9.79661 5.35558
76 1 -1.1104 4.07849 5.692 1.28515
77 1 -1.1104 3.83418 11.2713 1.26293
79 1 -1.1104 4.03563 5.62497 3.91163
80 1 -1.1104 3.95059 11.3365 3.99014
59 1 -1.1104 6.84591 8.4513 3.97308
70 1 -1.1104 6.73498 11.2523 3.81125
637 2 2.2208 5.27937 12.6887 -0.317657
52 2 2.2208 11.093 -4.18414 5.36196
635 2 2.2208 5.33495 7.11811 -0.156261
9863 2 2.2208 -0.164712 7.12024 -0.275115
311 2 2.2208 10.9363 21.2481 8.03888
111 1 -1.1104 6.68542 14.0914 6.67827
104 1 -1.1104 12.3105 19.5066 12.1581
63 1 -1.1104 6.80729 5.66441 1.12931
57 1 -1.1104 6.81171 8.5284 1.26686
64 1 -1.1104 6.6682 11.2504 1.12628
69 1 -1.1104 6.7485 5.64395 3.93833
84 2 2.2208 11.0093 7.02479 5.46563
85 2 2.2208 10.96 12.7171 5.17257
86 1 -1.1104 12.198 8.4099 1.17317
87 1 -1.1104 12.4208 8.21568 3.96152
88 1 -1.1104 12.3925 5.57378 1.0503
89 1 -1.1104 12.4585 11.0853 1.21805
91 2 2.2208 10.8606 9.83853 2.6366
92 1 -1.1104 12.3574 5.40078 3.78455
93 1 -1.1104 12.2485 11.035 3.9296
94 1 -1.1104 9.45796 8.29806 1.06675
95 2 2.2208 8.07699 7.06276 2.69989
96 2 2.2208 8.11592 12.6505 2.37692
97 1 -1.1104 9.48763 8.57436 3.98378
98 2 2.2208 8.08182 10.0068 5.34747
99 1 -1.1104 9.58415 5.50694 1.1202
100 1 -1.1104 9.58703 11.2032 1.10628
102 1 -1.1104 9.56997 5.61488 4.10399
103 1 -1.1104 9.52971 11.4154 3.93001
661 2 2.2208 8.18802 9.87033 -0.332463
660 2 2.2208 10.8774 6.95829 -0.296113
662 2 2.2208 11.0484 12.5911 -0.203604
231 2 2.2208 8.16051 -4.24788 8.04771
542 2 2.2208 5.28754 18.1624 -0.206835
51 2 2.2208 8.20108 -4.17967 2.66855
517 2 2.2208 2.54819 15.472 -0.152565
106 2 2.2208 5.40755 18.3217 5.33138
107 1 -1.1104 1.23028 14.1258 1.13561
109 1 -1.1104 1.1043 19.6938 1.05654
113 1 -1.1104 1.14808 14.0715 3.9105
114 1 -1.1104 1.08898 19.6305 3.8615
116 1 -1.1104 1.06767 16.8456 1.21095
119 2 2.2208 5.41293 15.5663 2.551
120 2 2.2208 5.31535 21.0898 2.46371
121 1 -1.1104 1.1203 16.7801 4.05744
123 1 -1.1104 4.04543 14.1855 1.19303
125 1 -1.1104 3.8809 19.6396 1.07917
127 2 2.2208 2.42461 18.202 2.58695
128 1 -1.1104 3.8994 14.024 3.97406
129 1 -1.1104 3.95651 19.589 3.92454
130 2 2.2208 2.63974 15.4167 5.34024
131 2 2.2208 2.5568 21.2732 5.39084
132 1 -1.1104 3.9027 16.7957 1.12404
134 1 -1.1104 3.94809 16.8553 3.88377
110 1 -1.1104 6.61783 14.1007 1.0409
115 1 -1.1104 6.73301 14.0741 3.89623
122 1 -1.1104 6.83922 16.7962 3.9766
140 1 -1.1104 6.81142 16.8949 1.12371
165 1 -1.1104 12.3919 16.7586 12.311
314 1 -1.1104 9.6184 16.8554 9.42485
410 2 2.2208 8.11842 15.5594 -0.324264
82 2 2.2208 10.8494 18.3515 10.8297
138 1 -1.1104 6.68419 19.7051 1.10349
139 1 -1.1104 6.72888 19.6472 3.89578
141 2 2.2208 10.8873 18.3201 5.41604
142 1 -1.1104 12.335 14.0169 1.18239
144 1 -1.1104 12.2451 19.7462 1.05096
146 1 -1.1104 12.297 14.0521 3.81175
147 1 -1.1104 12.399 19.8412 3.89275
148 1 -1.1104 12.4631 16.9697 0.830315
150 2 2.2208 10.9576 15.5581 2.44246
151 2 2.2208 10.9348 21.0321 2.59659
152 1 -1.1104 12.2544 17.0019 3.76755
153 1 -1.1104 9.64876 14.0772 1.01006
155 1 -1.1104 9.49114 19.7372 1.25432
157 2 2.2208 8.1669 18.2826 2.59288
158 1 -1.1104 9.5288 14.1043 3.66133
159 1 -1.1104 9.53522 19.5838 4.01615
160 2 2.2208 8.17568 15.49 5.21841
161 2 2.2208 8.12065 21.1253 5.40039
162 1 -1.1104 9.47691 16.9113 1.02389
164 1 -1.1104 9.64337 16.853 3.9687
337 2 2.2208 8.04154 21.1219 -0.205264
232 2 2.2208 10.8342 -4.26315 10.9108
324 2 2.2208 10.9741 18.3362 -0.315016
83 1 -1.1104 12.1958 13.9537 12.398
229 2 2.2208 10.9885 15.5149 8.0973
199 2 2.2208 -0.274978 4.15687 8.04045
170 1 -1.1104 1.37034 -0.0220043 6.76304
172 1 -1.1104 3.99046 -2.76886 6.69856
171 1 -1.1104 6.95057 0.0124991 6.80847
169 1 -1.1104 6.6501 2.88535 6.64443
166 1 -1.1104 1.1095 -2.70273 6.58046
175 2 2.2208 5.39315 1.50922 10.7981
176 1 -1.1104 1.01348 -2.84213 12.2867
177 1 -1.1104 1.11104 2.73886 12.3915
180 1 -1.1104 1.34787 -2.69635 9.55695
181 1 -1.1104 1.26728 2.87502 9.47714
184 1 -1.1104 1.25915 -0.0022971 12.3476
186 2 2.2208 5.39343 -1.4483 8.12091
188 1 -1.1104 1.27601 0.101628 9.63098
190 1 -1.1104 4.04501 -2.78572 12.298
191 1 -1.1104 3.83767 2.64393 12.2705
192 2 2.2208 2.61539 1.57051 8.20285
193 1 -1.1104 3.98184 -2.77009 9.41336
194 1 -1.1104 4.05912 2.77236 9.57203
195 2 2.2208 2.66457 -1.3057 10.9496
197 1 -1.1104 4.12323 -0.0795177 12.4673
198 1 -1.1104 4.16607 -0.066275 9.61034
196 2 2.2208 2.6255 4.14866 10.9357
187 2 2.2208 5.45044 4.36545 8.03311
183 1 -1.1104 6.80961 2.94997 9.43897
319 1 -1.1104 9.68822 14.1077 9.53282
182 1 -1.1104 6.73384 -2.87934 9.44381
189 1 -1.1104 6.81268 0.0668661 9.47341
179 1 -1.1104 6.81577 2.75496 12.2472
202 2 2.2208 2.49929 -4.01978 8.06933
604 2 2.2208 10.9788 -4.28995 -0.0924589
312 1 -1.1104 12.5158 17.0629 9.50762
178 1 -1.1104 6.76674 -2.74087 12.1398
185 1 -1.1104 6.8949 0.0429146 12.1768
206 1 -1.1104 12.3307 2.82726 6.70638
209 1 -1.1104 9.57018 2.8878 6.73011
210 1 -1.1104 9.77737 0.0209074 6.7454
208 1 -1.1104 9.68171 -2.84408 6.7236
168 1 -1.1104 6.80376 -2.80324 6.65778
207 1 -1.1104 12.6425 0.0875755 6.79167
205 1 -1.1104 12.4974 -2.75892 6.657
211 2 2.2208 10.993 1.44971 10.8767
212 1 -1.1104 12.5111 -2.6733 12.3975
213 1 -1.1104 12.4355 2.8528 12.3485
214 1 -1.1104 12.2544 -2.87867 9.54727
215 1 -1.1104 12.4684 3.02381 9.45051
216 1 -1.1104 12.4023 0.0998643 12.2505
217 2 2.2208 11.0363 -1.46175 8.1396
218 2 2.2208 10.9952 4.17262 8.13533
219 1 -1.1104 12.3561 0.044517 9.56533
220 1 -1.1104 9.59254 -2.81938 12.2797
221 1 -1.1104 9.47293 2.91665 12.2612
222 2 2.2208 8.18962 1.40434 8.0704
223 1 -1.1104 9.41912 -2.80407 9.44881
224 1 -1.1104 9.51565 2.91253 9.39641
225 2 2.2208 8.11571 -1.27577 10.9157
226 2 2.2208 8.13318 4.22186 10.7835
227 1 -1.1104 9.66207 -0.00868203 12.2652
228 1 -1.1104 9.72929 0.186936 9.34991
9606 2 2.2208 -0.285562 12.73 10.9327
9613 2 2.2208 -0.275126 9.80603 8.21569
321 1 -1.1104 9.56312 19.5801 12.2798
239 1 -1.1104 4.119 5.69883 6.76308
234 1 -1.1104 1.15345 8.46381 6.74998
237 1 -1.1104 6.79569 5.72326 6.71413
238 1 -1.1104 3.8891 8.45576 6.79707
236 1 -1.1104 1.06212 5.50657 6.6223
78 1 -1.1104 3.85096 11.363 6.53074
62 1 -1.1104 1.07517 11.1418 6.7968
240 2 2.2208 5.30475 7.01464 10.9256
241 2 2.2208 5.28448 12.6567 10.8056
242 1 -1.1104 1.28667 8.40681 12.4185
244 1 -1.1104 1.20987 8.30223 9.57721
246 1 -1.1104 1.31943 5.66913 12.2911
247 1 -1.1104 1.0377 11.2429 12.3549
250 2 2.2208 5.29214 9.90472 8.16164
251 1 -1.1104 1.17176 5.57668 9.4983
252 1 -1.1104 1.06899 11.2863 9.52229
255 1 -1.1104 4.03071 8.48349 12.3581
256 2 2.2208 2.53169 6.93719 8.17763
257 2 2.2208 2.3926 12.6023 7.98616
258 1 -1.1104 3.75917 8.49565 9.6068
259 2 2.2208 2.52931 9.8689 10.956
260 1 -1.1104 4.09562 5.51794 12.3198
261 1 -1.1104 3.78778 11.1718 12.3824
262 1 -1.1104 4.00496 5.52726 9.57623
263 1 -1.1104 3.89646 11.2422 9.46231
249 1 -1.1104 6.74777 11.1867 12.2533
253 1 -1.1104 6.91543 5.73604 9.51367
318 1 -1.1104 9.39684 19.5712 9.53037
9692 2 2.2208 -0.273323 21.0967 8.15913
267 1 -1.1104 9.52153 8.44493 6.70252
101 1 -1.1104 9.54287 11.2502 6.71614
90 1 -1.1104 12.3671 11.3793 6.69962
235 1 -1.1104 6.80219 8.57377 6.70643
65 1 -1.1104 6.67926 11.3323 6.64145
248 1 -1.1104 6.82758 5.74655 12.3663
243 1 -1.1104 6.88677 8.42135 12.1489
269 1 -1.1104 9.49049 5.54275 6.77152
265 1 -1.1104 12.453 8.57015 6.76726
245 1 -1.1104 6.59778 8.57253 9.48502
266 1 -1.1104 12.4516 5.62365 6.68254
254 1 -1.1104 6.56061 11.229 9.42142
264 1 -1.1104 9.39309 11.2729 9.42713
268 1 -1.1104 9.66074 5.68764 9.40383
270 1 -1.1104 9.55177 11.1981 12.2564
271 1 -1.1104 9.5298 5.59802 12.2552
272 2 2.2208 8.14286 9.82195 10.9044
273 1 -1.1104 9.33078 8.53815 9.4727
274 2 2.2208 8.07723 12.6111 8.03891
275 2 2.2208 8.25502 7.12059 8.0493
276 2 2.2208 10.9245 7.03365 10.9071
277 2 2.2208 10.8329 12.6366 10.8394
278 1 -1.1104 12.5341 8.35805 12.3833
279 1 -1.1104 12.0844 8.4021 9.58505
280 1 -1.1104 12.3577 5.63795 12.4709
281 1 -1.1104 12.3025 11.2268 12.4787
282 2 2.2208 10.9469 9.91724 8.10979
283 1 -1.1104 12.4811 5.76521 9.62777
284 1 -1.1104 12.1901 11.0448 9.70249
285 1 -1.1104 9.73603 8.36352 12.4254
108 1 -1.1104 0.938532 14.1633 6.69191
25 2 2.2208 -0.179178 -1.49405 2.55139
316 2 2.2208 8.01078 21.0021 10.9859
117 1 -1.1104 1.06428 16.9335 6.81665
126 1 -1.1104 3.93534 19.7459 6.72783
133 1 -1.1104 3.98144 16.8926 6.64785
118 1 -1.1104 6.72973 16.7935 6.85556
124 1 -1.1104 3.74849 13.9972 6.73496
302 1 -1.1104 1.07474 19.6572 6.66995
310 2 2.2208 2.45658 15.4446 10.9887
286 1 -1.1104 3.93706 19.6013 12.383
287 1 -1.1104 3.88444 13.896 12.2849
291 1 -1.1104 1.25024 19.6079 9.49032
292 1 -1.1104 1.13701 16.7845 9.49435
293 2 2.2208 5.32759 21.0509 8.05861
294 1 -1.1104 1.02934 14.0618 9.55007
295 2 2.2208 5.30456 15.4829 8.13054
298 1 -1.1104 1.0402 19.6472 12.28
299 1 -1.1104 1.09929 14.0875 12.4729
300 2 2.2208 5.25403 18.2854 10.8869
301 1 -1.1104 3.93823 19.6909 9.58619
303 2 2.2208 2.48877 18.2847 8.08489
304 1 -1.1104 3.80462 16.78 9.52792
305 1 -1.1104 3.84872 14.0066 9.31281
307 1 -1.1104 1.05392 16.9685 12.2845
308 1 -1.1104 3.86107 16.8162 12.3052
309 2 2.2208 2.63689 20.9157 10.9908
306 1 -1.1104 6.64518 16.7577 12.4069
112 1 -1.1104 6.76499 19.6968 6.74606
143 1 -1.1104 12.3345 14.1631 6.72414
145 1 -1.1104 12.2989 19.8049 6.58466
163 1 -1.1104 9.42264 16.9871 6.79779
105 1 -1.1104 12.3853 13.9462 9.55243
313 1 -1.1104 9.50751 14.0552 12.2355
296 1 -1.1104 6.71345 19.5682 12.2741
289 1 -1.1104 6.66497 16.8875 9.5611
290 1 -1.1104 6.69058 14.1153 9.59321
288 1 -1.1104 6.72538 19.6926 9.64437
297 1 -1.1104 6.75871 14.0165 12.1947
317 2 2.2208 8.15511 15.4356 10.9413
135 1 -1.1104 12.3122 19.8845 9.46198
81 2 2.2208 -0.231439 7.06923 5.38811
201 2 2.2208 -0.197714 1.4137 10.8338
29 2 2.2208 5.34485 -4.14256 5.24543
27 2 2.2208 -0.0391315 4.29084 2.50803
9686 2 2.2208 -0.255513 12.5641 5.25901
200 2 2.2208 -0.15786 -1.40805 8.08064
9683 2 2.2208 -0.262836 9.73786 2.52455
9646 2 2.2208 13.5374 21.1587 10.9136
9685 2 2.2208 13.8319 18.4904 8.03487
26 2 2.2208 -0.223072 1.28905 5.26023
9684 2 2.2208 13.6884 15.5089 10.878
136 2 2.2208 -0.321488 20.9899 2.49768
9461 2 2.2208 13.7889 21.1196 5.15427
137 2 2.2208 -0.354813 18.2756 5.34104
340 2 2.2208 -0.18131 1.4236 -0.267987
204 2 2.2208 -0.314993 -4.20773 10.9348
385 2 2.2208 5.37623 4.23573 13.647
575 2 2.2208 5.30447 -4.13063 -0.254187
9890 2 2.2208 -0.366342 12.6426 -0.127626
322 2 2.2208 2.57538 -4.14749 13.7346
416 2 2.2208 8.219 1.33685 13.6263
323 2 2.2208 8.21655 -4.11822 13.7281
9818 2 2.2208 -0.287163 18.2261 -0.336268
636 2 2.2208 2.43348 9.79093 -0.181874
339 2 2.2208 2.61545 4.31757 -0.294848
343 2 2.2208 5.33169 1.47989 16.4156
344 1 -1.1104 1.10752 -2.94877 18.0007
345 1 -1.1104 1.09314 2.75536 17.88
348 1 -1.1104 1.02705 -2.85064 15.1364
350 1 -1.1104 1.21582 2.87789 15.2134
356 1 -1.1104 1.23807 -0.120015 17.8829
358 2 2.2208 5.37889 -1.32051 19.2573
360 1 -1.1104 1.25043 -0.0634671 15.1697
364 1 -1.1104 3.90401 -2.79722 17.9487
365 1 -1.1104 3.94149 2.88884 17.8602
366 2 2.2208 2.46822 1.40067 19.3423
367 1 -1.1104 3.99338 -2.78031 15.001
369 1 -1.1104 3.95703 2.84549 14.9482
371 2 2.2208 2.5186 -1.44837 16.4715
373 1 -1.1104 4.04642 0.0712564 17.9437
374 1 -1.1104 3.96835 -0.00928878 15.172
372 2 2.2208 2.63917 4.23173 16.4676
359 2 2.2208 5.30417 4.15096 19.4505
352 1 -1.1104 6.80914 -2.85158 14.9896
9952 2 2.2208 13.7308 4.25125 22.1691
412 2 2.2208 8.16629 -4.23067 19.3221
347 1 -1.1104 6.81195 2.85344 17.8397
354 1 -1.1104 6.76951 2.64154 15.068
370 1 -1.1104 3.96714 2.76862 20.7007
361 1 -1.1104 0.969319 0.104809 20.6291
480 1 -1.1104 9.5964 19.5712 26.553
610 1 -1.1104 12.42 13.9568 26.3603
522 1 -1.1104 12.5011 13.8876 20.7616
384 2 2.2208 2.51923 1.32231 13.6757
581 2 2.2208 -0.369539 4.2238 24.9325
383 2 2.2208 5.32696 -1.43464 13.62
362 1 -1.1104 6.76329 -0.106749 14.9171
357 1 -1.1104 6.83714 0.169514 17.8136
346 1 -1.1104 6.59613 -2.71174 17.8057
386 2 2.2208 11.0526 1.30411 16.5021
387 1 -1.1104 12.6413 -2.81798 18.1827
388 1 -1.1104 12.3676 2.59957 17.965
389 1 -1.1104 12.3906 -2.76629 15.1993
391 1 -1.1104 12.2788 2.89601 15.1974
393 1 -1.1104 12.4175 -0.11896 17.8557
394 2 2.2208 11.0457 -1.51806 19.4291
395 2 2.2208 11.0157 4.216 19.3272
396 1 -1.1104 12.5416 0.0301712 15.0503
398 1 -1.1104 9.62035 -2.89252 18.0715
399 1 -1.1104 9.51712 2.72802 17.9785
400 2 2.2208 8.20745 1.44202 19.3173
401 1 -1.1104 9.54907 -2.74559 15.2237
403 1 -1.1104 9.60977 2.7131 15.0032
405 2 2.2208 8.2366 -1.44276 16.555
407 1 -1.1104 9.71005 -0.080514 18.0034
408 1 -1.1104 9.62643 -0.0895168 15.24
406 2 2.2208 8.1547 4.09612 16.4672
9713 2 2.2208 -0.389391 20.9917 13.6992
418 2 2.2208 10.8436 4.22643 13.7266
9826 2 2.2208 -0.27295 12.656 16.4967
574 2 2.2208 -0.243818 -4.25718 22.2409
580 2 2.2208 -0.308272 1.23568 22.1821
576 2 2.2208 5.37532 -4.24935 22.1189
327 2 2.2208 2.47444 12.5576 13.7652
419 2 2.2208 5.36754 6.96045 16.5826
420 2 2.2208 5.37642 12.5634 16.5874
421 1 -1.1104 1.06557 8.23966 18.0247
423 1 -1.1104 1.16866 8.43934 15.1152
427 1 -1.1104 1.25081 5.47253 17.9553
428 1 -1.1104 1.21821 11.2739 17.9902
431 2 2.2208 5.20116 9.83424 19.4148
432 1 -1.1104 1.21115 5.5954 15.0599
434 1 -1.1104 1.11171 11.1557 15.191
440 1 -1.1104 3.85455 8.36779 18.1346
441 2 2.2208 2.48554 6.89791 19.4038
442 2 2.2208 2.47656 12.748 19.4434
443 1 -1.1104 3.88467 8.45037 15.1456
445 2 2.2208 2.64034 9.88556 16.5033
446 1 -1.1104 3.97328 5.6927 17.9547
447 1 -1.1104 3.97517 11.3257 17.9258
448 1 -1.1104 4.15225 5.53958 15.0856
450 1 -1.1104 3.95129 11.2499 15.0967
436 1 -1.1104 6.76221 5.59436 15.2427
452 2 2.2208 2.54752 6.98947 13.6709
429 1 -1.1104 6.80072 5.61959 18.1713
326 2 2.2208 5.3353 9.97282 13.6691
9860 2 2.2208 -0.24762 9.73799 19.3866
415 2 2.2208 8.07564 21.1609 22.2658
425 1 -1.1104 6.60835 8.62551 15.0785
422 1 -1.1104 6.74566 8.55702 17.8551
430 1 -1.1104 6.67665 11.2484 17.9741
438 1 -1.1104 6.75286 11.3284 15.2601
455 2 2.2208 10.9991 7.01951 16.52
456 2 2.2208 10.9222 12.647 16.5274
457 1 -1.1104 12.4133 8.46321 18.0404
458 1 -1.1104 12.3805 8.43253 15.1393
460 1 -1.1104 12.4129 5.58078 17.9776
461 1 -1.1104 12.2637 11.2247 17.7775
462 2 2.2208 10.8025 9.76026 19.2707
463 1 -1.1104 12.2491 5.66816 15.2663
465 1 -1.1104 12.3516 11.2933 15.1511
467 1 -1.1104 9.49437 8.38187 18.009
468 2 2.2208 8.20065 6.99111 19.3522
469 2 2.2208 8.01585 12.5605 19.5253
470 1 -1.1104 9.40834 8.36374 15.1267
472 2 2.2208 8.1326 9.88546 16.5269
473 1 -1.1104 9.51988 5.41901 17.8308
474 1 -1.1104 9.47251 11.091 17.8546
475 1 -1.1104 9.41345 5.53958 15.0464
477 1 -1.1104 9.51072 11.2071 15.0491
328 2 2.2208 10.9988 9.76089 13.7615
479 2 2.2208 8.14048 7.03409 13.6956
577 2 2.2208 2.45641 -4.22862 24.8961
453 1 -1.1104 9.46059 16.8494 23.5469
665 1 -1.1104 9.50866 19.7272 23.802
332 2 2.2208 5.35273 15.3566 13.7863
413 2 2.2208 -0.291906 4.09562 19.2783
482 2 2.2208 5.28362 18.1494 16.6446
483 1 -1.1104 1.16463 14.018 17.8578
484 1 -1.1104 1.10499 19.7658 17.8349
487 1 -1.1104 1.07036 13.8806 15.0773
489 1 -1.1104 1.06023 19.6335 14.9851
495 1 -1.1104 1.07865 16.9531 17.973
497 2 2.2208 5.26448 15.5059 19.3858
498 2 2.2208 5.26744 20.9351 19.4941
499 1 -1.1104 1.02062 16.8369 15.0604
503 1 -1.1104 3.93531 14.1353 17.9572
504 1 -1.1104 4.05294 19.5707 18.044
505 2 2.2208 2.55568 18.2291 19.3579
506 1 -1.1104 4.00169 13.9101 15.0993
508 1 -1.1104 3.91151 19.5535 15.2435
510 2 2.2208 2.58207 15.4729 16.4982
511 2 2.2208 2.54222 21 16.5491
512 1 -1.1104 3.91153 16.8552 17.9267
513 1 -1.1104 3.93508 16.8699 15.1637
516 2 2.2208 8.14404 18.2364 25.1597
486 1 -1.1104 6.80675 19.6121 18.161
417 2 2.2208 11.0063 -1.37685 13.8134
608 1 -1.1104 12.381 13.9214 23.4543
9931 2 2.2208 -0.259438 15.4665 19.2551
9861 2 2.2208 -0.137424 7.02068 16.5185
334 2 2.2208 10.8843 15.3892 13.7618
485 1 -1.1104 6.58947 14.0245 18.1363
501 1 -1.1104 6.60949 16.7682 15.2961
493 1 -1.1104 6.72882 19.6493 15.2311
496 1 -1.1104 6.67318 16.7427 18.0447
491 1 -1.1104 6.78168 14.0786 15.0703
518 2 2.2208 10.771 18.1366 16.621
519 1 -1.1104 12.4049 14.0337 18.0511
520 1 -1.1104 12.3128 19.4807 17.9687
521 1 -1.1104 12.3403 14.0634 15.1291
523 1 -1.1104 12.2443 19.625 15.0683
525 1 -1.1104 12.133 16.7444 17.8911
526 2 2.2208 10.9684 15.2088 19.3512
527 2 2.2208 10.9153 20.9308 19.3186
528 1 -1.1104 12.1059 16.8222 15.0894
530 1 -1.1104 9.54815 13.8808 17.9038
531 1 -1.1104 9.49742 19.5056 17.9304
532 2 2.2208 8.09318 18.2455 19.4662
533 1 -1.1104 9.5262 14.0564 15.1639
535 1 -1.1104 9.47964 19.6177 15.022
537 2 2.2208 8.19121 15.3641 16.5719
538 2 2.2208 8.13448 20.9923 16.6371
539 1 -1.1104 9.39842 16.7035 17.901
540 1 -1.1104 9.35129 16.7989 15.1907
336 2 2.2208 7.98294 18.2061 13.8157
492 1 -1.1104 6.73285 14.0031 20.9189
333 2 2.2208 10.9169 21.0721 13.6863
579 2 2.2208 -0.209087 -1.31501 24.9343
377 2 2.2208 5.49918 -4.2164 16.32
351 1 -1.1104 1.15369 2.80368 20.6629
349 1 -1.1104 1.29853 -2.82429 20.8751
368 1 -1.1104 3.99937 -2.75942 20.7538
375 1 -1.1104 3.81346 0.0487529 20.7613
546 2 2.2208 5.30079 1.50063 22.0903
547 1 -1.1104 1.17748 -2.66453 23.5635
548 1 -1.1104 0.998855 2.76039 23.5031
551 1 -1.1104 1.09921 -2.88147 26.3662
552 1 -1.1104 1.23987 2.85153 26.3852
555 1 -1.1104 1.05835 0.0183057 23.4589
557 2 2.2208 5.34342 -1.39473 25.0031
559 1 -1.1104 1.11471 0.135625 26.4091
561 1 -1.1104 3.91068 -2.78003 23.3794
562 1 -1.1104 3.87669 2.85145 23.5066
563 2 2.2208 2.58359 1.492 24.9852
564 1 -1.1104 3.85993 -2.85177 26.2762
565 1 -1.1104 4.05692 2.90884 26.3092
566 2 2.2208 2.52443 -1.4303 22.1448
567 2 2.2208 2.3981 4.26829 22.1006
568 1 -1.1104 3.92174 0.116084 23.6507
569 1 -1.1104 3.82121 -0.0437676 26.3929
558 2 2.2208 5.41594 4.21725 24.8905
550 1 -1.1104 6.79894 2.96015 23.6138
553 1 -1.1104 6.72448 -2.75537 26.413
549 1 -1.1104 6.68839 -2.68241 23.5834
554 1 -1.1104 6.81997 2.7413 26.428
560 1 -1.1104 6.59053 -0.0125666 26.3654
353 1 -1.1104 6.6828 -2.76792 20.7704
355 1 -1.1104 6.84075 2.72705 20.7231
556 1 -1.1104 6.62844 0.0152992 23.5542
409 1 -1.1104 9.59157 -0.0534541 20.8984
673 1 -1.1104 6.71767 19.6274 23.7668
363 1 -1.1104 6.74791 0.019721 20.6513
572 1 -1.1104 6.66002 16.9068 23.8125
402 1 -1.1104 9.40086 -2.88424 20.8183
404 1 -1.1104 9.54625 2.6539 20.861
392 1 -1.1104 12.2543 2.74071 20.6637
390 1 -1.1104 12.2694 -2.97875 20.8372
397 1 -1.1104 12.2595 -0.0720955 20.8104
582 2 2.2208 10.8472 1.40626 22.3093
583 1 -1.1104 12.3877 -2.73664 23.5358
584 1 -1.1104 12.3133 2.88659 23.6372
585 1 -1.1104 12.4039 -2.76318 26.478
586 1 -1.1104 12.3435 2.82843 26.4575
587 1 -1.1104 12.4468 0.00562422 23.6795
588 2 2.2208 11.0066 -1.32264 25.1778
589 2 2.2208 10.8583 4.2303 24.9471
590 1 -1.1104 12.3681 0.166117 26.5279
591 1 -1.1104 9.47883 -2.78588 23.6416
592 1 -1.1104 9.42931 2.73636 23.5883
593 2 2.2208 8.16989 1.23932 25.0465
594 1 -1.1104 9.7116 -2.7913 26.4538
595 1 -1.1104 9.6429 2.76579 26.3778
596 2 2.2208 7.98901 -1.31003 22.1529
597 2 2.2208 8.21878 4.17412 22.2074
598 1 -1.1104 9.59014 0.120774 23.6732
599 1 -1.1104 9.54244 0.0663719 26.4106
331 2 2.2208 5.34601 21.111 13.8129
640 2 2.2208 11.0438 15.3333 25.1288
449 1 -1.1104 3.94255 5.58582 20.7794
433 1 -1.1104 1.12006 5.66453 20.7986
435 1 -1.1104 1.17943 11.1697 20.7019
481 1 -1.1104 9.60586 14.1374 26.3819
437 1 -1.1104 6.74078 5.63925 20.9716
444 1 -1.1104 3.88297 8.49466 20.7749
424 1 -1.1104 1.14379 8.43619 20.7785
451 1 -1.1104 3.79816 11.1767 20.6851
611 2 2.2208 5.47392 6.96669 22.3176
612 2 2.2208 5.32768 12.6695 22.1723
613 1 -1.1104 1.07844 8.45301 23.5158
615 1 -1.1104 1.17714 8.52343 26.3758
617 1 -1.1104 1.13934 5.58849 23.5585
618 1 -1.1104 1.16506 11.2555 23.5189
621 2 2.2208 5.34339 9.90621 24.9183
622 1 -1.1104 1.19406 5.78624 26.3568
623 1 -1.1104 1.1563 11.0844 26.4868
626 1 -1.1104 3.93364 8.35426 23.6856
627 2 2.2208 2.48335 7.02938 24.9165
628 2 2.2208 2.45003 12.6126 25.0091
629 1 -1.1104 3.82824 8.33894 26.404
630 2 2.2208 2.48888 9.70834 22.0941
631 1 -1.1104 3.90006 5.59215 23.5263
632 1 -1.1104 3.9141 11.2168 23.4497
633 1 -1.1104 3.89051 5.70897 26.4433
634 1 -1.1104 4.12387 11.2873 26.4313
625 1 -1.1104 6.76128 11.1959 26.3068
624 1 -1.1104 6.74133 5.63921 26.3405
619 1 -1.1104 6.84363 5.6643 23.6719
616 1 -1.1104 6.70823 8.42037 26.3786
536 1 -1.1104 9.58703 19.5511 20.8082
663 1 -1.1104 12.5215 16.7996 26.2377
439 1 -1.1104 6.68487 11.2431 20.7444
426 1 -1.1104 6.65612 8.37803 20.8046
620 1 -1.1104 6.67093 11.2806 23.5694
614 1 -1.1104 6.81787 8.42715 23.5668
459 1 -1.1104 12.1698 8.35189 20.6637
478 1 -1.1104 9.38805 11.2003 20.8139
466 1 -1.1104 12.1698 11.1474 20.5812
471 1 -1.1104 9.49571 8.33009 20.7093
476 1 -1.1104 9.54208 5.43315 20.7224
464 1 -1.1104 12.3843 5.59678 20.747
642 1 -1.1104 9.65011 11.2917 26.2763
643 1 -1.1104 9.44296 5.54732 26.3282
644 1 -1.1104 9.50494 11.2139 23.5321
645 1 -1.1104 9.4838 5.59018 23.5723
646 2 2.2208 8.05735 9.78485 22.0605
647 1 -1.1104 9.50729 8.462 26.3932
648 2 2.2208 8.10438 12.7132 24.9811
649 2 2.2208 8.18952 7.01233 24.9486
650 2 2.2208 10.8315 6.99138 22.0426
651 2 2.2208 10.9234 12.6346 22.2021
652 1 -1.1104 12.335 8.31054 23.4873
653 1 -1.1104 12.3734 8.46281 26.4034
654 1 -1.1104 12.3008 5.53417 23.6268
655 1 -1.1104 12.2314 11.1177 23.4193
656 2 2.2208 10.86 9.69226 24.9741
657 1 -1.1104 12.4882 5.68749 26.3916
658 1 -1.1104 12.3515 11.2575 26.3561
659 1 -1.1104 9.52872 8.47896 23.4747
541 1 -1.1104 9.55197 16.9026 20.7727
534 1 -1.1104 9.57484 14.0673 20.8564
669 1 -1.1104 6.7138 16.7939 26.4509
676 1 -1.1104 6.74683 13.9324 23.6484
502 1 -1.1104 6.68116 16.7878 21.0101
529 1 -1.1104 12.2903 16.7337 20.6997
500 1 -1.1104 1.10525 16.7754 20.6852
494 1 -1.1104 6.63027 19.5799 20.9084
515 1 -1.1104 6.78181 19.6959 26.5254
488 1 -1.1104 1.19185 14.1106 20.9298
514 1 -1.1104 3.92749 16.8871 20.702
509 1 -1.1104 3.80371 19.5963 20.6496
507 1 -1.1104 3.91224 14.0092 20.7196
490 1 -1.1104 1.05411 19.5057 20.5559
667 1 -1.1104 6.694 14.0192 26.3964
543 2 2.2208 2.50031 15.3943 22.1869
544 2 2.2208 2.47528 20.91 22.0771
545 1 -1.1104 3.85493 16.8973 23.689
570 1 -1.1104 1.03182 16.8786 23.4734
578 1 -1.1104 3.8355 14.0583 26.4173
600 1 -1.1104 3.79263 16.8528 26.6021
602 2 2.2208 2.44867 18.2869 24.9595
666 1 -1.1104 3.94437 19.7544 23.4358
668 1 -1.1104 3.97009 14.0571 23.6456
670 1 -1.1104 1.0863 19.7128 26.0376
671 1 -1.1104 1.01255 16.9863 26.2718
672 1 -1.1104 1.06194 14.006 26.4913
674 2 2.2208 5.36311 21.0911 25.1038
675 2 2.2208 5.24845 15.4435 25.0758
677 1 -1.1104 1.05654 19.6495 23.2674
678 1 -1.1104 0.974227 13.9859 23.7358
679 2 2.2208 5.30271 18.2647 22.3125
680 1 -1.1104 3.79187 19.7053 26.3674
524 1 -1.1104 12.313 19.5017 20.783
639 1 -1.1104 12.3523 16.6366 23.4724
638 1 -1.1104 12.4378 19.6008 26.3123
454 1 -1.1104 9.73807 16.9659 26.3755
414 2 2.2208 8.17147 15.4685 22.2296
641 2 2.2208 10.8425 21.1308 25.0894
603 2 2.2208 10.9457 18.0737 22.2731
664 1 -1.1104 9.63899 14.0439 23.6586
609 1 -1.1104 12.2015 19.4745 23.4924
605 2 2.2208 10.8704 -4.13696 22.2078
9788 2 2.2208 -0.412489 21.2339 24.8324
382 2 2.2208 -0.179051 4.21049 13.7509
330 2 2.2208 2.5291 18.2071 13.7915
335 2 2.2208 2.52151 21.1556 27.7571
9864 2 2.2208 -0.214596 12.5769 22.1673
9888 2 2.2208 -0.337898 9.83969 24.9867
380 2 2.2208 -0.229937 -1.54668 19.2991
10011 2 2.2208 13.6735 9.73312 22.0672
376 2 2.2208 -0.268046 -4.22238 16.512
9894 2 2.2208 13.7869 -1.46253 22.1623
9711 2 2.2208 13.6892 18.0637 13.7418
9932 2 2.2208 -0.35467 18.2383 16.5137
571 2 2.2208 2.65759 -1.4126 27.7465
573 2 2.2208 -0.265608 -4.19761 27.6893
381 2 2.2208 -0.317749 -1.36469 13.6106
9712 2 2.2208 -0.317966 15.491 13.6706
329 2 2.2208 8.17852 12.6466 13.6826
681 2 2.2208 5.3725 23.8017 5.2963
682 2 2.2208 5.26075 29.4341 5.41451
683 1 -1.1104 0.986313 25.0968 1.16387
684 1 -1.1104 1.00242 25.2988 3.87321
685 1 -1.1104 1.01415 22.3615 1.05078
686 1 -1.1104 1.09858 27.9981 1.15756
687 2 2.2208 5.2677 26.7226 2.49061
688 1 -1.1104 1.1699 22.4315 3.82391
689 1 -1.1104 0.934601 28.1605 3.96509
690 1 -1.1104 3.73065 25.4053 0.984139
691 2 2.2208 2.46588 23.7283 2.36247
692 2 2.2208 2.50721 29.4588 2.52531
693 1 -1.1104 3.79974 25.2295 4.06869
694 2 2.2208 2.35524 26.7576 5.27513
695 1 -1.1104 3.81911 22.5285 1.05435
696 1 -1.1104 4.03007 28.2553 1.04567
697 1 -1.1104 4.00363 22.4525 3.88551
698 1 -1.1104 3.83635 27.9822 3.93717
1015 2 2.2208 5.42122 24.0039 -0.287757
699 2 2.2208 -0.474243 29.5071 5.45048
706 1 -1.1104 6.83716 22.5001 3.78984
704 1 -1.1104 6.62217 22.5002 1.02023
10354 2 2.2208 13.5385 40.6502 8.16021
701 2 2.2208 -0.440296 26.6714 2.45213
1300 2 2.2208 -0.278094 35.0947 -0.197519
1240 2 2.2208 5.3456 29.5838 -0.255567
1017 2 2.2208 5.3202 46.3225 -0.0828622
702 1 -1.1104 6.79459 25.2443 1.05697
703 1 -1.1104 6.5299 25.2802 3.92999
705 1 -1.1104 6.64787 28.1497 1.16063
707 1 -1.1104 6.71214 28.0741 3.95022
708 2 2.2208 10.8416 23.9849 5.35457
709 2 2.2208 10.8632 29.4688 5.44001
710 1 -1.1104 12.3194 25.2652 1.15843
711 1 -1.1104 12.1946 25.2163 3.91606
712 1 -1.1104 12.2734 22.4021 1.04378
713 1 -1.1104 12.2913 28.1082 1.09837
714 2 2.2208 10.8753 26.6969 2.51527
715 1 -1.1104 12.2238 22.5859 3.91338
716 1 -1.1104 12.0854 28.2116 3.91914
717 1 -1.1104 9.4532 25.3074 1.12738
718 2 2.2208 8.12488 23.9226 2.54722
719 2 2.2208 8.04411 29.4493 2.52924
720 1 -1.1104 9.40988 25.3286 3.94592
721 2 2.2208 7.90604 26.7537 5.32949
722 1 -1.1104 9.63762 22.5481 1.33023
723 1 -1.1104 9.48817 27.9945 1.0311
724 1 -1.1104 9.4043 22.6156 4.01714
725 1 -1.1104 9.29716 27.935 3.9214
1269 2 2.2208 8.04804 26.7959 -0.345636
1019 2 2.2208 10.8234 23.9172 -0.133425
1274 2 2.2208 10.8882 29.4583 -0.163248
1297 2 2.2208 2.35063 37.9992 -0.180701
729 2 2.2208 5.20853 35.029 5.37092
730 1 -1.1104 1.03899 30.8643 1.31368
731 1 -1.1104 0.915478 36.5183 1.19807
733 1 -1.1104 1.11393 30.8261 4.04677
734 1 -1.1104 1.08392 36.4651 4.05589
736 1 -1.1104 1.06023 33.791 1.23403
737 2 2.2208 5.27124 32.2977 2.69199
738 2 2.2208 5.2016 37.8616 2.62716
739 1 -1.1104 1.08906 33.6469 3.98382
741 1 -1.1104 3.87103 30.9663 1.19502
742 1 -1.1104 3.70514 36.5068 1.1281
743 2 2.2208 2.34231 35.107 2.62236
744 1 -1.1104 3.94273 30.8038 3.82796
745 1 -1.1104 3.91291 36.5141 3.91022
746 2 2.2208 2.47956 32.2125 5.36753
747 2 2.2208 2.36033 38.0073 5.47065
748 1 -1.1104 3.86412 33.8723 1.30969
749 1 -1.1104 3.91109 33.5596 3.97382
735 1 -1.1104 6.74708 36.4991 3.87341
1022 2 2.2208 5.28541 40.7811 -0.190521
971 2 2.2208 -0.304687 46.4574 11.0205
752 2 2.2208 -0.278301 35.2176 5.36712
1021 2 2.2208 -0.394079 40.8009 -0.192653
880 1 -1.1104 0.985446 36.5924 6.89093
885 1 -1.1104 3.80079 30.811 6.67619
1299 2 2.2208 5.2052 35.1545 -0.192569
1025 2 2.2208 7.93352 37.9509 -0.215092
740 1 -1.1104 6.70839 33.5651 4.00502
755 1 -1.1104 6.63086 33.695 1.12915
732 1 -1.1104 6.57088 36.5252 1.09308
754 1 -1.1104 6.79587 30.8264 4.03129
753 1 -1.1104 6.6184 30.9623 1.12343
756 2 2.2208 10.8277 35.0484 5.41106
757 1 -1.1104 12.3525 30.8967 1.24092
758 1 -1.1104 12.0613 36.6012 1.0278
759 1 -1.1104 12.259 30.896 4.06613
760 1 -1.1104 12.286 36.4918 3.86465
761 1 -1.1104 12.0828 33.8031 1.22625
762 2 2.2208 10.8171 32.2549 2.6747
763 2 2.2208 10.9304 37.9414 2.53491