ITEM: TIMESTEP
100000
ITEM: NUMBER OF ATOMS
17820
ITEM: BOX BOUNDS pp pp pp
-3.5598789151437737e-01 2.7695987891514161e+01
-4.2312721932514918e+00 3.3231127219324031e+02
-3.5745577868146716e-01 2.7697455778681153e+01
ITEM: ATOMS id type q x y z
1 2 2.2208 5.25124 1.46005 5.17247
2 1 -1.1104 1.0496 -2.84829 1.08807
3 1 -1.1104 0.997676 2.90486 1.20568
6 1 -1.1104 1.22459 -2.67602 3.93315
7 1 -1.1104 0.850001 2.9991 3.86366
10 1 -1.1104 0.928948 0.112515 1.06234
12 2 2.2208 5.30326 -1.42353 2.3883
14 1 -1.1104 0.878474 0.109786 3.86608
16 1 -1.1104 3.77974 -2.74366 0.990176
17 1 -1.1104 3.70213 2.81642 1.04158
18 2 2.2208 2.4431 1.42424 2.4202
19 1 -1.1104 4.05446 -2.71314 3.79595
20 1 -1.1104 3.74388 2.86086 3.88975
21 2 2.2208 2.53906 -1.22409 5.27644
23 1 -1.1104 3.71007 0.0902741 1.04494
24 1 -1.1104 3.90418 0.0946774 3.80503
13 2 2.2208 5.08459 4.34003 2.43633
170 1 -1.1104 0.992435 0.0308113 6.67467
9 1 -1.1104 6.55465 2.90266 3.77807
4 1 -1.1104 6.60706 -2.85934 1.08025
11 1 -1.1104 6.49211 0.115155 1.11482
15 1 -1.1104 6.67188 -0.0678351 3.83506
174 1 -1.1104 3.73808 0.134467 6.77615
173 1 -1.1104 3.7895 2.99266 6.62654
168 1 -1.1104 6.61676 -2.64665 6.50503
9384 2 2.2208 13.5111 4.28668 5.29549
5 1 -1.1104 6.54478 2.93525 1.11834
172 1 -1.1104 3.80393 -2.80017 6.65221
167 1 -1.1104 1.07081 2.95843 6.5431
169 1 -1.1104 6.56878 2.96123 6.58879
171 1 -1.1104 6.64744 0.127584 6.60328
342 2 2.2208 7.99059 4.31396 -0.381227
200 2 2.2208 -0.277844 -1.32845 8.10764
8 1 -1.1104 6.79858 -2.82483 3.79445
31 2 2.2208 10.8517 1.41565 5.21535
32 1 -1.1104 12.2788 -2.69285 1.1879
33 1 -1.1104 12.1452 2.93501 1.0418
34 1 -1.1104 12.2194 -2.82471 3.88204
35 1 -1.1104 12.2986 2.84725 3.91833
36 1 -1.1104 12.0804 0.0858088 0.890516
37 2 2.2208 10.8163 -1.34416 2.48703
38 2 2.2208 10.7799 4.30218 2.43191
39 1 -1.1104 12.2105 -0.023167 3.75473
40 1 -1.1104 9.55629 -2.72688 0.897683
41 1 -1.1104 9.20179 2.95031 1.04935
42 2 2.2208 8.04782 1.64736 2.53847
43 1 -1.1104 9.60234 -2.88689 3.71442
44 1 -1.1104 9.4043 2.91891 3.91903
45 2 2.2208 8.09096 -1.43111 5.24636
47 1 -1.1104 9.25264 0.144452 1.07261
48 1 -1.1104 9.43175 0.152349 3.91146
46 2 2.2208 8.03443 4.2584 5.26745
9690 2 2.2208 13.6127 18.265 2.5903
637 2 2.2208 5.2232 12.5206 -0.28164
209 1 -1.1104 9.50099 2.76798 6.42739
9692 2 2.2208 -0.363308 21.0522 8.03243
210 1 -1.1104 9.59115 -0.050683 6.60401
205 1 -1.1104 12.3282 -2.77061 6.62933
206 1 -1.1104 12.1879 2.89788 6.86281
328 2 2.2208 10.8435 10.0505 13.706
22 2 2.2208 2.35111 4.3474 5.23351
54 2 2.2208 5.18346 7.05295 5.28317
55 2 2.2208 5.3116 12.7645 5.3
56 1 -1.1104 0.807054 8.43349 1.13006
58 1 -1.1104 0.843505 8.58351 3.9282
60 1 -1.1104 0.990769 5.60058 1.0237
61 1 -1.1104 0.871615 11.3763 1.11012
66 2 2.2208 5.15217 9.91645 2.47018
67 1 -1.1104 0.950965 5.80611 3.91163
68 1 -1.1104 0.956366 11.2679 4.04384
71 1 -1.1104 3.90979 8.38769 1.10114
72 2 2.2208 2.26696 6.98252 2.4785
73 2 2.2208 2.35555 12.6942 2.61125
74 1 -1.1104 3.71806 8.37542 3.87547
75 2 2.2208 2.33771 9.80359 5.28072
76 1 -1.1104 3.75335 5.59875 1.11289
77 1 -1.1104 3.65641 11.1876 1.18039
79 1 -1.1104 3.84466 5.70753 3.92984
80 1 -1.1104 3.92523 11.2547 3.79388
236 1 -1.1104 0.965021 5.74018 6.68895
59 1 -1.1104 6.73705 8.43901 3.79194
70 1 -1.1104 6.6643 11.2368 3.76419
57 1 -1.1104 6.59543 8.33627 0.985767
64 1 -1.1104 6.55197 11.2955 1.04458
63 1 -1.1104 6.62649 5.57485 1.11867
69 1 -1.1104 6.56797 5.76331 3.91347
237 1 -1.1104 6.59167 5.7776 6.68778
384 2 2.2208 2.31161 1.45475 13.6329
239 1 -1.1104 3.7445 5.68881 6.79797
234 1 -1.1104 1.05854 8.45511 6.75562
238 1 -1.1104 3.82085 8.47687 6.65862
316 2 2.2208 8.08465 21.1179 10.8441
9711 2 2.2208 13.5831 18.2467 13.6373
9688 2 2.2208 13.5525 6.88332 2.49267
84 2 2.2208 10.8045 7.08016 5.2453
85 2 2.2208 10.743 12.7753 5.32734
86 1 -1.1104 12.1566 8.5925 1.09121
87 1 -1.1104 12.2601 8.53218 3.80406
88 1 -1.1104 12.2804 5.66359 1.05149
89 1 -1.1104 12.2115 11.4426 0.880827
91 2 2.2208 10.7793 10.0257 2.44179
92 1 -1.1104 12.1277 5.70818 3.86044
93 1 -1.1104 12.2108 11.3308 3.74579
94 1 -1.1104 9.40865 8.5399 0.990433
95 2 2.2208 7.94073 7.06964 2.42804
96 2 2.2208 8.05952 12.7686 2.41252
97 1 -1.1104 9.48524 8.47647 3.72937
98 2 2.2208 7.88969 9.87869 5.25855
99 1 -1.1104 9.39775 5.69511 0.941498
100 1 -1.1104 9.27739 11.2879 1.03211
102 1 -1.1104 9.38405 5.64336 3.83041
103 1 -1.1104 9.47924 11.2719 3.87268
266 1 -1.1104 12.2087 5.73996 6.63164
269 1 -1.1104 9.31101 5.60297 6.70582
265 1 -1.1104 12.1631 8.52136 6.48808
53 2 2.2208 13.6156 -4.16973 2.55455
9482 2 2.2208 13.6542 15.4546 5.29657
90 1 -1.1104 12.0818 11.4387 6.57131
267 1 -1.1104 9.4474 8.39344 6.61392
106 2 2.2208 5.17785 18.2462 5.29986
107 1 -1.1104 0.909872 14.2214 1.13886
109 1 -1.1104 0.955842 19.5895 1.10608
113 1 -1.1104 1.11055 14.0265 3.86625
114 1 -1.1104 1.11608 19.6494 3.85316
116 1 -1.1104 0.983719 16.8453 1.07083
119 2 2.2208 5.20178 15.4367 2.54491
120 2 2.2208 5.26156 21.0692 2.48982
121 1 -1.1104 1.01408 16.7388 3.89631
123 1 -1.1104 3.72048 14.0184 1.19933
125 1 -1.1104 3.86028 19.7578 1.06937
127 2 2.2208 2.42241 18.2575 2.39096
128 1 -1.1104 3.82445 14.1697 3.95634
129 1 -1.1104 3.92139 19.577 3.77854
130 2 2.2208 2.42704 15.4818 5.25681
131 2 2.2208 2.4921 21.1652 5.23003
132 1 -1.1104 3.83973 16.7835 1.02825
134 1 -1.1104 3.77422 16.8366 3.94101
110 1 -1.1104 6.56757 13.9157 0.977003
140 1 -1.1104 6.56633 16.828 1.0409
302 1 -1.1104 1.07347 19.6683 6.57865
118 1 -1.1104 6.68041 17.0492 6.63613
138 1 -1.1104 6.58181 19.6516 1.04887
115 1 -1.1104 6.76411 14.0107 3.92143
133 1 -1.1104 3.83808 17.0325 6.73993
124 1 -1.1104 3.89666 14.2835 6.62711
108 1 -1.1104 1.00108 14.1021 6.60573
117 1 -1.1104 0.997246 16.9075 6.8146
9595 2 2.2208 13.6089 7.07825 8.0102
9413 2 2.2208 13.6372 9.93337 5.11923
517 2 2.2208 2.35573 15.4663 -0.293496
139 1 -1.1104 6.65195 19.811 3.90287
122 1 -1.1104 6.62584 16.9214 3.81721
163 1 -1.1104 9.42801 17.0653 6.6772
141 2 2.2208 10.8313 18.2849 5.28857
142 1 -1.1104 12.186 14.1807 1.01921
144 1 -1.1104 12.0527 19.7648 1.15859
146 1 -1.1104 12.2309 14.0857 3.9567
147 1 -1.1104 12.2 19.6257 3.85061
148 1 -1.1104 12.232 16.962 1.0567
150 2 2.2208 10.7889 15.4017 2.48883
151 2 2.2208 10.7105 21.0785 2.49262
152 1 -1.1104 12.2407 16.8342 3.88309
153 1 -1.1104 9.49881 14.0168 1.05526
155 1 -1.1104 9.34087 19.6706 1.0563
157 2 2.2208 7.92499 18.1988 2.51009
158 1 -1.1104 9.4053 14.1541 3.93642
159 1 -1.1104 9.41861 19.6953 3.79655
160 2 2.2208 7.96138 15.5533 5.35258
161 2 2.2208 8.04867 21.2295 5.313
162 1 -1.1104 9.28144 16.7617 1.08212
164 1 -1.1104 9.38226 16.8131 3.93253
149 1 -1.1104 12.1897 17.091 6.60215
145 1 -1.1104 12.2099 19.7684 6.60749
9691 2 2.2208 13.5545 1.37891 8.00258
111 1 -1.1104 6.7414 14.1234 6.76925
143 1 -1.1104 11.9586 14.1449 6.69446
154 1 -1.1104 9.3387 14.2465 6.66152
166 1 -1.1104 0.951582 -2.88302 6.78352
165 1 -1.1104 12.144 16.8622 12.1804
175 2 2.2208 5.23423 1.41919 10.7926
176 1 -1.1104 0.959408 -2.6782 12.2884
177 1 -1.1104 0.834144 2.94111 12.2746
180 1 -1.1104 1.17297 -2.70964 9.37312
181 1 -1.1104 0.972531 2.87471 9.26548
184 1 -1.1104 1.03121 0.127061 12.2978
186 2 2.2208 5.29658 -1.35637 8.04437
188 1 -1.1104 0.976946 0.161316 9.53287
190 1 -1.1104 3.74525 -2.88707 12.3273
191 1 -1.1104 3.76673 2.83673 12.2666
192 2 2.2208 2.42314 1.45974 8.0431
193 1 -1.1104 3.91129 -2.856 9.54046
194 1 -1.1104 3.64691 2.85989 9.51517
195 2 2.2208 2.52836 -1.34481 10.9844
197 1 -1.1104 3.97071 0.0704778 12.3301
198 1 -1.1104 3.7996 -0.0805581 9.48117
196 2 2.2208 2.35591 4.3497 10.8732
187 2 2.2208 5.2084 4.30903 8.1184
185 1 -1.1104 6.62432 0.0164992 12.3403
179 1 -1.1104 6.6349 2.88005 12.2299
183 1 -1.1104 6.4779 2.85811 9.28382
178 1 -1.1104 6.55711 -2.75104 12.1106
182 1 -1.1104 6.77209 -2.71404 9.37287
29 2 2.2208 5.27879 -4.20779 5.24972
9461 2 2.2208 13.604 21.0727 5.20893
230 2 2.2208 13.4652 -1.41688 10.7923
82 2 2.2208 10.9181 18.397 10.8293
207 1 -1.1104 12.2916 0.0626662 6.63663
9824 2 2.2208 13.6212 9.85013 -0.367809
208 1 -1.1104 9.37304 -2.76492 6.59621
9646 2 2.2208 13.7036 21.0549 10.7894
452 2 2.2208 2.4032 7.17965 13.6954
313 1 -1.1104 9.3048 14.1741 12.3118
189 1 -1.1104 6.68602 0.01464 9.33099
211 2 2.2208 10.7922 1.33516 10.8749
212 1 -1.1104 12.2183 -2.84758 12.1522
213 1 -1.1104 12.2984 2.75494 12.2752
214 1 -1.1104 12.2056 -2.89738 9.35043
215 1 -1.1104 12.2436 2.92441 9.54664
216 1 -1.1104 12.126 -0.0269063 12.2863
217 2 2.2208 10.8756 -1.49947 8.0414
219 1 -1.1104 12.0829 -0.03058 9.33586
220 1 -1.1104 9.3576 -2.68602 12.187
221 1 -1.1104 9.33277 2.75723 12.2604
222 2 2.2208 8.06366 1.30062 7.9908
223 1 -1.1104 9.54753 -2.762 9.44962
224 1 -1.1104 9.55803 2.83696 9.3185
225 2 2.2208 8.06823 -1.33182 10.8986
226 2 2.2208 8.10601 4.34936 10.8227
227 1 -1.1104 9.40679 0.0296163 12.2473
228 1 -1.1104 9.30541 0.0149243 9.34939
218 2 2.2208 10.9125 4.26541 8.03308
319 1 -1.1104 9.33509 14.2827 9.46368
156 1 -1.1104 9.46391 19.8387 6.65208
49 2 2.2208 13.6241 1.39527 2.34744
202 2 2.2208 2.48409 -4.17554 8.04938
65 1 -1.1104 6.51962 11.2722 6.7288
62 1 -1.1104 1.15747 11.2163 6.74914
78 1 -1.1104 3.78516 11.4722 6.49586
240 2 2.2208 5.11248 7.12159 10.8303
241 2 2.2208 5.18116 12.6572 11.023
242 1 -1.1104 0.88214 8.51845 12.3092
244 1 -1.1104 0.969689 8.48178 9.47732
246 1 -1.1104 0.962387 5.66 12.2306
247 1 -1.1104 0.968016 11.2398 12.1401
250 2 2.2208 5.06089 9.93979 7.97049
251 1 -1.1104 0.985053 5.80502 9.55181
252 1 -1.1104 0.998127 11.306 9.5838
255 1 -1.1104 3.65213 8.51907 12.185
256 2 2.2208 2.44408 7.11551 8.04482
257 2 2.2208 2.49321 12.704 8.08132
258 1 -1.1104 3.79639 8.44659 9.48757
259 2 2.2208 2.34831 9.83369 10.8872
260 1 -1.1104 3.82294 5.75386 12.1905
261 1 -1.1104 3.84015 11.2517 12.2134
262 1 -1.1104 3.87382 5.59625 9.43719
263 1 -1.1104 3.78283 11.3206 9.47598
248 1 -1.1104 6.63766 5.70448 12.267
254 1 -1.1104 6.63022 11.4523 9.43497
235 1 -1.1104 6.5572 8.5532 6.57367
249 1 -1.1104 6.58425 11.2624 12.2519
245 1 -1.1104 6.45395 8.53898 9.25663
243 1 -1.1104 6.42837 8.60621 12.2163
253 1 -1.1104 6.63264 5.58534 9.5575
229 2 2.2208 10.7691 15.5363 8.04629
231 2 2.2208 8.03169 -4.16095 8.06026
311 2 2.2208 10.9124 21.3303 7.97859
28 2 2.2208 2.40884 -4.16771 2.46926
101 1 -1.1104 9.196 11.3028 6.68209
9684 2 2.2208 13.6175 15.4395 10.7909
312 1 -1.1104 12.3648 16.8823 9.52233
264 1 -1.1104 9.34786 11.3742 9.41371
268 1 -1.1104 9.41142 5.64518 9.44771
270 1 -1.1104 9.28639 11.4968 12.2609
271 1 -1.1104 9.40516 5.6444 12.2455
272 2 2.2208 7.86516 9.96411 10.728
273 1 -1.1104 9.30616 8.419 9.47733
274 2 2.2208 7.99831 12.6966 8.14346
275 2 2.2208 8.00258 7.00419 8.07865
276 2 2.2208 10.8282 7.14467 10.8681
277 2 2.2208 10.6701 12.7539 10.8217
278 1 -1.1104 12.1428 8.62924 12.2587
279 1 -1.1104 12.2488 8.43148 9.44929
280 1 -1.1104 12.1242 5.7794 12.2938
281 1 -1.1104 12.1056 11.3482 12.1314
282 2 2.2208 10.6538 9.90258 8.01131
283 1 -1.1104 12.1783 5.86752 9.41124
284 1 -1.1104 12.0765 11.2053 9.29243
285 1 -1.1104 9.32042 8.77262 12.284
9699 2 2.2208 13.5596 12.6751 13.5882
9600 2 2.2208 13.511 9.90638 10.8435
315 1 -1.1104 9.3407 17.0443 12.2038
318 1 -1.1104 9.43293 19.771 9.4017
112 1 -1.1104 6.68556 19.9209 6.61884
9596 2 2.2208 13.4401 12.726 8.03504
288 1 -1.1104 6.53447 19.7097 9.42849
306 1 -1.1104 6.59062 16.8552 12.3907
126 1 -1.1104 3.87005 19.6564 6.65345
290 1 -1.1104 6.55674 14.1033 9.46368
310 2 2.2208 2.30143 15.5157 10.8744
286 1 -1.1104 3.80639 19.624 12.2375
287 1 -1.1104 3.62804 13.9917 12.3325
291 1 -1.1104 1.00605 19.6784 9.54979
292 1 -1.1104 0.975164 16.8652 9.4707
293 2 2.2208 5.28397 21.2269 7.91505
294 1 -1.1104 0.949728 14.1068 9.41911
295 2 2.2208 5.2019 15.5115 8.13927
298 1 -1.1104 0.939581 19.6611 12.3299
299 1 -1.1104 0.772671 14.1577 12.2433
300 2 2.2208 5.10213 18.332 10.8675
301 1 -1.1104 3.77907 19.7939 9.41589
303 2 2.2208 2.43782 18.3402 8.07721
304 1 -1.1104 3.7072 16.8999 9.53278
305 1 -1.1104 3.76455 14.12 9.44438
307 1 -1.1104 1.00845 16.9565 12.336
308 1 -1.1104 3.86697 16.8952 12.3174
309 2 2.2208 2.33798 21.0544 10.9508
289 1 -1.1104 6.48698 16.8741 9.61975
297 1 -1.1104 6.62456 14.0567 12.253
30 2 2.2208 -0.282885 -4.1976 5.32955
320 2 2.2208 8.0594 18.4882 8.00172
314 1 -1.1104 9.43176 16.9871 9.44155
83 1 -1.1104 12.1341 14.1778 12.1245
9614 2 2.2208 -0.355384 7.09304 10.8441
321 1 -1.1104 9.48322 19.702 12.403
135 1 -1.1104 12.3038 19.7189 9.3368
104 1 -1.1104 12.1749 19.7162 12.2033
317 2 2.2208 8.00472 15.5611 10.9166
105 1 -1.1104 12.0436 14.0239 9.49291
296 1 -1.1104 6.64537 19.6577 12.2324
635 2 2.2208 5.20367 7.04596 -0.316189
410 2 2.2208 8.08558 15.4736 -0.328848
9687 2 2.2208 13.6317 12.7299 2.43439
571 2 2.2208 2.40324 -1.38613 -0.346364
137 2 2.2208 -0.380038 18.2569 5.24369
9697 2 2.2208 13.6097 7.05464 13.6112
331 2 2.2208 5.19806 21.0232 13.6291
604 2 2.2208 10.9029 -4.11701 -0.338029
575 2 2.2208 5.20978 -4.19195 -0.328631
326 2 2.2208 5.14098 9.95816 13.6689
334 2 2.2208 10.816 15.5351 13.5866
335 2 2.2208 2.34775 21.0733 -0.311104
383 2 2.2208 5.24059 -1.39081 13.6212
337 2 2.2208 7.98972 21.1475 -0.303212
338 2 2.2208 5.11489 1.42477 -0.226824
607 2 2.2208 13.5876 -1.22512 -0.282975
542 2 2.2208 5.1152 18.2121 -0.25137
385 2 2.2208 5.26136 4.40768 13.4937
324 2 2.2208 10.7923 18.3369 -0.307821
323 2 2.2208 8.07069 -4.21495 13.4635
325 2 2.2208 13.6778 -4.23627 13.5454
636 2 2.2208 2.31004 9.86656 -0.140962
343 2 2.2208 5.17595 1.33403 16.4921
344 1 -1.1104 0.9819 -2.81407 17.6665
345 1 -1.1104 1.03166 2.87585 17.9641
348 1 -1.1104 1.04132 -2.75704 14.9832
350 1 -1.1104 0.99071 3.06412 15.0431
356 1 -1.1104 0.934893 -0.00701975 18.0365
358 2 2.2208 5.36647 -1.39084 19.2976
360 1 -1.1104 0.910666 0.166538 15.1936
364 1 -1.1104 3.82697 -2.90728 17.9792
365 1 -1.1104 3.68868 2.82548 17.9268
366 2 2.2208 2.33862 1.34307 19.277
367 1 -1.1104 3.74905 -2.9743 15.1673
369 1 -1.1104 3.66544 2.86206 15.0706
371 2 2.2208 2.38354 -1.42325 16.4305
373 1 -1.1104 3.74081 0.00813364 17.8449
374 1 -1.1104 3.72792 -0.130938 15.0667
372 2 2.2208 2.42578 4.27934 16.4032
359 2 2.2208 5.05916 4.25288 19.3465
368 1 -1.1104 3.83899 -2.77479 20.9045
354 1 -1.1104 6.54882 3.00238 15.017
357 1 -1.1104 6.58516 0.0572281 17.9702
362 1 -1.1104 6.64757 -0.00174213 15.1888
370 1 -1.1104 3.9211 2.73177 20.644
347 1 -1.1104 6.4031 2.70057 17.9782
352 1 -1.1104 6.69341 -2.72357 14.8411
355 1 -1.1104 6.64308 2.8864 20.7687
606 2 2.2208 7.97297 -4.18199 24.8606
351 1 -1.1104 1.03026 2.88459 20.8499
375 1 -1.1104 3.72566 -0.0815261 20.7161
361 1 -1.1104 0.954959 0.0871344 20.6453
363 1 -1.1104 6.68715 0.160484 20.7505
412 2 2.2208 7.95926 -4.10697 19.1731
346 1 -1.1104 6.58612 -2.80377 17.8799
386 2 2.2208 10.8017 1.35757 16.5616
387 1 -1.1104 12.0991 -2.76216 17.8055
388 1 -1.1104 12.171 2.84463 17.8395
389 1 -1.1104 12.2848 -2.91515 14.8483
391 1 -1.1104 12.0777 2.68094 15.0666
393 1 -1.1104 12.3154 0.0950337 17.8508
394 2 2.2208 10.8135 -1.37162 19.2216
395 2 2.2208 10.8139 4.27399 19.2892
396 1 -1.1104 12.1815 -0.109642 15.1559
398 1 -1.1104 9.19643 -2.76348 17.8261
399 1 -1.1104 9.32222 2.92781 18.0436
400 2 2.2208 7.963 1.4602 19.3861
401 1 -1.1104 9.4973 -2.82444 15.0582
403 1 -1.1104 9.40104 2.88055 15.1919
405 2 2.2208 7.98114 -1.28963 16.4795
407 1 -1.1104 9.47726 0.200404 17.9371
408 1 -1.1104 9.29894 0.100104 15.0814
406 2 2.2208 7.89609 4.28829 16.5079
392 1 -1.1104 12.164 2.77309 20.6157
409 1 -1.1104 9.35857 -0.0307221 20.6476
378 2 2.2208 2.29897 -4.15094 19.2303
9952 2 2.2208 13.6314 4.18301 22.0747
402 1 -1.1104 9.60196 -2.72832 20.6791
397 1 -1.1104 12.1667 -0.119512 20.689
404 1 -1.1104 9.39035 2.78048 20.6991
411 2 2.2208 10.7877 -4.20036 16.3723
9891 2 2.2208 13.716 18.2557 19.1591
577 2 2.2208 2.53189 -4.20059 24.8548
9819 2 2.2208 13.5222 9.82916 16.4157
332 2 2.2208 5.18986 15.4268 13.7359
419 2 2.2208 5.10676 6.98424 16.46
420 2 2.2208 5.22054 12.5909 16.5299
421 1 -1.1104 1.04796 8.54015 17.8629
423 1 -1.1104 0.965904 8.54344 15.0673
427 1 -1.1104 0.978977 5.7939 17.9276
428 1 -1.1104 1.00225 11.2841 17.9198
431 2 2.2208 5.34805 9.76654 19.2606
432 1 -1.1104 0.945498 5.81132 15.1382
434 1 -1.1104 0.928184 11.3754 15.0655
440 1 -1.1104 3.84164 8.38276 17.9265
441 2 2.2208 2.35524 7.04144 19.3579
442 2 2.2208 2.50541 12.5892 19.3438
443 1 -1.1104 3.74715 8.5559 15.0644
445 2 2.2208 2.38711 9.83598 16.4924
446 1 -1.1104 3.70957 5.56104 17.6568
447 1 -1.1104 3.82695 11.2702 17.9137
448 1 -1.1104 3.67234 5.69457 14.9808
450 1 -1.1104 3.63697 11.2405 15.1116
425 1 -1.1104 6.51168 8.33944 15.0418
430 1 -1.1104 6.6707 11.2257 17.8057
429 1 -1.1104 6.49974 5.56654 17.9258
436 1 -1.1104 6.48139 5.78217 15.107
449 1 -1.1104 3.69631 5.52548 20.6747
438 1 -1.1104 6.5538 11.3217 15.0176
422 1 -1.1104 6.6771 8.41536 17.7782
433 1 -1.1104 0.924883 5.7565 20.6867
424 1 -1.1104 1.01464 8.60424 20.7039
451 1 -1.1104 3.938 11.1348 20.7139
437 1 -1.1104 6.65363 5.60917 20.6592
439 1 -1.1104 6.79867 11.2043 20.5183
605 2 2.2208 10.8277 -4.05207 22.0849
455 2 2.2208 10.7226 7.03022 16.4745
456 2 2.2208 10.761 12.6202 16.4822
457 1 -1.1104 12.131 8.48006 17.8628
458 1 -1.1104 12.2341 8.45342 15.0247
460 1 -1.1104 12.2658 5.54313 17.778
461 1 -1.1104 12.1741 11.2261 17.6057
462 2 2.2208 10.7904 9.87143 19.2322
463 1 -1.1104 12.0901 5.70576 14.9342
465 1 -1.1104 12.1821 11.1408 15.0543
467 1 -1.1104 9.36476 8.52829 17.9121
468 2 2.2208 8.04957 7.01965 19.3116
469 2 2.2208 8.02094 12.7367 19.1967
470 1 -1.1104 9.45098 8.53047 15.1303
472 2 2.2208 7.95866 9.8247 16.4912
473 1 -1.1104 9.36243 5.59984 17.91
474 1 -1.1104 9.40402 11.4471 17.9889
475 1 -1.1104 9.31556 5.80524 15.1127
477 1 -1.1104 9.32249 11.2579 15.1843
466 1 -1.1104 12.2118 11.3384 20.6469
9714 2 2.2208 13.5552 21.0338 27.6414
464 1 -1.1104 12.2537 5.55503 20.6305
9745 2 2.2208 13.5587 4.10461 16.4296
414 2 2.2208 7.94426 15.5563 22.1715
471 1 -1.1104 9.45677 8.49701 20.6098
476 1 -1.1104 9.41312 5.63928 20.6976
9888 2 2.2208 -0.404639 9.84924 24.9418
482 2 2.2208 5.33415 18.2657 16.549
483 1 -1.1104 0.996656 14.036 17.9287
484 1 -1.1104 1.16357 19.7753 17.8577
487 1 -1.1104 0.996139 14.0431 15.1611
489 1 -1.1104 1.13516 19.6999 15.1472
495 1 -1.1104 0.967454 16.9119 18.151
497 2 2.2208 5.19517 15.4831 19.2542
498 2 2.2208 5.18654 21.2231 19.3765
499 1 -1.1104 0.953003 16.8228 15.2873
503 1 -1.1104 3.85891 14.2125 17.9606
504 1 -1.1104 3.72357 19.7043 17.9902
505 2 2.2208 2.43535 18.2994 19.398
506 1 -1.1104 3.78212 13.9891 15.1591
508 1 -1.1104 3.84021 19.7363 15.0801
510 2 2.2208 2.31222 15.5515 16.5911
511 2 2.2208 2.4507 21.0589 16.5134
512 1 -1.1104 3.85205 16.9295 17.8828
513 1 -1.1104 3.77055 16.9615 15.0013
501 1 -1.1104 6.56129 16.9302 15.2222
493 1 -1.1104 6.72323 19.8275 15.1447
507 1 -1.1104 3.85823 14.0079 20.7402
485 1 -1.1104 6.57127 14.0403 17.7952
496 1 -1.1104 6.64273 17.0075 17.9719
491 1 -1.1104 6.58063 13.9446 15.1407
509 1 -1.1104 3.65158 19.7486 20.8077
486 1 -1.1104 6.62625 19.8747 17.827
492 1 -1.1104 6.64775 14.1546 20.634
640 2 2.2208 10.7628 15.5632 24.8225
502 1 -1.1104 6.55965 17.0382 20.8484
514 1 -1.1104 3.89097 16.9969 20.6609
488 1 -1.1104 0.881416 14.0073 20.5989
490 1 -1.1104 0.863784 19.6921 20.66
494 1 -1.1104 6.54389 19.7644 20.6749
9820 2 2.2208 13.5529 7.05425 19.2487
518 2 2.2208 10.8311 18.1962 16.4578
519 1 -1.1104 12.3462 14.0188 17.9308
520 1 -1.1104 12.1913 19.6622 17.9493
521 1 -1.1104 12.0637 13.9289 15.0253
523 1 -1.1104 12.2738 19.5519 15.1313
525 1 -1.1104 12.2026 16.9167 17.8834
526 2 2.2208 10.8856 15.6698 19.351
527 2 2.2208 10.9206 21.0816 19.3531
528 1 -1.1104 12.2068 16.7901 15.0636
530 1 -1.1104 9.27396 14.2064 17.8634
531 1 -1.1104 9.37616 19.6579 17.916
532 2 2.2208 8.05515 18.3555 19.2297
533 1 -1.1104 9.3388 14.0048 15.1913
535 1 -1.1104 9.40328 19.5061 15.1091
537 2 2.2208 7.93009 15.507 16.4439
538 2 2.2208 8.16328 21.0641 16.4837
539 1 -1.1104 9.31943 16.7895 17.8198
540 1 -1.1104 9.33172 16.8565 14.9533
522 1 -1.1104 12.2481 14.3433 20.7256
536 1 -1.1104 9.64295 19.6706 20.6101
534 1 -1.1104 9.54748 14.0563 20.5694
541 1 -1.1104 9.28201 16.9352 20.6806
9934 2 2.2208 13.6167 15.4869 27.6866
529 1 -1.1104 12.2545 17.0549 20.8111
349 1 -1.1104 0.918769 -2.81278 20.5836
353 1 -1.1104 6.6822 -2.73996 20.7001
9889 2 2.2208 13.6744 15.4484 16.3625
418 2 2.2208 10.6667 4.33605 13.728
546 2 2.2208 5.20964 1.46343 22.0484
547 1 -1.1104 1.02829 -2.98246 23.5451
548 1 -1.1104 1.02641 2.84434 23.7024
551 1 -1.1104 1.10595 -3.00131 26.298
552 1 -1.1104 0.94523 2.70764 26.497
555 1 -1.1104 1.0455 -0.121897 23.5565
557 2 2.2208 5.06946 -1.44129 24.9812
559 1 -1.1104 1.12973 -0.131571 26.3168
561 1 -1.1104 3.75981 -2.87907 23.5439
562 1 -1.1104 3.69021 2.77586 23.5617
563 2 2.2208 2.32426 1.39175 24.9433
564 1 -1.1104 3.7526 -2.78489 26.2783
565 1 -1.1104 3.75309 2.7921 26.3552
566 2 2.2208 2.45823 -1.31891 22.1138
567 2 2.2208 2.32531 4.12971 22.1544
568 1 -1.1104 3.71035 0.0882469 23.5361
569 1 -1.1104 3.66941 -0.0336391 26.3096
558 2 2.2208 5.10258 4.21148 24.9811
556 1 -1.1104 6.34805 -0.110886 23.5714
553 1 -1.1104 6.52091 -2.88628 26.2656
549 1 -1.1104 6.68249 -2.93245 23.4177
554 1 -1.1104 6.56457 2.76064 26.3835
560 1 -1.1104 6.63449 0.192116 26.4253
416 2 2.2208 8.00677 1.52631 13.6468
9860 2 2.2208 -0.325117 9.92156 19.2191
581 2 2.2208 -0.30593 4.29827 24.8987
639 1 -1.1104 12.1079 16.8721 23.5018
9826 2 2.2208 -0.316332 12.7231 16.4805
9821 2 2.2208 13.627 12.6148 19.3557
550 1 -1.1104 6.49427 2.89819 23.6287
380 2 2.2208 -0.379414 -1.42434 19.3037
390 1 -1.1104 12.1769 -2.82339 20.6952
582 2 2.2208 10.728 1.20076 22.0536
583 1 -1.1104 12.2525 -2.82132 23.4713
584 1 -1.1104 12.1537 2.83944 23.4071
585 1 -1.1104 12.2038 -2.7592 26.2629
586 1 -1.1104 12.3561 2.86947 26.1686
587 1 -1.1104 12.1425 0.0250109 23.4302
588 2 2.2208 10.7377 -1.48896 24.8498
589 2 2.2208 10.8531 4.23534 24.8951
590 1 -1.1104 12.1957 -0.0500469 26.1571
591 1 -1.1104 9.40983 -2.84628 23.3371
592 1 -1.1104 9.2816 2.60337 23.4519
593 2 2.2208 7.88815 1.40922 24.8472
594 1 -1.1104 9.41761 -2.78608 26.1405
595 1 -1.1104 9.42859 2.82462 26.1956
596 2 2.2208 8.00885 -1.43237 22.0489
597 2 2.2208 8.07654 4.15135 22.0851
598 1 -1.1104 9.2851 -0.144675 23.4953
599 1 -1.1104 9.47275 0.110289 26.3207
9823 2 2.2208 13.6533 7.03297 24.9295
9896 2 2.2208 13.6254 -1.41477 16.4681
480 1 -1.1104 9.43421 19.6211 26.1818
662 2 2.2208 10.8358 12.669 27.686
340 2 2.2208 -0.382571 1.46662 27.7081
9894 2 2.2208 13.6762 -1.499 22.1379
435 1 -1.1104 1.13819 11.2755 20.6523
444 1 -1.1104 3.8967 8.49961 20.7622
611 2 2.2208 5.14943 6.9377 22.1908
612 2 2.2208 5.19363 12.5849 22.2022
613 1 -1.1104 1.06215 8.34131 23.52
615 1 -1.1104 0.999449 8.30209 26.362
617 1 -1.1104 1.04256 5.57512 23.3706
618 1 -1.1104 1.03773 11.3463 23.5487
621 2 2.2208 5.22685 9.73377 24.9343
622 1 -1.1104 1.00501 5.44905 26.3399
623 1 -1.1104 1.05196 11.2134 26.41
626 1 -1.1104 3.90171 8.2627 23.4863
627 2 2.2208 2.32747 6.97335 24.9496
628 2 2.2208 2.39215 12.6491 24.9281
629 1 -1.1104 3.66134 8.51048 26.3678
630 2 2.2208 2.42685 9.78601 22.1584
631 1 -1.1104 3.70062 5.49968 23.5812
632 1 -1.1104 3.68877 11.1534 23.5826
633 1 -1.1104 3.8904 5.63196 26.2578
634 1 -1.1104 3.9746 11.2011 26.3774
620 1 -1.1104 6.71693 11.3171 23.5118
619 1 -1.1104 6.54184 5.69733 23.4875
426 1 -1.1104 6.57511 8.32704 20.6554
624 1 -1.1104 6.62795 5.65292 26.256
616 1 -1.1104 6.58703 8.36658 26.3031
625 1 -1.1104 6.63525 11.0954 26.4523
478 1 -1.1104 9.33634 11.3519 20.7904
9930 2 2.2208 -0.299388 21.1601 19.3362
614 1 -1.1104 6.63817 8.48711 23.3162
415 2 2.2208 7.99513 21.1088 22.0448
459 1 -1.1104 12.2854 8.47496 20.7252
642 1 -1.1104 9.37872 11.3238 26.3297
643 1 -1.1104 9.50578 5.70919 26.2515
644 1 -1.1104 9.53958 11.2473 23.5467
645 1 -1.1104 9.28504 5.50746 23.3899
646 2 2.2208 8.11064 9.89519 22.0059
647 1 -1.1104 9.36794 8.4813 26.2608
648 2 2.2208 7.9873 12.607 25.0821
649 2 2.2208 7.96049 6.99104 24.8413
650 2 2.2208 10.7446 6.96222 22.0821
651 2 2.2208 10.8014 12.6908 22.0225
652 1 -1.1104 12.2754 8.37037 23.5322
653 1 -1.1104 12.3544 8.47158 26.308
654 1 -1.1104 12.1521 5.62031 23.4104
655 1 -1.1104 12.129 11.1775 23.3573
656 2 2.2208 10.7927 9.90688 24.9331
657 1 -1.1104 12.0686 5.575 26.2386
658 1 -1.1104 12.2643 11.3389 26.2693
659 1 -1.1104 9.54243 8.38467 23.4498
608 1 -1.1104 12.3275 14.0233 23.3547
10011 2 2.2208 13.6049 9.81894 22.157
664 1 -1.1104 9.45173 14.0936 23.4463
9822 2 2.2208 -0.367303 15.417 24.9463
603 2 2.2208 10.6705 18.2236 22.0892
327 2 2.2208 2.31978 12.7221 13.7399
673 1 -1.1104 6.57312 19.895 23.3896
515 1 -1.1104 6.59327 19.622 26.3177
572 1 -1.1104 6.48084 17.0271 23.6092
669 1 -1.1104 6.62493 16.8473 26.3438
500 1 -1.1104 1.1296 16.9098 21.02
543 2 2.2208 2.48857 15.3486 22.1372
544 2 2.2208 2.41288 20.9936 22.2628
545 1 -1.1104 3.74015 16.7603 23.5303
570 1 -1.1104 0.996441 16.7977 23.4995
578 1 -1.1104 3.87986 14.1234 26.4827
600 1 -1.1104 3.67166 16.9106 26.3665
602 2 2.2208 2.33879 18.2594 24.9763
666 1 -1.1104 3.81048 19.6251 23.6306
668 1 -1.1104 3.78068 13.9199 23.608
670 1 -1.1104 0.976877 19.6729 26.3928
671 1 -1.1104 0.958966 16.8909 26.3132
672 1 -1.1104 1.03653 13.925 26.354
674 2 2.2208 5.07469 21.0285 24.8438
675 2 2.2208 5.27905 15.4571 25.1573
677 1 -1.1104 0.989928 19.6072 23.6085
678 1 -1.1104 0.989982 13.9335 23.5134
679 2 2.2208 5.13738 18.3321 22.2004
680 1 -1.1104 3.73356 19.6076 26.3223
667 1 -1.1104 6.71218 14.1236 26.3596
665 1 -1.1104 9.37247 19.582 23.4055
641 2 2.2208 10.8735 21.0282 24.839
9893 2 2.2208 13.5421 1.27064 24.8659
454 1 -1.1104 9.33911 16.7771 26.1961
9959 2 2.2208 13.5781 15.6196 22.0719
481 1 -1.1104 9.40365 14.037 26.2463
524 1 -1.1104 12.3915 19.649 20.643
663 1 -1.1104 12.2186 17.1562 26.3167
453 1 -1.1104 9.33332 16.9075 23.4301
610 1 -1.1104 12.2152 14.1318 26.1803
609 1 -1.1104 12.2678 19.8155 23.4712
638 1 -1.1104 12.25 19.792 26.2684
676 1 -1.1104 6.56037 14.2246 23.4057
516 2 2.2208 7.94545 18.4057 24.9335
417 2 2.2208 10.863 -1.39497 13.6566
579 2 2.2208 -0.305846 -1.64892 24.8819
479 2 2.2208 8.07679 7.19921 13.7091
330 2 2.2208 2.35599 18.1866 13.6781
9932 2 2.2208 -0.29714 18.4628 16.4563
9749 2 2.2208 13.661 1.36779 13.6945
9960 2 2.2208 13.6176 -4.12101 19.1801
661 2 2.2208 8.03098 9.73048 27.634
381 2 2.2208 -0.383789 -1.29047 13.72
601 2 2.2208 8.14899 -1.1306 27.6513
341 2 2.2208 10.7245 1.54543 27.5759
660 2 2.2208 10.7821 7.11162 27.6176
329 2 2.2208 8.00966 12.7295 13.6955
336 2 2.2208 7.99072 18.293 13.6486
333 2 2.2208 10.81 21.0726 13.6775
9707 2 2.2208 13.582 4.25444 27.6463
339 2 2.2208 2.46464 4.17678 27.6468
681 2 2.2208 5.18896 23.9729 5.20576
682 2 2.2208 5.20855 29.5868 5.19792
683 1 -1.1104 1.10689 25.1598 1.07073
684 1 -1.1104 1.01436 25.3573 3.87441
685 1 -1.1104 0.879398 22.3843 1.02699
686 1 -1.1104 1.01825 27.9725 0.93148
687 2 2.2208 5.38778 26.7217 2.32681
688 1 -1.1104 0.80453 22.5336 3.84704
689 1 -1.1104 1.05278 28.1881 3.70036
690 1 -1.1104 3.83737 25.3925 0.957166
691 2 2.2208 2.49161 23.8885 2.23095
692 2 2.2208 2.39627 29.4928 2.38469
693 1 -1.1104 3.91106 25.4714 3.72133
694 2 2.2208 2.38609 26.7563 5.20029
695 1 -1.1104 3.80741 22.514 0.97781
696 1 -1.1104 3.99568 27.9984 0.804146
697 1 -1.1104 3.80078 22.4972 3.78571
698 1 -1.1104 3.7967 28.215 3.6636
704 1 -1.1104 6.59339 22.5446 1.02097
706 1 -1.1104 6.67341 22.5267 3.89131
826 1 -1.1104 6.67704 22.6925 6.51571
825 1 -1.1104 0.955425 28.1083 6.51454
829 1 -1.1104 3.89428 22.488 6.53356
828 1 -1.1104 3.69819 25.3127 6.55179
830 1 -1.1104 3.86916 28.2732 6.64017
827 1 -1.1104 6.48834 28.1287 6.62893
707 1 -1.1104 6.58064 28.2456 3.94768
705 1 -1.1104 6.76119 28.1104 1.06403
703 1 -1.1104 6.7122 25.3591 3.79038
962 1 -1.1104 6.53043 42.1521 12.296
824 1 -1.1104 1.03687 22.3984 6.63613
702 1 -1.1104 6.61975 25.3353 1.01022
708 2 2.2208 10.7697 24.0368 5.17421
709 2 2.2208 10.8762 29.52 5.09507
710 1 -1.1104 12.1367 25.3001 0.949759
711 1 -1.1104 12.2057 25.3512 3.76747
712 1 -1.1104 12.2493 22.4594 1.1422
713 1 -1.1104 12.229 28.0823 0.952118
714 2 2.2208 10.9032 26.7781 2.42173
715 1 -1.1104 12.2204 22.6247 3.89715
716 1 -1.1104 12.3081 28.252 3.89338
717 1 -1.1104 9.41498 25.302 1.0258
718 2 2.2208 8.00634 23.9458 2.4526
719 2 2.2208 8.01273 29.6267 2.40817
720 1 -1.1104 9.40761 25.2479 3.75662
721 2 2.2208 8.06615 26.8238 5.16799
722 1 -1.1104 9.35471 22.4663 1.00375
723 1 -1.1104 9.47813 28.1419 0.910019
724 1 -1.1104 9.48969 22.4415 3.94367
725 1 -1.1104 9.45428 28.2598 3.79607
860 1 -1.1104 9.37712 28.0118 6.55541
855 1 -1.1104 12.1787 25.5271 6.54738
10457 2 2.2208 13.6143 29.5729 13.5927
856 1 -1.1104 12.2777 22.6209 6.6326
858 1 -1.1104 9.46672 25.3556 6.73632
859 1 -1.1104 9.53513 22.6075 6.74191
10239 2 2.2208 13.6384 26.727 10.8516
1008 2 2.2208 5.13771 43.4904 13.6624
10398 2 2.2208 13.6219 29.5827 2.47121
10397 2 2.2208 13.5718 23.7889 2.43359
729 2 2.2208 5.09075 35.1722 5.2802
730 1 -1.1104 0.900814 30.8901 1.04636
731 1 -1.1104 0.980004 36.4876 1.04819
733 1 -1.1104 0.824857 31.0987 3.75619
734 1 -1.1104 0.962121 36.5473 3.88928
736 1 -1.1104 0.950976 33.753 0.928029
737 2 2.2208 5.18017 32.3994 2.40135
738 2 2.2208 5.24498 38.0584 2.48348
739 1 -1.1104 0.993151 33.8926 3.87127
741 1 -1.1104 3.80706 31.0557 1.07041
742 1 -1.1104 3.77065 36.6568 1.07281
743 2 2.2208 2.43245 35.2357 2.58989
744 1 -1.1104 3.82046 31.0346 3.82738
745 1 -1.1104 3.72044 36.5329 3.82787
746 2 2.2208 2.3031 32.2748 5.20713
747 2 2.2208 2.40397 37.9137 5.24102
748 1 -1.1104 3.69418 33.9376 1.07126
749 1 -1.1104 3.78093 33.7541 3.98258
735 1 -1.1104 6.66999 36.7308 3.84356
880 1 -1.1104 0.982726 36.5161 6.4976
755 1 -1.1104 6.57636 33.7864 1.0765
881 1 -1.1104 6.51838 31.0157 6.50512
879 1 -1.1104 0.962616 30.8869 6.59397
883 1 -1.1104 0.829001 33.7343 6.62086
887 1 -1.1104 3.50361 33.6591 6.65065
754 1 -1.1104 6.5757 30.9101 3.64913
884 1 -1.1104 6.44094 33.7439 6.78169
10407 2 2.2208 -0.302677 26.6748 13.5858
958 1 -1.1104 6.5304 42.1952 9.46946
1000 2 2.2208 13.5515 46.3824 13.6549