ITEM: TIMESTEP
30000
ITEM: NUMBER OF ATOMS
17820
ITEM: BOX BOUNDS pp pp pp
-3.5733451498024493e-01 2.7697334514979854e+01
-4.2879313229025984e+00 3.3236793132289148e+02
-3.5756690139880609e-01 2.7697566901398289e+01
ITEM: ATOMS id type q x y z
1 2 2.2208 5.12394 1.26065 5.37583
2 1 -1.1104 0.873291 -2.94237 1.11396
3 1 -1.1104 1.03088 2.61234 1.17352
6 1 -1.1104 1.08791 -2.8553 3.93391
7 1 -1.1104 0.991183 2.66435 3.91551
10 1 -1.1104 1.07221 -0.258282 1.08382
12 2 2.2208 5.27853 -1.65807 2.38582
14 1 -1.1104 1.05632 -0.0400524 3.85504
16 1 -1.1104 3.72238 -2.88299 1.07584
17 1 -1.1104 3.70426 2.70516 1.18465
18 2 2.2208 2.449 1.20876 2.54589
19 1 -1.1104 3.898 -3.04379 3.82741
20 1 -1.1104 3.81731 2.56658 3.93865
21 2 2.2208 2.41784 -1.51749 5.27461
22 2 2.2208 2.3655 4.01815 5.33198
23 1 -1.1104 3.79486 -0.0594657 1.21941
24 1 -1.1104 3.70348 -0.325168 3.90362
13 2 2.2208 5.20729 4.00436 2.48486
233 2 2.2208 13.5565 -4.25722 8.09286
172 1 -1.1104 3.5522 -3.05504 6.49817
200 2 2.2208 -0.329995 -1.62624 8.10765
5 1 -1.1104 6.45468 2.58202 1.22889
8 1 -1.1104 6.72568 -3.02306 3.94619
4 1 -1.1104 6.56937 -2.98938 0.978061
660 2 2.2208 10.9262 6.88197 -0.314042
571 2 2.2208 2.4244 -1.44717 -0.341666
338 2 2.2208 5.15314 1.28823 -0.259312
517 2 2.2208 2.44454 15.2733 -0.289456
410 2 2.2208 8.1165 15.2975 -0.255325
601 2 2.2208 8.03672 -1.5198 -0.33653
167 1 -1.1104 1.05646 2.69617 6.86212
312 1 -1.1104 12.2517 16.6962 9.55275
156 1 -1.1104 9.68236 19.3853 6.65567
337 2 2.2208 8.12643 20.9946 -0.266738
15 1 -1.1104 6.487 -0.194568 3.90012
9 1 -1.1104 6.44122 2.656 3.89987
9688 2 2.2208 13.5519 6.70039 2.51932
9600 2 2.2208 13.5774 9.65527 10.8914
11 1 -1.1104 6.59946 -0.153079 1.02282
31 2 2.2208 10.8063 1.24719 5.36341
32 1 -1.1104 12.1691 -2.86206 1.19235
33 1 -1.1104 12.1163 2.70747 1.05059
34 1 -1.1104 12.1076 -2.99464 3.91329
35 1 -1.1104 12.1681 2.67701 3.92211
36 1 -1.1104 12.3036 -0.120533 1.16733
37 2 2.2208 10.7827 -1.49144 2.45978
38 2 2.2208 10.8252 4.20309 2.34567
39 1 -1.1104 12.1215 -0.202836 4.00387
40 1 -1.1104 9.44285 -3.07882 0.909751
41 1 -1.1104 9.349 2.73009 0.962529
42 2 2.2208 7.95879 1.37516 2.54675
43 1 -1.1104 9.47861 -2.99862 3.78868
44 1 -1.1104 9.36293 2.8253 3.79724
45 2 2.2208 7.99822 -1.49793 5.17051
46 2 2.2208 8.01909 4.06503 5.37478
47 1 -1.1104 9.45803 -0.054608 1.09428
48 1 -1.1104 9.37525 -0.0666371 3.85762
203 2 2.2208 5.21857 -4.20571 10.8968
231 2 2.2208 8.00796 -4.31119 7.99305
143 1 -1.1104 12.1373 13.9067 6.66167
9595 2 2.2208 13.6157 6.9503 8.07666
9692 2 2.2208 -0.29663 20.949 7.95385
54 2 2.2208 5.25086 6.87486 5.37301
55 2 2.2208 5.19713 12.4827 5.20236
56 1 -1.1104 0.978872 8.17944 1.0704
58 1 -1.1104 1.13155 8.26228 3.9326
60 1 -1.1104 1.03038 5.52019 1.0645
61 1 -1.1104 1.09555 10.988 1.13219
66 2 2.2208 5.2945 9.6047 2.52811
67 1 -1.1104 1.04313 5.35211 3.83092
68 1 -1.1104 0.849117 11.1368 3.82547
71 1 -1.1104 3.86139 8.26494 1.2105
72 2 2.2208 2.46569 6.82907 2.61839
73 2 2.2208 2.44017 12.4757 2.50061
74 1 -1.1104 3.90804 8.15813 3.9516
75 2 2.2208 2.48181 9.67505 5.34308
76 1 -1.1104 3.78818 5.45326 1.14519
77 1 -1.1104 3.86826 11.0106 1.04231
79 1 -1.1104 3.95442 5.22804 3.97362
80 1 -1.1104 3.84148 10.8994 3.83045
63 1 -1.1104 6.68538 5.35734 1.16169
78 1 -1.1104 3.82866 11.0372 6.61932
635 2 2.2208 5.15864 6.85341 -0.33609
9690 2 2.2208 13.5903 18.1506 2.47203
59 1 -1.1104 6.63637 8.18211 3.90527
64 1 -1.1104 6.57634 11.0595 1.1184
69 1 -1.1104 6.67213 5.4499 4.04338
70 1 -1.1104 6.64723 10.965 3.98643
57 1 -1.1104 6.61417 8.23762 1.17278
238 1 -1.1104 3.80974 8.31907 6.86676
342 2 2.2208 8.05323 4.10254 -0.326436
9824 2 2.2208 13.5844 9.73224 -0.262718
315 1 -1.1104 9.46174 16.7229 12.3145
84 2 2.2208 10.7277 6.82397 5.46777
85 2 2.2208 10.8083 12.5455 5.32589
86 1 -1.1104 12.1969 8.28773 1.1721
87 1 -1.1104 12.1149 8.12818 3.90648
88 1 -1.1104 12.248 5.51655 1.01114
89 1 -1.1104 12.1866 11.1139 1.09571
91 2 2.2208 10.7747 9.62432 2.63641
92 1 -1.1104 12.1693 5.47111 3.85094
93 1 -1.1104 12.2874 11.0032 3.86896
94 1 -1.1104 9.49967 8.17367 1.13468
95 2 2.2208 8.05046 6.86811 2.60658
96 2 2.2208 8.11527 12.6078 2.55705
97 1 -1.1104 9.42922 8.27061 3.92601
98 2 2.2208 7.99211 9.73389 5.38834
99 1 -1.1104 9.45401 5.44154 1.13025
100 1 -1.1104 9.37232 11.0907 1.07935
102 1 -1.1104 9.50708 5.5907 4.05265
103 1 -1.1104 9.3728 11.025 4.01614
50 2 2.2208 13.5672 -1.51997 5.29246
661 2 2.2208 8.03053 9.71997 -0.217746
90 1 -1.1104 12.2201 11.1307 6.64521
265 1 -1.1104 12.1364 8.3078 6.60517
267 1 -1.1104 9.34812 8.29448 6.83316
321 1 -1.1104 9.39705 19.3523 12.3879
636 2 2.2208 2.43866 9.64802 -0.271499
106 2 2.2208 5.30263 18.0449 5.33663
107 1 -1.1104 1.11594 13.8736 1.14905
109 1 -1.1104 1.04597 19.6656 1.2005
113 1 -1.1104 0.993125 13.7721 3.92548
114 1 -1.1104 1.03063 19.262 3.96777
116 1 -1.1104 1.20555 16.6778 1.06857
119 2 2.2208 5.34357 15.2938 2.41235
120 2 2.2208 5.23401 20.8946 2.56968
121 1 -1.1104 1.12137 16.5379 3.74331
123 1 -1.1104 3.7579 13.8391 1.03939
125 1 -1.1104 3.81438 19.4666 1.01503
127 2 2.2208 2.5453 18.0676 2.4454
128 1 -1.1104 3.89638 13.9538 3.9578
129 1 -1.1104 3.82096 19.4156 3.89433
130 2 2.2208 2.49074 15.3272 5.31261
131 2 2.2208 2.4767 20.8224 5.25208
132 1 -1.1104 3.99504 16.5995 0.90964
134 1 -1.1104 3.93152 16.6135 3.85186
126 1 -1.1104 3.80561 19.5793 6.76073
110 1 -1.1104 6.59206 13.8569 1.29052
122 1 -1.1104 6.7027 16.8027 3.88586
637 2 2.2208 5.22828 12.4119 -0.214271
139 1 -1.1104 6.53298 19.6321 3.97912
140 1 -1.1104 6.92337 16.5826 1.21785
124 1 -1.1104 3.73417 13.9299 6.68467
111 1 -1.1104 6.63143 13.8301 6.84018
118 1 -1.1104 6.65939 16.6568 6.70278
49 2 2.2208 13.5194 1.32664 2.47676
341 2 2.2208 10.811 1.25768 -0.312581
662 2 2.2208 10.8304 12.5449 -0.309602
115 1 -1.1104 6.73638 13.8127 3.99267
138 1 -1.1104 6.69315 19.4055 1.08959
141 2 2.2208 11.0158 18.1449 5.32651
142 1 -1.1104 12.2621 13.8556 1.03499
144 1 -1.1104 12.3005 19.4946 0.987333
146 1 -1.1104 12.1686 13.8208 3.87313
147 1 -1.1104 12.2955 19.5538 3.8947
148 1 -1.1104 12.3205 16.6423 1.10786
150 2 2.2208 10.8222 15.3317 2.42625
151 2 2.2208 10.9115 20.8185 2.50017
152 1 -1.1104 12.3675 16.6755 4.00498
153 1 -1.1104 9.43723 13.9553 1.11377
155 1 -1.1104 9.52017 19.6943 1.02632
157 2 2.2208 8.08995 18.1538 2.52715
158 1 -1.1104 9.48673 14.007 3.88745
159 1 -1.1104 9.49912 19.5191 3.85709
160 2 2.2208 8.10564 15.2846 5.35477
161 2 2.2208 8.03651 20.8704 5.42551
162 1 -1.1104 9.4666 16.879 0.956504
164 1 -1.1104 9.57082 16.7009 3.91518
9596 2 2.2208 13.4634 12.4804 8.12403
9689 2 2.2208 -0.333584 15.2996 2.47041
9683 2 2.2208 -0.374207 9.6273 2.46345
145 1 -1.1104 12.5426 19.4581 6.6076
149 1 -1.1104 12.3237 16.5461 6.69716
163 1 -1.1104 9.5136 16.7897 6.71013
112 1 -1.1104 6.75874 19.497 6.80742
171 1 -1.1104 6.67265 -0.123234 6.66845
9687 2 2.2208 13.6055 12.5087 2.5411
9413 2 2.2208 13.5865 9.62762 5.22008
173 1 -1.1104 3.81477 2.68316 6.74913
174 1 -1.1104 3.71957 -0.192804 6.75932
296 1 -1.1104 6.60861 19.5407 12.4562
166 1 -1.1104 0.899114 -2.95556 6.66476
170 1 -1.1104 0.968204 -0.123354 6.54231
175 2 2.2208 5.23031 1.33886 11.074
176 1 -1.1104 1.07922 -3.01777 12.3484
177 1 -1.1104 0.848707 2.71826 12.3567
180 1 -1.1104 0.955834 -2.95094 9.77249
181 1 -1.1104 1.03869 2.77293 9.60233
184 1 -1.1104 1.11407 -0.140777 12.3103
186 2 2.2208 5.28845 -1.51315 8.10071
187 2 2.2208 5.18379 4.02349 8.11441
188 1 -1.1104 1.04971 -0.12719 9.47371
190 1 -1.1104 3.89627 -2.74077 12.3178
191 1 -1.1104 3.69187 2.73303 12.2871
192 2 2.2208 2.25732 1.17448 8.11695
193 1 -1.1104 3.72699 -2.85441 9.33472
194 1 -1.1104 3.74185 2.67134 9.53357
195 2 2.2208 2.43554 -1.46594 10.9492
196 2 2.2208 2.32427 4.11683 10.8856
197 1 -1.1104 3.88259 -0.109225 12.3552
198 1 -1.1104 3.88753 -0.188138 9.5954
182 1 -1.1104 6.63167 -2.87981 9.45855
178 1 -1.1104 6.74159 -2.85005 12.2581
289 1 -1.1104 6.44832 16.7636 9.54708
189 1 -1.1104 6.69769 -0.153492 9.61084
169 1 -1.1104 6.63612 2.56142 6.6582
209 1 -1.1104 9.43468 2.66205 6.86164
320 2 2.2208 8.07798 18.1029 8.2091
290 1 -1.1104 6.67796 14.0086 9.658
137 2 2.2208 -0.316017 18.0446 5.29754
168 1 -1.1104 6.48215 -2.85131 6.66096
206 1 -1.1104 12.2795 2.67253 6.62937
210 1 -1.1104 9.47635 -0.0563096 6.637
207 1 -1.1104 12.2016 -0.127158 6.73667
205 1 -1.1104 12.2223 -2.83534 6.68776
208 1 -1.1104 9.47801 -3.03294 6.66467
183 1 -1.1104 6.50901 2.69474 9.48952
179 1 -1.1104 6.73011 2.91576 12.3916
185 1 -1.1104 6.673 -0.0208902 12.4042
211 2 2.2208 10.8625 1.26942 10.9483
212 1 -1.1104 12.3325 -2.87371 12.4623
213 1 -1.1104 12.268 2.78322 12.3486
214 1 -1.1104 12.1378 -2.85786 9.44997
215 1 -1.1104 12.1786 2.67774 9.40254
216 1 -1.1104 12.1862 -0.0268984 12.322
217 2 2.2208 10.8052 -1.48609 8.031
218 2 2.2208 10.7663 4.14987 8.3573
219 1 -1.1104 12.2813 -0.00559607 9.62888
220 1 -1.1104 9.66427 -2.92419 12.3411
221 1 -1.1104 9.55622 2.74976 12.3738
222 2 2.2208 8.07762 1.26783 8.20688
223 1 -1.1104 9.36343 -2.9215 9.43115
224 1 -1.1104 9.3539 2.72105 9.60581
225 2 2.2208 8.05436 -1.44894 10.8662
226 2 2.2208 7.98631 4.09242 10.8537
227 1 -1.1104 9.37861 -0.0210503 12.2707
228 1 -1.1104 9.51901 -0.0782699 9.39185
105 1 -1.1104 12.1664 13.9437 9.4347
9684 2 2.2208 13.6563 15.1929 10.9014
82 2 2.2208 10.9151 18.0572 10.9385
235 1 -1.1104 6.60424 8.33614 6.73573
311 2 2.2208 10.9552 20.877 8.05401
62 1 -1.1104 1.14582 11.1201 6.69541
236 1 -1.1104 0.939078 5.43227 6.58287
234 1 -1.1104 0.964081 8.28301 6.73964
239 1 -1.1104 3.83048 5.57151 6.83309
240 2 2.2208 5.1071 6.89878 10.9564
241 2 2.2208 5.27756 12.5242 10.8006
242 1 -1.1104 1.08158 8.22671 12.3018
244 1 -1.1104 0.988233 8.28212 9.5314
246 1 -1.1104 1.10568 5.51793 12.2276
247 1 -1.1104 1.15915 11.1331 12.2787
250 2 2.2208 5.30646 9.83377 8.10593
251 1 -1.1104 0.787535 5.53033 9.58974
252 1 -1.1104 1.16278 11.1244 9.55373
255 1 -1.1104 3.83951 8.42728 12.3252
256 2 2.2208 2.3905 6.87163 8.16908
257 2 2.2208 2.42548 12.5046 8.07856
258 1 -1.1104 3.72907 8.31523 9.45276
259 2 2.2208 2.43885 9.74219 10.8892
260 1 -1.1104 3.8043 5.60322 12.4694
261 1 -1.1104 3.80947 11.158 12.3111
262 1 -1.1104 3.50751 5.53236 9.54112
263 1 -1.1104 3.84978 11.1682 9.50358
65 1 -1.1104 6.50556 11.2192 6.70815
253 1 -1.1104 6.43769 5.52686 9.52118
314 1 -1.1104 9.452 16.7701 9.5027
237 1 -1.1104 6.58712 5.41979 6.79449
104 1 -1.1104 12.2352 19.437 12.2865
249 1 -1.1104 6.68691 11.079 12.1945
101 1 -1.1104 9.41604 11.0665 6.75668
269 1 -1.1104 9.31848 5.42115 6.84696
266 1 -1.1104 12.2117 5.43045 6.9345
254 1 -1.1104 6.72419 11.1291 9.54997
245 1 -1.1104 6.55165 8.32845 9.5771
248 1 -1.1104 6.54667 5.55572 12.3
243 1 -1.1104 6.64911 8.39989 12.3388
264 1 -1.1104 9.37642 11.1022 9.42821
268 1 -1.1104 9.31565 5.40225 9.5768
270 1 -1.1104 9.43834 11.1832 12.4251
271 1 -1.1104 9.35095 5.70321 12.2962
272 2 2.2208 8.08398 9.67295 10.899
273 1 -1.1104 9.51676 8.17925 9.60905
274 2 2.2208 8.01256 12.5458 8.1415
275 2 2.2208 7.97162 6.84663 8.17551
276 2 2.2208 10.8568 6.97688 11.0259
277 2 2.2208 10.8355 12.4553 10.9561
278 1 -1.1104 12.3359 8.21869 12.3699
279 1 -1.1104 12.3169 8.23298 9.45237
280 1 -1.1104 12.3258 5.46287 12.3514
281 1 -1.1104 12.1534 11.0406 12.2476
282 2 2.2208 10.7261 9.65482 8.09687
283 1 -1.1104 12.1916 5.60884 9.67297
284 1 -1.1104 12.1538 11.014 9.44211
285 1 -1.1104 9.55525 8.56484 12.3612
229 2 2.2208 10.8423 15.267 8.03675
317 2 2.2208 8.07239 15.3156 11.0428
117 1 -1.1104 1.11962 16.6978 6.73656
108 1 -1.1104 0.932677 13.9982 6.79473
302 1 -1.1104 0.925551 19.5386 6.74425
133 1 -1.1104 3.77909 16.835 6.74385
288 1 -1.1104 6.64772 19.4918 9.63951
310 2 2.2208 2.44995 15.2472 10.9226
286 1 -1.1104 3.84387 19.5021 12.3824
287 1 -1.1104 4.00949 13.9659 12.1452
291 1 -1.1104 1.06033 19.4899 9.50803
292 1 -1.1104 0.96061 16.5991 9.67723
293 2 2.2208 5.28312 20.9344 8.26825
294 1 -1.1104 0.973183 13.9119 9.56544
295 2 2.2208 5.259 15.2703 8.25636
298 1 -1.1104 0.959881 19.479 12.3236
299 1 -1.1104 1.1487 13.8121 12.3575
300 2 2.2208 5.18191 18.1082 10.9028
301 1 -1.1104 3.83911 19.5223 9.52545
303 2 2.2208 2.34818 18.077 8.20694
304 1 -1.1104 3.76061 16.6224 9.60395
305 1 -1.1104 3.80482 13.7781 9.40354
307 1 -1.1104 0.948272 16.6939 12.3573
308 1 -1.1104 3.80967 16.6778 12.2818
309 2 2.2208 2.34789 20.9231 10.8644
297 1 -1.1104 6.62836 13.8314 12.3865
306 1 -1.1104 6.55804 16.673 12.3495
154 1 -1.1104 9.45144 13.9098 6.6363
165 1 -1.1104 12.3502 16.7691 12.2923
318 1 -1.1104 9.45487 19.4642 9.4268
313 1 -1.1104 9.47393 14.0129 12.3938
83 1 -1.1104 12.2742 13.7268 12.2322
135 1 -1.1104 12.1984 19.5277 9.4594
316 2 2.2208 8.06558 20.924 10.9979
319 1 -1.1104 9.51154 13.9499 9.608
9384 2 2.2208 13.6347 3.99356 5.22492
9686 2 2.2208 -0.345192 12.5559 5.28202
9519 2 2.2208 13.5362 4.13451 11.0353
9818 2 2.2208 -0.225686 18.1348 -0.27218
25 2 2.2208 -0.331209 -1.54917 2.50833
9606 2 2.2208 -0.260329 12.5744 10.8548
326 2 2.2208 5.17631 9.72834 13.6166
607 2 2.2208 13.564 -1.46435 -0.209327
339 2 2.2208 2.44392 4.10388 -0.0857572
9712 2 2.2208 -0.340819 15.1163 13.6283
343 2 2.2208 5.339 1.46057 16.5044
344 1 -1.1104 1.10957 -2.92764 17.9591
345 1 -1.1104 0.999887 2.60431 17.9023
348 1 -1.1104 1.23233 -2.82378 15.1176
350 1 -1.1104 0.968729 2.72805 15.1612
356 1 -1.1104 1.2397 -0.0657619 17.9289
358 2 2.2208 5.32601 -1.44726 19.3785
360 1 -1.1104 1.19935 -0.0451094 15.0869
364 1 -1.1104 3.83558 -2.87727 17.8302
365 1 -1.1104 3.91376 2.71874 17.7755
366 2 2.2208 2.58124 1.28396 19.3184
367 1 -1.1104 3.92278 -2.72986 15.1206
369 1 -1.1104 3.9057 2.78782 15.1088
371 2 2.2208 2.60558 -1.43416 16.4326
373 1 -1.1104 3.99019 -0.0299061 17.9199
374 1 -1.1104 4.00291 0.0499402 15.0944
359 2 2.2208 5.17781 4.0926 19.2644
9959 2 2.2208 13.6957 15.2713 22.168
9749 2 2.2208 13.6085 1.31809 13.7676
579 2 2.2208 -0.379718 -1.49477 24.8219
9930 2 2.2208 -0.343146 21.0005 19.4122
379 2 2.2208 -0.380559 1.37708 16.5207
327 2 2.2208 2.51014 12.4602 13.7258
347 1 -1.1104 6.68454 2.84468 17.9098
329 2 2.2208 8.01777 12.49 13.7805
349 1 -1.1104 1.28621 -2.9394 20.7779
640 2 2.2208 10.8244 15.3845 24.9253
418 2 2.2208 10.9576 4.21923 13.7659
346 1 -1.1104 6.80216 -2.80903 17.9435
352 1 -1.1104 6.66339 -2.93192 15.0619
332 2 2.2208 5.14124 15.2836 13.7501
357 1 -1.1104 6.66513 -0.15834 17.9628
354 1 -1.1104 6.65153 2.69511 15.1424
362 1 -1.1104 6.71429 0.080039 15.1991
386 2 2.2208 10.8399 1.27388 16.6406
387 1 -1.1104 12.2303 -2.94823 18.0361
388 1 -1.1104 12.0693 2.55462 18.1059
389 1 -1.1104 12.3071 -2.82912 15.2793
391 1 -1.1104 12.2396 2.81405 15.2512
393 1 -1.1104 12.2513 -0.0977256 17.985
394 2 2.2208 10.8921 -1.47351 19.3373
395 2 2.2208 10.8007 4.07309 19.4138
396 1 -1.1104 12.3002 -0.057133 15.1776
398 1 -1.1104 9.46635 -2.77287 17.8675
399 1 -1.1104 9.48286 2.67326 18.0235
400 2 2.2208 8.06625 1.29285 19.3151
401 1 -1.1104 9.47452 -2.9307 15.179
403 1 -1.1104 9.54055 2.80374 15.233
405 2 2.2208 8.05811 -1.53131 16.6401
407 1 -1.1104 9.45972 -0.0550808 17.8569
408 1 -1.1104 9.55131 -0.134535 15.1626
404 1 -1.1104 9.38286 2.7004 20.7996
383 2 2.2208 5.34642 -1.4649 13.7455
9697 2 2.2208 13.6145 6.95519 13.7806
9893 2 2.2208 13.4904 1.2334 24.9625
9819 2 2.2208 13.5684 9.7586 16.5544
355 1 -1.1104 6.50131 2.66087 20.7641
330 2 2.2208 2.32266 18.0458 13.6805
452 2 2.2208 2.38236 6.91044 13.7527
372 2 2.2208 2.35623 4.14671 16.5582
335 2 2.2208 2.47816 20.9935 27.6545
419 2 2.2208 5.17223 6.93708 16.4074
420 2 2.2208 5.15477 12.5314 16.4509
421 1 -1.1104 1.02411 8.17152 18.1185
423 1 -1.1104 1.06973 8.28162 15.2441
427 1 -1.1104 1.05464 5.50293 17.876
428 1 -1.1104 1.161 11.1019 18.1462
431 2 2.2208 5.22039 9.66849 19.253
432 1 -1.1104 0.94878 5.46214 15.0763
434 1 -1.1104 1.17584 11.1774 15.0807
440 1 -1.1104 3.8974 8.2426 17.871
441 2 2.2208 2.49892 6.94949 19.4469
442 2 2.2208 2.52024 12.5728 19.4974
443 1 -1.1104 3.78885 8.39495 15.1188
445 2 2.2208 2.47655 9.69664 16.648
446 1 -1.1104 3.87118 5.48152 17.829
447 1 -1.1104 3.86646 11.1468 17.9984
448 1 -1.1104 3.79059 5.56388 15.1467
450 1 -1.1104 3.87983 11.1027 15.1413
415 2 2.2208 8.15741 20.8725 22.1872
422 1 -1.1104 6.58867 8.30501 17.8907
411 2 2.2208 10.9688 -4.25117 16.6003
667 1 -1.1104 6.71635 13.9458 26.5014
436 1 -1.1104 6.63068 5.61535 15.1292
430 1 -1.1104 6.39655 11.1056 17.9203
425 1 -1.1104 6.59073 8.44552 15.1984
426 1 -1.1104 6.5952 8.26892 20.6423
444 1 -1.1104 3.86978 8.3812 20.7044
451 1 -1.1104 3.76938 11.0631 20.7732
437 1 -1.1104 6.5922 5.55227 20.6173
406 2 2.2208 8.11353 4.3035 16.5276
429 1 -1.1104 6.54575 5.69043 17.8419
438 1 -1.1104 6.69967 11.2244 15.1333
455 2 2.2208 10.9143 6.90079 16.5325
456 2 2.2208 10.953 12.4817 16.5063
457 1 -1.1104 12.138 8.38177 17.8506
458 1 -1.1104 12.2245 8.4538 15.0129
460 1 -1.1104 12.209 5.43547 17.9421
461 1 -1.1104 12.2435 11.1416 17.8662
462 2 2.2208 10.812 9.87349 19.2519
463 1 -1.1104 12.3153 5.59765 15.076
465 1 -1.1104 12.3199 11.2161 15.0928
467 1 -1.1104 9.33707 8.44521 17.9413
468 2 2.2208 8.06364 6.97786 19.3529
469 2 2.2208 8.03109 12.5935 19.3159
470 1 -1.1104 9.39993 8.37247 15.0612
472 2 2.2208 7.95266 9.764 16.5279
473 1 -1.1104 9.46629 5.60309 17.9362
474 1 -1.1104 9.30934 11.1271 17.9734
475 1 -1.1104 9.49718 5.63393 15.1345
477 1 -1.1104 9.46375 11.1103 15.0918
9699 2 2.2208 13.6463 12.4818 13.7476
328 2 2.2208 10.7737 9.70906 13.7075
476 1 -1.1104 9.43187 5.42178 20.7273
471 1 -1.1104 9.44359 8.34084 20.8456
479 2 2.2208 7.88903 7.09938 13.8152
9952 2 2.2208 13.6438 3.97611 22.1801
482 2 2.2208 5.24388 18.1492 16.5935
483 1 -1.1104 1.10527 13.8924 18.0216
484 1 -1.1104 1.00244 19.6486 18.0058
487 1 -1.1104 1.08582 13.8036 15.1494
489 1 -1.1104 1.03911 19.445 15.2383
495 1 -1.1104 1.08977 16.7566 18.0618
497 2 2.2208 5.37035 15.4806 19.3708
498 2 2.2208 5.41237 20.9046 19.3135
499 1 -1.1104 1.00118 16.5689 15.1057
503 1 -1.1104 3.76303 13.9435 17.9406
504 1 -1.1104 3.82764 19.4188 18.0693
505 2 2.2208 2.40847 18.1913 19.3607
506 1 -1.1104 3.86383 13.951 14.9851
508 1 -1.1104 3.83244 19.4538 15.1825
510 2 2.2208 2.30255 15.3077 16.6221
511 2 2.2208 2.46392 20.8804 16.6972
512 1 -1.1104 3.94827 16.645 17.9227
513 1 -1.1104 3.65225 16.7793 15.158
486 1 -1.1104 6.62128 19.4869 17.7855
485 1 -1.1104 6.66603 14.0085 18.0414
502 1 -1.1104 6.61122 16.8295 20.6247
336 2 2.2208 7.95352 18.0044 13.7061
9896 2 2.2208 13.6315 -1.48594 16.5397
491 1 -1.1104 6.68873 13.8477 15.2041
641 2 2.2208 10.9626 20.9222 24.9865
493 1 -1.1104 6.6744 19.5471 15.1443
501 1 -1.1104 6.62508 16.746 15.2006
496 1 -1.1104 6.83081 16.8408 17.9375
518 2 2.2208 10.9228 18.105 16.5624
519 1 -1.1104 12.19 13.9127 17.9851
520 1 -1.1104 12.3684 19.4593 17.982
521 1 -1.1104 12.3738 13.9269 15.0965
523 1 -1.1104 12.314 19.4242 15.1063
525 1 -1.1104 12.361 16.7121 17.9371
526 2 2.2208 10.8869 15.3284 19.3659
527 2 2.2208 10.9326 20.9229 19.4342
528 1 -1.1104 12.1679 16.5925 15.0861
530 1 -1.1104 9.55096 13.873 17.9805
531 1 -1.1104 9.37944 19.5984 17.9334
532 2 2.2208 8.19934 18.2474 19.3723
533 1 -1.1104 9.43524 14.0271 15.1994
535 1 -1.1104 9.46287 19.498 15.1417
537 2 2.2208 8.04221 15.3325 16.6029
538 2 2.2208 8.02655 20.944 16.4809
539 1 -1.1104 9.51161 16.6048 18.0087
540 1 -1.1104 9.40163 16.763 15.3609
536 1 -1.1104 9.57626 19.5093 20.7836
334 2 2.2208 10.8618 15.3048 13.7351
664 1 -1.1104 9.5174 13.8967 23.6418
541 1 -1.1104 9.52119 16.7699 20.8835
524 1 -1.1104 12.3151 19.5691 20.784
370 1 -1.1104 3.73663 2.76082 20.616
351 1 -1.1104 1.10529 2.73622 20.921
368 1 -1.1104 3.92345 -2.99629 20.6969
361 1 -1.1104 1.26281 -0.220568 20.707
353 1 -1.1104 6.75073 -2.90993 20.8008
375 1 -1.1104 4.05595 -0.0884382 20.7958
417 2 2.2208 10.8135 -1.47097 13.7306
534 1 -1.1104 9.54682 13.9693 20.8048
546 2 2.2208 5.23396 1.31261 22.1041
547 1 -1.1104 1.0854 -2.97648 23.5676
548 1 -1.1104 0.956272 2.75092 23.7242
551 1 -1.1104 1.05648 -2.91671 26.3634
552 1 -1.1104 0.670596 2.88825 26.5007
555 1 -1.1104 1.17364 -0.0805887 23.5185
557 2 2.2208 5.29319 -1.48586 24.8537
559 1 -1.1104 1.03913 -0.0967359 26.1746
561 1 -1.1104 4.01034 -3.00526 23.3873
562 1 -1.1104 3.76779 2.75466 23.5118
563 2 2.2208 2.40326 1.28588 24.8932
564 1 -1.1104 3.92866 -2.93388 26.173
565 1 -1.1104 3.63915 2.6963 26.4808
566 2 2.2208 2.49468 -1.60268 22.2042
567 2 2.2208 2.32379 4.23264 22.1552
568 1 -1.1104 3.86606 -0.112344 23.4513
569 1 -1.1104 3.80039 -0.190284 26.426
558 2 2.2208 5.0713 4.20754 24.8896
550 1 -1.1104 6.53823 2.75794 23.4457
553 1 -1.1104 6.64664 -2.99404 26.396
554 1 -1.1104 6.3867 2.69317 26.3804
549 1 -1.1104 6.68574 -2.924 23.652
556 1 -1.1104 6.76526 -0.0121109 23.5519
402 1 -1.1104 9.47194 -3.10664 20.7651
397 1 -1.1104 12.2922 -0.0851877 20.8556
333 2 2.2208 10.8553 20.8789 13.6663
412 2 2.2208 8.13256 -4.29284 19.2918
409 1 -1.1104 9.54678 -0.213973 20.6697
392 1 -1.1104 12.1864 2.73705 20.8471
560 1 -1.1104 6.73039 -0.241837 26.2655
363 1 -1.1104 6.78716 -0.151917 20.7426
390 1 -1.1104 12.1811 -2.74894 20.6558
582 2 2.2208 10.7937 1.26737 22.0984
583 1 -1.1104 12.2819 -2.86279 23.5366
584 1 -1.1104 12.1447 2.56423 23.5685
585 1 -1.1104 12.1536 -2.92162 26.4412
586 1 -1.1104 12.0928 2.67914 26.3406
587 1 -1.1104 12.2022 -0.198773 23.6727
588 2 2.2208 10.7865 -1.46364 24.967
589 2 2.2208 10.7099 4.15569 24.7464
590 1 -1.1104 12.1842 -0.126535 26.552
591 1 -1.1104 9.35413 -2.98041 23.6858
592 1 -1.1104 9.47421 2.75319 23.4133
593 2 2.2208 8.08313 1.29529 24.9307
594 1 -1.1104 9.38021 -2.85557 26.3156
595 1 -1.1104 9.30599 2.92668 26.1852
596 2 2.2208 8.1107 -1.58293 22.2431
597 2 2.2208 7.90455 4.15505 22.0807
598 1 -1.1104 9.52283 -0.10363 23.5639
599 1 -1.1104 9.36314 -0.0717312 26.346
9864 2 2.2208 -0.375088 12.5884 22.2937
522 1 -1.1104 12.3133 13.8548 20.8748
9862 2 2.2208 13.6062 12.5663 24.9105
435 1 -1.1104 1.09298 11.1402 20.8231
449 1 -1.1104 3.87095 5.50207 20.5985
424 1 -1.1104 1.04656 8.29486 20.8465
433 1 -1.1104 1.02887 5.53245 20.6773
611 2 2.2208 5.36281 6.86592 22.0667
612 2 2.2208 5.287 12.4326 22.1179
613 1 -1.1104 1.05802 8.37037 23.5819
615 1 -1.1104 1.14122 8.31603 26.23
617 1 -1.1104 0.958949 5.5548 23.4727
618 1 -1.1104 1.06089 11.115 23.5852
621 2 2.2208 5.24847 9.66369 25.0441
622 1 -1.1104 0.979352 5.54452 26.4023
623 1 -1.1104 0.98795 10.9134 26.3563
626 1 -1.1104 3.88253 8.33153 23.4584
627 2 2.2208 2.34894 6.8621 25.0542
628 2 2.2208 2.52868 12.5704 24.9147
629 1 -1.1104 3.79355 8.23587 26.434
630 2 2.2208 2.47882 9.66661 22.2085
631 1 -1.1104 3.84985 5.64488 23.4795
632 1 -1.1104 3.93046 11.1575 23.5961
633 1 -1.1104 3.75144 5.42936 26.3358
634 1 -1.1104 3.9032 11.1751 26.3182
624 1 -1.1104 6.58519 5.56151 26.3619
614 1 -1.1104 6.69136 8.29265 23.5923
439 1 -1.1104 6.66485 11.0774 20.7123
616 1 -1.1104 6.5689 8.33614 26.3699
619 1 -1.1104 6.58336 5.60639 23.5229
625 1 -1.1104 6.73319 11.1254 26.363
620 1 -1.1104 6.6108 11.1451 23.6143
9861 2 2.2208 -0.341667 6.90828 16.5692
331 2 2.2208 5.10232 20.9929 13.7075
610 1 -1.1104 12.2792 13.9498 26.3494
478 1 -1.1104 9.34655 11.1775 20.7535
466 1 -1.1104 12.1529 11.1335 20.5738
464 1 -1.1104 12.1585 5.57719 20.8326
459 1 -1.1104 12.2505 8.28978 20.6447
642 1 -1.1104 9.42924 11.3015 26.4071
643 1 -1.1104 9.41417 5.55797 26.2633
644 1 -1.1104 9.52764 11.0496 23.6066
645 1 -1.1104 9.43283 5.57535 23.5038
646 2 2.2208 8.04079 9.72588 22.1705
647 1 -1.1104 9.23051 8.52011 26.2727
648 2 2.2208 7.90504 12.6127 24.9242
649 2 2.2208 8.00234 6.89903 24.9265
650 2 2.2208 10.9174 6.97132 22.1803
651 2 2.2208 10.7818 12.5127 22.205
652 1 -1.1104 12.2395 8.32503 23.5387
653 1 -1.1104 12.1357 8.21049 26.4314
654 1 -1.1104 12.3463 5.43628 23.6544
655 1 -1.1104 12.2848 11.144 23.3472
656 2 2.2208 10.7824 9.72951 24.9634
657 1 -1.1104 12.225 5.39628 26.3544
658 1 -1.1104 12.2804 11.1094 26.2204
659 1 -1.1104 9.59368 8.30353 23.4791
609 1 -1.1104 12.2434 19.5623 23.463
514 1 -1.1104 3.7458 16.8215 20.6336
509 1 -1.1104 4.02668 19.755 20.9366
676 1 -1.1104 6.8168 14.0575 23.6134
515 1 -1.1104 6.66563 19.591 26.373
492 1 -1.1104 6.72446 14.0177 20.7941
488 1 -1.1104 1.11988 14.0364 20.6437
500 1 -1.1104 0.963804 16.8586 20.7525
507 1 -1.1104 3.92926 14.0013 20.7044
490 1 -1.1104 1.23109 19.6133 20.892
543 2 2.2208 2.54849 15.4103 22.1281
544 2 2.2208 2.47757 20.9924 22.1746
545 1 -1.1104 3.99622 16.7647 23.5553
570 1 -1.1104 0.982778 16.7333 23.6294
578 1 -1.1104 3.72624 13.8548 26.3706
600 1 -1.1104 3.95137 16.6074 26.3296
602 2 2.2208 2.54193 18.1003 24.9658
666 1 -1.1104 3.83158 19.5612 23.496
668 1 -1.1104 3.92257 14.0747 23.5126
670 1 -1.1104 1.26584 19.4975 26.3915
671 1 -1.1104 1.24907 16.7686 26.4591
672 1 -1.1104 1.09046 13.8712 26.3494
674 2 2.2208 5.42887 20.9917 25.006
675 2 2.2208 5.28788 15.2804 25.0633
677 1 -1.1104 1.13406 19.5846 23.702
678 1 -1.1104 1.26169 14.0463 23.4864
679 2 2.2208 5.27092 18.1999 22.1897
680 1 -1.1104 4.05365 19.4351 26.3316
669 1 -1.1104 6.73892 16.6908 26.3261
480 1 -1.1104 9.50559 19.4985 26.3402
413 2 2.2208 -0.298335 4.09531 19.399
663 1 -1.1104 12.4022 16.9912 26.2831
416 2 2.2208 8.08197 1.33312 13.7928
481 1 -1.1104 9.59049 13.9654 26.4188
639 1 -1.1104 12.2836 16.8167 23.6582
516 2 2.2208 8.03358 18.1572 24.9351
572 1 -1.1104 6.86705 16.8549 23.28
665 1 -1.1104 9.43409 19.5928 23.5802
603 2 2.2208 10.8345 18.2284 22.1607
638 1 -1.1104 12.2924 19.5936 26.2613
529 1 -1.1104 12.2306 16.6802 20.8539
608 1 -1.1104 12.3432 14.0487 23.6043
453 1 -1.1104 9.53297 16.7487 23.5533
673 1 -1.1104 6.71026 19.4297 23.6096
454 1 -1.1104 9.53484 16.7021 26.3037
414 2 2.2208 8.17641 15.4154 22.1382
494 1 -1.1104 6.81545 19.5573 20.6508
381 2 2.2208 -0.311399 -1.55029 13.7633
9751 2 2.2208 13.6291 1.30847 19.2923
9960 2 2.2208 13.6525 -4.23262 19.2502
9787 2 2.2208 -0.348692 18.0422 22.2418
9788 2 2.2208 -0.257007 21.0071 24.749
380 2 2.2208 -0.0482148 -1.49521 19.2812
9821 2 2.2208 13.5771 12.5939 19.4648
9931 2 2.2208 -0.286639 15.2947 19.5186
9889 2 2.2208 13.6586 15.261 16.5637
580 2 2.2208 -0.331226 1.3234 22.3342
9826 2 2.2208 -0.152836 12.4266 16.7014
325 2 2.2208 13.5888 -4.25057 13.8011
542 2 2.2208 5.27553 18.1215 27.6638
384 2 2.2208 2.44489 1.32532 13.7472
324 2 2.2208 10.9042 18.113 27.6495
385 2 2.2208 5.24254 4.17585 13.8737
9707 2 2.2208 13.5386 4.10053 27.6385
681 2 2.2208 5.27745 23.7401 5.30179
682 2 2.2208 5.28928 29.3349 5.20445
683 1 -1.1104 0.990007 25.2288 1.14556
684 1 -1.1104 0.871006 25.1711 4.01567
685 1 -1.1104 0.945943 22.2925 0.942411
686 1 -1.1104 1.00583 28.1184 1.04167
687 2 2.2208 5.23287 26.5722 2.4774
688 1 -1.1104 1.17477 22.3803 3.83247
689 1 -1.1104 1.07446 27.9398 3.81113
690 1 -1.1104 3.91622 25.2335 1.24126
691 2 2.2208 2.4631 23.731 2.54549
692 2 2.2208 2.53809 29.4207 2.38596
693 1 -1.1104 3.79522 25.1072 4.01159
694 2 2.2208 2.44988 26.5383 5.31139
695 1 -1.1104 3.765 22.3989 1.09525
696 1 -1.1104 3.93781 27.9909 1.0454
697 1 -1.1104 3.90022 22.2538 3.83392
698 1 -1.1104 3.83565 27.9072 3.78028
824 1 -1.1104 1.08768 22.2918 6.56245
822 1 -1.1104 1.03058 25.1232 6.71018
825 1 -1.1104 1.15036 27.9513 6.6719
1396 1 -1.1104 12.2558 47.5364 0.990532
702 1 -1.1104 6.70529 25.1942 1.19159
704 1 -1.1104 6.54101 22.2614 1.07939
707 1 -1.1104 6.74006 27.9158 4.01647
705 1 -1.1104 6.64172 27.8918 1.12856
703 1 -1.1104 6.66023 25.273 3.98468
1239 2 2.2208 2.52982 26.6737 -0.259468
1025 2 2.2208 8.21714 37.831 -0.381542
828 1 -1.1104 3.74524 25.2795 6.83903
829 1 -1.1104 3.82204 22.3116 6.59258
1361 1 -1.1104 6.79942 47.6473 4.09522
1374 1 -1.1104 3.92701 47.5416 1.06477
751 2 2.2208 -0.229434 32.148 2.52417
998 2 2.2208 10.8763 26.4769 13.6611
706 1 -1.1104 6.54318 22.3916 3.96962
708 2 2.2208 10.8937 23.6934 5.26114
709 2 2.2208 10.9942 29.3403 5.26953
710 1 -1.1104 12.3008 25.1756 1.11577
711 1 -1.1104 12.2158 25.1725 3.87644
712 1 -1.1104 12.1189 22.2944 1.09608
713 1 -1.1104 12.1732 28.0643 1.00112
714 2 2.2208 10.8222 26.5618 2.59075
715 1 -1.1104 12.4626 22.4081 3.85099
716 1 -1.1104 12.2855 28.0189 3.69432
717 1 -1.1104 9.42438 25.1684 1.21666
718 2 2.2208 8.06993 23.7408 2.60452
719 2 2.2208 8.19444 29.2827 2.59266
720 1 -1.1104 9.54678 25.0201 3.91866
721 2 2.2208 8.04608 26.4972 5.44462
722 1 -1.1104 9.35589 22.4068 1.05179
723 1 -1.1104 9.54351 27.9053 1.05334
724 1 -1.1104 9.41046 22.1225 4.00728
725 1 -1.1104 9.49633 27.829 4.01391
10240 2 2.2208 13.6335 29.3846 8.05781
1357 1 -1.1104 6.6161 47.6014 1.12154
823 1 -1.1104 6.63429 25.0866 6.72817
860 1 -1.1104 9.49516 27.9944 6.77055
856 1 -1.1104 12.2867 22.2639 6.56577
1359 1 -1.1104 1.09406 47.728 3.81658
729 2 2.2208 5.28022 34.9078 5.31348
730 1 -1.1104 1.30979 30.673 1.12523
731 1 -1.1104 1.09284 36.3244 1.09821
733 1 -1.1104 1.14795 30.6889 3.9284
734 1 -1.1104 1.0908 36.2477 3.96671
736 1 -1.1104 0.993345 33.504 1.16947
737 2 2.2208 5.31494 32.1451 2.49258
738 2 2.2208 5.27651 37.6432 2.48821
739 1 -1.1104 1.2546 33.4314 3.96434
741 1 -1.1104 3.82154 30.8956 1.09494
742 1 -1.1104 3.85768 36.2163 1.16353
743 2 2.2208 2.4429 34.8198 2.52357
744 1 -1.1104 3.86353 30.7454 3.86956
745 1 -1.1104 3.87475 36.2457 3.95617
746 2 2.2208 2.57116 32.1305 5.26901
747 2 2.2208 2.51983 37.6722 5.35792
748 1 -1.1104 3.72737 33.3786 1.10153
749 1 -1.1104 4.04191 33.4257 3.94602
732 1 -1.1104 6.68931 36.5267 1.14591
735 1 -1.1104 6.68784 36.1483 3.8794
879 1 -1.1104 1.01278 30.6519 6.7147
993 2 2.2208 -0.269383 32.1298 8.08607
880 1 -1.1104 1.12379 36.372 6.85389
10457 2 2.2208 13.6268 29.1948 13.6692
1269 2 2.2208 8.17223 26.5345 -0.241638
974 1 -1.1104 9.42464 39.0749 9.44791
976 1 -1.1104 9.57906 39.2059 12.3363
740 1 -1.1104 6.74544 33.4432 3.91054
755 1 -1.1104 6.67227 33.4592 1.1532
882 1 -1.1104 6.76016 36.4244 6.62644
1017 2 2.2208 5.21934 46.0771 -0.240757
753 1 -1.1104 6.79069 30.7101 1.05929
754 1 -1.1104 6.71331 30.6417 3.9542
756 2 2.2208 10.9815 34.9047 5.27462
757 1 -1.1104 12.367 31.0537 1.01826
758 1 -1.1104 12.3202 36.3573 1.12853
759 1 -1.1104 12.3035 30.768 3.82798
760 1 -1.1104 12.2696 36.3352 3.95143
761 1 -1.1104 12.4061 33.7992 0.983662
762 2 2.2208 10.9594 32.1393 2.40145
763 2 2.2208 10.9516 37.6849 2.33781