ITEM: TIMESTEP
20000
ITEM: NUMBER OF ATOMS
17820
ITEM: BOX BOUNDS pp pp pp
-3.6071135359491935e-01 2.7700711353594826e+01
-4.2068393305875613e+00 3.3228683933057897e+02
-3.5910983433035532e-01 2.7699109834330187e+01
ITEM: ATOMS id type q x y z
1 2 2.2208 5.1582 1.36157 5.29676
2 1 -1.1104 0.828073 -2.87644 1.17032
3 1 -1.1104 1.07841 2.6924 1.06414
6 1 -1.1104 1.02475 -2.78792 3.87153
7 1 -1.1104 0.986721 2.70498 3.87116
10 1 -1.1104 1.08563 -0.043294 0.849982
12 2 2.2208 5.25373 -1.42605 2.41773
14 1 -1.1104 0.864597 0.00187748 3.85951
16 1 -1.1104 3.84376 -2.81568 1.04093
17 1 -1.1104 3.78142 2.65882 0.933621
18 2 2.2208 2.44992 1.26868 2.44491
19 1 -1.1104 3.77433 -2.81508 3.88729
20 1 -1.1104 3.75769 2.61797 3.97013
21 2 2.2208 2.44218 -1.47891 5.27456
22 2 2.2208 2.32359 4.01482 5.27574
23 1 -1.1104 3.83261 -0.031236 1.01379
24 1 -1.1104 3.86158 -0.174854 3.77119
13 2 2.2208 5.22626 4.13883 2.40536
166 1 -1.1104 1.0642 -2.99046 6.68772
173 1 -1.1104 3.768 2.85187 6.68081
170 1 -1.1104 0.924052 -0.218887 6.69494
4 1 -1.1104 6.60251 -2.8122 1.05285
8 1 -1.1104 6.62834 -2.76382 3.75556
231 2 2.2208 7.88657 -4.27035 8.09621
319 1 -1.1104 9.23615 14.0144 9.48983
167 1 -1.1104 0.928928 2.62824 6.57664
174 1 -1.1104 3.64559 -0.0985482 6.61305
169 1 -1.1104 6.57892 2.65185 6.84884
172 1 -1.1104 3.85475 -2.86909 6.67164
9413 2 2.2208 13.4906 9.73582 5.1878
15 1 -1.1104 6.49326 0.0525385 3.81271
5 1 -1.1104 6.63327 2.47819 1.02947
11 1 -1.1104 6.68637 -0.12861 0.925912
9 1 -1.1104 6.57055 2.76741 4.02011
31 2 2.2208 10.8619 1.29103 5.26866
32 1 -1.1104 12.1216 -2.8809 0.940924
33 1 -1.1104 12.2727 2.8171 1.11067
34 1 -1.1104 12.3208 -2.62767 3.75871
35 1 -1.1104 12.1161 2.77003 3.85559
36 1 -1.1104 12.148 -0.0844868 1.03313
37 2 2.2208 10.6809 -1.5312 2.42531
38 2 2.2208 10.7288 4.11859 2.50263
39 1 -1.1104 12.1068 0.067229 3.86668
40 1 -1.1104 9.27514 -2.95371 1.0813
41 1 -1.1104 9.42461 2.71331 1.06614
42 2 2.2208 8.04049 1.24689 2.53258
43 1 -1.1104 9.35095 -3.02545 3.7917
44 1 -1.1104 9.35331 2.56689 3.8083
45 2 2.2208 7.84829 -1.46666 5.24681
46 2 2.2208 8.07401 4.03667 5.34045
47 1 -1.1104 9.41883 -0.109521 1.00344
48 1 -1.1104 9.34418 -0.239434 3.82589
206 1 -1.1104 12.2236 2.67828 6.71025
205 1 -1.1104 12.1869 -2.95604 6.63365
207 1 -1.1104 12.2165 -0.0137125 6.66108
9687 2 2.2208 13.5375 12.6018 2.45091
410 2 2.2208 8.09612 15.2885 -0.318472
171 1 -1.1104 6.44127 -0.167902 6.59736
9384 2 2.2208 13.5557 4.20144 5.20516
9519 2 2.2208 13.5928 4.21328 10.8898
54 2 2.2208 5.26018 6.88673 5.37543
55 2 2.2208 5.18248 12.5262 5.26646
56 1 -1.1104 1.10812 8.19782 1.01579
58 1 -1.1104 0.936409 8.17105 3.83698
60 1 -1.1104 1.00475 5.56076 1.05845
61 1 -1.1104 1.14724 11.0504 1.20866
66 2 2.2208 5.29107 9.63376 2.55356
67 1 -1.1104 0.981204 5.3208 3.91496
68 1 -1.1104 0.869896 10.9903 3.93208
71 1 -1.1104 3.87772 8.30058 1.12285
72 2 2.2208 2.45493 6.83597 2.5013
73 2 2.2208 2.33481 12.5272 2.42763
74 1 -1.1104 3.87512 8.1953 3.99557
75 2 2.2208 2.39435 9.65887 5.33677
76 1 -1.1104 3.80526 5.48415 1.0779
77 1 -1.1104 3.83267 11.1735 1.12801
79 1 -1.1104 3.86481 5.3368 3.84396
80 1 -1.1104 3.89655 11.0006 3.85708
239 1 -1.1104 3.88044 5.59439 6.73792
69 1 -1.1104 6.6386 5.58784 3.83638
236 1 -1.1104 1.03219 5.39341 6.75349
62 1 -1.1104 0.896954 10.8675 6.76104
57 1 -1.1104 6.57661 8.30093 1.08977
59 1 -1.1104 6.55297 8.32637 3.8401
234 1 -1.1104 0.964704 8.2481 6.57546
238 1 -1.1104 3.75232 8.49358 6.82674
237 1 -1.1104 6.67832 5.44734 6.68986
63 1 -1.1104 6.61513 5.33075 1.06086
317 2 2.2208 7.91147 15.2645 10.8546
70 1 -1.1104 6.62272 11.1578 3.86104
64 1 -1.1104 6.52407 11.1634 1.03286
84 2 2.2208 10.8592 6.75117 5.33166
85 2 2.2208 10.8269 12.4311 5.2142
86 1 -1.1104 12.043 8.3352 1.06879
87 1 -1.1104 12.0643 8.29649 3.99135
88 1 -1.1104 12.0858 5.64332 1.14239
89 1 -1.1104 12.1642 11.1362 0.991813
91 2 2.2208 10.6842 9.5979 2.54895
92 1 -1.1104 12.1672 5.57332 3.90807
93 1 -1.1104 12.1449 11.081 3.84056
94 1 -1.1104 9.33772 8.32008 1.14117
95 2 2.2208 7.9393 6.85184 2.53813
96 2 2.2208 7.99629 12.5458 2.43286
97 1 -1.1104 9.37825 8.17563 3.93382
98 2 2.2208 8.0168 9.688 5.34293
99 1 -1.1104 9.32989 5.50287 1.14364
100 1 -1.1104 9.43266 11.0295 1.00895
102 1 -1.1104 9.39754 5.2943 4.03085
103 1 -1.1104 9.33304 10.9911 3.83525
266 1 -1.1104 12.2578 5.39448 6.64543
9600 2 2.2208 13.7156 9.66853 10.8167
65 1 -1.1104 6.51889 11.1505 6.74984
265 1 -1.1104 12.1277 8.32393 6.67238
101 1 -1.1104 9.41263 10.9766 6.70402
542 2 2.2208 5.21551 18.2409 -0.467303
82 2 2.2208 10.9162 18.1932 10.8922
106 2 2.2208 5.33868 18.0614 5.26491
107 1 -1.1104 0.9998 13.9096 0.985831
109 1 -1.1104 0.986863 19.5567 0.997249
113 1 -1.1104 1.02002 13.8553 3.92854
114 1 -1.1104 0.983068 19.4714 3.85423
116 1 -1.1104 1.05142 16.7025 1.05034
119 2 2.2208 5.1727 15.3634 2.42935
120 2 2.2208 5.20614 20.7833 2.4763
121 1 -1.1104 0.827211 16.6734 3.96053
123 1 -1.1104 3.85711 13.8887 1.04756
125 1 -1.1104 3.72128 19.4724 1.24936
127 2 2.2208 2.28816 18.1145 2.47278
128 1 -1.1104 3.84065 13.8345 3.78079
129 1 -1.1104 3.92643 19.4702 3.90485
130 2 2.2208 2.25939 15.2744 5.27888
131 2 2.2208 2.42495 20.885 5.30145
132 1 -1.1104 3.77704 16.8955 1.09125
134 1 -1.1104 3.71587 16.7863 3.84927
124 1 -1.1104 3.86756 13.8105 6.6127
110 1 -1.1104 6.74516 13.987 0.966098
122 1 -1.1104 6.49272 16.589 3.83629
138 1 -1.1104 6.59676 19.4589 1.02857
9595 2 2.2208 13.5935 6.83662 8.02822
108 1 -1.1104 0.830624 13.83 6.73549
117 1 -1.1104 0.970193 16.7025 6.80345
133 1 -1.1104 3.89461 16.7551 6.71079
111 1 -1.1104 6.69579 13.9605 6.73225
9690 2 2.2208 13.5309 18.1002 2.4117
9613 2 2.2208 -0.430853 9.57307 8.15799
53 2 2.2208 13.429 -4.20882 2.51696
9691 2 2.2208 13.5645 1.259 8.15111
9692 2 2.2208 -0.435771 20.9097 8.10068
9596 2 2.2208 13.6959 12.5581 8.0558
115 1 -1.1104 6.6052 14.0027 4.01531
140 1 -1.1104 6.68194 16.6884 1.02281
139 1 -1.1104 6.83086 19.3657 3.93012
141 2 2.2208 10.7252 18.1084 5.19425
142 1 -1.1104 12.1262 13.8489 1.14924
144 1 -1.1104 12.1618 19.5172 0.88839
146 1 -1.1104 12.2389 14.0075 4.02426
147 1 -1.1104 12.2608 19.5271 3.84438
148 1 -1.1104 12.3143 16.7429 0.954189
150 2 2.2208 10.6916 15.2857 2.50885
151 2 2.2208 10.7847 20.8293 2.4168
152 1 -1.1104 12.1275 16.6015 3.91123
153 1 -1.1104 9.46777 13.9495 1.14536
155 1 -1.1104 9.49528 19.5188 1.06836
157 2 2.2208 7.9888 18.1058 2.40458
158 1 -1.1104 9.26863 13.8204 3.88282
159 1 -1.1104 9.52828 19.3705 3.76008
160 2 2.2208 7.9559 15.3244 5.25517
161 2 2.2208 8.07915 20.8638 5.21871
162 1 -1.1104 9.39182 16.8348 1.06163
164 1 -1.1104 9.31452 16.7261 3.82372
137 2 2.2208 -0.399336 18.1591 5.274
145 1 -1.1104 12.2848 19.5964 6.65189
118 1 -1.1104 6.59801 16.7634 6.75938
290 1 -1.1104 6.28643 13.9275 9.52823
9711 2 2.2208 13.635 18.0512 13.724
105 1 -1.1104 12.1885 13.8461 9.45773
112 1 -1.1104 6.70449 19.4214 6.61853
50 2 2.2208 13.6098 -1.36347 5.17044
168 1 -1.1104 6.5538 -2.86769 6.63804
175 2 2.2208 5.09861 1.36686 10.9056
176 1 -1.1104 0.831374 -2.815 12.331
177 1 -1.1104 0.953435 2.70857 12.209
180 1 -1.1104 0.898462 -2.92335 9.53719
181 1 -1.1104 0.952759 2.62685 9.44141
184 1 -1.1104 0.984774 -0.0153038 12.3038
186 2 2.2208 5.08443 -1.41312 8.08032
187 2 2.2208 5.22236 4.19829 8.14211
188 1 -1.1104 0.869531 -0.2148 9.52269
190 1 -1.1104 3.75275 -2.85147 12.3143
191 1 -1.1104 3.74189 2.8262 12.1587
192 2 2.2208 2.3185 1.2931 8.02923
193 1 -1.1104 3.78269 -2.84473 9.46802
194 1 -1.1104 3.70666 2.75725 9.51572
195 2 2.2208 2.35846 -1.53263 10.9005
196 2 2.2208 2.31483 4.10357 10.8019
197 1 -1.1104 3.74993 -0.0758846 12.1659
198 1 -1.1104 3.71692 -0.0771746 9.38124
183 1 -1.1104 6.53942 2.7296 9.71966
179 1 -1.1104 6.48248 2.74628 12.5144
342 2 2.2208 7.95324 4.01337 -0.341418
306 1 -1.1104 6.48816 16.6964 12.3204
210 1 -1.1104 9.272 -0.0348948 6.55746
208 1 -1.1104 9.21151 -2.95998 6.62744
209 1 -1.1104 9.34297 2.69568 6.73217
49 2 2.2208 13.4921 1.36036 2.37929
156 1 -1.1104 9.50122 19.432 6.61808
182 1 -1.1104 6.6147 -2.97889 9.43344
189 1 -1.1104 6.48985 -0.0523132 9.53015
185 1 -1.1104 6.55927 -0.0587846 12.2777
178 1 -1.1104 6.58821 -2.88368 12.2689
211 2 2.2208 10.7803 1.31656 11.0277
212 1 -1.1104 11.9732 -2.91888 12.398
213 1 -1.1104 12.1356 2.7965 12.3309
214 1 -1.1104 12.1209 -2.75178 9.5319
215 1 -1.1104 12.1507 2.72672 9.63057
216 1 -1.1104 12.1862 -0.0529323 12.3872
217 2 2.2208 10.7523 -1.30661 8.17634
218 2 2.2208 10.7441 4.07971 8.16579
219 1 -1.1104 12.1558 -0.0426065 9.57613
220 1 -1.1104 9.30665 -2.83945 12.5608
221 1 -1.1104 9.40832 2.82998 12.4512
222 2 2.2208 8.00403 1.28218 8.13269
223 1 -1.1104 9.377 -2.79194 9.47454
224 1 -1.1104 9.32492 2.65273 9.63068
225 2 2.2208 7.91143 -1.4554 10.9157
226 2 2.2208 7.8653 4.04867 11.0827
227 1 -1.1104 9.3984 -0.0228792 12.3334
228 1 -1.1104 9.32154 -0.127659 9.54843
163 1 -1.1104 9.39508 16.6673 6.51833
297 1 -1.1104 6.59072 14.0053 12.2662
149 1 -1.1104 12.173 16.8033 6.61695
78 1 -1.1104 3.62032 11.106 6.67349
235 1 -1.1104 6.55022 8.31635 6.71176
240 2 2.2208 5.11194 6.9607 10.9075
241 2 2.2208 5.15282 12.5693 10.9393
242 1 -1.1104 0.9525 8.30687 12.2944
244 1 -1.1104 0.915896 8.23418 9.4806
246 1 -1.1104 0.885933 5.4336 12.2996
247 1 -1.1104 0.928281 11.1473 12.4802
250 2 2.2208 5.15451 9.77506 7.99396
251 1 -1.1104 1.01296 5.4701 9.39577
252 1 -1.1104 1.11121 11.0794 9.71478
255 1 -1.1104 3.84058 8.27079 12.281
256 2 2.2208 2.39257 6.91117 8.15649
257 2 2.2208 2.37648 12.5607 8.09541
258 1 -1.1104 3.69499 8.3643 9.60813
259 2 2.2208 2.40256 9.72105 10.946
260 1 -1.1104 3.66679 5.41986 12.3523
261 1 -1.1104 3.76112 11.1108 12.3143
262 1 -1.1104 3.82063 5.62387 9.46335
263 1 -1.1104 3.96086 11.0617 9.45878
254 1 -1.1104 6.71875 11.1941 9.40092
253 1 -1.1104 6.47207 5.56335 9.59621
249 1 -1.1104 6.61536 11.1364 12.2189
248 1 -1.1104 6.57451 5.54773 12.314
245 1 -1.1104 6.57002 8.34111 9.40395
154 1 -1.1104 9.51653 13.799 6.67121
269 1 -1.1104 9.35326 5.50696 6.65665
143 1 -1.1104 12.2965 13.9695 6.78696
312 1 -1.1104 12.3293 16.7092 9.65052
243 1 -1.1104 6.60266 8.42004 12.218
90 1 -1.1104 12.1298 11.1304 6.61571
267 1 -1.1104 9.37662 8.30098 6.70094
264 1 -1.1104 9.41017 11.0988 9.5251
268 1 -1.1104 9.38161 5.56255 9.45597
270 1 -1.1104 9.4906 11.0698 12.2526
271 1 -1.1104 9.32008 5.54492 12.3176
272 2 2.2208 7.99591 9.70809 10.79
273 1 -1.1104 9.44597 8.16471 9.41722
274 2 2.2208 7.92932 12.4747 8.09155
275 2 2.2208 7.87824 6.88702 8.13002
276 2 2.2208 10.804 7.01273 10.8795
277 2 2.2208 10.8766 12.3389 10.8801
278 1 -1.1104 12.2138 8.35089 12.3556
279 1 -1.1104 12.3134 8.40474 9.4653
280 1 -1.1104 12.0001 5.61372 12.2991
281 1 -1.1104 12.2927 11.0866 12.3254
282 2 2.2208 10.8261 9.61424 8.0275
283 1 -1.1104 12.1517 5.51841 9.44846
284 1 -1.1104 12.2299 11.0487 9.45121
285 1 -1.1104 9.41512 8.32167 12.2997
165 1 -1.1104 12.0579 16.7809 12.3731
314 1 -1.1104 9.66334 16.8179 9.29758
313 1 -1.1104 9.40135 13.8812 12.3079
126 1 -1.1104 3.69817 19.3489 6.61296
315 1 -1.1104 9.20141 16.6663 12.2385
288 1 -1.1104 6.71352 19.5378 9.56193
296 1 -1.1104 6.61463 19.6198 12.4024
289 1 -1.1104 6.63927 16.7457 9.51512
302 1 -1.1104 1.02443 19.4695 6.8179
310 2 2.2208 2.31414 15.2953 10.9178
286 1 -1.1104 3.74268 19.4882 12.3489
287 1 -1.1104 3.78633 13.9557 12.3272
291 1 -1.1104 0.82717 19.4457 9.56957
292 1 -1.1104 0.981551 16.6746 9.58752
293 2 2.2208 5.27179 20.8247 8.09244
294 1 -1.1104 0.969823 13.9593 9.4237
295 2 2.2208 5.19202 15.2295 8.03268
298 1 -1.1104 0.975177 19.4441 12.2668
299 1 -1.1104 1.1314 13.7677 12.3195
300 2 2.2208 5.21517 18.0856 11.0444
301 1 -1.1104 3.82435 19.5035 9.54704
303 2 2.2208 2.45659 18.009 8.08487
304 1 -1.1104 3.84164 16.5916 9.44811
305 1 -1.1104 3.59976 14.0016 9.54823
307 1 -1.1104 0.984358 16.5159 12.2928
308 1 -1.1104 3.72087 16.811 12.1945
309 2 2.2208 2.42301 20.8419 10.9198
9482 2 2.2208 13.5687 15.4494 5.39121
83 1 -1.1104 12.3669 13.8509 12.3862
320 2 2.2208 8.09322 18.1327 8.07577
316 2 2.2208 8.06158 20.866 10.9253
104 1 -1.1104 12.2849 19.626 12.2179
318 1 -1.1104 9.49716 19.537 9.54392
321 1 -1.1104 9.45002 19.5991 12.4191
135 1 -1.1104 12.2761 19.599 9.42635
229 2 2.2208 10.875 15.2242 8.09817
311 2 2.2208 10.8221 20.9818 8.05129
9890 2 2.2208 -0.35407 12.5076 -0.292662
9683 2 2.2208 -0.397549 9.60131 2.40417
9685 2 2.2208 13.6659 18.2376 8.06647
9688 2 2.2208 13.6258 6.94345 2.52459
28 2 2.2208 2.33974 -4.12674 2.49852
335 2 2.2208 2.34444 20.8384 -0.436947
334 2 2.2208 10.7737 15.3293 13.7231
232 2 2.2208 10.6883 -4.16384 10.9135
230 2 2.2208 13.452 -1.42791 10.8435
9824 2 2.2208 13.4644 9.74246 -0.359987
333 2 2.2208 10.9053 21.0614 13.6431
571 2 2.2208 2.41093 -1.48765 -0.29262
329 2 2.2208 8.02779 12.5024 13.648
662 2 2.2208 10.7123 12.4826 -0.278832
601 2 2.2208 7.99976 -1.62264 -0.274985
636 2 2.2208 2.41741 9.67689 -0.297655
330 2 2.2208 2.36947 18.0042 13.5587
635 2 2.2208 5.19953 6.81896 -0.270327
339 2 2.2208 2.40128 4.06772 -0.310905
326 2 2.2208 5.13448 9.73644 13.6121
517 2 2.2208 2.41053 15.3277 -0.384343
343 2 2.2208 5.14905 1.37444 16.4386
344 1 -1.1104 1.03874 -2.75334 17.9043
345 1 -1.1104 0.978094 2.80269 18.0257
348 1 -1.1104 1.04484 -2.86585 15.131
350 1 -1.1104 0.863498 2.6884 15.2192
356 1 -1.1104 1.02196 0.04094 17.9391
358 2 2.2208 5.27541 -1.55058 19.3208
359 2 2.2208 5.18658 4.09885 19.3532
360 1 -1.1104 0.956537 -0.140846 15.0492
364 1 -1.1104 3.85043 -2.87857 17.9094
365 1 -1.1104 3.857 2.69628 17.7339
366 2 2.2208 2.39488 1.33792 19.3621
367 1 -1.1104 3.85313 -2.869 15.2005
369 1 -1.1104 3.65647 2.89621 15.0271
371 2 2.2208 2.47966 -1.53883 16.5382
373 1 -1.1104 3.87043 -0.156624 18.0059
374 1 -1.1104 3.78929 -0.0550449 15.099
372 2 2.2208 2.34383 4.06871 16.5285
375 1 -1.1104 3.89052 -0.0411063 20.8279
9862 2 2.2208 13.6938 12.4882 24.8334
9893 2 2.2208 13.6677 1.27526 24.7785
370 1 -1.1104 3.81923 2.80994 20.5888
663 1 -1.1104 12.1977 16.6671 26.3043
368 1 -1.1104 3.88406 -2.97055 20.6547
361 1 -1.1104 1.00458 0.0764773 20.6761
349 1 -1.1104 0.998547 -2.92535 20.7919
351 1 -1.1104 0.997033 2.8694 20.814
327 2 2.2208 2.52413 12.3678 13.7628
347 1 -1.1104 6.50874 2.72842 17.9142
354 1 -1.1104 6.56949 2.74455 15.1271
362 1 -1.1104 6.58646 -0.0788574 14.9969
352 1 -1.1104 6.57187 -2.90752 15.0913
346 1 -1.1104 6.56899 -3.01197 17.9116
357 1 -1.1104 6.6112 -0.142968 17.7904
386 2 2.2208 10.7786 1.3527 16.5488
387 1 -1.1104 12.1677 -2.78453 17.8898
388 1 -1.1104 12.2434 2.88337 17.8536
389 1 -1.1104 12.1174 -2.7809 15.2481
391 1 -1.1104 12.1869 2.91049 15.1082
393 1 -1.1104 12.193 0.0680361 17.9752
394 2 2.2208 10.7567 -1.42286 19.2867
395 2 2.2208 10.8033 4.17475 19.2776
396 1 -1.1104 12.181 0.181534 15.2279
398 1 -1.1104 9.29019 -2.80867 17.9393
399 1 -1.1104 9.46725 2.78496 17.9704
400 2 2.2208 7.95665 1.39209 19.303
401 1 -1.1104 9.4124 -2.86424 15.2029
403 1 -1.1104 9.41946 2.63943 15.2158
405 2 2.2208 7.94131 -1.54359 16.5992
406 2 2.2208 7.8874 4.11352 16.6112
407 1 -1.1104 9.50404 0.000414929 17.8389
408 1 -1.1104 9.31693 -0.073791 15.09
409 1 -1.1104 9.39101 -0.0917752 20.6365
390 1 -1.1104 12.1501 -2.79092 20.8281
353 1 -1.1104 6.57351 -2.87838 20.7323
392 1 -1.1104 12.2063 2.74292 20.7095
402 1 -1.1104 9.45364 -2.85505 20.6851
9823 2 2.2208 13.5218 6.99218 24.8922
9822 2 2.2208 -0.380796 15.2249 24.782
419 2 2.2208 5.16961 6.85146 16.4237
420 2 2.2208 5.15753 12.4492 16.5843
421 1 -1.1104 0.913596 8.45516 17.9904
423 1 -1.1104 1.04123 8.20308 15.2057
427 1 -1.1104 0.981458 5.61153 18.0052
428 1 -1.1104 0.96935 11.1461 17.9891
431 2 2.2208 5.15439 9.61136 19.2164
432 1 -1.1104 0.933765 5.59311 15.114
434 1 -1.1104 0.972824 11.0127 15.2146
440 1 -1.1104 3.79009 8.28815 17.8241
441 2 2.2208 2.33869 6.83373 19.3319
442 2 2.2208 2.24186 12.4846 19.3702
443 1 -1.1104 3.90765 8.3155 14.9862
445 2 2.2208 2.31411 9.726 16.5174
446 1 -1.1104 3.69264 5.51659 17.9711
447 1 -1.1104 3.7922 11.0488 17.9511
448 1 -1.1104 3.78565 5.5693 15.0924
450 1 -1.1104 3.67387 10.924 15.125
430 1 -1.1104 6.51653 11.0618 17.9867
607 2 2.2208 13.5677 -1.42834 27.648
425 1 -1.1104 6.57956 8.24916 15.0306
422 1 -1.1104 6.54709 8.21413 17.8563
439 1 -1.1104 6.48518 11.19 20.7197
9889 2 2.2208 13.6531 15.2334 16.476
332 2 2.2208 5.19278 15.2166 13.7823
9957 2 2.2208 13.5875 17.9706 24.8098
438 1 -1.1104 6.50843 11.1337 15.1058
429 1 -1.1104 6.61062 5.48576 18.0028
436 1 -1.1104 6.46921 5.40923 15.1937
455 2 2.2208 10.7122 6.85938 16.4747
456 2 2.2208 10.8024 12.4454 16.4586
457 1 -1.1104 12.056 8.3176 18.0474
458 1 -1.1104 11.9649 8.32498 15.1302
460 1 -1.1104 12.2395 5.71574 17.8852
461 1 -1.1104 12.3277 11.1308 17.9949
462 2 2.2208 10.6371 9.58568 19.3978
463 1 -1.1104 12.236 5.44774 14.9926
465 1 -1.1104 12.1101 10.9913 15.0842
467 1 -1.1104 9.28223 8.21472 17.8624
468 2 2.2208 7.97964 6.92849 19.303
469 2 2.2208 8.06687 12.5725 19.2408
470 1 -1.1104 9.2859 8.34074 15.1026
472 2 2.2208 7.91447 9.76594 16.3308
473 1 -1.1104 9.41946 5.50947 17.9759
474 1 -1.1104 9.35187 11.0032 17.6578
475 1 -1.1104 9.2671 5.62724 15.2736
477 1 -1.1104 9.32951 11.1168 14.9788
466 1 -1.1104 12.0954 11.1224 20.731
464 1 -1.1104 12.2675 5.43321 20.7425
471 1 -1.1104 9.41678 8.15568 20.8603
476 1 -1.1104 9.34819 5.45301 20.8542
10011 2 2.2208 13.5135 9.64971 22.1104
9894 2 2.2208 13.6229 -1.35473 22.161
481 1 -1.1104 9.48841 13.9009 26.3994
482 2 2.2208 5.17159 17.9578 16.5469
483 1 -1.1104 0.992265 13.8731 17.9774
484 1 -1.1104 1.14384 19.5159 17.902
487 1 -1.1104 1.03964 13.8455 15.1856
489 1 -1.1104 1.04098 19.6089 15.0853
495 1 -1.1104 1.02221 16.5247 17.7725
497 2 2.2208 5.15344 15.2166 19.2849
498 2 2.2208 5.26592 20.8207 19.4525
499 1 -1.1104 1.09272 16.7123 15.059
503 1 -1.1104 3.77407 13.865 17.9658
504 1 -1.1104 3.81298 19.2803 17.8887
505 2 2.2208 2.41199 18.0544 19.3406
506 1 -1.1104 3.71678 13.8303 15.1255
508 1 -1.1104 3.83994 19.3713 15.1544
510 2 2.2208 2.45174 15.2124 16.4427
511 2 2.2208 2.37277 20.8772 16.4635
512 1 -1.1104 3.79796 16.5951 17.9851
513 1 -1.1104 3.79195 16.6402 15.0622
501 1 -1.1104 6.56094 16.6871 15.0773
485 1 -1.1104 6.5494 13.7666 17.8135
496 1 -1.1104 6.66923 16.7331 17.924
486 1 -1.1104 6.61406 19.5354 17.9955
493 1 -1.1104 6.60453 19.4397 15.2017
383 2 2.2208 5.29121 -1.45897 13.654
514 1 -1.1104 3.84367 16.6633 20.7065
9896 2 2.2208 13.6466 -1.32881 16.4753
9697 2 2.2208 13.4652 6.87319 13.7415
454 1 -1.1104 9.51194 16.7892 26.3837
676 1 -1.1104 6.39173 13.8184 23.6032
491 1 -1.1104 6.50495 13.9712 15.0309
518 2 2.2208 10.8461 18.0591 16.4829
519 1 -1.1104 12.2338 13.9924 17.9313
520 1 -1.1104 12.067 19.6003 17.6752
521 1 -1.1104 12.2744 13.8468 15.1073
523 1 -1.1104 12.061 19.3719 14.9607
525 1 -1.1104 12.3079 16.7236 17.8268
526 2 2.2208 10.779 15.4138 19.2626
527 2 2.2208 10.7622 20.8781 19.38
528 1 -1.1104 12.3233 16.6116 14.9996
530 1 -1.1104 9.39507 13.8646 17.9196
531 1 -1.1104 9.27285 19.332 17.9732
532 2 2.2208 7.92414 18.0715 19.5033
533 1 -1.1104 9.43466 13.845 15.0815
535 1 -1.1104 9.29535 19.3455 15.2709
537 2 2.2208 7.98697 15.378 16.5444
538 2 2.2208 7.88317 20.7413 16.6192
539 1 -1.1104 9.4699 16.5934 17.8704
540 1 -1.1104 9.5609 16.594 15.171
576 2 2.2208 5.25573 -4.23248 22.1255
516 2 2.2208 8.05061 18.0233 24.9548
9934 2 2.2208 13.52 15.3178 27.7786
522 1 -1.1104 12.1645 13.8858 20.7336
534 1 -1.1104 9.51144 13.9562 20.6509
641 2 2.2208 10.8228 20.8205 24.949
577 2 2.2208 2.26874 -4.22773 24.907
9821 2 2.2208 13.5758 12.5579 19.3352
9820 2 2.2208 13.6293 6.8948 19.4093
546 2 2.2208 5.32339 1.22764 22.1063
547 1 -1.1104 0.993979 -2.86873 23.5146
548 1 -1.1104 1.05302 2.69922 23.547
551 1 -1.1104 1.05057 -2.85178 26.4064
552 1 -1.1104 0.963151 2.60063 26.3757
555 1 -1.1104 1.00712 -0.140971 23.5528
557 2 2.2208 5.17998 -1.55279 24.8862
559 1 -1.1104 1.07321 -0.0298567 26.2154
561 1 -1.1104 3.78549 -2.67758 23.4778
562 1 -1.1104 3.77372 2.71122 23.4002
563 2 2.2208 2.56957 1.23412 24.9813
564 1 -1.1104 3.77025 -2.97678 26.2779
565 1 -1.1104 3.9731 2.47339 26.1234
566 2 2.2208 2.31891 -1.49782 22.1611
567 2 2.2208 2.46021 4.19325 22.132
568 1 -1.1104 3.81808 -0.0465676 23.5242
569 1 -1.1104 3.81814 -0.257464 26.3224
553 1 -1.1104 6.64924 -2.89377 26.3481
550 1 -1.1104 6.66608 2.60042 23.5467
558 2 2.2208 5.25122 4.05608 24.7862
549 1 -1.1104 6.73112 -2.95294 23.4972
529 1 -1.1104 12.3905 16.7034 20.6004
608 1 -1.1104 12.2098 13.9177 23.5785
328 2 2.2208 10.8148 9.76475 13.6208
355 1 -1.1104 6.63696 2.82588 20.74
363 1 -1.1104 6.79717 -0.209178 20.5173
556 1 -1.1104 6.68402 -0.127198 23.4247
554 1 -1.1104 6.71488 2.61526 26.2524
560 1 -1.1104 6.6475 -0.0997427 26.1965
404 1 -1.1104 9.45935 2.76436 20.7247
397 1 -1.1104 12.2228 -0.0361596 20.7826
582 2 2.2208 10.9268 1.32209 22.1566
583 1 -1.1104 12.3375 -2.63713 23.4521
584 1 -1.1104 12.3287 2.79523 23.4709
585 1 -1.1104 12.2485 -2.85724 26.2365
586 1 -1.1104 12.1753 2.6082 26.2372
587 1 -1.1104 12.2973 0.0933759 23.5165
588 2 2.2208 10.8331 -1.43668 24.9507
589 2 2.2208 10.8153 3.99011 25.0133
590 1 -1.1104 12.1962 -0.0212912 26.3165
591 1 -1.1104 9.48468 -2.93645 23.6292
592 1 -1.1104 9.38948 2.52615 23.5686
593 2 2.2208 8.04546 1.30693 24.9291
594 1 -1.1104 9.42714 -2.95934 26.3682
595 1 -1.1104 9.47826 2.6335 26.3323
596 2 2.2208 8.21383 -1.59144 22.1657
597 2 2.2208 8.06966 4.09799 22.2078
598 1 -1.1104 9.5628 -0.113848 23.4407
599 1 -1.1104 9.42089 -0.159555 26.27
9819 2 2.2208 13.5717 9.56641 16.5155
572 1 -1.1104 6.70838 16.5275 23.4634
453 1 -1.1104 9.47616 16.5637 23.6055
9712 2 2.2208 -0.357719 15.2708 13.8136
433 1 -1.1104 0.971361 5.61617 20.7633
435 1 -1.1104 0.97005 11.063 20.6246
449 1 -1.1104 3.81994 5.4298 20.806
424 1 -1.1104 0.942773 8.26512 20.7423
444 1 -1.1104 3.72292 8.24474 20.5051
451 1 -1.1104 3.69263 11.0636 20.8295
611 2 2.2208 5.20762 6.83552 22.0089
612 2 2.2208 5.07833 12.4366 21.9926
613 1 -1.1104 0.810004 8.18451 23.5311
615 1 -1.1104 0.985117 8.27745 26.2683
617 1 -1.1104 1.03217 5.43088 23.5046
618 1 -1.1104 0.908419 10.9139 23.4552
621 2 2.2208 5.16138 9.67647 24.9642
622 1 -1.1104 0.941374 5.53127 26.3175
623 1 -1.1104 0.952187 11.0997 26.2976
626 1 -1.1104 3.76862 8.26833 23.5221
627 2 2.2208 2.3345 6.8712 24.9474
628 2 2.2208 2.39761 12.4175 24.8636
629 1 -1.1104 3.70306 8.30815 26.4278
630 2 2.2208 2.26115 9.65217 22.1175
631 1 -1.1104 3.77539 5.51651 23.4648
632 1 -1.1104 3.78153 11.1295 23.5804
633 1 -1.1104 3.84463 5.34325 26.3229
634 1 -1.1104 3.68949 11.0578 26.2848
614 1 -1.1104 6.6101 8.33114 23.4305
426 1 -1.1104 6.65154 8.4725 20.5648
625 1 -1.1104 6.57405 10.9637 26.4496
616 1 -1.1104 6.51331 8.1668 26.2702
480 1 -1.1104 9.45403 19.5513 26.3597
414 2 2.2208 7.93202 15.2051 22.135
9751 2 2.2208 13.6119 1.37512 19.2414
664 1 -1.1104 9.28349 13.7885 23.5022
639 1 -1.1104 12.1784 16.7037 23.3687
437 1 -1.1104 6.61428 5.56325 20.7423
624 1 -1.1104 6.62516 5.32394 26.2959
478 1 -1.1104 9.33822 10.9642 20.6911
459 1 -1.1104 12.1727 8.30185 20.7189
620 1 -1.1104 6.53125 10.949 23.5046
619 1 -1.1104 6.58962 5.37722 23.5921
642 1 -1.1104 9.40224 11.1174 26.305
643 1 -1.1104 9.39206 5.52314 26.3701
644 1 -1.1104 9.38729 11.0312 23.3372
645 1 -1.1104 9.28744 5.45596 23.6593
646 2 2.2208 7.94941 9.68893 22.0704
647 1 -1.1104 9.24516 8.27211 26.3686
648 2 2.2208 7.97528 12.4279 24.8567
649 2 2.2208 8.00334 6.87528 24.9377
650 2 2.2208 10.7604 6.8394 22.1317
651 2 2.2208 10.7604 12.4915 22.0981
652 1 -1.1104 12.1258 8.28845 23.462
653 1 -1.1104 12.0616 8.16804 26.2813
654 1 -1.1104 12.2206 5.43474 23.6362
655 1 -1.1104 12.1515 11.2351 23.58
656 2 2.2208 10.7713 9.69261 24.8463
657 1 -1.1104 12.2255 5.54317 26.3779
658 1 -1.1104 12.2234 11.082 26.2155
659 1 -1.1104 9.35551 8.25 23.5314
667 1 -1.1104 6.59855 13.7379 26.3937
669 1 -1.1104 6.51947 16.7134 26.2173
494 1 -1.1104 6.66988 19.3836 21.0428
488 1 -1.1104 0.838127 13.8501 20.8109
673 1 -1.1104 6.55293 19.4267 23.7878
500 1 -1.1104 0.935895 16.6854 20.7274
509 1 -1.1104 4.04895 19.3949 20.8827
507 1 -1.1104 3.65028 13.9435 20.7804
490 1 -1.1104 1.12488 19.3863 20.769
543 2 2.2208 2.39397 15.3557 22.0863
544 2 2.2208 2.39793 20.9281 22.0639
545 1 -1.1104 3.83673 16.6332 23.6377
570 1 -1.1104 1.02166 16.7576 23.4377
578 1 -1.1104 3.77511 13.9853 26.4306
600 1 -1.1104 3.72398 16.8058 26.3425
602 2 2.2208 2.45371 18.0789 24.8819
666 1 -1.1104 3.81925 19.5052 23.5288
668 1 -1.1104 3.82055 13.8359 23.4619
670 1 -1.1104 0.814958 19.541 26.3656
671 1 -1.1104 0.977191 16.7836 26.3647
672 1 -1.1104 1.01413 13.8689 26.3244
674 2 2.2208 5.16129 21.0156 25.0123
675 2 2.2208 5.23662 15.2687 24.9533
677 1 -1.1104 1.05225 19.5208 23.4517
678 1 -1.1104 1.06761 13.7915 23.5521
679 2 2.2208 5.25018 18.0591 22.2612
680 1 -1.1104 3.67212 19.5961 26.3062
492 1 -1.1104 6.58126 13.9975 20.6716
515 1 -1.1104 6.65396 19.4995 26.4641
610 1 -1.1104 12.271 13.9796 26.4515
415 2 2.2208 8.0666 20.8933 22.1433
9959 2 2.2208 13.661 15.2071 22.1325
524 1 -1.1104 12.1999 19.3367 20.6608
638 1 -1.1104 12.1232 19.3815 26.1292
603 2 2.2208 10.8335 18.0742 21.9996
609 1 -1.1104 12.192 19.5228 23.3471
640 2 2.2208 10.8102 15.2984 24.9547
536 1 -1.1104 9.49369 19.4126 20.7144
541 1 -1.1104 9.35133 16.6744 20.7594
665 1 -1.1104 9.29758 19.3107 23.4886
502 1 -1.1104 6.53777 16.6288 20.6348
9745 2 2.2208 13.7245 4.14132 16.414
9891 2 2.2208 13.6337 18.0448 19.2692
417 2 2.2208 10.7995 -1.40753 13.6769
9952 2 2.2208 13.6522 4.12497 22.1135
9892 2 2.2208 13.5798 20.8719 16.2605
384 2 2.2208 2.3266 1.30337 13.6454
452 2 2.2208 2.35119 6.84153 13.6719
381 2 2.2208 -0.283046 -1.5134 13.7282
324 2 2.2208 10.8351 18.0974 27.6582
579 2 2.2208 -0.363761 -1.58332 24.9921
331 2 2.2208 5.17676 20.8634 13.7845
416 2 2.2208 8.02363 1.30746 13.714
341 2 2.2208 10.7279 1.30287 27.716
336 2 2.2208 8.09368 18.0768 13.787
418 2 2.2208 10.7301 4.1819 13.7082
660 2 2.2208 10.6655 6.90175 27.7693
9930 2 2.2208 -0.314563 20.7467 19.2065
9714 2 2.2208 13.6091 20.9977 27.6346
385 2 2.2208 5.0924 4.13195 13.6405
637 2 2.2208 5.24129 12.4692 27.781
337 2 2.2208 8.02006 20.8436 27.6361
338 2 2.2208 5.21938 1.20822 27.6414
9707 2 2.2208 13.6046 4.20349 27.5693
661 2 2.2208 8.07798 9.68812 27.6067
479 2 2.2208 7.89853 6.8863 13.7485
681 2 2.2208 5.14831 23.5195 5.25257
682 2 2.2208 5.33318 29.329 5.28348
683 1 -1.1104 0.877908 25.0924 1.07752
684 1 -1.1104 1.11432 24.9199 3.83462
685 1 -1.1104 0.943501 22.2065 1.10595
686 1 -1.1104 0.842455 27.7879 1.03189
687 2 2.2208 5.29799 26.5125 2.53396
688 1 -1.1104 1.0809 22.2548 3.83175
689 1 -1.1104 1.11037 27.6914 3.80683
690 1 -1.1104 3.77988 24.9595 1.11135
691 2 2.2208 2.44568 23.5793 2.42228
692 2 2.2208 2.51537 29.1856 2.37608
693 1 -1.1104 4.00954 25.0897 3.79793
694 2 2.2208 2.4933 26.3323 5.13747
695 1 -1.1104 3.66477 22.3247 0.956093
696 1 -1.1104 3.84764 27.7302 0.923512
697 1 -1.1104 3.86915 22.1341 3.8532
698 1 -1.1104 3.83329 27.9528 3.89934
707 1 -1.1104 6.66173 27.8705 3.82714
704 1 -1.1104 6.50676 22.2266 1.01213
702 1 -1.1104 6.59599 25.0892 1.14897
1015 2 2.2208 5.21513 23.7144 -0.316657
706 1 -1.1104 6.63389 22.1693 3.85312
1000 2 2.2208 13.5903 45.9245 13.68
829 1 -1.1104 3.8185 22.1641 6.69902
1557 1 -1.1104 1.08183 47.5888 9.47079
10396 2 2.2208 13.629 43.1954 10.8207
1591 1 -1.1104 12.1186 47.4504 9.49891
703 1 -1.1104 6.7264 25.0992 3.87667
705 1 -1.1104 6.59564 27.9448 0.82043
708 2 2.2208 10.8295 23.6917 5.24327
709 2 2.2208 10.8465 29.1587 5.32345
710 1 -1.1104 12.2664 25.0567 1.16138
711 1 -1.1104 12.1633 25.0388 3.90308
712 1 -1.1104 12.236 22.3481 0.998617
713 1 -1.1104 12.3389 27.9596 1.00762
714 2 2.2208 10.8214 26.4502 2.47416
715 1 -1.1104 12.1034 22.2622 3.78884
716 1 -1.1104 12.3054 27.7578 3.85582
717 1 -1.1104 9.43004 24.9421 1.14714
718 2 2.2208 7.95729 23.708 2.41911
719 2 2.2208 8.06576 29.2497 2.38149
720 1 -1.1104 9.46097 25.0869 3.91505
721 2 2.2208 8.00124 26.5038 5.3249
722 1 -1.1104 9.35173 22.2888 0.972797
723 1 -1.1104 9.37527 27.7386 1.15813
724 1 -1.1104 9.40302 22.2 3.76979
725 1 -1.1104 9.595 27.823 3.81533
1011 2 2.2208 13.65 43.2777 -0.258329
1409 1 -1.1104 9.57268 47.4675 1.14327
1589 1 -1.1104 12.0728 47.5164 12.402
1583 1 -1.1104 9.50214 47.5232 6.70458
10397 2 2.2208 13.5904 23.5687 2.48318
990 1 -1.1104 9.46941 41.9135 6.69545
1354 1 -1.1104 1.05341 47.5525 0.925702
729 2 2.2208 5.16702 34.8411 5.21063
730 1 -1.1104 0.907231 30.5946 1.06077
731 1 -1.1104 1.10197 36.3843 1.20079
733 1 -1.1104 1.1248 30.5549 3.92123
734 1 -1.1104 1.02487 36.3044 3.94582
736 1 -1.1104 0.961731 33.5284 1.03814
737 2 2.2208 5.34706 31.9619 2.379
738 2 2.2208 5.14371 37.6458 2.58182
739 1 -1.1104 0.877075 33.4507 3.88183
741 1 -1.1104 3.85815 30.6678 0.786938
742 1 -1.1104 3.80784 36.2319 0.901257
743 2 2.2208 2.36868 34.7747 2.42918
744 1 -1.1104 4.01207 30.6736 3.77979
745 1 -1.1104 3.86432 36.2551 3.86913
746 2 2.2208 2.38361 31.961 5.2666
747 2 2.2208 2.41075 37.6819 5.20358
748 1 -1.1104 3.85486 33.4053 1.09218
749 1 -1.1104 3.73813 33.5006 3.80927
732 1 -1.1104 6.69499 36.3173 1.0237
1599 1 -1.1104 9.45806 47.583 12.3096
754 1 -1.1104 6.70362 30.6194 3.84936
755 1 -1.1104 6.53291 33.4166 1.0641
735 1 -1.1104 6.61221 36.3253 3.74347
753 1 -1.1104 6.46721 30.5434 0.926313
1582 1 -1.1104 12.2919 47.7039 6.75243
1552 1 -1.1104 3.74592 47.5193 6.56612
740 1 -1.1104 6.45066 33.6093 3.8264
756 2 2.2208 10.7367 34.8589 5.24622
757 1 -1.1104 12.1494 30.6612 1.05872
758 1 -1.1104 12.2332 36.2249 0.981715
759 1 -1.1104 12.416 30.5915 3.9212
760 1 -1.1104 12.2579 36.3381 3.74812
761 1 -1.1104 12.4437 33.4731 1.09291
762 2 2.2208 10.9054 32.035 2.38688
763 2 2.2208 10.7462 37.6258 2.37049
764 1 -1.1104 12.0076 33.4304 3.76167
765 1 -1.1104 9.35654 30.6336 0.946176
766 1 -1.1104 9.3978 36.2124 0.959651
767 2 2.2208 8.01392 34.8495 2.29869
768 1 -1.1104 9.65769 30.5467 3.86871
769 1 -1.1104 9.42868 36.1971 3.85781
770 2 2.2208 8.18537 31.9561 5.24744
771 2 2.2208 7.91251 37.6334 5.1614
772 1 -1.1104 9.44747 33.3798 0.951052
773 1 -1.1104 9.2369 33.3891 3.67027
1602 1 -1.1104 9.37581 47.596 9.57246
986 1 -1.1104 12.2555 39.0363 12.2576
1550 1 -1.1104 0.926575 47.5625 6.58839
1551 1 -1.1104 6.71523 47.5058 6.5031