ITEM: TIMESTEP
90000
ITEM: NUMBER OF ATOMS
17820
ITEM: BOX BOUNDS pp pp pp
-3.5883222131507242e-01 2.7698832221314930e+01
-4.1827788405770363e+00 3.3226277884056304e+02
-3.5887671775128183e-01 2.7698876717751080e+01
ITEM: ATOMS id type q x y z
1 2 2.2208 5.17849 1.26387 5.19373
2 1 -1.1104 1.10597 -2.73366 0.989587
3 1 -1.1104 0.977437 2.74432 1.062
6 1 -1.1104 0.899558 -2.86439 3.93696
7 1 -1.1104 1.18554 2.70411 3.9196
10 1 -1.1104 1.07631 0.0422872 0.965016
12 2 2.2208 5.26366 -1.44473 2.39354
14 1 -1.1104 1.03521 -0.0453713 3.8298
16 1 -1.1104 3.74222 -2.82072 0.933358
17 1 -1.1104 3.82412 2.48193 1.1191
18 2 2.2208 2.32232 1.29492 2.49818
19 1 -1.1104 3.65773 -2.85058 3.80929
20 1 -1.1104 3.81013 2.70639 3.78015
21 2 2.2208 2.44901 -1.51228 5.24522
22 2 2.2208 2.43742 4.15462 5.26374
23 1 -1.1104 3.8785 -0.179161 1.12088
24 1 -1.1104 3.82615 -0.113484 3.86852
13 2 2.2208 5.15922 3.99574 2.41133
25 2 2.2208 -0.371294 -1.44098 2.28584
230 2 2.2208 13.5874 -1.42913 10.8086
173 1 -1.1104 3.7504 2.67611 6.69371
232 2 2.2208 10.7884 -4.24297 10.7743
340 2 2.2208 -0.344349 1.35269 -0.425462
168 1 -1.1104 6.63918 -2.87204 6.63422
26 2 2.2208 -0.419768 1.41877 5.2318
4 1 -1.1104 6.73533 -2.89407 0.914271
9595 2 2.2208 13.566 6.99232 8.0969
166 1 -1.1104 1.12124 -2.79616 6.60808
170 1 -1.1104 0.708521 0.0617378 6.77379
172 1 -1.1104 3.81466 -2.86783 6.64946
171 1 -1.1104 6.35936 -0.0821098 6.6342
339 2 2.2208 2.51152 4.10285 -0.311765
9384 2 2.2208 13.5349 4.17242 5.31881
81 2 2.2208 -0.417922 6.99761 5.36257
11 1 -1.1104 6.77544 -0.30963 1.10253
5 1 -1.1104 6.73014 2.5873 1.11085
8 1 -1.1104 6.4635 -2.84286 3.83642
15 1 -1.1104 6.67011 -0.00487623 3.79853
9 1 -1.1104 6.5476 2.61229 3.81782
31 2 2.2208 10.802 1.29425 5.21225
32 1 -1.1104 12.2544 -2.96348 0.972608
33 1 -1.1104 12.2051 2.58371 1.18755
34 1 -1.1104 12.3638 -2.834 3.808
35 1 -1.1104 12.2671 2.7181 3.95251
36 1 -1.1104 12.2166 -0.153952 1.02327
37 2 2.2208 10.8932 -1.46012 2.47129
38 2 2.2208 10.9403 4.09973 2.48989
39 1 -1.1104 12.3748 0.00632664 3.83103
40 1 -1.1104 9.53818 -2.90992 0.912956
41 1 -1.1104 9.39382 2.67153 0.988611
42 2 2.2208 8.09157 1.17064 2.25397
43 1 -1.1104 9.36278 -2.83634 3.74162
44 1 -1.1104 9.42807 2.62564 3.75433
45 2 2.2208 7.96947 -1.53407 5.25132
47 1 -1.1104 9.57798 -0.185902 0.915116
48 1 -1.1104 9.43632 -0.062718 3.74276
46 2 2.2208 8.05619 3.99979 5.25982
206 1 -1.1104 12.1765 2.84152 6.68192
207 1 -1.1104 12.1818 -0.0926252 6.62821
169 1 -1.1104 6.68777 2.68087 6.57824
9600 2 2.2208 13.6063 9.81119 10.8499
210 1 -1.1104 9.32648 -0.119293 6.58846
205 1 -1.1104 12.3823 -2.87103 6.66407
208 1 -1.1104 9.41506 -2.92978 6.69477
9482 2 2.2208 13.694 15.4007 5.20064
136 2 2.2208 -0.403601 20.9509 2.49042
319 1 -1.1104 9.53123 13.8382 9.44991
54 2 2.2208 5.15589 6.96883 5.22332
55 2 2.2208 5.38491 12.3944 5.21752
56 1 -1.1104 0.85151 8.41349 1.09881
58 1 -1.1104 1.04584 8.41674 3.93884
60 1 -1.1104 1.05764 5.52088 1.15854
61 1 -1.1104 1.20252 11.1713 1.06627
66 2 2.2208 5.25761 9.72606 2.41794
67 1 -1.1104 0.874123 5.47194 3.98016
68 1 -1.1104 1.13457 11.2734 4.03787
71 1 -1.1104 3.84038 8.26083 1.17069
72 2 2.2208 2.37812 6.89695 2.45828
73 2 2.2208 2.36339 12.5571 2.42943
74 1 -1.1104 3.84265 8.44338 3.8505
75 2 2.2208 2.42451 9.81129 5.27289
76 1 -1.1104 3.85824 5.39202 1.1316
77 1 -1.1104 3.88531 11.1583 0.988119
79 1 -1.1104 3.84762 5.56772 3.86238
80 1 -1.1104 3.84189 11.1977 3.74817
69 1 -1.1104 6.61371 5.49049 3.82888
341 2 2.2208 10.8469 1.41506 -0.332654
9685 2 2.2208 13.5341 18.1869 7.92756
9686 2 2.2208 -0.235175 12.5859 5.33941
63 1 -1.1104 6.67345 5.47746 1.04576
9596 2 2.2208 13.699 12.4951 8.01716
334 2 2.2208 10.7795 15.3983 13.7319
9461 2 2.2208 13.6932 21.005 5.17559
64 1 -1.1104 6.60308 11.1614 0.938503
315 1 -1.1104 9.34781 16.7462 12.4885
70 1 -1.1104 6.56866 11.1706 3.70996
57 1 -1.1104 6.76118 8.32718 1.17111
59 1 -1.1104 6.60706 8.45049 3.97931
84 2 2.2208 10.797 6.90592 5.24841
85 2 2.2208 10.8483 12.5869 5.23593
86 1 -1.1104 12.3047 8.45995 1.00209
87 1 -1.1104 12.1492 8.38219 3.84944
88 1 -1.1104 12.2976 5.64696 1.14703
89 1 -1.1104 12.2113 11.2507 1.02545
91 2 2.2208 10.7661 9.74632 2.51224
92 1 -1.1104 12.2332 5.49108 3.81901
93 1 -1.1104 12.1976 11.2046 3.78317
94 1 -1.1104 9.48341 8.16215 1.28901
95 2 2.2208 8.03774 6.79999 2.43977
96 2 2.2208 8.06043 12.5807 2.44543
97 1 -1.1104 9.35835 8.24933 3.94889
98 2 2.2208 8.03777 9.6531 5.31117
99 1 -1.1104 9.38588 5.40418 1.14561
100 1 -1.1104 9.39324 11.0123 1.02833
102 1 -1.1104 9.48833 5.45712 3.89129
103 1 -1.1104 9.42299 11.077 3.89605
266 1 -1.1104 12.1622 5.58931 6.75721
265 1 -1.1104 12.3143 8.31951 6.6147
267 1 -1.1104 9.55595 8.28358 6.72057
337 2 2.2208 8.02086 20.9435 -0.255828
311 2 2.2208 10.7215 21.1166 8.00951
49 2 2.2208 13.7414 1.40607 2.37671
106 2 2.2208 5.235 18.075 5.1848
107 1 -1.1104 1.01589 14.0381 1.07949
109 1 -1.1104 0.942009 19.6359 1.13822
113 1 -1.1104 0.89196 13.9813 3.8434
114 1 -1.1104 1.06325 19.5098 3.86155
116 1 -1.1104 1.06744 16.8429 1.03333
119 2 2.2208 5.23849 15.3424 2.35886
120 2 2.2208 5.14329 21.0054 2.50272
121 1 -1.1104 0.946439 16.7893 3.86221
123 1 -1.1104 3.79925 14.0213 1.14029
125 1 -1.1104 3.71018 19.5148 1.02209
127 2 2.2208 2.4172 18.1335 2.47559
128 1 -1.1104 3.87173 13.8034 3.95936
129 1 -1.1104 3.83383 19.5084 3.76519
130 2 2.2208 2.37129 15.3096 5.25906
131 2 2.2208 2.34231 20.8583 5.31756
132 1 -1.1104 3.85282 16.7244 0.993141
134 1 -1.1104 3.80759 16.726 3.83257
302 1 -1.1104 1.07433 19.5098 6.73659
9691 2 2.2208 13.5584 1.33349 8.0272
110 1 -1.1104 6.63686 13.9032 1.00296
324 2 2.2208 10.8591 18.2503 -0.317816
117 1 -1.1104 1.02907 16.7411 6.57068
290 1 -1.1104 6.73044 13.777 9.59094
313 1 -1.1104 9.38657 13.9591 12.2772
115 1 -1.1104 6.57262 13.9719 3.81616
314 1 -1.1104 9.35972 16.7497 9.5073
139 1 -1.1104 6.59292 19.5695 3.76317
140 1 -1.1104 6.54643 16.784 0.906772
112 1 -1.1104 6.70298 19.5537 6.6064
138 1 -1.1104 6.61551 19.5975 0.995857
122 1 -1.1104 6.55592 16.6175 3.87796
141 2 2.2208 10.7334 18.1133 5.09931
142 1 -1.1104 12.2397 14.0821 0.908609
144 1 -1.1104 12.1941 19.66 1.10943
146 1 -1.1104 12.1752 14.134 3.85159
147 1 -1.1104 12.2014 19.5979 3.82405
148 1 -1.1104 12.1741 16.9001 1.01934
150 2 2.2208 10.8593 15.5094 2.50085
151 2 2.2208 10.7728 20.989 2.48429
152 1 -1.1104 12.1851 16.8636 3.85964
153 1 -1.1104 9.42726 13.8741 0.979418
155 1 -1.1104 9.42356 19.4975 0.928411
157 2 2.2208 7.90606 18.1357 2.47393
158 1 -1.1104 9.25367 13.985 3.79684
159 1 -1.1104 9.4957 19.6228 3.75987
160 2 2.2208 7.90682 15.3451 5.29852
161 2 2.2208 8.11693 21.0787 5.26944
162 1 -1.1104 9.42705 16.7673 1.25642
164 1 -1.1104 9.42809 16.8426 3.90655
154 1 -1.1104 9.45742 13.9132 6.60769
145 1 -1.1104 12.4075 19.5016 6.54521
143 1 -1.1104 12.3225 13.7417 6.68189
118 1 -1.1104 6.60211 16.7294 6.6565
174 1 -1.1104 3.59198 -0.0892945 6.67506
320 2 2.2208 7.90168 18.1045 8.06882
167 1 -1.1104 1.0108 2.87381 6.6892
296 1 -1.1104 6.66401 19.5906 12.1088
9413 2 2.2208 13.5871 9.71518 5.23803
175 2 2.2208 5.20584 1.29455 10.9417
176 1 -1.1104 0.951158 -2.88569 12.2195
177 1 -1.1104 0.874451 2.5957 12.3921
180 1 -1.1104 1.12098 -2.85172 9.4603
181 1 -1.1104 0.914555 2.71305 9.51559
184 1 -1.1104 0.882605 -0.0274824 12.2695
186 2 2.2208 5.13413 -1.38014 8.16237
188 1 -1.1104 0.854897 0.017596 9.59179
190 1 -1.1104 3.73895 -2.82345 12.3488
191 1 -1.1104 3.74518 2.78043 12.3158
192 2 2.2208 2.24094 1.33022 8.21101
193 1 -1.1104 3.85927 -2.86165 9.54503
194 1 -1.1104 3.75698 2.79067 9.63136
195 2 2.2208 2.32675 -1.46157 10.909
197 1 -1.1104 3.79927 -0.106245 12.2875
198 1 -1.1104 3.67164 -0.0279225 9.56703
196 2 2.2208 2.36466 4.29042 10.9496
187 2 2.2208 5.16224 4.1099 8.1447
189 1 -1.1104 6.47238 -0.0411357 9.47765
9690 2 2.2208 13.6885 18.2383 2.46466
9687 2 2.2208 13.6226 12.6414 2.42375
9646 2 2.2208 13.628 21.0161 10.8469
105 1 -1.1104 12.4039 13.9834 9.39737
321 1 -1.1104 9.39034 19.4426 12.1975
135 1 -1.1104 12.197 19.6278 9.20633
209 1 -1.1104 9.5631 2.64699 6.82213
9688 2 2.2208 13.5971 7.00217 2.52065
178 1 -1.1104 6.63729 -2.71602 12.3251
185 1 -1.1104 6.63947 0.0473953 12.2514
179 1 -1.1104 6.63999 2.8282 12.2822
182 1 -1.1104 6.67981 -2.8166 9.5071
183 1 -1.1104 6.4953 2.58812 9.40107
211 2 2.2208 10.8261 1.33892 10.8867
212 1 -1.1104 12.2555 -2.88329 12.1699
213 1 -1.1104 12.2182 2.77961 12.3332
214 1 -1.1104 12.2933 -2.88482 9.49987
215 1 -1.1104 12.2803 2.68751 9.51613
216 1 -1.1104 12.1876 -0.219962 12.1901
217 2 2.2208 10.7983 -1.57082 8.01656
219 1 -1.1104 12.1463 -0.149827 9.4363
220 1 -1.1104 9.40517 -2.82154 12.2944
221 1 -1.1104 9.42907 2.87642 12.289
222 2 2.2208 7.87944 1.37954 8.01394
223 1 -1.1104 9.47215 -2.73845 9.46216
224 1 -1.1104 9.40696 2.70587 9.57796
225 2 2.2208 8.09359 -1.38765 10.8812
226 2 2.2208 7.92251 4.11722 10.7071
227 1 -1.1104 9.40451 0.0802003 12.1868
228 1 -1.1104 9.31995 0.0513801 9.48976
218 2 2.2208 10.7715 4.10542 8.14881
111 1 -1.1104 6.63799 13.8012 6.62418
312 1 -1.1104 12.1682 16.8384 9.3927
234 1 -1.1104 0.962917 8.42972 6.76947
229 2 2.2208 10.7459 15.3019 8.04684
636 2 2.2208 2.48618 9.75271 -0.265039
62 1 -1.1104 1.03094 11.171 6.7489
239 1 -1.1104 4.00994 5.64855 6.70481
238 1 -1.1104 3.8122 8.29468 6.78075
78 1 -1.1104 3.88313 11.1755 6.58419
236 1 -1.1104 1.054 5.64131 6.66566
240 2 2.2208 5.24792 7.04092 10.9413
241 2 2.2208 5.36896 12.5725 10.9211
242 1 -1.1104 1.02744 8.38626 12.3713
244 1 -1.1104 1.00277 8.34906 9.5304
246 1 -1.1104 1.10552 5.53971 12.3226
247 1 -1.1104 1.19849 11.1259 12.2586
250 2 2.2208 5.2037 9.83607 8.20585
251 1 -1.1104 0.988275 5.6274 9.45221
252 1 -1.1104 1.04988 11.2095 9.52144
255 1 -1.1104 4.01191 8.29826 12.3634
256 2 2.2208 2.58468 6.93951 8.14465
257 2 2.2208 2.47446 12.6026 7.97673
258 1 -1.1104 3.81737 8.50089 9.56168
259 2 2.2208 2.45115 9.83273 10.9546
260 1 -1.1104 3.81158 5.61004 12.4258
261 1 -1.1104 3.98787 11.1486 12.2885
262 1 -1.1104 3.80468 5.69067 9.60188
263 1 -1.1104 3.97041 11.2441 9.51103
65 1 -1.1104 6.75598 10.9637 6.75716
318 1 -1.1104 9.32788 19.6588 9.29584
269 1 -1.1104 9.36941 5.42718 6.62049
235 1 -1.1104 6.52285 8.32512 6.68837
90 1 -1.1104 12.1101 10.9706 6.56799
101 1 -1.1104 9.36696 11.1474 6.61914
237 1 -1.1104 6.58165 5.40849 6.65234
165 1 -1.1104 12.2777 16.7291 12.2905
254 1 -1.1104 6.85323 11.1922 9.54321
248 1 -1.1104 6.74216 5.61134 12.319
245 1 -1.1104 6.54239 8.3387 9.47659
249 1 -1.1104 6.63794 11.2304 12.321
243 1 -1.1104 6.73706 8.54111 12.2526
253 1 -1.1104 6.4088 5.61559 9.42864
264 1 -1.1104 9.60466 11.0913 9.62618
268 1 -1.1104 9.37172 5.53371 9.51242
270 1 -1.1104 9.54003 11.2942 12.4517
271 1 -1.1104 9.56176 5.69166 12.4774
272 2 2.2208 8.12416 9.81057 10.8463
273 1 -1.1104 9.37205 8.20351 9.49769
274 2 2.2208 8.1398 12.5362 8.17415
275 2 2.2208 7.9713 6.97186 8.06702
276 2 2.2208 10.8188 6.84093 10.8522
277 2 2.2208 10.9858 12.6546 10.9075
278 1 -1.1104 12.2422 8.40882 12.2774
279 1 -1.1104 12.2824 8.33135 9.47895
280 1 -1.1104 12.2102 5.52816 12.3506
281 1 -1.1104 12.2981 11.2497 12.2385
282 2 2.2208 10.8446 9.66936 8.11737
283 1 -1.1104 12.126 5.44924 9.44463
284 1 -1.1104 12.3152 11.045 9.39835
285 1 -1.1104 9.53203 8.46206 12.1419
104 1 -1.1104 12.2181 19.5485 12.0674
288 1 -1.1104 6.63872 19.5208 9.44802
124 1 -1.1104 3.75482 13.9529 6.74368
133 1 -1.1104 3.88363 16.8334 6.69721
126 1 -1.1104 3.80723 19.617 6.60498
297 1 -1.1104 6.6482 14.1073 12.3771
306 1 -1.1104 6.63279 16.8914 12.3046
108 1 -1.1104 1.16492 14.0337 6.61391
310 2 2.2208 2.3871 15.2703 10.9352
286 1 -1.1104 3.81053 19.5206 12.3906
287 1 -1.1104 3.74264 13.9576 12.4077
291 1 -1.1104 1.00496 19.4967 9.42904
292 1 -1.1104 1.0372 16.7215 9.51605
293 2 2.2208 5.28751 20.9265 8.12594
294 1 -1.1104 0.930723 14.1194 9.47295
295 2 2.2208 5.21661 15.3066 8.14621
298 1 -1.1104 1.04574 19.4163 12.3508
299 1 -1.1104 0.965321 13.7054 12.3607
300 2 2.2208 5.18817 18.093 10.9744
301 1 -1.1104 3.80224 19.3755 9.50768
303 2 2.2208 2.52126 18.1773 8.09789
304 1 -1.1104 3.83922 16.694 9.56313
305 1 -1.1104 3.81383 13.9861 9.46329
307 1 -1.1104 1.02882 16.6934 12.2745
308 1 -1.1104 3.84331 16.7427 12.482
309 2 2.2208 2.46323 20.7714 10.8776
289 1 -1.1104 6.57758 16.6395 9.46146
83 1 -1.1104 12.1885 14.0307 12.3615
163 1 -1.1104 9.21416 16.7393 6.77562
156 1 -1.1104 9.37247 19.4555 6.6417
316 2 2.2208 7.94699 20.9448 10.7727
149 1 -1.1104 11.9299 16.7102 6.50982
82 2 2.2208 10.8652 18.2627 10.7711
317 2 2.2208 8.05165 15.3661 10.9472
9606 2 2.2208 -0.332283 12.5523 10.9104
327 2 2.2208 2.39413 12.543 13.7119
9689 2 2.2208 -0.324475 15.4679 2.40639
9707 2 2.2208 13.6901 4.20496 -0.277016
9613 2 2.2208 -0.267847 9.76712 8.16608
331 2 2.2208 5.19465 21.023 13.5939
9697 2 2.2208 13.4732 7.05335 13.6105
323 2 2.2208 7.97285 -4.12856 13.5818
635 2 2.2208 5.36667 7.02402 -0.216929
452 2 2.2208 2.23365 6.95631 13.667
9711 2 2.2208 13.6093 18.2024 13.5756
342 2 2.2208 8.07727 4.00821 -0.277845
660 2 2.2208 10.8313 6.95837 -0.180523
9934 2 2.2208 13.5934 15.4698 -0.356017
416 2 2.2208 8.00041 1.48046 13.6046
343 2 2.2208 5.18535 1.38619 16.506
344 1 -1.1104 1.00281 -2.83937 17.8174
345 1 -1.1104 0.820455 2.88436 17.9798
348 1 -1.1104 1.12139 -2.85289 14.8648
350 1 -1.1104 0.985824 2.71898 15.1949
356 1 -1.1104 0.983169 -0.0577055 17.8545
358 2 2.2208 5.20324 -1.51887 19.2096
360 1 -1.1104 1.15187 -0.044077 15.1985
364 1 -1.1104 3.84153 -2.98726 17.8998
365 1 -1.1104 3.53699 2.63333 17.841
366 2 2.2208 2.39708 1.3522 19.3405
367 1 -1.1104 3.82828 -2.91608 15.1362
369 1 -1.1104 3.86338 2.84002 15.0199
371 2 2.2208 2.41573 -1.39612 16.5428
373 1 -1.1104 3.83379 -0.171069 17.9816
374 1 -1.1104 3.89037 -0.0977152 15.3073
372 2 2.2208 2.30189 4.18219 16.56
359 2 2.2208 5.0814 4.24378 19.3288
605 2 2.2208 10.8232 -4.16774 22.1252
346 1 -1.1104 6.71365 -2.98001 17.7393
357 1 -1.1104 6.53035 0.0422692 17.9259
9891 2 2.2208 13.6597 18.1653 19.3197
368 1 -1.1104 3.76264 -2.83594 20.6098
375 1 -1.1104 3.72606 0.0731284 20.6818
349 1 -1.1104 1.15449 -2.82634 20.7197
351 1 -1.1104 0.965017 2.7231 20.844
353 1 -1.1104 6.7465 -2.7904 20.6118
9713 2 2.2208 -0.283228 20.8724 13.6976
541 1 -1.1104 9.37719 16.8252 20.6667
9714 2 2.2208 13.6246 21.0722 27.7346
609 1 -1.1104 12.2565 19.5832 23.5212
354 1 -1.1104 6.60042 2.97781 15.1359
362 1 -1.1104 6.51624 0.174313 14.9907
352 1 -1.1104 6.72071 -2.70687 15.0442
347 1 -1.1104 6.49788 2.72766 17.9693
386 2 2.2208 10.7266 1.29168 16.5405
387 1 -1.1104 12.1594 -2.94099 17.8978
388 1 -1.1104 12.1045 2.80658 17.9246
389 1 -1.1104 12.3548 -2.85387 15.025
391 1 -1.1104 12.2078 2.79514 15.0261
393 1 -1.1104 12.1552 -0.0990181 17.9245
394 2 2.2208 10.7715 -1.29525 19.4117
395 2 2.2208 10.7558 4.23436 19.3408
396 1 -1.1104 12.232 -0.0137384 15.2262
398 1 -1.1104 9.49655 -2.77384 17.7512
399 1 -1.1104 9.35646 2.83785 17.9567
400 2 2.2208 7.91619 1.41237 19.3384
401 1 -1.1104 9.6061 -2.85473 15.1009
403 1 -1.1104 9.36379 2.62917 15.1855
405 2 2.2208 7.97843 -1.38356 16.4829
407 1 -1.1104 9.35195 0.036062 18.0133
408 1 -1.1104 9.43304 -0.146175 14.9332
406 2 2.2208 8.02937 4.28631 16.5129
402 1 -1.1104 9.4426 -2.83354 20.613
409 1 -1.1104 9.34368 0.034721 20.8021
9960 2 2.2208 13.5522 -4.10525 19.227
9822 2 2.2208 -0.388926 15.4064 24.9253
330 2 2.2208 2.40913 18.0942 13.7662
9933 2 2.2208 13.646 21.0438 22.2306
9823 2 2.2208 13.5954 6.96204 24.8873
392 1 -1.1104 12.2031 2.86008 20.7635
603 2 2.2208 10.9763 18.314 22.1067
9820 2 2.2208 13.483 6.94071 19.3985
9894 2 2.2208 13.6214 -1.35816 22.178
419 2 2.2208 5.10131 6.9292 16.5282
420 2 2.2208 5.10054 12.4707 16.6269
421 1 -1.1104 1.11763 8.38777 17.8674
423 1 -1.1104 0.855157 8.37837 15.1555
427 1 -1.1104 0.814589 5.61345 17.9962
428 1 -1.1104 0.821222 11.173 17.9355
431 2 2.2208 5.06042 9.6752 19.3729
432 1 -1.1104 0.916518 5.51823 15.1329
434 1 -1.1104 0.886808 11.3237 15.089
440 1 -1.1104 3.75796 8.30052 17.9614
441 2 2.2208 2.37054 7.06333 19.3996
442 2 2.2208 2.23428 12.5643 19.3563
443 1 -1.1104 3.71856 8.23698 15.0302
445 2 2.2208 2.30553 9.86933 16.4648
446 1 -1.1104 3.75047 5.52817 17.9747
447 1 -1.1104 3.48704 11.0473 18.0422
448 1 -1.1104 3.80254 5.46463 15.1855
450 1 -1.1104 3.89919 11.0507 15.0926
9892 2 2.2208 13.6551 20.9534 16.5115
425 1 -1.1104 6.53858 8.32497 15.1373
665 1 -1.1104 9.40851 19.5955 23.5994
414 2 2.2208 7.93418 15.4211 22.042
9821 2 2.2208 13.4847 12.6516 19.4069
438 1 -1.1104 6.57527 11.2306 15.1754
436 1 -1.1104 6.61372 5.56814 15.1256
430 1 -1.1104 6.40272 11.0374 18.0013
422 1 -1.1104 6.4952 8.33983 17.9369
429 1 -1.1104 6.48144 5.59481 17.9163
455 2 2.2208 10.7062 6.88263 16.5396
456 2 2.2208 10.697 12.594 16.487
457 1 -1.1104 11.9583 8.35728 18.0482
458 1 -1.1104 11.991 8.29303 15.1748
460 1 -1.1104 12.2399 5.64901 18.0454
461 1 -1.1104 11.9659 11.1479 17.8903
462 2 2.2208 10.8403 9.83589 19.3593
463 1 -1.1104 12.2039 5.49972 15.1699
465 1 -1.1104 12.1399 11.1695 15.1942
467 1 -1.1104 9.29855 8.19029 18.052
468 2 2.2208 7.96554 6.89583 19.1832
469 2 2.2208 7.84027 12.5675 19.2752
470 1 -1.1104 9.30751 8.32686 15.0799
472 2 2.2208 7.99417 9.86874 16.4961
473 1 -1.1104 9.4223 5.52966 17.9027
474 1 -1.1104 9.18698 11.2248 17.7769
475 1 -1.1104 9.39923 5.57472 15.0757
477 1 -1.1104 9.35791 11.0981 15.0987
459 1 -1.1104 12.1778 8.35412 20.93
466 1 -1.1104 12.0941 11.2691 20.6864
328 2 2.2208 10.7898 9.70917 13.7176
439 1 -1.1104 6.37635 11.2825 20.6772
494 1 -1.1104 6.69179 19.7347 20.5676
9819 2 2.2208 13.4257 9.66977 16.5345
380 2 2.2208 -0.291985 -1.32901 19.2491
10011 2 2.2208 13.5755 9.78304 22.1496
482 2 2.2208 5.12343 18.1791 16.569
483 1 -1.1104 0.949745 14.0177 18.0378
484 1 -1.1104 0.986247 19.4986 17.8868
487 1 -1.1104 0.874192 13.9966 15.2472
489 1 -1.1104 0.955318 19.5402 15.1565
495 1 -1.1104 0.900419 16.7994 17.9062
497 2 2.2208 5.27813 15.4262 19.242
498 2 2.2208 5.2377 21.0087 19.2564
499 1 -1.1104 0.983359 16.7081 15.1342
503 1 -1.1104 3.77863 13.9709 18.076
504 1 -1.1104 3.8935 19.609 17.9059
505 2 2.2208 2.48706 18.1829 19.2983
506 1 -1.1104 3.67204 13.8902 15.2772
508 1 -1.1104 3.7375 19.5145 15.0505
510 2 2.2208 2.39845 15.2657 16.6508
511 2 2.2208 2.28117 20.8935 16.4263
512 1 -1.1104 3.74235 16.8469 17.8877
513 1 -1.1104 3.9047 16.7874 15.1466
479 2 2.2208 8.04381 6.95661 13.6663
9889 2 2.2208 13.7027 15.4265 16.4463
486 1 -1.1104 6.69367 19.6612 17.8829
676 1 -1.1104 6.63258 13.9202 23.5481
500 1 -1.1104 0.909072 16.7459 20.6761
9959 2 2.2208 13.6053 15.4047 22.1534
454 1 -1.1104 9.38872 16.8547 26.3156
493 1 -1.1104 6.55978 19.7918 14.9695
491 1 -1.1104 6.54931 13.7756 15.1108
485 1 -1.1104 6.40904 13.889 17.9568
496 1 -1.1104 6.6341 16.7702 17.9736
501 1 -1.1104 6.66039 16.7652 15.1052
518 2 2.2208 10.7698 18.1405 16.4374
519 1 -1.1104 12.2329 14.0351 17.8936
520 1 -1.1104 12.34 19.5943 17.7969
521 1 -1.1104 12.1697 13.9843 15.1124
523 1 -1.1104 12.1129 19.4876 15.0269
525 1 -1.1104 12.297 16.7698 17.8425
526 2 2.2208 10.781 15.428 19.4066
527 2 2.2208 10.8632 21.0534 19.2515
528 1 -1.1104 12.1251 16.8602 15.1408
530 1 -1.1104 9.24869 13.8916 17.7818
531 1 -1.1104 9.375 19.6419 17.8519
532 2 2.2208 8.06071 18.2506 19.3069
533 1 -1.1104 9.28908 14.0154 15.0429
535 1 -1.1104 9.34477 19.6253 15.1063
537 2 2.2208 8.08678 15.408 16.4831
538 2 2.2208 8.21782 21.1275 16.5326
539 1 -1.1104 9.53083 16.7177 17.9222
540 1 -1.1104 9.35363 16.8098 15.1303
669 1 -1.1104 6.68776 16.4916 26.3356
534 1 -1.1104 9.33784 14.0294 20.6796
524 1 -1.1104 12.1839 19.529 20.5305
515 1 -1.1104 6.45573 19.4554 26.2499
9745 2 2.2208 13.5407 4.28891 16.4565
640 2 2.2208 10.8272 15.5007 24.8555
453 1 -1.1104 9.55673 16.9627 23.5127
9896 2 2.2208 13.5312 -1.46249 16.5094
370 1 -1.1104 3.83528 2.95135 20.7004
333 2 2.2208 10.9175 21.0677 13.6838
361 1 -1.1104 0.988042 -0.0937124 20.7172
546 2 2.2208 5.15363 1.48327 22.0152
547 1 -1.1104 0.80295 -2.88199 23.4667
548 1 -1.1104 0.927259 2.89162 23.5344
551 1 -1.1104 1.16532 -2.74679 26.2675
552 1 -1.1104 1.01288 2.69837 26.3672
555 1 -1.1104 0.848566 -0.00722173 23.3996
557 2 2.2208 5.2841 -1.33434 24.779
559 1 -1.1104 0.984839 0.00601071 26.1543
561 1 -1.1104 3.69172 -2.67273 23.3663
562 1 -1.1104 3.73937 2.74035 23.4394
563 2 2.2208 2.29593 1.27182 24.6547
564 1 -1.1104 3.88387 -2.69667 26.077
565 1 -1.1104 3.922 2.69086 26.2289
566 2 2.2208 2.35009 -1.43039 22.1497
567 2 2.2208 2.34323 4.17763 22.1981
568 1 -1.1104 3.8782 0.0377465 23.4178
569 1 -1.1104 3.77777 0.0642137 26.2113
558 2 2.2208 5.23635 4.0977 24.8755
9893 2 2.2208 13.5679 1.38561 24.8871
363 1 -1.1104 6.50954 -0.0549529 20.884
397 1 -1.1104 12.1492 0.0499143 20.8316
355 1 -1.1104 6.54394 2.84804 20.7635
415 2 2.2208 8.08884 20.9345 22.2207
404 1 -1.1104 9.39711 2.74362 20.6258
549 1 -1.1104 6.68368 -2.94357 23.3054
550 1 -1.1104 6.63989 2.76148 23.3962
553 1 -1.1104 6.60774 -2.76916 26.0881
554 1 -1.1104 6.62715 2.66888 26.2412
390 1 -1.1104 12.2529 -2.77736 20.745
560 1 -1.1104 6.72673 -0.143485 26.278
556 1 -1.1104 6.54107 -0.0090659 23.4826
582 2 2.2208 10.8347 1.41475 22.1223
583 1 -1.1104 12.1271 -2.89611 23.5516
584 1 -1.1104 12.1325 2.73608 23.6734
585 1 -1.1104 12.2278 -2.93598 26.2436
586 1 -1.1104 12.2299 2.83781 26.4151
587 1 -1.1104 12.1057 0.0387643 23.5752
588 2 2.2208 10.8824 -1.33167 25.0466
589 2 2.2208 10.8174 4.24808 24.9392
590 1 -1.1104 12.3097 -0.0421571 26.3122
591 1 -1.1104 9.33721 -2.86487 23.4219
592 1 -1.1104 9.44985 2.94606 23.4437
593 2 2.2208 8.07542 1.47358 24.8932
594 1 -1.1104 9.54431 -2.87081 26.1489
595 1 -1.1104 9.52872 2.75316 26.2376
596 2 2.2208 7.89778 -1.39295 22.2369
597 2 2.2208 7.92219 4.19297 22.0303
598 1 -1.1104 9.36462 0.0614636 23.6171
599 1 -1.1104 9.55211 0.042927 26.3574
481 1 -1.1104 9.40872 14.0366 26.1202
608 1 -1.1104 12.2651 14.01 23.517
480 1 -1.1104 9.26949 19.5795 26.3227
516 2 2.2208 8.11042 18.1249 24.9127
435 1 -1.1104 0.802392 11.1278 20.6397
449 1 -1.1104 3.88329 5.48871 20.8208
437 1 -1.1104 6.73597 5.61007 20.6933
641 2 2.2208 10.6971 20.9681 25.0021
424 1 -1.1104 0.878314 8.3073 20.8307
451 1 -1.1104 3.66633 11.1894 20.8254
529 1 -1.1104 12.1847 16.7917 20.7551
444 1 -1.1104 3.74447 8.35998 20.7985
433 1 -1.1104 0.985865 5.59273 20.7576
611 2 2.2208 5.2007 6.99058 22.0952
612 2 2.2208 5.09787 12.619 22.2275
613 1 -1.1104 1.14392 8.39725 23.6319
615 1 -1.1104 1.15467 8.38591 26.3244
617 1 -1.1104 0.964008 5.66677 23.6551
618 1 -1.1104 0.892873 11.15 23.4349
621 2 2.2208 5.22896 9.74962 24.9755
622 1 -1.1104 1.07266 5.5693 26.418
623 1 -1.1104 0.953069 11.1122 26.3254
626 1 -1.1104 3.90316 8.21941 23.5634
627 2 2.2208 2.47471 6.89675 24.9297
628 2 2.2208 2.31283 12.5662 25.0206
629 1 -1.1104 3.89474 8.38567 26.392
630 2 2.2208 2.31814 9.80897 22.1631
631 1 -1.1104 3.78697 5.41111 23.6071
632 1 -1.1104 3.70982 11.1521 23.5041
633 1 -1.1104 3.99738 5.56347 26.4732
634 1 -1.1104 3.71465 11.1769 26.3119
620 1 -1.1104 6.63523 11.2188 23.5367
624 1 -1.1104 6.70875 5.50267 26.2796
522 1 -1.1104 12.1308 13.9403 20.793
9751 2 2.2208 13.5179 1.35941 19.2415
614 1 -1.1104 6.50913 8.41898 23.5933
426 1 -1.1104 6.5434 8.43116 20.7279
616 1 -1.1104 6.58362 8.47914 26.4347
625 1 -1.1104 6.59033 11.205 26.3513
478 1 -1.1104 9.32444 11.2323 20.601
471 1 -1.1104 9.38237 8.40736 20.6814
476 1 -1.1104 9.4937 5.52811 20.7326
464 1 -1.1104 12.0733 5.69755 20.7999
619 1 -1.1104 6.662 5.62785 23.5213
642 1 -1.1104 9.31754 11.2895 26.1194
643 1 -1.1104 9.38155 5.6625 26.5395
644 1 -1.1104 9.4093 11.2924 23.4203
645 1 -1.1104 9.48996 5.78544 23.6197
646 2 2.2208 7.87685 9.77419 21.9841
647 1 -1.1104 9.33757 8.56757 26.3107
648 2 2.2208 8.01935 12.6111 24.8256
649 2 2.2208 7.92182 7.05362 24.9831
650 2 2.2208 10.7001 7.06543 22.1567
651 2 2.2208 10.687 12.5693 22.0555
652 1 -1.1104 12.1173 8.35632 23.4795
653 1 -1.1104 12.0184 8.43991 26.2749
654 1 -1.1104 12.2491 5.50686 23.5717
655 1 -1.1104 12.0493 11.1637 23.4529
656 2 2.2208 10.662 9.8517 24.8255
657 1 -1.1104 12.1133 5.67013 26.4618
658 1 -1.1104 12.0885 11.2215 26.2873
659 1 -1.1104 9.31239 8.41023 23.4734
383 2 2.2208 5.19679 -1.3935 13.6563
673 1 -1.1104 6.58311 19.5038 23.5451
667 1 -1.1104 6.58206 13.869 26.2247
536 1 -1.1104 9.42056 19.6416 20.6747
488 1 -1.1104 0.841848 13.9591 20.8284
490 1 -1.1104 1.0529 19.3894 20.9454
509 1 -1.1104 3.82851 19.5698 20.7007
507 1 -1.1104 3.7754 14.1616 20.8301
514 1 -1.1104 3.87871 16.9325 20.6655
664 1 -1.1104 9.26694 14.0724 23.4571
502 1 -1.1104 6.56167 16.8992 20.6623
638 1 -1.1104 12.1588 19.7161 26.3549
492 1 -1.1104 6.56536 13.9852 20.7253
543 2 2.2208 2.42097 15.4283 22.1036
544 2 2.2208 2.45166 20.9623 22.1515
545 1 -1.1104 3.87883 16.7129 23.5038
570 1 -1.1104 1.00566 16.7644 23.4172
578 1 -1.1104 3.7939 14.0163 26.3229
600 1 -1.1104 3.84295 16.7163 26.3005
602 2 2.2208 2.32461 18.1466 24.9155
666 1 -1.1104 3.75189 19.5014 23.4918
668 1 -1.1104 3.72185 13.9159 23.6031
670 1 -1.1104 0.937579 19.5513 26.4282
671 1 -1.1104 1.07351 16.7133 26.1933
672 1 -1.1104 1.02512 13.9759 26.4304
674 2 2.2208 5.23307 20.9077 24.9113
675 2 2.2208 5.26837 15.2694 24.968
677 1 -1.1104 1.06405 19.6846 23.7124
678 1 -1.1104 0.915971 13.8809 23.5128
679 2 2.2208 5.27351 18.1459 22.1095
680 1 -1.1104 3.61443 19.527 26.3645
572 1 -1.1104 6.77085 16.8425 23.5424
610 1 -1.1104 12.3401 14.035 26.1908
663 1 -1.1104 12.2188 16.892 26.2818
639 1 -1.1104 12.4257 16.8534 23.6302
9952 2 2.2208 13.5094 4.26459 22.0872
417 2 2.2208 10.9853 -1.51681 13.6846
384 2 2.2208 2.44556 1.36967 13.7811
9787 2 2.2208 -0.329098 18.0095 22.1405
661 2 2.2208 7.99655 9.84374 27.6389
336 2 2.2208 8.09896 18.2313 13.7556
335 2 2.2208 2.29711 21.0763 27.7745
662 2 2.2208 10.8888 12.6768 27.6377
542 2 2.2208 5.12152 18.1873 27.6975
637 2 2.2208 5.13026 12.5423 27.6885
601 2 2.2208 8.10299 -1.41512 27.5029
385 2 2.2208 5.29972 4.16831 13.7871
410 2 2.2208 8.0064 15.2829 27.6542
571 2 2.2208 2.41682 -1.37591 27.6061
9824 2 2.2208 13.4923 9.78456 27.5837
326 2 2.2208 5.20208 9.82036 13.72
9699 2 2.2208 13.6164 12.5337 13.7011
338 2 2.2208 5.21287 1.29772 27.7512
517 2 2.2208 2.59026 15.4248 27.5604
418 2 2.2208 10.8196 4.13371 13.7011
607 2 2.2208 13.6027 -1.48695 27.6469
329 2 2.2208 7.98187 12.5984 13.7498
332 2 2.2208 5.2467 15.4407 13.7774
681 2 2.2208 5.15493 23.7174 5.25356
682 2 2.2208 5.10339 29.3388 5.17877
683 1 -1.1104 1.0235 25.2954 1.21756
684 1 -1.1104 0.967995 25.2277 3.93778
685 1 -1.1104 0.959819 22.4083 1.07606
686 1 -1.1104 0.944717 28.013 0.989406
687 2 2.2208 5.11378 26.4781 2.38979
688 1 -1.1104 0.965501 22.2896 3.91714
689 1 -1.1104 0.900394 28.0041 3.87487
690 1 -1.1104 3.68276 25.1098 0.828084
691 2 2.2208 2.32323 23.7643 2.41327
692 2 2.2208 2.35235 29.3582 2.44404
693 1 -1.1104 3.66052 25.2434 3.62368
694 2 2.2208 2.34144 26.5342 5.15294
695 1 -1.1104 3.7301 22.3669 0.874405
696 1 -1.1104 3.81699 27.9121 1.12959
697 1 -1.1104 3.75866 22.3696 3.80046
698 1 -1.1104 3.68576 28.005 3.99683
706 1 -1.1104 6.5836 22.4093 3.99348
707 1 -1.1104 6.65355 27.9079 3.69207
702 1 -1.1104 6.66592 25.055 1.11066
824 1 -1.1104 1.0809 22.3621 6.61233
10395 2 2.2208 -0.286482 23.7798 5.23503
1015 2 2.2208 5.24472 23.7514 -0.364262
1361 1 -1.1104 6.61508 47.4911 3.92524
1568 1 -1.1104 3.83719 47.7234 12.3962
1023 2 2.2208 2.51871 43.5008 -0.33119
703 1 -1.1104 6.60361 25.1426 3.83028
1274 2 2.2208 10.8145 29.4394 -0.26541
826 1 -1.1104 6.61299 22.3936 6.73351
705 1 -1.1104 6.69867 27.9513 1.08519
704 1 -1.1104 6.61636 22.2582 1.33196
708 2 2.2208 10.8818 23.7755 5.35153
709 2 2.2208 10.8016 29.3571 5.29079
710 1 -1.1104 12.286 25.1914 1.09897
711 1 -1.1104 12.2966 25.301 3.96094
712 1 -1.1104 12.3307 22.4938 1.06297
713 1 -1.1104 12.2348 27.9527 0.973435
714 2 2.2208 10.9045 26.622 2.47426
715 1 -1.1104 12.2689 22.5418 3.8508
716 1 -1.1104 12.2925 27.9175 3.8746
717 1 -1.1104 9.36838 25.205 1.18398
718 2 2.2208 8.04118 23.7722 2.55388
719 2 2.2208 8.00185 29.337 2.47446
720 1 -1.1104 9.58601 25.2307 3.91098
721 2 2.2208 7.9777 26.7364 5.09546
722 1 -1.1104 9.52082 22.4338 1.19818
723 1 -1.1104 9.47029 28.016 1.06118
724 1 -1.1104 9.47955 22.4924 3.87947
725 1 -1.1104 9.45337 27.9334 3.8055
856 1 -1.1104 12.1277 22.3027 6.55689
982 1 -1.1104 12.3082 44.8377 9.58007
1571 1 -1.1104 3.82433 47.5331 9.47317
1559 1 -1.1104 6.65986 47.6499 9.47808
729 2 2.2208 5.3028 34.9323 5.19604
730 1 -1.1104 1.01765 30.6969 1.06939
731 1 -1.1104 1.02822 36.4269 0.979785
733 1 -1.1104 1.09662 30.5963 3.92516
734 1 -1.1104 0.970367 36.4661 3.72932
736 1 -1.1104 0.977164 33.5455 1.09915
737 2 2.2208 5.22453 32.195 2.46919
738 2 2.2208 5.20358 37.8563 2.37818
739 1 -1.1104 1.03954 33.503 3.87071
741 1 -1.1104 3.74942 30.6544 1.0293
742 1 -1.1104 3.89503 36.5166 1.08861
743 2 2.2208 2.43427 35.0625 2.58339
744 1 -1.1104 3.91584 30.8002 3.75362
745 1 -1.1104 3.8158 36.4746 3.81781
746 2 2.2208 2.50896 32.181 5.23387
747 2 2.2208 2.51961 37.8173 5.15079
748 1 -1.1104 3.72147 33.5692 1.19469
749 1 -1.1104 3.83654 33.6592 3.88743
735 1 -1.1104 6.63958 36.2463 3.82349
885 1 -1.1104 3.92517 30.6937 6.58925
732 1 -1.1104 6.63569 36.5077 1.08831
755 1 -1.1104 6.46136 33.7096 1.01373
1599 1 -1.1104 9.4491 47.6255 12.289
887 1 -1.1104 3.72926 33.5389 6.64968
947 1 -1.1104 6.52316 44.6953 12.3716
1297 2 2.2208 2.50579 37.7377 -0.337431
1298 2 2.2208 2.49866 32.2011 -0.267501
754 1 -1.1104 6.66361 30.7219 3.89355
740 1 -1.1104 6.73424 33.4685 3.78752
753 1 -1.1104 6.66517 30.973 0.889223
756 2 2.2208 10.8647 34.9761 5.11639
757 1 -1.1104 12.2628 30.7508 1.24425
758 1 -1.1104 12.3973 36.464 1.02291
759 1 -1.1104 12.2444 30.8408 3.98036
760 1 -1.1104 12.2401 36.3691 3.84948
761 1 -1.1104 12.166 33.5533 1.19486
762 2 2.2208 10.8269 32.1781 2.59926
763 2 2.2208 10.8906 37.7984 2.48374
764 1 -1.1104 12.317 33.5908 3.84448
765 1 -1.1104 9.36734 30.763 1.08339
766 1 -1.1104 9.37887 36.2891 1.13126
767 2 2.2208 8.00302 34.9459 2.49489
768 1 -1.1104 9.53978 30.6515 3.86421
769 1 -1.1104 9.29331 36.3283 3.80021
770 2 2.2208 8.01084 32.0382 5.21923
771 2 2.2208 8.0808 37.7262 5.35784
772 1 -1.1104 9.36571 33.4166 1.1034
773 1 -1.1104 9.42927 33.5921 3.93205