LAMMPS (29 Oct 2020)
OMP_NUM_THREADS environment is not set. Defaulting to 1 thread. (../comm.cpp:94)
  using 1 OpenMP thread(s) per MPI task
OMP_NUM_THREADS environment is not set. Defaulting to 1 thread. (../comm.cpp:94)
  using 1 OpenMP thread(s) per MPI task
Reading data file ...
  orthogonal box = (-0.36286005 -4.3125820 -0.3500659) to (27.702860 332.39258 27.690066)
  2 by 13 by 2 MPI processor grid
  reading atoms ...
  17730 atoms
  reading velocities ...
  17730 velocities
Finding 1-2 1-3 1-4 neighbors ...
  special bond factors lj:    0.0      0.0      0.0     
  special bond factors coul:  0.0      0.0      0.0     
     0 = max # of 1-2 neighbors
     0 = max # of 1-3 neighbors
     0 = max # of 1-4 neighbors
     1 = max # of special neighbors
  special bonds CPU = 0.004 seconds
  read_data CPU = 0.110 seconds
Setting atom values ...
  11820 settings made for charge
Setting atom values ...
  5910 settings made for charge
PPPM initialization ...
  using 12-bit tables for long-range coulomb (../kspace.cpp:328)
  G vector (1/distance) = 0.29882961
  grid = 40 240 40
  stencil order = 5
  estimated absolute RMS force accuracy = 0.00015651063
  estimated relative force accuracy = 1.0869062e-05
  using single precision MKL FFT
  3d grid and FFT values/proc = 15000 7600
Neighbor list info ...
  update every 1 steps, delay 0 steps, check yes
  max neighbors/atom: 2000, page size: 100000
  master list distance cutoff = 11.3
  ghost atom cutoff = 11.3
  binsize = 5.65, bins = 5 60 5
  2 neighbor lists, perpetual/occasional/extra = 2 0 0
  (1) pair coul/long, perpetual
      attributes: half, newton on
      pair build: half/bin/newton
      stencil: half/bin/3d/newton
      bin: standard
  (2) pair eam/alloy, perpetual, copy from (1)
      attributes: half, newton on
      pair build: copy
      stencil: none
      bin: none
Setting up Verlet run ...
  Unit style    : metal
  Current step  : 0
  Time step     : 0.001
Per MPI rank memory allocation (min/avg/max) = 8.153 | 8.181 | 8.202 Mbytes
Step Temp E_pair E_mol TotEng Press 
       0          600   -231787.46            0   -230412.46   -190.73637 
  100000     598.1227    -231774.3            0   -230403.62     -188.982 
Loop time of 625.946 on 52 procs for 100000 steps with 17730 atoms

Performance: 13.803 ns/day, 1.739 hours/ns, 159.758 timesteps/s
99.8% CPU use with 52 MPI tasks x 1 OpenMP threads

MPI task timing breakdown:
Section |  min time  |  avg time  |  max time  |%varavg| %total
---------------------------------------------------------------
Pair    | 391.29     | 409.89     | 427.95     |  48.0 | 65.48
Bond    | 0.0059297  | 0.01054    | 0.022389   |   3.0 |  0.00
Kspace  | 142.07     | 161.93     | 181.96     |  82.2 | 25.87
Neigh   | 29.746     | 33.446     | 36.362     |  25.3 |  5.34
Comm    | 14.585     | 15.395     | 17.643     |  20.0 |  2.46
Output  | 5.6822e-05 | 6.3552e-05 | 0.00029517 |   0.0 |  0.00
Modify  | 2.6956     | 3.8451     | 5.6173     |  47.3 |  0.61
Other   |            | 1.431      |            |       |  0.23

Nlocal:        340.962 ave         371 max         321 min
Histogram: 5 5 1 15 10 9 3 2 1 1
Nghost:        4112.27 ave        4268 max        3897 min
Histogram: 3 5 0 0 7 9 11 9 4 4
Neighs:        68143.3 ave       74707 max       58773 min
Histogram: 4 0 0 2 5 14 14 8 3 2

Total # of neighbors = 3543452
Ave neighs/atom = 199.85629
Ave special neighs/atom = 0.0000000
Neighbor list builds = 16211
Dangerous builds = 0
11820 atoms in group oxygen
PPPM initialization ...
  using 12-bit tables for long-range coulomb (../kspace.cpp:328)
  G vector (1/distance) = 0.29882961
  grid = 40 240 40
  stencil order = 5
  estimated absolute RMS force accuracy = 0.00015651063
  estimated relative force accuracy = 1.0869062e-05
  using single precision MKL FFT
  3d grid and FFT values/proc = 15000 7600
Setting up Verlet run ...
  Unit style    : metal
  Current step  : 0
  Time step     : 0.001
Per MPI rank memory allocation (min/avg/max) = 8.404 | 8.432 | 8.452 Mbytes
Step f_2 Temp v_Tdiff v_deltaT 
       0            0     598.1227            0            0 
  100000    693.54665    600.08111  0.017183776    199.50204 
  200000    1368.4519    598.09825  0.019067661    221.37377 
  300000    2040.4488    597.33479  0.019719178    228.93782 
  400000    2723.3037    599.93893  0.019457076    225.89485 
  500000    3401.1284    609.49027  0.018677105    216.83946 
  600000    4075.9227    601.84432  0.019965978    231.80315 
  700000    4753.5765    598.08344  0.018701463    217.12224 
  800000    5433.3427    599.77919  0.018585421    215.77501 
  900000    6117.4483    600.12749  0.018940604    219.89865 
 1000000    6797.6411    598.71446  0.018248188    211.85976 
Loop time of 6330.99 on 52 procs for 1000000 steps with 17730 atoms

Performance: 13.647 ns/day, 1.759 hours/ns, 157.953 timesteps/s
99.8% CPU use with 52 MPI tasks x 1 OpenMP threads

MPI task timing breakdown:
Section |  min time  |  avg time  |  max time  |%varavg| %total
---------------------------------------------------------------
Pair    | 3908.9     | 4109.4     | 4284.3     | 148.1 | 64.91
Bond    | 0.058614   | 0.10675    | 0.21961    |  10.2 |  0.00
Kspace  | 1483.3     | 1678.4     | 1896.8     | 250.7 | 26.51
Neigh   | 300.3      | 340.24     | 372.31     |  84.0 |  5.37
Comm    | 146.74     | 155.89     | 180.8      |  69.1 |  2.46
Output  | 0.001126   | 0.0011947  | 0.0023457  |   0.5 |  0.00
Modify  | 5.661      | 6.1035     | 6.6686     |   8.1 |  0.10
Other   |            | 40.81      |            |       |  0.64

Nlocal:        340.962 ave         367 max         319 min
Histogram: 1 6 6 10 7 8 8 2 2 2
Nghost:        4099.06 ave        4266 max        3931 min
Histogram: 7 1 2 8 10 4 7 5 5 3
Neighs:        68139.8 ave       73736 max       58374 min
Histogram: 2 2 0 1 5 11 10 10 7 4

Total # of neighbors = 3543270
Ave neighs/atom = 199.84602
Ave special neighs/atom = 0.0000000
Neighbor list builds = 165572
Dangerous builds = 0
Total wall time: 1:55:57
