LAMMPS (29 Oct 2020)
OMP_NUM_THREADS environment is not set. Defaulting to 1 thread. (../comm.cpp:94)
  using 1 OpenMP thread(s) per MPI task
OMP_NUM_THREADS environment is not set. Defaulting to 1 thread. (../comm.cpp:94)
  using 1 OpenMP thread(s) per MPI task
Reading data file ...
  orthogonal box = (-0.38767471 -4.7241006 -0.40124735) to (27.727675 332.80410 27.741247)
  2 by 13 by 2 MPI processor grid
  reading atoms ...
  17640 atoms
  reading velocities ...
  17640 velocities
Finding 1-2 1-3 1-4 neighbors ...
  special bond factors lj:    0.0      0.0      0.0     
  special bond factors coul:  0.0      0.0      0.0     
     0 = max # of 1-2 neighbors
     0 = max # of 1-3 neighbors
     0 = max # of 1-4 neighbors
     1 = max # of special neighbors
  special bonds CPU = 0.004 seconds
  read_data CPU = 0.092 seconds
Setting atom values ...
  11760 settings made for charge
Setting atom values ...
  5880 settings made for charge
PPPM initialization ...
  using 12-bit tables for long-range coulomb (../kspace.cpp:328)
  G vector (1/distance) = 0.29868009
  grid = 40 240 40
  stencil order = 5
  estimated absolute RMS force accuracy = 0.00015728569
  estimated relative force accuracy = 1.0922886e-05
  using single precision MKL FFT
  3d grid and FFT values/proc = 15000 7600
Neighbor list info ...
  update every 1 steps, delay 0 steps, check yes
  max neighbors/atom: 2000, page size: 100000
  master list distance cutoff = 11.3
  ghost atom cutoff = 11.3
  binsize = 5.65, bins = 5 60 5
  2 neighbor lists, perpetual/occasional/extra = 2 0 0
  (1) pair coul/long, perpetual
      attributes: half, newton on
      pair build: half/bin/newton
      stencil: half/bin/3d/newton
      bin: standard
  (2) pair eam/alloy, perpetual, copy from (1)
      attributes: half, newton on
      pair build: copy
      stencil: none
      bin: none
Setting up Verlet run ...
  Unit style    : metal
  Current step  : 0
  Time step     : 0.001
Per MPI rank memory allocation (min/avg/max) = 8.152 | 8.174 | 8.190 Mbytes
Step Temp E_pair E_mol TotEng Press 
       0          900   -229699.16            0   -227647.14    1194.2397 
   50000    899.86416   -229700.41            0    -227648.7    1175.2078 
Loop time of 331.427 on 52 procs for 50000 steps with 17640 atoms

Performance: 13.035 ns/day, 1.841 hours/ns, 150.863 timesteps/s
99.8% CPU use with 52 MPI tasks x 1 OpenMP threads

MPI task timing breakdown:
Section |  min time  |  avg time  |  max time  |%varavg| %total
---------------------------------------------------------------
Pair    | 216.5      | 221.74     | 230.41     |  21.9 | 66.90
Bond    | 0.0032312  | 0.0051061  | 0.0093274  |   1.6 |  0.00
Kspace  | 67.269     | 77.358     | 83.712     |  41.4 | 23.34
Neigh   | 18.827     | 20.456     | 22.494     |  19.1 |  6.17
Comm    | 8.7584     | 9.6286     | 10.534     |  13.9 |  2.91
Output  | 5.3874e-05 | 6.0167e-05 | 0.00027807 |   0.0 |  0.00
Modify  | 1.1517     | 1.4917     | 2.4562     |  31.5 |  0.45
Other   |            | 0.7509     |            |       |  0.23

Nlocal:        339.231 ave         368 max         319 min
Histogram: 3 7 6 11 4 12 5 2 1 1
Nghost:        4041.31 ave        4154 max        3917 min
Histogram: 2 6 3 6 7 12 4 1 3 8
Neighs:        67322.5 ave       73633 max       61351 min
Histogram: 4 1 5 9 10 5 6 7 4 1

Total # of neighbors = 3500772
Ave neighs/atom = 198.45646
Ave special neighs/atom = 0.0000000
Neighbor list builds = 9883
Dangerous builds = 0
11760 atoms in group oxygen
PPPM initialization ...
  using 12-bit tables for long-range coulomb (../kspace.cpp:328)
  G vector (1/distance) = 0.29868009
  grid = 40 240 40
  stencil order = 5
  estimated absolute RMS force accuracy = 0.00015728569
  estimated relative force accuracy = 1.0922886e-05
  using single precision MKL FFT
  3d grid and FFT values/proc = 15000 7600
Setting up Verlet run ...
  Unit style    : metal
  Current step  : 0
  Time step     : 0.001
Per MPI rank memory allocation (min/avg/max) = 8.402 | 8.425 | 8.440 Mbytes
Step f_2 Temp v_Tdiff v_deltaT 
       0            0    899.86416            0            0 
  100000    1010.7423    904.73949  0.031705651    368.09967 
  200000     1972.463    904.17197  0.037493208    435.29266 
  300000    2935.9292    909.38495  0.037387391    434.06413 
  400000    3898.1456    897.54875  0.038425529    446.11682 
  500000    4863.4457    901.35258  0.038869508    451.27137 
  600000    5828.5439    904.92936   0.03787437    439.71792 
  700000    6807.2835    901.15016  0.037031253    429.92941 
  800000    7779.2176    895.83305  0.038845057     450.9875 
  900000    8747.3207    912.10876  0.036943547    428.91115 
 1000000    9712.1764    899.72482   0.03931916     456.4918 
Loop time of 6627.01 on 52 procs for 1000000 steps with 17640 atoms

Performance: 13.038 ns/day, 1.841 hours/ns, 150.898 timesteps/s
99.8% CPU use with 52 MPI tasks x 1 OpenMP threads

MPI task timing breakdown:
Section |  min time  |  avg time  |  max time  |%varavg| %total
---------------------------------------------------------------
Pair    | 4274.7     | 4414.8     | 4612.9     | 114.8 | 66.62
Bond    | 0.06871    | 0.1025     | 0.163      |   6.8 |  0.00
Kspace  | 1353       | 1565.5     | 1700.5     | 196.4 | 23.62
Neigh   | 385.4      | 417.74     | 457.96     |  77.1 |  6.30
Comm    | 172.57     | 194.13     | 213.07     |  70.7 |  2.93
Output  | 0.0011655  | 0.0012223  | 0.0023948  |   0.5 |  0.00
Modify  | 5.6335     | 6.2241     | 7.0281     |  10.9 |  0.09
Other   |            | 28.57      |            |       |  0.43

Nlocal:        339.231 ave         365 max         316 min
Histogram: 1 1 6 8 13 16 2 1 2 2
Nghost:        4064.04 ave        4147 max        3919 min
Histogram: 2 1 3 9 1 3 6 8 7 12
Neighs:        67322.3 ave       73945 max       62070 min
Histogram: 3 7 4 9 7 10 6 2 2 2

Total # of neighbors = 3500761
Ave neighs/atom = 198.45584
Ave special neighs/atom = 0.0000000
Neighbor list builds = 201834
Dangerous builds = 0
Total wall time: 1:55:58
