LAMMPS (29 Oct 2020)
OMP_NUM_THREADS environment is not set. Defaulting to 1 thread. (../comm.cpp:94)
  using 1 OpenMP thread(s) per MPI task
OMP_NUM_THREADS environment is not set. Defaulting to 1 thread. (../comm.cpp:94)
  using 1 OpenMP thread(s) per MPI task
Reading data file ...
  orthogonal box = (0.0000000 0.0000000 0.0000000) to (5.4680000 5.4680000 5.4680000)
  2 by 2 by 13 MPI processor grid
  reading atoms ...
  12 atoms
Finding 1-2 1-3 1-4 neighbors ...
  special bond factors lj:    0.0      0.0      0.0     
  special bond factors coul:  0.0      0.0      0.0     
     0 = max # of 1-2 neighbors
     0 = max # of 1-3 neighbors
     0 = max # of 1-4 neighbors
     1 = max # of special neighbors
  special bonds CPU = 0.003 seconds
  read_data CPU = 0.010 seconds
Replicating atoms ...
  orthogonal box = (0.0000000 0.0000000 0.0000000) to (27.340000 246.06000 27.340000)
  2 by 13 by 2 MPI processor grid
  13500 atoms
Finding 1-2 1-3 1-4 neighbors ...
  special bond factors lj:    0.0      0.0      0.0     
  special bond factors coul:  0.0      0.0      0.0     
     0 = max # of 1-2 neighbors
     0 = max # of 1-3 neighbors
     0 = max # of 1-4 neighbors
     1 = max # of special neighbors
  special bonds CPU = 0.002 seconds
  replicate CPU = 0.008 seconds
Setting atom values ...
  9000 settings made for charge
Setting atom values ...
  4500 settings made for charge
PPPM initialization ...
  using 12-bit tables for long-range coulomb (../kspace.cpp:328)
  G vector (1/distance) = 0.30128132
  grid = 40 192 40
  stencil order = 5
  estimated absolute RMS force accuracy = 0.00013375008
  estimated relative force accuracy = 9.2884292e-06
  using single precision MKL FFT
  3d grid and FFT values/proc = 16038 6000
Neighbor list info ...
  update every 1 steps, delay 0 steps, check yes
  max neighbors/atom: 2000, page size: 100000
  master list distance cutoff = 13
  ghost atom cutoff = 13
  binsize = 6.5, bins = 5 38 5
  2 neighbor lists, perpetual/occasional/extra = 2 0 0
  (1) pair coul/long, perpetual
      attributes: half, newton on
      pair build: half/bin/newton
      stencil: half/bin/3d/newton
      bin: standard
  (2) pair eam/alloy, perpetual, copy from (1)
      attributes: half, newton on
      pair build: copy
      stencil: none
      bin: none
Setting up cg style minimization ...
  Unit style    : metal
  Current step  : 0
WARNING: Energy due to 3 extra global DOFs will be included in minimizer energies
Per MPI rank memory allocation (min/avg/max) = 9.279 | 9.294 | 9.316 Mbytes
Step Temp E_pair E_mol TotEng Press Volume 
       0            0   -177246.57            0   -177246.57    136385.19    183923.85 
      24            0   -177709.64            0   -177709.64   -68.047622    195482.39 
Loop time of 0.93308 on 52 procs for 24 steps with 13500 atoms

98.7% CPU use with 52 MPI tasks x 1 OpenMP threads

Minimization stats:
  Stopping criterion = linesearch alpha is zero
  Energy initial, next-to-last, final = 
      -177246.56651169  -177709.642906469  -177709.642906469
  Force two-norm initial, final = 27117.868 168.11602
  Force max component initial, final = 15656.807 144.88969
  Final line search alpha, max atom move = 4.1137948e-13 5.9604645e-11
  Iterations, force evaluations = 24 102

MPI task timing breakdown:
Section |  min time  |  avg time  |  max time  |%varavg| %total
---------------------------------------------------------------
Pair    | 0.50938    | 0.54496    | 0.57176    |   1.5 | 58.40
Bond    | 8.8403e-06 | 1.1954e-05 | 1.9049e-05 |   0.0 |  0.00
Kspace  | 0.15263    | 0.18072    | 0.21722    |   2.7 | 19.37
Neigh   | 0.0079148  | 0.010167   | 0.011208   |   0.6 |  1.09
Comm    | 0.016243   | 0.016787   | 0.017421   |   0.2 |  1.80
Output  | 0          | 0          | 0          |   0.0 |  0.00
Modify  | 0          | 0          | 0          |   0.0 |  0.00
Other   |            | 0.1804     |            |       | 19.34

Nlocal:        259.615 ave         283 max         224 min
Histogram: 2 1 1 3 6 10 13 6 7 3
Nghost:        5000.23 ave        5159 max        4887 min
Histogram: 19 5 0 2 7 3 0 0 9 7
Neighs:        83769.2 ave       92459 max       72764 min
Histogram: 3 1 1 3 7 18 7 2 9 1

Total # of neighbors = 4356000
Ave neighs/atom = 322.66667
Ave special neighs/atom = 0.0000000
Neighbor list builds = 4
Dangerous builds = 0
4500 atoms in group thorium
9000 atoms in group oxygen
Setting atom values ...
  0 settings made for type/subset
Setting atom values ...
  0 settings made for type/subset
0 atoms in group delete
WARNING: Ignoring 'compress yes' for molecular system (../delete_atoms.cpp:125)
Deleted 0 atoms, new total = 13500
PPPM initialization ...
  using 12-bit tables for long-range coulomb (../kspace.cpp:328)
  G vector (1/distance) = 0.30024452
  grid = 40 192 40
  stencil order = 5
  estimated absolute RMS force accuracy = 0.00014135159
  estimated relative force accuracy = 9.816325e-06
  using single precision MKL FFT
  3d grid and FFT values/proc = 16038 6000
Setting up cg style minimization ...
  Unit style    : metal
  Current step  : 0
WARNING: Energy due to 3 extra global DOFs will be included in minimizer energies
Per MPI rank memory allocation (min/avg/max) = 9.279 | 9.338 | 10.07 Mbytes
Step Temp E_pair E_mol TotEng Press Volume 
       0            0   -177709.67            0   -177709.67   -70.330898    195482.39 
       1            0   -177709.67            0   -177709.67   -70.330898    195482.39 
Loop time of 0.371508 on 52 procs for 1 steps with 13500 atoms

99.6% CPU use with 52 MPI tasks x 1 OpenMP threads

Minimization stats:
  Stopping criterion = linesearch alpha is zero
  Energy initial, next-to-last, final = 
     -177709.674194775  -177709.674194775  -177709.674194775
  Force two-norm initial, final = 171.70814 171.70814
  Force max component initial, final = 148.25401 148.25401
  Final line search alpha, max atom move = 4.0204406e-13 5.9604645e-11
  Iterations, force evaluations = 1 44

MPI task timing breakdown:
Section |  min time  |  avg time  |  max time  |%varavg| %total
---------------------------------------------------------------
Pair    | 0.21314    | 0.22483    | 0.23535    |   1.0 | 60.52
Bond    | 3.5572e-06 | 4.8166e-06 | 1.0462e-05 |   0.0 |  0.00
Kspace  | 0.056188   | 0.066701   | 0.078366   |   1.8 | 17.95
Neigh   | 0          | 0          | 0          |   0.0 |  0.00
Comm    | 0.0060862  | 0.0064669  | 0.006719   |   0.2 |  1.74
Output  | 0          | 0          | 0          |   0.0 |  0.00
Modify  | 0          | 0          | 0          |   0.0 |  0.00
Other   |            | 0.0735     |            |       | 19.78

Nlocal:        259.615 ave         300 max         220 min
Histogram: 2 1 4 10 14 5 6 5 4 1
Nghost:        5000.23 ave        5152 max        4868 min
Histogram: 7 14 3 0 6 4 2 0 3 13
Neighs:        83769.2 ave       95764 max       69015 min
Histogram: 1 1 1 9 9 14 4 6 3 4

Total # of neighbors = 4356000
Ave neighs/atom = 322.66667
Ave special neighs/atom = 0.0000000
Neighbor list builds = 0
Dangerous builds = 0
Resetting atom IDs ...
PPPM initialization ...
  using 12-bit tables for long-range coulomb (../kspace.cpp:328)
  G vector (1/distance) = 0.30024452
  grid = 40 192 40
  stencil order = 5
  estimated absolute RMS force accuracy = 0.00014135159
  estimated relative force accuracy = 9.816325e-06
  using single precision MKL FFT
  3d grid and FFT values/proc = 16038 6000
Finding 1-2 1-3 1-4 neighbors ...
  special bond factors lj:    0.0      0.0      0.0     
  special bond factors coul:  0.0      0.0      0.0     
     0 = max # of 1-2 neighbors
     0 = max # of 1-3 neighbors
     0 = max # of 1-4 neighbors
     1 = max # of special neighbors
  special bonds CPU = 0.001 seconds
PPPM initialization ...
  using 12-bit tables for long-range coulomb (../kspace.cpp:328)
  G vector (1/distance) = 0.30024452
  grid = 40 192 40
  stencil order = 5
  estimated absolute RMS force accuracy = 0.00014135159
  estimated relative force accuracy = 9.816325e-06
  using single precision MKL FFT
  3d grid and FFT values/proc = 16038 6000
Setting up Verlet run ...
  Unit style    : metal
  Current step  : 0
  Time step     : 0.001
Per MPI rank memory allocation (min/avg/max) = 9.417 | 9.477 | 10.21 Mbytes
Step Dt Time Atoms Temp PotEng KinEng Press Volume 
       0        0.001            0    13500         1200   -177709.67    2093.8592    11370.536    195482.39 
   10000        0.001           10    13500    1200.6634   -175498.88    2095.0168   -1932.6316    202379.79 
   20000        0.001           20    13500    1183.7335   -175485.36    2065.4762   -1150.4752    202281.71 
   30000        0.001           30    13500    1209.0649   -175463.04    2109.6764   -486.59332    202344.76 
   40000        0.001           40    13500     1202.058   -175479.25    2097.4502    751.23597    202139.62 
   50000        0.001           50    13500    1199.3014   -175488.28    2092.6403    70.229596    202177.66 
   60000        0.001           60    13500    1207.0348    -175506.6    2106.1342   -1031.9973    202319.32 
   70000        0.001           70    13500    1197.4598   -175488.12    2089.4269    625.86791    202138.16 
   80000        0.001           80    13500    1185.5402   -175484.39    2068.6286   -608.67435    202211.06 
   90000        0.001           90    13500    1191.0062      -175486    2078.1661   -1371.5301    202350.74 
  100000        0.001          100    13500    1194.8833   -175491.95    2084.9313    1978.3717    201950.95 
Loop time of 652.319 on 52 procs for 100000 steps with 13500 atoms

Performance: 13.245 ns/day, 1.812 hours/ns, 153.299 timesteps/s
99.8% CPU use with 52 MPI tasks x 1 OpenMP threads

MPI task timing breakdown:
Section |  min time  |  avg time  |  max time  |%varavg| %total
---------------------------------------------------------------
Pair    | 403.22     | 410.94     | 416.68     |  14.7 | 63.00
Bond    | 0.0080357  | 0.011947   | 0.017305   |   2.0 |  0.00
Kspace  | 127.99     | 133.57     | 141.3      |  25.9 | 20.48
Neigh   | 5.1115     | 5.2788     | 5.3522     |   2.7 |  0.81
Comm    | 14.214     | 14.568     | 15.05      |   5.9 |  2.23
Output  | 0.041954   | 0.041993   | 0.043646   |   0.1 |  0.01
Modify  | 77.03      | 82.038     | 85.472     |  21.6 | 12.58
Other   |            | 5.876      |            |       |  0.90

Nlocal:        259.615 ave         269 max         238 min
Histogram: 1 0 1 2 0 7 9 14 16 2
Nghost:        4917.67 ave        5047 max        4831 min
Histogram: 3 7 15 8 7 2 2 0 1 7
Neighs:        81363.7 ave       84568 max       74718 min
Histogram: 1 1 1 0 2 8 12 16 7 4

Total # of neighbors = 4230912
Ave neighs/atom = 313.40089
Ave special neighs/atom = 0.0000000
Neighbor list builds = 2355
Dangerous builds = 0
System init for write_data ...
PPPM initialization ...
  using 12-bit tables for long-range coulomb (../kspace.cpp:328)
  G vector (1/distance) = 0.29969262
  grid = 40 192 40
  stencil order = 5
  estimated absolute RMS force accuracy = 0.00014544049
  estimated relative force accuracy = 1.0100283e-05
  using single precision MKL FFT
  3d grid and FFT values/proc = 16038 6000
Total wall time: 0:10:54
