LAMMPS (29 Oct 2020)
OMP_NUM_THREADS environment is not set. Defaulting to 1 thread. (../comm.cpp:94)
  using 1 OpenMP thread(s) per MPI task
OMP_NUM_THREADS environment is not set. Defaulting to 1 thread. (../comm.cpp:94)
  using 1 OpenMP thread(s) per MPI task
Reading data file ...
  orthogonal box = (-0.36051681 -4.3372562 -0.37358815) to (27.700517 332.41726 27.713588)
  2 by 13 by 2 MPI processor grid
  reading atoms ...
  17820 atoms
  reading velocities ...
  17820 velocities
Finding 1-2 1-3 1-4 neighbors ...
  special bond factors lj:    0.0      0.0      0.0     
  special bond factors coul:  0.0      0.0      0.0     
     0 = max # of 1-2 neighbors
     0 = max # of 1-3 neighbors
     0 = max # of 1-4 neighbors
     1 = max # of special neighbors
  special bonds CPU = 0.004 seconds
  read_data CPU = 0.056 seconds
Setting atom values ...
  11880 settings made for charge
Setting atom values ...
  5940 settings made for charge
PPPM initialization ...
  using 12-bit tables for long-range coulomb (../kspace.cpp:328)
  G vector (1/distance) = 0.29881046
  grid = 40 240 40
  stencil order = 5
  estimated absolute RMS force accuracy = 0.00015706262
  estimated relative force accuracy = 1.0907395e-05
  using single precision MKL FFT
  3d grid and FFT values/proc = 15000 7600
Neighbor list info ...
  update every 1 steps, delay 0 steps, check yes
  max neighbors/atom: 2000, page size: 100000
  master list distance cutoff = 11.3
  ghost atom cutoff = 11.3
  binsize = 5.65, bins = 5 60 5
  2 neighbor lists, perpetual/occasional/extra = 2 0 0
  (1) pair coul/long, perpetual
      attributes: half, newton on
      pair build: half/bin/newton
      stencil: half/bin/3d/newton
      bin: standard
  (2) pair eam/alloy, perpetual, copy from (1)
      attributes: half, newton on
      pair build: copy
      stencil: none
      bin: none
Setting up Verlet run ...
  Unit style    : metal
  Current step  : 0
  Time step     : 0.001
Per MPI rank memory allocation (min/avg/max) = 8.156 | 8.180 | 8.192 Mbytes
Step Temp E_pair E_mol TotEng Press 
       0          600   -232755.97            0      -231374    -1111.016 
  100000    602.23136   -232752.22            0   -231365.11   -949.11627 
Loop time of 638.881 on 52 procs for 100000 steps with 17820 atoms

Performance: 13.524 ns/day, 1.775 hours/ns, 156.524 timesteps/s
99.8% CPU use with 52 MPI tasks x 1 OpenMP threads

MPI task timing breakdown:
Section |  min time  |  avg time  |  max time  |%varavg| %total
---------------------------------------------------------------
Pair    | 437.23     | 445.39     | 454.25     |  22.0 | 69.71
Bond    | 0.0066436  | 0.010255   | 0.01416    |   1.8 |  0.00
Kspace  | 128.12     | 139.63     | 148.81     |  47.6 | 21.85
Neigh   | 32.74      | 34.487     | 36.932     |  19.0 |  5.40
Comm    | 13.62      | 14.813     | 17.054     |  22.3 |  2.32
Output  | 6.0948e-05 | 6.6644e-05 | 0.0002654  |   0.0 |  0.00
Modify  | 1.6486     | 3.2868     | 5.3677     |  65.3 |  0.51
Other   |            | 1.268      |            |       |  0.20

Nlocal:        342.692 ave         368 max         324 min
Histogram: 7 2 8 11 6 3 7 2 5 1
Nghost:        4111.90 ave        4230 max        4011 min
Histogram: 2 7 7 10 7 4 3 1 9 2
Neighs:        68597.7 ave       73857 max       64631 min
Histogram: 7 5 6 5 10 4 7 3 4 1

Total # of neighbors = 3567079
Ave neighs/atom = 200.17278
Ave special neighs/atom = 0.0000000
Neighbor list builds = 16207
Dangerous builds = 0
11880 atoms in group oxygen
PPPM initialization ...
  using 12-bit tables for long-range coulomb (../kspace.cpp:328)
  G vector (1/distance) = 0.29881046
  grid = 40 240 40
  stencil order = 5
  estimated absolute RMS force accuracy = 0.00015706262
  estimated relative force accuracy = 1.0907395e-05
  using single precision MKL FFT
  3d grid and FFT values/proc = 15000 7600
Setting up Verlet run ...
  Unit style    : metal
  Current step  : 0
  Time step     : 0.001
Per MPI rank memory allocation (min/avg/max) = 8.407 | 8.431 | 8.443 Mbytes
Step f_2 Temp v_Tdiff v_deltaT 
       0            0    602.23136            0            0 
  100000    695.98973    601.80032  0.018663223    216.67828 
  200000    1364.7075    598.89528  0.021517765    249.81925 
  300000    2034.1102     604.2208  0.022442221     260.5521 
  400000    2695.3927     606.5814  0.021971585    255.08807 
  500000    3357.5265    600.52293  0.021947533    254.80881 
  600000    4026.2973    601.99706  0.022294353    258.83536 
  700000    4687.5944     602.5121  0.023282413    270.30665 
  800000    5348.0269    602.98685  0.022571188     262.0494 
  900000    6010.3938    601.68658  0.022447449     260.6128 
 1000000    6676.4651    603.62945  0.022092709     256.4943 
Loop time of 6323.72 on 52 procs for 1000000 steps with 17820 atoms

Performance: 13.663 ns/day, 1.757 hours/ns, 158.135 timesteps/s
99.8% CPU use with 52 MPI tasks x 1 OpenMP threads

MPI task timing breakdown:
Section |  min time  |  avg time  |  max time  |%varavg| %total
---------------------------------------------------------------
Pair    | 4313.1     | 4392.1     | 4495.4     |  69.7 | 69.46
Bond    | 0.069243   | 0.10061    | 0.14103    |   5.5 |  0.00
Kspace  | 1278.3     | 1392.1     | 1493.1     | 142.7 | 22.01
Neigh   | 339.58     | 356.1      | 378.3      |  55.2 |  5.63
Comm    | 138.31     | 148.37     | 172.49     |  67.8 |  2.35
Output  | 0.0010977  | 0.0011574  | 0.0023531  |   0.5 |  0.00
Modify  | 5.2142     | 5.7717     | 6.2232     |   9.9 |  0.09
Other   |            | 29.14      |            |       |  0.46

Nlocal:        342.692 ave         363 max         327 min
Histogram: 2 9 5 10 7 3 9 4 1 2
Nghost:        4129.75 ave        4227 max        4018 min
Histogram: 5 4 1 5 8 7 4 6 7 5
Neighs:        68592.9 ave       72330 max       65107 min
Histogram: 3 8 3 8 7 5 5 4 5 4

Total # of neighbors = 3566831
Ave neighs/atom = 200.15887
Ave special neighs/atom = 0.0000000
Neighbor list builds = 167016
Dangerous builds = 0
Total wall time: 1:56:03
