LAMMPS (29 Oct 2020)
OMP_NUM_THREADS environment is not set. Defaulting to 1 thread. (../comm.cpp:94)
  using 1 OpenMP thread(s) per MPI task
OMP_NUM_THREADS environment is not set. Defaulting to 1 thread. (../comm.cpp:94)
  using 1 OpenMP thread(s) per MPI task
Reading data file ...
  triclinic box = (0.0000000 0.0000000 0.0000000) to (27.894000 334.72800 27.894000) with tilt (0.0000000 0.0000000 0.0000000)
  2 by 13 by 2 MPI processor grid
  reading atoms ...
  24000 atoms
  reading velocities ...
  24000 velocities
Finding 1-2 1-3 1-4 neighbors ...
  special bond factors lj:    0.0      0.0      0.0     
  special bond factors coul:  0.0      0.0      0.0     
     0 = max # of 1-2 neighbors
     0 = max # of 1-3 neighbors
     0 = max # of 1-4 neighbors
     1 = max # of special neighbors
  special bonds CPU = 0.004 seconds
  read_data CPU = 0.074 seconds
60 atoms in group vac_Th
120 atoms in group vac_O
60 atoms in group oct_Th
120 atoms in group oct_O
3000 atoms in group tot_oct_Th
3000 atoms in group tot_oct_O
2940 atoms in group delete_oct_Th
2880 atoms in group delete_oct_O
WARNING: Ignoring 'compress yes' for molecular system (../delete_atoms.cpp:125)
Deleted 60 atoms, new total = 23940
WARNING: Ignoring 'compress yes' for molecular system (../delete_atoms.cpp:125)
Deleted 120 atoms, new total = 23820
WARNING: Ignoring 'compress yes' for molecular system (../delete_atoms.cpp:125)
Deleted 2940 atoms, new total = 20880
WARNING: Ignoring 'compress yes' for molecular system (../delete_atoms.cpp:125)
Deleted 2880 atoms, new total = 18000
Setting atom values ...
  11880 settings made for charge
Setting atom values ...
  5940 settings made for charge
Setting atom values ...
  120 settings made for charge
Setting atom values ...
  60 settings made for charge
PPPM initialization ...
  using 12-bit tables for long-range coulomb (../kspace.cpp:328)
  G vector (1/distance) = 0.29916851
  grid = 40 240 40
  stencil order = 5
  estimated absolute RMS force accuracy = 0.00015502622
  estimated relative force accuracy = 1.0765975e-05
  using single precision MKL FFT
  3d grid and FFT values/proc = 18225 7600
Neighbor list info ...
  update every 1 steps, delay 0 steps, check yes
  max neighbors/atom: 2000, page size: 100000
  master list distance cutoff = 13
  ghost atom cutoff = 13
  binsize = 6.5, bins = 5 52 5
  2 neighbor lists, perpetual/occasional/extra = 2 0 0
  (1) pair coul/long, perpetual
      attributes: half, newton on
      pair build: half/bin/newton/tri
      stencil: half/bin/3d/newton/tri
      bin: standard
  (2) pair eam/alloy, perpetual, copy from (1)
      attributes: half, newton on
      pair build: copy
      stencil: none
      bin: none
Setting up cg style minimization ...
  Unit style    : metal
  Current step  : 0
WARNING: Energy due to 3 extra global DOFs will be included in minimizer energies
Per MPI rank memory allocation (min/avg/max) = 10.44 | 10.47 | 10.50 Mbytes
Step Temp E_pair E_mol TotEng Press Volume 
       0            0   -229811.44            0   -229811.44    25207.781    260443.57 
    1426            0   -234569.77            0   -234569.77    40.403578    267126.92 
Loop time of 22.326 on 52 procs for 1426 steps with 18000 atoms

99.8% CPU use with 52 MPI tasks x 1 OpenMP threads

Minimization stats:
  Stopping criterion = linesearch alpha is zero
  Energy initial, next-to-last, final = 
     -229811.442086565  -234569.772015576  -234569.772015576
  Force two-norm initial, final = 8485.6794 18.583881
  Force max component initial, final = 6065.9824 13.538249
  Final line search alpha, max atom move = 2.0063998e-11 2.7163140e-10
  Iterations, force evaluations = 1426 1973

MPI task timing breakdown:
Section |  min time  |  avg time  |  max time  |%varavg| %total
---------------------------------------------------------------
Pair    | 12.565     | 13.244     | 14.004     |  10.0 | 59.32
Bond    | 0.00017445 | 0.00026297 | 0.00043691 |   0.0 |  0.00
Kspace  | 3.0213     | 3.7834     | 4.4674     |  18.8 | 16.95
Neigh   | 0.028134   | 0.031952   | 0.035381   |   1.0 |  0.14
Comm    | 0.32086    | 0.33426    | 0.34925    |   1.2 |  1.50
Output  | 0          | 0          | 0          |   0.0 |  0.00
Modify  | 0          | 0          | 0          |   0.0 |  0.00
Other   |            | 4.932      |            |       | 22.09

Nlocal:        346.154 ave         387 max         311 min
Histogram: 1 4 9 8 10 6 7 3 0 4
Nghost:        5612.83 ave        5792 max        5436 min
Histogram: 5 5 6 2 5 10 5 7 5 2
Neighs:       110520.0 ave      124043 max       98631 min
Histogram: 2 2 8 10 9 7 8 2 1 3

Total # of neighbors = 5747056
Ave neighs/atom = 319.28089
Ave special neighs/atom = 0.0000000
Neighbor list builds = 8
Dangerous builds = 0
Resetting atom IDs ...
PPPM initialization ...
  using 12-bit tables for long-range coulomb (../kspace.cpp:328)
  G vector (1/distance) = 0.29876511
  grid = 40 240 40
  stencil order = 5
  estimated absolute RMS force accuracy = 0.00015797288
  estimated relative force accuracy = 1.0970609e-05
  using single precision MKL FFT
  3d grid and FFT values/proc = 18225 7600
Finding 1-2 1-3 1-4 neighbors ...
  special bond factors lj:    0.0      0.0      0.0     
  special bond factors coul:  0.0      0.0      0.0     
     0 = max # of 1-2 neighbors
     0 = max # of 1-3 neighbors
     0 = max # of 1-4 neighbors
     1 = max # of special neighbors
  special bonds CPU = 0.001 seconds
PPPM initialization ...
  using 12-bit tables for long-range coulomb (../kspace.cpp:328)
  G vector (1/distance) = 0.29876511
  grid = 40 240 40
  stencil order = 5
  estimated absolute RMS force accuracy = 0.00015797288
  estimated relative force accuracy = 1.0970609e-05
  using single precision MKL FFT
  3d grid and FFT values/proc = 18225 7600
Setting up Verlet run ...
  Unit style    : metal
  Current step  : 0
  Time step     : 0.001
Per MPI rank memory allocation (min/avg/max) = 10.59 | 10.62 | 10.64 Mbytes
Step Temp Dt Time Atoms TotEng KinEng PotEng Press v_latt 
       0         1200        0.001            0    18000   -231777.92     2791.864   -234569.78    11203.347    5.6261579 
   50000    1210.4113        0.001           50    18000   -230305.71    2816.0864    -233121.8    303.96423    5.6626259 
  100000    1198.8245        0.001          100    18000   -230334.28    2789.1291   -233123.41    186.04032        5.663 
Loop time of 877.091 on 52 procs for 100000 steps with 18000 atoms

Performance: 9.851 ns/day, 2.436 hours/ns, 114.013 timesteps/s
99.8% CPU use with 52 MPI tasks x 1 OpenMP threads

MPI task timing breakdown:
Section |  min time  |  avg time  |  max time  |%varavg| %total
---------------------------------------------------------------
Pair    | 544.03     | 554.67     | 570.13     |  28.5 | 63.24
Bond    | 0.0093906  | 0.014872   | 0.018804   |   1.8 |  0.00
Kspace  | 151.67     | 166.76     | 177.86     |  53.1 | 19.01
Neigh   | 10.796     | 11.316     | 12.14      |   8.9 |  1.29
Comm    | 17.418     | 17.848     | 18.173     |   4.2 |  2.03
Output  | 0.010035   | 0.010044   | 0.010361   |   0.0 |  0.00
Modify  | 112.56     | 118.27     | 122.23     |  23.9 | 13.48
Other   |            | 8.196      |            |       |  0.93

Nlocal:        346.154 ave         368 max         325 min
Histogram: 1 6 2 10 5 10 10 2 4 2
Nghost:        5512.75 ave        5659 max        5404 min
Histogram: 4 7 6 9 9 6 3 2 3 3
Neighs:       106728.0 ave      114195 max       98816 min
Histogram: 1 3 4 6 10 11 7 6 2 2

Total # of neighbors = 5549866
Ave neighs/atom = 308.32589
Ave special neighs/atom = 0.0000000
Neighbor list builds = 2783
Dangerous builds = 0
System init for write_data ...
PPPM initialization ...
  using 12-bit tables for long-range coulomb (../kspace.cpp:328)
  G vector (1/distance) = 0.29833259
  grid = 40 240 40
  stencil order = 5
  estimated absolute RMS force accuracy = 0.00016183919
  estimated relative force accuracy = 1.123911e-05
  using single precision MKL FFT
  3d grid and FFT values/proc = 18225 7600
Total wall time: 0:14:59
