LAMMPS (29 Oct 2020)
OMP_NUM_THREADS environment is not set. Defaulting to 1 thread. (../comm.cpp:94)
  using 1 OpenMP thread(s) per MPI task
OMP_NUM_THREADS environment is not set. Defaulting to 1 thread. (../comm.cpp:94)
  using 1 OpenMP thread(s) per MPI task
Reading data file ...
  triclinic box = (-0.12469166 -1.6087835 -0.13445885) to (28.018692 336.33678 28.028459) with tilt (0.0000000 0.0000000 0.0000000)
  2 by 13 by 2 MPI processor grid
  reading atoms ...
  18000 atoms
  reading velocities ...
  18000 velocities
Finding 1-2 1-3 1-4 neighbors ...
  special bond factors lj:    0.0      0.0      0.0     
  special bond factors coul:  0.0      0.0      0.0     
     0 = max # of 1-2 neighbors
     0 = max # of 1-3 neighbors
     0 = max # of 1-4 neighbors
     1 = max # of special neighbors
  special bonds CPU = 0.003 seconds
  read_data CPU = 0.071 seconds
Setting atom values ...
  12000 settings made for charge
Setting atom values ...
  6000 settings made for charge
PPPM initialization ...
  using 12-bit tables for long-range coulomb (../kspace.cpp:328)
  G vector (1/distance) = 0.29864643
  grid = 40 240 40
  stencil order = 5
  estimated absolute RMS force accuracy = 0.00015927021
  estimated relative force accuracy = 1.1060704e-05
  using single precision MKL FFT
  3d grid and FFT values/proc = 15000 7600
Neighbor list info ...
  update every 1 steps, delay 0 steps, check yes
  max neighbors/atom: 2000, page size: 100000
  master list distance cutoff = 11.3
  ghost atom cutoff = 11.3
  binsize = 5.65, bins = 5 60 5
  2 neighbor lists, perpetual/occasional/extra = 2 0 0
  (1) pair coul/long, perpetual
      attributes: half, newton on
      pair build: half/bin/newton/tri
      stencil: half/bin/3d/newton/tri
      bin: standard
  (2) pair eam/alloy, perpetual, copy from (1)
      attributes: half, newton on
      pair build: copy
      stencil: none
      bin: none
Setting up Verlet run ...
  Unit style    : metal
  Current step  : 0
  Time step     : 0.001
Per MPI rank memory allocation (min/avg/max) = 8.322 | 8.350 | 8.367 Mbytes
Step Temp E_pair E_mol TotEng Press 
       0          900   -234447.53            0   -232353.63     1577.642 
  100000    914.70703   -234458.73            0   -232330.61     1403.399 
Loop time of 703.71 on 52 procs for 100000 steps with 18000 atoms

Performance: 12.278 ns/day, 1.955 hours/ns, 142.104 timesteps/s
99.8% CPU use with 52 MPI tasks x 1 OpenMP threads

MPI task timing breakdown:
Section |  min time  |  avg time  |  max time  |%varavg| %total
---------------------------------------------------------------
Pair    | 455.11     | 462.95     | 474.32     |  23.5 | 65.79
Bond    | 0.0070608  | 0.010847   | 0.017957   |   2.1 |  0.00
Kspace  | 141.92     | 156.1      | 164.81     |  49.8 | 22.18
Neigh   | 57.291     | 59.86      | 65.213     |  26.0 |  8.51
Comm    | 18.476     | 20.346     | 22.882     |  24.2 |  2.89
Output  | 5.8104e-05 | 6.3128e-05 | 0.00026303 |   0.0 |  0.00
Modify  | 2.1562     | 3.0123     | 4.919      |  56.4 |  0.43
Other   |            | 1.428      |            |       |  0.20

Nlocal:        346.154 ave         372 max         323 min
Histogram: 1 3 3 11 14 7 7 4 0 2
Nghost:        4083.92 ave        4184 max        4006 min
Histogram: 5 7 5 9 6 7 3 4 4 2
Neighs:        69877.1 ave       75168 max       64622 min
Histogram: 1 1 3 12 13 6 9 4 1 2

Total # of neighbors = 3633610
Ave neighs/atom = 201.86722
Ave special neighs/atom = 0.0000000
Neighbor list builds = 19772
Dangerous builds = 0
12000 atoms in group oxygen
PPPM initialization ...
  using 12-bit tables for long-range coulomb (../kspace.cpp:328)
  G vector (1/distance) = 0.29864643
  grid = 40 240 40
  stencil order = 5
  estimated absolute RMS force accuracy = 0.00015927021
  estimated relative force accuracy = 1.1060704e-05
  using single precision MKL FFT
  3d grid and FFT values/proc = 15000 7600
Setting up Verlet run ...
  Unit style    : metal
  Current step  : 0
  Time step     : 0.001
Per MPI rank memory allocation (min/avg/max) = 8.572 | 8.600 | 8.618 Mbytes
Step f_2 Temp v_Tdiff v_deltaT 
       0            0    914.70703            0            0 
  100000    1011.8135    907.70714  0.031971067    371.18112 
  200000    1986.4389     904.3206   0.03681076     427.3695 
  300000    2962.8677    903.97719  0.036445664    423.13078 
  400000    3941.5625    909.59365  0.035998368     417.9377 
  500000    4911.8001    905.30439  0.036801298    427.25966 
  600000    5885.7261    913.79087  0.036945424    428.93294 
  700000    6857.3459    904.03552  0.036068859     418.7561 
  800000    7831.5825    905.00368  0.036000902    417.96713 
  900000    8807.7417    908.79012  0.037107234    430.81154 
 1000000    9777.5738    904.69901  0.036723257     426.3536 
 1100000    10748.266    905.52045  0.036125278    419.41112 
 1200000    11725.971    910.15223  0.036468068    423.39088 
 1300000    12703.589    905.39205  0.036049121    418.52695 
 1400000    13683.502     902.8798  0.036797023    427.21002 
 1500000     14664.74     908.4471  0.036470699    423.42143 
Loop time of 10537.3 on 52 procs for 1500000 steps with 18000 atoms

Performance: 12.299 ns/day, 1.951 hours/ns, 142.352 timesteps/s
99.8% CPU use with 52 MPI tasks x 1 OpenMP threads

MPI task timing breakdown:
Section |  min time  |  avg time  |  max time  |%varavg| %total
---------------------------------------------------------------
Pair    | 6802.5     | 6920.4     | 7121.3     | 104.4 | 65.68
Bond    | 0.1032     | 0.1628     | 0.28511    |   8.7 |  0.00
Kspace  | 2100.3     | 2340.4     | 2484.4     | 196.4 | 22.21
Neigh   | 883.5      | 920.32     | 996.21     |  85.2 |  8.73
Comm    | 278.93     | 305.76     | 341.17     |  87.5 |  2.90
Output  | 0.0015949  | 0.0017068  | 0.0034537  |   0.6 |  0.00
Modify  | 8.1646     | 8.9966     | 10.082     |  13.0 |  0.09
Other   |            | 41.24      |            |       |  0.39

Nlocal:        346.154 ave         364 max         335 min
Histogram: 8 7 5 6 8 9 3 3 1 2
Nghost:        4087.44 ave        4171 max        3992 min
Histogram: 2 6 3 7 5 5 4 11 5 4
Neighs:        69880.8 ave       73741 max       67455 min
Histogram: 7 7 6 7 7 8 6 1 2 1

Total # of neighbors = 3633804
Ave neighs/atom = 201.87800
Ave special neighs/atom = 0.0000000
Neighbor list builds = 302758
Dangerous builds = 0
Total wall time: 3:07:21
