LAMMPS (29 Oct 2020)
OMP_NUM_THREADS environment is not set. Defaulting to 1 thread. (../comm.cpp:94)
  using 1 OpenMP thread(s) per MPI task
OMP_NUM_THREADS environment is not set. Defaulting to 1 thread. (../comm.cpp:94)
  using 1 OpenMP thread(s) per MPI task
Reading data file ...
  orthogonal box = (-0.44971347 -5.1997764 -0.45068627) to (27.789713 333.27978 27.790686)
  2 by 13 by 2 MPI processor grid
  reading atoms ...
  17640 atoms
  reading velocities ...
  17640 velocities
Finding 1-2 1-3 1-4 neighbors ...
  special bond factors lj:    0.0      0.0      0.0     
  special bond factors coul:  0.0      0.0      0.0     
     0 = max # of 1-2 neighbors
     0 = max # of 1-3 neighbors
     0 = max # of 1-4 neighbors
     1 = max # of special neighbors
  special bonds CPU = 0.004 seconds
  read_data CPU = 0.070 seconds
Setting atom values ...
  11760 settings made for charge
Setting atom values ...
  5880 settings made for charge
PPPM initialization ...
  using 12-bit tables for long-range coulomb (../kspace.cpp:328)
  G vector (1/distance) = 0.29849029
  grid = 40 240 40
  stencil order = 5
  estimated absolute RMS force accuracy = 0.00015878258
  estimated relative force accuracy = 1.102684e-05
  using single precision MKL FFT
  3d grid and FFT values/proc = 15000 7600
Neighbor list info ...
  update every 1 steps, delay 0 steps, check yes
  max neighbors/atom: 2000, page size: 100000
  master list distance cutoff = 11.3
  ghost atom cutoff = 11.3
  binsize = 5.65, bins = 5 60 5
  2 neighbor lists, perpetual/occasional/extra = 2 0 0
  (1) pair coul/long, perpetual
      attributes: half, newton on
      pair build: half/bin/newton
      stencil: half/bin/3d/newton
      bin: standard
  (2) pair eam/alloy, perpetual, copy from (1)
      attributes: half, newton on
      pair build: copy
      stencil: none
      bin: none
Setting up Verlet run ...
  Unit style    : metal
  Current step  : 0
  Time step     : 0.001
Per MPI rank memory allocation (min/avg/max) = 8.147 | 8.169 | 8.183 Mbytes
Step Temp E_pair E_mol TotEng Press 
       0         1200   -228949.72            0   -226213.69   -1326.5845 
   50000    1206.0838   -228983.26            0   -226233.37   -1770.3185 
Loop time of 335.064 on 52 procs for 50000 steps with 17640 atoms

Performance: 12.893 ns/day, 1.861 hours/ns, 149.225 timesteps/s
99.8% CPU use with 52 MPI tasks x 1 OpenMP threads

MPI task timing breakdown:
Section |  min time  |  avg time  |  max time  |%varavg| %total
---------------------------------------------------------------
Pair    | 217.13     | 223.91     | 229.64     |  25.0 | 66.83
Bond    | 0.0032264  | 0.004828   | 0.0074072  |   1.3 |  0.00
Kspace  | 69.082     | 76.498     | 84.192     |  54.6 | 22.83
Neigh   | 20.303     | 22.495     | 24.512     |  27.4 |  6.71
Comm    | 8.5706     | 9.8233     | 11.154     |  18.3 |  2.93
Output  | 5.9054e-05 | 6.4278e-05 | 0.00026542 |   0.0 |  0.00
Modify  | 1.192      | 1.5854     | 2.4203     |  34.2 |  0.47
Other   |            | 0.7462     |            |       |  0.22

Nlocal:        339.231 ave         365 max         318 min
Histogram: 7 5 8 2 3 7 10 6 1 3
Nghost:        3974.87 ave        4068 max        3895 min
Histogram: 2 9 8 9 2 3 6 5 6 2
Neighs:        67217.5 ave       73257 max       60000 min
Histogram: 5 5 2 5 5 3 5 13 5 4

Total # of neighbors = 3495309
Ave neighs/atom = 198.14677
Ave special neighs/atom = 0.0000000
Neighbor list builds = 11013
Dangerous builds = 0
11760 atoms in group oxygen
PPPM initialization ...
  using 12-bit tables for long-range coulomb (../kspace.cpp:328)
  G vector (1/distance) = 0.29849029
  grid = 40 240 40
  stencil order = 5
  estimated absolute RMS force accuracy = 0.00015878258
  estimated relative force accuracy = 1.102684e-05
  using single precision MKL FFT
  3d grid and FFT values/proc = 15000 7600
Setting up Verlet run ...
  Unit style    : metal
  Current step  : 0
  Time step     : 0.001
Per MPI rank memory allocation (min/avg/max) = 8.397 | 8.419 | 8.434 Mbytes
Step f_2 Temp v_Tdiff v_deltaT 
       0            0    1206.0838            0            0 
  100000    1310.0094    1198.5309  0.050075771    581.37506 
  200000    2546.9839    1203.2798  0.057852571    671.66298 
  300000    3792.3298    1214.8448  0.058197342    675.66573 
  400000    5032.7782    1209.5728  0.057878926    671.96895 
  500000     6273.522    1200.1466  0.057690276    669.77875 
  600000     7516.163    1202.0296  0.059223792    687.58272 
  700000     8761.463    1205.6619  0.058736725    681.92792 
  800000    10010.174    1211.6548  0.057748336    670.45281 
  900000    11261.858    1211.2522  0.058896793    683.78629 
 1000000    12505.395    1216.4905  0.059572858    691.63534 
Loop time of 6704.77 on 52 procs for 1000000 steps with 17640 atoms

Performance: 12.886 ns/day, 1.862 hours/ns, 149.148 timesteps/s
99.8% CPU use with 52 MPI tasks x 1 OpenMP threads

MPI task timing breakdown:
Section |  min time  |  avg time  |  max time  |%varavg| %total
---------------------------------------------------------------
Pair    | 4264.3     | 4422.8     | 4614.6     | 121.1 | 65.97
Bond    | 0.062313   | 0.096228   | 0.14627    |   5.3 |  0.00
Kspace  | 1331.6     | 1558.9     | 1739.7     | 234.6 | 23.25
Neigh   | 440.84     | 485.68     | 530.81     | 106.1 |  7.24
Comm    | 181.33     | 201.15     | 230.65     |  82.1 |  3.00
Output  | 0.0010925  | 0.0011553  | 0.0023056  |   0.5 |  0.00
Modify  | 5.5756     | 6.5374     | 7.6313     |  20.1 |  0.10
Other   |            | 29.57      |            |       |  0.44

Nlocal:        339.231 ave         368 max         315 min
Histogram: 2 5 4 8 11 9 8 3 1 1
Nghost:        3977.62 ave        4097 max        3895 min
Histogram: 3 10 9 6 5 3 7 7 1 1
Neighs:        67206.3 ave       73842 max       58887 min
Histogram: 2 2 1 9 6 5 13 8 5 1

Total # of neighbors = 3494729
Ave neighs/atom = 198.11389
Ave special neighs/atom = 0.0000000
Neighbor list builds = 236763
Dangerous builds = 0
Total wall time: 1:57:20
