LAMMPS data file via write_data, version 29 Oct 2020, timestep = 100000

18000 atoms
8 atom types

-0.13856801032468768 28.0325680103238 xlo xhi
-1.4981504740475797 336.2261504740498 ylo yhi
-0.1385245675410615 28.0325245675413 zlo zhi
0.0 0.0 0.0 xy xz yz

Masses

1 15.9994
2 232.0381
3 15.9994
4 232.0381
5 15.9994
6 232.0381
7 15.9994
8 232.0381

Atoms # full

669 0 2 2.2208 2.5066482348254397 18.357429717455318 -0.05442363314253121 0 0 0
325 0 2 2.2208 5.361730287745769 4.168190033135483 -0.02168270662786574 0 0 0
9032 0 2 2.2208 13.922806159294383 -1.3680967599159397 8.275009587878792 0 0 0
4 0 1 -1.1104 12.39924527378042 22.496150463772118 12.461967082725199 0 0 0
8988 0 2 2.2208 0.0174240905997577 12.825077543085378 8.394683053229175 0 0 0
324 0 1 -1.1104 12.51906960242218 5.4280358994435405 12.727836418987456 0 0 0
3 0 2 2.2208 2.4638309707759642 -1.4311439033819935 2.760370512911215 0 0 0
8 0 2 2.2208 5.360741167154866 1.2493150159298012 2.5317911600165366 0 0 0
9 0 1 -1.1104 12.58081839331052 8.336399865418034 12.499981675098478 0 0 0
10 0 2 2.2208 11.1732565792277 1.4399864919438765 2.766828454282079 0 0 0
11 0 1 -1.1104 9.658985490846057 22.43915238967873 12.595971992163792 0 0 0
8992 0 2 2.2208 13.83121009848687 4.117683399692682 2.728131639756072 0 0 0
13 0 2 2.2208 2.638942021690863 4.247019268188078 2.6686785591757074 0 0 0
14 0 1 -1.1104 6.547032214217936 22.606852914994576 12.617432881756848 0 0 0
15 0 2 2.2208 13.921522089410107 15.488204771794337 2.8619928469187244 0 0 0
670 0 2 2.2208 5.5687183865528604 15.533302076653829 -0.06131470714338219 0 0 0
17 0 2 2.2208 8.240419236343755 4.08548353273633 2.804306300108619 0 0 0
18 0 2 2.2208 5.450079998667993 7.066152446547979 2.7717332593273265 0 0 0
666 0 2 2.2208 2.6629702053390982 12.707070802060567 -0.0499241849760581 0 0 0
20 0 2 2.2208 11.2148859293349 6.957994008117105 2.69372697927525 0 0 0
21 0 1 -1.1104 3.871182631586566 22.513698251841333 12.428411342992305 0 0 0
22 0 1 -1.1104 1.3527607927265592 16.93607603892425 12.951588545182766 0 0 0
23 0 2 2.2208 2.538638415975664 9.956367784229924 2.681868091605011 0 0 0
323 0 1 -1.1104 9.904168834039767 8.486789283427624 12.625854949109343 0 0 0
25 0 2 2.2208 5.594643717548195 9.835929023158057 -0.02639256381258918 0 0 0
53 0 2 2.2208 2.549310851870806 -1.4249086335028023 8.21913514489829 0 0 0
27 0 2 2.2208 8.381118702352204 9.794485828438987 2.617357491398979 0 0 0
28 0 2 2.2208 5.4880936467817705 12.694778870972016 2.6147905383791756 0 0 0
9081 0 2 2.2208 13.935926096120197 1.1906336021553237 11.161725447594812 0 0 0
30 0 2 2.2208 11.193759545360926 12.852223393036606 2.598633300968474 0 0 0
31 0 1 -1.1104 12.33684844883388 13.971330215499268 12.618009449169488 0 0 0
32 0 1 -1.1104 12.511975573892473 11.2864263253441 12.34461482633008 0 0 0
33 0 2 2.2208 2.6909551306801136 15.434291169603387 2.7580019785479224 0 0 0
322 0 1 -1.1104 7.067954992477291 8.310632053894825 12.613716501931394 0 0 0
35 0 1 -1.1104 9.618824166629913 14.009950887892185 12.626503881871992 0 0 0
36 0 1 -1.1104 6.931019208693861 14.086833687760866 12.684061202836082 0 0 0
37 0 2 2.2208 8.302858212240732 15.466787002400128 2.8747125946765784 0 0 0
38 0 2 2.2208 5.417935817332509 18.312689789689564 2.736314861863785 0 0 0
39 0 1 -1.1104 9.674803282318374 11.214777525166067 12.68044633912426 0 0 0
40 0 2 2.2208 11.14973394833433 18.22653283836072 2.712572929566357 0 0 0
41 0 1 -1.1104 6.956474998720451 11.119298026122031 12.833742578496881 0 0 0
42 0 1 -1.1104 4.079777724301034 14.14221678497606 12.698511313455695 0 0 0
43 0 2 2.2208 2.6987329373774456 21.232866760008733 2.792773741813853 0 0 0
321 0 1 -1.1104 9.71430543781633 5.497490236689875 12.666530764634677 0 0 0
45 0 1 -1.1104 1.1320203741239971 14.004212970260273 12.621065647470475 0 0 0
46 0 1 -1.1104 4.031519165743222 11.243174592609304 12.900683462257104 0 0 0
47 0 2 2.2208 8.200093543342122 20.790985906608324 2.72680345501921 0 0 0
48 0 2 2.2208 5.552941627407044 23.867493703916438 2.917886695118427 0 0 0
49 0 1 -1.1104 1.2903575545468482 11.037628256806567 12.911830713096208 0 0 0
50 0 2 2.2208 11.026040529044122 23.703129345863033 2.8328638564590256 0 0 0
51 0 1 -1.1104 1.3597466444677468 22.430567699103424 12.667491023543784 0 0 0
52 0 2 2.2208 2.658844041202314 1.3225319855913356 5.381653948416206 0 0 0
8993 0 2 2.2208 0.015094708219686961 9.760150564860547 5.582218639562275 0 0 0
54 0 1 -1.1104 12.378544990076294 19.697095410099788 12.556516175560494 0 0 0
675 0 2 2.2208 5.471851392732592 20.907989531621354 -0.06080079957237726 0 0 0
56 0 2 2.2208 8.332498692357612 1.3289062090704489 5.52258554689375 0 0 0
374 0 2 2.2208 11.094221539086083 20.962353406794414 0.04861481203693647 0 0 0
58 0 2 2.2208 5.1631097866405575 1.2829745483334478 8.33110260005804 0 0 0
9101 0 2 2.2208 13.82943943580133 23.80655520832991 11.291707530567509 0 0 0
60 0 2 2.2208 11.13592045681949 1.2819745044455115 8.41472538052252 0 0 0
61 0 1 -1.1104 12.506032932953975 16.799357476462234 12.585038221920964 0 0 0
62 0 2 2.2208 2.685980114615705 7.073015042821829 5.526017775555481 0 0 0
63 0 2 2.2208 2.6746575799651247 4.1962357392559335 8.154026608531142 0 0 0
64 0 1 -1.1104 9.59443677519267 19.675681906029563 12.449274740053742 0 0 0
65 0 2 2.2208 5.521188249616117 4.142663039541851 5.5993607149587925 0 0 0
66 0 2 2.2208 8.374311349767906 7.04411517098369 5.628381949722077 0 0 0
67 0 2 2.2208 8.321674686177671 4.197814050365459 8.215976524953385 0 0 0
68 0 2 2.2208 5.500848777314475 7.025898892222941 8.404724263152909 0 0 0
69 0 2 2.2208 11.121796031146223 3.938307301426054 5.525060997864312 0 0 0
70 0 2 2.2208 11.195345249262386 6.915362165552641 8.267430428813737 0 0 0
71 0 1 -1.1104 6.841231644060156 19.881520914641236 12.705398452155313 0 0 0
72 0 2 2.2208 2.7629790258333893 12.590858024776807 5.571811367798827 0 0 0
73 0 2 2.2208 2.833705412826961 9.621385464639316 8.422429593200638 0 0 0
74 0 1 -1.1104 9.59012855896555 16.895663338444205 12.611382728431392 0 0 0
75 0 2 2.2208 5.53517874008429 9.89883196397275 5.503336864827166 0 0 0
76 0 2 2.2208 8.35779951859851 12.576680960663767 5.474059469580061 0 0 0
77 0 2 2.2208 8.421917807697938 9.70222548347914 8.500694578254526 0 0 0
78 0 2 2.2208 5.623352017044862 12.554538221765796 8.36399085015594 0 0 0
79 0 2 2.2208 11.193951185873418 9.758369210301774 5.396197452899799 0 0 0
80 0 2 2.2208 11.150453330553756 12.641944627234494 8.292382824703404 0 0 0
55 0 2 2.2208 5.4485673091927485 -1.4570740506013689 5.572397919083031 0 0 0
82 0 2 2.2208 2.7657391589146525 18.32040253927941 5.654559465369808 0 0 0
83 0 2 2.2208 2.773361398580047 15.424617453656953 8.409208477073884 0 0 0
320 0 1 -1.1104 6.949342136477856 5.517877253057902 12.53616053935302 0 0 0
85 0 2 2.2208 5.475404429031406 15.286441685235053 5.455301181877148 0 0 0
86 0 2 2.2208 8.23450676717548 18.16507973267059 5.6968991407153995 0 0 0
87 0 2 2.2208 8.22570442142922 15.330620143125849 8.421199392922325 0 0 0
88 0 2 2.2208 5.4274653216956334 18.197678947008598 8.377954545008668 0 0 0
89 0 2 2.2208 11.076956762879595 15.311980366606095 5.644401221277243 0 0 0
90 0 2 2.2208 10.997717989698067 18.209820740210624 8.36542776613255 0 0 0
665 0 2 2.2208 13.887531740101128 23.916824574770313 0.03569178166641428 0 0 0
92 0 2 2.2208 2.7271582273945754 23.943175102965977 5.522945663120537 0 0 0
93 0 2 2.2208 2.5245888331802866 21.09234738062521 8.574480905799412 0 0 0
319 0 1 -1.1104 4.227231005070925 8.27818855946676 12.594558098378178 0 0 0
95 0 2 2.2208 5.36636990912151 21.069106958703145 5.593455318371518 0 0 0
96 0 2 2.2208 8.13952603966213 23.97486252966963 5.743963998765956 0 0 0
97 0 2 2.2208 8.16517767954112 21.037453947567933 8.310222341232423 0 0 0
98 0 2 2.2208 5.260402243133275 23.96229522093366 8.457219853303275 0 0 0
99 0 2 2.2208 11.107594676435548 21.05577494723448 5.521629891367119 0 0 0
100 0 2 2.2208 11.11348528315418 23.61256421155069 8.32781470740533 0 0 0
101 0 1 -1.1104 6.875988386672037 16.95698254832991 12.717449730433865 0 0 0
102 0 2 2.2208 2.680306182909278 1.3477414955985536 11.009924730137527 0 0 0
103 0 2 2.2208 5.271618773883052 -1.4888349951574469 11.341331667586541 0 0 0
104 0 2 2.2208 8.221478288946441 1.5520155538133094 11.15679308703675 0 0 0
19 0 2 2.2208 11.130576729883925 4.30441866693857 -0.09463020418622743 0 0 0
106 0 1 -1.1104 4.045434024228742 19.707314989970016 12.788478786285367 0 0 0
107 0 2 2.2208 2.6938325579683693 6.902833280097938 11.227721180151152 0 0 0
108 0 2 2.2208 5.464213155524996 4.111521405524983 11.070540418738128 0 0 0
109 0 2 2.2208 8.551584137407236 7.011616590225832 11.217736652482946 0 0 0
110 0 2 2.2208 11.235421793301509 4.017513417558847 11.258158081590214 0 0 0
111 0 1 -1.1104 1.1999443322845535 19.631896376295593 12.677711477958386 0 0 0
112 0 2 2.2208 2.606790451453292 12.768290907061903 11.282012799609234 0 0 0
113 0 2 2.2208 5.6604159844212205 9.826628416267162 11.281768050031841 0 0 0
114 0 2 2.2208 8.306735683770327 12.62259144119867 11.409937093990843 0 0 0
115 0 2 2.2208 11.23985810320526 9.856954906903566 11.015782172313198 0 0 0
116 0 1 -1.1104 4.225570604542268 16.884187719532214 12.533536327808022 0 0 0
117 0 2 2.2208 2.832783462963079 18.305417010375272 11.478584201573183 0 0 0
118 0 2 2.2208 5.385374518656305 15.469373060724307 11.338734814057329 0 0 0
119 0 2 2.2208 8.095517395057415 18.359622756020787 11.180434257804144 0 0 0
120 0 2 2.2208 11.023951460308211 15.55199800477898 11.22960988283243 0 0 0
318 0 1 -1.1104 1.5001741589394821 8.19903155409191 12.748459951236622 0 0 0
122 0 2 2.2208 2.619964783578726 23.89976086330778 11.246390158687252 0 0 0
123 0 2 2.2208 5.396388192078074 21.274042650436655 11.272167748959603 0 0 0
124 0 2 2.2208 8.224719851414829 23.957650731548128 11.33563804879625 0 0 0
125 0 2 2.2208 10.873685250392663 21.07962515954357 11.120098778679013 0 0 0
126 0 1 -1.1104 1.0925125482664109 -0.05456811225409524 1.1055859909996222 0 0 0
127 0 1 -1.1104 3.711390978866792 -0.0971952277336836 1.3473657574801925 0 0 0
128 0 1 -1.1104 1.2135148932035438 -0.0029174091778843233 4.036696076396072 0 0 0
129 0 1 -1.1104 3.9398459620563346 -0.28504927922631973 4.0859759998507466 0 0 0
130 0 1 -1.1104 1.2919287787925884 2.6994446872361295 1.3712721661474272 0 0 0
131 0 1 -1.1104 4.080898419173796 2.7982551998161913 1.421818969545511 0 0 0
132 0 1 -1.1104 1.227900832157215 2.9379121027481743 4.068111881596653 0 0 0
133 0 1 -1.1104 4.147080057563522 2.5620464500183897 4.163897006922097 0 0 0
134 0 1 -1.1104 6.676364912240868 -0.14539091071977567 1.4424565853001583 0 0 0
135 0 1 -1.1104 9.622267687729703 -0.2643694223411721 1.2455805228219825 0 0 0
136 0 1 -1.1104 6.9219271846121995 0.05145881057762767 4.346416087717491 0 0 0
137 0 1 -1.1104 9.630558908286492 -0.3348121772752315 4.222657987845997 0 0 0
138 0 1 -1.1104 6.904673218339565 2.7065659786399174 1.4665595424957791 0 0 0
139 0 1 -1.1104 9.789171077697143 2.699152969855355 1.3441581107884455 0 0 0
140 0 1 -1.1104 6.830056309339289 2.8025524449378336 4.2511800870407015 0 0 0
141 0 1 -1.1104 9.662224334991468 2.5222318885264565 4.263088090361992 0 0 0
142 0 1 -1.1104 12.5825896418571 0.014527037123786049 1.3306723482842908 0 0 0
143 0 1 -1.1104 12.364115991536092 -0.22949538038294978 4.03744452111195 0 0 0
144 0 1 -1.1104 12.527172219787513 2.6425397193764475 1.3430942028269732 0 0 0
145 0 1 -1.1104 12.513354238654971 2.6812137531642 4.200157631030714 0 0 0
146 0 1 -1.1104 1.1344069446550276 5.420060633340791 1.26314760858995 0 0 0
147 0 1 -1.1104 4.061005133657579 5.617315737724402 1.274753177920488 0 0 0
148 0 1 -1.1104 1.2842083875940327 5.793030095483056 4.152569534390016 0 0 0
149 0 1 -1.1104 4.0506443728211 5.541151317108415 4.0802440507853355 0 0 0
150 0 1 -1.1104 1.196426303603608 8.47393466457787 1.3370722552719594 0 0 0
151 0 1 -1.1104 3.8270285057051496 8.572459687415336 1.279035873525703 0 0 0
152 0 1 -1.1104 1.1675820391086351 8.52516845108011 4.050055374681715 0 0 0
153 0 1 -1.1104 4.0579725776583455 8.54600881391277 4.237914710888538 0 0 0
154 0 1 -1.1104 6.851065681804711 5.414821347918071 1.2424764600465947 0 0 0
155 0 1 -1.1104 9.711191785575412 5.516056189108691 1.486084329106846 0 0 0
156 0 1 -1.1104 6.922102316098701 5.621297927896281 4.119805618051821 0 0 0
157 0 1 -1.1104 9.842767659762313 5.291387166394298 4.059889690203224 0 0 0
158 0 1 -1.1104 6.872426715926769 8.379881265744928 1.3741406836198686 0 0 0
159 0 1 -1.1104 9.649945843076493 8.337432906243606 1.2083576096713418 0 0 0
160 0 1 -1.1104 6.893382181266264 8.32812362767751 4.287188862695262 0 0 0
161 0 1 -1.1104 9.733915516627555 8.098475932033555 4.068282827092507 0 0 0
162 0 1 -1.1104 12.608430484983241 5.383092833840038 1.3298160213200911 0 0 0
163 0 1 -1.1104 12.559741513149973 5.495291457565452 4.161242003470187 0 0 0
164 0 1 -1.1104 12.33155162580018 8.244618627145597 1.270602046033771 0 0 0
165 0 1 -1.1104 12.707624985313615 8.452296630173343 4.107174544926685 0 0 0
166 0 1 -1.1104 1.2744095430686337 11.471412062034638 1.3387411788535313 0 0 0
167 0 1 -1.1104 4.076015176897496 11.208505500440719 1.3826244706678716 0 0 0
168 0 1 -1.1104 1.2672271973529299 11.27278890321618 4.208892714623613 0 0 0
169 0 1 -1.1104 4.000366450526797 11.222189192399641 3.9650461741566407 0 0 0
170 0 1 -1.1104 1.1481718375940944 14.113010498470238 1.437533468107478 0 0 0
171 0 1 -1.1104 3.9719788154173434 13.970679123459803 1.1303123876760601 0 0 0
172 0 1 -1.1104 1.3895634211435588 13.886761346951427 4.224476644556786 0 0 0
173 0 1 -1.1104 4.089125372698173 13.9322396285758 4.193463348815827 0 0 0
174 0 1 -1.1104 6.915707070494657 11.20726003028333 1.2723723923060715 0 0 0
175 0 1 -1.1104 9.748619421947096 11.343699669123051 1.261757274091514 0 0 0
176 0 1 -1.1104 7.07068122167573 11.101672804290693 4.048484908551999 0 0 0
177 0 1 -1.1104 9.795651925364817 10.980258664005364 4.173135955154968 0 0 0
178 0 1 -1.1104 6.845144918028873 13.97180008338005 1.3167533935100841 0 0 0
179 0 1 -1.1104 9.794452428615202 13.964461367063898 1.1807833755406116 0 0 0
180 0 1 -1.1104 6.776542448107651 14.026987925964317 4.090521912427165 0 0 0
181 0 1 -1.1104 9.662696455177086 13.923591623730633 4.201446403787937 0 0 0
182 0 1 -1.1104 12.409297391048469 11.169851246141803 1.2689725586050267 0 0 0
183 0 1 -1.1104 12.461126611869904 11.26105519564203 4.105428053406985 0 0 0
184 0 1 -1.1104 12.537446198692027 14.062411078807827 1.2828361191425055 0 0 0
185 0 1 -1.1104 12.694834800316544 13.92733395442309 4.141087810764393 0 0 0
186 0 1 -1.1104 1.3422377828084466 16.950332304140716 1.5237852993682088 0 0 0
187 0 1 -1.1104 4.057372511372882 16.802822084063845 1.42770068219893 0 0 0
188 0 1 -1.1104 1.36069497024139 16.87330640991928 4.354602938151043 0 0 0
189 0 1 -1.1104 4.022204245622839 16.78834827127853 4.093845782245834 0 0 0
190 0 1 -1.1104 1.4202846826513567 19.72071357599293 1.3597283435054628 0 0 0
191 0 1 -1.1104 4.088141593908736 19.576973441169486 1.3256736348972646 0 0 0
192 0 1 -1.1104 1.5812693651262306 19.649388304562223 4.205383429848827 0 0 0
193 0 1 -1.1104 4.361510478737601 19.605078947183436 4.364889196022896 0 0 0
194 0 1 -1.1104 7.004394508680462 16.748758540039226 1.4286240877680023 0 0 0
195 0 1 -1.1104 9.749074067619443 16.669164465556104 1.151560144273609 0 0 0
196 0 1 -1.1104 6.850578605118121 16.62657230880758 4.04412953666714 0 0 0
197 0 1 -1.1104 9.751282290176514 16.71312270058527 4.166738240156863 0 0 0
198 0 1 -1.1104 6.834929572556238 19.639211719811108 1.3028799399349769 0 0 0
199 0 1 -1.1104 9.69978450063858 19.406495470777003 1.164454617864225 0 0 0
200 0 1 -1.1104 6.8937417643141865 19.392508883085956 4.239209978385138 0 0 0
201 0 1 -1.1104 9.551069104736065 19.397399829789062 4.079654680736642 0 0 0
202 0 1 -1.1104 12.722128222956082 16.946845627231948 1.3062210247329822 0 0 0
203 0 1 -1.1104 12.476368303636756 16.709092319249407 4.111782514147621 0 0 0
204 0 1 -1.1104 12.488433537434625 19.767851269573775 1.4375640376653174 0 0 0
205 0 1 -1.1104 12.52615262167652 19.577825092907304 4.1241766978592755 0 0 0
206 0 1 -1.1104 1.0997076245821427 22.53621040057488 1.4054556898976593 0 0 0
207 0 1 -1.1104 4.061853313786279 22.3367896470161 1.6104564865953526 0 0 0
208 0 1 -1.1104 1.2358782976368239 22.464052535299114 4.256861108735458 0 0 0
209 0 1 -1.1104 4.140452809037879 22.439888977601132 4.30866734582232 0 0 0
210 0 1 -1.1104 6.846947684244074 22.46471186356254 1.5174516673592393 0 0 0
211 0 1 -1.1104 9.641514771902909 22.128023041213883 1.5031230395930781 0 0 0
212 0 1 -1.1104 6.890627662226432 22.396936343269406 4.2463705006239625 0 0 0
213 0 1 -1.1104 9.633863139132734 22.221704815999164 4.343683251760365 0 0 0
214 0 1 -1.1104 12.469359671925544 22.616007555972313 1.3723934222313232 0 0 0
215 0 1 -1.1104 12.433329120714996 22.520297060284406 4.2189055126178925 0 0 0
216 0 1 -1.1104 1.1041971913972002 -0.09603537463128992 6.846077301850899 0 0 0
217 0 1 -1.1104 3.924211679764692 -0.012036097932695628 6.7253701418956275 0 0 0
218 0 1 -1.1104 1.3200900537346498 -0.11416952947655117 9.625379891415387 0 0 0
8997 0 2 2.2208 -0.0687545331771067 4.125397701636045 5.369329489584022 0 0 0
220 0 1 -1.1104 1.2086527486315244 2.5756580660608543 6.8367428289463765 0 0 0
221 0 1 -1.1104 3.9730209488871298 2.7398083829589965 6.947790099781531 0 0 0
222 0 1 -1.1104 1.1524779070425772 2.7744168403200202 9.533714170313385 0 0 0
223 0 1 -1.1104 3.9468259454124475 2.885231802234053 9.673663221560977 0 0 0
224 0 1 -1.1104 6.669127586556258 -0.2714826314220978 7.442042868631281 0 0 0
225 0 1 -1.1104 9.72288032041743 0.07502653205782576 6.948445338114458 0 0 0
226 0 1 -1.1104 4.222315946555116 0.0730020350283838 9.9828512667679 0 0 0
227 0 1 -1.1104 9.30678884069417 -0.1955972439371441 9.804309898320277 0 0 0
228 0 1 -1.1104 6.852105053865618 2.6265945770314447 7.030746088060404 0 0 0
229 0 1 -1.1104 9.726075900666771 2.810482551568458 7.125974148721659 0 0 0
230 0 1 -1.1104 6.499847085681621 2.323714194180245 9.894541953520932 0 0 0
231 0 1 -1.1104 9.545279605644044 2.8214854163993484 9.774972300962117 0 0 0
232 0 1 -1.1104 12.446483859423148 -0.0994582860504798 7.181215228465803 0 0 0
233 0 1 -1.1104 12.3753581923722 -0.1687181901990104 9.841296295285524 0 0 0
234 0 1 -1.1104 12.632010201410267 2.7077947503914794 7.056841498680704 0 0 0
235 0 1 -1.1104 12.638786919242907 2.579269952617535 9.901631998346957 0 0 0
236 0 1 -1.1104 1.330890162777964 5.488139643076663 6.8061648243596355 0 0 0
237 0 1 -1.1104 4.119029526174707 5.680606889337983 6.925357926117845 0 0 0
238 0 1 -1.1104 1.3183783242886398 5.467812618659686 9.660176907319883 0 0 0
239 0 1 -1.1104 4.043326620354037 5.558169288301993 9.717475364796474 0 0 0
240 0 1 -1.1104 1.3635025377330827 8.203119046184026 6.886945917766991 0 0 0
241 0 1 -1.1104 4.150541437877122 8.447163782348785 7.0671117985920855 0 0 0
242 0 1 -1.1104 1.2402754243531773 8.12417678349128 9.82477846186049 0 0 0
243 0 1 -1.1104 4.1033362296093365 8.282472634977815 9.934463424598189 0 0 0
244 0 1 -1.1104 6.879583090036575 5.594270527950787 6.85747267603043 0 0 0
245 0 1 -1.1104 9.82483231225604 5.520826473293849 6.916149160702166 0 0 0
246 0 1 -1.1104 6.767427919836186 5.393363579902727 9.578100355212234 0 0 0
247 0 1 -1.1104 9.700527068752974 5.579608641272308 9.651615691775065 0 0 0
248 0 1 -1.1104 6.861601212809009 8.356069811915738 7.147091860886792 0 0 0
249 0 1 -1.1104 9.84822440534539 8.382488506537646 6.953774625272975 0 0 0
250 0 1 -1.1104 7.154263984969461 8.226381156009078 9.860736490493776 0 0 0
251 0 1 -1.1104 9.891840759713654 8.431264510232683 9.798929930440565 0 0 0
252 0 1 -1.1104 12.61232280892586 5.383715018195516 7.003189266028697 0 0 0
253 0 1 -1.1104 12.492493971712515 5.319858918625862 9.81612938178283 0 0 0
254 0 1 -1.1104 12.60792091907249 8.255924334042014 6.8382848307759145 0 0 0
255 0 1 -1.1104 12.552631273844206 8.271194701690277 9.820672605100805 0 0 0
256 0 1 -1.1104 1.269037559593736 11.185135289458797 7.084888600670645 0 0 0
257 0 1 -1.1104 4.256651693713062 11.330810210855006 6.749559428827932 0 0 0
258 0 1 -1.1104 1.6562063335491533 11.145817202830395 9.851202586304824 0 0 0
259 0 1 -1.1104 4.382731762084143 11.161560995769992 9.710809797185512 0 0 0
260 0 1 -1.1104 1.4510214018919185 14.192045615900742 6.900005053352776 0 0 0
261 0 1 -1.1104 4.119796741402052 14.005349275840828 6.98242961371513 0 0 0
262 0 1 -1.1104 1.3628523294091621 14.144276502461274 9.700825154857126 0 0 0
263 0 1 -1.1104 4.032368750071465 13.973107690683623 9.90216364564566 0 0 0
264 0 1 -1.1104 7.142176878893041 11.153797612457774 6.858790688013058 0 0 0
265 0 1 -1.1104 10.059704600324261 11.283262723498865 6.883623129982714 0 0 0
266 0 1 -1.1104 7.154496176104461 11.095255742815457 9.78813545383609 0 0 0
267 0 1 -1.1104 9.820623047944443 11.326840984723663 9.855690879898347 0 0 0
268 0 1 -1.1104 6.923709679330106 13.898137106508543 6.897677281905222 0 0 0
269 0 1 -1.1104 9.636375258806227 13.93697118869986 6.99416962675717 0 0 0
270 0 1 -1.1104 6.848319868374845 14.014880088052681 9.810769633135921 0 0 0
271 0 1 -1.1104 9.692043394483226 13.88190778432902 9.838542862948165 0 0 0
272 0 1 -1.1104 12.856108851684422 11.03789393272615 6.790298386149866 0 0 0
273 0 1 -1.1104 12.625924121489916 11.106684012285697 9.47777262713176 0 0 0
274 0 1 -1.1104 12.614305297069777 13.958377287003973 6.903638179111885 0 0 0
275 0 1 -1.1104 12.416332852621476 14.064608035594837 9.58722050788417 0 0 0
276 0 1 -1.1104 1.1180244566253361 16.800837204428625 7.024836016770135 0 0 0
277 0 1 -1.1104 4.224903567582918 16.94247007778917 6.928833906815587 0 0 0
278 0 1 -1.1104 1.1478357397143002 16.742534697873683 9.888264683416715 0 0 0
279 0 1 -1.1104 4.131503054966134 16.787302339459437 9.91836359894386 0 0 0
280 0 1 -1.1104 1.3100240046962492 19.62073004187759 7.093489857742511 0 0 0
281 0 1 -1.1104 4.054381146847815 19.765223854148733 7.044110453753396 0 0 0
282 0 1 -1.1104 1.3479101475855553 19.57041817524739 10.057515085644827 0 0 0
283 0 1 -1.1104 4.000093760594549 19.60811442023365 9.84119054880108 0 0 0
284 0 1 -1.1104 6.898306739974841 16.608364869410916 6.888174875960842 0 0 0
285 0 1 -1.1104 9.80908486068008 16.711267694453053 7.047945929301495 0 0 0
286 0 1 -1.1104 6.894370571153561 16.892605081759896 9.656289626713674 0 0 0
287 0 1 -1.1104 9.582949495569904 16.9021221033885 9.762190096533786 0 0 0
288 0 1 -1.1104 6.973258381832578 19.56792652883062 7.058280345567996 0 0 0
289 0 1 -1.1104 9.763360239661887 19.64400014831676 6.923668361461636 0 0 0
290 0 1 -1.1104 6.675090244923396 19.670561228088957 9.83885170169598 0 0 0
291 0 1 -1.1104 9.497973975706584 19.625041804322315 9.8356610209117 0 0 0
292 0 1 -1.1104 12.392129876661523 16.732207291079106 7.019197697711909 0 0 0
293 0 1 -1.1104 12.367540203584204 16.84788002135887 9.778656594536914 0 0 0
294 0 1 -1.1104 12.584587978790548 19.74513927528898 6.992227060841081 0 0 0
295 0 1 -1.1104 12.289494588940466 19.552720577534664 9.813019906420749 0 0 0
296 0 1 -1.1104 1.2835772157663856 22.504624510792876 7.036425082811785 0 0 0
297 0 1 -1.1104 3.9703151415359876 22.646695837064673 6.908950253054291 0 0 0
298 0 1 -1.1104 1.1984772870933782 22.516511215429237 10.020036719328827 0 0 0
299 0 1 -1.1104 4.10510696383648 22.401479678702582 9.643222950591746 0 0 0
300 0 1 -1.1104 6.759474229125685 22.552638092427312 6.91966155117088 0 0 0
301 0 1 -1.1104 9.574006962613428 22.534087159119487 7.033710835028066 0 0 0
302 0 1 -1.1104 6.883554378066987 22.48880474436025 9.760799787687334 0 0 0
303 0 1 -1.1104 9.607588069382846 22.44497051614647 9.730289891086686 0 0 0
304 0 1 -1.1104 12.456809559631097 22.552865796257418 6.91636109950826 0 0 0
305 0 1 -1.1104 12.630283436146142 22.297614096434213 9.7131569068919 0 0 0
306 0 1 -1.1104 1.2724842233114033 -0.15286626846322512 12.411301519021377 0 0 0
307 0 1 -1.1104 3.8675688924210383 -0.17417024954224286 12.595319157253035 0 0 0
308 0 1 -1.1104 1.2709458846210622 2.572464009430983 12.383780048724347 0 0 0
309 0 1 -1.1104 4.0153958241590315 2.490763852055992 12.602851498580666 0 0 0
310 0 1 -1.1104 6.742588470835594 -0.09354594109649268 12.338016788205842 0 0 0
311 0 1 -1.1104 9.415814406570348 0.05872410733667111 12.636601089675281 0 0 0
312 0 1 -1.1104 6.906278551701476 2.96915719477681 12.509769353872155 0 0 0
313 0 1 -1.1104 9.775442374115686 2.6434657393729912 12.538482283619633 0 0 0
314 0 1 -1.1104 12.403530460128767 -0.151653699421989 12.5368350728448 0 0 0
315 0 1 -1.1104 12.499282288297731 2.688917881976752 12.654508363789084 0 0 0
316 0 1 -1.1104 1.2083660838344619 5.484278012613503 12.540684481481915 0 0 0
317 0 1 -1.1104 4.017959159106409 5.28862149276433 12.652121475355344 0 0 0
8982 0 2 2.2208 13.796528985572172 -1.4521611345191583 2.713468142788613 0 0 0
2 0 2 2.2208 13.939143565617233 20.920967064500722 8.425101334240898 0 0 0
121 0 2 2.2208 -0.05895718528879128 21.217666588357062 11.398112271892858 0 0 0
34 0 2 2.2208 0.019747359047173924 18.233407159065134 2.8177868217733577 0 0 0
9688 0 2 2.2208 -0.06968680037015762 9.779963525944613 -0.10582902167071197 0 0 0
8984 0 2 2.2208 -0.01059870876449504 4.133890376560355 11.075258586367434 0 0 0
5 0 2 2.2208 13.870805604512332 15.395744098071631 8.285290048521247 0 0 0
674 0 2 2.2208 2.633713968383635 23.834349810197317 -0.05900097130473639 0 0 0
1 0 2 2.2208 13.86882688836545 23.809218871650273 5.457223802743594 0 0 0
91 0 2 2.2208 -0.11938787020935288 20.997976251795137 5.685931619871491 0 0 0
44 0 2 2.2208 -0.13674754639548303 23.98461783852752 2.6318492259063966 0 0 0
26 0 2 2.2208 8.304435358324563 12.515230905324021 -0.07527419984541131 0 0 0
12 0 2 2.2208 13.931793860193764 21.047633584617 2.809263195926702 0 0 0
84 0 2 2.2208 -0.1039361229566407 18.09816065419916 8.567236650633854 0 0 0
8983 0 2 2.2208 -0.020814141302841028 9.710216508022906 11.245297429323035 0 0 0
9096 0 2 2.2208 13.819343170605833 18.19656125843484 11.426543750131403 0 0 0
81 0 2 2.2208 -0.07793404884353863 15.473304987197029 5.633103401383355 0 0 0
6 0 2 2.2208 13.796983250159874 18.078828170416703 5.396246748199934 0 0 0
340 0 2 2.2208 11.086122400402681 12.636191527304991 13.933099433836187 0 0 0
334 0 2 2.2208 5.5283652364763 6.989981094446613 13.932657247711989 0 0 0
345 0 2 2.2208 10.916029508511558 18.254983136279172 13.881354998358436 0 0 0
663 0 2 2.2208 2.5779777945562343 7.077506619475897 -0.008440118401552208 0 0 0
676 0 2 2.2208 8.359055723363516 23.727511788889224 0.043671542828409717 0 0 0
9661 0 2 2.2208 -0.12567639744913398 1.3548292425586506 13.879824676528257 0 0 0
343 0 2 2.2208 8.320086272134217 15.458705162450467 13.879020930299204 0 0 0
660 0 2 2.2208 5.354760551548196 -1.483925167458864 -0.055295267543517775 0 0 0
671 0 2 2.2208 8.368038851455122 18.212607209533147 -0.12299519426389983 0 0 0
341 0 2 2.2208 2.7186314774518925 15.398868655415715 14.192665815393422 0 0 0
327 0 1 -1.1104 6.97798772101322 22.47770636158727 26.814260183971196 0 0 0
339 0 2 2.2208 5.515438571380181 12.660213691251176 14.299081734597939 0 0 0
672 0 2 2.2208 11.193515840546285 15.328733055382296 27.93164566560103 0 0 -1
403 0 2 2.2208 2.6035902083486415 -1.394675573668118 25.28434018046616 0 0 0
9409 0 2 2.2208 13.927751429592075 12.600021733342583 22.473640399917837 0 0 0
332 0 1 -1.1104 9.82805638289697 22.41039440867732 23.875837109903777 0 0 0
9369 0 2 2.2208 13.863573214909696 18.02235582190706 16.85695392253203 0 0 0
9340 0 2 2.2208 13.797268323849497 -1.4021850011237278 19.498443257014728 0 0 0
409 0 2 2.2208 11.165200169281405 -1.4085638474644349 22.43864242273728 0 0 0
9350 0 2 2.2208 13.796512335129142 4.055199598676046 19.533287419249103 0 0 0
337 0 1 -1.1104 6.927328239123343 22.478020700892877 23.961734629211563 0 0 0
357 0 2 2.2208 7.981088962846735 -1.4387900192755858 19.58697387560084 0 0 0
330 0 2 2.2208 11.059433142092384 1.3472333864619128 14.041475733767454 0 0 0
647 0 1 -1.1104 4.120350182328784 16.91023833276253 24.021079293717616 0 0 0
646 0 1 -1.1104 1.4553803921022606 16.846424835600285 23.915957302014363 0 0 0
342 0 1 -1.1104 4.071911104890984 22.4023177147416 26.94648867729021 0 0 0
645 0 1 -1.1104 12.589022986178136 14.115041409382737 26.732265084392523 0 0 0
444 0 2 2.2208 -0.11084046738391129 23.731980805071903 25.438628114425054 0 0 0
346 0 2 2.2208 2.5517665655653428 21.27464758773852 14.026076420601253 0 0 0
644 0 1 -1.1104 12.655513289740993 14.026359863808752 24.007604167083425 0 0 0
9662 0 2 2.2208 -0.084219530116613 6.971193994893153 13.982780960771303 0 0 0
9664 0 2 2.2208 -0.1116520250563693 18.281255483078453 14.272869785838601 0 0 0
335 0 2 2.2208 11.084519432077274 6.815566575075498 13.994568293772673 0 0 0
643 0 1 -1.1104 12.572044471153585 11.297697220637007 26.633668146183567 0 0 0
351 0 1 -1.1104 1.2785352717610758 22.243923559231813 26.71431783737616 0 0 0
352 0 2 2.2208 2.611737456846901 1.3014092018943018 16.784496288883783 0 0 0
434 0 2 2.2208 -0.12274169250662433 18.218777596863937 25.337710347274037 0 0 0
354 0 1 -1.1104 4.271713056618816 22.24612786912397 24.33117676968807 0 0 0
650 0 1 -1.1104 1.462663928524204 19.377682212860204 23.92611929747382 0 0 0
356 0 2 2.2208 8.21112403100318 1.5978288061984969 16.81157836610578 0 0 0
344 0 2 2.2208 5.553474159341254 18.38119792346231 13.983293927617986 0 0 0
358 0 2 2.2208 5.361846679148132 1.4411019913201328 19.542266738129506 0 0 0
654 0 1 -1.1104 7.059282390040469 16.914334371731826 24.179216498199548 0 0 0
360 0 2 2.2208 10.970374311438038 1.2831360731571966 19.721228024669205 0 0 0
361 0 1 -1.1104 1.111412021949666 22.048107940938188 23.98801711416394 0 0 0
362 0 2 2.2208 2.8971576839979174 6.912703788335768 16.859704507726043 0 0 0
363 0 2 2.2208 2.5101483627487884 4.255979816406257 19.717971038569335 0 0 0
364 0 1 -1.1104 12.641710755431152 19.753714642236698 26.741738849579345 0 0 0
365 0 2 2.2208 5.446031316237307 4.1855110633543084 16.791222917203314 0 0 0
366 0 2 2.2208 8.28355820148022 7.113885195276793 16.889046279346804 0 0 0