LAMMPS (29 Oct 2020)
OMP_NUM_THREADS environment is not set. Defaulting to 1 thread. (../comm.cpp:94)
  using 1 OpenMP thread(s) per MPI task
#---------------------------------------
#
# This script is used to calculate the thermal conuctivity of UO2 using Muller-Plathe method
# By Ziqiang Wang on 03/18/2022 on Jilin university
#
#---------------------------------------

variable     Nevery    equal   10
variable     T         equal   600

clear
OMP_NUM_THREADS environment is not set. Defaulting to 1 thread. (../comm.cpp:94)
  using 1 OpenMP thread(s) per MPI task
units          metal
boundary       p p p
atom_style     full

read_data vac_0.02_relaxed.dat
Reading data file ...
  orthogonal box = (-0.35516565 -4.2468482 -0.35447675) to (27.695166 332.32685 27.694477)
  2 by 13 by 2 MPI processor grid
  reading atoms ...
  17640 atoms
  reading velocities ...
  17640 velocities
Finding 1-2 1-3 1-4 neighbors ...
  special bond factors lj:    0.0      0.0      0.0     
  special bond factors coul:  0.0      0.0      0.0     
     0 = max # of 1-2 neighbors
     0 = max # of 1-3 neighbors
     0 = max # of 1-4 neighbors
     1 = max # of special neighbors
  special bonds CPU = 0.005 seconds
  read_data CPU = 0.070 seconds

set           type     1    charge     -1.1104
Setting atom values ...
  11760 settings made for charge
set           type     2    charge      2.2208
Setting atom values ...
  5880 settings made for charge

kspace_style    pppm   1.0e-05
pair_style      hybrid/overlay  coul/long  11.0  eam/alloy
pair_coeff      * * coul/long
pair_coeff      * * eam/alloy CeThUNpPuAmCmO.eam.alloy O Th
newton          on
neighbor        0.3 bin
neigh_modify    delay 0 check yes every 1

#The first equilation
velocity        all create $T 10004 mom yes rot yes dist gaussian
velocity        all create 600 10004 mom yes rot yes dist gaussian
fix             nvt  all  nvt  temp  $T $T  0.1
fix             nvt  all  nvt  temp  600 $T  0.1
fix             nvt  all  nvt  temp  600 600  0.1

run             100000
PPPM initialization ...
  using 12-bit tables for long-range coulomb (../kspace.cpp:328)
  G vector (1/distance) = 0.29883693
  grid = 40 240 40
  stencil order = 5
  estimated absolute RMS force accuracy = 0.00015601772
  estimated relative force accuracy = 1.0834831e-05
  using single precision MKL FFT
  3d grid and FFT values/proc = 15000 7600
Neighbor list info ...
  update every 1 steps, delay 0 steps, check yes
  max neighbors/atom: 2000, page size: 100000
  master list distance cutoff = 11.3
  ghost atom cutoff = 11.3
  binsize = 5.65, bins = 5 60 5
  2 neighbor lists, perpetual/occasional/extra = 2 0 0
  (1) pair coul/long, perpetual
      attributes: half, newton on
      pair build: half/bin/newton
      stencil: half/bin/3d/newton
      bin: standard
  (2) pair eam/alloy, perpetual, copy from (1)
      attributes: half, newton on
      pair build: copy
      stencil: none
      bin: none
Per MPI rank memory allocation (min/avg/max) = 8.142 | 8.178 | 8.198 Mbytes
Step Temp E_pair E_mol TotEng Press 
       0          600   -230565.12            0   -229197.11    96.489836 
  100000    599.28856   -230569.38            0   -229202.99   -212.22574 
Loop time of 646.651 on 52 procs for 100000 steps with 17640 atoms

Performance: 13.361 ns/day, 1.796 hours/ns, 154.643 timesteps/s
99.8% CPU use with 52 MPI tasks x 1 OpenMP threads

MPI task timing breakdown:
Section |  min time  |  avg time  |  max time  |%varavg| %total
---------------------------------------------------------------
Pair    | 418.22     | 448.84     | 461.94     |  44.5 | 69.41
Bond    | 0.0062514  | 0.0097207  | 0.015021   |   1.8 |  0.00
Kspace  | 129.28     | 144.39     | 180.64     |  94.4 | 22.33
Neigh   | 26.204     | 34.191     | 37.459     |  48.4 |  5.29
Comm    | 13.981     | 14.888     | 17.047     |  25.9 |  2.30
Output  | 6.4102e-05 | 6.9674e-05 | 0.0002712  |   0.0 |  0.00
Modify  | 1.7219     | 3.1131     | 5.0538     |  62.6 |  0.48
Other   |            | 1.228      |            |       |  0.19

Nlocal:        339.231 ave         366 max         298 min
Histogram: 2 5 1 0 5 9 15 3 1 11
Nghost:        4101.25 ave        4282 max        3826 min
Histogram: 4 0 7 2 4 3 12 5 3 12
Neighs:        67628.4 ave       74529 max       51363 min
Histogram: 2 2 0 2 2 1 9 19 5 10

Total # of neighbors = 3516676
Ave neighs/atom = 199.35805
Ave special neighs/atom = 0.0000000
Neighbor list builds = 16217
Dangerous builds = 0
unfix           nvt
reset_timestep  0

# the second run
fix             1 all nve

group           oxygen type 1
11760 atoms in group oxygen
fix             2 oxygen thermal/conductivity ${Nevery} y 20
fix             2 oxygen thermal/conductivity 10 y 20

compute         ke all ke/atom
variable        temp atom c_ke/1.5
compute         layers all chunk/atom bin/1d y lower 0.05 units reduced
fix             3      all ave/chunk  2000 50 100000 layers v_temp file profile_${T}K.mp
fix             3      all ave/chunk  2000 50 100000 layers v_temp file profile_600K.mp

variable        Tdiff    equal     f_3[11][3]-f_3[1][3]
variable        deltaT   equal     v_Tdiff*1.5/0.0001292

timestep        0.001
thermo_style    custom step f_2 temp v_Tdiff v_deltaT
thermo          100000

run             1000000
PPPM initialization ...
  using 12-bit tables for long-range coulomb (../kspace.cpp:328)
  G vector (1/distance) = 0.29883693
  grid = 40 240 40
  stencil order = 5
  estimated absolute RMS force accuracy = 0.00015601772
  estimated relative force accuracy = 1.0834831e-05
  using single precision MKL FFT
  3d grid and FFT values/proc = 15000 7600
Per MPI rank memory allocation (min/avg/max) = 8.393 | 8.429 | 8.449 Mbytes
Step f_2 Temp v_Tdiff v_deltaT 
       0            0    599.28856            0            0 
  100000    2128.5654    602.24666  0.054538804    633.19045 
  200000    4150.9539    597.41084  0.058947631    684.37652 
  300000    6173.8349    599.57134  0.058667917    681.12907 
  400000    8186.4315    598.13229  0.058622486    680.60162 
  500000    10209.594    601.31258  0.058936133    684.24302 
  600000    12241.614    598.85153  0.058533412    679.56748 
  700000    14275.753    594.40271  0.058636904    680.76901 
  800000    16304.292    598.25256  0.059505419    690.85239 
  900000    18337.994    600.99573   0.05848471    679.00205 
 1000000    20373.846    606.64095  0.058300236    676.86033 
Loop time of 6466.97 on 52 procs for 1000000 steps with 17640 atoms

Performance: 13.360 ns/day, 1.796 hours/ns, 154.632 timesteps/s
99.9% CPU use with 52 MPI tasks x 1 OpenMP threads

MPI task timing breakdown:
Section |  min time  |  avg time  |  max time  |%varavg| %total
---------------------------------------------------------------
Pair    | 4172.1     | 4423.2     | 4594.6     | 127.2 | 68.40
Bond    | 0.068353   | 0.097346   | 0.14047    |   5.2 |  0.00
Kspace  | 1263.2     | 1458.7     | 1782.2     | 274.5 | 22.56
Neigh   | 296.3      | 391.71     | 429.41     | 169.8 |  6.06
Comm    | 142.09     | 153.91     | 183.47     |  95.0 |  2.38
Output  | 0.0010601  | 0.0011271  | 0.0022919  |   0.5 |  0.00
Modify  | 7.5391     | 9.2617     | 11.508     |  39.8 |  0.14
Other   |            | 30.01      |            |       |  0.46

Nlocal:        339.231 ave         367 max         290 min
Histogram: 3 3 2 0 0 5 14 13 9 3
Nghost:        4121.37 ave        4294 max        3837 min
Histogram: 4 6 5 1 0 4 0 6 17 9
Neighs:        67621.8 ave       75239 max       49359 min
Histogram: 3 1 0 2 2 0 5 18 19 2

Total # of neighbors = 3516332
Ave neighs/atom = 199.33855
Ave special neighs/atom = 0.0000000
Neighbor list builds = 185914
Dangerous builds = 0

Total wall time: 1:58:34
