ITEM: TIMESTEP
100000
ITEM: NUMBER OF ATOMS
17730
ITEM: BOX BOUNDS pp pp pp
-4.4182056297260380e-01 2.7781820562972101e+01
-5.2925551521785117e+00 3.3337255515216577e+02
-4.5316065859558641e-01 2.7793160658594324e+01
ITEM: ATOMS id type q x y z
1 2 2.2208 5.29799 0.130803 5.39418
2 1 -1.1104 1.26846 -3.81705 1.39351
6 1 -1.1104 1.11513 -4.07043 4.15047
10 1 -1.1104 0.898799 -1.05304 1.13992
12 2 2.2208 5.37589 -2.51105 2.50233
14 1 -1.1104 1.19364 -1.12425 3.89599
16 1 -1.1104 4.08123 -3.86137 1.25911
18 2 2.2208 2.44182 0.312915 2.69832
19 1 -1.1104 3.72645 -4.10122 3.91152
21 2 2.2208 2.51905 -2.48082 5.42713
23 1 -1.1104 4.00835 -1.09767 1.24201
24 1 -1.1104 4.06012 -1.08701 4.06685
191 1 -1.1104 9.69266 18.4055 12.3501
15 1 -1.1104 6.80682 -1.17055 4.01606
8 1 -1.1104 6.72262 -3.88958 3.96919
11 1 -1.1104 6.45901 -0.876811 1.12903
637 2 2.2208 8.11895 8.66129 -0.321136
162 1 -1.1104 3.84369 -1.19406 6.8681
158 1 -1.1104 1.15896 -1.18531 6.82401
154 1 -1.1104 1.02226 -4.03196 6.91179
660 2 2.2208 8.10278 -2.45752 -0.365953
4 1 -1.1104 6.78373 -3.62427 1.2114
31 2 2.2208 10.7596 0.124037 5.27974
32 1 -1.1104 12.3664 -4.03352 1.20397
34 1 -1.1104 12.2617 -3.77868 3.81058
36 1 -1.1104 12.0926 -1.27887 1.11174
37 2 2.2208 10.8965 -2.62045 2.47188
39 1 -1.1104 12.353 -1.14701 3.9693
40 1 -1.1104 9.67411 -3.96857 0.990404
42 2 2.2208 8.09088 0.251729 2.45953
43 1 -1.1104 9.48252 -4.11415 3.91154
45 2 2.2208 8.27033 -2.57018 5.21814
47 1 -1.1104 9.19151 -1.2201 1.18339
48 1 -1.1104 9.62262 -1.30841 3.7953
556 2 2.2208 8.31065 20.0746 -0.3345
50 2 2.2208 2.37576 8.91168 -0.220814
99 2 2.2208 10.9388 14.2864 8.13086
301 2 2.2208 8.04765 -5.20964 2.39345
198 1 -1.1104 9.37707 -1.11069 6.79686
325 2 2.2208 8.0464 3.1739 -0.176053
433 2 2.2208 8.17477 11.3343 13.6389
8932 2 2.2208 -0.319601 -2.39746 8.27049
20 1 -1.1104 3.85313 1.47075 4.13186
3 1 -1.1104 1.2116 1.73439 1.25607
7 1 -1.1104 1.05709 1.78348 4.02485
13 2 2.2208 5.29094 2.95199 2.77214
17 1 -1.1104 3.98946 2.07004 0.922849
22 2 2.2208 2.66854 2.92714 5.38256
54 2 2.2208 5.06799 5.91482 5.21054
74 1 -1.1104 3.60109 4.32826 3.87225
8976 1 -1.1104 0.428035 4.29919 0.953117
61 1 -1.1104 6.29349 4.58502 0.844047
56 1 -1.1104 0.838945 7.52604 0.919996
70 1 -1.1104 3.62503 7.45989 3.88705
66 1 -1.1104 6.4699 4.79702 3.89375
9 1 -1.1104 6.63257 1.80567 4.00793
68 1 -1.1104 4.12345 7.78435 0.446932
58 1 -1.1104 6.67248 7.52592 3.88709
224 1 -1.1104 1.16862 4.36452 6.46272
227 1 -1.1104 3.99775 4.58751 6.7272
225 1 -1.1104 6.69397 4.27468 6.91473
29 2 2.2208 10.9283 17.0768 10.9695
5 1 -1.1104 6.65501 1.86122 1.15758
57 1 -1.1104 6.86755 7.15521 1.00695
33 1 -1.1104 12.4862 1.72929 1.0235
35 1 -1.1104 12.1875 1.53997 3.82892
38 2 2.2208 10.7367 3.05982 2.41056
41 1 -1.1104 9.44529 1.42955 0.971092
44 1 -1.1104 9.35207 1.48385 3.88372
46 2 2.2208 7.98697 3.05675 5.49722
78 2 2.2208 10.8006 5.8051 5.26648
82 1 -1.1104 12.2474 4.48683 1.34125
86 1 -1.1104 12.2613 4.34465 4.10207
88 1 -1.1104 9.57191 7.31575 0.948628
89 2 2.2208 7.94754 6.01379 2.50565
93 1 -1.1104 9.43055 4.67444 0.972195
96 1 -1.1104 9.29467 4.42804 3.9782
91 1 -1.1104 9.50455 7.00937 3.8022
80 1 -1.1104 12.5754 7.26846 1.02931
81 1 -1.1104 12.2079 7.35602 3.98239
321 2 2.2208 13.7387 2.84774 5.44241
611 2 2.2208 5.44489 6.07448 -0.501946
123 2 2.2208 10.9151 20.0215 8.20428
300 2 2.2208 -0.288627 17.3324 11.0262
157 1 -1.1104 6.66672 1.61342 6.93727
257 1 -1.1104 9.51451 4.40904 6.86254
55 2 2.2208 5.31716 11.8429 5.14747
59 1 -1.1104 0.938166 10.3041 1.08623
64 2 2.2208 5.14706 8.94348 2.59421
65 1 -1.1104 0.83415 10.0393 3.83252
69 2 2.2208 2.15645 11.7986 2.41703
71 2 2.2208 2.46383 8.86532 5.26207
72 1 -1.1104 3.58192 10.7678 0.919688
75 1 -1.1104 3.59753 10.0796 3.6868
100 1 -1.1104 1.46199 13.2001 0.891592
106 1 -1.1104 0.885065 13.0529 3.78989
114 1 -1.1104 3.45543 13.003 4.03579
548 2 2.2208 5.26206 0.443545 -0.326601
8518 2 2.2208 2.45271 -5.21642 8.23315
222 1 -1.1104 1.17203 7.37283 6.46218
60 1 -1.1104 0.862805 10.1153 6.64786
51 2 2.2208 13.5116 11.3771 7.99924
219 1 -1.1104 9.54911 15.6159 12.2991
67 1 -1.1104 6.67739 10.507 3.88826
62 1 -1.1104 6.52263 9.97729 1.21485
108 1 -1.1104 6.6761 13.3947 3.95218
103 1 -1.1104 6.73505 12.6907 0.866743
79 2 2.2208 10.8264 11.2869 5.29545
83 1 -1.1104 12.2137 9.915 1.06488
85 2 2.2208 10.9381 8.55733 2.41429
87 1 -1.1104 12.2973 10.0558 3.90387
90 2 2.2208 8.03829 11.653 2.33028
92 2 2.2208 7.94275 8.89568 5.25899
94 1 -1.1104 9.35347 10.1518 0.979876
97 1 -1.1104 9.59626 9.7868 3.93747
130 1 -1.1104 12.6136 12.7166 1.01205
134 1 -1.1104 12.3971 12.989 3.78897
141 1 -1.1104 9.58497 12.9177 1.05152
146 1 -1.1104 9.4357 12.8969 3.91417
138 2 2.2208 10.998 14.3749 2.59188
9222 2 2.2208 -0.259026 19.979 2.3549
63 1 -1.1104 6.66561 10.042 6.73576
84 1 -1.1104 12.2358 10.0997 6.68195
9258 2 2.2208 -0.396596 17.369 -0.426479
9198 2 2.2208 -0.127088 -2.61406 2.66299
119 2 2.2208 2.3926 14.4439 5.39752
102 1 -1.1104 1.19009 18.5652 0.69477
107 1 -1.1104 0.947002 18.4482 3.77207
109 1 -1.1104 0.890506 16.0082 1.09922
112 2 2.2208 5.12962 20.0146 2.60183
113 1 -1.1104 1.12858 15.6882 3.92244
115 1 -1.1104 3.90766 18.642 0.962901
117 2 2.2208 2.23583 17.2591 2.31308
118 1 -1.1104 3.63286 18.3629 3.80586
120 2 2.2208 2.37486 19.9952 5.13918
121 1 -1.1104 3.61916 15.7446 1.30933
317 2 2.2208 -0.44563 14.5086 2.35267
9218 2 2.2208 -0.350452 17.0487 5.34234
49 1 -1.1104 12.6273 18.5605 12.4329
9133 2 2.2208 -0.367292 8.66752 7.87365
304 2 2.2208 -0.438366 14.3625 13.5887
126 1 -1.1104 7.02354 18.6138 0.929186
128 1 -1.1104 7.04375 15.927 1.03366
127 1 -1.1104 6.78517 18.951 3.77047
148 2 2.2208 8.19554 14.2143 5.4737
129 2 2.2208 10.9631 17.1967 5.41551
132 1 -1.1104 12.3971 18.6595 1.0664
135 1 -1.1104 12.4582 18.5626 3.95675
136 1 -1.1104 12.5222 15.4637 1.344
139 2 2.2208 10.9613 19.9434 2.67388
140 1 -1.1104 12.0382 15.6114 4.15527
143 1 -1.1104 9.62876 18.4592 1.14745
145 2 2.2208 8.14382 17.2286 2.46767
147 1 -1.1104 9.60415 18.5249 3.97984
149 2 2.2208 8.06623 19.937 5.43867
150 1 -1.1104 9.63187 15.5259 1.08632
152 1 -1.1104 9.02996 15.692 3.9721
8517 2 2.2208 5.35614 -5.24352 11.1106
318 2 2.2208 8.1 14.3165 -0.24889
160 1 -1.1104 4.14471 -4.02297 6.9336
166 2 2.2208 5.26593 0.145 11.1284
167 1 -1.1104 1.26923 -3.92648 12.2741
171 1 -1.1104 1.18431 -3.75495 9.61932
175 1 -1.1104 1.24086 -1.277 12.6763
177 2 2.2208 5.4349 -2.77639 8.34522
179 1 -1.1104 1.22278 -1.09984 9.72968
181 1 -1.1104 3.95761 -4.04859 12.4002
183 2 2.2208 2.34652 0.34808 8.27658
184 1 -1.1104 4.08383 -4.12843 9.5276
186 2 2.2208 2.49114 -2.55775 11.0761
188 1 -1.1104 3.96695 -1.26408 12.7713
189 1 -1.1104 4.00193 -1.28843 9.88639
322 2 2.2208 5.33181 17.3055 -0.475406
220 1 -1.1104 9.62606 18.3808 9.48013
77 1 -1.1104 12.3368 15.4965 12.3665
320 2 2.2208 -0.207585 3.35895 7.91031
156 1 -1.1104 7.09153 -3.99298 6.7728
661 2 2.2208 10.8584 0.274302 -0.458541
27 2 2.2208 -0.317877 11.6894 10.7052
159 1 -1.1104 6.61481 -1.21186 6.98205
173 1 -1.1104 6.89109 -4.11987 9.68934
176 1 -1.1104 6.70595 -0.972835 12.4528
169 1 -1.1104 7.01749 -3.96875 12.5029
180 1 -1.1104 6.71062 -1.06652 9.71661
195 1 -1.1104 12.417 -1.18891 6.62146
193 1 -1.1104 12.714 -4.01431 6.73683
196 1 -1.1104 9.90672 -3.91073 6.64649
201 2 2.2208 10.9988 0.0552023 11.0502
202 1 -1.1104 12.558 -4.08936 12.0891
204 1 -1.1104 12.5103 -3.81325 9.49892
206 1 -1.1104 12.4343 -1.35522 12.4436
207 2 2.2208 10.9853 -2.51566 8.06193
209 1 -1.1104 12.3285 -1.18334 9.62408
210 1 -1.1104 9.72207 -4.01023 12.4642
212 2 2.2208 8.0964 0.250762 8.27465
213 1 -1.1104 9.6415 -3.81718 9.20294
215 2 2.2208 8.31897 -2.66828 10.8834
217 1 -1.1104 9.63692 -1.24521 12.2553
218 1 -1.1104 9.5753 -1.20116 9.56705
302 1 -1.1104 9.67976 15.5866 9.66357
111 1 -1.1104 6.99992 15.5149 6.94545
155 1 -1.1104 1.04114 1.61889 6.90212
226 1 -1.1104 3.91826 7.40194 6.60585
161 1 -1.1104 3.77964 1.46449 6.75641
168 1 -1.1104 1.02369 1.64843 12.5288
172 1 -1.1104 1.15178 1.79528 9.72295
178 2 2.2208 5.34825 2.98218 8.32424
182 1 -1.1104 3.88704 1.72564 12.4149
185 1 -1.1104 3.79465 1.49303 9.70248
187 2 2.2208 2.53488 3.24007 10.9297
228 2 2.2208 5.15451 5.76372 10.9096
234 1 -1.1104 1.10655 4.51886 12.4912
239 1 -1.1104 1.13436 4.53613 9.27279
244 2 2.2208 2.33458 6.09109 7.7336
248 1 -1.1104 3.7136 4.47661 12.4061
250 1 -1.1104 3.87959 4.33516 9.51703
230 1 -1.1104 1.05463 7.20973 12.1905
232 1 -1.1104 0.800433 7.37271 9.26648
243 1 -1.1104 3.84954 7.34673 12.2139
246 1 -1.1104 3.7523 7.2275 9.26608
170 1 -1.1104 6.69156 1.55908 12.6567
174 1 -1.1104 6.79886 1.75573 9.76528
277 1 -1.1104 6.64701 15.8503 9.83484
223 1 -1.1104 6.52763 7.34818 6.56175
233 1 -1.1104 6.48836 7.06025 9.44478
194 1 -1.1104 12.3772 1.49937 6.65954
254 1 -1.1104 12.0434 4.15163 6.84604
231 1 -1.1104 6.62419 7.23177 12.2836
236 1 -1.1104 6.66789 4.39834 12.5928
241 1 -1.1104 6.80716 4.37057 9.66205
255 1 -1.1104 9.44601 7.29233 6.56247
253 1 -1.1104 12.1194 7.29318 6.829
197 1 -1.1104 9.44671 1.53002 6.6256
203 1 -1.1104 12.2993 1.42676 12.3842
205 1 -1.1104 12.3918 1.46962 9.51032
208 2 2.2208 10.9251 2.8244 8.18704
211 1 -1.1104 9.60881 1.56754 12.3409
214 1 -1.1104 9.67528 1.63239 9.61624
216 2 2.2208 8.07633 2.91912 11.1708
256 1 -1.1104 9.4411 4.27102 9.71965
259 1 -1.1104 9.40341 4.38348 12.406
263 2 2.2208 7.97219 5.76871 8.05471
264 2 2.2208 10.8949 5.81805 11.077
268 1 -1.1104 12.4632 4.17814 12.1936
271 1 -1.1104 12.2554 4.24448 9.61233
266 1 -1.1104 12.4093 7.02988 12.4716
261 1 -1.1104 9.29789 7.25555 9.34146
267 1 -1.1104 12.1866 7.17044 9.65793
273 1 -1.1104 9.41569 7.3882 12.4179
144 1 -1.1104 9.48844 18.6869 6.74016
200 2 2.2208 8.13709 19.8258 11.0117
101 1 -1.1104 0.987155 12.9513 6.41953
73 1 -1.1104 3.88666 10.1744 6.49413
122 1 -1.1104 3.92084 13.0166 6.69161
229 2 2.2208 5.16178 11.5295 10.9219
235 1 -1.1104 1.10494 9.94038 12.0785
238 2 2.2208 5.28918 8.60808 8.14338
240 1 -1.1104 0.986746 10.2096 9.35222
245 2 2.2208 2.3084 11.5138 7.93512
247 2 2.2208 2.58196 8.78001 10.7542
249 1 -1.1104 3.80141 10.1176 12.6469
251 1 -1.1104 3.72515 10.1674 9.32454
275 1 -1.1104 3.78966 12.7588 12.4822
282 1 -1.1104 0.958663 12.9585 9.366
287 1 -1.1104 0.907336 12.8633 12.2323
293 1 -1.1104 3.74782 13.0225 9.57534
237 1 -1.1104 6.49413 10.1583 12.404
242 1 -1.1104 6.68945 10.1326 9.74863
104 1 -1.1104 6.73635 12.7599 6.82577
285 1 -1.1104 6.58534 12.827 12.4769
142 1 -1.1104 9.53948 12.6636 6.71064
95 1 -1.1104 9.33191 9.85299 6.78949
278 1 -1.1104 6.62977 12.9036 9.73254
131 1 -1.1104 12.4069 12.8425 6.68717
199 1 -1.1104 9.56918 12.7475 9.5727
252 1 -1.1104 9.49885 9.90889 9.58478
258 1 -1.1104 9.3703 10.012 12.2819
260 2 2.2208 8.02495 8.62287 10.9788
262 2 2.2208 7.92042 11.2958 8.23979
265 2 2.2208 10.805 11.2818 10.8991
269 1 -1.1104 12.2518 9.98944 12.4908
270 2 2.2208 10.845 8.59486 8.25869
272 1 -1.1104 12.2248 9.7322 9.51
190 1 -1.1104 9.38868 12.8064 12.1629
30 1 -1.1104 12.4657 12.9061 12.4584
53 1 -1.1104 12.2993 12.6999 9.6252
9134 2 2.2208 -0.292528 5.99488 10.8747
98 2 2.2208 13.6349 11.3736 2.56444
313 2 2.2208 7.93044 6.11896 13.6672
290 1 -1.1104 1.6085 18.667 6.7581
110 1 -1.1104 0.97536 15.7226 6.67916
9199 2 2.2208 -0.380996 0.503887 5.5805
292 1 -1.1104 3.64574 15.7143 6.9097
283 2 2.2208 5.30736 14.2472 8.14525
298 2 2.2208 2.37846 14.3125 11.0168
116 1 -1.1104 4.1125 18.6852 9.19818
274 1 -1.1104 3.90483 18.718 12.1292
279 1 -1.1104 1.23948 18.4779 9.52968
280 1 -1.1104 0.853341 15.8815 9.5362
281 2 2.2208 5.45329 20.1183 8.10875
286 1 -1.1104 1.26309 18.2777 12.3942
288 2 2.2208 5.26098 17.1324 11.1035
289 1 -1.1104 3.82807 15.6696 9.68676
291 2 2.2208 2.42048 17.0647 8.28037
295 1 -1.1104 1.15621 15.7086 12.2293
296 1 -1.1104 3.95571 15.8044 12.5536
297 2 2.2208 2.56297 19.8353 10.7139
276 1 -1.1104 6.85404 18.4588 9.47803
151 1 -1.1104 9.75013 15.929 6.87834
133 1 -1.1104 12.3562 18.5155 6.72787
76 1 -1.1104 12.4902 18.3418 9.74279
221 2 2.2208 8.13371 14.2517 10.9301
163 1 -1.1104 12.5107 15.6942 9.41033
192 2 2.2208 8.11474 17.1709 7.97966
284 1 -1.1104 6.92953 18.5082 12.3388
137 1 -1.1104 12.4437 15.7951 6.82309
294 1 -1.1104 6.76208 15.5739 12.4454
105 1 -1.1104 6.69247 18.6198 6.77803
326 2 2.2208 10.9957 11.6038 -0.336344
319 2 2.2208 2.61264 -2.6841 -0.140814
659 2 2.2208 11.1343 16.8754 -0.27369
9115 2 2.2208 13.6239 5.68325 7.95626
299 2 2.2208 -0.271831 20.0097 7.91904
8931 2 2.2208 -0.232166 0.356665 10.9491
52 2 2.2208 13.5444 0.18068 2.53656
9301 2 2.2208 -0.389375 5.9914 -0.294907
8933 2 2.2208 13.5679 8.66078 5.33979
8524 2 2.2208 11.0352 -5.24402 -0.275524
613 2 2.2208 5.27959 11.6379 -0.417191
9206 2 2.2208 -0.402569 3.17993 13.6095
658 2 2.2208 8.12024 17.0847 13.5838
327 2 2.2208 5.38539 0.239263 16.6571
328 1 -1.1104 1.39626 -4.0437 18.1306
332 1 -1.1104 1.22907 -3.86848 15.2377
340 1 -1.1104 1.2399 -1.24911 18.2441
342 2 2.2208 5.38788 -2.51791 19.6098
344 1 -1.1104 1.09721 -1.19887 15.5039
348 1 -1.1104 4.28189 -4.00667 18.1975
350 2 2.2208 2.71915 0.208585 19.5479
351 1 -1.1104 4.00589 -4.082 15.3629
355 2 2.2208 2.73772 -2.57947 16.719
357 1 -1.1104 4.05656 -1.09392 18.0931
358 1 -1.1104 4.14215 -1.27282 15.3412
9443 2 2.2208 -0.268198 14.4669 19.2318
341 1 -1.1104 6.6829 -1.30457 18.1657
9517 2 2.2208 -0.385193 5.94617 22.2356
315 2 2.2208 2.55899 16.9652 13.7079
333 1 -1.1104 1.04531 -3.96337 21.1533
9379 2 2.2208 -0.110029 5.8476 16.6566
336 1 -1.1104 6.81011 -3.9943 15.4953
346 1 -1.1104 6.88314 -1.00567 15.422
330 1 -1.1104 6.93059 -4.11065 18.3728
370 2 2.2208 11.0351 0.233557 16.5851
371 1 -1.1104 12.534 -3.86652 17.9937
373 1 -1.1104 12.5051 -3.86567 15.3499
377 1 -1.1104 12.4926 -1.00044 18.0826
378 2 2.2208 10.9319 -2.7058 19.4357
380 1 -1.1104 12.436 -1.04457 15.3996
382 1 -1.1104 9.59186 -4.1645 17.8675
384 2 2.2208 8.25967 0.0976645 19.5494
385 1 -1.1104 9.71449 -4.12876 15.1402
389 2 2.2208 8.2674 -2.39544 16.6024
391 1 -1.1104 9.75909 -1.20601 17.8342
392 1 -1.1104 9.63377 -1.24395 15.1693
393 1 -1.1104 9.9106 -1.47661 20.8608
386 1 -1.1104 9.76612 -4.17637 20.7235
398 2 2.2208 -0.344873 8.83777 25.1623
555 2 2.2208 -0.266947 11.5912 16.5622
312 2 2.2208 2.37858 5.78572 13.905
557 2 2.2208 -0.307777 -2.53271 25.2315
353 1 -1.1104 3.95321 1.31574 15.264
329 1 -1.1104 1.1489 1.52052 18.1266
334 1 -1.1104 1.11627 1.61247 15.0966
343 2 2.2208 5.41725 2.89624 19.6643
349 1 -1.1104 4.04669 2.02508 17.953
356 2 2.2208 2.3831 3.02552 16.6405
406 1 -1.1104 1.094 4.50809 15.4154
414 1 -1.1104 3.69989 4.3391 15.0585
425 1 -1.1104 1.13591 4.30116 18.1783
422 1 -1.1104 1.14412 7.42366 15.0958
420 1 -1.1104 3.92536 7.33362 15.1572
404 1 -1.1104 0.910968 7.43004 17.7013
547 2 2.2208 -0.471815 20.0957 25.1041
354 1 -1.1104 3.97281 1.58893 21.0915
335 1 -1.1104 1.10103 2.06072 21.1172
338 1 -1.1104 6.69479 1.75675 15.2762
411 1 -1.1104 6.94259 3.89272 18.2033
331 1 -1.1104 6.70589 1.23506 18.0932
405 1 -1.1104 6.72099 7.29924 18.1138
372 1 -1.1104 12.2462 1.60887 17.8848
375 1 -1.1104 12.4691 1.70575 15.1875
379 2 2.2208 10.9059 2.97812 19.4376
383 1 -1.1104 9.52159 1.70348 18.1524
387 1 -1.1104 9.49789 1.4675 15.3357
390 2 2.2208 8.14587 2.61449 16.8285
435 2 2.2208 10.8222 5.82253 16.6503
440 1 -1.1104 12.3855 4.5564 17.8132
443 1 -1.1104 12.3476 4.41087 15.0323
448 2 2.2208 8.15433 5.78184 19.3395
450 1 -1.1104 9.66149 7.21746 15.0492
453 1 -1.1104 9.53586 4.31704 17.8458
455 1 -1.1104 8.90336 4.26154 15.2848
447 1 -1.1104 9.50835 7.28365 17.9317
438 1 -1.1104 12.3896 6.96512 15.3536
408 1 -1.1104 6.92958 7.56721 15.083
444 1 -1.1104 12.3397 4.38805 20.6408
437 1 -1.1104 12.3093 7.2555 18.0003
614 2 2.2208 10.9182 17.0425 22.3869
417 1 -1.1104 6.58943 4.43888 20.835
9259 2 2.2208 -0.304233 14.5568 24.9324
403 2 2.2208 5.28154 11.4007 16.4249
410 1 -1.1104 1.02463 10.2822 18.0225
413 2 2.2208 5.6756 8.66041 19.4551
415 1 -1.1104 0.977326 10.1945 15.112
421 2 2.2208 2.51966 11.5729 19.3992
424 2 2.2208 2.57301 8.52789 16.565
426 1 -1.1104 4.07316 9.6513 17.8878
429 1 -1.1104 3.81231 10.1296 15.1716
462 1 -1.1104 1.17908 13.0766 17.8881
466 1 -1.1104 0.880288 12.9256 15.0274
480 1 -1.1104 4.16698 13.1064 17.9824
483 1 -1.1104 3.74376 12.8732 15.127
434 2 2.2208 11.0242 8.5649 13.8801
609 1 -1.1104 3.86006 4.4875 27.2034
520 1 -1.1104 9.43593 15.7569 20.6884
656 2 2.2208 10.9452 3.01943 13.7117
430 1 -1.1104 3.90803 10.2995 20.819
484 1 -1.1104 4.02659 13.1212 20.7227
396 2 2.2208 13.5867 20.0086 16.8103
418 1 -1.1104 6.85095 10.2062 15.2901
469 1 -1.1104 6.61488 12.8976 15.4678
412 1 -1.1104 6.81527 10.1568 18.0213
464 1 -1.1104 6.80061 12.9196 18.0637
436 2 2.2208 10.9075 11.3498 16.7278
441 1 -1.1104 12.3763 9.93 17.844
442 2 2.2208 11.001 8.5788 19.3976
445 1 -1.1104 12.4029 9.89815 15.1492
449 2 2.2208 8.04537 11.501 19.3563
452 2 2.2208 8.16406 8.67036 16.5324
454 1 -1.1104 9.71265 10.0353 18.1448
457 1 -1.1104 9.70914 9.89845 15.078
498 1 -1.1104 12.2931 12.8639 17.9816
500 1 -1.1104 12.2182 12.8732 15.1279
509 1 -1.1104 9.60799 12.9169 17.954
512 1 -1.1104 9.53734 12.6606 15.0827
645 1 -1.1104 6.64909 15.7736 26.3893
636 2 2.2208 10.9947 6.09988 27.8209
554 2 2.2208 2.22095 14.7664 27.8217
616 1 -1.1104 12.5384 18.3325 23.5793
487 2 2.2208 2.52045 14.3769 16.441
475 2 2.2208 5.46494 14.4087 19.3603
461 2 2.2208 5.42348 17.0951 16.5202
463 1 -1.1104 1.5694 19.358 18.2348
468 1 -1.1104 1.24716 18.2611 15.1204
473 1 -1.1104 1.10867 16.1832 17.6133
476 2 2.2208 5.24782 19.7988 19.3647
477 1 -1.1104 1.36247 15.6066 15.1071
481 1 -1.1104 4.0115 18.6657 17.6459
482 2 2.2208 2.47052 17.5235 19.0594
485 1 -1.1104 3.88182 18.6412 14.7934
488 2 2.2208 2.54586 19.7412 16.1407
489 1 -1.1104 4.03383 15.7936 18.0933
490 1 -1.1104 3.96836 15.6684 15.2918
486 1 -1.1104 4.15562 17.9682 20.3967
427 2 2.2208 2.3157 11.3806 13.7412
364 2 2.2208 -0.04488 -2.59748 19.5174
491 1 -1.1104 1.86907 15.7573 20.4326
368 2 2.2208 11.0699 19.9559 24.9839
657 2 2.2208 5.33572 14.2023 13.8724
471 1 -1.1104 6.50534 18.7018 15.093
474 1 -1.1104 6.93596 15.6377 17.9145
478 1 -1.1104 6.71165 15.824 15.2517
465 1 -1.1104 6.80011 18.5214 18.1247
516 2 2.2208 8.26563 14.2501 16.6404
505 2 2.2208 10.9459 14.3097 19.3818
497 2 2.2208 10.9562 17.146 16.4334
499 1 -1.1104 12.2145 18.5348 18.1132
502 1 -1.1104 12.2947 18.5953 15.2974
504 1 -1.1104 12.3969 15.699 18.0485
506 2 2.2208 10.8962 20.0474 19.4295
507 1 -1.1104 12.2127 15.751 15.0615
510 1 -1.1104 9.56175 18.4827 17.7029
511 2 2.2208 8.38219 17.1593 19.2423
514 1 -1.1104 9.44837 18.4656 15.0984
517 2 2.2208 8.12717 19.8041 16.4662
518 1 -1.1104 9.75585 15.7215 17.9123
519 1 -1.1104 9.48625 15.554 15.0882
309 2 2.2208 8.28929 0.318162 13.8251
359 1 -1.1104 4.06208 -0.994854 21.0009
310 2 2.2208 11.0017 -2.66316 13.9354
401 2 2.2208 8.18318 17.1946 25.1266
472 1 -1.1104 6.78693 18.6618 20.9382
345 1 -1.1104 1.2367 -0.958216 21.0217
352 1 -1.1104 3.7955 -3.92968 21.0503
522 2 2.2208 5.47495 0.228246 22.5439
523 1 -1.1104 1.11478 -4.13459 23.9514
527 1 -1.1104 1.01912 -4.00755 26.8251
531 1 -1.1104 1.18296 -1.07742 23.8622
533 2 2.2208 5.25123 -2.6065 25.2268
535 1 -1.1104 1.17957 -1.07011 26.5094
537 1 -1.1104 3.91126 -3.92288 23.9801
539 2 2.2208 2.59819 0.272526 25.2707
540 1 -1.1104 4.06686 -4.13052 26.6805
542 2 2.2208 2.38888 -2.54465 22.4372
544 1 -1.1104 3.76999 -1.15349 23.6046
545 1 -1.1104 3.84183 -1.32344 26.6297
529 1 -1.1104 6.96481 -3.96367 26.5182
305 2 2.2208 5.68864 -2.51891 14.0029
337 1 -1.1104 6.56673 -3.99839 21.1397
536 1 -1.1104 6.60453 -1.19494 26.5398
400 1 -1.1104 9.82509 18.8006 23.5229
402 1 -1.1104 6.81182 18.4107 26.4927
374 1 -1.1104 12.4476 -3.95153 20.8148
369 1 -1.1104 12.6434 15.8879 26.7305
525 1 -1.1104 6.91654 -3.90974 23.8066
381 1 -1.1104 12.4882 -1.06914 21.1598
347 1 -1.1104 6.97028 -1.14196 21.2178
532 1 -1.1104 6.50235 -1.22456 23.989
558 2 2.2208 11.2355 0.293392 22.342
559 1 -1.1104 12.3645 -3.90443 23.7878
561 1 -1.1104 12.7173 -4.0477 26.8658
563 1 -1.1104 12.3349 -0.957946 23.8951
564 2 2.2208 10.9546 -2.59785 25.0288
566 1 -1.1104 12.1818 -1.29345 26.5691
567 1 -1.1104 9.46893 -3.86748 23.5781
569 2 2.2208 8.05657 0.217153 25.1822
570 1 -1.1104 9.77674 -3.94396 26.4348
572 2 2.2208 8.06274 -2.60415 22.4044
574 1 -1.1104 9.56677 -1.29759 23.7693
575 1 -1.1104 9.40636 -1.04552 26.6111
9475 2 2.2208 -0.205274 0.236564 16.6166
407 1 -1.1104 0.896984 7.29988 20.7295
308 2 2.2208 -0.399797 20.1667 13.7155
9227 2 2.2208 -0.307631 -2.62906 13.9195
423 1 -1.1104 4.119 7.38512 20.7095
585 2 2.2208 -0.218537 0.396152 22.4292
428 1 -1.1104 3.89244 4.31584 21.1166
524 1 -1.1104 1.06416 1.71821 23.951
528 1 -1.1104 0.692299 1.66592 26.881
534 2 2.2208 5.15157 3.30103 25.3423
538 1 -1.1104 4.12188 1.61566 23.9339
541 1 -1.1104 3.86141 1.85622 26.505
543 2 2.2208 2.70977 3.00295 22.6261
587 2 2.2208 5.33426 5.85862 22.1736
593 1 -1.1104 1.06737 4.56289 23.2792
598 1 -1.1104 1.10355 4.20742 26.0651
603 2 2.2208 2.31519 5.98125 24.8839
605 1 -1.1104 3.78388 7.30473 26.0508
607 1 -1.1104 3.73195 4.52152 24.0869
602 1 -1.1104 3.83892 7.32778 23.3851
591 1 -1.1104 0.915 7.35049 26.4968
589 1 -1.1104 1.01962 7.2293 23.4394
595 1 -1.1104 6.55627 4.3405 23.4757
600 1 -1.1104 6.73433 4.62252 26.3276
9304 2 2.2208 -0.290687 2.99831 19.3013
439 1 -1.1104 12.4806 7.38878 20.7975
530 1 -1.1104 6.72916 1.87854 26.5418
451 1 -1.1104 9.61467 7.10812 20.8337
376 1 -1.1104 12.4495 1.63149 20.732
339 1 -1.1104 6.72718 1.52189 20.9284
409 1 -1.1104 6.91866 7.15263 21.0412
526 1 -1.1104 6.8887 1.63539 23.7468
592 1 -1.1104 6.98123 7.28528 26.6486
590 1 -1.1104 6.71167 7.12305 23.8862
388 1 -1.1104 9.5742 1.42284 20.8661
456 1 -1.1104 9.42364 4.46522 20.8511
560 1 -1.1104 12.5698 1.83692 23.556
562 1 -1.1104 12.4834 1.55432 26.7343
565 2 2.2208 11.0974 3.05074 25.1295
568 1 -1.1104 9.85425 1.55817 23.5635
571 1 -1.1104 9.60922 1.60961 26.5723
573 2 2.2208 8.25239 3.05627 22.2351
619 1 -1.1104 9.38302 4.26833 26.5999
621 1 -1.1104 9.50899 4.49536 23.6407
625 2 2.2208 8.29438 5.64248 25.0601
626 2 2.2208 11.0094 5.94693 22.2332
630 1 -1.1104 12.3351 4.56125 23.6898
633 1 -1.1104 12.4127 4.5026 26.707
629 1 -1.1104 12.2957 7.35771 26.4363
628 1 -1.1104 12.3652 7.38152 23.6541
635 1 -1.1104 9.62563 7.40971 23.7054
623 1 -1.1104 9.73126 7.09944 26.2394
521 2 2.2208 11.0271 19.9557 13.9395
306 2 2.2208 2.60193 0.204777 13.8227
467 1 -1.1104 1.00743 13.0017 20.5462
416 1 -1.1104 0.908654 10.192 20.8395
612 1 -1.1104 3.77338 13.0013 26.594
588 2 2.2208 5.44141 11.5689 22.2156
594 1 -1.1104 1.06104 10.0423 23.7597
597 2 2.2208 5.23687 8.74124 24.8203
599 1 -1.1104 0.732196 10.1453 26.4818
604 2 2.2208 2.30459 11.7104 24.8935
606 2 2.2208 2.61257 8.58772 21.9603
608 1 -1.1104 3.81818 10.107 23.5471
610 1 -1.1104 3.73877 10.0293 26.4152
644 1 -1.1104 3.93727 13.0031 23.7199
648 1 -1.1104 0.988103 13.2499 26.5739
654 1 -1.1104 0.989898 13.0447 23.5034
643 1 -1.1104 6.72367 12.755 26.3749
458 1 -1.1104 9.42035 9.89296 20.8431
367 2 2.2208 10.8391 14.2475 25.0612
470 1 -1.1104 6.81483 12.8257 20.7869
419 1 -1.1104 6.66807 10.211 20.8145
652 1 -1.1104 6.69751 12.7256 23.5889
596 1 -1.1104 6.76797 9.86826 23.4567
601 1 -1.1104 6.62832 10.0459 26.5429
513 1 -1.1104 9.75622 12.8574 20.696
446 1 -1.1104 12.3751 9.89022 20.7308
501 1 -1.1104 12.5551 12.7353 20.8203
617 1 -1.1104 12.3294 13.0878 26.4318
615 1 -1.1104 12.3586 13.0606 23.8089
618 1 -1.1104 9.56299 10.03 26.6135
620 1 -1.1104 9.62957 10.3047 23.6476
622 2 2.2208 8.12536 8.51787 22.2829
624 2 2.2208 8.02219 11.356 25.1417
627 2 2.2208 11.0509 11.5949 22.1028
631 1 -1.1104 12.4943 10.3476 23.4099
632 2 2.2208 11.0117 8.68584 25.1997
634 1 -1.1104 12.3715 10.1946 26.4287
432 1 -1.1104 9.43122 12.8109 26.6286
395 1 -1.1104 9.56214 12.9129 23.4344
460 2 2.2208 8.31126 14.2371 22.0383
495 1 -1.1104 9.78328 15.6145 26.6498
459 1 -1.1104 9.52332 18.3734 26.5972
479 1 -1.1104 6.69254 15.656 21.0217
577 2 2.2208 2.5171 14.2736 22.0927
651 2 2.2208 5.34245 14.185 25.1185
653 1 -1.1104 1.36832 15.5734 23.6489
576 2 2.2208 2.53366 17.197 24.7323
578 1 -1.1104 3.90605 18.6411 26.2238
583 1 -1.1104 3.96513 15.7889 23.1804
638 2 2.2208 5.50612 17.3626 22.2662
640 1 -1.1104 3.79313 15.918 26.5794
642 1 -1.1104 4.09799 18.5384 23.5006
646 1 -1.1104 1.16549 18.7314 26.016
647 1 -1.1104 0.814737 16.0284 26.315
650 2 2.2208 5.35058 19.9477 24.8735
496 2 2.2208 10.8369 14.2149 13.7026
586 1 -1.1104 6.65021 15.773 23.8208
551 1 -1.1104 12.4866 18.8978 26.5765
515 1 -1.1104 9.59647 18.6723 20.7766
492 2 2.2208 8.26871 20.0562 22.1533
649 1 -1.1104 7.25111 18.5035 23.5734
549 1 -1.1104 12.3635 15.6351 23.6862
508 1 -1.1104 12.2689 15.8199 20.8354
494 1 -1.1104 9.38613 15.5647 23.716
503 1 -1.1104 12.3945 18.6135 20.7752
307 2 2.2208 5.09877 3.01795 13.8211
493 2 2.2208 5.29404 20.0004 13.7986
323 2 2.2208 2.49541 20.0418 27.7168
431 2 2.2208 5.2236 8.56054 13.8465
550 2 2.2208 2.28996 3.14177 27.7674
662 2 2.2208 5.12064 22.7841 5.47664
664 1 -1.1104 1.16597 24.1776 0.860687
665 1 -1.1104 1.08336 24.1577 3.6717
666 1 -1.1104 1.07986 21.2197 1.04058
668 2 2.2208 5.23569 25.6559 2.40489
669 1 -1.1104 1.08133 21.3273 3.77774
671 1 -1.1104 3.70785 24.2547 1.11957
672 2 2.2208 2.54061 22.8113 2.47148
674 1 -1.1104 3.83812 24.12 3.99049
675 2 2.2208 2.36644 25.5092 5.15556
676 1 -1.1104 3.75075 21.4642 1.18084
678 1 -1.1104 3.89223 21.4522 3.98775
670 1 -1.1104 0.954025 26.9687 3.80236
677 1 -1.1104 3.92441 26.9708 1.11399
1199 2 2.2208 5.44642 28.4568 -0.194294
679 1 -1.1104 3.87465 27.1534 3.87479
667 1 -1.1104 1.12884 26.9294 0.935219
1345 1 -1.1104 1.13979 46.7978 1.16116
1255 2 2.2208 2.49206 36.9988 -0.398883
1566 1 -1.1104 9.46346 46.6502 6.66866
1200 2 2.2208 -0.34342 28.3336 -0.253336
684 1 -1.1104 6.68227 24.3656 3.87207
683 1 -1.1104 6.64384 24.0382 0.950004
688 1 -1.1104 6.762 27.0533 3.96803
687 1 -1.1104 6.72863 21.597 4.05178
685 1 -1.1104 6.60356 21.4046 1.15164
689 2 2.2208 10.9614 22.9431 5.29538
691 1 -1.1104 12.0305 24.4568 0.979946
692 1 -1.1104 12.2846 24.3925 3.94344
693 1 -1.1104 12.3646 21.4074 1.37736
695 2 2.2208 10.69 25.6682 2.33327
696 1 -1.1104 12.3785 21.5284 3.98575
698 1 -1.1104 9.38386 24.2185 0.991898
699 2 2.2208 7.97046 22.7782 2.57326
701 1 -1.1104 9.28039 24.1461 4.04729
702 2 2.2208 8.19903 25.8261 5.36761
703 1 -1.1104 9.53595 21.2843 1.21348
705 1 -1.1104 9.5504 21.489 4.03547
704 1 -1.1104 9.41819 26.81 0.967442
706 1 -1.1104 9.61501 27.091 3.84693
694 1 -1.1104 12.3606 26.9986 1.25833
973 2 2.2208 -0.255504 25.7812 8.27564
686 1 -1.1104 6.65706 26.8939 1.06238
697 1 -1.1104 12.2646 27.0571 3.96659
1225 2 2.2208 10.8794 22.7236 -0.233516
732 2 2.2208 -0.286131 31.2391 2.51607
663 2 2.2208 5.37871 28.5333 5.29285
673 2 2.2208 2.51075 28.4613 2.3795
712 1 -1.1104 1.02827 29.8742 1.1279
715 1 -1.1104 1.20906 29.829 3.93988
718 1 -1.1104 1.19396 32.7161 1.03969
719 2 2.2208 5.33942 31.4276 2.51156
721 1 -1.1104 1.04238 32.6516 4.0437
723 1 -1.1104 3.90719 29.8854 1.11919
726 1 -1.1104 4.10369 29.8794 3.81492
728 2 2.2208 2.47431 31.2189 5.40764
730 1 -1.1104 3.9403 32.8561 0.966698
731 1 -1.1104 3.96907 32.6891 3.80573
1256 2 2.2208 2.57206 31.3566 -0.317193
9917 2 2.2208 -0.342384 39.7367 -0.158466
10178 2 2.2208 13.6934 42.5123 -0.259532
979 2 2.2208 -0.24108 31.155 8.34893
734 1 -1.1104 6.73139 29.8368 1.28211
735 1 -1.1104 6.86815 29.7471 3.95387
722 1 -1.1104 6.71391 32.6814 3.97094
736 1 -1.1104 6.95059 32.7559 1.29604
690 2 2.2208 11.0928 28.592 5.31615
700 2 2.2208 8.13013 28.4954 2.46268
738 1 -1.1104 12.481 29.7423 1.16189
740 1 -1.1104 12.5305 29.9384 3.9922
742 1 -1.1104 12.5406 32.6108 1.31009
743 2 2.2208 11.2025 31.2347 2.54284
745 1 -1.1104 12.3948 32.734 3.95246
746 1 -1.1104 9.69207 29.6787 1.16133
749 1 -1.1104 9.77185 30.0251 4.08976
751 2 2.2208 8.20535 31.206 5.30622
753 1 -1.1104 9.57863 32.6122 1.25546
754 1 -1.1104 9.45616 32.7981 3.92069
707 2 2.2208 13.6432 22.889 2.69834
1196 2 2.2208 5.2741 22.8562 -0.421513
1316 2 2.2208 5.28923 39.6375 -0.134154
1231 2 2.2208 10.8902 28.2516 -0.36566
711 2 2.2208 5.21183 34.0524 5.37137
713 1 -1.1104 1.05511 35.5896 0.948592
716 1 -1.1104 0.994278 35.4553 3.95464
720 2 2.2208 5.29056 36.8992 2.69828
724 1 -1.1104 3.86066 35.7054 1.1279
725 2 2.2208 2.51803 34.1485 2.47313
727 1 -1.1104 3.77801 35.6658 3.87584
729 2 2.2208 2.52109 36.9236 5.53451
756 2 2.2208 5.18609 39.9012 5.50296
762 1 -1.1104 1.04531 38.1429 0.985292
767 1 -1.1104 1.09017 38.2621 3.9943
772 2 2.2208 2.41196 39.6697 2.64328
776 1 -1.1104 3.78004 38.4463 1.13039
778 1 -1.1104 3.84421 38.3977 4.03411
860 1 -1.1104 1.05324 35.5455 6.84193
1565 1 -1.1104 12.229 46.7149 6.50528
9838 2 2.2208 -0.357014 42.7156 2.56746
733 2 2.2208 -0.298047 37.0587 2.59507
866 1 -1.1104 3.96299 35.4253 6.69533
710 2 2.2208 -0.276232 33.9992 5.63834
959 1 -1.1104 9.64526 41.3349 12.552
714 1 -1.1104 6.67943 35.4921 1.14385
769 1 -1.1104 6.68661 38.2721 4.19668
764 1 -1.1104 6.60745 38.228 1.45794
717 1 -1.1104 6.68134 35.4972 3.9827
737 2 2.2208 10.9137 34.0857 5.33587
739 1 -1.1104 12.2696 35.4744 1.13123
741 1 -1.1104 12.4089 35.6987 4.05512
744 2 2.2208 10.8736 36.9893 2.48072
747 1 -1.1104 9.37398 35.3967 1.25296
748 2 2.2208 8.13476 34.192 2.69768
750 1 -1.1104 9.32399 35.6511 3.84363
752 2 2.2208 7.91872 37.0714 5.47358
783 2 2.2208 10.889 39.5965 5.55344
787 1 -1.1104 12.2847 38.1452 0.923089
790 1 -1.1104 12.2783 38.4555 3.93395
797 1 -1.1104 9.45652 38.1853 1.30988
799 1 -1.1104 9.48089 38.5661 3.94099
793 2 2.2208 7.93438 39.89 2.57334
1284 2 2.2208 7.94115 36.9316 -0.207049
9844 1 -1.1104 0.908468 46.8077 9.36537
757 2 2.2208 5.09357 45.7511 5.53008
758 1 -1.1104 1.16962 41.1316 1.32352
760 1 -1.1104 1.08934 41.1053 4.07324
763 1 -1.1104 1.27703 44.0486 1.16325
766 2 2.2208 5.17217 42.6521 2.62527
768 1 -1.1104 1.25455 44.0432 3.95647
771 1 -1.1104 3.88348 41.214 1.4333
773 2 2.2208 2.45749 45.4345 2.59781
774 1 -1.1104 3.91992 41.1665 4.20452
775 2 2.2208 2.45102 42.6058 5.31079
777 1 -1.1104 3.86771 44.1248 1.18573
779 1 -1.1104 3.90953 44.0563 4.09796
759 1 -1.1104 6.61537 41.0502 1.23804