ITEM: TIMESTEP
80000
ITEM: NUMBER OF ATOMS
17730
ITEM: BOX BOUNDS pp pp pp
-4.4061727236155634e-01 2.7780617272361184e+01
-5.2288335026139343e+00 3.3330883350260797e+02
-4.4489444400946543e-01 2.7784894444008732e+01
ITEM: ATOMS id type q x y z
1 2 2.2208 5.08404 0.355202 4.95449
2 1 -1.1104 0.864157 -3.64729 0.713183
6 1 -1.1104 0.899386 -3.54362 3.61951
10 1 -1.1104 0.97295 -0.917661 0.724124
12 2 2.2208 4.84197 -2.37069 2.12761
14 1 -1.1104 0.942302 -0.73787 3.68992
16 1 -1.1104 3.49705 -3.86377 0.491519
18 2 2.2208 2.1955 0.417047 2.12911
19 1 -1.1104 3.57739 -3.99164 3.68815
21 2 2.2208 2.19773 -2.45402 4.96032
23 1 -1.1104 3.71654 -0.643436 0.641167
24 1 -1.1104 3.56182 -1.21153 3.3366
11 1 -1.1104 6.36913 -0.903357 0.796445
162 1 -1.1104 3.4539 -0.806323 6.45163
154 1 -1.1104 1.05604 -3.64964 6.36026
8 1 -1.1104 6.58423 -3.81004 3.75552
25 2 2.2208 13.6423 14.3971 10.7507
9198 2 2.2208 -0.374253 -2.31648 2.2677
156 1 -1.1104 6.66939 -3.87011 6.45882
656 2 2.2208 10.4789 3.20083 13.4229
4 1 -1.1104 6.40909 -3.83154 0.832961
15 1 -1.1104 6.23516 -0.884588 3.49385
31 2 2.2208 10.7398 0.540237 4.91968
32 1 -1.1104 11.9741 -3.77371 0.704607
34 1 -1.1104 11.9971 -4.10611 3.69556
36 1 -1.1104 12.0464 -0.812267 0.769372
37 2 2.2208 10.8679 -2.5373 2.10697
39 1 -1.1104 12.2695 -1.10942 3.40342
40 1 -1.1104 9.24209 -3.90855 0.929345
42 2 2.2208 7.96296 0.554482 2.158
43 1 -1.1104 9.2302 -3.61654 3.59079
45 2 2.2208 7.99862 -2.42727 4.88949
47 1 -1.1104 9.34697 -1.14718 0.649523
48 1 -1.1104 9.35607 -0.967657 3.56345
219 1 -1.1104 9.34075 15.8143 11.8649
159 1 -1.1104 6.20158 -0.875524 6.5488
195 1 -1.1104 11.9513 -0.995679 6.30058
198 1 -1.1104 9.07147 -1.19152 6.43032
17360 2 2.2208 13.6195 -5.13121 2.20474
20 1 -1.1104 3.58047 1.73718 3.65694
3 1 -1.1104 0.592648 1.88204 0.850222
7 1 -1.1104 0.800915 2.22444 3.63642
13 2 2.2208 5.22895 3.24368 2.18405
17 1 -1.1104 3.42626 2.61348 0.863218
22 2 2.2208 2.3543 3.21544 5.24718
54 2 2.2208 5.0749 6.03101 4.96184
74 1 -1.1104 3.79566 4.3876 3.81074
8976 1 -1.1104 0.111271 4.35975 0.360715
61 1 -1.1104 6.24391 4.30543 0.552146
223 1 -1.1104 6.61845 7.27862 6.3794
70 1 -1.1104 3.73732 7.69034 3.78602
68 1 -1.1104 3.92823 7.48342 0.725123
226 1 -1.1104 3.76745 7.25787 6.59231
222 1 -1.1104 1.0343 7.52784 6.54099
9218 2 2.2208 -0.420918 17.3671 5.1033
657 2 2.2208 5.2845 14.6504 13.6557
5 1 -1.1104 6.63495 1.79555 0.566328
66 1 -1.1104 6.5722 4.89145 3.40899
58 1 -1.1104 6.58327 7.69571 3.60714
57 1 -1.1104 6.56406 7.51512 0.913058
9 1 -1.1104 6.56064 1.82551 3.52225
33 1 -1.1104 12.1114 1.8948 0.81423
35 1 -1.1104 12.2823 1.9281 3.47699
38 2 2.2208 10.8404 3.46734 2.36671
41 1 -1.1104 9.38089 1.8393 0.868843
44 1 -1.1104 9.49456 1.97823 3.56048
46 2 2.2208 8.03714 3.33784 5.07219
78 2 2.2208 10.8078 6.22245 5.24505
82 1 -1.1104 12.126 4.65061 0.786296
86 1 -1.1104 12.0177 4.80365 3.81127
88 1 -1.1104 9.31225 7.65216 0.796571
89 2 2.2208 7.94095 6.17592 2.18527
93 1 -1.1104 9.2869 4.73674 0.856251
96 1 -1.1104 9.39971 4.97999 3.65665
81 1 -1.1104 12.1685 7.63518 3.73066
80 1 -1.1104 12.1117 7.35912 0.89547
91 1 -1.1104 9.38346 7.51612 3.85078
255 1 -1.1104 9.28864 7.74083 6.69206
157 1 -1.1104 6.7574 1.94946 6.26551
253 1 -1.1104 12.0711 7.4146 6.66299
225 1 -1.1104 6.27656 4.62586 6.44019
56 1 -1.1104 0.709654 7.41854 1.01659
55 2 2.2208 5.01739 11.5961 5.13858
59 1 -1.1104 0.891343 10.2005 1.00748
64 2 2.2208 5.06291 8.87293 2.1904
65 1 -1.1104 1.05644 9.68404 3.76605
69 2 2.2208 2.30936 11.5163 2.50672
71 2 2.2208 2.4445 8.78098 5.2187
72 1 -1.1104 3.619 10.7542 0.773248
75 1 -1.1104 3.85498 10.416 3.64279
100 1 -1.1104 1.35601 13.2332 1.09573
106 1 -1.1104 0.721704 13.0314 3.81139
114 1 -1.1104 3.5347 13.0058 3.93288
60 1 -1.1104 0.952408 10.4243 6.46486
73 1 -1.1104 3.61958 9.96369 6.51963
103 1 -1.1104 6.54948 12.9913 0.624067
62 1 -1.1104 6.6154 10.1851 0.504528
67 1 -1.1104 6.49648 10.2334 3.62613
108 1 -1.1104 6.70695 13.0382 3.77133
79 2 2.2208 10.8352 11.5986 5.21584
83 1 -1.1104 12.0764 10.3761 0.961932
85 2 2.2208 10.6928 9.02768 2.46167
87 1 -1.1104 12.1876 10.2924 3.9681
90 2 2.2208 7.71269 11.625 2.15638
92 2 2.2208 7.89621 8.87596 5.11542
94 1 -1.1104 9.26799 10.3678 0.878477
97 1 -1.1104 9.35128 10.0555 3.92038
130 1 -1.1104 12.0552 13.1786 0.589998
134 1 -1.1104 12.031 13.1248 3.72255
141 1 -1.1104 9.35487 13.1627 0.696836
146 1 -1.1104 9.27739 12.869 3.56316
63 1 -1.1104 6.50576 10.2729 6.69905
95 1 -1.1104 9.51653 10.2852 6.64108
84 1 -1.1104 12.3197 10.1388 6.88448
142 1 -1.1104 9.34444 13.0221 6.53532
131 1 -1.1104 12.1248 12.9765 6.6794
119 2 2.2208 2.19405 14.3296 5.32605
102 1 -1.1104 0.765546 18.8851 0.307074
107 1 -1.1104 0.72483 18.6537 3.41745
109 1 -1.1104 1.00992 16.0185 0.992572
112 2 2.2208 5.11755 20.0178 2.43334
113 1 -1.1104 1.10871 15.8238 3.80344
115 1 -1.1104 3.54164 18.9821 0.968044
117 2 2.2208 2.41246 17.2668 2.30232
118 1 -1.1104 3.54433 18.5348 3.79411
120 2 2.2208 2.28759 20.178 5.13493
121 1 -1.1104 3.59365 15.7644 0.907449
292 1 -1.1104 3.35458 15.7716 6.73186
290 1 -1.1104 1.09518 18.6769 6.53363
126 1 -1.1104 6.30476 18.8197 0.77969
26 2 2.2208 13.5538 20.3022 10.7234
165 2 2.2208 13.6184 19.9131 5.03727
110 1 -1.1104 0.818384 15.8609 6.68918
49 1 -1.1104 12.3687 19.0039 12.1939
148 2 2.2208 8.03746 14.2076 5.22051
127 1 -1.1104 6.55256 18.6869 3.47549
128 1 -1.1104 6.62788 16.2056 0.822104
138 2 2.2208 10.7164 14.4649 2.12474
129 2 2.2208 10.6922 17.1026 4.99031
132 1 -1.1104 12.4115 18.5713 0.680274
135 1 -1.1104 12.0486 18.6626 3.54378
136 1 -1.1104 12.3873 15.9207 0.998713
139 2 2.2208 10.745 19.9987 2.13466
140 1 -1.1104 12.1312 15.8141 3.72979
143 1 -1.1104 9.24518 18.7246 0.620661
145 2 2.2208 8.05117 17.2237 2.15784
147 1 -1.1104 9.24484 18.6042 3.64973
149 2 2.2208 7.93472 19.9141 5.02848
150 1 -1.1104 9.34266 15.9737 0.66918
152 1 -1.1104 9.16397 15.6763 3.40647
144 1 -1.1104 9.30667 18.7063 6.55495
133 1 -1.1104 12.2407 18.5671 6.414
111 1 -1.1104 6.8259 15.6606 6.54939
137 1 -1.1104 12.2572 15.928 6.64761
160 1 -1.1104 3.88573 -3.7478 6.39058
8518 2 2.2208 2.39496 -5.21813 7.83118
521 2 2.2208 10.8921 20.2993 13.5404
158 1 -1.1104 0.691606 -0.862728 6.58228
166 2 2.2208 5.11743 0.322183 10.8501
167 1 -1.1104 0.893919 -3.89299 12.1611
171 1 -1.1104 0.893238 -3.80011 9.40542
175 1 -1.1104 1.17076 -0.906493 12.1983
177 2 2.2208 5.2677 -2.5458 7.69679
179 1 -1.1104 0.83083 -1.1502 9.23693
181 1 -1.1104 3.49593 -3.67503 12.2588
183 2 2.2208 2.21417 0.451251 7.95926
184 1 -1.1104 3.8117 -3.90944 9.23075
186 2 2.2208 2.29874 -2.45547 10.6045
188 1 -1.1104 3.75347 -0.963686 12.2832
189 1 -1.1104 3.96134 -1.19937 9.30897
433 2 2.2208 7.98956 11.7454 13.5131
180 1 -1.1104 6.76828 -0.900556 9.23281
173 1 -1.1104 6.62531 -3.85482 9.43306
99 2 2.2208 10.9367 14.4625 7.91919
193 1 -1.1104 12.3309 -3.71013 6.52347
196 1 -1.1104 9.53116 -4.01648 6.41339
164 2 2.2208 13.6103 14.4306 5.01252
52 2 2.2208 13.6358 0.481364 2.20807
323 2 2.2208 2.42403 20.3292 -0.410649
176 1 -1.1104 6.30482 -1.12218 12.192
169 1 -1.1104 6.40997 -3.88795 12.3578
201 2 2.2208 10.8397 0.386551 10.5539
202 1 -1.1104 12.169 -3.84857 12.2097
204 1 -1.1104 12.3128 -3.878 9.38774
206 1 -1.1104 12.3203 -1.21131 11.8943
207 2 2.2208 10.7141 -2.4209 7.85531
209 1 -1.1104 12.1215 -1.0221 9.2905
210 1 -1.1104 9.13644 -3.72561 12.1806
212 2 2.2208 7.94408 0.314362 7.75262
213 1 -1.1104 9.37305 -3.8464 9.166
215 2 2.2208 7.94986 -2.43771 10.8237
217 1 -1.1104 9.53729 -1.02859 11.9219
218 1 -1.1104 9.48511 -1.06675 9.20292
8905 2 2.2208 13.6443 -2.38394 10.6909
155 1 -1.1104 0.894686 1.96367 6.59846
227 1 -1.1104 3.52387 4.53886 6.51077
321 2 2.2208 13.6319 3.35591 4.90759
427 2 2.2208 2.34514 11.6976 13.5572
161 1 -1.1104 3.81109 1.83331 6.65809
224 1 -1.1104 0.951962 4.5277 6.52561
168 1 -1.1104 0.952366 1.93811 12.1858
172 1 -1.1104 1.01578 1.61416 9.43796
178 2 2.2208 5.20934 3.25584 7.89322
182 1 -1.1104 3.46494 1.80693 12.4174
185 1 -1.1104 3.82865 1.59187 9.45166
187 2 2.2208 2.29174 3.20345 10.8137
228 2 2.2208 5.01975 6.0912 10.6876
234 1 -1.1104 1.21872 4.72782 12.1665
239 1 -1.1104 0.991026 4.62027 9.20101
244 2 2.2208 2.26988 5.98398 7.97516
248 1 -1.1104 4.28682 4.61569 12.1613
250 1 -1.1104 3.75532 4.4428 9.55732
230 1 -1.1104 0.972532 7.44326 12.3495
232 1 -1.1104 0.934812 7.45262 9.46143
243 1 -1.1104 3.74514 7.29288 12.2157
246 1 -1.1104 3.71106 7.53724 9.42201
434 2 2.2208 10.9576 8.8504 13.6114
493 2 2.2208 5.31369 20.2241 13.529
197 1 -1.1104 9.42184 1.62831 6.53769
257 1 -1.1104 9.37294 4.66284 6.44319
254 1 -1.1104 12.1488 4.62722 6.44234
233 1 -1.1104 6.51269 7.39175 9.27464
324 2 2.2208 13.5718 5.92867 13.6009
194 1 -1.1104 12.308 1.81695 6.22067
241 1 -1.1104 6.32782 4.49031 9.29035
170 1 -1.1104 6.62501 1.78182 12.0326
174 1 -1.1104 6.64525 1.87036 9.18734
231 1 -1.1104 6.63749 7.20503 11.907
203 1 -1.1104 12.1331 1.72379 12.0095
205 1 -1.1104 12.0242 1.77643 9.04666
208 2 2.2208 10.8152 3.08647 7.81408
211 1 -1.1104 9.34207 1.63504 11.986
214 1 -1.1104 9.34471 1.76941 9.38992
216 2 2.2208 7.94411 2.994 10.5408
256 1 -1.1104 9.15656 4.33892 9.35046
259 1 -1.1104 9.11771 4.75443 12.1346
263 2 2.2208 7.88283 6.0512 7.93843
264 2 2.2208 10.7429 6.07729 10.7554
268 1 -1.1104 12.1157 4.70474 12.2433
271 1 -1.1104 11.9851 4.54905 9.3622
266 1 -1.1104 12.424 7.36904 11.9936
267 1 -1.1104 12.1216 7.42618 9.43611
261 1 -1.1104 9.40479 7.44061 9.39905
273 1 -1.1104 9.34275 7.55954 12.1311
655 2 2.2208 13.5802 8.89725 -0.41551
122 1 -1.1104 3.68307 12.9519 6.66382
322 2 2.2208 5.11882 17.2545 -0.372106
101 1 -1.1104 0.824862 13.107 6.5812
229 2 2.2208 5.17109 11.7362 10.7505
235 1 -1.1104 0.802102 10.147 12.1986
238 2 2.2208 5.102 8.82216 7.91091
240 1 -1.1104 0.939895 10.3044 9.41515
245 2 2.2208 2.34417 11.6735 8.05681
247 2 2.2208 2.35221 8.75649 10.8596
249 1 -1.1104 3.6081 10.3452 12.0716
251 1 -1.1104 3.77398 10.2602 9.31874
275 1 -1.1104 3.89578 13.4298 12.205
282 1 -1.1104 0.884404 12.9725 9.32506
287 1 -1.1104 0.92837 13.0618 12.3848
293 1 -1.1104 3.66925 13.135 9.4465
242 1 -1.1104 6.52415 10.2934 9.50407
310 2 2.2208 10.6957 -2.42649 13.5197
658 2 2.2208 8.06511 17.4127 13.394
9133 2 2.2208 -0.396634 8.75641 7.96644
104 1 -1.1104 6.49553 12.8843 6.4371
311 2 2.2208 13.4249 0.412236 13.343
285 1 -1.1104 6.49739 13.0128 12.1103
278 1 -1.1104 6.56476 13.2511 9.39469
237 1 -1.1104 6.47947 10.3018 12.3459
199 1 -1.1104 9.47409 13.1162 9.35966
252 1 -1.1104 9.30049 10.3704 9.36601
258 1 -1.1104 9.44057 10.1909 12.0901
260 2 2.2208 7.89705 8.86755 10.6889
262 2 2.2208 8.03716 11.6697 7.89679
265 2 2.2208 10.7517 11.5698 10.817
269 1 -1.1104 12.1769 10.1762 12.2485
270 2 2.2208 10.8646 8.92109 7.98326
272 1 -1.1104 12.3701 10.3119 9.51017
190 1 -1.1104 9.24378 13.1131 12.2589
30 1 -1.1104 12.2605 13.098 12.1509
53 1 -1.1104 12.2982 13.1497 9.53513
309 2 2.2208 8.01909 0.323613 13.4507
9230 2 2.2208 13.6277 8.76113 10.6505
9115 2 2.2208 13.5263 5.96943 8.08646
123 2 2.2208 10.8652 20.2574 7.89673
313 2 2.2208 8.09784 6.24491 13.5551
276 1 -1.1104 6.76419 18.7427 9.62189
298 2 2.2208 2.36487 14.5127 10.7953
283 2 2.2208 5.25267 14.529 7.83808
116 1 -1.1104 3.65699 18.9436 8.85539
274 1 -1.1104 3.9264 18.7196 11.8212
279 1 -1.1104 0.962102 18.6841 9.19609
280 1 -1.1104 0.979834 15.4425 9.43677
281 2 2.2208 5.35956 20.293 7.88939
286 1 -1.1104 0.962842 18.9183 12.086
288 2 2.2208 5.2525 17.2904 10.6144
289 1 -1.1104 3.80491 15.8971 9.49183
291 2 2.2208 2.26375 17.1498 8.06955
295 1 -1.1104 0.563671 15.9515 12.3236
296 1 -1.1104 3.68155 16.0041 12.2632
297 2 2.2208 2.46685 20.2059 10.622
277 1 -1.1104 6.74082 15.9813 9.22655
153 2 2.2208 13.7005 17.3218 2.24966
77 1 -1.1104 12.1232 16.1158 12.3757
151 1 -1.1104 9.41373 15.7524 6.27601
98 2 2.2208 13.4027 11.905 2.21957
191 1 -1.1104 9.42049 18.6487 12.2842
76 1 -1.1104 12.3093 18.7769 9.56077
220 1 -1.1104 9.54718 18.6883 9.5218
302 1 -1.1104 9.50796 15.9541 9.07003
200 2 2.2208 8.18998 20.0964 10.8526
284 1 -1.1104 6.81144 19.0266 12.2632
294 1 -1.1104 6.47663 15.8774 12.1451
51 2 2.2208 13.5903 11.723 8.09522
105 1 -1.1104 6.47378 18.6916 6.91086
9201 2 2.2208 13.4407 -2.54846 4.93933
221 2 2.2208 7.85925 14.5365 10.7075
192 2 2.2208 8.08877 17.2696 7.82169
29 2 2.2208 10.9886 17.2878 10.7381
163 1 -1.1104 12.1953 15.9914 9.5007
305 2 2.2208 4.98237 -2.40951 13.4622
8906 2 2.2208 13.5886 0.255787 7.8329
28 2 2.2208 13.4981 17.3709 7.96712
9039 2 2.2208 13.4413 3.26391 10.9193
314 2 2.2208 13.523 6.17643 2.16258
301 2 2.2208 7.88449 -5.14064 2.35471
582 2 2.2208 13.6658 11.7129 13.5674
327 2 2.2208 5.00368 0.224126 16.4916
328 1 -1.1104 0.893268 -3.83789 17.7942
332 1 -1.1104 0.75674 -3.86783 15.0063
340 1 -1.1104 0.711597 -0.961771 18.019
342 2 2.2208 4.99627 -2.26439 19.3931
344 1 -1.1104 0.706376 -1.15871 15.1101
348 1 -1.1104 3.51458 -3.84396 17.786
350 2 2.2208 2.13412 0.491472 19.2719
351 1 -1.1104 3.70044 -4.11347 15.009
355 2 2.2208 2.13652 -2.68252 16.3117
357 1 -1.1104 3.55219 -0.988332 17.7816
358 1 -1.1104 3.62556 -1.16389 15.0802
333 1 -1.1104 0.75997 -4.11091 20.6851
341 1 -1.1104 6.34053 -1.12471 17.9154
330 1 -1.1104 6.4235 -3.96182 17.9504
579 2 2.2208 13.5716 11.6237 19.3753
8567 2 2.2208 10.7547 -5.19481 22.1219
362 2 2.2208 13.6443 3.33925 21.9955
345 1 -1.1104 0.780367 -1.14417 20.816
359 1 -1.1104 3.50517 -0.987412 20.6305
9540 2 2.2208 13.6148 0.552428 24.9997
460 2 2.2208 7.77522 14.6745 21.9324
550 2 2.2208 2.01431 3.41874 27.4887
636 2 2.2208 10.8228 6.22352 27.4387
326 2 2.2208 10.5791 11.8165 27.6599
346 1 -1.1104 6.31884 -1.14695 15.0804
336 1 -1.1104 6.42959 -4.07296 15.0371
370 2 2.2208 10.5618 0.237524 16.5518
371 1 -1.1104 12.1291 -3.77064 17.8492
373 1 -1.1104 12.0987 -3.724 15.0302
377 1 -1.1104 11.9725 -0.92529 17.9113
378 2 2.2208 10.8381 -2.17327 19.4087
380 1 -1.1104 11.9322 -0.810386 14.8335
382 1 -1.1104 9.09861 -3.71671 17.8375
384 2 2.2208 7.77549 0.469236 19.4075
385 1 -1.1104 9.205 -3.87041 14.9964
389 2 2.2208 7.68899 -2.51797 16.4006
391 1 -1.1104 9.23069 -1.01409 17.8561
392 1 -1.1104 9.03492 -1.16522 15.0772
393 1 -1.1104 9.60504 -0.580787 20.6593
337 1 -1.1104 6.38333 -3.77986 20.8318
616 1 -1.1104 12.5154 18.8699 23.2883
347 1 -1.1104 6.51635 -1.09168 20.942
366 2 2.2208 13.402 3.17043 16.2501
353 1 -1.1104 3.6806 1.64766 15.1456
329 1 -1.1104 0.796567 1.67786 17.9251
334 1 -1.1104 0.829962 1.72208 15.1445
343 2 2.2208 5.2184 3.2673 19.0166
349 1 -1.1104 3.66086 1.87017 17.9707
356 2 2.2208 2.1638 3.07851 16.5471
406 1 -1.1104 1.10516 4.59271 15.1709
414 1 -1.1104 3.66944 4.38745 15.4453
425 1 -1.1104 1.0131 4.57275 17.9501
422 1 -1.1104 1.351 7.47866 14.926
335 1 -1.1104 0.816565 2.22818 20.5739
420 1 -1.1104 3.94312 7.63513 15.148
360 2 2.2208 13.5202 14.5821 22.0175
9259 2 2.2208 -0.396761 14.5622 24.9071
428 1 -1.1104 3.6402 4.34837 20.6424
325 2 2.2208 8.01858 3.21189 27.5497
459 1 -1.1104 9.53081 18.8762 26.1892
331 1 -1.1104 6.47111 1.62843 17.7402
338 1 -1.1104 6.40249 1.78476 14.8683
405 1 -1.1104 6.88141 7.84764 18.0381
411 1 -1.1104 6.32035 4.69637 17.5669
408 1 -1.1104 6.98837 7.6233 14.7797
372 1 -1.1104 12.1867 1.49108 17.5757
375 1 -1.1104 11.834 1.85519 14.8882
379 2 2.2208 10.7126 3.18932 18.9972
383 1 -1.1104 9.02829 2.01952 17.7735
387 1 -1.1104 9.11915 1.73931 14.8872
390 2 2.2208 7.75736 3.32518 16.107
435 2 2.2208 10.8506 6.03099 16.4139
437 1 -1.1104 12.3244 7.74002 17.7296
440 1 -1.1104 12.1127 4.47002 17.7909
443 1 -1.1104 11.9243 4.62087 15.0676
448 2 2.2208 7.81524 6.12874 19.1313
450 1 -1.1104 9.72784 7.58973 14.8732
453 1 -1.1104 9.1453 4.67158 17.7654
455 1 -1.1104 9.18734 4.80518 14.9705
447 1 -1.1104 9.7261 7.35501 17.8248
376 1 -1.1104 12.434 1.88739 20.4824
417 1 -1.1104 6.5068 4.74817 20.5549
388 1 -1.1104 9.34924 2.07766 20.7506
404 1 -1.1104 0.987112 7.79433 17.6071
403 2 2.2208 5.30454 11.8843 16.2333
410 1 -1.1104 0.823976 10.4016 17.6631
413 2 2.2208 5.20635 8.86332 19.432
415 1 -1.1104 0.983026 10.286 14.9271
421 2 2.2208 2.43145 11.7421 19.1409
424 2 2.2208 2.48698 8.79848 16.3188
426 1 -1.1104 3.61356 9.91382 17.9286
429 1 -1.1104 3.9522 10.3289 14.8788
462 1 -1.1104 1.07152 13.2773 17.6481
466 1 -1.1104 1.05252 12.8797 15.1519
480 1 -1.1104 3.83166 13.1928 17.7659
483 1 -1.1104 3.90482 12.911 14.9409
416 1 -1.1104 1.15356 10.6187 20.6931
430 1 -1.1104 3.93925 10.2785 20.6129
469 1 -1.1104 6.82116 13.4296 14.8923
401 2 2.2208 8.03652 17.331 24.8845
125 2 2.2208 13.5905 -2.31639 27.5953
438 1 -1.1104 12.5802 7.50751 14.8438
418 1 -1.1104 6.61279 10.628 14.8476
412 1 -1.1104 6.30129 10.4563 17.7413
464 1 -1.1104 6.46549 13.3079 17.6971
436 2 2.2208 10.8478 11.6014 16.3221
441 1 -1.1104 12.0725 10.4025 17.9291
442 2 2.2208 10.7159 8.97318 19.2543
445 1 -1.1104 12.3313 10.2976 15.0204
449 2 2.2208 7.77582 11.8815 18.9931
452 2 2.2208 8.07901 9.0098 16.2715
454 1 -1.1104 9.15892 10.2791 17.8579
457 1 -1.1104 9.52181 10.285 14.9161
498 1 -1.1104 12.2325 13.151 17.6833
500 1 -1.1104 12.2495 13.2326 14.8197
509 1 -1.1104 9.29466 13.3549 17.6006
512 1 -1.1104 9.55527 13.0124 15.0103
513 1 -1.1104 9.16757 13.2216 20.3797
458 1 -1.1104 9.22833 10.3369 20.6558
470 1 -1.1104 6.13746 13.1088 20.5724
8883 2 2.2208 5.21773 -5.21801 27.5154
409 1 -1.1104 6.47963 7.4488 20.5798
501 1 -1.1104 11.8381 13.2438 20.5484
487 2 2.2208 2.23446 14.4698 16.2936
475 2 2.2208 5.04399 14.5356 19.2702
461 2 2.2208 5.27938 17.5507 16.3985
463 1 -1.1104 1.172 18.7867 17.5089
468 1 -1.1104 0.958174 18.6118 14.8846
473 1 -1.1104 0.904303 16.0896 18.2125
476 2 2.2208 5.17576 20.4353 19.2845
477 1 -1.1104 0.756833 15.6501 15.141
481 1 -1.1104 3.94442 18.8962 17.6999
482 2 2.2208 2.57607 17.5925 18.9012
485 1 -1.1104 3.92937 18.5943 14.6578
488 2 2.2208 2.53019 20.108 16.2025
489 1 -1.1104 3.90358 16.0678 17.8104
490 1 -1.1104 3.57861 15.7221 14.8429
486 1 -1.1104 3.82766 18.6507 20.4079
491 1 -1.1104 3.31699 15.9359 20.5257
465 1 -1.1104 6.64433 18.8683 17.7957
479 1 -1.1104 6.36408 16.0493 20.4486
546 2 2.2208 13.5628 20.1746 21.961
611 2 2.2208 5.34074 6.13547 27.4828
649 1 -1.1104 6.64856 19.0508 23.6806
474 1 -1.1104 6.73174 15.9631 17.7493
516 2 2.2208 8.04829 14.7682 16.2766
478 1 -1.1104 6.45218 16.1377 15.1284
471 1 -1.1104 6.61963 19.0359 15.0354
505 2 2.2208 10.938 14.7118 18.9714
497 2 2.2208 10.8529 17.4401 16.129
499 1 -1.1104 12.1858 18.7869 17.5163
502 1 -1.1104 12.3409 18.8744 14.6531
504 1 -1.1104 12.4474 15.9959 17.6579
506 2 2.2208 10.7985 20.2048 19.1637
507 1 -1.1104 12.1906 15.9147 14.9434
510 1 -1.1104 9.51368 18.914 17.6166
511 2 2.2208 7.85449 17.2954 19.1301
514 1 -1.1104 9.26557 18.8947 14.8367
517 2 2.2208 8.08804 20.4131 16.5683
518 1 -1.1104 9.55946 15.9888 17.6683
519 1 -1.1104 9.22914 15.8973 14.8619
520 1 -1.1104 9.51146 15.8149 20.5077
472 1 -1.1104 6.6365 18.8506 20.6311
503 1 -1.1104 12.1523 18.8877 20.4946
515 1 -1.1104 9.38713 18.5381 20.5292
8631 2 2.2208 10.8355 -5.21872 16.4037
508 1 -1.1104 12.4292 16.0453 20.5035
352 1 -1.1104 3.64226 -3.98369 20.6868
9539 2 2.2208 13.3787 -2.34122 16.2359
492 2 2.2208 8.225 20.1401 22.1585
8630 2 2.2208 7.93555 -5.07529 19.2673
522 2 2.2208 4.93279 0.583152 22.0935
523 1 -1.1104 0.93326 -3.90337 23.4348
527 1 -1.1104 0.977251 -4.02279 26.0978
531 1 -1.1104 1.00679 -1.07835 23.6022
533 2 2.2208 5.21751 -2.28167 24.7905
535 1 -1.1104 0.89445 -0.9998 26.0928
537 1 -1.1104 3.9066 -3.68093 23.5333
539 2 2.2208 2.29823 0.346571 25.0773
540 1 -1.1104 3.8067 -3.68139 26.261
542 2 2.2208 2.36259 -2.45503 22.1014
544 1 -1.1104 3.6818 -0.91724 23.433
545 1 -1.1104 3.89148 -0.804638 26.1087
529 1 -1.1104 6.81781 -3.99326 26.3424
532 1 -1.1104 6.47395 -0.959289 23.509
659 2 2.2208 10.8728 17.2285 27.4337
495 1 -1.1104 9.36067 16.025 26.1766
613 2 2.2208 5.22701 11.4296 27.419
374 1 -1.1104 12.2266 -3.85432 20.6981
386 1 -1.1104 9.36945 -3.79543 20.5906
381 1 -1.1104 12.3026 -1.04268 20.7837
8524 2 2.2208 10.6445 -5.23451 27.5829
50 2 2.2208 2.19525 8.64372 27.7082
525 1 -1.1104 6.80848 -3.77694 23.5533
536 1 -1.1104 6.62158 -1.08811 26.3104
558 2 2.2208 10.9823 0.673827 22.0383
559 1 -1.1104 12.2201 -3.67564 23.3554
561 1 -1.1104 12.2566 -3.79096 26.1739
563 1 -1.1104 12.3114 -0.770144 23.3814
564 2 2.2208 10.8606 -2.27357 24.7407
566 1 -1.1104 12.1501 -0.913678 26.2265
567 1 -1.1104 9.28084 -3.98824 23.2946
569 2 2.2208 8.00136 0.463714 24.8198
570 1 -1.1104 9.58708 -3.7102 26.2902
572 2 2.2208 8.00446 -2.44662 22.0351
574 1 -1.1104 9.3574 -0.930573 23.3378
575 1 -1.1104 9.46286 -0.776191 26.1869
556 2 2.2208 7.96891 20.1409 27.78
402 1 -1.1104 6.59391 18.8282 26.491
354 1 -1.1104 3.61366 1.56195 20.6734
407 1 -1.1104 0.735883 7.83879 20.7674
423 1 -1.1104 3.81936 7.54709 20.5484
609 1 -1.1104 3.72173 4.77059 26.83
524 1 -1.1104 0.669516 1.82953 23.4716
528 1 -1.1104 0.836663 1.87391 26.2374
534 2 2.2208 5.26153 3.25512 24.8263
538 1 -1.1104 3.44844 1.99573 23.7343
541 1 -1.1104 3.74464 1.86748 26.2798
543 2 2.2208 2.26214 3.23744 22.0809
587 2 2.2208 5.02545 5.99913 21.816
593 1 -1.1104 0.84507 4.6841 22.8873
598 1 -1.1104 1.04048 4.59394 25.7579
603 2 2.2208 2.46315 6.08736 24.708
605 1 -1.1104 3.85708 7.50118 26.1372
607 1 -1.1104 3.91638 4.71754 23.663
602 1 -1.1104 3.72213 7.40495 23.2583
591 1 -1.1104 1.08096 7.50048 26.1194
589 1 -1.1104 0.789935 7.51827 23.4572
526 1 -1.1104 6.42859 1.98123 23.2789
592 1 -1.1104 6.75339 7.41216 26.1605
595 1 -1.1104 6.48475 4.66447 23.3776
439 1 -1.1104 12.1685 7.41114 20.6682
9379 2 2.2208 -0.182751 6.06442 16.5034
361 2 2.2208 13.5678 9.07829 22.0903
530 1 -1.1104 6.48847 1.73606 26.0154
339 1 -1.1104 6.40316 1.70412 20.5533
456 1 -1.1104 9.24148 4.7969 20.5569
600 1 -1.1104 6.58768 4.71871 26.089
451 1 -1.1104 9.35983 7.46059 20.6104
444 1 -1.1104 12.053 4.42525 20.7623
590 1 -1.1104 6.43381 7.39781 23.3417
560 1 -1.1104 12.1805 2.16171 23.4995
562 1 -1.1104 12.2562 1.73611 26.1506
565 2 2.2208 10.6452 3.36696 24.7594
568 1 -1.1104 9.29313 1.80571 23.3968
571 1 -1.1104 9.34435 1.82166 26.149
573 2 2.2208 7.88118 3.26978 21.9618
619 1 -1.1104 9.32393 4.75519 26.2413
621 1 -1.1104 9.18794 4.53152 23.3138
625 2 2.2208 8.10764 6.1041 24.6737
626 2 2.2208 10.7052 5.94913 21.9791
630 1 -1.1104 11.8249 5.01522 23.5098
633 1 -1.1104 12.0068 4.59861 26.1492
623 1 -1.1104 9.52655 7.39163 25.829
635 1 -1.1104 9.44802 7.75284 23.29
629 1 -1.1104 12.263 7.57534 26.1756
628 1 -1.1104 12.4184 7.8721 23.6322
315 2 2.2208 2.24449 17.2265 13.6476
467 1 -1.1104 0.603506 13.5767 20.5739
639 2 2.2208 13.648 11.6783 24.7703
484 1 -1.1104 3.38299 12.9475 20.7448
612 1 -1.1104 3.81256 13.0202 26.4838
588 2 2.2208 5.34185 11.7701 22.0976
594 1 -1.1104 1.04199 10.3055 23.3504
597 2 2.2208 5.2172 8.81959 24.7778
599 1 -1.1104 0.875188 10.2686 26.3787
604 2 2.2208 2.3822 11.6517 24.7693
606 2 2.2208 2.37513 9.00571 21.9784
608 1 -1.1104 3.8734 10.3751 23.3498
610 1 -1.1104 3.55949 10.3842 26.1465
644 1 -1.1104 3.90351 13.049 23.6275
648 1 -1.1104 0.958208 12.8637 26.741
654 1 -1.1104 0.928367 12.9796 23.6991
643 1 -1.1104 6.48137 13.0562 25.9614
369 1 -1.1104 12.0038 15.9361 26.1328
319 2 2.2208 2.4865 -2.19696 27.6086
580 2 2.2208 13.5368 5.98895 19.3059
660 2 2.2208 7.91337 -2.41811 27.6659
446 1 -1.1104 12.1187 10.3121 20.7267
365 2 2.2208 13.5796 0.385423 19.1133
303 2 2.2208 13.5432 14.4081 27.6179
419 1 -1.1104 6.66441 10.3087 20.554
596 1 -1.1104 6.72212 10.3599 23.3741
652 1 -1.1104 6.63064 13.297 23.3765
601 1 -1.1104 6.56085 10.1958 25.9851
617 1 -1.1104 12.1956 13.139 26.1574
615 1 -1.1104 12.1415 13.1415 23.3688
618 1 -1.1104 9.15424 10.3624 26.2417
620 1 -1.1104 9.41903 10.5355 23.4142
622 2 2.2208 7.81727 8.82047 21.8944
624 2 2.2208 7.93786 11.8134 24.722
627 2 2.2208 10.6319 11.9422 21.9467
631 1 -1.1104 12.2953 10.5385 23.4423
632 2 2.2208 10.8467 9.13646 24.7909
634 1 -1.1104 12.1678 10.0681 26.3645
432 1 -1.1104 9.39122 13.2258 26.182
395 1 -1.1104 9.24365 13.0787 23.1991
586 1 -1.1104 6.7822 16.3493 23.3154
645 1 -1.1104 6.45117 15.808 26.3653
584 2 2.2208 13.6414 -2.21914 22.1398
577 2 2.2208 2.35346 14.4092 22.1827
651 2 2.2208 5.16796 14.6004 24.9756
653 1 -1.1104 1.25906 15.7048 23.5815
576 2 2.2208 2.47779 17.5232 24.8358
578 1 -1.1104 3.54278 18.7195 26.5343
583 1 -1.1104 4.05291 15.9048 23.3826
638 2 2.2208 5.15851 17.6606 21.9315
640 1 -1.1104 3.70772 16.0148 26.3134
642 1 -1.1104 3.84349 19.0288 23.5517
646 1 -1.1104 0.69036 18.7965 25.1142
647 1 -1.1104 0.973259 16.0403 26.3065
650 2 2.2208 5.27786 20.2539 25.0966
554 2 2.2208 2.32354 14.5092 27.6858
494 1 -1.1104 9.50292 15.7568 23.3372
367 2 2.2208 10.8146 14.5304 24.7928
614 2 2.2208 10.6604 17.3975 22.0138
400 1 -1.1104 9.47666 18.7545 23.4213
549 1 -1.1104 12.2732 16.1639 23.3285
551 1 -1.1104 12.1897 18.5564 26.1391
368 2 2.2208 10.9837 20.1788 24.9947
661 2 2.2208 10.613 0.368869 27.6537
9301 2 2.2208 -0.38229 6.23781 27.5644
548 2 2.2208 5.19198 0.449939 27.6072
363 2 2.2208 13.6924 17.3728 24.7452
307 2 2.2208 4.91241 3.16915 13.8628
124 2 2.2208 13.5919 3.16946 27.6853
641 2 2.2208 13.5375 6.21324 24.8023
637 2 2.2208 8.08974 8.81709 27.5432
396 2 2.2208 13.6628 20.2522 16.4494
318 2 2.2208 7.81325 14.5407 27.7629
312 2 2.2208 2.36668 5.87824 13.7655
496 2 2.2208 10.6327 14.512 13.6853
431 2 2.2208 5.25994 8.83901 13.7195
306 2 2.2208 2.15596 0.238557 13.8101
236 1 -1.1104 6.82293 4.33462 13.8147
662 2 2.2208 5.36391 22.9247 5.19522
664 1 -1.1104 1.00849 24.3965 0.816713
665 1 -1.1104 1.12177 24.327 3.66063
666 1 -1.1104 1.19068 21.6242 0.938106
668 2 2.2208 5.22783 25.9072 2.47816
669 1 -1.1104 0.997874 21.3595 3.81062
671 1 -1.1104 3.82345 24.4734 0.970308
672 2 2.2208 2.47705 22.9751 2.27851
674 1 -1.1104 3.92938 24.3483 3.80463
675 2 2.2208 2.47118 25.7354 5.16052
676 1 -1.1104 3.95125 21.7738 1.18194
678 1 -1.1104 3.73012 21.372 3.8229
805 1 -1.1104 0.995111 21.6393 6.5474
685 1 -1.1104 6.55493 21.605 0.694612
809 1 -1.1104 3.94 24.3941 6.63295
807 1 -1.1104 6.69991 21.3598 6.36743
804 1 -1.1104 6.88022 24.3059 6.79814
667 1 -1.1104 0.905351 27.2822 1.12752
679 1 -1.1104 3.90555 27.4731 3.71771
803 1 -1.1104 1.14963 24.4185 6.6059
1109 2 2.2208 11.0484 31.4823 13.3868
687 1 -1.1104 6.50079 21.5135 3.62802
683 1 -1.1104 6.54914 24.3664 1.11563
684 1 -1.1104 6.79234 24.2787 3.86596
689 2 2.2208 10.9659 22.8636 5.00574
691 1 -1.1104 12.3613 24.4521 0.96756
692 1 -1.1104 12.5625 24.3374 3.58592
693 1 -1.1104 12.304 21.2778 0.789937
695 2 2.2208 10.9744 25.8545 2.31015
696 1 -1.1104 12.2514 21.5275 3.75746
698 1 -1.1104 9.36464 24.4126 0.805848
699 2 2.2208 8.07578 22.8882 2.11273
701 1 -1.1104 9.64336 24.454 3.67971
702 2 2.2208 8.16704 25.7885 5.22215
703 1 -1.1104 9.41664 21.6566 0.807709
705 1 -1.1104 9.33461 21.3791 3.62082
704 1 -1.1104 9.56742 27.2911 1.12041
706 1 -1.1104 9.36864 27.3654 3.95463
694 1 -1.1104 12.456 27.4648 0.766788
835 1 -1.1104 12.431 24.1824 6.34524
838 1 -1.1104 9.73346 24.2912 6.46159
836 1 -1.1104 12.4592 21.3263 6.48155
839 1 -1.1104 9.4298 21.4333 6.5304
837 1 -1.1104 12.3623 27.1285 6.74254
801 1 -1.1104 12.486 40.9272 12.2306
670 1 -1.1104 1.09485 27.1569 3.57272
686 1 -1.1104 6.79073 27.2144 1.01217
806 1 -1.1104 1.23632 27.2128 6.45926
677 1 -1.1104 3.91996 27.3192 0.976348
811 1 -1.1104 4.01739 27.0849 6.4422
663 2 2.2208 5.30108 28.6864 5.22152
673 2 2.2208 2.46239 28.7599 2.40071
712 1 -1.1104 1.01448 30.0135 0.851813
715 1 -1.1104 1.17195 30.1729 3.91381
718 1 -1.1104 1.06112 32.8584 1.15953
719 2 2.2208 5.27184 31.4441 2.2747
721 1 -1.1104 0.783783 32.9977 3.79081
723 1 -1.1104 3.80108 30.1405 0.67566
726 1 -1.1104 3.96374 30.1345 3.94259
728 2 2.2208 2.42802 31.2632 5.35528
730 1 -1.1104 3.88893 32.9451 0.755281
731 1 -1.1104 3.60778 32.719 3.71509
865 1 -1.1104 3.97852 30.0276 6.69429
735 1 -1.1104 6.61946 30.0347 3.61167
863 1 -1.1104 1.23601 32.6768 6.62087
867 1 -1.1104 4.02925 32.9296 6.6025
864 1 -1.1104 6.93311 32.7034 6.65009
982 2 2.2208 2.46554 34.3711 13.4707
697 1 -1.1104 12.2039 27.0667 3.61667
840 1 -1.1104 9.52362 27.236 6.53021
736 1 -1.1104 6.66567 32.6961 0.842527
688 1 -1.1104 6.49981 27.2392 3.7276
734 1 -1.1104 6.42664 29.9845 0.694348
722 1 -1.1104 6.50367 32.842 3.88746
690 2 2.2208 10.9119 28.5321 5.10684
700 2 2.2208 8.08981 28.6848 2.33455
738 1 -1.1104 12.1863 30.3377 0.825976
740 1 -1.1104 12.1854 29.675 3.78091
742 1 -1.1104 12.061 33.0132 0.755738
743 2 2.2208 10.7924 31.3047 2.27389
745 1 -1.1104 12.2549 32.4035 3.66425
746 1 -1.1104 9.2009 29.7941 0.965497
749 1 -1.1104 9.51765 30.0778 3.78684
751 2 2.2208 8.09714 31.4178 5.24411
753 1 -1.1104 9.50793 32.5545 0.741078
754 1 -1.1104 9.52477 32.8715 3.53209
861 1 -1.1104 6.73214 30.0657 6.53342
893 1 -1.1104 12.2104 29.9722 6.55213
898 1 -1.1104 9.34922 33.0276 6.30312
896 1 -1.1104 9.39431 30.1734 6.68542
895 1 -1.1104 12.2054 32.9519 6.55229
986 2 2.2208 10.9325 42.686 13.5259
9843 2 2.2208 -0.217531 40.0102 10.491
1197 2 2.2208 2.39106 25.8197 -0.423657
711 2 2.2208 4.94392 34.2452 4.9129
713 1 -1.1104 0.907976 35.7706 0.978614
716 1 -1.1104 1.10435 35.836 3.65408
720 2 2.2208 5.1919 37.1449 1.94051
724 1 -1.1104 3.74985 35.6977 1.0647
725 2 2.2208 2.4652 34.3393 2.35849
727 1 -1.1104 3.86754 35.7025 3.69247
729 2 2.2208 2.37456 37.2299 5.04861
756 2 2.2208 5.13659 39.8046 5.04441
762 1 -1.1104 0.768755 38.4988 0.737455
767 1 -1.1104 1.05578 38.6709 3.66413
772 2 2.2208 2.47655 40.1426 2.13776
776 1 -1.1104 3.77072 38.5166 0.761581
778 1 -1.1104 3.79128 38.6028 3.74548
932 1 -1.1104 0.874051 38.5093 6.35819
938 1 -1.1104 3.66236 38.5874 6.65195
764 1 -1.1104 6.623 38.3076 0.73693
714 1 -1.1104 6.43727 35.5652 0.736933
860 1 -1.1104 0.894145 35.4147 6.49656
866 1 -1.1104 3.79893 35.7695 6.40146
717 1 -1.1104 6.67898 35.676 3.54909
862 1 -1.1104 6.55011 35.7019 6.54249
769 1 -1.1104 6.6177 38.3889 3.68526
737 2 2.2208 10.6899 34.1841 5.06974
739 1 -1.1104 11.9957 35.8753 0.807933
741 1 -1.1104 12.0234 35.2538 3.69121
744 2 2.2208 10.646 37.0024 2.30999
747 1 -1.1104 9.27464 35.6364 0.796159
748 2 2.2208 7.95913 34.1125 2.29089
750 1 -1.1104 9.462 35.6868 3.65511
752 2 2.2208 7.85032 37.0425 5.04279
783 2 2.2208 10.7072 39.7103 5.09511