LAMMPS (29 Oct 2020)
OMP_NUM_THREADS environment is not set. Defaulting to 1 thread. (../comm.cpp:94)
  using 1 OpenMP thread(s) per MPI task
OMP_NUM_THREADS environment is not set. Defaulting to 1 thread. (../comm.cpp:94)
  using 1 OpenMP thread(s) per MPI task
Reading data file ...
  orthogonal box = (-0.27717828 -3.4472206 -0.27717828) to (27.617178 331.52722 27.617178)
  2 by 13 by 2 MPI processor grid
  reading atoms ...
  18000 atoms
  reading velocities ...
  18000 velocities
Finding 1-2 1-3 1-4 neighbors ...
  special bond factors lj:    0.0      0.0      0.0     
  special bond factors coul:  0.0      0.0      0.0     
     0 = max # of 1-2 neighbors
     0 = max # of 1-3 neighbors
     0 = max # of 1-4 neighbors
     1 = max # of special neighbors
  special bonds CPU = 0.005 seconds
  read_data CPU = 0.054 seconds
90 atoms in group Th
90 atoms in group O
Setting atom values ...
  90 settings made for type
Setting atom values ...
  90 settings made for type
Setting atom values ...
  12000 settings made for charge
Setting atom values ...
  6000 settings made for charge
PPPM initialization ...
  using 12-bit tables for long-range coulomb (../kspace.cpp:328)
  G vector (1/distance) = 0.2991486
  grid = 40 240 40
  stencil order = 5
  estimated absolute RMS force accuracy = 0.00015521489
  estimated relative force accuracy = 1.0779078e-05
  using single precision MKL FFT
  3d grid and FFT values/proc = 18225 7600
Neighbor list info ...
  update every 1 steps, delay 0 steps, check yes
  max neighbors/atom: 2000, page size: 100000
  master list distance cutoff = 13
  ghost atom cutoff = 13
  binsize = 6.5, bins = 5 52 5
  2 neighbor lists, perpetual/occasional/extra = 2 0 0
  (1) pair coul/long, perpetual
      attributes: half, newton on
      pair build: half/bin/newton
      stencil: half/bin/3d/newton
      bin: standard
  (2) pair eam/alloy, perpetual, copy from (1)
      attributes: half, newton on
      pair build: copy
      stencil: none
      bin: none
Setting up cg style minimization ...
  Unit style    : metal
  Current step  : 0
WARNING: Energy due to 3 extra global DOFs will be included in minimizer energies
Per MPI rank memory allocation (min/avg/max) = 9.513 | 10.22 | 10.28 Mbytes
Step Temp E_pair E_mol TotEng Press Volume 
       0            0   -223404.58            0   -223404.58    42412.933    260641.98 
    2280            0   -233823.48            0   -233823.48    105.65732    268728.24 
Loop time of 34.0122 on 52 procs for 2280 steps with 18000 atoms

99.8% CPU use with 52 MPI tasks x 1 OpenMP threads

Minimization stats:
  Stopping criterion = linesearch alpha is zero
  Energy initial, next-to-last, final = 
     -223404.575643803  -233823.482933581  -233823.482933581
  Force two-norm initial, final = 13098.711 41.933406
  Force max component initial, final = 10141.283 23.339802
  Final line search alpha, max atom move = 5.1075535e-12 1.1920929e-10
  Iterations, force evaluations = 2280 3212

MPI task timing breakdown:
Section |  min time  |  avg time  |  max time  |%varavg| %total
---------------------------------------------------------------
Pair    | 20.259     | 21.119     | 21.875     |   9.2 | 62.09
Bond    | 0.00027996 | 0.00039687 | 0.00058371 |   0.0 |  0.00
Kspace  | 4.9452     | 5.7049     | 6.5813     |  17.9 | 16.77
Neigh   | 0.068      | 0.078376   | 0.089364   |   2.0 |  0.23
Comm    | 0.50466    | 0.52318    | 0.53727    |   1.1 |  1.54
Output  | 0          | 0          | 0          |   0.0 |  0.00
Modify  | 0          | 0          | 0          |   0.0 |  0.00
Other   |            | 6.586      |            |       | 19.36

Nlocal:        346.154 ave         392 max         306 min
Histogram: 4 6 8 6 2 7 7 7 2 3
Nghost:        5596.48 ave        5699 max        5479 min
Histogram: 1 9 5 8 0 1 6 10 10 2
Neighs:       109443.0 ave      124465 max       97193 min
Histogram: 5 6 6 7 4 8 7 4 3 2

Total # of neighbors = 5691040
Ave neighs/atom = 316.16889
Ave special neighs/atom = 0.0000000
Neighbor list builds = 27
Dangerous builds = 0
PPPM initialization ...
  using 12-bit tables for long-range coulomb (../kspace.cpp:328)
  G vector (1/distance) = 0.29864975
  grid = 40 240 40
  stencil order = 5
  estimated absolute RMS force accuracy = 0.00015893325
  estimated relative force accuracy = 1.1037303e-05
  using single precision MKL FFT
  3d grid and FFT values/proc = 18225 7600
Setting up Verlet run ...
  Unit style    : metal
  Current step  : 0
  Time step     : 0.001
Per MPI rank memory allocation (min/avg/max) = 10.38 | 10.41 | 10.42 Mbytes
Step Dt Time Atoms Temp PotEng KinEng Press Volume v_latt 
       0        0.001            0    18000         1500   -233823.49      3489.83    13976.396    268728.24    5.6373768 
   10000        0.001           10    18000    1508.6186   -232110.79    3509.8816    154.70106    275949.91      5.68739 
   20000        0.001           20    18000    1494.6499    -232200.3    3477.3827   -1397.1059    275783.58    5.6862471 
   30000        0.001           30    18000    1496.9399      -232222    3482.7105    1420.7224    275197.06    5.6822133 
   40000        0.001           40    18000    1511.2769   -232217.86    3516.0662    -380.0805    275674.99    5.6855019 
   50000        0.001           50    18000    1506.1472   -232230.41    3504.1319    -210.9115    275501.17    5.6843061 
   60000        0.001           60    18000     1484.904   -232220.37    3454.7085   -1245.3043       275682    5.6855495 
   70000        0.001           70    18000    1497.7526   -232248.47    3484.6014   -1898.4416    275627.38    5.6851738 
   80000        0.001           80    18000    1504.3217   -232260.32    3499.8847   -1140.3696    275470.51    5.6840945 
   90000        0.001           90    18000    1498.1234   -232286.41    3485.4641    -899.4219    275430.04    5.6838165 
  100000        0.001          100    18000    1505.0308   -232280.63    3501.5344    1265.0625    275137.32    5.6818022 
Loop time of 823.274 on 52 procs for 100000 steps with 18000 atoms

Performance: 10.495 ns/day, 2.287 hours/ns, 121.466 timesteps/s
99.8% CPU use with 52 MPI tasks x 1 OpenMP threads

MPI task timing breakdown:
Section |  min time  |  avg time  |  max time  |%varavg| %total
---------------------------------------------------------------
Pair    | 520.07     | 529.6      | 538.98     |  20.9 | 64.33
Bond    | 0.0091409  | 0.013967   | 0.021227   |   2.1 |  0.00
Kspace  | 152.41     | 162.26     | 172.23     |  39.3 | 19.71
Neigh   | 9.5485     | 9.987      | 10.467     |   7.5 |  1.21
Comm    | 16.6       | 16.988     | 17.341     |   3.9 |  2.06
Output  | 0.0086913  | 0.0087431  | 0.010766   |   0.3 |  0.00
Modify  | 92.123     | 96.643     | 100.48     |  22.6 | 11.74
Other   |            | 7.774      |            |       |  0.94

Nlocal:        346.154 ave         368 max         332 min
Histogram: 8 9 4 7 7 5 5 1 3 3
Nghost:        5415.75 ave        5569 max        5233 min
Histogram: 2 5 2 6 6 10 8 4 5 4
Neighs:       105281.0 ave      113112 max       98768 min
Histogram: 1 5 11 6 9 5 6 4 2 3

Total # of neighbors = 5474607
Ave neighs/atom = 304.14483
Ave special neighs/atom = 0.0000000
Neighbor list builds = 3467
Dangerous builds = 0
System init for write_data ...
PPPM initialization ...
  using 12-bit tables for long-range coulomb (../kspace.cpp:328)
  G vector (1/distance) = 0.29814859
  grid = 40 240 40
  stencil order = 5
  estimated absolute RMS force accuracy = 0.00016334751
  estimated relative force accuracy = 1.1343857e-05
  using single precision MKL FFT
  3d grid and FFT values/proc = 18225 7600
Total wall time: 0:14:17
