LAMMPS (29 Oct 2020)
OMP_NUM_THREADS environment is not set. Defaulting to 1 thread. (../comm.cpp:94)
  using 1 OpenMP thread(s) per MPI task
#-------------------------
#
#This script is used to create different concentrations of vacancies in thorium dioxide
#By Ziqiang Wang on 07/03/2023
#
#-------------------------

clear
OMP_NUM_THREADS environment is not set. Defaulting to 1 thread. (../comm.cpp:94)
  using 1 OpenMP thread(s) per MPI task
units                        metal
dimension                        3
boundary                     p p p
atom_style                   full
atom_modify                  map array

read_data                   perfect_relaxed.dat
Reading data file ...
  orthogonal box = (0.036967065 0.39996549 0.036967048) to (27.303033 327.68003 27.303033)
  2 by 13 by 2 MPI processor grid
  reading atoms ...
  18000 atoms
  reading velocities ...
  18000 velocities
Finding 1-2 1-3 1-4 neighbors ...
  special bond factors lj:    0.0      0.0      0.0     
  special bond factors coul:  0.0      0.0      0.0     
     0 = max # of 1-2 neighbors
     0 = max # of 1-3 neighbors
     0 = max # of 1-4 neighbors
     1 = max # of special neighbors
  special bonds CPU = 0.004 seconds
  read_data CPU = 0.067 seconds

# randomly create vacancies in the relaxed perfect crystal
variable                   vac_ratio  equal   0.02
group                      U_delete   id   1383  1394 11414 11473 17233 13634 14773 11163  7465  7455  9998 10000                                             9675  9674  9770 13429 17487 17428 17930  3529 15280 15349  2606  2655                                             9651  9649  1900  1898 10204  6603 17331 17332 17042 17092  7287  7298                                             6831  6782   867  4465  6446  6507  1106  4708 12182 15832  7237  3627                                             508   505  6844  6854 11992  8390  9721  9771  8584  8583  9724  6123                                              14812 14869 15362 15471 17005 16946  1480  1549 16971 16922  2198  5857                                            12925  9315 12650 16252  6676  3074  8725  8656  2104  2163  8091 11689                                            613   616 14173 14114  4972  5029 14595   205  8293  4634  7441  7492                                              5822  9421  9556  5955  3986  4045 11317  7658 17810 17812 15902 15951                                             16717 13107 17185 17128  7204  7203  4837  4828  9567  9508 14500 14569
120 atoms in group U_delete

group                      O_delete   id   1327  1328  1389  1390 11409 11410  7812  7820 13572 13580 13629 13630                                            11112 11120 11107 11108  3804  3812  7399  7400  9993  9994  6402  6404                                             9619  9620  9669  9670  9765  9766  9768  9776 17431 17432 13830 13832                                            17925 17926 17868 17876 11682 11684 11688 11696  2601  2602  2599  2600                                             9595  9596  5988  5996  1901  1903  1893  1894  6606  6608  6547  6548                                            17275 17276 13734 13736 17097 17098 13494 13496  7231  7232  7293  7294                                             6775  6776  6837  6838   811   812   804   862  6441  6442  6451  6452                                             1101  1102  1110  1112 12237 12238 12234 12236  3634  3642  3629  3630                                            14910 14912 14844 14852  3246  3248  6849  6850  8394  8396  8385  8386                                             6120  6178  9715  9716  4986  4988  8527  8528  6126  6128  6067  6068                                            11214 11216 11208 11266 15417 15418 15415 15416 13344 13352 16941 16942                                             1481  1483  1487  1495 16915 16916 16977 16978  2193  2194  2196  2204                                             9264  9272  9259  9260 12645 12646 12654 12656  3078  3080  3069  3070                                             5064  5072  5058  5060  2105  2107  2108  2111  8035  8036  8028  8086                                              551   559   617   619 10512 10520 14109 14110  1374  1376  1368  1426                                            14539 14540 14544 14552  4632  4640  4629  4630  3840  3898  3894  3896                                             5877  5878  5820  9419  5958  5960  5899  5900  3981  3982   384   392                                             7656  7664  7653  7654 17805 17806 14214 14216 15957 15958 15895 15896                                            13056 13064 13051 13052 13524 13532 13530 13534  3606  3608  7205  7206                                             1176  1184  1230  1232  9511  9512  5910  5912 10902 10904 10908 10916
240 atoms in group O_delete

group                       delete      union   U_delete O_delete
360 atoms in group delete
delete_atoms                group       delete
WARNING: Ignoring 'compress yes' for molecular system (../delete_atoms.cpp:125)
Deleted 360 atoms, new total = 17640

set                         type    1      charge   -1.1104
Setting atom values ...
  11760 settings made for charge
set                         type    2      charge    2.2208
Setting atom values ...
  5880 settings made for charge

kspace_style                pppm     1.0e-05
pair_style                  hybrid/overlay    coul/long   11.0  eam/alloy
pair_coeff                  * * coul/long
pair_coeff                  * * eam/alloy CeThUNpPuAmCmO.eam.alloy O U
neighbor                    2.0  bin
neigh_modify                every  1  delay  0  check  yes

# fully relaxing the defect configuration at 0K
fix                box_relax  all  box/relax aniso 0.0 vmax 0.001
min_style          cg
minimize           1.0e-30 1.0e-30 10000 10000
PPPM initialization ...
  using 12-bit tables for long-range coulomb (../kspace.cpp:328)
  G vector (1/distance) = 0.30035472
  grid = 40 240 40
  stencil order = 5
  estimated absolute RMS force accuracy = 0.00014415173
  estimated relative force accuracy = 1.0010784e-05
  using single precision MKL FFT
  3d grid and FFT values/proc = 18225 7600
Neighbor list info ...
  update every 1 steps, delay 0 steps, check yes
  max neighbors/atom: 2000, page size: 100000
  master list distance cutoff = 13
  ghost atom cutoff = 13
  binsize = 6.5, bins = 5 51 5
  2 neighbor lists, perpetual/occasional/extra = 2 0 0
  (1) pair coul/long, perpetual
      attributes: half, newton on
      pair build: half/bin/newton
      stencil: half/bin/3d/newton
      bin: standard
  (2) pair eam/alloy, perpetual, copy from (1)
      attributes: half, newton on
      pair build: copy
      stencil: none
      bin: none
Per MPI rank memory allocation (min/avg/max) = 9.515 | 10.22 | 10.28 Mbytes
Step Temp E_pair E_mol TotEng Press Volume 
       0            0   -237635.82            0   -237635.82   -6544.0772    243312.55 
     353            0   -238475.75            0   -238475.75   -6.4404797    244214.83 
Loop time of 6.83959 on 52 procs for 353 steps with 17640 atoms

99.5% CPU use with 52 MPI tasks x 1 OpenMP threads

Minimization stats:
  Stopping criterion = linesearch alpha is zero
  Energy initial, next-to-last, final = 
     -237635.815998679  -238475.751248656  -238475.751248656
  Force two-norm initial, final = 1740.5870 6.0121277
  Force max component initial, final = 1117.0414 4.3618752
  Final line search alpha, max atom move = 2.1930883e-10 9.5659775e-10
  Iterations, force evaluations = 353 646

MPI task timing breakdown:
Section |  min time  |  avg time  |  max time  |%varavg| %total
---------------------------------------------------------------
Pair    | 4.0467     | 4.206      | 4.46       |   4.5 | 61.49
Bond    | 5.6464e-05 | 8.4059e-05 | 0.00011829 |   0.0 |  0.00
Kspace  | 1.0507     | 1.3031     | 1.4671     |   8.1 | 19.05
Neigh   | 0.021422   | 0.023535   | 0.02602    |   0.7 |  0.34
Comm    | 0.10877    | 0.11351    | 0.12639    |   1.7 |  1.66
Output  | 0          | 0          | 0          |   0.0 |  0.00
Modify  | 0          | 0          | 0          |   0.0 |  0.00
Other   |            | 1.193      |            |       | 17.45

Nlocal:        339.231 ave         375 max         307 min
Histogram: 3 5 4 10 9 4 6 4 4 3
Nghost:        5601.10 ave        5752 max        5430 min
Histogram: 5 4 6 3 2 8 6 6 9 3
Neighs:       112707.0 ave      126845 max      102405 min
Histogram: 4 4 10 10 5 6 5 4 2 2

Total # of neighbors = 5860783
Ave neighs/atom = 332.24393
Ave special neighs/atom = 0.0000000
Neighbor list builds = 8
Dangerous builds = 0
unfix              box_relax

# apply the temperature into the system and relaxing at the temperature of interest
reset_atom_ids
Resetting atom IDs ...
PPPM initialization ...
  using 12-bit tables for long-range coulomb (../kspace.cpp:328)
  G vector (1/distance) = 0.30029294
  grid = 40 240 40
  stencil order = 5
  estimated absolute RMS force accuracy = 0.00014460663
  estimated relative force accuracy = 1.0042375e-05
  using single precision MKL FFT
  3d grid and FFT values/proc = 18225 7600
Finding 1-2 1-3 1-4 neighbors ...
  special bond factors lj:    0.0      0.0      0.0     
  special bond factors coul:  0.0      0.0      0.0     
     0 = max # of 1-2 neighbors
     0 = max # of 1-3 neighbors
     0 = max # of 1-4 neighbors
     1 = max # of special neighbors
  special bonds CPU = 0.001 seconds
variable                    temp      equal    600
velocity                    all  create   ${temp}  4542  dist  gaussian  rot  yes  mom  yes
velocity                    all  create   600  4542  dist  gaussian  rot  yes  mom  yes
fix                         npt  all  npt  temp  ${temp}  ${temp}  $(100*dt) aniso  0.0  0.0  $(1000*dt)
fix                         npt  all  npt  temp  600  ${temp}  $(100*dt) aniso  0.0  0.0  $(1000*dt)
fix                         npt  all  npt  temp  600  600  $(100*dt) aniso  0.0  0.0  $(1000*dt)
fix                         npt  all  npt  temp  600  600  0.10000000000000000555 aniso  0.0  0.0  $(1000*dt)
fix                         npt  all  npt  temp  600  600  0.10000000000000000555 aniso  0.0  0.0  1

thermo                      50000
thermo_style                custom   step dt time atoms temp pe ke press vol

shell                       mkdir vac_${vac_ratio}_${temp}K
shell                       mkdir vac_0.02_${temp}K
shell                       mkdir vac_0.02_600K
dump                        1  all  custom  50000  ./vac_${vac_ratio}_${temp}K/dump_relax.atom.* id type q x y z
dump                        1  all  custom  50000  ./vac_0.02_${temp}K/dump_relax.atom.* id type q x y z
dump                        1  all  custom  50000  ./vac_0.02_600K/dump_relax.atom.* id type q x y z
dump_modify                 1  element  O  U

run                         100000
PPPM initialization ...
  using 12-bit tables for long-range coulomb (../kspace.cpp:328)
  G vector (1/distance) = 0.30029294
  grid = 40 240 40
  stencil order = 5
  estimated absolute RMS force accuracy = 0.00014460663
  estimated relative force accuracy = 1.0042375e-05
  using single precision MKL FFT
  3d grid and FFT values/proc = 18225 7600
Per MPI rank memory allocation (min/avg/max) = 9.119 | 9.140 | 9.156 Mbytes
Step Dt Time Atoms Temp PotEng KinEng Press Volume 
     353        0.001            0    17640          600   -238475.75    1368.0118    5976.7058    244214.83 
   50000        0.001       49.647    17640    592.36049   -237186.91    1350.5936   -937.42522    248538.23 
  100000        0.001       99.647    17640    603.82692   -237208.42    1376.7373   -499.00725    248358.66 
  100353        0.001          100    17640     599.2521   -237224.39    1366.3066     -1275.36    248446.99 
Loop time of 830.071 on 52 procs for 100000 steps with 17640 atoms

Performance: 10.409 ns/day, 2.306 hours/ns, 120.472 timesteps/s
99.8% CPU use with 52 MPI tasks x 1 OpenMP threads

MPI task timing breakdown:
Section |  min time  |  avg time  |  max time  |%varavg| %total
---------------------------------------------------------------
Pair    | 505.59     | 531.11     | 554.04     |  41.2 | 63.98
Bond    | 0.0086129  | 0.016283   | 0.022627   |   2.0 |  0.00
Kspace  | 163.84     | 186.85     | 212.63     |  69.7 | 22.51
Neigh   | 2.4327     | 2.6546     | 2.8454     |   5.1 |  0.32
Comm    | 16.566     | 16.999     | 17.332     |   3.5 |  2.05
Output  | 0.013688   | 0.0137     | 0.014249   |   0.1 |  0.00
Modify  | 79.707     | 84.137     | 88.143     |  24.5 | 10.14
Other   |            | 8.287      |            |       |  1.00

Nlocal:        339.231 ave         369 max         317 min
Histogram: 1 2 10 13 5 12 5 2 1 1
Nghost:        5580.35 ave        5716 max        5446 min
Histogram: 5 4 5 7 4 10 3 4 4 6
Neighs:       111706.0 ave      122814 max      102490 min
Histogram: 1 2 6 14 10 6 8 3 0 2

Total # of neighbors = 5808703
Ave neighs/atom = 329.29155
Ave special neighs/atom = 0.0000000
Neighbor list builds = 934
Dangerous builds = 0
shell                       mkdir thermal_condu
write_data                  thermal_condu/vac_${vac_ratio}_relaxed.dat
write_data                  thermal_condu/vac_0.02_relaxed.dat
System init for write_data ...
PPPM initialization ...
  using 12-bit tables for long-range coulomb (../kspace.cpp:328)
  G vector (1/distance) = 0.29998308
  grid = 40 240 40
  stencil order = 5
  estimated absolute RMS force accuracy = 0.00014701599
  estimated relative force accuracy = 1.0209696e-05
  using single precision MKL FFT
  3d grid and FFT values/proc = 18225 7600
Total wall time: 0:13:57
