30000
Atoms. Timestep: 2000000
2 27.1333 22.3612 136.198
2 15.5949 14.3765 455.655
2 4.66093 16.7514 68.9102
2 25.8273 10.5623 70.2322
1 10.1933 29.1226 480.197
1 27.6792 3.45162 57.4331
1 13.449 10.8473 179.576
1 29.1215 17.4039 67.5062
1 17.6373 23.1389 397.013
1 10.0534 29.2304 71.6488
1 16.8676 18.3222 123.427
1 3.81077 10.4524 84.0769
2 3.89188 6.25668 465.551
2 24.8122 15.7488 168.273
2 22.1405 8.62888 72.4445
2 11.3456 1.65247 56.1929
1 24.9288 11.7898 460.347
1 24.6395 -1.94131 107.551
1 13.0128 14.6083 475.673
1 26.4332 28.1845 67.8625
1 10.685 2.22796 344.141
1 26.747 9.90601 440.483
1 28.1151 15.4839 464.52
1 -1.98479 -1.05664 54.0327
2 24.4278 14.7233 59.3818
2 18.5027 16.0835 92.1794
2 11.6579 26.9527 80.4192
2 13.2794 26.7223 478.869
1 3.81652 22.7476 381.847
1 24.5587 25.7617 135.908
1 24.0298 1.61716 130.105
1 17.4578 15.2482 462.515
1 24.9207 1.51257 473.097
1 20.3088 12.5494 487.359
1 9.07842 13.7348 409.855
1 11.7122 -0.368242 84.1689
2 13.8003 11.2289 56.5566
2 13.0127 23.3817 56.2978
2 24.263 23.8705 59.1963
2 4.52604 0.340395 96.0993
1 22.0134 17.7292 396.107
1 3.94207 29.1062 70.0665
1 -0.62191 29.5415 437.822
1 1.51709 29.2344 147.18
1 5.79442 26.4426 140.684
1 27.0682 13.2539 159.979
1 23.3169 2.82758 488.34
1 0.752892 11.6059 156.872
2 5.14042 22.6735 87.4922
2 3.12505 9.23768 463.606
2 24.2639 11.6348 488.979
2 25.5593 8.53533 479.105
1 10.8594 13.4801 146.732
1 2.162 15.9543 416.172
1 10.699 25.0009 452.738
1 11.0325 12.4785 159.627
1 11.506 27.1481 77.1625
1 9.95036 -1.78227 441.024
1 6.77452 1.43891 99.2436
1 2.35407 21.5634 355.585
2 9.56488 11.305 431.458
2 3.7522 1.54957 64.8668
2 16.8741 1.89992 73.5219
2 6.72228 -0.328551 103.325
1 13.7683 17.8835 326.943
1 15.7283 8.35209 451.355
1 1.64966 2.83042 441.774
1 0.100591 1.16443 105.368
1 3.8008 28.05 418.386
1 18.8438 28.5095 120.939
1 13.77 10.5053 437.648
1 3.2981 14.1289 60.7743
2 25.3619 -0.413007 54.1372
2 11.5424 1.3497 484.759
2 10.4358 14.1063 433.212
2 1.44723 15.1172 55.1522
1 10.8622 -1.27152 97.6953
1 6.50892 2.12123 470.907
1 10.7813 8.75434 79.8924
1 26.5972 17.9429 73.8513
1 9.52844 13.2252 180.883
1 28.4001 24.2892 417.339
1 23.0454 12.667 445.289
1 16.2819 14.4991 128.259
2 8.54912 26.8644 470.53
2 9.84984 -0.147277 476.1
2 7.05298 3.06053 63.8311
2 2.56244 24.9622 114.584
1 20.1908 7.48928 463.647
1 17.0322 25.8522 56.6333
1 11.3604 6.98367 443.753
1 11.7996 24.9041 98.0255
1 23.8037 26.7635 62.7809
1 26.9005 13.1118 477.383
1 23.1724 17.7929 110.753
1 15.8191 -0.573621 55.8889
2 12.3622 28.3597 102.024
2 20.1086 16.8589 88.5748
2 16.6095 25.0308 468.133
2 0.761021 18.0986 429.526
1 27.1608 11.7863 473.76
1 15.5062 1.80887 491.072
1 9.11495 17.5243 482.061
1 18.3504 19.8456 68.6801
1 1.35112 15.2452 57.3809
1 2.50317 20.556 108.058
1 4.12366 24.3074 158.667
1 9.9098 3.19845 86.7989
2 23.0993 4.92322 480.508
2 3.78039 -0.662915 479.643
2 19.8836 16.3312 462.021
2 3.84525 28.7892 447.254
1 0.762352 16.4322 97.9378
1 14.4676 17.2183 133.485
1 25.9233 5.69516 442.424
1 18.8539 2.72451 482.268
1 23.6087 20.8736 81.039
1 8.01496 0.467575 398.27
1 26.1256 23.236 485.872
1 -1.12834 10.695 55.0082
2 -1.81028 25.4571 486.453
2 7.77224 11.6366 492.751
2 14.0306 26.6386 474.513
2 1.71321 6.39669 69.108
1 4.06684 11.0469 464.586
1 25.0829 7.61257 473.08
1 23.0192 24.9473 57.606
1 18.2049 24.4414 429.472
1 6.30526 1.37989 84.9266
1 10.183 22.188 117.397
1 -1.01405 2.20572 78.4386
1 21.7998 12.3361 474.315
2 0.520746 -0.361732 56.5235
2 7.55804 14.3529 446.436
2 19.6684 14.4092 447.049
2 23.2944 22.3065 492.471
1 23.2189 26.4825 72.0064
1 22.515 21.7477 384.235
1 0.950336 25.8233 412.61
1 23.5483 4.37943 60.2734
1 3.38657 8.50131 441.126
1 27.6524 8.81351 397.767
1 15.4872 10.5679 119.574
1 29.2441 27.4833 112.718
2 -1.91227 19.3481 97.8452
2 -0.893676 22.2081 467.83
2 2.8948 15.4332 99.1691
2 15.1488 -0.879762 450.32
1 1.70364 3.41656 127.148
1 8.17694 23.1728 64.4436
1 14.7171 24.3986 447.018
1 17.9808 17.3694 186.056
1 24.2972 7.77261 154.056
1 12.8176 3.29681 80.1816
1 20.7347 3.66118 78.1805
1 3.04924 26.1727 61.2234
2 4.05022 6.96891 84.7642
2 26.3595 2.40209 74.1039
2 24.2393 20.7349 66.4367
2 3.91021 12.8228 486.751
1 0.581496 17.1436 245.375
1 22.5453 13.1293 113.643
1 24.626 9.02365 206.617
1 17.9245 11.9893 171.328
1 26.1662 14.8333 71.4171
1 19.1157 28.648 489.836
1 28.0906 0.308754 434.842
1 16.3426 18.2471 56.9438
2 14.8061 1.9385 471.197
2 9.27964 22.3017 487.02
2 13.5396 12.7478 474.11
2 7.28026 25.4768 481.411
1 14.1663 21.6291 112.685
1 1.17465 28.5283 95.5117
1 19.8253 7.75964 139.936
1 14.2741 -0.0929194 124.536
1 3.06331 26.8736 446.05
1 5.07407 26.511 73.9844
1 6.93316 3.53581 482.453
1 1.40364 24.4215 153.902
2 17.1857 24.46 89.5329
2 9.70094 8.68121 63.4511
2 27.3849 1.43607 467.968
2 10.7144 2.85448 91.2841
1 4.00314 26.3774 192.048
1 26.3681 0.406715 95.9233
1 4.31985 0.97061 487.064
1 9.93218 4.78652 64.7509
1 26.1818 9.02396 68.2203
1 5.22217 10.7317 72.6785
1 5.61167 2.4411 458.66
1 12.156 24.3466 491.115
2 1.84164 20.3044 437.021
2 1.94076 24.9573 57.262
2 -0.65099 0.256302 72.7708
2 2.5929 29.4572 94.0328
1 13.0406 3.70318 464.534
1 -2.08566 21.3728 449.319
1 24.194 -0.624962 410.642
1 4.23556 20.7314 88.2849
1 12.019 12.3215 476.754
1 21.0402 14.5298 457.722
1 10.598 19.9575 456.035
1 1.22307 12.1701 57.2502
2 18.979 9.95422 464.986
2 27.3016 17.2287 479.579
2 27.0768 15.1628 476.225
2 24.6474 1.15481 437.949
1 20.2387 7.04082 77.4316
1 -1.66893 28.9337 61.051
1 24.3174 4.14499 106.466
1 7.50702 23.2393 458.736
1 12.2677 7.53737 415.655
1 28.0046 27.9351 445.318
1 1.5464 19.7945 58.8406
1 8.94339 5.8259 55.0682
2 28.9869 12.9702 458.412
2 21.1711 24.9225 88.2899
2 19.0324 8.87641 428.475
2 2.41605 -0.910364 410.574
1 22.5889 27.5407 74.671
1 19.3409 8.07701 84.2371
1 1.23894 23.1922 84.2491
1 26.9861 16.9983 191.868
1 16.7442 10.5464 88.3353
1 26.2872 27.2776 163.077
1 2.16403 14.0836 79.932
1 -0.443616 16.7153 455.992
2 7.99668 17.7437 462.518
2 19.7165 2.43506 76.6121
2 23.7415 9.35073 81.8518
2 16.0881 24.8406 462.06
1 4.78315 8.70765 63.2005
1 4.26283 25.5476 454.244
1 27.7678 4.2256 64.4512
1 12.4525 7.11601 91.2213
1 26.4319 17.2999 179.949
1 14.6024 22.9405 86.0221
1 26.3356 20.295 144.056
1 6.69628 3.12993 461.206
2 0.525098 7.16012 83.58
2 17.1194 14.811 88.6412
2 26.7311 18.9506 476.232
2 4.23767 13.776 483.175
1 25.7207 8.97005 94.3203
1 18.5558 13.1681 103.266
1 26.4671 21.2223 434.544
1 6.05742 16.2876 70.9029
1 5.86951 4.80286 67.9618
1 29.1375 13.2123 109.594
1 3.05554 4.84119 452.23
1 14.0939 28.6351 66.0559
2 20.5934 7.18058 82.5804
2 28.954 -1.31536 78.7848
2 5.70104 10.8358 63.5599
2 4.9505 18.6427 400.087
1 18.1729 17.4159 460.918
1 18.1225 29.2019 71.0591
1 6.82073 1.03305 62.2485
1 4.46813 1.84449 123.146
1 12.1446 23.6631 60.8861
1 7.30613 21.9609 106.097
1 14.0651 12.873 129.194
1 13.9224 2.67996 61.181
2 -0.397369 8.3469 87.2217
2 -0.132982 -1.64601 417.965
2 14.8574 3.96397 484.106
2 2.15712 6.11413 487.017
1 11.8478 -2.06281 455.145
1 9.99124 9.44744 432.815
1 27.8174 6.84757 475.428
1 19.0394 -0.841728 457.464
1 26.166 5.68738 59.2457
1 -1.73168 2.29592 472.069
1 25.824 15.7406 477.942
1 17.1171 23.2709 71.0922
2 8.54797 19.9948 465.254
2 10.0314 25.8717 414.288
2 4.41774 24.6036 441.416
2 10.7838 26.3989 447.743
1 8.33651 8.77286 84.444
1 4.08979 6.95958 87.1452
1 3.33204 16.5811 473.816
1 3.09306 16.6345 54.5851
1 23.8493 16.2319 108.282
1 22.8001 6.84327 461.96
1 8.52715 20.7954 436.878
1 11.0363 15.6203 60.4128
2 26.538 26.5336 465.756
2 3.70946 24.0245 90.7261
2 24.1881 1.39894 87.3007
2 1.5064 14.9574 443.554
1 7.69439 15.9242 463.708
1 6.85953 18.3045 418.002
1 3.21109 24.997 467.616
1 27.8028 9.04327 84.2361
1 21.5098 21.5378 475.363
1 8.97674 27.4485 421.402
1 23.6514 24.8894 96.0759
1 7.93316 -1.38325 98.5921
2 -0.67192 27.002 78.7095
2 23.5255 8.14191 143.924
2 20.2941 26.4965 484.831
2 20.9084 -0.416414 448.511
1 2.70421 -0.591033 80.7291
1 -0.108966 22.5451 139.489
1 22.6603 28.8249 377.511
1 6.57496 20.1245 472.897
1 -1.37838 9.50251 486.156
1 1.1797 26.2355 409.285
1 -0.921945 13.7892 462.248
1 0.61428 10.1139 451.342
2 28.9677 18.6597 115.292
2 3.21504 9.07067 104.416
2 15.1262 14.4536 109.553
2 12.0264 14.3019 464.43
1 3.56779 7.871 94.3637
1 10.3034 3.47212 485.819
1 -0.772069 23.1059 447.739
1 10.469 1.98955 423.69
1 -2.05096 7.74635 444.673
1 11.1689 6.47725 84.2739
1 4.03972 8.60762 234.196
1 17.8446 5.90601 104.969
2 23.8421 -0.674386 473.622
2 2.14224 12.7202 125.21
2 21.8928 5.59324 455.715
2 22.7839 7.85013 472.545
1 9.07676 2.11114 214.96
1 25.8981 7.98477 86.3767
1 20.7845 12.9559 482.857
1 8.544 14.121 480.242
1 20.3937 -0.610941 429.294
1 6.2203 23.533 122.759
1 21.5324 24.1619 475.157
1 18.7555 -0.141407 483.481
2 14.4607 23.022 477.217
2 16.7487 8.9939 83.2812
2 11.7123 0.361554 462.586
2 3.19543 12.5275 156.923
1 16.8617 1.34657 92.1256
1 14.3692 6.36809 79.2893
1 16.9851 28.4992 97.4606
1 19.8341 19.8936 62.3865
1 23.7231 25.8514 110.1
1 10.2217 17.3504 87.9131
1 0.109614 17.9473 152.816
1 14.7178 6.98866 490.177
2 27.6956 20.9678 450.438
2 10.0376 15.6825 146.702
2 25.4687 -1.7069 74.1818
2 11.3543 5.26239 484.628
1 10.7089 24.6851 81.6512
1 20.1179 27.7626 476.509
1 23.5229 7.96696 167.168
1 18.8378 21.0973 455.425
1 16.031 15.8035 470.174
1 7.03835 1.93518 72.2775
1 -1.52994 0.900669 391.079
1 2.58851 6.21588 91.2798
2 10.3264 29.033 456.751
2 4.84544 -1.75097 80.4248
2 6.98122 -0.254758 132.524
2 1.08932 28.4312 107.499
1 26.102 25.3998 450.375
1 28.1594 23.7809 123.9
1 13.6543 23.6031 452.258
1 3.32755 -1.91474 492.277
1 5.19854 24.4465 469.508
1 23.6333 2.22399 78.775
1 28.2861 2.6781 427.717
1 9.43485 14.6625 460.922
2 -0.345467 19.9458 111.716
2 -0.240229 3.78426 484.319
2 19.3182 28.2482 61.332
2 21.2597 6.0252 63.5876
1 23.6734 8.69937 66.3111
1 8.84378 9.5758 449.41
1 3.61114 21.5976 479.558
1 25.3771 -0.796742 98.5028
1 -0.27973 16.0167 79.2526
1 25.8013 5.2503 82.7929
1 3.93535 23.1422 118.177
1 10.9796 0.886244 66.9109
2 1.05335 25.6328 125.409
2 10.4123 17.7411 476.054
2 -1.87406 23.1443 490.47
2 -1.14249 26.5304 60.1481
1 13.4473 3.27437 224.178
1 4.80501 20.4579 459.405
1 3.24098 23.2218 448.957
1 13.0568 -0.201764 469.834
1 24.5519 29.3495 61.7961
1 17.6315 11.4607 63.2203
1 3.01592 26.8913 65.6066
1 14.1406 -0.701859 491.022
2 6.16092 18.0297 63.9135
2 11.2158 10.6816 132.195
2 13.142 0.411608 65.7324
2 10.8781 12.5452 490.058
1 11.0688 20.4698 158.146
1 3.12031 1.67316 114.516
1 11.7781 25.5472 144.987
1 26.3364 28.7561 483.87
1 16.6466 13.6286 428.241
1 9.31117 15.7344 115.606
1 14.7414 4.96909 153.507
1 13.5007 4.58936 440.604
2 23.1846 0.232828 65.1379
2 19.4642 0.769224 435.123
2 18.1488 23.1707 456.05
2 28.5127 4.37579 71.5145
1 3.66151 24.1131 74.1629
1 18.477 20.3224 451.778
1 19.4655 10.9485 87.0574
1 -1.64453 22.7721 116.114
1 22.7173 1.21688 134.2
1 16.3568 18.8565 118.729
1 8.96017 26.393 402.555
1 -1.68835 6.24925 74.4775
2 17.3259 17.9825 67.6912
2 27.8163 10.4907 81.2501
2 23.8249 3.73256 158.533
2 27.5511 4.60261 474.678
1 16.5068 4.62904 135.4
1 1.40399 23.2546 55.712
1 20.4645 5.47893 72.6155
1 10.8582 27.6964 126.487
1 7.04882 8.22311 486.097
1 8.9316 7.00061 218.234
1 2.15923 10.1351 76.6322
1 -1.58586 18.6628 448.344
2 25.5005 1.23679 79.891
2 26.4675 10.7727 482.6
2 0.111117 12.5894 99.6699
2 5.32012 26.8104 82.4146
1 0.420945 25.6714 473.189
1 18.5081 6.91618 132.841
1 16.3657 17.8018 73.7255
1 6.40711 3.90443 89.7958
1 15.1923 6.94259 477.919
1 4.47177 0.207645 73.6889
1 10.8664 28.7575 138.766
1 6.86782 9.07648 120.938
2 25.4855 -1.94962 86.0774
2 8.54826 1.75665 114.3
2 7.59056 4.03544 70.985
2 6.04452 12.306 440.698
1 24.8369 16.4657 434.446
1 19.3172 25.5977 490.705
1 22.0588 14.7522 486.003
1 15.0512 8.16821 97.2849
1 14.1476 -1.03617 485.613
1 15.4967 6.34824 140.94
1 29.0087 9.20404 56.6011
1 2.74172 26.9854 459.598
2 12.7339 22.423 459.399
2 10.9028 22.9207 84.2755
2 21.566 19.7205 63.7764
2 23.3652 -0.535573 481.056
1 25.5423 15.4087 461.024
1 10.907 -1.84607 112.876
1 15.9069 5.90332 450.002
1 21.9735 28.0988 136.292
1 21.3854 2.19967 103.719
1 11.1029 0.957395 417.603
1 2.10043 8.57203 438.502
1 4.25025 3.31285 55.1204
2 11.295 2.89191 106.863
2 7.47485 19.078 488.112
2 -1.62786 25.342 86.8656
2 20.8277 22.032 72.0216
1 10.0992 -1.0255 81.9423
1 15.163 5.25033 69.4227
1 0.124342 -1.5921 89.6515
1 23.6608 1.48359 470.153
1 29.649 8.68656 72.7617
1 19.6986 12.9969 110.334
1 1.7116 18.3377 470.015
1 11.16 1.84084 118.119
2 8.12104 9.66 489.485
2 25.4694 3.51809 477.967
2 12.7035 18.6947 63.0981
2 11.5982 24.834 443.66
1 11.2046 9.08496 119.737
1 -0.370811 22.0963 70.1037
1 21.9964 5.34656 110.786
1 8.69615 26.6128 79.9778
1 18.0948 5.72253 438.726
1 9.61487 14.4662 414.93
1 6.72889 20.8397 102.28
1 3.03597 -2.02373 134.918
2 14.7958 4.49939 71.5687
2 7.76845 0.0324775 56.5955
2 18.6496 14.2797 152.007
2 13.8125 18.2891 67.347
1 20.5898 2.05308 61.2755
1 23.0525 3.13144 69.2571
1 9.07167 15.8956 420.717
1 2.97889 29.3329 461.901
1 14.1155 17.4776 442.295
1 11.9565 18.771 77.1181
1 17.3093 18.9186 96.1498
1 20.3468 27.125 72.5382
2 8.58479 9.38754 388.831
2 20.4102 9.26925 118.495
2 17.0144 6.69955 490.064
2 25.0606 5.66928 61.4693
1 14.8674 1.71369 447.682
1 29.5431 0.899958 466.97
1 6.3065 7.05996 456.702
1 14.0717 2.61368 375.638
1 17.817 -0.573534 121.956
1 15.5558 24.3924 485.671
1 12.9799 -1.58625 103.176
1 21.7404 12.9152 132.677
2 22.6988 1.60476 490.234
2 5.11791 25.2202 54.5417
2 5.70793 -2.04564 410.956
2 25.4855 12.6296 108.274
1 24.7442 20.6381 491.852
1 7.52715 14.2926 90.2927
1 19.1084 28.5589 479.544
1 12.0626 0.348184 70.9347
1 0.570475 9.79398 121.321
1 7.44965 24.8036 461.113
1 8.46528 4.37589 109.314
1 4.96007 29.3398 75.8106
2 7.11128 11.1166 477.871
2 18.9525 3.66056 62.1962
2 27.5975 22.4101 64.9112
2 6.23535 29.2988 67.4696
1 5.37318 16.2651 103.727
1 16.0038 27.1846 468.874
1 5.82191 -1.05557 58.0079
1 26.7869 27.7491 59.0495
1 19.3262 -0.461129 211.951
1 13.0914 17.2486 61.2998
1 27.8943 22.358 107.053
1 13.9832 2.23571 381.731
2 8.9883 17.3495 113.878
2 7.636 27.6976 408.431
2 14.0576 1.08226 482.186
2 4.426 24.2245 79.7914
1 3.65649 10.844 56.4338
1 -0.125266 3.28048 76.0516
1 23.9335 -0.851528 67.1077
1 13.6115 10.9475 68.6524
1 24.3535 16.1351 170.749
1 26.9517 10.6381 87.0966
1 6.75222 10.4579 473.004
1 3.23752 3.59769 118.779
2 2.83967 22.1159 483.759
2 13.1921 28.4863 60.9128
2 17.2891 28.7297 477.9
2 20.0987 27.9736 80.8412
1 -0.451947 7.01225 386.508
1 24.8536 17.4022 487.528
1 2.92894 3.90843 57.7751
1 26.0307 17.3011 159.936
1 25.4821 28.1247 75.6431
1 12.2852 26.1211 151.464
1 0.210433 3.38222 406.348
1 20.8497 12.5811 59.0351
2 17.6616 15.032 61.4243
2 1.42265 17.807 451.842
2 17.6824 16.6322 146.096
2 12.8735 15.5972 481.588
1 11.6204 1.64743 89.7113
1 15.9889 18.0085 338.088
1 2.8685 -1.53554 96.4599
1 19.816 0.315554 399.628
1 8.25906 21.0828 57.4194
1 -0.593224 -1.46913 96.819
1 8.48986 26.8385 125.525
1 9.67771 23.6083 141.604
2 11.8308 25.2067 63.0425
2 28.8415 14.9267 102.123
2 6.66585 8.81125 470.952
2 13.7182 22.5436 142.725
1 5.25309 11.7306 482.853
1 -1.41302 9.84428 430.689
1 3.90129 11.835 458.22
1 2.37758 17.5501 487.501
1 15.0526 29.5165 68.47
1 3.00347 16.052 67.4989
1 22.555 17.1465 485.616
1 17.0363 25.7229 95.1127
2 14.0326 22.9196 473.291
2 7.36638 3.16871 97.4883
2 11.2286 17.6627 55.8985
2 7.09868 7.67596 464.669
1 -0.123909 4.46546 141.119
1 28.2571 29.0656 136.7
1 25.6376 28.9267 477.219
1 13.4171 16.6265 63.8515
1 15.073 3.74836 92.9425
1 1.99193 10.0443 113.069
1 18.8925 26.599 404.63
1 26.7959 19.3434 445.9
2 10.3539 20.2294 68.8562
2 7.27189 19.6577 475.012
2 7.42134 -0.941211 458.071
2 9.28239 27.8538 444.571
1 6.81295 13.2282 444.66
1 11.3592 19.906 90.5343
1 15.8683 21.5181 101.043
1 13.2418 14.8027 462.49
1 8.28908 21.8414 492.628
1 4.6522 7.3966 103.412
1 23.7742 9.62731 450.847
1 8.41678 10.856 155.219
2 -1.41283 9.5765 452.445
2 3.7576 8.61993 72.3086
2 15.4144 7.56272 101.922
2 21.7533 22.41 81.3314
1 14.7921 -1.79227 61.4634
1 2.89252 8.3211 100.435
1 -0.808284 10.1992 420.961
1 4.46361 23.6226 96.6329
1 -0.593226 10.0857 116.643
1 6.19911 21.0518 128.753
1 16.9981 23.652 104.72
1 21.6135 15.0642 463.463
2 3.3592 20.1657 62.4495
2 -1.1923 28.3561 465.676
2 15.1162 11.1082 66.8178
2 17.1626 -0.820483 129.322
1 3.58985 0.493368 470.387
1 7.81083 26.5094 86.4071
1 13.1276 28.9018 70.4004
1 13.1149 23.3593 66.8225
1 0.697166 18.1167 437.561
1 24.5147 18.819 120.746
1 -1.6011 23.1562 75.1351
1 3.43781 8.67328 465.836
2 10.4707 1.24774 83.1594
2 2.45591 12.1557 62.1707
2 1.86496 -0.443742 462.405
2 8.12803 5.11952 66.7568
1 -0.102795 -1.62471 164.931
1 19.1139 10.544 467.134
1 1.71333 14.8755 463.722
1 28.5567 14.3558 424.764
1 2.8987 21.8617 143.378
1 0.181283 20.7074 74.79
1 23.2245 25.6848 113.356
1 10.7867 20.1054 106.009
2 6.98566 29.3075 489.093
2 18.5632 24.9728 441.943
2 20.7321 22.5256 458.946
2 25.1446 18.7244 116.688
1 5.887 1.62726 479.379
1 21.0397 9.25166 89.1849
1 9.72425 -1.65249 492.28
1 23.5953 28.6678 77.7109
1 28.0165 26.3522 110.577
1 5.33943 10.304 411.864
1 22.2672 5.87749 83.8581
1 28.8131 2.80708 92.9566
2 20.564 12.3412 112.905
2 4.07683 5.53824 416.561
2 9.39644 26.8386 66.1043
2 4.87249 17.2344 96.0043
1 19.8821 7.56907 430.346
1 3.50256 15.6245 149.159
1 12.4974 6.37667 57.8454
1 -0.79442 0.294169 453.271
1 10.2187 24.7562 66.6246
1 25.7598 2.70579 59.4125
1 15.3427 26.8827 104.019
1 22.1955 9.22875 117.132
2 1.05115 21.6008 480.304
2 0.687652 9.13407 101.506
2 9.68271 19.1872 65.4038
2 23.3613 18.7499 60.3933
1 25.6215 17.3831 112.205
1 1.83872 -1.8936 403.802
1 -1.93275 17.8617 486.053
1 11.3876 21.7135 101.579
1 10.2585 10.1996 82.9662
1 11.6803 20.9036 129.147
1 -1.02137 8.99277 406.462
1 25.1119 10.4817 137.238
2 2.21157 26.5886 63.4987
2 4.85203 9.40672 492.058
2 8.59433 4.88558 93.7853
2 14.5545 13.8808 452.055
1 3.17761 26.5799 440.883
1 7.84288 1.34755 175.49
1 20.217 6.77536 80.2522
1 21.1724 0.173909 66.9099
1 12.4572 27.1569 471.85
1 12.8385 1.6077 100.449
1 23.6776 -2.03963 211.887
1 14.483 -0.227685 464.09
2 15.1593 13.639 483.986
2 25.1776 10.5712 66.8457
2 -2.259 4.30189 97.2258
2 22.2503 -1.67825 68.6521
1 29.3006 19.9562 107.464
1 24.0386 0.946225 91.6934
1 8.79233 21.1478 460.493
1 19.8397 -1.82125 101.274
1 2.26526 12.7283 106.697
1 10.7333 29.4076 427.907
1 -1.76328 7.95007 480.274
1 28.814 17.2385 113.516
2 11.1257 6.78674 489.733
2 22.9613 12.9782 83.5919
2 6.22805 -0.79102 108.589
2 11.0203 5.83789 76.7618
1 20.3748 12.0036 170.621
1 22.928 13.1431 465.544
1 1.71635 1.58568 455.078
1 20.1158 8.3328 135.05
1 12.4148 -0.0625611 483.246
1 21.426 13.8996 103.594
1 29.6312 9.28782 75.6147
1 11.2961 5.25032 446.1
2 12.8568 10.9457 86.052
2 16.6259 25.2844 70.2063
2 12.1253 -1.61036 72.1218
2 19.8814 6.26072 111.453
1 -0.743466 12.8071 143.72
1 8.74129 25.0086 96.5485
1 14.2643 14.6584 386.34
1 27.502 12.4518 70.8741
1 17.6219 28.5075 464.967
1 23.6733 7.16693 60.6504
1 5.51603 18.1575 492.533
1 4.32914 8.32515 113.681
2 11.0416 17.5517 117.162
2 13.8083 0.0739447 101.571
2 24.4083 28.1432 491.006
2 16.2873 15.4383 80.5575
1 0.602131 12.143 138.177
1 6.75058 16.7162 483.474
1 20.0361 6.47593 94.4446
1 15.8962 6.00398 90.9217
1 27.881 23.0575 57.2326
1 22.778 14.9221 481.784
1 9.46891 19.4323 72.2522
1 21.0804 23.3179 58.7351
2 10.362 6.90731 474.989
2 21.313 1.75627 68.771
2 20.472 -0.37772 92.793
2 5.55648 28.5265 57.6402
1 12.5471 10.1423 378.132
1 4.03349 8.58142 89.6529
1 8.69995 19.0286 476.81
1 0.559326 25.176 109.744
1 15.524 25.1919 90.9022
1 26.1086 16.5325 146.442
1 22.7449 19.6168 473.763
1 15.1589 8.32076 487.233
2 -0.851532 15.732 60.7864
2 12.9462 14.8292 61.7389
2 9.22274 21.1691 107.228
2 -1.82321 13.5625 75.8206
1 25.231 15.7018 233.512
1 26.2027 25.2661 406.887
1 8.09556 6.15526 102.577
1 6.96256 28.5764 108.919
1 15.5752 -2.03174 58.4838
1 19.8168 24.9158 112.082
1 5.93217 0.419913 473.653
1 9.88358 26.13 442.778
2 16.8431 6.59559 61.8712
2 20.6047 21.8099 94.4679
2 13.0723 14.6132 65.274
2 1.63628 4.39422 490.924
1 2.19826 15.9121 77.6548
1 21.1123 12.098 128.313
1 13.9534 26.7528 194.991
1 12.7115 -2.21689 489.118
1 21.0081 21.2571 452.458
1 0.294918 29.0793 155.399
1 21.2957 2.63607 92.0108
1 19.2346 4.58937 492.36
2 -0.895733 6.39446 468.918
2 15.2498 10.4145 99.6152
2 28.8945 -0.433077 75.1417
2 -2.09515 2.55885 122.089
1 13.5163 28.2211 421.973
1 11.5192 21.055 440.1
1 3.83073 -0.855262 439.979
1 25.6577 29.0967 417.621
1 24.6425 12.7614 87.7995
1 20.0524 27.7832 123.131
1 22.0661 7.42616 70.5609
1 0.257139 17.1289 144.773
2 13.3028 3.55932 74.8589
2 7.40653 -1.0149 120.329
2 19.3355 -0.68585 78.7654
2 22.0671 29.1235 55.244
1 24.8533 24.5175 441.713
1 9.41576 10.6295 182.445
1 21.5681 15.7042 437.677
1 25.0417 26.0003 98.5233
1 25.1416 11.0881 424.033
1 14.9853 8.9072 484.133
1 14.3253 6.42956 126.576
1 27.7271 17.1871 431.122
2 19.7867 28.0582 85.4595
2 -0.310225 8.77918 67.2884
2 4.97465 4.65471 91.5558
2 18.8136 6.08678 122.149
1 15.4494 12.9337 463.18
1 26.2633 0.218272 106.793
1 7.23172 21.9462 464.577
1 2.59781 15.0664 138.129
1 13.9481 8.75307 100.462
1 25.2736 19.3171 464.934
1 28.8582 14.2058 92.122
1 10.2143 -0.250452 76.7903
2 -1.06971 25.212 99.7726
2 15.5773 25.4254 487.86
2 15.1912 12.7166 59.5282
2 -1.18585 25.4326 63.5099
1 14.1231 6.72884 442.416
1 26.8877 22.2102 399.095
1 10.5522 -0.3736 489.596
1 28.303 22.6618 478.7
1 28.6381 2.47792 136.708
1 18.709 27.457 395.803
1 26.181 2.97409 437.445
1 -0.261374 2.21544 120.797
2 27.0955 15.2849 482.353
2 2.93583 21.208 81.4281
2 0.212662 1.31994 80.4175
2 24.1035 21.4425 474.741
1 12.9219 14.9723 454.871
1 25.2804 16.7507 63.2537
1 22.3599 23.9801 454.433
1 -1.35878 19.3089 140.506
1 7.92494 -2.1354 464.076
1 9.70445 17.7206 470.033
1 21.0492 15.5199 91.7243
1 20.5669 13.5968 455.331
2 20.105 22.547 97.963
2 -0.0530462 14.1087 64.0526
2 20.175 11.8504 492.078
2 11.4007 20.2272 95.4964
1 9.51596 0.763296 91.5574
1 18.5132 12.2144 460.245
1 4.85698 0.795726 109.943
1 23.4208 -1.15453 86.8268
1 13.3204 12.3127 65.9252
1 27.0802 14.4684 178.675
1 16.5432 4.22435 62.8627
1 0.427358 29.0185 92.6634
2 22.8303 18.7518 97.4904
2 11.0863 8.58586 486.301
2 28.0701 13.2962 98.5007
2 -0.843061 19.7327 70.744
1 1.78523 18.1018 475.892
1 13.2644 0.954074 422.82
1 15.2224 -0.738307 131.87
1 3.1121 29.2341 433.574
1 8.94606 -1.5659 477.767
1 19.4125 26.5928 438.131
1 19.261 9.56021 77.7417
1 0.755826 19.4845 411.169
2 11.3635 -2.13662 55.0579
2 1.98085 7.72666 107.725
2 10.1879 3.7069 80.4752
2 15.8756 29.1812 70.7201
1 27.6086 0.385332 54.239
1 2.86219 23.1151 88.4574
1 16.7529 6.84142 84.9021
1 10.781 19.4987 412.342
1 19.4833 26.6519 457.53
1 19.2423 12.299 84.7435
1 23.3526 -2.01407 70.8028
1 29.0084 25.8086 64.9276
2 0.671732 12.1138 474.758
2 7.94112 5.75449 472.206
2 -2.2991 26.1636 477.564
2 4.41695 19.5589 91.977
1 20.9051 5.37193 101.979
1 25.3879 9.41557 216.503
1 15.6128 19.6788 448.159
1 15.9738 18.7872 99.0401
1 -2.30847 9.21254 68.5466
1 24.7734 23.7521 153.814
1 1.655 28.3806 466.202
1 21.8934 6.15947 453.455
2 16.5712 1.38675 83.996
2 13.5671 6.94493 83.6347
2 14.9088 29.1786 104.603
2 2.69439 26.5952 73.9034
1 24.9375 19.1853 58.7997
1 15.0578 2.0499 78.9642
1 23.1146 15.8489 473.818
1 10.179 9.84327 129.862
1 15.4705 27.477 152.676
1 16.8288 28.923 438.714
1 29.5682 29.2736 463.82
1 14.6941 6.10651 182.302
2 27.1224 -2.13095 467.619
2 7.34815 20.6099 95.411
2 2.6256 2.04274 154.314
2 -2.3106 3.10789 64.8799
1 28.9983 20.5382 99.5158
1 1.81845 23.9104 138.077
1 12.4253 19.5777 56.0113
1 0.198343 2.58728 60.9567
1 9.58433 11.5707 55.8412
1 22.9483 5.4775 76.0646
1 22.7134 11.1001 210.653
1 5.66636 28.6185 99.454
2 11.2777 13.885 84.1173
2 13.7751 8.83355 105.738
2 0.467395 15.516 81.3602
2 2.42348 16.5225 465.554
1 4.85725 -0.113014 60.5789
1 15.1081 5.37733 194.295
1 12.2581 13.5135 451.709
1 14.4435 29.2834 109.491
1 9.89679 9.78133 126.97
1 15.1315 8.72406 475.088
1 27.8148 11.8497 489.472
1 4.91657 25.1753 84.3122
2 9.30557 16.1769 101.829
2 1.44731 25.9232 466.497
2 1.44108 10.8929 84.7123
2 10.7979 0.348144 69.1386
1 15.9772 -1.93216 462.79
1 14.8726 23.3147 488.958
1 4.41246 14.1436 469.698
1 25.8433 15.7768 471.988
1 -0.118538 21.5405 405.077
1 17.6595 22.2804 139.589
1 14.0835 -0.832173 83.2113
1 9.49808 13.441 486.331
2 4.09563 10.9658 472.681
2 25.4461 9.33598 110.484
2 21.3026 25.5438 70.9126
2 28.9856 13.4016 484.6
1 4.36379 1.48327 117.334
1 3.71144 17.0282 401.423
1 18.7935 10.4516 145.428
1 27.7572 3.7177 398.085
1 19.0476 12.4657 133.744
1 25.8753 20.6971 438.964
1 4.62425 26.9154 58.8979
1 3.87071 26.1802 88.4915
2 22.2253 5.17063 440.787
2 18.5203 23.6879 491.821
2 23.183 7.90114 159.433
2 26.9843 24.4457 439.956
1 23.1903 5.93596 73.1243
1 -0.319849 2.80898 465.748
1 12.695 21.1842 477.928
1 11.7051 17.9868 108.765
1 -0.632423 12.8426 90.9879
1 10.9007 15.9903 435.173
1 26.0698 14.0857 143.082
1 18.5643 6.93554 113.299
2 25.1784 28.2238 70.1785
2 27.4474 22.0227 446.691
2 12.9429 25.4813 103.784
2 14.2018 17.0714 83.5825
1 29.3745 7.96968 484.243
1 22.2813 -0.210931 123.362
1 -1.50273 5.44192 91.2534
1 16.5463 28.7766 359.243
1 11.9746 15.0871 95.9856
1 13.1201 20.8329 80.8954
1 -1.10108 1.51059 487.388
1 23.8593 16.2826 489.858
2 16.7144 5.37459 93.3406
2 6.51932 7.07235 63.8135
2 28.9394 0.660822 61.6707
2 25.4119 28.0224 93.1632
1 15.8785 24.0405 419.649
1 6.24756 8.6825 142.107
1 -2.29023 22.9594 54.0589
1 8.80431 9.70266 110.255
1 1.088 19.3835 479.895
1 3.39744 4.49695 115.86
1 13.6592 28.574 89.4527
1 13.3263 12.4173 97.7516
2 21.9645 26.9236 58.384
2 16.1711 25.665 105.762
2 -1.47554 5.46147 67.9327
2 8.78126 8.42466 75.6228
1 15.8917 23.6567 137.524
1 -0.229689 6.66092 139.209
1 1.57749 22.464 90.9743
1 11.7116 14.4957 69.1978
1 20.0951 29.468 147.166
1 17.1424 9.14768 111.315
1 6.90397 28.6779 461.558
1 24.5099 8.36458 439.226
2 20.7342 21.8853 126.257
2 7.12978 22.5664 103.881
2 0.14543 11.3418 449.512
2 20.9811 21.8288 60.3391
1 24.3042 5.6483 70.4187
1 9.69623 19.9942 109.453
1 3.57219 14.4074 481.064
1 20.8298 23.21 169.147
1 -1.03802 1.2331 70.0698
1 16.7134 5.3762 491.897
1 23.2875 14.0609 124.752
1 29.499 27.5123 58.6791
2 19.3081 24.3701 67.9944
2 14.1093 9.08716 489.407
2 3.55145 1.39 78.3108
2 6.34899 14.2947 62.9721
1 28.7669 16.4226 63.4756
1 22.7597 0.772994 89.1237
1 13.4668 13.4145 71.1502
1 27.3247 19.9269 75.562
1 8.49763 -0.0900006 449.33
1 13.1122 9.72528 98.0827
1 18.0928 29.1315 455.545
1 27.2327 17.9893 409.517
2 12.8428 19.4149 106.876
2 1.44198 3.02224 104.828
2 22.5645 12.1608 69.3614
2 13.7911 1.1391 442.625
1 9.48848 26.9286 472.669
1 27.3797 27.9553 71.2774
1 -1.89834 -1.71196 120.092
1 21.2388 -1.42445 76.1541
1 29.3824 -2.04305 481.551
1 21.3746 3.90222 58.2723
1 19.783 12.6281 464.616
1 21.5724 12.2246 166.502
2 18.7755 28.1336 93.1827
2 14.1101 12.3344 491.999
2 14.7837 12.0904 121.304
2 3.52546 5.96111 135.237
1 16.2474 28.2252 130.4
1 23.2037 22.7515 472.9
1 23.944 28.9654 113.767
1 -1.18384 -1.51306 65.4514
1 11.9732 0.451706 60.7469
1 24.6776 17.0064 85.6902
1 -0.467268 11.495 75.6566
1 18.1808 21.6993 467.719
2 18.6704 11.8034 67.1397
2 0.417161 27.6335 488.703
2 0.406643 18.818 128.326
2 5.29251 21.0762 74.1089
1 -0.410412 12.5001 103.694
1 28.0601 20.2871 477.544
1 20.5268 21.0688 420.687
1 11.4227 0.808402 492.41
1 9.71259 29.2375 461.457
1 8.01888 16.0744 156.499
1 7.27912 1.82885 103.637
1 3.44781 28.6139 62.9882
2 -1.13349 10.357 73.9091
2 14.4368 1.58141 92.527
2 23.6593 10.0432 94.9862
2 15.0577 8.07213 73.0812
1 19.5126 4.66908 463.182
1 14.193 18.5784 78.7473
1 15.0935 16.411 118.343
1 6.38629 25.2111 80.8244
1 6.62796 9.24345 95.1313
1 16.2314 23.9433 63.8221
1 6.51164 6.96556 433.745
1 21.2543 8.43243 446.004
2 21.7969 11.6663 453.164
2 7.3826 24.4138 85.1569
2 11.0652 4.03933 69.2658
2 12.4137 16.8688 97.3473
1 10.4217 23.1025 450.375
1 28.4262 24.8659 475.922
1 6.16034 20.3721 123.069
1 22.6999 3.71329 114.667
1 27.1837 17.7195 481.93
1 11.3803 5.47587 138.826
1 -0.591151 -1.74668 487.02
1 5.3644 13.0885 70.8671
2 14.9829 22.0457 76.1358
2 26.9802 13.5897 82.8738
2 19.9756 -2.11482 475.228
2 4.53051 13.5451 476.268
1 13.5972 1.53791 87.3967
1 16.2321 26.0337 171.715
1 10.5217 8.50126 151.516
1 22.7136 15.6747 429.59
1 5.84508 19.1646 149.454
1 9.34793 1.20561 473.939
1 23.8306 20.5213 110.449
1 22.9173 7.98679 151.404
2 11.3071 25.0993 472.328
2 9.09454 19.1982 61.7211
2 20.1136 11.9569 63.3233
2 29.3896 -1.21282 108.51
1 12.9441 23.7936 152.871
1 13.9234 27.7484 98.0325
1 19.9996 5.04979 123.859
1 -2.24981 -0.500522 67.7859
1 23.022 24.1714 470.149
1 3.72693 25.3981 103.643
1 0.870033 18.586 132.861
1 0.166146 28.7858 458.293
2 10.4078 10.9821 475.937
2 1.45709 18.7426 483.105
2 8.427 3.81937 489.907
2 21.1817 13.365 56.7406
1 -1.26714 17.7212 93.5462
1 0.0609714 1.25535 89.8554
1 10.0367 16.2138 122.883
1 10.2848 18.6887 123.292
1 19.8594 22.1229 112.718
1 8.63728 20.0275 91.2913
1 8.38363 16.7973 479.357
1 2.48834 -1.87092 103.787
2 29.4399 18.7551 58.4025
2 0.245007 26.8365 96.7824
2 12.2033 10.9442 466.005
2 5.7992 2.08406 74.3429
1 28.7362 16.0336 72.9731
1 7.78577 28.6225 458.713
1 4.99478 0.974648 76.5741
1 6.10315 19.1071 75.1371
1 17.9827 16.832 87.7034
1 1.80833 7.54824 134.67
1 -0.461209 26.3374 76.4554
1 8.56964 0.703608 468.514
2 5.09967 24.6184 72.2959
2 7.78245 18.863 492.677
2 8.74125 4.51155 74.3706
2 8.70036 2.41881 462.394
1 9.42243 7.26263 479.588
1 15.025 13.94 148.39
1 15.1287 6.72696 109.92
1 18.9929 24.3657 75.218
1 6.87317 8.63635 88.0191
1 3.68687 26.9258 484.228
1 22.1383 5.61893 147.754
1 2.56833 3.97537 437.221
2 29.2826 18.9894 63.2932
2 28.2853 29.313 59.8563
2 28.0617 7.49385 74.0025
2 26.5824 16.3331 78.6206
1 4.4206 12.634 79.5768
1 24.3882 11.0721 426.619
1 19.5347 21.21 484.985
1 10.0324 6.23624 81.2193
1 20.6535 21.0345 176.369
1 21.5077 17.7569 161.275
1 17.7236 21.9325 65.1484
1 16.1945 27.9447 175.013
2 18.5608 28.54 104.732
2 25.0632 10.6787 74.2541