ITEM: TIMESTEP
50000
ITEM: NUMBER OF ATOMS
18000
ITEM: BOX BOUNDS xy xz yz pp pp pp
-2.4994601787168269e-01 2.8143946017871631e+01 0.0000000000000000e+00
-2.9159344653658037e+00 3.3764393446536633e+02 0.0000000000000000e+00
-2.3689018984302454e-01 2.8130890189842834e+01 0.0000000000000000e+00
ITEM: ATOMS id type x y z
1 1 1.1333 -1.56708 1.06613
2 1 3.9508 -1.71097 1.13016
3 1 3.6494 -1.71423 3.92816
4 1 1.05664 -1.61352 4.0456
5 1 1.02972 1.30646 1.24598
6 1 3.79965 1.1415 0.926396
7 1 3.7057 1.21397 3.95264
8 1 0.855638 1.27271 3.73024
9 1 6.69983 -1.50057 1.03517
10 1 9.68146 -1.59054 0.876957
11 1 9.67811 -1.79032 4.05876
12 1 6.38211 -1.40171 4.14768
13 1 6.61369 1.31398 1.2735
14 1 9.54109 1.2654 0.921153
15 1 9.59032 1.22113 3.96109
16 1 6.66542 1.1721 3.92571
17 1 12.511 -1.74813 1.11185
18 1 12.3462 -1.36294 3.76354
19 1 12.2769 1.29399 0.965097
20 1 12.4247 1.37068 3.6864
21 1 0.877008 4.25222 0.892224
22 1 3.86977 3.88871 0.954755
23 1 3.7226 4.00662 3.92925
24 1 0.901496 4.11006 3.86004
25 1 1.11195 7.1518 1.14166
26 1 4.0378 6.6245 0.827721
27 1 3.96247 6.92109 3.82418
28 1 1.03487 6.8466 3.8818
29 1 6.7759 3.99053 0.929557
30 1 9.49281 3.95534 1.20629
31 1 9.34188 3.89662 4.06269
32 1 6.36988 3.82067 3.80212
33 1 6.77922 6.8199 1.05695
34 1 9.95215 6.78557 1.02153
35 1 9.53673 6.79417 3.8608
36 1 6.55984 6.65167 3.88482
37 1 12.3134 4.15049 1.21883
38 1 12.2964 6.97331 4.06722
12143 2 8.21225 14.1518 13.8207
39 1 12.9259 6.98931 1.34556
41 1 1.07728 9.75243 0.81365
42 1 4.20153 9.45527 1.39096
43 1 4.07967 9.75419 4.05845
44 1 1.15925 9.77024 4.08714
45 1 1.412 15.1699 1.20012
46 1 4.16234 12.4871 1.03654
47 1 3.84173 12.5828 4.15263
48 1 1.04099 15.5097 3.64198
49 1 7.01614 9.60901 1.3012
50 1 9.69181 9.64637 1.30788
51 1 9.51851 9.78619 4.03468
52 1 6.69487 9.70361 3.93683
53 1 6.85501 12.4345 1.30794
54 1 9.49352 12.3086 1.2576
55 1 9.76766 12.8338 3.78802
56 1 6.87704 12.7042 3.95496
57 1 12.3745 9.80574 1.3272
58 1 12.3285 9.90624 4.04411
59 1 12.5098 12.6655 1.36305
60 1 12.4547 12.5656 4.02517
61 1 1.28464 18.6668 1.38367
62 1 4.12424 15.28 1.18786
63 1 3.84871 15.6255 3.94903
12126 2 2.54598 -2.86365 13.7957
65 1 1.16989 21.1902 1.0064
66 1 4.00604 18.2 0.709496
67 1 4.09339 18.481 3.83179
68 1 1.29025 18.5516 4.03725
69 1 6.77171 15.4295 1.24132
70 1 9.73478 15.4614 0.909128
71 1 9.71036 15.5212 3.8831
72 1 6.45396 15.6691 3.9798
73 1 6.92589 18.359 1.2286
74 1 9.76601 18.6412 1.27859
75 1 9.61369 18.3241 4.00836
76 1 6.80672 18.2401 3.90827
77 1 12.3744 15.3704 0.928339
78 1 12.7942 15.7816 3.59448
79 1 12.5509 21.0355 1.06759
80 1 12.5652 18.4898 3.99177
12131 2 2.62122 2.90454 13.8399
82 1 4.06203 21.2507 1.13353
83 1 3.80095 21.1758 4.11078
84 1 1.145 21.2202 3.72671
85 1 6.95607 21.2207 0.986592
6022 1 12.3839 4.09765 4.22611
87 1 9.84598 21.1475 3.67703
88 1 7.09033 21.2929 3.8082
12135 2 11.0045 5.61493 13.7062
90 1 12.9517 21.2332 3.45281
91 1 0.817442 -1.56209 7.07632
92 1 3.96206 -1.5871 6.49294
93 1 4.01947 -1.69926 9.24979
94 1 1.17575 -1.58881 9.56447
95 1 0.951122 1.32202 6.75437
96 1 3.65438 1.19793 6.85842
97 1 3.47234 1.21126 9.60579
98 1 0.933204 1.39106 9.61222
99 1 6.77947 -1.46545 6.86335
100 1 9.6494 -1.26338 6.67882
101 1 9.61968 -1.40159 9.47918
102 1 6.86206 -1.31634 9.62833
103 1 6.64534 1.27778 6.66596
104 1 9.41579 1.31171 6.77634
105 1 9.67762 1.34036 9.44574
106 1 6.68753 1.29133 9.37753
107 1 12.6262 -1.29581 6.50264
12007 2 8.00488 -2.84412 2.36591
109 1 12.2432 1.51552 6.7901
110 1 12.3762 1.21255 9.59565
111 1 0.908706 3.95655 6.62559
112 1 3.82714 3.95276 6.61357
113 1 4.14805 3.98797 9.26567
114 1 1.39168 4.43373 9.72448
115 1 1.04778 6.69557 6.73472
116 1 3.623 7.17113 6.70604
117 1 3.93639 6.78285 9.57037
118 1 1.03418 7.22953 9.62126
119 1 7.00944 3.90849 6.53655
120 1 9.65921 4.21877 6.91543
121 1 9.72179 4.38925 9.83963
122 1 6.60664 4.08837 9.59918
123 1 6.45931 6.95771 6.73888
124 1 9.36581 6.72866 6.91816
125 1 9.4554 6.98239 9.82541
126 1 6.67137 7.14231 9.61664
127 1 12.6365 4.17583 6.92147
128 1 12.5711 4.24552 9.80909
129 1 12.4169 6.94264 6.71836
130 1 12.4031 7.19095 9.53886
131 1 1.31732 9.71137 6.8728
132 1 4.02784 9.60412 6.99236
133 1 3.72763 9.69978 9.80573
134 1 0.733343 10.2534 9.6541
135 1 1.10411 12.6962 6.87543
136 1 4.01184 12.6487 6.68166
137 1 3.9715 12.4973 9.46281
138 1 1.20782 13.0211 9.7805
139 1 6.81249 9.66553 6.92538
140 1 9.46831 9.88104 7.05335
141 1 9.65934 9.82294 9.7124
142 1 6.70513 9.86248 9.84903
143 1 6.62312 12.6019 6.9047
144 1 9.58057 12.7404 6.70848
145 1 9.66227 12.8015 9.67239
146 1 6.77488 12.47 9.71197
147 1 12.3597 9.72671 6.95347
148 1 12.4599 10.1066 9.67969
149 1 12.5923 12.6213 6.70456
150 1 12.5909 12.7912 9.46222
151 1 1.19039 15.4266 6.37968
152 1 3.78208 15.7056 6.77964
153 1 3.79172 15.2574 9.64069
154 1 0.999162 15.6409 9.25078
155 1 1.0834 18.5229 6.87351
156 1 3.81202 18.6562 6.5009
157 1 3.99896 18.2585 9.62441
158 1 1.27322 18.4737 9.4612
159 1 6.88772 15.299 6.89755
160 1 9.65795 15.5175 6.74646
161 1 9.67649 15.621 9.50842
162 1 6.72738 15.3733 9.75366
163 1 6.67592 18.2939 6.7681
164 1 9.4375 18.5981 6.60391
165 1 9.69155 18.4511 9.26119
166 1 6.98031 18.3689 9.32849
167 1 12.8249 15.4544 6.97053
168 1 12.404 15.724 9.87263
169 1 12.2402 18.2444 6.68552
170 1 12.5114 18.3684 9.61206
171 1 1.18353 21.1697 6.59283
172 1 4.13203 21.3259 6.88524
173 1 4.06736 21.1844 9.7059
174 1 0.87125 21.0685 9.67233
175 1 6.83943 21.2005 6.79529
176 1 9.71821 21.079 6.76133
177 1 9.62086 21.3038 9.65117
178 1 6.90536 21.4096 9.58565
179 1 12.648 20.7588 6.72135
180 1 12.6505 21.0921 9.55381
181 1 0.892465 -1.31769 12.5085
182 1 3.71715 -1.61025 12.3204
183 1 1.03007 1.62655 12.3863
184 1 3.9247 1.48909 12.5212
185 1 6.37274 -1.41203 12.3113
186 1 9.07745 -1.37729 12.4283
187 1 6.96081 1.18 12.1572
188 1 9.82305 1.38927 12.3631
189 1 12.6177 -1.29461 9.60269
190 1 12.3 1.34226 12.5864
191 1 0.909731 4.30823 12.6692
192 1 4.0453 4.19031 12.1397
193 1 1.19507 7.13556 12.4027
194 1 4.11943 6.96477 12.8857
195 1 6.86883 4.04465 12.729
196 1 9.56142 4.06689 12.5299
197 1 6.95383 6.97827 12.6669
198 1 9.71365 6.80484 12.4501
199 1 12.5295 4.34478 12.5156
200 1 12.4829 7.20348 12.5319
201 1 1.17702 9.81683 12.5782
202 1 3.94085 9.81397 12.6402
203 1 1.11506 12.2453 12.5373
204 1 4.19798 12.7138 12.4304
205 1 7.00005 9.64961 12.6451
206 1 9.50804 9.93345 12.6296
207 1 6.72693 12.6487 12.309
208 1 9.72437 12.7179 12.5321
209 1 12.3649 10.0679 12.2733
210 1 12.7613 13.0001 12.542
211 1 1.0037 15.4026 12.4584
212 1 3.7786 15.6148 12.4566
213 1 1.31691 18.2416 12.4035
214 1 3.85797 18.4052 12.4636
215 1 6.56053 15.4081 12.641
216 1 9.49631 15.5729 12.5547
217 1 6.84229 18.4009 12.2592
218 1 9.42306 18.2308 12.0004
219 1 12.3549 15.788 12.5986
220 1 12.3225 18.4162 12.4795
221 1 1.23001 21.2557 12.6046
222 1 3.87543 21.4524 12.4308
223 1 6.80248 21.3192 12.4523
224 1 9.69831 21.1896 12.4928
225 1 12.5897 21.2783 12.5813
15062 2 13.8048 2.62421 8.26827
12150 2 10.9882 22.7244 13.7861
6181 1 12.0852 -1.38012 12.3844
12133 2 8.30379 2.71118 13.911
12022 2 2.8376 11.3488 -0.19247
12044 2 -0.181671 22.729 2.53538
86 1 9.65269 21.2925 0.824835
12008 2 5.06745 -0.341477 2.62238
6058 2 -0.234633 13.9223 2.35707
12010 2 11.1064 -0.16576 2.41474
12125 2 11.1204 19.8125 10.7462
6057 1 -0.278575 16.6498 0.156857
12013 2 2.51441 2.57669 2.50775
12124 2 8.41454 22.556 10.9768
12128 2 8.02032 -2.8026 13.8048
12059 2 11.1731 -2.87136 5.68805
12017 2 8.29626 2.53624 2.48765
12018 2 5.24058 5.26988 2.42821
12071 2 -0.204788 8.36407 5.54197
12020 2 11.2415 5.49121 2.73173
12113 2 5.18214 8.4136 10.9237
12104 2 8.15761 -0.0639066 10.8869
12023 2 2.45259 8.24623 2.55317
12103 2 5.1832 -2.75131 10.9687
12145 2 10.9513 17.0186 13.9047
12107 2 2.53694 5.65302 11.1501
12027 2 8.04885 8.15747 2.6181
12028 2 5.45884 11.107 2.62548
12105 2 11.0535 -2.86138 10.992
12030 2 10.8942 10.9717 2.52491
12102 2 2.39791 -0.107156 11.0713
12114 2 8.08569 11.1384 11.0753
12033 2 2.95785 14.0387 2.60555
12148 2 8.17678 19.6858 13.6321
12100 2 11.0937 22.4787 8.24695
12099 2 11.2095 19.7077 5.21658
12037 2 8.33037 14.142 2.39274
12038 2 5.34018 16.8305 2.53156
12098 2 5.53106 22.598 8.25674
12040 2 11.2456 16.9181 2.46031
12097 2 8.12173 19.8904 8.31039
12006 2 8.00466 0.0702454 -0.224628
12043 2 2.78213 20.0114 2.59929
12123 2 5.20853 19.7313 11.1971
12096 2 8.42842 22.246 5.28002
12095 2 5.4187 19.9043 5.15663
12047 2 8.2983 19.6958 2.65657
12048 2 5.509 22.5316 2.46608
12115 2 10.9388 8.36967 11.0616
12050 2 11.1943 22.3538 2.35935
15116 2 13.7431 16.7784 11.2371
12052 2 2.43902 -0.355388 5.52023
12112 2 2.46269 11.188 11.1429
12122 2 2.42726 22.5235 10.971
12110 2 11.0744 2.66868 11.0821
12056 2 8.09448 -0.110095 5.22003
12109 2 8.21456 5.54073 11.0917
12058 2 5.40057 -0.260594 8.12221
12108 2 5.44283 2.74978 10.8812
12060 2 11.053 0.0177656 8.14305
12120 2 11.1219 14.1358 11.2358
12062 2 2.65628 5.47341 5.44723
12063 2 2.38426 2.64353 8.05376
12119 2 8.18463 16.9376 10.7643
12065 2 5.33054 2.53599 5.24787
12066 2 8.24363 5.41265 5.34816
12067 2 8.10001 2.61009 8.28638
12068 2 5.13196 5.35158 7.81173
12069 2 10.8292 2.61072 5.19623
12070 2 11.162 5.63302 8.30281
6074 1 1.40856 12.2435 1.68678
12072 2 2.51432 11.2128 5.3237
12073 2 2.45294 8.4397 8.27598
12118 2 5.35391 13.9675 11.0573
12075 2 5.19366 8.42371 5.48966
12076 2 8.29541 11.1577 5.3412
12077 2 7.9824 8.25609 8.26435
12078 2 5.56564 11.0737 8.32572
12079 2 11.018 8.44375 5.32528
12080 2 11.2001 11.2962 8.2842
12140 2 11.1557 11.2395 13.7352
12082 2 2.54337 17.0227 5.33015
12083 2 2.51752 13.8327 8.16232
12117 2 2.39883 16.8435 11.0537
12085 2 5.32028 14.1064 5.47053
12086 2 8.00637 16.9929 5.46451
12087 2 8.05392 14.0975 8.27824
12088 2 5.23989 16.9994 8.16266
12089 2 11.1475 13.9731 5.30915
12090 2 11.0495 17.0207 8.10153
12146 2 2.38618 19.7029 13.8475
12092 2 2.55236 22.6671 5.33231
12093 2 2.44126 19.8728 8.0463
15092 2 13.9403 19.6579 8.37952
15002 2 13.7787 -2.87641 2.92083
12091 2 -0.198556 19.9494 5.3529
12024 2 -0.229199 10.8808 2.75769
6054 1 0.847833 12.793 4.02451
6063 1 12.8016 18.2743 0.91607
15022 2 13.7405 8.39964 2.73191
15032 2 13.7634 13.8996 2.51733
12129 2 5.39119 -0.0211525 13.7237
12141 2 2.43789 13.7813 13.6966
15001 2 13.8099 -0.107542 -0.163132
15051 2 13.8737 -0.010977 5.22231
12149 2 5.40386 22.5972 13.655
12004 2 -0.188116 -0.23922 2.50099
15081 2 13.8188 16.8202 5.53985
15136 2 13.8933 8.32253 13.882
15146 2 13.7169 19.7782 13.7858
15091 2 13.8884 22.4584 5.29215
12025 2 5.50638 8.17938 -0.0561893
12064 2 -0.178483 5.38466 8.32343
15072 2 13.7264 8.48122 8.28212
12034 2 -0.0571191 17.3097 2.6881
12016 2 8.24871 5.27755 -0.101193
12036 2 8.06026 16.9699 -0.155953
12130 2 11.0335 -0.0714263 13.8136
12032 2 2.31307 16.9859 -0.159945
226 1 3.9086 -1.58367 15.1476
227 1 1.24213 -1.25613 15.3779
228 1 3.87328 1.54793 15.3368
229 1 0.68886 1.58911 15.1808
230 1 9.33218 -1.52841 15.2661
231 1 6.52741 -1.16642 15.3914
232 1 9.53046 1.22443 15.3067
233 1 6.71806 1.61347 15.1243
234 1 12.3914 -1.5884 15.3903
235 1 12.5647 1.34299 15.164
236 1 4.00281 4.50331 15.3276
237 1 1.08665 4.23442 15.1221
238 1 3.93601 7.19746 15.7688
239 1 1.1048 7.06823 15.3148
240 1 9.7409 4.0322 15.1086
241 1 6.8249 4.29599 15.5267
242 1 9.62793 6.98625 15.114
243 1 6.83359 6.83337 15.3849
244 1 12.5022 4.2649 15.2009
245 1 12.4109 6.94254 15.3462
246 1 4.02673 9.71763 15.4279
247 1 0.978649 9.77018 15.4729
248 1 4.01136 12.4948 15.4412
249 1 1.09081 12.5139 15.271
250 1 9.48058 9.96211 15.3543
251 1 6.55519 9.9898 15.5589
252 1 9.48784 12.8514 15.5669
253 1 7.01249 12.5531 15.0796
254 1 12.4825 9.79196 15.2427
255 1 12.4056 12.8669 15.3006
256 1 3.69348 15.1262 15.2293
257 1 1.00237 15.2352 15.3395
258 1 3.66843 18.239 15.3616
259 1 1.02675 18.1416 15.1096
260 1 9.62492 15.4469 15.1979
261 1 6.42205 15.4769 15.3759
262 1 9.44673 18.5649 15.196
263 1 6.33873 18.1845 15.0336
264 1 12.3582 15.6445 15.2112
265 1 12.2584 18.3656 15.3475
266 1 4.08493 21.1458 15.1165
267 1 0.934563 21.1691 15.5209
268 1 9.77795 21.1897 15.3922
269 1 6.77976 21.1195 14.9118
270 1 12.5851 21.1372 15.1904
271 1 1.18911 -1.09362 18.2312
272 1 4.08529 -1.59254 18.2306
273 1 3.92887 -1.54801 20.7925
274 1 0.918768 -1.18027 20.9246
275 1 1.45495 1.71697 17.9129
276 1 4.21527 1.3668 18.0677
277 1 3.79343 1.25232 20.9045
278 1 1.10141 1.63349 20.7764
279 1 6.81438 -1.50742 18.0626
280 1 9.65115 -1.56922 17.9327
281 1 9.84564 -1.51985 20.728
282 1 6.74821 -1.49307 20.987
283 1 6.93122 1.17057 18.1422
284 1 9.87508 1.51553 18.0798
285 1 9.54587 1.39515 21.0723
286 1 6.60456 1.18536 20.9695
287 1 12.5364 -1.47412 18.1907
288 1 12.6156 -1.50187 21.0567
289 1 12.4512 1.42103 17.8782
290 1 12.4694 1.20265 20.7914
291 1 0.590085 4.45349 18.0344
292 1 3.53527 4.30628 18.309
293 1 3.81559 4.0927 20.9937
294 1 1.01863 4.31514 20.7715
295 1 0.997065 7.095 18.4246
296 1 3.71489 6.92065 18.4102
297 2 2.32325 5.62845 19.7291
298 1 1.56498 7.33669 21.2044
299 1 6.70567 3.99411 18.4261
300 1 9.38691 4.1976 17.8911
301 1 9.86145 3.92914 20.9258
302 1 6.78545 4.27446 21.3386
303 1 6.86752 7.06082 18.4824
304 1 9.51858 6.84544 18.1862
305 1 7.03067 6.99724 21.2
306 1 4.12807 6.95827 20.9834
307 1 12.5211 4.23668 18.0181
308 1 12.4802 4.22622 20.7501
309 1 12.3107 6.92789 18.2892
310 1 12.5388 7.03314 20.9851
311 1 1.29916 10.174 18.2085
312 1 4.18553 9.8659 18.3404
313 1 4.05056 9.82525 21.0999
314 1 1.05658 10.061 20.8522
315 1 4.15177 12.7824 21.008
316 1 4.08097 12.5545 18.1831
317 1 6.8621 12.6867 21.0585
318 1 1.17006 12.6704 20.994
319 1 6.89764 9.84527 18.1175
320 1 9.87563 9.95896 18.0285
321 1 9.76759 6.90576 21.0838
322 1 6.77054 9.87416 21.1527
323 1 6.70527 12.8362 18.0565
324 1 9.70177 13.0668 18.2641
325 1 9.5157 9.76506 21.0544
326 1 9.58901 12.7357 20.8192
327 1 12.4974 9.66634 18.0698
328 1 12.4834 9.80765 20.6878
329 1 12.4552 12.6092 18.1545
330 1 12.615 12.6716 20.9506
331 1 1.23916 12.8626 18.1921
332 1 4.02068 15.4366 17.9379
333 1 4.05114 15.5051 20.901
334 1 1.21334 15.674 21.0351
335 1 1.09527 18.2121 17.96
336 1 3.88204 18.3051 18.1196
337 1 3.86641 18.2506 20.7556
338 1 0.815759 18.4769 20.6838
339 1 6.73881 15.3572 18.2155
340 1 9.38295 16.0092 18.149
341 1 9.8322 18.2891 20.977
342 1 7.01726 15.2896 21.0524
343 1 6.60917 18.2879 17.9877
344 1 9.5267 18.6395 17.9207
345 1 9.50502 18.7122 23.8393
346 1 6.77338 18.3333 20.9348
347 1 12.323 15.4774 18.149
348 1 12.5738 18.0889 20.967
349 1 12.8252 18.3538 18.2376
350 1 12.1275 18.6012 23.9347
351 1 1.10803 21.2492 18.345
352 1 3.8579 21.017 17.9079
353 1 3.79955 20.9518 20.7866
354 1 1.07311 21.153 21.0995
355 1 6.43249 21.1633 17.6839
356 1 9.47912 21.2956 17.9701
357 1 9.68906 21.3011 20.6436
358 1 6.67328 21.1511 20.6653
359 1 12.1156 21.223 18.089
360 1 12.5886 21.1469 20.9345
361 1 1.2682 -1.22641 23.7874
362 1 4.0536 -1.70841 23.6685
363 1 3.85368 -1.76126 26.5642
364 1 1.33109 -1.32775 26.4524
365 1 0.962697 1.477 23.3817
366 1 3.83827 1.48638 23.6498
367 1 3.92747 1.39952 26.3372
368 1 0.880106 1.30733 26.6204
369 1 6.86554 -1.4396 23.7922
370 1 9.68946 -1.71526 23.6973
371 1 9.33557 -1.37515 26.5095
372 1 6.50416 -1.52401 26.6388
373 1 6.97212 1.18778 23.9445
374 1 9.73776 1.04221 23.8337
375 1 9.85005 1.47059 26.6707
376 1 6.84962 1.32294 26.7077
377 1 12.5754 -1.65252 23.7835
378 1 12.3462 -1.49976 26.7901
379 1 12.5691 1.0967 23.5437
380 1 12.5021 1.3158 26.474
381 1 1.36079 4.28321 23.8124
382 1 4.17351 4.40203 23.8083
383 1 4.05741 4.02629 26.3818
384 1 1.22029 4.0678 26.5941
385 1 1.23605 7.22788 23.835
386 1 4.17041 7.20017 23.9865
387 1 3.75003 7.02426 26.4917
388 1 1.08267 7.01411 26.5174
389 1 7.06516 3.91989 23.6957
390 1 9.94161 3.71378 23.8828
391 1 9.84779 4.25716 26.7536
392 1 7.02195 3.99011 26.6612
393 1 6.93831 6.96419 23.8888
394 1 9.76391 6.75558 23.8338
395 1 9.70154 7.05654 26.6573
396 1 6.6444 6.85297 26.6608
397 1 12.6981 4.12274 23.5176
398 1 12.4856 4.13768 26.5994
399 1 12.4498 6.9728 23.8272
400 1 12.4789 6.93696 26.5138
401 1 1.29813 9.91029 23.7
402 1 4.06016 9.95012 23.8494
403 1 4.19998 9.79609 26.7059
404 1 1.28582 9.93084 26.4717
405 1 1.34789 12.7141 24.0864
406 1 4.06402 12.5392 23.8759
407 1 4.06659 12.5344 26.6624
408 1 1.27865 12.9695 27.0691
409 1 6.80103 9.93841 23.9268
410 1 9.40121 9.58694 23.7932
411 1 9.85269 9.71823 26.4655
412 1 6.91913 9.56077 26.6616
413 1 6.83251 12.8152 23.9131
414 1 9.58854 12.6099 24.1721
415 1 9.90013 12.4778 27.0563
416 1 6.88306 12.566 27.0208
417 1 12.5787 9.82728 23.4874
418 1 12.6335 9.9313 26.5859
419 1 12.7633 12.4313 23.983
420 1 12.6919 12.9459 26.7044
421 1 1.11925 15.9629 23.7726
422 1 4.02212 15.3995 24.0371
423 1 3.87086 15.4112 26.8884
424 1 0.954902 15.3089 26.233
425 1 1.45196 18.4634 23.629
426 1 4.08139 18.3613 23.5005
427 1 4.16437 18.2534 26.404
428 1 1.17668 18.3663 26.5777
429 1 6.94083 15.541 23.8854
430 1 9.45761 16.2724 24.3606
431 1 9.51638 15.1781 26.9202
432 1 6.89869 15.5469 26.5808
433 1 6.99655 18.3816 23.8025
434 1 12.5865 21.2911 26.6713
435 1 9.55833 18.2171 26.903
436 1 6.92841 18.6243 26.6273
437 1 12.6622 15.5902 23.7315
438 1 12.4668 15.7504 26.4507
439 1 12.6397 21.0367 23.5652
440 1 12.3222 18.5402 26.7077
441 1 1.1786 21.3148 23.8429
442 1 4.1706 21.0813 23.6662
443 1 4.04881 21.0021 26.5254
444 1 1.23215 21.1833 26.6554
445 1 6.64741 21.3552 23.6557
446 1 9.67937 21.503 23.7961
447 1 9.7436 21.1925 26.4643
448 1 6.8727 21.3196 26.4301
12139 2 5.42105 11.1985 13.9658
12214 2 -0.072519 5.60176 25.0551
15141 2 13.8599 14.164 14.0106
12250 2 11.2014 22.5734 25.145
15241 2 13.9078 22.6617 22.3882
12035 2 5.57136 14.2248 28.0537
15181 2 13.8539 16.9636 16.6693
12227 2 8.27305 8.2004 25.2596
12249 2 10.86 19.7388 22.4048
12226 2 8.35248 11.2084 22.5375
12225 2 5.43862 8.60388 22.5195
12203 2 2.61502 -2.90007 25.1523
12223 2 2.75616 8.56925 25.2972
12248 2 5.62722 22.6586 25.0102
12222 2 2.7211 11.3252 22.4137
12228 2 5.61222 11.0232 25.3192
12241 2 -0.210296 19.7344 22.3807
12220 2 11.1892 5.38588 25.1768
12247 2 8.16773 19.7907 25.1756
12134 2 5.55697 5.45909 14.0282
6262 1 1.04205 15.2914 18.1208
12136 2 2.75028 8.42976 14.0463
12219 2 11.3911 2.59976 22.4293
12246 2 8.28094 22.8295 22.3086
15161 2 13.8651 5.46788 16.5723
12218 2 5.53101 5.57285 25.3112
12155 2 5.26128 -2.78797 16.6619
12245 2 5.27857 19.7248 22.118
12152 2 2.60981 0.0378798 16.7498
12001 2 -0.203766 -2.82615 27.9735
12243 2 2.6255 19.809 25.1796
12181 2 -0.168602 14.0836 16.6574
12156 2 8.25087 -0.121015 16.6817
12042 2 2.53177 22.4841 27.9679
12158 2 5.56284 -0.147926 19.5555
15171 2 13.7481 11.2336 16.7634
12160 2 11.08 -0.0458293 19.3757
12242 2 2.61808 22.4514 22.3564
12162 2 2.37114 5.45876 16.4606
12163 2 2.78547 2.51238 19.4131
12240 2 11.2733 17.0191 25.2794
12165 2 5.55089 2.6982 16.7412
12166 2 8.26285 5.76902 16.7667
12167 2 8.22348 2.73642 19.7069
12168 2 5.67014 5.63498 19.9024
12169 2 11.0138 2.84945 16.6237
12170 2 11.281 5.53022 19.5795
12239 1 9.79206 15.6356 20.8246
12172 2 2.56154 11.2623 16.7426
12173 2 2.61529 8.70407 19.6448
12238 2 5.47416 16.9879 25.0059
12175 2 5.47479 8.43195 16.8967
12176 2 8.20166 11.4468 16.7407
12177 2 8.42943 8.46977 19.6778
12178 2 5.43286 11.2532 19.603
12179 2 10.9995 8.48268 16.6691
12180 2 11.1489 11.4508 19.6336
12237 2 8.33912 14.1308 25.2146
12182 2 2.47988 16.8827 16.7699
12183 2 2.66143 13.9198 19.6372
12236 2 8.58374 16.7627 22.4918
12185 2 5.35839 13.9636 16.6997
12186 2 8.24605 17.0502 16.4976
12187 2 8.35231 14.304 19.7664
12188 2 5.45955 16.7362 19.5272
12189 2 11.0324 14.2648 16.77
12190 2 11.0724 17.1108 19.3558
12235 2 5.49161 14.1885 22.5506
12192 2 2.55625 22.4891 16.6292
12193 2 2.49948 19.5835 19.5257
12209 2 10.9332 -2.82211 22.2372
12195 2 5.31522 19.5634 16.6753
12196 2 8.2209 22.543 16.4453
12197 2 8.1072 19.755 19.3609
12198 2 5.24622 22.4304 19.236
12199 2 11.0733 19.8341 16.5752
12200 2 10.9776 22.5273 19.5165
12233 2 2.56307 14.0784 25.4231
12202 2 2.71033 -0.129106 22.2595
15221 2 13.8492 11.321 22.3412
12232 2 2.66176 16.8956 22.4016
12039 2 11.1065 14.1449 27.8951
12206 2 8.24182 -0.173248 22.4276
15152 2 13.8669 -2.91111 19.5024
12208 2 5.50279 -0.186471 25.3127
12234 2 -0.182621 17.0235 25.3475
12210 2 10.9564 -0.227279 25.2536
12230 2 11.1581 11.1145 25.1512
12212 2 2.77858 5.80181 22.9871
12213 2 2.29783 2.64694 25.2595
12229 2 10.9842 8.28941 22.4578
12215 2 5.27089 2.87261 22.4146
12216 2 8.46282 5.46243 22.4038
12217 2 8.33319 2.40267 25.3507
15191 2 13.7999 22.6864 16.8319
12002 2 2.33987 -0.0965144 28.0174
15231 2 13.8858 17.2357 22.3874
15162 2 13.8148 2.5718 19.4394
12244 2 -0.0589585 22.5311 25.223
15242 2 13.8445 19.7855 25.1694
12049 2 11.0207 19.7488 28.0733
12015 2 5.21676 2.64198 27.9312
12138 2 8.15539 8.37475 13.9609
15172 2 13.7914 8.43511 19.3511
12046 2 8.26167 22.5564 27.92
15182 2 13.8319 13.9291 19.6298
12012 2 2.34824 5.37598 28.0123
15202 2 13.6847 -2.84278 25.4185
15151 2 13.87 -0.145991 16.6825
15011 2 13.8916 5.53703 28.0164
12026 2 8.39388 10.9602 28.1108
12144 2 5.0337 16.7512 14.0799
12019 2 11.2518 2.89401 28.0362
12045 2 5.53928 19.7674 28.0319
12029 2 11.216 8.30066 28.0635
451 1 1.06332 27.1325 0.912085
452 1 3.96834 23.9445 1.0177
453 1 4.12462 23.9747 3.76881
454 1 1.20575 23.9787 4.02198
455 1 6.80603 23.9935 0.885884
456 1 9.44553 26.9705 1.41559
457 1 9.49434 23.9109 3.86437
458 1 6.84064 23.9845 3.83386
459 1 12.4242 26.9992 1.31512
460 1 12.4005 23.6908 4.09529
461 1 1.3271 29.9018 1.20958
462 1 3.91649 26.856 0.982037
463 1 3.9409 26.8302 3.88265
464 1 1.15381 26.9077 3.86467
465 1 1.09082 32.7736 1.26577
466 1 4.05294 29.5545 1.11058
467 1 4.35046 29.514 3.8917
468 1 1.38214 29.7469 4.2995
469 1 6.70155 26.7653 0.82283
470 1 9.57918 30.2442 1.14721
471 1 9.67178 26.4876 4.08354
472 1 6.61493 26.5831 3.7067
473 1 6.94596 29.4977 0.958151
474 1 9.6809 31.9643 4.07545
475 1 9.63449 29.5861 3.78624
476 1 6.80065 29.6405 3.96653
477 1 12.7619 31.8246 0.976199
478 1 12.5031 26.3756 3.87429
479 2 10.9938 31.215 2.4133
480 1 12.3739 29.4988 3.8678
544 1 1.26199 23.6836 9.3911
482 1 4.3781 32.5175 1.38193
483 1 4.15479 32.3556 4.2519
484 1 1.37536 35.609 0.804239
12369 2 2.52156 30.9632 13.6608
15363 2 13.8478 25.3962 13.8133
487 1 3.8831 35.1533 3.74891
488 1 0.805937 38.4226 0.348783
489 1 6.99577 32.3367 1.29109
490 1 9.50821 35.5326 1.27962
491 1 9.55338 32.4951 6.50473
492 1 6.8378 32.4179 4.21406
493 1 6.84223 35.4184 1.30553
12364 2 2.43258 25.6117 13.8402
495 1 9.2706 34.9354 4.01073
496 1 7.09341 38.5857 3.72952
12291 2 -0.0131287 48.096 0.0364633
498 1 12.3663 32.7824 3.71815
499 1 12.5243 35.1432 1.08246
500 1 12.4168 35.4923 4.36079
12272 2 2.60608 40.1522 -0.249084
502 1 4.02964 35.5557 0.779752
503 1 4.09804 38.0499 4.01858
504 1 1.14394 38.2339 3.9296
505 1 1.18183 41.128 1.1908
506 1 3.97939 40.8825 1.45947
507 1 3.86041 40.9002 4.18787
508 1 1.23199 40.8309 3.88792
509 1 6.7779 38.337 1.29341
12366 2 8.17979 25.488 13.7443
12368 2 10.9054 28.1341 13.7593
512 1 9.72817 37.6667 3.87522
513 1 6.6264 41.2254 1.2961
514 1 9.64758 43.9099 1.41896
515 1 9.87817 43.8856 4.20256
516 1 6.69219 41.1666 4.01089
517 1 12.623 37.903 1.03113
518 1 12.468 38.2559 4.13936
519 1 12.4211 40.9779 1.02191
520 1 12.4 40.9698 4.05377
521 1 1.44611 43.685 1.63659
522 1 3.91229 43.843 1.6682
523 1 3.77443 43.7747 4.35699
524 1 1.1376 43.7956 4.33693
525 1 1.17918 46.4707 1.31888
526 1 4.1306 46.9244 1.36488
527 1 3.97742 46.5309 4.14458
528 1 1.12151 46.8633 4.16903
529 1 6.78273 43.8958 1.6203
1004 1 1.515 49.46 9.84421
531 1 9.72645 47.0389 4.06029
532 1 6.87581 43.8965 4.06842
533 1 6.8246 46.7063 1.28842
12326 2 -0.155513 42.5337 5.38897
535 1 9.70334 46.5804 6.83873
536 1 6.92677 46.8815 4.3298
537 1 12.5143 43.3696 1.22451
538 1 12.8083 44.0445 3.87108
539 1 12.4163 46.7282 1.33185
540 1 12.4839 46.7803 3.94778
12293 2 5.49317 48.0995 0.0199143
542 1 3.94311 23.8736 6.84563
543 1 4.10467 24.0632 9.85102
15296 2 13.7541 28.2302 5.36117
545 1 6.95213 24.0282 6.93485
546 1 9.60978 23.9154 6.55868
547 1 9.59003 23.9515 9.38911
548 1 6.99299 24.168 9.88373
549 1 12.5473 24.0552 6.95747
550 1 12.1064 23.7686 9.89329
551 1 1.49398 26.3195 6.50821
552 1 4.00702 26.8898 6.90968
553 1 3.95744 26.8509 9.67483
554 1 1.34656 26.5809 9.76198
555 1 1.40706 32.1678 6.57993
556 1 3.86006 29.5097 6.74245
557 1 4.18364 29.5686 9.44456
558 1 1.46445 30.0173 9.88382
559 1 6.84363 26.9779 6.56045
560 1 9.87316 26.8926 6.67679
561 1 9.61287 26.9383 9.69901
562 1 6.75553 26.6691 9.4977
563 1 6.91291 29.7797 6.76335
564 1 9.63999 29.6556 6.97789
565 1 9.37273 29.6526 9.78038
566 1 6.85848 29.3443 9.56625
567 1 12.5934 26.8214 6.61583
568 1 12.3646 26.7005 9.51726
569 1 12.4117 29.5655 6.95046
570 1 12.2862 29.6484 9.71775
571 1 0.952672 35.1379 6.63155
572 1 4.09814 32.4217 6.82597
573 1 4.13133 32.4183 9.96185
574 1 1.37941 33.0449 9.21942
575 1 0.976634 35.1666 3.85355
576 1 3.56521 35.3412 6.53752
577 1 3.67213 35.5372 9.34495
578 1 0.662806 35.5667 9.39272
579 1 6.55018 35.2495 6.96443
580 1 6.67058 32.5052 6.80716
581 1 9.64204 32.4194 9.3385
582 1 6.98589 32.1794 9.52605
583 1 6.41851 35.7481 4.15824
584 1 9.87962 35.293 6.76974
585 1 9.76938 35.1276 9.90454
586 1 6.25083 34.9113 10.3992
587 1 12.58 32.7436 6.77062
588 1 12.463 32.7143 9.6789
589 1 12.4325 35.3777 7.18613
590 1 12.7626 35.5332 9.91277
591 1 1.28596 37.8129 6.58621
592 1 3.81981 38.4035 7.02703
593 1 4.01169 38.2543 9.69589
594 1 0.850266 38.1447 9.61403
595 1 0.927389 40.9492 6.92741
596 1 3.7676 41.4517 7.01726
597 1 3.93409 41.1267 9.86033
598 1 1.14573 40.9449 9.69671
599 1 6.51804 38.188 6.70848
600 1 9.7577 40.8148 3.93905
601 1 9.72545 38.3355 10.0115
602 1 6.64722 38.4102 9.87459
603 1 6.81889 41.1533 6.7136
604 1 9.5274 41.2148 6.78667
605 1 9.93616 41.2723 9.69651
606 1 6.70221 41.0884 9.5666
607 1 12.6866 38.2012 6.78398
608 1 12.3843 38.3846 9.95677
609 1 12.6797 41.0764 6.91932
610 1 12.5763 41.1258 9.56314
611 1 1.20057 43.8154 7.15666
612 1 3.9089 44.2408 7.00508
613 1 4.1422 44.0855 9.81395
614 1 1.32568 43.9469 9.9433
615 1 1.04324 46.7932 6.99138
616 1 4.18711 46.7622 7.04027
617 1 4.17251 47.1006 9.73037
618 1 1.33128 46.4555 9.89629
619 1 6.8845 43.7127 6.98602
620 1 9.79571 43.9401 6.93608
621 1 9.61901 43.9896 9.73556
622 1 6.67737 43.8471 9.558
623 1 6.82853 46.5813 6.95008
81 1 1.15654 24.1955 1.15646
625 1 9.96294 46.33 9.85342
626 1 6.98945 46.8405 9.84271
627 1 12.4659 43.7536 6.88924
628 1 12.363 43.9451 9.81572
629 1 12.5191 46.7807 6.8616
630 1 12.4716 46.6092 9.88384
631 1 1.13984 23.9961 12.5504
632 1 3.54661 24.3607 12.3533
633 1 6.6798 24.1743 12.5845
634 1 9.58445 24.0882 12.3168
635 1 12.6206 24.0783 12.514
636 1 1.187 26.8627 12.6232
637 1 3.8885 26.8791 12.2776
638 1 0.96439 29.6464 12.5959
639 1 3.84101 29.5645 12.3367
640 1 6.86548 26.8853 12.3554
641 1 9.71552 26.9996 12.4308
642 1 6.93029 29.6496 12.3937
643 1 9.66319 29.6166 12.436
644 1 12.4183 26.9231 12.5939
645 1 12.2391 29.6935 12.5569
646 1 1.16711 32.5119 12.3995
647 1 3.98139 32.4498 12.6218
648 1 1.03104 35.1572 12.5881
649 1 3.65933 35.4561 12.3682
650 1 6.93886 32.6525 12.7167
651 1 9.52457 32.3167 12.4202
652 1 6.66624 35.6652 12.8759
653 1 9.83008 35.4516 12.7796
654 1 12.2352 32.5214 12.6971
655 1 12.5056 35.4289 12.6116
656 1 1.0469 38.0903 12.5319
657 1 3.87574 38.4669 12.4636
658 1 1.1903 41.111 12.303
659 1 3.83808 41.428 12.6086
660 1 6.8736 38.4467 12.8038
661 1 9.71972 38.423 12.5835
662 1 6.49672 41.4295 12.7419
663 1 9.44018 41.236 12.4035
664 1 12.5998 38.4182 12.6885
665 1 12.4265 41.0153 12.2561
666 1 1.26866 44.0086 12.6346
667 1 4.45137 44.1261 12.5668
668 1 1.16401 46.9876 12.8636
669 1 4.14467 46.8868 12.8502
670 1 7.14218 44.2358 12.6407
671 1 9.81043 43.8567 12.5934
672 1 6.74852 46.8298 12.503
673 1 9.45222 46.9672 12.4006
674 1 12.523 43.9462 12.5174
675 1 12.3543 46.7954 12.6563
12363 2 11.2307 48.1882 11.2723
89 1 12.4304 23.9009 1.06124
12253 2 2.55931 25.5043 2.46648
12362 2 5.50413 48.2958 11.0366
12295 2 11.1081 48.0978 -0.175937
901 1 1.1851 49.3202 1.46114
12257 2 8.34158 25.2804 2.44585
12258 2 5.50337 27.9728 2.50017
12361 2 -0.0758518 48.0826 11.0988
12260 2 11.0894 27.8846 2.67548
12265 2 5.53357 31.0173 -0.0998919
541 1 0.898302 23.8467 6.77351
12263 2 2.69169 31.0076 2.76988
12360 2 10.991 42.4639 11.0803
12296 2 -0.151508 25.4329 5.31447
12371 2 8.20443 31.0845 13.8479
12267 2 8.04962 30.9268 2.64343
12268 2 5.5074 33.921 2.90837
12262 2 2.7569 33.6048 -0.108555
12270 2 11.074 34.6119 2.62034
12359 2 8.41049 45.2999 11.1937
12374 2 2.47109 36.683 13.8322
12273 2 2.51038 36.6731 2.79658
12358 2 5.3716 42.6219 11.0722
12383 2 11.0071 45.4022 13.8052
831 1 12.1122 29.6491 1.09095
12277 2 7.98195 36.6463 2.76251
12278 2 5.38933 39.7077 2.69753
15316 2 13.8951 39.5561 5.51512
12280 2 10.925 39.3976 2.5896
15272 2 13.7632 36.8462 2.83996
6584 1 1.07499 32.3247 3.93151
12283 2 2.65713 42.3828 2.91681
863 1 3.1345 38.3448 1.37941
15368 2 13.8219 31.0453 13.7872
15341 2 13.645 28.3035 11.0612
12287 2 8.34197 42.3512 2.91897
12288 2 5.5675 45.3744 2.86808
510 1 9.31744 41.1645 1.21544
12290 2 10.9771 45.3848 2.70433
12289 2 11.018 42.6249 -0.0323221
12292 2 2.46429 47.9875 2.71081
12352 2 2.64092 39.8076 11.0766
12294 2 8.25347 48.4031 2.62819
450 1 9.8561 23.7891 1.21132
12357 2 2.84417 45.5183 11.4122
12297 2 2.91344 27.9783 5.38932
12298 2 2.51899 25.212 8.3168
12372 2 5.5538 34.0598 13.7837
12300 2 5.6573 25.1231 5.34955
12301 2 8.28697 28.3366 5.46155
12302 2 8.34942 25.5757 8.01504
12303 2 5.31998 28.0497 8.10628
12304 2 11.0514 25.109 5.24709
12305 2 11.0777 28.1136 8.06608
12375 2 -0.138646 39.6914 13.8443
12307 2 2.54816 33.6996 5.46088
12308 2 2.6905 31.0786 8.2839
12355 2 11.0192 36.9192 11.2144
12310 2 5.33225 30.9707 5.52046
12311 2 8.03046 33.9974 5.61309
12312 2 8.31393 31.0956 8.01927
12313 2 5.61821 33.774 8.2847
12314 2 11.1337 31.0956 5.73037
12315 2 11.0521 33.9102 8.31776
12354 2 8.17186 39.7303 11.1327
12317 2 2.47895 39.5969 5.65816
12318 2 2.43493 36.7416 8.15056