ITEM: TIMESTEP
100000
ITEM: NUMBER OF ATOMS
18000
ITEM: BOX BOUNDS xy xz yz pp pp pp
-2.3865718789202811e-01 2.8132657187891411e+01 0.0000000000000000e+00
-2.9853716753308146e+00 3.3771337167533102e+02 0.0000000000000000e+00
-2.3704449186639676e-01 2.8131044491866632e+01 0.0000000000000000e+00
ITEM: ATOMS id type x y z
1 1 1.4745 -1.33823 1.03663
2 1 4.22488 -1.59418 1.29725
3 1 4.11254 -1.72292 4.19131
4 1 1.54632 -1.45231 3.918
5 1 0.934286 1.73714 1.50085
6 1 3.61121 1.23049 1.2536
7 1 4.23402 1.31493 3.62333
8 1 1.45013 1.63041 4.02353
9 1 6.91181 -1.47777 1.25392
10 1 9.78479 -1.67542 1.3785
12130 2 11.3561 -0.0724027 13.9409
12 1 6.92441 -1.59337 4.03661
13 1 6.71247 1.48228 1.34768
14 1 9.67978 1.13341 1.1817
15 1 9.66528 1.32597 4.20407
16 1 6.87786 1.21366 3.94079
17 1 12.8857 -1.48376 1.23731
18 1 12.7545 -1.3246 4.26588
19 1 12.7165 1.04302 1.16941
20 1 12.5161 1.49113 3.98328
21 1 1.52871 4.28171 1.02226
22 1 4.25783 4.08965 1.07271
23 1 4.27015 4.32166 3.98775
24 1 1.38712 4.30745 3.91531
25 1 1.30194 7.18022 1.0241
26 1 4.41977 6.78571 0.918717
27 1 4.2027 7.16448 3.88093
28 1 1.35872 7.19517 3.94491
29 1 7.00935 4.16565 0.906438
30 1 9.68426 4.1763 1.05626
31 1 9.7546 4.22161 3.7737
32 1 7.20448 4.16106 3.70087
33 1 7.25839 6.99715 1.07266
34 1 10.1007 7.32749 1.1574
35 1 9.65642 7.07883 3.92252
36 1 6.98543 6.97154 3.88698
37 1 12.253 4.26383 0.891309
38 1 12.6462 7.04882 3.7563
12044 2 -0.0305978 22.5907 2.23775
12139 2 5.50422 11.12 13.7617
41 1 1.46159 10.0954 0.777375
42 1 4.44429 9.63889 1.06311
43 1 4.14435 9.78712 3.92433
44 1 1.45373 9.73712 3.77962
12032 2 2.61185 16.7673 -0.181495
46 1 4.45726 12.5914 1.30911
47 1 4.01923 12.6558 3.99834
12144 2 5.26218 17.1532 13.9152
49 1 7.04727 9.83951 1.01387
50 1 9.86223 10.0583 1.02444
51 1 9.76182 9.82621 3.94703
52 1 7.06068 9.80764 3.81508
53 1 7.26622 12.5554 1.24196
54 1 9.81944 12.7276 0.88358
55 1 9.9487 12.6397 3.78275
56 1 7.15053 12.6022 3.9452
57 1 12.6555 10.0939 1.12236
58 1 12.7316 9.96682 3.95484
59 1 12.8447 12.7391 1.14498
60 1 12.6506 12.8226 3.99335
61 1 1.1846 18.61 1.06614
62 1 4.10168 15.4311 1.16774
63 1 4.28911 15.5171 4.00069
12133 2 8.52966 2.76647 13.8455
65 1 1.57685 21.2982 0.960701
66 1 3.90273 18.1831 1.06171
67 1 4.10223 18.3989 3.88228
68 1 1.18372 18.3635 3.86858
69 1 6.89826 15.6037 1.22851
70 1 9.59966 15.6016 0.909809
71 1 9.82107 15.3997 3.73164
72 1 7.11042 15.5227 3.93496
73 1 6.83053 18.4452 1.39041
74 1 9.76496 18.4088 1.08153
75 1 9.6732 18.1564 3.96595
76 1 7.07537 18.0828 4.19038
77 1 12.656 15.5441 1.00805
78 1 12.6551 15.4194 4.05853
79 1 12.652 21.0597 1.10009
80 1 12.5294 18.2847 3.90137
39 1 12.994 7.33021 0.935424
82 1 4.32125 20.8973 1.08071
83 1 4.14311 21.2376 4.11597
84 1 1.53702 21.3009 3.79207
85 1 6.90892 21.1514 1.24618
6022 1 12.7012 4.10467 3.69498
87 1 9.99079 21.2503 4.26273
88 1 7.18141 21.0391 3.98597
12081 2 -0.0591504 14.1339 5.82863
90 1 12.7174 21.161 3.83355
91 1 1.43525 -1.61136 6.70003
92 1 4.32505 -1.61237 7.10082
93 1 4.06212 -1.59472 9.52796
94 1 1.09169 -1.49749 9.64362
95 1 1.03787 1.21928 6.83109
96 1 3.92919 1.60602 6.49102
97 1 4.13682 1.16759 9.48882
98 1 1.53249 1.04435 9.59175
99 1 7.43129 -1.22702 6.99301
100 1 9.8125 -1.4005 3.99525
101 1 9.80867 -1.47386 9.52735
102 1 6.89369 -1.46053 9.83685
103 1 6.88695 1.36759 6.75534
104 1 9.93125 1.19503 7.00899
105 1 9.70905 1.57698 9.72492
106 1 7.07096 1.2696 9.45241
107 1 12.6583 -1.45876 7.03539
12016 2 8.40704 5.48218 -0.335421
109 1 12.8375 1.37485 6.66586
110 1 12.7955 1.48783 9.55279
111 1 1.29554 4.18506 6.7145
112 1 4.09591 4.41407 6.69888
113 1 3.99493 3.94334 9.48944
114 1 1.19563 3.93242 9.5243
115 1 1.09487 6.95083 6.69829
116 1 4.2466 7.30706 6.7713
117 1 4.136 6.91793 9.41288
118 1 1.29323 6.68471 9.53237
119 1 7.05379 4.05963 6.82606
120 1 9.79431 4.25505 6.84856
121 1 9.88446 4.13108 9.63102
122 1 6.79778 4.30081 9.57264
123 1 6.77506 7.15917 6.83043
124 1 9.66949 7.13587 6.65854
125 1 10.1308 7.18289 9.34341
126 1 7.21075 7.28296 9.62215
127 1 12.5405 4.34199 6.4341
128 1 12.9473 4.10657 9.61104
129 1 12.5331 6.9544 6.51813
130 1 12.9284 6.86373 9.09391
131 1 1.5431 9.81972 6.88435
132 1 4.0318 10.1228 6.8144
133 1 4.26071 9.7902 9.53425
134 1 1.31208 9.74728 9.72295
135 1 1.22058 12.7899 6.79076
136 1 4.11657 12.9579 6.92788
137 1 4.14968 12.5629 9.6508
138 1 1.51421 12.5667 9.62503
139 1 7.18155 9.72798 6.46813
140 1 10.2286 9.80445 6.66059
141 1 9.87956 10.0776 9.49669
142 1 7.12298 10.005 9.2477
143 1 7.02716 12.6089 6.62751
144 1 10.0113 12.5623 6.76598
145 1 9.64547 12.9034 9.61326
146 1 6.68782 12.7615 9.60954
147 1 13.0309 9.81391 6.45504
148 1 12.8478 9.83509 9.53302
149 1 12.7652 12.5395 6.90466
150 1 12.4896 12.6972 9.70097
151 1 1.44795 15.6157 6.89276
152 1 4.30502 15.7083 6.87035
153 1 3.96257 15.6153 9.66815
154 1 1.37714 15.4034 9.85082
155 1 1.33649 18.3577 6.55062
156 1 4.37924 18.1445 6.65007
157 1 4.04396 18.3534 9.6727
158 1 1.19383 18.3646 9.53077
159 1 7.16888 15.612 6.97409
160 1 9.72147 15.522 6.74293
161 1 9.7311 15.5538 9.64097
162 1 6.77515 15.6566 9.76124
163 1 7.15793 18.3819 6.93974
164 1 9.98253 18.2825 6.73784
165 1 9.90831 18.3739 9.4454
166 1 7.04185 18.4285 9.81867
167 1 12.5669 15.3615 6.80843
168 1 12.67 15.5324 9.69836
169 1 12.8486 18.0739 7.0173
170 1 12.5783 18.4291 9.42302
171 1 1.22301 21.0391 6.73616
172 1 4.30011 21.0715 6.84234
173 1 4.1514 21.2392 9.64602
174 1 1.43029 21.0953 9.40736
175 1 7.25799 21.3924 6.94783
176 1 9.91436 21.0447 6.99041
177 1 9.98354 21.1157 9.51384
178 1 7.14808 21.0814 9.82796
179 1 12.7137 21.192 6.86145
180 1 12.9178 21.3116 9.43284
181 1 1.09437 -1.73457 12.5426
182 1 4.23326 -1.55265 12.3296
183 1 1.47749 1.172 12.3244
184 1 4.19805 1.30173 12.2938
185 1 6.86354 -1.46881 12.4113
186 1 9.66649 -1.31634 12.5001
187 1 7.35928 1.09919 12.5064
188 1 9.89375 1.48988 12.3982
189 1 12.5686 -1.1764 9.83117
190 1 12.8448 1.33381 12.5653
191 1 1.31626 4.02287 12.3117
192 1 4.36076 4.33622 12.1816
193 1 1.45933 6.79407 12.1695
194 1 4.19667 7.19115 12.2267
195 1 7.45027 3.90222 12.2954
196 1 10.1171 4.27473 12.2778
197 1 6.96567 6.77645 12.4193
198 1 10.1173 6.9761 12.2563
199 1 12.7414 4.27278 12.4247
200 1 12.9256 7.29411 12.2113
201 1 1.37179 9.55975 12.2721
202 1 4.13902 9.85608 12.5152
203 1 1.31321 12.44 12.3929
204 1 4.1282 12.7648 12.5783
205 1 7.11423 9.61171 12.3085
206 1 9.70263 9.66383 12.3768
207 1 7.02618 12.5911 12.2831
208 1 9.70394 12.5663 12.4931
209 1 12.5947 10.0086 12.3583
210 1 12.4958 12.7365 12.3123
211 1 1.50371 15.6692 12.398
212 1 4.13392 15.6525 12.5456
213 1 1.28179 18.4142 12.2966
214 1 4.14882 18.6022 12.3776
215 1 7.0659 15.8008 12.4281
216 1 10.1573 15.5203 12.4078
217 1 7.08492 18.5193 12.8314
218 1 9.90212 18.5033 12.2891
219 1 12.8981 15.5867 12.6214
220 1 12.7309 18.4017 12.4252
221 1 1.28389 21.3402 12.4133
222 1 4.22469 21.2361 12.308
223 1 6.8885 21.2866 12.6446
224 1 9.73116 21.5892 12.3465
225 1 12.6366 21.3575 12.3248
12035 2 5.6075 13.9754 -0.123033
6075 1 1.09449 12.6123 3.4525
6181 1 12.5466 -1.4542 12.529
12054 2 -0.0491377 -0.182777 8.12662
12146 2 2.61757 19.8414 13.6752
12049 2 11.1749 19.7196 -0.244322
86 1 9.7608 21.021 1.48655
12008 2 5.44733 -0.295072 2.58503
12138 2 8.45626 8.19454 13.6992
12010 2 11.3619 -0.247632 2.64464
12125 2 11.4152 19.9773 10.7532
12084 2 -0.0425345 16.8319 8.13901
12013 2 2.94095 2.81424 2.58744
12124 2 8.29152 22.6831 11.1111
12131 2 2.8206 2.6876 13.6695
12148 2 8.40304 19.8575 13.9128
12017 2 8.32618 2.5575 2.48704
12018 2 5.73785 5.49486 2.37878
12136 2 2.79429 8.31845 13.6058
12020 2 11.283 5.44624 2.48375
12113 2 5.69664 8.33161 10.8944
12104 2 8.43656 0.0613383 10.8959
12023 2 2.79934 8.20305 2.50322
64 1 2.13407 13.3461 0.719185
12135 2 11.4462 5.64346 13.5224
12107 2 2.69762 5.46132 10.9819
12027 2 8.61804 8.45506 2.50712
12028 2 5.71212 11.0286 2.38685
12091 2 -0.0956054 19.6574 5.27227
12030 2 11.2298 11.248 2.4566
12102 2 2.81584 -0.287877 11.0082
12114 2 8.34354 11.2441 10.773
12033 2 2.91874 14.0521 2.68693
12007 2 8.35553 -3.01506 2.44422
12100 2 11.2338 22.7292 8.12467
12099 2 11.3062 19.717 5.62635
12037 2 8.47787 14.0544 2.57188
12038 2 5.49068 16.8656 2.56006
12098 2 5.71043 22.6481 8.19977
12040 2 11.2296 16.9164 2.19775
12097 2 8.45002 19.7208 8.17855
12134 2 5.54488 5.70522 13.694
12043 2 2.50191 19.8531 2.3774
12123 2 5.56676 19.9526 10.9306
12096 2 8.54801 22.5858 5.44786
12095 2 5.61963 19.498 5.30551
12047 2 8.40228 19.5 2.67313
12048 2 5.78408 22.4336 2.85243
12115 2 11.2652 8.57031 10.8528
12050 2 11.2701 22.5507 2.52464
12071 2 -0.117299 8.35651 5.48779
12052 2 2.86548 -0.220112 5.58395
12112 2 2.55894 11.0959 11.0205
12122 2 2.64098 22.661 10.9306
12110 2 11.323 2.64602 11.0301
12056 2 8.35064 -0.102556 5.3559
12109 2 8.66861 5.485 10.9573
12058 2 5.59655 -0.0766083 8.2677
12108 2 5.75826 2.71901 10.8409
12060 2 11.2603 -0.262841 8.23889
12120 2 11.2064 14.0515 10.985
12062 2 2.6592 5.62719 5.33025
12063 2 2.52712 2.68379 8.01755
12119 2 8.39171 17.2465 11.2242
12065 2 5.59257 2.71829 5.35567
12066 2 8.44872 5.41303 5.06931
12067 2 8.5338 2.77792 7.99873
12068 2 5.59166 5.53939 8.15587
12069 2 11.1106 2.71105 5.40782
12070 2 11.3881 5.74584 7.91215
5724 1 9.91803 -1.76702 6.82554
12072 2 2.8587 11.1981 5.2032
12073 2 2.70347 8.44274 8.08185
12118 2 5.60616 14.1214 11.1111
12075 2 5.54319 8.5185 5.19148
12076 2 8.7039 11.1334 5.27912
12077 2 8.29859 8.49343 7.91858
12078 2 5.62389 11.3922 8.18985
12079 2 11.2569 8.43209 5.21406
12080 2 11.4101 11.1713 8.07504
12150 2 11.0402 22.5325 13.7908
12082 2 2.88848 16.8768 5.47497
12083 2 2.7364 14.0187 8.32891
12117 2 2.63522 17.0002 11.1157
12085 2 5.75826 13.9669 5.37753
12086 2 8.49073 16.7901 5.35571
12087 2 8.46607 14.3525 8.17011
12088 2 5.48393 16.9052 8.45682
12089 2 11.162 14.1611 5.37556
12090 2 11.1952 16.8397 8.25555
48 1 1.45213 15.2572 3.93051
12092 2 2.70033 22.5212 5.27858
12093 2 2.73126 19.7442 8.02804
12116 2 -0.0643331 14.095 10.911
12094 2 -0.0169166 22.5492 8.05583
12024 2 -0.0278863 10.5978 2.45914
12014 2 -0.0103655 5.77984 2.40587
12074 2 -0.0754456 11.0943 8.28061
6063 1 12.8703 18.3633 0.914356
12004 2 0.0772074 -0.113077 2.47137
12143 2 8.34205 14.1023 13.8083
12059 2 11.2607 -2.92247 5.35197
12149 2 5.55761 22.484 13.7945
12128 2 8.41765 -2.88213 13.7463
12103 2 5.52554 -2.95178 11.195
12057 2 8.39621 -2.83718 8.38643
12121 2 -0.199466 19.8904 11.0612
12064 2 -0.17546 5.4248 8.22046
12126 2 2.5939 -2.93694 13.7394
12145 2 11.26 17.0395 13.8254
6054 1 0.63548 15.5651 1.22029
12132 2 -0.0994993 5.22783 13.744
12105 2 11.2208 -2.73942 11.1146
12045 2 5.58064 19.6897 -0.249069
12137 2 -0.136424 11.0768 13.6393
12106 2 0.0778926 2.44918 10.9134
15121 2 13.7345 22.8407 11.0325
12046 2 8.08491 22.5469 0.00191149
12006 2 8.14038 -0.0758043 0.0265102
15081 2 13.8111 16.9467 5.32128
12003 2 2.75279 -2.94006 2.55521
12141 2 2.69676 14.0675 13.7531
226 1 4.25763 -1.41567 14.9829
227 1 1.38261 -1.60976 15.2664
228 1 4.12111 1.35004 15.1941
229 1 1.2192 1.18054 15.0946
230 1 9.83597 -1.51999 15.1167
231 1 7.02924 -1.38594 15.585
232 1 10.0358 1.42937 15.3808
233 1 6.90498 1.23314 15.4724
234 1 12.7861 -1.59953 15.453
235 1 13.0999 1.2512 15.2859
236 1 4.15891 4.26465 14.964
237 1 1.26135 3.91106 15.4334
238 1 3.94446 6.97528 15.2952
239 1 1.23338 6.98186 14.8636
240 1 9.76037 4.28393 15.1539
241 1 6.97535 4.2837 15.2112
242 1 10.0392 6.77796 14.8568
243 1 7.10313 7.13187 15.1134
244 1 12.6166 3.97707 14.9132
245 1 12.7587 7.02667 15.2713
246 1 4.06526 9.79753 15.2273
247 1 1.24114 10.0531 15.0997
248 1 4.12813 12.6211 15.4904
249 1 1.35474 12.7568 15.1237
250 1 9.81038 9.63517 15.3635
251 1 6.99315 9.94124 15.2134
252 1 9.59293 12.65 15.35
253 1 6.83612 12.6169 15.2146
254 1 12.8627 9.62203 15.2345
255 1 12.6864 12.5907 15.2507
256 1 3.81016 15.6686 15.1387
257 1 1.32828 15.3303 15.0441
258 1 3.8754 18.4719 15.226
259 1 1.07235 18.3687 15.0722
260 1 9.98413 15.7869 15.408
261 1 6.95821 15.4304 15.351
262 1 9.90504 18.6291 15.08
263 1 6.93068 18.1864 15.7075
264 1 12.6511 15.0626 15.6519
265 1 12.7071 18.29 15.4153
266 1 4.12429 21.1933 15.0596
267 1 1.31496 20.9088 15.2443
268 1 9.70477 21.3802 15.1509
269 1 6.92787 21.117 15.653
270 1 12.7004 21.1317 15.0058
271 1 1.60132 -1.72509 18.1059
272 1 4.39473 -1.58668 18.0342
273 1 4.14817 -1.55109 21.2212
274 1 1.19514 -1.36855 20.9303
275 1 1.44595 1.14273 17.9381
276 1 4.27013 1.31676 17.9
277 1 4.16794 1.11475 20.7659
278 1 1.31203 1.36491 20.8462
279 1 7.24671 -1.44428 18.1656
280 1 9.93202 -1.85657 18.0207
281 1 9.66923 -1.75399 20.7847
282 1 7.05524 -1.68075 20.9372
283 1 6.98005 1.36344 18.0831
284 1 9.81799 1.2471 18.1162
285 1 9.99397 0.996977 20.8909
286 1 7.01715 1.23165 20.9309
287 1 13.0694 -1.38257 18.366
288 1 12.9664 -1.70446 21.0988
289 1 12.8284 1.57307 18.1515
290 1 12.7117 1.06409 20.8744
291 1 1.24478 4.2599 18.4962
292 1 3.66805 4.19652 17.8025
293 1 4.39055 3.96927 20.5719
294 1 1.48032 4.31959 20.9826
295 1 1.6789 6.83831 18.0972
296 1 4.07236 7.14251 18.1738
297 2 2.67368 5.51127 19.6415
298 1 1.68129 7.17811 20.837
299 1 6.78259 4.16127 17.8462
300 1 9.47426 4.05425 18.072
301 1 9.8358 3.75725 20.7561
302 1 7.19534 4.26793 20.8304
303 1 6.80712 7.10115 18.0807
304 1 9.50421 6.97475 17.9958
305 1 6.99922 6.81789 21.0097
306 1 4.43149 6.46079 21.1099
307 1 12.8323 4.19455 17.8252
308 1 12.7181 3.89892 20.8795
309 1 12.6175 6.89499 18.2399
310 1 12.8126 6.48173 20.7753
311 1 1.44011 9.76251 17.5829
312 1 4.1244 9.99557 18.1031
313 1 4.34455 9.85729 20.9349
314 1 1.22956 9.92494 20.6679
315 1 4.20381 12.7026 21.1488
316 1 4.01206 12.7784 18.2724
317 1 6.89038 12.6449 20.9988
318 1 1.51587 12.7577 21.0046
319 1 6.66837 9.81749 18.2463
320 1 9.76583 9.88286 18.0542
321 1 9.99981 6.6222 20.9472
322 1 7.02138 9.76482 21.1557
323 1 7.15515 12.8046 18.3545
324 1 9.8245 12.4873 18.0065
325 1 10.09 9.51599 20.6415
326 1 9.66096 12.2502 20.6452
327 1 12.6856 9.88892 18.0502
328 1 12.8947 9.35668 20.9495
329 1 12.7258 12.8814 17.9772
330 1 12.9071 12.2596 20.8097
331 1 1.04591 12.4381 18.1292
332 1 3.9666 15.6848 17.9037
333 1 3.68479 15.3517 21.0995
334 1 1.18873 15.704 20.8226
335 1 1.39139 18.2313 18.1048
336 1 4.26912 18.29 18.2
337 1 4.15229 18.2532 20.8676
338 1 1.24647 18.481 20.8153
339 1 6.9418 15.4739 18.2618
340 1 9.8582 15.4215 18.0972
341 1 9.94065 18.6229 20.6456
342 1 6.94953 15.71 20.8583
343 1 6.82075 18.4771 18.5593
344 1 9.57462 18.5021 17.8069
345 1 9.86057 18.3446 23.6532
346 1 6.99694 18.6044 21.3765
347 1 12.734 15.74 18.6549
348 1 12.464 17.7712 20.9601
349 1 12.5039 18.6312 18.0187
350 1 12.6273 18.5383 23.778
351 1 1.40414 21.0895 18.1328
352 1 4.21329 21.2395 17.9726
353 1 4.21604 21.2144 20.7016
354 1 1.49714 21.1522 21.116
355 1 7.05106 21.3228 18.5383
356 1 9.84823 21.1822 17.9204
357 1 9.7077 21.135 21.0363
358 1 6.67479 21.4379 21.3893
359 1 12.7426 21.1104 18.1623
360 1 12.7497 20.943 20.8668
361 1 1.30935 -1.79715 23.6687
362 1 4.28058 -1.52906 23.8329
363 1 3.77144 -1.89531 26.751
364 1 1.1055 -1.34467 26.4659
365 1 1.51846 1.23322 23.8985
366 1 4.29374 1.40397 23.795
367 1 4.13991 1.20494 26.6369
368 1 1.33726 1.25308 26.8906
369 1 7.06232 -1.47328 23.7379
370 1 10.0727 -1.67957 23.9276
371 1 9.7038 -1.64728 26.7896
372 1 6.9852 -1.57846 26.7899
373 1 6.94206 1.24664 23.7463
374 1 9.87966 1.08354 23.8436
375 1 9.64847 1.04065 26.8682
376 1 6.78894 1.2648 26.5609
377 1 12.7115 -1.72399 23.8901
378 1 12.4552 -1.82091 26.7342
379 1 12.5285 1.11574 23.6854
380 1 12.6204 1.05229 26.7361
381 1 1.19362 4.27004 23.9343
382 1 4.19598 4.10152 23.492
383 1 4.22495 4.10892 26.3306
384 1 1.39705 4.20221 26.6196
385 1 0.982612 7.14354 23.7576
386 1 4.13717 7.1338 24.114
387 1 4.1057 7.10682 26.8778
388 1 1.22883 6.95312 26.4528
389 1 6.74379 4.14958 23.9091
390 1 9.59291 3.93143 23.6524
391 1 9.81231 3.76399 26.5525
392 1 6.99522 3.92411 26.6161
393 1 6.99383 7.03907 23.9727
394 1 9.86217 6.88696 23.7806
395 1 10.1466 6.66481 26.7855
396 1 6.94601 6.698 26.6184
397 1 12.4955 4.11528 23.7915
398 1 12.6036 4.01456 26.5161
399 1 12.613 6.923 23.8469
400 1 12.8494 6.90031 26.5067
401 1 1.38032 9.96469 23.7104
402 1 4.26092 9.83781 23.7377
403 1 4.0202 9.70978 26.7111
404 1 1.28926 9.59823 26.3797
405 1 1.08901 12.6093 23.7887
406 1 4.04492 12.6578 23.8096
407 1 3.99808 12.799 26.5524
408 1 1.31409 12.7268 26.4742
409 1 6.95387 9.72793 23.7938
410 1 9.82786 9.5479 23.5075
411 1 9.87615 9.59421 26.4722
412 1 6.99779 9.5862 26.4748
413 1 6.83434 12.6461 24.345
414 1 9.68786 12.2456 23.731
415 1 9.81674 12.5048 26.4776
416 1 6.78792 12.459 26.8749
417 1 12.7475 9.77263 23.8684
418 1 12.8521 9.81225 26.5471
419 1 13.1805 12.4491 23.5809
420 1 12.5688 12.6871 26.6637
421 1 1.39146 15.4918 23.8081
422 1 4.01791 15.5271 23.854
423 1 4.2826 15.5137 26.7517
424 1 1.10817 15.7425 26.7516
425 1 1.33776 18.1838 23.7058
426 1 4.13825 18.0798 23.7678
427 1 3.8025 18.2171 26.8226
428 1 1.05935 18.7435 26.248
429 1 6.87796 15.4948 23.6446
430 1 9.44487 15.7808 24.2816
431 1 9.82547 15.5168 26.6778
432 1 6.91039 15.3261 26.5865
433 1 6.78427 18.3574 24.1966
434 1 12.4997 21.4091 26.5129
435 1 9.78301 18.3688 26.7198
436 1 6.65858 18.1801 26.8454
437 1 12.8375 15.5246 23.7678
438 1 12.5066 15.6421 26.7877
439 1 12.553 21.2634 23.8207
440 1 12.4294 18.4584 26.5782
441 1 1.48927 21.2336 24.0992
442 1 4.21241 21.3557 23.8623
443 1 4.08498 20.9891 26.6901
444 1 1.2216 21.3402 26.646
445 1 7.12718 21.3838 24.174
446 1 9.9569 21.3481 23.8063
447 1 9.73301 21.1781 26.9221
448 1 6.80118 21.0264 26.9613
12012 2 2.84896 5.51786 27.9124
12155 2 5.50744 -2.95917 16.7587
12031 2 -0.122567 13.7521 27.5642
12250 2 11.1156 22.5456 25.1476
12039 2 11.2319 14.0649 28.0983
12129 2 5.72384 -0.0608879 13.9166
12171 2 -0.118715 8.40203 16.6283
12227 2 8.57908 8.41502 25.0302
12249 2 11.3059 19.8461 22.2763
12226 2 8.51649 11.0758 22.2493
12225 2 5.63265 8.34921 22.481
12244 2 0.0495128 22.8929 25.187
12223 2 2.75155 8.3801 25.3513
12248 2 5.50325 22.7696 25.2036
12222 2 2.76706 11.3947 22.4486
12228 2 5.48999 11.1382 25.1873
12234 2 0.0232652 16.9843 25.2222
12220 2 11.2662 5.52495 25.0764
12247 2 8.27839 19.6636 25.4641
12201 2 -0.159289 -2.96315 22.6089
6262 1 1.31208 15.4269 18.0767
12194 2 -0.0821893 22.4576 19.4735
12219 2 11.3832 2.6046 22.1677
12246 2 8.29982 22.7279 22.5154
15011 2 13.913 5.4303 27.9337
12218 2 5.68333 5.60448 25.3166
12025 2 5.77611 8.37509 28.0504
12245 2 5.52112 19.764 22.4934
12152 2 2.83509 -0.318196 16.6217
12241 2 -0.174233 19.8636 22.522
12243 2 2.73273 19.6485 25.1458
15242 2 13.8914 19.5796 25.2981
12156 2 8.55415 -0.314602 16.7428
12002 2 2.70383 -0.169375 28.0293
12158 2 5.66701 -0.242682 19.6143
12181 2 -0.155746 13.9256 16.4829
12160 2 11.2787 -0.290671 19.5379
12242 2 2.84675 22.7183 22.163
12162 2 2.42291 5.5492 16.3193
12163 2 2.91136 2.36433 19.3295
12240 2 11.2275 16.9863 25.0035
12165 2 5.42111 2.66529 16.5128
12166 2 8.38555 5.6241 16.5163
12167 2 8.2757 2.52934 19.5415
12168 2 5.85681 5.42846 19.4389
12169 2 11.2867 2.61379 16.6583
12170 2 11.1589 5.28813 19.3104
12239 1 9.93322 15.5896 20.8708
12172 2 2.78595 11.312 16.4906
12173 2 2.85496 8.65947 19.4557
12238 2 5.49422 16.7998 25.3017
12175 2 5.41284 8.35593 16.8045
12176 2 8.34063 11.1368 16.5747
12177 2 8.34131 8.40236 19.3551
12178 2 5.41928 11.5017 19.6359
12179 2 11.3408 8.29607 16.7471
12180 2 11.2391 11.1467 19.5852
12237 2 8.40095 13.9832 25.444
12182 2 2.48604 16.8235 16.505
12183 2 2.48261 14.1411 19.5688
12236 2 8.32722 17.0601 22.6464
12185 2 5.54877 13.8769 16.657
12186 2 8.32654 16.7509 16.9227
12187 2 8.40811 14.2246 19.6802
12188 2 5.23716 16.6819 19.4377
12189 2 11.0203 13.9325 16.9289
12190 2 11.1955 17.0005 19.4542
12235 2 5.45547 13.984 22.4694
12192 2 2.75467 22.6267 16.7276
12193 2 2.78547 19.7269 19.537
12042 2 2.83176 22.6161 28.1094
12195 2 5.48587 19.6538 16.7441
12196 2 8.42397 22.4515 16.7125
12197 2 8.31806 19.8314 19.5934
12198 2 5.45329 22.8608 19.3406
12199 2 11.0448 19.8159 16.6845
12200 2 11.1885 22.5143 19.5155
12233 2 2.7776 14.1779 25.2959
12202 2 2.79937 -0.25876 22.5134
12221 2 -0.157712 8.62577 22.3117
12232 2 2.67515 17.1336 22.3079
12026 2 8.41775 11.1956 27.9221
12206 2 8.58595 -0.308857 22.4199
12204 2 -0.165316 -0.24481 25.0929
12208 2 5.78755 -0.31005 25.2524
12041 2 -0.000593611 19.9216 27.8166
12210 2 11.369 -0.336101 25.3319
12230 2 11.3256 11.2789 24.9522
12212 2 2.63733 5.88252 22.8634
12213 2 2.76172 2.6457 25.2153
12229 2 11.2975 8.34178 22.147
12215 2 5.68665 2.59267 22.3798
12216 2 8.41789 5.57025 22.4893
12217 2 8.37059 2.51795 25.2916
12011 2 -0.0323841 2.73797 28.0971
12019 2 11.1848 2.71035 28.0903
12224 2 -0.156444 11.0283 25.1042
15041 2 13.9454 22.5934 27.9568
12161 2 -0.111688 2.49892 16.8218
12015 2 5.3053 2.66261 28.0439
12184 2 -0.112421 16.8697 19.3589
12021 2 -0.181358 8.31294 27.9631
12154 2 -0.0261656 -0.247782 19.4077
12231 2 -0.0511016 14.1251 22.2639
12211 2 -0.0151251 2.61022 22.5246
12029 2 11.4105 8.33434 27.7371
12140 2 11.1729 11.1594 13.9412
12036 2 8.34566 16.959 28.0118
12022 2 2.86878 11.3797 27.925
12127 2 -0.229393 -0.192711 14.0175
451 1 1.26495 27.0644 0.760358
452 1 4.27319 24.0311 0.871497
480 1 12.7458 31.9511 4.24522
454 1 1.53682 23.8333 3.69895
455 1 6.87192 23.9642 1.16509
456 1 9.92987 26.3695 1.22196
457 1 9.66337 23.8744 4.01816
458 1 7.10634 23.8508 4.2086
459 1 12.7757 26.6537 0.967657
460 1 12.7384 23.8919 3.77993
461 1 1.25209 29.7463 0.89885
462 1 3.8439 26.905 0.948216
463 1 4.21651 27.0705 4.0801
464 1 1.33272 26.7308 3.5284
465 1 1.27585 32.4138 1.23376
466 1 4.12953 29.5595 1.19873
467 1 4.20317 29.6498 4.06829
468 1 1.27517 29.3703 3.87964
469 1 6.83867 26.9951 1.13118
470 1 9.92433 29.3814 1.49414
471 1 9.91397 26.9319 3.90042
472 1 7.26619 26.5465 4.062
473 1 7.02094 29.8483 1.01808
474 1 9.89264 32.5764 4.07215
475 1 9.55239 29.9722 4.16234
476 1 7.04975 29.4248 3.64234
12364 2 2.85311 25.329 13.8741
478 1 12.7087 26.5566 3.95042
479 2 11.2342 30.9701 2.73997
12383 2 11.2619 45.1735 13.7297
544 1 1.20784 23.7553 9.67995
482 1 4.21638 32.2882 1.25062
483 1 3.73064 32.391 4.09658
484 1 1.6206 35.0522 0.996135
15271 2 13.8704 39.6328 0.0482387
453 1 4.22035 24.0834 3.76231
487 1 3.99028 35.1702 4.09257
12265 2 5.58196 30.9545 -0.298366
489 1 6.96339 32.5108 1.02146
490 1 9.56773 35.3997 1.34509
491 1 9.68763 32.3875 6.77239
492 1 6.8166 32.4374 3.95473
493 1 6.73194 35.3785 1.2281
12368 2 11.1604 28.3047 13.853
495 1 9.42329 35.7507 3.96474
496 1 6.61242 38.1274 3.71098
912 1 7.00335 49.3939 3.98913
498 1 12.5978 29.7428 1.29485
499 1 12.5919 35.7139 1.33633
500 1 12.2535 35.0962 3.94367
903 1 3.99223 49.5283 3.97855
477 1 11.2935 33.8921 -0.0414138
503 1 3.80273 38.2802 3.98016
504 1 1.1742 38.0888 3.85578
505 1 1.03202 41.1989 1.42544
506 1 4.04236 40.9052 1.07874
507 1 3.9951 41.0245 3.91904
508 1 1.17577 41.1152 4.48457
509 1 6.72721 38.1497 1.1363
12282 2 2.45172 45.5376 -0.145667
910 1 9.67975 49.5614 0.946147
512 1 9.87362 38.4938 3.79381
513 1 6.67894 41.0094 1.40277
514 1 9.7653 43.7323 1.60549
515 1 9.60613 43.9703 4.0906
516 1 6.84922 41.094 4.09094
517 1 12.5558 38.4475 1.55055
518 1 12.5997 37.9943 4.07089
519 1 12.4862 41.1753 1.25542
520 1 12.8276 40.9589 4.12456
521 1 1.12638 43.7818 1.25978
522 1 3.85577 43.8699 1.21318
523 1 3.76162 43.9106 4.11087
524 1 1.18662 43.9128 3.97688
525 1 1.0226 46.7499 1.38691
526 1 3.65837 46.81 1.54457
527 1 4.01534 46.5717 4.20822
528 1 1.0749 46.5219 4.09374
529 1 6.80302 43.9398 1.3518
12293 2 5.56914 47.8991 0.00226849
531 1 9.49702 46.8158 4.25647
532 1 6.71776 43.9384 4.05426
533 1 6.73284 46.7252 1.48101
497 1 9.82299 32.12 1.34804
535 1 9.63789 46.5628 7.1589
536 1 6.89316 46.5233 4.23662
537 1 12.6936 43.9566 1.36945
538 1 12.438 43.7932 4.114
539 1 12.5341 46.669 1.34615
540 1 12.4338 46.6172 4.16331
547 1 9.97549 24.0018 9.37471
542 1 4.33073 23.913 6.4403
543 1 4.05253 24.0534 9.38054
12356 2 -0.260782 42.3817 11.3514
545 1 7.0021 24.2728 6.90881
546 1 9.97165 24.0138 6.86096
12264 2 0.0261834 33.6039 2.58372
548 1 7.08213 24.14 9.64496
549 1 12.9379 24.0257 6.48264
550 1 12.6855 24.3895 9.78177
551 1 1.50938 26.3585 6.32518
552 1 4.26555 26.6475 6.85884
553 1 3.86431 27.0056 9.57348
554 1 1.24483 26.7266 9.74114
555 1 1.13425 32.5135 7.03996
556 1 1.45309 29.6524 6.70391
557 1 4.20549 29.4117 6.81545
558 1 3.45132 30.0696 9.89094
559 1 6.97032 26.9413 6.93149
560 1 9.79302 26.5625 6.65745
561 1 9.62816 26.8361 9.73958
562 1 6.73367 26.8871 9.55346
563 1 7.17291 29.7041 6.68698
564 1 9.71394 29.5176 6.93863
565 1 9.64802 29.8364 9.89396
566 1 6.3854 29.5408 9.45296
567 1 12.5425 26.9342 6.7691
568 1 12.5905 26.9663 9.72062
569 1 12.6873 29.903 6.95216
570 1 12.5513 30.0159 9.84642
571 1 1.11263 35.1858 7.0029
572 1 4.08069 32.3576 6.74389
573 1 4.11546 32.7139 9.65352
574 1 1.17551 32.2449 9.74699
575 1 1.25524 35.195 3.85768
576 1 3.90474 35.456 6.85877
577 1 3.85275 35.408 9.5348
578 1 1.12704 35.2344 9.71362
579 1 6.7017 35.2139 6.68973
580 1 6.84401 32.5736 6.73236
581 1 9.46095 32.3591 9.34875
582 1 6.92779 32.4218 9.50237
583 1 6.73693 35.0387 3.98143
584 1 10.0137 35.1441 6.67172
585 1 9.82271 34.9032 9.96958
586 1 6.51007 35.0558 9.86168
587 1 12.2027 32.6927 7.02575
588 1 12.358 32.7379 9.77008
589 1 12.5471 35.608 6.99613
590 1 12.5565 35.6904 9.86905
591 1 1.23711 38.2121 6.98272
592 1 3.98303 37.9686 6.83167
593 1 3.85363 38.3516 9.61766
594 1 1.14802 37.9679 9.96217
595 1 1.17899 40.7337 7.07569
596 1 3.77069 41.1825 6.90034
597 1 3.72343 40.9215 9.73112
598 1 1.05875 40.8418 9.9303
599 1 6.68706 38.3266 6.44417
600 1 9.61357 41.2726 4.08577
601 1 9.962 38.2154 9.7065
602 1 6.71584 38.1963 9.98758
603 1 6.56005 41.0539 6.89703
604 1 9.45724 41.2445 6.79453
605 1 9.39596 40.9492 9.69003
606 1 6.69274 40.9079 9.69847
607 1 12.7004 38.2374 6.82588
608 1 12.9119 38.4576 9.65079
609 1 12.4337 41.2641 7.0303
610 1 12.5791 41.1761 9.79743
611 1 1.10158 43.623 6.82014
612 1 4.01616 44.0415 7.24333
613 1 3.92458 43.6921 9.8988
614 1 1.03379 43.6996 9.84167
615 1 1.21234 46.539 6.94837
616 1 3.85721 46.6766 7.16185
617 1 4.32823 46.6287 9.93194
618 1 1.23359 46.6707 9.71253
619 1 6.76288 43.9026 7.02575
620 1 9.53635 43.7392 6.62043
621 1 9.46916 43.6192 9.37479
622 1 6.63342 44.0194 9.90251
623 1 6.78182 46.6451 7.04765
81 1 1.472 24.15 0.956251
625 1 10.0895 46.4139 9.99441
626 1 7.35642 46.648 9.69736
627 1 12.421 44.0156 6.88122
628 1 12.57 44.0035 9.66917
629 1 12.4364 46.747 6.81685
630 1 12.852 46.7422 9.67699
631 1 1.30298 23.993 12.4692
632 1 4.13466 24.1438 12.2877
633 1 6.92235 24.0087 12.5469
634 1 9.59615 24.1671 12.0945
635 1 12.4238 24.1532 12.7655
636 1 1.34844 26.9738 12.7285
637 1 4.33508 26.8537 12.7195
638 1 1.37064 29.9266 11.9037
639 1 4.21558 29.5842 12.5819
640 1 7.04949 26.7529 12.4481
641 1 9.84338 26.885 12.4712
642 1 6.56649 29.6535 12.2563
643 1 9.58251 29.7042 12.7472
644 1 12.6972 26.9438 12.61
645 1 12.382 29.8929 12.5329
646 1 1.1277 32.5112 12.7426
647 1 3.90629 32.4058 12.2823
648 1 0.948411 35.2326 12.5332
649 1 3.93629 35.3023 12.5464
650 1 6.8088 32.3223 12.5564
651 1 9.57838 32.4475 12.6191
652 1 6.8698 34.9727 12.9797
653 1 9.75269 35.6174 12.6996
654 1 12.6211 32.6659 12.4428
655 1 12.4081 35.4711 12.5854
656 1 1.12266 38.0453 12.6103
657 1 4.11899 38.1512 12.5694
658 1 0.937865 41.0392 12.7739
659 1 3.73479 41.0201 12.5557
660 1 7.0656 38.0325 12.9324
661 1 9.59585 38.2094 12.2743
662 1 6.68798 40.9043 12.4987
663 1 9.7011 40.9972 12.4589
664 1 12.424 38.1281 12.6763
665 1 12.7596 40.9145 12.619
666 1 1.08478 43.8701 12.5649
667 1 3.89125 43.8646 12.6123
668 1 1.22195 46.7498 12.6923
669 1 3.90558 46.9339 12.648
670 1 6.82634 43.7947 12.6492
671 1 9.67454 43.9047 12.0601
672 1 6.78379 46.7151 12.4107
673 1 9.7061 46.5968 12.6938
674 1 12.7719 43.97 12.3307
675 1 12.4554 46.7805 12.2507
12363 2 10.941 48.1097 10.962
89 1 12.3184 23.7646 0.875129
12253 2 2.80444 25.3843 2.41442
12362 2 5.45455 48.1725 11.1531
12254 2 -0.152823 28.2799 2.40307
12285 2 5.5161 42.3471 -0.180002
12257 2 8.24936 25.4596 2.49347
12258 2 5.48336 28.3409 2.52597
12336 2 -0.357515 48.1074 5.4758
12260 2 11.249 27.7748 2.27638
15326 2 13.8584 45.5323 5.53359
541 1 1.38101 23.8084 6.69141
12263 2 2.69932 30.7097 2.57154
12360 2 11.1376 42.3476 10.9671
6482 1 12.7304 32.5129 1.81506
12348 2 5.3302 31.097 11.0292
12267 2 8.14431 31.0874 2.6013
12268 2 5.4318 33.6166 2.68303
12373 2 10.9803 34.1167 13.9637
12270 2 11.1248 34.1391 2.39829
12359 2 8.26725 45.2758 11.2301
12347 2 2.4017 33.9088 11.0208
12273 2 2.79008 36.6525 2.90614
12358 2 5.35587 42.2362 11.1504
12381 2 8.23761 42.2738 13.7947
831 1 12.1159 29.1198 3.9436
12277 2 8.25811 36.8639 2.6124
12278 2 5.42183 39.721 2.70767
848 1 1.28319 37.7016 0.989663
12280 2 11.254 39.7526 2.73538
15282 2 13.908 42.6834 2.75536
6584 1 1.21316 32.1703 4.11987
12283 2 2.48021 42.449 2.75721
863 1 4.36649 35.028 0.640262
530 1 9.6067 46.7006 1.29891
15261 2 13.8402 34.1166 -0.0630708
12287 2 8.17923 42.5018 2.91801
12288 2 5.23927 45.3134 2.59553
510 1 9.32217 41.0142 1.33747
12290 2 11.0267 45.1941 2.68182
12369 2 2.42903 31.0056 13.6543
12292 2 2.25188 48.2179 2.83736
12352 2 2.51446 39.478 10.9972
12294 2 8.33189 48.0596 2.58926
450 1 9.46972 23.8135 1.13569
12357 2 2.63166 45.2056 11.3225
12297 2 2.59797 28.1556 5.39363
12298 2 2.59908 25.4185 8.22387
511 1 9.66263 38.1493 0.936709
12300 2 5.78232 25.496 5.56107
12301 2 8.31837 28.1133 5.44181
12302 2 8.32647 25.4521 8.22073
12303 2 5.34879 28.0336 8.14565
12304 2 11.2763 25.3275 5.11089
12305 2 11.3332 28.2496 8.20966
12296 2 -0.106867 25.4478 5.08773
12307 2 2.54959 33.802 5.60284
12308 2 2.71144 31.0683 8.1486
12355 2 11.1593 36.8144 11.1426
12310 2 5.55185 30.9479 5.45152
12311 2 8.46772 34.0836 5.37039
12312 2 8.13586 31.1014 8.15606
12313 2 5.59609 33.9761 8.09005
12314 2 11.0778 31.0977 5.7974
12315 2 10.7964 33.9651 8.34578
12354 2 8.21891 39.5576 11.0207
12317 2 2.70741 39.5236 5.74131
12318 2 2.45501 36.558 8.31508
534 1 12.2465 49.131 4.00833