ITEM: TIMESTEP
40000
ITEM: NUMBER OF ATOMS
17730
ITEM: BOX BOUNDS pp pp pp
-4.2667089745241471e-01 2.7766670897452432e+01
-5.3292718138470692e+00 3.3340927181384461e+02
-4.4682203275986476e-01 2.7786822032759865e+01
ITEM: ATOMS id type q x y z
1 2 2.2208 5.2072 0.0245474 5.00226
2 1 -1.1104 0.746531 -4.07607 1.01879
6 1 -1.1104 0.880687 -4.03108 3.86056
10 1 -1.1104 1.09717 -1.36609 0.916166
12 2 2.2208 5.02776 -2.51188 2.19358
14 1 -1.1104 1.03135 -1.02478 3.488
16 1 -1.1104 3.66179 -3.933 0.687798
18 2 2.2208 2.30357 0.319915 2.21413
19 1 -1.1104 3.58598 -3.97754 3.5204
21 2 2.2208 2.34221 -2.67124 5.13894
23 1 -1.1104 3.71203 -1.188 0.933451
24 1 -1.1104 3.79054 -1.16731 3.82817
11 1 -1.1104 6.55496 -1.16669 0.662981
15 1 -1.1104 6.54725 -1.1337 3.49494
8 1 -1.1104 6.47626 -4.03975 3.71954
4 1 -1.1104 6.4453 -3.93892 1.03763
170 1 -1.1104 1.00035 -1.11914 6.44024
172 1 -1.1104 3.91181 -4.02976 6.28546
168 1 -1.1104 6.62209 -4.20997 6.54654
171 1 -1.1104 6.5673 -1.48893 6.47515
174 1 -1.1104 3.66012 -1.28035 6.69099
310 2 2.2208 5.23471 -2.47114 13.523
328 2 2.2208 7.88031 17.3087 13.5437
31 2 2.2208 10.8528 0.616135 5.14159
32 1 -1.1104 12.3213 -3.84834 0.920629
34 1 -1.1104 12.3169 -3.99943 3.68733
36 1 -1.1104 12.1205 -1.08896 0.614409
37 2 2.2208 10.9003 -2.46337 2.52056
39 1 -1.1104 12.2329 -1.15366 3.92339
40 1 -1.1104 9.48372 -3.93764 0.821346
42 2 2.2208 7.9658 0.414027 2.46453
43 1 -1.1104 9.38774 -3.93985 3.60583
45 2 2.2208 7.79378 -2.47986 5.01841
47 1 -1.1104 9.37073 -1.08092 0.977519
48 1 -1.1104 9.33309 -0.901073 3.98969
205 1 -1.1104 12.1683 -4.05758 6.55528
208 1 -1.1104 9.29401 -3.64125 6.28203
210 1 -1.1104 9.23984 -1.07357 6.62637
315 2 2.2208 10.8458 -2.60316 13.4589
321 2 2.2208 10.8604 8.77033 13.389
52 2 2.2208 10.8727 -5.27758 5.14408
3 1 -1.1104 0.963189 1.67978 0.890645
7 1 -1.1104 0.954701 1.75163 3.82469
13 2 2.2208 5.02219 2.99626 2.08797
17 1 -1.1104 3.78093 1.5367 0.767319
20 1 -1.1104 3.68955 1.77278 3.48772
22 2 2.2208 2.37877 2.79749 5.23461
54 2 2.2208 5.03454 5.88775 4.99083
60 1 -1.1104 0.696468 4.52447 0.746786
67 1 -1.1104 0.991036 4.52427 3.70289
71 1 -1.1104 3.70854 7.30047 0.603379
72 2 2.2208 2.29717 5.72952 2.14793
76 1 -1.1104 3.6799 4.54411 0.640964
79 1 -1.1104 3.71403 4.38748 3.90479
58 1 -1.1104 0.629353 7.33648 3.70304
74 1 -1.1104 3.68467 7.19071 3.52286
57 1 -1.1104 6.46934 7.29632 0.834798
239 1 -1.1104 3.86946 4.32803 6.82924
69 1 -1.1104 6.70483 4.5578 3.57838
9 1 -1.1104 6.36266 1.64662 3.77904
173 1 -1.1104 3.93982 1.43744 6.48283
167 1 -1.1104 0.902967 1.52235 6.56925
238 1 -1.1104 3.71329 7.25184 6.53644
169 1 -1.1104 6.74781 1.47942 6.55889
236 1 -1.1104 0.960765 4.45579 6.68221
8812 2 2.2208 13.6628 0.312282 13.4558
235 1 -1.1104 6.33577 7.25268 6.27228
8579 2 2.2208 13.6791 14.6151 5.03229
5 1 -1.1104 6.49899 1.57636 0.986362
59 1 -1.1104 6.61697 7.25988 3.50581
63 1 -1.1104 6.51718 4.49162 0.777717
33 1 -1.1104 11.9751 1.67228 1.01662
35 1 -1.1104 12.2923 1.79376 3.55363
38 2 2.2208 10.7652 3.09304 2.18833
41 1 -1.1104 9.21918 1.81943 0.942422
44 1 -1.1104 9.36927 1.82441 3.68141
46 2 2.2208 7.97303 3.18064 5.01845
84 2 2.2208 10.8645 5.99089 5.10628
87 1 -1.1104 12.2996 7.39171 3.58692
88 1 -1.1104 12.034 4.53111 0.786417
92 1 -1.1104 12.3644 4.56909 3.74462
94 1 -1.1104 9.21929 7.19267 0.829696
95 2 2.2208 7.99174 5.83399 2.18789
97 1 -1.1104 9.58636 7.05849 3.53554
99 1 -1.1104 9.44925 4.54239 0.853489
102 1 -1.1104 9.72163 4.37083 3.68985
86 1 -1.1104 12.1039 7.27604 0.654417
266 1 -1.1104 12.4682 4.62682 6.66482
206 1 -1.1104 12.229 1.90484 6.45661
269 1 -1.1104 9.58457 4.63144 6.48866
209 1 -1.1104 9.31476 1.78646 6.61862
237 1 -1.1104 6.7725 4.49981 6.3761
265 1 -1.1104 12.417 7.21904 6.30436
311 2 2.2208 2.26683 0.180865 13.5533
56 1 -1.1104 1.01159 7.44326 1.01108
234 1 -1.1104 0.85216 7.30861 6.35736
55 2 2.2208 5.18007 11.6187 5.01255
61 1 -1.1104 1.01207 10.0711 0.955984
66 2 2.2208 5.01852 8.72336 2.08861
68 1 -1.1104 0.80753 9.93397 3.62204
73 2 2.2208 2.38023 11.5763 2.14867
75 2 2.2208 2.31661 8.59951 5.10915
77 1 -1.1104 3.72008 10.2236 0.832828
80 1 -1.1104 3.5435 10.0507 3.74275
107 1 -1.1104 1.02627 12.8796 0.807144
113 1 -1.1104 0.89155 12.7902 3.62101
123 1 -1.1104 3.89828 13.0801 0.681181
128 1 -1.1104 3.68128 13.1004 3.62139
108 1 -1.1104 0.859098 12.8976 6.41396
65 1 -1.1104 6.64057 10.1393 6.40396
111 1 -1.1104 6.54945 12.9458 6.48219
124 1 -1.1104 3.52714 12.915 6.61683
62 1 -1.1104 0.990353 10.1966 6.49192
64 1 -1.1104 6.38705 10.096 0.737536
28 2 2.2208 2.30481 -5.27343 2.15831
78 1 -1.1104 3.78341 10.2134 6.61938
110 1 -1.1104 6.78522 12.9816 0.846327
70 1 -1.1104 6.41376 10.0449 3.58098
115 1 -1.1104 6.39718 13.0431 3.56178
85 2 2.2208 11.0533 11.5864 5.26705
89 1 -1.1104 11.9527 10.0214 0.743082
91 2 2.2208 10.7098 8.68954 2.18776
93 1 -1.1104 12.1671 10.1795 3.60649
96 2 2.2208 7.79421 11.5125 2.28347
98 2 2.2208 7.92402 8.66487 4.87936
100 1 -1.1104 8.98296 10.184 0.777694
103 1 -1.1104 9.19499 9.89396 3.4502
142 1 -1.1104 12.3181 12.9272 1.06544
146 1 -1.1104 12.0927 12.9746 3.72116
153 1 -1.1104 9.39115 12.8929 0.682265
158 1 -1.1104 9.24194 12.9256 3.68153
90 1 -1.1104 12.4461 10.1438 6.60018
154 1 -1.1104 9.37132 12.9685 6.68927
8806 2 2.2208 13.6564 -2.51147 10.5241
106 2 2.2208 5.25889 17.0431 4.86637
109 1 -1.1104 0.81983 18.5845 0.711758
114 1 -1.1104 0.762772 18.6086 3.59681
116 1 -1.1104 1.06946 15.6784 0.862354
119 2 2.2208 5.03335 14.4673 2.21224
120 2 2.2208 5.24154 20.0172 2.1481
121 1 -1.1104 0.735722 16.0267 3.57311
125 1 -1.1104 3.71977 18.5438 0.765775
127 2 2.2208 2.28958 17.2027 2.27563
129 1 -1.1104 3.88028 18.571 3.51212
130 2 2.2208 2.06593 14.3864 4.90679
131 2 2.2208 2.43737 19.8826 4.91462
132 1 -1.1104 3.57007 15.8676 0.960502
134 1 -1.1104 3.43606 15.681 3.57873
302 1 -1.1104 1.01769 18.7521 6.39045
140 1 -1.1104 6.37522 15.8243 0.828379
133 1 -1.1104 3.72994 15.7509 6.36867
117 1 -1.1104 0.931733 15.6263 6.3273
139 1 -1.1104 6.50477 18.721 3.85837
118 1 -1.1104 6.37981 15.8225 6.60941
318 2 2.2208 5.1806 8.77163 13.511
126 1 -1.1104 3.94694 18.7764 6.4147
8800 2 2.2208 -0.168311 0.168758 10.6286
122 1 -1.1104 6.59904 15.8534 3.57805
163 1 -1.1104 9.18194 15.7131 6.47515
8805 2 2.2208 13.5592 0.413117 8.07855
112 1 -1.1104 6.57955 18.5574 6.57329
149 1 -1.1104 12.0484 16.0619 6.53809
138 1 -1.1104 6.523 18.5988 0.885002
150 2 2.2208 10.8926 14.2876 2.23147
141 2 2.2208 10.7827 17.2157 5.12874
144 1 -1.1104 12.1405 18.7299 1.01274
147 1 -1.1104 12.4351 18.4865 3.63279
148 1 -1.1104 12.3561 15.8471 0.737564
151 2 2.2208 10.7983 20.0123 2.30911
152 1 -1.1104 12.1556 15.613 3.5661
155 1 -1.1104 9.41973 18.4573 0.838926
157 2 2.2208 7.93505 17.2166 2.16154
159 1 -1.1104 9.42379 18.7888 3.65377
160 2 2.2208 7.79407 14.5139 5.04475
161 2 2.2208 7.95407 20.009 5.19065
162 1 -1.1104 9.32077 15.7551 0.964521
164 1 -1.1104 9.41709 15.8051 3.73449
199 1 -1.1104 9.10773 15.7874 12.1748
145 1 -1.1104 12.2841 18.7112 6.28433
156 1 -1.1104 9.25924 18.5832 6.58125
8827 2 2.2208 13.539 11.5945 13.5288
51 2 2.2208 8.01516 -5.33023 2.23307
166 1 -1.1104 1.01084 -4.17794 6.75874
175 2 2.2208 5.16618 0.394577 10.6933
176 1 -1.1104 0.961671 -3.9048 12.3929
180 1 -1.1104 1.31312 -4.39318 9.44399
184 1 -1.1104 0.866699 -1.05932 12.2096
186 2 2.2208 5.20278 -2.67757 7.92464
188 1 -1.1104 1.03947 -1.62581 9.21727
190 1 -1.1104 3.8513 -3.97477 12.4384
192 2 2.2208 2.43088 0.16586 8.00006
193 1 -1.1104 3.95195 -3.87334 9.45333
195 2 2.2208 2.52479 -2.73247 10.8439
197 1 -1.1104 3.7555 -1.07303 12.0488
198 1 -1.1104 3.80543 -1.23721 9.25874
182 1 -1.1104 6.4766 -4.04959 9.28244
178 1 -1.1104 6.50738 -3.99808 12.1141
185 1 -1.1104 6.53304 -1.13304 12.2714
189 1 -1.1104 6.47509 -1.21714 9.47288
25 2 2.2208 10.7257 17.1762 10.8112
207 1 -1.1104 12.2204 -0.947136 6.78547
8787 2 2.2208 13.5051 -2.69041 5.03155
314 2 2.2208 8.01149 0.308379 13.512
8782 2 2.2208 13.6575 17.3527 7.88401
211 2 2.2208 10.8502 0.331579 10.8466
212 1 -1.1104 12.2979 -4.24435 12.2853
214 1 -1.1104 12.2351 -4.05214 9.27309
216 1 -1.1104 12.2241 -1.15101 12.1652
217 2 2.2208 10.9277 -2.44849 7.88339
219 1 -1.1104 12.1437 -1.00513 9.46779
220 1 -1.1104 9.54123 -3.84667 11.9827
222 2 2.2208 8.07004 0.16967 7.95363
223 1 -1.1104 9.45052 -3.97007 9.16204
225 2 2.2208 7.8096 -2.52099 10.6663
227 1 -1.1104 9.39157 -1.14491 12.0743
228 1 -1.1104 9.42202 -1.13976 9.24472
49 1 -1.1104 12.2226 18.6351 9.2459
8781 2 2.2208 13.5411 14.5988 10.7638
8743 2 2.2208 13.4352 20.1652 10.7209
8822 2 2.2208 -0.407112 3.06304 13.3822
8835 2 2.2208 -0.368965 -2.60981 13.4788
177 1 -1.1104 1.04856 1.76914 12.0002
181 1 -1.1104 1.16567 1.57585 9.23548
187 2 2.2208 5.38206 3.09373 7.95998
191 1 -1.1104 3.57172 1.72561 12.3498
194 1 -1.1104 3.74977 1.49899 9.3986
196 2 2.2208 2.32077 3.22825 10.7091
240 2 2.2208 5.07334 5.88208 10.7137
242 1 -1.1104 0.792948 7.33184 12.1148
244 1 -1.1104 0.954995 7.31273 9.14931
246 1 -1.1104 0.730737 4.44306 11.9423
251 1 -1.1104 0.910424 4.66005 9.52406
255 1 -1.1104 3.61213 7.35816 12.4383
256 2 2.2208 2.23448 5.94368 7.82553
258 1 -1.1104 3.72811 7.35655 9.49611
260 1 -1.1104 3.48025 4.6242 12.0399
262 1 -1.1104 3.63682 4.33535 9.24771
183 1 -1.1104 6.69653 1.66964 9.40135
253 1 -1.1104 6.46481 4.42431 9.33228
243 1 -1.1104 6.40253 7.42537 12.2393
248 1 -1.1104 6.41107 4.40891 12.1905
179 1 -1.1104 6.51455 1.77368 12.1664
327 2 2.2208 10.7209 14.5373 13.4978
200 1 -1.1104 9.4356 15.7353 9.52151
8558 2 2.2208 13.5465 20.1167 5.12227
267 1 -1.1104 9.09829 7.36225 6.28405
245 1 -1.1104 6.50249 7.18354 9.4284
316 2 2.2208 10.6856 3.12626 13.6002
213 1 -1.1104 12.4111 1.71319 12.0959
215 1 -1.1104 12.5097 1.9128 9.18166
218 2 2.2208 10.8937 3.28172 7.94403
221 1 -1.1104 9.5638 1.49155 12.467
224 1 -1.1104 9.72227 1.79367 9.50068
226 2 2.2208 7.94197 3.11278 10.8539
268 1 -1.1104 9.14042 4.60931 9.36937
271 1 -1.1104 9.08726 4.25972 12.3312
273 1 -1.1104 9.35891 7.56459 9.25266
275 2 2.2208 7.90842 5.83522 7.76755
276 2 2.2208 10.6955 6.09046 10.7568
278 1 -1.1104 12.062 7.60738 11.9438
279 1 -1.1104 12.3436 7.26208 9.08009
280 1 -1.1104 12.0339 4.53043 12.2931
283 1 -1.1104 12.1207 4.58838 9.56699
285 1 -1.1104 9.24616 7.05419 12.0798
50 1 -1.1104 12.0614 15.9438 12.2572
8793 2 2.2208 13.4757 6.08542 2.08995
104 1 -1.1104 9.49767 18.8509 12.0284
241 2 2.2208 5.02391 11.5427 10.6789
247 1 -1.1104 0.871938 10.105 12.1963
250 2 2.2208 5.13785 8.79722 7.83584
252 1 -1.1104 0.959437 9.78102 9.36579
257 2 2.2208 2.26648 11.4566 7.95437
259 2 2.2208 2.27998 8.54536 10.7155
261 1 -1.1104 3.85453 10.1798 12.0058
263 1 -1.1104 3.79563 10.0038 9.39222
287 1 -1.1104 3.72111 12.9647 12.0853
294 1 -1.1104 0.683767 12.7669 8.98519
299 1 -1.1104 1.035 12.9172 11.89
305 1 -1.1104 3.69906 13.0462 9.33277
297 1 -1.1104 6.6865 12.9042 12.312
8792 2 2.2208 13.5862 11.5887 2.27698
319 2 2.2208 2.31023 11.6128 13.3609
254 1 -1.1104 6.50899 10.0892 9.39799
249 1 -1.1104 6.77579 10.201 12.2518
101 1 -1.1104 9.48309 10.2728 6.33926
290 1 -1.1104 6.64453 13.0045 9.26035
143 1 -1.1104 12.307 13.2342 6.3605
264 1 -1.1104 9.29901 10.385 9.46118
270 1 -1.1104 9.47331 10.1459 12.0804
272 2 2.2208 7.87875 8.82245 10.817
274 2 2.2208 8.05999 11.4455 7.88997
277 2 2.2208 10.7738 11.6875 10.851
281 1 -1.1104 12.2955 10.1903 12.0145
282 2 2.2208 10.7537 8.92959 8.0724
284 1 -1.1104 12.4257 10.149 9.35594
135 1 -1.1104 9.35405 12.9518 9.36738
26 1 -1.1104 12.2648 12.9804 12.1314
30 1 -1.1104 12.2753 13.0053 9.2069
83 1 -1.1104 9.46024 13.1294 11.9988
137 2 2.2208 7.83095 14.4198 10.7345
296 1 -1.1104 6.51137 18.6462 12.0989
322 2 2.2208 7.99024 11.6605 13.6207
165 2 2.2208 8.14857 20.1871 10.538
288 1 -1.1104 6.70283 18.3886 9.51992
105 2 2.2208 7.87768 17.0479 8.039
201 2 2.2208 2.10416 14.3311 10.4585
324 2 2.2208 5.01276 20.0351 13.4422
233 1 -1.1104 6.29782 15.817 12.1667
295 2 2.2208 5.09473 14.3209 7.92873
204 2 2.2208 2.29268 20.1427 10.6512
229 1 -1.1104 3.61417 15.8188 11.8855
230 1 -1.1104 0.873489 15.6752 11.8343
286 1 -1.1104 3.66422 18.4396 12.1164
291 1 -1.1104 0.626032 18.8832 9.24613
292 1 -1.1104 0.846709 15.6983 9.11659
293 2 2.2208 5.14457 20.059 7.85036
298 1 -1.1104 1.0597 18.6222 12.1192
300 2 2.2208 5.15552 17.1296 10.6678
301 1 -1.1104 3.64123 18.5784 9.16369
303 2 2.2208 2.32882 17.4079 7.84475
304 1 -1.1104 3.55736 15.8438 9.20595
323 2 2.2208 2.44327 17.0868 13.4744
325 2 2.2208 5.06893 14.3195 13.3943
27 1 -1.1104 11.9826 18.6244 12.3371
82 1 -1.1104 12.1209 15.7789 9.39776
53 2 2.2208 10.5896 14.6459 7.84856
81 2 2.2208 10.8565 20.1968 7.77108
326 2 2.2208 10.7244 20.0976 13.54
289 1 -1.1104 6.58231 15.6728 9.16047
136 1 -1.1104 9.62544 18.572 9.32304
320 2 2.2208 7.75915 6.01344 13.6153
338 2 2.2208 10.7275 0.290066 -0.396311
340 2 2.2208 7.91805 3.16759 -0.408959
346 2 2.2208 5.02834 0.15439 16.4384
347 1 -1.1104 0.91827 -3.84074 17.6878
351 1 -1.1104 0.989025 -4.10853 15.0087
359 1 -1.1104 0.977131 -1.26145 17.7678
361 2 2.2208 5.37974 -2.66613 19.1813
363 1 -1.1104 0.927453 -1.21093 15.0491
367 1 -1.1104 3.72299 -3.99168 18.1284
369 2 2.2208 2.3146 0.162735 19.1749
370 1 -1.1104 3.89141 -3.99038 15.141
374 2 2.2208 2.4653 -2.7616 16.4251
376 1 -1.1104 3.75126 -1.29503 17.6342
377 1 -1.1104 3.62982 -1.30376 14.8336
360 1 -1.1104 6.56131 -1.06185 17.8998
378 1 -1.1104 3.81954 -1.13552 20.4494
355 1 -1.1104 6.86225 -3.93921 14.814
366 1 -1.1104 6.80946 -1.09023 20.5725
349 1 -1.1104 6.71698 -4.172 17.6857
365 1 -1.1104 6.63503 -1.19434 15.0359
356 1 -1.1104 6.53815 -4.13432 20.5614
364 1 -1.1104 0.871794 -1.1283 20.6868
8968 2 2.2208 13.5798 8.90452 16.3114
335 2 2.2208 2.43987 -2.5216 27.7124
389 2 2.2208 10.9164 0.234672 16.243
390 1 -1.1104 12.2265 -3.91216 17.8776
392 1 -1.1104 12.3567 -4.19693 15.1428
396 1 -1.1104 12.202 -1.12508 17.5602
397 2 2.2208 10.9753 -2.46907 19.1465
399 1 -1.1104 12.3078 -1.19548 14.7769
401 1 -1.1104 9.38774 -3.82472 17.952
403 2 2.2208 8.02757 0.318622 19.2892
404 1 -1.1104 9.48576 -3.88541 14.9557
408 2 2.2208 8.01214 -2.5854 16.2855
410 1 -1.1104 9.47306 -0.875232 17.7745
411 1 -1.1104 9.38052 -1.21173 14.7875
580 2 2.2208 2.39154 -5.16522 24.9536
412 1 -1.1104 9.54339 -1.1956 20.545
8820 2 2.2208 13.6947 3.0863 27.6383
400 1 -1.1104 12.3981 -1.26404 20.4126
8939 2 2.2208 13.5722 0.345137 24.8353
348 1 -1.1104 1.07793 1.68621 17.714
353 1 -1.1104 0.834608 1.57062 15.0202
362 2 2.2208 5.0922 3.14545 19.2429
368 1 -1.1104 3.77675 1.43902 17.7999
372 1 -1.1104 3.86313 1.67245 15.1242
375 2 2.2208 2.29985 3.15681 16.2487
422 2 2.2208 5.2256 5.83532 16.3152
426 1 -1.1104 0.984835 7.31388 15.0894
430 1 -1.1104 0.851805 4.43366 17.618
435 1 -1.1104 0.969826 4.24229 14.8551
443 1 -1.1104 3.9694 6.92803 18.0178
444 2 2.2208 2.31687 5.8683 19.0552
446 1 -1.1104 3.70845 7.27317 15.3801
449 1 -1.1104 3.6196 4.34974 17.7718
451 1 -1.1104 3.69591 4.43503 14.7462
424 1 -1.1104 0.869549 7.35505 17.7289
439 1 -1.1104 6.51966 4.43336 14.9721
354 1 -1.1104 0.957709 1.63369 20.4086
350 1 -1.1104 6.47973 1.74974 18.0319
432 1 -1.1104 6.63972 4.53328 17.8268
357 1 -1.1104 6.63457 1.38155 14.9279
425 1 -1.1104 6.69316 7.32208 17.629
452 1 -1.1104 3.72775 4.51518 20.5211
582 1 -1.1104 12.4039 15.5041 26.1165
427 1 -1.1104 0.875832 7.12228 20.7046
447 1 -1.1104 3.66826 7.24962 20.6271
436 1 -1.1104 0.607408 4.5028 20.4689
429 1 -1.1104 6.48014 7.34541 20.5908
440 1 -1.1104 6.71192 4.51298 20.5139
373 1 -1.1104 3.65015 1.81789 20.7414
428 1 -1.1104 6.46328 7.27525 14.9566
391 1 -1.1104 12.1891 1.75491 17.5641
394 1 -1.1104 12.2358 1.68172 14.8049
398 2 2.2208 10.6817 3.28358 19.1134
402 1 -1.1104 9.40174 1.87256 18.0008
406 1 -1.1104 9.50716 1.79708 15.1729
409 2 2.2208 7.94383 3.02801 16.343
458 2 2.2208 10.8678 5.96936 16.3964
460 1 -1.1104 12.5393 7.49141 17.821
461 1 -1.1104 12.0823 7.58426 14.9011
463 1 -1.1104 12.4729 4.50635 17.8048
466 1 -1.1104 12.2126 4.71838 15.0878
470 1 -1.1104 9.56456 7.42334 17.9303
471 2 2.2208 7.87188 5.92245 19.21
473 1 -1.1104 9.11443 7.34935 15.1607
476 1 -1.1104 9.45478 4.58102 17.5793
478 1 -1.1104 9.34149 4.67439 14.8935
395 1 -1.1104 12.2146 1.57194 20.5028
462 1 -1.1104 12.1309 7.41072 20.6599
474 1 -1.1104 9.44787 7.39444 20.4408
407 1 -1.1104 9.29173 1.67272 20.6262
479 1 -1.1104 9.36939 4.82303 20.6474
576 1 -1.1104 12.1645 15.6596 23.3469
8895 2 2.2208 13.6202 5.95894 24.7351
423 2 2.2208 4.96546 11.6626 16.2905
431 1 -1.1104 1.15932 10.1343 17.7932
434 2 2.2208 5.27489 8.67286 19.1216
437 1 -1.1104 0.845864 10.1242 15.2246
445 2 2.2208 2.33731 11.43 19.2406
448 2 2.2208 2.36811 8.82332 16.4021
450 1 -1.1104 3.76767 10.0534 17.801
453 1 -1.1104 3.70095 10.09 14.9708
486 1 -1.1104 0.539059 13.186 17.7395
490 1 -1.1104 0.852347 12.919 14.9102
506 1 -1.1104 3.55908 12.9523 17.5796
509 1 -1.1104 3.60851 12.8955 14.6819
433 1 -1.1104 6.66208 10.4061 17.6098
441 1 -1.1104 6.5938 10.2049 15.0921
500 2 2.2208 5.12413 14.5686 19.1088
491 1 -1.1104 1.02732 12.8742 20.415
454 1 -1.1104 3.67903 9.87324 20.6204
510 1 -1.1104 3.94056 12.6522 20.3329
495 1 -1.1104 6.8311 13.1527 20.4392
442 1 -1.1104 6.55023 10.0144 20.4011
438 1 -1.1104 0.823568 9.93697 20.7948
494 1 -1.1104 6.50289 13.0375 15.0214
488 1 -1.1104 6.4006 13.0944 17.6056
459 2 2.2208 10.6279 11.5615 16.3113
464 1 -1.1104 12.0281 10.2021 17.7731
465 2 2.2208 10.8906 8.87357 19.2808
468 1 -1.1104 12.3533 10.3735 14.9091
472 2 2.2208 7.88928 11.4744 19.145
475 2 2.2208 8.00777 8.67486 16.4742
477 1 -1.1104 9.30873 10.285 17.7443
480 1 -1.1104 9.41804 10.0141 14.9536
522 1 -1.1104 12.1162 12.8617 17.6484
524 1 -1.1104 12.4182 13.0639 14.9292
533 1 -1.1104 9.2689 13.0176 17.6637
536 1 -1.1104 9.45924 13.1098 14.6736
469 1 -1.1104 12.2838 10.1411 20.5628
525 1 -1.1104 12.1173 13.2266 20.5549
537 1 -1.1104 9.33249 12.9724 20.5122
8831 2 2.2208 13.4081 17.4003 13.8023
481 1 -1.1104 9.27577 10.175 20.5598
8839 2 2.2208 13.5749 20.0616 27.6932
485 2 2.2208 4.97553 17.2543 16.2922
487 1 -1.1104 0.745131 18.5748 17.7967
492 1 -1.1104 0.961111 18.6393 14.825
498 1 -1.1104 0.924817 16.0466 17.5541
501 2 2.2208 5.41732 20.071 19.1195
502 1 -1.1104 1.21816 15.665 14.8994
507 1 -1.1104 3.76833 18.7379 17.672
508 2 2.2208 2.16028 17.2493 18.9681
511 1 -1.1104 3.84406 18.6424 14.9789
513 2 2.2208 2.23071 14.2787 16.2576
514 2 2.2208 2.32745 19.8552 16.3821
515 1 -1.1104 3.53652 15.8262 17.7261
516 1 -1.1104 3.89451 15.8459 14.879
512 1 -1.1104 3.77032 18.6752 20.5504
503 1 -1.1104 0.893034 15.8305 20.4486
496 1 -1.1104 6.59115 18.8686 14.954
489 1 -1.1104 6.55616 18.5726 17.7428
493 1 -1.1104 0.876769 18.5412 20.6396
517 1 -1.1104 3.73489 15.749 20.6308
497 1 -1.1104 6.59105 18.7076 20.455
336 2 2.2208 2.20529 3.10011 27.5385
505 1 -1.1104 6.62912 15.9525 20.8151
499 1 -1.1104 6.48756 15.7789 17.6379
504 1 -1.1104 6.62135 15.9692 14.826
529 2 2.2208 10.4975 14.4206 19.3434
532 1 -1.1104 12.0253 15.9005 20.7784
521 2 2.2208 10.5842 17.1933 16.3939
523 1 -1.1104 12.1172 18.659 17.751
526 1 -1.1104 11.8909 18.7709 14.9592
528 1 -1.1104 12.0949 15.8641 17.8719
530 2 2.2208 10.7114 20.0182 19.142
531 1 -1.1104 12.1456 15.8574 15.2262
534 1 -1.1104 9.19475 18.6302 17.9795
535 2 2.2208 8.03327 17.2793 19.2638
538 1 -1.1104 9.31566 18.7448 14.8331
540 2 2.2208 7.79422 14.4648 16.2603
541 2 2.2208 7.89159 20.0408 16.3507
542 1 -1.1104 9.38825 15.7202 17.8181
543 1 -1.1104 9.30702 15.9664 14.8461
544 1 -1.1104 9.2837 15.9991 20.6507
9039 2 2.2208 13.6254 14.2731 22.0267
539 1 -1.1104 9.5648 18.7047 20.704
527 1 -1.1104 12.3565 18.7835 20.6392
352 1 -1.1104 0.897055 -3.91707 20.7341
371 1 -1.1104 3.66758 -4.20608 20.6032
329 2 2.2208 5.20429 0.15005 27.5878
549 2 2.2208 5.22665 0.356255 21.8081
550 1 -1.1104 0.900921 -3.78897 23.6134
554 1 -1.1104 0.917197 -3.99242 26.3767
558 1 -1.1104 0.692863 -0.90148 23.5864
560 2 2.2208 5.16364 -2.50666 24.9366
562 1 -1.1104 0.967436 -1.02094 26.4502
564 1 -1.1104 3.97519 -4.03929 23.5754
566 2 2.2208 2.3137 0.219193 24.7724
567 1 -1.1104 3.70513 -3.79388 26.1361
569 2 2.2208 2.29778 -2.62538 22.0889
571 1 -1.1104 3.75459 -1.10019 23.1022
572 1 -1.1104 3.86132 -1.17458 26.2288
552 1 -1.1104 6.83432 -4.06534 23.5224
559 1 -1.1104 6.67259 -1.28352 23.4501
556 1 -1.1104 6.68384 -3.85195 26.5058
563 1 -1.1104 6.4396 -1.10905 26.0803
405 1 -1.1104 9.16547 -3.77262 20.7364
393 1 -1.1104 12.1589 -3.97785 20.6138
8973 2 2.2208 13.594 -2.61989 16.2322
344 2 2.2208 5.18886 11.5608 27.5687
9160 2 2.2208 13.5258 8.69919 22.0585
585 2 2.2208 10.7914 0.33519 21.8757
586 1 -1.1104 12.1889 -3.90919 23.3985
588 1 -1.1104 12.0416 -4.02636 26.1909
590 1 -1.1104 12.0489 -1.10644 23.2729
591 2 2.2208 10.8302 -2.59613 24.9247
593 1 -1.1104 12.2391 -0.986115 25.9997
594 1 -1.1104 9.69248 -4.05777 23.5199
596 2 2.2208 8.0033 0.279786 24.8941
597 1 -1.1104 9.43305 -4.00563 26.1911
599 2 2.2208 8.18242 -2.34965 22.1904
601 1 -1.1104 9.40914 -0.879445 23.5778
602 1 -1.1104 9.42102 -1.09829 26.56
8823 2 2.2208 13.6292 -2.45319 27.6189
8896 2 2.2208 13.5933 11.7605 24.8664
8900 2 2.2208 13.6599 0.0586977 18.9968
9013 2 2.2208 13.6522 20.0883 21.9335
8970 2 2.2208 13.4698 11.4744 19.1302
358 1 -1.1104 6.70316 1.76441 20.724
9038 2 2.2208 13.5829 14.5425 16.5578
342 2 2.2208 5.02078 5.89298 27.6248
551 1 -1.1104 0.657346 1.87491 23.2085
555 1 -1.1104 1.01399 1.80926 26.0107
561 2 2.2208 5.16272 2.97579 24.8984
565 1 -1.1104 3.70606 1.61641 23.5081
568 1 -1.1104 3.66282 1.6148 26.3342
570 2 2.2208 2.20902 3.17507 21.8153
614 2 2.2208 5.17358 5.99206 22.0586
616 1 -1.1104 1.12648 7.32858 23.5345
618 1 -1.1104 0.872912 7.10056 26.2874
620 1 -1.1104 0.925183 4.62545 23.328
625 1 -1.1104 0.994179 4.5083 26.146
629 1 -1.1104 3.81609 7.34609 23.4549
630 2 2.2208 2.46502 5.79861 24.7239
632 1 -1.1104 3.78342 7.30809 26.1957
634 1 -1.1104 3.69285 4.43308 23.3409
636 1 -1.1104 3.81074 4.28695 26.0857
557 1 -1.1104 6.51964 1.6802 26.3506
622 1 -1.1104 6.44135 4.46538 23.454
553 1 -1.1104 6.45053 1.56026 23.5241
627 1 -1.1104 6.55118 4.55607 26.2822
467 1 -1.1104 12.2459 4.42655 20.7741
334 2 2.2208 10.77 6.03095 27.5514
417 1 -1.1104 11.752 18.5672 23.451
519 1 -1.1104 6.44817 15.9685 26.2038
619 1 -1.1104 6.41743 7.45949 26.3065
617 1 -1.1104 6.57657 7.05971 23.5605
587 1 -1.1104 12.2213 1.65478 23.4874
589 1 -1.1104 12.2392 1.56779 26.4921
592 2 2.2208 10.7221 3.17243 25.0034
595 1 -1.1104 9.47758 1.82931 23.4161
598 1 -1.1104 9.22388 1.57898 26.1769
600 2 2.2208 7.86785 3.16758 22.1003
573 1 -1.1104 9.43063 7.4033 23.461
575 1 -1.1104 12.3433 4.52591 26.3442
604 1 -1.1104 12.0881 4.42099 23.5311
605 1 -1.1104 12.0553 7.45911 26.0746
607 1 -1.1104 12.3372 7.0784 23.2729
639 2 2.2208 10.7077 5.82558 22.1048
640 2 2.2208 7.81433 5.75543 24.9858
646 1 -1.1104 9.44814 4.39192 26.4884
648 1 -1.1104 9.02832 4.48545 23.6678
650 1 -1.1104 9.12042 7.29026 26.2649
9009 2 2.2208 -0.401429 8.61037 19.2226
306 2 2.2208 8.02248 14.3625 27.592
8940 2 2.2208 13.4103 -2.56847 22.0747
615 2 2.2208 5.15959 11.5554 21.9652
621 1 -1.1104 0.801698 9.94292 23.3647
624 2 2.2208 5.10024 8.86664 24.7789
626 1 -1.1104 0.917058 10.0668 26.2961
631 2 2.2208 2.2784 11.5619 24.8238
633 2 2.2208 2.06919 8.69747 22.0771
635 1 -1.1104 3.74643 10.1759 23.3499
637 1 -1.1104 3.49627 10.0741 26.1533
386 1 -1.1104 3.8205 12.8297 26.0909
420 1 -1.1104 1.1544 12.6704 23.0221
483 1 -1.1104 0.907652 13.0583 26.3807
520 1 -1.1104 3.79495 13.217 23.1781
455 1 -1.1104 6.51117 13.0763 23.2724
628 1 -1.1104 6.51261 10.2652 25.8941
545 1 -1.1104 6.63643 13.0746 26.2038
343 2 2.2208 2.38596 8.68329 27.6304
308 2 2.2208 7.96592 19.9792 27.6752
332 2 2.2208 10.6593 11.5031 27.7212
333 2 2.2208 7.86178 8.8042 27.6477
623 1 -1.1104 6.4671 10.1026 23.2308
574 1 -1.1104 12.1007 10.1539 26.2543
578 2 2.2208 10.7006 8.84554 24.8921
603 1 -1.1104 12.1609 9.92382 23.4127
638 2 2.2208 10.7475 11.4035 21.9668
644 2 2.2208 7.94495 11.4222 24.5996
645 1 -1.1104 9.29268 10.0758 26.1019
647 1 -1.1104 9.26005 10.1536 23.4417
649 2 2.2208 7.78746 8.6018 21.9927
413 1 -1.1104 12.0819 12.9262 23.2417
418 1 -1.1104 12.2192 12.7865 26.2974
583 1 -1.1104 9.32418 12.9083 23.1262
611 1 -1.1104 9.38658 12.9401 26.0656
339 2 2.2208 8.24842 -2.51798 27.7161
613 2 2.2208 8.00295 14.3768 22.0639
610 1 -1.1104 6.41267 18.7484 26.2466
482 1 -1.1104 6.61811 18.5635 23.4378
547 2 2.2208 2.25537 14.3514 21.837
546 1 -1.1104 3.80365 18.6993 23.3715
456 2 2.2208 5.03476 14.4664 24.8474
379 2 2.2208 2.43453 19.9586 21.8006
382 1 -1.1104 3.64552 15.9776 23.3775
383 1 -1.1104 0.909633 15.4465 23.2451
387 1 -1.1104 3.77108 15.706 26.2788
388 2 2.2208 2.22953 17.1019 24.7843
416 1 -1.1104 3.58576 18.5441 26.1971
419 2 2.2208 5.14651 17.1013 21.9142
421 1 -1.1104 0.807117 18.3023 23.4919
457 2 2.2208 4.85888 19.9806 24.7836
484 1 -1.1104 0.972369 16.0299 26.197
518 1 -1.1104 0.8548 18.6645 26.2071
330 2 2.2208 2.11955 20.1262 27.7984
331 2 2.2208 4.98839 17.2525 27.6276
345 2 2.2208 2.28758 14.3933 27.7413
581 2 2.2208 10.6994 20.2188 24.7952
641 2 2.2208 7.94949 20.1318 22.0126
385 1 -1.1104 6.55191 15.7002 23.4556
307 2 2.2208 10.8911 17.2348 27.6195
612 1 -1.1104 9.56547 18.5456 26.29
548 1 -1.1104 12.4903 18.4812 26.1622
606 2 2.2208 8.01618 17.3024 24.8089
642 1 -1.1104 9.46146 15.8868 23.6811
384 2 2.2208 10.7452 17.3181 22.0116
643 1 -1.1104 9.49619 15.8814 26.4485
584 1 -1.1104 9.17823 18.8411 23.3559
577 2 2.2208 10.7408 14.2893 24.8223
9040 2 2.2208 13.3414 17.2645 19.1895
9041 2 2.2208 13.4007 20.1665 16.4197
9101 2 2.2208 13.5089 2.97887 22.1045
8840 2 2.2208 13.6046 14.4973 27.6971
8810 2 2.2208 13.5469 8.79889 27.695
312 2 2.2208 5.20108 3.01097 13.7508
317 2 2.2208 2.30792 6.04876 13.7476
8825 2 2.2208 13.5568 6.08686 13.7521
651 2 2.2208 5.1016 22.912 5.00528
653 1 -1.1104 0.989779 24.3551 0.940539
654 1 -1.1104 0.913619 24.1418 3.51213
655 1 -1.1104 0.927986 21.6705 0.779847
657 2 2.2208 5.09641 25.8899 2.05437
658 1 -1.1104 1.12033 21.4975 3.5324
660 1 -1.1104 3.71225 24.2949 0.574645
661 2 2.2208 2.47646 22.9325 2.09088
663 1 -1.1104 3.67042 24.2766 3.69473
664 2 2.2208 2.29792 25.7035 4.9792
665 1 -1.1104 3.83356 21.4633 0.733128
667 1 -1.1104 3.73625 21.4607 3.54227
659 1 -1.1104 1.03755 27.0726 3.67388
674 1 -1.1104 6.55303 21.5913 0.783782
666 1 -1.1104 3.68341 27.2428 0.670854
799 1 -1.1104 3.70604 21.6114 6.51807
798 1 -1.1104 3.77253 24.3171 6.65905
656 1 -1.1104 1.04102 26.8926 0.876588
792 1 -1.1104 1.11981 24.1831 6.61885
794 1 -1.1104 0.763384 21.286 6.19602
676 1 -1.1104 6.69179 21.3906 3.45357
672 1 -1.1104 6.40284 24.4167 0.548047
797 1 -1.1104 6.4831 27.2415 6.46364
668 1 -1.1104 3.70902 27.0104 3.5946
800 1 -1.1104 3.67431 27.2382 6.50007
956 2 2.2208 5.31307 37.098 13.4195
793 1 -1.1104 6.21919 24.3052 6.49676
796 1 -1.1104 6.60346 21.5438 6.41126
673 1 -1.1104 6.40333 24.3531 3.43109
675 1 -1.1104 6.64265 27.1602 0.586995
678 2 2.2208 10.6366 23.2045 5.16552
680 1 -1.1104 12.2616 24.1943 1.08583
681 1 -1.1104 12.0027 24.432 3.82539
682 1 -1.1104 11.9831 21.4043 0.837209
684 2 2.2208 10.7786 25.8936 2.35425
685 1 -1.1104 11.909 21.6286 3.78026
687 1 -1.1104 9.43105 24.2707 0.862742
688 2 2.2208 8.09026 22.9803 2.21793
690 1 -1.1104 9.29269 24.6235 3.59007
691 2 2.2208 7.75468 25.7568 5.14165
692 1 -1.1104 9.13934 21.3504 1.00583
694 1 -1.1104 9.16135 21.7172 3.88627
693 1 -1.1104 9.34422 27.1739 1.05701
828 1 -1.1104 9.20302 24.4236 6.45158
683 1 -1.1104 12.3414 27.189 0.97819
826 1 -1.1104 12.1286 21.4563 6.49314
829 1 -1.1104 9.3627 21.519 6.44704
827 1 -1.1104 12.3142 27.2104 6.57918
830 1 -1.1104 9.40608 27.0956 6.45284
695 1 -1.1104 9.33763 27.4665 3.75085
825 1 -1.1104 12.0771 24.4567 6.45272
9546 2 2.2208 13.6279 22.9964 13.5906
795 1 -1.1104 0.722683 27.2482 6.30681
677 1 -1.1104 6.27748 27.2505 3.70835
652 2 2.2208 5.071 28.4782 5.12832
662 2 2.2208 2.43689 28.5404 2.31541
700 1 -1.1104 0.910333 29.9569 0.759998
703 1 -1.1104 1.08772 29.9683 3.59295
706 1 -1.1104 0.760358 32.8811 0.732168
707 2 2.2208 5.1371 31.4767 2.4305
709 1 -1.1104 0.959931 32.8038 3.60362
711 1 -1.1104 3.66249 29.9004 1.07882
714 1 -1.1104 3.72058 30.0495 3.97982
716 2 2.2208 2.26773 31.5624 5.04516
718 1 -1.1104 3.69232 32.6363 0.897313
719 1 -1.1104 3.69152 33.0646 3.72766
853 1 -1.1104 0.92987 32.7734 6.36835
857 1 -1.1104 4.0024 33.0189 6.63906
855 1 -1.1104 3.70979 30.2378 6.70001
849 1 -1.1104 0.890133 29.9907 6.31643
725 1 -1.1104 6.5412 32.6339 0.911049
710 1 -1.1104 6.60846 32.7741 3.73433
851 1 -1.1104 6.47898 30.0371 6.39019
686 1 -1.1104 12.305 27.1641 3.84666
724 1 -1.1104 6.72482 29.8541 3.78874
723 1 -1.1104 6.44558 29.9763 0.741017
679 2 2.2208 10.8462 28.56 5.26896
689 2 2.2208 8.02029 28.6441 2.2374
727 1 -1.1104 12.4434 29.9163 0.828218
729 1 -1.1104 12.0905 29.8475 3.50816
731 1 -1.1104 12.1981 32.7188 0.7368
732 2 2.2208 10.8621 31.2856 2.16236
734 1 -1.1104 12.1453 32.5866 3.73353
735 1 -1.1104 9.47396 30.0466 0.664769
738 1 -1.1104 9.22351 30.203 3.49094
740 2 2.2208 7.92665 31.3793 5.07506
742 1 -1.1104 9.46996 32.8466 0.978721
743 1 -1.1104 9.51148 32.8118 3.6385
883 1 -1.1104 12.2013 29.9575 6.73266
854 1 -1.1104 6.61724 32.8888 6.42541
886 1 -1.1104 9.3674 29.9631 6.47577
888 1 -1.1104 9.60702 32.7126 6.63291
885 1 -1.1104 12.4497 32.8699 6.25418
959 2 2.2208 10.816 31.4796 13.6721
699 2 2.2208 5.31629 34.2633 5.09856
701 1 -1.1104 0.951145 35.5421 0.79626
704 1 -1.1104 1.14296 35.4651 3.76434
708 2 2.2208 5.29658 37.0327 2.1577
712 1 -1.1104 3.8133 35.5765 0.669743
713 2 2.2208 2.5033 34.1552 2.18748
715 1 -1.1104 3.94317 35.7939 3.56994
717 2 2.2208 2.32698 37.0109 5.1744
745 2 2.2208 5.35481 39.8717 5.07772
751 1 -1.1104 0.928196 38.4854 0.853124
756 1 -1.1104 0.884639 38.4979 3.51808
761 2 2.2208 2.3405 39.6384 2.16563
765 1 -1.1104 3.58775 38.2773 0.808076
767 1 -1.1104 3.97181 38.5635 3.55867
705 1 -1.1104 6.76032 35.7825 3.68421
702 1 -1.1104 6.49654 35.4256 0.954598
753 1 -1.1104 6.38969 38.2525 0.584192
923 1 -1.1104 0.984134 38.3709 6.39756
856 1 -1.1104 3.69267 35.7004 6.46626
850 1 -1.1104 0.882814 35.6771 6.5351
928 1 -1.1104 6.58345 41.0472 9.25669
929 1 -1.1104 3.95382 38.5441 6.21338