ITEM: TIMESTEP
50000
ITEM: NUMBER OF ATOMS
17730
ITEM: BOX BOUNDS pp pp pp
-4.2785909884867529e-01 2.7767859098848430e+01
-5.1797110041604517e+00 3.3325971100416228e+02
-4.4104369906591789e-01 2.7781043699066288e+01
ITEM: ATOMS id type q x y z
1 2 2.2208 5.25393 0.363049 5.2702
2 1 -1.1104 1.19393 -3.57265 0.893941
6 1 -1.1104 0.818288 -4.02889 3.68869
10 1 -1.1104 1.01182 -0.812238 1.03429
12 2 2.2208 5.38366 -2.38288 2.39218
14 1 -1.1104 0.968878 -1.10324 3.80136
16 1 -1.1104 3.81296 -3.56226 1.24479
18 2 2.2208 2.47983 0.555255 2.4962
19 1 -1.1104 3.48207 -3.85191 3.76715
21 2 2.2208 2.38106 -2.38454 5.20014
23 1 -1.1104 3.58889 -0.651748 1.06978
24 1 -1.1104 4.07615 -0.970841 3.65029
319 2 2.2208 2.28109 11.793 13.5737
170 1 -1.1104 0.990799 -0.871001 6.57
4 1 -1.1104 6.58558 -3.88058 0.880946
11 1 -1.1104 6.62258 -1.17695 0.963491
8 1 -1.1104 6.40797 -3.69282 3.87064
8802 2 2.2208 -0.34681 17.2885 10.7914
171 1 -1.1104 6.75853 -0.964493 6.67803
8807 2 2.2208 13.4749 -5.12786 8.02957
15 1 -1.1104 6.78556 -1.04855 3.80081
31 2 2.2208 10.941 0.41681 5.12752
32 1 -1.1104 12.3587 -3.77741 1.08081
34 1 -1.1104 12.0305 -3.72558 3.86714
36 1 -1.1104 12.3288 -0.953668 1.01663
37 2 2.2208 10.9329 -2.3926 2.21766
39 1 -1.1104 12.1706 -1.00065 3.73045
40 1 -1.1104 9.56877 -3.98407 1.18176
42 2 2.2208 8.18848 0.419698 2.5178
43 1 -1.1104 9.1821 -3.70922 3.85051
45 2 2.2208 8.12625 -2.2559 5.39593
47 1 -1.1104 9.44776 -1.03552 0.853301
48 1 -1.1104 9.56232 -1.08026 3.9059
335 2 2.2208 2.43706 -2.21528 -0.324531
8789 2 2.2208 -0.315813 6.04401 4.95028
312 2 2.2208 5.04311 3.39119 13.5583
208 1 -1.1104 9.24697 -3.97839 6.50419
29 2 2.2208 5.02798 -5.15686 5.17156
8784 2 2.2208 -0.380655 3.25806 2.2603
3 1 -1.1104 1.05721 1.98613 0.894287
7 1 -1.1104 0.900676 1.93739 3.82825
13 2 2.2208 5.36726 3.41517 2.34014
17 1 -1.1104 3.74228 1.91491 0.90457
20 1 -1.1104 3.84046 2.15404 3.63746
22 2 2.2208 2.49522 3.2762 5.19355
54 2 2.2208 5.41014 6.21418 5.30384
60 1 -1.1104 1.11876 4.9515 0.760506
67 1 -1.1104 1.04873 4.48698 3.62939
71 1 -1.1104 3.87786 7.43543 0.946486
72 2 2.2208 2.53451 6.02431 2.43504
76 1 -1.1104 3.83714 4.70536 0.994661
79 1 -1.1104 3.921 4.88424 3.78461
58 1 -1.1104 1.04564 7.44137 3.72269
74 1 -1.1104 3.75314 7.52257 4.03318
56 1 -1.1104 1.01018 7.49359 0.978394
239 1 -1.1104 3.91565 4.5551 6.65892
167 1 -1.1104 0.962166 1.80975 6.87269
238 1 -1.1104 3.86932 7.36758 6.82178
236 1 -1.1104 0.976283 4.61685 6.48892
9 1 -1.1104 6.73705 1.75899 3.63283
63 1 -1.1104 6.70069 4.94773 0.774139
322 2 2.2208 8.16764 11.8404 13.5351
8711 2 2.2208 -0.305783 6.1707 10.844
173 1 -1.1104 3.83191 1.72449 6.45135
169 1 -1.1104 6.63672 1.82709 6.40156
57 1 -1.1104 6.71864 7.55312 0.995567
69 1 -1.1104 6.92713 4.79451 3.68753
5 1 -1.1104 6.71182 1.94334 1.08837
59 1 -1.1104 6.5779 7.54618 3.7945
33 1 -1.1104 12.4654 1.77898 0.940174
35 1 -1.1104 12.2715 1.982 3.88141
38 2 2.2208 11.0422 3.36181 2.46965
41 1 -1.1104 9.84053 1.54673 1.21558
44 1 -1.1104 9.5864 1.82582 4.05947
46 2 2.2208 8.06252 3.33815 5.11292
84 2 2.2208 10.709 5.9734 5.1204
87 1 -1.1104 12.3851 7.11154 3.96859
88 1 -1.1104 12.3456 4.6833 1.19298
92 1 -1.1104 12.3907 4.64557 3.81541
94 1 -1.1104 9.74971 7.46959 0.889008
95 2 2.2208 8.0541 6.1304 2.18117
97 1 -1.1104 9.47748 7.45437 3.59857
99 1 -1.1104 9.41585 4.44757 1.05366
102 1 -1.1104 9.60156 4.60375 3.80526
86 1 -1.1104 12.4553 7.4539 1.28888
8806 2 2.2208 13.5746 -2.48546 10.7559
330 2 2.2208 2.3466 20.1611 -0.312978
237 1 -1.1104 6.60417 4.70608 6.80735
206 1 -1.1104 12.5312 1.86795 6.57241
8831 2 2.2208 13.6373 17.2483 13.3329
202 2 2.2208 2.21764 -5.18339 8.03925
55 2 2.2208 5.05037 11.6043 5.22592
61 1 -1.1104 1.04819 10.4509 0.821628
66 2 2.2208 5.36515 8.91076 2.3088
68 1 -1.1104 0.888466 10.3434 3.59749
73 2 2.2208 2.43901 11.8623 2.34915
75 2 2.2208 2.38707 8.78589 5.20728
77 1 -1.1104 3.80083 10.3832 0.83943
80 1 -1.1104 3.80199 10.1578 3.77251
107 1 -1.1104 0.926372 13.0898 0.879557
113 1 -1.1104 0.992665 13.0809 3.76427
123 1 -1.1104 4.05261 13.1835 0.945425
128 1 -1.1104 3.86996 13.0474 3.78706
62 1 -1.1104 0.86528 10.245 6.24779
64 1 -1.1104 6.56209 10.3294 0.929314
328 2 2.2208 8.10178 17.1976 13.53
49 1 -1.1104 12.1731 18.9916 9.44102
124 1 -1.1104 3.74667 13.1172 6.58946
78 1 -1.1104 3.51053 10.1956 6.75243
108 1 -1.1104 0.832255 12.9621 6.70389
8790 2 2.2208 -0.307167 8.82852 2.40782
70 1 -1.1104 6.69861 10.4147 3.63489
115 1 -1.1104 6.59839 13.1302 3.61549
110 1 -1.1104 6.6754 13.1866 0.931846
85 2 2.2208 10.9928 11.5171 5.02801
89 1 -1.1104 12.2785 10.2396 0.965173
91 2 2.2208 10.9998 8.87469 2.31335
93 1 -1.1104 12.2676 10.2457 3.78358
96 2 2.2208 8.14217 11.6721 2.20836
98 2 2.2208 8.00251 8.97352 5.14969
100 1 -1.1104 9.64048 10.3716 0.881009
103 1 -1.1104 9.40301 10.3052 3.67718
142 1 -1.1104 12.5623 12.9775 0.889182
146 1 -1.1104 12.3566 12.9829 3.6878
153 1 -1.1104 9.56227 13.1138 1.11553
158 1 -1.1104 9.33396 13.0806 3.76036
90 1 -1.1104 12.0445 10.0259 6.62201
8800 2 2.2208 -0.248236 0.486549 10.7155
8835 2 2.2208 -0.433714 -2.26291 13.6706
308 2 2.2208 8.11522 20.1071 -0.356421
325 2 2.2208 5.28839 14.4936 13.5927
106 2 2.2208 5.31564 17.2807 5.26915
109 1 -1.1104 1.00615 18.7905 0.828526
114 1 -1.1104 1.12738 19.0036 3.77031
116 1 -1.1104 1.04348 15.977 0.900776
119 2 2.2208 5.24764 14.4858 2.3733
120 2 2.2208 5.19773 20.0737 2.59521
121 1 -1.1104 0.88837 15.7564 3.67537
125 1 -1.1104 3.73249 18.7578 1.0793
127 2 2.2208 2.4858 17.3034 2.39984
129 1 -1.1104 3.86262 18.5139 3.88464
130 2 2.2208 2.29484 14.5648 5.16343
131 2 2.2208 2.45814 20.2203 5.17947
132 1 -1.1104 3.864 15.9059 0.999567
134 1 -1.1104 3.81218 15.8295 3.65824
133 1 -1.1104 3.71569 15.7585 6.41363
122 1 -1.1104 6.85369 16.0123 4.04755
288 1 -1.1104 6.61987 18.6917 9.6559
8812 2 2.2208 13.622 0.434849 13.5562
136 1 -1.1104 9.42865 18.8023 9.40163
140 1 -1.1104 6.78785 16.0709 0.858524
139 1 -1.1104 6.52658 18.6156 3.86984
138 1 -1.1104 6.76808 18.7625 1.25208
112 1 -1.1104 6.68117 18.8299 6.58147
150 2 2.2208 10.7608 14.4398 2.44096
141 2 2.2208 10.9917 17.362 5.1136
144 1 -1.1104 12.263 18.5181 0.859799
147 1 -1.1104 12.5638 18.6959 3.73555
148 1 -1.1104 12.1655 15.8197 1.02451
151 2 2.2208 11.0561 19.9155 2.35597
152 1 -1.1104 12.4973 15.8407 3.75458
155 1 -1.1104 9.66368 18.7137 0.945123
157 2 2.2208 8.08524 17.3969 2.46496
159 1 -1.1104 9.68935 18.8744 3.87442
160 2 2.2208 7.89831 14.4078 5.38621
161 2 2.2208 8.27035 20.2161 5.19743
162 1 -1.1104 9.52923 15.7344 1.02457
164 1 -1.1104 9.58475 15.9106 3.93155
156 1 -1.1104 9.48491 18.9144 6.56547
145 1 -1.1104 12.3039 18.7251 6.69832
334 2 2.2208 11.114 6.08488 -0.384926
8693 2 2.2208 13.6211 11.6994 8.05371
8847 2 2.2208 -0.307225 14.5915 13.3245
168 1 -1.1104 6.6653 -4.00453 6.68184
166 1 -1.1104 0.909109 -3.68356 6.6841
163 1 -1.1104 9.27132 16.084 6.69598
172 1 -1.1104 3.80604 -3.81993 6.73317
174 1 -1.1104 3.7797 -1.03112 6.69876
175 2 2.2208 5.26296 0.356304 10.8658
176 1 -1.1104 0.998461 -3.74198 12.5889
180 1 -1.1104 0.869514 -3.71547 9.72162
184 1 -1.1104 0.984596 -0.865926 12.4846
186 2 2.2208 5.26046 -2.53943 7.97677
188 1 -1.1104 1.14532 -0.891533 9.38984
190 1 -1.1104 3.72522 -3.54923 12.3355
192 2 2.2208 2.50905 0.47204 7.98327
193 1 -1.1104 3.88543 -3.98492 9.39727
195 2 2.2208 2.4995 -2.27928 10.8213
197 1 -1.1104 3.74646 -0.861546 12.2253
198 1 -1.1104 3.89942 -1.15477 9.36156
165 2 2.2208 8.17919 20.143 10.8756
189 1 -1.1104 6.62448 -1.13271 9.45817
185 1 -1.1104 6.52972 -0.823661 12.3778
178 1 -1.1104 6.51126 -3.68681 12.3074
296 1 -1.1104 6.82129 18.6957 12.4904
210 1 -1.1104 9.67148 -1.06959 6.76771
8799 2 2.2208 -0.452301 -2.2913 8.11199
207 1 -1.1104 12.288 -1.03911 6.55175
205 1 -1.1104 11.9109 -3.805 6.62816
182 1 -1.1104 6.46563 -4.05365 9.43383
211 2 2.2208 10.8349 0.467763 10.6924
212 1 -1.1104 12.4126 -4.16723 12.2085
214 1 -1.1104 12.0585 -3.78241 9.59903
216 1 -1.1104 12.3426 -1.25871 12.0768
217 2 2.2208 10.7079 -2.44193 8.07457
219 1 -1.1104 12.0875 -0.906124 9.43787
220 1 -1.1104 9.29191 -3.97517 12.2736
222 2 2.2208 8.07466 0.441485 7.99448
223 1 -1.1104 9.3049 -3.6471 9.27467
225 2 2.2208 7.91862 -2.38648 10.974
227 1 -1.1104 9.44757 -1.122 12.3169
228 1 -1.1104 9.29257 -1.03998 9.31566
104 1 -1.1104 9.54559 18.7472 12.3225
137 2 2.2208 7.96788 14.5588 10.7062
234 1 -1.1104 1.09457 7.45865 6.49058
235 1 -1.1104 6.60875 7.40035 6.7696
177 1 -1.1104 1.35311 1.9554 12.4241
181 1 -1.1104 1.08031 1.81336 9.4504
187 2 2.2208 5.3192 3.24461 8.028
191 1 -1.1104 3.96753 1.88143 12.1619
194 1 -1.1104 3.9272 1.84822 9.24858
196 2 2.2208 2.52018 3.34623 10.5955
240 2 2.2208 5.35792 6.01469 10.6351
242 1 -1.1104 0.894447 7.54766 12.3132
244 1 -1.1104 1.02205 7.39092 9.32636
246 1 -1.1104 1.07541 4.95326 12.0613
251 1 -1.1104 1.03936 4.64297 9.31515
255 1 -1.1104 3.86743 7.47864 12.0927
256 2 2.2208 2.4035 5.95648 7.91559
258 1 -1.1104 3.87007 7.29215 9.45182
260 1 -1.1104 3.97403 4.72647 12.1333
262 1 -1.1104 3.76315 4.66452 9.25266
183 1 -1.1104 6.83825 1.51598 9.46677
81 2 2.2208 10.7168 20.2891 8.05715
8795 2 2.2208 -0.232766 20.0597 2.32615
269 1 -1.1104 9.45646 4.77468 6.6945
265 1 -1.1104 12.1446 7.36325 6.6947
53 2 2.2208 10.8009 14.6812 7.84189
27 1 -1.1104 12.2957 18.8758 11.9722
253 1 -1.1104 6.48676 4.35254 9.42331
243 1 -1.1104 6.74457 7.47239 12.1385
267 1 -1.1104 9.36871 7.50518 6.53611
209 1 -1.1104 9.6022 2.13288 6.67198
245 1 -1.1104 6.6617 7.48501 9.34842
266 1 -1.1104 12.2183 4.61402 6.47609
179 1 -1.1104 6.67542 1.77251 12.3581
248 1 -1.1104 6.74037 4.74546 12.0346
213 1 -1.1104 12.508 1.83569 12.0366
215 1 -1.1104 12.3227 1.93574 9.37775
218 2 2.2208 11.1665 3.23408 8.02904
221 1 -1.1104 9.56966 1.80191 12.1983
224 1 -1.1104 9.47115 1.93892 9.48452
226 2 2.2208 8.08254 3.21436 10.8601
268 1 -1.1104 9.28291 4.63768 9.62717
271 1 -1.1104 9.41907 4.82594 12.4013
273 1 -1.1104 9.50532 7.36843 9.44169
275 2 2.2208 8.04864 6.00841 8.19299
276 2 2.2208 10.8648 6.21194 10.9834
278 1 -1.1104 12.2521 7.60319 12.2463
279 1 -1.1104 12.3982 7.64768 9.37083
280 1 -1.1104 12.2353 4.79932 12.1204
283 1 -1.1104 12.2309 4.90157 9.39369
285 1 -1.1104 9.3874 7.67612 12.2133
149 1 -1.1104 12.259 15.8688 6.52834
241 2 2.2208 5.31116 11.6242 10.8995
247 1 -1.1104 0.962546 10.4234 12.252
250 2 2.2208 5.14078 8.84369 8.00894
252 1 -1.1104 1.02547 10.2474 9.28374
257 2 2.2208 2.27901 11.6593 8.05821
259 2 2.2208 2.55919 8.86064 10.9618
261 1 -1.1104 3.80288 10.2763 12.3722
263 1 -1.1104 3.96247 10.1876 9.36576
287 1 -1.1104 4.00116 13.1174 12.1489
294 1 -1.1104 0.950444 13.0745 9.35229
299 1 -1.1104 0.939591 13.0936 11.8578
305 1 -1.1104 3.7217 13.1325 9.35722
249 1 -1.1104 6.8241 10.5133 12.1418
111 1 -1.1104 6.529 12.7527 6.73313
318 2 2.2208 5.25405 8.97189 13.46
199 1 -1.1104 9.42487 16.054 12.141
105 2 2.2208 8.04059 17.563 7.95149
290 1 -1.1104 6.48385 13.0211 9.44668
65 1 -1.1104 6.41405 10.0663 6.40861
143 1 -1.1104 12.3247 12.8676 6.53608
154 1 -1.1104 9.52745 13.2823 6.53682
297 1 -1.1104 6.87546 13.1897 12.0123
254 1 -1.1104 6.59896 9.88887 9.48725
101 1 -1.1104 9.33376 10.2168 6.45567
264 1 -1.1104 9.40103 10.3028 9.33666
270 1 -1.1104 9.62691 10.3783 12.245
272 2 2.2208 8.22211 8.99709 10.8228
274 2 2.2208 8.05312 11.5882 7.9801
277 2 2.2208 10.8194 11.8317 10.7846
281 1 -1.1104 12.2097 10.4963 12.2251
282 2 2.2208 10.7585 8.78753 8.06746
284 1 -1.1104 12.291 10.4675 9.59179
135 1 -1.1104 9.38427 13.1182 9.41239
26 1 -1.1104 12.6703 13.2436 12.3308
30 1 -1.1104 12.0567 13.6341 9.60011
83 1 -1.1104 9.71628 13.1415 12.2514
327 2 2.2208 11.0797 14.474 13.4952
126 1 -1.1104 3.80025 18.6529 6.48724
329 2 2.2208 5.17518 0.5116 -0.394357
289 1 -1.1104 6.53536 16.0564 9.50677
302 1 -1.1104 0.948189 18.7059 6.53665
117 1 -1.1104 1.01443 15.9334 6.58544
201 2 2.2208 2.44526 14.504 10.7195
295 2 2.2208 4.96119 14.4929 8.18718
204 2 2.2208 2.36621 20.2436 10.8803
229 1 -1.1104 3.79357 15.7604 12.087
230 1 -1.1104 1.06615 15.9127 12.2733
286 1 -1.1104 3.96575 18.7961 12.5077
291 1 -1.1104 1.04129 18.9197 9.3228
292 1 -1.1104 1.04273 16.1157 9.4039
293 2 2.2208 5.12489 20.0865 8.06222
298 1 -1.1104 1.04943 18.8236 12.1542
300 2 2.2208 5.23695 17.2926 10.9592
301 1 -1.1104 3.76958 18.7251 9.18869
303 2 2.2208 2.50872 17.35 7.92829
304 1 -1.1104 3.8759 16.0283 9.57523
200 1 -1.1104 9.37654 15.9481 9.41732
82 1 -1.1104 12.3536 16.1121 9.1061
233 1 -1.1104 6.49922 15.816 12.3064
25 2 2.2208 10.886 17.3648 10.5635
50 1 -1.1104 12.3329 16.0102 11.8762
118 1 -1.1104 6.48055 15.9813 6.85517
8780 2 2.2208 -0.245266 -2.37337 2.38564
8692 2 2.2208 13.6332 6.02643 7.79089
317 2 2.2208 2.29234 6.151 13.5845
8710 2 2.2208 -0.441641 8.84468 7.91664
8796 2 2.2208 -0.40509 17.3522 5.20032
320 2 2.2208 7.89757 6.24425 13.5742
340 2 2.2208 8.20601 3.18685 -0.368315
8828 2 2.2208 -0.451952 0.498658 -0.323781
342 2 2.2208 5.18679 6.12831 -0.406917
323 2 2.2208 2.31409 17.4177 13.4855
8825 2 2.2208 13.6294 5.99028 13.5896
339 2 2.2208 8.03967 -2.361 -0.436759
331 2 2.2208 5.45068 17.2304 -0.358261
316 2 2.2208 10.861 3.37621 13.5522
310 2 2.2208 5.09507 -2.30915 13.6094
346 2 2.2208 5.16456 0.42299 16.6151
347 1 -1.1104 1.00102 -3.67358 18.0327
351 1 -1.1104 0.865017 -3.8878 15.1137
359 1 -1.1104 0.943855 -1.02467 17.8592
361 2 2.2208 5.09231 -2.45086 19.2328
363 1 -1.1104 0.966884 -0.952564 15.1738
367 1 -1.1104 3.88344 -3.79026 17.9853
369 2 2.2208 2.26866 0.341003 19.3577
370 1 -1.1104 3.90341 -3.92874 15.0902
374 2 2.2208 2.28199 -2.42123 16.6795
376 1 -1.1104 3.66382 -1.07032 17.9941
377 1 -1.1104 4.06579 -1.04718 15.3226
378 1 -1.1104 3.44399 -1.00529 20.7887
355 1 -1.1104 6.64986 -3.90124 14.9624
360 1 -1.1104 6.57348 -0.996545 17.9251
364 1 -1.1104 0.900634 -0.938301 20.7016
371 1 -1.1104 3.58492 -3.9478 20.8672
349 1 -1.1104 6.53712 -3.75995 17.8941
352 1 -1.1104 0.764027 -3.67547 20.8531
365 1 -1.1104 6.62758 -0.954645 15.0906
8822 2 2.2208 -0.294594 3.29797 13.6492
580 2 2.2208 2.54977 -5.0368 25.1896
389 2 2.2208 10.9166 0.595415 16.7068
390 1 -1.1104 12.2105 -3.79507 18.0112
392 1 -1.1104 12.2348 -3.91237 14.9619
396 1 -1.1104 12.2394 -0.912886 18.0789
397 2 2.2208 10.8211 -2.33692 19.2554
399 1 -1.1104 12.2457 -1.10168 15.1631
401 1 -1.1104 9.29508 -3.80894 17.8902
403 2 2.2208 7.88022 0.288795 19.3297
404 1 -1.1104 9.58384 -3.62458 14.9853
408 2 2.2208 7.90856 -2.46928 16.4281
410 1 -1.1104 9.3631 -0.829328 17.7874
411 1 -1.1104 9.59814 -0.732705 15.0583
606 2 2.2208 7.99657 17.2418 25.059
9081 2 2.2208 -0.380031 17.1708 16.4685
393 1 -1.1104 12.1632 -3.71528 20.717
326 2 2.2208 10.9008 20.1786 13.5983
608 2 2.2208 10.8496 -5.17085 22.2371
324 2 2.2208 5.26779 20.2294 13.7177
579 2 2.2208 5.04624 -4.99166 22.3256
348 1 -1.1104 0.976826 1.87769 18.0957
353 1 -1.1104 1.04144 1.95248 15.1996
362 2 2.2208 5.35224 3.07863 19.339
368 1 -1.1104 3.7652 1.79085 17.9122
372 1 -1.1104 3.78703 1.86428 15.1069
375 2 2.2208 2.35515 3.34507 16.4571
422 2 2.2208 5.14257 5.98194 16.3604
426 1 -1.1104 1.12376 7.41847 15.1512
430 1 -1.1104 1.11942 4.81244 17.8842
435 1 -1.1104 0.856623 4.44701 15.1007
443 1 -1.1104 3.81016 7.35118 17.8171
444 2 2.2208 2.5023 5.96324 19.35
446 1 -1.1104 3.93794 7.51476 14.8409
449 1 -1.1104 3.98947 4.4498 18.0232
451 1 -1.1104 3.58198 4.76703 14.9601
424 1 -1.1104 0.758596 7.51601 17.7102
439 1 -1.1104 6.29662 4.6026 14.9274
354 1 -1.1104 0.9616 1.78978 21.0192
9101 2 2.2208 13.5971 3.27854 22.2246
357 1 -1.1104 6.72691 1.97869 14.9462
350 1 -1.1104 6.5177 1.80697 17.7859
452 1 -1.1104 3.82378 4.5796 20.7447
440 1 -1.1104 6.53422 4.48449 20.8342
8898 2 2.2208 -0.231731 20.1733 25.009
425 1 -1.1104 6.62208 7.55896 17.745
432 1 -1.1104 6.65269 4.62603 17.7112
428 1 -1.1104 6.63852 7.45171 15.0011
391 1 -1.1104 12.263 1.77396 18.1245
394 1 -1.1104 12.266 1.94497 15.1301
398 2 2.2208 10.8158 3.29442 19.252
402 1 -1.1104 9.42038 1.90209 17.7288
406 1 -1.1104 9.4871 2.17049 15.0957
409 2 2.2208 8.07365 3.33791 16.3542
458 2 2.2208 10.8107 6.30857 16.6854
460 1 -1.1104 12.2869 7.34274 17.9972
461 1 -1.1104 12.1534 7.67712 15.2707
463 1 -1.1104 12.1673 4.50572 17.8098
466 1 -1.1104 12.0699 4.74421 14.8975
470 1 -1.1104 9.39005 7.4219 18.1786
471 2 2.2208 7.81104 5.93325 19.3778
473 1 -1.1104 9.47987 7.86211 15.1454
476 1 -1.1104 9.4541 4.70611 17.7723
478 1 -1.1104 9.27209 5.06025 15.0166
479 1 -1.1104 9.46276 4.56437 20.6841
407 1 -1.1104 9.47451 1.93701 20.6567
467 1 -1.1104 12.2854 4.5601 20.7554
395 1 -1.1104 12.3213 1.80375 20.8936
429 1 -1.1104 6.56522 7.48524 20.6495
423 2 2.2208 5.33833 11.6875 16.3118
431 1 -1.1104 1.11777 10.3817 17.9359
434 2 2.2208 5.26873 8.86517 19.2616
437 1 -1.1104 1.00569 10.404 14.9818
445 2 2.2208 2.47073 11.8175 19.1963
448 2 2.2208 2.60438 8.85848 16.3174
450 1 -1.1104 3.85766 10.0818 17.8863
453 1 -1.1104 3.91598 10.366 14.9935
486 1 -1.1104 1.24468 13.0551 17.7302
490 1 -1.1104 1.07283 13.2987 14.799
506 1 -1.1104 3.8719 12.9591 17.8278
509 1 -1.1104 3.76613 12.9687 14.9395
510 1 -1.1104 3.86515 13.2524 20.6715
438 1 -1.1104 1.13526 9.98304 20.8006
454 1 -1.1104 3.8961 10.4299 20.5823
8937 2 2.2208 -0.295857 3.34743 19.2169
9009 2 2.2208 -0.286144 8.94181 19.2723
380 2 2.2208 5.17747 -5.11673 16.3579
442 1 -1.1104 6.65898 10.4576 20.5793
495 1 -1.1104 6.76197 13.0031 20.6205
441 1 -1.1104 6.64748 10.1164 15.0038
433 1 -1.1104 6.71349 10.5046 17.861
488 1 -1.1104 6.71809 13.2505 17.6121
494 1 -1.1104 6.50264 13.0458 14.8946
459 2 2.2208 10.8501 11.6783 16.4706
464 1 -1.1104 12.4334 10.2557 17.7924
465 2 2.2208 10.9498 8.8129 19.4221
468 1 -1.1104 12.4383 10.5147 15.0113
472 2 2.2208 8.13486 11.7985 19.187
475 2 2.2208 7.98209 8.89046 16.5813
477 1 -1.1104 9.41787 10.1952 17.9077
480 1 -1.1104 9.46364 10.5868 14.9726
522 1 -1.1104 12.3191 12.82 17.8227
524 1 -1.1104 12.4271 13.2631 15.0464
533 1 -1.1104 9.50576 12.9818 17.8469
536 1 -1.1104 9.44816 13.2944 14.7797
481 1 -1.1104 9.70677 10.2443 20.6994
307 2 2.2208 10.934 17.2822 27.6668
8966 2 2.2208 -0.50411 3.32495 24.8374
537 1 -1.1104 9.50594 13.04 20.7413
8973 2 2.2208 13.5911 -2.34625 16.6454
500 2 2.2208 5.24023 14.6738 19.1576
485 2 2.2208 5.26779 17.3514 16.4291
487 1 -1.1104 0.921168 18.742 17.8754
492 1 -1.1104 1.22291 18.9845 14.905
498 1 -1.1104 0.985395 15.803 17.7825
501 2 2.2208 5.40308 20.1646 19.2237
502 1 -1.1104 0.975319 15.9312 15.0227
507 1 -1.1104 3.70715 18.7089 17.8234
508 2 2.2208 2.36009 17.2924 19.3508
511 1 -1.1104 3.94256 18.8822 15.2238
513 2 2.2208 2.294 14.5347 16.2846
514 2 2.2208 2.47419 20.269 16.4809
515 1 -1.1104 4.00171 15.745 17.5072
516 1 -1.1104 3.77462 15.8601 14.9316
493 1 -1.1104 1.17199 18.8527 20.6544
503 1 -1.1104 0.992245 15.8364 20.6708
517 1 -1.1104 3.77594 15.9932 20.5692
512 1 -1.1104 3.79841 18.7116 20.6733
489 1 -1.1104 6.69976 18.8139 17.9671
504 1 -1.1104 6.778 15.8641 15.0256
9013 2 2.2208 13.6636 20.0676 22.0409
9188 2 2.2208 -0.334154 5.95546 21.9432
496 1 -1.1104 6.72496 18.6607 14.9908
499 1 -1.1104 6.73873 15.9403 17.7864
529 2 2.2208 10.772 14.2833 19.2863
521 2 2.2208 10.7987 17.2707 16.3741
523 1 -1.1104 12.2885 18.4901 17.6847
526 1 -1.1104 12.5095 18.6193 14.713
528 1 -1.1104 12.1694 15.7525 17.8623
530 2 2.2208 10.8672 19.9759 19.5277
531 1 -1.1104 12.2887 15.9188 14.8608
534 1 -1.1104 9.61685 18.5176 18.0068
535 2 2.2208 8.31646 17.2027 19.3243
538 1 -1.1104 9.48187 18.5385 15.1695
540 2 2.2208 8.02 14.4475 16.3167
541 2 2.2208 8.05443 19.9961 16.3965
542 1 -1.1104 9.3228 15.7864 17.8939
543 1 -1.1104 9.6544 15.7197 14.9023
539 1 -1.1104 9.534 18.5908 20.876
532 1 -1.1104 12.1807 15.7617 20.7209
366 1 -1.1104 6.19109 -0.97078 20.6171
613 2 2.2208 8.1762 14.5077 22.0687
314 2 2.2208 8.14709 0.423583 13.6668
8900 2 2.2208 13.685 0.437917 19.5725
527 1 -1.1104 12.2922 18.4432 20.6834
642 1 -1.1104 9.4848 15.7107 23.6726
549 2 2.2208 5.12119 0.463164 22.1716
550 1 -1.1104 1.14245 -3.7204 23.7696
554 1 -1.1104 1.05002 -3.62138 26.4022
558 1 -1.1104 0.986581 -0.896002 23.5686
560 2 2.2208 5.28286 -2.3033 25.1232
562 1 -1.1104 1.15938 -0.830514 26.3923
564 1 -1.1104 3.85979 -3.84009 23.7807
566 2 2.2208 2.41293 0.582231 25.0129
567 1 -1.1104 3.88627 -3.74465 26.6532
569 2 2.2208 2.34266 -2.26037 22.2089
571 1 -1.1104 3.86035 -1.0197 23.5295
572 1 -1.1104 3.9623 -0.761887 26.4661
559 1 -1.1104 6.54062 -1.18604 23.6147
356 1 -1.1104 6.51531 -3.73385 20.7095
563 1 -1.1104 6.76418 -0.840878 26.5293
552 1 -1.1104 6.73641 -3.86475 23.4952
405 1 -1.1104 9.45007 -3.78 20.774
336 2 2.2208 2.34051 3.3464 27.7732
556 1 -1.1104 6.79092 -3.82595 26.2858
400 1 -1.1104 12.1394 -0.92201 20.829
412 1 -1.1104 9.08958 -1.03908 20.6043
585 2 2.2208 10.6892 0.489979 22.303
586 1 -1.1104 12.3373 -3.83494 23.5932
588 1 -1.1104 12.0214 -3.90241 26.331
590 1 -1.1104 12.3218 -1.13786 23.569
591 2 2.2208 10.8695 -2.30753 24.9395
593 1 -1.1104 12.3142 -0.999053 26.4176
594 1 -1.1104 9.44987 -4.04773 23.5337
596 2 2.2208 8.0063 0.361381 25.0036
597 1 -1.1104 9.49354 -3.86889 26.6904
599 2 2.2208 7.8518 -2.39996 22.117
601 1 -1.1104 9.49189 -1.1202 23.5809
602 1 -1.1104 9.40107 -1.04067 26.2356
9038 2 2.2208 13.6678 14.3676 16.5837
9041 2 2.2208 13.5483 19.9941 16.3427
436 1 -1.1104 1.09783 4.50624 20.5606
584 1 -1.1104 9.49004 18.3741 23.7306
373 1 -1.1104 3.89274 1.89479 20.6545
447 1 -1.1104 3.66993 7.49178 20.6886
427 1 -1.1104 1.25142 7.23659 20.558
551 1 -1.1104 1.06181 2.02291 23.6915
555 1 -1.1104 0.817817 1.80128 26.5297
561 2 2.2208 5.37098 3.11608 24.9336
565 1 -1.1104 3.99259 1.85164 23.2958
568 1 -1.1104 3.73055 2.00301 26.4092
570 2 2.2208 2.53451 3.20012 22.1984
614 2 2.2208 5.41077 5.92393 22.2663
616 1 -1.1104 1.4052 7.86336 23.5778
618 1 -1.1104 1.17483 7.46979 26.5643
620 1 -1.1104 1.31946 4.97779 23.2053
625 1 -1.1104 0.992471 4.5925 26.1881
629 1 -1.1104 4.11631 7.44242 23.4917
630 2 2.2208 2.48223 6.13554 24.9124
634 1 -1.1104 4.09111 4.57781 23.7166
636 1 -1.1104 3.75977 4.75572 26.5287
622 1 -1.1104 6.79825 4.56543 23.5018
358 1 -1.1104 6.67865 1.72561 20.7546
619 1 -1.1104 6.69999 7.47535 26.2994
617 1 -1.1104 6.86716 7.37569 23.364
8938 2 2.2208 -0.230718 8.8932 24.748
632 1 -1.1104 3.80775 7.71033 26.2817
344 2 2.2208 5.28709 11.6593 27.7251
462 1 -1.1104 12.3883 7.33322 20.7955
544 1 -1.1104 9.59091 15.8278 20.6219
627 1 -1.1104 6.55932 4.6658 26.1629
474 1 -1.1104 9.35927 7.37978 20.8058
417 1 -1.1104 12.0536 18.5661 23.4901
557 1 -1.1104 6.63533 1.76608 26.4418
553 1 -1.1104 6.81984 1.82667 23.456
587 1 -1.1104 12.2223 1.77618 23.4806
589 1 -1.1104 12.2788 1.80517 26.2179
592 2 2.2208 11.0876 3.3306 25.0419
595 1 -1.1104 9.42548 1.65503 23.5518
598 1 -1.1104 9.45992 1.80616 26.202
600 2 2.2208 8.00238 3.21044 22.0702
573 1 -1.1104 9.54148 7.41023 23.4395
575 1 -1.1104 12.4382 4.56829 26.6384
604 1 -1.1104 12.3899 4.64566 23.6517
605 1 -1.1104 12.4092 7.3663 26.6321
607 1 -1.1104 12.4979 7.42141 23.6416
639 2 2.2208 10.9434 6.12803 22.1884
640 2 2.2208 8.18502 5.86468 24.824
646 1 -1.1104 9.48348 4.52069 26.3068
648 1 -1.1104 9.7563 4.50263 23.415
650 1 -1.1104 9.79439 7.27742 26.2736
577 2 2.2208 10.958 14.5257 24.9091
491 1 -1.1104 1.02053 13.013 20.6502
8899 2 2.2208 -0.115571 17.5021 22.3173
8975 2 2.2208 -0.201896 11.6238 16.4928
615 2 2.2208 5.38337 11.8562 22.0083
621 1 -1.1104 0.894307 10.2999 23.4764
624 2 2.2208 5.42836 8.85077 24.739
626 1 -1.1104 0.945779 10.2231 26.401
631 2 2.2208 2.34412 11.8125 24.8626
633 2 2.2208 2.60875 8.99877 22.0486
635 1 -1.1104 3.83961 10.3803 23.4075
637 1 -1.1104 3.99322 10.5981 26.2809
386 1 -1.1104 3.82927 13.3832 26.4769
420 1 -1.1104 1.08586 13.3038 23.5467
483 1 -1.1104 1.1067 13.1934 26.1932
520 1 -1.1104 3.95676 13.2072 23.5423
455 1 -1.1104 6.78424 13.1684 23.4286
8940 2 2.2208 13.6674 -2.50123 22.1791
525 1 -1.1104 12.0904 12.8924 20.7976
469 1 -1.1104 12.5677 9.99497 20.6474
628 1 -1.1104 6.71951 10.1146 26.2304
545 1 -1.1104 6.77608 13.2252 26.3431
623 1 -1.1104 6.58336 10.4412 23.4395
574 1 -1.1104 12.2665 10.0407 26.3883
578 2 2.2208 11.1314 8.87982 24.883
603 1 -1.1104 12.4324 10.0008 23.3868
638 2 2.2208 10.9703 11.6137 22.1181
644 2 2.2208 7.99054 11.6657 24.9112
645 1 -1.1104 9.6325 10.1948 26.2466
647 1 -1.1104 9.52278 10.1988 23.4631
649 2 2.2208 8.11983 8.86121 22.0832
413 1 -1.1104 12.4184 12.7796 23.5428
418 1 -1.1104 12.459 12.9457 26.2955
583 1 -1.1104 9.3971 13.0289 23.5208
611 1 -1.1104 9.67127 13.0349 26.4956
9040 2 2.2208 13.607 17.3228 19.2576
8813 2 2.2208 -0.404754 17.2925 27.6401
547 2 2.2208 2.49324 14.523 21.9937
546 1 -1.1104 3.91725 18.853 23.5293
456 2 2.2208 5.26081 14.5739 24.9905
379 2 2.2208 2.55185 20.3394 22.2468
382 1 -1.1104 3.95691 15.7997 23.205
383 1 -1.1104 1.20233 16.002 23.2617
387 1 -1.1104 4.11792 15.9235 26.3091
388 2 2.2208 2.654 17.4036 24.9702
416 1 -1.1104 3.95012 18.5985 26.5852
419 2 2.2208 5.32685 17.3809 21.9576
421 1 -1.1104 1.34701 18.7225 23.6749
457 2 2.2208 5.19903 20.136 25.2061
484 1 -1.1104 1.10232 16.0679 26.2145
518 1 -1.1104 1.11175 18.7556 26.4594
332 2 2.2208 11.0752 11.5752 27.7192
497 1 -1.1104 6.80533 18.867 20.7397
385 1 -1.1104 6.75882 15.8997 23.6677
8936 2 2.2208 -0.326783 11.6307 22.1968
482 1 -1.1104 6.57203 18.5704 23.5502
548 1 -1.1104 12.2657 18.5284 26.3295
612 1 -1.1104 9.55731 18.8729 26.4428
384 2 2.2208 10.8748 17.1017 22.2339
519 1 -1.1104 6.74107 15.7053 26.3862
576 1 -1.1104 12.2688 15.6505 23.4307
505 1 -1.1104 6.78892 16.1472 20.7868
582 1 -1.1104 12.4328 15.7193 26.2986
581 2 2.2208 11.0657 20.0087 24.8719
643 1 -1.1104 9.60949 15.8734 26.4005
641 2 2.2208 8.04199 20.0656 22.2895
610 1 -1.1104 6.65592 18.6378 26.5661
333 2 2.2208 8.13279 8.88571 27.7626
9079 2 2.2208 -0.296256 20.1164 19.1579
8897 2 2.2208 -0.398779 14.4888 24.897
311 2 2.2208 2.47173 0.652033 13.8806
8819 2 2.2208 -0.40635 11.6258 27.7143
315 2 2.2208 11.0721 -2.38881 13.7619
338 2 2.2208 10.9411 0.404211 27.745
321 2 2.2208 10.7431 9.10446 13.7852
345 2 2.2208 2.37637 14.5604 27.7084
306 2 2.2208 8.07494 14.5279 27.7092
343 2 2.2208 2.52326 8.88041 27.7035
651 2 2.2208 5.27577 22.9054 5.03329
653 1 -1.1104 1.02323 24.3579 1.24373
654 1 -1.1104 1.07814 24.3698 3.85165
655 1 -1.1104 0.96608 21.5311 1.06381
657 2 2.2208 5.49541 25.9987 2.47605
658 1 -1.1104 0.972231 21.6492 3.68363
660 1 -1.1104 3.80056 24.1975 0.826583
661 2 2.2208 2.55189 22.9057 2.57196
663 1 -1.1104 3.99814 24.3142 3.76685
664 2 2.2208 2.55233 25.8265 5.12619
665 1 -1.1104 3.88557 21.4794 1.15798
667 1 -1.1104 3.90382 21.5342 3.79762
668 1 -1.1104 4.0802 27.2331 3.66422
659 1 -1.1104 1.13756 27.1739 3.81409
666 1 -1.1104 4.00859 27.1258 0.836389
794 1 -1.1104 1.00364 21.4814 6.52222
672 1 -1.1104 6.36282 24.7258 0.889432
656 1 -1.1104 1.02821 27.294 1.01551
798 1 -1.1104 3.86504 24.4712 6.41444
800 1 -1.1104 3.92667 27.2845 6.60395
795 1 -1.1104 1.22668 27.1316 6.63981
9541 2 2.2208 -0.282514 42.7482 7.95323
962 2 2.2208 7.84056 42.7367 -0.330552
796 1 -1.1104 6.78377 21.471 6.66041
799 1 -1.1104 3.80916 21.7631 6.50484
792 1 -1.1104 1.05051 24.2937 6.77749
673 1 -1.1104 7.052 24.2751 3.79748
797 1 -1.1104 7.08105 27.1841 6.62511
677 1 -1.1104 6.88593 27.3077 3.98886
674 1 -1.1104 6.73818 21.7714 1.0968
676 1 -1.1104 6.68631 21.3389 3.87937
678 2 2.2208 10.8943 23.1534 5.26601
680 1 -1.1104 12.0207 24.3508 1.0032
681 1 -1.1104 12.477 24.5886 3.78741
682 1 -1.1104 12.3599 21.5926 0.810074
684 2 2.2208 10.9769 25.8674 2.43611
685 1 -1.1104 12.2928 21.484 3.71062
687 1 -1.1104 9.28681 24.23 0.921468
688 2 2.2208 8.34164 23.0002 2.49456
690 1 -1.1104 9.68809 24.6436 3.68818
691 2 2.2208 8.2389 25.8021 5.29039
692 1 -1.1104 9.44617 21.3572 1.29731
694 1 -1.1104 9.52692 21.7168 4.07848
683 1 -1.1104 12.3186 27.2664 1.02527
686 1 -1.1104 12.3099 27.1803 4.0772
675 1 -1.1104 6.82413 27.5334 1.08953
693 1 -1.1104 9.63063 27.1808 1.14806
695 1 -1.1104 9.59429 27.1354 3.95998
793 1 -1.1104 6.47991 24.5646 6.49076
829 1 -1.1104 9.51328 21.7002 6.77533
954 2 2.2208 11.0258 39.7334 -0.451994
652 2 2.2208 5.36735 28.7538 5.32284
662 2 2.2208 2.44423 28.5985 2.35942
700 1 -1.1104 1.03152 30.0394 0.91799
703 1 -1.1104 1.21764 30.1156 3.66363
706 1 -1.1104 1.11398 32.7573 1.0858
707 2 2.2208 5.28667 31.4177 2.28917
709 1 -1.1104 1.06581 32.753 3.97467
711 1 -1.1104 3.75016 29.7627 0.787989
714 1 -1.1104 3.97368 29.9784 3.76897
716 2 2.2208 2.58393 31.2846 5.35143
718 1 -1.1104 3.87534 32.7967 0.981363
719 1 -1.1104 3.89946 32.6975 3.88554
853 1 -1.1104 1.14785 32.5194 6.62503
9404 2 2.2208 -0.389438 25.7755 8.01707
9532 2 2.2208 -0.21551 31.4438 2.3497
1504 1 -1.1104 9.41318 46.6902 6.47009
725 1 -1.1104 6.63712 32.8021 0.877639
710 1 -1.1104 6.67342 32.79 3.83897
854 1 -1.1104 6.79428 32.8908 6.66931
723 1 -1.1104 6.84019 30.097 1.02502
724 1 -1.1104 6.683 30.1424 3.79341
679 2 2.2208 10.9846 28.5369 5.31676
689 2 2.2208 8.32262 28.6578 2.48331
727 1 -1.1104 12.5172 29.9682 1.10239
729 1 -1.1104 12.3745 29.9956 3.91203
731 1 -1.1104 12.4289 32.7273 0.994416
732 2 2.2208 11.0056 31.2867 2.37361
734 1 -1.1104 12.3866 32.8579 4.04143
735 1 -1.1104 9.79093 29.9371 0.972244
738 1 -1.1104 9.49338 29.9971 3.77765
740 2 2.2208 8.00307 31.3623 5.1165
742 1 -1.1104 9.6738 32.7116 0.923911
743 1 -1.1104 9.57085 32.6754 3.74513
9367 2 2.2208 13.5938 25.9025 11.063
967 2 2.2208 8.19602 39.8054 13.4345
699 2 2.2208 5.52811 34.2053 5.26794
701 1 -1.1104 1.12769 35.5786 1.00106
704 1 -1.1104 1.20447 35.5122 3.93193
708 2 2.2208 5.13178 37.0072 2.3222
712 1 -1.1104 3.8436 35.6558 1.17241
713 2 2.2208 2.61125 34.3426 2.41358
715 1 -1.1104 4.04206 35.5854 3.95663
717 2 2.2208 2.38518 36.9208 5.32366
745 2 2.2208 5.14986 39.706 5.0373
751 1 -1.1104 1.00363 38.3558 0.829215
756 1 -1.1104 1.04404 38.276 3.72764
761 2 2.2208 2.4401 39.6714 2.26668
765 1 -1.1104 3.98945 38.3248 0.799171
767 1 -1.1104 3.83022 38.4836 3.54262
850 1 -1.1104 1.02428 35.5523 6.79635
1335 1 -1.1104 9.41131 46.8048 3.68543
976 2 2.2208 10.9557 34.0572 -0.471802
969 2 2.2208 5.42114 22.9063 -0.389965
948 2 2.2208 2.40932 42.6589 -0.35505
753 1 -1.1104 6.66133 38.388 0.831694
758 1 -1.1104 6.69952 38.3772 3.78069
702 1 -1.1104 6.78067 35.8003 0.856883
925 1 -1.1104 6.63726 38.2672 6.41256