ITEM: TIMESTEP
70000
ITEM: NUMBER OF ATOMS
17730
ITEM: BOX BOUNDS pp pp pp
-4.3812072128014318e-01 2.7778120721280349e+01
-5.2285229871581445e+00 3.3330852298716070e+02
-4.4518233156613418e-01 2.7785182331566372e+01
ITEM: ATOMS id type q x y z
1 2 2.2208 5.42486 0.445586 5.32691
2 1 -1.1104 1.08312 -3.84399 0.976377
6 1 -1.1104 0.89125 -3.90332 3.95714
10 1 -1.1104 1.04688 -1.13247 0.932517
12 2 2.2208 5.44549 -2.43103 2.53192
14 1 -1.1104 1.07608 -0.956328 3.78047
16 1 -1.1104 4.02559 -3.9221 0.993914
18 2 2.2208 2.46491 0.317689 2.61654
19 1 -1.1104 3.70754 -3.88816 3.82097
21 2 2.2208 2.37541 -2.44423 5.18524
23 1 -1.1104 3.81743 -1.16221 1.18759
24 1 -1.1104 4.02485 -1.08089 3.89835
166 1 -1.1104 1.10357 -3.92886 6.79424
4 1 -1.1104 6.65744 -3.81884 0.780467
8 1 -1.1104 6.55372 -3.9631 3.9634
11 1 -1.1104 6.64257 -0.984851 0.982199
174 1 -1.1104 3.86284 -0.955305 6.58159
15 1 -1.1104 6.97242 -1.04563 4.05133
338 2 2.2208 10.819 0.290178 -0.315457
171 1 -1.1104 6.68303 -1.00654 6.74853
8802 2 2.2208 -0.405571 17.3287 10.8537
8839 2 2.2208 13.5843 19.9741 -0.391529
168 1 -1.1104 6.55345 -3.87156 6.73782
31 2 2.2208 10.8128 0.262547 5.38062
32 1 -1.1104 12.5074 -3.74192 1.00663
34 1 -1.1104 12.1828 -3.84644 3.79424
36 1 -1.1104 12.4479 -0.900937 1.11962
37 2 2.2208 10.9429 -2.47353 2.48191
39 1 -1.1104 12.6015 -1.06987 3.97521
40 1 -1.1104 9.50694 -3.76178 0.891477
42 2 2.2208 8.37824 0.411881 2.66582
43 1 -1.1104 9.45454 -4.01306 3.81015
45 2 2.2208 8.0263 -2.52129 5.41331
47 1 -1.1104 9.51601 -1.05524 1.12279
48 1 -1.1104 9.77803 -1.09737 3.88068
205 1 -1.1104 12.281 -3.823 6.65917
329 2 2.2208 5.21918 0.438818 -0.288747
315 2 2.2208 10.8633 -2.42211 13.579
8781 2 2.2208 13.6601 14.6108 10.9323
232 2 2.2208 11 -5.21254 10.8084
207 1 -1.1104 12.413 -1.29551 6.77605
208 1 -1.1104 9.35944 -3.85212 6.69411
345 2 2.2208 2.40138 14.43 -0.332381
340 2 2.2208 8.03096 3.16407 -0.266999
8780 2 2.2208 -0.312264 -2.34668 2.16423
307 2 2.2208 10.5835 17.2008 -0.192613
3 1 -1.1104 1.09676 1.76235 1.1043
7 1 -1.1104 0.955475 1.75604 3.72864
13 2 2.2208 5.35691 3.00495 2.44736
17 1 -1.1104 3.97631 1.6081 1.14542
20 1 -1.1104 4.00805 1.53406 3.95562
22 2 2.2208 2.3916 3.08049 5.39836
54 2 2.2208 4.98127 5.96755 5.26102
60 1 -1.1104 0.776292 4.58368 0.993567
67 1 -1.1104 0.896524 4.92326 3.86239
72 2 2.2208 2.35611 6.02037 2.4046
76 1 -1.1104 3.87283 4.47254 1.16765
79 1 -1.1104 3.73034 4.57825 3.81659
58 1 -1.1104 0.793636 7.68824 3.81481
71 1 -1.1104 3.56709 7.4288 1.13615
56 1 -1.1104 0.850773 7.6783 1.11672
9 1 -1.1104 6.77613 1.74185 3.87125
57 1 -1.1104 6.35977 7.38985 1.29269
74 1 -1.1104 3.78487 7.48066 3.83864
63 1 -1.1104 6.64568 4.52854 1.03547
69 1 -1.1104 6.43036 4.61763 3.72627
5 1 -1.1104 6.84076 1.63089 1.11952
306 2 2.2208 7.97874 14.2639 -0.239307
334 2 2.2208 10.7579 5.96839 -0.336561
8783 2 2.2208 -0.42489 0.398391 4.97242
310 2 2.2208 5.44064 -2.39427 13.4421
59 1 -1.1104 6.53461 7.37709 4.26814
33 1 -1.1104 12.1217 1.73559 0.978946
35 1 -1.1104 12.1313 1.59545 4.00145
38 2 2.2208 10.9069 2.99011 2.6955
41 1 -1.1104 9.41425 1.98348 1.17972
44 1 -1.1104 9.58008 1.82012 4.1134
46 2 2.2208 8.09097 3.43407 5.33723
84 2 2.2208 10.9704 6.06961 5.36193
87 1 -1.1104 12.3116 7.13132 4.15284
88 1 -1.1104 12.2114 4.48237 1.27157
92 1 -1.1104 12.2706 4.38326 3.97707
94 1 -1.1104 9.18641 7.32154 1.14526
95 2 2.2208 7.89642 5.96202 2.38811
99 1 -1.1104 9.36341 4.74139 1.15862
102 1 -1.1104 9.56816 4.75771 3.92239
97 1 -1.1104 9.52754 7.33287 3.95309
86 1 -1.1104 11.9869 7.28924 1.33443
8710 2 2.2208 -0.37871 8.74012 7.98908
342 2 2.2208 5.12375 6.14997 -0.0984387
55 2 2.2208 5.13191 11.6403 5.38754
61 1 -1.1104 0.940947 10.501 0.963609
66 2 2.2208 5.17325 8.81374 2.71326
68 1 -1.1104 1.08597 10.5762 4.00664
73 2 2.2208 2.2549 11.8329 2.52946
75 2 2.2208 2.21874 8.90078 5.2329
77 1 -1.1104 3.54497 10.2681 1.2537
80 1 -1.1104 3.72813 10.1999 3.91196
107 1 -1.1104 0.924802 13.2836 1.1243
113 1 -1.1104 0.670238 13.1348 3.98551
123 1 -1.1104 3.75229 13.1158 1.12723
128 1 -1.1104 3.64214 13.0705 4.01093
110 1 -1.1104 6.59499 13.1529 1.28255
64 1 -1.1104 6.68037 10.1485 1.07232
62 1 -1.1104 0.848844 10.3062 6.64608
115 1 -1.1104 6.49364 12.9579 3.98084
8800 2 2.2208 -0.207776 0.417759 11.086
70 1 -1.1104 6.47562 10.3789 3.94431
85 2 2.2208 10.9194 11.7556 5.39285
89 1 -1.1104 12.2683 10.1629 1.12878
91 2 2.2208 10.7668 8.77521 2.66769
93 1 -1.1104 12.189 9.98458 3.93112
96 2 2.2208 7.89508 11.5071 2.55554
98 2 2.2208 8.05512 8.5925 5.50521
100 1 -1.1104 9.4388 10.2829 1.14495
103 1 -1.1104 9.35342 10.0732 3.94353
142 1 -1.1104 12.1878 13.161 1.16443
146 1 -1.1104 12.2593 12.8447 3.99954
153 1 -1.1104 9.4065 13.1034 1.26371
158 1 -1.1104 9.58389 12.9012 3.96154
154 1 -1.1104 9.331 12.9965 7.01842
335 2 2.2208 2.65949 -2.58647 -0.323013
8810 2 2.2208 13.6004 8.75484 -0.293091
331 2 2.2208 5.17866 17.4447 -0.125507
343 2 2.2208 2.22323 8.72992 -0.378642
312 2 2.2208 5.29455 3.16198 13.6529
130 2 2.2208 2.15922 14.686 5.42583
119 2 2.2208 5.04459 14.4006 2.59384
106 2 2.2208 5.11129 17.137 5.28302
109 1 -1.1104 0.824871 18.7985 0.902772
114 1 -1.1104 1.00327 18.6797 3.76167
116 1 -1.1104 1.24283 16.0306 0.892416
120 2 2.2208 5.11821 20.2828 2.56066
121 1 -1.1104 0.907746 15.9695 3.91189
125 1 -1.1104 3.7307 18.7954 1.2278
127 2 2.2208 2.28009 17.2656 2.58369
129 1 -1.1104 3.71015 18.7108 4.20078
131 2 2.2208 2.40929 20.1965 5.39235
132 1 -1.1104 3.86434 15.7696 1.34486
134 1 -1.1104 3.74125 15.8229 3.82811
117 1 -1.1104 0.842897 15.8886 6.75157
133 1 -1.1104 3.6771 15.9186 6.65455
138 1 -1.1104 6.58365 18.8583 1.44893
330 2 2.2208 2.36775 20.2263 -0.259314
81 2 2.2208 10.8815 20.1406 8.23451
112 1 -1.1104 6.63519 18.6413 6.7384
122 1 -1.1104 6.35315 15.6404 3.82215
140 1 -1.1104 6.52007 15.8638 1.12954
139 1 -1.1104 6.55397 18.68 4.10895
150 2 2.2208 10.8019 14.3315 2.64977
141 2 2.2208 10.8031 17.3109 5.3445
144 1 -1.1104 12.1548 18.5998 1.11879
147 1 -1.1104 12.142 18.8198 3.96809
148 1 -1.1104 12.1434 15.85 1.43348
151 2 2.2208 10.6809 20.2952 2.59585
152 1 -1.1104 11.9463 15.6742 4.1068
155 1 -1.1104 9.49397 18.6909 1.00888
157 2 2.2208 7.8242 17.2192 2.5986
159 1 -1.1104 9.50879 18.7739 3.91952
160 2 2.2208 7.85046 14.3936 5.48199
161 2 2.2208 7.99657 20.1008 5.20645
162 1 -1.1104 9.09785 15.9479 1.0714
164 1 -1.1104 9.14207 16.0349 3.9836
163 1 -1.1104 9.67644 15.8865 6.83998
156 1 -1.1104 9.49999 18.7786 6.62288
27 1 -1.1104 12.1848 18.745 12.2767
308 2 2.2208 7.99915 19.8835 -0.227949
344 2 2.2208 4.90137 11.4841 -0.267737
172 1 -1.1104 3.90931 -3.82923 6.75621
170 1 -1.1104 1.05953 -0.92228 6.57846
8782 2 2.2208 13.6051 17.3599 8.06888
175 2 2.2208 5.40451 0.493189 10.7995
176 1 -1.1104 1.06346 -3.97652 12.1162
180 1 -1.1104 1.01594 -3.6571 9.37855
184 1 -1.1104 1.07203 -1.05503 12.3881
186 2 2.2208 5.21987 -2.52086 8.03526
188 1 -1.1104 1.14707 -1.07231 9.32584
190 1 -1.1104 3.83748 -4.12531 12.2221
192 2 2.2208 2.49865 0.409077 7.94093
193 1 -1.1104 3.92814 -3.98822 9.44777
195 2 2.2208 2.52774 -2.34138 11.0081
197 1 -1.1104 4.04376 -0.816099 12.2672
198 1 -1.1104 3.96546 -1.0024 9.48583
182 1 -1.1104 6.9991 -3.74755 9.38321
185 1 -1.1104 6.64237 -1.04503 12.3138
189 1 -1.1104 6.63477 -1.01637 9.48952
178 1 -1.1104 6.78576 -3.7427 12.1461
8792 2 2.2208 13.6008 11.5443 2.72484
333 2 2.2208 7.98841 8.72376 -0.295345
332 2 2.2208 10.8288 11.6847 -0.189661
210 1 -1.1104 9.43877 -1.135 6.67077
8711 2 2.2208 -0.322261 6.24422 10.9068
211 2 2.2208 10.8473 0.37459 10.8327
212 1 -1.1104 12.446 -3.89373 12.0597
214 1 -1.1104 12.4748 -3.96289 9.33831
216 1 -1.1104 12.086 -1.07691 12.2425
217 2 2.2208 10.8966 -2.51518 8.00827
219 1 -1.1104 12.3165 -1.0011 9.38579
220 1 -1.1104 9.50793 -3.87409 12.0477
222 2 2.2208 8.12846 0.496495 8.10767
223 1 -1.1104 9.53583 -3.86064 9.32758
225 2 2.2208 8.07059 -2.33604 10.717
227 1 -1.1104 9.32291 -0.97307 12.0897
228 1 -1.1104 9.54776 -0.925097 9.18806
8693 2 2.2208 13.5075 11.7192 8.3638
8793 2 2.2208 13.5127 5.80682 2.31481
238 1 -1.1104 3.69861 7.4162 6.92988
167 1 -1.1104 1.09215 1.56286 6.53936
236 1 -1.1104 0.59813 4.52252 6.457
239 1 -1.1104 3.7205 4.49779 6.77035
169 1 -1.1104 6.66447 2.15983 6.57873
199 1 -1.1104 9.40419 16.0277 12.4692
237 1 -1.1104 6.45852 4.91678 6.41447
235 1 -1.1104 6.65258 7.61656 7.06963
234 1 -1.1104 1.05456 7.54731 6.69975
173 1 -1.1104 3.77561 1.78849 6.70445
177 1 -1.1104 1.21737 1.82765 12.1699
181 1 -1.1104 0.918947 1.70509 9.37391
187 2 2.2208 5.18336 3.28519 7.88446
191 1 -1.1104 4.03366 1.9618 12.0568
194 1 -1.1104 3.74779 1.77502 9.21321
196 2 2.2208 2.43473 3.23779 10.7543
240 2 2.2208 5.26424 6.14159 10.8765
242 1 -1.1104 1.03526 7.41929 12.4568
246 1 -1.1104 1.24729 4.64615 12.1522
251 1 -1.1104 1.2333 4.5366 9.32535
255 1 -1.1104 3.95841 7.20503 12.3335
256 2 2.2208 2.39154 6.00557 7.97105
258 1 -1.1104 3.72758 7.59988 9.57645
260 1 -1.1104 4.0438 4.56595 12.3857
262 1 -1.1104 3.93955 4.77294 9.45471
243 1 -1.1104 6.81534 7.67083 12.5956
244 1 -1.1104 1.08024 7.42543 9.40607
179 1 -1.1104 6.75118 1.78872 12.3415
245 1 -1.1104 6.40562 7.66216 9.89468
183 1 -1.1104 6.6 1.95477 9.31798
267 1 -1.1104 9.4863 7.42718 6.832
266 1 -1.1104 12.2512 4.62665 6.69336
209 1 -1.1104 9.54131 1.66109 6.85361
265 1 -1.1104 12.4827 7.52182 6.89157
8558 2 2.2208 13.5014 20.1172 5.3311
253 1 -1.1104 6.8216 4.63031 9.333
206 1 -1.1104 12.41 1.64435 6.83743
269 1 -1.1104 9.5583 4.48749 6.75775
248 1 -1.1104 6.73198 4.53971 12.3354
213 1 -1.1104 12.2789 1.63247 12.1482
215 1 -1.1104 12.0881 1.76332 9.57819
218 2 2.2208 10.8879 3.11301 8.14535
221 1 -1.1104 9.43554 2.03763 12.6624
224 1 -1.1104 9.46682 1.80844 9.54858
226 2 2.2208 8.20029 3.27288 11.0543
268 1 -1.1104 9.6046 4.58612 9.60801
271 1 -1.1104 9.56931 4.93351 12.6048
273 1 -1.1104 9.29186 7.64407 9.49303
275 2 2.2208 8.03392 6.15264 8.14598
276 2 2.2208 10.88 5.98607 10.949
278 1 -1.1104 12.5748 7.35718 12.2682
279 1 -1.1104 12.2548 7.31967 9.55369
280 1 -1.1104 12.2404 4.58617 12.3212
283 1 -1.1104 12.3018 4.5035 9.56646
285 1 -1.1104 9.58685 7.48773 12.2741
53 2 2.2208 10.9131 14.5228 8.28215
78 1 -1.1104 3.48791 10.1509 6.9877
108 1 -1.1104 0.899167 13.1057 6.86008
124 1 -1.1104 3.99053 13.0447 6.73673
111 1 -1.1104 6.63567 13.0478 6.74325
241 2 2.2208 5.08653 11.6455 10.8867
247 1 -1.1104 0.742391 10.3393 12.3888
250 2 2.2208 4.95815 8.96353 8.24536
252 1 -1.1104 0.946644 10.1899 9.39706
257 2 2.2208 2.31924 11.7319 8.10871
259 2 2.2208 2.2174 8.85426 10.9146
261 1 -1.1104 3.65752 10.1213 12.3793
263 1 -1.1104 3.6421 10.4013 9.53988
287 1 -1.1104 3.59157 12.9467 12.525
294 1 -1.1104 1.09051 12.9383 9.66293
299 1 -1.1104 0.765813 13.2003 12.359
305 1 -1.1104 3.95087 13.192 9.65748
297 1 -1.1104 6.36082 13.1386 12.2382
254 1 -1.1104 6.48981 10.3506 9.41316
249 1 -1.1104 6.61008 10.2998 12.1889
8840 2 2.2208 13.522 14.5706 -0.0413233
104 1 -1.1104 9.59041 18.863 12.3094
143 1 -1.1104 12.1506 13.0432 6.90922
90 1 -1.1104 12.3928 10.3194 6.82173
101 1 -1.1104 9.56445 10.2352 6.55401
25 2 2.2208 10.7963 17.4579 10.8531
65 1 -1.1104 6.39408 10.3808 6.63173
290 1 -1.1104 6.67359 13.1111 9.70035
264 1 -1.1104 9.37517 10.3828 9.55494
270 1 -1.1104 9.32062 10.2631 12.3017
272 2 2.2208 7.94362 8.91776 11.042
274 2 2.2208 7.97979 11.6879 7.98321
277 2 2.2208 10.8154 11.7684 11.2278
281 1 -1.1104 12.1356 10.294 12.4459
282 2 2.2208 11.0543 8.83585 8.18051
284 1 -1.1104 12.1464 10.2596 9.48139
135 1 -1.1104 9.54598 13.2598 9.61173
26 1 -1.1104 12.1164 12.9869 12.5132
30 1 -1.1104 12.4101 13.1616 9.74652
83 1 -1.1104 9.3504 13.2321 12.5978
105 2 2.2208 7.9262 17.5247 8.08739
200 1 -1.1104 9.27407 16.1681 9.5885
126 1 -1.1104 3.64588 18.6531 6.85621
302 1 -1.1104 0.914633 18.8643 6.65939
50 1 -1.1104 12.1227 15.7402 12.4275
288 1 -1.1104 6.50467 18.6812 9.72393
296 1 -1.1104 6.55173 18.6914 12.8023
201 2 2.2208 2.40703 14.4737 11.0411
295 2 2.2208 5.32301 14.5506 8.31473
204 2 2.2208 2.40152 20.0633 10.8391
229 1 -1.1104 3.73198 15.8219 12.4947
230 1 -1.1104 1.03359 15.8466 12.2999
286 1 -1.1104 3.83952 18.7564 12.5477
291 1 -1.1104 0.941144 18.7556 9.59554
292 1 -1.1104 1.10626 15.94 9.49424
293 2 2.2208 5.10432 19.9961 8.05202
298 1 -1.1104 0.985539 18.5205 12.43
300 2 2.2208 5.09043 17.2787 11.2776
301 1 -1.1104 3.65788 18.7274 9.62569
303 2 2.2208 2.40323 17.3711 8.20409
304 1 -1.1104 3.8699 15.9442 9.68539
289 1 -1.1104 6.57938 15.8486 9.54272
233 1 -1.1104 6.58307 15.8756 12.2831
336 2 2.2208 2.3857 3.31876 -0.408989
49 1 -1.1104 12.2935 18.6887 9.66249
118 1 -1.1104 6.70794 15.9496 6.71273
137 2 2.2208 7.95744 14.458 11.0143
149 1 -1.1104 12.3702 15.8601 6.95729
136 1 -1.1104 9.41102 18.8991 9.46991
145 1 -1.1104 12.2234 18.6759 6.85465
82 1 -1.1104 12.1592 15.9842 9.69911
165 2 2.2208 8.11042 20.249 10.852
8820 2 2.2208 13.6334 3.08868 -0.134851
8797 2 2.2208 13.4694 17.4001 2.53433
231 2 2.2208 8.03902 -5.18779 7.98981
8784 2 2.2208 -0.348906 3.31312 2.55077
8790 2 2.2208 -0.358274 9.24629 2.46837
8803 2 2.2208 -0.416254 20.3515 8.16969
8692 2 2.2208 13.6141 5.91395 8.26545
8703 2 2.2208 -0.420151 11.7509 10.9334
8510 2 2.2208 13.6191 8.73767 5.3496
8822 2 2.2208 -0.410761 3.14931 13.6094
346 2 2.2208 5.13755 0.256007 16.5166
347 1 -1.1104 1.13887 -3.84977 17.82
351 1 -1.1104 1.12577 -3.88353 14.9515
359 1 -1.1104 0.830489 -0.674582 17.9365
361 2 2.2208 5.39544 -2.64041 19.1287
363 1 -1.1104 1.24776 -0.990682 14.9576
367 1 -1.1104 3.91741 -3.7794 17.8857
369 2 2.2208 2.47737 0.614051 19.2553
370 1 -1.1104 4.01776 -4.02893 14.9844
374 2 2.2208 2.41567 -2.47007 16.5117
376 1 -1.1104 3.75477 -1.16161 17.7109
377 1 -1.1104 4.06487 -1.03941 14.9069
356 1 -1.1104 6.69325 -3.90089 20.6771
360 1 -1.1104 6.92274 -1.01811 17.9737
349 1 -1.1104 6.80835 -3.85133 17.7828
355 1 -1.1104 6.73337 -3.66596 14.8462
365 1 -1.1104 6.78664 -0.827099 15.4469
580 2 2.2208 2.40997 -5.21279 24.904
581 2 2.2208 10.669 20.098 25.114
389 2 2.2208 10.8492 0.431858 16.4228
390 1 -1.1104 12.239 -3.98188 17.8487
392 1 -1.1104 12.4565 -3.70499 14.9226
396 1 -1.1104 12.0653 -1.12992 17.7387
397 2 2.2208 10.8157 -2.38586 19.2776
399 1 -1.1104 12.2431 -1.12482 15.0992
401 1 -1.1104 9.69768 -3.98137 17.7957
403 2 2.2208 8.06843 0.377942 19.3959
404 1 -1.1104 9.65062 -3.73208 15.0111
408 2 2.2208 8.2548 -2.48557 16.4548
410 1 -1.1104 9.41492 -1.09405 17.8158
411 1 -1.1104 9.61835 -0.819988 15.0009
400 1 -1.1104 12.6212 -1.32428 20.6029
327 2 2.2208 10.6888 14.6671 13.8867
8813 2 2.2208 -0.227266 17.3012 27.7342
8831 2 2.2208 13.4979 17.3042 13.757
318 2 2.2208 5.25199 8.84555 13.7317
8827 2 2.2208 13.6086 11.5526 13.8195
348 1 -1.1104 1.05062 2.04691 17.8519
353 1 -1.1104 0.921221 1.77393 15.1916
362 2 2.2208 5.28575 3.31804 19.4195
368 1 -1.1104 3.92396 1.82634 17.7558
372 1 -1.1104 3.61437 1.90531 14.8598
375 2 2.2208 2.304 3.16207 16.3799
422 2 2.2208 5.18805 5.87929 16.816
426 1 -1.1104 1.06462 7.6149 15.1804
430 1 -1.1104 0.95812 4.94674 18.0113
435 1 -1.1104 1.06358 4.78226 14.979
443 1 -1.1104 3.75238 7.39679 18.1167
444 2 2.2208 2.37667 6.13001 19.3351
446 1 -1.1104 3.90251 7.54578 15.2487
449 1 -1.1104 3.6312 4.56328 18.0415
451 1 -1.1104 3.87001 4.49298 15.2136
424 1 -1.1104 0.881667 7.55577 17.8765
436 1 -1.1104 1.03214 4.67128 20.7286
432 1 -1.1104 6.65176 4.67042 18.0562
440 1 -1.1104 6.53946 4.47227 21.0314
357 1 -1.1104 6.50343 1.68227 15.2265
425 1 -1.1104 6.44143 7.27228 18.2553
350 1 -1.1104 6.57095 1.87735 18.1268
641 2 2.2208 7.75005 20.0853 22.2923
9010 2 2.2208 -0.422314 6.10987 16.4441
324 2 2.2208 5.21162 20.2192 13.9193
439 1 -1.1104 6.73546 4.67847 15.2467
391 1 -1.1104 12.3579 1.7308 17.9285
394 1 -1.1104 12.4758 1.94962 14.9052
398 2 2.2208 10.9428 3.26829 19.4699
402 1 -1.1104 9.57909 1.75202 17.9391
406 1 -1.1104 9.60426 1.99569 15.3367
409 2 2.2208 8.16847 3.06926 16.7414
458 2 2.2208 10.8189 6.15504 16.5458
461 1 -1.1104 12.3594 7.53308 15.1302
463 1 -1.1104 12.2995 4.72625 17.9236
466 1 -1.1104 12.3034 4.71824 15.2221
470 1 -1.1104 9.34237 7.42197 17.8725
471 2 2.2208 8.00634 5.9276 19.4226
473 1 -1.1104 9.36648 7.64235 14.9971
476 1 -1.1104 9.29351 4.41442 18.299
478 1 -1.1104 9.44765 4.67273 15.4579
460 1 -1.1104 12.1791 7.40488 17.9468
428 1 -1.1104 6.57326 7.53229 15.1851
8828 2 2.2208 -0.169599 0.456582 27.6804
322 2 2.2208 7.9809 11.6622 13.8542
314 2 2.2208 7.97202 0.319491 13.7712
8969 2 2.2208 13.6456 5.967 19.4834
423 2 2.2208 5.14706 11.6826 16.5463
431 1 -1.1104 0.669318 10.3442 17.9474
434 2 2.2208 5.24007 8.8392 19.4776
437 1 -1.1104 0.757362 10.4348 15.1886
445 2 2.2208 2.24374 11.6666 19.2683
448 2 2.2208 2.35378 8.91719 16.5502
450 1 -1.1104 3.66867 10.0676 17.9596
453 1 -1.1104 3.63194 10.3995 15.1487
486 1 -1.1104 1.07342 13.0209 17.883
490 1 -1.1104 1.2083 13.2764 15.0868
506 1 -1.1104 3.68363 12.9845 18.0173
509 1 -1.1104 3.92732 13.2246 15.2584
454 1 -1.1104 3.63988 10.3881 20.8273
510 1 -1.1104 3.60282 13.2648 20.5761
433 1 -1.1104 6.45714 10.1913 17.9276
442 1 -1.1104 6.61034 10.225 20.8633
491 1 -1.1104 0.974218 13.2255 20.6748
494 1 -1.1104 6.71046 12.8135 15.2075
9079 2 2.2208 -0.395155 19.9562 19.4931
488 1 -1.1104 6.53393 12.9092 18.1033
441 1 -1.1104 6.41154 10.2699 15.136
459 2 2.2208 10.8454 11.7928 16.6767
464 1 -1.1104 12.4134 10.2273 17.8647
465 2 2.2208 10.8691 8.73242 19.3489
468 1 -1.1104 12.2271 10.2898 15.2258
472 2 2.2208 7.93844 11.5191 19.4214
475 2 2.2208 7.92586 8.85877 16.4986
477 1 -1.1104 9.47505 10.169 17.9476
480 1 -1.1104 9.19867 10.333 15.0655
522 1 -1.1104 12.1482 13.2071 18.1323
524 1 -1.1104 12.0138 13.3526 15.3111
533 1 -1.1104 9.29016 12.9845 18.2107
536 1 -1.1104 9.21621 13.0443 15.3996
469 1 -1.1104 12.1347 10.0669 20.7579
326 2 2.2208 10.7904 20.1527 13.6444
8898 2 2.2208 -0.359194 20.2752 25.005
339 2 2.2208 8.11341 -2.43454 27.7214
613 2 2.2208 7.6068 14.3902 22.235
320 2 2.2208 8.05208 6.13416 13.8371
316 2 2.2208 10.7722 3.35374 13.8932
500 2 2.2208 5.03068 14.5979 19.305
513 2 2.2208 2.19294 14.6077 16.6848
485 2 2.2208 5.26307 17.2085 16.568
487 1 -1.1104 0.947469 18.5452 17.8497
492 1 -1.1104 0.958577 18.7975 15.0637
498 1 -1.1104 0.825434 15.9011 18.0808
501 2 2.2208 5.00797 19.997 19.147
502 1 -1.1104 0.850375 16.0202 15.2523
507 1 -1.1104 3.6437 18.7148 17.9763
508 2 2.2208 2.3588 17.3159 19.3888
511 1 -1.1104 3.77528 18.8082 15.1764
514 2 2.2208 2.09701 20.1621 16.3945
515 1 -1.1104 3.65535 15.8877 18.0288
516 1 -1.1104 3.68681 15.6983 15.2878
512 1 -1.1104 3.6848 18.8413 20.5624
499 1 -1.1104 6.62231 15.9351 18.1099
504 1 -1.1104 6.51823 15.9288 15.2195
489 1 -1.1104 6.66368 18.515 18.0683
328 2 2.2208 7.92863 17.2404 13.9185
8973 2 2.2208 13.5793 -2.5458 16.5377
321 2 2.2208 10.8798 8.83405 13.7196
643 1 -1.1104 9.36587 15.7984 26.57
323 2 2.2208 2.2862 17.2453 13.9454
385 1 -1.1104 6.2908 15.9077 23.6426
8970 2 2.2208 13.5904 11.6039 19.4944
317 2 2.2208 2.48623 6.1307 13.8674
311 2 2.2208 2.43119 0.560149 13.7742
496 1 -1.1104 6.71073 18.6605 15.4771
540 2 2.2208 7.87985 14.3587 16.9076
529 2 2.2208 10.8211 14.5854 19.537
521 2 2.2208 10.6877 17.2982 16.6883
523 1 -1.1104 11.9556 18.6941 18.0097
526 1 -1.1104 12.1875 18.9714 15.2076
528 1 -1.1104 12.1097 15.8555 18.081
530 2 2.2208 10.7499 20.1514 19.5458
531 1 -1.1104 12.3376 16.0899 15.1198
534 1 -1.1104 9.3522 18.6215 18.0645
535 2 2.2208 7.98126 17.2986 19.464
538 1 -1.1104 9.43808 18.6153 15.0329
541 2 2.2208 8.1307 20.1574 16.5135
542 1 -1.1104 9.41941 15.8398 18.1512
543 1 -1.1104 9.35545 15.7372 15.3182
527 1 -1.1104 12.0801 18.7934 20.7187
8971 2 2.2208 -0.172948 -2.16487 24.928
364 1 -1.1104 1.22046 -1.05109 20.6261
366 1 -1.1104 6.81238 -1.0059 20.7748
371 1 -1.1104 3.82999 -3.7403 20.5385
352 1 -1.1104 0.944575 -3.99377 20.3603
378 1 -1.1104 3.91588 -0.974237 20.4061
549 2 2.2208 5.17662 0.465483 22.1722
550 1 -1.1104 0.986236 -3.7118 23.2263
554 1 -1.1104 0.896947 -3.99582 26.3154
558 1 -1.1104 1.11614 -0.629476 23.612
560 2 2.2208 5.19286 -2.40681 24.8292
562 1 -1.1104 1.14444 -1.04826 26.3492
564 1 -1.1104 4.02212 -3.92115 23.3798
566 2 2.2208 2.6982 0.473871 25.0973
567 1 -1.1104 3.7928 -3.96605 26.1459
569 2 2.2208 2.63412 -2.29999 21.9943
571 1 -1.1104 3.98918 -0.841056 23.4252
572 1 -1.1104 3.80984 -1.06734 26.4433
559 1 -1.1104 6.64817 -1.18644 23.5328
563 1 -1.1104 6.58847 -0.962444 26.5301
556 1 -1.1104 6.68066 -3.97624 26.3068
482 1 -1.1104 6.54257 18.6713 23.5272
412 1 -1.1104 9.52795 -1.12124 20.6619
393 1 -1.1104 12.5428 -4.05691 20.59
405 1 -1.1104 9.55268 -3.88733 20.4842
384 2 2.2208 10.7967 17.1062 22.383
552 1 -1.1104 6.85184 -3.79413 23.5881
9039 2 2.2208 13.6008 14.4113 22.4378
585 2 2.2208 10.7929 0.324737 22.073
586 1 -1.1104 12.3717 -3.87462 23.5607
588 1 -1.1104 12.3276 -3.92673 26.3522
590 1 -1.1104 12.4868 -1.1631 23.7852
591 2 2.2208 11.0034 -2.55641 24.8375
593 1 -1.1104 12.3693 -1.06594 26.5623
594 1 -1.1104 9.64271 -3.85652 23.5074
596 2 2.2208 7.9877 0.3632 25.0445
597 1 -1.1104 9.43732 -3.68561 26.4411
599 2 2.2208 8.05833 -2.62996 21.9728
601 1 -1.1104 9.58405 -1.01906 23.5008
602 1 -1.1104 9.37992 -0.794055 26.4473
8896 2 2.2208 13.5028 11.6445 25.175
452 1 -1.1104 3.89928 4.84524 20.7445
373 1 -1.1104 3.70556 1.7834 20.6196
427 1 -1.1104 0.827099 7.48066 20.645
447 1 -1.1104 3.76632 7.60224 20.9222
354 1 -1.1104 1.06414 1.98806 20.601
429 1 -1.1104 6.49628 7.29699 21.0359
551 1 -1.1104 0.759892 2.03576 23.4313
555 1 -1.1104 0.90618 1.85872 26.2935
561 2 2.2208 5.08119 3.19488 25.1843
565 1 -1.1104 3.69874 1.96525 23.5047
568 1 -1.1104 3.53788 1.84021 26.5172
570 2 2.2208 2.34087 3.40317 22.23
614 2 2.2208 5.19828 5.93235 22.3889
616 1 -1.1104 0.97217 7.53988 23.5746
618 1 -1.1104 0.925326 7.49739 26.6132
620 1 -1.1104 0.972383 4.9061 23.5757
625 1 -1.1104 0.892863 4.73223 26.5586
629 1 -1.1104 3.82579 7.50291 23.7648
630 2 2.2208 2.19093 6.06742 25.0499
634 1 -1.1104 3.76411 4.67797 23.6347
636 1 -1.1104 3.85563 4.64625 26.7039
632 1 -1.1104 3.75151 7.4773 26.5483
622 1 -1.1104 6.82686 4.29386 23.9074
358 1 -1.1104 6.56189 1.63839 21.0191
553 1 -1.1104 6.47667 1.60759 23.861
557 1 -1.1104 6.43363 1.72271 26.3897
627 1 -1.1104 6.55684 4.39145 26.5259
474 1 -1.1104 9.44482 7.37452 20.8344
395 1 -1.1104 12.2507 1.68669 20.7437
462 1 -1.1104 12.221 7.20368 20.9177
467 1 -1.1104 12.2436 4.63777 20.6861
407 1 -1.1104 9.52138 1.82813 20.5761
619 1 -1.1104 6.74078 7.27135 26.8468
479 1 -1.1104 9.2938 4.62442 21.041
617 1 -1.1104 6.62732 7.42222 23.9713
587 1 -1.1104 12.2992 1.52835 23.6889
589 1 -1.1104 12.1229 1.67719 26.4833
592 2 2.2208 10.7343 3.09918 25.0618
595 1 -1.1104 9.36998 1.89167 23.6015
598 1 -1.1104 9.20577 1.90481 26.3039
600 2 2.2208 8.02393 3.14953 22.2164
573 1 -1.1104 9.42796 7.34699 23.9176
575 1 -1.1104 12.2719 4.54855 26.6259
604 1 -1.1104 12.332 4.66451 23.4513
607 1 -1.1104 12.2258 7.40747 23.9992
639 2 2.2208 10.7822 6.18452 22.5602
640 2 2.2208 8.04919 5.76345 25.1963
646 1 -1.1104 9.49529 4.45314 26.7025
648 1 -1.1104 9.48142 4.65771 23.799
650 1 -1.1104 9.37393 7.2579 26.5742
605 1 -1.1104 12.2078 7.31919 26.647
8897 2 2.2208 -0.364467 14.6257 25.1126
319 2 2.2208 2.29861 11.7779 13.8674
9041 2 2.2208 13.4456 20.1394 16.6304
438 1 -1.1104 0.785474 10.27 21.0212
495 1 -1.1104 6.60139 12.8268 20.8281
615 2 2.2208 5.19985 11.7872 22.3221
621 1 -1.1104 0.752688 10.3413 23.788
624 2 2.2208 5.24134 8.82854 25.1795
626 1 -1.1104 0.893367 10.2284 26.5618
631 2 2.2208 2.28099 11.5378 25.0386
633 2 2.2208 2.1989 8.68734 22.1573
635 1 -1.1104 3.7256 10.4335 23.6776
637 1 -1.1104 3.64937 10.1145 26.5526
386 1 -1.1104 3.74617 13.0501 26.5848
420 1 -1.1104 1.10184 13.2168 23.8364
483 1 -1.1104 0.83446 13.2022 26.5613
520 1 -1.1104 3.76485 13.0032 23.4346
545 1 -1.1104 6.54575 12.9949 26.4451
325 2 2.2208 5.25982 14.3777 13.8582
525 1 -1.1104 12.3048 12.9834 20.8177
537 1 -1.1104 9.39988 13.248 21.1998
481 1 -1.1104 9.39266 10.1335 20.6804
628 1 -1.1104 6.48164 10.1432 26.6803
623 1 -1.1104 6.44727 10.1236 23.9208
455 1 -1.1104 6.79113 12.9466 23.7061
606 2 2.2208 7.89789 17.0484 25.1555
574 1 -1.1104 11.952 10.1359 26.5184
578 2 2.2208 10.788 8.78388 25.1465
603 1 -1.1104 12.178 10.216 23.4906
638 2 2.2208 10.6756 11.579 22.1569
644 2 2.2208 8.01528 11.4882 25.2793
645 1 -1.1104 9.07495 10.1293 26.5444
647 1 -1.1104 9.52405 10.1262 23.5181
649 2 2.2208 7.89244 8.83923 22.352
413 1 -1.1104 11.9385 13.0065 23.5675
418 1 -1.1104 12.1473 12.9789 26.6285
583 1 -1.1104 9.57411 12.6058 24.1343
611 1 -1.1104 9.41723 12.8952 26.7113
9038 2 2.2208 13.4412 14.5646 16.6386
493 1 -1.1104 0.898262 18.7925 21.0424
497 1 -1.1104 6.56937 18.7209 20.7412
503 1 -1.1104 0.785298 16.0365 20.8895
517 1 -1.1104 3.63355 16.0522 20.8362
505 1 -1.1104 6.6036 15.982 20.8914
547 2 2.2208 2.36376 14.5536 22.2833
518 1 -1.1104 1.02862 18.8847 26.3301
546 1 -1.1104 3.92535 18.6866 23.6076
456 2 2.2208 5.13419 14.3451 25.1304
379 2 2.2208 2.41452 20.1757 22.124
382 1 -1.1104 3.729 15.8644 23.7934
383 1 -1.1104 0.84351 16.01 23.7153
387 1 -1.1104 3.90278 15.8181 26.8633
388 2 2.2208 2.39612 17.4508 24.8447
416 1 -1.1104 3.73632 18.6098 26.7113
419 2 2.2208 5.16902 17.384 22.1732
421 1 -1.1104 1.00542 18.8687 23.5526
457 2 2.2208 5.30467 20.212 25.1595
484 1 -1.1104 1.06132 16.0533 26.3607
610 1 -1.1104 6.58984 18.7863 26.514
519 1 -1.1104 6.523 16.0315 26.6439
612 1 -1.1104 9.22791 18.5785 26.3716
584 1 -1.1104 9.43752 18.4739 23.5777
417 1 -1.1104 12.2669 18.6684 23.3156
539 1 -1.1104 9.04524 18.9408 20.7984
544 1 -1.1104 9.328 15.9424 20.8619
532 1 -1.1104 12.195 15.7798 21.0574
8937 2 2.2208 -0.406781 3.35149 19.243
582 1 -1.1104 11.9704 15.7905 26.8568
577 2 2.2208 10.7939 14.3536 25.2493
576 1 -1.1104 12.1784 15.9263 24.0451
548 1 -1.1104 12.2983 18.5305 26.3669
642 1 -1.1104 9.02215 15.4565 23.7016
8895 2 2.2208 13.5531 5.75392 25.1958
8939 2 2.2208 13.6462 0.276604 25.1427
9013 2 2.2208 13.6039 20.2555 22.2347
9160 2 2.2208 13.5003 8.73151 21.9774
8835 2 2.2208 -0.309274 -2.5415 13.8196
8812 2 2.2208 13.6619 0.433475 13.8001
651 2 2.2208 5.24953 22.9014 5.49042
653 1 -1.1104 1.12181 24.3277 1.13069
654 1 -1.1104 0.913982 24.3095 3.91435
655 1 -1.1104 0.915205 21.5454 1.19359
657 2 2.2208 5.12646 25.8996 2.5035
658 1 -1.1104 0.88545 21.5038 3.98823
660 1 -1.1104 3.95918 24.4855 0.999338
661 2 2.2208 2.29488 22.9186 2.64869
663 1 -1.1104 3.54517 24.3723 3.94183
664 2 2.2208 2.30448 25.7423 5.40544
665 1 -1.1104 3.65192 21.6724 1.13005
667 1 -1.1104 3.67918 21.3327 3.97777
677 1 -1.1104 6.45934 27.2082 3.87135
798 1 -1.1104 3.69553 24.288 6.90075
799 1 -1.1104 3.78249 21.5733 6.61552
673 1 -1.1104 6.57729 24.2485 4.02587
672 1 -1.1104 6.68087 24.6196 1.25369
659 1 -1.1104 0.824582 27.21 3.94237
674 1 -1.1104 6.57288 21.7129 1.12996
656 1 -1.1104 0.951508 27.1066 1.22834
792 1 -1.1104 0.936133 24.5347 7.04045
969 2 2.2208 5.03691 23.1442 -0.218561
980 2 2.2208 2.37848 31.4566 -0.184543
979 2 2.2208 2.32814 37.2114 -0.362071
676 1 -1.1104 6.51792 21.5786 3.99418
678 2 2.2208 10.6525 22.9559 5.33616
680 1 -1.1104 12.2617 24.4614 1.06661
681 1 -1.1104 12.3862 24.4172 3.93572
682 1 -1.1104 12.2466 21.4028 1.13573
684 2 2.2208 10.7468 25.5633 2.4298
685 1 -1.1104 12.1009 21.5927 3.79574
687 1 -1.1104 9.3519 24.2783 1.03285
688 2 2.2208 7.95266 22.964 2.48467
690 1 -1.1104 9.35393 24.5064 3.67506
691 2 2.2208 8.0206 25.7891 5.32461
692 1 -1.1104 9.27993 21.6073 1.18218
694 1 -1.1104 9.21777 21.6771 3.9933
695 1 -1.1104 9.14386 27.3113 4.06159
828 1 -1.1104 9.33887 24.244 6.51161
686 1 -1.1104 12.0954 27.1359 3.84351
829 1 -1.1104 9.40003 21.6737 6.71166
796 1 -1.1104 6.52866 21.208 6.89929
825 1 -1.1104 12.2905 24.3606 6.91446
830 1 -1.1104 9.31803 26.8588 6.95823
976 2 2.2208 10.7514 34.0838 -0.188289
666 1 -1.1104 3.65055 27.1833 1.40479
668 1 -1.1104 3.75291 27.1256 4.26111
652 2 2.2208 5.01274 28.5848 5.35587
662 2 2.2208 2.16969 28.6538 2.52597
700 1 -1.1104 1.0386 30.0996 1.12552
703 1 -1.1104 0.789622 30.0228 3.82281
706 1 -1.1104 0.717141 32.9837 1.25024
707 2 2.2208 5.2545 31.1341 2.64913
709 1 -1.1104 1.01971 32.9315 4.0419
711 1 -1.1104 3.66666 29.9893 1.18628
714 1 -1.1104 3.68001 30.0795 3.92817
716 2 2.2208 2.1473 31.3836 5.23694
718 1 -1.1104 3.69654 32.7836 1.18936
719 1 -1.1104 3.68274 32.7083 3.94328
723 1 -1.1104 6.49363 29.9113 1.26271
857 1 -1.1104 3.68905 32.8468 6.77208
724 1 -1.1104 6.55554 29.9093 3.98934
9529 2 2.2208 13.4021 28.4688 2.6795
981 2 2.2208 5.18491 34.1467 -0.20882
971 2 2.2208 5.04929 28.45 -0.198651
954 2 2.2208 10.8217 39.94 -0.089106
9426 2 2.2208 13.6897 37.1642 11.1074
675 1 -1.1104 6.50898 27.1992 0.94284
683 1 -1.1104 12.0326 27.0768 1.04608
957 2 2.2208 5.27875 45.6011 -0.230323
693 1 -1.1104 9.41183 27.0653 1.19699
710 1 -1.1104 6.40816 32.4966 3.92953
725 1 -1.1104 6.43769 32.609 1.20734
679 2 2.2208 10.7868 28.581 5.42422
689 2 2.2208 8.04993 28.5522 2.5094
727 1 -1.1104 12.1824 29.993 1.13911
729 1 -1.1104 12.04 29.8501 4.12822
731 1 -1.1104 12.0495 32.7989 1.26679
732 2 2.2208 10.8619 31.3313 2.70004
734 1 -1.1104 12.2287 32.6534 4.11867
735 1 -1.1104 9.40771 29.9332 1.15033
738 1 -1.1104 9.39134 29.8855 4.02792
740 2 2.2208 7.94839 31.3294 5.45597
742 1 -1.1104 9.13629 32.8506 1.24473
743 1 -1.1104 9.247 32.6847 4.2163
9535 2 2.2208 -0.408413 42.6695 2.56511
671 1 -1.1104 12.1967 41.2276 9.83003
699 2 2.2208 5.14102 34.078 5.26992
701 1 -1.1104 1.16748 35.7406 1.05892
704 1 -1.1104 0.900016 35.6111 3.98743
708 2 2.2208 5.18826 37.1678 2.56691
712 1 -1.1104 3.80456 35.9234 1.10981
713 2 2.2208 2.46827 34.3955 2.61604
715 1 -1.1104 3.7552 35.7892 4.01547
717 2 2.2208 2.47762 37.0559 5.33626
745 2 2.2208 5.08857 40.0315 5.26044
751 1 -1.1104 0.770903 38.5137 0.997841
756 1 -1.1104 1.09025 38.4268 3.92207
761 2 2.2208 2.26372 39.9338 2.5318
765 1 -1.1104 3.79546 38.6729 1.11996
767 1 -1.1104 3.75276 38.5751 3.79086
856 1 -1.1104 3.50493 35.8257 6.82452
753 1 -1.1104 6.60221 38.3684 1.29288
758 1 -1.1104 6.41646 38.445 4.03928
702 1 -1.1104 6.6414 35.5615 1.17801
941 2 2.2208 7.86873 42.9483 11.0895
929 1 -1.1104 3.83659 38.7435 6.83388
977 2 2.2208 7.7448 31.5122 -0.425867
705 1 -1.1104 6.46549 35.5215 3.96924