ITEM: TIMESTEP
30000
ITEM: NUMBER OF ATOMS
17730
ITEM: BOX BOUNDS pp pp pp
-4.5192132878054697e-01 2.7791921328780486e+01
-5.3524344148558516e+00 3.3343243441485669e+02
-4.3410195561823073e-01 2.7774101955618473e+01
ITEM: ATOMS id type q x y z
1 2 2.2208 5.19781 0.29928 5.15125
2 1 -1.1104 1.05446 -3.82922 0.878894
6 1 -1.1104 1.1076 -3.88025 3.5916
10 1 -1.1104 1.11092 -1.02286 0.866689
12 2 2.2208 5.35708 -2.41705 2.28959
14 1 -1.1104 1.01887 -1.06011 3.65686
16 1 -1.1104 3.82848 -3.85102 0.731773
18 2 2.2208 2.37909 0.393699 2.42718
19 1 -1.1104 3.91329 -3.89527 3.6169
21 2 2.2208 2.46799 -2.43359 5.05519
23 1 -1.1104 3.94654 -0.876611 1.01715
24 1 -1.1104 3.74229 -1.11592 3.81803
11 1 -1.1104 6.61629 -1.17376 0.805477
338 2 2.2208 10.8498 0.304431 -0.448376
4 1 -1.1104 6.65865 -4.02844 0.81376
8780 2 2.2208 -0.408473 -2.69656 2.30073
170 1 -1.1104 1.03096 -1.23377 6.60904
172 1 -1.1104 3.62371 -3.76537 6.52908
202 2 2.2208 2.33776 -5.27192 7.9966
8790 2 2.2208 -0.320534 8.73428 2.47872
8 1 -1.1104 6.70899 -3.93066 3.61954
15 1 -1.1104 6.53714 -1.00657 3.66432
31 2 2.2208 10.8447 0.312262 5.1654
32 1 -1.1104 12.1295 -4.02449 0.751216
34 1 -1.1104 12.0863 -4.29035 3.67074
36 1 -1.1104 12.2182 -1.13293 0.821013
37 2 2.2208 10.8019 -2.39123 2.18704
39 1 -1.1104 12.2504 -1.1572 3.6866
40 1 -1.1104 9.23649 -3.90804 0.898483
42 2 2.2208 7.99782 0.500506 2.4149
43 1 -1.1104 9.34124 -4.08792 3.60273
45 2 2.2208 8.03309 -2.38232 5.18036
47 1 -1.1104 9.3865 -0.911248 1.2141
48 1 -1.1104 9.56006 -0.902699 3.6977
207 1 -1.1104 12.31 -1.40535 6.46836
210 1 -1.1104 9.59026 -1.14119 6.87777
171 1 -1.1104 6.78954 -1.09666 6.55998
168 1 -1.1104 6.34515 -3.82967 6.39995
205 1 -1.1104 12.0487 -4.12642 6.41814
8816 2 2.2208 -0.379119 6.01405 -0.318069
3 1 -1.1104 0.972386 1.68896 1.06524
7 1 -1.1104 0.85394 1.72502 3.82099
13 2 2.2208 5.30202 3.40845 2.42988
17 1 -1.1104 3.94704 1.94969 1.13415
20 1 -1.1104 3.76257 1.55528 3.95572
22 2 2.2208 2.09359 3.02066 5.20283
54 2 2.2208 5.28989 5.8737 5.17411
60 1 -1.1104 0.881769 4.52442 1.06549
67 1 -1.1104 1.04466 4.4995 3.73627
71 1 -1.1104 3.89032 7.41161 1.10546
72 2 2.2208 2.36966 5.86423 2.48678
74 1 -1.1104 3.88801 7.39054 3.83541
76 1 -1.1104 3.77938 4.68933 1.26024
79 1 -1.1104 3.70255 4.43205 3.98941
58 1 -1.1104 0.979922 7.386 3.94088
56 1 -1.1104 1.12444 7.14298 0.971113
9 1 -1.1104 6.75261 1.71769 3.8281
310 2 2.2208 5.09668 -2.37791 13.5818
313 2 2.2208 7.93786 -5.3014 13.537
167 1 -1.1104 0.900826 1.51758 6.51562
234 1 -1.1104 1.10467 7.06801 6.70359
238 1 -1.1104 4.016 7.44025 6.68517
169 1 -1.1104 6.71785 1.87931 6.67781
8703 2 2.2208 -0.327849 11.7376 10.952
5 1 -1.1104 6.62434 1.88244 0.914493
69 1 -1.1104 6.70763 4.5829 3.78618
57 1 -1.1104 6.7496 7.28776 1.10116
59 1 -1.1104 6.5761 7.33921 3.88231
63 1 -1.1104 6.90562 4.74243 0.909448
33 1 -1.1104 12.336 1.73575 0.903912
35 1 -1.1104 12.27 1.92058 3.80994
38 2 2.2208 11.0924 3.30762 2.34379
41 1 -1.1104 9.52655 1.80595 0.923834
44 1 -1.1104 9.31683 1.87533 3.66001
46 2 2.2208 8.23162 3.37638 5.19252
84 2 2.2208 11.0062 6.0914 5.3203
87 1 -1.1104 12.2403 7.6794 3.89307
88 1 -1.1104 12.4665 4.74349 1.03581
92 1 -1.1104 12.3948 4.75062 3.87222
94 1 -1.1104 9.5813 7.46346 1.10059
95 2 2.2208 8.00048 5.99949 2.44838
97 1 -1.1104 9.40331 7.19969 3.87411
99 1 -1.1104 9.82444 4.42912 0.863724
102 1 -1.1104 9.57512 4.53032 3.62002
86 1 -1.1104 12.364 7.29818 0.826917
266 1 -1.1104 12.3084 4.45751 6.79643
265 1 -1.1104 12.5495 7.35389 6.84806
209 1 -1.1104 9.48868 1.76285 6.5678
8801 2 2.2208 -0.308908 14.3357 8.02443
237 1 -1.1104 6.79041 4.65893 6.41931
269 1 -1.1104 9.54117 4.7767 6.55359
267 1 -1.1104 9.58715 7.49426 6.6286
206 1 -1.1104 12.125 1.33786 6.71716
55 2 2.2208 5.31158 11.5313 5.46392
61 1 -1.1104 1.41988 9.83477 1.10724
66 2 2.2208 5.12147 8.78999 2.4541
68 1 -1.1104 1.03501 10.2952 3.8762
73 2 2.2208 2.55023 11.5228 2.53148
75 2 2.2208 2.31732 8.82972 5.30891
77 1 -1.1104 3.91423 10.2532 0.923777
80 1 -1.1104 4.1985 10.1887 3.92794
107 1 -1.1104 1.03615 12.7254 0.876811
113 1 -1.1104 0.959093 13.0617 3.74058
123 1 -1.1104 3.92723 12.8948 0.814682
128 1 -1.1104 3.86041 13.1721 3.72029
110 1 -1.1104 6.77088 12.7671 0.874496
70 1 -1.1104 6.85535 10.2725 3.71561
115 1 -1.1104 6.86098 12.9831 3.75237
344 2 2.2208 5.18333 11.5807 -0.391147
62 1 -1.1104 1.12916 10.3242 6.70649
78 1 -1.1104 3.93594 10.0781 6.77452
326 2 2.2208 10.9516 20.2305 13.6076
8785 2 2.2208 -0.303063 -5.3602 5.12207
64 1 -1.1104 6.67547 10.0095 0.988976
85 2 2.2208 10.9626 11.6234 5.19437
89 1 -1.1104 12.3716 10.1491 0.82189
91 2 2.2208 10.8699 8.75663 2.36208
93 1 -1.1104 12.3805 10.1732 3.92357
96 2 2.2208 7.96629 11.6244 2.3636
98 2 2.2208 8.00019 8.74604 5.13951
100 1 -1.1104 9.50725 10.2751 0.916566
103 1 -1.1104 9.63496 10.0355 3.91524
142 1 -1.1104 12.442 12.9889 0.708518
146 1 -1.1104 12.4448 12.9343 3.55234
153 1 -1.1104 9.47212 13.2694 0.852687
158 1 -1.1104 9.55669 12.9462 3.8078
101 1 -1.1104 9.50631 10.3471 6.96821
106 2 2.2208 5.37744 17.2728 5.28921
109 1 -1.1104 1.07132 18.5201 0.828071
114 1 -1.1104 0.903137 18.88 3.63839
116 1 -1.1104 0.934777 15.6716 0.977892
119 2 2.2208 5.26693 14.3873 2.35331
120 2 2.2208 5.42248 20.0189 2.34154
121 1 -1.1104 1.14808 16.1737 3.92108
125 1 -1.1104 3.9549 18.7492 0.811317
127 2 2.2208 2.45332 17.2032 2.23018
129 1 -1.1104 3.79843 18.6394 3.77797
130 2 2.2208 2.39045 14.4739 5.08772
131 2 2.2208 2.41639 20.0605 5.21824
132 1 -1.1104 3.75866 15.6932 1.04956
134 1 -1.1104 4.08604 15.8604 3.85456
133 1 -1.1104 3.92487 15.9433 6.61044
140 1 -1.1104 6.51504 16.0601 1.07503
316 2 2.2208 10.9967 3.14111 13.7337
126 1 -1.1104 3.88309 18.7803 6.55397
203 2 2.2208 5.11928 -5.27365 10.6544
323 2 2.2208 2.35247 17.0627 13.4782
315 2 2.2208 10.8026 -2.54322 13.6205
314 2 2.2208 8.16905 0.279684 13.5591
29 2 2.2208 5.32946 -5.33336 4.94194
145 1 -1.1104 12.2964 18.9019 6.54883
8800 2 2.2208 -0.405396 0.277786 10.7967
122 1 -1.1104 6.96365 15.7551 3.864
138 1 -1.1104 6.75702 18.7201 0.968147
336 2 2.2208 2.40675 3.05443 -0.291487
139 1 -1.1104 6.62187 18.5219 3.71962
150 2 2.2208 10.9218 14.2918 2.26636
141 2 2.2208 10.8932 17.2918 5.21498
144 1 -1.1104 12.7141 18.5852 0.83238
147 1 -1.1104 12.4758 18.6017 3.68374
148 1 -1.1104 12.0061 15.9046 0.870665
151 2 2.2208 11.1524 20.0174 2.31272
152 1 -1.1104 12.3806 15.7258 3.73057
155 1 -1.1104 9.76488 18.7317 0.927192
157 2 2.2208 8.18588 17.1941 2.2642
159 1 -1.1104 9.59339 18.7445 3.6879
160 2 2.2208 8.19784 14.3024 5.06091
161 2 2.2208 8.30922 19.9139 5.17082
162 1 -1.1104 9.15489 15.7889 0.635392
164 1 -1.1104 9.64275 15.7756 3.67634
328 2 2.2208 8.14467 17.1654 13.6726
82 1 -1.1104 12.3246 15.855 9.50441
28 2 2.2208 2.57671 -5.18501 2.18856
166 1 -1.1104 0.999898 -3.93393 6.35944
232 2 2.2208 11.0495 -5.41258 10.7015
200 1 -1.1104 9.49476 15.8328 9.49686
8828 2 2.2208 -0.388082 0.297067 -0.35368
174 1 -1.1104 4.0211 -0.880538 6.68396
175 2 2.2208 5.0955 0.250644 10.7355
176 1 -1.1104 0.801996 -3.78307 12.437
180 1 -1.1104 0.98966 -3.88253 9.42508
184 1 -1.1104 0.880956 -1.0717 12.2583
186 2 2.2208 5.1213 -2.57228 7.95695
188 1 -1.1104 1.05354 -1.01568 9.48339
190 1 -1.1104 3.7085 -3.81998 12.083
192 2 2.2208 2.37142 0.105261 7.9071
193 1 -1.1104 3.78533 -4.02482 9.40679
195 2 2.2208 2.31758 -2.41634 10.842
197 1 -1.1104 3.74563 -1.0316 12.1258
198 1 -1.1104 3.73012 -1.20032 9.36357
182 1 -1.1104 6.71876 -4.07461 9.34217
105 2 2.2208 8.31297 17.2263 8.03613
199 1 -1.1104 9.30552 15.5599 12.2295
325 2 2.2208 5.30055 14.305 13.7012
185 1 -1.1104 6.62595 -1.11127 11.9384
208 1 -1.1104 9.40138 -4.15447 6.67476
178 1 -1.1104 6.85767 -3.97148 12.0857
189 1 -1.1104 6.66682 -1.27674 9.108
211 2 2.2208 11.1156 0.170234 10.8315
212 1 -1.1104 12.2707 -4.03769 11.9835
214 1 -1.1104 12.4365 -4.0538 9.30218
216 1 -1.1104 12.1214 -1.3073 12.263
217 2 2.2208 10.9577 -2.79613 8.11822
219 1 -1.1104 12.3084 -1.39639 9.27276
220 1 -1.1104 9.62239 -3.96657 12.3488
222 2 2.2208 8.1511 0.353076 7.98828
223 1 -1.1104 9.51505 -4.03916 9.36415
225 2 2.2208 8.05699 -2.50661 10.7625
227 1 -1.1104 9.45361 -1.29326 12.274
228 1 -1.1104 9.46879 -1.16056 9.62615
8796 2 2.2208 -0.444146 17.3958 5.13675
149 1 -1.1104 12.2508 16.0246 6.59278
27 1 -1.1104 12.3029 19.0693 12.0539
173 1 -1.1104 3.90098 2.01762 6.40094
236 1 -1.1104 0.805763 4.28331 6.51231
239 1 -1.1104 3.74719 4.77457 6.65396
177 1 -1.1104 1.1222 1.57658 12.4773
181 1 -1.1104 0.894266 1.6502 9.51027
187 2 2.2208 5.03964 3.20712 8.00594
191 1 -1.1104 3.94908 1.77291 12.1711
194 1 -1.1104 3.73731 1.62188 9.34936
196 2 2.2208 2.35997 2.94435 10.821
240 2 2.2208 5.50682 5.81436 10.9408
242 1 -1.1104 1.21098 7.1957 12.4083
244 1 -1.1104 1.22732 7.20679 9.42548
246 1 -1.1104 0.930936 4.44238 12.1759
251 1 -1.1104 1.05687 4.47676 9.40938
255 1 -1.1104 4.04962 7.12702 12.3838
256 2 2.2208 2.5685 5.98694 8.16785
258 1 -1.1104 3.92705 7.41726 9.43637
260 1 -1.1104 3.91157 4.32042 12.2037
262 1 -1.1104 3.79831 4.55499 9.38499
248 1 -1.1104 6.81673 4.37857 12.3021
183 1 -1.1104 6.39251 1.73978 9.59478
179 1 -1.1104 6.61809 1.68382 12.3442
235 1 -1.1104 6.79845 7.36607 6.60251
243 1 -1.1104 6.85393 7.07121 12.2274
49 1 -1.1104 12.6853 18.7705 9.32193
53 2 2.2208 10.8423 14.4556 8.07733
342 2 2.2208 5.31231 6.07 -0.318225
136 1 -1.1104 9.81672 18.8314 9.46447
8795 2 2.2208 -0.325795 20.0521 2.39359
165 2 2.2208 8.01608 20.0562 10.7324
253 1 -1.1104 6.55981 4.55684 9.22985
245 1 -1.1104 6.88889 7.26159 9.42087
213 1 -1.1104 12.431 1.54171 12.0881
215 1 -1.1104 12.4315 1.55807 9.37796
218 2 2.2208 11.0351 3.029 8.05393
221 1 -1.1104 9.73927 1.69226 12.2413
224 1 -1.1104 9.36363 1.69458 9.60445
226 2 2.2208 8.06066 3.24933 10.8283
268 1 -1.1104 9.61439 4.55119 9.38057
271 1 -1.1104 9.51167 4.39477 12.4514
273 1 -1.1104 9.74881 7.38481 9.76544
275 2 2.2208 8.19489 5.89621 7.96608
276 2 2.2208 10.8965 5.81356 10.8652
278 1 -1.1104 12.6016 7.46955 12.409
279 1 -1.1104 12.4035 7.12463 9.70761
280 1 -1.1104 12.4934 4.59005 12.2833
283 1 -1.1104 12.3066 4.47566 9.55882
285 1 -1.1104 9.57375 7.10776 12.5005
317 2 2.2208 2.65211 5.84579 13.5502
8799 2 2.2208 -0.450332 -2.6239 7.89659
108 1 -1.1104 1.16245 12.9545 6.61844
124 1 -1.1104 4.02157 13.0127 6.64833
241 2 2.2208 5.21919 11.4721 11.2009
247 1 -1.1104 1.03608 10.4141 12.2856
250 2 2.2208 5.28683 8.79664 7.98078
252 1 -1.1104 0.962248 9.85129 9.37463
257 2 2.2208 2.47216 11.638 8.13315
259 2 2.2208 2.3676 8.82878 11.0008
261 1 -1.1104 3.88224 9.93586 12.385
263 1 -1.1104 3.89944 10.1103 9.63629
287 1 -1.1104 3.86703 12.8991 12.3688
294 1 -1.1104 1.14784 12.8255 9.5639
299 1 -1.1104 0.901342 13.2637 12.2901
305 1 -1.1104 3.75446 12.8778 9.462
297 1 -1.1104 6.88655 12.8939 12.555
249 1 -1.1104 6.8278 10.0788 12.4629
104 1 -1.1104 9.71178 18.3289 12.3535
81 2 2.2208 11.0175 20.2272 8.15554
90 1 -1.1104 12.2022 10.309 6.76439
137 2 2.2208 8.22817 14.2675 10.8049
111 1 -1.1104 6.84499 12.8345 6.616
254 1 -1.1104 6.56042 10.1527 9.77489
65 1 -1.1104 6.57703 10.058 6.7018
143 1 -1.1104 12.3743 12.9919 6.34007
154 1 -1.1104 9.45013 12.9252 6.53525
290 1 -1.1104 6.62978 12.9786 9.54816
264 1 -1.1104 9.6539 10.1495 9.70991
270 1 -1.1104 9.6646 9.82051 12.4812
272 2 2.2208 8.26739 8.57445 10.9072
274 2 2.2208 7.92605 11.4281 8.17382
277 2 2.2208 11.0861 11.5297 10.6746
281 1 -1.1104 12.4014 10.291 12.2014
282 2 2.2208 11.0404 8.72941 8.11605
284 1 -1.1104 12.5441 9.97487 9.54191
135 1 -1.1104 9.55681 13.0029 9.38639
26 1 -1.1104 12.4088 13.1936 12.2601
30 1 -1.1104 12.2604 12.7755 9.40977
83 1 -1.1104 9.69378 12.6407 12.0497
8789 2 2.2208 -0.245957 5.78018 5.14711
8803 2 2.2208 -0.307096 19.9724 8.02874
302 1 -1.1104 1.04735 18.7766 6.5182
163 1 -1.1104 9.56801 15.8202 6.64383
118 1 -1.1104 6.58079 15.6545 6.66183
288 1 -1.1104 6.96181 18.6588 9.31432
296 1 -1.1104 6.77699 18.4933 12.0288
201 2 2.2208 2.37379 14.4604 10.7759
117 1 -1.1104 1.09328 15.7222 6.7525
289 1 -1.1104 6.87285 15.7168 9.33648
295 2 2.2208 5.46653 14.3503 8.05357
204 2 2.2208 2.4256 19.8381 10.8126
229 1 -1.1104 3.95221 15.5973 12.2531
230 1 -1.1104 1.00571 15.9886 12.09
286 1 -1.1104 3.74792 18.3674 12.2074
291 1 -1.1104 1.02671 18.5398 9.41806
292 1 -1.1104 0.94951 15.6841 9.38639
293 2 2.2208 5.12692 20.2245 8.08025
298 1 -1.1104 1.11318 18.651 12.2786
300 2 2.2208 5.34004 16.9881 10.9077
301 1 -1.1104 3.85842 18.5502 9.55978
303 2 2.2208 2.34449 17.2253 7.90031
304 1 -1.1104 3.92455 15.6912 9.35354
233 1 -1.1104 6.5295 15.5906 12.3438
112 1 -1.1104 6.99408 18.4631 6.47052
50 1 -1.1104 12.3357 15.9995 12.1918
25 2 2.2208 11.0685 17.3401 10.7958
156 1 -1.1104 9.76163 18.5949 6.7152
8711 2 2.2208 -0.284697 5.926 10.8827
8710 2 2.2208 -0.439422 9.0137 8.10735
8787 2 2.2208 13.5007 -2.69479 5.06417
327 2 2.2208 10.8947 14.3902 13.6623
324 2 2.2208 5.2315 19.9023 13.5736
8812 2 2.2208 13.6046 0.161214 13.5646
346 2 2.2208 5.32732 0.277967 16.4322
347 1 -1.1104 0.948715 -4.39053 17.7456
351 1 -1.1104 0.916744 -4.32662 15.0963
359 1 -1.1104 0.936785 -1.16265 17.836
361 2 2.2208 4.94211 -2.7347 19.1796
363 1 -1.1104 0.93631 -1.4676 15.0656
367 1 -1.1104 3.65423 -4.03448 17.899
369 2 2.2208 2.36123 0.27474 19.1491
370 1 -1.1104 3.77368 -3.80965 15.0966
374 2 2.2208 2.28069 -2.80318 16.4745
376 1 -1.1104 3.93793 -1.39341 17.7443
377 1 -1.1104 3.80583 -1.13034 14.7727
378 1 -1.1104 3.7671 -1.24795 20.5007
349 1 -1.1104 6.63981 -3.99759 17.8953
360 1 -1.1104 6.54933 -1.32098 17.9615
415 2 2.2208 8.05299 -5.2225 19.2105
8938 2 2.2208 -0.319364 8.79387 25.0216
355 1 -1.1104 6.53908 -3.86089 14.7491
365 1 -1.1104 6.60403 -1.29391 15.1462
389 2 2.2208 10.9485 0.258506 16.36
390 1 -1.1104 12.5028 -4.09065 18.1735
392 1 -1.1104 12.062 -3.98485 15.1895
396 1 -1.1104 12.0848 -1.13264 17.9256
397 2 2.2208 11.1021 -2.67167 19.2679
399 1 -1.1104 12.3906 -1.18936 15.2147
401 1 -1.1104 9.56697 -3.80567 17.6978
403 2 2.2208 8.10632 0.0495759 19.2483
404 1 -1.1104 9.28644 -3.9974 14.9693
408 2 2.2208 7.9237 -2.49102 16.3361
410 1 -1.1104 9.38204 -1.14211 17.8239
411 1 -1.1104 9.38478 -0.941085 15.1282
366 1 -1.1104 6.54394 -1.33439 20.8427
393 1 -1.1104 12.3884 -4.04031 20.8386
400 1 -1.1104 12.3383 -1.20247 20.7792
8847 2 2.2208 -0.437979 14.5316 13.8242
340 2 2.2208 8.23496 3.06754 27.659
412 1 -1.1104 9.50115 -1.15731 20.7808
9009 2 2.2208 -0.41961 8.64255 19.3745
348 1 -1.1104 0.816706 1.58892 17.8505
353 1 -1.1104 1.04021 1.51112 15.1405
362 2 2.2208 5.31502 2.96769 19.2721
368 1 -1.1104 3.64896 1.58617 17.7929
372 1 -1.1104 3.88005 1.52365 15.1098
375 2 2.2208 2.48456 3.01953 16.4803
422 2 2.2208 5.44797 5.96478 16.4435
426 1 -1.1104 1.02457 7.23078 15.124
430 1 -1.1104 1.18215 4.44442 18.1025
435 1 -1.1104 1.37398 3.97714 14.9007
443 1 -1.1104 3.97075 7.47262 17.9253
444 2 2.2208 2.69484 6.05742 19.2876
446 1 -1.1104 4.03213 7.21585 15.1472
449 1 -1.1104 3.91613 4.53097 18.0008
451 1 -1.1104 4.02433 4.43392 14.8724
424 1 -1.1104 1.20337 7.30168 17.9621
357 1 -1.1104 6.87379 1.54064 15.2702
432 1 -1.1104 6.71263 4.42089 17.8683
428 1 -1.1104 6.82958 7.48607 15.1666
452 1 -1.1104 3.9239 4.37989 20.9596
436 1 -1.1104 0.975107 4.54697 20.8702
354 1 -1.1104 1.05859 1.68589 20.9712
425 1 -1.1104 6.84614 7.20482 17.9198
350 1 -1.1104 6.54494 1.54076 17.9676
439 1 -1.1104 6.5874 4.41858 15.1979
391 1 -1.1104 12.3298 1.75013 17.8105
394 1 -1.1104 12.2954 1.74838 15.0373
398 2 2.2208 10.687 3.05975 19.2795
402 1 -1.1104 9.5755 1.56937 17.7004
406 1 -1.1104 9.68351 1.75375 15.0706
409 2 2.2208 8.11802 2.97908 16.6256
458 2 2.2208 11.1169 5.90782 16.4038
460 1 -1.1104 12.5365 7.1957 17.8111
461 1 -1.1104 12.4178 7.21915 15.0859
463 1 -1.1104 12.4606 4.46672 17.9793
466 1 -1.1104 12.4464 4.60098 15.0088
470 1 -1.1104 9.61393 7.57006 18.0541
471 2 2.2208 8.10533 6.06398 19.2306
473 1 -1.1104 9.50847 7.31887 15.1187
476 1 -1.1104 9.4906 4.82044 17.8416
478 1 -1.1104 9.65442 4.57963 15.2207
407 1 -1.1104 9.29497 1.64986 20.5102
479 1 -1.1104 9.47037 4.63208 20.7015
330 2 2.2208 2.41246 19.949 27.7903
429 1 -1.1104 6.63879 7.23325 20.644
358 1 -1.1104 6.56941 1.78069 20.7545
395 1 -1.1104 12.311 1.66665 20.8592
423 2 2.2208 5.40782 11.5178 16.6145
431 1 -1.1104 1.20097 9.97225 17.8173
434 2 2.2208 5.40615 8.81608 19.3831
437 1 -1.1104 1.0281 9.98425 14.9991
445 2 2.2208 2.49675 11.5214 19.3417
448 2 2.2208 2.46779 8.64847 16.4814
450 1 -1.1104 4.07807 10.1499 17.7853
453 1 -1.1104 4.07345 10.037 15.1029
486 1 -1.1104 1.10645 12.9157 18.1199
490 1 -1.1104 1.11651 13.0334 15.132
506 1 -1.1104 3.9549 12.8073 18.1766
509 1 -1.1104 4.09762 12.8451 15.3026
488 1 -1.1104 6.72399 12.8647 18.0664
8975 2 2.2208 -0.312406 11.6115 16.67
433 1 -1.1104 6.84513 10.001 17.9583
441 1 -1.1104 6.94932 10.254 15.4613
494 1 -1.1104 6.73739 13.0106 15.1327
306 2 2.2208 8.06038 14.1772 27.619
459 2 2.2208 10.8445 11.592 16.5653
464 1 -1.1104 12.5762 10.076 18.0232
465 2 2.2208 11.0246 8.81015 19.4477
468 1 -1.1104 12.5501 10.0869 15.1436
472 2 2.2208 7.9294 11.4893 19.5137
475 2 2.2208 8.41306 8.73062 16.4461
477 1 -1.1104 9.68124 10.2164 17.949
480 1 -1.1104 9.79608 10.36 15.057
522 1 -1.1104 12.0728 13.0965 17.9944
524 1 -1.1104 12.115 13.0407 15.1078
533 1 -1.1104 9.46399 12.9631 17.587
536 1 -1.1104 9.38788 13.007 14.9537
525 1 -1.1104 12.2785 13.1118 20.7546
481 1 -1.1104 9.54042 10.2122 20.6754
334 2 2.2208 10.9812 5.88849 27.7911
8966 2 2.2208 -0.453429 3.12171 24.9577
485 2 2.2208 5.35224 17.1843 16.4646
487 1 -1.1104 1.03133 18.5546 17.9094
492 1 -1.1104 1.09062 18.314 15.0864
498 1 -1.1104 0.967698 15.7674 17.9606
500 2 2.2208 5.34822 14.3004 19.2491
501 2 2.2208 5.27428 20.1108 19.2164
502 1 -1.1104 0.99493 15.7024 15.2211
507 1 -1.1104 3.84827 18.4272 17.8311
508 2 2.2208 2.35198 17.285 19.2346
511 1 -1.1104 4.02243 18.4557 15.0069
513 2 2.2208 2.56381 14.199 16.6143
514 2 2.2208 2.47683 19.7237 16.3573
515 1 -1.1104 3.96468 15.5058 18.0733
516 1 -1.1104 3.9494 15.5907 15.2049
499 1 -1.1104 6.80623 15.8483 17.9197
496 1 -1.1104 6.73293 18.5749 14.8857
580 2 2.2208 2.32902 -5.26657 24.7981
503 1 -1.1104 1.0444 15.8073 20.8265
493 1 -1.1104 0.850587 18.6069 20.745
608 2 2.2208 10.9372 -5.27641 22.0484
504 1 -1.1104 6.69715 15.8184 14.9656
489 1 -1.1104 6.68439 18.584 17.8144
333 2 2.2208 8.23317 8.61629 27.7547
529 2 2.2208 10.8346 14.3868 19.3545
521 2 2.2208 10.941 17.2517 16.4817
523 1 -1.1104 12.4085 18.805 17.6473
526 1 -1.1104 12.3074 18.928 14.8225
528 1 -1.1104 12.4795 15.8841 17.807
530 2 2.2208 10.9379 20.0788 19.2798
531 1 -1.1104 12.3371 15.9032 15.0233
534 1 -1.1104 9.58988 18.8355 17.8789
535 2 2.2208 8.066 17.262 19.171
538 1 -1.1104 9.65176 18.9201 15.1084
540 2 2.2208 8.09411 14.3334 16.5242
541 2 2.2208 8.16087 20.1206 16.7113
542 1 -1.1104 9.59089 16.1026 17.9495
543 1 -1.1104 9.59767 15.9072 15.1395
609 2 2.2208 8.09121 -5.36747 24.7206
9080 2 2.2208 -0.339685 14.1753 19.4491
9010 2 2.2208 -0.159578 6.01863 16.6459
307 2 2.2208 10.9127 17.3174 27.7136
364 1 -1.1104 0.904814 -1.25012 20.6429
320 2 2.2208 8.20688 5.861 13.6779
8937 2 2.2208 -0.340287 3.11704 19.2186
371 1 -1.1104 3.68966 -4.04648 20.7315
8936 2 2.2208 -0.341608 11.4026 22.0557
532 1 -1.1104 12.4363 15.7767 20.8138
318 2 2.2208 5.48462 8.7326 13.803
380 2 2.2208 5.26977 -5.2983 16.435
8967 2 2.2208 -0.446044 0.218287 22.1144
8897 2 2.2208 -0.337922 14.1713 24.9595
352 1 -1.1104 0.720333 -3.98465 20.7051
356 1 -1.1104 6.38489 -3.88625 20.6414
549 2 2.2208 5.17957 0.236759 21.9673
550 1 -1.1104 0.885741 -3.9229 23.3772
554 1 -1.1104 0.949895 -3.97677 26.2553
558 1 -1.1104 0.920517 -1.08786 23.4041
560 2 2.2208 5.19023 -2.5384 24.9276
562 1 -1.1104 0.803337 -1.25222 26.4373
564 1 -1.1104 3.61174 -3.81436 23.5631
566 2 2.2208 2.49383 0.373502 24.9064
567 1 -1.1104 3.93854 -3.93266 26.3665
569 2 2.2208 2.26389 -2.49919 21.9695
571 1 -1.1104 3.81195 -0.95872 23.3955
572 1 -1.1104 3.5765 -1.08026 26.3449
552 1 -1.1104 6.60647 -4.02461 23.4462
405 1 -1.1104 9.40847 -4.06079 20.5804
332 2 2.2208 10.9185 11.5958 27.772
579 2 2.2208 4.97856 -5.21767 22.1068
584 1 -1.1104 9.52388 18.5486 23.6611
539 1 -1.1104 9.43572 18.7423 20.5474
556 1 -1.1104 6.60454 -4.06108 26.1998
559 1 -1.1104 6.78015 -1.29414 23.6644
563 1 -1.1104 6.77371 -1.19706 26.3232
585 2 2.2208 10.9383 0.141024 22.2414
586 1 -1.1104 12.2545 -3.89344 23.5196
588 1 -1.1104 12.2656 -4.02936 26.3928
590 1 -1.1104 12.4719 -1.12483 23.5779
591 2 2.2208 11.0053 -2.69763 25.0434
593 1 -1.1104 12.3552 -1.27502 26.4864
594 1 -1.1104 9.56366 -3.84803 23.4695
596 2 2.2208 8.0593 0.268084 24.8836
597 1 -1.1104 9.45202 -4.01931 26.3902
599 2 2.2208 8.20321 -2.66419 22.1728
601 1 -1.1104 9.66713 -1.19988 23.6207
602 1 -1.1104 9.46326 -1.11953 26.3691
373 1 -1.1104 3.75113 1.5677 20.601
440 1 -1.1104 6.61991 4.50268 20.672
427 1 -1.1104 0.888262 7.3334 20.717
447 1 -1.1104 3.58207 7.38014 20.9278
551 1 -1.1104 0.777804 1.54508 23.6795
555 1 -1.1104 1.15797 1.61131 26.3225
561 2 2.2208 5.30112 3.21674 24.8765
565 1 -1.1104 3.69295 1.68024 23.4807
568 1 -1.1104 3.94771 1.85747 26.5012
570 2 2.2208 2.38053 3.10029 22.2422
614 2 2.2208 5.12839 5.81223 22.2457
616 1 -1.1104 1.11308 7.17956 23.4607
618 1 -1.1104 0.964282 7.2831 26.3396
620 1 -1.1104 1.04559 4.4173 23.7452
625 1 -1.1104 0.915906 4.43841 26.3843
629 1 -1.1104 4.02173 7.33632 23.7828
630 2 2.2208 2.39049 5.90033 25.0041
632 1 -1.1104 3.98664 7.45508 26.5355
634 1 -1.1104 3.79541 4.53763 23.6862
636 1 -1.1104 4.04084 4.59004 26.5286
617 1 -1.1104 6.67474 7.19865 23.3792
619 1 -1.1104 6.72994 7.32739 26.2441
557 1 -1.1104 6.92279 1.64628 26.1863
319 2 2.2208 2.57583 11.5619 13.7064
345 2 2.2208 2.45377 14.2647 27.5725
467 1 -1.1104 12.1862 4.55939 20.4919
627 1 -1.1104 6.81381 4.35457 26.2395
553 1 -1.1104 6.66478 1.63502 23.5003
622 1 -1.1104 6.6262 4.35853 23.2655
462 1 -1.1104 12.3675 7.35226 20.8289
474 1 -1.1104 9.41053 7.47866 20.7763
587 1 -1.1104 12.3524 1.64856 23.5916
589 1 -1.1104 12.3499 1.64929 26.2462
592 2 2.2208 10.9275 3.05235 24.8075
595 1 -1.1104 9.46497 1.76693 23.4786
598 1 -1.1104 9.58622 1.59956 26.2329
600 2 2.2208 8.14859 3.04883 22.0485
573 1 -1.1104 9.32715 7.30539 23.4368
575 1 -1.1104 12.265 4.28939 26.2876
604 1 -1.1104 12.2546 4.40133 23.3141
605 1 -1.1104 12.3839 7.21479 26.3421
607 1 -1.1104 12.2811 7.23579 23.5235
639 2 2.2208 10.8509 5.93496 22.0586
640 2 2.2208 8.16941 5.86424 24.9436
646 1 -1.1104 9.64114 4.545 26.29
648 1 -1.1104 9.36564 4.49444 23.4073
650 1 -1.1104 9.39911 7.1145 26.4313
491 1 -1.1104 1.11042 12.8763 21.0399
438 1 -1.1104 1.101 10.1377 20.5729
454 1 -1.1104 4.09867 10.2348 20.6991
510 1 -1.1104 3.91821 13.0514 20.899
615 2 2.2208 5.42305 11.6964 22.2428
621 1 -1.1104 0.999549 10.1948 23.4348
624 2 2.2208 5.30108 8.73673 25.1258
626 1 -1.1104 1.10806 9.89297 26.4072
631 2 2.2208 2.63929 11.4963 25.0033
633 2 2.2208 2.3619 8.69191 22.2246
635 1 -1.1104 3.94068 10.2833 23.5762
637 1 -1.1104 4.0938 10.1063 26.35
386 1 -1.1104 3.75172 12.7501 26.2121
420 1 -1.1104 1.30328 12.9023 23.7324
483 1 -1.1104 0.963478 12.6191 26.3612
520 1 -1.1104 3.94621 13.2161 23.6327
455 1 -1.1104 6.85961 13.1383 23.4768
628 1 -1.1104 6.77745 10.0648 26.2836
442 1 -1.1104 6.70136 10.0744 20.6657
8837 2 2.2208 -0.349157 8.62929 13.7944
308 2 2.2208 8.07145 19.9912 27.726
606 2 2.2208 7.97942 17.2104 24.7328
495 1 -1.1104 6.71167 13.0697 20.8855
623 1 -1.1104 6.90626 9.97051 23.4216
537 1 -1.1104 9.38971 13.0178 20.69
469 1 -1.1104 12.4053 10.3683 20.7253
545 1 -1.1104 6.78614 12.9701 26.3111
574 1 -1.1104 12.4522 10.1543 26.362
578 2 2.2208 10.9248 8.62895 24.9085
603 1 -1.1104 12.3758 10.1801 23.586
638 2 2.2208 10.9455 11.5917 22.0934
644 2 2.2208 8.21126 11.5237 24.7055
645 1 -1.1104 9.60445 9.94869 26.3291
647 1 -1.1104 9.71121 10.0297 23.4772
649 2 2.2208 7.94144 8.57974 22.0669
413 1 -1.1104 12.4108 12.9296 23.5167
418 1 -1.1104 12.3744 12.9132 26.3227
583 1 -1.1104 9.68239 12.8532 23.4617
611 1 -1.1104 9.4227 12.8198 26.1887
582 1 -1.1104 12.4331 15.8339 26.3071
643 1 -1.1104 9.39135 15.5149 26.3215
610 1 -1.1104 6.70774 18.6831 26.2889
505 1 -1.1104 6.69866 15.9162 20.5926
512 1 -1.1104 3.66363 18.5062 20.7371
517 1 -1.1104 3.79078 15.8364 20.5635
547 2 2.2208 2.43588 14.5176 22.1969
546 1 -1.1104 3.8586 18.6194 23.3348
482 1 -1.1104 6.48981 18.489 23.465
456 2 2.2208 5.23741 14.4994 24.9222
379 2 2.2208 2.46853 19.8832 21.9675
382 1 -1.1104 3.66067 15.9016 23.5681
383 1 -1.1104 0.875732 16.0447 23.4966
387 1 -1.1104 3.89162 15.7187 26.3278
388 2 2.2208 2.28 17.2873 24.9043
416 1 -1.1104 3.75618 18.4752 26.3646
419 2 2.2208 5.05494 17.1598 21.9722
421 1 -1.1104 1.06986 18.7002 23.5488
457 2 2.2208 5.06061 19.952 24.8995
484 1 -1.1104 1.01372 15.8482 26.4305
518 1 -1.1104 1.1557 18.7569 26.2299
548 1 -1.1104 12.4246 18.6489 26.2484
417 1 -1.1104 12.3057 18.599 23.5079
612 1 -1.1104 9.46139 18.6191 26.1839
581 2 2.2208 10.962 20.1539 24.7431
497 1 -1.1104 6.65032 18.5989 20.689
642 1 -1.1104 9.49623 15.5701 23.6704
576 1 -1.1104 12.3765 15.6109 23.6548
519 1 -1.1104 6.58016 15.8505 26.2825
641 2 2.2208 7.97424 20.0206 21.9613
385 1 -1.1104 6.5502 15.819 23.383
527 1 -1.1104 12.293 18.6296 20.6452
544 1 -1.1104 9.58065 15.9709 20.9089
577 2 2.2208 10.9312 14.2983 24.8518
613 2 2.2208 8.11016 14.5679 22.0878
384 2 2.2208 11.0299 17.2421 22.0785
311 2 2.2208 2.36282 0.175567 13.7422
9081 2 2.2208 -0.275602 17.1066 16.4717
329 2 2.2208 5.29577 0.251739 27.7222
9079 2 2.2208 -0.222976 20.1716 19.3115
339 2 2.2208 7.95457 -2.5999 27.7452
343 2 2.2208 2.58433 8.72956 27.7192
321 2 2.2208 11.1272 8.56848 13.7493
335 2 2.2208 2.35901 -2.48791 27.5973
8971 2 2.2208 -0.403944 -2.55664 24.8245
8895 2 2.2208 13.5149 5.88543 24.8593
322 2 2.2208 8.32876 11.4021 13.7193
331 2 2.2208 5.17352 17.3196 27.7547
8813 2 2.2208 -0.348391 17.2858 27.6919
8819 2 2.2208 -0.208245 11.301 27.7464
8822 2 2.2208 -0.406786 3.06517 13.6999
312 2 2.2208 5.43353 2.97056 13.7075
651 2 2.2208 5.23846 22.8481 4.90941
653 1 -1.1104 1.22555 24.3576 1.17618
654 1 -1.1104 1.17026 24.4055 3.7464
655 1 -1.1104 1.01503 21.6383 1.10101
657 2 2.2208 5.3893 25.5932 2.21374
658 1 -1.1104 1.03862 21.5062 3.91388
660 1 -1.1104 4.19435 24.3101 0.755435
661 2 2.2208 2.53502 22.8722 2.23713
663 1 -1.1104 3.85261 24.2382 3.50192
664 2 2.2208 2.41177 25.6233 5.19156
665 1 -1.1104 3.88785 21.5217 0.695229
667 1 -1.1104 4.01522 21.4269 3.61394
666 1 -1.1104 4.03718 26.9493 0.958026
656 1 -1.1104 1.20442 27.1435 1.05414
659 1 -1.1104 1.11927 27.1279 3.88779
668 1 -1.1104 3.77761 27.2207 4.06005
9534 2 2.2208 13.5924 34.0687 2.41558
9368 2 2.2208 13.5626 28.5059 7.9984
794 1 -1.1104 0.982642 21.2938 6.68074
953 2 2.2208 7.99651 22.8931 13.5188
9527 2 2.2208 -0.0821443 25.7661 2.37431
677 1 -1.1104 6.70726 27.1669 3.76637
672 1 -1.1104 7.06031 24.1086 1.04059
9490 2 2.2208 13.6049 45.2395 8.13617
673 1 -1.1104 6.79906 24.4184 3.78599
675 1 -1.1104 6.82748 27.137 0.817628
674 1 -1.1104 6.6467 21.4531 0.96183
676 1 -1.1104 7.02463 21.4988 3.87817
678 2 2.2208 11.1197 22.9336 5.09926
680 1 -1.1104 12.4015 24.1994 1.03997
681 1 -1.1104 12.4027 24.3519 3.95861
682 1 -1.1104 12.5943 21.2721 0.899238
684 2 2.2208 11.1094 25.7109 2.31228
685 1 -1.1104 12.4259 21.4757 3.66465
687 1 -1.1104 9.69894 24.1788 0.91035
688 2 2.2208 8.31948 22.7115 2.40426
690 1 -1.1104 9.61533 24.3733 4.09126
691 2 2.2208 8.07203 25.6753 5.1791
692 1 -1.1104 9.51602 21.2948 0.824968
694 1 -1.1104 9.90188 21.706 3.72354
695 1 -1.1104 9.57712 27.1732 3.68752
797 1 -1.1104 6.61152 27.1696 6.56975
829 1 -1.1104 9.51374 21.626 6.41388
825 1 -1.1104 12.3772 24.5727 6.4361
828 1 -1.1104 9.49153 24.1882 6.53842
826 1 -1.1104 12.4927 21.6554 6.57801
827 1 -1.1104 12.3159 27.0874 6.45322
652 2 2.2208 5.30149 28.4971 5.24321
662 2 2.2208 2.60252 28.4877 2.45602
700 1 -1.1104 1.27529 30.0183 0.954346
703 1 -1.1104 1.14745 29.7698 4.02615
706 1 -1.1104 1.08036 32.6743 1.1528
707 2 2.2208 5.46757 31.1418 2.42434
709 1 -1.1104 0.907746 32.4785 4.07628
711 1 -1.1104 3.92757 29.9199 1.10326
714 1 -1.1104 3.83039 29.7898 3.88178
716 2 2.2208 2.46709 31.3255 5.32679
718 1 -1.1104 3.72721 32.654 0.992341
719 1 -1.1104 3.8171 32.799 3.85916
696 1 -1.1104 9.29681 43.9601 6.61158
980 2 2.2208 2.42606 31.3375 -0.351795
9525 2 2.2208 13.5988 42.6075 10.7344
957 2 2.2208 4.94544 45.4817 -0.163614
853 1 -1.1104 1.13404 32.7299 6.85082
9422 2 2.2208 13.4254 34.3139 8.05475
683 1 -1.1104 12.3165 27.0553 0.839039
686 1 -1.1104 12.4638 27.163 3.74145
693 1 -1.1104 9.6477 27.0686 0.899535
725 1 -1.1104 6.72321 32.5798 0.952973
723 1 -1.1104 6.88124 29.8998 0.834918
710 1 -1.1104 6.53395 32.6179 4.04115
724 1 -1.1104 6.60601 29.8882 3.87309
679 2 2.2208 10.8265 28.4461 5.09999
689 2 2.2208 8.03839 28.6341 2.49369
727 1 -1.1104 12.5593 29.8895 0.704523
729 1 -1.1104 12.1572 29.813 3.7069
731 1 -1.1104 12.1817 32.6642 0.677222
732 2 2.2208 10.9159 31.2827 2.38407
734 1 -1.1104 12.2217 32.6015 3.72566
735 1 -1.1104 9.74155 29.8914 0.932078
738 1 -1.1104 9.41098 30.1401 3.83137
740 2 2.2208 8.14851 31.3054 5.20947
742 1 -1.1104 9.64197 32.6964 1.14074
743 1 -1.1104 9.31646 32.9084 4.04682
1503 1 -1.1104 12.0927 46.8565 7.02192
882 2 2.2208 7.67073 45.1123 8.06666
962 2 2.2208 7.86685 42.6595 -0.361451
9480 2 2.2208 13.6629 39.854 7.99048
699 2 2.2208 5.31131 33.9793 5.27841
701 1 -1.1104 0.916259 35.7178 1.30459
704 1 -1.1104 0.998743 35.4301 3.78392
708 2 2.2208 5.21192 36.947 2.5123
712 1 -1.1104 3.5232 35.5466 0.893092
713 2 2.2208 2.41176 34.1114 2.50626
715 1 -1.1104 3.7908 35.4427 4.09389
717 2 2.2208 2.42052 36.9715 5.35834
745 2 2.2208 5.15317 39.7793 5.29888
751 1 -1.1104 0.889011 38.498 1.0349
756 1 -1.1104 1.0715 38.4589 4.15531
761 2 2.2208 2.29806 39.7932 2.53152
765 1 -1.1104 3.53415 38.2577 1.20595
767 1 -1.1104 3.96185 38.2232 3.97781
758 1 -1.1104 6.5423 38.2604 3.82231
9404 2 2.2208 -0.399113 25.6669 7.96489
753 1 -1.1104 6.57912 38.1169 1.04977
940 1 -1.1104 9.64833 41.1013 9.81402
923 1 -1.1104 0.727568 38.4078 6.95395
9539 2 2.2208 13.6288 40.1062 2.48135
9524 2 2.2208 -0.428139 28.3269 5.3301
9532 2 2.2208 -0.223029 31.0862 2.58656
9431 2 2.2208 13.4348 31.6488 10.5585