ITEM: TIMESTEP
100000
ITEM: NUMBER OF ATOMS
17730
ITEM: BOX BOUNDS pp pp pp
-4.4471392455726921e-01 2.7784713924557476e+01
-5.3475583481313693e+00 3.3342755834813147e+02
-4.3348178499499435e-01 2.7773481784995678e+01
ITEM: ATOMS id type q x y z
1 2 2.2208 5.39328 0.356251 5.50856
2 1 -1.1104 1.23071 -3.81263 1.10206
6 1 -1.1104 1.30635 -4.15837 4.07975
10 1 -1.1104 1.18871 -1.00614 0.966758
12 2 2.2208 5.4558 -2.60795 2.69375
14 1 -1.1104 1.14946 -1.09661 3.9228
16 1 -1.1104 3.97617 -4.14414 1.28102
18 2 2.2208 2.55293 0.33415 2.52141
19 1 -1.1104 4.01321 -3.73377 4.07662
21 2 2.2208 2.45714 -2.37159 5.41831
23 1 -1.1104 4.11839 -1.23515 1.21858
24 1 -1.1104 3.88829 -0.967154 4.07055
4 1 -1.1104 6.94117 -3.62159 1.34632
172 1 -1.1104 4.16877 -3.94051 6.77801
174 1 -1.1104 3.76395 -0.988976 6.78697
289 1 -1.1104 6.53303 15.6845 9.40216
8743 2 2.2208 13.6046 20.2992 10.9147
52 2 2.2208 10.9671 -5.31497 5.14246
8798 2 2.2208 -0.412764 3.00788 8.08619
8558 2 2.2208 13.5234 20.0964 5.18018
8796 2 2.2208 -0.3687 17.0697 5.28622
8 1 -1.1104 6.99685 -3.99391 4.08005
11 1 -1.1104 6.93051 -0.965571 1.11125
15 1 -1.1104 6.77727 -1.35529 3.94627
31 2 2.2208 11.2181 0.367595 5.31357
32 1 -1.1104 12.3277 -3.79369 1.10062
34 1 -1.1104 12.2739 -3.8992 3.97832
36 1 -1.1104 12.3929 -0.968575 0.854398
37 2 2.2208 11.0436 -2.39412 2.48493
39 1 -1.1104 12.4597 -0.961439 3.84366
40 1 -1.1104 9.65525 -3.76993 1.08761
42 2 2.2208 8.24291 0.265383 2.68832
43 1 -1.1104 9.59939 -3.56836 3.84877
45 2 2.2208 8.22903 -2.4779 5.41957
47 1 -1.1104 9.57668 -0.999315 1.36615
48 1 -1.1104 9.6629 -0.909525 4.04147
341 2 2.2208 11.0818 -5.33172 -0.372443
8710 2 2.2208 -0.336315 8.73192 8.05446
330 2 2.2208 2.26347 19.9911 -0.393718
3 1 -1.1104 1.27189 1.73726 0.891173
7 1 -1.1104 1.09941 1.7016 3.82146
13 2 2.2208 5.24981 3.04827 2.68384
17 1 -1.1104 3.96657 1.59211 1.02634
20 1 -1.1104 3.70933 1.58313 4.01058
22 2 2.2208 2.61959 3.10941 5.41696
54 2 2.2208 5.29631 6.03526 5.34483
60 1 -1.1104 1.07559 4.47517 1.01477
67 1 -1.1104 1.34793 4.48938 3.98826
72 2 2.2208 2.6369 5.92559 2.57855
76 1 -1.1104 4.06127 4.20148 1.41101
79 1 -1.1104 4.08283 4.37369 4.18929
71 1 -1.1104 3.82614 6.96811 0.940656
56 1 -1.1104 0.962515 7.37967 1.01163
74 1 -1.1104 4.04485 7.42163 3.89548
57 1 -1.1104 6.63472 7.50578 0.947462
58 1 -1.1104 1.15794 7.26489 3.97138
239 1 -1.1104 3.99067 4.47065 6.56917
238 1 -1.1104 3.85794 7.09723 6.68665
5 1 -1.1104 6.87853 1.73135 1.27982
63 1 -1.1104 6.74404 4.73023 1.22293
8782 2 2.2208 13.606 17.3165 8.10416
8783 2 2.2208 -0.399446 0.296173 5.32929
59 1 -1.1104 6.93193 7.32877 3.88539
9 1 -1.1104 6.60398 1.45837 3.91255
69 1 -1.1104 6.82623 4.51035 4.12305
33 1 -1.1104 12.3091 2.00067 1.14806
35 1 -1.1104 12.3865 1.69427 3.86821
38 2 2.2208 11.0417 3.27047 2.46398
41 1 -1.1104 9.57372 1.81412 1.0869
44 1 -1.1104 9.63319 1.7924 4.09943
46 2 2.2208 8.20076 3.10071 5.45101
84 2 2.2208 11.0046 5.76241 5.44806
87 1 -1.1104 12.5559 7.18314 3.99136
88 1 -1.1104 12.3612 4.77956 1.01155
92 1 -1.1104 12.5708 4.51256 4.03202
94 1 -1.1104 9.57875 7.51309 1.2982
95 2 2.2208 8.17724 5.89911 2.53184
99 1 -1.1104 9.51513 4.65694 0.90902
102 1 -1.1104 9.68413 4.55016 3.71558
97 1 -1.1104 9.62421 7.21854 4.18337
86 1 -1.1104 12.476 7.44026 1.06527
28 2 2.2208 2.6801 -5.32856 2.60411
231 2 2.2208 8.08282 -5.33407 8.04222
55 2 2.2208 5.46905 11.4941 5.20306
61 1 -1.1104 0.904496 9.94322 1.15012
66 2 2.2208 5.43701 8.77107 2.38653
68 1 -1.1104 1.06873 10.158 3.65499
73 2 2.2208 2.58703 11.4978 2.37397
75 2 2.2208 2.40123 8.69144 5.36081
77 1 -1.1104 3.76362 10.0863 1.09101
80 1 -1.1104 3.78673 10.1485 3.90147
107 1 -1.1104 1.01338 13.0656 0.845899
113 1 -1.1104 1.12174 13.014 3.79377
123 1 -1.1104 3.82652 12.8881 1.02824
128 1 -1.1104 3.93146 12.9682 3.85355
115 1 -1.1104 6.56962 13.0154 3.90457
62 1 -1.1104 1.06787 10.1439 6.76671
78 1 -1.1104 3.51391 10.1762 6.76258
8711 2 2.2208 -0.137988 6.20377 10.9032
64 1 -1.1104 6.4768 10.1639 1.17126
110 1 -1.1104 6.61019 13.0135 1.01329
111 1 -1.1104 6.69133 12.9602 6.55616
8791 2 2.2208 -0.314168 11.4842 5.20193
70 1 -1.1104 6.56386 10.0317 3.91559
85 2 2.2208 10.7487 11.5121 5.17167
89 1 -1.1104 12.2456 10.1006 1.1881
91 2 2.2208 10.9053 8.5023 2.66997
93 1 -1.1104 12.2926 9.85989 3.87455
96 2 2.2208 8.07489 11.6624 2.21026
98 2 2.2208 8.03389 8.77402 5.28828
100 1 -1.1104 9.38009 10.2301 0.953264
103 1 -1.1104 9.44668 10.0478 3.75446
142 1 -1.1104 12.3519 13.0958 0.827283
146 1 -1.1104 12.1013 12.9215 3.77271
153 1 -1.1104 9.43197 13.0855 0.803553
158 1 -1.1104 9.17117 12.8354 3.71507
154 1 -1.1104 9.47595 13.1218 6.54412
101 1 -1.1104 9.28223 10.2422 6.55905
90 1 -1.1104 12.1737 10.2883 6.91238
340 2 2.2208 8.19913 3.1102 -0.29605
335 2 2.2208 2.60744 -2.41658 -0.271843
8790 2 2.2208 -0.287224 8.5959 2.52153
8804 2 2.2208 -0.282294 -5.30436 11.0588
130 2 2.2208 2.6583 14.4291 5.00662
119 2 2.2208 5.19406 14.5168 2.39655
106 2 2.2208 5.2392 17.2211 5.12496
109 1 -1.1104 0.889851 18.5568 0.905413
114 1 -1.1104 0.678096 18.7539 3.84124
116 1 -1.1104 0.755624 15.9307 0.877994
120 2 2.2208 5.22787 20.1721 2.54193
121 1 -1.1104 0.836912 15.803 3.72683
125 1 -1.1104 3.83694 18.708 0.967944
127 2 2.2208 2.38021 17.0812 2.16179
129 1 -1.1104 3.62868 18.7882 3.87916
131 2 2.2208 2.09898 19.8408 5.13609
132 1 -1.1104 3.60154 15.5326 0.745056
134 1 -1.1104 3.73634 15.8549 3.57589
140 1 -1.1104 6.42807 15.9473 0.85445
133 1 -1.1104 3.86918 15.9555 6.63986
118 1 -1.1104 6.66531 15.8627 6.68351
8799 2 2.2208 -0.349862 -2.47578 8.03577
139 1 -1.1104 6.53084 18.4704 3.48739
122 1 -1.1104 6.67986 15.7629 3.88223
138 1 -1.1104 6.73099 18.7377 0.847627
150 2 2.2208 10.7733 14.493 2.37188
141 2 2.2208 10.7015 17.2161 5.33891
144 1 -1.1104 12.1134 18.5827 0.959122
147 1 -1.1104 12.3719 18.7338 3.67889
148 1 -1.1104 12.6247 15.8596 0.92768
151 2 2.2208 10.8396 20.1723 2.31981
152 1 -1.1104 12.1221 15.8931 3.8931
155 1 -1.1104 9.51547 18.6835 0.777047
157 2 2.2208 8.0258 17.275 2.2003
159 1 -1.1104 9.24786 18.7768 3.71025
160 2 2.2208 8.04525 14.4656 5.21589
161 2 2.2208 8.06243 20.1203 5.20251
162 1 -1.1104 9.30427 15.868 0.954847
164 1 -1.1104 9.25105 15.8492 3.64641
149 1 -1.1104 12.0926 15.9616 6.73605
163 1 -1.1104 9.4661 15.7974 6.69652
323 2 2.2208 2.18596 17.3278 13.606
156 1 -1.1104 9.27599 18.5591 6.69337
145 1 -1.1104 12.1073 18.8486 6.62537
166 1 -1.1104 1.21328 -3.8034 6.61294
171 1 -1.1104 6.81615 -1.03475 6.80567
170 1 -1.1104 1.07735 -1.03452 6.69977
8800 2 2.2208 -0.172196 0.452302 10.921
175 2 2.2208 5.30263 0.357866 10.9213
176 1 -1.1104 1.05404 -4.0945 12.3239
180 1 -1.1104 1.09596 -4.09102 9.46209
184 1 -1.1104 1.02652 -1.16287 12.3564
186 2 2.2208 5.13421 -2.47063 8.11862
188 1 -1.1104 1.14788 -1.07322 9.81711
190 1 -1.1104 4.11305 -3.87554 12.3186
192 2 2.2208 2.41436 0.222448 8.22686
193 1 -1.1104 3.7725 -3.85718 9.49119
195 2 2.2208 2.58762 -2.73341 10.9528
197 1 -1.1104 4.10186 -1.31497 12.5431
198 1 -1.1104 3.90148 -1.18355 9.78005
189 1 -1.1104 7.01177 -1.10918 9.53857
182 1 -1.1104 6.67211 -3.96987 9.50181
165 2 2.2208 7.86878 19.8187 10.7936
336 2 2.2208 2.73497 3.09628 -0.399526
207 1 -1.1104 12.5158 -1.14501 6.6045
205 1 -1.1104 12.4959 -3.99126 6.68546
168 1 -1.1104 6.8925 -3.62632 6.83316
185 1 -1.1104 6.7241 -1.15051 12.3348
208 1 -1.1104 9.61964 -4.01662 6.58249
178 1 -1.1104 6.80742 -4.05761 12.3889
210 1 -1.1104 9.54249 -1.12069 6.77648
211 2 2.2208 10.9761 0.246237 10.778
212 1 -1.1104 12.3699 -3.67486 12.6274
214 1 -1.1104 12.4047 -3.7772 9.82975
216 1 -1.1104 12.4209 -0.889424 12.1216
217 2 2.2208 11.0084 -2.70077 7.98929
219 1 -1.1104 12.4966 -1.12123 9.44281
220 1 -1.1104 9.53238 -3.88749 12.2514
222 2 2.2208 8.18583 0.307149 8.0533
223 1 -1.1104 9.62343 -4.1263 9.48137
225 2 2.2208 8.2212 -2.57537 10.9325
227 1 -1.1104 9.53004 -1.11674 12.5079
228 1 -1.1104 9.7335 -1.22033 9.38495
8780 2 2.2208 -0.196895 -2.44602 2.39318
173 1 -1.1104 3.89922 1.69828 6.67973
236 1 -1.1104 0.929922 4.39904 6.89435
167 1 -1.1104 1.00873 1.7506 6.56479
235 1 -1.1104 6.75626 7.15575 6.62278
234 1 -1.1104 0.987696 7.25706 6.66405
333 2 2.2208 8.14931 8.91218 -0.389811
29 2 2.2208 5.43533 -5.30699 5.21162
177 1 -1.1104 1.0134 1.77952 12.3217
181 1 -1.1104 1.04238 1.74393 9.49345
187 2 2.2208 5.38391 3.04402 8.06865
191 1 -1.1104 3.79579 1.79692 12.3871
194 1 -1.1104 3.79195 1.54228 9.69368
196 2 2.2208 2.63751 3.19749 10.9378
240 2 2.2208 5.49404 5.9127 10.989
242 1 -1.1104 1.27118 7.55541 12.3786
246 1 -1.1104 1.19549 4.80365 12.4627
251 1 -1.1104 1.09762 4.67957 9.51992
256 2 2.2208 2.5054 5.85616 8.21674
258 1 -1.1104 4.04041 7.25291 9.65244
260 1 -1.1104 3.98529 4.56119 12.2982
262 1 -1.1104 4.26963 4.22569 9.54723
183 1 -1.1104 6.78085 1.74482 9.67184
255 1 -1.1104 4.00601 7.39954 12.3132
244 1 -1.1104 1.03483 7.49373 9.41504
325 2 2.2208 5.02379 14.4445 13.5676
169 1 -1.1104 6.77525 1.615 6.80077
266 1 -1.1104 12.1858 4.47687 6.91437
265 1 -1.1104 12.4582 7.32839 6.71991
267 1 -1.1104 9.69096 7.23681 6.93993
338 2 2.2208 10.9989 0.393694 -0.25963
237 1 -1.1104 6.99392 4.22794 7.04285
209 1 -1.1104 9.75917 1.64908 6.91065
206 1 -1.1104 12.5726 1.76709 6.66261
253 1 -1.1104 6.93928 4.42597 9.73414
245 1 -1.1104 6.66801 7.29148 9.44371
243 1 -1.1104 6.93526 7.43405 12.3212
248 1 -1.1104 6.78084 4.39623 12.5001
269 1 -1.1104 9.47544 4.4456 6.68581
179 1 -1.1104 6.87394 1.73504 12.3792
213 1 -1.1104 12.3945 1.84566 12.4829
215 1 -1.1104 12.2987 1.71469 9.63367
218 2 2.2208 10.9502 3.0425 8.26344
221 1 -1.1104 9.547 1.70952 12.6859
224 1 -1.1104 9.56928 1.52636 9.6424
226 2 2.2208 8.11563 3.08328 10.9679
268 1 -1.1104 9.55268 4.3848 9.5197
271 1 -1.1104 9.70113 4.65093 12.469
275 2 2.2208 8.3258 5.82526 8.11187
276 2 2.2208 11.116 6.00405 11.1596
278 1 -1.1104 12.4309 7.61961 12.3434
279 1 -1.1104 12.327 7.26093 9.45479
280 1 -1.1104 12.3011 4.80347 12.4319
283 1 -1.1104 12.4809 4.49803 9.55178
273 1 -1.1104 9.45693 7.50222 9.57884
285 1 -1.1104 9.60185 7.28339 12.3887
108 1 -1.1104 1.02798 13.0417 6.80111
232 2 2.2208 10.8488 -5.3044 10.9596
124 1 -1.1104 3.88674 13.2524 6.58749
241 2 2.2208 5.26827 11.3818 10.9964
247 1 -1.1104 1.16469 10.3222 12.2005
250 2 2.2208 5.36518 8.59668 8.15325
252 1 -1.1104 1.10302 10.0922 9.5814
257 2 2.2208 2.49169 11.6439 8.30409
259 2 2.2208 2.64058 8.81885 10.9127
261 1 -1.1104 4.0389 9.98537 12.2229
263 1 -1.1104 3.99061 10.083 9.38134
287 1 -1.1104 3.62393 12.8357 12.0792
294 1 -1.1104 1.14534 13.0222 9.57528
299 1 -1.1104 0.87419 13.1228 12.2712
305 1 -1.1104 4.06161 13.0121 9.54095
51 2 2.2208 8.28179 -5.28008 2.44518
254 1 -1.1104 6.80339 10.0597 9.58104
249 1 -1.1104 6.87767 10.0238 12.3555
8579 2 2.2208 13.6506 14.3887 5.22554
143 1 -1.1104 12.2272 12.9774 6.42041
65 1 -1.1104 6.5475 10.0956 6.52312
297 1 -1.1104 6.48855 12.9777 12.361
290 1 -1.1104 6.75704 12.8364 9.469
264 1 -1.1104 9.58282 10.4132 9.38135
270 1 -1.1104 9.65609 10.0786 12.14
272 2 2.2208 8.17414 8.73987 10.9906
274 2 2.2208 8.21589 11.6616 8.10133
277 2 2.2208 11.0031 11.7813 10.8349
281 1 -1.1104 12.4056 10.2749 12.2456
282 2 2.2208 11.042 8.67053 8.18418
284 1 -1.1104 12.7145 10.0105 9.49773
135 1 -1.1104 9.51501 13.2044 9.36263
26 1 -1.1104 12.2006 13.2577 12.3893
30 1 -1.1104 12.2945 12.8963 9.26581
83 1 -1.1104 9.48277 13.014 12.0339
8789 2 2.2208 -0.386132 5.88518 5.19327
343 2 2.2208 2.36711 8.76942 -0.240331
344 2 2.2208 5.20843 11.718 -0.379579
117 1 -1.1104 1.00418 15.6499 6.50859
8828 2 2.2208 -0.343206 0.490481 -0.322656
302 1 -1.1104 0.754925 18.7157 6.62105
126 1 -1.1104 3.51122 18.5622 6.4338
201 2 2.2208 2.39817 14.452 10.9332
295 2 2.2208 5.24158 14.3776 8.02836
204 2 2.2208 2.30268 20.0131 10.8854
229 1 -1.1104 3.57127 15.7662 12.4068
230 1 -1.1104 0.723651 15.8537 12.2317
286 1 -1.1104 3.65707 18.8145 12.1279
291 1 -1.1104 0.898106 18.4705 9.32269
292 1 -1.1104 1.06398 15.698 9.4667
293 2 2.2208 5.1671 19.9708 7.75521
298 1 -1.1104 0.907782 18.6628 12.1351
300 2 2.2208 5.0683 17.1773 10.6798
301 1 -1.1104 3.7778 18.5614 9.29774
303 2 2.2208 2.43918 17.1775 7.88625
304 1 -1.1104 3.90102 15.9225 9.31855
200 1 -1.1104 9.43856 15.9709 9.48236
8802 2 2.2208 -0.4144 17.0979 10.7719
342 2 2.2208 5.49196 5.99 -0.168595
329 2 2.2208 5.37442 0.238873 -0.183358
112 1 -1.1104 6.48584 18.5343 6.54406
50 1 -1.1104 12.2575 16.2026 12.132
49 1 -1.1104 12.1769 18.6783 9.23556
25 2 2.2208 10.8393 17.3993 10.7201
288 1 -1.1104 6.56976 18.6158 9.27842
296 1 -1.1104 6.51681 18.5885 12.1161
233 1 -1.1104 6.39308 15.6532 12.1567
199 1 -1.1104 9.07197 15.7615 12.45
136 1 -1.1104 9.3972 18.7048 9.3805
137 2 2.2208 8.07053 14.4475 10.7277
82 1 -1.1104 12.3712 15.8781 9.43264
27 1 -1.1104 12.0861 18.8299 12.1289
53 2 2.2208 10.859 14.5613 8.05669
81 2 2.2208 10.9501 20.1432 8.07863
104 1 -1.1104 9.36873 18.7271 12.0891
105 2 2.2208 7.95483 17.1596 8.01861
8831 2 2.2208 13.5956 17.5418 13.4061
8784 2 2.2208 -0.111745 3.1562 2.53277
8801 2 2.2208 -0.42011 14.3903 8.05425
328 2 2.2208 7.86713 17.1634 13.6052
8822 2 2.2208 -0.30012 3.03677 13.6512
318 2 2.2208 5.48529 8.6028 13.6593
319 2 2.2208 2.28271 11.667 13.6425
8835 2 2.2208 -0.324368 -2.5505 13.6566
8827 2 2.2208 13.6508 11.6216 13.6648
322 2 2.2208 7.97061 11.707 13.6432
306 2 2.2208 7.8689 14.5345 -0.381765
324 2 2.2208 5.0204 20.2232 13.6423
346 2 2.2208 5.33468 0.24164 16.8851
347 1 -1.1104 0.961128 -3.73856 18.0104
351 1 -1.1104 1.22263 -4.00905 15.388
359 1 -1.1104 1.33571 -1.11921 18.203
361 2 2.2208 5.47279 -2.68675 19.4394
363 1 -1.1104 0.920647 -1.00274 15.2082
367 1 -1.1104 3.8803 -3.65224 18.0235
369 2 2.2208 2.63465 0.204281 19.4464
370 1 -1.1104 3.9686 -3.86539 15.2512
374 2 2.2208 2.59952 -2.47892 16.6296
376 1 -1.1104 4.1961 -1.04858 18.1411
377 1 -1.1104 3.98385 -1.06798 15.2523
360 1 -1.1104 7.07785 -0.977452 18.0303
349 1 -1.1104 6.74584 -3.87195 17.9411
352 1 -1.1104 0.919383 -3.93988 20.6509
8837 2 2.2208 -0.328356 8.87205 13.7146
580 2 2.2208 2.58693 -5.26488 25.0315
8839 2 2.2208 13.6117 19.9542 27.6926
608 2 2.2208 10.9901 -5.33346 22.1787
312 2 2.2208 5.40952 3.14613 13.7826
9011 2 2.2208 -0.351685 -2.53597 19.2713
365 1 -1.1104 6.96927 -1.3941 15.246
355 1 -1.1104 6.87201 -3.91958 15.3095
389 2 2.2208 11.3855 0.485351 16.7818
390 1 -1.1104 12.624 -4.07736 18.1625
392 1 -1.1104 12.4455 -3.69085 15.4087
396 1 -1.1104 12.7922 -1.08366 17.8681
397 2 2.2208 11.2691 -2.46799 19.3906
399 1 -1.1104 12.6144 -1.06792 15.3097
401 1 -1.1104 9.82003 -4.00339 17.9017
403 2 2.2208 8.31464 0.283236 19.4725
404 1 -1.1104 9.69249 -3.90848 15.1463
408 2 2.2208 8.45383 -2.31799 16.5911
410 1 -1.1104 9.75269 -1.16435 18.2516
411 1 -1.1104 10.102 -0.999178 15.3183
400 1 -1.1104 12.5214 -1.08029 20.5694
331 2 2.2208 5.2675 17.3656 27.6818
9012 2 2.2208 -0.393766 0.473973 16.5724
9038 2 2.2208 13.5406 14.3439 16.3622
414 2 2.2208 11.0385 -5.29254 16.4845
348 1 -1.1104 1.21906 1.55898 17.9917
353 1 -1.1104 1.24148 1.77197 15.0977
362 2 2.2208 5.38197 3.2022 19.4891
368 1 -1.1104 3.92413 1.7755 18.116
372 1 -1.1104 3.98732 1.56002 15.1814
375 2 2.2208 2.59041 3.16852 16.4847
422 2 2.2208 5.37607 5.891 16.7163
426 1 -1.1104 1.19583 7.60621 15.1433
430 1 -1.1104 0.821221 4.37005 17.7389
435 1 -1.1104 0.947216 4.62327 14.98
443 1 -1.1104 3.9919 7.67179 17.8219
444 2 2.2208 2.41146 5.81733 19.3168
446 1 -1.1104 3.90497 7.40402 15.2405
449 1 -1.1104 4.04224 4.5095 18.0183
451 1 -1.1104 4.0439 4.39259 14.9613
432 1 -1.1104 6.756 4.57564 18.1509
357 1 -1.1104 7.03347 1.7076 15.2938
424 1 -1.1104 1.20205 7.39162 17.8539
350 1 -1.1104 6.7259 1.94294 18.2193
439 1 -1.1104 6.66793 4.45098 15.2694
436 1 -1.1104 1.16199 4.71181 20.6297
428 1 -1.1104 6.81877 7.19344 15.2937
381 2 2.2208 2.4789 -5.24987 19.5413
9042 2 2.2208 -0.422749 -5.1813 16.6414
427 1 -1.1104 1.05121 7.32573 20.7703
8813 2 2.2208 -0.443934 17.2342 27.6569
425 1 -1.1104 6.92571 7.25923 17.9909
391 1 -1.1104 12.652 1.89529 18.1276
394 1 -1.1104 12.5773 1.70537 15.3652
398 2 2.2208 11.0514 3.24888 19.275
402 1 -1.1104 9.63328 1.71053 18.0059
406 1 -1.1104 9.68427 1.7934 15.4536
409 2 2.2208 8.28313 3.17334 16.7739
458 2 2.2208 11.0516 5.99126 16.613
461 1 -1.1104 12.3389 7.56224 15.0498
463 1 -1.1104 12.3666 4.54443 17.8966
466 1 -1.1104 12.3293 4.69896 15.1624
470 1 -1.1104 9.85455 7.39848 17.9955
471 2 2.2208 8.09472 5.84389 19.4825
473 1 -1.1104 9.60404 7.36558 15.3882
476 1 -1.1104 9.51059 4.65393 18.0361
478 1 -1.1104 9.66307 4.61718 15.2605
460 1 -1.1104 12.4307 7.3439 17.991
467 1 -1.1104 12.5334 4.63245 20.642
8968 2 2.2208 13.5649 9.02916 16.621
8970 2 2.2208 13.6622 11.4512 19.3483
423 2 2.2208 5.0073 11.6456 16.5401
431 1 -1.1104 1.04849 10.3134 17.9568
434 2 2.2208 5.22769 8.81417 19.4604
437 1 -1.1104 0.849279 10.373 15.033
445 2 2.2208 2.29633 11.7107 19.3118
448 2 2.2208 2.5389 8.88471 16.5509
450 1 -1.1104 3.74833 10.3694 18.0398
453 1 -1.1104 3.83032 10.1373 15.1665
486 1 -1.1104 0.85567 13.2167 17.9366
490 1 -1.1104 0.983397 13.0921 15.1253
506 1 -1.1104 3.65636 13.0671 17.8268
509 1 -1.1104 3.81509 13.0361 14.9672
495 1 -1.1104 6.50406 12.889 20.8193
8971 2 2.2208 0.0130167 -2.45149 25.0159
433 1 -1.1104 6.64835 10.0938 18.0408
494 1 -1.1104 6.63987 12.9204 15.2076
316 2 2.2208 11.1026 3.16424 13.9136
380 2 2.2208 5.28328 -5.20317 16.7002
326 2 2.2208 10.7273 20.1905 13.7379
442 1 -1.1104 6.62449 10.1244 20.6085
441 1 -1.1104 6.55877 9.99164 15.3716
488 1 -1.1104 6.34179 12.8476 17.9183
459 2 2.2208 10.931 11.6671 16.5931
464 1 -1.1104 12.2295 10.2092 18.0203
465 2 2.2208 10.8989 8.82006 19.4244
468 1 -1.1104 12.0895 10.2092 15.1014
472 2 2.2208 7.94229 11.4606 19.1704
475 2 2.2208 8.07223 8.70801 16.6776
477 1 -1.1104 9.52446 10.1548 17.7344
480 1 -1.1104 9.39286 10.2923 14.7621
522 1 -1.1104 12.1867 12.8006 18.1096
524 1 -1.1104 12.301 12.8491 15.1893
533 1 -1.1104 9.2386 12.9898 17.8643
536 1 -1.1104 9.3368 12.9817 15.0886
537 1 -1.1104 9.29107 12.7141 20.5513
9037 2 2.2208 13.5054 17.2763 24.9534
9079 2 2.2208 -0.411744 20.1907 19.2426
311 2 2.2208 2.50011 0.0895869 13.8911
513 2 2.2208 2.08356 14.4894 16.3194
500 2 2.2208 5.17418 14.3084 19.2444
485 2 2.2208 5.2083 17.2102 16.479
487 1 -1.1104 0.809897 18.9164 17.7123
492 1 -1.1104 0.746867 18.781 15.0007
498 1 -1.1104 0.862926 16.199 17.8639
501 2 2.2208 5.07183 20.2459 19.17
502 1 -1.1104 0.87825 16.027 14.9921
507 1 -1.1104 3.87004 18.7205 17.7786
508 2 2.2208 2.35046 17.4738 19.2288
511 1 -1.1104 3.36889 18.8078 15.084
514 2 2.2208 2.1621 20.2654 16.237
515 1 -1.1104 3.5869 15.8097 17.8755
516 1 -1.1104 3.72579 15.8652 15.1381
489 1 -1.1104 6.51009 18.5425 17.8134
499 1 -1.1104 6.6083 15.6896 17.8453
505 1 -1.1104 6.4562 15.8676 20.6053
503 1 -1.1104 0.764703 16.0003 20.7305
517 1 -1.1104 3.56505 15.8567 20.6721
512 1 -1.1104 3.87555 18.7262 20.399
504 1 -1.1104 6.5487 16.0146 15.0474
496 1 -1.1104 6.41197 18.7651 14.9664
540 2 2.2208 7.90802 14.3488 16.6077
529 2 2.2208 10.6996 14.3209 19.308
521 2 2.2208 10.8958 16.9855 16.3933
523 1 -1.1104 12.1922 18.3417 17.6401
526 1 -1.1104 12.2166 18.6636 15.0257
528 1 -1.1104 12.1702 15.72 17.8917
530 2 2.2208 10.884 20.0342 19.3148
531 1 -1.1104 12.1029 15.6094 14.9276
534 1 -1.1104 9.49465 18.6279 17.9074
535 2 2.2208 7.92158 17.3258 19.365
538 1 -1.1104 9.18887 18.8662 14.8993
541 2 2.2208 8.14015 19.9144 16.606
542 1 -1.1104 9.4467 15.8501 18.0252
543 1 -1.1104 9.4396 15.993 14.936
544 1 -1.1104 9.12114 15.707 20.4738
9041 2 2.2208 13.5616 20.1177 16.4526
527 1 -1.1104 12.383 18.8127 20.6477
532 1 -1.1104 11.9478 15.7541 20.8181
364 1 -1.1104 1.16716 -1.10925 20.9188
378 1 -1.1104 4.11827 -1.13797 20.7158
320 2 2.2208 8.21925 5.86201 13.7708
366 1 -1.1104 6.86985 -0.999831 21.0233
9160 2 2.2208 13.6128 8.88391 22.1974
371 1 -1.1104 4.03836 -3.92875 20.9302
549 2 2.2208 5.41209 0.474858 22.2196
550 1 -1.1104 1.28955 -3.97858 23.5696
554 1 -1.1104 1.15036 -3.99072 26.3765
558 1 -1.1104 1.37358 -0.95127 23.6342
560 2 2.2208 5.40919 -2.41911 25.2323
562 1 -1.1104 1.31687 -1.19722 26.4645
564 1 -1.1104 4.08614 -3.82639 23.7668
566 2 2.2208 2.6228 0.300635 25.0518
567 1 -1.1104 4.05055 -3.79308 26.5349
569 2 2.2208 2.6649 -2.3615 22.2647
571 1 -1.1104 3.83033 -0.978527 23.5665
572 1 -1.1104 4.28359 -0.894141 26.6799
563 1 -1.1104 6.78063 -1.05414 26.679
559 1 -1.1104 6.71364 -1.04349 23.8662
556 1 -1.1104 6.7412 -3.92435 26.5896
393 1 -1.1104 12.5491 -4.11041 20.7778
345 2 2.2208 2.33141 14.4559 27.6626
412 1 -1.1104 9.89499 -1.3016 21.0779
310 2 2.2208 5.54517 -2.72663 13.7313
356 1 -1.1104 6.91959 -3.89908 20.9549
552 1 -1.1104 6.97393 -3.79281 23.5157
405 1 -1.1104 9.59093 -3.87943 20.8418
585 2 2.2208 11.115 0.114499 22.2722
586 1 -1.1104 12.5302 -3.97596 23.5031
588 1 -1.1104 12.3894 -3.78625 26.5328
590 1 -1.1104 12.5199 -1.10649 23.5194
591 2 2.2208 11.0481 -2.41144 25.0967
593 1 -1.1104 12.4309 -1.08566 26.2927
594 1 -1.1104 9.64455 -4.02966 23.686
596 2 2.2208 8.12939 0.413235 25.3786
597 1 -1.1104 9.64915 -3.9734 26.4453
599 2 2.2208 8.2066 -2.30943 22.3667
601 1 -1.1104 9.58175 -1.0762 23.8109
602 1 -1.1104 9.72138 -1.02139 26.3918
317 2 2.2208 2.55862 5.98172 13.7553
354 1 -1.1104 1.29397 1.62108 20.9235
452 1 -1.1104 3.97418 4.59425 20.9918
373 1 -1.1104 4.06879 1.84437 20.8699
440 1 -1.1104 6.90526 4.36916 20.9254
429 1 -1.1104 6.51244 7.2639 20.6643
358 1 -1.1104 7.08119 1.58339 20.9328
8966 2 2.2208 -0.309402 3.32467 25.014
447 1 -1.1104 3.54119 7.38862 20.4984
551 1 -1.1104 1.02453 1.82508 23.5025
555 1 -1.1104 1.19104 1.63033 26.183
561 2 2.2208 5.35924 3.16943 25.0725
565 1 -1.1104 3.95599 1.73627 23.8654
568 1 -1.1104 4.12605 1.68596 26.6074
570 2 2.2208 2.50457 3.13982 22.2607
614 2 2.2208 5.10659 6.07603 22.3142
616 1 -1.1104 1.16382 7.30764 23.5343
620 1 -1.1104 1.05342 4.54695 23.4369
625 1 -1.1104 1.07398 4.79693 26.3188
629 1 -1.1104 3.75953 7.6614 23.3671
630 2 2.2208 2.50192 5.94432 25.0806
634 1 -1.1104 4.09502 4.71657 23.8909
636 1 -1.1104 3.84377 4.74483 26.6453
632 1 -1.1104 3.79184 7.44974 26.1769
627 1 -1.1104 6.73714 4.59155 26.3547
618 1 -1.1104 1.10847 7.48804 26.3551
622 1 -1.1104 6.80086 4.55753 23.6758
8937 2 2.2208 -0.346598 3.1036 19.3783
407 1 -1.1104 9.68156 1.65462 20.8461
395 1 -1.1104 12.481 1.80338 20.6871
474 1 -1.1104 9.41901 7.32854 20.8775
462 1 -1.1104 12.3361 7.3838 20.6703
479 1 -1.1104 9.67138 4.42504 20.8624
557 1 -1.1104 6.72784 1.79284 26.6731
617 1 -1.1104 6.60175 7.41553 23.6774
619 1 -1.1104 6.94858 7.30251 26.381
553 1 -1.1104 6.69987 1.77579 23.7457
587 1 -1.1104 12.444 1.7496 23.3163
589 1 -1.1104 12.4948 1.68627 26.5085
592 2 2.2208 11.0057 3.41417 25.0364
595 1 -1.1104 9.57054 1.82164 23.8858
598 1 -1.1104 9.58358 1.57606 26.6335
600 2 2.2208 8.32328 3.04601 22.3169
573 1 -1.1104 9.36533 7.5188 23.5094
575 1 -1.1104 12.252 4.69851 26.1956
604 1 -1.1104 12.6813 4.49558 23.5587
607 1 -1.1104 12.2371 7.27307 23.5396
639 2 2.2208 10.9646 5.85065 21.9273
640 2 2.2208 8.17057 5.92722 24.8604
646 1 -1.1104 9.6107 4.7064 26.5532
648 1 -1.1104 9.56965 4.57704 23.6655
605 1 -1.1104 12.4484 7.38801 26.2853
650 1 -1.1104 9.58601 7.33788 26.2174
415 2 2.2208 8.23069 -5.26394 19.4687
491 1 -1.1104 0.800151 13.1124 20.7101
438 1 -1.1104 0.773739 10.2386 20.7967
9188 2 2.2208 -0.332318 6.16627 22.2563
510 1 -1.1104 3.75628 13.3315 20.7142
454 1 -1.1104 3.72387 10.2582 20.7372
615 2 2.2208 4.91996 11.7642 22.1453
621 1 -1.1104 0.96697 10.2577 23.7048
624 2 2.2208 5.13237 9.00902 25.1296
626 1 -1.1104 0.842964 10.1187 26.4788
631 2 2.2208 2.21905 11.6252 25.113
633 2 2.2208 2.32027 8.81424 22.0873
635 1 -1.1104 3.78197 10.2548 23.6378
637 1 -1.1104 3.59106 10.1962 26.5951
386 1 -1.1104 3.84577 13.0795 26.473
420 1 -1.1104 0.582371 12.9857 23.6633
483 1 -1.1104 0.789888 13.1587 26.4599
520 1 -1.1104 3.39593 13.1349 23.7407
545 1 -1.1104 6.66493 13.1111 26.4426
582 1 -1.1104 12.2004 15.6534 26.3412
469 1 -1.1104 12.2477 9.97916 20.6796
525 1 -1.1104 12.0935 12.9579 20.7767
481 1 -1.1104 9.40654 10.1283 20.6941
623 1 -1.1104 6.49061 10.3586 23.6267
628 1 -1.1104 6.47448 10.1734 26.5182
455 1 -1.1104 6.21051 13.0102 23.5436
574 1 -1.1104 12.2142 10.2912 26.4305
578 2 2.2208 10.9433 8.88563 24.9157
603 1 -1.1104 12.1437 10.228 23.4885
638 2 2.2208 10.6386 11.7251 22.0946
644 2 2.2208 7.99388 11.5296 24.9969
645 1 -1.1104 9.46901 10.3567 26.4863
647 1 -1.1104 9.33121 10.4564 23.7097
649 2 2.2208 7.82276 8.82263 22.173
413 1 -1.1104 11.9883 12.867 23.4921
418 1 -1.1104 12.3372 13.1067 26.2206
583 1 -1.1104 9.16242 12.9901 23.5806
611 1 -1.1104 9.46736 13.3364 26.4253
497 1 -1.1104 6.71936 18.8102 20.5822
9039 2 2.2208 13.4964 14.3833 22.0201
493 1 -1.1104 1.03366 18.8037 20.4901
484 1 -1.1104 0.973736 16.0461 26.3639
457 2 2.2208 5.20514 19.9104 24.7796
547 2 2.2208 2.3149 14.6571 22.0385
518 1 -1.1104 0.910873 18.6454 26.3838
546 1 -1.1104 3.6257 18.6159 23.2706
456 2 2.2208 5.14085 14.5367 24.9258
379 2 2.2208 2.34737 20.3288 22.2858
382 1 -1.1104 3.89599 15.8239 23.4947
383 1 -1.1104 0.914709 15.7883 23.4508
387 1 -1.1104 3.61044 15.8064 26.5104
388 2 2.2208 2.37857 17.3875 24.9176
416 1 -1.1104 3.74559 18.5677 26.2997
419 2 2.2208 4.99195 17.3009 21.8276
421 1 -1.1104 0.958287 18.7622 23.5049
9040 2 2.2208 13.5654 17.1055 19.1535
581 2 2.2208 10.8183 20.0694 24.7944
606 2 2.2208 7.97091 17.2718 24.9055
8938 2 2.2208 -0.393261 8.82268 25.0372
612 1 -1.1104 9.17215 18.7742 26.0202
613 2 2.2208 7.78156 14.4691 21.9453
641 2 2.2208 7.81947 20.0784 21.9539
643 1 -1.1104 9.49765 16.107 26.1912
642 1 -1.1104 9.42555 15.6526 23.2715
584 1 -1.1104 9.0421 18.4519 23.1847
577 2 2.2208 10.7379 14.4836 24.9193
384 2 2.2208 10.547 17.2824 22.0218
539 1 -1.1104 9.58849 18.7436 20.5575
548 1 -1.1104 12.0072 18.6211 26.2533
417 1 -1.1104 11.9665 18.578 23.5034
519 1 -1.1104 6.67148 15.7181 26.4154
385 1 -1.1104 6.79375 15.8279 23.5251
610 1 -1.1104 6.51821 18.6145 26.2509
482 1 -1.1104 6.33249 18.7347 23.2693
576 1 -1.1104 12.18 15.8779 23.4742
8967 2 2.2208 -0.179359 0.355207 22.2712
8896 2 2.2208 13.5612 11.5843 24.883
315 2 2.2208 11.0529 -2.28517 13.7532
307 2 2.2208 10.8607 17.1854 27.682
8972 2 2.2208 -0.205346 -5.16619 22.1442
308 2 2.2208 8.03521 20.1691 27.5461
9009 2 2.2208 -0.274882 8.80988 19.3419
314 2 2.2208 8.17796 0.353752 13.7907
321 2 2.2208 10.8822 8.75848 13.7224
332 2 2.2208 10.8193 11.5639 27.7144
327 2 2.2208 10.6135 14.2836 13.704
339 2 2.2208 8.2986 -2.52785 27.6918
334 2 2.2208 10.8739 6.14626 27.7285
651 2 2.2208 5.19843 22.7172 5.26668
653 1 -1.1104 0.998523 24.3226 0.890799
654 1 -1.1104 0.881138 24.3263 3.69955
655 1 -1.1104 0.748448 21.4908 1.13391
657 2 2.2208 5.34152 25.5731 2.39651
658 1 -1.1104 0.918381 21.5941 3.93113
660 1 -1.1104 3.80528 24.3132 1.06983
661 2 2.2208 2.29646 22.9878 2.41004
663 1 -1.1104 3.63746 24.453 3.5808
664 2 2.2208 2.30726 25.7827 5.17737
665 1 -1.1104 3.67191 21.5379 0.988332
667 1 -1.1104 3.9128 21.4476 3.93773
656 1 -1.1104 0.907217 27.1473 0.902611
666 1 -1.1104 3.86185 27.0072 1.02685
673 1 -1.1104 6.44997 23.9908 3.77252
668 1 -1.1104 3.78106 27.1058 4.00375
798 1 -1.1104 3.98947 24.0828 6.42977
674 1 -1.1104 6.35412 21.521 1.04811
672 1 -1.1104 6.65402 24.4137 1.02879
676 1 -1.1104 6.63285 21.3229 3.73022
677 1 -1.1104 6.69084 26.9196 3.70016
9530 2 2.2208 13.6414 25.7312 5.06556
800 1 -1.1104 3.79942 26.9774 6.66523
794 1 -1.1104 0.77739 21.6264 6.73765
959 2 2.2208 10.7543 31.6452 13.656
9480 2 2.2208 13.6486 40.0596 7.78532
678 2 2.2208 10.7939 22.7766 5.21827
680 1 -1.1104 12.2053 24.1844 0.754709
681 1 -1.1104 12.2728 24.3526 3.72345
682 1 -1.1104 12.1557 21.4663 0.805876
684 2 2.2208 10.8058 25.7725 2.38442
685 1 -1.1104 12.0216 21.5546 3.8462
687 1 -1.1104 9.51768 24.2601 0.982199
688 2 2.2208 7.94481 22.8577 2.22961
690 1 -1.1104 9.48086 24.2824 3.66779
691 2 2.2208 7.98807 25.4385 5.13953
692 1 -1.1104 9.256 21.2731 1.0762
694 1 -1.1104 9.20022 21.6931 4.14332
683 1 -1.1104 12.3116 27.054 0.948094
695 1 -1.1104 9.54871 27.1632 3.68782
693 1 -1.1104 9.35103 27.0348 0.867402
686 1 -1.1104 12.1465 27.0374 3.75418
9556 2 2.2208 -0.41311 25.8234 13.6588
9529 2 2.2208 13.5809 28.5191 2.24003
797 1 -1.1104 6.78819 27.1816 6.47096
796 1 -1.1104 6.68355 21.432 6.64803
826 1 -1.1104 12.2558 21.4677 6.56789
828 1 -1.1104 9.42786 24.0808 6.62846
825 1 -1.1104 12.2016 24.3506 6.59311
827 1 -1.1104 12.2221 27.1565 6.60318
952 2 2.2208 8.20089 28.5173 13.666
659 1 -1.1104 0.847061 27.0802 3.68862
652 2 2.2208 5.31028 28.3569 5.20351
662 2 2.2208 2.30212 28.3633 2.27463
700 1 -1.1104 1.06717 29.9241 0.834624
703 1 -1.1104 0.892874 29.8601 3.86164
706 1 -1.1104 1.17573 32.5719 0.858587
707 2 2.2208 5.24126 31.1626 2.39966
709 1 -1.1104 0.941915 32.6972 3.55653
711 1 -1.1104 3.84349 29.7756 1.07056
714 1 -1.1104 3.78673 29.9207 3.82937
716 2 2.2208 2.31546 31.1574 5.10105
718 1 -1.1104 3.80504 32.4882 1.02872
719 1 -1.1104 3.60541 32.7566 3.71322
724 1 -1.1104 6.61539 29.7676 3.5904
725 1 -1.1104 6.47529 32.9157 0.932122
710 1 -1.1104 6.6935 32.5555 3.92233
854 1 -1.1104 6.59342 32.9036 6.7438
857 1 -1.1104 3.67838 32.7191 6.44499
965 2 2.2208 2.26356 45.4443 13.5401
795 1 -1.1104 1.03155 27.1437 6.65428
855 1 -1.1104 3.62508 29.7201 6.47949
849 1 -1.1104 0.887811 29.8433 6.75153
853 1 -1.1104 0.888654 33.108 6.65721
851 1 -1.1104 6.39107 30.028 6.44288
9537 2 2.2208 -0.259563 39.8342 5.06106
675 1 -1.1104 6.72032 27.0715 1.05362
723 1 -1.1104 6.6019 29.8404 0.943158
679 2 2.2208 11.0622 28.4375 5.16787
689 2 2.2208 8.03259 28.5959 2.34152
727 1 -1.1104 12.1227 29.7494 1.01928
729 1 -1.1104 12.3399 29.7809 3.92799
731 1 -1.1104 12.157 32.8386 0.954258
732 2 2.2208 10.7311 31.3188 2.33493
734 1 -1.1104 12.1902 32.6929 3.78332
735 1 -1.1104 9.41882 30.05 0.868272
738 1 -1.1104 9.57697 29.9136 3.76382
740 2 2.2208 8.14218 31.3115 5.25969
742 1 -1.1104 9.44417 32.7101 0.945021
743 1 -1.1104 9.34435 32.7858 3.7843
885 1 -1.1104 12.1008 32.8463 6.42218
9532 2 2.2208 -0.424136 31.2702 2.37938
9525 2 2.2208 13.4422 42.6465 10.255
888 1 -1.1104 9.26393 32.7645 6.4862
886 1 -1.1104 9.46881 29.9175 6.4526
976 2 2.2208 10.6964 34.1551 -0.426591
699 2 2.2208 5.18724 33.9192 5.17774