ITEM: TIMESTEP
40000
ITEM: NUMBER OF ATOMS
17910
ITEM: BOX BOUNDS pp pp pp
-3.5522469172351301e-01 2.7695224691723457e+01
-4.3672983508015397e+00 3.3244729835080403e+02
-3.6101751547910588e-01 2.7701017515478839e+01
ITEM: ATOMS id type q x y z
1 2 2.2208 5.16882 1.13188 5.35149
2 1 -1.1104 1.10367 -2.97297 1.02582
3 1 -1.1104 1.31306 2.74646 1.05884
6 1 -1.1104 1.20735 -2.97136 3.82107
7 1 -1.1104 0.992627 2.61801 3.84132
10 1 -1.1104 1.06016 -0.0941355 0.976864
12 2 2.2208 5.29495 -1.42334 2.37214
13 2 2.2208 5.35192 4.25676 2.45693
14 1 -1.1104 1.14169 -0.229971 3.8724
16 1 -1.1104 3.97556 -2.88302 1.05926
17 1 -1.1104 3.96049 2.66642 1.01643
18 2 2.2208 2.54894 1.21329 2.52224
19 1 -1.1104 3.85769 -3.01651 3.89564
20 1 -1.1104 3.95569 2.65613 3.82208
21 2 2.2208 2.47746 -1.57354 5.27725
22 2 2.2208 2.55543 3.99584 5.17371
23 1 -1.1104 3.80947 -0.138883 0.999472
24 1 -1.1104 3.89284 -0.310373 3.89557
25 2 2.2208 5.17672 6.90054 5.36421
28 1 -1.1104 1.2102 8.2171 3.6305
30 1 -1.1104 1.08703 5.51032 0.99411
32 1 -1.1104 1.04159 5.43993 3.80177
34 1 -1.1104 3.91659 8.33126 1.11193
35 2 2.2208 2.45001 6.82029 2.27305
36 1 -1.1104 3.95774 8.2913 3.92396
37 1 -1.1104 3.9873 5.56481 1.01575
38 1 -1.1104 3.82298 5.50943 3.76947
26 1 -1.1104 0.901719 8.34955 0.826962
5 1 -1.1104 6.70933 2.71926 1.09763
15 1 -1.1104 6.58939 -0.0402578 3.82862
33 1 -1.1104 6.59729 5.46454 3.95518
75 2 2.2208 13.6907 -1.58648 5.25424
91 1 -1.1104 1.08865 5.324 6.64708
9 1 -1.1104 6.81746 2.70932 3.79566
11 1 -1.1104 6.72132 -0.229635 0.94712
8 1 -1.1104 6.59373 -2.93605 3.70262
31 1 -1.1104 6.75311 5.65848 1.10899
78 2 2.2208 13.6831 -1.59313 10.801
94 1 -1.1104 3.85394 5.48801 6.68466
93 1 -1.1104 3.78039 8.35014 6.70101
88 1 -1.1104 3.76187 -0.311545 6.74397
84 1 -1.1104 1.11723 -0.305602 6.76371
80 1 -1.1104 1.21365 -2.99711 6.73194
89 1 -1.1104 1.18219 8.29048 6.56626
86 1 -1.1104 3.80383 -3.08094 6.78123
82 1 -1.1104 6.5467 -3.02823 6.5933
81 1 -1.1104 1.31957 2.38708 6.56556
90 1 -1.1104 6.80331 8.32787 6.72062
8707 2 2.2208 5.17391 -4.35235 5.27497
29 1 -1.1104 6.66334 8.21487 3.71696
8710 2 2.2208 10.8743 -4.27005 5.27638
163 1 -1.1104 9.39159 2.57419 12.1877
334 2 2.2208 2.59373 4.0492 -0.419291
77 2 2.2208 13.7944 4.06222 5.20956
4 1 -1.1104 6.77732 -3.05292 1.0126
27 1 -1.1104 6.70487 8.40991 0.99867
46 2 2.2208 10.8553 1.30277 5.19776
47 1 -1.1104 12.2297 -3.04016 1.0194
48 1 -1.1104 12.3991 2.6508 1.10268
49 1 -1.1104 12.3194 -2.98817 3.92909
50 1 -1.1104 12.2232 2.56711 3.81305
51 1 -1.1104 12.3672 -0.189098 0.940188
52 2 2.2208 10.864 -1.58258 2.35336
53 2 2.2208 10.9519 3.98159 2.3976
54 1 -1.1104 12.3407 -0.189726 3.71998
55 1 -1.1104 9.55284 -2.91411 1.04772
56 1 -1.1104 9.4306 2.63788 1.05484
57 2 2.2208 8.16661 1.31203 2.47178
58 1 -1.1104 9.44384 -2.75212 3.76032
59 1 -1.1104 9.49706 2.749 3.88066
60 2 2.2208 7.98835 -1.52431 5.23196
61 2 2.2208 8.07758 4.18937 5.35008
62 1 -1.1104 9.6126 -0.139206 1.11571
63 1 -1.1104 9.44923 -0.0331516 3.84182
64 2 2.2208 10.8851 6.83884 5.30104
66 1 -1.1104 12.3722 8.13058 3.806
67 1 -1.1104 12.214 5.41576 1.03619
68 1 -1.1104 12.3291 5.31387 3.85249
69 1 -1.1104 9.48198 8.50097 1.00152
70 2 2.2208 8.05295 6.99153 2.48803
71 1 -1.1104 9.59341 8.34273 3.81922
72 1 -1.1104 9.4422 5.48343 1.01581
73 1 -1.1104 9.52847 5.55042 3.85162
65 1 -1.1104 12.3192 8.21409 1.10093
149 1 -1.1104 9.45966 5.56018 6.56211
140 1 -1.1104 12.1846 2.83154 6.67196
74 2 2.2208 13.688 1.18744 2.4503
146 1 -1.1104 12.2362 5.61307 6.71424
145 1 -1.1104 12.4516 8.46615 6.87859
169 1 -1.1104 9.43813 -0.266469 12.1211
147 1 -1.1104 9.58592 8.2748 6.62976
141 1 -1.1104 12.2928 -0.150504 6.44165
139 1 -1.1104 12.1897 -2.87416 6.79211
87 1 -1.1104 3.98168 2.71526 6.60306
152 2 2.2208 8.12798 6.95678 8.01272
83 1 -1.1104 6.63582 2.53853 6.78986
85 1 -1.1104 6.55767 -0.284342 6.64283
95 2 2.2208 5.42252 1.37407 10.8061
96 1 -1.1104 0.94577 -2.95483 12.2096
97 1 -1.1104 1.1093 2.68523 12.2295
100 1 -1.1104 1.1954 -2.93333 9.42096
101 1 -1.1104 1.12214 2.63023 9.42937
104 1 -1.1104 1.00883 -0.0442982 12.369
106 2 2.2208 5.2036 -1.57976 8.09655
107 2 2.2208 5.26251 4.05957 8.01371
108 1 -1.1104 1.2366 -0.0972449 9.64629
110 1 -1.1104 3.84416 -2.93951 12.383
111 1 -1.1104 3.95053 2.62148 12.233
112 2 2.2208 2.57668 1.18898 8.06609
113 1 -1.1104 3.95349 -2.84271 9.53698
114 1 -1.1104 3.92677 2.66613 9.40317
115 2 2.2208 2.48659 -1.43704 10.9855
116 2 2.2208 2.5327 3.95136 10.9067
117 1 -1.1104 3.776 -0.128902 12.3529
118 1 -1.1104 3.88958 -0.0685432 9.52997
119 2 2.2208 5.20579 6.9912 10.8287
120 1 -1.1104 0.966752 8.28147 12.2323
122 1 -1.1104 1.03442 8.25008 9.50852
124 1 -1.1104 1.13757 5.40322 12.3346
126 1 -1.1104 1.07824 5.54508 9.72521
128 1 -1.1104 3.82638 8.31088 12.2195
129 2 2.2208 2.4527 6.68344 8.05366
130 1 -1.1104 3.79429 8.24465 9.50295
131 1 -1.1104 3.94367 5.35229 12.2507
132 1 -1.1104 3.837 5.31844 9.41817
99 1 -1.1104 6.72696 2.79337 12.2074
105 1 -1.1104 6.59643 -0.259368 12.1827
125 1 -1.1104 6.62877 5.57718 12.2621
127 1 -1.1104 6.6353 5.56912 9.46229
92 1 -1.1104 6.70291 5.53615 6.69005
123 1 -1.1104 6.59618 8.33739 9.45498
102 1 -1.1104 6.68698 -3.06416 9.43996
98 1 -1.1104 6.65893 -3.07829 12.3442
103 1 -1.1104 6.78974 2.82889 9.43833
178 2 2.2208 2.43063 1.3833 13.6745
162 1 -1.1104 9.49728 -3.03542 12.3947
8716 2 2.2208 5.26694 -4.3795 10.8633
151 1 -1.1104 9.31923 8.4749 9.34529
292 2 2.2208 10.7662 3.85326 13.6193
172 1 -1.1104 12.4392 8.21507 12.3369
45 2 2.2208 13.7229 3.96478 10.8304
143 1 -1.1104 9.43271 2.65285 6.77461
165 1 -1.1104 9.49477 -2.96236 9.56597
160 2 2.2208 10.7635 4.23153 8.09803
154 1 -1.1104 12.2086 -3.14791 12.239
44 2 2.2208 13.7443 6.93108 8.20876
109 1 -1.1104 6.61124 -0.0386202 9.49874
79 2 2.2208 13.6525 1.32261 8.04445
166 1 -1.1104 9.53489 2.9113 9.49413
148 1 -1.1104 9.44321 5.652 9.43423
136 1 -1.1104 9.48988 8.32465 12.2054
121 1 -1.1104 6.5647 8.45333 12.2634
8733 2 2.2208 2.421 -4.44343 13.6832
142 1 -1.1104 9.33235 -2.95264 6.60275
161 1 -1.1104 12.2458 -0.170491 9.38981
138 1 -1.1104 12.1315 5.36448 12.3734
144 1 -1.1104 9.42906 -0.203364 6.73865
155 1 -1.1104 12.2089 2.38234 12.2398
157 1 -1.1104 12.3597 2.71252 9.36431
173 1 -1.1104 12.2767 8.25527 9.5053
150 1 -1.1104 9.47246 5.49248 12.2039
168 2 2.2208 8.07099 4.17637 10.8554
153 2 2.2208 10.8638 1.14019 10.7584
158 1 -1.1104 12.208 -0.349786 11.9943
167 2 2.2208 8.02166 -1.5819 10.8978
170 1 -1.1104 9.33613 0.0301895 9.59214
171 2 2.2208 11.0107 6.92421 10.9365
164 2 2.2208 8.00371 1.32507 8.06203
159 2 2.2208 10.7547 -1.52783 8.03248
137 1 -1.1104 12.4554 5.51892 9.56595
156 1 -1.1104 12.1608 -2.99028 9.5905
8709 2 2.2208 8.11928 -4.43909 2.51335
8706 2 2.2208 2.46641 -4.44337 2.25734
134 2 2.2208 -0.229899 -1.65844 8.10378
39 2 2.2208 -0.288068 6.83695 5.18309
8717 2 2.2208 -0.357522 -4.38588 10.8905
176 2 2.2208 5.21868 -1.57475 13.7125
332 2 2.2208 5.3904 1.31437 -0.345008
343 2 2.2208 -0.292099 6.7718 -0.481238
177 2 2.2208 2.55565 6.92171 13.6601
241 2 2.2208 10.8985 1.21966 -0.428104
290 2 2.2208 8.03044 1.17644 13.6318
179 2 2.2208 5.19871 3.94898 13.6289
182 2 2.2208 5.21986 1.28977 16.3576
183 1 -1.1104 1.04013 -2.97888 17.9504
184 1 -1.1104 0.941148 2.7532 17.9697
187 1 -1.1104 1.0179 -3.10307 15.0694
189 1 -1.1104 0.941539 2.72492 15.049
195 1 -1.1104 0.98894 -0.20407 17.937
197 2 2.2208 5.18871 -1.42399 19.233
198 2 2.2208 5.28435 4.00419 19.0492
199 1 -1.1104 0.959412 -0.229502 15.2252
203 1 -1.1104 3.74748 -2.95989 17.8548
204 1 -1.1104 3.75738 2.52362 17.9138
205 2 2.2208 2.40516 1.28264 19.2674
206 1 -1.1104 3.87936 -2.87343 15.083
208 1 -1.1104 3.77334 2.70131 15.0451
210 2 2.2208 2.29621 -1.61557 16.4694
211 2 2.2208 2.37452 3.99901 16.5075
212 1 -1.1104 3.78383 -0.165447 17.7821
213 1 -1.1104 3.75508 -0.023508 15.0609
215 2 2.2208 5.36596 6.80606 16.4434
216 1 -1.1104 0.969685 8.21468 18.2015
218 1 -1.1104 1.14294 8.2092 15.1212
221 1 -1.1104 1.09441 5.45732 17.9831
223 1 -1.1104 1.0035 5.48757 15.1138
227 1 -1.1104 3.85391 8.11326 17.7369
228 2 2.2208 2.57049 6.76836 19.1509
229 1 -1.1104 3.9162 8.27569 15.0336
231 1 -1.1104 4.03326 5.28799 17.6739
232 1 -1.1104 3.68924 5.4584 15.132
230 1 -1.1104 3.90893 8.11209 20.4179
186 1 -1.1104 6.67743 2.50052 17.724
217 1 -1.1104 6.71913 8.33116 17.9278
287 2 2.2208 13.6175 -1.57159 16.5161
222 1 -1.1104 6.78252 5.40214 17.7206
8790 2 2.2208 8.16053 -4.42461 24.9321
238 2 2.2208 -0.353061 -1.60871 19.286
233 1 -1.1104 3.80018 5.1686 20.2998
8878 2 2.2208 2.41722 -4.28954 24.8918
193 1 -1.1104 6.67368 2.5379 14.8738
201 1 -1.1104 6.60799 -0.138072 15.0431
191 1 -1.1104 6.68989 -2.90639 15.1685
225 1 -1.1104 6.64733 5.35192 14.9426
196 1 -1.1104 6.67577 -0.181375 17.829
207 1 -1.1104 3.87259 -2.98503 20.7133
220 1 -1.1104 6.62779 8.13872 20.6615
200 1 -1.1104 1.08209 -0.189082 20.696
190 1 -1.1104 0.959224 2.78704 20.6242
214 1 -1.1104 3.82672 -0.118536 20.7076
188 1 -1.1104 1.13285 -3.06863 20.796
355 2 2.2208 10.8829 -1.53183 24.7441
286 2 2.2208 13.7227 6.79279 13.5701
185 1 -1.1104 6.66361 -2.91457 17.8728
8903 2 2.2208 2.42365 -4.36817 19.3627
245 2 2.2208 10.7411 1.31887 16.5158
246 1 -1.1104 12.2154 -2.95222 17.9252
247 1 -1.1104 12.3742 2.70552 18.0295
248 1 -1.1104 12.2369 -2.88098 15.0968
250 1 -1.1104 12.1918 2.6484 15.0969
252 1 -1.1104 12.2056 -0.0302852 17.8487
253 2 2.2208 10.9244 -1.57646 19.3976
254 2 2.2208 10.8926 4.14634 19.2555
255 1 -1.1104 12.2479 -0.166796 14.9129
257 1 -1.1104 9.56104 -3.07406 17.8971
258 1 -1.1104 9.39662 2.6359 17.9653
259 2 2.2208 8.13443 1.29734 19.3752
260 1 -1.1104 9.42982 -2.99766 15.1546
262 1 -1.1104 9.35772 2.61898 15.0892
264 2 2.2208 8.11155 -1.60232 16.5291
265 2 2.2208 7.96155 4.02798 16.3946
266 1 -1.1104 9.49706 -0.135708 17.9982
267 1 -1.1104 9.45519 -0.249228 15.0213
269 2 2.2208 10.8666 6.84629 16.5297
270 1 -1.1104 12.3027 8.21277 17.8415
271 1 -1.1104 12.217 8.30863 15.0147
273 1 -1.1104 12.1742 5.54992 17.9336
274 1 -1.1104 12.3571 5.50033 15.1472
276 1 -1.1104 9.4823 8.25367 17.8428
277 2 2.2208 8.11885 6.7929 19.2316
278 1 -1.1104 9.47804 8.15789 15.0397
280 1 -1.1104 9.47073 5.34332 17.8874
281 1 -1.1104 9.43894 5.49544 14.9206
349 2 2.2208 10.8488 1.39633 22.1327
263 1 -1.1104 9.5668 2.68808 20.5889
279 1 -1.1104 9.75899 8.21005 20.7252
236 2 2.2208 13.5372 1.22905 19.3691
194 1 -1.1104 6.62615 2.64811 20.5967
235 2 2.2208 8.20081 3.97797 27.7737
251 1 -1.1104 12.2126 2.81377 20.7664
272 1 -1.1104 12.5309 8.3127 20.6674
282 1 -1.1104 9.47755 5.52913 20.6619
256 1 -1.1104 12.3681 -0.133987 20.6967
275 1 -1.1104 12.3364 5.48149 20.7252
365 1 -1.1104 9.47858 0.0290458 23.4462
362 1 -1.1104 9.47125 2.63868 26.2798
224 1 -1.1104 1.02631 5.80127 20.6467
356 2 2.2208 10.8909 4.1497 24.8386
192 1 -1.1104 6.58194 -2.90618 20.5097
209 1 -1.1104 3.79295 2.50234 20.7262
226 1 -1.1104 6.61207 5.51015 20.6118
294 2 2.2208 5.34503 1.23179 21.9598
295 1 -1.1104 0.932762 -2.80388 23.5696
296 1 -1.1104 0.948474 2.6391 23.4266
299 1 -1.1104 1.20234 -3.01446 26.2959
300 1 -1.1104 1.13343 2.57611 26.2873
303 1 -1.1104 1.11634 -0.0634154 23.5018
305 2 2.2208 5.326 -1.6413 24.8194
306 2 2.2208 5.19234 4.03644 24.7982
307 1 -1.1104 1.11016 -0.0845443 26.2007
309 1 -1.1104 3.80185 -3.10731 23.5407
310 1 -1.1104 3.83625 2.54073 23.4111
311 2 2.2208 2.5543 1.11003 24.8191
312 1 -1.1104 3.85813 -2.91622 26.3499
313 1 -1.1104 3.98818 2.67297 26.1299
314 2 2.2208 2.38953 -1.64937 22.1388
315 2 2.2208 2.38278 3.99412 22.0183
316 1 -1.1104 3.93945 -0.428941 23.4557
317 1 -1.1104 3.94283 -0.122614 26.3209
318 2 2.2208 5.18794 6.80645 21.9913
319 1 -1.1104 1.17773 8.24212 23.5113
321 1 -1.1104 0.994964 8.37507 26.2359
323 1 -1.1104 1.12608 5.50775 23.4562
325 1 -1.1104 0.97078 5.39084 26.3291
327 1 -1.1104 4.14499 7.87184 23.6088
328 2 2.2208 2.47603 6.96909 24.8436
329 1 -1.1104 3.77787 8.27084 26.4036
330 1 -1.1104 4.04655 5.23292 23.3159
331 1 -1.1104 3.7937 5.48266 26.2328
297 1 -1.1104 6.73245 -3.02333 23.4825
298 1 -1.1104 6.63071 2.74932 23.5365
202 1 -1.1104 6.73324 -0.192078 20.515
322 1 -1.1104 6.58163 8.38161 26.4132
304 1 -1.1104 6.6633 -0.0365937 23.4856
302 1 -1.1104 6.72453 2.68046 26.297
326 1 -1.1104 6.7049 5.56342 26.3285
308 1 -1.1104 6.86437 -0.111691 26.1348
324 1 -1.1104 6.71169 5.66187 23.4392
301 1 -1.1104 6.68528 -2.94975 26.197
8886 2 2.2208 8.02927 -4.25601 19.4087
283 2 2.2208 13.5787 4.07202 16.5313
284 2 2.2208 13.7831 6.89165 19.2452
8787 2 2.2208 10.8478 -4.47444 22.1007
333 1 -1.1104 12.2926 8.26145 26.3088
350 1 -1.1104 12.2218 -2.94977 23.3201
354 1 -1.1104 12.272 -0.235514 23.4954
359 1 -1.1104 9.45324 2.90687 23.4571
363 2 2.2208 8.09961 -1.51367 22.1453
320 1 -1.1104 6.73793 8.4957 23.3925
337 2 2.2208 13.7415 1.21232 24.92
249 1 -1.1104 12.1233 -2.98133 20.5141
358 1 -1.1104 9.50513 -3.0534 23.5995
346 1 -1.1104 9.40307 5.61173 23.4327
357 1 -1.1104 12.2517 -0.119278 26.1324
366 1 -1.1104 9.5111 -0.175146 26.3826
268 1 -1.1104 9.59545 -0.0411084 20.7415
8879 2 2.2208 5.21645 -4.45584 22.0266
341 1 -1.1104 12.4372 8.26451 23.5087
345 1 -1.1104 9.62697 5.56465 26.2129
243 1 -1.1104 12.2981 5.44027 26.2607
244 1 -1.1104 12.1733 5.43882 23.5266
360 2 2.2208 8.0769 1.22495 24.7815
351 1 -1.1104 12.2451 2.56808 23.6805
261 1 -1.1104 9.33263 -2.86357 20.7453
353 1 -1.1104 12.3357 2.65574 26.3188
361 1 -1.1104 9.48649 -3.04993 26.4722
367 2 2.2208 10.9394 6.91252 22.2065
347 1 -1.1104 9.41686 8.43254 26.391
364 2 2.2208 8.00858 4.3047 22.0164
348 2 2.2208 8.08491 6.92367 25.0202
352 1 -1.1104 12.0736 -2.99272 26.3109
242 1 -1.1104 9.562 8.38985 23.5765
8725 2 2.2208 5.25883 -4.25152 27.6382
234 2 2.2208 13.5887 4.10006 22.1874
336 2 2.2208 13.7331 6.79874 24.9017
239 2 2.2208 8.13111 -1.68937 27.7997
340 2 2.2208 10.8473 7.03857 27.7392
291 2 2.2208 10.861 -1.65666 13.6214
289 2 2.2208 8.08639 6.84823 13.6369
335 2 2.2208 5.29669 7.021 27.7927
180 2 2.2208 2.55631 -1.56091 27.6847
368 2 2.2208 5.19689 12.5693 5.26949
369 1 -1.1104 1.28695 11.1057 1.03754
373 2 2.2208 5.28674 9.77591 2.3987
374 1 -1.1104 0.983348 10.9693 3.93086
376 2 2.2208 2.58164 12.6149 2.36375
377 2 2.2208 2.46889 9.68086 5.18231
378 1 -1.1104 3.96032 11.1919 1.03406
380 1 -1.1104 3.95917 11.1967 3.87903
381 2 2.2208 5.35562 18.2696 5.20162
382 1 -1.1104 0.998009 13.8438 1.0814
384 1 -1.1104 1.13183 19.454 0.941646
388 1 -1.1104 1.01571 13.9583 3.80513
389 1 -1.1104 0.942728 19.5161 3.71728
391 1 -1.1104 1.16095 16.6964 0.939572
394 2 2.2208 5.39799 15.4641 2.56771
395 2 2.2208 5.23988 20.9361 2.41339
396 1 -1.1104 1.10617 16.7116 3.97684
398 1 -1.1104 3.79544 14.0159 1.04278
400 1 -1.1104 4.02758 19.6171 0.925252
402 2 2.2208 2.48625 18.1115 2.38293
403 1 -1.1104 3.85872 13.9569 3.88006
404 1 -1.1104 3.75881 19.5659 3.78815
405 2 2.2208 2.49774 15.4752 5.3423
406 2 2.2208 2.52175 20.9738 5.1198
407 1 -1.1104 4.09524 16.8253 1.07138
409 1 -1.1104 4.00171 16.8383 3.94808
470 1 -1.1104 1.20475 19.5456 6.47168
425 1 -1.1104 6.70483 19.5835 0.977212
397 1 -1.1104 6.77063 16.7445 4.11154
427 1 -1.1104 6.75912 16.9295 1.18554
371 1 -1.1104 6.64304 11.1388 1.02164
614 2 2.2208 8.02774 18.0881 13.6328
387 1 -1.1104 6.82163 19.5781 6.53968
408 1 -1.1104 3.8769 16.902 6.71835
375 1 -1.1104 6.80711 11.0563 3.83569
385 1 -1.1104 6.71178 14.1259 0.962433
386 1 -1.1104 6.66013 13.7104 6.67479
392 1 -1.1104 0.944951 16.7879 6.76357
379 1 -1.1104 3.97977 11.1185 6.6643
383 1 -1.1104 1.09948 13.8898 6.73704
370 1 -1.1104 1.04158 11.0384 6.59601
399 1 -1.1104 4.00349 14.0413 6.50966
372 1 -1.1104 6.70081 11.0843 6.67061
393 1 -1.1104 6.80039 16.62 6.72609
615 2 2.2208 13.8037 18.2703 13.5744
390 1 -1.1104 6.70734 13.966 3.75233
9407 2 2.2208 -0.267539 18.0144 10.7801
513 2 2.2208 10.8239 18.2518 11.0104
504 2 2.2208 10.9371 15.4393 8.11169
426 1 -1.1104 6.60257 19.5735 3.67736
415 2 2.2208 10.9393 12.6231 5.21442
416 1 -1.1104 12.2209 11.0909 1.01143
418 2 2.2208 10.9382 9.73768 2.39392
419 1 -1.1104 12.4666 11.0552 3.78726
420 2 2.2208 7.92364 12.6515 2.39202
421 2 2.2208 8.17757 9.73384 5.2881
422 1 -1.1104 9.28164 11.2269 0.92882
424 1 -1.1104 9.70428 11.2152 3.71931
428 2 2.2208 10.997 18.2124 5.28623
429 1 -1.1104 12.2834 13.9621 1.01076
431 1 -1.1104 12.2864 19.6406 1.17239
433 1 -1.1104 12.385 13.897 3.79085
434 1 -1.1104 12.3123 19.7478 3.93164
435 1 -1.1104 12.1895 16.8396 1.0453
437 2 2.2208 10.8379 15.3506 2.47489
438 2 2.2208 10.8678 21.0805 2.46372
439 1 -1.1104 12.1979 16.7955 3.88294
440 1 -1.1104 9.42672 13.9705 1.1004
442 1 -1.1104 9.46969 19.5452 1.07976
444 2 2.2208 8.17255 18.2517 2.46484
445 1 -1.1104 9.49045 14.0062 3.86885
446 1 -1.1104 9.63915 19.5028 3.91778
447 2 2.2208 8.06449 15.3071 5.33749
448 2 2.2208 8.24063 20.9376 5.32322
449 1 -1.1104 9.44299 16.9425 1.00781
451 1 -1.1104 9.49794 16.813 3.86368
452 2 2.2208 13.6849 18.21 2.5337
9262 2 2.2208 13.7241 21.0889 5.29321
430 1 -1.1104 12.2193 13.8999 6.66198
441 1 -1.1104 9.45638 14.0562 6.75399
443 1 -1.1104 9.58781 19.6034 6.67672
436 1 -1.1104 12.3593 16.6211 6.7905
423 1 -1.1104 9.48745 11.2515 6.58086
450 1 -1.1104 9.61259 16.8087 6.69097
417 1 -1.1104 12.333 11.2038 6.52482
474 1 -1.1104 6.61943 16.6662 12.3933
401 1 -1.1104 4.00362 19.5976 6.52461
454 1 -1.1104 4.05589 19.4317 12.2011
455 1 -1.1104 3.94062 13.9342 12.1782
459 1 -1.1104 1.11692 19.5292 9.21662
460 1 -1.1104 1.15723 16.7605 9.51421
461 2 2.2208 5.28557 20.9523 7.96836
462 1 -1.1104 1.23166 13.9549 9.40869
463 2 2.2208 5.36722 15.3935 8.03503
466 1 -1.1104 1.30193 19.4464 12.1384
467 1 -1.1104 1.07887 13.8186 12.2371
468 2 2.2208 5.36585 18.0709 10.8926
469 1 -1.1104 3.86976 19.6492 9.42935
471 2 2.2208 2.48541 18.1857 8.07695
472 1 -1.1104 3.98611 16.6204 9.40391
473 1 -1.1104 3.89809 13.907 9.49263
475 1 -1.1104 1.15251 16.6867 12.1789
476 1 -1.1104 3.83086 16.7916 12.373
477 2 2.2208 2.43468 21.0347 10.7021
478 2 2.2208 5.2439 12.5722 10.8556
479 1 -1.1104 0.975916 11.0349 12.4507
481 2 2.2208 2.50906 15.3474 10.843
482 2 2.2208 5.2285 9.69059 8.06221
483 1 -1.1104 1.00918 11.129 9.58353
485 2 2.2208 2.4361 12.4069 8.16767
486 2 2.2208 2.32427 9.67804 10.8048
487 1 -1.1104 3.74251 11.2659 12.3174
488 1 -1.1104 3.84442 11.0374 9.37758
484 1 -1.1104 6.76421 11.1451 9.62314
413 2 2.2208 13.7012 15.417 10.822
456 1 -1.1104 6.55564 19.5402 9.38614
457 1 -1.1104 6.77213 16.7028 9.62261
465 1 -1.1104 6.65849 14.0443 12.2342
464 1 -1.1104 6.83447 19.4716 12.154
524 2 2.2208 5.22004 15.3311 13.6307
697 2 2.2208 13.7382 12.4022 13.7439
520 2 2.2208 2.5265 18.1587 13.6
523 2 2.2208 2.40977 12.641 13.6556
9405 2 2.2208 -0.389521 18.2322 5.1724
493 1 -1.1104 9.40682 16.8708 12.1284
414 2 2.2208 13.6291 18.0584 8.01903
432 1 -1.1104 12.2237 19.5242 6.80773
518 2 2.2208 13.8179 9.69629 10.8653
9351 2 2.2208 13.6459 21.0524 10.8436
613 2 2.2208 10.9112 15.3029 13.5875
498 2 2.2208 8.12769 18.0682 8.02779
576 2 2.2208 8.0343 12.5488 13.7314
458 1 -1.1104 6.63993 13.8975 9.26566
491 1 -1.1104 12.3069 10.9547 12.2286
496 1 -1.1104 9.33097 19.5745 9.66981
510 2 2.2208 8.11451 12.4483 8.04737
505 1 -1.1104 12.3551 16.8847 12.2512
507 1 -1.1104 12.24 19.6518 9.58895
489 1 -1.1104 12.5142 11.1026 9.49817
495 2 2.2208 8.0742 15.3851 10.9572
502 2 2.2208 10.915 20.937 8.132
508 1 -1.1104 12.3341 13.8864 9.36924
499 1 -1.1104 9.55933 19.5548 12.5094
492 1 -1.1104 9.45426 16.736 9.52405
490 2 2.2208 10.9988 9.79525 8.008
480 1 -1.1104 6.66552 11.2056 12.4391
497 1 -1.1104 9.46279 13.8988 9.53682
494 2 2.2208 8.05639 21.0474 10.9177
500 1 -1.1104 9.54653 13.9194 12.3464
509 2 2.2208 8.08281 9.76967 10.9358
511 1 -1.1104 12.3306 19.6197 12.2527
501 1 -1.1104 12.2499 16.7275 9.52777
512 1 -1.1104 12.2834 13.9729 12.2266
514 2 2.2208 10.9744 12.4636 10.8218
503 1 -1.1104 9.51693 11.154 9.48134
506 1 -1.1104 9.4413 11.0254 12.3058
650 2 2.2208 2.53731 15.2991 -0.338238
687 2 2.2208 8.13249 21.0293 -0.280668
572 2 2.2208 5.26559 20.9077 13.5743
612 2 2.2208 10.8886 20.9903 13.6613
521 2 2.2208 5.19202 9.79742 13.6428
694 2 2.2208 13.7338 15.417 -0.245315
526 2 2.2208 5.28184 12.5074 16.4934
527 1 -1.1104 1.0711 11.1733 18.2692
529 2 2.2208 5.33644 9.63963 19.2793
530 1 -1.1104 0.90191 11.0614 15.425
533 2 2.2208 2.59436 12.6985 19.1973
534 2 2.2208 2.41212 9.70133 16.4526
535 1 -1.1104 3.9033 11.0055 17.6453
536 1 -1.1104 3.76017 11.1192 14.9863
538 2 2.2208 5.31036 18.106 16.5486
539 1 -1.1104 1.0622 13.9583 17.8058
540 1 -1.1104 1.11431 19.5494 17.7964
543 1 -1.1104 1.14578 13.9597 15.0954
545 1 -1.1104 1.17149 19.6773 14.8254
551 1 -1.1104 1.06618 16.7617 17.8614
553 2 2.2208 5.32111 15.3617 19.3408
554 2 2.2208 5.26374 20.8563 19.3041
555 1 -1.1104 1.24527 16.7756 15.0651
559 1 -1.1104 3.91215 13.9749 17.8352
560 1 -1.1104 3.8731 19.5409 17.8794
561 2 2.2208 2.49115 18.1927 19.2432
562 1 -1.1104 3.99788 13.9201 15.1775
564 1 -1.1104 3.87505 19.313 15.2076
566 2 2.2208 2.45641 15.2721 16.4551
567 2 2.2208 2.57477 20.9161 16.3555
568 1 -1.1104 3.88976 16.7451 18.0062
569 1 -1.1104 3.96243 16.6701 15.1122
537 1 -1.1104 3.86955 11.2155 20.3767
542 1 -1.1104 6.5249 19.3826 18.0349
528 1 -1.1104 6.69933 11.0667 17.8568
552 1 -1.1104 6.65359 16.6767 17.8977
563 1 -1.1104 3.90083 13.9829 20.6722
547 1 -1.1104 6.61488 14.1279 15.012
549 1 -1.1104 6.68497 19.5562 15.0301
531 1 -1.1104 6.68713 11.1199 15.0691
541 1 -1.1104 6.68507 13.874 17.9407
692 2 2.2208 13.7325 9.54164 27.5751
570 1 -1.1104 3.79204 16.6717 20.6771
546 1 -1.1104 1.07337 19.4711 20.7528
556 1 -1.1104 0.969582 16.5762 20.804
565 1 -1.1104 3.87337 19.463 20.6919
550 1 -1.1104 6.78323 19.6827 20.7673
548 1 -1.1104 6.56494 13.8863 20.7393
532 1 -1.1104 6.5415 11.1211 20.6153
558 1 -1.1104 6.69953 16.7925 20.6868
574 2 2.2208 13.7262 18.0635 19.3528
573 2 2.2208 13.6334 12.508 19.3919
655 2 2.2208 13.7652 15.2965 16.4981
557 1 -1.1104 7.05357 16.8314 15.1765
577 2 2.2208 10.9723 12.491 16.4969
578 1 -1.1104 12.2312 11.0842 17.8613
579 2 2.2208 10.987 9.69072 19.2881
580 1 -1.1104 12.1982 11.0239 14.9947
582 2 2.2208 8.06196 12.3276 19.36
583 2 2.2208 8.06579 9.70082 16.3412
584 1 -1.1104 9.33492 11.1846 17.902
585 1 -1.1104 9.68038 11.1231 15.0739
587 2 2.2208 10.8987 18.0493 16.4032
588 1 -1.1104 12.2957 13.7764 18.017
589 1 -1.1104 12.2896 19.4537 17.7535
590 1 -1.1104 12.3864 13.8652 15.0574
592 1 -1.1104 12.1116 19.3854 14.9844
594 1 -1.1104 12.2065 16.6614 17.8724
595 2 2.2208 10.8037 15.1967 19.2639
596 2 2.2208 10.7893 20.9399 19.2528
597 1 -1.1104 12.4985 16.6795 15.1015
599 1 -1.1104 9.58005 13.8943 17.834
600 1 -1.1104 9.51251 19.4732 17.9351
601 2 2.2208 8.2002 18.0912 19.3407
602 1 -1.1104 9.37539 13.9432 15.1296
604 1 -1.1104 9.39334 19.6759 15.1676
606 2 2.2208 8.23073 15.2672 16.4918
607 2 2.2208 8.01916 20.9392 16.5557
608 1 -1.1104 9.53662 16.7265 17.7911
609 1 -1.1104 9.6177 16.6632 14.8965
610 1 -1.1104 9.41093 16.4973 20.5198
605 1 -1.1104 9.43602 19.5638 20.8505
9465 2 2.2208 13.5383 20.9731 16.4922
586 1 -1.1104 9.57528 11.0112 20.6373
581 1 -1.1104 12.2113 11.3052 20.7315
575 2 2.2208 13.6092 9.72809 16.5169
593 1 -1.1104 12.4621 19.5556 20.6377
591 1 -1.1104 12.3177 14.0115 20.6976
603 1 -1.1104 9.41891 13.8544 20.5798
544 1 -1.1104 1.1566 13.4542 20.7707
616 1 -1.1104 3.90815 19.6287 23.4979
618 1 -1.1104 3.7857 13.9882 23.5654
620 1 -1.1104 1.20812 19.6563 26.2077
621 1 -1.1104 1.02722 16.7966 26.2686
622 1 -1.1104 1.31862 14.0082 26.3069
624 2 2.2208 5.325 21.0003 24.8686
625 2 2.2208 5.32526 15.3089 24.8856
627 1 -1.1104 1.01755 19.5811 23.4388
628 1 -1.1104 1.03423 14.2176 23.5333
629 2 2.2208 5.38808 18.0692 22.0036
630 1 -1.1104 3.89378 19.4236 26.276
631 2 2.2208 2.56979 18.15 24.889
632 1 -1.1104 3.93994 16.7762 26.3052
633 1 -1.1104 3.90846 13.9492 26.4131
635 1 -1.1104 1.25215 16.8944 23.4806
636 1 -1.1104 4.19538 16.7603 23.5083
637 2 2.2208 2.44027 20.8539 22.0526
638 2 2.2208 5.1805 12.4512 22.1225
639 1 -1.1104 0.934793 11.4977 23.6075
641 2 2.2208 2.45303 15.3002 22.1165
642 2 2.2208 5.17377 9.59068 24.8388
643 1 -1.1104 1.12058 11.2929 26.3041
645 2 2.2208 2.51353 12.5851 24.9432
646 1 -1.1104 4.03738 11.1142 23.7944
647 1 -1.1104 3.85165 11.0432 26.4408
626 1 -1.1104 6.5964 13.8994 23.5118
634 1 -1.1104 6.86931 16.6739 23.6219
644 1 -1.1104 6.68864 11.2243 26.3104
619 1 -1.1104 6.74009 16.8456 26.3929
623 1 -1.1104 6.69704 19.711 23.505
666 1 -1.1104 6.75625 19.6128 26.4098
640 1 -1.1104 6.82813 11.0754 23.4961
219 1 -1.1104 6.78736 8.37155 15.0494
652 2 2.2208 5.28291 12.4977 27.6421
690 2 2.2208 10.8817 12.6128 27.7662
688 2 2.2208 10.9011 18.2068 27.7393
651 2 2.2208 2.42517 9.72253 27.6718
696 2 2.2208 13.7465 18.1399 24.8222
693 2 2.2208 13.7593 15.3003 22.2882
9447 2 2.2208 13.6536 20.8741 27.8184
661 1 -1.1104 9.67299 16.7556 23.4251
9460 2 2.2208 13.7685 21.033 22.1535
683 2 2.2208 10.8539 12.5893 22.0693
677 1 -1.1104 9.60515 11.2651 23.428
689 2 2.2208 8.09536 9.80081 27.7233
684 1 -1.1104 12.3297 11.0594 23.4034
659 2 2.2208 -0.447832 12.6357 22.2295
675 1 -1.1104 12.3709 19.6377 26.3242
571 2 2.2208 13.7101 9.65591 22.2418
678 2 2.2208 8.07022 9.64622 22.0563
674 1 -1.1104 12.3828 16.8537 23.4526
598 1 -1.1104 12.28 16.6079 20.667
662 2 2.2208 8.04077 21.0425 22.162
681 1 -1.1104 12.1793 13.9204 23.549
679 2 2.2208 8.05091 12.5165 24.8944
660 1 -1.1104 9.63096 16.7292 26.2713
617 1 -1.1104 6.75496 14.0425 26.4429
682 2 2.2208 10.9942 18.1221 22.0654
685 2 2.2208 10.9273 9.77872 24.7971
686 1 -1.1104 12.4738 11.0156 26.1386
673 2 2.2208 10.9118 15.3705 24.8841
668 1 -1.1104 9.56285 19.5018 23.5187
670 1 -1.1104 12.2979 16.8353 26.3391
664 1 -1.1104 9.59965 19.6074 26.3845
680 1 -1.1104 12.3807 19.643 23.5605
676 1 -1.1104 12.4452 13.9345 26.3222
671 1 -1.1104 9.61515 11.1534 26.2193
663 2 2.2208 8.05268 15.3615 22.1411
669 1 -1.1104 9.33525 13.9463 23.4966
667 2 2.2208 8.17538 18.2283 25.0446
665 1 -1.1104 9.71404 14.0379 26.3806
672 2 2.2208 10.946 20.939 24.8567
691 2 2.2208 8.12495 15.3945 27.6712
648 2 2.2208 2.55809 21.0485 27.5717
695 2 2.2208 13.7979 12.5982 25.0416
649 2 2.2208 5.34874 18.239 27.6685
611 2 2.2208 10.8167 9.54872 13.7167
698 2 2.2208 5.44398 23.8117 5.32011
699 2 2.2208 5.28409 29.54 5.29611
700 1 -1.1104 1.0854 25.3012 0.931346
701 1 -1.1104 1.12206 25.1803 3.77379
702 1 -1.1104 1.08953 22.3536 1.01404
703 1 -1.1104 1.22149 28.0622 1.21526
704 2 2.2208 5.37858 26.6174 2.43115
705 1 -1.1104 0.915836 22.4212 3.87091
706 1 -1.1104 1.05476 27.942 3.90752
707 1 -1.1104 3.8915 25.1045 1.08083
708 2 2.2208 2.55732 23.7794 2.48079
709 2 2.2208 2.48363 29.5113 2.50326
710 1 -1.1104 3.96411 25.2914 3.91916
711 2 2.2208 2.3765 26.5953 5.25606
712 1 -1.1104 3.94929 22.2864 0.974685
713 1 -1.1104 3.94474 28.0537 1.27503
714 1 -1.1104 3.83175 22.4096 3.82568
715 1 -1.1104 3.92765 28.1034 3.91201
716 1 -1.1104 1.09416 30.9493 1.13742
717 1 -1.1104 1.11449 30.9425 3.85015
718 1 -1.1104 0.976019 33.609 1.15082
719 2 2.2208 5.3171 32.171 2.44797
720 1 -1.1104 1.15567 33.7164 3.99383
722 1 -1.1104 3.96818 30.7236 1.18635
723 1 -1.1104 4.00235 30.9162 3.9557
724 2 2.2208 2.50454 32.3184 5.35554
725 1 -1.1104 3.85528 33.5729 1.11281
726 1 -1.1104 3.96223 33.5691 3.817
774 1 -1.1104 1.08632 28.1674 6.69519
780 1 -1.1104 1.06192 31.0739 6.53947
755 1 -1.1104 6.89587 30.8239 1.11716
733 1 -1.1104 6.74232 22.3909 1.21857
785 1 -1.1104 3.9201 33.7077 6.55219
779 1 -1.1104 3.86995 28.0044 6.71004
773 1 -1.1104 1.12878 22.4108 6.61196
772 1 -1.1104 6.64622 25.3321 6.73227
731 1 -1.1104 6.73393 25.266 1.03018
734 1 -1.1104 6.74107 27.9661 1.1079
736 1 -1.1104 6.68106 27.9219 3.9409
756 1 -1.1104 6.84469 30.7486 4.01912
757 1 -1.1104 6.58506 33.5128 1.11455
721 1 -1.1104 6.86799 33.537 3.94908
778 1 -1.1104 4.10226 22.4404 6.64549
777 1 -1.1104 3.76503 25.1366 6.5283
784 1 -1.1104 3.83574 30.7951 6.65191
771 1 -1.1104 0.966061 25.3424 6.61357
775 1 -1.1104 6.82628 22.4129 6.72762
776 1 -1.1104 6.65796 28.3042 6.81633
735 1 -1.1104 6.74457 22.2213 3.89633
732 1 -1.1104 6.75711 25.3061 3.89518
9747 2 2.2208 13.8208 23.8213 2.4838
737 2 2.2208 11.0385 23.7926 5.33179
738 2 2.2208 10.8896 29.4035 5.35881
739 1 -1.1104 12.3535 25.2046 1.19388
740 1 -1.1104 12.3179 25.3855 4.03574
741 1 -1.1104 12.2018 22.5387 1.13785
742 1 -1.1104 12.3224 28.056 1.13139
743 2 2.2208 10.9371 26.6205 2.5477
744 1 -1.1104 12.278 22.4815 3.9121
745 1 -1.1104 12.4268 28.0993 3.72962
746 1 -1.1104 9.46588 25.2842 0.999233
747 2 2.2208 8.11629 23.8328 2.50316
748 2 2.2208 8.03543 29.327 2.47858
749 1 -1.1104 9.37343 25.1254 3.92224
750 2 2.2208 8.02848 26.7375 5.27702
751 1 -1.1104 9.52613 22.4468 1.17417
752 1 -1.1104 9.4796 28.1044 1.07171
753 1 -1.1104 9.43783 22.3875 3.83304
754 1 -1.1104 9.65743 27.9656 3.98671
758 1 -1.1104 12.3175 30.8911 1.25405
759 1 -1.1104 12.375 30.9587 4.00879
760 1 -1.1104 12.4696 33.7522 1.16998
761 2 2.2208 10.9443 32.2575 2.49717
762 1 -1.1104 12.4761 33.6432 3.98728
763 1 -1.1104 9.70703 30.9267 0.998081
764 1 -1.1104 9.62443 30.7437 3.83979
765 2 2.2208 8.05513 32.346 5.33606
766 1 -1.1104 9.50991 33.6616 1.19764
767 1 -1.1104 9.63561 33.7445 3.97209
826 1 -1.1104 9.4901 22.424 6.64293
827 1 -1.1104 9.53422 28.151 6.8642
824 1 -1.1104 12.3362 28.0645 6.71996
829 1 -1.1104 12.3596 33.4902 6.74556
828 1 -1.1104 12.4047 30.8094 6.75436
831 1 -1.1104 9.50875 33.8512 6.69238
9749 2 2.2208 13.7089 26.6865 5.28442
825 1 -1.1104 9.52042 25.1694 6.56828
823 1 -1.1104 12.3824 22.2574 6.72494
9610 2 2.2208 13.6893 32.2347 5.32632
9748 2 2.2208 13.7697 29.5483 2.50946
9746 2 2.2208 -0.27791 23.7419 5.26995
781 1 -1.1104 6.53258 30.9693 6.7159
782 1 -1.1104 1.0817 33.7919 7.03846
9683 2 2.2208 13.7736 26.4782 10.9343
9798 2 2.2208 13.6872 23.7637 13.6835
786 2 2.2208 5.22283 23.7831 11.0073
787 2 2.2208 5.35514 29.4254 10.9473
788 1 -1.1104 1.06186 25.1394 12.2621
790 1 -1.1104 1.12215 25.2777 9.33266
792 1 -1.1104 0.981564 22.3591 12.0987
793 1 -1.1104 1.15504 28.0508 12.3783
796 2 2.2208 5.28176 26.5916 8.12975
797 1 -1.1104 0.965323 22.4207 9.28825
798 1 -1.1104 1.09329 28.073 9.42199
801 1 -1.1104 3.80522 25.2122 12.259
802 2 2.2208 2.513 23.8714 7.98014
803 2 2.2208 2.57534 29.3615 8.14185