ITEM: TIMESTEP
30000
ITEM: NUMBER OF ATOMS
17910
ITEM: BOX BOUNDS pp pp pp
-3.6146217321782537e-01 2.7701462173217937e+01
-4.2265769646913283e+00 3.3230657696468978e+02
-3.6326857875518903e-01 2.7703268578754919e+01
ITEM: ATOMS id type q x y z
1 2 2.2208 5.40314 1.40515 5.32845
2 1 -1.1104 1.24185 -2.80469 1.03192
3 1 -1.1104 1.00117 2.84648 1.16204
6 1 -1.1104 1.0527 -2.75797 3.811
7 1 -1.1104 1.02504 2.6551 3.98985
10 1 -1.1104 1.0269 -0.0451524 1.08875
12 2 2.2208 5.38133 -1.38988 2.48637
13 2 2.2208 5.34589 4.16205 2.39635
14 1 -1.1104 1.26546 -0.180121 3.94873
16 1 -1.1104 4.02354 -2.86554 1.10244
17 1 -1.1104 3.80925 2.76422 1.10507
18 2 2.2208 2.3878 1.4315 2.56381
19 1 -1.1104 3.8267 -2.89385 3.74835
20 1 -1.1104 3.875 2.71833 3.88657
21 2 2.2208 2.5377 -1.45052 5.29089
22 2 2.2208 2.33425 4.16492 5.3078
23 1 -1.1104 3.88757 0.110981 1.29572
24 1 -1.1104 4.06659 0.0340367 3.94116
25 2 2.2208 5.29131 7.03812 5.32991
28 1 -1.1104 1.1092 8.38487 4.02111
30 1 -1.1104 1.24885 5.63572 1.11761
32 1 -1.1104 1.15902 5.48162 3.87497
34 1 -1.1104 3.85664 8.2632 1.13092
35 2 2.2208 2.51866 7.03169 2.69411
36 1 -1.1104 3.82648 8.58206 4.00316
37 1 -1.1104 3.90144 5.53844 1.12472
38 1 -1.1104 3.93615 5.56522 4.01285
26 1 -1.1104 1.34906 8.52909 1.37102
40 2 2.2208 -0.273028 -1.36562 2.51133
42 2 2.2208 -0.273056 4.21716 2.57243
180 2 2.2208 2.52369 -1.40126 -0.23108
8725 2 2.2208 5.40927 -4.2334 -0.393095
123 1 -1.1104 6.84594 8.38796 9.44846
4 1 -1.1104 6.78968 -2.80432 1.17712
79 2 2.2208 13.732 1.31467 8.18411
93 1 -1.1104 3.66268 8.3398 6.64047
158 1 -1.1104 12.2609 -0.268448 12.2843
109 1 -1.1104 6.6515 -0.021939 9.60435
167 2 2.2208 8.108 -1.4682 10.8498
8706 2 2.2208 2.58146 -4.23335 2.51942
171 2 2.2208 10.838 6.87545 11.0157
5 1 -1.1104 6.75931 2.78409 0.845062
27 1 -1.1104 6.51923 8.30763 1.11295
11 1 -1.1104 6.58072 0.00450143 1.05147
9 1 -1.1104 6.66589 2.84847 3.78101
8 1 -1.1104 6.80199 -2.72115 3.99358
15 1 -1.1104 6.81223 0.0680084 3.94233
29 1 -1.1104 6.64662 8.48325 3.93639
33 1 -1.1104 6.79282 5.63536 3.80987
31 1 -1.1104 6.65598 5.63976 1.14333
46 2 2.2208 10.9456 1.36963 5.38416
47 1 -1.1104 12.3162 -2.73892 1.21527
48 1 -1.1104 12.2785 2.66778 1.12037
49 1 -1.1104 12.3216 -2.92157 4.00533
50 1 -1.1104 12.3768 2.70688 3.74905
51 1 -1.1104 12.3409 0.0497281 1.14449
52 2 2.2208 10.9471 -1.2645 2.54934
53 2 2.2208 10.983 4.08986 2.39244
54 1 -1.1104 12.4231 -0.180543 4.00423
55 1 -1.1104 9.6041 -2.70699 1.13835
56 1 -1.1104 9.45903 2.81962 1.11511
57 2 2.2208 8.1148 1.50795 2.41415
58 1 -1.1104 9.57683 -2.71669 3.92736
59 1 -1.1104 9.54756 2.8639 3.97345
60 2 2.2208 8.13479 -1.48155 5.36141
61 2 2.2208 8.17959 4.27843 5.2886
62 1 -1.1104 9.47747 0.0546442 1.02831
63 1 -1.1104 9.69155 0.241745 3.7234
64 2 2.2208 11.014 6.83689 5.20079
66 1 -1.1104 12.4069 8.375 3.82913
67 1 -1.1104 12.2864 5.49289 1.13419
68 1 -1.1104 12.4456 5.45094 3.89827
69 1 -1.1104 9.43349 8.4485 1.20258
70 2 2.2208 8.02058 7.0285 2.46888
71 1 -1.1104 9.63031 8.38158 4.04616
72 1 -1.1104 9.47063 5.68848 0.95712
73 1 -1.1104 9.623 5.47825 3.89973
65 1 -1.1104 12.4276 8.46615 1.08337
83 1 -1.1104 6.66516 2.65008 6.59545
41 2 2.2208 -0.259966 1.18959 5.36609
8709 2 2.2208 8.17669 -4.16044 2.57158
142 1 -1.1104 9.61717 -2.75845 6.71549
241 2 2.2208 10.8348 1.34543 -0.345698
239 2 2.2208 7.98124 -1.44684 -0.367186
235 2 2.2208 8.14357 4.1512 -0.322298
8707 2 2.2208 5.36574 -4.13442 5.47234
81 1 -1.1104 1.10865 2.52434 6.69658
88 1 -1.1104 3.92986 -0.0660049 6.85641
149 1 -1.1104 9.65457 5.55296 6.65951
84 1 -1.1104 1.13327 -0.216365 6.86131
87 1 -1.1104 4.00296 2.64685 6.75052
91 1 -1.1104 1.04321 5.4939 6.72406
335 2 2.2208 5.29911 6.82918 -0.3245
45 2 2.2208 13.6867 4.11427 10.9246
80 1 -1.1104 1.12733 -2.9294 6.58587
134 2 2.2208 -0.291839 -1.51037 8.19397
94 1 -1.1104 3.79858 5.5484 6.91124
135 2 2.2208 -0.352617 1.25997 10.8554
89 1 -1.1104 0.964983 8.57063 6.74323
86 1 -1.1104 4.028 -2.7526 6.77832
95 2 2.2208 5.43259 1.38585 10.9824
96 1 -1.1104 1.08252 -2.67527 12.4455
97 1 -1.1104 1.13877 2.6606 12.3873
100 1 -1.1104 1.03776 -2.83966 9.55468
101 1 -1.1104 1.0178 2.73066 9.55985
104 1 -1.1104 1.0997 0.0457851 12.4069
106 2 2.2208 5.22654 -1.43397 8.28497
107 2 2.2208 5.22101 4.11443 8.09797
108 1 -1.1104 1.08098 -0.0695728 9.53269
110 1 -1.1104 3.90835 -2.99963 12.2989
111 1 -1.1104 4.05068 2.76346 12.3657
112 2 2.2208 2.45865 1.30306 8.11368
113 1 -1.1104 3.8396 -2.76851 9.52679
114 1 -1.1104 3.89616 2.65575 9.38775
115 2 2.2208 2.48641 -1.41076 10.9311
116 2 2.2208 2.43319 3.97675 10.8627
117 1 -1.1104 3.9367 -0.0230207 12.4605
118 1 -1.1104 3.93792 -0.0714345 9.6352
119 2 2.2208 5.29959 6.92721 10.8796
120 1 -1.1104 1.11362 8.3197 12.3167
122 1 -1.1104 0.965447 8.36406 9.50399
124 1 -1.1104 0.982352 5.50479 12.3643
126 1 -1.1104 1.01481 5.44755 9.50464
128 1 -1.1104 3.92173 8.25948 12.3196
129 2 2.2208 2.39374 6.98654 8.16588
130 1 -1.1104 3.81264 8.40567 9.48428
131 1 -1.1104 3.9602 5.60452 12.3213
132 1 -1.1104 3.81329 5.60374 9.59607
159 2 2.2208 10.8512 -1.42702 8.02322
125 1 -1.1104 6.73155 5.61471 12.2088
103 1 -1.1104 6.7079 2.76459 9.54044
98 1 -1.1104 6.67857 -2.84464 12.2904
39 2 2.2208 -0.329259 6.95049 5.32601
137 1 -1.1104 12.2539 5.59378 9.43332
78 2 2.2208 13.7712 -1.37084 10.8987
154 1 -1.1104 12.3605 -2.86146 12.4212
162 1 -1.1104 9.31084 -2.83433 12.3277
152 2 2.2208 8.09851 6.90548 8.12687
85 1 -1.1104 6.81735 -0.0542136 6.81725
169 1 -1.1104 9.60051 -0.0329529 12.3374
140 1 -1.1104 12.3799 2.65206 6.75396
143 1 -1.1104 9.48133 2.92992 6.69443
163 1 -1.1104 9.59708 2.85488 12.2739
90 1 -1.1104 6.58654 8.45025 6.72962
147 1 -1.1104 9.44473 8.34485 6.77349
160 2 2.2208 11.0426 4.10341 8.16128
136 1 -1.1104 9.43109 8.26073 12.3802
340 2 2.2208 10.9362 6.90222 -0.396996
121 1 -1.1104 6.7561 8.44641 12.3282
127 1 -1.1104 6.57501 5.69539 9.42951
168 2 2.2208 8.10618 4.19143 10.946
157 1 -1.1104 12.5218 2.78649 9.605
165 1 -1.1104 9.43111 -2.77897 9.59511
82 1 -1.1104 6.7335 -2.81996 6.69821
141 1 -1.1104 12.3108 -0.134881 6.76076
139 1 -1.1104 12.2832 -3.00818 6.76593
172 1 -1.1104 12.2908 8.27396 12.3447
99 1 -1.1104 6.69415 2.85335 12.2644
151 1 -1.1104 9.572 8.23816 9.58567
92 1 -1.1104 6.73783 5.54773 6.83945
144 1 -1.1104 9.67234 -0.0309404 6.53993
146 1 -1.1104 12.4003 5.53612 6.65538
145 1 -1.1104 12.2918 8.35171 6.63093
161 1 -1.1104 12.2969 -0.0309669 9.51938
148 1 -1.1104 9.3539 5.58695 9.59347
166 1 -1.1104 9.65346 2.84475 9.52724
102 1 -1.1104 6.64792 -2.80835 9.46793
150 1 -1.1104 9.48062 5.54511 12.3391
173 1 -1.1104 12.348 8.30284 9.45035
155 1 -1.1104 12.3712 2.55933 12.371
164 2 2.2208 8.08727 1.39829 8.02883
156 1 -1.1104 12.4123 -2.9866 9.55367
170 1 -1.1104 9.50222 0.0235588 9.46445
105 1 -1.1104 6.9253 -0.0422753 12.3419
153 2 2.2208 10.9051 1.24206 10.967
138 1 -1.1104 12.336 5.37407 12.2767
8715 2 2.2208 2.50778 -4.21477 8.07531
77 2 2.2208 13.8044 3.96902 5.21673
43 2 2.2208 -0.441655 6.82626 10.9565
339 2 2.2208 13.6763 -1.44722 -0.337926
8712 2 2.2208 10.8468 -4.15797 10.9121
8714 2 2.2208 13.6804 -4.25537 2.50611
8751 2 2.2208 10.9411 -4.17458 -0.139372
179 2 2.2208 5.40091 4.25403 13.7959
176 2 2.2208 5.4083 -1.48317 13.7383
334 2 2.2208 2.40548 4.19616 -0.23802
289 2 2.2208 8.14887 6.92845 13.7411
332 2 2.2208 5.20442 1.3064 -0.271042
174 2 2.2208 -0.340128 4.18257 13.7458
182 2 2.2208 5.21326 1.35078 16.6819
183 1 -1.1104 1.02199 -2.86636 17.8542
184 1 -1.1104 1.11216 2.79661 17.9555
187 1 -1.1104 0.971181 -2.79353 15.2703
189 1 -1.1104 1.01773 2.79557 15.1674
195 1 -1.1104 0.958513 0.0490808 17.8907
197 2 2.2208 5.28714 -1.59766 19.3629
198 2 2.2208 5.27353 4.06064 19.4346
199 1 -1.1104 1.10884 0.120903 15.1361
203 1 -1.1104 3.85775 -2.92848 17.8458
204 1 -1.1104 3.85296 2.82766 18.0826
205 2 2.2208 2.33155 1.4416 19.3946
206 1 -1.1104 3.83572 -2.84814 14.9917
208 1 -1.1104 3.94538 2.86398 15.2399
210 2 2.2208 2.43312 -1.41787 16.6136
211 2 2.2208 2.46845 4.25739 16.5084
212 1 -1.1104 3.84383 -0.133744 18.0031
213 1 -1.1104 3.85146 0.0545071 15.366
215 2 2.2208 5.32057 6.87792 16.5333
216 1 -1.1104 1.12976 8.26868 18.2359
218 1 -1.1104 1.01212 8.28721 15.2529
221 1 -1.1104 0.995225 5.63463 17.9296
223 1 -1.1104 1.05856 5.54473 15.0981
227 1 -1.1104 3.87253 8.21857 17.8054
228 2 2.2208 2.6305 6.7427 19.2529
229 1 -1.1104 3.887 8.30124 14.9226
231 1 -1.1104 3.93431 5.5063 17.8667
232 1 -1.1104 3.80562 5.61065 15.1906
230 1 -1.1104 3.82163 8.29894 20.5199
344 2 2.2208 -0.295953 1.28478 22.1871
175 2 2.2208 -0.289429 -1.40802 13.7514
8880 2 2.2208 -0.305959 -4.24276 22.0953
8886 2 2.2208 8.2219 -4.32142 19.3069
9209 2 2.2208 -0.368126 6.87667 16.5825
9211 2 2.2208 -0.308893 4.24335 19.4322
200 1 -1.1104 1.12521 0.0237787 20.7111
233 1 -1.1104 3.91577 5.55381 20.7452
354 1 -1.1104 12.4886 0.0827973 23.545
193 1 -1.1104 6.57329 2.74325 15.1101
186 1 -1.1104 6.59839 2.5849 17.973
177 2 2.2208 2.61157 6.9586 13.6578
224 1 -1.1104 1.07075 5.79421 20.8636
8787 2 2.2208 10.861 -4.32033 22.1287
293 2 2.2208 -0.379595 4.01769 25.0871
350 1 -1.1104 12.3792 -2.80574 23.5672
217 1 -1.1104 6.67649 8.40618 17.9054
219 1 -1.1104 6.62799 8.34158 15.1205
222 1 -1.1104 6.69517 5.44892 17.988
226 1 -1.1104 6.74657 5.35672 20.6171
196 1 -1.1104 6.7012 -0.105222 17.9282
201 1 -1.1104 6.70345 0.00189828 15.2923
185 1 -1.1104 6.69565 -2.81257 17.8816
191 1 -1.1104 6.76102 -2.86676 15.1021
225 1 -1.1104 6.751 5.6274 15.1877
245 2 2.2208 10.9514 1.35335 16.5651
246 1 -1.1104 12.3265 -2.88867 17.9714
247 1 -1.1104 12.2904 2.7256 17.9876
248 1 -1.1104 12.321 -2.8173 15.129
250 1 -1.1104 12.5027 2.70373 15.2684
252 1 -1.1104 12.3992 -0.105715 17.957
253 2 2.2208 10.9582 -1.54435 19.3001
254 2 2.2208 10.798 4.06682 19.3392
255 1 -1.1104 12.446 0.0213624 15.275
257 1 -1.1104 9.59937 -2.90773 17.9051
258 1 -1.1104 9.44159 2.67427 17.9017
259 2 2.2208 8.0619 1.32958 19.3631
260 1 -1.1104 9.56953 -2.79453 15.1841
262 1 -1.1104 9.59163 2.68004 15.1059
264 2 2.2208 8.17696 -1.38952 16.6489
265 2 2.2208 8.00773 4.04102 16.6598
266 1 -1.1104 9.54379 -0.119843 18.1341
267 1 -1.1104 9.52393 -0.0889185 15.0808
269 2 2.2208 10.884 6.88248 16.5867
270 1 -1.1104 12.4441 8.21071 18.0827
271 1 -1.1104 12.1518 8.3368 15.2789
273 1 -1.1104 12.1411 5.40815 17.8448
274 1 -1.1104 12.2801 5.5527 15.0379
276 1 -1.1104 9.48293 8.35085 17.8327
277 2 2.2208 8.07361 6.99459 19.2157
278 1 -1.1104 9.36056 8.35583 15.1036
280 1 -1.1104 9.47953 5.43114 17.9066
281 1 -1.1104 9.42611 5.47002 15.1918
8790 2 2.2208 8.19537 -4.27683 24.955
287 2 2.2208 13.7077 -1.60472 16.6371
251 1 -1.1104 12.3273 2.74715 20.8475
261 1 -1.1104 9.72793 -3.00245 20.6522
192 1 -1.1104 6.87773 -2.88609 20.6497
178 2 2.2208 2.48545 1.43151 13.7825
349 2 2.2208 10.8832 1.38957 22.2124
292 2 2.2208 10.879 4.06913 13.6973
359 1 -1.1104 9.44719 2.71827 23.505
290 2 2.2208 8.24302 1.31901 13.7012
8892 2 2.2208 10.987 -4.29077 16.5569
207 1 -1.1104 3.94881 -2.87488 20.7525
190 1 -1.1104 1.00603 2.94298 20.7537
214 1 -1.1104 3.91565 -0.00969949 20.5869
209 1 -1.1104 3.95535 2.79454 20.846
188 1 -1.1104 1.10411 -2.69392 20.7184
294 2 2.2208 5.29287 1.46712 22.1619
295 1 -1.1104 1.09526 -2.95314 23.5047
296 1 -1.1104 1.16708 2.63634 23.5082
299 1 -1.1104 1.04137 -2.79199 26.2994
300 1 -1.1104 1.07626 2.74673 26.3791
303 1 -1.1104 1.25998 0.0430455 23.4629
305 2 2.2208 5.28615 -1.45391 25.0046
306 2 2.2208 5.28956 4.09791 25.0345
307 1 -1.1104 1.02023 -0.0412914 26.2293
309 1 -1.1104 3.95951 -2.56416 23.5208
310 1 -1.1104 3.93279 2.8289 23.6259
311 2 2.2208 2.48717 1.23448 24.9046
312 1 -1.1104 3.81708 -2.68896 26.384
313 1 -1.1104 3.80865 2.72306 26.4466
314 2 2.2208 2.52966 -1.30181 22.0084
315 2 2.2208 2.54413 4.12741 22.1924
316 1 -1.1104 4.0789 0.047571 23.6285
317 1 -1.1104 3.86101 -0.0489297 26.4885
318 2 2.2208 5.22511 6.95093 22.1504
319 1 -1.1104 0.982183 8.258 23.6846
321 1 -1.1104 1.15623 8.42957 26.6128
323 1 -1.1104 1.0736 5.42698 23.6246
325 1 -1.1104 1.04371 5.51465 26.3961
327 1 -1.1104 3.94274 8.09309 23.7814
328 2 2.2208 2.5167 7.02879 24.989
329 1 -1.1104 3.96241 8.27987 26.3761
330 1 -1.1104 3.86987 5.47537 23.5278
331 1 -1.1104 3.85346 5.43759 26.4334
333 1 -1.1104 12.3235 8.33295 26.5087
356 2 2.2208 10.8701 4.12335 24.941
324 1 -1.1104 6.63392 5.47094 23.461
8878 2 2.2208 2.54706 -4.12795 24.9283
365 1 -1.1104 9.57435 -0.0325713 23.5444
202 1 -1.1104 6.66508 -0.0237672 20.8729
355 2 2.2208 10.9409 -1.47136 24.95
220 1 -1.1104 6.52915 8.30934 20.6829
275 1 -1.1104 12.3363 5.59914 20.8935
272 1 -1.1104 12.3163 8.37372 20.9219
282 1 -1.1104 9.61117 5.6205 20.688
279 1 -1.1104 9.45581 8.4465 20.5851
341 1 -1.1104 12.3063 8.39767 23.7736
8902 2 2.2208 13.658 -4.32645 19.3342
322 1 -1.1104 6.64935 8.15221 26.2606
268 1 -1.1104 9.49185 -0.12791 20.7829
256 1 -1.1104 12.3555 -0.0920368 20.7785
366 1 -1.1104 9.49636 -0.0771841 26.2528
357 1 -1.1104 12.3265 -0.0517783 26.2885
346 1 -1.1104 9.40342 5.61157 23.384
358 1 -1.1104 9.47521 -2.88042 23.394
363 2 2.2208 8.12012 -1.39092 22.0705
263 1 -1.1104 9.48993 2.73112 20.6871
249 1 -1.1104 12.4152 -2.87067 20.7388
244 1 -1.1104 12.2098 5.57594 23.6052
243 1 -1.1104 12.3383 5.37647 26.4094
345 1 -1.1104 9.63816 5.52701 26.2937
301 1 -1.1104 6.70167 -2.82757 26.2382
297 1 -1.1104 6.6696 -2.8053 23.4466
326 1 -1.1104 6.77795 5.46578 26.3482
320 1 -1.1104 6.79741 8.37203 23.4305
302 1 -1.1104 6.62709 2.6527 26.385
242 1 -1.1104 9.53355 8.4281 23.4661
348 2 2.2208 8.10039 6.90536 24.7198
364 2 2.2208 8.04596 4.15767 22.0191
367 2 2.2208 10.8825 7.00122 22.1313
361 1 -1.1104 9.4919 -2.90234 26.2416
194 1 -1.1104 6.71956 2.65257 20.7232
351 1 -1.1104 12.3151 2.75809 23.7329
353 1 -1.1104 12.2089 2.6015 26.5056
298 1 -1.1104 6.76651 2.74173 23.4687
308 1 -1.1104 6.74601 -0.0386164 26.4522
304 1 -1.1104 6.81568 0.0198649 23.527
360 2 2.2208 8.0424 1.30069 24.9345
352 1 -1.1104 12.3024 -2.86968 26.4881
362 1 -1.1104 9.51302 2.65546 26.2916
347 1 -1.1104 9.58603 8.19262 26.3096
8729 2 2.2208 8.07464 -4.25234 13.6806
238 2 2.2208 -0.381673 -1.4078 19.2102
343 2 2.2208 -0.163904 6.99981 27.7775
337 2 2.2208 13.762 1.28939 25.0927
342 2 2.2208 -0.195461 -1.55072 24.9528
237 2 2.2208 -0.426648 1.44588 16.413
181 2 2.2208 -0.359664 1.4058 27.7728
291 2 2.2208 10.9939 -1.46268 13.7648
288 2 2.2208 13.716 4.0941 27.9067
368 2 2.2208 5.32129 12.5201 5.26556
369 1 -1.1104 1.07636 11.3467 1.21558
373 2 2.2208 5.19834 9.76286 2.38377
374 1 -1.1104 1.03713 11.1893 3.97088
376 2 2.2208 2.48804 12.6791 2.49682
377 2 2.2208 2.43115 9.96791 5.2981
378 1 -1.1104 3.78331 11.1795 1.10198
380 1 -1.1104 3.89848 11.3876 3.77233
381 2 2.2208 5.27922 18.101 5.33188
382 1 -1.1104 1.07543 14.1256 1.05675
384 1 -1.1104 0.988375 19.4612 1.21324
388 1 -1.1104 1.13875 14.0634 3.99448
389 1 -1.1104 0.959786 19.5654 3.96032
391 1 -1.1104 0.96565 16.7768 1.07291
394 2 2.2208 5.2216 15.4266 2.41944
395 2 2.2208 5.2603 20.9799 2.48147
396 1 -1.1104 0.962748 16.8161 3.81613
398 1 -1.1104 3.73872 14.0049 1.0359
400 1 -1.1104 3.86218 19.6462 1.25577
402 2 2.2208 2.36906 18.2094 2.6354
403 1 -1.1104 3.97319 13.9102 3.84825
404 1 -1.1104 3.89936 19.6412 4.00066
405 2 2.2208 2.47131 15.4066 5.33551
406 2 2.2208 2.47185 20.905 5.30314
407 1 -1.1104 3.81646 16.9831 1.14065
409 1 -1.1104 3.73775 16.6905 3.92834
401 1 -1.1104 3.84317 19.5427 6.76358
412 2 2.2208 -0.494467 12.7043 5.25807
687 2 2.2208 8.07414 20.9862 -0.324875
411 2 2.2208 -0.2229 9.88893 2.53322
9405 2 2.2208 -0.425546 18.1494 5.35506
375 1 -1.1104 6.65361 11.1524 3.85109
651 2 2.2208 2.52378 9.81742 -0.152295
410 2 2.2208 -0.359504 15.3704 2.4124
387 1 -1.1104 6.70444 19.4014 6.80785
397 1 -1.1104 6.5379 16.6851 4.0079
427 1 -1.1104 6.71545 16.926 1.01477
392 1 -1.1104 1.04033 16.6989 6.81297
470 1 -1.1104 1.10207 19.5785 6.84894
525 2 2.2208 -0.337784 18.1581 -0.240055
500 1 -1.1104 9.46462 13.8566 12.2707
386 1 -1.1104 6.64946 13.8728 6.60822
509 2 2.2208 8.07787 9.70887 10.8834
689 2 2.2208 7.92579 9.65961 -0.269136
425 1 -1.1104 6.67187 19.611 1.01648
426 1 -1.1104 6.65509 19.4771 3.85593
371 1 -1.1104 6.50943 11.0832 1.07797
390 1 -1.1104 6.68568 14.0205 3.72489
385 1 -1.1104 6.61609 14.0174 0.95329
415 2 2.2208 10.8067 12.4309 5.2449
416 1 -1.1104 12.1889 11.2018 1.0136
418 2 2.2208 10.8113 9.81988 2.47967
419 1 -1.1104 12.2855 11.1064 3.79019
420 2 2.2208 8.02 12.5641 2.38356
421 2 2.2208 8.04832 9.79109 5.44363
422 1 -1.1104 9.38492 11.1093 0.975855
424 1 -1.1104 9.43118 11.1447 3.80141
428 2 2.2208 10.786 18.0857 5.19641
429 1 -1.1104 12.3035 13.916 0.987369
431 1 -1.1104 12.2421 19.5865 1.04503
433 1 -1.1104 12.2497 13.8094 3.80216
434 1 -1.1104 12.0782 19.6917 3.82662
435 1 -1.1104 12.3789 16.813 0.901957
437 2 2.2208 10.7679 15.25 2.41096
438 2 2.2208 10.8267 21.1268 2.47143
439 1 -1.1104 12.1913 16.738 3.81666
440 1 -1.1104 9.58778 13.9844 0.961386
442 1 -1.1104 9.46478 19.5252 1.09617
444 2 2.2208 8.10659 18.1772 2.28515
445 1 -1.1104 9.52197 13.8847 3.86704
446 1 -1.1104 9.55785 19.6022 3.93701
447 2 2.2208 8.09045 15.2139 5.23545
448 2 2.2208 8.0659 20.9811 5.35606
449 1 -1.1104 9.56777 16.7458 1.08406
451 1 -1.1104 9.32491 16.7306 3.79112
430 1 -1.1104 12.2654 13.8126 6.69766
372 1 -1.1104 6.68425 11.2281 6.81433
393 1 -1.1104 6.6697 16.6646 6.8635
436 1 -1.1104 12.1966 16.7123 6.61918
443 1 -1.1104 9.42747 19.6245 6.78125
450 1 -1.1104 9.49356 16.8108 6.61951
9377 2 2.2208 -0.363751 12.5711 10.9631
379 1 -1.1104 3.9283 11.242 6.68602
408 1 -1.1104 3.88813 16.7817 6.70743
399 1 -1.1104 3.86496 13.9948 6.77192
383 1 -1.1104 0.974478 14.0747 6.72769
9408 2 2.2208 -0.392773 15.267 8.16132
9406 2 2.2208 -0.353806 20.9993 8.01409
370 1 -1.1104 1.10115 11.3426 6.70557
521 2 2.2208 5.35729 9.63512 13.7002
9407 2 2.2208 -0.534171 18.0962 10.7446
454 1 -1.1104 3.72945 19.576 12.234
455 1 -1.1104 3.90075 13.8206 12.3644
459 1 -1.1104 1.04998 19.5279 9.52191
460 1 -1.1104 0.823394 16.7635 9.56737
461 2 2.2208 5.24494 20.8549 8.05272
462 1 -1.1104 0.994026 13.9111 9.71093
463 2 2.2208 5.19661 15.3327 8.2173
466 1 -1.1104 0.802288 19.5414 12.301
467 1 -1.1104 1.07988 14.0418 12.4412
468 2 2.2208 5.19389 18.0276 10.9786
469 1 -1.1104 3.73687 19.4408 9.58806
471 2 2.2208 2.44885 18.0849 8.08604
472 1 -1.1104 3.79704 16.7222 9.57129
473 1 -1.1104 3.80483 13.9576 9.66693
475 1 -1.1104 1.14721 16.6351 12.3785
476 1 -1.1104 4.01736 16.8261 12.604
477 2 2.2208 2.5159 20.9833 10.9133
478 2 2.2208 5.20829 12.5039 10.8409
479 1 -1.1104 1.0515 11.1476 12.3657
481 2 2.2208 2.49688 15.3622 11.074
482 2 2.2208 5.15386 9.79437 8.10491
483 1 -1.1104 1.14172 11.1887 9.50023
485 2 2.2208 2.48346 12.6867 8.05862
486 2 2.2208 2.50905 9.799 10.9356
487 1 -1.1104 3.94793 11.0608 12.3651
488 1 -1.1104 3.8713 11.2843 9.5216
9262 2 2.2208 13.6014 21.0019 5.17375
511 1 -1.1104 12.2133 19.5193 12.3155
691 2 2.2208 8.11956 15.3563 -0.319466
432 1 -1.1104 12.1738 19.4878 6.67279
501 1 -1.1104 12.3909 16.613 9.37333
512 1 -1.1104 12.292 13.8821 12.3686
417 1 -1.1104 12.2697 10.9577 6.71694
441 1 -1.1104 9.48406 13.9492 6.68462
514 2 2.2208 10.9084 12.3951 10.8266
503 1 -1.1104 9.4018 10.9029 9.46916
506 1 -1.1104 9.53025 11.1205 12.2816
423 1 -1.1104 9.46684 11.0764 6.7172
504 2 2.2208 10.8704 15.2784 7.97657
513 2 2.2208 10.9041 18.122 10.944
493 1 -1.1104 9.56418 16.8104 12.1674
491 1 -1.1104 12.4534 10.9646 12.2687
502 2 2.2208 10.6824 20.9038 8.15273
496 1 -1.1104 9.35692 19.3446 9.57246
498 2 2.2208 7.99352 18.0049 8.10391
464 1 -1.1104 6.52309 19.5311 12.3132
480 1 -1.1104 6.84156 11.2026 12.1504
484 1 -1.1104 6.55917 11.0881 9.48809
457 1 -1.1104 6.64368 16.6995 9.69278
474 1 -1.1104 6.68394 16.7961 12.4314
465 1 -1.1104 6.51265 13.9171 12.1531
458 1 -1.1104 6.56581 13.9479 9.47139
456 1 -1.1104 6.59422 19.5468 9.44199
499 1 -1.1104 9.43966 19.6521 12.4288
492 1 -1.1104 9.45602 16.5627 9.5002
508 1 -1.1104 12.3873 13.7921 9.49123
495 2 2.2208 8.14327 15.2069 10.9138
489 1 -1.1104 12.1989 10.9542 9.56634
507 1 -1.1104 12.1435 19.4681 9.56594
505 1 -1.1104 12.3635 16.7216 12.1817
510 2 2.2208 7.98582 12.4655 8.06066
494 2 2.2208 8.00884 20.8989 10.8873
497 1 -1.1104 9.4807 13.7845 9.35095
490 2 2.2208 10.8006 9.64165 8.16494
688 2 2.2208 10.8497 18.1082 -0.302788
690 2 2.2208 10.911 12.5792 -0.383684
520 2 2.2208 2.49138 18.2334 13.7566
9416 2 2.2208 -0.255497 15.4415 13.7377
524 2 2.2208 5.3581 15.2854 13.7277
652 2 2.2208 5.2327 12.4963 -0.310943
526 2 2.2208 5.21884 12.5456 16.4897
527 1 -1.1104 1.07277 11.1564 18.2144
529 2 2.2208 5.25735 9.72641 19.4628
530 1 -1.1104 1.03237 11.0863 15.227
533 2 2.2208 2.50482 12.6471 19.2828
534 2 2.2208 2.41479 9.66013 16.5399
535 1 -1.1104 3.75011 11.1121 17.8978
536 1 -1.1104 3.80625 11.0122 15.1877
538 2 2.2208 5.1572 18.2782 16.5792
539 1 -1.1104 0.85042 13.8542 18.0456
540 1 -1.1104 1.174 19.6726 18.1403
543 1 -1.1104 1.06925 13.8462 15.3532
545 1 -1.1104 1.01535 19.3543 15.2746
551 1 -1.1104 1.04832 16.7556 18.0847
553 2 2.2208 5.27555 15.4611 19.3491
554 2 2.2208 5.17927 20.9228 19.4361
555 1 -1.1104 1.23715 16.7281 15.2078
559 1 -1.1104 3.80733 13.949 17.8624
560 1 -1.1104 3.69687 19.4975 17.7837
561 2 2.2208 2.34759 18.0722 19.4403
562 1 -1.1104 3.86949 13.9345 15.0449
564 1 -1.1104 3.88318 19.7371 15.1057
566 2 2.2208 2.49606 15.4348 16.5455
567 2 2.2208 2.46499 20.9224 16.511
568 1 -1.1104 3.82736 16.8387 18.0298
569 1 -1.1104 3.92993 16.7337 15.2228
537 1 -1.1104 3.88186 11.3869 20.616
9460 2 2.2208 13.8122 20.9165 22.1902
9417 2 2.2208 -0.411043 20.9194 13.6485
9522 2 2.2208 -0.444174 18.2598 16.5508
544 1 -1.1104 0.917109 13.5654 20.9897
654 2 2.2208 -0.430093 15.359 24.9679
572 2 2.2208 5.26177 21.0138 13.7274
549 1 -1.1104 6.55791 19.6263 14.9997
570 1 -1.1104 3.6196 16.8064 20.8181
9520 2 2.2208 -0.502943 15.3951 19.2931
523 2 2.2208 2.52226 12.5351 13.7931
693 2 2.2208 13.7627 15.4371 22.0831
528 1 -1.1104 6.70194 11.2891 17.7714
552 1 -1.1104 6.64238 16.7834 18.0509
531 1 -1.1104 6.52861 11.229 14.9053
541 1 -1.1104 6.67348 13.98 17.9302
542 1 -1.1104 6.60058 19.6579 18.0238
557 1 -1.1104 6.72363 16.8727 15.2322
547 1 -1.1104 6.67624 13.9955 15.0834
577 2 2.2208 10.9301 12.5024 16.5917
578 1 -1.1104 12.3356 11.0513 17.8725
579 2 2.2208 10.9115 9.86529 19.3492
580 1 -1.1104 12.3494 11.099 15.1014
582 2 2.2208 8.03088 12.6031 19.2787
583 2 2.2208 8.01349 9.7463 16.4973
584 1 -1.1104 9.54037 11.0997 17.8758
585 1 -1.1104 9.44656 11.1437 14.9847
587 2 2.2208 10.9122 18.2517 16.4267
588 1 -1.1104 12.3037 13.9075 17.7972
589 1 -1.1104 12.3161 19.5553 17.8263
590 1 -1.1104 12.3692 13.8157 15.135
592 1 -1.1104 12.1916 19.3666 14.9107
594 1 -1.1104 12.0519 16.694 17.7454
595 2 2.2208 10.8283 15.253 19.3371
596 2 2.2208 10.8423 20.9183 19.3039
597 1 -1.1104 12.5025 16.6567 14.9964
599 1 -1.1104 9.40786 13.9039 17.8924
600 1 -1.1104 9.50889 19.5339 17.821
601 2 2.2208 8.03091 18.2343 19.2768
602 1 -1.1104 9.4887 13.9249 15.0153
604 1 -1.1104 9.32551 19.4936 15.0624
606 2 2.2208 8.15682 15.3164 16.5363
607 2 2.2208 8.09767 20.9142 16.5678
608 1 -1.1104 9.3938 16.6634 17.8621
609 1 -1.1104 9.65813 16.6178 14.9229
603 1 -1.1104 9.35595 14.0196 20.8302
649 2 2.2208 5.2757 18.3308 27.8024
598 1 -1.1104 12.2908 16.6399 20.6118
610 1 -1.1104 9.54074 16.8312 20.6447
532 1 -1.1104 6.74881 11.1153 20.6748
634 1 -1.1104 6.71197 16.835 23.4537
668 1 -1.1104 9.5431 19.4781 23.5232
670 1 -1.1104 12.3436 16.8395 26.3978
563 1 -1.1104 3.64077 14.1059 20.5111
546 1 -1.1104 1.04077 19.4388 20.754
556 1 -1.1104 0.854485 16.5281 20.8274
611 2 2.2208 10.887 9.74028 13.821
656 2 2.2208 -0.300471 21.016 25.0561
565 1 -1.1104 3.77575 19.501 20.7029
9469 2 2.2208 -0.388223 12.5554 16.5828
616 1 -1.1104 3.83517 19.464 23.5045
618 1 -1.1104 3.67118 14.0224 23.5753
620 1 -1.1104 1.0521 19.542 26.5514
621 1 -1.1104 0.977445 16.7616 26.2375
622 1 -1.1104 0.9981 13.9344 26.3794
624 2 2.2208 5.24628 20.9873 24.9109
625 2 2.2208 5.11071 15.3457 24.9372
627 1 -1.1104 1.14585 19.7172 23.6744
628 1 -1.1104 1.08397 14.2213 23.6461
629 2 2.2208 5.27676 18.1662 22.1716
630 1 -1.1104 3.85906 19.7435 26.4502
631 2 2.2208 2.53915 18.2451 24.9716
632 1 -1.1104 3.75205 16.9083 26.4688
633 1 -1.1104 3.82578 13.9606 26.4737
635 1 -1.1104 1.28132 16.9066 23.568
636 1 -1.1104 4.03429 16.7829 23.6017
637 2 2.2208 2.48644 20.9846 22.1615
638 2 2.2208 5.1967 12.5367 22.1347
639 1 -1.1104 0.962382 11.3645 23.6321
641 2 2.2208 2.40642 15.415 22.1986
642 2 2.2208 5.23918 9.70919 24.908
643 1 -1.1104 1.07361 11.069 26.3616
645 2 2.2208 2.4673 12.5614 24.9407
646 1 -1.1104 3.80641 11.2021 23.7813
647 1 -1.1104 3.79349 11.2228 26.4889
680 1 -1.1104 12.2536 19.5642 23.35
676 1 -1.1104 12.1943 13.9673 26.1049
671 1 -1.1104 9.53312 11.2723 26.3231
663 2 2.2208 8.05404 15.5125 22.153
669 1 -1.1104 9.49023 14.0851 23.4772
667 2 2.2208 7.95648 18.0265 25.0481
665 1 -1.1104 9.4851 13.9446 26.1588
672 2 2.2208 10.8306 20.9074 24.8883
558 1 -1.1104 6.47618 16.7899 20.7985
684 1 -1.1104 12.2857 11.105 23.3561
605 1 -1.1104 9.31298 19.5493 20.5972
593 1 -1.1104 12.1493 19.4686 20.6435
683 2 2.2208 10.7993 12.5753 22.0641
685 2 2.2208 10.9663 9.65424 25.0483
675 1 -1.1104 12.0946 19.5596 26.2376
550 1 -1.1104 6.56354 19.5201 20.8367
677 1 -1.1104 9.40479 11.2058 23.4484
661 1 -1.1104 9.39195 16.8567 23.6265
581 1 -1.1104 12.28 11.1565 20.6238
623 1 -1.1104 6.67245 19.6979 23.6702
662 2 2.2208 7.95134 20.8926 22.1368
674 1 -1.1104 12.19 16.7996 23.4391
678 2 2.2208 7.99401 9.83062 22.054
679 2 2.2208 7.96699 12.5589 24.8355
681 1 -1.1104 12.365 13.9653 23.1855
548 1 -1.1104 6.46057 13.9355 20.7498
586 1 -1.1104 9.55315 11.2686 20.5592
591 1 -1.1104 12.3848 13.7946 20.554
640 1 -1.1104 6.55012 11.2338 23.5446
619 1 -1.1104 6.50867 16.5674 26.3326
626 1 -1.1104 6.604 14.1071 23.4796
682 2 2.2208 10.7977 18.2006 22.0863
660 1 -1.1104 9.39725 16.7656 26.3878
644 1 -1.1104 6.65759 11.0694 26.305
666 1 -1.1104 6.72748 19.6967 26.4308
617 1 -1.1104 6.68221 13.9251 26.4058
664 1 -1.1104 9.35761 19.4504 26.3507
673 2 2.2208 10.8924 15.4215 24.8821
686 1 -1.1104 12.3264 11.1344 26.2455
648 2 2.2208 2.44797 21.0161 27.788
614 2 2.2208 8.06777 18.1313 13.6341
522 2 2.2208 -0.228063 9.71297 13.7652
613 2 2.2208 10.9232 15.2652 13.6906
612 2 2.2208 10.8681 20.8839 13.663
576 2 2.2208 8.06583 12.5233 13.6787
650 2 2.2208 2.36127 15.402 27.6752
698 2 2.2208 5.13028 23.7633 5.18308
699 2 2.2208 5.24677 29.3297 5.36869
700 1 -1.1104 0.953883 25.1724 1.11766
701 1 -1.1104 1.11023 25.1951 3.96584
702 1 -1.1104 1.02256 22.4412 1.15335
703 1 -1.1104 1.14088 27.9403 1.00692
704 2 2.2208 5.31209 26.5838 2.45027
705 1 -1.1104 1.03639 22.5237 3.82666
706 1 -1.1104 1.055 27.9844 3.94792
707 1 -1.1104 3.89352 25.2488 1.0901
708 2 2.2208 2.41412 23.913 2.54458
709 2 2.2208 2.49055 29.2786 2.58317
710 1 -1.1104 3.83458 25.1627 3.79391
711 2 2.2208 2.52368 26.5653 5.28073
712 1 -1.1104 3.90089 22.4405 1.1159
713 1 -1.1104 3.94551 28.034 1.15713
714 1 -1.1104 3.98918 22.3964 3.73567
715 1 -1.1104 3.83379 27.8363 3.93849
716 1 -1.1104 1.22924 30.7095 1.19518
717 1 -1.1104 1.09515 30.7048 4.01398
718 1 -1.1104 1.09232 33.4836 0.90472
719 2 2.2208 5.32904 32.0686 2.52714
720 1 -1.1104 1.24171 33.7141 3.5813
722 1 -1.1104 3.82346 30.7097 0.92719
723 1 -1.1104 3.90414 30.8664 3.87167
724 2 2.2208 2.42502 32.2131 5.28737
725 1 -1.1104 3.95774 33.6141 0.981421
726 1 -1.1104 3.88311 33.5174 3.99059
782 1 -1.1104 1.06866 33.5617 6.52763
778 1 -1.1104 3.83389 22.2964 6.73305
784 1 -1.1104 3.63857 30.7613 6.58169
9746 2 2.2208 -0.358054 23.6432 5.30206
779 1 -1.1104 3.86679 27.9415 6.77421
9742 2 2.2208 -0.391605 23.7167 10.8677
771 1 -1.1104 1.00256 25.1773 6.69641
755 1 -1.1104 6.70296 30.8187 1.04643
721 1 -1.1104 6.63362 33.5832 4.09465
734 1 -1.1104 6.73227 27.9931 1.10575
774 1 -1.1104 1.04561 27.9586 6.8032
9685 2 2.2208 13.6434 23.7976 8.06746
9682 2 2.2208 13.5879 32.0914 10.7283
735 1 -1.1104 6.72403 22.3705 3.98105
736 1 -1.1104 6.6866 27.9478 3.9916
732 1 -1.1104 6.50273 25.2275 3.95124
756 1 -1.1104 6.73781 30.809 3.90329
733 1 -1.1104 6.73906 22.3704 1.01072
757 1 -1.1104 6.75884 33.6342 1.0086
731 1 -1.1104 6.69197 25.1088 1.01557
781 1 -1.1104 6.62524 30.8318 6.60828
737 2 2.2208 10.7813 23.7261 5.29608
738 2 2.2208 10.8365 29.2404 5.15046
739 1 -1.1104 12.3252 25.2217 0.896206
740 1 -1.1104 12.3412 25.1749 3.86366
741 1 -1.1104 12.2424 22.4263 1.0823
742 1 -1.1104 12.4272 27.9632 1.04426
743 2 2.2208 10.9552 26.4503 2.45289
744 1 -1.1104 12.1435 22.4209 3.80529
745 1 -1.1104 12.2553 27.9857 3.81634
746 1 -1.1104 9.55869 25.0904 1.1436
747 2 2.2208 8.00335 23.8502 2.47913
748 2 2.2208 8.15913 29.4351 2.46806
749 1 -1.1104 9.42436 25.0746 3.84109
750 2 2.2208 8.03315 26.4589 5.24838
751 1 -1.1104 9.47193 22.3241 1.09238
752 1 -1.1104 9.62584 28.0095 1.01221
753 1 -1.1104 9.39498 22.3927 3.88899
754 1 -1.1104 9.4947 27.8616 3.72159
758 1 -1.1104 12.3968 30.885 1.0892
759 1 -1.1104 12.291 30.8559 3.80072
760 1 -1.1104 12.265 33.6942 1.12635
761 2 2.2208 10.9934 32.2682 2.51696
762 1 -1.1104 12.3728 33.6114 3.83456
763 1 -1.1104 9.61346 30.8431 1.25242
764 1 -1.1104 9.44833 30.6039 4.00157
765 2 2.2208 8.10703 32.1942 5.32945
766 1 -1.1104 9.55321 33.6069 1.13216
767 1 -1.1104 9.47129 33.5467 3.97168
831 1 -1.1104 9.57649 33.5825 6.7241
822 1 -1.1104 12.1794 25.1948 6.56852
823 1 -1.1104 12.1299 22.3765 6.77139
772 1 -1.1104 6.58789 25.0943 6.67485
775 1 -1.1104 6.55312 22.2781 6.58976
824 1 -1.1104 12.2731 27.9258 6.63485
829 1 -1.1104 12.3066 33.476 6.75993
828 1 -1.1104 12.1973 30.7412 6.55257
9745 2 2.2208 -0.298292 29.2714 5.34622
9744 2 2.2208 -0.296659 26.5984 2.45852
777 1 -1.1104 3.8721 25.2562 6.63672
9748 2 2.2208 13.745 29.3543 2.37935
773 1 -1.1104 1.04149 22.2083 6.57561
780 1 -1.1104 1.04588 30.7178 6.72056
9941 2 2.2208 13.7966 26.5029 -0.336579
785 1 -1.1104 3.76818 33.592 7.081
786 2 2.2208 5.22196 23.8112 10.7624
787 2 2.2208 5.40192 29.386 11.0548
788 1 -1.1104 1.10968 25.0431 12.3273
790 1 -1.1104 0.826567 25.1349 9.33412
792 1 -1.1104 1.0521 22.4667 12.2558
793 1 -1.1104 0.988069 27.9002 12.4676
796 2 2.2208 5.31144 26.5005 8.06168