ITEM: TIMESTEP
90000
ITEM: NUMBER OF ATOMS
17910
ITEM: BOX BOUNDS pp pp pp
-3.6668285738334883e-01 2.7706682857383306e+01
-4.2825934232214546e+00 3.3236259342323012e+02
-3.6721144414256618e-01 2.7707211444141659e+01
ITEM: ATOMS id type q x y z
1 2 2.2208 5.17409 1.32967 5.17462
2 1 -1.1104 0.795564 -2.71628 1.00354
3 1 -1.1104 1.01451 2.85093 0.907311
6 1 -1.1104 0.920444 -2.95463 3.79096
7 1 -1.1104 0.896935 2.72682 3.83494
10 1 -1.1104 0.964165 0.2167 1.00196
12 2 2.2208 5.00071 -1.595 2.41918
13 2 2.2208 5.1765 4.06737 2.46311
14 1 -1.1104 0.957364 -0.106361 3.68223
16 1 -1.1104 3.55772 -2.95881 0.933587
17 1 -1.1104 3.70744 2.67821 1.0195
18 2 2.2208 2.31334 1.34483 2.50481
19 1 -1.1104 3.67146 -2.87817 3.88419
20 1 -1.1104 3.6318 2.74523 3.65416
21 2 2.2208 2.31388 -1.54636 5.2571
22 2 2.2208 2.34673 4.2025 5.24244
23 1 -1.1104 3.64306 -0.184136 1.02038
24 1 -1.1104 3.64148 -0.0282905 3.90925
25 2 2.2208 5.12533 6.97804 5.31298
28 1 -1.1104 0.874384 8.43214 4.03135
30 1 -1.1104 0.879664 5.59204 1.20465
32 1 -1.1104 0.821422 5.5648 4.12409
34 1 -1.1104 3.70258 8.44699 1.10682
35 2 2.2208 2.28013 7.01128 2.47766
37 1 -1.1104 3.71227 5.54346 1.23268
38 1 -1.1104 3.78991 5.59759 3.85309
26 1 -1.1104 0.916506 8.39983 1.12025
36 1 -1.1104 3.6208 8.4615 3.87402
4 1 -1.1104 6.47277 -2.95 0.960685
8 1 -1.1104 6.41106 -2.86918 3.8024
29 1 -1.1104 6.44975 8.42176 3.85253
166 1 -1.1104 9.37178 2.82823 9.48216
11 1 -1.1104 6.64436 -0.20953 1.10209
27 1 -1.1104 6.49982 8.31945 1.07563
31 1 -1.1104 6.511 5.55536 1.21315
9 1 -1.1104 6.51283 2.68883 3.92187
5 1 -1.1104 6.66782 2.71893 1.03031
33 1 -1.1104 6.46269 5.53606 3.78071
86 1 -1.1104 3.77151 -2.92125 6.65809
80 1 -1.1104 1.09219 -2.84143 6.6468
83 1 -1.1104 6.69705 2.68253 6.73532
88 1 -1.1104 3.64355 -0.17143 6.7592
91 1 -1.1104 0.928807 5.48346 6.65838
84 1 -1.1104 0.814558 -0.0177227 6.4773
93 1 -1.1104 3.75401 8.2294 6.88249
85 1 -1.1104 6.40513 -0.133776 6.5741
15 1 -1.1104 6.41496 -0.124371 3.7505
90 1 -1.1104 6.55436 8.22426 6.65015
172 1 -1.1104 12.206 8.39006 12.3187
82 1 -1.1104 6.55446 -2.86728 6.71141
158 1 -1.1104 12.1621 -0.173888 12.2797
92 1 -1.1104 6.44284 5.38941 6.7997
77 2 2.2208 13.6198 4.17175 5.2193
75 2 2.2208 13.6309 -1.48402 5.31098
46 2 2.2208 10.7995 1.38218 5.24312
47 1 -1.1104 12.2184 -2.81235 1.09657
48 1 -1.1104 12.0478 2.60705 1.11564
49 1 -1.1104 12.1151 -2.82365 3.89985
50 1 -1.1104 12.1231 2.67197 3.84985
51 1 -1.1104 12.1241 -0.120878 1.05576
52 2 2.2208 10.6902 -1.43719 2.44758
53 2 2.2208 10.6627 3.98992 2.40993
54 1 -1.1104 12.0749 -0.0888801 3.81592
55 1 -1.1104 9.33834 -2.88881 0.993571
56 1 -1.1104 9.29456 2.67724 0.981714
57 2 2.2208 7.92285 1.1746 2.45727
58 1 -1.1104 9.35276 -2.73443 3.80155
59 1 -1.1104 9.27051 2.79331 3.87466
60 2 2.2208 7.90717 -1.33264 5.29082
61 2 2.2208 8.02248 4.09346 5.24442
62 1 -1.1104 9.40755 -0.0739079 1.04336
63 1 -1.1104 9.37742 -0.0413152 3.80962
64 2 2.2208 10.7757 6.83784 5.2567
66 1 -1.1104 12.1736 8.18686 3.77718
67 1 -1.1104 12.1938 5.60197 0.792662
68 1 -1.1104 12.0895 5.42182 3.75543
69 1 -1.1104 9.33704 8.36076 0.952288
70 2 2.2208 7.95949 6.98448 2.35187
71 1 -1.1104 9.27568 8.36394 3.84704
72 1 -1.1104 9.35791 5.50908 1.01211
73 1 -1.1104 9.38213 5.45119 3.78307
65 1 -1.1104 12.1587 8.50826 0.954257
143 1 -1.1104 9.37789 2.70538 6.73861
139 1 -1.1104 12.1439 -2.95573 6.63511
147 1 -1.1104 9.33188 8.27807 6.57952
141 1 -1.1104 11.9836 0.00415135 6.54779
142 1 -1.1104 9.29157 -2.8727 6.68582
76 2 2.2208 13.5338 6.78936 2.47336
74 2 2.2208 13.4682 1.22255 2.49694
149 1 -1.1104 9.31645 5.55991 6.49697
8712 2 2.2208 10.779 -4.2876 10.7715
332 2 2.2208 5.11802 1.23111 -0.27963
8715 2 2.2208 2.35968 -4.32315 8.06846
87 1 -1.1104 4.01302 2.66676 6.64123
156 1 -1.1104 12.0928 -2.87723 9.42863
81 1 -1.1104 0.967661 2.77033 6.61309
89 1 -1.1104 0.927233 8.24357 6.75296
8707 2 2.2208 5.04784 -4.26616 5.18595
94 1 -1.1104 3.65444 5.51828 6.72238
122 1 -1.1104 0.836184 8.32367 9.50854
95 2 2.2208 5.15004 1.38505 10.7416
96 1 -1.1104 0.983349 -2.807 12.3033
97 1 -1.1104 1.00788 2.85522 12.3099
100 1 -1.1104 0.929577 -2.85105 9.40077
101 1 -1.1104 0.97671 2.7448 9.305
104 1 -1.1104 0.990988 0.108576 12.1298
106 2 2.2208 5.08065 -1.49368 8.10601
107 2 2.2208 5.16461 4.06804 8.05195
108 1 -1.1104 1.07696 -0.0736695 9.38452
110 1 -1.1104 3.83432 -2.89031 12.1932
111 1 -1.1104 3.86871 2.73255 12.0826
112 2 2.2208 2.48233 1.39174 7.94276
113 1 -1.1104 3.74959 -2.87409 9.41673
114 1 -1.1104 3.79534 2.68911 9.3635
115 2 2.2208 2.40015 -1.48536 10.7789
116 2 2.2208 2.35893 4.14374 10.8848
117 1 -1.1104 3.79636 -0.0178972 12.1304
118 1 -1.1104 3.75702 -0.0384421 9.36985
119 2 2.2208 5.04019 6.96616 10.8084
120 1 -1.1104 0.792086 8.49097 12.494
124 1 -1.1104 0.906224 5.53334 12.1512
126 1 -1.1104 0.808483 5.49712 9.3939
128 1 -1.1104 3.56747 8.4882 12.2891
129 2 2.2208 2.27882 6.82322 8.21108
130 1 -1.1104 3.62646 8.22008 9.57268
131 1 -1.1104 3.79815 5.64372 12.4121
132 1 -1.1104 3.70976 5.41747 9.58534
102 1 -1.1104 6.49493 -2.81916 9.63033
127 1 -1.1104 6.52545 5.67579 9.58325
103 1 -1.1104 6.61897 2.70127 9.55936
98 1 -1.1104 6.55208 -2.92106 12.3304
123 1 -1.1104 6.47846 8.31243 9.23711
121 1 -1.1104 6.37805 8.30742 12.3128
290 2 2.2208 7.97653 1.29315 13.6404
125 1 -1.1104 6.57977 5.57899 12.2433
105 1 -1.1104 6.56204 -0.104383 12.1349
109 1 -1.1104 6.47205 -0.0594201 9.34286
8716 2 2.2208 5.30141 -4.32507 10.8941
8729 2 2.2208 8.01711 -4.2458 13.7553
78 2 2.2208 13.5542 -1.51757 10.7837
45 2 2.2208 13.5083 3.9722 10.8656
137 1 -1.1104 11.9927 5.52685 9.45757
79 2 2.2208 13.6028 1.21045 7.87856
146 1 -1.1104 12.1753 5.54056 6.75828
144 1 -1.1104 9.25842 0.0214161 6.59361
145 1 -1.1104 12.1157 8.33776 6.51683
162 1 -1.1104 9.43658 -2.75021 12.1462
153 2 2.2208 10.7433 1.27375 10.7526
99 1 -1.1104 6.58521 2.63218 12.3378
291 2 2.2208 10.696 -1.43258 13.6403
44 2 2.2208 13.5828 7.02168 7.99196
168 2 2.2208 7.93115 4.11965 10.9742
154 1 -1.1104 12.2214 -2.87872 12.0786
159 2 2.2208 10.6804 -1.45551 7.97923
152 2 2.2208 7.92033 6.83573 8.04326
136 1 -1.1104 9.35672 8.34642 12.396
169 1 -1.1104 9.41174 0.00471029 12.2248
157 1 -1.1104 12.2538 2.67779 9.28398
148 1 -1.1104 9.26582 5.5602 9.32024
171 2 2.2208 10.7638 6.94057 10.8421
138 1 -1.1104 12.0017 5.63036 12.1985
161 1 -1.1104 12.2874 -0.0619065 9.3537
173 1 -1.1104 12.2255 8.38068 9.35026
155 1 -1.1104 12.2888 2.68825 12.2818
151 1 -1.1104 9.44104 8.25494 9.50165
150 1 -1.1104 9.28023 5.39348 12.3468
170 1 -1.1104 9.30316 -0.0873503 9.54294
163 1 -1.1104 9.47764 2.73063 12.2519
140 1 -1.1104 12.2929 2.75158 6.73417
165 1 -1.1104 9.36992 -2.88503 9.30066
160 2 2.2208 10.8228 4.07528 8.06551
164 2 2.2208 7.96452 1.32956 8.19002
167 2 2.2208 7.85212 -1.47258 10.822
177 2 2.2208 2.25797 6.98882 13.6891
176 2 2.2208 5.13639 -1.43828 13.544
340 2 2.2208 10.7591 6.96951 -0.34033
182 2 2.2208 5.06339 1.29011 16.5042
183 1 -1.1104 1.07259 -2.84441 17.9375
184 1 -1.1104 0.984446 2.98919 17.8895
187 1 -1.1104 0.934749 -2.92245 15.0512
189 1 -1.1104 0.972945 2.82421 15.2001
195 1 -1.1104 0.999569 -0.0838098 17.8963
197 2 2.2208 5.2001 -1.38668 19.2535
198 2 2.2208 5.08333 4.1248 19.3381
199 1 -1.1104 1.02677 -0.0957419 14.9385
203 1 -1.1104 3.82281 -2.71294 17.8175
204 1 -1.1104 3.71284 2.69701 17.7995
205 2 2.2208 2.33033 1.36603 19.2891
206 1 -1.1104 3.87765 -2.85742 14.9027
208 1 -1.1104 3.70415 2.62561 14.9475
210 2 2.2208 2.41154 -1.47876 16.3732
211 2 2.2208 2.31887 4.12095 16.4531
212 1 -1.1104 3.90401 -0.166756 17.859
213 1 -1.1104 3.80286 -0.05618 15.1321
215 2 2.2208 5.0614 6.91079 16.5239
216 1 -1.1104 0.913262 8.53523 18.2574
218 1 -1.1104 0.861431 8.4581 15.2338
221 1 -1.1104 0.936954 5.82478 17.7339
223 1 -1.1104 0.784096 5.43269 14.9854
227 1 -1.1104 3.63495 8.2478 17.7765
228 2 2.2208 2.3448 6.89338 19.2943
229 1 -1.1104 3.62521 8.26064 15.1687
231 1 -1.1104 3.60209 5.3863 18.0199
232 1 -1.1104 3.67345 5.61724 15.1224
230 1 -1.1104 3.66224 8.16436 20.5649
225 1 -1.1104 6.59901 5.43998 15.113
201 1 -1.1104 6.55873 -0.105137 14.9235
8892 2 2.2208 10.7201 -4.35287 16.5103
191 1 -1.1104 6.55659 -3.03589 15.1484
207 1 -1.1104 3.68165 -2.87926 20.6299
193 1 -1.1104 6.47141 2.7103 15.195
217 1 -1.1104 6.41529 8.28018 17.8768
233 1 -1.1104 3.70476 5.53902 20.6925
190 1 -1.1104 0.827974 2.89772 20.3972
188 1 -1.1104 0.925493 -2.87125 20.723
202 1 -1.1104 6.50986 0.0693986 20.5725
185 1 -1.1104 6.6022 -2.85306 17.8248
196 1 -1.1104 6.67882 -0.060136 17.7836
186 1 -1.1104 6.53239 2.65214 17.9301
219 1 -1.1104 6.48196 8.24297 15.0086
192 1 -1.1104 6.44695 -2.67702 20.6371
200 1 -1.1104 0.907681 0.0205203 20.7102
220 1 -1.1104 6.54192 8.20964 20.5829
222 1 -1.1104 6.29761 5.51012 17.8878
283 2 2.2208 13.5126 4.07569 16.598
284 2 2.2208 13.6275 6.87753 19.3762
245 2 2.2208 10.69 1.45653 16.4953
246 1 -1.1104 12.0016 -2.81989 17.6215
247 1 -1.1104 11.9992 2.83469 17.9428
248 1 -1.1104 12.1942 -2.90313 14.9205
250 1 -1.1104 12.0701 2.75367 15.1138
252 1 -1.1104 12.1052 0.033618 17.9549
253 2 2.2208 10.7086 -1.37556 19.1798
254 2 2.2208 10.7865 4.17413 19.3618
255 1 -1.1104 12.1091 -0.0619761 15.028
257 1 -1.1104 9.4365 -2.94495 18.0315
258 1 -1.1104 9.37254 2.76909 17.9705
259 2 2.2208 8.06069 1.48558 19.3273
260 1 -1.1104 9.22009 -2.85679 15.2417
262 1 -1.1104 9.26859 2.75412 15.004
264 2 2.2208 7.84781 -1.44385 16.5041
265 2 2.2208 7.89976 4.11267 16.6008
266 1 -1.1104 9.4356 0.12567 17.9138
267 1 -1.1104 9.34441 -0.0257914 15.0842
269 2 2.2208 10.7772 6.84185 16.3393
270 1 -1.1104 12.0857 8.28826 17.9796
271 1 -1.1104 12.2217 8.32782 15.1924
273 1 -1.1104 12.0705 5.54338 17.7285
274 1 -1.1104 12.2323 5.46331 15.1034
276 1 -1.1104 9.24912 8.38439 17.7994
277 2 2.2208 8.03741 7.00965 19.265
278 1 -1.1104 9.39056 8.39386 15.1243
280 1 -1.1104 9.35062 5.48275 17.9645
281 1 -1.1104 9.35289 5.64903 15.1428
236 2 2.2208 13.5132 1.28158 19.2334
287 2 2.2208 13.3657 -1.44916 16.3661
261 1 -1.1104 9.14346 -2.73934 20.6406
9211 2 2.2208 -0.491432 4.29769 19.2276
272 1 -1.1104 12.4288 8.21161 20.804
282 1 -1.1104 9.49888 5.61602 20.6805
251 1 -1.1104 12.2082 2.8517 20.631
249 1 -1.1104 12.0779 -2.78107 20.4921
256 1 -1.1104 12.0498 -0.0123293 20.6138
275 1 -1.1104 12.3713 5.54055 20.7155
279 1 -1.1104 9.48504 8.39966 20.7276
8929 2 2.2208 5.08743 -4.20336 16.4603
179 2 2.2208 5.19529 4.04603 13.674
224 1 -1.1104 0.834977 5.80739 20.6453
194 1 -1.1104 6.53892 2.79385 20.6965
214 1 -1.1104 3.74366 -0.0020768 20.7835
209 1 -1.1104 3.76488 2.83186 20.7408
294 2 2.2208 5.21091 1.34032 22.0554
295 1 -1.1104 0.922629 -2.75349 23.5339
296 1 -1.1104 0.724918 2.81604 23.2542
299 1 -1.1104 0.848833 -2.8546 26.3422
300 1 -1.1104 0.996678 2.70967 26.137
303 1 -1.1104 1.05568 0.092606 23.5809
305 2 2.2208 5.16402 -1.39077 24.7612
306 2 2.2208 5.12353 4.13663 24.9642
307 1 -1.1104 0.911745 -0.0840955 26.3953
309 1 -1.1104 3.59917 -2.87503 23.3174
310 1 -1.1104 3.79389 2.75481 23.5992
311 2 2.2208 2.39783 1.36304 24.9517
312 1 -1.1104 3.6854 -2.83376 26.193
313 1 -1.1104 3.74001 2.81175 26.2868
314 2 2.2208 2.31311 -1.43692 22.1521
315 2 2.2208 2.36873 4.10111 22.0968
316 1 -1.1104 3.65239 -0.131656 23.4032
317 1 -1.1104 3.74976 0.0572701 26.1982
318 2 2.2208 5.14331 6.96067 22.0558
319 1 -1.1104 0.733959 8.01733 23.5922
321 1 -1.1104 0.839067 8.49167 26.3742
323 1 -1.1104 0.947852 5.36501 23.6316
325 1 -1.1104 0.817961 5.50594 26.4204
327 1 -1.1104 4.0379 8.30466 23.6056
328 2 2.2208 2.35762 7.14059 24.8324
329 1 -1.1104 3.74459 8.22507 26.4657
330 1 -1.1104 3.93154 5.45501 23.559
331 1 -1.1104 3.71558 5.58808 26.394
302 1 -1.1104 6.47709 2.6542 26.3608
308 1 -1.1104 6.49709 -0.0857666 26.3422
301 1 -1.1104 6.57 -2.86677 26.2683
297 1 -1.1104 6.37873 -2.78736 23.4617
304 1 -1.1104 6.57763 -0.0360802 23.4434
180 2 2.2208 2.28684 -1.47646 27.6139
235 2 2.2208 7.81495 4.21231 27.7986
298 1 -1.1104 6.58317 2.76952 23.5144
335 2 2.2208 5.18445 6.94762 27.8055
333 1 -1.1104 12.1664 8.27266 26.3515
337 2 2.2208 13.4657 1.20236 24.7791
226 1 -1.1104 6.69517 5.51879 20.7547
244 1 -1.1104 12.3306 5.41263 23.4555
263 1 -1.1104 9.46164 2.80062 20.7064
326 1 -1.1104 6.48699 5.48075 26.4271
353 1 -1.1104 12.0878 2.73367 26.3278
361 1 -1.1104 9.27362 -2.77226 26.2514
268 1 -1.1104 9.28001 0.0102139 20.6523
363 2 2.2208 8.02172 -1.34364 22.0149
234 2 2.2208 13.5945 4.03595 22.1496
336 2 2.2208 13.5224 6.99445 24.9788
360 2 2.2208 7.99735 1.30618 24.8307
341 1 -1.1104 12.226 8.38814 23.6556
359 1 -1.1104 9.49853 2.67982 23.521
352 1 -1.1104 12.1491 -2.909 26.3657
338 2 2.2208 13.5402 -1.4425 22.1575
322 1 -1.1104 6.65556 8.34153 26.3649
320 1 -1.1104 6.72549 8.33766 23.5773
350 1 -1.1104 12.0177 -2.93341 23.519
365 1 -1.1104 9.39984 -0.12127 23.4654
366 1 -1.1104 9.34192 0.0181318 26.1836
356 2 2.2208 10.7763 4.1813 24.8296
364 2 2.2208 8.03622 4.20826 22.0639
355 2 2.2208 10.6527 -1.46023 24.9496
345 1 -1.1104 9.21392 5.46632 26.207
324 1 -1.1104 6.65204 5.51649 23.5892
358 1 -1.1104 9.23658 -2.99506 23.3916
348 2 2.2208 8.05262 6.9484 24.8168
367 2 2.2208 10.9489 6.96978 22.1216
349 2 2.2208 10.7807 1.39992 22.0601
347 1 -1.1104 9.40761 8.29165 26.2276
362 1 -1.1104 9.13928 2.76019 26.3241
243 1 -1.1104 12.2867 5.42062 26.2763
346 1 -1.1104 9.6058 5.61437 23.599
354 1 -1.1104 12.1466 -0.0795273 23.3759
357 1 -1.1104 12.2265 -0.128434 26.2185
351 1 -1.1104 12.0882 2.60978 23.4672
242 1 -1.1104 9.49643 8.33699 23.4252
286 2 2.2208 13.5182 6.87727 13.6148
241 2 2.2208 10.6705 1.38228 27.5902
339 2 2.2208 13.5703 -1.5335 27.6864
334 2 2.2208 2.39957 4.15172 27.7352
178 2 2.2208 2.48455 1.30912 13.541
288 2 2.2208 13.5407 4.09051 27.6675
240 2 2.2208 13.6646 1.22795 13.6285
289 2 2.2208 7.94526 6.87029 13.7276
292 2 2.2208 10.7392 4.07696 13.5917
239 2 2.2208 7.98739 -1.49796 27.7838
368 2 2.2208 5.02334 12.5357 5.33825
369 1 -1.1104 0.910323 11.1025 1.22867
373 2 2.2208 5.10072 9.74133 2.53667
374 1 -1.1104 0.774053 11.2312 3.96975
376 2 2.2208 2.34802 12.4724 2.58176
377 2 2.2208 2.26673 9.72608 5.34994
378 1 -1.1104 3.77737 11.3212 1.15026
380 1 -1.1104 3.66198 11.1417 4.02341
381 2 2.2208 5.0964 18.1042 5.1356
382 1 -1.1104 1.11062 13.7834 1.05726
384 1 -1.1104 0.983908 19.4122 0.964993
388 1 -1.1104 0.7929 14.0756 4.10639
389 1 -1.1104 0.953481 19.54 3.75109
391 1 -1.1104 0.845513 16.649 1.01402
394 2 2.2208 5.08145 15.3528 2.49161
395 2 2.2208 5.18286 21.0209 2.29017
396 1 -1.1104 0.749144 16.7121 3.9634
398 1 -1.1104 3.77045 13.9078 1.23592
400 1 -1.1104 3.72229 19.5583 1.11886
402 2 2.2208 2.25256 18.1392 2.39976
403 1 -1.1104 3.65115 13.9694 4.00947
404 1 -1.1104 3.76501 19.466 3.71336
405 2 2.2208 2.26804 15.3795 5.50835
406 2 2.2208 2.3852 20.9334 5.17458
407 1 -1.1104 3.55801 16.764 1.08051
409 1 -1.1104 3.72328 16.7685 3.88535
426 1 -1.1104 6.48275 19.3591 3.74824
397 1 -1.1104 6.58657 16.6416 3.83342
427 1 -1.1104 6.30009 16.7521 1.05008
375 1 -1.1104 6.62031 11.261 3.83583
379 1 -1.1104 3.60237 11.1567 6.78245
649 2 2.2208 5.0658 18.1155 -0.335744
413 2 2.2208 13.6115 15.3545 10.8579
390 1 -1.1104 6.49442 13.9276 3.82438
425 1 -1.1104 6.57081 19.4754 1.04576
385 1 -1.1104 6.61159 13.9729 1.00561
371 1 -1.1104 6.50904 10.9757 0.993109
470 1 -1.1104 1.00996 19.4353 6.49208
386 1 -1.1104 6.43 14.0774 6.58445
392 1 -1.1104 0.816084 16.7096 6.78498
370 1 -1.1104 0.898381 11.1004 6.71144
516 2 2.2208 13.516 15.3202 5.19411
650 2 2.2208 2.33083 15.2598 -0.183287
410 2 2.2208 -0.438558 15.2542 2.65951
507 1 -1.1104 12.2176 19.5199 9.41751
452 2 2.2208 13.421 18.0782 2.41111
415 2 2.2208 10.613 12.4852 5.34062
416 1 -1.1104 12.114 11.2404 1.09316
418 2 2.2208 10.7638 9.78263 2.48512
419 1 -1.1104 12.177 10.9726 3.88597
420 2 2.2208 7.93423 12.3757 2.39667
421 2 2.2208 7.92355 9.65857 5.31282
422 1 -1.1104 9.38357 11.1431 1.08881
424 1 -1.1104 9.21105 11.0056 3.91891
428 2 2.2208 10.6641 18.03 5.2253
429 1 -1.1104 12.2564 14.1086 1.04942
431 1 -1.1104 12.1222 19.5789 1.17563
433 1 -1.1104 12.1056 13.7904 3.84132
434 1 -1.1104 12.1886 19.4754 3.90147
435 1 -1.1104 12.1094 16.7529 0.961582
437 2 2.2208 10.6529 15.2685 2.48516
438 2 2.2208 10.814 20.9332 2.53646
439 1 -1.1104 12.0961 16.5433 3.89696
440 1 -1.1104 9.2923 13.8911 1.02416
442 1 -1.1104 9.36944 19.4939 1.03683
444 2 2.2208 7.82316 18.0631 2.4885
445 1 -1.1104 9.28224 13.7762 3.84669
446 1 -1.1104 9.40191 19.5537 3.83655
447 2 2.2208 7.95874 15.3155 5.21603
448 2 2.2208 7.77969 20.9623 5.14393
449 1 -1.1104 9.22254 16.7087 1.13261
451 1 -1.1104 9.23111 16.6733 3.74429
453 2 2.2208 13.5082 12.5415 2.45808
515 2 2.2208 13.5198 9.69934 5.24911
9262 2 2.2208 13.5166 20.9336 5.22221
688 2 2.2208 10.7924 18.1935 -0.302959
492 1 -1.1104 9.38794 16.7291 9.27354
690 2 2.2208 10.8919 12.4846 -0.285263
687 2 2.2208 7.84363 20.8958 -0.357021
414 2 2.2208 13.5455 18.1651 7.93959
372 1 -1.1104 6.515 11.0927 6.7712
401 1 -1.1104 3.66978 19.5447 6.53223
408 1 -1.1104 3.67693 16.6862 6.70776
498 2 2.2208 8.05734 18.0733 7.93181
387 1 -1.1104 6.5609 19.6845 6.56338
383 1 -1.1104 0.896588 13.9277 6.82629
432 1 -1.1104 12.1627 19.4577 6.47473
399 1 -1.1104 3.67883 13.9389 6.8678
454 1 -1.1104 3.7691 19.4839 12.0976
455 1 -1.1104 3.77228 13.9405 12.2847
459 1 -1.1104 0.810365 19.3539 9.45355
460 1 -1.1104 0.896175 16.7043 9.56373
461 2 2.2208 5.1073 20.8924 7.92482
462 1 -1.1104 0.918721 13.9648 9.67645
463 2 2.2208 5.14328 15.4504 8.04424
466 1 -1.1104 0.948573 19.5139 12.3384
467 1 -1.1104 0.946141 13.95 12.4868
468 2 2.2208 5.05807 18.1796 10.7741
469 1 -1.1104 3.47449 19.5333 9.26966
471 2 2.2208 2.20817 18.113 8.04306
472 1 -1.1104 3.73682 16.9534 9.43559
473 1 -1.1104 3.58849 13.9489 9.59612
475 1 -1.1104 0.94996 16.7319 12.4005
476 1 -1.1104 3.72622 16.7308 12.1646
477 2 2.2208 2.32716 20.8589 10.7472
478 2 2.2208 5.05745 12.4479 10.8302
479 1 -1.1104 0.776777 11.2316 12.3371
481 2 2.2208 2.34058 15.3735 10.9225
482 2 2.2208 5.08248 9.78789 8.14629
483 1 -1.1104 0.999487 11.1414 9.48461
485 2 2.2208 2.25311 12.5474 8.12308
486 2 2.2208 2.27509 9.77055 10.968
487 1 -1.1104 3.48398 11.2391 12.3143
488 1 -1.1104 3.77943 11.1512 9.54861
474 1 -1.1104 6.47668 16.7417 12.3508
464 1 -1.1104 6.62083 19.5104 12.0789
503 1 -1.1104 9.17258 10.9964 9.37292
491 1 -1.1104 12.0535 11.1837 12.247
458 1 -1.1104 6.35107 14.12 9.43422
480 1 -1.1104 6.45786 11.0192 12.2818
457 1 -1.1104 6.63614 16.7775 9.45899
692 2 2.2208 13.6311 9.69874 -0.354415
493 1 -1.1104 9.5117 16.7399 12.1817
417 1 -1.1104 12.2035 11.1552 6.69021
436 1 -1.1104 11.9818 16.7584 6.71391
430 1 -1.1104 12.0668 13.9625 6.6548
518 2 2.2208 13.5443 9.66724 10.8747
9351 2 2.2208 13.5474 21.0062 10.7571
500 1 -1.1104 9.26235 13.8747 12.1944
496 1 -1.1104 9.37987 19.3854 9.2386
393 1 -1.1104 6.60271 16.8163 6.59425
456 1 -1.1104 6.35135 19.4835 9.37447
513 2 2.2208 10.8472 18.0354 10.8489
490 2 2.2208 10.746 9.60364 8.03631
494 2 2.2208 7.99098 20.8458 10.7179
510 2 2.2208 7.76617 12.5707 8.09963
499 1 -1.1104 9.2628 19.4714 12.2727
517 2 2.2208 13.4975 12.5006 8.13813
484 1 -1.1104 6.51725 11.1483 9.51933
505 1 -1.1104 12.2553 16.6802 12.2839
514 2 2.2208 10.7018 12.5501 10.7676
497 1 -1.1104 9.30728 13.7242 9.4807
443 1 -1.1104 9.34132 19.5382 6.52878
450 1 -1.1104 9.35434 16.5134 6.49215
489 1 -1.1104 12.156 11.1115 9.52826
506 1 -1.1104 9.3179 11.0309 12.2404
509 2 2.2208 7.92626 9.73262 10.9469
465 1 -1.1104 6.59568 13.9008 12.1236
441 1 -1.1104 9.16153 13.8106 6.64774
512 1 -1.1104 11.9917 13.7834 12.2068
423 1 -1.1104 9.3415 11.0627 6.74548
504 2 2.2208 10.562 15.3417 8.00067
501 1 -1.1104 12.1574 16.7289 9.50142
511 1 -1.1104 12.0625 19.4775 12.2989
502 2 2.2208 10.7241 20.8099 7.91255
495 2 2.2208 7.91069 15.4151 10.8776
508 1 -1.1104 12.1482 13.8929 9.45261
652 2 2.2208 5.14792 12.6084 -0.222743
576 2 2.2208 7.8993 12.5563 13.6273
612 2 2.2208 10.7809 20.9937 13.6248
521 2 2.2208 5.03882 9.64766 13.7818
648 2 2.2208 2.38879 21.0179 -0.413518
651 2 2.2208 2.42813 9.86225 -0.249708
694 2 2.2208 13.5547 15.2962 -0.475353
691 2 2.2208 7.87457 15.3403 -0.23123
526 2 2.2208 5.1754 12.4943 16.4568
527 1 -1.1104 0.740151 11.1132 18.1232
529 2 2.2208 4.99496 9.71601 19.4236
530 1 -1.1104 0.908171 11.2237 15.2643
533 2 2.2208 2.41865 12.4851 19.2806
534 2 2.2208 2.27536 9.64154 16.5498
535 1 -1.1104 3.76401 11.1547 17.9172
536 1 -1.1104 3.79031 11.2058 14.9731
538 2 2.2208 5.15881 18.0402 16.4914
539 1 -1.1104 0.873501 13.91 18.0003
540 1 -1.1104 1.01424 19.6289 17.8444
543 1 -1.1104 0.812451 14.0445 15.2442
545 1 -1.1104 0.924176 19.5185 15.0418
551 1 -1.1104 0.832818 16.7889 17.9784
553 2 2.2208 5.1573 15.4106 19.3211
554 2 2.2208 5.19593 20.7397 19.2513
555 1 -1.1104 0.934494 16.6783 15.2899
559 1 -1.1104 3.67089 13.9081 17.9765
560 1 -1.1104 3.79817 19.3399 17.7929
561 2 2.2208 2.29992 18.0968 19.3046
562 1 -1.1104 3.77886 13.953 15.2361
564 1 -1.1104 3.77435 19.4563 14.9779
566 2 2.2208 2.28905 15.2925 16.5438
567 2 2.2208 2.42968 20.9117 16.3305
568 1 -1.1104 3.77974 16.6166 17.8569
569 1 -1.1104 3.6029 16.7248 15.0124
552 1 -1.1104 6.57243 16.706 17.9699
570 1 -1.1104 3.73115 16.8418 20.6589
528 1 -1.1104 6.63556 11.0047 17.9389
531 1 -1.1104 6.49079 11.0972 15.1572
542 1 -1.1104 6.46863 19.4991 17.8827
541 1 -1.1104 6.42659 13.85 17.8921
537 1 -1.1104 3.63673 11.1346 20.7149
547 1 -1.1104 6.5744 13.767 14.9027
549 1 -1.1104 6.59475 19.4332 15.007
546 1 -1.1104 1.00232 19.365 20.7689
565 1 -1.1104 3.75441 19.5293 20.6799
532 1 -1.1104 6.59157 10.9965 20.6509
520 2 2.2208 2.2577 18.0884 13.6884
574 2 2.2208 13.5596 18.2879 19.2238
613 2 2.2208 10.8294 15.2695 13.722
655 2 2.2208 13.5406 15.2881 16.6117
557 1 -1.1104 6.51441 16.5877 15.0802
577 2 2.2208 10.7846 12.515 16.5641
578 1 -1.1104 12.2538 11.15 18.0008
579 2 2.2208 10.754 9.6865 19.2868
580 1 -1.1104 12.1148 11.1828 15.0525
582 2 2.2208 7.95967 12.4666 19.416
583 2 2.2208 7.92722 9.7674 16.4132
584 1 -1.1104 9.4199 11.2545 17.8585
585 1 -1.1104 9.44004 11.2318 15.1613
587 2 2.2208 10.8164 18.1598 16.3564
588 1 -1.1104 12.0303 14.0083 17.9796
589 1 -1.1104 12.2573 19.6512 17.8196
590 1 -1.1104 12.1851 13.8498 15.1807
592 1 -1.1104 12.2313 19.3884 14.991
594 1 -1.1104 12.1791 16.8359 17.8346
595 2 2.2208 10.7215 15.3276 19.3063
596 2 2.2208 10.7729 20.8647 19.2401
597 1 -1.1104 12.2717 16.6107 15.0753
599 1 -1.1104 9.34191 14.0221 18.0134
600 1 -1.1104 9.19883 19.6362 17.9435
601 2 2.2208 8.02233 18.0378 19.3052
602 1 -1.1104 9.28898 14.0094 15.1492
604 1 -1.1104 9.48715 19.5421 15.0307
606 2 2.2208 7.92208 15.3265 16.5012
607 2 2.2208 7.87351 20.9384 16.4888
608 1 -1.1104 9.40294 16.8032 17.8948
609 1 -1.1104 9.26005 16.7647 14.9795
614 2 2.2208 7.96803 18.0891 13.6821
573 2 2.2208 13.5934 12.5587 19.3104
9465 2 2.2208 13.6513 20.9156 16.3621
548 1 -1.1104 6.51685 13.8494 20.6746
605 1 -1.1104 9.34497 19.5455 20.8189
615 2 2.2208 13.5884 17.9989 13.686
572 2 2.2208 5.26158 20.8781 13.4785
524 2 2.2208 5.07111 15.2389 13.6849
550 1 -1.1104 6.68696 19.5534 20.7352
544 1 -1.1104 0.992487 13.5138 20.7283
563 1 -1.1104 3.8681 13.9536 20.6882
556 1 -1.1104 1.00603 16.4685 20.7372
616 1 -1.1104 3.66973 19.495 23.5427
618 1 -1.1104 3.7528 14.1309 23.4695
620 1 -1.1104 0.922764 19.5035 26.2223
621 1 -1.1104 0.961619 16.7344 26.3846
622 1 -1.1104 0.814642 13.8645 26.3455
624 2 2.2208 5.16158 20.9652 24.8146
625 2 2.2208 5.06822 15.438 24.9734
627 1 -1.1104 0.99576 19.5402 23.4582
628 1 -1.1104 0.855968 14.0201 23.6895
629 2 2.2208 5.17334 18.0299 22.0582
630 1 -1.1104 3.76883 19.3886 26.3838
631 2 2.2208 2.28783 18.1282 24.9031
632 1 -1.1104 3.69452 16.6956 26.3204
633 1 -1.1104 3.52242 13.8724 26.368
635 1 -1.1104 0.847248 16.8035 23.5246
636 1 -1.1104 3.60726 16.7261 23.3849
637 2 2.2208 2.38829 20.9544 22.0267
638 2 2.2208 5.04129 12.4306 22.1307
639 1 -1.1104 0.788854 11.3161 23.579
641 2 2.2208 2.39597 15.2277 22.0847
642 2 2.2208 5.18512 9.78115 24.9395
643 1 -1.1104 1.08917 11.1924 26.5854
645 2 2.2208 2.34584 12.5434 24.9494
646 1 -1.1104 3.8909 11.3616 23.7808
647 1 -1.1104 3.88505 11.1383 26.5233
626 1 -1.1104 6.47816 13.7599 23.5261
666 1 -1.1104 6.47813 19.5219 26.3466
619 1 -1.1104 6.42678 16.9093 26.2043
617 1 -1.1104 6.46387 14.0072 26.463
644 1 -1.1104 6.59781 11.2526 26.3175
575 2 2.2208 13.4023 9.77206 16.5521
623 1 -1.1104 6.49455 19.6187 23.5379
634 1 -1.1104 6.54387 16.7296 23.4822
558 1 -1.1104 6.5613 16.6768 20.6525
611 2 2.2208 10.7576 9.74291 13.7079
696 2 2.2208 13.4716 18.1872 24.876
586 1 -1.1104 9.36293 11.1173 20.6246
679 2 2.2208 7.91207 12.5416 24.9476
684 1 -1.1104 12.1497 11.116 23.5978
581 1 -1.1104 12.3196 10.9828 20.6562
591 1 -1.1104 12.0799 13.884 20.8093
593 1 -1.1104 12.1925 19.5196 20.7226
672 2 2.2208 10.8018 21.0293 24.9452
660 1 -1.1104 9.29953 16.7482 26.2177
678 2 2.2208 8.05884 9.80483 22.0821
667 2 2.2208 7.96208 18.1284 24.8688
685 2 2.2208 10.6256 9.65992 25.036
693 2 2.2208 13.4903 15.3314 22.0007
571 2 2.2208 13.5595 9.66803 22.1315
686 1 -1.1104 12.2808 11.0228 26.3447
661 1 -1.1104 9.47436 16.6321 23.4535
673 2 2.2208 10.7649 15.2366 24.9824
695 2 2.2208 13.4061 12.5748 24.9077
677 1 -1.1104 9.38383 11.2465 23.5395
664 1 -1.1104 9.33519 19.501 26.2824
670 1 -1.1104 12.2 16.7653 26.305
680 1 -1.1104 12.2307 19.7109 23.6491
671 1 -1.1104 9.44215 11.141 26.245
681 1 -1.1104 12.0965 13.9352 23.718
675 1 -1.1104 12.1853 19.5429 26.4118
640 1 -1.1104 6.69615 11.0486 23.5105
610 1 -1.1104 9.34691 16.5136 20.6211
598 1 -1.1104 12.1795 16.6482 20.5536
603 1 -1.1104 9.34462 13.8649 20.8223
668 1 -1.1104 9.45637 19.4851 23.4558
682 2 2.2208 10.797 18.1315 22.1207
663 2 2.2208 7.88664 15.1953 22.1038
674 1 -1.1104 12.1063 16.8085 23.2873
669 1 -1.1104 9.30832 13.8042 23.5049
676 1 -1.1104 12.1676 13.8529 26.4431
683 2 2.2208 10.7889 12.5326 22.1587
665 1 -1.1104 9.30517 13.7893 26.3391
662 2 2.2208 7.97654 20.926 22.1146
697 2 2.2208 13.4332 12.4549 13.7028
9447 2 2.2208 13.5621 21.0094 27.6266
689 2 2.2208 7.93754 9.76353 27.6687
523 2 2.2208 2.11308 12.6236 13.8454
698 2 2.2208 5.15169 23.7538 5.16203
699 2 2.2208 5.21928 29.4558 5.12312
700 1 -1.1104 1.06756 24.9944 1.02505
701 1 -1.1104 1.03774 25.0926 3.84491
702 1 -1.1104 0.919037 22.1317 0.906533
703 1 -1.1104 0.732051 27.7974 0.967929
704 2 2.2208 5.07058 26.6185 2.36425
705 1 -1.1104 0.903393 22.3877 3.79701
706 1 -1.1104 0.826468 27.8849 3.80526
707 1 -1.1104 3.68255 25.2134 0.855159
708 2 2.2208 2.35077 23.7768 2.43038
709 2 2.2208 2.27089 29.3068 2.55414
710 1 -1.1104 3.75975 25.1652 3.63479
711 2 2.2208 2.36002 26.5031 5.30417
712 1 -1.1104 3.63298 22.4434 0.926742
713 1 -1.1104 3.73561 28.0164 0.972711
714 1 -1.1104 3.67841 22.3347 3.8391
715 1 -1.1104 3.67907 28.0073 3.74052
716 1 -1.1104 0.867334 30.5781 1.2304
717 1 -1.1104 0.919743 30.7456 3.8618
718 1 -1.1104 0.979899 33.5108 1.08016
719 2 2.2208 4.96844 32.0619 2.49801
720 1 -1.1104 0.94497 33.5882 3.85078
722 1 -1.1104 3.59007 30.8596 1.07065
723 1 -1.1104 3.68009 30.7287 4.00128
724 2 2.2208 2.28004 32.046 5.27799
725 1 -1.1104 3.7707 33.5677 0.972251
726 1 -1.1104 3.7206 33.4463 3.82033
733 1 -1.1104 6.54134 22.3682 0.941278
984 2 2.2208 5.15465 23.8067 -0.367381
732 1 -1.1104 6.53107 25.1815 3.76724
731 1 -1.1104 6.43193 25.2323 0.904558
785 1 -1.1104 3.63801 33.4191 6.61267
755 1 -1.1104 6.34589 30.7565 1.04482
985 2 2.2208 2.3601 26.4907 -0.409338
775 1 -1.1104 6.56988 22.3997 6.53909
835 1 -1.1104 12.1305 25.1048 9.42317
735 1 -1.1104 6.46893 22.3178 3.67304
757 1 -1.1104 6.39217 33.628 1.04424
734 1 -1.1104 6.59362 28.0432 0.961228
773 1 -1.1104 1.01876 22.2783 6.66094
782 1 -1.1104 0.791584 33.5952 6.73064
9743 2 2.2208 -0.463095 32.1248 2.44864
736 1 -1.1104 6.46093 27.9631 3.85172
756 1 -1.1104 6.5172 30.7627 3.76593
721 1 -1.1104 6.55654 33.4758 3.81433
9747 2 2.2208 13.4986 23.8435 2.25832
9940 2 2.2208 -0.476802 23.6366 -0.643564
737 2 2.2208 10.7251 23.6971 5.32812
738 2 2.2208 10.8267 29.2521 5.20417
739 1 -1.1104 12.1866 25.1885 0.841485
740 1 -1.1104 12.1912 25.188 3.93594
741 1 -1.1104 12.0751 22.4292 1.05725
742 1 -1.1104 12.1304 27.9221 0.965897
743 2 2.2208 10.7488 26.4879 2.47415
744 1 -1.1104 12.18 22.2608 3.86676
745 1 -1.1104 12.082 27.8366 3.67117
746 1 -1.1104 9.28578 25.1257 0.978772
747 2 2.2208 7.99674 23.7444 2.37727
748 2 2.2208 7.92647 29.4473 2.39267
749 1 -1.1104 9.2342 25.1304 3.97843
750 2 2.2208 7.83405 26.5299 5.2641
751 1 -1.1104 9.34759 22.2403 1.14767
752 1 -1.1104 9.43235 27.9883 1.08745
753 1 -1.1104 9.3545 22.3884 3.93948
754 1 -1.1104 9.33676 27.9365 3.77294
758 1 -1.1104 12.2131 30.7375 1.21872
759 1 -1.1104 12.3347 30.5874 3.95132
760 1 -1.1104 12.117 33.5651 1.03689
761 2 2.2208 10.7336 32.1876 2.2906
762 1 -1.1104 12.2851 33.2904 3.78229
763 1 -1.1104 9.25555 30.7011 0.938862
764 1 -1.1104 9.37674 30.7253 3.63289
765 2 2.2208 7.92938 32.1367 5.09889
766 1 -1.1104 9.35429 33.4646 0.892783
767 1 -1.1104 9.49105 33.5674 3.71761
9610 2 2.2208 13.6772 31.9909 5.14626
9740 2 2.2208 -0.453157 29.5163 11.0263
828 1 -1.1104 12.1725 30.6548 6.69016
831 1 -1.1104 9.32722 33.6434 6.45311
826 1 -1.1104 9.36062 22.4208 6.63395
950 2 2.2208 7.92001 29.1528 13.5736
849 1 -1.1104 9.25952 27.8627 9.29782
768 1 -1.1104 9.37878 30.7142 12.3439
784 1 -1.1104 3.69557 30.6338 6.61974
781 1 -1.1104 6.4094 30.758 6.50534
9742 2 2.2208 -0.432138 23.6435 10.8356
779 1 -1.1104 3.70183 27.9771 6.57901
780 1 -1.1104 0.867145 30.7222 6.64619
783 1 -1.1104 6.46166 33.5071 6.98225
771 1 -1.1104 0.976064 24.9923 6.62015
774 1 -1.1104 0.793309 27.9323 6.57617
778 1 -1.1104 3.71613 22.4206 6.50386
777 1 -1.1104 3.75559 25.1656 6.64652
1130 1 -1.1104 0.74561 33.4505 9.45604
786 2 2.2208 5.08028 23.7227 10.6644
787 2 2.2208 5.07788 29.2315 10.8662
788 1 -1.1104 0.912265 25.0836 12.2324
790 1 -1.1104 0.926022 25.168 9.43729
792 1 -1.1104 1.09193 22.2871 12.185
793 1 -1.1104 0.996959 28.158 12.2262
796 2 2.2208 4.99256 26.511 7.94738
797 1 -1.1104 0.874343 22.2904 9.4552
798 1 -1.1104 0.89211 27.96 9.46331
801 1 -1.1104 3.61629 25.1203 12.1682
802 2 2.2208 2.33761 23.6816 7.92908
803 2 2.2208 2.30235 29.3775 8.03226
804 1 -1.1104 3.71769 25.1572 9.44027