ITEM: TIMESTEP
80000
ITEM: NUMBER OF ATOMS
17910
ITEM: BOX BOUNDS pp pp pp
-3.6428507186143760e-01 2.7704285071861474e+01
-4.3073861820218928e+00 3.3238738618203359e+02
-3.6066734346906065e-01 2.7700667343467927e+01
ITEM: ATOMS id type q x y z
1 2 2.2208 5.25744 1.49972 5.13542
2 1 -1.1104 1.08786 -3.01147 1.15801
3 1 -1.1104 1.10984 2.69343 0.979777
6 1 -1.1104 1.21275 -2.9163 3.8393
7 1 -1.1104 1.07571 2.59056 3.7132
10 1 -1.1104 1.02093 -0.237444 1.08827
12 2 2.2208 5.25511 -1.40199 2.49139
13 2 2.2208 5.33756 4.19687 2.47164
14 1 -1.1104 1.05084 -0.212805 3.88387
16 1 -1.1104 3.90856 -2.77788 0.993236
17 1 -1.1104 3.93689 2.75524 0.987496
18 2 2.2208 2.55843 1.4433 2.31227
19 1 -1.1104 4.06225 -2.85387 3.86293
20 1 -1.1104 4.0014 2.70783 3.68134
21 2 2.2208 2.62235 -1.53207 5.23809
22 2 2.2208 2.44524 3.98321 5.2391
23 1 -1.1104 3.84975 0.022179 0.966962
24 1 -1.1104 3.77261 -0.0572592 3.70874
25 2 2.2208 5.36103 6.84898 5.29879
28 1 -1.1104 1.02962 8.32481 3.98027
30 1 -1.1104 1.18784 5.48326 1.0535
32 1 -1.1104 1.11394 5.50307 3.77086
34 1 -1.1104 3.90997 8.26011 1.26299
35 2 2.2208 2.53316 6.94476 2.57909
37 1 -1.1104 3.93432 5.52694 1.08438
38 1 -1.1104 3.94287 5.6133 3.85829
26 1 -1.1104 1.16871 8.31911 1.02563
36 1 -1.1104 3.89066 8.28805 3.98438
4 1 -1.1104 6.70731 -2.82862 0.933386
29 1 -1.1104 6.70054 8.36668 3.98774
89 1 -1.1104 1.11107 8.29904 6.67819
81 1 -1.1104 1.08172 2.53715 6.55866
91 1 -1.1104 1.29023 5.52081 6.69401
33 1 -1.1104 6.78115 5.44711 3.83272
31 1 -1.1104 6.87296 5.54586 1.2574
5 1 -1.1104 6.79249 2.73191 0.902854
8 1 -1.1104 6.75163 -2.86093 3.87266
11 1 -1.1104 6.66053 -0.00805353 1.09364
15 1 -1.1104 6.75952 -0.140266 3.81136
9 1 -1.1104 6.73098 2.66319 3.81001
83 1 -1.1104 6.82929 2.69469 6.49162
92 1 -1.1104 6.85214 5.61201 6.71
45 2 2.2208 13.8021 4.20892 11.0866
90 1 -1.1104 6.75244 8.31739 6.60098
86 1 -1.1104 4.04359 -2.87089 6.64822
133 2 2.2208 -0.286562 4.04073 8.10037
87 1 -1.1104 3.88101 2.79011 6.62205
85 1 -1.1104 6.74566 -0.0859918 6.67634
8712 2 2.2208 10.958 -4.28543 10.9725
148 1 -1.1104 9.62653 5.44368 9.44237
27 1 -1.1104 6.81596 8.25528 1.1932
46 2 2.2208 10.9618 1.29211 5.23528
47 1 -1.1104 12.3517 -2.8147 0.965361
48 1 -1.1104 12.3958 2.83487 0.871873
49 1 -1.1104 12.423 -2.88266 3.73734
50 1 -1.1104 12.2833 2.77161 3.80124
51 1 -1.1104 12.3498 -0.175296 1.1236
52 2 2.2208 11.0297 -1.57967 2.4536
53 2 2.2208 10.9297 4.20735 2.4304
54 1 -1.1104 12.4679 -0.054852 3.89205
55 1 -1.1104 9.38086 -2.94922 0.92186
56 1 -1.1104 9.62408 2.82554 0.875486
57 2 2.2208 8.07387 1.32933 2.44716
58 1 -1.1104 9.70276 -2.88417 3.80328
59 1 -1.1104 9.57051 2.68616 3.77313
60 2 2.2208 8.2019 -1.53574 5.18977
61 2 2.2208 8.17687 4.02723 5.20818
62 1 -1.1104 9.47713 -0.197142 1.10541
63 1 -1.1104 9.48444 -0.0428279 3.82093
64 2 2.2208 10.977 6.85035 5.28742
66 1 -1.1104 12.3132 8.37223 3.87722
67 1 -1.1104 12.354 5.66669 1.25427
68 1 -1.1104 12.3019 5.45889 3.96842
69 1 -1.1104 9.61719 8.28124 1.06354
70 2 2.2208 8.2203 6.92509 2.62809
71 1 -1.1104 9.61542 8.2964 3.81936
72 1 -1.1104 9.419 5.58407 1.03711
73 1 -1.1104 9.61794 5.5987 3.78715
65 1 -1.1104 12.3365 8.40713 1.03892
147 1 -1.1104 9.51648 8.21994 6.60494
146 1 -1.1104 12.3918 5.54385 6.68607
74 2 2.2208 13.814 1.31641 2.40643
8710 2 2.2208 10.9474 -4.40187 5.30352
152 2 2.2208 8.21734 6.95388 7.99294
8707 2 2.2208 5.46299 -4.30225 5.19624
77 2 2.2208 13.7298 4.05316 5.23391
143 1 -1.1104 9.60624 2.69983 6.58166
75 2 2.2208 13.7293 -1.4992 5.14307
42 2 2.2208 -0.216802 4.13918 2.43208
138 1 -1.1104 12.326 5.42575 12.3241
169 1 -1.1104 9.47954 -0.13439 12.1523
82 1 -1.1104 6.74064 -2.92821 6.73511
84 1 -1.1104 1.29842 -0.173987 6.70296
93 1 -1.1104 3.99234 8.3605 6.76287
94 1 -1.1104 4.14197 5.60891 6.75628
88 1 -1.1104 4.09346 -0.00722528 6.42304
39 2 2.2208 -0.177164 6.93973 5.30486
8709 2 2.2208 8.07333 -4.31135 2.32386
80 1 -1.1104 1.04189 -2.88072 6.7074
122 1 -1.1104 1.35464 8.3602 9.50578
95 2 2.2208 5.28634 1.31122 10.9199
96 1 -1.1104 1.2104 -2.9964 12.279
97 1 -1.1104 1.13649 2.54375 12.2507
100 1 -1.1104 1.10567 -2.85789 9.34715
101 1 -1.1104 1.2609 2.72803 9.40446
104 1 -1.1104 1.25372 -0.204789 12.3408
106 2 2.2208 5.38126 -1.45575 8.00353
107 2 2.2208 5.2742 4.27076 8.21934
108 1 -1.1104 0.897858 -0.0598671 9.40936
110 1 -1.1104 4.0369 -2.91179 12.2543
111 1 -1.1104 3.93586 2.81192 12.2937
112 2 2.2208 2.65235 1.22685 7.93302
113 1 -1.1104 3.82129 -2.8311 9.37534
114 1 -1.1104 3.94725 2.7812 9.46484
115 2 2.2208 2.53992 -1.49281 10.8794
116 2 2.2208 2.53771 4.12295 10.8328
117 1 -1.1104 3.86636 -0.00191902 12.3247
118 1 -1.1104 3.88695 -0.136629 9.47866
119 2 2.2208 5.30979 7.13136 10.8119
120 1 -1.1104 0.924578 8.33536 12.2559
124 1 -1.1104 1.27313 5.51429 12.2088
126 1 -1.1104 1.12289 5.58753 9.51513
128 1 -1.1104 3.96537 8.41354 12.3859
129 2 2.2208 2.56144 7.03791 8.07019
130 1 -1.1104 3.95903 8.38587 9.50957
131 1 -1.1104 3.86465 5.5093 12.4268
132 1 -1.1104 3.91153 5.73753 9.38884
102 1 -1.1104 6.66414 -2.82906 9.31704
103 1 -1.1104 6.64987 2.72668 9.25153
98 1 -1.1104 6.76477 -2.84976 12.0936
123 1 -1.1104 6.88178 8.46096 9.55229
127 1 -1.1104 6.81129 5.53022 9.45252
109 1 -1.1104 6.58413 0.0221747 9.52872
167 2 2.2208 8.11928 -1.47283 10.7537
177 2 2.2208 2.57125 7.05331 13.7774
178 2 2.2208 2.623 1.25994 13.675
164 2 2.2208 8.09049 1.28569 7.91767
8711 2 2.2208 13.7473 -4.20602 7.91846
79 2 2.2208 13.7237 1.41384 8.12639
163 1 -1.1104 9.56178 2.6979 12.1805
145 1 -1.1104 12.4422 8.40736 6.58248
149 1 -1.1104 9.59723 5.40495 6.55156
140 1 -1.1104 12.3383 2.77549 6.62615
142 1 -1.1104 9.58887 -2.98155 6.5803
8713 2 2.2208 8.11128 -4.33302 8.17097
105 1 -1.1104 6.70265 -0.0783313 12.3059
125 1 -1.1104 6.70149 5.58396 12.3694
121 1 -1.1104 6.84337 8.42553 12.2905
137 1 -1.1104 12.4627 5.49011 9.58198
153 2 2.2208 10.8731 1.31502 10.8298
157 1 -1.1104 12.2806 2.74088 9.56226
44 2 2.2208 13.9212 6.81395 8.00741
144 1 -1.1104 9.57141 -0.146485 6.66756
172 1 -1.1104 12.5899 8.41719 12.3132
139 1 -1.1104 12.454 -2.93401 6.59498
141 1 -1.1104 12.4669 -0.181589 6.64154
159 2 2.2208 10.8537 -1.57607 8.07616
78 2 2.2208 13.7841 -1.31765 10.7897
156 1 -1.1104 12.2667 -2.76341 9.51018
99 1 -1.1104 6.77957 2.74122 12.2996
166 1 -1.1104 9.4529 2.5872 9.50449
158 1 -1.1104 12.3612 0.0396993 12.332
168 2 2.2208 8.10529 4.10846 10.7806
154 1 -1.1104 12.3043 -2.81678 12.3646
155 1 -1.1104 12.3095 2.82312 12.3341
150 1 -1.1104 9.59159 5.44061 12.3047
170 1 -1.1104 9.48441 -0.174093 9.39009
160 2 2.2208 10.9997 4.11314 8.17108
171 2 2.2208 10.9202 6.84895 10.8467
161 1 -1.1104 12.3623 0.113721 9.47528
173 1 -1.1104 12.2035 8.34834 9.55985
151 1 -1.1104 9.53325 8.19631 9.43242
136 1 -1.1104 9.6838 8.17643 12.3374
162 1 -1.1104 9.72042 -2.89343 12.3985
165 1 -1.1104 9.55312 -2.88763 9.54891
291 2 2.2208 11.026 -1.47874 13.7044
292 2 2.2208 10.8772 4.10807 13.6925
179 2 2.2208 5.33035 4.26659 13.7143
235 2 2.2208 8.18598 4.21696 -0.300567
339 2 2.2208 13.7246 -1.60071 -0.393065
288 2 2.2208 13.7657 4.07112 -0.395303
8728 2 2.2208 13.7117 -4.33222 13.7619
182 2 2.2208 5.34366 1.36678 16.3741
183 1 -1.1104 1.06747 -2.68527 17.9548
184 1 -1.1104 1.07329 2.80388 17.9748
187 1 -1.1104 1.23336 -2.71671 15.1961
189 1 -1.1104 1.26123 2.75288 15.0799
195 1 -1.1104 1.02937 0.0486303 17.9282
197 2 2.2208 5.2315 -1.36171 19.293
198 2 2.2208 5.2916 4.13047 19.3368
199 1 -1.1104 1.18289 -0.0379801 15.126
203 1 -1.1104 3.97777 -2.70581 17.8544
204 1 -1.1104 3.87845 2.91183 18.0247
205 2 2.2208 2.40242 1.39618 19.398
206 1 -1.1104 3.99666 -2.8259 15.1026
208 1 -1.1104 4.02746 2.88599 15.17
210 2 2.2208 2.50708 -1.36575 16.6045
211 2 2.2208 2.6963 4.15191 16.5093
212 1 -1.1104 3.87199 0.0232132 17.9877
213 1 -1.1104 3.94912 0.0518224 15.0444
215 2 2.2208 5.33008 7.03407 16.5382
216 1 -1.1104 1.14583 8.36301 17.9016
218 1 -1.1104 1.1597 8.34112 15.2004
221 1 -1.1104 1.24924 5.56467 17.8755
223 1 -1.1104 1.18233 5.54301 14.9339
227 1 -1.1104 3.81376 8.50897 17.7865
228 2 2.2208 2.60481 7.00737 19.2004
229 1 -1.1104 3.97374 8.47631 15.0965
231 1 -1.1104 4.00023 5.60412 17.8988
232 1 -1.1104 3.95703 5.77302 15.1293
230 1 -1.1104 3.85037 8.2112 20.5518
225 1 -1.1104 6.68556 5.48374 15.0976
219 1 -1.1104 6.92906 8.22524 15.2368
209 1 -1.1104 4.0998 2.85465 20.8711
188 1 -1.1104 1.05199 -2.75641 20.7386
185 1 -1.1104 6.7496 -2.83356 17.8135
196 1 -1.1104 6.74838 -0.0616177 17.819
222 1 -1.1104 6.69755 5.49628 18.0355
201 1 -1.1104 6.72433 -0.052963 15.0788
200 1 -1.1104 0.938822 0.22707 20.7232
190 1 -1.1104 1.22232 2.90408 20.7916
233 1 -1.1104 3.81799 5.56024 20.5986
226 1 -1.1104 6.67957 5.57393 20.7598
207 1 -1.1104 3.77712 -2.75949 20.7575
194 1 -1.1104 6.80511 2.72856 20.619
239 2 2.2208 8.21642 -1.53901 27.6444
8878 2 2.2208 2.51206 -4.28079 24.9641
240 2 2.2208 13.7691 1.37761 13.6784
186 1 -1.1104 6.67424 2.76608 17.7921
238 2 2.2208 -0.348979 -1.3154 19.3732
351 1 -1.1104 12.3029 2.61519 23.3743
286 2 2.2208 13.6214 6.80966 13.7066
191 1 -1.1104 6.80554 -2.80864 14.8785
217 1 -1.1104 6.69106 8.36833 17.9482
193 1 -1.1104 6.68872 2.73873 15.1049
245 2 2.2208 10.9654 1.40973 16.4839
246 1 -1.1104 12.4 -2.99832 17.8954
247 1 -1.1104 12.3063 2.68996 17.9579
248 1 -1.1104 12.3813 -2.96395 15.1659
250 1 -1.1104 12.3194 2.60861 15.068
252 1 -1.1104 12.2841 -0.224552 17.8905
253 2 2.2208 10.9581 -1.50028 19.2149
254 2 2.2208 10.8023 4.13093 19.2655
255 1 -1.1104 12.3443 -0.16182 15.2175
257 1 -1.1104 9.49493 -2.81055 17.8388
258 1 -1.1104 9.59112 2.61571 17.8419
259 2 2.2208 8.05392 1.21173 19.2133
260 1 -1.1104 9.57767 -2.936 15.1848
262 1 -1.1104 9.43961 2.78806 14.9679
264 2 2.2208 8.10562 -1.45888 16.432
265 2 2.2208 8.09695 4.04923 16.4222
266 1 -1.1104 9.55281 -0.0276081 17.8449
267 1 -1.1104 9.58537 -0.156482 14.8931
269 2 2.2208 10.9389 6.97538 16.4921
270 1 -1.1104 12.5238 8.37171 17.9403
271 1 -1.1104 12.3052 8.42594 15.0435
273 1 -1.1104 12.3357 5.46583 17.9466
274 1 -1.1104 12.2611 5.60053 15.037
276 1 -1.1104 9.65419 8.27684 17.9609
277 2 2.2208 8.05073 6.94584 19.5026
278 1 -1.1104 9.6122 8.29847 15.151
280 1 -1.1104 9.41335 5.50757 17.8248
281 1 -1.1104 9.4921 5.50288 15.0112
202 1 -1.1104 6.67232 0.0824667 20.7478
275 1 -1.1104 12.2588 5.51315 20.6625
279 1 -1.1104 9.45592 8.39787 20.6856
349 2 2.2208 11.0206 1.2767 21.9843
282 1 -1.1104 9.46889 5.54423 20.8244
348 2 2.2208 8.03218 6.94609 24.9478
220 1 -1.1104 6.7323 8.33918 20.6615
249 1 -1.1104 12.3076 -2.87026 20.718
256 1 -1.1104 12.3126 -0.112765 20.5841
268 1 -1.1104 9.52576 -0.0658963 20.5785
345 1 -1.1104 9.41507 5.45564 26.3399
355 2 2.2208 10.8718 -1.36176 24.9028
364 2 2.2208 8.01099 4.06227 22.0766
224 1 -1.1104 1.02942 5.89453 20.6402
366 1 -1.1104 9.50907 -0.0346674 26.3153
334 2 2.2208 2.57367 4.24138 27.6
214 1 -1.1104 3.86083 0.181674 20.7751
283 2 2.2208 13.757 4.07516 16.4969
294 2 2.2208 5.38531 1.4057 22.1907
295 1 -1.1104 0.943013 -2.94704 23.5477
296 1 -1.1104 1.14062 2.75559 23.5648
299 1 -1.1104 1.09943 -2.75707 26.2742
300 1 -1.1104 1.13429 2.83816 26.3251
303 1 -1.1104 1.06775 -0.123032 23.7824
305 2 2.2208 5.19894 -1.33209 24.8627
306 2 2.2208 5.3586 4.09262 24.9755
307 1 -1.1104 0.910656 -0.0766883 26.4056
309 1 -1.1104 3.79533 -2.88179 23.4565
310 1 -1.1104 3.90491 2.70782 23.6662
311 2 2.2208 2.45111 1.39245 25.0259
312 1 -1.1104 4.06948 -2.80364 26.2857
313 1 -1.1104 3.98288 2.86003 26.258
314 2 2.2208 2.40291 -1.35443 22.1122
315 2 2.2208 2.57019 4.17477 22.1507
316 1 -1.1104 3.78127 -0.0866139 23.4203
317 1 -1.1104 3.67525 -0.0599859 26.2907
318 2 2.2208 5.31528 7.11137 22.1885
319 1 -1.1104 0.920291 8.25597 23.4801
321 1 -1.1104 1.21158 8.20213 26.3272
323 1 -1.1104 1.11157 5.57139 23.4914
325 1 -1.1104 1.21254 5.49817 26.2133
327 1 -1.1104 3.99558 8.3529 23.694
328 2 2.2208 2.59536 6.9603 24.8397
329 1 -1.1104 3.98306 8.43124 26.5572
330 1 -1.1104 3.97729 5.59298 23.5946
331 1 -1.1104 3.99584 5.68106 26.4501
335 2 2.2208 5.3211 6.92357 27.8393
192 1 -1.1104 6.59001 -2.8556 20.6867
297 1 -1.1104 6.65189 -3.00334 23.4088
302 1 -1.1104 6.83939 2.78245 26.2375
324 1 -1.1104 6.78247 5.4672 23.4177
298 1 -1.1104 6.90642 2.71916 23.5454
308 1 -1.1104 6.70247 0.00780622 26.2394
326 1 -1.1104 6.67584 5.53709 26.4079
304 1 -1.1104 6.66802 -0.106432 23.5034
320 1 -1.1104 6.71109 8.48338 23.6261
301 1 -1.1104 6.84141 -2.86086 26.1864
357 1 -1.1104 12.3823 -0.21286 26.3134
180 2 2.2208 2.45455 -1.45813 27.7232
346 1 -1.1104 9.58455 5.61372 23.5759
347 1 -1.1104 9.46577 8.34144 26.3464
8725 2 2.2208 5.32284 -4.30775 27.7003
272 1 -1.1104 12.2984 8.4068 20.8227
263 1 -1.1104 9.5538 2.76925 20.678
340 2 2.2208 10.8994 6.95517 27.7929
367 2 2.2208 10.8948 6.85165 22.0703
322 1 -1.1104 6.76352 8.38098 26.447
284 2 2.2208 13.8464 6.92219 19.262
337 2 2.2208 13.6479 1.32518 24.9715
338 2 2.2208 13.8059 -1.56475 22.0258
242 1 -1.1104 9.52204 8.47866 23.6829
251 1 -1.1104 12.4052 2.64655 20.7592
234 2 2.2208 13.7627 4.08739 22.1304
356 2 2.2208 10.9133 4.06116 24.8245
360 2 2.2208 8.23682 1.34249 24.9062
361 1 -1.1104 9.47951 -2.85573 26.2039
341 1 -1.1104 12.4651 8.3584 23.4806
244 1 -1.1104 12.4238 5.40871 23.4254
353 1 -1.1104 12.1682 2.62133 26.1912
352 1 -1.1104 12.335 -2.90215 26.2996
365 1 -1.1104 9.6905 -0.101175 23.4105
359 1 -1.1104 9.69461 2.67029 23.4776
363 2 2.2208 8.0949 -1.5707 22.0652
333 1 -1.1104 12.3672 8.3103 26.3215
362 1 -1.1104 9.57652 2.69458 26.2209
243 1 -1.1104 12.2174 5.43595 26.3758
358 1 -1.1104 9.424 -2.87855 23.4855
261 1 -1.1104 9.43997 -2.90191 20.7023
350 1 -1.1104 12.2401 -3.01107 23.4502
354 1 -1.1104 12.464 -0.187169 23.5551
241 2 2.2208 10.9367 1.24029 27.7741
332 2 2.2208 5.37999 1.38106 27.6571
176 2 2.2208 5.3934 -1.40277 13.6197
290 2 2.2208 8.07421 1.21919 13.6396
289 2 2.2208 8.17711 6.86985 13.6722
368 2 2.2208 5.35897 12.6572 5.25596
369 1 -1.1104 1.08095 11.0901 1.00958
373 2 2.2208 5.39413 9.76645 2.53754
374 1 -1.1104 1.18163 11.2187 3.75566
376 2 2.2208 2.47853 12.5603 2.48193
377 2 2.2208 2.53342 9.69324 5.28933
378 1 -1.1104 4.07512 11.1549 1.19672
380 1 -1.1104 4.01589 11.1397 4.02688
381 2 2.2208 5.32061 18.1355 5.22353
382 1 -1.1104 1.09247 14.1025 0.967312
384 1 -1.1104 1.10419 19.7078 1.01773
388 1 -1.1104 1.11997 13.8809 3.97279
389 1 -1.1104 1.23538 19.5229 4.00082
391 1 -1.1104 1.22865 16.9499 1.09077
394 2 2.2208 5.30803 15.3629 2.55225
395 2 2.2208 5.30662 21.0744 2.46016
396 1 -1.1104 1.19153 16.766 3.89053
398 1 -1.1104 3.82515 13.9425 1.19695
400 1 -1.1104 3.74732 19.6206 0.916461
402 2 2.2208 2.53023 18.1469 2.52675
403 1 -1.1104 3.77646 13.9322 3.87994
404 1 -1.1104 3.94323 19.6101 3.74439
405 2 2.2208 2.45511 15.3782 5.28871
406 2 2.2208 2.64481 20.9375 5.28095
407 1 -1.1104 4.03798 16.8468 1.23324
409 1 -1.1104 3.95437 16.8126 3.98388
427 1 -1.1104 6.72917 16.8193 1.14528
397 1 -1.1104 6.79497 16.7325 3.96771
371 1 -1.1104 6.77862 11.1921 1.08206
393 1 -1.1104 6.86031 16.6765 6.81421
386 1 -1.1104 6.75676 13.9643 6.52122
9406 2 2.2208 -0.234045 20.8146 8.14662
425 1 -1.1104 6.58673 19.6258 1.20046
390 1 -1.1104 6.63616 14.0162 3.73803
426 1 -1.1104 6.66658 19.6419 3.80345
408 1 -1.1104 3.87666 16.6542 6.70803
401 1 -1.1104 4.01237 19.4483 6.70977
372 1 -1.1104 6.85342 11.0112 6.78422
385 1 -1.1104 6.71557 13.9762 0.924471
375 1 -1.1104 6.78963 11.2641 3.92489
453 2 2.2208 13.7713 12.6062 2.48155
515 2 2.2208 13.7542 9.83218 5.15787
415 2 2.2208 11.1893 12.5153 5.31149
416 1 -1.1104 12.3296 11.2025 1.00608
418 2 2.2208 10.9275 9.6691 2.39683
419 1 -1.1104 12.3649 11.1905 3.79445
420 2 2.2208 8.10972 12.455 2.54733
421 2 2.2208 8.31128 9.78321 5.31149
422 1 -1.1104 9.43931 11.0568 1.19045
424 1 -1.1104 9.66536 11.1754 3.89255
428 2 2.2208 11.0505 18.1599 5.28239
429 1 -1.1104 12.3589 13.9146 1.03828
431 1 -1.1104 12.4055 19.5377 1.2066
433 1 -1.1104 12.4309 14.0515 3.80432
434 1 -1.1104 12.4266 19.5693 3.96141
435 1 -1.1104 12.4054 16.7572 1.20895
437 2 2.2208 10.8544 15.4449 2.34284
438 2 2.2208 10.9017 20.8748 2.59597
439 1 -1.1104 12.5472 16.8285 4.02971
440 1 -1.1104 9.36955 13.93 1.0482
442 1 -1.1104 9.4966 19.5897 1.21863
444 2 2.2208 8.05216 18.2965 2.49365
445 1 -1.1104 9.47067 13.833 3.99875
446 1 -1.1104 9.52023 19.5827 3.93152
447 2 2.2208 8.1731 15.4421 5.25539
448 2 2.2208 8.13144 20.7941 5.34884
449 1 -1.1104 9.55374 16.9287 1.05703
451 1 -1.1104 9.66967 16.7577 3.81009
450 1 -1.1104 9.63048 16.7769 6.56959
432 1 -1.1104 12.4583 19.492 6.75551
441 1 -1.1104 9.79431 13.7981 6.73338
576 2 2.2208 8.2342 12.4933 13.6873
517 2 2.2208 13.8862 12.519 8.02562
443 1 -1.1104 9.63871 19.4861 6.8093
430 1 -1.1104 12.653 13.893 6.61019
436 1 -1.1104 12.5653 16.6763 6.76691
524 2 2.2208 5.42717 15.263 13.7015
412 2 2.2208 -0.287553 12.481 5.29837
502 2 2.2208 10.977 20.9253 7.97346
392 1 -1.1104 1.00279 16.7761 6.65057
470 1 -1.1104 1.15214 19.6287 6.6702
399 1 -1.1104 3.87512 13.9478 6.74085
383 1 -1.1104 1.00053 13.9859 6.67256
387 1 -1.1104 6.77514 19.2597 6.68194
497 1 -1.1104 9.535 13.6845 9.55564
510 2 2.2208 8.29317 12.465 8.11585
379 1 -1.1104 4.05077 11.1909 6.68736
370 1 -1.1104 1.15975 11.169 6.71696
454 1 -1.1104 3.89917 19.544 12.248
455 1 -1.1104 4.06106 14.079 12.3205
459 1 -1.1104 1.18775 19.4337 9.58803
460 1 -1.1104 1.22678 16.6603 9.51213
461 2 2.2208 5.3793 20.8484 8.16348
462 1 -1.1104 1.19233 13.7861 9.37897
463 2 2.2208 5.39406 15.2972 7.86943
466 1 -1.1104 1.11911 19.6086 12.2632
467 1 -1.1104 1.15599 14.0991 12.2677
468 2 2.2208 5.23472 17.9767 10.9146
469 1 -1.1104 3.84605 19.7046 9.55603
471 2 2.2208 2.42605 18.1281 8.05893
472 1 -1.1104 3.99995 16.745 9.5099
473 1 -1.1104 3.91405 13.9969 9.5889
475 1 -1.1104 1.15166 16.8683 12.3239
476 1 -1.1104 3.9443 16.7307 12.2782
477 2 2.2208 2.49551 20.9014 10.8119
478 2 2.2208 5.43325 12.5515 10.8714
479 1 -1.1104 1.41837 11.2588 12.353
481 2 2.2208 2.61256 15.415 10.8314
482 2 2.2208 5.42958 9.7103 8.05512
483 1 -1.1104 1.14219 11.0905 9.53585
485 2 2.2208 2.62652 12.5359 8.05506
486 2 2.2208 2.61632 9.76453 10.9304
487 1 -1.1104 4.11127 11.1148 12.1342
488 1 -1.1104 4.08494 11.0521 9.43185
474 1 -1.1104 6.78639 16.5532 12.2912
464 1 -1.1104 6.69127 19.5131 12.2836
456 1 -1.1104 6.57311 19.3892 9.51124
458 1 -1.1104 6.75305 13.967 9.31356
457 1 -1.1104 6.73 16.5544 9.62856
521 2 2.2208 5.37809 9.74742 13.7998
500 1 -1.1104 9.61622 13.814 12.3322
484 1 -1.1104 6.81316 11.2225 9.46658
480 1 -1.1104 7.00617 11.098 12.381
465 1 -1.1104 6.82774 13.8442 12.2502
505 1 -1.1104 12.4385 16.775 12.4008
507 1 -1.1104 12.4447 19.5512 9.52576
417 1 -1.1104 12.4246 11.1104 6.72913
423 1 -1.1104 9.76781 11.1023 6.63854
498 2 2.2208 8.22075 18.1443 8.14959
9408 2 2.2208 -0.259531 15.3541 8.08393
614 2 2.2208 8.24196 18.1337 13.8336
491 1 -1.1104 12.5519 11.2269 12.3452
493 1 -1.1104 9.47065 16.6927 12.3266
490 2 2.2208 11.1129 9.69867 8.02486
513 2 2.2208 11.1166 18.0468 10.9583
492 1 -1.1104 9.50652 16.7771 9.55248
503 1 -1.1104 9.70867 10.9102 9.50526
504 2 2.2208 11.0834 15.2241 7.99898
494 2 2.2208 8.13758 20.9015 10.9077
496 1 -1.1104 9.63127 19.5397 9.4584
506 1 -1.1104 9.79734 11.0608 12.3344
508 1 -1.1104 12.3765 13.8614 9.39204
501 1 -1.1104 12.5002 16.636 9.58604
489 1 -1.1104 12.4137 11.0708 9.48788
509 2 2.2208 8.36022 9.8 10.9591
511 1 -1.1104 12.4163 19.5117 12.2297
514 2 2.2208 11.1492 12.427 10.9206
612 2 2.2208 10.95 21.056 13.639
499 1 -1.1104 9.63729 19.5925 12.3939
512 1 -1.1104 12.4401 14.033 12.2687
495 2 2.2208 8.08215 15.2039 10.9183
518 2 2.2208 13.8509 9.75648 10.9324
572 2 2.2208 5.35154 20.9182 13.7388
520 2 2.2208 2.55895 18.0791 13.593
689 2 2.2208 8.07823 9.73429 -0.362257
650 2 2.2208 2.47521 15.3644 -0.33576
648 2 2.2208 2.42222 20.9442 -0.431912
9447 2 2.2208 13.6464 21.003 -0.251715
526 2 2.2208 5.4874 12.4708 16.5256
527 1 -1.1104 1.12021 11.2259 17.9665
529 2 2.2208 5.34266 9.74448 19.3156
530 1 -1.1104 1.09023 11.1878 15.0723
533 2 2.2208 2.74117 12.5386 19.1618
534 2 2.2208 2.50443 9.77131 16.4845
535 1 -1.1104 3.88523 11.162 17.7698
536 1 -1.1104 4.11796 11.2204 14.9686
538 2 2.2208 5.24219 18.1931 16.4504
539 1 -1.1104 1.21181 13.9927 17.8416
540 1 -1.1104 1.16731 19.5201 17.7419
543 1 -1.1104 1.14646 14.0157 15.0205
545 1 -1.1104 1.2017 19.5882 14.9499
551 1 -1.1104 1.11113 16.7367 17.9508
553 2 2.2208 5.44077 15.3869 19.2056
554 2 2.2208 5.34043 20.9148 19.2021
555 1 -1.1104 0.995193 16.7512 15.1494
559 1 -1.1104 3.90143 14.0142 17.8598
560 1 -1.1104 3.85977 19.4135 18.0318
561 2 2.2208 2.54691 18.1427 19.3455
562 1 -1.1104 3.95735 13.9115 15.1661
564 1 -1.1104 3.90941 19.4947 15.1657
566 2 2.2208 2.48701 15.4259 16.567
567 2 2.2208 2.5026 20.9662 16.5152
568 1 -1.1104 3.88147 16.865 17.8727
569 1 -1.1104 3.93141 16.7683 15.1415
537 1 -1.1104 4.02848 11.2957 20.5186
565 1 -1.1104 4.01465 19.568 20.5809
549 1 -1.1104 6.61095 19.5059 15.0442
531 1 -1.1104 6.90957 11.0244 15.2794
542 1 -1.1104 6.67557 19.6248 17.8171
544 1 -1.1104 1.02652 13.4016 20.5761
548 1 -1.1104 6.68282 14.0759 20.6345
547 1 -1.1104 6.70475 13.8123 14.9081
550 1 -1.1104 6.83697 19.5382 20.7883
611 2 2.2208 11.0352 9.71434 13.6535
9460 2 2.2208 13.7679 21.0466 22.0987
523 2 2.2208 2.65809 12.548 13.6887
541 1 -1.1104 6.83067 13.9928 17.8322
528 1 -1.1104 6.79816 11.2631 17.987
557 1 -1.1104 6.78904 16.8308 15.156
552 1 -1.1104 6.63152 16.8519 17.9779
697 2 2.2208 13.7606 12.5703 13.6963
575 2 2.2208 13.7766 9.69641 16.4825
654 2 2.2208 -0.362329 15.4005 24.8644
577 2 2.2208 10.9068 12.4131 16.6168
578 1 -1.1104 12.4269 11.1586 17.9429
579 2 2.2208 11.0488 9.75972 19.2984
580 1 -1.1104 12.3937 11.1679 15.0624
582 2 2.2208 8.16729 12.45 19.4113
583 2 2.2208 8.27751 9.58258 16.5526
584 1 -1.1104 9.5548 11.0592 17.9685
585 1 -1.1104 9.75996 11.034 15.1969
587 2 2.2208 10.9435 18.0923 16.4199
588 1 -1.1104 12.589 14.0154 18.1009
589 1 -1.1104 12.2496 19.595 17.8673
590 1 -1.1104 12.4499 13.8689 15.0059
592 1 -1.1104 12.5724 19.5246 15.0476
594 1 -1.1104 12.4371 16.8347 18.0642
595 2 2.2208 10.9579 15.2938 19.4254
596 2 2.2208 10.9738 20.9116 19.3137
597 1 -1.1104 12.4884 16.8251 15.1441
599 1 -1.1104 9.60802 13.8273 18.0789
600 1 -1.1104 9.48278 19.4725 17.9793
601 2 2.2208 8.09332 18.1279 19.3362
602 1 -1.1104 9.45102 13.7776 15.131
604 1 -1.1104 9.68181 19.4957 15.1038
606 2 2.2208 8.13616 15.3277 16.5332
607 2 2.2208 8.13622 20.8438 16.4522
608 1 -1.1104 9.55313 16.5424 17.9479
609 1 -1.1104 9.69273 16.6091 15.2237
574 2 2.2208 13.7019 18.1681 19.4778
605 1 -1.1104 9.58637 19.5733 20.7592
656 2 2.2208 -0.285574 20.952 24.8323
586 1 -1.1104 9.61024 11.0276 20.7195
657 2 2.2208 -0.236833 18.0346 22.0814
570 1 -1.1104 4.04384 16.7552 20.7555
556 1 -1.1104 1.27322 16.4676 20.7046
532 1 -1.1104 6.72026 11.0996 20.6247
546 1 -1.1104 1.19271 19.582 20.7124
563 1 -1.1104 3.98159 14.0316 20.6848
686 1 -1.1104 12.3375 11.2014 26.1987
616 1 -1.1104 3.88964 19.5909 23.3564
618 1 -1.1104 3.90658 14.1029 23.6148
620 1 -1.1104 1.15981 19.4737 26.2283
621 1 -1.1104 1.13995 16.7132 26.3265
622 1 -1.1104 1.14165 13.991 26.2512
624 2 2.2208 5.28054 20.9041 24.8894
625 2 2.2208 5.37006 15.2713 24.9971
627 1 -1.1104 1.08866 19.5379 23.486
628 1 -1.1104 1.13509 14.0408 23.4725
629 2 2.2208 5.3516 18.1357 22.0825
630 1 -1.1104 3.9606 19.5318 26.226
631 2 2.2208 2.41585 18.0912 24.8119
632 1 -1.1104 3.98368 16.7218 26.347
633 1 -1.1104 3.94519 13.9051 26.2567
635 1 -1.1104 1.11686 16.765 23.3709
636 1 -1.1104 3.90632 16.8276 23.5632
637 2 2.2208 2.5273 20.879 21.9174
638 2 2.2208 5.30476 12.5517 22.0857
639 1 -1.1104 0.872865 11.3306 23.5318
641 2 2.2208 2.73561 15.3744 22.2199
642 2 2.2208 5.15088 9.76534 25.0341
643 1 -1.1104 1.11067 11.1213 26.3424
645 2 2.2208 2.49946 12.4837 24.8069
646 1 -1.1104 4.09009 11.4625 23.7567
647 1 -1.1104 3.86537 11.16 26.4447
644 1 -1.1104 6.66138 11.2369 26.121
623 1 -1.1104 6.73644 19.5605 23.6575
619 1 -1.1104 6.84456 16.8322 26.467
667 2 2.2208 8.18016 18.1398 24.9864
634 1 -1.1104 6.77464 16.7007 23.5972
626 1 -1.1104 6.67783 13.9784 23.4807
695 2 2.2208 13.8973 12.6279 24.9243
573 2 2.2208 13.7855 12.4608 19.4046
681 1 -1.1104 12.2598 13.9679 23.662
691 2 2.2208 8.09382 15.4422 27.7525
558 1 -1.1104 6.73853 16.7341 20.7789
610 1 -1.1104 9.62902 16.9038 20.6695
593 1 -1.1104 12.3427 19.5552 20.7271
603 1 -1.1104 9.57745 13.9628 20.7578
591 1 -1.1104 12.314 14.0253 20.9561
581 1 -1.1104 12.4468 11.1349 20.6814
598 1 -1.1104 12.3832 16.6924 20.7825
666 1 -1.1104 6.74107 19.5188 26.4404
680 1 -1.1104 12.2309 19.6144 23.5775
617 1 -1.1104 6.85016 14.0686 26.174
640 1 -1.1104 6.87192 11.1642 23.3188
688 2 2.2208 10.8929 18.2597 27.8098
662 2 2.2208 8.08263 21.0414 22.0651
663 2 2.2208 8.13141 15.315 22.1746
682 2 2.2208 10.9442 18.2187 22.2009
672 2 2.2208 10.8345 21.0271 24.9998
652 2 2.2208 5.25136 12.5434 27.7145
660 1 -1.1104 9.66447 16.9556 26.3616
665 1 -1.1104 9.71194 13.808 26.2827
683 2 2.2208 10.9872 12.5789 22.2048
676 1 -1.1104 12.4729 13.951 26.3692
669 1 -1.1104 9.52591 14.0083 23.5531
674 1 -1.1104 12.3721 16.7633 23.599
685 2 2.2208 11.0077 9.77864 24.8386
673 2 2.2208 10.8792 15.3569 24.9572
677 1 -1.1104 9.5102 11.2252 23.4341
679 2 2.2208 8.08408 12.6278 24.8088
684 1 -1.1104 12.4009 11.1251 23.5112
678 2 2.2208 8.1805 9.69859 22.0701
671 1 -1.1104 9.41963 11.1301 26.3698
661 1 -1.1104 9.52849 16.8292 23.4435
664 1 -1.1104 9.5118 19.6229 26.5247
668 1 -1.1104 9.58507 19.5076 23.5911
670 1 -1.1104 12.4059 16.7158 26.3739
675 1 -1.1104 12.2593 19.5574 26.3093
693 2 2.2208 13.7359 15.4448 22.2704
651 2 2.2208 2.45951 9.68824 27.7446
649 2 2.2208 5.30746 18.1602 27.7322
687 2 2.2208 8.14405 20.9666 27.837
692 2 2.2208 13.7413 9.81442 27.7609
690 2 2.2208 10.8407 12.4648 27.72
613 2 2.2208 10.8835 15.2915 13.755
615 2 2.2208 13.8971 18.1741 13.6762
698 2 2.2208 5.32034 23.7148 5.28146
699 2 2.2208 5.29948 29.272 5.19472
700 1 -1.1104 1.04615 25.1881 1.06091
701 1 -1.1104 1.01136 25.1739 3.86367
702 1 -1.1104 1.12679 22.5367 0.812196
703 1 -1.1104 1.08877 27.9325 0.938103
704 2 2.2208 5.33863 26.5334 2.38785
705 1 -1.1104 1.12739 22.2825 3.62965
706 1 -1.1104 1.15815 28.0742 3.84858
707 1 -1.1104 3.84412 25.1532 1.09938
708 2 2.2208 2.53131 23.7847 2.32673
709 2 2.2208 2.44714 29.3574 2.41865
710 1 -1.1104 3.83081 25.1353 3.77631
711 2 2.2208 2.58503 26.5426 5.16933
712 1 -1.1104 4.02626 22.3919 0.93182
713 1 -1.1104 3.87016 28.0204 0.976445
714 1 -1.1104 3.87176 22.3787 3.84237
715 1 -1.1104 3.92495 27.8258 3.80492
716 1 -1.1104 1.08833 30.6866 0.9642
717 1 -1.1104 1.18551 30.8705 3.79875
718 1 -1.1104 1.13196 33.4709 1.10086
719 2 2.2208 5.25122 32.1661 2.4745
720 1 -1.1104 1.2362 33.6428 3.92032
722 1 -1.1104 3.82068 30.6504 1.03577
723 1 -1.1104 3.97209 30.7307 3.80769
724 2 2.2208 2.50195 32.1885 5.25731
725 1 -1.1104 4.0161 33.5549 1.07091
726 1 -1.1104 3.91429 33.5217 3.82598
773 1 -1.1104 1.22121 22.3552 6.66926
755 1 -1.1104 6.76146 30.6728 1.03512
735 1 -1.1104 6.71002 22.4693 3.74309
774 1 -1.1104 1.09655 27.9684 6.68965
782 1 -1.1104 1.0698 33.5607 6.6308
733 1 -1.1104 6.78581 22.3993 1.03801
757 1 -1.1104 6.60942 33.5407 1.01862
771 1 -1.1104 1.16554 25.2582 6.63447
732 1 -1.1104 6.65942 25.2262 3.90324
734 1 -1.1104 6.60484 27.826 0.984597
785 1 -1.1104 3.87603 33.5563 6.39119
779 1 -1.1104 3.98498 27.9275 6.51118
778 1 -1.1104 3.96968 22.2969 6.67921
772 1 -1.1104 6.61613 25.0381 6.88475
756 1 -1.1104 6.68015 30.8218 3.84087
721 1 -1.1104 6.73419 33.5577 3.88364
784 1 -1.1104 3.8308 30.7283 6.59308
780 1 -1.1104 1.03354 30.7685 6.61753
988 2 2.2208 8.03552 32.1769 -0.28684
731 1 -1.1104 6.86256 25.0531 0.946734
736 1 -1.1104 6.61384 27.8888 3.9047
9741 2 2.2208 -0.32104 26.5236 8.0257
737 2 2.2208 11.0236 23.7314 5.34828
738 2 2.2208 10.9333 29.3768 5.25063
739 1 -1.1104 12.3787 25.1593 1.07499
740 1 -1.1104 12.3621 25.226 3.78555
741 1 -1.1104 12.4077 22.3589 1.08408
742 1 -1.1104 12.3257 28.0895 1.15682
743 2 2.2208 10.9817 26.5966 2.4562
744 1 -1.1104 12.4402 22.375 3.84165
745 1 -1.1104 12.2753 27.9261 3.85627
746 1 -1.1104 9.51745 25.257 1.09135
747 2 2.2208 8.17217 23.8157 2.51241
748 2 2.2208 7.99389 29.3755 2.45042
749 1 -1.1104 9.69837 24.9833 3.9019
750 2 2.2208 8.08633 26.507 5.2288
751 1 -1.1104 9.40494 22.4151 1.16065
752 1 -1.1104 9.43327 28.0989 0.956787
753 1 -1.1104 9.43668 22.2694 3.88464
754 1 -1.1104 9.35982 27.8432 3.74209
758 1 -1.1104 12.4353 30.9364 1.10026
759 1 -1.1104 12.2871 30.6791 3.74535
760 1 -1.1104 12.329 33.7234 1.00107
761 2 2.2208 10.973 32.2202 2.48753
762 1 -1.1104 12.3016 33.653 3.73638
763 1 -1.1104 9.48537 30.8394 1.20218
764 1 -1.1104 9.37587 30.6908 3.91721
765 2 2.2208 8.08844 32.1691 5.26392
766 1 -1.1104 9.56373 33.5361 0.943776
767 1 -1.1104 9.59188 33.644 3.69631
829 1 -1.1104 12.2513 33.5475 6.5446
823 1 -1.1104 12.4316 22.2542 6.46812
824 1 -1.1104 12.2219 27.9201 6.6474
830 1 -1.1104 9.51108 30.7977 6.65562
822 1 -1.1104 12.3491 25.1412 6.55139
847 1 -1.1104 9.5716 28.0373 12.1172
9745 2 2.2208 -0.199556 29.2137 5.31809
850 1 -1.1104 12.4015 30.7934 12.233
781 1 -1.1104 6.70344 30.885 6.65573
777 1 -1.1104 3.82166 25.1903 6.53026
775 1 -1.1104 6.82003 22.1421 6.76897
843 2 2.2208 8.16368 29.3851 8.01716
1130 1 -1.1104 0.962391 33.5859 9.49997
786 2 2.2208 5.24998 23.7222 10.9058
787 2 2.2208 5.22892 29.3631 10.9548
788 1 -1.1104 1.12744 25.2062 12.1892
790 1 -1.1104 1.00642 25.0318 9.39221
792 1 -1.1104 1.1032 22.5098 12.1221
793 1 -1.1104 1.03172 28.0405 12.2021
796 2 2.2208 5.26688 26.5754 8.04179
797 1 -1.1104 1.10749 22.2651 9.36566
798 1 -1.1104 1.0406 27.8336 9.39534
801 1 -1.1104 3.92649 25.114 12.341
802 2 2.2208 2.45166 23.7631 8.07049
803 2 2.2208 2.48854 29.3517 8.09732
804 1 -1.1104 3.93433 25.2194 9.44171
805 2 2.2208 2.4427 26.4237 10.7501
806 1 -1.1104 3.92745 22.3745 12.3197
807 1 -1.1104 3.84303 27.8492 12.23
808 1 -1.1104 3.95888 22.5417 9.48222
809 1 -1.1104 3.71859 27.9084 9.31412
810 1 -1.1104 1.15591 30.8746 12.2039
812 1 -1.1104 1.22774 30.8131 9.45845
814 1 -1.1104 1.03363 33.5675 12.2169
816 2 2.2208 5.15331 32.1308 7.92716
817 1 -1.1104 3.76443 33.4803 9.09324
818 1 -1.1104 4.01677 30.859 12.2527