ITEM: TIMESTEP
10000
ITEM: NUMBER OF ATOMS
17910
ITEM: BOX BOUNDS pp pp pp
-3.5421765541878181e-01 2.7694217655418765e+01
-4.3195719440214644e+00 3.3239957194402234e+02
-3.6208439333924053e-01 2.7702084393339447e+01
ITEM: ATOMS id type q x y z
1 2 2.2208 5.18616 1.40059 5.1873
2 1 -1.1104 0.906522 -2.9713 1.01399
3 1 -1.1104 1.02019 2.67782 0.883604
6 1 -1.1104 1.01889 -2.81932 3.81621
7 1 -1.1104 0.976818 2.58572 3.83218
10 1 -1.1104 1.03599 -0.134224 1.04021
12 2 2.2208 5.24684 -1.55522 2.46771
13 2 2.2208 5.27169 4.20806 2.30077
14 1 -1.1104 1.1518 -0.120515 3.93031
16 1 -1.1104 3.7021 -2.95509 1.0231
17 1 -1.1104 3.85776 2.67533 0.92074
18 2 2.2208 2.48812 1.31428 2.38159
19 1 -1.1104 3.7433 -3.00186 3.93333
20 1 -1.1104 3.92885 2.81215 3.81969
21 2 2.2208 2.40641 -1.44615 5.23104
22 2 2.2208 2.35649 4.11267 5.099
23 1 -1.1104 3.86577 -0.14726 0.975096
24 1 -1.1104 3.81298 -0.00128714 3.81131
25 2 2.2208 5.2215 6.94302 5.20355
28 1 -1.1104 1.11112 8.26095 3.68586
30 1 -1.1104 1.11121 5.61207 1.00746
32 1 -1.1104 0.906827 5.37146 3.88073
34 1 -1.1104 3.79323 8.39794 0.988592
35 2 2.2208 2.43063 6.98535 2.28728
36 1 -1.1104 3.99016 8.40345 3.68065
37 1 -1.1104 3.8008 5.60032 0.843957
38 1 -1.1104 3.82258 5.58884 3.75944
9 1 -1.1104 6.63305 2.73278 3.75525
167 2 2.2208 7.96235 -1.526 10.8266
91 1 -1.1104 1.02616 5.52441 6.59964
334 2 2.2208 2.43423 4.14688 -0.52335
8709 2 2.2208 7.96663 -4.37413 2.31523
33 1 -1.1104 6.70435 5.62552 3.6617
11 1 -1.1104 6.6666 -0.281053 1.07276
15 1 -1.1104 6.6113 -0.106844 3.72948
29 1 -1.1104 6.68885 8.32226 3.7096
31 1 -1.1104 6.59633 5.56438 0.838973
27 1 -1.1104 6.64624 8.39144 0.801555
84 1 -1.1104 0.822968 -0.230143 6.66839
43 2 2.2208 -0.45949 6.93872 10.7491
335 2 2.2208 5.12244 6.88323 -0.57467
8707 2 2.2208 5.119 -4.32558 5.22646
85 1 -1.1104 6.46173 -0.0845303 6.58695
5 1 -1.1104 6.51722 2.70277 0.885037
4 1 -1.1104 6.53409 -2.97586 0.884764
8 1 -1.1104 6.6463 -2.88829 3.86374
46 2 2.2208 10.8262 1.18855 5.2408
47 1 -1.1104 12.0869 -2.78744 0.751823
48 1 -1.1104 12.1495 2.71402 1.10963
49 1 -1.1104 12.3264 -2.78225 3.65274
50 1 -1.1104 12.3262 2.65471 3.84316
51 1 -1.1104 12.1336 0.0895054 1.05426
52 2 2.2208 10.7725 -1.53639 2.35164
53 2 2.2208 10.7948 4.00594 2.35326
54 1 -1.1104 12.3474 -0.140415 3.78837
55 1 -1.1104 9.29708 -2.99643 0.92704
56 1 -1.1104 9.26907 2.70103 0.872648
57 2 2.2208 7.95328 1.28947 2.37213
58 1 -1.1104 9.48139 -3.0075 3.74371
59 1 -1.1104 9.42731 2.57824 3.71117
60 2 2.2208 7.96083 -1.49641 5.19794
61 2 2.2208 8.04013 3.99691 5.18231
62 1 -1.1104 9.51293 -0.211964 1.01549
63 1 -1.1104 9.46874 -0.256215 3.92674
64 2 2.2208 10.9148 6.92506 5.20305
65 1 -1.1104 12.2363 8.21431 0.962489
66 1 -1.1104 12.2561 8.35115 3.7338
67 1 -1.1104 12.1382 5.52034 1.0364
68 1 -1.1104 12.3409 5.47435 3.82247
69 1 -1.1104 9.51635 8.30997 1.07071
70 2 2.2208 8.09746 6.96446 2.29071
71 1 -1.1104 9.52148 8.34336 3.8358
72 1 -1.1104 9.32481 5.36663 1.03678
73 1 -1.1104 9.42841 5.28079 3.9441
235 2 2.2208 8.04035 4.12311 -0.430352
99 1 -1.1104 6.46047 2.72058 12.1434
134 2 2.2208 -0.411076 -1.64995 8.08926
168 2 2.2208 7.96053 4.08138 10.8159
241 2 2.2208 10.8443 1.36163 -0.382705
143 1 -1.1104 9.51342 2.68502 6.45634
169 1 -1.1104 9.41972 -0.195073 12.2781
170 1 -1.1104 9.45481 -0.256254 9.37749
86 1 -1.1104 3.79814 -2.98325 6.64928
93 1 -1.1104 3.7845 8.30632 6.49224
80 1 -1.1104 0.927405 -2.97205 6.58266
90 1 -1.1104 6.56538 8.36791 6.59741
88 1 -1.1104 3.69143 -0.0909928 6.46521
87 1 -1.1104 3.92865 2.61694 6.57219
83 1 -1.1104 6.71039 2.70364 6.75525
81 1 -1.1104 1.05747 2.64814 6.68557
89 1 -1.1104 1.05897 8.3926 6.68118
94 1 -1.1104 3.89085 5.48846 6.58251
95 2 2.2208 5.11369 1.48504 10.7079
96 1 -1.1104 1.02721 -2.74789 12.251
97 1 -1.1104 0.979742 2.69123 12.0997
100 1 -1.1104 1.06589 -2.94244 9.51205
101 1 -1.1104 1.00613 2.74348 9.50915
104 1 -1.1104 0.884034 0.0646634 12.0792
106 2 2.2208 5.20411 -1.47296 7.95492
107 2 2.2208 5.30492 4.04464 7.94
108 1 -1.1104 0.917072 -0.10031 9.36097
110 1 -1.1104 3.79069 -2.94362 12.3439
111 1 -1.1104 3.76215 2.62447 12.1138
112 2 2.2208 2.36968 1.24938 7.85355
113 1 -1.1104 3.81676 -2.67309 9.46174
114 1 -1.1104 3.86177 2.81038 9.33657
115 2 2.2208 2.43067 -1.38945 10.7945
116 2 2.2208 2.38462 4.10938 10.7646
117 1 -1.1104 3.87034 -0.170832 12.1895
118 1 -1.1104 3.77866 -0.00840023 9.27706
119 2 2.2208 5.20706 6.86096 10.7628
120 1 -1.1104 0.998133 8.31001 12.0902
122 1 -1.1104 1.01622 8.29448 9.4551
124 1 -1.1104 0.941828 5.44857 12.0626
126 1 -1.1104 1.03056 5.53765 9.38373
128 1 -1.1104 3.83049 8.245 12.1819
129 2 2.2208 2.41989 6.95444 7.93147
130 1 -1.1104 3.86834 8.47572 9.37181
131 1 -1.1104 3.79849 5.42964 12.0487
132 1 -1.1104 3.83128 5.60455 9.14341
8715 2 2.2208 2.40325 -4.30605 7.92809
8716 2 2.2208 5.13687 -4.23342 10.7377
125 1 -1.1104 6.59799 5.46963 12.2379
127 1 -1.1104 6.64415 5.5104 9.54808
98 1 -1.1104 6.55192 -2.8202 12.2836
26 1 -1.1104 0.994533 8.36473 1.01695
44 2 2.2208 13.6153 6.8491 7.93749
78 2 2.2208 13.5983 -1.47888 10.6701
144 1 -1.1104 9.34872 -0.149595 6.64055
45 2 2.2208 13.5812 4.06397 10.8026
138 1 -1.1104 12.2367 5.53653 12.2266
137 1 -1.1104 12.2141 5.43969 9.28929
140 1 -1.1104 12.2407 2.60677 6.54836
142 1 -1.1104 9.48867 -2.96806 6.6463
146 1 -1.1104 12.3226 5.4832 6.52552
147 1 -1.1104 9.4954 8.43043 6.54163
149 1 -1.1104 9.47001 5.67291 6.63945
141 1 -1.1104 12.3117 -0.193533 6.56967
145 1 -1.1104 12.3349 8.23865 6.3638
8712 2 2.2208 10.7171 -4.32545 10.8231
136 1 -1.1104 9.33642 8.30219 12.3075
105 1 -1.1104 6.6112 -0.0890597 12.2256
102 1 -1.1104 6.62464 -2.9671 9.4345
163 1 -1.1104 9.36427 2.70382 12.0498
92 1 -1.1104 6.6725 5.50941 6.52612
109 1 -1.1104 6.57062 0.0301334 9.37114
8713 2 2.2208 7.88695 -4.42244 8.00546
82 1 -1.1104 6.66983 -2.93227 6.65356
164 2 2.2208 7.98937 1.40468 8.08875
79 2 2.2208 13.6641 1.32368 8.07312
139 1 -1.1104 12.2939 -2.91622 6.43473
165 1 -1.1104 9.49808 -2.9988 9.53502
166 1 -1.1104 9.43536 2.52391 9.38803
103 1 -1.1104 6.59128 2.70758 9.36851
121 1 -1.1104 6.5161 8.3385 12.2282
123 1 -1.1104 6.52809 8.32538 9.46697
148 1 -1.1104 9.48713 5.37961 9.30868
152 2 2.2208 8.08864 6.80676 8.07003
151 1 -1.1104 9.36847 8.38452 9.45516
156 1 -1.1104 12.2694 -2.85096 9.3796
155 1 -1.1104 12.2209 2.68827 12.245
150 1 -1.1104 9.38409 5.52991 12.1472
162 1 -1.1104 9.30019 -2.92106 12.1451
161 1 -1.1104 12.1949 -0.00824082 9.45114
154 1 -1.1104 12.047 -2.88957 12.1129
157 1 -1.1104 12.2182 2.68009 9.5872
160 2 2.2208 10.9498 3.96993 7.99972
159 2 2.2208 10.7635 -1.61609 7.96367
158 1 -1.1104 12.1612 -0.126175 12.2293
153 2 2.2208 10.8543 1.28494 10.8888
173 1 -1.1104 12.1902 8.34866 9.34968
172 1 -1.1104 12.2396 8.23196 12.2328
171 2 2.2208 10.8465 6.85713 10.7439
40 2 2.2208 -0.268406 -1.50684 2.32116
76 2 2.2208 13.6132 6.88103 2.41452
42 2 2.2208 -0.424211 4.21125 2.37709
239 2 2.2208 7.97772 -1.59008 -0.462636
292 2 2.2208 10.7865 4.08051 13.5496
182 2 2.2208 5.18502 1.2356 16.4853
183 1 -1.1104 1.0222 -2.91127 17.8836
184 1 -1.1104 0.962582 2.77685 17.9287
187 1 -1.1104 1.09897 -2.77664 14.983
189 1 -1.1104 1.08769 2.8427 14.8764
195 1 -1.1104 1.14656 -0.186952 17.7579
197 2 2.2208 5.13202 -1.6258 19.1881
198 2 2.2208 5.22824 4.06552 19.1349
199 1 -1.1104 1.01647 -0.0789353 14.9005
203 1 -1.1104 3.79584 -2.82944 17.8978
204 1 -1.1104 3.74207 2.63431 18.0077
205 2 2.2208 2.31928 1.29295 19.3352
206 1 -1.1104 3.9335 -3.01664 15.1472
208 1 -1.1104 4.04246 2.70798 15.0999
210 2 2.2208 2.46268 -1.52814 16.3774
211 2 2.2208 2.43375 4.07277 16.3603
212 1 -1.1104 3.77626 -0.154363 17.7991
213 1 -1.1104 3.94756 -0.0815942 14.9755
215 2 2.2208 5.17823 6.94034 16.3016
216 1 -1.1104 1.08307 8.25424 18.0812
218 1 -1.1104 1.02804 8.30463 15.0826
221 1 -1.1104 0.983166 5.46722 17.7771
223 1 -1.1104 1.08427 5.5767 14.9189
227 1 -1.1104 3.95166 8.25815 17.6666
228 2 2.2208 2.64715 6.8325 19.1322
229 1 -1.1104 3.89166 8.30804 14.9834
230 1 -1.1104 3.73584 8.24421 20.5374
231 1 -1.1104 3.78727 5.45167 17.6269
232 1 -1.1104 3.8138 5.43658 14.881
225 1 -1.1104 6.61652 5.45839 15.0198
201 1 -1.1104 6.67586 -0.0852893 14.945
191 1 -1.1104 6.6178 -2.90142 14.9936
8790 2 2.2208 7.99658 -4.30622 24.8744
219 1 -1.1104 6.81551 8.38955 15.0397
8929 2 2.2208 5.21154 -4.41382 16.4488
237 2 2.2208 -0.381904 1.21647 16.3617
214 1 -1.1104 3.795 -0.189834 20.6695
177 2 2.2208 2.3775 6.85227 13.4512
196 1 -1.1104 6.59941 -0.0499523 17.6604
217 1 -1.1104 6.6744 8.55774 17.9163
185 1 -1.1104 6.60324 -2.87447 17.7704
209 1 -1.1104 3.85394 2.54086 20.5505
192 1 -1.1104 6.61512 -2.94236 20.5974
339 2 2.2208 13.553 -1.46942 27.6562
8733 2 2.2208 2.42716 -4.27378 13.6261
179 2 2.2208 5.25909 4.13324 13.7673
193 1 -1.1104 6.66241 2.70315 15.0993
357 1 -1.1104 12.1022 -0.265127 26.2445
186 1 -1.1104 6.54379 2.80355 17.7896
222 1 -1.1104 6.45827 5.78189 17.8981
245 2 2.2208 10.8925 1.27511 16.3337
246 1 -1.1104 12.3216 -2.8882 17.7263
247 1 -1.1104 12.231 2.84718 17.8349
248 1 -1.1104 12.3878 -2.93614 14.8684
250 1 -1.1104 12.221 2.61242 15
252 1 -1.1104 12.262 -0.0207819 17.7279
253 2 2.2208 10.8324 -1.50687 19.0728
254 2 2.2208 10.8274 4.16982 19.1062
255 1 -1.1104 12.2059 -0.25853 15.0192
257 1 -1.1104 9.47114 -2.917 17.7707
258 1 -1.1104 9.34327 2.8236 17.7011
259 2 2.2208 7.99764 1.28884 18.9783
260 1 -1.1104 9.60148 -2.97692 15.0416
262 1 -1.1104 9.47089 2.77769 14.9468
264 2 2.2208 8.02884 -1.55117 16.266
265 2 2.2208 8.06485 4.22516 16.3362
266 1 -1.1104 9.40832 0.00564016 17.6724
267 1 -1.1104 9.45652 -0.150473 14.9653
269 2 2.2208 10.8449 6.94259 16.3256
270 1 -1.1104 12.2669 8.28909 17.733
271 1 -1.1104 12.2122 8.17904 15.0564
273 1 -1.1104 12.3 5.59364 17.8253
274 1 -1.1104 12.1571 5.37599 14.8849
276 1 -1.1104 9.54791 8.37032 17.7446
277 2 2.2208 8.0723 6.94134 19.2374
278 1 -1.1104 9.4851 8.36888 15.0968
280 1 -1.1104 9.45811 5.62937 17.8244
281 1 -1.1104 9.36215 5.51684 14.9353
8892 2 2.2208 10.9091 -4.23276 16.3817
279 1 -1.1104 9.49355 8.30401 20.7112
284 2 2.2208 13.6629 6.9273 19.0877
174 2 2.2208 -0.414304 4.1192 13.6092
287 2 2.2208 13.7173 -1.47508 16.4758
236 2 2.2208 13.7032 1.42772 19.0853
364 2 2.2208 8.1036 3.99721 21.885
240 2 2.2208 13.6304 1.29711 13.5203
289 2 2.2208 7.98833 6.90867 13.5209
290 2 2.2208 7.96743 1.33516 13.6498
8886 2 2.2208 8.00359 -4.3009 19.0581
291 2 2.2208 10.8518 -1.52319 13.5687
224 1 -1.1104 0.979989 5.69856 20.563
200 1 -1.1104 0.967037 -0.0750006 20.6389
207 1 -1.1104 3.80618 -3.11116 20.7183
194 1 -1.1104 6.7338 2.71838 20.4952
226 1 -1.1104 6.58845 5.49986 20.648
202 1 -1.1104 6.63922 0.00767209 20.4244
220 1 -1.1104 6.61628 8.36517 20.5384
190 1 -1.1104 0.986808 2.781 20.558
233 1 -1.1104 3.92611 5.34614 20.4241
188 1 -1.1104 1.02993 -2.93229 20.6606
294 2 2.2208 5.34175 1.25265 21.8979
295 1 -1.1104 0.98981 -2.97407 23.5843
296 1 -1.1104 1.06699 2.73412 23.4373
299 1 -1.1104 0.881539 -2.84735 26.2958
300 1 -1.1104 1.17588 2.68577 26.259
303 1 -1.1104 1.04798 -0.123233 23.406
305 2 2.2208 5.20918 -1.59218 24.8728
306 2 2.2208 5.28616 4.079 24.7128
307 1 -1.1104 1.05235 -0.211776 26.2083
309 1 -1.1104 3.75777 -2.84629 23.4715
310 1 -1.1104 3.82479 2.6213 23.297
311 2 2.2208 2.46676 1.26929 24.7726
312 1 -1.1104 3.76556 -2.9725 26.3246
313 1 -1.1104 3.89823 2.66042 26.1041
314 2 2.2208 2.44956 -1.47651 22.1922
315 2 2.2208 2.4361 4.08796 21.8697
316 1 -1.1104 3.81728 -0.148189 23.5067
317 1 -1.1104 3.81559 -0.128168 26.2555
318 2 2.2208 5.36488 6.98078 22.0489
319 1 -1.1104 0.752181 8.03549 23.445
321 1 -1.1104 0.937953 8.50663 26.2648
323 1 -1.1104 1.00708 5.49564 23.3223
325 1 -1.1104 1.10961 5.44855 26.1674
327 1 -1.1104 3.97738 8.23392 23.4216
328 2 2.2208 2.45644 6.86045 24.5715
329 1 -1.1104 3.72175 8.28733 26.2453
330 1 -1.1104 4.04195 5.47867 23.2548
331 1 -1.1104 3.78914 5.49417 26.0833
365 1 -1.1104 9.40102 -0.255242 23.3815
324 1 -1.1104 6.82613 5.4138 23.4265
302 1 -1.1104 6.78885 2.63178 26.1326
320 1 -1.1104 6.89148 8.26095 23.4155
298 1 -1.1104 6.53413 2.63609 23.3086
308 1 -1.1104 6.62921 -0.0243594 26.3705
326 1 -1.1104 6.6536 5.45841 26.1658
297 1 -1.1104 6.6395 -2.83344 23.4434
301 1 -1.1104 6.50565 -2.89571 26.1664
338 2 2.2208 13.6157 -1.60986 21.927
275 1 -1.1104 12.2292 5.58265 20.5501
268 1 -1.1104 9.46061 -0.224709 20.509
249 1 -1.1104 12.2843 -3.06185 20.565
261 1 -1.1104 9.43693 -2.94909 20.469
282 1 -1.1104 9.41108 5.53509 20.4597
256 1 -1.1104 12.2679 -0.105128 20.6353
272 1 -1.1104 12.2608 8.42187 20.5547
360 2 2.2208 8.05791 1.13862 24.8105
361 1 -1.1104 9.32134 -2.96293 26.1744
337 2 2.2208 13.6247 1.22087 24.899
355 2 2.2208 10.882 -1.58699 24.8236
362 1 -1.1104 9.57864 2.81623 26.1752
363 2 2.2208 8.10001 -1.54562 21.7798
322 1 -1.1104 6.64286 8.4742 26.1112
8787 2 2.2208 10.8885 -4.36024 21.8661
234 2 2.2208 13.6012 4.07018 22.0609
244 1 -1.1104 12.2288 5.472 23.319
243 1 -1.1104 12.3584 5.49877 26.2218
251 1 -1.1104 12.2434 2.64523 20.6119
242 1 -1.1104 9.56949 8.34552 23.523
352 1 -1.1104 12.2321 -3.06686 26.1524
340 2 2.2208 10.8394 6.94766 27.6246
359 1 -1.1104 9.43549 2.70998 23.3046
353 1 -1.1104 12.2118 2.60468 26.3527
358 1 -1.1104 9.50589 -3.02571 23.2425
263 1 -1.1104 9.48305 2.64013 20.5034
345 1 -1.1104 9.54869 5.58929 26.2913
354 1 -1.1104 12.3171 -0.337978 23.3519
341 1 -1.1104 12.393 8.28924 23.3582
333 1 -1.1104 12.2838 8.25558 26.1546
304 1 -1.1104 6.70961 -0.0976138 23.4266
346 1 -1.1104 9.5397 5.31257 23.3504
356 2 2.2208 10.9127 4.04523 24.8203
351 1 -1.1104 12.2825 2.57244 23.4981
350 1 -1.1104 12.3895 -3.05829 23.3669
349 2 2.2208 10.8253 1.25596 22.0015
348 2 2.2208 8.15848 6.96873 24.9267
347 1 -1.1104 9.55045 8.4418 26.3399
367 2 2.2208 10.8877 6.89341 21.9697
366 1 -1.1104 9.34178 -0.0605038 26.171
286 2 2.2208 13.5487 6.92456 13.5731
332 2 2.2208 5.19153 1.2685 27.629
8751 2 2.2208 10.8184 -4.37577 27.5892
180 2 2.2208 2.40195 -1.61916 27.7196
176 2 2.2208 5.20425 -1.49379 13.6352
178 2 2.2208 2.5112 1.28923 13.5044
288 2 2.2208 13.7194 4.0393 27.5648
368 2 2.2208 5.29583 12.6123 5.14205
369 1 -1.1104 1.00737 11.1276 1.07717
373 2 2.2208 5.32773 9.74691 2.33173
374 1 -1.1104 0.993535 11.1119 3.78682
376 2 2.2208 2.4027 12.5398 2.35414
377 2 2.2208 2.44658 9.76667 5.18602
378 1 -1.1104 3.65681 11.2452 0.98527
380 1 -1.1104 3.83585 11.2599 3.75427
381 2 2.2208 5.29144 18.2704 5.09975
382 1 -1.1104 1.08834 13.8851 0.99659
384 1 -1.1104 1.00348 19.4712 1.06757
388 1 -1.1104 1.05593 13.9421 3.71228
389 1 -1.1104 0.950192 19.5277 3.80339
391 1 -1.1104 1.18787 16.5656 1.03881
394 2 2.2208 5.22827 15.2838 2.31599
395 2 2.2208 5.29578 20.9655 2.35621
396 1 -1.1104 0.822829 16.5762 3.84774
398 1 -1.1104 3.79688 13.9781 0.977699
400 1 -1.1104 3.77928 19.6755 1.00332
402 2 2.2208 2.34568 18.1472 2.52071
403 1 -1.1104 3.8688 14.0147 3.85348
404 1 -1.1104 3.86872 19.5389 3.91898
405 2 2.2208 2.37836 15.2484 5.22555
406 2 2.2208 2.41154 20.923 5.28066
407 1 -1.1104 3.82724 16.8441 0.904537
409 1 -1.1104 3.83655 16.7323 3.67193
9408 2 2.2208 -0.393589 15.4133 7.99857
427 1 -1.1104 6.66655 16.7527 0.960343
648 2 2.2208 2.39755 21.0077 -0.417733
426 1 -1.1104 6.73407 19.5892 3.69624
392 1 -1.1104 0.875654 16.8454 6.53305
651 2 2.2208 2.34874 9.78044 -0.454318
9406 2 2.2208 -0.351351 20.8508 8.12132
385 1 -1.1104 6.66224 14.0427 1.04254
370 1 -1.1104 1.00102 11.2072 6.70932
470 1 -1.1104 1.05962 19.4567 6.77899
650 2 2.2208 2.34043 15.3842 -0.467084
516 2 2.2208 13.6023 15.3084 5.25493
425 1 -1.1104 6.68109 19.5988 0.984759
390 1 -1.1104 6.63698 14.112 3.73794
9262 2 2.2208 13.6582 20.9039 5.35135
371 1 -1.1104 6.59799 11.1451 1.10016
375 1 -1.1104 6.65003 11.1561 3.82204
397 1 -1.1104 6.71417 16.897 3.84221
415 2 2.2208 10.8404 12.584 5.14684
416 1 -1.1104 12.2601 11.0918 1.0332
418 2 2.2208 10.8436 9.74235 2.42334
419 1 -1.1104 12.188 11.1088 3.71507
420 2 2.2208 7.96546 12.6155 2.40006
421 2 2.2208 8.02897 9.68882 5.13549
422 1 -1.1104 9.44631 11.2103 0.971031
424 1 -1.1104 9.36656 11.2785 3.78582
428 2 2.2208 10.7722 18.263 5.26524
429 1 -1.1104 12.1744 13.9585 1.00617
431 1 -1.1104 12.2703 19.616 0.994457
433 1 -1.1104 12.1476 13.8894 3.66483
434 1 -1.1104 12.3031 19.5629 3.9316
435 1 -1.1104 12.21 16.755 1.00062
437 2 2.2208 10.8076 15.3592 2.4221
438 2 2.2208 10.9171 21.0217 2.36055
439 1 -1.1104 12.1941 16.778 3.88077
440 1 -1.1104 9.34709 14.1234 0.897021
442 1 -1.1104 9.55125 19.6827 0.788687
444 2 2.2208 8.14221 18.1799 2.31705
445 1 -1.1104 9.35038 13.9444 3.79402
446 1 -1.1104 9.44211 19.4499 3.7286
447 2 2.2208 8.03724 15.454 5.27488
448 2 2.2208 8.03207 20.8743 5.16944
449 1 -1.1104 9.47609 16.7971 0.946645
451 1 -1.1104 9.54258 16.7443 3.87386
9447 2 2.2208 13.6814 21.0151 -0.406066
441 1 -1.1104 9.43708 14.0087 6.70281
687 2 2.2208 8.06587 21.0583 -0.408474
518 2 2.2208 13.5569 9.65407 10.8654
423 1 -1.1104 9.53491 11.2141 6.76692
430 1 -1.1104 12.2211 13.9374 6.50317
436 1 -1.1104 12.2128 16.8421 6.71558
399 1 -1.1104 3.74118 13.9639 6.58568
401 1 -1.1104 3.92755 19.5021 6.70656
9407 2 2.2208 -0.469683 17.998 10.868
379 1 -1.1104 3.81492 11.1996 6.5593
383 1 -1.1104 1.01091 13.9368 6.63982
408 1 -1.1104 3.75385 16.8278 6.62636
454 1 -1.1104 3.8436 19.4554 12.3186
455 1 -1.1104 3.8087 13.8703 12.1678
459 1 -1.1104 1.06453 19.4901 9.75576
460 1 -1.1104 1.00813 16.7258 9.44724
461 2 2.2208 5.29395 20.8818 8.11596
462 1 -1.1104 1.15105 14.0516 9.33627
463 2 2.2208 5.18678 15.5042 7.99375
466 1 -1.1104 1.05855 19.6336 12.4342
467 1 -1.1104 0.967005 13.864 12.3425
468 2 2.2208 5.2357 18.1775 10.8099
469 1 -1.1104 3.72051 19.6021 9.49658
471 2 2.2208 2.43984 18.1212 8.09308
472 1 -1.1104 3.74739 16.7955 9.39713
473 1 -1.1104 3.95776 13.8871 9.43183
475 1 -1.1104 1.04471 16.6578 12.1482
476 1 -1.1104 3.83263 16.5544 12.3098
477 2 2.2208 2.34211 20.9843 11.0207
478 2 2.2208 5.20381 12.5447 10.9029
479 1 -1.1104 1.17474 11.0096 12.2035
481 2 2.2208 2.53775 15.3618 10.7721
482 2 2.2208 5.12263 9.78651 8.04752
483 1 -1.1104 0.956992 11.0735 9.44921
485 2 2.2208 2.48841 12.6191 8.00745
486 2 2.2208 2.457 9.63704 10.9349
487 1 -1.1104 3.91567 11.0799 12.171
488 1 -1.1104 3.71531 11.2959 9.37802
387 1 -1.1104 6.76152 19.6814 6.66155
464 1 -1.1104 6.44105 19.6017 12.1691
411 2 2.2208 -0.363003 9.77584 2.41137
694 2 2.2208 13.6507 15.4535 -0.378562
453 2 2.2208 13.6758 12.5363 2.39897
490 2 2.2208 10.7554 9.88468 8.01457
489 1 -1.1104 12.2691 11.1722 9.37752
495 2 2.2208 8.10822 15.3133 10.9102
393 1 -1.1104 6.65094 16.7814 6.78234
372 1 -1.1104 6.68686 11.1365 6.70707
474 1 -1.1104 6.82329 16.6371 12.1401
443 1 -1.1104 9.48375 19.615 6.62057
417 1 -1.1104 12.3627 11.1766 6.52856
450 1 -1.1104 9.4182 16.7449 6.53928
503 1 -1.1104 9.46657 11.1856 9.51403
512 1 -1.1104 12.2039 13.8785 12.2303
513 2 2.2208 10.776 18.2349 10.8441
514 2 2.2208 10.8087 12.602 10.9131
386 1 -1.1104 6.5225 13.9291 6.56388
480 1 -1.1104 6.72008 11.15 12.425
456 1 -1.1104 6.62881 19.5931 9.43512
458 1 -1.1104 6.58137 13.8792 9.40941
457 1 -1.1104 6.55434 16.756 9.58958
465 1 -1.1104 6.71485 13.8452 12.078
510 2 2.2208 8.01674 12.6536 8.09968
493 1 -1.1104 9.69289 16.9178 12.2814
511 1 -1.1104 12.1002 19.5126 12.3482
507 1 -1.1104 12.3295 19.5997 9.45163
492 1 -1.1104 9.51591 16.8094 9.39212
491 1 -1.1104 12.1492 11.0864 12.2252
502 2 2.2208 10.7848 21.03 8.01767
506 1 -1.1104 9.48119 11.1235 12.4063
501 1 -1.1104 12.2945 16.8846 9.61646
509 2 2.2208 8.008 9.78721 10.9019
500 1 -1.1104 9.50196 13.9755 12.234
432 1 -1.1104 12.2486 19.4266 6.75652
508 1 -1.1104 12.1633 13.9584 9.45756
499 1 -1.1104 9.22751 19.6172 12.3852
494 2 2.2208 7.97263 21.0654 11.0037
505 1 -1.1104 12.4914 16.7754 12.2406
498 2 2.2208 8.04734 18.1807 8.11604
497 1 -1.1104 9.43639 13.9629 9.4792
484 1 -1.1104 6.48001 11.2086 9.45583
496 1 -1.1104 9.45145 19.6197 9.59485
504 2 2.2208 10.8665 15.2973 8.02157
691 2 2.2208 8.0396 15.3629 -0.490474
576 2 2.2208 8.10655 12.5018 13.7545
525 2 2.2208 -0.510731 18.2852 -0.367694
690 2 2.2208 10.9069 12.51 -0.33249
526 2 2.2208 5.30662 12.521 16.5467
527 1 -1.1104 1.05561 11.0142 18.2415
529 2 2.2208 5.12761 9.6645 19.3221
530 1 -1.1104 1.16457 11.1165 15.3111
533 2 2.2208 2.59436 12.7445 19.2097
534 2 2.2208 2.54072 9.70161 16.4399
535 1 -1.1104 3.94779 10.9672 17.813
536 1 -1.1104 3.8648 11.0839 15.0677
537 1 -1.1104 3.97469 11.368 20.5689
538 2 2.2208 5.39414 18.0695 16.4785
539 1 -1.1104 0.947922 13.9653 17.8878
540 1 -1.1104 0.997042 19.551 18.017
543 1 -1.1104 1.03657 13.8075 15.1652
545 1 -1.1104 1.03424 19.4535 15.1973
551 1 -1.1104 1.12405 16.6272 17.92
553 2 2.2208 5.21894 15.3716 19.1894
554 2 2.2208 5.30569 21.0062 19.266
555 1 -1.1104 1.13312 16.6533 15.1349
559 1 -1.1104 3.97966 13.946 17.8788
560 1 -1.1104 3.75077 19.59 17.7214
561 2 2.2208 2.47899 18.2976 19.2386
562 1 -1.1104 3.90466 13.8846 14.9994
564 1 -1.1104 3.84352 19.4007 15.097
566 2 2.2208 2.49628 15.3793 16.4411
567 2 2.2208 2.4364 20.9232 16.4324
568 1 -1.1104 3.92986 16.8436 17.9007
569 1 -1.1104 3.87803 16.7099 15.0777
547 1 -1.1104 6.73914 13.9115 14.9729
546 1 -1.1104 0.98824 19.4544 20.6743
541 1 -1.1104 6.56984 14.0046 17.93
552 1 -1.1104 6.83194 16.8239 17.7473
9469 2 2.2208 -0.411622 12.5357 16.4731
523 2 2.2208 2.39586 12.4619 13.6948
689 2 2.2208 8.02054 9.85759 27.5932
521 2 2.2208 5.39489 9.7766 13.6025
531 1 -1.1104 6.64075 11.1329 15.1369
542 1 -1.1104 6.75971 19.5625 17.901
556 1 -1.1104 1.03578 16.6723 20.6212
563 1 -1.1104 3.84645 14.1795 20.6112
565 1 -1.1104 3.82331 19.536 20.6901
550 1 -1.1104 6.66193 19.7254 20.6097
549 1 -1.1104 6.67424 19.5151 15.16
557 1 -1.1104 6.56496 16.7847 14.8668
9465 2 2.2208 13.6363 20.9764 16.5621
655 2 2.2208 13.7384 15.3573 16.4784
603 1 -1.1104 9.253 14.1748 20.7027
528 1 -1.1104 6.66045 11.1201 17.8833
577 2 2.2208 10.901 12.5674 16.46
578 1 -1.1104 12.2485 11.1483 17.8352
579 2 2.2208 10.8421 9.7691 19.2205
580 1 -1.1104 12.2244 11.0793 15.114
582 2 2.2208 8.0072 12.5374 19.3599
583 2 2.2208 8.08043 9.7154 16.443
584 1 -1.1104 9.45825 11.3161 17.9494
585 1 -1.1104 9.49409 11.127 15.1327
587 2 2.2208 10.8911 18.1936 16.5584
588 1 -1.1104 12.2239 13.9479 17.947
589 1 -1.1104 12.3459 19.4735 17.789
590 1 -1.1104 12.4234 13.9954 15.1364
592 1 -1.1104 12.1059 19.5444 15.1472
594 1 -1.1104 12.2283 16.6904 17.9284
595 2 2.2208 10.714 15.2991 19.2964
596 2 2.2208 10.8029 21.0341 19.4045
597 1 -1.1104 12.3917 16.7704 15.0587
599 1 -1.1104 9.3081 14.0855 17.8188
600 1 -1.1104 9.66558 19.5648 18.0516
601 2 2.2208 8.05491 18.3008 19.2744
602 1 -1.1104 9.56966 14.0323 15.0696
604 1 -1.1104 9.4419 19.5374 15.1506
606 2 2.2208 8.04639 15.3706 16.4355
607 2 2.2208 8.14509 20.9794 16.3654
608 1 -1.1104 9.50679 16.7645 17.7884
609 1 -1.1104 9.52472 16.8637 15.0023
605 1 -1.1104 9.39156 19.6201 20.769
573 2 2.2208 13.6085 12.7576 19.3858
613 2 2.2208 10.9763 15.4506 13.6432
558 1 -1.1104 6.69766 16.9401 20.5464
532 1 -1.1104 6.7671 11.2917 20.8391
612 2 2.2208 10.7196 20.9833 13.7267
614 2 2.2208 7.98851 18.0246 13.6244
697 2 2.2208 13.5986 12.5088 13.6769
611 2 2.2208 10.7376 9.77402 13.6729
570 1 -1.1104 3.89779 16.765 20.5439
544 1 -1.1104 1.12034 13.7026 20.693
616 1 -1.1104 3.84387 19.6376 23.4295
618 1 -1.1104 3.90954 13.9999 23.3016
620 1 -1.1104 0.891455 19.6066 26.4141
621 1 -1.1104 0.907384 16.8901 26.4132
622 1 -1.1104 1.022 14.0131 26.2996
624 2 2.2208 5.26392 20.9805 24.8905
625 2 2.2208 5.32338 15.214 24.757
627 1 -1.1104 0.942979 19.5967 23.532
628 1 -1.1104 0.910147 13.9892 23.4511
629 2 2.2208 5.30565 18.1965 22.122
630 1 -1.1104 3.86673 19.5552 26.3835
631 2 2.2208 2.53142 18.2156 24.8677
632 1 -1.1104 3.82131 16.828 26.2336
633 1 -1.1104 3.73682 14.1067 26.1768
635 1 -1.1104 1.00577 16.6884 23.529
636 1 -1.1104 3.79868 16.8351 23.3735
637 2 2.2208 2.43439 20.8692 21.9791
638 2 2.2208 5.2499 12.5819 22.0206
639 1 -1.1104 0.777567 11.2449 23.5477
641 2 2.2208 2.55852 15.454 22.0087
642 2 2.2208 5.18713 9.77941 24.8573
643 1 -1.1104 1.18475 11.315 26.274
645 2 2.2208 2.43851 12.5838 24.7433
646 1 -1.1104 3.94772 11.2179 23.6222
647 1 -1.1104 3.82374 11.126 26.2463
666 1 -1.1104 6.60757 19.5911 26.0791
644 1 -1.1104 6.64349 11.2978 26.3803
626 1 -1.1104 6.72451 13.9964 23.3308
617 1 -1.1104 6.63006 13.9884 26.2617
548 1 -1.1104 6.61139 14.0442 20.6541
619 1 -1.1104 6.54987 16.6945 26.2979
652 2 2.2208 5.11475 12.665 27.6337
571 2 2.2208 13.6476 9.73111 22.0002
673 2 2.2208 10.8565 15.381 24.9116
685 2 2.2208 10.8124 9.71738 24.8685
683 2 2.2208 10.8329 12.502 22.132
581 1 -1.1104 12.128 11.2603 20.6719
586 1 -1.1104 9.4932 11.2527 20.7548
591 1 -1.1104 12.0719 14.0332 20.6594
598 1 -1.1104 12.2948 16.7503 20.7503
686 1 -1.1104 12.0797 11.1219 26.2378
680 1 -1.1104 12.3893 19.5444 23.5333
634 1 -1.1104 6.48304 16.7926 23.5101
677 1 -1.1104 9.49879 11.1041 23.5163
679 2 2.2208 8.11054 12.5811 24.9539
662 2 2.2208 7.94988 21.1359 22.0278
661 1 -1.1104 9.26202 16.7281 23.4342
623 1 -1.1104 6.75972 19.4825 23.3987
672 2 2.2208 10.8863 20.9084 24.7762
682 2 2.2208 10.8121 18.2901 22.1501
681 1 -1.1104 12.2483 13.9302 23.557
678 2 2.2208 8.14966 9.79761 22.139
684 1 -1.1104 12.2956 11.14 23.4407
660 1 -1.1104 9.39824 16.7274 26.2347
670 1 -1.1104 12.2738 16.8151 26.2609
610 1 -1.1104 9.56293 16.8757 20.7443
593 1 -1.1104 12.0682 19.7633 20.6098
640 1 -1.1104 6.77527 11.2119 23.513
663 2 2.2208 8.00387 15.4695 22.0357
669 1 -1.1104 9.47234 14.0052 23.4463
668 1 -1.1104 9.51472 19.5879 23.5149
667 2 2.2208 8.01433 18.0929 24.862
665 1 -1.1104 9.53959 13.8708 26.4383
676 1 -1.1104 12.2565 13.9115 26.3197
664 1 -1.1104 9.49485 19.59 26.1352
675 1 -1.1104 12.3386 19.6928 26.2127
671 1 -1.1104 9.35622 11.0917 26.1724
674 1 -1.1104 12.2005 16.942 23.6597
649 2 2.2208 5.24733 18.1845 27.7049
688 2 2.2208 10.9436 18.2277 27.5147
520 2 2.2208 2.45151 18.1007 13.7369
572 2 2.2208 5.25089 20.9359 13.8222
524 2 2.2208 5.17529 15.2756 13.6996
9416 2 2.2208 -0.301423 15.3183 13.7445
692 2 2.2208 13.5133 9.65697 27.6068
698 2 2.2208 5.18527 23.6594 5.2579
699 2 2.2208 5.2416 29.218 5.22014
700 1 -1.1104 1.13365 25.1903 1.08833
701 1 -1.1104 1.02635 25.2499 3.92768
702 1 -1.1104 1.00184 22.3013 1.16094
703 1 -1.1104 0.890609 27.9619 1.11823
704 2 2.2208 5.30897 26.6022 2.42399
705 1 -1.1104 1.04952 22.5548 3.88265
706 1 -1.1104 0.957413 28.1688 3.86417
707 1 -1.1104 4.0044 25.2372 1.05042
708 2 2.2208 2.47447 23.8617 2.51909
709 2 2.2208 2.47111 29.3811 2.44414
710 1 -1.1104 3.92352 25.1967 3.91422
711 2 2.2208 2.45719 26.6241 5.38654
712 1 -1.1104 3.74738 22.5019 1.16355
713 1 -1.1104 3.82158 28.1578 1.04277
714 1 -1.1104 3.92858 22.458 3.84432
715 1 -1.1104 3.85548 27.8993 3.7666
716 1 -1.1104 1.08209 30.7962 1.17215
717 1 -1.1104 1.00652 30.9004 4.02962
718 1 -1.1104 1.02678 33.57 1.1666
719 2 2.2208 5.12955 32.295 2.48501
720 1 -1.1104 1.15573 33.6394 3.75194
722 1 -1.1104 3.7886 30.8541 1.04487
723 1 -1.1104 3.75715 30.7906 3.89533
724 2 2.2208 2.50813 32.2911 5.43817
725 1 -1.1104 3.76149 33.7833 1.00615
726 1 -1.1104 3.86362 33.6167 3.97789
732 1 -1.1104 6.58158 25.1464 3.82037
780 1 -1.1104 0.975329 30.9153 6.86084
784 1 -1.1104 3.74656 30.818 6.8669
771 1 -1.1104 1.05091 25.2255 6.73563
733 1 -1.1104 6.62038 22.4007 0.927956
735 1 -1.1104 6.74831 22.3474 3.74266
731 1 -1.1104 6.75231 25.2412 1.03072
774 1 -1.1104 1.10543 28.1319 6.79518
776 1 -1.1104 6.65642 27.9019 6.54108
781 1 -1.1104 6.62962 30.7074 6.44202
721 1 -1.1104 6.60739 33.5428 3.87961
756 1 -1.1104 6.47712 30.8626 3.82338
757 1 -1.1104 6.46029 33.6727 1.05767
736 1 -1.1104 6.73094 28.0054 3.72696
734 1 -1.1104 6.77653 28.0909 0.908976
9610 2 2.2208 13.557 32.1439 5.37526
9747 2 2.2208 13.6047 23.8174 2.39625
755 1 -1.1104 6.69274 30.8088 0.981095
737 2 2.2208 10.8727 23.7437 5.22493
738 2 2.2208 10.7878 29.3816 5.35679
739 1 -1.1104 12.2836 25.1811 1.16156
740 1 -1.1104 12.2155 25.1053 3.91827
741 1 -1.1104 12.2346 22.446 0.900081
742 1 -1.1104 12.2187 27.9514 1.15088
743 2 2.2208 10.8396 26.613 2.57639
744 1 -1.1104 12.1844 22.4708 3.68801
745 1 -1.1104 12.2759 28.0101 3.99238
746 1 -1.1104 9.56249 25.1327 1.02917
747 2 2.2208 8.10373 23.768 2.48015
748 2 2.2208 8.16297 29.3389 2.43574
749 1 -1.1104 9.43606 25.1257 3.93607
750 2 2.2208 8.01508 26.5009 5.30479
751 1 -1.1104 9.44345 22.4406 1.05742
752 1 -1.1104 9.47809 27.8685 1.14765
753 1 -1.1104 9.48103 22.1872 3.80667
754 1 -1.1104 9.35433 27.9282 3.9698
758 1 -1.1104 12.2216 30.7882 1.08899
759 1 -1.1104 12.1481 30.7895 3.95497
760 1 -1.1104 12.1761 33.5223 1.08024
761 2 2.2208 10.8752 32.2251 2.49133
762 1 -1.1104 12.2075 33.543 3.83879
763 1 -1.1104 9.49781 30.7377 1.05895
764 1 -1.1104 9.42195 30.9004 3.84175
765 2 2.2208 8.00921 32.2217 5.19807
766 1 -1.1104 9.34954 33.5297 0.973362
767 1 -1.1104 9.36549 33.6332 3.68053
991 2 2.2208 10.8298 23.8126 -0.325398
831 1 -1.1104 9.38106 33.6522 6.54159
830 1 -1.1104 9.47558 30.7976 6.77722
822 1 -1.1104 12.2754 25.1665 6.60508
824 1 -1.1104 12.2451 28.0367 6.64654
782 1 -1.1104 1.02566 33.7838 6.6544
777 1 -1.1104 3.80345 25.0864 6.77639
778 1 -1.1104 3.7489 22.1579 6.66044
779 1 -1.1104 3.99479 27.8806 6.71436
773 1 -1.1104 1.03922 22.4203 6.66397
785 1 -1.1104 3.84435 33.5854 6.89505
786 2 2.2208 5.24148 23.7921 10.8172
787 2 2.2208 5.30513 29.4289 10.8147
788 1 -1.1104 1.13753 25.248 12.34
790 1 -1.1104 1.02803 25.1023 9.47521
792 1 -1.1104 0.954918 22.4352 12.2822
793 1 -1.1104 1.0518 27.9814 12.3257
796 2 2.2208 5.17556 26.5417 8.15459
797 1 -1.1104 1.05591 22.2464 9.33812
798 1 -1.1104 1.03853 28.126 9.58669
801 1 -1.1104 3.87685 25.1148 12.2178
802 2 2.2208 2.44967 23.6711 8.08656
803 2 2.2208 2.368 29.5326 8.23486
804 1 -1.1104 3.80767 25.3328 9.57761
805 2 2.2208 2.37504 26.6121 10.9755
806 1 -1.1104 3.86479 22.3387 12.254
807 1 -1.1104 3.787 27.8352 12.3534
808 1 -1.1104 3.97907 22.3939 9.35813
809 1 -1.1104 3.87704 28.1381 9.51428
810 1 -1.1104 0.969107 30.909 12.4194
812 1 -1.1104 0.983375 30.9631 9.76788
814 1 -1.1104 0.948464 33.6126 12.2539
816 2 2.2208 5.30224 32.1275 7.89702
817 1 -1.1104 1.4375 33.6668 9.41966
818 1 -1.1104 3.7978 30.6635 12.13
819 1 -1.1104 3.78615 31.2601 9.40587
820 2 2.2208 2.35315 32.23 11.0533