ITEM: TIMESTEP
60000
ITEM: NUMBER OF ATOMS
17910
ITEM: BOX BOUNDS pp pp pp
-3.5430518862839189e-01 2.7694305188628487e+01
-4.3947984819405210e+00 3.3247479848194848e+02
-3.6027792496389260e-01 2.7700277924963206e+01
ITEM: ATOMS id type q x y z
1 2 2.2208 5.23155 1.15838 5.27085
2 1 -1.1104 0.938506 -3.0445 1.07485
3 1 -1.1104 0.892596 2.50516 1.18223
6 1 -1.1104 0.962561 -2.9317 3.77298
7 1 -1.1104 1.01026 2.62108 3.80662
10 1 -1.1104 1.04968 -0.326657 1.15103
12 2 2.2208 5.1594 -1.6244 2.57256
13 2 2.2208 5.21331 4.07903 2.60057
14 1 -1.1104 0.963981 -0.192022 3.874
16 1 -1.1104 3.89703 -2.92947 1.01267
17 1 -1.1104 3.74765 2.66515 1.26595
18 2 2.2208 2.38047 1.23232 2.51902
19 1 -1.1104 3.72888 -2.85552 4.01536
20 1 -1.1104 3.82403 2.53048 4.01386
21 2 2.2208 2.41315 -1.50464 5.28412
22 2 2.2208 2.31166 4.06597 5.31886
23 1 -1.1104 3.92909 -0.333626 1.13447
24 1 -1.1104 3.77495 -0.197737 3.99499
25 2 2.2208 5.16638 6.80461 5.37981
28 1 -1.1104 1.02531 8.30889 3.86766
30 1 -1.1104 1.0955 5.38157 1.14977
32 1 -1.1104 0.794072 5.42444 3.89383
34 1 -1.1104 3.80978 8.25176 1.0393
35 2 2.2208 2.35908 6.91089 2.47902
37 1 -1.1104 3.81203 5.56868 1.12034
38 1 -1.1104 3.76373 5.40102 3.87226
26 1 -1.1104 1.12898 8.32289 1.09687
36 1 -1.1104 3.93398 8.09245 3.98771
11 1 -1.1104 6.50097 -0.239716 1.11327
15 1 -1.1104 6.65093 -0.244391 3.88978
41 2 2.2208 -0.359568 1.22347 5.23058
86 1 -1.1104 3.84005 -2.99243 6.68119
39 2 2.2208 -0.538841 6.82249 5.24476
31 1 -1.1104 6.612 5.3009 1.03314
33 1 -1.1104 6.56346 5.3601 3.91011
27 1 -1.1104 6.55421 8.10852 1.28007
29 1 -1.1104 6.68393 8.29458 4.00105
9 1 -1.1104 6.62936 2.64885 3.90869
5 1 -1.1104 6.5574 2.56482 1.12466
91 1 -1.1104 0.928792 5.41679 6.69355
93 1 -1.1104 3.74221 8.31365 6.77902
84 1 -1.1104 0.958919 -0.281209 6.61731
82 1 -1.1104 6.68463 -3.03945 6.78761
335 2 2.2208 5.26366 6.72374 -0.280046
180 2 2.2208 2.43793 -1.72543 -0.296662
332 2 2.2208 5.27297 1.10281 -0.261834
8 1 -1.1104 6.49108 -3.15907 3.88201
74 2 2.2208 13.6361 1.1192 2.43294
4 1 -1.1104 6.63848 -2.93404 0.973663
241 2 2.2208 10.7556 1.13567 -0.25366
46 2 2.2208 10.9469 1.15401 5.27001
47 1 -1.1104 12.1811 -3.00052 1.16698
48 1 -1.1104 12.3081 2.62729 1.13127
49 1 -1.1104 12.3149 -2.99078 3.9478
50 1 -1.1104 12.2168 2.57264 3.89801
51 1 -1.1104 12.1865 -0.146063 1.07973
52 2 2.2208 10.8479 -1.6135 2.49802
53 2 2.2208 10.8548 4.02447 2.50391
54 1 -1.1104 12.3326 -0.135673 3.97139
55 1 -1.1104 9.42875 -3.00414 1.24347
56 1 -1.1104 9.53742 2.55261 1.19852
57 2 2.2208 8.05749 1.16818 2.63765
58 1 -1.1104 9.48277 -2.87942 3.91302
59 1 -1.1104 9.27667 2.60293 3.8493
60 2 2.2208 8.00154 -1.67365 5.43939
61 2 2.2208 8.01285 3.97172 5.33189
62 1 -1.1104 9.35992 -0.301944 1.25111
63 1 -1.1104 9.42282 -0.236221 3.95109
64 2 2.2208 10.7336 6.81316 5.4119
66 1 -1.1104 12.2524 8.31802 3.86999
67 1 -1.1104 12.1208 5.45497 1.09134
68 1 -1.1104 12.1847 5.38961 3.8383
69 1 -1.1104 9.35021 8.04244 1.05963
70 2 2.2208 7.9433 6.77848 2.50734
71 1 -1.1104 9.45242 8.17081 3.8583
72 1 -1.1104 9.29549 5.2753 1.16388
73 1 -1.1104 9.34837 5.36305 4.02056
65 1 -1.1104 12.136 8.27681 1.01486
8714 2 2.2208 13.6244 -4.38486 2.62849
141 1 -1.1104 12.3242 -0.279231 6.61151
92 1 -1.1104 6.72195 5.46919 6.70772
8710 2 2.2208 10.8104 -4.37766 5.217
75 2 2.2208 13.6988 -1.65456 5.37468
76 2 2.2208 13.5337 6.75852 2.53807
142 1 -1.1104 9.40424 -3.07412 6.65075
340 2 2.2208 10.7492 6.73833 -0.347287
94 1 -1.1104 3.6374 5.49311 6.68326
87 1 -1.1104 3.97084 2.62285 6.63654
88 1 -1.1104 3.78871 -0.192917 6.65854
90 1 -1.1104 6.64397 8.05374 6.80269
83 1 -1.1104 6.76796 2.584 6.66962
89 1 -1.1104 0.913582 8.21646 6.70064
81 1 -1.1104 1.03985 2.56014 6.65549
80 1 -1.1104 1.00298 -3.05049 6.66157
122 1 -1.1104 1.04571 8.12053 9.45803
95 2 2.2208 5.18375 1.15995 10.9545
96 1 -1.1104 0.991546 -3.09413 12.205
97 1 -1.1104 1.02123 2.6031 12.366
100 1 -1.1104 1.0522 -3.06891 9.42513
101 1 -1.1104 0.923094 2.4522 9.51398
104 1 -1.1104 1.06416 -0.211344 12.3078
106 2 2.2208 5.16872 -1.57086 8.03521
107 2 2.2208 5.19828 4.02089 8.1689
108 1 -1.1104 0.957068 -0.210298 9.45518
110 1 -1.1104 3.65734 -3.15332 12.2474
111 1 -1.1104 3.78903 2.62559 12.385
112 2 2.2208 2.33585 1.16957 8.09208
113 1 -1.1104 3.87044 -2.92904 9.53241
114 1 -1.1104 3.67036 2.58889 9.54351
115 2 2.2208 2.38412 -1.70559 10.9394
116 2 2.2208 2.40579 4.05968 10.9817
117 1 -1.1104 3.75214 -0.284365 12.3096
118 1 -1.1104 3.70928 -0.218119 9.43611
119 2 2.2208 5.22518 6.8585 10.9084
120 1 -1.1104 1.09817 8.2048 12.3429
124 1 -1.1104 1.00091 5.37563 12.3408
126 1 -1.1104 1.05591 5.16299 9.4284
128 1 -1.1104 3.78591 8.16253 12.2619
129 2 2.2208 2.41376 6.70776 8.09537
130 1 -1.1104 3.81225 8.1033 9.44958
131 1 -1.1104 3.98492 5.44475 12.2208
132 1 -1.1104 3.83755 5.32759 9.56858
102 1 -1.1104 6.64199 -3.07778 9.50059
178 2 2.2208 2.32023 1.19084 13.6417
176 2 2.2208 5.09566 -1.66967 13.78
8733 2 2.2208 2.32173 -4.45344 13.7347
134 2 2.2208 -0.422965 -1.71069 8.04957
103 1 -1.1104 6.59867 2.66016 9.51958
121 1 -1.1104 6.61556 8.34636 12.2071
125 1 -1.1104 6.71311 5.46894 12.5426
127 1 -1.1104 6.48867 5.42261 9.62042
105 1 -1.1104 6.67756 -0.106145 12.3501
98 1 -1.1104 6.41754 -2.78735 12.1834
123 1 -1.1104 6.6295 8.25099 9.5453
78 2 2.2208 13.5885 -1.53957 10.9162
44 2 2.2208 13.7124 6.77431 7.92602
173 1 -1.1104 12.1968 8.23659 9.54134
144 1 -1.1104 9.63509 -0.146819 6.79505
139 1 -1.1104 12.1581 -3.09327 6.76262
45 2 2.2208 13.6748 4.15474 10.8516
146 1 -1.1104 12.2399 5.47948 6.58009
143 1 -1.1104 9.5048 2.63462 6.81332
149 1 -1.1104 9.49693 5.52494 6.71436
147 1 -1.1104 9.50998 8.30767 6.72966
145 1 -1.1104 12.3195 8.21987 6.62995
136 1 -1.1104 9.56534 8.24125 12.3713
290 2 2.2208 8.01343 1.21895 13.7064
138 1 -1.1104 12.3113 5.48042 12.4387
161 1 -1.1104 12.2552 -0.0479949 9.4289
153 2 2.2208 10.8464 1.30881 10.7162
148 1 -1.1104 9.41672 5.27498 9.51631
99 1 -1.1104 6.54669 2.59292 12.3502
85 1 -1.1104 6.637 -0.264817 6.66044
79 2 2.2208 13.6362 1.29566 8.0781
157 1 -1.1104 12.3187 2.67307 9.42328
169 1 -1.1104 9.42503 -0.264286 12.1557
168 2 2.2208 8.0351 4.03278 10.9386
158 1 -1.1104 12.199 -0.123426 12.2078
156 1 -1.1104 12.2258 -3.02001 9.4948
140 1 -1.1104 12.1175 2.53964 6.68459
152 2 2.2208 8.08424 6.76073 8.12432
163 1 -1.1104 9.49631 2.57592 12.3024
109 1 -1.1104 6.54756 -0.180293 9.53339
172 1 -1.1104 12.2592 8.20507 12.3702
167 2 2.2208 7.93172 -1.51971 10.9662
159 2 2.2208 10.8982 -1.47549 8.05315
170 1 -1.1104 9.3756 -0.136997 9.51249
165 1 -1.1104 9.42171 -2.90411 9.5916
162 1 -1.1104 9.30347 -2.93488 12.3818
171 2 2.2208 10.9205 6.81084 10.9471
160 2 2.2208 10.871 3.95075 8.05314
151 1 -1.1104 9.55815 8.09385 9.59067
154 1 -1.1104 12.1995 -2.91218 12.2718
137 1 -1.1104 12.1779 5.42893 9.37041
164 2 2.2208 7.92655 1.14726 8.12848
150 1 -1.1104 9.42178 5.54849 12.3318
166 1 -1.1104 9.34267 2.52225 9.52448
155 1 -1.1104 12.2209 2.86471 12.2573
182 2 2.2208 5.02231 1.20405 16.5257
183 1 -1.1104 0.891355 -3.02727 17.7911
184 1 -1.1104 1.04294 2.4647 17.7305
187 1 -1.1104 0.904001 -3.01951 15.0597
189 1 -1.1104 0.865846 2.65935 15.1681
195 1 -1.1104 1.07361 -0.32428 17.9419
197 2 2.2208 5.13698 -1.59111 19.3561
198 2 2.2208 5.26074 3.99085 19.2349
199 1 -1.1104 0.942108 -0.278937 15.0981
203 1 -1.1104 3.70708 -3.05002 17.7021
204 1 -1.1104 3.82073 2.66473 17.9608
205 2 2.2208 2.25935 1.14621 19.3577
206 1 -1.1104 3.63704 -3.16043 15.017
208 1 -1.1104 3.72404 2.64675 15.1257
210 2 2.2208 2.26761 -1.74852 16.446
211 2 2.2208 2.38138 4.1123 16.475
212 1 -1.1104 3.67131 -0.233434 17.8833
213 1 -1.1104 3.7692 -0.215241 15.0298
215 2 2.2208 5.23514 6.7562 16.5454
216 1 -1.1104 1.12853 8.12162 18.147
218 1 -1.1104 1.04225 8.18783 15.325
221 1 -1.1104 1.00714 5.32781 17.9005
223 1 -1.1104 0.933384 5.51075 15.044
227 1 -1.1104 3.8827 8.24472 18.0373
228 2 2.2208 2.632 6.67819 19.3368
229 1 -1.1104 3.9419 8.22715 15.2094
231 1 -1.1104 3.87549 5.33666 17.8413
232 1 -1.1104 3.7246 5.44711 15.1818
230 1 -1.1104 3.83568 7.94802 20.7705
207 1 -1.1104 3.77163 -3.10061 20.7024
222 1 -1.1104 6.72637 5.45673 17.9828
219 1 -1.1104 6.63488 8.19508 15.1273
186 1 -1.1104 6.72036 2.58089 17.9598
225 1 -1.1104 6.61532 5.44338 15.2475
191 1 -1.1104 6.52399 -2.95977 15.0915
196 1 -1.1104 6.43982 -0.105743 18.0483
192 1 -1.1104 6.44846 -3.03465 20.5549
188 1 -1.1104 0.907584 -2.92177 20.6205
224 1 -1.1104 1.07359 5.83719 20.6722
200 1 -1.1104 0.940151 -0.0523927 20.8179
179 2 2.2208 5.21164 3.97643 13.7134
177 2 2.2208 2.44375 6.76447 13.7571
185 1 -1.1104 6.4642 -2.93285 17.8081
193 1 -1.1104 6.55127 2.65464 15.258
220 1 -1.1104 6.73923 8.14165 20.769
283 2 2.2208 13.5524 4.03224 16.4157
217 1 -1.1104 6.58946 8.2397 17.9332
201 1 -1.1104 6.54317 -0.113102 15.212
245 2 2.2208 10.646 1.10404 16.4418
246 1 -1.1104 12.2021 -2.91173 17.8938
247 1 -1.1104 12.1531 2.61651 17.9304
248 1 -1.1104 12.075 -3.0011 15.1522
250 1 -1.1104 12.0694 2.7596 15.1093
252 1 -1.1104 12.1526 -0.173552 17.8855
253 2 2.2208 10.7672 -1.5752 19.2965
254 2 2.2208 10.8729 4.0012 19.2483
255 1 -1.1104 11.9897 -0.186822 15.0997
257 1 -1.1104 9.30377 -3.02124 17.8715
258 1 -1.1104 9.62313 2.64453 17.7511
259 2 2.2208 7.8675 1.28972 19.2661
260 1 -1.1104 9.33229 -2.94171 15.2028
262 1 -1.1104 9.3271 2.73147 14.9646
264 2 2.2208 7.91685 -1.62204 16.613
265 2 2.2208 8.0665 4.102 16.4379
266 1 -1.1104 9.35476 -0.141349 17.8952
267 1 -1.1104 9.20781 -0.180809 15.1184
269 2 2.2208 10.8475 6.86382 16.6214
270 1 -1.1104 12.0817 8.24177 17.9032
271 1 -1.1104 12.1781 8.25285 15.2131
273 1 -1.1104 12.2989 5.38508 17.8041
274 1 -1.1104 12.2781 5.52488 15.1382
276 1 -1.1104 9.48686 8.21046 17.9456
277 2 2.2208 8.08604 6.85735 19.2479
278 1 -1.1104 9.4607 8.31802 15.1015
280 1 -1.1104 9.48119 5.4733 17.9079
281 1 -1.1104 9.58474 5.58741 15.1216
256 1 -1.1104 12.1605 -0.219787 20.6849
249 1 -1.1104 12.0461 -2.96403 20.7761
268 1 -1.1104 9.3191 0.0289093 20.7013
287 2 2.2208 13.5318 -1.52376 16.539
8728 2 2.2208 13.5846 -4.33708 13.7036
279 1 -1.1104 9.5181 8.36343 20.7967
261 1 -1.1104 9.36733 -2.79514 20.6343
284 2 2.2208 13.7045 6.73138 19.3508
8892 2 2.2208 10.753 -4.34893 16.5006
8886 2 2.2208 7.89825 -4.45289 19.2438
8902 2 2.2208 13.649 -4.29599 19.2783
236 2 2.2208 13.6504 1.24255 19.3127
292 2 2.2208 10.8 4.07205 13.6618
291 2 2.2208 10.7432 -1.53637 13.6673
286 2 2.2208 13.7101 6.92195 13.7051
289 2 2.2208 8.09088 6.91947 13.7794
233 1 -1.1104 3.83783 5.25152 20.6668
202 1 -1.1104 6.50315 -0.195592 20.802
209 1 -1.1104 3.70541 2.51562 20.6548
194 1 -1.1104 6.3909 2.49391 20.7185
298 1 -1.1104 6.68175 2.47671 23.4673
324 1 -1.1104 6.58837 5.49377 23.4939
322 1 -1.1104 6.56121 8.28943 26.577
214 1 -1.1104 3.74656 -0.259936 20.637
190 1 -1.1104 0.900353 2.70483 20.7873
334 2 2.2208 2.39112 3.91414 27.7876
294 2 2.2208 5.082 1.19138 22.092
295 1 -1.1104 0.928557 -2.89891 23.495
296 1 -1.1104 1.04183 2.65025 23.4807
299 1 -1.1104 0.920254 -3.0181 26.3469
300 1 -1.1104 0.989024 2.47514 26.3089
303 1 -1.1104 0.895709 -0.0807458 23.6717
305 2 2.2208 5.25134 -1.68463 24.8236
306 2 2.2208 5.25918 3.99834 24.9395
307 1 -1.1104 1.09548 -0.293607 26.5357
309 1 -1.1104 3.7771 -3.11748 23.5926
310 1 -1.1104 3.757 2.48455 23.6255
311 2 2.2208 2.41407 1.15565 25.0117
312 1 -1.1104 3.76354 -3.10401 26.366
313 1 -1.1104 3.792 2.3726 26.6091
314 2 2.2208 2.3745 -1.60874 22.1477
315 2 2.2208 2.44623 3.93932 22.1399
316 1 -1.1104 3.8505 -0.34474 23.4886
317 1 -1.1104 3.81416 -0.581731 26.3223
318 2 2.2208 5.2528 6.77586 22.2149
319 1 -1.1104 0.838141 7.9039 23.6674
321 1 -1.1104 0.963164 7.95525 26.4338
323 1 -1.1104 0.880572 5.18562 23.4768
325 1 -1.1104 1.0772 5.16813 26.2745
327 1 -1.1104 4.05343 7.98162 23.7948
328 2 2.2208 2.35036 6.7112 24.953
329 1 -1.1104 3.72048 8.11901 26.3241
330 1 -1.1104 3.84782 5.22968 23.5445
331 1 -1.1104 4.00493 5.26155 26.3964
8879 2 2.2208 5.11855 -4.44829 22.0401
304 1 -1.1104 6.58625 -0.266699 23.5448
297 1 -1.1104 6.52566 -3.0188 23.3841
308 1 -1.1104 6.59574 -0.317445 26.3616
343 2 2.2208 -0.402752 6.70284 27.7533
326 1 -1.1104 6.77986 5.48276 26.2961
342 2 2.2208 -0.597766 -1.68096 25.0457
301 1 -1.1104 6.60809 -3.109 26.3029
8878 2 2.2208 2.33616 -4.38488 24.9586
8725 2 2.2208 5.31247 -4.38491 27.6619
8734 2 2.2208 13.6366 -4.42127 24.9222
239 2 2.2208 7.96317 -1.58382 27.8069
235 2 2.2208 7.97078 3.95936 27.7905
359 1 -1.1104 9.30693 2.80474 23.4896
355 2 2.2208 10.7758 -1.63471 24.9937
349 2 2.2208 10.8801 1.28651 22.0539
8751 2 2.2208 10.7889 -4.43721 27.8991
364 2 2.2208 8.09249 4.1157 22.0959
272 1 -1.1104 12.3388 8.29947 20.8382
282 1 -1.1104 9.48778 5.48122 20.6289
226 1 -1.1104 6.62582 5.38516 20.6861
275 1 -1.1104 12.3087 5.38393 20.6748
251 1 -1.1104 12.1298 2.78585 20.8485
347 1 -1.1104 9.32875 8.20068 26.3415
348 2 2.2208 8.04907 6.87173 25.0655
345 1 -1.1104 9.44411 5.29021 26.481
302 1 -1.1104 6.6304 2.56064 26.2458
365 1 -1.1104 9.43319 -0.239485 23.5189
363 2 2.2208 7.96829 -1.55933 22.0138
263 1 -1.1104 9.41189 2.75292 20.5816
333 1 -1.1104 12.2067 7.94178 26.4497
338 2 2.2208 13.5344 -1.64025 21.9967
358 1 -1.1104 9.358 -2.85783 23.5301
350 1 -1.1104 12.2234 -3.06226 23.5307
354 1 -1.1104 12.2048 -0.237692 23.5839
352 1 -1.1104 12.1865 -2.86915 26.4014
357 1 -1.1104 12.1592 -0.22459 26.3348
351 1 -1.1104 12.2247 2.54308 23.5724
367 2 2.2208 10.8654 6.83143 22.0536
346 1 -1.1104 9.36755 5.42857 23.5918
341 1 -1.1104 12.2546 8.06088 23.5728
353 1 -1.1104 11.9428 2.56917 26.4165
244 1 -1.1104 12.0465 5.31812 23.4665
243 1 -1.1104 12.2374 5.17325 26.1687
320 1 -1.1104 6.75345 8.30116 23.8031
356 2 2.2208 10.712 3.94243 24.9143
242 1 -1.1104 9.54203 8.26144 23.6424
361 1 -1.1104 9.3652 -3.02482 26.2629
360 2 2.2208 7.97518 1.09177 24.9487
362 1 -1.1104 9.20197 2.39573 26.4613
366 1 -1.1104 9.36942 -0.262253 26.2902
337 2 2.2208 13.5136 1.17707 24.9619
336 2 2.2208 13.4579 6.69606 24.9136
234 2 2.2208 13.5534 4.00243 22.2279
339 2 2.2208 13.6622 -1.69203 27.8346
368 2 2.2208 5.15658 12.2662 5.24276
369 1 -1.1104 0.956801 10.9565 1.05532
373 2 2.2208 5.207 9.58478 2.4967
374 1 -1.1104 0.909573 11.0044 4.04618
376 2 2.2208 2.38792 12.3451 2.5193
377 2 2.2208 2.28311 9.56173 5.38767
378 1 -1.1104 3.88409 11.0313 1.13665
380 1 -1.1104 3.66858 10.9083 3.89661
381 2 2.2208 5.23937 18.0419 5.4108
382 1 -1.1104 0.95412 13.649 1.11095
384 1 -1.1104 1.02503 19.2344 1.1697
388 1 -1.1104 1.03704 13.8425 3.85279
389 1 -1.1104 1.10718 19.372 4.04297
391 1 -1.1104 0.882789 16.3576 1.03273
394 2 2.2208 5.23359 15.1548 2.65398
395 2 2.2208 5.3526 20.6582 2.46375
396 1 -1.1104 1.04117 16.6487 3.81492
398 1 -1.1104 3.82239 13.6501 1.02131
400 1 -1.1104 3.8012 19.4978 1.03035
402 2 2.2208 2.50809 18.028 2.50943
403 1 -1.1104 3.72018 13.8819 4.01571
404 1 -1.1104 3.96758 19.305 3.86667
405 2 2.2208 2.38473 15.2497 5.27673
406 2 2.2208 2.55361 20.8635 5.30632
407 1 -1.1104 3.74268 16.5691 1.00702
409 1 -1.1104 3.67945 16.5601 3.92076
411 2 2.2208 -0.399316 9.7522 2.46679
375 1 -1.1104 6.42868 10.9219 3.87425
649 2 2.2208 5.26009 17.9057 -0.122835
410 2 2.2208 -0.391029 15.1906 2.47068
399 1 -1.1104 3.82609 14.0951 6.70983
385 1 -1.1104 6.55012 13.781 1.33014
390 1 -1.1104 6.54385 13.6731 4.01265
427 1 -1.1104 6.73653 16.4499 1.30602
397 1 -1.1104 6.55729 16.5196 4.00309
9405 2 2.2208 -0.382636 17.9124 5.39819
370 1 -1.1104 1.10901 11.0824 6.77004
650 2 2.2208 2.42244 15.0948 -0.383818
651 2 2.2208 2.46898 9.56092 -0.323798
525 2 2.2208 -0.323486 17.9753 -0.301568
648 2 2.2208 2.41568 20.6853 -0.331875
687 2 2.2208 7.94194 20.8246 -0.32599
453 2 2.2208 13.6817 12.5107 2.4627
425 1 -1.1104 6.72749 19.3074 1.04252
371 1 -1.1104 6.67204 10.9533 1.01689
426 1 -1.1104 6.70536 19.3896 3.91921
415 2 2.2208 10.7879 12.3715 5.31431
416 1 -1.1104 12.3122 11.0795 0.98535
418 2 2.2208 10.7951 9.58628 2.51429
419 1 -1.1104 12.0309 11.0282 3.85399
420 2 2.2208 7.94833 12.3919 2.5155
421 2 2.2208 8.07133 9.62385 5.38324
422 1 -1.1104 9.50147 10.908 1.16747
424 1 -1.1104 9.25599 10.8356 3.86569
428 2 2.2208 10.7185 18.0145 5.29797
429 1 -1.1104 12.3646 13.8339 0.990124
431 1 -1.1104 12.2768 19.2896 1.2977
433 1 -1.1104 12.2266 13.6946 3.89567
434 1 -1.1104 12.3566 19.3648 3.94713
435 1 -1.1104 12.3742 16.5716 1.06104
437 2 2.2208 10.9684 15.1306 2.44996
438 2 2.2208 10.7927 20.7966 2.5614
439 1 -1.1104 12.102 16.5257 3.85784
440 1 -1.1104 9.43421 14.0279 1.13234
442 1 -1.1104 9.32258 19.4506 1.16812
444 2 2.2208 8.03445 17.929 2.54103
445 1 -1.1104 9.34124 13.7292 3.82385
446 1 -1.1104 9.38852 19.4236 4.12653
447 2 2.2208 7.95147 15.1452 5.30032
448 2 2.2208 8.02994 20.9616 5.41715
449 1 -1.1104 9.63722 16.7269 1.15865
451 1 -1.1104 9.24946 16.5897 3.91907
515 2 2.2208 13.5355 9.69755 5.26358
516 2 2.2208 13.6072 15.1498 5.33803
692 2 2.2208 13.6594 9.59527 -0.243008
691 2 2.2208 8.18762 15.3061 -0.222093
690 2 2.2208 10.9483 12.4498 -0.385157
688 2 2.2208 10.8716 17.9949 -0.208326
694 2 2.2208 13.7738 15.1941 -0.330214
408 1 -1.1104 3.78379 16.7486 6.76832
383 1 -1.1104 1.02591 13.9966 6.76875
401 1 -1.1104 3.75626 19.5077 6.73173
379 1 -1.1104 3.84904 11.0802 6.64971
372 1 -1.1104 6.51683 10.9351 6.76023
520 2 2.2208 2.40633 17.9536 13.6984
387 1 -1.1104 6.58044 19.6424 6.88293
392 1 -1.1104 1.01991 16.5857 6.80738
470 1 -1.1104 1.09784 19.3735 6.73902
454 1 -1.1104 3.85358 19.578 12.3113
455 1 -1.1104 3.82536 13.8899 12.3056
459 1 -1.1104 0.983888 19.5246 9.43117
460 1 -1.1104 1.05453 16.622 9.58374
461 2 2.2208 5.24522 20.9531 8.23613
462 1 -1.1104 1.04203 13.6621 9.57319
463 2 2.2208 5.23088 15.3809 8.12462
466 1 -1.1104 1.18222 19.4093 12.4488
467 1 -1.1104 0.958265 13.7672 12.2879
468 2 2.2208 5.29716 18.1362 11.0539
469 1 -1.1104 3.92035 19.4509 9.41888
471 2 2.2208 2.44891 18.0471 8.04602
472 1 -1.1104 3.78011 16.6424 9.57841
473 1 -1.1104 3.90149 13.7732 9.5392
475 1 -1.1104 0.97373 16.5576 12.3029
476 1 -1.1104 3.8249 16.7006 12.3569
477 2 2.2208 2.47741 20.8573 10.9011
478 2 2.2208 5.25921 12.3651 10.8933
479 1 -1.1104 0.965408 11.008 12.3592
481 2 2.2208 2.48659 15.1383 10.8533
482 2 2.2208 5.23835 9.68878 8.10591
483 1 -1.1104 1.06871 10.9 9.56447
485 2 2.2208 2.52751 12.4358 8.23913
486 2 2.2208 2.39534 9.45326 10.8373
487 1 -1.1104 3.76386 10.8621 12.1568
488 1 -1.1104 3.83434 10.9406 9.34154
456 1 -1.1104 6.6603 19.5499 9.63507
464 1 -1.1104 6.59737 19.4647 12.475
524 2 2.2208 5.31285 15.1473 13.9154
465 1 -1.1104 6.68244 13.8169 12.4771
484 1 -1.1104 6.60497 10.9032 9.51488
480 1 -1.1104 6.6514 11.1386 12.4465
457 1 -1.1104 6.59589 16.7456 9.63281
393 1 -1.1104 6.51216 16.72 6.79322
572 2 2.2208 5.10304 20.8526 13.8439
507 1 -1.1104 12.2651 19.4788 9.6577
518 2 2.2208 13.6252 9.59344 11.0018
386 1 -1.1104 6.49363 13.921 6.8436
9351 2 2.2208 13.6349 20.8497 10.9651
436 1 -1.1104 12.3016 16.5717 6.75595
441 1 -1.1104 9.29156 13.9264 6.67838
430 1 -1.1104 12.1035 13.8106 6.60367
432 1 -1.1104 12.1415 19.2684 6.8747
417 1 -1.1104 12.1989 11.0767 6.7502
450 1 -1.1104 9.3014 16.674 6.68124
423 1 -1.1104 9.29547 11.069 6.79056
474 1 -1.1104 6.73229 16.6322 12.5033
490 2 2.2208 10.8327 9.56545 8.11382
505 1 -1.1104 12.3814 16.6919 12.1514
489 1 -1.1104 12.3781 11.0036 9.37184
513 2 2.2208 10.8183 18.0494 10.9785
494 2 2.2208 8.09287 20.9266 11.0771
443 1 -1.1104 9.35566 19.449 6.80656
504 2 2.2208 10.724 15.2196 8.16092
514 2 2.2208 10.756 12.3948 10.994
511 1 -1.1104 12.1228 19.3656 12.4175
503 1 -1.1104 9.37979 10.9186 9.51336
506 1 -1.1104 9.35754 11.0533 12.3449
458 1 -1.1104 6.6981 13.837 9.6596
502 2 2.2208 10.8179 20.8224 8.23956
499 1 -1.1104 9.39148 19.3644 12.3208
508 1 -1.1104 12.2196 13.9918 9.44217
493 1 -1.1104 9.47439 16.5982 12.3207
495 2 2.2208 7.9482 15.2132 10.9892
500 1 -1.1104 9.4629 13.8511 12.2372
501 1 -1.1104 12.0957 16.7468 9.44528
498 2 2.2208 7.95473 18.1562 8.16773
510 2 2.2208 7.9505 12.4312 8.1574
509 2 2.2208 8.02851 9.57564 10.9975
512 1 -1.1104 12.327 13.7493 12.2001
491 1 -1.1104 12.1493 11.15 12.4186
497 1 -1.1104 9.54527 13.6837 9.47966
492 1 -1.1104 9.39831 16.5796 9.65811
496 1 -1.1104 9.37921 19.4126 9.49107
526 2 2.2208 5.39569 12.3852 16.5146
527 1 -1.1104 1.25862 10.8905 18.2247
529 2 2.2208 5.19987 9.63789 19.4811
530 1 -1.1104 0.948152 10.922 15.1534
533 2 2.2208 2.75473 12.5485 19.2385
534 2 2.2208 2.52286 9.53499 16.5583
535 1 -1.1104 3.92339 10.9302 17.7521
536 1 -1.1104 3.88779 11.0148 14.9016
538 2 2.2208 5.3096 18.1373 16.5893
539 1 -1.1104 1.05428 13.8178 17.8481
540 1 -1.1104 1.12218 19.2979 17.9041
543 1 -1.1104 0.970481 13.7823 15.0998
545 1 -1.1104 0.913547 19.3083 15.1633
551 1 -1.1104 1.09757 16.6165 17.9305
553 2 2.2208 5.28444 15.3462 19.4184
554 2 2.2208 5.22196 20.8221 19.4076
555 1 -1.1104 1.1268 16.4619 15.2123
559 1 -1.1104 3.84772 13.8263 17.7724
560 1 -1.1104 3.8104 19.5086 17.9706
561 2 2.2208 2.39703 17.903 19.3583
562 1 -1.1104 3.82215 13.7709 15.0687
564 1 -1.1104 3.72643 19.3445 15.0792
566 2 2.2208 2.41157 15.195 16.5069
567 2 2.2208 2.24199 20.8316 16.5785
568 1 -1.1104 3.88777 16.6303 18.0098
569 1 -1.1104 3.8899 16.6276 15.283
537 1 -1.1104 4.00212 11.1736 20.5774
9519 2 2.2208 -0.388598 20.7677 19.3888
9522 2 2.2208 -0.359065 18.0029 16.651
549 1 -1.1104 6.68878 19.4714 15.197
532 1 -1.1104 6.68581 11.0029 20.681
565 1 -1.1104 3.84191 19.3949 20.7267
557 1 -1.1104 6.76889 16.6681 15.3118
541 1 -1.1104 6.80071 13.6877 17.9828
521 2 2.2208 5.28179 9.53852 13.7327
523 2 2.2208 2.48665 12.3813 13.6257
612 2 2.2208 10.9768 20.9146 13.735
528 1 -1.1104 6.66426 11.0667 17.9874
9465 2 2.2208 13.6547 20.8135 16.4585
614 2 2.2208 8.00097 18.0909 13.8428
552 1 -1.1104 6.73276 16.7426 17.9354
531 1 -1.1104 6.73704 10.9377 15.1337
542 1 -1.1104 6.69632 19.4998 17.9904
547 1 -1.1104 6.85599 13.8441 15.2672
577 2 2.2208 10.8949 12.379 16.6005
578 1 -1.1104 12.3918 10.9908 17.9452
579 2 2.2208 10.8787 9.57079 19.3914
580 1 -1.1104 12.3254 11.1243 15.1617
582 2 2.2208 8.18453 12.4154 19.4495
583 2 2.2208 8.03824 9.5764 16.6464
584 1 -1.1104 9.46462 11.0666 17.9329
585 1 -1.1104 9.60205 11.1129 15.2161
587 2 2.2208 10.9127 18.1618 16.4939
588 1 -1.1104 12.4283 13.7239 17.8988
589 1 -1.1104 12.2823 19.4763 17.8785
590 1 -1.1104 12.123 13.8421 14.9746
592 1 -1.1104 12.2366 19.4867 15.0332
594 1 -1.1104 12.2435 16.5498 17.9551
595 2 2.2208 10.9335 15.1641 19.4179
596 2 2.2208 11.0314 20.8722 19.3558
597 1 -1.1104 12.4355 16.7224 15.2001
599 1 -1.1104 9.63373 13.7258 18.0159
600 1 -1.1104 9.40395 19.5729 18.048
601 2 2.2208 8.05316 18.0925 19.3055
602 1 -1.1104 9.41381 13.9149 15.1985
604 1 -1.1104 9.49837 19.5641 15.3405
606 2 2.2208 8.18642 15.2281 16.6384
607 2 2.2208 8.03452 20.9214 16.7411
608 1 -1.1104 9.53487 16.6876 17.8809
609 1 -1.1104 9.55355 16.6817 15.0837
558 1 -1.1104 6.65354 16.5769 20.7686
581 1 -1.1104 12.2103 11.0212 20.7567
603 1 -1.1104 9.47775 13.8421 20.8798
593 1 -1.1104 12.2717 19.3616 20.6806
576 2 2.2208 8.09264 12.4882 13.9969
697 2 2.2208 13.6725 12.3648 13.7323
615 2 2.2208 13.6164 18.048 13.6759
611 2 2.2208 10.8079 9.6711 13.8063
613 2 2.2208 10.8529 15.2861 13.6825
657 2 2.2208 -0.340704 17.9877 22.0855
654 2 2.2208 -0.3767 15.1957 24.964
550 1 -1.1104 6.59324 19.4441 20.7517
570 1 -1.1104 3.85503 16.7322 20.8679
548 1 -1.1104 6.75358 13.8054 20.6776
556 1 -1.1104 1.17515 16.2978 20.7095
563 1 -1.1104 3.96546 14.0096 20.6247
546 1 -1.1104 1.15466 19.3237 20.7307
544 1 -1.1104 1.06769 13.4441 20.7764
658 2 2.2208 -0.201805 9.49881 24.9368
616 1 -1.1104 3.87807 19.4275 23.5098
618 1 -1.1104 3.88228 13.9869 23.3955
620 1 -1.1104 1.0577 19.3356 26.4207
621 1 -1.1104 1.00874 16.5329 26.2504
622 1 -1.1104 1.07016 13.6812 26.3148
624 2 2.2208 5.34571 20.8492 25.0001
625 2 2.2208 5.32084 15.2405 24.9943
627 1 -1.1104 1.14997 19.3103 23.4794
628 1 -1.1104 0.986572 13.6867 23.5812
629 2 2.2208 5.36348 18.0756 22.1674
630 1 -1.1104 3.86807 19.3728 26.2811
631 2 2.2208 2.49127 17.9143 24.9444
632 1 -1.1104 3.67738 16.5687 26.3806
633 1 -1.1104 3.88936 13.8601 26.2063
635 1 -1.1104 1.03055 16.6168 23.508
636 1 -1.1104 4.04687 16.6349 23.5829
637 2 2.2208 2.49737 20.712 22.1158
638 2 2.2208 5.2894 12.4901 22.1564
639 1 -1.1104 0.988208 10.8944 23.3499
641 2 2.2208 2.50383 15.2778 22.1549
642 2 2.2208 5.19888 9.56753 25.0336
643 1 -1.1104 1.06598 10.7898 26.3505
645 2 2.2208 2.46956 12.3739 24.7755
646 1 -1.1104 3.96292 11.1923 23.5793
647 1 -1.1104 3.82967 11.024 26.194
644 1 -1.1104 6.55769 11.0102 26.2395
652 2 2.2208 5.22604 12.3881 27.7415
640 1 -1.1104 6.60695 11.0518 23.4035
617 1 -1.1104 6.63963 13.8756 26.4496
664 1 -1.1104 9.41344 19.4176 26.4341
610 1 -1.1104 9.47517 16.69 20.6071
586 1 -1.1104 9.50653 11.0727 20.8754
591 1 -1.1104 12.3614 13.7975 20.7102
668 1 -1.1104 9.58227 19.3927 23.715
605 1 -1.1104 9.38044 19.3925 20.8629
598 1 -1.1104 12.2089 16.5914 20.8939
665 1 -1.1104 9.46979 13.8211 26.3472
619 1 -1.1104 6.63845 16.6109 26.6263
634 1 -1.1104 6.72841 16.6448 23.6639
623 1 -1.1104 6.68173 19.3817 23.6589
670 1 -1.1104 12.1847 16.6768 26.3652
571 2 2.2208 13.715 9.50446 22.3054
680 1 -1.1104 12.2735 19.4868 23.6355
681 1 -1.1104 12.2719 13.7256 23.4332
673 2 2.2208 10.8579 15.26 24.9581
678 2 2.2208 7.96842 9.64135 22.2366
682 2 2.2208 10.8967 18.0171 22.2053
672 2 2.2208 10.8133 20.7262 24.951
662 2 2.2208 8.10229 20.8067 22.2227
689 2 2.2208 8.01172 9.59064 27.7144
666 1 -1.1104 6.67394 19.3565 26.4603
626 1 -1.1104 6.63544 13.7714 23.7161
685 2 2.2208 10.8222 9.51113 25.052
686 1 -1.1104 12.2219 10.9847 26.3054
684 1 -1.1104 12.3795 10.9599 23.6232
660 1 -1.1104 9.48986 16.648 26.4223
675 1 -1.1104 12.339 19.4491 26.3974
671 1 -1.1104 9.47229 10.9486 26.3304
679 2 2.2208 7.98863 12.4246 24.9785
674 1 -1.1104 12.3023 16.5256 23.683
676 1 -1.1104 12.2386 13.7938 26.3024
683 2 2.2208 10.8945 12.3195 22.2841
677 1 -1.1104 9.27223 10.9504 23.6837
661 1 -1.1104 9.49982 16.5507 23.5298
667 2 2.2208 8.00852 18.0551 25.0614
669 1 -1.1104 9.39259 13.7924 23.6402
663 2 2.2208 8.1394 15.1719 22.1755
698 2 2.2208 5.2196 23.6544 5.33071
699 2 2.2208 5.17236 29.1488 5.34273
700 1 -1.1104 1.14583 24.9308 1.27612
701 1 -1.1104 1.02913 25.0667 3.93415
702 1 -1.1104 0.949497 22.0116 1.03075
703 1 -1.1104 0.983542 27.7026 1.10678
704 2 2.2208 5.27328 26.3993 2.55731
705 1 -1.1104 1.1598 22.2962 3.8509
706 1 -1.1104 0.987411 27.806 3.91446
707 1 -1.1104 3.95084 25.0842 1.0659
708 2 2.2208 2.51116 23.6335 2.5794
709 2 2.2208 2.46143 29.1441 2.49915
710 1 -1.1104 3.97789 24.9335 3.86519
711 2 2.2208 2.38308 26.2438 5.4021
712 1 -1.1104 3.63576 22.1919 1.07794
713 1 -1.1104 3.84417 27.8322 1.19181
714 1 -1.1104 3.87936 22.1462 4.02206
715 1 -1.1104 3.80743 27.6957 4.09441
716 1 -1.1104 1.1736 30.4571 1.21678
717 1 -1.1104 1.10366 30.6262 3.9216
718 1 -1.1104 0.939046 33.3608 1.059
719 2 2.2208 5.28689 32.1733 2.48133
720 1 -1.1104 1.09436 33.3404 3.96911
722 1 -1.1104 3.87983 30.6193 1.14246
723 1 -1.1104 3.79201 30.4949 3.97413
724 2 2.2208 2.47903 31.9216 5.25903
725 1 -1.1104 3.99904 33.4403 1.00354
726 1 -1.1104 3.988 33.5092 3.88227
785 1 -1.1104 3.97733 33.4887 6.4826
731 1 -1.1104 6.5662 25.0196 1.29538
984 2 2.2208 5.23735 23.6334 -0.191041
734 1 -1.1104 6.76633 27.962 1.16203
755 1 -1.1104 6.77464 30.7227 1.17433
733 1 -1.1104 6.61126 22.0919 1.18163
9940 2 2.2208 -0.259546 23.6288 -0.302863
9746 2 2.2208 -0.345833 23.5236 5.35142
9744 2 2.2208 -0.290084 26.2899 2.45918
774 1 -1.1104 1.04842 27.7583 6.76831
779 1 -1.1104 3.94231 27.8072 6.69776
771 1 -1.1104 1.14017 25.0906 6.8495
9743 2 2.2208 -0.40584 31.9909 2.49738
985 2 2.2208 2.53173 26.3923 -0.277711
732 1 -1.1104 6.7088 24.9555 4.02698
735 1 -1.1104 6.69344 22.358 3.98531
721 1 -1.1104 6.6325 33.5688 3.82957
756 1 -1.1104 6.49924 30.7733 3.82933
736 1 -1.1104 6.71777 27.944 3.94687
990 2 2.2208 8.06729 26.4504 -0.267753
757 1 -1.1104 6.77052 33.4198 1.11768
737 2 2.2208 10.7672 23.7356 5.32586
738 2 2.2208 10.9302 29.2666 5.34856
739 1 -1.1104 12.2183 24.8806 1.21355
740 1 -1.1104 12.1299 25.2351 3.93911
741 1 -1.1104 12.378 21.9937 1.1773
742 1 -1.1104 12.1922 27.7396 1.21716
743 2 2.2208 10.7546 26.3825 2.62828
744 1 -1.1104 12.1693 22.2247 3.85676
745 1 -1.1104 12.2711 27.9563 3.82553
746 1 -1.1104 9.40967 24.8777 1.01444
747 2 2.2208 8.03573 23.596 2.58344
748 2 2.2208 8.10795 29.2323 2.57818
749 1 -1.1104 9.3037 24.8741 4.04551
750 2 2.2208 8.05409 26.5477 5.48164
751 1 -1.1104 9.49951 22.2161 1.07681
752 1 -1.1104 9.48097 27.6234 1.22033
753 1 -1.1104 9.46104 22.184 3.95232
754 1 -1.1104 9.4643 27.8148 4.06957
758 1 -1.1104 12.4353 30.597 0.93326
759 1 -1.1104 12.3679 30.6929 3.91313
760 1 -1.1104 12.3793 33.4404 1.06929
761 2 2.2208 10.9433 32.062 2.42001
762 1 -1.1104 12.3487 33.3808 3.83027
763 1 -1.1104 9.53039 30.6127 1.15673
764 1 -1.1104 9.35 30.6445 3.91574
765 2 2.2208 8.02837 32.0738 5.25741
766 1 -1.1104 9.66587 33.5007 1.07336
767 1 -1.1104 9.53475 33.5331 3.88596
825 1 -1.1104 9.40059 25.1829 6.85071
988 2 2.2208 8.1589 32.0268 -0.281655
827 1 -1.1104 9.57684 27.8925 6.75788
991 2 2.2208 10.9672 23.5249 -0.203476
776 1 -1.1104 6.66623 28.0146 6.81205
822 1 -1.1104 12.1352 24.8959 6.91089
780 1 -1.1104 0.905836 30.6083 6.63846
773 1 -1.1104 1.03514 22.1527 6.71373
772 1 -1.1104 6.58689 25.1206 6.77361
775 1 -1.1104 6.57046 22.4247 6.85197
9741 2 2.2208 -0.36655 26.4498 8.14384
784 1 -1.1104 3.73448 30.5686 6.79784
777 1 -1.1104 3.84481 25.0479 6.68217
782 1 -1.1104 0.993437 33.4063 6.85756
778 1 -1.1104 3.76287 22.2724 6.79054
786 2 2.2208 5.35514 23.681 10.9871
787 2 2.2208 5.25282 29.1637 10.9193
788 1 -1.1104 0.919726 24.9247 12.4449
790 1 -1.1104 0.95285 25.0611 9.77988
792 1 -1.1104 1.07932 22.0902 12.3943
793 1 -1.1104 1.06239 27.7035 12.3802
796 2 2.2208 5.16122 26.3998 8.20961
797 1 -1.1104 1.06383 22.2677 9.63426
798 1 -1.1104 1.10868 28.0066 9.609
801 1 -1.1104 3.99585 24.967 12.369
802 2 2.2208 2.52325 23.5266 8.19084
803 2 2.2208 2.3162 29.2526 8.082
804 1 -1.1104 3.81577 25.0068 9.56623
805 2 2.2208 2.36524 26.415 10.9621
806 1 -1.1104 3.9754 22.3181 12.3538
807 1 -1.1104 3.72269 27.6725 12.4517
808 1 -1.1104 3.89145 22.2364 9.59427