ITEM: TIMESTEP
50000
ITEM: NUMBER OF ATOMS
17910
ITEM: BOX BOUNDS pp pp pp
-3.5667418094502490e-01 2.7696674180945088e+01
-4.3022606985645364e+00 3.3238226069857075e+02
-3.5897280454072622e-01 2.7698972804540151e+01
ITEM: ATOMS id type q x y z
1 2 2.2208 5.19034 1.26691 5.28194
2 1 -1.1104 0.846656 -2.7086 0.834098
3 1 -1.1104 0.932937 2.8454 1.08624
6 1 -1.1104 0.893978 -2.94851 3.67022
7 1 -1.1104 1.12238 2.54743 3.8905
10 1 -1.1104 1.0818 0.0238119 1.1414
12 2 2.2208 5.19289 -1.50013 2.3118
13 2 2.2208 5.21452 4.10635 2.57577
14 1 -1.1104 1.00151 -0.138004 3.83717
16 1 -1.1104 3.74608 -2.81292 1.02071
17 1 -1.1104 3.72878 2.74559 0.944111
18 2 2.2208 2.46367 1.2863 2.52638
19 1 -1.1104 3.663 -2.90217 3.74775
20 1 -1.1104 3.91541 2.7793 3.90593
21 2 2.2208 2.4231 -1.57539 5.16636
22 2 2.2208 2.37795 4.15526 5.18856
23 1 -1.1104 3.7368 -0.0456158 1.01702
24 1 -1.1104 3.83626 -0.0361615 3.99173
25 2 2.2208 5.1986 6.85141 5.29505
28 1 -1.1104 0.951568 8.27919 3.98893
30 1 -1.1104 1.1213 5.6622 1.06581
32 1 -1.1104 1.09339 5.51236 3.762
34 1 -1.1104 3.69429 8.50974 0.987143
35 2 2.2208 2.40414 7.03221 2.46936
291 2 2.2208 10.7373 -1.43718 13.6876
37 1 -1.1104 3.81194 5.58242 1.05693
38 1 -1.1104 3.86293 5.55434 3.85227
26 1 -1.1104 0.982625 8.41063 1.0064
8 1 -1.1104 6.62492 -2.83536 3.92117
8733 2 2.2208 2.32127 -4.30059 13.6416
5 1 -1.1104 6.64513 2.79168 1.07036
8707 2 2.2208 5.3438 -4.16122 5.16916
31 1 -1.1104 6.52678 5.5237 1.17997
27 1 -1.1104 6.52517 8.35952 1.22708
15 1 -1.1104 6.6178 -0.0463678 3.76271
290 2 2.2208 8.05622 1.30823 13.701
36 1 -1.1104 3.9386 8.4203 3.96822
93 1 -1.1104 3.68501 8.35659 6.74321
94 1 -1.1104 3.73405 5.41823 6.64165
86 1 -1.1104 3.89588 -2.85967 6.66308
87 1 -1.1104 3.97034 2.64335 6.70472
89 1 -1.1104 0.836189 8.40529 6.8308
91 1 -1.1104 1.09445 5.61601 6.48169
289 2 2.2208 8.00854 6.97354 13.5603
79 2 2.2208 13.5964 1.4511 7.91796
11 1 -1.1104 6.57332 -0.0924545 1.08984
29 1 -1.1104 6.67244 8.26799 3.8136
43 2 2.2208 -0.415301 6.98197 10.9073
8710 2 2.2208 10.8263 -4.36858 5.10897
139 1 -1.1104 12.1864 -2.74537 6.52293
147 1 -1.1104 9.49123 8.33343 6.65676
9 1 -1.1104 6.74135 2.74898 3.86246
4 1 -1.1104 6.56974 -2.98226 1.14382
33 1 -1.1104 6.72148 5.41866 3.89241
46 2 2.2208 10.7577 1.38128 5.22805
47 1 -1.1104 12.2473 -2.97117 0.87077
48 1 -1.1104 12.2464 2.74634 1.22388
49 1 -1.1104 12.1215 -3.02934 3.70723
50 1 -1.1104 12.1861 2.59483 3.86126
51 1 -1.1104 12.1271 -0.136804 0.950624
52 2 2.2208 10.7867 -1.47606 2.49271
53 2 2.2208 10.8627 4.30055 2.50151
54 1 -1.1104 12.1007 -0.11304 3.74619
55 1 -1.1104 9.35164 -2.95181 0.805133
56 1 -1.1104 9.42621 2.70246 0.993958
57 2 2.2208 8.02451 1.43925 2.46824
58 1 -1.1104 9.36927 -2.8458 3.75018
59 1 -1.1104 9.39591 2.77143 3.85003
60 2 2.2208 8.01487 -1.34303 5.16961
61 2 2.2208 7.98844 4.1552 5.38829
62 1 -1.1104 9.31996 -0.166347 1.14141
63 1 -1.1104 9.42934 -0.0297554 3.88108
64 2 2.2208 10.8473 7.02983 5.33172
66 1 -1.1104 12.2655 8.33652 3.80242
67 1 -1.1104 12.3297 5.50351 1.03757
68 1 -1.1104 12.3774 5.60589 3.73648
69 1 -1.1104 9.46647 8.45694 0.995243
70 2 2.2208 7.96231 6.84299 2.5273
71 1 -1.1104 9.46861 8.31566 3.83595
72 1 -1.1104 9.3649 5.55273 1.17964
73 1 -1.1104 9.47403 5.59408 4.03576
65 1 -1.1104 12.3907 8.28624 0.948119
8709 2 2.2208 8.09365 -4.37369 2.39136
92 1 -1.1104 6.51264 5.4626 6.62298
45 2 2.2208 13.4633 4.13293 10.9474
141 1 -1.1104 12.2331 0.096582 6.59255
143 1 -1.1104 9.48295 2.80855 6.73161
140 1 -1.1104 12.2256 2.77486 6.58903
149 1 -1.1104 9.30647 5.54611 6.7196
142 1 -1.1104 9.57575 -2.73621 6.57445
146 1 -1.1104 12.2142 5.53685 6.47366
145 1 -1.1104 12.2878 8.40166 6.58578
144 1 -1.1104 9.31853 0.00286198 6.61731
77 2 2.2208 13.784 4.15428 5.23161
157 1 -1.1104 12.239 2.69782 9.38526
76 2 2.2208 13.7342 6.91686 2.52725
161 1 -1.1104 12.3503 -0.019568 9.35929
138 1 -1.1104 12.0457 5.44971 12.1915
74 2 2.2208 13.6575 1.33942 2.53847
80 1 -1.1104 0.936067 -2.81091 6.52851
173 1 -1.1104 12.0147 8.48834 9.50224
148 1 -1.1104 9.38132 5.60332 9.48864
88 1 -1.1104 3.80789 -0.0891642 6.7048
84 1 -1.1104 0.924836 -0.172304 6.71867
81 1 -1.1104 1.11853 2.773 6.72208
95 2 2.2208 5.16078 1.35897 10.844
96 1 -1.1104 1.03586 -3.03917 12.1258
97 1 -1.1104 1.06998 2.65163 12.2301
100 1 -1.1104 0.977738 -2.94619 9.41454
101 1 -1.1104 1.00619 2.62421 9.33477
104 1 -1.1104 0.812474 -0.125698 12.4208
106 2 2.2208 5.33856 -1.38452 8.0969
107 2 2.2208 5.13168 4.13231 8.09146
108 1 -1.1104 1.01133 -0.120469 9.5749
110 1 -1.1104 3.90787 -2.94339 12.3155
111 1 -1.1104 3.69737 2.56499 12.1373
112 2 2.2208 2.50667 1.31517 8.0008
113 1 -1.1104 3.91487 -3.00357 9.41538
114 1 -1.1104 3.72545 2.68441 9.45381
115 2 2.2208 2.44443 -1.67436 10.8502
116 2 2.2208 2.33561 4.11898 10.8747
117 1 -1.1104 3.81581 -0.176205 12.2829
118 1 -1.1104 3.96874 -0.0612639 9.45853
119 2 2.2208 5.15959 6.95898 10.909
120 1 -1.1104 0.836962 8.39838 12.3174
122 1 -1.1104 1.04545 8.39544 9.59675
124 1 -1.1104 0.897488 5.625 12.3056
126 1 -1.1104 0.963588 5.56859 9.48014
128 1 -1.1104 3.66836 8.17993 12.1717
129 2 2.2208 2.33246 6.8795 8.07727
130 1 -1.1104 4.00476 8.39571 9.46412
131 1 -1.1104 3.56588 5.48918 12.1576
132 1 -1.1104 3.7421 5.53849 9.52913
105 1 -1.1104 6.53893 -0.107672 12.2547
98 1 -1.1104 6.56709 -2.84197 12.2882
153 2 2.2208 10.6978 1.38259 10.7663
136 1 -1.1104 9.24514 8.4971 12.3096
168 2 2.2208 8.03562 4.14059 10.9014
156 1 -1.1104 12.2054 -2.85749 9.30757
158 1 -1.1104 12.2038 -0.135234 12.2636
99 1 -1.1104 6.44726 2.63698 12.3489
123 1 -1.1104 6.66679 8.23393 9.50234
90 1 -1.1104 6.42573 8.25603 6.70537
167 2 2.2208 8.04595 -1.48644 10.764
152 2 2.2208 7.99709 6.90369 8.08577
169 1 -1.1104 9.45237 -0.0816065 12.2309
82 1 -1.1104 6.64888 -2.76571 6.71322
83 1 -1.1104 6.55347 2.71151 6.62398
163 1 -1.1104 9.37213 2.86047 12.2921
102 1 -1.1104 6.67188 -2.78286 9.57524
127 1 -1.1104 6.67617 5.51449 9.40267
103 1 -1.1104 6.5337 2.85954 9.51004
170 1 -1.1104 9.47516 -0.0305302 9.37328
85 1 -1.1104 6.65809 -0.00398586 6.74525
121 1 -1.1104 6.56518 8.36161 12.2571
159 2 2.2208 10.8678 -1.37194 7.91139
171 2 2.2208 10.7024 7.00843 10.8555
151 1 -1.1104 9.33245 8.33615 9.42178
160 2 2.2208 10.8797 4.17277 8.18261
162 1 -1.1104 9.40316 -2.82655 12.2231
165 1 -1.1104 9.56452 -2.84614 9.37674
172 1 -1.1104 12.1027 8.24098 12.3011
125 1 -1.1104 6.51536 5.53168 12.2219
155 1 -1.1104 12.0679 2.62304 12.2504
166 1 -1.1104 9.37055 2.79522 9.50869
164 2 2.2208 7.99262 1.46169 7.9936
137 1 -1.1104 12.0983 5.59701 9.42793
154 1 -1.1104 12.2139 -3.01783 12.1177
109 1 -1.1104 6.82049 0.0526243 9.49608
150 1 -1.1104 9.42229 5.54349 12.1506
179 2 2.2208 5.05236 4.0734 13.5972
178 2 2.2208 2.43609 1.25774 13.6376
78 2 2.2208 13.6238 -1.52912 10.85
44 2 2.2208 13.5875 6.90648 8.03474
292 2 2.2208 10.7651 4.25233 13.6971
241 2 2.2208 10.8686 1.42567 -0.365009
240 2 2.2208 13.525 1.42643 13.6791
339 2 2.2208 13.5544 -1.4174 -0.348044
239 2 2.2208 8.01124 -1.37586 -0.459329
182 2 2.2208 5.21533 1.29248 16.4921
183 1 -1.1104 1.04627 -2.82026 17.8322
184 1 -1.1104 0.895481 2.59654 17.8897
187 1 -1.1104 0.789036 -3.12463 14.8787
189 1 -1.1104 0.908147 2.7155 15.0338
195 1 -1.1104 1.00604 -0.0119125 17.9791
197 2 2.2208 5.17762 -1.5831 19.3329
198 2 2.2208 4.99529 4.27255 19.1975
199 1 -1.1104 0.946078 -0.329738 15.1039
203 1 -1.1104 3.79312 -2.91006 17.9225
204 1 -1.1104 3.67658 2.7265 18.0483
205 2 2.2208 2.46932 1.29413 19.3757
206 1 -1.1104 3.79092 -2.84044 15.2116
208 1 -1.1104 3.78359 2.80573 15.099
210 2 2.2208 2.34959 -1.5275 16.469
211 2 2.2208 2.29496 4.00554 16.4519
212 1 -1.1104 3.79508 -0.0691022 17.9128
213 1 -1.1104 3.73333 0.0187391 15.1027
215 2 2.2208 5.00043 6.93108 16.341
216 1 -1.1104 0.84777 8.43076 18.1371
218 1 -1.1104 0.945898 8.27713 15.3335
221 1 -1.1104 0.930985 5.48552 17.6785
223 1 -1.1104 0.938015 5.42284 14.9291
227 1 -1.1104 3.56545 8.18435 17.7735
228 2 2.2208 2.32759 6.85188 19.1456
229 1 -1.1104 3.51314 8.26796 15.1112
231 1 -1.1104 3.48883 5.44547 17.8212
232 1 -1.1104 3.68663 5.48557 14.9999
185 1 -1.1104 6.63084 -2.6376 17.9404
219 1 -1.1104 6.52217 8.27432 14.9267
8892 2 2.2208 10.9194 -4.25949 16.3842
337 2 2.2208 13.4909 1.45573 24.8548
226 1 -1.1104 6.26918 5.71162 20.7488
192 1 -1.1104 6.64274 -3.02291 20.7205
191 1 -1.1104 6.53546 -2.83109 15.0982
193 1 -1.1104 6.52219 2.81558 14.9972
217 1 -1.1104 6.38751 8.40088 17.8091
8790 2 2.2208 7.94316 -4.31948 24.7859
233 1 -1.1104 3.36457 5.57366 20.712
230 1 -1.1104 3.78919 8.09533 20.41
224 1 -1.1104 0.649503 5.83971 20.5048
214 1 -1.1104 3.7363 -0.0196543 20.7104
209 1 -1.1104 3.7809 2.88157 20.8547
190 1 -1.1104 1.05951 2.80101 20.6842
234 2 2.2208 13.5117 4.07717 22.0982
8878 2 2.2208 2.45549 -4.29863 24.7335
243 1 -1.1104 12.1052 5.57978 26.3249
283 2 2.2208 13.5136 4.27139 16.4681
244 1 -1.1104 12.3329 5.50235 23.608
8734 2 2.2208 13.5545 -4.19355 24.7589
201 1 -1.1104 6.58847 -0.0151046 15.0376
186 1 -1.1104 6.49328 2.84648 17.8922
222 1 -1.1104 6.34183 5.55161 17.8137
8879 2 2.2208 5.12053 -4.32067 22.047
220 1 -1.1104 6.69438 8.28998 20.8374
196 1 -1.1104 6.70436 0.0544055 17.7412
225 1 -1.1104 6.48097 5.62154 15.0247
245 2 2.2208 10.6898 1.46012 16.4612
246 1 -1.1104 12.3461 -2.76717 17.693
247 1 -1.1104 12.2277 2.91237 17.9306
248 1 -1.1104 12.4113 -2.65519 14.8948
250 1 -1.1104 12.2543 2.87467 15.0144
252 1 -1.1104 12.1686 0.104503 17.8854
253 2 2.2208 10.8483 -1.45218 19.1638
254 2 2.2208 10.6452 4.18572 19.2989
255 1 -1.1104 12.2161 0.100589 15.0478
257 1 -1.1104 9.51207 -2.87532 17.831
258 1 -1.1104 9.36307 2.61349 18.1097
259 2 2.2208 7.87994 1.358 19.427
260 1 -1.1104 9.49697 -2.84626 15.1353
262 1 -1.1104 9.23901 2.85391 14.9278
264 2 2.2208 8.06515 -1.53247 16.4983
265 2 2.2208 7.82375 4.17842 16.4374
266 1 -1.1104 9.24001 -0.167694 17.9201
267 1 -1.1104 9.41135 -0.0149893 15.163
269 2 2.2208 10.6888 7.1586 16.5586
270 1 -1.1104 12.0151 8.42377 18.0188
271 1 -1.1104 12.1835 8.29767 15.127
273 1 -1.1104 12.0761 5.76768 17.763
274 1 -1.1104 12.0654 5.68074 14.9991
276 1 -1.1104 9.23877 8.38837 17.8598
277 2 2.2208 7.79192 6.83339 19.2393
278 1 -1.1104 9.45511 8.42785 15.225
280 1 -1.1104 9.11961 5.48398 17.8576
281 1 -1.1104 9.24152 5.61154 15.009
8903 2 2.2208 2.35306 -4.3567 19.1928
279 1 -1.1104 9.4024 8.36441 20.692
256 1 -1.1104 12.0282 -0.0665054 20.7789
202 1 -1.1104 6.3116 -0.12822 20.5304
263 1 -1.1104 9.36107 2.85328 20.7497
282 1 -1.1104 9.14227 5.58744 20.6763
272 1 -1.1104 12.2839 8.30205 20.8971
236 2 2.2208 13.5569 1.30765 19.2736
341 1 -1.1104 12.0861 8.32915 23.6122
346 1 -1.1104 9.53835 5.52733 23.608
357 1 -1.1104 12.2227 0.0079324 26.2102
200 1 -1.1104 0.92941 -0.0706913 20.744
188 1 -1.1104 1.02 -2.88153 20.5875
207 1 -1.1104 3.85178 -2.78941 20.7214
294 2 2.2208 5.12839 1.26385 22.102
295 1 -1.1104 0.811069 -2.84954 23.3379
296 1 -1.1104 0.85343 2.92065 23.5031
299 1 -1.1104 1.10826 -2.86227 26.2535
300 1 -1.1104 1.01025 2.62707 26.262
303 1 -1.1104 1.15704 -0.033548 23.5218
305 2 2.2208 5.29737 -1.47158 24.8861
306 2 2.2208 5.20295 4.25547 24.9411
307 1 -1.1104 0.951698 -0.16182 26.3989
309 1 -1.1104 3.76964 -2.87728 23.555
310 1 -1.1104 3.72834 2.53016 23.5493
311 2 2.2208 2.29607 1.31249 24.9899
312 1 -1.1104 3.80474 -2.82525 26.2231
313 1 -1.1104 3.83204 2.93127 26.2647
314 2 2.2208 2.44465 -1.45225 22.0337
315 2 2.2208 2.40016 4.14535 22.2297
316 1 -1.1104 3.96775 -0.182603 23.4438
317 1 -1.1104 3.85818 0.0120467 26.2688
318 2 2.2208 5.10497 6.99738 22.184
319 1 -1.1104 0.89276 8.18445 23.4301
321 1 -1.1104 0.869799 8.26831 26.2782
323 1 -1.1104 0.839672 5.58827 23.5781
325 1 -1.1104 0.836743 5.48602 26.4193
327 1 -1.1104 3.81184 8.31115 23.6076
328 2 2.2208 2.3764 7.02158 24.7372
329 1 -1.1104 3.80506 8.31863 26.2287
330 1 -1.1104 3.84496 5.43219 23.4876
331 1 -1.1104 3.73474 5.63683 26.277
308 1 -1.1104 6.62316 0.0298513 26.3477
297 1 -1.1104 6.47211 -2.82544 23.5039
322 1 -1.1104 6.62821 8.39091 26.4774
287 2 2.2208 13.6674 -1.29532 16.3979
336 2 2.2208 13.4841 7.04164 24.9408
335 2 2.2208 5.14222 7.02017 27.8011
351 1 -1.1104 12.1258 2.79065 23.4812
334 2 2.2208 2.35525 4.1674 27.7413
340 2 2.2208 10.8118 7.01625 27.7195
338 2 2.2208 13.5872 -1.40876 22.0851
242 1 -1.1104 9.22696 8.37606 23.5458
251 1 -1.1104 12.0963 2.77779 20.7264
345 1 -1.1104 9.34104 5.59192 26.4321
366 1 -1.1104 9.37654 -0.156381 26.244
361 1 -1.1104 9.33944 -2.87905 26.1928
324 1 -1.1104 6.59952 5.63733 23.432
304 1 -1.1104 6.77658 -0.127161 23.4089
298 1 -1.1104 6.45573 2.84666 23.4132
326 1 -1.1104 6.51946 5.74452 26.3459
356 2 2.2208 10.7106 4.11139 24.9405
362 1 -1.1104 9.318 2.71435 26.2525
365 1 -1.1104 9.54324 0.00341738 23.5701
349 2 2.2208 10.693 1.37644 21.9956
364 2 2.2208 7.95302 4.28937 22.1542
348 2 2.2208 7.94201 6.95101 24.975
355 2 2.2208 10.8115 -1.43242 24.8314
352 1 -1.1104 12.1089 -2.80691 26.2021
194 1 -1.1104 6.66286 2.69996 20.7792
358 1 -1.1104 9.30452 -2.90336 23.3341
302 1 -1.1104 6.57423 2.89071 26.2233
301 1 -1.1104 6.64604 -2.66062 26.2967
360 2 2.2208 8.01729 1.34675 24.8302
353 1 -1.1104 12.2173 2.77564 26.351
261 1 -1.1104 9.34695 -2.89487 20.5782
268 1 -1.1104 9.15655 0.000698496 20.721
249 1 -1.1104 12.1826 -2.71068 20.4415
347 1 -1.1104 9.33985 8.32079 26.3105
333 1 -1.1104 12.1362 8.44088 26.3955
367 2 2.2208 10.6884 6.98061 22.0897
363 2 2.2208 7.88109 -1.48626 21.9471
275 1 -1.1104 12.0204 5.60886 20.6298
359 1 -1.1104 9.37282 2.78136 23.5576
354 1 -1.1104 12.1792 0.116519 23.4599
320 1 -1.1104 6.51668 8.45107 23.5428
350 1 -1.1104 12.1388 -2.89544 23.3767
180 2 2.2208 2.42906 -1.50357 27.6335
8929 2 2.2208 5.18155 -4.37805 16.4454
288 2 2.2208 13.5276 4.20187 27.5716
177 2 2.2208 2.25303 6.92967 13.7543
235 2 2.2208 7.87102 4.15873 27.6152
176 2 2.2208 5.19856 -1.43709 13.5539
8751 2 2.2208 10.6655 -4.27186 27.6116
332 2 2.2208 5.11657 1.40514 27.6978
368 2 2.2208 5.11174 12.5482 5.20303
369 1 -1.1104 1.06277 11.1166 1.01925
373 2 2.2208 5.0868 9.78686 2.48647
374 1 -1.1104 0.902642 11.0757 3.81144
376 2 2.2208 2.31057 12.6057 2.47293
377 2 2.2208 2.3159 9.78461 5.38694
378 1 -1.1104 3.84636 11.1217 1.17001
380 1 -1.1104 3.61647 11.1354 4.04888
381 2 2.2208 5.07992 18.0286 5.23421
382 1 -1.1104 0.974744 13.8747 0.980844
384 1 -1.1104 0.813912 19.4648 0.865836
388 1 -1.1104 0.84261 13.9036 3.84475
389 1 -1.1104 1.08675 19.6377 3.46208
391 1 -1.1104 0.93793 16.7042 1.02528
394 2 2.2208 5.13244 15.3397 2.42396
395 2 2.2208 5.11799 20.9418 2.2686
396 1 -1.1104 0.844858 16.768 3.91037
398 1 -1.1104 3.73334 13.9428 0.969588
400 1 -1.1104 3.66719 19.4066 0.927697
402 2 2.2208 2.27601 18.0935 2.31386
403 1 -1.1104 3.56195 14.0473 3.74476
404 1 -1.1104 3.82452 19.6718 3.85965
405 2 2.2208 2.32217 15.2672 5.22277
406 2 2.2208 2.37003 20.9037 5.11832
407 1 -1.1104 3.81427 16.645 1.12363
409 1 -1.1104 3.78528 16.7983 3.85991
615 2 2.2208 13.6327 18.15 13.7583
397 1 -1.1104 6.60153 16.7322 3.83523
390 1 -1.1104 6.63656 13.7532 3.93484
425 1 -1.1104 6.55048 19.4404 1.04769
401 1 -1.1104 3.80467 19.5294 6.71201
371 1 -1.1104 6.71081 11.2788 1.04747
697 2 2.2208 13.6709 12.515 13.6896
470 1 -1.1104 0.959772 19.5194 6.56872
399 1 -1.1104 3.69973 14.0067 6.5525
392 1 -1.1104 0.825863 16.7146 6.76163
408 1 -1.1104 3.81898 16.8078 6.64893
393 1 -1.1104 6.56221 16.7802 6.5939
495 2 2.2208 7.90296 15.2706 10.8257
650 2 2.2208 2.3121 15.3302 -0.392696
427 1 -1.1104 6.63304 16.6986 1.02527
426 1 -1.1104 6.58065 19.5038 3.85702
375 1 -1.1104 6.47788 11.0729 3.81057
508 1 -1.1104 12.19 13.9194 9.54548
385 1 -1.1104 6.53587 13.9757 1.1388
415 2 2.2208 10.7146 12.6514 5.16609
416 1 -1.1104 12.3566 11.1652 1.17173
418 2 2.2208 10.768 9.74388 2.29144
419 1 -1.1104 12.1306 11.2491 3.79312
420 2 2.2208 8.11637 12.6239 2.42779
421 2 2.2208 8.00461 9.53577 5.21737
422 1 -1.1104 9.58614 11.2302 1.03514
424 1 -1.1104 9.38313 11.1706 3.65039
428 2 2.2208 10.8428 18.2698 5.31983
429 1 -1.1104 12.2029 13.9431 1.19198
431 1 -1.1104 12.1186 19.4925 1.08529
433 1 -1.1104 12.1899 13.9765 3.94924
434 1 -1.1104 12.09 19.6989 3.94283
435 1 -1.1104 12.2143 16.7434 1.08248
437 2 2.2208 10.8728 15.4993 2.3819
438 2 2.2208 10.8742 20.9269 2.52151
439 1 -1.1104 12.237 16.8722 3.85605
440 1 -1.1104 9.42947 14.0247 0.989443
442 1 -1.1104 9.54355 19.4822 1.17215
444 2 2.2208 7.93256 18.2459 2.55446
445 1 -1.1104 9.28561 14.1265 3.77901
446 1 -1.1104 9.37452 19.6001 4.0532
447 2 2.2208 8.02886 15.4887 5.14848
448 2 2.2208 7.9304 20.961 5.29932
449 1 -1.1104 9.45242 16.8435 1.15018
451 1 -1.1104 9.41496 17.0191 3.94084
387 1 -1.1104 6.52871 19.6535 6.60679
450 1 -1.1104 9.4 16.7133 6.66447
386 1 -1.1104 6.50244 13.92 6.59796
372 1 -1.1104 6.72007 11.0251 6.65925
499 1 -1.1104 9.45246 19.467 12.2213
9405 2 2.2208 -0.590416 18.1719 5.24496
453 2 2.2208 13.4904 12.6151 2.52778
502 2 2.2208 10.8821 20.9762 8.02926
443 1 -1.1104 9.47204 19.6274 6.66436
379 1 -1.1104 3.65994 11.1867 6.66481
370 1 -1.1104 0.802532 11.2832 6.72385
383 1 -1.1104 0.917061 13.8872 6.54145
457 1 -1.1104 6.59602 16.7798 9.34789
456 1 -1.1104 6.5816 19.4813 9.54102
454 1 -1.1104 3.79597 19.436 12.3259
455 1 -1.1104 3.90027 13.7594 12.3365
459 1 -1.1104 1.0201 19.5524 9.35315
460 1 -1.1104 1.14846 16.7384 9.59507
461 2 2.2208 5.05458 20.8405 8.07009
462 1 -1.1104 0.95579 13.8914 9.54859
463 2 2.2208 5.17558 15.3017 7.96998
466 1 -1.1104 1.02333 19.5543 12.0776
467 1 -1.1104 1.15522 13.8883 12.2065
468 2 2.2208 5.21725 18.1365 10.8728
469 1 -1.1104 3.74091 19.5664 9.56191
471 2 2.2208 2.47757 18.1574 8.01467
472 1 -1.1104 3.81907 16.6094 9.45745
473 1 -1.1104 3.77869 13.9095 9.47715
475 1 -1.1104 1.01735 16.7927 12.3007
476 1 -1.1104 3.82907 16.7653 12.2894
477 2 2.2208 2.26925 20.8512 10.8773
478 2 2.2208 5.20186 12.4927 10.8587
479 1 -1.1104 0.897536 11.202 12.3947
481 2 2.2208 2.41366 15.3533 10.865
482 2 2.2208 5.33151 9.75345 7.95378
483 1 -1.1104 0.904217 11.2276 9.48043
485 2 2.2208 2.28033 12.6267 8.04944
486 2 2.2208 2.35971 9.65087 10.8816
487 1 -1.1104 3.74687 10.9489 12.4004
488 1 -1.1104 3.61271 11.16 9.40279
458 1 -1.1104 6.57756 13.8661 9.40481
464 1 -1.1104 6.70252 19.4736 12.131
518 2 2.2208 13.4798 9.69099 10.7368
521 2 2.2208 5.2892 9.76829 13.7323
9408 2 2.2208 -0.34253 15.1444 7.96922
497 1 -1.1104 9.30852 13.9671 9.36544
9406 2 2.2208 -0.405078 20.8507 8.0938
441 1 -1.1104 9.2479 14.0531 6.5303
498 2 2.2208 7.94819 18.1557 8.05758
501 1 -1.1104 12.1101 16.7065 9.62607
507 1 -1.1104 12.3194 19.6725 9.53234
474 1 -1.1104 6.67947 16.795 12.2529
480 1 -1.1104 6.63602 11.1969 12.425
465 1 -1.1104 6.65091 13.9399 12.1731
490 2 2.2208 10.7801 9.8198 7.87404
611 2 2.2208 10.8815 9.75844 13.6915
489 1 -1.1104 12.1399 11.2184 9.36658
414 2 2.2208 13.6122 18.1762 8.08902
492 1 -1.1104 9.41431 16.785 9.39268
504 2 2.2208 10.8935 15.3717 8.23054
436 1 -1.1104 12.2663 16.8753 6.6715
423 1 -1.1104 9.43955 11.1703 6.63812
513 2 2.2208 10.7876 18.1051 10.8871
500 1 -1.1104 9.4147 14.0131 12.2333
511 1 -1.1104 12.336 19.428 12.3335
484 1 -1.1104 6.46743 11.1425 9.50648
509 2 2.2208 7.94029 9.85085 10.9002
432 1 -1.1104 12.1541 19.6476 6.71383
417 1 -1.1104 12.1971 11.2619 6.54738
430 1 -1.1104 12.0544 14.0237 6.77172
512 1 -1.1104 12.3554 13.9713 12.3783
503 1 -1.1104 9.40451 11.2744 9.49651
493 1 -1.1104 9.40986 16.659 12.1248
494 2 2.2208 7.98508 21.0119 10.8282
514 2 2.2208 10.7447 12.5081 10.841
506 1 -1.1104 9.33146 11.2096 12.2771
505 1 -1.1104 12.3133 16.7866 12.3826
510 2 2.2208 8.0428 12.6398 7.95744
496 1 -1.1104 9.42691 19.6188 9.41617
491 1 -1.1104 12.1052 11.0941 12.2443
515 2 2.2208 13.5681 9.80422 5.17938
410 2 2.2208 -0.491081 15.3494 2.51972
649 2 2.2208 5.18371 18.0229 -0.447898
520 2 2.2208 2.44302 18.1898 13.6557
687 2 2.2208 7.96505 20.8945 -0.348148
524 2 2.2208 5.0981 15.3339 13.5768
523 2 2.2208 2.42666 12.4296 13.733
648 2 2.2208 2.43177 20.8676 -0.293533
653 2 2.2208 -0.533336 12.5711 -0.437461
612 2 2.2208 10.9014 20.8648 13.808
526 2 2.2208 5.14146 12.5598 16.4229
527 1 -1.1104 0.978826 11.0407 18.2092
529 2 2.2208 5.04966 9.72261 19.3615
530 1 -1.1104 1.00879 11.0596 15.1968
533 2 2.2208 2.50615 12.6456 19.261
534 2 2.2208 2.32258 9.76194 16.5148
535 1 -1.1104 3.67699 11.1377 17.8004
536 1 -1.1104 3.83343 11.0093 15.1343
538 2 2.2208 5.17842 18.1807 16.5172
539 1 -1.1104 1.06734 13.8403 17.8708
540 1 -1.1104 1.01493 19.556 17.8474
543 1 -1.1104 1.03967 13.9009 14.9842
545 1 -1.1104 1.04773 19.3652 14.9804
551 1 -1.1104 1.06808 16.6637 17.9409
553 2 2.2208 5.26383 15.3064 19.3141
554 2 2.2208 5.27731 20.9071 19.3563
555 1 -1.1104 1.21867 16.6988 15.1278
559 1 -1.1104 3.89627 14.0266 17.8078
560 1 -1.1104 3.87578 19.7045 17.9046
561 2 2.2208 2.34526 18.1024 19.3408
562 1 -1.1104 3.77561 13.8864 15.1854
564 1 -1.1104 3.72707 19.5623 15.2108
566 2 2.2208 2.48931 15.3711 16.6097
567 2 2.2208 2.40007 20.937 16.6103
568 1 -1.1104 3.98691 16.7626 17.9243
569 1 -1.1104 3.88755 16.9042 15.199
537 1 -1.1104 3.60978 11.3556 20.655
528 1 -1.1104 6.40078 11.1488 17.9952
552 1 -1.1104 6.65556 16.8245 17.8605
547 1 -1.1104 6.57101 14.0157 15.0891
9417 2 2.2208 -0.325485 20.8747 13.7532
542 1 -1.1104 6.56921 19.6602 17.8787
531 1 -1.1104 6.53708 11.2647 15.069
695 2 2.2208 13.5078 12.5145 25.1084
550 1 -1.1104 6.64052 19.3539 20.8349
544 1 -1.1104 0.995528 13.5817 20.6101
563 1 -1.1104 3.80201 14.0449 20.6117
558 1 -1.1104 6.62579 16.6493 20.7428
565 1 -1.1104 3.90314 19.6275 20.6503
556 1 -1.1104 0.758761 16.5938 20.6366
651 2 2.2208 2.29426 9.7239 27.6978
572 2 2.2208 5.21445 20.9259 13.5896
9465 2 2.2208 13.5022 21.002 16.5059
557 1 -1.1104 6.69156 16.7938 15.1314
549 1 -1.1104 6.51602 19.5154 15.0365
541 1 -1.1104 6.67164 13.9522 17.8644
577 2 2.2208 10.7749 12.5158 16.5503
578 1 -1.1104 12.0953 11.0125 17.8483
579 2 2.2208 10.575 9.70977 19.4063
580 1 -1.1104 12.2327 11.0769 15.0051
582 2 2.2208 8.02252 12.6635 19.3315
583 2 2.2208 7.93352 9.74829 16.5096
584 1 -1.1104 9.24194 11.1742 17.7983
585 1 -1.1104 9.4636 11.2786 14.9574
587 2 2.2208 10.6796 18.174 16.5536
588 1 -1.1104 12.0751 13.9199 17.8957
589 1 -1.1104 12.1579 19.3106 17.9078
590 1 -1.1104 12.4013 13.8232 15.1884
592 1 -1.1104 12.1025 19.38 15.1635
594 1 -1.1104 12.2151 16.6639 18.1124
595 2 2.2208 10.8009 15.3629 19.4206
596 2 2.2208 10.6992 20.8788 19.3078
597 1 -1.1104 12.3021 16.5835 15.2521
599 1 -1.1104 9.40744 13.886 18.0172
600 1 -1.1104 9.24506 19.5517 17.9213
601 2 2.2208 7.9606 18.0932 19.4115
602 1 -1.1104 9.43086 14.0692 15.0998
604 1 -1.1104 9.30687 19.6096 15.0483
606 2 2.2208 8.01305 15.4241 16.3649
607 2 2.2208 7.95128 20.9227 16.5982
608 1 -1.1104 9.45611 16.6487 17.8085
609 1 -1.1104 9.4666 16.8941 14.8597
593 1 -1.1104 12.1775 19.5738 20.7408
610 1 -1.1104 9.35628 16.8093 20.6785
581 1 -1.1104 12.2753 10.972 20.7231
598 1 -1.1104 12.1291 16.6691 20.9242
532 1 -1.1104 6.60818 11.2302 20.6937
591 1 -1.1104 12.1758 13.9122 20.6564
603 1 -1.1104 9.35223 14.0882 20.8502
586 1 -1.1104 9.37048 11.2321 20.7412
662 2 2.2208 8.07173 20.9456 22.0723
9460 2 2.2208 13.4717 21.044 22.1446
689 2 2.2208 7.97848 9.76592 27.633
657 2 2.2208 -0.406228 18.2094 22.0538
690 2 2.2208 10.8124 12.5691 27.8055
654 2 2.2208 -0.561959 15.3881 24.8617
546 1 -1.1104 1.05905 19.4889 20.6913
658 2 2.2208 -0.380918 9.68183 24.9097
681 1 -1.1104 12.1416 13.8965 23.4424
671 1 -1.1104 9.45449 11.1848 26.3486
573 2 2.2208 13.4555 12.4716 19.3108
570 1 -1.1104 3.7694 16.8305 20.6933
616 1 -1.1104 3.77898 19.552 23.3647
618 1 -1.1104 3.60632 14.0305 23.4001
620 1 -1.1104 1.02159 19.5715 26.0978
621 1 -1.1104 0.839256 16.795 26.2408
622 1 -1.1104 0.990903 14.0043 26.2836
624 2 2.2208 5.08813 20.97 24.9025
625 2 2.2208 5.08911 15.4531 24.8844
627 1 -1.1104 1.03563 19.6434 23.3584
628 1 -1.1104 0.723978 14.0666 23.3708
629 2 2.2208 5.15672 18.0621 22.0999
630 1 -1.1104 3.85887 19.479 26.2131
631 2 2.2208 2.40322 18.1621 24.8511
632 1 -1.1104 3.55735 16.6777 26.4069
633 1 -1.1104 3.75808 14.005 26.3032
635 1 -1.1104 1.03028 16.8268 23.3224
636 1 -1.1104 3.85956 16.7411 23.5098
637 2 2.2208 2.4243 20.9975 22.0708
638 2 2.2208 5.01358 12.5508 22.0905
639 1 -1.1104 0.889856 11.1894 23.4919
641 2 2.2208 2.29658 15.313 21.8583
642 2 2.2208 5.06764 9.81964 24.9042
643 1 -1.1104 0.955507 11.1673 26.3136
645 2 2.2208 2.30759 12.6392 24.8798
646 1 -1.1104 3.96906 11.4423 23.8222
647 1 -1.1104 3.61654 11.1456 26.5792
626 1 -1.1104 6.49439 14.0586 23.7087
548 1 -1.1104 6.50489 13.9513 20.9374
619 1 -1.1104 6.54473 16.8543 26.2697
660 1 -1.1104 9.49829 16.6843 26.3689
683 2 2.2208 10.8148 12.5825 22.1028
575 2 2.2208 13.5176 9.73692 16.4702
661 1 -1.1104 9.26715 16.8984 23.4877
605 1 -1.1104 9.41284 19.5718 20.7288
677 1 -1.1104 9.36271 11.2281 23.5444
679 2 2.2208 7.91981 12.5662 24.8724
675 1 -1.1104 12.1426 19.5757 26.4901
684 1 -1.1104 12.2891 11.2199 23.5825
676 1 -1.1104 12.2184 14.0619 26.3691
666 1 -1.1104 6.5495 19.5526 26.2677
623 1 -1.1104 6.64949 19.7366 23.4218
674 1 -1.1104 12.1679 16.7381 23.5877
672 2 2.2208 10.7814 21.0105 25.0625
664 1 -1.1104 9.32702 19.5877 26.3111
678 2 2.2208 7.8316 9.87435 22.1745
685 2 2.2208 10.8295 9.82148 24.9384
686 1 -1.1104 12.2525 11.2231 26.3624
670 1 -1.1104 12.2183 16.7922 26.4154
634 1 -1.1104 6.54685 16.8983 23.506
680 1 -1.1104 12.1263 19.6839 23.7295
663 2 2.2208 7.8519 15.4372 22.3448
669 1 -1.1104 9.33235 14.0477 23.5081
667 2 2.2208 7.9422 18.2742 24.8676
682 2 2.2208 10.8181 18.2177 22.1778
617 1 -1.1104 6.55304 13.9044 26.3557
640 1 -1.1104 6.5093 11.1609 23.5793
673 2 2.2208 10.7561 15.3546 24.9209
644 1 -1.1104 6.50499 11.0934 26.2769
668 1 -1.1104 9.37147 19.6462 23.5873
665 1 -1.1104 9.51526 13.8513 26.2192
613 2 2.2208 10.9098 15.4001 13.6215
652 2 2.2208 5.12015 12.5467 27.7988
688 2 2.2208 10.7864 18.1381 27.7568
691 2 2.2208 7.85323 15.3433 27.6912
614 2 2.2208 8.00249 18.2499 13.6455
576 2 2.2208 8.01317 12.6997 13.6864
698 2 2.2208 5.14072 23.6492 5.21628
699 2 2.2208 5.13439 29.402 5.16121
700 1 -1.1104 1.05104 25.0725 1.1615
701 1 -1.1104 1.03129 25.1766 4.01454
702 1 -1.1104 1.14486 22.2235 1.0448
703 1 -1.1104 1.08405 27.8357 1.07361
704 2 2.2208 5.17793 26.5923 2.51498
705 1 -1.1104 1.07587 22.3009 3.73164
706 1 -1.1104 1.08301 27.905 3.89577
707 1 -1.1104 3.84008 25.0292 1.04177
708 2 2.2208 2.46601 23.6866 2.43637
709 2 2.2208 2.4099 29.3579 2.42344
710 1 -1.1104 3.87676 25.0719 3.86972
711 2 2.2208 2.36706 26.5931 5.29357
712 1 -1.1104 3.79921 22.2356 0.922544
713 1 -1.1104 3.85771 28.0225 0.917509
714 1 -1.1104 3.96214 22.3688 3.60574
715 1 -1.1104 3.75453 28.0642 3.70076
716 1 -1.1104 1.09992 30.6592 1.06979
717 1 -1.1104 0.962998 30.7044 3.87521
718 1 -1.1104 1.06561 33.412 1.0897
719 2 2.2208 5.24532 32.2065 2.47133
720 1 -1.1104 1.0628 33.5187 4.04235
722 1 -1.1104 3.83821 30.8112 1.10215
723 1 -1.1104 3.74864 30.8765 3.83752
724 2 2.2208 2.36976 32.0903 5.2828
725 1 -1.1104 3.82581 33.6504 1.02032
726 1 -1.1104 3.75424 33.4818 3.85205
780 1 -1.1104 0.991094 30.6006 6.72731
736 1 -1.1104 6.411 27.9258 3.87257
986 2 2.2208 2.43112 32.0975 -0.340008
755 1 -1.1104 6.64768 30.7123 0.989085
757 1 -1.1104 6.66613 33.5131 1.06382
721 1 -1.1104 6.69163 33.3902 3.94821
774 1 -1.1104 1.10394 27.8713 6.83027
779 1 -1.1104 3.81525 28.0905 6.504
778 1 -1.1104 3.70074 22.3278 6.4539
772 1 -1.1104 6.62928 25.0317 6.59654
990 2 2.2208 7.90238 26.5177 -0.360367
776 1 -1.1104 6.55388 27.8751 6.67031
771 1 -1.1104 0.948227 25.2052 6.67464
773 1 -1.1104 0.919136 22.3404 6.69611
838 2 2.2208 10.6977 26.5743 8.06299
837 1 -1.1104 12.2958 28.0092 12.3964
987 2 2.2208 5.15853 29.3991 -0.444037
984 2 2.2208 5.11072 23.6731 -0.405405
734 1 -1.1104 6.65216 28.025 1.03399
733 1 -1.1104 6.50074 22.3275 0.929868
732 1 -1.1104 6.57216 25.0711 3.78809
735 1 -1.1104 6.53857 22.2026 3.83237
756 1 -1.1104 6.63771 30.7633 3.90063
731 1 -1.1104 6.61102 25.1907 1.01368
737 2 2.2208 10.7256 23.6548 5.18101
738 2 2.2208 10.9368 29.436 5.27488
739 1 -1.1104 12.2037 25.2677 1.11176
740 1 -1.1104 12.2246 25.0151 3.96422
741 1 -1.1104 12.2066 22.5566 1.0989
742 1 -1.1104 12.2007 28.1763 1.12256
743 2 2.2208 10.7895 26.5303 2.52071
744 1 -1.1104 12.2135 22.3244 3.84585
745 1 -1.1104 12.205 27.8334 3.88258
746 1 -1.1104 9.45297 25.043 1.08027
747 2 2.2208 7.87871 23.7249 2.43488
748 2 2.2208 8.02201 29.3074 2.46049
749 1 -1.1104 9.37298 25.2272 3.91689
750 2 2.2208 7.89469 26.5799 5.32058
751 1 -1.1104 9.35073 22.2415 1.19261
752 1 -1.1104 9.4339 27.9358 1.11777
753 1 -1.1104 9.54019 22.3304 3.88393
754 1 -1.1104 9.33332 27.8984 3.79926
758 1 -1.1104 12.2604 30.9695 1.03002
759 1 -1.1104 12.3924 30.9694 3.81052
760 1 -1.1104 12.3526 33.5966 1.12844
761 2 2.2208 10.9033 32.2432 2.49436
762 1 -1.1104 12.361 33.6065 3.93091
763 1 -1.1104 9.413 30.9598 1.30114
764 1 -1.1104 9.50325 30.7105 3.86902
765 2 2.2208 8.04466 32.0671 5.22009
766 1 -1.1104 9.44151 33.6182 1.1933
767 1 -1.1104 9.47866 33.5342 3.91554
826 1 -1.1104 9.34069 22.4816 6.62882
852 1 -1.1104 12.2935 33.4091 12.4722
827 1 -1.1104 9.46605 28.06 6.76226
848 1 -1.1104 9.56707 22.4272 9.43065
845 2 2.2208 7.9919 26.3732 10.8787
952 2 2.2208 10.8455 29.392 -0.223474
991 2 2.2208 10.9807 23.775 -0.205459
822 1 -1.1104 12.207 25.2735 6.73841
988 2 2.2208 8.09943 32.0294 -0.244964
785 1 -1.1104 3.90178 33.5875 6.54797
784 1 -1.1104 3.80992 30.7908 6.55776
781 1 -1.1104 6.55766 30.5048 6.82585
777 1 -1.1104 3.76782 25.2107 6.65632
782 1 -1.1104 0.989101 33.5307 6.86481
786 2 2.2208 5.24181 23.6535 10.7981
787 2 2.2208 5.29265 29.2635 10.9385
788 1 -1.1104 0.985181 25.1822 12.164
790 1 -1.1104 1.23655 25.1715 9.37574
792 1 -1.1104 0.849795 22.0681 12.3055
793 1 -1.1104 0.976422 27.9556 12.3423
796 2 2.2208 5.23874 26.4591 8.06228
797 1 -1.1104 0.92031 22.3683 9.27604
798 1 -1.1104 1.18704 28.1085 9.49245
801 1 -1.1104 3.75681 25.0552 12.2221
802 2 2.2208 2.52319 23.6962 8.14789
803 2 2.2208 2.49856 29.2679 8.00704
804 1 -1.1104 3.86657 25.1524 9.39521
805 2 2.2208 2.48975 26.5434 10.9871
806 1 -1.1104 3.7055 22.1979 12.2278
807 1 -1.1104 3.75904 27.8084 12.3825
808 1 -1.1104 3.66036 22.2449 9.36907
809 1 -1.1104 3.868 27.8047 9.35263