ITEM: TIMESTEP
20000
ITEM: NUMBER OF ATOMS
17910
ITEM: BOX BOUNDS pp pp pp
-3.6136774444197045e-01 2.7701367744441860e+01
-4.2884950188569020e+00 3.3236849501885479e+02
-3.6354761331907937e-01 2.7703547613319206e+01
ITEM: ATOMS id type q x y z
1 2 2.2208 5.40253 1.21736 5.32721
2 1 -1.1104 0.972242 -2.92935 0.971758
3 1 -1.1104 0.975481 2.52547 1.15777
6 1 -1.1104 1.08921 -2.93775 4.02834
7 1 -1.1104 1.10545 2.73386 3.79008
10 1 -1.1104 1.06991 -0.124225 1.08751
12 2 2.2208 5.25986 -1.51061 2.50669
13 2 2.2208 5.24605 4.06578 2.54469
14 1 -1.1104 1.05735 -0.164162 3.74808
16 1 -1.1104 3.69815 -2.88942 0.975412
17 1 -1.1104 3.89439 2.75959 1.03663
18 2 2.2208 2.54999 1.33258 2.48185
19 1 -1.1104 3.88512 -2.76255 3.88615
20 1 -1.1104 3.93157 2.70587 3.97782
21 2 2.2208 2.59719 -1.51503 5.33488
22 2 2.2208 2.4623 4.22439 5.30208
23 1 -1.1104 3.87792 -0.126976 1.03531
24 1 -1.1104 3.97001 -0.15314 3.84534
25 2 2.2208 5.31435 6.87885 5.37729
28 1 -1.1104 1.10989 8.09975 3.73568
30 1 -1.1104 1.0677 5.51537 1.02728
32 1 -1.1104 1.00149 5.55057 3.91334
34 1 -1.1104 3.79795 8.28123 1.11657
35 2 2.2208 2.55522 6.89683 2.50469
36 1 -1.1104 3.93492 8.38494 3.92589
37 1 -1.1104 3.77003 5.44923 1.05879
38 1 -1.1104 3.91229 5.52066 3.94164
26 1 -1.1104 0.987195 8.24156 0.95528
172 1 -1.1104 12.149 8.2719 12.2694
94 1 -1.1104 3.84171 5.62508 6.70009
84 1 -1.1104 0.883199 0.189259 6.5169
4 1 -1.1104 6.57361 -2.79295 0.921464
15 1 -1.1104 6.68699 -0.245855 3.82495
11 1 -1.1104 6.581 -0.0466701 1.17013
91 1 -1.1104 0.965649 5.5645 6.75025
86 1 -1.1104 4.11479 -2.94167 6.6224
81 1 -1.1104 1.2344 2.90995 6.53817
83 1 -1.1104 6.72136 2.82058 6.54448
8707 2 2.2208 5.21995 -4.50153 5.20066
291 2 2.2208 10.8701 -1.4461 13.7737
31 1 -1.1104 6.56571 5.44842 1.18482
8 1 -1.1104 6.55118 -3.00183 3.76096
176 2 2.2208 5.40341 -1.42475 13.8482
80 1 -1.1104 1.22055 -2.71374 6.65827
93 1 -1.1104 3.9521 8.35528 6.72347
88 1 -1.1104 3.91915 -0.170404 6.79752
133 2 2.2208 -0.294269 4.1627 8.18291
9 1 -1.1104 6.63586 2.72791 3.84967
5 1 -1.1104 6.64366 2.79313 1.18866
27 1 -1.1104 6.68164 8.24587 1.03504
90 1 -1.1104 6.747 8.39763 6.56297
92 1 -1.1104 6.55886 5.54737 6.71352
82 1 -1.1104 6.67054 -3.1072 6.51803
29 1 -1.1104 6.58508 8.47366 3.8625
33 1 -1.1104 6.63935 5.55404 3.88851
166 1 -1.1104 9.45222 2.75575 9.46959
46 2 2.2208 10.943 1.29447 5.26347
47 1 -1.1104 12.1564 -2.80593 1.03272
48 1 -1.1104 12.1787 2.90674 1.03534
49 1 -1.1104 12.222 -3.03797 3.80382
50 1 -1.1104 12.2558 2.5984 4.02335
51 1 -1.1104 12.383 0.0474876 1.04904
52 2 2.2208 10.93 -1.40216 2.33818
53 2 2.2208 10.8512 4.19812 2.49882
54 1 -1.1104 12.2312 -0.310223 3.69364
55 1 -1.1104 9.3403 -2.87869 1.01873
56 1 -1.1104 9.4437 2.79814 0.958508
57 2 2.2208 8.06477 1.37051 2.40798
58 1 -1.1104 9.38108 -2.70845 3.77088
59 1 -1.1104 9.32932 2.76823 3.94002
60 2 2.2208 8.12251 -1.57957 5.26481
61 2 2.2208 8.03985 4.16589 5.26538
62 1 -1.1104 9.31848 -0.0916485 0.950139
63 1 -1.1104 9.41457 0.113388 3.75622
64 2 2.2208 10.9222 6.81486 5.27309
66 1 -1.1104 12.1396 8.32883 3.87161
67 1 -1.1104 12.2266 5.51286 0.97904
68 1 -1.1104 12.3142 5.50901 3.62095
69 1 -1.1104 9.36204 8.2914 0.898888
70 2 2.2208 7.96722 7.06752 2.43122
71 1 -1.1104 9.29744 8.49649 3.74558
72 1 -1.1104 9.33944 5.6943 1.03244
73 1 -1.1104 9.57249 5.63109 3.89684
65 1 -1.1104 12.314 8.23481 0.983653
143 1 -1.1104 9.43251 2.80179 6.72184
145 1 -1.1104 12.3049 8.25704 6.61709
140 1 -1.1104 12.3169 2.66217 6.58496
148 1 -1.1104 9.39503 5.56847 9.53287
142 1 -1.1104 9.55146 -2.95981 6.72217
149 1 -1.1104 9.43772 5.57781 6.74566
139 1 -1.1104 12.2965 -2.79534 6.73522
147 1 -1.1104 9.44073 8.33901 6.57958
85 1 -1.1104 6.85061 -0.181292 6.6772
146 1 -1.1104 12.3185 5.5066 6.48318
141 1 -1.1104 12.2115 -0.109631 6.57553
177 2 2.2208 2.52209 6.96845 13.6554
103 1 -1.1104 6.70715 2.65501 9.43277
8713 2 2.2208 7.99903 -4.33056 8.0554
109 1 -1.1104 6.70309 -0.0823386 9.54172
134 2 2.2208 -0.330698 -1.43349 8.08249
175 2 2.2208 -0.359036 -1.45036 13.7609
178 2 2.2208 2.50908 1.37651 13.7549
89 1 -1.1104 1.14304 8.46303 6.70135
87 1 -1.1104 3.96752 2.76691 6.67745
95 2 2.2208 5.29279 1.15483 10.8782
96 1 -1.1104 1.10135 -2.90988 12.3724
97 1 -1.1104 1.09182 2.73864 12.4503
100 1 -1.1104 0.982662 -2.74587 9.487
101 1 -1.1104 1.13523 2.73755 9.54384
104 1 -1.1104 1.01586 0.0270196 12.3315
106 2 2.2208 5.31017 -1.49535 8.14042
107 2 2.2208 5.25667 4.06112 8.12101
108 1 -1.1104 1.15924 -0.0136089 9.309
110 1 -1.1104 3.82666 -2.87779 12.4505
111 1 -1.1104 3.85875 2.6884 12.3154
112 2 2.2208 2.45759 1.34463 8.05463
113 1 -1.1104 3.75323 -2.84717 9.51386
114 1 -1.1104 3.8751 2.65364 9.51704
115 2 2.2208 2.45913 -1.51368 10.9678
116 2 2.2208 2.55228 4.18208 10.9216
117 1 -1.1104 3.84415 -0.110159 12.3246
118 1 -1.1104 3.83305 -0.267359 9.52681
119 2 2.2208 5.372 6.95258 10.9351
120 1 -1.1104 1.04147 8.47839 12.402
122 1 -1.1104 1.23791 8.26138 9.48998
124 1 -1.1104 1.20811 5.69862 12.2451
126 1 -1.1104 1.15503 5.67598 9.35236
128 1 -1.1104 3.83922 8.23288 12.1871
129 2 2.2208 2.5205 7.02012 8.02075
130 1 -1.1104 3.99689 8.38172 9.4833
131 1 -1.1104 3.98747 5.4198 12.334
132 1 -1.1104 3.93563 5.52266 9.30797
98 1 -1.1104 6.67157 -2.83134 12.3836
102 1 -1.1104 6.62013 -3.0289 9.5074
125 1 -1.1104 6.5918 5.51672 12.3639
123 1 -1.1104 6.79427 8.28833 9.514
8715 2 2.2208 2.52025 -4.24942 8.00656
179 2 2.2208 5.33556 4.08599 13.7143
156 1 -1.1104 12.1386 -2.96159 9.60823
43 2 2.2208 -0.254383 6.97419 10.9273
155 1 -1.1104 12.1918 2.61064 12.1645
135 2 2.2208 -0.348382 1.26698 10.9391
150 1 -1.1104 9.46738 5.60872 12.4073
290 2 2.2208 8.06771 1.39836 13.7556
127 1 -1.1104 6.55219 5.5447 9.62102
105 1 -1.1104 6.7002 -0.0227372 12.4465
121 1 -1.1104 6.80223 8.38102 12.3549
99 1 -1.1104 6.80652 2.72654 12.2264
164 2 2.2208 8.15116 1.22884 8.05703
153 2 2.2208 10.7727 1.3004 10.8062
170 1 -1.1104 9.44156 -0.0180297 9.38326
173 1 -1.1104 12.3634 8.60701 9.35406
169 1 -1.1104 9.44356 -0.035287 12.304
168 2 2.2208 8.05307 4.15501 10.8805
158 1 -1.1104 12.366 -0.243435 12.3258
167 2 2.2208 8.11326 -1.52582 10.9751
171 2 2.2208 10.8316 6.98911 10.7946
163 1 -1.1104 9.43542 2.76 12.3357
138 1 -1.1104 12.2774 5.46574 12.1656
151 1 -1.1104 9.65105 8.3894 9.42742
136 1 -1.1104 9.50616 8.39184 12.0599
159 2 2.2208 10.845 -1.59989 8.02771
137 1 -1.1104 12.2397 5.69445 9.38057
144 1 -1.1104 9.48589 -0.196523 6.60655
165 1 -1.1104 9.37222 -2.85655 9.45628
152 2 2.2208 8.02423 6.98928 8.05747
160 2 2.2208 10.7575 4.11737 8.0885
157 1 -1.1104 12.2396 2.80227 9.3939
154 1 -1.1104 12.0971 -2.91577 12.2538
161 1 -1.1104 12.2957 -0.169806 9.44888
162 1 -1.1104 9.38349 -2.87132 12.3052
174 2 2.2208 -0.346153 4.05652 13.7815
8733 2 2.2208 2.3429 -4.29537 13.6906
289 2 2.2208 8.1242 6.86521 13.6759
8710 2 2.2208 10.8506 -4.22876 5.21224
292 2 2.2208 10.9027 4.07781 13.7216
8709 2 2.2208 8.03345 -4.32941 2.43488
8716 2 2.2208 5.15683 -4.25697 10.9664
8729 2 2.2208 8.04933 -4.28328 13.747
41 2 2.2208 -0.358769 1.42313 5.09147
39 2 2.2208 -0.410917 6.86629 5.17242
40 2 2.2208 -0.361176 -1.53419 2.38551
8717 2 2.2208 -0.341413 -4.29745 10.836
235 2 2.2208 7.99609 4.11793 -0.332697
339 2 2.2208 13.7735 -1.43477 -0.420787
8728 2 2.2208 13.6249 -4.23112 13.6902
335 2 2.2208 5.20618 6.82383 -0.344589
182 2 2.2208 5.28052 1.35226 16.5393
183 1 -1.1104 1.0317 -2.85475 17.8409
184 1 -1.1104 1.12381 2.83837 18.0039
187 1 -1.1104 1.03682 -2.76808 15.0725
189 1 -1.1104 1.03962 2.61182 15.198
195 1 -1.1104 1.15005 -0.0597032 17.9285
197 2 2.2208 5.28687 -1.49543 19.3476
198 2 2.2208 5.28674 3.94279 19.3143
199 1 -1.1104 1.02445 0.00308303 15.2104
203 1 -1.1104 3.95024 -3.00819 17.9683
204 1 -1.1104 3.88791 2.70932 17.9248
205 2 2.2208 2.51927 1.34578 19.352
206 1 -1.1104 3.88517 -2.85282 15.0979
208 1 -1.1104 3.93153 2.75766 15.0736
210 2 2.2208 2.48158 -1.49009 16.4643
211 2 2.2208 2.56238 4.01714 16.5772
212 1 -1.1104 3.86404 -0.192219 17.8781
213 1 -1.1104 3.80959 -0.0392082 15.1879
215 2 2.2208 5.27851 6.89992 16.4936
216 1 -1.1104 1.01598 8.35022 18.2562
218 1 -1.1104 0.997605 8.31357 15.4073
221 1 -1.1104 1.33384 5.55648 17.8211
223 1 -1.1104 0.971747 5.52297 15.0115
227 1 -1.1104 3.86516 8.41019 17.7169
228 2 2.2208 2.6241 6.85637 19.1783
229 1 -1.1104 3.80684 8.46277 15.0683
231 1 -1.1104 3.89713 5.48434 17.9078
232 1 -1.1104 3.72484 5.72578 15.2646
207 1 -1.1104 3.91156 -2.87622 20.7744
201 1 -1.1104 6.63632 -0.0166796 15.2858
217 1 -1.1104 6.68536 8.38819 17.8312
334 2 2.2208 2.52119 4.08493 27.636
200 1 -1.1104 1.03945 -0.124031 20.6746
233 1 -1.1104 3.80512 5.31673 20.7907
238 2 2.2208 -0.319486 -1.47162 19.2414
185 1 -1.1104 6.71963 -2.82583 17.9438
8903 2 2.2208 2.56017 -4.27944 19.2894
192 1 -1.1104 6.73458 -3.0486 20.7698
340 2 2.2208 10.7357 6.9239 27.6771
230 1 -1.1104 3.95672 8.10629 20.5764
224 1 -1.1104 0.999944 5.80643 20.4972
202 1 -1.1104 6.61897 -0.244078 20.6984
209 1 -1.1104 3.86469 2.60563 20.6675
188 1 -1.1104 1.06931 -3.03361 20.6195
190 1 -1.1104 1.09673 2.82261 20.7892
358 1 -1.1104 9.41111 -3.04893 23.5392
285 2 2.2208 -0.462879 6.79911 22.2304
356 2 2.2208 10.8378 4.1153 24.8818
344 2 2.2208 -0.309313 1.22847 22.1973
186 1 -1.1104 6.62879 2.70401 17.9379
225 1 -1.1104 6.58263 5.42623 15.0723
219 1 -1.1104 6.70101 8.29494 15.0712
191 1 -1.1104 6.62646 -2.92054 15.167
196 1 -1.1104 6.56356 -0.129354 17.9828
193 1 -1.1104 6.73671 2.74535 15.0954
222 1 -1.1104 6.61784 5.53478 17.7673
245 2 2.2208 10.7721 1.26859 16.471
246 1 -1.1104 12.1123 -2.81333 17.964
247 1 -1.1104 12.253 2.65217 17.8425
248 1 -1.1104 12.3065 -2.98771 15.1336
250 1 -1.1104 12.4304 2.67247 15.1202
252 1 -1.1104 12.2927 -0.0437055 17.8108
253 2 2.2208 10.9092 -1.46555 19.37
254 2 2.2208 10.8986 4.10706 19.2525
255 1 -1.1104 12.2183 -0.113825 15.1697
257 1 -1.1104 9.5459 -2.78484 18.13
258 1 -1.1104 9.31583 2.71 17.9257
259 2 2.2208 7.99473 1.20175 19.3268
260 1 -1.1104 9.49824 -2.8343 15.0753
262 1 -1.1104 9.69959 2.66992 15.1536
264 2 2.2208 8.09835 -1.52991 16.6286
265 2 2.2208 8.10023 4.10404 16.5585
266 1 -1.1104 9.41074 -0.0326529 17.8497
267 1 -1.1104 9.39501 -0.0681142 15.2111
269 2 2.2208 10.8757 6.87259 16.4719
270 1 -1.1104 12.2219 8.23168 17.8393
271 1 -1.1104 12.27 8.30919 15.1953
273 1 -1.1104 12.1919 5.49818 17.8743
274 1 -1.1104 12.2809 5.42067 15.0303
276 1 -1.1104 9.51653 8.31196 17.8702
277 2 2.2208 7.99631 6.98439 19.2942
278 1 -1.1104 9.53777 8.26223 14.9888
280 1 -1.1104 9.54374 5.53989 17.8548
281 1 -1.1104 9.4755 5.50039 15.1965
279 1 -1.1104 9.52343 8.38705 20.6878
268 1 -1.1104 9.43159 -0.114779 20.6819
263 1 -1.1104 9.44928 2.59967 20.5899
220 1 -1.1104 6.72883 8.21352 20.6347
226 1 -1.1104 6.60417 5.43687 20.775
249 1 -1.1104 12.3292 -2.89181 20.756
282 1 -1.1104 9.46501 5.32708 20.5792
275 1 -1.1104 12.2721 5.45325 20.6344
256 1 -1.1104 12.2755 -0.0784427 20.7346
251 1 -1.1104 12.3195 2.80067 20.6668
9211 2 2.2208 -0.226896 4.05293 19.4946
351 1 -1.1104 12.1492 2.60013 23.4404
8880 2 2.2208 -0.405546 -4.27062 22.0191
342 2 2.2208 -0.408768 -1.50196 24.8906
8929 2 2.2208 5.25015 -4.26472 16.5245
214 1 -1.1104 3.82151 -0.117346 20.8534
294 2 2.2208 5.26508 1.1961 22.1267
295 1 -1.1104 0.97613 -2.89768 23.472
296 1 -1.1104 1.03569 2.75388 23.5232
299 1 -1.1104 1.06132 -2.83508 26.2669
300 1 -1.1104 1.0163 2.64162 26.392
303 1 -1.1104 1.1185 0.0676716 23.6049
305 2 2.2208 5.3519 -1.48431 24.8154
306 2 2.2208 5.35192 4.04158 24.8622
307 1 -1.1104 1.02257 -0.0676363 26.3562
309 1 -1.1104 3.77616 -2.90402 23.4297
310 1 -1.1104 3.95393 2.60623 23.492
311 2 2.2208 2.53677 1.36913 24.8841
312 1 -1.1104 3.98472 -2.87866 26.3452
313 1 -1.1104 3.91711 2.56484 26.3784
314 2 2.2208 2.41129 -1.47538 22.0802
315 2 2.2208 2.47208 4.05677 22.2846
316 1 -1.1104 3.97478 -0.105097 23.4659
317 1 -1.1104 4.01017 -0.154482 26.1485
318 2 2.2208 5.21029 6.74109 22.2535
319 1 -1.1104 0.877887 8.17419 23.3107
321 1 -1.1104 1.01568 8.25368 26.2155
323 1 -1.1104 1.01605 5.42529 23.4789
325 1 -1.1104 1.11124 5.47392 26.2397
327 1 -1.1104 4.05496 8.06135 23.8117
328 2 2.2208 2.40788 7.00952 24.8834
329 1 -1.1104 3.70674 8.21842 26.451
330 1 -1.1104 3.8721 5.32432 23.5755
331 1 -1.1104 3.95548 5.42071 26.3814
343 2 2.2208 -0.314292 6.86569 27.7153
324 1 -1.1104 6.62104 5.47265 23.4112
298 1 -1.1104 6.65057 2.73923 23.5696
301 1 -1.1104 6.80177 -2.96119 26.2104
362 1 -1.1104 9.45764 2.67024 26.2168
8878 2 2.2208 2.52403 -4.20731 24.8518
180 2 2.2208 2.44093 -1.44782 27.7356
237 2 2.2208 -0.274517 1.47925 16.5963
239 2 2.2208 7.96953 -1.55635 27.7095
241 2 2.2208 10.8661 1.45114 27.7109
272 1 -1.1104 12.2572 8.4113 20.6398
261 1 -1.1104 9.55949 -3.01087 20.7463
349 2 2.2208 10.8298 1.31658 22.1026
346 1 -1.1104 9.41387 5.39966 23.5165
322 1 -1.1104 6.52991 8.20929 26.3608
308 1 -1.1104 6.74402 -0.0690269 26.394
357 1 -1.1104 12.3557 -0.17039 26.3397
350 1 -1.1104 12.2266 -3.10501 23.6468
333 1 -1.1104 12.2385 8.46113 26.1951
353 1 -1.1104 12.2713 2.6786 26.2269
304 1 -1.1104 6.8201 -0.0332709 23.6166
194 1 -1.1104 6.59384 2.49601 20.7981
355 2 2.2208 10.9623 -1.58065 24.8744
297 1 -1.1104 6.62868 -2.78923 23.504
320 1 -1.1104 6.72509 8.19633 23.4439
341 1 -1.1104 12.3287 8.31752 23.3794
361 1 -1.1104 9.55839 -2.83669 26.2806
352 1 -1.1104 12.4049 -3.04024 26.3384
360 2 2.2208 8.13715 1.29407 24.9217
347 1 -1.1104 9.18572 8.2055 26.2717
348 2 2.2208 7.93517 6.7582 24.8198
367 2 2.2208 10.8138 6.83833 22.0779
366 1 -1.1104 9.58529 -0.107067 26.1786
242 1 -1.1104 9.57887 8.30108 23.5415
363 2 2.2208 8.20929 -1.53061 22.1703
364 2 2.2208 8.00768 4.08022 22.0664
243 1 -1.1104 12.2404 5.60276 26.1984
244 1 -1.1104 12.2293 5.50452 23.5714
345 1 -1.1104 9.46668 5.37672 26.3831
326 1 -1.1104 6.60514 5.40827 26.23
354 1 -1.1104 12.3518 -0.15638 23.6034
302 1 -1.1104 6.65628 2.69333 26.4101
365 1 -1.1104 9.66128 -0.206281 23.354
359 1 -1.1104 9.38626 2.75576 23.414
332 2 2.2208 5.27669 1.27847 27.7749
337 2 2.2208 13.5828 1.29562 24.8458
9209 2 2.2208 -0.328123 6.91411 16.5837
368 2 2.2208 5.19078 12.4358 5.20473
369 1 -1.1104 1.02102 11.0436 1.25513
373 2 2.2208 5.1915 9.68875 2.3651
374 1 -1.1104 1.06908 11.0212 3.96485
376 2 2.2208 2.47843 12.6177 2.42966
377 2 2.2208 2.47034 9.63552 5.20998
378 1 -1.1104 3.95397 11.1442 0.940888
380 1 -1.1104 3.86621 11.1366 3.72424
381 2 2.2208 5.2686 18.2467 5.28162
382 1 -1.1104 1.05345 14.041 0.960846
384 1 -1.1104 1.02258 19.5137 1.11789
388 1 -1.1104 0.945802 13.8038 3.90614
389 1 -1.1104 0.95858 19.5787 3.91185
391 1 -1.1104 0.968275 16.71 1.05511
394 2 2.2208 5.30109 15.2587 2.51317
395 2 2.2208 5.22873 20.9119 2.50128
396 1 -1.1104 0.954615 16.7277 3.82581
398 1 -1.1104 3.87194 13.9629 0.928728
400 1 -1.1104 3.78666 19.5713 1.09444
402 2 2.2208 2.40738 18.1304 2.54132
403 1 -1.1104 3.79729 13.9648 3.88744
404 1 -1.1104 3.85263 19.4619 3.86381
405 2 2.2208 2.35989 15.2388 5.19507
406 2 2.2208 2.50148 20.8908 5.26327
407 1 -1.1104 3.7813 16.7419 1.03939
409 1 -1.1104 3.72285 16.6914 3.82356
572 2 2.2208 5.32632 21.045 13.7
426 1 -1.1104 6.6416 19.625 3.74448
408 1 -1.1104 3.71212 16.7365 6.64475
385 1 -1.1104 6.53475 13.9452 1.15316
392 1 -1.1104 1.02975 16.8589 6.70515
401 1 -1.1104 3.88509 19.5239 6.67831
576 2 2.2208 8.05282 12.5897 13.5011
370 1 -1.1104 1.0398 11.226 6.73585
379 1 -1.1104 3.82587 11.1747 6.7056
612 2 2.2208 10.9365 20.8725 13.5876
525 2 2.2208 -0.320485 18.1234 -0.485442
523 2 2.2208 2.33678 12.5578 13.7795
397 1 -1.1104 6.71715 16.7864 3.87214
427 1 -1.1104 6.56102 16.6755 1.09487
425 1 -1.1104 6.64729 19.3884 1.07978
375 1 -1.1104 6.63614 11.3232 3.86107
390 1 -1.1104 6.56769 14.089 3.75832
371 1 -1.1104 6.68353 11.0149 0.982347
415 2 2.2208 10.8758 12.4836 5.20604
416 1 -1.1104 12.3729 11.1663 0.917419
418 2 2.2208 10.7925 9.69188 2.3089
419 1 -1.1104 12.3175 11.0528 3.69873
420 2 2.2208 7.98035 12.51 2.39996
421 2 2.2208 8.04506 9.78678 5.17513
422 1 -1.1104 9.46231 11.1203 1.00616
424 1 -1.1104 9.53911 11.2239 3.75869
428 2 2.2208 10.9791 18.1326 5.31386
429 1 -1.1104 12.3078 13.948 1.02706
431 1 -1.1104 12.2366 19.57 1.18836
433 1 -1.1104 12.3884 13.9301 3.82584
434 1 -1.1104 12.2846 19.5201 3.93794
435 1 -1.1104 12.2499 16.6336 1.04523
437 2 2.2208 10.8962 15.3169 2.4307
438 2 2.2208 10.7866 20.9674 2.53167
439 1 -1.1104 12.4279 16.8431 3.8654
440 1 -1.1104 9.5211 13.8665 1.13904
442 1 -1.1104 9.47637 19.439 1.02634
444 2 2.2208 8.05085 18.1615 2.56183
445 1 -1.1104 9.61773 13.977 3.98099
446 1 -1.1104 9.54167 19.6837 3.7669
447 2 2.2208 8.05507 15.3653 5.17512
448 2 2.2208 8.05694 21.0292 5.36507
449 1 -1.1104 9.43898 16.6837 1.07074
451 1 -1.1104 9.51342 16.9136 3.85862
417 1 -1.1104 12.2287 11.1784 6.61105
441 1 -1.1104 9.57892 13.9294 6.67321
430 1 -1.1104 12.4353 14.0272 6.56336
372 1 -1.1104 6.68148 11.1125 6.60177
386 1 -1.1104 6.77687 13.9261 6.45913
436 1 -1.1104 12.4254 16.813 6.5442
423 1 -1.1104 9.44259 11.089 6.66194
515 2 2.2208 13.6009 9.70788 5.22633
649 2 2.2208 5.2424 18.1418 -0.32426
613 2 2.2208 10.9633 15.3118 13.7081
387 1 -1.1104 6.60914 19.6388 6.70193
611 2 2.2208 10.8756 9.86695 13.5272
9405 2 2.2208 -0.455339 18.2967 5.30093
521 2 2.2208 5.26736 9.72398 13.681
470 1 -1.1104 0.931567 19.693 6.66358
383 1 -1.1104 0.891249 13.9734 6.70015
399 1 -1.1104 3.86373 13.8748 6.71933
454 1 -1.1104 3.82624 19.6363 12.279
455 1 -1.1104 3.81826 14.0679 12.3675
459 1 -1.1104 0.961897 19.5455 9.59001
460 1 -1.1104 0.94742 16.8688 9.61458
461 2 2.2208 5.30642 21.0825 8.17883
462 1 -1.1104 1.10146 14.0725 9.37148
463 2 2.2208 5.23588 15.4604 7.98351
466 1 -1.1104 1.04094 19.7188 12.3913
467 1 -1.1104 1.06006 14.0935 12.1124
468 2 2.2208 5.27701 18.2203 10.8587
469 1 -1.1104 3.93373 19.673 9.41444
471 2 2.2208 2.36999 18.1022 8.1003
472 1 -1.1104 3.83764 16.8227 9.3921
473 1 -1.1104 3.90712 13.9642 9.47328
475 1 -1.1104 1.12312 16.8201 12.3189
476 1 -1.1104 3.82672 16.9159 12.3036
477 2 2.2208 2.41165 21.0756 10.8515
478 2 2.2208 5.18007 12.4872 10.7997
479 1 -1.1104 1.09803 11.2436 12.3337
481 2 2.2208 2.48217 15.4279 10.9293
482 2 2.2208 5.23572 9.89507 8.07836
483 1 -1.1104 1.00034 11.1677 9.57549
485 2 2.2208 2.43583 12.6468 8.09197
486 2 2.2208 2.41516 9.76966 10.8679
487 1 -1.1104 3.85855 11.1334 12.3702
488 1 -1.1104 3.78094 11.2533 9.56243
453 2 2.2208 13.7367 12.4379 2.40733
480 1 -1.1104 6.61626 11.1089 12.1031
484 1 -1.1104 6.69865 11.0616 9.32934
505 1 -1.1104 12.4773 16.8309 12.2041
412 2 2.2208 -0.322479 12.5001 5.33513
516 2 2.2208 13.7508 15.3943 5.13536
507 1 -1.1104 12.3183 19.5429 9.44101
489 1 -1.1104 12.2891 11.2391 9.45867
499 1 -1.1104 9.46319 19.5516 12.246
490 2 2.2208 10.8914 9.70328 7.9557
450 1 -1.1104 9.48012 16.7092 6.4511
464 1 -1.1104 6.56622 19.6382 12.1996
496 1 -1.1104 9.53109 19.672 9.40734
432 1 -1.1104 12.2856 19.54 6.61648
504 2 2.2208 10.9492 15.3665 7.95321
443 1 -1.1104 9.4872 19.5354 6.54696
501 1 -1.1104 12.3188 16.8063 9.38067
509 2 2.2208 8.13643 9.78376 10.6962
500 1 -1.1104 9.38906 13.9542 12.1576
497 1 -1.1104 9.52128 13.9815 9.27455
474 1 -1.1104 6.69556 16.7241 12.067
393 1 -1.1104 6.64881 16.8572 6.65639
494 2 2.2208 8.09665 21.016 10.7942
465 1 -1.1104 6.59191 14.02 12.1211
457 1 -1.1104 6.72268 16.7449 9.37509
510 2 2.2208 8.06442 12.4029 7.9566
514 2 2.2208 10.9256 12.6511 10.7702
513 2 2.2208 10.9136 18.0795 10.7839
512 1 -1.1104 12.3733 14.1642 12.1917
503 1 -1.1104 9.59887 11.1467 9.29339
495 2 2.2208 8.13567 15.3725 10.6589
511 1 -1.1104 12.316 19.5798 12.205
493 1 -1.1104 9.59472 16.7149 12.2254
508 1 -1.1104 12.3627 14.0657 9.41513
491 1 -1.1104 12.2938 11.1157 12.1226
456 1 -1.1104 6.74659 19.6224 9.4275
492 1 -1.1104 9.59102 16.8301 9.27858
458 1 -1.1104 6.64656 13.9628 9.25755
506 1 -1.1104 9.43072 11.1818 12.1139
502 2 2.2208 10.9684 20.9293 8.01365
498 2 2.2208 8.1021 18.2873 7.92017
411 2 2.2208 -0.376062 9.6018 2.50173
697 2 2.2208 13.76 12.5993 13.589
519 2 2.2208 -0.357124 9.71709 8.14152
614 2 2.2208 8.06351 18.1 13.6771
413 2 2.2208 13.7453 15.3617 10.8576
688 2 2.2208 10.8349 18.0847 -0.209219
526 2 2.2208 5.39103 12.5187 16.459
527 1 -1.1104 0.913094 11.1198 17.9738
529 2 2.2208 5.17896 9.69334 19.4685
530 1 -1.1104 1.114 11.2594 15.1571
533 2 2.2208 2.64204 12.5353 19.1345
534 2 2.2208 2.4536 9.77966 16.5434
535 1 -1.1104 3.7776 11.1511 17.707
536 1 -1.1104 4.00412 11.1414 15.1332
538 2 2.2208 5.35598 18.0554 16.4091
539 1 -1.1104 1.10598 13.8849 17.8911
540 1 -1.1104 1.15564 19.559 17.986
543 1 -1.1104 0.976937 13.947 14.9798
545 1 -1.1104 1.15457 19.5506 15.2047
551 1 -1.1104 0.947293 16.7922 17.8275
553 2 2.2208 5.22127 15.2485 19.2829
554 2 2.2208 5.2673 20.8724 19.3104
555 1 -1.1104 1.05502 16.814 15.1728
559 1 -1.1104 3.87539 13.8623 17.7847
560 1 -1.1104 3.93982 19.5 18.0047
561 2 2.2208 2.53517 18.0495 19.2989
562 1 -1.1104 3.75754 14.0299 14.977
564 1 -1.1104 3.80385 19.594 15.2545
566 2 2.2208 2.39977 15.286 16.4187
567 2 2.2208 2.45565 21.0077 16.5999
568 1 -1.1104 3.81913 16.6648 17.908
569 1 -1.1104 3.87925 16.6666 15.1594
528 1 -1.1104 6.66815 11.1633 17.8457
544 1 -1.1104 1.15735 13.5268 20.51
537 1 -1.1104 3.97998 11.3964 20.5456
556 1 -1.1104 1.02773 16.4187 20.6963
570 1 -1.1104 3.8729 16.8832 20.7397
547 1 -1.1104 6.7217 13.8465 15.1053
549 1 -1.1104 6.63756 19.5413 14.9592
650 2 2.2208 2.4012 15.3909 27.6492
687 2 2.2208 8.03935 20.8575 27.8099
546 1 -1.1104 1.01429 19.386 20.7703
558 1 -1.1104 6.66995 16.6737 20.8266
660 1 -1.1104 9.52232 16.619 26.4064
690 2 2.2208 10.9747 12.5929 27.6646
531 1 -1.1104 6.78818 11.1681 14.9469
557 1 -1.1104 6.78263 16.6675 14.9323
552 1 -1.1104 6.47955 16.6519 17.8981
541 1 -1.1104 6.78003 13.8729 17.9814
542 1 -1.1104 6.75709 19.5504 17.8621
577 2 2.2208 10.826 12.4595 16.4161
578 1 -1.1104 12.156 11.0454 17.781
579 2 2.2208 10.9532 9.74316 19.2903
580 1 -1.1104 12.4231 11.1643 14.8595
582 2 2.2208 8.07634 12.4546 19.3
583 2 2.2208 7.97928 9.77511 16.3972
584 1 -1.1104 9.53598 11.2824 17.8671
585 1 -1.1104 9.47954 11.2883 14.8485
587 2 2.2208 10.9107 18.091 16.4681
588 1 -1.1104 12.2523 13.8888 17.877
589 1 -1.1104 12.3348 19.4506 17.8044
590 1 -1.1104 12.4201 13.8777 15.1027
592 1 -1.1104 12.3174 19.3223 15.081
594 1 -1.1104 12.2775 16.6827 17.787
595 2 2.2208 10.959 15.26 19.3966
596 2 2.2208 10.7395 20.925 19.3373
597 1 -1.1104 12.575 16.62 14.9234
599 1 -1.1104 9.58369 14.0385 17.82
600 1 -1.1104 9.62749 19.465 17.9465
601 2 2.2208 8.05149 18.0968 19.3541
602 1 -1.1104 9.5405 13.9062 15.0191
604 1 -1.1104 9.50094 19.3649 15.1637
606 2 2.2208 8.0457 15.2207 16.5091
607 2 2.2208 8.16141 20.8164 16.5225
608 1 -1.1104 9.46003 16.7785 17.7948
609 1 -1.1104 9.59509 16.697 15.0011
573 2 2.2208 13.639 12.5453 19.2874
574 2 2.2208 13.6032 18.1395 19.3117
548 1 -1.1104 6.61513 13.7371 20.5757
603 1 -1.1104 9.65265 13.9698 20.5584
586 1 -1.1104 9.65647 11.015 20.6604
598 1 -1.1104 12.3075 16.7385 20.6481
610 1 -1.1104 9.47299 16.7291 20.5453
591 1 -1.1104 12.4039 14.0198 20.5913
670 1 -1.1104 12.2714 16.7443 26.3734
9447 2 2.2208 13.7359 20.9697 27.6643
619 1 -1.1104 6.58536 16.545 26.384
664 1 -1.1104 9.49473 19.4012 26.2589
663 2 2.2208 8.12943 15.2993 22.0491
669 1 -1.1104 9.465 13.9621 23.5324
563 1 -1.1104 3.86253 14.061 20.5269
532 1 -1.1104 6.67111 10.9548 20.7262
565 1 -1.1104 3.7983 19.5479 20.791
616 1 -1.1104 3.95635 19.4106 23.6463
618 1 -1.1104 3.89991 13.8448 23.4951
620 1 -1.1104 1.04362 19.5879 26.2498
621 1 -1.1104 1.16289 16.6965 26.3336
622 1 -1.1104 0.969761 13.8593 26.2813
624 2 2.2208 5.38505 20.8843 25.0149
625 2 2.2208 5.23692 15.1609 24.8698
627 1 -1.1104 1.01991 19.6271 23.4904
628 1 -1.1104 1.03159 14.0073 23.2935
629 2 2.2208 5.28201 18.132 22.1404
630 1 -1.1104 3.94708 19.5354 26.3844
631 2 2.2208 2.53187 18.0766 24.8417
632 1 -1.1104 3.96739 16.7163 26.2522
633 1 -1.1104 3.70661 13.9511 26.231
635 1 -1.1104 1.05661 16.8721 23.398
636 1 -1.1104 3.88576 16.622 23.405
637 2 2.2208 2.45052 20.9284 22.1235
638 2 2.2208 5.33607 12.466 22.2218
639 1 -1.1104 0.792539 11.3566 23.6785
641 2 2.2208 2.48497 15.2363 22.017
642 2 2.2208 5.2537 9.64341 25.0529
643 1 -1.1104 0.96385 10.9678 26.394
645 2 2.2208 2.38352 12.4605 24.9083
646 1 -1.1104 4.18796 11.1949 23.7428
647 1 -1.1104 3.78438 11.003 26.3324
617 1 -1.1104 6.67349 13.9408 26.4595
623 1 -1.1104 6.63824 19.4632 23.5118
626 1 -1.1104 6.73679 13.9846 23.3901
640 1 -1.1104 6.85863 11.1649 23.6109
658 2 2.2208 -0.390107 9.71234 24.7057
694 2 2.2208 13.7559 15.4174 27.7835
9465 2 2.2208 13.7327 20.891 16.3641
651 2 2.2208 2.32787 9.69932 27.7385
668 1 -1.1104 9.47877 19.3557 23.5344
691 2 2.2208 8.01077 15.3251 27.7667
652 2 2.2208 5.23526 12.5705 27.658
686 1 -1.1104 12.3211 11.1483 26.2245
605 1 -1.1104 9.28105 19.4655 20.7011
683 2 2.2208 10.8628 12.559 22.1502
581 1 -1.1104 12.2874 11.308 20.7459
550 1 -1.1104 6.65045 19.4909 20.7216
685 2 2.2208 10.8803 9.66926 24.9501
673 2 2.2208 10.912 15.4212 24.9215
684 1 -1.1104 12.2681 11.0918 23.4857
666 1 -1.1104 6.61952 19.3829 26.3673
681 1 -1.1104 12.3188 13.895 23.3547
682 2 2.2208 10.7741 18.1144 22.1392
672 2 2.2208 10.8927 20.8722 24.8907
675 1 -1.1104 12.439 19.4584 26.3977
671 1 -1.1104 9.43364 11.1067 26.2279
674 1 -1.1104 12.1775 16.6896 23.404
661 1 -1.1104 9.54891 16.6574 23.3676
593 1 -1.1104 12.1248 19.4618 20.7217
662 2 2.2208 8.00783 20.8155 22.0998
679 2 2.2208 8.12635 12.5699 24.9307
644 1 -1.1104 6.64762 11.1519 26.2918
680 1 -1.1104 12.219 19.4871 23.416
677 1 -1.1104 9.59918 11.0724 23.4651
634 1 -1.1104 6.73335 16.6938 23.5905
678 2 2.2208 8.04257 9.65474 22.1317
676 1 -1.1104 12.3796 13.9266 26.303
665 1 -1.1104 9.56965 13.9577 26.4783
667 2 2.2208 8.07808 17.9418 24.9534
693 2 2.2208 13.8275 15.2716 22.0694
689 2 2.2208 8.02959 9.64876 27.6535
9460 2 2.2208 13.6222 20.9815 22.1175
696 2 2.2208 13.5636 18.1141 24.87
654 2 2.2208 -0.332539 15.2371 24.973
9416 2 2.2208 -0.317164 15.4278 13.633
695 2 2.2208 13.6739 12.5117 24.8742
657 2 2.2208 -0.401711 18.0556 22.1844
648 2 2.2208 2.45005 20.8801 27.5948
524 2 2.2208 5.23559 15.3618 13.5767
520 2 2.2208 2.45712 18.3661 13.6661
698 2 2.2208 5.31315 23.7226 5.37217
699 2 2.2208 5.46528 29.3597 5.21332
700 1 -1.1104 1.10829 25.3184 1.05289
701 1 -1.1104 1.03366 25.2366 3.79503
702 1 -1.1104 1.03547 22.3955 1.11513
703 1 -1.1104 1.10331 28.1804 1.04353
704 2 2.2208 5.42462 26.4233 2.49887
705 1 -1.1104 0.989662 22.1614 3.84539
706 1 -1.1104 1.04943 28.0356 3.82711
707 1 -1.1104 3.97486 25.1191 1.00356
708 2 2.2208 2.43676 23.7406 2.3756
709 2 2.2208 2.5343 29.372 2.50606
710 1 -1.1104 3.85563 24.9534 3.85246
711 2 2.2208 2.56527 26.6443 5.32791
712 1 -1.1104 3.83753 22.1875 1.13754
713 1 -1.1104 3.88483 27.9539 1.1623
714 1 -1.1104 3.74399 22.2148 3.848
715 1 -1.1104 4.07321 27.8843 3.96936
716 1 -1.1104 1.34575 30.8808 1.04914
717 1 -1.1104 1.20199 30.8002 3.94305
718 1 -1.1104 1.0736 33.6043 0.978739
719 2 2.2208 5.40618 32.2054 2.48486
720 1 -1.1104 1.20554 33.5753 3.7013
722 1 -1.1104 4.02886 30.7312 1.2523
723 1 -1.1104 3.95138 30.8772 3.8597
724 2 2.2208 2.51773 32.2889 5.30875
725 1 -1.1104 3.93919 33.6071 1.08554
726 1 -1.1104 3.92496 33.6348 3.96344
9682 2 2.2208 13.7625 32.2178 10.9326
9739 2 2.2208 -0.277939 32.1341 8.00128
733 1 -1.1104 6.61932 22.2678 1.07971
721 1 -1.1104 6.62453 33.561 4.05945
755 1 -1.1104 6.77835 30.8458 1.0274
735 1 -1.1104 6.55616 22.1847 4.09369
9746 2 2.2208 -0.306218 23.8252 5.23676
9859 2 2.2208 -0.400512 26.4705 13.5353
757 1 -1.1104 6.79989 33.5957 1.07592
985 2 2.2208 2.48888 26.5677 -0.373277
784 1 -1.1104 3.95751 30.7922 6.57632
773 1 -1.1104 1.09564 22.5202 6.61611
815 1 -1.1104 6.78957 33.5761 12.2473
731 1 -1.1104 6.79933 25.1317 1.12725
734 1 -1.1104 6.68202 28.036 1.0013
756 1 -1.1104 6.83883 30.8368 3.78132
736 1 -1.1104 6.78835 27.929 3.68451
732 1 -1.1104 6.70914 25.0405 3.89659
737 2 2.2208 10.9595 23.8402 5.31717
738 2 2.2208 10.9602 29.4831 5.17715
739 1 -1.1104 12.4428 25.1693 1.02812
740 1 -1.1104 12.4279 25.0173 3.84511
741 1 -1.1104 12.3746 22.2214 1.04264
742 1 -1.1104 12.3206 28.058 1.14037
743 2 2.2208 10.9559 26.5436 2.45356
744 1 -1.1104 12.1877 22.2803 3.88789
745 1 -1.1104 12.2722 27.9064 3.83852
746 1 -1.1104 9.63233 24.9735 1.03001
747 2 2.2208 8.16391 23.7045 2.44224
748 2 2.2208 8.09519 29.4127 2.38087
749 1 -1.1104 9.58788 25.4056 3.81436
750 2 2.2208 8.18348 26.6225 5.13036
751 1 -1.1104 9.42573 22.1405 1.0593
752 1 -1.1104 9.40455 27.9117 1.08809
753 1 -1.1104 9.46663 22.4944 3.86665
754 1 -1.1104 9.49465 28.2676 3.77584
758 1 -1.1104 12.3638 30.7895 0.961827
759 1 -1.1104 12.4965 30.7872 3.92292
760 1 -1.1104 12.1714 33.5849 0.971208
761 2 2.2208 10.9851 32.1456 2.44449
762 1 -1.1104 12.4434 33.5094 3.92138
763 1 -1.1104 9.54156 30.6571 0.970663
764 1 -1.1104 9.61483 30.9403 3.89481
765 2 2.2208 8.14107 32.1872 5.20215
766 1 -1.1104 9.34579 33.4188 1.07801
767 1 -1.1104 9.56374 33.6955 3.76029
728 1 -1.1104 9.63867 33.5668 12.281
825 1 -1.1104 9.51434 25.1411 6.78831
844 1 -1.1104 9.4599 25.2567 9.52199
986 2 2.2208 2.63589 32.2187 -0.280114
775 1 -1.1104 6.74342 22.3874 6.87786
828 1 -1.1104 12.2915 30.6883 6.64781
830 1 -1.1104 9.49435 30.8365 6.73781
827 1 -1.1104 9.55207 27.9147 6.62922
831 1 -1.1104 9.45111 33.671 6.55019
824 1 -1.1104 12.2812 28.0196 6.64471
9747 2 2.2208 13.8352 23.6601 2.4224
777 1 -1.1104 3.99011 25.1692 6.77313
779 1 -1.1104 4.17459 28.1173 6.63549
771 1 -1.1104 1.20694 25.2987 6.61523
772 1 -1.1104 6.72442 25.3242 6.65015
781 1 -1.1104 6.82138 30.8045 6.63652
782 1 -1.1104 1.10294 33.7422 6.58801
780 1 -1.1104 1.10968 30.877 6.6349
778 1 -1.1104 3.97659 22.3748 6.63616
774 1 -1.1104 1.22044 28.1184 6.57661
785 1 -1.1104 3.80923 33.6028 6.95329
786 2 2.2208 5.33554 23.8441 10.9644
787 2 2.2208 5.21001 29.4492 10.9018
788 1 -1.1104 1.05669 25.1386 12.2155
790 1 -1.1104 1.09719 25.0523 9.58081
792 1 -1.1104 1.09779 22.4077 12.3868
793 1 -1.1104 1.13267 27.9401 12.2416
796 2 2.2208 5.41174 26.7421 8.00255
797 1 -1.1104 0.90846 22.372 9.17783
798 1 -1.1104 1.10101 27.9124 9.49209
801 1 -1.1104 3.94514 25.2406 12.2648
802 2 2.2208 2.47395 23.722 7.97902
803 2 2.2208 2.52661 29.5685 8.02894