ITEM: TIMESTEP
70000
ITEM: NUMBER OF ATOMS
17910
ITEM: BOX BOUNDS pp pp pp
-3.5084313890412516e-01 2.7690843138904139e+01
-4.3276743432836220e+00 3.3240767434329280e+02
-3.5955311569412757e-01 2.7699553115693249e+01
ITEM: ATOMS id type q x y z
1 2 2.2208 5.2961 1.31982 5.21577
2 1 -1.1104 1.05376 -2.87906 0.959141
3 1 -1.1104 1.15993 2.74772 1.09826
6 1 -1.1104 1.3158 -2.96438 3.9113
7 1 -1.1104 1.01888 2.67935 3.7811
10 1 -1.1104 1.17256 -0.134738 1.06132
12 2 2.2208 5.43186 -1.4379 2.36949
13 2 2.2208 5.31031 4.09906 2.28468
14 1 -1.1104 1.05941 -0.188886 3.84432
16 1 -1.1104 3.94714 -2.94225 1.06154
17 1 -1.1104 4.01977 2.64184 0.995466
18 2 2.2208 2.5574 1.3118 2.42669
19 1 -1.1104 3.98677 -2.87146 3.78719
20 1 -1.1104 3.9195 2.77048 3.73316
21 2 2.2208 2.40371 -1.44367 5.27206
22 2 2.2208 2.52001 4.04112 5.16132
23 1 -1.1104 3.97785 -0.211771 0.994036
24 1 -1.1104 3.84808 -0.131313 3.78857
25 2 2.2208 5.41217 6.9488 5.10963
28 1 -1.1104 1.07462 8.4021 3.84088
30 1 -1.1104 0.923453 5.54288 0.979586
32 1 -1.1104 1.03336 5.36433 3.86339
34 1 -1.1104 3.91332 8.26466 1.07676
35 2 2.2208 2.40316 6.90419 2.41321
37 1 -1.1104 3.76391 5.37985 1.01909
38 1 -1.1104 3.82854 5.59722 3.77646
26 1 -1.1104 1.07215 8.3019 0.921967
36 1 -1.1104 3.91941 8.35268 3.81911
94 1 -1.1104 3.82138 5.49494 6.50429
39 2 2.2208 -0.228703 6.95389 5.16498
41 2 2.2208 -0.31316 1.20059 5.17825
42 2 2.2208 -0.362529 4.12134 2.40949
8707 2 2.2208 5.29739 -4.19983 5.13821
8727 2 2.2208 -0.413217 -4.29551 -0.365917
8725 2 2.2208 5.28931 -4.30665 -0.535837
8708 2 2.2208 -0.181107 -4.36579 5.13506
29 1 -1.1104 6.74976 8.26439 3.64145
80 1 -1.1104 1.08175 -2.8261 6.63563
87 1 -1.1104 3.9723 2.61613 6.50222
93 1 -1.1104 3.91577 8.33006 6.6733
8706 2 2.2208 2.65588 -4.26934 2.39975
40 2 2.2208 -0.287844 -1.5049 2.43366
180 2 2.2208 2.60473 -1.45135 -0.335711
11 1 -1.1104 6.72021 -0.00460525 0.919594
5 1 -1.1104 6.7381 2.61988 0.93923
90 1 -1.1104 6.64998 8.41082 6.4832
33 1 -1.1104 6.65442 5.53839 3.72552
27 1 -1.1104 6.78595 8.40247 1.10504
15 1 -1.1104 6.79969 -0.0757598 3.80386
31 1 -1.1104 6.66657 5.44617 0.946125
9 1 -1.1104 6.72575 2.76223 3.70642
8 1 -1.1104 6.75997 -2.89853 3.73444
4 1 -1.1104 6.64739 -2.79708 0.977853
46 2 2.2208 10.8895 1.31752 5.24471
47 1 -1.1104 12.1498 -2.82265 1.02355
48 1 -1.1104 12.2305 2.7808 1.05183
49 1 -1.1104 12.3833 -2.91552 3.84808
50 1 -1.1104 12.1358 2.83769 3.77944
51 1 -1.1104 12.3836 -0.1499 1.00588
52 2 2.2208 10.8466 -1.43699 2.35472
53 2 2.2208 10.7422 4.1985 2.53182
54 1 -1.1104 12.231 0.0117933 3.86842
55 1 -1.1104 9.48531 -2.77769 1.05797
56 1 -1.1104 9.47983 2.78857 1.08029
57 2 2.2208 8.03277 1.30398 2.41951
58 1 -1.1104 9.54257 -2.84291 3.83902
59 1 -1.1104 9.41155 2.67329 3.95357
60 2 2.2208 8.20525 -1.34669 5.19891
61 2 2.2208 7.98168 4.1224 5.25499
62 1 -1.1104 9.56771 -0.0291037 0.9729
63 1 -1.1104 9.60978 -0.00591479 3.78463
64 2 2.2208 10.8263 6.95979 5.25676
66 1 -1.1104 12.2948 8.44562 3.81835
67 1 -1.1104 12.3188 5.71286 1.07276
68 1 -1.1104 12.0174 5.6666 3.76014
69 1 -1.1104 9.57361 8.34667 0.863845
70 2 2.2208 8.11707 6.87757 2.34081
71 1 -1.1104 9.46823 8.25955 3.63819
72 1 -1.1104 9.54128 5.50727 0.980987
73 1 -1.1104 9.37937 5.53633 3.98971
65 1 -1.1104 12.2888 8.53952 1.02904
149 1 -1.1104 9.51657 5.5745 6.69471
143 1 -1.1104 9.32365 2.86008 6.66678
82 1 -1.1104 6.68574 -2.73828 6.43915
92 1 -1.1104 6.72217 5.53749 6.69419
146 1 -1.1104 12.185 5.49502 6.65167
83 1 -1.1104 6.59184 2.68739 6.65464
75 2 2.2208 13.6898 -1.43699 5.15019
77 2 2.2208 13.5574 4.31577 5.12534
235 2 2.2208 8.16836 4.1281 -0.377727
239 2 2.2208 8.0669 -1.44214 -0.463627
84 1 -1.1104 0.98493 -0.0476581 6.63197
89 1 -1.1104 1.21187 8.32305 6.67629
91 1 -1.1104 1.12519 5.4487 6.67856
43 2 2.2208 -0.345739 6.92552 10.8852
8715 2 2.2208 2.47033 -4.16187 8.07701
86 1 -1.1104 3.9252 -3.04146 6.70071
81 1 -1.1104 1.08469 2.62296 6.52298
88 1 -1.1104 3.68188 -0.0222049 6.64665
122 1 -1.1104 1.03302 8.39911 9.42563
95 2 2.2208 5.4648 1.26176 10.7797
96 1 -1.1104 0.998606 -2.88059 12.2403
97 1 -1.1104 1.0863 2.66676 12.1609
100 1 -1.1104 0.937817 -2.89372 9.47907
101 1 -1.1104 1.10531 2.62528 9.43578
104 1 -1.1104 1.05387 -0.187784 12.2816
106 2 2.2208 5.2017 -1.40651 7.98609
107 2 2.2208 5.33349 4.11198 8.01119
108 1 -1.1104 1.06536 0.00516804 9.43893
110 1 -1.1104 3.77538 -2.92055 12.1925
111 1 -1.1104 3.78861 2.72777 12.2208
112 2 2.2208 2.39298 1.34699 8.05067
113 1 -1.1104 3.66289 -2.85852 9.40312
114 1 -1.1104 4.04012 2.53602 9.37287
115 2 2.2208 2.50293 -1.43216 10.8304
116 2 2.2208 2.54522 4.0107 10.7574
117 1 -1.1104 3.91635 -0.02772 12.2577
118 1 -1.1104 3.92915 -0.133411 9.44506
119 2 2.2208 5.32094 6.9528 10.7718
120 1 -1.1104 0.983669 8.34462 12.3605
124 1 -1.1104 1.12727 5.52392 12.3027
126 1 -1.1104 1.01527 5.52288 9.53353
128 1 -1.1104 3.81839 8.33949 12.4628
129 2 2.2208 2.57232 6.85539 8.05521
130 1 -1.1104 3.86814 8.39473 9.6035
131 1 -1.1104 3.97918 5.47477 12.1011
132 1 -1.1104 3.83023 5.49344 9.39796
135 2 2.2208 -0.350596 1.24581 10.7528
133 2 2.2208 -0.356593 4.21367 7.97817
8717 2 2.2208 -0.424416 -4.31991 10.8937
123 1 -1.1104 6.69626 8.47618 9.34222
134 2 2.2208 -0.341316 -1.44662 8.06916
174 2 2.2208 -0.318142 4.03538 13.6597
176 2 2.2208 5.34787 -1.29218 13.6037
179 2 2.2208 5.20424 4.11221 13.5751
159 2 2.2208 10.8298 -1.48204 7.99491
8713 2 2.2208 7.97769 -4.23294 7.90217
145 1 -1.1104 12.3398 8.49824 6.58563
139 1 -1.1104 12.3147 -2.87029 6.61367
140 1 -1.1104 12.2334 2.73073 6.69471
142 1 -1.1104 9.49323 -2.86346 6.77829
79 2 2.2208 13.674 1.30621 8.06476
167 2 2.2208 8.22711 -1.56302 10.9275
164 2 2.2208 8.06246 1.30312 7.96282
85 1 -1.1104 6.72187 0.058902 6.47547
170 1 -1.1104 9.52896 -0.00223861 9.44814
99 1 -1.1104 6.81114 2.75761 12.1593
150 1 -1.1104 9.45127 5.63145 12.2688
155 1 -1.1104 12.3525 2.73246 12.211
290 2 2.2208 8.23901 1.26617 13.6855
147 1 -1.1104 9.55423 8.36693 6.60228
171 2 2.2208 10.8462 7.04463 10.7405
144 1 -1.1104 9.59254 0.0530449 6.76372
160 2 2.2208 10.7979 4.15828 8.07666
102 1 -1.1104 6.63883 -2.84659 9.43653
98 1 -1.1104 6.63155 -2.73441 12.2016
103 1 -1.1104 6.80427 2.80824 9.37299
109 1 -1.1104 6.73144 -0.0294875 9.30647
127 1 -1.1104 6.70828 5.58845 9.41624
105 1 -1.1104 6.88258 0.00703508 12.1771
165 1 -1.1104 9.49291 -2.8979 9.44274
141 1 -1.1104 12.1402 -0.0931013 6.61353
162 1 -1.1104 9.52383 -2.94387 12.2521
148 1 -1.1104 9.40737 5.49352 9.53695
153 2 2.2208 10.8657 1.42168 10.7797
125 1 -1.1104 6.59497 5.40329 12.2665
154 1 -1.1104 12.3339 -2.95641 12.2313
161 1 -1.1104 12.1552 0.0332948 9.28245
138 1 -1.1104 12.3213 5.54947 12.1964
137 1 -1.1104 12.1612 5.72263 9.46709
168 2 2.2208 8.09849 4.13193 10.8484
169 1 -1.1104 9.5289 -0.138292 12.3005
157 1 -1.1104 12.2289 2.79376 9.46014
136 1 -1.1104 9.50571 8.47275 12.2384
151 1 -1.1104 9.53485 8.30802 9.37054
173 1 -1.1104 12.2764 8.39709 9.41077
163 1 -1.1104 9.55252 2.85329 12.2009
172 1 -1.1104 12.3852 8.38653 12.2199
152 2 2.2208 8.14937 7.03852 7.97084
121 1 -1.1104 6.67812 8.31925 12.2877
156 1 -1.1104 12.3442 -2.89458 9.38923
166 1 -1.1104 9.69293 2.7752 9.53974
158 1 -1.1104 12.13 -0.245205 12.1491
78 2 2.2208 13.7381 -1.5016 10.8948
44 2 2.2208 13.614 7.03054 8.03899
289 2 2.2208 8.00983 6.9071 13.5692
182 2 2.2208 5.3114 1.26873 16.5204
183 1 -1.1104 1.17097 -2.84185 17.8149
184 1 -1.1104 1.25876 2.73909 18.0188
187 1 -1.1104 0.957636 -3.01429 15.0048
189 1 -1.1104 1.00756 2.66599 14.9951
195 1 -1.1104 1.15879 -0.112801 17.8859
197 2 2.2208 5.16206 -1.55637 19.3614
198 2 2.2208 5.25991 4.17519 19.2182
199 1 -1.1104 0.932757 -0.248635 15.0962
203 1 -1.1104 3.89814 -3.04598 17.9105
204 1 -1.1104 3.99941 2.78979 17.8676
205 2 2.2208 2.46814 1.38535 19.4152
206 1 -1.1104 3.79744 -2.90645 15.0038
208 1 -1.1104 3.87905 2.57034 15.1651
210 2 2.2208 2.47056 -1.5161 16.4635
211 2 2.2208 2.42648 4.06815 16.4124
212 1 -1.1104 3.93443 -0.143329 17.8487
213 1 -1.1104 3.71523 -0.14178 15.0262
215 2 2.2208 5.26906 6.88341 16.343
216 1 -1.1104 0.915017 8.23595 18.0601
218 1 -1.1104 1.02108 8.28869 15.1457
221 1 -1.1104 1.0359 5.5159 17.7924
223 1 -1.1104 1.05627 5.43004 15.0603
227 1 -1.1104 3.73296 8.48091 17.7883
228 2 2.2208 2.46793 6.97589 19.161
229 1 -1.1104 3.87302 8.30173 15.0866
231 1 -1.1104 3.87109 5.65301 17.6401
232 1 -1.1104 3.92387 5.50483 14.7955
230 1 -1.1104 3.91464 8.07642 20.4441
8928 2 2.2208 -0.233492 -4.31212 16.456
224 1 -1.1104 1.07767 5.61968 20.6519
9209 2 2.2208 -0.300052 6.86957 16.3716
238 2 2.2208 -0.240466 -1.69073 19.3924
9211 2 2.2208 -0.292434 4.11374 19.1676
8903 2 2.2208 2.55555 -4.50476 19.1715
186 1 -1.1104 6.77864 2.70743 17.8915
191 1 -1.1104 6.76485 -2.93425 15.0753
237 2 2.2208 -0.340892 1.13907 16.4518
177 2 2.2208 2.44536 6.88519 13.6539
233 1 -1.1104 3.73326 5.34446 20.5353
209 1 -1.1104 3.7959 2.78522 20.5748
8733 2 2.2208 2.51269 -4.24214 13.6256
175 2 2.2208 -0.397892 -1.60075 13.6696
178 2 2.2208 2.4169 1.26739 13.6133
225 1 -1.1104 6.7229 5.56281 15.1906
217 1 -1.1104 6.56779 8.39537 17.8789
201 1 -1.1104 6.60372 -0.162833 15.1405
185 1 -1.1104 6.59222 -2.82109 17.9137
219 1 -1.1104 6.82078 8.16692 14.942
193 1 -1.1104 6.5848 2.62083 14.8467
196 1 -1.1104 6.79608 -0.142281 17.9842
222 1 -1.1104 6.6398 5.60687 17.9525
245 2 2.2208 10.8354 1.42598 16.429
246 1 -1.1104 12.4037 -2.77274 17.72
247 1 -1.1104 12.3346 2.70435 17.775
248 1 -1.1104 12.3505 -2.84743 14.9384
250 1 -1.1104 12.2922 2.68763 14.9971
252 1 -1.1104 12.2239 -0.258311 17.6567
253 2 2.2208 10.8712 -1.46315 19.0325
254 2 2.2208 10.7692 4.16419 19.2061
255 1 -1.1104 12.3013 0.0537256 14.8614
257 1 -1.1104 9.3674 -2.8841 17.8738
258 1 -1.1104 9.46952 2.65296 17.8945
259 2 2.2208 8.07624 1.26304 19.3065
260 1 -1.1104 9.55378 -2.87874 15.0826
262 1 -1.1104 9.42771 2.74679 14.9945
264 2 2.2208 8.00592 -1.58193 16.4591
265 2 2.2208 8.10903 4.09013 16.4676
266 1 -1.1104 9.436 -0.0153359 17.6788
267 1 -1.1104 9.45892 -0.209442 14.9038
269 2 2.2208 10.8098 6.88524 16.4002
270 1 -1.1104 12.2798 8.24679 17.9598
271 1 -1.1104 12.2945 8.35157 14.9237
273 1 -1.1104 12.3492 5.50123 17.8933
274 1 -1.1104 12.5086 5.53742 15.0772
276 1 -1.1104 9.40737 8.29034 17.8033
277 2 2.2208 7.95458 6.87738 19.2028
278 1 -1.1104 9.53155 8.49537 15.1334
280 1 -1.1104 9.45753 5.51224 17.7159
281 1 -1.1104 9.58877 5.51548 15.0489
279 1 -1.1104 9.5717 8.41041 20.6257
275 1 -1.1104 12.3129 5.50615 20.7008
251 1 -1.1104 12.3462 2.80568 20.5624
220 1 -1.1104 6.75189 8.27659 20.6919
226 1 -1.1104 6.54531 5.43302 20.6789
194 1 -1.1104 6.69063 2.66394 20.613
249 1 -1.1104 12.1644 -2.82905 20.5861
286 2 2.2208 13.6939 6.93378 13.5856
292 2 2.2208 10.9432 4.21545 13.6536
291 2 2.2208 10.9283 -1.57017 13.5979
214 1 -1.1104 3.79292 -0.0145603 20.5965
200 1 -1.1104 0.96381 -0.0150861 20.6978
334 2 2.2208 2.52334 4.1132 27.6952
8878 2 2.2208 2.29234 -4.23777 24.8686
190 1 -1.1104 0.993659 2.84585 20.7525
188 1 -1.1104 1.06029 -2.98323 20.6122
342 2 2.2208 -0.303661 -1.49532 24.9319
207 1 -1.1104 3.76547 -2.98355 20.7382
294 2 2.2208 5.23079 1.31329 22.0571
295 1 -1.1104 0.899005 -2.89453 23.5045
296 1 -1.1104 1.077 2.56626 23.5109
299 1 -1.1104 1.13413 -2.71373 26.2802
300 1 -1.1104 1.02809 2.73154 26.431
303 1 -1.1104 1.10002 -0.174104 23.5184
305 2 2.2208 5.33634 -1.51546 24.8452
306 2 2.2208 5.19452 4.29408 25.0077
307 1 -1.1104 1.14596 0.0311045 26.3378
309 1 -1.1104 3.73373 -2.89934 23.5182
310 1 -1.1104 3.86792 2.90739 23.3872
311 2 2.2208 2.46084 1.31999 25.004
312 1 -1.1104 3.95427 -2.92791 26.2023
313 1 -1.1104 3.90528 2.848 26.0556
314 2 2.2208 2.29251 -1.55566 22.0287
315 2 2.2208 2.42289 4.17972 22.0968
316 1 -1.1104 3.69221 -0.0234022 23.3438
317 1 -1.1104 3.95152 -0.0377302 26.2321
318 2 2.2208 5.12853 6.96179 22.0974
319 1 -1.1104 0.924127 8.2406 23.2124
321 1 -1.1104 1.16731 8.36134 26.167
323 1 -1.1104 0.892914 5.41035 23.4949
325 1 -1.1104 1.12511 5.48893 26.2911
327 1 -1.1104 3.90271 8.20292 23.7876
328 2 2.2208 2.43144 7.00512 24.9291
329 1 -1.1104 3.96883 8.41005 26.3557
330 1 -1.1104 3.78718 5.54126 23.4803
331 1 -1.1104 3.85191 5.55487 26.4619
8880 2 2.2208 -0.314143 -4.42595 22.0021
293 2 2.2208 -0.290246 3.99795 24.8464
335 2 2.2208 5.37362 6.96423 27.7342
298 1 -1.1104 6.57683 2.70409 23.4237
332 2 2.2208 5.26782 1.30106 27.5749
181 2 2.2208 -0.344019 1.31924 27.7629
343 2 2.2208 -0.439093 6.85312 27.6325
8787 2 2.2208 10.8733 -4.27419 22.0365
338 2 2.2208 13.6314 -1.36194 21.9544
282 1 -1.1104 9.31561 5.58355 20.5523
263 1 -1.1104 9.3746 2.68263 20.6881
261 1 -1.1104 9.40939 -2.8903 20.5181
272 1 -1.1104 12.3971 8.28396 20.8229
268 1 -1.1104 9.53976 -0.123006 20.6486
256 1 -1.1104 12.2576 -0.0714838 20.5596
341 1 -1.1104 12.2559 8.30539 23.5924
353 1 -1.1104 12.2651 2.60795 26.3169
244 1 -1.1104 12.2404 5.54221 23.573
362 1 -1.1104 9.56606 2.72573 26.3257
333 1 -1.1104 12.4137 8.26472 26.2621
324 1 -1.1104 6.69262 5.48688 23.5749
363 2 2.2208 8.08216 -1.48368 22.0885
359 1 -1.1104 9.46468 2.71678 23.5484
202 1 -1.1104 6.68656 -0.102611 20.7701
192 1 -1.1104 6.49322 -3.02012 20.5944
365 1 -1.1104 9.42679 -0.0682219 23.4135
345 1 -1.1104 9.46753 5.60801 26.2384
348 2 2.2208 8.06892 7.00029 24.8909
347 1 -1.1104 9.52656 8.28864 26.1187
302 1 -1.1104 6.70491 2.77994 26.2868
297 1 -1.1104 6.60633 -2.88195 23.3044
322 1 -1.1104 6.73312 8.28228 26.2632
326 1 -1.1104 6.6834 5.61898 26.3548
301 1 -1.1104 6.71003 -2.9347 26.2218
364 2 2.2208 8.03071 4.14971 21.9782
366 1 -1.1104 9.43374 -0.175129 26.2053
349 2 2.2208 10.8686 1.41562 22.0986
241 2 2.2208 10.8578 1.43812 27.7357
308 1 -1.1104 6.65026 -0.117405 26.1584
355 2 2.2208 10.8702 -1.47261 24.8253
354 1 -1.1104 12.253 0.0461466 23.3858
350 1 -1.1104 12.2094 -2.84407 23.464
243 1 -1.1104 12.3102 5.42959 26.3349
304 1 -1.1104 6.6265 -0.153644 23.5249
346 1 -1.1104 9.53704 5.5389 23.3275
367 2 2.2208 10.8831 6.9797 22.0779
351 1 -1.1104 12.0632 2.83857 23.3959
357 1 -1.1104 12.167 -0.168842 26.3596
361 1 -1.1104 9.5208 -2.91266 26.2138
352 1 -1.1104 12.3457 -2.97678 26.2245
242 1 -1.1104 9.5091 8.38555 23.4037
356 2 2.2208 10.8812 4.16461 24.9444
358 1 -1.1104 9.43187 -2.86192 23.3467
360 2 2.2208 8.10195 1.3536 24.8389
320 1 -1.1104 6.75038 8.33872 23.5607
340 2 2.2208 10.9768 6.95849 27.5926
368 2 2.2208 5.25199 12.618 5.13161
369 1 -1.1104 1.14654 11.0768 1.08354
373 2 2.2208 5.32406 9.7662 2.36541
374 1 -1.1104 1.34499 11.2367 3.99746
376 2 2.2208 2.64335 12.4636 2.41702
377 2 2.2208 2.43048 9.71682 5.20771
378 1 -1.1104 3.80165 11.0259 0.849651
380 1 -1.1104 4.08452 11.1911 3.71001
381 2 2.2208 5.40986 18.2104 5.19299
382 1 -1.1104 1.07091 13.8065 1.08695
384 1 -1.1104 1.25236 19.5385 1.12525
388 1 -1.1104 1.00152 14.1361 3.89661
389 1 -1.1104 1.27331 19.6376 3.8395
391 1 -1.1104 1.11859 16.7271 1.22087
394 2 2.2208 5.30019 15.3348 2.40983
395 2 2.2208 5.30714 21.0411 2.48026
396 1 -1.1104 1.04952 16.8601 3.97617
398 1 -1.1104 3.90227 13.7722 1.12773
400 1 -1.1104 4.00428 19.5731 1.0108
402 2 2.2208 2.57606 18.1952 2.4026
403 1 -1.1104 3.70972 13.8745 3.9631
404 1 -1.1104 3.892 19.5321 3.81214
405 2 2.2208 2.48332 15.5299 5.23115
406 2 2.2208 2.46197 21.0048 5.11166
407 1 -1.1104 3.90688 16.6792 1.06445
409 1 -1.1104 4.01374 16.689 3.80801
412 2 2.2208 -0.155857 12.5492 5.12156
9404 2 2.2208 -0.348985 21.052 2.5617
401 1 -1.1104 3.72735 19.6052 6.60049
392 1 -1.1104 1.20675 16.9893 6.7732
399 1 -1.1104 4.07269 13.8824 6.6068
383 1 -1.1104 1.20491 14.2401 6.75382
408 1 -1.1104 3.90519 16.85 6.80092
410 2 2.2208 -0.33382 15.4411 2.46595
9405 2 2.2208 -0.281023 18.2698 5.33163
653 2 2.2208 -0.236904 12.5516 -0.429641
411 2 2.2208 -0.308163 9.65393 2.22265
649 2 2.2208 5.42183 18.1729 -0.230163
651 2 2.2208 2.4254 9.74063 -0.364817
371 1 -1.1104 6.65597 11.2616 1.01707
397 1 -1.1104 6.696 16.8492 3.78278
426 1 -1.1104 6.71795 19.5998 3.86783
385 1 -1.1104 6.69004 13.9221 1.0132
427 1 -1.1104 6.64184 16.7878 1.21066
390 1 -1.1104 6.54822 14.0789 3.86989
425 1 -1.1104 6.74213 19.658 1.07244
375 1 -1.1104 6.81661 11.1715 3.76132
415 2 2.2208 10.879 12.6649 5.23933
416 1 -1.1104 12.3975 11.1204 1.06469
418 2 2.2208 10.785 9.75411 2.39672
419 1 -1.1104 12.1864 11.1687 3.81848
420 2 2.2208 8.05316 12.5865 2.39165
421 2 2.2208 8.08114 9.84316 5.08123
422 1 -1.1104 9.5249 11.0917 1.04002
424 1 -1.1104 9.56925 11.1893 3.78901
428 2 2.2208 10.8272 18.1599 5.15472
429 1 -1.1104 12.4583 13.9668 1.1426
431 1 -1.1104 12.4113 19.5786 0.930386
433 1 -1.1104 12.3801 13.9768 4.09973
434 1 -1.1104 12.2107 19.5136 3.79288
435 1 -1.1104 12.2925 16.7487 1.01923
437 2 2.2208 11.0387 15.3112 2.42388
438 2 2.2208 10.9425 20.9441 2.21368
439 1 -1.1104 12.5039 16.6717 3.80549
440 1 -1.1104 9.52646 13.8813 0.986323
442 1 -1.1104 9.5796 19.6716 0.890676
444 2 2.2208 8.12775 18.1798 2.34945
445 1 -1.1104 9.53834 14.0408 3.61374
446 1 -1.1104 9.42809 19.5212 3.70037
447 2 2.2208 8.15228 15.388 5.18203
448 2 2.2208 8.14616 21.0995 5.08959
449 1 -1.1104 9.46831 16.7061 1.02166
451 1 -1.1104 9.60464 16.7622 3.80518
423 1 -1.1104 9.4233 11.0198 6.67034
417 1 -1.1104 12.2522 11.2242 6.74963
372 1 -1.1104 6.55334 11.3025 6.54416
432 1 -1.1104 12.3628 19.4695 6.70236
436 1 -1.1104 12.3376 16.7496 6.67114
687 2 2.2208 8.05728 21.0873 -0.412839
688 2 2.2208 10.8945 18.1344 -0.40005
9416 2 2.2208 -0.253956 15.518 13.6655
470 1 -1.1104 0.981331 19.6857 6.57171
379 1 -1.1104 3.82738 10.9879 6.63372
9408 2 2.2208 -0.375041 15.6072 8.13985
370 1 -1.1104 1.03833 11.3079 6.65965
9377 2 2.2208 -0.321687 12.6811 10.9323
9407 2 2.2208 -0.349217 18.3485 10.7935
9406 2 2.2208 -0.288481 21.1198 8.06444
519 2 2.2208 -0.287336 9.82671 7.96992
454 1 -1.1104 3.95205 19.8723 12.2643
455 1 -1.1104 3.81181 14.2093 12.2031
459 1 -1.1104 1.03725 19.6673 9.37303
460 1 -1.1104 1.1241 16.81 9.50398
461 2 2.2208 5.3227 21.1539 7.96072
462 1 -1.1104 1.02123 14.018 9.49319
463 2 2.2208 5.3312 15.4036 7.97413
466 1 -1.1104 1.10441 19.7346 12.193
467 1 -1.1104 0.982999 13.9383 12.4744
468 2 2.2208 5.32101 18.2233 10.7559
469 1 -1.1104 3.84973 19.7604 9.45932
471 2 2.2208 2.57657 18.3122 8.09072
472 1 -1.1104 4.00643 16.8758 9.43614
473 1 -1.1104 3.84017 14.0193 9.31728
475 1 -1.1104 1.1475 16.9983 12.2724
476 1 -1.1104 3.86249 16.9499 12.3668
477 2 2.2208 2.52005 21.218 10.869
478 2 2.2208 5.21327 12.521 10.7828
479 1 -1.1104 0.949077 11.124 12.3429
481 2 2.2208 2.48548 15.5511 10.814
482 2 2.2208 5.35375 9.77753 7.99898
483 1 -1.1104 1.08915 11.1709 9.59213
485 2 2.2208 2.52592 12.6676 8.01271
486 2 2.2208 2.39416 9.71091 10.8751
487 1 -1.1104 3.87046 11.1335 12.2488
488 1 -1.1104 3.91967 11.1827 9.55195
521 2 2.2208 5.35202 9.66286 13.6995
474 1 -1.1104 6.66729 16.7641 12.2995
456 1 -1.1104 6.68077 19.6653 9.40408
522 2 2.2208 -0.501139 9.79102 13.7108
9417 2 2.2208 -0.371852 21.054 13.6773
572 2 2.2208 5.40172 20.9895 13.7113
523 2 2.2208 2.45262 12.5127 13.6127
524 2 2.2208 5.41417 15.4084 13.6334
520 2 2.2208 2.51852 18.3677 13.5605
511 1 -1.1104 12.3935 19.4788 12.1823
450 1 -1.1104 9.46609 16.7301 6.56767
441 1 -1.1104 9.38894 13.9124 6.53937
387 1 -1.1104 6.63613 19.8203 6.53152
386 1 -1.1104 6.78354 14.2096 6.57594
414 2 2.2208 13.7375 18.0805 8.04858
458 1 -1.1104 6.74698 13.8909 9.45959
510 2 2.2208 8.01937 12.6044 8.08875
500 1 -1.1104 9.40576 14.0229 12.4707
611 2 2.2208 10.9171 9.79867 13.6029
393 1 -1.1104 6.81414 16.8129 6.58154
507 1 -1.1104 12.2758 19.4859 9.38469
501 1 -1.1104 12.3092 16.622 9.38487
497 1 -1.1104 9.51275 14.1491 9.60886
430 1 -1.1104 12.1872 14.0488 6.7469
496 1 -1.1104 9.50503 19.7449 9.49755
498 2 2.2208 7.95885 18.2316 7.91077
464 1 -1.1104 6.81753 19.5241 12.4201
465 1 -1.1104 6.48444 13.872 12.1889
480 1 -1.1104 6.69116 10.9614 12.2806
514 2 2.2208 10.9206 12.6515 10.8564
489 1 -1.1104 12.2315 11.1483 9.48424
505 1 -1.1104 12.5829 16.8337 12.2152
490 2 2.2208 10.938 9.76606 7.90262
492 1 -1.1104 9.49801 16.9812 9.31656
443 1 -1.1104 9.58374 19.4661 6.57324
457 1 -1.1104 6.78623 16.7397 9.39653
484 1 -1.1104 6.73656 11.179 9.42713
504 2 2.2208 10.8265 15.3969 8.01723
494 2 2.2208 8.06302 20.9608 10.8402
509 2 2.2208 8.21626 9.79724 10.7412
493 1 -1.1104 9.64672 16.7263 12.0204
513 2 2.2208 11.0043 18.1363 10.7892
508 1 -1.1104 12.3833 13.9187 9.41453
499 1 -1.1104 9.53201 19.4693 12.2927
502 2 2.2208 10.8497 20.9584 8.03671
506 1 -1.1104 9.49889 11.128 12.1515
503 1 -1.1104 9.60796 11.1954 9.34902
491 1 -1.1104 12.1641 11.2572 12.391
512 1 -1.1104 12.4819 14.0579 12.1771
495 2 2.2208 8.02385 15.385 10.8605
576 2 2.2208 8.01313 12.7006 13.5979
526 2 2.2208 5.40359 12.6373 16.4739
527 1 -1.1104 1.15407 11.273 18.0889
529 2 2.2208 5.15535 9.68727 19.2317
530 1 -1.1104 1.02747 11.1092 15.1145
533 2 2.2208 2.73221 12.6929 19.1725
534 2 2.2208 2.45205 9.78736 16.4041
535 1 -1.1104 3.88086 11.2039 17.7065
536 1 -1.1104 3.86417 11.0256 15.084
538 2 2.2208 5.29643 18.2395 16.4065
539 1 -1.1104 1.18166 13.9953 17.6253
540 1 -1.1104 0.978148 19.7282 18.0726
543 1 -1.1104 1.16232 13.9926 15.0948
545 1 -1.1104 1.04763 19.6265 15.1798
551 1 -1.1104 1.06604 16.6927 17.8291
553 2 2.2208 5.38566 15.3978 19.23
554 2 2.2208 5.33 20.964 19.3144
555 1 -1.1104 1.01361 16.885 15.2114
559 1 -1.1104 3.91254 14.051 17.7427
560 1 -1.1104 3.86932 19.6292 17.8909
561 2 2.2208 2.55115 18.1592 19.2611
562 1 -1.1104 3.99756 14.0229 14.9486
564 1 -1.1104 4.00213 19.6024 15.1066
566 2 2.2208 2.45755 15.4639 16.3899
567 2 2.2208 2.46289 21.1222 16.597
568 1 -1.1104 3.78738 16.8079 17.8567
569 1 -1.1104 3.93478 16.8809 15.0409
537 1 -1.1104 3.99734 11.3137 20.4851
563 1 -1.1104 3.83111 14.0578 20.6278
544 1 -1.1104 1.16439 13.3667 20.495
556 1 -1.1104 0.873975 16.5313 20.6841
570 1 -1.1104 3.79215 16.873 20.5806
9469 2 2.2208 -0.206606 12.5671 16.3964
9522 2 2.2208 -0.400696 18.2944 16.5336
546 1 -1.1104 1.06884 19.4546 20.7485
612 2 2.2208 10.9562 21.02 13.6295
549 1 -1.1104 6.73506 19.5846 15.1208
531 1 -1.1104 6.7155 11.1876 15.1413
541 1 -1.1104 6.77211 14.1455 17.8871
532 1 -1.1104 6.55777 11.1279 20.5536
542 1 -1.1104 6.75922 19.6452 17.8967
528 1 -1.1104 6.73671 11.3439 17.7983
557 1 -1.1104 6.78932 16.8182 15.1939
552 1 -1.1104 6.6648 16.9247 17.9444
547 1 -1.1104 6.78369 14.0578 14.9823
577 2 2.2208 10.7918 12.5827 16.4468
578 1 -1.1104 12.2592 11.2664 17.7993
579 2 2.2208 10.832 9.69276 19.3709
580 1 -1.1104 12.2823 11.0895 15.0208
582 2 2.2208 8.0193 12.5387 19.3065
583 2 2.2208 8.0541 9.81304 16.4484
584 1 -1.1104 9.506 11.0543 17.8567
585 1 -1.1104 9.35466 11.3666 15.0636
587 2 2.2208 10.9144 18.2823 16.5092
588 1 -1.1104 12.3182 13.893 17.9106
589 1 -1.1104 12.2997 19.571 17.9683
590 1 -1.1104 12.2413 14.024 15.1411
592 1 -1.1104 12.3131 19.532 15.0021
594 1 -1.1104 12.4138 16.8388 18.0052
595 2 2.2208 10.8863 15.4115 19.3822
596 2 2.2208 10.7945 21.0489 19.2082
597 1 -1.1104 12.3182 16.8003 15.0343
599 1 -1.1104 9.49249 13.9233 17.8829
600 1 -1.1104 9.50875 19.5897 17.7976
601 2 2.2208 8.08656 18.2664 19.2472
602 1 -1.1104 9.48558 14.1884 15.1659
604 1 -1.1104 9.59337 19.6977 15.0969
606 2 2.2208 8.06409 15.4956 16.5654
607 2 2.2208 8.07879 20.9946 16.5121
608 1 -1.1104 9.56477 16.8093 17.7642
609 1 -1.1104 9.39305 16.842 15.1025
603 1 -1.1104 9.32362 14.1423 20.6394
581 1 -1.1104 12.3072 11.082 20.5865
593 1 -1.1104 12.2507 19.5534 20.5585
548 1 -1.1104 6.59112 13.9378 20.9055
586 1 -1.1104 9.40329 11.2807 20.7792
591 1 -1.1104 12.1806 14.2053 20.8732
614 2 2.2208 8.1649 18.2869 13.7253
613 2 2.2208 10.8888 15.4206 13.6787
565 1 -1.1104 3.93216 19.5942 20.7015
525 2 2.2208 -0.201621 18.1702 27.8142
558 1 -1.1104 6.53893 16.6115 20.7251
654 2 2.2208 -0.396669 15.3 24.9305
626 1 -1.1104 6.61963 13.9548 23.7284
616 1 -1.1104 3.85605 19.6133 23.5667
618 1 -1.1104 3.52671 14.0615 23.4948
620 1 -1.1104 1.07825 19.5243 26.3158
621 1 -1.1104 1.11082 16.7068 26.4565
622 1 -1.1104 1.07613 13.7322 26.1489
624 2 2.2208 5.3458 20.8625 24.936
625 2 2.2208 5.23631 15.4088 24.9962
627 1 -1.1104 1.30965 19.6996 23.5922
628 1 -1.1104 0.738625 14.0719 23.2877
629 2 2.2208 5.15304 18.046 22.0951
630 1 -1.1104 4.00868 19.4794 26.3725
631 2 2.2208 2.49619 18.0898 25.0015
632 1 -1.1104 3.95604 16.8322 26.4187
633 1 -1.1104 3.93974 14.1225 26.4373
635 1 -1.1104 1.11702 16.7434 23.5527
636 1 -1.1104 3.87714 16.7391 23.4595
637 2 2.2208 2.46027 21.0541 22.153
638 2 2.2208 5.05418 12.6062 22.1074
639 1 -1.1104 0.907476 11.3161 23.4758
641 2 2.2208 2.31411 15.3267 21.9828
642 2 2.2208 5.26605 9.79093 24.8582
643 1 -1.1104 1.0999 11.0687 26.2558
645 2 2.2208 2.39379 12.4956 24.7796
646 1 -1.1104 4.08675 11.3609 23.7262
647 1 -1.1104 3.81353 11.2136 26.4181
658 2 2.2208 -0.230344 9.65644 24.8134
650 2 2.2208 2.49182 15.2625 27.8351
634 1 -1.1104 6.56088 16.8618 23.6197
666 1 -1.1104 6.93464 19.691 26.2401
652 2 2.2208 5.23628 12.522 27.6516
648 2 2.2208 2.60604 20.9409 27.671
691 2 2.2208 8.26321 15.2475 27.6441
689 2 2.2208 8.08324 9.69768 27.6543
690 2 2.2208 10.9291 12.4673 27.766
673 2 2.2208 10.9467 15.235 24.8559
610 1 -1.1104 9.28581 16.964 20.6853
674 1 -1.1104 12.2341 16.6551 23.488
660 1 -1.1104 9.50258 16.7146 26.2447
672 2 2.2208 10.9091 20.9335 24.8541
663 2 2.2208 7.93317 15.3971 22.2496
550 1 -1.1104 6.60595 19.4766 20.5838
662 2 2.2208 8.13415 20.906 22.0059
682 2 2.2208 10.8298 18.1629 22.1
669 1 -1.1104 9.4621 13.9587 23.4114
676 1 -1.1104 12.2974 13.8834 26.2622
683 2 2.2208 10.8607 12.5958 22.0705
677 1 -1.1104 9.49417 11.0865 23.7338
686 1 -1.1104 12.2189 11.1737 26.3336
598 1 -1.1104 12.3652 16.9281 20.9581
668 1 -1.1104 9.41783 19.7466 23.4078
664 1 -1.1104 9.67463 19.6008 26.2283
661 1 -1.1104 9.53654 16.7943 23.4242
671 1 -1.1104 9.53885 11.0869 26.4481
684 1 -1.1104 12.2077 11.1626 23.4524
679 2 2.2208 8.1233 12.535 24.8203
644 1 -1.1104 6.70847 11.1509 26.2464
685 2 2.2208 10.9245 9.78415 24.9594
681 1 -1.1104 12.315 13.9609 23.5575
680 1 -1.1104 12.3623 19.4952 23.4823
605 1 -1.1104 9.52863 19.6813 20.6433
675 1 -1.1104 12.4306 19.3571 26.2996
670 1 -1.1104 12.4133 16.6597 26.2939
617 1 -1.1104 6.69564 13.9304 26.3023
640 1 -1.1104 6.86132 11.2639 23.4253
665 1 -1.1104 9.61093 13.84 26.313
667 2 2.2208 8.06438 18.1771 24.9192
619 1 -1.1104 6.70826 16.8512 26.3814
623 1 -1.1104 6.61499 19.6073 23.3323
678 2 2.2208 8.06037 9.80903 22.0571
698 2 2.2208 5.27274 23.8915 5.28711
699 2 2.2208 5.16749 29.3998 5.29792
700 1 -1.1104 1.17659 25.2171 1.12926
701 1 -1.1104 0.893861 25.3074 3.90546
702 1 -1.1104 1.1526 22.4115 1.02594
703 1 -1.1104 0.918275 28.1282 1.0379
704 2 2.2208 5.18239 26.6629 2.48616
705 1 -1.1104 1.07707 22.4481 3.95143
706 1 -1.1104 0.942773 28.1331 3.92512
707 1 -1.1104 3.77643 25.1295 1.10764
708 2 2.2208 2.47505 23.7689 2.46993
709 2 2.2208 2.36519 29.4499 2.45557
710 1 -1.1104 3.7222 25.1971 3.97512
711 2 2.2208 2.34864 26.7283 5.227
712 1 -1.1104 3.85242 22.3661 1.04203
713 1 -1.1104 3.86027 28.0406 1.1008
714 1 -1.1104 3.86284 22.2954 3.82527
715 1 -1.1104 3.84302 28.0533 3.86605
716 1 -1.1104 1.08015 30.9299 1.01057
717 1 -1.1104 0.893145 30.7862 3.91788
718 1 -1.1104 0.884569 33.7119 1.17413
719 2 2.2208 5.09811 32.2062 2.40939
720 1 -1.1104 1.07082 33.6074 4.009
722 1 -1.1104 3.72267 30.7563 1.01298
723 1 -1.1104 3.60441 30.801 3.73514
724 2 2.2208 2.40458 32.3001 5.32879
725 1 -1.1104 3.73642 33.7145 1.02422
726 1 -1.1104 3.83364 33.5708 3.84976
785 1 -1.1104 3.87158 33.5845 6.61865
9746 2 2.2208 -0.372148 23.7227 5.30914
9744 2 2.2208 -0.402118 26.5645 2.38701
9745 2 2.2208 -0.495993 29.3875 5.31552
784 1 -1.1104 3.75628 30.8345 6.74598
9743 2 2.2208 -0.406291 32.2118 2.56072
9940 2 2.2208 -0.402552 23.8979 -0.362989
736 1 -1.1104 6.58369 27.9962 3.91895
773 1 -1.1104 1.05436 22.4389 6.73851
777 1 -1.1104 3.83448 25.3687 6.67053
782 1 -1.1104 1.20713 33.8416 6.75897
985 2 2.2208 2.41175 26.7111 -0.266441
732 1 -1.1104 6.62848 25.2306 3.82762
755 1 -1.1104 6.57553 30.8372 1.09836
781 1 -1.1104 6.58742 30.8664 6.67703
735 1 -1.1104 6.59624 22.387 3.86434
731 1 -1.1104 6.69012 25.3586 1.10014
733 1 -1.1104 6.61994 22.4391 1.05878
721 1 -1.1104 6.68531 33.6326 3.98181
756 1 -1.1104 6.50311 30.824 3.86304
757 1 -1.1104 6.46695 33.7611 1.14493
734 1 -1.1104 6.60935 28.136 1.1311
737 2 2.2208 10.9209 23.8365 5.1629
738 2 2.2208 10.7765 29.4043 5.29988
739 1 -1.1104 12.1187 25.1863 1.10384
740 1 -1.1104 12.3123 25.1197 3.78579
741 1 -1.1104 12.3643 22.3909 0.826622
742 1 -1.1104 12.4922 28.0389 1.13377
743 2 2.2208 10.7956 26.6859 2.54222
744 1 -1.1104 12.2093 22.2709 3.73329
745 1 -1.1104 12.0464 27.9511 3.94805
746 1 -1.1104 9.49341 25.2872 1.11337
747 2 2.2208 8.0544 23.8819 2.47505
748 2 2.2208 7.95086 29.3207 2.42208
749 1 -1.1104 9.41698 25.2175 3.97833
750 2 2.2208 8.03695 26.5648 5.33466
751 1 -1.1104 9.37312 22.4631 1.05848
752 1 -1.1104 9.54976 28.0662 1.21978
753 1 -1.1104 9.46403 22.4748 3.84086
754 1 -1.1104 9.29086 28.0138 4.03081
758 1 -1.1104 12.1981 31.0015 1.06318
759 1 -1.1104 12.1619 30.7381 3.92115
760 1 -1.1104 12.2663 33.741 1.12064
761 2 2.2208 10.8399 32.3452 2.39563
762 1 -1.1104 12.1553 33.6075 3.92303
763 1 -1.1104 9.29329 31.0189 1.06466
764 1 -1.1104 9.40353 30.9038 3.85633
765 2 2.2208 7.86838 32.0818 5.30587
766 1 -1.1104 9.38237 33.6718 1.01168
767 1 -1.1104 9.44923 33.6549 3.903
988 2 2.2208 7.88996 32.1171 -0.290608
775 1 -1.1104 6.58716 22.6297 6.76735
776 1 -1.1104 6.57328 28.1303 6.69659
823 1 -1.1104 12.2625 22.1998 6.52528
822 1 -1.1104 12.3021 25.2136 6.66136
828 1 -1.1104 12.1782 30.9252 6.7013
991 2 2.2208 10.8871 23.8052 -0.42568
9739 2 2.2208 -0.470942 32.278 8.10411
774 1 -1.1104 1.02237 28.0507 6.53048
771 1 -1.1104 0.972983 25.1615 6.75232
1130 1 -1.1104 0.967827 33.8163 9.47783
780 1 -1.1104 0.874385 31.1003 6.62481
9741 2 2.2208 -0.499105 26.6224 7.96008
779 1 -1.1104 3.77159 28.0422 6.70602
778 1 -1.1104 3.81514 22.4868 6.7541
786 2 2.2208 5.31831 23.8028 10.8219
787 2 2.2208 5.36184 29.4386 11.0126
788 1 -1.1104 0.961221 25.2005 12.3097
790 1 -1.1104 0.979951 25.3902 9.418
792 1 -1.1104 1.10822 22.5074 12.1836
793 1 -1.1104 1.06987 28.0726 12.1871
796 2 2.2208 5.30209 26.6625 8.18165
797 1 -1.1104 1.05257 22.5459 9.42754