ITEM: TIMESTEP
100000
ITEM: NUMBER OF ATOMS
17910
ITEM: BOX BOUNDS pp pp pp
-3.5873958457742550e-01 2.7698739584577556e+01
-4.3429713699236414e+00 3.3242297136992357e+02
-3.6051229831481751e-01 2.7700512298314038e+01
ITEM: ATOMS id type q x y z
1 2 2.2208 5.11899 1.28258 5.24425
2 1 -1.1104 1.14496 -2.89359 1.07235
3 1 -1.1104 0.895585 2.79675 1.06429
6 1 -1.1104 1.01337 -2.83929 4.01605
7 1 -1.1104 0.976754 2.54583 3.7949
10 1 -1.1104 0.961101 -0.0317635 1.15379
12 2 2.2208 5.26061 -1.44134 2.5852
13 2 2.2208 5.16099 4.15654 2.55993
14 1 -1.1104 0.945151 -0.0592573 4.0399
16 1 -1.1104 3.92471 -2.94338 1.13897
17 1 -1.1104 3.85979 2.69685 1.216
18 2 2.2208 2.40847 1.26542 2.58074
19 1 -1.1104 3.84956 -2.81644 3.81202
20 1 -1.1104 3.75059 2.72092 4.03548
21 2 2.2208 2.36014 -1.44633 5.2466
22 2 2.2208 2.49411 4.202 5.42306
23 1 -1.1104 3.85716 -0.0914251 1.10444
24 1 -1.1104 3.66252 -0.066503 3.88039
25 2 2.2208 5.19018 6.84121 5.37557
28 1 -1.1104 1.00039 8.26109 3.83953
30 1 -1.1104 0.912814 5.63643 1.11085
32 1 -1.1104 0.967043 5.46571 3.97916
34 1 -1.1104 3.85588 8.29172 1.30198
35 2 2.2208 2.42639 7.01679 2.52832
37 1 -1.1104 3.7013 5.50672 1.04227
38 1 -1.1104 3.81601 5.56703 3.90171
26 1 -1.1104 1.02377 8.36595 1.03158
36 1 -1.1104 3.79883 8.3452 4.03918
80 1 -1.1104 0.894834 -2.87762 6.72368
27 1 -1.1104 6.60498 8.41672 1.10299
94 1 -1.1104 3.85957 5.45398 6.72708
11 1 -1.1104 6.70594 -0.183317 1.08332
8706 2 2.2208 2.45766 -4.23535 2.5334
334 2 2.2208 2.36688 4.2298 -0.226979
332 2 2.2208 5.20206 1.32853 -0.350767
180 2 2.2208 2.44012 -1.41972 -0.260508
78 2 2.2208 13.6424 -1.45712 10.9463
4 1 -1.1104 6.62893 -2.9677 1.43785
160 2 2.2208 10.8639 4.12156 8.15059
152 2 2.2208 8.00507 6.90525 8.32164
151 1 -1.1104 9.33862 8.20163 9.70158
335 2 2.2208 5.24011 7.06662 -0.252021
8725 2 2.2208 5.30038 -4.23959 -0.214009
161 1 -1.1104 12.2226 -0.0592755 9.48454
5 1 -1.1104 6.57203 2.68055 1.06602
15 1 -1.1104 6.57573 -0.0960958 3.90248
8709 2 2.2208 8.01314 -4.28955 2.54097
90 1 -1.1104 6.75934 8.35174 6.86826
150 1 -1.1104 9.52156 5.40201 12.4494
8 1 -1.1104 6.65588 -2.93973 4.07741
33 1 -1.1104 6.61429 5.47377 4.05329
31 1 -1.1104 6.67723 5.49338 1.25136
29 1 -1.1104 6.67241 8.33118 4.12441
9 1 -1.1104 6.61815 2.70426 3.81336
46 2 2.2208 10.9067 1.19457 5.37712
47 1 -1.1104 12.2098 -2.87724 1.0652
48 1 -1.1104 12.3463 2.77847 1.22366
49 1 -1.1104 12.2798 -2.92183 3.98579
50 1 -1.1104 12.2296 2.78054 4.02012
51 1 -1.1104 12.2556 -0.0231976 1.26309
52 2 2.2208 10.8093 -1.38943 2.52668
53 2 2.2208 10.796 4.2199 2.54064
54 1 -1.1104 12.3316 -0.0705402 4.09087
55 1 -1.1104 9.46522 -2.882 1.16398
56 1 -1.1104 9.4211 2.8691 1.10139
57 2 2.2208 8.06666 1.30165 2.54049
58 1 -1.1104 9.417 -2.64167 3.94636
59 1 -1.1104 9.3805 2.69356 3.87651
60 2 2.2208 7.96304 -1.55797 5.41472
61 2 2.2208 8.02278 4.1207 5.34734
62 1 -1.1104 9.45929 0.0559591 1.11765
63 1 -1.1104 9.43624 -0.00847166 4.04938
64 2 2.2208 10.8128 6.83975 5.30319
66 1 -1.1104 12.3755 8.30834 3.89893
67 1 -1.1104 12.3934 5.47919 1.12277
68 1 -1.1104 11.9698 5.53256 3.98337
69 1 -1.1104 9.3597 8.48669 1.03861
70 2 2.2208 7.91822 6.98294 2.65031
71 1 -1.1104 9.51704 8.40774 3.93386
72 1 -1.1104 9.54954 5.75495 0.980366
73 1 -1.1104 9.24953 5.60375 3.89975
65 1 -1.1104 12.3149 8.25804 0.989733
140 1 -1.1104 12.2374 2.76748 6.88911
173 1 -1.1104 12.2588 8.28714 9.6202
170 1 -1.1104 9.33075 -0.0939554 9.63063
235 2 2.2208 7.92638 4.259 -0.232195
339 2 2.2208 13.56 -1.51318 -0.291836
288 2 2.2208 13.6492 4.15606 -0.293187
82 1 -1.1104 6.57205 -2.84301 6.8912
147 1 -1.1104 9.47111 8.23734 6.89878
340 2 2.2208 10.8742 6.88301 -0.317076
241 2 2.2208 10.7665 1.41011 -0.287375
8712 2 2.2208 10.8826 -4.32412 11.0276
88 1 -1.1104 3.8065 0.0212745 6.78458
91 1 -1.1104 1.0534 5.57363 6.78366
87 1 -1.1104 3.78348 2.70831 6.7615
81 1 -1.1104 0.829422 2.72115 6.64347
86 1 -1.1104 3.61676 -2.91794 6.5901
93 1 -1.1104 3.84673 8.30237 6.81814
89 1 -1.1104 0.967004 8.56655 6.62752
84 1 -1.1104 1.0645 -0.0796859 6.82704
83 1 -1.1104 6.68967 2.83104 6.84901
85 1 -1.1104 6.65059 -0.151742 6.56413
44 2 2.2208 13.5238 6.91651 8.04399
43 2 2.2208 -0.30869 6.90651 10.8561
122 1 -1.1104 1.04118 8.32423 9.57284
95 2 2.2208 5.15435 1.19639 11.1078
96 1 -1.1104 1.10781 -2.92797 12.4085
97 1 -1.1104 0.928492 2.68143 12.6399
100 1 -1.1104 1.20285 -3.06216 9.65433
101 1 -1.1104 0.962066 2.55771 9.69508
104 1 -1.1104 1.05326 -0.0567514 12.3748
106 2 2.2208 5.29225 -1.39873 8.13409
107 2 2.2208 5.26851 4.05937 8.1668
108 1 -1.1104 1.05007 -0.401317 9.50807
110 1 -1.1104 3.94544 -2.96097 12.3647
111 1 -1.1104 3.79285 2.74161 12.432
112 2 2.2208 2.39604 1.14882 8.19699
113 1 -1.1104 3.93465 -2.77233 9.59352
114 1 -1.1104 3.82753 2.66348 9.75142
115 2 2.2208 2.41387 -1.50109 11.0428
116 2 2.2208 2.31701 4.08639 11.0601
117 1 -1.1104 3.72811 -0.11675 12.5788
118 1 -1.1104 3.88691 -0.19932 9.72479
119 2 2.2208 5.15299 6.94862 11.009
120 1 -1.1104 1.14825 8.29153 12.4121
124 1 -1.1104 0.867834 5.32588 12.2933
126 1 -1.1104 1.0279 5.45782 9.64064
128 1 -1.1104 3.82072 8.36846 12.3433
129 2 2.2208 2.53218 6.96409 8.18779
130 1 -1.1104 3.84879 8.34665 9.52773
131 1 -1.1104 3.80764 5.57927 12.3201
132 1 -1.1104 3.71008 5.44037 9.54905
8715 2 2.2208 2.3955 -4.23392 8.08051
105 1 -1.1104 6.58811 -0.187955 12.4704
99 1 -1.1104 6.70038 2.66653 12.3543
92 1 -1.1104 6.62916 5.49852 6.83293
98 1 -1.1104 6.47605 -2.96372 12.4172
103 1 -1.1104 6.53348 2.65059 9.62213
133 2 2.2208 -0.361424 4.1102 8.12083
102 1 -1.1104 6.69169 -2.84142 9.67064
123 1 -1.1104 6.5716 8.29257 9.61836
125 1 -1.1104 6.60921 5.57817 12.4522
109 1 -1.1104 6.78791 -0.0134017 9.31713
139 1 -1.1104 12.1719 -2.96784 6.78162
143 1 -1.1104 9.43464 2.63086 6.61598
142 1 -1.1104 9.33288 -3.19218 6.65821
144 1 -1.1104 9.36909 -0.263601 6.82176
141 1 -1.1104 12.2051 -0.241192 6.74366
158 1 -1.1104 12.0784 -0.130533 12.2062
172 1 -1.1104 12.3012 8.18601 12.3656
39 2 2.2208 -0.334181 7.02722 5.24718
166 1 -1.1104 9.35056 2.68803 9.41523
167 2 2.2208 8.00649 -1.42644 10.9986
153 2 2.2208 10.749 1.28968 10.9948
146 1 -1.1104 12.1839 5.48131 6.81571
145 1 -1.1104 12.1865 8.442 6.69291
149 1 -1.1104 9.42403 5.38834 6.86456
162 1 -1.1104 9.5567 -2.86533 12.4839
165 1 -1.1104 9.53092 -2.79873 9.53024
121 1 -1.1104 6.75542 8.27943 12.4342
137 1 -1.1104 12.1929 5.5471 9.65012
155 1 -1.1104 12.4091 2.68662 12.4445
138 1 -1.1104 12.4172 5.50164 12.5069
156 1 -1.1104 12.2395 -2.9071 9.57374
159 2 2.2208 10.802 -1.59543 8.14034
154 1 -1.1104 12.2942 -2.7807 12.4075
168 2 2.2208 7.97682 4.00154 10.8994
171 2 2.2208 10.8952 6.81524 10.9862
148 1 -1.1104 9.37675 5.46253 9.75691
157 1 -1.1104 12.2114 2.72343 9.46723
169 1 -1.1104 9.42446 -0.124652 12.4516
164 2 2.2208 8.05733 1.29193 7.96658
136 1 -1.1104 9.607 8.44836 12.3465
127 1 -1.1104 6.53606 5.40764 9.54691
163 1 -1.1104 9.44604 2.56077 12.3291
8708 2 2.2208 -0.225359 -4.28841 5.36355
8714 2 2.2208 13.5208 -4.3002 2.4864
8727 2 2.2208 -0.329637 -4.24315 -0.239769
8710 2 2.2208 10.8408 -4.31742 5.42337
8751 2 2.2208 10.8121 -4.28864 -0.209237
182 2 2.2208 5.20765 1.15096 16.6085
183 1 -1.1104 0.925566 -3.04511 18.0379
184 1 -1.1104 1.02048 2.79272 18.0485
187 1 -1.1104 1.07543 -3.11936 15.1993
189 1 -1.1104 1.04307 2.65925 15.3803
195 1 -1.1104 1.05434 -0.136029 18.0099
197 2 2.2208 5.22329 -1.50652 19.3682
198 2 2.2208 5.23408 4.07187 19.461
199 1 -1.1104 0.90675 -0.261476 15.2899
203 1 -1.1104 3.81346 -2.91811 17.8742
204 1 -1.1104 3.9704 2.71214 17.9876
205 2 2.2208 2.40712 1.26657 19.4286
206 1 -1.1104 3.79808 -2.96548 15.1758
208 1 -1.1104 3.83275 2.54039 15.2303
210 2 2.2208 2.42496 -1.65562 16.6075
211 2 2.2208 2.36766 4.03659 16.586
212 1 -1.1104 3.73961 -0.0668299 18.0737
213 1 -1.1104 3.87179 -0.312328 15.2935
215 2 2.2208 5.04587 6.96894 16.6074
216 1 -1.1104 0.903578 8.31668 18.2112
218 1 -1.1104 1.00739 8.35951 15.266
221 1 -1.1104 0.974174 5.51012 17.8477
223 1 -1.1104 0.994786 5.49707 15.1247
227 1 -1.1104 3.57464 8.36484 17.8445
228 2 2.2208 2.40955 6.94509 19.1841
229 1 -1.1104 3.79366 8.20499 15.195
231 1 -1.1104 3.65444 5.48958 17.8977
232 1 -1.1104 3.76041 5.44709 15.1497
230 1 -1.1104 3.81373 8.25051 20.4972
217 1 -1.1104 6.56821 8.48343 17.9445
207 1 -1.1104 3.9789 -3.07909 20.7505
191 1 -1.1104 6.51689 -3.01686 15.2822
233 1 -1.1104 3.63763 5.52341 20.8078
192 1 -1.1104 6.73094 -2.76235 20.851
185 1 -1.1104 6.59176 -3.03652 18.0411
219 1 -1.1104 6.54363 8.42106 15.1721
196 1 -1.1104 6.68696 -0.233984 17.9501
186 1 -1.1104 6.65486 2.60694 18.0945
222 1 -1.1104 6.47634 5.52121 18.156
220 1 -1.1104 6.63345 8.46509 20.6635
336 2 2.2208 13.6043 6.98227 24.9975
237 2 2.2208 -0.309869 1.37113 16.6984
236 2 2.2208 13.6316 1.3232 19.412
179 2 2.2208 5.21674 4.11566 13.7856
178 2 2.2208 2.30207 1.19802 13.9902
177 2 2.2208 2.41085 6.95081 13.8116
201 1 -1.1104 6.75064 -0.194705 15.2629
225 1 -1.1104 6.54389 5.56337 15.2422
8886 2 2.2208 8.08286 -4.2943 19.5653
193 1 -1.1104 6.60002 2.89531 15.1913
245 2 2.2208 10.814 1.397 16.5766
246 1 -1.1104 12.046 -3.00093 18.0105
247 1 -1.1104 12.37 2.7877 18.0081
248 1 -1.1104 12.295 -2.82116 15.2309
250 1 -1.1104 12.2725 2.65238 15.2557
252 1 -1.1104 12.2383 -0.0747941 17.9912
253 2 2.2208 10.8856 -1.48726 19.2649
254 2 2.2208 10.86 4.21166 19.4323
255 1 -1.1104 12.3258 -0.0214965 15.1045
257 1 -1.1104 9.33631 -2.86924 18.0631
258 1 -1.1104 9.38116 2.66766 18.0347
259 2 2.2208 8.14176 1.43279 19.3044
260 1 -1.1104 9.49392 -3.01601 15.1706
262 1 -1.1104 9.40232 2.71995 15.1953
264 2 2.2208 7.94996 -1.64247 16.62
265 2 2.2208 7.95591 4.08259 16.7317
266 1 -1.1104 9.4619 -0.0948808 17.9898
267 1 -1.1104 9.59924 -0.155915 15.3013
269 2 2.2208 10.7555 6.85474 16.5524
270 1 -1.1104 12.3334 8.2953 18.0065
271 1 -1.1104 12.4197 8.13572 15.2453
273 1 -1.1104 12.1935 5.52434 17.8771
274 1 -1.1104 12.1848 5.45584 15.1115
276 1 -1.1104 9.30244 8.40842 17.8942
277 2 2.2208 7.9765 7.06305 19.4037
278 1 -1.1104 9.5097 8.25221 15.214
280 1 -1.1104 9.37687 5.59184 18.0891
281 1 -1.1104 9.34537 5.36618 15.4242
284 2 2.2208 13.6086 6.95901 19.3327
338 2 2.2208 13.6127 -1.46583 22.2647
289 2 2.2208 8.04618 6.90066 13.8853
8728 2 2.2208 13.6156 -4.28944 13.7804
275 1 -1.1104 12.2693 5.48169 20.5272
272 1 -1.1104 12.2973 8.2703 20.7853
283 2 2.2208 13.6229 4.027 16.5948
352 1 -1.1104 12.1576 -2.88208 26.3716
365 1 -1.1104 9.42176 -0.115356 23.6281
291 2 2.2208 10.8389 -1.40017 13.8897
290 2 2.2208 8.02103 1.29877 13.8111
282 1 -1.1104 9.44522 5.62024 20.8697
366 1 -1.1104 9.37656 -0.0593374 26.2768
292 2 2.2208 10.8056 4.04111 13.7588
224 1 -1.1104 0.731588 6.16813 20.5133
188 1 -1.1104 1.11123 -2.82071 20.7979
190 1 -1.1104 0.970512 2.7804 20.7396
209 1 -1.1104 3.8197 2.63251 20.739
200 1 -1.1104 1.07284 0.104142 20.9376
214 1 -1.1104 3.81243 -0.127843 20.9398
226 1 -1.1104 6.70221 5.46191 20.8347
202 1 -1.1104 6.69306 0.206355 20.7126
294 2 2.2208 5.34816 1.38282 22.2322
295 1 -1.1104 0.992811 -2.95086 23.6059
296 1 -1.1104 1.03788 2.61985 23.6895
299 1 -1.1104 1.0177 -2.90442 26.3132
300 1 -1.1104 0.888447 2.80333 26.3505
303 1 -1.1104 1.0351 -0.0905422 23.6949
305 2 2.2208 5.20626 -1.49895 25.0505
306 2 2.2208 5.20936 4.12772 25.0731
307 1 -1.1104 0.916176 -0.178434 26.3927
309 1 -1.1104 3.69938 -2.75185 23.4926
310 1 -1.1104 3.80814 2.74623 23.5185
311 2 2.2208 2.37378 1.31434 25.0129
312 1 -1.1104 3.80603 -2.86494 26.3563
313 1 -1.1104 3.68798 2.67929 26.483
314 2 2.2208 2.48812 -1.4617 22.1521
315 2 2.2208 2.47048 4.01683 22.2407
316 1 -1.1104 3.91087 0.0569312 23.8037
317 1 -1.1104 3.74724 -0.177711 26.4136
318 2 2.2208 5.27769 6.89298 22.2189
319 1 -1.1104 0.751485 8.04831 23.5989
321 1 -1.1104 1.03989 8.37694 26.5167
323 1 -1.1104 0.76515 5.2673 23.2271
325 1 -1.1104 0.923651 5.53259 26.0426
327 1 -1.1104 4.14659 8.18708 23.8028
328 2 2.2208 2.45238 6.88852 24.8764
329 1 -1.1104 3.78304 8.40682 26.4963
330 1 -1.1104 3.75754 5.43449 23.6191
331 1 -1.1104 3.91133 5.46639 26.3441
298 1 -1.1104 6.6498 2.84283 23.7636
301 1 -1.1104 6.59406 -2.82492 26.3984
8879 2 2.2208 5.17231 -4.34332 22.1924
304 1 -1.1104 6.73958 -0.0621919 23.6858
8878 2 2.2208 2.40881 -4.28632 25.0261
326 1 -1.1104 6.62209 5.54394 26.3953
324 1 -1.1104 6.55625 5.60123 23.6819
308 1 -1.1104 6.58921 -0.0724812 26.32
297 1 -1.1104 6.6142 -2.8815 23.5847
194 1 -1.1104 6.69187 2.85952 20.9063
320 1 -1.1104 6.82625 8.2673 23.4512
355 2 2.2208 10.7847 -1.5466 25.006
347 1 -1.1104 9.5014 8.35773 26.2782
362 1 -1.1104 9.32948 2.77769 26.2765
243 1 -1.1104 12.2616 5.66253 26.2574
357 1 -1.1104 12.1093 0.03767 26.499
256 1 -1.1104 12.3851 -0.0145681 20.9182
249 1 -1.1104 12.2894 -2.954 20.678
261 1 -1.1104 9.55462 -2.74237 20.743
268 1 -1.1104 9.61878 -0.0166229 20.8645
346 1 -1.1104 9.25982 5.55167 23.625
302 1 -1.1104 6.48119 2.76775 26.5228
354 1 -1.1104 12.2101 -0.0726143 23.7884
358 1 -1.1104 9.32774 -3.00216 23.6474
348 2 2.2208 8.07008 7.02674 24.9426
367 2 2.2208 10.7448 6.98475 22.1446
337 2 2.2208 13.5996 1.31788 25.1344
8790 2 2.2208 7.99766 -4.26115 25.0034
333 1 -1.1104 12.0907 8.43504 26.3883
279 1 -1.1104 9.405 8.34153 20.7695
263 1 -1.1104 9.65141 2.64866 20.6681
351 1 -1.1104 12.2385 2.78338 23.5621
242 1 -1.1104 9.5667 8.44137 23.5601
244 1 -1.1104 12.2581 5.43708 23.5239
349 2 2.2208 10.9069 1.34624 22.1967
8787 2 2.2208 10.9991 -4.21069 22.1371
359 1 -1.1104 9.44766 2.77626 23.5542
341 1 -1.1104 12.3564 8.32444 23.4923
360 2 2.2208 8.0642 1.30042 24.9279
363 2 2.2208 8.13174 -1.41389 22.1172
361 1 -1.1104 9.36256 -2.90153 26.4789
353 1 -1.1104 12.2447 2.74848 26.5476
345 1 -1.1104 9.31142 5.67775 26.3685
364 2 2.2208 8.0104 4.22279 22.2934
350 1 -1.1104 12.2627 -2.86114 23.5029
322 1 -1.1104 6.52032 8.34009 26.3441
356 2 2.2208 10.8057 4.22034 24.9123
251 1 -1.1104 12.2707 2.88749 20.8716
239 2 2.2208 8.13658 -1.41179 27.6906
176 2 2.2208 5.19373 -1.60701 13.8364
368 2 2.2208 5.34983 12.6291 5.26554
369 1 -1.1104 1.00671 11.2063 1.17936
373 2 2.2208 5.39416 9.77037 2.51791
374 1 -1.1104 1.01359 11.1459 3.90171
376 2 2.2208 2.45324 12.4938 2.6054
377 2 2.2208 2.39025 9.7817 5.17015
378 1 -1.1104 3.86613 11.0653 1.31916
380 1 -1.1104 3.95011 11.188 3.98683
381 2 2.2208 5.1667 18.1592 5.36187
382 1 -1.1104 1.15155 13.9837 1.15671
384 1 -1.1104 1.04234 19.5705 1.18696
388 1 -1.1104 1.01979 14.0021 3.94729
389 1 -1.1104 1.04276 19.529 3.97126
391 1 -1.1104 1.04911 16.8695 0.934798
394 2 2.2208 5.37929 15.4499 2.58277
395 2 2.2208 5.36494 20.8638 2.50697
396 1 -1.1104 0.900569 16.6675 4.03667
398 1 -1.1104 3.93182 13.8192 1.31066
400 1 -1.1104 3.69953 19.5367 1.10307
402 2 2.2208 2.43839 18.1444 2.53261
403 1 -1.1104 3.79074 14.0391 4.09228
404 1 -1.1104 3.90577 19.57 3.79214
405 2 2.2208 2.32502 15.3816 5.3907
406 2 2.2208 2.38486 20.9437 5.20478
407 1 -1.1104 3.84285 16.7262 1.17233
409 1 -1.1104 3.74314 16.8102 3.89827
390 1 -1.1104 6.69 13.9409 3.87788
504 2 2.2208 10.657 15.3893 8.05222
427 1 -1.1104 6.70251 16.8519 1.20882
375 1 -1.1104 6.59728 11.2088 3.94259
652 2 2.2208 5.23186 12.525 -0.25634
649 2 2.2208 5.36036 18.2486 -0.306969
371 1 -1.1104 6.72102 11.2309 1.11656
425 1 -1.1104 6.72196 19.6016 1.17231
653 2 2.2208 -0.272127 12.5615 -0.255615
501 1 -1.1104 11.9508 16.8494 9.50348
648 2 2.2208 2.30663 20.9413 -0.232084
511 1 -1.1104 12.2299 19.6659 12.2304
426 1 -1.1104 6.69428 19.5017 3.95622
397 1 -1.1104 6.69356 16.695 3.96049
385 1 -1.1104 6.7648 14.0756 1.16007
415 2 2.2208 11.0062 12.3263 5.18307
416 1 -1.1104 12.2348 11.0584 1.02074
418 2 2.2208 10.9047 9.68117 2.48095
419 1 -1.1104 12.2561 11.082 3.85277
420 2 2.2208 8.12475 12.5469 2.54167
421 2 2.2208 8.08118 9.80431 5.43913
422 1 -1.1104 9.52644 11.2813 1.1296
424 1 -1.1104 9.3917 11.148 3.81908
428 2 2.2208 10.8328 18.083 5.22699
429 1 -1.1104 12.3189 13.855 1.06752
431 1 -1.1104 12.2373 19.6956 1.20074
433 1 -1.1104 12.1759 13.986 3.82364
434 1 -1.1104 12.4717 19.6023 3.96159
435 1 -1.1104 12.3554 16.7331 1.09338
437 2 2.2208 10.8287 15.4164 2.47861
438 2 2.2208 10.8409 21.0919 2.52928
439 1 -1.1104 12.1733 16.6835 3.8547
440 1 -1.1104 9.43948 14.1043 1.1395
442 1 -1.1104 9.51033 19.6839 1.05979
444 2 2.2208 8.07699 18.2205 2.53987
445 1 -1.1104 9.44727 13.8012 3.9801
446 1 -1.1104 9.51825 19.5124 3.91027
447 2 2.2208 8.00031 15.2654 5.33657
448 2 2.2208 8.11356 20.9822 5.45416
449 1 -1.1104 9.54855 16.9116 1.12211
451 1 -1.1104 9.51278 16.6559 3.94065
494 2 2.2208 8.07564 20.9854 10.8458
687 2 2.2208 8.0296 21.0321 -0.245119
9262 2 2.2208 13.6686 21.1726 5.34237
441 1 -1.1104 9.40448 13.8756 6.81703
691 2 2.2208 8.0036 15.3679 -0.168345
9377 2 2.2208 -0.220881 12.47 10.8677
516 2 2.2208 13.6266 15.3339 5.33089
423 1 -1.1104 9.52629 11.1458 6.69412
510 2 2.2208 8.01102 12.5141 8.16753
436 1 -1.1104 12.2954 16.5738 6.71458
688 2 2.2208 10.9396 18.2562 -0.171975
519 2 2.2208 -0.296596 9.85671 8.14971
514 2 2.2208 10.8377 12.4727 11.0219
470 1 -1.1104 0.965617 19.4969 6.67785
408 1 -1.1104 3.82088 16.6873 6.7332
379 1 -1.1104 3.70145 10.9575 6.62953
370 1 -1.1104 0.894682 11.3357 6.66954
372 1 -1.1104 6.48269 11.0602 6.82697
383 1 -1.1104 1.0143 13.9743 6.714
401 1 -1.1104 3.78817 19.7394 6.72504
499 1 -1.1104 9.40592 19.5552 12.265
393 1 -1.1104 6.78758 16.7603 6.73915
497 1 -1.1104 9.49143 13.8177 9.56665
399 1 -1.1104 3.92291 13.7579 6.72785
392 1 -1.1104 1.01679 16.7238 6.85728
454 1 -1.1104 4.0223 19.5366 12.3283
455 1 -1.1104 3.7959 13.9904 12.574
459 1 -1.1104 1.00759 19.6197 9.59456
460 1 -1.1104 1.08111 16.7158 9.66675
461 2 2.2208 5.24527 21.0775 8.12034
462 1 -1.1104 1.35759 13.9888 9.5292
463 2 2.2208 5.21581 15.2835 8.06975
466 1 -1.1104 1.0169 19.4107 12.2805
467 1 -1.1104 1.06789 13.9017 12.3309
468 2 2.2208 5.32076 18.1671 10.8807
469 1 -1.1104 3.79343 19.5959 9.50941
471 2 2.2208 2.38801 18.1088 8.1031
472 1 -1.1104 3.88412 16.7198 9.49178
473 1 -1.1104 3.95463 13.8688 9.5673
475 1 -1.1104 1.21997 16.7268 12.6311
476 1 -1.1104 4.10193 16.7193 12.2406
477 2 2.2208 2.45518 20.9059 10.9399
478 2 2.2208 5.27923 12.5598 10.8915
479 1 -1.1104 1.13753 10.951 12.3789
481 2 2.2208 2.56716 15.3741 11.01
482 2 2.2208 5.10796 9.82369 8.09806
483 1 -1.1104 1.08914 11.0483 9.51233
485 2 2.2208 2.48514 12.4867 8.11166
486 2 2.2208 2.50531 9.75224 10.9277
487 1 -1.1104 4.03523 11.2898 12.3385
488 1 -1.1104 3.87426 11.1323 9.54001
458 1 -1.1104 6.74275 13.8718 9.62752
484 1 -1.1104 6.73043 11.1318 9.59406
480 1 -1.1104 6.7843 11.1064 12.2007
464 1 -1.1104 6.68671 19.6169 12.2413
387 1 -1.1104 6.57487 19.5024 6.78534
474 1 -1.1104 7.00746 16.8407 12.2824
386 1 -1.1104 6.64836 13.9273 6.73524
495 2 2.2208 8.1193 15.3374 10.93
517 2 2.2208 13.5151 12.4457 8.08273
443 1 -1.1104 9.44033 19.6333 6.70664
432 1 -1.1104 12.1631 19.5727 6.5935
508 1 -1.1104 12.1013 14.0059 9.59761
465 1 -1.1104 6.63409 13.9796 12.3562
489 1 -1.1104 12.1596 11.1475 9.64011
457 1 -1.1104 6.64583 16.7592 9.4469
414 2 2.2208 13.6685 18.3028 8.04245
417 1 -1.1104 12.1618 10.9908 6.75691
502 2 2.2208 10.845 20.9866 8.03152
507 1 -1.1104 12.3815 19.6023 9.5428
505 1 -1.1104 12.4804 16.8524 12.2744
491 1 -1.1104 12.2606 11.1153 12.2895
496 1 -1.1104 9.52432 19.6246 9.52049
503 1 -1.1104 9.41381 10.9714 9.60087
500 1 -1.1104 9.5042 14.042 12.3536
498 2 2.2208 8.03862 18.2548 7.97476
492 1 -1.1104 9.27323 16.8193 9.51486
456 1 -1.1104 6.65864 19.6514 9.55744
413 2 2.2208 13.6276 15.3663 10.8399
512 1 -1.1104 12.3925 13.9415 12.4082
450 1 -1.1104 9.52871 16.7831 6.60901
430 1 -1.1104 12.282 13.8076 6.67459
493 1 -1.1104 9.81756 16.8815 12.3707
513 2 2.2208 10.8616 18.184 10.8583
490 2 2.2208 10.8234 9.67638 8.26258
509 2 2.2208 8.12562 9.71372 10.9963
506 1 -1.1104 9.43813 11.0471 12.4452
453 2 2.2208 13.5616 12.6201 2.47888
410 2 2.2208 -0.27802 15.5573 2.49145
9404 2 2.2208 -0.262556 20.9882 2.56434
612 2 2.2208 10.9175 21.0898 13.6451
651 2 2.2208 2.44178 9.71637 -0.219783
650 2 2.2208 2.52999 15.396 -0.130888
526 2 2.2208 5.22642 12.5182 16.5558
527 1 -1.1104 1.01647 11.2321 18.1479
529 2 2.2208 5.20869 9.81604 19.4863
530 1 -1.1104 0.916413 11.0538 15.1461
533 2 2.2208 2.57003 12.6438 19.2896
534 2 2.2208 2.36892 9.7632 16.6015
535 1 -1.1104 3.82313 11.0779 17.8382
536 1 -1.1104 3.83487 10.9933 15.1569
538 2 2.2208 5.39634 18.1344 16.6131
539 1 -1.1104 1.24911 14.0041 17.9594
540 1 -1.1104 1.16714 19.5379 18.1031
543 1 -1.1104 1.17188 13.7922 15.2326
545 1 -1.1104 1.10858 19.4357 15.1183
551 1 -1.1104 1.12334 16.6666 18.0521
553 2 2.2208 5.43277 15.3174 19.5561
554 2 2.2208 5.44449 20.9576 19.2731
555 1 -1.1104 1.19561 16.6722 15.3702
559 1 -1.1104 4.06189 14.0109 18.1384
560 1 -1.1104 4.04838 19.5754 17.8789
561 2 2.2208 2.67553 18.076 19.2499
562 1 -1.1104 3.84892 13.7946 15.1888
564 1 -1.1104 3.90611 19.5067 15.1394
566 2 2.2208 2.5887 15.2759 16.613
567 2 2.2208 2.61682 20.8582 16.5031
568 1 -1.1104 4.01844 16.6937 17.9451
569 1 -1.1104 3.98303 16.705 15.1818
549 1 -1.1104 6.60711 19.5019 15.1144
531 1 -1.1104 6.55403 11.0618 15.1189
9519 2 2.2208 -0.193863 20.916 19.2827
9520 2 2.2208 -0.290556 15.2427 19.4462
572 2 2.2208 5.35635 20.9616 13.7867
524 2 2.2208 5.35165 15.3835 13.7595
523 2 2.2208 2.38638 12.4299 13.8278
528 1 -1.1104 6.52253 11.2221 18.0311
9416 2 2.2208 -0.278343 15.3368 13.7958
9522 2 2.2208 -0.181809 17.9832 16.5945
626 1 -1.1104 6.70293 13.8872 23.752
9417 2 2.2208 -0.34987 20.904 13.7767
520 2 2.2208 2.64316 18.1344 13.8053
521 2 2.2208 5.22742 9.60065 13.7555
557 1 -1.1104 6.64898 16.8429 15.1411
542 1 -1.1104 6.76047 19.501 17.9497
571 2 2.2208 13.659 9.64198 22.2054
541 1 -1.1104 6.77518 13.9215 18.1158
552 1 -1.1104 6.79602 16.6513 18.0604
547 1 -1.1104 6.62177 13.9639 15.1645
577 2 2.2208 10.7926 12.4799 16.5717
578 1 -1.1104 12.3417 11.0324 17.9812
579 2 2.2208 10.781 9.67016 19.3525
580 1 -1.1104 12.1673 11.111 15.1324
582 2 2.2208 8.0749 12.5382 19.4075
583 2 2.2208 8.03264 9.72452 16.6248
584 1 -1.1104 9.58418 11.1254 17.9105
585 1 -1.1104 9.32042 11.1716 15.1174
587 2 2.2208 10.8791 18.138 16.4561
588 1 -1.1104 12.2114 13.8315 18.0544
589 1 -1.1104 12.301 19.7049 17.8764
590 1 -1.1104 12.1271 13.9401 15.2239
592 1 -1.1104 12.2361 19.6514 15.1675
594 1 -1.1104 12.3535 16.7348 17.9136
595 2 2.2208 10.921 15.2853 19.3131
596 2 2.2208 10.8367 20.891 19.3961
597 1 -1.1104 12.4002 16.7699 15.1661
599 1 -1.1104 9.52038 13.8419 17.9309
600 1 -1.1104 9.45611 19.3935 17.9451
601 2 2.2208 8.20696 18.141 19.4282
602 1 -1.1104 9.29383 14.0144 15.1069
604 1 -1.1104 9.37502 19.5639 15.1479
606 2 2.2208 8.08965 15.331 16.6406
607 2 2.2208 8.02548 20.8906 16.5163
608 1 -1.1104 9.62036 16.5469 17.9769
609 1 -1.1104 9.3683 16.6817 15.1436
611 2 2.2208 10.8547 9.61366 13.7723
613 2 2.2208 10.8888 15.3555 13.7495
550 1 -1.1104 6.72711 19.5083 20.9263
683 2 2.2208 10.9115 12.5448 22.1199
665 1 -1.1104 9.39842 13.9731 26.4413
697 2 2.2208 13.5914 12.5041 13.7313
614 2 2.2208 8.19365 18.2061 13.6791
576 2 2.2208 7.97599 12.5595 13.757
537 1 -1.1104 3.73077 11.3708 20.7171
563 1 -1.1104 3.91422 14.0571 20.8492
565 1 -1.1104 3.86909 19.473 20.7069
570 1 -1.1104 3.9026 16.684 20.8207
548 1 -1.1104 6.69078 13.9692 20.9473
654 2 2.2208 -0.294355 15.4764 24.9789
544 1 -1.1104 0.988074 13.6996 20.7926
532 1 -1.1104 6.71272 11.1523 20.9197
556 1 -1.1104 1.16421 16.524 20.7979
546 1 -1.1104 1.21117 19.251 20.7996
616 1 -1.1104 3.83462 19.6459 23.6153
618 1 -1.1104 3.73071 14.115 23.5756
620 1 -1.1104 0.796712 19.6966 26.3545
621 1 -1.1104 0.865601 16.8939 26.3214
622 1 -1.1104 1.10942 13.9289 26.3881
624 2 2.2208 5.13808 21.0556 25.0422
625 2 2.2208 5.24648 15.3617 25.0627
627 1 -1.1104 1.10083 19.6682 23.6439
628 1 -1.1104 0.895786 14.1448 23.5821
629 2 2.2208 5.21005 18.1792 22.1962
630 1 -1.1104 3.76782 19.6879 26.368
631 2 2.2208 2.43009 18.2315 25.0488
632 1 -1.1104 3.74851 16.8743 26.4554
633 1 -1.1104 3.87623 14.0778 26.5304
635 1 -1.1104 1.03898 16.8358 23.6546
636 1 -1.1104 3.93735 16.8565 23.8129
637 2 2.2208 2.55158 20.9045 22.1305
638 2 2.2208 5.13476 12.556 22.3049
639 1 -1.1104 0.935984 11.3497 23.5099
641 2 2.2208 2.49758 15.5318 22.1741
642 2 2.2208 5.17257 9.77364 25.081
643 1 -1.1104 1.07622 11.0468 26.2851
645 2 2.2208 2.37699 12.6313 24.8641
646 1 -1.1104 4.04827 11.4055 23.9899
647 1 -1.1104 3.91744 11.1579 26.6932
623 1 -1.1104 6.64428 19.5338 23.5532
657 2 2.2208 -0.315746 18.093 22.1385
644 1 -1.1104 6.74214 11.071 26.3721
617 1 -1.1104 6.62127 13.795 26.3553
619 1 -1.1104 6.53637 16.8556 26.3777
9469 2 2.2208 -0.29523 12.588 16.654
574 2 2.2208 13.6397 18.1062 19.2549
678 2 2.2208 8.0228 9.84008 22.2251
660 1 -1.1104 9.38779 16.7975 26.4611
605 1 -1.1104 9.44262 19.5986 20.7617
593 1 -1.1104 12.1772 19.6185 20.7612
672 2 2.2208 10.7834 20.8722 24.9585
684 1 -1.1104 12.3774 11.0633 23.397
558 1 -1.1104 6.81542 16.7915 20.8173
679 2 2.2208 8.0319 12.4999 25.0058
634 1 -1.1104 6.60862 16.858 23.5601
666 1 -1.1104 6.63591 19.6312 26.3523
676 1 -1.1104 12.1502 13.9093 26.2354
696 2 2.2208 13.6744 18.1799 24.9382
662 2 2.2208 8.05846 21.0661 22.1954
673 2 2.2208 10.8535 15.4482 25.0007
661 1 -1.1104 9.60566 16.8395 23.664
686 1 -1.1104 12.3541 11.2053 26.323
598 1 -1.1104 12.3517 16.7804 20.7298
586 1 -1.1104 9.44702 11.2112 20.6063
610 1 -1.1104 9.6391 16.7678 20.8287
603 1 -1.1104 9.43804 14.0488 20.7864
591 1 -1.1104 12.2829 13.8735 20.849
581 1 -1.1104 12.2621 10.9579 20.7096
681 1 -1.1104 12.4031 13.9362 23.4868
675 1 -1.1104 12.2563 19.6486 26.4734
685 2 2.2208 10.8414 9.7202 24.83
667 2 2.2208 7.96529 18.28 24.9111
640 1 -1.1104 6.58057 11.0264 23.6028
671 1 -1.1104 9.45457 11.2661 26.3272
680 1 -1.1104 12.299 19.7057 23.4937
670 1 -1.1104 12.1886 16.7229 26.4454
664 1 -1.1104 9.47354 19.6211 26.2974
9460 2 2.2208 13.5884 21.0123 22.1532
677 1 -1.1104 9.49551 11.1359 23.6185
669 1 -1.1104 9.54159 13.9857 23.5495
674 1 -1.1104 12.352 16.9211 23.6943
663 2 2.2208 8.11888 15.4231 22.3003
682 2 2.2208 10.9448 18.1354 22.2038
668 1 -1.1104 9.37097 19.6346 23.6193
575 2 2.2208 13.5806 9.61332 16.5093
655 2 2.2208 13.6307 15.3279 16.4773
690 2 2.2208 10.8767 12.5436 27.6944
689 2 2.2208 8.09441 9.81868 27.6866
692 2 2.2208 13.5527 9.72506 27.6334
698 2 2.2208 5.26079 23.8082 5.3678
699 2 2.2208 5.33593 29.4991 5.15883
700 1 -1.1104 1.11951 25.0981 1.02074
701 1 -1.1104 0.927222 25.2764 3.95313
702 1 -1.1104 1.13322 22.3373 1.12115
703 1 -1.1104 1.15137 27.9799 1.2443
704 2 2.2208 5.30564 26.5607 2.50167
705 1 -1.1104 1.0618 22.4333 3.91619
706 1 -1.1104 1.08307 28.0472 3.98451
707 1 -1.1104 3.85064 25.1978 1.26339
708 2 2.2208 2.48534 23.8305 2.48276
709 2 2.2208 2.58273 29.5189 2.42449
710 1 -1.1104 3.89485 25.3432 4.08773
711 2 2.2208 2.5025 26.6715 5.26366
712 1 -1.1104 4.02947 22.3492 1.13637
713 1 -1.1104 3.97326 28.0781 1.01871
714 1 -1.1104 3.89796 22.2405 4.02607
715 1 -1.1104 3.96926 28.0988 3.86003
716 1 -1.1104 0.976464 30.7129 1.14091
717 1 -1.1104 1.09179 30.7714 3.78469
718 1 -1.1104 1.2158 33.6134 1.12121
719 2 2.2208 5.33439 32.2703 2.45886
720 1 -1.1104 1.10952 33.5294 3.8299
722 1 -1.1104 3.82826 30.9108 0.887661
723 1 -1.1104 3.89006 30.8903 3.78366
724 2 2.2208 2.46821 32.136 5.16516
725 1 -1.1104 3.88802 33.6526 0.928592
726 1 -1.1104 3.86852 33.6243 3.79091
785 1 -1.1104 3.90726 33.4275 6.51617
784 1 -1.1104 3.81577 30.7027 6.49447
735 1 -1.1104 6.71959 22.2609 3.87563
734 1 -1.1104 6.70163 28.0365 1.03332
9742 2 2.2208 -0.252302 23.7404 10.9513
781 1 -1.1104 6.76443 30.6397 6.5566
9682 2 2.2208 13.6481 32.1686 10.8098
769 1 -1.1104 12.0758 33.6904 9.55365
9746 2 2.2208 -0.264849 23.7476 5.27892
9745 2 2.2208 -0.313071 29.3933 5.26372
9743 2 2.2208 -0.311339 32.1817 2.41101
773 1 -1.1104 1.08867 22.3939 6.55268
9935 2 2.2208 -0.272708 29.2994 -0.351257
755 1 -1.1104 6.8694 30.8512 1.00887
721 1 -1.1104 6.73625 33.5474 3.95785
731 1 -1.1104 6.68515 25.0861 1.10779
732 1 -1.1104 6.70586 25.1911 3.89587
733 1 -1.1104 6.54663 22.2425 1.07633
756 1 -1.1104 6.77011 30.9261 3.73253
757 1 -1.1104 6.71876 33.6043 1.04796
736 1 -1.1104 6.79719 28.1407 3.7816
737 2 2.2208 10.9615 23.8848 5.22441
738 2 2.2208 10.8525 29.6089 5.2755
739 1 -1.1104 12.2504 25.2213 1.24719
740 1 -1.1104 12.3629 25.3342 4.0528
741 1 -1.1104 12.2473 22.5202 1.09064
742 1 -1.1104 12.2194 28.1268 1.31421
743 2 2.2208 10.9619 26.7045 2.64863
744 1 -1.1104 12.2866 22.498 4.01912
745 1 -1.1104 12.285 28.1163 3.96564
746 1 -1.1104 9.43194 25.2507 1.10746
747 2 2.2208 8.1743 23.8118 2.59689
748 2 2.2208 8.2633 29.4381 2.58224
749 1 -1.1104 9.58578 25.2441 3.99588
750 2 2.2208 8.06296 26.6705 5.28666
751 1 -1.1104 9.41569 22.4392 1.25338
752 1 -1.1104 9.52104 28.0092 1.27172
753 1 -1.1104 9.47001 22.5254 3.99141
754 1 -1.1104 9.59716 28.0064 4.00079
758 1 -1.1104 12.3615 30.737 1.04482
759 1 -1.1104 12.2713 30.7921 3.85494
760 1 -1.1104 12.4657 33.6156 1.14831
761 2 2.2208 10.9509 32.2691 2.47118
762 1 -1.1104 12.3231 33.6787 3.99045
763 1 -1.1104 9.60742 30.9156 1.12439
764 1 -1.1104 9.39899 30.8921 3.98045
765 2 2.2208 8.08653 32.261 5.25009
766 1 -1.1104 9.6919 33.6744 1.00247
767 1 -1.1104 9.4923 33.6521 3.86189
991 2 2.2208 10.8564 23.8463 -0.237379
990 2 2.2208 8.09192 26.6665 -0.275548
831 1 -1.1104 9.45394 33.7408 6.63856
829 1 -1.1104 12.4076 33.5378 6.65038
782 1 -1.1104 1.08866 33.5456 6.41538
777 1 -1.1104 3.87585 25.3099 6.76833
779 1 -1.1104 3.88833 28.0706 6.62345
774 1 -1.1104 0.945003 27.9532 6.70323
775 1 -1.1104 6.74257 22.4136 6.70969
771 1 -1.1104 1.0627 25.2012 6.63955
9741 2 2.2208 -0.290686 26.5924 8.15899
9740 2 2.2208 -0.252776 29.3456 10.9742
780 1 -1.1104 1.01446 30.6972 6.70226
778 1 -1.1104 3.90364 22.5647 6.88732
9739 2 2.2208 -0.212839 32.1861 7.96467
1130 1 -1.1104 1.20988 33.6195 9.22336
786 2 2.2208 5.41507 23.7879 11.0063
787 2 2.2208 5.3777 29.2641 10.9282
788 1 -1.1104 1.01361 24.9798 12.313
790 1 -1.1104 1.0981 25.1437 9.48852
792 1 -1.1104 1.08667 22.1705 12.3284
793 1 -1.1104 1.07202 27.6892 12.2575
796 2 2.2208 5.37669 26.6217 8.08909
797 1 -1.1104 1.13222 22.3539 9.3599
798 1 -1.1104 1.06967 27.9069 9.5508
801 1 -1.1104 4.04557 25.0943 12.2817
802 2 2.2208 2.49704 23.7707 8.22491
803 2 2.2208 2.48087 29.3872 8.15648