LAMMPS (29 Oct 2020)
OMP_NUM_THREADS environment is not set. Defaulting to 1 thread. (../comm.cpp:94)
  using 1 OpenMP thread(s) per MPI task
OMP_NUM_THREADS environment is not set. Defaulting to 1 thread. (../comm.cpp:94)
  using 1 OpenMP thread(s) per MPI task
Reading data file ...
  orthogonal box = (-0.35516565 -4.2468482 -0.35447675) to (27.695166 332.32685 27.694477)
  2 by 13 by 2 MPI processor grid
  reading atoms ...
  17640 atoms
  reading velocities ...
  17640 velocities
Finding 1-2 1-3 1-4 neighbors ...
  special bond factors lj:    0.0      0.0      0.0     
  special bond factors coul:  0.0      0.0      0.0     
     0 = max # of 1-2 neighbors
     0 = max # of 1-3 neighbors
     0 = max # of 1-4 neighbors
     1 = max # of special neighbors
  special bonds CPU = 0.004 seconds
  read_data CPU = 0.060 seconds
Setting atom values ...
  11760 settings made for charge
Setting atom values ...
  5880 settings made for charge
PPPM initialization ...
  using 12-bit tables for long-range coulomb (../kspace.cpp:328)
  G vector (1/distance) = 0.29883693
  grid = 40 240 40
  stencil order = 5
  estimated absolute RMS force accuracy = 0.00015601772
  estimated relative force accuracy = 1.0834831e-05
  using single precision MKL FFT
  3d grid and FFT values/proc = 15000 7600
Neighbor list info ...
  update every 1 steps, delay 0 steps, check yes
  max neighbors/atom: 2000, page size: 100000
  master list distance cutoff = 11.3
  ghost atom cutoff = 11.3
  binsize = 5.65, bins = 5 60 5
  2 neighbor lists, perpetual/occasional/extra = 2 0 0
  (1) pair coul/long, perpetual
      attributes: half, newton on
      pair build: half/bin/newton
      stencil: half/bin/3d/newton
      bin: standard
  (2) pair eam/alloy, perpetual, copy from (1)
      attributes: half, newton on
      pair build: copy
      stencil: none
      bin: none
Setting up Verlet run ...
  Unit style    : metal
  Current step  : 0
  Time step     : 0.001
Per MPI rank memory allocation (min/avg/max) = 8.142 | 8.178 | 8.198 Mbytes
Step Temp E_pair E_mol TotEng Press 
       0          600   -230565.12            0   -229197.11    96.489836 
  100000    601.66876   -230566.26            0   -229194.44    76.624578 
Loop time of 644.692 on 52 procs for 100000 steps with 17640 atoms

Performance: 13.402 ns/day, 1.791 hours/ns, 155.113 timesteps/s
99.8% CPU use with 52 MPI tasks x 1 OpenMP threads

MPI task timing breakdown:
Section |  min time  |  avg time  |  max time  |%varavg| %total
---------------------------------------------------------------
Pair    | 421.03     | 447.31     | 461.64     |  43.0 | 69.38
Bond    | 0.0059678  | 0.010098   | 0.015308   |   2.0 |  0.00
Kspace  | 127.71     | 144.16     | 176.01     |  91.4 | 22.36
Neigh   | 26.134     | 33.985     | 37.363     |  47.9 |  5.27
Comm    | 13.712     | 14.76      | 16.893     |  26.8 |  2.29
Output  | 5.24e-05   | 5.77e-05   | 0.00025178 |   0.0 |  0.00
Modify  | 1.7245     | 3.2365     | 5.2838     |  65.8 |  0.50
Other   |            | 1.229      |            |       |  0.19

Nlocal:        339.231 ave         369 max         300 min
Histogram: 5 1 2 0 6 17 7 3 4 7
Nghost:        4082.71 ave        4285 max        3844 min
Histogram: 5 6 2 4 3 8 4 8 6 6
Neighs:        67633.6 ave       74641 max       51541 min
Histogram: 3 0 2 1 2 1 8 21 3 11

Total # of neighbors = 3516949
Ave neighs/atom = 199.37353
Ave special neighs/atom = 0.0000000
Neighbor list builds = 16206
Dangerous builds = 0
11760 atoms in group oxygen
PPPM initialization ...
  using 12-bit tables for long-range coulomb (../kspace.cpp:328)
  G vector (1/distance) = 0.29883693
  grid = 40 240 40
  stencil order = 5
  estimated absolute RMS force accuracy = 0.00015601772
  estimated relative force accuracy = 1.0834831e-05
  using single precision MKL FFT
  3d grid and FFT values/proc = 15000 7600
Setting up Verlet run ...
  Unit style    : metal
  Current step  : 0
  Time step     : 0.001
Per MPI rank memory allocation (min/avg/max) = 8.393 | 8.429 | 8.449 Mbytes
Step f_2 Temp v_Tdiff v_deltaT 
       0            0    601.66876            0            0 
  100000    4231.4663    600.25764   0.10537508    1223.3949 
  200000    8152.2635    601.26049   0.10979249    1274.6807 
  300000    12103.814    604.47049   0.11006793    1277.8785 
  400000    16069.187    602.87151   0.10990822    1276.0243 
  500000    20050.528    605.08367   0.11031673     1280.767 
  600000    24048.551    606.75456   0.11078662    1286.2224 
  700000    28097.418    609.83336   0.10961589    1272.6303 
  800000    32142.628    608.10659   0.11051863     1283.111 
  900000    36174.649    611.55715   0.10978845    1274.6337 
 1000000    40213.518    609.69306   0.11134399    1292.6934 
Loop time of 6508.16 on 52 procs for 1000000 steps with 17640 atoms

Performance: 13.276 ns/day, 1.808 hours/ns, 153.653 timesteps/s
99.9% CPU use with 52 MPI tasks x 1 OpenMP threads

MPI task timing breakdown:
Section |  min time  |  avg time  |  max time  |%varavg| %total
---------------------------------------------------------------
Pair    | 4122.5     | 4407.1     | 4520       | 138.1 | 67.72
Bond    | 0.067989   | 0.096895   | 0.15454    |   5.7 |  0.00
Kspace  | 1306.5     | 1443.3     | 1813.6     | 310.9 | 22.18
Neigh   | 326.28     | 440        | 476.26     | 190.1 |  6.76
Comm    | 145.07     | 159.21     | 193.6      | 113.8 |  2.45
Output  | 0.0010622  | 0.0011186  | 0.0022531  |   0.5 |  0.00
Modify  | 27.645     | 46.366     | 67.432     | 190.3 |  0.71
Other   |            | 12.17      |            |       |  0.19

Nlocal:        339.231 ave         367 max         281 min
Histogram: 3 1 4 0 0 2 15 9 8 10
Nghost:        4048.23 ave        4255 max        3753 min
Histogram: 8 4 0 4 0 4 3 18 3 8
Neighs:        67687.5 ave       74870 max       47386 min
Histogram: 3 1 0 0 4 0 2 17 17 8

Total # of neighbors = 3519750
Ave neighs/atom = 199.53231
Ave special neighs/atom = 0.0000000
Neighbor list builds = 210835
Dangerous builds = 0
Total wall time: 1:59:13
