LAMMPS (29 Oct 2020)
OMP_NUM_THREADS environment is not set. Defaulting to 1 thread. (../comm.cpp:94)
  using 1 OpenMP thread(s) per MPI task
#---------------------------------------
#
# This script is used to calculate the thermal conuctivity of UO2 using Muller-Plathe method
# By Ziqiang Wang on 03/18/2022 on Jilin university
#
#---------------------------------------

variable     Nevery    equal   20
variable     T         equal   600

clear
OMP_NUM_THREADS environment is not set. Defaulting to 1 thread. (../comm.cpp:94)
  using 1 OpenMP thread(s) per MPI task
units          metal
boundary       p p p
atom_style     full

read_data vac_0.02_relaxed.dat
Reading data file ...
  orthogonal box = (-0.35516565 -4.2468482 -0.35447675) to (27.695166 332.32685 27.694477)
  2 by 13 by 2 MPI processor grid
  reading atoms ...
  17640 atoms
  reading velocities ...
  17640 velocities
Finding 1-2 1-3 1-4 neighbors ...
  special bond factors lj:    0.0      0.0      0.0     
  special bond factors coul:  0.0      0.0      0.0     
     0 = max # of 1-2 neighbors
     0 = max # of 1-3 neighbors
     0 = max # of 1-4 neighbors
     1 = max # of special neighbors
  special bonds CPU = 0.004 seconds
  read_data CPU = 0.062 seconds

set           type     1    charge     -1.1104
Setting atom values ...
  11760 settings made for charge
set           type     2    charge      2.2208
Setting atom values ...
  5880 settings made for charge

kspace_style    pppm   1.0e-05
pair_style      hybrid/overlay  coul/long  11.0  eam/alloy
pair_coeff      * * coul/long
pair_coeff      * * eam/alloy CeThUNpPuAmCmO.eam.alloy O Th
newton          on
neighbor        0.3 bin
neigh_modify    delay 0 check yes every 1

#The first equilation
velocity        all create $T 10004 mom yes rot yes dist gaussian
velocity        all create 600 10004 mom yes rot yes dist gaussian
fix             nvt  all  nvt  temp  $T $T  0.1
fix             nvt  all  nvt  temp  600 $T  0.1
fix             nvt  all  nvt  temp  600 600  0.1

run             100000
PPPM initialization ...
  using 12-bit tables for long-range coulomb (../kspace.cpp:328)
  G vector (1/distance) = 0.29883693
  grid = 40 240 40
  stencil order = 5
  estimated absolute RMS force accuracy = 0.00015601772
  estimated relative force accuracy = 1.0834831e-05
  using single precision MKL FFT
  3d grid and FFT values/proc = 15000 7600
Neighbor list info ...
  update every 1 steps, delay 0 steps, check yes
  max neighbors/atom: 2000, page size: 100000
  master list distance cutoff = 11.3
  ghost atom cutoff = 11.3
  binsize = 5.65, bins = 5 60 5
  2 neighbor lists, perpetual/occasional/extra = 2 0 0
  (1) pair coul/long, perpetual
      attributes: half, newton on
      pair build: half/bin/newton
      stencil: half/bin/3d/newton
      bin: standard
  (2) pair eam/alloy, perpetual, copy from (1)
      attributes: half, newton on
      pair build: copy
      stencil: none
      bin: none
Per MPI rank memory allocation (min/avg/max) = 8.142 | 8.178 | 8.198 Mbytes
Step Temp E_pair E_mol TotEng Press 
       0          600   -230565.12            0   -229197.11    96.489836 
  100000    599.28856   -230569.38            0   -229202.99   -212.22574 
Loop time of 656.878 on 52 procs for 100000 steps with 17640 atoms

Performance: 13.153 ns/day, 1.825 hours/ns, 152.235 timesteps/s
99.8% CPU use with 52 MPI tasks x 1 OpenMP threads

MPI task timing breakdown:
Section |  min time  |  avg time  |  max time  |%varavg| %total
---------------------------------------------------------------
Pair    | 421.27     | 447.68     | 459.74     |  42.4 | 68.15
Bond    | 0.0068856  | 0.010188   | 0.015278   |   2.1 |  0.00
Kspace  | 138.25     | 152.8      | 185.59     |  90.7 | 23.26
Neigh   | 25.67      | 33.675     | 36.999     |  48.4 |  5.13
Comm    | 16.665     | 18.272     | 19.647     |  17.2 |  2.78
Output  | 5.2924e-05 | 5.8568e-05 | 0.00026429 |   0.0 |  0.00
Modify  | 2.0076     | 3.0767     | 5.0608     |  53.4 |  0.47
Other   |            | 1.36       |            |       |  0.21

Nlocal:        339.231 ave         366 max         298 min
Histogram: 2 5 1 0 5 9 15 3 1 11
Nghost:        4101.25 ave        4282 max        3826 min
Histogram: 4 0 7 2 4 3 12 5 3 12
Neighs:        67628.4 ave       74529 max       51363 min
Histogram: 2 2 0 2 2 1 9 19 5 10

Total # of neighbors = 3516676
Ave neighs/atom = 199.35805
Ave special neighs/atom = 0.0000000
Neighbor list builds = 16217
Dangerous builds = 0
unfix           nvt
reset_timestep  0

# the second run
fix             1 all nve

group           oxygen type 1
11760 atoms in group oxygen
fix             2 oxygen thermal/conductivity ${Nevery} y 20
fix             2 oxygen thermal/conductivity 20 y 20

compute         ke all ke/atom
variable        temp atom c_ke/1.5
compute         layers all chunk/atom bin/1d y lower 0.05 units reduced
fix             3      all ave/chunk  2000 50 100000 layers v_temp file profile_${T}K.mp
fix             3      all ave/chunk  2000 50 100000 layers v_temp file profile_600K.mp

variable        Tdiff    equal     f_3[11][3]-f_3[1][3]
variable        deltaT   equal     v_Tdiff*1.5/0.0001292

timestep        0.001
thermo_style    custom step f_2 temp v_Tdiff v_deltaT
thermo          100000

run             1000000
PPPM initialization ...
  using 12-bit tables for long-range coulomb (../kspace.cpp:328)
  G vector (1/distance) = 0.29883693
  grid = 40 240 40
  stencil order = 5
  estimated absolute RMS force accuracy = 0.00015601772
  estimated relative force accuracy = 1.0834831e-05
  using single precision MKL FFT
  3d grid and FFT values/proc = 15000 7600
Per MPI rank memory allocation (min/avg/max) = 8.393 | 8.429 | 8.449 Mbytes
Step f_2 Temp v_Tdiff v_deltaT 
       0            0    599.28856            0            0 
  100000    1401.3295    596.40296  0.036634211    425.31978 
  200000    2762.5395    598.29962   0.04029323    467.80065 
  300000    4121.1757    601.80606  0.039086871    453.79495 
  400000    5484.4277    597.85095  0.039173631    454.80222 
  500000    6841.1232    604.11593  0.039125839    454.24735 
  600000    8197.4604    598.08738  0.039660129    460.45042 
  700000    9554.5297    601.13809  0.039953666    463.85836 
  800000    10916.316    601.94945  0.038854368     451.0956 
  900000    12273.975    599.84743  0.039527006    458.90487 
 1000000    13643.106    599.42886   0.03978175    461.86243 
Loop time of 6578.99 on 52 procs for 1000000 steps with 17640 atoms

Performance: 13.133 ns/day, 1.827 hours/ns, 151.999 timesteps/s
99.8% CPU use with 52 MPI tasks x 1 OpenMP threads

MPI task timing breakdown:
Section |  min time  |  avg time  |  max time  |%varavg| %total
---------------------------------------------------------------
Pair    | 4182.6     | 4460.9     | 4603.8     | 128.6 | 67.81
Bond    | 0.066179   | 0.10135    | 0.16603    |   6.8 |  0.00
Kspace  | 1367       | 1534.4     | 1883.7     | 275.3 | 23.32
Neigh   | 275.77     | 361.67     | 398.13     | 158.8 |  5.50
Comm    | 169.37     | 187.14     | 201.29     |  59.9 |  2.84
Output  | 0.0011017  | 0.0011627  | 0.0023692  |   0.5 |  0.00
Modify  | 6.5671     | 7.1327     | 8.0788     |  12.9 |  0.11
Other   |            | 27.57      |            |       |  0.42

Nlocal:        339.231 ave         369 max         297 min
Histogram: 4 3 1 0 1 17 8 9 6 3
Nghost:        4103.17 ave        4282 max        3819 min
Histogram: 4 2 10 0 0 4 3 7 16 6
Neighs:        67633.7 ave       74871 max       50546 min
Histogram: 2 2 0 1 3 0 8 19 10 7

Total # of neighbors = 3516953
Ave neighs/atom = 199.37375
Ave special neighs/atom = 0.0000000
Neighbor list builds = 173756
Dangerous builds = 0

Total wall time: 2:00:36
