LAMMPS (29 Oct 2020)
OMP_NUM_THREADS environment is not set. Defaulting to 1 thread. (../comm.cpp:94)
  using 1 OpenMP thread(s) per MPI task
OMP_NUM_THREADS environment is not set. Defaulting to 1 thread. (../comm.cpp:94)
  using 1 OpenMP thread(s) per MPI task
Reading data file ...
  orthogonal box = (-0.40387614 -4.7305232 -0.40003152) to (27.743876 332.81052 27.740032)
  2 by 13 by 2 MPI processor grid
  reading atoms ...
  17910 atoms
  reading velocities ...
  17910 velocities
Finding 1-2 1-3 1-4 neighbors ...
  special bond factors lj:    0.0      0.0      0.0     
  special bond factors coul:  0.0      0.0      0.0     
     0 = max # of 1-2 neighbors
     0 = max # of 1-3 neighbors
     0 = max # of 1-4 neighbors
     1 = max # of special neighbors
  special bonds CPU = 0.009 seconds
  read_data CPU = 0.075 seconds
Setting atom values ...
  11940 settings made for charge
Setting atom values ...
  5970 settings made for charge
PPPM initialization ...
  using 12-bit tables for long-range coulomb (../kspace.cpp:328)
  G vector (1/distance) = 0.29868242
  grid = 40 240 40
  stencil order = 5
  estimated absolute RMS force accuracy = 0.00015851856
  estimated relative force accuracy = 1.1008505e-05
  using single precision MKL FFT
  3d grid and FFT values/proc = 15000 7600
Neighbor list info ...
  update every 1 steps, delay 0 steps, check yes
  max neighbors/atom: 2000, page size: 100000
  master list distance cutoff = 11.3
  ghost atom cutoff = 11.3
  binsize = 5.65, bins = 5 60 5
  2 neighbor lists, perpetual/occasional/extra = 2 0 0
  (1) pair coul/long, perpetual
      attributes: half, newton on
      pair build: half/bin/newton
      stencil: half/bin/3d/newton
      bin: standard
  (2) pair eam/alloy, perpetual, copy from (1)
      attributes: half, newton on
      pair build: copy
      stencil: none
      bin: none
Setting up Verlet run ...
  Unit style    : metal
  Current step  : 0
  Time step     : 0.001
Per MPI rank memory allocation (min/avg/max) = 8.149 | 8.177 | 8.193 Mbytes
Step Temp E_pair E_mol TotEng Press 
       0          900   -233495.02            0    -231411.6   -1242.6836 
  100000    902.48869   -233477.12            0   -231387.94   -728.07161 
Loop time of 656.717 on 52 procs for 100000 steps with 17910 atoms

Performance: 13.156 ns/day, 1.824 hours/ns, 152.273 timesteps/s
99.8% CPU use with 52 MPI tasks x 1 OpenMP threads

MPI task timing breakdown:
Section |  min time  |  avg time  |  max time  |%varavg| %total
---------------------------------------------------------------
Pair    | 428.34     | 451.54     | 465.93     |  35.5 | 68.76
Bond    | 0.007      | 0.01039    | 0.014479   |   1.7 |  0.00
Kspace  | 126.58     | 142.81     | 169.2      |  73.4 | 21.75
Neigh   | 37.069     | 42.497     | 45.385     |  26.0 |  6.47
Comm    | 14.654     | 15.503     | 17.423     |  18.1 |  2.36
Output  | 5.2087e-05 | 5.7576e-05 | 0.00029891 |   0.0 |  0.00
Modify  | 1.6842     | 3.0637     | 4.9283     |  58.8 |  0.47
Other   |            | 1.289      |            |       |  0.20

Nlocal:        344.423 ave         368 max         312 min
Histogram: 3 1 0 4 8 12 9 5 7 3
Nghost:        4071.31 ave        4175 max        3900 min
Histogram: 2 2 0 1 9 8 10 11 2 7
Neighs:        69256.6 ave       74393 max       58211 min
Histogram: 2 0 0 2 1 5 16 14 8 4

Total # of neighbors = 3601342
Ave neighs/atom = 201.07996
Ave special neighs/atom = 0.0000000
Neighbor list builds = 19779
Dangerous builds = 0
11940 atoms in group oxygen
PPPM initialization ...
  using 12-bit tables for long-range coulomb (../kspace.cpp:328)
  G vector (1/distance) = 0.29868242
  grid = 40 240 40
  stencil order = 5
  estimated absolute RMS force accuracy = 0.00015851856
  estimated relative force accuracy = 1.1008505e-05
  using single precision MKL FFT
  3d grid and FFT values/proc = 15000 7600
Setting up Verlet run ...
  Unit style    : metal
  Current step  : 0
  Time step     : 0.001
Per MPI rank memory allocation (min/avg/max) = 8.400 | 8.428 | 8.443 Mbytes
Step f_2 Temp v_Tdiff v_deltaT 
       0            0    902.48869            0            0 
  100000    1028.0225    906.16422  0.029859207    346.66262 
  200000    2024.4027    907.56083  0.034182236    396.85259 
  300000    3025.8208    907.37964  0.033390565    387.66135 
  400000    4027.3195    906.57675   0.03344971    388.34803 
  500000    5030.8149    905.71196  0.033217727    385.65472 
  600000    6028.8393    903.56571  0.032966019    382.73242 
  700000    7032.5457    914.79101  0.032961489    382.67982 
  800000    8030.4744    908.97551  0.033802391    392.44262 
  900000    9018.6238    903.85581  0.034958813    405.86857 
 1000000    10022.971    914.64369  0.033006645    383.20409 
 1100000    11028.558    901.72952  0.032819669     381.0333 
 1200000     12025.72    904.65575  0.033589389    389.96968 
 1300000    13026.834    902.50448   0.03336646     387.3815 
 1400000    14015.861    901.72633  0.034029472    395.07901 
 1500000    15020.328    900.66314  0.033548657    389.49679 
Loop time of 9704.72 on 52 procs for 1500000 steps with 17910 atoms

Performance: 13.354 ns/day, 1.797 hours/ns, 154.564 timesteps/s
99.8% CPU use with 52 MPI tasks x 1 OpenMP threads

MPI task timing breakdown:
Section |  min time  |  avg time  |  max time  |%varavg| %total
---------------------------------------------------------------
Pair    | 6323.6     | 6642.2     | 6842.5     | 129.6 | 68.44
Bond    | 0.10259    | 0.15383    | 0.2542     |   6.9 |  0.00
Kspace  | 1898.1     | 2129.1     | 2498       | 260.5 | 21.94
Neigh   | 564.2      | 648        | 696.97     |  98.1 |  6.68
Comm    | 218.67     | 232.85     | 270.2      |  78.6 |  2.40
Output  | 0.0016265  | 0.0017279  | 0.0034544  |   0.6 |  0.00
Modify  | 8.16       | 8.7172     | 9.211      |   9.4 |  0.09
Other   |            | 43.76      |            |       |  0.45

Nlocal:        344.423 ave         365 max         311 min
Histogram: 2 1 1 0 7 12 12 5 8 4
Nghost:        4089.10 ave        4189 max        3919 min
Histogram: 2 2 1 0 11 3 11 10 6 6
Neighs:        69268.2 ave       73364 max       59254 min
Histogram: 2 0 0 1 1 4 17 12 6 9

Total # of neighbors = 3601945
Ave neighs/atom = 201.11362
Ave special neighs/atom = 0.0000000
Neighbor list builds = 302165
Dangerous builds = 0
Total wall time: 2:52:41
