ITEM: TIMESTEP
220000
ITEM: NUMBER OF ATOMS
18000
ITEM: BOX BOUNDS xy xz yz pp pp pp
-1.3663459251752366e-01 2.8030634592518446e+01 0.0000000000000000e+00
-1.6651972637847554e+00 3.3639319726375754e+02 0.0000000000000000e+00
-1.4128113319464897e-01 2.8035281133194648e+01 0.0000000000000000e+00
ITEM: ATOMS id type q mass x y z
668 2 2.2208 232.038 -0.0335547 15.2203 0.0109726
324 1 -1.1104 15.9994 12.4501 5.2934 12.5532
676 2 2.2208 232.038 8.17498 23.6431 0.0247419
4 1 -1.1104 15.9994 12.427 22.1794 12.6992
323 1 -1.1104 15.9994 9.64223 7.97333 12.82
322 1 -1.1104 15.9994 6.65447 5.36637 12.6507
9081 2 2.2208 232.038 13.8758 1.14218 11.2087
8 2 2.2208 232.038 5.4647 1.10352 2.73723
9 1 -1.1104 15.9994 12.4073 8.10667 12.5854
10 2 2.2208 232.038 11.1138 1.21708 2.96252
11 1 -1.1104 15.9994 9.52779 22.444 12.6172
321 1 -1.1104 15.9994 9.45747 5.11026 12.4129
13 2 2.2208 232.038 2.66239 3.87732 2.74649
14 1 -1.1104 15.9994 6.88784 22.1968 12.7559
29 2 2.2208 232.038 11.057 9.66707 -0.0283431
671 2 2.2208 232.038 8.33931 18.0813 0.0751466
17 2 2.2208 232.038 8.21317 3.99328 2.80403
18 2 2.2208 232.038 5.46485 6.68034 2.70211
674 2 2.2208 232.038 2.55795 23.5522 0.00896472
20 2 2.2208 232.038 11.1146 6.7368 2.85189
21 1 -1.1104 15.9994 4.05363 22.1123 12.6545
22 1 -1.1104 15.9994 1.27545 16.4034 12.4373
23 2 2.2208 232.038 2.70846 9.50234 2.70965
320 1 -1.1104 15.9994 6.63285 2.51131 12.4533
346 2 2.2208 232.038 2.43242 20.9025 13.905
8998 2 2.2208 232.038 -0.0792768 1.14317 8.55493
27 2 2.2208 232.038 8.31684 9.54648 2.75769
28 2 2.2208 232.038 5.18674 12.4405 2.97809
659 2 2.2208 232.038 2.52809 0.938695 0.0157309
30 2 2.2208 232.038 11.0777 12.5388 2.68355
31 1 -1.1104 15.9994 12.4703 13.6887 12.5065
32 1 -1.1104 15.9994 12.3489 10.8772 12.6023
33 2 2.2208 232.038 2.60681 15.2196 2.57103
319 1 -1.1104 15.9994 3.90426 8.0568 12.5478
35 1 -1.1104 15.9994 9.78057 13.7125 12.6565
36 1 -1.1104 15.9994 6.87331 13.8154 12.5424
37 2 2.2208 232.038 8.16658 15.2692 2.77929
38 2 2.2208 232.038 5.45991 18.0779 2.88343
39 1 -1.1104 15.9994 9.53956 10.6731 12.5358
40 2 2.2208 232.038 11.2142 18.0341 2.73939
41 1 -1.1104 15.9994 6.81126 10.9785 12.6672
42 1 -1.1104 15.9994 4.11789 13.7279 12.7501
43 2 2.2208 232.038 2.60056 20.8699 2.80521
318 1 -1.1104 15.9994 1.15313 8.02893 12.4193
45 1 -1.1104 15.9994 1.29728 13.6401 12.7053
46 1 -1.1104 15.9994 3.91803 10.948 12.608
47 2 2.2208 232.038 8.35397 20.8513 2.7495
48 2 2.2208 232.038 5.36129 23.6941 2.79626
49 1 -1.1104 15.9994 1.1264 10.6704 12.5312
50 2 2.2208 232.038 11.1674 23.6503 2.74479
51 1 -1.1104 15.9994 1.24518 22.1748 12.2722
52 2 2.2208 232.038 2.63908 1.08653 5.48712
9086 2 2.2208 232.038 13.7359 6.7626 11.2492
54 1 -1.1104 15.9994 12.2571 19.2279 12.7268
9096 2 2.2208 232.038 13.7894 17.9309 11.4181
56 2 2.2208 232.038 8.21824 1.16654 5.50281
9052 2 2.2208 232.038 13.9133 9.61576 8.23499
58 2 2.2208 232.038 5.37182 1.14387 8.45497
9041 2 2.2208 232.038 13.9169 6.79929 5.45946
60 2 2.2208 232.038 11.0824 1.08121 8.42793
61 1 -1.1104 15.9994 12.3266 16.4799 12.5556
62 2 2.2208 232.038 2.47874 6.73009 5.48551
63 2 2.2208 232.038 2.79912 4.0382 8.38091
64 1 -1.1104 15.9994 9.39152 19.551 12.4495
65 2 2.2208 232.038 5.37595 3.96883 5.52445
66 2 2.2208 232.038 8.40002 6.64472 5.58473
67 2 2.2208 232.038 8.29443 3.91063 8.13693
68 2 2.2208 232.038 5.4553 6.87455 8.41507
69 2 2.2208 232.038 11.2656 3.98181 5.42063
70 2 2.2208 232.038 10.9911 6.69298 8.3785
71 1 -1.1104 15.9994 6.63871 19.4967 12.7224
72 2 2.2208 232.038 2.59063 12.5933 5.70796
73 2 2.2208 232.038 2.51673 9.53694 8.27211
74 1 -1.1104 15.9994 9.466 16.4932 12.8076
75 2 2.2208 232.038 5.47536 9.75878 5.64925
76 2 2.2208 232.038 8.32997 12.5232 5.49184
77 2 2.2208 232.038 8.35862 9.7308 8.5008
78 2 2.2208 232.038 5.47334 12.3056 8.51386
79 2 2.2208 232.038 11.136 9.58925 5.61064
80 2 2.2208 232.038 11.1612 12.4 8.33103
317 1 -1.1104 15.9994 3.7754 5.24426 12.2963
82 2 2.2208 232.038 2.56149 18.082 5.42005
83 2 2.2208 232.038 2.55225 15.1097 8.49909
55 2 2.2208 232.038 5.35014 -1.59799 5.48554
85 2 2.2208 232.038 5.3374 15.2385 5.63362
86 2 2.2208 232.038 8.31788 18.016 5.65616
87 2 2.2208 232.038 8.17939 15.0812 8.35677
88 2 2.2208 232.038 5.314 17.9536 8.42479
89 2 2.2208 232.038 11.2161 15.2805 5.57359
90 2 2.2208 232.038 10.9558 18.0229 8.36962
7 2 2.2208 232.038 8.19511 -1.64149 2.66209
92 2 2.2208 232.038 2.53953 23.7738 5.56224
93 2 2.2208 232.038 2.53183 20.8522 8.24252
467 1 -1.1104 15.9994 6.74895 8.04749 12.5669
95 2 2.2208 232.038 5.41562 20.67 5.44066
96 2 2.2208 232.038 8.28031 23.596 5.42301
97 2 2.2208 232.038 8.25235 20.8081 8.5633
98 2 2.2208 232.038 5.31531 23.568 8.34164
99 2 2.2208 232.038 11.1079 20.9119 5.64986
100 2 2.2208 232.038 10.9485 23.3334 8.56119
101 1 -1.1104 15.9994 6.80945 16.5572 12.7055
102 2 2.2208 232.038 2.49836 1.15219 11.2986
483 1 -1.1104 15.9994 1.24815 19.2144 12.685
104 2 2.2208 232.038 8.10526 1.28218 11.1163
374 2 2.2208 232.038 11.1228 20.8185 -0.142668
106 1 -1.1104 15.9994 3.96879 19.4729 12.3524
107 2 2.2208 232.038 2.54718 6.74626 11.182
108 2 2.2208 232.038 5.40058 4.0162 11.1951
109 2 2.2208 232.038 8.24731 6.75 11.089
110 2 2.2208 232.038 10.9586 3.90482 11.1402
111 1 -1.1104 15.9994 1.12544 19.4259 9.71859
112 2 2.2208 232.038 2.62719 12.256 11.2128
113 2 2.2208 232.038 5.55446 9.44757 11.2757
114 2 2.2208 232.038 8.25662 12.5015 11.2189
115 2 2.2208 232.038 10.9462 9.49525 11.2633
116 1 -1.1104 15.9994 4.06296 16.5325 12.7257
117 2 2.2208 232.038 2.50539 17.9283 11.1222
118 2 2.2208 232.038 5.51422 15.1666 11.2298
119 2 2.2208 232.038 8.17665 18.1037 11.2982
120 2 2.2208 232.038 10.8927 15.3384 11.2886
9031 2 2.2208 232.038 13.8995 1.09414 5.6382
122 2 2.2208 232.038 2.43466 23.6634 11.0722
123 2 2.2208 232.038 5.32102 20.785 11.0915
124 2 2.2208 232.038 8.01006 23.587 11.2099
125 2 2.2208 232.038 11.1205 20.701 11.4023
126 1 -1.1104 15.9994 1.25519 -0.379327 1.2597
127 1 -1.1104 15.9994 3.96503 -0.401672 1.36645
128 1 -1.1104 15.9994 1.17347 -0.253852 4.2054
129 1 -1.1104 15.9994 3.92154 -0.234957 4.14566
130 1 -1.1104 15.9994 1.03048 2.55421 1.42163
131 1 -1.1104 15.9994 4.04264 2.45488 1.42353
132 1 -1.1104 15.9994 1.20916 2.63085 4.2432
133 1 -1.1104 15.9994 4.08544 2.46661 4.11705
134 1 -1.1104 15.9994 6.89365 -0.383082 1.2189
135 1 -1.1104 15.9994 9.58406 -0.306952 1.30597
136 1 -1.1104 15.9994 6.8057 -0.374079 4.11263
137 1 -1.1104 15.9994 9.6433 -0.243558 4.27306
138 1 -1.1104 15.9994 7.12863 2.43172 1.29114
139 1 -1.1104 15.9994 9.79175 2.51622 1.39792
140 1 -1.1104 15.9994 6.72154 2.5054 4.1247
141 1 -1.1104 15.9994 9.51863 2.3698 4.07739
142 1 -1.1104 15.9994 12.4262 -0.480454 1.25529
143 1 -1.1104 15.9994 12.4364 -0.245726 4.15071
144 1 -1.1104 15.9994 12.5294 2.43177 1.33007
145 1 -1.1104 15.9994 12.4187 2.52778 4.29366
146 1 -1.1104 15.9994 1.11589 5.20244 1.26677
147 1 -1.1104 15.9994 4.00086 5.06159 1.08018
148 1 -1.1104 15.9994 1.11924 5.38914 4.24773
149 1 -1.1104 15.9994 3.9913 5.27578 4.04252
150 1 -1.1104 15.9994 1.23874 7.99755 1.2634
151 1 -1.1104 15.9994 4.03944 8.09003 1.23842
152 1 -1.1104 15.9994 1.04125 8.01992 4.27707
153 1 -1.1104 15.9994 4.0876 8.16019 3.92213
154 1 -1.1104 15.9994 6.96715 5.18412 1.19923
155 1 -1.1104 15.9994 9.76215 5.32083 1.43618
156 1 -1.1104 15.9994 6.83426 5.28759 4.25655
157 1 -1.1104 15.9994 9.7531 5.10506 4.1284
158 1 -1.1104 15.9994 6.85681 8.02289 1.36101
159 1 -1.1104 15.9994 9.49538 8.23641 1.38202
160 1 -1.1104 15.9994 7.00212 7.94947 4.09427
161 1 -1.1104 15.9994 9.83627 8.14979 4.34198
162 1 -1.1104 15.9994 12.4163 5.22602 1.19962
163 1 -1.1104 15.9994 12.6399 5.36597 3.95515
164 1 -1.1104 15.9994 12.4055 8.38046 1.10083
165 1 -1.1104 15.9994 12.5026 8.14667 4.0251
166 1 -1.1104 15.9994 1.18833 10.9522 1.39441
167 1 -1.1104 15.9994 3.89087 11.1246 1.49483
168 1 -1.1104 15.9994 1.22875 10.9644 4.12671
169 1 -1.1104 15.9994 4.07156 10.9664 4.36081
170 1 -1.1104 15.9994 1.49496 13.7996 1.03311
171 1 -1.1104 15.9994 4.1216 13.7109 1.40042
172 1 -1.1104 15.9994 1.30694 13.8403 3.90422
173 1 -1.1104 15.9994 4.01273 13.9031 4.52384
174 1 -1.1104 15.9994 6.81204 10.7816 1.29203
175 1 -1.1104 15.9994 9.58635 11.061 1.05493
176 1 -1.1104 15.9994 6.89812 10.9059 4.03823
177 1 -1.1104 15.9994 9.63665 11.2313 3.85803
178 1 -1.1104 15.9994 6.92025 13.6987 1.41686
179 1 -1.1104 15.9994 9.73036 13.8233 1.31072
180 1 -1.1104 15.9994 6.71922 13.7757 4.17555
181 1 -1.1104 15.9994 9.62985 13.8786 4.2502
182 1 -1.1104 15.9994 12.581 11.009 1.47263
183 1 -1.1104 15.9994 12.661 10.9298 4.11781
184 1 -1.1104 15.9994 12.5134 13.78 1.34615
185 1 -1.1104 15.9994 12.5295 14.0213 4.21783
186 1 -1.1104 15.9994 1.38278 16.6106 1.27859
187 1 -1.1104 15.9994 4.1409 16.6042 1.40814
188 1 -1.1104 15.9994 1.1819 16.4519 4.00341
189 1 -1.1104 15.9994 3.98972 16.8378 4.21226
190 1 -1.1104 15.9994 1.21723 19.4759 1.28363
191 1 -1.1104 15.9994 4.15893 19.4787 1.16075
192 1 -1.1104 15.9994 1.21979 19.4126 4.14103
193 1 -1.1104 15.9994 4.08131 19.4547 4.0703
194 1 -1.1104 15.9994 6.90573 16.6187 1.43493
195 1 -1.1104 15.9994 9.75295 16.5972 1.48296
196 1 -1.1104 15.9994 6.99749 16.7437 4.24955
197 1 -1.1104 15.9994 9.74491 16.6803 4.21309
198 1 -1.1104 15.9994 6.90854 19.5799 1.5144
199 1 -1.1104 15.9994 9.68525 19.3701 1.37639
200 1 -1.1104 15.9994 6.85194 19.4283 4.28991
201 1 -1.1104 15.9994 9.71681 19.3752 4.29746
202 1 -1.1104 15.9994 12.5819 16.6191 1.18106
203 1 -1.1104 15.9994 12.5503 16.7924 4.2985
204 1 -1.1104 15.9994 12.5535 19.3262 1.22271
205 1 -1.1104 15.9994 12.3148 19.5645 4.15422
206 1 -1.1104 15.9994 1.04618 22.1502 1.36427
207 1 -1.1104 15.9994 3.95432 22.3177 1.44353
208 1 -1.1104 15.9994 1.21129 22.4284 4.15018
209 1 -1.1104 15.9994 4.02167 22.2141 4.19518
210 1 -1.1104 15.9994 6.86728 22.2428 1.43313
211 1 -1.1104 15.9994 9.80901 22.1738 1.28223
212 1 -1.1104 15.9994 6.84638 22.1575 4.12514
213 1 -1.1104 15.9994 9.72863 22.2285 4.23817
214 1 -1.1104 15.9994 12.7107 22.1233 1.265
215 1 -1.1104 15.9994 12.6254 22.2 4.23146
216 1 -1.1104 15.9994 1.0591 -0.478687 7.02581
217 1 -1.1104 15.9994 4.06301 -0.217833 7.10177
26 2 2.2208 232.038 8.13308 12.3207 -0.0506347
219 1 -1.1104 15.9994 4.06867 -0.32779 10.0504
220 1 -1.1104 15.9994 1.56496 2.47988 6.90003
221 1 -1.1104 15.9994 4.21997 2.5434 7.02006
222 1 -1.1104 15.9994 1.24391 -0.125572 9.88616
223 1 -1.1104 15.9994 4.20671 2.58893 9.85837
224 1 -1.1104 15.9994 6.8312 -0.325212 6.91101
225 1 -1.1104 15.9994 9.7982 -0.369847 7.11048
226 1 -1.1104 15.9994 6.80081 -0.352484 9.67546
227 1 -1.1104 15.9994 9.5343 -0.386441 9.74318
228 1 -1.1104 15.9994 6.91221 2.51689 6.80277
229 1 -1.1104 15.9994 9.84662 2.46623 7.09918
230 1 -1.1104 15.9994 6.97911 2.59734 9.74869
231 1 -1.1104 15.9994 9.62889 2.49758 9.80896
232 1 -1.1104 15.9994 12.6153 -0.482285 6.78091
233 1 -1.1104 15.9994 12.5454 -0.290854 9.64602
234 1 -1.1104 15.9994 12.5214 2.60888 6.88112
235 1 -1.1104 15.9994 12.4373 2.51298 9.74158
236 1 -1.1104 15.9994 1.1924 5.33201 7.077
237 1 -1.1104 15.9994 3.95924 5.36471 6.90423
238 1 -1.1104 15.9994 1.35804 2.61527 9.86739
239 1 -1.1104 15.9994 4.21219 5.30596 9.63822
240 1 -1.1104 15.9994 1.41702 8.04855 6.9081
241 1 -1.1104 15.9994 4.10691 8.28513 6.9137
242 1 -1.1104 15.9994 1.34923 5.30228 9.83579
243 1 -1.1104 15.9994 4.01825 8.26105 9.86268
244 1 -1.1104 15.9994 6.93876 5.39962 6.94858
245 1 -1.1104 15.9994 9.71228 5.11713 6.82405
246 1 -1.1104 15.9994 6.87553 5.45728 9.74832
247 1 -1.1104 15.9994 9.72547 5.30968 9.65092
248 1 -1.1104 15.9994 6.92424 8.13211 6.8172
249 1 -1.1104 15.9994 9.58733 8.04885 7.15061
250 1 -1.1104 15.9994 6.84806 8.30951 9.74216
251 1 -1.1104 15.9994 9.63901 8.18014 9.98811
252 1 -1.1104 15.9994 12.4956 5.41261 6.74005
253 1 -1.1104 15.9994 12.3025 5.45143 9.76979
254 1 -1.1104 15.9994 12.4539 8.11207 6.86486
255 1 -1.1104 15.9994 12.3918 8.12879 9.86821
256 1 -1.1104 15.9994 1.16156 10.9737 6.89104
257 1 -1.1104 15.9994 3.92173 11.0893 6.94725
258 1 -1.1104 15.9994 1.10436 8.19823 9.66043
259 1 -1.1104 15.9994 4.03089 10.824 9.67676
260 1 -1.1104 15.9994 1.18382 13.7276 7.0076
261 1 -1.1104 15.9994 4.05221 13.8809 7.09677
262 1 -1.1104 15.9994 1.16942 10.8772 9.67
263 1 -1.1104 15.9994 3.94424 13.8274 9.85659
264 1 -1.1104 15.9994 6.97752 10.8785 7.0693
265 1 -1.1104 15.9994 9.80715 11.0208 6.97839
266 1 -1.1104 15.9994 6.85621 11.128 9.92301
267 1 -1.1104 15.9994 9.64876 11.2794 9.61537
268 1 -1.1104 15.9994 6.82289 13.6689 6.98942
269 1 -1.1104 15.9994 9.75997 13.826 6.99175
270 1 -1.1104 15.9994 6.90042 13.8099 9.86115
271 1 -1.1104 15.9994 9.64688 13.9839 9.7878
272 1 -1.1104 15.9994 12.7312 11.0732 6.74966
273 1 -1.1104 15.9994 12.365 10.7808 9.61852
274 1 -1.1104 15.9994 12.4545 13.7892 6.88869
275 1 -1.1104 15.9994 12.557 13.6398 9.79796
276 1 -1.1104 15.9994 1.33478 16.6875 6.87011
277 1 -1.1104 15.9994 4.07028 16.5521 7.06921
278 1 -1.1104 15.9994 1.01562 13.5234 9.99357
279 1 -1.1104 15.9994 3.81594 16.5507 9.76338
280 1 -1.1104 15.9994 1.27737 19.4973 6.95026
281 1 -1.1104 15.9994 3.93269 19.3991 6.86375
282 1 -1.1104 15.9994 1.12766 16.5095 9.65578
283 1 -1.1104 15.9994 3.90808 19.394 9.67257
284 1 -1.1104 15.9994 6.97089 16.6769 7.12628
285 1 -1.1104 15.9994 9.55244 16.5589 7.05826
286 1 -1.1104 15.9994 6.74157 16.7293 9.90408
287 1 -1.1104 15.9994 9.57851 16.7254 9.98823
288 1 -1.1104 15.9994 6.67256 19.2812 7.05537
289 1 -1.1104 15.9994 9.59974 19.4674 7.05319
290 1 -1.1104 15.9994 6.9312 19.3471 9.92983
291 1 -1.1104 15.9994 9.84933 19.3875 9.86996
292 1 -1.1104 15.9994 12.5498 16.6016 7.07249
293 1 -1.1104 15.9994 12.2728 16.4407 9.85584
294 1 -1.1104 15.9994 12.3783 19.4102 6.96239
295 1 -1.1104 15.9994 12.6805 19.4595 9.81934
296 1 -1.1104 15.9994 1.06779 22.3842 6.77558
297 1 -1.1104 15.9994 4.01082 22.2341 6.94368
298 1 -1.1104 15.9994 1.01865 22.1501 9.48592
299 1 -1.1104 15.9994 3.87953 22.3553 9.7585
300 1 -1.1104 15.9994 6.80642 22.1073 6.83136
301 1 -1.1104 15.9994 9.70639 22.2167 7.10034
302 1 -1.1104 15.9994 6.79361 22.0743 9.70342
303 1 -1.1104 15.9994 9.52614 22.1468 9.87203
304 1 -1.1104 15.9994 12.5445 22.3688 7.13008
305 1 -1.1104 15.9994 12.4559 22.1769 9.87798
306 1 -1.1104 15.9994 1.23153 -0.514204 12.6169
307 1 -1.1104 15.9994 3.93049 -0.326055 12.667
308 1 -1.1104 15.9994 1.164 2.4149 12.5539
309 1 -1.1104 15.9994 3.92168 2.44926 12.6448
316 1 -1.1104 15.9994 1.13919 5.33271 12.51
311 1 -1.1104 15.9994 9.64148 -0.295209 12.6215
312 1 -1.1104 15.9994 6.85859 -0.166754 12.7084
313 1 -1.1104 15.9994 9.70899 2.26521 12.483
314 1 -1.1104 15.9994 12.3498 -0.304106 12.481
315 1 -1.1104 15.9994 12.5898 2.40453 12.5619
663 2 2.2208 232.038 2.47416 6.69458 -0.119472
15 2 2.2208 232.038 13.8895 15.2379 2.73509
672 2 2.2208 232.038 11.0395 15.3316 -0.0953057
675 2 2.2208 232.038 5.43594 20.9103 0.053602
25 2 2.2208 232.038 5.41424 9.49723 -0.0106756
665 2 2.2208 232.038 13.9623 23.5654 -0.133416
9101 2 2.2208 232.038 13.8626 23.5307 11.4845
6 2 2.2208 232.038 13.8429 18.0979 5.57157
9091 2 2.2208 232.038 13.7668 12.2637 11.1078
5 2 2.2208 232.038 13.9059 15.0798 8.60304
2 2 2.2208 232.038 13.8923 20.8578 8.39726
53 2 2.2208 232.038 2.79434 -1.70552 8.4595
81 2 2.2208 232.038 -0.09716 15.0505 5.55889
34 2 2.2208 232.038 -0.222414 18.1228 2.53939
9042 2 2.2208 232.038 13.6992 4.03667 8.43934
24 2 2.2208 232.038 -0.0438763 12.3053 2.63029
670 2 2.2208 232.038 5.36234 15.1339 0.00667578
9329 2 2.2208 232.038 13.8556 15.0695 13.8761
9677 2 2.2208 232.038 13.7502 1.17281 -0.0168019
331 2 2.2208 232.038 2.58982 4.09444 13.8712
661 2 2.2208 232.038 8.32481 1.14825 -0.0734598
9319 2 2.2208 232.038 13.8914 3.88977 13.8342
666 2 2.2208 232.038 2.6471 12.3333 -0.110489
16 2 2.2208 232.038 8.35518 6.71899 -0.0267309
9001 2 2.2208 232.038 13.8758 12.4048 0.0673524
336 2 2.2208 232.038 2.64872 9.57348 14.0073
327 1 -1.1104 15.9994 6.77261 22.0378 26.8559
9380 2 2.2208 232.038 13.8466 20.8169 19.5124
355 2 2.2208 232.038 5.36762 -1.5742 16.6995
328 2 2.2208 232.038 8.26912 -1.64497 14.1105
9349 2 2.2208 232.038 13.8023 6.82677 16.9526
332 1 -1.1104 15.9994 9.61901 21.9852 23.8519
658 2 2.2208 232.038 13.85 21.0886 25.3135
657 2 2.2208 232.038 13.5865 23.6868 22.5037
340 2 2.2208 232.038 10.8785 12.3397 14.12
9419 2 2.2208 232.038 13.8033 18.0962 22.4766
337 1 -1.1104 15.9994 6.70771 22.3263 23.8136
9369 2 2.2208 232.038 13.889 17.9211 16.7922
9666 2 2.2208 232.038 -0.143579 1.0894 19.6313
339 2 2.2208 232.038 5.36266 12.3261 14.0526
9359 2 2.2208 232.038 13.7964 12.4044 16.9749
342 1 -1.1104 15.9994 4.02823 22.1338 26.881
348 2 2.2208 232.038 8.14813 20.9357 14.0553
333 2 2.2208 232.038 8.14443 3.98998 13.9344
9409 2 2.2208 232.038 13.654 12.5143 22.3916
677 1 -1.1104 15.9994 9.59352 13.6955 26.6403
409 2 2.2208 232.038 11.2249 -1.70764 22.5733
329 2 2.2208 232.038 5.36968 1.20548 14.1287
338 2 2.2208 232.038 8.18159 9.33066 14.0101
350 2 2.2208 232.038 10.9245 23.5507 14.107
351 1 -1.1104 15.9994 1.05426 22.1058 26.936
352 2 2.2208 232.038 2.45943 1.01918 16.7388
353 2 2.2208 232.038 2.63273 -1.72155 19.6874
354 1 -1.1104 15.9994 3.95294 22.1172 24.0282
650 1 -1.1104 15.9994 1.02653 19.3487 23.8179
356 2 2.2208 232.038 8.30648 1.1744 16.7882
644 1 -1.1104 15.9994 12.3684 13.9981 23.8002
358 2 2.2208 232.038 5.48955 1.08865 19.6533
649 1 -1.1104 15.9994 4.10827 16.4734 26.6118
360 2 2.2208 232.038 11.051 1.23552 19.555
361 1 -1.1104 15.9994 0.952006 22.1908 24.1785
362 2 2.2208 232.038 2.46458 6.75315 16.8759
363 2 2.2208 232.038 2.63214 3.97982 19.7719
364 1 -1.1104 15.9994 12.6351 19.5173 26.6184
365 2 2.2208 232.038 5.35582 3.82974 16.935
366 2 2.2208 232.038 8.04445 6.68058 16.8323
367 2 2.2208 232.038 8.13766 3.92403 19.6621
368 2 2.2208 232.038 5.35682 6.73676 19.7934
369 2 2.2208 232.038 10.9052 4.0733 16.7713
370 2 2.2208 232.038 10.9182 6.83338 19.5777
371 1 -1.1104 15.9994 12.3134 19.4312 23.8501
372 2 2.2208 232.038 2.56281 12.4636 16.9046
373 2 2.2208 232.038 2.33653 9.77747 19.646
9399 2 2.2208 232.038 13.8541 6.6259 22.4185
375 2 2.2208 232.038 5.29976 9.60862 17.0554
376 2 2.2208 232.038 8.1166 12.3658 16.6776
377 2 2.2208 232.038 8.03277 9.60797 19.5898
378 2 2.2208 232.038 5.35278 12.5294 19.7161
379 2 2.2208 232.038 10.8697 9.46973 16.7854
380 2 2.2208 232.038 10.8308 12.3951 19.6016
381 1 -1.1104 15.9994 12.3062 16.5674 26.6001
382 2 2.2208 232.038 2.73331 17.9876 16.8062
383 2 2.2208 232.038 2.40549 15.2858 19.4931
648 1 -1.1104 15.9994 1.21042 16.5431 26.6521
385 2 2.2208 232.038 5.39588 15.1928 16.9352
386 2 2.2208 232.038 8.28976 18.2283 16.7834
387 2 2.2208 232.038 8.24487 15.2126 19.6204
388 2 2.2208 232.038 5.51188 18.1143 19.6583
389 2 2.2208 232.038 10.9274 15.2307 16.8278
390 2 2.2208 232.038 11.0094 17.9795 19.5628
391 1 -1.1104 15.9994 12.3746 22.315 26.5737
392 2 2.2208 232.038 2.35563 23.6028 16.946
393 2 2.2208 232.038 2.56758 20.6743 19.5368
407 2 2.2208 232.038 8.20846 -1.5954 25.1601
395 2 2.2208 232.038 5.52639 20.981 16.8126
396 2 2.2208 232.038 8.27392 23.6573 16.974
397 2 2.2208 232.038 8.28186 20.9493 19.7118
398 2 2.2208 232.038 5.29223 23.5296 19.7473
399 2 2.2208 232.038 11.0113 20.7758 16.8031
400 2 2.2208 232.038 10.9229 23.6592 19.6903
401 1 -1.1104 15.9994 12.4175 16.6522 23.8479
402 2 2.2208 232.038 2.65253 1.16128 22.4676
647 1 -1.1104 15.9994 3.84079 16.382 23.8953
404 1 -1.1104 15.9994 9.76085 19.4399 26.8124
646 1 -1.1104 15.9994 0.957527 16.5911 23.7026
406 2 2.2208 232.038 8.44835 1.229 22.5873
651 1 -1.1104 15.9994 3.89591 19.2291 23.9187
408 2 2.2208 232.038 5.42595 1.13211 25.3387
654 1 -1.1104 15.9994 6.81944 16.7045 24.1673
410 2 2.2208 232.038 11.0857 1.25563 25.1606
411 1 -1.1104 15.9994 6.6692 19.4559 26.8806
412 2 2.2208 232.038 2.58777 6.81613 22.3742
413 2 2.2208 232.038 2.59581 3.85733 25.206
414 1 -1.1104 15.9994 9.56852 19.3523 23.9054
415 2 2.2208 232.038 5.44018 3.93304 22.4825
416 2 2.2208 232.038 8.13044 6.74022 22.5535
417 2 2.2208 232.038 8.27748 4.02184 25.334
418 2 2.2208 232.038 5.29859 6.75557 25.3814
419 2 2.2208 232.038 11.0302 4.12214 22.2636
420 2 2.2208 232.038 11.1306 6.86322 25.2459
421 1 -1.1104 15.9994 6.7533 19.2844 24.011
422 2 2.2208 232.038 2.56626 12.5041 22.4116
423 2 2.2208 232.038 2.65954 9.51835 25.3141
424 1 -1.1104 15.9994 9.53173 16.7899 26.6377
425 2 2.2208 232.038 5.31236 9.68046 22.506
426 2 2.2208 232.038 8.11634 12.4912 22.4423
427 2 2.2208 232.038 8.21345 9.52222 25.1945
428 2 2.2208 232.038 5.48058 12.4492 25.2875
429 2 2.2208 232.038 10.8575 9.54131 22.3213
430 2 2.2208 232.038 11.0211 12.4301 25.2593
652 1 -1.1104 15.9994 1.21675 19.1759 26.656
432 2 2.2208 232.038 2.50016 18.0106 22.3652
433 2 2.2208 232.038 2.60007 15.1889 25.3834
653 1 -1.1104 15.9994 3.86531 19.5283 26.6659
435 2 2.2208 232.038 5.26725 15.3504 22.5311
436 2 2.2208 232.038 8.17548 18.0914 22.4633
437 2 2.2208 232.038 8.14263 15.3644 25.2557
438 2 2.2208 232.038 5.21138 18.04 25.4107
439 2 2.2208 232.038 11.0228 15.2038 22.3447
440 2 2.2208 232.038 11.0012 18.0646 25.1913
656 1 -1.1104 15.9994 6.75441 16.6906 26.7961
442 1 -1.1104 15.9994 12.3691 22.3182 23.9021
443 2 2.2208 232.038 2.50753 20.9619 25.3385
655 1 -1.1104 15.9994 9.54299 16.5354 23.9089
445 2 2.2208 232.038 5.23649 20.883 22.4178
446 2 2.2208 232.038 8.06567 23.6298 22.5097
447 2 2.2208 232.038 7.9443 20.894 25.3115
448 2 2.2208 232.038 5.29687 23.842 25.3212
449 2 2.2208 232.038 11.0821 20.8733 22.5037
450 2 2.2208 232.038 11.0607 23.7183 25.241
451 1 -1.1104 15.9994 1.03137 -0.471218 15.4964
452 1 -1.1104 15.9994 3.97693 -0.288146 15.3447
453 1 -1.1104 15.9994 1.43558 2.66198 15.4321
454 1 -1.1104 15.9994 4.14487 2.45104 15.5058
455 1 -1.1104 15.9994 6.83595 -0.225502 15.5249
456 1 -1.1104 15.9994 9.72158 -0.367202 15.455
457 1 -1.1104 15.9994 6.97811 2.60015 15.3677
458 1 -1.1104 15.9994 9.57264 2.49584 15.2628
459 1 -1.1104 15.9994 12.4648 -0.404735 15.2186
460 1 -1.1104 15.9994 12.3269 2.43797 15.3005
461 1 -1.1104 15.9994 1.04161 5.23133 15.395
462 1 -1.1104 15.9994 3.78534 5.62481 15.3121
463 1 -1.1104 15.9994 1.27144 7.99293 15.4493
464 1 -1.1104 15.9994 3.93688 8.1387 15.5352
465 1 -1.1104 15.9994 6.70886 5.18981 15.6222
466 1 -1.1104 15.9994 9.48231 5.34285 15.3611
643 1 -1.1104 15.9994 12.3474 10.9327 26.8178
468 1 -1.1104 15.9994 9.57408 8.09791 15.6245
469 1 -1.1104 15.9994 12.4239 5.32541 15.4389
470 1 -1.1104 15.9994 12.4564 8.19454 15.443
471 1 -1.1104 15.9994 1.15003 10.8675 15.3178
472 1 -1.1104 15.9994 3.85926 10.9997 15.3902
473 1 -1.1104 15.9994 1.05371 13.6926 15.453
474 1 -1.1104 15.9994 4.14031 13.5765 15.5642
475 1 -1.1104 15.9994 6.65655 8.03132 15.4203
476 1 -1.1104 15.9994 9.25655 10.9019 15.3613
477 1 -1.1104 15.9994 6.57563 10.8128 15.5319
478 1 -1.1104 15.9994 9.4402 13.9336 15.4645
479 1 -1.1104 15.9994 12.4453 10.8963 15.3981
480 1 -1.1104 15.9994 12.4514 13.8122 15.2685
481 1 -1.1104 15.9994 1.19436 16.9574 15.2637
482 1 -1.1104 15.9994 3.98184 16.3758 15.4629
645 1 -1.1104 15.9994 12.31 13.8548 26.5937
484 1 -1.1104 15.9994 3.49417 19.2648 14.9847
485 1 -1.1104 15.9994 6.80647 13.5839 15.3176
486 1 -1.1104 15.9994 9.58896 16.73 15.4421
487 1 -1.1104 15.9994 6.6996 16.7168 15.4248
488 1 -1.1104 15.9994 9.58993 19.2981 15.2804
489 1 -1.1104 15.9994 12.3234 16.4675 15.485
490 1 -1.1104 15.9994 12.5482 19.3348 15.552
491 1 -1.1104 15.9994 1.2024 21.9939 15.2292
492 1 -1.1104 15.9994 4.15784 22.1503 15.3039
493 1 -1.1104 15.9994 6.71766 22.262 15.4533
494 1 -1.1104 15.9994 9.61646 22.1111 15.5393
495 1 -1.1104 15.9994 12.3687 22.1481 15.4438
496 1 -1.1104 15.9994 1.2951 -0.420417 18.1682
497 1 -1.1104 15.9994 4.13197 -0.198454 18.2581
498 1 -1.1104 15.9994 1.19025 -0.411767 21.0933
499 1 -1.1104 15.9994 3.99994 -0.268946 21.2138
500 1 -1.1104 15.9994 1.16814 2.44997 18.1351
501 1 -1.1104 15.9994 3.96584 2.42087 18.2486
502 1 -1.1104 15.9994 1.17625 2.44781 21.263
503 1 -1.1104 15.9994 3.95719 2.40376 21.0268
504 1 -1.1104 15.9994 6.91748 -0.546691 18.3075
505 1 -1.1104 15.9994 9.73417 -0.27548 18.1817
506 1 -1.1104 15.9994 6.76269 -0.578942 20.9913
507 1 -1.1104 15.9994 9.70058 -0.0880998 21.1316
508 1 -1.1104 15.9994 6.5552 2.45765 18.323
509 1 -1.1104 15.9994 9.58582 2.60166 18.2939
510 1 -1.1104 15.9994 6.84324 2.55001 21.1477
511 1 -1.1104 15.9994 9.6394 2.52534 21.1854
512 1 -1.1104 15.9994 12.3069 -0.105909 18.1523
513 1 -1.1104 15.9994 12.4201 -0.385137 20.9749
514 1 -1.1104 15.9994 12.5539 2.65247 18.1417
515 1 -1.1104 15.9994 12.3372 2.65234 20.7903
516 1 -1.1104 15.9994 1.39732 5.27075 18.3648
517 1 -1.1104 15.9994 4.11302 5.36181 18.0045
518 1 -1.1104 15.9994 1.19248 5.39394 21.0668
519 1 -1.1104 15.9994 4.02354 5.28714 20.9831
520 1 -1.1104 15.9994 0.810922 8.23847 18.2305
521 1 -1.1104 15.9994 3.58363 8.13473 18.413
522 1 -1.1104 15.9994 1.12454 8.23234 21.1468
523 1 -1.1104 15.9994 4.03374 7.9571 21.0873
524 1 -1.1104 15.9994 6.63726 5.27925 18.3899
525 1 -1.1104 15.9994 9.52568 5.4092 18.2726
526 1 -1.1104 15.9994 6.78249 5.48141 21.0725
527 1 -1.1104 15.9994 9.52415 5.43407 21.1578
528 1 -1.1104 15.9994 6.5919 8.08918 18.3115
529 1 -1.1104 15.9994 9.53379 8.10735 18.142
530 1 -1.1104 15.9994 6.71013 8.14407 21.1772
531 1 -1.1104 15.9994 9.59205 8.09494 20.9697
532 1 -1.1104 15.9994 12.362 5.426 18.1212
533 1 -1.1104 15.9994 12.5188 5.27561 20.9622
534 1 -1.1104 15.9994 12.2933 8.06179 18.0175
535 1 -1.1104 15.9994 12.4179 8.07318 20.9193
536 1 -1.1104 15.9994 0.861626 11.0502 18.2539
537 1 -1.1104 15.9994 3.67183 10.9352 18.1837
538 1 -1.1104 15.9994 1.04331 11.1833 21.0192
539 1 -1.1104 15.9994 3.77792 11.019 20.9894
540 1 -1.1104 15.9994 1.18884 13.8256 18.0623
541 1 -1.1104 15.9994 3.82174 13.7966 18.326
542 1 -1.1104 15.9994 1.22095 13.8829 21.0305
543 1 -1.1104 15.9994 4.10621 13.8005 21.0994
544 1 -1.1104 15.9994 6.71349 10.923 18.1884
545 1 -1.1104 15.9994 9.49575 10.8752 18.1507
546 1 -1.1104 15.9994 6.61803 11.1034 21.0248
547 1 -1.1104 15.9994 9.47447 11.0906 20.8838
548 1 -1.1104 15.9994 6.5162 13.5708 18.1908
549 1 -1.1104 15.9994 9.36066 13.9067 18.1678
550 1 -1.1104 15.9994 6.90685 13.8517 21.1515
551 1 -1.1104 15.9994 9.59814 13.8122 21.0271
552 1 -1.1104 15.9994 12.097 10.8995 18.1842
553 1 -1.1104 15.9994 12.2336 10.8957 20.8465
554 1 -1.1104 15.9994 12.0988 13.5397 18.043
555 1 -1.1104 15.9994 12.283 13.8262 20.8757
556 1 -1.1104 15.9994 1.19832 16.5559 17.8752
557 1 -1.1104 15.9994 3.95753 16.6953 18.2383
558 1 -1.1104 15.9994 1.02789 16.6818 20.7459
559 1 -1.1104 15.9994 3.92449 16.5441 21.0194
560 1 -1.1104 15.9994 4.17278 19.2988 17.9925
561 1 -1.1104 15.9994 6.70864 19.4503 15.5598
562 1 -1.1104 15.9994 1.43764 19.2736 18.1665
563 1 -1.1104 15.9994 3.94461 19.2823 20.8468
564 1 -1.1104 15.9994 6.84491 16.7445 18.3496
565 1 -1.1104 15.9994 9.64218 16.5665 18.1607
566 1 -1.1104 15.9994 6.65254 16.572 21.1633
567 1 -1.1104 15.9994 9.68994 16.5786 20.8882
568 1 -1.1104 15.9994 6.98512 19.5971 18.2413
569 1 -1.1104 15.9994 9.75253 19.3582 18.1884
570 1 -1.1104 15.9994 6.73409 19.4609 21.0558
571 1 -1.1104 15.9994 9.54906 19.4337 21.1039
572 1 -1.1104 15.9994 12.3439 16.4136 18.247
573 1 -1.1104 15.9994 12.4784 16.5999 21.2234
574 1 -1.1104 15.9994 12.6081 19.3153 18.2781
575 1 -1.1104 15.9994 12.4165 19.4239 21.0544
576 1 -1.1104 15.9994 1.20721 22.4751 18.7974
577 1 -1.1104 15.9994 3.90726 22.1465 18.1221
578 1 -1.1104 15.9994 1.01801 19.7446 21.1065
579 1 -1.1104 15.9994 3.95365 22.0203 20.8256
580 1 -1.1104 15.9994 6.61244 22.261 18.2341
581 1 -1.1104 15.9994 9.59215 22.2192 18.0979
582 1 -1.1104 15.9994 6.81833 22.211 20.9012
583 1 -1.1104 15.9994 9.57257 22.2357 21.1119
584 1 -1.1104 15.9994 12.5292 22.0628 18.2707
585 1 -1.1104 15.9994 12.3713 22.23 20.9968
586 1 -1.1104 15.9994 1.10057 -0.211743 23.8086
587 1 -1.1104 15.9994 4.25912 -0.398663 24.1412
588 1 -1.1104 15.9994 1.21562 -0.370924 26.551
589 1 -1.1104 15.9994 3.99767 -0.379032 26.8622
590 1 -1.1104 15.9994 1.08205 2.34623 23.9299
591 1 -1.1104 15.9994 4.00195 2.42697 23.9018
592 1 -1.1104 15.9994 1.00073 2.19967 26.926
593 1 -1.1104 15.9994 3.82893 2.44483 26.6839
594 1 -1.1104 15.9994 6.97067 -0.276661 23.7788
595 1 -1.1104 15.9994 9.63835 -0.290969 23.9358
596 1 -1.1104 15.9994 6.84743 -0.237122 26.6758
597 1 -1.1104 15.9994 9.63498 -0.373021 26.7514
598 1 -1.1104 15.9994 6.96124 2.42894 23.8816
599 1 -1.1104 15.9994 9.71756 2.78801 23.9823
600 1 -1.1104 15.9994 6.68431 2.62252 26.6162
601 1 -1.1104 15.9994 9.51845 2.43078 26.5941
602 1 -1.1104 15.9994 12.7013 -0.208755 23.8643
603 1 -1.1104 15.9994 12.4932 -0.220507 26.7025
604 1 -1.1104 15.9994 12.5098 2.67426 23.7259
605 1 -1.1104 15.9994 12.2882 2.73934 26.6687
606 1 -1.1104 15.9994 1.13361 5.24894 23.9644
607 1 -1.1104 15.9994 3.76304 5.22596 23.7367
608 1 -1.1104 15.9994 1.08674 5.23208 26.6694
609 1 -1.1104 15.9994 3.95784 5.23953 26.4559
610 1 -1.1104 15.9994 1.21728 7.97268 23.979
611 1 -1.1104 15.9994 4.10363 8.18927 23.8385
612 1 -1.1104 15.9994 1.21019 8.06934 26.7105
613 1 -1.1104 15.9994 4.07348 8.06388 26.6191
614 1 -1.1104 15.9994 6.69512 5.15611 23.8959
615 1 -1.1104 15.9994 9.44491 5.27163 23.8415
616 1 -1.1104 15.9994 6.76025 5.22241 26.6175
617 1 -1.1104 15.9994 9.76542 5.35614 26.6647
618 1 -1.1104 15.9994 6.84314 8.12946 24.0114
619 1 -1.1104 15.9994 9.70974 8.1491 23.9167
620 1 -1.1104 15.9994 6.86063 8.0668 26.6119
621 1 -1.1104 15.9994 9.68997 8.09131 26.6384
622 1 -1.1104 15.9994 12.311 5.33977 23.8042
623 1 -1.1104 15.9994 12.5178 5.39576 26.7138
624 1 -1.1104 15.9994 12.4557 8.18627 23.7345
625 1 -1.1104 15.9994 12.5716 8.1519 26.6293
626 1 -1.1104 15.9994 1.33786 10.7485 23.8571
627 1 -1.1104 15.9994 4.20856 11.0284 24.0617
628 1 -1.1104 15.9994 0.968125 10.9251 26.7617
629 1 -1.1104 15.9994 3.82518 10.77 26.8949
630 1 -1.1104 15.9994 1.1158 13.5848 23.9097
631 1 -1.1104 15.9994 3.92138 13.7155 23.7807
632 1 -1.1104 15.9994 1.30473 13.7045 26.641
633 1 -1.1104 15.9994 4.09249 13.6527 26.7582
634 1 -1.1104 15.9994 6.82499 10.9627 23.904
635 1 -1.1104 15.9994 9.57048 10.8703 23.6175
636 1 -1.1104 15.9994 6.7026 10.8597 26.6477
637 1 -1.1104 15.9994 9.5366 22.2911 26.6743