LAMMPS (29 Oct 2020)
OMP_NUM_THREADS environment is not set. Defaulting to 1 thread. (../comm.cpp:94)
  using 1 OpenMP thread(s) per MPI task
#---------------------------------------
#
# This script is used to calculate the thermal conuctivity of UO2 using Muller-Plathe method
# By Ziqiang Wang on 03/18/2022 on Jilin university
#
#---------------------------------------

variable     Nevery    equal   50
variable     T         equal   600

clear
OMP_NUM_THREADS environment is not set. Defaulting to 1 thread. (../comm.cpp:94)
  using 1 OpenMP thread(s) per MPI task
units          metal
boundary       p p p
atom_style     full

read_data Frenkel_0.25_relaxed.dat
Reading data file ...
  orthogonal box = (-0.10026525 -1.0569087 -0.10889795) to (27.994265 335.78491 28.002898)
  2 by 13 by 2 MPI processor grid
  reading atoms ...
  18000 atoms
Finding 1-2 1-3 1-4 neighbors ...
  special bond factors lj:    0.0      0.0      0.0     
  special bond factors coul:  0.0      0.0      0.0     
     0 = max # of 1-2 neighbors
     0 = max # of 1-3 neighbors
     0 = max # of 1-4 neighbors
     1 = max # of special neighbors
  special bonds CPU = 0.003 seconds
  read_data CPU = 0.045 seconds

set           type     1    charge     -1.1104
Setting atom values ...
  12000 settings made for charge
set           type     2    charge      2.2208
Setting atom values ...
  6000 settings made for charge

kspace_style    pppm   1.0e-05
pair_style      hybrid/overlay  coul/long  11.0  eam/alloy
pair_coeff      * * coul/long
pair_coeff      * * eam/alloy CeThUNpPuAmCmO.eam.alloy O Th
newton          on
neighbor        0.3 bin
neigh_modify    delay 0 check yes every 1

#The first equilation
velocity        all create $T 10002 mom yes rot yes dist gaussian
velocity        all create 600 10002 mom yes rot yes dist gaussian
fix             nvt  all  nvt  temp  $T $T  0.1
fix             nvt  all  nvt  temp  600 $T  0.1
fix             nvt  all  nvt  temp  600 600  0.1

run             100000
PPPM initialization ...
  using 12-bit tables for long-range coulomb (../kspace.cpp:328)
  G vector (1/distance) = 0.29878619
  grid = 40 240 40
  stencil order = 5
  estimated absolute RMS force accuracy = 0.00015806843
  estimated relative force accuracy = 1.0977245e-05
  using single precision MKL FFT
  3d grid and FFT values/proc = 15000 7600
Neighbor list info ...
  update every 1 steps, delay 0 steps, check yes
  max neighbors/atom: 2000, page size: 100000
  master list distance cutoff = 11.3
  ghost atom cutoff = 11.3
  binsize = 5.65, bins = 5 60 5
  2 neighbor lists, perpetual/occasional/extra = 2 0 0
  (1) pair coul/long, perpetual
      attributes: half, newton on
      pair build: half/bin/newton
      stencil: half/bin/3d/newton
      bin: standard
  (2) pair eam/alloy, perpetual, copy from (1)
      attributes: half, newton on
      pair build: copy
      stencil: none
      bin: none
Per MPI rank memory allocation (min/avg/max) = 8.159 | 8.184 | 8.200 Mbytes
Step Temp E_pair E_mol TotEng Press 
       0          600    -235126.3            0   -233730.37   -261.20563 
  100000    603.13038   -235150.12            0    -233746.9   -958.42933 
Loop time of 657.734 on 52 procs for 100000 steps with 18000 atoms

Performance: 13.136 ns/day, 1.827 hours/ns, 152.037 timesteps/s
99.8% CPU use with 52 MPI tasks x 1 OpenMP threads

MPI task timing breakdown:
Section |  min time  |  avg time  |  max time  |%varavg| %total
---------------------------------------------------------------
Pair    | 442.36     | 452.21     | 463.07     |  22.6 | 68.75
Bond    | 0.0070457  | 0.01018    | 0.014065   |   1.8 |  0.00
Kspace  | 136.52     | 148.14     | 159.16     |  46.5 | 22.52
Neigh   | 33.191     | 34.753     | 37.289     |  19.4 |  5.28
Comm    | 17.039     | 18.369     | 19.991     |  17.4 |  2.79
Output  | 6.0666e-05 | 6.5985e-05 | 0.00027774 |   0.0 |  0.00
Modify  | 2.1708     | 2.8447     | 4.6473     |  49.3 |  0.43
Other   |            | 1.411      |            |       |  0.21

Nlocal:        346.154 ave         369 max         330 min
Histogram: 3 8 7 10 7 4 3 7 1 2
Nghost:        4148.46 ave        4243 max        4055 min
Histogram: 3 6 6 6 4 11 4 2 4 6
Neighs:        69881.4 ave       75359 max       66525 min
Histogram: 3 10 10 9 5 5 6 2 1 1

Total # of neighbors = 3633832
Ave neighs/atom = 201.87956
Ave special neighs/atom = 0.0000000
Neighbor list builds = 16205
Dangerous builds = 0
unfix           nvt
reset_timestep  0

# the second run
fix             1 all nve

group           oxygen type 1
12000 atoms in group oxygen
fix             2 oxygen thermal/conductivity ${Nevery} y 20
fix             2 oxygen thermal/conductivity 50 y 20

compute         ke all ke/atom
variable        temp atom c_ke/1.5
compute         layers all chunk/atom bin/1d y lower 0.05 units reduced
fix             3      all ave/chunk  2000 50 100000 layers v_temp file profile_${T}K.mp
fix             3      all ave/chunk  2000 50 100000 layers v_temp file profile_600K.mp

variable        Tdiff    equal     f_3[11][3]-f_3[1][3]
variable        deltaT   equal     v_Tdiff*1.5/0.0001292

timestep        0.001
thermo_style    custom step f_2 temp v_Tdiff v_deltaT
thermo          100000

run             1500000
PPPM initialization ...
  using 12-bit tables for long-range coulomb (../kspace.cpp:328)
  G vector (1/distance) = 0.29878619
  grid = 40 240 40
  stencil order = 5
  estimated absolute RMS force accuracy = 0.00015806843
  estimated relative force accuracy = 1.0977245e-05
  using single precision MKL FFT
  3d grid and FFT values/proc = 15000 7600
Per MPI rank memory allocation (min/avg/max) = 8.409 | 8.434 | 8.451 Mbytes
Step f_2 Temp v_Tdiff v_deltaT 
       0            0    603.13038            0            0 
  100000    687.46881    607.45366  0.018569132     215.5859 
  200000    1358.3318    594.50267   0.02029581    235.63247 
  300000      2027.61     600.1207  0.020273344    235.37164 
  400000    2705.5505    601.16262  0.020002198    232.22366 
  500000    3381.7352     608.0279  0.020986127    243.64699 
  600000    4053.8112    602.16236  0.020779953    241.25333 
  700000    4726.2166    605.35152  0.020161594    234.07423 
  800000    5401.4611     599.7394  0.021002556    243.83773 
  900000    6078.7617    601.59598  0.020268885    235.31987 
 1000000    6755.8647    609.91787     0.020993    243.72677 
 1100000     7434.145    604.58113  0.020115086    233.53428 
 1200000    8105.7706     604.8007   0.02116797    245.75817 
 1300000    8780.8198     608.8112   0.02045461    237.47612 
 1400000    9456.7108    601.07777  0.020605292    239.22553 
 1500000    10128.406    608.45554  0.020413996    237.00459 
Loop time of 9817.29 on 52 procs for 1500000 steps with 18000 atoms

Performance: 13.201 ns/day, 1.818 hours/ns, 152.792 timesteps/s
99.8% CPU use with 52 MPI tasks x 1 OpenMP threads

MPI task timing breakdown:
Section |  min time  |  avg time  |  max time  |%varavg| %total
---------------------------------------------------------------
Pair    | 6545.7     | 6725.3     | 6929.7     | 108.8 | 68.50
Bond    | 0.1017     | 0.14924    | 0.20768    |   6.7 |  0.00
Kspace  | 2013.1     | 2233.6     | 2429.3     | 199.4 | 22.75
Neigh   | 512.81     | 535.47     | 577.21     |  68.2 |  5.45
Comm    | 253.74     | 274.89     | 303.42     |  69.8 |  2.80
Output  | 0.0017478  | 0.0018316  | 0.0036181  |   0.6 |  0.00
Modify  | 8.2194     | 8.9615     | 9.8627     |  12.6 |  0.09
Other   |            | 38.87      |            |       |  0.40

Nlocal:        346.154 ave         370 max         328 min
Histogram: 3 2 6 12 9 11 6 1 1 1
Nghost:        4146.60 ave        4240 max        4047 min
Histogram: 5 7 0 5 6 6 5 7 8 3
Neighs:        69884.1 ave       74354 max       66040 min
Histogram: 2 4 3 11 12 9 5 2 2 2

Total # of neighbors = 3633975
Ave neighs/atom = 201.88750
Ave special neighs/atom = 0.0000000
Neighbor list builds = 249675
Dangerous builds = 0

Total wall time: 2:54:35
