ITEM: TIMESTEP
50000
ITEM: NUMBER OF ATOMS
18000
ITEM: BOX BOUNDS xy xz yz pp pp pp
-1.9181969566529727e-01 2.8085819695665048e+01 0.0000000000000000e+00
-2.0834210121960015e+00 3.3681142101219081e+02 0.0000000000000000e+00
-1.8085017304995202e-01 2.8074850173049796e+01 0.0000000000000000e+00
ITEM: ATOMS id type x y z
1 1 1.1566 -0.845195 1.18443
2 1 4.18565 -0.825636 1.12847
3 1 4.25054 -0.924317 3.92159
4 1 1.39089 -0.759762 3.96424
5 1 1.24819 1.97889 1.08502
6 1 3.88023 1.96084 1.06276
7 1 4.03106 2.09386 3.91603
8 1 1.02989 2.12563 3.98653
9 1 6.92327 -0.585849 1.02528
10 1 9.62681 -0.614649 1.04317
11 1 9.67471 -0.922385 4.18844
12 1 6.86422 -0.753581 3.87421
13 1 6.95953 2.0646 1.22939
14 1 9.78085 2.19418 1.05754
15 1 9.43967 1.88018 3.85436
16 1 6.74386 2.11547 4.14822
17 1 12.3252 -0.788165 0.922081
18 1 12.5648 -0.643969 3.76003
19 1 12.7427 2.10116 1.05488
20 1 12.3314 1.90235 3.99222
21 1 1.393 4.95311 1.23811
22 1 4.05782 4.96664 1.06414
23 1 3.98911 4.75296 3.91917
24 1 1.03806 4.8278 4.11082
25 1 1.26919 7.67881 1.31629
26 1 4.27396 7.81272 1.3073
27 1 4.02837 7.67838 3.91462
28 1 1.2086 7.57276 4.01899
29 1 6.95565 4.82736 1.11201
30 1 9.50809 4.92412 1.12657
31 1 9.57391 4.70574 4.25898
32 1 6.95283 4.97811 4.09716
33 1 6.94868 7.77408 1.22875
34 1 9.54769 8.02938 1.07147
35 1 9.55794 7.62489 3.83611
36 1 6.87604 7.85956 4.11599
37 1 12.4745 4.82939 1.21411
38 1 12.4045 4.86459 3.93307
39 1 12.416 7.50794 1.06941
40 1 12.347 7.72227 4.02293
41 1 1.02758 10.7358 1.14002
42 1 3.94989 10.6035 1.06553
43 1 3.69609 10.5347 3.64363
44 1 0.880248 10.5169 4.16564
45 1 1.08564 13.6818 1.19624
46 1 4.05141 13.5584 1.09327
47 1 3.86049 13.5649 3.78517
48 1 1.09506 13.3674 3.90324
49 1 6.80332 10.8343 1.03662
50 1 9.57883 10.5445 1.39818
51 1 9.62705 10.4926 4.26716
52 1 6.86572 10.4391 3.85674
53 1 6.83708 13.5747 1.16918
54 1 9.71262 13.414 1.39718
55 1 9.55596 13.6097 4.1519
56 1 6.80025 13.2645 3.8535
57 1 12.3426 10.3665 1.11088
58 1 12.2805 10.4108 3.93502
59 1 12.4 13.3723 1.27981
60 1 12.2932 13.1889 4.02174
61 1 1.35647 16.4774 1.35015
62 1 3.98002 16.2191 1.26899
63 1 4.00754 16.502 4.39003
64 1 1.1436 16.218 4.17705
65 1 1.12637 19.36 1.18758
66 1 4.09524 19.2179 1.39726
67 1 4.01931 19.3526 4.2285
68 1 1.01145 18.8879 3.90054
69 1 6.71315 16.5258 1.07725
70 1 9.46334 16.2156 1.52572
71 1 9.69697 16.4254 3.99863
72 1 6.66537 15.9837 3.98942
73 1 6.78726 19.4131 1.13859
74 1 9.73913 19.0814 1.08267
75 1 9.57273 19.3821 4.0103
76 1 6.9241 18.9728 3.89149
77 1 12.5137 16.2584 1.10089
78 1 12.364 18.8489 4.46157
79 1 12.4128 21.8519 1.31984
80 1 12.4042 19.1934 1.16998
81 1 1.21053 22.0399 1.39379
82 1 3.9794 21.9333 1.2096
83 1 3.64512 22.0365 4.13165
84 1 0.924655 22.0537 4.13277
85 1 6.8503 22.0909 1.32672
86 1 9.54279 21.892 1.22921
87 1 9.33864 21.9637 4.20353
88 1 6.50092 22.0289 4.23614
15111 2 13.8913 11.8478 11.1123
90 1 12.3347 21.7666 4.03385
91 1 1.47386 -0.887954 6.82698
92 1 4.38359 -0.723372 6.90227
93 1 4.07663 2.1304 9.71998
94 1 1.0673 -0.764974 9.65027
95 1 1.24902 1.86587 6.64492
96 1 3.90137 2.31631 6.69556
97 1 1.41873 4.82031 9.81652
98 1 1.33133 2.04967 9.44242
99 1 7.11058 -0.902633 6.79122
100 1 9.82884 -0.7489 6.89623
101 1 9.74304 2.13021 9.49857
102 1 6.89214 2.2226 9.71438
103 1 6.61516 2.00563 6.76094
104 1 9.58582 1.99994 6.8885
105 1 9.55148 4.93422 9.66946
106 1 4.08038 5.1354 9.70082
107 1 12.6871 -0.816495 6.70365
108 1 12.5284 2.0841 9.60145
109 1 12.5266 2.03159 6.77514
110 1 12.5731 4.66878 9.81368
111 1 1.17473 4.81033 6.93816
112 1 3.97945 5.16706 6.88878
113 1 6.80094 4.96271 9.71273
114 1 1.12578 7.6606 9.80077
115 1 1.39067 7.58222 6.80568
116 1 6.72397 8.14707 6.67753
117 1 3.91535 7.95097 9.47459
118 1 1.30199 10.6294 9.85172
119 1 6.58714 4.9575 6.81074
120 1 9.49159 4.91661 7.08291
121 1 12.2306 7.58376 9.51432
122 1 6.62077 7.86466 9.3724
123 1 6.93722 10.643 7.06024
124 1 9.42953 7.71184 6.72883
125 1 9.59061 7.69115 9.73231
126 2 5.30181 9.46573 8.2732
127 1 12.2336 4.86055 6.82448
12130 2 11.2601 0.631935 13.9046
129 1 12.1642 7.72182 6.75145
208 1 12.6488 13.4087 12.4507
131 1 1.19429 10.5438 6.85704
132 1 5.1309 11.5789 5.4633
133 1 4.06493 10.5463 9.95799
134 1 3.70533 10.7509 7.3134
135 1 1.33889 13.4131 6.88216
136 1 3.98801 13.7105 6.81513
137 1 4.16594 13.4255 9.64031
138 1 1.30072 13.5493 9.61257
139 1 9.64928 10.5565 9.49536
140 1 9.58033 10.4663 6.83621
141 1 12.3236 13.0137 9.74821
142 1 12.5219 10.4627 9.4275
143 1 6.82643 13.4848 6.57925
144 1 9.60409 13.5961 6.98431
145 1 9.75104 13.3357 9.8569
146 1 6.62115 13.44 9.79257
147 1 12.2669 10.5591 6.72501
12135 2 11.1454 6.41031 13.8612
149 1 12.4776 13.2869 6.88999
150 1 12.2747 16.2142 6.87349
151 1 0.964672 16.0294 6.96502
152 1 3.60543 16.4846 7.10706
153 1 3.98088 15.8836 9.77017
154 1 1.26596 16.3177 9.67088
155 1 1.04856 19.1429 6.72898
156 1 4.03868 19.3239 6.90948
157 1 3.97405 19.1835 9.68494
158 1 1.23396 19.1795 9.81046
159 1 6.58651 16.0402 7.03905
160 1 9.49409 16.2545 6.81796
161 1 9.5467 16.1375 9.55088
162 1 6.66934 16.2342 9.79692
163 1 6.77596 19.2056 7.02739
164 1 9.51892 18.9298 6.78784
165 1 9.46659 18.8618 9.81846
166 1 6.81048 18.8762 9.83158
167 1 12.3408 19.2392 6.91394
15131 2 13.7632 3.6083 13.8839
169 1 12.4363 18.8245 9.67001
15052 2 13.769 -2.01549 8.19001
171 1 1.30462 21.8916 6.97396
172 1 4.0479 21.87 7.10141
173 1 4.17506 22.0304 9.79352
174 1 1.19276 21.8845 9.91825
175 1 6.71599 21.9888 6.91905
176 1 9.66923 21.8756 6.96162
177 1 9.64997 21.5495 9.62384
178 1 6.82363 21.7204 9.69053
179 1 12.2591 21.9661 6.89634
180 1 12.3319 21.7573 10.0879
181 1 0.928486 -0.521605 12.4008
182 1 3.81735 -0.562357 12.5625
183 1 1.24905 2.18516 12.3321
184 1 3.86384 2.265 12.5353
185 1 6.75497 4.93809 12.3553
186 1 9.68012 -0.736223 12.6976
15032 2 13.7367 14.8341 2.71188
188 1 9.42386 2.21247 12.4989
189 1 12.5059 -0.670154 12.5385
190 1 12.3867 2.06965 12.44
191 1 1.13172 4.72871 12.7785
192 1 3.82013 4.91915 12.4108
193 1 1.29966 7.99657 12.4454
194 1 4.2211 8.14507 6.81392
195 1 6.87282 10.3972 9.94054
196 1 9.5786 5.06562 12.4836
197 1 6.80074 10.5517 12.9283
198 1 9.7138 7.84858 12.6535
199 1 12.3075 4.8495 12.542
200 1 12.5847 7.7787 12.4992
201 1 1.42896 10.568 12.7933
202 1 4.03168 10.8147 12.7041
203 1 1.22344 13.3247 12.5096
204 1 4.05244 13.3727 12.7916
205 1 6.83612 13.1817 12.5073
206 1 9.60345 10.7445 12.6206
207 1 9.8012 13.4907 12.8079
12146 2 2.63752 20.5217 13.9079
209 1 12.4124 10.6119 12.5049
210 1 12.2953 16.1588 9.74387
211 1 1.3568 15.9989 12.4253
212 1 3.86491 16.4432 12.7085
213 1 1.15859 19.0665 12.5438
214 1 4.07675 19.1676 12.655
215 1 6.86976 15.9239 12.6881
216 1 9.57604 16.3348 12.7367
217 1 6.83853 18.8107 12.5685
218 1 9.90696 18.9966 12.6847
219 1 12.6867 16.1456 12.535
220 1 12.8823 18.9834 12.5578
221 1 1.01182 21.7529 12.7907
222 1 4.12948 21.8211 12.4752
223 1 6.98911 21.8906 12.6061
224 1 9.79343 21.9055 12.4091
225 1 12.4329 21.5797 12.6889
12125 2 11.0208 20.2308 11.2877
12110 2 11.0361 3.39182 10.9554
12129 2 5.22427 0.804705 13.8036
12124 2 8.43151 23.1929 11.1126
12133 2 8.22585 3.64061 13.8412
12109 2 8.29288 6.29049 11.0276
15092 2 13.5581 20.4762 8.39114
12008 2 5.61885 0.730099 2.64736
15106 2 13.9025 6.34935 10.8927
12010 2 11.0277 0.558225 2.47535
12123 2 5.53788 20.42 11.0351
12108 2 5.39363 3.58352 11.0707
12013 2 2.54096 3.33657 2.51594
12122 2 2.69258 23.2222 11.2065
12107 2 2.72191 6.47539 10.9721
12112 2 2.72908 11.9712 11.1964
12017 2 8.26144 3.35579 2.56312
12018 2 5.54299 6.27637 2.47833
12104 2 8.28466 0.681215 11.3496
12020 2 11.1403 6.33612 2.54464
15101 2 13.7948 0.860696 10.8762
12116 2 -0.0955098 14.8151 11.0426
12023 2 2.52886 9.01308 2.66302
12120 2 11.2493 14.6682 11.1535
12102 2 2.5539 0.743677 11.116
12113 2 5.50061 9.49777 11.5394
12027 2 8.29091 9.12244 2.5714
12028 2 5.33252 12.1 2.50918
12100 2 11.4109 23.1491 8.41353
12030 2 11.045 11.8618 2.54876
12099 2 10.9703 20.3808 5.45065
12098 2 5.49878 23.1628 8.34577
12033 2 2.54154 14.8805 2.49848
15061 2 13.7275 6.33287 5.36728
12097 2 8.15822 20.5149 8.24544
12096 2 8.15112 23.3513 5.66221
12037 2 8.03372 14.7458 2.61637
12038 2 5.37312 17.7777 2.75519
12095 2 5.26366 20.7024 5.48201
12040 2 11.2007 17.6461 2.69368
15031 2 13.9042 17.5901 -0.156211
12093 2 2.5313 20.6316 8.39407
12043 2 2.46115 20.5951 2.91518
12088 2 5.31372 17.792 8.37697
12092 2 2.53455 23.5039 5.45419
12022 2 2.53126 12.0884 -0.150981
12047 2 8.09397 20.5019 2.62642
12048 2 5.46074 23.4807 2.65034
12090 2 10.8692 17.5876 8.22014
12050 2 10.9758 23.145 2.79178
12119 2 8.16937 17.438 11.3034
12052 2 2.84629 0.630052 5.52391
12087 2 8.1103 14.8163 8.43828
12118 2 5.41144 14.884 11.2807
12086 2 8.12393 17.4875 5.43954
12056 2 8.27233 0.452972 5.37739
5717 1 4.06957 -0.737334 9.78911
12058 2 5.60005 0.732489 8.49414
5725 1 9.52425 -0.689064 9.73288
12060 2 11.1248 0.636102 8.12196
12117 2 2.55875 17.6445 11.2128
12062 2 2.60728 6.35403 5.31358
12063 2 2.74548 3.57322 8.17744
12089 2 10.943 14.9964 5.48614
12065 2 5.37674 3.47754 5.49801
12066 2 8.27545 6.31686 5.2239
12067 2 8.0833 3.62543 8.26151
12068 2 5.3536 6.25322 8.40871
12069 2 11.0939 3.378 5.44424
12070 2 10.8882 6.272 8.32184
12115 2 11.0479 9.1298 10.9697
12072 2 2.62116 11.9476 5.23508
12073 2 2.23032 9.26013 8.43789
12114 2 8.36145 12.0586 11.0942
12075 2 5.46811 9.23216 4.99965
12076 2 8.22376 11.8751 5.58143
12077 2 8.41701 9.05521 8.24069
12078 2 5.28996 12.4728 7.96648
12079 2 11.0429 9.18155 5.41468
12080 2 10.9794 11.9456 8.20603
15022 2 13.8261 8.98265 2.52399
12082 2 2.36455 17.7897 5.5234
12083 2 2.51375 14.9392 8.21786
187 1 6.87747 7.76804 12.3107
12085 2 5.30428 14.8722 5.56342
12131 2 2.45675 3.38475 13.8551
231 1 6.6774 2.25611 12.4354
5772 1 6.70652 -0.586841 12.8025
15041 2 13.7769 23.421 -0.139086
5730 1 12.4639 -0.686327 9.74359
6133 1 12.4412 16.1329 3.88259
5726 1 6.81977 -0.610018 9.91832
243 1 4.14083 7.85842 12.4496
12054 2 -0.188973 0.613368 8.15305
12074 2 -0.182521 12.1341 8.30477
15042 2 13.7539 20.3108 2.64567
15072 2 13.8319 9.00239 8.11019
15062 2 13.8268 3.61016 8.13704
12049 2 10.9851 20.5051 -0.149653
15071 2 13.7881 11.7336 5.46568
12134 2 5.32898 6.17416 13.7706
15012 2 13.7924 3.30121 2.6084
15051 2 13.9191 0.749199 5.42575
15082 2 13.7716 14.6746 8.20284
12045 2 5.23504 20.6742 -0.0386394
12111 2 -0.121817 9.23351 11.105
12016 2 8.14203 6.47479 -0.16884
12026 2 8.29504 12.0686 -0.0986057
12041 2 -0.195697 20.4731 -0.0885281
12035 2 5.55396 14.9196 -0.144742
12039 2 11.1161 14.6785 -0.115552
226 1 3.65786 -0.712507 15.1829
227 1 0.825305 -0.762137 15.3639
228 1 3.90239 1.95228 15.461
229 1 1.13167 2.04161 15.2469
230 1 9.61186 -0.682717 15.3559
12174 2 -0.190029 12.0202 19.7425
232 1 9.64799 2.14354 15.2387
233 1 6.69754 4.77755 15.1937
234 1 12.4928 -0.672159 15.4278
235 1 12.4194 2.08195 15.2816
236 1 3.96175 4.95105 15.0664
237 1 0.914007 4.86115 15.3509
238 1 4.09396 7.6983 15.3993
239 1 1.34246 7.41724 15.3693
240 1 9.54487 4.9347 15.2833
241 1 6.83147 7.68599 15.0855
242 1 9.60406 7.89797 15.3816
12025 2 5.68036 9.21593 28.0254
244 1 12.1446 5.00602 15.1798
245 1 12.4958 7.83887 15.3386
246 1 4.05613 10.6626 15.6209
247 1 1.17117 10.2817 15.6528
248 1 4.01521 13.45 15.7966
249 1 1.32211 13.0526 15.5031
250 1 9.50586 10.5893 15.479
251 1 6.87215 10.6484 15.5043
252 1 9.61511 13.2316 15.5589
253 1 6.72572 13.5162 15.5051
254 1 12.4138 10.5537 15.3238
255 1 12.6128 13.2727 15.2436
256 1 4.02331 16.3829 15.5033
257 1 1.23749 15.9279 15.3393
258 1 4.15893 19.082 15.4053
259 1 1.32505 18.7956 15.2497
260 1 9.54154 16.0717 15.3881
261 1 6.75313 16.1536 15.5766
262 1 9.75883 18.8123 15.3115
263 1 6.88962 19.0461 15.1681
264 1 12.167 15.8359 15.1163
265 1 12.4984 18.8537 15.6483
266 1 3.98377 21.8652 15.4233
267 1 1.19873 21.8381 15.4521
268 1 10.0313 21.5737 15.1325
269 1 7.11553 21.6581 15.222
270 1 12.6289 21.9718 15.5435
271 1 0.919414 -0.597277 18.2548
272 1 3.85342 -0.787948 18.0616
273 1 3.79543 -0.882437 20.9394
274 1 0.752797 -0.679925 21.0585
275 1 1.13672 2.04793 17.8917
276 1 3.9749 2.18851 18.3491
277 1 3.75601 2.15376 21.1536
278 1 0.785114 2.27619 20.8241
279 1 6.63892 -0.651451 18.2932
280 1 9.67336 -0.539969 18.1119
281 1 9.5665 -0.813054 20.9146
282 1 6.74033 2.08659 18.1361
283 1 6.84527 2.03426 15.2502
284 1 9.70596 2.34953 18.0331
285 1 9.49663 2.10548 20.6695
286 1 6.88094 2.02905 20.9732
287 1 12.3843 -0.565968 17.9694
288 1 12.4798 -0.66576 20.9421
289 1 12.2491 2.17274 18.0661
290 1 12.4026 2.03332 20.7808
291 1 1.14886 5.01554 18.1957
292 1 4.03983 4.85507 18.0277
293 1 3.82107 4.92459 20.6891
294 1 1.14949 4.95065 20.9452
295 1 1.11912 7.89601 18.1211
296 1 3.99564 7.5255 18.0602
297 1 3.86873 7.61407 21.17
298 1 1.15986 7.68947 20.8752
299 1 6.95024 5.30208 18.0255
300 1 9.80132 4.95186 18.1204
301 1 9.5519 4.93444 20.7609
302 1 6.66528 4.90578 20.8339
303 1 6.84826 7.80998 17.8218
304 1 9.84026 7.96242 18.1506
305 1 9.57223 7.59681 21.1243
306 1 6.80146 7.64538 20.7765
307 1 12.5552 4.96784 17.9836
308 1 12.366 5.03298 21.1286
309 1 12.4346 7.95436 18.0464
310 1 12.4925 7.76321 21.0023
311 1 1.26671 10.6343 18.2114
312 1 4.07399 10.5635 18.3521
313 1 3.97389 10.4622 21.0669
314 1 1.30369 10.7618 21.1062
315 1 1.21842 13.4667 18.2938
316 1 3.98317 13.3009 18.5861
317 1 4.06318 13.3923 21.147
318 1 1.03949 13.3088 21.0696
319 1 6.87186 10.5704 18.3068
320 1 9.99679 10.7441 18.2822
321 1 9.63198 10.1675 21.1405
322 1 6.78544 10.4208 21.0726
323 1 6.7382 13.4616 18.128
324 1 9.54526 13.5045 18.2306
325 1 9.7397 13.1632 21.1522
326 1 6.92948 13.3302 20.8964
327 1 12.6512 10.772 18.2036
328 1 12.3106 10.4091 21.1402
329 1 12.4117 13.4196 18.2306
330 1 12.7022 13.1397 20.8875
331 1 1.21103 16.3816 18.2294
332 1 4.01055 15.9674 18.3941
333 1 4.15736 16.2995 21.2061
334 1 1.29984 15.8682 21.5217
335 1 1.19562 19.1829 18.2049
336 1 4.18722 19.0583 18.1933
337 1 3.95616 19.0542 20.902
338 1 1.08422 18.7435 20.942
339 1 6.86204 16.3199 18.2247
340 1 9.58605 16.2723 18.2572
341 1 9.92375 16.2111 21.1863
342 1 6.93063 16.3529 20.9027
343 1 6.99978 19.0493 17.9505
344 1 9.81461 19.0141 18.237
345 1 9.78378 18.9479 21.0208
346 1 6.92868 18.9631 20.8054
347 1 12.7749 16.1397 17.938
348 1 12.514 16.004 20.8865
349 1 12.6161 18.9591 18.3069
350 1 12.4845 18.827 21.0381
351 1 1.27245 21.947 18.2064
352 1 4.12457 21.8829 18.1082
353 1 3.87637 21.668 21.2269
354 1 1.18986 21.7857 20.9962
355 1 7.08738 21.7041 18.1828
356 1 9.76542 21.923 18.1446
357 1 9.69749 21.8532 20.8326
358 1 6.75782 21.8189 20.8185
359 1 12.474 21.7163 18.287
360 1 12.5984 21.8505 21.0064
361 1 1.07523 -0.83329 23.7141
362 1 4.25624 -0.59189 23.6428
363 1 3.9263 -0.704759 26.4711
364 1 1.18643 -0.861381 26.7749
365 1 1.11545 2.01183 23.5981
366 1 3.92863 2.14777 23.7597
367 1 3.89648 2.13849 26.5592
368 1 0.970763 1.95279 26.5975
369 1 6.65978 2.03394 23.798
370 1 9.74014 -0.760283 23.8845
371 1 9.71515 -0.698556 26.6798
372 1 6.66168 -0.905208 26.5288
373 1 6.62004 4.68136 23.7098
374 1 9.35969 2.01878 23.5103
375 1 9.62248 2.0806 26.3119
376 1 6.66117 1.88942 26.549
377 1 12.521 -0.722904 23.6209
378 1 12.3735 -0.751601 26.4905
379 1 12.3816 2.02158 23.7742
380 1 12.6596 2.07242 26.5285
381 1 1.30527 4.7514 23.9647
382 1 3.6888 7.68998 23.9653
383 1 4.05293 5.01141 26.5312
384 1 1.13144 4.81015 26.7636
385 1 1.14461 10.7228 23.9478
386 1 0.944853 7.64367 23.6328
387 1 4.05627 7.68223 26.6249
388 1 1.18495 7.88581 26.7357
389 1 3.87812 5.05221 23.5706
390 1 9.632 4.78481 23.8872
391 1 9.46626 4.90643 26.5786
392 1 6.77329 4.90989 26.7016
393 1 6.65815 7.64302 23.75
394 1 9.37882 7.70467 23.7945
395 1 9.75579 7.98859 26.646
396 1 6.8491 7.86308 26.4198
397 1 12.5831 4.94197 23.8904
398 1 12.3551 4.80554 26.8256
399 1 12.3217 7.64194 23.8206
400 1 12.3783 7.94965 26.7344
401 1 1.2084 13.4306 23.6875
402 1 3.93574 10.5404 24.1635
403 1 4.0242 10.584 26.8159
404 1 1.19984 10.7475 26.6603
405 1 1.29908 16.0079 24.0803
406 1 3.99093 13.1999 24.1548
407 1 3.97469 13.4534 26.7544
408 1 1.04323 13.3657 26.7054
409 1 6.64167 10.5254 23.7333
410 1 9.72417 10.4577 23.881
411 1 9.83035 10.928 26.8925
412 1 6.8987 10.4447 26.6178
413 1 6.82544 13.3101 23.6531
414 1 9.63154 13.38 23.9299
415 1 9.70104 13.4897 26.7176
416 1 6.84913 13.4228 26.5912
417 1 12.4963 10.4812 23.8512
418 1 12.7141 10.6 26.7071
419 1 12.6124 13.1922 23.8588
420 1 12.7161 13.2223 26.5782
421 1 1.37246 16.2604 26.9303
422 1 4.17729 16.2191 23.9674
423 1 3.97888 16.404 26.7252
424 1 1.18988 19.0771 26.5084
425 1 1.52026 18.9941 23.8374
426 1 4.22141 18.9157 23.6327
427 1 3.95239 19.2604 26.7846
428 1 1.28445 22.0545 26.7855
429 1 6.84075 16.0248 23.8938
430 1 9.81659 16.1082 23.9949
431 1 9.59932 16.2364 27.0218
432 1 7.01426 16.2428 26.7057
433 1 6.92162 19.1631 23.8651
434 1 9.66033 18.8589 24.0153
435 1 9.65561 19.0429 26.6487
436 1 6.97374 19.3868 26.7201
437 1 12.7079 15.9079 23.8025
438 1 12.6837 15.9969 26.552
439 1 12.392 18.7908 24.1051
440 1 12.3601 18.9987 26.8156
441 1 1.26485 22.0194 24.0433
442 1 4.22007 21.571 23.7844
443 1 4.14441 21.9299 26.5707
12223 2 2.62863 9.39505 25.4216
445 1 6.96828 22.0216 23.7829
446 1 9.8154 21.8439 23.5657
447 1 9.73893 21.9535 26.4463
448 1 6.82164 22.1607 26.7124
449 1 12.6466 21.8406 23.9176
450 1 12.434 22.0707 26.7597
5993 1 6.89072 -0.819109 23.6142
12250 2 11.2568 23.2623 25.2707
15221 2 13.7741 11.7882 22.3944
12143 2 8.10685 14.7653 14.0499
12222 2 2.66038 12.009 22.8028
5906 1 6.77305 -0.709209 20.8998
12249 2 11.1856 20.2725 22.4079
12234 2 -0.149955 17.5706 25.1974
12150 2 11.3842 23.0534 14.0971
15231 2 13.7372 17.5571 22.6413
12236 2 8.27602 17.5427 22.4422
12248 2 5.63211 23.2651 25.1793
12042 2 2.52644 23.4406 28.0397
12159 2 11.0253 -1.96265 16.9118
15191 2 13.833 23.3315 16.8943
12046 2 8.32121 23.3858 28.0023
12015 2 5.41403 3.46455 27.951
12229 2 11.0221 8.9893 22.5196
12225 2 5.56344 9.04557 22.2643
12012 2 2.46179 6.26506 27.91
12226 2 8.16999 11.7557 22.4164
12228 2 5.389 11.8564 25.4465
12140 2 10.9746 11.9077 14.0822
12230 2 11.1253 11.795 25.356
12209 2 11.0277 -2.08968 22.3994
12247 2 8.30379 20.5386 25.2674
12152 2 2.43706 0.53544 16.7314
12128 2 8.30222 -1.99751 14.1853
12246 2 8.36345 23.2084 22.5015
12148 2 8.4082 20.3148 13.9734
12156 2 8.29992 0.811055 16.6778
12232 2 2.66836 17.513 22.6235
12158 2 5.26027 0.637839 19.6427
12233 2 2.61295 14.6593 25.4256
12160 2 11.0181 0.831931 19.331
12245 2 5.43931 20.2827 22.326
12162 2 2.64448 6.20477 16.7041
12163 2 2.33943 3.49078 19.6042
12136 2 2.65502 9.13722 14.1027
12165 2 5.41812 3.53587 16.6209
12166 2 8.29027 6.11219 16.5499
12167 2 8.07273 3.43179 19.6705
12168 2 5.2269 6.17795 19.481
12169 2 11.1063 3.72341 16.7572
12170 2 11.1746 6.36025 19.428
12243 2 2.60051 20.6839 25.2987
12172 2 2.60313 11.9223 17.0942
12173 2 2.62261 9.20612 19.7833
12242 2 2.62702 23.1975 22.5901
12175 2 5.46694 9.15104 16.739
12176 2 8.22535 11.8776 17.0087
12177 2 8.21847 8.80222 19.5643
12178 2 5.44519 11.9937 19.5972
12179 2 11.0555 9.27515 16.8443
12180 2 11.0952 12.0501 19.6812
15162 2 13.6559 3.46935 19.3362
12182 2 2.75029 17.7429 16.613
12183 2 2.35826 14.682 19.7701
12227 2 8.1339 9.0702 25.0473
12185 2 5.39845 14.8702 16.9406
12186 2 8.26703 17.5563 16.7101
12187 2 8.20275 14.7568 19.5094
12188 2 5.39983 17.6602 19.6874
12189 2 11.0643 14.8872 16.7931
12190 2 11.0647 17.4217 19.6157
15242 2 13.7487 20.3048 25.4695
12192 2 2.59303 23.245 16.8976
12193 2 2.79667 20.3295 19.5478
12235 2 5.57598 14.6862 22.2546
12195 2 5.51745 20.4528 16.6284
12196 2 8.3053 23.2128 16.8766
12197 2 8.26077 20.4706 19.509
12198 2 5.38325 23.1339 19.631
12199 2 11.1938 20.2382 16.7769
12200 2 11.1512 23.2129 19.6025
12240 2 10.8907 17.4907 25.4574
12202 2 2.45553 0.399235 22.4057
12002 2 2.58029 0.501858 27.8953
12239 2 11.2244 14.5464 22.4242
15211 2 13.8683 6.26798 22.6652
12206 2 8.24544 0.568874 22.1966
12141 2 2.50256 14.6837 13.9726
12208 2 5.23287 0.746159 25.0665
5818 1 6.98214 -0.778322 15.6607
12210 2 11.1345 0.60414 25.2827
12238 2 5.39764 17.6465 25.2415
12212 2 2.34721 6.27753 22.2975
12213 2 2.52757 3.47774 25.1982
12237 2 8.21355 14.7724 25.311
12215 2 5.20245 3.49645 22.2231
12216 2 8.17117 6.18263 22.2942
12217 2 7.92426 3.49838 25.1882
12218 2 5.1461 6.39524 25.1323
12219 2 11.0599 3.44807 22.2415
12220 2 11.0282 6.35021 25.4359
12244 2 -0.0880088 23.2982 25.3412
12006 2 8.20104 0.510099 27.6846
15021 2 13.8455 12.0187 28.0621
15011 2 13.8918 6.37669 28.0079
12145 2 11.2213 17.6623 13.9713
15171 2 13.867 12.09 16.8787
12019 2 10.981 3.56863 28.0255
12221 2 -0.176566 9.05984 22.4081
12144 2 5.48161 17.6744 14.0458
12164 2 -0.142824 6.30961 19.5489
12139 2 5.29118 12.0152 14.3367
15201 2 13.8253 0.687535 22.2507
12241 2 -0.151771 20.369 22.6261
15192 2 13.9277 20.3926 19.7773
12171 2 -0.172706 9.08931 16.8041
12031 2 -0.134596 14.9465 28.008
12138 2 8.35364 9.20495 14.0168
12149 2 5.55384 23.1902 13.9509
12021 2 -0.133226 9.15392 28.0313
12032 2 2.57158 17.8051 27.9863
12029 2 10.9992 9.2592 28.0528
12036 2 8.22278 17.8092 28.0661
12011 2 -0.173814 3.36157 28.0476
451 1 1.07025 24.7108 1.33562
452 1 4.00396 24.8607 1.38775
453 1 3.98696 24.9443 4.14402
454 1 1.20867 24.7295 4.15556
455 1 6.82828 24.7303 1.46736
456 1 9.87805 24.7098 1.39902
457 1 9.58549 24.6966 4.10462
458 1 6.85451 24.8112 4.19754
459 1 12.439 27.6757 1.49377
12256 2 8.33164 28.8661 -0.152863
461 1 1.047 27.6111 1.15271
462 1 3.985 27.6889 1.24193
463 1 3.84194 27.5859 4.09413
464 1 1.15277 27.5801 4.25203
465 1 1.24637 30.5583 1.2607
466 1 4.07354 30.4559 1.34177
467 1 4.14235 30.3947 4.02245
468 1 1.56134 30.1956 4.33468
469 1 6.73907 27.5215 1.43085
470 1 9.53467 27.6455 1.5575
471 1 9.66043 27.4601 4.40336
472 1 6.75453 27.6531 4.107
473 1 6.79563 30.1627 1.23906
474 1 9.82413 30.5865 1.34982
475 1 9.7806 30.265 3.8831
476 1 7.21744 30.4362 4.46089
477 1 12.6622 30.5337 1.39089
478 1 12.633 27.4955 4.23233
479 2 11.1933 31.7417 2.84292
480 1 12.6634 30.6775 4.44419
481 1 0.989342 33.3681 1.28031
482 1 6.72737 32.939 1.09898
483 1 3.90734 33.199 4.21027
484 1 1.18406 33.2186 4.08858
12262 2 5.31666 34.6603 0.220667
486 1 1.10881 36.0942 1.41484
487 1 3.77544 36.1923 4.38946
488 1 1.10224 36.0586 4.18698
489 1 6.79004 35.6402 1.45191
490 1 9.63571 33.1698 1.54335
491 1 9.95901 32.9543 4.39523
492 1 6.725 33.1462 3.95182
493 1 4.1834 36.2437 1.34526
494 1 9.56086 36.0077 1.67455
495 1 9.72455 35.9867 4.43539
496 1 6.87675 35.8671 4.25504
497 1 12.3069 33.1361 1.61969
498 1 12.4372 33.471 4.26599
499 1 12.5315 35.9705 1.38948
500 1 12.6713 36.2021 4.38539
501 1 1.21211 38.7924 1.47823
502 1 4.1341 38.9441 1.48656
503 1 3.91547 38.8835 4.22506
504 1 1.20718 38.9914 4.33184
505 1 1.17253 41.645 1.5429
506 1 4.06456 41.7242 1.40912
507 1 4.07524 41.5145 4.17691
508 1 1.0757 41.7118 4.28964
509 1 6.78486 38.774 1.34614
510 1 9.84689 38.9382 1.3869
511 1 9.49148 38.7992 3.98362
512 1 6.68056 38.7067 4.09642
513 1 6.75241 41.5147 1.15652
514 1 9.74229 41.6937 1.69112
515 1 9.44382 41.774 4.51513
516 1 6.83581 41.5739 3.98933
517 1 12.6046 38.8059 1.65103
518 1 12.3257 38.7943 4.26697
519 1 12.4952 41.7917 1.72061
520 1 12.5144 41.6882 4.53397
521 1 1.06507 44.7316 1.35608
522 1 3.94613 44.618 1.42149
523 1 3.90927 44.525 4.2924
524 1 1.07601 44.558 4.20551
525 1 1.16535 47.355 1.61323
526 1 3.9284 47.3814 1.36832
527 1 3.86061 47.3003 4.44867
528 1 0.883487 47.2416 4.28161
529 1 6.63492 44.2186 1.52907
530 1 9.69703 44.4509 1.15456
531 1 9.57087 44.4283 4.02924
532 1 6.80842 44.4763 4.23401
533 1 6.70782 47.0536 1.54528
534 1 9.45071 47.2545 1.34488
535 1 9.35583 47.1228 4.17484
536 1 6.66539 47.2862 4.30608
537 1 12.4666 44.3793 1.58745
538 1 12.4015 44.5601 4.16325
539 1 12.2303 47.1327 1.4154
540 1 12.3839 47.1892 4.21057
541 1 1.20782 24.6743 7.07214
542 1 4.02164 24.6573 6.88012
543 1 4.12917 24.5093 9.84529
544 1 1.40585 24.7498 9.84348
545 1 6.81345 24.8259 6.99774
546 1 9.54829 25.0621 6.84288
547 1 9.8887 24.5708 9.60818
548 1 7.13404 24.7118 9.77388
549 1 12.4505 24.8055 7.05955
550 1 12.5028 24.6376 9.9404
551 1 1.26346 27.4808 7.23692
552 1 4.02235 27.4976 7.05467
553 1 4.06717 27.5932 9.85911
554 1 1.26361 27.4168 9.89189
555 1 1.10711 30.4457 7.11355
556 1 4.0411 30.2174 7.06903
557 1 4.10382 30.7436 9.67063
558 1 1.23427 30.4489 9.92611
559 1 7.03018 27.5382 6.91391
560 1 9.85072 28.1111 7.01296
561 1 9.97495 27.3931 9.77964
562 1 7.05269 27.4571 9.75257
563 1 6.85615 30.3262 7.17817
564 1 9.79113 30.6551 6.57524
565 1 9.70064 30.0815 9.81615
566 1 6.92335 30.447 9.70493
567 1 12.6408 27.6669 7.17906
568 1 12.8663 27.5349 9.87524
569 1 12.6085 30.6305 7.23941
570 1 12.6896 30.4377 9.66776
571 1 1.18964 33.0202 7.00034
572 1 4.05757 33.425 6.91403
573 1 4.28404 33.4026 9.70233
574 1 1.29507 33.2792 9.84797
575 1 1.26406 36.0017 6.91835
576 1 3.97829 36.2642 7.30864
577 1 4.26994 35.8849 9.95124
578 1 1.35712 36.2016 9.59407
579 1 6.82565 33.1954 6.77288
580 1 9.57801 33.5165 7.04442
581 1 9.91846 32.9302 9.81292
582 1 7.22129 33.2823 9.58112
583 1 6.57445 36.1592 6.93285
584 1 9.63913 36.0206 7.05577
585 1 9.7809 36.0342 9.75824
586 1 7.0001 36.0083 9.74901
587 1 12.6316 33.3846 7.01945
588 1 12.4288 33.4235 9.78242
589 1 12.5394 36.1054 7.06507
590 1 12.511 36.2146 10.0351
591 1 1.1805 38.935 7.26751
592 1 3.98594 39.0284 7.0119
593 1 4.12958 38.7648 10.0112
594 1 1.11968 38.817 10.0252
595 1 1.31066 41.698 7.13327
596 1 4.08585 41.6424 7.08566
597 1 4.14329 41.6205 9.96184
598 1 1.50595 41.4751 9.85189
599 1 7.03609 38.7037 6.90743
600 1 9.767 38.8184 7.04033
601 1 9.77214 38.887 9.93748
602 1 6.87406 38.8009 9.97139
603 1 6.86733 41.7502 6.83086
604 1 9.69803 41.5713 6.98754
605 1 9.48943 41.679 9.74268
606 1 6.73581 41.797 9.75861
607 1 12.5969 39.1024 7.138
608 1 12.4721 39.0489 9.89326
609 1 12.44 41.8332 7.02144
610 1 12.4532 41.9053 9.95059
611 1 1.08161 44.6628 7.08698
612 1 3.84312 44.5 7.04358
613 1 4.33723 44.526 9.8932
614 1 1.16714 44.2445 10.073
615 1 1.33067 47.5049 7.20559
616 1 4.13369 47.4532 7.13115
617 1 3.99868 47.3661 10.0137
618 1 1.38551 47.1335 10.019
619 1 6.68243 44.6363 7.08406
620 1 9.42193 44.4395 6.8944
621 1 9.76186 44.4634 9.90354
622 1 7.15611 44.7031 10.0834
623 1 6.91188 47.5059 7.0192
624 1 9.51678 47.1457 7.11081
625 1 9.47214 47.392 10.0842
626 1 6.80015 47.549 9.92366
627 1 12.3847 44.5456 6.84876
628 1 12.2241 44.4095 9.84642
629 1 12.308 47.2566 7.12849
630 1 12.4154 47.2625 10.1286
631 1 1.12957 24.5921 12.8337
632 1 3.96616 24.5641 12.6029
633 1 7.06412 24.7356 12.6315
634 1 9.92257 24.6513 12.779
635 1 12.9699 24.3773 12.6187
636 1 1.39025 27.4811 12.6108
637 1 4.0964 27.6165 12.8519
638 1 1.26055 30.1469 12.7863
639 1 4.17855 30.51 12.5598
640 1 6.71339 27.5432 12.4762
641 1 9.36282 27.3504 12.5263
642 1 6.97336 30.2462 12.6336
643 1 9.87121 30.2041 12.7342
644 1 12.353 27.3522 12.8694
645 1 12.8016 30.1781 12.6611
646 1 1.4236 33.1367 12.7981
647 1 3.97406 33.1662 12.5809
648 1 1.33589 35.9996 12.5939
649 1 4.16235 36.1351 12.7214
650 1 6.97088 33.3788 12.5266
651 1 9.50403 33.0718 12.4371
652 1 6.97188 36.2498 12.5013
653 1 9.82815 36.1442 12.6399
654 1 12.1906 33.2089 12.688
655 1 12.4898 35.9971 12.5866
656 1 1.17131 38.9156 12.801
657 1 4.01822 39.1226 12.8101
658 1 1.05004 41.4985 12.575
659 1 3.89624 41.932 12.7425
660 1 6.72302 39.0542 12.6783
661 1 9.56718 39.0428 12.9162
662 1 6.74165 41.8784 12.802
663 1 9.62641 41.9457 12.7609
664 1 12.3701 38.9627 12.6245
665 1 12.4005 41.8505 12.542
666 1 1.26234 44.4518 12.9854
667 1 4.05027 44.5348 12.8449
668 1 1.30743 47.1308 12.8619
669 1 4.28401 47.4154 12.7989
670 1 6.84019 44.6175 12.7776
671 1 9.51958 44.7308 12.9231
672 1 7.01392 47.4264 12.4405
673 1 9.72601 47.6146 12.9369
674 1 12.4683 44.5865 12.6004
675 1 12.4697 47.2731 12.7189
12363 2 11.1902 48.7621 11.4822
12285 2 5.3541 43.0703 -0.0645013
12253 2 2.5131 26.1361 2.62087
12362 2 5.57946 48.7092 11.2648
12282 2 2.44969 45.9007 -0.0156568
844 1 3.88627 33.3709 1.43851
12257 2 8.24371 26.1296 2.70134
12258 2 5.25585 28.8063 2.72405
15251 2 13.7582 28.9895 -0.0783256
12260 2 11.097 28.4644 2.95265
12360 2 11.0032 43.1891 11.3943
12293 2 5.33868 48.667 0.0462585
12263 2 2.53897 31.8049 2.88215
12359 2 8.38753 45.9807 11.5885
12265 2 5.38933 31.4684 -0.158674
12346 2 -0.101484 31.8418 11.0922
12267 2 8.07572 31.8242 2.75824
12268 2 5.30226 34.6734 3.24777
12345 2 11.3209 26.0679 11.3811
12270 2 11.1534 34.9388 2.92428
12358 2 5.55363 43.2014 11.2852
12344 2 8.27274 28.7106 11.1277
12273 2 2.61638 37.6122 2.96279
12357 2 2.64034 45.7366 11.2304
12343 2 5.64637 25.9663 11.1875
15327 2 13.8822 43.1473 8.55831
12277 2 8.07498 37.3844 2.80392
12278 2 5.43126 40.3287 2.85415
12272 2 2.42552 40.2773 0.0523009
12280 2 11.0381 40.248 3.04809
12355 2 11.0881 37.5943 11.2699
485 2 2.25703 34.5961 -0.0783028
12283 2 2.59506 43.0575 2.85775
12354 2 8.25936 40.5373 11.3353
12255 2 5.35547 26.1894 -0.0124561
460 1 12.2694 24.7651 4.13441
12287 2 8.13157 42.9687 2.75073
12288 2 5.37827 45.7601 2.87532
12286 2 8.13604 45.8839 0.0186359
12290 2 10.9249 45.9313 2.82397
12353 2 5.50177 37.7151 11.3721
12292 2 2.54159 48.6657 2.84825
89 1 12.4599 24.6513 1.26651
12294 2 7.94228 48.6669 2.80995
12372 2 5.3162 34.7944 13.9519
912 1 6.81935 49.9101 4.06661
12297 2 2.7297 28.8426 5.73199
12298 2 2.64394 26.0678 8.38201
12295 2 10.8713 48.6714 -0.0574355
12300 2 5.60217 26.119 5.72786
12301 2 8.44818 28.9484 5.54888
12302 2 8.45434 26.0127 8.44328
12303 2 5.4962 28.9246 8.60858
12304 2 11.1606 26.033 5.72742
12305 2 11.3618 28.7974 8.68391
12352 2 2.8943 40.3923 11.3137
12307 2 2.4877 34.4262 5.73338
12308 2 2.56925 31.7498 8.55407
12291 2 -0.193034 48.8522 0.0547441
12310 2 5.26501 31.6526 5.82069
12311 2 8.17584 34.5672 5.6883
12312 2 8.45151 31.8622 8.29639
12313 2 5.52816 34.8319 8.25592
12314 2 11.4121 32.0256 5.90601
12315 2 11.1023 34.6954 8.48928
1018 1 12.4768 50.0336 10.1277
12317 2 2.53174 40.2127 5.61663
12318 2 2.601 37.7672 8.61054
12350 2 11.1481 31.617 11.3337
12320 2 5.34297 37.68 5.73892
12321 2 8.25585 40.286 5.76058