LAMMPS (29 Oct 2020)
OMP_NUM_THREADS environment is not set. Defaulting to 1 thread. (../comm.cpp:94)
  using 1 OpenMP thread(s) per MPI task
OMP_NUM_THREADS environment is not set. Defaulting to 1 thread. (../comm.cpp:94)
  using 1 OpenMP thread(s) per MPI task
Reading data file ...
  orthogonal box = (-0.36428744 -4.4761376 -0.36818177) to (27.704287 332.55614 27.708182)
  2 by 13 by 2 MPI processor grid
  reading atoms ...
  17640 atoms
  reading velocities ...
  17640 velocities
Finding 1-2 1-3 1-4 neighbors ...
  special bond factors lj:    0.0      0.0      0.0     
  special bond factors coul:  0.0      0.0      0.0     
     0 = max # of 1-2 neighbors
     0 = max # of 1-3 neighbors
     0 = max # of 1-4 neighbors
     1 = max # of special neighbors
  special bonds CPU = 0.004 seconds
  read_data CPU = 0.106 seconds
Setting atom values ...
  11760 settings made for charge
Setting atom values ...
  5880 settings made for charge
PPPM initialization ...
  using 12-bit tables for long-range coulomb (../kspace.cpp:328)
  G vector (1/distance) = 0.29877717
  grid = 40 240 40
  stencil order = 5
  estimated absolute RMS force accuracy = 0.00015652205
  estimated relative force accuracy = 1.0869855e-05
  using single precision MKL FFT
  3d grid and FFT values/proc = 15000 7600
Neighbor list info ...
  update every 1 steps, delay 0 steps, check yes
  max neighbors/atom: 2000, page size: 100000
  master list distance cutoff = 11.3
  ghost atom cutoff = 11.3
  binsize = 5.65, bins = 5 60 5
  2 neighbor lists, perpetual/occasional/extra = 2 0 0
  (1) pair coul/long, perpetual
      attributes: half, newton on
      pair build: half/bin/newton
      stencil: half/bin/3d/newton
      bin: standard
  (2) pair eam/alloy, perpetual, copy from (1)
      attributes: half, newton on
      pair build: copy
      stencil: none
      bin: none
Setting up Verlet run ...
  Unit style    : metal
  Current step  : 0
  Time step     : 0.001
Per MPI rank memory allocation (min/avg/max) = 8.154 | 8.176 | 8.189 Mbytes
Step Temp E_pair E_mol TotEng Press 
       0          600   -230085.58            0   -228717.57    -690.1347 
  100000    601.41329   -230107.52            0   -228736.28   -950.00669 
Loop time of 620.264 on 52 procs for 100000 steps with 17640 atoms

Performance: 13.930 ns/day, 1.723 hours/ns, 161.222 timesteps/s
99.8% CPU use with 52 MPI tasks x 1 OpenMP threads

MPI task timing breakdown:
Section |  min time  |  avg time  |  max time  |%varavg| %total
---------------------------------------------------------------
Pair    | 399.48     | 409.88     | 424.84     |  27.8 | 66.08
Bond    | 0.0074985  | 0.011164   | 0.016271   |   1.7 |  0.00
Kspace  | 139.95     | 156.04     | 168.45     |  52.9 | 25.16
Neigh   | 31.126     | 33.36      | 36.071     |  22.7 |  5.38
Comm    | 14.422     | 15.642     | 17.665     |  19.6 |  2.52
Output  | 5.7548e-05 | 6.3274e-05 | 0.00027833 |   0.0 |  0.00
Modify  | 2.5033     | 3.8761     | 5.6165     |  53.0 |  0.62
Other   |            | 1.45       |            |       |  0.23

Nlocal:        339.231 ave         366 max         315 min
Histogram: 1 4 6 8 11 8 4 7 2 1
Nghost:        4074.90 ave        4210 max        3974 min
Histogram: 4 5 10 5 9 3 8 6 1 1
Neighs:        67267.0 ave       73293 max       62081 min
Histogram: 1 6 5 5 13 9 7 2 2 2

Total # of neighbors = 3497884
Ave neighs/atom = 198.29274
Ave special neighs/atom = 0.0000000
Neighbor list builds = 16222
Dangerous builds = 0
11760 atoms in group oxygen
PPPM initialization ...
  using 12-bit tables for long-range coulomb (../kspace.cpp:328)
  G vector (1/distance) = 0.29877717
  grid = 40 240 40
  stencil order = 5
  estimated absolute RMS force accuracy = 0.00015652205
  estimated relative force accuracy = 1.0869855e-05
  using single precision MKL FFT
  3d grid and FFT values/proc = 15000 7600
Setting up Verlet run ...
  Unit style    : metal
  Current step  : 0
  Time step     : 0.001
Per MPI rank memory allocation (min/avg/max) = 8.404 | 8.427 | 8.439 Mbytes
Step f_2 Temp v_Tdiff v_deltaT 
       0            0    601.41329            0            0 
  100000    658.34711    604.31966  0.022394864     260.0023 
  200000    1290.0487    603.88453  0.024773513    287.61819 
  300000    1917.5006    607.28063  0.025433802    295.28408 
  400000     2546.774    604.15027   0.02556509    296.80832 
  500000    3177.7727    604.89988   0.02649532     307.6082 
  600000    3811.5426    602.93236  0.025221847    292.82331 
  700000    4448.1145    603.55606   0.02549691    296.01675 
  800000     5081.265    602.72081    0.0253407    294.20317 
  900000    5715.6163    604.42929  0.025508464     296.1509 
 1000000    6353.5209    600.03091  0.025618161    297.42447 
Loop time of 6151.67 on 52 procs for 1000000 steps with 17640 atoms

Performance: 14.045 ns/day, 1.709 hours/ns, 162.557 timesteps/s
99.8% CPU use with 52 MPI tasks x 1 OpenMP threads

MPI task timing breakdown:
Section |  min time  |  avg time  |  max time  |%varavg| %total
---------------------------------------------------------------
Pair    | 3929.6     | 4033.2     | 4204.6     | 100.8 | 65.56
Bond    | 0.066099   | 0.11602    | 0.1641     |   6.1 |  0.00
Kspace  | 1387.3     | 1573.6     | 1700.1     | 176.5 | 25.58
Neigh   | 323.61     | 343.65     | 372.96     |  64.6 |  5.59
Comm    | 146.1      | 157.08     | 183.12     |  68.0 |  2.55
Output  | 0.0011151  | 0.0011876  | 0.002477   |   0.5 |  0.00
Modify  | 5.5378     | 6.1139     | 6.8394     |  11.2 |  0.10
Other   |            | 37.92      |            |       |  0.62

Nlocal:        339.231 ave         373 max         318 min
Histogram: 2 6 9 11 11 8 2 2 0 1
Nghost:        4086.19 ave        4198 max        3965 min
Histogram: 3 1 4 8 8 9 7 8 3 1
Neighs:        67268.1 ave       74489 max       62884 min
Histogram: 4 4 9 13 10 6 4 1 0 1

Total # of neighbors = 3497940
Ave neighs/atom = 198.29592
Ave special neighs/atom = 0.0000000
Neighbor list builds = 167661
Dangerous builds = 0
Total wall time: 1:52:52
