LAMMPS (29 Oct 2020)
OMP_NUM_THREADS environment is not set. Defaulting to 1 thread. (../comm.cpp:94)
  using 1 OpenMP thread(s) per MPI task
OMP_NUM_THREADS environment is not set. Defaulting to 1 thread. (../comm.cpp:94)
  using 1 OpenMP thread(s) per MPI task
Reading data file ...
  orthogonal box = (-0.31479556 -3.9077564 -0.31872584) to (27.654796 331.98776 27.658726)
  2 by 13 by 2 MPI processor grid
  reading atoms ...
  17640 atoms
  reading velocities ...
  17640 velocities
Finding 1-2 1-3 1-4 neighbors ...
  special bond factors lj:    0.0      0.0      0.0     
  special bond factors coul:  0.0      0.0      0.0     
     0 = max # of 1-2 neighbors
     0 = max # of 1-3 neighbors
     0 = max # of 1-4 neighbors
     1 = max # of special neighbors
  special bonds CPU = 0.003 seconds
  read_data CPU = 0.063 seconds
Setting atom values ...
  11760 settings made for charge
Setting atom values ...
  5880 settings made for charge
PPPM initialization ...
  using 12-bit tables for long-range coulomb (../kspace.cpp:328)
  G vector (1/distance) = 0.29896826
  grid = 40 240 40
  stencil order = 5
  estimated absolute RMS force accuracy = 0.00015499025
  estimated relative force accuracy = 1.0763477e-05
  using single precision MKL FFT
  3d grid and FFT values/proc = 15000 7600
Neighbor list info ...
  update every 1 steps, delay 0 steps, check yes
  max neighbors/atom: 2000, page size: 100000
  master list distance cutoff = 11.3
  ghost atom cutoff = 11.3
  binsize = 5.65, bins = 5 60 5
  2 neighbor lists, perpetual/occasional/extra = 2 0 0
  (1) pair coul/long, perpetual
      attributes: half, newton on
      pair build: half/bin/newton
      stencil: half/bin/3d/newton
      bin: standard
  (2) pair eam/alloy, perpetual, copy from (1)
      attributes: half, newton on
      pair build: copy
      stencil: none
      bin: none
Setting up Verlet run ...
  Unit style    : metal
  Current step  : 0
  Time step     : 0.001
Per MPI rank memory allocation (min/avg/max) = 8.162 | 8.186 | 8.203 Mbytes
Step Temp E_pair E_mol TotEng Press 
       0          300   -231135.25            0   -230451.25   -901.99312 
   50000    299.04007   -231135.78            0   -230453.96   -813.29749 
Loop time of 319.508 on 52 procs for 50000 steps with 17640 atoms

Performance: 13.521 ns/day, 1.775 hours/ns, 156.491 timesteps/s
99.8% CPU use with 52 MPI tasks x 1 OpenMP threads

MPI task timing breakdown:
Section |  min time  |  avg time  |  max time  |%varavg| %total
---------------------------------------------------------------
Pair    | 214.28     | 220.69     | 228.64     |  22.6 | 69.07
Bond    | 0.0027065  | 0.0049871  | 0.0078508  |   1.5 |  0.00
Kspace  | 67.941     | 76.003     | 82.892     |  41.3 | 23.79
Neigh   | 11.091     | 12.042     | 13.274     |  15.3 |  3.77
Comm    | 7.9035     | 8.6108     | 9.7722     |  14.3 |  2.70
Output  | 5.4769e-05 | 5.9508e-05 | 0.00025941 |   0.0 |  0.00
Modify  | 1.0906     | 1.4708     | 2.2139     |  28.1 |  0.46
Other   |            | 0.6905     |            |       |  0.22

Nlocal:        339.231 ave         368 max         320 min
Histogram: 6 3 12 4 9 8 5 2 2 1
Nghost:        4190.69 ave        4286 max        4050 min
Histogram: 4 4 0 8 0 4 16 4 0 12
Neighs:        67339.7 ave       73552 max       61149 min
Histogram: 3 3 4 6 9 11 5 6 3 2

Total # of neighbors = 3501665
Ave neighs/atom = 198.50709
Ave special neighs/atom = 0.0000000
Neighbor list builds = 5770
Dangerous builds = 0
11760 atoms in group oxygen
PPPM initialization ...
  using 12-bit tables for long-range coulomb (../kspace.cpp:328)
  G vector (1/distance) = 0.29896826
  grid = 40 240 40
  stencil order = 5
  estimated absolute RMS force accuracy = 0.00015499025
  estimated relative force accuracy = 1.0763477e-05
  using single precision MKL FFT
  3d grid and FFT values/proc = 15000 7600
Setting up Verlet run ...
  Unit style    : metal
  Current step  : 0
  Time step     : 0.001
Per MPI rank memory allocation (min/avg/max) = 8.413 | 8.437 | 8.454 Mbytes
Step f_2 Temp v_Tdiff v_deltaT 
       0            0    299.04007            0            0 
  100000    355.54743    298.39762 0.0072804277     84.52509 
  200000    708.18368    297.54176 0.0077254226    89.691439 
  300000    1063.7649    299.10398 0.0078449226    91.078823 
  400000    1417.2784    298.99476 0.0078839945    91.532444 
  500000    1770.5971    303.35878 0.0079459132    92.251314 
  600000    2122.0426    299.49491 0.0079723962    92.558779 
  700000    2478.9496    300.72054 0.0079289111    92.053921 
  800000     2830.097    297.86046 0.0081367386     94.46678 
  900000    3184.6674    301.63211 0.0080666274    93.652795 
 1000000    3538.2128    300.71599 0.0081005923    94.047125 
Loop time of 6380.94 on 52 procs for 1000000 steps with 17640 atoms

Performance: 13.540 ns/day, 1.772 hours/ns, 156.717 timesteps/s
99.8% CPU use with 52 MPI tasks x 1 OpenMP threads

MPI task timing breakdown:
Section |  min time  |  avg time  |  max time  |%varavg| %total
---------------------------------------------------------------
Pair    | 4279.2     | 4406.3     | 4590.5     | 110.7 | 69.05
Bond    | 0.056894   | 0.10008    | 0.14806    |   6.9 |  0.00
Kspace  | 1341.1     | 1525.3     | 1671       | 196.6 | 23.90
Neigh   | 224.56     | 243.54     | 268.09     |  68.1 |  3.82
Comm    | 154.05     | 171.65     | 193.27     |  66.0 |  2.69
Output  | 0.0010881  | 0.001153   | 0.0022307  |   0.5 |  0.00
Modify  | 5.5121     | 6.1718     | 6.9135     |  11.5 |  0.10
Other   |            | 27.88      |            |       |  0.44

Nlocal:        339.231 ave         365 max         319 min
Histogram: 3 5 7 8 11 5 6 3 1 3
Nghost:        4189.48 ave        4290 max        4041 min
Histogram: 4 2 3 7 0 11 5 1 7 12
Neighs:        67346.4 ave       74886 max       61896 min
Histogram: 4 5 7 8 14 5 2 5 1 1

Total # of neighbors = 3502015
Ave neighs/atom = 198.52693
Ave special neighs/atom = 0.0000000
Neighbor list builds = 116855
Dangerous builds = 0
Total wall time: 1:51:40
