LAMMPS (29 Oct 2020)
OMP_NUM_THREADS environment is not set. Defaulting to 1 thread. (../comm.cpp:94)
  using 1 OpenMP thread(s) per MPI task
OMP_NUM_THREADS environment is not set. Defaulting to 1 thread. (../comm.cpp:94)
  using 1 OpenMP thread(s) per MPI task
Reading data file ...
  orthogonal box = (-0.4397313 -5.5684999 -0.43331867) to (27.779731 333.64850 27.773319)
  2 by 13 by 2 MPI processor grid
  reading atoms ...
  17640 atoms
  reading velocities ...
  17640 velocities
Finding 1-2 1-3 1-4 neighbors ...
  special bond factors lj:    0.0      0.0      0.0     
  special bond factors coul:  0.0      0.0      0.0     
     0 = max # of 1-2 neighbors
     0 = max # of 1-3 neighbors
     0 = max # of 1-4 neighbors
     1 = max # of special neighbors
  special bonds CPU = 0.004 seconds
  read_data CPU = 0.088 seconds
Setting atom values ...
  11760 settings made for charge
Setting atom values ...
  5880 settings made for charge
PPPM initialization ...
  using 12-bit tables for long-range coulomb (../kspace.cpp:328)
  G vector (1/distance) = 0.29845872
  grid = 40 240 40
  stencil order = 5
  estimated absolute RMS force accuracy = 0.00015917162
  estimated relative force accuracy = 1.1053857e-05
  using single precision MKL FFT
  3d grid and FFT values/proc = 15000 7600
Neighbor list info ...
  update every 1 steps, delay 0 steps, check yes
  max neighbors/atom: 2000, page size: 100000
  master list distance cutoff = 11.3
  ghost atom cutoff = 11.3
  binsize = 5.65, bins = 5 61 5
  2 neighbor lists, perpetual/occasional/extra = 2 0 0
  (1) pair coul/long, perpetual
      attributes: half, newton on
      pair build: half/bin/newton
      stencil: half/bin/3d/newton
      bin: standard
  (2) pair eam/alloy, perpetual, copy from (1)
      attributes: half, newton on
      pair build: copy
      stencil: none
      bin: none
Setting up Verlet run ...
  Unit style    : metal
  Current step  : 0
  Time step     : 0.001
Per MPI rank memory allocation (min/avg/max) = 8.143 | 8.167 | 8.181 Mbytes
Step Temp E_pair E_mol TotEng Press 
       0         1200   -228754.21            0   -226018.18   -222.41424 
   50000    1189.0059   -228789.86            0    -226078.9   -1030.0922 
Loop time of 334.068 on 52 procs for 50000 steps with 17640 atoms

Performance: 12.932 ns/day, 1.856 hours/ns, 149.670 timesteps/s
99.8% CPU use with 52 MPI tasks x 1 OpenMP threads

MPI task timing breakdown:
Section |  min time  |  avg time  |  max time  |%varavg| %total
---------------------------------------------------------------
Pair    | 215.69     | 222.94     | 231.18     |  23.8 | 66.73
Bond    | 0.0032156  | 0.0048416  | 0.0067442  |   1.2 |  0.00
Kspace  | 66.832     | 76.695     | 84.709     |  48.4 | 22.96
Neigh   | 20.376     | 22.353     | 24.053     |  19.4 |  6.69
Comm    | 9.0163     | 9.7367     | 10.524     |  11.0 |  2.91
Output  | 5.4627e-05 | 5.9856e-05 | 0.00025595 |   0.0 |  0.00
Modify  | 0.98875    | 1.5882     | 2.6206     |  39.4 |  0.48
Other   |            | 0.7537     |            |       |  0.23

Nlocal:        339.231 ave         364 max         314 min
Histogram: 4 2 6 8 6 6 7 4 4 5
Nghost:        3951.62 ave        4103 max        3823 min
Histogram: 5 1 7 7 10 10 6 1 2 3
Neighs:        67124.2 ave       73382 max       60060 min
Histogram: 3 1 6 6 7 6 9 6 4 4

Total # of neighbors = 3490460
Ave neighs/atom = 197.87188
Ave special neighs/atom = 0.0000000
Neighbor list builds = 10994
Dangerous builds = 0
11760 atoms in group oxygen
PPPM initialization ...
  using 12-bit tables for long-range coulomb (../kspace.cpp:328)
  G vector (1/distance) = 0.29845872
  grid = 40 240 40
  stencil order = 5
  estimated absolute RMS force accuracy = 0.00015917162
  estimated relative force accuracy = 1.1053857e-05
  using single precision MKL FFT
  3d grid and FFT values/proc = 15000 7600
Setting up Verlet run ...
  Unit style    : metal
  Current step  : 0
  Time step     : 0.001
Per MPI rank memory allocation (min/avg/max) = 8.394 | 8.417 | 8.432 Mbytes
Step f_2 Temp v_Tdiff v_deltaT 
       0            0    1189.0059            0            0 
  100000    1270.9309    1196.5244   0.05176736    601.01424 
  200000    2476.1022    1197.4179  0.058753807    682.12624 
  300000    3686.2076    1192.4484   0.06032181    700.33061 
  400000    4881.6954    1206.7083  0.062594586    726.71733 
  500000    6094.9511    1198.6957  0.058609772    680.45401 
  600000    7309.0224    1196.9026  0.059793384    694.19564 
  700000    8494.9565    1195.3432  0.061473423    713.70073 
  800000     9699.089     1199.976  0.061067292    708.98559 
  900000    10897.925    1196.2314  0.061286433    711.52979 
 1000000    12102.352    1193.9875  0.060236975    699.34568 
Loop time of 6629.28 on 52 procs for 1000000 steps with 17640 atoms

Performance: 13.033 ns/day, 1.841 hours/ns, 150.846 timesteps/s
99.8% CPU use with 52 MPI tasks x 1 OpenMP threads

MPI task timing breakdown:
Section |  min time  |  avg time  |  max time  |%varavg| %total
---------------------------------------------------------------
Pair    | 4210.8     | 4391       | 4508.5     | 101.3 | 66.24
Bond    | 0.066645   | 0.096536   | 0.13016    |   5.1 |  0.00
Kspace  | 1378.6     | 1520.8     | 1716       | 194.2 | 22.94
Neigh   | 443.16     | 481.09     | 513.97     |  66.7 |  7.26
Comm    | 184.46     | 199.48     | 220.59     |  63.4 |  3.01
Output  | 0.0011216  | 0.0011846  | 0.0022925  |   0.5 |  0.00
Modify  | 5.1825     | 6.0123     | 6.5542     |  12.1 |  0.09
Other   |            | 30.84      |            |       |  0.47

Nlocal:        339.231 ave         365 max         314 min
Histogram: 2 0 7 5 11 12 11 0 3 1
Nghost:        3959.48 ave        4100 max        3813 min
Histogram: 2 1 4 6 11 12 11 2 1 2
Neighs:        67114.2 ave       72235 max       60868 min
Histogram: 2 2 5 3 5 15 6 10 1 3

Total # of neighbors = 3489937
Ave neighs/atom = 197.84223
Ave special neighs/atom = 0.0000000
Neighbor list builds = 236446
Dangerous builds = 0
Total wall time: 1:56:03
