ITEM: TIMESTEP
50000
ITEM: NUMBER OF ATOMS
18000
ITEM: BOX BOUNDS xy xz yz pp pp pp
-1.4579900629977569e-01 2.8039799006299194e+01 0.0000000000000000e+00
-1.5741240122776563e+00 3.3630212401227618e+02 0.0000000000000000e+00
-1.3963738891793823e-01 2.8033637388917839e+01 0.0000000000000000e+00
ITEM: ATOMS id type q mass x y z
8994 2 2.2208 232.038 -0.0512227 6.90559 8.11856
8998 2 2.2208 232.038 -0.0110179 1.24772 8.28123
326 2 2.2208 232.038 2.83474 -1.53799 13.9675
4 1 -1.1104 15.9994 12.7257 22.4238 12.3153
3 2 2.2208 232.038 2.70616 -1.5589 2.4997
324 1 -1.1104 15.9994 12.7853 5.43181 12.3702
44 2 2.2208 232.038 -0.0570783 23.7562 2.45128
8 2 2.2208 232.038 5.47676 1.41074 2.75945
9 1 -1.1104 15.9994 12.8003 8.25285 12.6528
10 2 2.2208 232.038 11.4479 1.1722 2.77367
11 1 -1.1104 15.9994 9.82798 22.2335 12.2543
55 2 2.2208 232.038 5.52687 -1.5318 5.58007
13 2 2.2208 232.038 2.90042 4.30562 2.71927
14 1 -1.1104 15.9994 6.85869 22.162 12.4256
8981 2 2.2208 232.038 0.0240023 15.1554 10.954
9662 2 2.2208 232.038 0.0789719 6.72577 13.88
17 2 2.2208 232.038 8.48457 4.14554 2.56683
18 2 2.2208 232.038 5.74934 7.00894 2.63572
34 2 2.2208 232.038 0.0117171 18.1514 2.54253
20 2 2.2208 232.038 11.3505 6.95667 2.57963
21 1 -1.1104 15.9994 4.05149 22.044 12.4638
22 1 -1.1104 15.9994 1.47627 16.613 12.2528
23 2 2.2208 232.038 2.84798 9.78479 2.67052
323 1 -1.1104 15.9994 10.0277 8.25109 12.4116
8997 2 2.2208 232.038 -0.0368339 4.20535 5.29087
105 2 2.2208 232.038 11.1622 -1.35196 11.0362
27 2 2.2208 232.038 8.50101 9.7041 2.55453
28 2 2.2208 232.038 5.54513 12.7254 2.50257
24 2 2.2208 232.038 0.0914578 12.6939 2.61385
30 2 2.2208 232.038 11.181 12.5558 2.79554
31 1 -1.1104 15.9994 12.7642 13.8795 12.4926
32 1 -1.1104 15.9994 12.6133 10.8462 12.6753
33 2 2.2208 232.038 2.81878 15.4905 2.6799
322 1 -1.1104 15.9994 6.93878 8.14205 12.3636
35 1 -1.1104 15.9994 10.0145 13.7979 12.3875
36 1 -1.1104 15.9994 7.19582 13.8208 12.5743
37 2 2.2208 232.038 8.38523 15.4177 2.59427
38 2 2.2208 232.038 5.65771 18.189 2.59609
39 1 -1.1104 15.9994 9.69857 11.1026 12.3573
40 2 2.2208 232.038 11.263 18.1563 2.46908
41 1 -1.1104 15.9994 7.03548 11.0696 12.4375
42 1 -1.1104 15.9994 4.25425 13.6242 12.6107
43 2 2.2208 232.038 2.78506 21.1318 2.46622
321 1 -1.1104 15.9994 9.97166 5.39657 12.3568
45 1 -1.1104 15.9994 1.23748 13.676 12.4492
46 1 -1.1104 15.9994 4.14365 10.7119 12.4715
47 2 2.2208 232.038 8.48259 20.971 2.56671
48 2 2.2208 232.038 5.66705 23.7709 2.50279
49 1 -1.1104 15.9994 1.45852 10.8965 12.3645
50 2 2.2208 232.038 11.2845 23.7754 2.29802
51 1 -1.1104 15.9994 1.17751 22.3849 12.5364
52 2 2.2208 232.038 2.81348 1.37791 5.43016
331 2 2.2208 232.038 2.82544 4.05803 13.9282
54 1 -1.1104 15.9994 12.7932 19.6032 12.2819
9007 2 2.2208 232.038 0.0385977 1.29875 2.65554
56 2 2.2208 232.038 8.44311 1.22769 5.46215
59 2 2.2208 232.038 11.1783 -1.70001 5.45911
58 2 2.2208 232.038 5.60221 1.34628 8.29544
91 2 2.2208 232.038 0.0252888 21.0368 5.30712
60 2 2.2208 232.038 11.2021 1.29849 8.20299
61 1 -1.1104 15.9994 12.5424 16.7955 12.2838
62 2 2.2208 232.038 2.86155 7.07146 5.45169
63 2 2.2208 232.038 2.8329 4.00401 8.28537
64 1 -1.1104 15.9994 9.75724 19.6088 12.2719
65 2 2.2208 232.038 5.65528 4.20109 5.47822
66 2 2.2208 232.038 8.44889 6.98161 5.43956
67 2 2.2208 232.038 8.44864 4.19092 8.25861
68 2 2.2208 232.038 5.62108 7.05624 8.29471
69 2 2.2208 232.038 11.3245 4.07882 5.23733
70 2 2.2208 232.038 11.411 6.89174 8.14988
71 1 -1.1104 15.9994 6.96017 19.3088 12.383
72 2 2.2208 232.038 2.66936 12.7138 5.41053
73 2 2.2208 232.038 2.90831 9.76668 8.20261
74 1 -1.1104 15.9994 9.79054 16.6694 12.4226
75 2 2.2208 232.038 5.76195 9.82246 5.26461
76 2 2.2208 232.038 8.39852 12.616 5.3642
77 2 2.2208 232.038 8.51696 9.74674 8.17954
78 2 2.2208 232.038 5.60748 12.4296 8.08401
79 2 2.2208 232.038 11.3528 9.7093 5.50956
80 2 2.2208 232.038 11.3044 12.4524 8.3036
57 2 2.2208 232.038 8.42928 -1.60882 8.21601
82 2 2.2208 232.038 2.71468 18.0983 5.42598
83 2 2.2208 232.038 2.86422 15.3755 8.20857
320 1 -1.1104 15.9994 7.25422 5.29856 12.4828
85 2 2.2208 232.038 5.64101 15.3841 5.48591
86 2 2.2208 232.038 8.45215 18.2055 5.33027
87 2 2.2208 232.038 8.49043 15.3333 8.21625
88 2 2.2208 232.038 5.55477 18.1701 8.13391
89 2 2.2208 232.038 11.2487 15.3901 5.47069
90 2 2.2208 232.038 11.258 18.1089 8.15414
336 2 2.2208 232.038 2.7259 9.54023 13.836
92 2 2.2208 232.038 2.71537 23.731 5.26123
93 2 2.2208 232.038 2.71286 21.019 8.21496
319 1 -1.1104 15.9994 4.28849 8.18407 12.3389
95 2 2.2208 232.038 5.62462 20.9904 5.2335
96 2 2.2208 232.038 8.42814 23.6828 5.4332
97 2 2.2208 232.038 8.26814 20.8274 8.21665
98 2 2.2208 232.038 5.61525 23.6743 8.12697
99 2 2.2208 232.038 11.1116 20.8928 5.33847
100 2 2.2208 232.038 11.2305 23.3219 8.0888
101 1 -1.1104 15.9994 7.21748 16.5305 12.3632
102 2 2.2208 232.038 2.84054 1.40679 11.2875
340 2 2.2208 232.038 11.26 12.4743 13.8638
104 2 2.2208 232.038 8.52213 1.4086 11.1172
334 2 2.2208 232.038 5.57651 6.91647 13.8894
106 1 -1.1104 15.9994 4.2742 19.416 12.336
107 2 2.2208 232.038 2.93685 7.00097 11.0983
108 2 2.2208 232.038 5.66379 4.22409 11.2131
109 2 2.2208 232.038 8.49656 6.8485 11.0544
110 2 2.2208 232.038 11.3933 4.12183 11.1454
111 1 -1.1104 15.9994 1.43444 19.622 12.1961
112 2 2.2208 232.038 2.95194 12.452 11.1064
113 2 2.2208 232.038 5.76738 9.57544 11.1155
114 2 2.2208 232.038 8.5202 12.5673 11.0849
115 2 2.2208 232.038 11.2161 9.58565 10.9501
116 1 -1.1104 15.9994 4.25486 16.3328 12.4185
117 2 2.2208 232.038 2.85464 18.0549 11.0279
118 2 2.2208 232.038 5.82745 15.179 11.0262
119 2 2.2208 232.038 8.42595 18.0576 10.8331
120 2 2.2208 232.038 11.1899 15.3522 10.957
318 1 -1.1104 15.9994 1.35337 8.01708 12.359
122 2 2.2208 232.038 2.65889 23.8249 11.2844
123 2 2.2208 232.038 5.44883 20.8853 11.0207
124 2 2.2208 232.038 8.49342 23.6522 11.123
125 2 2.2208 232.038 11.379 20.9476 11.0377
126 1 -1.1104 15.9994 1.3806 -0.128826 1.28947
127 1 -1.1104 15.9994 4.1271 0.0781895 1.25056
128 1 -1.1104 15.9994 1.31994 -0.266452 4.04765
129 1 -1.1104 15.9994 4.21892 -0.0147915 4.16477
130 1 -1.1104 15.9994 1.33457 2.67572 1.27811
131 1 -1.1104 15.9994 4.20676 2.95816 1.29302
132 1 -1.1104 15.9994 1.47331 2.47658 3.85599
133 1 -1.1104 15.9994 4.11473 2.86932 4.08895
134 1 -1.1104 15.9994 7.11271 0.015024 1.40865
135 1 -1.1104 15.9994 9.95226 -0.148153 1.25319
136 1 -1.1104 15.9994 7.05362 -0.157626 4.3385
137 1 -1.1104 15.9994 9.9432 -0.387235 3.94894
138 1 -1.1104 15.9994 7.04529 2.73897 1.45119
139 1 -1.1104 15.9994 9.81953 2.70011 1.28756
140 1 -1.1104 15.9994 6.95872 2.68831 3.99967
141 1 -1.1104 15.9994 9.81648 2.43338 4.16917
142 1 -1.1104 15.9994 12.8977 -0.0807165 1.28919
143 1 -1.1104 15.9994 12.8372 -0.155974 4.11012
144 1 -1.1104 15.9994 12.675 2.65568 1.36869
145 1 -1.1104 15.9994 12.8168 2.73811 4.08002
146 1 -1.1104 15.9994 1.32643 5.50284 1.26384
147 1 -1.1104 15.9994 4.24443 5.79323 1.16779
148 1 -1.1104 15.9994 1.5003 5.68508 3.99644
149 1 -1.1104 15.9994 4.24993 5.59622 4.14659
150 1 -1.1104 15.9994 1.4343 8.47093 1.25305
151 1 -1.1104 15.9994 4.215 8.51304 1.01107
152 1 -1.1104 15.9994 1.40956 8.38507 4.18933
153 1 -1.1104 15.9994 4.22668 8.35869 3.77785
154 1 -1.1104 15.9994 7.12706 5.59146 1.2755
155 1 -1.1104 15.9994 9.84738 5.5208 1.10711
156 1 -1.1104 15.9994 7.11601 5.55456 3.9786
157 1 -1.1104 15.9994 9.98731 5.31485 3.86588
158 1 -1.1104 15.9994 7.0576 8.26166 1.21893
159 1 -1.1104 15.9994 9.93189 8.25558 0.996984
160 1 -1.1104 15.9994 7.00123 8.39852 3.98976
161 1 -1.1104 15.9994 9.81691 8.20147 3.87016
162 1 -1.1104 15.9994 12.7376 5.4716 1.16141
163 1 -1.1104 15.9994 12.6971 5.53755 3.97144
164 1 -1.1104 15.9994 12.7079 8.38233 1.07893
165 1 -1.1104 15.9994 12.5119 8.25637 4.08559
166 1 -1.1104 15.9994 1.4673 11.3338 1.14686
167 1 -1.1104 15.9994 4.296 11.3212 1.22346
168 1 -1.1104 15.9994 1.46332 11.2606 3.95236
169 1 -1.1104 15.9994 4.06069 11.1651 4.10035
170 1 -1.1104 15.9994 1.36127 14.2586 1.13569
171 1 -1.1104 15.9994 3.98196 14.0371 1.34452
172 1 -1.1104 15.9994 1.36216 14.0439 4.06239
173 1 -1.1104 15.9994 4.10965 14.067 3.99276
174 1 -1.1104 15.9994 7.09075 11.212 1.15463
175 1 -1.1104 15.9994 9.96543 11.2173 1.35443
176 1 -1.1104 15.9994 7.09897 10.9385 3.85897
177 1 -1.1104 15.9994 10.0771 10.9919 3.95745
178 1 -1.1104 15.9994 6.9841 13.8596 1.13787
179 1 -1.1104 15.9994 10.0297 13.9182 1.28649
180 1 -1.1104 15.9994 7.01109 13.7597 3.99056
181 1 -1.1104 15.9994 9.75052 13.9832 4.06551
182 1 -1.1104 15.9994 12.7236 11.3364 1.23769
183 1 -1.1104 15.9994 12.775 11.0997 4.18336
184 1 -1.1104 15.9994 12.9957 14.1036 1.22907
185 1 -1.1104 15.9994 12.7847 13.9424 4.08673
186 1 -1.1104 15.9994 1.49194 16.9233 1.19486
187 1 -1.1104 15.9994 4.1041 16.8975 1.31815
188 1 -1.1104 15.9994 1.41091 16.6917 4.00481
189 1 -1.1104 15.9994 4.38414 16.8574 4.00566
190 1 -1.1104 15.9994 1.40006 19.7918 1.13596
191 1 -1.1104 15.9994 4.20619 19.7248 1.17525
192 1 -1.1104 15.9994 1.33444 19.5828 3.99868
193 1 -1.1104 15.9994 4.09071 19.4443 3.94122
194 1 -1.1104 15.9994 6.95297 16.65 1.2868
195 1 -1.1104 15.9994 9.75722 16.7768 1.11347
196 1 -1.1104 15.9994 7.13948 16.5694 4.00714
197 1 -1.1104 15.9994 9.84743 16.8449 4.01028
198 1 -1.1104 15.9994 7.12858 19.3455 1.13346
199 1 -1.1104 15.9994 9.88401 19.7055 1.0243
200 1 -1.1104 15.9994 7.11102 19.425 3.89306
201 1 -1.1104 15.9994 9.82888 19.5983 3.9444
202 1 -1.1104 15.9994 12.587 16.8044 1.24859
203 1 -1.1104 15.9994 12.705 16.7144 3.96331
204 1 -1.1104 15.9994 12.6833 19.5309 1.0631
205 1 -1.1104 15.9994 12.7085 19.6604 3.92949
206 1 -1.1104 15.9994 1.22786 22.4549 0.966333
207 1 -1.1104 15.9994 4.21669 22.5704 1.25146
208 1 -1.1104 15.9994 1.41985 22.1978 3.88045
209 1 -1.1104 15.9994 4.23465 22.2446 3.9696
210 1 -1.1104 15.9994 7.00858 22.2168 1.14915
211 1 -1.1104 15.9994 9.79066 22.4549 1.18227
212 1 -1.1104 15.9994 7.22421 22.2804 4.03152
213 1 -1.1104 15.9994 9.85162 22.2605 3.91446
214 1 -1.1104 15.9994 12.7071 22.2584 0.89015
215 1 -1.1104 15.9994 12.6265 22.4494 3.71787
216 1 -1.1104 15.9994 1.32137 -0.226554 6.93726
217 1 -1.1104 15.9994 4.10635 -0.123381 6.96406
218 1 -1.1104 15.9994 1.45236 -0.0626558 9.81546
219 1 -1.1104 15.9994 4.44665 0.0914137 9.7553
220 1 -1.1104 15.9994 1.41586 2.64663 6.65973
221 1 -1.1104 15.9994 4.34408 2.71567 6.75708
222 1 -1.1104 15.9994 1.4749 2.52847 9.67347
223 1 -1.1104 15.9994 4.17217 2.6955 9.72438
224 1 -1.1104 15.9994 7.0279 -0.0975326 6.98265
225 1 -1.1104 15.9994 9.86517 -0.220963 6.73005
226 1 -1.1104 15.9994 7.10649 -0.124408 9.64876
227 1 -1.1104 15.9994 10.0361 -0.236249 9.56995
228 1 -1.1104 15.9994 6.98799 2.6391 6.87624
229 1 -1.1104 15.9994 9.85652 2.85748 6.78227
230 1 -1.1104 15.9994 7.09837 2.61092 9.57934
231 1 -1.1104 15.9994 9.88104 2.60874 9.58148
232 1 -1.1104 15.9994 12.8063 -0.01013 6.84303
233 1 -1.1104 15.9994 12.9961 -0.243458 9.69883
234 1 -1.1104 15.9994 12.6505 2.73842 6.98242
235 1 -1.1104 15.9994 12.6328 2.51195 9.87618
236 1 -1.1104 15.9994 1.37568 5.59087 6.8335
237 1 -1.1104 15.9994 4.36421 5.68065 6.91069
238 1 -1.1104 15.9994 1.15594 5.2391 9.48908
239 1 -1.1104 15.9994 4.27379 5.30043 9.79938
240 1 -1.1104 15.9994 1.50222 8.19064 6.67544
241 1 -1.1104 15.9994 4.39641 8.38369 6.68469
242 1 -1.1104 15.9994 1.50318 8.37346 9.48737
243 1 -1.1104 15.9994 4.39078 8.2998 9.72046
244 1 -1.1104 15.9994 7.21904 5.63868 6.82201
245 1 -1.1104 15.9994 9.84572 5.58692 6.7094
246 1 -1.1104 15.9994 6.95533 5.51306 9.57402
247 1 -1.1104 15.9994 9.95643 5.59601 9.67679
248 1 -1.1104 15.9994 7.04378 8.42266 6.78642
249 1 -1.1104 15.9994 9.88326 8.35867 6.7537
250 1 -1.1104 15.9994 7.27824 8.23029 9.68874
251 1 -1.1104 15.9994 10.0254 8.36641 9.48416
252 1 -1.1104 15.9994 12.8076 5.42528 6.91024
253 1 -1.1104 15.9994 12.7321 5.35189 9.70344
254 1 -1.1104 15.9994 12.6454 8.24191 6.87834
255 1 -1.1104 15.9994 12.9623 8.12649 9.53454
256 1 -1.1104 15.9994 1.44875 11.02 6.75398
257 1 -1.1104 15.9994 4.13178 11.1383 6.85663
258 1 -1.1104 15.9994 1.45558 10.9775 9.60043
259 1 -1.1104 15.9994 4.32301 11.1468 9.68183
260 1 -1.1104 15.9994 1.28923 13.9055 6.84751
261 1 -1.1104 15.9994 4.34607 13.9418 6.65563
262 1 -1.1104 15.9994 1.37847 13.8064 9.60036
263 1 -1.1104 15.9994 4.26304 13.9937 9.66123
264 1 -1.1104 15.9994 7.10137 11.1383 6.62848
265 1 -1.1104 15.9994 9.8979 11.0451 6.73251
266 1 -1.1104 15.9994 7.14017 10.9688 9.60645
267 1 -1.1104 15.9994 9.99727 11.115 9.73544
268 1 -1.1104 15.9994 7.14743 13.9709 6.79367
269 1 -1.1104 15.9994 9.94988 13.792 6.69858
270 1 -1.1104 15.9994 7.11623 13.8235 9.74257
271 1 -1.1104 15.9994 9.80306 13.8803 9.65747
272 1 -1.1104 15.9994 12.733 11.2396 7.0251
273 1 -1.1104 15.9994 12.7368 11.0306 9.73738
274 1 -1.1104 15.9994 12.6697 13.8096 6.96695
275 1 -1.1104 15.9994 12.7784 14.0001 9.66567
276 1 -1.1104 15.9994 1.45332 16.7923 6.67892
277 1 -1.1104 15.9994 4.15205 16.9079 6.67072
278 1 -1.1104 15.9994 1.41718 16.6407 9.41591
279 1 -1.1104 15.9994 4.45207 16.6413 9.42004
280 1 -1.1104 15.9994 1.29063 19.5835 6.85083
281 1 -1.1104 15.9994 4.21225 19.6774 6.72445
282 1 -1.1104 15.9994 1.386 19.5657 9.52925
283 1 -1.1104 15.9994 4.28557 19.4942 9.45619
284 1 -1.1104 15.9994 7.04873 16.6873 6.87494
285 1 -1.1104 15.9994 9.75579 16.5937 6.6553
286 1 -1.1104 15.9994 7.19833 16.5505 9.69835
287 1 -1.1104 15.9994 9.8732 16.6932 9.61477
288 1 -1.1104 15.9994 7.11016 19.4319 6.75546
289 1 -1.1104 15.9994 10.0152 19.3981 6.64359
290 1 -1.1104 15.9994 7.00383 19.3233 9.60612
291 1 -1.1104 15.9994 9.88462 19.416 9.33502
292 1 -1.1104 15.9994 12.7839 16.7935 6.78729
293 1 -1.1104 15.9994 12.8054 16.6619 9.53567
294 1 -1.1104 15.9994 12.5306 19.5836 6.68417
295 1 -1.1104 15.9994 12.6508 19.6692 9.47219
296 1 -1.1104 15.9994 1.12992 22.4094 6.83666
297 1 -1.1104 15.9994 4.1813 22.3856 6.6462
298 1 -1.1104 15.9994 1.32487 22.501 9.76992
299 1 -1.1104 15.9994 4.15838 22.4035 9.54445
300 1 -1.1104 15.9994 7.06802 22.2857 6.80372
301 1 -1.1104 15.9994 9.73912 22.0497 6.76187
302 1 -1.1104 15.9994 6.9842 22.1343 9.7347
303 1 -1.1104 15.9994 9.93164 22.205 9.52554
304 1 -1.1104 15.9994 12.6288 22.3314 6.59094
305 1 -1.1104 15.9994 12.7587 22.4244 9.52097
306 1 -1.1104 15.9994 1.42358 0.121477 12.8945
307 1 -1.1104 15.9994 4.42122 -0.33371 12.6404
308 1 -1.1104 15.9994 1.23833 2.74408 12.4856
309 1 -1.1104 15.9994 4.26773 2.63718 12.7085
310 1 -1.1104 15.9994 7.2566 0.078666 12.5462
311 1 -1.1104 15.9994 10.0464 -0.113534 12.5357
312 1 -1.1104 15.9994 7.24239 2.64927 12.5735
313 1 -1.1104 15.9994 10.0793 2.5921 12.5226
314 1 -1.1104 15.9994 12.8124 -0.00787622 12.5368
315 1 -1.1104 15.9994 12.7872 2.65851 12.6256
316 1 -1.1104 15.9994 1.63507 5.2958 12.4492
317 1 -1.1104 15.9994 4.29971 5.50107 12.6241
330 2 2.2208 232.038 11.4715 1.47525 13.951
8983 2 2.2208 232.038 -0.0120083 9.65343 10.9629
8988 2 2.2208 232.038 -0.0797047 12.5709 8.19288
8984 2 2.2208 232.038 -0.118262 3.89958 11.0541
94 2 2.2208 232.038 0.0368283 23.8356 8.23974
84 2 2.2208 232.038 0.00873902 18.2527 8.12749
349 2 2.2208 232.038 5.59547 23.6588 13.9559
9004 2 2.2208 232.038 0.0471269 6.85143 2.60982
333 2 2.2208 232.038 8.53048 4.10116 13.8674
9663 2 2.2208 232.038 -0.0496333 12.4774 13.8736
339 2 2.2208 232.038 5.5975 12.277 13.9512
103 2 2.2208 232.038 5.77611 -1.54195 11.1496
338 2 2.2208 232.038 8.49427 9.65686 13.8811
81 2 2.2208 232.038 -0.0343047 15.3612 5.48543
335 2 2.2208 232.038 11.4105 6.98587 14.0135
121 2 2.2208 232.038 -0.0670469 21.0413 10.9995
9032 2 2.2208 232.038 14.1411 -1.52789 8.16983
350 2 2.2208 232.038 11.1219 23.7204 13.853
328 2 2.2208 232.038 8.41803 -1.53708 13.9206
344 2 2.2208 232.038 5.69807 18.0229 13.8472
1 2 2.2208 232.038 14.0583 23.8716 5.10898
9081 2 2.2208 232.038 14.1752 1.39515 11.1571
9664 2 2.2208 232.038 0.0461757 17.8091 13.7499
661 2 2.2208 232.038 8.44687 1.30819 -0.178052
25 2 2.2208 232.038 5.62304 9.79819 -0.249811
348 2 2.2208 232.038 8.37347 20.7583 13.7002
659 2 2.2208 232.038 2.70034 1.39593 -0.147991
409 2 2.2208 232.038 11.1968 -1.51418 22.2884
327 1 -1.1104 15.9994 7.33876 21.9555 26.6689
325 2 2.2208 232.038 5.7597 4.17782 28.0912
359 2 2.2208 232.038 11.1862 -1.50581 16.7332
384 2 2.2208 232.038 0.0148931 18.1567 19.4298
357 2 2.2208 232.038 8.44821 -1.65991 19.5687
332 1 -1.1104 15.9994 9.76552 22.4156 23.7226
405 2 2.2208 232.038 5.81245 -1.36433 22.3388
346 2 2.2208 232.038 2.53162 21.027 13.9946
670 2 2.2208 232.038 5.53795 15.4992 28.1035
16 2 2.2208 232.038 8.59869 6.86929 27.9503
337 1 -1.1104 15.9994 7.0737 22.5455 23.8582
675 2 2.2208 232.038 5.66202 21.0224 27.9486
660 2 2.2208 232.038 5.82679 -1.49225 28.0572
662 2 2.2208 232.038 11.2786 -1.48822 27.9992
9669 2 2.2208 232.038 -0.0629021 9.77515 16.4808
342 1 -1.1104 15.9994 4.23511 22.4237 26.6642
407 2 2.2208 232.038 8.34131 -1.50779 25.2658
341 2 2.2208 232.038 2.87001 15.1615 13.6767
9666 2 2.2208 232.038 0.00713702 1.25628 19.4868
394 2 2.2208 232.038 0.0166367 23.8133 19.5245
9672 2 2.2208 232.038 -0.020322 1.48691 24.9541
9668 2 2.2208 232.038 0.0109612 6.93946 19.3777
374 2 2.2208 232.038 11.2387 20.947 27.8652
9700 2 2.2208 232.038 0.0500783 12.3773 19.5247
351 1 -1.1104 15.9994 1.52294 22.1828 26.7144
352 2 2.2208 232.038 2.791 1.26044 16.7323
29 2 2.2208 232.038 11.2692 9.72081 28.0036
354 1 -1.1104 15.9994 4.3998 21.841 23.9896
650 1 -1.1104 15.9994 1.50301 19.5403 23.6391
356 2 2.2208 232.038 8.36429 1.26425 16.7139
431 2 2.2208 232.038 0.0146812 15.368 22.3899
358 2 2.2208 232.038 5.65408 1.39685 19.5452
654 1 -1.1104 15.9994 6.83973 16.7267 23.7407
360 2 2.2208 232.038 11.2592 1.49046 19.5392
361 1 -1.1104 15.9994 1.1441 22.2436 23.9869
362 2 2.2208 232.038 2.81783 6.8693 16.7352
363 2 2.2208 232.038 2.83654 4.13604 19.5385
364 1 -1.1104 15.9994 12.7961 19.2855 26.2395
365 2 2.2208 232.038 5.73791 4.24487 16.8406
366 2 2.2208 232.038 8.49727 6.85603 16.6436
367 2 2.2208 232.038 8.59567 4.04081 19.5423
368 2 2.2208 232.038 5.72332 6.93763 19.4845
369 2 2.2208 232.038 11.2906 4.10794 16.7299
370 2 2.2208 232.038 11.239 7.00705 19.3159
371 1 -1.1104 15.9994 12.6063 19.5259 23.4419
372 2 2.2208 232.038 2.93118 12.4513 16.5864
373 2 2.2208 232.038 2.77051 9.54465 19.4678
9676 2 2.2208 232.038 0.00434576 12.6146 25.2018
375 2 2.2208 232.038 5.6357 9.71425 16.7065
376 2 2.2208 232.038 8.51152 12.3815 16.7503
377 2 2.2208 232.038 8.4015 9.6663 19.5915
378 2 2.2208 232.038 5.62339 12.4535 19.4345
379 2 2.2208 232.038 11.2097 9.79697 16.7025
380 2 2.2208 232.038 11.2982 12.5674 19.6383
381 1 -1.1104 15.9994 12.8649 16.4863 26.6252
382 2 2.2208 232.038 2.81936 18.0305 16.6033
383 2 2.2208 232.038 2.79949 15.1451 19.4687
9667 2 2.2208 232.038 -0.0566747 4.04999 16.6239
385 2 2.2208 232.038 5.56593 15.129 16.5928
386 2 2.2208 232.038 8.51674 18.0532 16.7434
387 2 2.2208 232.038 8.40182 15.2344 19.4428
388 2 2.2208 232.038 5.55391 18.0332 19.381
389 2 2.2208 232.038 11.3224 15.4535 16.7291
390 2 2.2208 232.038 11.0755 18.0397 19.5781
391 1 -1.1104 15.9994 12.5813 22.1959 26.1998
392 2 2.2208 232.038 2.90806 23.6419 16.9353
393 2 2.2208 232.038 2.79396 20.8803 19.5258
677 1 -1.1104 15.9994 9.75465 13.6732 26.5776
395 2 2.2208 232.038 5.51518 20.942 16.6961
396 2 2.2208 232.038 8.32173 23.6441 16.6135
397 2 2.2208 232.038 8.34213 20.9968 19.5171
398 2 2.2208 232.038 5.60273 23.751 19.4569
399 2 2.2208 232.038 11.2375 20.9444 16.6404
400 2 2.2208 232.038 11.0649 23.8839 19.4724
401 1 -1.1104 15.9994 12.6012 16.6096 23.7033
402 2 2.2208 232.038 2.82165 1.27254 22.257
651 1 -1.1104 15.9994 4.28085 19.2288 23.7528
404 1 -1.1104 15.9994 9.93448 19.222 26.5993
653 1 -1.1104 15.9994 4.29467 19.6845 26.663
406 2 2.2208 232.038 8.61134 1.22411 22.318
649 1 -1.1104 15.9994 4.1017 16.6235 26.5942
408 2 2.2208 232.038 5.54924 1.38391 25.2271
353 2 2.2208 232.038 2.80463 -1.59423 19.5713
410 2 2.2208 232.038 11.2914 1.20677 25.1527
411 1 -1.1104 15.9994 7.28003 19.2434 26.3307
412 2 2.2208 232.038 2.79575 6.97259 22.3939
413 2 2.2208 232.038 2.79619 4.24704 25.1454
414 1 -1.1104 15.9994 9.83744 19.6347 23.678
415 2 2.2208 232.038 5.59115 4.04199 22.3955
416 2 2.2208 232.038 8.57372 6.94739 22.2626
417 2 2.2208 232.038 8.47514 4.18711 25.0678
418 2 2.2208 232.038 5.71357 6.83577 25.0567
419 2 2.2208 232.038 11.1149 4.10194 22.3278
420 2 2.2208 232.038 11.3792 6.87985 24.949
421 1 -1.1104 15.9994 7.06667 19.7034 23.7611
422 2 2.2208 232.038 2.83107 12.4679 22.2961
423 2 2.2208 232.038 2.85107 9.78412 25.2227
424 1 -1.1104 15.9994 9.98353 16.4235 26.2945
425 2 2.2208 232.038 5.61037 9.7974 22.2771
426 2 2.2208 232.038 8.32079 12.6146 22.309
427 2 2.2208 232.038 8.44918 9.75123 25.281
428 2 2.2208 232.038 5.63834 12.6313 25.252
429 2 2.2208 232.038 11.3301 9.85587 22.3127
430 2 2.2208 232.038 11.13 12.5395 25.1199
656 1 -1.1104 15.9994 7.10003 16.5219 26.7859
432 2 2.2208 232.038 2.79733 18.244 22.0757
433 2 2.2208 232.038 2.85698 15.1673 25.1675
655 1 -1.1104 15.9994 9.74802 16.7098 23.6113
435 2 2.2208 232.038 5.42965 15.3247 22.3194
436 2 2.2208 232.038 8.30139 18.0938 22.4147
437 2 2.2208 232.038 8.31473 15.378 25.1639
438 2 2.2208 232.038 5.50658 18.255 25.1714
439 2 2.2208 232.038 11.1638 15.2604 22.3367
440 2 2.2208 232.038 11.244 18.1661 24.9223
652 1 -1.1104 15.9994 1.3504 19.5863 26.5001
442 1 -1.1104 15.9994 12.6892 22.4464 23.604
443 2 2.2208 232.038 2.73778 20.9762 25.0893
648 1 -1.1104 15.9994 1.59357 16.5729 26.6511
445 2 2.2208 232.038 5.79269 21.041 22.2825
446 2 2.2208 232.038 8.4397 23.9525 22.3889
447 2 2.2208 232.038 8.41123 20.9836 24.9891
448 2 2.2208 232.038 5.55489 23.8033 25.0904
449 2 2.2208 232.038 11.2487 21.0567 22.3151
450 2 2.2208 232.038 11.1949 23.806 24.9359
451 1 -1.1104 15.9994 1.48463 -0.251904 15.4046
452 1 -1.1104 15.9994 4.22917 -0.0962826 15.3667
453 1 -1.1104 15.9994 1.49001 2.62887 15.3456
454 1 -1.1104 15.9994 4.07176 2.6877 15.1874
455 1 -1.1104 15.9994 7.03532 -0.268328 15.2257
456 1 -1.1104 15.9994 9.94673 -0.139533 15.3941
457 1 -1.1104 15.9994 6.97559 2.52094 15.4697
458 1 -1.1104 15.9994 9.73895 2.69263 15.1717
459 1 -1.1104 15.9994 12.6825 -0.119747 15.3457
460 1 -1.1104 15.9994 12.6715 2.78658 15.4171
461 1 -1.1104 15.9994 1.39 5.42974 15.1866
462 1 -1.1104 15.9994 4.31784 5.67724 15.473
463 1 -1.1104 15.9994 1.50341 8.12004 15.3124
464 1 -1.1104 15.9994 4.17741 8.18205 15.2279
465 1 -1.1104 15.9994 7.14857 5.27127 15.1747
466 1 -1.1104 15.9994 9.83988 5.59766 15.3447
467 1 -1.1104 15.9994 7.17546 8.10874 15.2367
468 1 -1.1104 15.9994 9.79114 8.28638 15.1482
469 1 -1.1104 15.9994 12.6014 5.5617 15.2437
470 1 -1.1104 15.9994 12.6906 8.50682 15.3523
471 1 -1.1104 15.9994 1.52456 10.9308 15.2793
472 1 -1.1104 15.9994 4.21878 10.9818 15.2143
473 1 -1.1104 15.9994 1.50812 13.6784 15.198
474 1 -1.1104 15.9994 4.42846 13.7219 15.3161
475 1 -1.1104 15.9994 7.106 10.896 15.2662
476 1 -1.1104 15.9994 9.80586 10.971 15.2893
477 1 -1.1104 15.9994 7.06091 13.7562 15.1967
478 1 -1.1104 15.9994 9.82882 13.9264 15.3525
479 1 -1.1104 15.9994 12.8379 11.2792 15.449
480 1 -1.1104 15.9994 12.572 13.9556 15.2714
481 1 -1.1104 15.9994 1.16718 16.1567 14.9389
482 1 -1.1104 15.9994 4.10227 16.4845 15.2673
483 1 -1.1104 15.9994 1.61583 19.0427 14.9908
484 1 -1.1104 15.9994 4.27019 19.4672 15.2219
485 1 -1.1104 15.9994 6.8454 16.4959 15.2131
486 1 -1.1104 15.9994 10.0567 16.666 15.1805
487 1 -1.1104 15.9994 6.96226 19.2714 15.206
488 1 -1.1104 15.9994 9.90754 19.4592 15.0428
489 1 -1.1104 15.9994 12.7147 16.6792 15.044
490 1 -1.1104 15.9994 12.7034 19.4101 15.2696
491 1 -1.1104 15.9994 1.42262 22.5756 15.259
492 1 -1.1104 15.9994 4.23583 22.3248 15.2062
493 1 -1.1104 15.9994 6.94447 22.222 15.217
494 1 -1.1104 15.9994 9.86337 22.3528 15.1919
495 1 -1.1104 15.9994 12.5965 22.2883 14.9649
496 1 -1.1104 15.9994 1.20292 -0.225552 18.161
497 1 -1.1104 15.9994 4.02028 0.00229764 18.1682
498 1 -1.1104 15.9994 1.28003 0.00591347 20.9736
499 1 -1.1104 15.9994 4.06745 -0.057321 21.1158
500 1 -1.1104 15.9994 1.3282 2.44296 18.0409
501 1 -1.1104 15.9994 4.18338 2.72831 18.143
502 1 -1.1104 15.9994 1.35757 2.77708 20.8671
503 1 -1.1104 15.9994 4.27147 2.77812 20.8254
504 1 -1.1104 15.9994 6.88232 -0.0874136 18.101
505 1 -1.1104 15.9994 9.82208 -0.035643 18.0631
506 1 -1.1104 15.9994 7.22509 -0.121315 20.7205
507 1 -1.1104 15.9994 9.90383 -0.322622 20.8323
508 1 -1.1104 15.9994 6.969 2.9648 18.3337
509 1 -1.1104 15.9994 9.82465 2.62489 17.9845
510 1 -1.1104 15.9994 7.36426 2.53525 20.9488
511 1 -1.1104 15.9994 9.94832 2.6271 20.8462
512 1 -1.1104 15.9994 12.4915 0.0278291 18.1122
513 1 -1.1104 15.9994 12.6798 -0.20315 21.0508
514 1 -1.1104 15.9994 12.688 2.81228 18.2573
515 1 -1.1104 15.9994 12.6936 2.78488 20.8309
516 1 -1.1104 15.9994 1.49353 5.11899 17.8554
517 1 -1.1104 15.9994 4.31065 5.51306 18.1506
518 1 -1.1104 15.9994 1.45861 5.63448 20.7685
519 1 -1.1104 15.9994 4.2916 5.36676 21.0917
520 1 -1.1104 15.9994 1.81576 7.83434 18.3098
521 1 -1.1104 15.9994 4.52509 8.09642 17.999
522 1 -1.1104 15.9994 1.35213 8.21119 20.9154
523 1 -1.1104 15.9994 4.2467 8.25052 20.7898
524 1 -1.1104 15.9994 7.17473 5.53202 18.1825
525 1 -1.1104 15.9994 9.97049 5.51318 18.0492
526 1 -1.1104 15.9994 7.06123 5.38871 20.9325
527 1 -1.1104 15.9994 9.80073 5.30172 20.9116
528 1 -1.1104 15.9994 7.28369 8.26052 18.0949
529 1 -1.1104 15.9994 9.95001 8.35432 17.9336
530 1 -1.1104 15.9994 6.92822 8.36514 20.9224
531 1 -1.1104 15.9994 9.78373 8.28203 20.7958
532 1 -1.1104 15.9994 12.6763 5.82549 18.1099
533 1 -1.1104 15.9994 12.4409 5.65166 20.9142
534 1 -1.1104 15.9994 12.7904 8.43923 17.9948
535 1 -1.1104 15.9994 12.8283 8.23867 20.7212
536 1 -1.1104 15.9994 1.30445 10.5097 17.9988
537 1 -1.1104 15.9994 4.09932 10.9051 17.9462
538 1 -1.1104 15.9994 1.46245 10.8503 20.8415
539 1 -1.1104 15.9994 4.27676 11.0545 20.8314
540 1 -1.1104 15.9994 1.51233 13.468 18.1528
541 1 -1.1104 15.9994 4.12363 13.7171 18.0365
542 1 -1.1104 15.9994 1.25747 13.7255 20.8683
543 1 -1.1104 15.9994 4.19524 13.6209 20.7641
544 1 -1.1104 15.9994 7.05857 10.9377 18.1427
545 1 -1.1104 15.9994 9.8357 10.9613 18.2361
546 1 -1.1104 15.9994 7.1426 11.1858 20.7719
547 1 -1.1104 15.9994 9.93512 11.0877 21.0627
548 1 -1.1104 15.9994 6.97704 13.62 18.0489
549 1 -1.1104 15.9994 9.91716 13.6907 18.2276
550 1 -1.1104 15.9994 7.05347 13.8935 20.784
551 1 -1.1104 15.9994 9.99787 13.6486 21.0948
552 1 -1.1104 15.9994 12.6024 11.1042 18.2221
553 1 -1.1104 15.9994 12.5766 10.9291 20.9451
554 1 -1.1104 15.9994 12.6757 13.988 17.9835
555 1 -1.1104 15.9994 12.7277 13.8806 20.9256
556 1 -1.1104 15.9994 1.41322 16.3237 18.0909
557 1 -1.1104 15.9994 4.40094 16.5565 18.1312
558 1 -1.1104 15.9994 1.39759 16.5707 20.7954
559 1 -1.1104 15.9994 4.13406 16.4275 20.861
560 1 -1.1104 15.9994 1.65412 18.9367 18.2668
561 1 -1.1104 15.9994 4.29953 19.4417 17.9208
562 1 -1.1104 15.9994 1.09666 19.3625 21.037
563 1 -1.1104 15.9994 4.16093 19.4484 20.5843
564 1 -1.1104 15.9994 7.1281 16.6068 17.905
565 1 -1.1104 15.9994 9.81129 16.4948 18.0368
566 1 -1.1104 15.9994 7.13525 16.4968 20.8435
567 1 -1.1104 15.9994 9.98777 16.7336 20.8921
568 1 -1.1104 15.9994 7.10635 19.4866 18.1213
569 1 -1.1104 15.9994 9.69349 19.4541 18.0724
570 1 -1.1104 15.9994 7.01385 19.5816 20.8873
571 1 -1.1104 15.9994 9.53501 19.2771 20.8653
572 1 -1.1104 15.9994 12.6748 16.7153 17.9524
573 1 -1.1104 15.9994 12.5876 16.6136 21.0207
574 1 -1.1104 15.9994 12.4002 19.5923 18.251
575 1 -1.1104 15.9994 12.5775 19.3169 20.8764
576 1 -1.1104 15.9994 1.59747 22.4742 18.2517
577 1 -1.1104 15.9994 4.32566 22.1715 18.0337
578 1 -1.1104 15.9994 1.28565 22.1529 21
579 1 -1.1104 15.9994 4.47806 22.1872 20.7518
580 1 -1.1104 15.9994 7.04994 22.4501 17.985
581 1 -1.1104 15.9994 9.69402 22.1895 18.1713
582 1 -1.1104 15.9994 7.21976 22.6871 21.0043
583 1 -1.1104 15.9994 9.91596 22.3124 21.0104
584 1 -1.1104 15.9994 12.4441 22.3128 17.9268
585 1 -1.1104 15.9994 12.6528 22.3533 20.9841
586 1 -1.1104 15.9994 1.60045 -0.1283 23.7076
587 1 -1.1104 15.9994 4.52473 -0.225811 24.0874
588 1 -1.1104 15.9994 1.23048 0.0696563 26.661
589 1 -1.1104 15.9994 4.09883 -0.0345537 26.7359
590 1 -1.1104 15.9994 1.49989 2.66586 23.6677
591 1 -1.1104 15.9994 4.20226 2.64293 23.795
592 1 -1.1104 15.9994 1.41453 2.8431 26.5418
593 1 -1.1104 15.9994 4.13407 2.61524 26.5314
594 1 -1.1104 15.9994 7.25191 -0.197146 23.5741
595 1 -1.1104 15.9994 9.94962 -0.0571693 23.6482
596 1 -1.1104 15.9994 7.05809 -0.145904 26.7345
597 1 -1.1104 15.9994 9.7858 -0.252189 26.6438
598 1 -1.1104 15.9994 7.01134 2.45761 23.7487
599 1 -1.1104 15.9994 9.83833 2.7521 23.718
600 1 -1.1104 15.9994 6.976 2.66399 26.7715
601 1 -1.1104 15.9994 9.85696 2.65522 26.5899
602 1 -1.1104 15.9994 12.6873 -0.252235 23.8699
603 1 -1.1104 15.9994 12.6326 -0.103424 26.6421
604 1 -1.1104 15.9994 12.6569 2.42711 23.7374
605 1 -1.1104 15.9994 12.567 2.65877 26.5892
606 1 -1.1104 15.9994 1.44755 5.38605 23.6554
607 1 -1.1104 15.9994 4.33848 5.49545 23.683
608 1 -1.1104 15.9994 1.35022 5.66082 26.5616
609 1 -1.1104 15.9994 4.13194 5.50348 26.5113
610 1 -1.1104 15.9994 1.29608 8.25106 23.6425
611 1 -1.1104 15.9994 4.28104 8.30804 23.5575
612 1 -1.1104 15.9994 1.41724 8.44465 26.4512
613 1 -1.1104 15.9994 4.44014 8.36512 26.3732
614 1 -1.1104 15.9994 7.12836 5.40014 23.7892
615 1 -1.1104 15.9994 9.84787 5.42928 23.8209
616 1 -1.1104 15.9994 7.03231 5.38888 26.5122
617 1 -1.1104 15.9994 9.9739 5.45724 26.5572
618 1 -1.1104 15.9994 7.2416 8.072 23.7472
619 1 -1.1104 15.9994 9.97898 8.38508 23.4462
620 1 -1.1104 15.9994 7.14933 8.18526 26.5746
621 1 -1.1104 15.9994 9.9682 8.30238 26.3141
622 1 -1.1104 15.9994 12.7161 5.27225 23.773
623 1 -1.1104 15.9994 12.6108 5.40483 26.5791
624 1 -1.1104 15.9994 12.7128 8.17498 23.6995
625 1 -1.1104 15.9994 12.8148 8.2345 26.5173
626 1 -1.1104 15.9994 1.60769 11.0328 23.7729
627 1 -1.1104 15.9994 4.35308 11.1164 23.7682
628 1 -1.1104 15.9994 1.67548 11.1351 26.6206
629 1 -1.1104 15.9994 4.26933 11.0859 26.5825
630 1 -1.1104 15.9994 1.36824 13.8383 23.6932
631 1 -1.1104 15.9994 4.20174 13.7584 23.8236
632 1 -1.1104 15.9994 1.40974 13.7213 26.5489