LAMMPS (29 Oct 2020)
OMP_NUM_THREADS environment is not set. Defaulting to 1 thread. (../comm.cpp:94)
  using 1 OpenMP thread(s) per MPI task
OMP_NUM_THREADS environment is not set. Defaulting to 1 thread. (../comm.cpp:94)
  using 1 OpenMP thread(s) per MPI task
Reading data file ...
  orthogonal box = (-0.40227198 -4.7689441 -0.39299216) to (27.742272 332.84894 27.732992)
  2 by 13 by 2 MPI processor grid
  reading atoms ...
  17640 atoms
  reading velocities ...
  17640 velocities
Finding 1-2 1-3 1-4 neighbors ...
  special bond factors lj:    0.0      0.0      0.0     
  special bond factors coul:  0.0      0.0      0.0     
     0 = max # of 1-2 neighbors
     0 = max # of 1-3 neighbors
     0 = max # of 1-4 neighbors
     1 = max # of special neighbors
  special bonds CPU = 0.004 seconds
  read_data CPU = 0.079 seconds
Setting atom values ...
  11760 settings made for charge
Setting atom values ...
  5880 settings made for charge
PPPM initialization ...
  using 12-bit tables for long-range coulomb (../kspace.cpp:328)
  G vector (1/distance) = 0.29866647
  grid = 40 240 40
  stencil order = 5
  estimated absolute RMS force accuracy = 0.00015739772
  estimated relative force accuracy = 1.0930667e-05
  using single precision MKL FFT
  3d grid and FFT values/proc = 15000 7600
Neighbor list info ...
  update every 1 steps, delay 0 steps, check yes
  max neighbors/atom: 2000, page size: 100000
  master list distance cutoff = 11.3
  ghost atom cutoff = 11.3
  binsize = 5.65, bins = 5 60 5
  2 neighbor lists, perpetual/occasional/extra = 2 0 0
  (1) pair coul/long, perpetual
      attributes: half, newton on
      pair build: half/bin/newton
      stencil: half/bin/3d/newton
      bin: standard
  (2) pair eam/alloy, perpetual, copy from (1)
      attributes: half, newton on
      pair build: copy
      stencil: none
      bin: none
Setting up Verlet run ...
  Unit style    : metal
  Current step  : 0
  Time step     : 0.001
Per MPI rank memory allocation (min/avg/max) = 8.146 | 8.171 | 8.186 Mbytes
Step Temp E_pair E_mol TotEng Press 
       0          900   -229727.23            0   -227675.21   -411.78972 
   50000     900.8373   -229730.21            0   -227676.28   -246.80663 
Loop time of 331.871 on 52 procs for 50000 steps with 17640 atoms

Performance: 13.017 ns/day, 1.844 hours/ns, 150.661 timesteps/s
99.8% CPU use with 52 MPI tasks x 1 OpenMP threads

MPI task timing breakdown:
Section |  min time  |  avg time  |  max time  |%varavg| %total
---------------------------------------------------------------
Pair    | 214.07     | 221.37     | 230.62     |  25.4 | 66.70
Bond    | 0.0030719  | 0.0048126  | 0.0071372  |   1.4 |  0.00
Kspace  | 67.764     | 78.316     | 85.654     |  45.1 | 23.60
Neigh   | 18.253     | 20.335     | 22.188     |  19.8 |  6.13
Comm    | 8.7118     | 9.5739     | 10.689     |  14.4 |  2.88
Output  | 5.1516e-05 | 5.6512e-05 | 0.00025861 |   0.0 |  0.00
Modify  | 1.0848     | 1.5167     | 2.5119     |  37.1 |  0.46
Other   |            | 0.755      |            |       |  0.23

Nlocal:        339.231 ave         366 max         317 min
Histogram: 1 2 10 7 9 15 3 2 0 3
Nghost:        4030.21 ave        4187 max        3886 min
Histogram: 4 4 2 13 6 6 4 8 1 4
Neighs:        67409.4 ave       73726 max       59980 min
Histogram: 3 4 3 2 5 11 12 8 1 3

Total # of neighbors = 3505287
Ave neighs/atom = 198.71241
Ave special neighs/atom = 0.0000000
Neighbor list builds = 9878
Dangerous builds = 0
11760 atoms in group oxygen
PPPM initialization ...
  using 12-bit tables for long-range coulomb (../kspace.cpp:328)
  G vector (1/distance) = 0.29866647
  grid = 40 240 40
  stencil order = 5
  estimated absolute RMS force accuracy = 0.00015739772
  estimated relative force accuracy = 1.0930667e-05
  using single precision MKL FFT
  3d grid and FFT values/proc = 15000 7600
Setting up Verlet run ...
  Unit style    : metal
  Current step  : 0
  Time step     : 0.001
Per MPI rank memory allocation (min/avg/max) = 8.396 | 8.422 | 8.437 Mbytes
Step f_2 Temp v_Tdiff v_deltaT 
       0            0     900.8373            0            0 
  100000    1000.6942    908.53547  0.033352147    387.21532 
  200000    1964.0983    899.14995  0.037542169    435.86109 
  300000    2930.9761    902.41961  0.038000539    441.18273 
  400000    3885.1648    895.74879  0.038154852    442.97428 
  500000    4849.3891    903.33921  0.037983574    440.98577 
  600000    5809.4332     894.7154  0.037554421    436.00335 
  700000    6775.4402    902.56544  0.037305762    433.11643 
  800000    7738.3095    904.85128  0.037408116    434.30475 
  900000    8700.6814    898.94978  0.038014304    441.34254 
 1000000    9673.7188    894.41903  0.038715589     449.4844 
Loop time of 6634.68 on 52 procs for 1000000 steps with 17640 atoms

Performance: 13.022 ns/day, 1.843 hours/ns, 150.723 timesteps/s
99.8% CPU use with 52 MPI tasks x 1 OpenMP threads

MPI task timing breakdown:
Section |  min time  |  avg time  |  max time  |%varavg| %total
---------------------------------------------------------------
Pair    | 4272.7     | 4433.7     | 4612.2     | 116.3 | 66.83
Bond    | 0.064394   | 0.096047   | 0.14548    |   6.5 |  0.00
Kspace  | 1356.8     | 1556.5     | 1721.8     | 210.3 | 23.46
Neigh   | 367.66     | 415.75     | 456.34     |  98.6 |  6.27
Comm    | 176.01     | 193.17     | 214.83     |  67.6 |  2.91
Output  | 0.0010787  | 0.001161   | 0.0023595  |   0.5 |  0.00
Modify  | 5.664      | 6.2055     | 6.9932     |  11.2 |  0.09
Other   |            | 29.25      |            |       |  0.44

Nlocal:        339.231 ave         370 max         316 min
Histogram: 4 5 5 9 13 4 5 3 2 2
Nghost:        4033.00 ave        4174 max        3892 min
Histogram: 4 0 6 16 6 0 4 7 5 4
Neighs:        67404.7 ave       74998 max       59281 min
Histogram: 5 2 2 6 2 17 10 1 4 3

Total # of neighbors = 3505042
Ave neighs/atom = 198.69853
Ave special neighs/atom = 0.0000000
Neighbor list builds = 201894
Dangerous builds = 0
Total wall time: 1:56:07
