ITEM: TIMESTEP
80000
ITEM: NUMBER OF ATOMS
17640
ITEM: BOX BOUNDS pp pp pp
-4.8602249048631074e-01 2.7826022490486075e+01
-5.7441460140130349e+00 3.3382414601401177e+02
-4.9226914966843582e-01 2.7832269149668715e+01
ITEM: ATOMS id type q x y z
1 2 2.2208 5.19984 -0.0136901 5.07724
2 1 -1.1104 0.955943 -4.34594 1.02553
6 1 -1.1104 1.16334 -4.38456 3.84603
10 1 -1.1104 1.05394 -1.74228 1.22273
12 2 2.2208 5.31875 -3.01572 2.39232
14 1 -1.1104 0.973289 -1.45386 3.96594
16 1 -1.1104 3.92345 -4.48255 0.855588
18 2 2.2208 2.36574 -0.251716 2.32982
19 1 -1.1104 3.99359 -4.41291 3.39289
21 2 2.2208 2.55886 -2.89494 5.18173
23 1 -1.1104 3.83958 -1.63895 0.961007
24 1 -1.1104 4.01426 -1.55863 3.65449
170 1 -1.1104 0.959808 -1.38014 6.50949
4 1 -1.1104 6.82065 -4.31607 0.731853
338 2 2.2208 5.06518 -2.87737 13.493
174 1 -1.1104 3.90114 -1.41089 6.45572
172 1 -1.1104 3.84853 -4.34297 6.54412
166 1 -1.1104 0.906072 -4.54122 6.64529
15 1 -1.1104 6.58895 -1.46307 3.76148
11 1 -1.1104 6.74442 -1.58078 0.895046
8 1 -1.1104 6.70325 -4.00596 3.62786
31 2 2.2208 10.9192 0.010741 5.08828
32 1 -1.1104 12.2428 -3.93031 0.467063
34 1 -1.1104 12.515 -4.10569 3.33102
36 1 -1.1104 12.2309 -1.17745 0.85566
37 2 2.2208 11.0847 -2.67067 2.16633
39 1 -1.1104 12.5425 -1.47788 3.62458
40 1 -1.1104 9.50384 -4.31705 1.01918
42 2 2.2208 8.0185 0.047288 2.37712
43 1 -1.1104 9.69321 -4.37214 3.70859
45 2 2.2208 7.94261 -2.85983 5.04415
47 1 -1.1104 9.50451 -1.37054 1.15129
48 1 -1.1104 9.50078 -1.4895 3.94831
207 1 -1.1104 12.3571 -1.4752 6.6428
171 1 -1.1104 6.75488 -1.5413 6.47221
205 1 -1.1104 12.0714 -4.16975 6.42675
208 1 -1.1104 9.20569 -4.23698 6.57259
350 2 2.2208 11.1226 2.80363 13.6402
357 2 2.2208 2.30669 17.1254 13.6554
53 2 2.2208 13.6908 11.4837 7.70979
313 2 2.2208 -0.185914 14.3001 8.11592
3 1 -1.1104 0.880139 1.14621 0.886968
7 1 -1.1104 0.801455 1.50058 3.66785
13 2 2.2208 5.10615 2.89106 2.20313
17 1 -1.1104 3.59386 1.2142 0.800456
20 1 -1.1104 3.81823 1.33914 3.54647
22 2 2.2208 2.23956 2.89876 5.05105
54 2 2.2208 5.43141 5.71716 5.04959
56 1 -1.1104 1.16281 7.25338 0.717568
60 1 -1.1104 1.01917 4.22635 0.707013
67 1 -1.1104 0.988729 4.2062 3.49196
72 2 2.2208 2.29406 5.70997 2.13668
76 1 -1.1104 3.98621 4.19481 0.807604
79 1 -1.1104 3.82131 4.23859 3.70202
71 1 -1.1104 3.66848 6.8511 0.486743
74 1 -1.1104 3.97048 7.1146 3.317
58 1 -1.1104 0.916677 6.9834 3.72703
234 1 -1.1104 1.01029 7.18098 6.237
63 1 -1.1104 6.55241 4.28628 0.814788
239 1 -1.1104 4.28235 4.44574 6.538
167 1 -1.1104 0.831068 1.51683 6.60337
59 1 -1.1104 6.62481 7.09948 3.28552
343 2 2.2208 8.14483 -0.0995333 13.4737
236 1 -1.1104 1.04268 4.49457 6.4477
173 1 -1.1104 3.67516 1.35973 6.41349
29 2 2.2208 -0.394019 5.5551 10.7298
69 1 -1.1104 6.70152 4.21297 3.79926
5 1 -1.1104 6.691 1.44921 0.962503
57 1 -1.1104 6.55921 7.44977 0.605599
9 1 -1.1104 6.63033 1.44031 3.96716
33 1 -1.1104 12.5205 1.64597 1.01956
35 1 -1.1104 12.3107 1.47631 3.75897
38 2 2.2208 10.8544 3.04925 2.08732
41 1 -1.1104 9.59214 1.40681 1.02777
44 1 -1.1104 9.40622 1.43922 3.62015
46 2 2.2208 8.21673 2.72469 5.30574
84 2 2.2208 11.0414 5.68625 5.15155
87 1 -1.1104 12.2348 7.03798 3.70849
88 1 -1.1104 12.1404 4.56063 0.883074
92 1 -1.1104 12.2074 4.38057 3.65076
95 2 2.2208 8.21644 5.59418 2.2587
99 1 -1.1104 9.48171 4.03298 0.614714
102 1 -1.1104 9.71579 4.31929 3.63403
94 1 -1.1104 9.56136 7.03993 0.962693
97 1 -1.1104 9.63413 7.31185 3.5063
86 1 -1.1104 12.3648 7.30584 0.727522
269 1 -1.1104 9.52318 4.24399 6.50143
206 1 -1.1104 12.4572 1.38295 6.49316
266 1 -1.1104 12.4971 4.3853 6.39771
267 1 -1.1104 9.57673 7.03757 6.32367
237 1 -1.1104 6.98698 4.40536 6.72853
169 1 -1.1104 6.83643 1.43147 6.658
209 1 -1.1104 9.60875 1.41037 6.31067
359 2 2.2208 5.25828 14.3419 13.6808
55 2 2.2208 5.30323 11.1381 5.00105
61 1 -1.1104 0.98724 9.91359 0.836704
66 2 2.2208 5.26697 8.5239 2.00541
68 1 -1.1104 1.16639 9.60033 3.59729
73 2 2.2208 2.26927 11.2292 2.30869
75 2 2.2208 2.49699 8.4671 5.11037
77 1 -1.1104 3.67001 9.93396 0.671323
80 1 -1.1104 3.98058 9.86345 3.60745
107 1 -1.1104 1.11344 12.6738 0.696447
113 1 -1.1104 0.713554 12.7459 3.51856
123 1 -1.1104 3.97156 12.6759 0.601123
128 1 -1.1104 3.81453 12.6584 3.54834
78 1 -1.1104 3.99448 9.80341 6.60657
108 1 -1.1104 0.814843 12.8292 6.4592
62 1 -1.1104 1.05156 9.97427 6.33417
110 1 -1.1104 6.7084 12.7348 0.50937
70 1 -1.1104 6.75611 9.92053 3.46068
119 2 2.2208 5.14913 14.1514 2.08926
111 1 -1.1104 6.65892 12.6399 6.53628
362 2 2.2208 8.08939 17.2297 13.5512
265 1 -1.1104 12.3657 7.18991 6.52728
64 1 -1.1104 6.80139 9.98404 0.637859
115 1 -1.1104 6.67175 12.9848 3.41992
65 1 -1.1104 6.88936 9.85802 6.10914
85 2 2.2208 11.1448 11.3375 4.98995
89 1 -1.1104 12.543 9.97927 0.877611
91 2 2.2208 11.0828 8.6101 2.35119
93 1 -1.1104 12.545 10.115 3.62724
96 2 2.2208 8.20462 11.5346 2.18626
98 2 2.2208 8.08627 8.44089 4.77767
100 1 -1.1104 9.86333 9.8795 0.784437
103 1 -1.1104 9.63105 10.0689 3.53312
142 1 -1.1104 12.2305 12.9074 0.884391
146 1 -1.1104 12.3607 12.8278 3.67604
153 1 -1.1104 9.26407 12.8039 0.508301
158 1 -1.1104 9.41434 12.9397 3.46574
143 1 -1.1104 12.2908 12.7107 6.4549
160 2 2.2208 8.14408 14.1409 5.24643
101 1 -1.1104 9.5846 10.2107 6.17136
90 1 -1.1104 12.408 9.90676 6.43921
30 2 2.2208 -0.373345 8.37815 7.77874
130 2 2.2208 2.33351 14.0777 5.13853
106 2 2.2208 5.2661 16.8722 5.04329
109 1 -1.1104 0.980666 18.4532 0.784683
114 1 -1.1104 0.913589 18.4048 3.4057
116 1 -1.1104 1.28748 15.6974 0.747572
120 2 2.2208 5.42395 19.844 2.0775
121 1 -1.1104 1.45838 15.6319 3.63076
125 1 -1.1104 3.79527 18.6744 0.966056
127 2 2.2208 2.42936 17.0452 2.14631
129 1 -1.1104 3.82595 18.2521 3.50283
131 2 2.2208 2.68921 19.6647 5.12408
132 1 -1.1104 3.92251 15.6013 0.830603
134 1 -1.1104 4.03846 15.5424 3.84263
138 1 -1.1104 6.58826 18.6469 0.649792
133 1 -1.1104 3.71915 15.5719 6.51334
302 1 -1.1104 1.23705 18.4453 6.37097
140 1 -1.1104 6.54791 15.718 0.876242
118 1 -1.1104 6.59465 15.2146 6.53338
117 1 -1.1104 0.888247 15.6904 6.623
126 1 -1.1104 4.08664 18.3905 6.58268
139 1 -1.1104 6.37449 18.3669 3.62829
337 2 2.2208 -0.357252 2.5555 13.3418
112 1 -1.1104 6.57066 18.1312 6.3659
352 2 2.2208 5.32639 8.28473 13.5314
122 1 -1.1104 6.78584 15.5608 3.93162
150 2 2.2208 10.8727 14.2339 2.15314
141 2 2.2208 10.6963 16.9487 5.11302
144 1 -1.1104 12.4621 18.5183 0.981123
147 1 -1.1104 12.2889 18.2439 3.53777
148 1 -1.1104 12.3975 15.8173 0.552341
151 2 2.2208 10.8042 19.8327 2.38016
152 1 -1.1104 12.4927 15.3619 3.2165
155 1 -1.1104 9.56536 18.53 0.995795
157 2 2.2208 8.22845 16.9802 2.15168
159 1 -1.1104 9.48971 18.4447 3.69213
161 2 2.2208 8.00932 19.8036 5.12567
162 1 -1.1104 9.53224 15.8292 0.535163
164 1 -1.1104 9.68132 15.6429 3.4477
156 1 -1.1104 9.58222 18.6448 6.43186
27 2 2.2208 -0.40201 2.90171 2.17624
8952 2 2.2208 2.46493 -5.63819 13.6343
163 1 -1.1104 9.40294 15.7327 6.50153
201 2 2.2208 -0.446535 0.0485989 10.6394
26 2 2.2208 -0.298529 0.101996 5.11382
360 2 2.2208 10.9225 19.7306 13.6179
375 2 2.2208 2.31941 19.9353 -0.510736
339 2 2.2208 2.323 -0.175793 13.4922
175 2 2.2208 5.1682 -0.0673835 10.7388
176 1 -1.1104 0.842733 -4.23944 12.1118
180 1 -1.1104 1.04116 -4.55555 9.40289
184 1 -1.1104 0.823982 -1.53919 12.1878
186 2 2.2208 5.07458 -2.80941 7.92543
188 1 -1.1104 0.800528 -1.58009 9.34918
190 1 -1.1104 3.51655 -4.08242 12.1365
192 2 2.2208 2.15078 -0.063969 7.91701
193 1 -1.1104 3.69216 -4.35792 9.19918
195 2 2.2208 2.19501 -3.0335 10.6068
197 1 -1.1104 3.7646 -1.44126 12.1836
198 1 -1.1104 3.45488 -1.51942 9.23634
49 2 2.2208 13.7199 0.0335617 2.34098
365 2 2.2208 2.33538 -3.07971 -0.307018
210 1 -1.1104 9.35203 -1.29614 6.66459
189 1 -1.1104 6.62195 -1.5266 9.17185
333 2 2.2208 13.5963 14.4831 10.8824
168 1 -1.1104 6.53894 -4.35758 6.36788
185 1 -1.1104 6.77577 -1.72636 12.1796
178 1 -1.1104 6.7283 -4.48084 11.9582
182 1 -1.1104 6.59144 -4.26467 9.17973
211 2 2.2208 10.7708 -0.143003 10.6127
212 1 -1.1104 12.4525 -4.5795 12.1426
214 1 -1.1104 12.0843 -4.40861 9.29015
216 1 -1.1104 12.3987 -1.40016 12.0677
217 2 2.2208 10.7441 -2.92698 7.92541
219 1 -1.1104 12.3467 -1.84049 9.32038
220 1 -1.1104 9.76139 -4.14235 11.9519
222 2 2.2208 7.90404 -0.159748 7.69487
223 1 -1.1104 9.48157 -4.56799 9.31089
225 2 2.2208 8.10675 -2.94087 10.7532
227 1 -1.1104 9.36494 -1.60046 12.374
228 1 -1.1104 9.58297 -1.5079 9.45516
361 2 2.2208 10.8338 14.2406 13.4601
320 2 2.2208 7.99568 16.9189 7.86025
238 1 -1.1104 3.8621 7.07307 6.33148
341 2 2.2208 5.20756 2.71953 13.7456
177 1 -1.1104 1.08402 1.09475 12.182
181 1 -1.1104 1.15849 1.36682 9.40955
187 2 2.2208 5.30507 2.92312 8.00286
191 1 -1.1104 3.68645 1.42381 12.1951
194 1 -1.1104 3.92352 1.32333 9.11964
196 2 2.2208 2.51695 2.65611 10.4913
240 2 2.2208 5.37936 5.55911 10.7032
246 1 -1.1104 0.998346 4.16768 12.05
251 1 -1.1104 1.22938 4.13093 8.98875
256 2 2.2208 2.56504 5.77927 7.67805
260 1 -1.1104 3.77848 3.99228 12.2096
262 1 -1.1104 3.55902 4.06509 9.10849
242 1 -1.1104 1.23138 6.97629 11.9304
255 1 -1.1104 4.19791 6.80247 11.9715
244 1 -1.1104 1.07872 7.03733 8.89188
258 1 -1.1104 3.77863 7.02699 9.21661
243 1 -1.1104 6.59115 7.10806 12.0592
248 1 -1.1104 6.67822 3.89701 12.398
235 1 -1.1104 6.71521 7.06376 6.37681
245 1 -1.1104 6.52907 7.09339 9.18888
8929 2 2.2208 10.8722 -5.64046 4.97498
318 1 -1.1104 9.4774 18.3229 9.20699
354 2 2.2208 8.16129 5.46657 13.6244
179 1 -1.1104 6.67238 1.04534 12.0623
183 1 -1.1104 6.70381 1.19973 9.43693
253 1 -1.1104 6.55995 4.11958 9.6829
213 1 -1.1104 12.336 1.65867 12.1946
215 1 -1.1104 12.1998 1.10962 9.13453
218 2 2.2208 10.9369 2.8576 7.90981
221 1 -1.1104 9.63752 1.23786 11.8999
224 1 -1.1104 9.41347 1.63718 9.22612
226 2 2.2208 8.05632 2.68693 10.8497
268 1 -1.1104 9.36141 4.48178 9.43704
271 1 -1.1104 9.50664 4.02159 12.2498
273 1 -1.1104 9.29576 7.23098 9.22301
275 2 2.2208 8.21773 5.79759 7.92391
276 2 2.2208 10.9265 5.78054 10.8909
280 1 -1.1104 12.3187 4.57039 11.9852
283 1 -1.1104 12.3329 4.11766 9.19104
285 1 -1.1104 9.58133 7.10525 12.0168
279 1 -1.1104 12.3314 7.00505 9.31274
278 1 -1.1104 12.3952 7.29487 12.1983
324 2 2.2208 10.8593 19.9895 7.80742
326 1 -1.1104 12.2992 15.7586 12.374
353 2 2.2208 2.26494 11.317 13.7162
204 2 2.2208 13.5391 14.1946 4.87866
124 1 -1.1104 3.65809 12.6253 6.22661
294 1 -1.1104 1.1266 12.9579 9.39864
305 1 -1.1104 3.74385 12.8148 9.30363
241 2 2.2208 5.04627 11.4979 10.7462
247 1 -1.1104 0.781835 10.0196 12.1328
250 2 2.2208 5.25729 8.52659 7.878
252 1 -1.1104 0.951895 10.1389 9.25645
257 2 2.2208 2.25759 11.3104 7.69397
259 2 2.2208 2.39996 8.5855 10.6447
261 1 -1.1104 3.52963 10.1906 11.8301
263 1 -1.1104 4.0164 10.0671 9.12313
287 1 -1.1104 3.77285 12.914 12.2075
299 1 -1.1104 1.13421 12.9809 12.4596
290 1 -1.1104 6.55991 12.8423 9.44798
297 1 -1.1104 6.70125 12.8507 12.1944
254 1 -1.1104 6.85103 9.8857 8.97172
249 1 -1.1104 6.50471 9.93445 12.1759
317 2 2.2208 7.88547 14.2351 10.8051
154 1 -1.1104 9.44145 12.9147 6.51573
314 1 -1.1104 9.34579 15.5437 9.21459
330 1 -1.1104 12.2093 12.9127 12.1667
328 1 -1.1104 11.9411 12.9705 9.42835
322 1 -1.1104 9.32054 12.5314 12.0819
319 1 -1.1104 9.26373 12.6741 9.17237
264 1 -1.1104 9.59127 9.76586 9.31569
270 1 -1.1104 9.4567 9.71297 12.1657
272 2 2.2208 8.12982 8.37427 10.679
274 2 2.2208 8.17748 11.2747 7.80194
277 2 2.2208 10.8299 11.5354 10.5971
281 1 -1.1104 12.1621 10.1184 11.8683
282 2 2.2208 10.9087 8.4439 7.92701
284 1 -1.1104 12.3351 10.0634 9.12297
356 2 2.2208 8.11638 11.3784 13.5498
358 2 2.2208 5.19087 20.045 13.4997
82 2 2.2208 -0.340393 8.51454 2.24477
289 1 -1.1104 6.62415 15.5797 9.14668
351 2 2.2208 2.46425 5.48334 13.4964
346 2 2.2208 11.0152 -2.95534 13.477
296 1 -1.1104 6.61302 18.5997 11.9959
311 2 2.2208 -0.234689 19.8794 7.64497
295 2 2.2208 5.03103 13.9538 7.7919
310 2 2.2208 2.36538 14.284 10.7986
292 1 -1.1104 1.01636 15.6804 9.32878
291 1 -1.1104 1.07427 18.5838 9.14628
298 1 -1.1104 1.00157 18.6894 12.1509
309 2 2.2208 2.40608 19.9225 10.7374
308 1 -1.1104 3.89846 15.7637 12.3503
307 1 -1.1104 1.14693 15.7447 12.1481
304 1 -1.1104 3.74844 15.7383 9.53192
303 2 2.2208 2.43641 16.8709 8.03473
301 1 -1.1104 3.76016 18.4186 9.36067
300 2 2.2208 5.27298 16.9546 10.9387
293 2 2.2208 5.21649 19.7392 7.86757
286 1 -1.1104 3.96814 18.5809 12.0846
306 1 -1.1104 6.70112 15.9393 12.4244
355 2 2.2208 11.0103 8.58051 13.4831
327 1 -1.1104 12.428 18.4633 9.18002
312 2 2.2208 -0.402082 17.2376 10.7441
288 1 -1.1104 6.7867 18.4 9.20277
137 2 2.2208 -0.364095 16.9312 5.0624
8932 2 2.2208 5.18551 -5.6563 10.9562
329 1 -1.1104 12.3314 18.5587 12.3946
316 2 2.2208 8.06841 19.9195 10.7107
321 1 -1.1104 9.45429 18.213 12.0103
149 1 -1.1104 12.1902 15.4851 6.30117
145 1 -1.1104 12.2736 18.6504 6.34466
323 1 -1.1104 12.5268 15.6962 9.46234
325 2 2.2208 10.8323 14.2595 7.91863
315 1 -1.1104 9.45319 15.3624 11.998
331 2 2.2208 10.8666 16.9863 10.7565
8928 2 2.2208 8.12938 -5.51799 2.19121
136 2 2.2208 -0.289609 19.742 2.16187
8946 2 2.2208 -0.28239 -5.70855 -0.460784
367 2 2.2208 -0.271917 8.38645 13.5597
52 2 2.2208 13.5515 8.60567 10.8324
135 2 2.2208 -0.288991 14.1112 1.97469
369 2 2.2208 10.9233 0.224377 -0.434883
388 2 2.2208 5.11673 0.10813 16.2542
389 1 -1.1104 0.828374 -4.22143 18.0475
393 1 -1.1104 0.998061 -4.48776 15.2085
401 1 -1.1104 0.795029 -1.64064 17.981
403 2 2.2208 5.02285 -2.687 19.3091
405 1 -1.1104 0.769895 -1.63083 15.1699
409 1 -1.1104 3.71242 -4.40899 17.9779
411 2 2.2208 2.52109 -0.00328074 19.5489
412 1 -1.1104 3.78468 -4.17004 15.1082
416 2 2.2208 2.28224 -2.85205 16.5531
418 1 -1.1104 3.86654 -1.26218 18.0132
419 1 -1.1104 3.55078 -1.2661 15.2634
402 1 -1.1104 6.75563 -1.42708 17.7886
391 1 -1.1104 6.65537 -4.39857 17.5398
406 1 -1.1104 1.14181 -1.4243 20.7214
413 1 -1.1104 3.68638 -4.40053 20.8005
420 1 -1.1104 3.85809 -1.28442 20.9391
385 2 2.2208 8.37338 8.52332 27.7662
348 2 2.2208 11.0042 17.1329 27.6179
397 1 -1.1104 6.42848 -4.30664 14.6018
9016 2 2.2208 8.05121 -5.72202 24.8813
407 1 -1.1104 6.20314 -1.53011 15.1302
431 2 2.2208 10.8696 -0.191015 16.4549
432 1 -1.1104 12.1403 -4.29939 17.8802
434 1 -1.1104 12.2124 -4.08936 15.1005
438 1 -1.1104 12.2736 -1.51485 17.653
439 2 2.2208 10.8835 -2.68283 19.2662
441 1 -1.1104 12.356 -1.37544 14.8611
443 1 -1.1104 9.28011 -4.18016 17.8218
445 2 2.2208 7.94896 -0.0310935 19.2086
446 1 -1.1104 9.35101 -4.25855 14.8025
450 2 2.2208 7.79501 -2.88342 16.2777
452 1 -1.1104 9.51152 -1.47071 17.88
453 1 -1.1104 9.43816 -1.48886 15.2366
442 1 -1.1104 12.1225 -1.31087 20.4598
685 2 2.2208 -0.445108 11.1924 21.9352
9017 2 2.2208 10.8637 -5.53203 22.1719
435 1 -1.1104 12.3128 -4.10028 20.7321
447 1 -1.1104 9.40151 -4.42201 20.8124
454 1 -1.1104 9.44065 -1.51926 20.8772
380 2 2.2208 2.46939 8.6437 27.6128
499 1 -1.1104 12.5963 18.5331 26.4521
381 2 2.2208 5.37118 11.4081 27.5965
395 1 -1.1104 1.09743 1.10515 15.1318
617 1 -1.1104 9.42804 15.5186 23.2506
390 1 -1.1104 1.17388 1.19204 17.9292
404 2 2.2208 5.26106 2.67266 19.2734
410 1 -1.1104 3.72386 1.28283 17.9076
414 1 -1.1104 3.87344 1.45512 14.8139
417 2 2.2208 2.53785 2.62412 16.4733
464 2 2.2208 5.34634 5.49563 16.3044
472 1 -1.1104 1.17663 4.10952 17.7637
477 1 -1.1104 0.881894 3.89674 14.8322
486 2 2.2208 2.61437 5.39381 19.2772
491 1 -1.1104 3.73618 4.1712 17.6153
493 1 -1.1104 3.75346 4.15049 15.0058
468 1 -1.1104 1.06323 6.82156 14.7684
466 1 -1.1104 1.18869 7.03537 17.947
485 1 -1.1104 3.93415 6.81078 17.6622
488 1 -1.1104 3.85454 6.9916 14.7435
494 1 -1.1104 3.98625 4.36929 20.4767
396 1 -1.1104 0.845678 1.26335 20.7363
469 1 -1.1104 1.33548 6.80532 20.8021
481 1 -1.1104 6.86067 4.1691 15.0337
467 1 -1.1104 6.9473 6.96594 17.5968
399 1 -1.1104 6.87867 1.15655 14.9351
400 1 -1.1104 6.69076 1.54387 20.842
482 1 -1.1104 6.58737 4.12358 20.5165
470 1 -1.1104 6.59705 6.73812 14.6706
392 1 -1.1104 6.46775 1.45556 17.6988
474 1 -1.1104 6.70153 4.07448 17.5242
433 1 -1.1104 11.9568 1.46155 17.7333
436 1 -1.1104 12.2862 1.46609 15.0546
440 2 2.2208 10.8145 2.85804 19.3243
444 1 -1.1104 9.20565 1.44295 17.7721
448 1 -1.1104 9.64275 1.45874 14.7532
451 2 2.2208 8.1745 2.59769 16.2508
500 2 2.2208 11.053 5.69041 16.4218
505 1 -1.1104 12.4166 4.24782 17.8553
508 1 -1.1104 12.3661 4.27733 14.7633
513 2 2.2208 8.07898 5.58259 18.9574
518 1 -1.1104 9.50718 4.27455 17.6568
520 1 -1.1104 9.72005 4.38929 15.0104
503 1 -1.1104 12.2802 7.34647 15.1871
515 1 -1.1104 9.46696 7.18444 14.9216
512 1 -1.1104 9.44707 6.99828 17.9422
502 1 -1.1104 12.1388 7.28392 17.6611
504 1 -1.1104 12.2972 7.09562 20.5268
349 2 2.2208 8.13404 19.8989 27.739
437 1 -1.1104 12.3067 1.47131 20.7383
509 1 -1.1104 12.3256 4.1522 20.6688
521 1 -1.1104 9.40332 4.32411 20.775
465 2 2.2208 5.18853 11.23 16.3292
473 1 -1.1104 1.06772 9.84462 17.6697
476 2 2.2208 5.35187 8.57593 19.2392
479 1 -1.1104 0.78644 9.86795 14.8257
487 2 2.2208 2.47509 11.2554 18.8975
490 2 2.2208 2.33788 8.30447 16.4149
492 1 -1.1104 3.97107 9.71368 17.4931
495 1 -1.1104 3.79813 9.69379 14.8308
528 1 -1.1104 1.04464 12.8981 17.9176
532 1 -1.1104 0.79806 12.7012 15.155
548 1 -1.1104 3.67507 12.7572 18.0515
551 1 -1.1104 3.8162 12.7967 15.1107
530 1 -1.1104 6.55026 12.9546 17.5873
533 1 -1.1104 1.04398 12.8432 20.4024
483 1 -1.1104 6.61598 9.74682 15.133
536 1 -1.1104 6.68665 12.8145 14.9066
552 1 -1.1104 3.81489 12.6003 20.6817
537 1 -1.1104 6.73419 12.7538 20.6036
542 2 2.2208 5.05283 14.1621 19.2209
714 1 -1.1104 6.84692 15.6345 26.3673
496 1 -1.1104 3.6559 9.89504 20.2987
384 2 2.2208 10.8408 5.78756 27.7858
9086 2 2.2208 5.04798 -5.61387 16.2969
475 1 -1.1104 6.71053 10.161 17.7028
501 2 2.2208 10.8153 11.5428 16.312
506 1 -1.1104 12.0689 10.2837 17.6024
507 2 2.2208 11.0227 8.59627 19.145
510 1 -1.1104 12.3203 10.1285 14.6961
514 2 2.2208 8.18172 11.3724 19.0438
517 2 2.2208 8.04862 8.4227 16.283
519 1 -1.1104 9.35777 9.97227 17.4847
522 1 -1.1104 9.65324 9.92592 14.7876
564 1 -1.1104 12.1468 12.9588 17.756
566 1 -1.1104 12.3031 12.7927 14.8306
575 1 -1.1104 9.46118 13.0422 17.8158
578 1 -1.1104 9.34617 12.7172 14.8279
567 1 -1.1104 12.387 12.7611 20.8425
511 1 -1.1104 12.4064 9.81646 20.6783
579 1 -1.1104 9.61232 12.7163 20.5703
373 2 2.2208 2.58381 14.1494 27.5337
382 2 2.2208 -0.379775 11.3777 27.7163
9019 2 2.2208 2.41867 -5.67075 24.9662
555 2 2.2208 2.08222 14.3153 16.4215
527 2 2.2208 5.00222 17.1355 16.468
529 1 -1.1104 0.91165 18.6089 17.791
534 1 -1.1104 0.957406 18.6179 15.0144
540 1 -1.1104 1.05568 15.8367 17.8257
543 2 2.2208 5.29074 19.9428 19.2309
544 1 -1.1104 0.53165 15.6241 15.059
549 1 -1.1104 3.96487 18.4826 17.8239
550 2 2.2208 2.30627 17.0137 19.3954
553 1 -1.1104 3.83679 18.4929 15.1254
556 2 2.2208 2.48179 20.017 16.5057
557 1 -1.1104 3.63623 15.4345 17.8604
558 1 -1.1104 3.61113 15.8198 15.1948
535 1 -1.1104 0.931596 18.6489 20.8278
545 1 -1.1104 0.754944 15.6083 20.6202
559 1 -1.1104 3.42597 15.7681 20.7996
554 1 -1.1104 3.69334 18.5915 20.7699
372 2 2.2208 7.85722 2.88874 27.7697
363 2 2.2208 13.726 17.1468 13.735
547 1 -1.1104 6.42571 15.6083 20.6389
541 1 -1.1104 6.34648 15.6727 17.858
571 2 2.2208 11.0276 14.3241 19.142
546 1 -1.1104 6.49227 15.6975 15.2671
531 1 -1.1104 6.67316 18.5931 17.6444
538 1 -1.1104 6.50085 18.5852 14.9791
582 2 2.2208 7.89873 14.3323 16.4292
563 2 2.2208 10.695 16.962 16.5216
565 1 -1.1104 12.2074 18.3918 18.1993
568 1 -1.1104 12.2861 18.4673 15.4916
570 1 -1.1104 12.3764 15.7625 17.9068
572 2 2.2208 10.9261 19.8736 19.355
573 1 -1.1104 12.3519 15.6912 15.1168
576 1 -1.1104 9.32322 18.2027 17.5352
577 2 2.2208 7.86167 17.0637 19.1873
580 1 -1.1104 9.37566 18.469 14.8878
583 2 2.2208 7.95618 19.9876 16.3518
584 1 -1.1104 9.38491 15.6964 17.6489
585 1 -1.1104 9.68828 15.8301 14.8179
569 1 -1.1104 12.3846 18.5276 20.8824
581 1 -1.1104 9.67741 18.4235 21.0345
586 1 -1.1104 9.23664 15.7618 20.4956
574 1 -1.1104 12.4081 15.4204 20.7365
370 2 2.2208 8.08799 -2.8798 27.803
408 1 -1.1104 6.55211 -1.33371 20.7638
684 2 2.2208 -0.267233 8.45733 24.9346
616 2 2.2208 8.13676 19.6899 22.2046
398 1 -1.1104 6.57114 -4.09238 20.5051
394 1 -1.1104 0.791871 -4.41964 20.8341
591 2 2.2208 5.2985 -0.0247869 22.3443
592 1 -1.1104 0.98219 -4.42895 23.7022
596 1 -1.1104 1.03474 -4.00059 26.5004
600 1 -1.1104 1.06478 -1.45847 23.6045
602 2 2.2208 5.37673 -2.88456 25.0057
604 1 -1.1104 1.27188 -1.35394 26.6205
606 1 -1.1104 3.69822 -4.26385 23.4888
608 2 2.2208 2.39932 -0.154874 25.0398
609 1 -1.1104 4.02785 -4.15631 26.4154
611 2 2.2208 2.17539 -2.91191 22.05
613 1 -1.1104 3.85742 -1.50921 23.6187
614 1 -1.1104 4.00193 -1.47306 26.4228
594 1 -1.1104 6.51727 -4.43177 23.6132
601 1 -1.1104 6.85788 -1.43935 23.5221
598 1 -1.1104 6.71305 -4.1917 26.293
588 1 -1.1104 6.63369 18.3154 26.3652
622 2 2.2208 -0.267675 8.38372 19.2331
344 2 2.2208 13.6241 14.0861 27.7383
605 1 -1.1104 6.76295 -1.32988 26.2471
627 2 2.2208 10.9143 -0.0524585 22.3019
628 1 -1.1104 11.9576 -4.12431 23.7234
630 1 -1.1104 12.2361 -3.94764 26.15
632 1 -1.1104 12.592 -1.45552 23.4716
633 2 2.2208 10.7864 -2.59964 24.8405
635 1 -1.1104 12.229 -1.38193 26.2068
636 1 -1.1104 9.36532 -4.01618 23.5452
638 2 2.2208 8.05339 0.29698 24.9871
639 1 -1.1104 9.39319 -4.25381 26.3825
641 2 2.2208 8.14063 -2.68221 22.1768
643 1 -1.1104 9.60571 -1.05008 23.6147
644 1 -1.1104 9.46911 -1.37264 26.4547
590 1 -1.1104 9.42406 18.1247 26.2893
9085 2 2.2208 2.29704 -5.69078 19.3084
489 1 -1.1104 3.83438 7.26055 20.6312
366 2 2.2208 2.23986 2.75235 27.6359
415 1 -1.1104 4.0067 1.35524 20.819
478 1 -1.1104 1.13787 3.88153 20.5074
593 1 -1.1104 0.925922 1.24312 23.6732
597 1 -1.1104 0.888753 1.35116 26.1243
603 2 2.2208 5.22495 2.75911 24.9632
607 1 -1.1104 3.80955 1.44175 23.5054
610 1 -1.1104 3.8728 1.43538 26.4831
612 2 2.2208 2.46297 2.67792 22.1705
656 2 2.2208 5.46181 5.76919 21.88
662 1 -1.1104 0.898719 3.99968 23.3464
667 1 -1.1104 1.08596 4.21061 26.129
672 2 2.2208 2.53251 5.7438 24.8304
676 1 -1.1104 3.62007 4.20431 23.2749
678 1 -1.1104 4.05924 4.37553 26.1007
674 1 -1.1104 4.0427 7.35273 26.1941
658 1 -1.1104 1.11939 7.11115 23.6147
659 1 -1.1104 6.82886 6.96825 23.3884
671 1 -1.1104 4.0593 7.05952 23.4748
660 1 -1.1104 1.04369 6.97577 26.4277
664 1 -1.1104 6.64656 4.17264 23.2867
669 1 -1.1104 6.9525 4.21237 26.237
595 1 -1.1104 6.62042 1.39156 23.5845
599 1 -1.1104 6.61434 1.42955 26.2947
516 1 -1.1104 9.52065 7.41068 20.7972
379 2 2.2208 5.36356 5.71784 27.7005
661 1 -1.1104 6.71792 6.89051 26.0202
471 1 -1.1104 6.72169 6.90602 20.3716
449 1 -1.1104 9.52779 1.27309 20.5807
629 1 -1.1104 12.3141 1.22079 23.5834
631 1 -1.1104 12.2314 1.35582 26.3269
634 2 2.2208 10.9523 3.03465 24.9769
637 1 -1.1104 9.40265 1.81379 23.7006
640 1 -1.1104 9.61514 1.70105 26.539
642 2 2.2208 8.1464 2.86829 22.0791
688 1 -1.1104 9.85266 4.61727 25.9642
690 1 -1.1104 9.60832 4.47402 23.3704
694 2 2.2208 7.96487 5.5412 24.7389
695 2 2.2208 10.9887 5.89234 22.0029
699 1 -1.1104 12.4826 4.35256 23.5299
702 1 -1.1104 12.3506 4.40552 26.3639
697 1 -1.1104 12.2417 7.14124 23.3811
704 1 -1.1104 9.49035 7.3677 23.5307
692 1 -1.1104 9.45869 7.23614 26.408
698 1 -1.1104 12.4956 7.31824 26.1947
347 2 2.2208 8.07644 14.3631 27.7188
646 2 2.2208 -0.299686 14.0133 24.7924
480 1 -1.1104 0.796381 9.69666 20.613
484 1 -1.1104 6.62153 9.88827 20.4382
657 2 2.2208 5.06513 11.3733 21.9913
663 1 -1.1104 0.943677 9.86447 23.2064
666 2 2.2208 5.55732 8.56796 24.6159
668 1 -1.1104 0.950432 9.70187 26.2628
673 2 2.2208 2.44222 11.1258 24.7757
675 2 2.2208 2.37475 8.46456 21.8622
677 1 -1.1104 3.90122 9.62787 23.1569
679 1 -1.1104 3.99468 10.1183 25.9772
681 1 -1.1104 3.71488 12.9168 26.254
706 1 -1.1104 0.841139 12.7571 23.4517
713 1 -1.1104 3.76136 12.431 23.4831
717 1 -1.1104 1.14093 12.2476 26.2017
670 1 -1.1104 6.81173 9.88485 26.3141
712 1 -1.1104 6.71531 12.9377 26.2471
665 1 -1.1104 6.77062 9.96746 23.2907
371 2 2.2208 -0.405558 17.1065 27.6894
647 2 2.2208 2.33985 14.0996 21.9501
386 2 2.2208 10.9787 11.337 27.7875
709 1 -1.1104 6.45318 12.8168 23.418
523 1 -1.1104 9.454 10.0749 20.3322
589 1 -1.1104 9.57545 12.6854 26.0226
687 1 -1.1104 9.52439 9.90189 26.5979
689 1 -1.1104 9.62716 9.90545 23.1746
691 2 2.2208 8.08495 8.76621 21.9262
693 2 2.2208 8.02668 11.5365 24.9455
696 2 2.2208 11.0009 11.5833 22.034
700 1 -1.1104 12.4189 9.94429 23.5114
701 2 2.2208 10.872 8.80901 24.8348
703 1 -1.1104 12.4089 10.0828 26.1584
561 1 -1.1104 9.22777 12.8077 23.5094
463 1 -1.1104 12.1843 12.7341 23.4043
498 1 -1.1104 12.2652 12.798 26.289
364 2 2.2208 5.2393 0.012495 27.7226
8940 2 2.2208 10.9145 -5.62899 27.5432
539 1 -1.1104 6.71703 18.495 20.6878
624 2 2.2208 -0.483007 -3.07856 24.8425
720 2 2.2208 5.39193 14.185 24.8488
649 2 2.2208 2.53252 19.8887 22.2089
652 1 -1.1104 3.86904 15.4814 23.5494
655 1 -1.1104 1.11491 15.4824 23.4931
682 1 -1.1104 4.0068 15.7446 26.1648
683 2 2.2208 2.58291 17.1461 24.8873
686 1 -1.1104 3.92802 18.4275 26.2534
705 2 2.2208 5.27529 16.9533 22.2044
707 1 -1.1104 1.38084 18.5291 23.7442
711 1 -1.1104 4.17484 18.3527 23.3463
715 1 -1.1104 1.18502 18.3156 26.3358
716 1 -1.1104 1.00069 15.3153 26.3947
719 2 2.2208 5.3113 19.6964 24.9067
497 1 -1.1104 12.2521 18.3677 23.8642
374 2 2.2208 5.29749 17.0798 27.5901
562 1 -1.1104 9.63989 18.6166 23.6344
615 2 2.2208 8.03676 13.9728 21.8718
462 2 2.2208 10.9651 17.0599 22.4078
680 1 -1.1104 6.47757 15.4352 23.3761
587 2 2.2208 8.16818 16.994 24.9539
526 2 2.2208 10.96 20.0043 24.9129
718 1 -1.1104 6.88052 18.2347 23.4038
620 1 -1.1104 9.43005 15.4888 26.2331
524 1 -1.1104 12.2352 15.5882 23.5542
525 2 2.2208 10.8586 14.2113 24.7758
560 1 -1.1104 12.5222 15.722 26.4596
8944 2 2.2208 5.29657 -5.6008 27.6733
421 2 2.2208 -0.335099 5.53319 22.0436
457 2 2.2208 -0.458633 14.2072 19.157
9018 2 2.2208 13.5188 -5.52916 24.9779
424 2 2.2208 -0.492628 -0.128081 16.523
623 2 2.2208 -0.217015 17.0567 22.039
428 2 2.2208 13.4604 0.0990803 19.1832
427 2 2.2208 -0.418764 2.75551 19.4329
9020 2 2.2208 5.23132 -5.76337 22.2239
458 2 2.2208 -0.373203 19.8938 19.237
9055 2 2.2208 7.93502 -5.53157 19.3884
9056 2 2.2208 10.7965 -5.64302 16.3187
423 2 2.2208 13.607 2.94807 22.0204
460 2 2.2208 13.6784 19.8298 16.4521
429 2 2.2208 13.5492 2.78406 16.4442
9087 2 2.2208 -0.368173 -5.69713 16.4386
645 2 2.2208 -0.167484 19.7638 25.0205
625 2 2.2208 -0.359695 -0.180506 22.1789
653 2 2.2208 13.6198 -2.73195 22.1262
334 2 2.2208 -0.395723 -2.81009 13.6805
368 2 2.2208 -0.383227 0.0401737 27.6713
383 2 2.2208 -0.417253 5.58994 27.5866
459 2 2.2208 13.5186 -2.68921 16.5672
335 2 2.2208 -0.376263 19.942 13.7696
721 2 2.2208 5.15923 22.6193 5.16288
723 1 -1.1104 0.924042 24.0194 0.82154
724 1 -1.1104 1.11237 24.1459 3.63942
725 1 -1.1104 0.830173 21.277 1.0127
727 2 2.2208 4.99503 25.7308 2.64139
728 1 -1.1104 1.1351 21.2197 3.67589
730 1 -1.1104 3.90071 24.033 0.846609
731 2 2.2208 2.32159 22.6739 2.27143
733 1 -1.1104 3.7571 24.2365 3.69179
734 2 2.2208 2.32066 25.5517 5.0523
735 1 -1.1104 3.74275 21.5015 0.713093
737 1 -1.1104 3.63583 20.9947 3.42172
738 1 -1.1104 3.63388 27.0526 3.85977
726 1 -1.1104 0.465023 26.8705 0.818132
862 1 -1.1104 0.96908 24.1076 6.45143
864 1 -1.1104 1.15121 21.4021 6.48716
868 1 -1.1104 3.91384 24.1402 6.43995
866 1 -1.1104 6.63986 21.0107 6.24624
743 1 -1.1104 6.71986 24.179 3.77378
865 1 -1.1104 0.700168 27.0031 6.49856
870 1 -1.1104 3.65269 27.0196 6.52464
869 1 -1.1104 3.93196 21.3717 6.47339
1070 2 2.2208 4.88431 28.2974 -0.262637
746 1 -1.1104 6.57476 21.2004 3.62087
742 1 -1.1104 6.46831 24.0678 1.12367
744 1 -1.1104 6.83804 21.3172 0.945628
748 2 2.2208 10.8109 22.8693 5.17677
750 1 -1.1104 12.2977 24.0334 0.641024
751 1 -1.1104 12.2143 24.1625 3.48613
752 1 -1.1104 12.2583 21.3399 0.749649
754 2 2.2208 10.9758 25.4626 2.33252
755 1 -1.1104 12.1302 21.3513 3.66861
757 1 -1.1104 9.63375 23.9908 1.20148
758 2 2.2208 8.11112 22.705 2.39531
760 1 -1.1104 9.3213 24.0392 3.79955
761 2 2.2208 7.99947 25.5467 5.02564
762 1 -1.1104 9.55745 21.3385 0.63773
764 1 -1.1104 9.45321 21.1938 3.66382
763 1 -1.1104 9.07011 26.621 1.13
756 1 -1.1104 12.2915 26.8598 4.01757
765 1 -1.1104 9.37503 27.0467 3.89921
863 1 -1.1104 6.55498 24.0966 6.5155
896 1 -1.1104 12.2714 21.2888 6.4047
897 1 -1.1104 12.0437 26.8825 6.65905
753 1 -1.1104 12.2604 26.9885 0.98318
895 1 -1.1104 12.2575 23.9335 6.60245
1019 1 -1.1104 12.2488 43.3582 12.1277
736 1 -1.1104 3.51755 26.6627 0.900756
729 1 -1.1104 0.724921 26.8133 3.62476
722 2 2.2208 5.14643 28.2905 5.19206
732 2 2.2208 2.34278 28.3422 2.45432
770 1 -1.1104 0.892441 29.7543 0.763581
773 1 -1.1104 0.775441 29.6355 3.6942
776 1 -1.1104 0.863086 32.3926 0.800552
777 2 2.2208 5.14666 31.2112 2.1668
779 1 -1.1104 0.663641 32.6241 3.78997
781 1 -1.1104 3.70105 29.6939 1.02139
784 1 -1.1104 3.68052 29.7502 3.74595
786 2 2.2208 2.25481 31.367 5.18627
788 1 -1.1104 3.60515 32.7571 0.656154
789 1 -1.1104 3.7377 32.6643 3.2841
919 1 -1.1104 0.836408 29.6818 6.67244
923 1 -1.1104 0.720667 32.8138 6.52986
927 1 -1.1104 3.71985 32.4396 6.42987
925 1 -1.1104 3.69032 29.8656 6.62946
921 1 -1.1104 6.57545 29.7479 6.36198
747 1 -1.1104 6.55595 26.998 3.92186
795 1 -1.1104 6.35521 32.4875 0.718636
793 1 -1.1104 6.59363 29.6978 0.856196
1054 2 2.2208 2.18614 45.2768 13.4738
1050 2 2.2208 5.24361 36.945 13.421
792 2 2.2208 -0.458765 36.8158 2.18832
745 1 -1.1104 6.27686 27.007 1.05891
867 1 -1.1104 6.36103 26.9418 6.77531
794 1 -1.1104 6.59607 29.5198 3.52842
780 1 -1.1104 6.51919 32.6231 3.70275
749 2 2.2208 10.9144 28.4824 5.2263
759 2 2.2208 8.07404 28.3478 2.24611
797 1 -1.1104 11.9625 29.6671 0.903254
799 1 -1.1104 12.0553 29.6945 3.75427
801 1 -1.1104 12.2403 32.2872 0.712343
802 2 2.2208 10.9169 31.2051 2.22421
804 1 -1.1104 12.0634 32.513 3.77485
805 1 -1.1104 9.38178 29.59 0.663035
808 1 -1.1104 9.30034 29.9706 3.38113
810 2 2.2208 7.88505 31.125 4.95728
812 1 -1.1104 9.49259 32.4347 0.744597
813 1 -1.1104 9.07283 32.8489 3.57476
955 1 -1.1104 11.7755 32.4528 6.43735
958 1 -1.1104 9.08395 32.3208 6.33148
956 1 -1.1104 9.41125 29.6186 6.4214
953 1 -1.1104 12.1381 29.7692 6.73717
1028 2 2.2208 10.9473 45.1435 10.6634
769 2 2.2208 5.26733 34.1868 5.03225
771 1 -1.1104 0.72499 35.0969 0.785814