ITEM: TIMESTEP
100000
ITEM: NUMBER OF ATOMS
18000
ITEM: BOX BOUNDS xy xz yz pp pp pp
-2.1523553786093183e-01 2.8109235537861153e+01 0.0000000000000000e+00
-3.1716074779633510e+00 3.3789960747796488e+02 0.0000000000000000e+00
-2.4168331375828953e-01 2.8135683313757376e+01 0.0000000000000000e+00
ITEM: ATOMS id type q mass x y z
768 2 2.2208 232.038 13.9793 11.1488 -0.253386
242 1 -1.1104 15.9994 -0.0215829 8.52912 7.92369
373 3 -1.1104 15.9994 6.55787 21.0637 4.32499
4 3 -1.1104 15.9994 1.82541 6.50711 9.18924
9249 1 -1.1104 15.9994 -0.0195756 19.3083 1.91663
384 4 2.2208 232.038 2.86893 16.9593 2.39148
162 1 -1.1104 15.9994 13.243 1.05755 0.717202
8 2 2.2208 232.038 5.27356 -0.228349 4.49522
212 1 -1.1104 15.9994 3.66476 20.921 5.70459
276 1 -1.1104 15.9994 -0.0255224 16.5949 4.96907
383 3 -1.1104 15.9994 9.7957 7.00206 4.16029
12 3 -1.1104 15.9994 2.48153 5.89766 2.7772
13 2 2.2208 232.038 3.95986 2.45875 2.1644
14 3 -1.1104 15.9994 12.304 18.7839 4.11803
15 3 -1.1104 15.9994 4.56784 4.49372 12.373
16 3 -1.1104 15.9994 12.3622 7.34867 3.98681
17 2 2.2208 232.038 10.6698 -0.482507 5.6456
18 2 2.2208 232.038 8.34171 1.97445 4.9665
363 3 -1.1104 15.9994 0.50163 12.9348 3.6497
20 2 2.2208 232.038 10.4966 2.68889 2.15314
21 3 -1.1104 15.9994 10.3709 4.17555 3.90181
22 3 -1.1104 15.9994 4.26489 3.96781 7.08184
23 2 2.2208 232.038 2.13771 6.105 5.06365
24 3 -1.1104 15.9994 3.67249 18.4611 7.03002
25 3 -1.1104 15.9994 9.355 1.64158 6.79481
390 4 2.2208 232.038 11.0888 11.3652 2.37717
27 2 2.2208 232.038 5.31745 6.54109 2.43551
28 2 2.2208 232.038 5.26918 10.8427 2.57766
349 1 -1.1104 15.9994 9.8534 21.3584 12.7713
9263 1 -1.1104 15.9994 13.3581 -2.01981 9.8655
388 4 2.2208 232.038 11.016 16.8719 2.39201
9229 1 -1.1104 15.9994 0.140271 16.3278 0.474163
33 2 2.2208 232.038 2.62831 13.5976 2.784
34 3 -1.1104 15.9994 9.49113 18.2566 6.83879
46 4 2.2208 232.038 1.95959 -1.51842 4.56731
98 2 2.2208 232.038 5.60228 22.8437 8.79988
37 2 2.2208 232.038 8.36426 14.034 2.57455
38 2 2.2208 232.038 5.97362 16.8793 2.65708
39 4 2.2208 232.038 9.00065 -0.353389 11.4037
391 3 -1.1104 15.9994 1.39392 21.388 0.522574
370 4 2.2208 232.038 12.5091 -0.224727 2.61615
45 3 -1.1104 15.9994 7.85067 -2.57809 7.14229
43 2 2.2208 232.038 2.59781 20.33 2.38695
173 1 -1.1104 15.9994 1.021 9.78833 0.959188
354 4 2.2208 232.038 1.35547 0.376524 1.66876
32 3 -1.1104 15.9994 -0.106249 2.31804 5.40672
47 2 2.2208 232.038 8.43765 19.701 2.45664
378 4 2.2208 232.038 8.46546 8.42334 2.63238
49 3 -1.1104 15.9994 4.25621 12.3236 3.95418
380 4 2.2208 232.038 11.2245 5.81848 2.459
129 1 -1.1104 15.9994 3.93993 -1.71769 5.80543
52 2 2.2208 232.038 2.08579 2.07251 4.83732
377 4 2.2208 232.038 5.48928 4.21438 4.7305
54 3 -1.1104 15.9994 6.99197 13.1188 4.59471
348 1 -1.1104 15.9994 7.01679 21.2168 12.5237
56 2 2.2208 232.038 7.80582 -0.186172 7.4861
387 4 2.2208 232.038 5.32674 14.4235 4.93018
58 2 2.2208 232.038 2.75829 -1.06529 8.0052
227 1 -1.1104 15.9994 9.69715 -2.49067 10.1205
60 2 2.2208 232.038 12.0864 -0.208968 8.6247
103 2 2.2208 232.038 5.60449 -3.11415 12.9845
62 2 2.2208 232.038 2.23571 4.23928 8.23766
63 2 2.2208 232.038 2.46461 1.72534 10.8418
394 3 -1.1104 15.9994 11.5024 -0.478634 11.0338
65 2 2.2208 232.038 4.93719 1.94972 7.66147
66 2 2.2208 232.038 8.81083 5.47093 5.29981
67 2 2.2208 232.038 8.9337 2.92282 8.4877
68 2 2.2208 232.038 5.6438 5.7554 8.32218
69 2 2.2208 232.038 12.0361 2.81252 5.41416
70 2 2.2208 232.038 11.1498 5.67582 8.4064
389 3 -1.1104 15.9994 12.4485 18.4522 1.38241
72 2 2.2208 232.038 2.7819 11.1987 5.44866
73 2 2.2208 232.038 2.84384 8.39429 8.63211
375 3 -1.1104 15.9994 5.37859 4.40811 2.34879
75 2 2.2208 232.038 5.48099 8.36668 5.43882
76 2 2.2208 232.038 8.16348 11.3234 5.41806
77 2 2.2208 232.038 8.57396 8.40569 8.41913
78 2 2.2208 232.038 5.46984 10.6796 8.08227
79 2 2.2208 232.038 11.1656 8.65622 5.42381
80 2 2.2208 232.038 11.1484 11.3558 8.30902
9384 2 2.2208 232.038 0.0220855 10.8895 8.38247
82 2 2.2208 232.038 2.25465 16.7831 5.69636
83 2 2.2208 232.038 2.484 13.7817 8.29371
393 3 -1.1104 15.9994 7.2756 4.41868 9.19146
85 2 2.2208 232.038 5.50274 14.0977 8.25007
86 2 2.2208 232.038 8.43509 16.7963 5.62504
87 2 2.2208 232.038 8.6453 13.9098 8.40109
88 2 2.2208 232.038 5.06032 17.3535 8.47501
89 2 2.2208 232.038 11.3786 14.057 5.38354
90 2 2.2208 232.038 11.1278 17.0653 8.38328
209 1 -1.1104 15.9994 4.19123 22.4932 3.81185
135 1 -1.1104 15.9994 10.4116 -1.26238 3.41417
93 2 2.2208 232.038 2.92775 20.355 8.21819
381 3 -1.1104 15.9994 3.75792 12.9251 0.965248
95 2 2.2208 232.038 5.26479 19.2121 5.44973
8411 3 -1.1104 15.9994 5.48779 -2.5909 10.6996
97 2 2.2208 232.038 8.06929 19.9292 8.28405
207 1 -1.1104 15.9994 4.53844 21.2648 1.06299
99 2 2.2208 232.038 10.922 19.8204 5.52517
379 3 -1.1104 15.9994 6.82333 6.3446 6.59607
343 1 -1.1104 15.9994 9.63831 18.5635 12.503
155 1 -1.1104 15.9994 9.5923 2.25397 0.176412
184 1 -1.1104 15.9994 12.492 9.84464 0.88
134 1 -1.1104 15.9994 8.31899 -2.80275 2.87362
374 4 2.2208 232.038 2.35977 8.25107 2.06321
190 1 -1.1104 15.9994 4.44631 16.8382 4.54639
107 2 2.2208 232.038 2.78122 5.8104 11.6703
108 2 2.2208 232.038 6.05997 3.32188 10.9911
109 2 2.2208 232.038 8.66309 5.89799 11.3001
110 2 2.2208 232.038 11.1163 2.64943 11.3955
369 3 -1.1104 15.9994 11.9062 4.35072 0.841081
112 2 2.2208 232.038 2.69885 11.307 11.237
113 2 2.2208 232.038 5.58191 8.52203 11.2356
114 2 2.2208 232.038 8.22724 11.3837 11.2607
115 2 2.2208 232.038 11.45 8.58803 11.4609
345 1 -1.1104 15.9994 12.5238 18.5241 12.6295
117 2 2.2208 232.038 2.7434 17.0219 11.1905
118 2 2.2208 232.038 5.66364 14.2094 11.5146
119 2 2.2208 232.038 8.4128 17.117 11.1959
120 2 2.2208 232.038 11.1171 14.2054 11.3893
368 4 2.2208 232.038 7.40562 3.32426 1.49292
185 1 -1.1104 15.9994 12.743 12.8349 3.96835
123 2 2.2208 232.038 5.46662 19.8831 11.276
217 1 -1.1104 15.9994 4.56764 1.64169 10.1543
125 2 2.2208 232.038 11.113 19.9206 11.306
347 1 -1.1104 15.9994 4.12042 21.2612 12.6935
127 1 -1.1104 15.9994 3.27243 0.923514 0.332586
224 1 -1.1104 15.9994 5.03528 -0.61319 8.18176
145 1 -1.1104 15.9994 12.7627 4.84248 3.88062
8579 1 -1.1104 15.9994 1.08493 -1.87031 2.13028
350 1 -1.1104 15.9994 12.7913 21.2883 12.5491
132 1 -1.1104 15.9994 3.13854 0.43675 3.30445
133 1 -1.1104 15.9994 6.12713 -0.543396 2.44427
203 1 -1.1104 15.9994 12.427 15.5655 3.74172
353 3 -1.1104 15.9994 7.18437 6.94998 9.69063
9 3 -1.1104 15.9994 9.6239 20.9132 3.92806
124 2 2.2208 232.038 8.37528 22.616 11.2732
138 1 -1.1104 15.9994 8.49379 -0.4549 4.92499
139 1 -1.1104 15.9994 7.63034 -0.380195 0.276907
140 1 -1.1104 15.9994 6.48233 0.746308 6.13743
141 1 -1.1104 15.9994 10.6346 1.4157 4.34318
346 1 -1.1104 15.9994 1.26224 21.5171 12.3851
9352 1 -1.1104 15.9994 13.1055 -1.63672 12.9823
9049 3 -1.1104 15.9994 0.340054 1.84879 10.2163
367 4 2.2208 232.038 4.98652 -0.658486 0.5699
219 1 -1.1104 15.9994 3.07589 -0.593013 10.3621
147 1 -1.1104 15.9994 3.19868 3.96249 0.597568
376 3 -1.1104 15.9994 3.78291 10.0809 0.86585
149 1 -1.1104 15.9994 5.84453 2.0369 3.76855
9377 3 -1.1104 15.9994 2.35823 18.6025 0.73586
985 1 -1.1104 15.9994 3.59326 22.6728 7.36816
344 1 -1.1104 15.9994 12.7105 15.5893 12.2747
153 1 -1.1104 15.9994 1.52837 2.50268 2.66073
154 1 -1.1104 15.9994 8.50611 1.82704 2.82458
671 1 -1.1104 15.9994 3.47695 -1.9357 -0.0811828
156 1 -1.1104 15.9994 12.1981 1.62289 7.3952
157 1 -1.1104 15.9994 10.5964 0.152517 1.28389
386 3 -1.1104 15.9994 4.79676 16.9896 0.610617
96 2 2.2208 232.038 8.73562 22.7679 5.09914
160 1 -1.1104 15.9994 1.69039 3.97496 6.16484
161 1 -1.1104 15.9994 9.31772 4.53066 1.44748
100 2 2.2208 232.038 10.9949 22.5862 8.35748
235 1 -1.1104 15.9994 12.6995 1.5556 10.0736
371 3 -1.1104 15.9994 1.11936 6.71643 0.600379
187 1 -1.1104 15.9994 2.70033 15.2432 0.96367
398 4 2.2208 232.038 5.92076 22.5676 2.47787
167 1 -1.1104 15.9994 2.4443 8.48829 5.53963
168 1 -1.1104 15.9994 1.33856 12.8049 6.57146
169 1 -1.1104 15.9994 7.08384 6.95713 1.23218
170 1 -1.1104 15.9994 0.948455 12.7895 0.917117
171 1 -1.1104 15.9994 4.41564 14.9611 2.73712
192 1 -1.1104 15.9994 0.936529 20.9779 4.04729
8592 1 -1.1104 15.9994 9.86932 -2.43297 0.812228
174 1 -1.1104 15.9994 6.61976 9.56244 1.13741
175 1 -1.1104 15.9994 9.85075 7.3045 1.21456
176 1 -1.1104 15.9994 4.56554 8.49161 3.25511
177 1 -1.1104 15.9994 6.90738 7.16964 4.0495
178 1 -1.1104 15.9994 6.7681 12.3673 1.50962
179 1 -1.1104 15.9994 9.67535 9.89994 1.17446
180 1 -1.1104 15.9994 6.96485 10.0086 3.78585
181 1 -1.1104 15.9994 9.81006 12.7502 3.9729
182 1 -1.1104 15.9994 12.4869 10.1146 4.00962
561 1 -1.1104 15.9994 12.6503 9.92113 13.0525
102 2 2.2208 232.038 2.81494 -0.86931 13.0453
410 2 2.2208 232.038 5.39281 19.5715 -0.204269
186 1 -1.1104 15.9994 1.04434 15.4268 2.92911
9518 1 -1.1104 15.9994 0.670743 -2.20922 12.0298
188 1 -1.1104 15.9994 2.35049 10.6562 3.3059
189 1 -1.1104 15.9994 2.87691 14.7782 4.78028
136 1 -1.1104 15.9994 6.26108 -2.23629 4.75993
191 1 -1.1104 15.9994 4.19747 18.8934 3.14065
236 1 -1.1104 15.9994 0.027848 4.06052 8.41864
193 1 -1.1104 15.9994 7.0755 18.4744 4.20682
194 1 -1.1104 15.9994 7.03446 15.2257 1.25301
195 1 -1.1104 15.9994 9.87541 15.5789 0.93276
196 1 -1.1104 15.9994 7.27238 15.7909 4.01155
197 1 -1.1104 15.9994 12.5342 15.6459 1.05521
198 1 -1.1104 15.9994 6.80721 18.2475 1.22544
225 1 -1.1104 15.9994 10.6239 -2.87643 5.27776
200 1 -1.1104 15.9994 9.86971 15.3458 3.74286
201 1 -1.1104 15.9994 12.4383 21.2663 2.90511
312 1 -1.1104 15.9994 5.55053 -0.758985 12.7178
105 2 2.2208 232.038 11.7152 -2.79629 11.3774
358 4 2.2208 232.038 8.49051 -0.598889 2.23136
8871 1 -1.1104 15.9994 0.976279 0.588891 12.6453
8669 1 -1.1104 15.9994 3.7712 -3.12001 8.19871
8717 3 -1.1104 15.9994 6.17961 -2.55358 0.749895
205 1 -1.1104 15.9994 11.0059 23.0195 4.97468
385 3 -1.1104 15.9994 9.39741 12.7188 1.12174
210 1 -1.1104 15.9994 7.10624 21.0526 1.00059
211 1 -1.1104 15.9994 9.67433 21.3166 0.874013
36 3 -1.1104 15.9994 12.747 -0.313253 5.24561
166 1 -1.1104 15.9994 0.58516 8.00177 3.56942
42 3 -1.1104 15.9994 1.59793 -2.36889 6.68631
158 1 -1.1104 15.9994 3.88164 7.16789 0.704642
341 1 -1.1104 15.9994 9.96981 15.4991 12.8979
8408 3 -1.1104 15.9994 3.28749 -2.75732 12.0966
232 1 -1.1104 15.9994 12.4069 -2.4459 7.46873
395 3 -1.1104 15.9994 9.60533 18.3779 1.12819
9060 4 2.2208 232.038 0.906507 4.45525 1.56286
221 1 -1.1104 15.9994 3.96517 1.27663 5.85846
222 1 -1.1104 15.9994 2.47487 1.81606 8.42226
223 1 -1.1104 15.9994 0.513664 -0.407978 8.60152
340 1 -1.1104 15.9994 7.05453 15.6124 12.7002
314 1 -1.1104 15.9994 10.1931 -1.83791 12.9673
226 1 -1.1104 15.9994 7.5252 -1.01225 9.68668
339 1 -1.1104 15.9994 4.28593 18.4173 12.5398
228 1 -1.1104 15.9994 6.87897 1.68812 9.08405
229 1 -1.1104 15.9994 9.91164 -1.10501 7.73066
230 1 -1.1104 15.9994 7.26579 1.48272 11.9182
231 1 -1.1104 15.9994 9.65846 1.26245 9.7878
172 1 -1.1104 15.9994 1.07536 15.571 7.31043
9063 3 -1.1104 15.9994 6.65311 15.4113 6.87208
234 1 -1.1104 15.9994 12.4193 2.3509 2.95261
9245 1 -1.1104 15.9994 1.7069 18.4761 3.70575
165 1 -1.1104 15.9994 13.0343 6.85748 1.24558
237 1 -1.1104 15.9994 3.56969 3.49749 4.0686
238 1 -1.1104 15.9994 4.4396 4.51752 9.7496
239 1 -1.1104 15.9994 9.88001 7.08445 7.04292
258 1 -1.1104 15.9994 0.325418 10.714 5.32326
241 1 -1.1104 15.9994 3.26464 6.20321 7.1671
774 2 2.2208 232.038 8.45224 5.91373 -0.238569
243 1 -1.1104 15.9994 4.36287 7.1425 9.8985
244 1 -1.1104 15.9994 7.36287 3.51588 6.54984
245 1 -1.1104 15.9994 9.84598 4.33172 7.01504
246 1 -1.1104 15.9994 3.46005 1.58408 12.8262
247 1 -1.1104 15.9994 10.063 4.41177 9.98618
248 1 -1.1104 15.9994 4.68468 6.22088 4.62731
249 1 -1.1104 15.9994 9.7989 9.99749 6.8664
250 1 -1.1104 15.9994 4.89275 8.49266 7.71024
251 1 -1.1104 15.9994 10.0124 7.41167 9.91127
308 1 -1.1104 15.9994 1.4745 3.95481 12.9814
253 1 -1.1104 15.9994 12.6361 4.31898 9.50879
254 1 -1.1104 15.9994 12.4738 7.20048 6.92207
255 1 -1.1104 15.9994 12.8122 6.96192 9.78411
256 1 -1.1104 15.9994 1.51628 9.29669 10.2013
257 1 -1.1104 15.9994 2.55032 10.8215 7.73164
342 1 -1.1104 15.9994 6.80902 18.3259 12.4963
259 1 -1.1104 15.9994 4.29808 10.1893 10.018
366 3 -1.1104 15.9994 5.6503 1.91709 0.700647
261 1 -1.1104 15.9994 4.38543 12.8518 6.83031
262 1 -1.1104 15.9994 1.0427 12.6104 9.6527
263 1 -1.1104 15.9994 6.55077 12.6576 10.0016
264 1 -1.1104 15.9994 5.02202 10.6181 5.66837
265 1 -1.1104 15.9994 9.64876 9.82962 4.13262
266 1 -1.1104 15.9994 7.04511 9.61786 9.71738
267 1 -1.1104 15.9994 9.9602 9.86528 10.0131
268 1 -1.1104 15.9994 7.1888 9.36754 6.94934
269 1 -1.1104 15.9994 9.54111 12.5676 6.82065
270 1 -1.1104 15.9994 7.33707 15.1867 9.88063
271 1 -1.1104 15.9994 9.73037 12.6126 9.9095
356 3 -1.1104 15.9994 3.72269 -1.97926 2.89706
273 1 -1.1104 15.9994 12.7228 10.1879 7.18282
274 1 -1.1104 15.9994 12.5124 12.7355 6.80247
275 1 -1.1104 15.9994 12.5272 13.0108 9.57741
220 1 -1.1104 15.9994 1.3896 0.416203 6.2371
277 1 -1.1104 15.9994 3.98463 15.7597 7.19858
278 1 -1.1104 15.9994 1.94605 15.1485 10.1199
279 1 -1.1104 15.9994 4.16983 13.0225 9.70419
280 1 -1.1104 15.9994 1.12091 18.4756 6.72642
313 1 -1.1104 15.9994 9.80164 1.48589 12.7039
282 1 -1.1104 15.9994 0.78798 17.9107 10.089
283 1 -1.1104 15.9994 3.5418 18.4531 9.68895
284 1 -1.1104 15.9994 6.96816 12.3371 7.42845
285 1 -1.1104 15.9994 9.68639 15.267 6.89849
286 1 -1.1104 15.9994 4.66346 15.6372 9.86684
287 1 -1.1104 15.9994 9.90691 15.8297 9.914
288 1 -1.1104 15.9994 6.68444 18.3524 7.04511
289 1 -1.1104 15.9994 9.65449 18.1051 3.83892
290 1 -1.1104 15.9994 6.71464 17.9649 9.79069
291 1 -1.1104 15.9994 9.60119 18.7292 9.78125
292 1 -1.1104 15.9994 12.3447 15.7008 6.76128
293 1 -1.1104 15.9994 12.9186 15.528 9.61913
294 1 -1.1104 15.9994 12.2632 18.5884 7.06331
295 1 -1.1104 15.9994 12.3779 18.4316 9.70059
296 1 -1.1104 15.9994 0.864697 21.2961 6.88128
143 1 -1.1104 15.9994 12.8351 -2.36737 3.29843
298 1 -1.1104 15.9994 1.43775 21.2543 9.69346
299 1 -1.1104 15.9994 4.14127 21.3075 10.0692
9070 3 -1.1104 15.9994 2.08123 3.99992 10.4726
301 1 -1.1104 15.9994 9.63422 21.2595 6.7034
302 1 -1.1104 15.9994 7.00502 21.4044 9.88954
303 1 -1.1104 15.9994 9.79726 21.4721 9.78683
304 1 -1.1104 15.9994 12.3554 21.2566 6.84942
305 1 -1.1104 15.9994 12.5177 21.3194 9.52991
9353 1 -1.1104 15.9994 12.7449 1.53012 12.8376
691 1 -1.1104 15.9994 7.73678 4.04446 4.00313
92 2 2.2208 232.038 2.0653 22.7144 5.13602
281 1 -1.1104 15.9994 7.21332 22.1138 6.90435
397 4 2.2208 232.038 5.26644 22.4194 5.77233
311 1 -1.1104 15.9994 7.66673 -2.51385 11.9918
400 4 2.2208 232.038 10.4949 22.7354 2.40411
131 1 -1.1104 15.9994 0.242431 0.178445 3.54065
202 1 -1.1104 15.9994 12.438 12.636 1.12653
146 1 -1.1104 15.9994 0.372126 2.29084 0.591799
9178 1 -1.1104 15.9994 12.6873 -2.43325 0.621634
104 2 2.2208 232.038 5.53237 -0.398207 10.439
318 1 -1.1104 15.9994 1.49107 7.13479 12.7655
319 1 -1.1104 15.9994 4.2517 7.39615 12.6645
320 1 -1.1104 15.9994 7.2665 4.45067 12.6518
321 1 -1.1104 15.9994 9.90183 4.44433 12.6859
322 1 -1.1104 15.9994 6.8946 7.16476 12.4302
323 1 -1.1104 15.9994 9.984 7.38621 12.6548
324 1 -1.1104 15.9994 12.6114 4.432 12.4166
325 1 -1.1104 15.9994 12.5898 7.23799 12.6902
326 1 -1.1104 15.9994 1.26324 9.96596 12.7037
327 1 -1.1104 15.9994 4.02966 9.91728 12.78
328 1 -1.1104 15.9994 1.32421 13.0772 12.5298
329 1 -1.1104 15.9994 4.07144 12.8304 12.6808
330 1 -1.1104 15.9994 6.84663 10.0992 12.6233
331 1 -1.1104 15.9994 9.69097 9.86441 12.7261
332 1 -1.1104 15.9994 7.1562 12.9027 12.8299
333 1 -1.1104 15.9994 9.98966 12.7991 12.7533
334 1 -1.1104 15.9994 12.6705 9.86521 9.92934
335 1 -1.1104 15.9994 12.8475 12.8238 12.4625
336 1 -1.1104 15.9994 0.927166 15.9852 12.3909
337 1 -1.1104 15.9994 4.14447 15.7779 12.7218
338 1 -1.1104 15.9994 1.13606 18.7533 12.5796
252 1 -1.1104 15.9994 12.6556 4.23071 6.93027
240 1 -1.1104 15.9994 0.128191 6.53265 6.29941
297 1 -1.1104 15.9994 5.6723 20.5116 7.52401
41 2 2.2208 232.038 13.5357 22.9476 5.51004
9080 2 2.2208 232.038 0.10295 10.6909 2.80889
399 3 -1.1104 15.9994 12.1625 22.3692 0.309862
306 1 -1.1104 15.9994 1.59811 -3.00671 9.58922
122 2 2.2208 232.038 2.61811 22.6957 11.2403
392 3 -1.1104 15.9994 8.40598 23.0262 2.93823
9281 1 -1.1104 15.9994 0.00045291 5.87403 11.1798
506 2 2.2208 232.038 5.20835 14.5537 -0.0257187
1 2 2.2208 232.038 -0.14108 17.1313 13.9285
121 2 2.2208 232.038 -0.167157 19.6803 10.8617
7 2 2.2208 232.038 13.7604 17.1118 11.034
19 2 2.2208 232.038 13.6531 17.2429 5.48424
372 2 2.2208 232.038 8.19885 2.69914 13.945
111 2 2.2208 232.038 -0.129936 8.59302 11.5305
116 2 2.2208 232.038 0.14644 14.3796 11.194
9374 2 2.2208 232.038 13.9789 2.87687 8.39243
9078 2 2.2208 232.038 13.8759 14.0843 2.36052
777 2 2.2208 232.038 11.1724 5.81744 13.935
702 1 -1.1104 15.9994 6.69843 4.669 -0.192387
30 2 2.2208 232.038 13.8534 8.87213 2.67689
9088 2 2.2208 232.038 13.8881 22.5936 1.84205
9379 2 2.2208 232.038 13.9261 8.70519 8.37326
152 1 -1.1104 15.9994 0.0394157 5.02371 3.71614
64 2 2.2208 232.038 -0.0621242 11.2284 13.8675
429 2 2.2208 232.038 -0.135997 22.6234 13.835
396 3 -1.1104 15.9994 5.72996 2.29718 14.7341
539 1 -1.1104 15.9994 4.16083 4.12084 18.3088
480 2 2.2208 232.038 5.32829 22.8205 19.5666
731 1 -1.1104 15.9994 4.0456 15.4212 26.3846
540 1 -1.1104 15.9994 10.3322 0.644827 16.9142
496 2 2.2208 232.038 8.31414 16.8431 28.0122
159 1 -1.1104 15.9994 7.6765 2.12255 26.23
466 2 2.2208 232.038 -0.165127 16.9382 19.4058
532 2 2.2208 232.038 11.2365 22.5383 24.6912
737 1 -1.1104 15.9994 9.69498 15.5513 23.84
486 2 2.2208 232.038 11.2444 14.1643 27.9285
351 2 2.2208 232.038 11.1732 22.6389 14.1724
749 1 -1.1104 15.9994 4.37143 21.0085 23.671
773 2 2.2208 232.038 5.37458 2.46394 26.9324
727 1 -1.1104 15.9994 12.6535 12.7644 26.8861
418 2 2.2208 232.038 13.7695 20.0165 19.72
676 1 -1.1104 15.9994 6.79848 -2.40337 23.4458
482 2 2.2208 232.038 11.0901 22.6652 19.6223
668 1 -1.1104 15.9994 0.840476 -1.90871 23.6926
489 2 2.2208 232.038 5.37058 8.49779 27.887
739 1 -1.1104 15.9994 9.86761 15.4205 26.5468
726 1 -1.1104 15.9994 12.7419 12.7062 24.2142
365 3 -1.1104 15.9994 5.18716 -0.160383 26.7884
753 1 -1.1104 15.9994 9.54556 21.0671 23.6399
748 1 -1.1104 15.9994 1.13758 21.4064 23.657
751 1 -1.1104 15.9994 3.9572 21.1336 26.8671
434 2 2.2208 232.038 2.53182 -0.251857 17.1853
530 2 2.2208 232.038 5.63679 22.7551 25.0564
730 1 -1.1104 15.9994 1.26433 15.5258 26.4028
747 1 -1.1104 15.9994 12.7307 18.408 26.4887
438 2 2.2208 232.038 8.41151 -0.23271 17.1205
733 1 -1.1104 15.9994 3.95089 18.3728 23.6038
440 2 2.2208 232.038 5.67845 -0.588156 19.2592
534 1 -1.1104 15.9994 3.95173 -2.57006 14.6268
442 2 2.2208 232.038 11.2428 -0.445414 19.5717
745 1 -1.1104 15.9994 12.7951 15.3674 26.6141
444 2 2.2208 232.038 2.56485 5.61075 17.1096
445 2 2.2208 232.038 3.02733 2.47954 19.467
757 1 -1.1104 15.9994 12.5168 21.023 26.1705
447 2 2.2208 232.038 5.76575 2.83674 17.092
448 2 2.2208 232.038 8.29986 5.43607 17.0253
449 2 2.2208 232.038 8.16805 2.58385 19.5521
450 2 2.2208 232.038 5.49977 5.2527 19.7475
451 2 2.2208 232.038 11.3245 2.78655 16.899
452 2 2.2208 232.038 11.0902 5.29646 20.0399
413 2 2.2208 232.038 13.7064 11.4505 22.3338
454 2 2.2208 232.038 2.68597 11.3226 16.9159
455 2 2.2208 232.038 2.36287 8.54964 19.5137
729 1 -1.1104 15.9994 4.00614 15.3969 23.7282
457 2 2.2208 232.038 5.7422 8.58092 16.8799
458 2 2.2208 232.038 8.53329 11.1858 16.7478
459 2 2.2208 232.038 8.30008 8.33067 19.6441
460 2 2.2208 232.038 5.31616 11.2098 19.6177
461 2 2.2208 232.038 11.0473 8.1997 17.2301
462 2 2.2208 232.038 11.0213 11.1677 19.8076
756 1 -1.1104 15.9994 12.4484 21.0686 23.3306
464 2 2.2208 232.038 2.79839 16.7878 16.752
465 2 2.2208 232.038 2.55513 13.9928 19.6101
750 1 -1.1104 15.9994 1.64252 21.2374 26.3481
467 2 2.2208 232.038 5.44954 14.1463 16.9938
468 2 2.2208 232.038 8.44796 16.9352 16.8341
469 2 2.2208 232.038 8.24182 14.219 19.8524
470 2 2.2208 232.038 5.39909 17.0974 19.5653
471 2 2.2208 232.038 11.334 14.0068 16.8851
472 2 2.2208 232.038 11.0566 16.912 19.5113
755 1 -1.1104 15.9994 9.51068 21.1668 26.3602
738 1 -1.1104 15.9994 6.92025 15.7336 26.6822
475 2 2.2208 232.038 2.70696 19.8634 19.6127
754 1 -1.1104 15.9994 6.83746 21.1738 26.447
477 2 2.2208 232.038 5.44726 19.8157 16.723
744 1 -1.1104 15.9994 12.4856 15.6691 23.6468
479 2 2.2208 232.038 8.27667 19.8982 19.6057
735 1 -1.1104 15.9994 4.15798 18.2499 26.2851
481 2 2.2208 232.038 11.363 19.7657 16.4598
743 1 -1.1104 15.9994 9.68425 18.4025 26.2351
752 1 -1.1104 15.9994 6.86954 21.1487 23.6567
484 2 2.2208 232.038 2.5808 -0.710845 21.8951
404 2 2.2208 232.038 -0.120248 5.68436 14.2528
580 1 -1.1104 15.9994 0.882522 -1.69226 17.8224
742 1 -1.1104 15.9994 6.71457 18.3516 26.7348
488 2 2.2208 232.038 8.20583 -0.710897 22.1688
588 1 -1.1104 15.9994 7.06525 -2.32546 20.9728
490 2 2.2208 232.038 5.46229 -0.768427 24.3777
762 2 2.2208 232.038 2.72268 -0.453335 26.5976
492 2 2.2208 232.038 11.4173 -0.554183 24.8915
764 2 2.2208 232.038 8.22709 -0.0634202 26.4943
494 2 2.2208 232.038 2.64106 5.65281 22.464
495 2 2.2208 232.038 3.02187 2.41783 23.9337
422 2 2.2208 232.038 11.3882 11.3548 13.9556
497 2 2.2208 232.038 5.72765 2.38067 22.1487
498 2 2.2208 232.038 8.43242 5.56684 22.4197
499 2 2.2208 232.038 8.56141 2.16987 24.2077
500 2 2.2208 232.038 5.32892 5.82777 24.9882
501 2 2.2208 232.038 11.2218 2.22268 22.0423
502 2 2.2208 232.038 11.2159 5.55752 25.4063
732 1 -1.1104 15.9994 1.27886 18.3992 23.8304
504 2 2.2208 232.038 2.58546 11.1921 22.3456
505 2 2.2208 232.038 2.63653 8.65197 25.2387
674 1 -1.1104 15.9994 0.756319 0.719157 21.2191
507 2 2.2208 232.038 5.36602 8.43164 22.2627
508 2 2.2208 232.038 8.22636 11.4229 22.468
509 2 2.2208 232.038 8.12698 8.58765 25.0328
510 2 2.2208 232.038 5.55156 11.4888 25.1842
511 2 2.2208 232.038 10.9857 8.44267 22.456
512 2 2.2208 232.038 11.1183 11.2403 25.2569
741 1 -1.1104 15.9994 9.79908 18.3098 23.7666
514 2 2.2208 232.038 2.41162 17.0403 22.3099
515 2 2.2208 232.038 2.61989 14.0202 25.0763
473 2 2.2208 232.038 -0.0325862 19.7244 16.6056
517 2 2.2208 232.038 5.38562 14.1101 22.4104
518 2 2.2208 232.038 8.28365 17.0806 22.6405
519 2 2.2208 232.038 8.40421 14.0796 25.1152
520 2 2.2208 232.038 5.50573 16.804 25.2237
521 2 2.2208 232.038 11.0042 14.2154 22.3216
522 2 2.2208 232.038 11.228 17.1249 25.1652
734 1 -1.1104 15.9994 1.3537 18.4576 26.3977
412 2 2.2208 232.038 2.64821 22.7822 27.7931
525 2 2.2208 232.038 2.67821 19.8516 24.8844
740 1 -1.1104 15.9994 6.90758 18.4247 23.8962
527 2 2.2208 232.038 5.60657 19.7784 22.33
736 1 -1.1104 15.9994 7.00917 15.765 24.0066
529 2 2.2208 232.038 8.0355 19.7377 25.1657
725 1 -1.1104 15.9994 12.5563 9.74044 26.7381
531 2 2.2208 232.038 10.944 19.8471 22.2567
746 1 -1.1104 15.9994 12.541 18.4425 23.5881
485 2 2.2208 232.038 8.07053 11.3384 28.1087
426 2 2.2208 232.038 13.8073 5.55642 16.8093
360 2 2.2208 232.038 11.0582 -0.146301 14.4897
536 1 -1.1104 15.9994 5.94893 0.274953 16.9417
728 1 -1.1104 15.9994 1.26006 15.5448 23.6322
538 1 -1.1104 15.9994 9.67186 -1.95924 15.5744
758 2 2.2208 232.038 11.0779 8.65898 28.0251
317 1 -1.1104 15.9994 6.87053 4.32654 18.4879
775 2 2.2208 232.038 11.193 2.73105 27.3739
542 1 -1.1104 15.9994 12.6607 1.29896 15.5643
772 2 2.2208 232.038 3.00414 5.75805 27.4803
544 1 -1.1104 15.9994 3.48945 2.14798 16.9946
545 1 -1.1104 15.9994 1.51615 6.88973 15.5175
546 1 -1.1104 15.9994 4.68292 7.36098 15.3487
547 1 -1.1104 15.9994 6.74233 4.42443 15.7549
548 1 -1.1104 15.9994 9.65336 3.22047 15.3199
549 1 -1.1104 15.9994 7.47646 6.74581 15.116
550 1 -1.1104 15.9994 10.0625 6.56349 15.764
551 1 -1.1104 15.9994 12.2084 4.21558 15.4526
552 1 -1.1104 15.9994 10.2214 9.93736 15.4856
553 1 -1.1104 15.9994 1.27304 9.64839 15.4813
554 1 -1.1104 15.9994 4.19416 10.2094 15.7098
555 1 -1.1104 15.9994 1.32284 12.4817 15.4443
556 1 -1.1104 15.9994 4.38075 12.851 15.5984
557 1 -1.1104 15.9994 7.03598 9.70724 15.2583
558 1 -1.1104 15.9994 9.6047 9.59915 18.4069
559 1 -1.1104 15.9994 7.02065 12.7277 15.467
560 1 -1.1104 15.9994 9.79009 12.5948 15.4214
408 2 2.2208 232.038 8.25387 22.4933 27.7675
562 1 -1.1104 15.9994 12.5139 12.7248 15.3696
563 1 -1.1104 15.9994 1.35287 15.5201 15.1223
564 1 -1.1104 15.9994 4.26862 15.6786 15.361
565 1 -1.1104 15.9994 1.39513 18.3616 15.1639
566 1 -1.1104 15.9994 4.11689 18.5138 15.2736
567 1 -1.1104 15.9994 6.94041 15.4141 15.4541
568 1 -1.1104 15.9994 9.8821 15.6014 15.5029
569 1 -1.1104 15.9994 6.96031 18.4921 15.5678
570 1 -1.1104 15.9994 10.1283 18.5183 15.1264
571 1 -1.1104 15.9994 12.6071 15.4914 15.2785
572 1 -1.1104 15.9994 12.9418 18.3056 15.0538
573 1 -1.1104 15.9994 1.0612 21.1027 15.2214
574 1 -1.1104 15.9994 3.96471 21.2556 15.2678
575 1 -1.1104 15.9994 6.78499 21.2265 15.2915
576 1 -1.1104 15.9994 9.67104 21.1276 15.2741
577 1 -1.1104 15.9994 12.4879 21.4711 15.2997
361 3 -1.1104 15.9994 1.04688 1.2378 18.316
579 1 -1.1104 15.9994 3.53702 -2.17714 17.7975
359 3 -1.1104 15.9994 9.78925 -1.86269 26.5263
406 2 2.2208 232.038 5.83076 -0.014242 14.6871
581 1 -1.1104 15.9994 3.63401 -2.6179 23.1375
414 2 2.2208 232.038 -0.0673785 19.6921 27.8603
584 1 -1.1104 15.9994 1.14126 -2.11766 20.5428
585 1 -1.1104 15.9994 3.36103 1.45195 21.9761
586 1 -1.1104 15.9994 6.72935 -2.2166 17.8816
587 1 -1.1104 15.9994 9.75675 -1.94992 18.1319
415 2 2.2208 232.038 13.9484 5.37694 22.5685
589 1 -1.1104 15.9994 9.8541 -2.00551 20.883
416 2 2.2208 232.038 11.3054 20.3777 27.9043
591 1 -1.1104 15.9994 7.97071 2.09056 17.2278
592 1 -1.1104 15.9994 7.81445 0.131959 19.3585
593 1 -1.1104 15.9994 10.183 1.37891 20.2302
594 1 -1.1104 15.9994 12.6532 -1.80267 18.4024
595 1 -1.1104 15.9994 12.5663 -2.17784 20.8875
596 1 -1.1104 15.9994 12.4742 1.15547 18.3721
597 1 -1.1104 15.9994 12.6388 0.560406 20.9793
598 1 -1.1104 15.9994 1.31209 4.16321 18.657
599 1 -1.1104 15.9994 6.94213 4.13062 21.2192
600 1 -1.1104 15.9994 1.3042 4.07359 21.505
601 1 -1.1104 15.9994 3.94078 3.80191 20.9553
602 1 -1.1104 15.9994 1.10097 6.89621 18.2783
603 1 -1.1104 15.9994 4.11333 7.1221 18.2491
604 1 -1.1104 15.9994 1.06678 6.9406 21.0509
605 1 -1.1104 15.9994 4.07769 6.71674 21.2255
606 1 -1.1104 15.9994 5.61392 1.68842 19.4442
607 1 -1.1104 15.9994 10.008 4.18871 18.1554
608 1 -1.1104 15.9994 6.84093 4.21947 23.9214
609 1 -1.1104 15.9994 9.73354 3.8052 21.2187
610 1 -1.1104 15.9994 7.13168 7.14072 18.2336
611 1 -1.1104 15.9994 9.80413 6.76848 18.4242
612 1 -1.1104 15.9994 6.86474 6.9557 20.8261
613 1 -1.1104 15.9994 9.88125 6.88906 21.1112
614 1 -1.1104 15.9994 12.7202 3.99491 18.1872
615 1 -1.1104 15.9994 12.6287 3.6814 20.8866
616 1 -1.1104 15.9994 12.4636 7.32838 15.3115
617 1 -1.1104 15.9994 12.6947 6.64089 20.9346
618 1 -1.1104 15.9994 1.25721 10.099 18.4616
619 1 -1.1104 15.9994 3.89739 9.87194 18.2387
620 1 -1.1104 15.9994 0.791984 9.56661 21.0806
621 1 -1.1104 15.9994 3.63863 9.51335 21.1325
622 1 -1.1104 15.9994 1.29603 12.7508 18.0904
623 1 -1.1104 15.9994 3.94424 12.6618 18.2165
624 1 -1.1104 15.9994 1.01919 12.5236 20.8599
625 1 -1.1104 15.9994 3.76326 12.3369 20.9004
626 1 -1.1104 15.9994 7.15482 9.95586 18.0067
627 1 -1.1104 15.9994 12.3431 9.5396 18.6727
628 1 -1.1104 15.9994 6.82609 9.81028 20.8828
629 1 -1.1104 15.9994 9.72973 9.83172 21.1138
630 1 -1.1104 15.9994 6.82328 12.6699 18.4068
631 1 -1.1104 15.9994 9.48725 12.599 18.2328
632 1 -1.1104 15.9994 6.79167 12.8437 21.3741
633 1 -1.1104 15.9994 9.59962 12.6801 21.0227
634 1 -1.1104 15.9994 12.4412 6.63331 18.2115
635 1 -1.1104 15.9994 12.3372 9.7242 21.1994
636 1 -1.1104 15.9994 12.2872 12.7321 18.4743
637 1 -1.1104 15.9994 12.1603 12.6156 21.1787
638 1 -1.1104 15.9994 0.928362 15.5511 17.888
639 1 -1.1104 15.9994 3.9134 15.365 18.1905
640 1 -1.1104 15.9994 1.39002 15.5611 20.6757
641 1 -1.1104 15.9994 4.04043 15.417 20.831
642 1 -1.1104 15.9994 1.34343 18.2293 18.0049
643 1 -1.1104 15.9994 3.94451 18.3991 18.1607
644 1 -1.1104 15.9994 1.07579 18.5042 20.9457
645 1 -1.1104 15.9994 3.9934 18.4576 20.8353
646 1 -1.1104 15.9994 7.07724 15.3216 18.2531
647 1 -1.1104 15.9994 9.75823 15.4565 18.2117
648 1 -1.1104 15.9994 6.80917 15.5712 20.966
649 1 -1.1104 15.9994 9.67141 15.84 21.0268
650 1 -1.1104 15.9994 6.76831 18.3013 18.1772
651 1 -1.1104 15.9994 9.66858 18.2727 17.9166
652 1 -1.1104 15.9994 6.8205 18.4574 20.938
653 1 -1.1104 15.9994 9.50028 18.5498 20.8464
654 1 -1.1104 15.9994 12.9139 15.7971 18.0056
655 1 -1.1104 15.9994 12.4204 15.5199 20.8147
656 1 -1.1104 15.9994 12.5785 18.504 17.9021
657 1 -1.1104 15.9994 12.4143 18.4803 20.8568
658 1 -1.1104 15.9994 1.28871 21.0088 17.8417
659 1 -1.1104 15.9994 3.85471 21.3326 18.1737
660 1 -1.1104 15.9994 1.36672 21.1477 20.8823
661 1 -1.1104 15.9994 4.02019 21.2561 21.0751
662 1 -1.1104 15.9994 6.67339 21.2901 18.2293
663 1 -1.1104 15.9994 9.79233 21.1851 18.2304
664 1 -1.1104 15.9994 6.68687 21.3812 21.0154
665 1 -1.1104 15.9994 9.51603 21.5433 20.9282
666 1 -1.1104 15.9994 12.6864 21.2241 18.1112
667 1 -1.1104 15.9994 12.1722 21.0751 20.9061
407 2 2.2208 232.038 8.53233 14.2673 14.182
533 1 -1.1104 15.9994 3.30322 0.00884842 19.3989
683 1 -1.1104 15.9994 10.0648 1.13451 25.7876
5 2 2.2208 232.038 5.6252 22.6268 14.1972
672 1 -1.1104 15.9994 4.38492 4.2391 23.306
673 1 -1.1104 15.9994 5.93923 -0.0519458 21.9878
543 1 -1.1104 15.9994 0.889486 0.99665 15.3703
675 1 -1.1104 15.9994 3.08179 1.84264 26.0939
669 1 -1.1104 15.9994 4.0797 -2.18283 25.8926
677 1 -1.1104 15.9994 9.69834 -2.19149 23.8186
590 1 -1.1104 15.9994 8.21492 0.313612 14.674
151 1 -1.1104 15.9994 0.912165 4.47729 27.5803
680 1 -1.1104 15.9994 7.64908 0.0845826 24.3092
681 1 -1.1104 15.9994 10.0988 0.675564 23.1911
682 1 -1.1104 15.9994 3.21327 -0.215883 23.9464
670 1 -1.1104 15.9994 1.22305 -2.33266 26.7535
684 1 -1.1104 15.9994 12.4091 -2.41419 23.7231
707 1 -1.1104 15.9994 12.605 6.80995 26.9377
686 1 -1.1104 15.9994 12.8505 0.845292 23.6402
687 1 -1.1104 15.9994 12.636 1.06565 26.4181
474 2 2.2208 232.038 2.59193 22.5385 16.7447
689 1 -1.1104 15.9994 4.25205 4.3709 26.334
690 1 -1.1104 15.9994 1.62326 4.19611 25.0494
678 1 -1.1104 15.9994 7.05731 -2.2381 26.4606