LAMMPS (29 Oct 2020)
OMP_NUM_THREADS environment is not set. Defaulting to 1 thread. (../comm.cpp:94)
  using 1 OpenMP thread(s) per MPI task
OMP_NUM_THREADS environment is not set. Defaulting to 1 thread. (../comm.cpp:94)
  using 1 OpenMP thread(s) per MPI task
Reading data file ...
  orthogonal box = (-0.40119084 -7.2216982 -0.3924683) to (27.741191 499.34170 27.732468)
  2 by 26 by 1 MPI processor grid
  reading atoms ...
  27000 atoms
  reading velocities ...
  27000 velocities
Finding 1-2 1-3 1-4 neighbors ...
  special bond factors lj:    0.0      0.0      0.0     
  special bond factors coul:  0.0      0.0      0.0     
     0 = max # of 1-2 neighbors
     0 = max # of 1-3 neighbors
     0 = max # of 1-4 neighbors
     1 = max # of special neighbors
  special bonds CPU = 0.004 seconds
  read_data CPU = 0.079 seconds
Setting atom values ...
  18000 settings made for charge
Setting atom values ...
  9000 settings made for charge
PPPM initialization ...
  using 12-bit tables for long-range coulomb (../kspace.cpp:328)
  G vector (1/distance) = 0.29880206
  grid = 40 360 40
  stencil order = 5
  estimated absolute RMS force accuracy = 0.00015742275
  estimated relative force accuracy = 1.0932405e-05
  using single precision MKL FFT
  3d grid and FFT values/proc = 21375 11200
Neighbor list info ...
  update every 1 steps, delay 0 steps, check yes
  max neighbors/atom: 2000, page size: 100000
  master list distance cutoff = 11.3
  ghost atom cutoff = 11.3
  binsize = 5.65, bins = 5 90 5
  2 neighbor lists, perpetual/occasional/extra = 2 0 0
  (1) pair coul/long, perpetual
      attributes: half, newton on
      pair build: half/bin/newton
      stencil: half/bin/3d/newton
      bin: standard
  (2) pair eam/alloy, perpetual, copy from (1)
      attributes: half, newton on
      pair build: copy
      stencil: none
      bin: none
Setting up Verlet run ...
  Unit style    : metal
  Current step  : 0
  Time step     : 0.001
Per MPI rank memory allocation (min/avg/max) = 8.477 | 9.331 | 9.374 Mbytes
Step Temp E_pair E_mol TotEng Press 
       0          900   -352126.57            0   -348985.66   -1074.1016 
  100000    900.84712   -352150.91            0   -349007.05   -1306.1534 
Loop time of 932.268 on 52 procs for 100000 steps with 27000 atoms

Performance: 9.268 ns/day, 2.590 hours/ns, 107.265 timesteps/s
99.8% CPU use with 52 MPI tasks x 1 OpenMP threads

MPI task timing breakdown:
Section |  min time  |  avg time  |  max time  |%varavg| %total
---------------------------------------------------------------
Pair    | 631.59     | 642.23     | 651.84     |  16.9 | 68.89
Bond    | 0.0084979  | 0.014067   | 0.018345   |   1.6 |  0.00
Kspace  | 190.86     | 202.19     | 214.06     |  34.5 | 21.69
Neigh   | 63.678     | 64.874     | 68.465     |   9.6 |  6.96
Comm    | 14.878     | 15.946     | 19.145     |  21.0 |  1.71
Output  | 5.9401e-05 | 6.4773e-05 | 0.00026505 |   0.0 |  0.00
Modify  | 2.3253     | 5.1497     | 6.7445     |  60.9 |  0.55
Other   |            | 1.863      |            |       |  0.20

Nlocal:        519.231 ave         533 max         486 min
Histogram: 3 1 1 0 2 3 6 18 10 8
Nghost:        4806.90 ave        4851 max        4745 min
Histogram: 4 2 1 3 4 9 13 8 4 4
Neighs:       104812.0 ave      108706 max       97662 min
Histogram: 2 3 1 1 1 5 15 12 9 3

Total # of neighbors = 5450200
Ave neighs/atom = 201.85926
Ave special neighs/atom = 0.0000000
Neighbor list builds = 20008
Dangerous builds = 0
18000 atoms in group oxygen
PPPM initialization ...
  using 12-bit tables for long-range coulomb (../kspace.cpp:328)
  G vector (1/distance) = 0.29880206
  grid = 40 360 40
  stencil order = 5
  estimated absolute RMS force accuracy = 0.00015742275
  estimated relative force accuracy = 1.0932405e-05
  using single precision MKL FFT
  3d grid and FFT values/proc = 21375 11200
Setting up Verlet run ...
  Unit style    : metal
  Current step  : 0
  Time step     : 0.001
Per MPI rank memory allocation (min/avg/max) = 9.528 | 9.605 | 9.624 Mbytes
Step f_2 Temp v_Tdiff v_deltaT 
       0            0    900.84712            0            0 
  100000    1044.0979    901.52343  0.033337474    387.04497 
  200000    2016.8664     891.6503  0.042390871    492.15408 
  300000    3001.8068    899.45525  0.041317106    479.68776 
  400000    3982.8328    895.70138  0.042883027    497.86796 
  500000    4964.2173    894.67362   0.04067686    472.25456 
  600000    5944.3506    904.04506   0.04231198    491.23815 
  700000    6924.4101    897.76421   0.04286002    497.60085 
  800000    7910.1548     900.5865  0.042147683    489.33068 
  900000    8884.5104    896.54776  0.043330561    503.06379 
 1000000    9870.1668    899.91808  0.041879572    486.21794 
 1100000     10853.23    897.86995  0.041534194    482.20814 
 1200000    11833.498     897.8521  0.043015467    499.40558 
 1300000    12819.964    899.57552  0.041603171    483.00895 
 1400000    13801.902    903.29526  0.042989428    499.10327 
 1500000    14779.315    904.32828  0.043738663    507.80181 
Loop time of 13711.9 on 52 procs for 1500000 steps with 27000 atoms

Performance: 9.452 ns/day, 2.539 hours/ns, 109.394 timesteps/s
99.9% CPU use with 52 MPI tasks x 1 OpenMP threads

MPI task timing breakdown:
Section |  min time  |  avg time  |  max time  |%varavg| %total
---------------------------------------------------------------
Pair    | 9233.9     | 9403.4     | 9496.3     |  56.1 | 68.58
Bond    | 0.16139    | 0.21852    | 0.28563    |   5.5 |  0.00
Kspace  | 2890.6     | 3000.1     | 3191.2     | 128.2 | 21.88
Neigh   | 937.05     | 986.64     | 1018.4     |  53.0 |  7.20
Comm    | 224.48     | 237.52     | 273.17     |  66.7 |  1.73
Output  | 0.0016362  | 0.0017198  | 0.003577   |   0.6 |  0.00
Modify  | 11.611     | 14.06      | 15.938     |  30.7 |  0.10
Other   |            | 69.97      |            |       |  0.51

Nlocal:        519.231 ave         532 max         483 min
Histogram: 2 0 2 1 2 2 5 14 12 12
Nghost:        4797.65 ave        4861 max        4698 min
Histogram: 1 2 1 2 7 12 8 9 8 2
Neighs:       104832.0 ave      108430 max       97396 min
Histogram: 2 1 0 2 3 4 12 14 11 3

Total # of neighbors = 5451268
Ave neighs/atom = 201.89881
Ave special neighs/atom = 0.0000000
Neighbor list builds = 306139
Dangerous builds = 0
Total wall time: 4:04:04
