ITEM: TIMESTEP
0
ITEM: NUMBER OF ATOMS
18000
ITEM: BOX BOUNDS xy xz yz pp pp pp
-3.4814005380058445e-02 2.7928814005380076e+01 0.0000000000000000e+00
-4.4554892165970905e-01 3.3517354892165935e+02 0.0000000000000000e+00
-3.5675419002845050e-02 2.7929675419002841e+01 0.0000000000000000e+00
ITEM: ATOMS id type q mass x y z
1 1 -1.1104 15.9994 4.19575 23.3259 12.5824
2 2 2.2208 232.038 13.9362 24.7208 5.57161
3 2 2.2208 232.038 2.73513 21.9182 13.9345
4 1 -1.1104 15.9994 1.3788 23.3288 12.5576
5 2 2.2208 232.038 13.9381 19.1507 5.56695
6 2 2.2208 232.038 13.9308 5.14542 2.78826
7 2 2.2208 232.038 5.54096 24.728 13.9458
8 2 2.2208 232.038 5.62315 2.40845 2.82486
9 2 2.2208 232.038 13.8257 13.5313 5.56918
10 2 2.2208 232.038 11.1614 2.341 2.75626
11 1 -1.1104 15.9994 12.5323 20.5418 12.5397
12 1 -1.1104 15.9994 6.9619 9.35202 12.5583
13 2 2.2208 232.038 2.74631 5.14582 2.78075
14 1 -1.1104 15.9994 12.5452 17.7287 12.5306
15 1 -1.1104 15.9994 9.74765 6.55066 12.5501
16 1 -1.1104 15.9994 6.95952 6.54807 12.5558
17 2 2.2208 232.038 8.38165 5.15207 2.9035
18 2 2.2208 232.038 5.45312 7.8753 2.83689
19 1 -1.1104 15.9994 4.17201 9.34847 12.5586
20 2 2.2208 232.038 11.1723 7.96168 2.76909
21 1 -1.1104 15.9994 9.74747 20.6958 12.5523
22 1 -1.1104 15.9994 1.37353 9.34219 12.5507
23 2 2.2208 232.038 2.74163 10.7492 2.7768
24 1 -1.1104 15.9994 6.95936 20.5403 12.5638
25 1 -1.1104 15.9994 4.1638 6.54667 12.5512
26 1 -1.1104 15.9994 1.37082 6.54709 12.5505
27 2 2.2208 232.038 8.42151 10.792 2.83321
28 2 2.2208 232.038 5.57195 13.5413 2.78784
29 1 -1.1104 15.9994 12.5685 3.74039 12.5401
30 2 2.2208 232.038 11.1539 13.5429 2.89688
31 1 -1.1104 15.9994 9.74466 17.7354 12.5444
32 1 -1.1104 15.9994 12.3889 0.955202 12.5497
33 2 2.2208 232.038 2.66488 16.2512 2.85395
34 1 -1.1104 15.9994 6.95905 17.7324 12.55
35 1 -1.1104 15.9994 9.74841 3.58446 12.5491
36 1 -1.1104 15.9994 6.96373 3.74548 12.5519
37 2 2.2208 232.038 8.35465 16.3583 2.76549
38 2 2.2208 232.038 5.62089 19.1937 2.82674
39 1 -1.1104 15.9994 12.3655 23.3277 12.541
40 2 2.2208 232.038 11.1643 19.1157 2.76813
41 1 -1.1104 15.9994 4.1717 20.5355 12.5593
42 1 -1.1104 15.9994 7.11935 0.967121 12.5612
43 2 2.2208 232.038 2.74146 21.9289 2.78144
44 1 -1.1104 15.9994 1.37303 20.53 12.5517
45 1 -1.1104 15.9994 4.16725 3.74701 12.5571
46 1 -1.1104 15.9994 1.37126 3.74569 12.5527
47 2 2.2208 232.038 8.38308 21.9341 2.90431
48 2 2.2208 232.038 5.45218 24.6601 2.83461
49 1 -1.1104 15.9994 4.19094 0.956015 12.5813
50 2 2.2208 232.038 11.1733 24.7461 2.76891
51 1 -1.1104 15.9994 4.16405 17.7327 12.5504
52 2 2.2208 232.038 2.7595 2.3684 5.56916
53 2 2.2208 232.038 13.9387 5.15392 8.31591
54 1 -1.1104 15.9994 1.37244 17.7344 12.5496
55 2 2.2208 232.038 13.9303 7.93942 5.57162
56 2 2.2208 232.038 8.36996 2.47725 5.5714
57 2 2.2208 232.038 13.9415 2.37572 5.56276
58 2 2.2208 232.038 5.53398 2.33526 8.35304
59 2 2.2208 232.038 13.9329 21.9255 2.79356
60 2 2.2208 232.038 11.1713 2.34082 8.35285
61 1 -1.1104 15.9994 12.567 14.9245 12.5435
62 2 2.2208 232.038 2.74944 7.93982 5.57574
63 2 2.2208 232.038 2.76294 5.15164 8.34293
64 1 -1.1104 15.9994 12.3841 12.132 12.5565
65 2 2.2208 232.038 5.69192 5.15161 5.5848
66 2 2.2208 232.038 8.37849 7.81695 5.56691
67 2 2.2208 232.038 8.357 5.15853 8.20528
68 2 2.2208 232.038 5.5397 7.95571 8.36102
69 2 2.2208 232.038 11.0291 5.15264 5.5578
70 2 2.2208 232.038 11.1704 7.95593 8.3358
71 1 -1.1104 15.9994 9.74376 14.7689 12.5499
72 2 2.2208 232.038 2.75046 13.5292 5.57426
73 2 2.2208 232.038 2.74703 10.7429 8.34826
74 1 -1.1104 15.9994 6.96388 14.9281 12.5466
75 2 2.2208 232.038 5.57063 10.7469 5.5662
76 2 2.2208 232.038 8.49251 13.5536 5.56974
77 2 2.2208 232.038 8.33656 10.7105 8.34133
78 2 2.2208 232.038 5.55366 13.5418 8.32616
79 2 2.2208 232.038 11.1589 10.8623 5.56871
80 2 2.2208 232.038 11.1652 13.5532 8.19909
81 1 -1.1104 15.9994 7.12375 23.337 12.5657
82 2 2.2208 232.038 2.7544 19.1501 5.57001
83 2 2.2208 232.038 2.74871 16.3368 8.34997
84 1 -1.1104 15.9994 7.12138 12.1399 12.5588
85 2 2.2208 232.038 5.58486 16.3328 5.56866
86 2 2.2208 232.038 8.38236 19.2512 5.57002
87 2 2.2208 232.038 8.3461 16.3751 8.33816
88 2 2.2208 232.038 5.54124 19.1194 8.36015
89 2 2.2208 232.038 11.1362 16.2229 5.56808
90 2 2.2208 232.038 11.173 19.1006 8.33486
91 1 -1.1104 15.9994 4.16866 14.9319 12.5555
92 2 2.2208 232.038 2.74511 24.7222 5.5713
93 2 2.2208 232.038 2.75662 21.93 8.33866
94 1 -1.1104 15.9994 1.37465 14.9328 12.5533
95 2 2.2208 232.038 5.68995 21.9317 5.58128
96 2 2.2208 232.038 8.37899 24.5992 5.56199
97 2 2.2208 232.038 8.35036 21.9148 8.19964
98 2 2.2208 232.038 5.52425 24.739 8.34433
99 2 2.2208 232.038 11.036 21.9288 5.55702
100 2 2.2208 232.038 11.1857 24.7459 8.32633
101 1 -1.1104 15.9994 4.1956 12.1378 12.5826
102 2 2.2208 232.038 2.7513 2.35315 11.1403
103 1 -1.1104 15.9994 1.37345 0.955899 12.5572
104 2 2.2208 232.038 8.26912 2.44189 11.0427
105 2 2.2208 232.038 13.8902 16.2769 2.82811
106 1 -1.1104 15.9994 1.37895 12.1412 12.5568
107 2 2.2208 232.038 2.74497 7.94297 11.1415
108 2 2.2208 232.038 5.55124 5.15961 11.1306
109 2 2.2208 232.038 8.34994 7.92552 11.1225
110 2 2.2208 232.038 11.1594 5.15694 11.1313
111 1 -1.1104 15.9994 12.5357 9.35451 12.5414
112 2 2.2208 232.038 2.74315 13.5436 11.1369
113 2 2.2208 232.038 5.5454 10.7353 11.1311
114 2 2.2208 232.038 8.27904 13.6312 11.0394
115 2 2.2208 232.038 11.2412 10.6644 11.0413
116 1 -1.1104 15.9994 12.5476 6.54401 12.5329
117 2 2.2208 232.038 2.74336 19.1335 11.1407
118 2 2.2208 232.038 5.54278 16.349 11.1402
119 2 2.2208 232.038 8.35362 19.1344 11.1236
120 2 2.2208 232.038 11.1717 16.339 11.134
121 1 -1.1104 15.9994 9.75069 9.50955 12.55
122 2 2.2208 232.038 2.74008 24.7275 11.1364
123 2 2.2208 232.038 5.55202 21.9168 11.119
124 2 2.2208 232.038 8.26913 24.7971 11.0373
125 2 2.2208 232.038 11.2443 21.8379 11.0401
126 1 -1.1104 15.9994 1.53561 0.953853 1.36198
127 3 -1.1104 15.9994 8.35148 5.15292 5.55956
128 1 -1.1104 15.9994 1.37294 0.948875 4.14938
129 1 -1.1104 15.9994 4.15245 0.94919 3.98758
130 1 -1.1104 15.9994 1.37416 3.74151 1.35739
131 1 -1.1104 15.9994 4.15562 3.58634 1.35706
132 1 -1.1104 15.9994 1.36573 3.74191 4.15199
133 1 -1.1104 15.9994 4.14859 3.74138 4.1452
134 1 -1.1104 15.9994 6.78619 0.954453 1.3571
135 1 -1.1104 15.9994 9.75241 0.95306 1.35927
136 1 -1.1104 15.9994 6.94533 0.944215 4.14921
137 1 -1.1104 15.9994 9.75034 0.940882 4.15951
138 1 -1.1104 15.9994 6.94426 3.76888 1.35749
139 1 -1.1104 15.9994 9.74859 3.75114 1.35232
140 1 -1.1104 15.9994 6.88424 3.68571 4.08895
141 1 -1.1104 15.9994 9.84248 3.65555 4.06911
142 1 -1.1104 15.9994 12.7139 0.955703 1.36198
143 1 -1.1104 15.9994 12.5586 0.94754 4.15086
144 1 -1.1104 15.9994 12.5578 3.74057 1.35496
145 1 -1.1104 15.9994 12.562 3.74241 4.15383
146 1 -1.1104 15.9994 1.37536 6.54178 1.36203
147 1 -1.1104 15.9994 4.1614 6.52661 1.36205
148 1 -1.1104 15.9994 1.36578 6.54693 4.15383
149 1 -1.1104 15.9994 4.13213 6.52833 4.16795
150 1 -1.1104 15.9994 1.39998 9.34229 1.36065
151 1 -1.1104 15.9994 4.32473 9.34632 1.35794
152 1 -1.1104 15.9994 1.37488 9.34072 4.15452
153 1 -1.1104 15.9994 4.16094 9.34473 4.14729
154 1 -1.1104 15.9994 6.94412 6.71379 1.34541
155 1 -1.1104 15.9994 9.74489 6.55245 1.34797
156 1 -1.1104 15.9994 6.86652 6.63875 4.06314
157 1 -1.1104 15.9994 9.84034 6.63764 4.06121
158 3 -1.1104 15.9994 11.1456 13.5339 5.57151
159 1 -1.1104 15.9994 9.58749 9.34209 1.35181
160 1 -1.1104 15.9994 6.94087 9.3601 3.9839
161 1 -1.1104 15.9994 9.74143 9.34728 4.15303
162 1 -1.1104 15.9994 12.5538 6.54616 1.3584
163 1 -1.1104 15.9994 12.5609 6.54126 4.15629
164 1 -1.1104 15.9994 12.5523 9.33959 1.35486
165 1 -1.1104 15.9994 12.5518 9.33034 4.15294
166 1 -1.1104 15.9994 1.37856 12.1422 1.36069
167 1 -1.1104 15.9994 4.16848 12.1608 1.3555
168 1 -1.1104 15.9994 1.37683 12.1412 4.15404
169 1 -1.1104 15.9994 4.16004 12.1402 4.14934
170 1 -1.1104 15.9994 1.37793 14.9431 1.36585
171 1 -1.1104 15.9994 4.16285 15.0961 1.36164
172 1 -1.1104 15.9994 1.3599 14.9203 4.17081
173 1 -1.1104 15.9994 4.15174 14.9422 4.14898
174 1 -1.1104 15.9994 6.94419 11.9761 1.35798
175 1 -1.1104 15.9994 9.74066 12.1291 1.3516
176 1 -1.1104 15.9994 6.9409 12.1344 4.14899
177 1 -1.1104 15.9994 9.68069 12.0761 4.09213
178 1 -1.1104 15.9994 6.93999 14.9137 1.35762
179 1 -1.1104 15.9994 9.74875 14.9329 1.35227
180 1 -1.1104 15.9994 6.9322 14.9304 4.15277
181 1 -1.1104 15.9994 9.65743 15.021 4.06504
182 1 -1.1104 15.9994 12.5488 12.1397 1.34514
183 1 -1.1104 15.9994 12.637 12.0485 4.06481
184 1 -1.1104 15.9994 12.5535 14.9446 1.35301
185 1 -1.1104 15.9994 12.6147 15.0046 4.09014
186 1 -1.1104 15.9994 1.54013 17.7318 1.3609
187 3 -1.1104 15.9994 8.35128 21.9387 5.56451
188 1 -1.1104 15.9994 1.37657 17.7297 4.14978
189 1 -1.1104 15.9994 4.15502 17.7262 3.98608
190 1 -1.1104 15.9994 1.37634 20.5213 1.35742
191 1 -1.1104 15.9994 4.15786 20.3661 1.35544
192 1 -1.1104 15.9994 1.36864 20.5228 4.15167
193 1 -1.1104 15.9994 4.14966 20.5215 4.14511
194 1 -1.1104 15.9994 6.78378 17.7281 1.36135
195 1 -1.1104 15.9994 9.74995 17.7338 1.35869
196 1 -1.1104 15.9994 6.93939 17.7241 4.14677
197 1 -1.1104 15.9994 9.74843 17.7328 4.15781
198 1 -1.1104 15.9994 6.94477 20.5475 1.35161
199 1 -1.1104 15.9994 9.74676 20.5315 1.34642
200 1 -1.1104 15.9994 6.88644 20.4666 4.089
201 1 -1.1104 15.9994 9.83975 20.4428 4.06608
202 1 -1.1104 15.9994 12.7134 17.7372 1.35663
203 1 -1.1104 15.9994 12.5584 17.7397 4.14745
204 1 -1.1104 15.9994 12.5573 20.5213 1.35277
205 1 -1.1104 15.9994 12.5606 20.5285 4.15204
206 1 -1.1104 15.9994 1.37767 23.321 1.36179
207 1 -1.1104 15.9994 4.16248 23.3052 1.36155
208 1 -1.1104 15.9994 1.36712 23.3274 4.15516
209 1 -1.1104 15.9994 4.13431 23.3082 4.16899
210 1 -1.1104 15.9994 6.94542 23.4905 1.34078
211 1 -1.1104 15.9994 9.74294 23.3314 1.34255
212 1 -1.1104 15.9994 6.86559 23.4194 4.06293
213 1 -1.1104 15.9994 9.84058 23.4187 4.06377
214 1 -1.1104 15.9994 12.554 23.3257 1.35701
215 1 -1.1104 15.9994 12.5587 23.3234 4.15713
216 1 -1.1104 15.9994 1.36788 0.95162 6.94965
217 1 -1.1104 15.9994 4.15404 0.948128 6.92713
218 1 -1.1104 15.9994 1.36705 0.953285 9.75325
219 1 -1.1104 15.9994 4.16396 0.954689 9.75993
220 1 -1.1104 15.9994 1.36174 3.74712 6.95495
221 1 -1.1104 15.9994 4.14427 3.7483 6.94968
222 1 -1.1104 15.9994 1.36725 3.74885 9.75442
223 1 -1.1104 15.9994 4.1583 3.74578 9.76147
224 1 -1.1104 15.9994 6.95502 0.941296 6.95705
225 1 -1.1104 15.9994 9.75065 0.941832 6.98694
226 1 -1.1104 15.9994 6.9582 0.962155 9.76679
227 1 -1.1104 15.9994 9.75739 0.961653 9.92974
228 1 -1.1104 15.9994 6.86382 3.65385 7.05205
229 1 -1.1104 15.9994 9.84042 3.65839 7.0561
230 1 -1.1104 15.9994 6.93977 3.76917 9.75775
231 1 -1.1104 15.9994 9.75108 3.74609 9.78174
232 1 -1.1104 15.9994 12.5541 0.951675 6.95952
233 1 -1.1104 15.9994 12.5445 0.951821 9.76651
234 1 -1.1104 15.9994 12.5586 3.74714 6.95825
235 1 -1.1104 15.9994 12.5533 3.74415 9.76148
236 1 -1.1104 15.9994 1.36264 6.5452 6.95672
237 1 -1.1104 15.9994 4.14546 6.54611 6.95178
238 1 -1.1104 15.9994 1.36823 6.54468 9.75309
239 1 -1.1104 15.9994 4.15698 6.55023 9.76038
240 1 -1.1104 15.9994 1.36894 9.34264 6.9552
241 1 -1.1104 15.9994 4.15889 9.34854 6.95294
242 1 -1.1104 15.9994 1.37077 9.3435 9.75495
243 1 -1.1104 15.9994 4.1615 9.34521 9.75791
244 1 -1.1104 15.9994 6.86273 6.64424 7.04767
245 1 -1.1104 15.9994 9.84116 6.63086 7.0531
246 1 -1.1104 15.9994 6.95686 6.54582 9.77362
247 1 -1.1104 15.9994 9.7518 6.54638 9.777
248 1 -1.1104 15.9994 6.9501 9.35398 6.93005
249 1 -1.1104 15.9994 9.74825 9.3447 6.95642
250 1 -1.1104 15.9994 6.95654 9.3506 9.76544
251 1 -1.1104 15.9994 9.75386 9.34777 9.77367
252 1 -1.1104 15.9994 12.5575 6.53915 6.95661
253 1 -1.1104 15.9994 12.5516 6.54859 9.75862
254 1 -1.1104 15.9994 12.5489 9.33312 6.96131
255 1 -1.1104 15.9994 12.5661 9.32391 9.74832
256 1 -1.1104 15.9994 1.37487 12.1376 6.95731
257 1 -1.1104 15.9994 4.15783 12.1379 6.95706
258 1 -1.1104 15.9994 1.37252 12.1382 9.75653
259 1 -1.1104 15.9994 4.16887 12.1411 9.76217
260 1 -1.1104 15.9994 1.37632 14.9384 6.95448
261 1 -1.1104 15.9994 4.15591 14.9386 6.95052
262 1 -1.1104 15.9994 1.37091 14.9366 9.7542
263 1 -1.1104 15.9994 4.16532 14.9331 9.75753
264 1 -1.1104 15.9994 6.93913 12.1431 6.95897
265 1 -1.1104 15.9994 9.66106 12.0554 7.08699
266 1 -1.1104 15.9994 6.95668 12.1413 9.77057
267 1 -1.1104 15.9994 9.74499 12.1331 9.9519
268 1 -1.1104 15.9994 6.93853 14.9277 6.95962
269 1 -1.1104 15.9994 9.65666 15.0213 7.06126
270 1 -1.1104 15.9994 6.93423 14.9527 9.74641
271 1 -1.1104 15.9994 9.74961 14.9311 9.78126
272 1 -1.1104 15.9994 12.6362 12.0458 7.06028
273 1 -1.1104 15.9994 12.5416 12.1362 9.78239
274 1 -1.1104 15.9994 12.6397 15.0293 7.04943
275 1 -1.1104 15.9994 12.5452 14.9301 9.77317
276 1 -1.1104 15.9994 1.37168 17.7318 6.94925
277 1 -1.1104 15.9994 4.15589 17.7266 6.92793
278 1 -1.1104 15.9994 1.37052 17.7319 9.75263
279 1 -1.1104 15.9994 4.16028 17.7319 9.75367
280 1 -1.1104 15.9994 1.36425 20.5285 6.956
281 1 -1.1104 15.9994 4.14628 20.5292 6.95144
282 1 -1.1104 15.9994 1.37121 20.5308 9.75455
283 1 -1.1104 15.9994 4.15808 20.5273 9.7609
284 1 -1.1104 15.9994 6.94741 17.7226 6.9537
285 1 -1.1104 15.9994 9.74914 17.7331 6.9549
286 1 -1.1104 15.9994 6.95265 17.7284 9.76416
287 1 -1.1104 15.9994 9.75048 17.7328 9.7691
288 1 -1.1104 15.9994 6.86144 20.4348 7.05059
289 1 -1.1104 15.9994 9.8414 20.4463 7.05968
290 1 -1.1104 15.9994 6.95991 20.535 9.7793
291 1 -1.1104 15.9994 9.75138 20.5386 9.78225
292 1 -1.1104 15.9994 12.5508 17.742 6.95025
293 1 -1.1104 15.9994 12.5495 17.7364 9.75867
294 1 -1.1104 15.9994 12.5553 20.5365 6.96012
295 1 -1.1104 15.9994 12.565 20.5109 9.74218
296 1 -1.1104 15.9994 1.36529 23.3265 6.95837
297 1 -1.1104 15.9994 4.14685 23.3263 6.95421
298 1 -1.1104 15.9994 1.37191 23.3259 9.75712
299 1 -1.1104 15.9994 4.16471 23.3312 9.76882
300 1 -1.1104 15.9994 6.8657 23.4243 7.05733
301 1 -1.1104 15.9994 9.83441 23.4092 7.08911
302 1 -1.1104 15.9994 6.95971 23.3311 9.78319
303 1 -1.1104 15.9994 9.7534 23.3367 9.95535
304 1 -1.1104 15.9994 12.5535 23.32 6.96341
305 1 -1.1104 15.9994 12.5396 23.3285 9.76857
306 2 2.2208 232.038 5.55852 2.36135 13.9412
307 2 2.2208 232.038 2.74815 5.1623 13.9309
308 2 2.2208 232.038 5.54293 7.919 13.9326
309 2 2.2208 232.038 2.73479 10.7331 13.9356
310 2 2.2208 232.038 5.55427 13.5571 13.9437
311 2 2.2208 232.038 2.74388 16.3509 13.9322
312 2 2.2208 232.038 5.54385 19.1086 13.9335
313 2 2.2208 232.038 11.1435 21.931 -0.0273065
314 2 2.2208 232.038 11.1466 7.95195 13.9411
315 2 2.2208 232.038 11.1551 19.144 13.9446
316 2 2.2208 232.038 13.9254 13.5516 -0.0356026
317 2 2.2208 232.038 13.9427 24.7234 27.9173
318 1 -1.1104 15.9994 12.5523 23.3236 23.7397
319 2 2.2208 232.038 13.947 10.7217 13.9705
320 2 2.2208 232.038 8.44739 24.6429 27.8362
321 2 2.2208 232.038 11.1984 2.40785 13.9948
322 2 2.2208 232.038 5.5739 21.9344 27.9253
323 1 -1.1104 15.9994 9.76711 23.3078 26.5186
324 2 2.2208 232.038 8.36055 5.1544 13.9616
325 1 -1.1104 15.9994 4.155 17.7333 26.7077
326 2 2.2208 232.038 2.74151 24.7282 27.919
327 1 -1.1104 15.9994 1.376 17.7355 26.5401
328 1 -1.1104 15.9994 6.95571 23.3276 26.5376
329 2 2.2208 232.038 8.28319 10.6544 14.0208
330 1 -1.1104 15.9994 4.14246 17.7323 23.7657
331 2 2.2208 232.038 11.2045 13.6032 13.9948
332 1 -1.1104 15.9994 1.36611 17.7327 23.7432
333 1 -1.1104 15.9994 9.74778 23.317 23.7362
334 2 2.2208 232.038 8.36469 16.3474 13.9638
335 1 -1.1104 15.9994 12.555 14.9385 26.5395
336 2 2.2208 232.038 11.1405 16.3235 27.9149
337 1 -1.1104 15.9994 12.5557 14.9318 23.7433
338 1 -1.1104 15.9994 6.9502 23.3172 23.7353
339 2 2.2208 232.038 8.28679 21.8355 14.0247
340 1 -1.1104 15.9994 12.5517 12.1336 26.5312
341 2 2.2208 232.038 11.2306 24.7751 14.015
342 1 -1.1104 15.9994 4.16222 23.321 26.5372
343 2 2.2208 232.038 2.66439 2.44168 16.6595
344 2 2.2208 232.038 13.9413 24.7463 22.3198
345 1 -1.1104 15.9994 1.37379 23.3188 26.5352
346 2 2.2208 232.038 13.9436 16.333 25.0941
347 2 2.2208 232.038 8.36724 2.38078 16.7636
348 2 2.2208 232.038 13.9392 10.7435 25.1059
349 2 2.2208 232.038 5.62274 2.41119 19.6102
350 2 2.2208 232.038 13.9415 2.39099 22.3341
351 2 2.2208 232.038 11.1534 2.33467 19.5624
352 1 -1.1104 15.9994 4.15624 23.3199 23.7067
353 2 2.2208 232.038 2.73751 7.93682 16.7393
354 2 2.2208 232.038 2.75496 5.15736 19.563
355 1 -1.1104 15.9994 1.375 23.3187 23.7301
356 2 2.2208 232.038 5.57522 5.15495 16.7539
357 2 2.2208 232.038 8.382 7.90315 16.7765
358 2 2.2208 232.038 8.38434 5.16103 19.6776
359 2 2.2208 232.038 5.55348 7.9522 19.5418
360 2 2.2208 232.038 11.2623 5.17372 16.7822
361 2 2.2208 232.038 11.1525 7.95777 19.5545
362 1 -1.1104 15.9994 12.5346 20.5471 26.5234
363 2 2.2208 232.038 2.65772 13.6308 16.6608
364 2 2.2208 232.038 2.66071 10.6546 19.6352
365 1 -1.1104 15.9994 12.5525 20.5332 23.7438
366 2 2.2208 232.038 5.6331 10.6549 16.6753
367 2 2.2208 232.038 8.37107 13.5772 16.7667
368 2 2.2208 232.038 8.36938 10.733 19.5798
369 2 2.2208 232.038 5.62013 13.6036 19.6103
370 2 2.2208 232.038 11.181 10.7313 16.7599
371 2 2.2208 232.038 11.1593 13.5268 19.5632
372 1 -1.1104 15.9994 12.5563 17.7387 26.5489
373 2 2.2208 232.038 2.73812 19.1241 16.7406
374 2 2.2208 232.038 2.75278 16.3455 19.5635
375 1 -1.1104 15.9994 12.5579 17.7354 23.7506
376 2 2.2208 232.038 5.57534 16.3459 16.7553
377 2 2.2208 232.038 8.38827 19.0935 16.7791
378 2 2.2208 232.038 8.38892 16.3546 19.6772
379 2 2.2208 232.038 5.55583 19.1421 19.5429
380 2 2.2208 232.038 11.2711 16.3679 16.7841
381 2 2.2208 232.038 11.1681 19.159 19.5554
382 1 -1.1104 15.9994 9.75279 20.5343 26.5364
383 2 2.2208 232.038 2.65882 24.8184 16.6634
384 2 2.2208 232.038 2.66253 21.8424 19.6396
385 1 -1.1104 15.9994 6.94722 20.5349 26.5392
386 2 2.2208 232.038 5.63454 21.8409 16.6782
387 2 2.2208 232.038 8.37724 24.746 16.7818
388 2 2.2208 232.038 8.37626 21.9185 19.5813
389 2 2.2208 232.038 5.61753 24.7888 19.6147
390 2 2.2208 232.038 11.1946 21.9161 16.7676
391 2 2.2208 232.038 11.1701 24.6996 19.5587
392 1 -1.1104 15.9994 9.74732 20.5407 23.7346
393 2 2.2208 232.038 2.7618 2.36901 22.344
394 2 2.2208 232.038 13.8723 10.6552 19.625
395 1 -1.1104 15.9994 6.95081 20.5406 23.7354
396 2 2.2208 232.038 13.8764 13.7784 16.6939
397 2 2.2208 232.038 8.37444 2.48069 22.3512
398 2 2.2208 232.038 13.9467 5.16001 19.4588
399 2 2.2208 232.038 5.55795 2.34061 25.1373
400 2 2.2208 232.038 13.8693 2.58727 16.6918
401 2 2.2208 232.038 11.1558 2.33849 25.1268
402 1 -1.1104 15.9994 9.74814 17.7324 26.5556
403 2 2.2208 232.038 2.76234 7.92444 22.3483
404 2 2.2208 232.038 2.7657 5.1614 25.1084
405 1 -1.1104 15.9994 6.94642 17.7311 26.5591
406 2 2.2208 232.038 5.6994 5.16095 22.3498
407 2 2.2208 232.038 8.36684 7.81135 22.3389
408 2 2.2208 232.038 8.36609 5.13866 24.9831
409 2 2.2208 232.038 5.5434 7.9526 25.1356
410 2 2.2208 232.038 11.0419 5.15175 22.33
411 2 2.2208 232.038 11.1798 7.95584 25.1232
412 1 -1.1104 15.9994 9.83936 17.8227 23.829
413 2 2.2208 232.038 2.7559 13.5578 22.3448
414 2 2.2208 232.038 2.73874 10.7408 25.1159
415 1 -1.1104 15.9994 6.85917 17.8231 23.836
416 2 2.2208 232.038 5.58754 10.735 22.3444
417 2 2.2208 232.038 8.37769 13.6777 22.3522
418 2 2.2208 232.038 8.37169 10.7495 25.1032
419 2 2.2208 232.038 5.54961 13.5272 25.1204
420 2 2.2208 232.038 11.133 10.7435 22.3495
421 2 2.2208 232.038 11.171 13.5324 25.137
422 1 -1.1104 15.9994 4.15395 20.5246 26.5406
423 2 2.2208 232.038 2.76208 19.1153 22.3488
424 2 2.2208 232.038 2.75617 16.3327 25.1127
425 1 -1.1104 15.9994 1.35371 20.5439 26.5165
426 2 2.2208 232.038 5.70099 16.3514 22.3478
427 2 2.2208 232.038 8.36907 19.0053 22.3372
428 2 2.2208 232.038 8.37779 16.3397 24.9808
429 2 2.2208 232.038 5.55702 19.1568 25.1341
430 2 2.2208 232.038 11.0465 16.3427 22.3257
431 2 2.2208 232.038 11.1596 19.1467 25.1212
432 1 -1.1104 15.9994 4.1532 20.5338 23.7373
433 2 2.2208 232.038 2.7443 24.7585 22.3479
434 2 2.2208 232.038 2.75204 21.9446 25.1152
435 1 -1.1104 15.9994 1.37209 20.5272 23.736
436 2 2.2208 232.038 5.58792 21.9255 22.3459
437 2 2.2208 232.038 8.37814 24.8584 22.3512
438 2 2.2208 232.038 8.36529 21.92 25.0967
439 2 2.2208 232.038 5.54016 24.7105 25.1351
440 2 2.2208 232.038 11.1456 21.9275 22.3363
441 2 2.2208 232.038 11.1806 24.715 25.1251
442 1 -1.1104 15.9994 1.37772 0.957108 15.3523
443 1 -1.1104 15.9994 4.16791 0.956862 15.5118
444 1 -1.1104 15.9994 1.35571 3.76334 15.3303
445 1 -1.1104 15.9994 4.1581 3.74366 15.3518
446 1 -1.1104 15.9994 6.95593 0.946123 15.3432
447 1 -1.1104 15.9994 9.74437 0.952932 15.1774
448 1 -1.1104 15.9994 6.94846 3.74072 15.3374
449 1 -1.1104 15.9994 9.73907 3.73866 15.3276
450 1 -1.1104 15.9994 12.5505 0.955437 15.341
451 1 -1.1104 15.9994 12.4622 3.69547 15.2527
452 1 -1.1104 15.9994 1.3789 6.54259 15.3454
453 1 -1.1104 15.9994 4.16331 6.54573 15.3491
454 1 -1.1104 15.9994 1.38419 9.34789 15.3493
455 1 -1.1104 15.9994 4.17246 9.35202 15.3501
456 1 -1.1104 15.9994 6.94829 6.55359 15.337
457 1 -1.1104 15.9994 9.73288 6.54842 15.3318
458 1 -1.1104 15.9994 6.95437 9.31687 15.3425
459 1 -1.1104 15.9994 9.73847 9.35633 15.3351
460 1 -1.1104 15.9994 12.4551 6.6337 15.255
461 1 -1.1104 15.9994 12.5394 9.36241 15.3382
462 1 -1.1104 15.9994 1.38326 12.1428 15.3522
463 1 -1.1104 15.9994 4.17162 12.1399 15.5097
464 1 -1.1104 15.9994 1.35783 14.9514 15.3287
465 1 -1.1104 15.9994 4.15913 14.9288 15.3516
466 1 -1.1104 15.9994 6.95547 12.1278 15.342
467 1 -1.1104 15.9994 9.74238 12.1331 15.1742
468 1 -1.1104 15.9994 6.94807 14.9241 15.3354
469 1 -1.1104 15.9994 9.73583 14.9209 15.3257
470 1 -1.1104 15.9994 12.5435 12.1418 15.3387
471 1 -1.1104 15.9994 12.4616 14.8812 15.2553
472 1 -1.1104 15.9994 1.37889 17.7309 15.3459
473 1 -1.1104 15.9994 4.16319 17.7319 15.3478
474 1 -1.1104 15.9994 1.38279 20.5355 15.3492
475 1 -1.1104 15.9994 4.17123 20.5399 15.35
476 1 -1.1104 15.9994 6.94682 17.7391 15.3354
477 1 -1.1104 15.9994 9.73038 17.7336 15.3301
478 1 -1.1104 15.9994 6.95122 20.5042 15.3426
479 1 -1.1104 15.9994 9.73456 20.5437 15.3349
480 1 -1.1104 15.9994 12.4532 17.817 15.2548
481 1 -1.1104 15.9994 12.5337 20.5458 15.3327
482 1 -1.1104 15.9994 1.38153 23.3306 15.3516
483 1 -1.1104 15.9994 4.17064 23.3279 15.5088
484 1 -1.1104 15.9994 6.95345 23.3188 15.3393
485 1 -1.1104 15.9994 9.72973 23.3314 15.1654
486 1 -1.1104 15.9994 12.5295 23.3184 15.3302
487 1 -1.1104 15.9994 1.5379 0.951843 18.1407
488 3 -1.1104 15.9994 8.34786 5.15288 22.3425
489 1 -1.1104 15.9994 1.373 0.949457 20.9306
490 1 -1.1104 15.9994 4.1509 0.950138 20.7692
491 1 -1.1104 15.9994 1.37701 3.74253 18.137
492 1 -1.1104 15.9994 4.15531 3.58244 18.1319
493 1 -1.1104 15.9994 1.36756 3.74258 20.9331
494 1 -1.1104 15.9994 4.14594 3.74072 20.9262
495 1 -1.1104 15.9994 6.78715 0.952728 18.1239
496 1 -1.1104 15.9994 9.74634 0.946161 18.1031
497 1 -1.1104 15.9994 6.94236 0.947825 20.9232
498 1 -1.1104 15.9994 9.74818 0.94181 20.9273
499 1 -1.1104 15.9994 6.93654 3.73929 18.1235
500 1 -1.1104 15.9994 9.73286 3.74691 18.1124
501 1 -1.1104 15.9994 6.88595 3.68421 20.8667
502 1 -1.1104 15.9994 9.83221 3.65606 20.8468
503 1 -1.1104 15.9994 12.7099 0.934525 18.1248
504 1 -1.1104 15.9994 12.5559 0.939875 20.9316
505 1 -1.1104 15.9994 12.4549 3.64361 18.2227
506 1 -1.1104 15.9994 12.5614 3.746 20.9473
507 1 -1.1104 15.9994 1.38082 6.54363 18.1419
508 1 -1.1104 15.9994 4.15602 6.54993 18.1331
509 1 -1.1104 15.9994 1.36637 6.54859 20.9348
510 1 -1.1104 15.9994 4.14244 6.54698 20.9327
511 1 -1.1104 15.9994 1.38583 9.35015 18.1449
512 1 -1.1104 15.9994 4.16056 9.50848 18.1381
513 1 -1.1104 15.9994 1.35508 9.32632 20.9535
514 1 -1.1104 15.9994 4.15159 9.35457 20.9277
515 1 -1.1104 15.9994 6.9421 6.5487 18.12
516 1 -1.1104 15.9994 9.73276 6.54123 18.1197
517 1 -1.1104 15.9994 6.86117 6.63709 20.8434
518 1 -1.1104 15.9994 9.83431 6.64121 20.8485
519 1 -1.1104 15.9994 6.94735 9.35616 18.1258
520 1 -1.1104 15.9994 9.74287 9.35888 18.1266
521 1 -1.1104 15.9994 6.94625 9.35942 20.9322
522 1 -1.1104 15.9994 9.74798 9.35773 20.9356
523 1 -1.1104 15.9994 12.4626 6.64253 18.2213
524 1 -1.1104 15.9994 12.5575 6.54454 20.9506
525 1 -1.1104 15.9994 12.5506 9.36215 18.139
526 1 -1.1104 15.9994 12.5325 9.33909 20.9525
527 1 -1.1104 15.9994 1.54524 12.1382 18.1403
528 3 -1.1104 15.9994 8.34609 16.3359 22.3437
529 1 -1.1104 15.9994 1.37659 12.1362 20.9309
530 1 -1.1104 15.9994 4.15473 12.1327 20.7656
531 1 -1.1104 15.9994 1.37897 14.9308 18.1379
532 1 -1.1104 15.9994 4.15649 14.7675 18.1308
533 1 -1.1104 15.9994 1.3693 14.9297 20.9324
534 1 -1.1104 15.9994 4.14662 14.9264 20.927
535 1 -1.1104 15.9994 6.7875 12.1344 18.1236
536 1 -1.1104 15.9994 9.74227 12.1281 18.1014
537 1 -1.1104 15.9994 6.94177 12.1305 20.9224
538 1 -1.1104 15.9994 9.74618 12.125 20.9276
539 1 -1.1104 15.9994 6.93512 14.923 18.1225
540 1 -1.1104 15.9994 9.73132 14.9309 18.1132
541 1 -1.1104 15.9994 6.88676 14.8691 20.8671
542 1 -1.1104 15.9994 9.83002 14.8403 20.8467
543 1 -1.1104 15.9994 12.7034 12.1229 18.1253
544 1 -1.1104 15.9994 12.5519 12.1232 20.9296
545 1 -1.1104 15.9994 12.4528 14.8283 18.2219
546 1 -1.1104 15.9994 12.5593 14.9303 20.9486
547 1 -1.1104 15.9994 1.38037 17.7313 18.1414
548 1 -1.1104 15.9994 4.15553 17.7362 18.1335
549 1 -1.1104 15.9994 1.36705 17.735 20.9365
550 1 -1.1104 15.9994 4.14222 17.7324 20.9365
551 1 -1.1104 15.9994 1.38359 20.5377 18.1445
552 1 -1.1104 15.9994 4.1582 20.6951 18.1369
553 1 -1.1104 15.9994 1.35346 20.5116 20.9523
554 1 -1.1104 15.9994 4.15077 20.5394 20.927
555 1 -1.1104 15.9994 6.94063 17.7343 18.1194
556 1 -1.1104 15.9994 9.72971 17.7248 18.1197
557 1 -1.1104 15.9994 6.86024 17.822 20.8437
558 1 -1.1104 15.9994 9.83516 17.8292 20.8473
559 1 -1.1104 15.9994 6.94416 20.5427 18.1249
560 1 -1.1104 15.9994 9.73507 20.5446 18.1255
561 1 -1.1104 15.9994 6.94387 20.5462 20.928
562 1 -1.1104 15.9994 9.74417 20.5422 20.9375
563 1 -1.1104 15.9994 12.4599 17.8225 18.2225
564 1 -1.1104 15.9994 12.5553 17.7266 20.9552
565 1 -1.1104 15.9994 12.5445 20.5408 18.1357
566 1 -1.1104 15.9994 12.5473 20.5402 20.9414
567 1 -1.1104 15.9994 1.54037 23.3224 18.136
568 1 -1.1104 15.9994 12.55 23.3227 26.5399
569 1 -1.1104 15.9994 1.37864 23.3167 20.9272
570 1 -1.1104 15.9994 4.15539 23.3183 20.7631
571 1 -1.1104 15.9994 6.78164 23.3243 18.1215
572 1 -1.1104 15.9994 9.71296 23.3166 18.101
573 1 -1.1104 15.9994 6.94114 23.3186 20.9207
574 1 -1.1104 15.9994 9.73969 23.3162 20.9313
575 1 -1.1104 15.9994 12.5424 23.3186 18.1293
576 1 -1.1104 15.9994 12.5485 23.3178 20.9393
577 1 -1.1104 15.9994 1.36984 0.953724 23.7359
578 1 -1.1104 15.9994 4.15206 0.950085 23.7369
579 1 -1.1104 15.9994 1.37334 0.957659 26.5376
580 1 -1.1104 15.9994 4.15678 0.953905 26.6996
581 1 -1.1104 15.9994 1.3636 3.74572 23.7379
582 1 -1.1104 15.9994 4.14117 3.74576 23.7363
583 1 -1.1104 15.9994 1.35251 3.76354 26.518
584 1 -1.1104 15.9994 4.14975 3.74165 26.5435
585 1 -1.1104 15.9994 6.94745 0.944326 23.7359
586 1 -1.1104 15.9994 9.74946 0.945416 23.7346
587 1 -1.1104 15.9994 6.94437 0.948693 26.5446
588 1 -1.1104 15.9994 9.75295 0.952157 26.5423
589 1 -1.1104 15.9994 6.85912 3.65826 23.8264
590 1 -1.1104 15.9994 9.84187 3.65944 23.8266
591 1 -1.1104 15.9994 6.9483 3.75012 26.5515
592 1 -1.1104 15.9994 9.75047 3.75023 26.549
593 1 -1.1104 15.9994 12.557 0.949812 23.7379
594 1 -1.1104 15.9994 12.5559 0.957367 26.5431
595 1 -1.1104 15.9994 12.5585 3.74504 23.7457
596 1 -1.1104 15.9994 12.5374 3.76226 26.5255
597 1 -1.1104 15.9994 1.36373 6.54648 23.7376
598 1 -1.1104 15.9994 4.14363 6.54637 23.7352
599 1 -1.1104 15.9994 1.36983 6.54321 26.534
600 1 -1.1104 15.9994 4.15752 6.54775 26.5443
601 1 -1.1104 15.9994 1.37051 9.34405 23.7335
602 1 -1.1104 15.9994 4.15592 9.35115 23.7374
603 1 -1.1104 15.9994 1.37433 9.34373 26.5342
604 1 -1.1104 15.9994 4.16485 9.35024 26.5411
605 1 -1.1104 15.9994 6.86314 6.64133 23.8346
606 1 -1.1104 15.9994 9.83875 6.64004 23.831
607 1 -1.1104 15.9994 6.95461 6.55563 26.5525
608 1 -1.1104 15.9994 9.7663 6.53097 26.5294
609 1 -1.1104 15.9994 6.95049 9.35638 23.7664
610 1 -1.1104 15.9994 9.74628 9.35423 23.741
611 1 -1.1104 15.9994 6.95001 9.34717 26.7077
612 1 -1.1104 15.9994 9.74579 9.34357 26.5451
613 1 -1.1104 15.9994 12.5571 6.54842 23.7426
614 1 -1.1104 15.9994 12.5517 6.5478 26.5438
615 1 -1.1104 15.9994 12.5518 9.34859 23.7373
616 1 -1.1104 15.9994 12.5491 9.34554 26.54
617 1 -1.1104 15.9994 1.37059 12.1386 23.7293
618 1 -1.1104 15.9994 4.15576 12.1324 23.7101
619 1 -1.1104 15.9994 1.37249 12.1375 26.5319
620 1 -1.1104 15.9994 4.14516 12.1558 26.5191
621 1 -1.1104 15.9994 1.36393 14.9341 23.7371
622 1 -1.1104 15.9994 4.14336 14.9354 23.7357
623 1 -1.1104 15.9994 1.37349 14.9405 26.5358
624 1 -1.1104 15.9994 4.16101 14.9375 26.5465
625 1 -1.1104 15.9994 6.94829 12.1251 23.7358
626 1 -1.1104 15.9994 9.7483 12.1278 23.7341
627 1 -1.1104 15.9994 6.94524 12.1294 26.545
628 1 -1.1104 15.9994 9.74747 12.1286 26.5363
629 1 -1.1104 15.9994 6.85826 14.8449 23.8295
630 1 -1.1104 15.9994 9.84259 14.8437 23.829
631 1 -1.1104 15.9994 6.96697 14.9117 26.5379
632 1 -1.1104 15.9994 9.74594 14.9374 26.5467
633 1 -1.1104 15.9994 12.5511 12.1335 23.7325
634 2 2.2208 232.038 2.66923 2.43925 27.8401
635 2 2.2208 232.038 8.36716 2.37229 27.916
636 2 2.2208 232.038 8.37021 19.1413 27.9153
637 2 2.2208 232.038 2.74386 7.93846 27.92
638 2 2.2208 232.038 13.9429 7.93522 27.916
639 2 2.2208 232.038 13.8631 19.2189 27.8359
640 2 2.2208 232.038 13.8618 2.44028 27.8376
641 2 2.2208 232.038 5.58246 5.15028 27.9143
642 2 2.2208 232.038 8.44737 7.84157 27.8368
643 2 2.2208 232.038 11.1366 5.14911 27.9246
644 2 2.2208 232.038 2.73278 13.5469 27.9239
645 2 2.2208 232.038 5.47714 10.8278 27.8409
646 2 2.2208 232.038 8.39101 13.5459 27.9198
647 2 2.2208 232.038 11.1562 10.7586 27.9284
648 2 2.2208 232.038 2.66467 19.2212 27.8399
649 2 2.2208 232.038 5.65808 16.2533 27.8282
650 1 -1.1104 15.9994 12.5507 45.6994 12.5506
651 2 2.2208 232.038 8.28867 49.8199 13.875
652 2 2.2208 232.038 2.73973 27.5316 2.77184
653 1 -1.1104 15.9994 9.86466 48.4861 12.6679
654 2 2.2208 232.038 13.8756 44.2058 8.45393
655 2 2.2208 232.038 13.7283 47.1928 5.47623