LAMMPS data file via write_data, version 29 Oct 2020, timestep = 100000

27000 atoms
4 atom types

-0.4903228694054222 27.830322869406842 xlo xhi
-8.735518314593993 500.8555183145995 ylo yhi
-0.4866565397168596 27.826656539717696 zlo zhi

Masses

1 15.9994
2 232.0381
3 232.0381
4 15.9994

Atoms # full

1 0 2 2.2208 5.2625399534918404 -2.9922156894986225 5.1234287386374024 0 0 0
2 0 1 -1.1104 0.9072647360533334 -7.564707313139083 0.9025449020565924 0 0 0
6 0 1 -1.1104 0.6631891275277587 -6.949803409574722 3.969773226642297 0 0 0
10 0 1 -1.1104 0.9627053834290412 -4.4892149603305285 0.9420443227553599 0 0 0
12 0 2 2.2208 5.194835419299795 -5.87255272012236 2.5093098944178864 0 0 0
14 0 1 -1.1104 0.7350818982914066 -4.383232874640218 3.559467921248095 0 0 0
16 0 1 -1.1104 3.8218467281306787 -7.213267432088911 0.838637876681138 0 0 0
18 0 2 2.2208 2.2327271855341477 -3.04011924970701 2.3938253189539105 0 0 0
19 0 1 -1.1104 3.7835700830032035 -7.120349508662286 3.8295555600822007 0 0 0
21 0 2 2.2208 2.251492060697885 -5.75971181603297 5.103994744253367 0 0 0
23 0 1 -1.1104 3.6526430457876917 -4.281802371000403 0.7957522136461113 0 0 0
24 0 1 -1.1104 3.6721579493428145 -4.360765100147959 3.5770269138335613 0 0 0
8 0 1 -1.1104 6.498510003688655 -7.350210915069957 4.006319266587409 0 0 0
392 0 2 2.2208 2.3016348869066885 -5.761024723577827 27.779750823950753 0 0 -1
108 0 1 -1.1104 3.9627635136659842 -7.288165592527632 6.652756285063448 0 0 0
26 0 2 2.2208 5.010371762840132 -8.642943930392075 5.167784676198179 0 0 0
391 0 2 2.2208 5.03188864158149 -2.976118859388507 27.81397523228262 0 0 -1
4 0 1 -1.1104 6.703481343624922 -7.281401674521833 1.197783195225315 0 0 0
107 0 1 -1.1104 6.536511051917763 -4.46413318427929 6.529906589522926 0 0 0
110 0 1 -1.1104 3.656525985020323 -4.304455293345738 6.311580468156625 0 0 0
106 0 1 -1.1104 0.8853307852951326 -4.334678378503983 6.393889555377964 0 0 0
418 0 2 2.2208 5.347318839239475 -8.64645773889415 -0.43396098800727073 0 0 0
25 0 2 2.2208 2.4082839476280937 -8.626918376679903 2.356026263162968 0 0 0
328 0 1 -1.1104 6.654025073603232 9.476881315864489 20.57528694437706 0 0 0
417 0 2 2.2208 -0.46119596874017077 -8.635668304276575 22.252629217673423 0 0 0
12911 0 2 2.2208 -0.41725577102581707 2.877632039423757 10.659046772566647 0 0 0
11 0 1 -1.1104 6.727174339269662 -4.5273235525373225 1.0102880478841956 0 0 0
15 0 1 -1.1104 6.5320021058319435 -4.521806445761879 3.8409745531742443 0 0 0
27 0 2 2.2208 10.977388183357764 -2.809848959306216 5.158116340105696 0 0 0
28 0 1 -1.1104 12.590246777460992 -7.10978921500675 0.8696970373944826 0 0 0
30 0 1 -1.1104 12.626406639300207 -7.058254603086204 3.640500183153769 0 0 0
32 0 1 -1.1104 12.305740660300721 -4.154206111038293 0.7881961396601862 0 0 0
33 0 2 2.2208 10.870067531195534 -5.800549686915667 2.3455642193355737 0 0 0
35 0 1 -1.1104 12.26909913708444 -4.272101318975272 3.772873971501719 0 0 0
36 0 1 -1.1104 9.493095699869826 -7.10314339215326 0.9197306140701189 0 0 0
38 0 2 2.2208 8.09548562820801 -2.941332297881752 2.371561468252315 0 0 0
39 0 1 -1.1104 9.28303877057986 -7.201028083646418 3.786004567061465 0 0 0
41 0 2 2.2208 8.093886904751896 -5.687191063767085 5.116986879612922 0 0 0
43 0 1 -1.1104 9.517367456932888 -4.44337525591677 1.0260410140758023 0 0 0
44 0 1 -1.1104 9.443703527891206 -4.487148993960143 3.712557864504983 0 0 0
421 0 2 2.2208 10.915535590863726 -3.0424912472915273 27.72892442575603 0 0 -1
422 0 2 2.2208 7.907102948826227 -5.953822138160138 27.81388364418677 0 0 -1
139 0 1 -1.1104 12.221427327010531 -7.116073437143676 6.438339511803055 0 0 0
13190 0 2 2.2208 -0.3491189625003875 8.35749497095435 22.147865355050115 0 0 0
47 0 2 2.2208 10.71232220118957 -8.651994777610705 5.333681201871277 0 0 0
138 0 2 2.2208 2.166551225123748 -8.542521370693482 8.129369727671643 0 0 0
12975 0 2 2.2208 -0.18636675669896352 -0.10873305702613 13.713851049257464 0 0 0
446 0 2 2.2208 10.974491924611488 -8.463519413141574 22.011950227104315 0 0 0
276 0 2 2.2208 2.433187410166489 -8.623686974943023 13.767721846074103 0 0 0
20 0 1 -1.1104 3.705515628498661 -1.568445394836818 3.590768030469349 0 0 0
7 0 1 -1.1104 0.9979218075337494 -1.757856803023858 3.9248966636584557 0 0 0
3 0 1 -1.1104 0.7644750876784985 -1.4597163213291844 1.2534111739554354 0 0 0
13 0 2 2.2208 5.237406311975941 -0.28520747347597847 2.2536827822632053 0 0 0
17 0 1 -1.1104 3.7565351986371383 -1.533660452336729 0.8724702936809972 0 0 0
22 0 2 2.2208 2.4275433073577237 -0.08078196947784705 5.146433259200632 0 0 0
49 0 2 2.2208 5.096560930026985 2.5902873013502496 5.248419031535686 0 0 0
59 0 1 -1.1104 0.9894021496108055 1.4473479798551188 0.8382778924218433 0 0 0
64 0 1 -1.1104 0.9589196318534449 1.0300057439485044 3.79428663416123 0 0 0
70 0 2 2.2208 2.294087310764603 2.8067098200071046 2.1726886966747507 0 0 0
75 0 1 -1.1104 3.7269282362213003 1.4477274231010666 0.967924985529395 0 0 0
77 0 1 -1.1104 3.765756360281527 1.3100087920094274 3.7315175158270475 0 0 0
51 0 1 -1.1104 0.7109224874227669 4.334575551899276 0.9291295513329935 0 0 0
55 0 1 -1.1104 1.103402310486777 3.9407985870445184 3.8416984598732875 0 0 0
179 0 1 -1.1104 3.9748403671197208 4.032739294597965 6.48105839019315 0 0 0
61 0 1 -1.1104 6.5770957371985075 1.2265624367800787 0.9965357135887047 0 0 0
66 0 1 -1.1104 6.519203970789852 1.159845675074758 3.9024769761088187 0 0 0
9 0 1 -1.1104 6.572987834608035 -1.5508235755441775 3.8851225992364116 0 0 0
503 0 2 2.2208 10.963239966617719 8.53667053115349 22.045180288576386 0 0 0
393 0 2 2.2208 2.239633772635139 -0.10722237341341888 -0.35289081049876503 0 0 0
480 0 1 -1.1104 9.632746966383975 7.105532546977543 26.61297641878684 0 0 0
499 0 1 -1.1104 12.408029137018504 9.82967005928783 26.384010305052755 0 0 0
5 0 1 -1.1104 6.675616346171765 -1.6680861741411082 0.9411123857849202 0 0 0
29 0 1 -1.1104 12.41650856170257 -1.506030515020728 0.8137557924872535 0 0 0
40 0 1 -1.1104 9.399341077663435 -1.77681373114153 3.70571316093651 0 0 0
37 0 1 -1.1104 9.443051800379349 -1.4126427933448784 0.8733049986989181 0 0 0
31 0 1 -1.1104 12.455260641461908 -0.9368937610024314 3.4495776857985665 0 0 0
34 0 2 2.2208 10.993024817332856 -0.1260733206261431 2.1226255629612436 0 0 0
42 0 2 2.2208 7.978918126541889 -0.10054212030854286 5.204737835230456 0 0 0
79 0 2 2.2208 10.80073633998412 2.762177121618372 5.097806898728949 0 0 0
85 0 1 -1.1104 12.27389398746347 1.2145661507476462 0.6025804461523074 0 0 0
88 0 1 -1.1104 11.97663637121364 1.4824906798337618 3.6335610549061816 0 0 0
92 0 2 2.2208 7.986856030128556 2.7395356662233947 2.433721103125332 0 0 0
97 0 1 -1.1104 9.534591392523275 1.5428483017074526 0.7285128118666994 0 0 0
99 0 1 -1.1104 9.148925503594418 1.1732916516382361 3.7309178405680887 0 0 0
83 0 1 -1.1104 12.36404138657686 4.097355656749114 3.7955480429865767 0 0 0
491 0 2 2.2208 10.855198140476386 2.815907230525766 27.543094801024885 0 0 -1
423 0 2 2.2208 8.26604699749555 -0.03646997251068937 27.823533064665316 0 0 -1
177 0 1 -1.1104 6.548243537869707 1.3553141013203398 6.598671652366368 0 0 0
53 0 1 -1.1104 6.567799901457031 4.2022214955481685 0.9780739363030407 0 0 0
94 0 1 -1.1104 9.612687898501104 4.005771480445019 3.5100857591433936 0 0 0
90 0 1 -1.1104 9.48978420318692 4.192437606668589 0.9783259910412926 0 0 0
213 0 1 -1.1104 12.293958969515597 4.230257126391283 6.8158445530830445 0 0 0
72 0 1 -1.1104 3.8580015170592175 4.221019033938337 3.4762727764071237 0 0 0
68 0 1 -1.1104 3.7152028439859293 4.169958241429763 0.9604213349640602 0 0 0
50 0 2 2.2208 5.153434811427502 8.441540997524308 5.028802129120117 0 0 0
52 0 1 -1.1104 0.8643695144644368 9.912499890293288 0.6474314141895422 0 0 0
56 0 1 -1.1104 0.7645765746051525 9.75559159818864 3.8117501143695187 0 0 0
60 0 1 -1.1104 1.0586042985882835 7.223867423948602 1.1236634668674468 0 0 0
63 0 2 2.2208 5.178063451816049 5.608541724878849 2.172500459969645 0 0 0
65 0 1 -1.1104 1.0444217256694928 6.782427939070294 3.704180731264147 0 0 0
69 0 1 -1.1104 3.843482167982978 9.687030355158342 0.9456038210485754 0 0 0
71 0 2 2.2208 2.5550016018679353 8.45743783016903 2.428923394925342 0 0 0
73 0 1 -1.1104 3.6796817609232697 9.752355550103017 3.789402120169573 0 0 0
74 0 2 2.2208 2.4953478021896354 5.400423217953138 5.042776624518448 0 0 0
76 0 1 -1.1104 3.8569286570414154 6.9217868435629955 0.9303130442909983 0 0 0
78 0 1 -1.1104 4.0749604643165585 7.148812166726803 3.5248691501284872 0 0 0
182 0 1 -1.1104 3.5882071781093026 7.011811272396427 6.563578837403063 0 0 0
12759 0 2 2.2208 -0.452145206800766 8.141035205190343 5.136226997006106 0 0 0
12879 0 2 2.2208 -0.1563931693053587 5.476414926423448 7.887281763963579 0 0 0
48 0 2 2.2208 8.113224309846679 -8.700449187856112 2.5755208455126564 0 0 0
57 0 1 -1.1104 6.657916983255342 4.119567741022911 3.9380794433335122 0 0 0
81 0 1 -1.1104 12.253331905424611 4.128109082785733 0.9389932229962512 0 0 0
62 0 1 -1.1104 6.497324960260411 6.816798367908176 0.8412725690181029 0 0 0
67 0 1 -1.1104 6.547349725264622 6.952616562629712 3.8532807358232986 0 0 0
54 0 1 -1.1104 6.48580070256923 10.004000210842111 1.110058242202235 0 0 0
58 0 1 -1.1104 6.61199493211665 9.79652178527608 3.7238316899569766 0 0 0
80 0 2 2.2208 11.02309283323098 8.424086280184774 5.133902585002737 0 0 0
82 0 1 -1.1104 12.189867242304864 9.748905858942448 0.8624119853371235 0 0 0
84 0 1 -1.1104 12.309716697644484 9.682119006302294 3.5590273911596806 0 0 0
86 0 1 -1.1104 12.298914486997003 7.039764922995762 1.0385864055580476 0 0 0
87 0 2 2.2208 10.805915949501532 5.498366083467862 2.392357694814898 0 0 0
89 0 1 -1.1104 12.391964250705858 6.819994484967653 3.726369449660881 0 0 0
91 0 1 -1.1104 9.41379119805114 9.83178680376424 0.9926309097133037 0 0 0
93 0 2 2.2208 7.95221075316956 8.466667706993167 2.335692079920189 0 0 0
95 0 1 -1.1104 9.605949622014801 9.793776312414968 3.811877416179946 0 0 0
96 0 2 2.2208 7.982528523745446 5.587955985677455 5.092974012486619 0 0 0
98 0 1 -1.1104 9.507268123941273 6.932751332275138 1.1129528273891685 0 0 0
100 0 1 -1.1104 9.293642648437748 6.990341167838156 3.935897492877369 0 0 0
178 0 1 -1.1104 6.366256161981753 6.839713805504337 6.718298288069445 0 0 0
220 0 1 -1.1104 9.45622087048938 6.742531305054946 6.709888817995776 0 0 0
493 0 2 2.2208 8.154436622451362 5.704308396533279 -0.4836212533621591 0 0 0
374 0 1 -1.1104 12.303518793282313 7.237344031353019 20.494896683568932 0 0 0
13125 0 2 2.2208 -0.39857488050437817 -5.723645635205914 25.090168804119564 0 0 0
496 0 2 2.2208 11.050629984343916 5.667132151093228 25.059073634915592 0 0 0
12831 0 2 2.2208 -0.28222112928610743 0.0021653732833729882 8.093668647345792 0 0 0
102 0 1 -1.1104 0.8839267898426015 -7.245385298947298 6.806648217539176 0 0 0
111 0 2 2.2208 5.009881714608732 -2.9373083437022682 10.896230548677854 0 0 0
112 0 1 -1.1104 0.9768743292482528 -7.189060738268817 12.247325310408224 0 0 0
116 0 1 -1.1104 0.6346950332044742 -7.163206908399366 9.486053437910384 0 0 0
120 0 1 -1.1104 0.8552067249720231 -4.385023534983486 12.201723641655843 0 0 0
122 0 2 2.2208 5.287138498297498 -5.760455622698637 7.9443322846393665 0 0 0
125 0 1 -1.1104 0.8323535171492414 -4.329006113781751 9.437134773214321 0 0 0
127 0 1 -1.1104 3.8161951740454017 -7.356342618412711 12.511785761670664 0 0 0
129 0 2 2.2208 2.507858745278871 -2.959294628497965 7.667122887025816 0 0 0
131 0 1 -1.1104 3.4189731383362214 -7.206535446161685 9.323291284133749 0 0 0
133 0 2 2.2208 2.3723648237297774 -5.788818422448584 10.843085415953885 0 0 0
135 0 1 -1.1104 3.847582303703429 -4.445670510636209 12.287071507738943 0 0 0
136 0 1 -1.1104 3.768109963420151 -4.492586369767308 9.385275381938692 0 0 0
123 0 2 2.2208 5.108848092062076 -5.828864021545222 13.640005491850884 0 0 0
104 0 1 -1.1104 6.818594633650108 -7.112435417372209 6.719274766862153 0 0 0
118 0 1 -1.1104 6.573125254831482 -7.407812959505355 9.488638655944792 0 0 0
382 0 1 -1.1104 9.386748995312006 9.867249382745129 20.6521892069693 0 0 0
389 0 1 -1.1104 9.575811836469681 6.996538871436042 20.856947485491713 0 0 0
141 0 1 -1.1104 12.294099133694406 -4.0869746466746255 6.7290767511963825 0 0 0
278 0 2 2.2208 5.653540646754186 -8.596765446846 16.52004630333382 0 0 0
12880 0 2 2.2208 -0.25716601728527594 8.172433033290837 10.820487721920761 0 0 0
121 0 1 -1.1104 6.640462255963133 -4.4668269812572605 12.164651712061225 0 0 0
126 0 1 -1.1104 6.573174662254749 -4.354339396040026 9.279058006222161 0 0 0
142 0 1 -1.1104 9.51624254161776 -7.112172275580717 6.558684282268683 0 0 0
114 0 1 -1.1104 6.687976690303223 -7.156687192554455 12.235884953348144 0 0 0
144 0 1 -1.1104 9.544288121452269 -4.496376900515074 6.56098602860049 0 0 0
145 0 2 2.2208 10.742271395870306 -2.971266065077592 10.754160247571884 0 0 0
146 0 1 -1.1104 12.09919868125561 -7.3238200407367575 12.165850812160564 0 0 0
148 0 1 -1.1104 12.21124753024504 -7.3335594476837604 9.271085243775076 0 0 0
150 0 1 -1.1104 12.31717356011433 -4.6818352241202374 12.318628584574974 0 0 0
151 0 2 2.2208 10.815848390707723 -5.831337529503272 8.060221910188808 0 0 0
154 0 1 -1.1104 12.08122328233701 -4.590899868887485 9.36046910914256 0 0 0
155 0 1 -1.1104 9.331135181791922 -7.442147888442769 12.140862340322988 0 0 0
157 0 2 2.2208 7.9654204932523776 -3.141308077488919 7.83826148404831 0 0 0
159 0 1 -1.1104 9.346139470184708 -7.341161620676072 9.342118950693006 0 0 0
161 0 2 2.2208 7.981191234705369 -5.9306369480804895 10.765006844441787 0 0 0
163 0 1 -1.1104 9.446241003837827 -4.751947157277753 12.333291494280092 0 0 0
164 0 1 -1.1104 9.473567518127462 -4.640870214754976 9.528037605925276 0 0 0
158 0 2 2.2208 8.079847782731468 -3.2816709285824066 13.505932357242472 0 0 0
13019 0 2 2.2208 -0.4510987380371589 5.40816337639824 19.29880394027891 0 0 0
12673 0 2 2.2208 13.559214307200707 -8.55335245919627 2.3895350933434805 0 0 0
175 0 1 -1.1104 0.9877906108592698 1.3724312046491303 6.598772274402804 0 0 0
171 0 1 -1.1104 1.0786253999738882 4.118110614698545 6.688350011674333 0 0 0
181 0 1 -1.1104 3.8383831430498243 1.2038245980238544 6.687965051349873 0 0 0
109 0 1 -1.1104 4.227303712377118 -1.445391354921911 6.471359189240935 0 0 0
103 0 1 -1.1104 1.0601956316141106 -1.5386532531014896 6.728852579892146 0 0 0
173 0 1 -1.1104 6.5753522433789735 4.056577921270472 6.795363296003602 0 0 0
117 0 1 -1.1104 0.9638378804253546 -1.6307231597412786 9.578274750096233 0 0 0
132 0 1 -1.1104 3.9065432703946996 -1.6021152433510912 9.187360116056091 0 0 0
113 0 1 -1.1104 0.946866327074799 -1.6908266741831965 12.406843675706911 0 0 0
124 0 2 2.2208 5.357271743685915 -0.1166609394882135 7.851124682845859 0 0 0
128 0 1 -1.1104 3.7655909492216857 -1.505171408904019 12.146670723798433 0 0 0
134 0 2 2.2208 2.429105379515267 -0.07021325980818217 10.772115632905274 0 0 0
183 0 2 2.2208 5.413975072828303 2.4964045674517648 10.985749173527731 0 0 0
193 0 1 -1.1104 0.9216630515681608 1.0631216323648232 12.086977651078499 0 0 0
198 0 1 -1.1104 1.3839079961903236 1.2479284041717558 9.312282757945093 0 0 0
204 0 2 2.2208 2.581879043027186 2.735851022151166 8.133154823827143 0 0 0
209 0 1 -1.1104 3.831203416270014 1.3537181630988493 12.342772477286301 0 0 0
211 0 1 -1.1104 3.9277244889826624 1.189372441604219 9.314824996543384 0 0 0
202 0 1 -1.1104 3.893515191181426 4.214514677631605 12.242001587863028 0 0 0
206 0 1 -1.1104 3.8938615923011106 4.256118768322825 9.437908073245035 0 0 0
189 0 1 -1.1104 1.140182875639171 4.144894132446184 9.398865232870156 0 0 0
487 0 2 2.2208 8.179444097450167 8.268964620066082 25.117291633739466 0 0 0
168 0 2 2.2208 7.967454628323645 -8.519113899049444 8.012299024375716 0 0 0
313 0 2 2.2208 2.3471552160782863 2.5735908162616297 13.750216648588998 0 0 0
501 0 1 -1.1104 12.373715687483637 10.079341447176684 23.700751209074156 0 0 0
219 0 1 -1.1104 9.61280966482248 1.1924386764081538 6.4743981570971485 0 0 0
143 0 1 -1.1104 9.64066270239813 -1.4247070322007094 6.569089704428072 0 0 0
105 0 1 -1.1104 6.710048396795673 -1.7997976953515595 6.802012486585772 0 0 0
191 0 1 -1.1104 6.709265905447012 3.928662981295485 9.558746840234866 0 0 0
195 0 1 -1.1104 6.566545011884497 0.887911546462994 12.218221169286164 0 0 0
187 0 1 -1.1104 6.579526292897838 3.6399943990374957 12.496044327995321 0 0 0
200 0 1 -1.1104 6.773890170257222 1.224279068828568 9.267075890602941 0 0 0
119 0 1 -1.1104 6.529162322802138 -1.6590866655157879 9.512593149123104 0 0 0
115 0 1 -1.1104 6.5964121446643675 -1.8722476800832304 12.57606586143252 0 0 0
215 0 1 -1.1104 12.392009760822212 1.4925795221641585 6.639513842707683 0 0 0
140 0 1 -1.1104 12.474394824745314 -1.5462637032264872 6.186676036949981 0 0 0
217 0 1 -1.1104 9.326953768019333 4.0958394249111985 6.33598260068511 0 0 0
160 0 1 -1.1104 9.532009100039572 -1.5916442964000803 9.403320788664052 0 0 0
147 0 1 -1.1104 12.291161863739104 -1.5529893717806034 12.233643741426826 0 0 0
149 0 1 -1.1104 12.31831739431815 -1.6802367196420953 9.29522740778365 0 0 0
153 0 2 2.2208 11.138364242872582 -0.14798008806572657 8.036425370896682 0 0 0
156 0 1 -1.1104 9.46754064047273 -1.7942403002394687 12.168256805601036 0 0 0
162 0 2 2.2208 7.982114062846182 -0.330817984321252 10.744572079348716 0 0 0
221 0 2 2.2208 10.721541469164286 2.5747721074153307 10.875859646996638 0 0 0
227 0 1 -1.1104 12.0105090217423 1.0946489491809526 12.313917058972939 0 0 0
230 0 1 -1.1104 12.177027054887677 1.2376775068867625 9.455653585013058 0 0 0
234 0 2 2.2208 8.111118865260485 2.6581259989253323 7.777907162643831 0 0 0
239 0 1 -1.1104 9.311373993954895 1.1222569015236108 12.255501374120685 0 0 0
241 0 1 -1.1104 9.526580479089098 1.2932901124200036 9.232757954578908 0 0 0
236 0 1 -1.1104 9.61252531259579 3.983409267434174 9.403723350510125 0 0 0
225 0 1 -1.1104 12.177232659626691 4.254510794302365 9.497315299815378 0 0 0
223 0 1 -1.1104 12.046231122392248 3.8146107158466442 12.311491130782352 0 0 0
232 0 1 -1.1104 9.281706995898661 4.126667944243362 12.188571308403581 0 0 0
12731 0 2 2.2208 -0.42589860519351325 5.842251226689851 2.221258861085146 0 0 0
180 0 1 -1.1104 3.941236507379215 9.764767614168996 6.637965806604841 0 0 0
484 0 2 2.2208 8.018886330012307 5.399160383201887 22.46147981870658 0 0 0
185 0 1 -1.1104 0.8248059347030744 4.005319605980951 12.158789533753549 0 0 0
172 0 1 -1.1104 1.2008470977431969 9.697246133230198 6.644123336187597 0 0 0
176 0 1 -1.1104 0.9332443591244196 6.756770140280074 6.323264539699123 0 0 0
184 0 2 2.2208 5.320746885294936 8.292617962346931 11.08135243238089 0 0 0
186 0 1 -1.1104 0.7883926470702807 9.732915137078969 12.169961109452412 0 0 0
190 0 1 -1.1104 0.9848695753228445 9.564599827024763 9.354793179370725 0 0 0
194 0 1 -1.1104 1.1016682866610832 6.917996785053925 12.193391174989648 0 0 0
197 0 2 2.2208 5.222864783109705 5.490781918122156 8.099582270696798 0 0 0
199 0 1 -1.1104 1.1156381406303801 6.762016252089239 9.334497497868929 0 0 0
203 0 1 -1.1104 3.5713010941598915 9.671280735887937 12.21393852102798 0 0 0
205 0 2 2.2208 2.540119869208139 8.34743436111516 7.985666194575563 0 0 0
207 0 1 -1.1104 4.026067488225373 9.888319264082169 9.361280631214393 0 0 0
208 0 2 2.2208 2.551708918153574 5.478888143882725 10.8258353118695 0 0 0
210 0 1 -1.1104 3.8624930810995997 6.998196508394042 12.205018338613831 0 0 0
212 0 1 -1.1104 3.847089679629807 7.014780612083981 9.669975866126927 0 0 0
312 0 2 2.2208 4.947861649102202 5.60597060473591 13.587683422218491 0 0 0
216 0 1 -1.1104 12.433120404663391 7.217493040696755 6.290514413147701 0 0 0
174 0 1 -1.1104 6.788404473317944 9.888864445430182 6.6681031354972 0 0 0
196 0 1 -1.1104 6.6701686847686945 6.701887434164815 12.482211634209433 0 0 0
201 0 1 -1.1104 6.694180391144026 6.9515576681714855 9.28275946508292 0 0 0
192 0 1 -1.1104 6.549684864353622 9.911928287994348 9.490406858715637 0 0 0
188 0 1 -1.1104 6.301884450043502 9.757555049313968 12.292267279557757 0 0 0
214 0 1 -1.1104 12.307069510525864 9.891989984945132 6.255002261433464 0 0 0
218 0 1 -1.1104 9.465010993334806 9.803447228126961 6.5710561529831395 0 0 0
222 0 2 2.2208 10.864985063944575 8.236783103459633 10.749901743121775 0 0 0
224 0 1 -1.1104 12.31653535340206 9.657054426869149 12.242212602939762 0 0 0
226 0 1 -1.1104 12.253534005414961 9.947032492900838 9.336551617160637 0 0 0
228 0 1 -1.1104 12.176425452711728 6.719062140629148 11.903535718156213 0 0 0
229 0 2 2.2208 10.940641178457106 5.689180830822185 7.862292785511545 0 0 0
231 0 1 -1.1104 12.103465673198617 7.1141392139563076 9.13470468627206 0 0 0
233 0 1 -1.1104 9.427115708662383 9.766858950237491 12.01269766164145 0 0 0
235 0 2 2.2208 8.189543943961867 8.345723055595966 7.9031013141972775 0 0 0
237 0 1 -1.1104 9.507407423038835 9.740015146073512 9.058365508394967 0 0 0
238 0 2 2.2208 8.135540542928384 5.531577941674418 10.516270755534137 0 0 0
240 0 1 -1.1104 9.486321625817805 7.105547457886877 12.17552728327929 0 0 0
242 0 1 -1.1104 9.35037814756949 6.839924795275669 9.36213516388377 0 0 0
357 0 2 2.2208 10.847835303064542 5.520863476238787 13.499221323307895 0 0 0
130 0 2 2.2208 2.4392634462259384 -2.9129091217945695 13.822375947386137 0 0 0
246 0 2 2.2208 5.259584343167113 -2.846157055696982 16.430879958474428 0 0 0
247 0 1 -1.1104 1.0814590359294307 -7.295489262695105 17.965745952851112 0 0 0
250 0 1 -1.1104 0.8042996744641323 -7.195545027340339 15.258892647800742 0 0 0
257 0 1 -1.1104 0.8389923770334494 -4.143851368178582 18.07603906676104 0 0 0
259 0 2 2.2208 5.168674614870567 -5.661355669763128 19.113883730955674 0 0 0
261 0 1 -1.1104 0.95464084909781 -4.131471074698354 15.063981314829137 0 0 0
264 0 1 -1.1104 3.933823017925717 -7.265473269376785 17.800408749909295 0 0 0
266 0 2 2.2208 2.4629988243855 -2.794037222098733 19.350134942350138 0 0 0
267 0 1 -1.1104 3.6286249273105673 -7.325477154498856 15.22275137637968 0 0 0
271 0 2 2.2208 2.1671366449097254 -5.701065140517856 16.654826271510725 0 0 0
273 0 1 -1.1104 3.7245264686008968 -4.5059988109781814 17.84905861552947 0 0 0
274 0 1 -1.1104 3.817863866200763 -4.24288800704654 15.000179523697089 0 0 0
263 0 1 -1.1104 6.642853691811281 -4.9572317127347665 15.15563321073733 0 0 0
254 0 1 -1.1104 6.854705944036349 -7.5809097888164425 14.920041577537859 0 0 0
258 0 1 -1.1104 6.559101332264753 -4.273248804813797 17.752287106980116 0 0 0
12947 0 2 2.2208 -0.3886136739633558 -2.7962342630756543 16.577297790994308 0 0 0
12943 0 2 2.2208 13.560116714915837 -8.652528768287691 19.286492032312555 0 0 0
12793 0 2 2.2208 13.46499076448595 -8.493705870410954 7.863336185582161 0 0 0
310 0 2 2.2208 8.088062601930083 -8.64306378403547 19.270537565521867 0 0 0
311 0 2 2.2208 10.762772170797646 -8.731398954841735 16.36583653281881 0 0 0
280 0 1 -1.1104 6.612245885377856 -7.287521762814629 18.00213264299148 0 0 0
152 0 2 2.2208 10.952343497259026 -5.96795557911938 13.77807772787542 0 0 0
283 0 2 2.2208 10.887929746326213 -2.9098719587756383 16.522460270925148 0 0 0
284 0 1 -1.1104 12.428301177960613 -7.211981992523754 18.00055406351031 0 0 0
286 0 1 -1.1104 12.29883490829105 -7.402657914569549 15.040470903627101 0 0 0
290 0 1 -1.1104 12.229532984897064 -4.436521705224281 17.899859933336238 0 0 0
291 0 2 2.2208 10.949785544033801 -5.70875645825253 19.345899334601963 0 0 0
293 0 1 -1.1104 12.231952949430175 -4.289840426377812 15.048065838589084 0 0 0
295 0 1 -1.1104 9.48794199308042 -7.2428994642637 17.712564423075516 0 0 0
297 0 2 2.2208 8.094735944890772 -3.0581162561329136 19.3684348089124 0 0 0
298 0 1 -1.1104 9.621641830414932 -7.268497677034651 14.971944772870327 0 0 0
302 0 2 2.2208 8.257362765051708 -5.807402433720802 16.35843010127667 0 0 0
304 0 1 -1.1104 9.336128569787045 -4.490576741173875 17.930805110140536 0 0 0
305 0 1 -1.1104 9.591971419087017 -4.369206147921054 15.128995789994141 0 0 0
13191 0 2 2.2208 -0.11004571038293712 8.161029860160644 27.69786372317666 0 0 -1
489 0 1 -1.1104 9.526936589816334 9.77095776477235 23.56824121667611 0 0 0
13157 0 2 2.2208 -0.2917492948086888 5.469638033922584 25.076681277907923 0 0 0
245 0 2 2.2208 5.279704864280717 -0.13291458758455713 13.66561104727614 0 0 0
249 0 1 -1.1104 6.8067637122823035 -1.3729082177937568 18.114156820253097 0 0 0
269 0 1 -1.1104 4.003385544624599 -1.5610960925566157 15.015434263138252 0 0 0
248 0 1 -1.1104 1.2397366586717191 -1.3630591859239662 18.000099140525858 0 0 0
252 0 1 -1.1104 1.3614640125404331 -1.1655467296453794 15.29937176664748 0 0 0
260 0 2 2.2208 5.337289127893974 -0.20772970441363398 19.345319219296538 0 0 0
265 0 1 -1.1104 3.9064017330072605 -1.5845271697838892 17.868183233952635 0 0 0
272 0 2 2.2208 2.5437612643126366 0.14815811320786337 16.48217772577329 0 0 0
315 0 2 2.2208 5.459028752087062 2.7549297330379523 16.62863527405289 0 0 0
329 0 1 -1.1104 1.0639594524115916 1.3658600966014298 17.77387101764759 0 0 0
334 0 1 -1.1104 1.1871281018993238 1.4589493290657398 14.97584716645812 0 0 0
344 0 2 2.2208 2.5071762567180698 2.840685162514983 19.456173500007292 0 0 0
351 0 1 -1.1104 4.127544241358077 1.3278460402440577 18.162359227941156 0 0 0
353 0 1 -1.1104 3.8752491596520575 1.4772278326685981 15.193349001225128 0 0 0
346 0 1 -1.1104 3.4672879303911825 4.252774686394342 15.04640764789773 0 0 0
342 0 1 -1.1104 3.8168353269872597 3.939361717736608 17.72927738483181 0 0 0
321 0 1 -1.1104 0.8982739199542035 4.336999163913744 15.100076235753244 0 0 0
325 0 1 -1.1104 6.3401568925715805 4.544376153798581 15.269064889054524 0 0 0
322 0 1 -1.1104 0.8855556426160498 4.053942230775696 21.15101712623522 0 0 0
317 0 1 -1.1104 0.9827506956077983 4.134484600375763 18.007061070376274 0 0 0
354 0 1 -1.1104 3.929914065866955 1.3772793085331463 20.893982026427523 0 0 0
270 0 1 -1.1104 3.8838467693985472 -1.498513041980093 20.478193708545778 0 0 0
347 0 1 -1.1104 3.501627336925423 4.238088649118704 20.63413704940543 0 0 0
335 0 1 -1.1104 1.1961101413700646 1.1898410154025791 20.597011108506358 0 0 0
420 0 2 2.2208 5.1794218817705335 -8.582339844922625 21.924605664461662 0 0 0
255 0 1 -1.1104 6.88121439576299 -1.8100020990056516 15.137255616410691 0 0 0
331 0 1 -1.1104 6.867967163801036 1.6082992769382347 17.703858440834583 0 0 0
279 0 2 2.2208 10.737671342521548 -0.2690638089359766 13.390960050762226 0 0 0
338 0 1 -1.1104 6.498920521945237 1.4948881440759312 14.865115153989727 0 0 0
358 0 2 2.2208 8.067749700425836 2.4805209774034918 13.575779796700193 0 0 0
288 0 1 -1.1104 12.450737355976297 -1.4164089481380342 15.180938144744289 0 0 0
296 0 1 -1.1104 9.571977596780771 -1.902064061369751 18.03352422099704 0 0 0
285 0 1 -1.1104 12.156491920716597 -1.6719796224569823 17.85888530293181 0 0 0
292 0 2 2.2208 10.988421503399827 0.12622577567494353 19.267983829890557 0 0 0
300 0 1 -1.1104 9.332293326188031 -1.7090857515900637 15.107415984113036 0 0 0
303 0 2 2.2208 8.487168387052776 -0.0682107093074522 16.632775240748277 0 0 0
360 0 2 2.2208 10.56828245463686 2.7857285934469806 16.328480818763698 0 0 0
368 0 1 -1.1104 12.238791586553472 1.380552705186217 17.855152729821807 0 0 0
371 0 1 -1.1104 12.306351063723122 1.345574096280837 15.241752817938492 0 0 0
377 0 2 2.2208 8.042657256083404 2.6882689298326463 19.469334741350913 0 0 0
384 0 1 -1.1104 9.688593960696611 1.2058558841838805 17.93130943718769 0 0 0
386 0 1 -1.1104 9.535042702179753 0.9747390651636479 15.011670012278541 0 0 0
379 0 1 -1.1104 9.059713468041174 4.014604799669535 15.135272654889887 0 0 0
375 0 1 -1.1104 9.458068765505963 3.8524507319472976 17.977349387900418 0 0 0
301 0 1 -1.1104 9.551564397710456 -1.6565967436351974 20.64982991192641 0 0 0
478 0 1 -1.1104 6.8473166876218725 7.1325608130834235 26.348184173595165 0 0 0
339 0 1 -1.1104 6.7407656571291295 1.2558067716802859 20.834265281448637 0 0 0
387 0 1 -1.1104 9.508926433965158 1.4049482649293648 20.681206658399297 0 0 0
289 0 1 -1.1104 12.362084785189003 -1.2836779734216086 20.828960716870114 0 0 0
12829 0 2 2.2208 -0.41787804910850523 -5.645766828744896 13.838070778663448 0 0 0
13091 0 2 2.2208 13.555328733137236 -5.677229057639545 22.125160205299522 0 0 0
314 0 2 2.2208 2.4373688755075316 8.53342602764975 13.753838834530828 0 0 0
316 0 2 2.2208 5.204901299850763 8.257080944730001 16.682911346453825 0 0 0
318 0 1 -1.1104 1.1754317091683393 9.890886091784882 17.87993380803623 0 0 0
323 0 1 -1.1104 0.9939003036770462 9.808645953540154 15.178487029204634 0 0 0
330 0 1 -1.1104 0.9276929735887897 6.939316048015963 17.880216195947334 0 0 0
333 0 2 2.2208 5.176543372084937 5.347745579729209 19.330866531128013 0 0 0
336 0 1 -1.1104 0.8981690563044933 6.952222824774563 15.04905019796665 0 0 0
343 0 1 -1.1104 3.8777720009095695 9.701187979430097 17.66466576420741 0 0 0
345 0 2 2.2208 2.3522637220710116 8.331737063098352 19.302251013020054 0 0 0
348 0 1 -1.1104 3.9591679881147015 9.817348977933905 15.000591613724886 0 0 0
350 0 2 2.2208 2.3776706046815557 5.5759040882031945 16.464000304887946 0 0 0
352 0 1 -1.1104 3.676849379047772 6.901767988316444 17.828429080189554 0 0 0
355 0 1 -1.1104 3.9178651593153053 7.03647087362624 15.03812696170541 0 0 0
356 0 1 -1.1104 3.8198356601739007 6.791774180071784 20.876202685249286 0 0 0
337 0 1 -1.1104 0.9671560779048148 6.776259761050417 20.506093380471725 0 0 0
324 0 1 -1.1104 1.1991507632317513 9.761490314298426 20.695599591442356 0 0 0
12733 0 2 2.2208 -0.37900551960163253 2.6116677973777747 5.191078559566366 0 0 0
349 0 1 -1.1104 4.000374614306511 9.553107788381574 20.62879417380186 0 0 0
319 0 1 -1.1104 6.8151844463205595 4.368412741149057 17.91009849355827 0 0 0
362 0 1 -1.1104 12.288579705221332 4.029537914727482 17.928055420286306 0 0 0
364 0 1 -1.1104 12.160010589314375 4.322475135711795 15.250133390226381 0 0 0
341 0 1 -1.1104 6.732985411957067 6.53501491638186 20.80256783631521 0 0 0
320 0 1 -1.1104 7.048204658034514 9.961192673908347 18.076507956636245 0 0 0
332 0 1 -1.1104 6.61266751989109 7.001050588503858 18.143239341652023 0 0 0
327 0 1 -1.1104 6.838840257187626 9.96218933005497 15.082147356023142 0 0 0
359 0 2 2.2208 8.104684912004481 8.210986163981776 13.840803190463847 0 0 0