ITEM: TIMESTEP
90000
ITEM: NUMBER OF ATOMS
27000
ITEM: BOX BOUNDS pp pp pp
-4.8109471276070032e-01 2.7821094712762012e+01
-8.7569397289361941e+00 5.0087693972894124e+02
-4.9233002048630747e-01 2.7832330020486868e+01
ITEM: ATOMS id type q x y z
1 2 2.2208 5.13429 -2.91612 4.93401
2 1 -1.1104 1.04467 -7.28737 0.836562
6 1 -1.1104 1.15272 -7.11939 3.59149
10 1 -1.1104 1.11744 -4.35395 0.91017
12 2 2.2208 5.49703 -5.95524 2.0491
14 1 -1.1104 1.00592 -4.18632 3.71759
16 1 -1.1104 4.02414 -7.2371 0.854905
18 2 2.2208 2.39532 -2.8463 2.11804
19 1 -1.1104 3.99836 -7.07554 3.73521
21 2 2.2208 2.43543 -5.67758 4.96437
23 1 -1.1104 3.8123 -4.59659 0.712283
24 1 -1.1104 3.84369 -4.17534 3.37538
4 1 -1.1104 6.75595 -7.33495 0.712269
15 1 -1.1104 6.76505 -4.52852 3.54194
108 1 -1.1104 3.96268 -7.21512 6.56872
26 2 2.2208 5.36626 -8.49126 5.28248
102 1 -1.1104 1.11367 -7.17697 6.35515
106 1 -1.1104 0.945269 -4.39632 6.42648
110 1 -1.1104 3.69433 -4.29693 6.47824
168 2 2.2208 8.05253 -8.67958 7.79636
444 2 2.2208 11.0731 -8.65558 27.7208
480 1 -1.1104 9.5294 7.16077 26.3956
11 1 -1.1104 6.79653 -4.59795 0.718048
104 1 -1.1104 6.93536 -7.10326 6.41721
107 1 -1.1104 6.50014 -4.36733 6.30507
8 1 -1.1104 6.74092 -7.30405 3.74206
27 2 2.2208 10.8474 -3.1871 5.08149
28 1 -1.1104 12.5482 -7.22947 0.691292
30 1 -1.1104 12.4634 -7.22262 3.45858
32 1 -1.1104 12.5133 -4.45182 0.681833
33 2 2.2208 11.0453 -5.80241 2.05189
35 1 -1.1104 12.3037 -4.50349 3.54602
36 1 -1.1104 9.44934 -7.03742 0.716427
38 2 2.2208 8.12572 -3.15054 2.41118
39 1 -1.1104 9.70279 -7.68 3.53285
41 2 2.2208 8.06178 -5.83774 5.10142
43 1 -1.1104 9.73907 -4.02158 0.778844
44 1 -1.1104 9.73359 -4.76047 3.90236
144 1 -1.1104 9.39691 -4.46004 6.59162
485 1 -1.1104 9.51672 9.90983 26.3966
142 1 -1.1104 9.60121 -7.35786 6.39901
141 1 -1.1104 12.3146 -4.30296 6.49468
139 1 -1.1104 12.5107 -6.95816 6.65109
243 2 2.2208 13.5825 5.56089 10.8412
276 2 2.2208 2.26855 -8.61629 13.3912
20 1 -1.1104 3.86593 -1.48658 3.37119
7 1 -1.1104 0.785497 -1.42113 3.76804
3 1 -1.1104 1.01494 -1.42928 0.767099
13 2 2.2208 5.49527 -0.00370152 2.09486
17 1 -1.1104 3.85201 -1.68185 0.520885
22 2 2.2208 2.58024 0.000686079 4.92133
49 2 2.2208 5.38393 2.93772 5.0367
59 1 -1.1104 1.00447 1.16723 0.366074
64 1 -1.1104 0.945403 1.3209 3.25914
70 2 2.2208 2.48688 2.66861 2.23054
75 1 -1.1104 3.95191 1.13151 0.913902
77 1 -1.1104 3.80128 1.25181 3.54377
51 1 -1.1104 1.28192 3.97655 0.722605
55 1 -1.1104 1.07536 4.40536 3.67249
72 1 -1.1104 3.87007 3.92231 3.75463
53 1 -1.1104 7.04613 4.147 0.886473
57 1 -1.1104 6.81834 4.22739 3.74127
9 1 -1.1104 6.63885 -1.62309 3.7879
179 1 -1.1104 3.7511 4.09118 6.47414
105 1 -1.1104 6.35526 -1.7911 6.54575
175 1 -1.1104 1.04908 1.25396 6.21332
171 1 -1.1104 1.11673 4.09946 6.63607
103 1 -1.1104 0.920208 -1.49319 6.54778
496 2 2.2208 10.9525 5.65436 24.7908
137 2 2.2208 5.14829 -8.67828 10.6239
5 1 -1.1104 6.63695 -1.71011 0.929697
61 1 -1.1104 6.7923 1.24742 0.715861
66 1 -1.1104 6.67211 1.25621 3.66528
29 1 -1.1104 12.6221 -1.27088 0.833581
40 1 -1.1104 9.4619 -1.63052 3.72615
37 1 -1.1104 9.44773 -1.49896 0.972162
31 1 -1.1104 12.1432 -1.91669 3.54271
34 2 2.2208 10.902 -0.124918 2.23253
42 2 2.2208 8.2115 -0.132965 4.96369
79 2 2.2208 10.6143 2.80156 4.80588
85 1 -1.1104 12.3001 1.34218 0.895588
88 1 -1.1104 12.2743 1.48029 3.62895
92 2 2.2208 8.19288 2.5805 2.20586
97 1 -1.1104 9.44847 1.356 0.826067
99 1 -1.1104 9.33933 1.24292 3.50202
83 1 -1.1104 12.429 4.21196 3.44498
94 1 -1.1104 9.47829 4.11654 3.30964
215 1 -1.1104 12.432 1.60818 6.30999
213 1 -1.1104 12.2979 4.22965 6.55983
143 1 -1.1104 9.28147 -1.4141 6.56896
140 1 -1.1104 12.1427 -1.48962 6.41891
217 1 -1.1104 9.36667 4.014 6.20433
177 1 -1.1104 6.77654 1.05218 6.59455
219 1 -1.1104 9.73937 1.18692 6.13244
417 2 2.2208 -0.385404 -8.55751 22.2101
68 1 -1.1104 4.03907 3.98236 0.839421
50 2 2.2208 5.14372 8.46737 5.0578
52 1 -1.1104 0.956434 9.96127 1.00531
56 1 -1.1104 0.888069 9.92969 3.74376
60 1 -1.1104 0.823597 6.72835 0.778272
63 2 2.2208 5.37627 5.52946 2.12109
65 1 -1.1104 0.858804 6.85036 3.63313
69 1 -1.1104 3.94865 9.93098 0.758543
71 2 2.2208 2.31895 8.14736 2.34141
73 1 -1.1104 3.76466 9.70119 3.47061
74 2 2.2208 2.36917 5.46424 5.14421
76 1 -1.1104 3.60256 7.11145 0.715728
78 1 -1.1104 3.67392 6.74984 3.66156
62 1 -1.1104 6.67987 6.86177 0.593488
67 1 -1.1104 6.45028 6.96908 3.71304
180 1 -1.1104 3.74009 9.85957 6.4553
499 1 -1.1104 12.2417 9.66644 26.2447
503 2 2.2208 10.8837 8.37819 22.01
390 2 2.2208 13.4964 2.69158 13.5149
90 1 -1.1104 9.80072 4.40833 0.417429
81 1 -1.1104 12.4526 3.9109 0.843092
58 1 -1.1104 6.73379 9.47179 3.56148
54 1 -1.1104 6.72158 9.76805 0.79678
80 2 2.2208 10.9044 8.3555 5.17952
82 1 -1.1104 12.2906 9.80869 0.581644
84 1 -1.1104 12.398 9.86355 3.62547
86 1 -1.1104 12.2059 6.79884 0.933065
87 2 2.2208 10.9513 5.47807 2.19775
89 1 -1.1104 12.2193 7.05384 4.00393
91 1 -1.1104 9.53107 9.9605 0.872747
93 2 2.2208 7.98576 8.34756 2.15254
95 1 -1.1104 9.6235 9.72598 3.75839
96 2 2.2208 7.93263 5.62619 5.24748
98 1 -1.1104 9.38221 7.06053 0.91276
100 1 -1.1104 9.60033 6.75632 3.88226
220 1 -1.1104 9.3028 7.1277 6.5727
218 1 -1.1104 9.65298 9.85046 6.5936
214 1 -1.1104 12.4153 9.61163 6.57461
138 2 2.2208 2.3113 -8.59447 7.8755
178 1 -1.1104 6.4346 7.22465 6.3524
216 1 -1.1104 12.3274 6.8201 6.5019
12699 2 2.2208 -0.329616 -8.56202 5.00552
111 2 2.2208 5.35585 -3.0185 10.6961
112 1 -1.1104 0.989739 -7.09888 11.8023
116 1 -1.1104 0.887247 -7.04026 9.18166
120 1 -1.1104 0.580087 -4.44325 12.107
122 2 2.2208 5.25692 -5.91273 7.85809
125 1 -1.1104 0.957846 -4.38971 9.37873
127 1 -1.1104 3.84107 -7.33213 12.2529
129 2 2.2208 2.24883 -2.90921 7.79208
131 1 -1.1104 3.76449 -7.17757 9.36702
133 2 2.2208 2.44978 -5.82633 10.6869
135 1 -1.1104 3.57935 -4.62689 12.4152
136 1 -1.1104 4.10253 -4.37689 9.29864
118 1 -1.1104 6.43892 -7.33502 9.39275
126 1 -1.1104 6.85396 -4.57454 9.16175
123 2 2.2208 5.16821 -5.67233 13.69
420 2 2.2208 5.41195 -8.67208 22.057
130 2 2.2208 2.39313 -3.05213 13.5901
505 2 2.2208 13.529 2.70079 25.0004
445 2 2.2208 8.33961 -8.6103 24.7284
169 2 2.2208 8.00242 -8.49651 13.5244
12733 2 2.2208 -0.399901 2.86722 5.02747
121 1 -1.1104 6.40023 -4.35439 11.9429
114 1 -1.1104 6.6781 -7.00914 12.5835
13192 2 2.2208 -0.231323 2.83676 22.2249
145 2 2.2208 10.9933 -3.00708 10.7461
146 1 -1.1104 12.2273 -7.05443 11.9636
148 1 -1.1104 12.237 -7.47202 9.17467
150 1 -1.1104 12.2737 -4.21163 12.1077
151 2 2.2208 10.7768 -5.84813 7.94153
154 1 -1.1104 12.2829 -4.35991 9.22465
155 1 -1.1104 9.33593 -7.2598 12.0463
157 2 2.2208 7.99982 -3.01831 7.89592
159 1 -1.1104 9.14461 -7.16702 9.09866
161 2 2.2208 8.05345 -5.78758 10.7465
163 1 -1.1104 9.02443 -4.41689 12.2739
164 1 -1.1104 9.55478 -4.44948 9.11238
158 2 2.2208 7.96576 -2.99451 13.5105
152 2 2.2208 10.8133 -5.61366 13.6161
170 2 2.2208 10.6861 -8.55763 10.6064
13125 2 2.2208 -0.259923 -5.60702 24.8587
109 1 -1.1104 3.53647 -1.56381 6.27224
173 1 -1.1104 6.68562 4.22905 6.53459
181 1 -1.1104 3.97086 1.27214 6.21577
117 1 -1.1104 0.825379 -1.31033 9.46487
132 1 -1.1104 3.52294 -1.53641 9.17673
113 1 -1.1104 0.873422 -1.60185 12.3371
124 2 2.2208 5.15249 -0.260543 7.68797
128 1 -1.1104 3.68821 -1.7021 12.1655
134 2 2.2208 2.43078 -0.268955 10.8964
183 2 2.2208 5.3011 2.75607 10.7881
193 1 -1.1104 1.22847 1.3206 11.8737
198 1 -1.1104 0.648981 1.39594 9.087
204 2 2.2208 2.43394 2.71623 7.9374
209 1 -1.1104 3.94542 1.16843 12.2306
211 1 -1.1104 3.75226 1.32188 9.34394
202 1 -1.1104 4.20816 4.12229 12.2358
206 1 -1.1104 3.92123 4.00681 9.41326
189 1 -1.1104 0.986792 4.079 9.2835
185 1 -1.1104 1.14276 4.30301 12.1144
119 1 -1.1104 6.67148 -1.50539 9.38967
195 1 -1.1104 6.81055 1.07462 12.0134
313 2 2.2208 2.49423 2.65254 13.5291
419 2 2.2208 2.2906 -8.66146 24.647
25 2 2.2208 2.6748 -8.46807 2.29936
115 1 -1.1104 6.39837 -1.6659 11.9876
200 1 -1.1104 6.64728 1.20647 9.26153
187 1 -1.1104 6.7348 4.16675 12.0011
160 1 -1.1104 9.72717 -1.67461 9.4233
147 1 -1.1104 12.3394 -1.54936 11.9137
149 1 -1.1104 12.4981 -1.5386 9.05779
153 2 2.2208 10.9446 -0.171721 8.11719
156 1 -1.1104 9.57245 -1.64346 12.0816
162 2 2.2208 8.2526 -0.127245 10.7164
221 2 2.2208 10.8382 2.72935 10.6297
227 1 -1.1104 12.2469 1.09212 12.198
230 1 -1.1104 12.2444 1.27752 9.29695
234 2 2.2208 7.98222 2.6751 7.85284
239 1 -1.1104 9.56442 1.8078 11.9801
241 1 -1.1104 9.36033 1.1965 9.08431
232 1 -1.1104 9.71027 4.37112 12.0877
236 1 -1.1104 9.4314 4.07642 9.40185
225 1 -1.1104 12.5225 3.93152 9.2548
223 1 -1.1104 12.1494 4.11216 12.3617
279 2 2.2208 10.8096 -0.0940644 13.4599
358 2 2.2208 7.9715 2.74483 13.4735
166 2 2.2208 13.6443 -2.8162 13.5127
12866 2 2.2208 13.5887 8.44926 7.96337
172 1 -1.1104 1.15821 9.71534 6.29811
174 1 -1.1104 6.45666 10.1619 6.32139
176 1 -1.1104 0.782124 6.9146 6.56283
182 1 -1.1104 3.61583 6.88478 6.60072
184 2 2.2208 4.96893 8.36859 10.7976
186 1 -1.1104 0.622549 10.0373 12.1758
190 1 -1.1104 0.728523 9.86148 9.51883
194 1 -1.1104 0.920627 7.11439 12.2422
197 2 2.2208 5.19051 5.55081 7.86023
199 1 -1.1104 1.05119 6.9415 9.28393
203 1 -1.1104 3.57608 9.5523 12.1897
205 2 2.2208 2.371 8.64724 7.93736
207 1 -1.1104 3.70602 10.0951 9.28249
208 2 2.2208 2.37561 5.41412 10.772
210 1 -1.1104 3.74209 6.93684 12.1758
212 1 -1.1104 3.75219 7.15256 9.2927
201 1 -1.1104 6.5928 6.88326 9.18065
188 1 -1.1104 6.28426 9.79598 12.1868
314 2 2.2208 2.34297 8.38854 13.6039
312 2 2.2208 5.29896 5.62012 13.7236
13090 2 2.2208 13.5218 -0.354076 21.8962
191 1 -1.1104 6.62736 4.12079 9.30136
196 1 -1.1104 6.7252 6.91295 12.2212
192 1 -1.1104 6.56556 9.93876 9.31942
222 2 2.2208 10.8255 8.63881 10.8556
224 1 -1.1104 12.291 9.91523 12.2935
226 1 -1.1104 12.1793 9.91122 9.4111
228 1 -1.1104 12.3535 7.03094 12.2093
229 2 2.2208 10.7523 5.45977 7.97328
231 1 -1.1104 11.9577 6.85586 9.4782
233 1 -1.1104 9.41902 10.0282 12.0907
235 2 2.2208 7.87632 8.56092 7.85691
237 1 -1.1104 9.49937 9.87942 9.21735
238 2 2.2208 8.01332 5.60974 10.6694
240 1 -1.1104 9.63802 7.15268 12.2838
242 1 -1.1104 9.36321 7.11609 9.22905
359 2 2.2208 7.88573 8.45373 13.4901
357 2 2.2208 10.9806 5.66049 13.5845
13158 2 2.2208 -0.356242 2.80205 27.713
12731 2 2.2208 -0.447454 5.4925 2.25541
246 2 2.2208 5.18572 -2.93356 16.4687
247 1 -1.1104 0.851688 -7.31711 18.0002
250 1 -1.1104 0.809584 -7.04414 14.9953
257 1 -1.1104 1.09941 -4.29938 17.8282
259 2 2.2208 5.18341 -5.8977 19.1433
261 1 -1.1104 0.893907 -4.26466 15.0813
264 1 -1.1104 3.87513 -7.09595 17.8674
266 2 2.2208 2.30191 -2.90017 19.148
267 1 -1.1104 3.45744 -7.06101 15.1425
271 2 2.2208 2.29366 -5.82607 16.5153
273 1 -1.1104 3.90172 -4.36005 17.8948
274 1 -1.1104 3.81019 -4.42709 15.0823
251 1 -1.1104 1.15231 -7.20843 20.7988
258 1 -1.1104 6.44939 -4.33134 17.6177
275 1 -1.1104 3.63288 -4.21349 20.8002
262 1 -1.1104 1.11328 -4.17848 20.666
13191 2 2.2208 -0.480659 8.48821 -0.449918
278 2 2.2208 5.11301 -8.41426 16.2885
268 1 -1.1104 4.03831 -7.13026 20.8054
418 2 2.2208 5.09428 -8.62498 27.4959
501 1 -1.1104 12.3704 10.0636 23.7225
311 2 2.2208 10.885 -8.50883 16.2467
310 2 2.2208 8.15231 -8.61158 19.086
263 1 -1.1104 6.75515 -4.08054 15.0293
280 1 -1.1104 6.62181 -7.23182 17.7878
254 1 -1.1104 6.5234 -6.98136 15.1431
282 1 -1.1104 6.34549 -4.39349 20.4066
281 1 -1.1104 6.9568 -7.3492 20.4422
283 2 2.2208 10.8625 -2.97254 16.4934
284 1 -1.1104 12.6878 -7.09976 17.9016
286 1 -1.1104 12.3201 -6.91413 14.8332
290 1 -1.1104 12.3976 -4.20497 17.7862
291 2 2.2208 10.9895 -5.72076 19.386
293 1 -1.1104 12.147 -4.18387 15.0331
295 1 -1.1104 9.46207 -7.05826 17.7775
297 2 2.2208 7.92909 -2.98883 19.0536
298 1 -1.1104 9.22685 -7.06334 14.9266
302 2 2.2208 8.02113 -5.77182 16.555
304 1 -1.1104 9.46189 -4.46346 17.8391
305 1 -1.1104 9.50127 -4.2538 15.1065
294 1 -1.1104 12.2743 -4.34702 20.5497
306 1 -1.1104 9.46159 -4.52694 20.777
299 1 -1.1104 9.7214 -7.44385 20.6243
494 1 -1.1104 12.3122 6.85163 26.5006
287 1 -1.1104 12.3814 -7.12413 20.3713
13014 2 2.2208 13.5555 2.56577 19.3836
489 1 -1.1104 9.53672 9.93344 23.4099
245 2 2.2208 5.37669 -0.210157 13.514
248 1 -1.1104 1.1322 -1.51654 17.4825
252 1 -1.1104 1.19743 -1.35078 14.7868
260 2 2.2208 5.05926 -0.176516 19.1337
265 1 -1.1104 3.89283 -1.34198 17.6483
269 1 -1.1104 4.06537 -1.72394 14.8359
272 2 2.2208 2.65335 -0.18814 16.2211
315 2 2.2208 5.34956 2.77962 16.23
329 1 -1.1104 1.14326 1.31995 17.5224
334 1 -1.1104 1.06893 1.45868 14.5471
344 2 2.2208 2.41987 2.60859 19.243
351 1 -1.1104 4.03802 1.36567 17.5472
353 1 -1.1104 4.05952 1.26375 14.8995
346 1 -1.1104 3.89164 4.07414 15.0613
317 1 -1.1104 0.875931 4.08998 17.543
321 1 -1.1104 1.17617 4.39747 14.8492
347 1 -1.1104 3.63123 4.19681 20.6755
335 1 -1.1104 1.05354 1.21645 20.6427
255 1 -1.1104 6.70142 -1.46705 15.0468
325 1 -1.1104 6.73957 4.16471 14.8666
253 1 -1.1104 1.08168 -1.27701 20.4904
339 1 -1.1104 6.82353 1.10224 20.2465
256 1 -1.1104 6.64056 -1.68136 20.2949
270 1 -1.1104 4.00221 -1.2846 20.6751
338 1 -1.1104 6.59847 1.40621 14.7754
249 1 -1.1104 6.55929 -1.43266 17.7698
331 1 -1.1104 6.71884 1.35973 17.4846
288 1 -1.1104 12.296 -1.50747 14.7528
296 1 -1.1104 9.44044 -1.71956 17.7262
285 1 -1.1104 12.222 -1.51046 17.8386
292 2 2.2208 10.6727 -0.12423 19.2023
300 1 -1.1104 9.60004 -1.3648 14.8131
303 2 2.2208 8.01407 -0.0829482 16.399
360 2 2.2208 10.8729 2.75488 16.2439
368 1 -1.1104 12.1512 1.2726 17.9222
371 1 -1.1104 12.1482 1.21241 15.0456
377 2 2.2208 8.37087 2.74229 19.1392
384 1 -1.1104 9.50593 1.40561 17.6858
386 1 -1.1104 9.2656 1.37038 14.6989
379 1 -1.1104 9.45444 4.12362 15.1897
362 1 -1.1104 12.2075 4.05374 17.8268
375 1 -1.1104 9.35679 4.30993 17.8567
364 1 -1.1104 12.4029 4.15811 14.9602
365 1 -1.1104 12.1638 3.83488 20.5988
387 1 -1.1104 9.43578 1.1933 20.5366
301 1 -1.1104 9.2487 -1.77655 20.599
372 1 -1.1104 12.1841 1.11469 20.5262
289 1 -1.1104 12.1894 -1.50705 20.3989
380 1 -1.1104 9.20466 4.26445 20.6115
342 1 -1.1104 3.86479 4.06276 17.8574
319 1 -1.1104 6.52184 4.26353 17.6061
316 2 2.2208 5.11372 8.51505 16.5374
318 1 -1.1104 0.858449 9.77774 17.8833
323 1 -1.1104 0.926228 9.9795 15.0946
330 1 -1.1104 0.773189 6.83642 18.1796
333 2 2.2208 5.12477 5.579 19.1857
336 1 -1.1104 1.06357 7.20878 15.2752
343 1 -1.1104 3.88062 9.9056 18.2119
345 2 2.2208 2.23169 8.35503 19.5494
348 1 -1.1104 3.51431 9.64252 15.2317
350 2 2.2208 2.40745 5.57881 16.5082
352 1 -1.1104 3.7178 7.05965 17.9837
355 1 -1.1104 3.6296 6.82095 14.9016
320 1 -1.1104 6.64468 9.79937 17.7564
349 1 -1.1104 3.4674 9.71945 20.9458
340 1 -1.1104 6.39066 7.1276 15.0107
332 1 -1.1104 6.60146 7.13087 17.7451
356 1 -1.1104 3.64225 7.16507 20.7495
341 1 -1.1104 6.65207 7.02176 20.867
500 1 -1.1104 12.3071 4.20845 26.1611
13104 2 2.2208 -0.395807 -2.71213 21.9991
327 1 -1.1104 6.50891 9.67256 15.0142
328 1 -1.1104 6.46055 9.80141 20.6107
374 1 -1.1104 12.0588 6.91362 20.6434
361 2 2.2208 10.8601 8.34747 16.3644
363 1 -1.1104 12.3539 9.83894 17.8036
366 1 -1.1104 12.3167 10.0077 15.0085
369 1 -1.1104 12.3454 7.03806 17.914
370 2 2.2208 10.8981 5.73655 19.179
373 1 -1.1104 12.2821 6.89525 14.9321
376 1 -1.1104 9.37604 9.43477 18.0275
378 2 2.2208 8.02729 8.30703 19.4646
381 1 -1.1104 9.44713 9.84493 15.2316
383 2 2.2208 8.07227 5.637 16.4427
385 1 -1.1104 9.58138 6.73135 17.6461
388 1 -1.1104 9.27163 7.00118 14.9245
389 1 -1.1104 9.32018 7.06504 20.5905
12830 2 2.2208 -0.234846 -5.71625 7.88128
12679 2 2.2208 -0.435672 -5.70586 2.40395
13190 2 2.2208 -0.306607 8.44734 22.1926
391 2 2.2208 5.12922 -3.26471 27.8035
392 2 2.2208 2.39018 -5.77184 27.8013
394 2 2.2208 5.24081 -2.95874 21.9118
395 1 -1.1104 1.00504 -7.10282 23.4646
399 1 -1.1104 1.11 -7.0515 26.1457
403 1 -1.1104 0.932239 -4.40029 23.4101
404 2 2.2208 5.24302 -5.80205 24.8361
406 1 -1.1104 0.868479 -4.11258 26.368
408 1 -1.1104 3.8566 -7.49043 23.2698
410 2 2.2208 2.41093 -3.02408 24.8119
411 1 -1.1104 3.9281 -7.14655 26.2742
413 2 2.2208 2.35593 -5.72602 22.0471
415 1 -1.1104 4.07644 -4.55579 23.4179
416 1 -1.1104 3.63083 -4.369 26.2264
407 1 -1.1104 6.42045 -4.25489 26.3291
397 1 -1.1104 6.61912 -7.09997 23.3543
13127 2 2.2208 -0.177136 -8.4977 27.695
497 1 -1.1104 12.257 7.19854 23.3671
13124 2 2.2208 -0.329244 -0.0577921 24.8053
422 2 2.2208 8.06341 -5.89234 27.461
493 2 2.2208 8.19005 5.64399 27.6805
12977 2 2.2208 -0.273072 -8.26588 16.3479
367 1 -1.1104 12.231 9.64495 20.495
12947 2 2.2208 -0.482021 -2.87205 16.3859
446 2 2.2208 11.1261 -8.67283 22.0085
401 1 -1.1104 6.48993 -7.39854 26.1969
424 1 -1.1104 6.72997 -4.11778 23.556
421 2 2.2208 11.0825 -2.90934 27.5691
425 2 2.2208 10.7403 -2.96969 21.9275
426 1 -1.1104 12.2046 -7.2093 23.4491
428 1 -1.1104 12.443 -7.28039 26.4169
430 1 -1.1104 12.4484 -3.97157 23.2848
431 2 2.2208 10.9063 -5.74754 24.7754
433 1 -1.1104 12.315 -4.37217 26.124
434 1 -1.1104 9.53905 -7.06106 23.4774
436 2 2.2208 8.01227 -2.82808 24.9465
437 1 -1.1104 9.88778 -7.22251 26.3488
439 2 2.2208 7.96655 -5.85997 22.0724
441 1 -1.1104 9.69042 -4.29622 23.4523
442 1 -1.1104 9.3469 -4.32973 26.1645
393 2 2.2208 2.52804 -0.149899 27.7848
492 2 2.2208 10.7935 8.56923 -0.457664
453 2 2.2208 5.20766 2.76245 27.608
322 1 -1.1104 0.924983 3.91999 20.3826
326 1 -1.1104 6.47952 3.95749 20.4318
354 1 -1.1104 3.87298 1.1011 20.6315
398 1 -1.1104 6.69262 -1.51725 23.3405
409 1 -1.1104 3.93631 -1.7722 23.3815
400 1 -1.1104 0.838932 -1.44765 26.4979
396 1 -1.1104 1.28763 -1.52724 23.3227
405 2 2.2208 5.21349 -0.0962499 24.9036
412 1 -1.1104 3.82403 -1.39771 26.1861
414 2 2.2208 2.60855 -0.239727 22.037
448 1 -1.1104 0.576346 1.63641 26.1062
457 1 -1.1104 1.02148 1.48818 23.4576
464 1 -1.1104 3.62086 1.48559 26.5266
469 1 -1.1104 3.99676 1.04519 23.2395
475 2 2.2208 2.2511 2.82454 24.9634
477 2 2.2208 5.15793 2.7519 21.8874
472 1 -1.1104 3.8168 4.24615 26.4203
461 1 -1.1104 1.08365 4.34022 26.4036
468 1 -1.1104 1.03866 4.21864 23.6204
479 1 -1.1104 3.79831 3.78601 23.5299
487 2 2.2208 8.27031 8.57757 24.8808
458 1 -1.1104 6.59837 9.84224 26.2664
466 1 -1.1104 6.93598 4.07081 23.3887
452 1 -1.1104 6.67637 1.08559 23.5794
450 1 -1.1104 6.54463 1.62223 26.2785
402 1 -1.1104 6.60639 -1.30302 26.3516
459 1 -1.1104 6.54251 4.52558 26.4529
491 2 2.2208 10.8497 2.5788 27.5728
423 2 2.2208 8.09151 -0.279318 27.7992
429 1 -1.1104 12.3586 -1.50795 26.0775
438 1 -1.1104 9.42262 -1.46489 26.4711
502 1 -1.1104 12.1953 4.20562 23.5829
504 2 2.2208 10.8224 2.69382 21.9842
498 1 -1.1104 12.1111 1.24051 23.3298
495 1 -1.1104 11.9709 1.41306 25.9647
427 1 -1.1104 11.8555 -1.3736 23.2361
432 2 2.2208 10.8558 -0.200964 24.9332
435 1 -1.1104 9.53793 -1.56747 23.7974
440 2 2.2208 7.86625 -0.299075 21.9329
481 1 -1.1104 9.1599 1.29692 26.2018
483 1 -1.1104 9.26702 1.08183 23.4071
488 2 2.2208 8.15751 2.67348 24.7962
486 1 -1.1104 9.32761 4.23942 26.0321
490 1 -1.1104 9.71339 4.09985 23.2718
13017 2 2.2208 -0.343123 2.82186 16.1122
455 2 2.2208 2.53821 5.49182 -0.469395
324 1 -1.1104 0.857546 10.1092 20.7391
337 1 -1.1104 0.821236 6.87579 20.8946
382 1 -1.1104 9.54437 9.9522 20.6907
463 1 -1.1104 6.67079 9.7372 23.464
451 1 -1.1104 6.52556 6.85464 23.3079
454 2 2.2208 5.37886 8.38765 27.5844
478 1 -1.1104 6.82657 7.23056 26.1276
474 2 2.2208 5.0892 8.27928 22.0503
460 1 -1.1104 1.05523 9.73015 26.4919
456 1 -1.1104 1.0604 6.98136 23.4478
462 1 -1.1104 3.89721 7.12376 26.4319
449 2 2.2208 5.33637 5.73555 25.0361
447 1 -1.1104 0.664423 7.35628 25.9863
465 1 -1.1104 3.82702 6.86675 23.7532
476 1 -1.1104 3.76256 9.83468 23.7348
473 2 2.2208 2.31747 8.48056 25.0393
471 1 -1.1104 3.89631 9.80121 26.4432
470 2 2.2208 2.36938 5.48283 22.3319
467 1 -1.1104 0.967772 9.92134 23.7664
484 2 2.2208 8.02705 5.6482 22.1209
482 1 -1.1104 9.51267 6.84943 23.6342
277 2 2.2208 2.17379 -8.58812 19.3144
12669 2 2.2208 13.6538 -5.81278 5.05696
13101 2 2.2208 -0.258471 -2.98862 -0.387457
13018 2 2.2208 -0.393374 8.39784 16.5342
13154 2 2.2208 13.5724 5.58616 21.9167
45 2 2.2208 13.513 -0.169522 5.07722
12831 2 2.2208 -0.414301 -0.0281005 7.77335
12980 2 2.2208 13.6496 8.36772 19.3144
12729 2 2.2208 13.6182 5.39766 5.21726
507 2 2.2208 5.36542 14.1896 5.23555
509 1 -1.1104 1.11256 15.5961 0.857952
511 1 -1.1104 0.937625 15.6222 3.92441
513 1 -1.1104 0.964804 12.6745 0.821778
518 2 2.2208 5.19718 16.6887 2.33243
519 1 -1.1104 0.863557 12.818 3.71128
523 1 -1.1104 3.93577 15.4545 0.763953
524 2 2.2208 2.26908 13.8291 2.28224
526 1 -1.1104 3.83053 15.4858 3.899
528 2 2.2208 2.29683 16.9695 5.17116
529 1 -1.1104 3.81606 12.6106 0.782694
531 1 -1.1104 3.86892 12.4771 3.75512
512 1 -1.1104 6.5552 15.4565 3.76634
510 1 -1.1104 6.7306 15.4603 0.998851
515 1 -1.1104 6.49924 12.5605 0.756739
527 2 2.2208 2.35346 11.2718 4.90694
517 2 2.2208 5.15481 11.2343 2.26519
890 2 2.2208 2.55839 11.2321 27.6205
521 1 -1.1104 6.7258 12.4 3.79192
533 2 2.2208 10.9458 13.9784 5.22789
535 1 -1.1104 12.1063 15.1767 1.09967
536 1 -1.1104 12.1404 15.6216 3.8126
537 1 -1.1104 12.3114 12.5057 1.04872
540 2 2.2208 10.8973 16.7526 2.31708
541 1 -1.1104 12.2493 12.5816 3.68437
543 1 -1.1104 9.41899 15.387 1.1818
544 2 2.2208 7.9431 13.964 2.35256
546 1 -1.1104 9.31167 15.2423 3.8246
548 2 2.2208 7.9811 16.9163 5.25959
549 1 -1.1104 9.34001 12.5558 0.977762
551 1 -1.1104 9.58245 12.4207 3.77527
646 1 -1.1104 9.54462 12.5463 6.48908
13538 2 2.2208 -0.486741 16.9789 13.6631
13649 2 2.2208 13.6036 14.2395 24.943
547 2 2.2208 8.09853 11.1615 4.99588
642 1 -1.1104 12.3322 15.2166 6.67303
539 2 2.2208 10.786 11.1976 2.1336
13222 2 2.2208 13.4875 19.7046 2.42448
921 2 2.2208 8.11001 16.7008 -0.490307
508 2 2.2208 5.24466 19.5866 5.15338
514 1 -1.1104 1.0986 18.327 0.905986
520 1 -1.1104 1.08834 18.468 3.78162
525 2 2.2208 2.41952 19.7697 2.2288
530 1 -1.1104 3.838 18.2922 1.13601
532 1 -1.1104 3.70389 18.3665 3.76618
554 1 -1.1104 1.02097 21.1098 0.736241
558 1 -1.1104 1.0392 21.1474 3.61119
566 2 2.2208 5.27222 22.5267 2.24453
572 1 -1.1104 3.95558 21.1033 0.840695
575 1 -1.1104 3.9699 21.2152 3.57455
577 2 2.2208 2.53738 22.5002 5.13851
562 1 -1.1104 0.702383 23.7622 0.952454
560 1 -1.1104 6.86098 20.8248 4.16488
556 1 -1.1104 6.84834 21.0709 0.953056
516 1 -1.1104 6.86842 18.3288 1.12912
610 1 -1.1104 0.950485 18.5869 6.48751
522 1 -1.1104 6.6174 18.3056 3.77275
670 1 -1.1104 6.71614 21.1532 6.72129
580 1 -1.1104 3.6344 23.923 1.03451
568 1 -1.1104 0.821928 23.9436 3.93052
672 1 -1.1104 0.86024 24.0246 6.71389
564 1 -1.1104 6.5423 23.9805 0.934973
615 1 -1.1104 3.65903 18.1802 6.66348
668 1 -1.1104 0.929658 21.2841 6.67571
612 1 -1.1104 6.59162 18.5195 6.81158
534 2 2.2208 10.877 19.6926 5.20358
538 1 -1.1104 12.3041 18.1625 0.96006
542 1 -1.1104 12.2749 18.3875 3.60639
545 2 2.2208 8.23157 19.6982 2.2925
550 1 -1.1104 9.62415 18.2575 0.905006
552 1 -1.1104 9.64337 18.2829 3.75619
585 1 -1.1104 12.2967 21.276 1.09666
587 1 -1.1104 12.1957 21.1689 3.97679
591 2 2.2208 10.8787 22.5008 2.49943
595 1 -1.1104 9.66764 21.2005 0.93124
598 1 -1.1104 9.40094 21.1733 3.6473
600 2 2.2208 8.15311 22.567 5.03408
605 1 -1.1104 9.62115 24.0001 3.88609
13246 2 2.2208 -0.439396 17.0307 2.41688
13417 2 2.2208 13.3739 28.2672 10.8324
589 1 -1.1104 11.9649 24.1837 0.400732
593 1 -1.1104 12.3625 23.9136 3.59184
644 1 -1.1104 12.1545 18.0358 6.42095
647 1 -1.1104 9.53687 18.4096 6.70608
805 2 2.2208 7.91029 11.325 16.5841
582 1 -1.1104 3.83911 23.6826 3.84359
570 1 -1.1104 6.74053 23.723 3.55319
553 2 2.2208 5.31007 25.4368 5.20488
555 1 -1.1104 0.801371 26.7256 0.788309
559 1 -1.1104 1.01904 26.7524 3.72724
563 1 -1.1104 0.811417 29.4775 0.80013
567 2 2.2208 5.00276 28.3614 2.39388
569 1 -1.1104 0.745385 29.7269 3.69295
573 1 -1.1104 3.45068 26.8476 1.03815
574 2 2.2208 2.41132 25.2804 2.49205
576 1 -1.1104 3.66954 26.5509 3.78272
579 2 2.2208 2.03585 28.2812 5.15425
581 1 -1.1104 3.42951 29.4379 1.05349
583 1 -1.1104 3.59509 29.6141 3.84736
557 1 -1.1104 6.5583 26.8294 0.581445
561 1 -1.1104 6.57556 26.6924 3.49576
565 1 -1.1104 6.33187 29.6812 1.06347
571 1 -1.1104 6.4041 29.6163 3.72547
679 1 -1.1104 3.77963 29.7973 6.77652
669 1 -1.1104 0.951933 26.952 6.56359
942 2 2.2208 4.99178 25.4565 27.7158
714 1 -1.1104 12.2227 23.7072 6.33032
603 1 -1.1104 9.4173 24.0179 1.0973
584 2 2.2208 10.8993 25.3263 5.40981
586 1 -1.1104 12.1553 26.9242 1.1915
588 1 -1.1104 12.125 26.7635 3.99851
590 1 -1.1104 11.918 29.4919 1.25829
592 2 2.2208 10.5635 28.4332 2.59225
594 1 -1.1104 11.9903 29.7705 3.94269
596 1 -1.1104 9.45039 26.7707 1.23263
597 2 2.2208 7.91106 25.4801 2.37312
599 1 -1.1104 9.4054 26.9553 3.89268
602 2 2.2208 8.16383 28.271 5.21174
604 1 -1.1104 8.90176 29.5682 0.74745
606 1 -1.1104 9.23958 29.896 3.78529
13574 2 2.2208 13.6364 25.2127 13.9158
13537 2 2.2208 -0.397216 14.15 16.467
984 2 2.2208 10.6639 25.6043 -0.41364
611 1 -1.1104 6.78123 12.8345 6.66665
608 1 -1.1104 6.66345 15.7919 6.92199
609 1 -1.1104 1.04905 12.7586 6.46237
607 1 -1.1104 0.60867 15.7019 6.61682
614 1 -1.1104 4.04139 12.8841 6.5587
613 1 -1.1104 3.67408 15.5102 6.68502
616 2 2.2208 5.06457 14.1557 10.958
618 1 -1.1104 0.736564 15.7336 12.0029
620 1 -1.1104 0.883603 15.402 9.36491
622 1 -1.1104 0.614057 12.8381 12.47
627 2 2.2208 5.18303 16.8766 8.25326
628 1 -1.1104 0.922857 12.753 9.27854
632 1 -1.1104 3.39986 15.3793 12.2536
633 2 2.2208 2.34458 14.1955 8.02822
635 1 -1.1104 3.73413 15.808 9.67484
637 2 2.2208 2.0112 16.9713 10.8316
638 1 -1.1104 3.61392 12.3043 12.2181
640 1 -1.1104 3.6847 12.9972 9.35595
630 1 -1.1104 6.76401 12.7494 9.58247
621 1 -1.1104 6.60475 15.4031 9.69647
624 1 -1.1104 6.33537 12.4304 12.4122
619 1 -1.1104 6.49587 15.2098 12.3541
745 2 2.2208 4.93986 16.9042 13.5521
636 2 2.2208 2.36213 11.2817 10.7571
626 2 2.2208 5.34118 11.4441 7.8812
993 1 -1.1104 12.0646 27.0136 26.4442
643 1 -1.1104 12.3844 12.4934 6.62404
13682 2 2.2208 -0.335455 19.7521 27.7536
645 1 -1.1104 9.32887 15.3758 6.72188
648 2 2.2208 10.9245 13.9543 10.7689
650 1 -1.1104 12.2926 15.421 12.1153
651 1 -1.1104 12.0939 15.4847 9.2817
652 1 -1.1104 12.204 12.8078 12.3038
655 2 2.2208 10.8389 16.9346 8.02234
656 1 -1.1104 12.3878 12.6495 9.32353
658 1 -1.1104 9.43336 15.4973 12.3477
659 2 2.2208 8.09085 14.1889 7.9975
661 1 -1.1104 9.4163 15.5298 9.4244
663 2 2.2208 8.06108 16.7421 10.9022
664 1 -1.1104 9.09924 12.8759 12.2755
666 1 -1.1104 9.75674 12.4705 9.48157
13685 2 2.2208 -0.243494 11.2272 25.0283
662 2 2.2208 8.27497 11.3653 10.7202
784 2 2.2208 10.9644 16.9665 13.7337
654 2 2.2208 11.0137 11.1741 7.89258
785 2 2.2208 7.94147 14.1912 13.7045
783 2 2.2208 10.8471 11.3427 13.7192
813 2 2.2208 13.3871 19.7395 13.7362
676 1 -1.1104 3.88128 21.112 6.67172
678 1 -1.1104 3.89708 24.1249 6.60449
674 1 -1.1104 6.65976 23.936 6.36424
617 2 2.2208 5.23981 19.7599 11.1342
623 1 -1.1104 0.834269 18.445 12.2952
629 1 -1.1104 1.12576 18.4569 9.54981
634 2 2.2208 2.40699 19.8615 8.01678
639 1 -1.1104 3.6768 18.4127 12.4237
641 1 -1.1104 3.90179 18.4055 9.573
681 1 -1.1104 0.879242 21.3398 12.3506
685 1 -1.1104 0.858368 21.2695 9.45343
693 2 2.2208 5.25101 22.6446 8.10284
700 1 -1.1104 3.90376 21.4043 12.2022
704 1 -1.1104 3.73936 21.4874 9.47226
706 2 2.2208 2.23844 22.7609 10.8244
710 1 -1.1104 4.07083 24.3878 9.19702
683 1 -1.1104 6.67954 20.8734 12.5996
631 1 -1.1104 6.60973 18.3622 9.74521
687 1 -1.1104 6.55974 21.5725 9.52328
691 1 -1.1104 6.48951 23.9157 12.3106
747 2 2.2208 2.23748 19.9786 13.8401
814 2 2.2208 5.09587 22.7262 13.698
625 1 -1.1104 6.85431 18.0326 12.5154
718 1 -1.1104 9.30732 23.9145 6.65346
716 1 -1.1104 9.65076 21.0773 6.32789
13495 2 2.2208 13.4126 14.1065 19.2365
712 1 -1.1104 12.4446 20.923 6.87388
667 1 -1.1104 9.32608 18.3623 9.59576
649 2 2.2208 10.6722 19.9137 10.8953
653 1 -1.1104 12.2478 18.0814 12.1721
657 1 -1.1104 12.3297 18.2331 9.10432
660 2 2.2208 7.97992 19.7568 8.13047
665 1 -1.1104 9.58687 18.4229 12.5019
721 1 -1.1104 12.1474 21.3185 12.2538
723 1 -1.1104 12.1556 21.0172 9.43478
727 2 2.2208 10.8168 22.5296 7.89125
732 1 -1.1104 9.21401 21.2766 12.165
736 1 -1.1104 9.36962 21.2573 9.26849
738 2 2.2208 7.96628 22.6341 10.8693
740 1 -1.1104 9.21462 24.0246 12.2559
786 2 2.2208 8.06971 19.5818 13.7769
13272 2 2.2208 13.404 28.1788 -0.253812
689 1 -1.1104 0.930409 23.849 12.3543
696 1 -1.1104 1.04969 24.0023 9.61456
698 1 -1.1104 6.66055 24.2565 9.39406
671 1 -1.1104 6.41981 26.9375 6.33483
673 1 -1.1104 0.860032 29.541 6.67533
708 1 -1.1104 3.85791 24.1238 12.253
677 1 -1.1104 3.79553 26.8527 6.62902
675 1 -1.1104 6.69804 29.5702 6.66563
680 2 2.2208 5.24033 25.5986 10.8248
682 1 -1.1104 0.724716 26.7097 12.3494
686 1 -1.1104 0.867531 26.9845 9.50652
690 1 -1.1104 0.862765 29.7943 12.3969
694 2 2.2208 5.15166 28.292 8.0574
697 1 -1.1104 0.923057 29.8267 9.65237
701 1 -1.1104 3.92684 26.7987 12.2774
702 2 2.2208 2.41224 25.4635 7.84833
705 1 -1.1104 3.87466 26.9754 9.4364
707 2 2.2208 2.39969 28.4386 10.6531
709 1 -1.1104 3.93415 29.712 12.2242
711 1 -1.1104 3.70698 29.9524 9.51864
688 1 -1.1104 6.65665 27.0171 9.40154
703 2 2.2208 2.47327 25.5024 13.718
684 1 -1.1104 6.86991 27.0084 12.326
699 1 -1.1104 6.79758 29.8141 9.49669
713 1 -1.1104 12.3043 26.4686 6.96298
715 1 -1.1104 12.0363 29.6346 6.73628
725 1 -1.1104 12.0907 23.9542 12.3028
692 1 -1.1104 6.78151 29.7896 12.1204
719 1 -1.1104 9.38913 29.6686 6.59865
742 1 -1.1104 9.71041 23.9173 9.63421
13714 2 2.2208 13.5883 22.7547 22.2312
730 1 -1.1104 12.4574 23.8666 9.13648
717 1 -1.1104 9.26239 26.8394 6.58469
720 2 2.2208 10.6925 25.2805 11.059
722 1 -1.1104 12.2921 26.9958 12.1828
724 1 -1.1104 12.0669 26.8633 9.6045
726 1 -1.1104 12.3188 29.7819 12.2936
728 2 2.2208 10.9074 28.1635 8.0151
731 1 -1.1104 12.4395 29.54 9.35931
733 1 -1.1104 9.64498 26.7659 12.5436
734 2 2.2208 7.91072 25.4616 7.99701
737 1 -1.1104 9.44374 26.6088 9.18612
739 2 2.2208 8.23137 28.1994 10.7875
741 1 -1.1104 9.5273 29.6819 12.4279
743 1 -1.1104 9.79302 29.603 9.48504
13621 2 2.2208 -0.378141 22.6141 13.6454
13273 2 2.2208 13.2381 25.6764 2.44456
775 2 2.2208 2.14914 11.1133 16.6254
746 2 2.2208 2.34282 13.8937 13.4005
744 2 2.2208 5.07092 11.0173 13.6692
748 2 2.2208 5.11278 13.9705 16.3558
750 1 -1.1104 0.84845 15.3335 18.0793