ITEM: TIMESTEP
60000
ITEM: NUMBER OF ATOMS
27000
ITEM: BOX BOUNDS pp pp pp
-4.8806744091896859e-01 2.7828067440919927e+01
-8.7783785123883682e+00 5.0089837851239673e+02
-4.8061929822907912e-01 2.7820619298229282e+01
ITEM: ATOMS id type q x y z
1 2 2.2208 5.42738 -3.15766 5.30096
2 1 -1.1104 1.22881 -7.88619 0.948049
6 1 -1.1104 1.07299 -7.20632 3.80936
10 1 -1.1104 0.759688 -5.08016 0.852947
12 2 2.2208 5.34729 -5.994 2.55124
14 1 -1.1104 1.05761 -4.45668 3.73782
16 1 -1.1104 3.94463 -7.42563 1.32749
18 2 2.2208 2.6663 -3.00938 2.49272
19 1 -1.1104 3.99903 -7.35314 4.05045
21 2 2.2208 2.54546 -5.92964 5.18226
23 1 -1.1104 3.61786 -4.3893 0.825183
24 1 -1.1104 4.06404 -4.52863 3.84545
392 2 2.2208 2.50475 -6.02465 -0.267427
391 2 2.2208 5.33997 -3.06917 -0.382396
4 1 -1.1104 6.77638 -7.22878 1.1617
485 1 -1.1104 9.65447 9.60216 26.3865
12759 2 2.2208 -0.228576 8.23767 5.25444
8 1 -1.1104 6.69494 -7.73049 3.73287
15 1 -1.1104 6.91451 -4.79653 4.05654
11 1 -1.1104 6.36282 -4.40552 1.22181
27 2 2.2208 11.0047 -3.2382 5.21852
28 1 -1.1104 12.3758 -7.08043 1.12862
30 1 -1.1104 12.4336 -7.38247 3.93075
32 1 -1.1104 12.2985 -4.3878 1.2863
33 2 2.2208 10.9713 -6.01023 2.64598
35 1 -1.1104 12.579 -4.37767 4.02292
36 1 -1.1104 9.54584 -7.54723 1.29783
38 2 2.2208 8.24662 -3.06864 2.65181
39 1 -1.1104 9.62144 -7.4679 3.95583
41 2 2.2208 8.37638 -6.12637 5.53773
43 1 -1.1104 9.48635 -4.54945 1.22407
44 1 -1.1104 9.60918 -4.71192 4.18286
421 2 2.2208 10.8917 -3.44835 -0.297995
141 1 -1.1104 12.2533 -4.6281 6.66571
142 1 -1.1104 9.71066 -7.57915 6.88358
20 1 -1.1104 3.91253 -1.85099 4.11628
7 1 -1.1104 1.19579 -1.75713 3.89244
3 1 -1.1104 0.905115 -1.96068 1.29704
13 2 2.2208 5.32519 -0.23509 2.57154
17 1 -1.1104 3.83382 -1.53445 1.12984
22 2 2.2208 2.57837 -0.0639242 5.27652
49 2 2.2208 5.50949 2.58806 5.51955
59 1 -1.1104 1.23024 0.98575 1.24801
64 1 -1.1104 0.957118 1.13697 3.83476
70 2 2.2208 2.72462 2.7033 2.33533
75 1 -1.1104 4.2247 1.13735 1.12178
77 1 -1.1104 4.00595 1.32208 3.83901
55 1 -1.1104 1.22105 4.09354 3.87924
68 1 -1.1104 3.94394 4.13086 1.06958
51 1 -1.1104 1.10566 3.97458 1.01156
72 1 -1.1104 4.10925 4.08359 3.86004
181 1 -1.1104 4.05403 1.12341 6.62403
13158 2 2.2208 -0.324029 2.40046 -0.195695
175 1 -1.1104 1.0956 1.20848 6.65055
179 1 -1.1104 3.90829 3.7966 6.75446
177 1 -1.1104 6.8599 0.831205 6.71087
393 2 2.2208 2.65704 -0.254601 -0.346697
57 1 -1.1104 6.81982 4.05989 3.93797
53 1 -1.1104 6.69968 4.07425 1.14789
61 1 -1.1104 6.80936 1.2325 1.01884
5 1 -1.1104 6.69328 -1.62873 1.15173
66 1 -1.1104 6.77062 0.941364 4.10422
9 1 -1.1104 6.79892 -1.89224 3.8987
37 1 -1.1104 9.27663 -1.38857 1.27052
29 1 -1.1104 12.1232 -1.74098 0.972801
31 1 -1.1104 12.3643 -1.71168 3.88009
34 2 2.2208 11.0334 -0.289969 2.58651
40 1 -1.1104 9.62967 -1.90789 4.00472
42 2 2.2208 8.27848 -0.576887 5.30307
79 2 2.2208 11.1851 2.73265 5.56326
85 1 -1.1104 12.4748 1.14285 1.1704
88 1 -1.1104 12.4326 0.988762 3.83139
90 1 -1.1104 9.67917 3.96268 0.95277
92 2 2.2208 8.23722 2.4639 2.59128
97 1 -1.1104 9.91735 1.30584 1.08648
99 1 -1.1104 9.45201 0.714125 3.71583
83 1 -1.1104 12.7048 3.88978 4.07043
81 1 -1.1104 12.4484 4.03047 1.17271
94 1 -1.1104 9.76179 3.91357 3.91169
423 2 2.2208 8.24054 -0.120839 -0.365482
219 1 -1.1104 9.46929 1.18182 6.84633
482 1 -1.1104 9.78245 6.7934 23.6314
173 1 -1.1104 6.80302 4.05902 6.62172
13157 2 2.2208 -0.292546 5.50587 25.1163
496 2 2.2208 10.9888 5.18674 25.0757
50 2 2.2208 5.22063 8.14118 5.54347
52 1 -1.1104 1.00027 9.56135 1.05984
56 1 -1.1104 1.37754 9.92211 3.73881
60 1 -1.1104 1.14074 6.93869 0.899916
63 2 2.2208 5.42094 5.55128 2.44893
65 1 -1.1104 1.00127 7.00055 3.89439
69 1 -1.1104 3.84346 9.59893 1.21916
71 2 2.2208 2.59765 8.27074 2.64139
73 1 -1.1104 4.17431 9.61847 4.16217
74 2 2.2208 2.4189 5.42697 5.3547
76 1 -1.1104 3.9161 6.89614 1.21247
78 1 -1.1104 3.70337 6.98171 4.00073
13191 2 2.2208 -0.443704 8.28241 -0.463411
180 1 -1.1104 3.76545 9.54221 6.89111
176 1 -1.1104 1.23941 6.81802 6.99023
12731 2 2.2208 -0.12706 5.51218 2.45202
67 1 -1.1104 6.66118 6.87965 3.84634
62 1 -1.1104 6.70371 6.82094 0.695935
58 1 -1.1104 6.6548 9.60185 4.09618
54 1 -1.1104 6.8811 9.72302 0.905435
80 2 2.2208 11.1048 8.24148 5.50255
82 1 -1.1104 12.4916 9.62713 1.04275
84 1 -1.1104 12.3902 9.72132 3.91587
86 1 -1.1104 12.4339 6.9763 1.33287
87 2 2.2208 11.0392 5.4645 2.4905
89 1 -1.1104 12.1456 6.9596 4.18815
91 1 -1.1104 9.79012 9.64065 1.11108
93 2 2.2208 8.14357 8.28419 2.52386
95 1 -1.1104 9.74189 9.76891 4.13626
96 2 2.2208 8.15688 5.45695 5.27513
98 1 -1.1104 9.5734 6.86239 1.05859
100 1 -1.1104 9.33094 6.72175 3.78949
493 2 2.2208 8.19882 5.46195 -0.329703
12830 2 2.2208 -0.378592 -5.93021 8.26506
220 1 -1.1104 9.80643 6.74554 6.67353
178 1 -1.1104 6.87904 6.77318 6.87904
214 1 -1.1104 12.2215 9.80249 6.77642
218 1 -1.1104 9.46442 9.51555 6.82259
492 2 2.2208 11.019 8.13335 -0.243595
12829 2 2.2208 -0.365763 -6.20196 13.8101
108 1 -1.1104 4.04097 -7.51033 6.65324
110 1 -1.1104 3.76911 -4.50744 6.52205
102 1 -1.1104 1.17762 -7.48766 6.78558
106 1 -1.1104 1.15884 -4.59341 6.62204
111 2 2.2208 5.43239 -3.05989 10.8276
112 1 -1.1104 0.934883 -7.17366 12.3173
116 1 -1.1104 1.14006 -7.45147 9.6026
120 1 -1.1104 1.29742 -4.55697 12.1448
122 2 2.2208 5.19911 -5.97346 8.05435
125 1 -1.1104 1.19566 -4.51062 9.30412
127 1 -1.1104 3.81877 -7.55783 12.4524
129 2 2.2208 2.37221 -3.1349 7.95615
131 1 -1.1104 3.83212 -7.28844 9.54859
133 2 2.2208 2.68965 -6.05655 10.9525
135 1 -1.1104 4.12088 -4.60751 12.4378
136 1 -1.1104 4.0326 -4.60383 9.51094
118 1 -1.1104 6.77228 -7.33508 9.48643
126 1 -1.1104 6.63019 -4.62259 9.57626
123 2 2.2208 5.2908 -5.77419 13.7885
107 1 -1.1104 6.47467 -4.4705 6.88606
104 1 -1.1104 6.83204 -7.43106 6.84082
121 1 -1.1104 6.71289 -4.45343 12.108
114 1 -1.1104 6.60643 -7.25973 12.4544
139 1 -1.1104 12.7382 -6.96813 6.9317
144 1 -1.1104 9.58637 -4.55925 6.90429
145 2 2.2208 10.9875 -3.09719 10.9627
146 1 -1.1104 12.4286 -7.4862 12.3546
148 1 -1.1104 12.3634 -7.41227 9.73403
150 1 -1.1104 12.757 -4.37782 11.9333
151 2 2.2208 11.0703 -5.84641 8.3723
154 1 -1.1104 12.592 -4.57463 9.2893
155 1 -1.1104 9.44081 -7.00462 12.2606
157 2 2.2208 8.13418 -3.16842 8.26588
159 1 -1.1104 9.68882 -7.6369 9.69413
161 2 2.2208 7.95566 -5.85327 10.9917
163 1 -1.1104 9.7276 -4.30687 12.5299
164 1 -1.1104 9.56358 -4.7357 9.73373
420 2 2.2208 5.56101 -8.62662 22.279
310 2 2.2208 8.49336 -8.55431 19.3622
103 1 -1.1104 1.16727 -1.68247 6.67493
109 1 -1.1104 4.09757 -1.74683 6.64382
171 1 -1.1104 1.19075 3.95889 6.56763
113 1 -1.1104 1.20372 -1.71362 12.5366
117 1 -1.1104 1.10072 -1.88651 9.6232
124 2 2.2208 5.43727 -0.220076 8.27912
128 1 -1.1104 3.67267 -1.88356 12.3115
132 1 -1.1104 4.04514 -1.6981 9.51039
134 2 2.2208 2.59957 -0.429765 10.8471
183 2 2.2208 5.25544 2.52692 11.0182
193 1 -1.1104 1.40211 1.20602 12.473
198 1 -1.1104 0.987119 1.04297 9.37865
204 2 2.2208 2.32268 2.60437 8.04883
209 1 -1.1104 4.13225 0.827009 12.1599
211 1 -1.1104 4.0245 1.24311 9.39549
206 1 -1.1104 3.89653 3.97319 9.65212
202 1 -1.1104 3.88595 3.67669 12.4814
185 1 -1.1104 0.989392 3.72845 12.2065
189 1 -1.1104 1.08899 3.98065 9.53158
195 1 -1.1104 6.90638 1.24426 12.5928
313 2 2.2208 2.42141 2.68922 13.9114
213 1 -1.1104 12.4926 3.96015 6.96993
105 1 -1.1104 6.81822 -1.82081 6.79402
143 1 -1.1104 9.48669 -1.80872 6.84212
215 1 -1.1104 12.5384 1.05617 6.66393
115 1 -1.1104 6.83113 -1.68909 12.3585
119 1 -1.1104 6.72578 -1.57446 9.57581
191 1 -1.1104 6.8605 3.96858 9.27933
187 1 -1.1104 6.49855 3.84455 12.4916
200 1 -1.1104 6.87809 1.23865 9.6429
217 1 -1.1104 9.84844 4.07172 6.68647
140 1 -1.1104 12.3573 -2.06823 6.88317
160 1 -1.1104 9.43904 -1.48597 9.55072
147 1 -1.1104 12.2947 -1.65362 12.4349
149 1 -1.1104 12.2804 -1.72905 9.52582
153 2 2.2208 10.9867 -0.272065 7.98576
156 1 -1.1104 9.50574 -1.5115 12.5337
162 2 2.2208 8.33636 -0.0089904 11.0151
221 2 2.2208 10.8649 2.37673 10.9544
227 1 -1.1104 12.6726 0.841995 12.4499
230 1 -1.1104 12.4775 0.84129 9.45964
234 2 2.2208 8.22332 2.54358 8.0863
239 1 -1.1104 9.69496 1.25438 12.3504
241 1 -1.1104 9.78308 1.191 9.41899
232 1 -1.1104 9.49742 3.94229 12.2259
225 1 -1.1104 12.3345 3.69449 9.72636
236 1 -1.1104 9.44052 3.90566 9.60102
223 1 -1.1104 12.3832 3.80758 12.4813
358 2 2.2208 8.05625 2.63539 14.0994
12678 2 2.2208 -0.43915 -0.362881 2.38145
417 2 2.2208 -0.373965 -8.68684 22.3866
172 1 -1.1104 1.1043 9.43209 6.80115
182 1 -1.1104 4.06004 6.74652 6.74776
184 2 2.2208 5.2491 8.03961 11.1392
186 1 -1.1104 1.12178 9.59923 12.245
190 1 -1.1104 1.09701 9.2753 9.59212
194 1 -1.1104 0.888628 6.54127 12.4924
197 2 2.2208 5.34685 5.37748 8.27248
199 1 -1.1104 0.963692 6.7959 9.72049
203 1 -1.1104 3.97776 9.50061 12.4322
205 2 2.2208 2.48879 8.31923 8.29061
207 1 -1.1104 3.86855 9.93417 9.51455
208 2 2.2208 2.47203 5.22334 11.113
210 1 -1.1104 3.71356 6.62667 12.7107
212 1 -1.1104 3.8335 6.96201 9.86409
12679 2 2.2208 -0.445909 -5.92517 2.55859
12975 2 2.2208 -0.0606689 -0.532694 13.895
196 1 -1.1104 6.56185 6.52791 12.5919
174 1 -1.1104 6.42946 9.44361 6.98813
192 1 -1.1104 6.355 9.74522 9.65833
188 1 -1.1104 6.617 9.57875 12.3595
201 1 -1.1104 6.56077 6.84175 9.588
216 1 -1.1104 12.5104 6.86764 7.14632
222 2 2.2208 10.5993 8.06123 11.0366
224 1 -1.1104 12.2427 10.1809 12.3754
226 1 -1.1104 12.167 9.73717 9.70549
228 1 -1.1104 12.1736 6.8311 12.4351
229 2 2.2208 10.8608 5.29217 8.38192
231 1 -1.1104 12.0154 6.75117 9.84038
233 1 -1.1104 9.30637 9.60541 12.372
235 2 2.2208 8.24446 8.2353 8.08236
237 1 -1.1104 9.54078 9.67317 9.75757
238 2 2.2208 8.04427 5.22048 10.9879
240 1 -1.1104 9.35718 6.68472 12.4355
242 1 -1.1104 9.25912 6.7123 9.53093
359 2 2.2208 7.93162 8.17007 14.093
130 2 2.2208 2.62574 -3.26429 13.6983
246 2 2.2208 5.16474 -3.20193 16.6053
247 1 -1.1104 1.12711 -7.19378 18.2301
250 1 -1.1104 1.15821 -7.37334 15.096
257 1 -1.1104 1.08518 -4.21688 17.855
259 2 2.2208 5.60379 -5.70742 19.5343
261 1 -1.1104 1.0266 -4.54282 14.7984
264 1 -1.1104 3.98543 -7.67975 18.2579
266 2 2.2208 2.48837 -2.92253 19.6541
267 1 -1.1104 3.98063 -7.39903 15.4341
271 2 2.2208 2.40437 -6.0502 16.753
273 1 -1.1104 3.98582 -4.84508 18.0063
274 1 -1.1104 3.86728 -4.72262 15.2367
251 1 -1.1104 1.24308 -7.61202 21.1676
268 1 -1.1104 4.06815 -7.1365 20.8146
262 1 -1.1104 1.00114 -4.53159 20.7842
12947 2 2.2208 -0.218023 -3.22611 16.4677
263 1 -1.1104 6.86457 -4.36539 15.2859
254 1 -1.1104 6.69242 -7.07637 15.2385
258 1 -1.1104 6.89046 -4.23443 18.17
280 1 -1.1104 6.89333 -6.94131 18.1629
158 2 2.2208 8.09118 -3.12134 13.6195
152 2 2.2208 11.0583 -5.87025 13.6658
283 2 2.2208 11.3027 -3.22979 16.51
284 1 -1.1104 12.6512 -7.65842 17.93
286 1 -1.1104 12.4785 -7.29655 15.0714
290 1 -1.1104 12.708 -4.6445 17.9294
291 2 2.2208 11.3128 -5.90357 19.3357
293 1 -1.1104 12.5658 -4.57742 15.0188
295 1 -1.1104 9.84298 -7.17319 17.937
297 2 2.2208 8.52253 -3.18303 19.5356
298 1 -1.1104 9.52381 -7.35392 15.3544
302 2 2.2208 8.28655 -5.71574 16.7317
304 1 -1.1104 9.7341 -4.40958 18.1593
305 1 -1.1104 9.6354 -4.63186 15.2709
445 2 2.2208 8.39609 -8.65094 25.1612
13017 2 2.2208 -0.280274 2.43602 16.7594
12946 2 2.2208 -0.21694 -0.164858 19.4459
245 2 2.2208 5.56157 -0.203086 13.6965
248 1 -1.1104 1.02248 -1.58303 18.0873
252 1 -1.1104 1.09512 -1.6908 15.3985
260 2 2.2208 5.33992 -0.418644 19.4628
265 1 -1.1104 3.98098 -1.78343 18.259
269 1 -1.1104 3.79789 -2.11321 15.3402
272 2 2.2208 2.55762 -0.295031 16.6284
315 2 2.2208 5.31963 2.4675 16.6348
329 1 -1.1104 1.27262 1.15099 18.0041
334 1 -1.1104 1.20814 0.981989 15.2454
344 2 2.2208 2.47678 2.63257 19.5742
351 1 -1.1104 3.85045 1.23625 17.9794
353 1 -1.1104 3.98943 1.01254 15.0608
321 1 -1.1104 1.02756 4.07275 15.3594
342 1 -1.1104 3.89523 4.22166 17.9178
317 1 -1.1104 1.05455 3.97732 18.3649
346 1 -1.1104 4.07655 3.67538 15.2861
255 1 -1.1104 6.49791 -1.44221 15.1967
331 1 -1.1104 6.57423 1.38823 18.1812
354 1 -1.1104 4.20729 0.96258 21.1028
322 1 -1.1104 1.13518 4.01907 21.139
339 1 -1.1104 6.97877 1.12185 20.8384
279 2 2.2208 11.0277 -0.22078 13.9282
249 1 -1.1104 6.74715 -1.63474 18.0807
325 1 -1.1104 6.78731 3.95243 15.3481
338 1 -1.1104 6.75358 1.17113 15.4096
319 1 -1.1104 6.7747 3.8854 18.1456
296 1 -1.1104 9.94968 -1.96414 17.9354
285 1 -1.1104 12.4552 -1.61051 18.3356
288 1 -1.1104 12.6418 -1.81422 15.2575
292 2 2.2208 11.0459 -0.285363 19.5358
300 1 -1.1104 9.60694 -1.9241 15.1978
303 2 2.2208 8.25616 -0.483801 16.7274
360 2 2.2208 10.9805 2.45918 16.6948
368 1 -1.1104 12.24 1.12784 17.9336
371 1 -1.1104 12.3925 1.30071 15.389
377 2 2.2208 8.15193 2.43886 19.4764
384 1 -1.1104 9.43931 0.804351 18.2432
386 1 -1.1104 9.47436 1.11566 15.3008
379 1 -1.1104 9.56775 3.85447 14.9884
375 1 -1.1104 9.81046 3.73814 18.1198
362 1 -1.1104 12.52 3.98025 18.3401
364 1 -1.1104 12.0913 4.27544 15.3795
326 1 -1.1104 6.81832 3.82924 20.7548
387 1 -1.1104 9.72139 0.858596 20.9535
301 1 -1.1104 9.89483 -1.77416 21.0179
169 2 2.2208 8.13421 -8.493 13.9349
12880 2 2.2208 -0.48555 8.22656 10.8146
314 2 2.2208 2.45963 8.163 13.7172
312 2 2.2208 5.29478 5.29474 14.0173
316 2 2.2208 5.18871 8.00497 16.875
318 1 -1.1104 0.644058 9.40996 18.1875
323 1 -1.1104 0.893183 9.81619 15.2281
330 1 -1.1104 0.872203 6.83211 17.9573
333 2 2.2208 5.23856 5.28725 19.3504
336 1 -1.1104 1.17714 6.94995 15.1876
343 1 -1.1104 3.41211 9.58248 18.0348
345 2 2.2208 2.3666 8.12462 19.7008
348 1 -1.1104 3.88051 9.27227 15.2167
350 2 2.2208 2.3123 5.57769 16.8044
352 1 -1.1104 3.86406 6.91243 18.3161
355 1 -1.1104 4.07651 6.53749 15.4813
13090 2 2.2208 13.6654 -0.398551 22.346
12797 2 2.2208 -0.302674 -3.12434 11.0446
13020 2 2.2208 -0.371247 5.22441 13.8178
12691 2 2.2208 -0.311312 -3.09463 5.25273
367 1 -1.1104 12.1433 9.64823 20.8907
320 1 -1.1104 6.43386 9.56013 18.0511
389 1 -1.1104 9.51983 6.29527 20.7438
327 1 -1.1104 6.74399 9.56026 15.3284
340 1 -1.1104 6.64842 6.62499 15.4028
332 1 -1.1104 6.76854 6.79856 18.0723
357 2 2.2208 10.8916 5.41696 13.8825
361 2 2.2208 10.891 8.16328 16.383
363 1 -1.1104 12.1896 9.56457 17.9061
366 1 -1.1104 12.4284 9.46618 15.2851
369 1 -1.1104 12.7519 7.00115 18.0033
370 2 2.2208 10.9847 5.15671 19.6711
373 1 -1.1104 12.4097 6.8804 15.1247
376 1 -1.1104 9.29251 9.22001 18.0207
378 2 2.2208 7.9848 8.21812 19.6181
381 1 -1.1104 9.45002 9.78175 15.1882
383 2 2.2208 8.16195 5.38145 16.8903
385 1 -1.1104 9.86824 6.41442 18.0108
388 1 -1.1104 9.31571 6.69696 15.2606
341 1 -1.1104 6.66617 6.41032 20.668
374 1 -1.1104 12.3821 6.6923 20.9058
12911 2 2.2208 -0.440876 2.36099 11.0941
13019 2 2.2208 -0.373587 5.30734 19.6534
281 1 -1.1104 7.02214 -7.31933 20.9128
12976 2 2.2208 -0.242695 -5.85447 19.6002
13124 2 2.2208 -0.324498 -0.208299 25.2007
275 1 -1.1104 4.06198 -4.23546 20.8594
394 2 2.2208 5.29092 -3.03266 22.4371
395 1 -1.1104 1.13583 -7.37581 23.7242
399 1 -1.1104 1.21863 -7.40875 26.7133
403 1 -1.1104 1.0269 -4.52363 23.5563
404 2 2.2208 5.52452 -5.77868 25.3133
406 1 -1.1104 0.949281 -4.56525 26.3704
408 1 -1.1104 4.4341 -7.41314 23.791
410 2 2.2208 2.47369 -3.09787 25.2217
411 1 -1.1104 4.18282 -7.34457 26.5815
413 2 2.2208 2.56042 -6.03048 22.3469
415 1 -1.1104 3.94608 -4.42667 23.8489
416 1 -1.1104 3.79926 -4.74989 26.6068
401 1 -1.1104 6.86096 -7.25622 26.6597
397 1 -1.1104 7.3907 -7.23815 23.9077
487 2 2.2208 8.25802 8.22838 24.9394
501 1 -1.1104 12.3308 9.62399 23.6154
294 1 -1.1104 12.8018 -4.68837 20.8714
306 1 -1.1104 9.96693 -4.65752 20.8825
422 2 2.2208 8.26159 -6.0747 -0.113453
282 1 -1.1104 6.85224 -4.45036 21.291
407 1 -1.1104 6.65197 -4.25835 26.7087
424 1 -1.1104 6.7317 -4.52784 23.926
287 1 -1.1104 12.3351 -7.51268 20.7438
299 1 -1.1104 9.80366 -7.41082 21.0698
425 2 2.2208 11.2253 -3.37251 22.2845
426 1 -1.1104 12.4719 -7.47765 23.6809
428 1 -1.1104 12.5835 -7.47754 26.5918
430 1 -1.1104 12.3366 -4.70749 23.8459
431 2 2.2208 11.0719 -6.24663 25.1095
433 1 -1.1104 12.2218 -4.75191 26.7631
434 1 -1.1104 9.98665 -7.48208 23.6435
436 2 2.2208 8.23124 -3.06342 25.1272
437 1 -1.1104 9.57943 -7.36645 26.7679
439 2 2.2208 8.46268 -6.10303 22.3698
441 1 -1.1104 9.48615 -4.62123 23.7507
442 1 -1.1104 9.70679 -4.81967 26.4816
453 2 2.2208 5.4499 2.62328 -0.277118
13125 2 2.2208 -0.344164 -6.14138 25.2271
347 1 -1.1104 3.8636 3.86555 20.9694
335 1 -1.1104 1.07836 1.3416 20.8678
253 1 -1.1104 1.24393 -1.47167 20.8564
270 1 -1.1104 3.90273 -1.55347 21.1563
409 1 -1.1104 4.02858 -1.57152 23.8052
400 1 -1.1104 0.886271 -1.59025 26.9042
396 1 -1.1104 1.10032 -1.29824 23.7902
405 2 2.2208 5.57137 -0.134744 25.0665
412 1 -1.1104 3.70749 -1.71533 26.6621
414 2 2.2208 2.58315 0.0338362 22.4809
448 1 -1.1104 1.24251 1.00223 26.5951
457 1 -1.1104 1.12239 1.36667 23.7679
464 1 -1.1104 4.14962 1.50114 26.6186
469 1 -1.1104 3.97117 1.30169 23.871
475 2 2.2208 2.70038 2.68705 25.2318
477 2 2.2208 5.4781 2.66711 22.0741
479 1 -1.1104 3.90562 4.18524 23.9621
472 1 -1.1104 4.3421 4.30303 26.7766
468 1 -1.1104 1.30931 4.13921 24.0582
461 1 -1.1104 0.945517 3.951 26.7012
398 1 -1.1104 6.70777 -1.52165 23.8679
466 1 -1.1104 6.70899 4.01604 23.6684
491 2 2.2208 11.144 2.67698 -0.18817
382 1 -1.1104 9.28052 9.34743 20.8776
365 1 -1.1104 12.3567 3.97116 21.2918
289 1 -1.1104 12.5924 -2.02145 21.1039
452 1 -1.1104 6.76618 1.4446 23.731
450 1 -1.1104 6.79878 1.21121 26.4598
380 1 -1.1104 9.59686 3.64786 20.979
402 1 -1.1104 6.7029 -1.53467 26.536
459 1 -1.1104 6.86555 4.13386 26.5338
372 1 -1.1104 12.4246 0.926369 20.7102
256 1 -1.1104 6.80936 -1.63385 20.7561
502 1 -1.1104 12.6623 3.95367 24.0598
504 2 2.2208 11.2188 2.43261 22.4764
500 1 -1.1104 12.5642 4.11131 26.7566
498 1 -1.1104 12.5798 0.95608 23.9262
495 1 -1.1104 12.4306 1.19716 26.5772
427 1 -1.1104 12.3919 -1.75221 23.8755
429 1 -1.1104 12.6155 -1.77596 26.6785
432 2 2.2208 11.0987 -0.272983 25.1362
435 1 -1.1104 9.49507 -1.86164 23.6859
438 1 -1.1104 9.69229 -1.65126 26.3522
440 2 2.2208 8.37363 -0.332548 22.2248
481 1 -1.1104 9.60683 1.22318 26.6173
483 1 -1.1104 9.86374 1.11808 23.6929
488 2 2.2208 8.18343 2.64012 25.0684
490 1 -1.1104 9.71078 3.9365 23.5944
486 1 -1.1104 9.75411 3.8979 26.5755
455 2 2.2208 2.4724 5.48658 -0.293098
454 2 2.2208 5.25334 8.32174 27.7519
418 2 2.2208 5.34114 -8.75249 -0.194399
324 1 -1.1104 0.955163 9.85073 20.9861
337 1 -1.1104 0.943719 6.5803 20.7441
356 1 -1.1104 3.90711 6.72523 21.1737
349 1 -1.1104 3.70158 9.64846 20.842
460 1 -1.1104 1.11899 9.45128 26.593
456 1 -1.1104 0.945354 6.88775 23.8207
462 1 -1.1104 3.91322 7.04065 26.5785
449 2 2.2208 5.50173 5.50637 25.2191
447 1 -1.1104 1.09059 6.53842 26.4888
465 1 -1.1104 3.99749 6.77885 23.9314
476 1 -1.1104 3.7321 9.60738 23.495
473 2 2.2208 2.43907 8.19371 25.2135
471 1 -1.1104 3.88001 9.73633 26.432
470 2 2.2208 2.57458 5.45355 22.7002
467 1 -1.1104 1.2164 9.68921 23.83
474 2 2.2208 5.30841 8.15603 22.3995
12831 2 2.2208 -0.313139 -0.293729 7.92116
478 1 -1.1104 6.87665 6.8802 26.2104
463 1 -1.1104 6.67631 9.49433 23.6932
499 1 -1.1104 12.2789 9.49068 26.3363
328 1 -1.1104 6.54875 9.66467 20.8661
480 1 -1.1104 10.043 6.52814 26.6474
503 2 2.2208 11.068 8.01665 22.3185
484 2 2.2208 8.09889 5.15071 22.14
489 1 -1.1104 9.47062 9.50246 23.6304
494 1 -1.1104 12.7312 6.75267 26.4629
458 1 -1.1104 6.61032 9.73025 26.5283
497 1 -1.1104 12.4577 6.82095 23.65
451 1 -1.1104 7.02252 6.60508 23.6037
13192 2 2.2208 -0.346948 2.55947 22.4311
12733 2 2.2208 -0.337459 2.68715 5.25277
12866 2 2.2208 13.6806 8.26081 8.4889
137 2 2.2208 5.4195 -8.61689 11.0036
13016 2 2.2208 13.6272 5.49471 16.6869
744 2 2.2208 5.17919 10.8309 13.8443
13190 2 2.2208 -0.297342 8.22147 22.3886
13101 2 2.2208 -0.24136 -3.15904 -0.267253
12879 2 2.2208 -0.16376 5.4008 8.22767
419 2 2.2208 2.66428 -8.57453 25.2832
775 2 2.2208 2.34392 10.7895 16.5854
47 2 2.2208 11.0698 -8.7818 5.17037
507 2 2.2208 5.21883 13.7701 5.39286
509 1 -1.1104 0.997618 15.4521 1.12417
511 1 -1.1104 1.04393 15.4253 4.06241
513 1 -1.1104 0.946869 12.2381 0.935283
518 2 2.2208 5.30538 16.6948 2.56496
519 1 -1.1104 1.00202 12.7604 3.62651
523 1 -1.1104 3.79818 15.2942 1.20034
524 2 2.2208 2.49078 14.056 2.64214
526 1 -1.1104 3.78183 15.2067 3.97439
528 2 2.2208 2.43858 16.5779 5.28397
529 1 -1.1104 3.71575 12.432 1.09641
531 1 -1.1104 3.83857 12.2726 3.82237
609 1 -1.1104 1.33936 12.142 6.84261
607 1 -1.1104 1.03716 15.1622 6.85887
13685 2 2.2208 -0.285371 11.0613 25.087
891 2 2.2208 2.26059 16.6752 -0.417716
888 2 2.2208 5.04674 13.9074 -0.0648509
614 1 -1.1104 4.00021 12.2141 6.64796
13374 2 2.2208 -0.264621 13.9115 10.8939
783 2 2.2208 10.8896 11.0276 13.7575
991 1 -1.1104 12.2643 29.5614 23.8658
13749 2 2.2208 -0.554965 22.2636 24.7094
527 2 2.2208 2.48278 10.9898 5.53639
510 1 -1.1104 6.84501 15.3241 1.20204
512 1 -1.1104 6.75679 15.3082 4.03432
521 1 -1.1104 6.75639 12.6067 4.21334
515 1 -1.1104 6.61 12.4976 1.36443
533 2 2.2208 10.7006 13.8246 5.40757
535 1 -1.1104 12.3953 15.1128 0.822432
536 1 -1.1104 12.302 15.2259 4.14003
537 1 -1.1104 12.4533 12.5265 1.25787
540 2 2.2208 11.202 16.6812 2.74602
541 1 -1.1104 12.6103 12.3519 3.92555
543 1 -1.1104 9.66769 15.2061 1.19353
544 2 2.2208 8.03045 13.9484 2.39489
546 1 -1.1104 9.57588 15.282 3.92327
548 2 2.2208 8.25339 16.827 5.26799
549 1 -1.1104 9.47151 12.3112 1.06565
551 1 -1.1104 9.49339 12.3688 3.73657
608 1 -1.1104 6.6305 15.165 6.65836
918 2 2.2208 11.1086 13.8912 -0.419333
645 1 -1.1104 9.42834 15.2451 6.71782
646 1 -1.1104 9.75173 12.2642 6.56626
611 1 -1.1104 6.78549 12.3622 6.98164
805 2 2.2208 8.05013 11.1855 16.3546
921 2 2.2208 8.16261 16.5163 -0.248481
794 2 2.2208 10.8314 10.953 19.2623
508 2 2.2208 5.2263 19.398 5.35504
514 1 -1.1104 0.826967 18.0418 0.723985
520 1 -1.1104 0.840858 18.121 3.64933
525 2 2.2208 2.46337 19.3495 2.37154
530 1 -1.1104 3.86421 18.0591 1.01673
532 1 -1.1104 3.95636 18.1446 3.99243
554 1 -1.1104 0.94898 20.7158 1.05126
558 1 -1.1104 1.06022 20.9667 3.76617
566 2 2.2208 5.22413 22.2753 2.50562
572 1 -1.1104 3.88055 20.7136 1.03884
575 1 -1.1104 3.75007 20.7085 3.87147
577 2 2.2208 2.36376 22.238 5.3176
568 1 -1.1104 0.838462 23.7257 3.74606
580 1 -1.1104 3.8028 23.6391 0.954362
582 1 -1.1104 3.91066 23.8221 3.66429
562 1 -1.1104 1.09382 23.7715 0.749571
615 1 -1.1104 3.75177 17.8512 6.88935
676 1 -1.1104 3.70249 20.8081 6.64423
517 2 2.2208 5.30309 10.9963 2.68582
943 2 2.2208 2.55828 22.3329 27.6371
672 1 -1.1104 1.26712 23.7548 6.68595
610 1 -1.1104 1.06456 18.0343 6.60727
13618 2 2.2208 -0.407838 27.9925 19.3485
13715 2 2.2208 13.6705 28.2653 22.1649
560 1 -1.1104 6.67849 21.1656 3.86632
570 1 -1.1104 6.73524 23.8749 3.80322
556 1 -1.1104 6.6082 20.9989 1.16084
564 1 -1.1104 6.99818 23.7316 0.824356
522 1 -1.1104 6.61465 18.1445 3.84346
516 1 -1.1104 6.75657 18.3082 0.939668
534 2 2.2208 11.1013 19.6288 5.45985
538 1 -1.1104 12.5098 18.242 1.22276
542 1 -1.1104 12.362 18.0106 4.15371
545 2 2.2208 8.35303 19.6679 2.43872
550 1 -1.1104 9.49892 18.191 1.15933
552 1 -1.1104 9.53722 18.0263 4.04145
585 1 -1.1104 12.3648 21.0143 1.09426
587 1 -1.1104 12.558 20.785 4.00791
591 2 2.2208 11.0947 22.302 2.29645
595 1 -1.1104 9.46869 20.7672 1.03882
598 1 -1.1104 9.81577 20.9835 3.71883
600 2 2.2208 8.1423 22.1765 5.20377
605 1 -1.1104 9.70095 23.897 3.59611
593 1 -1.1104 12.3918 23.4805 3.74658
603 1 -1.1104 9.63976 23.5721 0.893426
589 1 -1.1104 12.3884 23.657 1.03977
612 1 -1.1104 6.54822 18.1354 6.71968
644 1 -1.1104 12.2272 18.0594 7.05342
985 2 2.2208 8.20033 22.2185 -0.253727
890 2 2.2208 2.52969 10.9779 -0.222184
553 2 2.2208 5.45134 25.0065 5.36041
555 1 -1.1104 1.16953 26.7092 0.748433
559 1 -1.1104 1.10524 26.4325 3.65061
563 1 -1.1104 1.12854 29.158 1.00665
567 2 2.2208 5.31158 27.9242 2.45147
569 1 -1.1104 1.02739 29.2297 3.96415
573 1 -1.1104 3.84844 26.5281 0.895929
574 2 2.2208 2.58153 25.1555 2.48929
576 1 -1.1104 3.8739 26.5967 4.0299
579 2 2.2208 2.46588 27.9173 5.22509
581 1 -1.1104 3.7622 29.4091 0.95395
583 1 -1.1104 3.88131 29.4779 3.88288
578 2 2.2208 2.54984 27.8907 27.8141
673 1 -1.1104 1.15472 29.5984 6.69419
669 1 -1.1104 0.866799 26.6795 6.34951
928 2 2.2208 10.8822 10.9765 25.1256
942 2 2.2208 5.29821 25.1743 -0.491779
13535 2 2.2208 -0.307204 11.0337 19.5141
565 1 -1.1104 6.51632 29.4089 0.903176
671 1 -1.1104 6.82564 26.2556 6.70437
561 1 -1.1104 6.53773 26.5401 4.28227
571 1 -1.1104 6.97859 29.2534 3.78303
557 1 -1.1104 6.61933 26.3604 1.35922
584 2 2.2208 10.9112 25.0954 5.37303
586 1 -1.1104 12.2293 26.5755 1.13604
588 1 -1.1104 12.2457 26.6395 4.01454
590 1 -1.1104 12.4124 29.2649 1.22892
592 2 2.2208 11.0575 28.0697 2.52609
594 1 -1.1104 12.753 29.5519 3.78055
596 1 -1.1104 9.67766 26.8272 0.834563
597 2 2.2208 8.15311 25.1709 2.41615
599 1 -1.1104 9.44384 26.2868 3.82107
602 2 2.2208 8.13462 27.852 5.20848
604 1 -1.1104 9.30584 29.6239 0.994543
606 1 -1.1104 9.67246 29.1411 3.80089
601 2 2.2208 8.13845 28.0276 -0.233417
984 2 2.2208 10.8164 25.2225 -0.40353
717 1 -1.1104 9.52213 26.3027 6.9021
613 1 -1.1104 3.69625 14.9754 6.68468
616 2 2.2208 5.19773 13.7794 11.1334
618 1 -1.1104 0.73432 15.3337 12.5887
620 1 -1.1104 1.00105 15.3786 9.56392
622 1 -1.1104 1.02529 12.4555 12.1785
627 2 2.2208 5.3632 16.6418 8.23853
628 1 -1.1104 1.23609 12.2842 9.46623
632 1 -1.1104 3.76287 15.2269 12.2902
633 2 2.2208 2.372 13.9498 8.10677
635 1 -1.1104 3.71184 15.4337 9.44673
637 2 2.2208 2.50251 16.7938 10.8371
638 1 -1.1104 4.12828 12.2171 12.3461
640 1 -1.1104 3.79186 12.8492 9.52429
745 2 2.2208 5.25036 16.5841 13.7885
539 2 2.2208 11.1061 10.988 2.6426
13373 2 2.2208 -0.584629 16.7402 7.99937
13245 2 2.2208 -0.286413 10.9966 2.38444
746 2 2.2208 2.47994 13.6585 13.6328
963 1 -1.1104 6.65168 26.7039 26.7384
654 2 2.2208 10.9358 11.0508 8.11398
626 2 2.2208 5.30731 11.1578 8.31025
621 1 -1.1104 6.59593 15.2694 9.57398
642 1 -1.1104 12.2725 15.4331 6.94264
624 1 -1.1104 6.83393 12.4751 12.5323
630 1 -1.1104 6.71157 12.6316 9.67336
643 1 -1.1104 12.3237 12.638 6.8941
619 1 -1.1104 6.63642 15.2303 12.5257
648 2 2.2208 10.8048 13.9744 10.929
650 1 -1.1104 12.4505 15.5518 12.2753
651 1 -1.1104 12.511 15.345 9.89335
652 1 -1.1104 12.4869 12.9096 12.3357
655 2 2.2208 10.9908 16.7686 8.31525
656 1 -1.1104 12.2975 12.5744 9.65337
658 1 -1.1104 9.5517 15.236 12.2951
659 2 2.2208 8.09153 13.8768 7.96266
661 1 -1.1104 9.45811 15.4455 9.51051
663 2 2.2208 7.83855 16.7879 10.8978
664 1 -1.1104 9.45689 12.5085 12.3488
666 1 -1.1104 9.48953 12.3995 9.19686
784 2 2.2208 10.8664 16.7969 13.5727
785 2 2.2208 8.18352 13.8621 13.7227
982 2 2.2208 8.1407 25.1234 25.1096
13539 2 2.2208 -0.427107 10.9434 13.6176
668 1 -1.1104 0.934717 20.8135 6.61794
13686 2 2.2208 -0.334073 13.9237 22.2986
617 2 2.2208 5.06909 19.5689 10.9222
623 1 -1.1104 0.840613 18.2312 12.3252
629 1 -1.1104 1.1671 18.12 9.55847
634 2 2.2208 2.36384 19.4696 8.01796
639 1 -1.1104 3.90352 18.2654 12.2994
641 1 -1.1104 3.94296 18.151 9.45391
681 1 -1.1104 1.10919 20.9833 12.2492
685 1 -1.1104 0.785402 20.9197 9.44522
693 2 2.2208 5.1403 22.1664 8.1003
700 1 -1.1104 3.6879 20.7814 12.4225
704 1 -1.1104 3.78436 20.9415 9.59195
706 2 2.2208 2.45927 22.3493 10.7794
710 1 -1.1104 3.69207 23.6651 9.05333
708 1 -1.1104 3.87823 23.6481 12.0692
689 1 -1.1104 1.17044 23.8809 12.1092
678 1 -1.1104 3.95333 23.3779 6.3855
696 1 -1.1104 1.07782 23.7228 9.46367
698 1 -1.1104 6.52592 23.7794 9.58644
13534 2 2.2208 -0.35765 16.744 19.5081
747 2 2.2208 2.28594 19.6936 14.0151
670 1 -1.1104 6.66332 20.8008 6.47381
712 1 -1.1104 12.262 21.0008 6.58093
647 1 -1.1104 9.63656 17.8142 6.76981
716 1 -1.1104 9.46865 20.6568 6.40379
674 1 -1.1104 6.75014 23.2781 6.72634
718 1 -1.1104 9.48789 23.4273 6.61693
683 1 -1.1104 6.43691 21 12.4012
691 1 -1.1104 6.64081 23.8846 12.2383
625 1 -1.1104 6.40822 18.1042 12.1646
687 1 -1.1104 6.46904 21.067 9.67705
631 1 -1.1104 6.89834 18.1506 9.42205
667 1 -1.1104 9.45467 18.2852 9.75028
649 2 2.2208 10.7155 19.7427 11.2007
653 1 -1.1104 12.0579 18.2986 12.5386
657 1 -1.1104 12.1587 18.1429 9.84663
660 2 2.2208 8.2602 19.5054 8.17472
665 1 -1.1104 9.24459 18.1544 12.4217
721 1 -1.1104 12.0193 21.0469 12.5234
723 1 -1.1104 12.4418 21.0345 9.78402
727 2 2.2208 11.0155 22.4913 8.41105
732 1 -1.1104 9.18591 21.0347 12.5348
736 1 -1.1104 9.49666 21.1184 9.49794
738 2 2.2208 7.97083 22.4349 11.1426
714 1 -1.1104 12.3116 23.9528 6.85059
725 1 -1.1104 12.2078 23.9324 12.3789
742 1 -1.1104 9.49258 23.8357 9.91342
740 1 -1.1104 9.343 23.8253 12.4455
730 1 -1.1104 12.2706 23.8579 9.71565
13716 2 2.2208 13.5229 25.3872 25.1092
677 1 -1.1104 3.78222 26.4424 6.7025
679 1 -1.1104 4.00786 29.4798 6.63712
680 2 2.2208 5.17138 25.3381 10.8329
682 1 -1.1104 0.630536 26.5686 12.2188
686 1 -1.1104 0.998601 26.4323 9.38788
690 1 -1.1104 1.08914 29.7031 12.3144
694 2 2.2208 5.19553 28.0969 8.04078
697 1 -1.1104 1.08475 29.3919 9.43945
701 1 -1.1104 3.63122 26.6545 12.1789
702 2 2.2208 2.35537 25.2036 7.9692
705 1 -1.1104 3.96097 26.6244 9.33245
707 2 2.2208 2.26882 28.01 10.9391
709 1 -1.1104 3.82973 29.6915 12.4151
711 1 -1.1104 3.84 29.5271 9.50534
13273 2 2.2208 13.6655 25.1061 2.38398
13538 2 2.2208 -0.537647 16.8413 13.7207
695 2 2.2208 5.27326 28.0837 13.9326
703 2 2.2208 2.42291 25.333 13.601
713 1 -1.1104 12.1891 26.8635 6.87205
684 1 -1.1104 6.41803 26.6899 12.3839
719 1 -1.1104 9.35833 29.1255 6.74481
688 1 -1.1104 6.68873 26.9304 9.33159
699 1 -1.1104 6.6012 29.5705 9.58293
715 1 -1.1104 12.4506 29.7343 6.58399
675 1 -1.1104 6.67243 29.4184 6.56494
692 1 -1.1104 6.57382 29.2519 12.3155
720 2 2.2208 10.7599 25.483 11.1329
722 1 -1.1104 12.3455 26.7393 12.4468
724 1 -1.1104 12.2195 26.589 9.505
726 1 -1.1104 12.2896 29.4641 12.1935
728 2 2.2208 10.8124 28.1258 8.30543
731 1 -1.1104 12.4869 29.2975 9.36806
733 1 -1.1104 9.31842 26.627 12.3478
734 2 2.2208 8.0094 25.0313 8.22043
737 1 -1.1104 9.30597 26.7673 9.69307
739 2 2.2208 7.87473 28.1235 10.9626
741 1 -1.1104 9.3458 29.2815 12.2915
743 1 -1.1104 9.60039 29.5328 9.6413
13497 2 2.2208 13.5446 11.0003 16.4978
748 2 2.2208 5.26135 13.7982 16.7396
750 1 -1.1104 1.22889 15.0601 17.7499
752 1 -1.1104 1.06705 15.3743 15.2694
756 1 -1.1104 1.19798 12.1073 17.9043
761 2 2.2208 5.1187 16.5273 19.3235