ITEM: TIMESTEP
100000
ITEM: NUMBER OF ATOMS
18000
ITEM: BOX BOUNDS xy xz yz pp pp pp
-1.4834824998574195e-01 2.8042348249985611e+01 0.0000000000000000e+00
-1.7686605645725362e+00 3.3649666056457585e+02 0.0000000000000000e+00
-1.3656491258391520e-01 2.8030564912583646e+01 0.0000000000000000e+00
ITEM: ATOMS id type x y z
1 1 1.31714 -0.677747 1.07787
2 1 4.02405 -0.23223 1.10257
3 1 3.97346 -0.316407 4.04427
4 1 1.30197 -0.291733 3.89843
5 1 1.26958 2.30448 1.1855
6 1 4.06328 2.45172 1.08063
7 1 4.21946 2.34278 3.99061
8 1 1.3107 2.33773 3.93242
9 1 6.90369 -0.525346 1.26119
10 1 9.78156 -0.37064 1.08298
11 1 9.66672 -0.449154 4.00512
12 1 6.83769 -0.0272508 4.00707
13 1 6.8661 2.45581 1.06552
14 1 9.65685 2.45781 1.1603
15 1 9.67988 2.50392 4.24162
16 1 7.01574 2.64579 3.86173
17 1 12.4658 -0.483445 1.30817
18 1 12.6361 -0.227106 4.07075
19 1 12.4642 2.41446 1.0909
20 1 12.3086 2.52578 3.92385
21 1 1.20706 5.23867 1.28971
22 1 3.96028 5.25136 1.16216
23 1 4.00374 5.06328 4.00691
24 1 1.38967 5.11319 4.19281
25 1 1.2682 8.16481 1.11318
26 1 4.16316 7.94202 1.1431
27 1 4.34045 8.26953 4.06606
28 1 1.54747 7.89991 3.85963
29 1 7.02938 5.18501 1.21926
30 1 9.90176 5.34169 1.06418
31 1 9.78379 5.29701 3.8892
32 1 6.799 5.3274 4.08444
33 1 6.97211 8.10104 1.24162
34 1 9.84138 8.09595 1.09827
35 1 10.1854 8.16889 3.88691
36 1 7.10281 8.07116 4.05381
37 1 12.6547 5.27727 1.29852
38 1 12.6497 5.38236 4.16796
39 1 12.5128 8.05483 1.35083
40 1 12.9999 8.11777 4.0894
41 1 1.4145 10.9175 1.14991
42 1 4.12271 10.7033 1.15507
43 1 4.0201 11.039 3.96062
44 1 1.26252 10.7084 3.96844
12142 2 -0.0101178 17.9444 13.8216
46 1 4.24155 13.577 1.08831
47 1 4.34382 13.7384 4.22519
48 1 1.19995 13.5016 4.03253
49 1 6.94652 10.9318 1.21326
50 1 9.81857 10.907 1.06809
51 1 9.6386 10.969 3.99231
52 1 6.95823 10.8332 4.15096
53 1 6.9491 13.5469 1.28143
54 1 9.9428 13.8068 1.39985
55 1 9.81671 13.6847 4.21802
56 1 7.05156 13.654 4.10346
57 1 12.5719 10.9414 1.12243
58 1 12.4641 10.9679 4.09069
59 1 12.7116 13.8123 1.31168
60 1 12.8782 13.6831 4.07688
61 1 1.43717 16.5036 1.55422
62 1 4.16896 16.3963 1.3628
63 1 4.3187 16.595 4.08579
64 1 1.67998 15.9525 4.34458
65 1 1.43163 19.5361 1.18748
66 1 4.42707 19.1017 1.23421
67 1 4.39956 19.3502 4.07237
68 1 1.3615 19.1335 3.91089
69 1 7.02506 16.3941 1.31428
70 1 9.90191 16.5703 1.41038
71 1 9.9537 16.4743 4.21438
72 1 7.1394 16.3333 4.13552
73 1 7.48101 19.0306 1.37311
74 1 10.0045 19.4853 1.2758
75 1 9.81754 19.2665 4.20193
76 1 7.01651 19.275 4.06266
77 1 12.6162 16.6335 1.18397
78 1 12.5923 16.4695 4.02361
79 1 12.648 22.2197 1.11437
80 1 12.5227 19.4411 4.03856
81 1 1.59127 22.1892 1.14712
82 1 4.18306 22.0578 1.22004
83 1 4.13961 22.173 3.8983
84 1 1.37993 22.1227 4.00843
85 1 7.0568 22.0621 1.32312
86 1 9.84422 22.1292 1.41417
87 1 9.7595 22.1465 4.16813
88 1 7.03928 22.1498 4.04835
12101 2 0.0818474 -1.69568 11.0202
90 1 12.6887 22.1912 4.04334
91 1 1.29443 -0.431265 6.60692
92 1 3.99402 -0.371277 7.05825
93 1 4.00572 -0.153876 9.89523
94 1 1.27635 -0.278855 9.57859
95 1 1.38731 2.5012 6.84303
96 1 4.09759 2.39327 6.87405
97 1 4.06376 2.50798 9.79032
98 1 1.27561 2.52993 9.61239
99 1 6.89465 -0.315743 6.80931
100 1 9.65901 -0.257708 6.82133
101 1 9.73221 -0.264784 9.47972
102 1 6.75765 -0.25984 9.7107
103 1 6.90828 2.41763 6.86651
104 1 9.72846 2.61737 6.77779
105 1 9.81564 2.50083 9.75123
106 1 6.91835 2.53814 9.70468
107 1 12.6897 -0.131669 6.91364
108 1 12.4604 -0.297848 9.69286
109 1 12.6354 2.65308 6.65626
110 1 12.7099 2.49721 9.69306
111 1 1.45241 5.30143 6.86451
112 1 4.23636 5.33388 6.74325
113 1 4.14591 5.3051 9.41688
114 1 1.49508 5.16131 9.64885
115 1 1.52267 8.23885 6.65982
116 1 4.32524 8.19581 6.82256
117 1 4.34349 8.11441 9.79367
118 1 1.20247 8.08719 9.55833
119 1 7.03279 5.10733 6.85495
120 1 9.71416 5.18397 6.78304
121 1 10.062 5.23143 9.74069
122 1 7.07451 5.38771 9.77837
123 1 6.99833 8.04215 7.1081
124 1 9.58052 7.83962 6.90902
125 1 9.87576 8.22605 9.85812
126 1 7.08298 8.08392 9.77822
127 1 12.6245 5.38673 6.85608
128 1 12.7314 5.19418 9.62523
129 1 12.5811 8.13989 6.82947
130 1 12.5003 8.24248 9.48733
131 1 1.4532 10.9521 6.9234
132 1 4.19215 10.9222 6.84884
133 1 4.34227 10.8312 9.7585
134 1 1.48024 10.9118 9.68657
135 1 1.29275 13.6456 7.09379
136 1 3.94675 13.984 6.72602
137 1 4.31426 13.7205 9.59518
138 1 1.33174 13.7178 9.82157
139 1 7.07136 10.8947 7.07716
140 1 9.73269 10.6726 6.99047
141 1 9.79925 11.1134 9.65848
142 1 7.17352 10.732 9.97121
143 1 6.84074 13.6701 6.89497
144 1 9.85927 13.6061 6.89921
145 1 9.92869 13.8352 9.86808
146 1 6.94273 13.5348 9.75861
147 1 12.5641 11.0782 6.74862
148 1 12.636 11.1051 9.56501
149 1 12.8144 14.0103 6.73032
150 1 12.6232 13.7681 9.51623
151 1 1.29411 16.5854 7.18207
152 1 4.01355 16.609 6.96193
153 1 4.20638 16.4536 9.66097
154 1 1.39921 16.5435 9.71097
155 1 1.16757 19.4961 6.74556
156 1 4.14481 19.3377 6.92842
157 1 4.09721 19.4219 9.69379
158 1 1.24084 19.3072 9.47056
159 1 6.84821 16.6449 6.95669
160 1 9.6631 16.3889 6.92376
161 1 9.8092 16.4429 9.74533
162 1 6.94665 16.5656 9.74924
163 1 6.92369 19.3138 6.81785
164 1 9.78784 19.2605 6.95729
165 1 9.62875 19.534 9.67885
166 1 6.79071 19.363 9.59787
167 1 12.6987 16.5866 6.78241
168 1 12.7498 16.6292 9.50652
169 1 12.6355 19.3416 6.84365
170 1 12.5144 19.493 9.74329
171 1 1.44754 22.101 6.87694
172 1 4.31617 22.1616 6.70997
173 1 3.93995 22.2494 9.4479
174 1 1.09578 22.125 10.0262
175 1 6.92823 22.2425 6.99387
176 1 9.82169 22.0932 6.90738
177 1 9.71224 22.2536 9.79005
178 1 6.82818 22.0041 9.68802
179 1 12.4595 22.0605 6.88203
180 1 12.3716 22.3138 9.85509
181 1 1.35458 -0.413761 12.3751
182 1 4.08362 -0.29056 12.6379
183 1 1.42143 2.31867 12.4616
184 1 4.13831 2.53994 12.4388
185 1 6.96318 -0.167428 12.5591
186 1 9.86976 -0.478387 12.5309
187 1 7.15153 2.47193 12.4444
188 1 9.89793 2.3159 12.4566
189 1 12.6871 -0.512758 12.2939
190 1 12.7124 2.36121 12.5399
191 1 1.28002 5.35041 12.5074
192 1 4.11152 5.31238 12.3609
193 1 1.54074 8.00315 12.3547
194 1 4.37698 8.00411 12.5599
195 1 7.00767 5.28098 12.5423
196 1 9.84796 5.29523 12.3847
197 1 7.14131 7.83732 12.4958
198 1 9.95463 8.01296 12.5355
199 1 12.6751 5.16016 12.3687
200 1 12.656 7.86611 12.1929
201 1 1.34031 10.8094 12.5537
202 1 4.34299 11.066 12.5841
203 1 1.26823 13.6934 12.6579
204 1 4.25825 13.6281 12.5354
205 1 7.0484 10.6424 12.7583
206 1 9.85505 10.91 12.3977
207 1 7.07237 13.5822 12.5034
208 1 9.81493 13.8072 12.617
209 1 12.7327 10.6766 12.311
210 1 12.7286 13.5705 12.3393
211 1 1.46262 16.4751 12.4817
212 1 4.12862 16.373 12.6683
213 1 1.53625 19.2589 12.4318
214 1 4.21552 19.1356 12.4454
215 1 6.80401 16.483 12.4894
216 1 9.8582 16.5885 12.5082
217 1 7.18265 19.2889 12.4626
218 1 9.84011 19.4465 12.4604
219 1 12.5162 16.5262 12.3065
220 1 12.5793 19.3476 12.5894
221 1 1.36451 22.2523 12.7997
222 1 4.04114 22.0461 12.384
223 1 6.80394 22.1728 12.4317
224 1 9.56301 22.2273 12.4966
225 1 12.3893 22.2496 12.5952
12071 2 -0.0169283 9.32395 5.47716
12055 2 5.54698 -1.82825 5.57917
12081 2 -0.123592 15.1401 5.99774
12111 2 -0.0443872 9.3852 10.9567
12054 2 -0.0369321 1.09714 8.24008
12024 2 0.0907384 11.9814 2.53333
12105 2 11.2288 -1.75179 10.9804
12008 2 5.53086 1.04381 2.57909
12039 2 11.2952 15.2114 -0.162152
12010 2 11.0404 0.918525 2.6234
12125 2 11.1578 20.7337 11.1677
12053 2 2.62375 -1.74914 8.17692
12013 2 2.57006 3.80785 2.59586
12124 2 8.26377 23.3946 11.0816
12015 2 5.62417 3.92856 -0.177982
6054 1 1.13099 13.7667 1.45089
12017 2 8.42187 3.75798 2.6074
12018 2 5.49738 6.55498 2.69067
6058 2 -0.027331 15.1403 2.8148
12020 2 11.3953 6.60079 2.63386
12113 2 5.81494 9.34619 11.2093
12104 2 8.44585 1.03882 11.0246
12023 2 2.74822 9.33587 2.55767
12103 2 5.57822 -1.7119 11.0847
12134 2 5.59505 6.61395 13.9702
12107 2 2.77233 6.62947 10.9551
12027 2 8.3579 9.51781 2.66079
12028 2 5.64434 12.1887 2.66518
12084 2 -0.119779 18.0014 8.26822
12030 2 11.3706 12.3104 2.53217
12102 2 2.80806 1.07797 11.1544
12114 2 8.45187 12.209 11.2035
12033 2 3.15111 15.0342 2.78919
12044 2 -0.166212 23.5334 2.55492
12100 2 11.0507 23.584 8.31787
12099 2 11.0689 20.6621 5.47255
12037 2 8.49578 15.0579 2.76791
12038 2 5.74558 17.932 2.7052
12098 2 5.49026 23.4832 8.26848
12040 2 11.3245 17.8389 2.73941
12097 2 8.30063 20.7603 8.32733
12131 2 2.70428 3.83332 13.9658
12043 2 2.74145 20.5768 2.59905
12123 2 5.57731 20.6406 11.0755
12096 2 8.30463 23.5045 5.55542
12095 2 5.58795 20.6383 5.47538
12047 2 8.55783 20.6594 2.71941
12048 2 5.49071 23.5001 2.68641
12115 2 11.3833 9.44759 11.0267
12050 2 11.1385 23.519 2.70615
12003 2 2.8124 -1.65862 2.59707
12052 2 2.62035 0.941301 5.39428
12112 2 2.83503 12.3465 11.0598
12122 2 2.78171 23.5058 11.1425
12110 2 11.2873 3.7301 11.1638
12056 2 8.41244 1.08122 5.44399
12109 2 8.59427 6.58312 11.0945
12058 2 5.42527 1.06287 8.19663
12108 2 5.5488 3.79982 11.1869
12060 2 11.2805 1.15326 8.15683
12120 2 11.3346 15.1099 11.0261
12062 2 2.84184 6.53938 5.40769
12063 2 2.90989 3.83659 8.19895
12119 2 8.43467 17.9724 11.1607
12065 2 5.53738 3.78806 5.48052
12066 2 8.27913 6.37635 5.46669
12067 2 8.29808 3.80921 8.27365
12068 2 5.6834 6.64636 8.31084
12069 2 11.2946 3.93023 5.37148
12070 2 11.1311 6.76601 8.17056
12138 2 8.59975 9.30157 13.8668
12072 2 2.77238 12.4093 5.51352
12073 2 2.84364 9.48414 8.23778
12118 2 5.57765 15.0308 11.19
12075 2 5.66725 9.47154 5.54312
12076 2 8.42895 12.1996 5.45652
12077 2 8.38571 9.40354 8.37167
12078 2 5.59601 12.1615 8.30357
12079 2 11.3117 9.48237 5.46701
12080 2 11.1323 12.2183 8.06208
12094 2 0.101644 23.547 8.3782
12082 2 2.79032 17.8599 5.5458
12083 2 2.74246 15.0842 8.34387
12117 2 2.94949 17.7729 11.1582
12085 2 5.68951 15.0909 5.64043
12086 2 8.45413 17.9007 5.54766
12087 2 8.275 15.0833 8.38509
12088 2 5.48621 17.885 8.30575
12089 2 11.3084 14.987 5.49054
12090 2 11.1478 17.8751 8.19936
440 1 12.7951 19.3957 1.26313
12092 2 2.67245 23.6718 5.38145
12093 2 2.78984 20.6892 8.29133
12132 2 0.0332142 6.59752 13.9125
12135 2 11.3234 6.70485 13.9041
12141 2 2.85115 14.9582 14.0036
12014 2 -0.0919118 6.62608 2.47696
12091 2 -0.132385 20.8584 5.54614
12150 2 11.1257 23.4953 13.9437
15092 2 13.9867 20.6924 8.25395
12106 2 0.0528206 3.9103 11.0151
12016 2 8.51292 6.6873 -0.136458
12006 2 8.4747 1.05384 -0.159904
12116 2 -0.235902 15.1156 11.1579
12074 2 -0.132999 12.2988 8.34412
12137 2 -0.116477 12.4349 13.9274
12133 2 8.56585 3.73541 13.7743
12136 2 2.72241 9.56674 13.7741
12036 2 8.54725 17.9831 -0.144133
12064 2 -0.210547 6.65932 8.2177
12061 2 -0.0938614 3.80927 5.4419
12130 2 11.4173 1.05459 13.9219
12146 2 2.73677 20.6954 13.9673
12045 2 5.56784 20.7169 -0.116892
12126 2 2.7672 -1.72731 13.8858
12140 2 11.1904 12.3087 13.7541
12046 2 8.35228 23.5091 -0.0884779
12049 2 11.3168 20.7176 -0.0686358
12026 2 8.55099 12.2635 -0.253573
226 1 4.07885 -0.536501 15.5096
227 1 1.13432 -0.481922 15.1887
228 1 4.25239 2.43 15.3223
229 1 1.3584 2.34252 15.137
230 1 9.98814 -0.259795 15.3502
231 1 7.1563 -0.110405 15.2691
232 1 9.95655 2.32335 15.2555
233 1 7.234 2.60029 15.5063
234 1 12.8134 -0.28992 15.4126
235 1 12.7653 2.41415 15.3126
236 1 4.30583 5.33961 15.2738
237 1 1.47549 5.19902 15.3208
238 1 4.12749 8.11493 15.2353
239 1 1.44225 8.00642 15.2731
240 1 9.89339 5.23275 15.1256
241 1 6.93643 5.34213 15.2112
242 1 9.91962 8.15049 15.3494
243 1 7.09143 8.01802 15.2394
244 1 12.6407 5.20484 15.3063
245 1 12.798 8.12173 15.2161
246 1 4.27246 11.0326 15.5271
247 1 1.57062 10.8867 15.394
248 1 4.13864 13.6424 15.4138
249 1 1.48748 13.7386 15.4219
250 1 10.0606 10.8891 15.1448
251 1 7.24246 10.7638 15.468
252 1 9.68368 13.6952 15.2946
253 1 6.98738 13.8308 15.3544
254 1 12.7015 10.8571 15.1807
255 1 12.6067 13.5636 15.0688
256 1 4.00844 16.3413 15.4364
257 1 1.3196 16.4671 15.35
258 1 4.25511 19.2538 15.3376
259 1 1.41211 19.2646 15.1409
260 1 9.55645 16.5571 15.3957
261 1 6.81283 16.6037 15.4319
262 1 9.77505 19.2845 15.1054
263 1 6.91234 19.2768 15.4392
264 1 12.4671 16.3365 15.0572
265 1 12.6214 19.4 15.3222
266 1 4.18599 22.0364 15.3474
267 1 1.29211 21.9728 15.3266
268 1 9.53285 22.2662 15.1676
269 1 6.80933 21.9645 15.2772
270 1 12.6457 22.2265 15.373
271 1 1.24654 -0.397965 18.0775
272 1 4.19879 -0.37228 18.2229
273 1 4.27701 -0.386091 20.8378
274 1 1.32808 -0.289974 20.9792
275 1 1.32493 2.38789 18.1663
276 1 4.20445 2.51024 18.2423
277 1 4.15908 2.65393 21.0434
278 1 1.36144 2.44843 20.9213
279 1 6.94105 -0.135613 18.0759
280 1 9.95501 -0.356046 18.3991
281 1 9.87431 -0.377224 20.8709
282 1 7.18178 -0.405311 20.8465
283 1 7.10768 2.57751 17.9816
284 1 9.81695 2.37427 18.2804
285 1 9.83393 2.44532 21.1848
286 1 7.05242 2.33031 20.8983
287 1 12.6673 -0.361554 18.0791
288 1 12.7498 -0.371059 20.8838
289 1 12.6348 2.46862 18.0927
290 1 12.5781 2.34935 20.8459
291 1 1.25554 5.25191 18.1122
292 1 4.09764 4.99668 18.048
293 1 4.01554 5.32864 20.8823
294 1 1.33898 5.36082 21.0193
295 1 1.44698 8.21732 18.1853
296 1 4.34518 7.9536 18.1115
297 2 5.51876 9.2561 19.5908
298 1 4.269 7.98203 20.9281
299 1 6.89833 5.30772 18.0656
300 1 9.86594 5.05888 17.9476
301 1 9.67728 5.26593 20.7196
302 1 6.97927 5.10638 20.8119
303 1 7.03655 8.10823 18.1717
304 1 9.93587 7.91567 18.0165
305 1 9.88218 7.94857 20.9181
306 1 6.88913 7.89518 20.6822
307 1 12.7972 5.28832 17.9939
308 1 12.7489 5.08536 20.7808
309 1 12.754 8.20553 18.0562
310 1 12.7256 7.95103 21.0034
311 1 1.23654 11.0464 18.3204
312 1 4.11684 10.6075 18.2627
313 1 4.09201 10.6131 21.0912
314 1 1.16102 11.0576 20.9311
315 1 1.26997 13.8196 18.0759
316 1 4.19406 13.4575 18.1149
317 1 4.084 13.693 20.8914
318 1 1.31404 13.8484 21.0865
319 1 6.84483 10.7003 18.1997
320 1 9.79754 10.5672 17.9236
321 1 9.75489 10.6443 20.8516
322 1 6.71325 10.6671 20.9184
323 1 7.03094 13.9555 18.2379
324 1 9.8447 13.5814 18.1437
325 1 9.73061 13.3559 20.8471
326 1 6.86951 13.4948 21.1061
327 1 12.4383 11.095 18.0975
328 1 12.5629 10.659 20.9907
329 1 12.7495 13.804 18.1907
330 1 12.7589 13.5593 20.9877
331 1 1.36779 16.5222 18.1242
332 1 4.2009 16.2158 18.2332
333 1 4.23246 16.4837 20.9746
334 1 1.41483 16.6458 20.9133
335 1 1.3274 19.4826 17.9761
336 1 4.19155 18.9917 18.2061
337 1 4.2165 19.2058 21.0705
338 1 1.32082 19.4061 20.9984
339 1 6.84951 16.5993 18.0694
340 1 9.9337 16.5669 18.0603
341 1 9.73628 16.6312 20.9191
342 1 7.08033 16.354 20.7549
343 1 6.91417 19.3006 18.2189
344 1 9.6516 19.4108 18.0233
345 1 9.87135 19.2909 21.0584
346 1 7.12053 19.2496 20.8852
347 1 12.5466 16.6458 17.7034
348 1 12.888 16.7167 20.6155
349 1 12.6338 19.3457 18.2811
350 1 12.5532 19.3527 21.0586
351 1 1.36583 22.0684 18.0881
352 1 4.04353 21.9924 18.1678
353 1 4.09288 22.1524 20.8779
354 1 1.22591 22.1516 20.8932
355 1 6.83412 22.1586 18.0915
356 1 9.51485 22.0926 17.9173
357 1 9.75937 22.1489 20.9637
358 1 6.78727 21.9473 21.0031
359 1 12.42 22.1619 18.1874
360 1 12.5589 22.1081 20.8741
361 1 1.49351 -0.397672 23.7689
362 1 4.10704 -0.250461 23.5786
363 1 4.33254 -0.37167 26.4717
364 1 1.41638 -0.348941 26.6139
365 1 1.6756 2.47044 23.7557
366 1 4.39023 2.45555 23.8255
367 1 4.20544 2.5311 26.539
368 1 1.13107 2.51549 26.3629
369 1 6.82448 -0.221419 23.6334
370 1 9.66962 -0.468867 23.64
371 1 9.91538 -0.339158 26.5171
372 1 7.02071 -0.319176 26.5182
373 1 7.14656 2.59229 23.7055
374 1 9.85322 2.46256 23.7347
375 1 9.91028 2.41094 26.3922
376 1 7.05961 2.54168 26.5424
377 1 12.548 -0.322289 23.6859
378 1 12.7346 -0.512421 26.5638
379 1 12.6201 2.67842 23.8171
380 1 12.7139 2.47207 26.5446
381 1 1.62607 5.19844 23.7703
382 1 4.26452 5.18654 23.7521
383 1 4.33981 5.20661 26.5209
384 1 1.61039 5.3199 26.5242
385 1 1.23193 8.04018 23.7764
386 1 4.01528 8.12984 23.6576
387 1 4.19026 7.94013 26.1625
388 1 1.28732 8.09454 26.4574
389 1 7.01656 5.3474 23.5886
390 1 10.1335 5.22933 23.6696
391 1 9.80867 5.409 26.5337
392 1 7.11274 5.26691 26.686
393 1 6.95641 8.09462 23.5496
394 1 9.62638 7.97876 23.6854
395 1 9.92428 8.21681 26.3167
396 1 7.02805 8.08751 26.4322
397 1 12.8762 5.23594 23.649
398 1 12.6156 5.30622 26.6177
399 1 12.4509 7.96294 23.7955
400 1 12.7625 7.97873 26.6971
401 1 1.20257 10.8513 23.7048
402 1 4.03564 11.0087 23.7594
403 1 4.12305 10.8258 26.4208
404 1 1.39949 10.9276 26.4147
405 1 1.4418 13.6395 23.9519
406 1 4.1073 13.8089 23.7095
407 1 4.27163 13.9141 26.4648
408 1 1.46475 13.7123 26.8763
409 1 6.92561 10.8986 23.8032
410 1 9.64312 10.7367 23.6015
411 1 9.79211 11.0944 26.3507
412 1 7.0818 10.8572 26.5921
413 1 6.99953 13.6838 23.8477
414 1 9.67756 13.6149 24.0077
415 1 9.68771 13.803 26.7098
416 1 7.04997 13.8777 26.6485
417 1 12.6815 10.8512 23.7023
418 1 12.7996 10.793 26.5357
419 1 12.9558 13.6035 24.0114
420 1 12.6018 13.7498 26.6023
421 1 1.38814 16.5145 23.8581
422 1 4.16377 16.7337 23.9863
423 1 4.3128 16.4723 26.8557
424 1 1.49963 16.5243 26.76
425 1 1.43207 19.2431 23.8137
426 1 4.19526 19.4752 23.9541
427 1 4.18776 19.3065 26.6443
428 1 1.26948 19.4791 26.3799
429 1 6.82612 16.5935 23.7324
430 1 9.63404 19.3591 23.8839
431 1 9.89704 16.4526 26.5881
432 1 7.09775 16.5929 26.7913
433 1 7.03825 19.4371 23.5892
434 1 12.5696 19.212 26.4284
435 1 9.82106 19.5143 26.8344
436 1 6.96299 19.3822 26.7399
437 1 12.8023 16.5992 23.8091
438 1 12.7631 16.5412 26.6236
439 1 12.5202 19.3666 23.8256
12234 2 -0.14559 17.9056 25.1072
441 1 1.46331 22.0457 23.7729
442 1 4.16761 22.2503 23.7665
443 1 4.16357 22.1217 26.6699
444 1 1.26864 22.267 26.6214
445 1 7.05846 22.0723 23.8446
446 1 9.8492 22.0289 23.8731
447 1 9.87955 22.2085 26.5516
448 1 7.04584 22.1469 26.7392
449 1 12.71 22.2084 23.6063
450 1 12.6369 22.0229 26.4196
12012 2 2.78033 6.73201 27.9214
12250 2 11.3157 23.3866 25.0787
12031 2 0.110479 15.0918 27.7994
12194 2 -0.00586594 23.4963 19.481
15001 2 13.9541 0.728458 28.0257
12227 2 8.41627 9.51138 25.0919
12249 2 11.1933 20.7038 22.4556
12226 2 8.36297 12.2136 22.4679
12225 2 5.49169 9.44721 22.6723
12201 2 -0.0764562 -1.64974 22.4369
12223 2 2.68367 9.45887 25.0838
12248 2 5.59785 23.4955 25.2264
12222 2 2.60622 12.3353 22.4545
12228 2 5.57665 12.4203 25.2238
12181 2 -0.148185 15.2002 16.7998
12220 2 11.3347 6.69227 25.0731
12247 2 8.39756 20.8207 25.2823
12149 2 5.40043 23.4487 13.7994
12159 2 11.4098 -1.57772 16.7062
12241 2 -0.0837287 20.779 22.4094
12219 2 11.2666 3.90528 22.3279
12246 2 8.33565 23.3508 22.357
12148 2 8.25905 20.6686 13.9539
12218 2 5.66262 6.62119 25.1217
12217 2 8.57711 3.7013 25.1075
12245 2 5.4568 20.5648 22.393
12152 2 2.59146 0.95997 16.8505
12216 2 8.41189 6.49507 22.3258
12243 2 2.74434 20.7727 25.1909
12215 2 5.60982 3.92664 22.3751
12156 2 8.57323 0.994686 16.6388
12029 2 11.3297 9.56956 27.7642
12158 2 5.81106 1.1042 19.6017
12229 2 11.2119 9.48019 22.4238
12160 2 11.352 1.07246 19.5713
12242 2 2.67435 23.4988 22.3782
12162 2 2.67896 6.64207 16.7068
12163 2 2.70793 3.91976 19.4878
12240 2 11.2322 17.884 25.1548
12165 2 5.60176 3.81277 16.6315
12166 2 8.47224 6.60519 16.5961
12167 2 8.47182 3.6836 19.4831
12168 2 5.57937 6.14753 19.5169
12169 2 11.2094 3.66775 16.6378
12170 2 11.2285 6.66884 19.4205
12239 1 9.50762 16.6999 23.938
12172 2 2.68118 12.4294 16.7089
12173 2 2.31054 9.64182 19.5807
12238 2 5.6881 17.9455 25.3764
12175 2 5.73206 9.49073 16.4366
12176 2 8.63655 12.1511 16.7053
12177 2 8.68319 9.3451 19.4802
12178 2 5.52232 12.4797 19.569
12179 2 11.3157 9.48673 16.7043
12180 2 11.4914 12.2796 19.6587
12237 2 8.38539 15.1612 25.2097
12182 2 2.58334 17.692 16.6894
12183 2 2.70923 15.1851 19.6585
12236 2 8.46548 17.8318 22.2894
12185 2 5.48185 15.081 16.7626
12186 2 8.15284 17.896 16.8178
12187 2 8.61872 14.9992 19.7048
12188 2 5.65809 17.7753 19.6753
12189 2 11.293 14.9627 16.677
12190 2 11.146 17.7899 19.5728
12235 2 5.70628 15.0607 22.3623
12192 2 2.68055 23.3741 16.5955
12193 2 2.68764 20.7078 19.6848
12041 2 -0.101055 20.7743 27.7382
12195 2 5.42586 20.6174 16.7872
12196 2 8.24445 23.5066 16.5656
12197 2 8.3835 20.5534 19.4937
12198 2 5.57792 23.3562 19.6397
12199 2 11.2076 20.7161 16.8427
12200 2 11.079 23.4246 19.4241
12233 2 2.85909 15.2019 25.219
12202 2 2.84356 1.04376 22.3347
12151 2 -0.140517 -1.83232 16.6923
12232 2 2.7326 17.8684 22.4254
12204 2 0.00442885 1.08594 25.1515
12206 2 8.48164 0.943422 22.4242
6309 1 1.31209 8.21132 21.0109
12208 2 5.58875 1.20806 25.2429
12021 2 -0.105243 9.41354 27.8643
12210 2 11.219 0.928372 25.0572
12230 2 11.2987 12.5322 25.1133
12212 2 2.59069 6.83164 22.4288
12213 2 2.88114 3.90091 25.1745
12144 2 5.52169 17.8605 13.9469
12171 2 0.0140057 9.47158 16.687
12127 2 -0.0378216 1.08085 13.8468
12145 2 11.2045 17.7919 13.8339
15182 2 14.1455 15.189 19.5889
12042 2 2.73925 23.5944 27.905
12164 2 -0.0480069 6.70169 19.5397
12224 2 -0.00186251 12.3609 25.0758
12035 2 5.76493 15.11 28.1227
12022 2 2.92181 12.1838 27.9846
12032 2 2.75169 17.9149 28.1196
12214 2 0.0647407 6.62362 25.1906
12211 2 0.0890239 3.83004 22.3777
15146 2 14.0415 20.709 14.0334
12139 2 5.77774 12.137 13.9949
12002 2 2.73852 0.988703 27.882
12019 2 11.2527 3.79627 27.8778
12025 2 5.64482 9.40722 27.871
12129 2 5.61921 1.10198 14.0259
12143 2 8.34259 15.0444 14.0183
451 1 1.22728 24.8984 1.14563
452 1 4.13196 24.8899 1.1587
453 1 4.13666 25.0393 4.01151
454 1 1.33995 24.8665 3.92941
455 1 6.74652 24.9297 1.35531
456 1 9.58714 25.1156 1.13253
457 1 9.66603 25.0931 4.14423
458 1 6.76618 24.7904 4.0372
459 1 12.9009 27.6625 1.04762
460 1 12.6147 24.9977 4.13691
461 1 1.3372 27.7792 0.929882
462 1 4.03415 27.5973 1.10353
463 1 4.03687 27.6427 3.88455
464 1 1.2456 27.6968 3.82711
465 1 1.27303 30.6677 1.52528
466 1 4.08486 30.5914 1.16712
467 1 4.10268 30.4718 4.0337
468 1 1.42961 30.5568 4.39515
469 1 6.94744 27.5878 1.13721
470 1 9.69251 27.8071 0.934709
471 1 9.67981 27.6905 3.91717
472 1 6.92224 27.9116 3.85912
473 1 6.95325 30.4368 1.01194
474 1 9.68739 30.5942 1.05161
475 1 9.76989 30.4306 3.85186
476 1 6.86276 30.6451 3.81482
477 1 12.5442 30.2199 1.25496
478 1 12.3733 27.692 3.64748
12319 2 0.0507338 40.4739 8.11575
480 1 12.8451 30.3053 4.33579
481 1 1.49679 36.3382 1.34709
482 1 1.67954 33.4379 1.28515
483 1 3.98625 33.3129 4.1294
484 1 4.40053 36.1918 4.24329
485 2 2.8282 37.7476 2.61859
486 1 4.28779 36.241 1.29361
487 1 7.05587 36.4204 4.07358
488 1 1.47862 36.3801 3.99819
489 1 4.36453 33.4496 1.36606
490 1 7.08776 33.5725 1.11998
491 1 9.95062 33.5048 4.09509
492 1 7.22333 33.5454 3.96252
493 1 6.89823 36.2339 1.13468
494 1 9.55331 36.15 1.25079
495 1 12.3526 37.505 1.38455
496 1 9.94953 36.3514 4.05748
497 1 9.9629 33.4736 1.03343
498 1 13.8416 35.1638 2.10322
12274 2 -0.200961 40.4836 2.55132
12378 2 11.2112 40.4998 13.9934
501 1 1.42625 39.22 1.16313
502 1 4.17603 39.2635 1.08726
503 1 4.05728 39.0729 3.93628
504 1 1.134 39.1656 4.00723
505 1 1.0798 41.9771 1.17818
506 1 3.98418 41.9947 1.0854
507 1 4.16861 41.8812 4.04683
508 1 1.46808 41.8652 4.0062
509 1 6.99702 38.8236 1.13909
510 1 9.72746 39.0597 1.11
511 1 9.8468 39.2625 3.99608
512 1 6.94064 39.2416 4.0253
513 1 6.851 41.9324 1.28253
514 1 9.64852 41.9076 1.13318
515 1 10.1131 41.7976 3.92205
516 1 6.97853 41.8995 3.97955
12382 2 5.76023 46.2308 13.7703
89 1 12.4378 24.8059 1.13009
519 1 12.5265 42.1572 1.30239
520 1 12.9512 41.9419 4.13875
521 1 1.40124 44.7073 1.44969
522 1 4.27193 44.7336 1.29544
523 1 4.32804 44.7132 4.12555
524 1 1.55858 44.5467 4.30589
525 1 1.37978 47.4097 1.2094
526 1 4.34973 47.4324 1.3264
527 1 4.14161 47.4789 4.12685
528 1 1.45012 47.2881 3.96594
529 1 7.08477 44.611 1.09301
530 1 9.86741 44.7558 1.35735
531 1 9.8315 44.7602 3.96583
532 1 7.09215 44.6669 3.98169
533 1 7.16467 47.4485 1.30867
534 1 10.0741 47.7556 1.43368
535 1 9.99946 47.4428 4.1281
536 1 7.10661 47.5014 4.25384
537 1 12.6657 44.7363 1.40481
538 1 12.7258 44.6989 4.092
539 1 12.6848 47.5881 1.11127
540 1 12.7819 47.6328 3.96255
541 1 1.35782 25.0475 6.89133
542 1 3.96189 24.9207 6.90258
543 1 4.18168 25.1234 9.67868
544 1 1.26811 24.8863 9.65733
545 1 6.78644 24.8312 6.93188
546 1 9.64879 25.0302 6.83952
547 1 9.90857 25.2473 9.56083
548 1 6.98404 24.8146 9.68416
549 1 12.5785 25.0246 6.77075
550 1 12.6641 25.1171 9.45917
551 1 1.48542 27.7624 6.61217
552 1 4.28098 27.7005 6.72563
553 1 4.13709 27.9039 9.59409
554 1 1.27481 27.6474 10.0304
555 1 1.31848 33.5562 4.2719
556 1 3.66143 30.6187 7.00356
557 1 4.27291 30.7025 9.64097
558 1 1.63929 30.6889 9.71228
559 1 7.16387 27.7083 6.93963
560 1 9.87231 27.95 6.71947
561 1 9.62689 28.084 9.52382
562 1 6.91652 27.6947 9.70639
563 1 6.78347 30.4297 6.63007
564 1 9.84415 30.5451 6.74145
565 1 9.94803 30.6693 9.71846
566 1 6.87961 30.4471 9.68164
567 1 12.5887 27.8609 6.7874
568 1 12.6025 28.0069 9.59267
569 1 12.595 30.7556 6.95558
570 1 12.7371 30.7626 9.65772
571 1 1.41874 36.2298 6.73243
572 1 4.3892 33.4246 6.82336
573 1 4.2416 33.446 9.67242
574 1 1.60724 33.5306 9.65054
575 1 4.17446 36.3258 6.97576
576 1 6.97916 36.1649 6.93807
577 1 4.39238 36.171 9.53057
578 1 1.35225 36.2743 9.66425
579 1 7.03561 33.1358 6.85531
580 1 10.0408 33.4108 6.953
581 1 10.0064 33.418 9.57287
582 1 7.01337 33.2335 9.60679
583 1 9.78757 36.2928 6.87403
584 1 12.5644 36.3549 6.95175
585 1 9.69099 36.3748 10.0665
586 1 7.11019 36.2422 9.77211
587 1 12.7793 33.5418 6.7287
588 1 12.8921 33.6365 9.63474
589 1 12.6266 36.219 4.25131
590 1 12.5353 36.3056 9.83899
591 1 1.44102 38.9317 6.74973
592 1 4.24392 39.1217 6.98294
593 1 4.13238 39.0371 9.8406
594 1 1.36346 39.1561 9.66609
595 1 1.38077 41.951 6.84108
596 1 4.03031 42.0157 6.80372
597 1 4.49521 42.1527 9.56821
598 1 1.60168 41.7524 9.63172
599 1 7.04903 39.103 6.8133
600 1 10.0255 39.2105 6.84811
601 1 9.86911 39.109 9.64139
602 1 7.13438 39.0482 9.46667
603 1 6.87432 41.8676 6.77178
604 1 9.85251 44.7721 6.74228
605 1 9.8013 42.0361 9.42578
606 1 7.22952 41.6672 9.72386
607 1 12.7455 39.0213 6.90808
608 1 12.4948 39.1908 9.69368
609 1 12.5439 41.8489 6.90028
610 1 12.3985 42.0489 9.84733
611 1 1.50589 44.6782 7.06497
612 1 4.49261 44.6817 6.77686
613 1 4.2499 44.6959 9.79429
614 1 1.45007 44.8018 9.67048
615 1 1.49859 47.4349 6.7757
616 1 4.22934 47.4527 6.88977
617 1 4.21735 47.3442 9.70681
618 1 1.49461 47.63 9.60882
619 1 7.12545 44.8571 6.81091
620 1 9.74571 47.6801 6.92862
621 1 9.87452 45.0419 9.48765
622 1 7.15337 44.3889 9.90705
623 1 7.15223 47.6837 6.99963
12356 2 0.169337 43.1102 11.0582
625 1 9.75045 47.7797 9.78246
626 1 6.96169 47.4686 9.69646
627 1 12.7277 44.7576 6.99645
628 1 12.7277 44.7728 9.71211
629 1 12.7189 47.5401 7.03019
630 1 12.6757 47.4827 9.91016
631 1 1.39813 25.1178 12.4432
632 1 3.98339 24.9622 12.6864
633 1 6.77623 24.8856 12.446
634 1 9.8569 24.9682 12.3228
635 1 12.603 24.9813 12.3635
636 1 1.34072 27.8418 12.731
637 1 4.16548 27.831 12.4102
638 1 1.39588 30.7225 12.3114
639 1 4.25737 30.5666 12.5544
640 1 7.00073 27.8894 12.4451
641 1 9.6376 27.5678 12.4027
642 1 7.11936 30.5515 12.4881
643 1 9.73751 30.5184 12.4124
644 1 12.5719 27.7311 12.2954
645 1 12.6662 30.6264 12.338
646 1 1.10925 33.7198 12.1508
647 1 4.05006 33.57 12.3301
648 1 1.50778 36.5412 12.5511
649 1 4.22443 36.3765 12.3796
650 1 6.84777 33.312 12.3424
651 1 9.88578 33.33 12.5937
652 1 7.17061 36.1583 12.4692
653 1 9.82496 36.2377 12.6277
654 1 12.6761 33.5498 12.4829
655 1 12.502 36.2414 12.6887
656 1 1.44324 39.0916 12.4975
657 1 4.30453 39.1629 12.5357
658 1 1.31338 41.7957 12.3085
659 1 4.16208 41.9834 12.4338
660 1 7.13688 39.0942 12.6351
661 1 9.83031 39.2221 12.4362
662 1 6.94066 41.8631 12.4971
663 1 9.7631 42.0001 12.5704
664 1 12.5965 39.2183 12.7479
665 1 12.5519 42.0111 12.5887
666 1 1.24867 44.6986 12.3417
667 1 4.32996 44.7191 12.3665
668 1 1.56771 47.4015 12.586
669 1 4.22098 47.4484 12.4241
670 1 7.13182 44.828 12.5406
671 1 9.78464 44.825 12.4822
672 1 7.00388 47.6229 12.4741
673 1 9.78119 47.5018 12.5527
674 1 12.5655 44.8243 12.5681
675 1 12.649 47.6291 12.7534
12363 2 11.2691 48.8426 11.1651
12336 2 0.0965837 48.8762 5.52552
12253 2 2.64701 26.2618 2.36067
12362 2 5.69352 48.9051 11.1788
1109 1 12.809 50.578 12.4839
12348 2 5.41994 31.9037 11.022
12257 2 8.2884 26.4063 2.6208
12258 2 5.42844 29.1225 2.50691
12347 2 2.85731 35.0789 11.1151
12260 2 10.7913 29.0377 2.4392
12365 2 0.0020551 29.2897 13.8409
12367 2 5.58895 29.2189 13.8199
12263 2 2.83789 32.0987 2.66699
12360 2 11.1838 43.4224 11.2759
1018 1 12.6492 50.2833 9.64983
12264 2 0.00843283 34.8126 2.52233
12267 2 8.36344 32.0832 2.36315
12268 2 5.86052 34.9894 2.71684
12284 2 0.00280488 46.1105 2.64563
12270 2 11.3356 34.7975 2.3547
12359 2 8.43293 46.087 11.1226
6463 1 12.7403 33.0458 1.04769
12273 2 5.71247 37.6564 5.54168
12358 2 5.7101 43.2732 11.1759
12369 2 2.83361 32.0211 13.7608
12361 2 0.1617 48.9895 11.0558
12277 2 8.45536 37.6242 2.76412
12278 2 5.57856 40.5423 2.60686
12368 2 11.001 29.3099 13.7608
12280 2 11.371 40.2881 2.39909
12296 2 -0.0706136 26.2521 5.46338
500 1 12.6255 39.3182 4.02845
12283 2 2.75411 43.2779 2.73101
12289 2 11.0927 43.2144 -0.157941
12345 2 11.2888 26.4441 10.8056
12373 2 11.2136 34.8557 13.9049
12287 2 8.42028 43.265 2.65049
12288 2 5.61499 46.0084 2.70276
12366 2 8.40425 26.2082 13.7588
12290 2 11.1761 46.1033 2.54977
12350 2 11.3114 31.9328 11.0122
12292 2 2.89462 48.8525 2.59139
12352 2 2.83036 40.3278 11.156
12294 2 8.56546 48.9753 2.68477
12364 2 2.55006 26.4272 14.0794
12357 2 2.93761 45.9341 11.1481
12297 2 2.73632 28.9018 5.30835
12298 2 2.64796 26.4971 8.28287
12299 1 1.36606 33.411 6.94055
12300 2 5.41389 26.2489 5.53508
12301 2 8.31432 29.0797 5.45278
12302 2 8.26011 26.2941 8.39104
12303 2 5.40803 29.2097 8.2974
12304 2 11.1691 26.2174 5.54949
12305 2 11.2167 29.2674 8.10723
1105 1 7.14375 50.3853 12.7587
12307 2 2.84268 34.8617 5.52457
12308 2 2.802 32.1337 8.33386
12355 2 11.2325 37.5434 11.1772
12310 2 5.49735 31.9424 5.30619
12311 2 8.58082 34.8852 5.49834
12312 2 8.3742 31.829 8.27698
12313 2 5.55137 34.7217 8.31459
12314 2 11.2675 32.0043 5.34501
12315 2 11.317 34.9874 8.17683
12354 2 8.5123 40.4831 11.1836
12317 2 2.80389 40.4743 5.43671
12318 2 2.8015 37.6171 8.25428
6571 1 12.6678 33.5342 4.00977
12320 2 8.48567 37.71 8.30344
12321 2 8.3679 40.5392 5.4777
12322 1 9.78248 42.0959 6.56684