ITEM: TIMESTEP
0
ITEM: NUMBER OF ATOMS
18000
ITEM: BOX BOUNDS xy xz yz pp pp pp
-6.8363747534825756e-02 2.7962363747534841e+01 0.0000000000000000e+00
-5.5056627236601574e-01 3.3527856627236588e+02 0.0000000000000000e+00
-6.9779549869512542e-02 2.7963779549869493e+01 0.0000000000000000e+00
ITEM: ATOMS id type x y z
1 1 1.32475 0.863179 1.32415
2 1 4.12317 0.869132 1.31739
3 1 4.11128 0.877774 4.12097
4 1 1.32234 0.864611 4.12926
5 1 1.33396 3.67297 1.32253
6 1 4.12208 3.67336 1.31652
7 1 4.12631 3.67488 4.1308
8 1 1.32795 3.66978 4.12903
9 1 6.92009 0.877855 1.30274
10 1 9.74252 0.867195 1.31229
11 1 9.729 0.952113 4.12088
12 1 6.93657 0.952625 4.14072
13 1 6.92923 3.66975 1.32448
14 1 9.72528 3.66907 1.31123
15 1 9.72992 3.68895 4.13482
16 1 6.92087 3.69771 4.1201
17 1 12.548 0.854509 1.30739
18 1 12.5514 0.860829 4.12254
19 1 12.5306 3.64507 1.32225
20 1 12.536 3.66027 4.12086
21 1 1.32922 6.48201 1.32043
22 1 4.13045 6.47251 1.31818
23 1 4.12317 6.47591 4.12155
24 1 1.33735 6.47315 4.12859
25 1 1.33649 9.30052 1.31874
26 1 4.1264 9.2684 1.28443
27 1 4.14214 9.25561 4.13606
28 1 1.3175 9.25774 4.10857
29 1 6.91616 6.47338 1.31218
30 1 9.70303 6.45877 1.32996
31 1 9.70296 6.47508 4.12533
32 1 6.92221 6.47294 4.13615
33 1 6.91473 9.26298 1.32464
34 1 9.69719 9.27152 1.31602
35 1 9.6967 9.26983 4.14452
36 1 6.91702 9.2751 4.12264
37 1 12.4482 6.46858 1.31754
38 1 12.4515 6.46839 4.14163
39 1 12.4376 9.25616 1.34053
40 1 12.4402 9.26284 4.1217
41 1 1.31313 12.0965 1.3392
42 1 4.09864 12.0664 1.32769
43 1 4.14138 12.0851 4.11006
44 1 1.49689 11.9084 4.28765
45 1 0.800025 14.8774 1.3287
46 1 3.99773 14.868 1.31852
47 1 4.10203 14.8607 4.13049
48 1 1.30285 14.8346 4.09418
49 1 6.9094 12.0697 1.3215
50 1 9.71092 12.0653 1.34183
51 1 9.72206 12.0748 4.13623
52 1 6.9217 12.0651 4.13979
53 1 6.88646 14.8645 1.34607
54 1 9.72029 14.8635 1.35982
55 1 9.71776 14.8671 4.1521
56 1 6.91398 14.8717 4.13291
57 1 12.5267 12.0715 1.32889
58 1 12.5029 12.0642 4.14564
59 1 12.5211 14.8689 1.36234
60 1 12.5152 14.8789 4.15892
61 1 1.3124 17.6546 1.2934
62 1 4.09622 17.6596 1.33566
63 1 4.1189 17.669 4.13039
64 1 1.31418 17.6418 4.10938
65 1 1.32558 20.4388 1.32828
66 1 4.12562 20.471 1.33659
67 1 4.12828 20.4585 4.12811
68 1 1.32898 20.4532 4.12693
69 1 6.90557 17.6699 1.33964
70 1 9.69305 17.6763 1.37276
71 1 9.71185 17.6727 4.14814
72 1 6.91879 17.665 4.14118
73 1 6.91637 20.4734 1.3392
74 1 9.70348 20.4857 1.33893
75 1 9.70767 20.4773 4.15024
76 1 6.92315 20.4723 4.13772
77 1 12.4614 17.6765 1.35771
78 1 12.4511 17.6804 4.16169
79 1 12.448 20.4871 1.37127
80 1 12.4491 20.4737 4.13263
81 1 1.3274 23.2556 1.33008
82 1 4.13297 23.2648 1.32665
83 1 4.12931 23.2621 4.13405
84 1 1.33728 23.249 4.12255
85 1 6.92725 23.2796 1.33687
86 1 9.72787 23.2969 1.33663
87 1 9.72762 23.2823 4.14225
88 1 6.93843 23.269 4.12951
89 1 12.5264 23.3261 1.32779
90 1 12.5324 23.2994 4.15524
91 1 1.32193 0.864016 6.93953
92 1 4.11344 0.874777 6.94726
93 1 4.11999 0.868151 9.75504
94 1 1.32925 0.859271 9.74667
95 1 1.33161 3.66614 6.93751
96 1 4.12363 3.67556 6.93769
97 1 4.12638 3.66769 9.75099
98 1 1.33204 3.66485 9.74712
99 1 6.93037 0.953942 6.92754
100 1 9.72541 0.94835 6.94248
101 1 9.71018 0.86901 9.75155
102 1 6.9131 0.877739 9.76734
103 1 6.92349 3.6957 6.94738
104 1 9.73299 3.69579 6.934
105 1 9.72278 3.67743 9.75626
106 1 6.92662 3.67413 9.74909
107 1 12.542 0.866194 6.92145
108 1 12.4573 0.864859 9.76535
109 1 12.5285 3.6688 6.94285
110 1 12.5303 3.6772 9.73968
111 1 1.32967 6.46997 6.93585
112 1 4.13026 6.46967 6.94071
113 1 4.13013 6.46911 9.74886
114 1 1.3358 6.46155 9.7453
115 1 1.34468 9.25496 6.94449
116 1 4.12648 9.27222 6.93375
117 1 4.13512 9.2633 9.7502
118 1 1.33159 9.26373 9.74408
119 1 6.92499 6.47879 6.93622
120 1 9.72297 6.47638 6.94879
121 1 9.73268 6.47352 9.74634
122 1 6.92774 6.47176 9.7525
123 1 6.92788 9.2691 6.94399
124 1 9.7245 9.27511 6.94155
125 1 9.7318 9.27278 9.75165
126 1 6.93047 9.27005 9.74815
127 1 12.5328 6.47279 6.94473
128 1 12.5295 6.47943 9.7582
129 1 12.5188 9.2814 6.96117
130 1 12.537 9.27706 9.75492
131 1 1.31677 12.0817 6.94469
132 1 4.14786 12.0559 6.94859
133 1 4.13288 12.067 9.74348
134 1 1.34728 12.0517 9.72971
135 1 1.33644 14.8591 6.89466
136 1 4.1323 14.8738 6.9341
137 1 4.14584 14.8592 9.73202
138 1 1.33978 14.8608 9.71477
139 1 6.92833 12.0736 6.9365
140 1 9.72919 12.0712 6.94637
141 1 9.73481 12.0714 9.74637
142 1 6.93765 12.065 9.74607
143 1 6.93313 14.8641 6.93938
144 1 9.74336 14.8753 6.94409
145 1 9.74288 14.8693 9.7406
146 1 6.93946 14.8679 9.74097
147 1 12.5305 12.0766 6.95746
148 1 12.5404 12.0781 9.74787
149 1 12.5564 14.8708 6.94901
150 1 12.5473 14.8738 9.74685
151 1 1.32833 17.6652 6.91363
152 1 4.13274 17.6587 6.92763
153 1 4.14344 17.6649 9.73409
154 1 1.35146 17.664 9.71164
155 1 1.33219 20.4492 6.92159
156 1 4.13372 20.4616 6.93316
157 1 4.14229 20.4606 9.73142
158 1 1.34131 20.4605 9.72639
159 1 6.9363 17.6698 6.93808
160 1 9.75406 17.6677 6.94445
161 1 9.752 17.6708 9.74025
162 1 6.9452 17.6647 9.73587
163 1 6.93849 20.4645 6.93516
164 1 9.74286 20.4735 6.9458
165 1 9.74782 20.4691 9.73774
166 1 6.94301 20.4663 9.74109
167 1 12.6539 17.6835 6.96335
168 1 12.5671 17.6739 9.73743
169 1 12.5489 20.4715 6.95481
170 1 12.5373 20.4652 9.73848
171 1 1.33476 23.2266 6.92994
172 1 4.14281 23.2532 6.92704
173 1 4.14323 23.2551 9.74278
174 1 1.33615 23.2306 9.73575
175 1 6.93717 23.2659 6.9416
176 1 9.74671 23.2707 6.93778
177 1 9.74632 23.2683 9.74552
178 1 6.94461 23.2651 9.73406
179 1 12.5359 23.2845 6.94899
180 1 12.543 23.2741 9.7406
181 1 1.33407 0.859683 12.5543
182 1 4.12483 0.861155 12.5576
183 1 1.33223 3.65919 12.5511
184 1 4.13259 3.66517 12.5563
185 1 6.9236 0.861086 12.5609
186 1 9.70213 0.869411 12.5702
187 1 6.92287 3.66902 12.5601
188 1 9.72731 3.66675 12.5531
189 1 12.4473 0.846472 12.5459
190 1 12.5206 3.68172 12.5679
191 1 1.33755 6.46136 12.5565
192 1 4.1296 6.46521 12.5638
193 1 1.34073 9.25041 12.5564
194 1 4.13535 9.26319 12.5796
195 1 6.93275 6.46573 12.554
196 1 9.72921 6.47292 12.5589
197 1 6.93169 9.26744 12.563
198 1 9.73331 9.26652 12.5522
199 1 12.5371 6.47485 12.5543
200 1 12.5383 9.27457 12.555
201 1 1.34293 12.05 12.5484
202 1 4.14441 12.0566 12.5551
203 1 1.42587 14.8617 12.536
204 1 4.16425 14.8584 12.5469
205 1 6.93592 12.0619 12.5515
206 1 9.7395 12.0679 12.546
207 1 6.94736 14.8639 12.5408
208 1 9.73805 14.8655 12.5381
209 1 12.536 12.0693 12.5476
210 1 12.5469 14.8718 12.5338
211 1 1.43193 17.656 12.5525
212 1 4.16991 17.6653 12.5348
213 1 1.3508 20.4734 12.5325
214 1 4.14891 20.4656 12.5445
215 1 6.94724 17.665 12.5415
216 1 9.74708 17.6702 12.5319
217 1 6.94544 20.4682 12.5377
218 1 9.74574 20.4696 12.5406
219 1 12.5348 17.6636 12.5432
220 1 12.5434 20.474 12.5421
221 1 1.34348 23.2632 12.5469
222 1 4.13959 23.2647 12.5405
223 1 6.94632 23.2653 12.5477
224 1 9.74573 23.2703 12.5374
225 1 12.55 23.2739 12.5441
15116 2 13.882 18.9828 11.2095
12002 2 2.74576 2.20152 -0.03811
15121 2 13.9353 24.5574 11.1375
12149 2 5.51992 24.5715 13.9367
15111 2 13.9369 13.3741 11.1552
12006 2 8.37016 2.20404 -0.0278883
15092 2 13.8841 21.8305 8.32008
12008 2 5.57045 2.19246 2.76129
15082 2 13.9324 16.1537 8.33377
12010 2 11.1712 2.21427 2.76559
12125 2 11.1324 21.7706 11.1476
12012 2 2.75251 7.78159 -0.0472546
12013 2 2.74924 4.99468 2.75474
12124 2 8.31922 24.5718 11.1443
12015 2 5.57182 4.99138 -0.0340504
12016 2 8.39466 7.80074 -0.0410811
12017 2 8.3797 4.9992 2.75282
12018 2 5.57962 7.78463 2.75231
12019 2 11.1917 5.01901 -0.0343749
12020 2 11.1802 7.80203 2.74008
12113 2 5.54482 10.6058 11.1403
12104 2 8.37085 2.19802 11.1096
12023 2 2.82153 10.5246 2.76068
12024 2 0.239292 13.0962 3.05144
12025 2 5.59174 10.5985 -0.0564499
12107 2 2.73227 7.80711 11.1364
12027 2 8.38632 10.5979 2.73815
12028 2 5.58605 13.3938 2.74525
12029 2 11.2042 10.6134 -0.0611572
12030 2 11.1876 13.3918 2.71499
12102 2 2.74337 2.21438 11.126
12114 2 8.34977 13.3968 11.1464
12033 2 2.7804 16.2373 2.77986
12034 2 -0.0371117 19.0298 2.77553
12100 2 11.126 24.5641 8.35276
12099 2 11.1476 21.7627 5.52598
12037 2 8.37709 16.1906 2.72546
12038 2 5.56769 18.9965 2.74174
12098 2 5.50612 24.5909 8.35172
12040 2 11.1497 18.9778 2.71516
12097 2 8.33227 21.7762 8.3446
12042 2 2.72929 24.5749 -0.0596829
12043 2 2.74121 21.8022 2.7535
12123 2 5.5226 21.781 11.1475
12096 2 8.32296 24.5588 5.55528
12095 2 5.53527 21.7853 5.55129
12047 2 8.34895 21.7635 2.73438
12048 2 5.51854 24.5608 2.75236
12115 2 11.1591 10.5911 11.1353
12050 2 11.1477 24.5226 2.74529
15071 2 13.9008 13.3059 5.49268
12052 2 2.76143 2.20046 5.54493
12112 2 2.71114 13.4135 11.1632
12122 2 2.71015 24.5953 11.1324
12110 2 11.1806 4.98513 11.1194
12056 2 8.37137 2.20619 5.54342
12109 2 8.3654 7.7965 11.1272
12058 2 5.56864 2.19335 8.3254
12108 2 5.55618 5.00129 11.1245
12060 2 11.1775 2.1846 8.32661
12120 2 11.1374 16.1805 11.1528
12062 2 2.75073 7.78707 5.55567
12063 2 2.74495 5.0013 8.33908
12119 2 8.33731 18.9817 11.1493
12065 2 5.56462 4.99437 5.54466
12066 2 8.37508 7.79281 5.53804
12067 2 8.37148 4.99342 8.32868
12068 2 5.55659 7.79622 8.33969
12069 2 11.1898 5.00463 5.52941
12070 2 11.1785 7.78706 8.31766
12071 2 -0.0618019 10.5254 5.62706
12072 2 2.81908 13.3902 5.63219
12073 2 2.74222 10.5958 8.36229
12118 2 5.53429 16.1963 11.1544
12075 2 5.56965 10.5892 5.55195
12076 2 8.36869 13.3894 5.53479
12077 2 8.36151 10.5907 8.33681
12078 2 5.55704 13.3962 8.36261
12079 2 11.1722 10.574 5.52136
12080 2 11.1458 13.3799 8.33551
12081 2 -0.0320827 16.2348 5.5916
12082 2 2.74977 19.0092 5.56848
12083 2 2.73222 16.2011 8.38423
12117 2 2.71287 18.9843 11.1618
12085 2 5.56523 16.1986 5.5545
12086 2 8.35316 18.9822 5.53485
12087 2 8.34915 16.1878 8.34263
12088 2 5.53694 18.989 8.35403
12089 2 11.1616 16.1854 5.5106
12090 2 11.1485 18.9764 8.32526
12091 2 -0.0645128 21.8112 5.56738
12092 2 2.71522 24.6002 5.57057
12093 2 2.72507 21.7947 8.35758
12129 2 5.55624 2.20388 13.9117
12130 2 11.1827 2.20637 13.9106
12131 2 2.72899 5.003 13.9149
12133 2 8.37119 4.99872 13.9158
12134 2 5.55218 7.80626 13.9165
12135 2 11.1766 7.80125 13.9236
12136 2 2.71148 10.6309 13.925
12138 2 8.36511 10.6146 13.9297
12139 2 5.54292 13.4196 13.935
12141 2 2.72208 16.2124 13.9377
12146 2 2.71406 21.7675 13.9397
15032 2 13.9343 16.2331 2.65131
12147 2 -0.068271 24.5802 13.9188
226 1 4.13352 0.86211 15.3588
227 1 1.33204 0.857889 15.3546
228 1 4.12155 3.65895 15.3535
229 1 1.33965 3.66415 15.3607
230 1 9.72788 0.857746 15.3622
231 1 6.92444 0.862918 15.3647
232 1 9.72694 3.66796 15.3648
233 1 6.93907 3.65061 15.3447
234 1 12.5232 0.865627 15.3765
235 1 12.5326 3.66795 15.3636
236 1 4.14055 6.46584 15.3838
237 1 1.32895 6.45144 15.3562
238 1 4.13082 9.26192 15.4805
239 1 1.34661 9.25551 15.3857
240 1 9.74507 6.45555 15.3415
241 1 6.91665 6.4799 15.3432
242 1 9.73795 9.2713 15.3515
243 1 6.93084 9.25653 15.3783
244 1 12.535 6.47039 15.3611
245 1 12.533 9.2647 15.3529
246 1 4.1423 12.0509 15.3819
247 1 1.36152 12.0317 15.3463
248 1 4.16885 14.861 15.3505
249 1 1.41608 14.8761 15.3444
250 1 9.72868 12.0565 15.3444
251 1 6.93933 12.0644 15.3545
252 1 9.74151 14.8626 15.316
253 1 6.93726 14.855 15.3447
254 1 12.5435 12.0632 15.342
255 1 12.5346 14.8633 15.318
256 1 4.16708 17.6613 15.3564
257 1 1.43111 17.656 15.3397
258 1 4.14462 20.4696 15.3471
259 1 1.35506 20.4774 15.3603
260 1 9.73271 17.6681 15.315
261 1 6.94447 17.6678 15.3382
262 1 9.7435 20.4758 15.3329
263 1 6.94157 20.4679 15.3454
264 1 12.5519 17.6746 15.3103
265 1 12.5432 20.4766 15.3326
266 1 4.14387 23.2669 15.3542
267 1 1.33387 23.2746 15.352
268 1 9.744 23.272 15.3471
269 1 6.94004 23.2721 15.3437
270 1 12.5485 23.2788 15.3383
271 1 1.33713 0.864122 18.1591
272 1 4.1297 0.872638 18.1593
273 1 4.13281 0.890027 20.9538
274 1 1.33472 0.873131 20.9538
275 1 1.32776 3.66326 18.1507
276 1 4.13888 3.69079 18.1605
277 1 4.13132 3.79334 20.958
278 1 1.34022 3.69207 20.9619
279 1 6.9335 0.861808 18.1561
280 1 9.73165 0.860124 18.1641
281 1 9.73429 0.859302 20.952
282 1 6.93157 0.871672 20.9578
283 1 6.91566 3.64916 18.1741
284 1 9.74429 3.64805 18.1488
285 1 9.73847 3.65276 20.9662
286 1 6.92698 3.68881 20.9468
287 1 12.5382 0.855713 18.1649
288 1 12.5408 0.854051 20.9611
289 1 12.5356 3.66202 18.1641
290 1 12.5353 3.65601 20.9519
291 1 1.35676 6.47535 18.1769
292 1 4.15496 6.48838 18.1799
293 1 4.12681 6.9907 20.9574
294 1 1.34773 6.48633 20.9762
295 1 1.34775 9.27293 18.1767
296 1 4.13492 9.26807 18.6892
297 2 4.14995 9.22906 20.9557
298 1 1.86555 9.27675 20.9754
299 1 7.0912 6.30022 17.9938
300 1 9.74673 6.47423 18.1712
301 1 9.70251 6.45422 20.9445
302 1 6.90797 6.48129 20.9383
303 1 6.90474 9.23082 18.1783
304 1 9.70202 9.24833 18.1505
305 1 9.59934 9.22569 20.9497
306 1 6.39288 9.25935 20.9521
307 1 12.5335 6.45786 18.1529
308 1 12.5269 6.45043 20.9533
309 1 12.5294 9.2544 18.1511
310 1 12.5094 9.22727 20.9468
311 1 1.20108 12.1945 18.0257
312 1 4.1042 12.0456 18.1799
313 1 4.1103 11.5345 20.972
314 1 1.35124 12.0411 20.9342
315 1 1.35486 14.8688 18.1879
316 1 4.13429 14.829 18.1632
317 1 4.10247 14.7442 20.9575
318 1 1.33453 14.8305 20.9824
319 1 6.91067 12.0304 18.1571
320 1 9.72898 12.0498 18.1357
321 1 9.70603 11.954 20.9674
322 1 6.8904 12.0303 20.9622
323 1 6.92771 14.858 18.1381
324 1 9.72662 14.8638 18.0544
325 1 9.49352 14.5853 20.6703
326 1 6.84032 14.8339 20.96
327 1 12.5303 12.05 18.1424
328 1 12.5238 11.9585 20.947
329 1 12.5476 14.8643 18.0622
330 1 12.7898 14.5912 20.7235
331 1 1.35042 17.6649 18.1778
332 1 4.13478 17.6583 18.1586
333 1 4.10151 17.6342 20.9583
334 1 1.32728 17.6555 20.9774
335 1 1.33868 20.4733 18.1674
336 1 4.13702 20.4648 18.1572
337 1 4.12117 20.4677 20.9618
338 1 1.33255 20.4638 20.969
339 1 6.91987 17.6628 18.136
340 1 9.75211 17.6609 18.0503
341 1 9.43939 17.9329 20.6534
342 1 6.83523 17.6557 20.9656
343 1 6.92804 20.4768 18.1424
344 1 9.72859 20.4844 18.1293
345 1 9.73872 20.5595 20.9576
346 1 6.91445 20.4808 20.9463
347 1 12.5237 17.6645 18.0507
348 1 12.8392 17.9221 20.663
349 1 12.5559 20.4894 18.1247
350 1 12.5366 20.5576 20.9503
351 1 1.33957 23.2714 18.1617
352 1 4.13292 23.2723 18.1547
353 1 4.13404 23.271 20.9609
354 1 1.32941 23.2708 20.9633
355 1 6.93875 23.2736 18.1526
356 1 9.73973 23.2844 18.143
357 1 9.73723 23.306 20.9515
358 1 6.92789 23.2828 20.9554
359 1 12.5458 23.2847 18.1448
360 1 12.5465 23.3093 20.9456
361 1 1.33131 0.864639 23.7558
362 1 4.13387 0.874461 23.7517
363 1 4.12499 0.866407 26.548
364 1 1.33268 0.865131 26.5529
365 1 1.34765 3.65477 23.7407
366 1 4.12515 3.69407 23.7465
367 1 4.14003 3.6629 26.5603
368 1 1.32487 3.65862 26.5657
369 1 6.92939 0.865269 23.7454
370 1 9.73782 0.855724 23.753
371 1 9.73414 0.860711 26.5403
372 1 6.93403 0.861898 26.5473
373 1 6.93829 3.66189 23.7621
374 1 9.72759 3.66045 23.7447
375 1 9.73441 3.65495 26.5563
376 1 6.92289 3.66912 26.5432
377 1 12.5401 0.853592 23.7497
378 1 12.5437 0.850065 26.5507
379 1 12.54 3.65138 23.7541
380 1 12.5314 3.64998 26.5414
381 1 1.18311 6.31475 23.9101
382 1 4.111 6.48876 23.7425
383 1 4.12061 6.4753 26.5235
384 1 1.34542 6.48964 26.5712
385 1 1.35368 9.23225 23.7384
386 1 4.10925 9.28202 23.2331
387 1 4.12812 9.26574 26.4433
388 1 1.33895 9.27264 26.5262
389 1 6.90933 6.47531 23.7306
390 1 9.72925 6.44212 23.7621
391 1 9.71812 6.4623 26.542
392 1 6.93231 6.45476 26.5596
393 1 6.90018 9.26865 23.7461
394 1 9.69747 9.23181 23.7479
395 1 9.7219 9.2438 26.5657
396 1 6.91417 9.26835 26.5235
397 1 12.529 6.45047 23.7416
398 1 12.5268 6.44825 26.5464
399 1 12.5226 9.22608 23.7451
400 1 12.5222 9.26133 26.5408
401 1 1.35262 12.0409 23.7502
402 1 4.16001 12.0381 23.7408
403 1 4.11893 12.057 26.5242
404 1 1.31663 12.076 26.5686
405 1 1.31981 14.8549 23.7918
406 1 4.10286 14.8216 23.7535
407 1 4.08933 14.865 26.5746
408 1 1.32333 14.8764 26.5668
409 1 7.06594 12.1965 23.9097
410 1 9.73633 11.9475 23.7335
411 1 9.73282 12.0538 26.5754
412 1 6.89465 12.045 26.5886
413 1 6.82802 14.8803 23.7546
414 1 9.51397 14.5912 24.038
415 1 9.71587 14.8766 26.6621
416 1 6.90751 14.8682 26.5821
417 1 12.5355 11.964 23.7551
418 1 12.5224 12.0615 26.5574
419 1 12.7853 14.6115 23.9901
420 1 12.5424 14.8596 26.645
421 1 1.31402 17.6446 23.7571
422 1 4.10272 17.6627 23.7608
423 1 4.12801 17.6499 26.5775
424 1 1.45734 17.8 26.4343
425 1 1.32733 20.4719 23.7615
426 1 4.11837 20.466 23.7647
427 1 4.12857 20.4755 26.5664
428 1 1.31785 20.4788 26.5765
429 1 6.83408 17.6554 23.7471
430 1 9.44563 17.9429 24.0598
431 1 9.73963 17.6573 26.6578
432 1 6.89964 17.6771 26.5859
433 1 6.90736 20.4875 23.7727
434 1 9.73613 20.562 23.7498
435 1 9.71214 20.4961 26.5868
436 1 6.91507 20.4795 26.5727
437 1 12.8309 17.9028 24.0388
438 1 12.5263 17.6827 26.6642
439 1 12.5382 20.5601 23.7501
440 1 12.5359 20.4972 26.565
441 1 1.33073 23.268 23.7653
442 1 4.12721 23.2727 23.7629
443 1 4.12787 23.2724 26.5669
444 1 1.33204 23.2649 26.5628
445 1 6.92984 23.2847 23.763
446 1 9.7277 23.3097 23.7612
447 1 9.73352 23.2961 26.5683
448 1 6.92637 23.2799 26.5648
449 1 12.5479 23.3135 23.7578
450 1 12.5326 23.3112 26.5636
15232 2 13.9071 16.1944 25.1266
12250 2 11.1401 24.5184 25.1446
12045 2 5.55731 21.7823 27.9621
15146 2 13.9392 21.7636 13.9609
15141 2 13.9376 16.1791 13.9766
12227 2 8.46186 10.6395 25.2274
12249 2 11.1494 21.7388 22.3555
12226 2 8.52254 13.5357 22.3689
12225 2 5.88673 10.938 22.6504
12224 2 -0.0437217 13.3783 25.1244
12223 2 2.73587 10.6268 25.1654
12248 2 5.53626 24.5544 25.1526
12222 2 2.72921 13.4346 22.3572
12228 2 5.60712 13.4927 25.2179
12140 2 11.1528 13.3998 13.9577
12220 2 11.1994 7.81442 25.1954
12247 2 8.35942 21.7355 25.1475
12143 2 8.34612 16.1951 13.9569
12144 2 5.53087 18.9838 13.9503
12145 2 11.1329 18.975 13.9697
12219 2 11.1846 5.01053 22.3754
12246 2 8.33898 24.5403 22.3455
12148 2 8.33169 21.7686 13.9513
12218 2 5.61135 7.76708 25.2108
12150 2 11.1228 24.5515 13.9485
12245 2 5.55792 21.757 22.3467
12152 2 2.73098 2.20455 16.7236
12049 2 11.1653 21.7273 27.9526
12243 2 2.74612 21.7852 25.1487
15231 2 13.8993 18.8882 22.3657
12156 2 8.3704 2.20868 16.7235
15221 2 13.8923 13.4613 22.3722
12158 2 5.5576 2.20296 19.5413
15192 2 13.9379 21.7278 19.5655
12160 2 11.1767 2.21175 19.5434
12242 2 2.73539 24.5637 22.3444
12162 2 2.69023 7.7759 16.6928
12163 2 2.69398 4.97383 19.5014
12240 2 11.1716 18.8923 25.1193
12165 2 5.56229 4.94025 16.661
12166 2 8.43855 7.80657 16.6663
12167 2 8.43765 4.94315 19.5379
12168 2 5.8634 7.51389 19.2401
12169 2 11.176 5.0054 16.729
12170 2 11.1818 7.81626 19.5535
12239 1 11.0731 16.3634 22.3345
12172 2 2.70892 13.496 16.6582
12173 2 2.43359 10.9257 19.237
12238 2 5.58541 18.9868 25.1415
12175 2 5.58775 10.6596 16.7057
12176 2 8.37952 13.4338 16.7546
12177 2 8.41393 10.6764 19.5176
12178 2 5.61431 13.4651 19.51
12179 2 11.1756 10.6289 16.7559
12180 2 11.1755 13.4687 19.6203
12237 2 8.44775 16.2091 25.1093
12182 2 2.71627 18.9801 16.7331
12183 2 2.732 16.2193 19.522
12236 2 8.41933 18.9127 22.3553
12185 2 5.55629 16.2145 16.7476
12186 2 8.35134 18.9727 16.771
12187 2 8.42675 16.214 19.5977
12188 2 5.56511 18.98 19.55
12189 2 11.1514 16.1937 16.7697
12190 2 11.1513 18.8995 19.6151
12235 2 5.58252 16.2196 22.3381
12192 2 2.7264 24.5675 16.7303
12193 2 2.73664 21.7714 19.5374
12234 2 -0.0647442 19.0684 25.0773
12195 2 5.5334 21.7684 16.7445
12196 2 8.33113 24.5566 16.7461
12197 2 8.35096 21.7399 19.5578
12198 2 5.53564 24.5574 19.5413
12199 2 11.1394 21.7472 16.768
12200 2 11.1381 24.5391 19.5497
12233 2 2.81869 16.2247 25.0866
12202 2 2.73392 2.2027 22.366
15191 2 13.9365 24.5427 16.7579
12232 2 2.75071 18.9961 22.3328
15182 2 13.8941 16.1891 19.6288
12206 2 8.37283 2.2054 22.3716
15181 2 13.9379 18.962 16.7816
12208 2 5.56317 2.19936 25.1908
15171 2 13.9421 13.4095 16.7839
12210 2 11.1664 2.22328 25.1881
12230 2 11.1863 13.4626 25.1107
12212 2 2.43322 7.50932 22.6566
12213 2 2.73205 4.93593 25.2409
12229 2 11.1835 10.6282 22.3717
12215 2 5.60025 4.97111 22.4046
12216 2 8.41673 7.77563 22.4077
12217 2 8.38964 4.99596 25.1982
12021 2 -0.0396219 10.5672 27.9405
12022 2 2.79061 13.3682 27.9331
12026 2 8.40114 13.4139 27.9513
12031 2 0.235957 16.5102 27.6614
12032 2 2.82076 19.0677 27.9568
12035 2 5.59338 16.2139 27.9568
12036 2 8.37655 18.9725 27.9435
12039 2 11.1808 16.1972 27.9509
12046 2 8.33166 24.5344 27.959
451 1 1.34342 26.0678 1.31766
452 1 4.13275 26.0744 1.33183
453 1 4.15362 26.058 4.11549
454 1 1.32975 26.0498 4.1216
455 1 6.9368 26.0708 1.31569
456 1 9.73686 26.1162 1.34071
457 1 9.76374 26.0597 4.11533
458 1 6.9221 26.0561 4.14592
459 1 12.542 26.2277 1.33677
460 1 12.5302 26.1147 4.13529
461 1 1.33032 28.8965 1.29985
462 1 4.16326 28.8861 1.31127
463 1 4.14176 28.8626 4.12307
464 1 1.36359 28.8832 4.03742
465 1 1.36752 31.8125 1.28458
466 1 4.16031 31.6986 1.31689
467 1 4.2012 31.6763 4.10869
468 1 1.30075 31.6898 4.02949
469 1 6.96289 28.8817 1.33785
470 1 9.76864 28.9138 1.33914
471 1 9.56871 28.7006 4.30406
472 1 6.94505 28.8797 4.10573
473 1 7.0899 31.679 1.31112
474 1 10.2784 31.6943 1.32492
475 1 9.78871 31.6227 4.08331
476 1 6.97068 31.6531 4.11555
477 1 12.5391 29.3849 1.32034
478 1 12.5404 28.9062 4.11248
479 2 12.5581 31.5738 1.35986
480 1 12.533 31.6889 3.59213
481 1 1.33827 34.9831 1.29829
482 1 4.15775 34.4968 1.29614
483 1 4.12528 34.469 4.09043
484 1 1.37624 34.5281 4.06737
485 2 1.32297 37.1799 1.36721
486 1 3.60758 37.2898 1.29181
487 1 4.13082 37.2565 4.09266
488 1 1.3129 37.3074 3.58856
489 1 6.93915 34.4582 1.31521
490 1 9.75948 34.4688 1.27556
491 1 9.75761 34.4216 4.09123
492 1 6.96903 34.4486 4.11874
493 1 6.83149 37.2548 1.29478
494 1 9.71719 37.2274 1.2897
495 1 9.74243 37.2604 4.03172
496 1 6.90601 37.2687 4.02851
497 1 12.5533 33.9689 1.29433
498 1 12.5855 34.4448 4.08455
499 1 12.541 37.1506 1.28368
500 1 12.5513 37.2324 4.0906
501 1 1.33184 39.5507 1.31565
502 1 4.11023 40.0404 1.36147
503 1 4.25657 40.2193 4.24485
504 1 1.36399 40.0597 4.09603
505 1 1.3286 42.739 1.32614
506 1 4.12911 42.8288 1.32208
507 1 4.11461 42.8837 4.10875
508 1 1.32724 42.8387 4.11739
509 1 6.90345 40.0422 1.29238
510 1 9.74541 40.0497 1.26464
511 1 9.72777 40.0477 4.01563
512 1 6.96127 40.0451 4.01573
513 1 6.92902 42.854 1.32683
514 1 9.75834 42.8354 1.33773
515 1 9.75181 42.8714 4.10445
516 1 6.93862 42.88 4.10969
517 1 12.5419 40.0297 1.18928
518 1 12.5669 40.0576 4.07256
519 1 12.5486 42.8444 1.29447
520 1 12.5547 42.8598 4.10677
521 1 1.33086 45.6262 1.32912
522 1 4.1279 45.6397 1.33496
523 1 4.13181 45.6568 4.13016
524 1 1.32861 45.6436 4.12819
525 1 1.33231 48.4398 1.33014
526 1 4.131 48.4495 1.33969
527 1 4.1328 48.4479 4.13391
528 1 1.3318 48.4438 4.13552
529 1 6.9414 45.6459 1.35419
530 1 9.74081 45.6557 1.36265
531 1 9.74815 45.6668 4.13236
532 1 6.9351 45.6634 4.13191
533 1 6.93119 48.4489 1.36271
534 1 9.75437 48.4539 1.36282
535 1 9.73984 48.4692 4.14208
536 1 6.94297 48.4607 4.1439
537 1 12.5564 45.65 1.33633
538 1 12.5483 45.6596 4.12708
539 1 12.546 48.4494 1.33982
540 1 12.5516 48.4578 4.135
541 1 1.33381 25.9527 6.93398
542 1 4.14421 26.0477 6.93874
543 1 4.14861 26.0511 9.73386
544 1 1.33528 25.9585 9.73847
545 1 6.95541 26.0608 6.92598
546 1 9.73524 26.0553 6.95481
547 1 9.75174 26.0644 9.73414
548 1 6.95074 26.0581 9.74835
549 1 12.5586 26.0638 6.94696
550 1 12.5506 26.0734 9.74332
551 1 1.5701 28.5692 6.70016
552 1 4.23611 28.8691 6.91881
553 1 4.22689 28.8593 9.75268
554 1 1.56675 28.5913 9.97827
555 1 1.68636 31.9326 6.63759
556 1 4.24169 31.6421 6.94243
557 1 4.24115 31.6529 9.72863
558 1 1.63426 31.9125 10.0424
559 1 6.95435 28.8401 6.95294
560 1 9.77177 28.8698 6.94514
561 1 9.75697 28.8549 9.74516
562 1 6.97822 28.8537 9.73436
563 1 6.98134 31.6395 6.92681
564 1 9.75287 31.6251 6.89987
565 1 9.76543 31.6276 9.72831
566 1 6.979 31.6296 9.74401
567 1 12.536 28.8699 6.9106
568 1 12.5472 28.8554 9.724
569 1 12.5325 31.6498 6.80126
570 1 12.5452 31.6528 9.72554
571 1 1.30717 34.5504 6.89802
572 1 4.17649 34.4587 6.93191
573 1 4.15261 34.468 9.73103
574 1 1.34126 34.5453 9.73197
575 1 1.33054 37.2925 6.80209
576 1 4.0389 37.2879 6.87914
577 1 4.05531 37.2663 9.7444
578 1 1.30442 37.2922 9.70739
579 1 6.95882 34.3507 6.91841
580 1 9.73709 34.3566 6.92984
581 1 9.74616 34.3557 9.72984
582 1 6.95633 34.3598 9.7422
583 1 6.69376 36.9533 6.71464
584 1 9.99484 36.9664 6.67801
585 1 9.96982 36.9844 9.98739
586 1 6.71196 36.9965 9.965
587 1 12.5198 34.4431 6.89154
588 1 12.5153 34.4361 9.74022
589 1 12.626 37.2716 6.92162
590 1 12.6167 37.2697 9.74454
591 1 1.29329 40.0736 6.88977
592 1 4.02816 40.0425 6.95105
593 1 4.03618 40.0629 9.7138
594 1 1.30265 40.0722 9.73595
595 1 1.31934 42.8671 6.93155
596 1 4.11447 42.8849 6.9267
597 1 4.11579 42.8743 9.74693
598 1 1.31925 42.8661 9.73353
599 1 6.64827 40.3422 6.64568
600 1 10.0471 40.3294 6.6282
601 1 10.0323 40.3133 10.0384
602 1 6.64817 40.2996 10.0389
603 1 6.94504 42.9481 6.93276
604 1 9.73643 42.9464 6.93352
605 1 9.74324 42.9439 9.73323
606 1 6.93966 42.9413 9.73404
607 1 12.6431 40.0467 6.93862
608 1 12.6442 40.0528 9.72416
609 1 12.5686 42.874 6.91655
610 1 12.5667 42.8744 9.75167
611 1 1.32893 45.6551 6.93251
612 1 4.12838 45.6657 6.93218
613 1 4.12866 45.6684 9.73974
614 1 1.32764 45.6607 9.74012
615 1 1.33021 48.4492 6.93494
616 1 4.13617 48.4575 6.94068
617 1 4.13377 48.4615 9.73718
618 1 1.33281 48.4516 9.74245
619 1 6.93472 45.6921 6.93188
620 1 9.74784 45.6959 6.92963
621 1 9.7469 45.6947 9.74288
622 1 6.93634 45.6914 9.74029
623 1 6.93873 48.4762 6.93399
624 1 9.74617 48.4979 6.9389
625 1 9.74669 48.4844 9.73698
626 1 6.93814 48.4705 9.74245
627 1 12.5522 45.6717 6.93279
628 1 12.554 45.6721 9.74051
629 1 12.5455 48.475 6.93964
630 1 12.5471 48.473 9.73854
631 1 1.32904 26.0556 12.5537
632 1 4.15195 26.0553 12.5577
633 1 6.94541 26.0657 12.5404
634 1 9.75202 26.0674 12.5501
635 1 12.5415 26.0646 12.5317
636 1 1.34803 28.866 12.6385
637 1 4.14693 28.861 12.5544
638 1 1.3121 31.6599 12.651
639 1 4.16632 31.6703 12.5676
640 1 6.96088 28.86 12.556
641 1 9.75934 28.8628 12.5389
642 1 6.95649 31.6541 12.5502
643 1 9.78324 31.6549 12.5541
644 1 12.5752 28.8726 12.5531
645 1 12.6579 31.6572 12.5361
646 1 1.34698 34.4805 12.5645
647 1 4.13958 34.4608 12.5642
648 1 1.3233 37.2722 12.556
649 1 4.1353 37.2659 12.5538
650 1 6.95879 34.4536 12.5577
651 1 9.75599 34.4426 12.5563
652 1 6.93312 37.2591 12.6382
653 1 9.76115 37.2642 12.6443
654 1 12.5806 34.4482 12.5629
655 1 12.5545 37.2546 12.5645
656 1 1.32254 40.0678 12.546
657 1 4.11643 40.0696 12.5687
658 1 1.32526 42.8654 12.5504
659 1 4.12466 42.8685 12.5527
660 1 6.95701 40.0574 12.6499
661 1 9.73198 40.0507 12.6512
662 1 6.93171 42.8741 12.5649
663 1 9.75495 42.8748 12.5689
664 1 12.5701 40.0656 12.5786
665 1 12.5588 42.8649 12.5594
666 1 1.32853 45.6607 12.5449
667 1 4.13134 45.665 12.5458
668 1 1.32688 48.459 12.5461
669 1 4.13363 48.4573 12.5428
670 1 6.93587 45.6689 12.5426
671 1 9.74917 45.6708 12.5424
672 1 6.94199 48.4675 12.535
673 1 9.74101 48.4703 12.537
674 1 12.551 45.6659 12.549
675 1 12.5527 48.4681 12.5432
12363 2 11.1455 49.7331 11.1548
12252 2 2.72233 30.1438 -0.0536149
12253 2 2.71024 27.371 2.78608
12362 2 5.52696 49.7423 11.1462
12255 2 5.51108 27.3448 -0.0633465
15351 2 13.9203 41.3581 11.1288
12257 2 8.25711 27.2818 2.7696
12258 2 5.50439 30.141 2.7905
15346 2 13.8677 35.8434 11.113
12260 2 10.8334 29.852 3.0639
12361 2 -0.0683343 49.7534 11.1238
15356 2 13.9432 46.9501 11.1445
12263 2 2.76811 32.9083 2.83645
12360 2 11.1277 44.1348 11.1362
12265 2 5.58775 32.8897 -0.055695
12266 2 8.26194 35.834 -0.0344077
12267 2 8.31401 33.0028 2.82538
12268 2 5.57345 35.7405 2.84213
15341 2 13.9157 30.1426 11.0872
12270 2 11.1003 35.8122 2.8392
12359 2 8.33572 46.9407 11.1472
15327 2 13.9303 44.1455 8.34537
12273 2 3.04892 38.8829 3.08147
12358 2 5.54933 44.1324 11.1381
15307 2 13.864 33.0015 8.2892
12276 2 8.27557 41.4186 -0.00110506
12277 2 8.33119 38.5947 2.79452
12278 2 5.61232 41.4568 2.78173
12279 2 11.0971 38.5618 -0.00757107
12280 2 11.1263 41.3883 2.7872
15326 2 13.9463 46.9582 5.53957
15317 2 13.9413 38.5777 8.35653
12283 2 2.74488 44.1922 2.74491
12284 2 -0.0663752 46.9787 2.73981
15316 2 13.9286 41.3652 5.56895
15282 2 13.9445 44.1857 2.7564
12287 2 8.34494 44.1844 2.75672
12288 2 5.54193 46.9669 2.73356
12289 2 11.1222 44.2731 -0.00534954
12290 2 11.1381 46.977 2.73973
12281 2 -0.0628151 44.1955 -0.068616
12292 2 2.73101 49.7606 2.74306
12352 2 2.76023 41.3494 11.1369
12294 2 8.33205 49.7477 2.71558
12351 2 -0.0559323 38.5491 11.1377
12357 2 2.74039 46.9522 11.1422
12297 2 2.67213 30.1528 5.64679
12298 2 2.64833 27.4233 8.35559
12299 1 -0.0462246 30.4236 8.29517
12300 2 5.49051 27.3712 5.5798
12301 2 8.24628 30.1616 5.64476
12302 2 8.30765 27.3683 8.35885
12303 2 5.50576 30.1758 8.36807
12304 2 11.1248 27.2895 5.62323
12305 2 11.1158 30.1711 8.35681
12356 2 -0.0597639 44.1575 11.1425
12307 2 2.79598 35.7033 5.63864
12308 2 2.70299 32.8959 8.37394
12355 2 11.0612 38.581 11.0786
12310 2 5.52872 32.9665 5.61525
12311 2 8.32987 35.824 5.6738
12312 2 8.31484 32.9855 8.36948
12313 2 5.59729 35.7958 8.37672
12314 2 11.0853 33.0254 5.59988
12315 2 11.0537 35.8396 8.36272
12354 2 8.33433 41.2886 11.0916
12317 2 2.75926 41.4393 5.64122
12318 2 2.75005 38.5575 8.36417
12319 2 -0.0641746 41.3621 8.36155
12320 2 5.65607 38.586 5.70754
12321 2 8.3443 41.3174 5.62093
12322 1 8.35377 38.7904 8.27558
12323 2 5.59684 41.2937 8.36216
12324 2 11.0796 38.5898 5.64473
12325 2 11.0829 41.2927 8.3509
12326 2 -0.0678215 44.1808 5.55572
12327 2 2.73727 46.9642 5.54349
12328 2 2.75225 44.1581 8.35892
12329 2 -0.066299 46.9627 8.34083
12330 2 5.55196 44.1535 5.5606
12331 2 8.33563 46.9505 5.53955
12332 2 8.33821 44.1467 8.34818
12333 2 5.5364 46.9466 8.34385
12334 2 11.131 44.1462 5.55779
12335 2 11.1398 46.9424 8.34358
12353 2 5.59569 38.5625 11.0843
12337 2 2.71981 49.7536 8.33587
12338 2 5.52101 49.7478 5.5289
12339 2 8.32601 49.7367 8.3424
12340 2 11.1473 49.7438 5.52394
12341 2 -0.0668298 27.424 11.0646
12342 2 2.66771 30.1717 11.0812
12343 2 5.49486 27.3833 11.1302
12344 2 8.31067 30.1765 11.1354
12345 2 11.1162 27.3613 11.1365