LAMMPS (29 Oct 2020)
OMP_NUM_THREADS environment is not set. Defaulting to 1 thread. (../comm.cpp:94)
  using 1 OpenMP thread(s) per MPI task
OMP_NUM_THREADS environment is not set. Defaulting to 1 thread. (../comm.cpp:94)
  using 1 OpenMP thread(s) per MPI task
Reading data file ...
  orthogonal box = (-0.27717828 -3.4472206 -0.27717828) to (27.617178 331.52722 27.617178)
  2 by 13 by 2 MPI processor grid
  reading atoms ...
  18000 atoms
  reading velocities ...
  18000 velocities
Finding 1-2 1-3 1-4 neighbors ...
  special bond factors lj:    0.0      0.0      0.0     
  special bond factors coul:  0.0      0.0      0.0     
     0 = max # of 1-2 neighbors
     0 = max # of 1-3 neighbors
     0 = max # of 1-4 neighbors
     1 = max # of special neighbors
  special bonds CPU = 0.003 seconds
  read_data CPU = 0.074 seconds
75 atoms in group sphere
16 atoms in group oxygen
1 atoms in group thorium
59 atoms in group 1
60 atoms in group cluster
6000 atoms in group Th
12000 atoms in group O
20 atoms in group Th_group
40 atoms in group O_group
WARNING: Ignoring 'compress yes' for molecular system (../delete_atoms.cpp:125)
Deleted 60 atoms, new total = 17940
75 atoms in group sphere
1 atoms in group oxygen
16 atoms in group thorium
59 atoms in group 1
60 atoms in group cluster
5980 atoms in group Th
11960 atoms in group O
20 atoms in group Th_group
40 atoms in group O_group
WARNING: Ignoring 'compress yes' for molecular system (../delete_atoms.cpp:125)
Deleted 60 atoms, new total = 17880
75 atoms in group sphere
1 atoms in group oxygen
16 atoms in group thorium
59 atoms in group 1
60 atoms in group cluster
5960 atoms in group Th
11920 atoms in group O
20 atoms in group Th_group
40 atoms in group O_group
WARNING: Ignoring 'compress yes' for molecular system (../delete_atoms.cpp:125)
Deleted 60 atoms, new total = 17820
75 atoms in group sphere
1 atoms in group oxygen
16 atoms in group thorium
59 atoms in group 1
60 atoms in group cluster
5940 atoms in group Th
11880 atoms in group O
20 atoms in group Th_group
40 atoms in group O_group
WARNING: Ignoring 'compress yes' for molecular system (../delete_atoms.cpp:125)
Deleted 60 atoms, new total = 17760
75 atoms in group sphere
1 atoms in group oxygen
16 atoms in group thorium
59 atoms in group 1
60 atoms in group cluster
5920 atoms in group Th
11840 atoms in group O
20 atoms in group Th_group
40 atoms in group O_group
WARNING: Ignoring 'compress yes' for molecular system (../delete_atoms.cpp:125)
Deleted 60 atoms, new total = 17700
75 atoms in group sphere
1 atoms in group oxygen
16 atoms in group thorium
59 atoms in group 1
60 atoms in group cluster
5900 atoms in group Th
11800 atoms in group O
20 atoms in group Th_group
40 atoms in group O_group
WARNING: Ignoring 'compress yes' for molecular system (../delete_atoms.cpp:125)
Deleted 60 atoms, new total = 17640
Setting atom values ...
  11760 settings made for charge
Setting atom values ...
  5880 settings made for charge
PPPM initialization ...
  using 12-bit tables for long-range coulomb (../kspace.cpp:328)
  G vector (1/distance) = 0.29912164
  grid = 40 240 40
  stencil order = 5
  estimated absolute RMS force accuracy = 0.00015376724
  estimated relative force accuracy = 1.0678544e-05
  using single precision MKL FFT
  3d grid and FFT values/proc = 18225 7600
Neighbor list info ...
  update every 1 steps, delay 0 steps, check yes
  max neighbors/atom: 2000, page size: 100000
  master list distance cutoff = 13
  ghost atom cutoff = 13
  binsize = 6.5, bins = 5 52 5
  2 neighbor lists, perpetual/occasional/extra = 2 0 0
  (1) pair coul/long, perpetual
      attributes: half, newton on
      pair build: half/bin/newton
      stencil: half/bin/3d/newton
      bin: standard
  (2) pair eam/alloy, perpetual, copy from (1)
      attributes: half, newton on
      pair build: copy
      stencil: none
      bin: none
Setting up cg style minimization ...
  Unit style    : metal
  Current step  : 0
WARNING: Energy due to 3 extra global DOFs will be included in minimizer energies
Per MPI rank memory allocation (min/avg/max) = 9.471 | 10.07 | 10.27 Mbytes
Step Temp E_pair E_mol TotEng Press Volume 
       0            0   -230772.98            0   -230772.98   -783.59252    260641.98 
     403            0   -231571.05            0   -231571.05    40.897656    261312.46 
Loop time of 8.15371 on 52 procs for 403 steps with 17640 atoms

99.6% CPU use with 52 MPI tasks x 1 OpenMP threads

Minimization stats:
  Stopping criterion = linesearch alpha is zero
  Energy initial, next-to-last, final = 
     -230772.982646344  -231571.052124001  -231571.052124001
  Force two-norm initial, final = 718.83654 17.470752
  Force max component initial, final = 645.59917 12.282401
  Final line search alpha, max atom move = 2.4628401e-11 3.0249589e-10
  Iterations, force evaluations = 403 708

MPI task timing breakdown:
Section |  min time  |  avg time  |  max time  |%varavg| %total
---------------------------------------------------------------
Pair    | 4.6017     | 4.8146     | 5.067      |   5.7 | 59.05
Bond    | 6.0478e-05 | 8.8339e-05 | 0.00014117 |   0.0 |  0.00
Kspace  | 1.4369     | 1.6938     | 1.9114     |   9.7 | 20.77
Neigh   | 0.0098113  | 0.01176    | 0.014245   |   1.1 |  0.14
Comm    | 0.1535     | 0.15759    | 0.16262    |   0.5 |  1.93
Output  | 0          | 0          | 0          |   0.0 |  0.00
Modify  | 0          | 0          | 0          |   0.0 |  0.00
Other   |            | 1.476      |            |       | 18.10

Nlocal:        339.231 ave         409 max         283 min
Histogram: 6 4 6 11 3 6 9 0 2 5
Nghost:        5547.44 ave        5734 max        5378 min
Histogram: 2 6 7 7 6 5 7 8 2 2
Neighs:       107458.0 ave      131515 max       89904 min
Histogram: 6 1 14 4 10 5 5 0 4 3

Total # of neighbors = 5587820
Ave neighs/atom = 316.76984
Ave special neighs/atom = 0.0000000
Neighbor list builds = 4
Dangerous builds = 0
Resetting atom IDs ...
PPPM initialization ...
  using 12-bit tables for long-range coulomb (../kspace.cpp:328)
  G vector (1/distance) = 0.2990758
  grid = 40 240 40
  stencil order = 5
  estimated absolute RMS force accuracy = 0.00015412761
  estimated relative force accuracy = 1.070357e-05
  using single precision MKL FFT
  3d grid and FFT values/proc = 18225 7600
Finding 1-2 1-3 1-4 neighbors ...
  special bond factors lj:    0.0      0.0      0.0     
  special bond factors coul:  0.0      0.0      0.0     
     0 = max # of 1-2 neighbors
     0 = max # of 1-3 neighbors
     0 = max # of 1-4 neighbors
     1 = max # of special neighbors
  special bonds CPU = 0.001 seconds
PPPM initialization ...
  using 12-bit tables for long-range coulomb (../kspace.cpp:328)
  G vector (1/distance) = 0.2990758
  grid = 40 240 40
  stencil order = 5
  estimated absolute RMS force accuracy = 0.00015412761
  estimated relative force accuracy = 1.070357e-05
  using single precision MKL FFT
  3d grid and FFT values/proc = 18225 7600
Setting up Verlet run ...
  Unit style    : metal
  Current step  : 403
  Time step     : 0.001
Per MPI rank memory allocation (min/avg/max) = 9.109 | 9.135 | 9.148 Mbytes
Step Dt Time Atoms Temp PotEng KinEng Press Volume 
     403        0.001            0    17640          300   -231571.05    684.00591    2836.6805    261312.46 
   20000        0.001       19.597    17640    296.40807   -231189.19    675.81625    278.83379    262724.14 
   40000        0.001       39.597    17640    299.04094   -231193.35    681.81924   -466.47052    262806.18 
   60000        0.001       59.597    17640    301.38631   -231199.51    687.16672   -627.36073    262797.93 
   80000        0.001       79.597    17640    300.88103    -231197.7    686.01467   -406.77214    262835.38 
  100000        0.001       99.597    17640    301.41226    -231194.7    687.22588     171.2901    262702.69 
  100403        0.001          100    17640    299.61396   -231199.92    683.12574    1444.6836    262538.97 
Loop time of 876.187 on 52 procs for 100000 steps with 17640 atoms

Performance: 9.861 ns/day, 2.434 hours/ns, 114.131 timesteps/s
99.8% CPU use with 52 MPI tasks x 1 OpenMP threads

MPI task timing breakdown:
Section |  min time  |  avg time  |  max time  |%varavg| %total
---------------------------------------------------------------
Pair    | 527.31     | 546.5      | 570        |  48.9 | 62.37
Bond    | 0.0092499  | 0.01299    | 0.021534   |   2.1 |  0.00
Kspace  | 175.63     | 199.38     | 218.01     |  81.0 | 22.76
Neigh   | 0.2427     | 0.26377    | 0.28732    |   3.0 |  0.03
Comm    | 23.302     | 24.042     | 24.792     |   7.9 |  2.74
Output  | 0.027198   | 0.027221   | 0.028254   |   0.1 |  0.00
Modify  | 92.54      | 97.462     | 102.21     |  25.1 | 11.12
Other   |            | 8.498      |            |       |  0.97

Nlocal:        339.231 ave         367 max         314 min
Histogram: 8 8 4 4 3 3 7 3 5 7
Nghost:        5538.13 ave        5640 max        5423 min
Histogram: 7 4 9 0 0 4 8 8 5 7
Neighs:       107561.0 ave      119785 max       95114 min
Histogram: 5 4 12 3 0 4 5 9 5 5

Total # of neighbors = 5593153
Ave neighs/atom = 317.07217
Ave special neighs/atom = 0.0000000
Neighbor list builds = 91
Dangerous builds = 0
WARNING: Shell command 'mkdir' failed with error 'File exists' (../input.cpp:1197)
System init for write_data ...
PPPM initialization ...
  using 12-bit tables for long-range coulomb (../kspace.cpp:328)
  G vector (1/distance) = 0.29899318
  grid = 40 240 40
  stencil order = 5
  estimated absolute RMS force accuracy = 0.00015477301
  estimated relative force accuracy = 1.074839e-05
  using single precision MKL FFT
  3d grid and FFT values/proc = 18225 7600
Total wall time: 0:14:45
