ITEM: TIMESTEP
60000
ITEM: NUMBER OF ATOMS
17730
ITEM: BOX BOUNDS pp pp pp
-4.3997212426199866e-01 2.7779972124261381e+01
-5.3977986107101650e+00 3.3347779861069608e+02
-4.4695037903273976e-01 2.7786950379032675e+01
ITEM: ATOMS id type q x y z
1 2 2.2208 5.27903 0.340512 5.17184
2 1 -1.1104 1.05828 -3.97714 0.917486
6 1 -1.1104 1.16318 -3.8524 3.67879
10 1 -1.1104 1.18543 -1.1022 0.776764
12 2 2.2208 5.07793 -2.58534 2.47361
14 1 -1.1104 1.09767 -1.11591 3.55743
16 1 -1.1104 3.85366 -4.02103 0.945353
18 2 2.2208 2.29957 0.281219 2.02704
19 1 -1.1104 4.00624 -4.18202 3.888
21 2 2.2208 2.55786 -2.46856 5.27636
23 1 -1.1104 3.95331 -1.14244 0.952794
24 1 -1.1104 3.79922 -1.199 3.8014
170 1 -1.1104 3.98838 -0.84144 6.54117
8774 2 2.2208 -0.249307 -2.59392 2.24171
162 1 -1.1104 1.2699 -4.12595 6.48502
15 1 -1.1104 6.51104 -1.18229 3.66639
8 1 -1.1104 6.59754 -3.89119 3.48441
4 1 -1.1104 6.60173 -4.04402 0.796059
166 1 -1.1104 1.0322 -1.12708 6.39848
8775 2 2.2208 -0.437713 0.258365 4.95038
555 2 2.2208 2.60194 -2.57212 -0.398416
11 1 -1.1104 6.65465 -1.31211 0.700808
31 2 2.2208 10.7506 0.143144 5.02671
32 1 -1.1104 12.7372 -4.00011 0.73472
34 1 -1.1104 12.1848 -3.97637 3.50134
36 1 -1.1104 12.0994 -1.25345 0.667259
37 2 2.2208 10.963 -2.60751 2.17573
39 1 -1.1104 12.2628 -1.25013 3.85272
40 1 -1.1104 9.79449 -4.31467 1.06234
42 2 2.2208 8.0206 0.223802 2.25876
43 1 -1.1104 9.29776 -3.97518 3.80699
45 2 2.2208 8.0447 -2.62448 4.89895
47 1 -1.1104 9.52273 -1.4731 1.062
48 1 -1.1104 9.27985 -1.14161 3.89038
164 1 -1.1104 6.96063 -4.06333 6.51365
201 1 -1.1104 12.5901 -3.87627 6.54652
206 1 -1.1104 9.54649 -1.36926 6.56945
167 1 -1.1104 6.73047 -1.41928 6.54205
204 1 -1.1104 9.83262 -3.97088 6.46732
585 2 2.2208 8.15264 -2.68677 -0.442926
8116 2 2.2208 11.1507 -5.33001 4.97322
8117 2 2.2208 8.26398 -5.35153 2.22237
8776 2 2.2208 -0.333977 3.13018 2.16054
3 1 -1.1104 1.07234 1.7415 0.790196
7 1 -1.1104 0.737973 1.72209 3.55047
13 2 2.2208 5.1765 2.93058 2.25294
17 1 -1.1104 3.86998 1.662 0.69879
20 1 -1.1104 3.73448 1.55594 3.54033
22 2 2.2208 2.59539 3.10007 5.15951
53 2 2.2208 5.41643 5.7793 5.08001
55 1 -1.1104 0.770878 7.51022 1.03705
57 1 -1.1104 1.03927 7.34485 3.96245
59 1 -1.1104 1.15694 4.63112 0.754203
66 1 -1.1104 0.933777 4.52002 3.84011
71 2 2.2208 2.43343 5.98979 2.44984
75 1 -1.1104 3.8301 4.25361 1.02792
78 1 -1.1104 3.94613 4.37079 3.76398
73 1 -1.1104 4.11853 7.13029 3.7519
169 1 -1.1104 3.87877 1.72313 6.35603
70 1 -1.1104 3.52526 7.3369 0.905886
229 1 -1.1104 1.19831 4.40843 6.55861
9 1 -1.1104 6.5135 1.62347 3.63549
165 1 -1.1104 6.6036 1.47945 6.51141
64 1 -1.1104 6.50754 7.61707 6.2201
163 1 -1.1104 1.24167 1.67713 6.2661
227 1 -1.1104 0.912928 7.27974 6.51802
230 1 -1.1104 3.82417 7.58869 6.42346
5 1 -1.1104 6.69081 1.69706 0.825436
62 1 -1.1104 6.73914 4.48117 0.774044
56 1 -1.1104 6.63705 7.36261 0.818201
58 1 -1.1104 6.61566 4.49478 3.6171
228 1 -1.1104 6.77678 7.36641 3.5561
41 1 -1.1104 9.64748 1.40656 0.923041
33 1 -1.1104 11.8342 1.609 3.85671
38 2 2.2208 10.7512 2.84323 2.21605
44 1 -1.1104 9.25938 1.66763 3.4657
46 2 2.2208 7.90463 3.00601 5.0875
68 1 -1.1104 9.62987 4.46493 3.81353
84 1 -1.1104 12.2298 7.36383 0.79139
86 1 -1.1104 12.4621 1.48708 0.863816
91 1 -1.1104 9.4514 7.11908 1.03375
92 2 2.2208 8.26385 5.80131 2.49781
96 1 -1.1104 9.45079 4.26551 1.07209
257 1 -1.1104 12.1604 4.32427 1.25863
256 1 -1.1104 12.3843 7.35714 3.71357
259 1 -1.1104 6.83066 4.29324 6.51628
202 1 -1.1104 9.46553 1.30597 6.34421
8679 2 2.2208 13.657 5.89257 2.28511
54 2 2.2208 5.33704 11.6631 5.06729
60 1 -1.1104 0.892789 10.1896 1.1089
65 2 2.2208 5.13907 8.7712 2.12037
67 1 -1.1104 1.05599 10.2395 3.95255
72 2 2.2208 2.40052 11.5004 2.28426
74 2 2.2208 2.52804 8.92276 5.25788
76 1 -1.1104 3.82466 10.2708 0.904822
79 1 -1.1104 3.89318 10.0851 3.64804
103 1 -1.1104 0.905944 13.0922 0.818406
109 1 -1.1104 1.02584 12.8183 3.6766
119 1 -1.1104 3.71205 13.1462 1.10806
124 1 -1.1104 3.76147 13.0172 3.779
120 1 -1.1104 3.89163 13.0523 6.32978
104 1 -1.1104 1.11319 13.0438 6.43562
77 1 -1.1104 3.91811 10.2568 6.4851
69 1 -1.1104 6.56521 10.1168 3.51135
63 1 -1.1104 6.57189 10.3271 0.781657
8773 2 2.2208 -0.328431 8.77642 2.41225
82 2 2.2208 -0.369712 11.669 5.01299
321 2 2.2208 2.34567 8.83347 -0.430743
94 1 -1.1104 9.46961 7.67995 3.71323
111 1 -1.1104 6.71881 12.8152 3.78031
106 1 -1.1104 6.77711 13.245 0.587563
99 1 -1.1104 9.37116 10.3379 3.83401
83 2 2.2208 11.0993 11.6102 5.24258
87 1 -1.1104 12.3441 10.1771 1.11106
89 2 2.2208 11.0717 8.66203 2.38715
90 1 -1.1104 12.2019 10.4071 3.77565
93 2 2.2208 7.98766 11.4958 2.20887
95 2 2.2208 7.90186 8.89612 4.8253
97 1 -1.1104 9.49973 9.93462 0.885625
138 1 -1.1104 12.1605 13.0049 1.00275
142 1 -1.1104 12.4615 13.0748 3.81216
149 1 -1.1104 9.45045 13.1114 0.908328
154 1 -1.1104 9.69198 13.1716 3.74505
88 1 -1.1104 12.3726 10.1096 6.46791
107 1 -1.1104 6.70292 13.0441 6.5623
150 1 -1.1104 9.49784 12.4877 6.60713
98 1 -1.1104 6.81708 10.2756 6.43651
100 2 2.2208 13.6494 11.7779 2.64703
324 2 2.2208 10.845 11.558 -0.436407
131 2 2.2208 -0.41176 17.3075 5.10284
8678 2 2.2208 -0.384887 14.4729 2.12214
126 2 2.2208 2.36712 14.3859 4.9854
115 2 2.2208 5.32593 14.4012 2.34852
102 2 2.2208 5.23651 17.2071 5.03037
105 1 -1.1104 0.831079 18.7808 0.798786
110 1 -1.1104 0.857675 18.6619 4.03621
112 1 -1.1104 0.890502 16.0117 0.671454
116 2 2.2208 5.40404 20.0415 2.25802
117 1 -1.1104 0.96927 15.8489 3.48139
121 1 -1.1104 3.87754 18.5956 1.05788
123 2 2.2208 2.46693 17.1593 2.17072
125 1 -1.1104 3.85356 18.5747 3.53844
127 2 2.2208 2.40603 19.9772 5.1744
128 1 -1.1104 3.87833 15.6809 0.788083
130 1 -1.1104 3.80617 15.6768 3.47432
8644 2 2.2208 -0.39695 20.0163 2.58077
113 1 -1.1104 0.985961 15.9597 6.37857
122 1 -1.1104 3.9079 18.5305 6.41154
129 1 -1.1104 4.05761 15.6562 6.37224
135 1 -1.1104 6.57284 18.4822 3.66923
118 1 -1.1104 6.60102 15.9018 3.83787
289 1 -1.1104 1.16148 18.7362 6.5605
438 2 2.2208 2.31337 19.9322 -0.40377
136 1 -1.1104 6.85252 15.9295 1.02175
156 2 2.2208 8.10424 14.4073 5.26925
108 1 -1.1104 6.87194 18.6408 6.60024
134 1 -1.1104 6.69814 18.6358 0.895151
146 2 2.2208 10.918 14.5449 2.38611
152 1 -1.1104 9.53113 18.6025 6.52871
137 2 2.2208 10.9842 17.3647 5.18136
140 1 -1.1104 12.4622 18.7053 1.05496
143 1 -1.1104 12.3162 18.7321 3.88523
144 1 -1.1104 12.3788 15.8303 0.983218
147 2 2.2208 10.8544 20.2867 2.37436
148 1 -1.1104 12.3541 16.005 3.79386
151 1 -1.1104 9.54477 18.8904 0.895375
153 2 2.2208 8.06203 17.3934 2.33712
155 1 -1.1104 9.70294 18.8247 3.77122
157 2 2.2208 8.27944 20.0684 5.2403
158 1 -1.1104 9.50063 16.0167 1.11483
160 1 -1.1104 9.30594 16.1164 3.89829
114 1 -1.1104 6.80077 15.7817 6.37473
304 2 2.2208 11.0274 17.2821 -0.441586
303 2 2.2208 8.14661 14.6369 -0.326017
168 1 -1.1104 3.91585 -4.00042 6.76957
8119 2 2.2208 2.58817 -5.29602 8.07963
8510 2 2.2208 -0.23008 -2.57719 7.87274
173 2 2.2208 5.41544 0.46403 10.7851
174 1 -1.1104 1.11614 -3.96143 12.55
178 1 -1.1104 1.16976 -4.03117 9.29619
182 1 -1.1104 1.43046 -0.893935 12.0653
184 2 2.2208 5.37771 -2.54954 8.13114
186 1 -1.1104 1.08471 -1.05163 9.26467
188 1 -1.1104 3.86558 -3.75026 12.0073
190 2 2.2208 2.6626 0.506365 8.0032
191 1 -1.1104 4.03987 -3.85155 9.46226
193 2 2.2208 2.47116 -2.47374 10.7219
195 1 -1.1104 3.98359 -1.16347 12.2288
196 1 -1.1104 3.93568 -0.945369 9.56754
17320 2 2.2208 -0.248179 -5.34334 10.8155
8875 2 2.2208 -0.298437 -2.5803 13.5849
8485 2 2.2208 -0.271883 0.252576 10.7166
367 2 2.2208 5.22548 -2.48707 13.4926
203 1 -1.1104 12.3043 -0.453692 6.69951
401 2 2.2208 10.985 -2.63272 13.3935
400 2 2.2208 8.11809 0.362114 13.5937
187 1 -1.1104 6.68976 -1.11975 9.48975
183 1 -1.1104 6.65173 -1.02476 12.0885
176 1 -1.1104 6.77463 -3.70886 12.1372
180 1 -1.1104 6.70042 -3.94252 9.2269
207 2 2.2208 11.1723 0.172457 10.6772
208 1 -1.1104 12.4028 -3.92081 12.2422
210 1 -1.1104 12.5474 -4.1578 9.58294
212 1 -1.1104 12.5349 -1.25261 12.2105
213 2 2.2208 11.0824 -2.71847 7.80412
214 1 -1.1104 12.5208 -1.30581 9.19574
215 1 -1.1104 9.67808 -4.14039 12.0765
217 2 2.2208 8.1011 -0.0453024 7.7665
218 1 -1.1104 9.91653 -3.75958 9.25095
220 2 2.2208 8.27818 -2.3859 10.7901
222 1 -1.1104 9.47363 -0.974934 12.139
223 1 -1.1104 9.50019 -0.787312 9.25683
8121 2 2.2208 8.27293 -5.37225 7.86245
8713 2 2.2208 -0.239193 5.82908 10.6161
231 1 -1.1104 4.05358 4.57188 6.7366
175 1 -1.1104 0.903553 1.9083 12.0148
179 1 -1.1104 0.903283 1.54421 9.0941
185 2 2.2208 5.51732 3.07709 7.94089
189 1 -1.1104 4.04554 1.64971 12.1449
192 1 -1.1104 3.95278 1.77023 9.32577
194 2 2.2208 2.56544 3.01736 10.8534
232 2 2.2208 5.3295 6.28517 11.0758
234 1 -1.1104 0.849174 7.35985 12.1516
238 1 -1.1104 1.23794 4.39272 12.1952
243 1 -1.1104 1.57212 4.47926 9.38505
247 2 2.2208 2.43983 6.03269 7.80356
249 1 -1.1104 3.75926 7.16364 9.3727
251 1 -1.1104 3.92069 4.57279 12.0403
253 1 -1.1104 5.55568 4.48943 9.76828
246 1 -1.1104 3.88022 7.47934 12.3026
8874 2 2.2208 -0.308905 3.13741 13.5683
236 1 -1.1104 0.954202 7.2242 9.36555
436 2 2.2208 2.28725 6.04819 13.5004
8511 2 2.2208 -0.212315 2.94119 7.71342
369 2 2.2208 5.20663 3.18368 13.6677
309 2 2.2208 11.1064 3.13875 13.4513
240 1 -1.1104 6.66098 4.94424 12.3853
235 1 -1.1104 6.82105 7.496 12.2498
237 1 -1.1104 6.76242 7.53338 9.35732
177 1 -1.1104 6.83435 1.97144 12.2423
181 1 -1.1104 6.98444 1.66191 9.29446
211 1 -1.1104 12.4726 1.54743 9.52655
209 1 -1.1104 12.6886 1.6311 12.236
216 1 -1.1104 9.52651 1.69691 11.9062
221 2 2.2208 8.01276 3.30352 10.7336
258 1 -1.1104 9.10832 4.61066 9.46665
261 1 -1.1104 9.64237 4.42651 12.2451
264 2 2.2208 11.0384 5.61035 10.5417
266 1 -1.1104 12.2495 7.17716 12.2892
267 1 -1.1104 12.7417 7.02701 9.58705
268 1 -1.1104 12.3508 4.35902 12.0204
270 1 -1.1104 12.5783 4.41299 9.25402
272 1 -1.1104 9.55517 7.46859 11.7832
326 2 2.2208 8.29498 6.04867 13.5991
320 2 2.2208 -0.417136 8.723 13.5761
27 2 2.2208 -0.232666 11.6259 10.7569
311 2 2.2208 2.50498 11.6518 13.6498
61 1 -1.1104 1.06589 10.1382 6.73736
233 2 2.2208 5.27096 11.5841 10.5559
239 1 -1.1104 1.21903 10.0922 12.2627
242 2 2.2208 5.27887 8.74724 7.77425
244 1 -1.1104 1.0617 10.289 9.38291
248 2 2.2208 2.4198 11.5315 7.88988
250 2 2.2208 2.49533 8.70451 10.6625
252 1 -1.1104 3.88935 10.4002 12.2326
254 1 -1.1104 3.90534 10.0061 9.34455
274 1 -1.1104 3.90928 13.1276 12.088
281 1 -1.1104 1.08637 13.2105 9.25754
286 1 -1.1104 0.939565 12.932 12.0393
292 1 -1.1104 3.87822 12.7217 9.10001
245 1 -1.1104 6.56646 10.1843 9.25523
659 2 2.2208 5.15542 8.82748 13.639
312 2 2.2208 10.886 8.72738 13.5733
49 2 2.2208 13.6485 8.73736 10.8751
139 1 -1.1104 12.324 12.9636 6.75863
284 1 -1.1104 6.99693 12.8853 12.2124
241 1 -1.1104 6.63453 10.2815 12.1801
277 1 -1.1104 6.65755 13.1177 9.34792
255 1 -1.1104 9.39389 10.0984 9.32199
260 1 -1.1104 9.38993 10.1428 12.3866
262 2 2.2208 7.93494 8.76308 10.663
263 2 2.2208 7.91015 11.6367 7.98517
265 2 2.2208 10.9471 11.4831 10.6996
269 1 -1.1104 12.143 10.1541 12.3824
271 1 -1.1104 12.483 10.1787 9.71765
198 1 -1.1104 9.49052 12.8863 9.193
30 1 -1.1104 12.5972 13.1977 12.5464
51 1 -1.1104 12.1093 13.1785 9.59344
133 1 -1.1104 9.95638 13.1171 11.9145
8994 2 2.2208 -0.291096 20.1892 13.6016
307 2 2.2208 -0.371584 14.327 13.4944
315 2 2.2208 5.26163 14.288 13.5287
300 2 2.2208 -0.229368 14.4912 7.8032
299 2 2.2208 -0.183689 17.449 10.9395
298 2 2.2208 -0.377206 20.1795 8.04046
297 2 2.2208 2.46597 14.4169 10.7425
282 2 2.2208 5.25445 14.4185 7.79892
273 1 -1.1104 3.9489 18.7926 12.1826
278 1 -1.1104 1.13959 18.7353 9.38984
279 1 -1.1104 1.15968 15.7961 9.2363
280 2 2.2208 5.23716 19.909 7.89254
285 1 -1.1104 1.01631 18.7198 12.3891
287 2 2.2208 5.34355 17.2253 10.7124
288 1 -1.1104 3.98875 18.56 9.26083
290 2 2.2208 2.47067 17.3206 7.86969
291 1 -1.1104 3.89905 15.7449 9.34067
294 1 -1.1104 1.22518 15.703 12.1395
295 1 -1.1104 3.97288 15.9842 12.1506
296 2 2.2208 2.61953 20.1458 10.7296
199 1 -1.1104 9.62572 18.8191 9.35569
275 1 -1.1104 6.88482 18.645 9.26132
132 1 -1.1104 12.4448 15.7423 9.4017
283 1 -1.1104 6.61896 18.6607 12.1741
141 1 -1.1104 12.2013 18.5841 6.65194
276 1 -1.1104 6.98244 15.8933 9.25934
81 2 2.2208 10.9158 14.404 7.98472
145 1 -1.1104 12.2377 15.7198 6.68537
200 2 2.2208 8.26655 14.2974 10.6802
318 2 2.2208 8.26368 17.1951 13.4408
161 1 -1.1104 9.47939 18.6207 12.1629
293 1 -1.1104 6.81132 15.7219 11.968
205 2 2.2208 8.02012 19.9118 10.6234
171 2 2.2208 8.07017 17.2357 7.94576
35 1 -1.1104 12.3682 18.5889 12.2258
226 1 -1.1104 9.53322 15.8764 12.1113
159 1 -1.1104 9.60017 15.7124 6.68744
52 1 -1.1104 12.5769 18.5771 9.49116
301 1 -1.1104 9.52045 15.8243 9.33845
29 2 2.2208 10.9155 17.1455 10.8552
101 2 2.2208 11.1612 20.0956 8.01992
80 1 -1.1104 12.3982 15.8276 12.1769
317 2 2.2208 11.0645 14.5217 13.5609
25 2 2.2208 13.6572 14.3789 10.726
316 2 2.2208 10.8757 20.0939 13.6137
327 2 2.2208 5.3281 0.413987 16.3327
328 1 -1.1104 1.19854 -3.89352 17.9079
332 1 -1.1104 1.29581 -3.91861 15.0397
340 1 -1.1104 0.947925 -0.885683 17.7162
342 2 2.2208 5.05894 -2.29698 19.2146
344 1 -1.1104 1.01271 -1.10178 14.8276
348 1 -1.1104 3.95466 -3.65992 17.7469
350 2 2.2208 2.39389 0.352239 19.1179
351 1 -1.1104 4.08419 -3.80952 15.0154
355 2 2.2208 2.58565 -2.48662 16.3092
357 1 -1.1104 3.83236 -1.02702 17.8075
358 1 -1.1104 3.86351 -0.966913 15.1406
8878 2 2.2208 -0.298611 -2.44578 19.1726
359 1 -1.1104 3.76728 -0.926716 20.6864
345 1 -1.1104 0.888848 -0.972185 20.6419
333 1 -1.1104 1.22419 -3.772 20.591
352 1 -1.1104 3.99947 -3.74699 20.6033
330 1 -1.1104 6.5984 -3.83219 17.6436
346 1 -1.1104 6.52367 -0.891893 14.9241
347 1 -1.1104 6.61004 -1.22708 20.5537
17726 2 2.2208 -0.215144 -5.28193 16.4986
8455 2 2.2208 5.49661 -5.23122 16.209
8456 2 2.2208 2.60203 -5.21821 19.2876
8906 2 2.2208 -0.424604 0.19342 16.2348
368 2 2.2208 2.50697 0.282455 13.6906
8457 2 2.2208 2.6902 -5.24615 13.6805
336 1 -1.1104 6.67281 -3.95842 14.6866
341 1 -1.1104 6.76842 -1.03134 17.6587
370 2 2.2208 11.0792 0.0597339 16.5798
371 1 -1.1104 12.4402 -3.91881 17.7794
373 1 -1.1104 12.4357 -4.03787 14.8384
377 1 -1.1104 12.4334 -1.18661 18.2198
378 2 2.2208 11.0712 -2.67779 19.1228
380 1 -1.1104 12.4502 -1.01803 15.1264
382 1 -1.1104 9.76997 -3.91985 17.5991
384 2 2.2208 8.02224 0.513749 19.0512
385 1 -1.1104 9.38703 -3.75243 14.6695
389 2 2.2208 7.9534 -2.3411 16.1099
391 1 -1.1104 9.45051 -1.05351 17.8938
392 1 -1.1104 9.47819 -1.00328 15.0495
386 1 -1.1104 9.54331 -4.05789 20.4148
374 1 -1.1104 12.2164 -4.10461 20.5515
8459 2 2.2208 8.10843 -5.09471 19.0135
393 1 -1.1104 9.28167 -1.24188 20.4984
337 1 -1.1104 6.72321 -4.04257 20.5143
561 2 2.2208 -0.325484 6.05199 16.3309
329 1 -1.1104 1.29536 1.56675 17.5848
334 1 -1.1104 1.01864 1.73651 14.8158
343 2 2.2208 5.14243 3.1797 19.3018
349 1 -1.1104 3.95136 1.7776 17.8485
353 1 -1.1104 3.78372 1.79374 15.0575
356 2 2.2208 2.44623 3.07032 16.3812
403 2 2.2208 5.32726 6.03624 16.3593
405 1 -1.1104 0.891753 7.20214 17.8819
407 1 -1.1104 1.04779 7.44048 15.2233
411 1 -1.1104 1.17827 4.21482 17.9864
416 1 -1.1104 0.979409 4.55084 15.0028
424 1 -1.1104 3.73455 7.32893 17.7746
425 2 2.2208 2.27909 5.92302 19.3838
430 1 -1.1104 3.83182 4.72939 17.7404
432 1 -1.1104 3.71119 4.5427 14.7869
427 1 -1.1104 3.79963 7.21624 14.9185
354 1 -1.1104 3.86749 1.72293 20.6096
421 1 -1.1104 6.54159 4.54283 20.6043
335 1 -1.1104 1.22012 1.82315 20.495
433 1 -1.1104 3.77611 4.56744 20.6736
463 2 2.2208 -0.227337 2.94287 19.1328
409 1 -1.1104 6.70094 7.4612 14.8114
331 1 -1.1104 6.79221 1.73219 17.7043
413 1 -1.1104 6.88127 4.40961 17.9191
406 1 -1.1104 6.68617 7.39764 17.6614
420 1 -1.1104 6.78939 4.62268 15.0436
338 1 -1.1104 6.76087 1.72787 14.9734
372 1 -1.1104 12.1513 1.62105 17.9854
375 1 -1.1104 12.2404 1.74743 15.2031
379 2 2.2208 10.7478 3.09988 19.047
383 1 -1.1104 9.46516 1.85448 17.6718
387 1 -1.1104 9.42518 1.7792 14.7289
390 2 2.2208 8.18168 3.20258 16.3155
439 2 2.2208 11.0017 5.98738 16.5239
441 1 -1.1104 12.4355 7.30898 18.063
442 1 -1.1104 12.3874 7.16638 15.3603
444 1 -1.1104 12.5157 4.5456 17.7
447 1 -1.1104 12.2466 4.43032 14.9329
451 1 -1.1104 9.48031 7.47135 17.8204
452 2 2.2208 8.08386 5.99546 19.3483
454 1 -1.1104 9.56136 7.38723 15.0194
457 1 -1.1104 9.53589 4.7991 17.8422
459 1 -1.1104 9.58367 4.63082 15.2184
410 1 -1.1104 6.64423 7.17434 20.5688
460 1 -1.1104 9.54239 4.64049 20.7262
339 1 -1.1104 6.71557 1.60254 20.4586
455 1 -1.1104 9.3596 7.40075 20.5281
388 1 -1.1104 9.59836 1.66866 20.3318
404 2 2.2208 5.19174 11.5869 16.747
412 1 -1.1104 1.09136 9.97698 17.8632
415 2 2.2208 5.16668 8.67938 19.2337
418 1 -1.1104 1.09414 10.1016 15.0534
426 2 2.2208 2.32113 11.5486 19.3977
429 2 2.2208 2.34901 8.77209 16.5141
431 1 -1.1104 3.77389 10.1838 17.8751
434 1 -1.1104 3.78705 10.1381 15.2157
467 1 -1.1104 0.589604 12.6737 18.0324
471 1 -1.1104 1.08387 12.9733 15.3033
487 1 -1.1104 3.46009 13.1146 17.8636
490 1 -1.1104 3.83579 13.0232 15.0784
491 1 -1.1104 3.65601 12.9476 20.5477
472 1 -1.1104 0.971938 13.1342 20.5841
475 1 -1.1104 6.48992 12.9431 15.1143
408 1 -1.1104 0.987392 7.79342 20.6546
590 2 2.2208 -0.348768 11.4262 16.4139
588 2 2.2208 -0.38425 8.8429 19.3213
414 1 -1.1104 6.67625 10.2249 18.0305
469 1 -1.1104 6.64313 13.0286 17.9973
422 1 -1.1104 6.64685 10.1201 15.1897
440 2 2.2208 10.8513 11.8171 16.4156
445 1 -1.1104 12.1342 10.0096 17.9812
446 2 2.2208 10.7937 8.66247 19.2943
449 1 -1.1104 12.3282 10.3561 15.2576
453 2 2.2208 8.05689 11.754 19.1863
456 2 2.2208 8.10469 8.90908 16.4819
458 1 -1.1104 9.37978 10.2787 17.8268
461 1 -1.1104 9.44694 10.1757 15.0679
503 1 -1.1104 12.3277 13.0072 17.8439
505 1 -1.1104 12.1367 13.189 15.2203
514 1 -1.1104 9.36126 13.0617 17.8996
517 1 -1.1104 9.39394 12.9384 15.0278
476 1 -1.1104 6.66979 13.051 20.6711
518 1 -1.1104 9.39945 12.9327 20.7015
450 1 -1.1104 12.3823 10.435 20.638
313 2 2.2208 8.08734 11.3911 13.6984
314 2 2.2208 2.47385 17.2778 13.697
395 2 2.2208 -0.140588 17.2459 16.2443
9005 2 2.2208 -0.191493 20.2917 19.4559
494 2 2.2208 2.43173 14.4759 16.3785
481 2 2.2208 5.09806 14.4744 19.1729
466 2 2.2208 5.36342 17.2493 16.304
468 1 -1.1104 0.663161 18.6508 17.7832
473 1 -1.1104 0.982367 18.6738 14.9742
479 1 -1.1104 1.22715 15.9727 17.6778
482 2 2.2208 5.34177 20.0368 19.0342
483 1 -1.1104 0.940415 15.7298 14.7498
488 1 -1.1104 3.69035 18.7346 17.8056
489 2 2.2208 2.15829 17.3794 19.3368
492 1 -1.1104 3.82686 18.8098 14.8337
495 2 2.2208 2.55069 20.1137 16.4177
496 1 -1.1104 3.91766 16.0546 17.8564
497 1 -1.1104 3.88281 15.9219 15.024
484 1 -1.1104 0.179045 15.9495 20.34
498 1 -1.1104 3.37753 15.8601 20.6271
485 1 -1.1104 6.51364 15.7851 14.6707
470 1 -1.1104 6.52303 18.6594 17.6022
486 1 -1.1104 6.533 15.7762 20.5149
493 1 -1.1104 3.94133 18.7511 20.7097
474 1 -1.1104 1.02054 18.6916 20.6504
500 2 2.2208 5.24554 20.202 13.7021
521 2 2.2208 8.00291 14.554 16.2599
480 1 -1.1104 6.62241 15.9015 17.5279
477 1 -1.1104 6.64686 18.8523 15.098
510 2 2.2208 11.0005 14.6741 19.2636
502 2 2.2208 11.0009 17.2508 16.3886
504 1 -1.1104 12.4214 18.6338 17.9035
507 1 -1.1104 12.4325 18.5805 15.0155
509 1 -1.1104 12.227 15.9688 17.9273
511 2 2.2208 10.9382 19.8965 19.244
512 1 -1.1104 12.4371 15.8372 14.8918
515 1 -1.1104 9.42272 18.5979 17.8895
516 2 2.2208 8.16893 17.0695 19.2683
519 1 -1.1104 9.44424 18.6895 15.0821
522 2 2.2208 8.14637 20.1437 16.5334
523 1 -1.1104 9.3269 15.8786 17.6053
524 1 -1.1104 9.70279 15.8596 14.704
478 1 -1.1104 6.65083 18.6398 20.5112
520 1 -1.1104 9.46701 18.5846 20.6942
554 2 2.2208 5.33045 0.252661 27.607
8836 2 2.2208 -0.207097 -2.55633 25.0593
530 2 2.2208 5.25304 0.23337 21.9917
531 1 -1.1104 1.09982 -4.04545 23.6974
535 1 -1.1104 1.41215 -4.02959 26.479
539 1 -1.1104 0.935472 -1.36537 23.5139
541 2 2.2208 5.35378 -2.52481 24.7173
543 1 -1.1104 1.07991 -1.1403 26.3629
545 1 -1.1104 4.08707 -4.06983 23.3687
547 2 2.2208 2.45739 0.0141323 24.7233
548 1 -1.1104 4.06197 -3.9465 26.2866
550 2 2.2208 2.46917 -2.4899 22.0058
552 1 -1.1104 3.81297 -1.15608 23.4445
553 1 -1.1104 3.73488 -1.11797 26.394
8835 2 2.2208 -0.258807 0.259467 27.4465
17716 2 2.2208 -0.247354 -5.16685 22.0811
381 1 -1.1104 12.3456 -1.14924 20.9247
8466 2 2.2208 8.16995 -5.38297 24.905
540 1 -1.1104 6.63863 -1.09166 23.3114
533 1 -1.1104 6.88389 -4.01297 23.2947
537 1 -1.1104 6.82216 -4.08888 26.1988
544 1 -1.1104 6.74829 -1.17323 26.1891
566 2 2.2208 11.0503 0.318744 21.936
567 1 -1.1104 12.4153 -4.29606 23.2593
569 1 -1.1104 12.5817 -4.00986 26.1059
571 1 -1.1104 12.3506 -1.36968 23.4391
572 2 2.2208 11.0243 -2.6541 24.795
574 1 -1.1104 12.3815 -1.23334 26.2117
575 1 -1.1104 9.6097 -4.09111 23.435
577 2 2.2208 8.19049 0.472775 24.7666
578 1 -1.1104 9.79638 -3.96588 26.5225
580 2 2.2208 8.21372 -2.52163 21.8903
582 1 -1.1104 9.72203 -1.28572 23.4325
583 1 -1.1104 9.60907 -1.39518 26.5296
584 2 2.2208 10.928 0.211369 27.7357
8784 2 2.2208 -0.253644 6.02053 27.7147
556 2 2.2208 2.56857 3.21813 27.69
428 1 -1.1104 3.78266 7.25788 20.7867
417 1 -1.1104 0.977202 4.81595 20.9192
532 1 -1.1104 1.19162 1.19601 23.2267
536 1 -1.1104 0.907949 1.94204 26.3383
542 2 2.2208 5.28768 3.076 24.9653
546 1 -1.1104 4.01851 1.57006 23.4979
549 1 -1.1104 3.82462 1.4709 26.1192
551 2 2.2208 2.5652 3.06081 21.9892
595 2 2.2208 5.32241 6.01139 22.0881
599 1 -1.1104 1.09189 7.4164 26.465
601 1 -1.1104 1.12107 4.42656 23.3975
606 1 -1.1104 0.945616 4.74146 26.2844
611 2 2.2208 2.43583 5.90135 24.8411
613 1 -1.1104 3.99893 7.20503 26.4295
615 1 -1.1104 3.85403 4.54035 23.5442
617 1 -1.1104 3.91961 4.31114 26.4301
597 1 -1.1104 1.03431 7.2532 23.6218
610 1 -1.1104 3.94757 7.25285 23.5484
8908 2 2.2208 -0.391321 3.00578 24.6946
619 2 2.2208 5.34371 5.86381 27.7565
376 1 -1.1104 12.5368 1.69478 20.8692
9026 2 2.2208 13.6631 3.19627 22.0155
443 1 -1.1104 12.2435 7.56548 20.831
598 1 -1.1104 6.81129 7.52024 23.3928
608 1 -1.1104 6.91441 4.44314 26.2932
603 1 -1.1104 6.64374 4.52672 23.4775
600 1 -1.1104 6.65482 7.34779 26.2548
534 1 -1.1104 7.11652 1.76344 23.4894
538 1 -1.1104 6.73816 1.50914 26.3287
448 1 -1.1104 12.2605 4.54142 20.7346
568 1 -1.1104 12.3513 1.65432 23.7086
570 1 -1.1104 12.3275 1.72302 26.3828
573 2 2.2208 10.9856 3.06544 24.9488
576 1 -1.1104 9.60864 1.81004 23.1827
579 1 -1.1104 9.5903 1.73803 26.1531
581 2 2.2208 8.01419 3.19325 21.9839
627 1 -1.1104 9.54544 4.48922 26.3376
629 1 -1.1104 9.53577 4.66059 23.4716
631 1 -1.1104 9.40642 7.23105 26.2248
633 2 2.2208 8.15905 5.95064 24.9261
634 2 2.2208 10.9082 5.97132 22.0874
636 1 -1.1104 12.381 7.26954 23.6149
637 1 -1.1104 12.231 7.56096 26.2037
638 1 -1.1104 12.3332 4.20233 23.4977
641 1 -1.1104 12.2308 4.55441 26.5005
643 1 -1.1104 9.53198 7.47262 23.479
644 2 2.2208 10.8364 6.00591 27.7559
586 2 2.2208 8.11837 3.18975 27.6919
8873 2 2.2208 13.6258 5.98598 24.9357
9009 2 2.2208 -0.420901 8.90078 24.9961
435 1 -1.1104 3.87603 10.0779 20.7815
419 1 -1.1104 1.03605 10.3546 20.8247
423 1 -1.1104 6.56102 10.2044 20.7713
596 2 2.2208 5.15115 11.4788 22.1271
602 1 -1.1104 0.928154 10.1402 23.7097
605 2 2.2208 5.30349 8.68566 24.9408
607 1 -1.1104 1.00555 10.2934 26.5552
612 2 2.2208 2.46255 11.668 24.9209
614 2 2.2208 2.40903 8.81601 22.1563
616 1 -1.1104 3.72871 10.0411 23.4752
618 1 -1.1104 3.85906 9.96148 26.3533
527 1 -1.1104 3.89219 12.9765 26.3295
621 1 -1.1104 1.01177 13.1547 23.4431
652 1 -1.1104 3.70718 12.9129 23.3715
656 1 -1.1104 1.20336 13.0957 25.9865
651 1 -1.1104 6.50544 13.1091 26.1472
646 1 -1.1104 6.46092 12.964 23.3182
322 2 2.2208 5.26558 11.8857 27.7451
323 2 2.2208 8.07391 8.66577 27.7184
462 1 -1.1104 9.50268 10.0899 20.7518
609 1 -1.1104 6.69434 10.1619 26.3111
604 1 -1.1104 6.88225 10.152 23.8193
506 1 -1.1104 12.1063 13.2419 20.8032
626 1 -1.1104 9.46229 10.1561 26.4862
628 1 -1.1104 9.45087 10.3329 23.4301
630 2 2.2208 8.14679 8.7821 22.1172
632 2 2.2208 7.9653 11.7372 25.2032
635 2 2.2208 10.6648 11.6576 22.0427
639 1 -1.1104 12.3289 10.2605 23.4864
640 2 2.2208 10.9332 8.94777 24.862
642 1 -1.1104 12.2127 10.2671 26.4954
398 1 -1.1104 12.1032 12.7866 23.6179
557 1 -1.1104 12.4536 13.3783 26.2388
587 1 -1.1104 9.20418 12.9989 23.8181
594 1 -1.1104 9.45331 13.1164 26.4598
657 1 -1.1104 6.54788 18.5 23.4917
402 2 2.2208 2.43737 14.4477 27.6706
437 2 2.2208 5.34076 17.2933 27.7809
464 2 2.2208 2.52811 14.2365 22.1939
8831 2 2.2208 -0.388235 17.3974 22.0479
648 2 2.2208 5.35291 14.3892 24.8371
658 2 2.2208 5.07058 20.0182 24.9675
655 1 -1.1104 1.05597 15.75 26.177
654 1 -1.1104 0.976852 18.5004 26.4222
650 1 -1.1104 3.94205 18.3982 23.6269
645 1 -1.1104 1.17194 19.025 23.7646
620 2 2.2208 5.39222 17.1748 22.036
589 1 -1.1104 3.82648 18.6111 26.3431
465 2 2.2208 2.56037 20.0836 22.1513
499 1 -1.1104 3.93405 15.6482 23.551
501 1 -1.1104 1.12231 16.0182 23.1722
528 1 -1.1104 3.74059 15.8983 26.4262
529 2 2.2208 2.46705 17.2055 24.7166
8893 2 2.2208 13.5952 17.4485 25.0071
649 1 -1.1104 9.67149 16.0992 23.3982
525 1 -1.1104 9.27351 15.7738 20.8358
508 1 -1.1104 12.2465 18.8198 20.7671
394 2 2.2208 10.8366 17.4124 22.1477
305 2 2.2208 8.17058 20.0529 27.4809
592 2 2.2208 8.08738 17.3195 24.8623
593 1 -1.1104 6.67064 18.673 26.3272
564 2 2.2208 11.0087 20.2738 24.9103
623 2 2.2208 8.031 14.3082 22.165
526 1 -1.1104 6.78572 15.8127 23.6498
558 1 -1.1104 12.3498 18.8844 26.5912
399 1 -1.1104 12.1941 18.8353 23.7302
625 2 2.2208 8.08263 20.1504 22.0937
565 1 -1.1104 12.2889 16.0749 26.4729
591 1 -1.1104 9.35639 18.6978 23.5921
653 1 -1.1104 6.65937 15.8284 26.4748
513 1 -1.1104 12.3729 16.0058 20.7293
562 1 -1.1104 12.4272 15.8121 23.7184
563 2 2.2208 10.9208 14.4274 25.0531
366 1 -1.1104 9.47329 15.9041 26.3534
622 1 -1.1104 9.62795 18.5992 26.2177
660 2 2.2208 5.19888 22.8925 5.0286
662 1 -1.1104 1.22712 24.1808 0.929668
663 1 -1.1104 1.15254 24.3022 3.9134
664 1 -1.1104 1.14697 21.5006 1.09615
666 2 2.2208 5.33374 25.8254 2.31956
667 1 -1.1104 1.2057 21.5228 3.90401
669 1 -1.1104 3.95568 24.4211 0.836938
670 2 2.2208 2.52901 22.9915 2.41837
672 1 -1.1104 3.93101 24.3778 3.51893
673 2 2.2208 2.54091 25.8823 5.26704
674 1 -1.1104 4.07685 21.606 1.10015
676 1 -1.1104 4.00344 21.3764 3.82275
675 1 -1.1104 3.85202 27.0795 0.968664
668 1 -1.1104 1.25904 27.0663 3.76157
665 1 -1.1104 1.06655 27.015 0.81065
677 1 -1.1104 3.96036 27.1197 3.92824
9443 2 2.2208 -0.220071 25.5752 2.40001
9442 2 2.2208 -0.208772 22.9341 5.36123
808 1 -1.1104 3.75451 21.2954 6.57509
801 1 -1.1104 1.31092 24.3231 6.56639
807 1 -1.1104 3.96011 24.1589 6.56714
802 1 -1.1104 6.53118 24.4248 6.30786
9829 2 2.2208 -0.261448 22.8619 -0.43435
681 1 -1.1104 6.75803 23.9196 0.747871
682 1 -1.1104 6.78664 24.1805 3.56142
683 1 -1.1104 6.93092 21.3848 0.754002
686 1 -1.1104 6.82615 27.0828 3.7495
685 1 -1.1104 6.75665 21.3762 3.68517
687 2 2.2208 10.9422 23.0294 5.09284
689 1 -1.1104 12.5096 24.3557 1.03325
690 1 -1.1104 12.5094 24.2088 3.88442
691 1 -1.1104 12.5391 21.3698 0.952564
693 2 2.2208 11.0205 25.4855 2.19987
694 1 -1.1104 12.3045 21.4508 3.83159
696 1 -1.1104 9.57385 24.352 0.841347
697 2 2.2208 8.08327 22.7771 2.341
699 1 -1.1104 9.80335 24.3497 3.74201
700 2 2.2208 8.19251 25.778 5.07166
701 1 -1.1104 9.60124 21.5199 0.940201
703 1 -1.1104 9.40282 21.5939 3.72584
702 1 -1.1104 9.62838 27.0646 0.757594
684 1 -1.1104 6.7405 27.0263 1.01999
704 1 -1.1104 9.89089 26.9585 3.72276
837 1 -1.1104 9.39883 24.4491 6.41388
836 1 -1.1104 12.5331 27.097 6.5418
838 1 -1.1104 9.56713 21.4912 6.52407
834 1 -1.1104 12.2415 24.4853 6.38842
9448 2 2.2208 -0.158376 31.3362 2.59647
661 2 2.2208 5.52593 28.6452 5.24695
671 2 2.2208 2.58976 28.3795 2.26166
709 1 -1.1104 1.1353 29.7111 1.02853
712 1 -1.1104 1.09355 29.8172 4.0237
715 1 -1.1104 1.39027 32.5237 1.11877
716 2 2.2208 5.37842 31.4407 2.29854
718 1 -1.1104 1.1553 32.6687 3.80447
720 1 -1.1104 3.91026 29.9095 0.979965
723 1 -1.1104 3.88471 29.7994 3.94079
725 2 2.2208 2.50094 31.2477 5.16495
727 1 -1.1104 4.12667 32.9018 1.08994
728 1 -1.1104 3.95382 32.7056 3.76688
864 1 -1.1104 4.25041 30.1569 6.60905
9828 2 2.2208 -0.108786 28.5715 -0.405981
1229 2 2.2208 2.5949 31.1904 -0.38953
9440 2 2.2208 -0.240435 28.419 5.17233
866 1 -1.1104 3.86113 32.7944 6.48288
692 1 -1.1104 12.4183 27.2474 0.711273
695 1 -1.1104 12.3471 27.2749 3.79561
839 1 -1.1104 9.74932 27.1892 6.48814
719 1 -1.1104 6.6836 32.9162 3.65948
733 1 -1.1104 6.97488 29.8125 3.87391
734 1 -1.1104 6.92751 32.6168 0.970608
732 1 -1.1104 6.64909 30.0325 0.967058
688 2 2.2208 10.9986 28.5719 5.01798
698 2 2.2208 8.19096 28.5184 2.29511
736 1 -1.1104 12.4492 29.9882 0.97682
738 1 -1.1104 12.4888 30.012 3.87091
740 1 -1.1104 12.6089 32.6532 0.944787
741 2 2.2208 11.1868 31.2729 2.40269
743 1 -1.1104 12.3333 32.8592 3.78298
744 1 -1.1104 9.57799 29.8948 1.08912
747 1 -1.1104 9.60811 30.0731 3.70003
749 2 2.2208 8.16344 31.377 5.24547
751 1 -1.1104 9.75101 32.5805 0.875179
752 1 -1.1104 9.34538 32.6707 3.75955
897 1 -1.1104 9.70157 32.8647 6.34699
9445 2 2.2208 13.5389 28.5388 2.28944
1259 2 2.2208 8.29787 31.3266 -0.383215
863 1 -1.1104 6.73262 32.8159 6.47853
708 2 2.2208 5.37836 34.0998 5.15335
710 1 -1.1104 1.17045 35.4728 0.977679
713 1 -1.1104 1.24293 35.5679 3.68281
717 2 2.2208 5.26649 36.9462 2.27203
721 1 -1.1104 4.032 35.5892 0.916353
722 2 2.2208 2.72322 34.0382 2.4292
724 1 -1.1104 4.10983 35.6246 3.72863
726 2 2.2208 2.47229 36.954 5.26227
754 2 2.2208 5.30952 39.7373 5.22415
760 1 -1.1104 1.33666 38.2784 0.802604
765 1 -1.1104 1.21879 38.5719 3.75837
770 2 2.2208 2.59535 39.8713 2.32219
774 1 -1.1104 4.10221 38.2997 0.730635
776 1 -1.1104 3.89413 38.3136 3.68063
9453 2 2.2208 -0.108196 39.7907 5.15964
9447 2 2.2208 -0.160036 37.1801 2.35433
9449 2 2.2208 -0.304004 34.1534 5.16084
859 1 -1.1104 0.912675 35.5648 6.32496
932 1 -1.1104 1.13349 38.2847 6.42545
938 1 -1.1104 3.88228 38.4881 6.59671
9835 2 2.2208 -0.111672 34.0645 -0.299167
762 1 -1.1104 6.84379 38.5383 0.761763
714 1 -1.1104 6.91546 35.6165 3.62379
711 1 -1.1104 6.82047 35.4481 0.683252
767 1 -1.1104 6.64702 38.3714 3.6671
735 2 2.2208 11.0639 34.2307 5.07457
737 1 -1.1104 12.46 35.5734 0.561552
739 1 -1.1104 12.5648 35.5156 3.64951
742 2 2.2208 10.9656 36.9511 2.18088