ITEM: TIMESTEP
100000
ITEM: NUMBER OF ATOMS
18000
ITEM: BOX BOUNDS pp pp pp
-4.5671700241611324e-01 2.7796717002416244e+01
-5.4424017461948813e+00 3.3352240174619436e+02
-4.5198225107026563e-01 2.7791982251069815e+01
ITEM: ATOMS id type x y z
3673 2 5.27703 0.0719772 5.59424
6 1 2.57143 -1.84916 1.54485
14 2 4.84728 -2.64161 2.49216
8 1 1.01439 -1.28733 4.2101
63 2 2.12845 0.0837557 3.01855
10 1 3.98657 -4.16089 4.21708
3604 2 2.50955 -2.96777 5.50847
12 1 3.89422 -1.47083 4.21461
3548 1 1.1022 -4.05756 4.11849
3551 1 4.01542 -4.61705 1.43807
17948 1 0.682699 -3.57994 0.834989
9 1 4.59251 -0.107296 1.83232
14410 1 0.159347 -0.730338 1.56134
7312 2 -0.410505 0.212556 11.0621
19 1 4.92115 -2.05682 0.0768342
18 1 6.80235 -1.32338 4.01855
4 2 2.95934 -0.212028 -0.0663789
3661 2 -0.369693 0.182654 5.45168
3862 1 9.4286 18.4083 9.68038
85 2 11.0978 0.188929 -0.203452
3571 1 6.57828 -3.96454 1.39069
30 1 7.31419 -1.19712 1.20229
17 1 7.08082 -4.34545 4.08921
3560 1 9.56737 -4.15395 4.0078
3685 2 11.0294 0.0911508 5.3938
29 2 11.3115 -2.73721 2.59143
26 2 8.07476 -2.78098 2.65824
21 1 9.68517 -1.52118 1.26364
75 2 8.17441 0.277807 2.73807
22 1 12.2845 -1.40123 4.16841
3616 2 8.17663 -2.89757 5.85355
24 1 9.42786 -1.43579 4.03403
3572 1 12.3976 -4.20845 3.86964
35 1 12.377 -1.12798 1.33708
31 1 11.9011 -3.9746 0.899559
3564 1 9.1802 -4.19761 1.24009
73 2 5.98118 0.072974 -0.0942304
253 2 5.72645 17.2191 -0.00575686
69 1 1.73475 1.4238 1.27872
65 1 1.30295 4.27035 1.35015
66 1 0.742182 1.62407 3.88902
74 2 5.50982 2.89294 2.44899
70 1 3.51183 1.31509 4.22397
3664 2 2.37929 3.03017 5.45139
3733 2 5.30854 5.67288 5.59438
68 1 0.972984 4.58862 4.1916
129 1 4.13142 7.30923 1.12841
123 2 2.40711 5.89174 2.75715
71 1 3.98865 4.47916 1.01954
72 1 3.78755 4.18278 4.04264
130 1 3.65849 7.16097 4.0796
126 1 0.879847 7.41435 4.18597
67 1 1.29412 7.31511 1.21108
121 2 -0.208929 5.96292 -0.227597
133 2 5.44003 5.75596 -0.213673
11 1 4.38693 1.96185 0.189256
2 2 -0.418403 -2.88765 2.94857
78 1 6.64632 4.17314 3.96357
3602 2 -0.254863 -2.65302 8.43662
80 1 6.69541 4.19592 1.07848
138 1 6.57492 7.04528 4.07708
20 1 6.56467 1.48924 4.05814
137 1 6.88985 7.0649 1.29419
77 1 6.9878 1.52593 1.18848
23 1 9.82024 1.64724 1.43538
89 1 12.4184 1.67569 1.26581
90 1 12.416 4.5264 4.07065
86 2 11.0585 3.12949 2.67187
32 1 12.4306 1.62908 3.98474
81 1 9.58231 4.35949 1.23037
82 1 9.53047 1.41092 4.06919
3676 2 8.08779 2.93667 5.50118
14492 1 12.5553 7.12181 1.13897
3745 2 10.8391 5.80204 5.48356
91 1 12.2097 4.4742 1.27804
92 1 12.229 7.32323 3.94991
135 2 8.15785 5.73566 2.69491
142 1 9.43469 7.10928 4.15331
83 1 9.62166 7.0898 1.26687
84 1 9.51257 4.38277 4.12846
145 2 11.0726 5.96098 -0.215175
3691 1 12.0742 4.23591 6.76737
241 2 -0.25753 17.5156 -0.348659
3793 2 5.12049 11.4585 5.34818
134 2 5.36769 8.51593 2.58911
128 1 0.950595 10.043 3.96429
183 2 2.49507 11.4728 2.61317
3724 2 2.30662 8.72144 5.34857
131 1 3.94679 9.9951 1.15329
132 1 3.76522 10.1904 4.03075
186 1 1.02865 12.7177 4.13167
189 1 4.12196 12.6712 1.14243
190 1 3.77241 12.9257 4.13797
177 1 0.990927 10.0487 1.37431
14580 1 1.56337 13.5564 1.74607
194 2 5.16876 14.3422 2.65902
124 2 2.45756 8.61006 -0.339544
7456 2 8.03159 19.7796 11.1217
140 1 6.61747 9.92504 3.96431
3784 2 2.36326 14.392 5.32832
7288 2 13.6718 3.0031 11.2114
193 2 5.43443 11.3497 -0.234024
64 2 2.5213 3.43223 -0.256238
185 2 0.0269875 14.2451 0.0519877
79 2 8.39443 2.97263 -0.221417
3841 2 -0.357343 17.2202 5.33526
198 1 6.64476 12.9387 3.85196
197 1 6.88192 12.6974 0.961305
139 1 6.90839 10.0103 1.19163
136 2 8.2114 8.49504 -0.240396
149 1 9.60943 10.1182 1.00333
3805 2 10.8909 11.3357 5.3071
150 1 12.2991 9.8635 1.23239
151 1 12.5788 12.7801 1.05237
146 2 11.0165 8.57738 2.50887
152 1 12.2768 10.1134 3.99384
141 1 9.35039 9.9546 3.62283
195 2 8.12858 11.3969 2.41756
3736 2 7.93577 8.47363 5.33374
143 1 9.67306 12.9219 1.18047
144 1 9.56824 12.9416 3.97469
210 1 12.3473 12.875 3.9176
209 2 10.9357 11.4468 -0.184958
206 2 11.0568 14.2615 2.521
3861 1 9.67109 18.4846 6.96684
5 2 2.69348 -3.52092 -0.218364
127 1 1.05535 16.1385 0.934669
3853 2 5.64309 17.4041 5.25474
245 1 1.09948 18.9908 0.873228
246 1 1.21828 18.4881 3.84233
254 2 4.72413 19.8991 2.52868
188 1 0.953859 15.717 3.85889
249 1 3.7602 18.5057 1.11602
243 2 2.6381 17.0706 2.50104
250 1 3.82524 18.365 4.00993
3844 2 2.42397 19.9988 5.40237
191 1 3.99426 15.6374 1.00428
192 1 3.72528 15.5977 3.89407
258 1 6.06565 17.8561 2.27297
251 1 6.10913 19.9362 0.630343
264 1 6.24057 19.728 4.22298
3849 1 3.96038 18.6279 6.8505
200 1 6.54648 15.7225 3.9973
3721 2 -0.383467 5.87622 5.49434
3811 1 11.9772 16.0558 6.74847
7469 1 12.5204 18.5087 12.4977
3796 2 8.13419 14.1764 5.15192
262 1 10.4165 19.7714 4.64915
199 1 6.91673 15.4008 1.15812
3855 2 8.12853 17.3139 8.25851
202 1 9.59234 15.5375 4.05713
257 1 8.08163 18.1456 0.703782
201 1 9.62184 15.7094 1.11454
3865 2 10.7329 17.5399 5.1642
269 1 12.4603 18.3918 0.991009
270 1 12.6225 18.4433 3.87308
211 1 12.4978 15.6569 1.00846
266 2 11.326 19.8866 2.46826
212 1 12.532 15.6007 3.76279
255 2 8.13449 16.7346 2.55619
3856 2 8.1905 20.1309 5.62675
203 1 10.011 18.148 2.57063
204 1 8.13518 17.9133 4.6231
259 2 7.79224 19.886 2.45922
265 2 11.1619 17.0506 -0.272772
3799 1 6.84088 15.5901 7.09197
3617 1 6.73642 -4.19216 7.11731
3803 1 9.30823 15.2829 6.89937
3609 1 3.95435 -4.17037 7.08862
3605 1 0.983608 -4.022 7.0562
3611 1 3.95887 -1.57794 6.97606
3607 1 1.21021 -1.31525 6.80186
7273 2 5.24958 0.0529569 11.12
7205 1 0.993199 -4.08471 12.4983
3606 1 1.09394 -1.14937 9.57086
7207 1 0.843791 -1.29539 12.362
3614 2 5.3327 -2.78288 8.50316
7209 1 3.83775 -4.2208 12.6899
3663 2 2.50471 0.0185558 8.2007
3610 1 3.94393 -4.06354 9.99648
7204 2 2.42768 -2.64316 11.1961
7211 1 3.77694 -1.27281 12.485
3612 1 3.73574 -1.23272 9.60733
3658 1 1.11009 -4.02509 9.70865
7269 1 3.85266 1.59145 12.5128
3869 1 12.3899 18.684 6.78455
3619 1 6.85964 -1.41218 7.01763
7217 1 6.86059 -4.13403 12.5853
3623 1 9.58669 -1.44875 6.98725
7219 1 6.53507 -1.38454 12.5748
3618 1 6.77241 -4.23257 9.90633
3631 1 12.2789 -1.38662 6.95211
3621 1 9.67654 -4.22143 6.90885
3620 1 6.66054 -1.31021 9.84384
3629 1 12.3994 -4.01192 6.81548
7164 1 9.50571 -4.20904 9.77817
7285 2 10.9235 -0.0441699 11.0977
7229 1 12.3563 -4.29189 12.3985
7231 1 12.2456 -1.28559 12.6612
3626 2 10.9553 -2.98769 8.35952
3632 1 12.2947 -1.53528 9.81535
7221 1 9.59101 -3.95547 12.4728
3675 2 8.24125 0.073111 8.40285
3622 1 12.5845 -4.16062 9.54345
7216 2 8.25807 -2.77167 11.0869
7223 1 9.46423 -1.19752 12.5236
3624 1 9.66736 -1.57547 9.67474
3665 1 0.976262 1.5245 6.72069
3669 1 3.862 1.38957 6.91712
3671 1 3.72328 4.31505 6.93611
3725 1 1.20159 7.07772 6.97822
3729 1 4.16009 7.19795 6.80506
3667 1 1.06193 4.2386 6.96077
7265 1 1.07213 1.59258 12.4236
3666 1 3.90514 4.33538 9.73539
3674 2 5.24704 2.82246 8.31574
3608 1 0.88336 1.50206 9.62072
3670 1 3.94807 1.54225 9.84464
7264 2 2.55519 2.93898 11.0857
7333 2 5.29289 5.69569 11.1198
7325 1 1.22116 7.34063 12.4337
7267 1 1.10973 4.55088 12.5828
3668 1 0.736363 7.19281 9.48668
7329 1 3.77416 7.08255 12.2493
3723 2 2.51009 5.74735 8.2331
7271 1 4.01238 4.4165 12.6087
7261 1 1.20795 4.42421 9.69996
3672 1 3.71172 7.36881 9.45439
3679 1 6.77619 4.31397 6.90099
3678 1 6.66097 1.39949 9.80624
3738 1 6.58511 7.03801 9.49283
3802 1 9.28411 15.4885 9.51044
7321 2 -0.262173 5.88837 11.1999
7279 1 6.78517 4.35045 12.3358
7337 1 6.62092 7.30742 12.413
3677 1 6.65203 1.47523 6.97434
3741 1 9.58832 7.14269 6.88748
3749 1 12.2627 7.06522 6.8169
3683 1 9.47844 4.21541 6.94982
7277 1 6.62484 1.58877 12.3397
3681 1 9.52636 1.42845 6.91022
3689 1 12.3262 1.45727 6.87174
3737 1 6.85834 7.22606 6.80023
3680 1 6.58081 4.06953 9.58411
3690 1 12.2779 1.23022 9.65057
7289 1 12.4979 1.34859 12.5835
3686 2 10.8474 2.90769 8.2323
7281 1 9.70283 1.43566 12.3195
3682 1 9.60588 1.4607 9.6091
7276 2 8.08667 2.80333 11.0057
3684 1 9.41488 4.25949 9.57116
7283 1 9.44724 4.2785 12.4491
3742 1 9.47496 6.99145 9.65008
3735 2 8.07466 5.69649 8.31778
7345 2 10.865 5.60368 11.038
7291 1 12.0231 4.03424 12.2028
3692 1 12.2746 4.27086 9.59349
7341 1 9.33734 6.96201 12.3652
3750 1 12.2572 7.05254 9.52993
7349 1 11.9907 7.35491 11.9625
3804 1 12.1241 15.8505 9.75237
3789 1 3.679 12.8723 6.75283
3727 1 1.06659 9.894 6.9328
3731 1 3.8557 10.2039 6.84169
3785 1 0.974049 12.9024 6.72681
7393 2 5.25331 11.4665 11.0472
3726 1 0.956061 10.1091 9.79637
7327 1 0.995226 10.1361 12.5142
3734 2 5.20151 8.68882 8.29558
3728 1 0.898481 12.8141 9.49925
3783 2 2.2509 11.44 8.19036
7324 2 2.38138 8.80773 11.1419
7331 1 3.85531 9.98086 12.3556
3732 1 3.89032 10.0411 9.82361
7389 1 3.64761 12.8593 12.3415
3786 1 3.65516 12.759 9.53988
7385 1 0.885821 13.0183 12.2173
3790 1 6.74518 12.8014 9.75782
3794 2 4.89684 14.2175 8.24857
7384 2 2.32895 14.2207 10.9651
7397 1 6.41807 12.9406 12.5174
7403 1 9.53598 15.5753 12.481
3806 2 11.2324 14.4216 8.07237
7396 2 7.89894 14.3741 11.5145
3809 1 11.9812 12.6263 6.77561
3743 1 9.57377 9.94306 6.71342
3751 1 12.3516 9.92596 6.8344
3801 1 9.19411 12.5143 6.82462
3797 1 6.66106 12.8113 6.92845
7339 1 6.78421 10.0326 12.5336
3739 1 6.48009 10.0094 6.84789
3730 1 6.57833 9.97794 9.67813
3740 1 9.28049 12.7721 9.45094
3744 1 9.45218 9.86764 9.56355
7343 1 9.67194 10.0403 12.5511
7336 2 8.28193 8.50159 11.1413
3795 2 7.98609 10.9242 8.22838
7405 2 10.8836 11.5675 11.1531
7351 1 12.3565 9.95417 12.4651
3746 2 10.9666 8.51247 8.13882
3752 1 12.08 10.1798 9.49516
7409 1 12.4399 12.8266 12.5841
3810 1 12.1568 12.9389 9.80064
7401 1 9.28927 12.9364 12.4105
3798 2 8.06168 13.9605 8.3097
7461 1 9.59956 18.281 12.7751
7411 1 12.4283 15.6602 12.4737
3800 1 6.65746 15.5099 9.77601
3870 1 12.2924 18.5455 9.61434
3791 1 4.01687 15.7703 6.88638
3787 1 0.914217 15.8234 6.74903
7457 1 6.65187 18.7303 12.6983
7399 1 6.46247 15.8197 12.5523
3845 1 1.02077 18.4405 6.80839
3857 1 6.74963 18.56 7.05727
7449 1 3.75353 18.5748 12.587
3846 1 0.906222 18.5188 9.69027
3788 1 0.899565 15.5596 9.47577
3854 2 5.29419 19.8966 8.26717
7445 1 0.72245 18.475 12.3155
7453 2 5.10627 17.2054 11.2206
3850 1 3.79762 18.5092 9.61979
3843 2 2.30274 17.1851 8.09923
3792 1 3.73227 15.6824 9.58636
7387 1 0.965104 15.6687 12.2676
7391 1 3.87581 15.7172 12.494
7444 2 2.42294 19.9503 11.1048
3858 1 6.57372 18.2481 9.68521
7465 2 10.9714 17.1235 11.1698
3866 2 10.871 19.9449 8.15835
7381 2 -0.381444 11.6014 11.0227
182 2 -0.46165 14.2445 3.06993
7348 2 13.4242 8.75643 10.8947
7228 2 13.6252 -2.75765 11.2749
61 2 -0.163179 1.07224 -0.150783
3662 2 -0.385853 3.06458 8.40066
3842 2 -0.446482 19.9666 8.30892
3747 2 13.5982 5.64785 8.23001
242 2 -0.28103 20.0314 2.44621
3808 2 13.5623 14.2648 5.40739
7408 2 13.6633 14.2267 10.9348
88 2 13.6312 3.07073 -0.251883
16 2 8.10816 -2.77369 -0.509979
10873 2 5.36411 0.211218 16.7107
10805 1 0.977537 -3.98298 17.9784
7206 1 0.921082 -4.05123 15.2563
10807 1 1.05003 -1.27544 17.9444
10814 2 5.3326 -2.47729 19.549
7208 1 1.08979 -1.3829 15.217
10809 1 3.68587 -3.83726 18.3149
10863 2 2.51081 0.0358978 19.3793
7210 1 3.88122 -4.06297 15.562
10804 2 2.47601 -2.74089 16.6993
10811 1 3.97763 -1.11829 18.0167
7212 1 3.88244 -1.28406 15.2754
7214 2 5.26485 -2.66779 14.0803
14607 2 13.6524 11.487 25.2917
7263 2 2.59275 0.2159 13.9006
14521 2 -0.371686 5.70641 22.2595
10808 1 1.04345 -1.28119 20.8421
7218 1 6.64116 -4.09825 15.4289
10819 1 6.82724 -1.04447 18.1978
7220 1 6.55253 -1.35397 15.3672
10817 1 6.38917 -3.9808 18.2927
10885 2 10.7639 0.179731 16.5542
10829 1 12.3304 -4.05773 18.065
7230 1 12.1949 -3.97265 15.1337
10831 1 12.2795 -1.23239 18.1116
10826 2 10.9409 -2.7048 19.5874
7232 1 12.0346 -1.1496 15.2634
10821 1 9.41489 -4.12499 18.245
10875 2 8.20463 0.140677 19.5514
7222 1 9.37752 -4.05527 15.387
10816 2 8.04065 -2.71722 16.8464
10823 1 9.53605 -1.39286 17.9513
7224 1 9.35233 -1.2553 15.3113
7275 2 8.01443 0.124496 13.7231
7278 1 6.67104 1.68408 15.2504
7226 2 10.6201 -2.70166 14.0621
244 2 2.58321 20.0247 27.8462
7266 1 0.974886 1.43701 15.2996
10869 1 3.84892 1.7024 18.0802
10865 1 1.02223 1.41719 18.2349
10874 2 5.13084 3.0756 19.4781
7270 1 3.88593 1.53008 15.3676
10864 2 2.24488 2.92944 16.7028
10933 2 5.1222 5.87205 16.6158
10925 1 1.07659 7.17134 18.1758
10867 1 0.700005 4.39282 18.0056
7268 1 0.967435 4.31884 15.2962
10929 1 3.77053 7.15962 17.9738
10923 2 2.18989 5.80959 19.4368
10871 1 3.44692 4.52436 17.9848
7272 1 3.67137 4.20613 15.3019
7330 1 3.95774 7.19235 15.1815
7326 1 1.21931 7.16758 15.369
10877 1 6.7273 1.6711 18.1045
7274 2 5.23787 2.95958 13.9296
7323 2 2.50036 5.82613 13.9117
14603 1 9.57337 15.5292 23.5704
10879 1 6.5552 4.56327 17.9262
7338 1 6.63911 7.24285 15.2705
10937 1 6.65792 7.18405 18.0188
7335 2 8.09536 5.70306 13.8929
7280 1 6.5556 4.38418 15.2371
10889 1 12.2532 1.82742 18.119
7290 1 12.2915 1.40442 15.3657
10881 1 9.55041 1.50177 18.1698
10886 2 10.8453 2.91545 19.4585
7282 1 9.20861 1.56657 15.1625
10876 2 8.04564 3.13365 16.688
10945 2 10.831 5.89435 16.5965
10949 1 12.2578 7.268 17.9844
10891 1 12.1259 4.52723 18.1575
7292 1 11.8797 4.18786 15.6178
10941 1 9.40844 7.33126 18.3147
10935 2 8.178 5.81559 19.4011
10883 1 9.22902 4.40967 18.0435
7284 1 9.3811 4.39179 15.3721
7342 1 9.35851 7.12959 15.4044
7350 1 12.048 7.32139 15.2568
10880 1 6.53653 4.43907 20.7228
7286 2 10.9065 2.82132 13.8821
10882 1 9.58735 1.56657 20.9213
14656 2 8.11963 19.6945 22.4151
10993 2 5.26357 11.373 16.7066
10927 1 0.757669 10.0685 18.0893
10934 2 5.39716 8.49863 19.4927
7328 1 1.0245 10.1022 15.2074
10983 2 2.42519 11.4417 19.1875
10924 2 2.6158 8.5372 16.5929
10931 1 3.7197 9.95702 17.8957
7332 1 3.85402 9.99688 15.1957
10985 1 1.0697 12.7787 17.695
7386 1 1.01232 12.9406 15.0232
10989 1 3.8133 12.8428 18.1245
7390 1 3.84489 12.858 15.1733
7398 1 6.75456 13.0232 15.147
10984 2 2.19162 14.3671 16.4497
10939 1 6.67873 9.96146 18.0879
7340 1 6.47108 9.84692 15.3663
7394 2 5.21256 14.3611 13.9827
7334 2 5.33325 8.52333 13.8197
10994 2 5.10816 14.4013 19.2839
10986 1 1.09533 12.8512 20.3419
7383 2 2.41778 11.4638 13.7445
10981 2 -0.408204 11.3602 16.4874
7395 2 8.06839 11.2108 13.9615
10997 1 6.67375 12.8849 17.9574
11005 2 10.8259 11.3278 16.5988
10951 1 12.3157 10.1217 18.2757
10946 2 10.8572 8.65445 19.6134
7352 1 12.3467 9.7999 15.4015
10995 2 7.93841 11.3589 19.4953
10936 2 8.1477 8.57639 16.7356
10943 1 9.47602 10.0796 18.051
7344 1 9.37046 9.98502 15.2057
11009 1 12.1892 12.9167 18.0798
7410 1 12.2637 12.8163 15.1873
11001 1 9.47628 12.7577 18.087
7402 1 9.45872 12.7135 15.1025
7406 2 10.9276 14.3147 13.9434
10944 1 9.40259 10.083 21.0579
7346 2 10.9726 8.53703 13.848
7202 2 -0.432419 -2.6135 14.0216
10888 2 13.5771 3.08151 16.5803
7443 2 2.23962 17.073 13.6755
7454 2 5.19238 20.0806 13.8655
11053 2 5.17482 17.2494 16.4824
11045 1 0.651865 18.5285 18.0749
7446 1 0.857935 18.5157 15.2296
10987 1 0.863493 15.7224 17.9537
11054 2 5.28426 19.9659 19.3244
7388 1 0.85741 15.7767 15.1657
11049 1 3.71421 18.4241 18.1705
11043 2 2.27238 17.0686 19.3159
7450 1 3.60214 18.5348 15.3334
11044 2 2.39868 19.8742 16.7957
10991 1 3.84426 15.6861 17.7649
7392 1 3.78431 15.7358 15.1927
7262 2 -0.31942 2.8868 14.0313
11046 1 0.744854 18.6845 20.9313
7466 2 10.9558 19.7719 13.8815
10999 1 6.53765 15.6929 17.8223
7400 1 6.67339 15.802 15.1304
7458 1 6.42995 18.6664 15.4205
11057 1 6.66028 18.5654 18.1888
10996 2 8.02468 14.2245 16.6612
11006 2 10.7818 14.1439 19.4189
11065 2 10.8585 16.9606 16.6508
11069 1 12.2727 18.5522 17.9509
7470 1 12.1823 18.3792 15.1718
11011 1 12.2479 15.7875 18.0156
11066 2 10.8097 19.712 19.5874
7412 1 12.2555 15.4441 15.2571
11061 1 9.52511 18.1092 18.2658
11055 2 7.90774 16.8882 19.5679
7462 1 9.30313 18.4342 15.426
11056 2 8.00769 19.9458 16.5444
11003 1 9.27727 15.5064 18.1662
7404 1 9.54945 15.7096 15.2485
7455 2 8.01886 17.1713 13.9612
14666 2 10.9921 19.9385 25.1264
10812 1 3.7554 -1.35547 20.9089
14612 1 12.2936 15.7514 26.382
10810 1 3.87848 -4.19326 21.0687
10806 1 0.953838 -4.06623 20.8847
10820 1 6.70516 -1.27447 20.9684
14458 1 0.829997 -0.728395 27.1721
17952 1 3.03726 -1.71614 26.4585
17960 1 4.07217 -4.43652 26.5788
14473 2 5.10855 0.255508 22.2993
14405 1 0.914767 -4.16974 23.5096
14407 1 1.08726 -1.06642 23.6752
14414 2 5.23519 -2.53387 25.3074
14409 1 3.59833 -3.98695 23.7988
14463 2 2.39048 0.184007 25.0605
14404 2 2.4458 -2.73948 22.2372
14411 1 3.78989 -1.20149 23.7703
17946 1 0.631531 -3.95578 26.2695
14412 1 4.3884 0.41724 26.3679
14418 1 6.77845 -4.26246 26.5256
14419 1 7.06702 -1.34774 23.9079
10887 2 13.7159 0.159762 19.4745
14641 2 -0.454062 17.1882 22.1401
14402 2 -0.411687 -2.64612 24.6994
10813 2 5.19377 -5.46369 16.8293
10818 1 6.85436 -4.26958 21.0867
10830 1 12.4115 -4.0769 20.9607
10832 1 12.489 -1.27411 20.8133
14417 1 6.62199 -4.01945 23.922
10824 1 9.37576 -1.26794 20.921
10822 1 9.5614 -4.01951 20.9416
14420 1 6.86804 -1.39195 26.4984
14430 1 12.3957 -4.15372 26.4734
14485 2 10.9369 0.0518418 22.2481
14429 1 12.3301 -3.99432 23.6793
14431 1 12.5883 -1.0252 23.4808
14426 2 11.0997 -2.72057 25.121
14432 1 12.2722 -1.25714 26.5788
14421 1 9.41785 -4.04549 23.814
14475 2 8.38335 0.185019 25.0326
14422 1 9.56901 -4.06088 26.5823
14416 2 8.11737 -2.72683 22.368
14423 1 9.80332 -1.3258 23.7796
14424 1 9.52715 -1.07958 26.8354
10868 1 0.984845 4.30678 20.7913
10926 1 1.09509 7.02351 20.9436
7322 2 -0.429984 8.65244 13.8366
10870 1 3.78836 1.44784 20.8514
10872 1 3.79668 4.30699 20.8551
10930 1 3.89445 7.04201 20.8426
10866 1 1.07261 1.63177 20.9538
14466 1 1.85085 1.51553 26.7494
14469 1 3.75098 1.556 23.692
14472 1 1.32142 4.61953 26.4347
14465 1 0.98437 1.73869 23.929
14474 2 5.35419 2.88941 25.1671
14470 1 4.12061 4.45185 26.4428
14464 2 2.40817 3.03601 22.1536
14533 2 5.2792 5.70659 22.3017
14467 1 1.03237 4.42336 23.6847
14529 1 3.80874 7.33889 23.7053
14523 2 2.7345 5.86461 25.1959
14530 1 4.05248 7.16687 26.4999
14471 1 3.89429 4.43535 23.5411
14525 1 0.93045 7.44341 23.7745
14468 1 1.23604 7.23843 26.5609
11062 1 9.46113 18.2667 20.9532
10878 1 6.55418 1.73545 20.9027
10938 1 6.63206 7.29492 20.993
14479 1 6.55237 4.2571 23.7655
10942 1 9.47781 7.18079 21.12
10884 1 9.51552 4.36572 20.8417
10890 1 12.0707 1.49066 20.8255
14538 1 6.80754 7.20174 26.6224
14537 1 6.62772 7.07108 23.8505
10892 1 12.3274 4.3693 20.9926
10950 1 12.3079 7.21084 20.9478
14477 1 6.78743 1.47581 23.7842
14480 1 6.79915 4.41684 26.558
14478 1 6.8598 1.64544 26.4882
14489 1 12.3631 1.5666 23.9359
14490 1 12.3144 1.45465 26.5523
14481 1 9.56674 1.63971 23.7147
14482 1 9.75083 1.66305 26.6857
14476 2 8.12677 3.0349 22.2471
76 2 10.9566 2.95894 25.0986
14486 1 12.3116 4.36516 26.5775
14484 1 9.63967 4.48741 26.6519
14483 1 9.42024 4.42716 23.6147
14535 2 8.104 5.82554 25.1593
14545 2 10.9502 5.92401 22.3888
14549 1 12.4223 7.13641 23.8604
14550 1 12.3314 7.21824 26.4651
14491 1 12.4368 4.33501 23.901
14541 1 9.50412 7.17052 23.8085
14542 1 9.59085 7.28948 26.7603
10928 1 1.01365 9.80586 20.9188
14585 1 0.313708 13.1299 22.9565
10921 2 -0.372139 5.7586 16.6463
181 2 -0.140623 11.3471 24.7144
10990 1 3.91018 13.0542 20.8724
10932 1 3.69464 10.1387 20.6177
14593 2 5.29985 11.3453 22.2654
14526 1 1.33203 9.99076 26.0623
14527 1 1.63858 10.4756 23.3746
14534 2 5.39742 8.52363 25.1257
14583 2 3.02553 11.4026 25.0662
14524 2 2.36086 8.56836 22.2573
14531 1 4.15064 9.99746 23.6435
14532 1 4.09666 10.0923 26.6838
14589 1 3.9845 12.9483 23.5966
14590 1 4.23039 12.6916 26.4963
14586 1 1.59371 13.0033 25.1367
14540 1 6.91645 9.88616 26.6425
14539 1 6.78902 9.8616 23.7016
11002 1 9.55029 12.888 20.7513
10952 1 12.2854 9.99452 20.9581
10940 1 6.6669 9.90776 20.8716
14596 2 8.1637 14.0889 22.1933
14597 1 6.66994 12.8748 23.6973
10998 1 6.80068 12.9098 20.8236
11010 1 12.4454 12.7723 21.0377
14598 1 6.9576 12.9121 26.2156
14602 1 9.63072 12.6769 26.3432
14601 1 9.68423 12.8592 23.6032
14610 1 12.3192 12.9354 26.6337
14609 1 12.3239 12.71 23.9707
14544 1 9.43801 9.8351 26.358
14543 1 9.42405 9.95006 23.6403
14536 2 8.09031 8.39875 22.5263
14595 2 8.13238 11.267 25.0019
14605 2 10.8357 11.4728 22.3621
14551 1 12.3028 9.92177 23.834
14546 2 10.8652 8.45932 25.2282
14552 1 12.3102 9.97862 26.8645
10922 2 -0.304329 8.39719 19.4935
11050 1 3.4481 18.4427 20.8632
10992 1 3.86275 15.7881 20.8177
10988 1 0.875931 15.7993 20.7584
14584 2 2.4394 14.2529 22.0594
14594 2 5.47606 14.2596 24.9401
14649 1 4.0668 18.5336 23.6343
14645 1 1.03603 18.3131 23.5748
14592 1 4.04332 15.5878 26.3126
14653 2 5.2311 17.0999 22.2189
14650 1 4.14071 18.5735 26.525
14643 2 2.81047 17.3073 25.1297
14654 2 5.38267 19.8324 25.0297
14587 1 1.03858 15.7222 23.3461
14591 1 3.80476 15.8021 23.794
14644 2 2.2703 19.8939 22.2374
14588 1 0.985537 15.684 26.6363
14646 1 1.20416 18.5012 26.3416
14581 2 -0.466402 11.4204 21.7495
256 2 8.01303 19.9688 27.5353
14665 2 10.9783 16.9996 22.1124
11058 1 6.64589 18.5164 20.8384
14611 1 12.4453 15.4915 23.6463
14658 1 6.72508 18.5055 26.4315
14661 1 9.50165 18.4764 23.7567
14600 1 6.90978 15.7889 26.5515
14599 1 6.84613 15.5783 23.647
205 2 10.9136 14.2733 25.127
14606 1 9.56437 15.6403 26.5878
14669 1 12.3799 18.6529 23.707
14662 1 12.485 18.6354 26.3939
14657 1 6.81517 18.3988 23.7004
14655 2 8.13562 17.0232 25.108
11000 1 6.53102 15.7171 20.7147
11070 1 12.2162 18.4487 20.8682
11004 1 9.35829 15.5928 20.9767
11012 1 12.2458 15.578 20.6356
14604 1 9.71316 18.4385 26.4473
14582 2 -0.0593725 14.7309 24.821
10802 2 -0.248299 -2.74052 19.4997
10947 2 13.6372 5.91742 19.4851
7287 2 13.6759 0.10298 13.9356
10861 2 -0.362784 0.0980061 16.7905
14462 2 -0.454018 3.21101 25.2104
10828 2 13.5909 -2.61902 16.6613
11008 2 13.5412 14.1669 16.7131
14461 2 -0.263262 0.183894 22.2525
184 2 3.13287 14.2202 27.8005
125 1 1.19059 12.3491 27.7131
196 2 8.09529 14.2679 27.8486
3913 2 5.28191 22.6102 5.25386
305 1 1.1658 24.3985 0.992252
306 1 1.17476 24.0302 3.71953
247 1 3.81705 21.3607 0.999127
314 2 5.2463 25.6916 2.5357
248 1 1.08052 21.4054 3.85623
309 1 3.9145 24.1871 1.15649
303 2 2.52118 22.7504 2.46776
310 1 3.95911 24.0222 3.95111
3904 2 2.36744 25.5212 5.48716
252 1 3.68175 21.2491 4.04027
297 1 1.14637 21.6506 0.993267
308 1 0.862352 26.7216 3.92344
311 1 3.67879 27.1722 1.00929
312 1 3.7372 26.688 3.7463
366 1 0.866257 27.216 0.912227
14712 1 6.62687 26.9561 1.14212
260 1 6.17687 21.8121 2.81918
318 1 6.82568 24.3956 3.85882
7681 2 -0.316035 39.7236 10.9833
332 1 14.0355 28.3167 5.45097
304 2 2.5577 25.3647 -0.450022
3927 2 13.6781 22.7018 8.10662
320 1 6.55599 27.3668 4.0647
317 1 6.69258 24.2824 1.19907
14718 1 7.88276 22.046 0.550782
3925 2 11.0056 22.8137 5.4285
329 1 12.2913 24.0969 1.18914
330 1 12.4749 24.2363 3.87763
271 1 12.2805 21.2688 1.01355
326 2 10.9264 25.5834 2.60736
272 1 12.0993 21.4897 3.80802
321 1 9.6113 24.407 0.84826
315 2 8.15585 23.1513 2.53035
322 1 9.70726 24.2335 3.8538
3916 2 8.07099 25.659 5.52595
263 1 8.58958 21.724 4.07756
3863 1 9.60774 21.6177 6.81071
323 1 12.3261 27.0899 3.99157
319 1 9.60481 27.1683 1.32478
325 2 10.8048 22.8365 -0.325587
3859 1 6.74006 21.3896 6.63661
7515 1 9.80777 20.9617 12.1874
3961 2 -0.232204 28.5009 5.19687
3973 2 5.19389 28.3775 5.56146
363 2 2.37011 28.2758 3.01848
426 1 0.966962 32.5966 3.83359
367 1 0.996518 32.913 1.10154
374 2 5.1327 31.4845 2.46351
368 1 0.777099 29.9678 0.608927
369 1 3.32414 29.9755 0.928684
370 1 3.7459 30.087 3.70569
3964 2 2.49287 31.1508 5.24242
371 1 3.79335 32.7651 1.08162
372 1 3.70629 32.8468 3.92384
3965 1 2.31913 28.586 5.15739
3967 1 0.604439 29.6497 3.4806
362 2 -0.332169 31.4884 2.26369
7623 2 2.45628 34.1798 13.5512
7741 2 -0.358764 45.4012 10.8569
567 2 13.7142 45.4884 2.30821
331 1 12.6213 27.2247 1.08273
324 1 9.40115 26.9238 4.23528
377 1 6.352 30.2305 0.994758
378 1 6.48616 30.2171 3.94673
380 1 6.65701 32.8794 3.7094
379 1 6.59606 33.0778 1.02912
14732 1 12.2084 29.9565 0.532226
3985 2 10.9891 28.3404 5.47642
375 2 8.03424 28.6375 2.48281
386 2 10.919 31.3699 2.48937
392 1 12.2753 32.8404 3.80973
381 1 9.44282 30.1962 1.22384
382 1 9.48211 29.7304 4.01617
3976 2 8.10797 31.3034 5.35706
383 1 9.3771 32.9281 1.03813
384 1 9.54941 32.6571 3.88079
3989 1 12.3856 29.9733 3.57781
14854 1 12.3208 32.6493 1.04984
385 2 10.4163 28.5033 -0.285116
4021 2 -0.321475 34.021 5.36034
445 2 10.7753 34.3117 -0.418461
422 2 -0.436758 36.8265 2.44258
3979 1 6.77827 32.7679 6.62529
4110 1 12.1346 40.9188 9.43607
4033 2 5.3143 34.177 5.19222
425 1 0.821175 35.6114 0.856662
434 2 5.34743 37.2446 2.33379
429 1 3.80387 35.7161 0.902612
423 2 2.41694 34.1976 2.54494
430 1 4.05184 35.5613 3.87929
4024 2 2.45031 36.9679 5.25635
428 1 1.081 35.4017 3.77347
486 1 0.902635 38.2111 3.84956
427 1 1.13297 38.2839 1.04346
483 2 2.49631 39.8906 2.45402
431 1 3.75439 38.6814 1.09799
432 1 3.80914 38.4277 3.7631
4093 2 5.54548 39.8418 5.1688
3962 2 -0.324662 31.4057 7.95071
439 1 6.74046 38.7531 1.03366
440 1 6.74208 38.372 3.7926
373 2 5.68781 28.5222 -0.429833
3902 2 -0.418737 25.771 8.22479
4027 1 1.16691 35.6175 6.73876
3901 2 -0.398339 22.801 5.30519
7597 2 13.5504 28.3625 10.7875
493 2 5.17674 39.8899 -0.545419
437 1 6.58155 35.7773 0.962251
438 1 6.80805 35.8706 3.79975
7696 2 7.74262 42.7968 10.8042
4045 2 10.9592 34.122 5.25794
449 1 12.2686 35.4289 0.935695
450 1 12.4004 35.6106 3.81338
446 2 10.94 37.0096 2.44442
441 1 9.61053 35.5985 1.19537
435 2 8.09941 34.3386 2.41343
442 1 9.60554 35.4804 3.82862
4036 2 8.11878 36.923 5.33104
452 1 12.5316 38.5289 3.90748
443 1 9.5184 38.3163 0.756694
444 1 9.62334 38.4642 3.73311
14852 1 12.4325 38.2505 1.20618
4105 2 10.9633 39.8922 5.02896
495 2 8.135 40.0225 2.34487
261 1 9.47822 20.7509 1.43941
4101 1 9.64009 41.1478 6.54681
302 2 -0.324656 25.3575 2.50603
7528 2 13.7802 25.1919 11.1694
4022 2 -0.477947 36.9271 8.30382
4153 2 5.46321 45.2841 5.15383
485 1 0.700847 41.0215 1.04475
487 1 1.27894 43.8306 1.18023
494 2 5.24684 42.6787 2.28546
488 1 1.05254 41.1274 3.83613
489 1 3.68647 41.3198 1.12042
543 2 2.51161 45.3162 2.54564
490 1 3.93826 41.2245 3.82933
491 1 3.86071 44.1712 0.907213
492 1 3.95463 43.9688 3.85067
482 2 2.5648 42.464 5.21521
540 1 1.10771 43.7751 3.86792
539 2 -0.409555 42.4559 2.48925
500 1 6.80644 44.0913 3.81771
4112 2 10.932 42.5358 10.7542
4081 2 -0.359112 39.6366 5.16656
4141 2 -0.36624 45.3324 5.29385
4103 1 9.46495 44.0138 6.6218
497 1 6.80693 41.3643 0.852326
498 1 6.56294 41.1291 3.53706
499 1 6.8496 44.1813 0.811634
4165 2 10.9804 45.5216 5.18279
509 1 12.5078 41.1673 0.970583
510 1 12.3057 41.3144 3.7785
511 1 12.3095 43.8874 0.82026
506 2 11.0708 42.5805 2.16709
501 1 9.72827 41.0499 1.05935
555 2 8.25953 45.5216 2.33948
502 1 9.50392 41.446 3.77783
4096 2 8.03308 42.7096 5.2205
503 1 9.61306 43.9752 1.00379
504 1 9.56277 44.1958 3.83249
565 1 12.3641 44.036 3.75149
512 1 12.2231 44.0609 6.53935
313 2 5.65231 22.6625 -0.278933
484 2 2.49129 42.658 -0.439303
376 2 8.08676 31.3782 -0.392393
7711 1 12.275 44.0088 12.0906
7561 2 -0.363189 28.4508 10.9668
4097 1 6.86942 41.3119 6.51412
4155 2 8.1403 45.4024 8.02267
4100 1 6.67271 44.1629 9.37464
3909 1 3.84222 23.9592 6.889
3905 1 0.906731 24.1209 6.88919
3911 1 3.88419 26.8079 6.87413
3917 1 6.72901 24.2514 6.84493
7709 1 12.3886 41.1261 11.9985
3851 1 3.81218 21.1851 6.82683
3847 1 0.956945 21.3135 6.69704
3907 1 1.01405 26.8586 6.78753
7513 2 5.3023 22.7949 11.1788
7505 1 0.919073 24.119 12.6376
3906 1 1.16423 24.21 9.88062
7447 1 0.888392 21.2571 12.5546
3914 2 5.23893 25.4879 8.17868
3860 1 3.91499 21.3199 9.66795
7509 1 3.82244 24.2891 12.5167
3903 2 2.49295 22.7451 8.11284
3910 1 4.03782 24.1148 9.72293
7504 2 2.65787 25.5921 11.1307
7451 1 3.72084 21.3771 12.6812
3852 1 1.31766 21.3368 9.58111
7501 2 -0.0952749 22.7368 11.0048
7507 1 1.079 26.7947 12.4712
3908 1 1.06706 27.1482 9.68034
7511 1 3.90441 27.1683 12.4387
3912 1 3.97518 27.0318 9.72098
3864 1 6.72247 21.2328 9.47662
7459 1 6.55147 21.2124 12.2935
7701 1 9.5738 41.3869 12.0505
7517 1 6.55595 24.4335 12.4379
3931 1 12.3535 26.8715 6.94319
3929 1 12.3778 24.1307 6.77252
3921 1 9.67142 24.2378 6.62426
3923 1 9.64493 27.0122 6.89501
3919 1 6.55566 26.9805 6.81856
3918 1 6.68137 24.0599 9.58229
3920 1 6.64596 26.8707 9.63122
3871 1 12.3621 21.3494 6.66009
7463 1 9.56388 21.3779 9.47834
7525 2 10.8403 22.6648 11.0865
7529 1 12.1857 23.9699 12.4688
3930 1 12.3208 24.0534 9.70812
7471 1 12.5743 21.3912 12.3056
3926 2 10.8288 25.5991 8.2394
3872 1 12.3469 21.3311 9.57403
7521 1 9.4442 24.1524 12.1653
3915 2 8.14595 22.9706 8.22839
3922 1 9.53798 24.2002 9.56765
7516 2 7.94274 25.4993 11.0248
3924 1 9.22159 27.1636 9.64048
7523 1 9.56755 27.0286 12.5455
7519 1 6.66125 27.0712 12.5666
3932 1 11.9761 27.081 9.81499
4109 1 12.3953 41.2493 6.56833
4025 1 1.12074 32.7914 6.57739
3966 1 0.893007 30.1154 6.52955
3971 1 3.7743 32.8161 6.76528
3969 1 3.95841 29.9504 6.6557
7573 2 5.22259 28.5396 10.9689
3963 2 2.36254 28.5262 8.09933
7565 1 0.863407 29.9429 9.43746
7567 1 1.23526 32.8707 12.2326
3974 2 5.21879 31.3346 8.07003
3968 1 0.873788 32.6348 9.47851
7569 1 1.20488 29.6334 12.2087
3970 1 3.74164 30.0153 9.39062
7564 2 2.43077 31.2534 10.9262
7571 1 3.81922 29.9147 12.3632
3972 1 3.85963 32.6757 9.53786
7572 1 3.77293 32.6723 12.3886
7579 1 6.32481 32.5459 11.9422
7765 2 10.9266 45.8217 10.9792
3983 1 9.5907 32.6558 6.67236
3981 1 9.39875 29.8131 6.63594
7531 1 12.5746 26.8992 12.5153
3980 1 6.75755 32.6841 9.1074
3977 1 6.56396 29.6701 6.60972
3978 1 6.74568 29.7427 9.64148
3991 1 12.2992 32.8964 6.76169
7577 1 6.60436 29.8391 12.5976
3990 1 12.2251 30.012 6.68726
7585 2 10.2496 28.6325 11.0043
3975 2 7.91723 28.3489 8.1867
7589 1 12.2126 29.7343 12.1139
7591 1 12.44 32.5645 12.5978
3986 2 10.9684 31.4527 8.10897
3992 1 12.1735 32.867 9.63178
7581 1 9.2378 29.7811 12.5575
3982 1 9.43669 30.1184 9.59894
7576 2 8.08359 31.405 10.9944
7583 1 12.337 29.929 9.50332
3984 1 9.51805 32.8712 9.62396
7635 1 9.76436 32.7048 12.3059
7703 1 9.64425 43.9406 12.0948
4085 1 0.954613 38.2077 6.79697
7699 1 6.78236 44.1117 12.1678
4031 1 3.8374 38.3376 6.68266
4029 1 4.02055 35.4109 6.63495
7633 2 5.12519 34.0974 10.8628