ITEM: TIMESTEP
50000
ITEM: NUMBER OF ATOMS
18000
ITEM: BOX BOUNDS pp pp pp
-4.4902575056938010e-01 2.7789025750569316e+01
-5.5885873438370748e+00 3.3366858734384260e+02
-4.4373225495134849e-01 2.7783732254950230e+01
ITEM: ATOMS id type x y z
3673 2 5.11555 -0.125894 5.36255
6 1 2.3042 -2.46569 1.71483
14 2 4.68807 -2.94096 2.20403
8 1 0.612425 -1.6291 3.76823
63 2 2.19803 -0.165685 2.79574
10 1 3.88134 -4.49848 3.80526
3604 2 2.28496 -3.06509 5.27094
12 1 3.60363 -1.61665 4.1277
3548 1 1.05365 -4.50377 3.76458
3551 1 3.99145 -4.86827 1.00728
17948 1 0.511381 -3.89881 0.384754
9 1 3.99726 -0.303313 1.56224
14410 1 0.496542 -0.940057 0.320265
265 2 10.7418 16.9616 -0.204507
7312 2 -0.377136 -0.174669 10.9056
3605 1 1.04105 -4.2757 6.56027
3619 1 6.58671 -1.83147 6.67305
179 2 -0.289111 10.5944 -0.115998
3687 2 13.6366 -0.104255 8.19005
18 1 6.32326 -1.35384 3.5404
3571 1 6.47186 -4.12044 1.2904
17 1 6.89946 -4.35821 3.95109
30 1 7.10603 -1.55129 0.907815
3560 1 9.41994 -4.23831 3.86504
3685 2 10.9364 -0.140708 5.26125
29 2 11.1046 -3.11763 2.36784
26 2 7.9713 -2.99926 2.54458
21 1 9.33918 -1.63106 1.39066
75 2 7.93063 0.085014 2.56702
22 1 11.8389 -1.56124 3.93996
3616 2 8.12964 -3.19358 5.63779
24 1 8.9792 -1.56211 4.05026
3572 1 12.1067 -4.40369 4.02866
35 1 12.3102 -1.71411 1.08088
31 1 11.9825 -4.82913 1.29811
3564 1 9.07859 -4.38218 1.06942
3688 2 13.6243 2.75133 5.34605
3617 1 6.60943 -4.7443 6.75442
3629 1 12.367 -4.51902 6.70333
65 1 1.13254 4.10667 1.30364
66 1 0.883743 1.19771 3.81427
74 2 5.3092 2.69373 2.5246
69 1 1.43125 1.22468 1.20691
70 1 3.78649 1.36308 3.61866
3664 2 2.16388 2.8742 5.2803
3733 2 5.16986 5.43486 5.23517
68 1 0.956817 4.19596 3.95962
129 1 3.81888 7.0372 1.05618
123 2 2.36071 5.69584 2.64169
71 1 3.89909 4.05575 1.01266
72 1 3.81545 4.03432 3.65907
130 1 3.9423 6.82127 4.04063
67 1 0.993855 6.85105 0.887654
126 1 0.791488 7.04693 3.90865
20 1 6.6268 1.24702 4.03163
137 1 6.59781 6.88761 1.04614
78 1 6.67625 4.15424 3.83339
138 1 6.61594 6.86949 3.73868
3671 1 3.60001 4.26008 6.51111
7321 2 -0.420977 5.39933 10.6767
3807 2 13.5994 11.1728 8.03942
80 1 6.59757 3.9724 0.786942
23 1 9.41686 0.988149 1.0773
77 1 6.56184 1.24531 1.12138
89 1 12.0257 1.23344 1.01155
90 1 12.529 4.11256 3.78964
86 2 10.8317 2.64654 2.39143
32 1 12.3741 1.19305 3.94197
81 1 9.43942 3.8744 1.12796
82 1 9.5407 1.31302 3.77912
3676 2 7.85373 2.69267 5.36812
14492 1 11.9753 6.71202 0.963209
3745 2 10.7366 5.50989 5.24755
91 1 12.1651 3.93777 0.872372
92 1 12.1131 7.06031 3.72916
135 2 7.90155 5.44182 2.40066
142 1 9.35651 6.65837 3.80715
83 1 9.25878 6.62106 0.988947
84 1 9.53308 3.87253 4.08058
3689 1 12.0909 1.30107 6.74267
3741 1 9.30295 6.75982 6.6117
3683 1 9.34264 3.95478 6.74478
3749 1 12.1606 7.01473 6.47587
7228 2 13.4362 -2.92354 10.8873
3793 2 4.79078 11.226 5.44353
134 2 5.19565 8.38299 2.5017
128 1 0.816902 9.66947 3.88816
183 2 2.36847 11.0414 2.50163
3724 2 2.11697 8.37716 5.33149
131 1 3.74298 9.69221 0.995918
132 1 3.64627 9.73779 3.8444
186 1 0.86481 12.4616 4.04326
189 1 3.88349 12.552 0.970797
190 1 3.51384 12.5196 3.7451
127 1 0.077798 12.3393 1.59009
177 1 1.14289 9.42247 1.14109
140 1 6.57688 9.61742 3.82606
197 1 6.51681 12.3724 1.10212
3739 1 6.52021 9.62617 6.75964
3727 1 0.65833 9.67377 6.76039
3731 1 3.49703 9.68127 6.7854
139 1 6.5403 9.57943 0.921864
3867 2 13.531 16.8631 7.98837
124 2 2.38195 8.23728 -0.379795
193 2 5.21616 11.2022 -0.335677
88 2 13.5588 2.71201 -0.399859
7411 1 12.1291 15.5826 12.5031
198 1 6.14801 12.6616 4.2582
149 1 9.24935 9.52651 0.973622
3805 2 10.7286 10.9367 5.326
150 1 12.0554 9.73335 1.10457
151 1 12.2428 12.4746 0.836663
146 2 10.6808 8.30707 2.32515
152 1 12.1988 9.76136 3.98627
141 1 9.36699 9.58911 3.78791
195 2 7.90275 11.0239 2.42371
3736 2 8.02123 8.08559 5.1676
143 1 9.45691 12.4745 1.19345
144 1 9.16151 12.4088 3.85117
210 1 11.8901 12.3921 3.51128
3751 1 12.0753 9.84843 6.59217
3809 1 11.9715 12.4925 6.4245
3796 2 7.94803 13.8522 5.13777
3798 2 7.85529 13.617 8.13495
3801 1 9.11267 12.2098 6.64387
251 1 6.2031 19.5372 0.40497
194 2 5.10405 13.9156 2.39828
3784 2 2.21173 14.1052 5.16944
3853 2 5.19617 16.7471 5.0877
245 1 0.939809 17.8386 0.984389
246 1 0.864692 17.9873 3.62071
187 1 1.48084 14.5409 1.28534
254 2 4.70794 19.6256 2.3173
188 1 0.738016 15.5196 4.02221
249 1 3.6078 18.1671 0.880556
243 2 2.40777 16.6739 2.31165
250 1 3.65581 18.2063 3.86317
3844 2 2.25988 19.8122 5.44813
191 1 4.04705 15.4789 1.0208
192 1 3.54847 15.4192 3.89771
258 1 6.00626 17.7545 2.37718
3787 1 1.15837 15.2369 6.77614
264 1 6.57352 20.2246 4.09238
7396 2 7.96754 13.9401 11.2537
7465 2 10.716 17.0043 10.8735
3808 2 13.3725 13.9294 4.98258
200 1 6.49222 15.3189 3.94173
199 1 6.6978 15.102 1.17494
261 1 9.74216 19.6531 0.649534
206 2 10.7487 13.9532 2.40372
202 1 9.47924 15.2628 4.09909
257 1 8.13731 17.625 0.606598
201 1 9.41486 15.1713 1.045
3865 2 10.9033 17.1821 4.97298
269 1 12.4116 18.2741 0.950623
270 1 12.5174 18.4053 3.51724
211 1 12.277 15.3101 1.13329
266 2 11.1812 19.8519 2.40234
212 1 12.2344 15.4745 3.66448
255 2 8.00546 16.3157 2.51744
262 1 10.0648 19.3472 4.54157
3856 2 8.02285 19.542 5.67051
203 1 9.75717 17.7483 2.47074
204 1 7.80498 17.6657 4.30204
259 2 8.01207 19.4715 2.18172
3811 1 11.743 15.6884 6.33864
3803 1 9.20629 14.7807 6.93734
3806 2 11.064 14.1519 7.95553
7408 2 13.537 14.195 10.8166
3607 1 0.914183 -1.41542 6.47275
3812 1 13.4437 14.39 8.02311
3611 1 3.77035 -1.44099 6.84684
3609 1 3.73607 -4.38818 6.75738
7273 2 5.23591 -0.303675 10.9088
7205 1 0.946638 -4.36667 12.4157
3606 1 0.924471 -1.57246 9.17948
7207 1 0.919017 -1.48436 12.1504
3614 2 5.34287 -3.27988 8.13472
7209 1 3.66692 -4.62948 12.1884
3663 2 2.27825 -0.0898294 7.9445
3610 1 3.79073 -4.42279 9.61325
7204 2 2.42159 -3.05738 10.895
7211 1 3.79818 -1.4775 12.3486
3612 1 4.05067 -1.76018 9.73976
3658 1 1.01884 -4.38484 9.2918
7217 1 6.54925 -4.56244 12.2604
3620 1 6.72934 -1.62452 9.61711
7219 1 6.60855 -1.66359 12.3057
145 2 10.724 5.36842 -0.403968
3855 2 7.76185 17.0272 8.22633
3621 1 9.71159 -4.44574 6.61515
3804 1 11.8817 15.5079 9.67844
3618 1 6.78991 -4.70646 9.49491
3631 1 12.3591 -1.60935 6.74127
3623 1 9.27986 -1.68883 6.7539
7164 1 9.58121 -4.67747 9.40346
7285 2 10.7721 -0.0364714 10.9236
7229 1 12.2824 -4.39344 12.2204
7231 1 12.2658 -1.52399 12.4199
3626 2 10.8673 -2.97254 8.03239
3632 1 12.3215 -1.45501 9.61046
7221 1 9.41019 -4.39393 12.2291
3675 2 7.95096 -0.0375887 8.1267
3622 1 12.2136 -4.52703 9.39898
7216 2 8.15527 -3.19024 10.7767
7223 1 9.43184 -1.48186 12.2219
3624 1 9.63533 -1.71166 9.51615
7461 1 9.10389 18.2513 12.2729
3861 1 9.26029 18.1329 6.88601
3870 1 12.1168 18.3432 9.20677
3729 1 3.72098 7.0235 6.49416
3725 1 0.877541 6.88175 6.69747
3669 1 3.67024 1.47249 6.40327
3737 1 6.58552 6.92309 6.62108
3679 1 6.43224 4.06244 6.50575
3802 1 9.08088 15.0691 9.52356
7469 1 12.2092 18.1819 12.021
3667 1 0.922432 4.1864 6.70853
3665 1 1.00726 1.42454 6.63261
7265 1 0.965294 1.35856 12.3448
3666 1 3.61348 4.09149 9.54997
3674 2 5.04457 2.56466 8.11793
3608 1 1.06189 1.17525 9.59208
7269 1 3.64003 0.952046 12.169
3670 1 3.96129 0.882465 9.17407
7264 2 2.2758 2.5583 11.0497
7333 2 5.16687 5.33368 10.7891
7325 1 0.549879 7.00268 12.2921
7267 1 1.21432 4.09253 12.0419
3668 1 0.908532 7.03697 9.5157
7329 1 3.50643 6.73291 12.2706
3723 2 2.20115 5.58633 8.08398
7271 1 3.80648 3.98092 12.3502
7261 1 0.735686 3.96905 9.43068
3672 1 3.71676 7.00571 9.25788
3678 1 6.70188 1.37687 9.38833
7337 1 6.24246 6.73922 12.3047
3677 1 6.45106 1.29897 6.8132
7279 1 6.68246 4.0089 12.2065
3738 1 6.50996 6.76445 9.35391
3680 1 6.6537 3.98088 9.32124
3691 1 12.084 4.05778 6.41175
3681 1 9.28175 1.21963 6.63196
7277 1 6.58552 1.22034 12.2217
7289 1 12.3486 1.18671 12.3367
3690 1 12.331 1.33953 9.60752
3686 2 10.9493 2.6801 7.99296
7281 1 9.43046 1.34929 12.3364
3682 1 9.48717 1.23198 9.51843
7276 2 8.12209 2.66291 10.856
3684 1 9.37303 4.07398 9.5252
7283 1 9.33516 4.1704 12.1551
3742 1 9.25768 6.94512 9.63715
3735 2 8.04936 5.40272 8.10936
7345 2 10.8618 5.54844 11.067
7291 1 11.9302 3.93867 12.1113
3692 1 12.4336 4.05293 9.45862
7341 1 9.24471 6.93865 12.3107
3750 1 12.1752 6.86727 9.44332
7349 1 12.1942 7.36049 12.0934
7456 2 7.93661 20.0332 10.927
7403 1 9.45653 15.5823 12.181
3785 1 0.852232 12.3942 6.7979
3789 1 3.33229 12.5361 6.67603
3797 1 6.19102 12.4528 6.91563
7393 2 5.10312 11.1152 11.0777
3726 1 0.703388 9.68344 9.55662
7327 1 1.07123 9.46857 12.604
3734 2 5.16368 8.14861 7.99596
3728 1 0.986267 12.6564 9.53884
3783 2 2.17294 11.0524 8.1055
7324 2 2.22981 8.33511 10.8417
7331 1 3.76716 9.48775 12.3139
3732 1 3.50346 9.89019 9.6164
7389 1 3.58744 12.3435 12.3813
3786 1 3.78475 12.5705 9.83526
7385 1 0.923007 12.4643 12.3813
7397 1 6.43702 12.4158 12.3415
3730 1 6.68363 9.42297 9.57484
3790 1 6.49125 12.4536 9.55488
7339 1 6.73664 9.62638 12.5334
3869 1 12.2092 18.3837 6.67011
3862 1 9.31129 18.5275 9.55928
7214 2 5.35431 -3.0618 13.6908
19 1 4.39265 -2.4133 -0.0555036
87 2 13.5886 -0.0527514 2.38961
3743 1 9.4247 9.42306 6.563
7348 2 13.6858 8.41157 10.9508
3866 2 10.7215 19.8475 7.93787
3740 1 9.05385 12.1348 9.44691
3744 1 9.63839 9.48711 9.51407
7343 1 9.44816 9.94296 12.4636
7336 2 7.92424 8.25866 11.139
3795 2 8.10856 10.4433 8.09414
7405 2 10.8825 11.1573 10.8777
7351 1 12.4067 10.0342 12.1454
3746 2 10.9094 8.31165 8.12552
3752 1 12.2648 9.69904 9.44657
7409 1 12.1362 12.6732 12.3858
3810 1 12.0068 12.6176 9.46826
7401 1 9.46008 12.6815 12.206
7323 2 2.30289 5.61914 13.7056
3858 1 6.41893 18.374 9.33364
253 2 5.56086 17.1057 -0.147674
3791 1 3.9172 15.5119 6.65329
3849 1 3.52812 18.4822 6.53519
3845 1 0.793344 18.1765 6.66387
3857 1 6.25827 18.2506 6.46211
3799 1 6.48483 15.1938 6.93687
7457 1 6.6039 18.1528 12.3647
3800 1 6.51423 15.2573 9.55457
7399 1 6.60442 15.292 12.3314
7384 2 2.26665 13.9966 11.1113
3794 2 4.79077 13.994 8.01856
7449 1 3.60357 18.3163 12.3201
3846 1 0.796613 18.1816 9.16208
3788 1 1.15288 15.504 9.76019
3854 2 5.10184 19.7628 8.03284
7445 1 0.817605 18.2854 12.1436
7453 2 5.05708 16.8382 10.9628
3850 1 3.56335 18.3129 9.54631
3843 2 2.15797 16.8612 7.99557
3792 1 3.86725 15.2859 9.59042
7387 1 0.911839 15.4822 12.422
7391 1 3.74541 15.4447 12.3899
7444 2 2.39671 19.7053 10.8459
133 2 5.20431 5.51934 -0.271905
207 2 13.4402 11.1179 2.35114
147 2 13.6411 5.59022 2.54471
7468 2 13.6105 19.779 10.8166
4 2 2.6885 -0.60293 -0.361831
3868 2 13.5844 19.7069 5.14851
148 2 13.6 8.25893 -0.452013
3747 2 13.593 5.39443 7.97318
3628 2 13.4937 -3.04383 5.2708
3748 2 13.6114 8.55065 5.3188
196 2 8.22 13.9727 -0.342124
7454 2 5.33962 19.6717 13.72
7442 2 -0.386649 19.6039 13.6847
7443 2 2.33589 16.954 13.6152
85 2 10.6058 -0.227899 -0.253478
79 2 8.06823 2.63938 -0.439089
64 2 2.34991 2.87099 -0.176802
5 2 2.48865 -3.74688 -0.333502
7262 2 -0.344635 2.70325 13.6632
10873 2 5.28234 -0.18842 16.4532
10805 1 0.90419 -4.28241 17.8012
7206 1 1.12089 -4.53819 15.0249
10807 1 0.935614 -1.5349 17.6439
10814 2 5.21288 -3.07267 19.2393
7208 1 0.762911 -1.47999 14.8863
10809 1 3.67949 -4.47037 17.8928
10863 2 2.34673 -0.309789 19.173
7210 1 4.09447 -4.40379 15.042
10804 2 2.32951 -3.13783 16.4488
10811 1 3.82732 -1.70137 17.9432
7212 1 3.65456 -1.73026 15.3132
10808 1 0.844004 -1.51318 20.3957
10812 1 3.7289 -1.67911 20.6901
10810 1 3.7268 -4.52549 20.5959
10818 1 6.46264 -4.37242 20.605
10817 1 6.51067 -4.47871 17.7855
10806 1 0.809813 -4.31544 20.6516
10819 1 6.66844 -1.60932 17.9524
10820 1 6.54965 -1.48665 20.7207
7218 1 6.81847 -4.54745 15.0183
7220 1 6.56028 -1.58102 15.0915
10885 2 10.9214 -0.242368 16.6336
10829 1 12.1448 -4.6149 17.7755
7230 1 12.1071 -4.43805 14.9634
10831 1 12.0403 -1.73462 18.0208
10826 2 10.627 -3.08565 19.5013
7232 1 12.2698 -1.57722 15.1889
10821 1 9.17886 -4.43905 18.1249
10875 2 7.9647 -0.00687888 19.2715
7222 1 9.56848 -4.43195 15.3148
10816 2 7.97251 -3.05579 16.5784
10823 1 9.34419 -1.60124 18.0698
7224 1 9.45506 -1.67456 15.1809
14642 2 -0.324964 19.8354 24.9804
10832 1 12.1444 -1.52634 20.8259
10824 1 9.24263 -1.54122 20.8917
7226 2 10.8328 -3.00004 13.7084
7266 1 1.00634 1.21083 15.1884
10869 1 3.79798 1.24588 17.8177
10865 1 0.89334 1.24065 17.9231
10874 2 5.12521 2.67746 19.325
7270 1 3.70989 1.12183 15.0838
10864 2 2.46092 2.6644 16.3903
10933 2 5.25858 5.54793 16.6087
10925 1 0.890447 6.94862 17.8698
7326 1 0.964874 7.04932 14.9911
10867 1 1.1005 3.90664 17.7869
7268 1 1.14583 4.2509 14.9181
10929 1 3.67941 6.83289 17.8719
10923 2 2.40338 5.31494 19.3169
10871 1 3.80726 4.07019 17.9324
7272 1 3.9553 3.88341 15.167
7330 1 3.70105 6.86853 15.0251
10868 1 0.854513 3.86656 20.628
10877 1 6.5568 1.12921 17.9186
10930 1 3.65224 7.03759 20.6406
10926 1 0.963237 6.77415 20.714
10870 1 3.4891 1.09509 20.7623
10872 1 3.67908 4.00713 20.7436
7280 1 6.41771 4.06693 15.0974
10866 1 0.604043 1.2483 20.6765
7467 2 13.6359 16.9963 13.749
10947 2 13.4981 5.43933 19.3738
7395 2 7.90953 11.1029 13.7836
10879 1 6.54752 4.03057 17.97
7338 1 6.72989 7.02268 15.0771
7278 1 6.64532 1.20665 15.0742
14667 2 13.5123 16.9605 25.0795
10938 1 6.48067 6.87761 20.5797
10937 1 6.5542 6.85012 17.8549
10889 1 12.0807 1.26921 18.0156
7290 1 12.1613 1.29173 15.1022
10886 2 10.6278 2.58908 19.4317
10881 1 9.34492 1.2997 17.8236
7282 1 9.41823 1.13122 15.0096
10876 2 8.0163 2.5572 16.502
10945 2 10.8103 5.37213 16.3327
10949 1 12.1175 6.85394 17.962
10891 1 11.8382 4.06803 18.2604
7292 1 12.0331 4.11432 15.1996
10941 1 9.20743 6.74499 17.7121
10935 2 7.927 5.41683 19.351
10883 1 9.10061 3.81676 18.0257
7284 1 9.17722 4.01223 15.0585
10892 1 12.1413 4.15402 20.9194
10884 1 9.4559 3.93228 20.917
7350 1 12.0366 7.27446 15.302
7342 1 9.4729 6.70858 15.0927
10950 1 12.1433 7.02064 20.6587
10942 1 9.3511 7.02155 20.6567
73 2 5.73469 -0.483271 27.7996
10890 1 12.1157 1.2551 20.8422
10948 2 13.428 8.25183 16.6395
10993 2 5.21702 11.1805 16.5723
10927 1 0.832274 9.60556 17.6522
10934 2 5.24658 8.20068 19.3214
7328 1 1.01233 9.78046 15.1474
10983 2 2.3295 11.0939 19.3349
10924 2 2.38499 8.25376 16.5084
10931 1 3.61158 9.54142 18.2056
7332 1 3.75264 9.62626 15.1781
10985 1 0.833346 12.4217 17.9867
7386 1 1.02686 12.4507 15.1821
10989 1 3.72147 12.4713 17.9995
7390 1 3.85545 12.7194 15.1132
10928 1 0.874349 9.74727 20.5249
10990 1 3.66451 12.5286 20.8219
10986 1 0.954262 12.6421 20.9221
10932 1 3.62577 9.87352 20.8689
7340 1 6.48723 9.67697 15.3351
10994 2 5.07815 14.0135 19.3143
10984 2 2.40167 14.0235 16.2098
11068 2 13.5842 19.8981 16.4616
10887 2 13.5575 -0.191853 19.3263
10939 1 6.59591 9.63195 17.9088
7398 1 6.49982 12.4067 15.1736
10940 1 6.58202 9.85435 20.61
10997 1 6.63792 12.7854 17.9184
11005 2 10.8994 11.2105 16.4034
10951 1 12.1791 9.90489 17.9118
10946 2 10.7191 8.18806 19.2873
7352 1 12.172 9.90081 15.0312
10995 2 8.05922 11.2489 19.3622
10936 2 8.09532 8.28584 16.4902
10943 1 9.47138 9.63945 17.9063
7344 1 9.54933 9.55947 15.1636
11009 1 12.0757 12.8224 17.9222
7410 1 12.2264 12.7267 15.1352
11001 1 9.33482 12.4682 17.8698
7402 1 9.32589 12.4526 15.0677
10952 1 12.2114 9.73939 20.7178
11002 1 9.44227 12.7575 20.8419
11010 1 12.2583 12.5704 20.6408
10944 1 9.4579 9.82722 20.6607
10996 2 8.08502 13.8821 16.4455
11008 2 13.5577 14.0995 16.6105
14548 2 13.5886 8.27104 22.1568
14599 1 6.53266 15.643 23.5918
11053 2 5.14788 16.8158 16.4701
11045 1 1.15932 18.077 17.9675
7446 1 0.797287 18.2541 15.2218
10987 1 0.773012 15.3745 17.8523
11054 2 5.27507 19.7358 19.3887
7388 1 0.960962 15.542 15.1977
11049 1 3.96015 18.2689 17.8533
11043 2 2.39014 16.7535 19.339
7450 1 3.67329 18.2244 15.1851
11044 2 2.40905 19.5756 16.7137
10991 1 3.78865 15.2315 17.7999
7392 1 3.92563 15.4817 15.1837
10999 1 6.57168 15.7252 17.8116
7458 1 6.57721 18.1665 15.1695
7400 1 6.73906 15.3473 15.1657
10992 1 3.70423 15.2881 20.741
11050 1 3.84215 18.2794 20.6248
11058 1 6.69352 18.2572 20.6702
11000 1 6.45121 15.4111 20.7249
7334 2 5.21143 8.10697 13.6618
14665 2 10.8454 16.8924 22.0975
11057 1 6.79739 18.422 17.9588
11006 2 10.7034 13.9962 19.4411
11065 2 10.9439 16.8747 16.566
11069 1 12.3453 18.3088 17.9291
7470 1 12.2923 18.3951 14.9287
11011 1 12.1853 15.52 17.8979
11066 2 10.7092 19.8063 19.3776
7412 1 12.2934 15.6301 15.3127
11061 1 9.57913 18.3291 17.9594
11055 2 7.96628 16.9533 19.1674
7462 1 9.44774 18.0768 15.2361
11056 2 8.09899 19.6927 16.3554
11003 1 9.43012 15.4296 17.8888
7404 1 9.36368 15.3498 14.8286
11012 1 12.0786 15.3961 20.726
11062 1 9.4518 18.2686 20.8525
11070 1 12.227 18.4438 20.7675
11004 1 9.21608 15.4701 20.735
14668 2 13.5505 19.6569 22.0122
17952 1 1.62743 -2.21693 26.4638
17960 1 3.71505 -4.62065 26.1417
14473 2 5.10789 -0.106315 22.0545
14405 1 0.966562 -4.55789 23.2001
14407 1 0.709437 -1.60254 23.0372
14414 2 5.06318 -3.0517 24.8351
14409 1 3.70876 -4.527 23.4279
14463 2 1.93124 -0.352493 24.6868
14404 2 2.22918 -2.97082 21.9154
14411 1 3.46314 -1.6605 23.4428
17946 1 0.469958 -4.55454 26.0366
14412 1 3.93708 -0.970783 26.1059
14417 1 6.49098 -4.35089 23.3636
14418 1 6.54315 -4.58442 26.376
7455 2 8.01165 16.9453 13.6963
11007 2 13.5892 11.2361 19.2234
10830 1 12.1201 -4.46111 20.6282
10822 1 9.33606 -4.63458 20.9389
14488 2 13.617 2.55769 22.1805
14419 1 6.42275 -1.51107 23.4588
14420 1 6.79794 -1.61499 26.3271
14430 1 12.0603 -4.41241 26.5172
14485 2 10.7912 -0.265249 22.1844
14429 1 12.2583 -4.38424 23.5048
14431 1 11.9864 -1.58024 23.6265
14426 2 10.903 -3.07896 25.0491
14432 1 12.0958 -1.61616 26.4094
14421 1 9.24722 -4.38782 23.5192
14475 2 7.92007 0.0667679 24.837
14422 1 9.42957 -4.62232 26.3932
14416 2 7.9145 -3.02693 22.0301
14423 1 9.26772 -1.60027 23.8149
14424 1 9.47963 -1.67223 26.6237
16 2 7.95067 -3.19276 27.5462
10878 1 6.34054 1.38382 20.7575
14603 1 9.3534 15.4764 23.8341
14466 1 1.44656 1.04883 26.5909
14472 1 1.10278 3.87577 26.3347
14465 1 0.769725 1.28492 23.5169
14474 2 5.24439 2.66264 25.0058
14469 1 3.63444 1.17188 23.5903
14470 1 3.62143 4.11063 26.3994
14464 2 2.25005 2.47922 22.2018
14533 2 5.04636 5.70608 22.0611
14467 1 0.974707 4.19303 23.4525
14529 1 3.57808 7.02529 23.438
14523 2 2.37808 5.48109 24.8768
14530 1 3.85626 7.06433 26.4341
14471 1 3.63285 4.02353 23.6813
14468 1 1.09309 6.78613 26.5168
14604 1 9.45909 18.1887 26.2025
14479 1 6.56016 4.23656 23.532
7346 2 11.0129 8.3525 13.6872
14538 1 6.44985 6.97962 26.4332
14537 1 6.26345 7.1022 23.5441
14525 1 0.857974 7.18238 23.4634
14608 2 13.5746 13.9735 22.0565
14641 2 -0.456312 16.8398 22.0201
14666 2 10.7007 19.7941 24.8828
7394 2 5.17595 13.9824 13.8172
10880 1 6.43478 4.18904 20.7561
14480 1 6.51977 4.01628 26.446
10882 1 9.14368 1.28834 20.7916
14477 1 6.7054 1.52303 23.5104
14478 1 6.54439 1.19911 26.2441
14489 1 12.0563 1.23997 23.5689
14490 1 12.0475 1.32286 26.4604
14481 1 9.42045 1.2247 23.606
14482 1 9.39389 1.2219 26.292
14476 2 8.03845 2.89104 22.1485
76 2 10.8563 2.56199 24.9806
14486 1 12.2775 4.30248 26.2655
14484 1 9.40336 3.93265 26.4483
14483 1 9.25169 4.08674 23.7028
14542 1 9.13332 6.85379 26.2796
14535 2 7.81065 5.42512 25.0009
14545 2 10.7959 5.42688 22.2331
14549 1 12.1364 7.02114 23.5049
14550 1 11.8483 6.7837 26.4986
14491 1 12.1396 3.98271 23.6743
14541 1 9.12411 6.81837 23.472
256 2 8.10968 19.747 27.2653
10828 2 13.6043 -3.12689 16.5812
208 2 13.5567 14.061 27.7111
10998 1 6.55624 12.7922 20.8352
125 1 1.67297 11.9826 27.6851
14593 2 5.13673 11.3114 22.0814
14526 1 0.827768 9.82238 25.9913
14527 1 0.634082 10.2501 23.2229
14534 2 5.03528 8.57695 24.9644
14583 2 2.69372 11.4126 25.0958
14524 2 2.2396 8.31827 22.042
14531 1 3.48159 9.8365 23.6137
14532 1 3.73115 9.91581 26.4703
14589 1 3.99201 12.5346 23.5785
14590 1 4.1511 12.7263 26.3083
14586 1 1.34228 13.0136 24.3604
14597 1 6.65194 12.5823 23.5307
14540 1 6.59967 9.95977 26.3585
14584 2 2.46605 13.9146 22.2677
7335 2 7.98549 5.46821 13.7382
14669 1 12.0453 18.2123 23.5017
14547 2 13.4313 5.61955 24.9566
14539 1 6.41489 9.86251 23.4976
14598 1 6.76516 12.8198 26.3547
14602 1 9.45355 12.5413 26.5565
14601 1 9.41308 12.4929 23.6404
14610 1 12.2063 12.6342 26.3059
14609 1 11.9709 12.7826 23.4689
14544 1 9.34443 9.56209 26.5293
14543 1 9.11516 9.60508 23.5976
14536 2 7.93857 8.47185 22.0491
14595 2 8.02327 11.1301 25.0635
14605 2 10.6488 11.1571 22.3306
14551 1 12.2491 9.76392 23.7399
14546 2 10.622 8.19289 24.9009
14552 1 12.2106 9.67395 26.36
205 2 10.8331 13.9446 25.0206
14428 2 13.5196 -3.14053 22.0406
14596 2 7.89667 14.3109 22.1702
10981 2 -0.385734 11.1078 16.5375
244 2 2.44722 19.6818 27.7111
11046 1 1.02241 18.2257 20.6662
10988 1 0.856565 15.512 20.6496
14657 1 6.65752 18.1874 23.4342
10921 2 -0.385976 5.56638 16.4495
14594 2 5.33447 14.0644 24.9929
14654 2 5.1577 19.7773 24.8918
14643 2 2.44471 16.9324 24.8846
14650 1 3.70937 18.2417 26.533
14653 2 5.27496 16.8676 22.0437
14645 1 1.02662 18.4856 23.3918
14592 1 3.70345 15.5077 26.2078
14644 2 2.28541 19.6799 21.8629
14591 1 3.59278 15.1946 23.4762
14587 1 0.963837 15.735 23.4983
14649 1 3.89993 18.0948 23.5569
14646 1 0.913551 18.2817 26.3723
14588 1 0.7509 15.2781 26.557
7263 2 2.34219 -0.343441 13.7176
14600 1 6.49638 15.5359 26.6349
14612 1 11.989 15.4876 26.5909
14606 1 9.38774 15.4328 26.5278
14661 1 9.4554 18.4797 23.53
136 2 7.97872 8.17079 27.7316
14656 2 8.03071 19.6518 22.1152
14655 2 8.13265 16.9233 24.9511
14611 1 12.243 15.5237 23.6474
14662 1 12.3288 18.4367 26.3825
14658 1 6.6962 18.4467 26.2156
7287 2 13.6019 -0.138875 13.7055
11 1 4.07356 1.25047 27.4933
14487 2 13.4845 -0.223583 25.0887
7406 2 10.7256 14.1697 13.6545
121 2 -0.180505 5.32856 27.7745
184 2 2.87892 14.0908 27.7545
11067 2 13.5366 16.8971 19.3084
7407 2 13.5138 11.3377 13.6852
14607 2 13.5261 11.1836 24.9873
14528 1 -0.394974 12.7123 26.3457
7286 2 10.7923 2.56976 13.7263
7275 2 8.00363 -0.216787 13.6706
209 2 10.7292 11.0114 27.7514
7274 2 5.15872 2.70574 13.7109
7383 2 2.439 10.9183 13.7521
7466 2 10.8353 19.6783 13.7087
3913 2 5.00787 22.5485 5.14351
305 1 1.11391 24.1438 1.0192
306 1 0.941009 23.731 3.81395
247 1 3.31696 21.0991 1.01915
314 2 4.9891 25.3666 2.41825
248 1 0.783426 21.0039 3.85836
309 1 3.86583 23.9074 0.834133
303 2 2.27148 22.5244 2.45601
310 1 3.50733 23.8324 3.88627
3904 2 2.31729 25.3314 5.3898
252 1 3.63568 21.0904 3.80952
297 1 0.775214 20.9488 1.08394
308 1 0.755299 26.4745 4.04554
260 1 6.00458 21.748 1.68214
3905 1 0.979808 23.7633 6.74032
3917 1 6.5947 24.0502 6.46805
3859 1 6.60479 21.0851 6.69251
14712 1 6.3024 27.132 1.09052
320 1 6.51445 27.1513 3.79192
3911 1 3.63043 26.8032 6.49382
317 1 6.64906 24.2416 0.874615
318 1 6.30817 24.1111 3.74295
312 1 3.67687 26.6526 3.86172
311 1 3.42634 26.9325 1.15548
7696 2 7.62826 42.5755 11.1813
3847 1 0.838025 21.0399 6.77357
14718 1 8.38117 21.7084 0.267368
3925 2 10.8543 22.546 5.07444
329 1 12.4623 24.2888 1.03263
330 1 12.0274 24.1081 3.69329
271 1 12.0106 21.6274 1.0154
326 2 10.7767 25.5859 2.23096
272 1 12.4134 21.1916 3.77497
321 1 9.46159 24.2066 0.879931
315 2 7.88721 23.007 2.12362
322 1 9.00248 24.556 3.52312
3916 2 7.84613 25.517 5.06113
263 1 9.29251 21.5457 3.13406
3921 1 9.25335 24.0256 6.39458
3863 1 9.19836 21.1567 6.53083
324 1 9.3751 27.0125 3.64056
319 1 9.32297 26.8326 1.04568
3923 1 9.60844 26.9981 6.50015
323 1 12.0598 26.8373 3.74292
14794 1 12.0188 27.4487 0.966141
545 1 0.955541 46.7272 1.02423
3931 1 12.4217 26.4878 6.81704
3927 2 13.5712 22.6073 7.9246
7741 2 -0.354592 45.4295 10.8781
366 1 0.672929 27.1407 1.08408
3973 2 4.95108 28.3374 5.03881
363 2 2.05421 28.1963 2.80382
426 1 1.01627 32.441 3.72646
367 1 0.960678 32.6785 0.949859
374 2 5.31585 31.2589 2.48092
368 1 1.20617 29.6583 1.03767
369 1 3.88574 29.8592 0.29685
370 1 3.62686 29.8228 3.40763
3964 2 2.25365 31.0602 5.05628
371 1 3.80139 32.6129 0.853562
372 1 3.70382 32.57 3.62033
3965 1 2.06301 28.5362 5.11266
3967 1 0.152922 29.583 3.70742
380 1 6.64587 32.7526 3.63074
378 1 6.43102 29.9032 3.75549
377 1 6.58903 29.8794 1.04168
4025 1 1.04167 32.6777 6.39473
493 2 5.25161 39.5916 -0.324202
7515 1 9.6312 21.0272 12.0453
4111 1 12.3972 43.8834 9.86047
379 1 6.63517 32.6358 0.802788
14732 1 12.591 30.1054 0.951473
3985 2 10.8128 28.3665 5.05008
375 2 7.85191 28.3366 2.41003
386 2 10.773 31.1906 2.19288
392 1 12.2922 32.4158 3.77379
381 1 9.58649 29.6856 1.01701
382 1 9.29318 29.8611 3.7261
3976 2 7.92552 31.233 5.1713
383 1 9.42924 32.5166 0.761885
384 1 9.44754 32.7538 3.50913
3989 1 12.0387 29.8348 3.93473
14854 1 12.2977 32.6573 0.89279
3983 1 9.41756 32.6626 6.3447
7574 2 5.14422 31.0798 13.5967
7711 1 12.0833 43.6081 12.5366
484 2 2.4228 42.4059 -0.4144
553 2 5.09369 45.3569 -0.354713
4110 1 12.1505 41.1747 9.48183
7765 2 10.6984 45.7268 10.7988
566 2 10.6999 45.0741 -0.33189
4033 2 5.09323 33.9538 5.12225
425 1 0.906688 35.4841 0.732717
434 2 5.13933 36.8288 2.23386
429 1 3.87866 35.4371 0.888992
423 2 2.49371 34.0014 2.38152
430 1 3.85004 35.4679 3.77388
4024 2 2.24409 36.8039 5.1434
428 1 1.05799 35.4145 3.7008
486 1 0.725542 38.1825 3.81073
427 1 1.08007 38.1816 1.01613
483 2 2.44357 39.6575 2.29761
431 1 3.90555 38.3722 0.887517
432 1 3.77591 38.1968 3.54399
4093 2 5.26116 39.5732 5.07082
437 1 6.64946 35.4133 0.915587
4027 1 0.941696 35.3782 6.48823
4037 1 6.71681 35.4578 6.62225
438 1 6.55195 35.4951 3.82061
439 1 6.73788 37.9877 0.863616
4039 1 6.5688 38.3059 6.49449
440 1 6.69486 38.2459 3.61659
7767 2 13.5794 45.2687 13.6779
546 1 1.0336 46.3745 3.93911
4045 2 10.89 34.0516 4.97395
449 1 12.2803 35.3566 0.586087
450 1 12.3116 35.463 3.49207
446 2 10.76 36.7428 2.14647
441 1 9.52426 35.4188 0.645752
435 2 8.0068 33.9851 2.27209
442 1 9.35442 35.352 3.72818
4036 2 7.92663 36.8993 5.07228
452 1 12.2688 38.2141 3.66887
443 1 9.49874 38.1362 0.842654
444 1 9.36376 38.2968 3.81627
14852 1 12.2441 38.1675 1.0607
4105 2 10.7676 39.5376 5.02061
495 2 8.13232 39.7183 2.29471
4043 1 9.37603 38.2789 6.61446
4051 1 12.315 38.25 6.37183
4041 1 9.73147 35.4865 6.37664
4021 2 -0.432789 34.0657 5.15918
4081 2 -0.471459 39.6926 5.22068
7459 1 6.42102 21.0176 12.1918
4153 2 5.22968 45.3034 5.16974
485 1 0.990369 41.1351 0.937456
487 1 0.951183 43.8108 1.04146
494 2 5.1934 42.4792 2.37787
488 1 1.11993 40.9062 3.85959
489 1 3.80034 41.2194 0.970757
543 2 2.42554 45.3328 2.36258
490 1 3.86967 40.9622 3.823
491 1 3.87848 43.8672 1.08883
492 1 3.68283 43.785 3.79026
482 2 2.37707 42.4821 5.18799
540 1 0.910577 43.6456 3.86163
499 1 6.73715 43.9255 1.07959
500 1 6.52662 44.0096 3.84713
498 1 6.64829 41.0314 3.61643
4097 1 6.59078 41.0664 6.50858
4107 2 13.6556 39.514 8.12164
4089 1 3.84603 40.8979 6.74518
4141 2 -0.45317 45.2282 5.30602
7634 2 5.25117 36.7031 13.3937
497 1 6.52775 41.1687 0.991948
507 2 13.6485 39.5025 2.35956
4165 2 10.7983 45.3025 5.21694
509 1 12.0902 40.7145 0.875467
510 1 12.1989 41.0217 3.8089
511 1 12.0161 43.6602 0.990744
506 2 10.8472 42.4935 2.41274
501 1 9.33984 40.8947 0.935852
555 2 8.05623 45.2563 2.26648
502 1 9.37644 41.2222 3.83779
4096 2 7.94113 42.5098 5.24099
503 1 9.26614 43.5822 1.2445
504 1 9.3851 43.886 3.94072
565 1 12.407 43.9744 3.83842
4101 1 9.37299 41.1122 6.6194
4103 1 9.41902 43.9121 6.78764
4109 1 12.2169 40.9718 6.59107
313 2 5.26714 22.537 -0.313062
4102 1 9.50489 41.2008 9.59695
447 2 13.5952 33.9379 2.38442
3909 1 3.72869 24.0985 6.65522
3851 1 3.7458 21.3494 6.77106
3919 1 6.2874 26.9184 6.49901
3907 1 0.912977 26.6273 6.76403
7648 2 13.6247 36.606 10.9527
7501 2 -0.0359072 22.5541 11.0527
7513 2 5.11133 22.5164 10.8251
7505 1 0.981826 23.934 12.4814
3906 1 1.13334 23.8802 9.48862
7447 1 1.0002 20.9724 12.3263
3914 2 5.28245 25.4379 8.02977
3860 1 3.89722 21.0398 9.58757
7509 1 3.66428 23.993 12.2196
3903 2 2.372 22.5561 8.26281
3910 1 3.7436 24.0359 9.4353
7504 2 2.35754 25.4258 10.8042
7451 1 3.6629 21.1401 12.3914
3852 1 1.11441 20.9123 9.34697
7507 1 0.881519 26.7883 12.4354
3912 1 3.9049 26.9366 9.38398
7517 1 6.36297 24.2618 12.1001
3920 1 6.47875 26.8624 9.46768
3918 1 6.55131 23.9926 9.38718
3864 1 6.57741 21.155 9.31481
3908 1 1.0062 26.8009 9.49315
7511 1 3.57744 26.7667 12.4144
4145 1 1.06674 46.7649 6.68968
3929 1 12.0865 23.8849 6.60392
4106 2 10.7389 42.4834 7.8395
3871 1 12.2818 21.1032 6.70595
7463 1 9.2585 21.2413 9.24559
3961 2 -0.32153 28.1385 5.2848
7525 2 10.8472 22.4492 10.7638
7529 1 12.267 23.5883 12.4459
3930 1 12.2636 23.9728 9.27848
7471 1 12.3776 20.9886 12.1274
3926 2 10.5741 25.3629 7.84087
3872 1 12.1732 21.2425 9.43401
7521 1 9.86736 24.2405 11.9798
3915 2 7.79221 22.5841 7.91989
3922 1 9.33666 23.9449 9.33865
7516 2 8.03534 25.2978 10.8277
3924 1 9.26147 26.6776 9.36886
7523 1 9.44994 26.8937 12.0778
7531 1 12.433 26.426 12.4042
3932 1 12.2523 27.0931 9.58076
302 2 -0.370754 25.3896 2.53298
3966 1 1.05904 29.8514 6.7535
3979 1 6.63744 32.6252 6.44707
3971 1 3.96737 32.4257 6.22054
7519 1 6.39029 27.021 12.3664
3969 1 4.01861 29.7216 6.55866
7573 2 5.07229 28.2482 10.958
3963 2 2.48545 28.2899 7.88816
7565 1 0.960195 29.7187 9.45646
7567 1 1.0249 32.7723 12.1373
3974 2 5.05192 31.1026 8.05448
3968 1 0.950944 32.5983 9.38403
7569 1 1.00204 29.6452 12.2777
3970 1 3.64495 29.5689 9.42614
7564 2 2.24698 31.1528 10.9545
7571 1 3.57487 29.694 12.1849
3972 1 3.83021 32.5423 9.15859
7572 1 3.67897 32.434 12.1002
7579 1 6.48153 32.4868 12.1546
3978 1 6.53137 29.6757 9.14909
3962 2 -0.306209 31.1184 8.16542
3977 1 6.76797 29.7014 6.60124
3991 1 12.3399 32.482 6.67584
3990 1 12.1338 29.6379 6.79374
7623 2 2.39169 33.9959 13.4571
7577 1 6.61737 29.6818 12.2115
3980 1 6.63052 32.6058 9.28144
3981 1 9.49976 29.9133 6.51137
7585 2 10.4493 28.3348 10.7287
3975 2 7.95542 28.3969 7.9934
7589 1 12.1637 29.2989 12.1475
7591 1 12.4154 32.3818 12.324
3986 2 10.8254 31.2076 7.97805
3992 1 12.2027 32.7949 9.4714
7581 1 9.37384 29.5884 12.3045
3982 1 9.39002 29.7882 9.34086
7576 2 7.92106 31.2658 10.827
7583 1 12.0734 29.7897 9.60117
3984 1 9.30475 32.3701 9.39928
7635 1 9.48159 32.4193 12.1974
4112 2 10.9335 42.503 10.8809
7681 2 -0.285386 39.7186 10.8413
4029 1 3.59297 35.2003 6.35809
4031 1 3.755 38.2073 6.51055
387 2 13.6638 28.2903 2.75499
4085 1 0.725822 38.2426 6.68257
7633 2 5.0932 34.0076 10.7633
7625 1 0.936589 35.4547 12.139