LAMMPS (29 Oct 2020)
OMP_NUM_THREADS environment is not set. Defaulting to 1 thread. (../comm.cpp:94)
  using 1 OpenMP thread(s) per MPI task
OMP_NUM_THREADS environment is not set. Defaulting to 1 thread. (../comm.cpp:94)
  using 1 OpenMP thread(s) per MPI task
Reading data file ...
  triclinic box = (-0.090387172 -1.0271891 -0.087705534) to (27.984387 335.75519 27.981706) with tilt (0.0000000 0.0000000 0.0000000)
  2 by 13 by 2 MPI processor grid
  reading atoms ...
  18000 atoms
  reading velocities ...
  18000 velocities
Finding 1-2 1-3 1-4 neighbors ...
  special bond factors lj:    0.0      0.0      0.0     
  special bond factors coul:  0.0      0.0      0.0     
     0 = max # of 1-2 neighbors
     0 = max # of 1-3 neighbors
     0 = max # of 1-4 neighbors
     1 = max # of special neighbors
  special bonds CPU = 0.004 seconds
  read_data CPU = 0.064 seconds
Setting atom values ...
  11820 settings made for charge
Setting atom values ...
  6000 settings made for charge
Setting atom values ...
  180 settings made for charge
Setting atom values ...
  0 settings made for charge
PPPM initialization ...
  using 12-bit tables for long-range coulomb (../kspace.cpp:328)
  G vector (1/distance) = 0.29882278
  grid = 40 240 40
  stencil order = 5
  estimated absolute RMS force accuracy = 0.00015780854
  estimated relative force accuracy = 1.0959196e-05
  using single precision MKL FFT
  3d grid and FFT values/proc = 15000 7600
Neighbor list info ...
  update every 1 steps, delay 0 steps, check yes
  max neighbors/atom: 2000, page size: 100000
  master list distance cutoff = 11.3
  ghost atom cutoff = 11.3
  binsize = 5.65, bins = 5 60 5
  2 neighbor lists, perpetual/occasional/extra = 2 0 0
  (1) pair coul/long, perpetual
      attributes: half, newton on
      pair build: half/bin/newton/tri
      stencil: half/bin/3d/newton/tri
      bin: standard
  (2) pair eam/alloy, perpetual, copy from (1)
      attributes: half, newton on
      pair build: copy
      stencil: none
      bin: none
Setting up Verlet run ...
  Unit style    : metal
  Current step  : 0
  Time step     : 0.001
Per MPI rank memory allocation (min/avg/max) = 8.327 | 8.357 | 8.372 Mbytes
Step Temp E_pair E_mol TotEng Press 
       0          600   -235227.81            0   -233831.87    357.36594 
  100000     607.7239   -235262.94            0   -233849.04    6.7091901 
Loop time of 679.86 on 52 procs for 100000 steps with 18000 atoms

Performance: 12.708 ns/day, 1.889 hours/ns, 147.089 timesteps/s
99.8% CPU use with 52 MPI tasks x 1 OpenMP threads

MPI task timing breakdown:
Section |  min time  |  avg time  |  max time  |%varavg| %total
---------------------------------------------------------------
Pair    | 453.32     | 464.3      | 479.83     |  29.4 | 68.29
Bond    | 0.0071912  | 0.011018   | 0.018237   |   2.2 |  0.00
Kspace  | 126.71     | 145.47     | 155.45     |  62.1 | 21.40
Neigh   | 48.279     | 50.181     | 54.509     |  21.6 |  7.38
Comm    | 14.614     | 15.419     | 17.503     |  20.3 |  2.27
Output  | 5.3519e-05 | 5.8219e-05 | 0.00025191 |   0.0 |  0.00
Modify  | 1.8459     | 3.2143     | 5.0141     |  59.9 |  0.47
Other   |            | 1.257      |            |       |  0.18

Nlocal:        346.154 ave         370 max         327 min
Histogram: 3 3 9 9 9 6 4 3 3 3
Nghost:        4172.52 ave        4287 max        4085 min
Histogram: 8 7 3 5 8 8 2 3 6 2
Neighs:        69961.4 ave       74210 max       65791 min
Histogram: 2 4 6 11 4 10 5 1 5 4

Total # of neighbors = 3637995
Ave neighs/atom = 202.11083
Ave special neighs/atom = 0.0000000
Neighbor list builds = 16223
Dangerous builds = 0
11820 atoms in group oxygen
PPPM initialization ...
  using 12-bit tables for long-range coulomb (../kspace.cpp:328)
  G vector (1/distance) = 0.29882278
  grid = 40 240 40
  stencil order = 5
  estimated absolute RMS force accuracy = 0.00015780854
  estimated relative force accuracy = 1.0959196e-05
  using single precision MKL FFT
  3d grid and FFT values/proc = 15000 7600
Setting up Verlet run ...
  Unit style    : metal
  Current step  : 0
  Time step     : 0.001
Per MPI rank memory allocation (min/avg/max) = 8.577 | 8.607 | 8.623 Mbytes
Step f_2 Temp v_Tdiff v_deltaT 
       0            0     607.7239            0            0 
  100000    695.37659    607.14957  0.019726327    229.02082 
  200000    1374.8995    611.72359  0.021742285    252.42591 
  300000    2067.4938    618.37087  0.020469726    237.65162 
  400000    2769.6314    619.10272  0.019979443    231.95947 
  500000    3472.4142    618.77754  0.020783938    241.29959 
  600000    4182.4324    624.95618  0.020189402    234.39709 
  700000    4896.7339    627.55298  0.019739539    229.17421 
  800000    5611.5367    628.87972  0.019745105    229.23883 
  900000    6336.2193    625.76812  0.019406776    225.31087 
 1000000    7060.2601    635.84241  0.019492762    226.30916 
Loop time of 6726.72 on 52 procs for 1000000 steps with 18000 atoms

Performance: 12.844 ns/day, 1.869 hours/ns, 148.661 timesteps/s
99.8% CPU use with 52 MPI tasks x 1 OpenMP threads

MPI task timing breakdown:
Section |  min time  |  avg time  |  max time  |%varavg| %total
---------------------------------------------------------------
Pair    | 4462.1     | 4564.6     | 4713       |  92.4 | 67.86
Bond    | 0.070558   | 0.1085     | 0.16222    |   6.1 |  0.00
Kspace  | 1271.6     | 1452       | 1570.9     | 189.1 | 21.59
Neigh   | 502.81     | 520.26     | 564.61     |  64.6 |  7.73
Comm    | 145.03     | 154        | 178.8      |  71.5 |  2.29
Output  | 0.0010399  | 0.0010983  | 0.0021785  |   0.5 |  0.00
Modify  | 5.3931     | 5.8998     | 6.4466     |  10.6 |  0.09
Other   |            | 29.88      |            |       |  0.44

Nlocal:        346.154 ave         369 max         326 min
Histogram: 3 2 5 11 11 7 3 4 5 1
Nghost:        4159.98 ave        4247 max        4066 min
Histogram: 5 6 3 4 3 9 7 5 6 4
Neighs:        69942.9 ave       74029 max       66182 min
Histogram: 4 3 6 9 7 9 3 2 4 5

Total # of neighbors = 3637031
Ave neighs/atom = 202.05728
Ave special neighs/atom = 0.0000000
Neighbor list builds = 168160
Dangerous builds = 0
Total wall time: 2:03:27
