LAMMPS (29 Oct 2020)
OMP_NUM_THREADS environment is not set. Defaulting to 1 thread. (../comm.cpp:94)
  using 1 OpenMP thread(s) per MPI task
#---------------------------------------
#
# This script is used to calculate the thermal conuctivity of UO2 using Muller-Plathe method
# By Ziqiang Wang on 03/18/2022 on Jilin university
#
#---------------------------------------

variable     Nevery    equal   50
variable     T         equal   1200

clear
OMP_NUM_THREADS environment is not set. Defaulting to 1 thread. (../comm.cpp:94)
  using 1 OpenMP thread(s) per MPI task
units          metal
boundary       p p p
atom_style     full

read_data vac_0.01_relaxed.dat
Reading data file ...
  orthogonal box = (-0.44803542 -5.3530639 -0.44742248) to (27.788035 333.43306 27.787422)
  2 by 13 by 2 MPI processor grid
  reading atoms ...
  17820 atoms
  reading velocities ...
  17820 velocities
Finding 1-2 1-3 1-4 neighbors ...
  special bond factors lj:    0.0      0.0      0.0     
  special bond factors coul:  0.0      0.0      0.0     
     0 = max # of 1-2 neighbors
     0 = max # of 1-3 neighbors
     0 = max # of 1-4 neighbors
     1 = max # of special neighbors
  special bonds CPU = 0.004 seconds
  read_data CPU = 0.065 seconds

set           type     1    charge     -1.1104
Setting atom values ...
  11880 settings made for charge
set           type     2    charge      2.2208
Setting atom values ...
  5940 settings made for charge

kspace_style    pppm   1.0e-05
pair_style      hybrid/overlay  coul/long  11.0  eam/alloy
pair_coeff      * * coul/long
pair_coeff      * * eam/alloy CeThUNpPuAmCmO.eam.alloy O Th
newton          on
neighbor        0.3 bin
neigh_modify    delay 0 check yes every 1

#The first equilation
velocity        all create $T 10002 mom yes rot yes dist gaussian
velocity        all create 1200 10002 mom yes rot yes dist gaussian
fix             nvt  all  nvt  temp  $T $T  0.1
fix             nvt  all  nvt  temp  1200 $T  0.1
fix             nvt  all  nvt  temp  1200 1200  0.1

run             50000
PPPM initialization ...
  using 12-bit tables for long-range coulomb (../kspace.cpp:328)
  G vector (1/distance) = 0.29848272
  grid = 40 240 40
  stencil order = 5
  estimated absolute RMS force accuracy = 0.00015974493
  estimated relative force accuracy = 1.1093672e-05
  using single precision MKL FFT
  3d grid and FFT values/proc = 15000 7600
Neighbor list info ...
  update every 1 steps, delay 0 steps, check yes
  max neighbors/atom: 2000, page size: 100000
  master list distance cutoff = 11.3
  ghost atom cutoff = 11.3
  binsize = 5.65, bins = 5 60 5
  2 neighbor lists, perpetual/occasional/extra = 2 0 0
  (1) pair coul/long, perpetual
      attributes: half, newton on
      pair build: half/bin/newton
      stencil: half/bin/3d/newton
      bin: standard
  (2) pair eam/alloy, perpetual, copy from (1)
      attributes: half, newton on
      pair build: copy
      stencil: none
      bin: none
Per MPI rank memory allocation (min/avg/max) = 8.149 | 8.170 | 8.184 Mbytes
Step Temp E_pair E_mol TotEng Press 
       0         1200   -231279.73            0   -228515.78   -905.19249 
   50000    1202.6941   -231322.11            0   -228551.96   -1537.1185 
Loop time of 326.262 on 52 procs for 50000 steps with 17820 atoms

Performance: 13.241 ns/day, 1.813 hours/ns, 153.251 timesteps/s
99.8% CPU use with 52 MPI tasks x 1 OpenMP threads

MPI task timing breakdown:
Section |  min time  |  avg time  |  max time  |%varavg| %total
---------------------------------------------------------------
Pair    | 219.14     | 222.43     | 228.39     |  14.4 | 68.18
Bond    | 0.0036021  | 0.005316   | 0.0072172  |   1.2 |  0.00
Kspace  | 62.603     | 70.302     | 74.859     |  32.7 | 21.55
Neigh   | 22.012     | 23.344     | 24.817     |  15.1 |  7.15
Comm    | 7.3528     | 7.8664     | 9.308      |  16.2 |  2.41
Output  | 5.2962e-05 | 5.7834e-05 | 0.00026006 |   0.0 |  0.00
Modify  | 0.89162    | 1.6644     | 2.77       |  44.3 |  0.51
Other   |            | 0.6469     |            |       |  0.20

Nlocal:        342.692 ave         365 max         325 min
Histogram: 1 10 4 5 8 9 11 0 1 3
Nghost:        3995.02 ave        4100 max        3921 min
Histogram: 6 8 8 7 5 5 3 2 6 2
Neighs:        68429.2 ave       73092 max       64300 min
Histogram: 5 6 4 3 9 8 6 7 1 3

Total # of neighbors = 3558320
Ave neighs/atom = 199.68126
Ave special neighs/atom = 0.0000000
Neighbor list builds = 10998
Dangerous builds = 0
unfix           nvt
reset_timestep  0

# the second run
fix             1 all nve

group           oxygen type 1
11880 atoms in group oxygen
fix             2 oxygen thermal/conductivity ${Nevery} y 20
fix             2 oxygen thermal/conductivity 50 y 20

compute         ke all ke/atom
variable        temp atom c_ke/1.5
compute         layers all chunk/atom bin/1d y lower 0.05 units reduced
fix             3      all ave/chunk  2000 50 100000 layers v_temp file profile_${T}K.mp
fix             3      all ave/chunk  2000 50 100000 layers v_temp file profile_1200K.mp

variable        Tdiff    equal     f_3[11][3]-f_3[1][3]
variable        deltaT   equal     v_Tdiff*1.5/0.0001292

timestep        0.001
thermo_style    custom step f_2 temp v_Tdiff v_deltaT
thermo          100000

run             1000000
PPPM initialization ...
  using 12-bit tables for long-range coulomb (../kspace.cpp:328)
  G vector (1/distance) = 0.29848272
  grid = 40 240 40
  stencil order = 5
  estimated absolute RMS force accuracy = 0.00015974493
  estimated relative force accuracy = 1.1093672e-05
  using single precision MKL FFT
  3d grid and FFT values/proc = 15000 7600
Per MPI rank memory allocation (min/avg/max) = 8.399 | 8.420 | 8.435 Mbytes
Step f_2 Temp v_Tdiff v_deltaT 
       0            0    1202.6941            0            0 
  100000    1281.9216    1186.0181  0.048896421     567.6829 
  200000    2505.5807    1198.4818  0.057756686    670.54976 
  300000    3736.0443    1193.3387   0.05714122    663.40426 
  400000    4949.4004    1189.1043  0.057806662    671.12998 
  500000    6180.5985    1197.7511  0.056274552    653.34232 
  600000    7398.1281    1191.4815  0.059182203    687.09988 
  700000    8627.9854    1198.3151  0.058711034    681.62965 
  800000    9855.1324    1193.6819  0.056823815    659.71921 
  900000    11076.513    1202.4672  0.058258388    676.37448 
 1000000    12300.992    1191.3273  0.058478094    678.92524 
Loop time of 6505.72 on 52 procs for 1000000 steps with 17820 atoms

Performance: 13.281 ns/day, 1.807 hours/ns, 153.711 timesteps/s
99.8% CPU use with 52 MPI tasks x 1 OpenMP threads

MPI task timing breakdown:
Section |  min time  |  avg time  |  max time  |%varavg| %total
---------------------------------------------------------------
Pair    | 4314.5     | 4409       | 4482.7     |  60.1 | 67.77
Bond    | 0.067062   | 0.10422    | 0.14131    |   5.3 |  0.00
Kspace  | 1309.3     | 1396.9     | 1490.5     | 118.0 | 21.47
Neigh   | 477.11     | 499.76     | 526.28     |  54.8 |  7.68
Comm    | 149.8      | 160.8      | 192.62     |  83.8 |  2.47
Output  | 0.0015424  | 0.0016013  | 0.0028143  |   0.4 |  0.00
Modify  | 5.2525     | 5.8481     | 6.4583     |  12.1 |  0.09
Other   |            | 33.38      |            |       |  0.51

Nlocal:        342.692 ave         363 max         325 min
Histogram: 2 4 10 6 6 11 2 6 3 2
Nghost:        3990.31 ave        4108 max        3886 min
Histogram: 1 0 9 14 7 10 4 3 1 3
Neighs:        68433.1 ave       72775 max       64770 min
Histogram: 5 2 8 7 8 8 5 2 4 3

Total # of neighbors = 3558519
Ave neighs/atom = 199.69242
Ave special neighs/atom = 0.0000000
Neighbor list builds = 235709
Dangerous builds = 0

Total wall time: 1:53:52
