ITEM: TIMESTEP
20000
ITEM: NUMBER OF ATOMS
17640
ITEM: BOX BOUNDS pp pp pp
-4.7763753027195116e-01 2.7817637530271824e+01
-5.8294076136091508e+00 3.3390940761361395e+02
-4.9481290046471305e-01 2.7834812900464563e+01
ITEM: ATOMS id type q x y z
1 2 2.2208 5.42809 0.126963 5.21687
2 1 -1.1104 1.23987 -4.44562 0.72142
6 1 -1.1104 1.19845 -3.92532 3.52409
10 1 -1.1104 1.1476 -1.30202 0.703407
12 2 2.2208 5.29877 -2.91876 2.36419
14 1 -1.1104 0.819833 -1.41161 3.81515
16 1 -1.1104 4.15159 -4.11912 0.863009
18 2 2.2208 2.67563 -0.0339281 2.39555
19 1 -1.1104 3.9351 -4.36541 3.63493
21 2 2.2208 2.45619 -2.85354 5.23796
23 1 -1.1104 4.07094 -1.47582 0.935841
24 1 -1.1104 3.92663 -1.49472 3.68327
8091 2 2.2208 5.38865 -5.61476 11.0061
8094 2 2.2208 11.0808 -5.65689 10.7448
679 2 2.2208 2.36566 14.0104 -0.274462
8591 2 2.2208 13.7056 19.4148 5.58592
4 1 -1.1104 6.89941 -4.47694 0.681843
11 1 -1.1104 6.68066 -1.56599 0.804179
8 1 -1.1104 6.73628 -4.2983 3.39381
15 1 -1.1104 6.73053 -1.42894 3.74559
31 2 2.2208 10.9394 -0.256746 5.22758
32 1 -1.1104 12.354 -4.22327 0.726512
34 1 -1.1104 12.5763 -4.49654 3.61352
36 1 -1.1104 12.4652 -1.63304 0.865109
37 2 2.2208 11.1345 -2.98104 2.24875
39 1 -1.1104 12.4588 -1.70126 3.56281
40 1 -1.1104 9.6703 -4.48563 0.813065
42 2 2.2208 8.1 -0.182441 2.439
43 1 -1.1104 9.77385 -4.56756 3.6011
45 2 2.2208 8.1332 -2.98764 4.99155
47 1 -1.1104 9.64377 -1.64147 1.00022
48 1 -1.1104 9.74848 -1.70868 3.89013
207 1 -1.1104 12.1544 -1.58838 6.79557
168 1 -1.1104 6.66806 -4.29264 6.251
205 1 -1.1104 12.3932 -4.67881 6.17903
199 2 2.2208 -0.187772 2.63238 7.89579
3 1 -1.1104 1.00225 1.33467 1.19474
7 1 -1.1104 0.818032 1.64619 4.09378
13 2 2.2208 5.32329 2.67964 2.12783
17 1 -1.1104 3.64258 1.16804 0.909902
20 1 -1.1104 3.76899 1.31519 3.78129
22 2 2.2208 2.47297 2.75989 5.08965
54 2 2.2208 5.21563 5.49872 5.24902
56 1 -1.1104 0.897105 6.84204 1.07797
58 1 -1.1104 0.939569 7.01202 3.90209
60 1 -1.1104 0.940655 3.99997 0.805801
67 1 -1.1104 0.84854 4.21476 3.48585
71 1 -1.1104 3.8801 7.02306 1.0185
72 2 2.2208 2.44539 5.41882 2.43638
74 1 -1.1104 3.91786 6.93291 3.88616
76 1 -1.1104 3.95358 3.89975 0.69154
79 1 -1.1104 3.70673 4.07257 3.63607
239 1 -1.1104 3.9048 3.93854 6.71423
69 1 -1.1104 6.31486 3.90938 3.95557
167 1 -1.1104 1.21418 1.03977 6.56119
9 1 -1.1104 6.45483 1.31533 3.73719
5 1 -1.1104 6.70652 1.1775 0.902831
237 1 -1.1104 6.52915 4.09666 6.76969
8085 2 2.2208 5.42501 -5.76268 5.0738
330 2 2.2208 10.9592 13.9504 13.5591
173 1 -1.1104 3.94255 1.28194 6.46086
562 2 2.2208 13.5928 19.561 -0.127582
137 2 2.2208 -0.438221 16.8039 5.33397
63 1 -1.1104 6.64086 4.03083 1.05369
235 1 -1.1104 6.59735 7.13312 6.50477
59 1 -1.1104 6.76756 6.61279 3.5191
57 1 -1.1104 6.55572 6.93189 0.688222
33 1 -1.1104 12.4443 1.17604 0.806919
35 1 -1.1104 12.3523 0.973172 3.72081
38 2 2.2208 10.987 2.53685 2.39975
41 1 -1.1104 9.58284 1.12163 0.847631
44 1 -1.1104 9.18614 1.48117 3.37041
46 2 2.2208 8.00827 2.57775 4.95315
84 2 2.2208 10.8744 5.5106 5.35969
87 1 -1.1104 12.2236 6.87036 3.94618
88 1 -1.1104 12.3036 3.98887 1.04349
92 1 -1.1104 12.1277 3.86832 3.93541
94 1 -1.1104 9.48112 7.10698 1.20907
95 2 2.2208 8.18363 5.32677 2.3333
97 1 -1.1104 9.57396 6.64171 4.11519
99 1 -1.1104 9.48546 3.87958 0.93552
102 1 -1.1104 9.53025 4.11971 3.69404
81 2 2.2208 -0.415967 5.47181 5.08472
209 1 -1.1104 9.38072 1.40221 6.29105
86 1 -1.1104 12.4908 6.72868 1.05726
317 2 2.2208 8.13631 14.0911 11.0355
8084 2 2.2208 2.66799 -5.86562 2.25267
55 2 2.2208 5.28932 11.0291 5.42602
61 1 -1.1104 1.2394 9.79821 0.900418
66 2 2.2208 5.37114 8.19178 2.35914
68 1 -1.1104 1.00488 9.76341 3.68726
73 2 2.2208 2.53239 11.131 2.41274
75 2 2.2208 2.47243 8.15091 5.26692
77 1 -1.1104 4.08307 9.84204 0.974527
80 1 -1.1104 3.88192 9.55583 3.90914
107 1 -1.1104 1.07328 12.6493 1.28862
113 1 -1.1104 0.780247 12.7717 4.0767
123 1 -1.1104 3.80895 12.5166 0.995123
128 1 -1.1104 3.73625 12.5545 4.02659
62 1 -1.1104 0.621149 9.50757 6.30654
115 1 -1.1104 6.66158 12.4327 4.02424
108 1 -1.1104 1.07836 12.5695 6.77307
78 1 -1.1104 3.77793 9.6196 6.72746
65 1 -1.1104 6.7217 9.7751 6.72201
111 1 -1.1104 6.49308 12.4697 6.88562
28 2 2.2208 -0.134625 5.61903 11.1793
70 1 -1.1104 6.73873 9.60074 3.81582
64 1 -1.1104 6.77045 9.69572 0.929202
110 1 -1.1104 6.80703 12.5252 1.21716
85 2 2.2208 10.8939 10.9632 5.4687
89 1 -1.1104 12.7276 9.45859 1.17664
91 2 2.2208 11.1902 8.19594 2.44602
93 1 -1.1104 12.2561 9.7499 3.9195
96 2 2.2208 8.05663 11.0685 2.38925
98 2 2.2208 8.08154 8.15562 5.32428
100 1 -1.1104 9.75242 9.87881 0.858731
103 1 -1.1104 9.35679 9.5316 3.692
142 1 -1.1104 12.4268 12.2558 1.05295
146 1 -1.1104 12.2973 12.6837 3.9097
153 1 -1.1104 9.69945 12.636 1.0798
158 1 -1.1104 9.56889 12.4593 4.11197
143 1 -1.1104 12.6399 12.3399 6.70897
8515 2 2.2208 -0.307513 16.7995 10.7756
90 1 -1.1104 12.0578 9.43039 6.56682
101 1 -1.1104 9.58673 9.63851 6.85533
154 1 -1.1104 9.65721 12.4331 6.75802
315 1 -1.1104 9.69724 15.5009 12.2577
130 2 2.2208 2.43371 14.0807 5.26874
119 2 2.2208 5.44676 13.9063 2.38781
106 2 2.2208 5.25806 16.749 5.36097
109 1 -1.1104 1.1563 18.1714 1.16637
114 1 -1.1104 0.839063 18.3218 3.97026
116 1 -1.1104 1.07526 15.4478 1.25807
120 2 2.2208 5.15814 19.5635 2.50014
121 1 -1.1104 1.0971 15.5806 3.99658
125 1 -1.1104 3.97675 18.3098 1.18642
127 2 2.2208 2.4665 16.6366 2.59489
129 1 -1.1104 3.9571 18.1255 3.92232
131 2 2.2208 2.31388 19.3582 5.36411
132 1 -1.1104 4.10139 15.2798 1.1465
134 1 -1.1104 3.98557 15.3275 3.89395
140 1 -1.1104 6.69529 15.4213 0.958992
138 1 -1.1104 6.7168 18.2316 1.04872
8090 2 2.2208 2.78848 -5.68477 7.75943
126 1 -1.1104 3.71482 18.128 6.65131
25 2 2.2208 -0.285207 -2.74423 2.1686
8087 2 2.2208 8.1607 -5.77853 2.04601
160 2 2.2208 7.95892 13.8277 5.5096
139 1 -1.1104 6.58253 18.0597 3.74507
122 1 -1.1104 6.64364 15.3034 3.85158
150 2 2.2208 10.8785 13.9652 2.75651
141 2 2.2208 10.9135 16.6016 5.41343
144 1 -1.1104 12.065 17.9984 1.00477
147 1 -1.1104 12.439 18.178 3.84755
148 1 -1.1104 12.5818 15.0901 1.36403
151 2 2.2208 10.8229 19.2681 2.49186
152 1 -1.1104 12.3099 15.5018 4.15011
155 1 -1.1104 9.38732 18.1093 1.07634
157 2 2.2208 8.01119 16.7264 2.51472
159 1 -1.1104 9.45265 17.9181 3.96006
161 2 2.2208 8.15093 19.407 5.45951
162 1 -1.1104 9.46003 15.429 1.27409
164 1 -1.1104 9.37648 15.1688 4.23232
149 1 -1.1104 12.0402 15.0779 6.97915
404 2 2.2208 8.44039 -0.0847144 13.653
112 1 -1.1104 6.74099 18.1533 6.72746
174 1 -1.1104 3.82879 -1.41468 6.62758
172 1 -1.1104 4.09056 -4.22201 6.45085
650 2 2.2208 11.0617 11.0464 -0.423522
170 1 -1.1104 1.06341 -1.7748 6.68415
166 1 -1.1104 1.46549 -4.48098 6.36377
175 2 2.2208 5.35257 -0.195621 10.8772
176 1 -1.1104 1.10274 -4.42318 12.1448
180 1 -1.1104 0.937766 -4.32374 9.33661
184 1 -1.1104 1.28113 -1.59865 12.2983
186 2 2.2208 5.37961 -3.01167 7.77743
188 1 -1.1104 1.08928 -1.44044 9.45889
190 1 -1.1104 4.07495 -4.0949 12.1789
192 2 2.2208 2.52724 -0.172478 8.0477
193 1 -1.1104 3.7889 -4.35371 9.34314
195 2 2.2208 2.53473 -2.8307 10.8187
197 1 -1.1104 3.81764 -1.28449 12.0096
198 1 -1.1104 4.09296 -1.6145 9.30809
210 1 -1.1104 9.54053 -1.68014 6.57199
171 1 -1.1104 6.87678 -1.65608 6.65813
208 1 -1.1104 9.80265 -4.45821 6.66025
178 1 -1.1104 6.7057 -4.47225 12.249
185 1 -1.1104 6.72302 -1.75279 12.096
189 1 -1.1104 6.75334 -1.4486 9.36579
182 1 -1.1104 6.57274 -4.27574 9.3967
211 2 2.2208 10.9708 -0.161083 10.688
212 1 -1.1104 12.5838 -4.49535 12.1644
214 1 -1.1104 12.5377 -4.29912 8.99392
216 1 -1.1104 12.5907 -1.56511 12.2315
217 2 2.2208 10.9862 -2.87358 8.03078
219 1 -1.1104 12.2084 -1.50492 9.46351
220 1 -1.1104 9.48225 -4.31168 12.0122
222 2 2.2208 8.1508 -0.0940102 7.93061
223 1 -1.1104 9.5573 -4.38048 9.39058
225 2 2.2208 8.0952 -2.94291 10.7102
227 1 -1.1104 9.75624 -1.42985 12.1427
228 1 -1.1104 9.57296 -1.52162 9.42411
234 1 -1.1104 1.26353 7.11947 7.09791
236 1 -1.1104 0.986161 4.04955 6.44116
626 2 2.2208 -0.411628 11.0286 -0.360017
238 1 -1.1104 3.99865 6.93141 6.67376
678 2 2.2208 5.09878 16.8557 -0.236281
177 1 -1.1104 1.23905 1.30968 12.3039
181 1 -1.1104 1.11704 1.31767 9.55473
187 2 2.2208 5.16741 2.61051 8.05304
191 1 -1.1104 3.94806 1.12428 12.1831
194 1 -1.1104 4.00351 1.04524 9.36107
196 2 2.2208 2.47407 2.68387 10.8856
240 2 2.2208 5.20493 5.35641 11.0199
242 1 -1.1104 1.2184 6.88228 12.5434
244 1 -1.1104 1.30796 6.84023 9.90776
246 1 -1.1104 1.17754 4.09303 12.2585
251 1 -1.1104 1.398 3.86725 9.12981
255 1 -1.1104 3.86373 6.87626 12.2305
256 2 2.2208 2.60446 5.6384 8.30809
258 1 -1.1104 3.96141 6.94847 9.51137
260 1 -1.1104 3.99106 3.99146 12.2311
262 1 -1.1104 3.97733 4.06366 9.62228
245 1 -1.1104 6.72705 6.94698 9.45891
248 1 -1.1104 6.71637 3.9528 12.5498
243 1 -1.1104 6.66493 6.73097 12.3689
206 1 -1.1104 12.1534 1.36015 6.60846
266 1 -1.1104 12.1088 4.25396 6.51926
169 1 -1.1104 6.88392 1.37128 6.62966
265 1 -1.1104 12.1591 6.91325 6.62788
624 2 2.2208 2.53625 8.38512 -0.286192
269 1 -1.1104 9.19996 4.09982 6.48068
183 1 -1.1104 6.76048 1.16475 9.45508
179 1 -1.1104 6.95145 1.26201 12.2841
253 1 -1.1104 6.48536 4.01354 9.74151
267 1 -1.1104 9.14839 6.86345 6.84127
213 1 -1.1104 12.5699 1.41128 11.9184
215 1 -1.1104 12.2406 1.35155 9.32715
218 2 2.2208 10.7784 2.85105 7.86413
221 1 -1.1104 9.6055 1.24356 12.1613
224 1 -1.1104 9.51336 1.4329 9.08564
226 2 2.2208 8.14387 2.67759 10.8822
268 1 -1.1104 9.56014 4.18307 9.38393
271 1 -1.1104 9.54829 4.03605 12.2761
273 1 -1.1104 9.59771 6.72372 9.48807
275 2 2.2208 7.86118 5.4166 8.07518
276 2 2.2208 11.0611 5.25748 11.0999
278 1 -1.1104 12.1636 6.89611 12.3748
280 1 -1.1104 12.7666 4.29605 12.2326
283 1 -1.1104 12.517 3.92432 9.29313
285 1 -1.1104 9.40829 6.88709 12.4881
279 1 -1.1104 12.4226 6.74881 9.63386
591 2 2.2208 7.983 19.4752 -0.189122
124 1 -1.1104 3.89862 12.5906 6.57311
200 2 2.2208 -0.240263 -2.8641 8.1728
289 1 -1.1104 6.63925 15.3128 9.73679
564 2 2.2208 8.23345 13.8162 -0.299142
26 2 2.2208 -0.316976 -0.198855 5.18773
241 2 2.2208 5.34374 11.0434 11.1405
247 1 -1.1104 1.03174 9.76531 12.1609
250 2 2.2208 5.22457 8.39131 8.16559
252 1 -1.1104 1.01796 9.75334 9.50356
257 2 2.2208 2.29276 11.1685 7.98978
259 2 2.2208 2.5178 8.49582 10.8968
261 1 -1.1104 3.95969 9.64985 12.7459
263 1 -1.1104 3.68325 9.99496 9.74504
287 1 -1.1104 3.78623 12.3928 12.4681
294 1 -1.1104 1.11928 12.6564 9.50024
299 1 -1.1104 0.898522 12.3304 12.3289
305 1 -1.1104 4.0252 12.5557 9.70521
290 1 -1.1104 6.95384 12.5088 9.66035
297 1 -1.1104 6.7373 12.4849 12.3488
8086 2 2.2208 -0.0799885 -5.6333 5.01661
254 1 -1.1104 6.707 9.65037 9.64911
249 1 -1.1104 6.67959 9.72227 12.4165
319 1 -1.1104 9.62474 12.489 9.51668
233 1 -1.1104 9.26364 12.7952 12.2883
264 1 -1.1104 9.43975 9.49987 9.84612
270 1 -1.1104 9.28127 9.74342 12.4998
272 2 2.2208 7.90088 8.08959 11.1244
274 2 2.2208 8.15021 11.0493 8.18645
277 2 2.2208 10.6777 11.1281 11.0087
281 1 -1.1104 12.1161 9.84869 12.2724
282 2 2.2208 10.8859 8.21127 8.14661
284 1 -1.1104 12.2558 9.88677 9.55523
53 1 -1.1104 12.3951 12.7474 9.25109
105 1 -1.1104 12.1345 12.5198 12.1912
313 2 2.2208 -0.324859 13.9679 8.06494
204 2 2.2208 10.7754 13.851 8.30482
117 1 -1.1104 0.998951 15.3295 6.68057
302 1 -1.1104 0.938375 18.0339 6.76272
288 1 -1.1104 6.76298 18.1269 9.67506
118 1 -1.1104 6.45563 15.4567 6.83973
565 2 2.2208 10.8486 16.536 -0.313813
82 2 2.2208 -0.463732 8.47641 2.47356
8092 2 2.2208 -0.355038 -5.69976 10.8348
201 2 2.2208 -0.10041 -0.196715 10.9041
309 2 2.2208 2.2978 19.8183 10.9499
308 1 -1.1104 3.90409 15.2954 12.2567
133 1 -1.1104 3.73967 15.5913 6.44508
307 1 -1.1104 1.17585 15.3211 12.1764
295 2 2.2208 5.18686 13.7876 8.11565
310 2 2.2208 2.47672 13.9048 10.8921
286 1 -1.1104 3.84238 18.3288 12.3926
291 1 -1.1104 0.997588 18.422 9.78813
292 1 -1.1104 0.941568 15.5055 9.38504
293 2 2.2208 5.18435 19.4135 7.99815
298 1 -1.1104 0.954932 18.4276 12.6731
300 2 2.2208 5.23929 16.8228 10.8839
301 1 -1.1104 3.77948 18.2052 9.44731
303 2 2.2208 2.36923 16.821 8.08491
304 1 -1.1104 3.74151 15.1865 9.32028
136 2 2.2208 -0.401369 19.4999 2.41594
320 2 2.2208 7.86203 16.7176 8.17791
104 2 2.2208 10.9359 16.8418 10.9446
202 1 -1.1104 12.6183 18.2981 9.49046
306 1 -1.1104 6.7909 15.3618 12.213
163 1 -1.1104 9.07977 15.1943 6.97525
232 1 -1.1104 12.1672 15.3467 9.61023
314 1 -1.1104 9.41828 15.6646 9.65229
316 2 2.2208 8.09911 19.7646 10.9577
296 1 -1.1104 6.7414 18.3567 12.4502
318 1 -1.1104 9.58083 18.2012 9.76364
203 1 -1.1104 12.5887 15.3455 12.4404
321 1 -1.1104 9.75388 18.2525 12.5826
156 1 -1.1104 9.55672 17.986 6.91049
231 2 2.2208 11.0974 19.7285 8.61619
312 1 -1.1104 12.5954 18.1041 12.3811
145 1 -1.1104 12.5294 17.8116 6.77322
8093 2 2.2208 8.10707 -5.63334 7.92725
83 2 2.2208 -0.42616 11.1872 5.20743
590 2 2.2208 8.09887 2.61914 -0.415113
325 2 2.2208 10.8712 8.3741 13.546
648 2 2.2208 11.0248 5.51241 -0.357
406 2 2.2208 11.2389 2.76884 13.4254
405 2 2.2208 11.1247 -3.05895 13.5294
681 2 2.2208 -0.390805 16.8603 -0.12996
135 2 2.2208 -0.394021 14.034 2.51367
52 2 2.2208 13.5709 2.63288 5.10816
8730 2 2.2208 13.6444 8.68637 11.0626
532 2 2.2208 8.16149 16.8035 13.6011
558 2 2.2208 5.46034 -0.144595 -0.46695
560 2 2.2208 2.282 2.64045 -0.415604
372 2 2.2208 2.54561 -0.242404 13.6283
326 2 2.2208 8.04982 11.1723 13.6304
331 2 2.2208 5.45536 0.0875928 16.5695
332 1 -1.1104 1.10256 -4.36336 17.9205
336 1 -1.1104 1.1736 -4.07973 14.8402
344 1 -1.1104 1.12721 -1.56686 17.8265
346 2 2.2208 5.66835 -2.87994 19.2705
348 1 -1.1104 1.13148 -1.56506 15.1716
352 1 -1.1104 3.95704 -4.50788 17.8153
354 2 2.2208 2.52238 -0.0951275 19.5242
355 1 -1.1104 4.11979 -4.24064 15.0382
359 2 2.2208 2.76492 -2.88441 16.6063
361 1 -1.1104 3.79307 -1.47339 18.0454
362 1 -1.1104 4.11585 -1.39251 15.2725
8179 2 2.2208 5.32451 -5.78263 22.2703
8919 2 2.2208 13.6577 8.29296 16.7014
598 2 2.2208 13.6456 2.649 27.7658
627 2 2.2208 -0.405056 8.24528 24.9885
9032 2 2.2208 -0.302486 16.7716 16.6658
368 2 2.2208 -0.0884381 -3.01805 19.2332
340 1 -1.1104 6.90843 -4.25931 15.0906
8143 2 2.2208 11.1277 -5.82327 27.7569
350 1 -1.1104 6.99721 -1.53702 14.8795
345 1 -1.1104 6.55449 -1.53428 17.9302
334 1 -1.1104 6.65408 -4.37485 17.8578
374 2 2.2208 11.1525 -0.200759 16.6
375 1 -1.1104 12.2813 -4.2132 17.8211
377 1 -1.1104 12.2607 -4.46929 15.066
381 1 -1.1104 12.5229 -1.5525 18.1683
382 2 2.2208 11.0182 -3.03148 19.3555
384 1 -1.1104 12.6053 -1.48425 15.3308
386 1 -1.1104 9.37472 -4.0385 18.1492
388 2 2.2208 8.26816 -0.145024 19.3642
389 1 -1.1104 9.59401 -4.4574 14.7579
393 2 2.2208 8.3167 -2.84638 16.4364
395 1 -1.1104 9.59378 -1.56439 17.6771
396 1 -1.1104 9.81442 -1.72253 14.9579
390 1 -1.1104 9.52312 -4.30764 20.8227
378 1 -1.1104 12.3491 -4.46889 20.6745
385 1 -1.1104 12.3955 -1.80246 20.819
341 1 -1.1104 6.55949 -4.27019 20.7074
629 2 2.2208 -0.488744 5.45654 27.8007
683 2 2.2208 -0.485288 16.6754 22.0862
333 1 -1.1104 0.935061 1.4641 17.7021
338 1 -1.1104 1.15485 1.28545 14.9429
347 2 2.2208 5.43969 2.81519 19.3191
353 1 -1.1104 3.95981 1.29233 17.7336
357 1 -1.1104 4.01777 1.31892 15.0141
360 2 2.2208 2.52536 2.61104 16.3685
407 2 2.2208 5.54661 5.54798 16.6517
411 1 -1.1104 1.05534 7.17358 15.2789
415 1 -1.1104 1.30807 4.42343 17.9803
420 1 -1.1104 1.21502 4.1089 14.9753
428 1 -1.1104 3.98097 6.9329 17.8625
429 2 2.2208 2.44342 5.71121 19.3563
434 1 -1.1104 4.28694 4.09785 17.751
436 1 -1.1104 3.95566 3.93287 15.0193
431 1 -1.1104 3.95922 6.60862 15.1644
409 1 -1.1104 1.38381 7.25915 18.2403
412 1 -1.1104 0.900558 6.82981 20.7707
432 1 -1.1104 3.69754 7.04644 20.8819
339 1 -1.1104 1.20743 1.38472 20.9541
437 1 -1.1104 3.78911 4.29773 20.582
417 1 -1.1104 6.91105 4.04209 18.217
358 1 -1.1104 4.03377 1.31977 20.5465
589 2 2.2208 8.28226 -3.11976 27.8105
364 2 2.2208 -0.443039 5.47733 21.9829
8213 2 2.2208 10.8775 -5.6728 16.5421
342 1 -1.1104 7.11807 1.19557 15.2196
413 1 -1.1104 6.78434 6.88709 15.2486
335 1 -1.1104 6.97612 1.17222 18.0439
424 1 -1.1104 6.6623 3.89945 15.328
410 1 -1.1104 6.80599 6.94772 18.101
376 1 -1.1104 12.5507 1.28325 17.774
379 1 -1.1104 12.7235 1.47574 14.6235
383 2 2.2208 11.0075 2.66722 19.4698
387 1 -1.1104 9.85303 1.18321 18.1421
391 1 -1.1104 9.91965 1.3033 15.0943
394 2 2.2208 8.2073 2.54351 16.5959
443 2 2.2208 11.1168 5.52644 16.4519
445 1 -1.1104 12.3145 7.06264 17.9716
446 1 -1.1104 12.3653 6.86425 15.1071
448 1 -1.1104 12.5224 4.20513 18.1223
451 1 -1.1104 12.415 4.13416 14.9259
455 1 -1.1104 9.67414 7.13529 18.1085
456 2 2.2208 8.19738 5.57929 19.3368
458 1 -1.1104 9.52595 7.13105 15.2291
461 1 -1.1104 9.65615 4.01396 17.8365
463 1 -1.1104 9.56636 4.12467 15.0257
380 1 -1.1104 12.4864 1.29962 20.6348
392 1 -1.1104 9.54409 1.19666 20.731
452 1 -1.1104 12.2403 4.08231 20.8912
371 2 2.2208 5.57428 -2.90273 13.6714
447 1 -1.1104 12.3201 6.84734 20.7191
464 1 -1.1104 9.4229 4.3476 20.8743
425 1 -1.1104 6.60674 4.18351 20.8096
459 1 -1.1104 9.55613 7.03077 21.0652
408 2 2.2208 5.15272 11.1599 16.8084
416 1 -1.1104 1.0266 9.85319 17.9706
419 2 2.2208 5.13633 8.54546 19.6199
422 1 -1.1104 1.13031 9.78007 15.3179
430 2 2.2208 2.35255 11.2471 19.41
433 2 2.2208 2.53541 8.35507 16.6954
435 1 -1.1104 3.76639 9.79066 18.1684
438 1 -1.1104 3.77628 9.72465 15.3369
471 1 -1.1104 0.914382 12.4398 18.2405
475 1 -1.1104 1.01936 12.5946 15.1385
491 1 -1.1104 3.6416 12.4614 17.9226
494 1 -1.1104 3.67047 12.6332 15.3564
473 1 -1.1104 6.69473 12.733 18.1038
439 1 -1.1104 3.75749 9.70414 21.0642
485 2 2.2208 5.3906 14.1197 19.6557
476 1 -1.1104 1.15617 12.3812 21.1188
423 1 -1.1104 0.926377 9.73418 20.887
495 1 -1.1104 3.83291 12.6131 21.0955
8211 2 2.2208 8.2138 -5.78918 13.7194
8142 2 2.2208 11.0107 -5.73445 22.0551
680 2 2.2208 -0.35303 13.9701 25.286
418 1 -1.1104 6.71389 9.85348 18.0896
479 1 -1.1104 6.55846 12.3631 15.2438
426 1 -1.1104 6.56853 9.83926 15.5377
444 2 2.2208 10.9029 11.1217 16.5064
449 1 -1.1104 12.4601 9.84307 17.8507
450 2 2.2208 11.0445 8.46656 19.2892
453 1 -1.1104 12.3072 9.76158 15.0541
457 2 2.2208 8.19086 11.3031 19.4199
460 2 2.2208 8.12866 8.41859 16.6756
462 1 -1.1104 9.53893 10.0428 18.0234
465 1 -1.1104 9.58078 9.92796 15.2688
507 1 -1.1104 12.5393 12.5111 18.1423
509 1 -1.1104 12.3978 12.5713 15.0837
518 1 -1.1104 9.62191 12.7475 18.057
521 1 -1.1104 9.58951 12.4172 15.048
427 1 -1.1104 6.51826 9.70473 20.8912
466 1 -1.1104 9.58522 9.91816 20.666
514 2 2.2208 10.9141 14.1313 19.5779
480 1 -1.1104 6.79756 12.3688 20.7569
522 1 -1.1104 9.63527 12.6036 21.0905
454 1 -1.1104 12.4949 9.68118 20.6738
329 2 2.2208 10.8987 19.5005 13.7977
8212 2 2.2208 8.03858 -5.69702 19.2953
498 2 2.2208 2.27958 13.9219 16.6301
470 2 2.2208 5.08858 16.732 16.7838
472 1 -1.1104 0.875042 17.9454 18.3454
477 1 -1.1104 0.768491 18.4318 15.4261
483 1 -1.1104 0.811757 15.2355 17.8479
486 2 2.2208 5.17672 19.7291 19.4223
487 1 -1.1104 1.01996 15.4091 15.0714
492 1 -1.1104 3.89623 17.8883 18.4818
493 2 2.2208 2.66468 16.5381 19.7048
496 1 -1.1104 3.65665 17.9948 15.3946
499 2 2.2208 2.23521 19.6667 16.376
500 1 -1.1104 3.71755 15.0336 18.1341
501 1 -1.1104 4.10681 15.2005 15.2035
474 1 -1.1104 6.71495 18.2612 18.0861
481 1 -1.1104 6.31513 18.0599 15.3894
588 2 2.2208 10.9694 -0.238911 27.6201
328 2 2.2208 5.37006 13.9606 13.6807
497 1 -1.1104 4.0297 18.2612 21.0358
488 1 -1.1104 0.939668 15.2079 20.7742
502 1 -1.1104 3.81865 15.4159 21.2901
482 1 -1.1104 6.78159 18.1849 20.6405
623 2 2.2208 5.12042 5.6888 27.7671
484 1 -1.1104 6.60185 15.4576 18.2229
489 1 -1.1104 7.11041 14.9267 14.6382
506 2 2.2208 11.0753 16.5827 16.7173
508 1 -1.1104 12.2609 18.2257 18.0099
511 1 -1.1104 12.2295 18.2038 15.3617
513 1 -1.1104 12.4868 15.3649 18.1732
515 2 2.2208 11.0189 19.5997 19.4756
516 1 -1.1104 12.4543 15.2723 15.4152
519 1 -1.1104 9.59334 18.4233 18.2458
520 2 2.2208 8.14811 16.8577 19.334
523 1 -1.1104 9.316 18.0384 15.2357
525 2 2.2208 8.06372 13.8084 16.5172
526 2 2.2208 8.15891 19.6115 16.5429
527 1 -1.1104 9.63989 15.3592 17.8617
528 1 -1.1104 9.74571 15.1371 15.2761
8180 2 2.2208 5.13981 -5.62532 27.666
512 1 -1.1104 12.3208 18.1277 20.7735
8145 2 2.2208 2.46039 -5.42682 24.9427
628 2 2.2208 -0.333248 11.0282 22.2083
337 1 -1.1104 1.12443 -4.57755 20.7845
363 1 -1.1104 4.28126 -1.31045 20.8582
356 1 -1.1104 4.03684 -4.32584 20.463
370 2 2.2208 -0.401792 8.38027 19.3563
349 1 -1.1104 1.62301 -1.64019 20.7042
567 2 2.2208 -0.249362 -2.84904 24.9763
534 2 2.2208 5.50718 -0.0010907 22.1089
535 1 -1.1104 1.03171 -4.30094 23.554
539 1 -1.1104 0.919799 -4.05833 26.3635
543 1 -1.1104 1.05479 -1.60052 23.6218
545 2 2.2208 5.31459 -2.76576 25.0066
547 1 -1.1104 1.0005 -1.3009 26.1761
549 1 -1.1104 3.96475 -4.21156 23.8816
551 2 2.2208 2.48222 -0.246522 24.9287
552 1 -1.1104 3.59656 -4.1203 26.3359
554 2 2.2208 2.68819 -3.02465 22.2177
556 1 -1.1104 3.68504 -1.59753 23.4643
557 1 -1.1104 4.04708 -1.29036 26.4632
8182 2 2.2208 -0.352504 -5.54537 27.622
399 2 2.2208 -0.159628 2.66194 19.2935
397 1 -1.1104 9.41912 -1.57648 20.5107
351 1 -1.1104 6.75356 -1.59957 20.8612
566 2 2.2208 -0.203848 -0.125608 27.6887
548 1 -1.1104 6.91294 -1.4213 26.2481
544 1 -1.1104 6.87708 -1.54983 23.7493
541 1 -1.1104 6.79273 -4.29072 26.3889
537 1 -1.1104 6.52029 -4.2538 23.5452
570 2 2.2208 10.9896 -0.207726 22.0041
571 1 -1.1104 12.433 -4.48972 23.6278
573 1 -1.1104 12.5361 -4.47852 26.2983
575 1 -1.1104 12.4677 -1.51186 23.5547
576 2 2.2208 11.3273 -2.9062 25.0824
578 1 -1.1104 12.5363 -1.68951 26.5135
579 1 -1.1104 9.74799 -4.30516 23.4644
581 2 2.2208 8.3454 -0.161751 24.8454
582 1 -1.1104 9.70211 -4.46342 26.5741
584 2 2.2208 8.3506 -2.92216 22.2699
586 1 -1.1104 9.65546 -1.45339 23.2853
587 1 -1.1104 9.66016 -1.60164 26.3325
322 2 2.2208 2.63735 5.43984 13.6992
421 1 -1.1104 1.10894 4.17275 20.6736
686 2 2.2208 8.08846 19.6419 22.3942
530 1 -1.1104 9.28286 18.0259 23.9114
536 1 -1.1104 1.14464 1.28106 23.6332
540 1 -1.1104 1.03518 1.50956 26.5129
546 2 2.2208 5.40867 2.79264 24.9044
550 1 -1.1104 4.17 1.38156 23.3855
553 1 -1.1104 3.83554 1.52644 26.2001
555 2 2.2208 2.51083 2.85495 22.0867
599 2 2.2208 5.30332 5.60605 22.1435
603 1 -1.1104 1.03673 6.93974 26.4823
605 1 -1.1104 1.25274 4.14691 23.3731
610 1 -1.1104 1.245 4.11982 26.4447
614 1 -1.1104 3.86817 7.0783 23.6598
615 2 2.2208 2.7024 5.5224 25.0055
617 1 -1.1104 3.79478 7.12666 26.5707
619 1 -1.1104 3.88591 4.09598 23.6508
621 1 -1.1104 3.98746 4.30789 26.3218
601 1 -1.1104 1.0846 6.94561 23.6492
612 1 -1.1104 6.90737 4.08109 26.4566
468 2 2.2208 11.0955 13.8774 25.4342
414 1 -1.1104 6.53065 7.03988 20.8893
343 1 -1.1104 6.64001 1.39041 20.6029
8992 2 2.2208 13.441 19.6412 16.5764
467 2 2.2208 8.15176 5.28562 13.6453
542 1 -1.1104 6.55162 1.46085 26.4598
607 1 -1.1104 6.61287 4.1915 23.58
604 1 -1.1104 6.6982 6.75758 26.3111
538 1 -1.1104 7.0161 1.34143 23.4428
602 1 -1.1104 6.53701 7.0027 23.7443
572 1 -1.1104 12.1835 1.35974 23.5369
574 1 -1.1104 12.6 1.16049 26.2712
577 2 2.2208 10.81 2.83844 25.1057
580 1 -1.1104 9.63968 1.3507 23.4495
583 1 -1.1104 9.57249 1.30889 26.5235
585 2 2.2208 8.01878 2.73047 22.1098
631 1 -1.1104 9.56769 4.19435 26.4846
633 1 -1.1104 9.40749 4.21342 23.767
635 1 -1.1104 9.66327 6.89814 26.5024
637 2 2.2208 8.14933 5.66356 25.0475
638 2 2.2208 11.0547 5.51131 22.1725
641 1 -1.1104 12.5591 6.87465 26.4886
642 1 -1.1104 12.3432 4.03018 23.6006
645 1 -1.1104 12.2808 4.1248 26.7578
647 1 -1.1104 9.15435 7.2788 23.7776
640 1 -1.1104 12.3903 6.88438 23.5507
517 1 -1.1104 12.1074 15.3387 21.1919
600 2 2.2208 5.30388 11.237 22.2851
606 1 -1.1104 0.918188 9.81115 23.7241
609 2 2.2208 5.05337 8.4382 25.0482
611 1 -1.1104 1.0257 9.54406 26.5676
616 2 2.2208 2.34662 11.2818 25.2413
618 2 2.2208 2.41452 8.53449 22.4476
620 1 -1.1104 3.64247 9.99477 23.5369
622 1 -1.1104 3.59973 9.82461 26.4781
656 1 -1.1104 4.13701 12.7401 23.7461
660 1 -1.1104 0.960484 12.5641 26.7488
666 1 -1.1104 1.02314 12.4872 23.8018
671 1 -1.1104 3.81849 12.7889 26.5227
655 1 -1.1104 6.73357 12.3885 26.6895
608 1 -1.1104 6.55862 9.71035 23.6881
8926 2 2.2208 -0.323831 11.2971 16.6049
8817 2 2.2208 -0.227804 13.8819 13.7313
469 2 2.2208 10.728 19.3099 25.361
510 1 -1.1104 12.4673 12.5627 21.1037
613 1 -1.1104 6.43404 9.63325 26.5306
664 1 -1.1104 6.88363 12.5738 23.5839
689 1 -1.1104 9.62948 12.3663 26.6063
505 1 -1.1104 9.73038 12.4852 23.8359
593 1 -1.1104 12.419 12.5117 23.9269
630 1 -1.1104 9.32658 9.60726 26.4979
632 1 -1.1104 9.2397 9.99276 23.5556
634 2 2.2208 7.946 8.45823 22.0682
636 2 2.2208 8.1966 11.3185 25.1203
639 2 2.2208 10.843 11.1755 22.2627
643 1 -1.1104 12.323 9.72517 23.7828
644 2 2.2208 10.6188 8.46647 24.8962
646 1 -1.1104 12.3359 9.74137 26.4949
440 1 -1.1104 12.3896 12.5095 26.5944
687 2 2.2208 8.31039 14.0663 22.4962
442 1 -1.1104 12.402 15.4338 23.9783
661 1 -1.1104 6.71578 17.989 23.8606
367 2 2.2208 -0.343584 -0.0720261 16.4553
690 1 -1.1104 6.51406 18.1264 26.6811
672 1 -1.1104 6.70356 15.2174 23.8313
478 1 -1.1104 0.743906 18.168 20.9856
663 2 2.2208 5.14649 14.0777 25.3117
676 2 2.2208 2.45309 13.8827 22.4647
654 1 -1.1104 3.69783 18.2239 23.7181
658 1 -1.1104 0.943564 18.4148 26.3701
659 1 -1.1104 0.849275 15.523 26.7986
662 2 2.2208 5.33097 19.3855 25.0737
665 1 -1.1104 1.07412 18.0718 23.7251
667 2 2.2208 5.43622 16.6166 22.4358
668 1 -1.1104 3.54464 18.0299 26.623
669 2 2.2208 2.34626 16.8526 25.1737
670 1 -1.1104 3.70669 15.3185 26.8025
673 1 -1.1104 1.04675 15.3778 23.9316
674 1 -1.1104 3.70307 15.3788 24.1066
675 2 2.2208 2.36099 19.4656 22.4508
657 1 -1.1104 6.71371 15.141 26.4828
684 1 -1.1104 9.57177 15.169 26.6749
688 1 -1.1104 9.45684 17.8124 26.7298
524 1 -1.1104 9.52274 18.1029 21.0417
490 1 -1.1104 6.67659 15.2079 21.1505
685 1 -1.1104 9.68498 15.2651 23.7525
529 1 -1.1104 9.43692 15.4434 20.6557
594 1 -1.1104 12.301 18.158 23.5732
531 2 2.2208 8.10741 16.5212 25.2033
592 2 2.2208 10.9378 16.9057 22.2767
441 1 -1.1104 12.0802 17.8554 26.4593
504 1 -1.1104 12.3446 15.2632 26.9771
366 2 2.2208 -0.167538 5.32225 16.4598
8250 2 2.2208 2.64313 -5.54979 19.2529
8251 2 2.2208 5.53029 -5.79584 16.4908
503 2 2.2208 2.43781 16.8592 13.8103
559 2 2.2208 2.57237 -2.83607 27.761
649 2 2.2208 8.03577 8.22556 27.8611
569 2 2.2208 -0.402346 2.67958 24.851
568 2 2.2208 -0.207183 -0.249053 22.1307
8920 2 2.2208 13.7832 5.54548 19.3747
9030 2 2.2208 -0.332234 19.4752 19.5773
323 2 2.2208 5.26206 8.26005 14.0655
9111 2 2.2208 13.6646 8.45785 22.1048
8813 2 2.2208 -0.118116 8.33735 13.8828
8141 2 2.2208 8.12047 -5.65073 25.0043
369 2 2.2208 -0.220961 -2.93653 13.7939
677 2 2.2208 2.33964 19.548 27.821
327 2 2.2208 5.46272 19.8377 13.834
8249 2 2.2208 2.55813 -5.78384 13.8215
398 2 2.2208 -0.247215 2.71169 13.6938
324 2 2.2208 2.30948 11.1833 13.7767
373 2 2.2208 5.42525 2.51831 13.744
625 2 2.2208 5.2758 10.9474 27.7271
691 2 2.2208 5.16412 22.4758 5.48135
693 1 -1.1104 0.859537 23.6888 0.895355
694 1 -1.1104 0.964242 23.8388 3.75851
695 1 -1.1104 0.627944 20.879 0.860959
697 2 2.2208 5.07896 25.1429 2.41738
698 1 -1.1104 0.838444 20.9833 3.90479
700 1 -1.1104 3.62422 23.6864 0.877486
701 2 2.2208 2.36683 22.347 2.28598
703 1 -1.1104 3.79468 23.8428 3.63119
704 2 2.2208 2.39581 25.3641 5.06605
705 1 -1.1104 3.49372 21.0696 0.782935
707 1 -1.1104 3.77387 20.9511 3.77736
699 1 -1.1104 1.07576 26.7126 3.66879
696 1 -1.1104 0.831742 26.4496 1.20827
834 1 -1.1104 0.872383 20.8402 6.53218
716 1 -1.1104 6.83771 21.0827 4.23359
9345 2 2.2208 -0.333871 27.9791 10.8424
713 1 -1.1104 6.76078 23.8912 3.77832
708 1 -1.1104 3.90676 26.6153 3.68191
706 1 -1.1104 3.6267 26.5642 0.788935
715 1 -1.1104 6.66269 26.5681 1.02262
835 1 -1.1104 0.925811 26.723 6.50106
995 1 -1.1104 12.3083 43.3502 12.3561
712 1 -1.1104 6.35928 23.8399 0.856887
714 1 -1.1104 6.47031 21.021 1.25188
718 2 2.2208 10.9716 22.3151 5.3399
720 1 -1.1104 12.4488 23.5592 1.06985
721 1 -1.1104 12.4165 23.9563 3.76671
722 1 -1.1104 12.0403 20.7694 1.13042
724 2 2.2208 10.8917 25.0029 2.36573
725 1 -1.1104 12.4877 21.0822 4.08091
727 1 -1.1104 9.1635 23.5584 0.851731
728 2 2.2208 7.77074 22.4086 2.42093
730 1 -1.1104 9.52597 23.6104 3.91596
731 2 2.2208 8.10014 25.1612 5.01559
732 1 -1.1104 9.1247 20.8289 1.41743
734 1 -1.1104 9.75618 20.8564 4.3433
733 1 -1.1104 9.31075 26.3447 1.08744
992 1 -1.1104 12.2955 43.5052 9.39684
737 2 2.2208 13.4322 27.8848 2.4009
726 1 -1.1104 11.9341 26.7064 3.63832
809 2 2.2208 -0.471239 41.8603 2.31175
869 1 -1.1104 9.68479 20.8053 7.03249
870 1 -1.1104 9.47225 26.575 6.6978
840 1 -1.1104 3.69561 26.5656 6.72853
692 2 2.2208 5.05894 28.0764 5.1977
702 2 2.2208 2.17904 27.9983 2.30373
740 1 -1.1104 0.730676 29.2967 1.03817
743 1 -1.1104 0.800967 29.4271 3.97175
746 1 -1.1104 0.98586 32.1289 0.840723
747 2 2.2208 5.45276 30.8518 2.21767
749 1 -1.1104 0.948683 32.1831 3.6613
751 1 -1.1104 3.37744 29.2395 0.671082
754 1 -1.1104 3.75447 29.3439 3.74929
756 2 2.2208 2.39149 30.7244 5.01266
758 1 -1.1104 3.67355 32.1164 1.02667
759 1 -1.1104 3.76093 32.2322 3.52434
750 1 -1.1104 6.53303 32.2416 3.69763
717 1 -1.1104 6.60382 26.5241 3.97698
765 1 -1.1104 6.55948 32.525 0.954918
763 1 -1.1104 6.48139 29.3493 0.97776
985 1 -1.1104 9.4025 43.4284 12.1673
889 1 -1.1104 0.748869 29.3456 6.65604
897 1 -1.1104 3.72511 32.3414 6.52904
895 1 -1.1104 3.71365 29.4769 6.58798
891 1 -1.1104 6.4833 29.4632 6.51169
9346 2 2.2208 -0.454955 25.1248 8.25328
723 1 -1.1104 12.1334 26.4913 0.877296
764 1 -1.1104 6.82084 29.5316 3.6579
735 1 -1.1104 9.35432 26.4146 3.6651
719 2 2.2208 10.8986 28.0869 5.18888
729 2 2.2208 8.05714 27.9579 2.46351
767 1 -1.1104 11.8718 29.4114 1.12042
769 1 -1.1104 12.3003 29.5807 3.73975
771 1 -1.1104 12.4012 32.0122 1.1158
772 2 2.2208 10.8517 30.9373 2.28488
774 1 -1.1104 12.2537 32.1938 3.72474
775 1 -1.1104 9.21575 29.4807 1.10669
778 1 -1.1104 9.4286 29.4868 3.93647
780 2 2.2208 7.97797 30.8682 5.0307
782 1 -1.1104 9.53194 32.1984 1.00351
783 1 -1.1104 9.32247 32.164 3.61577
923 1 -1.1104 12.3071 29.3409 6.62719
9483 2 2.2208 -0.336619 25.1931 13.6477
1003 2 2.2208 2.40108 28.0951 13.6573
987 2 2.2208 7.98259 42.0936 10.7573
1409 1 -1.1104 12.3412 46.2771 0.684148
739 2 2.2208 5.1274 33.6496 5.16589
741 1 -1.1104 0.843943 34.8207 1.01299