ITEM: TIMESTEP
90000
ITEM: NUMBER OF ATOMS
17640
ITEM: BOX BOUNDS pp pp pp
-4.9048246144905516e-01 2.7830482461449279e+01
-5.7591075922938320e+00 3.3383910759230110e+02
-4.8203638912517521e-01 2.7822036389125557e+01
ITEM: ATOMS id type q x y z
1 2 2.2208 5.25473 -0.150737 5.1402
2 1 -1.1104 1.43569 -4.1595 0.987468
6 1 -1.1104 1.27768 -4.02694 3.65253
10 1 -1.1104 1.18606 -1.46922 0.876798
12 2 2.2208 5.49394 -2.79906 2.03361
14 1 -1.1104 1.19838 -1.41065 3.70501
16 1 -1.1104 4.09867 -4.54097 0.834802
18 2 2.2208 2.72508 -0.123019 2.19118
19 1 -1.1104 4.29785 -4.2121 3.61783
21 2 2.2208 2.64818 -2.93207 5.14557
23 1 -1.1104 4.0336 -1.37261 0.945105
24 1 -1.1104 3.81002 -1.33093 3.87142
166 1 -1.1104 1.48845 -4.45976 6.43002
174 1 -1.1104 4.15828 -1.45906 6.64257
26 2 2.2208 0.062021 -0.0581689 5.12013
467 2 2.2208 8.40035 5.73289 13.6485
27 2 2.2208 -0.052602 2.72274 2.51625
25 2 2.2208 -0.0832075 -2.76996 2.27679
373 2 2.2208 5.64112 2.64361 13.5491
8 1 -1.1104 7.04095 -4.21555 3.49038
15 1 -1.1104 6.7879 -1.33203 3.67034
4 1 -1.1104 6.92373 -4.34842 0.985705
11 1 -1.1104 6.80905 -1.14095 1.08128
171 1 -1.1104 6.73108 -1.26917 6.75496
31 2 2.2208 11.245 -0.103625 5.04318
32 1 -1.1104 12.77 -4.29832 1.10554
34 1 -1.1104 12.6886 -4.26487 3.68076
36 1 -1.1104 12.6654 -1.48134 1.03074
37 2 2.2208 11.1298 -2.93936 2.17088
39 1 -1.1104 12.7617 -1.54476 3.67416
40 1 -1.1104 9.84818 -4.30173 0.786663
42 2 2.2208 8.27243 0.0356098 2.33369
43 1 -1.1104 9.70622 -4.31055 3.57681
45 2 2.2208 8.33197 -2.90779 5.04159
47 1 -1.1104 9.7087 -1.40242 0.838154
48 1 -1.1104 9.57232 -1.35268 3.64917
210 1 -1.1104 9.62549 -1.72172 6.52643
207 1 -1.1104 12.454 -1.57341 6.379
323 2 2.2208 5.59847 8.47126 13.5793
8092 2 2.2208 0.061973 -5.47307 10.6408
81 2 2.2208 -0.0281839 5.64148 5.27611
3 1 -1.1104 1.34073 1.30702 0.920657
7 1 -1.1104 1.24214 1.44768 3.66285
13 2 2.2208 5.47114 2.84047 2.28152
17 1 -1.1104 4.03337 1.40806 0.790124
20 1 -1.1104 4.17325 1.31537 3.74429
22 2 2.2208 2.72234 2.90006 5.30038
54 2 2.2208 5.81513 5.4951 5.17608
60 1 -1.1104 1.407 4.02386 0.8233
67 1 -1.1104 1.58234 4.24303 3.76261
72 2 2.2208 2.85326 5.6062 2.15729
76 1 -1.1104 4.02104 4.17275 0.909216
79 1 -1.1104 4.28413 4.26405 3.74702
58 1 -1.1104 1.39808 6.99353 3.7239
74 1 -1.1104 4.16223 7.15364 3.36928
56 1 -1.1104 1.09452 6.7958 1.15408
71 1 -1.1104 3.85922 7.10495 0.626742
173 1 -1.1104 4.16938 1.40912 6.5319
234 1 -1.1104 1.12306 7.12947 6.56155
235 1 -1.1104 6.85717 7.08944 6.59885
167 1 -1.1104 1.25832 1.42631 6.56107
239 1 -1.1104 4.16313 4.26076 6.50014
236 1 -1.1104 1.34809 4.31964 6.71268
406 2 2.2208 11.2991 2.79155 13.6717
371 2 2.2208 5.60741 -2.84126 13.6184
8084 2 2.2208 2.75873 -5.69039 2.19203
5 1 -1.1104 6.90145 1.44527 0.758289
63 1 -1.1104 6.9239 4.27338 0.700265
59 1 -1.1104 6.89489 6.91552 3.80814
237 1 -1.1104 7.25822 3.94995 6.46005
9 1 -1.1104 7.26739 1.38106 3.80821
69 1 -1.1104 6.99623 4.07187 3.60338
57 1 -1.1104 6.70499 6.8521 0.832641
33 1 -1.1104 12.9006 1.24807 0.813499
35 1 -1.1104 12.7418 1.12077 3.48855
38 2 2.2208 11.0696 2.58687 2.20412
41 1 -1.1104 9.9098 1.41975 0.662629
44 1 -1.1104 9.92448 1.33636 3.79821
46 2 2.2208 8.63846 2.52538 5.22146
84 2 2.2208 11.144 5.34143 5.13476
88 1 -1.1104 12.5722 4.25819 0.95295
92 1 -1.1104 12.5474 4.11366 3.83763
95 2 2.2208 8.33373 5.35148 2.22425
99 1 -1.1104 9.69519 3.96481 0.947011
102 1 -1.1104 9.58838 4.13573 3.93408
86 1 -1.1104 12.6349 7.02104 0.86403
97 1 -1.1104 9.81478 7.07666 3.52248
94 1 -1.1104 9.77239 6.57775 0.795332
87 1 -1.1104 12.5733 6.82138 3.61439
169 1 -1.1104 7.13993 1.42489 6.67476
269 1 -1.1104 10.0527 3.77596 6.78767
266 1 -1.1104 12.6931 3.94948 6.51714
267 1 -1.1104 9.77307 6.70161 6.39726
679 2 2.2208 2.79733 14.0322 -0.407132
8085 2 2.2208 5.57327 -5.66687 5.05225
55 2 2.2208 5.63996 11.2919 4.86898
61 1 -1.1104 1.13301 9.68004 0.652714
66 2 2.2208 5.67404 8.40815 2.15485
68 1 -1.1104 1.41239 9.88054 3.59385
73 2 2.2208 2.69888 11.2148 2.27009
75 2 2.2208 2.84074 8.44248 4.91488
77 1 -1.1104 3.98414 9.89007 0.58561
80 1 -1.1104 4.25405 9.87411 3.39811
107 1 -1.1104 1.3146 12.6248 0.757943
113 1 -1.1104 1.13966 12.4568 3.62707
123 1 -1.1104 4.27267 12.6274 0.998746
128 1 -1.1104 4.16658 12.8591 3.69384
110 1 -1.1104 7.04846 12.7046 0.813308
124 1 -1.1104 4.14722 12.5494 6.57851
108 1 -1.1104 1.23829 12.6899 6.51936
104 2 2.2208 11.0221 16.7794 10.7103
62 1 -1.1104 1.19752 9.79577 6.44813
83 2 2.2208 -0.049262 11.0965 5.15332
111 1 -1.1104 6.92794 12.623 6.84446
70 1 -1.1104 7.39024 9.78174 3.69894
64 1 -1.1104 7.0629 9.77661 0.787368
115 1 -1.1104 7.10927 12.5018 3.53919
85 2 2.2208 11.1426 11.214 5.00019
89 1 -1.1104 12.4999 9.5953 0.794426
91 2 2.2208 11.1688 8.29968 2.26086
93 1 -1.1104 12.7535 9.74994 3.77024
96 2 2.2208 8.30666 11.1498 2.13951
98 2 2.2208 8.4022 8.35603 5.11052
100 1 -1.1104 9.71014 9.4674 0.97479
103 1 -1.1104 10.108 9.69003 3.70335
142 1 -1.1104 12.7602 12.3944 0.755514
146 1 -1.1104 12.6353 12.4119 3.62428
153 1 -1.1104 9.74643 12.4078 0.684053
158 1 -1.1104 9.79895 12.4528 3.49112
143 1 -1.1104 12.3592 12.6968 6.1992
65 1 -1.1104 6.94252 9.61317 6.41504
101 1 -1.1104 9.59577 9.66625 6.69523
8093 2 2.2208 8.40822 -5.64624 8.04369
306 1 -1.1104 7.16797 15.3457 12.2413
137 2 2.2208 -0.233129 17.0797 5.25263
119 2 2.2208 5.45145 14.0877 2.24468
130 2 2.2208 2.56929 14.0183 5.12622
106 2 2.2208 5.31861 16.7798 5.36153
109 1 -1.1104 1.39424 18.5244 0.902123
114 1 -1.1104 1.25354 18.2873 3.83321
116 1 -1.1104 1.2846 15.5723 0.99524
120 2 2.2208 5.45264 19.5554 2.25507
121 1 -1.1104 1.16298 15.3048 3.93964
125 1 -1.1104 4.14639 18.2178 1.16612
127 2 2.2208 2.45262 16.8837 2.2985
129 1 -1.1104 4.2156 18.5145 4.15624
131 2 2.2208 2.80942 19.8828 5.23347
132 1 -1.1104 3.85921 15.1902 1.15159
134 1 -1.1104 3.88403 15.7384 3.96182
302 1 -1.1104 1.18204 18.5189 6.69225
117 1 -1.1104 1.16199 15.4928 6.39144
8817 2 2.2208 -0.0360483 14.1802 13.473
136 2 2.2208 -0.191764 19.944 2.33921
135 2 2.2208 -0.110012 14.0909 2.33818
126 1 -1.1104 3.94649 18.3943 7.01471
133 1 -1.1104 3.96272 15.4773 6.57939
112 1 -1.1104 6.8878 18.2007 6.55882
311 2 2.2208 -0.148036 19.8334 8.02105
138 1 -1.1104 6.98375 18.3608 1.12664
139 1 -1.1104 7.1063 18.2333 3.77236
122 1 -1.1104 6.78133 15.4518 3.70181
140 1 -1.1104 6.73373 15.5082 0.745192
160 2 2.2208 8.25464 14.2088 5.12076
150 2 2.2208 11.2703 13.7799 2.2
141 2 2.2208 11.4095 16.8814 5.20352
144 1 -1.1104 12.9038 18.3551 1.19637
147 1 -1.1104 13.0484 18.2196 3.80349
148 1 -1.1104 12.4933 15.206 0.840206
151 2 2.2208 11.3359 19.7425 2.33799
152 1 -1.1104 12.7085 15.3432 3.64588
155 1 -1.1104 9.92743 18.1106 0.811197
157 2 2.2208 8.39877 16.7536 2.47075
159 1 -1.1104 9.96248 18.3681 3.60533
161 2 2.2208 8.36075 19.5087 5.10039
162 1 -1.1104 9.86185 15.2235 0.906881
164 1 -1.1104 9.65239 15.3762 3.72429
118 1 -1.1104 6.86059 15.2491 6.60455
163 1 -1.1104 9.71191 15.3099 6.58618
201 2 2.2208 -0.214841 0.123526 10.7667
288 1 -1.1104 6.79024 18.3535 9.35843
172 1 -1.1104 4.06946 -4.28905 6.5549
170 1 -1.1104 1.45693 -1.46846 6.51509
175 2 2.2208 5.74755 -0.314354 10.6814
176 1 -1.1104 1.42915 -4.26788 12.297
180 1 -1.1104 1.52393 -4.25263 9.38912
184 1 -1.1104 1.72452 -1.19106 11.8459
186 2 2.2208 5.50685 -2.75576 7.97912
188 1 -1.1104 1.15884 -1.76166 9.33776
190 1 -1.1104 4.18251 -4.40641 12.1562
192 2 2.2208 2.63626 -0.01199 7.92462
193 1 -1.1104 4.31154 -4.22985 9.43866
195 2 2.2208 2.75428 -2.81672 10.8845
197 1 -1.1104 4.39441 -1.80017 12.1352
198 1 -1.1104 4.08524 -1.42573 9.40589
82 2 2.2208 -0.267725 8.21405 2.23677
30 2 2.2208 -0.123017 11.2754 10.691
200 2 2.2208 -0.121277 -2.81367 7.88763
314 1 -1.1104 9.63837 15.511 9.41626
681 2 2.2208 -0.23989 16.9075 -0.336672
208 1 -1.1104 9.92253 -4.35484 6.42943
178 1 -1.1104 7.11647 -4.23658 12.3746
205 1 -1.1104 12.7653 -4.42537 6.5797
168 1 -1.1104 6.81682 -4.38496 6.37459
189 1 -1.1104 6.90664 -1.83537 9.71843
182 1 -1.1104 7.10045 -4.40583 9.27221
185 1 -1.1104 7.08395 -1.57153 12.5832
211 2 2.2208 11.1306 0.00956597 10.9125
212 1 -1.1104 12.9958 -4.35909 12.2148
214 1 -1.1104 12.5556 -4.00121 9.45627
216 1 -1.1104 12.3194 -1.65184 12.2918
217 2 2.2208 11.1509 -2.92383 7.99802
219 1 -1.1104 12.4458 -1.32608 9.34963
220 1 -1.1104 10.2452 -4.32449 12.3208
222 2 2.2208 8.28324 -0.114589 7.8545
223 1 -1.1104 9.77475 -4.57331 9.43262
225 2 2.2208 8.53654 -3.10188 10.8955
227 1 -1.1104 9.86581 -1.46419 12.2893
228 1 -1.1104 9.82435 -1.67127 9.22262
322 2 2.2208 2.66943 5.48077 13.5316
238 1 -1.1104 4.06857 7.12032 6.33145
28 2 2.2208 -0.295427 5.38507 10.7994
328 2 2.2208 5.70258 14.0031 13.5961
591 2 2.2208 8.44807 19.534 -0.32978
177 1 -1.1104 1.31971 1.11571 12.1804
181 1 -1.1104 1.33305 1.07294 9.40634
187 2 2.2208 5.62472 2.83593 7.84754
191 1 -1.1104 4.04928 1.45971 12.3164
194 1 -1.1104 4.04635 1.47267 9.26379
196 2 2.2208 2.84748 2.55504 10.769
240 2 2.2208 5.69208 5.30507 10.814
246 1 -1.1104 1.29626 3.7091 12.1938
251 1 -1.1104 1.54539 4.07943 9.37812
256 2 2.2208 2.75334 5.64223 8.02015
260 1 -1.1104 4.46351 3.96135 12.1176
262 1 -1.1104 4.17487 4.19997 9.33191
255 1 -1.1104 3.77201 6.71022 12.0247
258 1 -1.1104 4.13788 7.01157 9.33525
242 1 -1.1104 0.980118 6.77807 12.4859
244 1 -1.1104 1.25608 7.18202 9.29226
199 2 2.2208 -0.146984 2.81675 8.05475
265 1 -1.1104 12.635 6.79369 6.75701
209 1 -1.1104 9.91609 1.11715 6.44224
324 2 2.2208 2.576 11.1859 13.567
179 1 -1.1104 6.98608 0.984441 12.2002
183 1 -1.1104 6.93784 1.16083 9.20176
253 1 -1.1104 6.96192 3.97567 9.37456
248 1 -1.1104 7.22664 4.18579 12.0895
245 1 -1.1104 6.99457 6.9046 9.29392
206 1 -1.1104 12.6454 1.15014 6.77543
243 1 -1.1104 6.85412 6.96505 12.0753
213 1 -1.1104 12.7064 1.20854 12.1196
215 1 -1.1104 12.6207 1.37175 9.63703
218 2 2.2208 11.2348 2.50549 8.08295
221 1 -1.1104 9.87944 1.44872 12.2091
224 1 -1.1104 9.47637 1.11379 9.36866
226 2 2.2208 8.33383 2.53262 10.7674
268 1 -1.1104 9.91787 3.94698 9.80132
271 1 -1.1104 10.0969 4.40375 12.5757
275 2 2.2208 8.60218 5.5232 8.03486
276 2 2.2208 11.4162 5.44648 10.9404
280 1 -1.1104 12.6829 4.15482 12.2876
283 1 -1.1104 12.7484 4.12439 9.54448
285 1 -1.1104 9.81785 6.78099 12.1536
279 1 -1.1104 12.6563 7.02369 9.41707
273 1 -1.1104 9.85925 6.85725 9.34965
398 2 2.2208 -0.0809682 2.74245 13.6207
78 1 -1.1104 4.12596 9.86445 6.24286
565 2 2.2208 11.145 16.7971 -0.441031
564 2 2.2208 8.32792 13.9895 -0.453554
241 2 2.2208 5.58024 11.0385 10.8281
247 1 -1.1104 1.61169 9.63729 12.0291
250 2 2.2208 5.66791 8.36344 7.9324
252 1 -1.1104 1.29248 10.244 9.16931
257 2 2.2208 2.65434 11.3216 7.83955
259 2 2.2208 2.72678 8.30266 10.6829
261 1 -1.1104 4.08311 9.7614 12.3484
263 1 -1.1104 4.36797 9.76664 9.42334
287 1 -1.1104 4.17899 12.4922 12.2628
294 1 -1.1104 1.33683 12.9297 9.18864
299 1 -1.1104 1.20606 12.7279 12.3795
305 1 -1.1104 4.09648 12.5915 9.62375
290 1 -1.1104 6.94689 12.467 9.51433
254 1 -1.1104 6.92987 9.59736 9.49995
317 2 2.2208 8.41209 14.1729 10.6272
203 1 -1.1104 12.8241 15.3333 12.4688
8813 2 2.2208 -0.275524 8.24965 13.6194
29 2 2.2208 -0.218024 8.4205 8.16289
90 1 -1.1104 12.4429 9.73888 6.34426
154 1 -1.1104 9.71419 12.6856 6.13791
278 1 -1.1104 12.5418 6.95737 12.5432
249 1 -1.1104 6.97084 9.7274 12.2264
297 1 -1.1104 7.00924 12.6411 12.2921
319 1 -1.1104 9.7311 12.7015 8.99563
233 1 -1.1104 9.93188 12.6089 12.1928
264 1 -1.1104 9.67468 9.92511 9.68181
270 1 -1.1104 9.52521 9.61935 12.2226
272 2 2.2208 8.37555 8.15291 10.8471
274 2 2.2208 8.19761 10.9992 7.99199
277 2 2.2208 11.0985 11.401 10.7516
281 1 -1.1104 12.361 9.91718 12.2765
282 2 2.2208 11.2432 8.40198 8.00013
284 1 -1.1104 12.6741 9.68812 9.18562
53 1 -1.1104 12.6079 12.8373 8.97063
105 1 -1.1104 12.5112 12.8799 11.9625
204 2 2.2208 11.0805 14.1101 7.73511
330 2 2.2208 11.1764 14.0463 13.6241
8515 2 2.2208 -0.278904 16.9338 10.8687
327 2 2.2208 5.54932 19.5634 13.6621
231 2 2.2208 11.1831 19.7472 7.97945
316 2 2.2208 8.27899 19.6095 10.7317
629 2 2.2208 -0.0754494 5.42367 -0.475803
296 1 -1.1104 6.87414 18.0383 12.2036
292 1 -1.1104 1.19876 15.4673 9.43595
300 2 2.2208 5.42341 16.7568 10.7668
298 1 -1.1104 1.33455 17.9295 12.4312
295 2 2.2208 5.57362 14.058 8.0031
293 2 2.2208 5.45032 19.6854 8.11511
301 1 -1.1104 3.71167 17.8746 9.63527
304 1 -1.1104 3.99042 15.2135 9.19975
303 2 2.2208 2.58718 16.7291 8.23148
309 2 2.2208 2.39622 19.5775 10.7682
308 1 -1.1104 4.07616 15.3426 12.3099
307 1 -1.1104 1.30964 15.3059 12.2391
310 2 2.2208 2.5852 13.9223 10.8539
286 1 -1.1104 4.19094 18.0695 12.3111
291 1 -1.1104 0.993702 18.3852 9.51022
313 2 2.2208 -0.2693 14.0799 7.81536
202 1 -1.1104 12.65 17.9282 9.43225
232 1 -1.1104 12.539 15.3876 9.50938
149 1 -1.1104 12.5371 15.4972 6.64079
156 1 -1.1104 9.79645 18.0938 6.113
315 1 -1.1104 9.90965 15.589 12.4361
312 1 -1.1104 12.6002 18.091 12.2853
289 1 -1.1104 6.90906 15.6452 9.22212
318 1 -1.1104 9.75331 18.4137 9.19629
145 1 -1.1104 12.4977 18.2412 6.68137
321 1 -1.1104 9.46449 18.4656 12.2501
320 2 2.2208 8.44787 16.8941 7.88186
558 2 2.2208 5.54977 0.116234 -0.502665
8086 2 2.2208 0.212913 -5.67216 5.13467
326 2 2.2208 8.50793 11.2819 13.644
325 2 2.2208 11.1795 8.42781 13.575
331 2 2.2208 5.60612 -0.197621 16.4625
332 1 -1.1104 1.43383 -4.41125 17.8541
336 1 -1.1104 1.28611 -4.46337 14.9051
344 1 -1.1104 1.23425 -1.5646 17.9777
346 2 2.2208 5.46891 -2.84754 19.4114
348 1 -1.1104 1.469 -1.64429 14.9288
352 1 -1.1104 4.13132 -4.42159 17.7632
354 2 2.2208 2.63619 0.0056885 19.3528
355 1 -1.1104 4.18413 -4.12105 14.8729
359 2 2.2208 2.58155 -2.97836 16.2525
361 1 -1.1104 4.03853 -1.39723 17.7198
362 1 -1.1104 4.30684 -1.47075 14.9844
363 1 -1.1104 4.00461 -1.54966 20.7737
356 1 -1.1104 4.11806 -4.34312 20.7378
337 1 -1.1104 1.29646 -4.25062 20.6571
650 2 2.2208 11.0562 11.2504 27.5887
368 2 2.2208 -0.208047 -3.02576 19.2401
367 2 2.2208 -0.171129 -0.262017 16.4829
677 2 2.2208 2.71507 19.9566 27.6355
369 2 2.2208 -0.0174337 -3.05315 13.6524
350 1 -1.1104 7.26835 -1.60565 15.2249
340 1 -1.1104 7.16276 -4.33312 15.1647
334 1 -1.1104 7.29985 -4.20087 18.1933
345 1 -1.1104 6.75988 -1.58697 18.1581
374 2 2.2208 11.2943 -0.150677 16.4979
375 1 -1.1104 12.9109 -4.05992 17.9425
377 1 -1.1104 12.8752 -4.45975 15.133
381 1 -1.1104 12.4911 -1.36305 17.95
382 2 2.2208 11.3178 -2.9228 19.3792
384 1 -1.1104 13.0955 -1.25369 15.2668
386 1 -1.1104 9.83241 -4.48656 17.8251
388 2 2.2208 8.21407 -0.249675 19.2243
389 1 -1.1104 10.1508 -4.39272 15.0785
393 2 2.2208 8.36915 -2.9636 16.7678
395 1 -1.1104 9.77851 -1.63417 17.8599
396 1 -1.1104 9.88678 -1.78853 15.083
385 1 -1.1104 12.5565 -1.66658 21.0704
390 1 -1.1104 9.7697 -4.30462 20.6298
351 1 -1.1104 6.74092 -1.37577 20.904
341 1 -1.1104 7.00921 -4.35999 20.9894
9030 2 2.2208 -0.410712 19.5239 19.0731
559 2 2.2208 2.5531 -2.97663 27.8439
366 2 2.2208 -0.109012 5.66045 16.5568
333 1 -1.1104 1.07254 1.25722 17.9893
338 1 -1.1104 1.4059 1.26396 14.9961
347 2 2.2208 5.4971 2.55941 19.2749
353 1 -1.1104 3.95168 1.38693 17.9524
357 1 -1.1104 4.09973 1.33804 14.9972
360 2 2.2208 2.66009 2.70414 16.2095
407 2 2.2208 5.49987 5.39603 16.486
415 1 -1.1104 1.12162 4.09847 17.8734
420 1 -1.1104 1.14989 4.04095 15.047
428 1 -1.1104 3.91857 6.71584 17.9187
429 2 2.2208 2.46238 5.4379 19.2676
434 1 -1.1104 3.7021 4.0091 18.1146
436 1 -1.1104 4.12822 4.36603 15.0632
409 1 -1.1104 1.32753 6.79201 17.77
411 1 -1.1104 1.45665 6.80204 15.1754
431 1 -1.1104 4.43025 7.16543 15.0448
421 1 -1.1104 1.02422 3.95379 20.744
432 1 -1.1104 4.07077 6.72947 20.6272
339 1 -1.1104 1.2746 1.39622 20.7736
399 2 2.2208 -0.270789 2.76247 19.3758
412 1 -1.1104 1.36106 6.82951 20.7337
358 1 -1.1104 4.07887 1.28691 20.7183
413 1 -1.1104 7.00759 7.04833 14.9242
424 1 -1.1104 6.98205 4.10851 14.9332
425 1 -1.1104 6.91219 3.94062 20.5081
410 1 -1.1104 6.99878 6.87636 17.8573
414 1 -1.1104 7.01889 6.80182 20.6934
342 1 -1.1104 6.85717 1.13948 15.1783
335 1 -1.1104 6.93373 1.19876 17.9733
417 1 -1.1104 6.92278 4.02422 17.7846
376 1 -1.1104 12.7945 1.23471 17.9383
379 1 -1.1104 12.5511 1.42718 14.8825
383 2 2.2208 11.2318 2.63584 19.2758
387 1 -1.1104 9.40401 1.07743 17.7601
391 1 -1.1104 9.85493 0.947978 14.8779
394 2 2.2208 8.42593 2.70442 16.4516
443 2 2.2208 11.0684 5.45365 16.3991
448 1 -1.1104 12.4522 3.92838 17.6293
451 1 -1.1104 12.562 4.10318 15.1331
455 1 -1.1104 9.58898 6.94922 17.6393
456 2 2.2208 8.35191 5.55051 18.9791
461 1 -1.1104 9.65362 3.90932 17.8841
463 1 -1.1104 9.65793 4.18897 15.244
445 1 -1.1104 12.3086 6.89738 17.9118
458 1 -1.1104 9.7703 7.01562 14.8525
464 1 -1.1104 9.91547 4.21256 20.5812
446 1 -1.1104 12.5671 6.97383 15.3539
380 1 -1.1104 12.7426 1.26425 20.565
459 1 -1.1104 9.65785 7.22145 20.5578
447 1 -1.1104 12.7847 7.0544 20.5806
370 2 2.2208 -0.0876988 8.20231 19.1351
408 2 2.2208 5.57945 11.0462 16.5124
416 1 -1.1104 1.18934 9.47659 17.6019
419 2 2.2208 5.56156 8.21618 19.3137
422 1 -1.1104 1.09463 9.6043 14.9004
430 2 2.2208 2.6881 11.3253 19.4323
433 2 2.2208 2.67591 8.37251 16.2365
435 1 -1.1104 4.14748 9.70484 17.7151
438 1 -1.1104 4.13012 9.94314 15.0374
471 1 -1.1104 1.19808 12.1291 18.0818
475 1 -1.1104 1.32187 12.9763 14.98
491 1 -1.1104 4.13955 12.5864 18.039
494 1 -1.1104 4.33798 12.5468 15.03
439 1 -1.1104 4.13161 9.7995 20.8124
495 1 -1.1104 3.96683 12.6339 20.8562
498 2 2.2208 3.07839 14.0904 16.348
8926 2 2.2208 -0.201869 11.1066 16.4525
476 1 -1.1104 1.23684 12.7425 20.665
479 1 -1.1104 7.08957 12.7666 15.0633
426 1 -1.1104 7.12477 9.85775 14.8763
473 1 -1.1104 6.95312 12.5141 17.8295
418 1 -1.1104 6.90821 9.6242 17.7571
444 2 2.2208 11.1292 11.1071 16.6265
449 1 -1.1104 12.4227 9.71235 17.82
450 2 2.2208 11.1274 8.35486 19.3797
453 1 -1.1104 12.5272 9.88791 15.2174
457 2 2.2208 8.31463 11.0174 19.3708
460 2 2.2208 8.35921 8.35946 16.3979
462 1 -1.1104 9.82857 9.91427 18.1817
465 1 -1.1104 9.75796 9.88111 15.1982
507 1 -1.1104 12.671 12.4687 17.8807
509 1 -1.1104 12.8058 12.6364 15.0896
518 1 -1.1104 9.9123 12.6183 17.8545
521 1 -1.1104 9.92358 12.7947 15.2026
480 1 -1.1104 6.75451 12.6533 20.8831
454 1 -1.1104 12.6467 9.99797 20.7341
522 1 -1.1104 9.57339 12.6702 20.8074
466 1 -1.1104 9.87908 9.91037 21.0581
514 2 2.2208 11.0325 14.1618 19.4955
427 1 -1.1104 6.85834 9.90123 20.8282
503 2 2.2208 2.87229 16.7842 13.6751
8142 2 2.2208 11.0814 -5.64557 22.0556
365 2 2.2208 0.0606074 14.1628 19.1946
9032 2 2.2208 0.00112076 16.6434 16.3414
485 2 2.2208 5.61057 13.796 19.257
470 2 2.2208 5.68103 16.819 16.5181
472 1 -1.1104 1.00556 17.9445 18.2039
477 1 -1.1104 1.26432 18.416 15.3837
483 1 -1.1104 1.43694 15.2402 17.7757
486 2 2.2208 5.48459 19.7111 19.4175
487 1 -1.1104 1.53301 15.5693 15.1419
492 1 -1.1104 4.00875 18.3505 18.0469
493 2 2.2208 2.95058 16.869 19.4529
496 1 -1.1104 4.11046 18.3708 15.1363
499 2 2.2208 2.73833 19.6386 16.5485
500 1 -1.1104 4.37718 15.3051 17.8578
501 1 -1.1104 4.38346 15.54 14.9156
488 1 -1.1104 1.53113 15.494 20.7102
478 1 -1.1104 1.29827 18.0735 21.0258
502 1 -1.1104 4.11829 15.228 20.6309
481 1 -1.1104 6.89351 18.2779 15.142
474 1 -1.1104 7.01445 18.1735 17.8195
489 1 -1.1104 7.0793 15.3605 14.9726
484 1 -1.1104 6.85859 15.4758 17.947
525 2 2.2208 8.27098 13.9079 16.4663
506 2 2.2208 11.1396 16.703 16.5593
508 1 -1.1104 12.482 18.4022 18.0563
511 1 -1.1104 12.5401 18.3128 15.273
513 1 -1.1104 12.5321 15.3366 17.8932
515 2 2.2208 11.2528 19.7255 19.3562
516 1 -1.1104 12.4365 15.4468 15.1369
519 1 -1.1104 9.94335 18.0982 17.9565
520 2 2.2208 8.28718 16.7191 19.522
523 1 -1.1104 9.91167 18.2108 15.0106
526 2 2.2208 8.48251 19.4892 16.6462
527 1 -1.1104 9.58985 15.257 18.2117
528 1 -1.1104 9.6688 15.5821 15.2558
524 1 -1.1104 9.98454 18.4779 20.9261
482 1 -1.1104 6.93389 18.4134 20.5574
529 1 -1.1104 9.69016 15.6369 20.7328
8211 2 2.2208 8.66293 -5.59784 13.8384
349 1 -1.1104 1.14893 -1.4983 20.9053
8250 2 2.2208 2.65268 -5.72317 19.3727
534 2 2.2208 5.31614 0.164217 22.1526
535 1 -1.1104 1.47352 -4.32741 23.506
539 1 -1.1104 1.072 -4.5162 26.3193
543 1 -1.1104 1.18802 -1.38714 23.5259
545 2 2.2208 5.61204 -2.76462 24.9142
547 1 -1.1104 1.21928 -1.65127 26.2194
549 1 -1.1104 4.14467 -4.10691 23.3954
551 2 2.2208 2.59221 0.0146062 24.9815
552 1 -1.1104 4.0661 -4.32722 26.1536
554 2 2.2208 2.65174 -2.95254 22.2196
556 1 -1.1104 3.88116 -1.08556 23.5308
557 1 -1.1104 4.02257 -1.43447 26.2909
568 2 2.2208 -0.221117 -0.227914 22.2226
8179 2 2.2208 5.57643 -5.71297 22.1675
404 2 2.2208 8.41711 -0.212489 13.7986
567 2 2.2208 -0.249643 -2.92176 24.7145
405 2 2.2208 11.328 -2.99817 13.8687
648 2 2.2208 11.1751 5.42976 27.7227
397 1 -1.1104 9.53765 -1.55686 20.6868
378 1 -1.1104 12.6391 -4.22805 20.6565
537 1 -1.1104 6.95227 -4.16255 23.7929
548 1 -1.1104 6.77939 -1.46144 26.6549
623 2 2.2208 5.3994 5.55785 27.6282
541 1 -1.1104 6.81739 -4.20132 26.5124
544 1 -1.1104 6.81108 -1.32129 23.5494
570 2 2.2208 11.137 0.134443 22.4365
571 1 -1.1104 12.8105 -4.51052 23.628
573 1 -1.1104 12.219 -4.47901 26.7124
575 1 -1.1104 12.565 -1.60299 23.6555
576 2 2.2208 11.0226 -2.95102 25.0859
578 1 -1.1104 12.3187 -1.4843 26.5171
579 1 -1.1104 10.0949 -4.1915 23.478
581 2 2.2208 8.24611 0.0334824 24.8842
582 1 -1.1104 9.45538 -4.10723 26.3827
584 2 2.2208 8.32854 -2.76211 22.0918
586 1 -1.1104 9.90814 -1.30172 23.7328
587 1 -1.1104 9.61793 -1.23048 26.3875
588 2 2.2208 11.3961 -0.0184268 27.7917
437 1 -1.1104 4.06814 4.02357 20.7683
364 2 2.2208 -0.225476 5.52197 22.0659
8182 2 2.2208 -0.160535 -5.66885 27.8273
569 2 2.2208 -0.23482 2.7952 25.0823
536 1 -1.1104 1.36424 1.41015 23.5519
540 1 -1.1104 1.11719 1.12754 26.4168
546 2 2.2208 5.59118 2.75724 24.7365
550 1 -1.1104 4.20066 1.51577 23.5323
553 1 -1.1104 4.06995 1.44696 26.3532
555 2 2.2208 2.65623 2.75789 22.0084
599 2 2.2208 5.62315 5.55367 21.9515
605 1 -1.1104 1.56686 4.11798 23.3538
610 1 -1.1104 1.36997 4.24566 26.1735
615 2 2.2208 2.8241 5.61616 24.7955
619 1 -1.1104 4.38763 4.37615 23.4909
621 1 -1.1104 4.0145 4.10852 26.288
617 1 -1.1104 3.96098 6.84074 26.0737
601 1 -1.1104 1.14657 6.92481 23.5246
614 1 -1.1104 4.35329 7.09577 23.514
603 1 -1.1104 1.31114 6.98007 26.342
392 1 -1.1104 9.90439 1.3649 20.6683
343 1 -1.1104 7.13329 1.45327 20.6529
452 1 -1.1104 12.7442 4.05484 20.3524
607 1 -1.1104 7.06117 4.16805 23.4823
542 1 -1.1104 6.77686 1.35176 26.3198
602 1 -1.1104 6.83651 7.01451 23.7976
604 1 -1.1104 6.84278 6.91751 26.4704
538 1 -1.1104 7.05106 1.42742 23.421
612 1 -1.1104 6.88773 4.22677 26.3346
572 1 -1.1104 12.7565 1.61282 23.3387
574 1 -1.1104 12.5629 1.02035 26.2317
577 2 2.2208 11.1457 2.8616 24.8962
580 1 -1.1104 9.7847 1.61295 23.3968
583 1 -1.1104 9.55908 1.5815 26.3363
585 2 2.2208 8.50223 2.88324 21.8614
631 1 -1.1104 9.79766 4.31606 26.3592
633 1 -1.1104 9.9347 4.12264 23.3506
637 2 2.2208 8.07077 5.54359 24.9991
638 2 2.2208 11.2157 5.64397 21.7758
642 1 -1.1104 12.8591 4.19132 23.2898
645 1 -1.1104 12.7055 4.10766 26.3609
640 1 -1.1104 12.5413 6.94379 23.4938
635 1 -1.1104 9.74758 6.91696 26.2952
641 1 -1.1104 12.5641 6.99885 26.2174
647 1 -1.1104 9.62149 6.88257 23.4123
329 2 2.2208 11.0189 19.8514 13.6659
628 2 2.2208 -0.337368 11.3074 21.9999
423 1 -1.1104 1.45337 9.4443 20.8305
589 2 2.2208 8.41299 -2.77007 27.798
8818 2 2.2208 -0.0798816 19.475 13.9902
469 2 2.2208 11.272 19.6782 25.1243
627 2 2.2208 0.0566768 8.40937 24.9149
600 2 2.2208 5.27701 11.2971 22.2136
606 1 -1.1104 1.49099 9.80549 23.6557
609 2 2.2208 5.55458 8.46598 25.0202
611 1 -1.1104 1.21623 9.79362 26.3638
616 2 2.2208 2.69919 11.2335 25.0023
618 2 2.2208 2.74943 8.40292 22.2848
620 1 -1.1104 4.06599 9.74433 23.777
622 1 -1.1104 4.27197 9.77198 26.3113
656 1 -1.1104 4.21793 12.6432 23.8135
660 1 -1.1104 1.45675 12.3339 26.6117
666 1 -1.1104 1.39476 12.4433 23.5142
671 1 -1.1104 4.20756 12.8416 26.4826
510 1 -1.1104 12.4803 12.9001 20.8683
664 1 -1.1104 7.17319 12.7126 23.5795
613 1 -1.1104 7.10534 9.57882 26.5202
608 1 -1.1104 6.83651 9.85519 23.4039
655 1 -1.1104 7.22507 12.6852 26.2346
689 1 -1.1104 9.83764 12.4376 26.1511
505 1 -1.1104 10.2081 12.3474 23.4758
593 1 -1.1104 12.6989 12.5264 23.5513
630 1 -1.1104 9.85127 9.71281 26.5642
632 1 -1.1104 9.59381 9.51943 23.8432
634 2 2.2208 8.14102 8.39101 22.1759
636 2 2.2208 8.36577 11.0794 24.9372
639 2 2.2208 11.3731 11.181 22.1682
643 1 -1.1104 12.5881 9.66854 23.5807
644 2 2.2208 11.1818 8.31605 24.9688
646 1 -1.1104 12.5839 9.81977 26.1084
440 1 -1.1104 12.4659 12.6555 26.4347
517 1 -1.1104 12.515 15.5599 20.8106
497 1 -1.1104 3.91895 18.205 20.8667
682 2 2.2208 -0.0792019 19.6766 24.8238
680 2 2.2208 -0.317669 14.0528 24.797
676 2 2.2208 2.62222 14 22.2062
675 2 2.2208 2.50843 19.6236 22.1535
663 2 2.2208 5.66113 14.1998 25.0419
654 1 -1.1104 4.26458 18.2893 23.5614
658 1 -1.1104 1.06135 18.1187 26.5411
659 1 -1.1104 1.40607 14.9737 26.3234
662 2 2.2208 5.45734 19.7486 24.9412
665 1 -1.1104 1.51534 18.1831 23.6839
667 2 2.2208 5.50774 16.8447 22.1761
668 1 -1.1104 3.97751 18.2243 26.546
669 2 2.2208 2.63721 16.5722 25.0942
670 1 -1.1104 4.27926 15.5507 26.2193
673 1 -1.1104 1.16031 15.3426 23.7532
674 1 -1.1104 4.05637 15.4511 23.3711
678 2 2.2208 5.52922 16.9337 27.7034
590 2 2.2208 8.2472 2.74461 27.7119
683 2 2.2208 0.00747251 16.7724 22.092
594 1 -1.1104 12.6123 18.347 23.6581
504 1 -1.1104 12.5289 15.433 26.6033
442 1 -1.1104 12.8629 15.6979 23.569
512 1 -1.1104 12.7484 18.3091 21.0196
490 1 -1.1104 6.84115 15.3906 21.0475
690 1 -1.1104 6.88025 18.5815 26.229
686 2 2.2208 8.49462 19.6489 22.2036
531 2 2.2208 8.53443 16.8257 25.0342
688 1 -1.1104 9.52553 18.2334 26.4743
661 1 -1.1104 7.07792 18.0965 23.4778
687 2 2.2208 8.44281 14.031 22.2936
441 1 -1.1104 12.5745 18.0722 26.566
657 1 -1.1104 7.07863 15.6307 26.5553
592 2 2.2208 11.3904 16.8609 22.3462
685 1 -1.1104 9.96704 15.2331 23.5114
530 1 -1.1104 9.87109 18.3143 23.6327
468 2 2.2208 11.2994 13.9202 24.9451
672 1 -1.1104 7.03568 15.4644 23.7922
684 1 -1.1104 9.78009 15.3476 26.1539
626 2 2.2208 -0.145332 11.213 27.8361
566 2 2.2208 -0.17702 -0.04739 27.6476
532 2 2.2208 8.48332 16.9379 13.6817
624 2 2.2208 2.67328 8.51317 27.6633
560 2 2.2208 2.63276 2.72101 27.7914
649 2 2.2208 8.40463 7.99496 27.7654
372 2 2.2208 2.92143 -0.159557 13.6774
625 2 2.2208 5.64254 11.2546 27.69
691 2 2.2208 5.5623 22.3037 4.9687
693 1 -1.1104 1.18366 23.8979 0.917947
694 1 -1.1104 1.22251 24.2272 3.76471
695 1 -1.1104 1.24963 21.3444 0.870705
697 2 2.2208 5.573 25.3415 2.30434
698 1 -1.1104 1.28131 21.3161 3.87823
700 1 -1.1104 3.96549 24.1821 0.725091
701 2 2.2208 2.66439 22.5636 2.16398
703 1 -1.1104 3.71023 23.8549 3.4895
704 2 2.2208 2.62422 25.2559 5.20152
705 1 -1.1104 4.17191 20.8911 0.851117
707 1 -1.1104 3.94608 21.2039 3.67864
839 1 -1.1104 4.53838 21.1123 6.74643
706 1 -1.1104 4.02391 26.8278 0.907348
708 1 -1.1104 4.2396 26.8306 3.7963
699 1 -1.1104 1.23002 26.8957 3.75519
834 1 -1.1104 1.30224 21.2426 6.71835
712 1 -1.1104 6.92969 23.8316 1.01869
717 1 -1.1104 6.84945 26.7737 3.65677
711 2 2.2208 -0.129138 25.3485 2.36907
838 1 -1.1104 4.20894 23.736 6.43205
832 1 -1.1104 1.16789 24.1442 6.71464
840 1 -1.1104 4.0489 26.6454 6.54074
710 2 2.2208 -0.255607 22.6167 5.13449
715 1 -1.1104 7.01905 26.7048 1.07098
714 1 -1.1104 7.04109 21.0871 1.0069
716 1 -1.1104 6.98833 20.9639 3.5251
713 1 -1.1104 6.82227 24.0528 3.50613
718 2 2.2208 11.0208 22.5618 5.23387
720 1 -1.1104 12.5681 23.8803 1.06514
721 1 -1.1104 12.3402 23.8679 3.75952
722 1 -1.1104 12.6619 21.0913 0.834118
724 2 2.2208 10.9354 25.1137 2.34423
725 1 -1.1104 12.693 21.0949 3.90995
727 1 -1.1104 9.62236 23.9123 0.662269
728 2 2.2208 8.34074 22.4675 2.25618
730 1 -1.1104 9.54193 23.8497 3.68624
731 2 2.2208 8.27485 25.3001 5.11508
732 1 -1.1104 9.79764 21.1177 0.826338
734 1 -1.1104 9.95856 21.1179 3.76205
735 1 -1.1104 9.77368 26.5763 3.87762
868 1 -1.1104 9.55851 23.9866 6.68809
723 1 -1.1104 12.5892 26.7436 1.04838
733 1 -1.1104 9.82291 26.6449 0.798339
726 1 -1.1104 12.5489 26.5086 3.75021
865 1 -1.1104 12.3443 23.981 6.52159
837 1 -1.1104 6.77588 26.7637 6.40927
869 1 -1.1104 9.73645 20.9662 6.52624
866 1 -1.1104 12.6508 21.206 6.63152
867 1 -1.1104 12.3793 26.735 6.66601
696 1 -1.1104 1.36461 26.6703 0.614736
692 2 2.2208 5.50528 28.0165 5.2757
702 2 2.2208 2.71394 28.0955 2.21503
740 1 -1.1104 1.19623 29.43 0.992921
743 1 -1.1104 1.25691 29.475 3.92123
746 1 -1.1104 1.21955 32.1005 0.86431
747 2 2.2208 5.29602 31.083 2.65625
749 1 -1.1104 1.17263 32.2375 3.5763
751 1 -1.1104 4.14557 29.5826 0.976035
754 1 -1.1104 4.04452 29.4157 3.86922
756 2 2.2208 2.40276 30.8754 5.14232
758 1 -1.1104 4.07293 32.459 1.13069
759 1 -1.1104 3.77254 32.2242 4.06917
895 1 -1.1104 3.94776 29.375 6.78603
897 1 -1.1104 3.71595 32.2571 6.7411
1291 2 2.2208 5.43504 33.6804 -0.434199
893 1 -1.1104 1.29368 32.6228 6.44429
891 1 -1.1104 6.96027 29.9087 6.81147
1367 1 -1.1104 0.963232 46.4258 1.02176
765 1 -1.1104 6.7307 32.3995 1.05078
750 1 -1.1104 6.69306 32.2024 3.98383
894 1 -1.1104 6.45992 32.4032 6.71372
981 2 2.2208 -0.497668 45.2351 10.5808
763 1 -1.1104 6.64583 29.719 0.976722
764 1 -1.1104 7.04441 29.494 3.95833
719 2 2.2208 11.3392 28.1187 5.04457
729 2 2.2208 8.35034 28.1289 2.58118
767 1 -1.1104 12.2826 29.5346 0.970717
769 1 -1.1104 12.5937 29.5846 3.71932
771 1 -1.1104 12.5726 32.3329 1.07238
772 2 2.2208 11.0275 30.9018 2.43507
774 1 -1.1104 12.4701 32.5127 3.92418
775 1 -1.1104 9.51544 29.4506 1.23613
778 1 -1.1104 9.72704 29.4295 3.86083
780 2 2.2208 8.18252 31.0573 5.22761
782 1 -1.1104 9.92856 32.1899 0.637973
783 1 -1.1104 9.38673 32.164 3.60896
9345 2 2.2208 -0.395928 28.2813 10.7575
831 1 -1.1104 11.962 41.1031 9.5436
739 2 2.2208 5.24813 33.9063 5.37644
741 1 -1.1104 1.01263 35.1595 1.0823
744 1 -1.1104 0.870496 35.182 3.81306
748 2 2.2208 5.21143 36.5713 2.39382
752 1 -1.1104 3.69657 35.1232 0.910362
753 2 2.2208 2.44648 33.8151 2.57861
755 1 -1.1104 3.76755 35.3585 3.8719
757 2 2.2208 2.43415 36.6517 5.15479
785 2 2.2208 5.07543 39.7603 5.28922
791 1 -1.1104 1.12846 38.0238 1.11837
796 1 -1.1104 1.14326 38.4661 3.68764
801 2 2.2208 2.5295 39.5941 2.46331
805 1 -1.1104 3.65598 38.1428 1.03017
807 1 -1.1104 3.61526 38.2071 3.84866