ITEM: TIMESTEP
50000
ITEM: NUMBER OF ATOMS
17640
ITEM: BOX BOUNDS pp pp pp
-4.7560230174164686e-01 2.7815602301741794e+01
-5.6628645921773915e+00 3.3374286459218263e+02
-4.9168878253077120e-01 2.7831688782530794e+01
ITEM: ATOMS id type q x y z
1 2 2.2208 5.16002 0.0209104 5.20715
2 1 -1.1104 0.873415 -4.55343 1.01854
6 1 -1.1104 0.863156 -4.09077 3.75032
10 1 -1.1104 1.08221 -1.41256 1.04994
12 2 2.2208 5.164 -2.96535 2.49927
14 1 -1.1104 1.03908 -1.44586 3.7731
16 1 -1.1104 3.82477 -4.38303 1.04259
18 2 2.2208 2.75946 -0.0382591 2.18274
19 1 -1.1104 3.53986 -4.40107 3.73626
21 2 2.2208 2.38164 -2.8624 5.24865
23 1 -1.1104 3.87696 -1.50699 0.685506
24 1 -1.1104 3.77414 -1.49746 3.68679
8 1 -1.1104 6.66105 -4.41733 3.74417
8730 2 2.2208 13.4343 8.42681 11.0459
11 1 -1.1104 6.72963 -1.92499 1.04517
15 1 -1.1104 6.36597 -1.54353 4.06572
170 1 -1.1104 0.999597 -1.51967 6.56213
172 1 -1.1104 3.71936 -4.30577 6.49973
166 1 -1.1104 0.831805 -3.99708 6.7365
562 2 2.2208 13.5714 19.7774 -0.273295
4 1 -1.1104 6.61427 -4.61256 0.956502
31 2 2.2208 10.6933 -0.0981708 5.22946
32 1 -1.1104 12.4181 -4.2588 0.895659
34 1 -1.1104 12.1955 -3.96343 3.80142
36 1 -1.1104 12.2935 -1.46066 1.09947
37 2 2.2208 10.8021 -2.92542 2.34665
39 1 -1.1104 12.1227 -1.42373 4.08079
40 1 -1.1104 9.68282 -4.27497 0.97504
42 2 2.2208 7.86789 -0.197228 2.23765
43 1 -1.1104 9.53903 -4.54097 3.927
45 2 2.2208 7.89467 -2.85393 5.35986
47 1 -1.1104 9.52444 -1.47741 0.869205
48 1 -1.1104 9.22068 -1.48704 3.76206
208 1 -1.1104 9.15679 -4.40153 6.8601
171 1 -1.1104 6.7426 -1.49981 6.58384
207 1 -1.1104 11.935 -1.30187 6.62651
8776 2 2.2208 13.6484 19.8423 10.993
3 1 -1.1104 1.30739 1.28653 0.864835
7 1 -1.1104 1.13155 1.39345 3.68332
13 2 2.2208 5.06987 2.91328 2.51335
17 1 -1.1104 4.04264 1.16347 0.785134
20 1 -1.1104 3.87322 1.39297 3.54259
22 2 2.2208 2.10926 2.71449 5.21824
54 2 2.2208 4.9394 5.50968 5.21212
56 1 -1.1104 1.10037 6.96648 1.16849
58 1 -1.1104 0.954717 7.00487 3.90899
60 1 -1.1104 0.657595 4.10862 0.897719
67 1 -1.1104 0.947504 4.20439 3.74126
72 2 2.2208 2.2508 5.53828 2.45128
74 1 -1.1104 3.75516 6.8975 3.84695
76 1 -1.1104 3.30022 4.14789 1.04383
79 1 -1.1104 3.55491 4.1002 3.82929
71 1 -1.1104 3.86712 7.12364 0.930327
372 2 2.2208 2.16956 0.0997352 13.6274
561 2 2.2208 13.5831 14.1209 -0.489733
9 1 -1.1104 6.59705 1.37344 3.4265
235 1 -1.1104 6.6374 7.06581 6.56371
8516 2 2.2208 13.4469 5.45092 2.35137
83 2 2.2208 -0.445374 11.1494 5.23192
234 1 -1.1104 0.827353 7.07996 6.85843
50 2 2.2208 13.3629 -2.87174 5.37014
57 1 -1.1104 6.54828 7.11762 0.9517
59 1 -1.1104 6.67059 7.29029 3.73132
5 1 -1.1104 6.84667 1.01397 0.532817
63 1 -1.1104 6.32428 4.38889 1.1187
69 1 -1.1104 6.45141 4.34664 3.84187
33 1 -1.1104 12.3038 1.29769 0.77279
35 1 -1.1104 11.9238 1.46283 3.62161
38 2 2.2208 10.4774 2.75129 2.37286
41 1 -1.1104 9.54583 1.41171 0.865578
44 1 -1.1104 9.16281 1.25359 3.82847
46 2 2.2208 7.81814 2.80972 5.11608
84 2 2.2208 10.8652 5.55705 5.21289
87 1 -1.1104 12.3548 7.22515 3.69711
88 1 -1.1104 12.1219 4.17084 0.827939
92 1 -1.1104 11.9581 4.35265 3.75732
95 2 2.2208 8.00687 5.66297 2.27911
99 1 -1.1104 9.33665 4.19898 0.945567
102 1 -1.1104 9.16095 4.23295 3.67913
86 1 -1.1104 12.1922 7.10514 0.855191
97 1 -1.1104 9.45769 7.09531 3.79839
94 1 -1.1104 9.36255 6.96766 0.773583
203 1 -1.1104 12.1164 16.0515 12.2502
266 1 -1.1104 12.0933 4.19523 6.71243
169 1 -1.1104 6.1383 1.72394 6.40593
206 1 -1.1104 11.9093 1.36721 6.50707
265 1 -1.1104 12.2923 7.02542 6.74097
320 2 2.2208 7.94743 16.9488 7.84109
371 2 2.2208 5.07113 -3.05383 13.547
8088 2 2.2208 10.6884 -5.65114 5.46572
55 2 2.2208 4.9266 11.4683 5.18534
61 1 -1.1104 0.768224 9.66828 1.1256
66 2 2.2208 5.09373 8.55908 2.42631
68 1 -1.1104 1.02442 9.99424 3.98948
73 2 2.2208 2.0177 11.394 2.30775
75 2 2.2208 2.43838 8.35779 5.24059
77 1 -1.1104 3.4934 9.89062 0.964935
80 1 -1.1104 3.87495 9.65852 3.9115
107 1 -1.1104 0.792855 12.5293 0.680548
113 1 -1.1104 0.968441 12.9724 3.36455
123 1 -1.1104 3.71988 12.8501 0.912498
128 1 -1.1104 3.65291 12.7086 3.77945
124 1 -1.1104 3.36084 12.5083 6.56534
115 1 -1.1104 6.38941 12.8154 4.0334
532 2 2.2208 7.98383 16.8643 13.3608
64 1 -1.1104 6.48565 9.856 1.13875
110 1 -1.1104 6.70156 12.5667 0.98638
70 1 -1.1104 6.66346 10.2533 4.03937
85 2 2.2208 10.9296 11.3693 5.20138
89 1 -1.1104 12.208 9.86422 1.23739
91 2 2.2208 10.8646 8.53329 2.41248
93 1 -1.1104 12.2024 9.73915 3.99142
96 2 2.2208 7.92817 11.2943 2.66227
98 2 2.2208 7.97389 8.58664 5.05984
100 1 -1.1104 9.30085 10.145 1.11488
103 1 -1.1104 9.51227 9.93315 3.63641
142 1 -1.1104 12.4244 12.8032 1.05536
146 1 -1.1104 12.033 12.8537 3.84131
153 1 -1.1104 9.74781 12.8438 0.912076
158 1 -1.1104 9.34351 12.7638 3.76868
90 1 -1.1104 12.0081 9.79532 6.53181
65 1 -1.1104 6.36192 9.83822 6.88179
143 1 -1.1104 12.4609 12.4463 6.59765
154 1 -1.1104 9.35652 12.9889 6.43745
101 1 -1.1104 9.06311 10.1251 6.23468
111 1 -1.1104 6.4364 12.7909 6.64602
119 2 2.2208 5.2283 14.079 2.42293
130 2 2.2208 2.48514 14.1463 5.21694
106 2 2.2208 5.20794 16.8817 5.20028
109 1 -1.1104 1.03701 18.601 1.07213
114 1 -1.1104 0.595789 18.4489 3.61438
116 1 -1.1104 0.818374 15.4979 1.18106
120 2 2.2208 5.15973 19.7489 2.45052
121 1 -1.1104 0.73292 15.6598 3.98789
125 1 -1.1104 3.89503 18.5576 0.5652
127 2 2.2208 2.20127 16.8372 2.46394
129 1 -1.1104 3.54132 18.4621 3.53349
131 2 2.2208 2.25291 19.7556 5.11455
132 1 -1.1104 4.00153 15.5788 1.12178
134 1 -1.1104 3.70142 15.5932 3.80903
650 2 2.2208 10.858 11.6014 -0.509635
401 2 2.2208 13.5162 -0.051616 13.5866
82 2 2.2208 -0.391342 8.26083 2.49252
302 1 -1.1104 0.842841 18.3241 6.39483
133 1 -1.1104 4.01687 15.5074 6.59507
126 1 -1.1104 3.66925 18.3813 6.51499
163 1 -1.1104 9.46918 15.6415 6.47018
112 1 -1.1104 6.32734 18.3379 6.76055
140 1 -1.1104 6.78808 15.2783 1.19283
138 1 -1.1104 6.35254 18.087 0.957938
150 2 2.2208 10.78 14.2311 2.37519
139 1 -1.1104 6.47339 18.4323 4.14285
122 1 -1.1104 6.68195 15.6984 3.8239
160 2 2.2208 8.0709 14.3433 5.11139
141 2 2.2208 10.8011 16.902 5.11642
144 1 -1.1104 12.2622 18.4322 0.937273
147 1 -1.1104 12.5046 18.4199 3.82626
148 1 -1.1104 12.0989 15.587 0.949887
151 2 2.2208 10.7179 19.9779 2.33233
152 1 -1.1104 12.2339 15.7396 3.7566
155 1 -1.1104 9.49387 18.4316 0.95932
157 2 2.2208 7.96572 16.9499 2.33314
159 1 -1.1104 9.20352 18.3947 3.65909
161 2 2.2208 8.01632 19.8791 5.21918
162 1 -1.1104 9.35129 15.6449 0.807907
164 1 -1.1104 9.43453 15.4914 3.72391
312 1 -1.1104 12.3511 18.6367 12.4368
145 1 -1.1104 11.9854 18.2075 6.76186
149 1 -1.1104 12.0779 15.2889 6.44662
156 1 -1.1104 9.53599 18.4451 6.51909
232 1 -1.1104 12.1792 15.4292 9.23146
174 1 -1.1104 4.04661 -1.51198 6.4558
175 2 2.2208 5.05302 0.0678658 10.6818
176 1 -1.1104 0.855418 -4.177 12.2457
180 1 -1.1104 1.03246 -4.45396 9.53823
184 1 -1.1104 0.714933 -1.37196 12.1261
186 2 2.2208 5.20523 -2.94033 7.80837
188 1 -1.1104 0.840073 -1.53452 9.25236
190 1 -1.1104 3.55311 -4.49025 12.3145
192 2 2.2208 2.41838 -0.174396 7.92946
193 1 -1.1104 3.75915 -4.49822 9.34837
195 2 2.2208 2.27412 -2.82084 10.9154
197 1 -1.1104 3.52131 -1.43402 11.881
198 1 -1.1104 3.83306 -1.51323 8.98258
185 1 -1.1104 6.36921 -1.57591 12.2988
189 1 -1.1104 6.68718 -1.39569 9.61418
178 1 -1.1104 6.56762 -4.61879 12.2002
182 1 -1.1104 6.41597 -4.22727 9.48983
8726 2 2.2208 13.2422 11.2756 8.21275
27 2 2.2208 -0.350316 2.59308 2.28664
210 1 -1.1104 9.34576 -1.66755 6.57005
314 1 -1.1104 9.44211 15.5393 9.18036
168 1 -1.1104 6.52372 -4.46372 6.55302
205 1 -1.1104 11.9922 -4.31974 6.85334
211 2 2.2208 10.9158 0.0153826 10.9263
212 1 -1.1104 12.14 -4.42158 12.4293
214 1 -1.1104 12.2277 -4.46712 9.6714
216 1 -1.1104 12.3506 -1.36788 12.1893
217 2 2.2208 10.6587 -2.63131 8.27322
219 1 -1.1104 12.3063 -1.52399 9.41875
220 1 -1.1104 9.38324 -4.20292 12.1181
222 2 2.2208 8.01971 -0.238858 8.21861
223 1 -1.1104 9.13484 -4.09116 9.45005
225 2 2.2208 7.88339 -2.92733 10.9432
227 1 -1.1104 9.29397 -1.63386 12.4573
228 1 -1.1104 9.48035 -1.27718 9.66057
51 2 2.2208 13.5238 2.74405 10.7037
315 1 -1.1104 9.42639 15.3097 12.0689
503 2 2.2208 2.29434 17.0644 13.6246
25 2 2.2208 -0.340451 -2.84948 2.25374
81 2 2.2208 -0.455448 5.67353 5.27203
173 1 -1.1104 3.47475 1.39314 6.56136
239 1 -1.1104 4.02912 4.01549 6.64781
167 1 -1.1104 0.720787 1.16689 6.77501
238 1 -1.1104 3.59464 6.88465 6.74865
236 1 -1.1104 1.41052 4.20981 6.82263
177 1 -1.1104 0.793772 1.50833 12.3368
181 1 -1.1104 0.601429 1.44517 9.54169
187 2 2.2208 5.17977 2.89784 8.09279
191 1 -1.1104 3.71004 1.17975 12.2466
194 1 -1.1104 3.66544 1.37321 9.40556
196 2 2.2208 2.06855 2.82972 10.8362
240 2 2.2208 5.07308 5.4163 10.8781
246 1 -1.1104 0.880863 4.29098 12.2907
251 1 -1.1104 0.795678 4.29891 9.27065
256 2 2.2208 2.17617 5.59049 8.22434
258 1 -1.1104 3.61325 6.87297 9.48116
260 1 -1.1104 3.55953 4.27508 12.2751
262 1 -1.1104 3.66011 4.13802 9.48328
244 1 -1.1104 0.820846 7.06643 9.51185
255 1 -1.1104 3.85743 7.09722 12.2965
179 1 -1.1104 6.4444 1.28381 12.2027
253 1 -1.1104 6.1535 4.06849 9.57271
231 2 2.2208 10.6706 19.865 7.86037
237 1 -1.1104 6.76753 4.32794 6.68986
104 2 2.2208 10.7259 17.0614 10.7037
209 1 -1.1104 8.97721 1.05423 6.50673
267 1 -1.1104 9.48961 7.09102 6.71008
269 1 -1.1104 9.41473 3.9795 6.4057
245 1 -1.1104 6.51468 6.98549 9.27424
248 1 -1.1104 6.35096 4.12697 12.2866
243 1 -1.1104 6.53142 6.72059 12.0412
183 1 -1.1104 6.6765 1.18256 9.27997
213 1 -1.1104 12.1822 1.50431 12.1665
215 1 -1.1104 12.0811 1.318 9.48761
218 2 2.2208 10.3463 2.63006 7.72707
221 1 -1.1104 9.26659 1.09968 12.2875
224 1 -1.1104 9.4677 1.42788 9.50897
226 2 2.2208 7.9494 2.51135 10.9263
268 1 -1.1104 9.18789 4.03399 9.61171
271 1 -1.1104 9.37174 4.0292 12.2595
273 1 -1.1104 9.29019 6.82992 9.51631
275 2 2.2208 7.89228 5.83669 7.92
276 2 2.2208 10.7099 5.48471 10.9126
278 1 -1.1104 12.102 7.22241 12.3195
280 1 -1.1104 12.145 4.32402 12.1741
283 1 -1.1104 12.0114 3.98008 9.3182
285 1 -1.1104 9.18446 7.11493 12.4999
279 1 -1.1104 12.224 6.90401 9.33398
8674 2 2.2208 13.668 11.1648 2.36785
677 2 2.2208 2.32072 19.8677 -0.548611
204 2 2.2208 10.668 14.1744 7.96752
136 2 2.2208 -0.498561 20.0687 2.25318
242 1 -1.1104 0.577747 7.21162 12.3292
62 1 -1.1104 0.960244 9.80909 6.41321
78 1 -1.1104 3.64085 9.82888 6.58279
108 1 -1.1104 0.808558 12.7076 6.28551
241 2 2.2208 5.13616 11.2538 10.9387
247 1 -1.1104 0.881946 9.87302 12.4089
250 2 2.2208 5.06322 8.39047 7.97906
252 1 -1.1104 0.697995 10.051 9.40476
257 2 2.2208 2.35508 11.071 8.04535
259 2 2.2208 2.24664 8.31189 10.8826
261 1 -1.1104 3.7556 9.88086 12.3063
263 1 -1.1104 3.63593 9.8609 9.55483
287 1 -1.1104 3.84036 12.7576 12.2805
294 1 -1.1104 0.974418 13.107 9.26483
299 1 -1.1104 0.951983 12.8698 12.3513
305 1 -1.1104 3.51997 12.7513 9.4517
326 2 2.2208 7.90366 11.4539 13.4907
118 1 -1.1104 6.59606 15.4568 6.66562
249 1 -1.1104 6.71574 9.83544 12.4028
254 1 -1.1104 6.42794 9.73026 9.65579
297 1 -1.1104 6.51297 12.7233 12.1388
290 1 -1.1104 6.37112 12.6652 9.44276
319 1 -1.1104 9.4746 12.7528 9.3565
233 1 -1.1104 9.42552 12.6471 11.9796
264 1 -1.1104 9.29467 10.0372 9.12057
270 1 -1.1104 9.36633 9.7662 11.9779
272 2 2.2208 8.04302 8.37319 10.9764
274 2 2.2208 7.71626 11.445 7.88237
277 2 2.2208 10.7553 11.2743 10.6823
281 1 -1.1104 12.0314 10.2643 12.5756
282 2 2.2208 10.7743 8.30752 7.94175
284 1 -1.1104 11.8586 9.73146 9.52538
53 1 -1.1104 12.0276 12.6165 9.39032
105 1 -1.1104 12.2751 12.8873 12.1785
306 1 -1.1104 6.52848 15.5248 12.1188
8542 2 2.2208 13.5345 14.419 10.7904
289 1 -1.1104 6.74891 15.6575 9.40487
117 1 -1.1104 0.919701 15.2147 6.61088
318 1 -1.1104 9.23933 18.5316 9.37818
295 2 2.2208 4.97754 14.2039 8.15033
309 2 2.2208 2.26049 19.666 10.7683
308 1 -1.1104 3.5825 15.6139 12.1593
307 1 -1.1104 1.10639 15.7256 12.2587
310 2 2.2208 2.14846 14.1285 10.9984
286 1 -1.1104 3.44905 18.5679 12.3688
291 1 -1.1104 0.783363 18.533 9.17361
292 1 -1.1104 0.725686 15.7444 9.41939
293 2 2.2208 4.95901 19.797 7.97484
298 1 -1.1104 0.793778 18.4827 12.1633
300 2 2.2208 5.07983 16.9991 10.7128
301 1 -1.1104 3.75282 18.2803 9.33681
303 2 2.2208 2.16674 16.9088 7.86784
304 1 -1.1104 3.60401 15.6759 9.47366
165 2 2.2208 13.6828 17.0844 2.35401
311 2 2.2208 -0.490416 19.8121 7.88059
288 1 -1.1104 6.59395 18.3569 9.52307
202 1 -1.1104 12.1563 18.443 9.37201
317 2 2.2208 7.98725 14.2243 10.6209
316 2 2.2208 7.85932 19.9455 10.7325
296 1 -1.1104 6.47103 18.2617 12.1892
321 1 -1.1104 9.11846 18.2448 12.1621
325 2 2.2208 10.7511 8.59168 13.6796
649 2 2.2208 8.03421 8.54727 -0.25674
8090 2 2.2208 2.29676 -5.67786 7.80875
229 2 2.2208 13.4781 -0.169048 7.90195
26 2 2.2208 -0.478862 -0.316693 5.09435
8725 2 2.2208 13.6358 5.66599 8.02305
49 2 2.2208 13.6211 -0.109263 2.16467
52 2 2.2208 13.5125 2.83943 5.0909
623 2 2.2208 5.19643 5.78809 -0.342094
8543 2 2.2208 13.5689 8.49339 5.2949
8541 2 2.2208 13.466 16.968 7.76103
625 2 2.2208 5.10467 11.4017 -0.234893
679 2 2.2208 2.07291 14.1908 -0.383094
330 2 2.2208 10.8956 14.1942 13.4968
560 2 2.2208 2.53442 2.69648 -0.433202
329 2 2.2208 10.6875 19.9104 13.6254
328 2 2.2208 4.98548 14.338 13.5858
565 2 2.2208 10.7961 17.1272 -0.363263
324 2 2.2208 2.17865 11.2102 13.6778
406 2 2.2208 10.8396 2.79169 13.6891
559 2 2.2208 2.37367 -2.90478 -0.479395
566 2 2.2208 -0.339308 -0.0453502 -0.211786
322 2 2.2208 2.2193 5.56666 13.6628
624 2 2.2208 2.32473 8.45323 -0.39841
8085 2 2.2208 5.05284 -5.65188 5.06896
8180 2 2.2208 5.31731 -5.64951 -0.433323
629 2 2.2208 -0.42057 5.57176 -0.399468
331 2 2.2208 5.08283 0.00960298 16.5905
332 1 -1.1104 0.901559 -4.35191 17.9234
336 1 -1.1104 1.05657 -4.11169 15.2738
344 1 -1.1104 0.882018 -1.437 18.2654
346 2 2.2208 5.1099 -2.78294 19.4333
348 1 -1.1104 0.88478 -1.27801 15.2556
352 1 -1.1104 3.69356 -4.15103 17.7989
354 2 2.2208 2.13361 0.136122 19.4135
355 1 -1.1104 3.99866 -4.1917 15.3183
359 2 2.2208 2.36577 -2.87988 16.6377
361 1 -1.1104 3.59252 -1.32551 17.9825
362 1 -1.1104 3.73004 -1.55481 14.9035
340 1 -1.1104 6.62219 -4.24525 14.856
334 1 -1.1104 6.67789 -4.17827 17.7473
350 1 -1.1104 6.52882 -1.53819 15.1425
356 1 -1.1104 3.67731 -4.05653 20.632
564 2 2.2208 7.99483 14.1105 27.794
9111 2 2.2208 13.5453 8.67632 22.3066
345 1 -1.1104 6.41617 -1.25747 17.977
374 2 2.2208 10.854 0.0890941 16.5264
375 1 -1.1104 12.3691 -4.43622 17.8262
377 1 -1.1104 12.0235 -4.30986 15.0918
381 1 -1.1104 12.2408 -1.53519 18.0122
382 2 2.2208 10.9707 -2.99731 19.1597
384 1 -1.1104 12.2844 -1.24637 15.1943
386 1 -1.1104 9.40435 -4.26311 17.8626
388 2 2.2208 7.83588 0.0851505 19.176
389 1 -1.1104 9.4261 -4.42427 15.1408
393 2 2.2208 7.97024 -2.75555 16.4533
395 1 -1.1104 9.21839 -1.42344 18.0684
396 1 -1.1104 9.45247 -1.45984 14.9565
8182 2 2.2208 -0.48051 -5.62442 27.7673
376 1 -1.1104 12.0039 1.30276 17.9705
589 2 2.2208 8.23566 -2.92016 27.8061
385 1 -1.1104 12.523 -1.53536 20.5953
378 1 -1.1104 12.3236 -4.27291 20.7689
8921 2 2.2208 13.5801 11.3116 19.401
8845 2 2.2208 13.4226 2.77379 16.517
9030 2 2.2208 -0.387481 19.8957 19.2469
333 1 -1.1104 0.813649 1.49966 17.9174
338 1 -1.1104 0.537335 1.12986 14.8967
347 2 2.2208 5.01359 2.92876 19.3175
353 1 -1.1104 3.67607 1.67732 17.9904
357 1 -1.1104 3.46506 1.38864 15.2405
360 2 2.2208 2.15998 2.81419 16.6027
407 2 2.2208 5.08248 5.761 16.6641
415 1 -1.1104 0.770238 4.2587 17.8138
420 1 -1.1104 0.738211 3.98296 14.9965
428 1 -1.1104 3.71411 7.17462 18.0753
429 2 2.2208 2.42671 5.71576 19.3507
434 1 -1.1104 3.77509 4.51542 17.9199
436 1 -1.1104 3.52206 4.23398 15.0552
431 1 -1.1104 3.83864 6.99634 15.0977
409 1 -1.1104 0.877536 6.96824 17.8241
411 1 -1.1104 0.65743 6.85049 14.8383
8145 2 2.2208 2.43361 -5.58908 24.8784
424 1 -1.1104 6.40311 4.24775 15.0529
342 1 -1.1104 6.40502 1.28358 15.0535
417 1 -1.1104 6.64368 4.27934 18.1561
9052 2 2.2208 13.6401 2.82154 22.149
8212 2 2.2208 8.08736 -5.54597 19.1532
339 1 -1.1104 0.80961 1.57744 20.7722
432 1 -1.1104 3.54333 7.24545 20.8327
558 2 2.2208 5.13998 -0.114085 27.7206
413 1 -1.1104 6.6057 7.22657 15.2132
410 1 -1.1104 6.57964 7.04288 18.0397
335 1 -1.1104 6.10313 1.57551 17.8255
379 1 -1.1104 11.9675 1.43357 14.9018
383 2 2.2208 10.8517 2.75756 19.3901
387 1 -1.1104 9.33726 1.2304 17.9048
391 1 -1.1104 9.3707 1.31683 15.2857
394 2 2.2208 7.97907 2.84209 16.3691
443 2 2.2208 10.7111 5.65528 16.583
446 1 -1.1104 12.232 7.00036 15.0488
448 1 -1.1104 12.1735 4.47277 17.8534
451 1 -1.1104 12.0842 4.17683 14.8223
455 1 -1.1104 9.15289 7.17214 17.8758
456 2 2.2208 7.75561 5.70732 19.4353
461 1 -1.1104 9.39309 4.05011 17.8469
463 1 -1.1104 9.36602 4.24423 14.8721
445 1 -1.1104 11.9953 7.08317 17.7817
458 1 -1.1104 9.41669 7.216 15.1521
404 2 2.2208 7.89133 -0.200942 13.737
392 1 -1.1104 9.16688 1.35715 20.6678
380 1 -1.1104 12.0748 1.24605 20.7033
447 1 -1.1104 11.8753 6.85936 20.6083
459 1 -1.1104 9.1265 7.02215 20.8161
464 1 -1.1104 9.43855 4.20903 20.7085
588 2 2.2208 10.74 0.0311154 27.7987
408 2 2.2208 4.9308 11.3866 16.4648
416 1 -1.1104 0.61337 9.64831 18.0445
419 2 2.2208 5.20901 8.66469 19.3359
422 1 -1.1104 0.690367 9.86233 15.2835
430 2 2.2208 2.18033 11.1836 19.5057
433 2 2.2208 2.11188 8.5071 16.6408
435 1 -1.1104 3.55676 10.0963 17.8043
438 1 -1.1104 3.33964 9.98029 15.474
471 1 -1.1104 0.729427 12.4934 18.1017
475 1 -1.1104 1.03911 12.8316 15.1767
491 1 -1.1104 3.77111 12.8166 17.9888
494 1 -1.1104 3.59612 12.704 15.1109
495 1 -1.1104 3.4936 12.6961 20.8229
423 1 -1.1104 0.942204 9.76573 20.887
476 1 -1.1104 0.775044 12.7375 20.8272
686 2 2.2208 7.6933 19.9138 22.2142
8251 2 2.2208 5.28229 -5.48726 16.3419
426 1 -1.1104 6.34753 10.0242 15.2401
418 1 -1.1104 6.60029 10.2095 18.1122
479 1 -1.1104 6.27486 12.7731 14.9595
473 1 -1.1104 6.57319 12.8135 17.8179
444 2 2.2208 10.8661 11.373 16.587
449 1 -1.1104 12.171 9.99823 18.0445
450 2 2.2208 10.7215 8.40603 19.2525
453 1 -1.1104 12.3386 10.0239 15.4645
457 2 2.2208 7.91002 11.6537 19.422
460 2 2.2208 7.98389 8.81185 16.4467
462 1 -1.1104 9.46178 9.97567 17.9071
465 1 -1.1104 9.22804 9.94264 14.8502
507 1 -1.1104 12.3355 12.6572 17.8496
509 1 -1.1104 12.0842 12.7824 15.1235
518 1 -1.1104 9.39445 12.7082 17.7209
521 1 -1.1104 9.11513 12.7234 14.9064
466 1 -1.1104 9.20335 10.1613 20.8877
522 1 -1.1104 9.33035 12.886 20.8393
510 1 -1.1104 12.1066 12.5817 20.7953
485 2 2.2208 5.13411 14.1939 19.2274
498 2 2.2208 2.43423 14.1545 16.4724
470 2 2.2208 5.21129 17.1109 16.6543
472 1 -1.1104 0.869325 18.4301 17.9767
477 1 -1.1104 0.936998 18.4446 14.921
483 1 -1.1104 1.19257 15.5519 17.8519
486 2 2.2208 5.14485 19.7815 19.1957
487 1 -1.1104 0.918523 15.7287 14.856
492 1 -1.1104 3.64374 18.4278 18.1339
493 2 2.2208 2.23258 16.9583 19.3843
496 1 -1.1104 3.79304 18.2357 15.1306
499 2 2.2208 2.28743 19.8649 16.5327
500 1 -1.1104 4.04033 15.8349 18.3013
501 1 -1.1104 3.90146 15.4887 15.1742
502 1 -1.1104 3.66701 15.5125 21.0709
596 2 2.2208 13.5328 -2.80627 22.2158
8817 2 2.2208 -0.350655 14.226 13.6663
497 1 -1.1104 3.62971 18.4056 20.8903
478 1 -1.1104 0.586199 18.2097 20.7529
530 1 -1.1104 9.079 18.5773 23.5936
628 2 2.2208 -0.445715 11.3942 22.1917
517 1 -1.1104 11.9914 15.502 20.7499
481 1 -1.1104 6.51559 18.4579 15.1534
489 1 -1.1104 6.44499 15.5573 15.1538
474 1 -1.1104 6.63192 18.4025 18.0021
484 1 -1.1104 6.5721 15.6139 18.1651
514 2 2.2208 10.7699 14.0955 19.2279
525 2 2.2208 7.8576 13.9699 16.3338
506 2 2.2208 10.8663 16.8945 16.3594
508 1 -1.1104 12.3905 18.2378 17.918
511 1 -1.1104 12.1112 18.3201 14.9973
513 1 -1.1104 11.9235 15.2368 17.8143
515 2 2.2208 10.8349 19.749 19.513
516 1 -1.1104 12.2131 15.6483 15.0888
519 1 -1.1104 9.89346 18.2741 17.7656
520 2 2.2208 8.11163 17.067 19.201
523 1 -1.1104 9.22765 18.3544 14.8376
526 2 2.2208 7.87791 19.7275 16.4645
527 1 -1.1104 9.30761 15.7128 17.5922
528 1 -1.1104 9.33352 15.6014 14.8197
482 1 -1.1104 6.38192 18.533 20.5334
688 1 -1.1104 9.43538 18.5275 26.3732
529 1 -1.1104 9.39772 15.6524 20.6715
524 1 -1.1104 9.19842 18.4638 20.7432
490 1 -1.1104 6.50848 15.6492 21.0476
569 2 2.2208 -0.327358 2.64025 25.1975
591 2 2.2208 7.9502 19.7414 27.7365
363 1 -1.1104 3.50807 -1.32351 20.9841
337 1 -1.1104 1.04746 -4.27288 20.6606
349 1 -1.1104 0.647699 -1.42938 20.7171
8919 2 2.2208 13.4082 8.47928 16.4813
534 2 2.2208 5.13999 -0.0943933 21.9527
535 1 -1.1104 0.826397 -4.2958 23.7095
539 1 -1.1104 0.980888 -4.3979 26.4062
543 1 -1.1104 0.862196 -1.4827 23.5212
545 2 2.2208 5.15846 -2.91249 24.9898
547 1 -1.1104 1.10399 -1.43597 26.5665
549 1 -1.1104 3.84295 -4.18028 23.4428
551 2 2.2208 2.29736 -0.0863253 24.997
552 1 -1.1104 3.99904 -4.23361 26.382
554 2 2.2208 2.13499 -2.98538 22.1919
556 1 -1.1104 3.8175 -1.19606 23.7653
557 1 -1.1104 3.75061 -1.5269 26.2818
537 1 -1.1104 6.68475 -4.25356 23.5555
590 2 2.2208 7.94282 2.74472 27.792
504 1 -1.1104 12.356 15.5991 26.3383
373 2 2.2208 4.79944 2.69812 13.8032
351 1 -1.1104 6.47733 -1.29121 20.6109
397 1 -1.1104 9.48041 -1.51567 20.6709
341 1 -1.1104 6.49495 -4.28407 20.6146
390 1 -1.1104 9.57251 -4.26774 20.6249
544 1 -1.1104 6.75573 -1.59456 23.2554
548 1 -1.1104 6.54445 -1.59845 26.3547
541 1 -1.1104 6.82575 -4.39167 26.3305
570 2 2.2208 10.6368 -0.00117536 22.2573
571 1 -1.1104 12.1754 -4.41242 23.4785
573 1 -1.1104 12.3219 -4.25839 26.2392
575 1 -1.1104 12.1207 -1.57696 23.5416
576 2 2.2208 10.7604 -3.09824 24.8497
578 1 -1.1104 12.3705 -1.34715 26.5608
579 1 -1.1104 9.43343 -4.32633 23.3011
581 2 2.2208 7.98591 -0.0880886 25.058
582 1 -1.1104 9.56514 -4.34098 26.4708
584 2 2.2208 8.1519 -2.96077 22.1016
586 1 -1.1104 9.46723 -1.60173 23.7498
587 1 -1.1104 9.50138 -1.62797 26.43
627 2 2.2208 -0.526789 8.57068 24.9312
323 2 2.2208 5.18898 8.42344 13.6328
437 1 -1.1104 3.93356 4.38048 20.628
343 1 -1.1104 6.39356 1.46015 20.6592
597 2 2.2208 13.49 -0.0212882 25.1938
358 1 -1.1104 3.91021 1.45172 20.6903
412 1 -1.1104 1.00498 7.06868 20.5733
421 1 -1.1104 0.988468 4.36885 20.5572
536 1 -1.1104 0.974535 1.48742 23.5879
540 1 -1.1104 0.990782 1.24862 26.3904
546 2 2.2208 5.21012 2.97943 25.0129
550 1 -1.1104 3.66024 1.43828 23.2768
553 1 -1.1104 3.81293 1.46971 26.1558
555 2 2.2208 2.37768 2.80929 22.0292
599 2 2.2208 5.19564 5.73076 22.1838
603 1 -1.1104 0.962947 7.01922 26.3992
605 1 -1.1104 0.945868 4.29511 23.5681
610 1 -1.1104 1.19077 4.08987 26.3727
615 2 2.2208 2.42683 5.529 25.0395
619 1 -1.1104 3.87061 4.12117 23.8357
621 1 -1.1104 3.86587 4.15544 26.5832
614 1 -1.1104 3.77099 6.76443 23.7288
617 1 -1.1104 3.83829 7.02464 26.6759
601 1 -1.1104 0.897551 7.05512 23.613
512 1 -1.1104 12.0908 18.2351 20.7283
538 1 -1.1104 6.67964 1.2557 23.4627
405 2 2.2208 10.7757 -2.81721 13.6826
452 1 -1.1104 12.2088 3.96483 20.5788
414 1 -1.1104 6.48991 7.24367 20.7504
425 1 -1.1104 6.72215 4.35961 20.9468
604 1 -1.1104 6.56606 7.15689 26.4134
602 1 -1.1104 6.67466 6.88583 23.2895
542 1 -1.1104 6.57889 1.56759 26.1618
612 1 -1.1104 6.72109 4.40218 26.5119
607 1 -1.1104 6.70694 4.15384 23.6174
572 1 -1.1104 12.1005 1.23236 23.4851
574 1 -1.1104 12.1648 1.61296 26.1683
577 2 2.2208 10.66 2.8104 24.8255
580 1 -1.1104 9.4779 1.54951 23.5948
583 1 -1.1104 9.28883 1.20539 26.4695
585 2 2.2208 7.9823 2.76891 22.2022
631 1 -1.1104 9.46141 4.12491 26.326
633 1 -1.1104 9.33617 4.2246 23.6064
637 2 2.2208 7.97731 5.74045 24.9018
638 2 2.2208 10.6499 5.50892 22.0494
642 1 -1.1104 12.1576 4.30046 23.4798
645 1 -1.1104 12.1493 4.4966 26.2416
640 1 -1.1104 12.0261 7.02952 23.5909
641 1 -1.1104 12.357 7.35917 26.4579
647 1 -1.1104 9.3588 7.29963 23.5457
635 1 -1.1104 9.64497 7.01661 26.3892
672 1 -1.1104 6.67642 15.3977 23.8434
680 2 2.2208 -0.539286 14.0916 25.1624
648 2 2.2208 10.7451 5.55553 27.7953
439 1 -1.1104 3.7254 9.95049 21.0314
600 2 2.2208 5.1644 11.3115 22.3814
606 1 -1.1104 0.873772 9.97641 23.4929
609 2 2.2208 5.21969 8.53005 25.1697
611 1 -1.1104 1.04559 9.7194 26.5594
616 2 2.2208 2.36043 11.3321 25.0242
618 2 2.2208 2.26093 8.59455 22.1761
620 1 -1.1104 3.59056 9.83863 23.7372
622 1 -1.1104 3.71199 9.9285 26.6147
656 1 -1.1104 3.82562 12.7183 23.7166
660 1 -1.1104 1.00918 12.7086 26.2872
666 1 -1.1104 1.07563 12.6786 23.586
671 1 -1.1104 3.75491 12.8688 26.4724
531 2 2.2208 7.8525 16.8921 25.1474
657 1 -1.1104 6.48744 15.6432 26.4571
454 1 -1.1104 12.335 10.1791 20.8277
427 1 -1.1104 6.52185 10.0665 20.8767
608 1 -1.1104 6.4466 9.87919 23.6523
664 1 -1.1104 6.54944 12.6283 23.8297
480 1 -1.1104 6.37583 12.864 20.7643
655 1 -1.1104 6.6139 12.8035 26.5361
613 1 -1.1104 6.73809 9.85378 26.4545
689 1 -1.1104 9.32689 12.9256 26.4731
505 1 -1.1104 9.39126 13.1323 23.8143
593 1 -1.1104 12.1814 12.8574 23.4597
630 1 -1.1104 9.61769 9.67382 26.5277
632 1 -1.1104 9.22044 10.2545 23.6903
634 2 2.2208 7.9767 8.70599 22.1868
636 2 2.2208 7.81633 11.345 25.1178
639 2 2.2208 10.7624 11.5316 22.3712
643 1 -1.1104 12.177 9.93236 23.7951
644 2 2.2208 10.9438 8.45021 25.1066
646 1 -1.1104 12.4357 10.2829 26.6477
440 1 -1.1104 11.9827 12.8673 26.1986
684 1 -1.1104 9.25527 15.7548 26.44
488 1 -1.1104 0.82887 15.6144 20.7853
690 1 -1.1104 6.49754 18.426 26.3653
327 2 2.2208 5.09392 19.903 13.6646
685 1 -1.1104 9.53204 15.9667 23.5535
533 2 2.2208 13.3752 14.3164 22.1012
675 2 2.2208 2.57629 19.9968 22.2421
663 2 2.2208 5.19583 14.2502 25.0514
676 2 2.2208 2.34363 14.1341 22.3637
654 1 -1.1104 3.58361 18.3985 23.5499
658 1 -1.1104 0.828032 18.3258 26.6402
659 1 -1.1104 0.812889 15.561 26.4972
662 2 2.2208 5.12364 19.7046 24.9812
665 1 -1.1104 0.873924 18.4646 23.5095
667 2 2.2208 5.22159 16.934 22.1267
668 1 -1.1104 3.47768 18.6591 26.051
669 2 2.2208 2.32818 16.8436 25.0417
670 1 -1.1104 3.30671 15.8689 26.794
673 1 -1.1104 0.78747 15.4332 23.7706
674 1 -1.1104 3.69936 15.4571 23.9564
8920 2 2.2208 13.4469 5.79901 19.4707
653 2 2.2208 13.5088 5.70016 25.1236
442 1 -1.1104 12.3089 15.7011 23.5407
592 2 2.2208 10.591 17.188 22.0227
469 2 2.2208 10.8036 19.7296 25.0011
468 2 2.2208 10.8312 14.4084 24.8915
594 1 -1.1104 12.1969 18.4456 23.4649
687 2 2.2208 7.98593 14.3184 22.1908
441 1 -1.1104 12.1211 18.436 26.3023
661 1 -1.1104 6.43441 18.4703 23.6377
8808 2 2.2208 13.6597 11.4951 13.7593
467 2 2.2208 7.84118 5.64787 13.633
365 2 2.2208 -0.449441 14.3152 19.3849
8179 2 2.2208 5.21094 -5.64015 22.0513
8806 2 2.2208 13.2945 5.54581 13.6274
678 2 2.2208 5.00588 17.0897 27.8263
364 2 2.2208 -0.291803 5.61943 22.2875
691 2 2.2208 4.96931 22.6218 5.12799
693 1 -1.1104 1.06799 24.0536 0.899596
694 1 -1.1104 1.11606 24.2101 3.67343
695 1 -1.1104 0.988411 21.4075 1.14488
697 2 2.2208 5.45535 25.4472 2.27271
698 1 -1.1104 0.584789 21.2774 3.82408
700 1 -1.1104 3.97728 24.4238 0.892544
701 2 2.2208 2.44528 22.7711 2.44651
703 1 -1.1104 3.93327 24.1067 3.73204
704 2 2.2208 2.40163 25.5885 5.07018
705 1 -1.1104 4.1759 21.1817 1.02658
707 1 -1.1104 3.35585 21.1667 3.72414
708 1 -1.1104 3.94886 26.9122 3.54059
696 1 -1.1104 1.11773 26.9893 0.718791
832 1 -1.1104 0.779142 23.8336 6.44892
706 1 -1.1104 3.82304 26.9672 0.752483
1142 2 2.2208 11.0882 39.6383 -0.424878
9483 2 2.2208 -0.314698 25.5153 13.5806
9408 2 2.2208 -0.255886 30.9693 7.87434
840 1 -1.1104 3.90341 27.034 6.35639
1581 1 -1.1104 4.15977 46.5175 12.2269
717 1 -1.1104 6.90582 26.733 3.52366
712 1 -1.1104 6.59144 23.9256 0.7944
714 1 -1.1104 6.75968 20.9875 0.945262
716 1 -1.1104 6.51179 21.23 3.50557
713 1 -1.1104 6.63142 24.2363 3.6868
718 2 2.2208 10.7936 22.5938 5.20802
720 1 -1.1104 12.4107 24.1172 1.32324
721 1 -1.1104 12.3182 24.0462 4.00436
722 1 -1.1104 12.1628 21.3119 1.08204
724 2 2.2208 11.029 25.4342 2.39495
725 1 -1.1104 12.3258 21.0304 3.8183
727 1 -1.1104 9.50991 24.0512 0.76602
728 2 2.2208 8.01593 22.5574 2.29242
730 1 -1.1104 9.56796 23.7478 3.65948
731 2 2.2208 7.92679 25.3727 5.18767
732 1 -1.1104 9.38334 21.1624 0.94817
734 1 -1.1104 9.21756 21.0598 3.81752
733 1 -1.1104 9.45187 26.7893 0.962965
868 1 -1.1104 9.40255 24.0308 6.58939
869 1 -1.1104 9.287 21.3659 6.78436
715 1 -1.1104 6.88042 26.724 0.730648
870 1 -1.1104 9.54309 26.7569 6.56873
865 1 -1.1104 12.3938 23.8984 6.88523
736 2 2.2208 13.5665 22.6332 2.51534
699 1 -1.1104 1.06949 26.8204 3.64562
968 1 -1.1104 6.66709 40.8323 9.52104
692 2 2.2208 5.29168 28.1371 4.88104
702 2 2.2208 2.5543 28.3665 2.06499
740 1 -1.1104 0.913981 29.8491 0.751605
743 1 -1.1104 0.942961 29.5968 3.41585
746 1 -1.1104 0.986747 32.7928 0.944249
747 2 2.2208 5.41475 31.1551 2.13234
749 1 -1.1104 0.979439 32.2175 3.83892
751 1 -1.1104 4.13604 29.6823 0.945832
754 1 -1.1104 3.75179 29.661 3.74203
756 2 2.2208 2.49213 31.1321 5.11111
758 1 -1.1104 3.788 32.5845 0.690468
759 1 -1.1104 3.82638 32.5195 3.54317
895 1 -1.1104 4.29854 29.7844 6.8054
889 1 -1.1104 1.19072 29.6643 6.48891
897 1 -1.1104 4.04316 32.4757 6.4589
1353 2 2.2208 -0.10793 45.0645 -0.414249
711 2 2.2208 -0.179899 25.4679 2.14012
1292 2 2.2208 -0.193038 34.1763 -0.493486
723 1 -1.1104 12.3772 26.9429 1.02171
726 1 -1.1104 12.498 26.7099 3.77469
9346 2 2.2208 -0.406997 25.445 7.79827
763 1 -1.1104 6.97112 29.5816 0.846312
735 1 -1.1104 9.66613 26.5444 3.88554
765 1 -1.1104 6.79902 32.4183 0.890502
764 1 -1.1104 6.76269 29.5701 3.48395
750 1 -1.1104 6.95478 32.6605 3.73355
719 2 2.2208 11.0635 28.1105 5.11998
729 2 2.2208 8.18234 28.2524 2.2623
767 1 -1.1104 12.4475 29.623 0.883632
769 1 -1.1104 12.4427 29.6486 3.80826
771 1 -1.1104 12.4884 32.4606 0.888092
772 2 2.2208 11.1801 31.0515 2.48719
774 1 -1.1104 12.6409 32.4633 3.61518
775 1 -1.1104 9.92204 29.6616 0.893324
778 1 -1.1104 9.52407 29.3729 3.82162
780 2 2.2208 8.10695 30.8466 5.12382
782 1 -1.1104 9.74576 32.3468 0.961722
783 1 -1.1104 9.84856 32.5817 3.74621
894 1 -1.1104 6.90661 32.3953 6.53025
891 1 -1.1104 6.78409 29.5827 6.38187
923 1 -1.1104 12.34 29.5159 6.4889
1564 1 -1.1104 6.96132 46.6329 6.38075
928 1 -1.1104 9.6449 32.3917 6.45816
985 1 -1.1104 9.76707 43.7683 12.5741
739 2 2.2208 5.50073 33.8891 5.11525
741 1 -1.1104 1.38705 35.4879 0.751364
744 1 -1.1104 1.29336 35.1753 3.65318
748 2 2.2208 5.39704 36.7246 2.29233
752 1 -1.1104 3.98707 35.1829 0.576252
753 2 2.2208 2.74673 33.9493 2.12229
755 1 -1.1104 4.37004 35.4849 3.71743
757 2 2.2208 2.7724 36.6098 4.97821
785 2 2.2208 5.49981 39.4541 5.04719