ITEM: TIMESTEP
30000
ITEM: NUMBER OF ATOMS
17640
ITEM: BOX BOUNDS pp pp pp
-4.7615943850116033e-01 2.7816159438500765e+01
-5.7326666282435692e+00 3.3381266662824441e+02
-4.9335102855637175e-01 2.7833351028555917e+01
ITEM: ATOMS id type q x y z
1 2 2.2208 5.42352 -0.122011 5.33511
2 1 -1.1104 1.12857 -4.29752 1.32606
6 1 -1.1104 1.08327 -4.26355 4.06245
10 1 -1.1104 1.25889 -1.56445 0.942691
12 2 2.2208 5.37753 -2.89169 2.27656
14 1 -1.1104 1.3651 -1.5438 3.8733
16 1 -1.1104 4.01228 -4.17199 0.931578
18 2 2.2208 2.4939 -0.181966 2.32304
19 1 -1.1104 3.98849 -4.29229 3.85232
21 2 2.2208 2.70474 -2.86041 5.25208
23 1 -1.1104 4.15404 -1.48905 0.922189
24 1 -1.1104 3.93895 -1.44157 3.86393
15 1 -1.1104 6.58919 -1.62734 3.88861
166 1 -1.1104 1.0541 -4.24252 6.79835
329 2 2.2208 10.7292 19.6964 13.5111
328 2 2.2208 5.65338 14.2752 13.5621
532 2 2.2208 8.17701 17.1388 13.4733
170 1 -1.1104 0.997803 -1.2481 6.62723
172 1 -1.1104 3.96532 -4.02372 6.56649
174 1 -1.1104 3.9853 -1.59738 6.6014
11 1 -1.1104 6.94605 -1.53683 1.06142
8 1 -1.1104 6.91574 -4.36097 3.82965
4 1 -1.1104 6.99737 -4.32236 0.865616
31 2 2.2208 10.9306 -0.129904 5.307
32 1 -1.1104 12.1439 -4.03494 0.810031
34 1 -1.1104 12.6536 -4.39675 3.81727
36 1 -1.1104 12.3609 -1.09906 1.1066
37 2 2.2208 10.9775 -2.85577 2.47936
39 1 -1.1104 12.3141 -1.50908 3.63408
40 1 -1.1104 9.42911 -4.11445 1.28096
42 2 2.2208 8.18938 -0.274266 2.43621
43 1 -1.1104 9.73554 -4.33656 3.78443
45 2 2.2208 8.08306 -2.86364 5.10026
47 1 -1.1104 9.74106 -1.27877 1.05203
48 1 -1.1104 9.49736 -1.60525 3.95844
203 1 -1.1104 12.5806 15.5137 12.0326
205 1 -1.1104 12.4576 -4.39283 6.5521
200 2 2.2208 -0.139583 -2.90194 7.97441
210 1 -1.1104 9.51603 -1.55921 6.46121
171 1 -1.1104 6.84071 -1.7626 6.6949
168 1 -1.1104 6.62793 -4.42378 6.57037
207 1 -1.1104 12.4038 -1.2553 6.57364
29 2 2.2208 -0.159431 8.26448 7.8988
3 1 -1.1104 0.908369 1.1822 1.15337
7 1 -1.1104 1.23613 1.28545 3.83347
13 2 2.2208 5.51017 2.66754 2.48742
17 1 -1.1104 3.9315 1.32405 1.04001
20 1 -1.1104 4.0013 1.27767 3.89668
22 2 2.2208 2.53302 2.82379 5.09114
54 2 2.2208 5.56013 5.27608 5.32187
56 1 -1.1104 1.24398 6.75871 1.02942
58 1 -1.1104 1.11583 7.24583 3.85748
60 1 -1.1104 1.27218 4.11243 0.955669
67 1 -1.1104 1.39594 4.54894 3.83087
72 2 2.2208 2.58345 5.58891 2.39499
74 1 -1.1104 4.01024 6.91153 3.89147
76 1 -1.1104 4.03408 4.41485 0.912244
79 1 -1.1104 3.9621 4.0651 3.8376
5 1 -1.1104 6.78938 1.18352 1.08065
57 1 -1.1104 6.9348 6.89702 1.09618
63 1 -1.1104 6.83202 4.25691 0.837178
167 1 -1.1104 1.19198 1.70179 6.59
239 1 -1.1104 4.00111 4.07532 6.70308
238 1 -1.1104 3.7769 6.76261 6.81582
8211 2 2.2208 8.11122 -5.51852 13.7023
235 1 -1.1104 6.74478 7.12667 6.60971
71 1 -1.1104 4.05414 6.89262 0.940987
83 2 2.2208 -0.229432 11.3328 5.19051
69 1 -1.1104 7.0393 3.99382 3.73695
9 1 -1.1104 6.75542 1.23693 3.74654
59 1 -1.1104 6.67973 6.96434 4.0436
33 1 -1.1104 12.5674 1.4729 0.879478
35 1 -1.1104 12.2963 1.23504 3.84957
38 2 2.2208 10.934 2.69466 2.44911
41 1 -1.1104 9.36111 1.19969 1.13399
44 1 -1.1104 9.70121 1.41417 3.90769
46 2 2.2208 8.25297 2.75664 5.27927
84 2 2.2208 11.0718 5.60001 5.06255
87 1 -1.1104 12.6317 6.92751 3.8346
88 1 -1.1104 12.6795 4.30556 1.06086
92 1 -1.1104 12.4934 4.1676 3.73344
94 1 -1.1104 9.70897 6.98547 0.77318
95 2 2.2208 8.26575 5.69028 2.25989
97 1 -1.1104 9.70646 7.17127 3.77425
99 1 -1.1104 9.52293 4.11733 1.18518
102 1 -1.1104 9.52298 4.46653 3.94895
86 1 -1.1104 12.5027 7.00461 0.955048
265 1 -1.1104 12.2888 7.20026 6.55073
206 1 -1.1104 12.4584 1.41482 6.51457
266 1 -1.1104 12.5087 4.50134 6.43512
237 1 -1.1104 6.83693 4.21194 6.77529
269 1 -1.1104 9.61113 4.18604 6.80437
267 1 -1.1104 9.34023 6.77653 6.48618
209 1 -1.1104 9.84912 1.28846 6.66479
8084 2 2.2208 2.51669 -5.6453 2.52774
55 2 2.2208 5.43809 11.1866 5.12566
61 1 -1.1104 1.19044 9.8245 0.959279
66 2 2.2208 5.3509 8.17913 2.42034
68 1 -1.1104 1.34976 9.89477 3.77246
73 2 2.2208 2.57564 11.3701 2.12011
75 2 2.2208 2.66393 8.38726 5.17788
77 1 -1.1104 3.98313 9.79586 1.07419
80 1 -1.1104 4.0195 9.85784 3.76124
107 1 -1.1104 1.23011 12.7325 0.692483
113 1 -1.1104 1.02474 12.471 3.48835
123 1 -1.1104 3.9873 12.5802 0.856493
128 1 -1.1104 4.0762 12.6115 3.84784
70 1 -1.1104 6.96023 9.77005 3.61568
115 1 -1.1104 7.01475 12.603 3.76124
64 1 -1.1104 6.77418 9.8959 1.08688
62 1 -1.1104 1.32484 9.97776 6.74194
124 1 -1.1104 3.95155 12.4077 6.53641
326 2 2.2208 8.3162 11.2703 13.5699
108 1 -1.1104 0.925017 12.8158 6.35622
289 1 -1.1104 6.82805 15.6442 9.0513
201 2 2.2208 -0.238861 0.106591 10.7047
8086 2 2.2208 -0.137617 -5.71523 5.34611
65 1 -1.1104 7.01311 9.92252 6.6244
110 1 -1.1104 6.78955 12.6953 0.750755
85 2 2.2208 11.1469 11.1558 5.25977
89 1 -1.1104 12.432 9.75621 1.14889
91 2 2.2208 11.3511 8.32382 2.51792
93 1 -1.1104 12.4805 9.88977 3.77502
96 2 2.2208 8.27408 11.3141 2.34995
98 2 2.2208 8.21256 8.53297 5.0404
100 1 -1.1104 9.61433 9.82721 1.11374
103 1 -1.1104 9.69767 9.89699 3.82464
142 1 -1.1104 12.4296 12.5363 0.824785
146 1 -1.1104 12.4583 12.7686 3.4849
153 1 -1.1104 9.64182 12.7151 1.08997
158 1 -1.1104 9.87769 12.9115 3.90358
330 2 2.2208 11.3231 14.101 13.5272
30 2 2.2208 -0.217378 11.1395 10.6328
154 1 -1.1104 9.54844 12.6457 6.63079
130 2 2.2208 2.26922 14.2327 5.07769
119 2 2.2208 5.36201 14.0673 2.35733
106 2 2.2208 5.13922 16.9154 4.90674
109 1 -1.1104 1.08135 18.409 0.888713
114 1 -1.1104 0.990048 17.8042 3.45742
116 1 -1.1104 0.963397 15.4952 1.06286
120 2 2.2208 5.31067 19.7132 2.46046
121 1 -1.1104 0.814644 15.1827 3.83436
125 1 -1.1104 3.95974 18.4517 0.722988
127 2 2.2208 2.442 16.9024 1.94144
129 1 -1.1104 3.75111 18.2472 3.60112
131 2 2.2208 2.65486 19.8186 5.00519
132 1 -1.1104 3.91733 15.7001 0.748966
134 1 -1.1104 3.64801 15.4723 3.62506
122 1 -1.1104 6.69564 15.5788 3.70805
140 1 -1.1104 6.95203 15.5108 1.04306
139 1 -1.1104 6.78704 18.3431 3.71641
118 1 -1.1104 6.78953 15.4006 6.45815
133 1 -1.1104 3.99267 15.3867 6.35374
138 1 -1.1104 6.79912 18.1273 0.76329
150 2 2.2208 11.0463 13.9942 2.40762
160 2 2.2208 8.26435 13.9281 5.15733
141 2 2.2208 10.8913 16.9463 5.00346
144 1 -1.1104 12.1519 18.2769 0.78812
147 1 -1.1104 12.3692 18.6874 3.69816
148 1 -1.1104 12.6601 15.2686 0.915467
151 2 2.2208 10.9963 19.8205 2.19856
152 1 -1.1104 12.4605 15.7414 3.69188
155 1 -1.1104 9.35479 18.3122 0.751293
157 2 2.2208 8.14356 16.906 2.20467
159 1 -1.1104 9.69652 18.482 3.49549
161 2 2.2208 8.07981 19.9064 5.20292
162 1 -1.1104 9.70649 15.1952 0.916506
164 1 -1.1104 9.55631 15.7787 3.53375
149 1 -1.1104 12.4891 15.3805 6.48081
25 2 2.2208 -0.237141 -2.8831 2.65428
312 1 -1.1104 12.5398 18.365 12.2606
156 1 -1.1104 9.43083 18.4273 6.18037
311 2 2.2208 -0.220692 19.7487 7.91095
175 2 2.2208 5.48857 -0.165346 10.9502
176 1 -1.1104 1.31244 -4.12515 12.354
180 1 -1.1104 1.17532 -4.24262 9.4028
184 1 -1.1104 1.17376 -1.24796 12.1927
186 2 2.2208 5.29506 -2.99487 8.10576
188 1 -1.1104 1.27792 -1.24178 9.52639
190 1 -1.1104 3.99531 -4.33349 12.2408
192 2 2.2208 2.72835 -0.0476288 8.14459
193 1 -1.1104 3.93347 -4.4714 9.45432
195 2 2.2208 2.52736 -2.76324 10.8506
197 1 -1.1104 3.99354 -1.52682 12.1034
198 1 -1.1104 3.92823 -1.42169 9.54381
178 1 -1.1104 6.63881 -4.3504 12.1886
559 2 2.2208 2.61781 -2.8931 -0.440203
137 2 2.2208 -0.347497 17.0261 5.02784
208 1 -1.1104 9.65025 -4.375 6.90919
8515 2 2.2208 -0.200852 17.1545 10.6911
81 2 2.2208 -0.204353 5.77249 5.16323
182 1 -1.1104 6.60187 -4.55012 9.44896
185 1 -1.1104 6.73384 -1.45643 12.5342
189 1 -1.1104 6.79683 -1.79444 9.55044
588 2 2.2208 11.029 0.12436 -0.305122
211 2 2.2208 11.0255 -0.142996 10.6518
212 1 -1.1104 12.2094 -4.27971 12.2852
214 1 -1.1104 12.2015 -4.43523 9.38265
216 1 -1.1104 12.7142 -1.54502 12.4595
217 2 2.2208 10.8531 -2.82248 7.84698
219 1 -1.1104 12.351 -1.56701 9.34587
220 1 -1.1104 9.35141 -3.9437 12.2971
222 2 2.2208 8.18634 -0.0974394 8.01912
223 1 -1.1104 9.57112 -4.27742 9.62401
225 2 2.2208 8.0882 -2.92906 10.7983
227 1 -1.1104 9.29469 -1.27585 12.052
228 1 -1.1104 9.41749 -1.33319 9.34609
236 1 -1.1104 1.12838 4.2448 6.72079
28 2 2.2208 -0.162605 5.5543 11.0003
8182 2 2.2208 -0.227758 -5.70749 -0.323488
26 2 2.2208 -0.131746 -0.0394888 5.2242
558 2 2.2208 5.51675 -0.236217 -0.438227
234 1 -1.1104 1.19851 6.91575 6.75428
173 1 -1.1104 4.26589 1.25636 6.70277
177 1 -1.1104 1.25564 1.56052 12.4254
181 1 -1.1104 1.29506 1.37798 9.55751
187 2 2.2208 5.44413 2.72784 8.03868
191 1 -1.1104 3.97046 1.24409 12.3305
194 1 -1.1104 4.0757 1.42793 9.54285
196 2 2.2208 2.59462 2.79658 10.8851
240 2 2.2208 5.29519 5.61887 10.7449
244 1 -1.1104 1.23226 6.86469 9.60843
246 1 -1.1104 1.22767 4.20061 12.3833
251 1 -1.1104 1.04797 3.97833 9.72734
255 1 -1.1104 4.00299 6.91774 12.3247
256 2 2.2208 2.51986 5.41579 8.07041
258 1 -1.1104 4.26099 7.10423 9.47677
260 1 -1.1104 3.98832 4.2233 12.412
262 1 -1.1104 3.99533 4.24445 9.39758
242 1 -1.1104 1.12698 7.00416 12.4201
183 1 -1.1104 6.70173 1.02679 9.28029
169 1 -1.1104 7.01411 1.30301 6.46489
248 1 -1.1104 6.885 4.37843 12.0869
243 1 -1.1104 6.92515 7.095 12.1759
253 1 -1.1104 7.08946 4.15033 9.408
179 1 -1.1104 6.70617 1.34317 12.2212
245 1 -1.1104 7.19998 7.1428 9.34207
213 1 -1.1104 12.4625 1.17423 12.2071
215 1 -1.1104 12.5503 1.29426 9.44266
218 2 2.2208 10.9965 2.79485 8.0673
221 1 -1.1104 9.24848 1.43382 12.4545
224 1 -1.1104 9.50901 1.44648 9.47173
226 2 2.2208 8.22462 3.01899 10.7893
268 1 -1.1104 9.6937 4.24049 9.43354
271 1 -1.1104 9.8901 4.14741 12.2898
273 1 -1.1104 9.84768 7.11395 9.28541
275 2 2.2208 8.26664 5.65051 8.04222
276 2 2.2208 11.0227 5.7745 10.8825
278 1 -1.1104 12.2593 6.82351 12.222
280 1 -1.1104 12.6355 4.19443 12.2196
283 1 -1.1104 12.5329 4.35345 9.34173
285 1 -1.1104 9.74986 7.15733 12.4987
279 1 -1.1104 12.7072 7.14826 9.27813
590 2 2.2208 8.263 2.56929 -0.281391
202 1 -1.1104 12.5912 18.1718 9.18504
27 2 2.2208 -0.314142 2.63736 2.28286
78 1 -1.1104 4.14898 9.75111 6.56023
288 1 -1.1104 6.7639 18.2292 9.27398
8817 2 2.2208 -0.184308 14.1342 13.6219
111 1 -1.1104 6.88465 12.666 6.60806
241 2 2.2208 5.46611 11.4399 10.9057
247 1 -1.1104 1.46596 9.81901 12.258
250 2 2.2208 5.34261 8.24512 8.03341
252 1 -1.1104 1.20292 10.037 9.43699
257 2 2.2208 2.88109 11.3242 7.97345
259 2 2.2208 2.66345 8.51466 10.7839
261 1 -1.1104 4.20955 10.0574 12.0786
263 1 -1.1104 4.19176 9.99568 9.42781
287 1 -1.1104 4.20801 12.8299 12.1431
294 1 -1.1104 1.03377 12.8043 9.35245
299 1 -1.1104 1.22606 12.8255 12.2987
305 1 -1.1104 4.02983 12.7775 9.29448
249 1 -1.1104 7.07052 10.1013 12.2751
297 1 -1.1104 7.06063 12.9271 12.2079
290 1 -1.1104 6.69632 12.9948 9.3508
101 1 -1.1104 9.89959 9.48599 6.50047
90 1 -1.1104 12.5833 9.91801 6.75722
82 2 2.2208 -0.237709 8.56839 2.35153
254 1 -1.1104 6.79182 9.92502 9.53233
143 1 -1.1104 12.4689 12.6671 6.37326
319 1 -1.1104 9.69223 12.503 9.5871
233 1 -1.1104 9.74481 12.8353 12.1127
264 1 -1.1104 9.69063 9.90353 9.37276
270 1 -1.1104 9.92745 9.90161 12.0681
272 2 2.2208 8.34056 8.42657 10.8526
274 2 2.2208 8.09192 11.4648 8.10325
277 2 2.2208 11.1238 11.3716 10.8397
281 1 -1.1104 12.669 9.92214 12.2905
282 2 2.2208 10.9021 8.61765 8.09107
284 1 -1.1104 12.5529 9.79524 9.41974
53 1 -1.1104 12.6909 12.8639 9.24525
105 1 -1.1104 12.8939 12.6912 12.1754
589 2 2.2208 8.4568 -2.77872 -0.298589
649 2 2.2208 8.26659 8.34695 -0.415145
318 1 -1.1104 9.59434 18.5185 8.98409
650 2 2.2208 10.9978 11.161 -0.135827
112 1 -1.1104 6.60168 18.2896 6.60841
560 2 2.2208 2.4813 2.70306 -0.327507
302 1 -1.1104 1.34492 18.6156 6.50248
126 1 -1.1104 4.15504 18.5114 6.37467
117 1 -1.1104 1.08121 15.8059 6.50221
295 2 2.2208 5.42402 14.056 7.66485
309 2 2.2208 2.53762 19.8551 10.6737
308 1 -1.1104 4.27713 15.6518 11.8757
307 1 -1.1104 1.27226 15.657 12.2458
310 2 2.2208 2.38871 14.2206 10.7307
286 1 -1.1104 3.91404 18.4518 12.2229
291 1 -1.1104 1.00666 18.2809 9.19325
292 1 -1.1104 0.877727 15.3745 9.51426
293 2 2.2208 5.32814 19.7719 8.00481
298 1 -1.1104 1.3204 18.3618 12.1882
300 2 2.2208 5.44844 16.8304 10.3937
301 1 -1.1104 3.99001 18.2512 9.40021
303 2 2.2208 2.48974 16.8599 7.68659
304 1 -1.1104 3.73434 15.4979 9.07473
296 1 -1.1104 6.72183 18.5792 12.0848
313 2 2.2208 -0.397595 14.1451 7.98858
405 2 2.2208 11.0183 -2.75156 13.6227
316 2 2.2208 8.22419 19.8449 10.7252
306 1 -1.1104 6.89669 15.631 11.9905
314 1 -1.1104 9.65577 15.4395 9.26172
317 2 2.2208 8.19762 14.131 10.6772
231 2 2.2208 11.0628 19.8825 7.95245
321 1 -1.1104 9.63721 18.2847 12.063
232 1 -1.1104 12.6426 15.5886 9.03903
163 1 -1.1104 9.79298 15.5695 6.39145
145 1 -1.1104 12.3909 18.2688 6.44754
204 2 2.2208 11.0799 14.1647 7.90203
104 2 2.2208 11.1731 16.782 10.6501
320 2 2.2208 8.18936 16.9487 7.74387
315 1 -1.1104 9.69643 15.6349 12.0597
327 2 2.2208 5.30936 19.7187 13.4502
199 2 2.2208 -0.291092 2.8962 8.08443
324 2 2.2208 3.06189 11.4901 13.6096
624 2 2.2208 2.71471 8.37768 -0.302863
371 2 2.2208 5.43786 -2.89641 13.666
135 2 2.2208 -0.461104 14.1096 2.30349
467 2 2.2208 8.24884 5.58408 13.6012
331 2 2.2208 5.45831 -0.128278 16.7781
332 1 -1.1104 1.20738 -4.35745 18.2105
336 1 -1.1104 1.12953 -4.18258 15.3268
344 1 -1.1104 1.02115 -1.74622 17.801
346 2 2.2208 5.18812 -3.08654 19.5615
348 1 -1.1104 1.58014 -1.39142 15.2141
352 1 -1.1104 4.08832 -4.38171 18.0169
354 2 2.2208 2.59278 -0.186814 19.4969
355 1 -1.1104 4.13669 -4.19894 15.0002
359 2 2.2208 2.65541 -2.89662 16.4117
361 1 -1.1104 3.77692 -1.75627 18.0618
362 1 -1.1104 4.27581 -1.37348 15.3248
334 1 -1.1104 6.94567 -4.28067 17.9057
345 1 -1.1104 6.58986 -1.45733 18.0844
9032 2 2.2208 -0.274465 17.0055 16.5074
349 1 -1.1104 0.956729 -1.39299 20.8382
356 1 -1.1104 3.86352 -4.52864 20.6992
341 1 -1.1104 6.71579 -4.69154 20.8319
683 2 2.2208 -0.240314 16.856 22.0005
562 2 2.2208 13.6206 19.815 27.7754
350 1 -1.1104 6.91738 -1.55001 15.4372
340 1 -1.1104 6.86842 -4.20102 15.1183
374 2 2.2208 11.1735 0.0245455 16.4186
375 1 -1.1104 12.4814 -4.32033 17.9474
377 1 -1.1104 12.5281 -4.23761 14.8877
381 1 -1.1104 12.5795 -1.51827 18.0249
382 2 2.2208 10.5937 -2.77896 19.4469
384 1 -1.1104 12.8355 -1.26052 15.1601
386 1 -1.1104 9.63855 -4.12029 17.9689
388 2 2.2208 7.99952 -0.245573 19.4074
389 1 -1.1104 9.76949 -3.97818 15.1359
393 2 2.2208 8.14793 -2.98186 16.502
395 1 -1.1104 9.33748 -1.59238 17.9082
396 1 -1.1104 9.72028 -1.23849 14.8771
385 1 -1.1104 11.8541 -1.46999 21.0612
397 1 -1.1104 9.26764 -1.40382 20.8637
390 1 -1.1104 9.40632 -4.26972 20.9598
378 1 -1.1104 12.1491 -4.28344 20.8963
625 2 2.2208 5.55129 11.2007 27.7389
333 1 -1.1104 1.12646 1.17064 17.9306
338 1 -1.1104 1.00474 1.4205 15.2986
347 2 2.2208 5.46983 2.66054 19.4636
353 1 -1.1104 3.93233 1.1567 18.0406
357 1 -1.1104 3.80567 1.39498 15.2876
360 2 2.2208 2.46436 2.64896 16.7615
407 2 2.2208 5.27801 5.57325 16.6343
411 1 -1.1104 1.03899 7.00702 15.2145
415 1 -1.1104 1.16471 4.06812 18.3254
420 1 -1.1104 1.18071 4.29005 15.5865
428 1 -1.1104 4.04162 6.91054 17.9257
429 2 2.2208 2.60553 5.65057 19.2581
434 1 -1.1104 3.9634 3.96155 17.7978
436 1 -1.1104 4.04154 4.36222 15.0101
431 1 -1.1104 3.86424 6.97779 15.1387
409 1 -1.1104 1.21127 6.99654 17.8739
410 1 -1.1104 6.71175 6.92188 17.8687
342 1 -1.1104 6.88556 1.26922 15.1563
8250 2 2.2208 2.54744 -5.75364 19.2336
437 1 -1.1104 3.86198 4.15259 20.9561
339 1 -1.1104 1.2632 1.13427 20.9435
373 2 2.2208 5.24589 2.90654 13.6935
413 1 -1.1104 6.75397 6.89965 15.1284
417 1 -1.1104 6.90918 4.11106 18.1905
335 1 -1.1104 6.85033 1.33357 18.1164
424 1 -1.1104 6.78916 4.27148 15.3805
376 1 -1.1104 12.383 1.36574 17.6438
379 1 -1.1104 12.5905 1.37135 14.921
383 2 2.2208 11.055 2.7864 19.2402
387 1 -1.1104 9.62567 1.28194 17.9181
391 1 -1.1104 9.66599 1.43388 15.153
394 2 2.2208 8.35112 2.79432 16.6757
443 2 2.2208 10.9378 5.66576 16.4206
445 1 -1.1104 12.506 7.06272 17.8934
446 1 -1.1104 12.4502 7.01295 14.961
448 1 -1.1104 12.5239 4.21186 17.8448
451 1 -1.1104 12.4031 4.12206 14.9506
455 1 -1.1104 9.603 6.80041 17.9908
456 2 2.2208 8.04484 5.46734 19.5004
461 1 -1.1104 9.68459 4.14934 18.0176
463 1 -1.1104 9.75914 4.11871 15.2554
447 1 -1.1104 12.4455 6.78626 20.6442
458 1 -1.1104 9.40855 6.99808 15.1589
464 1 -1.1104 9.4965 3.98768 20.9436
452 1 -1.1104 12.2175 4.07118 20.6816
392 1 -1.1104 9.62914 1.40739 20.7044
459 1 -1.1104 9.53004 6.86668 20.7143
414 1 -1.1104 6.64313 6.9593 20.7578
425 1 -1.1104 6.74677 4.05216 20.9548
380 1 -1.1104 12.5032 1.30869 20.5691
8249 2 2.2208 2.72507 -5.7718 13.8527
684 1 -1.1104 9.53933 15.6593 26.3542
690 1 -1.1104 6.71768 18.2011 26.3195
408 2 2.2208 5.68557 11.2694 16.5166
416 1 -1.1104 1.08777 9.95414 17.904
419 2 2.2208 5.5943 8.44796 19.4372
422 1 -1.1104 1.26178 10.2496 15.0341
430 2 2.2208 2.81847 11.291 19.2902
433 2 2.2208 2.63833 8.41341 16.5041
435 1 -1.1104 4.12613 9.75466 18.0539
438 1 -1.1104 4.04688 9.86434 14.9395
471 1 -1.1104 1.32781 12.9204 17.9401
475 1 -1.1104 1.25685 12.9505 15.1072
491 1 -1.1104 4.06164 12.7429 17.7206
494 1 -1.1104 4.25822 12.543 15.0506
426 1 -1.1104 6.7529 9.90946 14.8281
473 1 -1.1104 6.75446 12.5858 17.9202
495 1 -1.1104 3.93501 12.5589 20.6749
439 1 -1.1104 4.11753 9.70761 20.8536
480 1 -1.1104 6.71407 12.7421 20.6061
8213 2 2.2208 10.9275 -5.63526 16.6573
399 2 2.2208 -0.43333 2.82223 19.577
418 1 -1.1104 6.86135 9.72863 17.9027
479 1 -1.1104 7.10531 12.7762 15.0503
444 2 2.2208 11.1457 11.3613 16.4564
449 1 -1.1104 12.5217 9.77504 17.656
450 2 2.2208 10.9838 8.35446 19.382
453 1 -1.1104 12.3986 9.84998 14.9698
457 2 2.2208 7.99761 11.2184 19.2422
460 2 2.2208 8.13464 8.15587 16.6681
462 1 -1.1104 9.61466 9.63407 18.1755
465 1 -1.1104 9.57964 9.83492 15.2041
507 1 -1.1104 12.499 12.684 18.101
509 1 -1.1104 13.0095 12.5853 15.1357
518 1 -1.1104 9.6738 12.7407 17.6348
521 1 -1.1104 9.94885 12.5585 15.0284
522 1 -1.1104 9.42617 12.4895 20.635
466 1 -1.1104 9.74616 9.71901 20.632
682 2 2.2208 -0.116503 19.9477 24.8215
8145 2 2.2208 2.47102 -5.61727 24.9924
672 1 -1.1104 6.64596 15.8223 23.56
485 2 2.2208 5.35988 14.1229 19.1559
498 2 2.2208 2.7002 14.0607 16.5515
470 2 2.2208 5.34326 17.0119 16.4256
472 1 -1.1104 1.19303 18.4238 17.7976
477 1 -1.1104 1.20827 18.3944 14.9739
483 1 -1.1104 1.27498 15.7237 17.8637
486 2 2.2208 5.51993 19.7172 19.1086
487 1 -1.1104 1.20274 15.7405 15.0811
492 1 -1.1104 3.87244 18.2699 17.8319
493 2 2.2208 2.41043 17.1153 19.3236
496 1 -1.1104 3.98897 18.6119 15.1656
499 2 2.2208 2.60365 19.8131 16.3754
500 1 -1.1104 4.18256 15.4299 17.691
501 1 -1.1104 4.21049 15.6798 14.9622
474 1 -1.1104 6.62595 18.2592 17.7941
484 1 -1.1104 6.86007 15.4292 17.8374
478 1 -1.1104 1.02874 18.2102 20.7321
488 1 -1.1104 1.37368 15.4323 20.636
490 1 -1.1104 6.56614 15.6434 20.6663
9030 2 2.2208 -0.156696 19.7517 19.2166
503 2 2.2208 2.6565 17.0626 13.8044
514 2 2.2208 10.9619 14.0617 19.3835
489 1 -1.1104 6.82909 15.5456 15.0411
481 1 -1.1104 6.9244 18.4857 14.912
525 2 2.2208 8.3607 14.1706 16.3966
506 2 2.2208 11.0707 16.895 16.3201
508 1 -1.1104 12.4537 18.3237 17.9725
511 1 -1.1104 12.4487 18.2237 14.9729
513 1 -1.1104 12.4224 15.4884 18.0642
515 2 2.2208 11.099 19.6783 19.3907
516 1 -1.1104 12.4533 15.4958 15.0034
519 1 -1.1104 9.78756 18.3716 17.6129
520 2 2.2208 8.1963 16.865 19.2269
523 1 -1.1104 9.55183 18.4485 14.8253
526 2 2.2208 8.35148 19.9781 16.4113
527 1 -1.1104 9.60437 15.4841 17.8547
528 1 -1.1104 9.7616 15.6581 14.8239
681 2 2.2208 -0.260274 17.051 27.6785
8251 2 2.2208 5.45528 -5.53426 16.6434
482 1 -1.1104 7.01663 18.6632 20.2245
524 1 -1.1104 9.57701 18.1809 20.6678
657 1 -1.1104 6.63173 15.3044 26.5378
351 1 -1.1104 6.49075 -1.70476 20.8674
325 2 2.2208 11.0319 8.47736 13.7233
365 2 2.2208 -0.307327 14.1268 19.3153
363 1 -1.1104 3.85871 -1.69655 20.7852
337 1 -1.1104 1.13256 -4.23036 20.9745
534 2 2.2208 5.41006 -0.172435 22.2664
535 1 -1.1104 1.19834 -4.27408 23.7073
539 1 -1.1104 1.32147 -3.9209 26.5641
543 1 -1.1104 1.11306 -1.58419 23.8222
545 2 2.2208 5.37101 -2.85761 25.0992
547 1 -1.1104 1.13891 -1.33099 26.6
549 1 -1.1104 4.13494 -4.15401 23.5303
551 2 2.2208 2.58288 0.0312304 25.0755
552 1 -1.1104 3.97698 -4.48029 26.4039
554 2 2.2208 2.53768 -2.84111 22.2228
556 1 -1.1104 4.07213 -1.1831 23.8283
557 1 -1.1104 4.06947 -1.53362 26.5825
548 1 -1.1104 6.73672 -1.4144 26.439
537 1 -1.1104 6.6674 -4.46187 23.7715
364 2 2.2208 -0.142326 5.84279 22.1735
591 2 2.2208 8.08213 19.6685 27.5789
367 2 2.2208 -0.201261 0.083793 16.6033
366 2 2.2208 -0.276964 5.65367 16.7024
531 2 2.2208 8.2659 16.8741 24.9404
677 2 2.2208 2.50123 19.91 27.6893
372 2 2.2208 2.62707 -0.0321328 13.6661
567 2 2.2208 -0.251471 -2.90899 25.1532
541 1 -1.1104 6.74207 -4.14775 26.5528
544 1 -1.1104 6.64261 -1.63732 23.664
570 2 2.2208 10.8902 -0.0197819 22.3362
571 1 -1.1104 12.4786 -4.22898 23.7367
573 1 -1.1104 12.5873 -4.3195 26.3143
575 1 -1.1104 12.3763 -1.38718 23.6395
576 2 2.2208 11.1822 -2.82836 25.0364
578 1 -1.1104 12.2379 -1.65045 26.6027
579 1 -1.1104 9.64552 -4.42155 23.7679
581 2 2.2208 8.26681 0.0654624 25.131
582 1 -1.1104 9.58562 -4.26725 26.6202
584 2 2.2208 8.02783 -2.99941 22.4406
586 1 -1.1104 9.48233 -1.53408 23.7096
587 1 -1.1104 9.69142 -1.44216 26.4943
530 1 -1.1104 9.82153 18.3722 23.4551
568 2 2.2208 -0.321749 -0.110959 22.2176
412 1 -1.1104 1.03408 6.90127 20.6229
358 1 -1.1104 3.88939 1.17175 20.6572
370 2 2.2208 -0.343773 8.47865 19.4045
343 1 -1.1104 6.71613 1.17485 21.0399
421 1 -1.1104 1.19668 4.11011 21.0012
536 1 -1.1104 1.20448 1.44299 23.6182
540 1 -1.1104 1.04652 1.52627 26.5863
546 2 2.2208 5.34328 2.71653 25.0236
550 1 -1.1104 4.0167 1.26769 23.475
553 1 -1.1104 4.2597 1.25367 26.4401
555 2 2.2208 2.31563 2.74127 22.2401
599 2 2.2208 5.37949 5.46249 22.3792
603 1 -1.1104 0.927348 6.9064 26.4589
605 1 -1.1104 0.934314 4.40941 23.6361
610 1 -1.1104 1.02033 4.05656 26.5553
615 2 2.2208 2.54899 5.57501 25.0792
617 1 -1.1104 4.1493 7.12233 26.1844
619 1 -1.1104 3.7533 3.88092 23.7977
621 1 -1.1104 3.83737 4.23088 26.5756
601 1 -1.1104 1.29519 7.20077 23.7941
604 1 -1.1104 6.86485 6.88332 26.4514
612 1 -1.1104 6.65774 4.27516 26.2134
607 1 -1.1104 6.69429 4.06156 23.5429
602 1 -1.1104 6.68072 6.8624 23.516
538 1 -1.1104 6.99437 1.23031 23.7323
614 1 -1.1104 3.75132 6.6189 23.4599
9111 2 2.2208 13.6492 8.42667 22.1507
368 2 2.2208 -0.266765 -2.9072 19.4367
8991 2 2.2208 13.5408 17.1566 19.4378
542 1 -1.1104 6.84632 1.42864 26.671
572 1 -1.1104 12.4491 1.48025 23.6538
574 1 -1.1104 12.4121 1.26651 26.5255
577 2 2.2208 10.8323 2.77716 25.1208
580 1 -1.1104 9.55731 1.42501 23.6012
583 1 -1.1104 9.62626 1.41753 26.3361
585 2 2.2208 8.18318 2.7033 22.1726
631 1 -1.1104 9.59298 4.12521 26.7339
633 1 -1.1104 9.59399 4.25021 23.7659
637 2 2.2208 8.07351 5.53556 24.9544
638 2 2.2208 10.8326 5.41205 22.4596
641 1 -1.1104 12.5426 7.06182 26.3219
642 1 -1.1104 12.3223 4.33182 23.6678
645 1 -1.1104 12.4867 4.1909 26.5014
647 1 -1.1104 9.38571 7.00066 23.3366
640 1 -1.1104 12.3054 7.14429 23.5645
635 1 -1.1104 9.60667 6.85552 26.2954
687 2 2.2208 8.00498 14.2728 22.0118
369 2 2.2208 -0.165964 -2.86786 13.7282
592 2 2.2208 11.2442 16.9598 22.2464
686 2 2.2208 8.17912 19.9984 22.0118
432 1 -1.1104 4.04129 6.79793 20.5893
423 1 -1.1104 1.43098 9.46697 20.6299
476 1 -1.1104 1.19029 12.4816 20.9291
600 2 2.2208 5.30148 11.2133 22.141
606 1 -1.1104 1.22034 9.92755 23.5258
609 2 2.2208 5.53825 8.54308 25.0229
611 1 -1.1104 1.24605 9.96325 26.4244
616 2 2.2208 2.55929 11.3918 25.1497
618 2 2.2208 2.74104 8.34191 22.2042
620 1 -1.1104 4.02181 9.97194 23.803
622 1 -1.1104 4.23188 9.70909 26.5714
656 1 -1.1104 4.013 12.8924 23.6501
660 1 -1.1104 1.20397 12.8117 26.524
666 1 -1.1104 1.16236 12.4888 23.8933
671 1 -1.1104 4.10186 12.5955 26.4144
608 1 -1.1104 6.7386 9.7631 23.6232
655 1 -1.1104 6.70913 12.6052 26.2245
664 1 -1.1104 6.82045 12.835 23.3009
613 1 -1.1104 6.84189 9.66285 26.4534
8926 2 2.2208 -0.142059 11.4425 16.366
427 1 -1.1104 6.74474 9.86655 20.7233
454 1 -1.1104 12.5734 9.65124 20.5738
510 1 -1.1104 12.1648 12.6524 20.716
504 1 -1.1104 12.2747 15.6345 26.3942
689 1 -1.1104 9.58669 12.9453 26.3209
505 1 -1.1104 9.86886 12.5426 23.4605
593 1 -1.1104 12.5728 12.4697 23.5159
630 1 -1.1104 9.3543 9.82196 26.5256
632 1 -1.1104 9.51026 9.85854 23.6905
634 2 2.2208 8.15109 8.47839 22.3183
636 2 2.2208 8.26969 11.3215 24.9958
639 2 2.2208 11.061 11.29 21.944
643 1 -1.1104 12.4497 9.77346 23.6509
644 2 2.2208 11.0285 8.361 25.0714
646 1 -1.1104 12.2832 9.8024 26.7231
440 1 -1.1104 12.3687 12.6274 26.4167
594 1 -1.1104 12.6303 18.3162 23.5415
468 2 2.2208 11.0138 13.933 24.8576
8212 2 2.2208 8.14495 -5.68028 19.5422
469 2 2.2208 11.0755 19.7697 24.9889
502 1 -1.1104 4.04153 15.3789 20.8618
661 1 -1.1104 6.7854 18.3642 23.345
497 1 -1.1104 3.89469 18.1601 20.741
675 2 2.2208 2.40181 19.7568 22.1211
663 2 2.2208 5.49854 14.2195 25.0874
676 2 2.2208 2.45627 14.0235 22.345
654 1 -1.1104 4.01332 18.4684 23.3612
658 1 -1.1104 1.15723 18.3533 26.1369
659 1 -1.1104 1.40226 15.6094 26.518
662 2 2.2208 5.42931 19.7754 24.8858
665 1 -1.1104 1.05206 18.4552 23.3346
667 2 2.2208 5.12184 16.7599 22.0855
668 1 -1.1104 4.05777 18.5256 26.2731
669 2 2.2208 2.66468 17.0883 25.073
670 1 -1.1104 4.00262 15.439 26.4565
673 1 -1.1104 1.13501 15.5088 23.574
674 1 -1.1104 3.92097 15.5458 23.4935
627 2 2.2208 -0.097078 8.35286 25.1
529 1 -1.1104 9.68274 15.3607 20.7234
688 1 -1.1104 9.67391 18.4098 26.3769
442 1 -1.1104 12.4522 15.4623 23.4682
685 1 -1.1104 9.38433 15.0527 23.6905
441 1 -1.1104 12.4012 18.3447 26.2014
517 1 -1.1104 12.7439 15.5251 20.7866
512 1 -1.1104 12.3338 18.2655 20.913
628 2 2.2208 -0.036389 10.9691 22.0595
569 2 2.2208 -0.122168 2.75192 25.0097
679 2 2.2208 2.61489 14.2474 27.8021
629 2 2.2208 -0.342371 5.48445 27.8653
678 2 2.2208 5.22678 16.9088 27.7198
623 2 2.2208 5.4632 5.5035 27.7166
322 2 2.2208 2.31265 5.58723 13.9472
398 2 2.2208 -0.213484 2.6625 13.8638
565 2 2.2208 10.9383 17.0886 27.6323
626 2 2.2208 -0.189175 11.3688 27.7264
8813 2 2.2208 -0.143974 8.42827 13.7644
596 2 2.2208 13.5745 -2.87519 22.1367
8181 2 2.2208 -0.251722 -5.60224 22.4231
566 2 2.2208 -0.493789 -0.228413 27.7905
648 2 2.2208 11.2335 5.63091 27.7388
8818 2 2.2208 -0.26708 19.9285 13.6756
406 2 2.2208 11.0899 2.70871 13.7584
564 2 2.2208 8.13865 14.2072 27.7817
323 2 2.2208 5.45488 8.63502 13.7068
404 2 2.2208 8.10351 -0.0770681 13.8332
691 2 2.2208 5.43968 22.6101 5.38545
693 1 -1.1104 0.938627 24.3204 0.564594
694 1 -1.1104 0.976626 23.9689 3.52373
695 1 -1.1104 0.941827 21.3012 0.860323
697 2 2.2208 5.43551 25.4349 2.29499
698 1 -1.1104 1.14437 20.8722 3.50974
700 1 -1.1104 4.00228 23.9963 0.767892
701 2 2.2208 2.40938 22.549 2.29038
703 1 -1.1104 3.93638 23.9734 3.66393
704 2 2.2208 2.43164 25.3758 5.03988
705 1 -1.1104 3.68997 21.4269 0.903919
707 1 -1.1104 3.88787 21.2492 3.70834
699 1 -1.1104 1.02678 26.8077 3.69276
708 1 -1.1104 3.8709 26.8892 3.63139
713 1 -1.1104 6.96423 24.0837 3.7563
714 1 -1.1104 6.55273 21.0331 0.918779
834 1 -1.1104 1.31474 21.2423 6.58227
839 1 -1.1104 3.9184 21.167 6.35584
837 1 -1.1104 6.76628 27.2849 6.75411
838 1 -1.1104 3.76642 23.9167 6.55538
712 1 -1.1104 6.91887 23.8857 0.759539
716 1 -1.1104 6.73139 21.2891 3.88663
715 1 -1.1104 6.62721 26.9722 1.04195
717 1 -1.1104 6.80332 26.839 3.67923
718 2 2.2208 11.1631 22.761 5.2884
720 1 -1.1104 12.3065 23.8591 0.746984
721 1 -1.1104 12.3767 24.2315 3.61103
722 1 -1.1104 12.2703 21.1911 0.73215
724 2 2.2208 10.931 25.6188 2.2798
725 1 -1.1104 12.4929 21.362 3.9409
727 1 -1.1104 9.58803 24.1849 0.956783
728 2 2.2208 8.15531 22.523 2.20862
730 1 -1.1104 9.77331 24.4482 3.93157
731 2 2.2208 8.29722 25.6434 5.38136
732 1 -1.1104 9.40439 21.2611 0.584702
734 1 -1.1104 9.60181 21.5527 3.50265
735 1 -1.1104 9.63733 26.9264 3.66147
726 1 -1.1104 12.2702 27.0662 3.62829
723 1 -1.1104 12.5949 26.6958 0.912798
733 1 -1.1104 9.41039 27.1582 0.873461
869 1 -1.1104 9.34001 21.0515 6.63563
868 1 -1.1104 9.50696 24.1845 6.76437
865 1 -1.1104 12.4493 23.8227 6.78224
870 1 -1.1104 9.7264 26.7209 6.62567
987 2 2.2208 8.15748 42.3607 10.8461
836 1 -1.1104 6.71881 21.018 6.47494
833 1 -1.1104 6.8382 24.1861 6.62056
866 1 -1.1104 12.3331 21.1379 6.56706
9310 2 2.2208 13.5825 28.4453 7.84567
706 1 -1.1104 4.01094 26.7988 1.01432
696 1 -1.1104 1.12521 26.8275 1.15337
692 2 2.2208 5.30603 28.4078 5.10042
702 2 2.2208 2.56493 28.2981 2.3717
740 1 -1.1104 1.30009 29.6302 1.08146
743 1 -1.1104 1.23649 29.7029 3.75725
746 1 -1.1104 1.08139 32.5428 0.835469
747 2 2.2208 5.30794 31.2965 2.34916
749 1 -1.1104 0.875459 32.6665 3.45715
751 1 -1.1104 4.17129 29.9452 0.948677
754 1 -1.1104 4.039 29.8816 3.84953
756 2 2.2208 2.49309 31.3097 4.9295
758 1 -1.1104 3.9125 32.6069 1.03111
759 1 -1.1104 3.95237 32.5571 3.76564
750 1 -1.1104 6.69211 32.4723 3.99086
894 1 -1.1104 6.42567 32.7716 6.58582
895 1 -1.1104 3.64099 29.7391 6.57469
897 1 -1.1104 3.56538 32.7363 6.52236
765 1 -1.1104 6.64419 32.5446 0.987828
9485 2 2.2208 13.5104 34.1264 13.5699
840 1 -1.1104 4.00815 26.8568 6.50203
891 1 -1.1104 6.37218 29.8748 6.52482
867 1 -1.1104 12.3164 26.6543 6.44437
763 1 -1.1104 7.02826 29.6742 1.01516
764 1 -1.1104 6.58958 30.0417 3.72585
719 2 2.2208 10.8207 28.2965 5.19118
729 2 2.2208 8.24853 28.3244 2.40723
767 1 -1.1104 12.4448 29.4352 0.675527
769 1 -1.1104 12.1853 30.0895 3.16431
771 1 -1.1104 12.3216 32.5531 1.06419
772 2 2.2208 10.7217 31.3058 2.20225
774 1 -1.1104 12.2778 32.6728 4.03129
775 1 -1.1104 9.7496 29.9623 0.785999
778 1 -1.1104 9.55379 29.6313 3.75349
780 2 2.2208 7.76496 31.0895 5.26004
782 1 -1.1104 9.38979 32.6462 0.670577
783 1 -1.1104 9.4135 32.5989 3.91028
928 1 -1.1104 9.36148 32.5781 6.90558
923 1 -1.1104 12.2327 29.7193 6.38347
925 1 -1.1104 12.3773 32.7731 6.64017
1117 2 2.2208 2.5251 34.1287 13.6732
1008 2 2.2208 7.96552 22.656 13.4864
9345 2 2.2208 -0.259353 28.5179 10.7249
926 1 -1.1104 9.368 29.6724 6.43003
739 2 2.2208 5.15087 34.1586 5.02042
741 1 -1.1104 0.711767 35.3927 1.13365
744 1 -1.1104 0.987543 35.2961 3.93324
748 2 2.2208 5.20241 36.7913 2.45549
752 1 -1.1104 3.80878 35.3308 0.829462
753 2 2.2208 2.29309 34.2189 2.25055
755 1 -1.1104 3.6919 35.578 3.52016
757 2 2.2208 2.23566 36.8167 5.18927