ITEM: TIMESTEP
420000
ITEM: NUMBER OF ATOMS
18000
ITEM: BOX BOUNDS xy xz yz pp pp pp
-2.1640044095445449e-01 2.8110400440952741e+01 0.0000000000000000e+00
-2.7304372206543928e+00 3.3745843722061085e+02 0.0000000000000000e+00
-2.3090509296906458e-01 2.8124905092967918e+01 0.0000000000000000e+00
ITEM: ATOMS id type q mass x y z
334 2 2.2208 232.038 5.65049 5.60326 13.9524
324 1 -1.1104 15.9994 12.7392 4.31538 12.3885
9041 2 2.2208 232.038 13.9327 5.53206 5.42399
4 1 -1.1104 15.9994 12.6365 20.9822 12.6543
323 1 -1.1104 15.9994 9.8897 7.07892 12.3535
322 1 -1.1104 15.9994 6.83919 6.97966 12.4789
8994 2 2.2208 232.038 -0.1014 5.50566 8.42473
8 2 2.2208 232.038 5.61187 -0.00829254 2.56724
9 1 -1.1104 15.9994 12.7869 7.23435 12.283
10 2 2.2208 232.038 11.2547 -0.116637 2.52092
11 1 -1.1104 15.9994 9.68561 21.3507 12.4142
321 1 -1.1104 15.9994 9.79826 4.21365 12.4273
13 2 2.2208 232.038 2.84521 3.05763 2.53421
14 1 -1.1104 15.9994 6.86659 21.34 12.6943
374 2 2.2208 232.038 11.3554 20.0039 -0.152008
8983 2 2.2208 232.038 -0.00567035 8.52781 11.0197
17 2 2.2208 232.038 8.48824 2.81644 2.59684
18 2 2.2208 232.038 5.66925 5.61882 2.47528
9003 2 2.2208 232.038 0.031539 -2.74373 5.56993
20 2 2.2208 232.038 11.1972 5.91025 2.32505
21 1 -1.1104 15.9994 4.3727 21.4889 12.6752
22 1 -1.1104 15.9994 1.45781 15.8772 12.5497
23 2 2.2208 232.038 2.85138 8.49771 2.41787
320 1 -1.1104 15.9994 7.06012 4.26745 12.3851
336 2 2.2208 232.038 2.78539 8.73569 13.8962
671 2 2.2208 232.038 8.38947 17.1413 -0.246312
27 2 2.2208 232.038 8.2207 8.68198 2.66094
28 2 2.2208 232.038 5.60097 11.2453 2.70528
81 2 2.2208 232.038 0.14149 14.1594 5.49179
30 2 2.2208 232.038 11.1383 11.4799 2.657
31 1 -1.1104 15.9994 12.7743 12.8633 12.5198
32 1 -1.1104 15.9994 12.7291 10.0874 12.3914
33 2 2.2208 232.038 2.64743 14.0879 2.47922
9688 2 2.2208 232.038 0.0121828 8.51789 -0.167247
35 1 -1.1104 15.9994 9.78256 12.7021 12.4626
36 1 -1.1104 15.9994 6.89101 12.7992 12.6386
37 2 2.2208 232.038 8.46881 14.2771 2.71728
38 2 2.2208 232.038 5.6142 17.2051 2.73921
39 1 -1.1104 15.9994 9.60863 9.97743 12.6603
40 2 2.2208 232.038 11.1525 17.322 2.44532
41 1 -1.1104 15.9994 6.80109 9.94508 12.4592
42 1 -1.1104 15.9994 4.004 12.964 12.599
43 2 2.2208 232.038 2.49481 19.8375 2.56933
319 1 -1.1104 15.9994 4.22327 7.13412 12.6856
45 1 -1.1104 15.9994 1.34727 12.9322 12.65
46 1 -1.1104 15.9994 4.00872 10.0391 12.6958
47 2 2.2208 232.038 8.33917 20.0706 2.62704
48 2 2.2208 232.038 5.50622 22.6646 2.77703
49 1 -1.1104 15.9994 1.29751 10.0029 12.57
50 2 2.2208 232.038 11.3041 22.8135 2.80399
51 1 -1.1104 15.9994 1.33774 21.3009 12.5324
52 2 2.2208 232.038 2.78026 0.049531 5.27821
26 2 2.2208 232.038 8.50862 11.4233 -0.150503
54 1 -1.1104 15.9994 12.8643 18.1337 12.3744
84 2 2.2208 232.038 -0.0237467 17.1434 7.97771
56 2 2.2208 232.038 8.53963 -0.119323 5.38235
8984 2 2.2208 232.038 0.215909 3.12969 11.2337
58 2 2.2208 232.038 5.71085 0.140352 8.40465
8981 2 2.2208 232.038 0.0110664 14.3802 11.2584
60 2 2.2208 232.038 11.3607 0.0730903 8.31389
61 1 -1.1104 15.9994 12.4882 15.5504 12.6219
62 2 2.2208 232.038 2.77842 5.76417 5.60375
63 2 2.2208 232.038 3.02328 3.0934 8.13345
64 1 -1.1104 15.9994 10.0367 18.4099 12.7213
65 2 2.2208 232.038 5.60222 2.87207 5.26045
66 2 2.2208 232.038 8.28688 5.76955 5.2106
67 2 2.2208 232.038 8.43313 2.9311 8.18883
68 2 2.2208 232.038 5.65137 5.89333 8.39157
69 2 2.2208 232.038 11.315 2.62188 5.22336
70 2 2.2208 232.038 11.2983 5.78923 8.17576
71 1 -1.1104 15.9994 6.92158 18.3033 12.7459
72 2 2.2208 232.038 2.82592 11.4043 5.42762
73 2 2.2208 232.038 2.73963 8.6544 8.26806
74 1 -1.1104 15.9994 9.51188 15.6044 12.5364
75 2 2.2208 232.038 5.44362 8.4876 5.51569
76 2 2.2208 232.038 8.18464 11.5736 5.54626
77 2 2.2208 232.038 8.30265 8.59897 8.01924
78 2 2.2208 232.038 5.56019 11.3274 8.26121
79 2 2.2208 232.038 11.1108 8.56592 5.37062
80 2 2.2208 232.038 11.2965 11.5008 8.3003
318 1 -1.1104 15.9994 1.44668 7.24983 12.7908
82 2 2.2208 232.038 2.75499 17.0142 5.44251
83 2 2.2208 232.038 2.81941 14.2273 8.32115
8988 2 2.2208 232.038 -0.040159 11.361 8.18421
85 2 2.2208 232.038 5.64048 14.4241 5.46768
86 2 2.2208 232.038 8.51322 17.2725 5.4485
87 2 2.2208 232.038 8.33104 14.2604 8.51424
88 2 2.2208 232.038 5.67344 17.1338 8.28653
89 2 2.2208 232.038 11.3572 14.3969 5.16786
90 2 2.2208 232.038 11.4871 17.046 8.08666
325 2 2.2208 232.038 5.64726 2.69434 -0.330429
92 2 2.2208 232.038 2.75553 22.6782 5.62343
93 2 2.2208 232.038 2.6567 19.8025 8.43711
57 2 2.2208 232.038 8.48245 -2.58415 8.11913
95 2 2.2208 232.038 5.34073 20.0039 5.63227
96 2 2.2208 232.038 8.25902 22.6842 5.52477
97 2 2.2208 232.038 8.2166 19.9554 8.40797
98 2 2.2208 232.038 5.524 22.7118 8.31715
99 2 2.2208 232.038 11.3249 19.8435 5.38059
100 2 2.2208 232.038 11.3284 22.5818 8.45095
101 1 -1.1104 15.9994 6.87062 15.5397 12.6899
102 2 2.2208 232.038 2.89909 0.12789 11.2297
3 2 2.2208 232.038 2.82943 -2.68988 2.59641
104 2 2.2208 232.038 8.50989 -0.0911818 11.1484
9161 1 -1.1104 15.9994 1.66736 9.99598 3.77293
106 1 -1.1104 15.9994 4.04811 18.6053 12.6506
107 2 2.2208 232.038 3.01443 5.87168 11.2297
108 2 2.2208 232.038 5.97908 3.03529 10.9843
109 2 2.2208 232.038 8.44672 5.89126 11.0862
110 2 2.2208 232.038 11.1729 2.86118 11.1081
111 1 -1.1104 15.9994 1.27843 18.5436 12.4635
112 2 2.2208 232.038 2.71894 11.6668 11.2244
113 2 2.2208 232.038 5.5815 8.65303 11.1612
114 2 2.2208 232.038 8.43306 11.3643 11.193
115 2 2.2208 232.038 11.2862 8.56202 11.0766
116 1 -1.1104 15.9994 3.96861 15.8092 12.4772
117 2 2.2208 232.038 2.75328 17.122 11.0544
118 2 2.2208 232.038 5.41581 14.3087 11.0794
119 2 2.2208 232.038 8.28606 17.2742 11.2826
120 2 2.2208 232.038 11.2235 14.3549 11.1375
341 2 2.2208 232.038 2.76773 14.1755 14.0073
122 2 2.2208 232.038 2.87394 22.7055 11.5055
123 2 2.2208 232.038 5.57516 19.9937 11.4429
124 2 2.2208 232.038 8.1227 22.7066 11.2833
125 2 2.2208 232.038 11.4301 19.7066 11.3178
126 1 -1.1104 15.9994 1.58117 -1.06791 1.16809
127 1 -1.1104 15.9994 4.26033 -1.39387 1.08765
128 1 -1.1104 15.9994 1.34714 -1.24941 3.75027
129 1 -1.1104 15.9994 4.16822 -1.25182 3.98527
130 1 -1.1104 15.9994 1.53871 1.6685 0.975918
131 1 -1.1104 15.9994 4.21759 1.45418 1.25203
132 1 -1.1104 15.9994 1.41397 1.55486 3.87852
133 1 -1.1104 15.9994 4.13575 1.57202 3.92649
134 1 -1.1104 15.9994 7.16753 -1.60923 1.31117
135 1 -1.1104 15.9994 10.0288 -1.54173 0.883971
136 1 -1.1104 15.9994 6.91929 -1.62068 4.057
137 1 -1.1104 15.9994 10.1005 -1.66359 3.87627
138 1 -1.1104 15.9994 6.95094 1.31579 1.11602
139 1 -1.1104 15.9994 9.7399 1.29508 1.17888
140 1 -1.1104 15.9994 7.20901 1.33685 3.72491
141 1 -1.1104 15.9994 10.0637 1.21976 3.90066
142 1 -1.1104 15.9994 12.7731 -1.41681 1.10509
143 1 -1.1104 15.9994 12.7183 -1.31002 4.29723
144 1 -1.1104 15.9994 12.6727 1.61059 0.85923
145 1 -1.1104 15.9994 12.8431 1.48163 3.71682
146 1 -1.1104 15.9994 1.60145 4.38024 1.22309
147 1 -1.1104 15.9994 4.42679 4.23239 1.35851
148 1 -1.1104 15.9994 1.43418 4.26573 4.16803
149 1 -1.1104 15.9994 3.98369 4.38378 3.94921
150 1 -1.1104 15.9994 1.45428 7.09572 1.03484
151 1 -1.1104 15.9994 4.24779 7.09263 1.20909
152 1 -1.1104 15.9994 1.53549 7.32937 7.15915
153 1 -1.1104 15.9994 4.10738 7.08359 4.16667
154 1 -1.1104 15.9994 7.33799 4.13577 1.0775
155 1 -1.1104 15.9994 9.91566 4.4707 1.01225
156 1 -1.1104 15.9994 6.88647 4.24451 3.93559
157 1 -1.1104 15.9994 9.65357 4.28041 4.0003
158 1 -1.1104 15.9994 7.03759 7.03436 1.09056
159 1 -1.1104 15.9994 9.97857 7.32335 1.21804
160 1 -1.1104 15.9994 6.79457 7.04673 3.98019
161 1 -1.1104 15.9994 9.57559 7.26047 3.87888
162 1 -1.1104 15.9994 12.7872 4.50971 1.02192
163 1 -1.1104 15.9994 12.3959 4.22881 4.0691
164 1 -1.1104 15.9994 12.9456 7.0723 1.2721
165 1 -1.1104 15.9994 12.5938 6.91903 3.95902
166 1 -1.1104 15.9994 1.44641 9.90958 0.988605
167 1 -1.1104 15.9994 4.40867 9.87583 1.1562
168 1 -1.1104 15.9994 1.19199 7.09791 4.04897
169 1 -1.1104 15.9994 4.21143 9.77928 3.97493
170 1 -1.1104 15.9994 1.27482 12.6702 1.09197
171 1 -1.1104 15.9994 4.26382 12.544 1.06004
172 1 -1.1104 15.9994 1.24551 12.6546 4.26255
173 1 -1.1104 15.9994 4.05278 12.7657 3.9681
174 1 -1.1104 15.9994 7.14293 10.0064 1.23874
175 1 -1.1104 15.9994 9.83135 10.3306 1.30659
176 1 -1.1104 15.9994 6.98968 9.92853 4.20062
177 1 -1.1104 15.9994 9.8081 10.2206 4.17878
178 1 -1.1104 15.9994 7.12823 12.7306 1.42005
179 1 -1.1104 15.9994 13.1516 12.465 1.34647
180 1 -1.1104 15.9994 6.70461 12.6443 4.04286
181 1 -1.1104 15.9994 9.73542 13.0676 3.92995
182 1 -1.1104 15.9994 12.9081 9.61421 1.19488
183 1 -1.1104 15.9994 12.7547 9.69499 4.0915
677 1 -1.1104 15.9994 10.3026 13.1137 1.37134
185 1 -1.1104 15.9994 12.5548 12.7702 4.07775
186 1 -1.1104 15.9994 1.39106 15.3554 1.14254
187 1 -1.1104 15.9994 4.51757 15.6627 1.06281
188 1 -1.1104 15.9994 1.56921 15.6081 3.85321
189 1 -1.1104 15.9994 4.19747 15.7849 3.94519
190 1 -1.1104 15.9994 1.25377 18.2737 1.15407
191 1 -1.1104 15.9994 4.01641 18.4188 1.22586
192 1 -1.1104 15.9994 1.55569 18.6297 4.22689
193 1 -1.1104 15.9994 4.29599 18.7774 4.01333
194 1 -1.1104 15.9994 7.38392 15.5692 1.27796
195 1 -1.1104 15.9994 9.89686 15.8568 1.10143
196 1 -1.1104 15.9994 7.04763 15.6346 4.24897
197 1 -1.1104 15.9994 9.68292 15.8005 3.89371
198 1 -1.1104 15.9994 6.94874 18.5865 1.24407
199 1 -1.1104 15.9994 9.86405 18.7268 1.07124
200 1 -1.1104 15.9994 7.10329 18.5687 3.98537
201 1 -1.1104 15.9994 9.93063 18.5867 3.99936
202 1 -1.1104 15.9994 12.7619 15.5615 1.23978
203 1 -1.1104 15.9994 12.4662 15.9116 3.93004
204 1 -1.1104 15.9994 13.0591 18.534 0.970578
205 1 -1.1104 15.9994 12.5715 18.6773 3.92685
206 1 -1.1104 15.9994 1.11532 21.3478 1.1588
207 1 -1.1104 15.9994 4.02394 21.206 1.50209
208 1 -1.1104 15.9994 1.17317 21.3164 4.16211
209 1 -1.1104 15.9994 3.97743 21.383 4.13633
210 1 -1.1104 15.9994 7.10502 21.4346 1.26261
211 1 -1.1104 15.9994 9.95409 21.3325 1.05443
212 1 -1.1104 15.9994 6.67749 21.4064 4.21022
213 1 -1.1104 15.9994 9.75978 21.4347 3.85736
214 1 -1.1104 15.9994 12.693 21.3366 1.48707
215 1 -1.1104 15.9994 12.4843 21.4623 4.40457
216 1 -1.1104 15.9994 1.53158 -1.28873 6.92853
217 1 -1.1104 15.9994 4.46119 -1.32716 6.66232
218 1 -1.1104 15.9994 1.61296 -1.30376 12.405
219 1 -1.1104 15.9994 4.20051 -1.07248 9.48915
220 1 -1.1104 15.9994 1.44499 1.56171 6.54988
221 1 -1.1104 15.9994 4.16132 1.41953 6.65794
222 1 -1.1104 15.9994 1.6282 -1.42036 9.87144
223 1 -1.1104 15.9994 4.1979 1.73421 9.54646
224 1 -1.1104 15.9994 7.15153 -1.40462 6.84781
225 1 -1.1104 15.9994 9.98236 -1.45449 6.7371
226 1 -1.1104 15.9994 7.20389 -1.16596 9.69405
227 1 -1.1104 15.9994 9.79692 -1.21216 9.52915
228 1 -1.1104 15.9994 6.84287 1.41416 6.77893
229 1 -1.1104 15.9994 9.8674 1.28873 6.70221
230 1 -1.1104 15.9994 7.26911 1.36111 9.56746
231 1 -1.1104 15.9994 9.9963 1.61712 9.68826
232 1 -1.1104 15.9994 12.9577 -1.2162 6.94684
233 1 -1.1104 15.9994 12.5217 -1.49771 9.71282
234 1 -1.1104 15.9994 12.5729 1.42564 6.66778
235 1 -1.1104 15.9994 12.8473 1.21827 9.62261
236 1 -1.1104 15.9994 1.4885 4.32789 9.89851
237 1 -1.1104 15.9994 4.31043 4.44048 6.80098
238 1 -1.1104 15.9994 1.59065 1.56705 9.6296
239 1 -1.1104 15.9994 4.18136 4.43797 9.6731
240 1 -1.1104 15.9994 1.47021 4.41237 6.9387
241 1 -1.1104 15.9994 4.28141 7.16998 6.94836
242 1 -1.1104 15.9994 1.38526 7.11637 9.91469
243 1 -1.1104 15.9994 4.35078 7.27213 9.76897
244 1 -1.1104 15.9994 6.99733 4.51935 6.9225
245 1 -1.1104 15.9994 9.99682 4.27764 6.7427
246 1 -1.1104 15.9994 7.04501 4.34412 9.53387
247 1 -1.1104 15.9994 9.75687 4.77777 9.70474
248 1 -1.1104 15.9994 7.11833 7.01251 6.7735
249 1 -1.1104 15.9994 9.72671 7.12466 6.84464
250 1 -1.1104 15.9994 6.97952 7.17777 9.69542
251 1 -1.1104 15.9994 9.76183 7.44718 9.59589
252 1 -1.1104 15.9994 12.8779 4.16565 6.71704
253 1 -1.1104 15.9994 12.685 4.43128 9.57558
254 1 -1.1104 15.9994 12.4889 7.29063 6.72292
255 1 -1.1104 15.9994 12.5572 7.16965 9.46285
256 1 -1.1104 15.9994 1.31792 9.91457 6.71208
257 1 -1.1104 15.9994 4.08722 10.0249 6.87859
258 1 -1.1104 15.9994 1.29954 9.98288 9.72
259 1 -1.1104 15.9994 4.0777 10.0438 9.75106
260 1 -1.1104 15.9994 1.45474 12.7815 7.21717
261 1 -1.1104 15.9994 4.17043 12.8245 6.87231
262 1 -1.1104 15.9994 1.36586 12.8227 9.68763
263 1 -1.1104 15.9994 4.12759 12.8021 9.70651
264 1 -1.1104 15.9994 6.96888 9.87935 6.91356
265 1 -1.1104 15.9994 9.73501 10.0644 7.04153
266 1 -1.1104 15.9994 7.07766 10.101 9.8048
267 1 -1.1104 15.9994 9.96105 10.1307 9.97214
268 1 -1.1104 15.9994 6.91156 12.894 6.98248
269 1 -1.1104 15.9994 9.71667 13.1197 6.7102
270 1 -1.1104 15.9994 7.19296 12.9204 9.86264
271 1 -1.1104 15.9994 10.0484 13.0103 9.67452
272 1 -1.1104 15.9994 12.4241 9.93813 6.81278
273 1 -1.1104 15.9994 12.7008 10.1445 9.73023
274 1 -1.1104 15.9994 12.5594 12.7076 7.04601
275 1 -1.1104 15.9994 12.9682 12.8594 9.82069
276 1 -1.1104 15.9994 1.62175 15.7756 6.76156
277 1 -1.1104 15.9994 4.2144 15.6448 6.95703
278 1 -1.1104 15.9994 1.574 15.6066 9.79506
279 1 -1.1104 15.9994 4.29676 15.7371 9.66051
280 1 -1.1104 15.9994 1.4946 18.4288 6.9555
281 1 -1.1104 15.9994 4.20229 18.4495 7.00996
282 1 -1.1104 15.9994 1.05375 18.4266 9.56553
283 1 -1.1104 15.9994 4.13297 18.4795 9.60851
284 1 -1.1104 15.9994 6.86798 15.7483 7.00416
285 1 -1.1104 15.9994 9.98715 15.8831 6.56729
286 1 -1.1104 15.9994 7.10602 15.7235 9.78051
287 1 -1.1104 15.9994 10.0327 15.8009 9.50715
288 1 -1.1104 15.9994 7.055 18.7082 7.07944
289 1 -1.1104 15.9994 9.95276 18.6107 6.79677
290 1 -1.1104 15.9994 6.97144 18.482 9.89634
291 1 -1.1104 15.9994 9.65787 18.7715 9.92838
292 1 -1.1104 15.9994 12.8904 15.4708 6.55211
293 1 -1.1104 15.9994 12.8156 15.6188 9.40269
294 1 -1.1104 15.9994 12.8331 18.3675 6.9004
295 1 -1.1104 15.9994 12.646 18.5603 9.72421
296 1 -1.1104 15.9994 1.23474 21.2412 6.76873
297 1 -1.1104 15.9994 3.99629 21.2045 7.08438
298 1 -1.1104 15.9994 1.39264 21.48 9.8092
299 1 -1.1104 15.9994 4.10324 21.1372 9.85617
300 1 -1.1104 15.9994 6.91165 21.3533 6.87757
301 1 -1.1104 15.9994 9.61888 21.2874 6.93722
302 1 -1.1104 15.9994 6.78869 21.3021 9.8402
303 1 -1.1104 15.9994 9.4395 21.6609 9.74341
304 1 -1.1104 15.9994 12.5579 21.0748 6.94426
305 1 -1.1104 15.9994 12.5803 21.2324 9.68068
121 2 2.2208 232.038 -0.0438853 19.8594 11.1953
307 1 -1.1104 15.9994 4.42937 -1.76859 12.891
308 1 -1.1104 15.9994 1.71584 1.55535 12.5041
309 1 -1.1104 15.9994 4.29529 0.94146 12.5489
310 1 -1.1104 15.9994 7.02252 -1.30574 12.2435
311 1 -1.1104 15.9994 9.69489 -1.32457 12.6523
312 1 -1.1104 15.9994 7.28116 1.53139 12.5144
313 1 -1.1104 15.9994 9.90326 1.4544 12.4605
314 1 -1.1104 15.9994 12.5936 -1.28564 12.3689
315 1 -1.1104 15.9994 12.8088 1.33066 12.5089
316 1 -1.1104 15.9994 1.71996 4.13793 12.88
317 1 -1.1104 15.9994 4.42736 4.20315 12.5499
333 2 2.2208 232.038 8.54892 2.93516 14.0571
91 2 2.2208 232.038 -0.00434635 19.7924 5.52823
672 2 2.2208 232.038 11.3266 14.2645 -0.212954
673 2 2.2208 232.038 0.00265243 19.7824 -0.142564
9004 2 2.2208 232.038 -0.0496534 5.8056 2.40377
9007 2 2.2208 232.038 0.136206 0.101373 2.46991
9663 2 2.2208 232.038 -0.16152 11.4133 13.8905
103 2 2.2208 232.038 5.7323 -2.72611 11.0594
8998 2 2.2208 232.038 -0.00769863 0.224687 8.24682
24 2 2.2208 232.038 0.0509871 11.3573 2.60131
94 2 2.2208 232.038 -0.0386972 22.6323 8.65454
8987 2 2.2208 232.038 -0.147032 -2.75686 10.9873
661 2 2.2208 232.038 8.42106 -0.0878798 -0.274658
105 2 2.2208 232.038 11.1934 -2.71667 11.1047
9052 2 2.2208 232.038 13.8687 8.53739 8.13731
8991 2 2.2208 232.038 13.9398 11.4844 5.43191
44 2 2.2208 232.038 -0.161291 22.626 2.86509
34 2 2.2208 232.038 0.00508519 16.9918 2.61498
8997 2 2.2208 232.038 -0.0056646 2.98868 5.1695
8993 2 2.2208 232.038 -0.0828656 8.50074 5.32308
340 2 2.2208 232.038 11.31 11.4687 13.8685
348 2 2.2208 232.038 8.58312 19.8456 13.9388
674 2 2.2208 232.038 2.79986 22.6674 0.0347522
335 2 2.2208 232.038 11.194 5.63565 13.76
338 2 2.2208 232.038 8.4491 8.39727 13.8336
25 2 2.2208 232.038 5.61926 8.67673 -0.0975338
9661 2 2.2208 232.038 0.229543 0.149616 13.7858
670 2 2.2208 232.038 5.76408 14.0512 -0.179013
29 2 2.2208 232.038 11.2982 8.59942 0.0189611
675 2 2.2208 232.038 5.41979 19.846 -0.122707
669 2 2.2208 232.038 2.92055 16.943 -0.105238
9668 2 2.2208 232.038 0.0964589 5.88068 19.4773
327 1 -1.1104 15.9994 6.91806 21.4045 26.8506
9664 2 2.2208 232.038 0.0154969 17.0884 13.9125
19 2 2.2208 232.038 11.238 3.00141 27.9139
9690 2 2.2208 232.038 -0.0206209 2.98038 28.0737
384 2 2.2208 232.038 0.0720638 17.1269 19.8563
332 1 -1.1104 15.9994 9.6831 20.9644 23.7538
9672 2 2.2208 232.038 0.172899 0.158098 25.239
9669 2 2.2208 232.038 0.0564097 8.7189 16.8691
9675 2 2.2208 232.038 0.0320745 8.81738 22.5208
647 1 -1.1104 15.9994 4.18177 15.5435 23.5221
337 1 -1.1104 15.9994 4.44232 20.9765 24.0418
431 2 2.2208 232.038 0.0682818 14.1153 22.3232
9671 2 2.2208 232.038 0.0398951 -2.54942 22.4794
664 2 2.2208 232.038 -0.147586 14.1758 16.6288
434 2 2.2208 232.038 -0.113279 17.0503 25.194
342 1 -1.1104 15.9994 4.16556 21.178 26.7915
9676 2 2.2208 232.038 0.104143 11.3052 25.3118
441 2 2.2208 232.038 -0.107093 20.1242 22.5006
9673 2 2.2208 232.038 -0.0965502 2.97198 22.3077
650 1 -1.1104 15.9994 1.16038 18.5424 24.0877
646 1 -1.1104 15.9994 1.21602 15.7555 23.7775
9666 2 2.2208 232.038 0.141807 -0.00982531 19.5878
330 2 2.2208 232.038 11.1347 -0.0653054 13.9595
649 1 -1.1104 15.9994 4.19997 15.3794 26.6408
351 1 -1.1104 15.9994 1.35441 21.2204 26.9868
352 2 2.2208 232.038 2.84131 0.0499626 16.8114
666 2 2.2208 232.038 2.65399 11.4546 27.803
354 1 -1.1104 15.9994 3.9202 18.1501 24.0951
1281 1 -1.1104 15.9994 7.13187 21.4343 24.1494
356 2 2.2208 232.038 8.46223 -0.148243 16.7241
652 1 -1.1104 15.9994 1.25039 18.6528 26.5961
358 2 2.2208 232.038 5.6385 0.0815561 19.551
9674 2 2.2208 232.038 0.148255 5.94308 25.2661
360 2 2.2208 232.038 11.4095 -0.142814 19.5329
361 1 -1.1104 15.9994 1.2174 21.3245 24.1452
362 2 2.2208 232.038 2.95293 5.64599 16.791
363 2 2.2208 232.038 2.72664 2.79372 19.5763
364 1 -1.1104 15.9994 12.6455 18.5694 26.5759
365 2 2.2208 232.038 5.68235 2.88959 16.8293
366 2 2.2208 232.038 8.64293 5.67879 16.9446
367 2 2.2208 232.038 8.48415 2.68731 19.6208
368 2 2.2208 232.038 5.58811 5.7694 19.6041
369 2 2.2208 232.038 11.3257 2.93064 16.8083
370 2 2.2208 232.038 11.1625 5.49015 19.685
371 1 -1.1104 15.9994 12.7128 18.3384 23.7555
372 2 2.2208 232.038 2.80591 11.3487 16.8978
373 2 2.2208 232.038 2.85953 8.71418 19.7478
9700 2 2.2208 232.038 -0.0722316 11.5033 19.6361
375 2 2.2208 232.038 5.76814 8.66574 16.7516
376 2 2.2208 232.038 8.52033 11.4218 16.8503
377 2 2.2208 232.038 8.51008 8.45309 19.615
378 2 2.2208 232.038 5.68017 11.3567 19.5706
379 2 2.2208 232.038 11.3793 8.47033 16.8888
380 2 2.2208 232.038 11.276 11.3056 19.7551
381 1 -1.1104 15.9994 12.6901 15.6748 26.7662
382 2 2.2208 232.038 2.58941 17.2198 16.8522
383 2 2.2208 232.038 2.78501 14.2637 19.5468
656 1 -1.1104 15.9994 6.94336 15.7887 26.6898
385 2 2.2208 232.038 5.40818 14.4129 16.7874
386 2 2.2208 232.038 8.09916 17.1037 16.9034
387 2 2.2208 232.038 8.56671 14.1041 19.6654
388 2 2.2208 232.038 5.75831 16.8195 19.5009
389 2 2.2208 232.038 11.2646 14.2617 16.8819
390 2 2.2208 232.038 11.2164 17.0486 19.9165
391 1 -1.1104 15.9994 12.7788 21.3085 27.0077
392 2 2.2208 232.038 2.88139 22.9933 16.9
393 2 2.2208 232.038 2.72946 19.7783 19.8946
350 2 2.2208 232.038 11.1228 22.7089 14.1175
395 2 2.2208 232.038 5.5154 19.8817 16.8648
396 2 2.2208 232.038 8.37953 22.5487 16.7226
397 2 2.2208 232.038 8.39602 19.7664 19.7282
398 2 2.2208 232.038 5.22074 22.5423 19.5852
399 2 2.2208 232.038 11.0514 19.7506 16.9635
400 2 2.2208 232.038 11.194 22.6215 19.6427
401 1 -1.1104 15.9994 12.6664 15.4785 24.2244
402 2 2.2208 232.038 2.88292 0.155866 22.5489
655 1 -1.1104 15.9994 9.86308 15.5142 23.7345
404 1 -1.1104 15.9994 9.98285 15.497 26.8626
9667 2 2.2208 232.038 0.00714687 2.87649 17.0565
406 2 2.2208 232.038 8.50795 0.0530177 22.2117
654 1 -1.1104 15.9994 6.98776 15.3738 23.7884
408 2 2.2208 232.038 5.84026 -0.0970907 25.2395
648 1 -1.1104 15.9994 1.26472 15.794 26.8747
410 2 2.2208 232.038 11.3927 -0.0674205 25.3511
411 1 -1.1104 15.9994 6.73209 18.6677 26.5307
412 2 2.2208 232.038 2.80523 5.60493 22.2206
413 2 2.2208 232.038 2.71756 2.91764 25.4115
414 1 -1.1104 15.9994 9.82116 18.2158 26.591
415 2 2.2208 232.038 5.68446 2.89432 22.4515
416 2 2.2208 232.038 8.43662 5.54994 22.5948
417 2 2.2208 232.038 8.46286 2.85744 25.3189
418 2 2.2208 232.038 5.67577 5.59252 25.402
419 2 2.2208 232.038 11.3625 2.71621 22.4044
420 2 2.2208 232.038 11.0827 5.83578 25.3429
421 1 -1.1104 15.9994 9.7357 18.2191 23.8104
422 2 2.2208 232.038 2.9013 11.5217 22.5055
423 2 2.2208 232.038 2.8603 8.4931 25.0973
424 1 -1.1104 15.9994 9.84942 12.6409 26.8596
425 2 2.2208 232.038 5.61549 8.63602 22.3636
426 2 2.2208 232.038 8.60971 11.3601 22.6065
427 2 2.2208 232.038 8.55246 8.61104 25.3538
428 2 2.2208 232.038 5.91153 11.3914 25.3013
429 2 2.2208 232.038 11.3067 8.39323 22.529
430 2 2.2208 232.038 11.2696 11.4913 25.4304
339 2 2.2208 232.038 5.58899 11.4669 13.9944
432 2 2.2208 232.038 2.82478 17.1807 22.5429
433 2 2.2208 232.038 2.77369 14.2552 25.1015
645 1 -1.1104 15.9994 12.7097 13.0078 26.7826
435 2 2.2208 232.038 5.82468 14.0203 22.5441
436 2 2.2208 232.038 8.51443 16.8557 22.3263
437 2 2.2208 232.038 8.58466 14.2326 25.2547
438 2 2.2208 232.038 5.65161 17.2409 25.2458
439 2 2.2208 232.038 11.4872 14.2822 22.7036
440 2 2.2208 232.038 11.2514 16.9726 25.3292
651 1 -1.1104 15.9994 7.151 18.3633 23.8018
442 1 -1.1104 15.9994 12.8886 21.372 24.1301
443 2 2.2208 232.038 2.63413 19.9885 25.2297
653 1 -1.1104 15.9994 4.27321 18.3129 26.8564
445 2 2.2208 232.038 5.69454 19.8168 22.6596
446 2 2.2208 232.038 8.43891 22.6409 22.6104
447 2 2.2208 232.038 8.28831 19.8162 25.2175
448 2 2.2208 232.038 5.64232 22.7311 25.4878
449 2 2.2208 232.038 11.2131 19.7259 22.4813
450 2 2.2208 232.038 11.4435 22.5988 25.6041
451 1 -1.1104 15.9994 1.55238 -1.40535 15.1554
452 1 -1.1104 15.9994 4.48566 -1.31417 15.6384
453 1 -1.1104 15.9994 1.32892 1.32991 15.4881
454 1 -1.1104 15.9994 4.45223 1.59607 15.5066
455 1 -1.1104 15.9994 7.15142 -1.52274 15.4866
456 1 -1.1104 15.9994 9.86949 -1.58241 15.2183
457 1 -1.1104 15.9994 7.11127 1.43211 15.2245
458 1 -1.1104 15.9994 9.71906 1.38842 15.3891
459 1 -1.1104 15.9994 12.6737 -1.51732 15.3188
460 1 -1.1104 15.9994 12.3808 1.19778 15.306
461 1 -1.1104 15.9994 1.3653 4.1197 15.6617
462 1 -1.1104 15.9994 4.29521 4.19167 15.3959
463 1 -1.1104 15.9994 1.64049 7.05285 15.4793
464 1 -1.1104 15.9994 4.5349 7.06465 15.4423
465 1 -1.1104 15.9994 7.19888 4.29768 15.3418
466 1 -1.1104 15.9994 10.0558 4.12204 15.3095
467 1 -1.1104 15.9994 7.28877 7.0132 15.4397
468 1 -1.1104 15.9994 10.0167 7.04895 15.5019
469 1 -1.1104 15.9994 12.6122 4.02181 15.2176
470 1 -1.1104 15.9994 12.712 6.94411 15.1802
471 1 -1.1104 15.9994 1.35582 10.0033 15.5616
472 1 -1.1104 15.9994 4.42299 10.1088 15.3482
473 1 -1.1104 15.9994 1.24094 12.6523 15.6139
474 1 -1.1104 15.9994 4.26664 12.838 15.1316
475 1 -1.1104 15.9994 7.21724 10.0072 15.3466
476 1 -1.1104 15.9994 9.8432 9.77945 15.531
477 1 -1.1104 15.9994 6.77997 12.7072 15.5813
478 1 -1.1104 15.9994 9.93497 12.7306 15.3575
479 1 -1.1104 15.9994 12.7076 9.79175 15.5832
480 1 -1.1104 15.9994 12.8009 12.5776 15.6443
481 1 -1.1104 15.9994 1.22986 15.5201 15.3782
482 1 -1.1104 15.9994 4.01382 15.557 15.5109
483 1 -1.1104 15.9994 1.27551 18.1883 15.242
484 1 -1.1104 15.9994 3.80965 18.6106 15.3745
485 1 -1.1104 15.9994 6.6095 15.7113 15.4806
486 1 -1.1104 15.9994 9.71585 15.514 15.4802
487 1 -1.1104 15.9994 6.65951 18.2942 15.5874
488 1 -1.1104 15.9994 9.77336 18.358 15.567
489 1 -1.1104 15.9994 12.3781 15.3003 15.3608
490 1 -1.1104 15.9994 12.7114 18.4181 15.2146
491 1 -1.1104 15.9994 1.69048 21.5506 15.3898
492 1 -1.1104 15.9994 4.41753 21.2996 15.2178
493 1 -1.1104 15.9994 7.38692 21.0237 15.3195
494 1 -1.1104 15.9994 10.0264 21.2629 15.4348
495 1 -1.1104 15.9994 12.8477 21.1046 15.4949
496 1 -1.1104 15.9994 1.38853 -1.23988 18.2752
497 1 -1.1104 15.9994 4.13235 -1.34669 18.2384
498 1 -1.1104 15.9994 1.60971 -1.29731 21.0763
499 1 -1.1104 15.9994 4.46044 -1.71317 20.9953
500 1 -1.1104 15.9994 1.44285 1.54094 18.213
501 1 -1.1104 15.9994 4.11944 1.57794 17.9662
502 1 -1.1104 15.9994 1.17802 1.42162 21.2283
503 1 -1.1104 15.9994 4.22163 1.2584 20.9949
504 1 -1.1104 15.9994 6.95686 -1.38491 18.2024
505 1 -1.1104 15.9994 9.65308 -1.51944 18.1374
506 1 -1.1104 15.9994 7.10802 -1.47806 21.0512
507 1 -1.1104 15.9994 9.99925 -1.60182 20.8669
508 1 -1.1104 15.9994 6.95784 1.64819 18.3186
509 1 -1.1104 15.9994 9.95376 1.14605 18.1629
510 1 -1.1104 15.9994 7.11412 1.3919 20.8808
511 1 -1.1104 15.9994 9.88493 1.38997 20.8572
512 1 -1.1104 15.9994 12.7674 -1.45282 18.1957
513 1 -1.1104 15.9994 12.6211 -1.13273 21.2417
514 1 -1.1104 15.9994 12.9384 1.38347 18.012
515 1 -1.1104 15.9994 12.6515 1.42067 20.9669
516 1 -1.1104 15.9994 1.53767 4.3777 18.3496
517 1 -1.1104 15.9994 4.51308 4.0725 18.3167
518 1 -1.1104 15.9994 1.54766 4.14952 21.2081
519 1 -1.1104 15.9994 4.38655 4.1846 21.126
520 1 -1.1104 15.9994 1.49534 7.27465 18.3729
521 1 -1.1104 15.9994 4.14456 7.05649 18.0743
522 1 -1.1104 15.9994 1.58897 7.05837 20.9627
523 1 -1.1104 15.9994 4.28644 7.27798 20.8899
524 1 -1.1104 15.9994 7.24974 4.37806 18.4376
525 1 -1.1104 15.9994 9.95727 4.09246 17.9883
526 1 -1.1104 15.9994 6.90672 4.19775 21.2319
527 1 -1.1104 15.9994 9.84437 4.18893 20.8877
528 1 -1.1104 15.9994 6.94838 7.22983 18.3332
529 1 -1.1104 15.9994 9.92786 7.0904 18.3551
530 1 -1.1104 15.9994 6.87697 6.83639 21.2687
531 1 -1.1104 15.9994 9.99613 7.003 21.2291
532 1 -1.1104 15.9994 12.5411 4.07115 18.1977
533 1 -1.1104 15.9994 12.7122 4.07958 20.9889
534 1 -1.1104 15.9994 12.7064 6.74849 18.1657
535 1 -1.1104 15.9994 12.7591 6.97358 20.9748
536 1 -1.1104 15.9994 1.2104 10.0169 18.4832
537 1 -1.1104 15.9994 4.27313 9.9173 18.2428
538 1 -1.1104 15.9994 1.29966 10.2627 21.2553
539 1 -1.1104 15.9994 4.15672 10.0277 21.0005
540 1 -1.1104 15.9994 1.51429 12.7348 18.4382
541 1 -1.1104 15.9994 4.08612 12.8118 18.2411
542 1 -1.1104 15.9994 1.55994 12.9326 21.0373
543 1 -1.1104 15.9994 4.47537 12.6236 21.0324
544 1 -1.1104 15.9994 7.19488 10.0935 18.0027
545 1 -1.1104 15.9994 9.88042 9.84573 18.3732
546 1 -1.1104 15.9994 7.1377 9.82302 20.6421
547 1 -1.1104 15.9994 9.6996 9.71553 21.2728
548 1 -1.1104 15.9994 7.04282 12.8759 18.2183
549 1 -1.1104 15.9994 9.88539 12.6945 18.299
550 1 -1.1104 15.9994 7.1935 12.6159 21.3153
551 1 -1.1104 15.9994 10.0957 12.5302 21.0367
552 1 -1.1104 15.9994 12.7842 9.6232 18.399
553 1 -1.1104 15.9994 12.3974 9.97174 21.1304
554 1 -1.1104 15.9994 12.5633 12.8586 18.5346
555 1 -1.1104 15.9994 13.1893 12.6502 21.3061
556 1 -1.1104 15.9994 1.30537 15.6128 18.214
557 1 -1.1104 15.9994 4.28896 15.7529 18.2407
558 1 -1.1104 15.9994 1.6074 15.8553 20.8246
559 1 -1.1104 15.9994 4.47615 15.3124 21.0176
560 1 -1.1104 15.9994 1.59391 18.19 18.7026
561 1 -1.1104 15.9994 4.30075 18.6937 18.2317
562 1 -1.1104 15.9994 1.46128 18.6098 21.5124
563 1 -1.1104 15.9994 4.32165 18.2855 21.4538
564 1 -1.1104 15.9994 7.16583 15.5618 18.2861
565 1 -1.1104 15.9994 10.0406 15.7222 18.0714
566 1 -1.1104 15.9994 7.19243 15.369 20.9559
567 1 -1.1104 15.9994 9.93385 15.5231 20.9047
568 1 -1.1104 15.9994 6.87535 18.4938 18.307
569 1 -1.1104 15.9994 9.98463 18.4082 18.5916
570 1 -1.1104 15.9994 7.13773 18.2181 20.9658
571 1 -1.1104 15.9994 9.7675 18.3349 21.1708
572 1 -1.1104 15.9994 12.8766 15.2899 18.1545
573 1 -1.1104 15.9994 12.7243 15.6253 21.2674
574 1 -1.1104 15.9994 12.4455 18.2914 18.1987
575 1 -1.1104 15.9994 12.6136 18.3739 21.0428
576 1 -1.1104 15.9994 1.05548 21.0946 20.5121
577 1 -1.1104 15.9994 3.79111 21.3902 17.9946
644 1 -1.1104 15.9994 12.6346 12.8585 24.0004
579 1 -1.1104 15.9994 4.44953 20.9523 20.9513
580 1 -1.1104 15.9994 6.59277 21.1683 18.486
581 1 -1.1104 15.9994 9.61634 21.0008 18.1303
582 1 -1.1104 15.9994 7.19277 20.9809 21.2409
583 1 -1.1104 15.9994 9.82725 21.2388 21.1269
584 1 -1.1104 15.9994 12.5629 21.1419 18.6036
585 1 -1.1104 15.9994 12.7932 20.987 21.1489
586 1 -1.1104 15.9994 1.48209 -1.36812 24.0025
587 1 -1.1104 15.9994 4.5222 -1.60923 23.775
588 1 -1.1104 15.9994 1.42911 -1.5406 26.8234
589 1 -1.1104 15.9994 4.38196 -1.52007 26.468
590 1 -1.1104 15.9994 1.62112 1.56073 23.9313
591 1 -1.1104 15.9994 4.56794 1.26299 23.7601
592 1 -1.1104 15.9994 1.47522 1.19482 26.6671
593 1 -1.1104 15.9994 4.25256 1.19642 26.7775
594 1 -1.1104 15.9994 7.10624 -1.48383 23.6894
595 1 -1.1104 15.9994 10.0756 -1.79566 23.9691
596 1 -1.1104 15.9994 7.18432 -1.57972 26.78
597 1 -1.1104 15.9994 9.86663 -1.52299 26.7427
598 1 -1.1104 15.9994 7.12954 1.34721 23.9535
599 1 -1.1104 15.9994 9.83509 1.09915 23.9503
600 1 -1.1104 15.9994 7.16585 1.27247 26.6817
601 1 -1.1104 15.9994 10.005 1.37053 26.7552
602 1 -1.1104 15.9994 12.9222 -1.21056 23.8858
603 1 -1.1104 15.9994 12.9614 -1.44636 26.7123
604 1 -1.1104 15.9994 12.9862 1.84624 23.7364
605 1 -1.1104 15.9994 12.883 1.69069 26.5211
606 1 -1.1104 15.9994 1.24403 4.31408 24.1249
607 1 -1.1104 15.9994 4.28339 4.23579 24.2543
608 1 -1.1104 15.9994 1.26668 4.2878 26.7083
609 1 -1.1104 15.9994 4.16297 4.21792 26.9534
610 1 -1.1104 15.9994 1.33461 7.19367 23.6695
611 1 -1.1104 15.9994 4.226 6.95491 23.8187
612 1 -1.1104 15.9994 1.55153 7.17379 26.4887
613 1 -1.1104 15.9994 4.45351 7.24598 26.5863
614 1 -1.1104 15.9994 7.0491 4.22974 23.9832
615 1 -1.1104 15.9994 9.98358 4.09597 23.6034
616 1 -1.1104 15.9994 6.85979 4.08883 26.7039
617 1 -1.1104 15.9994 9.73401 4.29181 26.4394
618 1 -1.1104 15.9994 7.31514 7.18902 24.0135
619 1 -1.1104 15.9994 9.71544 6.98729 24.0221
620 1 -1.1104 15.9994 7.10368 6.88309 26.5924
621 1 -1.1104 15.9994 9.95038 7.09844 27.0451
622 1 -1.1104 15.9994 12.721 4.54085 23.8867
623 1 -1.1104 15.9994 12.5101 4.46904 26.6808
624 1 -1.1104 15.9994 12.7679 7.28498 23.8701
625 1 -1.1104 15.9994 12.6428 7.29671 26.8616
626 1 -1.1104 15.9994 1.51216 10.2512 23.8277
627 1 -1.1104 15.9994 4.36036 9.81135 23.932