ITEM: TIMESTEP
80000
ITEM: NUMBER OF ATOMS
18000
ITEM: BOX BOUNDS xy xz yz pp pp pp
-2.2540426912586595e-01 2.8119404269125344e+01 0.0000000000000000e+00
-2.8276668402404317e+00 3.3755566684023700e+02 0.0000000000000000e+00
-2.1542457279191826e-01 2.8109424572791855e+01 0.0000000000000000e+00
ITEM: ATOMS id type q mass x y z
9007 2 2.2208 232.038 0.048879 0.200254 2.46892
324 1 -1.1104 15.9994 12.8953 4.25498 12.4472
8987 2 2.2208 232.038 0.179853 -2.78201 10.9554
4 1 -1.1104 15.9994 12.3271 21.0419 12.5624
323 1 -1.1104 15.9994 9.66458 7.13045 12.5636
322 1 -1.1104 15.9994 6.76206 6.99649 12.6755
3 2 2.2208 232.038 2.87587 -2.74635 2.3382
8 2 2.2208 232.038 5.61374 -0.23314 2.5313
9 1 -1.1104 15.9994 12.5156 7.0286 12.3551
10 2 2.2208 232.038 11.0553 -0.0595759 2.39687
11 1 -1.1104 15.9994 9.63501 21.6042 12.3112
321 1 -1.1104 15.9994 9.92 4.27427 12.5407
13 2 2.2208 232.038 2.91944 2.88382 2.5596
14 1 -1.1104 15.9994 6.94635 21.074 12.555
339 2 2.2208 232.038 5.36673 11.1193 13.9553
8984 2 2.2208 232.038 0.0316816 2.52413 11.0066
17 2 2.2208 232.038 8.28546 2.80485 2.60627
18 2 2.2208 232.038 5.65542 5.80771 2.39465
329 2 2.2208 232.038 5.95274 -0.199319 13.8518
20 2 2.2208 232.038 11.2642 5.76646 2.69942
21 1 -1.1104 15.9994 3.86978 21.175 12.5569
22 1 -1.1104 15.9994 1.45183 15.7051 12.6399
23 2 2.2208 232.038 2.86438 8.54838 2.40555
320 1 -1.1104 15.9994 6.83259 3.94278 12.4107
9661 2 2.2208 232.038 0.22699 -0.0717931 13.6622
8981 2 2.2208 232.038 -0.214796 14.2386 11.172
27 2 2.2208 232.038 8.3487 8.52806 2.67487
28 2 2.2208 232.038 5.61371 11.3525 2.66745
331 2 2.2208 232.038 2.85341 2.6664 13.7998
30 2 2.2208 232.038 11.2447 11.5475 2.31779
31 1 -1.1104 15.9994 12.4371 12.5576 12.8019
32 1 -1.1104 15.9994 12.5685 9.85284 12.6446
33 2 2.2208 232.038 2.67943 14.357 2.88045
1 2 2.2208 232.038 13.8501 22.6529 5.60329
35 1 -1.1104 15.9994 9.69997 12.6714 12.5192
36 1 -1.1104 15.9994 6.96573 12.5719 12.6491
37 2 2.2208 232.038 8.35046 14.2728 2.50571
38 2 2.2208 232.038 5.48782 17.1331 2.68429
39 1 -1.1104 15.9994 9.55845 9.82629 12.3598
40 2 2.2208 232.038 11.1107 17.1974 2.6262
41 1 -1.1104 15.9994 6.69158 9.71749 12.3445
42 1 -1.1104 15.9994 3.87706 12.4516 12.4845
43 2 2.2208 232.038 2.79899 19.7992 2.70669
319 1 -1.1104 15.9994 3.9752 6.70727 12.7618
45 1 -1.1104 15.9994 0.933219 12.6706 12.5818
46 1 -1.1104 15.9994 4.16164 9.66891 12.4871
47 2 2.2208 232.038 8.46784 19.8636 2.72172
48 2 2.2208 232.038 5.37624 22.7357 2.89551
49 1 -1.1104 15.9994 1.52323 9.76391 12.6948
50 2 2.2208 232.038 11.2028 22.6697 2.73817
51 1 -1.1104 15.9994 1.25096 21.0791 12.5944
52 2 2.2208 232.038 2.72737 0.000372371 5.26798
53 2 2.2208 232.038 3.01239 -2.59104 8.07491
54 1 -1.1104 15.9994 12.5273 18.213 12.7542
8997 2 2.2208 232.038 -0.0225695 3.06486 5.595
56 2 2.2208 232.038 8.53237 -0.0422273 5.29646
8983 2 2.2208 232.038 -0.0166044 8.43771 11.233
58 2 2.2208 232.038 5.87607 0.147742 8.15872
328 2 2.2208 232.038 8.66416 -2.72231 13.819
60 2 2.2208 232.038 11.1864 0.0106033 8.22163
61 1 -1.1104 15.9994 12.4732 15.4937 12.4643
62 2 2.2208 232.038 2.91184 5.81486 5.36407
63 2 2.2208 232.038 2.8453 2.82493 8.22542
64 1 -1.1104 15.9994 9.63997 18.3134 12.4321
65 2 2.2208 232.038 5.70734 2.8483 5.42396
66 2 2.2208 232.038 8.2404 5.76787 5.33982
67 2 2.2208 232.038 8.408 2.94054 8.24459
68 2 2.2208 232.038 5.63524 5.72607 8.43258
69 2 2.2208 232.038 11.1264 3.04566 5.25134
70 2 2.2208 232.038 11.0673 5.84153 8.14408
71 1 -1.1104 15.9994 7.00877 18.2332 12.5841
72 2 2.2208 232.038 2.74269 11.1959 5.51734
73 2 2.2208 232.038 2.41621 8.56392 8.37934
74 1 -1.1104 15.9994 9.91048 15.3799 12.5276
75 2 2.2208 232.038 5.44383 8.50658 5.37321
76 2 2.2208 232.038 8.38344 11.2558 5.44194
77 2 2.2208 232.038 8.26786 8.48898 8.24634
78 2 2.2208 232.038 5.38937 11.2748 8.12052
79 2 2.2208 232.038 11.0166 8.52396 5.51929
80 2 2.2208 232.038 10.9617 11.4989 8.13459
318 1 -1.1104 15.9994 1.31585 6.78113 12.6928
82 2 2.2208 232.038 2.85979 17.1552 5.56287
83 2 2.2208 232.038 2.86671 14.2205 8.27937
674 2 2.2208 232.038 2.70446 22.7408 -0.187867
85 2 2.2208 232.038 5.50599 14.1898 5.42187
86 2 2.2208 232.038 8.2031 17.0698 5.44183
87 2 2.2208 232.038 8.27864 14.1276 8.12824
88 2 2.2208 232.038 5.52302 16.9541 8.26774
89 2 2.2208 232.038 10.9835 14.3451 5.41699
90 2 2.2208 232.038 11.3353 16.9381 8.21949
9688 2 2.2208 232.038 -0.176237 8.44236 -0.165057
92 2 2.2208 232.038 2.58071 22.6281 5.5825
93 2 2.2208 232.038 2.7196 19.8094 8.48994
84 2 2.2208 232.038 -0.0660873 16.9956 8.34287
95 2 2.2208 232.038 5.21352 19.7016 5.49342
96 2 2.2208 232.038 8.05496 22.7493 5.53814
97 2 2.2208 232.038 8.10407 20.0206 8.24769
98 2 2.2208 232.038 5.38439 22.7054 8.21151
99 2 2.2208 232.038 11.3727 19.6623 5.4072
100 2 2.2208 232.038 11.1224 22.2857 8.39166
101 1 -1.1104 15.9994 7.1577 15.5096 12.5405
102 2 2.2208 232.038 3.1683 -0.124959 10.9476
15 2 2.2208 232.038 13.9551 14.4351 2.81445
104 2 2.2208 232.038 8.61269 0.171276 11.1139
9091 2 2.2208 232.038 13.9362 11.2773 11.0578
106 1 -1.1104 15.9994 3.84767 18.1992 12.5252
107 2 2.2208 232.038 2.74078 5.40906 11.1991
108 2 2.2208 232.038 5.5934 2.72301 11.0405
109 2 2.2208 232.038 8.29306 5.71368 11.1334
110 2 2.2208 232.038 11.4102 3.0079 11.1053
111 1 -1.1104 15.9994 0.926905 18.2505 12.3646
112 2 2.2208 232.038 2.70145 11.2279 11.2149
113 2 2.2208 232.038 5.32312 8.34259 11.0718
114 2 2.2208 232.038 8.2739 11.2051 11.19
115 2 2.2208 232.038 11.2256 8.61517 11.1315
116 1 -1.1104 15.9994 4.57892 15.2389 13.0418
117 2 2.2208 232.038 2.59026 16.7999 11.1974
118 2 2.2208 232.038 5.54574 14.2577 11.1186
119 2 2.2208 232.038 8.30223 16.9863 11.0052
120 2 2.2208 232.038 11.0041 14.0159 11.0182
5 2 2.2208 232.038 13.9001 14.1634 8.14447
122 2 2.2208 232.038 2.73547 22.6739 11.0717
123 2 2.2208 232.038 5.45002 19.6974 11.2118
124 2 2.2208 232.038 8.1662 22.8539 11.1463
125 2 2.2208 232.038 10.959 19.5428 11.0371
126 1 -1.1104 15.9994 1.62956 -1.7558 0.516286
127 1 -1.1104 15.9994 4.08508 -1.27889 0.796757
128 1 -1.1104 15.9994 1.68819 -1.61431 3.78021
129 1 -1.1104 15.9994 4.24292 -1.54325 4.023
130 1 -1.1104 15.9994 1.15209 1.33834 0.788938
131 1 -1.1104 15.9994 4.12307 1.56289 0.826751
132 1 -1.1104 15.9994 1.4934 1.3375 3.75443
133 1 -1.1104 15.9994 4.39513 1.11655 3.75579
134 1 -1.1104 15.9994 6.86766 -1.56837 1.20054
135 1 -1.1104 15.9994 9.62727 -1.54712 1.21268
136 1 -1.1104 15.9994 6.89136 -1.44984 3.90333
137 1 -1.1104 15.9994 9.6481 -1.52875 4.08871
138 1 -1.1104 15.9994 6.99941 1.37672 1.05993
139 1 -1.1104 15.9994 9.62749 1.22602 1.10498
140 1 -1.1104 15.9994 7.2204 1.48747 4.24609
141 1 -1.1104 15.9994 9.98848 1.63227 3.96868
142 1 -1.1104 15.9994 12.2668 -1.31893 0.834116
143 1 -1.1104 15.9994 12.2515 -1.66988 3.57934
144 1 -1.1104 15.9994 12.6266 1.42491 1.2938
145 1 -1.1104 15.9994 12.7087 1.58916 4.0373
146 1 -1.1104 15.9994 1.19892 4.34256 1.14333
147 1 -1.1104 15.9994 4.14134 4.29222 1.04724
148 1 -1.1104 15.9994 1.50204 4.3831 3.97863
149 1 -1.1104 15.9994 4.27142 4.1255 4.21983
150 1 -1.1104 15.9994 1.08882 7.14195 1.30757
151 1 -1.1104 15.9994 4.29113 7.11099 0.970447
152 1 -1.1104 15.9994 1.29594 6.95085 6.98162
153 1 -1.1104 15.9994 4.36892 7.17257 3.69604
154 1 -1.1104 15.9994 6.77303 4.16025 0.951257
155 1 -1.1104 15.9994 9.79315 3.95962 0.969979
156 1 -1.1104 15.9994 7.11959 4.53403 3.7427
157 1 -1.1104 15.9994 9.77289 4.28858 3.80234
158 1 -1.1104 15.9994 7.21824 7.18998 0.976126
159 1 -1.1104 15.9994 9.84482 7.02684 1.46349
160 1 -1.1104 15.9994 7.03849 7.11252 3.86337
161 1 -1.1104 15.9994 9.8126 7.14262 4.13942
162 1 -1.1104 15.9994 12.4031 4.10678 1.05856
163 1 -1.1104 15.9994 12.6387 4.45758 3.80405
164 1 -1.1104 15.9994 12.8307 6.99894 1.28513
165 1 -1.1104 15.9994 12.3608 7.29956 4.13529
166 1 -1.1104 15.9994 1.1409 9.89098 1.11712
167 1 -1.1104 15.9994 3.99364 10.0329 1.27913
168 1 -1.1104 15.9994 1.59649 7.31034 4.10901
169 1 -1.1104 15.9994 4.20838 9.88135 3.97185
170 1 -1.1104 15.9994 1.28499 12.7763 1.43601
171 1 -1.1104 15.9994 4.33776 12.7715 1.35225
172 1 -1.1104 15.9994 1.47032 12.8262 4.29876
173 1 -1.1104 15.9994 4.11814 12.7278 4.00669
174 1 -1.1104 15.9994 6.93679 10.0826 0.962736
175 1 -1.1104 15.9994 9.70775 10.0325 1.20756
176 1 -1.1104 15.9994 6.9083 10.0122 3.71553
177 1 -1.1104 15.9994 9.54958 9.88715 4.21497
178 1 -1.1104 15.9994 7.10523 12.9958 0.943699
179 1 -1.1104 15.9994 9.92873 12.8664 1.08303
180 1 -1.1104 15.9994 6.97063 12.8109 3.88144
181 1 -1.1104 15.9994 9.84231 12.6623 3.88461
182 1 -1.1104 15.9994 12.457 9.88229 1.18069
183 1 -1.1104 15.9994 12.5752 10.0921 3.90861
184 1 -1.1104 15.9994 12.733 12.833 1.03718
185 1 -1.1104 15.9994 12.6967 12.9997 4.21378
186 1 -1.1104 15.9994 1.3165 15.5337 1.42457
187 1 -1.1104 15.9994 3.89415 15.5044 1.18749
188 1 -1.1104 15.9994 1.16141 15.95 4.17145
189 1 -1.1104 15.9994 3.98551 15.6885 4.03178
190 1 -1.1104 15.9994 1.25512 18.3248 1.09279
191 1 -1.1104 15.9994 4.0076 18.3731 1.30293
192 1 -1.1104 15.9994 1.33376 18.6034 3.91014
193 1 -1.1104 15.9994 4.05932 18.3481 4.10314
194 1 -1.1104 15.9994 6.76887 15.9303 1.1358
195 1 -1.1104 15.9994 9.40991 15.652 0.991462
196 1 -1.1104 15.9994 6.91301 15.726 4.14834
197 1 -1.1104 15.9994 9.57022 15.5581 4.05076
198 1 -1.1104 15.9994 6.70045 18.5842 1.49122
199 1 -1.1104 15.9994 9.54971 18.5762 1.3282
200 1 -1.1104 15.9994 6.94201 18.5757 4.41034
201 1 -1.1104 15.9994 9.57853 18.3591 4.28698
202 1 -1.1104 15.9994 12.3211 15.6384 1.12996
203 1 -1.1104 15.9994 12.2294 15.7223 3.88023
204 1 -1.1104 15.9994 12.4036 18.6752 1.20555
205 1 -1.1104 15.9994 12.592 18.3653 4.02994
206 1 -1.1104 15.9994 1.16932 21.2009 1.16835
207 1 -1.1104 15.9994 3.77529 21.2728 1.2764
208 1 -1.1104 15.9994 1.06232 21.4162 4.35119
209 1 -1.1104 15.9994 4.00039 21.0036 4.12573
210 1 -1.1104 15.9994 6.79105 21.1685 1.2304
211 1 -1.1104 15.9994 9.75582 21.0632 1.03483
212 1 -1.1104 15.9994 7.03716 21.15 4.11087
213 1 -1.1104 15.9994 9.86797 21.326 4.11037
214 1 -1.1104 15.9994 12.4558 21.2099 1.13795
215 1 -1.1104 15.9994 12.5978 21.0433 4.02607
216 1 -1.1104 15.9994 1.43416 -1.25387 6.71997
217 1 -1.1104 15.9994 4.28507 -1.14357 6.73339
218 1 -1.1104 15.9994 1.70535 -1.48699 12.3965
219 1 -1.1104 15.9994 4.45255 -1.15661 9.51141
220 1 -1.1104 15.9994 1.41682 1.47069 6.6159
221 1 -1.1104 15.9994 4.23439 1.35899 6.46819
222 1 -1.1104 15.9994 1.74427 -1.54274 9.51548
223 1 -1.1104 15.9994 4.23479 1.56737 9.32644
224 1 -1.1104 15.9994 7.54358 -1.21492 6.85972
225 1 -1.1104 15.9994 10.2213 -1.51045 6.77248
226 1 -1.1104 15.9994 6.92469 -1.48907 9.53947
227 1 -1.1104 15.9994 9.97978 -1.46638 9.54088
228 1 -1.1104 15.9994 7.18248 1.45711 6.95508
229 1 -1.1104 15.9994 9.89771 1.37929 6.8005
230 1 -1.1104 15.9994 7.13918 1.41776 9.83363
231 1 -1.1104 15.9994 9.80805 1.49231 9.47517
232 1 -1.1104 15.9994 13.0544 -1.29259 6.57414
233 1 -1.1104 15.9994 12.7106 -1.47742 9.51866
234 1 -1.1104 15.9994 12.9127 1.28899 7.06217
235 1 -1.1104 15.9994 12.7096 1.57516 9.82822
236 1 -1.1104 15.9994 1.41965 4.09316 9.70046
237 1 -1.1104 15.9994 4.50607 4.3839 6.99871
238 1 -1.1104 15.9994 1.56637 1.28596 9.65207
239 1 -1.1104 15.9994 4.08782 4.26415 9.704
240 1 -1.1104 15.9994 1.69365 4.05849 6.76444
241 1 -1.1104 15.9994 4.20301 7.2017 6.81794
242 1 -1.1104 15.9994 1.23181 6.9748 9.73112
243 1 -1.1104 15.9994 4.16576 7.14101 9.76121
244 1 -1.1104 15.9994 7.21811 4.33631 6.64584
245 1 -1.1104 15.9994 10.0172 4.44197 6.60586
246 1 -1.1104 15.9994 7.0045 4.38232 9.6184
247 1 -1.1104 15.9994 9.71964 4.21211 9.55584
248 1 -1.1104 15.9994 6.81514 7.0476 6.95731
249 1 -1.1104 15.9994 9.66431 7.14492 7.06738
250 1 -1.1104 15.9994 6.91629 7.17484 9.71944
251 1 -1.1104 15.9994 9.5893 7.0625 9.67924
252 1 -1.1104 15.9994 12.7803 4.01289 6.62858
253 1 -1.1104 15.9994 12.5397 4.50402 9.35788
254 1 -1.1104 15.9994 12.5982 7.04629 6.86799
255 1 -1.1104 15.9994 12.7187 7.07322 9.67535
256 1 -1.1104 15.9994 1.27925 9.76878 6.87358
257 1 -1.1104 15.9994 3.85896 9.93539 6.98037
258 1 -1.1104 15.9994 1.05521 9.86317 9.68907
259 1 -1.1104 15.9994 3.84347 10.05 9.6376
260 1 -1.1104 15.9994 1.25745 12.5481 6.98369
261 1 -1.1104 15.9994 3.91704 12.8757 6.7815
262 1 -1.1104 15.9994 1.20662 12.687 9.74665
263 1 -1.1104 15.9994 4.00917 13.0243 9.9216
264 1 -1.1104 15.9994 6.89087 9.8791 6.48305
265 1 -1.1104 15.9994 9.83053 9.8473 7.05797
266 1 -1.1104 15.9994 6.75911 10.2215 9.566
267 1 -1.1104 15.9994 9.59451 10.0428 9.53496
268 1 -1.1104 15.9994 6.74318 12.6417 6.92866
269 1 -1.1104 15.9994 9.55336 12.7732 6.57772
270 1 -1.1104 15.9994 6.975 12.7933 9.75535
271 1 -1.1104 15.9994 9.78251 12.8847 9.445
272 1 -1.1104 15.9994 12.5159 9.73721 6.51075
273 1 -1.1104 15.9994 12.6545 9.79554 9.69929
274 1 -1.1104 15.9994 12.4669 12.7394 6.79158
275 1 -1.1104 15.9994 12.3589 12.6553 9.66083
276 1 -1.1104 15.9994 1.39274 15.5898 6.8266
277 1 -1.1104 15.9994 4.26763 15.5363 6.87032
278 1 -1.1104 15.9994 1.26656 15.458 9.68209
279 1 -1.1104 15.9994 4.10508 15.77 9.67959
280 1 -1.1104 15.9994 1.39203 18.5849 6.93165
281 1 -1.1104 15.9994 4.14601 18.2806 7.02302
282 1 -1.1104 15.9994 1.4658 18.3333 9.65451
283 1 -1.1104 15.9994 4.11273 18.5498 9.68307
284 1 -1.1104 15.9994 7.28371 15.5122 6.64542
285 1 -1.1104 15.9994 9.83679 15.7689 6.74299
286 1 -1.1104 15.9994 7.01018 15.7281 9.69891
287 1 -1.1104 15.9994 9.76509 15.5191 9.69544
288 1 -1.1104 15.9994 6.79978 18.4585 7.08554
289 1 -1.1104 15.9994 10.0507 18.5017 6.90007
290 1 -1.1104 15.9994 7.28931 18.6621 9.96908
291 1 -1.1104 15.9994 9.87997 18.0996 9.76438
292 1 -1.1104 15.9994 12.54 15.6407 6.84193
293 1 -1.1104 15.9994 12.5813 15.495 9.42306
294 1 -1.1104 15.9994 12.6557 18.6227 6.87344
295 1 -1.1104 15.9994 12.6677 18.1772 9.67619
296 1 -1.1104 15.9994 1.11332 21.2949 7.03043
297 1 -1.1104 15.9994 3.88048 21.1312 6.92904
298 1 -1.1104 15.9994 1.2206 21.1811 9.75333
299 1 -1.1104 15.9994 4.11503 21.2518 9.80229
300 1 -1.1104 15.9994 6.84769 21.2524 6.86995
301 1 -1.1104 15.9994 9.41486 21.4922 6.88249
302 1 -1.1104 15.9994 6.88983 21.6404 9.67331
303 1 -1.1104 15.9994 9.70187 21.0299 9.53106
304 1 -1.1104 15.9994 12.555 21.3279 7.04195
305 1 -1.1104 15.9994 12.6333 20.8663 9.72858
9004 2 2.2208 232.038 0.0886703 5.76783 2.68894
307 1 -1.1104 15.9994 4.48482 -1.58446 12.371
308 1 -1.1104 15.9994 1.60267 1.18978 12.4441
309 1 -1.1104 15.9994 4.28563 1.26974 12.2006
310 1 -1.1104 15.9994 7.23887 -1.37492 12.1939
311 1 -1.1104 15.9994 10.0916 -1.35391 12.4511
312 1 -1.1104 15.9994 7.07497 1.21045 12.4017
313 1 -1.1104 15.9994 9.88404 1.38633 12.3754
314 1 -1.1104 15.9994 13.048 -2.02274 12.1307
315 1 -1.1104 15.9994 12.5609 1.41007 12.4658
316 1 -1.1104 15.9994 1.23414 3.93245 12.7974
317 1 -1.1104 15.9994 4.27163 4.03626 12.3688
8993 2 2.2208 232.038 -0.0852732 8.2596 5.48885
335 2 2.2208 232.038 11.1383 5.78274 13.8604
9101 2 2.2208 232.038 13.7449 22.4386 11.5744
81 2 2.2208 232.038 0.0801915 14.077 5.43353
91 2 2.2208 232.038 -0.108914 19.6842 5.6243
8988 2 2.2208 232.038 -0.127035 11.3657 8.32157
9161 1 -1.1104 15.9994 1.62325 9.94261 3.7577
12 2 2.2208 232.038 13.8513 19.7918 2.60012
8994 2 2.2208 232.038 -0.0980088 5.592 8.33705
348 2 2.2208 232.038 8.31158 19.8864 13.8034
55 2 2.2208 232.038 5.54516 -2.77306 5.37819
8998 2 2.2208 232.038 0.170658 -0.0144635 8.35612
26 2 2.2208 232.038 8.396 11.4643 -0.140356
34 2 2.2208 232.038 -0.129573 17.1438 2.58472
675 2 2.2208 232.038 5.31283 20.0435 -0.0465304
9096 2 2.2208 232.038 13.8244 16.9024 11.2146
669 2 2.2208 232.038 2.60261 16.942 -0.214014
9041 2 2.2208 232.038 13.8461 5.84211 5.45282
24 2 2.2208 232.038 -0.115271 11.2786 2.85035
44 2 2.2208 232.038 -0.188595 22.6931 2.67215
668 2 2.2208 232.038 -0.159253 14.2114 0.0730342
666 2 2.2208 232.038 2.75144 11.4225 0.0796251
9662 2 2.2208 232.038 -0.14698 5.56315 13.9605
338 2 2.2208 232.038 8.27822 8.55748 13.8633
345 2 2.2208 232.038 10.9338 16.9769 13.8577
333 2 2.2208 232.038 8.55035 2.83829 13.7349
8992 2 2.2208 232.038 13.9316 2.94519 2.62802
121 2 2.2208 232.038 -0.188371 20.0801 11.1118
57 2 2.2208 232.038 8.62706 -2.74718 8.17994
103 2 2.2208 232.038 5.80129 -2.66116 11.029
9003 2 2.2208 232.038 0.174435 -2.55206 5.25875
346 2 2.2208 232.038 2.51145 19.6719 13.8695
665 2 2.2208 232.038 13.7093 22.7253 -0.100472
29 2 2.2208 232.038 11.3196 8.54547 -0.0499688
326 2 2.2208 232.038 3.12532 -2.67878 13.8667
657 2 2.2208 232.038 13.8309 22.8761 22.512
327 1 -1.1104 15.9994 6.69875 21.6021 26.6181
340 2 2.2208 232.038 11.0842 11.3759 14.2175
9334 2 2.2208 232.038 13.8964 19.7636 14.1784
341 2 2.2208 232.038 2.75113 14.0154 14.2012
660 2 2.2208 232.038 5.56034 -2.78185 27.9344
332 1 -1.1104 15.9994 9.94732 21.4223 23.6572
9329 2 2.2208 232.038 13.7624 14.2665 14.0292
9673 2 2.2208 232.038 -0.21135 2.90291 22.2914
677 1 -1.1104 15.9994 9.66376 12.6175 26.4337
334 2 2.2208 232.038 5.43444 5.38885 14.0386
337 1 -1.1104 15.9994 6.80358 21.032 23.8429
659 2 2.2208 232.038 2.85359 -0.13097 27.7058
671 2 2.2208 232.038 8.19115 17.2056 28.0032
672 2 2.2208 232.038 11.059 14.4189 28.0472
658 2 2.2208 232.038 13.8533 20.0238 25.2596
342 1 -1.1104 15.9994 3.87978 21.1145 26.8545
9664 2 2.2208 232.038 -0.191405 17.0446 14.0112
663 2 2.2208 232.038 2.84702 5.7531 27.9932
9672 2 2.2208 232.038 -0.189112 0.069066 25.0259
9665 2 2.2208 232.038 0.173615 -2.8226 16.5205
384 2 2.2208 232.038 -0.223028 16.9799 19.8149
9419 2 2.2208 232.038 13.9054 16.974 22.6233
330 2 2.2208 232.038 11.2275 -0.110619 14.0245
9668 2 2.2208 232.038 -0.215995 5.81421 19.5995
351 1 -1.1104 15.9994 1.20186 21.5319 26.8836
352 2 2.2208 232.038 2.80552 -0.124901 16.6531
353 2 2.2208 232.038 2.68355 -2.76955 19.5011
354 1 -1.1104 15.9994 3.89944 21.1992 24.1202
336 2 2.2208 232.038 2.77822 8.16839 14.1546
356 2 2.2208 232.038 8.45967 -0.0297704 16.7161
652 1 -1.1104 15.9994 1.18923 18.2887 26.5679
358 2 2.2208 232.038 5.41428 -0.0808278 19.3508
664 2 2.2208 232.038 -0.223904 14.2076 16.9414
360 2 2.2208 232.038 11.3529 -0.405532 19.4318
361 1 -1.1104 15.9994 1.01414 21.3027 23.7585
362 2 2.2208 232.038 2.73525 5.67576 16.9165
363 2 2.2208 232.038 2.6387 2.97923 19.5908
364 1 -1.1104 15.9994 12.5868 18.4459 26.7914
365 2 2.2208 232.038 5.68376 2.74084 16.7458
366 2 2.2208 232.038 8.37075 5.66231 16.7128
367 2 2.2208 232.038 8.5914 2.49941 19.3456
368 2 2.2208 232.038 5.59647 5.56328 19.4715
369 2 2.2208 232.038 11.2967 2.59489 16.7159
370 2 2.2208 232.038 11.0785 5.51285 19.7245
371 1 -1.1104 15.9994 12.2947 18.5752 24.1455
372 2 2.2208 232.038 2.49779 11.2415 16.8435
373 2 2.2208 232.038 2.59086 8.50279 19.818
9671 2 2.2208 232.038 -0.11693 -2.7343 22.4003
375 2 2.2208 232.038 5.26289 8.57365 16.9664
376 2 2.2208 232.038 8.1937 11.5061 16.7195
377 2 2.2208 232.038 8.45439 8.51827 19.4558
378 2 2.2208 232.038 5.46724 11.2522 19.5125
379 2 2.2208 232.038 11.2545 8.41693 16.833
380 2 2.2208 232.038 11.1096 11.4586 19.5584
381 1 -1.1104 15.9994 12.5969 15.4775 26.7257
382 2 2.2208 232.038 2.56758 16.8312 16.8342
383 2 2.2208 232.038 2.45049 14.0089 19.8618
656 1 -1.1104 15.9994 6.87517 15.6897 26.4537
385 2 2.2208 232.038 5.44865 14.192 16.7185
386 2 2.2208 232.038 8.36268 17.1492 16.9003
387 2 2.2208 232.038 8.21523 14.1898 19.6893
388 2 2.2208 232.038 5.52137 16.9319 19.6761
389 2 2.2208 232.038 11.0689 14.3642 16.7465
390 2 2.2208 232.038 11.4086 17.0244 19.6052
391 1 -1.1104 15.9994 12.4721 21.3229 26.6637
392 2 2.2208 232.038 2.64598 22.5263 16.7364
393 2 2.2208 232.038 2.63675 19.6344 19.973
25 2 2.2208 232.038 5.6992 8.48579 27.9057
395 2 2.2208 232.038 5.20208 19.7016 16.7879
396 2 2.2208 232.038 8.13392 22.4595 16.8137
397 2 2.2208 232.038 8.22528 19.7937 19.617
398 2 2.2208 232.038 5.30736 22.5783 19.6525
399 2 2.2208 232.038 11.1134 19.7992 16.7894
400 2 2.2208 232.038 10.8948 22.6403 19.6545
401 1 -1.1104 15.9994 12.439 15.772 24.1361
402 2 2.2208 232.038 2.52575 0.109755 22.3598
655 1 -1.1104 15.9994 9.68498 15.645 23.8486
404 1 -1.1104 15.9994 9.89111 18.2338 26.8867
9692 2 2.2208 232.038 -0.0783497 -2.74061 27.7647
406 2 2.2208 232.038 8.35823 -0.0512939 22.2341
654 1 -1.1104 15.9994 6.84784 15.5633 23.8472
408 2 2.2208 232.038 5.49618 0.0572271 25.1581
670 2 2.2208 232.038 5.56749 14.1424 27.9926
410 2 2.2208 232.038 11.1349 -0.147117 25.2796
411 1 -1.1104 15.9994 7.01278 18.5384 26.8482
412 2 2.2208 232.038 2.552 5.71912 22.5729
413 2 2.2208 232.038 2.77573 3.00754 25.1198
414 1 -1.1104 15.9994 9.69404 18.5134 23.851
415 2 2.2208 232.038 5.75352 2.70043 22.2573
416 2 2.2208 232.038 8.3355 5.67825 22.2155
417 2 2.2208 232.038 8.50391 2.97074 25.2428
418 2 2.2208 232.038 5.57797 5.43972 25.0437
419 2 2.2208 232.038 11.1533 2.87275 22.2393
420 2 2.2208 232.038 11.2715 5.82804 25.4396
421 1 -1.1104 15.9994 7.00303 18.3173 23.8378
422 2 2.2208 232.038 2.24811 11.2259 22.4659
423 2 2.2208 232.038 2.78268 8.65225 25.3796
424 1 -1.1104 15.9994 9.75935 15.5849 26.4717
425 2 2.2208 232.038 5.63507 8.64288 22.4458
426 2 2.2208 232.038 8.26083 11.3882 22.519
427 2 2.2208 232.038 8.48919 8.57962 25.2438
428 2 2.2208 232.038 5.45939 11.5742 25.3715
429 2 2.2208 232.038 11.3776 8.49068 22.3292
430 2 2.2208 232.038 11.2129 11.2782 25.3661
9690 2 2.2208 232.038 -0.116136 3.03071 28.0241
432 2 2.2208 232.038 2.67778 17.074 22.626
433 2 2.2208 232.038 2.60526 14.2214 25.3826
9349 2 2.2208 232.038 13.8833 5.57225 16.762
435 2 2.2208 232.038 5.34466 14.0964 22.529
436 2 2.2208 232.038 8.23674 16.9936 22.4533
437 2 2.2208 232.038 8.24232 14.2324 25.1219
438 2 2.2208 232.038 5.48923 17.012 25.3264
439 2 2.2208 232.038 11.0527 14.4539 22.6905
440 2 2.2208 232.038 10.9747 17.0729 25.3119
651 1 -1.1104 15.9994 4.19217 18.2564 23.8168
442 1 -1.1104 15.9994 12.6477 21.3309 23.9712
443 2 2.2208 232.038 2.67284 19.9533 25.0933
653 1 -1.1104 15.9994 4.2001 18.3719 26.7325
445 2 2.2208 232.038 5.42952 19.8895 22.5192
446 2 2.2208 232.038 8.2051 22.5717 22.5044
447 2 2.2208 232.038 8.29838 19.8465 25.1896
448 2 2.2208 232.038 5.19136 22.6665 25.2122
449 2 2.2208 232.038 11.2314 19.8344 22.5083
450 2 2.2208 232.038 11.0688 22.8144 25.2562
451 1 -1.1104 15.9994 1.61641 -1.66962 15.2544
452 1 -1.1104 15.9994 4.39045 -1.50203 15.3365
453 1 -1.1104 15.9994 1.57781 1.29523 15.1322
454 1 -1.1104 15.9994 4.34292 1.0422 15.2061
455 1 -1.1104 15.9994 7.05898 -1.52664 15.3574
456 1 -1.1104 15.9994 9.59839 -1.45272 15.442
457 1 -1.1104 15.9994 7.09245 1.20626 15.1831
458 1 -1.1104 15.9994 9.86402 1.17174 15.1099
459 1 -1.1104 15.9994 12.6635 -1.48186 15.2157
460 1 -1.1104 15.9994 12.8339 1.43123 15.1051
461 1 -1.1104 15.9994 1.15797 3.99883 15.4621
462 1 -1.1104 15.9994 4.03858 3.92104 15.3776
463 1 -1.1104 15.9994 1.3391 6.65284 15.348
464 1 -1.1104 15.9994 4.05436 6.90661 15.4936
465 1 -1.1104 15.9994 6.95758 4.10652 15.2182
466 1 -1.1104 15.9994 9.62423 4.22505 15.2025
467 1 -1.1104 15.9994 6.85519 6.8546 15.5514
468 1 -1.1104 15.9994 9.71041 6.94913 15.4983
469 1 -1.1104 15.9994 12.392 4.21235 15.2691
470 1 -1.1104 15.9994 12.5552 6.99108 15.1724
471 1 -1.1104 15.9994 0.862366 9.37822 15.4864
472 1 -1.1104 15.9994 3.89853 9.90327 15.4149
473 1 -1.1104 15.9994 1.25468 12.7479 15.2931
474 1 -1.1104 15.9994 3.82267 12.5946 15.4091
475 1 -1.1104 15.9994 6.79372 10.0171 15.5649
476 1 -1.1104 15.9994 9.96188 9.5662 15.1377
477 1 -1.1104 15.9994 6.59088 12.7228 15.3328
478 1 -1.1104 15.9994 9.47784 12.6314 15.4417
479 1 -1.1104 15.9994 12.6546 9.91402 15.5077
480 1 -1.1104 15.9994 12.4712 12.8389 15.4062
481 1 -1.1104 15.9994 1.31412 15.4633 15.2622
482 1 -1.1104 15.9994 4.15105 15.5729 15.556
483 1 -1.1104 15.9994 1.46935 18.2366 15.2817
484 1 -1.1104 15.9994 4.29319 18.428 15.0137
485 1 -1.1104 15.9994 6.92533 15.5916 15.4874
486 1 -1.1104 15.9994 9.65155 15.706 15.1074
487 1 -1.1104 15.9994 7.21926 18.2527 15.179
488 1 -1.1104 15.9994 9.83511 18.7066 15.337
489 1 -1.1104 15.9994 12.3375 15.5125 15.2539
490 1 -1.1104 15.9994 12.3831 18.1174 15.5342
491 1 -1.1104 15.9994 1.25926 21.2891 15.493
492 1 -1.1104 15.9994 3.9878 21.1656 15.3113
493 1 -1.1104 15.9994 6.83729 21.1087 15.3157
494 1 -1.1104 15.9994 9.65081 21.3228 15.2992
495 1 -1.1104 15.9994 12.5463 21.1344 15.2308
496 1 -1.1104 15.9994 1.1788 -1.23492 18.1735
497 1 -1.1104 15.9994 4.25919 -1.5285 17.8887
498 1 -1.1104 15.9994 1.04367 -1.25226 20.932
499 1 -1.1104 15.9994 3.74225 -1.36895 20.829
500 1 -1.1104 15.9994 1.55841 1.41589 17.9737
501 1 -1.1104 15.9994 4.03551 1.08297 17.896
502 1 -1.1104 15.9994 1.21855 1.51967 20.8531
503 1 -1.1104 15.9994 4.20731 1.14451 20.8709
504 1 -1.1104 15.9994 7.01949 -1.53432 18.2318
505 1 -1.1104 15.9994 9.83425 -1.6514 18.2677
506 1 -1.1104 15.9994 6.74386 -1.54813 20.9216
507 1 -1.1104 15.9994 9.77523 -1.54157 21.0988
508 1 -1.1104 15.9994 7.02279 1.32901 17.9271
509 1 -1.1104 15.9994 10.0803 1.02186 18.1538
510 1 -1.1104 15.9994 7.07541 1.61131 20.6914
511 1 -1.1104 15.9994 9.95689 1.46847 20.8569
512 1 -1.1104 15.9994 12.7549 -1.58754 18.2192
513 1 -1.1104 15.9994 12.7425 -1.80386 20.889
514 1 -1.1104 15.9994 12.7185 1.0308 17.9968
515 1 -1.1104 15.9994 12.4738 1.15607 20.9593
516 1 -1.1104 15.9994 1.17581 4.15544 18.3617
517 1 -1.1104 15.9994 4.0484 4.09148 18.1266
518 1 -1.1104 15.9994 1.36513 4.2344 21.2537
519 1 -1.1104 15.9994 4.22025 4.14219 20.952
520 1 -1.1104 15.9994 1.27949 6.92944 18.362
521 1 -1.1104 15.9994 4.20412 6.984 18.1592
522 1 -1.1104 15.9994 1.12431 7.00866 21.4461
523 1 -1.1104 15.9994 3.82083 7.09107 21.0234
524 1 -1.1104 15.9994 6.98926 4.08433 18.1008
525 1 -1.1104 15.9994 9.69877 3.8049 17.8942
526 1 -1.1104 15.9994 7.17693 4.26132 20.7075
527 1 -1.1104 15.9994 9.67203 4.32495 20.7534
528 1 -1.1104 15.9994 6.98992 7.13026 18.166
529 1 -1.1104 15.9994 9.71358 6.83118 18.2442
530 1 -1.1104 15.9994 6.83837 7.17743 20.9463
531 1 -1.1104 15.9994 9.95708 6.98967 21.0632
532 1 -1.1104 15.9994 12.4006 4.15315 18.1147
533 1 -1.1104 15.9994 12.5837 4.18587 20.9239
534 1 -1.1104 15.9994 12.6318 6.91638 18.1483
535 1 -1.1104 15.9994 12.5282 6.90631 20.8827
536 1 -1.1104 15.9994 1.48733 9.68094 18.0668
537 1 -1.1104 15.9994 4.04773 9.78222 18.2078
538 1 -1.1104 15.9994 1.04645 9.67094 21.0913
539 1 -1.1104 15.9994 3.97036 9.84122 20.8866
540 1 -1.1104 15.9994 0.949902 12.6297 18.2588
541 1 -1.1104 15.9994 3.78072 12.525 18.4933
542 1 -1.1104 15.9994 0.899993 12.6187 21.082
543 1 -1.1104 15.9994 3.73401 12.5605 21.4038
544 1 -1.1104 15.9994 6.94251 10.0923 18.3084
545 1 -1.1104 15.9994 9.74533 9.9782 18.1155
546 1 -1.1104 15.9994 6.94703 10.1154 21.0019
547 1 -1.1104 15.9994 9.77798 10.0122 20.9844
548 1 -1.1104 15.9994 6.80747 12.7855 18.0192
549 1 -1.1104 15.9994 9.69772 12.8442 18.2838
550 1 -1.1104 15.9994 6.81603 12.7199 21.206
551 1 -1.1104 15.9994 9.7268 12.9951 20.9993
552 1 -1.1104 15.9994 12.3702 9.83354 18.288
553 1 -1.1104 15.9994 12.53 10.034 20.9392
554 1 -1.1104 15.9994 12.759 12.5303 18.2668
555 1 -1.1104 15.9994 12.4435 12.7373 20.8941
556 1 -1.1104 15.9994 0.985724 15.1408 18.5886
557 1 -1.1104 15.9994 3.81412 15.2467 18.3451
558 1 -1.1104 15.9994 1.0903 15.5238 21.4667
559 1 -1.1104 15.9994 4.08672 15.5616 21.0913
560 1 -1.1104 15.9994 1.39716 18.108 18.41
561 1 -1.1104 15.9994 4.18814 17.9904 18.1138
562 1 -1.1104 15.9994 1.12241 18.2739 21.3219
563 1 -1.1104 15.9994 4.23096 18.1576 21.2152
564 1 -1.1104 15.9994 6.76562 15.4621 18.2994
565 1 -1.1104 15.9994 9.56367 15.4958 18.1888
566 1 -1.1104 15.9994 6.98017 15.7028 20.9503
567 1 -1.1104 15.9994 9.5941 15.7866 21.0746
568 1 -1.1104 15.9994 6.79294 18.5081 18.2079
569 1 -1.1104 15.9994 9.83637 18.3012 18.2655
570 1 -1.1104 15.9994 6.68506 18.4958 20.9796
571 1 -1.1104 15.9994 9.65476 18.4364 20.9826
572 1 -1.1104 15.9994 12.5742 15.4581 18.4105
573 1 -1.1104 15.9994 12.3827 15.6866 21.2591
574 1 -1.1104 15.9994 12.6383 18.3639 18.4872
575 1 -1.1104 15.9994 12.7554 18.416 21.2805
576 1 -1.1104 15.9994 0.929658 21.0916 20.4524
577 1 -1.1104 15.9994 3.5344 20.6197 18.2066
9676 2 2.2208 232.038 0.0228268 11.4948 25.555
579 1 -1.1104 15.9994 4.12108 21.1148 21.1501
580 1 -1.1104 15.9994 6.40757 21.3036 17.8826
581 1 -1.1104 15.9994 9.51017 20.8061 17.9942
582 1 -1.1104 15.9994 6.87021 21.3667 20.8939
583 1 -1.1104 15.9994 9.71699 21.2736 21.0324
584 1 -1.1104 15.9994 12.645 20.8906 18.1981
585 1 -1.1104 15.9994 12.4928 21.1146 21.0839
586 1 -1.1104 15.9994 1.21352 -1.2517 23.6181
587 1 -1.1104 15.9994 4.3168 -1.44885 23.6069
588 1 -1.1104 15.9994 1.43079 -1.32818 26.4059
589 1 -1.1104 15.9994 4.32886 -1.54527 26.3693
590 1 -1.1104 15.9994 1.25221 1.43127 23.7073
591 1 -1.1104 15.9994 4.11094 1.46762 23.7899
592 1 -1.1104 15.9994 1.58413 1.37945 26.2298
593 1 -1.1104 15.9994 4.22703 1.32179 26.5474
594 1 -1.1104 15.9994 7.07651 -1.66509 23.6422
595 1 -1.1104 15.9994 9.83918 -1.32592 23.8382
596 1 -1.1104 15.9994 7.03633 -1.52621 26.6953
597 1 -1.1104 15.9994 9.7478 -1.42646 26.5735
598 1 -1.1104 15.9994 6.89404 1.21099 23.5951
599 1 -1.1104 15.9994 9.7424 1.45868 23.7223
600 1 -1.1104 15.9994 6.9006 1.41941 26.4477
601 1 -1.1104 15.9994 9.72373 1.64467 26.7647
602 1 -1.1104 15.9994 12.6787 -1.39772 23.693
603 1 -1.1104 15.9994 12.9621 -1.61195 26.4676
604 1 -1.1104 15.9994 12.5918 1.37246 23.7924
605 1 -1.1104 15.9994 12.5196 1.05019 26.7105
606 1 -1.1104 15.9994 1.20507 4.16944 24.1413
607 1 -1.1104 15.9994 3.91171 4.48408 23.7584
608 1 -1.1104 15.9994 1.39565 4.30132 26.7177
609 1 -1.1104 15.9994 4.1474 4.22593 26.3512
610 1 -1.1104 15.9994 1.05658 7.03849 24.1904
611 1 -1.1104 15.9994 4.36448 7.1512 24.0858
612 1 -1.1104 15.9994 1.24029 7.18792 26.8203
613 1 -1.1104 15.9994 4.01604 7.32102 26.76
614 1 -1.1104 15.9994 6.96118 4.00768 23.7211
615 1 -1.1104 15.9994 9.94832 4.47684 23.6835
616 1 -1.1104 15.9994 7.15122 4.07169 26.6023
617 1 -1.1104 15.9994 9.87791 4.38334 26.4412
618 1 -1.1104 15.9994 7.32227 7.09344 23.856
619 1 -1.1104 15.9994 10.0914 7.38721 24.1557
620 1 -1.1104 15.9994 6.98799 6.75237 26.7445
621 1 -1.1104 15.9994 9.82705 6.96474 26.6351
622 1 -1.1104 15.9994 12.5617 4.25407 23.9524
623 1 -1.1104 15.9994 12.5681 4.20345 26.6718
624 1 -1.1104 15.9994 12.8182 7.03954 23.827