ITEM: TIMESTEP
240000
ITEM: NUMBER OF ATOMS
18000
ITEM: BOX BOUNDS xy xz yz pp pp pp
-2.2515708554285579e-01 2.8119157085541538e+01 0.0000000000000000e+00
-2.6909715471943501e+00 3.3741897154716537e+02 0.0000000000000000e+00
-2.3786983762307984e-01 2.8131869837622620e+01 0.0000000000000000e+00
ITEM: ATOMS id type q mass x y z
7 2 2.2208 232.038 8.3776 -2.46512 2.52658
324 1 -1.1104 15.9994 12.5577 4.39365 12.9756
9091 2 2.2208 232.038 13.9273 11.333 11.0583
4 1 -1.1104 15.9994 12.7053 21.4896 12.6947
323 1 -1.1104 15.9994 9.61965 7.27762 12.6061
322 1 -1.1104 15.9994 6.73804 7.16064 12.6644
671 2 2.2208 232.038 8.18604 17.1603 -0.260007
8 2 2.2208 232.038 5.48802 0.295749 2.81721
9 1 -1.1104 15.9994 12.4978 7.20044 12.6341
10 2 2.2208 232.038 11.2561 0.133522 2.53616
11 1 -1.1104 15.9994 9.82069 21.4413 12.5028
321 1 -1.1104 15.9994 9.74752 4.40401 12.8712
13 2 2.2208 232.038 2.66347 3.00527 2.58021
14 1 -1.1104 15.9994 6.84279 21.1336 12.5546
55 2 2.2208 232.038 5.48134 -2.49583 5.51833
53 2 2.2208 232.038 2.97038 -2.56592 8.5663
17 2 2.2208 232.038 8.30165 3.03333 2.54279
18 2 2.2208 232.038 5.31064 5.9325 2.71272
103 2 2.2208 232.038 5.48169 -2.68858 11.41
20 2 2.2208 232.038 10.9905 5.92352 2.88492
21 1 -1.1104 15.9994 4.23308 21.4249 12.4452
22 1 -1.1104 15.9994 0.94009 15.4921 12.6462
23 2 2.2208 232.038 2.57526 8.57894 2.59794
320 1 -1.1104 15.9994 6.79813 4.28781 12.7579
3 2 2.2208 232.038 2.68383 -2.58125 2.76327
9032 2 2.2208 232.038 13.768 -2.49692 8.38155
27 2 2.2208 232.038 8.28606 8.61922 2.56252
28 2 2.2208 232.038 5.50028 11.3531 2.56453
8998 2 2.2208 232.038 -0.189866 0.255499 8.39265
30 2 2.2208 232.038 11.09 11.4568 2.43562
31 1 -1.1104 15.9994 12.4464 12.972 12.5858
32 1 -1.1104 15.9994 12.617 10.2063 12.5211
33 2 2.2208 232.038 2.76873 14.2157 2.8402
121 2 2.2208 232.038 -0.0172785 19.8787 11.0734
35 1 -1.1104 15.9994 9.52572 12.9535 12.5591
36 1 -1.1104 15.9994 6.83706 12.9618 12.5366
37 2 2.2208 232.038 8.35736 14.1184 2.48169
38 2 2.2208 232.038 5.32634 17.2462 2.36731
39 1 -1.1104 15.9994 9.80282 10.2849 12.5708
40 2 2.2208 232.038 11.0039 17.0588 2.29313
41 1 -1.1104 15.9994 7.06464 9.86794 12.5562
42 1 -1.1104 15.9994 4.16527 12.7299 12.6596
43 2 2.2208 232.038 2.5334 19.9144 2.4753
319 1 -1.1104 15.9994 4.01857 7.331 12.752
45 1 -1.1104 15.9994 1.1441 12.8007 12.4648
46 1 -1.1104 15.9994 3.80785 9.9575 12.4757
47 2 2.2208 232.038 8.26088 20.0238 2.41169
48 2 2.2208 232.038 5.37171 22.9361 2.21325
49 1 -1.1104 15.9994 1.11538 10.0745 12.3898
50 2 2.2208 232.038 11.1842 22.8588 2.37282
51 1 -1.1104 15.9994 1.48521 21.3235 12.4546
52 2 2.2208 232.038 2.83492 0.39828 5.50703
9904 1 -1.1104 15.9994 13.7894 22.9663 7.93945
54 1 -1.1104 15.9994 12.541 18.5106 12.5352
348 2 2.2208 232.038 8.34468 20.0543 13.8153
56 2 2.2208 232.038 8.20433 0.339831 5.64992
15 2 2.2208 232.038 13.8433 14.4035 2.32843
58 2 2.2208 232.038 5.54219 0.375748 8.49356
670 2 2.2208 232.038 5.34074 14.3594 -0.180502
60 2 2.2208 232.038 11.0855 0.0225214 8.48922
61 1 -1.1104 15.9994 12.343 15.5693 12.4245
62 2 2.2208 232.038 2.42557 6.24458 5.41283
63 2 2.2208 232.038 2.6887 3.25855 8.27373
64 1 -1.1104 15.9994 9.72766 18.532 12.4888
65 2 2.2208 232.038 5.37269 3.23704 5.4097
66 2 2.2208 232.038 8.32582 5.91128 5.69597
67 2 2.2208 232.038 8.34264 2.98832 8.43006
68 2 2.2208 232.038 5.50086 5.78808 8.48467
69 2 2.2208 232.038 10.9991 2.93129 5.42065
70 2 2.2208 232.038 11.0526 5.82688 8.50176
71 1 -1.1104 15.9994 7.00081 18.5529 12.3966
72 2 2.2208 232.038 2.69889 11.4662 5.6623
73 2 2.2208 232.038 2.35787 8.77515 8.34794
74 1 -1.1104 15.9994 9.61179 15.5532 12.5136
75 2 2.2208 232.038 5.36813 8.67652 5.53
76 2 2.2208 232.038 8.12115 11.4902 5.45692
77 2 2.2208 232.038 8.07915 8.67304 8.18059
78 2 2.2208 232.038 5.16408 11.7348 8.28315
79 2 2.2208 232.038 11.081 8.76447 5.43998
80 2 2.2208 232.038 11.0399 11.6335 8.20475
318 1 -1.1104 15.9994 1.25224 7.09756 12.425
82 2 2.2208 232.038 2.68398 17.0682 5.27887
83 2 2.2208 232.038 2.37439 14.2277 8.15147
1 2 2.2208 232.038 13.9197 22.7511 5.31845
85 2 2.2208 232.038 5.57567 14.423 5.27577
86 2 2.2208 232.038 8.38988 17.2422 5.24974
87 2 2.2208 232.038 8.43337 14.3797 8.28231
88 2 2.2208 232.038 5.45706 17.1423 8.23455
89 2 2.2208 232.038 11.0865 14.4241 5.33074
90 2 2.2208 232.038 10.9846 17.2385 8.09209
8992 2 2.2208 232.038 13.9007 3.13015 3.0507
92 2 2.2208 232.038 2.77932 22.8398 5.06977
93 2 2.2208 232.038 2.7297 19.8526 7.94602
8987 2 2.2208 232.038 -0.214323 -2.51402 10.9279
95 2 2.2208 232.038 5.736 20.0572 5.29138
96 2 2.2208 232.038 8.33013 22.9701 5.1997
97 2 2.2208 232.038 8.19996 19.9369 8.09369
98 2 2.2208 232.038 5.17992 22.7969 8.32337
99 2 2.2208 232.038 11.1746 19.9259 5.18016
100 2 2.2208 232.038 11.5106 22.5499 8.25522
101 1 -1.1104 15.9994 6.85076 15.6204 12.5874
102 2 2.2208 232.038 2.88518 0.155112 11.1684
343 2 2.2208 232.038 8.25902 14.1366 13.8523
104 2 2.2208 232.038 8.4397 0.274038 11.4089
9161 1 -1.1104 15.9994 1.21571 10.1204 4.03098
106 1 -1.1104 15.9994 4.05095 18.5428 12.2977
107 2 2.2208 232.038 2.6914 6.08206 11.199
108 2 2.2208 232.038 5.34869 3.1355 11.4115
109 2 2.2208 232.038 8.3313 5.91929 11.0981
110 2 2.2208 232.038 11.1507 3.16495 11.4116
111 1 -1.1104 15.9994 1.31215 18.3811 12.4545
112 2 2.2208 232.038 2.40097 11.3963 10.965
113 2 2.2208 232.038 5.4548 8.55902 11.3111
114 2 2.2208 232.038 8.09093 11.4342 10.8667
115 2 2.2208 232.038 11.1039 8.73039 11.0573
116 1 -1.1104 15.9994 3.92124 15.6784 12.3373
117 2 2.2208 232.038 2.61967 17.1048 10.7187
118 2 2.2208 232.038 5.47103 14.4662 11.1641
119 2 2.2208 232.038 8.35905 17.1746 11.1093
120 2 2.2208 232.038 11.1582 14.2002 10.9906
661 2 2.2208 232.038 8.29427 0.19508 -0.227325
122 2 2.2208 232.038 2.57837 22.8659 11.1095
123 2 2.2208 232.038 5.19175 19.9744 11.0071
124 2 2.2208 232.038 7.9961 22.8732 11.1605
125 2 2.2208 232.038 11.1875 20.0194 11.0244
126 1 -1.1104 15.9994 1.02086 -1.31652 1.32353
127 1 -1.1104 15.9994 3.96493 -1.14697 1.40129
128 1 -1.1104 15.9994 1.27906 -1.18695 4.19524
129 1 -1.1104 15.9994 4.16186 -1.04431 4.39233
130 1 -1.1104 15.9994 1.06329 1.48929 1.48822
131 1 -1.1104 15.9994 3.94989 1.58486 1.1863
132 1 -1.1104 15.9994 1.34234 1.5788 4.36119
133 1 -1.1104 15.9994 3.98886 1.77527 4.10405
134 1 -1.1104 15.9994 6.83606 -1.09661 1.20208
135 1 -1.1104 15.9994 9.58664 -1.32204 0.876752
136 1 -1.1104 15.9994 7.03039 -1.0228 4.27148
137 1 -1.1104 15.9994 10.0573 -1.36766 3.7112
138 1 -1.1104 15.9994 6.6751 1.52243 1.28734
139 1 -1.1104 15.9994 9.94804 1.58671 1.39943
140 1 -1.1104 15.9994 6.66005 1.66257 4.1418
141 1 -1.1104 15.9994 9.53293 1.45461 4.3248
142 1 -1.1104 15.9994 12.4598 -1.03883 1.19214
143 1 -1.1104 15.9994 12.6791 -1.61633 4.33165
144 1 -1.1104 15.9994 12.747 1.70305 1.2041
145 1 -1.1104 15.9994 12.3552 1.34494 4.18445
146 1 -1.1104 15.9994 1.53516 4.30279 1.23232
147 1 -1.1104 15.9994 4.11977 4.56706 1.17396
148 1 -1.1104 15.9994 1.18595 4.66732 3.97733
149 1 -1.1104 15.9994 3.8445 4.5095 4.14153
150 1 -1.1104 15.9994 1.37742 7.38774 1.07217
151 1 -1.1104 15.9994 4.03622 7.23938 1.18025
152 1 -1.1104 15.9994 1.1639 7.4377 6.93391
153 1 -1.1104 15.9994 3.97862 7.45584 3.93147
154 1 -1.1104 15.9994 7.0575 4.09975 1.08013
155 1 -1.1104 15.9994 9.6404 4.34095 1.02382
156 1 -1.1104 15.9994 6.9346 4.55039 4.01569
157 1 -1.1104 15.9994 9.79552 4.2188 3.84559
158 1 -1.1104 15.9994 6.86411 6.98702 1.33765
159 1 -1.1104 15.9994 9.72741 7.49963 1.38706
160 1 -1.1104 15.9994 6.64346 7.16932 4.09759
161 1 -1.1104 15.9994 9.49599 7.26989 4.17508
162 1 -1.1104 15.9994 12.3756 4.38945 1.58725
163 1 -1.1104 15.9994 12.5014 4.36812 4.55944
164 1 -1.1104 15.9994 12.2952 7.30617 1.29938
165 1 -1.1104 15.9994 12.3742 7.23958 4.11202
166 1 -1.1104 15.9994 0.902922 10.1324 1.22003
167 1 -1.1104 15.9994 4.04767 9.99492 1.04499
168 1 -1.1104 15.9994 1.16802 7.29404 3.94898
169 1 -1.1104 15.9994 3.98348 10.1791 3.99588
170 1 -1.1104 15.9994 1.05967 13.2204 1.31429
171 1 -1.1104 15.9994 3.72624 12.798 1.30591
172 1 -1.1104 15.9994 1.18083 12.9257 4.12014
173 1 -1.1104 15.9994 4.28794 12.8413 4.19823
174 1 -1.1104 15.9994 6.87386 9.98596 1.23237
175 1 -1.1104 15.9994 9.65718 10.0518 0.864575
176 1 -1.1104 15.9994 6.87189 10.0178 4.20585
177 1 -1.1104 15.9994 9.50973 10.2386 3.9879
178 1 -1.1104 15.9994 6.8307 12.9226 1.01253
179 1 -1.1104 15.9994 12.5366 13.015 0.904132
180 1 -1.1104 15.9994 7.001 12.6667 3.69718
181 1 -1.1104 15.9994 9.56991 12.8324 4.06412
182 1 -1.1104 15.9994 12.6397 9.98795 1.31995
183 1 -1.1104 15.9994 12.1387 10.3093 4.21605
677 1 -1.1104 15.9994 9.82165 12.6789 1.05157
185 1 -1.1104 15.9994 12.3528 13.291 3.9038
186 1 -1.1104 15.9994 1.30382 15.746 1.14017
187 1 -1.1104 15.9994 4.1741 15.7528 1.17729
188 1 -1.1104 15.9994 1.31606 15.735 3.92373
189 1 -1.1104 15.9994 4.06636 15.8162 3.83401
190 1 -1.1104 15.9994 0.978933 18.4489 1.23007
191 1 -1.1104 15.9994 3.75242 18.8421 1.06617
192 1 -1.1104 15.9994 1.21447 18.6054 3.98041
193 1 -1.1104 15.9994 3.90577 18.2578 3.84231
194 1 -1.1104 15.9994 6.94728 15.9587 1.21636
195 1 -1.1104 15.9994 9.61059 15.558 1.08924
196 1 -1.1104 15.9994 6.79312 15.522 3.64924
197 1 -1.1104 15.9994 9.62271 15.9097 3.87954
198 1 -1.1104 15.9994 6.79256 18.7413 1.09817
199 1 -1.1104 15.9994 9.62607 18.5358 1.23063
200 1 -1.1104 15.9994 6.77806 18.6065 3.87732
201 1 -1.1104 15.9994 9.73645 18.7016 3.90453
202 1 -1.1104 15.9994 12.3644 15.9264 0.793326
203 1 -1.1104 15.9994 12.4093 16.0053 3.91162
204 1 -1.1104 15.9994 12.3599 18.6118 1.08724
205 1 -1.1104 15.9994 12.4734 18.6325 3.9739
206 1 -1.1104 15.9994 1.41541 21.8445 1.30025
207 1 -1.1104 15.9994 4.21249 21.5906 0.822497
208 1 -1.1104 15.9994 1.18399 21.6125 3.91472
209 1 -1.1104 15.9994 4.43103 21.2136 3.65732
210 1 -1.1104 15.9994 6.98752 21.6859 1.03542
211 1 -1.1104 15.9994 9.82204 21.6795 0.741158
212 1 -1.1104 15.9994 7.19039 21.5062 3.9469
213 1 -1.1104 15.9994 9.67124 21.474 3.41528
214 1 -1.1104 15.9994 12.4078 21.5009 1.12647
215 1 -1.1104 15.9994 12.4668 21.6216 3.94012
216 1 -1.1104 15.9994 1.37212 -1.30596 7.0694
217 1 -1.1104 15.9994 4.20475 -1.19338 7.01479
218 1 -1.1104 15.9994 1.11951 -1.31869 12.7649
219 1 -1.1104 15.9994 4.27185 -1.20592 9.86846
220 1 -1.1104 15.9994 1.04029 1.58489 7.12163
221 1 -1.1104 15.9994 4.09998 1.73881 7.03711
222 1 -1.1104 15.9994 1.26814 -1.07124 10.0151
223 1 -1.1104 15.9994 4.13817 1.76714 9.76223
224 1 -1.1104 15.9994 6.9531 -1.18899 7.09305
225 1 -1.1104 15.9994 9.80835 -1.46872 6.801
226 1 -1.1104 15.9994 7.039 -1.41891 9.92274
227 1 -1.1104 15.9994 9.65868 -1.34657 9.73469
228 1 -1.1104 15.9994 6.85989 1.71503 6.89297
229 1 -1.1104 15.9994 9.70929 1.44559 7.12435
230 1 -1.1104 15.9994 7.07792 1.54769 9.92519
231 1 -1.1104 15.9994 9.97375 1.55492 9.95599
232 1 -1.1104 15.9994 12.485 -1.33506 6.95704
233 1 -1.1104 15.9994 12.577 -1.36986 9.78616
234 1 -1.1104 15.9994 12.5583 1.48176 6.97167
235 1 -1.1104 15.9994 12.7942 1.61871 9.9071
236 1 -1.1104 15.9994 1.10453 4.4348 9.55995
237 1 -1.1104 15.9994 4.14125 4.47491 6.73066
238 1 -1.1104 15.9994 1.31582 1.57398 9.75648
239 1 -1.1104 15.9994 3.84335 4.5568 9.99537
240 1 -1.1104 15.9994 1.32434 4.58879 6.60587
241 1 -1.1104 15.9994 3.98445 7.34483 6.75473
242 1 -1.1104 15.9994 1.01011 7.26417 9.82652
243 1 -1.1104 15.9994 3.90228 7.33902 9.81917
244 1 -1.1104 15.9994 6.90436 4.35193 7.03415
245 1 -1.1104 15.9994 9.76916 4.20654 6.97542
246 1 -1.1104 15.9994 6.89228 4.49326 9.90603
247 1 -1.1104 15.9994 9.60073 4.46437 9.81366
248 1 -1.1104 15.9994 6.85484 7.14176 6.90135
249 1 -1.1104 15.9994 9.7155 7.2042 6.90861
250 1 -1.1104 15.9994 6.64647 7.15508 9.78321
251 1 -1.1104 15.9994 9.71676 7.16013 9.90639
252 1 -1.1104 15.9994 12.6082 4.43406 7.26364
253 1 -1.1104 15.9994 12.5057 4.52224 10.0386
254 1 -1.1104 15.9994 12.3279 7.31565 7.11861
255 1 -1.1104 15.9994 12.5516 7.21664 9.86976
256 1 -1.1104 15.9994 0.850328 10.3158 6.87348
257 1 -1.1104 15.9994 4.00273 9.96508 7.07848
258 1 -1.1104 15.9994 0.969156 10.2521 9.64803
259 1 -1.1104 15.9994 3.85448 10.0043 9.62682
260 1 -1.1104 15.9994 1.19161 12.9216 6.75766
261 1 -1.1104 15.9994 4.10609 12.921 6.85667
262 1 -1.1104 15.9994 1.17111 13.0089 9.69762
263 1 -1.1104 15.9994 3.82734 13.016 9.78956
264 1 -1.1104 15.9994 6.7493 10.1242 6.96489
265 1 -1.1104 15.9994 9.43716 10.0472 7.1689
266 1 -1.1104 15.9994 6.56071 9.97978 9.60693
267 1 -1.1104 15.9994 9.60272 9.86153 9.65656
268 1 -1.1104 15.9994 6.86542 13.3493 6.55726
269 1 -1.1104 15.9994 9.50848 12.7255 6.83585
270 1 -1.1104 15.9994 6.60155 12.7665 9.70252
271 1 -1.1104 15.9994 9.52809 12.6908 9.81301
272 1 -1.1104 15.9994 12.4367 10.1219 6.90293
273 1 -1.1104 15.9994 12.4081 10.0112 9.85955
274 1 -1.1104 15.9994 12.1687 12.9084 6.62168
275 1 -1.1104 15.9994 12.2857 12.812 9.65538
276 1 -1.1104 15.9994 1.21882 15.7067 6.98158
277 1 -1.1104 15.9994 4.00243 15.5201 6.81824
278 1 -1.1104 15.9994 1.02323 15.7615 9.72483
279 1 -1.1104 15.9994 4.09689 15.7265 9.42509
280 1 -1.1104 15.9994 1.29765 18.2627 6.79493
281 1 -1.1104 15.9994 4.11161 18.3779 6.77633
282 1 -1.1104 15.9994 1.2531 18.6952 9.3995
283 1 -1.1104 15.9994 3.88034 18.548 9.51186
284 1 -1.1104 15.9994 6.78982 15.7769 6.64045
285 1 -1.1104 15.9994 9.48965 15.8568 6.83262
286 1 -1.1104 15.9994 6.95961 15.5837 9.81256
287 1 -1.1104 15.9994 9.78276 15.8291 9.74668
288 1 -1.1104 15.9994 6.94223 18.5949 6.90347
289 1 -1.1104 15.9994 9.64354 18.8895 6.86042
290 1 -1.1104 15.9994 6.70669 18.5702 9.59795
291 1 -1.1104 15.9994 9.52037 18.5274 9.81373
292 1 -1.1104 15.9994 12.4624 15.7303 6.70315
293 1 -1.1104 15.9994 12.6007 15.9429 9.44338
294 1 -1.1104 15.9994 12.7453 18.4616 6.7035
295 1 -1.1104 15.9994 12.1426 18.7707 9.17226
296 1 -1.1104 15.9994 1.34106 20.9933 6.78639
297 1 -1.1104 15.9994 4.2059 21.5284 6.64979
298 1 -1.1104 15.9994 0.780632 21.2951 9.53888
299 1 -1.1104 15.9994 3.81141 21.377 9.68762
300 1 -1.1104 15.9994 7.07879 21.6379 6.76574
301 1 -1.1104 15.9994 9.89536 21.6683 6.53786
302 1 -1.1104 15.9994 6.54423 21.2298 9.60878
303 1 -1.1104 15.9994 9.59969 21.3757 9.41773
304 1 -1.1104 15.9994 12.5614 21.1813 6.68629
305 1 -1.1104 15.9994 12.8852 21.2931 9.73417
9329 2 2.2208 232.038 13.7498 14.4224 13.9891
307 1 -1.1104 15.9994 4.14685 -1.052 12.4488
308 1 -1.1104 15.9994 0.930492 1.87107 12.5425
309 1 -1.1104 15.9994 3.85468 1.78881 12.5728
310 1 -1.1104 15.9994 6.77606 -1.26432 12.7866
311 1 -1.1104 15.9994 9.85913 -1.41436 12.5404
312 1 -1.1104 15.9994 6.77281 1.87884 12.7934
313 1 -1.1104 15.9994 9.5967 1.59652 12.8573
314 1 -1.1104 15.9994 12.6266 -0.974947 12.6096
315 1 -1.1104 15.9994 12.3873 1.7075 12.7353
316 1 -1.1104 15.9994 1.16199 4.49216 12.5001
317 1 -1.1104 15.9994 4.21153 4.45598 12.5039
669 2 2.2208 232.038 2.66379 16.9178 -0.233966
9101 2 2.2208 232.038 13.8755 22.886 10.9526
660 2 2.2208 232.038 5.42627 -2.65288 -0.284515
9003 2 2.2208 232.038 0.0300456 -2.54553 5.57852
325 2 2.2208 232.038 5.31692 2.91258 -0.236943
9701 2 2.2208 232.038 13.8971 5.87337 -0.174241
666 2 2.2208 232.038 2.62147 11.5154 -0.0561582
341 2 2.2208 232.038 2.55126 14.2406 13.9015
9052 2 2.2208 232.038 13.7429 8.61847 8.51028
8991 2 2.2208 232.038 13.7025 11.4464 5.45193
8997 2 2.2208 232.038 -0.111978 2.96909 5.5122
9690 2 2.2208 232.038 -0.00788756 3.05959 -0.18228
94 2 2.2208 232.038 -0.201448 22.7995 8.06582
350 2 2.2208 232.038 11.214 22.6949 13.8759
345 2 2.2208 232.038 11.1476 17.0191 13.8441
339 2 2.2208 232.038 5.60294 11.3253 13.8271
9042 2 2.2208 232.038 13.8566 2.88211 8.45185
659 2 2.2208 232.038 2.52255 0.0627974 -0.245215
24 2 2.2208 232.038 -0.133709 11.7155 2.60849
5 2 2.2208 232.038 13.8644 14.2182 8.29973
19 2 2.2208 232.038 11.1756 3.04976 -0.0861441
12 2 2.2208 232.038 13.9444 19.9452 2.41881
2 2 2.2208 232.038 13.9484 19.8687 7.96611
9041 2 2.2208 232.038 13.7974 6.04432 5.74586
8994 2 2.2208 232.038 -0.234715 5.83994 8.27963
81 2 2.2208 232.038 -0.114499 14.5769 5.32596
9663 2 2.2208 232.038 -0.219582 11.5043 13.9188
9096 2 2.2208 232.038 13.6968 17.1074 10.9942
25 2 2.2208 232.038 5.3574 8.52683 -0.238046
26 2 2.2208 232.038 8.11419 11.4632 -0.221882
674 2 2.2208 232.038 2.65788 22.9685 -0.141439
349 2 2.2208 232.038 5.48233 22.8788 13.6651
9692 2 2.2208 232.038 -0.281588 -2.55754 -0.165067
344 2 2.2208 232.038 5.39695 17.1414 13.8107
9004 2 2.2208 232.038 -0.128263 5.85948 2.68054
9031 2 2.2208 232.038 13.836 0.132964 5.49461
331 2 2.2208 232.038 2.32647 3.09073 13.9187
9664 2 2.2208 232.038 -0.032055 17.0875 13.8188
338 2 2.2208 232.038 8.3803 8.44894 13.9455
9671 2 2.2208 232.038 -0.130654 -2.46812 22.5454
327 1 -1.1104 15.9994 6.91162 21.3929 26.5849
657 2 2.2208 232.038 13.6738 22.7519 22.5332
667 2 2.2208 232.038 13.6906 17.0399 27.8242
9677 2 2.2208 232.038 13.9012 0.0947397 28.1476
9400 2 2.2208 232.038 13.8469 2.92244 25.4757
332 1 -1.1104 15.9994 9.52171 21.3743 23.5862
353 2 2.2208 232.038 2.67026 -2.53352 19.7421
329 2 2.2208 232.038 5.44246 0.238679 14.1275
328 2 2.2208 232.038 8.29171 -2.53695 13.9423
647 1 -1.1104 15.9994 3.93182 15.7052 23.9571
337 1 -1.1104 15.9994 6.49648 21.3664 23.3886
444 2 2.2208 232.038 -0.199374 23.038 25.3772
665 2 2.2208 232.038 13.9102 22.8535 28.071
9001 2 2.2208 232.038 13.8829 11.4477 27.9799
16 2 2.2208 232.038 8.18351 5.76846 28.0306
342 1 -1.1104 15.9994 4.2006 21.4526 26.0843
9420 2 2.2208 232.038 13.8378 14.2543 25.1908
359 2 2.2208 232.038 11.0554 -2.58168 16.9461
357 2 2.2208 232.038 8.53661 -2.57449 19.7348
650 1 -1.1104 15.9994 1.05153 18.3846 23.8808
646 1 -1.1104 15.9994 1.13599 15.6279 23.6596
405 2 2.2208 232.038 5.45286 -2.55542 22.5159
663 2 2.2208 232.038 2.64292 5.77382 28.0397
649 1 -1.1104 15.9994 3.85726 15.4959 26.6747
351 1 -1.1104 15.9994 1.28506 21.3759 26.9061
352 2 2.2208 232.038 2.77026 0.0247621 16.8726
662 2 2.2208 232.038 11.0781 -2.64839 28.1305
354 1 -1.1104 15.9994 4.03662 18.7875 23.8302
407 2 2.2208 232.038 8.23304 -2.65539 25.3129
356 2 2.2208 232.038 8.1283 0.0388973 16.9773
652 1 -1.1104 15.9994 1.10436 18.6599 26.4882
358 2 2.2208 232.038 5.42855 0.265163 19.724
9370 2 2.2208 232.038 13.7689 14.3029 19.3736
360 2 2.2208 232.038 11.3139 0.000657926 19.6797
361 1 -1.1104 15.9994 0.96042 21.3489 24.1592
362 2 2.2208 232.038 2.31663 5.9002 16.7714
363 2 2.2208 232.038 2.64065 2.99451 19.7601
364 1 -1.1104 15.9994 12.1978 18.4584 26.6653
365 2 2.2208 232.038 5.07063 2.87197 16.7913
366 2 2.2208 232.038 8.29506 5.72166 17.0613
367 2 2.2208 232.038 8.24686 3.05394 19.9299
368 2 2.2208 232.038 5.18769 5.85856 19.6165
369 2 2.2208 232.038 10.6877 2.97888 17.3043
370 2 2.2208 232.038 11.1357 5.72356 19.7304
371 1 -1.1104 15.9994 12.5526 18.4389 23.7507
372 2 2.2208 232.038 2.81767 11.3341 16.5954
373 2 2.2208 232.038 2.63172 8.62363 19.6408
334 2 2.2208 232.038 5.33435 5.59742 14.223
375 2 2.2208 232.038 5.60235 8.57353 16.5919
376 2 2.2208 232.038 8.37903 11.4054 16.7237
377 2 2.2208 232.038 8.32647 8.38769 19.9015
378 2 2.2208 232.038 5.40748 11.2816 19.4739
379 2 2.2208 232.038 11.1837 8.71917 16.7818
380 2 2.2208 232.038 11.1546 11.3084 19.4976
381 1 -1.1104 15.9994 12.4848 15.544 26.5444
382 2 2.2208 232.038 2.36931 17.0499 16.6941
383 2 2.2208 232.038 2.73209 14.0976 19.543
656 1 -1.1104 15.9994 6.52117 15.8343 26.8137
385 2 2.2208 232.038 5.32676 14.2797 16.7698
386 2 2.2208 232.038 8.09882 17.1803 16.7841
387 2 2.2208 232.038 8.39847 14.0622 19.463
388 2 2.2208 232.038 5.46942 16.8471 19.4752
389 2 2.2208 232.038 10.9001 14.3732 16.4953
390 2 2.2208 232.038 11.1158 17.2619 19.447
391 1 -1.1104 15.9994 12.417 21.3464 26.631
392 2 2.2208 232.038 2.48567 22.7391 16.7719
393 2 2.2208 232.038 2.70152 19.8871 19.3661
9675 2 2.2208 232.038 -0.0498878 8.49671 22.2689
395 2 2.2208 232.038 5.44825 20.0131 16.8038
396 2 2.2208 232.038 8.26974 22.9059 16.7743
397 2 2.2208 232.038 8.13346 19.9258 19.5466
398 2 2.2208 232.038 5.55012 22.8608 19.4864
399 2 2.2208 232.038 11.1665 19.9525 16.6834
400 2 2.2208 232.038 11.0854 22.7666 19.2695
401 1 -1.1104 15.9994 12.2529 15.5993 23.9467
402 2 2.2208 232.038 2.74851 0.160683 22.2707
655 1 -1.1104 15.9994 9.43099 15.5667 24.0551
404 1 -1.1104 15.9994 9.65191 16.0269 26.8417
9360 2 2.2208 232.038 13.7999 8.56893 19.4388
406 2 2.2208 232.038 8.23442 0.036994 22.6045
654 1 -1.1104 15.9994 6.5942 15.9073 23.6581
408 2 2.2208 232.038 5.34325 0.119867 25.4256
648 1 -1.1104 15.9994 1.18336 15.7217 26.5805
410 2 2.2208 232.038 11.1542 0.169785 25.3786
411 1 -1.1104 15.9994 6.86037 18.3714 26.5924
412 2 2.2208 232.038 2.56761 5.72802 22.453
413 2 2.2208 232.038 2.68681 2.92063 25.2418
414 1 -1.1104 15.9994 9.61173 18.6587 26.5947
415 2 2.2208 232.038 5.46054 3.07604 22.7281
416 2 2.2208 232.038 8.15023 5.93387 22.6253
417 2 2.2208 232.038 8.44717 2.98055 25.2685
418 2 2.2208 232.038 5.30868 5.91481 25.2819
419 2 2.2208 232.038 11.0986 2.82095 22.567
420 2 2.2208 232.038 11.2727 5.81697 25.425
421 1 -1.1104 15.9994 9.76654 18.5271 23.6916
422 2 2.2208 232.038 2.61848 11.4415 22.3349
423 2 2.2208 232.038 2.62132 8.69758 25.0389
424 1 -1.1104 15.9994 9.08438 13.1729 26.7754
425 2 2.2208 232.038 5.53747 8.71546 22.6787
426 2 2.2208 232.038 8.26574 11.3329 22.3639
427 2 2.2208 232.038 8.30057 8.75195 25.4591
428 2 2.2208 232.038 5.14325 11.6701 25.2084
429 2 2.2208 232.038 11.1147 8.4163 22.4742
430 2 2.2208 232.038 10.8629 11.51 24.9513
333 2 2.2208 232.038 8.24072 3.10728 14.1779
432 2 2.2208 232.038 2.55443 17.0223 22.6431
433 2 2.2208 232.038 2.61683 14.4741 25.1683
9349 2 2.2208 232.038 13.8105 5.49028 16.7347
435 2 2.2208 232.038 5.42068 13.9368 22.2228
436 2 2.2208 232.038 8.16511 16.7913 22.3203
437 2 2.2208 232.038 7.94369 14.5067 25.381
438 2 2.2208 232.038 5.49021 17.153 25.2461
439 2 2.2208 232.038 11.0835 14.2355 22.3305
440 2 2.2208 232.038 10.8969 17.226 25.1492
651 1 -1.1104 15.9994 6.86192 18.5417 23.7575
442 1 -1.1104 15.9994 12.3439 21.2609 23.5712
443 2 2.2208 232.038 2.46439 19.9497 25.2216
653 1 -1.1104 15.9994 4.06294 18.4995 26.5374
445 2 2.2208 232.038 5.51973 19.8639 22.1675
446 2 2.2208 232.038 8.14909 23.0147 22.293
447 2 2.2208 232.038 8.08619 20.0592 25.2086
448 2 2.2208 232.038 5.66217 23.06 25.2933
449 2 2.2208 232.038 10.9219 19.89 22.2741
450 2 2.2208 232.038 10.8135 23.0145 25.0023
451 1 -1.1104 15.9994 1.02499 -1.19895 15.3106
452 1 -1.1104 15.9994 4.12702 -1.31626 15.6173
453 1 -1.1104 15.9994 1.03994 1.58988 15.2813
454 1 -1.1104 15.9994 3.66215 1.35938 15.1454
455 1 -1.1104 15.9994 6.76327 -1.18653 15.5486
456 1 -1.1104 15.9994 9.80338 -1.14837 15.3076
457 1 -1.1104 15.9994 6.84389 1.61487 15.6178
458 1 -1.1104 15.9994 9.52413 1.4025 15.843
459 1 -1.1104 15.9994 12.568 -1.22019 15.4346
460 1 -1.1104 15.9994 12.7127 1.67612 15.6843
461 1 -1.1104 15.9994 0.618126 4.60481 15.4041
462 1 -1.1104 15.9994 3.5698 4.16319 15.6702
463 1 -1.1104 15.9994 1.04598 7.30418 15.319
464 1 -1.1104 15.9994 3.86683 7.033 15.5976
465 1 -1.1104 15.9994 6.71046 4.23332 15.5341
466 1 -1.1104 15.9994 9.35833 4.08936 15.8599
467 1 -1.1104 15.9994 6.77484 7.05658 15.266
468 1 -1.1104 15.9994 9.68265 6.97452 15.5109
469 1 -1.1104 15.9994 12.1136 4.33116 15.7696
470 1 -1.1104 15.9994 12.5021 7.20555 15.408
471 1 -1.1104 15.9994 1.1668 10.0741 15.4536
472 1 -1.1104 15.9994 3.87243 9.72544 15.2199
473 1 -1.1104 15.9994 1.17028 12.6583 15.2047
474 1 -1.1104 15.9994 4.12438 12.7949 15.283
475 1 -1.1104 15.9994 6.81947 10.0401 15.3411
476 1 -1.1104 15.9994 9.61861 9.61911 15.4719
477 1 -1.1104 15.9994 7.08432 12.7852 15.3051
478 1 -1.1104 15.9994 9.84296 12.7493 15.2696
479 1 -1.1104 15.9994 12.4287 10.1519 15.3846
480 1 -1.1104 15.9994 12.5145 12.9423 15.4814
481 1 -1.1104 15.9994 1.20628 15.3689 15.3803
482 1 -1.1104 15.9994 3.91146 15.4519 15.1334
483 1 -1.1104 15.9994 1.48576 18.2119 15.117
484 1 -1.1104 15.9994 4.15114 18.4611 15.2596
485 1 -1.1104 15.9994 6.58174 15.8001 15.4534
486 1 -1.1104 15.9994 9.37975 15.7176 15.4845
487 1 -1.1104 15.9994 7.05757 18.7053 15.1053
488 1 -1.1104 15.9994 10.0525 18.7838 15.0499
489 1 -1.1104 15.9994 12.1986 15.7497 15.2644
490 1 -1.1104 15.9994 13.0181 18.4873 15.2864
491 1 -1.1104 15.9994 1.54299 21.1779 15.338
492 1 -1.1104 15.9994 4.28599 21.4339 15.4413
493 1 -1.1104 15.9994 6.88001 21.6196 15.2623
494 1 -1.1104 15.9994 9.84011 21.5833 15.3253
495 1 -1.1104 15.9994 12.612 21.1459 15.4459
496 1 -1.1104 15.9994 1.2705 -1.14703 18.0483
497 1 -1.1104 15.9994 3.96717 -1.2159 18.3168
498 1 -1.1104 15.9994 1.11679 -1.28203 20.9807
499 1 -1.1104 15.9994 4.0089 -1.17447 20.9781
500 1 -1.1104 15.9994 1.22895 1.45514 18.412
501 1 -1.1104 15.9994 4.13904 1.65528 18.4774
502 1 -1.1104 15.9994 1.26193 1.76549 21.2022
503 1 -1.1104 15.9994 4.11857 1.74631 21.187
504 1 -1.1104 15.9994 6.7098 -1.44184 18.4026
505 1 -1.1104 15.9994 9.89116 -1.15262 18.1666
506 1 -1.1104 15.9994 6.8995 -1.24135 20.9717
507 1 -1.1104 15.9994 9.5697 -1.25829 21.0853
508 1 -1.1104 15.9994 7.0152 1.58172 18.4517
509 1 -1.1104 15.9994 9.64887 1.24953 18.5392
510 1 -1.1104 15.9994 6.93036 1.61482 21.3042
511 1 -1.1104 15.9994 9.73439 1.35137 21.1898
512 1 -1.1104 15.9994 12.7314 -1.48621 18.138
513 1 -1.1104 15.9994 12.4057 -1.40633 21.0197
514 1 -1.1104 15.9994 12.638 1.55415 18.3742
515 1 -1.1104 15.9994 12.8032 1.34127 21.2352
516 1 -1.1104 15.9994 1.0371 4.50806 18.0612
517 1 -1.1104 15.9994 3.77029 4.42025 18.533
518 1 -1.1104 15.9994 1.21866 4.38113 20.8706
519 1 -1.1104 15.9994 3.77342 4.46033 20.9902
520 1 -1.1104 15.9994 0.999158 7.3717 18.3054
521 1 -1.1104 15.9994 3.91411 7.12969 18.2284
522 1 -1.1104 15.9994 1.17737 7.09721 21.1979
523 1 -1.1104 15.9994 3.93415 7.04789 21.0308
524 1 -1.1104 15.9994 6.71472 4.51624 18.1428
525 1 -1.1104 15.9994 9.53461 4.30851 18.6033
526 1 -1.1104 15.9994 6.63776 4.579 21.0215
527 1 -1.1104 15.9994 9.74075 4.24538 21.2769
528 1 -1.1104 15.9994 6.98887 7.3549 18.1599
529 1 -1.1104 15.9994 10.0174 7.27089 18.5677
530 1 -1.1104 15.9994 6.82734 7.25296 21.1154
531 1 -1.1104 15.9994 9.75493 7.14842 21.1678
532 1 -1.1104 15.9994 12.325 4.18594 18.5996
533 1 -1.1104 15.9994 12.585 4.11493 21.4653
534 1 -1.1104 15.9994 12.4163 6.95934 18.2389
535 1 -1.1104 15.9994 12.5227 7.0303 21.3936
536 1 -1.1104 15.9994 1.54329 10.0836 17.9851
537 1 -1.1104 15.9994 4.27708 9.89888 17.9039
538 1 -1.1104 15.9994 1.31367 9.8588 20.8644
539 1 -1.1104 15.9994 4.1134 9.76174 20.9982
540 1 -1.1104 15.9994 1.18687 12.5225 18.0737
541 1 -1.1104 15.9994 4.14569 12.9266 17.9949
542 1 -1.1104 15.9994 1.31592 13.261 21.004
543 1 -1.1104 15.9994 4.03067 12.58 21.1389
544 1 -1.1104 15.9994 7.28969 10.0168 18.5401
545 1 -1.1104 15.9994 9.92606 10.0551 18.184
546 1 -1.1104 15.9994 6.89238 10.2174 21.1111
547 1 -1.1104 15.9994 9.72254 9.85726 20.9195
548 1 -1.1104 15.9994 6.70721 12.9171 18.0754
549 1 -1.1104 15.9994 9.74353 12.8352 18.0468
550 1 -1.1104 15.9994 6.93362 12.7845 20.7294
551 1 -1.1104 15.9994 9.60694 12.5034 20.8098
552 1 -1.1104 15.9994 12.9029 9.9716 18.0374
553 1 -1.1104 15.9994 12.731 9.92691 20.9269
554 1 -1.1104 15.9994 12.7426 12.6492 18.1432
555 1 -1.1104 15.9994 12.4133 12.836 20.8142
556 1 -1.1104 15.9994 1.21391 15.3328 18.1691
557 1 -1.1104 15.9994 4.03756 15.651 17.8561
558 1 -1.1104 15.9994 1.18833 16.1085 20.9429
559 1 -1.1104 15.9994 4.04978 15.3097 20.8394
560 1 -1.1104 15.9994 1.07079 18.2331 18.2518
561 1 -1.1104 15.9994 3.89831 18.4104 17.7471
562 1 -1.1104 15.9994 1.22279 19.2078 21.3068
563 1 -1.1104 15.9994 3.9559 18.0566 21.1651
564 1 -1.1104 15.9994 7.01068 15.803 18.2498
565 1 -1.1104 15.9994 9.8782 15.7524 18.123
566 1 -1.1104 15.9994 6.53593 15.359 20.8451
567 1 -1.1104 15.9994 9.54672 15.5616 20.9141
568 1 -1.1104 15.9994 6.72158 18.8164 18.1375
569 1 -1.1104 15.9994 9.35409 18.7191 17.9454
570 1 -1.1104 15.9994 6.78824 18.2903 20.9534
571 1 -1.1104 15.9994 9.65512 18.2968 21.1254
572 1 -1.1104 15.9994 12.5581 15.9744 18.0904
573 1 -1.1104 15.9994 12.3981 15.6674 21.0219
574 1 -1.1104 15.9994 12.789 18.4445 18.1509
575 1 -1.1104 15.9994 12.4798 18.5553 21.0108
576 1 -1.1104 15.9994 1.5125 21.8061 18.8991
577 1 -1.1104 15.9994 4.2288 21.2163 18.1553
403 2 2.2208 232.038 2.66312 -2.62342 25.3034
579 1 -1.1104 15.9994 4.30751 21.2904 20.8176
580 1 -1.1104 15.9994 7.0131 21.6112 18.3261
581 1 -1.1104 15.9994 9.93173 21.2642 17.9185
582 1 -1.1104 15.9994 7.03568 21.3512 20.8407
583 1 -1.1104 15.9994 9.95291 21.1228 20.3221
584 1 -1.1104 15.9994 12.5279 21.4774 18.1379
585 1 -1.1104 15.9994 12.22 21.6887 20.9501
586 1 -1.1104 15.9994 1.32079 -1.3354 24.1392
587 1 -1.1104 15.9994 3.92222 -1.37625 23.9237
588 1 -1.1104 15.9994 1.10528 -1.52555 26.8964
589 1 -1.1104 15.9994 3.81951 -1.10892 26.7008
590 1 -1.1104 15.9994 1.26255 1.63025 24.1536
591 1 -1.1104 15.9994 3.83341 1.5307 23.753
592 1 -1.1104 15.9994 1.45642 1.46711 26.766
593 1 -1.1104 15.9994 4.02789 1.61091 26.5402
594 1 -1.1104 15.9994 6.83407 -1.31757 23.7313
595 1 -1.1104 15.9994 9.70326 -1.56895 23.8884
596 1 -1.1104 15.9994 6.77015 -1.33823 26.7193
597 1 -1.1104 15.9994 9.61543 -1.40132 26.5434
598 1 -1.1104 15.9994 6.8752 1.52384 23.8979
599 1 -1.1104 15.9994 9.56904 1.53098 23.9888
600 1 -1.1104 15.9994 6.68887 1.82235 26.6718
601 1 -1.1104 15.9994 9.59669 1.43179 26.753
602 1 -1.1104 15.9994 12.5752 -0.98613 24.0408
603 1 -1.1104 15.9994 12.5015 -1.33001 26.8877
604 1 -1.1104 15.9994 12.3891 1.61156 23.9764
605 1 -1.1104 15.9994 12.4632 1.5032 26.8005
606 1 -1.1104 15.9994 1.00942 4.51331 23.6737
607 1 -1.1104 15.9994 4.07234 4.29145 23.9721
608 1 -1.1104 15.9994 1.36599 4.5444 26.5612
609 1 -1.1104 15.9994 3.99497 4.15339 26.6952
610 1 -1.1104 15.9994 1.29301 7.13236 23.7334
611 1 -1.1104 15.9994 4.24588 7.12087 23.6196
612 1 -1.1104 15.9994 1.25089 7.55814 26.2867
613 1 -1.1104 15.9994 4.05151 7.28378 26.5832
614 1 -1.1104 15.9994 7.14316 4.18681 23.7414
615 1 -1.1104 15.9994 9.74053 4.51417 23.9496
616 1 -1.1104 15.9994 6.58877 4.88614 26.733
617 1 -1.1104 15.9994 9.57594 4.34663 26.6446
618 1 -1.1104 15.9994 6.91915 7.29784 23.9347
619 1 -1.1104 15.9994 9.50516 7.28197 23.8748
620 1 -1.1104 15.9994 7.03194 7.42345 26.8373