ITEM: TIMESTEP
430000
ITEM: NUMBER OF ATOMS
18000
ITEM: BOX BOUNDS xy xz yz pp pp pp
-2.3683549807178358e-01 2.8130835498070407e+01 0.0000000000000000e+00
-2.3681228709150188e+00 3.3709612287086742e+02 0.0000000000000000e+00
-2.1543496010957591e-01 2.8109434960108462e+01 0.0000000000000000e+00
ITEM: ATOMS id type q mass x y z
9007 2 2.2208 232.038 -0.230443 0.445891 2.52285
324 1 -1.1104 15.9994 12.4495 4.86876 12.8063
340 2 2.2208 232.038 10.8937 11.7459 13.9373
4 1 -1.1104 15.9994 12.4089 21.7089 12.4436
323 1 -1.1104 15.9994 9.44844 7.34708 12.5136
322 1 -1.1104 15.9994 6.82591 7.61127 12.6016
55 2 2.2208 232.038 5.28766 -2.31388 5.35444
8 2 2.2208 232.038 5.4711 0.638047 2.63535
9 1 -1.1104 15.9994 12.2876 7.60783 12.3443
10 2 2.2208 232.038 10.8896 0.667008 2.53878
11 1 -1.1104 15.9994 9.62036 21.7848 12.3324
321 1 -1.1104 15.9994 9.43605 4.78253 12.6167
13 2 2.2208 232.038 2.54925 3.33377 2.75206
14 1 -1.1104 15.9994 6.70618 22.0191 12.1875
9096 2 2.2208 232.038 13.8825 17.3654 11.1492
659 2 2.2208 232.038 2.7917 0.433194 0.0852209
17 2 2.2208 232.038 8.33879 3.29868 2.8321
18 2 2.2208 232.038 5.41358 6.19703 2.78688
9661 2 2.2208 232.038 -0.153706 0.598045 13.7539
20 2 2.2208 232.038 11.1935 6.52382 2.51206
21 1 -1.1104 15.9994 4.06463 21.771 12.3073
22 1 -1.1104 15.9994 1.18131 16.009 12.4821
23 2 2.2208 232.038 2.43698 8.97313 2.85969
320 1 -1.1104 15.9994 6.71459 4.9055 12.576
349 2 2.2208 232.038 5.17969 23.3946 13.6695
5 2 2.2208 232.038 13.8502 14.5696 8.29354
27 2 2.2208 232.038 8.20793 9.20332 2.80594
28 2 2.2208 232.038 5.2398 11.6835 2.96316
662 2 2.2208 232.038 11.2718 -2.33717 -0.0369339
30 2 2.2208 232.038 10.9573 11.9487 2.6693
31 1 -1.1104 15.9994 12.3905 13.2543 12.3415
32 1 -1.1104 15.9994 12.3789 10.2718 12.5921
33 2 2.2208 232.038 2.39122 14.6947 2.63446
666 2 2.2208 232.038 2.68277 11.8784 -0.095212
35 1 -1.1104 15.9994 9.61961 13.164 12.4883
36 1 -1.1104 15.9994 6.62348 13.4037 12.5242
37 2 2.2208 232.038 8.25924 14.6181 2.61893
38 2 2.2208 232.038 5.30325 17.5611 2.54034
39 1 -1.1104 15.9994 9.58786 10.5309 12.5984
40 2 2.2208 232.038 11.2646 17.6626 2.53174
41 1 -1.1104 15.9994 6.8024 10.7869 12.6984
42 1 -1.1104 15.9994 4.00619 13.1078 12.7145
43 2 2.2208 232.038 2.3523 20.196 2.68251
319 1 -1.1104 15.9994 3.64196 7.31078 12.5795
45 1 -1.1104 15.9994 1.07459 12.8815 12.6082
46 1 -1.1104 15.9994 3.98368 9.97035 12.5966
47 2 2.2208 232.038 8.09328 20.3035 2.50401
48 2 2.2208 232.038 5.16665 23.0876 2.46065
49 1 -1.1104 15.9994 0.980275 10.1551 12.6219
50 2 2.2208 232.038 10.8525 23.0869 2.62482
51 1 -1.1104 15.9994 1.1999 21.7751 12.5363
52 2 2.2208 232.038 2.5929 0.617013 5.27982
7 2 2.2208 232.038 8.19185 -2.2019 2.59499
54 1 -1.1104 15.9994 12.2167 18.919 12.6542
9052 2 2.2208 232.038 13.8649 9.09824 8.47787
56 2 2.2208 232.038 8.10538 0.602366 5.60409
15 2 2.2208 232.038 13.854 14.6952 2.67625
58 2 2.2208 232.038 5.39723 0.543295 8.21966
335 2 2.2208 232.038 10.9799 6.23407 13.7421
60 2 2.2208 232.038 10.7934 0.541232 8.39806
61 1 -1.1104 15.9994 12.509 15.9835 12.5514
62 2 2.2208 232.038 2.62881 6.03094 5.52086
63 2 2.2208 232.038 2.57311 3.22651 8.32275
64 1 -1.1104 15.9994 9.50432 18.9446 12.409
65 2 2.2208 232.038 5.50592 3.39795 5.56673
66 2 2.2208 232.038 8.3498 6.15419 5.53069
67 2 2.2208 232.038 8.20982 3.50029 8.39063
68 2 2.2208 232.038 5.29776 5.82584 8.51238
69 2 2.2208 232.038 11.0778 3.53069 5.43744
70 2 2.2208 232.038 11.1012 6.1559 8.45903
71 1 -1.1104 15.9994 6.73273 19.0672 12.5834
72 2 2.2208 232.038 2.51166 11.6456 5.73821
73 2 2.2208 232.038 2.43937 8.86297 8.49112
74 1 -1.1104 15.9994 9.6001 16.0834 12.3255
75 2 2.2208 232.038 5.20118 8.77517 5.61114
76 2 2.2208 232.038 8.30265 11.7752 5.51855
77 2 2.2208 232.038 8.14538 8.91453 8.3373
78 2 2.2208 232.038 5.25822 11.704 8.43481
79 2 2.2208 232.038 11.2309 8.81137 5.36601
80 2 2.2208 232.038 10.9124 11.6465 8.31327
318 1 -1.1104 15.9994 0.861498 7.44249 12.5901
82 2 2.2208 232.038 2.37776 17.1969 5.38567
83 2 2.2208 232.038 2.33306 14.3971 8.32013
334 2 2.2208 232.038 5.20935 6.26953 13.9619
85 2 2.2208 232.038 5.40826 14.5412 5.75683
86 2 2.2208 232.038 8.25125 17.3044 5.33281
87 2 2.2208 232.038 8.08196 14.412 8.23208
88 2 2.2208 232.038 4.89546 17.2077 8.40853
89 2 2.2208 232.038 11.1147 14.6576 5.44536
90 2 2.2208 232.038 10.8329 17.0968 8.33779
661 2 2.2208 232.038 8.41957 0.671894 -0.090187
92 2 2.2208 232.038 2.57708 23.1191 5.46163
93 2 2.2208 232.038 2.49565 20.1683 8.02328
8991 2 2.2208 232.038 13.7816 11.8109 5.60864
95 2 2.2208 232.038 5.60338 20.1249 5.19646
96 2 2.2208 232.038 8.22423 23.0019 5.40818
97 2 2.2208 232.038 8.07462 19.9627 8.27462
98 2 2.2208 232.038 5.19875 22.8955 8.35468
99 2 2.2208 232.038 11.0139 20.2749 5.2997
100 2 2.2208 232.038 11.192 22.7583 8.06198
101 1 -1.1104 15.9994 6.80378 15.884 12.457
102 2 2.2208 232.038 2.4915 0.441937 11.0164
325 2 2.2208 232.038 5.56458 3.38397 -0.151296
104 2 2.2208 232.038 8.12529 0.489548 11.3153
9161 1 -1.1104 15.9994 1.29601 10.3195 4.2125
106 1 -1.1104 15.9994 4.03214 18.8729 12.7153
107 2 2.2208 232.038 2.50569 6.06054 11.173
108 2 2.2208 232.038 5.22656 3.17853 10.9505
109 2 2.2208 232.038 7.99947 6.25289 11.1542
110 2 2.2208 232.038 10.7695 3.24133 11.3541
111 1 -1.1104 15.9994 1.22146 19.0856 12.3416
112 2 2.2208 232.038 2.37218 11.4751 11.2498
113 2 2.2208 232.038 5.18574 8.8276 11.3112
114 2 2.2208 232.038 8.23358 11.8042 11.3091
115 2 2.2208 232.038 11.1093 9.0688 11.0868
116 1 -1.1104 15.9994 3.69202 16.1937 12.657
117 2 2.2208 232.038 2.43031 17.5021 11.1455
118 2 2.2208 232.038 5.1317 14.4676 11.2065
119 2 2.2208 232.038 7.99582 17.4806 11.0299
120 2 2.2208 232.038 10.8834 14.6238 11.1549
2 2 2.2208 232.038 13.637 20.0444 8.32423
122 2 2.2208 232.038 2.26168 23.0802 10.9371
123 2 2.2208 232.038 5.26739 20.4081 11.0583
124 2 2.2208 232.038 8.09631 23.1788 10.8408
125 2 2.2208 232.038 11.0403 20.2756 11.0245
126 1 -1.1104 15.9994 1.38083 -0.878569 1.41795
127 1 -1.1104 15.9994 4.00782 -1.17868 1.19054
128 1 -1.1104 15.9994 1.51716 -1.21993 4.25054
129 1 -1.1104 15.9994 4.10243 -0.729784 4.02647
130 1 -1.1104 15.9994 1.14937 1.66947 1.15863
131 1 -1.1104 15.9994 4.09286 1.96507 1.37244
132 1 -1.1104 15.9994 1.16088 1.74312 3.90791
133 1 -1.1104 15.9994 4.0134 2.04427 4.19886
134 1 -1.1104 15.9994 7.0994 -0.616913 1.18498
135 1 -1.1104 15.9994 9.80975 -0.926347 1.25864
136 1 -1.1104 15.9994 6.6031 -0.913505 3.96198
137 1 -1.1104 15.9994 9.54339 -0.955144 4.07145
138 1 -1.1104 15.9994 6.85424 2.09594 1.31645
139 1 -1.1104 15.9994 9.63256 2.06307 1.16482
140 1 -1.1104 15.9994 6.73117 2.08921 4.16299
141 1 -1.1104 15.9994 9.53589 1.9215 4.02228
142 1 -1.1104 15.9994 12.7207 -0.97476 1.27456
143 1 -1.1104 15.9994 12.4695 -0.586916 3.9412
144 1 -1.1104 15.9994 12.1654 1.79351 1.15961
145 1 -1.1104 15.9994 12.3595 2.11497 4.18428
146 1 -1.1104 15.9994 1.17029 4.68146 1.23487
147 1 -1.1104 15.9994 4.04922 4.67707 1.45848
148 1 -1.1104 15.9994 0.901249 4.21882 3.94249
149 1 -1.1104 15.9994 4.00738 4.8021 4.08339
150 1 -1.1104 15.9994 1.12349 7.69525 1.40902
151 1 -1.1104 15.9994 3.91169 7.58606 1.28971
152 1 -1.1104 15.9994 1.00888 7.52805 6.79814
153 1 -1.1104 15.9994 3.91041 7.38586 4.13566
154 1 -1.1104 15.9994 6.78592 5.03879 1.16471
155 1 -1.1104 15.9994 9.67031 4.92487 1.37984
156 1 -1.1104 15.9994 6.88001 4.88132 4.10135
157 1 -1.1104 15.9994 9.79198 4.70825 4.12191
158 1 -1.1104 15.9994 6.99891 7.92743 1.38492
159 1 -1.1104 15.9994 9.84998 7.6826 1.17291
160 1 -1.1104 15.9994 6.83231 7.59076 4.12129
161 1 -1.1104 15.9994 9.64825 7.70317 4.15192
162 1 -1.1104 15.9994 12.5147 4.86553 1.15625
163 1 -1.1104 15.9994 12.6481 4.91128 4.0168
164 1 -1.1104 15.9994 12.8406 7.53014 0.975736
165 1 -1.1104 15.9994 12.4708 7.60549 3.96383
166 1 -1.1104 15.9994 1.11754 10.2184 1.17611
167 1 -1.1104 15.9994 3.9358 10.332 1.42492
168 1 -1.1104 15.9994 1.13205 7.22654 3.89533
169 1 -1.1104 15.9994 3.83709 10.1028 4.33643
170 1 -1.1104 15.9994 0.991387 13.0581 1.05592
171 1 -1.1104 15.9994 3.87839 13.1345 1.44372
172 1 -1.1104 15.9994 0.913765 13.2986 3.8929
173 1 -1.1104 15.9994 3.65798 12.9371 4.16878
174 1 -1.1104 15.9994 6.87249 10.4784 1.25069
175 1 -1.1104 15.9994 9.78223 10.6017 1.42087
176 1 -1.1104 15.9994 6.77224 10.5323 4.16011
177 1 -1.1104 15.9994 9.23975 10.4622 4.23542
178 1 -1.1104 15.9994 6.91293 13.1057 1.33382
179 1 -1.1104 15.9994 12.3113 13.2289 1.32417
180 1 -1.1104 15.9994 6.87761 13.4964 4.35988
181 1 -1.1104 15.9994 9.72992 13.3114 3.91282
182 1 -1.1104 15.9994 12.5893 10.2751 1.27585
183 1 -1.1104 15.9994 12.4816 10.6669 4.14144
677 1 -1.1104 15.9994 9.69189 13.3504 1.05694
185 1 -1.1104 15.9994 12.2898 13.4411 4.04293
186 1 -1.1104 15.9994 0.990025 15.9721 1.53025
187 1 -1.1104 15.9994 4.08361 16.0816 1.28643
188 1 -1.1104 15.9994 0.784879 16.1084 4.02504
189 1 -1.1104 15.9994 3.63514 15.9222 4.03199
190 1 -1.1104 15.9994 1.14434 18.7875 1.14906
191 1 -1.1104 15.9994 3.87218 18.9608 1.3986
192 1 -1.1104 15.9994 0.886027 18.7895 3.94615
193 1 -1.1104 15.9994 3.98333 18.6657 4.2249
194 1 -1.1104 15.9994 6.83256 15.7492 1.24654
195 1 -1.1104 15.9994 9.57867 16.2726 1.3515
196 1 -1.1104 15.9994 6.55462 16.1506 4.03763
197 1 -1.1104 15.9994 9.60868 15.8923 3.93234
198 1 -1.1104 15.9994 6.77016 18.784 1.22378
199 1 -1.1104 15.9994 9.68558 19.0593 1.19359
200 1 -1.1104 15.9994 6.78113 18.8611 3.65139
201 1 -1.1104 15.9994 9.73422 18.7362 3.99244
202 1 -1.1104 15.9994 12.6898 16.1857 1.04701
203 1 -1.1104 15.9994 12.4338 16.0564 4.04832
204 1 -1.1104 15.9994 12.4363 19.2645 1.01393
205 1 -1.1104 15.9994 12.5448 18.9684 3.9558
206 1 -1.1104 15.9994 0.841898 21.9027 1.5155
207 1 -1.1104 15.9994 3.69748 21.7599 1.35764
208 1 -1.1104 15.9994 1.02246 21.7654 4.17573
209 1 -1.1104 15.9994 3.95677 21.8365 3.97866
210 1 -1.1104 15.9994 6.70725 21.5892 0.788625
211 1 -1.1104 15.9994 9.54798 21.8423 1.08011
212 1 -1.1104 15.9994 6.76998 21.6413 3.79843
213 1 -1.1104 15.9994 9.41898 21.7155 3.94387
214 1 -1.1104 15.9994 12.5152 21.9991 1.02564
215 1 -1.1104 15.9994 12.1964 21.9753 3.95331
216 1 -1.1104 15.9994 0.955861 -0.808863 6.71144
217 1 -1.1104 15.9994 3.71069 -0.698887 6.73255
218 1 -1.1104 15.9994 1.15695 -1.02507 12.358
219 1 -1.1104 15.9994 4.03534 -0.968301 9.56785
220 1 -1.1104 15.9994 1.26879 1.88757 6.80559
221 1 -1.1104 15.9994 3.89783 2.06725 7.00147
222 1 -1.1104 15.9994 1.28148 -1.13551 9.76442
223 1 -1.1104 15.9994 3.91491 1.83717 9.70048
224 1 -1.1104 15.9994 6.63159 -0.936376 6.731
225 1 -1.1104 15.9994 9.33849 -0.849575 6.79843
226 1 -1.1104 15.9994 6.89264 -0.804921 9.79119
227 1 -1.1104 15.9994 9.61526 -0.783836 9.81729
228 1 -1.1104 15.9994 6.70501 1.91991 6.98385
229 1 -1.1104 15.9994 9.37842 1.92243 7.15963
230 1 -1.1104 15.9994 6.66066 1.97155 9.83387
231 1 -1.1104 15.9994 9.41403 1.91888 9.74254
232 1 -1.1104 15.9994 12.088 -0.748202 6.78647
233 1 -1.1104 15.9994 12.4185 -0.968091 9.87993
234 1 -1.1104 15.9994 12.239 1.87154 7.1532
235 1 -1.1104 15.9994 12.4489 1.63035 9.82572
236 1 -1.1104 15.9994 1.12793 4.46871 9.35568
237 1 -1.1104 15.9994 4.00356 4.8838 6.88692
238 1 -1.1104 15.9994 0.977727 1.69187 9.7473
239 1 -1.1104 15.9994 3.78214 4.58885 9.65219
240 1 -1.1104 15.9994 1.31973 4.66515 6.69838
241 1 -1.1104 15.9994 3.9034 7.47628 6.94969
242 1 -1.1104 15.9994 1.04717 7.36489 9.95402
243 1 -1.1104 15.9994 3.99011 7.41413 9.85711
244 1 -1.1104 15.9994 6.91886 4.65916 7.0235
245 1 -1.1104 15.9994 9.68103 4.51663 6.68019
246 1 -1.1104 15.9994 6.67195 4.66241 9.81778
247 1 -1.1104 15.9994 9.45577 4.92861 9.81051
248 1 -1.1104 15.9994 6.79043 7.37957 6.93909
249 1 -1.1104 15.9994 9.57836 7.29207 7.05783
250 1 -1.1104 15.9994 6.8476 7.38416 9.53808
251 1 -1.1104 15.9994 9.38128 7.67344 9.77726
252 1 -1.1104 15.9994 12.3841 4.6875 7.0292
253 1 -1.1104 15.9994 12.0695 4.66084 9.79151
254 1 -1.1104 15.9994 12.3907 7.4533 6.95904
255 1 -1.1104 15.9994 12.6409 7.3579 9.64007
256 1 -1.1104 15.9994 1.00247 10.1813 6.88927
257 1 -1.1104 15.9994 3.59349 10.2895 7.04895
258 1 -1.1104 15.9994 1.18299 10.0678 9.84555
259 1 -1.1104 15.9994 3.7962 10.4376 9.88175
260 1 -1.1104 15.9994 1.15825 12.9833 6.87515
261 1 -1.1104 15.9994 4.13163 13.1712 7.13721
262 1 -1.1104 15.9994 0.896107 12.8869 9.81384
263 1 -1.1104 15.9994 3.53528 13.2977 9.95336
264 1 -1.1104 15.9994 6.58269 10.1122 7.00794
265 1 -1.1104 15.9994 9.77938 10.2475 6.89892
266 1 -1.1104 15.9994 6.44086 10.1346 9.75538
267 1 -1.1104 15.9994 9.38863 10.5747 9.69994
268 1 -1.1104 15.9994 6.73907 12.8547 6.97439
269 1 -1.1104 15.9994 9.61227 13.4777 6.71715
270 1 -1.1104 15.9994 6.60619 13.2898 9.68513
271 1 -1.1104 15.9994 9.7722 13.051 9.65043
272 1 -1.1104 15.9994 12.6737 10.2718 6.9499
273 1 -1.1104 15.9994 12.3892 10.2627 9.9081
274 1 -1.1104 15.9994 12.2037 13.139 6.68754
275 1 -1.1104 15.9994 12.6183 12.9457 9.33091
276 1 -1.1104 15.9994 0.825145 15.8476 6.92874
277 1 -1.1104 15.9994 3.8057 15.915 6.80968
278 1 -1.1104 15.9994 0.877639 15.8768 9.62564
279 1 -1.1104 15.9994 3.64372 15.9413 9.81061
280 1 -1.1104 15.9994 0.898419 18.6375 6.80816
281 1 -1.1104 15.9994 3.86399 18.4783 6.69008
282 1 -1.1104 15.9994 0.863369 18.9233 9.59737
283 1 -1.1104 15.9994 3.83754 18.8015 9.6414
284 1 -1.1104 15.9994 6.552 15.9479 6.9398
285 1 -1.1104 15.9994 9.41922 15.9746 6.86971
286 1 -1.1104 15.9994 6.19651 16.0839 9.98281
287 1 -1.1104 15.9994 9.28446 15.683 9.58498
288 1 -1.1104 15.9994 6.86524 18.7346 6.91019
289 1 -1.1104 15.9994 9.78029 18.7816 6.87312
290 1 -1.1104 15.9994 6.45779 18.8161 9.62921
291 1 -1.1104 15.9994 9.4989 18.4371 9.54798
292 1 -1.1104 15.9994 12.4512 15.8015 6.83156
293 1 -1.1104 15.9994 12.3638 15.6891 9.73115
294 1 -1.1104 15.9994 12.4683 18.6226 6.72385
295 1 -1.1104 15.9994 12.3349 18.8493 9.81748
296 1 -1.1104 15.9994 1.00439 21.8333 6.94527
297 1 -1.1104 15.9994 3.94128 21.5645 6.62797
298 1 -1.1104 15.9994 0.651875 21.8967 9.68639
299 1 -1.1104 15.9994 3.67644 21.6085 9.38582
300 1 -1.1104 15.9994 7.05032 21.4873 6.66847
301 1 -1.1104 15.9994 9.68393 21.7275 6.79347
302 1 -1.1104 15.9994 6.68459 21.4495 9.53624
303 1 -1.1104 15.9994 9.56876 21.473 9.46937
304 1 -1.1104 15.9994 12.4399 21.6104 6.63467
305 1 -1.1104 15.9994 12.3989 21.4506 9.55949
9690 2 2.2208 232.038 0.0242887 3.2542 -0.0641233
307 1 -1.1104 15.9994 3.84606 -0.885075 12.5129
308 1 -1.1104 15.9994 0.86128 2.01248 12.4377
309 1 -1.1104 15.9994 3.57292 1.9751 12.3937
310 1 -1.1104 15.9994 6.83287 -0.889077 12.4712
311 1 -1.1104 15.9994 9.49602 -0.748822 12.645
312 1 -1.1104 15.9994 6.53422 1.76836 12.5356
313 1 -1.1104 15.9994 9.41496 1.90543 12.8757
314 1 -1.1104 15.9994 12.0628 -0.812027 12.6671
315 1 -1.1104 15.9994 12.3054 2.00808 12.837
316 1 -1.1104 15.9994 1.00443 4.93435 12.315
317 1 -1.1104 15.9994 3.74358 4.52734 12.419
16 2 2.2208 232.038 8.28233 6.19369 -0.0518389
669 2 2.2208 232.038 2.41653 17.3374 -0.0782504
670 2 2.2208 232.038 5.34988 14.6645 -0.13648
9004 2 2.2208 232.038 -0.244248 6.20882 2.52787
53 2 2.2208 232.038 2.61134 -2.1686 8.13713
59 2 2.2208 232.038 10.9421 -2.01857 5.44468
9101 2 2.2208 232.038 13.9538 23.0928 11.0289
25 2 2.2208 232.038 5.5471 9.15489 -0.08194
348 2 2.2208 232.038 8.0039 20.325 13.7061
103 2 2.2208 232.038 5.36058 -2.28946 11.3025
9688 2 2.2208 232.038 -0.137554 9.0352 -0.160444
329 2 2.2208 232.038 5.14332 0.709571 13.772
29 2 2.2208 232.038 11.021 9.0996 -0.075104
26 2 2.2208 232.038 8.2455 11.9715 -0.0948307
9081 2 2.2208 232.038 13.7847 0.42227 11.2197
105 2 2.2208 232.038 11.0751 -2.21127 11.1975
24 2 2.2208 232.038 -0.18054 11.6271 2.6293
660 2 2.2208 232.038 5.55844 -2.26694 -0.210223
9032 2 2.2208 232.038 13.829 -2.29194 8.41747
12 2 2.2208 232.038 13.9358 20.4706 2.4181
331 2 2.2208 232.038 2.35419 3.38897 13.8404
9277 1 -1.1104 15.9994 13.8748 23.7134 8.36435
9031 2 2.2208 232.038 13.721 0.416478 5.47582
9041 2 2.2208 232.038 13.8465 6.1538 5.46199
9042 2 2.2208 232.038 13.6034 3.30889 8.48248
346 2 2.2208 232.038 2.64665 20.5117 13.7824
57 2 2.2208 232.038 8.33554 -2.06747 8.42265
8998 2 2.2208 232.038 -0.231373 0.190925 8.19852
9664 2 2.2208 232.038 -0.158168 17.5308 13.8025
9692 2 2.2208 232.038 -0.120938 -2.25495 -0.0621098
6 2 2.2208 232.038 13.9091 17.446 5.37904
674 2 2.2208 232.038 2.66289 23.2726 -0.203639
328 2 2.2208 232.038 8.21436 -2.34441 13.9057
672 2 2.2208 232.038 10.9445 14.7931 -0.126286
353 2 2.2208 232.038 2.59922 -2.08102 19.7058
327 1 -1.1104 15.9994 6.70087 21.6991 26.2893
9319 2 2.2208 232.038 13.7882 3.45806 14.1568
676 2 2.2208 232.038 8.21931 22.9105 27.8345
9379 2 2.2208 232.038 13.7539 23.2669 16.7636
338 2 2.2208 232.038 8.30965 8.98221 14.014
332 1 -1.1104 15.9994 9.76679 21.3898 23.8957
9420 2 2.2208 232.038 13.8173 14.5624 25.3061
357 2 2.2208 232.038 8.4141 -2.30369 19.5213
407 2 2.2208 232.038 8.38391 -2.14669 25.4452
647 1 -1.1104 15.9994 4.08131 15.9333 24.0295
337 1 -1.1104 15.9994 4.01376 21.473 24.113
336 2 2.2208 232.038 2.27829 8.86173 14.0418
345 2 2.2208 232.038 11.0122 17.4283 14.0153
9324 2 2.2208 232.038 13.9463 8.90398 14.0262
9334 2 2.2208 232.038 13.7663 20.2947 13.964
342 1 -1.1104 15.9994 3.80998 21.6 26.8565
359 2 2.2208 232.038 11.2224 -2.07801 16.8992
374 2 2.2208 232.038 11.0412 20.4263 27.957
403 2 2.2208 232.038 2.60266 -2.20002 25.285
650 1 -1.1104 15.9994 1.11562 18.6812 23.897
646 1 -1.1104 15.9994 1.33527 15.9891 23.9273
9380 2 2.2208 232.038 13.6309 20.4426 19.4514
9665 2 2.2208 232.038 -0.149034 -1.99611 16.8666
649 1 -1.1104 15.9994 3.49078 15.6484 26.9493
351 1 -1.1104 15.9994 1.08443 21.8661 26.8053
352 2 2.2208 232.038 2.5957 0.781866 16.7918
444 2 2.2208 232.038 -0.134561 23.1657 25.1944
354 1 -1.1104 15.9994 4.21235 18.7148 23.781
1281 1 -1.1104 15.9994 6.98766 21.4128 23.7753
356 2 2.2208 232.038 8.09987 0.583715 16.7405
652 1 -1.1104 15.9994 0.855922 19.0493 26.4852
358 2 2.2208 232.038 5.42842 0.50853 19.5709
355 2 2.2208 232.038 5.41941 -2.20047 16.8532
360 2 2.2208 232.038 11.2636 0.817004 19.7182
361 1 -1.1104 15.9994 0.935686 21.728 23.8554
362 2 2.2208 232.038 2.42861 6.02642 16.8566
363 2 2.2208 232.038 2.54861 3.37898 19.6267
364 1 -1.1104 15.9994 12.6623 18.9023 26.6801
365 2 2.2208 232.038 5.40145 3.55307 16.8028
366 2 2.2208 232.038 8.2032 6.35832 16.848
367 2 2.2208 232.038 8.29244 3.6124 19.6684
368 2 2.2208 232.038 5.19295 6.24574 19.4172
369 2 2.2208 232.038 11.1322 3.60305 16.8967
370 2 2.2208 232.038 10.9542 6.54229 19.5401
371 1 -1.1104 15.9994 12.8201 19.0301 23.8604
372 2 2.2208 232.038 2.44325 11.7771 16.9675
373 2 2.2208 232.038 2.45443 9.19629 19.7659
405 2 2.2208 232.038 5.53028 -2.17613 22.3545
375 2 2.2208 232.038 5.45991 9.22913 16.8752
376 2 2.2208 232.038 8.01887 11.7546 16.8159
377 2 2.2208 232.038 8.15157 9.02405 19.6672
378 2 2.2208 232.038 5.3435 11.7998 19.6163
379 2 2.2208 232.038 11.0022 9.13617 16.8003
380 2 2.2208 232.038 11.2349 11.6309 19.5699
381 1 -1.1104 15.9994 12.4788 16.1631 26.4732
382 2 2.2208 232.038 2.35915 17.3537 16.7152
383 2 2.2208 232.038 2.62315 14.703 19.6568
656 1 -1.1104 15.9994 6.84728 16.1544 26.5645
385 2 2.2208 232.038 5.40691 14.6472 16.9014
386 2 2.2208 232.038 8.22968 17.689 16.6612
387 2 2.2208 232.038 8.13722 14.5872 19.373
388 2 2.2208 232.038 5.32918 17.5534 19.5813
389 2 2.2208 232.038 11.0384 14.3802 16.819
390 2 2.2208 232.038 10.9492 17.4518 19.5838
391 1 -1.1104 15.9994 12.4431 21.8177 26.6929
392 2 2.2208 232.038 2.62048 23.1922 16.613
393 2 2.2208 232.038 2.38217 20.2225 19.6617
658 2 2.2208 232.038 13.8871 20.4126 25.4093
395 2 2.2208 232.038 5.18855 20.3125 16.5753
396 2 2.2208 232.038 8.23826 23.2683 16.6417
397 2 2.2208 232.038 8.19917 20.1553 19.663
398 2 2.2208 232.038 5.06257 23.2316 19.6621
399 2 2.2208 232.038 10.9315 20.1956 16.6462
400 2 2.2208 232.038 11.0445 22.9293 19.43
401 1 -1.1104 15.9994 12.3549 16.2581 23.7083
402 2 2.2208 232.038 2.52653 0.603895 22.3533
655 1 -1.1104 15.9994 9.46736 15.9625 23.8959
404 1 -1.1104 15.9994 9.67183 15.8724 26.6841
341 2 2.2208 232.038 2.53387 14.6231 14.0113
406 2 2.2208 232.038 8.24582 0.532766 22.3901
654 1 -1.1104 15.9994 6.85024 15.7321 23.7802
408 2 2.2208 232.038 5.40235 0.691553 25.1035
648 1 -1.1104 15.9994 0.869913 16.0663 26.8433
410 2 2.2208 232.038 10.9276 0.492241 25.2134
411 1 -1.1104 15.9994 6.77769 18.7023 26.6541
412 2 2.2208 232.038 2.71987 6.29568 22.5473
413 2 2.2208 232.038 2.55065 3.38617 25.3008
414 1 -1.1104 15.9994 9.71856 18.6336 26.5823
415 2 2.2208 232.038 5.46143 3.27601 22.4873
416 2 2.2208 232.038 8.51512 6.09632 22.6613
417 2 2.2208 232.038 8.41335 3.38867 25.2998
418 2 2.2208 232.038 5.56996 6.16746 25.326
419 2 2.2208 232.038 11.0304 3.38033 22.7181
420 2 2.2208 232.038 11.0915 6.19723 25.5022
421 1 -1.1104 15.9994 9.82705 18.719 23.6643
422 2 2.2208 232.038 2.53777 11.7172 22.7468
423 2 2.2208 232.038 2.48746 8.99476 25.4416
424 1 -1.1104 15.9994 9.73968 13.1364 26.5286
425 2 2.2208 232.038 5.41675 8.94286 22.3576
426 2 2.2208 232.038 8.27632 11.7541 22.2854
427 2 2.2208 232.038 8.10591 8.94198 25.3546
428 2 2.2208 232.038 5.43929 11.7472 25.2582
429 2 2.2208 232.038 11.1087 8.99709 22.5411
430 2 2.2208 232.038 11.0294 11.6565 25.2594
409 2 2.2208 232.038 11.0697 -2.13118 22.4537
432 2 2.2208 232.038 2.69255 17.3209 22.425
433 2 2.2208 232.038 2.46526 14.5259 25.2321
645 1 -1.1104 15.9994 12.6587 13.0079 26.6544
435 2 2.2208 232.038 5.48443 14.5136 22.5335
436 2 2.2208 232.038 8.1512 17.3016 22.3998
437 2 2.2208 232.038 8.3515 14.4422 25.2866
438 2 2.2208 232.038 5.26436 17.4049 25.1555
439 2 2.2208 232.038 10.8141 14.8029 22.3408
440 2 2.2208 232.038 10.9675 17.3991 25.0603
651 1 -1.1104 15.9994 7.05515 18.6354 23.7321
442 1 -1.1104 15.9994 12.6051 21.6735 24.063
443 2 2.2208 232.038 2.39682 20.3826 25.3118
653 1 -1.1104 15.9994 3.71472 18.7046 26.561
445 2 2.2208 232.038 5.24667 20.5157 22.2743
446 2 2.2208 232.038 8.37553 22.8951 22.5434
447 2 2.2208 232.038 8.07959 20.0081 25.1611
448 2 2.2208 232.038 5.40267 23.1002 25.0675
449 2 2.2208 232.038 11.2217 20.1759 22.3509
450 2 2.2208 232.038 10.9374 23.0823 25.3563
451 1 -1.1104 15.9994 0.793542 -0.874834 15.0832
452 1 -1.1104 15.9994 3.53717 -0.837813 15.3118
453 1 -1.1104 15.9994 1.14234 1.99124 15.2806
454 1 -1.1104 15.9994 4.011 1.97666 15.146
455 1 -1.1104 15.9994 6.76729 -0.820938 15.2498
456 1 -1.1104 15.9994 9.53558 -0.941787 15.5945
457 1 -1.1104 15.9994 6.54749 2.02618 15.2497
458 1 -1.1104 15.9994 9.5401 1.96934 15.5679
459 1 -1.1104 15.9994 12.4881 -0.715748 15.339
460 1 -1.1104 15.9994 12.2927 1.91539 15.6586
461 1 -1.1104 15.9994 1.2664 4.77287 15.2097
462 1 -1.1104 15.9994 3.68873 5.03393 15.2591
463 1 -1.1104 15.9994 0.86781 7.49782 15.3403
464 1 -1.1104 15.9994 3.90169 7.59909 15.3171
465 1 -1.1104 15.9994 6.64965 5.07849 15.4268
466 1 -1.1104 15.9994 9.68161 4.85017 15.3645
467 1 -1.1104 15.9994 6.85832 7.86216 15.385
468 1 -1.1104 15.9994 9.46398 7.67487 15.4188
469 1 -1.1104 15.9994 12.3341 4.91349 15.3491
470 1 -1.1104 15.9994 12.507 7.69387 15.3473
471 1 -1.1104 15.9994 1.18871 10.186 15.588
472 1 -1.1104 15.9994 3.89479 10.5783 15.6939
473 1 -1.1104 15.9994 1.14806 13.2373 15.3954
474 1 -1.1104 15.9994 3.88136 13.287 15.4757
475 1 -1.1104 15.9994 6.66199 10.7209 15.4012
476 1 -1.1104 15.9994 9.58812 10.3388 15.4878
477 1 -1.1104 15.9994 6.8098 13.4557 15.427
478 1 -1.1104 15.9994 9.4425 13.0226 15.3837
479 1 -1.1104 15.9994 12.2719 10.4689 15.2293
480 1 -1.1104 15.9994 12.4538 13.0717 15.2869
481 1 -1.1104 15.9994 0.994689 15.903 15.2845
482 1 -1.1104 15.9994 3.83531 16.021 15.4121
483 1 -1.1104 15.9994 1.12788 18.6835 15.0934
484 1 -1.1104 15.9994 3.98508 19.0405 15.1318
485 1 -1.1104 15.9994 6.73994 16.149 15.2082
486 1 -1.1104 15.9994 9.50079 15.898 15.3316
487 1 -1.1104 15.9994 6.72889 18.7612 15.4809
488 1 -1.1104 15.9994 9.54346 18.8689 15.0613
489 1 -1.1104 15.9994 12.3875 15.9344 15.3961
490 1 -1.1104 15.9994 12.1633 18.8451 15.3587
491 1 -1.1104 15.9994 1.0745 21.8108 15.3793
492 1 -1.1104 15.9994 3.79949 21.8786 15.1092
493 1 -1.1104 15.9994 6.60777 21.6993 15.0158
494 1 -1.1104 15.9994 9.3363 21.8323 15.3314
495 1 -1.1104 15.9994 12.3178 21.4685 15.245
496 1 -1.1104 15.9994 1.03919 -0.604084 18.0505
497 1 -1.1104 15.9994 3.76605 -0.803915 18.2078
498 1 -1.1104 15.9994 1.12909 -0.897397 20.9592
499 1 -1.1104 15.9994 4.24101 -0.836952 21.113
500 1 -1.1104 15.9994 1.14797 2.22659 18.208
501 1 -1.1104 15.9994 3.98893 2.00271 18.0174
502 1 -1.1104 15.9994 1.16397 1.94053 20.9194
503 1 -1.1104 15.9994 3.8136 1.89041 20.7957
504 1 -1.1104 15.9994 6.53886 -0.775871 18.297
505 1 -1.1104 15.9994 9.84137 -1.03534 18.4257
506 1 -1.1104 15.9994 6.92347 -1.00339 20.8547
507 1 -1.1104 15.9994 9.67617 -0.800061 21.1066
508 1 -1.1104 15.9994 6.8303 2.01678 18.1035
509 1 -1.1104 15.9994 9.81693 2.18219 18.4231
510 1 -1.1104 15.9994 6.82715 1.82044 20.9904
511 1 -1.1104 15.9994 9.72709 1.84333 21.1729
512 1 -1.1104 15.9994 12.7021 -0.908516 18.2107
513 1 -1.1104 15.9994 12.6482 -0.758273 20.9903
514 1 -1.1104 15.9994 12.5805 2.11587 18.3866
515 1 -1.1104 15.9994 12.5951 2.02935 21.3392
516 1 -1.1104 15.9994 1.01471 4.81326 18.1698
517 1 -1.1104 15.9994 3.94143 4.61248 18.3939
518 1 -1.1104 15.9994 1.29665 4.74628 20.8602
519 1 -1.1104 15.9994 4.09452 4.6031 21.087
520 1 -1.1104 15.9994 1.28202 7.68273 18.2325
521 1 -1.1104 15.9994 3.82618 7.66737 18.1801
522 1 -1.1104 15.9994 1.285 7.50742 21.1968
523 1 -1.1104 15.9994 4.09359 7.57385 20.9453
524 1 -1.1104 15.9994 6.79551 4.84222 18.1312
525 1 -1.1104 15.9994 9.6553 5.01989 18.3472
526 1 -1.1104 15.9994 7.14686 4.85424 20.9686
527 1 -1.1104 15.9994 9.9499 4.6815 21.1153
528 1 -1.1104 15.9994 6.74261 7.66786 18.1006
529 1 -1.1104 15.9994 9.57474 7.77279 18.1603
530 1 -1.1104 15.9994 6.86997 7.71135 21.1315
531 1 -1.1104 15.9994 9.50136 7.41368 21.0818
532 1 -1.1104 15.9994 12.4942 5.04027 18.1757
533 1 -1.1104 15.9994 12.6089 5.05956 20.9316
534 1 -1.1104 15.9994 12.4037 7.79305 18.1842
535 1 -1.1104 15.9994 12.1506 7.71854 20.9388
536 1 -1.1104 15.9994 1.07394 10.5787 18.4828
537 1 -1.1104 15.9994 3.85554 10.5882 18.3642
538 1 -1.1104 15.9994 0.803749 10.4482 21.2989
539 1 -1.1104 15.9994 3.91703 10.4273 21.169
540 1 -1.1104 15.9994 1.09452 13.1206 18.45
541 1 -1.1104 15.9994 3.98254 13.4174 18.4368
542 1 -1.1104 15.9994 1.10333 13.1497 21.4169
543 1 -1.1104 15.9994 3.7242 12.9724 21.0524
544 1 -1.1104 15.9994 6.64319 10.452 18.2227
545 1 -1.1104 15.9994 9.47237 10.3632 18.3771
546 1 -1.1104 15.9994 6.9652 10.2226 20.9803
547 1 -1.1104 15.9994 10.012 10.4317 21.0599
548 1 -1.1104 15.9994 6.79316 13.2007 18.2266
549 1 -1.1104 15.9994 9.76271 13.0573 18.0039
550 1 -1.1104 15.9994 6.71108 13.3672 20.9081
551 1 -1.1104 15.9994 9.28077 13.2715 20.9554
552 1 -1.1104 15.9994 12.3877 10.3664 18.2043
553 1 -1.1104 15.9994 12.7196 10.6409 20.935
554 1 -1.1104 15.9994 12.441 13.3051 18.2047
555 1 -1.1104 15.9994 12.18 13.2673 20.9008
556 1 -1.1104 15.9994 1.15871 16.0111 17.8918
557 1 -1.1104 15.9994 4.10789 16.0316 18.2377
558 1 -1.1104 15.9994 1.35411 16.0354 20.9716
559 1 -1.1104 15.9994 4.15064 15.9127 21.146
560 1 -1.1104 15.9994 1.50207 18.641 18.5148
561 1 -1.1104 15.9994 4.19872 18.8571 17.9598
562 1 -1.1104 15.9994 1.24388 18.7282 21.1551
563 1 -1.1104 15.9994 3.88842 18.682 20.7555
564 1 -1.1104 15.9994 7.17326 16.2602 18.0136
565 1 -1.1104 15.9994 9.73705 15.8431 18.2217
566 1 -1.1104 15.9994 6.63336 16.042 20.8623
567 1 -1.1104 15.9994 9.45493 16.0961 20.8647
568 1 -1.1104 15.9994 6.79357 19.0054 18.2334
569 1 -1.1104 15.9994 9.63261 18.5909 17.9371
570 1 -1.1104 15.9994 6.64951 18.9011 20.9383
571 1 -1.1104 15.9994 9.63774 18.9457 21.059
572 1 -1.1104 15.9994 12.4161 16.1975 18.318
573 1 -1.1104 15.9994 12.3953 16.2704 21.067
574 1 -1.1104 15.9994 12.3811 18.9066 17.9089
575 1 -1.1104 15.9994 12.4432 18.9951 20.904
576 1 -1.1104 15.9994 0.776739 21.6104 20.521
577 1 -1.1104 15.9994 3.52061 21.7287 18.0334
644 1 -1.1104 15.9994 12.4427 13.2428 23.6646
579 1 -1.1104 15.9994 3.77775 21.4885 20.9208
580 1 -1.1104 15.9994 6.62271 21.8218 18.0687
581 1 -1.1104 15.9994 9.3363 21.4182 18.1789
582 1 -1.1104 15.9994 6.74679 21.7442 20.9934
583 1 -1.1104 15.9994 9.65679 21.8002 21.097
584 1 -1.1104 15.9994 12.3035 21.9686 18.0856
585 1 -1.1104 15.9994 12.6081 21.5546 20.9865
586 1 -1.1104 15.9994 1.35351 -0.918246 23.4627
587 1 -1.1104 15.9994 4.02086 -0.686236 23.8167
588 1 -1.1104 15.9994 1.14192 -0.594284 26.9224
589 1 -1.1104 15.9994 3.92065 -0.755573 26.3764
590 1 -1.1104 15.9994 1.04525 1.96732 23.7846
591 1 -1.1104 15.9994 3.97709 2.18805 23.8043
592 1 -1.1104 15.9994 1.13842 2.06038 26.7206
593 1 -1.1104 15.9994 4.20059 1.59428 27.0147
594 1 -1.1104 15.9994 6.98228 -0.856602 23.6836
595 1 -1.1104 15.9994 9.64753 -0.832548 23.8541
596 1 -1.1104 15.9994 6.61139 -0.852861 26.8
597 1 -1.1104 15.9994 9.64898 -0.796695 26.7531
598 1 -1.1104 15.9994 6.99222 1.70184 23.888
599 1 -1.1104 15.9994 9.65244 1.96802 23.7903
600 1 -1.1104 15.9994 7.22449 2.16657 26.7357
601 1 -1.1104 15.9994 9.66153 1.78611 26.6411
602 1 -1.1104 15.9994 12.6853 -0.952892 23.9311
603 1 -1.1104 15.9994 12.5365 -0.881188 26.7549
604 1 -1.1104 15.9994 12.4111 2.09223 24.0745
605 1 -1.1104 15.9994 12.4669 1.91311 26.5905
606 1 -1.1104 15.9994 1.16993 4.76852 23.9175
607 1 -1.1104 15.9994 3.8282 4.8397 24.0879
608 1 -1.1104 15.9994 1.30431 4.78402 26.7402
609 1 -1.1104 15.9994 4.10042 4.61246 26.854
610 1 -1.1104 15.9994 1.41741 7.62121 23.9906
611 1 -1.1104 15.9994 4.20912 7.30371 23.7549
612 1 -1.1104 15.9994 1.00772 7.62589 26.7378
613 1 -1.1104 15.9994 4.27612 7.81455 26.7664
614 1 -1.1104 15.9994 6.76672 4.6155 23.8443
615 1 -1.1104 15.9994 9.61593 4.83022 24.1926
616 1 -1.1104 15.9994 6.70796 4.85224 26.7328
617 1 -1.1104 15.9994 9.65584 4.6205 26.8322
618 1 -1.1104 15.9994 6.89934 7.44974 23.9807
619 1 -1.1104 15.9994 9.66999 7.62833 23.7966
620 1 -1.1104 15.9994 6.98127 7.64522 26.8851
621 1 -1.1104 15.9994 9.61737 7.18245 26.8475
622 1 -1.1104 15.9994 12.5887 4.92364 23.9691
623 1 -1.1104 15.9994 12.3889 4.74888 26.5788
624 1 -1.1104 15.9994 12.5113 7.52513 23.8528