ITEM: TIMESTEP
340000
ITEM: NUMBER OF ATOMS
18000
ITEM: BOX BOUNDS xy xz yz pp pp pp
-2.3255344123163343e-01 2.8126553441229969e+01 0.0000000000000000e+00
-2.5930570717436523e+00 3.3732105707170757e+02 0.0000000000000000e+00
-2.2705824439436217e-01 2.8121058244393243e+01 0.0000000000000000e+00
ITEM: ATOMS id type q mass x y z
105 2 2.2208 232.038 11.0184 -2.63209 11.0428
324 1 -1.1104 15.9994 12.8061 4.17748 12.3468
669 2 2.2208 232.038 2.61652 16.9727 0.0194985
4 1 -1.1104 15.9994 12.8922 21.2792 12.6141
323 1 -1.1104 15.9994 9.75514 7.08757 12.201
322 1 -1.1104 15.9994 6.98532 7.25096 12.5116
9081 2 2.2208 232.038 13.8537 0.0550703 10.8194
8 2 2.2208 232.038 5.62123 0.121511 2.41761
9 1 -1.1104 15.9994 12.4476 7.15068 12.3617
10 2 2.2208 232.038 11.0327 -0.00983315 2.67841
11 1 -1.1104 15.9994 9.96454 21.2415 12.398
321 1 -1.1104 15.9994 9.93022 4.09806 12.4821
13 2 2.2208 232.038 2.71997 3.01052 2.63733
14 1 -1.1104 15.9994 6.95742 21.4624 12.4039
9004 2 2.2208 232.038 -0.0635793 5.63552 2.30519
24 2 2.2208 232.038 -0.157037 11.6475 2.48419
17 2 2.2208 232.038 8.48586 3.12122 2.57711
18 2 2.2208 232.038 5.46934 5.95856 2.65274
347 2 2.2208 232.038 -0.0200681 22.6512 13.9713
20 2 2.2208 232.038 11.3439 5.87628 2.53646
21 1 -1.1104 15.9994 4.17264 21.1755 12.4854
22 1 -1.1104 15.9994 1.50859 15.6552 12.288
23 2 2.2208 232.038 2.56648 8.78154 2.6206
320 1 -1.1104 15.9994 6.88669 4.52904 12.3336
8988 2 2.2208 232.038 -0.155411 11.4927 8.28133
8984 2 2.2208 232.038 -0.148947 3.03025 10.865
27 2 2.2208 232.038 8.2409 8.58337 2.55637
28 2 2.2208 232.038 5.38976 11.3242 2.64954
663 2 2.2208 232.038 2.9502 5.91534 -0.11425
30 2 2.2208 232.038 11.2171 11.3217 2.62253
31 1 -1.1104 15.9994 12.8223 12.727 12.6826
32 1 -1.1104 15.9994 12.5692 10.155 12.3984
33 2 2.2208 232.038 2.85788 14.3911 2.38058
341 2 2.2208 232.038 2.79834 14.1592 13.8176
35 1 -1.1104 15.9994 10.0204 12.8986 12.7024
36 1 -1.1104 15.9994 6.96704 12.9711 12.3669
37 2 2.2208 232.038 8.23322 14.357 2.57586
38 2 2.2208 232.038 5.56605 16.9987 2.73814
39 1 -1.1104 15.9994 9.87798 9.85321 12.5481
40 2 2.2208 232.038 11.1706 17.158 2.46119
41 1 -1.1104 15.9994 7.06994 10.203 12.7169
42 1 -1.1104 15.9994 4.07855 12.7398 12.4805
43 2 2.2208 232.038 2.56015 19.8849 2.48649
319 1 -1.1104 15.9994 4.24302 7.13337 12.4526
45 1 -1.1104 15.9994 1.15966 12.852 12.4312
46 1 -1.1104 15.9994 4.07298 9.89616 12.3984
47 2 2.2208 232.038 8.27894 19.8295 2.41382
48 2 2.2208 232.038 5.50121 22.6804 2.42308
49 1 -1.1104 15.9994 1.00148 10.0236 12.5908
50 2 2.2208 232.038 11.1751 22.7734 2.48215
51 1 -1.1104 15.9994 1.2856 21.1626 12.4449
52 2 2.2208 232.038 2.82806 0.146586 5.44342
9042 2 2.2208 232.038 13.9377 2.94891 8.16247
54 1 -1.1104 15.9994 12.823 18.3676 12.578
8998 2 2.2208 232.038 -0.23697 0.0771626 8.35277
56 2 2.2208 232.038 8.50891 0.0956754 5.56737
5 2 2.2208 232.038 13.8491 14.0867 8.08867
58 2 2.2208 232.038 5.59442 0.122027 8.08907
9007 2 2.2208 232.038 -0.170566 0.0605728 2.63534
60 2 2.2208 232.038 11.1611 0.041391 8.31614
61 1 -1.1104 15.9994 12.7035 15.5266 12.5185
62 2 2.2208 232.038 2.707 6.01857 5.32666
63 2 2.2208 232.038 2.75549 3.0146 8.43769
64 1 -1.1104 15.9994 9.85061 18.6585 12.4127
65 2 2.2208 232.038 5.59157 3.0449 5.30415
66 2 2.2208 232.038 8.5303 5.76316 5.37543
67 2 2.2208 232.038 8.27349 2.86183 8.10839
68 2 2.2208 232.038 5.36695 5.76859 8.14971
69 2 2.2208 232.038 11.2523 2.67961 5.33746
70 2 2.2208 232.038 11.1747 5.63175 8.1124
71 1 -1.1104 15.9994 6.79981 18.7733 12.6293
72 2 2.2208 232.038 2.72999 11.6519 5.39101
73 2 2.2208 232.038 2.44848 8.71072 8.16629
74 1 -1.1104 15.9994 9.90502 15.612 12.3963
75 2 2.2208 232.038 5.49237 8.6433 5.65246
76 2 2.2208 232.038 8.38872 11.3662 5.38281
77 2 2.2208 232.038 8.34647 8.5087 8.11906
78 2 2.2208 232.038 5.31016 11.3413 8.11965
79 2 2.2208 232.038 11.3855 8.63833 5.37844
80 2 2.2208 232.038 10.992 11.4875 8.25415
318 1 -1.1104 15.9994 1.43904 7.11193 12.5033
82 2 2.2208 232.038 2.52708 17.105 5.343
83 2 2.2208 232.038 2.66434 14.4699 8.3229
339 2 2.2208 232.038 5.33491 11.4975 13.8306
85 2 2.2208 232.038 5.35142 14.366 5.5027
86 2 2.2208 232.038 8.47072 17.2943 5.36946
87 2 2.2208 232.038 8.12722 14.2212 8.24349
88 2 2.2208 232.038 5.65387 17.1794 8.19449
89 2 2.2208 232.038 11.1186 14.1173 5.24833
90 2 2.2208 232.038 11.0798 17.2104 8.18531
350 2 2.2208 232.038 11.2673 22.6815 13.7779
92 2 2.2208 232.038 2.55302 22.7739 5.42684
93 2 2.2208 232.038 2.60519 19.8603 8.0995
26 2 2.2208 232.038 8.01212 11.5761 -0.00104606
95 2 2.2208 232.038 5.355 20.0195 5.19009
96 2 2.2208 232.038 8.45802 22.7688 5.30577
97 2 2.2208 232.038 8.36049 19.9531 8.18606
98 2 2.2208 232.038 5.48751 22.7743 8.00044
99 2 2.2208 232.038 11.1437 19.7679 5.50411
100 2 2.2208 232.038 11.4457 22.4602 8.25386
101 1 -1.1104 15.9994 7.19578 15.8765 12.449
102 2 2.2208 232.038 2.48402 0.137465 11.1941
84 2 2.2208 232.038 -0.0864612 17.0554 8.22101
104 2 2.2208 232.038 8.30727 0.168277 11.0627
9161 1 -1.1104 15.9994 1.19247 10.3492 3.9916
106 1 -1.1104 15.9994 4.093 18.4667 12.4466
107 2 2.2208 232.038 2.52718 5.76007 11.0114
108 2 2.2208 232.038 5.37611 3.13188 11.1864
109 2 2.2208 232.038 8.39471 5.74735 11.1316
110 2 2.2208 232.038 11.0099 2.70213 11.0291
111 1 -1.1104 15.9994 1.01871 18.5326 12.2966
112 2 2.2208 232.038 2.58167 11.4079 11.1821
113 2 2.2208 232.038 5.55357 8.44374 11.1139
114 2 2.2208 232.038 8.40497 10.957 11.188
115 2 2.2208 232.038 11.1384 8.50591 10.9354
116 1 -1.1104 15.9994 4.3237 15.6767 12.4798
117 2 2.2208 232.038 2.8731 17.2478 11.0257
118 2 2.2208 232.038 5.53379 14.2681 11.1453
119 2 2.2208 232.038 8.41264 17.1205 11.0032
120 2 2.2208 232.038 11.1783 14.347 11.057
81 2 2.2208 232.038 -0.0538843 14.2694 5.40266
122 2 2.2208 232.038 2.76257 22.6331 11.2589
123 2 2.2208 232.038 5.509 19.9919 11.0065
124 2 2.2208 232.038 8.34059 22.8099 11.1524
125 2 2.2208 232.038 11.2623 19.8452 11.1255
126 1 -1.1104 15.9994 1.06882 -1.39522 1.44247
127 1 -1.1104 15.9994 3.93537 -1.29553 1.17528
128 1 -1.1104 15.9994 1.45808 -1.21268 4.18968
129 1 -1.1104 15.9994 4.22767 -1.27674 3.87472
130 1 -1.1104 15.9994 1.63423 1.20434 1.3161
131 1 -1.1104 15.9994 4.17068 1.74872 1.01649
132 1 -1.1104 15.9994 1.10188 1.45624 3.98122
133 1 -1.1104 15.9994 4.22184 1.57287 3.97476
134 1 -1.1104 15.9994 6.83235 -1.44153 1.34114
135 1 -1.1104 15.9994 9.64651 -1.22304 1.38808
136 1 -1.1104 15.9994 7.02099 -1.17878 4.0652
137 1 -1.1104 15.9994 9.86832 -1.45803 4.31435
138 1 -1.1104 15.9994 7.09818 1.43982 1.1227
139 1 -1.1104 15.9994 10.0047 1.42027 1.15942
140 1 -1.1104 15.9994 6.7979 1.64256 3.97085
141 1 -1.1104 15.9994 9.69332 1.41545 4.05344
142 1 -1.1104 15.9994 12.5302 -1.69696 1.067
143 1 -1.1104 15.9994 12.8547 -1.52583 3.71208
144 1 -1.1104 15.9994 12.9055 1.38948 1.54068
145 1 -1.1104 15.9994 12.358 1.20499 4.15375
146 1 -1.1104 15.9994 1.49897 4.22524 1.07972
147 1 -1.1104 15.9994 4.22996 4.55278 1.32283
148 1 -1.1104 15.9994 1.34169 4.38881 3.86802
149 1 -1.1104 15.9994 4.12608 4.46796 3.88216
150 1 -1.1104 15.9994 1.3433 7.35853 1.2182
151 1 -1.1104 15.9994 4.22519 7.18796 1.29138
152 1 -1.1104 15.9994 1.19664 7.5294 6.57008
153 1 -1.1104 15.9994 3.94431 7.40175 4.13325
154 1 -1.1104 15.9994 7.00087 4.25637 1.00364
155 1 -1.1104 15.9994 9.90449 4.14251 1.20098
156 1 -1.1104 15.9994 7.03221 4.47036 4.09285
157 1 -1.1104 15.9994 9.74459 4.18816 4.15203
158 1 -1.1104 15.9994 6.90667 7.12635 1.13971
159 1 -1.1104 15.9994 9.74031 6.89403 1.11175
160 1 -1.1104 15.9994 6.92463 7.20766 3.98951
161 1 -1.1104 15.9994 9.77251 7.05076 4.08553
162 1 -1.1104 15.9994 12.5968 4.19759 1.25272
163 1 -1.1104 15.9994 12.5 4.06752 3.97075
164 1 -1.1104 15.9994 12.6745 7.10958 0.896221
165 1 -1.1104 15.9994 12.4346 7.22813 3.92422
166 1 -1.1104 15.9994 1.26267 10.3662 1.15001
167 1 -1.1104 15.9994 4.15639 9.9845 1.45094
168 1 -1.1104 15.9994 1.16567 7.02792 3.87282
169 1 -1.1104 15.9994 3.85154 10.1726 3.9808
170 1 -1.1104 15.9994 1.61216 13.1015 0.749749
171 1 -1.1104 15.9994 4.29921 12.6837 1.02777
172 1 -1.1104 15.9994 1.35086 13.1902 3.8828
173 1 -1.1104 15.9994 4.10216 12.7779 3.8427
174 1 -1.1104 15.9994 7.09774 9.84868 1.10617
175 1 -1.1104 15.9994 9.70178 9.80286 1.21365
176 1 -1.1104 15.9994 6.85288 10.0455 4.1388
177 1 -1.1104 15.9994 9.89944 9.71805 3.64588
178 1 -1.1104 15.9994 6.88498 12.9278 1.38953
179 1 -1.1104 15.9994 12.5067 12.6715 1.12638
180 1 -1.1104 15.9994 6.97463 12.9895 4.12915
181 1 -1.1104 15.9994 9.66603 12.8279 3.76336
182 1 -1.1104 15.9994 12.7138 9.93123 1.2026
183 1 -1.1104 15.9994 12.7214 9.88138 4.02929
677 1 -1.1104 15.9994 9.64263 12.8298 1.13273
185 1 -1.1104 15.9994 12.6595 12.6219 4.06189
186 1 -1.1104 15.9994 1.23541 15.5636 1.19815
187 1 -1.1104 15.9994 4.17066 15.7673 1.0814
188 1 -1.1104 15.9994 1.42199 15.6748 4.02082
189 1 -1.1104 15.9994 4.15011 15.7368 4.20354
190 1 -1.1104 15.9994 1.05573 18.5851 1.31758
191 1 -1.1104 15.9994 4.07577 18.4241 1.31228
192 1 -1.1104 15.9994 1.13587 18.6293 4.09767
193 1 -1.1104 15.9994 3.96471 18.4916 3.87414
194 1 -1.1104 15.9994 6.98718 15.5676 1.22756
195 1 -1.1104 15.9994 9.80076 15.7818 1.08691
196 1 -1.1104 15.9994 7.12867 15.9138 4.02194
197 1 -1.1104 15.9994 9.88566 15.9378 3.86486
198 1 -1.1104 15.9994 6.77979 18.305 1.09651
199 1 -1.1104 15.9994 9.58244 18.6157 1.09457
200 1 -1.1104 15.9994 6.74415 18.5294 4.03581
201 1 -1.1104 15.9994 9.65386 18.8028 3.91801
202 1 -1.1104 15.9994 12.6364 15.6161 1.05886
203 1 -1.1104 15.9994 12.6397 15.4968 4.02452
204 1 -1.1104 15.9994 12.8724 18.4638 0.98662
205 1 -1.1104 15.9994 12.6213 18.4798 3.86038
206 1 -1.1104 15.9994 1.23269 21.5399 1.25369
207 1 -1.1104 15.9994 4.18975 21.2616 1.37667
208 1 -1.1104 15.9994 0.939425 21.5219 4.04432
209 1 -1.1104 15.9994 3.67857 21.4238 3.98473
210 1 -1.1104 15.9994 7.01432 21.0833 0.882916
211 1 -1.1104 15.9994 9.62796 21.2553 1.30469
212 1 -1.1104 15.9994 6.91363 21.2983 3.62502
213 1 -1.1104 15.9994 9.65661 21.605 4.067
214 1 -1.1104 15.9994 12.5739 21.3558 1.19313
215 1 -1.1104 15.9994 12.6671 21.4148 4.01571
216 1 -1.1104 15.9994 1.32528 -0.778385 6.90556
217 1 -1.1104 15.9994 4.12229 -1.19139 7.03783
218 1 -1.1104 15.9994 1.1787 -1.20639 12.7244
219 1 -1.1104 15.9994 4.03219 -1.19946 9.84776
220 1 -1.1104 15.9994 1.33891 1.55148 7.03496
221 1 -1.1104 15.9994 4.24958 1.81841 6.82263
222 1 -1.1104 15.9994 1.03887 -1.46547 9.75619
223 1 -1.1104 15.9994 3.96436 1.62994 9.93633
224 1 -1.1104 15.9994 6.94393 -1.55155 6.90751
225 1 -1.1104 15.9994 9.68465 -1.09148 7.10095
226 1 -1.1104 15.9994 7.20174 -1.52753 9.76588
227 1 -1.1104 15.9994 9.77492 -1.16761 9.93947
228 1 -1.1104 15.9994 7.14725 1.2603 6.85575
229 1 -1.1104 15.9994 10.1271 1.58277 6.91389
230 1 -1.1104 15.9994 6.80719 1.29639 9.7003
231 1 -1.1104 15.9994 9.67633 1.51724 9.69867
232 1 -1.1104 15.9994 12.5716 -1.37623 6.58115
233 1 -1.1104 15.9994 12.278 -1.38577 9.45449
234 1 -1.1104 15.9994 12.6775 1.15495 6.88611
235 1 -1.1104 15.9994 12.3157 1.45143 9.95178
236 1 -1.1104 15.9994 1.05798 4.64444 9.53143
237 1 -1.1104 15.9994 4.12188 4.52846 6.74046
238 1 -1.1104 15.9994 0.94768 1.62399 9.72531
239 1 -1.1104 15.9994 3.95671 4.2749 9.53801
240 1 -1.1104 15.9994 1.042 4.45384 6.69612
241 1 -1.1104 15.9994 4.19747 7.31964 6.91403
242 1 -1.1104 15.9994 0.871538 7.38843 9.44109
243 1 -1.1104 15.9994 3.6633 7.1689 9.6259
244 1 -1.1104 15.9994 6.85709 4.13425 6.95146
245 1 -1.1104 15.9994 9.81384 4.2064 6.99446
246 1 -1.1104 15.9994 6.47397 4.42375 9.58033
247 1 -1.1104 15.9994 9.42367 4.29272 9.7005
248 1 -1.1104 15.9994 7.14978 7.05899 6.73311
249 1 -1.1104 15.9994 10.1218 6.95472 6.55834
250 1 -1.1104 15.9994 7.05072 7.03628 9.70907
251 1 -1.1104 15.9994 9.68844 7.07613 9.39823
252 1 -1.1104 15.9994 12.7053 4.57763 6.82496
253 1 -1.1104 15.9994 12.3222 4.09151 9.56312
254 1 -1.1104 15.9994 12.7355 7.45573 6.76543
255 1 -1.1104 15.9994 12.4907 6.81189 9.44597
256 1 -1.1104 15.9994 1.2954 10.1609 6.80054
257 1 -1.1104 15.9994 4.04927 10.0139 6.70525
258 1 -1.1104 15.9994 1.28454 10.0935 9.72037
259 1 -1.1104 15.9994 3.94553 9.83463 9.45292
260 1 -1.1104 15.9994 1.15996 12.907 6.81014
261 1 -1.1104 15.9994 4.03468 12.9747 6.5315
262 1 -1.1104 15.9994 1.26441 12.9473 9.70013
263 1 -1.1104 15.9994 4.15855 12.8492 9.56964
264 1 -1.1104 15.9994 6.80573 10.1181 6.76925
265 1 -1.1104 15.9994 9.55733 9.81448 6.48886
266 1 -1.1104 15.9994 6.857 9.74924 9.51807
267 1 -1.1104 15.9994 9.68533 10.0589 9.61169
268 1 -1.1104 15.9994 7.00208 12.8866 6.92541
269 1 -1.1104 15.9994 9.57776 12.8867 6.80805
270 1 -1.1104 15.9994 6.70673 12.5511 9.51161
271 1 -1.1104 15.9994 9.43453 12.8551 9.75093
272 1 -1.1104 15.9994 12.3569 10.0892 6.87477
273 1 -1.1104 15.9994 12.4663 9.94373 9.64484
274 1 -1.1104 15.9994 12.3216 12.9303 6.67244
275 1 -1.1104 15.9994 12.2072 12.8475 9.79832
276 1 -1.1104 15.9994 1.30051 15.8122 6.63743
277 1 -1.1104 15.9994 4.09094 15.6622 6.91845
278 1 -1.1104 15.9994 1.288 15.7884 9.64915
279 1 -1.1104 15.9994 4.14594 15.7701 9.57947
280 1 -1.1104 15.9994 0.705079 18.6783 6.86992
281 1 -1.1104 15.9994 3.88952 18.5556 6.44218
282 1 -1.1104 15.9994 1.58763 18.4033 9.57615
283 1 -1.1104 15.9994 4.26956 18.4862 9.57635
284 1 -1.1104 15.9994 7.05132 15.6666 6.73171
285 1 -1.1104 15.9994 10.0755 15.869 6.60819
286 1 -1.1104 15.9994 6.96934 15.5899 9.61745
287 1 -1.1104 15.9994 9.42003 15.9979 9.40193
288 1 -1.1104 15.9994 6.76499 18.6151 6.81027
289 1 -1.1104 15.9994 9.66577 18.6304 6.83997
290 1 -1.1104 15.9994 7.15048 18.5233 9.62653
291 1 -1.1104 15.9994 10.1822 18.5154 9.65432
292 1 -1.1104 15.9994 12.7359 15.5945 6.72702
293 1 -1.1104 15.9994 12.61 15.4748 9.43096
294 1 -1.1104 15.9994 12.5501 18.4352 6.72599
295 1 -1.1104 15.9994 12.9122 18.3101 9.66156
296 1 -1.1104 15.9994 1.23776 21.5075 6.7485
297 1 -1.1104 15.9994 3.96367 21.3986 6.7753
298 1 -1.1104 15.9994 1.10513 21.0747 9.56679
299 1 -1.1104 15.9994 3.72435 21.1911 9.81672
300 1 -1.1104 15.9994 7.14878 21.4518 6.62595
301 1 -1.1104 15.9994 9.90442 21.4579 6.85511
302 1 -1.1104 15.9994 6.46392 21.003 9.21661
303 1 -1.1104 15.9994 9.70433 21.4572 9.90639
304 1 -1.1104 15.9994 12.7498 21.1359 7.00286
305 1 -1.1104 15.9994 12.4597 21.1704 9.86567
9091 2 2.2208 232.038 13.856 11.3677 11.0448
307 1 -1.1104 15.9994 3.98665 -1.64548 12.7306
308 1 -1.1104 15.9994 1.029 1.64088 12.4183
309 1 -1.1104 15.9994 3.82888 1.36483 12.7352
310 1 -1.1104 15.9994 6.82881 -1.33059 12.3954
311 1 -1.1104 15.9994 9.82258 -1.43489 12.7846
312 1 -1.1104 15.9994 6.76036 1.65954 12.3079
313 1 -1.1104 15.9994 9.56068 1.33346 12.5281
314 1 -1.1104 15.9994 12.6266 -1.42785 12.201
315 1 -1.1104 15.9994 12.3049 1.50251 12.7025
316 1 -1.1104 15.9994 1.15003 4.28682 12.36
317 1 -1.1104 15.9994 3.87536 4.49481 12.505
9086 2 2.2208 232.038 13.923 5.62505 11.0392
8981 2 2.2208 232.038 0.0224766 14.2815 11.1239
672 2 2.2208 232.038 11.1482 14.2802 -0.0942882
8997 2 2.2208 232.038 -0.176294 2.8476 5.67228
94 2 2.2208 232.038 -0.00428342 22.8157 8.34869
9324 2 2.2208 232.038 13.9109 8.62048 13.8311
335 2 2.2208 232.038 11.1446 5.67499 13.7921
333 2 2.2208 232.038 8.49289 3.03734 13.8472
9664 2 2.2208 232.038 -0.280981 16.8668 13.8421
19 2 2.2208 232.038 11.3093 2.9973 -0.188861
9662 2 2.2208 232.038 -0.195574 5.79608 13.7752
330 2 2.2208 232.038 11.1758 -0.0465788 13.8894
676 2 2.2208 232.038 8.39678 22.7786 -0.0989673
659 2 2.2208 232.038 2.74475 0.0537286 -0.191504
346 2 2.2208 232.038 2.52846 19.7998 13.8929
334 2 2.2208 232.038 5.59659 5.79128 13.8622
9688 2 2.2208 232.038 -0.133184 8.59843 28.0499
327 1 -1.1104 15.9994 6.75165 21.2597 26.3676
9675 2 2.2208 232.038 -0.211771 8.22606 22.465
9667 2 2.2208 232.038 -0.153299 3.10148 16.8197
409 2 2.2208 232.038 11.1255 -2.64856 22.4018
348 2 2.2208 232.038 8.35146 19.9033 13.9258
332 1 -1.1104 15.9994 9.78846 21.1363 24.1344
9419 2 2.2208 232.038 13.8627 17.0324 22.4605
9420 2 2.2208 232.038 13.8032 14.2604 25.2064
355 2 2.2208 232.038 5.3794 -2.5889 16.9171
647 1 -1.1104 15.9994 4.04046 15.6121 23.7138
337 1 -1.1104 15.9994 4.35995 20.9943 24.1614
9666 2 2.2208 232.038 -0.15808 0.0170586 19.8083
9409 2 2.2208 232.038 13.904 11.4166 22.1455
9329 2 2.2208 232.038 13.9523 14.3357 14.098
9410 2 2.2208 232.038 13.8413 8.68173 25.1418
342 1 -1.1104 15.9994 4.20354 21.2213 27.012
349 2 2.2208 232.038 5.42399 22.7524 14.0323
9400 2 2.2208 232.038 13.9473 2.70487 25.1771
9671 2 2.2208 232.038 -0.163263 -2.51487 22.6364
650 1 -1.1104 15.9994 1.30604 18.5505 23.7344
646 1 -1.1104 15.9994 0.917654 15.6157 23.8299
340 2 2.2208 232.038 11.2249 11.3707 13.9754
664 2 2.2208 232.038 -0.217984 13.9522 16.681
649 1 -1.1104 15.9994 4.02476 15.6695 26.7139
351 1 -1.1104 15.9994 1.05325 21.3953 26.724
352 2 2.2208 232.038 2.58163 0.30705 16.7078
9674 2 2.2208 232.038 -0.032871 5.69292 25.3875
354 1 -1.1104 15.9994 3.83448 18.206 23.8348
1281 1 -1.1104 15.9994 6.86486 21.6641 23.7996
356 2 2.2208 232.038 8.38608 0.217765 16.748
652 1 -1.1104 15.9994 1.31718 18.416 26.7945
358 2 2.2208 232.038 5.45353 0.275052 19.4538
9380 2 2.2208 232.038 13.814 20.0809 19.5714
360 2 2.2208 232.038 11.2111 0.131611 19.7397
361 1 -1.1104 15.9994 1.27277 21.4993 23.8341
362 2 2.2208 232.038 2.83427 5.77606 16.6796
363 2 2.2208 232.038 2.74535 3.02338 19.6522
364 1 -1.1104 15.9994 12.7787 18.6201 26.6838
365 2 2.2208 232.038 5.61752 2.953 16.718
366 2 2.2208 232.038 8.40427 5.80039 16.5657
367 2 2.2208 232.038 8.42373 2.78799 19.5487
368 2 2.2208 232.038 5.32744 5.73613 19.6114
369 2 2.2208 232.038 11.1296 3.1846 16.7197
370 2 2.2208 232.038 11.0455 5.85021 19.5205
371 1 -1.1104 15.9994 12.4863 18.4997 23.6803
372 2 2.2208 232.038 2.73792 11.2071 16.5901
373 2 2.2208 232.038 2.66394 8.58601 19.6433
9672 2 2.2208 232.038 -0.119224 0.0523855 25.4846
375 2 2.2208 232.038 5.51946 8.59073 16.8109
376 2 2.2208 232.038 8.12079 11.463 16.9789
377 2 2.2208 232.038 8.13354 8.58667 19.525
378 2 2.2208 232.038 5.40761 11.4903 19.4805
379 2 2.2208 232.038 10.9662 8.4557 16.8364
380 2 2.2208 232.038 11.1341 11.4135 19.577
381 1 -1.1104 15.9994 12.6539 15.8597 26.4143
382 2 2.2208 232.038 2.7614 16.9605 16.6573
383 2 2.2208 232.038 2.45704 14.3027 19.522
656 1 -1.1104 15.9994 6.86367 15.563 26.5641
385 2 2.2208 232.038 5.49098 14.3273 16.5489
386 2 2.2208 232.038 8.49002 17.1904 16.9918
387 2 2.2208 232.038 8.3061 14.3116 19.4459
388 2 2.2208 232.038 5.64711 16.851 19.5876
389 2 2.2208 232.038 11.295 13.9733 17.0092
390 2 2.2208 232.038 11.3453 17.0492 19.5859
391 1 -1.1104 15.9994 12.5286 21.3356 26.7108
392 2 2.2208 232.038 2.35403 22.5784 16.8553
393 2 2.2208 232.038 3.005 19.52 19.3186
9399 2 2.2208 232.038 13.8887 5.81664 22.4713
395 2 2.2208 232.038 5.66596 19.9237 16.7791
396 2 2.2208 232.038 8.10721 22.5954 16.8364
397 2 2.2208 232.038 8.39931 20.004 19.7677
398 2 2.2208 232.038 5.44635 22.6678 19.7235
399 2 2.2208 232.038 11.0721 20.0106 16.6686
400 2 2.2208 232.038 11.0231 22.7303 19.5761
401 1 -1.1104 15.9994 12.4925 15.4761 23.7184
402 2 2.2208 232.038 2.6658 0.185759 22.4019
655 1 -1.1104 15.9994 9.7192 15.6256 23.9094
404 1 -1.1104 15.9994 9.81876 15.8968 26.5734
338 2 2.2208 232.038 8.33479 8.7632 13.9962
406 2 2.2208 232.038 8.34526 0.123272 22.3413
654 1 -1.1104 15.9994 6.69881 15.7111 23.7678
408 2 2.2208 232.038 5.63273 -0.0529641 25.229
648 1 -1.1104 15.9994 1.34965 15.8237 26.6559
410 2 2.2208 232.038 11.1775 0.255408 25.2099
411 1 -1.1104 15.9994 7.20868 18.3721 26.5237
412 2 2.2208 232.038 2.61627 5.64952 22.5137
413 2 2.2208 232.038 2.80757 2.90684 25.2787
414 1 -1.1104 15.9994 9.88273 18.5072 26.9156
415 2 2.2208 232.038 5.57119 2.85753 22.426
416 2 2.2208 232.038 8.04821 5.88497 22.2788
417 2 2.2208 232.038 8.30736 3.04585 25.0215
418 2 2.2208 232.038 5.33998 5.87341 25.3697
419 2 2.2208 232.038 11.2439 3.03716 22.3023
420 2 2.2208 232.038 10.9835 5.66483 25.2478
421 1 -1.1104 15.9994 9.51745 18.3136 24.0537
422 2 2.2208 232.038 2.53083 11.1936 22.1044
423 2 2.2208 232.038 2.66025 8.63206 25.1274
424 1 -1.1104 15.9994 9.54675 13.1876 26.8348
425 2 2.2208 232.038 5.39966 8.5608 22.6784
426 2 2.2208 232.038 8.15763 11.3735 22.3175
427 2 2.2208 232.038 8.24544 8.59812 25.2152
428 2 2.2208 232.038 5.58268 11.6884 25.2872
429 2 2.2208 232.038 11.1467 8.7269 22.3306
430 2 2.2208 232.038 10.9811 11.4782 25.1574
329 2 2.2208 232.038 5.44821 0.0772667 14.0101
432 2 2.2208 232.038 2.62995 16.9501 22.4122
433 2 2.2208 232.038 2.44149 14.1841 25.2222
645 1 -1.1104 15.9994 12.3946 13.0763 26.5466
435 2 2.2208 232.038 5.30407 14.3546 22.421
436 2 2.2208 232.038 8.27016 16.9784 22.3091
437 2 2.2208 232.038 8.24675 14.2816 25.1536
438 2 2.2208 232.038 5.42308 17.0969 25.208
439 2 2.2208 232.038 11.0227 14.203 22.4126
440 2 2.2208 232.038 11.1313 17.0534 25.0759
651 1 -1.1104 15.9994 6.90062 18.6351 23.7383
442 1 -1.1104 15.9994 12.4491 21.3064 23.77
443 2 2.2208 232.038 2.72142 19.8521 25.3808
653 1 -1.1104 15.9994 4.27037 18.4675 26.8924
445 2 2.2208 232.038 5.55234 19.795 22.4339
446 2 2.2208 232.038 8.24476 22.7974 22.501
447 2 2.2208 232.038 8.14572 19.9908 25.1971
448 2 2.2208 232.038 5.39311 22.676 25.3614
449 2 2.2208 232.038 11.1411 19.8678 22.4938
450 2 2.2208 232.038 11.1337 22.9981 25.2612
451 1 -1.1104 15.9994 0.833709 -1.17702 15.5227
452 1 -1.1104 15.9994 3.88661 -1.33673 15.4501
453 1 -1.1104 15.9994 1.10915 1.65205 15.3245
454 1 -1.1104 15.9994 3.8336 1.54468 15.2279
455 1 -1.1104 15.9994 6.76247 -1.47933 15.2187
456 1 -1.1104 15.9994 9.50236 -1.36048 15.3406
457 1 -1.1104 15.9994 6.6906 1.64372 15.1592
458 1 -1.1104 15.9994 9.69861 1.50891 15.26
459 1 -1.1104 15.9994 12.3044 -1.54341 15.0191
460 1 -1.1104 15.9994 12.625 1.46416 15.2479
461 1 -1.1104 15.9994 1.23452 4.3039 15.3962
462 1 -1.1104 15.9994 4.11186 4.53037 15.2009
463 1 -1.1104 15.9994 1.04978 7.05939 15.3816
464 1 -1.1104 15.9994 4.34602 7.46524 15.2458
465 1 -1.1104 15.9994 7.10964 4.15532 15.3287
466 1 -1.1104 15.9994 9.73102 4.38101 15.2438
467 1 -1.1104 15.9994 7.03581 7.36633 15.1078
468 1 -1.1104 15.9994 9.76228 7.10866 15.0553
469 1 -1.1104 15.9994 12.5268 4.40452 15.2426
470 1 -1.1104 15.9994 12.3717 7.08779 15.0975
471 1 -1.1104 15.9994 1.12282 9.90391 15.2162
472 1 -1.1104 15.9994 4.02801 10.009 15.1686
473 1 -1.1104 15.9994 1.34276 12.6115 15.259
474 1 -1.1104 15.9994 4.15258 12.7455 15.2743
475 1 -1.1104 15.9994 7.13938 9.91671 15.8106
476 1 -1.1104 15.9994 9.90857 10.0189 15.2611
477 1 -1.1104 15.9994 6.75251 12.6042 15.4445
478 1 -1.1104 15.9994 9.65999 12.5572 15.4995
479 1 -1.1104 15.9994 12.6897 10.1069 15.3538
480 1 -1.1104 15.9994 12.454 12.77 15.4827
481 1 -1.1104 15.9994 0.880698 15.2394 14.8693
482 1 -1.1104 15.9994 4.10816 15.6177 15.1095
483 1 -1.1104 15.9994 1.27617 18.1783 14.915
484 1 -1.1104 15.9994 4.26129 18.4416 15.285
485 1 -1.1104 15.9994 6.8642 15.2808 15.0578
486 1 -1.1104 15.9994 9.71489 15.4654 15.4529
487 1 -1.1104 15.9994 7.06469 18.543 15.5587
488 1 -1.1104 15.9994 9.70019 18.7783 15.4185
489 1 -1.1104 15.9994 12.4292 15.5735 15.4035
490 1 -1.1104 15.9994 12.4957 18.2962 15.2913
491 1 -1.1104 15.9994 1.37603 21.2855 15.1661
492 1 -1.1104 15.9994 4.35402 21.2873 15.3921
493 1 -1.1104 15.9994 6.97664 21.2162 15.275
494 1 -1.1104 15.9994 9.83655 21.7627 15.4912
495 1 -1.1104 15.9994 12.6223 21.2167 15.3793
496 1 -1.1104 15.9994 1.19674 -1.28637 18.3642
497 1 -1.1104 15.9994 4.12777 -1.11349 18.0716
498 1 -1.1104 15.9994 1.22845 -1.22982 21.0089
499 1 -1.1104 15.9994 3.97576 -1.02711 21.0085
500 1 -1.1104 15.9994 1.26014 1.78917 18.0999
501 1 -1.1104 15.9994 4.08652 1.63187 18.0007
502 1 -1.1104 15.9994 1.51453 1.70649 21.025
503 1 -1.1104 15.9994 4.27164 1.87027 20.8125
504 1 -1.1104 15.9994 6.95131 -1.26058 18.0264
505 1 -1.1104 15.9994 9.73513 -1.23503 18.0139
506 1 -1.1104 15.9994 6.96181 -1.07659 20.8636
507 1 -1.1104 15.9994 9.72882 -1.40659 21.0987
508 1 -1.1104 15.9994 6.85173 1.5737 18.1059
509 1 -1.1104 15.9994 9.90228 1.71201 18.2066
510 1 -1.1104 15.9994 7.19642 1.54198 20.9169
511 1 -1.1104 15.9994 9.95038 1.77406 21.0429
512 1 -1.1104 15.9994 12.7116 -1.68857 17.9534
513 1 -1.1104 15.9994 12.4278 -1.06105 21.2067
514 1 -1.1104 15.9994 12.7837 1.42763 18.2856
515 1 -1.1104 15.9994 12.4778 1.66264 21.0063
516 1 -1.1104 15.9994 1.3659 4.59684 18.1784
517 1 -1.1104 15.9994 4.1168 4.07709 18.1348
518 1 -1.1104 15.9994 1.32682 4.3681 21.2953
519 1 -1.1104 15.9994 4.21424 4.3421 21.1191
520 1 -1.1104 15.9994 1.20899 7.25973 18.129
521 1 -1.1104 15.9994 4.35963 7.0628 18.1252
522 1 -1.1104 15.9994 1.2372 7.2249 20.9781
523 1 -1.1104 15.9994 4.15681 7.06462 20.8498
524 1 -1.1104 15.9994 7.07703 4.35712 17.9998
525 1 -1.1104 15.9994 9.59795 4.45289 18.2447
526 1 -1.1104 15.9994 6.88664 4.26711 21.1053
527 1 -1.1104 15.9994 9.74986 4.57359 21.0723
528 1 -1.1104 15.9994 6.97885 7.28987 18.1946
529 1 -1.1104 15.9994 9.79688 7.07553 17.9842
530 1 -1.1104 15.9994 6.77054 7.36587 21.1243
531 1 -1.1104 15.9994 9.8207 7.41735 20.8247
532 1 -1.1104 15.9994 12.5334 4.35063 18.2114
533 1 -1.1104 15.9994 12.6219 4.54494 21.1225
534 1 -1.1104 15.9994 12.4327 7.0282 18.0635
535 1 -1.1104 15.9994 12.7092 7.27898 21.1842
536 1 -1.1104 15.9994 1.00139 10.0064 18.0089
537 1 -1.1104 15.9994 3.90781 9.88393 18.1417
538 1 -1.1104 15.9994 1.18173 10.0306 20.7973
539 1 -1.1104 15.9994 4.06059 9.80521 20.7998
540 1 -1.1104 15.9994 1.09835 12.6706 18.1128
541 1 -1.1104 15.9994 3.85385 12.6857 18.1173
542 1 -1.1104 15.9994 1.14989 12.8945 20.9591
543 1 -1.1104 15.9994 4.01777 12.8653 20.7115
544 1 -1.1104 15.9994 6.65665 9.8477 18.2973
545 1 -1.1104 15.9994 9.51841 9.85425 18.0946
546 1 -1.1104 15.9994 6.66369 10.1469 21.0703
547 1 -1.1104 15.9994 9.53084 10.0087 20.7891
548 1 -1.1104 15.9994 6.66885 13.2513 18.1203
549 1 -1.1104 15.9994 9.60534 12.7581 18.1714
550 1 -1.1104 15.9994 6.71654 12.89 20.8287
551 1 -1.1104 15.9994 9.55231 12.8144 20.9953
552 1 -1.1104 15.9994 12.4705 9.92159 18.2369
553 1 -1.1104 15.9994 12.7354 10.0806 20.8033
554 1 -1.1104 15.9994 12.5577 12.7388 18.4199
555 1 -1.1104 15.9994 12.3776 12.7484 21.0814
556 1 -1.1104 15.9994 1.42799 15.2661 17.6072
557 1 -1.1104 15.9994 4.17534 15.7315 18.1391
558 1 -1.1104 15.9994 0.904525 15.6334 20.8887
559 1 -1.1104 15.9994 3.93556 15.4401 20.9676
560 1 -1.1104 15.9994 1.55655 17.8891 18.2881
561 1 -1.1104 15.9994 4.50708 18.1733 18.0298
562 1 -1.1104 15.9994 1.26202 18.7725 21.1757
563 1 -1.1104 15.9994 4.23408 18.0625 21.1676
564 1 -1.1104 15.9994 6.90298 15.9121 18.0034
565 1 -1.1104 15.9994 9.69261 15.9203 18.329
566 1 -1.1104 15.9994 7.11104 15.6467 21.0366
567 1 -1.1104 15.9994 9.91245 15.5176 20.9021
568 1 -1.1104 15.9994 7.20003 18.5957 18.283
569 1 -1.1104 15.9994 10.0254 18.7133 18.1892
570 1 -1.1104 15.9994 6.96947 18.3059 20.9374
571 1 -1.1104 15.9994 9.84748 18.4496 21.098
572 1 -1.1104 15.9994 12.6055 15.6716 18.1187
573 1 -1.1104 15.9994 12.6076 15.7996 20.9854
574 1 -1.1104 15.9994 12.7064 18.5083 18.1657
575 1 -1.1104 15.9994 12.6013 18.4628 21.0155
576 1 -1.1104 15.9994 1.38229 21.3665 18.8616
577 1 -1.1104 15.9994 3.97481 21.0731 18.1148
644 1 -1.1104 15.9994 12.4705 12.81 23.7585
579 1 -1.1104 15.9994 4.3797 20.7937 20.7018
580 1 -1.1104 15.9994 6.877 21.2996 18.2624
581 1 -1.1104 15.9994 9.64219 21.3802 18.3498
582 1 -1.1104 15.9994 6.96012 21.2406 21.0399
583 1 -1.1104 15.9994 9.91642 21.4142 21.1245
584 1 -1.1104 15.9994 12.4785 21.4863 18.0673
585 1 -1.1104 15.9994 12.3777 21.2516 20.8517
586 1 -1.1104 15.9994 1.1146 -1.43072 24.1348
587 1 -1.1104 15.9994 3.91946 -1.28587 23.5721
588 1 -1.1104 15.9994 1.33806 -1.37033 27.0763
589 1 -1.1104 15.9994 4.07277 -1.29023 26.549
590 1 -1.1104 15.9994 1.18974 1.47091 23.7907
591 1 -1.1104 15.9994 3.95164 1.60384 23.6263
592 1 -1.1104 15.9994 1.42975 1.62085 26.637
593 1 -1.1104 15.9994 4.10925 1.36883 26.6862
594 1 -1.1104 15.9994 6.77603 -1.26112 23.7987
595 1 -1.1104 15.9994 9.65558 -1.27974 23.8971
596 1 -1.1104 15.9994 6.91628 -1.36681 26.7793
597 1 -1.1104 15.9994 9.86906 -1.5107 26.7232
598 1 -1.1104 15.9994 7.10372 1.64254 23.7366
599 1 -1.1104 15.9994 9.78808 1.5478 23.8353
600 1 -1.1104 15.9994 6.96082 1.32966 26.6363
601 1 -1.1104 15.9994 9.75272 1.43836 26.5574
602 1 -1.1104 15.9994 12.6512 -1.19445 23.8419
603 1 -1.1104 15.9994 12.5907 -1.24364 26.7131
604 1 -1.1104 15.9994 12.6667 1.29037 23.7572
605 1 -1.1104 15.9994 12.6736 1.54656 26.8502
606 1 -1.1104 15.9994 1.08607 4.21104 24.0811
607 1 -1.1104 15.9994 4.06682 4.4044 23.9691
608 1 -1.1104 15.9994 1.57078 4.54917 26.6674
609 1 -1.1104 15.9994 4.15838 4.20475 26.835
610 1 -1.1104 15.9994 1.38052 7.07443 23.7463
611 1 -1.1104 15.9994 3.90521 7.03271 23.848
612 1 -1.1104 15.9994 1.41673 7.07845 26.7845
613 1 -1.1104 15.9994 4.15964 7.38775 26.4009
614 1 -1.1104 15.9994 6.81072 4.41794 23.718
615 1 -1.1104 15.9994 9.44157 4.44811 23.6855
616 1 -1.1104 15.9994 6.94679 4.37544 26.473
617 1 -1.1104 15.9994 9.61298 4.48489 26.5554
618 1 -1.1104 15.9994 6.66649 7.32156 23.9556
619 1 -1.1104 15.9994 9.57512 7.14804 23.85
620 1 -1.1104 15.9994 6.83347 7.26938 26.5782
621 1 -1.1104 15.9994 9.80708 7.25919 26.6276
622 1 -1.1104 15.9994 12.5722 4.28004 24.0252
623 1 -1.1104 15.9994 12.631 4.27843 26.5373
624 1 -1.1104 15.9994 12.5974 7.28902 23.9736
625 1 -1.1104 15.9994 12.6648 7.27837 26.6064
626 1 -1.1104 15.9994 1.14767 10.0304 23.8386
627 1 -1.1104 15.9994 4.08675 10.0461 23.6669
628 1 -1.1104 15.9994 1.43106 10.0625 26.5395
629 1 -1.1104 15.9994 4.20741 10.2967 26.971
630 1 -1.1104 15.9994 0.789223 12.6493 23.6335
631 1 -1.1104 15.9994 3.69019 12.9243 23.5571
632 1 -1.1104 15.9994 1.26305 12.7548 26.5766
633 1 -1.1104 15.9994 4.03044 13.0694 26.4747
634 1 -1.1104 15.9994 6.96946 10.2138 23.8754
635 1 -1.1104 15.9994 9.71093 9.95638 23.8213
636 1 -1.1104 15.9994 7.02901 10.1524 26.5847
637 1 -1.1104 15.9994 9.63405 21.4989 26.6035
638 1 -1.1104 15.9994 6.66404 12.9671 23.7129
639 1 -1.1104 15.9994 9.74285 12.9232 23.7539
640 1 -1.1104 15.9994 6.73767 12.8321 26.763
641 1 -1.1104 15.9994 9.79626 10.6243 26.6117
642 1 -1.1104 15.9994 12.4618 10.1738 23.5632
643 1 -1.1104 15.9994 12.4068 10.1914 26.5967