ITEM: TIMESTEP
350000
ITEM: NUMBER OF ATOMS
18000
ITEM: BOX BOUNDS xy xz yz pp pp pp
-2.3897947659336874e-01 2.8132979476591945e+01 0.0000000000000000e+00
-2.5981345510215390e+00 3.3732613455098692e+02 0.0000000000000000e+00
-2.1018538808408455e-01 2.8104185388082783e+01 0.0000000000000000e+00
ITEM: ATOMS id type q mass x y z
671 2 2.2208 232.038 8.33483 17.4354 -0.089288
324 1 -1.1104 15.9994 12.9056 4.54196 12.4636
57 2 2.2208 232.038 8.41564 -2.42045 8.39687
4 1 -1.1104 15.9994 12.5561 21.4548 12.6101
323 1 -1.1104 15.9994 10.0172 7.55938 12.4981
322 1 -1.1104 15.9994 6.90377 7.19803 12.3132
9101 2 2.2208 232.038 13.8706 22.5789 11.2462
8 2 2.2208 232.038 5.68445 0.230183 2.62753
9 1 -1.1104 15.9994 12.8085 7.3629 12.6324
10 2 2.2208 232.038 11.36 0.37569 2.47699
11 1 -1.1104 15.9994 9.83088 21.4982 12.53
321 1 -1.1104 15.9994 10.1325 4.61595 12.5582
13 2 2.2208 232.038 2.65076 2.9784 2.49105
14 1 -1.1104 15.9994 6.82048 21.59 12.5267
55 2 2.2208 232.038 5.52771 -2.51359 5.49134
9692 2 2.2208 232.038 -0.127986 -2.36876 -0.0338661
17 2 2.2208 232.038 8.28676 3.19826 2.69094
18 2 2.2208 232.038 5.47899 5.93107 2.48183
374 2 2.2208 232.038 11.2196 20.3079 -0.0556232
20 2 2.2208 232.038 11.1747 5.81942 2.48639
21 1 -1.1104 15.9994 3.97446 21.3688 12.5227
22 1 -1.1104 15.9994 1.19414 15.7465 12.8457
23 2 2.2208 232.038 2.78541 8.82343 2.47682
320 1 -1.1104 15.9994 7.20094 4.50402 12.6505
668 2 2.2208 232.038 -0.238374 14.4353 -0.172559
7 2 2.2208 232.038 8.61677 -2.57695 2.69997
27 2 2.2208 232.038 8.09763 8.87194 2.61945
28 2 2.2208 232.038 5.60536 11.7372 2.38303
662 2 2.2208 232.038 11.1517 -2.47258 -0.212405
30 2 2.2208 232.038 11.09 11.6861 2.74962
31 1 -1.1104 15.9994 12.8412 12.8698 12.442
32 1 -1.1104 15.9994 12.4791 10.268 12.5251
33 2 2.2208 232.038 2.7027 14.5212 2.73647
330 2 2.2208 232.038 11.3798 0.381823 13.8624
35 1 -1.1104 15.9994 9.78648 13.029 12.6234
36 1 -1.1104 15.9994 6.82277 12.8734 12.5284
37 2 2.2208 232.038 8.49779 14.5757 2.5888
38 2 2.2208 232.038 5.47639 17.1996 2.67412
39 1 -1.1104 15.9994 9.57708 10.4871 12.7991
40 2 2.2208 232.038 11.3461 17.3846 2.74977
41 1 -1.1104 15.9994 6.85123 10.0848 12.8246
42 1 -1.1104 15.9994 4.0561 12.8769 12.5625
43 2 2.2208 232.038 2.65791 20.0385 2.64364
319 1 -1.1104 15.9994 4.10026 7.21035 12.5008
45 1 -1.1104 15.9994 1.16308 12.6259 12.6512
46 1 -1.1104 15.9994 4.3197 10.1404 12.4231
47 2 2.2208 232.038 8.13931 19.9856 2.71796
48 2 2.2208 232.038 5.20514 23.1174 2.62986
49 1 -1.1104 15.9994 1.48481 9.92912 12.8389
50 2 2.2208 232.038 10.9357 23.0186 2.75688
51 1 -1.1104 15.9994 1.24289 21.6153 12.6886
52 2 2.2208 232.038 2.73719 0.273471 5.54658
676 2 2.2208 232.038 8.00527 22.9834 -0.00763283
54 1 -1.1104 15.9994 12.5835 18.7387 12.6412
29 2 2.2208 232.038 11.2469 8.72328 -0.175713
56 2 2.2208 232.038 8.34409 0.386693 5.505
331 2 2.2208 232.038 2.86711 3.18155 13.9442
58 2 2.2208 232.038 5.68743 0.415529 8.38094
334 2 2.2208 232.038 5.73434 5.9438 13.8879
60 2 2.2208 232.038 11.345 0.300422 8.0658
61 1 -1.1104 15.9994 12.2112 15.3967 12.7906
62 2 2.2208 232.038 2.63222 5.957 5.17214
63 2 2.2208 232.038 2.80883 3.20062 8.33531
64 1 -1.1104 15.9994 9.68316 18.6813 12.6869
65 2 2.2208 232.038 5.58682 3.24053 5.331
66 2 2.2208 232.038 8.2252 6.29647 5.156
67 2 2.2208 232.038 8.4035 3.19528 8.29048
68 2 2.2208 232.038 5.75696 5.90527 8.16246
69 2 2.2208 232.038 11.1576 3.34764 5.39901
70 2 2.2208 232.038 11.0059 6.05871 8.40065
71 1 -1.1104 15.9994 6.81543 18.7694 12.5675
72 2 2.2208 232.038 2.79078 11.6268 5.11186
73 2 2.2208 232.038 2.87603 8.78929 8.00004
74 1 -1.1104 15.9994 9.66208 15.8042 12.5134
75 2 2.2208 232.038 5.27178 9.11797 5.44974
76 2 2.2208 232.038 8.49754 11.6921 5.44907
77 2 2.2208 232.038 8.16513 9.27448 8.22527
78 2 2.2208 232.038 5.3879 11.5404 8.20215
79 2 2.2208 232.038 11.1264 8.72688 5.46153
80 2 2.2208 232.038 11.2631 11.6693 8.37716
318 1 -1.1104 15.9994 1.28814 6.90948 12.4428
82 2 2.2208 232.038 2.84952 17.289 5.34355
83 2 2.2208 232.038 2.87269 14.2925 8.35382
329 2 2.2208 232.038 5.52392 0.146008 13.8992
85 2 2.2208 232.038 5.6495 14.4341 5.47459
86 2 2.2208 232.038 8.30251 17.1406 5.50736
87 2 2.2208 232.038 8.44512 14.2784 8.07311
88 2 2.2208 232.038 5.41756 17.2036 8.27573
89 2 2.2208 232.038 11.3004 14.4722 5.55817
90 2 2.2208 232.038 11.2374 16.9268 8.47311
81 2 2.2208 232.038 -0.0695023 14.3137 5.74363
92 2 2.2208 232.038 2.52752 22.8564 5.38276
93 2 2.2208 232.038 2.72294 19.8392 8.16732
53 2 2.2208 232.038 2.73146 -2.4833 8.24626
95 2 2.2208 232.038 5.39214 20.0444 5.42922
96 2 2.2208 232.038 8.2473 22.864 5.29549
97 2 2.2208 232.038 8.25692 19.9358 8.34069
98 2 2.2208 232.038 5.41476 22.9955 8.30893
99 2 2.2208 232.038 11.1489 20.0149 5.35077
100 2 2.2208 232.038 11.3303 22.4367 8.2446
101 1 -1.1104 15.9994 6.71631 15.8405 12.8024
102 2 2.2208 232.038 2.65781 0.162122 11.2297
2 2 2.2208 232.038 13.9065 19.8378 8.55134
104 2 2.2208 232.038 8.46585 0.262757 11.2983
9161 1 -1.1104 15.9994 1.13406 10.0731 3.94554
106 1 -1.1104 15.9994 4.02629 18.5958 12.8791
107 2 2.2208 232.038 3.03833 5.84243 10.9367
108 2 2.2208 232.038 5.62834 3.02033 11.1838
109 2 2.2208 232.038 8.42212 5.92224 11.2414
110 2 2.2208 232.038 11.3513 3.1236 10.9337
111 1 -1.1104 15.9994 1.32085 18.6565 12.5583
112 2 2.2208 232.038 2.75447 11.3831 11.2973
113 2 2.2208 232.038 5.84215 8.87935 10.9828
114 2 2.2208 232.038 8.51446 11.5831 11.2454
115 2 2.2208 232.038 11.4536 8.81632 10.9049
116 1 -1.1104 15.9994 3.95687 15.5092 12.3731
117 2 2.2208 232.038 2.8193 17.1744 11.2794
118 2 2.2208 232.038 5.65577 14.3495 11.2318
119 2 2.2208 232.038 8.38697 17.2111 11.3684
120 2 2.2208 232.038 11.134 14.2217 11.2445
8988 2 2.2208 232.038 -0.00660406 11.5411 8.20123
122 2 2.2208 232.038 2.62588 22.9229 11.1144
123 2 2.2208 232.038 5.45599 20.2014 11.3655
124 2 2.2208 232.038 8.23531 22.9114 11.4981
125 2 2.2208 232.038 11.0926 19.9378 11.0866
126 1 -1.1104 15.9994 1.16963 -1.31154 1.30752
127 1 -1.1104 15.9994 3.9253 -1.08269 1.46738
128 1 -1.1104 15.9994 1.36651 -0.961536 4.05964
129 1 -1.1104 15.9994 4.27508 -1.01092 4.2954
130 1 -1.1104 15.9994 1.36326 1.39141 1.25482
131 1 -1.1104 15.9994 4.13603 1.77739 1.35102
132 1 -1.1104 15.9994 1.34706 1.60465 4.19073
133 1 -1.1104 15.9994 4.10491 1.67773 4.19366
134 1 -1.1104 15.9994 6.94885 -1.35366 1.39213
135 1 -1.1104 15.9994 9.66529 -1.10723 1.19537
136 1 -1.1104 15.9994 7.28798 -0.800674 3.93541
137 1 -1.1104 15.9994 10.2019 -1.39764 3.67686
138 1 -1.1104 15.9994 6.97704 1.57663 1.06525
139 1 -1.1104 15.9994 9.80066 1.6693 1.13872
140 1 -1.1104 15.9994 7.14486 1.80804 3.86531
141 1 -1.1104 15.9994 10.0324 1.88939 3.9335
142 1 -1.1104 15.9994 12.5101 -0.983716 0.921772
143 1 -1.1104 15.9994 12.624 -0.978876 3.77336
144 1 -1.1104 15.9994 12.6618 2.01846 1.00118
145 1 -1.1104 15.9994 12.6817 1.88691 4.01053
146 1 -1.1104 15.9994 1.42913 4.52989 1.28599
147 1 -1.1104 15.9994 4.07413 4.64845 1.13916
148 1 -1.1104 15.9994 1.20577 4.26961 3.94727
149 1 -1.1104 15.9994 4.13025 4.55682 3.89572
150 1 -1.1104 15.9994 1.37295 7.55314 1.25462
151 1 -1.1104 15.9994 4.15726 7.2317 1.03982
152 1 -1.1104 15.9994 1.43311 7.12403 6.83886
153 1 -1.1104 15.9994 3.94669 7.21717 3.9052
154 1 -1.1104 15.9994 6.7594 4.35861 1.14354
155 1 -1.1104 15.9994 9.74737 4.41212 1.05535
156 1 -1.1104 15.9994 6.95556 4.75758 3.92116
157 1 -1.1104 15.9994 9.48012 4.72597 4.01589
158 1 -1.1104 15.9994 7.02449 7.31087 1.15993
159 1 -1.1104 15.9994 9.9044 7.21566 1.06005
160 1 -1.1104 15.9994 6.55122 7.55175 3.81164
161 1 -1.1104 15.9994 9.70531 7.32724 3.78662
162 1 -1.1104 15.9994 12.6075 4.67965 1.18299
163 1 -1.1104 15.9994 12.5832 4.58479 3.99011
164 1 -1.1104 15.9994 12.6826 7.48947 1.39635
165 1 -1.1104 15.9994 12.7055 7.49362 4.23645
166 1 -1.1104 15.9994 1.26707 10.383 1.15868
167 1 -1.1104 15.9994 4.08108 10.0064 1.00763
168 1 -1.1104 15.9994 0.960364 7.38465 4.0075
169 1 -1.1104 15.9994 3.88041 10.0807 3.86263
170 1 -1.1104 15.9994 1.19866 13.2576 1.31558
171 1 -1.1104 15.9994 4.02447 12.9437 1.2146
172 1 -1.1104 15.9994 1.4645 13.1561 3.95108
173 1 -1.1104 15.9994 4.16655 13.0085 4.03924
174 1 -1.1104 15.9994 7.17552 10.1825 0.98067
175 1 -1.1104 15.9994 9.80009 9.92526 1.48312
176 1 -1.1104 15.9994 6.62021 10.4051 4.00987
177 1 -1.1104 15.9994 9.65116 10.0967 4.1333
178 1 -1.1104 15.9994 6.92533 13.1514 1.28057
179 1 -1.1104 15.9994 12.7461 13.0743 1.42076
180 1 -1.1104 15.9994 6.98985 12.9959 3.93981
181 1 -1.1104 15.9994 9.68402 13.0657 4.13475
182 1 -1.1104 15.9994 12.6611 10.2606 1.39496
183 1 -1.1104 15.9994 12.3722 10.4614 4.37609
677 1 -1.1104 15.9994 9.82519 13.0897 1.29227
185 1 -1.1104 15.9994 12.6727 13.1768 4.18399
186 1 -1.1104 15.9994 1.5975 16.0355 1.35132
187 1 -1.1104 15.9994 4.25619 15.7913 1.41036
188 1 -1.1104 15.9994 1.48103 15.847 4.24058
189 1 -1.1104 15.9994 4.13236 15.882 4.14522
190 1 -1.1104 15.9994 1.37323 18.7896 1.08517
191 1 -1.1104 15.9994 4.05051 18.5492 1.28264
192 1 -1.1104 15.9994 1.11088 18.624 3.9255
193 1 -1.1104 15.9994 4.17082 18.8205 3.88201
194 1 -1.1104 15.9994 7.27477 16.0814 1.3351
195 1 -1.1104 15.9994 10.0549 15.9493 1.15638
196 1 -1.1104 15.9994 6.83921 15.8391 4.15007
197 1 -1.1104 15.9994 9.73424 16.0661 4.11114
198 1 -1.1104 15.9994 6.78961 18.8313 1.29915
199 1 -1.1104 15.9994 9.98224 18.7661 1.44577
200 1 -1.1104 15.9994 7.00673 18.6194 4.15325
201 1 -1.1104 15.9994 9.784 18.7544 4.06002
202 1 -1.1104 15.9994 12.8419 15.7837 1.44329
203 1 -1.1104 15.9994 12.4375 15.8495 4.01623
204 1 -1.1104 15.9994 12.6955 18.856 1.20553
205 1 -1.1104 15.9994 12.8413 18.6393 4.13756
206 1 -1.1104 15.9994 1.24319 21.631 1.44201
207 1 -1.1104 15.9994 3.94328 21.5342 1.06317
208 1 -1.1104 15.9994 1.18946 21.3995 3.94919
209 1 -1.1104 15.9994 4.03001 21.4167 3.88711
210 1 -1.1104 15.9994 6.67711 21.6335 1.47217
211 1 -1.1104 15.9994 9.44996 21.6987 1.33982
212 1 -1.1104 15.9994 6.8787 21.3581 4.16335
213 1 -1.1104 15.9994 9.70977 21.5934 3.97773
214 1 -1.1104 15.9994 12.4634 21.5259 1.23495
215 1 -1.1104 15.9994 12.6516 21.3619 3.9064
216 1 -1.1104 15.9994 1.27769 -1.43878 6.59333
217 1 -1.1104 15.9994 4.11486 -1.00433 7.07862
218 1 -1.1104 15.9994 1.1379 -1.30709 12.4867
219 1 -1.1104 15.9994 4.14853 -1.31165 9.80643
220 1 -1.1104 15.9994 1.57157 1.75232 7.09288
221 1 -1.1104 15.9994 4.30126 1.4153 7.12538
222 1 -1.1104 15.9994 1.09243 -1.15558 9.57939
223 1 -1.1104 15.9994 4.32843 1.78869 9.87549
224 1 -1.1104 15.9994 7.07828 -0.852133 7.08471
225 1 -1.1104 15.9994 9.91587 -1.06277 6.75512
226 1 -1.1104 15.9994 7.04955 -1.16252 9.78193
227 1 -1.1104 15.9994 9.77072 -0.951038 9.70309
228 1 -1.1104 15.9994 6.84197 1.68062 6.56437
229 1 -1.1104 15.9994 9.88365 1.70498 6.61503
230 1 -1.1104 15.9994 7.33314 1.58845 9.68002
231 1 -1.1104 15.9994 10.1152 1.80343 9.58598
232 1 -1.1104 15.9994 12.8493 -1.04371 6.623
233 1 -1.1104 15.9994 12.6897 -1.1756 9.47706
234 1 -1.1104 15.9994 12.6107 1.79688 6.72464
235 1 -1.1104 15.9994 12.8167 1.52883 9.53794
236 1 -1.1104 15.9994 1.45523 4.57914 9.77375
237 1 -1.1104 15.9994 4.08622 4.61933 6.62231
238 1 -1.1104 15.9994 1.5077 1.5844 9.92355
239 1 -1.1104 15.9994 4.50732 4.50302 9.56973
240 1 -1.1104 15.9994 1.28869 4.55715 6.85019
241 1 -1.1104 15.9994 4.13928 7.4398 6.72184
242 1 -1.1104 15.9994 1.68793 7.44169 9.76771
243 1 -1.1104 15.9994 4.45315 7.3146 9.41188
244 1 -1.1104 15.9994 6.90761 4.76836 6.59355
245 1 -1.1104 15.9994 9.72446 4.50891 7.04209
246 1 -1.1104 15.9994 7.24903 4.44775 9.64
247 1 -1.1104 15.9994 9.87357 4.65456 9.94746
248 1 -1.1104 15.9994 7.04191 7.64218 6.91271
249 1 -1.1104 15.9994 9.52963 7.40608 6.80559
250 1 -1.1104 15.9994 7.28629 7.47817 9.77256
251 1 -1.1104 15.9994 10.1598 7.39844 9.86295
252 1 -1.1104 15.9994 12.5976 4.39719 6.77686
253 1 -1.1104 15.9994 12.6411 4.35772 9.53516
254 1 -1.1104 15.9994 12.3986 7.58403 6.90088
255 1 -1.1104 15.9994 12.7622 7.19354 9.6387
256 1 -1.1104 15.9994 1.37558 9.98596 6.84566
257 1 -1.1104 15.9994 4.07366 10.4746 6.65523
258 1 -1.1104 15.9994 1.52589 10.1223 9.81997
259 1 -1.1104 15.9994 4.32151 9.96988 9.41444
260 1 -1.1104 15.9994 1.46905 12.6781 6.90892
261 1 -1.1104 15.9994 4.26378 13.0655 6.86124
262 1 -1.1104 15.9994 1.47402 12.7955 9.70478
263 1 -1.1104 15.9994 4.29004 12.7529 9.59941
264 1 -1.1104 15.9994 6.82803 10.2826 6.72606
265 1 -1.1104 15.9994 9.77724 10.3693 6.93743
266 1 -1.1104 15.9994 6.91703 10.2479 9.6567
267 1 -1.1104 15.9994 9.97079 10.0741 9.51692
268 1 -1.1104 15.9994 7.16542 12.9854 6.72959
269 1 -1.1104 15.9994 9.92832 13.0488 6.77831
270 1 -1.1104 15.9994 7.07979 12.8918 9.50689
271 1 -1.1104 15.9994 9.98782 12.8964 9.81741
272 1 -1.1104 15.9994 12.7623 10.0896 7.05483
273 1 -1.1104 15.9994 12.8684 10.4442 9.88383
274 1 -1.1104 15.9994 13.0157 13.0239 6.747
275 1 -1.1104 15.9994 12.5097 13.0934 9.54696
276 1 -1.1104 15.9994 1.16546 15.8444 7.35305
277 1 -1.1104 15.9994 4.26559 15.972 6.63288
278 1 -1.1104 15.9994 1.19477 15.6688 10.0518
279 1 -1.1104 15.9994 4.13766 15.6719 9.58385
280 1 -1.1104 15.9994 1.32612 18.6926 6.60319
281 1 -1.1104 15.9994 4.04938 18.5367 6.9518
282 1 -1.1104 15.9994 1.1248 18.3727 9.8488
283 1 -1.1104 15.9994 3.95585 18.7846 9.73386
284 1 -1.1104 15.9994 7.04607 15.7057 6.98691
285 1 -1.1104 15.9994 9.84452 15.7713 6.72512
286 1 -1.1104 15.9994 6.94074 15.6454 9.89988
287 1 -1.1104 15.9994 9.73193 15.7995 9.7539
288 1 -1.1104 15.9994 6.95925 18.6582 6.79088
289 1 -1.1104 15.9994 9.62738 18.6884 6.99102
290 1 -1.1104 15.9994 6.79526 18.3892 9.7926
291 1 -1.1104 15.9994 9.62667 18.5023 9.71226
292 1 -1.1104 15.9994 12.7568 16.0104 6.98046
293 1 -1.1104 15.9994 12.7406 15.6408 9.95929
294 1 -1.1104 15.9994 12.5393 18.7494 7.00916
295 1 -1.1104 15.9994 12.4124 18.4053 9.87761
296 1 -1.1104 15.9994 1.28245 21.3178 6.86078
297 1 -1.1104 15.9994 4.30028 21.4129 6.83883
298 1 -1.1104 15.9994 1.35144 21.381 9.85406
299 1 -1.1104 15.9994 4.16215 21.8132 9.90204
300 1 -1.1104 15.9994 6.91951 21.4768 6.97626
301 1 -1.1104 15.9994 9.56822 21.1419 6.63471
302 1 -1.1104 15.9994 6.84778 21.1737 9.63975
303 1 -1.1104 15.9994 9.77494 21.4243 9.60139
304 1 -1.1104 15.9994 12.6279 21.4641 6.78402
305 1 -1.1104 15.9994 12.5544 20.9718 9.88248
8984 2 2.2208 232.038 0.0668476 3.14751 11.1529
307 1 -1.1104 15.9994 4.31543 -1.40192 12.6786
308 1 -1.1104 15.9994 1.3518 1.66317 12.587
309 1 -1.1104 15.9994 4.22365 1.46294 12.5192
310 1 -1.1104 15.9994 7.03825 -1.09178 12.4788
311 1 -1.1104 15.9994 9.97876 -1.14483 12.7074
312 1 -1.1104 15.9994 7.08741 1.72311 12.461
313 1 -1.1104 15.9994 9.87877 1.6751 12.6442
314 1 -1.1104 15.9994 12.8856 -1.0353 12.4769
315 1 -1.1104 15.9994 12.7346 1.74711 12.5979
316 1 -1.1104 15.9994 1.30194 4.35467 12.5614
317 1 -1.1104 15.9994 4.31961 4.28615 12.4408
336 2 2.2208 232.038 2.92406 8.5511 13.8834
34 2 2.2208 232.038 -0.0764927 17.2264 2.70667
8983 2 2.2208 232.038 0.0783924 8.72016 11.2042
121 2 2.2208 232.038 -0.0948087 19.9356 11.3081
9688 2 2.2208 232.038 -0.0774401 8.82564 -0.080032
8994 2 2.2208 232.038 -0.17693 6.06329 8.06509
665 2 2.2208 232.038 13.7679 22.9544 -0.152467
663 2 2.2208 232.038 2.59755 6.07163 -0.0618378
24 2 2.2208 232.038 -0.0779931 11.6899 2.53701
9004 2 2.2208 232.038 -0.172707 5.82532 2.5108
674 2 2.2208 232.038 2.59343 22.9356 0.0133636
105 2 2.2208 232.038 11.1373 -2.53735 10.9184
1 2 2.2208 232.038 13.8191 22.7841 5.26697
8997 2 2.2208 232.038 -0.0250972 3.20365 5.35105
659 2 2.2208 232.038 2.72333 0.249583 -0.0336833
341 2 2.2208 232.038 2.65384 14.3133 13.9147
328 2 2.2208 232.038 8.29498 -2.57836 13.9425
345 2 2.2208 232.038 11.3308 17.2099 13.8502
670 2 2.2208 232.038 5.46685 14.4483 -0.102212
661 2 2.2208 232.038 8.22339 -0.0470065 -0.166856
339 2 2.2208 232.038 5.54936 11.867 14.0145
327 1 -1.1104 15.9994 6.41726 21.8428 26.9428
333 2 2.2208 232.038 8.68991 3.23558 14.087
19 2 2.2208 232.038 11.2281 3.10542 28.0243
407 2 2.2208 232.038 8.32633 -2.48054 25.3413
9700 2 2.2208 232.038 -0.239843 11.3474 19.7085
332 1 -1.1104 15.9994 9.81226 21.3522 23.9218
657 2 2.2208 232.038 13.8683 23.1389 22.4422
405 2 2.2208 232.038 5.61854 -2.53354 22.4871
9666 2 2.2208 232.038 0.000933623 0.279367 19.6452
647 1 -1.1104 15.9994 3.92367 15.7835 24.1262
337 1 -1.1104 15.9994 4.08158 21.4086 23.8653
9671 2 2.2208 232.038 -0.057771 -2.45697 22.4443
431 2 2.2208 232.038 -0.205447 14.6345 22.4828
9380 2 2.2208 232.038 13.7966 20.2882 19.7971
9663 2 2.2208 232.038 -0.0801954 11.2322 14.1131
342 1 -1.1104 15.9994 3.84727 21.6072 26.6078
9662 2 2.2208 232.038 -0.00454944 5.90142 13.9966
357 2 2.2208 232.038 8.43807 -2.46351 19.622
9674 2 2.2208 232.038 -0.0936632 6.02312 25.1508
650 1 -1.1104 15.9994 1.19931 18.6425 23.8824
646 1 -1.1104 15.9994 1.15583 15.6923 23.959
350 2 2.2208 232.038 11.2147 22.8886 13.9873
355 2 2.2208 232.038 5.53493 -2.52424 16.7997
649 1 -1.1104 15.9994 4.03502 15.8726 26.8779
351 1 -1.1104 15.9994 1.02231 21.4258 26.8198
352 2 2.2208 232.038 2.95189 0.325607 16.592
394 2 2.2208 232.038 -0.133656 23.1176 19.4489
354 1 -1.1104 15.9994 4.40619 18.6388 23.9201
1281 1 -1.1104 15.9994 7.02748 21.5232 24.1614
356 2 2.2208 232.038 8.39554 0.360912 16.5479
652 1 -1.1104 15.9994 0.841602 18.8035 26.5117
358 2 2.2208 232.038 5.64572 0.3734 19.4292
9669 2 2.2208 232.038 0.0935541 8.57417 17.1913
360 2 2.2208 232.038 11.158 0.164422 19.5132
361 1 -1.1104 15.9994 0.918213 21.4942 23.5937
362 2 2.2208 232.038 2.91302 5.88195 16.8518
363 2 2.2208 232.038 2.81629 2.91331 19.5155
364 1 -1.1104 15.9994 12.5863 18.8361 26.7381
365 2 2.2208 232.038 5.68897 3.25556 16.5904
366 2 2.2208 232.038 8.53208 5.88574 16.9476
367 2 2.2208 232.038 8.65694 3.07373 19.607
368 2 2.2208 232.038 5.34931 5.8898 19.7148
369 2 2.2208 232.038 11.2592 3.08832 16.7986
370 2 2.2208 232.038 11.4094 5.72863 19.465
371 1 -1.1104 15.9994 12.6126 18.9085 24.1476
372 2 2.2208 232.038 2.6681 11.2749 16.6873
373 2 2.2208 232.038 2.68043 8.56021 19.7332
343 2 2.2208 232.038 8.37695 14.5635 14.1542
375 2 2.2208 232.038 5.46795 8.61405 16.963
376 2 2.2208 232.038 8.36775 11.3583 16.914
377 2 2.2208 232.038 8.56392 8.64426 19.778
378 2 2.2208 232.038 5.62306 11.5623 19.64
379 2 2.2208 232.038 11.4277 8.62667 16.8508
380 2 2.2208 232.038 11.0475 11.3222 19.809
381 1 -1.1104 15.9994 12.6775 16.0942 26.6208
382 2 2.2208 232.038 2.76422 17.3111 17.0522
383 2 2.2208 232.038 2.76125 14.3164 19.7399
656 1 -1.1104 15.9994 6.9476 15.718 26.8371
385 2 2.2208 232.038 5.46967 14.3295 16.8539
386 2 2.2208 232.038 8.45064 17.3678 16.956
387 2 2.2208 232.038 8.35824 14.4788 19.6739
388 2 2.2208 232.038 5.46574 16.9145 19.8303
389 2 2.2208 232.038 11.0466 14.3765 16.9954
390 2 2.2208 232.038 11.1733 17.2655 19.7802
391 1 -1.1104 15.9994 12.3433 21.6693 26.6656
392 2 2.2208 232.038 2.69532 22.9169 16.9994
393 2 2.2208 232.038 2.8708 20.0447 19.6754
9665 2 2.2208 232.038 0.0536971 -2.41796 16.8875
395 2 2.2208 232.038 5.50978 19.9788 16.8489
396 2 2.2208 232.038 8.1446 22.9326 16.9552
397 2 2.2208 232.038 8.2346 20.0277 19.9316
398 2 2.2208 232.038 5.57952 22.89 19.8349
399 2 2.2208 232.038 11.292 19.9319 16.8978
400 2 2.2208 232.038 11.1836 23.0129 19.5708
401 1 -1.1104 15.9994 12.5463 15.7162 24.0843
402 2 2.2208 232.038 2.58427 0.21305 22.4958
655 1 -1.1104 15.9994 9.52421 16.2275 23.8549
404 1 -1.1104 15.9994 9.64765 16.1811 26.5493
9379 2 2.2208 232.038 13.9599 22.998 16.8947
406 2 2.2208 232.038 8.43958 0.250688 22.2718
654 1 -1.1104 15.9994 6.56454 16.0091 23.9974
408 2 2.2208 232.038 5.61032 0.211789 25.1853
648 1 -1.1104 15.9994 1.28816 15.8238 26.8545
410 2 2.2208 232.038 11.1977 0.282676 25.3257
411 1 -1.1104 15.9994 6.97603 18.6304 26.7465
412 2 2.2208 232.038 2.64003 5.85314 22.5395
413 2 2.2208 232.038 2.65302 2.84045 25.1919
414 1 -1.1104 15.9994 9.73561 18.7448 27.0265
415 2 2.2208 232.038 5.54388 3.16741 22.3376
416 2 2.2208 232.038 8.6732 5.78316 22.3127
417 2 2.2208 232.038 8.33755 3.11246 25.5237
418 2 2.2208 232.038 5.44083 6.02573 25.3106
419 2 2.2208 232.038 11.3599 3.23541 22.6682
420 2 2.2208 232.038 11.3112 6.13765 25.4331
421 1 -1.1104 15.9994 9.82982 18.8084 23.9782
422 2 2.2208 232.038 2.79741 11.2941 22.5919
423 2 2.2208 232.038 2.77168 8.72994 25.3631
424 1 -1.1104 15.9994 9.76622 13.3387 26.9214
425 2 2.2208 232.038 5.53926 8.63481 22.6225
426 2 2.2208 232.038 8.28657 11.3853 22.4964
427 2 2.2208 232.038 8.45698 8.63203 25.3212
428 2 2.2208 232.038 5.57743 11.5599 25.3273
429 2 2.2208 232.038 11.2305 8.69408 22.6156
430 2 2.2208 232.038 11.2378 11.7151 25.4294
9668 2 2.2208 232.038 -0.158922 5.60982 19.6287
432 2 2.2208 232.038 2.51221 17.1574 22.5969
433 2 2.2208 232.038 2.61448 14.3604 25.3989
645 1 -1.1104 15.9994 12.5931 13.3063 26.8584
435 2 2.2208 232.038 5.44144 14.424 22.3963
436 2 2.2208 232.038 8.25601 17.2022 22.4268
437 2 2.2208 232.038 8.30682 14.8432 25.1874
438 2 2.2208 232.038 5.32118 17.2901 25.3964
439 2 2.2208 232.038 11.1044 14.5748 22.6826
440 2 2.2208 232.038 11.1684 17.7346 25.4179
651 1 -1.1104 15.9994 7.02359 18.6475 24.1644
442 1 -1.1104 15.9994 12.4761 21.6262 23.6438
443 2 2.2208 232.038 2.46964 20.3751 25.1334
653 1 -1.1104 15.9994 3.99919 18.6684 26.6318
445 2 2.2208 232.038 5.58602 20.1901 22.6992
446 2 2.2208 232.038 8.38836 23.0221 22.6206
447 2 2.2208 232.038 8.3777 20.0606 25.4768
448 2 2.2208 232.038 5.29171 23.0905 25.4389
449 2 2.2208 232.038 11.114 20.2649 22.4319
450 2 2.2208 232.038 11.1748 23.027 25.4288
451 1 -1.1104 15.9994 1.40388 -1.00125 15.3718
452 1 -1.1104 15.9994 4.18248 -1.27786 15.3692
453 1 -1.1104 15.9994 1.42397 1.69566 15.4219
454 1 -1.1104 15.9994 4.30974 1.51523 15.1267
455 1 -1.1104 15.9994 6.79179 -1.3956 15.2288
456 1 -1.1104 15.9994 9.78915 -0.894156 15.1205
457 1 -1.1104 15.9994 7.05364 1.65541 15.466
458 1 -1.1104 15.9994 9.91097 1.96375 15.3468
459 1 -1.1104 15.9994 12.6748 -1.14476 15.2701
460 1 -1.1104 15.9994 12.7629 1.93006 15.2259
461 1 -1.1104 15.9994 1.86878 4.52986 15.3613
462 1 -1.1104 15.9994 4.46463 4.52878 15.194
463 1 -1.1104 15.9994 1.55157 7.24777 15.4022
464 1 -1.1104 15.9994 4.27154 7.28187 15.2766
465 1 -1.1104 15.9994 7.15184 4.59886 15.2658
466 1 -1.1104 15.9994 9.94187 4.60452 15.504
467 1 -1.1104 15.9994 7.16124 7.33068 15.4311
468 1 -1.1104 15.9994 10.0198 7.41012 15.303
469 1 -1.1104 15.9994 12.854 4.54399 15.2447
470 1 -1.1104 15.9994 12.7464 7.20416 15.5855
471 1 -1.1104 15.9994 1.28425 9.96767 15.7311
472 1 -1.1104 15.9994 3.92644 10.3461 15.1882
473 1 -1.1104 15.9994 1.27843 13.0269 15.5481
474 1 -1.1104 15.9994 4.16775 13.0037 15.3868
475 1 -1.1104 15.9994 6.797 10.1726 15.6801
476 1 -1.1104 15.9994 9.91973 10.1892 15.6288
477 1 -1.1104 15.9994 6.84544 13.0901 15.296
478 1 -1.1104 15.9994 9.69224 13.3374 15.2837
479 1 -1.1104 15.9994 12.712 9.91753 15.4678
480 1 -1.1104 15.9994 12.4621 12.7825 15.4809
481 1 -1.1104 15.9994 1.38515 15.6352 15.3636
482 1 -1.1104 15.9994 4.22536 15.7444 15.549
483 1 -1.1104 15.9994 1.34542 18.5128 15.4851
484 1 -1.1104 15.9994 3.98143 18.6117 15.5435
485 1 -1.1104 15.9994 7.13856 15.9137 15.5541
486 1 -1.1104 15.9994 9.93365 16.0153 15.2803
487 1 -1.1104 15.9994 6.96163 18.5797 15.5627
488 1 -1.1104 15.9994 9.61877 18.7106 15.3551
489 1 -1.1104 15.9994 12.6694 15.8922 15.618
490 1 -1.1104 15.9994 12.5006 18.8122 15.4196
491 1 -1.1104 15.9994 1.40746 21.906 15.6782
492 1 -1.1104 15.9994 4.21447 21.4099 15.5463
493 1 -1.1104 15.9994 7.10323 21.536 15.1386
494 1 -1.1104 15.9994 9.92396 21.531 15.3557
495 1 -1.1104 15.9994 12.6091 21.4884 15.419
496 1 -1.1104 15.9994 1.2327 -1.08125 18.1922
497 1 -1.1104 15.9994 4.07306 -0.857851 18.2004
498 1 -1.1104 15.9994 1.46861 -1.02767 20.9403
499 1 -1.1104 15.9994 4.18467 -1.34092 21.2225
500 1 -1.1104 15.9994 1.41457 1.60897 18.133
501 1 -1.1104 15.9994 4.45743 1.78288 18.1293
502 1 -1.1104 15.9994 1.42022 1.60289 20.8918
503 1 -1.1104 15.9994 4.21029 1.68958 20.7984
504 1 -1.1104 15.9994 6.96823 -0.958731 17.9388
505 1 -1.1104 15.9994 9.80505 -1.08919 18.0885
506 1 -1.1104 15.9994 6.93086 -1.10313 20.9341
507 1 -1.1104 15.9994 9.87737 -1.34859 20.8909
508 1 -1.1104 15.9994 7.24087 1.90886 18.1174
509 1 -1.1104 15.9994 9.93053 1.69022 18.2227
510 1 -1.1104 15.9994 7.01758 1.71829 21.0879
511 1 -1.1104 15.9994 9.64471 1.24522 20.9879
512 1 -1.1104 15.9994 12.6962 -1.06436 18.0371
513 1 -1.1104 15.9994 12.5272 -1.52709 20.7042
514 1 -1.1104 15.9994 12.688 1.51567 18.2604
515 1 -1.1104 15.9994 12.6755 1.3994 21.1285
516 1 -1.1104 15.9994 1.38088 4.35643 17.9755
517 1 -1.1104 15.9994 4.36763 4.40037 18.0575
518 1 -1.1104 15.9994 1.16839 4.3643 20.9341
519 1 -1.1104 15.9994 4.03533 4.39657 20.7301
520 1 -1.1104 15.9994 1.30574 6.93684 18.3028
521 1 -1.1104 15.9994 4.04122 7.3661 18.3144
522 1 -1.1104 15.9994 1.3007 7.43495 21.0318
523 1 -1.1104 15.9994 4.10495 7.04932 21.2859
524 1 -1.1104 15.9994 7.40985 4.53484 17.9868
525 1 -1.1104 15.9994 10.1573 4.37069 18.1202
526 1 -1.1104 15.9994 7.08695 4.46839 21.0526
527 1 -1.1104 15.9994 9.76671 4.25238 20.9991
528 1 -1.1104 15.9994 6.94285 7.14271 18.4297
529 1 -1.1104 15.9994 9.83672 7.26237 18.3656
530 1 -1.1104 15.9994 7.18993 7.22405 20.9925
531 1 -1.1104 15.9994 10.3896 6.96075 21.1443
532 1 -1.1104 15.9994 12.7979 4.01164 18.0613
533 1 -1.1104 15.9994 12.5556 4.28256 20.9085
534 1 -1.1104 15.9994 13.0145 7.31 18.4251
535 1 -1.1104 15.9994 13.1774 7.55266 21.4341
536 1 -1.1104 15.9994 1.42098 9.79462 18.5119
537 1 -1.1104 15.9994 4.27435 10.0211 18.3997
538 1 -1.1104 15.9994 1.18508 10.1481 21.173
539 1 -1.1104 15.9994 3.90465 9.87281 21.2764
540 1 -1.1104 15.9994 1.186 12.4517 18.2597
541 1 -1.1104 15.9994 4.21901 12.63 18.3383
542 1 -1.1104 15.9994 1.35492 12.9923 21.1736
543 1 -1.1104 15.9994 4.14517 13.0151 20.9531
544 1 -1.1104 15.9994 7.22603 10.1426 18.4828
545 1 -1.1104 15.9994 9.87419 9.93601 18.4221
546 1 -1.1104 15.9994 6.87619 10.2187 21.2131
547 1 -1.1104 15.9994 9.66828 10.0286 21.3284
548 1 -1.1104 15.9994 6.77729 12.9481 17.9526
549 1 -1.1104 15.9994 9.4988 13.1149 18.1847
550 1 -1.1104 15.9994 6.99054 12.9369 21.0871
551 1 -1.1104 15.9994 9.7075 13.039 20.9172
552 1 -1.1104 15.9994 12.5482 9.92394 18.1987
553 1 -1.1104 15.9994 12.4321 10.1785 21.2154
554 1 -1.1104 15.9994 12.5363 12.5976 18.5049
555 1 -1.1104 15.9994 12.5314 13.0302 21.1651
556 1 -1.1104 15.9994 1.45725 15.8713 18.4485
557 1 -1.1104 15.9994 3.98592 15.6289 18.0623
558 1 -1.1104 15.9994 1.20357 15.8 21.2255
559 1 -1.1104 15.9994 3.86224 15.6516 21.2317
560 1 -1.1104 15.9994 1.52487 18.7066 18.3632
561 1 -1.1104 15.9994 4.45947 18.5943 18.2871
562 1 -1.1104 15.9994 1.18856 19.0061 21.0988
563 1 -1.1104 15.9994 4.0478 18.4084 20.9496
564 1 -1.1104 15.9994 6.77074 15.8362 18.3895
565 1 -1.1104 15.9994 9.73315 16.028 18.191
566 1 -1.1104 15.9994 6.95699 15.6075 21.2208
567 1 -1.1104 15.9994 9.8605 15.8273 20.9694
568 1 -1.1104 15.9994 7.20814 18.7627 18.305
569 1 -1.1104 15.9994 10.1349 18.8545 18.4161
570 1 -1.1104 15.9994 6.6832 18.4404 21.1104
571 1 -1.1104 15.9994 9.40306 19.0362 21.4201
572 1 -1.1104 15.9994 12.5452 15.4736 18.3588
573 1 -1.1104 15.9994 12.7775 15.7562 21.1112
574 1 -1.1104 15.9994 12.8883 18.4228 18.3955
575 1 -1.1104 15.9994 12.2653 18.9448 21.0134
576 1 -1.1104 15.9994 1.67783 21.9474 19.4032
577 1 -1.1104 15.9994 4.00096 21.3082 18.2001
644 1 -1.1104 15.9994 12.5903 13.0914 24.1164
579 1 -1.1104 15.9994 4.17624 21.2197 21.1389
580 1 -1.1104 15.9994 7.05791 21.5082 18.3409
581 1 -1.1104 15.9994 9.90122 21.8803 18.1333
582 1 -1.1104 15.9994 6.85451 21.397 21.1214
583 1 -1.1104 15.9994 9.84727 21.7005 21.1983
584 1 -1.1104 15.9994 12.4501 21.452 18.2864
585 1 -1.1104 15.9994 12.5995 21.7298 21.074
586 1 -1.1104 15.9994 1.3519 -1.10328 23.9213
587 1 -1.1104 15.9994 4.18412 -1.01109 23.9273
588 1 -1.1104 15.9994 1.50974 -1.21376 26.6667
589 1 -1.1104 15.9994 4.19152 -1.29583 26.938
590 1 -1.1104 15.9994 1.23109 1.54651 23.9236
591 1 -1.1104 15.9994 4.08733 1.7107 23.7404
592 1 -1.1104 15.9994 1.54286 1.56465 26.7441
593 1 -1.1104 15.9994 4.02235 1.55405 26.8443
594 1 -1.1104 15.9994 7.31089 -1.03429 23.9909
595 1 -1.1104 15.9994 10.0354 -1.13215 23.9659
596 1 -1.1104 15.9994 6.91986 -1.30302 26.6877
597 1 -1.1104 15.9994 9.67494 -1.12275 26.8197
598 1 -1.1104 15.9994 7.15102 1.52525 23.8667
599 1 -1.1104 15.9994 10.0293 1.93807 24.0398
600 1 -1.1104 15.9994 6.86062 1.74863 26.6201
601 1 -1.1104 15.9994 9.70028 1.7568 26.7228
602 1 -1.1104 15.9994 12.4846 -1.09569 23.3874
603 1 -1.1104 15.9994 12.7595 -1.22236 26.5709
604 1 -1.1104 15.9994 12.977 1.66063 23.9169
605 1 -1.1104 15.9994 12.8259 1.33303 26.7953
606 1 -1.1104 15.9994 1.31106 4.4709 23.9182
607 1 -1.1104 15.9994 3.97319 4.47091 23.7693
608 1 -1.1104 15.9994 1.2236 4.56395 26.7394
609 1 -1.1104 15.9994 4.27522 4.60693 26.5558
610 1 -1.1104 15.9994 1.27115 7.31992 23.9925
611 1 -1.1104 15.9994 3.92435 7.20131 24.0607
612 1 -1.1104 15.9994 1.19332 7.31804 26.8229
613 1 -1.1104 15.9994 4.25308 7.37317 26.6774
614 1 -1.1104 15.9994 7.10859 4.65037 23.7823
615 1 -1.1104 15.9994 10.0041 4.72836 23.9902
616 1 -1.1104 15.9994 7.19802 4.82892 26.6808
617 1 -1.1104 15.9994 10.1094 4.82796 26.9089
618 1 -1.1104 15.9994 6.97217 7.38726 23.8853
619 1 -1.1104 15.9994 9.88021 7.47119 23.9566
620 1 -1.1104 15.9994 7.02244 7.36244 26.6489
621 1 -1.1104 15.9994 9.75408 7.42901 26.6169
622 1 -1.1104 15.9994 12.9181 4.74384 23.8805
623 1 -1.1104 15.9994 12.8786 4.38398 26.6425
624 1 -1.1104 15.9994 12.6615 7.64202 24.2707
625 1 -1.1104 15.9994 12.562 7.21563 27.0121
626 1 -1.1104 15.9994 1.34217 10.0392 23.9773
627 1 -1.1104 15.9994 4.2072 10.0239 23.9425
628 1 -1.1104 15.9994 1.3008 9.94589 26.8704
629 1 -1.1104 15.9994 4.0032 10.2189 26.6378
630 1 -1.1104 15.9994 1.30461 12.7615 24.1113
631 1 -1.1104 15.9994 3.97396 12.7496 23.9477
632 1 -1.1104 15.9994 1.23584 13.1009 26.8869
633 1 -1.1104 15.9994 4.15321 13.0474 26.7493
634 1 -1.1104 15.9994 6.90046 10.1196 23.9205
635 1 -1.1104 15.9994 9.76008 10.1222 23.9251
636 1 -1.1104 15.9994 6.94426 10.3879 26.7778
637 1 -1.1104 15.9994 9.46378 21.7929 26.7125
638 1 -1.1104 15.9994 6.868 13.0146 23.9732