ITEM: TIMESTEP
140000
ITEM: NUMBER OF ATOMS
18000
ITEM: BOX BOUNDS xy xz yz pp pp pp
-2.3476505391165609e-01 2.8128765053911277e+01 0.0000000000000000e+00
-2.3878377537376281e+00 3.3711583775372185e+02 0.0000000000000000e+00
-2.4541245429191402e-01 2.8139412454291936e+01 0.0000000000000000e+00
ITEM: ATOMS id type q mass x y z
7 2 2.2208 232.038 8.23757 -2.33821 2.53323
324 1 -1.1104 15.9994 12.6031 4.55651 12.3847
9688 2 2.2208 232.038 -0.153279 8.80977 -0.073675
4 1 -1.1104 15.9994 12.3676 21.7278 12.6024
323 1 -1.1104 15.9994 9.62513 7.42161 12.1406
322 1 -1.1104 15.9994 6.66637 7.53903 12.271
55 2 2.2208 232.038 5.47358 -2.30658 5.38334
8 2 2.2208 232.038 5.61235 0.4122 2.34676
9 1 -1.1104 15.9994 12.3875 7.31019 12.1038
10 2 2.2208 232.038 11.0441 0.551146 2.24452
11 1 -1.1104 15.9994 9.58443 21.5151 12.2565
321 1 -1.1104 15.9994 9.88649 4.35356 12.4983
13 2 2.2208 232.038 2.67951 3.11535 2.42544
14 1 -1.1104 15.9994 6.83547 21.6799 12.492
81 2 2.2208 232.038 -0.0937933 14.4665 5.34681
8981 2 2.2208 232.038 1.51807e-05 14.6753 11.1326
17 2 2.2208 232.038 8.23818 3.2545 2.69704
18 2 2.2208 232.038 5.51807 6.19558 2.40975
331 2 2.2208 232.038 2.67508 3.09629 13.717
20 2 2.2208 232.038 11.1446 6.11486 2.76411
21 1 -1.1104 15.9994 3.85748 21.7221 12.2358
22 1 -1.1104 15.9994 1.46255 15.9654 12.4228
23 2 2.2208 232.038 2.54617 8.95157 2.76361
320 1 -1.1104 15.9994 7.05366 4.83027 12.4009
105 2 2.2208 232.038 11.2377 -2.34256 11.1229
9032 2 2.2208 232.038 13.9023 -2.3189 8.33493
27 2 2.2208 232.038 8.17058 8.91055 2.52479
28 2 2.2208 232.038 5.62359 11.5855 2.42694
669 2 2.2208 232.038 2.53409 17.3556 -0.256648
30 2 2.2208 232.038 10.9674 11.9259 2.51858
31 1 -1.1104 15.9994 12.5733 13.2897 12.1361
32 1 -1.1104 15.9994 12.3263 10.5274 12.4083
33 2 2.2208 232.038 2.53263 14.7178 2.66635
346 2 2.2208 232.038 2.36651 20.3641 13.7778
35 1 -1.1104 15.9994 10.0295 13.2915 12.6162
36 1 -1.1104 15.9994 7.18499 13.1191 12.3574
37 2 2.2208 232.038 8.11966 14.5581 2.67704
38 2 2.2208 232.038 5.46369 17.4014 2.49779
39 1 -1.1104 15.9994 9.73571 10.1986 12.5549
40 2 2.2208 232.038 11.1829 17.5136 2.40701
41 1 -1.1104 15.9994 6.78656 10.3823 12.1797
42 1 -1.1104 15.9994 3.92263 13.0563 12.5657
43 2 2.2208 232.038 2.70115 20.1789 2.36351
319 1 -1.1104 15.9994 3.62403 7.45214 12.4175
45 1 -1.1104 15.9994 1.24956 13.3446 12.5772
46 1 -1.1104 15.9994 3.87538 10.2425 12.2148
47 2 2.2208 232.038 8.26002 20.3715 2.44347
48 2 2.2208 232.038 5.40651 23.1541 2.57156
49 1 -1.1104 15.9994 1.00281 10.5122 12.4074
50 2 2.2208 232.038 10.8303 23.0295 2.73732
51 1 -1.1104 15.9994 1.28995 21.7123 12.2012
52 2 2.2208 232.038 2.75942 0.560918 5.32832
8994 2 2.2208 232.038 -0.178806 6.04084 8.10892
54 1 -1.1104 15.9994 12.4758 18.8902 12.8485
334 2 2.2208 232.038 5.35493 6.04587 13.7623
56 2 2.2208 232.038 8.27512 0.360164 5.50009
8982 2 2.2208 232.038 13.9232 -2.24357 2.38943
58 2 2.2208 232.038 5.53809 0.434646 8.39613
9663 2 2.2208 232.038 -0.117431 11.5945 13.8431
60 2 2.2208 232.038 11.1125 0.520314 8.1774
61 1 -1.1104 15.9994 12.3062 16.179 12.5203
62 2 2.2208 232.038 2.79813 6.14173 5.02801
63 2 2.2208 232.038 2.75385 3.16578 8.28319
64 1 -1.1104 15.9994 9.5523 18.7623 12.5714
65 2 2.2208 232.038 5.44656 3.19013 5.46964
66 2 2.2208 232.038 8.13568 6.15634 5.3649
67 2 2.2208 232.038 8.2673 3.3938 8.00907
68 2 2.2208 232.038 5.50661 6.15126 8.08439
69 2 2.2208 232.038 11.1945 3.36846 5.37832
70 2 2.2208 232.038 11.2782 5.88402 8.39075
71 1 -1.1104 15.9994 6.88418 18.7696 12.4658
72 2 2.2208 232.038 2.60634 11.7461 5.15896
73 2 2.2208 232.038 2.63437 8.79315 8.21197
74 1 -1.1104 15.9994 9.70432 16.0889 12.3334
75 2 2.2208 232.038 5.42523 8.95214 5.31311
76 2 2.2208 232.038 8.25178 11.7618 5.3182
77 2 2.2208 232.038 8.3378 8.95173 8.08132
78 2 2.2208 232.038 5.31718 11.6936 8.32116
79 2 2.2208 232.038 11.2214 8.78766 5.31856
80 2 2.2208 232.038 11.1005 11.7721 8.39406
318 1 -1.1104 15.9994 0.874419 7.57194 12.5738
82 2 2.2208 232.038 2.62191 17.4999 5.41461
83 2 2.2208 232.038 2.64952 14.6162 8.18406
663 2 2.2208 232.038 2.50271 6.14931 -0.214427
85 2 2.2208 232.038 5.46041 14.7384 5.67396
86 2 2.2208 232.038 8.32976 17.3317 5.3588
87 2 2.2208 232.038 8.25713 14.5684 8.30113
88 2 2.2208 232.038 5.54838 17.6315 8.18706
89 2 2.2208 232.038 11.135 14.6965 5.3997
90 2 2.2208 232.038 11.2944 17.4926 8.34846
9091 2 2.2208 232.038 13.9112 11.8772 11.0074
92 2 2.2208 232.038 2.52769 23.065 5.27534
93 2 2.2208 232.038 2.57884 20.1718 8.16309
336 2 2.2208 232.038 2.4101 8.79759 13.8106
95 2 2.2208 232.038 5.53192 20.2913 5.18967
96 2 2.2208 232.038 8.20957 23.0324 5.34584
97 2 2.2208 232.038 8.21034 20.3604 8.18732
98 2 2.2208 232.038 5.33316 23.064 8.09343
99 2 2.2208 232.038 11.1589 20.1087 5.14374
100 2 2.2208 232.038 11.0047 22.7444 8.17097
101 1 -1.1104 15.9994 7.05108 16.2862 12.4913
102 2 2.2208 232.038 2.53721 0.220162 11.2582
24 2 2.2208 232.038 -0.193213 11.8482 2.38244
104 2 2.2208 232.038 8.3559 0.622655 11.0262
9161 1 -1.1104 15.9994 1.23679 10.204 4.07977
106 1 -1.1104 15.9994 4.31746 18.441 12.3968
107 2 2.2208 232.038 2.4805 6.1883 10.9506
108 2 2.2208 232.038 5.36892 3.39116 11.1915
109 2 2.2208 232.038 8.0608 6.06458 10.8302
110 2 2.2208 232.038 11.1128 3.12597 11.0882
111 1 -1.1104 15.9994 1.34624 18.7171 12.3182
112 2 2.2208 232.038 2.4142 11.7602 11.0438
113 2 2.2208 232.038 5.44895 8.90926 10.9942
114 2 2.2208 232.038 8.29361 11.6644 10.997
115 2 2.2208 232.038 11.2349 8.8104 10.8962
116 1 -1.1104 15.9994 4.18587 15.6709 12.6171
117 2 2.2208 232.038 3.03133 17.2956 11.0762
118 2 2.2208 232.038 5.49856 14.5566 11.1229
119 2 2.2208 232.038 8.21576 17.5087 11.01
120 2 2.2208 232.038 11.0555 14.6401 11.0443
9101 2 2.2208 232.038 13.7796 23.0056 11.215
122 2 2.2208 232.038 2.71245 23.2066 11.069
123 2 2.2208 232.038 5.53461 20.264 11.0805
124 2 2.2208 232.038 8.15137 22.9786 11.2316
125 2 2.2208 232.038 11.0539 20.1944 11.0957
126 1 -1.1104 15.9994 1.33686 -0.886468 1.4054
127 1 -1.1104 15.9994 4.02862 -1.20746 1.41725
128 1 -1.1104 15.9994 1.15708 -1.14105 4.02198
129 1 -1.1104 15.9994 3.8999 -1.13961 4.10403
130 1 -1.1104 15.9994 1.47711 1.7778 1.05945
131 1 -1.1104 15.9994 4.12249 1.72173 1.21351
132 1 -1.1104 15.9994 1.17803 1.74994 4.01521
133 1 -1.1104 15.9994 4.18564 1.71951 4.05858
134 1 -1.1104 15.9994 6.74149 -1.10467 0.989766
135 1 -1.1104 15.9994 9.4851 -0.922748 1.13486
136 1 -1.1104 15.9994 6.83659 -0.795542 3.88975
137 1 -1.1104 15.9994 9.38409 -1.00487 4.01107
138 1 -1.1104 15.9994 6.9743 1.80867 1.03527
139 1 -1.1104 15.9994 9.79115 1.99791 0.963656
140 1 -1.1104 15.9994 6.84879 1.95176 3.98868
141 1 -1.1104 15.9994 9.74832 2.00761 3.72464
142 1 -1.1104 15.9994 12.4264 -0.954399 0.980647
143 1 -1.1104 15.9994 12.2168 -1.02156 3.87798
144 1 -1.1104 15.9994 12.9286 1.71267 1.4048
145 1 -1.1104 15.9994 12.6015 1.93525 3.88426
146 1 -1.1104 15.9994 1.39848 4.63858 1.23471
147 1 -1.1104 15.9994 4.11291 4.62527 1.17378
148 1 -1.1104 15.9994 1.03709 4.67156 4.21414
149 1 -1.1104 15.9994 4.08057 4.57706 3.93274
150 1 -1.1104 15.9994 1.28649 7.44856 1.16257
151 1 -1.1104 15.9994 4.00233 7.30642 1.21934
152 1 -1.1104 15.9994 1.22297 7.57862 6.70713
153 1 -1.1104 15.9994 4.18451 7.71092 3.66365
154 1 -1.1104 15.9994 7.06645 4.70137 1.22067
155 1 -1.1104 15.9994 9.90309 4.59932 1.19758
156 1 -1.1104 15.9994 6.95188 4.90161 4.05942
157 1 -1.1104 15.9994 9.76579 4.85773 4.10906
158 1 -1.1104 15.9994 6.77231 7.48464 0.982259
159 1 -1.1104 15.9994 9.5711 7.32541 1.31104
160 1 -1.1104 15.9994 6.79346 7.68342 4.06367
161 1 -1.1104 15.9994 9.65193 7.66731 3.68727
162 1 -1.1104 15.9994 12.6929 4.63396 1.11362
163 1 -1.1104 15.9994 12.7437 4.52651 4.06217
164 1 -1.1104 15.9994 12.5217 7.69115 1.25296
165 1 -1.1104 15.9994 12.4572 7.54839 4.08668
166 1 -1.1104 15.9994 1.22521 10.2753 1.40111
167 1 -1.1104 15.9994 4.04068 10.1776 1.1148
168 1 -1.1104 15.9994 1.119 7.42463 4.05697
169 1 -1.1104 15.9994 4.03144 10.3315 3.89495
170 1 -1.1104 15.9994 1.37392 13.1673 1.32883
171 1 -1.1104 15.9994 4.29856 13.033 1.64381
172 1 -1.1104 15.9994 1.09943 13.04 3.79692
173 1 -1.1104 15.9994 3.82269 13.3133 4.24725
174 1 -1.1104 15.9994 6.90626 10.1116 0.989376
175 1 -1.1104 15.9994 9.75019 10.3613 1.18913
176 1 -1.1104 15.9994 6.93542 10.3049 3.89912
177 1 -1.1104 15.9994 9.63822 10.6988 4.03382
178 1 -1.1104 15.9994 6.81822 13.0646 1.26213
179 1 -1.1104 15.9994 9.47154 13.1675 0.986214
180 1 -1.1104 15.9994 7.16444 12.9764 3.9169
181 1 -1.1104 15.9994 9.78749 13.4048 3.94516
182 1 -1.1104 15.9994 12.5617 10.3814 1.09647
183 1 -1.1104 15.9994 12.3491 10.3138 3.84073
184 1 -1.1104 15.9994 12.4819 13.2165 1.07207
185 1 -1.1104 15.9994 12.6657 12.8795 3.90572
186 1 -1.1104 15.9994 1.24596 15.9762 1.30269
187 1 -1.1104 15.9994 3.87808 15.8752 1.12794
188 1 -1.1104 15.9994 1.05995 15.8463 4.16251
189 1 -1.1104 15.9994 3.96456 15.9266 4.10772
190 1 -1.1104 15.9994 1.29641 18.6674 1.24408
191 1 -1.1104 15.9994 3.94305 19.0028 0.996453
192 1 -1.1104 15.9994 1.2044 18.859 3.9232
193 1 -1.1104 15.9994 3.82352 19.0495 4.02478
194 1 -1.1104 15.9994 6.73821 15.9669 1.29726
195 1 -1.1104 15.9994 9.75701 16.2032 1.01631
196 1 -1.1104 15.9994 7.10554 15.66 4.10402
197 1 -1.1104 15.9994 9.53353 16.0883 3.9278
198 1 -1.1104 15.9994 6.76683 18.9474 1.24226
199 1 -1.1104 15.9994 9.5749 19.0003 1.03289
200 1 -1.1104 15.9994 6.79024 18.6724 3.82283
201 1 -1.1104 15.9994 9.81989 18.6821 3.80898
202 1 -1.1104 15.9994 12.4811 15.6816 1.32414
203 1 -1.1104 15.9994 12.5703 15.8097 4.00697
204 1 -1.1104 15.9994 12.3994 18.8962 0.660869
205 1 -1.1104 15.9994 12.726 18.9172 3.75655
206 1 -1.1104 15.9994 0.951755 21.4923 1.24513
207 1 -1.1104 15.9994 4.14342 21.7221 1.24174
208 1 -1.1104 15.9994 1.16772 21.77 4.19424
209 1 -1.1104 15.9994 4.04225 21.7404 4.00319
210 1 -1.1104 15.9994 6.78953 21.8334 1.33852
211 1 -1.1104 15.9994 9.56033 21.708 1.25648
212 1 -1.1104 15.9994 6.91233 21.8119 4.0416
213 1 -1.1104 15.9994 9.69696 21.6255 4.20095
214 1 -1.1104 15.9994 12.4498 21.8449 1.27354
215 1 -1.1104 15.9994 12.3807 21.6953 4.06103
216 1 -1.1104 15.9994 1.28538 -0.768219 7.16319
217 1 -1.1104 15.9994 4.10869 -0.924494 6.73128
218 1 -1.1104 15.9994 1.05434 -0.709994 12.6361
219 1 -1.1104 15.9994 3.97954 -1.04399 9.72498
220 1 -1.1104 15.9994 1.07164 1.96004 6.75297
221 1 -1.1104 15.9994 4.1531 1.83405 6.70026
222 1 -1.1104 15.9994 1.31899 -1.35272 9.78283
223 1 -1.1104 15.9994 4.02596 1.84518 9.72328
224 1 -1.1104 15.9994 6.85228 -0.929341 6.79667
225 1 -1.1104 15.9994 9.8677 -1.03691 6.53153
226 1 -1.1104 15.9994 7.17957 -0.832795 9.78388
227 1 -1.1104 15.9994 10.0456 -1.02899 9.46336
228 1 -1.1104 15.9994 6.83181 1.5542 7.056
229 1 -1.1104 15.9994 9.50084 1.83192 6.7396
230 1 -1.1104 15.9994 6.62306 1.86948 10.1662
231 1 -1.1104 15.9994 9.53597 1.80633 9.42222
232 1 -1.1104 15.9994 12.633 -1.14886 6.7066
233 1 -1.1104 15.9994 12.6001 -0.820992 9.48517
234 1 -1.1104 15.9994 12.3817 1.78246 6.77575
235 1 -1.1104 15.9994 12.4268 1.64523 9.59746
236 1 -1.1104 15.9994 1.05912 4.75767 9.58136
237 1 -1.1104 15.9994 4.43292 4.4257 7.03925
238 1 -1.1104 15.9994 1.32797 1.60116 9.70237
239 1 -1.1104 15.9994 3.99114 4.6349 9.64593
240 1 -1.1104 15.9994 1.53324 4.52787 6.95677
241 1 -1.1104 15.9994 4.24882 7.35367 6.36929
242 1 -1.1104 15.9994 1.12591 7.4841 9.55581
243 1 -1.1104 15.9994 4.07826 7.37439 9.61984
244 1 -1.1104 15.9994 6.83676 4.66287 6.61566
245 1 -1.1104 15.9994 9.89073 4.30734 6.94026
246 1 -1.1104 15.9994 6.87611 4.66571 9.48029
247 1 -1.1104 15.9994 9.49056 4.75864 9.85466
248 1 -1.1104 15.9994 6.94435 7.59983 6.70204
249 1 -1.1104 15.9994 9.71989 7.35543 6.60302
250 1 -1.1104 15.9994 6.88264 7.69486 9.55172
251 1 -1.1104 15.9994 9.89654 7.70711 9.53777
252 1 -1.1104 15.9994 12.4034 4.57093 7.0771
253 1 -1.1104 15.9994 12.527 4.44785 9.75513
254 1 -1.1104 15.9994 12.5412 7.198 6.85978
255 1 -1.1104 15.9994 12.7464 7.2954 9.45061
256 1 -1.1104 15.9994 1.21137 10.4693 6.79262
257 1 -1.1104 15.9994 4.18041 10.1729 6.80466
258 1 -1.1104 15.9994 1.44353 10.2146 9.64917
259 1 -1.1104 15.9994 4.16568 10.1119 9.54768
260 1 -1.1104 15.9994 1.46765 12.9126 6.71002
261 1 -1.1104 15.9994 3.91546 13.3218 6.98391
262 1 -1.1104 15.9994 1.40905 12.8897 9.49442
263 1 -1.1104 15.9994 4.33148 12.8746 9.92506
264 1 -1.1104 15.9994 6.96647 10.3483 6.60094
265 1 -1.1104 15.9994 9.50208 10.494 6.91272
266 1 -1.1104 15.9994 6.99525 10.1866 9.52364
267 1 -1.1104 15.9994 9.89979 10.5648 9.83432
268 1 -1.1104 15.9994 6.69493 13.1664 6.80209
269 1 -1.1104 15.9994 9.83622 13.2265 7.05537
270 1 -1.1104 15.9994 7.01111 12.9926 9.6445
271 1 -1.1104 15.9994 9.80173 13.0562 9.97415
272 1 -1.1104 15.9994 12.7174 10.0919 6.79478
273 1 -1.1104 15.9994 12.4955 10.1256 9.42235
274 1 -1.1104 15.9994 12.7756 13.2722 6.67667
275 1 -1.1104 15.9994 12.5118 13.073 9.59205
276 1 -1.1104 15.9994 1.12287 15.9811 6.89474
277 1 -1.1104 15.9994 3.96185 16.1693 6.83622
278 1 -1.1104 15.9994 1.43987 15.7326 9.75667
279 1 -1.1104 15.9994 4.23116 15.9803 9.53633
280 1 -1.1104 15.9994 1.30149 18.9917 6.86295
281 1 -1.1104 15.9994 4.13873 18.9007 6.84993
282 1 -1.1104 15.9994 1.32955 18.665 9.5018
283 1 -1.1104 15.9994 4.05534 18.8242 9.57466
284 1 -1.1104 15.9994 6.98983 15.9541 6.93469
285 1 -1.1104 15.9994 9.89696 16.3324 6.76027
286 1 -1.1104 15.9994 6.82237 16.0328 9.81684
287 1 -1.1104 15.9994 9.85936 16.0581 9.56819
288 1 -1.1104 15.9994 6.89048 18.7177 6.68971
289 1 -1.1104 15.9994 10.0318 18.9489 6.88184
290 1 -1.1104 15.9994 6.81878 19.056 9.65855
291 1 -1.1104 15.9994 9.49752 18.7976 9.63757
292 1 -1.1104 15.9994 12.5275 16.3073 6.64918
293 1 -1.1104 15.9994 12.6236 16.0037 9.80537
294 1 -1.1104 15.9994 12.6297 18.7815 7.11272
295 1 -1.1104 15.9994 12.5824 18.8698 9.96613
296 1 -1.1104 15.9994 1.24496 21.7939 6.89923
297 1 -1.1104 15.9994 3.98205 21.6067 6.55117
298 1 -1.1104 15.9994 1.20946 21.4775 9.49891
299 1 -1.1104 15.9994 3.76349 21.7667 9.52804
300 1 -1.1104 15.9994 7.08423 21.5337 6.61807
301 1 -1.1104 15.9994 9.67816 21.7992 6.72941
302 1 -1.1104 15.9994 6.71829 21.6338 9.46336
303 1 -1.1104 15.9994 9.51943 21.5496 9.56853
304 1 -1.1104 15.9994 12.4615 21.4278 6.89852
305 1 -1.1104 15.9994 12.4365 21.6591 9.89158
9004 2 2.2208 232.038 -0.164231 5.9945 2.66879
307 1 -1.1104 15.9994 4.11547 -0.741789 12.5388
308 1 -1.1104 15.9994 1.16752 1.82874 12.3804
309 1 -1.1104 15.9994 4.17187 1.89943 12.5784
310 1 -1.1104 15.9994 6.87334 -1.13544 12.4789
311 1 -1.1104 15.9994 9.88934 -0.937835 12.5291
312 1 -1.1104 15.9994 6.93546 1.67704 12.9224
313 1 -1.1104 15.9994 9.64735 1.80764 12.3719
314 1 -1.1104 15.9994 12.4876 -0.921603 12.4287
315 1 -1.1104 15.9994 12.4886 1.91486 12.4057
316 1 -1.1104 15.9994 1.06685 4.71943 12.6938
317 1 -1.1104 15.9994 3.76521 4.65844 12.4143
103 2 2.2208 232.038 5.3979 -2.25843 11.0783
350 2 2.2208 232.038 10.9993 23.0363 13.8643
338 2 2.2208 232.038 8.11924 8.85165 13.5652
343 2 2.2208 232.038 8.34973 14.5908 13.8366
15 2 2.2208 232.038 13.7547 14.3676 2.5701
84 2 2.2208 232.038 -0.0786113 17.3732 8.32041
666 2 2.2208 232.038 2.68116 11.644 -0.0817818
121 2 2.2208 232.038 0.00867585 20.1299 11.1168
335 2 2.2208 232.038 11.0798 5.85972 13.7505
9031 2 2.2208 232.038 13.9315 0.29114 5.39083
5 2 2.2208 232.038 13.859 14.7181 8.42047
667 2 2.2208 232.038 13.8716 17.3245 -0.200396
12 2 2.2208 232.038 13.9247 20.3749 2.44584
341 2 2.2208 232.038 2.59082 14.6079 13.9137
9319 2 2.2208 232.038 13.8525 3.33701 13.6632
8988 2 2.2208 232.038 -0.0615441 11.7695 8.24243
9081 2 2.2208 232.038 13.857 0.661082 11.1532
91 2 2.2208 232.038 -0.106486 20.2854 5.44129
9007 2 2.2208 232.038 -0.10203 0.500786 2.62293
8998 2 2.2208 232.038 -0.178361 0.558188 8.41693
374 2 2.2208 232.038 11.0155 20.4225 -0.0986787
328 2 2.2208 232.038 8.35231 -2.21791 13.8345
29 2 2.2208 232.038 10.9426 8.84116 0.158606
16 2 2.2208 232.038 8.25421 6.19692 -0.171653
330 2 2.2208 232.038 11.1112 0.552639 13.7673
670 2 2.2208 232.038 5.48672 14.524 -0.128636
1 2 2.2208 232.038 13.8541 22.9405 5.47084
9096 2 2.2208 232.038 13.8328 17.3943 11.2062
8983 2 2.2208 232.038 -0.136658 8.85938 10.892
349 2 2.2208 232.038 5.37703 23.0415 13.8834
9324 2 2.2208 232.038 13.8395 8.82083 13.9246
340 2 2.2208 232.038 11.0188 11.6153 13.8103
668 2 2.2208 232.038 -0.0737774 14.6591 -0.163303
19 2 2.2208 232.038 11.2777 3.32095 -0.116147
9334 2 2.2208 232.038 13.9427 20.1813 13.9195
403 2 2.2208 232.038 2.63803 -2.34268 25.3642
327 1 -1.1104 15.9994 6.56109 21.7365 26.7919
329 2 2.2208 232.038 5.4072 0.43471 13.95
665 2 2.2208 232.038 13.7714 23.1843 27.9959
344 2 2.2208 232.038 5.58124 17.5054 13.9509
9692 2 2.2208 232.038 -0.183998 -2.31986 28.0655
332 1 -1.1104 15.9994 9.74617 21.7121 24.2177
325 2 2.2208 232.038 5.55016 3.38074 28.1493
9669 2 2.2208 232.038 -0.214507 8.85991 16.606
677 1 -1.1104 15.9994 9.56347 13.2172 26.4905
9667 2 2.2208 232.038 -0.152026 3.01007 16.9491
337 1 -1.1104 15.9994 6.76775 21.6294 24.1357
9419 2 2.2208 232.038 13.7418 17.4762 22.2334
326 2 2.2208 232.038 2.50043 -2.29005 13.9139
657 2 2.2208 232.038 13.7411 23.3614 22.3578
675 2 2.2208 232.038 5.35177 20.248 27.944
342 1 -1.1104 15.9994 3.88031 21.5636 26.6031
355 2 2.2208 232.038 5.57215 -2.34671 16.7815
9379 2 2.2208 232.038 13.7468 23.0117 16.628
25 2 2.2208 232.038 5.39031 8.62018 28.1137
676 2 2.2208 232.038 8.04483 23.247 27.8703
333 2 2.2208 232.038 8.47712 3.08597 14.0353
658 2 2.2208 232.038 13.8449 20.1642 25.2884
9676 2 2.2208 232.038 -0.175373 11.7679 24.9675
345 2 2.2208 232.038 10.9903 17.3821 13.9332
351 1 -1.1104 15.9994 1.0631 21.8594 26.6884
352 2 2.2208 232.038 2.40655 0.170298 16.928
661 2 2.2208 232.038 8.3114 0.323528 27.864
354 1 -1.1104 15.9994 3.96528 21.6655 23.8916
9700 2 2.2208 232.038 -0.0916291 11.7315 19.4171
356 2 2.2208 232.038 8.3749 0.383598 16.8195
652 1 -1.1104 15.9994 0.868576 18.9249 26.8092
358 2 2.2208 232.038 5.38298 0.537724 19.4578
674 2 2.2208 232.038 2.65531 23.1451 28.0062
360 2 2.2208 232.038 11.0923 0.463367 19.4713
361 1 -1.1104 15.9994 0.812095 21.3424 24.0894
362 2 2.2208 232.038 2.49964 5.88066 16.6248
363 2 2.2208 232.038 2.44011 3.26544 19.7736
364 1 -1.1104 15.9994 12.5722 18.8247 26.4241
365 2 2.2208 232.038 5.30747 3.19944 16.629
366 2 2.2208 232.038 8.22177 6.03145 16.5806
367 2 2.2208 232.038 8.31008 3.18973 19.5467
368 2 2.2208 232.038 5.41704 5.84655 19.6056
369 2 2.2208 232.038 11.1572 3.20794 16.7863
370 2 2.2208 232.038 11.0894 6.21869 19.1956
371 1 -1.1104 15.9994 12.4492 18.6849 23.7864
372 2 2.2208 232.038 2.66498 11.4466 16.6231
373 2 2.2208 232.038 2.7649 8.85835 19.5917
9399 2 2.2208 232.038 13.9001 6.13641 22.3712
375 2 2.2208 232.038 5.44829 8.90433 16.6582
376 2 2.2208 232.038 8.34694 11.8992 16.8177
377 2 2.2208 232.038 8.39507 8.91239 19.6312
378 2 2.2208 232.038 5.48277 11.8186 19.7291
379 2 2.2208 232.038 11.0118 9.08014 16.8125
380 2 2.2208 232.038 11.0281 11.9014 19.6373
381 1 -1.1104 15.9994 12.4942 16.0157 26.5115
382 2 2.2208 232.038 2.78964 17.4828 16.5317
383 2 2.2208 232.038 2.79852 14.5576 19.4983
656 1 -1.1104 15.9994 7.09964 15.893 26.9594
385 2 2.2208 232.038 5.36434 14.7102 16.7744
386 2 2.2208 232.038 8.41171 17.1852 16.4781
387 2 2.2208 232.038 8.4624 14.7315 19.2015
388 2 2.2208 232.038 5.47051 17.5093 19.7355
389 2 2.2208 232.038 11.335 14.5898 16.5527
390 2 2.2208 232.038 11.2625 17.5125 19.5144
391 1 -1.1104 15.9994 12.3018 21.8215 26.9078
392 2 2.2208 232.038 2.58943 22.8727 16.5795
393 2 2.2208 232.038 2.68233 20.422 19.5775
672 2 2.2208 232.038 10.9266 14.552 28.0718
395 2 2.2208 232.038 5.48318 20.4724 16.7734
396 2 2.2208 232.038 7.92071 23.0551 16.8906
397 2 2.2208 232.038 8.16432 20.2198 19.616
398 2 2.2208 232.038 5.4473 23.1441 19.6854
399 2 2.2208 232.038 11.1028 20.4566 16.8647
400 2 2.2208 232.038 11.0368 23.1996 19.6207
401 1 -1.1104 15.9994 12.6764 15.8581 23.5495
402 2 2.2208 232.038 2.47771 0.116702 22.5673
655 1 -1.1104 15.9994 9.73103 15.9164 24.0961
404 1 -1.1104 15.9994 9.76618 19.0058 26.7256
9409 2 2.2208 232.038 13.8294 11.836 22.2563
406 2 2.2208 232.038 8.23818 0.495226 22.7479
654 1 -1.1104 15.9994 6.92463 16.1187 23.8943
408 2 2.2208 232.038 5.27457 0.330139 25.5594
9339 2 2.2208 232.038 13.7501 0.264411 16.7322
410 2 2.2208 232.038 11.12 0.553593 25.3525
411 1 -1.1104 15.9994 6.87499 18.981 26.674
412 2 2.2208 232.038 2.63484 6.26473 22.329
413 2 2.2208 232.038 2.56323 3.14652 25.4633
414 1 -1.1104 15.9994 9.7193 19.0473 23.9831
415 2 2.2208 232.038 5.20761 3.21262 22.4843
416 2 2.2208 232.038 8.61106 6.12749 22.2916
417 2 2.2208 232.038 8.2554 3.53643 25.449
418 2 2.2208 232.038 5.43012 5.86608 25.2665
419 2 2.2208 232.038 11.146 3.21625 22.4058
420 2 2.2208 232.038 11.2631 6.33388 25.3549
421 1 -1.1104 15.9994 6.86397 18.8825 23.9875
422 2 2.2208 232.038 2.46521 11.6878 22.2735
423 2 2.2208 232.038 2.80286 8.87213 25.1188
424 1 -1.1104 15.9994 9.72872 16.118 26.7874
425 2 2.2208 232.038 5.58301 8.86761 22.4192
426 2 2.2208 232.038 8.43548 11.7599 22.3641
427 2 2.2208 232.038 8.17582 8.86417 25.1735
428 2 2.2208 232.038 5.52522 11.6209 25.2654
429 2 2.2208 232.038 11.15 8.97984 22.3208
430 2 2.2208 232.038 10.9553 11.7457 25.207
431 2 2.2208 232.038 -0.225724 14.5145 22.0959
432 2 2.2208 232.038 2.52458 17.4255 22.4071
433 2 2.2208 232.038 2.58374 14.6384 25.0502
9668 2 2.2208 232.038 -0.22059 5.9222 19.6611
435 2 2.2208 232.038 5.60913 14.5729 22.3932
436 2 2.2208 232.038 8.33102 17.5425 22.3588
437 2 2.2208 232.038 8.23425 14.6875 25.0556
438 2 2.2208 232.038 5.57069 17.483 25.3068
439 2 2.2208 232.038 11.0416 14.6826 22.3463
440 2 2.2208 232.038 10.9756 17.4278 25.3729
651 1 -1.1104 15.9994 4.15313 18.9944 23.9113
442 1 -1.1104 15.9994 12.4629 21.8113 23.839
443 2 2.2208 232.038 2.50583 20.2779 25.1436
653 1 -1.1104 15.9994 4.05248 18.7119 26.7877
445 2 2.2208 232.038 5.43955 20.4415 22.6079
446 2 2.2208 232.038 8.45866 23.2475 22.4446
447 2 2.2208 232.038 8.1715 20.3702 25.3279
448 2 2.2208 232.038 5.18558 22.9794 25.4736
449 2 2.2208 232.038 11.08 20.4804 22.629
450 2 2.2208 232.038 11.0683 23.2551 25.2998
451 1 -1.1104 15.9994 1.13195 -1.22712 15.3995
452 1 -1.1104 15.9994 4.10046 -1.0428 15.5421
453 1 -1.1104 15.9994 1.07828 1.50866 15.5953
454 1 -1.1104 15.9994 3.86384 1.76602 15.0139
455 1 -1.1104 15.9994 7.24821 -1.11172 15.3712
456 1 -1.1104 15.9994 9.85183 -0.985724 15.2948
457 1 -1.1104 15.9994 6.68475 1.87273 15.4654
458 1 -1.1104 15.9994 9.78461 1.85155 15.5991
459 1 -1.1104 15.9994 12.4307 -1.14622 15.2786
460 1 -1.1104 15.9994 12.2958 1.46706 15.4561
461 1 -1.1104 15.9994 1.29652 4.29992 15.4536
462 1 -1.1104 15.9994 4.01755 4.64027 15.0832
463 1 -1.1104 15.9994 1.07841 7.30779 15.344
464 1 -1.1104 15.9994 3.8271 7.44317 15.1697
465 1 -1.1104 15.9994 6.87427 4.57178 15.1845
466 1 -1.1104 15.9994 9.60827 4.59618 15.2314
467 1 -1.1104 15.9994 6.809 7.28589 15.2469
468 1 -1.1104 15.9994 9.59708 7.32401 15.108
469 1 -1.1104 15.9994 12.2852 4.22601 15.0277
470 1 -1.1104 15.9994 12.5757 7.1674 14.9627
471 1 -1.1104 15.9994 1.22564 10.1163 15.4109
472 1 -1.1104 15.9994 3.81973 10.1964 15.2323
473 1 -1.1104 15.9994 1.23946 12.9975 15.1486
474 1 -1.1104 15.9994 3.94678 13.3586 15.3506
475 1 -1.1104 15.9994 6.63125 10.4819 15.3665
476 1 -1.1104 15.9994 9.48349 10.2862 15.3927
477 1 -1.1104 15.9994 6.47073 13.2141 15.2122
478 1 -1.1104 15.9994 9.58208 13.2967 15.4521
479 1 -1.1104 15.9994 12.1573 10.3447 15.4224
480 1 -1.1104 15.9994 12.3912 12.8304 15.3374
481 1 -1.1104 15.9994 1.38326 16.0941 15.0678
482 1 -1.1104 15.9994 4.29142 16.2357 15.5181
483 1 -1.1104 15.9994 1.15544 18.8821 15.0174
484 1 -1.1104 15.9994 4.11895 18.9792 14.8872
485 1 -1.1104 15.9994 6.88429 15.9065 15.3006
486 1 -1.1104 15.9994 9.71701 15.9316 15.2336
487 1 -1.1104 15.9994 7.10639 18.7342 15.3593
488 1 -1.1104 15.9994 9.70366 18.7383 15.301
489 1 -1.1104 15.9994 12.5612 16.1367 15.0682
490 1 -1.1104 15.9994 12.4005 18.6744 15.6869
491 1 -1.1104 15.9994 1.55316 22.0041 14.9191
492 1 -1.1104 15.9994 4.11273 21.5996 15.1292
493 1 -1.1104 15.9994 6.88557 21.6204 15.3844
494 1 -1.1104 15.9994 9.75106 21.7858 15.1734
495 1 -1.1104 15.9994 12.3221 21.7074 15.2866
496 1 -1.1104 15.9994 0.906557 -1.32169 18.4259
497 1 -1.1104 15.9994 3.75601 -0.979386 18.4796
498 1 -1.1104 15.9994 1.2752 -1.19701 21.2262
499 1 -1.1104 15.9994 3.9668 -1.24336 21.269
500 1 -1.1104 15.9994 1.20483 1.64566 18.2998
501 1 -1.1104 15.9994 4.07583 1.84544 18.206
502 1 -1.1104 15.9994 0.998163 1.85241 21.1319
503 1 -1.1104 15.9994 3.97357 1.76467 20.9624
504 1 -1.1104 15.9994 6.55383 -0.997565 18.2298
505 1 -1.1104 15.9994 9.55199 -0.994561 18.336
506 1 -1.1104 15.9994 6.98323 -0.932738 21.1786
507 1 -1.1104 15.9994 9.67072 -1.23358 21.2265
508 1 -1.1104 15.9994 7.02796 1.95757 18.0323
509 1 -1.1104 15.9994 9.8889 1.83752 18.3061
510 1 -1.1104 15.9994 6.65266 1.83372 20.9034
511 1 -1.1104 15.9994 9.86815 1.73526 21.003
512 1 -1.1104 15.9994 12.5079 -0.974372 18.2667
513 1 -1.1104 15.9994 12.5795 -0.918791 20.874
514 1 -1.1104 15.9994 12.6336 2.04285 18.381
515 1 -1.1104 15.9994 12.6376 2.20985 21.3111
516 1 -1.1104 15.9994 1.0235 4.4164 18.274
517 1 -1.1104 15.9994 3.67216 4.59742 17.9131
518 1 -1.1104 15.9994 1.23229 4.59754 21.0476
519 1 -1.1104 15.9994 4.01852 4.5601 20.8723
520 1 -1.1104 15.9994 1.26502 7.37346 17.8425
521 1 -1.1104 15.9994 4.00403 7.64141 18.3084
522 1 -1.1104 15.9994 1.07277 7.59295 20.9406
523 1 -1.1104 15.9994 4.04136 7.30079 20.9252
524 1 -1.1104 15.9994 6.71349 4.51737 18.0101
525 1 -1.1104 15.9994 9.74432 4.7664 17.897
526 1 -1.1104 15.9994 6.88739 4.56433 20.7215
527 1 -1.1104 15.9994 9.69427 4.59455 20.8386
528 1 -1.1104 15.9994 6.71387 7.17926 18.093
529 1 -1.1104 15.9994 9.63155 7.46511 18.1914
530 1 -1.1104 15.9994 6.89003 7.30971 20.9581
531 1 -1.1104 15.9994 9.87643 7.5692 20.8839
532 1 -1.1104 15.9994 12.6862 4.76404 17.9807
533 1 -1.1104 15.9994 12.4274 4.70609 21.1053
534 1 -1.1104 15.9994 12.5848 7.58664 17.782
535 1 -1.1104 15.9994 12.5577 7.67703 20.6538
536 1 -1.1104 15.9994 1.24102 10.1251 18.1762
537 1 -1.1104 15.9994 4.12066 10.3439 18.0566
538 1 -1.1104 15.9994 1.07325 10.4189 21.2348
539 1 -1.1104 15.9994 3.89904 10.2391 20.9033
540 1 -1.1104 15.9994 1.14 12.7881 17.9159
541 1 -1.1104 15.9994 4.1763 13.0552 18.0837
542 1 -1.1104 15.9994 1.38387 13.1501 20.8358
543 1 -1.1104 15.9994 4.19214 13.0119 21.2994
544 1 -1.1104 15.9994 6.97079 10.4292 18.1575
545 1 -1.1104 15.9994 9.73803 10.382 18.2846
546 1 -1.1104 15.9994 7.01937 10.4263 21.0674
547 1 -1.1104 15.9994 9.83385 10.4966 21.045
548 1 -1.1104 15.9994 6.82589 13.2043 18.057
549 1 -1.1104 15.9994 9.76651 13.1761 18.094
550 1 -1.1104 15.9994 7.01967 12.9827 20.8486
551 1 -1.1104 15.9994 9.80421 13.2697 21.0141
552 1 -1.1104 15.9994 12.5646 10.6103 18.3985
553 1 -1.1104 15.9994 12.4691 10.3989 21.0802
554 1 -1.1104 15.9994 12.6883 13.4562 18.0154
555 1 -1.1104 15.9994 12.5308 13.2512 21.0123
556 1 -1.1104 15.9994 1.8718 15.3976 17.6129
557 1 -1.1104 15.9994 4.2319 15.9557 18.4427
558 1 -1.1104 15.9994 0.911938 15.8158 20.5484
559 1 -1.1104 15.9994 4.03053 16.0471 20.9737
560 1 -1.1104 15.9994 1.42085 18.4297 18.2403
561 1 -1.1104 15.9994 4.39757 19.0935 18.0785
562 1 -1.1104 15.9994 1.12872 18.7784 21.04
563 1 -1.1104 15.9994 4.29329 18.9264 21.0871
564 1 -1.1104 15.9994 6.91336 16.0589 17.9036
565 1 -1.1104 15.9994 9.80084 16.0155 18.0899
566 1 -1.1104 15.9994 6.98238 15.9014 21.0451
567 1 -1.1104 15.9994 9.80091 16.2523 21.1679
568 1 -1.1104 15.9994 7.10856 18.6765 18.2399
569 1 -1.1104 15.9994 9.80178 18.8245 18.208
570 1 -1.1104 15.9994 6.95334 18.8735 21.152
571 1 -1.1104 15.9994 9.52489 19.0582 21.1887
572 1 -1.1104 15.9994 12.5001 16.2769 17.8267
573 1 -1.1104 15.9994 12.5107 15.9835 20.5706
574 1 -1.1104 15.9994 13.0333 18.7037 18.5189
575 1 -1.1104 15.9994 12.4313 19.0785 21.0968
576 1 -1.1104 15.9994 0.99134 21.6463 20.7787
577 1 -1.1104 15.9994 4.1152 21.8773 18.2757
1187 1 -1.1104 15.9994 1.24716 22.1595 18.0019
579 1 -1.1104 15.9994 4.19717 21.8499 20.9805
580 1 -1.1104 15.9994 6.67447 21.608 18.2936
581 1 -1.1104 15.9994 9.77125 21.7467 17.9079
582 1 -1.1104 15.9994 6.87255 21.7401 20.9285
583 1 -1.1104 15.9994 9.76919 22.0132 21.1536
584 1 -1.1104 15.9994 12.5328 21.6431 18.1377
585 1 -1.1104 15.9994 12.3076 21.7542 21.0552
586 1 -1.1104 15.9994 1.18462 -1.10471 24.064
587 1 -1.1104 15.9994 3.9882 -1.17426 24.1064
588 1 -1.1104 15.9994 1.12581 -0.810333 26.6571
589 1 -1.1104 15.9994 4.06515 -1.11476 26.9624
590 1 -1.1104 15.9994 1.534 1.45604 24.0951
591 1 -1.1104 15.9994 4.14403 1.71848 24.2109
592 1 -1.1104 15.9994 1.11018 2.0342 26.7051
593 1 -1.1104 15.9994 3.9023 1.56888 26.7899
594 1 -1.1104 15.9994 6.73019 -1.15651 23.8374
595 1 -1.1104 15.9994 9.70157 -1.16697 23.9002
596 1 -1.1104 15.9994 6.89271 -1.03389 26.4223
597 1 -1.1104 15.9994 9.76371 -1.06341 26.7631
598 1 -1.1104 15.9994 6.88381 1.81597 24.1137
599 1 -1.1104 15.9994 9.80897 1.92558 23.8378
600 1 -1.1104 15.9994 6.71342 2.09012 26.7905
601 1 -1.1104 15.9994 9.59348 1.79049 26.705
602 1 -1.1104 15.9994 12.3858 -1.1763 23.6664
603 1 -1.1104 15.9994 12.5987 -0.932317 26.6368
604 1 -1.1104 15.9994 12.656 1.62504 24.1444
605 1 -1.1104 15.9994 12.1836 1.6233 26.9644
606 1 -1.1104 15.9994 1.06461 4.34517 23.8181
607 1 -1.1104 15.9994 3.85176 4.58501 23.7612
608 1 -1.1104 15.9994 1.25235 4.74043 26.6907
609 1 -1.1104 15.9994 4.29293 4.19369 26.4815
610 1 -1.1104 15.9994 1.54774 7.36618 23.9327
611 1 -1.1104 15.9994 4.26176 7.41167 23.9147
612 1 -1.1104 15.9994 1.33488 7.52037 26.6779
613 1 -1.1104 15.9994 3.9446 7.1799 26.7547
614 1 -1.1104 15.9994 7.0913 4.55694 23.7432
615 1 -1.1104 15.9994 9.87009 4.87219 23.5937
616 1 -1.1104 15.9994 6.8019 4.92193 26.9385
617 1 -1.1104 15.9994 9.93416 4.62329 26.6344
618 1 -1.1104 15.9994 6.90112 7.23755 23.7301
619 1 -1.1104 15.9994 9.86597 7.60356 23.9186
620 1 -1.1104 15.9994 6.82058 7.50151 26.6904
621 1 -1.1104 15.9994 9.61982 7.36218 26.7963
622 1 -1.1104 15.9994 12.7035 4.53997 24.006
623 1 -1.1104 15.9994 12.5757 4.58456 26.7242
624 1 -1.1104 15.9994 12.6531 7.48497 23.6468