ITEM: TIMESTEP
210000
ITEM: NUMBER OF ATOMS
18000
ITEM: BOX BOUNDS xy xz yz pp pp pp
-2.2522598103427940e-01 2.8119225981033381e+01 0.0000000000000000e+00
-2.7490248158313615e+00 3.3747702481580012e+02 0.0000000000000000e+00
-2.0736962331116984e-01 2.8101369623311037e+01 0.0000000000000000e+00
ITEM: ATOMS id type q mass x y z
105 2 2.2208 232.038 10.9913 -2.68024 11.1079
324 1 -1.1104 15.9994 12.4368 4.23672 12.5299
16 2 2.2208 232.038 8.26888 5.48618 -0.17223
4 1 -1.1104 15.9994 12.3231 21.3284 12.667
323 1 -1.1104 15.9994 9.61407 7.12691 12.5616
322 1 -1.1104 15.9994 6.76897 7.18032 12.5306
84 2 2.2208 232.038 -0.0749484 16.9879 8.21445
8 2 2.2208 232.038 5.71413 0.148389 2.55022
9 1 -1.1104 15.9994 12.4029 7.04549 12.672
10 2 2.2208 232.038 11.0949 0.0854142 2.57716
11 1 -1.1104 15.9994 9.60148 21.333 12.6216
321 1 -1.1104 15.9994 9.66974 4.20664 12.7261
13 2 2.2208 232.038 2.59696 3.02688 2.83603
14 1 -1.1104 15.9994 6.70323 21.701 12.4915
9329 2 2.2208 232.038 13.8872 14.2673 13.9662
9042 2 2.2208 232.038 13.8301 2.92305 8.28367
17 2 2.2208 232.038 8.38112 2.94474 2.68144
18 2 2.2208 232.038 5.18442 5.98639 2.6788
9003 2 2.2208 232.038 -0.0782469 -2.72519 5.3427
20 2 2.2208 232.038 11.0653 5.81377 2.6373
21 1 -1.1104 15.9994 3.96027 21.2889 12.4841
22 1 -1.1104 15.9994 1.29237 15.3616 12.4702
23 2 2.2208 232.038 2.59596 8.37479 2.63792
320 1 -1.1104 15.9994 6.84862 4.40732 12.7239
670 2 2.2208 232.038 5.49898 14.3488 -0.132072
34 2 2.2208 232.038 -0.209007 16.7116 2.58338
27 2 2.2208 232.038 8.19681 8.61785 2.71392
28 2 2.2208 232.038 5.34768 11.378 2.95767
666 2 2.2208 232.038 2.61111 11.4568 -0.143606
30 2 2.2208 232.038 11.2218 11.4571 2.23757
31 1 -1.1104 15.9994 12.4582 12.7214 12.3634
32 1 -1.1104 15.9994 12.4254 9.87697 12.3568
33 2 2.2208 232.038 2.5445 14.1629 2.61029
25 2 2.2208 232.038 5.46338 8.5909 -0.121721
35 1 -1.1104 15.9994 9.59735 12.9487 12.5015
36 1 -1.1104 15.9994 6.63106 12.7436 12.3085
37 2 2.2208 232.038 8.38151 14.4004 2.45056
38 2 2.2208 232.038 5.529 17.1586 2.7575
39 1 -1.1104 15.9994 9.47105 9.95234 12.5352
40 2 2.2208 232.038 11.1877 17.2148 2.50081
41 1 -1.1104 15.9994 6.82618 10.1182 12.7701
42 1 -1.1104 15.9994 3.63509 12.8693 12.7279
43 2 2.2208 232.038 2.77706 19.8262 2.56687
319 1 -1.1104 15.9994 3.81781 6.98073 12.6809
45 1 -1.1104 15.9994 1.10864 12.7642 12.5366
46 1 -1.1104 15.9994 4.02845 9.87097 12.4981
47 2 2.2208 232.038 8.20397 19.9998 2.44634
48 2 2.2208 232.038 5.47689 22.7301 2.42721
49 1 -1.1104 15.9994 1.42717 9.62455 12.4364
50 2 2.2208 232.038 11.3031 22.9256 2.63942
51 1 -1.1104 15.9994 1.31841 21.1233 12.6624
52 2 2.2208 232.038 2.94091 0.14295 5.55654
103 2 2.2208 232.038 5.53888 -2.67127 11.2958
54 1 -1.1104 15.9994 12.3352 18.2358 12.382
9031 2 2.2208 232.038 13.7558 0.0253204 5.3975
56 2 2.2208 232.038 8.15725 0.0454317 5.55374
8997 2 2.2208 232.038 -0.0055744 2.83482 5.42092
58 2 2.2208 232.038 5.46371 0.00609133 8.53132
8981 2 2.2208 232.038 0.0477363 14.1353 11.1824
60 2 2.2208 232.038 10.9673 0.180472 8.20721
61 1 -1.1104 15.9994 12.4459 15.6912 12.4452
62 2 2.2208 232.038 2.59965 5.72871 5.67939
63 2 2.2208 232.038 2.63713 2.8643 8.48175
64 1 -1.1104 15.9994 9.57612 18.5832 12.3295
65 2 2.2208 232.038 5.47608 2.85763 5.4501
66 2 2.2208 232.038 8.26269 5.86364 5.54074
67 2 2.2208 232.038 8.10171 2.76816 8.34883
68 2 2.2208 232.038 5.38159 5.75501 8.60249
69 2 2.2208 232.038 11.0582 3.14806 5.71157
70 2 2.2208 232.038 11.215 5.68907 8.47994
71 1 -1.1104 15.9994 6.83318 18.4379 12.4228
72 2 2.2208 232.038 2.62391 11.6013 5.4639
73 2 2.2208 232.038 2.6179 8.72678 8.22306
74 1 -1.1104 15.9994 9.543 15.8218 12.6329
75 2 2.2208 232.038 5.60508 8.52118 5.68725
76 2 2.2208 232.038 8.37489 11.5151 5.33514
77 2 2.2208 232.038 8.30098 8.52404 8.44371
78 2 2.2208 232.038 5.3436 11.502 8.47209
79 2 2.2208 232.038 11.1659 8.65172 5.39372
80 2 2.2208 232.038 11.0294 11.4534 8.21015
318 1 -1.1104 15.9994 1.03108 7.16291 12.688
82 2 2.2208 232.038 2.54809 16.9922 5.58832
83 2 2.2208 232.038 2.5889 14.1235 8.42963
81 2 2.2208 232.038 -0.153298 14.1492 5.32438
85 2 2.2208 232.038 5.63972 14.3844 5.29563
86 2 2.2208 232.038 8.28825 17.1609 5.40475
87 2 2.2208 232.038 8.24557 14.1065 8.15208
88 2 2.2208 232.038 5.71105 17.0741 8.07732
89 2 2.2208 232.038 11.2356 14.3585 5.31023
90 2 2.2208 232.038 10.9248 17.0259 8.19776
669 2 2.2208 232.038 2.53015 17.0809 -0.16115
92 2 2.2208 232.038 2.62538 22.7127 5.30994
93 2 2.2208 232.038 2.591 20.164 8.26734
44 2 2.2208 232.038 -0.148712 22.5389 2.61002
95 2 2.2208 232.038 5.35085 20.1348 5.449
96 2 2.2208 232.038 8.30778 22.9138 5.27341
97 2 2.2208 232.038 8.3355 20.1757 8.13687
98 2 2.2208 232.038 5.47244 22.7903 8.37893
99 2 2.2208 232.038 11.1892 19.8914 5.24441
100 2 2.2208 232.038 11.4993 22.5886 8.19817
101 1 -1.1104 15.9994 6.45854 15.4737 12.4963
102 2 2.2208 232.038 2.62171 -0.0469314 11.0391
9002 2 2.2208 232.038 13.8867 8.50156 2.67375
104 2 2.2208 232.038 8.1954 0.0594462 11.2107
9161 1 -1.1104 15.9994 1.08847 9.65629 3.93645
106 1 -1.1104 15.9994 4.09621 18.4423 12.7211
107 2 2.2208 232.038 2.68748 5.82166 11.2823
108 2 2.2208 232.038 5.49101 2.88596 10.9746
109 2 2.2208 232.038 8.34238 5.65675 11.2574
110 2 2.2208 232.038 11.0139 2.83508 11.0743
111 1 -1.1104 15.9994 1.19814 18.3154 12.2417
112 2 2.2208 232.038 2.68487 11.1913 11.2381
113 2 2.2208 232.038 5.44541 8.50955 11.0872
114 2 2.2208 232.038 8.22023 11.5446 11.2851
115 2 2.2208 232.038 10.8819 8.51832 11.1282
116 1 -1.1104 15.9994 3.76917 15.5029 12.5556
117 2 2.2208 232.038 2.46775 17.0736 11.0982
118 2 2.2208 232.038 5.25285 14.2904 11.2372
119 2 2.2208 232.038 8.21428 17.1218 10.9492
120 2 2.2208 232.038 10.942 14.1173 10.9727
55 2 2.2208 232.038 5.36907 -2.69987 5.63413
122 2 2.2208 232.038 2.60817 22.7212 10.9671
123 2 2.2208 232.038 5.5078 19.7863 11.245
124 2 2.2208 232.038 8.19312 22.6805 11.1897
125 2 2.2208 232.038 11.0262 19.7841 10.9957
126 1 -1.1104 15.9994 1.07529 -0.923324 1.11688
127 1 -1.1104 15.9994 3.8664 -1.45318 0.965768
128 1 -1.1104 15.9994 1.24184 -1.74691 3.83728
129 1 -1.1104 15.9994 4.18776 -0.886895 4.03622
130 1 -1.1104 15.9994 1.24233 1.72841 1.4559
131 1 -1.1104 15.9994 4.17275 1.51673 1.52954
132 1 -1.1104 15.9994 1.15945 1.37868 4.09378
133 1 -1.1104 15.9994 4.05184 1.59387 4.25477
134 1 -1.1104 15.9994 6.71737 -1.2984 0.855695
135 1 -1.1104 15.9994 9.53842 -1.46735 1.28828
136 1 -1.1104 15.9994 6.63509 -1.54848 3.87346
137 1 -1.1104 15.9994 9.28767 -1.39326 4.0004
138 1 -1.1104 15.9994 6.94005 1.53601 1.25644
139 1 -1.1104 15.9994 9.75857 1.26455 1.15255
140 1 -1.1104 15.9994 6.92777 1.60366 4.17214
141 1 -1.1104 15.9994 9.60795 1.36073 3.91834
142 1 -1.1104 15.9994 12.6033 -1.65683 0.98266
143 1 -1.1104 15.9994 12.3444 -1.37107 3.67749
144 1 -1.1104 15.9994 12.7209 1.27925 1.13849
145 1 -1.1104 15.9994 12.333 1.61108 4.10432
146 1 -1.1104 15.9994 1.44855 4.37698 1.35984
147 1 -1.1104 15.9994 4.09126 4.29128 1.41972
148 1 -1.1104 15.9994 1.02142 4.22992 4.09196
149 1 -1.1104 15.9994 3.9544 4.11149 4.31108
150 1 -1.1104 15.9994 1.34928 7.10466 1.24289
151 1 -1.1104 15.9994 4.09305 7.20552 1.18992
152 1 -1.1104 15.9994 1.14808 7.15908 6.84455
153 1 -1.1104 15.9994 3.8234 7.00693 4.06648
154 1 -1.1104 15.9994 6.82694 4.23296 1.46978
155 1 -1.1104 15.9994 9.60782 4.27769 1.30982
156 1 -1.1104 15.9994 6.76159 4.59557 4.11731
157 1 -1.1104 15.9994 9.6573 4.33146 4.08368
158 1 -1.1104 15.9994 6.77661 7.08333 1.46659
159 1 -1.1104 15.9994 9.49767 7.2928 1.26631
160 1 -1.1104 15.9994 6.67849 7.48021 4.19335
161 1 -1.1104 15.9994 9.78519 7.09541 4.08806
162 1 -1.1104 15.9994 12.4764 4.06379 1.17023
163 1 -1.1104 15.9994 12.4186 4.32249 4.04632
164 1 -1.1104 15.9994 12.4014 7.31395 1.21503
165 1 -1.1104 15.9994 12.5242 6.91618 4.067
166 1 -1.1104 15.9994 1.37403 9.79907 1.3559
167 1 -1.1104 15.9994 4.02035 9.89115 1.2196
168 1 -1.1104 15.9994 0.976294 6.91012 3.91859
169 1 -1.1104 15.9994 3.90845 9.98778 3.93086
170 1 -1.1104 15.9994 1.13746 12.6415 1.12014
171 1 -1.1104 15.9994 3.93303 12.8619 1.36114
172 1 -1.1104 15.9994 1.34761 12.7608 4.04412
173 1 -1.1104 15.9994 4.12033 13.1426 4.16042
174 1 -1.1104 15.9994 6.52048 10.1453 1.32232
175 1 -1.1104 15.9994 9.55446 10.0064 0.938043
176 1 -1.1104 15.9994 6.87652 10.1994 4.52446
177 1 -1.1104 15.9994 9.61497 10.0543 3.7472
178 1 -1.1104 15.9994 6.85127 12.9662 0.691618
179 1 -1.1104 15.9994 12.5814 12.8956 0.951264
180 1 -1.1104 15.9994 7.00102 12.8187 3.73799
181 1 -1.1104 15.9994 9.6891 13.1411 3.91517
182 1 -1.1104 15.9994 12.5192 9.98986 1.21445
183 1 -1.1104 15.9994 12.2193 9.80638 3.93211
677 1 -1.1104 15.9994 9.92975 12.9653 1.01016
185 1 -1.1104 15.9994 12.63 13.0324 3.8587
186 1 -1.1104 15.9994 1.17094 15.4483 1.13226
187 1 -1.1104 15.9994 4.2186 15.5347 1.268
188 1 -1.1104 15.9994 1.05423 15.4102 3.9268
189 1 -1.1104 15.9994 4.14898 16.11 4.29984
190 1 -1.1104 15.9994 1.34904 18.4966 1.23294
191 1 -1.1104 15.9994 4.13402 18.4972 1.28623
192 1 -1.1104 15.9994 1.15989 17.9963 3.97915
193 1 -1.1104 15.9994 3.94737 18.634 4.13259
194 1 -1.1104 15.9994 6.80491 15.6704 1.19873
195 1 -1.1104 15.9994 9.76761 16.1545 1.20813
196 1 -1.1104 15.9994 6.90488 15.766 3.97426
197 1 -1.1104 15.9994 9.80983 15.7789 4.08526
198 1 -1.1104 15.9994 6.87846 18.4774 1.38005
199 1 -1.1104 15.9994 9.8296 19.0455 1.51035
200 1 -1.1104 15.9994 6.95608 18.327 4.30442
201 1 -1.1104 15.9994 9.57443 18.5319 3.83606
202 1 -1.1104 15.9994 12.4386 15.9097 0.934004
203 1 -1.1104 15.9994 12.7062 15.8302 3.97859
204 1 -1.1104 15.9994 12.6513 18.9365 1.09727
205 1 -1.1104 15.9994 12.423 18.6606 3.73356
206 1 -1.1104 15.9994 1.29903 21.4562 1.5174
207 1 -1.1104 15.9994 4.0905 21.1965 1.31418
208 1 -1.1104 15.9994 1.20279 20.982 4.06725
209 1 -1.1104 15.9994 4.00056 21.4631 4.09197
210 1 -1.1104 15.9994 6.64979 21.4105 0.984736
211 1 -1.1104 15.9994 9.52724 21.6114 1.37506
212 1 -1.1104 15.9994 6.85838 21.655 3.83316
213 1 -1.1104 15.9994 9.61825 21.5422 4.06123
214 1 -1.1104 15.9994 12.3957 21.6191 1.23
215 1 -1.1104 15.9994 12.7848 21.6736 3.79821
216 1 -1.1104 15.9994 1.42931 -1.16642 6.94166
217 1 -1.1104 15.9994 3.91015 -1.17005 6.83192
218 1 -1.1104 15.9994 1.25204 -1.31883 12.4894
219 1 -1.1104 15.9994 4.00917 -1.31941 9.53726
220 1 -1.1104 15.9994 1.33612 1.48177 6.77859
221 1 -1.1104 15.9994 4.23549 1.53367 7.07452
222 1 -1.1104 15.9994 1.08474 -1.76368 9.76049
223 1 -1.1104 15.9994 3.94581 1.53049 9.80234
224 1 -1.1104 15.9994 6.88613 -1.25659 6.72016
225 1 -1.1104 15.9994 9.58954 -1.41759 6.9388
226 1 -1.1104 15.9994 6.98602 -1.68754 9.80362
227 1 -1.1104 15.9994 9.84658 -1.23964 9.69641
228 1 -1.1104 15.9994 6.88199 1.34327 7.17034
229 1 -1.1104 15.9994 9.55336 1.40323 6.99406
230 1 -1.1104 15.9994 6.68872 1.15627 10.0856
231 1 -1.1104 15.9994 9.39821 1.41328 9.66177
232 1 -1.1104 15.9994 12.3101 -1.50024 6.48419
233 1 -1.1104 15.9994 12.4798 -1.42087 9.14208
234 1 -1.1104 15.9994 12.3828 1.30553 6.90344
235 1 -1.1104 15.9994 12.3558 1.45853 9.41728
236 1 -1.1104 15.9994 1.34145 4.20651 9.64389
237 1 -1.1104 15.9994 4.13701 4.276 7.1667
238 1 -1.1104 15.9994 1.28889 1.36929 9.67916
239 1 -1.1104 15.9994 4.18125 4.56415 9.90459
240 1 -1.1104 15.9994 1.51545 4.29778 7.0842
241 1 -1.1104 15.9994 3.96832 6.99157 6.9469
242 1 -1.1104 15.9994 1.25086 6.95703 9.57635
243 1 -1.1104 15.9994 3.95631 7.35492 9.8457
244 1 -1.1104 15.9994 6.97761 4.2889 6.89263
245 1 -1.1104 15.9994 9.7956 4.67787 6.85861
246 1 -1.1104 15.9994 6.86102 3.98816 9.65362
247 1 -1.1104 15.9994 9.71132 4.24821 9.90496
248 1 -1.1104 15.9994 6.86137 7.26424 6.93908
249 1 -1.1104 15.9994 10.009 7.23562 6.98319
250 1 -1.1104 15.9994 6.74857 7.06058 9.91917
251 1 -1.1104 15.9994 9.59077 7.1373 9.75582
252 1 -1.1104 15.9994 12.5041 4.3117 6.97959
253 1 -1.1104 15.9994 12.5484 4.2763 9.78085
254 1 -1.1104 15.9994 12.6776 6.87968 6.89756
255 1 -1.1104 15.9994 12.3241 7.073 9.99016
256 1 -1.1104 15.9994 1.21328 9.89123 6.61768
257 1 -1.1104 15.9994 4.02899 10.0505 6.81647
258 1 -1.1104 15.9994 1.15135 9.72902 9.75518
259 1 -1.1104 15.9994 3.86229 10.0413 9.69086
260 1 -1.1104 15.9994 1.28312 12.7656 6.75064
261 1 -1.1104 15.9994 4.02982 12.9743 6.89009
262 1 -1.1104 15.9994 1.07557 12.7938 9.49668
263 1 -1.1104 15.9994 3.68599 12.9219 10.1097
264 1 -1.1104 15.9994 6.78989 9.91629 7.41089
265 1 -1.1104 15.9994 9.54264 10.1966 6.61386
266 1 -1.1104 15.9994 6.87361 10.0701 10.0168
267 1 -1.1104 15.9994 9.68125 9.93783 9.78451
268 1 -1.1104 15.9994 6.64803 12.4882 6.52671
269 1 -1.1104 15.9994 9.60389 12.9987 6.62377
270 1 -1.1104 15.9994 6.74372 12.8823 9.58724
271 1 -1.1104 15.9994 9.58647 12.6508 9.6407
272 1 -1.1104 15.9994 12.5222 10.0539 6.84046
273 1 -1.1104 15.9994 12.6286 9.82591 9.70321
274 1 -1.1104 15.9994 12.6494 12.8822 6.73126
275 1 -1.1104 15.9994 12.5203 12.6838 9.454
276 1 -1.1104 15.9994 1.40458 15.6471 6.87759
277 1 -1.1104 15.9994 4.31954 15.7723 6.80341
278 1 -1.1104 15.9994 1.23085 15.7297 9.72838
279 1 -1.1104 15.9994 4.06414 15.6019 9.67572
280 1 -1.1104 15.9994 1.07741 18.6003 6.69448
281 1 -1.1104 15.9994 4.24717 18.4901 7.05692
282 1 -1.1104 15.9994 1.38353 18.7019 9.58261
283 1 -1.1104 15.9994 3.89974 18.5226 10.0602
284 1 -1.1104 15.9994 7.00336 15.5584 6.78622
285 1 -1.1104 15.9994 9.70864 15.6022 6.97171
286 1 -1.1104 15.9994 7.23783 15.819 9.46756
287 1 -1.1104 15.9994 9.79328 15.3755 9.63754
288 1 -1.1104 15.9994 7.25373 18.4055 6.94494
289 1 -1.1104 15.9994 9.88601 18.7007 6.84357
290 1 -1.1104 15.9994 6.87076 18.6801 9.83298
291 1 -1.1104 15.9994 9.68948 18.2513 9.67266
292 1 -1.1104 15.9994 12.5667 15.5907 6.94608
293 1 -1.1104 15.9994 12.5043 15.3823 9.80341
294 1 -1.1104 15.9994 12.5514 18.4919 6.55756
295 1 -1.1104 15.9994 12.4692 17.984 9.73711
296 1 -1.1104 15.9994 1.55913 21.5948 6.91517
297 1 -1.1104 15.9994 4.26979 21.4136 7.06536
298 1 -1.1104 15.9994 1.15542 21.3177 9.61559
299 1 -1.1104 15.9994 4.14919 21.476 9.72012
300 1 -1.1104 15.9994 7.1039 21.2953 6.70954
301 1 -1.1104 15.9994 10.0087 21.5218 6.8107
302 1 -1.1104 15.9994 7.16713 21.5399 9.45535
303 1 -1.1104 15.9994 10.1612 21.2599 9.4966
304 1 -1.1104 15.9994 12.6474 21.2496 6.51958
305 1 -1.1104 15.9994 12.9248 20.663 9.6833
325 2 2.2208 232.038 5.38644 2.91307 -0.0198911
307 1 -1.1104 15.9994 4.0098 -1.28539 12.6125
308 1 -1.1104 15.9994 1.27932 1.47264 12.594
309 1 -1.1104 15.9994 4.04418 1.33591 12.6585
310 1 -1.1104 15.9994 6.75409 -1.35301 12.6136
311 1 -1.1104 15.9994 9.57741 -1.27511 12.4701
312 1 -1.1104 15.9994 6.92276 1.4649 12.8301
313 1 -1.1104 15.9994 9.65495 1.48436 12.3822
314 1 -1.1104 15.9994 12.4209 -1.47133 12.2254
315 1 -1.1104 15.9994 12.6371 1.52056 12.252
316 1 -1.1104 15.9994 1.46643 4.38039 12.6966
317 1 -1.1104 15.9994 4.27112 4.32913 12.6242
9690 2 2.2208 232.038 -0.115928 3.01268 -0.11523
8993 2 2.2208 232.038 -0.163156 8.32589 5.24911
9081 2 2.2208 232.038 13.8204 -0.0195282 11.0765
349 2 2.2208 232.038 5.41302 22.7124 13.8242
9324 2 2.2208 232.038 13.8853 8.58474 13.8672
1 2 2.2208 232.038 13.8475 22.8259 5.50855
91 2 2.2208 232.038 -0.22375 19.6781 5.29742
8994 2 2.2208 232.038 -0.0858781 5.5996 8.27272
9041 2 2.2208 232.038 13.9536 5.69759 5.34161
6 2 2.2208 232.038 13.8374 17.1687 5.43312
12 2 2.2208 232.038 13.852 20.1829 2.75474
9007 2 2.2208 232.038 -0.130074 0.183169 2.56975
9004 2 2.2208 232.038 -0.139442 5.69729 2.57542
3 2 2.2208 232.038 2.93446 -2.65283 2.60251
659 2 2.2208 232.038 2.58977 0.229333 -0.0668391
15 2 2.2208 232.038 13.9497 14.4548 2.38456
8988 2 2.2208 232.038 -0.203649 11.3248 8.263
5 2 2.2208 232.038 13.9604 14.412 8.28925
343 2 2.2208 232.038 8.17095 14.1696 13.8695
8984 2 2.2208 232.038 -0.14116 2.84876 11.018
121 2 2.2208 232.038 -0.0769081 19.9063 11.1269
9091 2 2.2208 232.038 13.7491 11.3613 10.9447
8992 2 2.2208 232.038 13.6158 2.90921 2.76295
9101 2 2.2208 232.038 13.8233 22.6451 11.0912
9664 2 2.2208 232.038 -0.11291 16.8909 13.7188
663 2 2.2208 232.038 2.60739 5.87545 -0.15921
674 2 2.2208 232.038 2.58204 22.6982 -0.192962
340 2 2.2208 232.038 10.9311 11.5061 13.8426
661 2 2.2208 232.038 8.3744 -0.128731 -0.126878
9672 2 2.2208 232.038 -0.11843 0.156528 25.2135
327 1 -1.1104 15.9994 6.76421 21.437 26.5218
657 2 2.2208 232.038 13.7522 22.7 22.3981
667 2 2.2208 232.038 13.9167 17.2163 27.9392
9389 2 2.2208 232.038 13.9388 0.143557 22.3927
672 2 2.2208 232.038 11.16 14.1577 27.942
332 1 -1.1104 15.9994 9.36817 21.1963 23.8541
409 2 2.2208 232.038 11.3444 -2.61266 22.3534
374 2 2.2208 232.038 11.1598 20.0074 28.0401
665 2 2.2208 232.038 13.8511 22.9037 28.0203
647 1 -1.1104 15.9994 3.98742 15.8931 23.7427
337 1 -1.1104 15.9994 6.87292 21.3539 23.589
29 2 2.2208 232.038 11.0404 8.68222 28.0777
9676 2 2.2208 232.038 -0.124619 11.5839 25.0548
9350 2 2.2208 232.038 13.9002 3.03171 19.6717
9688 2 2.2208 232.038 -0.00391975 8.64917 28.1018
342 1 -1.1104 15.9994 3.72879 21.3834 26.621
431 2 2.2208 232.038 -0.136859 14.4221 22.0609
339 2 2.2208 232.038 5.33969 11.2652 13.9985
9419 2 2.2208 232.038 13.9027 17.0659 22.3759
650 1 -1.1104 15.9994 1.59138 18.0922 24.2134
646 1 -1.1104 15.9994 1.11472 15.6797 23.9547
350 2 2.2208 232.038 10.9398 22.6171 13.9716
338 2 2.2208 232.038 8.057 8.52062 13.9856
649 1 -1.1104 15.9994 3.9131 15.5801 26.518
351 1 -1.1104 15.9994 0.954701 21.3547 26.9838
352 2 2.2208 232.038 2.75617 -0.147556 16.994
341 2 2.2208 232.038 2.49251 14.1449 14.1865
354 1 -1.1104 15.9994 4.13478 19.0248 24.1383
348 2 2.2208 232.038 8.16024 20.0318 13.9474
356 2 2.2208 232.038 8.25071 0.192141 16.902
652 1 -1.1104 15.9994 0.902259 18.607 26.6499
358 2 2.2208 232.038 5.55505 0.0094837 19.807
26 2 2.2208 232.038 8.13474 11.2992 27.9871
360 2 2.2208 232.038 11.2075 0.25446 19.4603
361 1 -1.1104 15.9994 0.918862 20.9778 24.0916
362 2 2.2208 232.038 2.58805 5.56511 16.8872
363 2 2.2208 232.038 2.65014 2.79033 19.5376
364 1 -1.1104 15.9994 12.3931 18.4253 26.8227
365 2 2.2208 232.038 5.40905 2.82392 16.9639
366 2 2.2208 232.038 8.46418 5.75666 17.0558
367 2 2.2208 232.038 8.28694 2.74884 19.6925
368 2 2.2208 232.038 5.34073 5.62219 19.6743
369 2 2.2208 232.038 11.0902 3.00604 16.6317
370 2 2.2208 232.038 11.1783 5.85292 19.7768
371 1 -1.1104 15.9994 12.2514 18.3769 23.9022
372 2 2.2208 232.038 2.53594 11.3646 16.8873
373 2 2.2208 232.038 2.5653 8.4005 19.8335
9661 2 2.2208 232.038 -0.0135109 -0.0337091 14.0879
375 2 2.2208 232.038 5.40203 8.42061 16.9146
376 2 2.2208 232.038 7.92162 11.3214 16.6856
377 2 2.2208 232.038 8.22415 8.65198 19.6036
378 2 2.2208 232.038 5.45337 11.3587 19.7502
379 2 2.2208 232.038 11.1079 8.67137 16.7183
380 2 2.2208 232.038 10.9466 11.4095 19.4548
381 1 -1.1104 15.9994 12.2228 15.5368 26.4652
382 2 2.2208 232.038 2.24551 17.2255 16.8649
383 2 2.2208 232.038 2.61579 14.2861 19.5506
656 1 -1.1104 15.9994 6.71617 15.6981 26.6255
385 2 2.2208 232.038 5.41747 14.1383 16.7628
386 2 2.2208 232.038 8.07598 17.2009 16.6759
387 2 2.2208 232.038 8.10196 14.0975 19.5429
388 2 2.2208 232.038 5.26595 16.7656 19.6539
389 2 2.2208 232.038 10.9551 14.3084 16.7788
390 2 2.2208 232.038 11.1772 17.0573 19.65
391 1 -1.1104 15.9994 12.3978 21.3022 26.6285
392 2 2.2208 232.038 2.74299 22.9136 16.68
393 2 2.2208 232.038 2.55918 19.8453 19.6332
9662 2 2.2208 232.038 -0.115349 5.65019 14.1283
395 2 2.2208 232.038 5.10641 20.0021 16.701
396 2 2.2208 232.038 8.18387 22.8061 16.8813
397 2 2.2208 232.038 8.3683 19.9096 19.6309
398 2 2.2208 232.038 5.35532 22.6901 19.9923
399 2 2.2208 232.038 11.0617 20.0549 16.8451
400 2 2.2208 232.038 10.9097 22.8481 19.6408
401 1 -1.1104 15.9994 12.4796 15.6227 24.0614
402 2 2.2208 232.038 2.64927 0.0623718 22.3467
655 1 -1.1104 15.9994 9.69487 15.8372 24.1019
404 1 -1.1104 15.9994 9.42343 15.6667 26.7269
675 2 2.2208 232.038 5.21453 19.8968 28.0608
406 2 2.2208 232.038 8.1899 0.111408 22.4449
654 1 -1.1104 15.9994 6.65973 15.5524 23.9024
408 2 2.2208 232.038 5.48073 0.114417 25.1791
648 1 -1.1104 15.9994 1.09535 15.7015 26.9073
410 2 2.2208 232.038 11.043 0.0413638 25.2233
411 1 -1.1104 15.9994 6.41928 18.4986 26.8314
412 2 2.2208 232.038 2.49005 5.7779 22.4046
413 2 2.2208 232.038 2.63247 2.73065 25.2955
414 1 -1.1104 15.9994 9.5706 18.6316 26.888
415 2 2.2208 232.038 5.11214 2.96509 22.5973
416 2 2.2208 232.038 8.322 5.59416 22.5026
417 2 2.2208 232.038 8.1602 2.89436 25.5487
418 2 2.2208 232.038 5.42846 5.63153 25.2046
419 2 2.2208 232.038 11.1533 2.9085 22.4218
420 2 2.2208 232.038 11.2111 5.88079 25.1438
421 1 -1.1104 15.9994 9.55094 18.5015 24.1829
422 2 2.2208 232.038 2.5828 11.5397 22.5182
423 2 2.2208 232.038 2.60317 8.59468 25.4228
424 1 -1.1104 15.9994 9.75473 12.6178 26.5976
425 2 2.2208 232.038 5.58606 8.56142 22.5646
426 2 2.2208 232.038 8.28874 11.3329 22.554
427 2 2.2208 232.038 8.27382 8.5154 25.4217
428 2 2.2208 232.038 5.3942 11.3719 25.3217
429 2 2.2208 232.038 11.2441 8.57311 22.3119
430 2 2.2208 232.038 11.2048 11.3564 25.1211
9370 2 2.2208 232.038 13.5457 14.2219 19.8223
432 2 2.2208 232.038 2.61738 17.0858 22.3386
433 2 2.2208 232.038 2.57397 14.2724 25.1174
9675 2 2.2208 232.038 -0.106907 8.65607 22.4391
435 2 2.2208 232.038 5.28036 14.2856 22.5277
436 2 2.2208 232.038 8.0229 16.9968 22.6037
437 2 2.2208 232.038 8.02255 14.1337 25.0907
438 2 2.2208 232.038 5.32202 17.0659 25.2897
439 2 2.2208 232.038 10.9428 14.3224 22.5377
440 2 2.2208 232.038 11.0108 16.888 25.2199
651 1 -1.1104 15.9994 6.75621 18.4793 23.8572
442 1 -1.1104 15.9994 12.6061 21.2129 23.6608
443 2 2.2208 232.038 2.38507 19.8244 25.451
653 1 -1.1104 15.9994 3.81196 18.566 26.9467
445 2 2.2208 232.038 5.62631 19.9163 22.4495
446 2 2.2208 232.038 8.19097 22.6941 22.4318
447 2 2.2208 232.038 8.09975 20.128 25.5318
448 2 2.2208 232.038 5.31598 22.9574 25.4876
449 2 2.2208 232.038 10.9188 19.8407 22.472
450 2 2.2208 232.038 10.8221 22.8406 25.1715
451 1 -1.1104 15.9994 1.38303 -1.25228 15.4858
452 1 -1.1104 15.9994 3.98615 -1.17255 15.4668
453 1 -1.1104 15.9994 1.23231 1.33589 15.583
454 1 -1.1104 15.9994 4.12605 1.36547 15.6706
455 1 -1.1104 15.9994 6.71097 -1.27298 15.6033
456 1 -1.1104 15.9994 9.75641 -1.65558 15.1305
457 1 -1.1104 15.9994 6.85452 1.5054 15.4474
458 1 -1.1104 15.9994 9.44298 1.50605 15.3147
459 1 -1.1104 15.9994 12.5076 -1.47314 15.4439
460 1 -1.1104 15.9994 12.3672 1.38096 15.252
461 1 -1.1104 15.9994 1.02868 4.12743 15.5512
462 1 -1.1104 15.9994 3.72439 4.27588 15.4913
463 1 -1.1104 15.9994 1.02441 7.29134 15.4665
464 1 -1.1104 15.9994 3.89761 7.01809 15.4827
465 1 -1.1104 15.9994 6.56048 4.23999 15.6285
466 1 -1.1104 15.9994 9.63861 4.4145 15.3827
467 1 -1.1104 15.9994 6.82108 7.08793 15.4903
468 1 -1.1104 15.9994 9.66169 7.28049 15.3836
469 1 -1.1104 15.9994 12.3774 4.15976 15.3321
470 1 -1.1104 15.9994 12.8298 7.22785 15.6513
471 1 -1.1104 15.9994 0.768579 9.91983 15.573
472 1 -1.1104 15.9994 3.81961 9.92983 15.3857
473 1 -1.1104 15.9994 1.17678 12.7344 15.6655
474 1 -1.1104 15.9994 3.86854 12.6463 15.4059
475 1 -1.1104 15.9994 6.49442 9.9035 15.4447
476 1 -1.1104 15.9994 9.29428 9.77925 15.4107
477 1 -1.1104 15.9994 6.79321 12.8419 15.3049
478 1 -1.1104 15.9994 9.60549 12.7594 15.4465
479 1 -1.1104 15.9994 12.3255 10.1395 15.1892
480 1 -1.1104 15.9994 12.4439 12.8105 15.2362
481 1 -1.1104 15.9994 1.06809 15.5324 15.3275
482 1 -1.1104 15.9994 3.94566 15.5658 15.5572
483 1 -1.1104 15.9994 1.10931 18.3467 15.0333
484 1 -1.1104 15.9994 3.85649 18.4222 15.5046
485 1 -1.1104 15.9994 6.84626 15.6231 15.3432
486 1 -1.1104 15.9994 9.75774 15.774 15.3053
487 1 -1.1104 15.9994 6.84306 18.8277 15.6141
488 1 -1.1104 15.9994 9.97532 18.5962 15.3888
489 1 -1.1104 15.9994 12.3607 15.6091 15.2943
490 1 -1.1104 15.9994 12.7892 18.5448 15.1427
491 1 -1.1104 15.9994 1.38987 21.4623 15.4645
492 1 -1.1104 15.9994 4.10167 21.1949 15.132
493 1 -1.1104 15.9994 6.91587 21.5167 15.1811
494 1 -1.1104 15.9994 9.50013 21.4783 15.4043
495 1 -1.1104 15.9994 12.5291 21.2076 15.4363
496 1 -1.1104 15.9994 1.25533 -1.32741 18.0251
497 1 -1.1104 15.9994 4.16036 -1.50447 18.305
498 1 -1.1104 15.9994 1.17688 -1.41877 20.9553
499 1 -1.1104 15.9994 4.11685 -1.3614 20.908
500 1 -1.1104 15.9994 1.08644 1.34437 18.0785
501 1 -1.1104 15.9994 4.01442 1.24738 18.4506
502 1 -1.1104 15.9994 1.32588 1.45963 20.9948
503 1 -1.1104 15.9994 4.25558 1.56058 21.1429
504 1 -1.1104 15.9994 7.0928 -1.50023 18.4451
505 1 -1.1104 15.9994 9.864 -1.16316 17.879
506 1 -1.1104 15.9994 6.95539 -1.60898 21.1445
507 1 -1.1104 15.9994 9.91579 -1.31751 20.7118
508 1 -1.1104 15.9994 6.83952 1.40527 18.2324
509 1 -1.1104 15.9994 9.7122 1.53558 18.1404
510 1 -1.1104 15.9994 6.98944 1.38654 20.8576
511 1 -1.1104 15.9994 9.83534 1.41283 20.9694
512 1 -1.1104 15.9994 12.7351 -1.22498 18.3868
513 1 -1.1104 15.9994 12.6077 -1.06724 20.9075
514 1 -1.1104 15.9994 12.5647 1.58117 18.0621
515 1 -1.1104 15.9994 12.2665 1.5765 20.8937
516 1 -1.1104 15.9994 1.01453 4.14705 18.4445
517 1 -1.1104 15.9994 3.97481 4.02106 18.2163
518 1 -1.1104 15.9994 0.81103 4.37473 21.1773
519 1 -1.1104 15.9994 3.84337 4.46766 21.2689
520 1 -1.1104 15.9994 1.23796 6.81727 18.1182
521 1 -1.1104 15.9994 4.05519 6.90131 17.97
522 1 -1.1104 15.9994 1.19323 7.21533 20.9788
523 1 -1.1104 15.9994 4.14308 7.14822 20.6025
524 1 -1.1104 15.9994 6.79357 4.14153 18.4388
525 1 -1.1104 15.9994 9.64398 4.32791 18.328
526 1 -1.1104 15.9994 6.68348 4.14474 21.1674
527 1 -1.1104 15.9994 9.66198 4.10179 20.8903
528 1 -1.1104 15.9994 6.91069 7.03241 18.1119
529 1 -1.1104 15.9994 9.78382 7.37775 18.3472
530 1 -1.1104 15.9994 6.93444 7.0992 21.025
531 1 -1.1104 15.9994 9.80448 6.79963 21.1047
532 1 -1.1104 15.9994 12.3968 4.47177 18.1066
533 1 -1.1104 15.9994 12.5096 4.30031 21.0396
534 1 -1.1104 15.9994 12.376 7.35463 18.1723
535 1 -1.1104 15.9994 12.6358 7.16417 20.8855
536 1 -1.1104 15.9994 1.55284 10.1146 18.4499
537 1 -1.1104 15.9994 4.1173 9.94459 18.2295
538 1 -1.1104 15.9994 0.957285 10.2872 21.3405
539 1 -1.1104 15.9994 3.92634 10.103 21.1144
540 1 -1.1104 15.9994 1.38314 12.8559 18.2901
541 1 -1.1104 15.9994 3.87778 12.6994 18.3062
542 1 -1.1104 15.9994 1.45794 12.9552 21.2325
543 1 -1.1104 15.9994 4.24867 12.8538 21.1257
544 1 -1.1104 15.9994 6.67111 9.97211 18.2979
545 1 -1.1104 15.9994 9.51922 9.84952 18.2138
546 1 -1.1104 15.9994 6.71981 9.81015 21.1382
547 1 -1.1104 15.9994 9.81559 9.91491 21.1787
548 1 -1.1104 15.9994 6.66443 12.6779 17.9049
549 1 -1.1104 15.9994 9.44892 12.9081 18.1271
550 1 -1.1104 15.9994 6.98474 12.6113 20.8637
551 1 -1.1104 15.9994 9.59834 13.0742 20.9306
552 1 -1.1104 15.9994 12.4397 10.1901 18.0784
553 1 -1.1104 15.9994 12.7681 9.86046 20.9572
554 1 -1.1104 15.9994 12.3835 12.847 17.9741
555 1 -1.1104 15.9994 12.2188 12.755 20.9954
556 1 -1.1104 15.9994 1.11003 15.6506 18.1803
557 1 -1.1104 15.9994 3.77338 15.4904 18.0867
558 1 -1.1104 15.9994 1.19198 15.7823 20.9358
559 1 -1.1104 15.9994 3.82912 15.5535 20.9963
560 1 -1.1104 15.9994 1.14233 18.5964 18.4606
561 1 -1.1104 15.9994 3.81897 18.2633 18.2824
562 1 -1.1104 15.9994 1.30256 18.3113 21.179
563 1 -1.1104 15.9994 4.34574 18.1768 21.2008
564 1 -1.1104 15.9994 6.61496 15.4498 18.1452
565 1 -1.1104 15.9994 9.36605 15.6795 17.9993
566 1 -1.1104 15.9994 6.5825 15.5561 21.1009
567 1 -1.1104 15.9994 9.44967 15.6505 21.0591
568 1 -1.1104 15.9994 6.76491 18.3865 18.1603
569 1 -1.1104 15.9994 9.83895 18.484 18.1313
570 1 -1.1104 15.9994 6.99701 18.4645 21.1179
571 1 -1.1104 15.9994 9.6868 18.4051 20.9801
572 1 -1.1104 15.9994 12.2038 15.6262 18.3155
573 1 -1.1104 15.9994 12.4421 15.8008 21.2224
574 1 -1.1104 15.9994 12.5871 18.5108 18.1182
575 1 -1.1104 15.9994 12.3109 18.7414 20.8472
576 1 -1.1104 15.9994 0.62353 20.9553 20.3622
577 1 -1.1104 15.9994 3.52342 21.185 18.1392
19 2 2.2208 232.038 11.0469 2.77314 27.9697
579 1 -1.1104 15.9994 4.12943 21.0282 21.0716
580 1 -1.1104 15.9994 6.20463 21.3329 18.1645
581 1 -1.1104 15.9994 9.39232 21.5075 18.5427
582 1 -1.1104 15.9994 6.9385 21.2912 20.9419
583 1 -1.1104 15.9994 9.53494 21.3486 21.2107
584 1 -1.1104 15.9994 12.4497 21.3426 17.8966
585 1 -1.1104 15.9994 12.6191 21.5622 20.7365
586 1 -1.1104 15.9994 1.40358 -1.27019 23.8079
587 1 -1.1104 15.9994 4.11608 -1.51608 23.5801
588 1 -1.1104 15.9994 1.23113 -1.60432 26.5407
589 1 -1.1104 15.9994 4.03607 -1.32837 26.5584
590 1 -1.1104 15.9994 1.14471 1.51268 23.8676
591 1 -1.1104 15.9994 3.78026 1.37983 23.872
592 1 -1.1104 15.9994 1.37774 1.26085 26.612
593 1 -1.1104 15.9994 3.94431 1.53835 26.8774
594 1 -1.1104 15.9994 6.85801 -1.46104 23.8283
595 1 -1.1104 15.9994 9.6798 -1.29256 23.7694
596 1 -1.1104 15.9994 7.06066 -1.26927 26.3942
597 1 -1.1104 15.9994 9.77568 -1.53755 26.6285
598 1 -1.1104 15.9994 6.47958 1.33317 23.5757
599 1 -1.1104 15.9994 9.3858 1.6607 23.8546
600 1 -1.1104 15.9994 6.77913 1.54468 26.6978
601 1 -1.1104 15.9994 9.53073 1.37836 26.8058
602 1 -1.1104 15.9994 12.5948 -1.1722 23.7217
603 1 -1.1104 15.9994 12.5986 -1.29429 26.5695
604 1 -1.1104 15.9994 12.0052 1.65434 24.0445
605 1 -1.1104 15.9994 12.415 1.43926 26.5409
606 1 -1.1104 15.9994 0.876686 4.29398 24.1108
607 1 -1.1104 15.9994 3.70546 4.38128 24.0323
608 1 -1.1104 15.9994 1.45114 4.02499 27.0751
609 1 -1.1104 15.9994 4.12168 4.27899 26.8189
610 1 -1.1104 15.9994 1.26062 7.20159 24.0012
611 1 -1.1104 15.9994 4.15893 7.10452 23.7922
612 1 -1.1104 15.9994 1.11962 7.03771 26.6632
613 1 -1.1104 15.9994 4.22336 7.09636 26.7305
614 1 -1.1104 15.9994 6.83856 4.3072 24.0242
615 1 -1.1104 15.9994 9.50777 4.63209 23.9162
616 1 -1.1104 15.9994 6.7902 4.17934 26.7314
617 1 -1.1104 15.9994 9.7829 4.31067 26.6832
618 1 -1.1104 15.9994 6.68267 7.10122 23.772
619 1 -1.1104 15.9994 9.53732 7.34629 23.7715
620 1 -1.1104 15.9994 7.07695 7.18014 26.8057
621 1 -1.1104 15.9994 9.87822 7.20447 26.5901
622 1 -1.1104 15.9994 12.4934 4.4986 23.7552
623 1 -1.1104 15.9994 12.4498 4.24198 26.563
624 1 -1.1104 15.9994 12.4114 7.12427 23.889
625 1 -1.1104 15.9994 12.6517 7.11848 26.5285
626 1 -1.1104 15.9994 1.43429 9.82684 23.8969
627 1 -1.1104 15.9994 3.98964 9.95667 23.9592
628 1 -1.1104 15.9994 0.991925 10.2306 26.5869
629 1 -1.1104 15.9994 3.90825 10.1742 26.8589
630 1 -1.1104 15.9994 1.10045 12.9494 23.7288