ITEM: TIMESTEP
330000
ITEM: NUMBER OF ATOMS
18000
ITEM: BOX BOUNDS xy xz yz pp pp pp
-2.1175868415908214e-01 2.8105758684157305e+01 0.0000000000000000e+00
-2.6961818864705398e+00 3.3742418188643524e+02 0.0000000000000000e+00
-2.2900777619739879e-01 2.8123007776196317e+01 0.0000000000000000e+00
ITEM: ATOMS id type q mass x y z
53 2 2.2208 232.038 2.77252 -2.47135 8.24979
324 1 -1.1104 15.9994 12.5743 4.73339 12.3971
672 2 2.2208 232.038 11.3767 14.6007 -0.262769
4 1 -1.1104 15.9994 12.4594 21.4289 12.5335
323 1 -1.1104 15.9994 9.89729 7.36554 12.445
322 1 -1.1104 15.9994 6.97431 7.18832 12.5314
8994 2 2.2208 232.038 -0.093652 6.03563 8.43838
8 2 2.2208 232.038 5.41994 -0.00319607 2.36081
9 1 -1.1104 15.9994 12.5484 7.25736 12.2844
10 2 2.2208 232.038 11.1611 0.172774 2.65408
11 1 -1.1104 15.9994 9.88774 21.5442 12.7894
321 1 -1.1104 15.9994 9.75268 4.59757 12.5914
13 2 2.2208 232.038 2.56268 3.19366 2.53632
14 1 -1.1104 15.9994 6.82395 21.5764 12.4373
660 2 2.2208 232.038 5.57077 -2.52218 -0.133227
34 2 2.2208 232.038 -0.170636 17.2075 2.69192
17 2 2.2208 232.038 8.30978 3.12577 2.35587
18 2 2.2208 232.038 5.28969 5.79426 2.58685
8981 2 2.2208 232.038 0.162076 14.3152 11.351
20 2 2.2208 232.038 11.0509 5.5348 2.47811
21 1 -1.1104 15.9994 4.34299 21.5284 12.6888
22 1 -1.1104 15.9994 1.47609 15.8074 12.7924
23 2 2.2208 232.038 2.92097 8.69271 2.64652
320 1 -1.1104 15.9994 6.68423 4.41998 12.4616
24 2 2.2208 232.038 -0.222324 11.5507 2.55778
659 2 2.2208 232.038 2.4604 0.0678697 -0.131381
27 2 2.2208 232.038 8.41304 8.6595 2.5194
28 2 2.2208 232.038 5.58171 11.4519 2.82194
9002 2 2.2208 232.038 13.893 8.56793 2.59817
30 2 2.2208 232.038 11.2865 11.6596 2.53842
31 1 -1.1104 15.9994 12.7107 13.2462 12.4552
32 1 -1.1104 15.9994 12.8009 10.2324 12.5703
33 2 2.2208 232.038 2.6708 14.3076 2.7126
662 2 2.2208 232.038 11.1981 -2.67607 -0.13156
35 1 -1.1104 15.9994 9.89688 13.1297 12.2679
36 1 -1.1104 15.9994 6.85608 12.7695 12.545
37 2 2.2208 232.038 8.47951 14.1171 2.57565
38 2 2.2208 232.038 5.49751 17.1923 2.42559
39 1 -1.1104 15.9994 9.83519 10.1151 12.7495
40 2 2.2208 232.038 11.2408 16.9786 2.89254
41 1 -1.1104 15.9994 6.91248 9.83239 12.5946
42 1 -1.1104 15.9994 4.1339 12.8561 12.5662
43 2 2.2208 232.038 2.73982 20.0059 2.56489
319 1 -1.1104 15.9994 4.06842 7.44455 12.6486
45 1 -1.1104 15.9994 1.55829 12.8408 12.6555
46 1 -1.1104 15.9994 3.99162 10.0526 12.4141
47 2 2.2208 232.038 8.1592 20.0648 2.59541
48 2 2.2208 232.038 5.5935 22.8763 2.64794
49 1 -1.1104 15.9994 1.12305 10.0201 12.8894
50 2 2.2208 232.038 11.4189 22.9796 2.39444
51 1 -1.1104 15.9994 1.59886 21.4656 12.7159
52 2 2.2208 232.038 2.5206 0.300668 5.40035
9003 2 2.2208 232.038 -0.213339 -2.61778 5.36484
54 1 -1.1104 15.9994 12.5022 18.8572 12.9496
121 2 2.2208 232.038 0.0515867 20.1425 11.1079
56 2 2.2208 232.038 8.16877 0.529794 5.0808
12 2 2.2208 232.038 13.8758 20.1565 2.6005
58 2 2.2208 232.038 5.36967 0.552217 8.33832
94 2 2.2208 232.038 0.0407654 22.8996 8.27519
60 2 2.2208 232.038 11.2211 0.266034 8.5273
61 1 -1.1104 15.9994 12.4781 15.7994 12.6012
62 2 2.2208 232.038 2.67843 5.87258 5.47228
63 2 2.2208 232.038 2.44374 3.04116 8.22865
64 1 -1.1104 15.9994 9.83406 18.5775 12.6598
65 2 2.2208 232.038 5.35155 3.19279 5.39189
66 2 2.2208 232.038 8.26919 5.84586 5.10543
67 2 2.2208 232.038 8.48062 3.18446 8.05468
68 2 2.2208 232.038 5.51362 5.83062 8.21516
69 2 2.2208 232.038 11.3126 2.99974 5.45871
70 2 2.2208 232.038 11.1993 6.04917 7.99406
71 1 -1.1104 15.9994 7.00262 18.7081 12.3396
72 2 2.2208 232.038 2.63835 11.4418 5.63495
73 2 2.2208 232.038 2.80514 8.65218 8.48644
74 1 -1.1104 15.9994 9.70739 15.9272 12.4548
75 2 2.2208 232.038 5.46144 8.61091 5.46938
76 2 2.2208 232.038 8.26332 11.4673 5.51985
77 2 2.2208 232.038 8.16281 8.75688 8.25413
78 2 2.2208 232.038 5.32155 11.6401 8.2237
79 2 2.2208 232.038 11.2152 8.63827 5.31224
80 2 2.2208 232.038 11.0169 11.7085 8.19048
318 1 -1.1104 15.9994 1.23788 7.26479 12.655
82 2 2.2208 232.038 2.88361 17.3352 5.60133
83 2 2.2208 232.038 2.55341 14.4413 8.24035
9688 2 2.2208 232.038 -0.121952 8.87305 -0.139619
85 2 2.2208 232.038 5.47703 14.3953 5.44932
86 2 2.2208 232.038 8.39277 17.2215 5.49144
87 2 2.2208 232.038 8.3163 14.4139 8.35557
88 2 2.2208 232.038 5.48119 17.2028 8.17597
89 2 2.2208 232.038 10.9974 14.3025 5.68666
90 2 2.2208 232.038 11.2803 17.1567 8.1754
8991 2 2.2208 232.038 13.8516 11.4945 5.36537
92 2 2.2208 232.038 2.66724 22.8459 5.49226
93 2 2.2208 232.038 2.82121 20.1046 8.36354
55 2 2.2208 232.038 5.55115 -2.60311 5.44573
95 2 2.2208 232.038 5.6384 20.0533 5.5027
96 2 2.2208 232.038 8.23388 22.8516 5.34462
97 2 2.2208 232.038 8.3734 20.1563 8.2133
98 2 2.2208 232.038 5.54215 22.9642 8.30455
99 2 2.2208 232.038 11.2074 19.85 5.40626
100 2 2.2208 232.038 11.5061 22.6146 8.14634
101 1 -1.1104 15.9994 6.96723 15.7727 12.461
102 2 2.2208 232.038 2.54673 0.329111 11.1585
44 2 2.2208 232.038 -0.144087 22.9305 2.46997
104 2 2.2208 232.038 8.1372 0.34095 11.0541
9161 1 -1.1104 15.9994 1.24082 10.1766 4.26025
106 1 -1.1104 15.9994 4.28845 18.7242 12.616
107 2 2.2208 232.038 2.6348 6.05055 11.3493
108 2 2.2208 232.038 5.40648 3.25222 11.0247
109 2 2.2208 232.038 8.25054 5.97479 10.9685
110 2 2.2208 232.038 11.2596 3.21206 11.1288
111 1 -1.1104 15.9994 1.21655 18.5724 12.5821
112 2 2.2208 232.038 2.86681 11.5078 11.1659
113 2 2.2208 232.038 5.55409 8.74237 11.1632
114 2 2.2208 232.038 8.29767 11.4745 11.2343
115 2 2.2208 232.038 11.1911 8.88474 10.944
116 1 -1.1104 15.9994 4.30078 15.7291 12.655
117 2 2.2208 232.038 2.79549 17.1686 11.1317
118 2 2.2208 232.038 5.49062 14.2428 11.1219
119 2 2.2208 232.038 8.35066 17.2842 11.0508
120 2 2.2208 232.038 11.1948 14.7101 11.106
8988 2 2.2208 232.038 -0.0442571 11.5626 8.3983
122 2 2.2208 232.038 2.96527 22.7942 11.2407
123 2 2.2208 232.038 5.67856 20.0615 11.1958
124 2 2.2208 232.038 8.60314 23.1318 11.1074
125 2 2.2208 232.038 11.0743 20.125 11.1662
126 1 -1.1104 15.9994 1.49276 -1.22513 1.3242
127 1 -1.1104 15.9994 4.03712 -1.16542 1.11666
128 1 -1.1104 15.9994 1.05066 -1.22786 4.17167
129 1 -1.1104 15.9994 3.89913 -1.09003 4.19179
130 1 -1.1104 15.9994 0.992236 1.50604 1.27053
131 1 -1.1104 15.9994 3.84041 1.4792 1.23822
132 1 -1.1104 15.9994 1.14512 1.88524 4.06686
133 1 -1.1104 15.9994 3.93039 1.64095 4.17247
134 1 -1.1104 15.9994 6.90774 -1.22394 1.10835
135 1 -1.1104 15.9994 10.0382 -1.35935 1.37173
136 1 -1.1104 15.9994 6.74293 -1.02849 3.70264
137 1 -1.1104 15.9994 9.65386 -0.943751 4.05509
138 1 -1.1104 15.9994 6.91836 1.80828 0.708141
139 1 -1.1104 15.9994 9.6587 1.29084 1.09076
140 1 -1.1104 15.9994 6.90698 1.57263 3.48017
141 1 -1.1104 15.9994 9.79097 1.69778 3.82441
142 1 -1.1104 15.9994 12.5573 -1.18284 1.35749
143 1 -1.1104 15.9994 12.5175 -1.38944 4.15552
144 1 -1.1104 15.9994 12.3504 1.54351 1.27554
145 1 -1.1104 15.9994 12.6047 1.35142 4.21699
146 1 -1.1104 15.9994 1.07808 4.59139 1.32575
147 1 -1.1104 15.9994 3.82729 4.40775 1.0863
148 1 -1.1104 15.9994 1.11489 4.61856 4.10794
149 1 -1.1104 15.9994 3.85555 4.5821 3.99236
150 1 -1.1104 15.9994 1.44126 7.28422 1.15726
151 1 -1.1104 15.9994 4.18691 7.14608 0.810444
152 1 -1.1104 15.9994 0.928192 6.9704 6.62097
153 1 -1.1104 15.9994 4.17616 7.1508 4.17266
154 1 -1.1104 15.9994 6.81565 4.4978 1.21667
155 1 -1.1104 15.9994 9.86732 4.21276 1.22131
156 1 -1.1104 15.9994 6.69766 4.50957 3.97826
157 1 -1.1104 15.9994 9.45214 4.43746 3.98287
158 1 -1.1104 15.9994 7.0922 7.30982 1.14191
159 1 -1.1104 15.9994 9.91426 7.24723 1.19725
160 1 -1.1104 15.9994 6.89934 7.13495 3.84806
161 1 -1.1104 15.9994 9.707 7.46527 4.09488
162 1 -1.1104 15.9994 12.4666 4.1456 0.945147
163 1 -1.1104 15.9994 12.4158 4.2272 3.88181
164 1 -1.1104 15.9994 12.5352 7.02075 1.15504
165 1 -1.1104 15.9994 12.4661 7.07566 3.77174
166 1 -1.1104 15.9994 1.35597 10.077 1.34353
167 1 -1.1104 15.9994 4.29619 9.90737 1.46495
168 1 -1.1104 15.9994 1.25152 7.36307 4.0368
169 1 -1.1104 15.9994 4.03222 10.0293 4.05214
170 1 -1.1104 15.9994 1.07921 12.9392 1.05778
171 1 -1.1104 15.9994 4.13594 12.9301 1.2937
172 1 -1.1104 15.9994 1.16547 12.7297 4.04021
173 1 -1.1104 15.9994 3.85492 12.7909 4.10784
174 1 -1.1104 15.9994 6.96009 10.1627 1.09165
175 1 -1.1104 15.9994 9.88271 9.8693 1.195
176 1 -1.1104 15.9994 6.88245 10.1106 4.1603
177 1 -1.1104 15.9994 9.73603 10.2825 3.74798
178 1 -1.1104 15.9994 7.00861 12.7689 1.38112
179 1 -1.1104 15.9994 12.6885 13.0523 1.36588
180 1 -1.1104 15.9994 6.76662 13 4.2507
181 1 -1.1104 15.9994 9.60842 12.9894 4.08335
182 1 -1.1104 15.9994 12.8143 9.97246 0.957105
183 1 -1.1104 15.9994 12.4428 9.98691 3.94096
677 1 -1.1104 15.9994 9.9872 12.8919 1.18621
185 1 -1.1104 15.9994 12.6501 12.9416 4.19504
186 1 -1.1104 15.9994 1.27741 15.9668 1.42034
187 1 -1.1104 15.9994 4.041 15.5938 1.41773
188 1 -1.1104 15.9994 1.20575 15.6735 4.0041
189 1 -1.1104 15.9994 4.30789 15.8091 4.41374
190 1 -1.1104 15.9994 1.01741 18.7706 1.58098
191 1 -1.1104 15.9994 4.09162 18.5216 1.24247
192 1 -1.1104 15.9994 1.55149 18.9024 4.24007
193 1 -1.1104 15.9994 4.31663 18.4235 3.88283
194 1 -1.1104 15.9994 6.98948 15.6986 1.20047
195 1 -1.1104 15.9994 9.73154 15.7045 1.35209
196 1 -1.1104 15.9994 7.01692 15.8972 3.87685
197 1 -1.1104 15.9994 9.6209 15.5505 3.97771
198 1 -1.1104 15.9994 6.68912 18.7095 1.26042
199 1 -1.1104 15.9994 9.65865 18.8185 1.04424
200 1 -1.1104 15.9994 6.99037 18.8252 3.99667
201 1 -1.1104 15.9994 9.76669 18.4209 4.1502
202 1 -1.1104 15.9994 12.6847 15.8818 1.40436
203 1 -1.1104 15.9994 12.6311 15.5615 4.24315
204 1 -1.1104 15.9994 12.6125 18.6678 1.13061
205 1 -1.1104 15.9994 12.715 18.5238 3.8509
206 1 -1.1104 15.9994 1.14352 21.5309 1.24206
207 1 -1.1104 15.9994 3.96393 21.4521 1.18571
208 1 -1.1104 15.9994 1.27762 21.4623 3.9083
209 1 -1.1104 15.9994 4.12475 21.196 3.96652
210 1 -1.1104 15.9994 6.8694 21.4318 0.970821
211 1 -1.1104 15.9994 9.50367 21.5351 1.44175
212 1 -1.1104 15.9994 6.99479 21.5396 4.05968
213 1 -1.1104 15.9994 9.76362 21.4754 4.29365
214 1 -1.1104 15.9994 12.9112 21.6874 1.08772
215 1 -1.1104 15.9994 12.4889 21.3509 4.08798
216 1 -1.1104 15.9994 1.05949 -1.08753 6.8543
217 1 -1.1104 15.9994 3.8203 -1.08469 6.80965
218 1 -1.1104 15.9994 1.01874 -1.10958 12.5193
219 1 -1.1104 15.9994 4.17102 -1.31834 9.38376
220 1 -1.1104 15.9994 1.11564 1.63615 6.82068
221 1 -1.1104 15.9994 4.0343 1.63617 6.89968
222 1 -1.1104 15.9994 1.26715 -1.0482 9.74237
223 1 -1.1104 15.9994 3.88065 1.78877 9.67056
224 1 -1.1104 15.9994 7.07594 -1.18869 6.70957
225 1 -1.1104 15.9994 10.0869 -1.26484 7.20358
226 1 -1.1104 15.9994 6.9593 -1.07011 9.58939
227 1 -1.1104 15.9994 9.85394 -1.00417 9.94867
228 1 -1.1104 15.9994 6.85835 1.7484 6.89406
229 1 -1.1104 15.9994 9.52285 1.7276 6.68731
230 1 -1.1104 15.9994 6.79337 1.6806 9.58639
231 1 -1.1104 15.9994 9.63717 1.97496 9.70284
232 1 -1.1104 15.9994 12.5914 -1.24882 6.88718
233 1 -1.1104 15.9994 12.9523 -1.20498 9.73836
234 1 -1.1104 15.9994 12.2354 1.80222 7.1377
235 1 -1.1104 15.9994 12.4697 1.70404 9.83835
236 1 -1.1104 15.9994 1.24579 4.59831 9.67022
237 1 -1.1104 15.9994 4.13634 4.3048 6.73431
238 1 -1.1104 15.9994 1.16915 1.84887 9.84617
239 1 -1.1104 15.9994 4.05827 4.52244 9.55291
240 1 -1.1104 15.9994 1.22082 4.2787 6.81221
241 1 -1.1104 15.9994 3.88434 7.44169 6.99793
242 1 -1.1104 15.9994 1.11587 7.27525 9.80266
243 1 -1.1104 15.9994 3.95992 6.98363 9.72761
244 1 -1.1104 15.9994 6.8698 4.58696 6.55104
245 1 -1.1104 15.9994 9.79043 4.55604 6.82114
246 1 -1.1104 15.9994 7.13304 4.61795 9.37139
247 1 -1.1104 15.9994 9.99568 4.82565 9.92716
248 1 -1.1104 15.9994 6.77787 7.33819 6.84394
249 1 -1.1104 15.9994 9.83054 7.33251 6.8195
250 1 -1.1104 15.9994 6.6586 7.41228 9.58446
251 1 -1.1104 15.9994 9.65008 7.52912 9.80496
252 1 -1.1104 15.9994 12.7995 4.60441 6.9169
253 1 -1.1104 15.9994 12.504 4.57757 9.49298
254 1 -1.1104 15.9994 12.7335 7.1456 6.68806
255 1 -1.1104 15.9994 12.7053 7.23816 9.44786
256 1 -1.1104 15.9994 1.37257 10.0334 7.07558
257 1 -1.1104 15.9994 4.23649 10.258 6.92335
258 1 -1.1104 15.9994 1.40678 9.91797 9.998
259 1 -1.1104 15.9994 4.29208 9.87913 9.76733
260 1 -1.1104 15.9994 1.0287 12.9546 7.1214
261 1 -1.1104 15.9994 3.86366 12.8761 6.88021
262 1 -1.1104 15.9994 1.42125 12.9605 9.95656
263 1 -1.1104 15.9994 4.097 12.8792 9.6251
264 1 -1.1104 15.9994 6.92463 10.3857 6.96798
265 1 -1.1104 15.9994 9.57593 10.3828 6.77725
266 1 -1.1104 15.9994 6.94245 10.1398 9.73153
267 1 -1.1104 15.9994 9.78449 10.116 9.75846
268 1 -1.1104 15.9994 6.76191 13.0589 7.15942
269 1 -1.1104 15.9994 9.51835 13.0641 6.84103
270 1 -1.1104 15.9994 6.85624 12.8694 9.77406
271 1 -1.1104 15.9994 9.60734 12.9999 9.53286
272 1 -1.1104 15.9994 12.5677 10.1117 6.88102
273 1 -1.1104 15.9994 12.5998 10.1175 9.65243
274 1 -1.1104 15.9994 12.6344 12.9714 6.64845
275 1 -1.1104 15.9994 12.3026 13.0185 9.453
276 1 -1.1104 15.9994 1.44637 15.9315 6.8014
277 1 -1.1104 15.9994 4.14184 15.5554 6.96812
278 1 -1.1104 15.9994 1.17314 15.9221 9.66841
279 1 -1.1104 15.9994 4.12613 15.8304 9.67663
280 1 -1.1104 15.9994 1.50733 18.7557 7.18499
281 1 -1.1104 15.9994 4.2443 18.747 7.04234
282 1 -1.1104 15.9994 1.63098 18.618 9.72567
283 1 -1.1104 15.9994 4.24019 18.4575 9.66017
284 1 -1.1104 15.9994 7.1074 15.7188 6.83135
285 1 -1.1104 15.9994 10.0513 15.8992 6.76252
286 1 -1.1104 15.9994 7.21478 15.8173 9.71785
287 1 -1.1104 15.9994 9.9129 15.9832 9.58207
288 1 -1.1104 15.9994 7.24144 18.5661 6.71704
289 1 -1.1104 15.9994 9.98296 18.8987 6.96433
290 1 -1.1104 15.9994 6.79181 18.5823 9.5559
291 1 -1.1104 15.9994 9.71747 18.9938 9.78708
292 1 -1.1104 15.9994 12.705 15.7654 6.93971
293 1 -1.1104 15.9994 12.7296 15.9656 9.59697
294 1 -1.1104 15.9994 12.8138 18.386 6.70922
295 1 -1.1104 15.9994 12.7222 18.8454 9.59066
296 1 -1.1104 15.9994 1.53053 21.5714 6.99916
297 1 -1.1104 15.9994 4.29151 21.5409 6.73073
298 1 -1.1104 15.9994 1.42987 21.4802 9.98815
299 1 -1.1104 15.9994 4.29333 21.4056 9.69248
300 1 -1.1104 15.9994 6.9681 21.4921 7.08059
301 1 -1.1104 15.9994 9.77819 21.5884 7.00097
302 1 -1.1104 15.9994 7.42364 21.4868 9.739
303 1 -1.1104 15.9994 10.1923 21.8509 9.73762
304 1 -1.1104 15.9994 12.5909 21.0242 6.84116
305 1 -1.1104 15.9994 12.8968 21.5793 9.66035
59 2 2.2208 232.038 10.9966 -2.59329 5.53868
307 1 -1.1104 15.9994 3.88463 -1.29036 12.5353
308 1 -1.1104 15.9994 1.27008 1.45394 12.719
309 1 -1.1104 15.9994 4.01451 1.65005 12.4575
310 1 -1.1104 15.9994 6.63934 -1.26694 12.6002
311 1 -1.1104 15.9994 9.61587 -1.31086 12.9345
312 1 -1.1104 15.9994 6.84764 1.79816 12.0136
313 1 -1.1104 15.9994 9.75054 1.50301 12.511
314 1 -1.1104 15.9994 12.3828 -0.904924 12.3873
315 1 -1.1104 15.9994 12.3223 1.93992 12.789
316 1 -1.1104 15.9994 1.46682 4.35399 12.5245
317 1 -1.1104 15.9994 4.21126 4.82905 12.4498
91 2 2.2208 232.038 0.0428453 20.1308 5.37286
105 2 2.2208 232.038 11.2184 -2.38642 11.0132
344 2 2.2208 232.038 5.44154 17.3623 13.8832
676 2 2.2208 232.038 8.21694 22.9204 -0.0944494
350 2 2.2208 232.038 11.234 23.0962 13.9993
8983 2 2.2208 232.038 0.0188212 8.74417 11.3811
335 2 2.2208 232.038 11.0241 6.06513 13.7877
339 2 2.2208 232.038 5.55046 11.459 13.9042
57 2 2.2208 232.038 8.35086 -2.49837 8.17703
9007 2 2.2208 232.038 -0.219392 0.222707 2.65783
348 2 2.2208 232.038 8.45324 20.0873 13.9069
8992 2 2.2208 232.038 13.9062 2.98718 2.64378
7 2 2.2208 232.038 8.37301 -2.54954 2.54364
84 2 2.2208 232.038 0.0258425 17.3795 8.52797
9031 2 2.2208 232.038 13.7925 0.110753 5.55744
81 2 2.2208 232.038 0.0608766 14.259 5.49003
333 2 2.2208 232.038 8.38656 3.06717 13.7842
3 2 2.2208 232.038 2.6444 -2.56911 2.75411
1 2 2.2208 232.038 13.8899 22.9156 5.42629
9086 2 2.2208 232.038 13.9559 5.93344 10.9016
326 2 2.2208 232.038 2.51494 -2.70827 13.8126
9004 2 2.2208 232.038 -0.070195 5.96166 2.68843
670 2 2.2208 232.038 5.53123 14.2042 0.0352905
669 2 2.2208 232.038 2.79879 16.9664 -0.0203306
329 2 2.2208 232.038 5.34208 0.393431 13.771
9904 1 -1.1104 15.9994 14.2926 23.213 7.98555
9690 2 2.2208 232.038 -0.148298 3.10688 -0.108504
9677 2 2.2208 232.038 13.9247 0.338011 -0.150704
25 2 2.2208 232.038 5.60549 8.65483 -0.0576294
407 2 2.2208 232.038 8.21953 -2.40433 25.2054
327 1 -1.1104 15.9994 6.8905 21.3118 26.5898
355 2 2.2208 232.038 5.42049 -2.69675 16.5658
444 2 2.2208 232.038 -0.210481 22.925 25.3098
349 2 2.2208 232.038 5.62063 22.9565 13.94
405 2 2.2208 232.038 5.4286 -2.68108 22.4889
332 1 -1.1104 15.9994 9.92547 21.7872 24.2885
9349 2 2.2208 232.038 13.9554 5.81899 16.9837
384 2 2.2208 232.038 0.16194 17.3275 19.7767
325 2 2.2208 232.038 5.36332 3.03561 27.9624
647 1 -1.1104 15.9994 4.12019 15.9452 23.7612
337 1 -1.1104 15.9994 4.51183 21.5252 24.2629
331 2 2.2208 232.038 2.40991 3.08366 14.0678
9675 2 2.2208 232.038 0.0184991 8.66599 22.661
663 2 2.2208 232.038 2.66227 5.97878 28.0103
26 2 2.2208 232.038 8.5103 11.46 28.1729
342 1 -1.1104 15.9994 3.80392 21.3843 26.9112
666 2 2.2208 232.038 2.53057 11.5753 27.8932
19 2 2.2208 232.038 11.0714 2.85922 28.1429
16 2 2.2208 232.038 8.19551 5.77672 27.9754
650 1 -1.1104 15.9994 1.63241 18.6452 24.0053
646 1 -1.1104 15.9994 1.24842 15.8345 24.0352
9314 2 2.2208 232.038 13.8482 -2.57306 14.1057
9339 2 2.2208 232.038 13.6657 0.220171 16.7959
649 1 -1.1104 15.9994 4.23172 15.8795 26.8822
351 1 -1.1104 15.9994 1.06885 21.5473 26.7661
352 2 2.2208 232.038 2.39644 0.292091 16.7273
336 2 2.2208 232.038 2.67445 8.67965 14.061
354 1 -1.1104 15.9994 4.09733 18.5855 23.9527
1281 1 -1.1104 15.9994 7.22461 21.6049 23.9507
356 2 2.2208 232.038 8.19021 0.498454 16.6686
652 1 -1.1104 15.9994 0.927122 18.2416 27.0282
358 2 2.2208 232.038 5.26673 0.142148 19.6416
9672 2 2.2208 232.038 -0.140451 0.189087 25.395
360 2 2.2208 232.038 11.0603 0.215338 19.6649
361 1 -1.1104 15.9994 1.1779 21.4034 23.9491
362 2 2.2208 232.038 2.6088 5.70032 16.9297
363 2 2.2208 232.038 2.53648 2.91433 19.8029
364 1 -1.1104 15.9994 12.5562 18.6611 26.4855
365 2 2.2208 232.038 5.28249 3.02784 16.7284
366 2 2.2208 232.038 8.26182 5.94198 16.7745
367 2 2.2208 232.038 8.24006 3.21837 19.4285
368 2 2.2208 232.038 5.57176 5.8964 19.5812
369 2 2.2208 232.038 10.9976 3.234 16.7044
370 2 2.2208 232.038 11.3281 5.78446 19.6181
371 1 -1.1104 15.9994 12.8088 18.6879 23.9375
372 2 2.2208 232.038 2.69712 11.4761 16.895
373 2 2.2208 232.038 2.57674 8.59451 19.5917
403 2 2.2208 232.038 2.8304 -2.51958 25.2818
375 2 2.2208 232.038 5.52411 8.66776 17.0358
376 2 2.2208 232.038 8.47037 11.3811 16.878
377 2 2.2208 232.038 8.37893 8.73475 19.85
378 2 2.2208 232.038 5.52496 11.5923 19.5226
379 2 2.2208 232.038 11.3115 8.73953 16.8565
380 2 2.2208 232.038 11.3838 11.3742 19.423
381 1 -1.1104 15.9994 12.7085 16.102 26.7867
382 2 2.2208 232.038 2.82335 17.2074 16.9429
383 2 2.2208 232.038 2.67415 14.3231 19.6155
656 1 -1.1104 15.9994 7.00424 15.5634 26.5579
385 2 2.2208 232.038 5.67981 14.3763 17.0318
386 2 2.2208 232.038 8.13169 17.3729 16.75
387 2 2.2208 232.038 8.49678 14.5082 19.742
388 2 2.2208 232.038 5.63037 17.2355 19.6289
389 2 2.2208 232.038 11.3779 14.3743 16.8081
390 2 2.2208 232.038 11.2793 17.2247 19.5889
391 1 -1.1104 15.9994 12.881 21.4632 26.5974
392 2 2.2208 232.038 2.86326 22.9681 16.5044
393 2 2.2208 232.038 2.94639 20.0134 19.7291
434 2 2.2208 232.038 -0.0296088 17.337 25.2953
395 2 2.2208 232.038 5.3827 20.2204 16.9225
396 2 2.2208 232.038 8.20534 22.9434 16.8212
397 2 2.2208 232.038 8.29939 20.0306 19.7456
398 2 2.2208 232.038 5.44222 22.909 19.6443
399 2 2.2208 232.038 11.2364 20.2026 16.913
400 2 2.2208 232.038 11.3147 22.9697 20.0071
401 1 -1.1104 15.9994 12.9347 15.7802 23.8429
402 2 2.2208 232.038 2.45114 0.226128 22.5232
655 1 -1.1104 15.9994 9.86646 15.8091 24.0169
404 1 -1.1104 15.9994 9.98975 15.7602 26.8414
9663 2 2.2208 232.038 -0.139114 11.387 14.2656
406 2 2.2208 232.038 8.13429 0.383202 22.1009
654 1 -1.1104 15.9994 6.70867 15.911 23.8432
408 2 2.2208 232.038 5.45068 0.342105 25.2307
648 1 -1.1104 15.9994 1.49667 15.5798 26.8516
410 2 2.2208 232.038 11.1988 0.20269 25.2615
411 1 -1.1104 15.9994 6.70459 18.5948 26.9203
412 2 2.2208 232.038 2.64802 5.66748 22.696
413 2 2.2208 232.038 2.5159 2.95949 25.207
414 1 -1.1104 15.9994 9.83488 18.7887 26.5579
415 2 2.2208 232.038 5.44513 3.08637 22.4207
416 2 2.2208 232.038 8.30159 5.89526 22.4535
417 2 2.2208 232.038 8.45699 3.0624 25.1235
418 2 2.2208 232.038 5.32075 5.76524 25.2773
419 2 2.2208 232.038 11.2231 2.98241 22.5605
420 2 2.2208 232.038 11.3995 5.8152 25.2881
421 1 -1.1104 15.9994 9.79389 18.7914 23.8394
422 2 2.2208 232.038 2.68085 11.5889 22.3673
423 2 2.2208 232.038 2.75486 8.73896 25.1835
424 1 -1.1104 15.9994 10.0095 12.9018 26.6385
425 2 2.2208 232.038 5.50018 8.80931 22.4058
426 2 2.2208 232.038 8.37321 11.6586 22.42
427 2 2.2208 232.038 8.44408 8.61682 25.256
428 2 2.2208 232.038 5.5584 11.5528 25.4109
429 2 2.2208 232.038 11.2833 8.76549 22.4853
430 2 2.2208 232.038 11.4149 11.4073 25.4587
394 2 2.2208 232.038 -0.0521592 22.9553 19.5588
432 2 2.2208 232.038 2.77933 17.3423 22.3617
433 2 2.2208 232.038 2.77678 14.5646 25.2261
645 1 -1.1104 15.9994 12.6696 13.0192 26.8103
435 2 2.2208 232.038 5.41571 14.4664 22.6404
436 2 2.2208 232.038 8.53168 17.2037 22.551
437 2 2.2208 232.038 8.51462 14.2404 25.3264
438 2 2.2208 232.038 5.33437 17.5017 25.3444
439 2 2.2208 232.038 11.2744 14.1969 22.5727
440 2 2.2208 232.038 11.1946 17.4684 25.0435
651 1 -1.1104 15.9994 6.75083 18.7571 24.1255
442 1 -1.1104 15.9994 12.6665 21.253 24.0302
443 2 2.2208 232.038 2.72635 20.3648 25.1686
653 1 -1.1104 15.9994 3.93586 18.6307 26.7302
445 2 2.2208 232.038 5.79319 20.4006 22.6601
446 2 2.2208 232.038 8.46707 23.2477 22.6653
447 2 2.2208 232.038 8.40578 19.9669 25.3965
448 2 2.2208 232.038 5.62577 23.1211 25.4283
449 2 2.2208 232.038 11.5495 20.2177 22.5104
450 2 2.2208 232.038 11.419 23.0574 25.676
451 1 -1.1104 15.9994 1.22035 -1.32969 15.1957
452 1 -1.1104 15.9994 4.00274 -1.4596 15.1824
453 1 -1.1104 15.9994 1.18278 1.7922 15.4072
454 1 -1.1104 15.9994 4.02965 1.61585 15.3218
455 1 -1.1104 15.9994 6.91398 -1.15541 15.4193
456 1 -1.1104 15.9994 9.53287 -1.24498 15.5664
457 1 -1.1104 15.9994 6.59985 1.92537 14.6652
458 1 -1.1104 15.9994 9.46145 1.58472 15.2556
459 1 -1.1104 15.9994 12.5359 -1.16634 15.2618
460 1 -1.1104 15.9994 12.2308 1.44188 15.5992
461 1 -1.1104 15.9994 1.13924 4.73378 15.6127
462 1 -1.1104 15.9994 3.9416 4.38142 15.3504
463 1 -1.1104 15.9994 1.3993 7.32553 15.6478
464 1 -1.1104 15.9994 4.20264 7.26894 15.4679
465 1 -1.1104 15.9994 6.83886 4.48445 15.4596
466 1 -1.1104 15.9994 9.60491 4.30198 15.0935
467 1 -1.1104 15.9994 6.83993 7.49631 15.4808
468 1 -1.1104 15.9994 9.52002 7.39282 15.3008
469 1 -1.1104 15.9994 12.482 4.49215 15.523
470 1 -1.1104 15.9994 12.493 7.37487 15.2567
471 1 -1.1104 15.9994 1.36838 10.2328 15.6498
472 1 -1.1104 15.9994 4.26351 9.94902 15.3425
473 1 -1.1104 15.9994 1.14406 12.7264 15.6532
474 1 -1.1104 15.9994 4.36828 12.9905 15.4591
475 1 -1.1104 15.9994 6.78231 10.0509 15.3851
476 1 -1.1104 15.9994 9.77695 10.1228 15.3889
477 1 -1.1104 15.9994 7.05221 13.0322 15.4561
478 1 -1.1104 15.9994 9.8397 13.1139 15.2544
479 1 -1.1104 15.9994 12.71 10.3303 15.4136
480 1 -1.1104 15.9994 12.6162 13.1405 15.1776
481 1 -1.1104 15.9994 1.49378 15.434 15.6399
482 1 -1.1104 15.9994 4.37076 15.9115 15.5312
483 1 -1.1104 15.9994 1.57123 18.2963 15.3767
484 1 -1.1104 15.9994 4.08962 18.6456 15.4363
485 1 -1.1104 15.9994 7.13784 16.0205 15.2406
486 1 -1.1104 15.9994 9.76742 15.7064 15.5178
487 1 -1.1104 15.9994 6.82472 18.8837 15.325
488 1 -1.1104 15.9994 9.63169 18.5798 15.409
489 1 -1.1104 15.9994 12.6143 16.1389 15.4328
490 1 -1.1104 15.9994 12.4684 19.0436 15.4747
491 1 -1.1104 15.9994 1.52786 21.4657 15.6646
492 1 -1.1104 15.9994 4.2242 21.6346 15.3754
493 1 -1.1104 15.9994 6.91241 21.6691 15.388
494 1 -1.1104 15.9994 9.45389 21.4842 15.6051
495 1 -1.1104 15.9994 12.5281 21.6071 15.3845
496 1 -1.1104 15.9994 1.11703 -1.29171 18.1293
497 1 -1.1104 15.9994 3.82409 -1.50942 18.1075
498 1 -1.1104 15.9994 1.0615 -1.38075 21.2976
499 1 -1.1104 15.9994 3.83614 -1.07014 20.9939
500 1 -1.1104 15.9994 1.28997 1.44151 18.2837
501 1 -1.1104 15.9994 4.03602 1.47245 18.3116
502 1 -1.1104 15.9994 1.15131 1.47623 21.1864
503 1 -1.1104 15.9994 3.93725 1.6294 21.2591
504 1 -1.1104 15.9994 6.6801 -1.24557 18.3051
505 1 -1.1104 15.9994 9.79018 -1.04815 18.4295
506 1 -1.1104 15.9994 6.80058 -1.11798 20.9645
507 1 -1.1104 15.9994 9.77724 -1.05113 21.2878
508 1 -1.1104 15.9994 6.80652 1.62769 17.946
509 1 -1.1104 15.9994 9.63909 1.79715 17.8495
510 1 -1.1104 15.9994 6.94877 1.67179 20.6417
511 1 -1.1104 15.9994 9.79474 1.82014 20.8431
512 1 -1.1104 15.9994 12.5341 -1.2443 18.0997
513 1 -1.1104 15.9994 12.4882 -1.17941 20.9794
514 1 -1.1104 15.9994 12.1591 1.70592 18.5125
515 1 -1.1104 15.9994 12.727 1.42037 21.2709
516 1 -1.1104 15.9994 1.32531 4.33617 18.4511
517 1 -1.1104 15.9994 3.99541 4.16992 17.992
518 1 -1.1104 15.9994 1.37739 4.30521 21.0691
519 1 -1.1104 15.9994 4.02887 4.40045 21.2008
520 1 -1.1104 15.9994 1.31155 7.01431 18.4153
521 1 -1.1104 15.9994 4.17904 7.23165 18.2338
522 1 -1.1104 15.9994 1.14737 7.25926 21.1791
523 1 -1.1104 15.9994 4.44059 7.28164 21.0923
524 1 -1.1104 15.9994 6.82474 4.51084 18.154
525 1 -1.1104 15.9994 9.80361 4.50329 18.427
526 1 -1.1104 15.9994 6.83024 4.39717 21.0554
527 1 -1.1104 15.9994 9.69355 4.64597 21.1421
528 1 -1.1104 15.9994 7.02271 7.34832 18.5189
529 1 -1.1104 15.9994 9.65892 7.2282 18.0726
530 1 -1.1104 15.9994 7.06068 7.40788 21.3383
531 1 -1.1104 15.9994 9.92747 7.32114 21.04
532 1 -1.1104 15.9994 12.4613 4.4465 18.1998
533 1 -1.1104 15.9994 12.772 4.19166 21.0035
534 1 -1.1104 15.9994 12.4788 7.22938 18.1726
535 1 -1.1104 15.9994 12.7329 7.24649 20.8497
536 1 -1.1104 15.9994 1.293 9.89449 18.0588
537 1 -1.1104 15.9994 4.10138 9.93473 18.193
538 1 -1.1104 15.9994 1.21345 10.0913 20.8336
539 1 -1.1104 15.9994 4.08825 10.2628 20.8838
540 1 -1.1104 15.9994 1.52543 12.6907 18.3964
541 1 -1.1104 15.9994 4.04381 13.2661 18.0303
542 1 -1.1104 15.9994 1.31477 13.0691 21.1979
543 1 -1.1104 15.9994 4.19715 12.6711 20.9579
544 1 -1.1104 15.9994 6.87682 10.2769 18.2353
545 1 -1.1104 15.9994 9.81267 10.0722 18.351
546 1 -1.1104 15.9994 6.83999 10.2424 20.9942
547 1 -1.1104 15.9994 9.75268 10.1745 20.8342
548 1 -1.1104 15.9994 6.92656 12.9993 18.4912
549 1 -1.1104 15.9994 9.74761 12.7444 18.2578
550 1 -1.1104 15.9994 7.06743 13.2554 21.1149
551 1 -1.1104 15.9994 9.98052 12.8214 21.2031
552 1 -1.1104 15.9994 12.5944 9.97983 18.2519
553 1 -1.1104 15.9994 12.7008 10.0059 20.9782
554 1 -1.1104 15.9994 12.8144 12.736 18.029
555 1 -1.1104 15.9994 12.7422 13.0212 21.0678
556 1 -1.1104 15.9994 1.36516 15.9895 18.4643
557 1 -1.1104 15.9994 4.33642 16.0123 18.3352
558 1 -1.1104 15.9994 1.59843 15.6465 21.1392
559 1 -1.1104 15.9994 4.37609 15.5806 20.8317
560 1 -1.1104 15.9994 1.27156 18.8615 18.4789
561 1 -1.1104 15.9994 3.94741 18.6139 18.1687
562 1 -1.1104 15.9994 1.09362 18.5327 21.3158
563 1 -1.1104 15.9994 4.20829 18.6359 21.0669
564 1 -1.1104 15.9994 7.00068 15.8709 18.3143
565 1 -1.1104 15.9994 9.85478 15.6735 18.3113
566 1 -1.1104 15.9994 7.18918 16.1885 21.0185
567 1 -1.1104 15.9994 10.0738 15.7281 21.1195
568 1 -1.1104 15.9994 6.76883 18.7091 18.1948
569 1 -1.1104 15.9994 9.77005 18.34 18.1419
570 1 -1.1104 15.9994 7.07259 18.8896 21.3339
571 1 -1.1104 15.9994 9.83188 18.5742 20.9987
572 1 -1.1104 15.9994 12.5939 15.6935 18.2466
573 1 -1.1104 15.9994 12.7663 15.9059 21.1725
574 1 -1.1104 15.9994 12.8975 18.7177 18.1104
575 1 -1.1104 15.9994 12.7888 18.772 21.0894
576 1 -1.1104 15.9994 1.30099 21.3824 20.4625
577 1 -1.1104 15.9994 3.96345 21.646 18.0972
644 1 -1.1104 15.9994 12.5823 12.8736 23.8655
579 1 -1.1104 15.9994 4.35519 21.5548 21.0144
580 1 -1.1104 15.9994 6.81224 21.5907 18.168
581 1 -1.1104 15.9994 10.1181 21.1783 18.6877
582 1 -1.1104 15.9994 7.06404 21.9611 21.3358
583 1 -1.1104 15.9994 9.86845 21.6443 21.4936
584 1 -1.1104 15.9994 12.955 21.5282 18.2454
585 1 -1.1104 15.9994 12.6526 21.6244 21.1396
586 1 -1.1104 15.9994 1.38815 -1.14305 24.0571
587 1 -1.1104 15.9994 4.15524 -1.36545 23.8915
588 1 -1.1104 15.9994 1.05505 -1.32196 26.9228
589 1 -1.1104 15.9994 4.03532 -1.12142 26.7443
590 1 -1.1104 15.9994 1.13387 1.60653 23.9049
591 1 -1.1104 15.9994 3.97731 1.42447 23.8766
592 1 -1.1104 15.9994 1.0746 1.419 26.8413
593 1 -1.1104 15.9994 4.17942 1.48211 26.8097
594 1 -1.1104 15.9994 7.09527 -1.1079 23.7746
595 1 -1.1104 15.9994 9.94767 -1.3437 24.1872
596 1 -1.1104 15.9994 6.76565 -0.943082 26.7453
597 1 -1.1104 15.9994 9.76121 -1.24641 26.959
598 1 -1.1104 15.9994 7.14684 1.69847 23.551
599 1 -1.1104 15.9994 10.1081 1.29662 23.6946
600 1 -1.1104 15.9994 6.9753 1.66813 26.375
601 1 -1.1104 15.9994 9.88526 1.73664 26.5353
602 1 -1.1104 15.9994 12.6052 -1.32202 23.9765
603 1 -1.1104 15.9994 12.4869 -1.14865 27.0496
604 1 -1.1104 15.9994 12.8241 1.64886 23.8663
605 1 -1.1104 15.9994 12.8771 1.71728 26.6543
606 1 -1.1104 15.9994 1.01529 4.32311 24.0522
607 1 -1.1104 15.9994 3.86615 4.14874 23.9237
608 1 -1.1104 15.9994 1.47791 4.17272 26.8641
609 1 -1.1104 15.9994 3.92682 4.57889 26.4228
610 1 -1.1104 15.9994 1.53231 6.88512 24.0391
611 1 -1.1104 15.9994 4.16176 7.16765 23.7089
612 1 -1.1104 15.9994 1.13981 7.12733 26.7108
613 1 -1.1104 15.9994 3.87844 7.45623 26.6144
614 1 -1.1104 15.9994 6.73077 4.6428 23.8396
615 1 -1.1104 15.9994 9.66325 4.37323 23.6858
616 1 -1.1104 15.9994 6.92574 4.17337 26.6088
617 1 -1.1104 15.9994 9.85508 4.36717 26.6154
618 1 -1.1104 15.9994 6.94762 7.47811 24.0891
619 1 -1.1104 15.9994 9.95945 7.43826 23.8545
620 1 -1.1104 15.9994 6.65502 6.81277 26.8332
621 1 -1.1104 15.9994 10.0762 7.28216 26.7391
622 1 -1.1104 15.9994 12.4872 4.5284 23.752
623 1 -1.1104 15.9994 12.8412 4.54382 26.7814
624 1 -1.1104 15.9994 12.7896 7.25188 23.577
625 1 -1.1104 15.9994 12.7891 7.53568 26.6855
626 1 -1.1104 15.9994 1.0672 10.0057 23.9772
627 1 -1.1104 15.9994 4.14422 10.061 23.7781
628 1 -1.1104 15.9994 1.23745 9.89636 26.5966
629 1 -1.1104 15.9994 4.16221 10.0073 26.8026
630 1 -1.1104 15.9994 1.27724 13.2299 23.7944
631 1 -1.1104 15.9994 4.00844 12.8939 23.9018