ITEM: TIMESTEP
310000
ITEM: NUMBER OF ATOMS
18000
ITEM: BOX BOUNDS xy xz yz pp pp pp
-2.2526500772539987e-01 2.8119265007723588e+01 0.0000000000000000e+00
-2.7145098668275782e+00 3.3744250986679180e+02 0.0000000000000000e+00
-2.2382579269322581e-01 2.8117825792692344e+01 0.0000000000000000e+00
ITEM: ATOMS id type q mass x y z
336 2 2.2208 232.038 2.4352 8.5552 13.7968
324 1 -1.1104 15.9994 12.3202 4.17006 12.4207
9032 2 2.2208 232.038 13.6915 -2.66658 8.32769
4 1 -1.1104 15.9994 12.6272 21.4214 12.505
323 1 -1.1104 15.9994 9.59269 7.39862 12.7124
322 1 -1.1104 15.9994 6.77031 7.11578 12.2969
344 2 2.2208 232.038 5.17653 17.1185 13.8333
8 2 2.2208 232.038 5.36683 -0.126661 2.42765
9 1 -1.1104 15.9994 12.3694 7.01401 12.3983
10 2 2.2208 232.038 10.9866 0.127414 2.50344
11 1 -1.1104 15.9994 9.85108 21.384 12.2908
321 1 -1.1104 15.9994 9.42301 4.43388 12.5512
13 2 2.2208 232.038 2.38458 2.80496 2.70716
14 1 -1.1104 15.9994 6.86544 21.3165 12.3688
9052 2 2.2208 232.038 13.7625 8.63273 8.19403
57 2 2.2208 232.038 8.11376 -2.62781 8.32441
17 2 2.2208 232.038 8.15983 2.92961 2.80326
18 2 2.2208 232.038 5.35484 5.67237 2.71201
1 2 2.2208 232.038 13.9998 22.6115 5.51313
20 2 2.2208 232.038 10.9795 5.77412 2.49326
21 1 -1.1104 15.9994 3.91936 21.3465 12.2983
22 1 -1.1104 15.9994 1.20205 15.5563 12.5232
23 2 2.2208 232.038 2.59764 8.59653 2.786
320 1 -1.1104 15.9994 6.65524 4.4209 12.791
661 2 2.2208 232.038 8.26532 0.0907596 -0.0802885
9031 2 2.2208 232.038 13.8704 0.135285 5.60643
27 2 2.2208 232.038 8.09371 8.62986 2.67426
28 2 2.2208 232.038 5.30475 11.295 2.64123
16 2 2.2208 232.038 8.04798 5.98374 -0.0953818
30 2 2.2208 232.038 10.9837 11.5808 2.44984
31 1 -1.1104 15.9994 12.2214 12.8614 12.2243
32 1 -1.1104 15.9994 12.4338 9.81763 12.7201
33 2 2.2208 232.038 2.69 14.1573 2.69676
8981 2 2.2208 232.038 -0.17797 14.1172 10.8861
35 1 -1.1104 15.9994 9.42506 12.7457 12.509
36 1 -1.1104 15.9994 6.73105 12.7184 12.498
37 2 2.2208 232.038 8.19917 14.1637 2.33391
38 2 2.2208 232.038 5.27747 17.0736 2.68847
39 1 -1.1104 15.9994 9.57601 10.0395 12.5451
40 2 2.2208 232.038 11.1796 16.9133 2.4918
41 1 -1.1104 15.9994 6.67715 9.93641 12.5174
42 1 -1.1104 15.9994 3.80085 12.8244 12.4561
43 2 2.2208 232.038 2.38889 19.927 2.5007
319 1 -1.1104 15.9994 4.12074 6.97981 12.3577
45 1 -1.1104 15.9994 1.05534 12.8178 12.1418
46 1 -1.1104 15.9994 3.92414 10.0514 12.4918
47 2 2.2208 232.038 8.25804 19.8037 2.6679
48 2 2.2208 232.038 5.37451 22.7959 2.40565
49 1 -1.1104 15.9994 1.02874 9.96895 12.3384
50 2 2.2208 232.038 10.9032 22.8115 2.38094
51 1 -1.1104 15.9994 1.00488 21.1706 12.0159
52 2 2.2208 232.038 2.60126 -0.238948 5.52426
9041 2 2.2208 232.038 13.7414 5.88391 5.34853
54 1 -1.1104 15.9994 12.3228 18.3897 12.3837
84 2 2.2208 232.038 -0.221407 16.9622 8.36955
56 2 2.2208 232.038 8.32806 0.13395 5.52096
12 2 2.2208 232.038 13.7586 19.7417 2.43546
58 2 2.2208 232.038 5.24605 -0.103544 8.43135
34 2 2.2208 232.038 -0.0817341 17.1742 2.43885
60 2 2.2208 232.038 10.9168 0.108145 8.20209
61 1 -1.1104 15.9994 12.5161 15.6782 12.3107
62 2 2.2208 232.038 2.70169 5.49331 5.48383
63 2 2.2208 232.038 2.54425 2.85723 8.27722
64 1 -1.1104 15.9994 9.16729 18.5624 12.6477
65 2 2.2208 232.038 5.38173 2.5109 5.47269
66 2 2.2208 232.038 8.22824 5.6741 5.52344
67 2 2.2208 232.038 8.29658 2.98103 8.45994
68 2 2.2208 232.038 5.40925 5.59313 8.25761
69 2 2.2208 232.038 11.1266 3.06998 5.42958
70 2 2.2208 232.038 10.8184 6.00898 8.26847
71 1 -1.1104 15.9994 6.54809 18.4772 12.2689
72 2 2.2208 232.038 2.3541 11.4152 5.45176
73 2 2.2208 232.038 2.67189 8.50419 8.0845
74 1 -1.1104 15.9994 9.42898 15.8387 12.4123
75 2 2.2208 232.038 5.38971 8.42429 5.49071
76 2 2.2208 232.038 8.15364 11.6115 5.4407
77 2 2.2208 232.038 8.06947 8.57347 8.31698
78 2 2.2208 232.038 5.43759 11.4894 8.19569
79 2 2.2208 232.038 10.9339 8.6025 5.46545
80 2 2.2208 232.038 11.0399 11.7125 8.0573
318 1 -1.1104 15.9994 1.26121 6.90442 12.6339
82 2 2.2208 232.038 2.38325 17.072 5.33779
83 2 2.2208 232.038 2.56488 14.3556 8.2132
6 2 2.2208 232.038 13.884 17.051 5.22166
85 2 2.2208 232.038 5.38369 14.3085 5.38861
86 2 2.2208 232.038 8.01488 17.1509 5.47042
87 2 2.2208 232.038 8.16282 14.199 8.19125
88 2 2.2208 232.038 5.28206 17.2294 8.16107
89 2 2.2208 232.038 11.1209 14.2249 5.22626
90 2 2.2208 232.038 10.986 17.1227 8.08822
2 2 2.2208 232.038 13.6698 19.8718 8.07602
92 2 2.2208 232.038 2.45139 22.7117 5.29291
93 2 2.2208 232.038 2.46711 19.991 7.98089
8994 2 2.2208 232.038 -0.138015 5.57064 8.23627
95 2 2.2208 232.038 5.21172 19.9566 5.18331
96 2 2.2208 232.038 7.99149 22.8261 5.51321
97 2 2.2208 232.038 8.22334 19.9057 8.20567
98 2 2.2208 232.038 5.19205 22.7352 8.21093
99 2 2.2208 232.038 11.0151 19.7914 5.17201
100 2 2.2208 232.038 11.0758 22.6369 8.16868
101 1 -1.1104 15.9994 6.66138 15.7626 12.4448
102 2 2.2208 232.038 2.43546 0.098859 11.2257
341 2 2.2208 232.038 2.50055 14.3288 13.9546
104 2 2.2208 232.038 8.09284 0.114716 11.1868
9161 1 -1.1104 15.9994 1.134 10.0998 4.08636
106 1 -1.1104 15.9994 3.83042 18.711 12.1847
107 2 2.2208 232.038 2.6237 5.69071 11.1899
108 2 2.2208 232.038 5.42862 2.9555 11.1422
109 2 2.2208 232.038 8.07235 5.83832 11.227
110 2 2.2208 232.038 11.0133 2.96438 11.0439
111 1 -1.1104 15.9994 0.874423 18.2412 12.2293
112 2 2.2208 232.038 2.60903 11.5897 10.7931
113 2 2.2208 232.038 5.1388 8.45459 10.8862
114 2 2.2208 232.038 7.9455 11.3898 11.0352
115 2 2.2208 232.038 10.9351 8.67534 11.1439
116 1 -1.1104 15.9994 3.8483 15.6294 12.5481
117 2 2.2208 232.038 2.46293 17.0567 11.1193
118 2 2.2208 232.038 5.2733 14.2746 11.0108
119 2 2.2208 232.038 8.14691 17.199 11.034
120 2 2.2208 232.038 10.998 14.2628 11.0177
3 2 2.2208 232.038 2.50108 -2.71408 2.62183
122 2 2.2208 232.038 2.4317 22.5852 11.1647
123 2 2.2208 232.038 5.4562 20.0402 10.9908
124 2 2.2208 232.038 8.16636 22.6131 10.988
125 2 2.2208 232.038 11.1031 19.9961 11.1667
126 1 -1.1104 15.9994 1.12494 -1.01467 1.28617
127 1 -1.1104 15.9994 4.04538 -1.29424 0.899008
128 1 -1.1104 15.9994 1.28759 -1.63841 4.18383
129 1 -1.1104 15.9994 4.07934 -1.43037 3.79919
130 1 -1.1104 15.9994 1.11581 1.68185 1.14646
131 1 -1.1104 15.9994 3.74606 1.26197 1.17408
132 1 -1.1104 15.9994 1.03498 1.15966 4.32763
133 1 -1.1104 15.9994 3.92471 1.23026 4.22874
134 1 -1.1104 15.9994 6.67797 -1.52169 1.31774
135 1 -1.1104 15.9994 9.5753 -1.43736 1.29091
136 1 -1.1104 15.9994 6.88543 -1.48587 4.17133
137 1 -1.1104 15.9994 9.5641 -1.34921 4.13701
138 1 -1.1104 15.9994 6.70394 1.34522 1.27264
139 1 -1.1104 15.9994 9.60751 1.5359 1.25328
140 1 -1.1104 15.9994 6.75071 1.23653 4.03863
141 1 -1.1104 15.9994 9.5623 1.51211 4.0968
142 1 -1.1104 15.9994 12.398 -1.63518 1.40296
143 1 -1.1104 15.9994 12.2507 -1.31429 4.08191
144 1 -1.1104 15.9994 12.555 1.56892 1.15122
145 1 -1.1104 15.9994 12.3662 1.74121 3.81818
146 1 -1.1104 15.9994 0.902117 4.08218 1.18676
147 1 -1.1104 15.9994 3.82319 4.02125 0.976481
148 1 -1.1104 15.9994 1.08363 4.05199 4.071
149 1 -1.1104 15.9994 3.85601 4.12738 3.84015
150 1 -1.1104 15.9994 0.807716 6.89003 1.05932
151 1 -1.1104 15.9994 3.69558 6.99835 1.55875
152 1 -1.1104 15.9994 0.986545 7.16373 6.7989
153 1 -1.1104 15.9994 4.13808 6.94946 4.21566
154 1 -1.1104 15.9994 6.60917 4.51129 1.16454
155 1 -1.1104 15.9994 9.63476 4.18148 1.32737
156 1 -1.1104 15.9994 6.64624 4.16068 4.07963
157 1 -1.1104 15.9994 9.6631 4.36354 4.05309
158 1 -1.1104 15.9994 6.64295 7.2057 1.23402
159 1 -1.1104 15.9994 9.48203 7.22816 1.24056
160 1 -1.1104 15.9994 7.01638 7.21078 4.2398
161 1 -1.1104 15.9994 9.55111 7.18284 4.36466
162 1 -1.1104 15.9994 12.2804 4.32359 1.11463
163 1 -1.1104 15.9994 12.4612 4.49562 3.95691
164 1 -1.1104 15.9994 12.296 7.22838 1.08642
165 1 -1.1104 15.9994 12.1525 7.27712 3.76874
166 1 -1.1104 15.9994 1.0849 10.1485 1.35865
167 1 -1.1104 15.9994 4.13618 9.73942 1.19007
168 1 -1.1104 15.9994 1.00393 7.16731 4.10342
169 1 -1.1104 15.9994 4.07612 9.6836 4.02913
170 1 -1.1104 15.9994 1.134 12.9 1.20972
171 1 -1.1104 15.9994 4.06847 12.606 1.40324
172 1 -1.1104 15.9994 0.93658 12.9105 4.08709
173 1 -1.1104 15.9994 3.96586 12.5496 4.13922
174 1 -1.1104 15.9994 6.77871 9.77374 1.04288
175 1 -1.1104 15.9994 9.56873 9.93997 1.08349
176 1 -1.1104 15.9994 6.7969 10.2878 4.07412
177 1 -1.1104 15.9994 9.25809 10.1903 3.74098
178 1 -1.1104 15.9994 6.87349 12.7274 1.05275
179 1 -1.1104 15.9994 12.3735 12.8312 1.0487
180 1 -1.1104 15.9994 6.75742 13.058 4.06919
181 1 -1.1104 15.9994 9.66248 12.6314 3.93039
182 1 -1.1104 15.9994 12.3097 10.0404 1.11742
183 1 -1.1104 15.9994 12.4678 9.89796 3.98061
677 1 -1.1104 15.9994 9.59974 12.8505 0.905297
185 1 -1.1104 15.9994 12.5214 12.8334 3.70035
186 1 -1.1104 15.9994 1.15626 15.6535 1.08805
187 1 -1.1104 15.9994 4.19342 15.3042 1.50076
188 1 -1.1104 15.9994 1.12218 15.5497 4.11663
189 1 -1.1104 15.9994 3.8444 15.6772 4.05346
190 1 -1.1104 15.9994 1.0608 18.5795 1.0986
191 1 -1.1104 15.9994 3.97404 18.0145 1.08543
192 1 -1.1104 15.9994 1.21298 18.4613 3.89595
193 1 -1.1104 15.9994 3.90038 18.5127 3.83302
194 1 -1.1104 15.9994 6.97807 15.52 1.08972
195 1 -1.1104 15.9994 9.8379 15.8385 0.881934
196 1 -1.1104 15.9994 6.54559 15.8752 4.11221
197 1 -1.1104 15.9994 9.61476 15.6189 3.81078
198 1 -1.1104 15.9994 6.85269 18.4872 1.23032
199 1 -1.1104 15.9994 9.9276 18.4379 0.908935
200 1 -1.1104 15.9994 6.86834 18.6291 3.95326
201 1 -1.1104 15.9994 9.84456 18.5138 3.69198
202 1 -1.1104 15.9994 12.4368 15.7487 1.06112
203 1 -1.1104 15.9994 12.536 15.5822 3.84737
204 1 -1.1104 15.9994 12.4037 18.4491 1.11261
205 1 -1.1104 15.9994 12.5976 18.4529 4.07643
206 1 -1.1104 15.9994 0.87548 21.2956 1.18895
207 1 -1.1104 15.9994 3.8342 21.0914 1.07356
208 1 -1.1104 15.9994 1.28795 21.4462 3.84249
209 1 -1.1104 15.9994 3.94495 21.4486 3.90922
210 1 -1.1104 15.9994 6.70197 21.3442 1.07497
211 1 -1.1104 15.9994 9.43269 21.2997 1.12263
212 1 -1.1104 15.9994 6.6289 21.3939 3.81664
213 1 -1.1104 15.9994 9.3505 21.4809 4.02211
214 1 -1.1104 15.9994 12.2676 21.2518 1.12938
215 1 -1.1104 15.9994 12.4234 21.0665 3.8807
216 1 -1.1104 15.9994 1.01993 -1.48653 7.32758
217 1 -1.1104 15.9994 3.8796 -1.5128 6.98424
218 1 -1.1104 15.9994 1.02057 -1.3992 12.5176
219 1 -1.1104 15.9994 3.8609 -1.44834 9.72832
220 1 -1.1104 15.9994 1.15637 1.43239 6.99058
221 1 -1.1104 15.9994 3.89332 1.31897 6.91204
222 1 -1.1104 15.9994 0.949126 -1.18415 9.96018
223 1 -1.1104 15.9994 3.7364 1.26875 9.69371
224 1 -1.1104 15.9994 6.522 -1.39101 6.97465
225 1 -1.1104 15.9994 9.49878 -1.31905 6.66369
226 1 -1.1104 15.9994 6.80774 -1.39524 9.72006
227 1 -1.1104 15.9994 9.57007 -1.19909 9.93139
228 1 -1.1104 15.9994 6.94877 1.35967 6.84077
229 1 -1.1104 15.9994 9.84389 1.68259 6.85122
230 1 -1.1104 15.9994 6.66905 1.48784 9.69669
231 1 -1.1104 15.9994 9.71566 1.5708 9.5327
232 1 -1.1104 15.9994 12.3278 -1.19349 6.66856
233 1 -1.1104 15.9994 12.458 -1.33001 9.63424
234 1 -1.1104 15.9994 12.5272 1.74732 6.85278
235 1 -1.1104 15.9994 12.494 1.52926 9.8309
236 1 -1.1104 15.9994 1.23077 4.34257 9.81339
237 1 -1.1104 15.9994 4.11564 4.01029 6.78616
238 1 -1.1104 15.9994 1.17659 1.58764 10.0585
239 1 -1.1104 15.9994 4.06171 3.92675 9.52944
240 1 -1.1104 15.9994 1.33805 4.24771 6.75677
241 1 -1.1104 15.9994 3.93423 6.8192 6.85366
242 1 -1.1104 15.9994 1.36016 7.01395 9.64894
243 1 -1.1104 15.9994 4.02748 7.08498 9.6112
244 1 -1.1104 15.9994 6.90347 4.1253 6.98509
245 1 -1.1104 15.9994 9.87247 4.42856 6.98984
246 1 -1.1104 15.9994 6.76941 4.1615 9.90457
247 1 -1.1104 15.9994 9.75745 4.66999 9.74073
248 1 -1.1104 15.9994 6.87737 7.091 7.03476
249 1 -1.1104 15.9994 9.63242 7.51602 7.01339
250 1 -1.1104 15.9994 6.95452 7.0948 9.48567
251 1 -1.1104 15.9994 9.59847 7.31344 9.81284
252 1 -1.1104 15.9994 12.4478 4.35453 6.89039
253 1 -1.1104 15.9994 12.5453 4.60033 9.75862
254 1 -1.1104 15.9994 12.4125 7.23872 6.70676
255 1 -1.1104 15.9994 12.4594 7.61135 9.83488
256 1 -1.1104 15.9994 1.25007 9.80262 6.90889
257 1 -1.1104 15.9994 4.0788 9.85066 6.82314
258 1 -1.1104 15.9994 1.10933 9.91057 9.72656
259 1 -1.1104 15.9994 3.77061 10.017 9.49054
260 1 -1.1104 15.9994 1.17608 12.6554 6.79889
261 1 -1.1104 15.9994 4.06802 13.0283 6.8181
262 1 -1.1104 15.9994 1.13336 12.776 9.49752
263 1 -1.1104 15.9994 4.00143 12.9064 9.62795
264 1 -1.1104 15.9994 6.91911 10.0924 6.88555
265 1 -1.1104 15.9994 9.78499 10.1751 6.39795
266 1 -1.1104 15.9994 6.55729 9.77009 9.62679
267 1 -1.1104 15.9994 9.2977 9.98728 9.68021
268 1 -1.1104 15.9994 6.86358 12.7855 6.99668
269 1 -1.1104 15.9994 9.6042 13.2543 6.69674
270 1 -1.1104 15.9994 6.59555 12.7927 9.77315
271 1 -1.1104 15.9994 9.37436 12.8705 9.51734
272 1 -1.1104 15.9994 12.291 10.146 6.89658
273 1 -1.1104 15.9994 12.2332 10.2949 9.6666
274 1 -1.1104 15.9994 12.4774 12.9892 6.54194
275 1 -1.1104 15.9994 12.2616 13.1443 9.37228
276 1 -1.1104 15.9994 1.01025 15.5093 6.94724
277 1 -1.1104 15.9994 3.72801 15.949 6.88522
278 1 -1.1104 15.9994 1.19331 15.5002 9.64688
279 1 -1.1104 15.9994 3.95089 15.6187 9.62661
280 1 -1.1104 15.9994 0.886206 18.1916 6.67072
281 1 -1.1104 15.9994 3.82289 18.619 6.33082
282 1 -1.1104 15.9994 1.07993 18.4518 9.42278
283 1 -1.1104 15.9994 3.77973 18.5417 9.33437
284 1 -1.1104 15.9994 6.73719 15.7881 6.7707
285 1 -1.1104 15.9994 9.57565 16.1605 6.71041
286 1 -1.1104 15.9994 6.61369 15.5276 9.40405
287 1 -1.1104 15.9994 9.56686 15.6909 9.43637
288 1 -1.1104 15.9994 6.64296 18.5879 6.95618
289 1 -1.1104 15.9994 9.42166 18.6524 6.61586
290 1 -1.1104 15.9994 6.94317 18.6255 9.70451
291 1 -1.1104 15.9994 9.64708 18.5429 9.5723
292 1 -1.1104 15.9994 12.3558 15.6048 6.63233
293 1 -1.1104 15.9994 12.4034 15.7829 9.52791
294 1 -1.1104 15.9994 12.3379 18.3323 6.5335
295 1 -1.1104 15.9994 12.306 18.4362 9.59996
296 1 -1.1104 15.9994 1.09996 21.1284 6.46621
297 1 -1.1104 15.9994 3.81212 21.2192 6.65626
298 1 -1.1104 15.9994 0.85622 21.2588 9.37963
299 1 -1.1104 15.9994 3.90819 21.4423 9.59492
300 1 -1.1104 15.9994 6.72915 21.5049 6.74409
301 1 -1.1104 15.9994 9.72114 21.4997 6.73907
302 1 -1.1104 15.9994 6.80158 21.1394 9.57145
303 1 -1.1104 15.9994 9.61955 21.5424 9.47541
304 1 -1.1104 15.9994 12.5458 21.3385 6.58304
305 1 -1.1104 15.9994 12.3294 21.1913 9.46146
9904 1 -1.1104 15.9994 13.8509 23.1753 8.43594
307 1 -1.1104 15.9994 3.88069 -1.38681 12.5663
308 1 -1.1104 15.9994 1.04385 1.47954 12.6713
309 1 -1.1104 15.9994 3.90492 1.5429 12.7463
310 1 -1.1104 15.9994 6.55561 -1.18689 12.4762
311 1 -1.1104 15.9994 9.772 -1.23973 12.4987
312 1 -1.1104 15.9994 6.70559 1.62884 12.4257
313 1 -1.1104 15.9994 9.50095 1.46354 12.4445
314 1 -1.1104 15.9994 12.434 -1.43812 12.4685
315 1 -1.1104 15.9994 12.5265 1.38499 12.5234
316 1 -1.1104 15.9994 1.21109 4.16919 12.4541
317 1 -1.1104 15.9994 3.95351 4.06011 12.4784
103 2 2.2208 232.038 5.46984 -2.63401 11.1333
666 2 2.2208 232.038 2.59462 11.39 -0.197994
15 2 2.2208 232.038 13.6457 14.1438 2.22379
345 2 2.2208 232.038 10.8412 17.3624 13.7987
8997 2 2.2208 232.038 -0.194685 2.71043 5.58413
9002 2 2.2208 232.038 13.7029 8.56799 2.42452
9096 2 2.2208 232.038 13.7318 17.15 10.9822
670 2 2.2208 232.038 5.41497 14.0707 -0.058246
5 2 2.2208 232.038 13.7895 14.2333 8.09305
349 2 2.2208 232.038 5.47083 22.8133 13.8844
9101 2 2.2208 232.038 13.896 22.7101 11.1113
329 2 2.2208 232.038 5.3925 0.301511 13.9659
346 2 2.2208 232.038 2.43076 19.8156 13.5814
334 2 2.2208 232.038 5.54025 5.78443 13.9635
335 2 2.2208 232.038 11.0418 5.75932 13.962
9042 2 2.2208 232.038 13.7035 3.16553 8.26448
44 2 2.2208 232.038 -0.231831 22.6183 2.32093
8992 2 2.2208 232.038 13.7778 2.99541 2.38921
340 2 2.2208 232.038 10.8801 11.4865 13.837
9677 2 2.2208 232.038 13.9046 0.0402215 -0.126345
9329 2 2.2208 232.038 13.6682 14.2653 13.8767
19 2 2.2208 232.038 10.9673 2.91002 -0.132154
343 2 2.2208 232.038 7.9633 14.3401 13.8602
339 2 2.2208 232.038 5.25079 11.4352 13.8705
671 2 2.2208 232.038 8.26722 17.0192 28.0258
327 1 -1.1104 15.9994 6.93183 21.1462 26.5548
348 2 2.2208 232.038 8.1569 20.0032 13.9709
29 2 2.2208 232.038 10.9697 8.58917 28.135
663 2 2.2208 232.038 2.42593 5.76106 28.0645
25 2 2.2208 232.038 5.3438 8.53592 27.9919
332 1 -1.1104 15.9994 9.77384 21.3921 23.8358
325 2 2.2208 232.038 5.28177 2.96851 27.9919
26 2 2.2208 232.038 8.29686 11.3641 27.9579
353 2 2.2208 232.038 2.5105 -2.59825 19.5204
647 1 -1.1104 15.9994 3.85809 15.5253 23.7655
337 1 -1.1104 15.9994 4.30385 21.3596 23.8796
665 2 2.2208 232.038 13.6901 22.5778 27.8357
384 2 2.2208 232.038 -0.197014 16.9169 19.6584
669 2 2.2208 232.038 2.52673 17.0438 27.829
675 2 2.2208 232.038 5.3195 19.7751 28.0006
342 1 -1.1104 15.9994 4.06348 21.2752 26.7334
9370 2 2.2208 232.038 13.6567 14.5 19.3482
9380 2 2.2208 232.038 13.7374 19.9231 19.3345
331 2 2.2208 232.038 2.71436 3.13968 13.9756
650 1 -1.1104 15.9994 1.43115 18.5506 23.9457
646 1 -1.1104 15.9994 1.11931 15.5045 23.835
9400 2 2.2208 232.038 13.8868 2.95846 25.4604
672 2 2.2208 232.038 11.2462 14.3409 28.0134
649 1 -1.1104 15.9994 3.72069 15.4391 26.8845
351 1 -1.1104 15.9994 1.24169 21.2327 26.9169
352 2 2.2208 232.038 2.59016 0.14994 16.7857
657 2 2.2208 232.038 13.7681 22.8351 22.1953
354 1 -1.1104 15.9994 4.07344 18.5577 23.7856
1281 1 -1.1104 15.9994 7.08926 21.2929 24.0283
356 2 2.2208 232.038 8.26596 0.0664812 16.6924
652 1 -1.1104 15.9994 1.0208 18.5171 26.5132
358 2 2.2208 232.038 5.60366 0.108657 19.8468
660 2 2.2208 232.038 5.2994 -2.70673 27.9769
360 2 2.2208 232.038 11.2685 0.0186865 19.532
361 1 -1.1104 15.9994 1.19296 21.3066 23.8448
362 2 2.2208 232.038 2.67794 5.73983 16.8505
363 2 2.2208 232.038 2.45971 2.95998 19.6176
364 1 -1.1104 15.9994 12.4548 18.8355 26.5803
365 2 2.2208 232.038 5.32831 2.75558 17.1126
366 2 2.2208 232.038 8.54794 5.72231 16.8094
367 2 2.2208 232.038 8.22297 2.80739 19.639
368 2 2.2208 232.038 5.39404 5.70132 19.6312
369 2 2.2208 232.038 11.13 2.52424 16.8715
370 2 2.2208 232.038 10.9771 5.55413 19.6715
371 1 -1.1104 15.9994 12.1757 18.291 23.9331
372 2 2.2208 232.038 2.50591 11.673 16.645
373 2 2.2208 232.038 2.72466 8.70699 19.4002
667 2 2.2208 232.038 13.5148 17.2681 27.8502
375 2 2.2208 232.038 5.53476 8.66221 16.7215
376 2 2.2208 232.038 8.1431 11.4128 16.9651
377 2 2.2208 232.038 8.16708 8.42471 19.6787
378 2 2.2208 232.038 5.24994 11.447 19.5866
379 2 2.2208 232.038 11.065 8.82806 16.6877
380 2 2.2208 232.038 11.2171 11.3943 19.3112
381 1 -1.1104 15.9994 12.2444 15.8661 26.5985
382 2 2.2208 232.038 2.29393 17.3313 16.649
383 2 2.2208 232.038 2.49925 14.271 19.3059
656 1 -1.1104 15.9994 6.91912 15.584 26.8186
385 2 2.2208 232.038 5.22407 14.3267 16.7125
386 2 2.2208 232.038 8.25294 17.3844 16.6581
387 2 2.2208 232.038 7.98092 14.3104 19.6224
388 2 2.2208 232.038 5.12281 17.3868 19.5074
389 2 2.2208 232.038 11.0294 14.3749 16.6513
390 2 2.2208 232.038 10.8426 17.1109 19.5207
391 1 -1.1104 15.9994 12.4119 21.405 26.4289
392 2 2.2208 232.038 2.40805 22.8363 16.443
393 2 2.2208 232.038 2.4972 19.8933 19.5155
9399 2 2.2208 232.038 13.9055 5.64996 22.3855
395 2 2.2208 232.038 5.26425 19.9901 16.3363
396 2 2.2208 232.038 8.18233 22.7664 16.7455
397 2 2.2208 232.038 8.00583 19.9181 19.4877
398 2 2.2208 232.038 5.16917 22.7461 19.3927
399 2 2.2208 232.038 10.9838 20.1882 16.6945
400 2 2.2208 232.038 10.9129 22.7717 19.5461
401 1 -1.1104 15.9994 12.4706 15.5721 23.5058
402 2 2.2208 232.038 2.44314 0.154505 22.5814
655 1 -1.1104 15.9994 9.34281 15.5334 23.7289
404 1 -1.1104 15.9994 9.50922 15.7339 26.5121
434 2 2.2208 232.038 -0.182022 17.1459 24.9135
406 2 2.2208 232.038 8.41283 0.254847 22.717
654 1 -1.1104 15.9994 6.63109 15.8796 23.6763
408 2 2.2208 232.038 5.45796 0.00368024 25.2175
648 1 -1.1104 15.9994 0.947328 15.6581 26.4583
410 2 2.2208 232.038 11.1489 0.026098 25.3614
411 1 -1.1104 15.9994 6.68753 18.2714 26.8294
412 2 2.2208 232.038 2.40968 5.75184 22.329
413 2 2.2208 232.038 2.49033 2.75813 25.1729
414 1 -1.1104 15.9994 9.46622 18.6238 26.6449
415 2 2.2208 232.038 5.15995 3.02134 22.4463
416 2 2.2208 232.038 8.14958 5.71291 22.3654
417 2 2.2208 232.038 8.31948 2.88051 25.3208
418 2 2.2208 232.038 5.15604 5.86158 25.0674
419 2 2.2208 232.038 11.043 2.85853 22.524
420 2 2.2208 232.038 11.0984 5.87136 25.0623
421 1 -1.1104 15.9994 9.57784 18.2575 23.7764
422 2 2.2208 232.038 2.50665 11.3359 22.2507
423 2 2.2208 232.038 2.45117 8.57473 25.2698
424 1 -1.1104 15.9994 9.86515 12.9304 26.6311
425 2 2.2208 232.038 5.29243 8.47737 22.2585
426 2 2.2208 232.038 8.12788 11.6273 22.4513
427 2 2.2208 232.038 8.4099 8.69462 25.4022
428 2 2.2208 232.038 5.25981 11.3731 25.018
429 2 2.2208 232.038 10.9941 8.62591 22.2593
430 2 2.2208 232.038 11.0687 11.6417 25.2257
9420 2 2.2208 232.038 13.853 14.1856 25.1322
432 2 2.2208 232.038 2.65725 17.2313 22.4253
433 2 2.2208 232.038 2.41968 14.1972 25.1078
645 1 -1.1104 15.9994 12.5447 12.9492 26.5224
435 2 2.2208 232.038 5.35473 14.5014 22.3794
436 2 2.2208 232.038 8.16727 17.1062 22.3594
437 2 2.2208 232.038 8.02717 14.37 25.3512
438 2 2.2208 232.038 5.37339 17.0398 25.2104
439 2 2.2208 232.038 10.9195 14.1034 22.2097
440 2 2.2208 232.038 10.8719 17.0917 25.2178
651 1 -1.1104 15.9994 6.65504 18.4584 23.8764
442 1 -1.1104 15.9994 12.42 20.9784 23.3166
443 2 2.2208 232.038 2.73627 19.8728 25.1967
653 1 -1.1104 15.9994 3.91142 18.3916 26.6504
445 2 2.2208 232.038 5.57125 19.9661 22.4809
446 2 2.2208 232.038 8.13185 22.6765 22.3587
447 2 2.2208 232.038 8.20429 19.8741 25.2138
448 2 2.2208 232.038 5.43212 22.5577 25.2622
449 2 2.2208 232.038 10.8987 19.9488 22.1538
450 2 2.2208 232.038 11.1557 22.7564 25.1946
451 1 -1.1104 15.9994 1.17351 -1.26804 15.6995
452 1 -1.1104 15.9994 4.0066 -1.17603 15.3893
453 1 -1.1104 15.9994 0.91736 1.2005 15.6193
454 1 -1.1104 15.9994 3.80313 1.74921 15.5358
455 1 -1.1104 15.9994 6.91118 -1.24427 15.1341
456 1 -1.1104 15.9994 9.66682 -1.3852 15.3243
457 1 -1.1104 15.9994 6.8782 1.34839 15.4221
458 1 -1.1104 15.9994 9.59004 1.44497 15.1792
459 1 -1.1104 15.9994 12.4021 -1.21522 15.3237
460 1 -1.1104 15.9994 12.551 1.3631 15.5113
461 1 -1.1104 15.9994 1.19882 4.12333 15.2931
462 1 -1.1104 15.9994 4.14741 4.43562 15.5115
463 1 -1.1104 15.9994 0.986616 7.03807 15.1142
464 1 -1.1104 15.9994 3.72429 7.42768 15.3032
465 1 -1.1104 15.9994 6.89003 4.10343 15.5683
466 1 -1.1104 15.9994 9.71538 4.41298 15.1021
467 1 -1.1104 15.9994 7.09171 6.88235 15.3784
468 1 -1.1104 15.9994 9.86946 7.15679 15.596
469 1 -1.1104 15.9994 12.6953 4.03536 15.4386
470 1 -1.1104 15.9994 12.5676 7.097 15.254
471 1 -1.1104 15.9994 1.26186 10.1652 15.3134
472 1 -1.1104 15.9994 4.27282 9.99706 15.2617
473 1 -1.1104 15.9994 1.04233 12.9923 15.0224
474 1 -1.1104 15.9994 3.94402 12.8174 15.2473
475 1 -1.1104 15.9994 6.75388 9.7245 15.3471
476 1 -1.1104 15.9994 9.61327 9.98885 15.5549
477 1 -1.1104 15.9994 6.92176 13.0186 15.384
478 1 -1.1104 15.9994 9.67268 12.7807 15.2992
479 1 -1.1104 15.9994 12.572 10.0382 15.3055
480 1 -1.1104 15.9994 12.4273 12.9195 15.0409
481 1 -1.1104 15.9994 1.23735 15.7291 15.2571
482 1 -1.1104 15.9994 3.80961 15.5947 15.3444
483 1 -1.1104 15.9994 1.07195 18.6507 15.1253
484 1 -1.1104 15.9994 3.91428 18.566 14.9417
485 1 -1.1104 15.9994 6.30396 15.7645 15.4111
486 1 -1.1104 15.9994 9.27682 15.5768 15.4445
487 1 -1.1104 15.9994 6.82055 18.535 15.1322
488 1 -1.1104 15.9994 9.65158 18.6802 15.3381
489 1 -1.1104 15.9994 12.2635 15.8021 15.3032
490 1 -1.1104 15.9994 12.3716 18.6728 14.9738
491 1 -1.1104 15.9994 1.48833 21.7773 14.849
492 1 -1.1104 15.9994 4.11108 21.5039 15.0587
493 1 -1.1104 15.9994 6.77922 21.4717 15.2377
494 1 -1.1104 15.9994 9.52932 21.3937 15.26
495 1 -1.1104 15.9994 12.5145 21.5594 15.2452
496 1 -1.1104 15.9994 0.852865 -1.6312 18.5157
497 1 -1.1104 15.9994 3.89384 -1.25666 18.0985
498 1 -1.1104 15.9994 1.06089 -1.39269 21.0668
499 1 -1.1104 15.9994 3.9216 -1.18906 21.0171
500 1 -1.1104 15.9994 1.13599 1.48436 18.3412
501 1 -1.1104 15.9994 3.99589 1.36755 18.3011
502 1 -1.1104 15.9994 1.30804 1.67848 21.0757
503 1 -1.1104 15.9994 3.99235 1.61695 20.9574
504 1 -1.1104 15.9994 6.88699 -1.2302 18.1211
505 1 -1.1104 15.9994 9.64913 -1.34656 18.2324
506 1 -1.1104 15.9994 6.79024 -1.52759 20.9676
507 1 -1.1104 15.9994 9.98262 -1.19462 21.2785
508 1 -1.1104 15.9994 7.05577 1.44175 18.0424
509 1 -1.1104 15.9994 9.65287 1.43025 18.1404
510 1 -1.1104 15.9994 6.94607 1.37653 21.1416
511 1 -1.1104 15.9994 9.81395 1.435 20.9663
512 1 -1.1104 15.9994 12.5546 -1.38306 18.1947
513 1 -1.1104 15.9994 12.9292 -1.38731 21.0772
514 1 -1.1104 15.9994 12.6144 1.28113 18.2888
515 1 -1.1104 15.9994 12.6491 1.43162 20.9179
516 1 -1.1104 15.9994 0.986797 4.37476 18.1639
517 1 -1.1104 15.9994 3.89544 4.35316 18.2807
518 1 -1.1104 15.9994 1.07933 4.37942 20.8806
519 1 -1.1104 15.9994 4.03312 4.27225 21.0034
520 1 -1.1104 15.9994 1.12457 6.95623 17.9687
521 1 -1.1104 15.9994 4.1268 7.34917 18.0055
522 1 -1.1104 15.9994 0.960909 7.35267 21.0173
523 1 -1.1104 15.9994 3.89409 7.13532 20.6636
524 1 -1.1104 15.9994 6.79463 4.09778 18.3075
525 1 -1.1104 15.9994 9.78261 4.21909 18.1813
526 1 -1.1104 15.9994 6.66973 4.13046 21.1526
527 1 -1.1104 15.9994 9.44685 4.31122 20.9838
528 1 -1.1104 15.9994 6.83335 7.04916 18.0306
529 1 -1.1104 15.9994 9.45651 6.81407 18.5566
530 1 -1.1104 15.9994 6.75041 7.00349 20.9611
531 1 -1.1104 15.9994 9.50944 7.13863 21.2171
532 1 -1.1104 15.9994 12.4627 4.01111 18.045
533 1 -1.1104 15.9994 12.347 4.39471 21.009
534 1 -1.1104 15.9994 12.1788 7.13849 18.0097
535 1 -1.1104 15.9994 12.4745 7.26269 20.8815
536 1 -1.1104 15.9994 1.10319 9.97649 18.1914
537 1 -1.1104 15.9994 4.0049 10.3051 18.0295
538 1 -1.1104 15.9994 0.906186 10.0738 20.9501
539 1 -1.1104 15.9994 3.95886 9.81751 20.912
540 1 -1.1104 15.9994 0.912631 12.8312 18.0869
541 1 -1.1104 15.9994 3.91312 12.9589 18.0104
542 1 -1.1104 15.9994 1.29541 12.8841 20.8915
543 1 -1.1104 15.9994 3.66602 12.8495 20.885
544 1 -1.1104 15.9994 6.79669 9.83481 18.2935
545 1 -1.1104 15.9994 9.69383 9.85478 18.1122
546 1 -1.1104 15.9994 6.5801 9.77912 20.9796
547 1 -1.1104 15.9994 9.99207 10.0903 21.0864
548 1 -1.1104 15.9994 6.81024 12.8194 18.3158
549 1 -1.1104 15.9994 9.61251 12.5727 18.1761
550 1 -1.1104 15.9994 6.72613 13.0913 21.1589
551 1 -1.1104 15.9994 9.30853 12.8244 20.9911
552 1 -1.1104 15.9994 12.5303 10.0519 17.985
553 1 -1.1104 15.9994 12.7837 10.3258 20.6552
554 1 -1.1104 15.9994 12.5411 12.9723 17.8823
555 1 -1.1104 15.9994 12.3738 12.8803 20.8159
556 1 -1.1104 15.9994 1.14481 15.6024 18.1761
557 1 -1.1104 15.9994 3.92353 15.8122 18.0618
558 1 -1.1104 15.9994 1.21406 15.6592 21.1129
559 1 -1.1104 15.9994 4.03815 16.0434 20.9199
560 1 -1.1104 15.9994 0.899396 18.5641 18.3086
561 1 -1.1104 15.9994 3.83304 18.5153 17.8554
562 1 -1.1104 15.9994 1.09703 18.3535 21.1866
563 1 -1.1104 15.9994 3.86363 18.6169 20.9639
564 1 -1.1104 15.9994 6.70409 15.7752 18.3317
565 1 -1.1104 15.9994 9.49229 15.6694 18.2388
566 1 -1.1104 15.9994 6.76118 15.881 20.9264
567 1 -1.1104 15.9994 9.63079 15.6599 21.1766
568 1 -1.1104 15.9994 6.3615 18.5831 18.1104
569 1 -1.1104 15.9994 9.37893 18.6647 18.1567
570 1 -1.1104 15.9994 6.83446 18.5944 21.0973
571 1 -1.1104 15.9994 9.50492 18.4465 20.9279
572 1 -1.1104 15.9994 12.2643 15.9785 17.885
573 1 -1.1104 15.9994 12.1996 15.6962 20.775
574 1 -1.1104 15.9994 12.1955 18.6712 17.9217
575 1 -1.1104 15.9994 12.1238 18.3974 20.9055
576 1 -1.1104 15.9994 0.979362 21.1885 20.6287
577 1 -1.1104 15.9994 3.98195 21.4545 17.8933
644 1 -1.1104 15.9994 12.3633 12.6661 23.7181
579 1 -1.1104 15.9994 4.21951 20.9483 20.6111
580 1 -1.1104 15.9994 6.5917 21.3975 17.9756
581 1 -1.1104 15.9994 9.5774 21.2372 18.053
582 1 -1.1104 15.9994 6.93664 21.2454 20.973
583 1 -1.1104 15.9994 9.71055 21.2064 20.7564
584 1 -1.1104 15.9994 12.4244 21.2879 17.8849
585 1 -1.1104 15.9994 12.4732 21.3161 20.5099
586 1 -1.1104 15.9994 1.11476 -1.36708 24.0667
587 1 -1.1104 15.9994 4.11075 -1.41426 23.8032
588 1 -1.1104 15.9994 0.955256 -1.42152 26.8586
589 1 -1.1104 15.9994 3.95488 -1.36853 26.6295
590 1 -1.1104 15.9994 0.765559 1.42291 23.6161
591 1 -1.1104 15.9994 3.82603 1.32134 23.8306
592 1 -1.1104 15.9994 1.2677 1.3468 26.5015
593 1 -1.1104 15.9994 3.98468 1.42082 26.5263
594 1 -1.1104 15.9994 7.11794 -1.41906 23.863
595 1 -1.1104 15.9994 9.85586 -1.26277 24.0036
596 1 -1.1104 15.9994 6.81838 -1.46963 26.5946
597 1 -1.1104 15.9994 9.67462 -1.23968 26.8346
598 1 -1.1104 15.9994 6.83432 1.63688 23.7118
599 1 -1.1104 15.9994 9.89195 1.60189 24.1192
600 1 -1.1104 15.9994 6.76022 1.26381 26.7581
601 1 -1.1104 15.9994 9.57416 1.4884 26.8207
602 1 -1.1104 15.9994 12.4447 -1.69971 23.894
603 1 -1.1104 15.9994 12.7073 -1.49549 26.9457
604 1 -1.1104 15.9994 12.9565 1.47479 23.6999
605 1 -1.1104 15.9994 12.376 1.45707 26.6947
606 1 -1.1104 15.9994 1.21217 4.00631 23.7779
607 1 -1.1104 15.9994 3.56681 4.5053 23.9065
608 1 -1.1104 15.9994 1.07043 4.28587 26.5725
609 1 -1.1104 15.9994 3.87372 4.24124 26.5165
610 1 -1.1104 15.9994 1.06489 6.72944 23.8023
611 1 -1.1104 15.9994 3.7226 7.33276 23.9403
612 1 -1.1104 15.9994 1.02377 7.15417 26.6946
613 1 -1.1104 15.9994 3.86653 7.0603 26.896
614 1 -1.1104 15.9994 6.76948 4.64885 23.7751
615 1 -1.1104 15.9994 9.71134 4.51598 23.6221
616 1 -1.1104 15.9994 6.73182 4.25668 26.378
617 1 -1.1104 15.9994 9.65369 4.17078 26.7397
618 1 -1.1104 15.9994 6.85654 7.44025 23.8826
619 1 -1.1104 15.9994 9.65449 7.31431 24.0413
620 1 -1.1104 15.9994 6.71742 6.87617 26.6113
621 1 -1.1104 15.9994 9.60114 7.4518 26.7918
622 1 -1.1104 15.9994 12.4382 4.30881 23.9316
623 1 -1.1104 15.9994 12.6631 4.12653 26.8505
624 1 -1.1104 15.9994 12.4193 6.95897 23.6463
625 1 -1.1104 15.9994 12.5334 7.04091 26.3401
626 1 -1.1104 15.9994 0.869868 9.90922 23.938
627 1 -1.1104 15.9994 3.67184 9.88658 23.6145
628 1 -1.1104 15.9994 1.09705 9.81103 26.8206
629 1 -1.1104 15.9994 3.81363 9.86963 26.5753
630 1 -1.1104 15.9994 1.2013 12.5831 23.7997
631 1 -1.1104 15.9994 3.98137 12.746 23.6048
632 1 -1.1104 15.9994 1.2544 12.6907 26.7503
633 1 -1.1104 15.9994 4.18892 12.7095 26.5574
634 1 -1.1104 15.9994 6.85954 10.3672 24.0066
635 1 -1.1104 15.9994 9.5634 10.1564 23.9642
636 1 -1.1104 15.9994 6.88537 9.53658 26.6907
637 1 -1.1104 15.9994 9.89753 21.3869 26.4557