ITEM: TIMESTEP
50000
ITEM: NUMBER OF ATOMS
18000
ITEM: BOX BOUNDS xy xz yz pp pp pp
-1.7309453936080818e-01 2.8067094539360916e+01 0.0000000000000000e+00
-2.0574369770053544e+00 3.3678543697700371e+02 0.0000000000000000e+00
-1.9026639208914556e-01 2.8084266392089095e+01 0.0000000000000000e+00
ITEM: ATOMS id type q mass x y z
55 2 2.2208 232.038 5.35726 -2.07137 5.52762
57 2 2.2208 232.038 8.13628 -1.95862 8.18224
3 2 2.2208 232.038 2.84878 -1.87064 2.74494
4 1 -1.1104 15.9994 12.6834 21.5997 12.1965
105 2 2.2208 232.038 11.1143 -2.01994 11.0856
7 2 2.2208 232.038 8.22803 -1.94578 2.51985
344 2 2.2208 232.038 5.61925 17.8776 13.9268
8 2 2.2208 232.038 5.50189 0.821734 2.72834
9 1 -1.1104 15.9994 12.6529 7.97515 12.6325
10 2 2.2208 232.038 11.1065 0.816855 2.47808
11 1 -1.1104 15.9994 9.843 21.867 12.5034
325 2 2.2208 232.038 5.56277 3.54516 -0.147483
13 2 2.2208 232.038 2.57355 3.68724 2.77344
14 1 -1.1104 15.9994 7.15125 22.0827 12.3336
324 1 -1.1104 15.9994 12.4125 5.11772 12.5966
350 2 2.2208 232.038 11.2036 23.362 13.8919
17 2 2.2208 232.038 8.29324 3.70138 2.47517
18 2 2.2208 232.038 5.61382 6.67838 2.67566
346 2 2.2208 232.038 2.53756 20.6843 13.922
20 2 2.2208 232.038 11.1633 6.48164 2.48065
21 1 -1.1104 15.9994 4.36921 22.0306 12.454
22 1 -1.1104 15.9994 1.37776 16.5641 12.5737
23 2 2.2208 232.038 2.68291 9.4634 2.5639
323 1 -1.1104 15.9994 9.86643 7.8719 9.78044
345 2 2.2208 232.038 10.9322 17.8727 13.8707
340 2 2.2208 232.038 11.0398 12.1556 13.8698
27 2 2.2208 232.038 8.35186 9.30855 2.77173
28 2 2.2208 232.038 5.74144 12.2333 2.5374
103 2 2.2208 232.038 5.57508 -1.81665 11.2274
30 2 2.2208 232.038 11.2565 12.0774 2.6009
31 1 -1.1104 15.9994 9.97058 13.5999 12.5693
32 1 -1.1104 15.9994 12.426 10.8859 12.3841
33 2 2.2208 232.038 2.80183 15.0203 2.54908
59 2 2.2208 232.038 11.308 -1.91415 5.19104
35 1 -1.1104 15.9994 9.77524 10.7238 12.6624
36 1 -1.1104 15.9994 6.95602 13.4022 12.5753
37 2 2.2208 232.038 8.10649 15.1054 2.55341
38 2 2.2208 232.038 5.25658 17.8634 2.50474
39 1 -1.1104 15.9994 9.87399 7.80368 12.3809
40 2 2.2208 232.038 11.1162 17.6116 2.48708
41 1 -1.1104 15.9994 6.91961 10.5569 12.475
42 1 -1.1104 15.9994 4.13908 13.5384 12.7374
43 2 2.2208 232.038 2.78372 20.7468 2.51006
24 2 2.2208 232.038 -0.129905 12.1977 2.60434
45 1 -1.1104 15.9994 1.50928 13.5128 12.7467
46 1 -1.1104 15.9994 4.36324 10.7064 12.5706
47 2 2.2208 232.038 8.30245 20.8028 2.32446
48 2 2.2208 232.038 5.41769 23.5378 2.41857
49 1 -1.1104 15.9994 1.44745 10.704 12.4744
50 2 2.2208 232.038 11.1462 23.6181 2.50625
51 1 -1.1104 15.9994 1.22555 22.1225 12.357
52 2 2.2208 232.038 2.45631 0.688056 5.47908
320 1 -1.1104 15.9994 6.99091 5.12705 12.4485
54 1 -1.1104 15.9994 12.1767 18.836 12.1185
94 2 2.2208 232.038 -0.152003 23.4019 8.35095
56 2 2.2208 232.038 8.55169 0.741052 5.43356
349 2 2.2208 232.038 5.69233 23.3528 13.8759
58 2 2.2208 232.038 5.5112 0.805081 8.32024
121 2 2.2208 232.038 -0.148835 20.6271 11.1797
60 2 2.2208 232.038 11.0935 0.865048 8.3237
61 1 -1.1104 15.9994 12.654 15.673 12.5716
62 2 2.2208 232.038 2.67732 6.56495 5.60302
63 2 2.2208 232.038 2.75011 3.65394 8.15059
64 1 -1.1104 15.9994 9.50462 19.2747 12.306
65 2 2.2208 232.038 5.57039 3.47457 5.4473
66 2 2.2208 232.038 8.47573 6.31373 5.443
67 2 2.2208 232.038 8.39831 3.62726 8.30377
68 2 2.2208 232.038 5.49778 6.45246 8.13722
69 2 2.2208 232.038 11.2675 3.53112 5.45889
70 2 2.2208 232.038 11.2709 6.55467 8.33044
71 1 -1.1104 15.9994 6.87948 19.355 12.6151
72 2 2.2208 232.038 2.63665 11.9904 5.53681
73 2 2.2208 232.038 2.63214 9.22498 8.30756
74 1 -1.1104 15.9994 9.54545 16.2811 12.4396
75 2 2.2208 232.038 5.49757 9.31971 5.5584
76 2 2.2208 232.038 8.45121 12.1142 5.29297
77 2 2.2208 232.038 8.32534 9.30964 8.44494
78 2 2.2208 232.038 5.44159 12.0688 8.34959
79 2 2.2208 232.038 11.2346 9.18995 5.42574
80 2 2.2208 232.038 11.0486 12.0899 8.21121
322 1 -1.1104 15.9994 7.02438 7.69899 12.5956
82 2 2.2208 232.038 2.64158 17.8161 5.20537
83 2 2.2208 232.038 2.80319 15.0683 8.21496
348 2 2.2208 232.038 8.15185 20.5695 13.8802
85 2 2.2208 232.038 5.50107 15.0419 5.51738
86 2 2.2208 232.038 8.29539 17.8226 5.23153
87 2 2.2208 232.038 8.2251 14.8766 8.11565
88 2 2.2208 232.038 5.54523 17.5148 7.99893
89 2 2.2208 232.038 11.0517 14.8743 5.26386
90 2 2.2208 232.038 10.9806 17.68 8.07828
25 2 2.2208 232.038 5.49016 9.26527 -0.182655
92 2 2.2208 232.038 2.58253 23.2111 5.50308
93 2 2.2208 232.038 2.62246 20.4729 8.17738
5 2 2.2208 232.038 13.8653 14.9916 8.16911
95 2 2.2208 232.038 5.36294 20.4821 5.38381
96 2 2.2208 232.038 8.13451 23.25 5.22348
97 2 2.2208 232.038 8.28177 20.349 8.16099
98 2 2.2208 232.038 5.56273 23.3202 8.08826
99 2 2.2208 232.038 11.1459 20.6468 5.13934
100 2 2.2208 232.038 10.9489 23.0266 8.08299
101 1 -1.1104 15.9994 6.97817 16.1786 12.5969
102 2 2.2208 232.038 2.76135 0.899387 11.2654
2 2 2.2208 232.038 13.7667 20.5024 8.19677
104 2 2.2208 232.038 8.27664 0.699712 10.9647
338 2 2.2208 232.038 8.37628 9.23732 13.7281
106 1 -1.1104 15.9994 4.04577 19.0955 12.3355
107 2 2.2208 232.038 2.70362 6.46887 11.287
108 2 2.2208 232.038 5.6076 3.74932 11.0368
109 2 2.2208 232.038 8.3306 6.35227 11.0504
110 2 2.2208 232.038 11.1757 3.65905 11.2043
111 1 -1.1104 15.9994 1.41015 19.2465 12.4907
112 2 2.2208 232.038 2.63425 12.1592 11.108
113 2 2.2208 232.038 5.3502 9.24977 11.0601
114 2 2.2208 232.038 8.09394 12.0862 11.2159
115 2 2.2208 232.038 11.1156 9.28628 11.1191
116 1 -1.1104 15.9994 4.31622 16.2352 12.3949
117 2 2.2208 232.038 2.81879 17.7433 11.0278
118 2 2.2208 232.038 5.55576 14.8238 11.1329
119 2 2.2208 232.038 8.07617 17.804 10.9437
120 2 2.2208 232.038 11.0239 15.1303 11.0834
321 1 -1.1104 15.9994 9.56411 4.7892 12.5507
122 2 2.2208 232.038 2.67789 23.2227 10.9892
123 2 2.2208 232.038 5.52276 20.5409 10.9064
124 2 2.2208 232.038 8.46051 23.3377 11.0064
125 2 2.2208 232.038 11.0748 20.5763 10.9771
126 1 -1.1104 15.9994 1.24831 -0.479996 1.27663
127 1 -1.1104 15.9994 4.15693 -0.693709 1.44612
128 1 -1.1104 15.9994 1.35572 -0.755466 3.93761
129 1 -1.1104 15.9994 4.22113 -0.567806 4.13876
130 1 -1.1104 15.9994 1.34499 2.56346 1.28744
131 1 -1.1104 15.9994 3.98289 2.09957 1.3383
132 1 -1.1104 15.9994 1.17978 2.1395 4.23685
133 1 -1.1104 15.9994 3.85033 2.34094 4.05266
134 1 -1.1104 15.9994 6.84052 -0.582092 1.03505
135 1 -1.1104 15.9994 9.66602 -0.481472 0.860999
136 1 -1.1104 15.9994 7.0869 -0.659171 4.1437
137 1 -1.1104 15.9994 9.81632 -0.47722 3.90139
138 1 -1.1104 15.9994 6.95939 2.16759 1.21742
139 1 -1.1104 15.9994 9.73736 2.30101 1.27647
140 1 -1.1104 15.9994 6.95607 2.19105 4.15291
141 1 -1.1104 15.9994 9.75407 2.211 3.94055
142 1 -1.1104 15.9994 12.643 -0.839256 1.12238
143 1 -1.1104 15.9994 12.8937 -0.584676 4.21153
144 1 -1.1104 15.9994 12.5727 2.2457 0.796808
145 1 -1.1104 15.9994 12.5607 2.04391 3.55495
146 1 -1.1104 15.9994 1.15425 5.16209 1.41852
147 1 -1.1104 15.9994 3.98954 4.91349 1.30834
148 1 -1.1104 15.9994 1.10861 5.1585 4.22323
149 1 -1.1104 15.9994 3.91605 5.21898 4.09913
150 1 -1.1104 15.9994 1.11279 7.9804 1.12202
151 1 -1.1104 15.9994 3.9416 7.66608 1.17468
152 1 -1.1104 15.9994 1.28502 7.93636 4.09034
153 1 -1.1104 15.9994 4.14875 7.9472 3.81222
154 1 -1.1104 15.9994 6.87541 4.9586 1.24065
155 1 -1.1104 15.9994 9.84603 5.04987 1.04839
156 1 -1.1104 15.9994 6.93811 5.13787 3.99484
157 1 -1.1104 15.9994 9.67905 5.0228 3.86294
158 1 -1.1104 15.9994 6.84753 8.10645 1.4825
159 1 -1.1104 15.9994 9.52959 7.92964 0.991846
160 1 -1.1104 15.9994 7.03981 7.62438 4.28976
161 1 -1.1104 15.9994 10.1181 7.839 3.89713
162 1 -1.1104 15.9994 12.6153 4.98404 1.14268
163 1 -1.1104 15.9994 12.7068 4.84656 4.17193
164 1 -1.1104 15.9994 12.4831 7.96265 1.12839
165 1 -1.1104 15.9994 12.7257 7.67698 3.89827
166 1 -1.1104 15.9994 1.39952 10.8374 1.13931
167 1 -1.1104 15.9994 4.13895 10.4976 1.04222
168 1 -1.1104 15.9994 1.24636 10.8125 3.91749
169 1 -1.1104 15.9994 4.24886 10.6527 4.04943
170 1 -1.1104 15.9994 1.32418 13.6325 1.29707
171 1 -1.1104 15.9994 4.24496 13.5643 1.20829
172 1 -1.1104 15.9994 1.2572 13.3749 3.99569
173 1 -1.1104 15.9994 4.06317 13.563 3.92961
174 1 -1.1104 15.9994 7.15679 10.9407 1.26371
175 1 -1.1104 15.9994 9.73661 10.6408 1.231
176 1 -1.1104 15.9994 6.98267 10.7253 4.07375
177 1 -1.1104 15.9994 9.71642 10.6223 4.09772
178 1 -1.1104 15.9994 7.06119 13.5336 1.13525
179 1 -1.1104 15.9994 9.71773 13.7178 0.908349
180 1 -1.1104 15.9994 7.153 13.7284 3.93762
181 1 -1.1104 15.9994 9.78569 13.4219 3.84389
182 1 -1.1104 15.9994 12.5925 10.7218 1.20812
183 1 -1.1104 15.9994 12.709 10.8398 4.09898
184 1 -1.1104 15.9994 12.6406 13.5369 1.21627
185 1 -1.1104 15.9994 12.5997 13.4582 4.12561
186 1 -1.1104 15.9994 1.07809 16.2364 1.13777
187 1 -1.1104 15.9994 4.10381 16.4511 1.19428
188 1 -1.1104 15.9994 1.41909 16.2029 4.0717
189 1 -1.1104 15.9994 4.05984 16.5777 4.05842
190 1 -1.1104 15.9994 1.22155 19.1784 1.04309
191 1 -1.1104 15.9994 3.97505 19.2697 1.1932
192 1 -1.1104 15.9994 1.24344 19.4355 3.94055
193 1 -1.1104 15.9994 4.02927 19.3126 3.71037
194 1 -1.1104 15.9994 6.88686 16.4731 1.20693
195 1 -1.1104 15.9994 9.75666 16.3734 0.870578
196 1 -1.1104 15.9994 6.81023 16.4864 4.24695
197 1 -1.1104 15.9994 9.6641 16.3722 3.98121
198 1 -1.1104 15.9994 6.90465 19.3855 1.05351
199 1 -1.1104 15.9994 9.88252 19.2256 1.16032
200 1 -1.1104 15.9994 6.74961 18.9756 3.87677
201 1 -1.1104 15.9994 9.56753 19.1057 3.94648
202 1 -1.1104 15.9994 12.6343 16.2107 1.26198
203 1 -1.1104 15.9994 12.6494 16.3247 4.01676
204 1 -1.1104 15.9994 12.7052 18.9281 1.21126
205 1 -1.1104 15.9994 12.4491 19.1924 3.93595
206 1 -1.1104 15.9994 1.19067 21.9922 1.26608
207 1 -1.1104 15.9994 3.99964 22.1706 1.25171
208 1 -1.1104 15.9994 1.37311 22.0411 4.03166
209 1 -1.1104 15.9994 4.17871 22.013 4.02501
210 1 -1.1104 15.9994 6.92781 22.1157 1.07473
211 1 -1.1104 15.9994 9.79497 22.3134 0.983331
212 1 -1.1104 15.9994 6.89148 21.8819 3.88919
213 1 -1.1104 15.9994 9.80473 21.8722 3.76142
214 1 -1.1104 15.9994 12.4518 21.9803 1.26329
215 1 -1.1104 15.9994 12.5111 21.8734 4.02622
216 1 -1.1104 15.9994 1.17468 -0.834843 7.03669
341 2 2.2208 232.038 2.85564 15.0106 13.9071
218 1 -1.1104 15.9994 1.03864 -0.00805026 9.70573
219 1 -1.1104 15.9994 3.98005 -0.699263 6.96943
220 1 -1.1104 15.9994 1.65125 1.86007 7.50402
221 1 -1.1104 15.9994 4.20514 2.1492 6.85386
222 1 -1.1104 15.9994 4.02472 2.12869 9.59913
223 1 -1.1104 15.9994 3.95774 -0.535786 9.72599
224 1 -1.1104 15.9994 6.74719 -0.574997 7.04125
225 1 -1.1104 15.9994 9.6698 -0.677838 6.83951
8981 2 2.2208 232.038 0.021798 15.1649 11.2433
227 1 -1.1104 15.9994 6.92725 -0.540022 9.58171
228 1 -1.1104 15.9994 7.05976 2.11625 6.8418
229 1 -1.1104 15.9994 9.75174 2.1047 6.98008
230 1 -1.1104 15.9994 6.82376 2.26942 9.73295
231 1 -1.1104 15.9994 9.70023 -0.779636 9.49076
232 1 -1.1104 15.9994 12.6723 -0.48447 7.15071
233 1 -1.1104 15.9994 12.5341 -0.568953 9.69546
234 1 -1.1104 15.9994 12.6084 2.06992 6.78832
235 1 -1.1104 15.9994 12.2909 2.40976 9.62182
236 1 -1.1104 15.9994 1.00295 5.04512 6.84544
237 1 -1.1104 15.9994 4.13412 4.99097 6.87088
238 1 -1.1104 15.9994 1.31022 4.24405 9.77063
239 1 -1.1104 15.9994 4.06358 5.22806 9.71258
240 1 -1.1104 15.9994 1.16882 7.89015 6.75692
241 1 -1.1104 15.9994 4.16513 8.01153 6.86543
242 1 -1.1104 15.9994 1.28318 7.46775 9.65763
243 1 -1.1104 15.9994 3.98549 7.97205 9.80765
244 1 -1.1104 15.9994 6.82944 4.81129 6.94454
245 1 -1.1104 15.9994 9.73741 5.04252 6.91994
246 1 -1.1104 15.9994 7.06785 5.02299 9.71185
247 1 -1.1104 15.9994 9.57261 2.01599 9.67662
248 1 -1.1104 15.9994 6.82074 7.80776 6.91813
249 1 -1.1104 15.9994 9.75996 7.93041 6.7394
250 1 -1.1104 15.9994 7.01752 7.97727 9.70015
251 1 -1.1104 15.9994 9.93191 5.00005 9.74703
252 1 -1.1104 15.9994 12.4937 5.09526 6.75767
253 1 -1.1104 15.9994 12.6021 5.13842 9.71678
254 1 -1.1104 15.9994 12.4789 8.12571 7.03569
255 1 -1.1104 15.9994 12.6429 7.86259 9.93828
256 1 -1.1104 15.9994 1.15606 10.5311 7.03161
257 1 -1.1104 15.9994 3.89738 10.7875 6.80047
258 1 -1.1104 15.9994 1.48207 10.4892 9.76642
259 1 -1.1104 15.9994 4.1997 10.7681 9.71674
260 1 -1.1104 15.9994 1.49205 13.3366 7.29393
261 1 -1.1104 15.9994 4.11009 13.5385 6.82196
262 1 -1.1104 15.9994 1.27976 13.5233 9.8307
263 1 -1.1104 15.9994 4.21845 13.428 9.81762
264 1 -1.1104 15.9994 6.73364 10.5513 7.13642
265 1 -1.1104 15.9994 9.68487 10.6783 6.8358
266 1 -1.1104 15.9994 7.03356 10.5717 9.839
267 1 -1.1104 15.9994 9.72964 10.608 9.69128
268 1 -1.1104 15.9994 6.78802 13.5336 6.76955
269 1 -1.1104 15.9994 9.81893 13.6063 6.75264
270 1 -1.1104 15.9994 6.72379 13.423 9.72161
271 1 -1.1104 15.9994 9.65294 13.5848 9.61551
272 1 -1.1104 15.9994 12.6347 10.7531 6.79189
273 1 -1.1104 15.9994 12.4457 10.776 9.46864
274 1 -1.1104 15.9994 12.5674 13.5445 6.94787
275 1 -1.1104 15.9994 12.6172 13.3258 9.77906
276 1 -1.1104 15.9994 1.03425 16.2125 6.93676
277 1 -1.1104 15.9994 4.09654 16.3437 6.59498
278 1 -1.1104 15.9994 1.31135 16.3267 9.6291
279 1 -1.1104 15.9994 4.14575 16.1192 9.50888
280 1 -1.1104 15.9994 1.30256 18.9176 6.72016
281 1 -1.1104 15.9994 3.91484 19.1161 6.5002
282 1 -1.1104 15.9994 1.27278 19.0895 9.44745
283 1 -1.1104 15.9994 4.26148 18.7724 9.52993
284 1 -1.1104 15.9994 7.04502 16.2893 6.92657
285 1 -1.1104 15.9994 9.66659 16.1934 6.76208
286 1 -1.1104 15.9994 6.83816 16.3153 9.725
287 1 -1.1104 15.9994 9.58012 16.4688 9.73835
288 1 -1.1104 15.9994 7.03595 18.9268 6.76366
289 1 -1.1104 15.9994 9.64495 19.1264 6.61531
290 1 -1.1104 15.9994 6.74898 19.041 9.43651
291 1 -1.1104 15.9994 9.46953 19.1327 9.60258
292 1 -1.1104 15.9994 12.3728 16.4345 6.71517
293 1 -1.1104 15.9994 12.4006 16.1737 9.76919
294 1 -1.1104 15.9994 12.4957 19.3801 6.77689
295 1 -1.1104 15.9994 12.1616 19.0183 9.48909
296 1 -1.1104 15.9994 1.23231 21.9187 6.99149
297 1 -1.1104 15.9994 4.11436 21.7708 6.93128
298 1 -1.1104 15.9994 1.02808 22.0104 9.79546
299 1 -1.1104 15.9994 3.85876 21.5868 9.65682
300 1 -1.1104 15.9994 6.84679 21.8311 6.64734
301 1 -1.1104 15.9994 9.65287 21.9154 6.53541
302 1 -1.1104 15.9994 6.96181 21.8083 9.58258
303 1 -1.1104 15.9994 9.75055 21.9914 9.60939
304 1 -1.1104 15.9994 12.3668 21.8965 6.80438
305 1 -1.1104 15.9994 12.5038 22.3399 9.73479
306 1 -1.1104 15.9994 1.21359 -0.830109 12.5542
307 1 -1.1104 15.9994 4.11942 -0.335992 12.6697
308 1 -1.1104 15.9994 1.13312 2.08677 12.4701
309 1 -1.1104 15.9994 4.03325 2.4784 12.5217
310 1 -1.1104 15.9994 6.75074 -0.361917 12.4429
311 1 -1.1104 15.9994 9.5005 -0.908433 12.4821
312 1 -1.1104 15.9994 6.77096 2.33912 12.5823
313 1 -1.1104 15.9994 9.67944 2.07753 12.56
314 1 -1.1104 15.9994 12.6263 -0.576969 12.5168
315 1 -1.1104 15.9994 12.293 2.08456 12.3013
316 1 -1.1104 15.9994 1.20935 5.06864 12.6205
317 1 -1.1104 15.9994 4.08875 4.98566 12.5473
318 1 -1.1104 15.9994 1.24505 7.87697 12.6054
319 1 -1.1104 15.9994 4.19032 7.68575 12.7495
53 2 2.2208 232.038 2.7076 -1.86891 8.31766
8983 2 2.2208 232.038 0.0111207 9.24838 11.1009
9081 2 2.2208 232.038 13.9428 0.700778 11.1154
9004 2 2.2208 232.038 -0.140369 6.48457 2.64699
84 2 2.2208 232.038 -0.146762 17.6562 8.21695
44 2 2.2208 232.038 0.0742448 23.4833 2.5305
335 2 2.2208 232.038 10.9063 6.45485 13.9256
6 2 2.2208 232.038 13.7575 17.9031 5.3741
659 2 2.2208 232.038 2.63486 0.932524 -0.165882
663 2 2.2208 232.038 2.66549 6.40046 -0.11207
329 2 2.2208 232.038 5.5001 1.0424 13.9341
403 2 2.2208 232.038 2.64289 -2.01353 25.0448
327 1 -1.1104 15.9994 6.88529 21.8397 26.6275
339 2 2.2208 232.038 5.37678 12.1198 14.0275
670 2 2.2208 232.038 5.79515 15.0474 27.9577
9669 2 2.2208 232.038 -0.152425 9.3975 16.9752
9662 2 2.2208 232.038 -0.120315 6.52323 14.0098
332 1 -1.1104 15.9994 9.5788 22.1211 23.8359
16 2 2.2208 232.038 8.28314 6.32456 27.9318
675 2 2.2208 232.038 5.51195 20.6202 28.0121
9690 2 2.2208 232.038 -0.00800958 3.80155 27.9441
343 2 2.2208 232.038 8.23046 14.7856 13.9689
337 1 -1.1104 15.9994 6.93271 21.9332 23.7078
407 2 2.2208 232.038 8.30985 -1.8777 25.2643
651 1 -1.1104 15.9994 4.26794 18.981 23.5651
9674 2 2.2208 232.038 -0.157473 6.51674 25.1057
328 2 2.2208 232.038 8.16615 -1.99777 14.0714
342 1 -1.1104 15.9994 3.99331 22.1185 26.6237
9665 2 2.2208 232.038 0.0789947 -1.97808 16.822
669 2 2.2208 232.038 2.75684 17.8874 27.7293
333 2 2.2208 232.038 8.43678 3.55805 14.0125
9664 2 2.2208 232.038 0.145205 17.882 13.9973
9379 2 2.2208 232.038 13.9099 23.2935 16.6933
9319 2 2.2208 232.038 13.903 3.82616 14.0085
656 1 -1.1104 15.9994 7.01566 16.2081 26.4692
409 2 2.2208 232.038 11.1802 -1.96624 22.2824
351 1 -1.1104 15.9994 1.19831 22.2549 26.4527
352 2 2.2208 232.038 2.58158 0.927752 16.6727
662 2 2.2208 232.038 11.1876 -2.02178 27.8369
354 1 -1.1104 15.9994 4.35047 21.7245 24.0137
9389 2 2.2208 232.038 13.8925 0.894205 22.4415
356 2 2.2208 232.038 8.38349 0.762209 16.7089
655 1 -1.1104 15.9994 9.75037 16.5152 23.7255
358 2 2.2208 232.038 5.51297 0.844169 19.4361
654 1 -1.1104 15.9994 7.04416 16.1078 23.518
360 2 2.2208 232.038 11.14 0.776325 19.5929
361 1 -1.1104 15.9994 1.10953 21.8763 23.7274
362 2 2.2208 232.038 2.78182 6.58359 16.9654
363 2 2.2208 232.038 2.69619 3.80099 19.5947
364 1 -1.1104 15.9994 12.485 19.4606 26.7654
365 2 2.2208 232.038 5.72968 3.79024 16.5902
366 2 2.2208 232.038 8.42823 6.50984 16.8031
367 2 2.2208 232.038 8.22347 3.67923 19.6603
368 2 2.2208 232.038 5.49956 6.64922 19.5482
369 2 2.2208 232.038 11.2036 3.72515 16.8464
370 2 2.2208 232.038 11.279 6.69246 19.3507
371 1 -1.1104 15.9994 12.5772 19.425 24.008
372 2 2.2208 232.038 2.62708 12.1514 16.8539
373 2 2.2208 232.038 2.87001 9.50369 19.7918
334 2 2.2208 232.038 5.5569 6.36879 14.0035
375 2 2.2208 232.038 5.5924 9.29629 16.7901
376 2 2.2208 232.038 8.27633 12.0969 16.5987
377 2 2.2208 232.038 8.46168 9.27229 19.5085
378 2 2.2208 232.038 5.70376 11.9988 19.4435
379 2 2.2208 232.038 11.2087 9.46536 16.7797
380 2 2.2208 232.038 11.1134 12.2435 19.7177
381 1 -1.1104 15.9994 12.7614 16.509 26.9241
382 2 2.2208 232.038 2.68091 17.7568 16.6987
383 2 2.2208 232.038 2.66944 14.8928 19.5625
9666 2 2.2208 232.038 -0.0606791 0.836254 19.6624
385 2 2.2208 232.038 5.19692 14.966 16.7414
386 2 2.2208 232.038 8.16645 17.7275 16.6475
387 2 2.2208 232.038 8.35853 15.1088 19.4374
388 2 2.2208 232.038 5.4925 17.6148 19.5238
389 2 2.2208 232.038 11.1999 14.9248 16.6271
390 2 2.2208 232.038 11.1949 17.9601 19.3193
391 1 -1.1104 15.9994 12.8579 22.2018 26.4118
392 2 2.2208 232.038 2.67721 23.4924 16.4906
393 2 2.2208 232.038 2.90878 20.3744 19.538
677 1 -1.1104 15.9994 9.93313 13.6909 26.451
395 2 2.2208 232.038 5.53717 20.766 16.7102
396 2 2.2208 232.038 8.46485 23.5019 16.9206
397 2 2.2208 232.038 8.39203 20.6868 19.5335
398 2 2.2208 232.038 5.51703 23.5906 19.4269
399 2 2.2208 232.038 11.2041 20.7264 16.7147
400 2 2.2208 232.038 11.108 23.4703 19.5188
401 1 -1.1104 15.9994 12.4548 16.5597 24.0479
402 2 2.2208 232.038 2.66417 0.683548 22.2359
650 1 -1.1104 15.9994 1.31005 19.0189 23.8634
404 1 -1.1104 15.9994 9.49383 19.4904 26.7016
653 1 -1.1104 15.9994 4.06244 19.2845 26.467
406 2 2.2208 232.038 8.33832 0.874967 22.2798
652 1 -1.1104 15.9994 1.06069 19.5964 26.5387
408 2 2.2208 232.038 5.48734 0.862923 25.1241
676 2 2.2208 232.038 8.21565 23.4051 27.8795
410 2 2.2208 232.038 11.2745 0.690226 25.1032
411 1 -1.1104 15.9994 6.63142 18.9723 26.7124
412 2 2.2208 232.038 2.77313 6.50006 22.3173
413 2 2.2208 232.038 2.87749 3.6741 25.2234
414 1 -1.1104 15.9994 9.80943 19.224 23.6955
415 2 2.2208 232.038 5.43011 3.57576 22.4491
416 2 2.2208 232.038 8.38226 6.50556 22.4401
417 2 2.2208 232.038 8.28728 3.5175 25.1626
418 2 2.2208 232.038 5.46007 6.69483 25.1647
419 2 2.2208 232.038 11.0921 3.68499 22.3187
420 2 2.2208 232.038 11.0637 6.31061 25.1544
421 1 -1.1104 15.9994 7.20489 19.0302 23.9741
422 2 2.2208 232.038 2.86784 12.1232 22.5425
423 2 2.2208 232.038 2.65155 9.26679 25.2817
424 1 -1.1104 15.9994 9.85745 16.5218 26.691
425 2 2.2208 232.038 5.66077 9.22079 22.4102
426 2 2.2208 232.038 8.31683 12.0985 22.4694
427 2 2.2208 232.038 8.4769 9.10355 25.2213
428 2 2.2208 232.038 5.65221 12.142 25.4867
429 2 2.2208 232.038 11.2024 9.30124 22.3506
430 2 2.2208 232.038 11.3093 12.258 25.0766
384 2 2.2208 232.038 -0.00309474 17.7255 19.5022
432 2 2.2208 232.038 2.46962 17.7583 22.3217
433 2 2.2208 232.038 2.66195 14.946 25.0041
9676 2 2.2208 232.038 -0.0574211 12.129 25.3365
435 2 2.2208 232.038 5.51389 14.8126 22.3138
436 2 2.2208 232.038 8.34674 17.6945 22.2358
437 2 2.2208 232.038 8.47195 14.9555 24.9769
438 2 2.2208 232.038 5.536 17.8606 25.0644
439 2 2.2208 232.038 11.3226 15.0608 22.2517
440 2 2.2208 232.038 11.1497 17.9898 25.4399
9673 2 2.2208 232.038 -0.167661 3.52703 22.4179
442 1 -1.1104 15.9994 12.7502 22.1261 23.6575
443 2 2.2208 232.038 2.60426 20.7723 25.0432
671 2 2.2208 232.038 8.38626 17.8101 27.9392
445 2 2.2208 232.038 5.64752 20.5859 22.3163
446 2 2.2208 232.038 8.25049 23.5627 22.3236
447 2 2.2208 232.038 8.50453 20.7197 25.1987
448 2 2.2208 232.038 5.42019 23.4272 25.0939
449 2 2.2208 232.038 11.2098 20.6338 22.2835
450 2 2.2208 232.038 11.1894 23.5128 25.0424
451 1 -1.1104 15.9994 1.34421 -0.59408 15.4661
452 1 -1.1104 15.9994 4.07952 -0.677921 15.4505
453 1 -1.1104 15.9994 1.19818 2.19491 15.2263
454 1 -1.1104 15.9994 4.0202 2.19613 15.3932
455 1 -1.1104 15.9994 6.8317 -0.626897 15.4052
456 1 -1.1104 15.9994 9.7733 -0.545304 15.4173
457 1 -1.1104 15.9994 6.92615 2.16525 15.3949
458 1 -1.1104 15.9994 9.81359 2.18462 15.2153
459 1 -1.1104 15.9994 12.6852 -0.604635 15.5329
460 1 -1.1104 15.9994 12.4465 2.49562 15.1663
461 1 -1.1104 15.9994 1.05309 5.09258 15.3203
462 1 -1.1104 15.9994 4.14547 5.01459 15.2828
463 1 -1.1104 15.9994 1.40178 7.71429 15.5053
464 1 -1.1104 15.9994 4.09745 7.85785 15.5281
465 1 -1.1104 15.9994 7.11719 4.84982 15.3017
466 1 -1.1104 15.9994 9.78329 5.02478 15.1897
467 1 -1.1104 15.9994 6.7921 7.64688 15.4935
468 1 -1.1104 15.9994 9.53327 7.82088 15.2801
469 1 -1.1104 15.9994 12.5402 5.2528 15.492
470 1 -1.1104 15.9994 12.3287 7.97274 15.4255
471 1 -1.1104 15.9994 1.17767 10.4273 15.3449
472 1 -1.1104 15.9994 3.94507 10.883 15.4323
473 1 -1.1104 15.9994 1.40034 13.4159 15.4234
474 1 -1.1104 15.9994 3.95585 13.6816 15.3231
475 1 -1.1104 15.9994 6.92156 10.605 15.1867
476 1 -1.1104 15.9994 9.72204 10.6752 15.2899
477 1 -1.1104 15.9994 6.7715 13.2567 15.3577
478 1 -1.1104 15.9994 9.67901 13.4657 15.3214
479 1 -1.1104 15.9994 12.497 10.5571 15.31
480 1 -1.1104 15.9994 12.6591 13.5471 15.0594
481 1 -1.1104 15.9994 1.51728 16.3537 15.3647
482 1 -1.1104 15.9994 4.05212 16.4912 15.309
483 1 -1.1104 15.9994 1.40335 19.1865 15.4536
484 1 -1.1104 15.9994 4.13833 19.1948 15.2323
485 1 -1.1104 15.9994 6.79628 16.2756 15.3691
486 1 -1.1104 15.9994 9.76078 16.2704 15.2062
487 1 -1.1104 15.9994 6.7192 19.1474 15.4626
488 1 -1.1104 15.9994 9.51829 19.0146 15.3255
489 1 -1.1104 15.9994 12.4607 16.5981 15.4448
490 1 -1.1104 15.9994 12.3537 19.2948 14.9991
491 1 -1.1104 15.9994 1.30431 22.1737 15.2846
492 1 -1.1104 15.9994 4.33929 22.4066 15.2452
493 1 -1.1104 15.9994 7.0684 21.941 15.2375
494 1 -1.1104 15.9994 9.82252 22.1482 15.6319
495 1 -1.1104 15.9994 12.4998 21.9924 15.2224
496 1 -1.1104 15.9994 1.46221 -0.647171 18.1853
497 1 -1.1104 15.9994 4.19079 -0.901179 18.3366
498 1 -1.1104 15.9994 1.44528 -0.675044 20.913
499 1 -1.1104 15.9994 4.16088 -0.794786 21.1128
500 1 -1.1104 15.9994 1.23746 2.4487 18.12
501 1 -1.1104 15.9994 4.07421 2.21869 18.1188
502 1 -1.1104 15.9994 1.18733 2.40708 20.8474
503 1 -1.1104 15.9994 4.01033 2.10347 20.868
504 1 -1.1104 15.9994 7.00617 -0.468185 18.0511
505 1 -1.1104 15.9994 9.8472 -0.503577 18.1921
506 1 -1.1104 15.9994 6.87059 -0.465889 20.9269
507 1 -1.1104 15.9994 9.5183 -0.710444 21.0331
508 1 -1.1104 15.9994 6.90551 2.32811 18.1862
509 1 -1.1104 15.9994 9.5693 2.38637 18.1693
510 1 -1.1104 15.9994 6.61934 2.35467 20.9309
511 1 -1.1104 15.9994 9.59394 2.09467 20.998
512 1 -1.1104 15.9994 12.5554 -0.71199 18.3079
513 1 -1.1104 15.9994 12.5619 -0.51642 20.9533
514 1 -1.1104 15.9994 12.4934 2.30279 18.0071
515 1 -1.1104 15.9994 12.532 2.33675 20.9431
516 1 -1.1104 15.9994 1.46655 5.34178 18.2704
517 1 -1.1104 15.9994 4.28305 5.10831 18.2594
518 1 -1.1104 15.9994 1.13702 5.19501 21.0171
519 1 -1.1104 15.9994 3.9875 5.17913 20.9245
520 1 -1.1104 15.9994 1.1375 8.19615 18.3505
521 1 -1.1104 15.9994 4.01988 8.0009 18.3753
522 1 -1.1104 15.9994 1.57469 7.69757 20.8177
523 1 -1.1104 15.9994 4.23318 7.97024 21.1039
524 1 -1.1104 15.9994 7.10556 5.33909 18.3511
525 1 -1.1104 15.9994 9.86774 5.16535 17.9582
526 1 -1.1104 15.9994 7.02092 5.03582 21.1846
527 1 -1.1104 15.9994 9.86003 4.99711 20.6124
528 1 -1.1104 15.9994 6.85268 8.06497 18.2193
529 1 -1.1104 15.9994 9.73324 7.90648 17.9279
530 1 -1.1104 15.9994 7.07458 7.67563 21.116
531 1 -1.1104 15.9994 9.85707 7.75472 20.8426
532 1 -1.1104 15.9994 12.7517 4.94306 18.0103
533 1 -1.1104 15.9994 12.7894 5.30311 20.9121
534 1 -1.1104 15.9994 12.7376 8.05494 18.1053
535 1 -1.1104 15.9994 12.4793 8.07703 20.9178
536 1 -1.1104 15.9994 1.48204 10.8338 18.3924
537 1 -1.1104 15.9994 4.41841 10.622 18.1966
538 1 -1.1104 15.9994 1.50345 10.7377 21.2701
539 1 -1.1104 15.9994 4.48875 10.5527 21.2763
540 1 -1.1104 15.9994 1.14889 13.5466 18.2285
541 1 -1.1104 15.9994 4.05184 13.4407 18.0562
542 1 -1.1104 15.9994 1.54462 13.3653 21.1015
543 1 -1.1104 15.9994 4.31792 13.4766 20.7374
544 1 -1.1104 15.9994 7.10938 10.6892 18.1072
545 1 -1.1104 15.9994 9.77661 10.7481 18.3055
546 1 -1.1104 15.9994 7.18401 10.5414 21.0615
547 1 -1.1104 15.9994 9.79773 10.8489 21.0852
548 1 -1.1104 15.9994 6.97571 13.5148 18.0783
549 1 -1.1104 15.9994 9.88171 13.6063 18.2359
550 1 -1.1104 15.9994 6.95475 13.3368 20.8822
551 1 -1.1104 15.9994 9.74707 13.6816 20.8511
552 1 -1.1104 15.9994 12.5226 10.6239 18.0764
553 1 -1.1104 15.9994 12.6195 10.9727 20.978
554 1 -1.1104 15.9994 12.6394 13.4828 18.1397
555 1 -1.1104 15.9994 12.7757 13.7885 21.0617
556 1 -1.1104 15.9994 1.28198 16.1873 18.2068
557 1 -1.1104 15.9994 3.90142 16.2916 18.3851
558 1 -1.1104 15.9994 1.21648 16.1299 21.0537
559 1 -1.1104 15.9994 4.03008 16.1847 21.0944
560 1 -1.1104 15.9994 1.43827 18.9016 18.2538
561 1 -1.1104 15.9994 4.23756 19.086 17.9352
562 1 -1.1104 15.9994 1.21798 19.0104 20.8834
563 1 -1.1104 15.9994 3.85713 18.8594 20.7525
564 1 -1.1104 15.9994 6.80496 16.2929 18.2139
565 1 -1.1104 15.9994 9.65842 16.4776 17.8896
566 1 -1.1104 15.9994 6.97542 16.371 20.8782
567 1 -1.1104 15.9994 9.71297 16.4376 20.6246
568 1 -1.1104 15.9994 6.95725 19.0694 18.0975
569 1 -1.1104 15.9994 9.67636 19.4635 18.118
570 1 -1.1104 15.9994 7.08319 19.3336 20.9469
571 1 -1.1104 15.9994 9.83499 19.3142 20.905
572 1 -1.1104 15.9994 12.4951 16.4449 18.0482
573 1 -1.1104 15.9994 12.6075 16.6449 21.1547
574 1 -1.1104 15.9994 12.4802 19.2156 17.8737
575 1 -1.1104 15.9994 12.6172 19.4393 20.7534
576 1 -1.1104 15.9994 1.20242 21.7407 20.4946
577 1 -1.1104 15.9994 3.67693 21.7584 17.847
9700 2 2.2208 232.038 -0.0420388 12.0811 19.7783
579 1 -1.1104 15.9994 4.41845 21.6259 20.7098
580 1 -1.1104 15.9994 6.82131 22.0528 17.9779
581 1 -1.1104 15.9994 9.74732 22.2678 18.1772
582 1 -1.1104 15.9994 6.88817 22.149 20.6323
583 1 -1.1104 15.9994 9.66757 21.9787 21.0891
584 1 -1.1104 15.9994 12.5518 22.0612 18.0536
585 1 -1.1104 15.9994 12.4685 22.0726 20.7135
586 1 -1.1104 15.9994 1.2959 -0.66745 23.6945
587 1 -1.1104 15.9994 3.95491 -0.564515 23.7401
588 1 -1.1104 15.9994 1.02271 -0.363786 26.8099
589 1 -1.1104 15.9994 3.97467 -0.403592 26.5973
590 1 -1.1104 15.9994 1.20006 1.95059 23.6275
591 1 -1.1104 15.9994 4.04496 2.23708 23.6157
592 1 -1.1104 15.9994 1.56332 2.49421 26.5237
593 1 -1.1104 15.9994 4.2403 2.23933 26.7627
594 1 -1.1104 15.9994 6.97069 -0.758866 23.6889
595 1 -1.1104 15.9994 9.72508 -0.66961 23.7269
596 1 -1.1104 15.9994 6.82582 -0.491551 26.4183
597 1 -1.1104 15.9994 9.63715 -0.443063 26.4955
598 1 -1.1104 15.9994 6.81336 2.1883 23.7459
599 1 -1.1104 15.9994 9.8445 2.07251 23.7733
600 1 -1.1104 15.9994 6.91504 2.25449 26.5518
601 1 -1.1104 15.9994 9.70674 2.24474 26.5516
602 1 -1.1104 15.9994 12.3838 -0.653452 23.4878
603 1 -1.1104 15.9994 12.6135 -0.653192 26.2855
604 1 -1.1104 15.9994 12.5426 2.25218 23.7379
605 1 -1.1104 15.9994 12.5316 2.15566 26.5244
606 1 -1.1104 15.9994 1.23246 5.10895 23.7148
607 1 -1.1104 15.9994 4.08834 5.01106 23.8167
608 1 -1.1104 15.9994 1.52914 5.14683 26.594
609 1 -1.1104 15.9994 4.18915 4.98779 26.5924
610 1 -1.1104 15.9994 1.38784 7.84226 23.8082
611 1 -1.1104 15.9994 4.09539 8.0014 23.897
612 1 -1.1104 15.9994 1.20106 7.88239 26.6643
613 1 -1.1104 15.9994 4.13354 7.87368 26.7835
614 1 -1.1104 15.9994 7.08833 4.96525 23.9209
615 1 -1.1104 15.9994 9.78187 4.95513 23.4455
616 1 -1.1104 15.9994 6.96165 4.87116 26.6514
617 1 -1.1104 15.9994 9.76985 5.00203 26.3458
618 1 -1.1104 15.9994 7.15777 7.80016 23.8198
619 1 -1.1104 15.9994 9.98868 7.78804 23.6778
620 1 -1.1104 15.9994 6.85833 7.73635 26.6678
621 1 -1.1104 15.9994 9.7085 7.70675 26.4735
622 1 -1.1104 15.9994 12.5126 5.05437 23.792
623 1 -1.1104 15.9994 12.5752 5.1417 26.7013
624 1 -1.1104 15.9994 12.7471 7.93122 23.7229
625 1 -1.1104 15.9994 12.4179 8.00873 26.5532
626 1 -1.1104 15.9994 1.36907 10.6679 23.9513
627 1 -1.1104 15.9994 3.96507 10.6166 23.8198
628 1 -1.1104 15.9994 1.38824 10.676 26.7217
629 1 -1.1104 15.9994 4.09981 10.8784 26.6557
630 1 -1.1104 15.9994 1.2764 13.5168 23.8021
631 1 -1.1104 15.9994 4.30062 13.5134 23.9712
632 1 -1.1104 15.9994 1.37801 13.645 26.5883
633 1 -1.1104 15.9994 4.49318 13.6523 26.7862
634 1 -1.1104 15.9994 6.83035 10.6141 24.0472
635 1 -1.1104 15.9994 9.49721 10.6771 23.7461
636 1 -1.1104 15.9994 7.06608 10.5703 26.666
637 1 -1.1104 15.9994 9.99712 22.2072 26.5618
638 1 -1.1104 15.9994 7.06283 13.5226 23.6662
639 1 -1.1104 15.9994 9.88394 13.4387 23.5584
640 1 -1.1104 15.9994 7.2944 13.6618 26.5902
641 1 -1.1104 15.9994 9.83901 10.8624 26.4782
642 1 -1.1104 15.9994 12.5411 10.5877 23.6576
643 1 -1.1104 15.9994 12.5147 10.8051 26.6189
644 1 -1.1104 15.9994 12.7369 13.5679 23.7299
645 1 -1.1104 15.9994 12.8421 13.6559 26.8564
646 1 -1.1104 15.9994 1.30064 16.2984 23.9075