ITEM: TIMESTEP
100000
ITEM: NUMBER OF ATOMS
18000
ITEM: BOX BOUNDS pp pp pp
-4.5441580644496166e-01 2.7794415806445116e+01
-5.3876431149914188e+00 3.3346764311497736e+02
-4.5278207286000449e-01 2.7792782072859541e+01
ITEM: ATOMS id type x y z
3673 2 5.23822 0.0175443 5.14258
5 2 1.95373 -2.70747 2.45403
6 1 0.674274 -0.75174 2.23772
19 1 5.19355 -0.354856 2.60354
14 2 5.77722 -2.67672 2.50232
10 1 2.69304 -4.292 3.96576
3604 2 2.52335 -2.71385 5.75001
12 1 2.38652 -0.907781 4.04964
3547 1 0.492478 -2.69712 0.494249
7147 1 0.416309 -4.56292 2.30754
3548 1 0.495061 -2.87272 4.36193
9 1 3.05148 -0.949495 0.684776
63 2 2.77033 0.53505 2.36862
3549 1 3.73984 -3.55938 1.29456
20 1 4.47575 -2.29464 4.22726
61 2 0.399717 -0.0602417 -0.209302
3661 2 -0.164104 0.308558 5.1703
3559 1 6.37497 -4.52782 1.25703
3551 1 6.5096 -1.4594 0.649513
3601 2 -0.412776 -5.29434 5.27492
3867 2 13.4204 17.1971 8.23568
3609 1 3.96544 -4.29586 6.69598
18 1 6.70149 -4.27754 4.03593
17 1 8.49935 -2.09884 1.89238
3685 2 10.8318 0.0259284 5.66282
29 2 10.5129 -3.07019 2.22625
31 1 13.1263 0.607376 0.520311
26 2 11.6929 0.181314 2.45571
21 1 11.2145 -1.42535 0.628437
75 2 7.5745 0.0999601 2.3018
3616 2 8.0995 -2.82606 5.27823
3564 1 9.40704 -4.20766 3.65068
3571 1 9.18126 -4.42898 0.693614
3572 1 12.1678 -3.87747 4.00302
14430 1 11.9619 -4.30889 0.901688
22 1 10.5265 -1.33978 3.74198
33 1 13.4421 -1.84248 2.26637
82 1 7.12289 -1.20631 4.09099
23 1 9.41456 0.857532 1.47106
3808 2 13.6385 14.2328 5.38172
30 1 12.8595 0.0725179 4.41671
3842 2 -0.352972 20.1499 8.18346
66 1 1.33657 1.89622 3.78898
7 1 1.25786 1.70991 0.880367
74 2 5.32504 3.14011 2.40025
69 1 4.1881 1.89345 3.9544
3664 2 2.67581 3.05005 5.22063
11 1 4.02422 1.75818 0.874219
3733 2 5.23999 5.90058 5.13559
126 1 0.980502 7.22313 3.79038
67 1 1.10813 7.2982 0.882318
68 1 1.15551 4.56892 3.65824
123 2 2.40592 6.05065 2.31685
71 1 3.95727 4.43169 1.14517
72 1 3.74313 4.70354 3.96994
65 1 1.13481 4.54876 0.922776
130 1 3.7963 7.25881 1.01391
138 1 3.84512 7.44581 3.79665
3729 1 3.87483 7.18409 6.64704
80 1 6.81753 7.21992 3.71765
3669 1 3.85293 1.54588 6.65271
3725 1 0.99721 7.23298 6.69193
185 2 2.49412 13.9833 -0.468762
244 2 2.43028 20.6672 -0.435454
78 1 6.54856 4.49324 3.68674
3677 1 6.52713 1.57523 6.64582
137 1 6.71114 7.31773 0.911001
14484 1 6.64542 4.55156 0.782336
77 1 6.7632 1.76528 0.876
70 1 7.01361 1.81562 3.75438
24 1 10.5653 1.56562 3.80881
32 1 13.0631 2.08672 2.71991
81 1 9.36542 4.2605 0.928827
89 1 11.5218 2.44001 0.308729
90 1 12.1216 4.47579 3.90983
86 2 10.9353 3.42751 2.25979
3676 2 7.95672 2.97341 5.46046
3745 2 10.8879 5.97447 5.17874
91 1 12.1064 5.24515 1.2316
92 1 12.5032 7.29336 3.73134
135 2 8.05753 5.66174 2.28318
83 1 9.4144 4.3888 3.65698
141 1 9.71391 7.20984 1.01088
142 1 9.52476 7.30813 3.80968
3749 1 12.1422 7.36487 6.66118
3737 1 6.81281 7.17895 6.52271
3681 1 9.28348 1.54389 6.75764
3741 1 9.39947 7.08446 6.60383
265 2 10.9594 17.2433 -0.374984
3793 2 5.2241 11.5487 5.16937
125 1 1.22259 10.1192 1.05734
127 1 0.943251 12.9104 1.11604
134 2 5.31438 8.6723 2.3663
128 1 1.05154 9.91697 3.83175
183 2 2.51783 11.6298 2.41894
3724 2 2.46698 8.6489 5.20596
131 1 3.94892 12.8962 0.748021
132 1 3.97695 10.175 3.66263
186 1 1.08883 12.8493 3.89464
190 1 3.93646 12.828 3.64668
129 1 4.15289 10.1847 0.94251
198 1 6.52473 12.9849 3.59405
197 1 6.51103 13.0681 0.907034
3721 2 -0.302755 5.90036 5.10689
28 2 13.3717 -2.3675 -0.194909
140 1 6.81967 10.1344 4.07127
139 1 7.065 10.1487 1.08342
14492 1 12.1855 10.1965 3.72934
3805 2 10.7683 11.6378 5.3526
149 1 12.3802 10.0458 0.969137
151 1 12.2344 12.9592 1.06094
146 2 10.8102 8.62826 2.38414
195 2 8.12734 11.6083 2.51491
3736 2 8.28783 8.69646 5.44013
143 1 9.64993 10.1042 1.10681
144 1 9.56132 10.2734 4.0419
210 1 12.2354 12.9399 3.8967
201 1 9.33812 12.967 1.18041
202 1 9.52002 13.0546 3.91923
3743 1 9.59181 10.0244 6.90213
7321 2 -0.364987 5.81638 10.7292
152 1 12.3282 10.1592 6.62086
3722 2 -0.428114 8.64619 7.99175
7442 2 -0.398004 20.136 13.6109
3868 2 13.6689 19.9763 5.2882
196 2 8.15481 14.3471 -0.218971
3784 2 2.40133 14.4252 5.00944
194 2 5.14952 14.6733 2.2879
249 1 2.83095 19.1702 1.5002
3853 2 5.31596 17.2426 5.33652
246 1 0.843612 18.8412 3.51479
254 2 4.88179 20.0924 2.44349
188 1 0.631131 15.6758 3.95024
243 2 2.41646 17.1464 3.05728
250 1 3.91537 18.8017 3.92224
3844 2 2.36732 20.0845 5.19653
191 1 4.39277 17.0915 1.50707
3791 1 2.34366 17.0742 5.33965
192 1 2.62773 15.1437 1.79128
14586 1 0.674505 16.8589 1.32465
200 1 4.11216 15.779 4.11089
3841 2 -0.450023 17.3517 5.26975
204 1 6.62069 15.8848 3.73931
184 2 2.43174 17.4844 -0.092644
3602 2 -0.43644 -2.71582 8.22913
3845 1 0.894894 18.8014 6.63535
257 1 6.74742 18.7628 1.21385
258 1 6.64661 18.75 4.0348
199 1 6.84373 15.9234 0.934665
206 2 10.9385 14.4473 2.56623
3796 2 8.0555 14.4334 5.28705
3809 1 9.46584 15.8418 3.977
3865 2 10.7782 17.3648 5.23461
269 1 12.3853 18.7256 1.02572
270 1 12.2517 18.7114 3.92335
211 1 12.0986 15.8516 1.11716
212 1 12.2434 15.804 3.9539
261 1 9.49204 18.6618 1.03266
255 2 7.9063 17.4043 2.51516
262 1 9.30048 18.8083 3.81626
3856 2 8.06512 20.271 5.18964
203 1 9.45396 15.8436 1.12864
266 2 10.8015 20.1616 2.41764
259 2 7.92254 20.2843 -0.0449659
3811 1 12.3144 15.4582 6.88514
122 2 -0.400698 8.66091 2.43969
3657 1 0.94053 -3.96815 6.82605
3611 1 3.9308 -1.11029 6.77227
8 1 1.00991 -1.05599 6.71763
3605 1 1.04232 -4.07672 9.51398
7273 2 5.271 0.250785 10.8909
7205 1 0.950093 -4.08028 12.1556
3606 1 1.05542 -1.11179 9.42457
7207 1 0.854143 -1.01961 12.1028
3614 2 5.4125 -2.66293 8.17347
7209 1 3.76997 -4.03706 12.2544
3663 2 2.4405 0.349712 8.19296
3610 1 3.81281 -4.18077 9.40508
7204 2 2.41732 -2.54841 10.9422
7211 1 3.87126 -1.18815 12.4102
3612 1 3.89385 -1.27012 9.51033
7217 1 6.56173 -4.23266 12.2597
3620 1 6.58019 -1.14606 9.48322
242 2 -0.572103 20.1945 2.42533
7226 2 10.9176 -2.64646 13.6168
7219 1 6.7436 -1.34101 12.3034
3619 1 6.67995 -1.44116 6.60942
3631 1 12.3599 -1.20941 6.78632
3623 1 9.40485 -1.34782 6.67075
3617 1 6.60797 -4.32993 6.87179
3629 1 12.1946 -4.16955 6.70195
3621 1 9.43808 -4.12385 6.50383
3618 1 6.76225 -4.01445 9.59368
7285 2 11.0228 0.417392 10.7699
7229 1 12.2363 -4.13004 12.5033
7231 1 12.4597 -1.11069 12.1148
3626 2 10.8802 -2.595 8.10918
3632 1 12.3153 -1.13732 9.49956
7221 1 9.51382 -3.94634 12.183
3675 2 7.97486 0.151369 7.99613
3622 1 9.50465 -3.98697 9.38433
7216 2 8.21219 -2.52273 10.9285
7223 1 9.77549 -1.02922 12.2759
3624 1 9.43733 -1.21016 9.52615
7172 1 12.3458 -4.00087 9.62354
136 2 8.17994 8.57843 -0.388011
3870 1 12.2792 18.6787 9.58133
3671 1 3.80156 4.46915 6.75217
3667 1 0.993487 4.5826 6.36616
121 2 -0.317245 5.87883 -0.515714
3665 1 0.97738 1.92722 6.67134
7265 1 1.16108 1.78594 12.2898
3666 1 0.938343 4.33833 9.31706
3674 2 5.10666 3.0761 8.00707
3608 1 1.24526 1.73169 9.51893
7269 1 3.99625 1.68812 12.2501
3670 1 3.95673 1.63417 9.50976
7264 2 2.58979 3.09458 10.8791
3668 1 0.932851 7.3295 9.41335
7333 2 5.17599 5.91317 11.0034
7325 1 0.881795 7.10115 12.3011
7267 1 1.11774 4.46734 12.224
7329 1 3.83477 7.40168 12.4406
3723 2 2.50683 5.98706 7.98773
3730 1 3.74476 7.17138 9.60329
7271 1 4.02186 4.50035 12.2391
3672 1 4.00224 4.42645 9.58436
3662 2 -0.378348 3.20299 7.93413
84 1 6.35373 4.37707 6.48535
3689 1 12.0578 1.55058 6.6896
7277 1 6.73948 1.50498 12.2902
3691 1 9.76635 4.36587 6.6355
3678 1 6.71673 1.54961 9.43679
7337 1 6.78127 7.28218 12.3161
7279 1 6.83197 4.55808 11.9825
3679 1 6.70609 4.33424 9.13886
3680 1 6.57529 7.2822 9.5791
3695 1 12.3091 4.58535 6.59337
3683 1 12.2895 7.6155 9.42178
7289 1 12.2296 2.07475 12.0556
3690 1 12.5596 1.89589 9.41025
3686 2 10.8622 3.208 8.15029
7281 1 9.60219 1.57045 12.3259
3682 1 9.53777 1.5464 9.5207
7276 2 8.08487 3.06542 10.6818
3684 1 9.37177 4.59944 9.50396
7283 1 9.8899 4.4926 12.0082
3735 2 8.0291 5.93011 8.24199
7345 2 10.9548 6.10859 10.8716
7291 1 12.2004 4.69066 9.46328
7341 1 9.48599 7.42843 12.45
3742 1 9.51157 7.30332 9.40011
7349 1 12.1867 7.36061 12.2593
7312 2 -0.407273 0.333192 10.7686
7322 2 -0.294303 8.65047 13.6295
3727 1 1.05347 10.0353 6.615
3797 1 3.59084 13.1348 6.73707
3731 1 3.84238 10.0986 6.52312
182 2 -0.474835 14.6282 2.0608
3785 1 0.803957 12.8783 6.96315
3789 1 4.03441 12.5716 9.15646
7393 2 5.32251 11.6445 11.0548
3726 1 1.13874 10.0666 9.55303
7327 1 0.973141 10.0999 12.3647
3734 2 5.24354 8.66909 8.02237
3728 1 1.45245 12.8726 9.77402
3783 2 2.35599 11.2287 8.08443
7324 2 2.32049 8.47535 10.9021
7331 1 3.8396 10.2502 12.4437
3732 1 3.75821 9.83913 9.45913
7389 1 3.79066 12.9385 12.44
7385 1 1.11661 13.0346 12.6369
3801 1 6.47281 12.9169 6.508
3739 1 6.77674 10.0317 6.86042
62 2 -0.102197 3.1249 2.26154
7397 1 6.72613 12.8459 12.3738
3802 1 9.22994 12.9931 6.59586
7339 1 6.8283 10.0359 12.4776
3738 1 6.59501 10.2003 9.57773
150 1 12.1858 12.9074 6.68904
3740 1 6.81701 12.8925 9.51354
3751 1 12.189 12.9858 9.4995
7401 1 9.45309 13.0228 12.368
3744 1 9.63219 10.1471 9.68627
7343 1 9.77503 10.2673 12.4419
7336 2 8.0513 8.85756 10.9031
3795 2 8.10984 11.4565 8.18355
7405 2 10.945 11.6258 11.0242
3750 1 12.3598 10.1412 9.30189
7351 1 12.5157 10.1869 12.2208
3746 2 10.9433 8.74202 8.14773
7409 1 12.2932 13.0741 12.3566
3810 1 9.42097 12.9419 9.5013
7399 1 6.75063 15.6047 12.5653
7381 2 -0.329409 11.5628 10.9547
3800 1 6.73856 15.7794 9.57043
3798 2 5.55858 14.2916 8.12309
7384 2 2.53862 14.5293 11.5098
7441 2 -0.108284 17.0085 10.9252
3849 1 3.97488 18.9204 6.67322
3794 2 2.32442 14.3284 8.32325
3787 1 0.772137 15.5339 7.06231
3790 1 4.08996 15.1859 9.8622
7444 2 2.60858 20.1113 10.8555
7449 1 3.82714 18.7498 12.4519
3846 1 1.12503 18.8907 9.63902
3788 1 1.59976 15.9299 9.71117
3854 2 5.34245 20.2233 8.02398
7445 1 1.13315 18.5023 12.2328
7453 2 5.38055 17.3587 10.9317
3850 1 3.98275 18.6064 9.46094
3843 2 2.39784 17.6825 7.90872
3792 1 3.80921 15.769 7.33737
7387 1 1.14461 15.7785 12.6896
7391 1 3.84718 16.0864 12.5107
3858 1 6.77785 18.6126 9.57208
3862 1 9.60665 18.545 9.57679
3804 1 9.60284 15.5669 9.6729
7411 1 12.4354 15.8518 12.4872
3861 1 9.48271 18.5462 6.76961
3869 1 12.0092 18.3185 6.70242
3803 1 9.44069 15.7817 6.80915
7403 1 9.53137 15.6743 12.3806
7457 1 6.57953 18.3589 12.439
3806 2 10.8898 14.3623 8.25329
3814 1 12.3106 15.8175 9.73327
3799 1 6.59603 15.7135 6.70972
3857 1 6.66918 18.5749 6.9154
7396 2 8.0474 14.3607 10.9991
7456 2 8.27491 19.9447 11.1217
3866 2 10.9091 20.036 8.21961
7461 1 9.59547 18.5403 12.4311
7469 1 12.253 18.5086 12.4614
3855 2 8.0616 17.241 8.10482
7465 2 11.0531 17.0592 11.1219
3688 2 13.5088 2.88308 5.14387
205 2 10.845 11.651 -0.382658
7468 2 13.6761 19.9545 11.1934
7348 2 13.776 8.51628 10.9965
187 1 0.579724 19.1133 -0.369905
7335 2 8.11709 5.94725 13.5972
7275 2 8.07409 0.134594 13.6113
10873 2 5.24846 0.220742 16.5347
10805 1 1.0347 -4.02714 17.8965
7206 1 1.15083 -3.97271 15.0833
10807 1 1.17627 -1.27257 17.9181
10814 2 5.35441 -2.43524 19.3121
7208 1 0.992839 -1.06652 15.0114
10809 1 3.88041 -4.04849 17.8864
10863 2 2.46929 0.287495 19.2315
7210 1 3.87503 -4.03464 15.1853
10804 2 2.51078 -2.65743 16.4596
10811 1 3.87197 -1.15102 17.877
7212 1 3.75888 -1.09156 15.1354
11042 2 -0.426684 20.0157 19.4696
7274 2 5.26818 2.9637 13.7453
10817 1 6.86135 -3.91388 17.8227
7466 2 11.0268 20.1464 13.8436
10812 1 4.00322 -1.03773 20.5922
10808 1 1.25787 -1.14777 20.783
14521 2 -0.340831 5.77438 22.1016
10819 1 6.78631 -1.03236 17.8359
7218 1 6.72189 -3.9028 15.0621
7220 1 6.54922 -0.999638 14.9735
10885 2 10.9463 0.258673 16.4801
10829 1 12.524 -3.86461 17.9756
7230 1 12.1782 -4.04388 15.142
10831 1 12.4669 -1.06744 17.7186
10826 2 11.0288 -2.52295 19.1938
7232 1 12.4244 -1.23638 15.0574
10821 1 9.62789 -4.02162 17.7274
10875 2 8.1093 0.363945 19.2543
7222 1 9.44521 -3.94045 14.9506
10816 2 8.1538 -2.54921 16.3954
10823 1 9.61343 -1.20095 17.8021
7224 1 9.46269 -1.36082 14.9086
10824 1 9.32581 -0.976853 20.5346
14670 1 12.4291 18.6562 26.4272
10832 1 12.321 -1.14285 20.7125
10830 1 12.3845 -3.93884 20.72
10869 1 3.96735 1.68628 17.8598
10865 1 1.11645 1.68511 17.7896
7266 1 0.823974 1.73573 14.917
10874 2 5.33868 3.04579 19.266
7270 1 3.78852 1.54493 15.0373
10864 2 2.34909 3.19368 16.42
10933 2 5.31617 5.77657 16.4729
10925 1 1.07244 7.60464 17.8491
7326 1 0.954928 7.14943 15.151
10867 1 1.17306 4.51883 17.8472
7268 1 1.1134 4.64781 14.9389
10923 2 2.66621 5.96976 19.3287
10871 1 4.00972 4.39644 17.8452
7272 1 3.92061 4.3806 15.0615
10929 1 3.9418 7.23329 17.8089
7330 1 3.78978 7.28644 15.2132
10872 1 3.83355 4.33182 20.7846
14665 2 10.8361 17.2012 22.2168
10921 2 -0.324374 5.84032 16.5217
10930 1 3.78119 7.31138 20.7253
10868 1 1.08527 4.5205 20.6681
10870 1 3.95895 1.52211 20.5543
64 2 2.52787 3.15918 27.8357
7334 2 5.40297 8.88623 13.795
7280 1 6.77217 4.2932 14.8884
7338 1 6.64273 7.19453 15.2372
10879 1 6.6346 4.46125 17.8865
10877 1 6.69 1.64557 17.9273
7278 1 6.74407 1.69913 15.0693
10878 1 6.79666 1.69615 20.7086
10937 1 6.68584 7.43743 17.9202
7290 1 12.2932 1.46612 15.0333
10881 1 9.54159 1.76742 17.9307
10889 1 12.296 1.71631 17.9519
10886 2 10.9736 3.2045 19.2534
7282 1 9.53884 1.42799 15.2809
10876 2 8.04087 3.13013 16.5145
10945 2 10.8827 5.76829 16.4737
10949 1 12.4817 7.48415 18.182
10891 1 12.4262 4.5189 17.9502
7292 1 12.1261 4.15443 15.0308
10941 1 9.53712 7.16887 17.9536
10935 2 8.08859 6.05829 19.3419
7342 1 9.44734 7.36511 15.0626
10883 1 9.49866 4.54402 17.7909
7284 1 9.43914 4.40882 15.0203
7350 1 12.2039 7.3833 15.5275
10938 1 6.50655 7.24771 20.814
7286 2 10.968 2.92343 13.6339
10942 1 9.54406 7.40424 20.797
10892 1 12.4515 4.44783 20.7517
10890 1 12.4653 1.56217 20.7187
10862 2 -0.279977 3.14493 19.3421
10993 2 5.395 11.6979 16.4982
10927 1 1.07155 10.2169 17.7998
10934 2 5.21981 8.71174 19.4241
7328 1 1.01966 9.88047 15.1051
10983 2 2.52944 11.5847 19.3177
10924 2 2.49163 8.74004 16.4629
10931 1 3.86765 10.1702 18.0093
7332 1 3.97961 10.1983 15.3422
10985 1 0.694043 13.1168 17.9084
7386 1 1.10189 12.7866 15.2721
10989 1 3.76411 12.9728 17.7298
7390 1 3.90008 12.9527 15.0292
10928 1 1.01673 9.98104 20.5358
10981 2 -0.333998 11.3957 16.4936
10932 1 3.89337 10.1731 20.8405
7263 2 2.30296 0.217887 13.741
14656 2 8.04055 19.9448 21.8562
10990 1 3.95559 13.1802 20.7308
10986 1 1.28556 12.8822 20.725
14402 2 -0.359343 -2.64836 24.8152
7340 1 6.96095 9.99223 15.0289
7398 1 6.80743 13.0802 15.2616
10939 1 6.52115 10.2176 18.0681
10997 1 6.67846 13.053 18.0019
11005 2 11.1087 11.5481 16.4796
10951 1 12.2093 10.1412 17.7246
10946 2 10.9085 8.73271 19.2987
7352 1 12.4166 10.1532 14.9453
10995 2 7.98976 11.6268 19.3225
10936 2 8.20518 8.73442 16.5907
10943 1 9.41131 9.9436 18.1067
7344 1 9.7327 10.1359 15.2954
11009 1 12.582 13.0112 17.8927
7410 1 12.4 12.9185 15.015
11001 1 9.6584 12.8058 17.9166
7402 1 9.53769 13.0539 15.0971
10952 1 12.3905 10.1556 20.772
7455 2 8.01776 17.2879 13.7509
10998 1 6.67194 12.8812 20.8919
10984 2 2.16044 14.3824 16.6401
10994 2 5.12994 14.516 19.2831
11053 2 5.09045 17.1099 16.5811
11045 1 1.19412 18.6854 17.9236
7446 1 0.734367 18.6034 15.1791
10987 1 1.12702 15.7961 18.1255
11054 2 5.13483 20.0855 19.4505
7388 1 0.818245 15.6274 15.3372
11049 1 3.83948 18.5866 18.0481
11043 2 2.31991 17.1894 19.3316
7450 1 3.47049 18.5744 15.3421
11044 2 2.24545 20.1174 16.383
10991 1 3.95269 15.7938 17.9295
7392 1 3.58884 15.5863 15.3095
10988 1 0.93987 15.8241 20.6676
7394 2 5.14328 14.4238 13.8839
10992 1 3.49938 15.6964 20.6044
189 1 3.90747 15.89 27.6473
124 2 2.3109 8.73945 27.603
16 2 8.27371 -2.69702 27.8183
10803 2 2.45137 -5.22469 19.2342
7454 2 5.18967 20.1957 13.744
11057 1 6.70488 18.4605 17.7856
10999 1 6.81019 15.7445 18.2662
7458 1 6.4624 18.487 15.1512
7400 1 6.4633 15.588 15.4976
10996 2 8.29379 14.4902 16.7486
11006 2 11.0821 14.4437 19.4906
11065 2 10.968 17.4965 16.4707
11069 1 12.4065 18.7843 18.0452
7470 1 12.443 18.5955 15.0373
11011 1 12.4548 15.8754 18.2238
11066 2 11.0135 20.1705 19.4015
7412 1 12.2137 15.7031 15.2933
11061 1 9.4846 18.7601 17.9883
11055 2 8.08408 17.2925 19.3218
7462 1 9.53248 18.6511 15.2385
11056 2 8.06233 20.0625 16.4592
11003 1 9.85897 16.0984 17.9988
7404 1 9.55685 15.8491 15.2991
11070 1 12.2927 18.5599 20.9283
11012 1 12.1487 15.5127 21.2457
14667 2 13.7102 17.2866 25.0113
10810 1 4.06992 -3.92356 20.6754
10806 1 1.07057 -3.93785 20.5298
14461 2 -0.121583 0.157333 22.0745
4 2 2.52077 -2.85654 27.3821
17948 1 1.09571 -1.42292 26.3287
17960 1 4.17127 -3.97107 26.2131
14473 2 5.31641 0.240072 22.1238
14405 1 1.11039 -4.02338 23.4252
14407 1 0.957017 -1.27897 23.6717
14414 2 5.48114 -2.65726 24.7893
14409 1 3.93727 -3.91724 23.3051
14463 2 2.63859 0.133319 24.6872
14410 1 1.14921 -4.18354 26.0611
14404 2 2.5421 -2.58554 21.9926
14411 1 3.90969 -1.27352 23.4608
14412 1 3.81439 -1.26416 26.2059
14611 1 12.3367 15.8902 23.8186
7323 2 2.5281 5.85761 13.6832
10820 1 6.71455 -1.23587 20.8785
7395 2 8.24907 11.5971 13.8132
10818 1 6.74618 -3.92042 20.6149
14419 1 6.80188 -1.16399 23.4541
10822 1 9.73371 -3.93284 20.5491
14417 1 6.84299 -3.90763 23.5564
17964 1 6.80467 -3.95089 26.2163
14418 1 6.94061 -1.13804 26.4139
85 2 10.9072 0.451817 27.6762
14485 2 11.0048 0.272096 22.0233
14429 1 12.5552 -3.96499 23.516
14431 1 12.3821 -1.02466 23.6612
14426 2 11.1548 -2.61538 24.9515
14432 1 12.2656 -1.08227 26.3806
14421 1 9.73759 -4.12932 23.4703
14475 2 8.22179 0.16359 24.7612
14422 1 9.73249 -4.19046 26.1205
14416 2 8.27634 -2.54794 21.9151
14423 1 9.60687 -1.22445 23.3945
14424 1 9.72827 -1.1288 26.3267
14434 1 12.5895 -3.93867 26.4467
11008 2 13.744 14.4565 16.4627
10926 1 1.10351 7.22595 20.6927
14603 1 9.4282 15.877 23.5497
10866 1 1.041 1.69841 20.7996
14470 1 3.86751 1.616 26.3117
14468 1 0.979042 7.05927 26.293
14465 1 1.14077 1.49819 23.5908
14466 1 3.85853 4.55935 26.5267
14474 2 5.23848 3.13369 25.0017
14408 1 1.15278 1.64234 26.4049
14469 1 3.94356 1.56569 23.4392
14464 2 2.54081 2.94505 22.0281
14533 2 5.31878 5.79093 22.207
14525 1 1.00161 7.05966 23.4628
14467 1 1.10159 4.33348 23.4824
14523 2 2.38729 5.83387 25.0247
14471 1 3.81743 4.36771 23.5092
14472 1 3.74128 7.37769 26.4707
14514 1 1.03659 4.46461 26.4769
14529 1 3.97211 7.19813 23.6347
14538 1 6.73901 7.28646 26.3836
14480 1 6.48579 4.51583 26.3963
14420 1 6.66909 1.58049 26.2012
10880 1 6.70751 4.53115 20.5955
10884 1 9.42017 4.59199 20.5769
14462 2 -0.394666 2.90466 25.0729
14479 1 6.62005 4.25657 23.6148
14537 1 6.87901 6.89898 23.594
14477 1 6.83589 1.52637 23.4793
10882 1 9.52565 1.73073 20.7227
10950 1 12.4461 7.43115 20.9404
14478 1 9.40304 4.3175 26.494
14489 1 12.4403 1.68372 23.2851
14490 1 12.4252 1.58614 26.0178
14481 1 9.54742 1.63683 23.3307
14482 1 9.35913 1.56122 26.4262
14476 2 8.02188 3.16322 22.0399
76 2 10.8757 2.91324 24.8499
14486 1 12.4379 4.60003 26.5359
14483 1 9.56122 4.44591 23.5712
14542 1 9.58856 7.12059 26.2826
14535 2 8.18812 5.78834 24.9374
14545 2 10.9738 5.92576 22.0935
14549 1 12.2386 7.14562 23.9526
14491 1 12.3523 4.54713 23.6375
14541 1 9.54744 7.39708 23.5742
14550 1 12.1939 7.63884 26.9324
145 2 10.9529 5.86634 27.7053
133 2 5.2748 5.91506 27.8401
14600 1 6.65525 15.5035 26.4144
7443 2 2.42104 17.326 13.7785
11058 1 6.55175 18.6871 20.6188
14581 2 -0.256583 11.4477 21.6926
175 1 0.525144 13.1104 23.6664
14528 1 0.851374 12.0897 26.6157
14638 1 1.47205 10.6935 23.0486
14593 2 5.28817 11.6372 22.2236
14534 2 5.33155 8.60956 25.1123
14583 2 2.68255 11.4187 25.0174
14530 1 1.23134 9.63299 25.3434
14524 2 2.43573 8.69789 22.1405
14531 1 4.12802 10.1601 23.8186
14532 1 3.90479 9.92094 26.5481
14589 1 3.5971 13.0246 23.4648
14590 1 4.00292 12.8181 26.3387
14663 1 9.53373 19.0863 23.5046
14598 1 6.65809 12.8817 26.4844
10940 1 6.81857 10.1353 20.779
11002 1 9.58303 13.2358 20.7625
10944 1 9.49507 10.2276 20.8071
14540 1 6.94686 10.0901 26.404
14597 1 6.47214 13.0255 23.7821
11010 1 12.3733 12.8278 20.9918
14539 1 6.92674 10.1742 23.5643
14609 1 12.3935 12.985 23.7226
14601 1 9.40182 13.0177 23.5622
14602 1 9.41149 13.0085 26.3852
14610 1 12.0681 13.112 26.6284
14544 1 9.71249 10.0483 26.5225
14543 1 9.81443 10.3752 23.6599
14536 2 8.19838 8.76512 22.1412
14595 2 8.06272 11.653 24.9921
14605 2 11.0727 11.4741 22.1303
14551 1 12.4979 10.098 23.6318
14546 2 10.957 8.77825 25.083
14552 1 12.625 10.2112 26.4894
73 2 5.02465 0.197177 27.7762
256 2 8.1474 20.0467 25.013
10861 2 -0.401361 0.271888 16.4287
11050 1 3.66068 18.385 20.9122
11046 1 0.857866 18.4631 20.8285
14584 2 2.38439 14.4494 22.1671
14642 2 -0.233072 20.0796 25.1196
14592 1 2.64627 14.7635 25.6611
14594 2 4.98703 14.435 25.0676
14582 2 -0.132101 14.7782 25.213
14653 2 5.30553 17.253 22.2001
14645 1 1.01286 18.4655 23.7344
14654 2 4.77242 19.7538 25.2705
14643 2 2.59215 17.1382 24.7644
14657 1 4.87592 17.3942 25.493
245 1 2.41957 19.2096 25.9323
14644 2 2.3585 19.9443 22.1439
14591 1 3.81941 15.7333 23.4109
14587 1 0.974476 15.9074 23.5053
14649 1 3.77625 18.6629 23.5372
14646 1 0.937361 16.8201 26.4496
14599 1 6.67108 15.734 23.5241
209 2 10.8043 14.387 24.96
7346 2 11.0699 8.63456 13.8487
14604 1 9.65999 18.5932 26.1666
14612 1 12.2719 15.9104 26.5827
14661 1 6.74636 18.7245 23.6398
11004 1 9.4501 15.8892 20.9212
14669 1 12.2599 18.869 23.6713
14666 2 11.2609 20.345 25.0983
11062 1 9.4699 18.6049 20.7731
14596 2 7.94412 14.3373 22.1645
14658 1 7.26887 18.6052 26.6104
14606 1 9.43697 15.8457 26.5976
14655 2 7.93258 16.6849 25.0738
11000 1 6.46138 15.8521 20.8321
14401 2 -0.228605 -5.26326 22.0262
79 2 7.95192 3.03291 27.6082
7202 2 -0.490031 -2.69126 13.6912
7406 2 10.8866 14.4135 13.8193
88 2 13.6929 2.70783 27.5969
11041 2 -0.292263 17.1806 16.6053
10802 2 -0.368083 -2.55598 19.0106
14641 2 -0.345849 17.1847 22.1791
193 2 5.40359 11.5631 27.6963
7214 2 5.22586 -2.63553 13.7925
14585 1 -0.161539 14.7277 27.7237
1 2 -0.254217 -5.35749 27.7686
253 2 5.68811 17.3306 27.8882
7383 2 2.40867 11.6308 13.8015
14650 1 4.42232 19.1329 27.548
3913 2 5.16656 22.9009 5.17033
305 1 1.03817 24.4241 1.10146
306 1 0.978109 24.5668 3.84912
247 1 0.778688 21.6078 1.07122
314 2 5.07266 25.8564 2.59355
248 1 0.928392 21.5475 3.9499
309 1 3.83032 21.8685 1.0684
303 2 2.33174 23.1143 2.63661
310 1 3.88822 24.4406 3.8608
3904 2 2.40694 25.8282 5.34258
252 1 3.7195 21.6555 3.77366
377 1 3.60349 24.5951 0.942771
14778 1 4.02199 27.4866 1.39988
312 1 3.61361 27.2515 3.9651
3909 1 3.66324 24.482 6.60987
311 1 1.0656 27.043 1.13865
308 1 0.803507 27.1991 4.03752
3847 1 1.03737 21.3109 6.70013
3907 1 0.972851 27.2041 6.69421
260 1 6.41512 21.4869 3.84574
14720 1 6.35204 24.4906 1.19257
7514 2 5.35639 25.644 13.6719
3905 1 0.99793 24.2985 6.59334
3911 1 3.96027 27.3124 6.72799
251 1 6.37615 21.4878 1.09324
318 1 6.65029 24.3524 3.82167
319 1 6.73202 27.1687 0.565377
3917 1 6.70704 24.1892 6.6021
3925 2 11.0061 22.8964 5.19472
329 1 12.2131 24.2092 0.90909
330 1 12.3428 24.3681 3.68174
271 1 12.2063 21.5737 0.879451
326 2 10.9309 25.7047 2.43971
272 1 12.2062 21.6992 3.80756
321 1 9.40087 24.6047 1.26038
315 2 7.96278 22.89 2.46915
322 1 9.50625 23.9786 3.81258
3916 2 7.99581 25.6198 5.26466
263 1 9.36408 21.4473 1.08729
264 1 9.31461 21.5728 3.78138
332 1 12.2675 27.3152 3.80237
3859 1 6.71326 21.5418 6.52194
3929 1 12.3094 24.5988 6.89329
3931 1 12.4106 27.2866 6.62054
324 1 9.4086 27.082 3.76539
331 1 12.4178 27.1514 1.00846
320 1 6.60499 27.0339 3.77209
3871 1 12.3927 21.6313 6.66532
3921 1 9.39262 24.2496 6.51619
4111 1 12.3372 44.2099 9.61948
3987 2 13.4354 28.7686 8.1158
367 1 1.06723 30.4658 0.98397
3973 2 5.2716 28.5941 5.13827
363 2 2.40747 28.6853 2.76408
374 2 5.26289 31.7189 2.36226
368 1 1.1983 32.646 3.71464
369 1 3.71502 30.2333 1.14174
370 1 3.99725 30.1192 3.85047
3964 2 2.5032 31.3208 5.24529
372 1 3.97349 32.9172 3.86056
3965 1 1.05773 30.0617 3.88319
425 1 0.848748 33.0947 1.03532
429 1 3.82614 32.9829 0.991428
3971 1 4.03351 32.8659 6.56146
3961 2 -0.446609 28.7324 5.32953
3977 1 6.71427 29.7569 6.42563
365 2 0.338276 28.5773 -0.210904
3966 1 0.890369 29.9325 6.7004
3923 1 9.56394 27.1838 6.6854
378 1 6.66966 29.9936 3.46734
379 1 6.76911 29.7807 0.651676
323 1 9.69534 27.3796 0.880397
380 1 6.78239 32.7321 3.62889
371 1 6.67622 32.9367 0.810627
3985 2 10.8889 28.4343 5.32399
375 2 8.23417 28.5246 2.53944
390 1 12.425 29.9768 1.1369
391 1 12.5618 32.7805 0.939084
386 2 11.1755 31.3105 2.40497
392 1 12.4293 32.957 3.78108
381 1 9.54442 29.963 0.925593
382 1 9.41425 29.9568 3.73185
3976 2 8.07832 31.4086 5.14781
383 1 9.50114 32.9662 0.783399
384 1 9.75775 32.7912 3.6654
3989 1 12.334 30.0417 4.02685
433 2 5.26246 34.3742 -0.467469
3962 2 -0.29642 31.4923 8.06704
389 2 11.2821 28.5248 -0.517092
373 2 4.79864 28.7387 -0.202644
421 2 -0.339425 34.5842 -0.254485
7741 2 -0.281702 45.5857 10.86
4033 2 5.48681 34.2765 5.23831
426 1 1.28069 35.6231 3.89527
434 2 5.22695 36.9506 2.59682
423 2 2.43583 34.1663 2.59011
430 1 4.00476 35.4829 4.04702
4024 2 2.49378 37.0759 5.2765
428 1 0.916261 38.3997 3.99252
427 1 1.39596 35.8037 1.19713
489 1 3.75349 38.5285 1.3253
431 1 4.0717 35.7345 1.10759
432 1 3.98636 38.3241 3.87111
486 1 0.837555 38.4998 0.838652
4093 2 5.3184 39.8378 5.30824
483 2 2.43323 39.9801 2.35678
440 1 7.00687 38.4035 3.83505
7681 2 -0.294481 39.8028 10.9617
4141 2 -0.364985 45.3637 5.29094
301 2 -0.44906 22.8439 -0.401867
4082 2 -0.428408 42.7202 8.32709
4029 1 4.00874 35.5756 6.54988
439 1 6.72406 38.6188 0.99925
437 1 6.79794 35.9192 0.893611
438 1 6.73329 35.6665 3.83669
449 1 12.5983 35.6826 1.26476
4045 2 10.9574 34.1683 5.10363
450 1 12.3636 35.4945 3.88646
446 2 10.7779 37.1521 2.46289
441 1 9.68011 35.583 0.999614
435 2 8.13813 34.3087 2.29512
442 1 9.51183 35.7827 3.82577
4036 2 8.10512 36.969 5.19072
509 1 12.2823 38.4987 1.2158
452 1 12.5263 38.6577 3.73275
443 1 9.55611 38.3844 1.08108
444 1 9.64866 38.4864 3.95328
4105 2 10.9719 39.8267 5.20618
495 2 8.11667 39.8836 2.59044
4037 1 6.75695 35.6733 6.62872
4041 1 9.66096 35.5517 6.67861
364 2 2.42174 31.6423 -0.390875
493 2 5.43078 39.7811 -0.270933
4039 1 6.6211 38.4313 6.67329
4051 1 12.2936 38.4784 6.68777
4043 1 9.53885 38.4166 6.65089
4022 2 -0.287815 37.0703 8.08355
4110 1 12.1809 41.4706 9.36771
4153 2 5.27345 45.6001 5.22496
485 1 4.08046 41.38 0.917029
487 1 1.11133 41.4313 0.922733
494 2 5.36934 42.6579 2.39919
488 1 1.05935 43.9949 3.92256
543 2 2.4587 45.5249 2.36709
490 1 3.8359 41.2294 3.84831
4084 1 1.29537 41.2132 3.83672
491 1 3.94732 44.1634 0.91147
492 1 3.71752 44.2216 3.86258
482 2 2.38074 42.7828 5.35214
14888 1 1.07807 44.2007 1.01245
4091 1 3.97062 44.2347 6.76919
4085 1 1.06445 41.3512 6.61631
362 2 -0.410704 31.4014 2.45874
4102 1 9.36712 41.6866 9.3539
316 2 7.81031 25.224 -0.330421
304 2 2.4713 25.8437 -0.546974
497 1 6.88738 41.2599 1.05407
500 1 6.62752 43.9462 3.87356
499 1 6.93852 43.9101 0.997534
498 1 6.69166 41.2466 3.82672
570 1 12.3024 44.3471 3.7634
4165 2 10.8717 45.7004 5.10972
510 1 12.5262 41.446 3.8665
511 1 12.5698 41.4948 1.14665
506 2 11.0488 42.8211 2.40731
501 1 9.54333 41.2924 0.989344
555 2 8.13689 45.4094 2.35118
502 1 9.69788 41.3378 3.8227
4096 2 8.18305 42.8386 5.42495
503 1 9.77337 44.2831 1.08868
504 1 9.22923 44.1958 3.93085
565 1 12.4618 44.2872 0.853951
436 2 8.12995 37.1565 -0.477117
7648 2 13.5373 36.985 11.0341
422 2 -0.272892 37.2151 2.48685
3851 1 3.77564 21.7141 6.65402
7459 1 3.9067 21.5317 9.53751
7513 2 5.28887 22.9555 10.6952
7505 1 1.15497 24.4486 12.3001
3906 1 1.07912 24.6329 9.31986
7447 1 1.05765 21.3487 12.2362
3914 2 5.28012 25.7783 8.08194
3852 1 1.19651 21.7715 9.55621
7509 1 3.94834 24.4626 12.2429
3903 2 2.27838 22.9944 8.04124
3910 1 3.77544 24.4009 9.40207
7504 2 2.74592 25.8541 10.8318
7451 1 3.9034 21.5524 12.2979
7507 1 0.954786 27.3361 12.5092
7501 2 0.122243 23.0757 10.8958
3918 1 6.66885 24.4004 9.42473
7699 1 6.58092 44.285 12.3772
3919 1 6.78782 27.0833 6.46335
3863 1 9.62482 21.3645 6.6486
7515 1 6.49887 21.0982 12.1928
7517 1 6.56104 24.5198 12.193
3860 1 6.59356 21.7104 9.18544
7528 2 13.2823 25.6244 11.0238
7525 2 10.7808 22.773 11.0523
7529 1 12.446 24.1958 12.5887
3930 1 12.1972 24.0274 9.63784
7471 1 12.2382 21.4325 12.1642
3926 2 10.7975 25.5833 8.18704
3872 1 12.2755 21.5102 9.33999
7521 1 9.71975 24.6144 12.152
3915 2 8.03722 22.8722 8.01217
3922 1 9.50015 24.3166 9.57992
7516 2 8.19805 25.8242 10.857
7463 1 9.42149 21.4352 12.3008
3864 1 9.4736 21.3336 9.54306
7519 1 6.78228 27.2115 12.116
3924 1 9.64718 27.1363 9.43251
7531 1 12.2601 27.2996 12.2244
3932 1 12.3171 26.999 9.46804
4081 2 -0.232141 39.8931 5.25656
3967 1 1.01636 32.746 6.44087
3979 1 6.69375 32.864 6.54811
7561 2 -0.0663064 28.7947 10.978
3912 1 4.09891 27.291 9.4398
3908 1 1.34696 27.2792 9.60762
7511 1 3.98623 27.298 12.253
3969 1 3.76208 30.137 6.91818
7573 2 5.41442 28.5268 10.8905
3963 2 2.52344 28.7221 8.26132
7565 1 1.24489 30.079 9.33485
7567 1 0.97525 32.9706 12.1718
3974 2 5.46332 31.5653 8.05525
3968 1 1.08292 32.9521 9.26062
7569 1 1.69056 29.7542 11.9608
3970 1 4.08604 30.0994 10.1347
7564 2 2.47511 31.5822 10.8132
7571 1 3.86156 32.5466 12.2088
3972 1 3.92438 32.6808 9.31691
7577 1 6.84925 29.8875 12.3007
7579 1 6.4007 32.5974 11.9727
3978 1 6.7854 30.1159 9.44392
3983 1 9.44266 32.8573 6.58446
3990 1 12.1601 30.2815 6.72461
3991 1 12.4255 32.8797 6.58793
3981 1 9.39197 29.9658 6.50198
566 2 11.0027 45.7743 -0.362517
3920 1 6.80834 27.0746 9.36357
7523 1 9.50071 27.3854 12.1332
3980 1 6.74588 32.7578 9.33564
7585 2 10.7769 28.7104 10.7528
3975 2 8.02935 28.5365 7.86832
7589 1 12.4121 30.0847 12.3574
7591 1 12.5098 32.947 12.478
3986 2 10.7953 31.5412 8.21893
3992 1 12.219 32.8028 9.59693
7581 1 9.71371 29.9703 12.2807
3982 1 9.53834 30.1829 9.40993
7576 2 8.08862 31.5231 11.059
7583 1 12.1548 29.985 9.5106
3984 1 9.46113 33.0597 9.43719
7635 1 9.61494 32.6179 12.1833
4103 1 9.50871 44.2849 6.82768
4097 1 6.63913 41.4734 6.71983
7621 2 -0.413174 34.3231 10.9306
4025 1 0.993117 35.629 6.67429
4027 1 1.10094 38.4672 6.756
4031 1 4.00836 38.3532 6.68099
7633 2 5.26731 34.2507 10.9062
7625 1 1.0578 35.7045 12.2734
4026 1 1.1725 35.6805 9.57607
4034 2 5.4446 37.0194 8.11278