LAMMPS data file via write_data, version 29 Oct 2020, timestep = 100000

18000 atoms
4 atom types

-0.10211998577438558 27.9961199857745 xlo xhi
-1.0892158369696638 335.8172158369672 ylo yhi
-0.11250659655543704 28.006506596556182 zlo zhi
0.0 0.0 0.0 xy xz yz

Masses

1 15.9994
2 232.0381
3 15.9994
4 232.0381

Atoms # full

1 0 1 -1.1104 1.285221512130947 0.3618808507002109 1.2794182665631175 0 0 0
2 0 1 -1.1104 4.0053724615455755 0.320995125765047 1.2865557955328155 0 0 0
3 0 1 -1.1104 6.86833098297856 0.3324731410911286 4.111036737884018 0 0 0
4 0 1 -1.1104 1.3882078566411866 0.3056217788416013 4.075604291541988 0 0 0
5 0 1 -1.1104 1.1632908293304667 3.081915126890066 1.34539963009603 0 0 0
6 0 1 -1.1104 4.05269554477563 3.194737636832543 1.299973725990597 0 0 0
7 0 1 -1.1104 4.03737993963296 2.8503059570418783 4.114685847132621 0 0 0
8 0 1 -1.1104 1.275812324535269 3.0398706119616845 4.123464820726531 0 0 0
9 0 1 -1.1104 6.760421056047555 0.10643794807487769 1.2805564982696453 0 0 0
10 0 1 -1.1104 9.61806217739624 0.1870555096350552 1.203075069942049 0 0 0
11 0 1 -1.1104 9.69203470357058 0.11480749668629892 4.18170121812497 0 0 0
12 0 1 -1.1104 7.06207189709888 3.04961586713444 3.979503534464379 0 0 0
13 0 1 -1.1104 6.871569342041045 3.008033924759687 1.2548718712341094 0 0 0
14 0 1 -1.1104 9.715897326702795 3.021085142579027 1.3756301100334223 0 0 0
15 0 1 -1.1104 9.802675748098647 2.8923827237296758 4.141909831322228 0 0 0
16 0 1 -1.1104 6.880328831843783 5.707656558678125 4.019109309738478 0 0 0
17 0 1 -1.1104 12.485518662148149 0.19139006727968197 1.3720995548269261 0 0 0
18 0 1 -1.1104 12.509804247626809 0.17241682125136995 4.146517254480657 0 0 0
19 0 1 -1.1104 12.503453953739733 3.0583884804451924 1.227885972527919 0 0 0
20 0 1 -1.1104 12.51604912970021 3.0865957448314134 4.069536473848951 0 0 0
21 0 1 -1.1104 1.3586384293565128 5.984871188478314 1.3529510200931325 0 0 0
22 0 1 -1.1104 4.046200837858496 6.033511123200834 1.4686948747621145 0 0 0
23 0 1 -1.1104 4.00238990409332 5.593126396249579 4.2078834608053635 0 0 0
24 0 1 -1.1104 1.2410693318736532 6.045064922656212 4.233352721494577 0 0 0
25 0 1 -1.1104 1.4234995611372105 8.744189985760368 1.3976792052017823 0 0 0
26 0 1 -1.1104 4.330725058871298 8.799780158024078 1.4822413472373452 0 0 0
27 0 1 -1.1104 4.177293417315254 8.530159019946124 4.2551035445996925 0 0 0
28 0 1 -1.1104 1.3371516680056246 8.961856895677297 4.104947355673432 0 0 0
29 0 1 -1.1104 6.919468904891599 5.816510755248877 1.315118097169047 0 0 0
30 0 1 -1.1104 9.757883755064958 5.872112990956101 1.3116153556650039 0 0 0
31 0 1 -1.1104 9.788340592123571 5.764511613560963 3.9371112082276 0 0 0
32 0 1 -1.1104 6.971435863496168 8.55866877631004 3.997094429264901 0 0 0
33 0 1 -1.1104 6.946704795025222 8.52427019013539 1.385448922513148 0 0 0
34 0 1 -1.1104 9.734163552511697 8.664837419312825 1.0944985994604475 0 0 0
35 0 1 -1.1104 9.694423787062233 8.652305853872472 3.897333079677687 0 0 0
36 0 1 -1.1104 7.006016381479763 11.77212080096948 6.797149671587773 0 0 0
37 0 1 -1.1104 12.558112672374262 5.919900274644856 1.290633413653457 0 0 0
38 0 1 -1.1104 12.588534119583958 5.84000341133792 4.088568741485887 0 0 0
39 0 1 -1.1104 12.452024954159945 8.632649940324766 1.252985604196901 0 0 0
40 0 1 -1.1104 12.35530897674569 8.579801131513944 4.158722920862931 0 0 0
41 0 1 -1.1104 1.4977585044142856 11.43410645924085 1.305733055825062 0 0 0
42 0 1 -1.1104 4.183541541981581 11.519763184247541 1.3257401717540465 0 0 0
43 0 1 -1.1104 4.231881572312386 11.439248907753768 4.303299505424461 0 0 0
44 0 1 -1.1104 1.4799388794036736 11.728081272315926 4.069683286754 0 0 0
45 0 1 -1.1104 1.2894213148718265 14.220090160281787 1.2298866034784115 0 0 0
46 0 1 -1.1104 4.085674221759155 14.18723643769878 1.4767492802687745 0 0 0
47 0 1 -1.1104 4.237173430516264 14.181431094601855 4.152118329770386 0 0 0
48 0 1 -1.1104 1.362522839664891 14.45102658278388 4.166204886765607 0 0 0
49 0 1 -1.1104 6.853170587530799 11.49253824051754 1.1585099847392186 0 0 0
50 0 1 -1.1104 9.79566657302581 11.509621596746591 1.0632827687262687 0 0 0
51 0 1 -1.1104 9.686959295893557 11.47418620906959 3.957014126711114 0 0 0
52 0 1 -1.1104 6.9601662079066235 11.400617363090854 4.0358214605078935 0 0 0
53 0 1 -1.1104 7.0716660550942 14.28748002463487 1.393796310584947 0 0 0
54 0 1 -1.1104 9.878704902463825 14.388228098476997 1.430121038554274 0 0 0
55 0 1 -1.1104 9.861955506910169 14.31832645649631 4.11891709369706 0 0 0
56 0 1 -1.1104 6.9756748457058295 14.268373349681601 4.028801683332858 0 0 0
57 0 1 -1.1104 12.539881369346118 11.444055824106174 1.3264142069161948 0 0 0
58 0 1 -1.1104 12.519306991379953 11.517520120062633 4.220562809888408 0 0 0
59 0 1 -1.1104 12.604589784614411 14.288597179716852 1.2936409566351823 0 0 0
60 0 1 -1.1104 12.560607068404284 14.220876158853027 4.049435550682464 0 0 0
61 0 1 -1.1104 1.2200662398974897 16.979465558997628 1.2739978905764182 0 0 0
62 0 1 -1.1104 4.002965584848366 17.145212798264147 1.3180564212382868 0 0 0
63 0 1 -1.1104 4.119356206180979 17.124629323989957 3.947996316391484 0 0 0
64 0 1 -1.1104 1.4782737227760057 17.142954334220967 4.061541019804869 0 0 0
65 0 1 -1.1104 1.1719841938039446 19.803657085391425 1.303550842671418 0 0 0
66 0 1 -1.1104 4.051514243054713 19.89006227599766 1.1364210076926788 0 0 0
67 0 1 -1.1104 4.2945271860132825 19.99089185854623 3.929915576358914 0 0 0
68 0 1 -1.1104 1.332307267705097 20.007961530203527 4.065573385946868 0 0 0
69 0 1 -1.1104 6.905629201794981 17.048263306604674 1.3617009926888293 0 0 0
70 0 1 -1.1104 9.718093579010624 17.135711017337336 1.3186518414662596 0 0 0
71 0 1 -1.1104 9.793375779800638 17.0724075026954 4.1499623141473965 0 0 0
72 0 1 -1.1104 6.937733355321609 17.217170971183766 4.085815406881827 0 0 0
73 0 1 -1.1104 7.040856918265828 19.798173553402922 1.2260572501974534 0 0 0
74 0 1 -1.1104 9.772405203752719 19.958895871024772 1.3179077504885859 0 0 0
75 0 1 -1.1104 9.83724919499699 19.768876903195924 4.133864229658557 0 0 0
76 0 1 -1.1104 7.01217958857129 19.754529601759835 4.013891909979601 0 0 0
77 0 1 -1.1104 12.4126071317129 17.21334310760191 1.0402320512225331 0 0 0
78 0 1 -1.1104 12.67264917437917 17.126347293909948 3.9376443669137227 0 0 0
79 0 1 -1.1104 12.67692932852443 22.666543510445518 1.3308531939937411 0 0 0
80 0 1 -1.1104 12.522586368864566 19.928500857704904 1.3275453604869742 0 0 0
81 0 1 -1.1104 1.3681888597488072 22.685696231709148 1.3006899860623058 0 0 0
82 0 1 -1.1104 4.211922785872876 22.648125022207783 1.311689307462267 0 0 0
83 0 1 -1.1104 4.242901266136756 22.781153218354216 4.183091220813595 0 0 0
84 0 1 -1.1104 1.5142424230701914 22.86468907323109 4.024005226295552 0 0 0
85 0 1 -1.1104 7.094040040235688 22.916288899521618 1.4274895304580246 0 0 0
86 0 1 -1.1104 9.77104670439791 22.61558619830948 1.2151089634100107 0 0 0
87 0 1 -1.1104 9.793644510625189 22.45800464804451 4.308845778755045 0 0 0
88 0 1 -1.1104 6.93067578972176 22.634295208745225 4.189589857445371 0 0 0
12054 0 2 2.2208 -0.10203165853171445 1.588817045794159 8.223865277308015 0 0 0
90 0 1 -1.1104 12.669411173899793 22.70255574226297 4.129266848070061 0 0 0
91 0 1 -1.1104 1.2475241732735605 0.16460400130114772 6.8770791790895425 0 0 0
92 0 1 -1.1104 3.9786896231457165 0.3751150217102532 6.999392037967614 0 0 0
93 0 1 -1.1104 4.23370807107253 2.920779058879888 9.698205675123397 0 0 0
94 0 1 -1.1104 1.3781140145465338 0.26874347892421385 9.683992231509592 0 0 0
95 0 1 -1.1104 1.4043597803198797 3.042633026777107 6.960857012093287 0 0 0
96 0 1 -1.1104 4.195608110722015 3.038523265776167 6.903722672857669 0 0 0
97 0 1 -1.1104 1.2875016011016671 6.017977879442062 9.637457775694747 0 0 0
98 0 1 -1.1104 1.4154274577471437 3.031528936322319 9.658438617286146 0 0 0
99 0 1 -1.1104 6.892524145414734 0.2735412102370027 6.997928438944568 0 0 0
100 0 1 -1.1104 9.921934181007757 0.16719722823225583 7.064236196964015 0 0 0
101 0 1 -1.1104 9.887119283406301 2.912840877905744 9.910772493483101 0 0 0
102 0 1 -1.1104 6.968507704785315 2.879041506841249 10.044749953006397 0 0 0
103 0 1 -1.1104 7.019090850024151 3.172508648494915 6.9359902400830435 0 0 0
104 0 1 -1.1104 10.020265456870549 2.9076790027149912 6.95826624983532 0 0 0
105 0 1 -1.1104 9.68988237641193 5.556449590669227 9.466629974894838 0 0 0
106 0 1 -1.1104 4.0735651053064625 5.728378568456137 9.742448543707928 0 0 0
107 0 1 -1.1104 12.581095784049408 0.1511290346205205 6.908801365713441 0 0 0
108 0 1 -1.1104 12.603374818598343 2.983049717655498 9.698866091361507 0 0 0
109 0 1 -1.1104 12.787320547510197 3.0399498208817963 7.064827830682953 0 0 0
110 0 1 -1.1104 12.79968193145647 5.682468656486217 9.730076739885387 0 0 0
111 0 1 -1.1104 1.0858054565429334 5.986129241706633 6.801283858139581 0 0 0
112 0 1 -1.1104 4.109625010537779 5.764700002663935 6.9125133183693785 0 0 0
113 0 1 -1.1104 9.043687765502654 5.4370116767217205 6.9328531382106915 0 0 0
114 0 1 -1.1104 1.2284466817364803 8.747604418488049 9.70616727141837 0 0 0
115 0 1 -1.1104 1.2934374723438051 8.94012812040055 6.8059600164452645 0 0 0
116 0 1 -1.1104 4.021099595405335 8.493592197331472 6.880533382645334 0 0 0
117 0 1 -1.1104 6.3358387397653715 9.21475932152967 8.1009986105014 0 0 0
118 0 1 -1.1104 4.119147747303091 8.571678141565346 9.911868339912651 0 0 0
119 0 1 -1.1104 10.290893903046275 7.428370814617021 6.465758560547208 0 0 0
120 0 1 -1.1104 10.084227170156526 9.193510521451017 8.257595055784991 0 0 0
121 0 1 -1.1104 10.31027218035545 7.83446180502555 10.319717652678019 0 0 0
122 0 1 -1.1104 12.806196295358022 5.781119374526922 7.047018226318573 0 0 0
123 0 1 -1.1104 6.700419434829908 6.664269806637306 6.759898805343742 0 0 0
124 0 1 -1.1104 8.22298446890343 9.142679439854499 6.264504041076825 0 0 0
125 0 1 -1.1104 9.742834242185667 11.52364551672627 9.798888425628528 0 0 0
126 0 2 2.2208 8.447319552081174 7.441232948942219 8.201795713996328 0 0 0
12091 0 2 2.2208 -0.004907418790843243 21.371287983373115 5.446372214855697 0 0 0
128 0 1 -1.1104 12.8982708693696 8.688599759618533 9.893058129844187 0 0 0
129 0 1 -1.1104 12.775336057061603 8.698490067797104 7.045325891470166 0 0 0
130 0 1 -1.1104 12.669959322372836 11.481252019366474 9.815645573693242 0 0 0
131 0 1 -1.1104 1.248423766435711 11.45006109791786 6.850465900804392 0 0 0
132 0 1 -1.1104 4.240954759643872 11.423434214428333 6.966233364235786 0 0 0
133 0 1 -1.1104 4.115993757931736 11.399695335412309 9.761756904349149 0 0 0
134 0 1 -1.1104 1.1835828124554473 11.681336731222418 9.710808831595527 0 0 0
135 0 1 -1.1104 1.1655053188661295 14.208561685903403 6.875150268645614 0 0 0
136 0 1 -1.1104 4.049994306343561 14.275179985142453 6.863994275656621 0 0 0
137 0 1 -1.1104 3.9637473139543222 14.13113515438507 9.6660701515338 0 0 0
138 0 1 -1.1104 1.009044304614018 14.422589194637023 9.916997381961153 0 0 0
139 0 1 -1.1104 6.784506329351653 14.403310046939366 6.926661754706072 0 0 0
140 0 1 -1.1104 12.600644256825733 11.49265205160868 7.05579833202299 0 0 0
141 0 1 -1.1104 9.915591767630847 11.566387571669322 6.737712858713322 0 0 0
142 0 1 -1.1104 6.899894983135154 11.650425049276427 9.876853191468568 0 0 0
143 0 1 -1.1104 9.815581609411122 16.917076794799954 6.841165260770944 0 0 0
144 0 1 -1.1104 9.732981400194673 14.289085418093727 7.056512505820039 0 0 0
145 0 1 -1.1104 9.745418144664143 14.328701218512055 9.781576158713861 0 0 0
146 0 1 -1.1104 6.9739835181983905 17.08943943767958 6.83732594491479 0 0 0
12024 0 2 2.2208 0.022881632884998625 12.91294205066042 2.7841164829921143 0 0 0
5725 0 1 -1.1104 9.799767300558367 0.15553625807605828 9.764369986028083 0 1 0
12055 0 2 2.2208 5.541454895991361 -1.074586491140001 5.436215040903287 0 0 0
150 0 1 -1.1104 12.539404080347888 14.27068461645761 9.684015989441093 0 0 0
151 0 1 -1.1104 1.3702362384327067 17.063881032788515 6.921236619454822 0 0 0
152 0 1 -1.1104 4.217717857962845 17.028844416125636 6.841692815825973 0 0 0
153 0 1 -1.1104 4.117319264441012 17.056513845778014 9.65992697420283 0 0 0
154 0 1 -1.1104 1.186712356516967 17.204644757846076 9.714575347188235 0 0 0
155 0 1 -1.1104 1.3109515085530792 19.898946839051657 6.864833887785655 0 0 0
156 0 1 -1.1104 4.1003826850662 19.951936417674005 6.745247737159289 0 0 0
157 0 1 -1.1104 4.180197175327385 19.854037402893187 9.426507419187935 0 0 0
158 0 1 -1.1104 1.3112636150766583 19.94772876377141 9.678067843852606 0 0 0
159 0 1 -1.1104 9.60989720583095 19.906370953252708 7.090120259073794 0 0 0
160 0 1 -1.1104 12.644581258497109 17.155738284885892 6.867416947547395 0 0 0
161 0 1 -1.1104 9.721589259339563 17.104851217195325 9.720523599918778 0 0 0
162 0 1 -1.1104 7.009975950970451 17.111123770144722 9.565328071381487 0 0 0
163 0 1 -1.1104 6.845419402153063 19.993573106444916 6.883113104275464 0 0 0
164 0 1 -1.1104 12.432532915844975 19.888500077803624 6.9024392313442 0 0 0
165 0 1 -1.1104 9.671580278347703 20.079102824849418 9.732882236145798 0 0 0
166 0 1 -1.1104 6.885906368944078 19.98124019679894 9.674751179325366 0 0 0
12021 0 2 2.2208 -0.02547480162802678 10.107103936766764 -0.05177023943834975 0 0 0
168 0 1 -1.1104 12.409432877296691 17.003397041495063 9.695083248983257 0 0 0
169 0 1 -1.1104 12.646236463963938 19.887319346599128 4.126726279882514 0 0 0
170 0 1 -1.1104 12.379013094126154 19.913568713308486 9.840444994014543 0 0 0
171 0 1 -1.1104 1.294347015921584 22.6936807283151 6.691507485145576 0 0 0
172 0 1 -1.1104 4.070592988766133 22.921382456864535 6.9035852349767195 0 0 0
173 0 1 -1.1104 4.066029916554306 22.74128486876041 9.709086222518975 0 0 0
174 0 1 -1.1104 1.3229913262429196 22.70164719991554 9.600908975485728 0 0 0
175 0 1 -1.1104 7.025455221120157 22.9003739100971 7.089306620533624 0 0 0
176 0 1 -1.1104 9.659368912230965 22.765162118899713 7.015261058907434 0 0 0
177 0 1 -1.1104 9.756442304587582 22.766241473178066 9.786533158297368 0 0 0
178 0 1 -1.1104 6.896491027879547 22.696741731611333 9.741084775538994 0 0 0
179 0 1 -1.1104 12.584207719022196 22.731131872517015 6.983120209246983 0 0 0
180 0 1 -1.1104 12.442235432494375 22.75491509305683 9.767229878676734 0 0 0
181 0 1 -1.1104 1.2209531365451107 0.13371874403521414 12.590122461973749 0 0 0
182 0 1 -1.1104 4.2256132594172175 0.20957137647245214 12.540833073464407 0 0 0
183 0 1 -1.1104 1.3090382391888173 2.9803743101187283 12.561860472354628 0 0 0
184 0 1 -1.1104 3.9955604785819845 2.964771908476016 12.513119485970154 0 0 0
185 0 1 -1.1104 7.026395959816482 0.22725640879367356 12.412942943225868 0 0 0
186 0 1 -1.1104 9.719737162451612 0.026615998954065294 12.610844299893493 0 0 0
187 0 1 -1.1104 7.079890179659833 5.990674289206709 9.48056522188997 0 0 0
188 0 1 -1.1104 9.692122009281187 2.833141720872339 12.621749239853703 0 0 0
189 0 1 -1.1104 12.594050457785288 0.15490039803017958 12.558082134323543 0 0 0
190 0 1 -1.1104 12.458061609582701 2.748411038960045 12.565761390391183 0 0 0
191 0 1 -1.1104 1.0718725491998289 6.020812195875345 12.54197022000445 0 0 0
192 0 1 -1.1104 4.05818484628066 5.76896912944877 12.531887767082031 0 0 0
193 0 1 -1.1104 1.1542482527893085 8.708399000359998 12.661403257671259 0 0 0
194 0 1 -1.1104 4.042856074141676 8.696717902191667 12.597341541171543 0 0 0
195 0 1 -1.1104 7.691103870504381 8.765435248736184 9.960182443400713 0 0 0
196 0 1 -1.1104 9.808485789242427 5.733873425622476 12.709897548837937 0 0 0
197 0 1 -1.1104 6.974855107116344 11.368533935118538 12.56198752460958 0 0 0
198 0 1 -1.1104 9.67029362777072 8.682143101292144 12.883700588352816 0 0 0
199 0 1 -1.1104 12.571826700539143 5.656268682350949 12.507688775794811 0 0 0
200 0 1 -1.1104 12.591525377452234 8.441779860865424 12.549188391142964 0 0 0
201 0 1 -1.1104 1.3675656962278835 11.487237234463345 12.405322686658971 0 0 0
202 0 1 -1.1104 4.156970306930482 11.648878975264456 12.46220163522854 0 0 0
203 0 1 -1.1104 1.3665515502074137 14.268295507228013 12.569094490932667 0 0 0
204 0 1 -1.1104 4.201491935815237 14.498332794621264 12.465630418530989 0 0 0
205 0 1 -1.1104 6.872894389747859 14.264841787130727 9.79260012068228 0 0 0
206 0 1 -1.1104 9.940000433816081 11.426957257836637 12.507455754694037 0 0 0
207 0 1 -1.1104 7.051865082974971 14.397151073804572 12.520301992539677 0 0 0
208 0 1 -1.1104 9.843269644402545 14.402048273085619 12.51780733576328 0 0 0
209 0 1 -1.1104 12.616270356835317 11.484167437740325 12.659181423658652 0 0 0
210 0 1 -1.1104 12.793800096299213 14.266450584591839 12.542592708441871 0 0 0
211 0 1 -1.1104 1.1836123361402213 17.129106284538686 12.487932825549601 0 0 0
212 0 1 -1.1104 3.9384109257693036 17.259517682319586 12.428647631258956 0 0 0
213 0 1 -1.1104 1.4253985019059863 20.005345637587858 12.580982212491309 0 0 0
214 0 1 -1.1104 4.146819968732096 20.118075738779606 12.413579082951284 0 0 0
215 0 1 -1.1104 6.9458571038918 17.11552084773094 12.346411264474757 0 0 0
216 0 1 -1.1104 9.698243666981895 17.184699672234824 12.602622715850842 0 0 0
217 0 1 -1.1104 6.836280837757418 20.00620220002225 12.622260189427056 0 0 0
218 0 1 -1.1104 9.742968889800576 20.027971083575082 12.623571260141286 0 0 0
219 0 1 -1.1104 12.416424358784827 17.117532087616347 12.67033239030402 0 0 0
220 0 1 -1.1104 12.444707893529168 20.00009869254126 12.519930652714516 0 0 0
221 0 1 -1.1104 1.180120079876459 22.805764483732162 12.409380468078215 0 0 0
222 0 1 -1.1104 4.056337134768682 22.71184694336351 12.589758104716388 0 0 0
223 0 1 -1.1104 6.979721074446977 22.77602202802969 12.4068969849346 0 0 0
224 0 1 -1.1104 9.655819104718429 22.78599595367595 12.666370507915392 0 0 0
225 0 1 -1.1104 12.475390245318128 22.780725444869695 12.605416872790741 0 0 0
12125 0 2 2.2208 11.108302903330593 21.33421017303451 11.205993295271076 0 0 0
12110 0 2 2.2208 11.236417368647992 4.387088938014571 11.014132314245273 0 0 0
147 0 1 -1.1104 12.745436176484917 14.26477408368554 6.84688996565155 0 0 0
12124 0 2 2.2208 8.485546547615876 24.209627714495788 11.204990093808124 0 0 0
15022 0 2 2.2208 13.9019744836279 9.9735308704567 2.5068124536158725 0 0 0
12109 0 2 2.2208 8.462765173236109 7.3404721618533815 11.57954833302014 0 0 0
12034 0 2 2.2208 -0.08776609965642652 18.36041530461995 2.620733261696213 0 0 0
12008 0 2 2.2208 5.537449961027468 1.6076315382772666 2.6821589270789485 0 0 0
12014 0 2 2.2208 -0.07107992527537817 7.320456928428633 2.6265340767873684 0 0 0
12010 0 2 2.2208 11.114855964976163 1.5204657454039332 2.720793182563559 0 0 0
12123 0 2 2.2208 5.559548015285412 21.365171962981503 11.098320580014935 0 0 0
12108 0 2 2.2208 5.488793147556305 4.385525869917405 11.195757923710786 0 0 0
12013 0 2 2.2208 2.5749945867015773 4.450054747223847 2.7657876775644277 0 0 0
12122 0 2 2.2208 2.6300105339543554 24.11060620645099 11.140338131536158 0 0 0
12107 0 2 2.2208 2.492772629861818 7.349128603758255 11.18801672696656 0 0 0
12112 0 2 2.2208 2.6516870506118115 12.887594276588748 11.152777789794962 0 0 0
12017 0 2 2.2208 8.419281073184443 4.452093392514244 2.6225884785937503 0 0 0
12018 0 2 2.2208 5.51364165762266 7.245821048096286 2.8237195026202384 0 0 0
12104 0 2 2.2208 8.493852853485526 1.4977391566564664 11.205085522254548 0 0 0
12020 0 2 2.2208 11.150550274341972 7.241007294135323 2.58162498926423 0 0 0
12012 0 2 2.2208 2.7612010856982967 7.325650912763003 0.04618012548253285 0 0 0
12084 0 2 2.2208 -0.05084218299183617 18.56075334988816 8.383141656513786 0 0 0
12023 0 2 2.2208 2.9112118714373545 10.13697453475611 2.8483459844105865 0 0 0
12120 0 2 2.2208 11.055334058620426 15.801831263962182 11.121040756667071 0 0 0
12102 0 2 2.2208 2.7567709547757326 1.6911385257272 11.157464580964355 0 0 0
12113 0 2 2.2208 5.628695055762071 10.021147134036468 11.131014886903403 0 0 0
12027 0 2 2.2208 8.392769018502559 10.08204301099632 2.6489760670954134 0 0 0
12028 0 2 2.2208 5.608112624342409 12.865098627347301 2.706581586800687 0 0 0
12100 0 2 2.2208 11.238650753748638 24.08216719984238 8.31292029003539 0 0 0
12030 0 2 2.2208 11.231017601306931 12.789577282350178 2.680141175598585 0 0 0
12099 0 2 2.2208 11.172171844891928 21.25950839902359 5.63847841558455 0 0 0
12098 0 2 2.2208 5.569805194656996 24.083434595648857 8.382079931344835 0 0 0
12033 0 2 2.2208 2.75943967346995 15.679256996496436 2.585541380764225 0 0 0
12022 0 2 2.2208 2.8513028954442214 12.894762621749381 -0.10205054062004364 0 0 0
12097 0 2 2.2208 8.1976407848694 21.337622498519746 8.394713529800145 0 0 0
12096 0 2 2.2208 8.335898650079232 24.00407135818678 5.558158622421592 0 0 0
12037 0 2 2.2208 8.335606485138285 15.743998649743064 2.806507993497173 0 0 0
12038 0 2 2.2208 5.579706574839723 18.51178390280744 2.5656455460334895 0 0 0
12095 0 2 2.2208 5.580528735100933 21.315035496654076 5.578248834502558 0 0 0
12040 0 2 2.2208 11.244809320608617 18.466883047444867 2.6483374437293556 0 0 0
15116 0 2 2.2208 13.7563102140041 18.324693802193558 11.266985798287855 0 0 0
12093 0 2 2.2208 2.6544248337831045 21.255770047331396 8.245434398265813 0 0 0
12043 0 2 2.2208 2.729711047034727 21.22828707153498 2.6498880973571852 0 0 0
15121 0 2 2.2208 13.94479465501616 24.040369808939 11.082999585110901 0 0 0
12092 0 2 2.2208 2.669282670701981 24.21752434245615 5.4986047414482275 0 0 0
12088 0 2 2.2208 5.560657995566708 18.40856266181295 8.17595871486641 0 0 0
12047 0 2 2.2208 8.347972630732407 21.22198679592859 2.7388627655502042 0 0 0
12048 0 2 2.2208 5.49549699982542 24.135311221268378 2.7558426794702577 0 0 0
12090 0 2 2.2208 11.155355168637943 18.556129338474964 8.293069742029697 0 0 0
12050 0 2 2.2208 11.294866114331354 23.90345500817986 2.7399845978094874 0 0 0
12119 0 2 2.2208 8.221447236112505 18.520866234621145 11.101058467706476 0 0 0
12052 0 2 2.2208 2.6214764130169694 1.6118269035475323 5.4993510610613345 0 0 0
5726 0 1 -1.1104 6.968074562520891 0.10924624952152738 9.77901681569418 0 1 0
12118 0 2 2.2208 5.573007761874306 15.78401263705581 11.031425257371978 0 0 0
241 0 1 -1.1104 7.041880280339741 5.7366166155908225 12.552031289240015 0 0 0
12056 0 2 2.2208 8.423621395292756 1.6426350743727394 5.347719747009553 0 0 0
5717 0 1 -1.1104 4.181643553003432 0.01749527980077282 9.717484220676107 0 1 0
12058 0 2 2.2208 5.5441784259532465 1.4907150998412337 8.305802354304092 0 0 0
12149 0 2 2.2208 5.489982655863292 24.169869878303757 13.854240989792073 0 0 0
12060 0 2 2.2208 11.3378955845038 1.5308491653110579 8.307910364784426 0 0 0
12117 0 2 2.2208 2.718273410459666 18.600739579249886 11.016520734915893 0 0 0
12062 0 2 2.2208 2.646068520286179 7.195669277801742 5.5214004956667315 0 0 0
12063 0 2 2.2208 2.7217346279808843 4.2593166342955255 8.292750833407064 0 0 0
12089 0 2 2.2208 11.25095604694944 15.626323583227638 5.4671497900721615 0 0 0
12065 0 2 2.2208 5.584328614978931 4.447321797241654 5.4624399099950836 0 0 0
12066 0 2 2.2208 8.343359481869273 7.182714940567821 5.127703564345943 0 0 0
12067 0 2 2.2208 8.40132205647257 3.9519820377865376 8.516431025729524 0 0 0
12068 0 2 2.2208 5.104849415106132 7.1974121327189655 8.336669085149746 0 0 0
12069 0 2 2.2208 11.16552354815691 4.4989161197634955 5.474199711807284 0 0 0
12070 0 2 2.2208 11.59035053761911 7.338119247220834 8.527148538197663 0 0 0
12115 0 2 2.2208 11.274818432357705 9.871451158839635 11.199977186066555 0 0 0
12072 0 2 2.2208 2.8057697266747086 12.829969917895683 5.5817625081052515 0 0 0
12073 0 2 2.2208 2.765760114578007 10.088398995044539 8.243635242769995 0 0 0
12114 0 2 2.2208 8.365426913323647 12.965938577256981 11.256028169070701 0 0 0
12075 0 2 2.2208 5.658217252894337 9.968854862858928 5.727269404790415 0 0 0
12076 0 2 2.2208 8.415974013986983 12.801355909091853 5.431722026995216 0 0 0
12077 0 2 2.2208 8.29560483718432 10.553090234483628 8.2437956970699 0 0 0
12078 0 2 2.2208 5.559699708754467 12.906130842260955 8.36122063513385 0 0 0
12079 0 2 2.2208 11.124353132218756 9.733578911844777 5.753139441719439 0 0 0
12080 0 2 2.2208 11.258997625988835 12.92783807788624 8.415712926019205 0 0 0
12087 0 2 2.2208 8.29687257456417 15.635441029290972 8.289697913943312 0 0 0
12082 0 2 2.2208 2.8266152590409694 18.534225292680127 5.3785183703898625 0 0 0
12083 0 2 2.2208 2.597447594382748 15.592955112047596 8.289145993731719 0 0 0
12071 0 2 2.2208 -0.09272974454443735 10.240244004126128 5.4646438801675785 0 0 0
12085 0 2 2.2208 5.612522633512569 15.766209047204361 5.371085469820469 0 0 0
12086 0 2 2.2208 8.416642447676931 18.42336096623616 5.520969095819738 0 0 0
5730 0 1 -1.1104 12.554168452375876 0.15780715542154436 9.896311293453904 0 1 0
233 0 1 -1.1104 6.914637911458239 2.9902092774319833 12.710678262679401 0 0 0
243 0 1 -1.1104 6.771855923805043 8.490327770816304 12.54187584159865 0 0 0
5627 0 1 -1.1104 4.146147384603433 0.23100677819758303 3.9755166816580014 0 1 0
15092 0 2 2.2208 13.906815172943872 21.29300931108245 8.565763566164847 0 0 0
12015 0 2 2.2208 5.427018156142839 4.36102128187324 -0.0627406160213928 0 0 0
15012 0 2 2.2208 13.83914046172693 4.491663613172505 2.5956133273506787 0 0 0
15101 0 2 2.2208 13.929200056887687 1.5668851516146651 11.158291670937313 0 0 0
12136 0 2 2.2208 2.8102811404366626 10.090659989176759 13.886249356709346 0 0 0
15111 0 2 2.2208 13.869072630370882 12.818596973267118 11.159365530302782 0 0 0
12026 0 2 2.2208 8.415831988475224 12.917486228375477 -0.050475376696349106 0 0 0
12049 0 2 2.2208 11.059266408192922 21.303533754247947 -0.076822393050148 0 0 0
12042 0 2 2.2208 2.6247511496022877 23.95996727671308 -0.0069554447555582564 0 0 0
12009 0 2 2.2208 11.17727052867645 -1.044589462013567 -0.08337887333569793 0 0 0
12111 0 2 2.2208 -0.05178908942027802 9.968441247249523 11.048662240366202 0 0 0
12025 0 2 2.2208 5.631759490190629 9.992180263754248 0.030850300817564846 0 0 0
12145 0 2 2.2208 11.017954333947237 18.48209083486163 13.912182391869772 0 0 0
12141 0 2 2.2208 2.5906708165012975 15.681110053831715 13.856095314381138 0 0 0
12139 0 2 2.2208 5.519371158627404 12.953358481613058 13.794855699174883 0 0 0
12039 0 2 2.2208 11.122886908266992 15.646038437872253 -0.004696348862895556 0 0 0
12031 0 2 2.2208 -0.05018725928404813 15.593882114653239 -0.10595717432191469 0 0 0
12001 0 2 2.2208 -0.07364449515144243 -1.0304977247578755 -0.10448334382236 0 0 0
15031 0 2 2.2208 13.944556763424929 18.590753653250903 -0.05009840309583194 0 0 0
226 0 1 -1.1104 4.144680360641572 0.24932302205159912 15.325864404739084 0 0 0
227 0 1 -1.1104 1.3299506319427976 0.34458286093232604 15.285198062294864 0 0 0
228 0 1 -1.1104 4.091445449537593 3.177622295183146 15.323345439614762 0 0 0
229 0 1 -1.1104 1.4249172294033003 3.137239239005935 15.323438150321476 0 0 0
230 0 1 -1.1104 9.674750186472329 0.2125847014328501 15.350451128329716 0 0 0
231 0 1 -1.1104 6.993608532427816 0.22662167093739694 15.287681995312965 0 0 0
232 0 1 -1.1104 9.89798718366321 2.933569841218678 15.376923198577808 0 0 0
12148 0 2 2.2208 8.284888633948842 21.416896850565468 13.963686582664161 0 0 0
234 0 1 -1.1104 12.612576547389471 0.20376830182740233 15.297291290805866 0 0 0
235 0 1 -1.1104 12.525367876476102 2.9480836718308443 15.503939984247873 0 0 0
236 0 1 -1.1104 4.099026728090428 5.8814710095571225 15.432324079783386 0 0 0
237 0 1 -1.1104 1.2008040101582282 5.882495412811518 15.394370353937068 0 0 0
238 0 1 -1.1104 4.060808676478065 8.790209593145006 15.409439554444235 0 0 0
239 0 1 -1.1104 1.2101687733780608 8.611932147127586 15.300236710138632 0 0 0
240 0 1 -1.1104 9.746686691827573 5.800626100960246 15.546718114082895 0 0 0
15161 0 2 2.2208 13.937931176191736 7.220546996988989 16.916055060060273 0 0 0
242 0 1 -1.1104 9.886194873993874 8.438876855922503 15.479823660299386 0 0 0
12153 0 2 2.2208 2.7503091036553906 -1.0398551715595579 19.48381507403867 0 0 0
244 0 1 -1.1104 12.4972092391649 5.860819871225896 15.482822854110612 0 0 0
245 0 1 -1.1104 12.549423904267009 8.643486195056477 15.424266866104638 0 0 0
246 0 1 -1.1104 4.0530719039761465 11.491875608461362 15.28241518187174 0 0 0
247 0 1 -1.1104 1.3719536862432085 11.341446995917597 15.213036337013213 0 0 0
248 0 1 -1.1104 3.948347454276091 14.238091052620225 15.283679538715015 0 0 0
249 0 1 -1.1104 1.147015696197777 14.24512702968742 15.21435127042415 0 0 0
250 0 1 -1.1104 9.921911724831572 11.419474258753706 15.270486319647352 0 0 0
251 0 1 -1.1104 6.859943959040249 11.651837732081102 15.23502206434982 0 0 0
252 0 1 -1.1104 9.661034859478045 14.110064159621 15.346210517465021 0 0 0
253 0 1 -1.1104 6.838851543729631 14.29476752101873 15.24925442698848 0 0 0
254 0 1 -1.1104 12.640024740885398 11.582515047910494 15.325528561887895 0 0 0
255 0 1 -1.1104 12.621320398548376 14.400764307784875 15.449977709733377 0 0 0
256 0 1 -1.1104 4.051556938120932 17.239176654282602 15.132461854907074 0 0 0
257 0 1 -1.1104 1.3198108877380033 17.07528209499187 15.321004269434974 0 0 0
258 0 1 -1.1104 4.142638060797493 20.025097658604572 15.33769315734488 0 0 0
259 0 1 -1.1104 1.2497363677256745 19.8042088261919 15.336634543789225 0 0 0
260 0 1 -1.1104 9.745091679499748 17.09346715506405 15.439191446735615 0 0 0
261 0 1 -1.1104 6.882902326673998 17.1358549690034 15.289354793828037 0 0 0
262 0 1 -1.1104 9.671632504182817 19.746767365819743 15.41636817296983 0 0 0
263 0 1 -1.1104 6.865790254683213 19.923891777559938 15.41257337125287 0 0 0
264 0 1 -1.1104 12.478460226321639 17.048589993639837 15.353455221409165 0 0 0
265 0 1 -1.1104 12.42661829269415 19.76509054525389 15.462353942672683 0 0 0
266 0 1 -1.1104 3.9538213111371836 22.792927274598622 15.289848255482337 0 0 0
267 0 1 -1.1104 1.211374903034605 22.605992168591865 15.356358635293313 0 0 0
268 0 1 -1.1104 9.682664664529675 22.5197941378305 15.457697348217327 0 0 0
269 0 1 -1.1104 6.742525448405305 22.62957360282408 15.247919208404136 0 0 0
270 0 1 -1.1104 12.449498923217963 22.481102561952117 15.383057530411653 0 0 0
271 0 1 -1.1104 1.2839447043786465 0.30925817178494514 18.142534035612293 0 0 0
272 0 1 -1.1104 4.115038045249298 0.39024108870204416 18.09853186197017 0 0 0
273 0 1 -1.1104 4.089172403718924 0.28790774776481143 20.879427301757637 0 0 0
274 0 1 -1.1104 1.267017595022101 0.30135825766635577 20.930989062237558 0 0 0