LAMMPS (29 Oct 2020)
OMP_NUM_THREADS environment is not set. Defaulting to 1 thread. (../comm.cpp:94)
  using 1 OpenMP thread(s) per MPI task
OMP_NUM_THREADS environment is not set. Defaulting to 1 thread. (../comm.cpp:94)
  using 1 OpenMP thread(s) per MPI task
Reading data file ...
  orthogonal box = (0.0000000 0.0000000 0.0000000) to (5.4680000 5.4680000 5.4680000)
  2 by 2 by 13 MPI processor grid
  reading atoms ...
  12 atoms
Finding 1-2 1-3 1-4 neighbors ...
  special bond factors lj:    0.0      0.0      0.0     
  special bond factors coul:  0.0      0.0      0.0     
     0 = max # of 1-2 neighbors
     0 = max # of 1-3 neighbors
     0 = max # of 1-4 neighbors
     1 = max # of special neighbors
  special bonds CPU = 0.002 seconds
  read_data CPU = 0.016 seconds
Replicating atoms ...
  orthogonal box = (0.0000000 0.0000000 0.0000000) to (27.340000 246.06000 27.340000)
  2 by 13 by 2 MPI processor grid
  13500 atoms
Finding 1-2 1-3 1-4 neighbors ...
  special bond factors lj:    0.0      0.0      0.0     
  special bond factors coul:  0.0      0.0      0.0     
     0 = max # of 1-2 neighbors
     0 = max # of 1-3 neighbors
     0 = max # of 1-4 neighbors
     1 = max # of special neighbors
  special bonds CPU = 0.002 seconds
  replicate CPU = 0.013 seconds
Setting atom values ...
  9000 settings made for charge
Setting atom values ...
  4500 settings made for charge
PPPM initialization ...
  using 12-bit tables for long-range coulomb (../kspace.cpp:328)
  G vector (1/distance) = 0.30128132
  grid = 40 192 40
  stencil order = 5
  estimated absolute RMS force accuracy = 0.00013375008
  estimated relative force accuracy = 9.2884292e-06
  using single precision MKL FFT
  3d grid and FFT values/proc = 16038 6000
Neighbor list info ...
  update every 1 steps, delay 0 steps, check yes
  max neighbors/atom: 2000, page size: 100000
  master list distance cutoff = 13
  ghost atom cutoff = 13
  binsize = 6.5, bins = 5 38 5
  2 neighbor lists, perpetual/occasional/extra = 2 0 0
  (1) pair coul/long, perpetual
      attributes: half, newton on
      pair build: half/bin/newton
      stencil: half/bin/3d/newton
      bin: standard
  (2) pair eam/alloy, perpetual, copy from (1)
      attributes: half, newton on
      pair build: copy
      stencil: none
      bin: none
Setting up cg style minimization ...
  Unit style    : metal
  Current step  : 0
WARNING: Energy due to 3 extra global DOFs will be included in minimizer energies
Per MPI rank memory allocation (min/avg/max) = 9.279 | 9.294 | 9.316 Mbytes
Step Temp E_pair E_mol TotEng Press Volume 
       0            0   -177246.57            0   -177246.57    136385.19    183923.85 
      24            0   -177709.64            0   -177709.64   -68.047622    195482.39 
Loop time of 0.942847 on 52 procs for 24 steps with 13500 atoms

98.7% CPU use with 52 MPI tasks x 1 OpenMP threads

Minimization stats:
  Stopping criterion = linesearch alpha is zero
  Energy initial, next-to-last, final = 
      -177246.56651169  -177709.642906469  -177709.642906469
  Force two-norm initial, final = 27117.868 168.11602
  Force max component initial, final = 15656.807 144.88969
  Final line search alpha, max atom move = 4.1137948e-13 5.9604645e-11
  Iterations, force evaluations = 24 102

MPI task timing breakdown:
Section |  min time  |  avg time  |  max time  |%varavg| %total
---------------------------------------------------------------
Pair    | 0.52339    | 0.54932    | 0.56906    |   1.2 | 58.26
Bond    | 7.0939e-06 | 1.1649e-05 | 1.9301e-05 |   0.0 |  0.00
Kspace  | 0.16678    | 0.18706    | 0.21441    |   2.1 | 19.84
Neigh   | 0.008858   | 0.010188   | 0.011137   |   0.5 |  1.08
Comm    | 0.019142   | 0.019983   | 0.020655   |   0.3 |  2.12
Output  | 0          | 0          | 0          |   0.0 |  0.00
Modify  | 0          | 0          | 0          |   0.0 |  0.00
Other   |            | 0.1763     |            |       | 18.70

Nlocal:        259.615 ave         283 max         224 min
Histogram: 2 1 1 3 6 10 13 6 7 3
Nghost:        5000.23 ave        5159 max        4887 min
Histogram: 19 5 0 2 7 3 0 0 9 7
Neighs:        83769.2 ave       92459 max       72764 min
Histogram: 3 1 1 3 7 18 7 2 9 1

Total # of neighbors = 4356000
Ave neighs/atom = 322.66667
Ave special neighs/atom = 0.0000000
Neighbor list builds = 4
Dangerous builds = 0
4500 atoms in group thorium
9000 atoms in group oxygen
Setting atom values ...
  0 settings made for type/subset
Setting atom values ...
  0 settings made for type/subset
0 atoms in group delete
WARNING: Ignoring 'compress yes' for molecular system (../delete_atoms.cpp:125)
Deleted 0 atoms, new total = 13500
PPPM initialization ...
  using 12-bit tables for long-range coulomb (../kspace.cpp:328)
  G vector (1/distance) = 0.30024452
  grid = 40 192 40
  stencil order = 5
  estimated absolute RMS force accuracy = 0.00014135159
  estimated relative force accuracy = 9.816325e-06
  using single precision MKL FFT
  3d grid and FFT values/proc = 16038 6000
Setting up cg style minimization ...
  Unit style    : metal
  Current step  : 0
WARNING: Energy due to 3 extra global DOFs will be included in minimizer energies
Per MPI rank memory allocation (min/avg/max) = 9.279 | 9.338 | 10.07 Mbytes
Step Temp E_pair E_mol TotEng Press Volume 
       0            0   -177709.67            0   -177709.67   -70.330898    195482.39 
       1            0   -177709.67            0   -177709.67   -70.330898    195482.39 
Loop time of 0.374827 on 52 procs for 1 steps with 13500 atoms

99.7% CPU use with 52 MPI tasks x 1 OpenMP threads

Minimization stats:
  Stopping criterion = linesearch alpha is zero
  Energy initial, next-to-last, final = 
     -177709.674194775  -177709.674194775  -177709.674194775
  Force two-norm initial, final = 171.70814 171.70814
  Force max component initial, final = 148.25401 148.25401
  Final line search alpha, max atom move = 4.0204406e-13 5.9604645e-11
  Iterations, force evaluations = 1 44

MPI task timing breakdown:
Section |  min time  |  avg time  |  max time  |%varavg| %total
---------------------------------------------------------------
Pair    | 0.21445    | 0.22554    | 0.23677    |   1.0 | 60.17
Bond    | 3.4124e-06 | 4.8144e-06 | 1.0804e-05 |   0.0 |  0.00
Kspace  | 0.058746   | 0.069822   | 0.080973   |   1.7 | 18.63
Neigh   | 0          | 0          | 0          |   0.0 |  0.00
Comm    | 0.0071358  | 0.007546   | 0.0078376  |   0.2 |  2.01
Output  | 0          | 0          | 0          |   0.0 |  0.00
Modify  | 0          | 0          | 0          |   0.0 |  0.00
Other   |            | 0.07192    |            |       | 19.19

Nlocal:        259.615 ave         300 max         220 min
Histogram: 2 1 4 10 14 5 6 5 4 1
Nghost:        5000.23 ave        5152 max        4868 min
Histogram: 7 14 3 0 6 4 2 0 3 13
Neighs:        83769.2 ave       95764 max       69015 min
Histogram: 1 1 1 9 9 14 4 6 3 4

Total # of neighbors = 4356000
Ave neighs/atom = 322.66667
Ave special neighs/atom = 0.0000000
Neighbor list builds = 0
Dangerous builds = 0
Resetting atom IDs ...
PPPM initialization ...
  using 12-bit tables for long-range coulomb (../kspace.cpp:328)
  G vector (1/distance) = 0.30024452
  grid = 40 192 40
  stencil order = 5
  estimated absolute RMS force accuracy = 0.00014135159
  estimated relative force accuracy = 9.816325e-06
  using single precision MKL FFT
  3d grid and FFT values/proc = 16038 6000
Finding 1-2 1-3 1-4 neighbors ...
  special bond factors lj:    0.0      0.0      0.0     
  special bond factors coul:  0.0      0.0      0.0     
     0 = max # of 1-2 neighbors
     0 = max # of 1-3 neighbors
     0 = max # of 1-4 neighbors
     1 = max # of special neighbors
  special bonds CPU = 0.001 seconds
PPPM initialization ...
  using 12-bit tables for long-range coulomb (../kspace.cpp:328)
  G vector (1/distance) = 0.30024452
  grid = 40 192 40
  stencil order = 5
  estimated absolute RMS force accuracy = 0.00014135159
  estimated relative force accuracy = 9.816325e-06
  using single precision MKL FFT
  3d grid and FFT values/proc = 16038 6000
Setting up Verlet run ...
  Unit style    : metal
  Current step  : 0
  Time step     : 0.001
Per MPI rank memory allocation (min/avg/max) = 9.417 | 9.477 | 10.21 Mbytes
Step Dt Time Atoms Temp PotEng KinEng Press Volume 
       0        0.001            0    13500         1500   -177709.67     2617.324    14230.753    195482.39 
   10000        0.001           10    13500    1507.6712   -174848.56    2630.7095   -1094.1785    204332.68 
   20000        0.001           20    13500    1499.9922   -174850.06    2617.3105     471.0084    204164.28 
   30000        0.001           30    13500    1492.1748   -174861.51      2603.67    662.65198    204127.45 
   40000        0.001           40    13500    1490.7366   -174878.83    2601.1605   -3047.9002    204474.87 
   50000        0.001           50    13500    1497.3223    -174896.7    2612.6518   -250.24241    204100.72 
   60000        0.001           60    13500    1506.1686    -174875.5    2628.0876    774.03396    204124.25 
   70000        0.001           70    13500    1497.7738   -174859.52    2613.4395    886.70343    204087.03 
   80000        0.001           80    13500    1494.4975   -174891.12    2607.7228    93.718618    204055.04 
   90000        0.001           90    13500    1501.1866    -174878.6    2619.3944   -707.13325    204195.47 
  100000        0.001          100    13500    1512.3076   -174861.86    2638.7993    -1768.932    204396.85 
Loop time of 672.882 on 52 procs for 100000 steps with 13500 atoms

Performance: 12.840 ns/day, 1.869 hours/ns, 148.615 timesteps/s
99.8% CPU use with 52 MPI tasks x 1 OpenMP threads

MPI task timing breakdown:
Section |  min time  |  avg time  |  max time  |%varavg| %total
---------------------------------------------------------------
Pair    | 407.19     | 414.34     | 418.72     |  14.0 | 61.58
Bond    | 0.0080674  | 0.011548   | 0.016964   |   1.8 |  0.00
Kspace  | 139.98     | 144.94     | 152.61     |  25.6 | 21.54
Neigh   | 7.0207     | 7.2251     | 7.3525     |   3.3 |  1.07
Comm    | 17.732     | 18.771     | 19.884     |  16.7 |  2.79
Output  | 0.045341   | 0.045378   | 0.047065   |   0.1 |  0.01
Modify  | 75.574     | 81.589     | 84.57      |  24.5 | 12.13
Other   |            | 5.962      |            |       |  0.89

Nlocal:        259.615 ave         271 max         244 min
Histogram: 1 2 4 2 8 10 6 10 7 2
Nghost:        4859.52 ave        4951 max        4807 min
Histogram: 10 8 10 4 5 1 7 1 3 3
Neighs:        80028.7 ave       83606 max       75341 min
Histogram: 1 5 0 7 9 5 9 6 6 4

Total # of neighbors = 4161491
Ave neighs/atom = 308.25859
Ave special neighs/atom = 0.0000000
Neighbor list builds = 3235
Dangerous builds = 0
System init for write_data ...
PPPM initialization ...
  using 12-bit tables for long-range coulomb (../kspace.cpp:328)
  G vector (1/distance) = 0.29947914
  grid = 40 192 40
  stencil order = 5
  estimated absolute RMS force accuracy = 0.00014708011
  estimated relative force accuracy = 1.0214148e-05
  using single precision MKL FFT
  3d grid and FFT values/proc = 16038 6000
Total wall time: 0:11:14
