LAMMPS (29 Oct 2020)
OMP_NUM_THREADS environment is not set. Defaulting to 1 thread. (../comm.cpp:94)
  using 1 OpenMP thread(s) per MPI task
OMP_NUM_THREADS environment is not set. Defaulting to 1 thread. (../comm.cpp:94)
  using 1 OpenMP thread(s) per MPI task
Reading data file ...
  triclinic box = (-0.1230606 -1.4901673 -0.12583423) to (28.017061 336.21817 28.019834) with tilt (0.0000000 0.0000000 0.0000000)
  2 by 13 by 2 MPI processor grid
  reading atoms ...
  18001 atoms
  reading velocities ...
  18001 velocities
Finding 1-2 1-3 1-4 neighbors ...
  special bond factors lj:    0.0      0.0      0.0     
  special bond factors coul:  0.0      0.0      0.0     
     0 = max # of 1-2 neighbors
     0 = max # of 1-3 neighbors
     0 = max # of 1-4 neighbors
     1 = max # of special neighbors
  special bonds CPU = 0.005 seconds
  read_data CPU = 0.070 seconds
Setting atom values ...
  12000 settings made for charge
Setting atom values ...
  6001 settings made for charge
PPPM initialization ...
WARNING: System is not charge neutral, net charge = 2.2208000 (../kspace.cpp:313)
  using 12-bit tables for long-range coulomb (../kspace.cpp:328)
  G vector (1/distance) = 0.29867623
  grid = 40 240 40
  stencil order = 5
  estimated absolute RMS force accuracy = 0.00015902646
  estimated relative force accuracy = 1.1043776e-05
  using single precision MKL FFT
  3d grid and FFT values/proc = 15000 7600
Neighbor list info ...
  update every 1 steps, delay 0 steps, check yes
  max neighbors/atom: 2000, page size: 100000
  master list distance cutoff = 11.3
  ghost atom cutoff = 11.3
  binsize = 5.65, bins = 5 60 5
  2 neighbor lists, perpetual/occasional/extra = 2 0 0
  (1) pair coul/long, perpetual
      attributes: half, newton on
      pair build: half/bin/newton/tri
      stencil: half/bin/3d/newton/tri
      bin: standard
  (2) pair eam/alloy, perpetual, copy from (1)
      attributes: half, newton on
      pair build: copy
      stencil: none
      bin: none
Setting up Verlet run ...
  Unit style    : metal
  Current step  : 0
  Time step     : 0.001
Per MPI rank memory allocation (min/avg/max) = 8.324 | 8.352 | 8.369 Mbytes
Step Temp E_pair E_mol TotEng Press 
       0          600   -234671.13            0   -233275.12   -110.54202 
  100000    604.17657   -234681.54            0   -233275.81   -302.64549 
Loop time of 684.178 on 52 procs for 100000 steps with 18001 atoms

Performance: 12.628 ns/day, 1.900 hours/ns, 146.161 timesteps/s
99.8% CPU use with 52 MPI tasks x 1 OpenMP threads

MPI task timing breakdown:
Section |  min time  |  avg time  |  max time  |%varavg| %total
---------------------------------------------------------------
Pair    | 448.69     | 466.7      | 485.56     |  36.0 | 68.21
Bond    | 0.0068589  | 0.011283   | 0.015475   |   2.0 |  0.00
Kspace  | 126.19     | 147.64     | 165.78     |  71.7 | 21.58
Neigh   | 47.627     | 50.17      | 54.496     |  23.2 |  7.33
Comm    | 14.372     | 15.253     | 17.177     |  19.5 |  2.23
Output  | 5.5321e-05 | 6.1091e-05 | 0.00030664 |   0.0 |  0.00
Modify  | 1.8051     | 3.1452     | 4.8566     |  58.3 |  0.46
Other   |            | 1.257      |            |       |  0.18

Nlocal:        346.173 ave         373 max         329 min
Histogram: 4 9 11 6 5 3 7 4 2 1
Nghost:        4100.92 ave        4230 max        4005 min
Histogram: 4 8 7 8 6 3 7 3 4 2
Neighs:        69867.2 ave       75622 max       65231 min
Histogram: 1 3 13 8 8 4 7 4 3 1

Total # of neighbors = 3633097
Ave neighs/atom = 201.82751
Ave special neighs/atom = 0.0000000
Neighbor list builds = 16214
Dangerous builds = 0
12000 atoms in group oxygen
PPPM initialization ...
  using 12-bit tables for long-range coulomb (../kspace.cpp:328)
  G vector (1/distance) = 0.29867623
  grid = 40 240 40
  stencil order = 5
  estimated absolute RMS force accuracy = 0.00015902646
  estimated relative force accuracy = 1.1043776e-05
  using single precision MKL FFT
  3d grid and FFT values/proc = 15000 7600
Setting up Verlet run ...
  Unit style    : metal
  Current step  : 0
  Time step     : 0.001
Per MPI rank memory allocation (min/avg/max) = 8.575 | 8.603 | 8.619 Mbytes
Step f_2 Temp v_Tdiff v_deltaT 
       0            0    604.17657            0            0 
  100000      650.113    600.61105  0.023291569    270.41295 
  200000    1274.4268    597.29894  0.026810848    311.27145 
  300000    1894.6437    601.19678    0.0269964    313.42569 
  400000    2519.7726    596.02387  0.026634595    309.22518 
  500000    3143.3802    602.51719  0.026102204    303.04416 
  600000    3769.5176    601.61775   0.02663527    309.23301 
  700000    4400.4699     599.7669  0.026292264    305.25074 
  800000    5031.7382    595.94263  0.026773679    310.83992 
  900000    5659.1964    601.57899   0.02690135    312.32217 
 1000000    6289.7087    600.68794  0.026615026    308.99798 
 1100000    6921.9517    598.00726  0.026148674    303.58368 
 1200000    7551.7442    601.52633  0.026337332    305.77397 
 1300000    8179.4342    599.89075  0.025907148    300.77958 
 1400000    8803.9795    603.96642  0.026808426    311.24334 
 1500000    9433.2771     600.9726  0.026641143     309.3012 
Loop time of 10090.1 on 52 procs for 1500000 steps with 18001 atoms

Performance: 12.844 ns/day, 1.869 hours/ns, 148.660 timesteps/s
99.8% CPU use with 52 MPI tasks x 1 OpenMP threads

MPI task timing breakdown:
Section |  min time  |  avg time  |  max time  |%varavg| %total
---------------------------------------------------------------
Pair    | 6672       | 6859.8     | 7079.9     | 111.7 | 67.98
Bond    | 0.11341    | 0.1631     | 0.22765    |   6.9 |  0.00
Kspace  | 1911.2     | 2167.5     | 2355.6     | 227.2 | 21.48
Neigh   | 739.87     | 779.25     | 845.08     |  84.4 |  7.72
Comm    | 214.79     | 229.28     | 266.29     |  86.8 |  2.27
Output  | 0.0016501  | 0.0017407  | 0.0035806  |   0.6 |  0.00
Modify  | 8.0471     | 8.8041     | 9.5066     |  12.0 |  0.09
Other   |            | 45.35      |            |       |  0.45

Nlocal:        346.173 ave         370 max         330 min
Histogram: 4 6 7 8 9 8 5 3 0 2
Nghost:        4112.98 ave        4209 max        4028 min
Histogram: 4 6 3 8 5 11 5 6 3 1
Neighs:        69863.7 ave       74791 max       65580 min
Histogram: 2 5 5 8 9 9 9 2 1 2

Total # of neighbors = 3632911
Ave neighs/atom = 201.81718
Ave special neighs/atom = 0.0000000
Neighbor list builds = 251992
Dangerous builds = 0
Total wall time: 2:59:34
