LAMMPS (29 Oct 2020)
OMP_NUM_THREADS environment is not set. Defaulting to 1 thread. (../comm.cpp:94)
  using 1 OpenMP thread(s) per MPI task
#-------------------------------
#
#This input script is used to simulate the defected configuration generated by overlapping cascades initiated at
#different energies
#Ziqiang Wang on 01/24/2022
#
#-------------------------------

clear
OMP_NUM_THREADS environment is not set. Defaulting to 1 thread. (../comm.cpp:94)
  using 1 OpenMP thread(s) per MPI task
units                    metal
dimension                    3
boundary                 p p p
atom_style               full
atom_modify              map  array

read_data               perfect_relaxed.dat
Reading data file ...
  triclinic box = (0.0000000 0.0000000 0.0000000) to (27.894000 334.72800 27.894000) with tilt (0.0000000 0.0000000 0.0000000)
  2 by 13 by 2 MPI processor grid
  reading atoms ...
  24000 atoms
  reading velocities ...
  24000 velocities
Finding 1-2 1-3 1-4 neighbors ...
  special bond factors lj:    0.0      0.0      0.0     
  special bond factors coul:  0.0      0.0      0.0     
     0 = max # of 1-2 neighbors
     0 = max # of 1-3 neighbors
     0 = max # of 1-4 neighbors
     1 = max # of special neighbors
  special bonds CPU = 0.004 seconds
  read_data CPU = 0.066 seconds

variable                ratio    equal   0.005
group                   vac_Th   id      5151 5614 4087  268 5189   90 1602 3980 2857  918 3965 3473 3655 1715                                           5673 4384 4835 5991 3898 1926 1435 3666 5514 5932 2590 5254 2085  512                                           1023 5342 2287  989 3278 5325 5491 2935 5384 5432 2341 5780 5929 1957                                           414 1270 2968 2394 4909  679  632 1205 5943 2661 2982 1267 3331 4533                                            4152 5638 2547 5723
60 atoms in group vac_Th


group                   vac_O    id     9066  7216 15374 13959 15885 12791  6734  9485 11649 10001  7669  9513                                         6600 14206 16258 13798 13628  7697 14875  6812  7027 10802 10053  7384                                         11294 16970 16720 15880  8558 11983 14345 11434 14613 12306  8552 10491                                         10165 13902 17019  7976 16089 10729 17142 11856  7675  6681 15690 17207                                         8156  9518 12445 13508 16547  8466 16824 15892 11755 13179  7492 11369                                          16749 12149 14739 15818 17847  6726 10414 11920 16364 11710 11221  8560                                         13271 10156 13024 15468 11064  8774 12612 16494 11108  7474  7370 15228                                         11451 12437 10878 16775 14249  9827 17495 16575 17139  7593 13586  7538                                         10731 11368  9226  7977  8441 11562 10578  9067  7990 16598 14412  9673                                         13260  6570 12618 17187  9385  7456 15928 10743  6833  8474 12434 15408
120 atoms in group vac_O

group                   oct_Th   id     18003 18004 18007 18008 18010 18013 18014 18017 18018 18020 18023 18024                                         18027 18030 18033 18034 18043 18044 18053 18054 18057 18058 18060 18063                                         18064 18067 18068 18070 18073 18074 18077 18083 18126 18127 18128 18129                                         18130 18131 18132 18133 18134 18135 18136 18137 18138 18140 18141 18153                                         18154 18157 18158 18160 18163 18164 18167 18168 18170 18173 18174 18177
60 atoms in group oct_Th

group                   oct_O    id     18001 18002 18005 18006 18009 18011 18012 18015 18016 18019 18021 18022                                          18025 18026 18029 18031 18032 18036 18041 18042 18046 18049 18051 18052                                          18055 18056 18059 18061 18062 18065 18066 18069 18071 18072 18082 18092                                          18101 18102 18103 18104 18105 18106 18107 18108 18109 18110 18111 18112                                          18117 18151 18152 18155 18156 18159 18161 18162 18165 18166 18169 18171                                          18172 18175 18176 18179 18181 18201 18202 18205 18206 18209 18211 18212                                          18215 18216 18219 18221 18222 18225 18226 18229 18235 18282 18286 18291                                          18293 18327 18336 18352 18357 18407 18416 18417 18452 18461 18462 18476                                          18478 18480 18481 18485 18486 18489 18492 18495 18496 18499 18505 18509                                          18550 18554 18582 18583 18637 18712 18722 18926 18932 18976 19026 19112
120 atoms in group oct_O


group                   tot_oct_Th   type   4
3000 atoms in group tot_oct_Th
group                   tot_oct_O    type   3
3000 atoms in group tot_oct_O

group                   delete_oct_Th   subtract   tot_oct_Th  oct_Th
2940 atoms in group delete_oct_Th
group                   delete_oct_O    subtract   tot_oct_O   oct_O
2880 atoms in group delete_oct_O

delete_atoms            group  vac_Th
WARNING: Ignoring 'compress yes' for molecular system (../delete_atoms.cpp:125)
Deleted 60 atoms, new total = 23940
delete_atoms            group  vac_O
WARNING: Ignoring 'compress yes' for molecular system (../delete_atoms.cpp:125)
Deleted 120 atoms, new total = 23820
delete_atoms            group  delete_oct_Th
WARNING: Ignoring 'compress yes' for molecular system (../delete_atoms.cpp:125)
Deleted 2940 atoms, new total = 20880
delete_atoms            group  delete_oct_O
WARNING: Ignoring 'compress yes' for molecular system (../delete_atoms.cpp:125)
Deleted 2880 atoms, new total = 18000

kspace_style                   pppm            1.0e-5
pair_style                     hybrid/overlay     coul/long    11.0   eam/alloy
pair_coeff                     * * coul/long
pair_coeff                     * * eam/alloy CeThUNpPuAmCmO.eam.alloy O Th O Th
neighbor                 2.0  bin
neigh_modify             delay  0  every  1  check   yes

set                      type      1      charge    -1.1104
Setting atom values ...
  11880 settings made for charge
set                      type      2      charge     2.2208
Setting atom values ...
  5940 settings made for charge
set                      type      3      charge    -1.1104
Setting atom values ...
  120 settings made for charge
set                      type      4      charge     2.2208
Setting atom values ...
  60 settings made for charge

# Minimize the defected configuration at 0K
min_style                cg
fix                      relax   all  box/relax  aniso 0.0 vmax 0.001
minimize                 1.0e-30 1.0e-30 10000 10000
PPPM initialization ...
  using 12-bit tables for long-range coulomb (../kspace.cpp:328)
  G vector (1/distance) = 0.29916851
  grid = 40 240 40
  stencil order = 5
  estimated absolute RMS force accuracy = 0.00015502622
  estimated relative force accuracy = 1.0765975e-05
  using single precision MKL FFT
  3d grid and FFT values/proc = 18225 7600
Neighbor list info ...
  update every 1 steps, delay 0 steps, check yes
  max neighbors/atom: 2000, page size: 100000
  master list distance cutoff = 13
  ghost atom cutoff = 13
  binsize = 6.5, bins = 5 52 5
  2 neighbor lists, perpetual/occasional/extra = 2 0 0
  (1) pair coul/long, perpetual
      attributes: half, newton on
      pair build: half/bin/newton/tri
      stencil: half/bin/3d/newton/tri
      bin: standard
  (2) pair eam/alloy, perpetual, copy from (1)
      attributes: half, newton on
      pair build: copy
      stencil: none
      bin: none
Per MPI rank memory allocation (min/avg/max) = 10.44 | 10.47 | 10.51 Mbytes
Step Temp E_pair E_mol TotEng Press Volume 
       0            0   -226408.54            0   -226408.54    32170.997    260443.57 
    2272            0   -234891.28            0   -234891.28    42.986162    266275.75 
Loop time of 40.8324 on 52 procs for 2272 steps with 18000 atoms

99.8% CPU use with 52 MPI tasks x 1 OpenMP threads

Minimization stats:
  Stopping criterion = linesearch alpha is zero
  Energy initial, next-to-last, final = 
      -226408.54296344   -234891.27988057   -234891.27988057
  Force two-norm initial, final = 13016.819 29.330577
  Force max component initial, final = 9650.8630 14.567195
  Final line search alpha, max atom move = 1.2390320e-11 1.8049220e-10
  Iterations, force evaluations = 2272 3333

MPI task timing breakdown:
Section |  min time  |  avg time  |  max time  |%varavg| %total
---------------------------------------------------------------
Pair    | 21.009     | 22.876     | 26.724     |  31.9 | 56.02
Bond    | 0.00030463 | 0.00043764 | 0.0006166  |   0.0 |  0.00
Kspace  | 5.1011     | 8.9685     | 10.844     |  50.9 | 21.96
Neigh   | 0.092004   | 0.10333    | 0.12484    |   1.9 |  0.25
Comm    | 0.54584    | 0.56217    | 0.57933    |   1.0 |  1.38
Output  | 0          | 0          | 0          |   0.0 |  0.00
Modify  | 0          | 0          | 0          |   0.0 |  0.00
Other   |            | 8.322      |            |       | 20.38

Nlocal:        346.154 ave         386 max         316 min
Histogram: 5 6 8 4 5 11 5 5 0 3
Nghost:        5603.52 ave        5807 max        5462 min
Histogram: 7 8 5 5 11 8 0 2 0 6
Neighs:       110632.0 ave      129559 max      100521 min
Histogram: 7 6 10 8 10 6 1 2 0 2

Total # of neighbors = 5752877
Ave neighs/atom = 319.60428
Ave special neighs/atom = 0.0000000
Neighbor list builds = 26
Dangerous builds = 0
unfix                    relax
reset_timestep           0

# Apply the temperature to the system and relax the configurations
reset_atom_ids
Resetting atom IDs ...
PPPM initialization ...
  using 12-bit tables for long-range coulomb (../kspace.cpp:328)
  G vector (1/distance) = 0.29881272
  grid = 40 240 40
  stencil order = 5
  estimated absolute RMS force accuracy = 0.00015764233
  estimated relative force accuracy = 1.0947654e-05
  using single precision MKL FFT
  3d grid and FFT values/proc = 18225 7600
Finding 1-2 1-3 1-4 neighbors ...
  special bond factors lj:    0.0      0.0      0.0     
  special bond factors coul:  0.0      0.0      0.0     
     0 = max # of 1-2 neighbors
     0 = max # of 1-3 neighbors
     0 = max # of 1-4 neighbors
     1 = max # of special neighbors
  special bonds CPU = 0.001 seconds
variable                 temp   index  600
velocity                 all  create  ${temp}  4526826  rot  yes  mom  yes  dist  gaussian
velocity                 all  create  600  4526826  rot  yes  mom  yes  dist  gaussian
fix                      npt  all  npt  temp  ${temp}  ${temp}  $(100*dt)  aniso  0.0  0.0  $(1000*dt)
fix                      npt  all  npt  temp  600  ${temp}  $(100*dt)  aniso  0.0  0.0  $(1000*dt)
fix                      npt  all  npt  temp  600  600  $(100*dt)  aniso  0.0  0.0  $(1000*dt)
fix                      npt  all  npt  temp  600  600  0.10000000000000000555  aniso  0.0  0.0  $(1000*dt)
fix                      npt  all  npt  temp  600  600  0.10000000000000000555  aniso  0.0  0.0  1
timestep                 0.001
thermo                   100000
thermo_style             custom  step  temp  ke  pe  press

shell                    mkdir   Frenkel_${ratio}_relax
shell                    mkdir   Frenkel_0.005_relax
dump                     1  all  custom  100000  ./Frenkel_${ratio}_relax/dump_relax.atom.*  id type q mass x y z
dump                     1  all  custom  100000  ./Frenkel_0.005_relax/dump_relax.atom.*  id type q mass x y z
dump_modify              1  element  O Th O Th

run                      100000
PPPM initialization ...
  using 12-bit tables for long-range coulomb (../kspace.cpp:328)
  G vector (1/distance) = 0.29881272
  grid = 40 240 40
  stencil order = 5
  estimated absolute RMS force accuracy = 0.00015764233
  estimated relative force accuracy = 1.0947654e-05
  using single precision MKL FFT
  3d grid and FFT values/proc = 18225 7600
Per MPI rank memory allocation (min/avg/max) = 10.58 | 10.62 | 10.65 Mbytes
Step Temp KinEng PotEng Press 
       0          600     1395.932   -234891.29    5642.0008 
  100000    600.37476    1396.8039   -234964.46    214.98202 
Loop time of 876.788 on 52 procs for 100000 steps with 18000 atoms

Performance: 9.854 ns/day, 2.436 hours/ns, 114.053 timesteps/s
99.8% CPU use with 52 MPI tasks x 1 OpenMP threads

MPI task timing breakdown:
Section |  min time  |  avg time  |  max time  |%varavg| %total
---------------------------------------------------------------
Pair    | 549.4      | 557.82     | 572.94     |  21.2 | 63.62
Bond    | 0.0097248  | 0.014207   | 0.019659   |   2.2 |  0.00
Kspace  | 155.46     | 170.31     | 178.62     |  37.9 | 19.42
Neigh   | 4.4297     | 4.5843     | 4.7891     |   4.4 |  0.52
Comm    | 16.649     | 17.101     | 17.467     |   4.7 |  1.95
Output  | 0.0047389  | 0.0047436  | 0.0049114  |   0.0 |  0.00
Modify  | 112.93     | 118.19     | 122.7      |  25.4 | 13.48
Other   |            | 8.762      |            |       |  1.00

Nlocal:        346.154 ave         366 max         328 min
Histogram: 2 9 4 8 5 6 6 5 5 2
Nghost:        5464.38 ave        5742 max        5327 min
Histogram: 16 7 9 0 4 3 9 0 0 4
Neighs:       109498.0 ave      117299 max      102625 min
Histogram: 4 2 8 8 7 6 7 7 1 2

Total # of neighbors = 5693892
Ave neighs/atom = 316.32733
Ave special neighs/atom = 0.0000000
Neighbor list builds = 1133
Dangerous builds = 0
shell                    mkdir  thermal_condu
write_data               ./thermal_condu/Frenkel_${ratio}_relaxed.dat
write_data               ./thermal_condu/Frenkel_0.005_relaxed.dat
System init for write_data ...
PPPM initialization ...
  using 12-bit tables for long-range coulomb (../kspace.cpp:328)
  G vector (1/distance) = 0.29856002
  grid = 40 240 40
  stencil order = 5
  estimated absolute RMS force accuracy = 0.00016033161
  estimated relative force accuracy = 1.1134414e-05
  using single precision MKL FFT
  3d grid and FFT values/proc = 18225 7600

Total wall time: 0:15:18
