LAMMPS (29 Oct 2020)
OMP_NUM_THREADS environment is not set. Defaulting to 1 thread. (../comm.cpp:94)
  using 1 OpenMP thread(s) per MPI task
OMP_NUM_THREADS environment is not set. Defaulting to 1 thread. (../comm.cpp:94)
  using 1 OpenMP thread(s) per MPI task
Reading data file ...
  orthogonal box = (-0.27717828 -3.4472206 -0.27717828) to (27.617178 331.52722 27.617178)
  2 by 13 by 2 MPI processor grid
  reading atoms ...
  18000 atoms
  reading velocities ...
  18000 velocities
Finding 1-2 1-3 1-4 neighbors ...
  special bond factors lj:    0.0      0.0      0.0     
  special bond factors coul:  0.0      0.0      0.0     
     0 = max # of 1-2 neighbors
     0 = max # of 1-3 neighbors
     0 = max # of 1-4 neighbors
     1 = max # of special neighbors
  special bonds CPU = 0.004 seconds
  read_data CPU = 0.080 seconds
120 atoms in group Th_delete
240 atoms in group O_delete
360 atoms in group delete
WARNING: Ignoring 'compress yes' for molecular system (../delete_atoms.cpp:125)
Deleted 360 atoms, new total = 17640
Setting atom values ...
  11760 settings made for charge
Setting atom values ...
  5880 settings made for charge
PPPM initialization ...
  using 12-bit tables for long-range coulomb (../kspace.cpp:328)
  G vector (1/distance) = 0.29912164
  grid = 40 240 40
  stencil order = 5
  estimated absolute RMS force accuracy = 0.00015376724
  estimated relative force accuracy = 1.0678544e-05
  using single precision MKL FFT
  3d grid and FFT values/proc = 18225 7600
Neighbor list info ...
  update every 1 steps, delay 0 steps, check yes
  max neighbors/atom: 2000, page size: 100000
  master list distance cutoff = 13
  ghost atom cutoff = 13
  binsize = 6.5, bins = 5 52 5
  2 neighbor lists, perpetual/occasional/extra = 2 0 0
  (1) pair coul/long, perpetual
      attributes: half, newton on
      pair build: half/bin/newton
      stencil: half/bin/3d/newton
      bin: standard
  (2) pair eam/alloy, perpetual, copy from (1)
      attributes: half, newton on
      pair build: copy
      stencil: none
      bin: none
Setting up cg style minimization ...
  Unit style    : metal
  Current step  : 0
WARNING: Energy due to 3 extra global DOFs will be included in minimizer energies
Per MPI rank memory allocation (min/avg/max) = 9.469 | 10.11 | 10.28 Mbytes
Step Temp E_pair E_mol TotEng Press Volume 
       0            0   -230541.87            0   -230541.87   -4689.2733    260641.98 
     210            0   -231298.48            0   -231298.48    18.795918    261436.92 
Loop time of 3.56206 on 52 procs for 210 steps with 17640 atoms

99.5% CPU use with 52 MPI tasks x 1 OpenMP threads

Minimization stats:
  Stopping criterion = linesearch alpha is zero
  Energy initial, next-to-last, final = 
     -230541.870980037  -231298.481099412  -231298.481099412
  Force two-norm initial, final = 1350.4475 8.1407119
  Force max component initial, final = 910.88202 3.1602071
  Final line search alpha, max atom move = 1.3980703e-10 4.4181916e-10
  Iterations, force evaluations = 210 334

MPI task timing breakdown:
Section |  min time  |  avg time  |  max time  |%varavg| %total
---------------------------------------------------------------
Pair    | 2.0879     | 2.185      | 2.2829     |   3.1 | 61.34
Bond    | 2.5905e-05 | 4.1777e-05 | 6.4075e-05 |   0.0 |  0.00
Kspace  | 0.52998    | 0.62799    | 0.72428    |   5.7 | 17.63
Neigh   | 0.0050961  | 0.0057883  | 0.0063523  |   0.4 |  0.16
Comm    | 0.054974   | 0.056882   | 0.058354   |   0.4 |  1.60
Output  | 0          | 0          | 0          |   0.0 |  0.00
Modify  | 0          | 0          | 0          |   0.0 |  0.00
Other   |            | 0.6864     |            |       | 19.27

Nlocal:        339.231 ave         375 max         299 min
Histogram: 2 2 3 9 10 5 6 6 7 2
Nghost:        5537.87 ave        5684 max        5379 min
Histogram: 7 5 5 0 5 5 6 10 6 3
Neighs:       107386.0 ave      120306 max       93498 min
Histogram: 2 3 4 9 8 6 6 6 5 3

Total # of neighbors = 5584097
Ave neighs/atom = 316.55879
Ave special neighs/atom = 0.0000000
Neighbor list builds = 2
Dangerous builds = 0
Resetting atom IDs ...
PPPM initialization ...
  using 12-bit tables for long-range coulomb (../kspace.cpp:328)
  G vector (1/distance) = 0.29907141
  grid = 40 240 40
  stencil order = 5
  estimated absolute RMS force accuracy = 0.00015414168
  estimated relative force accuracy = 1.0704547e-05
  using single precision MKL FFT
  3d grid and FFT values/proc = 18225 7600
Finding 1-2 1-3 1-4 neighbors ...
  special bond factors lj:    0.0      0.0      0.0     
  special bond factors coul:  0.0      0.0      0.0     
     0 = max # of 1-2 neighbors
     0 = max # of 1-3 neighbors
     0 = max # of 1-4 neighbors
     1 = max # of special neighbors
  special bonds CPU = 0.001 seconds
PPPM initialization ...
  using 12-bit tables for long-range coulomb (../kspace.cpp:328)
  G vector (1/distance) = 0.29907141
  grid = 40 240 40
  stencil order = 5
  estimated absolute RMS force accuracy = 0.00015414168
  estimated relative force accuracy = 1.0704547e-05
  using single precision MKL FFT
  3d grid and FFT values/proc = 18225 7600
Setting up Verlet run ...
  Unit style    : metal
  Current step  : 210
  Time step     : 0.001
Per MPI rank memory allocation (min/avg/max) = 8.379 | 9.120 | 9.153 Mbytes
Step Dt Time Atoms Temp PotEng KinEng Press Volume 
     210        0.001            0    17640         1200   -231298.48    2736.0236     11196.89    261436.92 
   20000        0.001        19.79    17640    1200.5946   -228621.48    2737.3794   -361.27073    270243.21 
   40000        0.001        39.79    17640    1200.1322   -228646.98    2736.3251   -1164.5543    270386.76 
   60000        0.001        59.79    17640    1187.6807   -228624.08    2707.9353   -931.09626    270391.43 
   80000        0.001        79.79    17640    1207.6738   -228623.73      2753.52    835.55953     270121.3 
  100000        0.001        99.79    17640    1209.9705   -228628.47    2758.7565    543.28665    270144.15 
  100210        0.001          100    17640    1190.2769   -228624.65    2713.8547    163.06002    270157.38 
Loop time of 813.479 on 52 procs for 100000 steps with 17640 atoms

Performance: 10.621 ns/day, 2.260 hours/ns, 122.929 timesteps/s
99.8% CPU use with 52 MPI tasks x 1 OpenMP threads

MPI task timing breakdown:
Section |  min time  |  avg time  |  max time  |%varavg| %total
---------------------------------------------------------------
Pair    | 508.55     | 520.29     | 541.47     |  29.3 | 63.96
Bond    | 0.0090164  | 0.013337   | 0.020037   |   1.7 |  0.00
Kspace  | 144.18     | 165.67     | 177.56     |  53.1 | 20.37
Neigh   | 7.2046     | 7.5993     | 8.0503     |   7.5 |  0.93
Comm    | 16.044     | 16.526     | 16.984     |   5.2 |  2.03
Output  | 0.023815   | 0.023839   | 0.024851   |   0.1 |  0.00
Modify  | 92.473     | 96.092     | 99.562     |  22.1 | 11.81
Other   |            | 7.269      |            |       |  0.89

Nlocal:        339.231 ave         366 max         319 min
Histogram: 1 6 9 8 9 9 2 6 1 1
Nghost:        5403.62 ave        5570 max        5285 min
Histogram: 3 8 12 10 2 1 4 4 4 4
Neighs:       103616.0 ave      113961 max       95499 min
Histogram: 2 4 5 8 15 7 8 2 0 1

Total # of neighbors = 5388045
Ave neighs/atom = 305.44473
Ave special neighs/atom = 0.0000000
Neighbor list builds = 2715
Dangerous builds = 0
WARNING: Shell command 'mkdir' failed with error 'File exists' (../input.cpp:1197)
System init for write_data ...
PPPM initialization ...
  using 12-bit tables for long-range coulomb (../kspace.cpp:328)
  G vector (1/distance) = 0.29847052
  grid = 40 240 40
  stencil order = 5
  estimated absolute RMS force accuracy = 0.0001589685
  estimated relative force accuracy = 1.1039751e-05
  using single precision MKL FFT
  3d grid and FFT values/proc = 18225 7600
Total wall time: 0:13:37
