ITEM: TIMESTEP
50000
ITEM: NUMBER OF ATOMS
18000
ITEM: BOX BOUNDS xy xz yz pp pp pp
-1.1660341378642855e-01 2.8010603413786320e+01 0.0000000000000000e+00
-1.4417662271062424e+00 3.3616976622709666e+02 0.0000000000000000e+00
-1.1760354926704311e-01 2.8011603549267480e+01 0.0000000000000000e+00
ITEM: ATOMS id type q mass x y z
9016 2 2.2208 232.038 0.0661812 18.2587 8.50744
2 1 -1.1104 15.9994 6.8973 16.5851 12.5692
22 2 2.2208 232.038 2.71097 12.2888 -0.10307
8962 2 2.2208 232.038 0.0707302 20.9027 11.2973
662 2 2.2208 232.038 11.3275 -1.40215 -0.123314
6 1 -1.1104 15.9994 4.19681 19.4522 12.7564
7 1 -1.1104 15.9994 1.49914 19.6126 12.8256
8 2 2.2208 232.038 5.63816 1.14063 2.85913
9 1 -1.1104 15.9994 4.15386 16.5802 12.5755
10 2 2.2208 232.038 11.3654 1.22827 2.64234
11 1 -1.1104 15.9994 1.50509 16.6811 12.7066
12 1 -1.1104 15.9994 12.6671 13.7983 12.6032
13 2 2.2208 232.038 2.83889 3.9453 2.70361
61 2 2.2208 232.038 -0.10004 4.11948 5.52598
15 1 -1.1104 15.9994 12.8028 11.0754 12.7137
16 1 -1.1104 15.9994 9.84657 13.8088 12.528
17 2 2.2208 232.038 8.38703 4.04964 2.73733
18 2 2.2208 232.038 5.53133 6.8093 2.76671
19 1 -1.1104 15.9994 6.96606 13.8934 12.5615
20 2 2.2208 232.038 11.2814 6.88682 2.80837
9014 2 2.2208 232.038 0.009734 20.8513 5.64557
71 2 2.2208 232.038 0.00940345 9.55591 5.59617
23 2 2.2208 232.038 2.70616 9.59174 2.6143
317 1 -1.1104 15.9994 4.11402 5.38732 12.4289
25 1 -1.1104 15.9994 9.95147 11.1912 12.5481
26 1 -1.1104 15.9994 7.1067 11.1999 12.7499
27 2 2.2208 232.038 8.43386 9.69956 2.81305
28 2 2.2208 232.038 5.5532 12.3592 2.8609
29 1 -1.1104 15.9994 4.2262 13.758 12.4979
30 2 2.2208 232.038 11.4058 12.4188 2.53535
8968 2 2.2208 232.038 0.148035 23.7022 8.25989
32 1 -1.1104 15.9994 1.44386 13.8494 12.4686
33 2 2.2208 232.038 2.81353 15.1097 2.67327
398 2 2.2208 232.038 2.71579 23.6918 -0.107655
35 1 -1.1104 15.9994 4.23874 11.0415 12.4581
36 1 -1.1104 15.9994 1.50771 11.0441 12.496
37 2 2.2208 232.038 8.44764 14.8233 2.64192
38 2 2.2208 232.038 5.26368 18.0017 2.73476
39 1 -1.1104 15.9994 12.8291 8.36602 12.4923
40 2 2.2208 232.038 11.5959 18.0307 2.6939
311 1 -1.1104 15.9994 9.90566 -0.253124 12.7652
42 1 -1.1104 15.9994 12.6487 5.44705 12.7731
43 2 2.2208 232.038 2.70192 20.9791 2.79093
316 1 -1.1104 15.9994 1.31343 5.60979 12.6587
45 1 -1.1104 15.9994 10.0053 8.4326 12.8479
46 1 -1.1104 15.9994 7.09741 8.25758 12.7032
47 2 2.2208 232.038 8.42023 21.1278 2.59911
48 2 2.2208 232.038 5.49569 23.6451 2.67662
49 1 -1.1104 15.9994 9.82783 5.34351 12.568
50 2 2.2208 232.038 11.2783 23.6454 2.53402
51 1 -1.1104 15.9994 6.95032 5.4922 12.6823
52 2 2.2208 232.038 2.82233 1.37369 5.61388
53 1 -1.1104 15.9994 7.19607 22.4146 12.7392
310 1 -1.1104 15.9994 7.11672 -0.235911 12.7125
55 1 -1.1104 15.9994 4.33918 22.3321 12.4377
56 2 2.2208 232.038 8.54983 1.16184 5.63223
57 1 -1.1104 15.9994 1.35435 22.4415 12.6167
58 2 2.2208 232.038 5.65911 1.24623 8.47802
59 1 -1.1104 15.9994 12.7268 19.3943 12.6023
60 2 2.2208 232.038 11.4246 1.20207 8.3914
44 3 -1.1104 15.9994 -0.0484013 18.2037 11.3885
62 2 2.2208 232.038 2.76308 6.78199 5.49234
63 2 2.2208 232.038 2.86604 4.13256 8.40372
318 1 -1.1104 15.9994 1.31308 8.25311 12.5509
65 2 2.2208 232.038 5.67514 4.08375 5.68713
66 2 2.2208 232.038 8.37306 6.83661 5.53911
67 2 2.2208 232.038 8.4372 3.94967 8.35032
68 2 2.2208 232.038 5.5574 6.97408 8.36713
69 2 2.2208 232.038 11.1992 4.03113 5.58621
70 2 2.2208 232.038 11.2821 6.64144 8.40111
313 1 -1.1104 15.9994 9.9764 2.53634 12.6042
72 2 2.2208 232.038 2.75938 12.3076 5.56454
73 2 2.2208 232.038 2.85786 9.62285 8.34532
74 1 -1.1104 15.9994 4.29726 8.22238 12.7041
75 2 2.2208 232.038 5.5991 9.6288 5.5315
76 2 2.2208 232.038 8.43455 12.2874 5.66105
77 2 2.2208 232.038 8.07178 9.83711 8.46995
78 2 2.2208 232.038 5.42387 12.5498 8.31473
79 2 2.2208 232.038 11.3151 9.6267 5.3934
80 2 2.2208 232.038 11.3705 12.7924 8.3473
81 4 2.2208 232.038 8.52966 17.9469 2.89408
82 2 2.2208 232.038 2.81636 17.9197 5.61906
83 2 2.2208 232.038 2.86514 15.2807 8.36443
315 1 -1.1104 15.9994 12.8082 2.67873 12.6214
85 2 2.2208 232.038 5.65942 15.2491 5.57329
86 2 2.2208 232.038 8.65787 18.0348 5.93692
87 2 2.2208 232.038 8.5072 15.2201 8.27779
88 2 2.2208 232.038 5.67306 18.0107 8.38709
89 2 2.2208 232.038 11.4825 15.1857 5.50558
90 2 2.2208 232.038 11.4076 18.004 8.56207
91 1 -1.1104 15.9994 12.6939 16.6073 12.6366
92 2 2.2208 232.038 2.88858 23.615 5.49453
93 2 2.2208 232.038 2.94927 20.7034 8.2501
314 1 -1.1104 15.9994 12.7777 -0.201396 12.6356
95 2 2.2208 232.038 5.70731 20.9135 5.50245
96 2 2.2208 232.038 8.39867 23.7256 5.42099
97 2 2.2208 232.038 8.45436 20.9381 8.38064
98 2 2.2208 232.038 5.57704 23.8412 8.34891
99 2 2.2208 232.038 11.3469 20.8282 5.56385
100 2 2.2208 232.038 11.2802 23.6473 8.20017
101 1 -1.1104 15.9994 9.94734 19.5485 12.5849
102 2 2.2208 232.038 2.89111 1.30341 11.2927
103 1 -1.1104 15.9994 7.04252 19.3823 12.3995
104 2 2.2208 232.038 8.58971 1.0198 11.2655
105 1 -1.1104 15.9994 9.74647 16.6362 12.6088
312 1 -1.1104 15.9994 7.14831 2.5711 12.5777
107 2 2.2208 232.038 2.83183 6.8424 11.1523
108 2 2.2208 232.038 5.69057 3.933 11.1573
109 2 2.2208 232.038 8.31099 6.72781 11.2854
110 2 2.2208 232.038 11.2728 3.82034 11.158
111 4 2.2208 232.038 11.3653 9.83018 8.47507
112 2 2.2208 232.038 2.84594 12.5516 11.0962
113 2 2.2208 232.038 5.61403 9.66373 11.286
114 2 2.2208 232.038 8.4794 12.5044 11.3119
115 2 2.2208 232.038 11.3362 9.69384 11.5557
116 1 -1.1104 15.9994 12.6587 22.3639 12.5322
117 2 2.2208 232.038 2.61042 18.1303 11.1545
118 2 2.2208 232.038 5.72263 15.2368 11.0944
119 2 2.2208 232.038 8.42577 18.0284 11.1378
120 2 2.2208 232.038 11.2146 15.2618 11.3099
121 1 -1.1104 15.9994 9.77821 22.3723 12.6621
122 2 2.2208 232.038 2.7705 23.6875 11.0763
123 2 2.2208 232.038 5.65091 20.8075 11.1554
124 2 2.2208 232.038 8.53885 23.7733 10.9698
125 2 2.2208 232.038 11.5207 20.8832 11.1457
126 1 -1.1104 15.9994 1.14695 -0.199648 1.19604
127 1 -1.1104 15.9994 4.13378 -0.220263 1.43435
128 1 -1.1104 15.9994 1.40725 -0.250347 3.91793
129 1 -1.1104 15.9994 4.28765 -0.140699 4.33761
130 1 -1.1104 15.9994 1.44989 2.59196 1.48388
131 1 -1.1104 15.9994 4.17215 2.49555 1.20608
132 1 -1.1104 15.9994 1.4197 2.59048 4.27356
133 1 -1.1104 15.9994 4.22633 2.70871 4.11883
134 1 -1.1104 15.9994 7.04979 -0.21573 1.57565
135 1 -1.1104 15.9994 9.90527 -0.086226 1.46198
136 1 -1.1104 15.9994 7.06583 -0.312136 4.37251
137 1 -1.1104 15.9994 9.93032 -0.0827725 4.11983
138 1 -1.1104 15.9994 6.94445 2.61253 1.27752
139 1 -1.1104 15.9994 9.55878 2.88018 1.21899
140 1 -1.1104 15.9994 6.81891 2.63347 4.2682
141 1 -1.1104 15.9994 9.73526 2.73966 4.057
142 1 -1.1104 15.9994 12.843 -0.289691 1.35999
143 1 -1.1104 15.9994 12.733 -0.155258 4.14376
144 1 -1.1104 15.9994 12.6195 2.80611 1.4777
145 1 -1.1104 15.9994 12.5341 2.53835 4.36625
146 1 -1.1104 15.9994 1.42442 5.3837 1.51463
147 1 -1.1104 15.9994 4.13824 5.4104 1.14495
148 1 -1.1104 15.9994 1.40128 5.35535 4.25206
149 1 -1.1104 15.9994 4.25826 5.36373 4.16125
150 1 -1.1104 15.9994 1.25052 8.04046 1.44952
151 1 -1.1104 15.9994 4.19773 8.08987 1.46938
152 1 -1.1104 15.9994 1.36869 8.2451 4.12958
153 1 -1.1104 15.9994 4.16497 8.22824 4.12886
154 1 -1.1104 15.9994 6.87924 5.44432 1.26174
155 1 -1.1104 15.9994 9.76414 5.64799 1.56702
156 1 -1.1104 15.9994 6.96686 5.46282 4.02155
157 1 -1.1104 15.9994 9.93376 5.54854 4.34095
158 1 -1.1104 15.9994 7.04093 8.18912 1.61884
159 1 -1.1104 15.9994 9.95856 8.38802 1.55363
160 1 -1.1104 15.9994 7.02375 8.29065 4.25721
161 1 -1.1104 15.9994 9.83621 8.16164 4.3508
162 1 -1.1104 15.9994 12.5836 5.48052 1.48682
163 1 -1.1104 15.9994 12.7725 5.36254 4.43802
164 1 -1.1104 15.9994 12.7463 8.3258 1.5035
165 1 -1.1104 15.9994 12.6633 8.21388 4.17184
166 1 -1.1104 15.9994 1.25632 11.2058 1.52289
167 1 -1.1104 15.9994 4.29162 11.0352 1.35936
168 1 -1.1104 15.9994 1.31412 11.0855 4.23678
169 1 -1.1104 15.9994 4.14856 11.0162 4.18996
170 1 -1.1104 15.9994 1.47269 13.9367 1.14165
171 1 -1.1104 15.9994 4.25085 13.769 1.36898
172 1 -1.1104 15.9994 1.45594 13.7801 4.10243
173 1 -1.1104 15.9994 4.15133 13.948 4.21353
174 1 -1.1104 15.9994 7.05319 10.9901 1.38303
175 1 -1.1104 15.9994 9.85829 11.1561 1.33596
176 1 -1.1104 15.9994 7.07583 11.0024 4.23834
177 1 -1.1104 15.9994 9.83712 10.9888 4.19385
178 1 -1.1104 15.9994 6.96779 13.8961 1.34505
179 1 -1.1104 15.9994 9.88382 13.9713 1.08675
180 1 -1.1104 15.9994 6.96296 13.7466 4.16361
181 1 -1.1104 15.9994 9.97983 13.7503 4.03441
182 1 -1.1104 15.9994 12.8335 11.0679 1.35294
183 1 -1.1104 15.9994 12.7208 10.9285 4.19024
184 1 -1.1104 15.9994 12.6459 13.8324 1.33085
185 1 -1.1104 15.9994 12.7048 13.7713 4.11579
186 1 -1.1104 15.9994 1.35419 16.6262 1.41878
187 1 -1.1104 15.9994 4.0564 16.6904 1.2832
188 1 -1.1104 15.9994 1.46123 16.6786 4.25627
189 1 -1.1104 15.9994 4.28874 16.5866 4.16488
190 1 -1.1104 15.9994 1.53929 19.5185 1.32834
191 1 -1.1104 15.9994 4.40045 19.5093 1.38776
192 1 -1.1104 15.9994 1.48919 19.4228 4.13518
193 1 -1.1104 15.9994 4.36079 19.4337 4.14323
194 1 -1.1104 15.9994 7.10992 16.6793 1.53036
195 1 -1.1104 15.9994 9.58199 16.7784 1.29034
196 1 -1.1104 15.9994 7.22997 16.727 4.2048
197 1 -1.1104 15.9994 9.89732 16.5116 3.905
198 1 -1.1104 15.9994 7.18174 19.3906 1.31871
199 1 -1.1104 15.9994 9.77976 19.5496 1.72388
200 1 -1.1104 15.9994 7.22869 19.426 4.01742
201 1 -1.1104 15.9994 9.93546 19.0983 4.43353
202 1 -1.1104 15.9994 12.563 16.6076 1.33766
203 1 -1.1104 15.9994 12.643 16.5544 4.11452
204 1 -1.1104 15.9994 12.5258 19.4427 1.25791
205 1 -1.1104 15.9994 12.7479 19.4665 4.08452
206 1 -1.1104 15.9994 1.4931 22.3896 1.42971
207 1 -1.1104 15.9994 4.19368 22.291 1.41285
208 1 -1.1104 15.9994 1.48741 22.3215 4.17819
209 1 -1.1104 15.9994 4.23144 22.2332 4.12754
210 1 -1.1104 15.9994 6.98678 22.2163 1.27336
211 1 -1.1104 15.9994 9.89298 22.3753 1.12032
212 1 -1.1104 15.9994 7.01781 22.4019 4.1396
213 1 -1.1104 15.9994 9.89293 22.0047 4.06515
214 1 -1.1104 15.9994 12.8087 22.2491 1.35145
215 1 -1.1104 15.9994 12.6288 22.3677 4.23358
216 1 -1.1104 15.9994 1.45584 -0.136088 6.8821
217 1 -1.1104 15.9994 4.16417 -0.117689 7.16116
218 1 -1.1104 15.9994 1.57086 0.0358107 9.81019
219 1 -1.1104 15.9994 4.40559 -0.111164 9.94681
220 1 -1.1104 15.9994 1.38284 2.66606 7.00918
221 1 -1.1104 15.9994 4.37166 2.86246 7.02972
222 1 -1.1104 15.9994 1.35893 2.78341 9.92858
223 1 -1.1104 15.9994 4.14053 2.58352 9.77404
224 1 -1.1104 15.9994 6.91422 -0.172128 7.14275
225 1 -1.1104 15.9994 9.76878 -0.136779 7.11442
226 1 -1.1104 15.9994 7.18369 -0.0460092 9.73648
227 1 -1.1104 15.9994 10.2562 -0.203462 9.82166
228 1 -1.1104 15.9994 7.28877 2.70118 6.87133
229 1 -1.1104 15.9994 9.94754 2.744 6.92022
230 1 -1.1104 15.9994 7.10318 2.72032 9.61879
231 1 -1.1104 15.9994 9.88285 2.75521 9.74043
232 1 -1.1104 15.9994 12.4838 -0.10769 6.93306
233 1 -1.1104 15.9994 12.9 -0.175357 9.77871
234 1 -1.1104 15.9994 12.771 2.71592 7.10919
235 1 -1.1104 15.9994 12.7153 2.71654 9.87774
236 1 -1.1104 15.9994 1.47598 5.31835 6.96016
237 1 -1.1104 15.9994 4.30376 5.5967 6.93344
238 1 -1.1104 15.9994 1.47196 5.49793 9.77192
239 1 -1.1104 15.9994 4.32771 5.60017 9.74088
240 1 -1.1104 15.9994 1.44434 8.04119 6.86676
241 1 -1.1104 15.9994 4.311 8.29465 6.97529
242 1 -1.1104 15.9994 1.61088 8.31467 9.79718
243 1 -1.1104 15.9994 4.2446 8.27958 9.92716
244 1 -1.1104 15.9994 6.99455 5.59358 6.77407
245 1 -1.1104 15.9994 9.76625 5.63067 7.0341
246 1 -1.1104 15.9994 7.04506 5.42756 9.77469
247 1 -1.1104 15.9994 9.75261 5.46786 9.90503
248 1 -1.1104 15.9994 7.20326 8.39566 6.95564
249 1 -1.1104 15.9994 10.0216 8.54982 7.30725
250 1 -1.1104 15.9994 6.99756 8.30093 9.80428
251 1 -1.1104 15.9994 10.1141 8.42502 9.8648
252 1 -1.1104 15.9994 12.8012 5.45553 7.21297
253 1 -1.1104 15.9994 12.5199 5.61633 10.0475
254 1 -1.1104 15.9994 12.6304 8.30871 7.00629
255 1 -1.1104 15.9994 12.8343 8.62183 9.69379
256 1 -1.1104 15.9994 1.41363 10.9016 7.09299
257 1 -1.1104 15.9994 4.15885 10.9497 6.99211
258 1 -1.1104 15.9994 1.38522 11.1039 9.88128
259 1 -1.1104 15.9994 4.28929 11.0927 9.70762
260 1 -1.1104 15.9994 1.53104 13.6636 7.02832
261 1 -1.1104 15.9994 4.29026 13.9113 6.95704
262 1 -1.1104 15.9994 1.3311 13.9977 9.75812
263 1 -1.1104 15.9994 4.2581 13.9547 9.69266
264 1 -1.1104 15.9994 6.94734 11.0945 6.91326
265 1 -1.1104 15.9994 10.021 11.1125 7.05769
266 1 -1.1104 15.9994 6.96011 11.0806 9.89982
267 1 -1.1104 15.9994 9.89825 11.1144 9.58895
268 1 -1.1104 15.9994 7.05543 13.7757 7.04862
269 1 -1.1104 15.9994 9.92274 13.852 6.89109
270 1 -1.1104 15.9994 7.14686 13.7644 9.77424
271 1 -1.1104 15.9994 9.93922 13.8192 9.81064
272 1 -1.1104 15.9994 12.8398 10.7906 7.08508
273 1 -1.1104 15.9994 12.6097 11.3087 9.76245
274 1 -1.1104 15.9994 12.799 13.6353 6.87401
275 1 -1.1104 15.9994 12.6778 14.0864 9.79237
276 1 -1.1104 15.9994 1.48476 16.5226 6.99168
277 1 -1.1104 15.9994 4.29698 16.5936 7.06152
278 1 -1.1104 15.9994 1.44478 16.778 9.68847
279 1 -1.1104 15.9994 4.26378 16.6998 9.73774
280 1 -1.1104 15.9994 1.42733 19.4181 7.0082
281 1 -1.1104 15.9994 4.29483 19.354 6.88356
282 1 -1.1104 15.9994 1.67598 19.4682 9.67285
283 1 -1.1104 15.9994 4.52457 19.3703 9.82699
284 1 -1.1104 15.9994 7.18227 16.6628 6.92232
285 1 -1.1104 15.9994 9.95566 16.6074 6.86877
286 1 -1.1104 15.9994 6.99642 16.605 9.73126
287 1 -1.1104 15.9994 9.83416 16.6739 9.70233
288 1 -1.1104 15.9994 7.05848 19.5058 6.86469
289 1 -1.1104 15.9994 9.86728 19.4117 7.29915
290 1 -1.1104 15.9994 7.19011 19.4003 9.64934
291 1 -1.1104 15.9994 10.0284 19.4556 9.88176
292 1 -1.1104 15.9994 12.7665 16.4124 6.9726
293 1 -1.1104 15.9994 12.7228 16.6876 9.77641
294 1 -1.1104 15.9994 12.6136 19.3249 6.85718
295 1 -1.1104 15.9994 12.8663 19.4376 9.82308
296 1 -1.1104 15.9994 1.55758 22.1628 6.90436
297 1 -1.1104 15.9994 4.37005 22.297 6.95932
298 1 -1.1104 15.9994 1.58295 22.0871 9.64263
299 1 -1.1104 15.9994 4.33099 22.29 9.7575
300 1 -1.1104 15.9994 7.09703 22.1513 6.92264
301 1 -1.1104 15.9994 9.84677 22.3177 6.7497
302 1 -1.1104 15.9994 6.97223 22.2411 9.75147
303 1 -1.1104 15.9994 9.95174 22.301 9.79749
304 1 -1.1104 15.9994 12.6843 22.1646 6.98594
305 1 -1.1104 15.9994 12.7423 22.1747 9.63386
306 1 -1.1104 15.9994 1.59003 -0.202984 12.5826
307 1 -1.1104 15.9994 4.21696 -0.0875114 12.7528
308 1 -1.1104 15.9994 1.51224 2.679 12.7791
309 1 -1.1104 15.9994 4.35849 2.70286 12.6194
660 2 2.2208 232.038 8.59225 1.18164 -0.104052
9063 2 2.2208 232.038 0.0420287 23.7737 2.70536
54 2 2.2208 232.038 0.0380962 1.30536 8.50975
8966 2 2.2208 232.038 0.0774825 9.65275 11.179
8963 2 2.2208 232.038 0.0538269 18.1255 2.67215
4 2 2.2208 232.038 0.0437655 1.42181 2.80172
64 2 2.2208 232.038 -0.0427629 6.72539 8.27686
665 2 2.2208 232.038 5.50008 3.91232 -0.0278748
664 2 2.2208 232.038 2.67614 6.9084 -0.109171
9061 2 2.2208 232.038 0.00892483 12.5317 8.43194
9295 2 2.2208 232.038 -0.0919048 6.73145 2.78892
9296 2 2.2208 232.038 -0.108491 12.45 2.76315
9018 2 2.2208 232.038 0.00391763 15.2626 5.61518
106 2 2.2208 232.038 -0.069656 4.00929 11.4258
338 2 2.2208 232.038 8.41003 15.1921 13.9976
359 3 -1.1104 15.9994 2.54505 9.74438 -0.028359
8964 2 2.2208 232.038 0.0695362 15.5489 11.0758
343 2 2.2208 232.038 8.36928 20.5997 13.822
670 2 2.2208 232.038 11.2332 9.63152 -0.00900563
667 2 2.2208 232.038 11.2147 3.88047 -0.083988
663 2 2.2208 232.038 0.0274853 4.03549 -0.0475186
666 2 2.2208 232.038 8.42157 6.79564 -0.0294359
668 2 2.2208 232.038 5.66222 9.6989 -0.0392732
84 2 2.2208 232.038 2.84801 9.66878 13.9248
41 2 2.2208 232.038 -0.101159 20.9933 -0.00552148
325 2 2.2208 232.038 11.4207 1.18375 13.9432
9291 2 2.2208 232.038 -0.00752066 12.4652 13.8415
409 2 2.2208 232.038 5.47899 15.312 -0.0829969
21 2 2.2208 232.038 0.0765761 9.72481 0.0848172
9327 2 2.2208 232.038 0.00713443 6.86426 25.2051
419 2 2.2208 232.038 13.8653 1.23178 27.9944
9301 2 2.2208 232.038 -0.088756 15.3372 22.5366
9646 2 2.2208 232.038 -0.0158834 1.36914 25.2066
9381 2 2.2208 232.038 0.110986 9.66952 16.5939
672 2 2.2208 232.038 0.0257253 23.8161 25.0199
327 1 -1.1104 15.9994 6.87281 22.3012 23.7963
657 1 -1.1104 15.9994 12.7252 16.6201 23.8286
329 1 -1.1104 15.9994 4.30728 22.1871 26.6006
9641 2 2.2208 232.038 -0.0871629 12.5353 25.1705
331 1 -1.1104 15.9994 1.43802 22.2417 26.7733
332 3 -1.1104 15.9994 11.2088 18.1456 22.4177
322 2 2.2208 232.038 0.230633 1.18616 14.1779
334 1 -1.1104 15.9994 4.1611 22.3545 23.7542
333 2 2.2208 232.038 8.42982 9.63311 14.1256
336 1 -1.1104 15.9994 1.44374 22.1266 23.9698
337 3 -1.1104 15.9994 11.3225 6.8694 22.5148
658 1 -1.1104 15.9994 12.6152 16.68 26.7119
339 1 -1.1104 15.9994 12.7955 19.5976 26.6278
9640 2 2.2208 232.038 -0.00180354 6.92769 19.6833
341 1 -1.1104 15.9994 12.8037 19.5708 23.9171
436 2 2.2208 232.038 -0.110495 21.0997 22.4721
642 1 -1.1104 15.9994 4.18962 16.7314 23.8393
651 1 -1.1104 15.9994 7.05793 16.7022 26.693
356 2 2.2208 232.038 -0.0937173 4.04577 16.7948
399 2 2.2208 232.038 11.3419 15.1423 27.8794
347 2 2.2208 232.038 2.93805 1.17254 16.8435
641 1 -1.1104 15.9994 1.40451 16.6759 23.9155
650 1 -1.1104 15.9994 9.8573 16.6843 23.9737
653 1 -1.1104 15.9994 7.04664 19.5279 23.9294
351 2 2.2208 232.038 8.60282 1.08632 16.7877
429 2 2.2208 232.038 -0.093247 18.1862 25.1567
353 2 2.2208 232.038 5.64679 1.23272 19.7171
340 2 2.2208 232.038 11.2796 18.0547 14.0691
355 2 2.2208 232.038 11.3593 1.31881 19.6086
655 1 -1.1104 15.9994 7.00684 19.5692 26.709
357 2 2.2208 232.038 2.74983 6.81012 16.7927
358 2 2.2208 232.038 2.72533 4.05588 19.5493
344 2 2.2208 232.038 5.42144 23.6993 13.9582
360 2 2.2208 232.038 5.61552 3.9637 16.7622
361 2 2.2208 232.038 8.43078 6.78893 16.8353
362 2 2.2208 232.038 8.46476 3.97552 19.6208
363 2 2.2208 232.038 5.67981 6.66347 19.5885
364 2 2.2208 232.038 11.4207 3.90979 16.7876
365 2 2.2208 232.038 11.3591 6.84628 19.789
654 1 -1.1104 15.9994 9.69788 19.6298 23.9877
367 2 2.2208 232.038 2.81666 12.5367 16.4769
368 2 2.2208 232.038 2.85674 9.31892 19.7408
647 1 -1.1104 15.9994 1.30724 19.4467 26.6012
370 2 2.2208 232.038 5.7085 9.73044 16.7246
371 2 2.2208 232.038 8.57814 12.4231 16.7375
372 2 2.2208 232.038 8.47712 9.60556 19.6046
373 2 2.2208 232.038 6.0426 12.4976 19.7073
374 2 2.2208 232.038 11.3069 9.60035 16.9319
375 2 2.2208 232.038 11.2829 12.4988 19.7729
376 4 2.2208 232.038 2.87641 12.4145 19.5366
377 2 2.2208 232.038 2.81092 18.1363 16.7628
378 2 2.2208 232.038 2.83755 15.6294 19.4941
379 1 -1.1104 15.9994 12.6203 22.3661 26.7401
380 2 2.2208 232.038 5.72046 15.2943 16.8808
381 2 2.2208 232.038 8.55825 18.0931 16.8195
382 2 2.2208 232.038 8.43905 15.2776 19.551
383 2 2.2208 232.038 5.72503 18.1794 19.7814
384 2 2.2208 232.038 11.2169 15.272 16.8615
385 2 2.2208 232.038 11.39 17.9916 19.8406
386 1 -1.1104 15.9994 12.6684 22.2232 24.0262
387 2 2.2208 232.038 2.7137 23.7784 16.8379
388 2 2.2208 232.038 2.76824 20.884 19.5905
389 1 -1.1104 15.9994 9.95436 22.393 26.5207
390 2 2.2208 232.038 5.67562 20.7649 16.8848
391 2 2.2208 232.038 8.40283 23.6074 17.1898
392 2 2.2208 232.038 8.3891 20.8858 19.6201
393 2 2.2208 232.038 5.45304 23.7354 19.7651
394 2 2.2208 232.038 11.3598 20.7963 16.9075
395 2 2.2208 232.038 11.4035 23.7288 19.7492
649 1 -1.1104 15.9994 7.00362 16.7324 23.958
397 2 2.2208 232.038 2.78172 1.14867 22.4193
324 2 2.2208 232.038 5.67858 1.08963 14.0586
396 2 2.2208 232.038 11.252 20.9166 27.9374
400 2 2.2208 232.038 8.4285 18.0794 27.7708
401 2 2.2208 232.038 8.51663 1.2099 22.3175
9404 2 2.2208 232.038 13.9148 15.3534 25.2149
403 2 2.2208 232.038 5.61033 1.27585 25.2825
646 1 -1.1104 15.9994 4.34409 19.4214 23.8003
405 2 2.2208 232.038 11.1732 1.2236 25.3426
656 1 -1.1104 15.9994 9.8827 19.5254 26.7633
407 2 2.2208 232.038 2.90637 6.90433 22.4765
408 2 2.2208 232.038 2.81669 4.07945 25.1729
652 1 -1.1104 15.9994 9.96598 16.6041 26.6055
410 2 2.2208 232.038 5.55277 4.02624 22.4095
411 2 2.2208 232.038 8.67919 6.76776 22.3875
412 2 2.2208 232.038 8.24702 4.05209 25.3059
413 2 2.2208 232.038 5.70818 6.88919 25.2997
414 2 2.2208 232.038 11.3408 4.05234 22.4297
415 2 2.2208 232.038 11.3322 6.73306 25.1938
645 1 -1.1104 15.9994 1.38855 19.4142 23.7923
417 2 2.2208 232.038 2.86122 12.565 22.6997
418 2 2.2208 232.038 2.83931 9.60113 25.5093
648 1 -1.1104 15.9994 4.22785 19.4372 26.6738
420 2 2.2208 232.038 5.67772 9.49669 22.5875
421 2 2.2208 232.038 8.5871 12.3004 22.4493
422 2 2.2208 232.038 8.54815 9.63321 25.2552
423 2 2.2208 232.038 5.69564 12.5162 25.3354
424 2 2.2208 232.038 11.4106 9.39646 22.5647
425 2 2.2208 232.038 11.3399 12.3714 25.2016
426 1 -1.1104 15.9994 6.92556 22.4238 26.6031
427 2 2.2208 232.038 2.73839 18.1749 22.4704
428 2 2.2208 232.038 2.77457 15.2681 25.3321
644 1 -1.1104 15.9994 4.18941 16.5833 26.6844
430 2 2.2208 232.038 5.72863 15.241 22.4285
431 2 2.2208 232.038 8.6408 18.0504 22.4937
432 2 2.2208 232.038 8.43393 15.2914 25.1585
433 2 2.2208 232.038 5.53284 18.0071 25.1608
434 2 2.2208 232.038 11.3402 15.3495 22.3309
435 2 2.2208 232.038 11.2961 18.1244 25.078
643 1 -1.1104 15.9994 1.29197 16.7767 26.6289
437 2 2.2208 232.038 2.55231 23.6965 22.3226
438 2 2.2208 232.038 2.87497 20.9295 25.2159
439 1 -1.1104 15.9994 9.64673 22.2791 23.6667
440 2 2.2208 232.038 5.57718 20.9139 22.4284
441 2 2.2208 232.038 8.5544 23.794 22.2728
442 2 2.2208 232.038 8.31582 21.0297 25.165
443 2 2.2208 232.038 5.55344 23.745 25.1377
444 2 2.2208 232.038 11.0483 20.7563 22.3972
445 2 2.2208 232.038 11.3986 23.7736 25.1942
446 1 -1.1104 15.9994 1.49954 -0.190042 15.3646
447 1 -1.1104 15.9994 4.18499 -0.220067 15.5021
448 1 -1.1104 15.9994 1.43399 2.74464 15.4269
449 1 -1.1104 15.9994 4.32934 2.6335 15.3512
450 1 -1.1104 15.9994 7.10402 -0.213034 15.332
451 1 -1.1104 15.9994 9.90295 -0.335291 15.4353
452 1 -1.1104 15.9994 7.03648 2.6034 15.3981
453 1 -1.1104 15.9994 9.96802 2.57395 15.3207
454 1 -1.1104 15.9994 12.7071 -0.0368224 15.3706
455 1 -1.1104 15.9994 12.8852 2.60089 15.3874
456 1 -1.1104 15.9994 1.43464 5.42419 15.4566
457 1 -1.1104 15.9994 4.15661 5.351 15.4416
458 1 -1.1104 15.9994 1.4938 8.34652 15.2639
459 1 -1.1104 15.9994 4.24939 8.22227 15.3856
460 1 -1.1104 15.9994 7.01408 5.34127 15.324
461 1 -1.1104 15.9994 9.90139 5.33146 15.4356
462 1 -1.1104 15.9994 6.97616 8.22186 15.4154
463 1 -1.1104 15.9994 9.9396 8.2466 15.4488
464 1 -1.1104 15.9994 12.6156 5.46907 15.4545
465 1 -1.1104 15.9994 12.6823 8.20338 15.6
466 1 -1.1104 15.9994 1.47411 11.1847 15.2995
467 1 -1.1104 15.9994 4.28846 11.2039 15.2842
468 1 -1.1104 15.9994 1.40083 14.0071 15.3816
469 1 -1.1104 15.9994 4.34361 13.9097 15.4028
470 1 -1.1104 15.9994 7.16627 11.1016 15.5371
471 1 -1.1104 15.9994 9.93041 10.8583 15.3841
472 1 -1.1104 15.9994 7.12305 13.6668 15.4665
473 1 -1.1104 15.9994 9.98883 13.8161 15.4177
474 1 -1.1104 15.9994 12.7909 10.8994 15.471
475 1 -1.1104 15.9994 12.6487 13.8356 15.3887
476 1 -1.1104 15.9994 1.32205 16.8721 15.4019
477 1 -1.1104 15.9994 4.2364 16.5804 15.3959
478 1 -1.1104 15.9994 1.24035 19.7102 15.4636
479 1 -1.1104 15.9994 4.30039 19.391 15.5106
480 1 -1.1104 15.9994 7.1615 16.6795 15.5273
481 1 -1.1104 15.9994 9.85504 16.4958 15.3809
482 1 -1.1104 15.9994 7.08002 19.5616 15.2693
483 1 -1.1104 15.9994 9.80668 19.521 15.3892
484 1 -1.1104 15.9994 12.5833 16.6365 15.4001
485 1 -1.1104 15.9994 12.6703 19.4103 15.4358
486 1 -1.1104 15.9994 1.32773 22.4194 15.5125
487 1 -1.1104 15.9994 4.3042 22.241 15.2442
488 1 -1.1104 15.9994 7.23171 22.5923 15.4175
489 1 -1.1104 15.9994 9.91358 22.5234 15.3347
490 1 -1.1104 15.9994 12.7236 22.1958 15.4797
491 1 -1.1104 15.9994 1.45607 0.093114 18.2422
492 1 -1.1104 15.9994 4.25239 -0.198826 18.2424
493 1 -1.1104 15.9994 1.31987 0.0309597 20.9004
494 1 -1.1104 15.9994 4.2 -0.0253987 21.0545
495 1 -1.1104 15.9994 1.42269 2.84607 18.1838
496 1 -1.1104 15.9994 4.27518 2.76401 18.2292
497 1 -1.1104 15.9994 1.3147 2.84074 21.0369
498 1 -1.1104 15.9994 4.12444 2.67876 20.9481
499 1 -1.1104 15.9994 7.1321 -0.176866 18.1254
500 1 -1.1104 15.9994 9.84901 -0.293707 18.2936
501 1 -1.1104 15.9994 7.15525 -0.352079 20.9647
502 1 -1.1104 15.9994 10.0797 -0.207639 20.9425
503 1 -1.1104 15.9994 7.04402 2.55596 18.1088
504 1 -1.1104 15.9994 9.92009 2.57353 18.1471
505 1 -1.1104 15.9994 7.07551 2.49032 20.8916
506 1 -1.1104 15.9994 9.89607 2.60471 20.9478
507 1 -1.1104 15.9994 12.8035 -0.216569 18.2264
508 1 -1.1104 15.9994 12.7264 -0.159946 20.9785
509 1 -1.1104 15.9994 12.8311 2.60334 18.0589
510 1 -1.1104 15.9994 12.8132 2.5829 20.9652
511 1 -1.1104 15.9994 1.39036 5.67008 18.2005
512 1 -1.1104 15.9994 4.14852 5.56201 18.2013
513 1 -1.1104 15.9994 1.39681 5.66342 20.9457
514 1 -1.1104 15.9994 4.1123 5.5886 21.0962
515 1 -1.1104 15.9994 1.48192 8.34055 18.2032
516 1 -1.1104 15.9994 4.41265 8.4353 18.2947
517 1 -1.1104 15.9994 1.32866 8.3792 21.0062
518 1 -1.1104 15.9994 4.27008 8.3838 21.1999
519 1 -1.1104 15.9994 7.02649 5.42386 18.1861
520 1 -1.1104 15.9994 9.85724 5.32655 18.2232
521 1 -1.1104 15.9994 6.99103 5.27693 20.9956
522 1 -1.1104 15.9994 9.69377 5.3867 21.0438
523 1 -1.1104 15.9994 7.17927 8.43629 18.0983
524 1 -1.1104 15.9994 9.92335 8.17792 18.2312
525 1 -1.1104 15.9994 7.05343 8.08691 20.9695
526 1 -1.1104 15.9994 9.9413 8.44706 21.0512
527 1 -1.1104 15.9994 12.6842 5.46216 18.2988
528 1 -1.1104 15.9994 12.6856 5.22733 20.8379
529 1 -1.1104 15.9994 12.7901 8.26002 18.2091
530 1 -1.1104 15.9994 12.8163 8.23968 20.9376
531 1 -1.1104 15.9994 1.71647 11.0829 18.2328
532 1 -1.1104 15.9994 4.36319 11.2431 18.2123
533 1 -1.1104 15.9994 1.50881 11.1223 20.9271
534 1 -1.1104 15.9994 4.17065 11.2038 20.946
535 1 -1.1104 15.9994 1.29982 13.7402 18.388
536 1 -1.1104 15.9994 4.04146 13.8536 18.2764
537 1 -1.1104 15.9994 1.6451 13.8192 20.8724
538 1 -1.1104 15.9994 4.27908 13.9197 20.9362
539 1 -1.1104 15.9994 7.22984 11.1788 18.2678
540 1 -1.1104 15.9994 9.95171 11.0881 18.1471
541 1 -1.1104 15.9994 7.06276 10.8949 21.1026
542 1 -1.1104 15.9994 9.80902 11.1218 21.0072
543 1 -1.1104 15.9994 6.88862 14.0576 18.2386
544 1 -1.1104 15.9994 9.79909 13.8375 18.1505
545 1 -1.1104 15.9994 7.18949 13.8722 21.089
546 1 -1.1104 15.9994 9.81293 13.8239 20.9264
547 1 -1.1104 15.9994 12.7417 11.0856 18.2448
548 1 -1.1104 15.9994 12.6475 11.1655 21.2865
549 1 -1.1104 15.9994 12.5412 13.7496 18.1803
550 1 -1.1104 15.9994 12.7561 13.9907 21.0965
551 1 -1.1104 15.9994 1.31208 16.6051 18.2097
552 1 -1.1104 15.9994 4.34099 16.6645 18.1657
553 1 -1.1104 15.9994 1.43623 16.6441 21.0698
554 1 -1.1104 15.9994 4.32719 16.6288 20.8909
555 1 -1.1104 15.9994 1.43111 19.4172 18.198
556 1 -1.1104 15.9994 4.28172 19.4171 18.3694
557 1 -1.1104 15.9994 1.46699 19.5266 21.0213
558 1 -1.1104 15.9994 4.20433 19.3998 21.2274
559 1 -1.1104 15.9994 7.11905 16.9099 18.2397
560 1 -1.1104 15.9994 9.8427 16.5338 18.1357
561 1 -1.1104 15.9994 7.16572 16.6418 21.0887
562 1 -1.1104 15.9994 9.94597 16.4751 20.8691
563 1 -1.1104 15.9994 7.25644 19.6638 18.2154
564 1 -1.1104 15.9994 9.99147 19.4488 18.2283
565 1 -1.1104 15.9994 7.05683 19.4928 21.0361
566 1 -1.1104 15.9994 9.76679 19.523 20.8887
567 1 -1.1104 15.9994 12.5756 16.5201 18.2522
568 1 -1.1104 15.9994 12.8755 16.7139 21.0277
569 1 -1.1104 15.9994 12.8047 19.3563 18.4586
570 1 -1.1104 15.9994 12.7406 19.7046 21.0622
571 1 -1.1104 15.9994 1.32705 22.2829 18.2027
572 1 -1.1104 15.9994 4.02473 22.1465 18.1178
573 1 -1.1104 15.9994 1.36886 22.2579 20.8811
574 1 -1.1104 15.9994 4.15704 22.2364 20.7926
575 1 -1.1104 15.9994 6.81788 22.3418 18.3638
576 1 -1.1104 15.9994 9.92161 22.3432 18.1604
577 1 -1.1104 15.9994 6.99376 22.2422 21.0622
578 1 -1.1104 15.9994 9.86719 22.2483 20.9139
579 1 -1.1104 15.9994 12.6933 22.1239 18.2234
580 1 -1.1104 15.9994 12.6405 22.3762 21.0328
581 1 -1.1104 15.9994 1.17482 -0.0110183 23.9073
582 1 -1.1104 15.9994 4.25076 -0.10109 23.9441
583 1 -1.1104 15.9994 1.41256 -0.186758 26.5607
584 1 -1.1104 15.9994 4.23061 -0.266507 26.5868
585 1 -1.1104 15.9994 1.58616 2.77238 23.8907
586 1 -1.1104 15.9994 4.21161 2.74523 23.802
587 1 -1.1104 15.9994 1.33968 2.56816 26.6075
588 1 -1.1104 15.9994 4.09562 2.53504 26.5952
589 1 -1.1104 15.9994 6.9079 -0.232697 24.058
590 1 -1.1104 15.9994 9.64195 -0.493854 23.6319
591 1 -1.1104 15.9994 6.97115 -0.21611 26.8226
592 1 -1.1104 15.9994 9.76065 -0.349561 26.3713
593 1 -1.1104 15.9994 7.03517 2.69506 23.7476
594 1 -1.1104 15.9994 9.8274 2.55919 23.6515
595 1 -1.1104 15.9994 6.95033 2.58427 26.7339
596 1 -1.1104 15.9994 9.82161 2.77843 26.3226
597 1 -1.1104 15.9994 12.503 -0.259438 23.7065
598 1 -1.1104 15.9994 12.7108 -0.182827 26.4091
599 1 -1.1104 15.9994 12.4911 2.64504 23.7888
600 1 -1.1104 15.9994 12.8513 2.95261 26.6472
601 1 -1.1104 15.9994 1.40335 5.52378 23.6393
602 1 -1.1104 15.9994 4.31662 5.64767 23.8472
603 1 -1.1104 15.9994 1.2569 5.3165 26.6768
604 1 -1.1104 15.9994 3.9599 5.39097 26.6577
605 1 -1.1104 15.9994 1.50347 8.34997 23.8742
606 1 -1.1104 15.9994 4.23631 8.39456 23.9758
607 1 -1.1104 15.9994 1.18277 8.31901 26.5215
608 1 -1.1104 15.9994 4.20738 8.05321 26.6492
609 1 -1.1104 15.9994 6.97786 5.62901 23.6944
610 1 -1.1104 15.9994 9.78646 5.34431 24.1118
611 1 -1.1104 15.9994 6.84618 5.27902 26.5719
612 1 -1.1104 15.9994 9.74466 5.45315 26.8347
613 1 -1.1104 15.9994 7.12599 8.24505 23.9473
614 1 -1.1104 15.9994 9.76682 8.32425 24.029
615 1 -1.1104 15.9994 7.169 8.43671 26.7426
616 1 -1.1104 15.9994 9.83846 8.19105 26.8543
617 1 -1.1104 15.9994 12.9024 5.31429 23.9297
618 1 -1.1104 15.9994 12.6908 5.67897 26.6691
619 1 -1.1104 15.9994 12.8482 8.25794 23.9328
620 1 -1.1104 15.9994 12.577 8.28244 26.739
621 1 -1.1104 15.9994 1.28182 11.2711 23.6021
622 1 -1.1104 15.9994 4.20519 11.1815 23.9315
623 1 -1.1104 15.9994 1.35901 11.2643 26.3527
624 1 -1.1104 15.9994 4.30018 11.1232 26.5556
625 1 -1.1104 15.9994 1.39342 13.9859 23.8021
626 1 -1.1104 15.9994 4.38663 13.9976 23.9263
627 1 -1.1104 15.9994 1.32213 14.0279 26.5851
628 1 -1.1104 15.9994 4.19157 13.83 26.794
629 1 -1.1104 15.9994 7.04709 10.9699 24.0168
630 1 -1.1104 15.9994 9.92618 10.9198 23.8646
631 1 -1.1104 15.9994 7.011 11.233 26.6146
632 1 -1.1104 15.9994 9.97085 10.8954 26.6817