LAMMPS (29 Oct 2020)
OMP_NUM_THREADS environment is not set. Defaulting to 1 thread. (../comm.cpp:94)
  using 1 OpenMP thread(s) per MPI task
#-------------------------------
#
#This input script is used to simulate the defected configuration generated by overlapping cascades initiated at
#different energies
#Ziqiang Wang on 01/24/2022
#
#-------------------------------

clear
OMP_NUM_THREADS environment is not set. Defaulting to 1 thread. (../comm.cpp:94)
  using 1 OpenMP thread(s) per MPI task
units                    metal
dimension                    3
boundary                 p p p
atom_style               full
atom_modify              map  array

read_data               perfect_relaxed.dat
Reading data file ...
  triclinic box = (0.0000000 0.0000000 0.0000000) to (27.894000 334.72800 27.894000) with tilt (0.0000000 0.0000000 0.0000000)
  2 by 13 by 2 MPI processor grid
  reading atoms ...
  24000 atoms
  reading velocities ...
  24000 velocities
Finding 1-2 1-3 1-4 neighbors ...
  special bond factors lj:    0.0      0.0      0.0     
  special bond factors coul:  0.0      0.0      0.0     
     0 = max # of 1-2 neighbors
     0 = max # of 1-3 neighbors
     0 = max # of 1-4 neighbors
     1 = max # of special neighbors
  special bonds CPU = 0.004 seconds
  read_data CPU = 0.070 seconds

variable                ratio    equal   0.01

group                   vac_O    id      6004  6035  6044  6075  6227  6242  6247  6262  6464  6495  6504  6535                                           6682  6697  6702  6717  6904  6935  6944  6975  6984  7152  7167  7172                                           7187  7192  7415  7424  7455  7464  7632  7637  7652  7657  7857  7864                                           7895  7904  7935  8078  8082  8097  8102  8117  8304  8335  8344  8375                                           8527  8542  8547  8562  8764  8795  8804  8835  9007  9022  9027  9042                                           9264  9295  9304  9482  9497  9502  9335  9704  9735  9744  9775  9517                                           9927  9942  9947  9962 10164 10195 10204 10235 10382 10397 10402 10417                                           10604 10635 10644 10675 10684 10852 10867 10872 10887 10892 11115 11124                                          11155 11164 11332 11337 11352 11357 11557 11564 11595 11604 11778 11782                                          11797 11802 12008 12048 12086 12121 12260 12278 12468 12508 12581 12621                                          12738 12778  6810 12908 12948 12988 13031 13071 13208 13248 13288 13428                                          13468 13501 13541 13698 13738 13868 13908 13945 13981 14021 14138 14178                                          8210 14308 14348 14386 14421 14560 14578 14768 14808 14891 14931 15068                                           15108 15268 15308 15381 15525 15561 15708 15748 15786 15421 15821 15960                                          9610 15601 16001 16168 16208 16281 16321 16438 16478 10510 16608 16648
180 atoms in group vac_O

group                   oct_O    id      18065 18079 18085 18099 18165 18179 18185 18199 18310 18324 18330 18525                                           18400 18414 18420 18615 18530 18544 18550 18564 18750 18620 18634 18640                                           18654 18840 18764 18770 18784 18788 18854 18860 18874 18878 18989 18995                                           19009 19015 19225 19089 19095 19109 19115 19315 19230 19244 19250 19264                                           19320 19334 19340 19354 19460 19474 19480 19675 19550 19564 19570 19765                                           19690 19704 19710 19780 19794 19800 19909 19915 19929 19935 19949 20009                                           20015 20029 20035 20049 20160 20174 20180 20375 20250 20264 20270 20465                                           20380 20394 20400 20414 20600 20470 20484 20490 20504 20690 20614 20620                                           20634 20638 20704 20710 20724 20728 20834 20840 20854 20860 20924 20930                                           20944 20950 21067 21087 21302 21115 21198 21217 21312 21332 21355 21567                                           21447 21467 21657 21532 21552 21752 21577 21587 21667 21687 21887 21772                                           21789 21800 21810 21907 21924 21997 22017 22032 22042 22267 22147 22167                                           22357 22232 22252 22452 22277 22353 22367 22462 22482 22505 22717 22597                                           22617 22692 22712 22732 22818 22838 22917 22937 23152 22955 22965 23048                                           23054 23058 23078 23162 23182 23205 23417 23297 23317 23507 23382 23402
180 atoms in group oct_O

group                   tot_oct_Th   type   4
3000 atoms in group tot_oct_Th
group                   tot_oct_O    type   3
3000 atoms in group tot_oct_O

group                   delete_oct_O    subtract   tot_oct_O   oct_O
2820 atoms in group delete_oct_O


delete_atoms            group  vac_O
WARNING: Ignoring 'compress yes' for molecular system (../delete_atoms.cpp:125)
Deleted 180 atoms, new total = 23820
delete_atoms            group  tot_oct_Th
WARNING: Ignoring 'compress yes' for molecular system (../delete_atoms.cpp:125)
Deleted 3000 atoms, new total = 20820
delete_atoms            group  delete_oct_O
WARNING: Ignoring 'compress yes' for molecular system (../delete_atoms.cpp:125)
Deleted 2820 atoms, new total = 18000

kspace_style                   pppm            1.0e-5
pair_style                     hybrid/overlay     coul/long    11.0   eam/alloy
pair_coeff                     * * coul/long
pair_coeff                     * * eam/alloy CeThUNpPuAmCmO.eam.alloy O Th O Th
neighbor                 2.0  bin
neigh_modify             delay  0  every  1  check   yes

set                      type      1      charge    -1.1104
Setting atom values ...
  11820 settings made for charge
set                      type      2      charge     2.2208
Setting atom values ...
  6000 settings made for charge
set                      type      3      charge    -1.1104
Setting atom values ...
  180 settings made for charge
set                      type      4      charge     2.2208
Setting atom values ...
  0 settings made for charge

# Minimize the defected configuration at 0K
min_style                cg
fix                      relax   all  box/relax  aniso 0.0 vmax 0.001
minimize                 1.0e-30 1.0e-30 10000 10000
PPPM initialization ...
  using 12-bit tables for long-range coulomb (../kspace.cpp:328)
  G vector (1/distance) = 0.29916851
  grid = 40 240 40
  stencil order = 5
  estimated absolute RMS force accuracy = 0.00015502622
  estimated relative force accuracy = 1.0765975e-05
  using single precision MKL FFT
  3d grid and FFT values/proc = 18225 7600
Neighbor list info ...
  update every 1 steps, delay 0 steps, check yes
  max neighbors/atom: 2000, page size: 100000
  master list distance cutoff = 13
  ghost atom cutoff = 13
  binsize = 6.5, bins = 5 52 5
  2 neighbor lists, perpetual/occasional/extra = 2 0 0
  (1) pair coul/long, perpetual
      attributes: half, newton on
      pair build: half/bin/newton/tri
      stencil: half/bin/3d/newton/tri
      bin: standard
  (2) pair eam/alloy, perpetual, copy from (1)
      attributes: half, newton on
      pair build: copy
      stencil: none
      bin: none
Per MPI rank memory allocation (min/avg/max) = 10.44 | 10.47 | 10.49 Mbytes
Step Temp E_pair E_mol TotEng Press Volume 
       0            0   -234109.77            0   -234109.77    11557.928    260443.57 
     415            0   -235856.67            0   -235856.67    458.31626    262304.31 
Loop time of 6.55053 on 52 procs for 415 steps with 18000 atoms

99.6% CPU use with 52 MPI tasks x 1 OpenMP threads

Minimization stats:
  Stopping criterion = linesearch alpha is zero
  Energy initial, next-to-last, final = 
     -234109.774937242  -235856.667916179  -235856.667916179
  Force two-norm initial, final = 3278.5071 141.20095
  Force max component initial, final = 2023.6762 90.253244
  Final line search alpha, max atom move = 5.2575060e-13 4.7450697e-11
  Iterations, force evaluations = 415 572

MPI task timing breakdown:
Section |  min time  |  avg time  |  max time  |%varavg| %total
---------------------------------------------------------------
Pair    | 3.6727     | 3.7641     | 3.8671     |   2.3 | 57.46
Bond    | 5.3931e-05 | 7.4576e-05 | 9.6369e-05 |   0.0 |  0.00
Kspace  | 0.9049     | 1.0066     | 1.0961     |   4.5 | 15.37
Neigh   | 0.011457   | 0.012298   | 0.013594   |   0.4 |  0.19
Comm    | 0.094489   | 0.097921   | 0.10175    |   0.6 |  1.49
Output  | 0          | 0          | 0          |   0.0 |  0.00
Modify  | 0          | 0          | 0          |   0.0 |  0.00
Other   |            | 1.67       |            |       | 25.49

Nlocal:        346.154 ave         373 max         326 min
Histogram: 6 7 6 5 8 8 3 2 5 2
Nghost:        5628.27 ave        5712 max        5546 min
Histogram: 9 7 7 1 4 0 1 3 12 8
Neighs:       111857.0 ave      120222 max      105714 min
Histogram: 6 8 4 8 7 5 5 2 4 3

Total # of neighbors = 5816552
Ave neighs/atom = 323.14178
Ave special neighs/atom = 0.0000000
Neighbor list builds = 3
Dangerous builds = 0
unfix                    relax
reset_timestep           0

# Apply the temperature to the system and relax the configurations
reset_atom_ids
Resetting atom IDs ...
PPPM initialization ...
  using 12-bit tables for long-range coulomb (../kspace.cpp:328)
  G vector (1/distance) = 0.29903938
  grid = 40 240 40
  stencil order = 5
  estimated absolute RMS force accuracy = 0.00015605633
  estimated relative force accuracy = 1.0837512e-05
  using single precision MKL FFT
  3d grid and FFT values/proc = 18225 7600
Finding 1-2 1-3 1-4 neighbors ...
  special bond factors lj:    0.0      0.0      0.0     
  special bond factors coul:  0.0      0.0      0.0     
     0 = max # of 1-2 neighbors
     0 = max # of 1-3 neighbors
     0 = max # of 1-4 neighbors
     1 = max # of special neighbors
  special bonds CPU = 0.001 seconds
variable                 temp   index  600
velocity                 all  create  ${temp}  4526826  rot  yes  mom  yes  dist  gaussian
velocity                 all  create  600  4526826  rot  yes  mom  yes  dist  gaussian
fix                      npt  all  npt  temp  ${temp}  ${temp}  $(100*dt)  aniso  0.0  0.0  $(1000*dt)
fix                      npt  all  npt  temp  600  ${temp}  $(100*dt)  aniso  0.0  0.0  $(1000*dt)
fix                      npt  all  npt  temp  600  600  $(100*dt)  aniso  0.0  0.0  $(1000*dt)
fix                      npt  all  npt  temp  600  600  0.10000000000000000555  aniso  0.0  0.0  $(1000*dt)
fix                      npt  all  npt  temp  600  600  0.10000000000000000555  aniso  0.0  0.0  1
timestep                 0.001
thermo                   100000
thermo_style             custom  step  temp  ke  pe  press

shell                    mkdir   Frenkel_${ratio}_relax
shell                    mkdir   Frenkel_0.01_relax
dump                     1  all  custom  100000  ./Frenkel_${ratio}_relax/dump_relax.atom.*  id type q mass x y z
dump                     1  all  custom  100000  ./Frenkel_0.01_relax/dump_relax.atom.*  id type q mass x y z
dump_modify              1  element  O Th O Th

run                      100000
PPPM initialization ...
  using 12-bit tables for long-range coulomb (../kspace.cpp:328)
  G vector (1/distance) = 0.29903938
  grid = 40 240 40
  stencil order = 5
  estimated absolute RMS force accuracy = 0.00015605633
  estimated relative force accuracy = 1.0837512e-05
  using single precision MKL FFT
  3d grid and FFT values/proc = 18225 7600
Per MPI rank memory allocation (min/avg/max) = 10.59 | 10.62 | 10.64 Mbytes
Step Temp KinEng PotEng Press 
       0          600     1395.932   -235856.67    6142.3501 
  100000    596.72285    1388.3076   -235444.57   -487.05249 
Loop time of 874.712 on 52 procs for 100000 steps with 18000 atoms

Performance: 9.878 ns/day, 2.430 hours/ns, 114.323 timesteps/s
99.8% CPU use with 52 MPI tasks x 1 OpenMP threads

MPI task timing breakdown:
Section |  min time  |  avg time  |  max time  |%varavg| %total
---------------------------------------------------------------
Pair    | 554.83     | 563.88     | 575.91     |  24.6 | 64.46
Bond    | 0.008751   | 0.014565   | 0.019906   |   2.2 |  0.00
Kspace  | 152.24     | 164.46     | 173.25     |  45.4 | 18.80
Neigh   | 1.4445     | 1.4961     | 1.5753     |   3.2 |  0.17
Comm    | 16.516     | 16.891     | 17.689     |   6.4 |  1.93
Output  | 0.0049034  | 0.0049075  | 0.0050756  |   0.0 |  0.00
Modify  | 113.07     | 117.9      | 125.01     |  27.3 | 13.48
Other   |            | 10.07      |            |       |  1.15

Nlocal:        346.154 ave         368 max         333 min
Histogram: 9 8 7 4 9 2 2 7 3 1
Nghost:        5625.79 ave        5702 max        5545 min
Histogram: 12 11 1 1 3 0 0 0 4 20
Neighs:       111028.0 ave      117934 max      105823 min
Histogram: 2 10 10 3 6 8 2 5 5 1

Total # of neighbors = 5773442
Ave neighs/atom = 320.74678
Ave special neighs/atom = 0.0000000
Neighbor list builds = 368
Dangerous builds = 0
shell                    mkdir  thermal_condu
write_data               ./thermal_condu/Frenkel_${ratio}_relaxed.dat
write_data               ./thermal_condu/Frenkel_0.01_relaxed.dat
System init for write_data ...
PPPM initialization ...
  using 12-bit tables for long-range coulomb (../kspace.cpp:328)
  G vector (1/distance) = 0.29884457
  grid = 40 240 40
  stencil order = 5
  estimated absolute RMS force accuracy = 0.00015763534
  estimated relative force accuracy = 1.0947168e-05
  using single precision MKL FFT
  3d grid and FFT values/proc = 18225 7600

Total wall time: 0:14:41
