ITEM: TIMESTEP
100000
ITEM: NUMBER OF ATOMS
18000
ITEM: BOX BOUNDS xy xz yz pp pp pp
-2.2953813444024304e-01 2.8123538134440690e+01 0.0000000000000000e+00
-2.9611600770802675e+00 3.3768916007707060e+02 0.0000000000000000e+00
-2.5522690764144496e-01 2.8149226907641452e+01 0.0000000000000000e+00
ITEM: ATOMS id type q mass x y z
8231 2 2.2208 232.038 11.2196 -2.91931 11.1336
2 1 -1.1104 15.9994 7.16423 15.8207 12.7609
665 2 2.2208 232.038 5.52669 2.88961 -0.241779
9296 2 2.2208 232.038 -0.172367 11.3355 2.85033
210 1 -1.1104 15.9994 7.38421 17.9658 1.3068
6 1 -1.1104 15.9994 4.0035 18.3824 12.5418
7 1 -1.1104 15.9994 1.07293 18.7522 12.7445
8 2 2.2208 232.038 5.70341 -0.00857551 2.57353
9 1 -1.1104 15.9994 4.25731 15.7599 12.4559
10 2 2.2208 232.038 11.3698 -0.0956249 2.36453
11 1 -1.1104 15.9994 1.61996 15.7756 12.5354
12 1 -1.1104 15.9994 12.4602 12.9368 12.5636
13 2 2.2208 232.038 2.72842 2.84829 2.70003
9290 2 2.2208 232.038 -0.149347 17.1541 13.8531
15 1 -1.1104 15.9994 12.7779 9.8677 12.5486
16 1 -1.1104 15.9994 9.42019 12.7477 12.49
17 2 2.2208 232.038 8.37607 2.57601 2.49209
18 2 2.2208 232.038 5.6916 5.59511 2.76676
19 1 -1.1104 15.9994 6.88852 12.4367 12.3812
20 2 2.2208 232.038 11.174 5.65583 2.74236
31 2 2.2208 232.038 -0.149229 14.1049 -0.155129
792 1 -1.1104 15.9994 9.47994 21.831 1.62704
23 2 2.2208 232.038 2.56171 8.51703 2.53695
659 2 2.2208 232.038 2.66097 -0.247221 0.0935307
25 1 -1.1104 15.9994 9.83758 10.2651 12.6274
26 1 -1.1104 15.9994 6.91136 9.44166 12.8004
27 2 2.2208 232.038 8.18405 8.43173 2.62412
28 2 2.2208 232.038 5.27577 11.3218 2.77325
29 1 -1.1104 15.9994 4.12723 12.7559 12.3595
30 2 2.2208 232.038 11.3346 11.3104 2.73138
652 1 -1.1104 15.9994 10.3238 17.2765 0.757036
32 1 -1.1104 15.9994 1.06353 12.9573 12.5439
33 2 2.2208 232.038 2.60854 14.0706 2.58856
64 2 2.2208 232.038 -0.172748 5.62588 8.42233
35 1 -1.1104 15.9994 3.86974 9.99734 12.5233
36 1 -1.1104 15.9994 1.44952 9.99277 12.6367
37 2 2.2208 232.038 8.3071 13.7811 2.66337
38 2 2.2208 232.038 5.22043 17.2194 2.53371
39 1 -1.1104 15.9994 12.5069 7.00817 12.5675
40 2 2.2208 232.038 11.7139 17.0989 2.60256
94 3 -1.1104 15.9994 6.85927 -1.50459 9.72681
42 1 -1.1104 15.9994 12.4948 4.0611 12.5653
43 2 2.2208 232.038 2.41933 19.9883 2.58284
399 2 2.2208 232.038 11.0144 14.2898 0.33068
45 1 -1.1104 15.9994 9.86949 7.11276 12.5865
46 1 -1.1104 15.9994 7.22348 7.0002 12.6251
47 2 2.2208 232.038 8.23485 20.534 2.91
48 2 2.2208 232.038 5.50329 22.8352 2.7405
49 1 -1.1104 15.9994 9.86085 4.08905 12.9052
50 2 2.2208 232.038 11.181 22.7811 2.88961
51 1 -1.1104 15.9994 7.00885 4.07259 12.3776
52 2 2.2208 232.038 2.83945 -0.0351975 5.6571
121 1 -1.1104 15.9994 10.1625 20.9477 13.6262
9016 2 2.2208 232.038 -0.21858 17.1109 8.29804
55 1 -1.1104 15.9994 4.48893 21.443 12.2731
56 2 2.2208 232.038 8.32415 -0.0776008 5.2668
57 1 -1.1104 15.9994 1.70663 21.3988 12.7683
58 2 2.2208 232.038 5.25745 -0.0664144 8.63706
59 1 -1.1104 15.9994 12.5462 18.4526 12.4325
60 2 2.2208 232.038 11.0844 0.0110478 8.07094
17648 2 2.2208 232.038 13.8698 -2.91421 2.58311
62 2 2.2208 232.038 2.64865 5.49176 5.46394
63 2 2.2208 232.038 2.77376 3.01526 8.35802
884 1 -1.1104 15.9994 9.40738 21.0624 10.2931
65 2 2.2208 232.038 5.57203 2.70393 5.65192
66 2 2.2208 232.038 8.32693 5.56014 5.53615
67 2 2.2208 232.038 8.12659 2.63695 8.16413
68 2 2.2208 232.038 5.39943 5.52276 8.46063
69 2 2.2208 232.038 11.1201 2.78607 5.16382
70 2 2.2208 232.038 10.9642 5.05531 8.53539
9295 2 2.2208 232.038 -0.180536 5.61363 2.48283
72 2 2.2208 232.038 2.69384 11.2026 5.73077
73 2 2.2208 232.038 2.79221 8.61022 8.52417
74 1 -1.1104 15.9994 4.23118 7.09483 12.6275
75 2 2.2208 232.038 5.2171 8.28482 5.56943
76 2 2.2208 232.038 8.22504 11.2637 5.61442
77 2 2.2208 232.038 7.89324 8.49185 8.41988
78 2 2.2208 232.038 5.40427 11.3603 8.29574
79 2 2.2208 232.038 11.2877 8.43882 5.32237
80 2 2.2208 232.038 11.0792 11.6372 8.60537
81 4 2.2208 232.038 8.51881 16.8959 2.93488
82 2 2.2208 232.038 2.66966 17.0661 5.59569
83 2 2.2208 232.038 2.62554 14.4186 8.21229
663 2 2.2208 232.038 0.00579222 2.702 -0.116672
85 2 2.2208 232.038 5.58484 14.3795 5.17007
86 2 2.2208 232.038 8.49436 17.2257 6.00376
87 2 2.2208 232.038 8.26602 14.1603 8.30513
88 2 2.2208 232.038 5.24867 17.0181 8.1746
89 2 2.2208 232.038 10.9892 14.2365 5.28261
90 2 2.2208 232.038 11.405 17.0485 8.48714
91 1 -1.1104 15.9994 12.7477 15.6521 12.5345
92 2 2.2208 232.038 2.89456 22.7742 5.56546
93 2 2.2208 232.038 2.90693 19.9756 8.25512
8244 2 2.2208 232.038 5.70578 -2.88589 5.48194
95 2 2.2208 232.038 5.60322 19.7023 5.30094
96 2 2.2208 232.038 8.37717 22.8175 5.9148
97 2 2.2208 232.038 8.3921 19.706 8.79523
98 2 2.2208 232.038 5.42221 22.852 8.47066
99 2 2.2208 232.038 10.9024 19.8791 5.27451
100 2 2.2208 232.038 11.2467 22.5529 8.42349
101 1 -1.1104 15.9994 9.84352 18.2256 12.5513
102 2 2.2208 232.038 2.81262 -0.00205183 11.2958
103 1 -1.1104 15.9994 6.55106 18.7725 12.949
104 2 2.2208 232.038 8.26421 -0.303656 11.2737
105 1 -1.1104 15.9994 9.94354 15.7061 12.7959
318 1 -1.1104 15.9994 1.35959 7.11188 12.3513
107 2 2.2208 232.038 2.72353 5.55756 11.1017
108 2 2.2208 232.038 5.50892 2.59138 11.3226
109 2 2.2208 232.038 8.22316 5.77491 11.2897
110 2 2.2208 232.038 10.9506 2.64682 11.307
111 4 2.2208 232.038 10.8765 8.40363 8.32939
112 2 2.2208 232.038 2.539 11.5337 11.0228
113 2 2.2208 232.038 5.45436 8.29934 11.2634
114 2 2.2208 232.038 8.23135 11.3416 11.13
115 2 2.2208 232.038 11.1545 8.51766 11.6564
116 1 -1.1104 15.9994 12.6956 21.2562 12.4699
117 2 2.2208 232.038 2.62766 17.2232 11.1185
118 2 2.2208 232.038 5.65281 14.1732 11.1468
119 2 2.2208 232.038 8.45118 16.7948 11.0779
120 2 2.2208 232.038 11.1054 14.3266 11.1879
668 2 2.2208 232.038 5.77105 8.18803 -0.230487
122 2 2.2208 232.038 2.63408 22.6384 11.1261
123 2 2.2208 232.038 5.31681 19.8485 11.0494
322 2 2.2208 232.038 -0.186168 -0.12258 13.8637
125 2 2.2208 232.038 11.1529 19.8265 11.2963
126 1 -1.1104 15.9994 1.08842 -1.37193 1.39987
127 1 -1.1104 15.9994 4.18707 -1.44738 1.34426
128 1 -1.1104 15.9994 1.03944 -1.89683 4.04476
129 1 -1.1104 15.9994 4.13279 -1.60249 4.24595
130 1 -1.1104 15.9994 1.40445 1.2932 1.64132
131 1 -1.1104 15.9994 4.17875 1.29522 1.5043
132 1 -1.1104 15.9994 0.730323 1.2647 4.34768
133 1 -1.1104 15.9994 4.06417 1.32155 4.25443
134 1 -1.1104 15.9994 6.95401 -1.4959 1.01952
135 1 -1.1104 15.9994 9.94563 -1.70008 1.28272
136 1 -1.1104 15.9994 7.11652 -1.35477 3.89393
137 1 -1.1104 15.9994 9.82374 -1.52107 3.86334
138 1 -1.1104 15.9994 6.82639 1.33354 1.11648
139 1 -1.1104 15.9994 9.63855 1.32767 1.20437
140 1 -1.1104 15.9994 6.8907 1.37932 3.94387
141 1 -1.1104 15.9994 10.0177 1.52374 3.90253
142 1 -1.1104 15.9994 12.6573 -1.45758 1.46944
143 1 -1.1104 15.9994 12.3799 -1.52155 3.94134
144 1 -1.1104 15.9994 12.8262 1.6222 1.17113
145 1 -1.1104 15.9994 12.8484 1.4508 4.1774
146 1 -1.1104 15.9994 1.36559 4.12336 1.3498
147 1 -1.1104 15.9994 4.26966 4.15713 1.33665
148 1 -1.1104 15.9994 1.37958 4.02566 4.22336
149 1 -1.1104 15.9994 4.41146 4.46009 4.24063
150 1 -1.1104 15.9994 1.37207 6.73429 1.1096
151 1 -1.1104 15.9994 4.07046 7.17899 0.854315
152 1 -1.1104 15.9994 1.35053 6.96794 3.72898
153 1 -1.1104 15.9994 4.02962 7.05913 3.90963
154 1 -1.1104 15.9994 7.06188 4.22635 1.08277
155 1 -1.1104 15.9994 10.0166 4.13689 1.46721
156 1 -1.1104 15.9994 7.02501 4.19553 3.95542
157 1 -1.1104 15.9994 9.79199 4.37165 4.18686
158 1 -1.1104 15.9994 7.11522 6.8256 1.27079
159 1 -1.1104 15.9994 9.99916 6.8277 1.38371
160 1 -1.1104 15.9994 6.78287 7.26155 4.05511
161 1 -1.1104 15.9994 9.59823 7.1097 4.1867
162 1 -1.1104 15.9994 12.7679 4.4211 1.54103
163 1 -1.1104 15.9994 12.6836 4.08304 4.22455
164 1 -1.1104 15.9994 12.6899 7.10829 1.27692
165 1 -1.1104 15.9994 12.602 6.94942 4.40996
166 1 -1.1104 15.9994 1.01607 9.91545 1.25533
167 1 -1.1104 15.9994 3.91231 10.0733 1.37275
168 1 -1.1104 15.9994 1.3198 9.99152 4.15234
169 1 -1.1104 15.9994 4.1589 9.8529 4.12643
170 1 -1.1104 15.9994 1.41402 12.7755 1.36482
171 1 -1.1104 15.9994 4.25087 13.0082 1.68019
172 1 -1.1104 15.9994 0.957071 12.6411 4.44208
173 1 -1.1104 15.9994 3.71608 12.5973 4.24285
174 1 -1.1104 15.9994 6.79625 9.89959 1.16344
175 1 -1.1104 15.9994 9.99779 9.54553 1.51935
176 1 -1.1104 15.9994 7.1754 10.0416 3.9123
177 1 -1.1104 15.9994 9.96171 9.70003 4.17089
178 1 -1.1104 15.9994 7.00992 12.7558 1.06791
179 1 -1.1104 15.9994 9.83452 12.7565 1.2459
180 1 -1.1104 15.9994 6.90526 12.8483 4.06762
181 1 -1.1104 15.9994 9.77203 12.4935 4.20988
182 1 -1.1104 15.9994 12.8653 9.91666 1.52992
183 1 -1.1104 15.9994 12.7191 9.92622 4.30269
184 1 -1.1104 15.9994 12.699 12.6139 1.2487
185 1 -1.1104 15.9994 12.6564 12.8688 4.15002
186 1 -1.1104 15.9994 1.327 15.4547 0.945706
187 1 -1.1104 15.9994 4.23559 15.7171 1.04041
188 1 -1.1104 15.9994 1.22362 15.5356 3.96237
189 1 -1.1104 15.9994 3.92554 15.6647 4.11321
190 1 -1.1104 15.9994 1.24408 18.5391 1.23078
191 1 -1.1104 15.9994 4.00481 18.5142 1.06298
192 1 -1.1104 15.9994 1.12375 18.2962 4.12743
193 1 -1.1104 15.9994 4.01115 18.4968 4.03878
670 2 2.2208 232.038 11.2634 8.46842 -0.154167
195 1 -1.1104 15.9994 8.79466 15.1965 1.04974
196 1 -1.1104 15.9994 9.89387 21.7806 4.46299
197 1 -1.1104 15.9994 6.51853 17.1145 4.6591
198 1 -1.1104 15.9994 8.21465 19.2579 4.76205
199 1 -1.1104 15.9994 6.69216 15.5659 2.17641
200 1 -1.1104 15.9994 6.83116 21.8381 1.2681
201 1 -1.1104 15.9994 10.4815 15.0464 2.9524
202 1 -1.1104 15.9994 12.6305 15.5536 1.28041
203 1 -1.1104 15.9994 12.7435 15.5397 3.92085
204 1 -1.1104 15.9994 12.6739 18.5547 1.31477
205 1 -1.1104 15.9994 12.6314 18.4212 4.20926
206 1 -1.1104 15.9994 1.03584 21.4976 1.17986
207 1 -1.1104 15.9994 3.79208 21.5318 1.20156
208 1 -1.1104 15.9994 0.975746 21.202 3.98964
209 1 -1.1104 15.9994 4.02172 21.4737 4.09307
194 1 -1.1104 15.9994 8.41132 15.232 4.46346
211 1 -1.1104 15.9994 6.94426 21.8633 4.34365
212 1 -1.1104 15.9994 10.264 19.2953 2.76505
213 1 -1.1104 15.9994 6.14738 19.4043 2.97612
214 1 -1.1104 15.9994 12.7507 21.2974 1.08469
215 1 -1.1104 15.9994 12.6214 21.3665 3.95559
216 1 -1.1104 15.9994 1.09787 -1.19085 6.79725
217 1 -1.1104 15.9994 3.99597 -1.61591 7.20727
218 1 -1.1104 15.9994 0.777394 -1.66038 9.24624
219 1 -1.1104 15.9994 3.79622 -1.57444 9.76363
220 1 -1.1104 15.9994 1.5945 1.59592 7.05628
221 1 -1.1104 15.9994 4.52671 1.37967 7.04377
319 2 2.2208 232.038 5.4968 17.0852 13.7897
223 1 -1.1104 15.9994 3.92601 1.46421 9.84311
224 1 -1.1104 15.9994 7.01568 -1.5062 6.8106
225 1 -1.1104 15.9994 9.69119 -1.5535 6.65574
226 1 -1.1104 15.9994 5.51331 0.0147869 11.402
227 1 -1.1104 15.9994 9.66084 -1.10487 9.65541
228 1 -1.1104 15.9994 6.971 1.29826 6.6697
229 1 -1.1104 15.9994 9.69215 1.36562 6.50121
230 1 -1.1104 15.9994 7.2692 1.11732 9.42309
231 1 -1.1104 15.9994 10.1098 2.00386 9.34833
232 1 -1.1104 15.9994 12.8019 -1.38378 6.73564
233 1 -1.1104 15.9994 12.4707 -1.66655 9.69486
234 1 -1.1104 15.9994 12.3361 1.5102 6.79734
235 1 -1.1104 15.9994 12.5638 1.11195 9.67893
236 1 -1.1104 15.9994 1.30379 4.31365 7.03638
237 1 -1.1104 15.9994 3.92588 4.33243 6.9829
238 1 -1.1104 15.9994 1.27465 1.34957 9.85332
239 1 -1.1104 15.9994 3.70945 4.37089 9.66474
240 1 -1.1104 15.9994 1.43121 6.99124 6.64142
241 1 -1.1104 15.9994 3.96618 7.10784 6.89493
242 1 -1.1104 15.9994 1.31503 7.50658 9.63735
243 1 -1.1104 15.9994 4.11855 6.95779 9.72223
244 1 -1.1104 15.9994 6.60957 4.39508 6.91403
245 1 -1.1104 15.9994 9.53905 4.24129 7.06706
246 1 -1.1104 15.9994 6.55952 3.93696 9.61549
247 1 -1.1104 15.9994 9.40657 4.29791 10.0604
248 1 -1.1104 15.9994 6.82093 7.10134 6.8266
249 1 -1.1104 15.9994 9.62948 7.05968 6.92428
250 1 -1.1104 15.9994 6.87407 6.91566 9.77835
251 1 -1.1104 15.9994 9.62076 6.96679 9.99062
252 1 -1.1104 15.9994 12.6186 4.41974 6.88094
253 1 -1.1104 15.9994 12.6698 4.06957 9.87822
254 1 -1.1104 15.9994 12.3849 7.29259 6.95504
255 1 -1.1104 15.9994 12.2655 6.95747 9.62353
256 1 -1.1104 15.9994 1.31304 9.96303 6.77381
257 1 -1.1104 15.9994 4.22067 10.0068 6.76095
258 1 -1.1104 15.9994 1.42222 10.3615 9.57917
259 1 -1.1104 15.9994 4.14788 9.87308 9.6804
260 1 -1.1104 15.9994 1.06463 12.8918 7.12642
261 1 -1.1104 15.9994 4.16381 12.6478 6.72494
262 1 -1.1104 15.9994 1.1343 13.0648 9.88842
263 1 -1.1104 15.9994 3.99881 12.7799 9.60164
264 1 -1.1104 15.9994 6.8532 10.0029 7.13184
265 1 -1.1104 15.9994 9.67117 9.97235 7.18579
266 1 -1.1104 15.9994 6.75559 9.84669 10.1027
267 1 -1.1104 15.9994 9.80384 9.81058 9.91443
268 1 -1.1104 15.9994 6.86401 12.7656 6.75286
269 1 -1.1104 15.9994 9.49516 12.5591 6.89422
270 1 -1.1104 15.9994 7.01611 12.6751 9.55122
271 1 -1.1104 15.9994 9.53082 12.8972 10.0199
272 1 -1.1104 15.9994 12.2039 9.77269 7.25665
273 1 -1.1104 15.9994 12.5212 9.96076 9.70049
274 1 -1.1104 15.9994 12.4713 12.7454 6.97828
275 1 -1.1104 15.9994 12.7887 12.9836 9.7405
276 1 -1.1104 15.9994 1.11732 15.8703 6.73363
277 1 -1.1104 15.9994 3.93623 15.6072 6.72255
278 1 -1.1104 15.9994 1.30203 15.6778 9.62089
279 1 -1.1104 15.9994 4.16793 15.5667 9.7027
280 1 -1.1104 15.9994 1.38329 18.5486 6.88362
281 1 -1.1104 15.9994 4.05581 18.2709 6.95811
282 1 -1.1104 15.9994 1.27219 18.4308 9.5147
283 1 -1.1104 15.9994 4.124 18.5609 9.72876
284 1 -1.1104 15.9994 6.69985 15.6156 7.25873
285 1 -1.1104 15.9994 9.5411 15.5055 6.78978
286 1 -1.1104 15.9994 6.87658 15.4218 9.89002
287 1 -1.1104 15.9994 9.77375 15.5917 9.66951
288 1 -1.1104 15.9994 6.9216 18.4557 7.22461
289 1 -1.1104 15.9994 10.2468 17.2671 4.47051
290 1 -1.1104 15.9994 7.07228 18.3114 10.0378
291 1 -1.1104 15.9994 9.8181 18.542 7.18434
292 1 -1.1104 15.9994 12.6023 15.2984 6.96067
293 1 -1.1104 15.9994 12.6906 15.5294 9.70453
294 1 -1.1104 15.9994 12.7309 18.1487 7.04442
295 1 -1.1104 15.9994 12.795 18.4147 9.8133
296 1 -1.1104 15.9994 1.43786 21.4692 6.87087
297 1 -1.1104 15.9994 4.48472 21.3143 6.86841
298 1 -1.1104 15.9994 1.24927 21.3011 9.78757
299 1 -1.1104 15.9994 3.85164 21.2456 9.76927
300 1 -1.1104 15.9994 7.37409 21.8441 7.56083
301 1 -1.1104 15.9994 9.82426 21.263 7.59495
302 1 -1.1104 15.9994 6.71915 21.3806 10.1208
303 1 -1.1104 15.9994 9.94995 18.258 9.95896
304 1 -1.1104 15.9994 12.2745 21.3022 6.70006
305 1 -1.1104 15.9994 12.4424 20.9914 9.70402
306 1 -1.1104 15.9994 1.38145 -1.43277 12.5529
307 1 -1.1104 15.9994 4.07267 -1.666 12.7886
308 1 -1.1104 15.9994 1.36865 1.35482 12.6793
309 1 -1.1104 15.9994 4.09989 1.49282 12.9478
310 1 -1.1104 15.9994 7.06591 -1.68796 12.6304
311 1 -1.1104 15.9994 9.95708 -1.5629 12.6483
312 1 -1.1104 15.9994 7.22173 1.43496 13.0029
313 1 -1.1104 15.9994 9.71563 1.13361 12.4034
314 1 -1.1104 15.9994 12.66 -1.4295 12.6525
315 1 -1.1104 15.9994 12.4857 1.16685 12.4875
316 1 -1.1104 15.9994 1.50656 4.14209 12.7219
317 1 -1.1104 15.9994 4.22433 4.35788 12.47
8968 2 2.2208 232.038 -0.0550334 22.5287 8.19005
53 1 -1.1104 15.9994 7.26708 21.5219 13.3163
666 2 2.2208 232.038 8.61291 5.43933 0.0722732
662 2 2.2208 232.038 11.2028 -2.9444 -0.120143
9012 3 -1.1104 15.9994 1.20332 4.34687 9.50951
124 2 2.2208 232.038 8.15869 22.8749 10.9063
1 2 2.2208 232.038 13.8524 -0.166822 11.1351
8233 2 2.2208 232.038 5.29739 -2.87012 11.1153
409 2 2.2208 232.038 5.61921 14.1096 0.164614
8256 2 2.2208 232.038 13.8923 -2.77885 8.10776
350 2 2.2208 232.038 5.28549 20.2493 -0.22195
8966 2 2.2208 232.038 -0.116545 8.75357 11.1402
396 2 2.2208 232.038 11.1846 19.6475 -0.246732
8963 2 2.2208 232.038 -0.204467 16.7409 2.64528
8241 2 2.2208 232.038 8.26939 -2.6649 8.32024
71 2 2.2208 232.038 -0.0639986 8.43605 5.48722
8964 2 2.2208 232.038 -0.197418 14.5004 11.128
106 2 2.2208 232.038 0.105069 2.82774 11.1273
667 2 2.2208 232.038 11.396 2.84637 -0.132921
9050 2 2.2208 232.038 13.7377 22.6167 5.35342
9061 2 2.2208 232.038 -0.189727 11.4374 8.23144
320 2 2.2208 232.038 -0.160654 5.5732 13.8632
419 2 2.2208 232.038 13.8523 -0.14528 -0.149821
21 2 2.2208 232.038 -0.197603 8.5106 -0.0824968
8991 2 2.2208 232.038 13.8619 13.9825 2.65777
9001 2 2.2208 232.038 13.9305 19.981 2.60465
8924 2 2.2208 232.038 2.44005 -2.82229 13.9353
14 2 2.2208 232.038 5.58409 11.2241 13.894
5 2 2.2208 232.038 2.70782 14.347 13.9201
326 2 2.2208 232.038 13.9212 2.751 13.9143
674 2 2.2208 232.038 2.66944 19.8501 13.9516
349 2 2.2208 232.038 8.22067 22.9265 28.1327
8929 2 2.2208 232.038 8.32202 -2.83787 19.9003
325 2 2.2208 232.038 11.1688 -0.397997 14.0504
359 3 -1.1104 15.9994 4.43868 9.70569 27.015
345 2 2.2208 232.038 11.7308 22.5414 14.222
327 1 -1.1104 15.9994 6.86204 21.325 24.2154
489 1 -1.1104 15.9994 8.10687 20.9804 15.8996
329 1 -1.1104 15.9994 4.13461 21.3493 26.8161
346 2 2.2208 232.038 2.74313 2.87074 14.1762
331 1 -1.1104 15.9994 1.08901 21.4417 26.8507
332 3 -1.1104 15.9994 9.55927 15.9042 24.076
8935 2 2.2208 232.038 8.52548 -2.94035 25.4472
334 1 -1.1104 15.9994 4.02844 21.3137 24.0184
653 1 -1.1104 15.9994 6.89384 18.4624 24.1862
336 1 -1.1104 15.9994 1.17889 21.4939 23.955
337 3 -1.1104 15.9994 12.6208 7.09759 21.2036
324 2 2.2208 232.038 5.64262 -1.45024e-05 13.9642
339 1 -1.1104 15.9994 12.7162 18.4804 26.8598
9641 2 2.2208 232.038 -0.138705 11.2231 25.5074
341 1 -1.1104 15.9994 12.4062 18.6507 24.0029
416 2 2.2208 232.038 0.0489348 8.49614 22.5023
971 1 -1.1104 15.9994 10.4055 22.0641 15.8161
656 1 -1.1104 15.9994 9.90612 18.598 26.4567
340 2 2.2208 232.038 11.3241 16.8722 14.2083
9381 2 2.2208 232.038 -0.0662943 8.55981 16.8371
347 2 2.2208 232.038 2.86877 0.0621042 16.9852
9301 2 2.2208 232.038 -0.119036 14.2513 22.5647
400 2 2.2208 232.038 8.41411 17.1545 27.8224
328 2 2.2208 232.038 8.43555 2.79672 14.192
351 2 2.2208 232.038 8.19287 -0.124317 16.9964
9643 2 2.2208 232.038 -0.044858 -0.125427 19.4931
353 2 2.2208 232.038 5.52048 -0.06579 19.711
658 1 -1.1104 15.9994 12.7827 15.5075 26.6941
355 2 2.2208 232.038 11.2572 -0.13168 19.8942
9331 2 2.2208 232.038 -0.189921 16.8565 19.872
357 2 2.2208 232.038 2.62756 5.52265 16.6506
358 2 2.2208 232.038 2.73247 2.82908 19.7463
648 1 -1.1104 15.9994 4.22655 18.5839 26.641
360 2 2.2208 232.038 5.55849 2.70842 16.8891
361 2 2.2208 232.038 8.56978 5.7717 16.7929
362 2 2.2208 232.038 8.43846 2.69679 19.7056
363 2 2.2208 232.038 5.82237 5.5535 19.5914
364 2 2.2208 232.038 11.2825 2.67637 16.8986
365 2 2.2208 232.038 11.3305 5.63616 19.5962
343 2 2.2208 232.038 8.4176 19.4701 14.1112
367 2 2.2208 232.038 2.99196 11.2628 16.6063
368 2 2.2208 232.038 2.68007 7.86007 19.5773
9377 2 2.2208 232.038 -0.154355 14.134 16.9943
370 2 2.2208 232.038 5.57037 8.38024 16.9166
371 2 2.2208 232.038 8.27099 11.3803 17.1161
372 2 2.2208 232.038 8.35786 8.5149 19.7692
373 2 2.2208 232.038 5.72974 11.3969 19.9016
374 2 2.2208 232.038 11.3883 8.43221 16.8179
375 2 2.2208 232.038 11.3766 11.5047 19.6896
376 4 2.2208 232.038 2.57061 11.1484 19.9215
377 2 2.2208 232.038 2.71508 17.0197 16.8238
378 2 2.2208 232.038 2.59845 14.3412 19.9639
379 1 -1.1104 15.9994 12.6098 21.2947 26.4768
380 2 2.2208 232.038 5.55535 14.3231 16.9859
381 2 2.2208 232.038 8.1571 17.0582 17.0339
382 2 2.2208 232.038 8.31294 14.3847 19.8206
383 2 2.2208 232.038 5.72977 17.3245 19.904
384 2 2.2208 232.038 11.3624 14.2212 16.7257
385 2 2.2208 232.038 11.3517 17.0221 19.5728
386 1 -1.1104 15.9994 12.629 21.5001 23.6544
387 2 2.2208 232.038 2.86435 22.3854 16.979
388 2 2.2208 232.038 2.81332 19.5671 19.869
8925 2 2.2208 232.038 11.3032 -2.93788 22.6334
390 2 2.2208 232.038 5.6402 19.8561 16.9192
391 2 2.2208 232.038 8.31416 22.7758 17.4973
392 2 2.2208 232.038 8.53373 19.7592 19.7923
393 2 2.2208 232.038 5.61522 22.6727 19.6658
394 2 2.2208 232.038 11.2902 19.7714 16.8306
395 2 2.2208 232.038 11.2732 22.8445 19.7349
9291 2 2.2208 232.038 -0.0463617 11.6248 13.9734
397 2 2.2208 232.038 2.48928 0.0460523 22.5815
9646 2 2.2208 232.038 -0.125607 -0.0358131 25.3692
655 1 -1.1104 15.9994 7.1603 18.9372 27.0089
389 1 -1.1104 15.9994 9.64906 21.166 27.3648
401 2 2.2208 232.038 8.40409 -0.128278 22.5224
649 1 -1.1104 15.9994 6.86045 15.825 23.9489
403 2 2.2208 232.038 5.62255 -0.109651 25.3927
647 1 -1.1104 15.9994 1.50912 18.6615 26.8343
405 2 2.2208 232.038 11.4279 0.0866538 25.6283
651 1 -1.1104 15.9994 6.55855 15.7706 26.8631
407 2 2.2208 232.038 2.72285 5.64296 22.5456
408 2 2.2208 232.038 2.68085 2.55251 25.5331
646 1 -1.1104 15.9994 4.11782 18.575 23.9287
410 2 2.2208 232.038 5.53472 2.77412 22.5903
411 2 2.2208 232.038 8.45739 5.5436 22.7735
412 2 2.2208 232.038 8.33363 2.76702 25.4409
413 2 2.2208 232.038 5.4819 5.70358 25.3731
414 2 2.2208 232.038 11.1909 2.82256 22.6153
415 2 2.2208 232.038 11.197 5.58311 25.4975
22 2 2.2208 232.038 2.75354 11.3454 27.9783
417 2 2.2208 232.038 2.64298 11.1749 23.1188
418 2 2.2208 232.038 2.67275 8.60054 25.5906
654 1 -1.1104 15.9994 9.56213 18.877 23.7656
420 2 2.2208 232.038 5.42526 8.47298 22.3159
421 2 2.2208 232.038 8.55182 11.5128 22.6056
422 2 2.2208 232.038 8.34077 8.64778 25.4115
423 2 2.2208 232.038 5.43473 11.4017 25.4058
424 2 2.2208 232.038 11.3062 8.4623 22.4793
425 2 2.2208 232.038 11.3912 11.4657 25.6974
426 1 -1.1104 15.9994 6.89063 21.7591 26.7927
427 2 2.2208 232.038 2.86469 17.1089 22.6614
428 2 2.2208 232.038 2.70896 13.946 25.5169
657 1 -1.1104 15.9994 12.4321 15.6863 23.7109
430 2 2.2208 232.038 5.61078 14.2436 22.7087
431 2 2.2208 232.038 8.23295 17.468 22.8159
432 2 2.2208 232.038 8.24043 14.2896 25.3615
433 2 2.2208 232.038 5.39853 17.0287 25.3409
434 2 2.2208 232.038 11.3148 14.4347 22.233
435 2 2.2208 232.038 11.2328 17.0534 25.4857
650 1 -1.1104 15.9994 9.54446 15.7055 26.7241
437 2 2.2208 232.038 2.71394 22.7354 22.5906
438 2 2.2208 232.038 2.63462 20.079 25.5791
439 1 -1.1104 15.9994 9.65943 21.408 24.1204
440 2 2.2208 232.038 5.54449 20.0213 22.7221
441 2 2.2208 232.038 8.33077 22.827 22.574
442 2 2.2208 232.038 8.30391 20.0031 25.4978
443 2 2.2208 232.038 5.50176 22.85 25.0414
444 2 2.2208 232.038 11.4404 20.1531 22.5416
445 2 2.2208 232.038 11.0266 22.8971 25.4922
446 1 -1.1104 15.9994 1.58057 -1.19738 15.4544
447 1 -1.1104 15.9994 4.20823 -1.40466 15.6258
448 1 -1.1104 15.9994 1.31779 1.71809 15.4845
449 1 -1.1104 15.9994 4.37489 1.53589 15.4698
450 1 -1.1104 15.9994 6.87871 -1.52628 15.4915
451 1 -1.1104 15.9994 9.73725 -1.58697 15.496
452 1 -1.1104 15.9994 7.00306 1.45202 15.7305
453 1 -1.1104 15.9994 10.0384 1.1935 15.5356
454 1 -1.1104 15.9994 12.6313 -1.45359 15.6363
455 1 -1.1104 15.9994 12.7514 1.42358 15.4634
456 1 -1.1104 15.9994 1.02773 4.35465 15.145
457 1 -1.1104 15.9994 4.27619 4.24082 15.4415
458 1 -1.1104 15.9994 1.22874 7.03374 15.3832
459 1 -1.1104 15.9994 4.19866 7.08449 15.2544
460 1 -1.1104 15.9994 7.06355 4.4434 15.2526
461 1 -1.1104 15.9994 9.69927 4.14161 15.4954
462 1 -1.1104 15.9994 7.1655 7.02725 15.3158
463 1 -1.1104 15.9994 9.93125 7.09326 15.4077
464 1 -1.1104 15.9994 12.5014 4.26084 15.4955
465 1 -1.1104 15.9994 12.8497 6.84491 15.3948
466 1 -1.1104 15.9994 1.40038 9.98176 15.6858
467 1 -1.1104 15.9994 4.20077 9.74962 15.582
468 1 -1.1104 15.9994 1.38657 12.8319 15.3864
469 1 -1.1104 15.9994 4.35652 12.5173 15.3956
470 1 -1.1104 15.9994 7.08664 9.80348 15.6885
471 1 -1.1104 15.9994 9.79281 10.0671 15.4369
472 1 -1.1104 15.9994 6.98056 12.6491 15.4263
473 1 -1.1104 15.9994 9.84253 13.0478 15.302
474 1 -1.1104 15.9994 12.5559 9.80353 15.3758
475 1 -1.1104 15.9994 12.6929 12.5732 15.366
476 1 -1.1104 15.9994 1.17641 15.7805 15.3849
477 1 -1.1104 15.9994 4.36335 15.4466 15.331
478 1 -1.1104 15.9994 1.18532 18.4141 15.2702
479 1 -1.1104 15.9994 4.27219 18.4311 15.6766
480 1 -1.1104 15.9994 7.02505 15.2782 15.579
481 1 -1.1104 15.9994 9.74305 15.7325 15.6057
482 1 -1.1104 15.9994 6.84717 18.1457 15.4471
483 1 -1.1104 15.9994 9.79263 18.4039 15.4284
484 1 -1.1104 15.9994 12.6833 15.425 15.2507
485 1 -1.1104 15.9994 12.6451 18.5585 14.9884
486 1 -1.1104 15.9994 1.43309 21.2229 15.5113
487 1 -1.1104 15.9994 4.14961 21.0793 15.0556
406 2 2.2208 232.038 -0.0473474 2.83599 22.5808
348 2 2.2208 232.038 13.8501 11.3127 22.4795
490 1 -1.1104 15.9994 13.402 21.3703 15.3226
491 1 -1.1104 15.9994 1.28904 -1.49975 18.2034
492 1 -1.1104 15.9994 4.15256 -1.3672 18.2432
493 1 -1.1104 15.9994 1.45496 -1.20678 21.0535
494 1 -1.1104 15.9994 4.22079 -1.37318 21.2842
495 1 -1.1104 15.9994 1.20846 1.31533 18.2352
496 1 -1.1104 15.9994 3.94453 1.6444 18.3565
497 1 -1.1104 15.9994 1.42898 1.75117 21.0995
498 1 -1.1104 15.9994 3.83715 1.64931 21.3359
499 1 -1.1104 15.9994 6.89725 -1.39534 18.5881
500 1 -1.1104 15.9994 9.46089 -1.30673 18.4277
501 1 -1.1104 15.9994 7.10328 -1.43125 21.2063
502 1 -1.1104 15.9994 9.82395 -1.54068 21.2054
503 1 -1.1104 15.9994 6.94976 1.6704 18.3162
504 1 -1.1104 15.9994 9.88706 1.20995 18.5419
505 1 -1.1104 15.9994 6.96889 1.23915 20.981
506 1 -1.1104 15.9994 9.80042 1.39378 21.2516
507 1 -1.1104 15.9994 12.6125 -1.26883 18.2771
508 1 -1.1104 15.9994 12.5295 -1.4031 21.1561
509 1 -1.1104 15.9994 12.8021 1.59182 18.1866
510 1 -1.1104 15.9994 12.647 1.47749 21.2749
511 1 -1.1104 15.9994 1.16279 3.91906 18.5027
512 1 -1.1104 15.9994 4.29321 4.12146 18.3582
513 1 -1.1104 15.9994 1.26253 4.33043 21.0326
514 1 -1.1104 15.9994 4.08959 4.28547 21.0954
515 1 -1.1104 15.9994 1.38908 6.75136 18.0811
516 1 -1.1104 15.9994 4.11626 6.78662 18.0267
517 1 -1.1104 15.9994 1.54027 7.13938 21.4162
518 1 -1.1104 15.9994 4.32628 7.0779 20.8026
519 1 -1.1104 15.9994 7.13315 4.51267 18.189
520 1 -1.1104 15.9994 9.93055 3.98084 18.3249
521 1 -1.1104 15.9994 6.91725 3.99369 21.1348
522 1 -1.1104 15.9994 9.70945 4.44142 21.2411
523 1 -1.1104 15.9994 6.82605 7.22916 18.2778
524 1 -1.1104 15.9994 9.63696 6.95515 18.497
525 1 -1.1104 15.9994 7.24144 6.81092 20.9638
526 1 -1.1104 15.9994 9.8603 7.3687 21.3074
527 1 -1.1104 15.9994 12.7103 4.27388 18.2909
528 1 -1.1104 15.9994 12.5234 4.39416 21.0648
529 1 -1.1104 15.9994 12.7755 7.09246 18.3416
645 1 -1.1104 15.9994 1.09924 18.528 24.004
531 1 -1.1104 15.9994 1.07032 9.68403 18.9037
532 1 -1.1104 15.9994 3.89395 9.73129 18.359
533 1 -1.1104 15.9994 1.45409 10.2713 21.6072
534 1 -1.1104 15.9994 4.12244 10.17 21.0934
535 1 -1.1104 15.9994 1.4621 12.3581 18.2247
536 1 -1.1104 15.9994 4.03559 12.4972 18.7922
537 1 -1.1104 15.9994 0.941092 12.9772 20.7134
538 1 -1.1104 15.9994 3.77953 12.8107 21.3615
539 1 -1.1104 15.9994 6.78572 9.84028 18.3769
540 1 -1.1104 15.9994 9.50937 9.98449 18.511
541 1 -1.1104 15.9994 6.92653 9.93824 21.1668
542 1 -1.1104 15.9994 9.9839 10.2925 21.3143
543 1 -1.1104 15.9994 7.0479 12.8977 18.2349
544 1 -1.1104 15.9994 10.0236 12.7538 18.0983
545 1 -1.1104 15.9994 6.78952 13.187 21.0359
546 1 -1.1104 15.9994 9.57842 12.9719 21.0094
547 1 -1.1104 15.9994 12.3433 9.8434 18.4544
548 1 -1.1104 15.9994 12.6616 10.1271 21.2674
549 1 -1.1104 15.9994 12.9038 12.6956 17.9103
550 1 -1.1104 15.9994 12.2717 13.0181 20.9547
551 1 -1.1104 15.9994 1.24232 15.5585 18.4472
552 1 -1.1104 15.9994 4.1 15.4357 18.1946
553 1 -1.1104 15.9994 1.16393 15.6261 21.2444
554 1 -1.1104 15.9994 4.23304 15.5925 21.168
555 1 -1.1104 15.9994 1.35544 18.2062 18.5104
556 1 -1.1104 15.9994 4.17112 18.3017 18.4936
557 1 -1.1104 15.9994 1.28486 18.3502 21.2053
558 1 -1.1104 15.9994 4.38266 18.4522 21.5697
559 1 -1.1104 15.9994 6.74777 15.8706 18.4664
560 1 -1.1104 15.9994 9.7755 15.5301 18.4198
561 1 -1.1104 15.9994 7.0116 15.9698 21.2381
562 1 -1.1104 15.9994 9.84435 15.8029 21.1054
563 1 -1.1104 15.9994 6.9401 18.5266 18.4509
564 1 -1.1104 15.9994 9.69905 18.3599 18.0717
565 1 -1.1104 15.9994 7.14749 18.8113 21.4159
566 1 -1.1104 15.9994 9.95848 18.5934 20.9885
567 1 -1.1104 15.9994 12.6639 15.501 18.023
568 1 -1.1104 15.9994 12.9569 15.8348 20.8433
569 1 -1.1104 15.9994 12.4819 18.4137 18.1943
570 1 -1.1104 15.9994 12.6752 18.6892 21.1838
571 1 -1.1104 15.9994 1.23238 21.0383 18.0248
572 1 -1.1104 15.9994 4.13143 20.8211 18.4008
573 1 -1.1104 15.9994 0.824369 21.0982 20.9812
574 1 -1.1104 15.9994 4.04853 21.3245 21.2312
575 1 -1.1104 15.9994 7.18737 21.3233 18.786
576 1 -1.1104 15.9994 9.76397 21.4296 18.7307
577 1 -1.1104 15.9994 6.8822 21.4805 21.5363
578 1 -1.1104 15.9994 9.96859 21.602 21.4514
579 1 -1.1104 15.9994 12.404 21.3749 18.2311
580 1 -1.1104 15.9994 12.8847 21.4168 20.8002
581 1 -1.1104 15.9994 1.23899 -1.29911 23.8838
582 1 -1.1104 15.9994 4.13307 -1.5626 24.0808
583 1 -1.1104 15.9994 1.47657 -1.61103 27.0651
584 1 -1.1104 15.9994 4.05395 -1.60139 26.9489
585 1 -1.1104 15.9994 1.21113 1.41274 24.1448
586 1 -1.1104 15.9994 4.24167 1.09568 23.9638
587 1 -1.1104 15.9994 1.29286 1.21502 27.0827
588 1 -1.1104 15.9994 3.84559 1.30113 26.9495
589 1 -1.1104 15.9994 7.09482 -1.44846 23.8816
590 1 -1.1104 15.9994 9.90046 -1.67498 23.871
591 1 -1.1104 15.9994 6.90665 -1.63349 26.5134
592 1 -1.1104 15.9994 9.85116 -1.30994 26.6519
593 1 -1.1104 15.9994 7.0315 1.34422 24.0052
594 1 -1.1104 15.9994 10.0713 1.36572 24.028
595 1 -1.1104 15.9994 6.95211 1.19823 26.7704
596 1 -1.1104 15.9994 10.0126 1.52906 26.69
597 1 -1.1104 15.9994 12.8117 -1.67123 24.1269
598 1 -1.1104 15.9994 12.7941 -1.58509 26.7131
599 1 -1.1104 15.9994 13.0164 1.2079 24.0516
600 1 -1.1104 15.9994 12.9794 1.59229 26.9893
601 1 -1.1104 15.9994 1.20162 4.13512 24.0348
602 1 -1.1104 15.9994 4.17241 4.0115 24.1497
603 1 -1.1104 15.9994 1.25013 4.05235 26.8171
604 1 -1.1104 15.9994 4.02102 4.19394 26.9189
605 1 -1.1104 15.9994 1.42435 7.10998 23.9974
606 1 -1.1104 15.9994 4.24742 6.9811 23.5737
607 1 -1.1104 15.9994 1.41839 7.09644 26.5977
608 1 -1.1104 15.9994 4.06512 7.09407 26.5045
609 1 -1.1104 15.9994 6.97675 4.1714 24.082
610 1 -1.1104 15.9994 9.84005 4.19853 24.1699
611 1 -1.1104 15.9994 6.93692 3.98694 26.8325
612 1 -1.1104 15.9994 9.81958 4.36315 26.9902
613 1 -1.1104 15.9994 6.96361 7.15158 23.9305
614 1 -1.1104 15.9994 9.55745 6.92825 24.1313
615 1 -1.1104 15.9994 6.84077 6.75027 26.6185
616 1 -1.1104 15.9994 9.82143 7.55704 26.8169
617 1 -1.1104 15.9994 12.5643 4.10518 24.1818
618 1 -1.1104 15.9994 12.5784 4.44229 26.9697
619 1 -1.1104 15.9994 12.3834 6.95367 23.947
620 1 -1.1104 15.9994 12.6331 7.22569 26.91
621 1 -1.1104 15.9994 1.22935 9.75358 24.1859
622 1 -1.1104 15.9994 4.2777 9.66762 23.9909
623 1 -1.1104 15.9994 1.29363 9.74686 26.9475
624 1 -1.1104 15.9994 3.10673 11.5245 25.5269