LAMMPS (29 Oct 2020)
OMP_NUM_THREADS environment is not set. Defaulting to 1 thread. (../comm.cpp:94)
  using 1 OpenMP thread(s) per MPI task
OMP_NUM_THREADS environment is not set. Defaulting to 1 thread. (../comm.cpp:94)
  using 1 OpenMP thread(s) per MPI task
Reading data file ...
  orthogonal box = (-0.35008075 -4.1832027 -0.36263144) to (27.690081 332.26320 27.702631)
  2 by 13 by 2 MPI processor grid
  reading atoms ...
  17640 atoms
  reading velocities ...
  17640 velocities
Finding 1-2 1-3 1-4 neighbors ...
  special bond factors lj:    0.0      0.0      0.0     
  special bond factors coul:  0.0      0.0      0.0     
     0 = max # of 1-2 neighbors
     0 = max # of 1-3 neighbors
     0 = max # of 1-4 neighbors
     1 = max # of special neighbors
  special bonds CPU = 0.004 seconds
  read_data CPU = 0.064 seconds
Setting atom values ...
  11760 settings made for charge
Setting atom values ...
  5880 settings made for charge
PPPM initialization ...
  using 12-bit tables for long-range coulomb (../kspace.cpp:328)
  G vector (1/distance) = 0.2988439
  grid = 40 240 40
  stencil order = 5
  estimated absolute RMS force accuracy = 0.00015594204
  estimated relative force accuracy = 1.0829576e-05
  using single precision MKL FFT
  3d grid and FFT values/proc = 15000 7600
Neighbor list info ...
  update every 1 steps, delay 0 steps, check yes
  max neighbors/atom: 2000, page size: 100000
  master list distance cutoff = 11.3
  ghost atom cutoff = 11.3
  binsize = 5.65, bins = 5 60 5
  2 neighbor lists, perpetual/occasional/extra = 2 0 0
  (1) pair coul/long, perpetual
      attributes: half, newton on
      pair build: half/bin/newton
      stencil: half/bin/3d/newton
      bin: standard
  (2) pair eam/alloy, perpetual, copy from (1)
      attributes: half, newton on
      pair build: copy
      stencil: none
      bin: none
Setting up Verlet run ...
  Unit style    : metal
  Current step  : 0
  Time step     : 0.001
Per MPI rank memory allocation (min/avg/max) = 8.157 | 8.180 | 8.193 Mbytes
Step Temp E_pair E_mol TotEng Press 
       0          600   -230429.69            0   -229061.67    1057.6177 
  100000    604.94058   -230433.66            0   -229054.38    847.39176 
Loop time of 600.116 on 52 procs for 100000 steps with 17640 atoms

Performance: 14.397 ns/day, 1.667 hours/ns, 166.634 timesteps/s
99.8% CPU use with 52 MPI tasks x 1 OpenMP threads

MPI task timing breakdown:
Section |  min time  |  avg time  |  max time  |%varavg| %total
---------------------------------------------------------------
Pair    | 392.99     | 403.1      | 419.32     |  31.4 | 67.17
Bond    | 0.0060623  | 0.0093781  | 0.013909   |   1.9 |  0.00
Kspace  | 126.64     | 144.43     | 157.53     |  57.5 | 24.07
Neigh   | 30.762     | 33.188     | 36.149     |  25.1 |  5.53
Comm    | 13.859     | 14.928     | 17.006     |  23.6 |  2.49
Output  | 5.5684e-05 | 6.1273e-05 | 0.00028138 |   0.0 |  0.00
Modify  | 1.6135     | 3.2033     | 5.2452     |  68.5 |  0.53
Other   |            | 1.257      |            |       |  0.21

Nlocal:        339.231 ave         369 max         323 min
Histogram: 10 8 4 11 5 4 6 2 1 1
Nghost:        4120.81 ave        4239 max        3994 min
Histogram: 5 3 2 6 8 12 4 0 8 4
Neighs:        67352.1 ave       75561 max       61588 min
Histogram: 4 6 6 7 12 8 7 1 0 1

Total # of neighbors = 3502308
Ave neighs/atom = 198.54354
Ave special neighs/atom = 0.0000000
Neighbor list builds = 16205
Dangerous builds = 0
11760 atoms in group oxygen
PPPM initialization ...
  using 12-bit tables for long-range coulomb (../kspace.cpp:328)
  G vector (1/distance) = 0.2988439
  grid = 40 240 40
  stencil order = 5
  estimated absolute RMS force accuracy = 0.00015594204
  estimated relative force accuracy = 1.0829576e-05
  using single precision MKL FFT
  3d grid and FFT values/proc = 15000 7600
Setting up Verlet run ...
  Unit style    : metal
  Current step  : 0
  Time step     : 0.001
Per MPI rank memory allocation (min/avg/max) = 8.408 | 8.431 | 8.444 Mbytes
Step f_2 Temp v_Tdiff v_deltaT 
       0            0    604.94058            0            0 
  100000    700.50105    610.48881  0.018064387    209.72586 
  200000    1379.2915    601.64924  0.020364993    236.43568 
  300000    2059.0131    604.88063   0.02118028    245.90108 
  400000    2735.2716    605.37274  0.020807163    241.56923 
  500000    3417.0538    602.97471    0.0209365    243.07082 
  600000    4099.2554    604.86212  0.020482156    237.79593 
  700000    4782.8579    609.00063  0.020748424    240.88728 
  800000    5462.5331    605.69151  0.020624751    239.45144 
  900000    6139.4849    597.78833  0.021095766    244.91988 
 1000000    6820.6118    602.58583  0.020070552    233.01725 
Loop time of 6011.27 on 52 procs for 1000000 steps with 17640 atoms

Performance: 14.373 ns/day, 1.670 hours/ns, 166.354 timesteps/s
99.9% CPU use with 52 MPI tasks x 1 OpenMP threads

MPI task timing breakdown:
Section |  min time  |  avg time  |  max time  |%varavg| %total
---------------------------------------------------------------
Pair    | 3930.6     | 4029.5     | 4210.7     | 109.6 | 67.03
Bond    | 0.059164   | 0.09323    | 0.16161    |   6.3 |  0.00
Kspace  | 1256.2     | 1456.5     | 1587.9     | 192.6 | 24.23
Neigh   | 313.09     | 340.34     | 373.18     |  76.0 |  5.66
Comm    | 138.27     | 149.47     | 170.92     |  73.0 |  2.49
Output  | 0.0010293  | 0.0010891  | 0.002259   |   0.5 |  0.00
Modify  | 5.4282     | 5.8608     | 6.3304     |  10.9 |  0.10
Other   |            | 29.45      |            |       |  0.49

Nlocal:        339.231 ave         369 max         314 min
Histogram: 1 2 7 5 18 8 6 2 2 1
Nghost:        4130.48 ave        4235 max        4029 min
Histogram: 8 6 2 5 5 6 4 3 7 6
Neighs:        67370.3 ave       75619 max       62070 min
Histogram: 5 5 6 14 8 5 6 1 1 1

Total # of neighbors = 3503258
Ave neighs/atom = 198.59739
Ave special neighs/atom = 0.0000000
Neighbor list builds = 166530
Dangerous builds = 0
Total wall time: 1:50:11
