LAMMPS (29 Oct 2020)
OMP_NUM_THREADS environment is not set. Defaulting to 1 thread. (../comm.cpp:94)
  using 1 OpenMP thread(s) per MPI task
OMP_NUM_THREADS environment is not set. Defaulting to 1 thread. (../comm.cpp:94)
  using 1 OpenMP thread(s) per MPI task
Reading data file ...
  orthogonal box = (-0.4942814 -5.6287200 -0.48339694) to (27.834281 333.70872 27.823397)
  2 by 13 by 2 MPI processor grid
  reading atoms ...
  18000 atoms
  reading velocities ...
  18000 velocities
Finding 1-2 1-3 1-4 neighbors ...
  special bond factors lj:    0.0      0.0      0.0     
  special bond factors coul:  0.0      0.0      0.0     
     0 = max # of 1-2 neighbors
     0 = max # of 1-3 neighbors
     0 = max # of 1-4 neighbors
     1 = max # of special neighbors
  special bonds CPU = 0.004 seconds
  read_data CPU = 0.061 seconds
Setting atom values ...
  12000 settings made for charge
Setting atom values ...
  6000 settings made for charge
PPPM initialization ...
  using 12-bit tables for long-range coulomb (../kspace.cpp:328)
  G vector (1/distance) = 0.29836551
  grid = 40 240 40
  stencil order = 5
  estimated absolute RMS force accuracy = 0.00016150949
  estimated relative force accuracy = 1.1216213e-05
  using single precision MKL FFT
  3d grid and FFT values/proc = 15000 7600
Neighbor list info ...
  update every 1 steps, delay 0 steps, check yes
  max neighbors/atom: 2000, page size: 100000
  master list distance cutoff = 11.3
  ghost atom cutoff = 11.3
  binsize = 5.65, bins = 6 61 6
  2 neighbor lists, perpetual/occasional/extra = 2 0 0
  (1) pair coul/long, perpetual
      attributes: half, newton on
      pair build: half/bin/newton
      stencil: half/bin/3d/newton
      bin: standard
  (2) pair eam/alloy, perpetual, copy from (1)
      attributes: half, newton on
      pair build: copy
      stencil: none
      bin: none
Setting up Verlet run ...
  Unit style    : metal
  Current step  : 0
  Time step     : 0.001
Per MPI rank memory allocation (min/avg/max) = 8.149 | 8.171 | 8.185 Mbytes
Step Temp E_pair E_mol TotEng Press 
       0         1500   -233149.34            0   -229659.51      999.707 
  100000    1483.7348   -233152.07            0   -229700.08    427.93928 
Loop time of 686.762 on 52 procs for 100000 steps with 18000 atoms

Performance: 12.581 ns/day, 1.908 hours/ns, 145.611 timesteps/s
99.8% CPU use with 52 MPI tasks x 1 OpenMP threads

MPI task timing breakdown:
Section |  min time  |  avg time  |  max time  |%varavg| %total
---------------------------------------------------------------
Pair    | 451.82     | 462.51     | 474.34     |  26.6 | 67.35
Bond    | 0.0073109  | 0.0099714  | 0.013934   |   1.6 |  0.00
Kspace  | 138.02     | 152.22     | 163.67     |  54.5 | 22.17
Neigh   | 44.404     | 47.272     | 50.766     |  19.1 |  6.88
Comm    | 18.881     | 20.328     | 22.188     |  16.8 |  2.96
Output  | 5.5671e-05 | 6.0735e-05 | 0.00026975 |   0.0 |  0.00
Modify  | 2.0818     | 2.9255     | 4.9118     |  50.8 |  0.43
Other   |            | 1.492      |            |       |  0.22

Nlocal:        346.154 ave         364 max         330 min
Histogram: 4 5 8 7 7 5 2 3 6 5
Nghost:        3994.63 ave        4106 max        3922 min
Histogram: 4 11 9 8 7 1 2 2 4 4
Neighs:        69670.1 ave       75873 max       64696 min
Histogram: 6 6 7 3 7 8 5 5 3 2

Total # of neighbors = 3622845
Ave neighs/atom = 201.26917
Ave special neighs/atom = 0.0000000
Neighbor list builds = 25006
Dangerous builds = 0
12000 atoms in group oxygen
PPPM initialization ...
  using 12-bit tables for long-range coulomb (../kspace.cpp:328)
  G vector (1/distance) = 0.29836551
  grid = 40 240 40
  stencil order = 5
  estimated absolute RMS force accuracy = 0.00016150949
  estimated relative force accuracy = 1.1216213e-05
  using single precision MKL FFT
  3d grid and FFT values/proc = 15000 7600
Setting up Verlet run ...
  Unit style    : metal
  Current step  : 0
  Time step     : 0.001
Per MPI rank memory allocation (min/avg/max) = 8.400 | 8.422 | 8.436 Mbytes
Step f_2 Temp v_Tdiff v_deltaT 
       0            0    1483.7348            0            0 
  100000    1635.6722    1498.0112  0.061751452    716.92862 
  200000    3173.9907    1497.6385  0.072125224    837.36715 
  300000    4707.3451    1488.3291  0.074865148    869.17741 
  400000    6258.5324    1487.4047   0.07305526    848.16478 
  500000    7815.7387    1490.9599  0.072652238    843.48574 
  600000    9351.8198    1502.0315  0.074196425    861.41361 
  700000    10891.239    1496.6064  0.070947282    823.69136 
  800000    12443.626    1495.8888  0.075317198    874.42567 
  900000     13986.73    1496.0911  0.074183972    861.26902 
 1000000    15521.825    1492.7256  0.074053269    859.75157 
 1100000    17055.897    1500.2331  0.071445464    829.47521 
 1200000    18600.457    1511.5882  0.072869852    846.01221 
 1300000     20150.36    1513.9713   0.07384558    857.34033 
 1400000    21689.693    1505.5999  0.073952742    858.58447 
 1500000    23231.811    1502.5484  0.072578534    842.63004 
Loop time of 10206.4 on 52 procs for 1500000 steps with 18000 atoms

Performance: 12.698 ns/day, 1.890 hours/ns, 146.966 timesteps/s
99.8% CPU use with 52 MPI tasks x 1 OpenMP threads

MPI task timing breakdown:
Section |  min time  |  avg time  |  max time  |%varavg| %total
---------------------------------------------------------------
Pair    | 6687       | 6849.3     | 7010.6     |  90.5 | 67.11
Bond    | 0.10838    | 0.14935    | 0.21865    |   6.1 |  0.00
Kspace  | 2104.8     | 2286.5     | 2478.6     | 177.5 | 22.40
Neigh   | 681.5      | 712.06     | 750.86     |  63.2 |  6.98
Comm    | 281.65     | 303.87     | 339.06     |  82.9 |  2.98
Output  | 0.0017735  | 0.0018642  | 0.0036279  |   0.6 |  0.00
Modify  | 8.4884     | 9.48       | 10.391     |  15.7 |  0.09
Other   |            | 45.14      |            |       |  0.44

Nlocal:        346.154 ave         362 max         333 min
Histogram: 3 1 13 9 10 5 1 2 4 4
Nghost:        3995.90 ave        4080 max        3942 min
Histogram: 4 7 11 11 8 1 1 3 3 3
Neighs:        69659.2 ave       75436 max       64455 min
Histogram: 3 4 9 5 6 5 11 5 1 3

Total # of neighbors = 3622276
Ave neighs/atom = 201.23756
Ave special neighs/atom = 0.0000000
Neighbor list builds = 378669
Dangerous builds = 0
Total wall time: 3:01:33
