LAMMPS (29 Oct 2020)
OMP_NUM_THREADS environment is not set. Defaulting to 1 thread. (../comm.cpp:94)
  using 1 OpenMP thread(s) per MPI task
OMP_NUM_THREADS environment is not set. Defaulting to 1 thread. (../comm.cpp:94)
  using 1 OpenMP thread(s) per MPI task
Reading data file ...
  orthogonal box = (-0.33207899 -4.0102839 -0.32946371) to (27.672079 332.09028 27.669464)
  2 by 13 by 2 MPI processor grid
  reading atoms ...
  17640 atoms
  reading velocities ...
  17640 velocities
Finding 1-2 1-3 1-4 neighbors ...
  special bond factors lj:    0.0      0.0      0.0     
  special bond factors coul:  0.0      0.0      0.0     
     0 = max # of 1-2 neighbors
     0 = max # of 1-3 neighbors
     0 = max # of 1-4 neighbors
     1 = max # of special neighbors
  special bonds CPU = 0.003 seconds
  read_data CPU = 0.073 seconds
Setting atom values ...
  11760 settings made for charge
Setting atom values ...
  5880 settings made for charge
PPPM initialization ...
  using 12-bit tables for long-range coulomb (../kspace.cpp:328)
  G vector (1/distance) = 0.29892348
  grid = 40 240 40
  stencil order = 5
  estimated absolute RMS force accuracy = 0.0001553339
  estimated relative force accuracy = 1.0787343e-05
  using single precision MKL FFT
  3d grid and FFT values/proc = 15000 7600
Neighbor list info ...
  update every 1 steps, delay 0 steps, check yes
  max neighbors/atom: 2000, page size: 100000
  master list distance cutoff = 11.3
  ghost atom cutoff = 11.3
  binsize = 5.65, bins = 5 60 5
  2 neighbor lists, perpetual/occasional/extra = 2 0 0
  (1) pair coul/long, perpetual
      attributes: half, newton on
      pair build: half/bin/newton
      stencil: half/bin/3d/newton
      bin: standard
  (2) pair eam/alloy, perpetual, copy from (1)
      attributes: half, newton on
      pair build: copy
      stencil: none
      bin: none
Setting up Verlet run ...
  Unit style    : metal
  Current step  : 0
  Time step     : 0.001
Per MPI rank memory allocation (min/avg/max) = 8.154 | 8.180 | 8.196 Mbytes
Step Temp E_pair E_mol TotEng Press 
       0          300    -230739.3            0    -230055.3   -59.186264 
   50000    299.81726   -230741.38            0   -230057.79   -164.41558 
Loop time of 318.494 on 52 procs for 50000 steps with 17640 atoms

Performance: 13.564 ns/day, 1.769 hours/ns, 156.989 timesteps/s
99.8% CPU use with 52 MPI tasks x 1 OpenMP threads

MPI task timing breakdown:
Section |  min time  |  avg time  |  max time  |%varavg| %total
---------------------------------------------------------------
Pair    | 215.68     | 221.37     | 228.06     |  19.5 | 69.51
Bond    | 0.0030253  | 0.0052426  | 0.0082264  |   1.5 |  0.00
Kspace  | 67.344     | 74.481     | 81.075     |  37.6 | 23.39
Neigh   | 11.14      | 11.93      | 13.093     |  13.7 |  3.75
Comm    | 7.754      | 8.5701     | 9.7776     |  13.1 |  2.69
Output  | 5.5352e-05 | 6.0549e-05 | 0.0002688  |   0.0 |  0.00
Modify  | 1.0697     | 1.4321     | 2.2418     |  31.4 |  0.45
Other   |            | 0.7059     |            |       |  0.22

Nlocal:        339.231 ave         367 max         315 min
Histogram: 3 6 5 7 10 7 5 4 3 2
Nghost:        4135.92 ave        4261 max        4030 min
Histogram: 5 2 11 4 8 6 7 4 3 2
Neighs:        67332.2 ave       73957 max       60841 min
Histogram: 1 3 4 9 10 10 6 3 5 1

Total # of neighbors = 3501277
Ave neighs/atom = 198.48509
Ave special neighs/atom = 0.0000000
Neighbor list builds = 5768
Dangerous builds = 0
11760 atoms in group oxygen
PPPM initialization ...
  using 12-bit tables for long-range coulomb (../kspace.cpp:328)
  G vector (1/distance) = 0.29892348
  grid = 40 240 40
  stencil order = 5
  estimated absolute RMS force accuracy = 0.0001553339
  estimated relative force accuracy = 1.0787343e-05
  using single precision MKL FFT
  3d grid and FFT values/proc = 15000 7600
Setting up Verlet run ...
  Unit style    : metal
  Current step  : 0
  Time step     : 0.001
Per MPI rank memory allocation (min/avg/max) = 8.405 | 8.431 | 8.446 Mbytes
Step f_2 Temp v_Tdiff v_deltaT 
       0            0    299.81726            0            0 
  100000    337.54058    297.51957 0.0097115692    112.75042 
  200000    667.17731    299.84173  0.010745187    124.75062 
  300000    995.94742     303.5087  0.011085734    128.70434 
  400000    1322.7254    299.94626  0.011053227    128.32694 
  500000    1649.6497    301.88499  0.011093088    128.78972 
  600000    1977.1203    302.49088  0.010779764    125.15205 
  700000    2307.5853    301.08843  0.010728329     124.5549 
  800000    2635.2161    299.34887  0.010899257    126.53936 
  900000    2965.8227    300.82593  0.010961822    127.26573 
 1000000    3294.5789    303.89034  0.010768243     125.0183 
Loop time of 6370.05 on 52 procs for 1000000 steps with 17640 atoms

Performance: 13.563 ns/day, 1.769 hours/ns, 156.985 timesteps/s
99.8% CPU use with 52 MPI tasks x 1 OpenMP threads

MPI task timing breakdown:
Section |  min time  |  avg time  |  max time  |%varavg| %total
---------------------------------------------------------------
Pair    | 4264.1     | 4412.2     | 4573.4     | 103.0 | 69.26
Bond    | 0.059034   | 0.1047     | 0.16907    |   6.9 |  0.00
Kspace  | 1335.7     | 1506.7     | 1664.6     | 189.3 | 23.65
Neigh   | 230.24     | 245.8      | 269.82     |  61.1 |  3.86
Comm    | 155.8      | 173.03     | 196.39     |  60.2 |  2.72
Output  | 0.0011328  | 0.0011865  | 0.0023556  |   0.5 |  0.00
Modify  | 5.6032     | 6.2046     | 6.726      |  10.1 |  0.10
Other   |            | 26.04      |            |       |  0.41

Nlocal:        339.231 ave         374 max         321 min
Histogram: 8 7 7 12 5 8 2 1 1 1
Nghost:        4140.42 ave        4268 max        4021 min
Histogram: 4 3 2 12 10 2 7 8 2 2
Neighs:        67323.7 ave       75202 max       62890 min
Histogram: 6 4 10 10 11 6 3 0 1 1

Total # of neighbors = 3500834
Ave neighs/atom = 198.45998
Ave special neighs/atom = 0.0000000
Neighbor list builds = 118585
Dangerous builds = 0
Total wall time: 1:51:29
