ITEM: TIMESTEP
40000
ITEM: NUMBER OF ATOMS
18000
ITEM: BOX BOUNDS pp pp pp
-3.5617277708411110e-01 2.7696172777083842e+01
-4.1992686015137428e+00 3.3227926860151587e+02
-3.5638464549140741e-01 2.7696384645492227e+01
ITEM: ATOMS id type q x y z
1 2 2.2208 5.29842 1.38685 5.18684
2 2 2.2208 5.13527 7.03424 5.21232
3 1 -1.1104 1.13961 -2.80627 0.99255
5 1 -1.1104 0.958179 2.76075 0.840499
7 1 -1.1104 1.00552 8.29517 0.994955
15 1 -1.1104 1.19771 -2.78984 3.83468
16 1 -1.1104 1.2141 2.77997 3.66993
17 1 -1.1104 1.06664 8.38911 3.90206
21 2 2.2208 5.32833 -1.44359 2.27043
22 2 2.2208 5.10884 4.32708 2.45504
23 1 -1.1104 0.995592 0.0036744 0.880585
25 1 -1.1104 1.00396 5.46356 0.92691
31 1 -1.1104 1.07263 0.0245623 3.80749
32 1 -1.1104 0.830345 5.65803 3.74005
35 2 2.2208 2.40831 1.27832 2.30799
36 2 2.2208 2.40991 6.99735 2.35795
37 1 -1.1104 3.87865 -2.95076 0.949948
39 1 -1.1104 3.92027 2.53896 1.0262
41 1 -1.1104 3.86908 8.15434 0.895381
43 1 -1.1104 4.01417 -2.89489 3.71528
44 1 -1.1104 3.86051 2.63764 3.75312
45 1 -1.1104 3.88637 8.32696 3.87866
46 2 2.2208 2.62563 -1.38648 5.18331
47 2 2.2208 2.45373 4.01952 5.15749
48 1 -1.1104 3.74992 -0.144375 0.991577
50 1 -1.1104 3.68149 5.45386 0.960162
52 1 -1.1104 3.98105 -0.137557 3.72562
53 1 -1.1104 3.83492 5.57516 3.71706
56 2 2.2208 5.2195 6.96786 -0.571048
13 1 -1.1104 6.56184 8.39373 0.942626
11 1 -1.1104 6.78065 2.68214 0.973591
49 1 -1.1104 3.9785 -0.0262828 6.51226
33 1 -1.1104 6.73566 0.0263182 3.70329
29 1 -1.1104 6.59003 5.75804 1.02515
9 1 -1.1104 6.63985 -2.71835 0.927325
20 1 -1.1104 6.60511 8.40716 3.85869
19 1 -1.1104 6.63881 2.84379 3.83071
34 1 -1.1104 6.55483 5.57124 3.81034
207 2 2.2208 13.7253 6.97853 7.98018
38 1 -1.1104 3.87106 -2.73598 6.6505
65 2 2.2208 5.36125 -4.2708 5.08004
54 2 2.2208 2.37599 4.05361 -0.472555
210 2 2.2208 10.8799 -4.12151 10.8063
57 2 2.2208 5.31411 1.31099 -0.415593
119 2 2.2208 10.9349 -4.12148 5.19067
27 1 -1.1104 6.67283 -0.0499446 1.08709
18 1 -1.1104 6.62883 -2.75788 3.84796
69 2 2.2208 10.9046 1.4443 5.27645
70 2 2.2208 10.8518 7.12921 5.1968
71 1 -1.1104 12.2642 -2.96751 1.17055
73 1 -1.1104 12.3641 2.9218 1.0131
75 1 -1.1104 12.2968 8.44538 0.976834
77 1 -1.1104 12.4148 -2.62099 3.86395
78 1 -1.1104 12.201 2.86532 3.87714
79 1 -1.1104 12.2966 8.36938 3.88252
80 2 2.2208 10.879 -1.34099 2.38391
81 2 2.2208 10.9791 4.26857 2.41533
82 1 -1.1104 12.3077 -0.0173197 0.911165
84 1 -1.1104 12.2964 5.61296 1.13775
86 1 -1.1104 12.4819 0.141865 3.84848
87 1 -1.1104 12.3503 5.63531 3.84654
88 2 2.2208 8.1322 1.54715 2.4832
89 2 2.2208 8.03795 6.98155 2.39323
90 1 -1.1104 9.54182 -2.73077 0.834407
92 1 -1.1104 9.55708 2.93831 0.980272
94 1 -1.1104 9.39058 8.32765 0.878537
96 1 -1.1104 9.46975 -2.8463 3.76313
97 1 -1.1104 9.45475 2.78052 3.90619
99 2 2.2208 8.12685 -1.36043 5.14669
100 2 2.2208 7.95416 4.22073 5.21834
101 1 -1.1104 9.54411 0.146186 1.04645
103 1 -1.1104 9.39749 5.60135 1.0843
105 1 -1.1104 9.48817 -0.0123153 3.77944
106 1 -1.1104 9.44695 5.7292 3.75277
98 1 -1.1104 9.54846 8.41605 3.77922
117 2 2.2208 13.7182 -4.24769 2.37278
208 2 2.2208 13.6501 -1.29536 10.7883
10 1 -1.1104 6.67009 -2.71901 6.47871
113 2 2.2208 13.8188 -1.30918 5.14233
114 2 2.2208 13.7147 4.27162 5.24392
109 2 2.2208 10.9372 7.05625 -0.474984
107 2 2.2208 8.1329 4.17243 -0.372967
252 2 2.2208 2.51757 -4.27783 13.5792
116 2 2.2208 13.7615 4.10892 -0.301556
40 1 -1.1104 3.8433 2.74024 6.57597
209 2 2.2208 13.6015 4.32738 10.8479
4 1 -1.1104 0.998174 -2.72832 6.68563
211 2 2.2208 13.7715 -4.17451 7.88007
28 1 -1.1104 6.73458 -0.112486 6.60909
12 1 -1.1104 6.72268 2.60283 6.65435
6 1 -1.1104 0.954557 3.0253 6.53224
8 1 -1.1104 0.873945 8.51146 6.60221
24 1 -1.1104 1.17059 0.119426 6.54768
51 1 -1.1104 3.89369 5.48284 6.67193
14 1 -1.1104 6.59077 8.3193 6.63438
42 1 -1.1104 3.71414 8.29308 6.53764
26 1 -1.1104 1.02797 5.69539 6.59063
121 1 -1.1104 3.871 5.64251 9.49924
122 2 2.2208 5.31637 1.47783 10.7994
123 2 2.2208 5.22742 6.96749 10.8523
124 1 -1.1104 1.08874 -2.93819 12.256
125 1 -1.1104 1.04327 2.82457 12.1104
126 1 -1.1104 0.985146 8.4706 12.1714
130 1 -1.1104 1.12335 -2.74897 9.53783
131 1 -1.1104 1.08112 2.73244 9.43144
132 1 -1.1104 0.974326 8.27962 9.27586
136 2 2.2208 5.3131 -1.4255 7.95535
137 2 2.2208 5.23777 4.13631 7.95092
138 1 -1.1104 0.945259 0.106654 12.2918
139 1 -1.1104 1.01638 5.71596 12.1912
142 1 -1.1104 1.22516 -0.0208938 9.30678
143 1 -1.1104 0.990346 5.50383 9.25976
146 2 2.2208 2.49792 1.36045 8.0799
147 2 2.2208 2.35716 7.08925 7.97663
148 1 -1.1104 4.10776 -2.83958 12.3309
149 1 -1.1104 3.90463 2.72136 12.2104
150 1 -1.1104 3.81487 8.4127 12.193
151 1 -1.1104 3.8637 -2.87476 9.51139
152 1 -1.1104 3.8553 2.90268 9.49283
153 1 -1.1104 3.69621 8.37484 9.43262
154 2 2.2208 2.5308 -1.40724 10.8926
155 2 2.2208 2.33997 4.22526 10.6585
156 1 -1.1104 3.90177 -0.0383809 12.3334
157 1 -1.1104 3.75534 5.62439 12.2883
158 1 -1.1104 3.93223 0.118703 9.35382
135 1 -1.1104 6.65096 8.3911 9.49126
30 1 -1.1104 6.72419 5.63827 6.53893
141 1 -1.1104 6.64711 5.51034 12.1904
127 1 -1.1104 6.86963 -2.76778 12.2623
128 1 -1.1104 6.6138 2.95531 12.2472
133 1 -1.1104 6.76576 -2.80999 9.3711
118 2 2.2208 8.05868 -4.08923 2.34798
144 1 -1.1104 6.68625 0.0279914 9.4273
129 1 -1.1104 6.60882 8.31323 12.2742
212 2 2.2208 8.09711 -4.11643 7.91618
194 1 -1.1104 9.42059 8.49519 12.1664
197 1 -1.1104 9.47099 -2.8304 12.3225
95 1 -1.1104 9.514 8.38903 6.64797
186 1 -1.1104 12.1405 -2.79243 12.2388
102 1 -1.1104 9.68321 0.0460586 6.60469
76 1 -1.1104 12.2761 8.49517 6.54554
74 1 -1.1104 12.3074 2.91963 6.66346
83 1 -1.1104 12.4642 0.0379195 6.56597
85 1 -1.1104 12.4219 5.68309 6.63387
195 1 -1.1104 9.40665 2.81431 12.2136
198 2 2.2208 8.05646 6.98281 7.96448
181 1 -1.1104 12.2802 8.37702 12.3156
182 1 -1.1104 9.43605 8.35074 9.40322
175 1 -1.1104 9.3648 0.021604 12.1842
189 2 2.2208 10.9026 7.07628 10.7884
190 2 2.2208 10.7456 1.46647 10.8801
199 1 -1.1104 12.3298 8.4797 9.36355
183 1 -1.1104 9.53632 2.90789 9.36904
196 2 2.2208 11.0019 -1.37812 7.92972
104 1 -1.1104 9.40648 5.52871 6.61797
91 1 -1.1104 9.60595 -2.72217 6.54564
173 1 -1.1104 9.30174 0.0132011 9.39806
193 1 -1.1104 9.53618 -2.7731 9.33815
188 1 -1.1104 12.1614 -0.0421994 12.2641
184 1 -1.1104 12.1162 0.0666987 9.35534
191 2 2.2208 10.824 4.27889 8.10482
134 1 -1.1104 6.6502 2.80972 9.28318
140 1 -1.1104 6.65298 0.161248 12.309
176 2 2.2208 8.01621 4.28809 10.734
177 2 2.2208 8.05408 -1.43185 10.797
206 2 2.2208 13.6425 1.50485 8.11469
180 1 -1.1104 12.3653 -2.81118 9.27997
72 1 -1.1104 12.3765 -2.66586 6.65972
192 1 -1.1104 12.3875 2.87908 9.55462
185 1 -1.1104 12.2347 2.81953 12.2242
174 1 -1.1104 9.48472 5.56661 12.3944
187 1 -1.1104 12.188 5.60671 12.2603
179 1 -1.1104 12.2 5.64713 9.51971
145 1 -1.1104 6.54151 5.5561 9.43982
172 1 -1.1104 9.36157 5.79133 9.52026
178 2 2.2208 8.11384 1.41561 7.9696
93 1 -1.1104 9.39353 2.83945 6.53655
111 2 2.2208 13.8596 1.46568 2.44071
115 2 2.2208 13.6672 -1.43946 -0.374346
61 2 2.2208 -0.370821 7.10728 5.24235
66 2 2.2208 2.51238 -4.19175 2.40923
213 2 2.2208 8.02971 -4.15603 13.6393
110 2 2.2208 10.8743 1.33944 -0.414503
214 2 2.2208 5.37125 1.3355 16.4293
215 2 2.2208 5.27955 6.87688 16.491
216 1 -1.1104 1.24938 -2.98787 17.9221
217 1 -1.1104 1.14642 2.60476 17.8178
218 1 -1.1104 1.13795 8.25502 17.9628
222 1 -1.1104 1.10391 -2.92558 14.9704
223 1 -1.1104 1.13288 2.82822 14.8201
224 1 -1.1104 1.09264 8.41444 15.0663
228 2 2.2208 5.33425 -1.45086 19.236
229 2 2.2208 5.26741 4.20175 19.3723
230 1 -1.1104 0.958583 -0.14101 17.827
231 1 -1.1104 1.17872 5.60322 17.9791
234 1 -1.1104 1.03358 0.0535788 15.0665
235 1 -1.1104 1.06404 5.6637 15.1487
238 2 2.2208 2.49254 1.37528 19.1579
239 2 2.2208 2.44902 6.90166 19.3067
240 1 -1.1104 3.92966 -2.83834 17.9046
241 1 -1.1104 3.9394 2.55576 17.6632
242 1 -1.1104 3.88964 8.317 18.0966
243 1 -1.1104 3.89682 -2.80549 15.1111
244 1 -1.1104 3.8863 2.77151 14.9619
245 1 -1.1104 3.93434 8.36322 15.1215
246 2 2.2208 2.49635 -1.37264 16.452
247 2 2.2208 2.49427 4.17251 16.3057
248 1 -1.1104 3.8665 -0.122625 17.8761
249 1 -1.1104 3.92922 5.43426 17.8041
250 1 -1.1104 3.89703 -0.044384 15.1376
251 1 -1.1104 3.62269 5.57252 14.9569
236 1 -1.1104 6.75436 -0.0978605 15.0814
221 1 -1.1104 6.61237 8.36637 17.7447
219 1 -1.1104 6.76228 -2.85613 17.9174
227 1 -1.1104 6.52187 8.22804 14.8676
237 1 -1.1104 6.40185 5.44344 15.1022
295 1 -1.1104 1.05358 2.82314 20.6772
220 1 -1.1104 6.7439 2.7076 17.9403
232 1 -1.1104 6.82787 -0.000218435 17.8585
226 1 -1.1104 6.65743 2.71454 15.0342
225 1 -1.1104 6.39145 -2.73762 15.2959
299 1 -1.1104 6.66975 8.28354 20.7435
304 1 -1.1104 4.0375 -2.81809 20.6127
394 2 2.2208 13.6311 -1.29571 21.9728
354 1 -1.1104 9.49541 5.5805 26.2478
160 2 2.2208 5.18873 4.17776 13.67
161 2 2.2208 2.58509 1.40057 13.5449
159 2 2.2208 5.33865 -1.36896 13.7525
205 2 2.2208 13.6126 1.53179 13.5739
201 2 2.2208 8.02408 1.49562 13.5634
202 2 2.2208 10.8735 4.28153 13.6848
233 1 -1.1104 6.71616 5.59636 17.8684
260 2 2.2208 10.8531 1.48611 16.3562
261 2 2.2208 10.7885 7.0199 16.4178
262 1 -1.1104 12.4295 -2.78952 17.8277
263 1 -1.1104 12.4108 2.77285 17.8592
264 1 -1.1104 12.2903 8.42475 17.7304
265 1 -1.1104 12.0314 -2.79991 15.0531
266 1 -1.1104 12.2782 2.86504 15.0677
267 1 -1.1104 12.2363 8.50229 15.0389
268 2 2.2208 10.7748 -1.42916 19.1695
269 2 2.2208 10.9788 4.10997 19.12
270 1 -1.1104 12.343 -0.025976 17.9574
271 1 -1.1104 12.2582 5.7105 17.9118
272 1 -1.1104 12.2935 -0.000235552 15.1634
273 1 -1.1104 12.2725 5.51502 15.0842
274 2 2.2208 8.16625 1.25409 19.3247
275 2 2.2208 8.13157 6.90887 19.2036
276 1 -1.1104 9.52618 -2.79699 17.7276
277 1 -1.1104 9.62714 2.72478 17.7973
278 1 -1.1104 9.39813 8.52164 17.8376
279 1 -1.1104 9.29719 -2.79828 15.1454
280 1 -1.1104 9.43647 2.91742 14.9979
281 1 -1.1104 9.31502 8.30116 14.9903
282 2 2.2208 8.05959 -1.33667 16.4461
283 2 2.2208 8.0603 4.10389 16.3704
284 1 -1.1104 9.4857 0.0449363 17.8015
285 1 -1.1104 9.36207 5.51977 17.9153
286 1 -1.1104 9.50344 0.15054 14.9649
287 1 -1.1104 9.32641 5.54837 15.1414
292 2 2.2208 10.9304 -4.25926 16.4508
374 1 -1.1104 12.2431 0.0598787 20.6812
371 1 -1.1104 12.2737 8.37205 20.6662
370 1 -1.1104 12.3869 2.86341 20.6484
298 1 -1.1104 6.70998 2.88861 20.8288
291 2 2.2208 8.06428 -4.27251 19.2345
351 2 2.2208 5.36404 -4.23974 22.1079
383 1 -1.1104 9.54685 -0.0348634 20.703
369 1 -1.1104 12.3488 -2.74916 20.6984
289 2 2.2208 13.713 -1.36886 16.5073
9616 2 2.2208 13.758 6.98666 19.319
385 1 -1.1104 9.53135 2.75721 26.209
293 2 2.2208 13.5431 -4.22768 13.5917
200 2 2.2208 10.8008 -1.34062 13.7464
203 2 2.2208 7.92751 6.90408 13.5516
204 2 2.2208 13.6945 6.97183 13.7302
296 1 -1.1104 1.06157 8.37248 20.8077
306 1 -1.1104 3.91621 8.24224 20.7525
308 1 -1.1104 3.91201 5.43192 20.7575
303 1 -1.1104 6.68301 5.52701 20.8661
305 1 -1.1104 3.80196 2.657 20.4945
294 1 -1.1104 1.05795 -2.86779 20.6092
301 1 -1.1104 1.16567 5.53153 20.6069
302 1 -1.1104 6.74266 0.00367405 20.7265
297 1 -1.1104 6.76808 -2.74941 20.564
361 1 -1.1104 9.3477 8.45828 26.2235
307 1 -1.1104 3.95517 -0.0733177 20.7253
300 1 -1.1104 1.31602 0.0221559 20.6041
309 2 2.2208 5.34536 1.41429 22.162
310 2 2.2208 5.36863 6.90639 22.1113
311 1 -1.1104 1.17143 -2.82552 23.3076
312 1 -1.1104 0.926818 2.64539 23.3428
313 1 -1.1104 1.02451 8.38167 23.4343
317 1 -1.1104 0.963424 -2.91767 26.1779
318 1 -1.1104 0.957589 2.65857 26.0175
319 1 -1.1104 1.08331 8.43692 26.1624
323 2 2.2208 5.24986 -1.42126 24.8516
324 2 2.2208 5.24013 4.15401 24.8809
325 1 -1.1104 1.13636 0.0207263 23.2883
326 1 -1.1104 1.05889 5.53627 23.4086
329 1 -1.1104 1.07684 -0.182783 26.0505
330 1 -1.1104 0.976993 5.46822 26.251
333 2 2.2208 2.48874 1.39682 24.6971
334 2 2.2208 2.51816 6.99968 24.79
335 1 -1.1104 3.87004 -2.93149 23.3568
336 1 -1.1104 3.82425 2.92308 23.3735
337 1 -1.1104 3.81173 8.42346 23.5273
338 1 -1.1104 3.97316 -2.77483 26.2466
339 1 -1.1104 3.72868 2.71138 26.1977
340 1 -1.1104 3.87278 8.50784 26.2074
341 2 2.2208 2.57133 -1.56771 22.022
342 2 2.2208 2.38126 4.07431 21.9573
343 1 -1.1104 3.93989 -0.12001 23.5181
344 1 -1.1104 3.88333 5.58629 23.542
345 1 -1.1104 3.87417 -0.0125358 26.243
346 1 -1.1104 3.81803 5.60756 26.2106
314 1 -1.1104 6.82135 -2.79629 23.3937
328 1 -1.1104 6.69224 5.74369 23.5362
331 1 -1.1104 6.60021 -0.074688 26.3347
322 1 -1.1104 6.73796 8.39509 26.2727
316 1 -1.1104 6.63626 8.50869 23.447
315 1 -1.1104 6.56647 2.92676 23.4738
393 2 2.2208 13.7053 6.98795 24.9571
392 2 2.2208 13.6884 1.34471 24.8977
256 2 2.2208 -0.266158 1.36936 16.3865
359 2 2.2208 8.15421 4.25613 22.1103
381 1 -1.1104 9.65125 2.67092 20.699
382 1 -1.1104 9.43075 8.33177 20.6977
375 1 -1.1104 12.2744 5.52341 20.6352
384 1 -1.1104 9.5825 5.55884 20.6779
321 1 -1.1104 6.64738 2.85922 26.2858
290 2 2.2208 13.7682 4.16699 16.4144
390 1 -1.1104 9.5968 -2.91959 23.4119
366 1 -1.1104 12.3348 -2.77648 23.5479
376 1 -1.1104 12.3473 5.61645 23.526
379 1 -1.1104 12.2286 8.32992 26.3313
365 1 -1.1104 12.3174 5.65639 26.3907
327 1 -1.1104 6.71752 -0.170074 23.4633
378 1 -1.1104 12.3892 8.48973 23.4866
320 1 -1.1104 6.76686 -2.72269 26.1701
355 1 -1.1104 9.43858 -0.055882 26.1874
391 2 2.2208 10.949 -1.51826 24.8127
386 1 -1.1104 9.41322 -2.96607 26.2445
363 1 -1.1104 12.2713 2.74776 23.4739
360 2 2.2208 8.16102 -1.52391 22.0294
380 1 -1.1104 9.55542 -2.90801 20.5868
389 1 -1.1104 9.46921 2.89104 23.4116
373 2 2.2208 10.9105 1.33923 22.1574
372 1 -1.1104 12.2464 -2.68821 26.5
388 2 2.2208 10.9171 4.11712 24.8699
368 1 -1.1104 12.1419 0.0111229 26.2382
387 1 -1.1104 9.56333 8.39759 23.5551
377 1 -1.1104 12.2913 -0.0389067 23.4623
358 1 -1.1104 9.53865 -0.0321455 23.4473
357 2 2.2208 8.14054 7.00418 24.9098
364 2 2.2208 8.10403 1.27481 24.8471
367 2 2.2208 10.9086 6.95922 22.1179
332 1 -1.1104 6.6597 5.65588 26.186
356 1 -1.1104 9.47079 5.65028 23.46
362 1 -1.1104 12.2427 2.73259 26.2628
55 2 2.2208 2.49612 -1.43532 27.4967
108 2 2.2208 8.13888 -1.46242 27.5641
162 2 2.2208 2.41239 7.04135 13.764
398 2 2.2208 5.19262 12.6696 5.27381
399 2 2.2208 5.11172 18.0906 5.18043
400 1 -1.1104 0.97764 14.1202 0.827348
402 1 -1.1104 1.10188 19.637 0.98759
406 1 -1.1104 1.02241 13.9942 3.5819
407 1 -1.1104 1.05291 19.5877 3.94146
410 2 2.2208 5.22855 9.7203 2.35198
411 2 2.2208 5.12778 15.3828 2.44637
412 2 2.2208 5.33854 20.9877 2.45562
413 1 -1.1104 1.08821 11.1331 0.815172
415 1 -1.1104 1.16182 16.9272 1.00671
421 1 -1.1104 1.06624 11.1587 3.76961
422 1 -1.1104 1.02339 16.8042 3.66253
425 2 2.2208 2.35915 12.4307 2.28954
426 2 2.2208 2.41491 18.2752 2.4497
427 1 -1.1104 3.81776 13.8673 0.873967
429 1 -1.1104 3.83654 19.5312 0.966549
430 1 -1.1104 3.73817 13.8365 3.68351
431 1 -1.1104 3.90507 19.6169 3.72145
432 2 2.2208 2.29888 9.7242 5.18171
433 2 2.2208 2.33093 15.3319 5.13277
434 2 2.2208 2.4017 21.0524 5.40973
435 1 -1.1104 3.87355 10.9427 0.88002
437 1 -1.1104 3.97852 16.7785 0.948688
439 1 -1.1104 3.7249 10.988 3.7817
440 1 -1.1104 3.73534 16.7977 3.78693
472 1 -1.1104 9.43589 14.0128 6.59174
565 1 -1.1104 9.55072 19.5886 9.35686
542 2 2.2208 -0.359398 18.1542 10.7857
496 1 -1.1104 1.08302 19.7257 6.69594
408 1 -1.1104 6.53737 14.0805 3.92614
419 1 -1.1104 6.67407 16.7959 1.10304
417 1 -1.1104 6.55836 11.216 1.07541
428 1 -1.1104 3.83664 13.8672 6.7364
404 1 -1.1104 6.70333 13.896 6.58204
441 2 2.2208 2.48633 20.9903 -0.33157
444 2 2.2208 5.29262 18.1701 -0.348241
555 1 -1.1104 12.3217 11.3236 9.60279
443 2 2.2208 2.44082 9.75102 -0.525707
409 1 -1.1104 6.77827 19.6637 3.86801
493 2 2.2208 13.7489 9.73467 -0.465932
559 2 2.2208 10.7676 15.2933 8.12505
403 1 -1.1104 6.76027 13.9381 1.04032
423 1 -1.1104 6.81126 11.2181 3.878
405 1 -1.1104 6.6192 19.5538 1.00601
424 1 -1.1104 6.46021 16.7802 3.85671
453 2 2.2208 10.9162 12.6129 5.15859
454 2 2.2208 10.8911 18.261 5.17118
455 1 -1.1104 12.2372 13.9678 1.07443
457 1 -1.1104 12.2176 19.663 1.08341
458 1 -1.1104 12.2618 13.8934 3.88735
459 1 -1.1104 12.4199 19.5115 3.86003
460 2 2.2208 10.9058 9.76826 2.35805
461 2 2.2208 10.8056 15.372 2.40259
462 2 2.2208 10.8754 21.0321 2.42134
463 1 -1.1104 12.2273 11.2933 1.02383
465 1 -1.1104 12.3114 16.7471 0.938366
467 1 -1.1104 12.3399 11.1475 3.76797
468 1 -1.1104 12.1905 16.8239 3.784
469 2 2.2208 8.04248 12.6507 2.4279
470 2 2.2208 8.07716 18.1374 2.54913
471 1 -1.1104 9.48104 14.0328 0.895523
473 1 -1.1104 9.43818 19.4699 0.947765
474 1 -1.1104 9.48137 14.2032 3.89681
475 1 -1.1104 9.46199 19.7344 3.83477
476 2 2.2208 8.01741 9.76402 5.16188
477 2 2.2208 8.11967 15.4746 5.22435
478 2 2.2208 8.13319 20.9494 5.20573
479 1 -1.1104 9.37474 11.2234 1.15315
481 1 -1.1104 9.47683 16.7895 1.09712
483 1 -1.1104 9.53211 11.1986 3.83321
484 1 -1.1104 9.45261 16.7974 3.78629
497 1 -1.1104 6.57718 19.465 6.64056
560 1 -1.1104 12.278 19.5652 6.54875
495 2 2.2208 13.6599 20.9574 5.18372
508 1 -1.1104 6.67702 19.5877 9.58687
420 1 -1.1104 6.52445 16.7237 6.62606
487 2 2.2208 8.0235 9.82751 -0.380679
540 2 2.2208 -0.370997 9.77025 7.94624
574 2 2.2208 13.5352 20.9227 10.7746
489 2 2.2208 10.9117 12.5201 -0.293442
401 1 -1.1104 0.943079 14.1293 6.50007
414 1 -1.1104 0.916907 11.3347 6.65217
537 2 2.2208 -0.318034 21.0435 8.04566
582 2 2.2208 13.7049 18.2069 8.05885
416 1 -1.1104 1.14997 16.8985 6.39525
438 1 -1.1104 3.87453 16.6663 6.65927
498 1 -1.1104 3.85026 19.474 6.737
436 1 -1.1104 3.76652 11.1361 6.36009
499 2 2.2208 5.18312 12.5147 10.8911
500 2 2.2208 5.36564 18.1411 10.8515
501 1 -1.1104 1.05984 13.9309 12.4096
502 1 -1.1104 1.09326 19.5696 12.153
505 1 -1.1104 1.02206 13.8968 9.5052
506 1 -1.1104 1.01559 19.5711 9.38552
509 2 2.2208 5.14199 9.74428 7.95805
510 2 2.2208 5.25338 15.3754 8.00144
511 2 2.2208 5.16885 21.0145 8.01509
512 1 -1.1104 0.918231 11.0713 12.2019
513 1 -1.1104 1.17033 16.839 12.2025
516 1 -1.1104 0.930397 11.0647 9.33393
517 1 -1.1104 0.93037 16.7606 9.36626
520 2 2.2208 2.46322 12.5776 8.08432
521 2 2.2208 2.4954 18.1577 8.10653
522 1 -1.1104 3.8696 13.9702 12.2803
523 1 -1.1104 3.88278 19.4648 12.2457
524 1 -1.1104 3.83282 14.0323 9.48084
525 1 -1.1104 3.98636 19.7158 9.47548
526 2 2.2208 2.42492 9.69098 10.8596
527 2 2.2208 2.46162 15.3647 10.9076
528 2 2.2208 2.4762 20.9415 10.9026
529 1 -1.1104 3.88539 11.2598 12.2333
530 1 -1.1104 3.85176 16.8029 12.3315
531 1 -1.1104 3.71456 11.2212 9.29831
532 1 -1.1104 3.85568 16.8779 9.47352
504 1 -1.1104 6.64873 19.4649 12.3047
514 1 -1.1104 6.74347 11.0732 12.1042
519 1 -1.1104 6.68119 16.6801 9.59272
515 1 -1.1104 6.65997 16.6859 12.1876
569 2 2.2208 8.00057 18.1781 8.13503
573 1 -1.1104 12.1744 19.6898 12.1946
418 1 -1.1104 6.51016 11.158 6.68035
503 1 -1.1104 6.56507 13.9106 12.2743
584 2 2.2208 13.726 12.6841 8.01512
482 1 -1.1104 9.44516 16.7954 6.61232
568 1 -1.1104 9.56179 14.0653 12.1658
571 2 2.2208 10.8682 18.1731 10.7391
464 1 -1.1104 12.3359 11.2434 6.54213
480 1 -1.1104 9.50342 11.2349 6.6066
466 1 -1.1104 12.2352 16.7402 6.71381
557 1 -1.1104 12.1986 11.2159 12.3221
554 2 2.2208 8.0889 9.78691 10.7619
507 1 -1.1104 6.59792 14.0825 9.35841
553 2 2.2208 8.1032 15.318 10.9608
570 2 2.2208 10.9622 12.5837 10.9307
564 1 -1.1104 12.25 14.022 9.47055
567 1 -1.1104 9.40565 19.4657 12.2992
562 2 2.2208 10.9308 9.94569 7.96413
556 1 -1.1104 12.2587 16.7863 12.1809
566 1 -1.1104 9.36013 14.0259 9.49407
546 1 -1.1104 9.41358 16.891 9.44277
456 1 -1.1104 12.3361 14.0197 6.63953
561 1 -1.1104 9.52299 19.5448 6.6901
518 1 -1.1104 6.49056 11.188 9.41443
572 1 -1.1104 12.4093 13.9358 12.1884
558 2 2.2208 10.9091 20.9639 7.99214
547 1 -1.1104 9.51121 11.2357 9.35951
563 1 -1.1104 12.2591 19.5445 9.4225
552 2 2.2208 8.09131 20.9033 10.942
548 1 -1.1104 9.50721 16.8474 12.2683
549 1 -1.1104 9.48868 11.1815 12.1286
550 2 2.2208 7.97337 12.6082 8.02263
551 1 -1.1104 12.3147 16.7764 9.44032
490 2 2.2208 13.6875 12.5758 2.40015
446 2 2.2208 -0.362837 21.0175 2.50834
448 2 2.2208 -0.455416 9.72 2.26609
535 2 2.2208 5.29353 9.72716 13.6132
536 2 2.2208 2.25866 12.4018 13.5803
442 2 2.2208 2.49679 15.5205 -0.406741
488 2 2.2208 10.9329 18.2089 -0.392203
9794 2 2.2208 13.7393 20.9682 -0.283862
586 2 2.2208 5.26329 12.4952 16.4572
587 2 2.2208 5.16006 18.2239 16.5209
588 1 -1.1104 0.983919 14.1201 17.8593
589 1 -1.1104 0.98824 19.5221 17.8118
592 1 -1.1104 1.15008 14.005 14.981
593 1 -1.1104 1.03406 19.5916 15.1681
596 2 2.2208 5.3491 9.57969 19.3963
597 2 2.2208 5.21939 15.3157 19.3383
598 2 2.2208 5.22166 20.9432 19.2148
599 1 -1.1104 1.1325 11.2355 17.8521
600 1 -1.1104 1.0944 16.7831 17.9335
603 1 -1.1104 0.973614 11.0793 15.0266
604 1 -1.1104 0.926683 16.7326 15.1187
607 2 2.2208 2.51853 12.54 19.3224
608 2 2.2208 2.44291 18.1632 19.242
609 1 -1.1104 3.73084 14.1599 17.9443
610 1 -1.1104 3.7865 19.5082 18.0351
611 1 -1.1104 3.83994 14.1223 15.1298
612 1 -1.1104 3.82205 19.5901 15.1982
613 2 2.2208 2.45006 9.78225 16.5157
614 2 2.2208 2.3724 15.3886 16.5344
615 2 2.2208 2.42149 20.9445 16.5013
616 1 -1.1104 3.94661 11.1176 17.8793
617 1 -1.1104 3.87939 16.8375 17.9346
618 1 -1.1104 3.86915 11.1498 14.9972
619 1 -1.1104 3.84914 16.9488 15.0725
595 1 -1.1104 6.58103 19.4701 15.0819
602 1 -1.1104 6.57541 16.6384 18.0517
606 1 -1.1104 6.60552 16.6594 15.0942
605 1 -1.1104 6.74318 11.1695 14.7792
591 1 -1.1104 6.4811 19.576 17.8468
705 2 2.2208 -0.192608 15.4492 24.7244
601 1 -1.1104 6.81171 11.0041 17.7315
594 1 -1.1104 6.75549 14.034 14.9847
658 1 -1.1104 1.02895 14.0779 20.7128
667 1 -1.1104 3.93532 19.5801 20.8429
664 1 -1.1104 6.79076 11.1298 20.6572
709 1 -1.1104 9.51354 16.7906 26.3268
544 2 2.2208 5.17369 20.9057 13.6338
534 2 2.2208 5.17914 15.3929 13.7554
704 2 2.2208 -0.324101 21.0082 24.776
733 1 -1.1104 9.45746 14.1265 26.1897
585 2 2.2208 10.7614 20.9912 13.728
590 1 -1.1104 6.486 13.7799 17.8396
625 2 2.2208 10.8956 12.6925 16.4958
626 2 2.2208 10.8249 18.1788 16.4309
627 1 -1.1104 12.2593 13.9359 17.791
628 1 -1.1104 12.2154 19.7066 17.8047
629 1 -1.1104 12.3124 14.0431 15.0727
630 1 -1.1104 12.216 19.7465 15.1076
632 2 2.2208 10.8171 9.88895 19.2092
633 2 2.2208 10.9058 15.5294 19.2666
634 2 2.2208 10.8315 20.967 19.2217
635 1 -1.1104 12.2972 11.2877 17.7439
636 1 -1.1104 12.3075 16.8137 17.8321
637 1 -1.1104 12.1751 11.2889 14.9685
638 1 -1.1104 12.2397 16.8021 14.9933
639 2 2.2208 7.98303 12.5901 19.2704
640 2 2.2208 8.02316 18.203 19.1564
641 1 -1.1104 9.50284 14.1557 17.7959
642 1 -1.1104 9.34157 19.5384 17.7919
643 1 -1.1104 9.52278 14.0418 15.063
644 1 -1.1104 9.44977 19.7295 15.0872
646 2 2.2208 8.0891 9.75532 16.3961
647 2 2.2208 8.03012 15.3798 16.4759
648 2 2.2208 8.05397 20.9905 16.487
649 1 -1.1104 9.59045 11.3413 17.9013
650 1 -1.1104 9.49182 16.883 17.8146
651 1 -1.1104 9.38858 11.1142 15.0397
652 1 -1.1104 9.53604 16.9346 15.0344
653 2 2.2208 13.6084 12.6692 19.2212
738 2 2.2208 10.8603 12.6207 21.9891
657 2 2.2208 13.7403 21.0715 16.406
631 1 -1.1104 12.3378 19.6972 20.6768
722 1 -1.1104 12.247 14.1033 20.6629
732 1 -1.1104 9.44571 16.8008 20.5797
655 2 2.2208 13.6644 9.85433 16.3365
579 2 2.2208 8.18165 12.6211 13.6695
576 2 2.2208 8.01947 18.02 13.7259
578 2 2.2208 10.7658 9.7838 13.755
577 2 2.2208 10.899 15.4369 13.5662
668 1 -1.1104 4.04435 11.0411 20.6886
661 1 -1.1104 6.74906 19.6093 20.6295
718 2 2.2208 10.8703 20.9981 24.8591
659 1 -1.1104 1.16823 19.6786 20.5293
666 1 -1.1104 3.76488 13.8701 20.7317
662 1 -1.1104 1.10029 11.274 20.5837
663 1 -1.1104 1.05634 16.8546 20.6012
669 1 -1.1104 3.86904 16.7274 20.6931
670 2 2.2208 5.26118 12.5981 22.0536
671 2 2.2208 5.27921 18.2905 22.0228
672 1 -1.1104 1.12781 13.9434 23.4441
673 1 -1.1104 1.15975 19.6559 23.432
676 1 -1.1104 0.844371 14.0347 26.0768
677 1 -1.1104 1.07424 19.6208 26.2658
680 2 2.2208 5.35631 9.94942 25.0631
681 2 2.2208 5.3292 15.462 24.7793
682 2 2.2208 5.28214 21.1278 24.8873
683 1 -1.1104 1.01925 11.2359 23.2561
684 1 -1.1104 1.08714 16.8325 23.2722
687 1 -1.1104 1.18905 11.3493 26.2357
688 1 -1.1104 1.14797 16.8128 26.2269
691 2 2.2208 2.55664 12.592 24.8337
692 2 2.2208 2.5762 18.2677 24.8846
693 1 -1.1104 3.91544 14.0551 23.4805
694 1 -1.1104 3.98283 19.6728 23.634
695 1 -1.1104 3.82198 14.0612 26.2195
696 1 -1.1104 3.90799 19.6342 26.3416
697 2 2.2208 2.46533 9.74514 22.1301
698 2 2.2208 2.47032 15.4159 22.0976
699 2 2.2208 2.49454 21.025 22.0812
700 1 -1.1104 3.91432 11.1908 23.45
701 1 -1.1104 3.82889 16.8266 23.4446
702 1 -1.1104 4.05959 11.3213 26.1764
703 1 -1.1104 3.95569 16.9441 26.2046
689 1 -1.1104 6.77436 11.2801 26.2997
660 1 -1.1104 6.58033 13.9203 20.5629
686 1 -1.1104 6.68915 16.8112 23.4434
678 1 -1.1104 6.64129 13.9559 26.2386
685 1 -1.1104 6.61224 11.1389 23.5006
674 1 -1.1104 6.65522 14.0573 23.3317
665 1 -1.1104 6.6321 16.7409 20.7753
583 2 2.2208 13.616 18.195 13.5697
729 1 -1.1104 12.3515 11.1402 23.2757
739 2 2.2208 10.716 18.3288 22.0637
740 1 -1.1104 12.2049 14.1018 23.3791
742 2 2.2208 13.6211 18.283 24.8578
645 1 -1.1104 9.54826 19.4746 20.5484
743 2 2.2208 13.7038 9.79078 22.0604
726 1 -1.1104 12.265 11.3108 20.6919
730 1 -1.1104 9.49432 14.0132 20.5887
745 2 2.2208 13.7417 21.0954 22.0889
715 2 2.2208 8.14477 9.80912 22.2365
723 1 -1.1104 12.1751 13.9745 26.3514
712 1 -1.1104 9.46798 11.2747 23.6001
714 2 2.2208 8.0819 15.3652 21.9524
735 1 -1.1104 9.40359 14.0194 23.3637
727 1 -1.1104 12.2183 16.9947 20.5866
734 1 -1.1104 9.37612 19.552 23.4276
736 2 2.2208 7.9424 18.1902 24.8684
721 1 -1.1104 12.4068 11.1966 26.2942
690 1 -1.1104 6.69144 16.8083 26.2473
679 1 -1.1104 6.61484 19.6215 26.2787
675 1 -1.1104 6.71044 19.5528 23.4298
716 1 -1.1104 9.44413 19.639 26.2105
724 2 2.2208 10.7669 15.3466 24.771
717 2 2.2208 10.9471 9.7975 24.8451
725 1 -1.1104 12.2515 16.9239 23.3788
731 1 -1.1104 9.32382 11.2252 20.7111
713 2 2.2208 8.08724 21.0652 22.0086
720 1 -1.1104 12.0309 19.5755 26.3263
710 1 -1.1104 9.70485 11.1147 26.4125
737 2 2.2208 8.08954 12.6117 24.8255
728 1 -1.1104 12.2901 19.6613 23.5067
719 1 -1.1104 12.3863 16.651 26.0879
711 1 -1.1104 9.4532 16.7775 23.4648
445 2 2.2208 5.32974 12.6504 27.6659
541 2 2.2208 -0.327196 15.4807 13.5225
485 2 2.2208 8.02654 20.9452 27.6797
486 2 2.2208 8.16363 15.4072 27.6141
539 2 2.2208 -0.483243 9.82661 13.5873
533 2 2.2208 2.36936 18.1585 13.7543
451 2 2.2208 -0.297952 12.5661 27.5607
746 2 2.2208 5.14265 23.7272 5.31884
748 2 2.2208 5.19693 29.307 5.09263
749 1 -1.1104 1.07354 25.2516 1.09887
750 1 -1.1104 1.12932 30.8093 1.11253
753 1 -1.1104 1.03903 25.3553 4.00946
754 1 -1.1104 0.996503 30.8904 3.84079
757 2 2.2208 5.2067 26.583 2.3471
758 2 2.2208 5.28149 32.3081 2.38252
759 1 -1.1104 1.15574 22.4656 1.08888
760 1 -1.1104 1.10309 28.0333 1.00145
761 1 -1.1104 0.947149 33.5088 0.98556
765 1 -1.1104 1.04691 22.3439 4.08161
766 1 -1.1104 1.08443 28.1182 3.78127
767 1 -1.1104 1.23508 33.5011 3.68845
771 2 2.2208 2.32059 23.806 2.45661
772 2 2.2208 2.45617 29.4541 2.32968
773 1 -1.1104 3.79947 25.1395 0.823577
774 1 -1.1104 3.93409 30.8588 1.05347
775 1 -1.1104 3.75509 25.2259 3.66322
776 1 -1.1104 3.79943 30.8174 3.86003
778 2 2.2208 2.40062 26.6362 5.27287
779 2 2.2208 2.39717 32.2083 5.26248
780 1 -1.1104 3.85514 22.4694 1.07409
781 1 -1.1104 3.69569 27.9561 1.05499
782 1 -1.1104 3.82062 33.7307 1.06241
783 1 -1.1104 3.87348 22.3854 3.80526
784 1 -1.1104 3.82872 28.0176 3.81585
785 1 -1.1104 3.90886 33.6447 3.88872
747 2 2.2208 5.32532 29.3692 -0.423565
755 1 -1.1104 6.48553 25.1107 3.80372
839 1 -1.1104 3.80855 30.8461 6.75077
833 1 -1.1104 1.06809 28.0718 6.64988
756 1 -1.1104 6.60947 30.93 3.77527
751 1 -1.1104 6.6219 25.1325 1.04909
762 1 -1.1104 6.61246 22.2956 0.995338
787 2 2.2208 -0.304593 23.8921 5.28722
791 2 2.2208 5.2275 23.7422 -0.262578
1080 2 2.2208 2.4171 32.1962 -0.380142
777 2 2.2208 2.52872 26.654 -0.383577
763 1 -1.1104 6.53002 27.9638 1.02481
768 1 -1.1104 6.78637 22.4379 3.85141
764 1 -1.1104 6.72923 33.6451 1.02579
752 1 -1.1104 6.68553 30.821 1.05692
769 1 -1.1104 6.65363 27.9218 3.80003
770 1 -1.1104 6.68653 33.6112 3.8241
793 2 2.2208 10.851 23.7914 5.30451
794 2 2.2208 10.8684 29.2608 5.25076
795 1 -1.1104 12.1448 25.2099 1.02962
796 1 -1.1104 12.1781 30.6505 1.19717
797 1 -1.1104 12.25 25.0152 3.84339
798 1 -1.1104 12.3346 30.6806 3.93597
799 2 2.2208 10.7675 26.5529 2.42379
800 2 2.2208 11.0022 32.2345 2.48113
801 1 -1.1104 12.3283 22.3839 0.951049
802 1 -1.1104 12.1923 28.0123 1.03729
803 1 -1.1104 12.3586 33.6263 0.942682
804 1 -1.1104 12.2993 22.3039 3.86765
805 1 -1.1104 12.3206 27.8905 3.83472
806 1 -1.1104 12.219 33.5467 3.92111
807 2 2.2208 8.17895 23.6668 2.41423
808 2 2.2208 8.04681 29.445 2.39748
809 1 -1.1104 9.34075 25.2776 1.07211
810 1 -1.1104 9.45331 30.8231 1.15274
811 1 -1.1104 9.29153 25.0796 3.86333
812 1 -1.1104 9.47204 30.7738 4.00919
814 2 2.2208 8.04225 26.5898 5.15347
815 2 2.2208 8.05253 32.128 5.37891
816 1 -1.1104 9.42275 22.3979 1.01677
817 1 -1.1104 9.39224 28.0057 1.16089
818 1 -1.1104 9.45753 33.4742 1.27898
819 1 -1.1104 9.6933 22.3609 3.81661
820 1 -1.1104 9.44813 28.1306 3.90353
821 1 -1.1104 9.49471 33.5728 3.94118
904 1 -1.1104 9.54464 27.9139 6.58039
903 1 -1.1104 9.56977 22.4229 6.59406
822 2 2.2208 10.9197 23.7506 -0.342453
890 1 -1.1104 9.57883 30.6527 12.3642
889 1 -1.1104 9.48812 33.5477 12.2711
824 2 2.2208 13.6908 32.1386 5.28072
899 1 -1.1104 12.1802 33.7945 6.85029
1113 2 2.2208 8.0365 32.2179 -0.320052
843 2 2.2208 -0.372011 29.3067 10.7922
888 1 -1.1104 9.47229 22.4498 9.33374
841 1 -1.1104 3.69313 28.0557 6.6184
840 1 -1.1104 3.68771 22.4573 6.6267
828 1 -1.1104 0.953317 25.175 6.76716
829 1 -1.1104 0.9615 30.8294 6.62274
838 1 -1.1104 3.82894 25.1992 6.55571
919 1 -1.1104 12.2679 28.0077 12.2297
831 1 -1.1104 6.62488 30.6835 6.51423
882 2 2.2208 -0.300175 23.7123 10.9285
832 1 -1.1104 1.04785 22.5551 6.79133
842 1 -1.1104 3.88427 33.6862 6.70116
834 1 -1.1104 0.963681 33.6118 6.69291
844 2 2.2208 5.34528 23.7642 10.8603
845 2 2.2208 5.33721 29.2922 10.8647
846 1 -1.1104 0.963194 25.093 12.4563
847 1 -1.1104 1.09072 30.7222 12.2188
850 1 -1.1104 1.10699 25.1506 9.56791
851 1 -1.1104 1.10584 30.7121 9.47013
854 2 2.2208 5.2549 26.6453 7.87617
855 2 2.2208 5.2304 32.1797 8.02254
856 1 -1.1104 1.04334 22.2395 12.4186