ITEM: TIMESTEP
80000
ITEM: NUMBER OF ATOMS
18000
ITEM: BOX BOUNDS pp pp pp
-3.4688513585160596e-01 2.7686885135851067e+01
-4.1794612234442559e+00 3.3225946122344118e+02
-3.6064776860900677e-01 2.7700647768610086e+01
ITEM: ATOMS id type q x y z
1 2 2.2208 5.39129 1.32526 5.11364
2 2 2.2208 5.32565 7.04275 5.17111
3 1 -1.1104 0.97463 -2.88042 0.958093
5 1 -1.1104 1.04661 2.9468 1.02594
7 1 -1.1104 1.08776 8.3136 0.978307
15 1 -1.1104 1.11438 -2.77396 3.70624
16 1 -1.1104 1.09124 2.74816 3.81978
17 1 -1.1104 1.03969 8.24539 3.88691
21 2 2.2208 5.29787 -1.45717 2.40914
22 2 2.2208 5.31197 4.14087 2.38402
23 1 -1.1104 1.10856 0.160862 0.952814
25 1 -1.1104 0.978102 5.62287 0.892572
31 1 -1.1104 1.08901 0.0301827 3.84712
32 1 -1.1104 1.00635 5.45056 3.65695
35 2 2.2208 2.5931 1.33141 2.2958
36 2 2.2208 2.39222 6.98234 2.29836
37 1 -1.1104 3.8746 -2.91816 0.991932
39 1 -1.1104 4.01775 2.82254 0.966847
41 1 -1.1104 3.83097 8.19368 0.928611
43 1 -1.1104 3.92871 -2.92326 3.75565
44 1 -1.1104 4.01587 2.79683 3.7737
45 1 -1.1104 3.97057 8.33554 3.65791
46 2 2.2208 2.58576 -1.48283 5.08708
47 2 2.2208 2.46559 4.24084 5.24026
48 1 -1.1104 3.95325 0.00668731 0.979567
50 1 -1.1104 3.77779 5.54856 1.09384
52 1 -1.1104 3.84728 0.0433369 3.69698
53 1 -1.1104 3.72334 5.75246 3.90444
20 1 -1.1104 6.77541 8.39914 3.84538
56 2 2.2208 5.2851 6.87472 -0.362299
29 1 -1.1104 6.69362 5.45088 0.996767
19 1 -1.1104 6.72089 2.81705 3.68714
59 2 2.2208 -0.249969 4.08922 2.44153
30 1 -1.1104 6.70441 5.39211 6.57899
9 1 -1.1104 6.56262 -2.9537 0.95071
13 1 -1.1104 6.6309 8.3961 0.975143
49 1 -1.1104 3.92199 -0.186546 6.5049
51 1 -1.1104 3.98421 5.57923 6.67763
14 1 -1.1104 6.69237 8.46968 6.58652
61 2 2.2208 -0.319948 6.92586 5.221
58 2 2.2208 -0.374651 -4.28697 5.21079
65 2 2.2208 5.34906 -4.31676 5.1551
66 2 2.2208 2.5464 -4.30301 2.55372
57 2 2.2208 5.24693 1.40574 -0.421275
55 2 2.2208 2.58655 -1.40632 -0.407991
33 1 -1.1104 6.7201 -0.113551 3.83231
27 1 -1.1104 6.90323 -0.194052 1.12536
11 1 -1.1104 6.83947 2.67711 0.956832
118 2 2.2208 8.00726 -4.28581 2.38757
34 1 -1.1104 6.64231 5.68236 3.76071
18 1 -1.1104 6.63926 -2.93547 3.72005
69 2 2.2208 10.8602 1.23351 5.11247
70 2 2.2208 10.9743 6.98839 5.12731
71 1 -1.1104 12.3541 -2.96709 0.999674
73 1 -1.1104 12.2949 2.5799 1.05787
75 1 -1.1104 12.4286 8.20431 0.967291
77 1 -1.1104 12.3576 -2.95241 3.78276
78 1 -1.1104 12.4524 2.78924 3.70862
79 1 -1.1104 12.3343 8.58544 3.68755
80 2 2.2208 10.9501 -1.61474 2.33331
81 2 2.2208 10.9753 4.1143 2.48164
82 1 -1.1104 12.3925 -0.116982 0.887018
84 1 -1.1104 12.3544 5.47114 1.02838
86 1 -1.1104 12.2569 -0.137216 3.78627
87 1 -1.1104 12.3127 5.57042 3.87535
88 2 2.2208 8.17685 1.28897 2.40574
89 2 2.2208 8.05448 6.96097 2.34688
90 1 -1.1104 9.484 -2.87808 0.814464
92 1 -1.1104 9.67239 2.71648 1.00537
94 1 -1.1104 9.47733 8.30403 1.03094
96 1 -1.1104 9.60154 -3.00945 3.62105
97 1 -1.1104 9.49298 2.6376 3.83954
99 2 2.2208 8.14263 -1.50568 5.17039
100 2 2.2208 8.18204 4.11268 5.19326
101 1 -1.1104 9.66414 -0.00393737 0.94284
103 1 -1.1104 9.57413 5.4649 0.816556
105 1 -1.1104 9.57705 -0.14701 3.88094
106 1 -1.1104 9.52573 5.61124 3.73585
98 1 -1.1104 9.6411 8.4038 3.90781
114 2 2.2208 13.8598 4.24742 5.15315
95 1 -1.1104 9.49577 8.53198 6.6169
113 2 2.2208 13.7082 -1.38192 5.17199
112 2 2.2208 13.8027 6.94729 2.33263
109 2 2.2208 10.9914 6.81718 -0.303768
72 1 -1.1104 12.37 -2.83539 6.49836
91 1 -1.1104 9.54168 -2.88748 6.5621
85 1 -1.1104 12.2592 5.63694 6.56576
111 2 2.2208 13.7585 1.24817 2.36816
115 2 2.2208 13.6951 -1.39279 -0.532051
117 2 2.2208 13.8423 -4.30971 2.2801
119 2 2.2208 11.0174 -4.46955 5.23046
108 2 2.2208 8.06302 -1.46016 -0.505344
169 2 2.2208 5.34083 -4.19877 10.788
8 1 -1.1104 1.02656 8.1994 6.67417
170 2 2.2208 -0.259923 -4.27708 10.8437
167 2 2.2208 -0.428374 1.37545 10.8723
165 2 2.2208 -0.218717 6.88835 10.7479
38 1 -1.1104 3.88154 -3.02462 6.37844
26 1 -1.1104 1.08528 5.536 6.53926
6 1 -1.1104 1.1675 2.82969 6.67395
24 1 -1.1104 1.13282 -0.0532377 6.63279
40 1 -1.1104 3.92825 2.71445 6.59966
12 1 -1.1104 6.70459 2.71173 6.48285
4 1 -1.1104 1.1106 -3.02424 6.59638
42 1 -1.1104 3.93577 8.37804 6.46273
121 1 -1.1104 3.99077 5.66054 9.3752
122 2 2.2208 5.34094 1.36388 10.7317
123 2 2.2208 5.39408 7.02713 10.7749
124 1 -1.1104 1.02728 -2.8011 12.1784
125 1 -1.1104 0.903838 2.69084 12.3042
126 1 -1.1104 1.14269 8.39141 12.2929
130 1 -1.1104 1.10519 -3.10226 9.43404
131 1 -1.1104 1.03379 2.62149 9.43215
132 1 -1.1104 1.29368 8.28903 9.58601
136 2 2.2208 5.31688 -1.47213 7.99009
137 2 2.2208 5.29803 4.14773 8.00393
138 1 -1.1104 1.10711 -0.0183722 12.2039
139 1 -1.1104 1.22451 5.46378 12.3461
142 1 -1.1104 1.28815 -0.131141 9.35526
143 1 -1.1104 1.14121 5.57988 9.40049
146 2 2.2208 2.59755 1.29765 8.10394
147 2 2.2208 2.4039 6.87417 8.00712
148 1 -1.1104 3.93192 -2.79318 12.2536
149 1 -1.1104 3.88929 2.79815 12.266
150 1 -1.1104 3.95042 8.48727 12.1608
151 1 -1.1104 4.04127 -2.9324 9.3388
152 1 -1.1104 3.73365 2.78329 9.44699
153 1 -1.1104 3.90813 8.52448 9.24751
154 2 2.2208 2.57918 -1.35769 10.8191
155 2 2.2208 2.55289 4.20222 10.7933
156 1 -1.1104 4.03528 -0.0213032 12.0962
157 1 -1.1104 3.95721 5.63057 12.122
158 1 -1.1104 3.9888 -0.133877 9.31276
168 2 2.2208 2.39601 -4.47121 8.01743
145 1 -1.1104 6.80748 5.5692 9.41678
135 1 -1.1104 6.76011 8.25365 9.41259
141 1 -1.1104 6.79071 5.57789 12.2324
134 1 -1.1104 6.68531 2.80044 9.34653
159 2 2.2208 5.32692 -1.57693 13.4971
212 2 2.2208 8.25946 -4.22466 7.93864
198 2 2.2208 8.10651 6.9758 7.89977
181 1 -1.1104 12.4077 8.29476 12.189
174 1 -1.1104 9.78269 5.62855 12.1201
178 2 2.2208 8.16733 1.20618 7.98306
194 1 -1.1104 9.47622 8.37202 12.1228
185 1 -1.1104 12.3241 2.86424 11.9867
83 1 -1.1104 12.2007 -0.141196 6.54655
175 1 -1.1104 9.69824 -0.173759 12.1779
10 1 -1.1104 6.66221 -2.87496 6.47484
129 1 -1.1104 6.66149 8.35801 12.2666
128 1 -1.1104 6.74752 2.6695 12.1123
127 1 -1.1104 6.81456 -2.81646 12.2349
197 1 -1.1104 9.67153 -2.8735 12.3059
182 1 -1.1104 9.53914 8.27149 9.40112
186 1 -1.1104 12.4207 -2.85424 12.0404
195 1 -1.1104 9.60609 2.67804 12.1513
93 1 -1.1104 9.42394 2.62786 6.47428
210 2 2.2208 10.9186 -4.38067 10.7703
173 1 -1.1104 9.61052 -0.253625 9.44636
144 1 -1.1104 6.71252 -0.105239 9.28734
133 1 -1.1104 6.85387 -2.78319 9.39398
140 1 -1.1104 6.89824 -0.0616027 12.0962
28 1 -1.1104 6.80479 -0.112285 6.46503
190 2 2.2208 10.9928 1.28007 10.6472
188 1 -1.1104 12.4819 0.150694 12.1193
184 1 -1.1104 12.2559 -0.037331 9.26236
199 1 -1.1104 12.3707 8.32188 9.27941
102 1 -1.1104 9.3987 -0.143925 6.69365
104 1 -1.1104 9.53386 5.68074 6.38947
191 2 2.2208 10.9708 4.15898 7.80375
76 1 -1.1104 12.3132 8.25105 6.53821
172 1 -1.1104 9.4859 5.41181 9.18158
183 1 -1.1104 9.42278 2.79756 9.28637
187 1 -1.1104 12.4643 5.56378 12.2166
179 1 -1.1104 12.4485 5.50664 9.38781
207 2 2.2208 13.7061 7.02223 8.06083
196 2 2.2208 10.8981 -1.50799 7.89494
74 1 -1.1104 12.244 2.74438 6.45333
176 2 2.2208 8.25292 4.23137 10.814
177 2 2.2208 8.31096 -1.53589 10.8367
189 2 2.2208 10.9497 6.98827 10.7333
192 1 -1.1104 12.2042 2.72022 9.23975
180 1 -1.1104 12.3358 -2.89669 9.40098
193 1 -1.1104 9.682 -3.05433 9.32168
200 2 2.2208 11.0992 -1.42758 13.4808
202 2 2.2208 11.0055 4.17238 13.4039
293 2 2.2208 13.7912 -4.12753 13.6036
213 2 2.2208 8.14635 -4.18181 13.5383
214 2 2.2208 5.37176 1.42875 16.3656
215 2 2.2208 5.38326 6.95797 16.4182
216 1 -1.1104 1.03446 -2.76588 17.731
217 1 -1.1104 1.13983 2.83282 17.8001
218 1 -1.1104 0.947718 8.4119 17.9327
222 1 -1.1104 1.11811 -2.8087 14.8933
223 1 -1.1104 0.96665 2.7612 15.0815
224 1 -1.1104 1.17956 8.36575 14.9817
228 2 2.2208 5.328 -1.50606 19.2588
229 2 2.2208 5.32877 4.18925 19.2486
230 1 -1.1104 1.09576 0.13641 17.6234
231 1 -1.1104 1.18273 5.69553 17.7182
234 1 -1.1104 1.00159 -0.0024991 14.9794
235 1 -1.1104 0.988374 5.52896 15.113
238 2 2.2208 2.40216 1.33371 19.1173
239 2 2.2208 2.52223 7.00926 19.1586
240 1 -1.1104 3.89699 -2.73345 17.8255
241 1 -1.1104 4.01277 2.8053 17.7794
242 1 -1.1104 4.04989 8.36425 17.8033
243 1 -1.1104 4.01059 -2.90594 14.9364
244 1 -1.1104 3.95447 2.81619 15.0688
245 1 -1.1104 3.86669 8.38262 14.9924
246 2 2.2208 2.44162 -1.44428 16.2937
247 2 2.2208 2.53467 4.09193 16.4737
248 1 -1.1104 3.9594 0.03357 17.6866
249 1 -1.1104 3.9231 5.57093 17.8071
250 1 -1.1104 3.89741 -0.022085 14.9516
251 1 -1.1104 3.89725 5.71017 14.9689
233 1 -1.1104 6.74574 5.63099 17.8863
258 2 2.2208 -0.44975 -4.21313 16.429
160 2 2.2208 5.4104 4.18735 13.5586
256 2 2.2208 -0.450704 1.32981 16.4033
232 1 -1.1104 6.61072 -0.140015 17.8069
304 1 -1.1104 3.95048 -2.83122 20.5701
306 1 -1.1104 3.77948 8.35861 20.686
237 1 -1.1104 6.54607 5.67227 15.1327
254 2 2.2208 -0.341681 -1.46711 19.1525
259 2 2.2208 5.38565 -4.19948 16.3596
161 2 2.2208 2.36082 1.46965 13.571
300 1 -1.1104 1.06967 -0.114511 20.5514
296 1 -1.1104 0.916654 8.46285 20.6246
308 1 -1.1104 4.05457 5.53857 20.6214
257 2 2.2208 2.45794 -4.16953 19.1564
252 2 2.2208 2.39629 -4.26874 13.6086
255 2 2.2208 -0.497356 6.9531 16.3858
166 2 2.2208 -0.32199 4.23422 13.5996
171 2 2.2208 -0.350631 -1.43888 13.5971
253 2 2.2208 -0.366312 4.16853 19.215
162 2 2.2208 2.46323 6.92919 13.6683
236 1 -1.1104 6.62959 0.078309 14.8823
219 1 -1.1104 6.6266 -2.90677 17.7966
225 1 -1.1104 6.8765 -2.7307 15.0543
220 1 -1.1104 6.83874 2.58976 17.782
227 1 -1.1104 6.79684 8.43086 15.0348
221 1 -1.1104 6.96987 8.38368 17.7489
226 1 -1.1104 6.85054 2.95287 15.0409
260 2 2.2208 10.8946 1.27874 16.345
261 2 2.2208 10.8395 6.99716 16.415
262 1 -1.1104 12.1157 -2.81906 17.8827
263 1 -1.1104 12.3101 2.67772 17.9431
264 1 -1.1104 12.3197 8.15365 17.8764
265 1 -1.1104 12.3799 -2.76011 14.8535
266 1 -1.1104 12.2993 2.86615 14.8397
267 1 -1.1104 12.152 8.35017 14.9097
268 2 2.2208 10.8808 -1.36755 19.2765
269 2 2.2208 10.8619 4.1059 19.3057
270 1 -1.1104 12.1652 0.0108467 17.8386
271 1 -1.1104 12.3601 5.46226 17.6767
272 1 -1.1104 12.4452 0.0868276 15.0745
273 1 -1.1104 12.2684 5.55603 14.937
274 2 2.2208 8.09957 1.28096 19.1358
275 2 2.2208 8.15451 6.91872 19.1763
276 1 -1.1104 9.46373 -2.83947 17.7364
277 1 -1.1104 9.53293 2.59542 17.7384
278 1 -1.1104 9.51645 8.36356 17.8713
279 1 -1.1104 9.63594 -2.82688 15.0324
280 1 -1.1104 9.58848 2.60719 14.9743
281 1 -1.1104 9.59724 8.2508 14.9043
282 2 2.2208 8.09206 -1.44505 16.3433
283 2 2.2208 8.20577 4.19522 16.3969
284 1 -1.1104 9.4837 -0.190009 17.9892
285 1 -1.1104 9.49247 5.49204 17.7828
286 1 -1.1104 9.64574 -0.177939 14.9999
287 1 -1.1104 9.47534 5.43826 14.8519
291 2 2.2208 8.0855 -4.27028 19.1381
203 2 2.2208 8.15196 7.0427 13.628
383 1 -1.1104 9.36357 -0.0206959 20.6308
201 2 2.2208 8.16447 1.32982 13.498
298 1 -1.1104 6.71394 2.66505 20.5907
370 1 -1.1104 12.1301 2.64268 20.7533
371 1 -1.1104 12.4003 8.40587 20.7135
292 2 2.2208 10.9494 -4.24805 16.4746
381 1 -1.1104 9.35342 2.73195 20.5495
380 1 -1.1104 9.59703 -2.81736 20.6113
305 1 -1.1104 3.89163 2.67953 20.5995
348 2 2.2208 -0.314597 -1.40855 24.9017
301 1 -1.1104 1.07896 5.45042 20.5294
307 1 -1.1104 3.75463 -0.127979 20.3819
295 1 -1.1104 1.04836 2.73922 20.656
294 1 -1.1104 0.966032 -2.88172 20.3877
309 2 2.2208 5.3635 1.34452 22.0628
310 2 2.2208 5.2767 6.92046 22.007
311 1 -1.1104 1.13484 -2.75872 23.1877
312 1 -1.1104 1.11877 2.69169 23.5243
313 1 -1.1104 1.07366 8.21969 23.3808
317 1 -1.1104 1.25304 -2.80478 26.2093
318 1 -1.1104 1.0431 2.87213 26.3211
319 1 -1.1104 0.985325 8.32863 26.231
323 2 2.2208 5.31275 -1.47324 24.8565
324 2 2.2208 5.33448 4.24781 24.7928
325 1 -1.1104 1.00625 0.0386031 23.5743
326 1 -1.1104 1.07781 5.47679 23.3267
329 1 -1.1104 1.22656 -0.0720159 26.2623
330 1 -1.1104 1.29233 5.54915 26.0309
333 2 2.2208 2.62415 1.4444 24.7535
334 2 2.2208 2.53353 6.99641 24.8235
335 1 -1.1104 3.79029 -2.81147 23.472
336 1 -1.1104 3.94119 2.82304 23.4647
337 1 -1.1104 4.04965 8.29961 23.505
338 1 -1.1104 3.97227 -2.76464 26.2045
339 1 -1.1104 3.86737 2.70973 26.2197
340 1 -1.1104 3.93624 8.44003 26.212
341 2 2.2208 2.43792 -1.41768 21.9144
342 2 2.2208 2.55136 4.11355 22.0391
343 1 -1.1104 3.90371 -0.0763517 23.3358
344 1 -1.1104 3.83727 5.54884 23.4741
345 1 -1.1104 3.95499 0.0171875 26.2719
346 1 -1.1104 3.97934 5.6869 26.3965
322 1 -1.1104 6.71521 8.12662 26.292
353 2 2.2208 2.50335 -4.22898 24.7508
54 2 2.2208 2.47226 4.21509 27.6565
352 2 2.2208 -0.304672 -4.32675 21.938
347 2 2.2208 -0.339342 4.2052 24.7822
64 2 2.2208 -0.270958 1.37451 27.708
349 2 2.2208 -0.321597 6.96716 22.0039
350 2 2.2208 -0.194961 1.42685 22.0462
67 2 2.2208 5.28299 -4.3198 27.6143
387 1 -1.1104 9.63329 8.33485 23.4641
397 2 2.2208 8.09782 -4.26492 24.953
365 1 -1.1104 12.3801 5.40288 26.2793
107 2 2.2208 8.18863 4.09167 27.615
302 1 -1.1104 6.51463 -0.242893 20.9362
297 1 -1.1104 6.73986 -2.91692 20.6119
299 1 -1.1104 6.7179 8.49784 20.6595
314 1 -1.1104 6.52255 -2.79125 23.4454
332 1 -1.1104 6.74513 5.5262 26.2327
315 1 -1.1104 6.6698 3.01623 23.3954
331 1 -1.1104 6.61128 -0.0514487 26.3494
359 2 2.2208 8.09189 4.23619 22.0454
384 1 -1.1104 9.4576 5.62886 20.6225
363 1 -1.1104 12.1529 2.74039 23.5163
369 1 -1.1104 12.4366 -2.80767 20.5999
356 1 -1.1104 9.4999 5.59823 23.4971
376 1 -1.1104 12.3373 5.64683 23.408
379 1 -1.1104 12.289 8.19641 26.2645
320 1 -1.1104 6.75987 -2.87946 26.2836
321 1 -1.1104 6.70025 2.70793 26.1553
378 1 -1.1104 12.3695 8.28488 23.4361
372 1 -1.1104 12.1677 -2.95672 26.2386
390 1 -1.1104 9.42375 -3.07344 23.4231
367 2 2.2208 10.9395 6.92579 22.0029
388 2 2.2208 10.9291 4.22826 24.8748
316 1 -1.1104 6.81216 8.42355 23.4575
391 2 2.2208 10.7571 -1.57574 24.8735
360 2 2.2208 8.08003 -1.49043 22.1726
327 1 -1.1104 6.71638 0.0974384 23.7171
328 1 -1.1104 6.84522 5.7594 23.3728
389 1 -1.1104 9.37471 2.8021 23.4883
373 2 2.2208 10.7765 1.39574 22.1107
386 1 -1.1104 9.40919 -2.86412 26.1555
374 1 -1.1104 12.258 -0.049397 20.6197
382 1 -1.1104 9.67838 8.30876 20.6013
375 1 -1.1104 12.0951 5.44843 20.5112
303 1 -1.1104 6.68318 5.42618 20.5236
368 1 -1.1104 12.1142 -0.130747 26.2006
366 1 -1.1104 12.0654 -2.85272 23.3146
355 1 -1.1104 9.49647 -0.0776179 26.231
377 1 -1.1104 12.2751 -0.0204517 23.4937
364 2 2.2208 8.09346 1.36385 24.8613
354 1 -1.1104 9.58861 5.441 26.274
358 1 -1.1104 9.61999 -0.0498825 23.3433
357 2 2.2208 8.14273 6.96603 24.9338
362 1 -1.1104 12.3539 2.6851 26.1918
361 1 -1.1104 9.58907 8.33401 26.3373
385 1 -1.1104 9.62211 2.78554 26.3312
110 2 2.2208 10.971 1.2674 27.5482
116 2 2.2208 13.622 4.04861 27.6677
120 2 2.2208 10.8502 -4.32753 27.6928
398 2 2.2208 5.17597 12.5545 5.16104
399 2 2.2208 5.39817 18.1913 5.18096
400 1 -1.1104 1.28946 13.9096 1.02972
402 1 -1.1104 1.15387 19.6149 1.05869
406 1 -1.1104 1.26884 13.9139 3.85142
407 1 -1.1104 1.06867 19.5308 3.91196
410 2 2.2208 5.427 9.7268 2.35803
411 2 2.2208 5.39354 15.4688 2.33012
412 2 2.2208 5.38076 20.9502 2.4421
413 1 -1.1104 1.1599 11.2031 1.21502
415 1 -1.1104 1.14742 16.7756 1.01312
421 1 -1.1104 1.14423 11.1861 3.81814
422 1 -1.1104 1.15589 16.7423 3.65531
425 2 2.2208 2.65824 12.5156 2.46968
426 2 2.2208 2.52862 18.2004 2.49551
427 1 -1.1104 3.96674 13.8144 0.936862
429 1 -1.1104 3.86759 19.4949 1.03503
430 1 -1.1104 4.02339 13.9641 3.7238
431 1 -1.1104 3.90418 19.6762 3.72231
432 2 2.2208 2.54453 9.64318 5.2179
433 2 2.2208 2.61609 15.4569 5.13312
434 2 2.2208 2.61748 21.0007 5.17731
435 1 -1.1104 3.90246 11.0857 1.05667
437 1 -1.1104 3.73135 16.6115 0.918856
439 1 -1.1104 3.92922 11.04 3.83253
440 1 -1.1104 3.9449 16.8217 3.72628
444 2 2.2208 5.2882 18.0927 -0.368544
408 1 -1.1104 6.78097 14.0696 3.72925
417 1 -1.1104 6.81857 11.348 1.00437
419 1 -1.1104 6.77787 16.7581 0.981519
423 1 -1.1104 6.72906 11.1837 3.89546
443 2 2.2208 2.50194 9.84112 -0.275548
452 2 2.2208 -0.252357 12.5856 5.22403
442 2 2.2208 2.40596 15.1992 -0.479766
405 1 -1.1104 6.78347 19.6385 0.96682
403 1 -1.1104 6.86608 14.0135 0.991612
409 1 -1.1104 6.82354 19.6145 3.86157
424 1 -1.1104 6.65742 16.8118 3.77375
449 2 2.2208 -0.323792 18.1684 5.21423
416 1 -1.1104 1.16878 16.864 6.51475
498 1 -1.1104 3.98812 19.7212 6.56217
496 1 -1.1104 1.15593 19.6734 6.63434
446 2 2.2208 -0.270601 21.0363 2.40272
450 2 2.2208 -0.203162 18.073 -0.235505
494 2 2.2208 13.7656 15.3934 -0.275023
453 2 2.2208 10.9133 12.4839 5.23186
454 2 2.2208 10.889 18.0535 5.2033
455 1 -1.1104 12.3938 14.0097 1.13443
457 1 -1.1104 12.1935 19.5806 1.0297
458 1 -1.1104 12.432 13.868 3.91121
459 1 -1.1104 12.3967 19.5189 3.83587
460 2 2.2208 10.9272 9.83496 2.4635
461 2 2.2208 10.9934 15.2768 2.41026
462 2 2.2208 10.8584 20.7845 2.57085
463 1 -1.1104 12.3568 11.1582 1.12364
465 1 -1.1104 12.4323 16.7754 1.16132
467 1 -1.1104 12.3521 11.2736 3.99747
468 1 -1.1104 12.2361 16.7355 3.77437
469 2 2.2208 8.16687 12.6809 2.47942
470 2 2.2208 8.24312 18.0486 2.5255
471 1 -1.1104 9.55127 14.0156 0.910107
473 1 -1.1104 9.50713 19.4836 1.05276
474 1 -1.1104 9.58255 14.002 3.80066
475 1 -1.1104 9.49323 19.487 3.82352
476 2 2.2208 8.12518 9.78338 5.16026
477 2 2.2208 8.1046 15.2942 5.2356
478 2 2.2208 8.00223 21.0239 5.30433
479 1 -1.1104 9.56179 11.0526 0.950357
481 1 -1.1104 9.6822 16.7218 1.04098
483 1 -1.1104 9.52008 11.3063 3.8225
484 1 -1.1104 9.47054 16.7851 3.84545
486 2 2.2208 8.15952 15.3444 -0.434798
491 2 2.2208 13.6962 9.82498 5.19623
485 2 2.2208 8.04198 20.9393 -0.251856
488 2 2.2208 10.8593 18.1251 -0.484858
472 1 -1.1104 9.51996 13.9854 6.60174
490 2 2.2208 13.764 12.5829 2.50363
492 2 2.2208 13.6956 15.4217 5.25182
495 2 2.2208 13.69 20.8869 5.1833
9793 2 2.2208 13.8065 18.1798 2.40712
9794 2 2.2208 13.7062 21.055 -0.371555
436 1 -1.1104 3.79419 11.1134 6.50578
438 1 -1.1104 4.0971 16.7202 6.43679
401 1 -1.1104 1.11222 14.0584 6.59638
414 1 -1.1104 1.08572 11.0101 6.65419
420 1 -1.1104 6.82357 16.7984 6.63981
428 1 -1.1104 3.8811 13.9073 6.48155
499 2 2.2208 5.25927 12.6468 10.8658
500 2 2.2208 5.29215 18.1821 10.7652
501 1 -1.1104 1.01305 14.0903 12.1316
502 1 -1.1104 1.19008 19.6375 12.2675
505 1 -1.1104 1.11486 14.1179 9.221
506 1 -1.1104 0.938172 19.7408 9.31715
509 2 2.2208 5.26009 9.71926 7.94301
510 2 2.2208 5.28427 15.3718 7.9672
511 2 2.2208 5.16192 21.0805 8.08115
512 1 -1.1104 1.24734 11.3278 12.2961
513 1 -1.1104 1.03712 16.7281 12.1354
516 1 -1.1104 1.12468 11.2211 9.5748
517 1 -1.1104 1.05222 16.8821 9.43737
520 2 2.2208 2.40907 12.5757 7.99103
521 2 2.2208 2.45059 18.2983 8.03586
522 1 -1.1104 3.76415 14.0836 12.1005
523 1 -1.1104 3.85603 19.4764 12.1532
524 1 -1.1104 3.90238 14.0326 9.38871
525 1 -1.1104 3.89534 19.6356 9.42714
526 2 2.2208 2.58335 9.70398 10.8121
527 2 2.2208 2.43234 15.4334 10.7417
528 2 2.2208 2.45679 20.9791 10.7688
529 1 -1.1104 3.91137 11.2151 12.3706
530 1 -1.1104 3.8841 16.7687 12.1466
531 1 -1.1104 3.92735 11.2306 9.45404
532 1 -1.1104 3.77677 16.8147 9.28768
503 1 -1.1104 6.62871 14.0529 12.0908
519 1 -1.1104 6.65196 16.8447 9.43204
507 1 -1.1104 6.73886 14.029 9.37965
504 1 -1.1104 6.66083 19.4904 12.1347
404 1 -1.1104 6.61743 14.0918 6.46275
418 1 -1.1104 6.6755 11.2144 6.5927
515 1 -1.1104 6.63528 16.7745 12.2167
518 1 -1.1104 6.70981 11.2681 9.43119
508 1 -1.1104 6.73904 19.6134 9.33014
514 1 -1.1104 6.77043 11.2672 12.1583
536 2 2.2208 2.49871 12.6037 13.7899
533 2 2.2208 2.51562 18.1909 13.5842
584 2 2.2208 13.8 12.5926 7.9645
574 2 2.2208 13.8685 20.9631 10.7956
563 1 -1.1104 12.2752 19.4983 9.43812
558 2 2.2208 10.8752 20.8882 7.90586
557 1 -1.1104 12.3994 11.0528 12.2114
497 1 -1.1104 6.70882 19.58 6.68297
550 2 2.2208 8.03503 12.6309 7.96861
553 2 2.2208 8.10085 15.4661 10.7872
466 1 -1.1104 12.411 16.8361 6.63921
549 1 -1.1104 9.49809 11.2918 12.2289
566 1 -1.1104 9.49597 13.8556 9.36879
552 2 2.2208 8.05086 20.9664 10.8411
456 1 -1.1104 12.3843 13.9197 6.6276
567 1 -1.1104 9.47353 19.6071 12.1649
564 1 -1.1104 12.2807 13.9349 9.41786
570 2 2.2208 10.8584 12.5384 10.7339
572 1 -1.1104 12.3376 13.9374 12.1101
569 2 2.2208 8.03661 18.2518 8.09726
571 2 2.2208 10.798 18.2336 10.8434
554 2 2.2208 8.07399 9.73254 10.6788
547 1 -1.1104 9.48917 11.0953 9.39763
556 1 -1.1104 12.1527 16.8098 12.1138
562 2 2.2208 10.8922 9.76957 7.9368
551 1 -1.1104 12.157 16.7921 9.33879
565 1 -1.1104 9.46013 19.7012 9.50629
561 1 -1.1104 9.41295 19.4764 6.55809
480 1 -1.1104 9.43587 11.2574 6.46977
555 1 -1.1104 12.2461 11.0662 9.429
559 2 2.2208 10.8961 15.3243 7.96781
482 1 -1.1104 9.56346 16.6221 6.48543
548 1 -1.1104 9.3966 16.899 12.1439
573 1 -1.1104 12.432 19.6976 12.2516
560 1 -1.1104 12.1893 19.5114 6.57464
464 1 -1.1104 12.3187 11.1048 6.58109
546 1 -1.1104 9.4042 16.8373 9.29149
568 1 -1.1104 9.44917 14.0309 12.1564
580 2 2.2208 13.7692 9.84674 10.7566
575 2 2.2208 13.523 15.3799 10.706
585 2 2.2208 10.9172 21.0818 13.4807
586 2 2.2208 5.27196 12.5439 16.4509
587 2 2.2208 5.29747 18.1969 16.3907
588 1 -1.1104 0.969169 13.9211 17.8441
589 1 -1.1104 1.01678 19.5961 17.8326
592 1 -1.1104 1.28274 14.1418 15.0399
593 1 -1.1104 0.877023 19.7674 15.1439
596 2 2.2208 5.33273 9.76463 19.2453
597 2 2.2208 5.2921 15.4177 19.2356
598 2 2.2208 5.34296 20.9851 19.2745
599 1 -1.1104 1.18432 11.1966 17.8072
600 1 -1.1104 1.01518 16.762 17.9821
603 1 -1.1104 0.943038 11.2026 15.0767
604 1 -1.1104 1.0294 16.8671 15.0376
607 2 2.2208 2.33906 12.5527 19.2136
608 2 2.2208 2.48753 18.1922 19.2418
609 1 -1.1104 3.75445 13.9756 17.7942
610 1 -1.1104 4.0011 19.6481 17.7692
611 1 -1.1104 3.98973 13.9233 14.8854
612 1 -1.1104 3.76236 19.6136 15.0137
613 2 2.2208 2.45488 9.65353 16.52
614 2 2.2208 2.42993 15.4214 16.4593
615 2 2.2208 2.46383 20.9914 16.4082
616 1 -1.1104 3.88609 11.0518 17.8792
617 1 -1.1104 3.82124 16.7776 17.8318
618 1 -1.1104 3.829 11.1795 15.0851
619 1 -1.1104 3.83423 16.8065 15.0106
605 1 -1.1104 6.65816 11.2478 14.8776
595 1 -1.1104 6.59288 19.5661 14.9863
535 2 2.2208 5.28463 9.78478 13.6527
534 2 2.2208 5.24373 15.39 13.6186
602 1 -1.1104 6.72121 16.8446 17.6914
544 2 2.2208 5.24382 20.9883 13.6552
594 1 -1.1104 6.66871 13.9551 15.0057
601 1 -1.1104 6.72241 11.1932 17.8569
623 2 2.2208 -0.420467 12.5504 16.494
661 1 -1.1104 6.71027 19.4976 20.666
591 1 -1.1104 6.8456 19.6659 17.7463
590 1 -1.1104 6.5931 13.9773 17.8787
581 2 2.2208 13.6735 12.6314 13.475
583 2 2.2208 13.7227 18.1302 13.5136
606 1 -1.1104 6.68184 16.7844 14.9219
625 2 2.2208 10.9205 12.514 16.4339
626 2 2.2208 10.9165 18.1874 16.2893
627 1 -1.1104 12.2949 13.9703 17.7038
628 1 -1.1104 12.262 19.5881 17.8426
629 1 -1.1104 12.3591 13.9897 15.0067
630 1 -1.1104 12.3511 19.4413 15.1175
632 2 2.2208 10.9014 9.63826 19.2541
633 2 2.2208 10.929 15.3294 19.2547
634 2 2.2208 10.845 20.8717 19.1115
635 1 -1.1104 12.3022 10.9008 17.8405
636 1 -1.1104 12.2712 16.8637 17.7521
637 1 -1.1104 12.2911 11.2146 15.0476
638 1 -1.1104 12.1385 16.6579 14.8173
639 2 2.2208 8.16112 12.5981 19.2803
640 2 2.2208 8.13935 18.2697 19.1067
641 1 -1.1104 9.42229 14.077 17.7993
642 1 -1.1104 9.45496 19.6286 17.6601
643 1 -1.1104 9.46078 14.0179 15.0396
644 1 -1.1104 9.49039 19.6863 14.9878
646 2 2.2208 8.06264 9.86799 16.3231
647 2 2.2208 7.94063 15.4879 16.3815
648 2 2.2208 8.06367 21.0253 16.2441
649 1 -1.1104 9.51244 11.2276 17.8475
650 1 -1.1104 9.49906 16.7711 17.6904
651 1 -1.1104 9.63709 11.0023 15.009
652 1 -1.1104 9.36968 16.8035 14.9161
578 2 2.2208 10.8733 9.76085 13.5612
576 2 2.2208 8.00371 18.2331 13.5819
579 2 2.2208 8.09069 12.661 13.492
656 2 2.2208 13.6023 15.4882 16.3358
653 2 2.2208 13.7023 12.4747 19.2206
655 2 2.2208 13.6851 9.62596 16.4522
731 1 -1.1104 9.56532 11.2001 20.7657
727 1 -1.1104 12.2513 16.8284 20.6108
654 2 2.2208 13.7264 18.1838 19.1978
577 2 2.2208 10.7027 15.3567 13.5723
662 1 -1.1104 1.06298 11.2217 20.6627
663 1 -1.1104 1.00713 16.679 20.7592
705 2 2.2208 -0.194375 15.3437 24.7519
667 1 -1.1104 3.82516 19.6677 20.5125
668 1 -1.1104 3.89814 11.2789 20.5013
665 1 -1.1104 6.64743 16.8239 20.4251
658 1 -1.1104 1.0629 14.0658 20.7524
669 1 -1.1104 3.85463 16.8551 20.5534
659 1 -1.1104 0.944456 19.4623 20.7449
666 1 -1.1104 3.8079 14.0114 20.6057
670 2 2.2208 5.22715 12.5669 21.9251
671 2 2.2208 5.2162 18.1924 22.0249
672 1 -1.1104 1.17516 13.7719 23.4121
673 1 -1.1104 1.18865 19.6438 23.4826
676 1 -1.1104 1.06578 13.9849 26.2587
677 1 -1.1104 1.13224 19.5208 26.2667
680 2 2.2208 5.29873 9.66868 24.8762
681 2 2.2208 5.33616 15.3392 24.8376
682 2 2.2208 5.32049 20.892 24.982
683 1 -1.1104 1.06627 10.9302 23.5281
684 1 -1.1104 1.1128 16.547 23.4398
687 1 -1.1104 1.12651 11.0682 26.3525
688 1 -1.1104 1.09485 16.6874 26.2396
691 2 2.2208 2.56599 12.3988 24.8441
692 2 2.2208 2.48114 18.0993 24.8304
693 1 -1.1104 3.96025 13.9305 23.3825
694 1 -1.1104 3.91295 19.4811 23.4024
695 1 -1.1104 3.89778 13.8789 26.1784
696 1 -1.1104 3.96997 19.5056 26.3651
697 2 2.2208 2.42242 9.77579 21.9504
698 2 2.2208 2.56086 15.3281 22.0732
699 2 2.2208 2.47302 20.9271 22.057
700 1 -1.1104 3.936 11.0434 23.364
701 1 -1.1104 3.89315 16.7965 23.5157
702 1 -1.1104 3.83044 11.1917 26.2293
703 1 -1.1104 3.91083 16.6818 26.4135
690 1 -1.1104 6.66542 16.7115 26.2311
704 2 2.2208 -0.210546 21.0762 24.947
707 2 2.2208 -0.442146 18.1735 22.0852
674 1 -1.1104 6.76687 14.0639 23.4992
689 1 -1.1104 6.60588 11.0313 26.3334
708 2 2.2208 -0.410411 12.7551 22.0457
686 1 -1.1104 6.66187 16.7742 23.3985
445 2 2.2208 5.36112 12.5957 27.6426
441 2 2.2208 2.56505 20.849 27.6989
742 2 2.2208 13.681 18.118 24.9381
489 2 2.2208 10.9636 12.4702 27.8065
741 2 2.2208 13.7339 12.6214 24.9344
736 2 2.2208 8.10268 18.1683 24.7811
738 2 2.2208 10.9602 12.5835 22.0641
664 1 -1.1104 6.63223 11.1959 20.6945
660 1 -1.1104 6.67954 13.9389 20.6897
675 1 -1.1104 6.84797 19.4819 23.3869
685 1 -1.1104 6.7923 11.2207 23.5882
678 1 -1.1104 6.64547 13.9828 26.3437
724 2 2.2208 10.9289 15.2813 24.8069
735 1 -1.1104 9.46137 13.9663 23.3625
734 1 -1.1104 9.63921 19.4718 23.3846
645 1 -1.1104 9.5455 19.5456 20.5106
718 2 2.2208 11.0041 20.8532 24.8423
729 1 -1.1104 12.2838 11.1738 23.3983
739 2 2.2208 10.9215 18.1833 22.0533
733 1 -1.1104 9.3786 13.9951 26.0192
721 1 -1.1104 12.3291 11.0001 26.2275
717 2 2.2208 11.0719 9.76729 24.8165
710 1 -1.1104 9.5535 11.2944 26.4137
737 2 2.2208 8.11181 12.5322 24.7543
711 1 -1.1104 9.40578 16.7638 23.5081
740 1 -1.1104 12.3388 13.7932 23.4802
728 1 -1.1104 12.2972 19.5101 23.4257
719 1 -1.1104 12.3028 16.7922 26.3963
722 1 -1.1104 12.3837 14.0975 20.5408
732 1 -1.1104 9.50795 16.6347 20.5181
631 1 -1.1104 12.3462 19.5568 20.657
709 1 -1.1104 9.61181 16.7618 26.2838
715 2 2.2208 8.13002 9.73601 22.0845
723 1 -1.1104 12.2118 13.9274 26.3127
679 1 -1.1104 6.93459 19.5496 26.1013
726 1 -1.1104 12.3449 11.1602 20.6241
712 1 -1.1104 9.5751 11.1968 23.6
714 2 2.2208 8.09177 15.3739 22.0196
720 1 -1.1104 12.3973 19.5845 26.2855
713 2 2.2208 8.19638 20.9022 22.0471
725 1 -1.1104 12.2375 16.6635 23.5265
743 2 2.2208 13.6878 9.79033 22.0433
716 1 -1.1104 9.69848 19.5237 26.1316
730 1 -1.1104 9.52231 13.9422 20.5658
487 2 2.2208 8.20073 9.6569 27.6818
746 2 2.2208 5.28619 23.8788 5.18115
748 2 2.2208 5.37154 29.4095 5.05563
749 1 -1.1104 1.30841 25.0487 1.01373
750 1 -1.1104 1.15103 30.6725 1.03059
753 1 -1.1104 1.22331 25.3197 3.81084
754 1 -1.1104 1.23446 30.6364 3.91078
757 2 2.2208 5.39067 26.5783 2.35067
758 2 2.2208 5.24863 32.2856 2.36873
759 1 -1.1104 1.11674 22.2235 1.01744
760 1 -1.1104 1.17822 27.9299 1.1451
761 1 -1.1104 0.98614 33.5797 0.967175
765 1 -1.1104 1.0571 22.3878 3.81073
766 1 -1.1104 1.18054 28.0398 3.79806
767 1 -1.1104 1.08295 33.4689 3.6354
771 2 2.2208 2.51927 23.6686 2.48769
772 2 2.2208 2.51713 29.4043 2.48064
773 1 -1.1104 3.97203 25.0264 0.905197
774 1 -1.1104 3.90865 30.931 1.07863
775 1 -1.1104 3.9609 25.2587 3.68265
776 1 -1.1104 4.06978 30.8798 3.70727
778 2 2.2208 2.57915 26.7048 5.15601
779 2 2.2208 2.41183 32.2254 5.17769
780 1 -1.1104 3.84269 22.2216 0.992897
781 1 -1.1104 3.81901 28.1009 0.90871
782 1 -1.1104 3.84419 33.6827 1.08745
783 1 -1.1104 3.94345 22.4365 3.78849
784 1 -1.1104 3.9431 28.0083 3.80271
785 1 -1.1104 3.73107 33.6169 3.7315
755 1 -1.1104 6.78849 25.2263 3.8769
834 1 -1.1104 1.10738 33.7599 6.55638
756 1 -1.1104 6.77303 30.8024 3.78481
763 1 -1.1104 6.71804 27.9808 1.11901
828 1 -1.1104 1.05324 25.1122 6.63862
830 1 -1.1104 6.64668 25.209 6.75376
789 2 2.2208 -0.242986 29.2652 5.20996
777 2 2.2208 2.64387 26.4907 -0.3836
791 2 2.2208 5.22522 23.6622 -0.387246
1080 2 2.2208 2.52059 32.1771 -0.299204
762 1 -1.1104 6.66072 22.3303 1.06217
768 1 -1.1104 6.66674 22.3045 3.85644
764 1 -1.1104 6.7435 33.4603 0.864495
751 1 -1.1104 6.64858 25.1246 1.0626
752 1 -1.1104 6.7722 30.6643 0.951604
770 1 -1.1104 6.61999 33.6742 3.61553
769 1 -1.1104 6.81567 27.9472 3.89688
793 2 2.2208 10.8376 23.7898 5.17366
794 2 2.2208 10.8791 29.3635 5.21251
795 1 -1.1104 12.3553 25.248 0.974265
796 1 -1.1104 12.2146 30.6264 0.992804
797 1 -1.1104 12.3014 25.107 3.7262
798 1 -1.1104 12.3189 30.7977 3.8779
799 2 2.2208 10.8821 26.5255 2.44233
800 2 2.2208 10.9983 32.1131 2.46002
801 1 -1.1104 12.2766 22.4747 1.13406
802 1 -1.1104 12.2818 27.935 1.12757
803 1 -1.1104 12.445 33.3696 1.21547
804 1 -1.1104 12.4138 22.3258 3.84258
805 1 -1.1104 12.5668 27.9108 3.95219
806 1 -1.1104 12.3082 33.506 3.93142
807 2 2.2208 8.12426 23.732 2.49408
808 2 2.2208 8.17964 29.3687 2.44795
809 1 -1.1104 9.48038 25.1216 0.972363
810 1 -1.1104 9.51752 30.6729 1.00128
811 1 -1.1104 9.50705 25.1509 3.77519
812 1 -1.1104 9.50437 30.814 3.82086
814 2 2.2208 8.02367 26.5864 5.26244
815 2 2.2208 8.18744 32.2675 5.25248
816 1 -1.1104 9.42633 22.3049 0.929914
817 1 -1.1104 9.40225 27.7676 1.05569
818 1 -1.1104 9.56628 33.6205 1.02872
819 1 -1.1104 9.59046 22.3478 3.69811
820 1 -1.1104 9.69203 27.9115 3.95948
821 1 -1.1104 9.55383 33.5364 3.85794
822 2 2.2208 10.8879 23.8024 -0.35324
897 1 -1.1104 12.1022 22.2165 6.55771
1115 2 2.2208 11.0397 29.2697 -0.318116
1114 2 2.2208 13.7761 32.2799 -0.290275
823 2 2.2208 13.7771 26.5829 -0.306469
1113 2 2.2208 8.1921 32.0825 -0.292645
813 2 2.2208 8.09194 26.4086 -0.479352
884 2 2.2208 -0.378017 26.4807 8.04026
839 1 -1.1104 3.827 30.8064 6.54772
829 1 -1.1104 1.08992 30.9061 6.594
842 1 -1.1104 3.84322 33.7536 6.63061
831 1 -1.1104 6.57337 30.8986 6.54509