ITEM: TIMESTEP
50000
ITEM: NUMBER OF ATOMS
17910
ITEM: BOX BOUNDS pp pp pp
-4.0292977343936381e-01 2.7742929773439482e+01
-4.7292897388321231e+00 3.3280928973883613e+02
-3.9465199334023249e-01 2.7734651993339739e+01
ITEM: ATOMS id type q x y z
1 2 2.2208 5.08461 0.780945 5.10549
2 1 -1.1104 0.836962 -3.43483 0.900797
3 1 -1.1104 0.885036 2.03549 1.07377
6 1 -1.1104 1.09749 -3.03445 3.91418
7 1 -1.1104 0.881453 2.21535 4.05469
10 1 -1.1104 0.869873 -0.613236 1.15947
12 2 2.2208 5.28192 -1.998 2.41447
14 1 -1.1104 0.77829 -0.403875 3.95764
16 1 -1.1104 3.64441 -3.33375 1.10096
17 1 -1.1104 3.75203 2.31306 1.04008
18 2 2.2208 2.21529 0.889525 2.51798
19 1 -1.1104 3.69068 -3.28304 3.96179
20 1 -1.1104 3.71946 2.03043 3.87078
21 2 2.2208 2.4391 -1.74092 5.40521
22 2 2.2208 2.31123 3.63059 5.24369
23 1 -1.1104 3.57676 -0.469012 0.87247
24 1 -1.1104 3.74438 -0.65826 3.70734
13 2 2.2208 5.25355 3.61155 2.5413
11 1 -1.1104 6.647 -0.420904 1.01368
4 1 -1.1104 6.64595 -3.31655 1.06636
364 2 2.2208 5.10727 0.895501 -0.383478
366 2 2.2208 2.46117 3.66507 -0.263583
9 1 -1.1104 6.44579 2.17429 3.78209
5 1 -1.1104 6.53517 2.05609 1.1263
174 1 -1.1104 3.63488 -0.297753 6.54026
171 1 -1.1104 6.50791 -0.509869 6.60587
365 2 2.2208 2.48865 -1.87493 -0.484674
8 1 -1.1104 6.61297 -3.5006 3.87314
333 2 2.2208 13.5764 14.8631 10.891
369 2 2.2208 10.612 0.994392 -0.297231
15 1 -1.1104 6.66473 -0.497892 3.89432
31 2 2.2208 10.783 1.0123 5.2398
32 1 -1.1104 12.2156 -3.50753 0.959295
33 1 -1.1104 12.0599 2.04592 0.984344
34 1 -1.1104 12.1723 -3.51724 3.82213
35 1 -1.1104 12.3092 2.25094 3.94049
36 1 -1.1104 12.1061 -0.672522 1.34191
37 2 2.2208 10.7271 -1.93617 2.57028
39 1 -1.1104 12.1607 -0.481709 3.89747
40 1 -1.1104 9.3468 -3.23783 1.11556
41 1 -1.1104 9.28548 2.31542 1.11618
42 2 2.2208 7.9044 0.94899 2.43049
43 1 -1.1104 9.3595 -3.16917 4.0249
44 1 -1.1104 9.30053 2.34443 4.02332
45 2 2.2208 7.91257 -1.89703 5.18798
47 1 -1.1104 9.24663 -0.495327 0.934151
48 1 -1.1104 9.25723 -0.3427 3.83586
38 2 2.2208 10.7615 3.54994 2.67732
46 2 2.2208 7.94462 3.69672 5.30785
8441 2 2.2208 10.5775 -4.78876 11.0774
209 1 -1.1104 9.33151 2.16198 6.78866
206 1 -1.1104 12.0683 2.32222 6.71403
207 1 -1.1104 12.0991 -0.36794 6.72515
360 2 2.2208 10.7871 20.6784 13.5754
49 2 2.2208 13.6012 0.817022 2.51228
8432 2 2.2208 5.11235 -4.80227 5.1847
8440 2 2.2208 7.95107 -4.68677 8.20977
105 2 2.2208 13.5612 6.44805 2.56313
370 2 2.2208 8.05867 -1.87934 -0.34666
54 2 2.2208 5.30035 6.31716 5.148
55 2 2.2208 5.13523 11.9607 5.12711
56 1 -1.1104 0.991923 7.68111 0.963516
58 1 -1.1104 0.825813 7.78502 4.03653
60 1 -1.1104 1.04768 4.93977 1.13396
61 1 -1.1104 0.931208 10.4352 1.07238
66 2 2.2208 5.01817 9.34832 2.6036
67 1 -1.1104 0.84001 5.14671 3.80741
68 1 -1.1104 0.823953 10.6635 3.81213
71 1 -1.1104 3.8092 7.7457 1.17804
72 2 2.2208 2.3301 6.35932 2.47956
73 2 2.2208 2.22865 11.9837 2.39762
74 1 -1.1104 3.71058 7.58674 3.86241
75 2 2.2208 2.12241 9.2536 5.39659
76 1 -1.1104 3.7807 5.08559 1.22795
77 1 -1.1104 3.7303 10.5819 0.891073
79 1 -1.1104 3.73106 4.78033 3.98286
80 1 -1.1104 3.49529 10.5275 3.71349
239 1 -1.1104 3.79515 4.87068 6.71843
64 1 -1.1104 6.48719 10.6988 1.2278
59 1 -1.1104 6.51815 7.74187 3.79977
70 1 -1.1104 6.39827 10.6315 3.9723
69 1 -1.1104 6.59565 5.11001 3.7364
238 1 -1.1104 3.73366 7.74239 6.69604
104 2 2.2208 13.4972 12.2044 2.35376
57 1 -1.1104 6.48311 7.89086 0.957425
234 1 -1.1104 0.910204 7.79499 6.85523
65 1 -1.1104 6.54258 10.5652 6.60847
50 2 2.2208 13.5437 -1.95784 5.29829
379 2 2.2208 5.19388 6.46245 -0.212285
385 2 2.2208 7.97653 9.23412 -0.31637
63 1 -1.1104 6.48317 4.95987 1.1969
84 2 2.2208 10.8668 6.40978 5.30198
85 2 2.2208 10.8026 12.0922 5.29246
86 1 -1.1104 12.2759 7.86114 1.06021
87 1 -1.1104 12.1885 7.74209 3.98356
88 1 -1.1104 12.1726 4.92863 1.19522
89 1 -1.1104 12.1025 10.681 0.967487
91 2 2.2208 10.7609 9.43398 2.47193
92 1 -1.1104 12.0779 4.97804 3.98699
93 1 -1.1104 12.207 10.708 3.89784
94 1 -1.1104 9.51178 7.83589 1.00511
95 2 2.2208 8.04483 6.52423 2.43334
96 2 2.2208 7.94607 12.0537 2.5586
97 1 -1.1104 9.26053 8.00444 3.7203
98 2 2.2208 7.8472 9.08744 5.20173
99 1 -1.1104 9.2417 5.2416 0.956947
100 1 -1.1104 9.2979 10.6647 0.962524
102 1 -1.1104 9.31342 5.1292 3.88644
103 1 -1.1104 9.278 10.6058 3.88475
101 1 -1.1104 9.36897 10.4577 6.69768
267 1 -1.1104 9.34494 7.84287 6.36535
266 1 -1.1104 12.0634 5.08146 6.76592
269 1 -1.1104 9.39092 5.01609 6.78888
321 1 -1.1104 9.43671 19.1207 12.3183
106 2 2.2208 5.07975 17.661 5.03023
107 1 -1.1104 1.02661 13.4758 0.84565
109 1 -1.1104 0.897858 19.1422 0.989063
113 1 -1.1104 0.976074 13.5336 3.92735
114 1 -1.1104 1.10941 19.0846 3.91788
116 1 -1.1104 0.735798 16.2981 1.04753
119 2 2.2208 5.15103 14.8263 2.32241
120 2 2.2208 5.23682 20.4305 2.37883
121 1 -1.1104 0.860702 16.3871 3.7247
123 1 -1.1104 3.64944 13.3771 0.997319
125 1 -1.1104 3.7631 19.001 0.94598
127 2 2.2208 2.20817 17.5785 2.23732
128 1 -1.1104 3.81193 13.5049 3.75464
129 1 -1.1104 3.73131 19.1216 3.57089
130 2 2.2208 2.3601 14.9765 5.17508
131 2 2.2208 2.25987 20.58 5.16955
132 1 -1.1104 3.66928 16.2128 0.955437
134 1 -1.1104 3.59362 16.2791 3.69117
139 1 -1.1104 6.52948 18.9377 3.83983
115 1 -1.1104 6.50949 13.3355 3.64675
138 1 -1.1104 6.65108 19.0821 1.02495
126 1 -1.1104 3.72593 19.4215 6.42229
288 1 -1.1104 6.65094 19.0174 9.50243
330 1 -1.1104 11.9643 13.5131 12.4425
316 2 2.2208 8.00495 20.6849 10.8331
140 1 -1.1104 6.44145 16.247 1.02032
110 1 -1.1104 6.45488 13.7325 0.820461
112 1 -1.1104 6.6011 19.1162 6.81947
122 1 -1.1104 6.62239 16.3153 3.84066
141 2 2.2208 10.7488 17.8293 5.08402
142 1 -1.1104 11.9756 13.7459 0.791285
144 1 -1.1104 12.2047 19.2488 0.961727
146 1 -1.1104 12.2493 13.6429 3.74196
147 1 -1.1104 12.3571 19.0516 3.97112
148 1 -1.1104 12.3431 16.5415 1.046
150 2 2.2208 10.678 14.8649 2.45042
151 2 2.2208 10.8509 20.576 2.34822
152 1 -1.1104 12.0908 16.404 3.71842
153 1 -1.1104 9.32876 13.4878 1.08443
155 1 -1.1104 9.31802 18.9495 0.792695
157 2 2.2208 8.01499 17.7033 2.44487
158 1 -1.1104 9.50738 13.4708 3.79421
159 1 -1.1104 9.48885 19.2562 3.74576
160 2 2.2208 7.92547 14.8219 5.3086
161 2 2.2208 8.00682 20.6623 5.22759
162 1 -1.1104 9.36755 16.0804 0.986664
164 1 -1.1104 9.32421 16.3015 3.78874
143 1 -1.1104 12.0104 13.5273 6.71441
204 2 2.2208 13.5791 14.9848 5.24659
118 1 -1.1104 6.60141 16.2698 6.59716
231 2 2.2208 13.6933 20.6086 5.21443
165 2 2.2208 13.635 17.7149 2.47192
347 2 2.2208 7.9838 14.7026 -0.401124
326 1 -1.1104 12.1002 16.293 12.2478
8437 2 2.2208 2.12366 -4.71438 8.2039
172 1 -1.1104 3.66899 -3.21942 6.6675
166 1 -1.1104 0.920039 -3.41862 6.66065
169 1 -1.1104 6.41636 2.37612 6.53188
170 1 -1.1104 0.956409 -0.537362 6.69026
173 1 -1.1104 3.51109 2.33049 6.66091
167 1 -1.1104 0.756546 2.29226 6.75479
175 2 2.2208 5.04125 1.03657 10.9289
176 1 -1.1104 0.844031 -3.36038 12.1994
177 1 -1.1104 0.798899 2.29933 12.4215
180 1 -1.1104 0.796298 -3.15589 9.35466
181 1 -1.1104 0.867456 2.17901 9.51347
184 1 -1.1104 0.843022 -0.499594 12.2565
186 2 2.2208 5.2019 -1.9249 7.97031
187 2 2.2208 5.13592 3.48955 8.08127
188 1 -1.1104 0.928754 -0.312067 9.53138
190 1 -1.1104 3.62958 -3.46831 12.1492
191 1 -1.1104 3.6854 2.36659 12.3929
192 2 2.2208 2.32417 0.873468 8.0408
193 1 -1.1104 3.59208 -3.44952 9.44669
194 1 -1.1104 3.57625 2.11502 9.41934
195 2 2.2208 2.1635 -1.85458 10.7155
197 1 -1.1104 3.64799 -0.525422 12.3341
198 1 -1.1104 3.72101 -0.50133 9.28254
196 2 2.2208 2.3252 3.75182 10.9836
189 1 -1.1104 6.5203 -0.622849 9.47056
185 1 -1.1104 6.43853 -0.33794 12.4025
332 2 2.2208 13.5567 17.8797 8.09308
30 2 2.2208 -0.415518 9.23357 8.14556
202 2 2.2208 13.6113 6.55129 8.21221
290 1 -1.1104 6.42555 13.5422 9.33163
361 2 2.2208 10.6481 14.8757 13.5796
168 1 -1.1104 6.53333 -3.39734 6.7213
182 1 -1.1104 6.38327 -3.44428 9.52996
179 1 -1.1104 6.54761 2.39906 12.5347
183 1 -1.1104 6.50657 2.20857 9.56735
178 1 -1.1104 6.59846 -3.21355 12.3145
210 1 -1.1104 9.48021 -0.569554 6.44216
205 1 -1.1104 12.2965 -3.27605 6.68364
208 1 -1.1104 9.27377 -3.32944 6.78362
211 2 2.2208 10.6966 0.84167 10.7831
212 1 -1.1104 12.3011 -3.30854 12.4444
213 1 -1.1104 11.9163 2.24792 12.3627
214 1 -1.1104 12.3241 -3.19526 9.49329
215 1 -1.1104 12.2573 2.31233 9.60572
216 1 -1.1104 12.0396 -0.517605 12.1956
217 2 2.2208 10.8248 -1.82103 8.0224
218 2 2.2208 10.9038 3.66971 8.26165
219 1 -1.1104 12.1974 -0.540501 9.42661
220 1 -1.1104 9.29878 -3.46155 12.2337
221 1 -1.1104 9.26344 2.23286 12.1912
222 2 2.2208 7.82242 0.808961 7.99017
223 1 -1.1104 9.22934 -3.1347 9.62456
224 1 -1.1104 9.3728 2.29896 9.45693
225 2 2.2208 7.97673 -1.92494 10.8436
227 1 -1.1104 9.33461 -0.599034 12.2749
228 1 -1.1104 9.27108 -0.430047 9.13885
226 2 2.2208 7.83816 3.59371 11.0085
154 1 -1.1104 9.32263 13.2416 6.70888
78 1 -1.1104 3.63394 10.7188 6.39165
62 1 -1.1104 0.935612 10.5885 6.60517
237 1 -1.1104 6.5825 5.01976 6.54674
236 1 -1.1104 0.997057 5.0897 6.49499
240 2 2.2208 5.23241 6.41456 10.8363
241 2 2.2208 5.15138 11.9571 10.7172
242 1 -1.1104 0.959814 7.85584 12.3977
244 1 -1.1104 0.981193 7.97022 9.754
246 1 -1.1104 0.878147 5.04092 12.4139
247 1 -1.1104 0.934216 10.7356 12.2361
250 2 2.2208 5.11317 9.1746 7.85838
251 1 -1.1104 0.850437 5.06964 9.41783
252 1 -1.1104 0.964753 10.7918 9.30767
255 1 -1.1104 3.62799 8.10593 12.1937
256 2 2.2208 2.34614 6.24732 8.12337
257 2 2.2208 2.23764 12.2386 8.07869
258 1 -1.1104 3.78717 7.60922 9.3717
259 2 2.2208 2.22927 9.29844 10.9112
260 1 -1.1104 3.72792 5.1292 12.4905
261 1 -1.1104 3.82463 10.7252 12.368
262 1 -1.1104 3.74576 4.88576 9.53337
263 1 -1.1104 3.77916 10.4527 9.46419
249 1 -1.1104 6.57121 10.6385 12.3628
243 1 -1.1104 6.69437 7.7226 11.889
8442 2 2.2208 13.5885 -4.61873 8.19895
253 1 -1.1104 6.52783 5.03092 9.56181
254 1 -1.1104 6.63966 10.6911 9.60914
314 1 -1.1104 9.41243 16.1593 9.48577
322 1 -1.1104 9.22853 13.4755 12.2131
358 2 2.2208 4.923 20.4115 13.5331
233 2 2.2208 13.5756 3.66097 5.43089
235 1 -1.1104 6.5849 7.68431 6.66296
329 1 -1.1104 12.2413 19.2441 12.3454
265 1 -1.1104 12.344 8.01587 6.7895
156 1 -1.1104 9.26914 19.0448 6.62756
248 1 -1.1104 6.42077 5.00797 12.473
245 1 -1.1104 6.73838 7.7654 9.29181
90 1 -1.1104 12.1883 10.6589 6.62495
264 1 -1.1104 9.55727 10.391 9.51501
268 1 -1.1104 9.4256 4.96593 9.62615
270 1 -1.1104 9.2749 10.5604 12.495
271 1 -1.1104 9.31712 5.08171 12.3297
272 2 2.2208 8.08664 9.0371 10.7991
273 1 -1.1104 9.57062 7.72886 9.27509
274 2 2.2208 8.04219 11.7255 8.05708
275 2 2.2208 8.03626 6.43239 8.01007
276 2 2.2208 10.6234 6.35149 11.0276
277 2 2.2208 10.6602 12.0088 10.8102
278 1 -1.1104 12.0793 7.78351 12.2754
279 1 -1.1104 12.4214 8.13957 9.41579
280 1 -1.1104 12.166 5.07517 12.3391
281 1 -1.1104 12.1358 10.6455 12.359
282 2 2.2208 10.8644 9.14365 7.95349
283 1 -1.1104 12.1378 5.10966 9.56463
284 1 -1.1104 12.1733 10.8893 9.53651
285 1 -1.1104 9.36534 7.91748 12.3751
355 2 2.2208 10.855 9.31429 13.8459
323 1 -1.1104 12.2827 16.2716 9.37176
117 1 -1.1104 0.972024 16.3775 6.57293
108 1 -1.1104 0.931403 13.5933 6.69468
124 1 -1.1104 3.94286 13.5225 6.44847
317 2 2.2208 7.76756 14.8742 10.7377
289 1 -1.1104 6.62276 16.3183 9.34129
296 1 -1.1104 6.43304 19.223 12.1946
306 1 -1.1104 6.4733 16.2243 12.2875
302 1 -1.1104 0.974204 19.2713 6.62522
133 1 -1.1104 3.87791 16.3392 6.57131
310 2 2.2208 2.31823 15.0973 10.8439
294 1 -1.1104 0.847452 13.4772 9.49549
309 2 2.2208 2.28344 20.5758 10.7309
293 2 2.2208 5.20265 20.6984 7.80108
292 1 -1.1104 1.09601 16.2315 9.42719
300 2 2.2208 5.1454 17.7086 10.8055
308 1 -1.1104 3.7246 16.5188 12.143
299 1 -1.1104 0.691758 13.544 12.2406
307 1 -1.1104 0.953099 16.3793 12.1012
298 1 -1.1104 0.870771 19.1909 12.2796
303 2 2.2208 2.29768 17.8423 8.01444
305 1 -1.1104 3.65311 13.5389 9.36774
301 1 -1.1104 3.69643 19.1251 9.29691
295 2 2.2208 5.30134 14.8616 8.03231
304 1 -1.1104 3.77779 16.3496 9.49528
286 1 -1.1104 3.589 19.1618 12.0664
287 1 -1.1104 3.59401 13.6407 12.1975
291 1 -1.1104 0.765442 19.0508 9.59829
297 1 -1.1104 6.44544 13.2546 12.1981
81 2 2.2208 -0.355147 6.43848 5.29584
315 1 -1.1104 9.17901 16.318 12.1649
331 2 2.2208 10.7461 17.4655 10.6957
325 2 2.2208 10.7173 14.8577 8.0711
328 1 -1.1104 12.0669 13.5686 9.74078
320 2 2.2208 7.98131 17.7172 8.15648
324 2 2.2208 10.7363 20.6572 7.84701
145 1 -1.1104 12.3294 19.3666 6.68197
318 1 -1.1104 9.37698 18.9486 9.48032
149 1 -1.1104 12.1491 16.3443 6.6129
111 1 -1.1104 6.69533 13.1966 6.60629
327 1 -1.1104 12.3183 19.139 9.51575
163 1 -1.1104 9.42827 16.0786 6.56662
319 1 -1.1104 9.16088 13.3522 9.54366
53 2 2.2208 13.6057 12.1383 8.14408
350 2 2.2208 10.7853 3.6874 13.7255
230 2 2.2208 13.601 -1.91041 10.8101
338 2 2.2208 4.94694 -1.91594 13.7157
378 2 2.2208 13.6423 3.76132 -0.365536
346 2 2.2208 10.7376 -1.91288 13.6543
357 2 2.2208 2.21371 17.7947 13.5463
359 2 2.2208 5.09942 15.0051 13.5733
356 2 2.2208 7.91541 12.1158 13.6022
353 2 2.2208 2.13415 12.2423 13.7031
384 2 2.2208 10.7293 6.38215 -0.287433
386 2 2.2208 10.6926 11.9745 -0.340438
363 2 2.2208 13.5585 17.8339 13.7096
349 2 2.2208 7.92457 20.5069 -0.340321
372 2 2.2208 7.86152 3.54295 -0.350453
373 2 2.2208 2.35995 14.7219 -0.37964
387 2 2.2208 13.5236 9.16174 -0.370548
381 2 2.2208 5.18762 12.1944 -0.313371
380 2 2.2208 2.31987 9.18467 -0.371139
377 2 2.2208 13.3049 -1.91817 -0.365729
388 2 2.2208 5.07072 1.11874 16.5324
389 1 -1.1104 0.983195 -3.34105 17.949
390 1 -1.1104 0.769685 2.49932 17.8581
393 1 -1.1104 0.55937 -3.27414 15.1718
395 1 -1.1104 0.890722 2.34403 15.2423
401 1 -1.1104 0.851976 -0.53939 17.7118
403 2 2.2208 5.12781 -1.98658 19.2599
405 1 -1.1104 0.810554 -0.439788 15.1919
409 1 -1.1104 3.7574 -3.36634 17.7679
410 1 -1.1104 3.60831 2.45082 17.934
411 2 2.2208 2.16829 1.03517 19.1602
412 1 -1.1104 3.46949 -3.19172 15.0851
414 1 -1.1104 3.57065 2.15274 14.9719
416 2 2.2208 2.17848 -1.85335 16.4179
418 1 -1.1104 3.71485 -0.285896 17.7965
419 1 -1.1104 3.79787 -0.352304 15.1569
417 2 2.2208 2.246 3.77744 16.4949
404 2 2.2208 5.12423 3.81822 19.48
402 1 -1.1104 6.47589 -0.433183 18.0324
407 1 -1.1104 6.53722 -0.391075 15.2609
397 1 -1.1104 6.30946 -3.07676 15.2655
382 2 2.2208 -0.387628 12.1348 27.6699
399 1 -1.1104 6.49925 2.41593 15.1466
392 1 -1.1104 6.57845 2.37474 17.9677
391 1 -1.1104 6.68282 -3.18706 17.9709
396 1 -1.1104 0.715284 2.33677 20.8126
415 1 -1.1104 3.55012 2.30131 20.671
8586 2 2.2208 2.30383 -4.64928 19.341
8454 2 2.2208 7.87278 -4.67072 13.7114
422 2 2.2208 13.4941 9.1567 22.228
8553 2 2.2208 5.25034 -4.6236 22.1734
431 2 2.2208 10.8187 0.783713 16.4589
432 1 -1.1104 12.3782 -3.51698 17.9029
433 1 -1.1104 12.2167 2.30626 17.9163
434 1 -1.1104 12.1575 -3.45451 15.2022
436 1 -1.1104 12.2367 2.18925 15.1476
438 1 -1.1104 12.2353 -0.615078 17.9466
439 2 2.2208 10.7427 -1.893 19.31
441 1 -1.1104 12.1373 -0.738444 15.0703
443 1 -1.1104 9.56999 -3.40489 17.9328
444 1 -1.1104 9.40331 2.218 18.0103
445 2 2.2208 7.81069 0.998596 19.3157
446 1 -1.1104 9.29658 -3.25672 15.0813
448 1 -1.1104 9.29295 2.38609 15.1264
450 2 2.2208 7.85209 -1.85232 16.5515
451 2 2.2208 7.86415 3.75712 16.601
452 1 -1.1104 9.3061 -0.519684 17.9144
453 1 -1.1104 9.35503 -0.452046 15.1055
440 2 2.2208 10.6309 3.54353 19.2859
447 1 -1.1104 9.43873 -3.26475 20.7487
343 2 2.2208 7.91543 0.927989 13.9224
8556 2 2.2208 7.86699 -4.71316 19.3717
8622 2 2.2208 5.04349 -4.66821 16.3948
429 2 2.2208 13.639 3.80234 16.6068
464 2 2.2208 5.21464 6.54444 16.6175
465 2 2.2208 5.15411 12.3382 16.2815
466 1 -1.1104 0.965938 8.01011 18.0137
468 1 -1.1104 0.833678 7.82387 15.2645
472 1 -1.1104 0.766648 5.30307 18.0204
473 1 -1.1104 0.906991 10.7444 17.9194
476 2 2.2208 5.08306 9.39295 19.231
477 1 -1.1104 0.853169 5.12263 15.2644
479 1 -1.1104 0.935233 10.5498 15.0161
485 1 -1.1104 3.93236 8.11018 17.8149
486 2 2.2208 2.26729 6.47485 19.4518
487 2 2.2208 2.19797 12.0342 19.2661
488 1 -1.1104 3.60087 7.99674 15.1028
490 2 2.2208 2.31423 9.40781 16.4954
491 1 -1.1104 3.81323 5.19275 17.9082
492 1 -1.1104 3.5537 10.8135 17.979
493 1 -1.1104 3.68263 5.22501 15.199
495 1 -1.1104 3.77979 10.8784 15.1158
483 1 -1.1104 6.53883 10.7581 15.0143
474 1 -1.1104 6.48106 5.22493 18.1451
481 1 -1.1104 6.61926 5.24507 15.3424
470 1 -1.1104 6.51976 7.80337 14.9016
467 1 -1.1104 6.59531 7.94374 17.7875
475 1 -1.1104 6.33313 10.8483 17.722
645 2 2.2208 -0.447876 20.4922 25.0131
496 1 -1.1104 3.55477 10.6467 20.7253
469 1 -1.1104 0.950034 7.97862 20.7298
651 2 2.2208 13.5405 6.37671 19.2468
344 2 2.2208 13.4213 15.0537 27.8108
500 2 2.2208 10.75 6.44396 16.489
501 2 2.2208 10.8264 12.2928 16.6078
502 1 -1.1104 12.1268 7.89655 17.9463
503 1 -1.1104 12.1208 7.8597 15.0702
505 1 -1.1104 12.1068 5.09081 17.9889
506 1 -1.1104 12.0993 10.8506 18.2635
507 2 2.2208 10.6565 9.32102 19.3777
508 1 -1.1104 12.1418 5.03088 15.0823
510 1 -1.1104 12.0923 10.6046 15.0617
512 1 -1.1104 9.24691 7.83096 17.9354
513 2 2.2208 7.88099 6.6271 19.4314
514 2 2.2208 7.91824 12.1053 19.1768
515 1 -1.1104 9.31757 7.83778 15.1052
517 2 2.2208 7.94293 9.26759 16.4159
518 1 -1.1104 9.35362 4.95673 17.856
519 1 -1.1104 9.32043 10.5913 17.8469
520 1 -1.1104 9.38622 5.07026 15.0962
522 1 -1.1104 9.36588 10.7568 15.2659
426 2 2.2208 13.5336 9.36924 16.6874
710 2 2.2208 13.5447 6.404 25.0132
516 1 -1.1104 9.32032 7.86675 20.7949
511 1 -1.1104 12.3628 10.7822 20.8395
523 1 -1.1104 9.38707 10.699 20.6258
8517 2 2.2208 10.9175 -4.79654 22.1142
624 2 2.2208 -0.392694 -1.81645 24.8546
527 2 2.2208 5.09052 17.7729 16.3913
528 1 -1.1104 0.90341 13.5375 17.8343
529 1 -1.1104 0.780483 19.0341 17.9227
532 1 -1.1104 0.800325 13.5376 15.1817
534 1 -1.1104 0.840403 19.2489 15.0429
540 1 -1.1104 0.810206 16.4292 17.7932
542 2 2.2208 4.98455 15.0838 19.1044
543 2 2.2208 5.2562 20.461 19.2687
544 1 -1.1104 0.962694 16.4407 15.062
548 1 -1.1104 3.78567 13.4164 17.7625
549 1 -1.1104 3.63789 19.0916 17.8819
550 2 2.2208 2.20792 17.7313 19.2994
551 1 -1.1104 3.60666 13.7043 14.8913
553 1 -1.1104 3.54308 19.1552 14.9407
555 2 2.2208 2.39502 14.9152 16.4293
556 2 2.2208 2.23123 20.5723 16.37
557 1 -1.1104 3.81977 16.2594 17.7373
558 1 -1.1104 3.75988 16.3799 14.9752
552 1 -1.1104 3.6766 13.6192 20.5377
546 1 -1.1104 6.54088 16.631 14.9247
536 1 -1.1104 6.53106 13.6755 15.0112
538 1 -1.1104 6.38704 19.3102 15.031
531 1 -1.1104 6.52266 19.1673 17.8524
541 1 -1.1104 6.49701 16.4141 17.7375
530 1 -1.1104 6.37973 13.6433 17.9154
623 2 2.2208 -0.348625 17.6432 22.0923
619 2 2.2208 13.56 15.032 16.4776
618 2 2.2208 13.6732 17.769 19.3072
563 2 2.2208 10.8768 17.7047 16.3989
564 1 -1.1104 12.4652 13.4213 17.8533
565 1 -1.1104 12.1334 19.3492 17.573
566 1 -1.1104 12.1136 13.6775 15.1288
568 1 -1.1104 12.112 19.1753 15.0031
570 1 -1.1104 12.1434 16.3887 17.896
571 2 2.2208 10.7906 14.9494 19.1988
572 2 2.2208 10.8556 20.5235 19.3761
573 1 -1.1104 12.0998 16.4591 15.007
575 1 -1.1104 9.25701 13.5973 17.7889
576 1 -1.1104 9.49149 19.0877 17.9598
577 2 2.2208 8.06696 17.7588 19.2382
578 1 -1.1104 9.28757 13.4718 15.0075
580 1 -1.1104 9.38572 19.1741 14.9474
582 2 2.2208 7.83059 14.9988 16.336
583 2 2.2208 8.17556 20.5336 16.5966
584 1 -1.1104 9.32964 16.2221 18.1144
585 1 -1.1104 9.41706 16.3117 15.1171
569 1 -1.1104 12.2641 19.1961 20.8812
460 2 2.2208 13.6864 20.6516 16.6254
413 1 -1.1104 3.6705 -3.34012 20.7152
406 1 -1.1104 0.945211 -0.435403 20.6981
626 2 2.2208 -0.430596 3.66353 24.8922
398 1 -1.1104 6.42756 -3.27928 20.7595
394 1 -1.1104 0.916858 -3.34893 20.8133
420 1 -1.1104 3.53686 -0.510748 20.5779
591 2 2.2208 5.09425 0.911306 22.0993
592 1 -1.1104 1.06801 -3.2764 23.4766
593 1 -1.1104 0.984262 2.20991 23.5869
596 1 -1.1104 0.683876 -3.41184 26.1862
597 1 -1.1104 1.02043 2.29604 26.3375
600 1 -1.1104 1.05508 -0.570756 23.5524
602 2 2.2208 5.2 -1.99212 24.9414
603 2 2.2208 5.17175 3.66717 25.0176
604 1 -1.1104 1.07412 -0.544515 26.3156
606 1 -1.1104 3.90057 -3.39924 23.5012
607 1 -1.1104 3.65407 2.19919 23.4616
608 2 2.2208 2.4491 0.90044 24.9868
609 1 -1.1104 3.59373 -3.48126 26.431
610 1 -1.1104 3.79067 2.34073 26.2565
611 2 2.2208 2.38833 -1.89323 22.1007
613 1 -1.1104 3.86628 -0.571386 23.582
614 1 -1.1104 3.84337 -0.476656 26.1617
612 2 2.2208 2.22079 3.68804 22.3605
598 1 -1.1104 6.4607 -3.55069 26.5399
594 1 -1.1104 6.74525 -3.22585 23.6685
595 1 -1.1104 6.62203 2.34891 23.5982
400 1 -1.1104 6.55649 2.21332 20.8441
605 1 -1.1104 6.58596 -0.637932 26.4442
599 1 -1.1104 6.57139 2.35217 26.3995
437 1 -1.1104 12.2046 2.50766 20.8021
348 2 2.2208 10.7561 17.7197 27.6233
601 1 -1.1104 6.55501 -0.654702 23.6855
408 1 -1.1104 6.58992 -0.622644 20.677
454 1 -1.1104 9.42115 -0.519636 20.9028
435 1 -1.1104 12.2459 -3.52447 20.7117
449 1 -1.1104 9.45717 2.21873 20.776
442 1 -1.1104 12.1744 -0.659818 20.7695
627 2 2.2208 10.7986 0.750206 22.2058
628 1 -1.1104 12.1933 -3.37255 23.5022
629 1 -1.1104 12.1856 2.13165 23.5831
630 1 -1.1104 12.0896 -3.36506 26.2588
631 1 -1.1104 12.274 2.3265 26.3623
632 1 -1.1104 12.1169 -0.627924 23.3658
633 2 2.2208 10.709 -2.06923 24.8609
635 1 -1.1104 11.9513 -0.505438 26.4439
636 1 -1.1104 9.52814 -3.36696 23.3775
637 1 -1.1104 9.42941 2.21826 23.6486
638 2 2.2208 7.96809 0.741486 24.9858
639 1 -1.1104 9.32429 -3.30458 26.3752
640 1 -1.1104 9.43446 2.22722 26.4494
641 2 2.2208 8.14005 -1.9768 22.0996
643 1 -1.1104 9.38393 -0.675119 23.673
644 1 -1.1104 9.36838 -0.472515 26.327
634 2 2.2208 10.9674 3.55454 24.9036
642 2 2.2208 8.14862 3.67155 22.2962
654 2 2.2208 13.4663 0.892449 24.9074
653 2 2.2208 13.5405 -2.04343 21.9936
480 1 -1.1104 0.829996 10.7744 20.7932
494 1 -1.1104 3.69005 5.11256 20.9012
484 1 -1.1104 6.49962 10.7468 20.5145
489 1 -1.1104 3.72722 7.83901 20.5262
478 1 -1.1104 0.950651 5.16876 20.8347
482 1 -1.1104 6.56793 5.16107 20.9834
656 2 2.2208 5.22866 6.68896 22.2649
657 2 2.2208 5.10392 12.1845 21.8428
658 1 -1.1104 0.790312 7.80072 23.5324
660 1 -1.1104 0.788982 7.87463 26.1707
662 1 -1.1104 0.937591 5.20149 23.5998
663 1 -1.1104 0.624133 10.7004 23.393
666 2 2.2208 5.06573 9.17031 25.1372
667 1 -1.1104 1.09746 5.06645 26.2974
668 1 -1.1104 1.07903 10.6799 26.3884
671 1 -1.1104 3.69736 7.79443 23.6725
672 2 2.2208 2.27316 6.35047 25.1101
673 2 2.2208 2.39779 11.9168 24.8386
674 1 -1.1104 3.63592 7.87568 26.4153
675 2 2.2208 2.36092 9.25599 22.1998
676 1 -1.1104 3.78636 4.94622 23.8365
677 1 -1.1104 3.75365 10.6387 23.4571
678 1 -1.1104 4.01115 5.0698 26.66
679 1 -1.1104 3.73682 10.6194 26.218
665 1 -1.1104 6.40931 10.6901 23.4752
669 1 -1.1104 6.70916 5.20747 26.6502
661 1 -1.1104 6.49047 7.87093 26.1253
471 1 -1.1104 6.48691 7.98792 20.5836
664 1 -1.1104 6.62696 5.1156 23.7944
670 1 -1.1104 6.36635 10.5868 26.4096
659 1 -1.1104 6.68163 7.9391 23.396
8623 2 2.2208 -0.549149 -4.71568 16.5361
708 2 2.2208 13.442 12.1173 24.9596
504 1 -1.1104 12.119 8.01541 20.8996
509 1 -1.1104 12.2095 5.3594 21.0561
521 1 -1.1104 9.29201 5.09629 20.6171
687 1 -1.1104 9.32269 10.7205 26.2523
688 1 -1.1104 9.59356 5.04011 26.27
689 1 -1.1104 9.26492 10.6843 23.4012
690 1 -1.1104 9.46956 5.13909 23.5526
691 2 2.2208 7.93356 9.38997 22.0687
692 1 -1.1104 9.33861 7.93986 26.3055
693 2 2.2208 7.98032 12.1292 24.8692
694 2 2.2208 7.977 6.49739 25.0809
695 2 2.2208 10.6542 6.56907 22.1766
696 2 2.2208 10.7021 12.1093 22.1729
697 1 -1.1104 12.054 7.82904 23.7428
698 1 -1.1104 12.038 8.00723 26.4953
699 1 -1.1104 12.3534 5.04608 23.6663
700 1 -1.1104 12.1199 10.6727 23.6445
701 2 2.2208 10.5536 9.42695 25.0212
702 1 -1.1104 12.1958 5.08318 26.5622
703 1 -1.1104 12.0308 10.7599 26.4321
704 1 -1.1104 9.24819 7.94166 23.3936
425 2 2.2208 -0.415958 -1.96781 19.362
423 2 2.2208 13.731 3.72049 22.1454
428 2 2.2208 13.6321 0.77075 19.3352
535 1 -1.1104 1.15956 19.1363 20.6666
539 1 -1.1104 6.74176 19.2149 20.6698
537 1 -1.1104 6.49003 13.4824 20.5364
588 1 -1.1104 6.71647 19.0871 26.0961
533 1 -1.1104 0.93175 13.5048 20.8126
709 1 -1.1104 6.63139 13.4601 23.3557
559 1 -1.1104 3.76599 16.3794 20.4541
554 1 -1.1104 4.03408 19.115 20.7579
545 1 -1.1104 0.917205 16.3072 20.6609
680 1 -1.1104 6.49907 16.3186 23.4378
720 2 2.2208 5.14417 14.7693 24.8385
719 2 2.2208 5.34241 20.5821 24.9056
717 1 -1.1104 1.14139 13.4421 26.143
647 2 2.2208 2.29062 14.7938 22.0772
649 2 2.2208 2.34614 20.3435 22.225
652 1 -1.1104 3.93607 16.2748 23.4222
655 1 -1.1104 1.02136 16.2333 23.5349
681 1 -1.1104 3.8369 13.4311 26.1781
682 1 -1.1104 3.82574 16.1723 26.1939
683 2 2.2208 2.50858 17.669 24.772
686 1 -1.1104 4.01229 19.0681 26.2647
705 2 2.2208 5.26613 17.7073 22.0225
706 1 -1.1104 0.903963 13.3398 23.5031
707 1 -1.1104 1.01139 19.0012 23.6785
711 1 -1.1104 3.96803 19.1363 23.4481
713 1 -1.1104 3.74957 13.513 23.3954
715 1 -1.1104 1.04452 19.0104 26.452
716 1 -1.1104 0.961898 16.1997 26.2755
714 1 -1.1104 6.61667 16.2465 26.3994
712 1 -1.1104 6.72594 13.3721 26.2879
718 1 -1.1104 6.76085 19.071 23.4188
547 1 -1.1104 6.5462 16.2971 20.5698
587 2 2.2208 7.94042 17.517 24.9612
339 2 2.2208 2.18868 0.825553 13.6696
615 2 2.2208 7.86594 14.8442 21.963
455 2 2.2208 13.7161 17.7035 24.748
586 1 -1.1104 9.37299 16.1667 20.8764
579 1 -1.1104 9.13922 13.4116 20.5475
581 1 -1.1104 9.58217 19.0501 20.6281
560 1 -1.1104 12.0998 16.3109 26.077
526 2 2.2208 10.904 20.6522 24.9087
561 1 -1.1104 9.43065 13.5027 23.5055
620 1 -1.1104 9.30554 16.2422 26.2817
430 2 2.2208 13.4447 14.804 22.1122
463 1 -1.1104 12.0871 13.4862 23.3377
567 1 -1.1104 12.1117 13.458 20.5794
498 1 -1.1104 12.0309 13.5246 26.2796
462 2 2.2208 10.7307 17.7796 22.1306
617 1 -1.1104 9.16533 16.2534 23.4968
589 1 -1.1104 9.37885 13.3923 26.3682
524 1 -1.1104 12.0108 16.3955 23.4541
590 1 -1.1104 9.48895 19.0219 26.0409
497 1 -1.1104 12.2967 19.1791 23.6357
574 1 -1.1104 12.1094 16.3674 20.663
562 1 -1.1104 9.51093 19.0436 23.4048
525 2 2.2208 10.6038 14.9421 24.8397
616 2 2.2208 8.19981 20.4917 22.0979
499 1 -1.1104 12.3738 18.8975 26.314
459 2 2.2208 13.5266 -2.0815 16.5101
374 2 2.2208 5.18569 17.6901 27.6775
362 2 2.2208 7.94131 17.8979 13.6732
375 2 2.2208 2.43737 20.5413 27.6914
376 2 2.2208 13.4673 12.2184 13.9587
351 2 2.2208 2.23453 6.49165 13.7984
354 2 2.2208 7.99545 6.41265 13.7848
336 2 2.2208 13.5401 6.51867 13.8211
341 2 2.2208 5.08346 3.79745 13.8963
340 2 2.2208 13.4934 0.857177 13.6756
352 2 2.2208 5.10141 9.35475 13.6599
721 2 2.2208 5.2345 23.5721 5.2227
722 2 2.2208 5.1535 28.9452 5.15687
723 1 -1.1104 0.976235 24.6854 0.970278
724 1 -1.1104 0.843424 24.879 3.79948
725 1 -1.1104 1.02365 21.7946 0.96531
726 1 -1.1104 0.935992 27.4524 0.914082
727 2 2.2208 5.22999 26.1687 2.37851
728 1 -1.1104 0.906644 22.0742 3.73259
729 1 -1.1104 0.93471 27.6406 3.76365
730 1 -1.1104 3.85827 24.6434 0.843065
731 2 2.2208 2.4139 23.3561 2.40055
732 2 2.2208 2.39821 28.9773 2.41207
733 1 -1.1104 3.73331 24.8255 3.72958
734 2 2.2208 2.3049 26.1915 5.42412
735 1 -1.1104 3.66496 21.6972 1.21287
736 1 -1.1104 3.7284 27.6645 1.04154
737 1 -1.1104 3.78811 22.1166 4.03622
738 1 -1.1104 3.80674 27.6495 3.84709
865 1 -1.1104 0.887147 27.6774 6.55421
868 1 -1.1104 3.70315 24.83 6.64267
864 1 -1.1104 0.874491 22.0787 6.41322
746 1 -1.1104 6.5618 21.8819 3.85694
744 1 -1.1104 6.64652 21.9546 0.918885
742 1 -1.1104 6.59374 24.694 0.876596
866 1 -1.1104 6.53028 22.1119 6.62003
743 1 -1.1104 6.49757 24.6315 3.74412
1679 1 -1.1104 12.3297 47.3464 9.68388
1092 2 2.2208 13.6212 25.9989 -0.476643
747 1 -1.1104 6.67076 27.4774 3.65451
745 1 -1.1104 6.41772 27.3846 0.836109
748 2 2.2208 10.8357 23.5027 5.14986
749 2 2.2208 10.8356 29.0349 5.1152
750 1 -1.1104 12.3924 24.8123 1.04046
751 1 -1.1104 12.1968 24.7514 3.77832
752 1 -1.1104 12.4075 22.0486 1.06966
753 1 -1.1104 12.2824 27.5462 0.987432
754 2 2.2208 10.6734 26.229 2.41793
755 1 -1.1104 11.995 21.9644 3.92951
756 1 -1.1104 12.2583 27.5212 3.74391
757 1 -1.1104 9.35105 24.8176 1.0348
758 2 2.2208 7.99826 23.4756 2.45426
759 2 2.2208 8.08483 28.9918 2.35111
760 1 -1.1104 9.27956 24.9154 3.79582
761 2 2.2208 7.89512 26.1719 5.1976
762 1 -1.1104 9.53042 21.9884 0.962957
763 1 -1.1104 9.274 27.5744 0.937597
764 1 -1.1104 9.14179 21.9276 3.69358
765 1 -1.1104 9.39319 27.7302 3.74519
900 1 -1.1104 9.36882 27.7469 6.52905
896 1 -1.1104 12.2725 21.9961 6.65206
898 1 -1.1104 9.31312 24.7778 6.5457
899 1 -1.1104 9.57476 22.0271 6.40913
897 1 -1.1104 12.2907 27.6516 6.60113
1037 2 2.2208 13.6309 43.0167 10.9461
766 2 2.2208 13.6608 23.3768 2.43297
1670 1 -1.1104 12.2466 47.2053 6.7469
1042 2 2.2208 13.6063 29.0542 8.1487
1022 1 -1.1104 12.1652 44.5225 9.47666
769 2 2.2208 5.08459 34.6137 5.14775
770 1 -1.1104 0.94885 30.2294 1.20965
771 1 -1.1104 1.10744 35.8094 0.919607
773 1 -1.1104 0.841365 30.2762 3.9083
774 1 -1.1104 0.955462 36.0368 3.64898
776 1 -1.1104 0.844213 33.0066 0.830641
777 2 2.2208 5.25569 31.8348 2.5357
778 2 2.2208 5.14654 37.3426 2.46981
779 1 -1.1104 1.00166 33.1632 3.7636
781 1 -1.1104 3.74429 30.5827 0.950192
782 1 -1.1104 3.89944 36.1797 0.914283
783 2 2.2208 2.31427 34.5541 2.30324
784 1 -1.1104 3.82936 30.6225 3.8431
785 1 -1.1104 3.56437 35.931 3.6886
786 2 2.2208 2.29651 31.8344 5.37698
787 2 2.2208 2.39538 37.3198 5.27966
788 1 -1.1104 3.81209 33.3327 0.869465
789 1 -1.1104 3.77863 33.1912 3.80675
919 1 -1.1104 0.973113 30.6076 6.78354
927 1 -1.1104 3.65118 33.2372 6.75224
772 1 -1.1104 6.62261 36.114 0.997071
775 1 -1.1104 6.54033 35.9063 3.69398
794 1 -1.1104 6.67784 30.2837 3.88168
924 1 -1.1104 6.43907 33.1953 6.62527
1048 2 2.2208 13.6348 37.5018 11.0017
1687 1 -1.1104 9.54913 47.2449 12.2807
1484 1 -1.1104 11.857 47.1392 1.1021
780 1 -1.1104 6.51637 33.0798 3.94101
793 1 -1.1104 6.60081 30.2359 0.950318
795 1 -1.1104 6.75264 33.282 0.935586
796 2 2.2208 10.8065 34.5975 5.14971
797 1 -1.1104 12.3571 30.4285 0.82132
798 1 -1.1104 12.1864 36.0481 1.04685
799 1 -1.1104 12.0856 30.3943 3.69014
800 1 -1.1104 12.1422 36.0071 3.77024
801 1 -1.1104 12.253 33.2203 1.0005
802 2 2.2208 10.9277 31.717 2.28168
803 2 2.2208 10.8431 37.4493 2.32644
804 1 -1.1104 12.2092 33.3437 3.66806
805 1 -1.1104 9.52421 30.3782 1.02395
806 1 -1.1104 9.43579 35.8995 1.0674
807 2 2.2208 8.08913 34.7893 2.34825
808 1 -1.1104 9.32661 30.5638 3.77514
809 1 -1.1104 9.24554 36.0963 3.8468