ITEM: TIMESTEP
10000
ITEM: NUMBER OF ATOMS
17910
ITEM: BOX BOUNDS pp pp pp
-3.9524327711784890e-01 2.7735243277118080e+01
-4.7573979261119694e+00 3.3283739792611630e+02
-4.0366268971454894e-01 2.7743662689714366e+01
ITEM: ATOMS id type q x y z
1 2 2.2208 5.17042 0.998669 5.36239
2 1 -1.1104 0.865191 -3.39452 0.904247
3 1 -1.1104 0.83043 2.37662 1.13454
6 1 -1.1104 0.972659 -3.26612 3.74437
7 1 -1.1104 0.740235 2.47539 3.94424
10 1 -1.1104 0.79075 -0.537492 1.13535
12 2 2.2208 5.16425 -1.86569 2.54268
13 2 2.2208 5.10916 3.72932 2.43939
14 1 -1.1104 0.970932 -0.464041 3.95188
16 1 -1.1104 3.77622 -3.18576 1.07331
17 1 -1.1104 3.72505 2.35981 1.14261
18 2 2.2208 2.14951 0.824134 2.50408
19 1 -1.1104 3.88192 -3.04054 4.05392
20 1 -1.1104 3.64231 2.5098 3.86476
21 2 2.2208 2.32194 -1.8408 5.41597
22 2 2.2208 2.04447 3.83911 5.41207
23 1 -1.1104 3.56727 -0.465293 1.11754
24 1 -1.1104 3.9255 -0.330749 3.97463
8 1 -1.1104 6.59804 -3.31228 3.84129
5 1 -1.1104 6.60089 2.40913 1.1199
11 1 -1.1104 6.54043 -0.242342 0.893694
9 1 -1.1104 6.56994 2.41493 4.03358
4 1 -1.1104 6.55096 -3.16263 0.9303
8434 2 2.2208 7.73862 -4.75718 2.42599
369 2 2.2208 10.7712 0.991338 -0.379255
50 2 2.2208 13.3256 -1.99832 5.13955
8440 2 2.2208 7.87553 -4.79128 8.09023
365 2 2.2208 2.31697 -1.84766 -0.358543
15 1 -1.1104 6.65141 -0.438461 3.70246
31 2 2.2208 10.9052 0.980115 5.27247
32 1 -1.1104 12.2032 -3.25193 1.10166
33 1 -1.1104 12.2704 2.19253 1.04762
34 1 -1.1104 12.0766 -3.44492 3.85042
35 1 -1.1104 12.0999 2.39894 3.79192
36 1 -1.1104 12.0215 -0.431187 1.10782
37 2 2.2208 10.7738 -1.84995 2.44861
38 2 2.2208 10.7412 3.64101 2.39288
39 1 -1.1104 11.9809 -0.50869 3.96999
40 1 -1.1104 9.25769 -3.12942 1.06052
41 1 -1.1104 9.31347 2.34568 0.972006
42 2 2.2208 7.894 1.02591 2.45755
43 1 -1.1104 9.37413 -3.28979 3.95303
44 1 -1.1104 9.4771 2.46603 3.82272
45 2 2.2208 8.02724 -1.90513 5.10617
46 2 2.2208 7.91972 3.82275 5.27206
47 1 -1.1104 9.22021 -0.453646 1.17936
48 1 -1.1104 9.37531 -0.472331 3.98729
383 2 2.2208 -0.408152 6.64971 -0.487112
165 2 2.2208 13.5007 17.8245 2.39082
8435 2 2.2208 10.6802 -4.79114 5.31521
53 2 2.2208 13.4948 11.8987 7.98583
313 2 2.2208 -0.485053 15.0834 7.94608
366 2 2.2208 2.38604 3.73932 -0.416192
208 1 -1.1104 9.25746 -3.38749 6.81741
332 2 2.2208 13.5404 17.719 8.07425
51 2 2.2208 -0.568746 12.2331 10.872
54 2 2.2208 5.04901 6.63779 5.08931
55 2 2.2208 4.95951 12.3005 5.04751
56 1 -1.1104 0.863035 8.20487 0.978499
58 1 -1.1104 0.891172 8.21787 3.78152
60 1 -1.1104 0.998492 5.24266 1.02844
61 1 -1.1104 0.737787 10.9006 1.05041
66 2 2.2208 4.91728 9.54065 2.32003
67 1 -1.1104 0.941631 5.30219 3.87316
68 1 -1.1104 0.682493 10.9348 3.79894
71 1 -1.1104 3.6326 7.78135 1.08947
72 2 2.2208 2.30651 6.69865 2.47444
73 2 2.2208 2.09643 12.2266 2.27017
74 1 -1.1104 3.62897 8.0962 3.75152
75 2 2.2208 2.28264 9.39498 5.18998
76 1 -1.1104 3.72571 5.13531 1.1625
77 1 -1.1104 3.57957 10.7619 0.973494
79 1 -1.1104 3.71514 5.27758 3.91844
80 1 -1.1104 3.4673 10.7836 3.79386
59 1 -1.1104 6.27661 7.88392 3.74502
63 1 -1.1104 6.58295 5.20011 1.08274
69 1 -1.1104 6.49707 5.24649 3.80912
235 1 -1.1104 6.473 8.03528 6.65017
28 2 2.2208 13.775 20.5341 10.8331
70 1 -1.1104 6.38184 10.6718 3.64786
234 1 -1.1104 0.773915 8.11275 6.72659
62 1 -1.1104 0.808841 10.6873 6.70123
231 2 2.2208 13.6584 20.5032 5.23139
288 1 -1.1104 6.66476 19.1166 9.36716
52 2 2.2208 13.5515 9.44968 10.7725
57 1 -1.1104 6.58801 8.03404 0.718543
64 1 -1.1104 6.50428 10.8186 0.747274
84 2 2.2208 10.7624 6.41408 5.32391
85 2 2.2208 10.76 11.9354 5.08012
86 1 -1.1104 12.1495 7.73999 1.05841
87 1 -1.1104 12.1292 7.77932 3.83991
88 1 -1.1104 12.2432 5.02318 0.878426
89 1 -1.1104 12.0132 10.7327 0.784934
91 2 2.2208 10.601 9.26125 2.14938
92 1 -1.1104 12.2798 4.87145 3.87159
93 1 -1.1104 12.2885 10.4228 3.53357
94 1 -1.1104 9.30749 8.08202 0.784792
95 2 2.2208 7.81169 6.58638 2.50901
96 2 2.2208 7.7494 12.1277 2.23442
97 1 -1.1104 9.17206 8.00849 3.73648
98 2 2.2208 7.82721 9.33089 5.2395
99 1 -1.1104 9.46494 5.29737 1.06546
100 1 -1.1104 9.25442 10.7568 0.844343
102 1 -1.1104 9.22576 5.0285 3.6888
103 1 -1.1104 9.3239 10.4221 3.72136
8439 2 2.2208 -0.512924 -4.69731 11.0328
267 1 -1.1104 9.36706 7.90448 6.65977
8441 2 2.2208 10.6817 -4.75196 10.9724
90 1 -1.1104 12.1831 10.5294 6.61707
333 2 2.2208 13.5034 15.0601 10.8067
8437 2 2.2208 2.39373 -4.61306 8.09645
106 2 2.2208 5.21754 17.8388 5.16068
107 1 -1.1104 0.900367 13.8294 0.823467
109 1 -1.1104 0.993064 19.1688 0.882846
113 1 -1.1104 0.895668 13.6937 3.73914
114 1 -1.1104 0.96124 19.2076 3.74297
116 1 -1.1104 0.772225 16.5197 0.893748
119 2 2.2208 5.02106 14.8822 2.34517
120 2 2.2208 5.09747 20.609 2.34112
121 1 -1.1104 1.02799 16.4545 3.79058
123 1 -1.1104 3.64415 13.5361 0.998353
125 1 -1.1104 3.87946 19.2103 0.841902
127 2 2.2208 2.39815 17.7698 2.35878
128 1 -1.1104 3.41259 13.3973 3.66471
129 1 -1.1104 3.7034 19.1138 3.74803
130 2 2.2208 2.37126 14.9314 5.18517
131 2 2.2208 2.43774 20.6207 5.26752
132 1 -1.1104 3.72588 16.3822 0.714949
134 1 -1.1104 3.78594 16.2817 3.69245
122 1 -1.1104 6.53137 16.4677 3.81826
111 1 -1.1104 6.63433 13.6715 6.44338
138 1 -1.1104 6.66781 18.9338 0.65654
110 1 -1.1104 6.42088 13.5153 0.837859
140 1 -1.1104 6.55479 16.2337 0.963586
133 1 -1.1104 3.81725 16.4971 6.65679
8438 2 2.2208 5.09488 -4.68576 11.1691
204 2 2.2208 13.5618 14.9292 5.15359
8458 2 2.2208 2.33878 -4.80461 13.7064
358 2 2.2208 5.2252 20.6823 13.6261
115 1 -1.1104 6.25289 13.5735 3.651
139 1 -1.1104 6.70282 19.1548 3.59064
141 2 2.2208 10.8048 17.5677 5.1384
142 1 -1.1104 11.9544 13.4452 1.09781
144 1 -1.1104 12.0088 19.2615 1.10654
146 1 -1.1104 11.9458 13.2966 3.69563
147 1 -1.1104 12.2236 19.1392 3.99177
148 1 -1.1104 12.2298 16.3942 0.912962
150 2 2.2208 10.657 14.6985 2.34559
151 2 2.2208 10.7143 20.5566 2.44545
152 1 -1.1104 12.1881 16.1952 3.76434
153 1 -1.1104 9.12593 13.6484 1.04837
155 1 -1.1104 9.27811 19.3802 0.945477
157 2 2.2208 7.90647 17.7257 2.23342
158 1 -1.1104 8.9959 13.4094 3.77313
159 1 -1.1104 9.4269 18.9147 3.64138
160 2 2.2208 7.86493 14.9583 5.06699
161 2 2.2208 7.98903 20.5688 5.07315
162 1 -1.1104 9.40926 16.5177 1.08314
164 1 -1.1104 9.3847 16.0229 3.74317
163 1 -1.1104 9.49612 16.3475 6.53544
118 1 -1.1104 6.69544 16.4972 6.61327
154 1 -1.1104 9.43242 13.6581 6.43689
156 1 -1.1104 9.25213 19.1465 6.49201
376 2 2.2208 13.6302 12.0221 13.4534
306 1 -1.1104 6.52624 16.4397 12.1077
173 1 -1.1104 3.46251 2.55898 6.72504
174 1 -1.1104 3.77219 -0.527222 6.69894
171 1 -1.1104 6.50948 -0.438413 6.8278
377 2 2.2208 13.3881 -1.86754 -0.25274
167 1 -1.1104 0.708776 2.4382 6.74921
166 1 -1.1104 1.05526 -3.30722 6.58028
170 1 -1.1104 0.995208 -0.524716 6.67015
172 1 -1.1104 3.84115 -3.32171 6.83728
175 2 2.2208 4.98829 0.958195 10.8129
176 1 -1.1104 1.03353 -3.22174 12.3411
177 1 -1.1104 0.660929 2.45807 12.4202
180 1 -1.1104 1.00231 -3.18226 9.36223
181 1 -1.1104 0.892479 2.37722 9.60777
184 1 -1.1104 0.749152 -0.413406 12.4164
186 2 2.2208 5.30126 -1.94263 8.00475
187 2 2.2208 4.94953 3.83547 8.1393
188 1 -1.1104 1.03111 -0.381611 9.57415
190 1 -1.1104 3.94754 -3.09153 12.3923
191 1 -1.1104 3.65982 2.59669 12.3853
192 2 2.2208 2.35041 1.04819 8.01819
193 1 -1.1104 3.69019 -3.27975 9.69558
194 1 -1.1104 3.63518 2.67729 9.38509
195 2 2.2208 2.30203 -1.74035 10.8998
196 2 2.2208 2.08106 4.02752 10.9169
197 1 -1.1104 3.61049 -0.437239 12.2474
198 1 -1.1104 3.77447 -0.336223 9.42241
183 1 -1.1104 6.34422 2.47018 9.60292
189 1 -1.1104 6.43119 -0.439792 9.41724
182 1 -1.1104 6.58956 -3.62382 9.46964
179 1 -1.1104 6.48193 2.31291 12.4627
185 1 -1.1104 6.49445 -0.404624 12.1919
105 2 2.2208 13.4972 6.35971 2.32004
112 1 -1.1104 6.64015 19.3878 6.49472
327 1 -1.1104 12.3075 19.1509 9.45947
169 1 -1.1104 6.34078 2.36125 6.81379
168 1 -1.1104 6.52598 -3.46481 6.73789
317 2 2.2208 7.92573 15.1008 10.6059
137 2 2.2208 -0.452314 17.7929 5.28771
290 1 -1.1104 6.62747 13.6057 9.37526
331 2 2.2208 10.8658 17.9694 10.7792
178 1 -1.1104 6.77266 -3.14029 12.3501
206 1 -1.1104 12.1031 2.14757 6.80196
207 1 -1.1104 12.0925 -0.582421 6.69199
210 1 -1.1104 9.19506 -0.565889 6.72118
209 1 -1.1104 9.28327 2.32336 6.84058
205 1 -1.1104 12.1439 -3.49811 6.79841
211 2 2.2208 10.6544 0.844403 10.9124
212 1 -1.1104 12.3138 -3.31122 12.2737
213 1 -1.1104 12.0099 2.40571 12.354
214 1 -1.1104 12.1933 -3.1813 9.41279
215 1 -1.1104 12.0862 2.40869 9.50973
216 1 -1.1104 12.2184 -0.574754 12.328
217 2 2.2208 10.7098 -1.96105 8.07568
218 2 2.2208 10.7459 3.65726 8.1552
219 1 -1.1104 11.9808 -0.479911 9.46408
220 1 -1.1104 9.48041 -3.19397 12.2669
221 1 -1.1104 9.28726 2.32692 12.467
222 2 2.2208 7.91968 1.02009 8.11898
223 1 -1.1104 9.55689 -3.26882 9.64022
224 1 -1.1104 9.33595 2.29656 9.60564
225 2 2.2208 8.00747 -1.83158 10.9644
226 2 2.2208 7.94905 3.81314 10.9353
227 1 -1.1104 9.37928 -0.484272 12.3535
228 1 -1.1104 9.29049 -0.575593 9.49174
379 2 2.2208 5.19919 6.57277 -0.298826
319 1 -1.1104 9.49061 13.8657 9.32917
237 1 -1.1104 6.47943 5.20713 6.65304
239 1 -1.1104 3.61731 5.16807 6.69096
238 1 -1.1104 3.66465 8.02075 6.55496
236 1 -1.1104 0.921995 5.16907 6.83061
78 1 -1.1104 3.6784 10.8611 6.51575
240 2 2.2208 5.15106 6.53756 10.6025
241 2 2.2208 5.02129 12.2353 10.7992
242 1 -1.1104 1.12017 8.17087 12.2008
244 1 -1.1104 0.743025 8.4254 9.57006
246 1 -1.1104 0.851154 5.3132 12.2392
247 1 -1.1104 0.733055 11.0948 12.443
250 2 2.2208 5.13239 9.54955 7.90536
251 1 -1.1104 0.725212 5.53237 9.46444
252 1 -1.1104 0.905596 11.1514 9.50168
255 1 -1.1104 3.79881 8.11975 12.1685
256 2 2.2208 2.28964 6.84239 8.02589
257 2 2.2208 2.38494 12.2101 7.91704
258 1 -1.1104 3.75216 8.0683 9.37129
259 2 2.2208 2.29258 9.71571 10.8505
260 1 -1.1104 3.58955 5.34643 12.2398
261 1 -1.1104 3.86034 10.9768 12.2456
262 1 -1.1104 3.57179 5.36922 9.41743
263 1 -1.1104 3.72098 10.805 9.53863
245 1 -1.1104 6.6278 8.1932 9.34242
248 1 -1.1104 6.60378 5.04272 12.3822
253 1 -1.1104 6.53391 5.40798 9.5147
324 2 2.2208 10.9045 20.7402 7.8923
101 1 -1.1104 9.24033 10.7545 6.51012
254 1 -1.1104 6.51673 10.9682 9.26919
65 1 -1.1104 6.45407 10.8069 6.47041
243 1 -1.1104 6.48041 7.9472 12.0878
249 1 -1.1104 6.49102 10.6678 12.2134
315 1 -1.1104 9.30499 16.5198 12.0893
269 1 -1.1104 9.20391 5.1413 6.54565
297 1 -1.1104 6.46273 13.5221 12.0336
265 1 -1.1104 12.1661 7.69983 6.59728
266 1 -1.1104 12.0568 5.0502 6.69663
264 1 -1.1104 9.3227 11.0393 9.10525
268 1 -1.1104 9.22943 5.00154 9.38501
270 1 -1.1104 9.27987 10.8265 12.0092
271 1 -1.1104 9.38415 5.13803 12.3201
272 2 2.2208 7.9065 9.46768 10.7313
273 1 -1.1104 9.34261 8.01121 9.27711
274 2 2.2208 7.88464 12.1705 7.77596
275 2 2.2208 7.79409 6.63377 7.87208
276 2 2.2208 10.5979 6.64463 10.8384
277 2 2.2208 10.6703 12.3455 10.6792
278 1 -1.1104 12.0825 7.9849 12.1474
279 1 -1.1104 12.1347 7.95434 9.50796
280 1 -1.1104 12.1865 5.12279 12.1856
281 1 -1.1104 12.1216 10.8078 12.1331
282 2 2.2208 10.6922 9.36386 7.87606
283 1 -1.1104 12.1313 5.19162 9.41796
284 1 -1.1104 12.1509 10.5977 9.3981
285 1 -1.1104 9.20239 8.06675 12.0366
314 1 -1.1104 9.32001 16.733 9.38083
328 1 -1.1104 12.2478 13.5215 9.24223
325 2 2.2208 10.7447 14.9099 7.88877
320 2 2.2208 7.94961 17.8985 7.94657
124 1 -1.1104 3.83713 13.5139 6.69704
108 1 -1.1104 1.01971 13.5858 6.70797
321 1 -1.1104 9.56301 19.4587 11.9666
326 1 -1.1104 12.1053 16.2811 12.1493
302 1 -1.1104 1.04415 19.312 6.60686
289 1 -1.1104 6.4777 16.5235 9.51275
126 1 -1.1104 3.89891 19.118 6.57623
117 1 -1.1104 0.914222 16.3779 6.58793
310 2 2.2208 2.22238 15.2279 10.7485
294 1 -1.1104 1.09908 13.7858 9.32227
309 2 2.2208 2.37778 20.6928 10.7834
293 2 2.2208 5.34937 20.6627 8.17291
292 1 -1.1104 0.854549 16.534 9.49062
300 2 2.2208 5.11144 17.8516 11.0248
308 1 -1.1104 3.75336 16.4833 12.2866
299 1 -1.1104 0.904812 13.8671 12.1727
307 1 -1.1104 0.838671 16.634 12.2279
298 1 -1.1104 0.900992 19.2768 12.3036
303 2 2.2208 2.46116 17.854 7.99719
305 1 -1.1104 3.76906 13.7483 9.47733
301 1 -1.1104 3.86163 19.4282 9.38827
295 2 2.2208 5.32909 15.0645 8.13133
304 1 -1.1104 3.63379 16.6453 9.48291
286 1 -1.1104 3.78979 19.2805 12.3448
287 1 -1.1104 3.77928 13.5952 12.3197
291 1 -1.1104 0.961093 19.2206 9.37063
296 1 -1.1104 6.77616 19.1733 12.0639
330 1 -1.1104 12.291 13.4498 12.1673
322 1 -1.1104 9.42316 13.5842 12.1972
26 2 2.2208 -0.655401 1.13652 5.35322
323 1 -1.1104 12.1576 16.4507 9.4091
318 1 -1.1104 9.47332 19.5045 9.19549
143 1 -1.1104 12.2055 13.3174 6.27596
149 1 -1.1104 12.1596 16.2699 6.49358
145 1 -1.1104 11.9476 19.0566 6.7484
316 2 2.2208 8.08087 20.595 10.6819
329 1 -1.1104 12.123 18.9794 12.3708
203 2 2.2208 13.4999 3.75463 10.8857
355 2 2.2208 10.8244 9.42428 13.5879
232 2 2.2208 13.5576 9.16757 5.12849
233 2 2.2208 13.5066 3.59648 5.39873
360 2 2.2208 10.841 20.6905 13.7753
104 2 2.2208 13.5219 12.011 2.29961
200 2 2.2208 -0.367025 -1.94818 8.11811
362 2 2.2208 8.01763 17.9353 13.5026
8446 2 2.2208 10.7142 -4.60677 -0.289002
230 2 2.2208 13.6352 -1.78779 10.8919
8436 2 2.2208 13.5359 -4.74153 2.43839
202 2 2.2208 13.6017 6.48511 8.13228
229 2 2.2208 13.4059 0.719524 8.20332
356 2 2.2208 7.94128 12.111 13.5733
352 2 2.2208 5.03678 9.55317 13.6949
335 2 2.2208 -0.446355 20.5486 13.6046
340 2 2.2208 13.4936 1.11338 13.6882
364 2 2.2208 4.97087 0.996719 -0.201183
361 2 2.2208 10.7329 14.9308 13.4476
341 2 2.2208 5.12802 3.79496 13.7697
345 2 2.2208 13.4173 20.4079 -0.232152
351 2 2.2208 2.32547 6.71217 13.6116
357 2 2.2208 2.46573 17.9512 13.6039
380 2 2.2208 2.30164 9.43809 -0.270257
348 2 2.2208 10.6548 17.7627 -0.397159
354 2 2.2208 7.71009 6.66545 13.4164
388 2 2.2208 5.19499 0.990841 16.5192
389 1 -1.1104 0.773336 -3.34752 17.8459
390 1 -1.1104 0.734421 2.08243 18.1172
393 1 -1.1104 0.914876 -3.21153 15.0904
395 1 -1.1104 0.624788 2.52408 15.2726
401 1 -1.1104 0.819438 -0.67292 17.8751
403 2 2.2208 5.00634 -1.82396 19.3328
404 2 2.2208 5.22147 3.72502 19.2081
405 1 -1.1104 0.953848 -0.321243 15.2776
409 1 -1.1104 3.53843 -3.16183 17.9278
410 1 -1.1104 3.59893 2.49845 17.9081
411 2 2.2208 2.17334 0.926093 19.4847
412 1 -1.1104 3.76927 -3.35664 15.2289
414 1 -1.1104 3.6295 2.31992 15.1327
416 2 2.2208 2.37691 -1.70506 16.5853
417 2 2.2208 2.42526 3.75387 16.4919
418 1 -1.1104 3.78908 -0.407884 17.9133
419 1 -1.1104 3.83801 -0.227317 14.9239
399 1 -1.1104 6.53779 2.43909 15.0048
397 1 -1.1104 6.35569 -3.32843 15.1472
402 1 -1.1104 6.63564 -0.544068 17.8925
391 1 -1.1104 6.52368 -3.28955 17.8322
353 2 2.2208 2.37834 12.2795 13.7642
8517 2 2.2208 10.7815 -4.49197 22.158
344 2 2.2208 13.3862 14.9845 27.7483
708 2 2.2208 13.4677 12.1856 24.8976
415 1 -1.1104 3.83721 2.30718 20.7425
394 1 -1.1104 0.874097 -3.26247 20.7425
455 2 2.2208 13.5469 17.7294 24.9691
349 2 2.2208 7.89632 20.499 27.6832
407 1 -1.1104 6.45775 -0.501523 15.134
392 1 -1.1104 6.57384 2.18997 17.8749
8584 2 2.2208 10.7019 -4.69002 16.5238
569 1 -1.1104 12.2668 19.2056 20.7167
8556 2 2.2208 7.83685 -4.68454 19.5077
459 2 2.2208 13.6524 -1.82279 16.5912
431 2 2.2208 10.9026 0.932014 16.5471
432 1 -1.1104 12.0371 -3.08061 17.9423
433 1 -1.1104 12.0859 2.23479 18.0284
434 1 -1.1104 12.2197 -3.18058 15.2164
436 1 -1.1104 12.2053 2.47903 15.1663
438 1 -1.1104 12.3443 -0.383606 17.8816
439 2 2.2208 10.7978 -1.80639 19.3404
440 2 2.2208 10.6753 3.52643 19.3354
441 1 -1.1104 12.1024 -0.361888 15.0682
443 1 -1.1104 9.20803 -3.51273 17.9957
444 1 -1.1104 9.25641 2.1313 18.0837
445 2 2.2208 7.9015 0.754812 19.3854
446 1 -1.1104 9.35129 -3.20379 15.1109
448 1 -1.1104 9.41553 2.32387 15.3226
450 2 2.2208 7.93712 -1.9154 16.4369
451 2 2.2208 7.95963 3.81965 16.4905
452 1 -1.1104 9.49976 -0.627129 17.9319
453 1 -1.1104 9.3166 -0.338559 15.082
359 2 2.2208 5.21088 15.0328 13.5669
463 1 -1.1104 12.011 13.5897 23.4828
8519 2 2.2208 2.23538 -4.60145 24.9803
8622 2 2.2208 5.05094 -4.75733 16.5857
437 1 -1.1104 12.2919 2.14419 20.7676
567 1 -1.1104 12.2874 13.4442 20.7788
464 2 2.2208 5.12394 6.58286 16.4446
465 2 2.2208 5.23126 12.2858 16.376
466 1 -1.1104 0.830915 7.93215 17.9798
468 1 -1.1104 0.995047 8.02406 15.047
472 1 -1.1104 0.885871 5.00102 17.9903
473 1 -1.1104 0.844055 10.694 18.0775
476 2 2.2208 5.07396 9.26077 19.3713
477 1 -1.1104 0.785575 5.34595 15.0592
479 1 -1.1104 1.12207 10.6113 14.9407
485 1 -1.1104 3.66439 8.04079 17.8927
486 2 2.2208 2.18778 6.69612 19.4287
487 2 2.2208 2.31594 12.2007 19.3276
488 1 -1.1104 3.65059 8.07113 15.0724
490 2 2.2208 2.34513 9.2934 16.529
491 1 -1.1104 3.85628 5.168 17.9798
492 1 -1.1104 3.8449 10.8649 18.074
493 1 -1.1104 3.782 5.17421 15.288
495 1 -1.1104 3.789 10.83 15.2785
475 1 -1.1104 6.72409 10.8483 17.683
474 1 -1.1104 6.40467 5.14596 17.9738
483 1 -1.1104 6.61841 10.8183 14.8544
481 1 -1.1104 6.58538 5.18707 15.2762
496 1 -1.1104 3.71177 10.7703 20.6581
370 2 2.2208 7.83703 -1.78268 27.8783
374 2 2.2208 5.13349 17.674 27.6113
484 1 -1.1104 6.55733 10.6487 20.5977
589 1 -1.1104 9.22405 13.6757 26.4814
8586 2 2.2208 2.1374 -4.55346 19.3439
587 2 2.2208 7.96638 17.7626 24.8897
467 1 -1.1104 6.68962 8.04535 17.6101
470 1 -1.1104 6.38362 8.11179 14.8672
482 1 -1.1104 6.49748 5.15373 20.7207
500 2 2.2208 10.7104 6.56754 16.3906
501 2 2.2208 10.6194 12.1819 16.2567
502 1 -1.1104 12.1596 7.96131 17.9551
503 1 -1.1104 12.1555 7.90549 14.9746
505 1 -1.1104 12.0592 4.97291 17.7982
506 1 -1.1104 12.26 10.7293 17.635
507 2 2.2208 10.6209 9.27439 19.1414
508 1 -1.1104 12.038 5.24449 15.1182
510 1 -1.1104 12.1635 10.866 14.8979
512 1 -1.1104 9.4331 7.86831 17.9301
513 2 2.2208 7.84663 6.64726 19.2657
514 2 2.2208 7.933 12.2502 19.1384
515 1 -1.1104 9.43746 8.01293 15.0361
517 2 2.2208 7.937 9.35534 16.3994
518 1 -1.1104 9.22009 4.89885 17.9476
519 1 -1.1104 9.49179 10.7548 17.7146
520 1 -1.1104 9.29593 5.09419 15.1476
522 1 -1.1104 9.34205 10.7195 15.0001
525 2 2.2208 10.793 15.0363 24.7247
526 2 2.2208 10.7871 20.5509 24.9138
422 2 2.2208 13.3907 9.18591 22.1325
523 1 -1.1104 9.48681 10.5934 20.5698
509 1 -1.1104 12.0508 5.16311 20.6316
504 1 -1.1104 12.0317 7.89362 20.6538
521 1 -1.1104 9.30743 5.11891 20.6867
511 1 -1.1104 12.1084 10.6207 20.6435
471 1 -1.1104 6.48121 7.89059 20.3739
8453 2 2.2208 13.4697 -4.54653 13.5876
461 2 2.2208 13.5078 20.5592 22.1264
615 2 2.2208 7.89067 14.9437 21.9066
527 2 2.2208 5.22491 17.7367 16.3645
528 1 -1.1104 1.05164 13.6531 18.0604
529 1 -1.1104 0.945879 19.2185 17.8431
532 1 -1.1104 0.884719 13.6003 15.1079
534 1 -1.1104 0.865212 19.2469 15.0872
540 1 -1.1104 0.683618 16.4609 17.8454
542 2 2.2208 5.08228 14.9 19.3895
543 2 2.2208 5.08884 20.4902 19.3001
544 1 -1.1104 0.827462 16.5636 14.8243
548 1 -1.1104 3.76027 13.5913 17.9181
549 1 -1.1104 3.86249 19.0258 17.8747
550 2 2.2208 2.24253 17.9945 19.2475
551 1 -1.1104 3.81122 13.4975 15.0997
553 1 -1.1104 3.63658 19.1891 15.0753
555 2 2.2208 2.30178 15.0647 16.4893
556 2 2.2208 2.31998 20.5827 16.3334
557 1 -1.1104 3.63831 16.3302 17.8476
558 1 -1.1104 3.53545 16.4137 14.8552
536 1 -1.1104 6.4949 13.8281 15.0243
547 1 -1.1104 6.44992 16.4594 20.4765
530 1 -1.1104 6.6144 13.5545 17.8315
554 1 -1.1104 3.66711 19.3016 20.7969
545 1 -1.1104 0.887236 16.4768 20.6934
535 1 -1.1104 0.81587 19.2383 20.5384
552 1 -1.1104 3.64856 13.6552 20.6802
537 1 -1.1104 6.53137 13.5206 20.7123
499 1 -1.1104 12.1914 19.0166 26.4963
562 1 -1.1104 9.48802 19.1793 23.323
498 1 -1.1104 11.961 13.4037 26.3269
378 2 2.2208 13.4759 3.58975 27.829
531 1 -1.1104 6.44247 19.042 17.9154
538 1 -1.1104 6.42631 19.1527 14.9607
541 1 -1.1104 6.42577 16.2254 17.7528
546 1 -1.1104 6.54458 16.5962 14.9585
563 2 2.2208 10.7991 17.7158 16.4837
564 1 -1.1104 12.0786 13.545 17.8773
565 1 -1.1104 12.2693 18.9741 17.9552
566 1 -1.1104 12.3009 13.5608 15.0179
568 1 -1.1104 12.1295 18.9759 15.2103
570 1 -1.1104 12.1328 16.3069 17.8045
571 2 2.2208 10.8556 14.8461 19.2435
572 2 2.2208 10.7662 20.3052 19.4049
573 1 -1.1104 12.0445 16.2337 14.9863
575 1 -1.1104 9.44999 13.5852 17.6831
576 1 -1.1104 9.40829 19.1108 17.9459
577 2 2.2208 7.83807 17.7411 19.1875
578 1 -1.1104 9.20383 13.5419 14.8243
580 1 -1.1104 9.27969 19.1341 15.0593
582 2 2.2208 7.97724 14.9981 16.3129
583 2 2.2208 7.95549 20.5376 16.5762
584 1 -1.1104 9.26621 16.443 17.6258
585 1 -1.1104 9.2806 16.3607 14.7694
586 1 -1.1104 9.30675 16.3834 20.456
574 1 -1.1104 12.1757 16.245 20.54
579 1 -1.1104 9.31381 13.489 20.5935
560 1 -1.1104 11.8901 16.5046 26.3171
619 2 2.2208 13.5934 14.9537 16.5927
398 1 -1.1104 6.54535 -3.11089 20.6216
618 2 2.2208 13.6484 17.7022 19.2827
400 1 -1.1104 6.71031 2.30195 20.6233
408 1 -1.1104 6.47472 -0.443277 20.6629
396 1 -1.1104 0.983941 2.55278 20.7992
413 1 -1.1104 3.5791 -3.13614 20.7613
420 1 -1.1104 3.63787 -0.353503 20.6908
406 1 -1.1104 0.666861 -0.466388 20.612
591 2 2.2208 5.11855 1.00405 22.1085
592 1 -1.1104 0.943675 -3.09945 23.5197
593 1 -1.1104 1.06386 2.30625 23.5133
596 1 -1.1104 0.919948 -3.0255 26.345
597 1 -1.1104 0.998286 2.48351 26.3777
600 1 -1.1104 0.981626 -0.271999 23.5023
602 2 2.2208 5.06842 -1.92958 24.8764
603 2 2.2208 5.23655 3.74923 24.8419
604 1 -1.1104 0.884154 -0.296676 26.37
606 1 -1.1104 3.7083 -3.06762 23.4065
607 1 -1.1104 3.72447 2.37887 23.5425
608 2 2.2208 2.34804 1.08941 24.9574
609 1 -1.1104 3.81219 -3.30046 26.374
610 1 -1.1104 3.62367 2.42662 26.3435
611 2 2.2208 2.35736 -1.72562 22.1405
612 2 2.2208 2.1406 3.82776 22.0756
613 1 -1.1104 3.7424 -0.491114 23.4512
614 1 -1.1104 3.60483 -0.320624 26.3324
595 1 -1.1104 6.64924 2.31032 23.4547
605 1 -1.1104 6.36677 -0.603911 26.4425
598 1 -1.1104 6.49202 -3.4127 26.2743
601 1 -1.1104 6.5116 -0.468311 23.5557
594 1 -1.1104 6.59752 -3.31025 23.6512
447 1 -1.1104 9.26653 -3.2449 20.8095
650 2 2.2208 13.5611 12.1871 19.2912
599 1 -1.1104 6.55595 2.27935 26.3669
442 1 -1.1104 12.2097 -0.610932 20.8368
449 1 -1.1104 9.43326 2.10077 20.8395
347 2 2.2208 7.94301 15.0258 27.8118
454 1 -1.1104 9.29752 -0.576163 20.7542
435 1 -1.1104 12.0818 -3.23782 20.6184
627 2 2.2208 10.7515 0.923482 22.2463
628 1 -1.1104 12.0859 -3.23983 23.6625
629 1 -1.1104 12.3923 2.23559 23.6522
630 1 -1.1104 11.9199 -3.27321 26.3731
631 1 -1.1104 12.0638 2.31385 26.361
632 1 -1.1104 12.0441 -0.465387 23.796
633 2 2.2208 10.7432 -1.86936 24.9739
634 2 2.2208 10.7278 3.76495 24.8582
635 1 -1.1104 12.0813 -0.337953 26.5471
636 1 -1.1104 9.24157 -3.20707 23.5168
637 1 -1.1104 9.34832 2.32588 23.6555
638 2 2.2208 7.93171 0.908899 24.938
639 1 -1.1104 9.21923 -3.25941 26.4029
640 1 -1.1104 9.27773 2.41371 26.3516
641 2 2.2208 7.88639 -1.90872 22.2662
642 2 2.2208 7.89474 3.81547 22.0632
643 1 -1.1104 9.19079 -0.555111 23.6429
644 1 -1.1104 9.35109 -0.407444 26.3802
616 2 2.2208 7.91637 20.5309 22.0285
8454 2 2.2208 8.11692 -4.64331 13.8245
373 2 2.2208 2.24925 15.0595 27.6606
480 1 -1.1104 0.861429 10.8787 20.8488
478 1 -1.1104 0.891724 5.32171 20.6989
489 1 -1.1104 3.55812 8.11958 20.7098
469 1 -1.1104 0.723563 8.08167 20.8953
494 1 -1.1104 3.68869 5.24196 20.6576
656 2 2.2208 5.11762 6.55325 22.0641
657 2 2.2208 5.09467 12.1374 21.98
658 1 -1.1104 0.795049 7.90991 23.4261
660 1 -1.1104 1.04774 7.9173 26.4032
662 1 -1.1104 0.820388 5.187 23.5286
663 1 -1.1104 0.99893 10.5793 23.7466
666 2 2.2208 5.17725 9.48239 24.8462
667 1 -1.1104 0.826142 5.26918 26.3634
668 1 -1.1104 0.839918 10.7113 26.4568
671 1 -1.1104 3.64736 8.04433 23.5609
672 2 2.2208 2.36619 6.75631 25.001
673 2 2.2208 2.29798 12.1691 24.8434
674 1 -1.1104 3.7831 8.17641 26.3854
675 2 2.2208 2.09628 9.42869 22.071
676 1 -1.1104 3.74279 5.1072 23.4945
677 1 -1.1104 3.82665 10.8667 23.3744
678 1 -1.1104 3.71622 5.22781 26.3433
679 1 -1.1104 3.52875 10.8332 26.3462
665 1 -1.1104 6.82575 10.9075 23.5328
661 1 -1.1104 6.39319 7.99956 26.173
669 1 -1.1104 6.48568 5.21782 26.2405
659 1 -1.1104 6.38338 8.03521 23.0352
561 1 -1.1104 9.34392 13.8197 23.5534
386 2 2.2208 10.6661 12.1568 27.6318
497 1 -1.1104 12.2282 19.096 23.4084
8516 2 2.2208 7.96647 -4.52277 24.9864
670 1 -1.1104 6.60701 10.9029 26.3614
664 1 -1.1104 6.63494 5.30846 23.3961
516 1 -1.1104 9.19534 7.96867 20.7047
687 1 -1.1104 9.39152 10.801 26.1815
688 1 -1.1104 9.40569 5.2463 26.4705
689 1 -1.1104 9.41921 10.9512 23.4199
690 1 -1.1104 9.2817 5.23968 23.4779
691 2 2.2208 7.94126 9.42816 22.005
692 1 -1.1104 9.35315 7.90207 26.2124
693 2 2.2208 7.92665 12.3611 24.9497
694 2 2.2208 7.74144 6.65365 24.8255
695 2 2.2208 10.7009 6.46375 22.0746
696 2 2.2208 10.7177 12.0012 21.9669
697 1 -1.1104 11.9138 7.84379 23.4605
698 1 -1.1104 12.0061 7.8478 26.3033
699 1 -1.1104 12.1001 5.11308 23.456
700 1 -1.1104 12.2526 10.7792 23.3488
701 2 2.2208 10.6255 9.37728 24.7557
702 1 -1.1104 12.1977 5.04024 26.2046
703 1 -1.1104 12.2299 10.6336 26.3727
704 1 -1.1104 9.20923 8.17766 23.452
680 1 -1.1104 6.66132 16.4387 23.5131
462 2 2.2208 10.759 17.7 21.8523
581 1 -1.1104 9.3811 19.1354 20.6112
620 1 -1.1104 9.26294 16.4625 26.4545
533 1 -1.1104 0.777131 13.6843 20.6531
539 1 -1.1104 6.44464 19.2349 20.8225
559 1 -1.1104 3.56657 16.4455 20.5224
712 1 -1.1104 6.52161 13.7278 26.3944
647 2 2.2208 2.30258 15.0114 22.1078
649 2 2.2208 2.15965 20.5145 22.0648
652 1 -1.1104 3.69565 16.3892 23.3026
655 1 -1.1104 0.903013 16.3902 23.639
681 1 -1.1104 3.60985 13.6037 26.4475
682 1 -1.1104 3.73672 16.2993 26.0364
683 2 2.2208 2.35111 17.6269 24.9309
686 1 -1.1104 3.86048 18.9942 26.2559
705 2 2.2208 5.03963 17.8243 21.9279
706 1 -1.1104 0.914485 13.3478 23.526
707 1 -1.1104 0.82634 19.1558 23.3962
711 1 -1.1104 3.63349 19.109 23.7323
713 1 -1.1104 3.61467 13.6516 23.4952
715 1 -1.1104 0.906324 19.1784 26.2168
716 1 -1.1104 0.87674 16.406 26.2912
717 1 -1.1104 0.781988 13.4782 26.0936
719 2 2.2208 5.07677 20.407 24.8048
720 2 2.2208 5.12369 15.063 24.9236
714 1 -1.1104 6.62153 16.3672 26.3142
709 1 -1.1104 6.33407 13.7358 23.522
588 1 -1.1104 6.46638 19.1188 26.1579
617 1 -1.1104 9.31893 16.377 23.2371
718 1 -1.1104 6.68762 19.2468 23.444
590 1 -1.1104 9.28798 19.2726 26.1619
524 1 -1.1104 12.0718 16.4293 23.3403
8518 2 2.2208 13.4456 -4.49051 25.0026
460 2 2.2208 13.6874 20.5786 16.6012
339 2 2.2208 2.20648 0.926518 13.676
710 2 2.2208 13.4401 6.46612 24.8533
336 2 2.2208 13.5258 6.56493 13.5159
430 2 2.2208 13.6922 14.8579 22.1361
381 2 2.2208 4.94361 12.2087 27.6677
384 2 2.2208 10.7761 6.50339 27.7188
426 2 2.2208 13.6044 9.38594 16.3775
651 2 2.2208 13.4666 6.6414 19.2187
350 2 2.2208 10.8262 3.80217 13.7778
423 2 2.2208 13.7181 3.52952 22.2078
338 2 2.2208 5.11891 -1.85578 13.819
343 2 2.2208 7.92754 1.02184 13.8168
346 2 2.2208 10.7655 -1.72954 13.7861
363 2 2.2208 13.5809 17.5114 13.7801
372 2 2.2208 7.89906 3.80539 27.7377
375 2 2.2208 2.32448 20.6025 27.5503
385 2 2.2208 7.98724 9.40242 27.5116
721 2 2.2208 5.13333 23.3842 5.24574
722 2 2.2208 5.13326 29.171 5.05759
723 1 -1.1104 0.628409 24.7108 0.993846
724 1 -1.1104 0.947026 24.8774 3.92642
725 1 -1.1104 0.902822 21.8349 0.867833
726 1 -1.1104 0.880966 27.5852 0.929445
727 2 2.2208 5.30199 26.2065 2.38145
728 1 -1.1104 1.00596 22.1151 3.64689
729 1 -1.1104 0.893591 27.7062 3.75354
730 1 -1.1104 3.57422 24.8534 1.01408
731 2 2.2208 2.33732 23.51 2.36159
732 2 2.2208 2.37569 28.9357 2.27249
733 1 -1.1104 3.7092 24.723 3.85063
734 2 2.2208 2.42581 26.1218 5.22227
735 1 -1.1104 3.87583 22.0667 0.940068
736 1 -1.1104 3.77907 27.5502 0.844337
737 1 -1.1104 3.73028 21.9309 3.6349
738 1 -1.1104 3.9947 27.5784 3.73098
743 1 -1.1104 6.50914 24.769 3.72159
870 1 -1.1104 3.76365 27.6965 6.46883
746 1 -1.1104 6.44061 21.9947 3.93739
742 1 -1.1104 6.66567 24.533 0.944983
747 1 -1.1104 6.6982 27.804 3.85037
745 1 -1.1104 6.54116 27.6497 1.03893
863 1 -1.1104 6.4735 24.857 6.51691
862 1 -1.1104 1.0354 24.8536 6.58577
867 1 -1.1104 6.44746 27.7306 6.49489
1093 2 2.2208 10.7173 29.0607 -0.35968
790 2 2.2208 -0.339367 37.5029 2.37793
766 2 2.2208 13.5089 23.3733 2.40619
1037 2 2.2208 13.4998 43.1407 10.8346
744 1 -1.1104 6.57911 21.7081 1.05861
748 2 2.2208 10.7822 23.4198 5.22875
749 2 2.2208 10.8072 28.9896 5.38532
750 1 -1.1104 12.0844 25.0048 1.09071
751 1 -1.1104 12.0897 24.8745 3.80362
752 1 -1.1104 12.124 22.1487 0.9858
753 1 -1.1104 12.0669 27.8053 1.05825
754 2 2.2208 10.7091 26.2159 2.51356
755 1 -1.1104 12.1594 21.8624 3.65103
756 1 -1.1104 12.1451 27.4411 3.88579
757 1 -1.1104 9.37414 24.9656 1.19104
758 2 2.2208 7.9144 23.3389 2.44511
759 2 2.2208 7.9335 29.114 2.3623
760 1 -1.1104 9.21113 24.7949 3.79615
761 2 2.2208 7.99004 26.2358 5.12644
762 1 -1.1104 9.36864 21.9416 1.07155
763 1 -1.1104 9.25867 27.6685 1.10435
764 1 -1.1104 9.42888 21.8273 3.81059
765 1 -1.1104 9.5114 27.6715 3.92676
768 2 2.2208 13.5735 26.3303 5.28328
814 2 2.2208 13.5604 34.5321 2.5406
866 1 -1.1104 6.53779 21.9258 6.57716
900 1 -1.1104 9.20951 27.6897 6.76243
897 1 -1.1104 11.9886 27.5122 6.73377
840 2 2.2208 -0.341166 45.9996 5.289
792 2 2.2208 -0.292283 34.7276 5.24707
1039 2 2.2208 13.6682 31.9072 5.45539
769 2 2.2208 5.13688 34.567 5.09641
770 1 -1.1104 1.03598 30.3213 0.985984
771 1 -1.1104 1.15396 36.1295 0.862637
773 1 -1.1104 1.1471 30.362 3.75249
774 1 -1.1104 0.879168 36.1108 3.70389
776 1 -1.1104 0.741393 33.2576 1.08781
777 2 2.2208 5.14355 31.9757 2.25639
778 2 2.2208 5.35787 37.6422 2.49134
779 1 -1.1104 1.03529 33.2526 3.89838
781 1 -1.1104 3.88258 30.5677 0.835772
782 1 -1.1104 3.93678 36.2052 1.07726
783 2 2.2208 2.37766 34.7838 2.42083
784 1 -1.1104 3.73435 30.4123 3.5942
785 1 -1.1104 3.63638 36.278 3.86885
786 2 2.2208 2.33777 31.8162 5.14329
787 2 2.2208 2.49246 37.51 5.38032
788 1 -1.1104 3.79371 33.3497 1.05827
789 1 -1.1104 3.72564 33.2235 3.69814
920 1 -1.1104 1.02527 36.1904 6.55235
1078 2 2.2208 13.7053 28.9218 13.7744
923 1 -1.1104 1.11851 33.444 6.70332
780 1 -1.1104 6.44636 33.4047 3.61811
793 1 -1.1104 6.61909 30.5936 1.02993
794 1 -1.1104 6.46249 30.4822 3.63612
922 1 -1.1104 6.59612 36.2554 6.66504
772 1 -1.1104 6.72561 36.1667 0.928714
775 1 -1.1104 6.62827 35.9835 3.68556
795 1 -1.1104 6.63677 33.335 0.813594
796 2 2.2208 10.8053 34.5098 5.21097
797 1 -1.1104 12.1187 30.5111 1.03875
798 1 -1.1104 12.0721 36.1206 0.998641
799 1 -1.1104 12.1464 30.2267 3.92121
800 1 -1.1104 12.2958 35.9621 3.74588
801 1 -1.1104 12.1678 33.2258 1.05488