ITEM: TIMESTEP
40000
ITEM: NUMBER OF ATOMS
17910
ITEM: BOX BOUNDS pp pp pp
-3.8530353072972423e-01 2.7725303530730081e+01
-4.7242081958589281e+00 3.3280420819586749e+02
-4.0196520270823033e-01 2.7741965202708005e+01
ITEM: ATOMS id type q x y z
1 2 2.2208 5.32543 1.08247 5.29141
2 1 -1.1104 1.04245 -3.05365 1.12889
3 1 -1.1104 1.04443 2.57514 0.981564
6 1 -1.1104 1.02233 -3.19212 3.80703
7 1 -1.1104 1.00259 2.25122 3.8528
10 1 -1.1104 0.992093 -0.380349 0.867888
12 2 2.2208 5.27626 -1.86998 2.44022
14 1 -1.1104 1.08779 -0.40728 3.76288
16 1 -1.1104 3.81913 -3.18568 0.824072
17 1 -1.1104 3.80609 2.39697 1.00682
18 2 2.2208 2.42403 0.911083 2.29427
19 1 -1.1104 3.66826 -3.21599 3.94068
20 1 -1.1104 3.87025 2.31229 3.65656
21 2 2.2208 2.43434 -1.82569 5.31631
22 2 2.2208 2.38669 3.76399 5.23814
23 1 -1.1104 3.79291 -0.288352 0.821227
24 1 -1.1104 3.87273 -0.473827 3.85493
13 2 2.2208 5.27267 3.75192 2.40164
4 1 -1.1104 6.64618 -3.28009 0.892472
11 1 -1.1104 6.69665 -0.488661 0.785219
9 1 -1.1104 6.66865 2.39331 3.79501
172 1 -1.1104 3.8838 -3.18321 6.69928
8 1 -1.1104 6.76349 -3.26555 3.70599
167 1 -1.1104 0.720616 2.26566 6.59845
15 1 -1.1104 6.88579 -0.307907 3.77329
174 1 -1.1104 3.91549 -0.441867 6.6693
202 2 2.2208 13.804 6.5153 8.02598
5 1 -1.1104 6.4381 2.43229 0.917573
313 2 2.2208 -0.366854 15.0818 8.28928
31 2 2.2208 10.8428 1.02481 5.26219
32 1 -1.1104 12.2237 -3.4356 1.09235
33 1 -1.1104 12.0675 2.13557 1.02426
34 1 -1.1104 12.1482 -3.06478 3.93949
35 1 -1.1104 12.266 2.26183 3.63316
36 1 -1.1104 12.3128 -0.538206 1.05452
37 2 2.2208 10.7873 -1.90233 2.44689
39 1 -1.1104 12.25 -0.482847 3.90249
40 1 -1.1104 9.51424 -3.2868 1.00758
41 1 -1.1104 9.24718 2.34604 0.915909
42 2 2.2208 8.1362 0.935929 2.39015
43 1 -1.1104 9.58305 -3.26782 3.91269
44 1 -1.1104 9.35628 2.32211 3.8481
45 2 2.2208 8.17267 -1.80872 5.12787
46 2 2.2208 7.8939 3.94208 5.21529
47 1 -1.1104 9.51219 -0.604424 1.04377
48 1 -1.1104 9.46902 -0.385877 3.83194
8432 2 2.2208 5.2317 -4.58631 5.15083
334 2 2.2208 -0.57711 -1.77062 13.747
206 1 -1.1104 12.1732 2.42577 6.59197
208 1 -1.1104 9.61166 -3.06329 6.6365
364 2 2.2208 5.22633 1.04198 -0.424003
355 2 2.2208 10.7447 9.2098 13.6407
38 2 2.2208 10.7801 3.75439 2.49882
201 2 2.2208 -0.5569 1.09024 10.8858
209 1 -1.1104 9.51924 2.44773 6.56284
8431 2 2.2208 2.26817 -4.5312 2.32224
205 1 -1.1104 12.4421 -3.18244 6.58222
380 2 2.2208 2.4263 9.32879 -0.419625
54 2 2.2208 5.23639 6.67724 5.19081
55 2 2.2208 5.09865 12.2385 5.19381
56 1 -1.1104 0.685205 8.06496 1.02752
58 1 -1.1104 0.909784 7.89329 3.78163
60 1 -1.1104 1.02475 5.1823 0.896932
61 1 -1.1104 1.04958 10.8245 1.10347
66 2 2.2208 5.17054 9.49542 2.41385
67 1 -1.1104 1.00597 5.06744 3.76898
68 1 -1.1104 0.887204 10.6726 3.82302
71 1 -1.1104 3.65389 7.9119 0.849897
72 2 2.2208 2.39772 6.50455 2.24003
73 2 2.2208 2.27247 12.2699 2.53192
74 1 -1.1104 3.6897 7.98936 3.70809
75 2 2.2208 2.21447 9.34964 5.18246
76 1 -1.1104 3.98696 5.19397 0.910029
77 1 -1.1104 3.82411 10.7859 1.14265
79 1 -1.1104 3.683 5.04315 3.70732
80 1 -1.1104 3.81224 10.8707 3.91707
63 1 -1.1104 6.68071 5.15813 1.0972
70 1 -1.1104 6.69593 10.8763 3.72589
236 1 -1.1104 1.10584 5.02061 6.54731
59 1 -1.1104 6.56962 8.09866 3.72784
64 1 -1.1104 6.61281 11.0289 0.818315
235 1 -1.1104 6.55653 7.95148 6.51903
239 1 -1.1104 3.85583 5.21542 6.76291
69 1 -1.1104 6.63374 5.32446 3.86054
57 1 -1.1104 6.39416 8.12206 0.887606
318 1 -1.1104 9.31028 19.4211 9.45172
234 1 -1.1104 1.11321 7.91006 6.57847
233 2 2.2208 13.6855 3.75272 5.1167
104 2 2.2208 13.6326 12.199 2.37896
84 2 2.2208 10.8023 6.60192 5.18958
85 2 2.2208 10.8298 12.1311 5.08567
86 1 -1.1104 12.1878 7.92728 0.906133
87 1 -1.1104 12.3474 7.8199 3.83042
88 1 -1.1104 12.249 4.98063 1.02007
89 1 -1.1104 12.3934 10.7882 1.02396
91 2 2.2208 10.9295 9.3209 2.41032
92 1 -1.1104 12.2225 5.01965 3.83285
93 1 -1.1104 12.152 10.7326 3.83135
94 1 -1.1104 9.26151 8.04264 0.936899
95 2 2.2208 7.92099 6.65891 2.22013
96 2 2.2208 7.93383 12.2172 2.29763
97 1 -1.1104 9.37146 7.99124 3.83021
98 2 2.2208 8.03249 9.57542 5.29183
99 1 -1.1104 9.55906 5.14598 1.03869
100 1 -1.1104 9.5174 10.6201 1.15456
102 1 -1.1104 9.46631 5.33918 3.77299
103 1 -1.1104 9.27295 10.7075 3.78664
90 1 -1.1104 12.372 10.8151 6.59191
269 1 -1.1104 9.42545 5.36808 6.67407
315 1 -1.1104 9.39697 16.3825 12.2067
385 2 2.2208 8.01376 9.3515 -0.47351
101 1 -1.1104 9.45575 11.0397 6.72467
265 1 -1.1104 12.1676 7.92262 6.60661
8434 2 2.2208 8.20207 -4.60704 2.39107
8442 2 2.2208 13.666 -4.7041 8.19757
106 2 2.2208 5.12967 17.9532 5.21479
107 1 -1.1104 0.98935 13.5771 1.16589
109 1 -1.1104 0.762461 19.2815 1.14112
113 1 -1.1104 1.05897 13.5823 3.92171
114 1 -1.1104 0.824403 19.2537 3.96639
116 1 -1.1104 0.870458 16.3863 1.12725
119 2 2.2208 5.07394 15.0886 2.27321
120 2 2.2208 5.17492 20.6226 2.47677
121 1 -1.1104 0.934829 16.4136 3.80809
123 1 -1.1104 3.68272 13.6022 0.921943
125 1 -1.1104 3.73432 19.2331 1.26365
127 2 2.2208 2.18742 17.9799 2.4884
128 1 -1.1104 3.70087 13.7499 3.75026
129 1 -1.1104 3.60803 19.4611 3.84754
130 2 2.2208 2.39372 15.0837 5.118
131 2 2.2208 2.39792 20.7648 5.27673
132 1 -1.1104 3.5815 16.5315 1.07534
134 1 -1.1104 3.81269 16.5436 3.68184
110 1 -1.1104 6.4156 13.7734 0.880047
122 1 -1.1104 6.35196 16.6697 3.84481
140 1 -1.1104 6.47681 16.5467 0.889921
115 1 -1.1104 6.52535 13.7599 3.83499
112 1 -1.1104 6.54006 19.2055 6.62755
139 1 -1.1104 6.40379 19.1539 3.90377
133 1 -1.1104 3.4848 16.4 6.57884
118 1 -1.1104 6.49559 16.4901 6.60696
138 1 -1.1104 6.42805 19.2428 1.09529
302 1 -1.1104 0.963959 19.3549 6.60949
117 1 -1.1104 0.621937 16.5529 6.72102
126 1 -1.1104 3.77945 19.3679 6.86182
8437 2 2.2208 2.48748 -4.55852 8.02111
141 2 2.2208 10.8331 17.7565 5.23589
142 1 -1.1104 12.3114 13.5499 1.08585
144 1 -1.1104 12.0358 19.3539 1.05768
146 1 -1.1104 12.0097 13.5681 3.72882
147 1 -1.1104 12.1299 19.3413 3.83379
148 1 -1.1104 12.2859 16.3886 1.12377
150 2 2.2208 10.8393 15.0692 2.29045
151 2 2.2208 10.6126 20.7854 2.40183
152 1 -1.1104 12.0978 16.4216 3.89471
153 1 -1.1104 9.25864 13.4691 0.905065
155 1 -1.1104 9.23324 19.326 0.969502
157 2 2.2208 7.77171 17.8838 2.54027
158 1 -1.1104 9.16025 13.4441 3.92563
159 1 -1.1104 9.17827 19.1352 4.12044
160 2 2.2208 7.84687 15.1257 5.27924
161 2 2.2208 7.90317 20.5697 5.32367
162 1 -1.1104 9.40204 16.4418 1.10145
164 1 -1.1104 9.37639 16.4454 3.72195
154 1 -1.1104 9.2147 13.8236 6.65809
163 1 -1.1104 9.50924 16.3021 6.59526
204 2 2.2208 13.6257 14.9372 5.26918
379 2 2.2208 5.1437 6.55647 -0.587281
143 1 -1.1104 12.0895 13.6177 6.30845
8440 2 2.2208 7.94804 -4.53253 7.92304
8441 2 2.2208 10.766 -4.63514 11.0229
173 1 -1.1104 3.61218 2.42956 6.61416
166 1 -1.1104 1.12386 -3.36522 6.76503
171 1 -1.1104 6.77449 -0.52311 6.41091
322 1 -1.1104 9.3659 13.5365 12.2343
169 1 -1.1104 6.60322 2.45835 6.59903
170 1 -1.1104 1.14155 -0.349971 6.71966
168 1 -1.1104 6.5848 -3.27905 6.6336
175 2 2.2208 5.23956 0.955694 10.93
176 1 -1.1104 0.954179 -3.18543 12.3152
177 1 -1.1104 0.745207 2.46345 12.2546
180 1 -1.1104 1.09319 -3.4341 9.60517
181 1 -1.1104 0.888927 2.2755 9.41538
184 1 -1.1104 0.99898 -0.337933 12.3119
186 2 2.2208 5.13017 -1.89806 8.08369
187 2 2.2208 5.24125 3.80156 8.13587
188 1 -1.1104 1.0254 -0.435632 9.50195
190 1 -1.1104 3.93545 -3.09935 12.369
191 1 -1.1104 3.60144 2.63766 12.3866
192 2 2.2208 2.42259 1.1364 8.11699
193 1 -1.1104 3.9271 -3.20583 9.64897
194 1 -1.1104 3.83126 2.44115 9.5177
195 2 2.2208 2.41418 -1.79559 10.9722
197 1 -1.1104 3.9433 -0.267386 12.3662
198 1 -1.1104 3.80668 -0.285471 9.56979
196 2 2.2208 2.30983 3.92604 10.9629
183 1 -1.1104 6.80469 2.28449 9.37656
178 1 -1.1104 6.65478 -3.11671 12.2655
182 1 -1.1104 6.51249 -3.12769 9.36448
189 1 -1.1104 6.49041 -0.489206 9.22826
185 1 -1.1104 6.63672 -0.276108 12.2273
179 1 -1.1104 6.45522 2.58019 12.2807
50 2 2.2208 13.5803 -1.83545 5.19313
330 1 -1.1104 12.2763 13.6384 12.4089
314 1 -1.1104 9.40352 16.4607 9.45714
105 2 2.2208 13.6688 6.41779 2.43323
320 2 2.2208 8.02097 17.8577 8.06073
332 2 2.2208 13.4061 17.9361 8.06512
229 2 2.2208 13.6828 0.892024 8.06448
203 2 2.2208 13.692 3.8415 10.6761
207 1 -1.1104 12.3178 -0.361315 6.77196
210 1 -1.1104 9.63636 -0.390507 6.5925
211 2 2.2208 10.8668 0.834433 10.7734
212 1 -1.1104 12.3881 -3.31585 12.4207
213 1 -1.1104 12.2295 2.36558 12.081
214 1 -1.1104 12.0812 -3.33717 9.4288
215 1 -1.1104 12.2801 2.41309 9.31855
216 1 -1.1104 12.3529 -0.495772 12.3266
217 2 2.2208 10.8834 -1.90524 8.03594
218 2 2.2208 10.7556 3.91698 8.0975
219 1 -1.1104 12.1783 -0.612671 9.56783
220 1 -1.1104 9.43219 -3.20237 12.519
221 1 -1.1104 9.41139 2.38608 12.2449
222 2 2.2208 8.027 1.06263 7.95028
223 1 -1.1104 9.36338 -3.52042 9.44378
224 1 -1.1104 9.42906 2.30088 9.4855
225 2 2.2208 8.02995 -1.72585 10.8831
227 1 -1.1104 9.51041 -0.43018 12.4276
228 1 -1.1104 9.50383 -0.594399 9.55948
226 2 2.2208 8.00471 3.763 10.8102
349 2 2.2208 7.79918 20.6923 -0.384346
323 1 -1.1104 12.0145 16.3422 9.48124
238 1 -1.1104 3.82052 8.00535 6.59544
65 1 -1.1104 6.75578 10.7257 6.76911
78 1 -1.1104 3.87125 10.6291 6.66233
237 1 -1.1104 6.59945 5.19799 6.51306
62 1 -1.1104 1.10948 10.6862 6.58718
240 2 2.2208 5.00839 6.85481 10.8693
241 2 2.2208 5.26074 12.3587 10.7051
242 1 -1.1104 0.959436 7.98391 12.3281
244 1 -1.1104 1.00218 7.96747 9.47641
246 1 -1.1104 0.919451 5.14874 12.3697
247 1 -1.1104 1.07084 10.8143 12.2398
250 2 2.2208 5.17903 9.39619 7.94928
251 1 -1.1104 1.1921 5.02245 9.37222
252 1 -1.1104 0.95596 10.8096 9.34622
255 1 -1.1104 3.56784 8.06177 12.1283
256 2 2.2208 2.49682 6.64545 8.06507
257 2 2.2208 2.34944 12.1934 7.94579
258 1 -1.1104 3.70848 8.04719 9.26675
259 2 2.2208 2.35471 9.49565 10.9043
260 1 -1.1104 3.76513 5.21619 12.3516
261 1 -1.1104 3.80004 10.8573 12.251
262 1 -1.1104 3.83658 5.37092 9.64193
263 1 -1.1104 3.89453 10.9146 9.48522
249 1 -1.1104 6.56935 10.9776 12.3943
253 1 -1.1104 6.67625 5.28225 9.1949
245 1 -1.1104 6.64343 8.18754 9.14131
243 1 -1.1104 6.32766 8.25838 12.0852
248 1 -1.1104 6.46364 5.4411 12.1435
254 1 -1.1104 6.52561 11.0324 9.53889
267 1 -1.1104 9.4133 8.15049 6.60766
266 1 -1.1104 12.2031 5.18905 6.57127
8439 2 2.2208 -0.424234 -4.66013 10.8691
231 2 2.2208 13.6941 20.9073 5.15406
52 2 2.2208 13.5331 9.41253 10.7717
264 1 -1.1104 9.5915 10.768 9.32166
268 1 -1.1104 9.42753 5.19695 9.5378
270 1 -1.1104 9.53152 10.7066 12.278
271 1 -1.1104 9.3343 5.1037 12.1462
272 2 2.2208 7.9245 9.45049 10.8397
273 1 -1.1104 9.25057 8.11118 9.36328
274 2 2.2208 8.19423 12.2961 8.09968
275 2 2.2208 7.97997 6.74633 8.00172
276 2 2.2208 10.7206 6.53665 10.8794
277 2 2.2208 10.8417 12.2176 10.8365
278 1 -1.1104 12.19 8.00536 12.1395
279 1 -1.1104 12.3625 7.97171 9.36486
280 1 -1.1104 12.1453 5.04154 12.1542
281 1 -1.1104 12.3167 10.7506 12.1729
282 2 2.2208 10.906 9.43983 8.01293
283 1 -1.1104 12.3736 5.18537 9.50973
284 1 -1.1104 12.2914 10.9107 9.37611
285 1 -1.1104 9.32972 7.99756 12.0827
145 1 -1.1104 12.2898 19.3473 6.71472
325 2 2.2208 10.8751 14.9125 8.05139
331 2 2.2208 10.7849 17.9504 10.8791
317 2 2.2208 8.01667 15.0156 10.8238
124 1 -1.1104 3.7957 13.5337 6.4486
108 1 -1.1104 1.03334 13.752 6.77086
289 1 -1.1104 6.45293 16.445 9.30758
306 1 -1.1104 6.54006 16.389 12.0889
290 1 -1.1104 6.62385 13.6976 9.37426
297 1 -1.1104 6.69865 13.6844 12.0605
310 2 2.2208 2.37638 15.2137 10.7892
294 1 -1.1104 1.19568 13.6875 9.43443
309 2 2.2208 2.27165 20.658 11.1919
293 2 2.2208 5.05116 20.7722 8.26253
292 1 -1.1104 0.945475 16.5815 9.71684
300 2 2.2208 5.13904 17.9668 10.9909
308 1 -1.1104 3.59328 16.4012 12.2076
299 1 -1.1104 1.06417 13.6874 12.2283
307 1 -1.1104 0.914088 16.3747 12.4757
298 1 -1.1104 0.99951 19.3522 12.4635
303 2 2.2208 2.21355 18.0082 8.11875
305 1 -1.1104 3.79657 13.5703 9.25351
301 1 -1.1104 3.63969 19.491 9.79806
295 2 2.2208 5.20296 14.9369 8.11225
304 1 -1.1104 3.60695 16.5911 9.39067
286 1 -1.1104 3.72205 19.2228 12.4102
287 1 -1.1104 3.90958 13.7531 12.1179
291 1 -1.1104 0.805691 19.4786 9.63612
296 1 -1.1104 6.40167 19.2614 12.4964
111 1 -1.1104 6.45884 13.378 6.59209
288 1 -1.1104 6.51 19.3208 9.42247
316 2 2.2208 8.06791 20.6927 11.0164
327 1 -1.1104 12.2553 19.2772 9.55353
324 2 2.2208 10.6386 20.7879 8.09208
149 1 -1.1104 12.1809 16.3599 6.59688
156 1 -1.1104 9.37575 19.0388 6.81242
321 1 -1.1104 9.2548 19.2373 12.2391
328 1 -1.1104 12.1915 13.5496 9.55417
329 1 -1.1104 12.0225 19.1997 12.3761
319 1 -1.1104 9.42216 13.6675 9.52099
8438 2 2.2208 5.16823 -4.57533 11.0844
326 1 -1.1104 12.2013 16.502 12.3416
28 2 2.2208 13.4839 20.7007 10.7345
376 2 2.2208 13.5937 12.1239 13.6016
365 2 2.2208 2.57315 -1.81597 -0.355693
53 2 2.2208 13.6754 12.2142 8.04628
370 2 2.2208 8.03714 -2.00388 -0.477645
333 2 2.2208 13.7299 15.0546 11.0399
232 2 2.2208 13.7537 9.26713 5.24742
366 2 2.2208 2.42492 3.71009 -0.47326
165 2 2.2208 13.6049 17.8006 2.47442
340 2 2.2208 13.6945 1.03533 13.7644
339 2 2.2208 2.25937 0.973885 13.6538
353 2 2.2208 2.43945 12.131 13.7218
345 2 2.2208 13.53 20.6451 -0.26061
362 2 2.2208 8.01682 17.9625 13.7052
363 2 2.2208 13.6089 17.6666 13.8341
357 2 2.2208 2.33327 17.7058 13.7735
344 2 2.2208 13.6699 14.9866 -0.395526
348 2 2.2208 10.7513 17.8426 -0.31369
336 2 2.2208 13.4485 6.54151 13.6262
8446 2 2.2208 10.899 -4.79484 -0.312087
388 2 2.2208 5.00785 1.09315 16.4479
389 1 -1.1104 0.841386 -3.35873 17.9486
390 1 -1.1104 0.905502 2.48115 17.7647
393 1 -1.1104 0.905777 -2.99715 15.1846
395 1 -1.1104 0.95732 2.29862 15.0284
401 1 -1.1104 0.777072 -0.219204 17.9711
403 2 2.2208 4.8782 -1.55558 19.3871
405 1 -1.1104 0.767615 -0.426445 15.1107
409 1 -1.1104 3.59247 -3.14751 18.0441
410 1 -1.1104 3.59642 2.40419 17.9596
411 2 2.2208 2.19082 1.19233 19.3677
412 1 -1.1104 3.68333 -3.35989 15.1639
414 1 -1.1104 3.68381 2.36496 15.0026
416 2 2.2208 2.19893 -1.73698 16.5634
418 1 -1.1104 3.54411 -0.351059 17.9395
419 1 -1.1104 3.51479 -0.469213 15.2623
417 2 2.2208 2.25258 3.72031 16.3999
392 1 -1.1104 6.39781 2.54666 17.6382
397 1 -1.1104 6.58742 -3.07919 15.1454
402 1 -1.1104 6.45318 -0.471614 17.7036
391 1 -1.1104 6.49662 -3.17955 17.8953
404 2 2.2208 4.92166 4.08969 19.4366
407 1 -1.1104 6.49371 -0.22506 15.0087
399 1 -1.1104 6.69183 2.59992 14.9357
8553 2 2.2208 5.13241 -4.6218 22.2614
8622 2 2.2208 5.03741 -4.60195 16.5831
8556 2 2.2208 7.85561 -4.61077 19.2229
428 2 2.2208 13.5848 0.96795 19.2756
431 2 2.2208 10.6455 0.873472 16.6098
432 1 -1.1104 12.1458 -3.17837 18.0119
433 1 -1.1104 12.208 2.224 18.1274
434 1 -1.1104 12.1293 -2.99841 15.1871
436 1 -1.1104 12.4017 2.48728 14.9338
438 1 -1.1104 12.079 -0.460902 17.9459
439 2 2.2208 10.7682 -1.86302 19.3137
441 1 -1.1104 12.2631 -0.200935 15.2711
443 1 -1.1104 9.37832 -3.16311 17.8669
444 1 -1.1104 9.33055 2.56063 17.7462
445 2 2.2208 7.72456 1.07258 19.2191
446 1 -1.1104 9.35501 -3.18989 15.1685
448 1 -1.1104 9.45657 2.3333 14.9244
450 2 2.2208 7.94916 -1.79514 16.4537
451 2 2.2208 7.88336 3.79582 16.3823
452 1 -1.1104 9.20242 -0.275982 17.9663
453 1 -1.1104 9.29236 -0.578437 15.0459
440 2 2.2208 10.7454 3.79157 19.3352
8454 2 2.2208 7.9794 -4.58379 13.8138
8584 2 2.2208 10.7809 -4.56255 16.4865
350 2 2.2208 10.8551 3.70452 13.675
8586 2 2.2208 2.27828 -4.71434 19.4263
8517 2 2.2208 10.6561 -4.62615 22.1102
8516 2 2.2208 7.99649 -4.64101 24.9227
400 1 -1.1104 6.42478 2.59536 20.5673
648 2 2.2208 -0.51095 12.2402 16.5617
8519 2 2.2208 2.34601 -4.57689 24.812
430 2 2.2208 13.4816 14.9999 22.1536
464 2 2.2208 5.11003 6.62271 16.453
465 2 2.2208 5.17682 12.2088 16.6302
466 1 -1.1104 0.846369 8.08651 17.8018
468 1 -1.1104 1.06267 8.06667 15.0939
472 1 -1.1104 0.916739 5.29538 17.9179
473 1 -1.1104 0.879466 10.7079 17.9773
476 2 2.2208 5.00098 9.48301 19.2407
477 1 -1.1104 0.905994 5.19328 15.1753
479 1 -1.1104 0.789468 10.8895 15.0549
485 1 -1.1104 3.72555 7.97484 17.6939
486 2 2.2208 2.24247 6.61565 19.2366
487 2 2.2208 2.21389 12.2035 19.2995
488 1 -1.1104 3.71083 8.1007 14.8137
490 2 2.2208 2.20765 9.42576 16.5657
491 1 -1.1104 3.60404 5.37207 17.8359
492 1 -1.1104 3.50002 10.7296 17.9511
493 1 -1.1104 3.77688 5.19869 15.1776
495 1 -1.1104 3.68993 10.7179 15.2955
483 1 -1.1104 6.52716 10.9023 15.1397
474 1 -1.1104 6.42544 5.31666 18.174
481 1 -1.1104 6.53509 5.42229 15.1239
475 1 -1.1104 6.40059 10.7967 17.9246
470 1 -1.1104 6.32943 8.09328 14.8237
467 1 -1.1104 6.3721 8.25264 17.7577
471 1 -1.1104 6.44196 8.05831 20.5289
489 1 -1.1104 3.63072 7.99797 20.594
482 1 -1.1104 6.55985 5.30553 20.8949
354 2 2.2208 7.80606 6.56721 13.6492
461 2 2.2208 13.6102 20.6056 22.1562
359 2 2.2208 5.23537 15.0335 13.6741
650 2 2.2208 13.5695 12.2807 19.2161
500 2 2.2208 10.8191 6.6294 16.4365
501 2 2.2208 10.6676 12.0787 16.4655
502 1 -1.1104 12.0603 7.85691 17.9001
503 1 -1.1104 12.0247 7.84499 14.8562
505 1 -1.1104 12.0747 5.04885 17.8321
506 1 -1.1104 12.0965 10.6849 17.6419
507 2 2.2208 10.8093 9.48096 19.2544
508 1 -1.1104 12.149 5.31062 15.022
510 1 -1.1104 12.1862 10.6608 15.0063
512 1 -1.1104 9.30748 8.03404 17.8564
513 2 2.2208 7.88328 6.5883 19.2985
514 2 2.2208 7.98411 12.1647 19.1379
515 1 -1.1104 9.09552 7.93126 15.0404
517 2 2.2208 7.84501 9.44336 16.379
518 1 -1.1104 9.35989 5.14937 17.8262
519 1 -1.1104 9.11812 10.7779 17.6807
520 1 -1.1104 9.3445 5.1473 15.0118
522 1 -1.1104 9.2744 10.7825 14.8931
426 2 2.2208 13.6567 9.11883 16.4688
516 1 -1.1104 9.29845 7.98798 20.5358
685 2 2.2208 -0.589351 12.2473 22.1308
523 1 -1.1104 9.35743 10.9716 20.694
338 2 2.2208 5.2461 -1.8258 13.8523
527 2 2.2208 5.07853 17.8385 16.5421
528 1 -1.1104 1.19547 13.7171 17.8133
529 1 -1.1104 0.892016 19.0682 17.915
532 1 -1.1104 0.977909 13.4666 15.052
534 1 -1.1104 0.595231 19.2682 15.1749
540 1 -1.1104 0.895158 16.3142 17.9788
542 2 2.2208 5.20762 15.0328 19.4039
543 2 2.2208 5.13935 20.5943 19.3006
544 1 -1.1104 1.02078 16.3355 15.3314
548 1 -1.1104 3.92715 13.6437 18.0425
549 1 -1.1104 3.6749 19.247 17.877
550 2 2.2208 2.3534 17.8507 19.2927
551 1 -1.1104 3.80946 13.5796 15.1343
553 1 -1.1104 3.49028 19.298 15.2258
555 2 2.2208 2.50663 15.0137 16.4997
556 2 2.2208 2.2341 20.6362 16.6144
557 1 -1.1104 3.68112 16.3835 17.9082
558 1 -1.1104 4.00884 16.4792 14.9323
536 1 -1.1104 6.50084 13.6413 15.1273
554 1 -1.1104 3.75785 19.1484 20.6305
546 1 -1.1104 6.66437 16.3516 14.9477
530 1 -1.1104 6.74741 13.6981 17.7996
538 1 -1.1104 6.47486 19.1886 15.2356
541 1 -1.1104 6.5349 16.522 17.8709
552 1 -1.1104 3.78896 13.7181 20.9301
533 1 -1.1104 0.977475 13.5909 20.7795
531 1 -1.1104 6.6286 19.4152 17.9729
537 1 -1.1104 6.62183 13.5906 20.7332
559 1 -1.1104 3.567 16.6424 20.8104
352 2 2.2208 5.06095 9.52552 13.6342
386 2 2.2208 10.7234 12.1641 27.7902
375 2 2.2208 2.23081 20.701 27.9883
619 2 2.2208 13.5845 14.9617 16.436
569 1 -1.1104 12.2408 19.2527 20.8771
563 2 2.2208 10.651 17.7627 16.5206
564 1 -1.1104 12.1887 13.4654 17.8285
565 1 -1.1104 12.272 19.0851 17.8366
566 1 -1.1104 12.0602 13.5786 15.1379
568 1 -1.1104 12.1298 19.1241 15.1712
570 1 -1.1104 12.2315 16.2969 17.8922
571 2 2.2208 10.8161 15.0538 19.4454
572 2 2.2208 10.844 20.6985 19.34
573 1 -1.1104 12.0847 16.5002 15.1533
575 1 -1.1104 9.3857 13.65 17.8495
576 1 -1.1104 9.54005 19.3602 18.0027
577 2 2.2208 8.0563 17.9881 19.2879
578 1 -1.1104 9.39367 13.6405 15.0538
580 1 -1.1104 9.3318 19.314 15.0314
582 2 2.2208 8.03071 14.9774 16.5331
583 2 2.2208 7.99806 20.6843 16.6085
584 1 -1.1104 9.40689 16.372 17.8919
585 1 -1.1104 9.43938 16.4158 15.1687
618 2 2.2208 13.4609 17.6742 19.2436
617 1 -1.1104 9.24962 16.5984 23.5712
561 1 -1.1104 9.3798 13.7465 23.4869
463 1 -1.1104 12.088 13.6176 23.6053
413 1 -1.1104 3.63429 -3.13953 20.8185
415 1 -1.1104 3.62164 2.55318 20.8241
406 1 -1.1104 0.797625 -0.374152 20.834
462 2 2.2208 10.6743 17.9103 22.1831
408 1 -1.1104 6.28147 -0.31413 20.8578
651 2 2.2208 13.5707 6.47021 19.1758
394 1 -1.1104 0.827583 -3.28435 20.7752
420 1 -1.1104 3.61188 -0.292826 20.711
398 1 -1.1104 6.48206 -3.22268 20.8368
396 1 -1.1104 1.02274 2.53162 20.8269
591 2 2.2208 5.03565 1.21812 22.0839
592 1 -1.1104 0.800819 -3.31602 23.552
593 1 -1.1104 0.856823 2.40604 23.4853
596 1 -1.1104 0.967841 -3.14786 26.3846
597 1 -1.1104 1.0939 2.34526 26.2503
600 1 -1.1104 0.867023 -0.334932 23.5311
602 2 2.2208 5.25035 -1.85142 25.0116
603 2 2.2208 5.26942 3.81535 24.8484
604 1 -1.1104 1.04682 -0.452687 26.3627
606 1 -1.1104 3.79523 -3.3311 23.5644
607 1 -1.1104 3.55709 2.51876 23.7332
608 2 2.2208 2.3984 0.971859 24.8783
609 1 -1.1104 3.75392 -3.37174 26.4041
610 1 -1.1104 3.95497 2.39747 26.2842
611 2 2.2208 2.25347 -1.8724 22.1642
613 1 -1.1104 3.71643 -0.439268 23.454
614 1 -1.1104 3.86618 -0.489196 26.253
612 2 2.2208 2.11506 3.87624 22.1555
594 1 -1.1104 6.54915 -3.1413 23.6002
595 1 -1.1104 6.53347 2.64425 23.4048
601 1 -1.1104 6.53637 -0.0845212 23.5643
599 1 -1.1104 6.57218 2.42379 26.2556
605 1 -1.1104 6.49307 -0.431941 26.2702
525 2 2.2208 10.6713 14.9248 25.0198
455 2 2.2208 13.4913 17.6132 25.063
499 1 -1.1104 12.2126 19.0066 26.5071
454 1 -1.1104 9.26113 -0.512288 20.7068
447 1 -1.1104 9.09734 -3.13051 20.7419
437 1 -1.1104 12.2292 2.41291 20.6759
442 1 -1.1104 11.9496 -0.415999 20.6796
346 2 2.2208 10.8762 -1.75271 13.7805
598 1 -1.1104 6.5006 -3.35151 26.399
423 2 2.2208 13.6075 3.72025 22.1433
435 1 -1.1104 12.2164 -3.13442 20.709
449 1 -1.1104 9.3959 2.31494 20.6906
654 2 2.2208 13.5857 0.798441 24.9261
627 2 2.2208 10.5815 0.943324 22.0963
628 1 -1.1104 12.2943 -3.31625 23.5659
629 1 -1.1104 12.1914 2.2704 23.5807
630 1 -1.1104 12.2875 -3.32278 26.3599
631 1 -1.1104 12.4236 2.23776 26.2
632 1 -1.1104 12.0512 -0.628586 23.454
633 2 2.2208 10.7501 -1.95772 24.9497
635 1 -1.1104 12.1802 -0.507655 26.2493
636 1 -1.1104 9.32661 -3.32644 23.4872
637 1 -1.1104 9.24926 2.37444 23.3075
638 2 2.2208 7.92319 1.02866 25.1195
639 1 -1.1104 9.5216 -3.43551 26.4792
640 1 -1.1104 9.28738 2.49473 26.334
641 2 2.2208 7.72977 -1.81935 22.16
643 1 -1.1104 9.19391 -0.380358 23.6488
644 1 -1.1104 9.35821 -0.662545 26.4784
634 2 2.2208 10.7519 3.77294 24.9682
642 2 2.2208 8.0488 3.84588 22.0902
653 2 2.2208 13.4448 -1.75226 22.1423
620 1 -1.1104 9.08972 16.3902 26.4112
469 1 -1.1104 1.00173 8.1456 20.6366
478 1 -1.1104 0.698704 5.26179 20.7015
480 1 -1.1104 0.791421 10.6606 20.8911
496 1 -1.1104 3.76675 10.837 20.7871
484 1 -1.1104 6.72203 10.8325 20.8375
494 1 -1.1104 3.56657 5.26935 20.8328
656 2 2.2208 5.12911 6.55552 22.1813
657 2 2.2208 5.37566 12.215 22.0708
658 1 -1.1104 0.781071 8.0263 23.4309
660 1 -1.1104 1.06545 8.00693 26.2873
662 1 -1.1104 0.95329 5.37875 23.5291
663 1 -1.1104 0.774019 10.6742 23.6161
666 2 2.2208 5.23752 9.40325 24.8257
667 1 -1.1104 1.00786 5.1655 26.3676
668 1 -1.1104 0.950275 10.9287 26.5274
671 1 -1.1104 3.67463 7.99702 23.3579
672 2 2.2208 2.43167 6.55309 24.789
673 2 2.2208 2.29624 12.1461 25.0178
674 1 -1.1104 3.90116 8.02862 25.9609
675 2 2.2208 2.26786 9.39772 22.214
676 1 -1.1104 3.7177 5.29995 23.6117
677 1 -1.1104 3.78811 10.7945 23.5803
678 1 -1.1104 3.75571 5.30973 26.3539
679 1 -1.1104 3.65999 10.6973 26.4576
669 1 -1.1104 6.42327 5.16859 26.3484
659 1 -1.1104 6.64185 7.83782 23.2455
664 1 -1.1104 6.71599 5.17856 23.4548
665 1 -1.1104 6.63196 10.7505 23.5595
670 1 -1.1104 6.58398 10.893 26.4747
661 1 -1.1104 6.81206 8.04535 25.9812
367 2 2.2208 -0.611438 9.51379 13.6847
459 2 2.2208 13.609 -1.82709 16.6869
521 1 -1.1104 9.49886 5.03287 20.6949
509 1 -1.1104 12.1898 5.20414 20.671
511 1 -1.1104 12.1365 10.9667 20.587
710 2 2.2208 13.5159 6.4096 24.8412
708 2 2.2208 13.5786 12.1883 25.0579
422 2 2.2208 13.5503 9.31664 22.1376
504 1 -1.1104 12.1583 8.05838 20.6518
687 1 -1.1104 9.40639 10.6091 26.3243
688 1 -1.1104 9.44514 5.1098 26.3585
689 1 -1.1104 9.21239 10.9704 23.4299
690 1 -1.1104 9.41154 5.25167 23.5415
691 2 2.2208 8.00209 9.46431 22.0606
692 1 -1.1104 9.45963 7.87318 26.2516
693 2 2.2208 7.90391 12.1407 24.9958
694 2 2.2208 8.17535 6.57715 24.8328
695 2 2.2208 10.829 6.53446 21.9287
696 2 2.2208 10.7099 12.3938 22.0795
697 1 -1.1104 12.152 7.95906 23.4107
698 1 -1.1104 12.2937 7.92787 26.1905
699 1 -1.1104 12.1029 5.11546 23.5552
700 1 -1.1104 12.0464 10.7193 23.6215
701 2 2.2208 10.9532 9.34786 24.8553
702 1 -1.1104 12.1018 5.05155 26.3866
703 1 -1.1104 12.2644 10.5814 26.4137
704 1 -1.1104 9.39099 7.96768 23.3615
718 1 -1.1104 6.33376 19.5784 23.5766
526 2 2.2208 10.8489 20.7024 25.0377
545 1 -1.1104 0.886099 16.5121 20.8554
547 1 -1.1104 6.49082 16.3974 20.6137
535 1 -1.1104 0.829354 19.2197 20.8485
539 1 -1.1104 6.56927 19.0373 20.7632
712 1 -1.1104 6.51808 13.7345 26.4979
588 1 -1.1104 6.38459 19.3172 26.4406
720 2 2.2208 5.06722 15.1348 25.0207
719 2 2.2208 4.95876 20.645 24.9729
717 1 -1.1104 0.812624 13.585 26.4377
714 1 -1.1104 6.29436 16.561 26.2338
680 1 -1.1104 6.4535 16.681 23.4943
709 1 -1.1104 6.58996 13.6317 23.5068
647 2 2.2208 2.48701 15.1698 22.311
649 2 2.2208 2.25251 20.7153 22.1075
652 1 -1.1104 3.7677 16.58 23.6072
655 1 -1.1104 0.989707 16.4782 23.5067
681 1 -1.1104 3.75491 13.6676 26.4398
682 1 -1.1104 3.55185 16.5198 26.3814
683 2 2.2208 2.34297 17.9196 24.9759
686 1 -1.1104 3.68664 19.3318 26.5263
705 2 2.2208 5.06764 17.9152 22.0067
706 1 -1.1104 0.823454 13.5162 23.5738
707 1 -1.1104 0.948713 19.2665 23.5457
711 1 -1.1104 3.57321 19.4271 23.5808
713 1 -1.1104 3.77911 13.6674 23.6649
715 1 -1.1104 0.986666 19.2125 26.4215
716 1 -1.1104 0.762932 16.5368 26.3564
524 1 -1.1104 12.1832 16.4006 23.6176
616 2 2.2208 7.93687 20.6984 22.1133
562 1 -1.1104 9.31724 19.372 23.5
589 1 -1.1104 9.37101 13.4715 26.2051
560 1 -1.1104 11.9759 16.3166 26.3898
341 2 2.2208 5.04649 3.95285 13.7834
574 1 -1.1104 12.1591 16.4201 20.7639
567 1 -1.1104 12.3136 13.6632 20.6831
579 1 -1.1104 9.27123 13.6749 20.5945
581 1 -1.1104 9.24552 19.4117 20.6923
586 1 -1.1104 9.44247 16.5822 20.6912
497 1 -1.1104 12.1298 19.2826 23.5563
587 2 2.2208 7.93116 17.9024 24.9887
498 1 -1.1104 12.2891 13.5397 26.5016
590 1 -1.1104 9.33333 19.23 26.2878
615 2 2.2208 7.8318 15.1988 22.2644
429 2 2.2208 13.6396 3.6391 16.606
361 2 2.2208 10.8083 15.046 13.5622
343 2 2.2208 7.91074 1.05862 13.6704
387 2 2.2208 13.6231 9.23593 27.7595
356 2 2.2208 8.01754 12.3034 13.6648
358 2 2.2208 5.04236 20.5922 13.7566
372 2 2.2208 7.92315 3.76838 27.7482
378 2 2.2208 13.6704 3.7464 27.7209
8450 2 2.2208 5.12872 -4.73806 27.8347
369 2 2.2208 10.8551 0.91418 27.826
351 2 2.2208 2.30665 6.60675 13.8902
384 2 2.2208 10.9056 6.54944 27.7431
360 2 2.2208 10.72 20.7374 13.6698
373 2 2.2208 2.1658 15.0834 27.7649
347 2 2.2208 7.85588 14.9784 27.7547
381 2 2.2208 5.06749 12.1062 27.8146
374 2 2.2208 4.9652 17.7961 27.8463
721 2 2.2208 5.26747 23.5304 5.39982
722 2 2.2208 4.97152 29.1691 5.21557
723 1 -1.1104 0.944687 24.922 0.98751
724 1 -1.1104 0.580723 25.0484 3.88174
725 1 -1.1104 0.865922 22.1607 1.20352
726 1 -1.1104 1.14262 27.6452 1.07021
727 2 2.2208 5.1352 26.2795 2.43076
728 1 -1.1104 0.907248 22.118 3.83077
729 1 -1.1104 1.03334 27.904 3.89753
730 1 -1.1104 3.5503 24.746 0.752418
731 2 2.2208 2.13687 23.5239 2.46361
732 2 2.2208 2.30632 29.0437 2.38323
733 1 -1.1104 3.51728 25.0553 3.77268
734 2 2.2208 2.27765 26.356 5.28186
735 1 -1.1104 3.56256 22.0268 1.22149
736 1 -1.1104 3.77389 27.5945 1.0588
737 1 -1.1104 3.73232 22.3585 3.86741
738 1 -1.1104 3.78231 27.8615 3.73052
743 1 -1.1104 6.55429 24.9822 4.02082
747 1 -1.1104 6.31973 27.6464 4.00977
870 1 -1.1104 3.59196 27.6232 6.58819
745 1 -1.1104 6.53527 27.5178 1.17382
744 1 -1.1104 6.56376 22.0134 1.05166
862 1 -1.1104 0.918007 24.8801 6.69773
866 1 -1.1104 6.59346 22.1717 6.76351
742 1 -1.1104 6.28647 24.6527 1.13553
746 1 -1.1104 6.50824 22.1887 3.78363
865 1 -1.1104 0.932756 27.8206 6.65974
869 1 -1.1104 3.87889 22.1298 6.82243
864 1 -1.1104 1.014 22.1642 6.65894
868 1 -1.1104 3.85833 24.8776 6.67163
863 1 -1.1104 6.7451 25.0415 6.8651
814 2 2.2208 13.7161 34.7632 2.39461
1041 2 2.2208 13.5892 26.1924 10.8259
748 2 2.2208 10.7149 23.6035 5.1839
749 2 2.2208 10.6986 29.2503 5.13194
750 1 -1.1104 12.2857 24.7896 1.01665
751 1 -1.1104 12.0234 24.9586 3.80826
752 1 -1.1104 11.9551 22.1322 1.06857
753 1 -1.1104 12.0866 27.6146 0.856179
754 2 2.2208 10.5968 26.4405 2.44549
755 1 -1.1104 11.8835 22.1231 3.92458
756 1 -1.1104 12.0918 27.7342 3.79376
757 1 -1.1104 9.40619 25.0907 1.10378
758 2 2.2208 7.81177 23.608 2.57932
759 2 2.2208 7.79038 29.1495 2.41852
760 1 -1.1104 9.38979 25.0651 3.86842
761 2 2.2208 8.00862 26.3057 5.23406
762 1 -1.1104 9.17864 22.0883 0.991707
763 1 -1.1104 9.25416 27.841 0.985257
764 1 -1.1104 9.25775 22.0286 3.73777
765 1 -1.1104 9.28548 27.8836 3.72962
897 1 -1.1104 12.1793 27.9967 6.43841
898 1 -1.1104 9.36134 24.7711 6.63892
1447 1 -1.1104 1.05509 47.4399 3.64505
767 2 2.2208 13.437 28.9659 2.33395
895 1 -1.1104 12.1418 25.1637 6.62948
899 1 -1.1104 9.32503 21.813 6.74345
1050 2 2.2208 -0.682647 31.9769 7.93788
769 2 2.2208 5.15714 34.7111 5.12038
770 1 -1.1104 0.811511 30.4155 0.993008
771 1 -1.1104 0.892064 36.0453 1.07433
773 1 -1.1104 0.811039 30.5468 3.69765
774 1 -1.1104 1.02454 36.2026 3.69966
776 1 -1.1104 0.853779 33.2384 0.813371
777 2 2.2208 5.16621 31.8388 2.31638
778 2 2.2208 4.99454 37.4714 2.36865
779 1 -1.1104 0.815353 33.321 3.67779
781 1 -1.1104 3.69419 30.5363 0.938745
782 1 -1.1104 3.74625 36.193 0.916795
783 2 2.2208 2.25367 34.5389 2.33662
784 1 -1.1104 3.61364 30.6319 3.79624
785 1 -1.1104 3.86703 35.9961 3.4555
786 2 2.2208 2.25684 31.8686 5.1455
787 2 2.2208 2.22454 37.5125 5.18554
788 1 -1.1104 3.71428 33.3989 1.00432
789 1 -1.1104 3.59124 33.3317 3.91062
780 1 -1.1104 6.55133 33.1489 3.68925
794 1 -1.1104 6.37581 30.3609 3.76959
923 1 -1.1104 0.83998 33.4792 6.48853
793 1 -1.1104 6.39626 30.5679 0.909061
795 1 -1.1104 6.52002 33.3048 0.797569
927 1 -1.1104 3.78713 33.2954 6.69215
922 1 -1.1104 6.48633 36.1395 6.72331
775 1 -1.1104 6.58574 36.1209 3.66638
772 1 -1.1104 6.57558 36.0962 0.983118
920 1 -1.1104 0.853578 36.1939 6.53146
926 1 -1.1104 3.59757 36.2467 6.47602
919 1 -1.1104 0.895368 30.7158 6.63463
925 1 -1.1104 3.60065 30.4873 6.49384
1053 2 2.2208 13.5142 45.8562 8.13803
1039 2 2.2208 13.4716 31.9471 5.10065
796 2 2.2208 10.6916 34.7816 5.25583