ITEM: TIMESTEP
90000
ITEM: NUMBER OF ATOMS
17910
ITEM: BOX BOUNDS pp pp pp
-3.9807461272965167e-01 2.7738074612730081e+01
-4.7410366637306307e+00 3.3282103666373411e+02
-3.9242747895179519e-01 2.7732427478950417e+01
ITEM: ATOMS id type q x y z
1 2 2.2208 5.12633 0.89174 5.38423
2 1 -1.1104 0.975629 -3.36451 1.11689
3 1 -1.1104 1.08985 2.26194 0.9833
6 1 -1.1104 0.955471 -3.44085 4.01749
7 1 -1.1104 0.836194 2.46277 3.75009
10 1 -1.1104 1.13495 -0.611947 1.15459
12 2 2.2208 5.17168 -1.98475 2.38229
14 1 -1.1104 0.941015 -0.561075 3.83764
16 1 -1.1104 3.77398 -3.37128 1.03064
17 1 -1.1104 3.98186 2.1079 1.08668
18 2 2.2208 2.37138 0.876163 2.41393
19 1 -1.1104 3.71277 -3.36025 3.83893
20 1 -1.1104 3.7377 2.2461 3.83217
21 2 2.2208 2.23895 -1.96886 5.26674
22 2 2.2208 2.28864 3.61592 5.18888
23 1 -1.1104 3.80235 -0.621584 1.01116
24 1 -1.1104 3.79943 -0.505235 3.88289
13 2 2.2208 5.35106 3.5669 2.48343
8 1 -1.1104 6.61763 -3.37538 4.01141
4 1 -1.1104 6.39907 -3.40844 1.0939
168 1 -1.1104 6.8464 -3.3388 6.71325
332 2 2.2208 13.6993 17.6608 8.10279
174 1 -1.1104 3.7285 -0.623964 6.71906
166 1 -1.1104 0.897175 -3.37884 6.80077
169 1 -1.1104 6.45179 2.22412 6.83239
379 2 2.2208 5.25807 6.31998 -0.432176
386 2 2.2208 10.7363 12.2437 -0.499915
49 2 2.2208 13.6339 0.895585 2.50113
15 1 -1.1104 6.59079 -0.546359 3.87258
5 1 -1.1104 6.85194 2.15248 1.02542
11 1 -1.1104 6.78321 -0.57604 1.09399
50 2 2.2208 13.5963 -1.85389 5.36039
9 1 -1.1104 6.50956 2.16332 4.08519
31 2 2.2208 10.8226 0.849436 5.24885
32 1 -1.1104 12.0704 -3.58899 0.904829
33 1 -1.1104 12.3247 2.17403 1.14633
34 1 -1.1104 12.2152 -3.24303 3.90049
35 1 -1.1104 12.1498 2.1717 3.92304
36 1 -1.1104 12.4324 -0.586865 0.871619
37 2 2.2208 10.7978 -1.94572 2.50901
39 1 -1.1104 12.3995 -0.581416 3.84355
40 1 -1.1104 9.41103 -3.31796 1.21189
41 1 -1.1104 9.53454 2.34195 0.970981
42 2 2.2208 8.02403 0.787149 2.48666
43 1 -1.1104 9.35895 -3.35835 4.12666
44 1 -1.1104 9.41269 2.19624 3.90932
45 2 2.2208 7.96816 -2.05846 5.24698
47 1 -1.1104 9.54976 -0.579628 0.960641
48 1 -1.1104 9.31071 -0.398213 3.83184
38 2 2.2208 10.749 3.48458 2.55632
46 2 2.2208 7.90418 3.48281 5.42309
8440 2 2.2208 8.12055 -4.84458 8.18622
171 1 -1.1104 6.5464 -0.630196 6.62825
207 1 -1.1104 12.2585 -0.55272 6.65083
208 1 -1.1104 9.53181 -3.54471 6.74657
345 2 2.2208 13.7606 20.5027 -0.479238
54 2 2.2208 5.07798 6.41523 5.30953
55 2 2.2208 5.33088 12.0483 5.12944
56 1 -1.1104 1.19598 7.88474 1.01713
58 1 -1.1104 1.17029 7.92261 3.9566
60 1 -1.1104 0.847849 5.05386 1.02579
61 1 -1.1104 1.02446 10.8175 1.07827
66 2 2.2208 5.26247 9.17747 2.2658
67 1 -1.1104 1.06805 5.11246 3.7071
68 1 -1.1104 0.965675 10.8296 4.04697
71 1 -1.1104 3.89575 7.69146 1.06531
72 2 2.2208 2.49683 6.48091 2.46732
73 2 2.2208 2.47616 12.0859 2.31861
74 1 -1.1104 3.71873 7.90121 3.91743
75 2 2.2208 2.42252 9.41162 5.2317
76 1 -1.1104 3.78597 4.9869 1.17791
77 1 -1.1104 3.86096 10.6417 0.957746
79 1 -1.1104 3.96357 5.19063 3.9372
80 1 -1.1104 3.78697 10.8966 3.88538
331 2 2.2208 10.7867 17.5599 10.8759
385 2 2.2208 8.11764 9.32838 -0.47524
319 1 -1.1104 9.2647 13.5708 9.37589
63 1 -1.1104 6.58492 5.04815 1.0723
62 1 -1.1104 0.949377 10.8171 6.83333
239 1 -1.1104 3.63425 5.04072 6.88508
78 1 -1.1104 3.7883 10.6793 6.66318
235 1 -1.1104 6.61915 7.91066 6.72934
27 2 2.2208 -0.381149 3.69293 2.32271
64 1 -1.1104 6.78576 10.653 0.806505
59 1 -1.1104 6.63178 7.61702 3.88854
70 1 -1.1104 6.66735 10.7655 3.62658
57 1 -1.1104 6.66535 7.86639 1.03812
237 1 -1.1104 6.30964 4.95013 6.82728
69 1 -1.1104 6.55912 4.72386 3.9626
84 2 2.2208 10.7687 6.33769 5.31576
85 2 2.2208 10.6246 12.0831 5.21546
86 1 -1.1104 12.2519 7.82736 1.20319
87 1 -1.1104 12.2648 7.66994 3.9978
88 1 -1.1104 12.2447 5.07226 0.770701
89 1 -1.1104 12.3674 10.695 1.04146
91 2 2.2208 10.9211 9.33359 2.42441
92 1 -1.1104 12.2468 4.98857 3.80806
93 1 -1.1104 12.0751 10.7853 3.79727
94 1 -1.1104 9.32793 7.90417 1.10805
95 2 2.2208 8.0507 6.19386 2.50944
96 2 2.2208 8.05424 12.0136 2.26072
97 1 -1.1104 9.54332 7.88149 3.97907
98 2 2.2208 8.11473 9.20728 5.20195
99 1 -1.1104 9.54305 4.97391 1.26746
100 1 -1.1104 9.71312 10.7355 0.967659
102 1 -1.1104 9.30728 4.98885 4.09101
103 1 -1.1104 9.32663 10.8078 3.80418
90 1 -1.1104 12.1847 10.6887 6.70305
267 1 -1.1104 9.38277 7.82226 6.75285
326 1 -1.1104 12.201 16.3337 12.2831
266 1 -1.1104 11.8463 4.8336 6.56761
322 1 -1.1104 9.28374 13.5262 12.2596
368 2 2.2208 -0.358486 0.869915 -0.290808
381 2 2.2208 5.26316 12.0707 -0.525891
106 2 2.2208 5.18554 17.8505 5.10554
107 1 -1.1104 0.814926 13.4254 1.25375
109 1 -1.1104 0.871162 19.0442 1.28207
113 1 -1.1104 1.08436 13.5995 3.89191
114 1 -1.1104 0.834252 19.142 3.93201
116 1 -1.1104 0.893256 16.0338 1.08779
119 2 2.2208 5.22919 15.0513 2.31758
120 2 2.2208 5.18347 20.6054 2.17301
121 1 -1.1104 1.08201 16.4108 3.84523
123 1 -1.1104 3.65489 13.3797 0.823531
125 1 -1.1104 3.67809 19.2655 0.919893
127 2 2.2208 2.31425 17.7567 2.36951
128 1 -1.1104 3.75206 13.6331 3.7301
129 1 -1.1104 3.78574 19.3688 3.62268
130 2 2.2208 2.55991 14.8882 5.30846
131 2 2.2208 2.32962 20.4511 5.10428
132 1 -1.1104 3.75576 16.2307 1.03222
134 1 -1.1104 3.71294 16.5278 3.87897
117 1 -1.1104 0.841822 16.4087 6.73221
302 1 -1.1104 0.883711 19.1903 6.64891
115 1 -1.1104 6.54238 13.5584 3.69069
139 1 -1.1104 6.42892 19.2618 3.80791
126 1 -1.1104 3.77803 19.1437 6.48286
133 1 -1.1104 3.6165 16.361 6.70039
124 1 -1.1104 3.97668 13.5059 6.73643
105 2 2.2208 13.6492 6.42289 2.4409
297 1 -1.1104 6.64142 13.5116 12.2564
288 1 -1.1104 6.56313 19.1019 9.56841
110 1 -1.1104 6.57971 13.5996 0.855224
140 1 -1.1104 6.42582 16.4709 0.846369
138 1 -1.1104 6.80615 19.2148 1.03889
122 1 -1.1104 6.62882 16.3909 3.60423
141 2 2.2208 10.8711 17.5991 5.23847
142 1 -1.1104 12.3818 13.4358 0.86985
144 1 -1.1104 12.1153 19.1164 0.937349
146 1 -1.1104 12.1158 13.5188 3.54955
147 1 -1.1104 12.025 19.1451 3.72984
148 1 -1.1104 12.1444 16.2507 1.10308
150 2 2.2208 10.7077 14.9119 2.477
151 2 2.2208 10.8318 20.5654 2.39928
152 1 -1.1104 12.1396 16.0889 3.92825
153 1 -1.1104 9.32663 13.5199 0.728815
155 1 -1.1104 9.40685 19.1072 0.992902
157 2 2.2208 7.97818 17.7107 2.38737
158 1 -1.1104 9.27416 13.514 3.49897
159 1 -1.1104 9.44217 19.0971 3.96108
160 2 2.2208 7.98477 14.9457 5.26521
161 2 2.2208 8.18411 20.436 5.27698
162 1 -1.1104 9.24184 16.2534 1.02149
164 1 -1.1104 9.44695 16.3866 3.71109
156 1 -1.1104 9.56762 19.0499 6.62561
154 1 -1.1104 9.3948 13.4582 6.53497
163 1 -1.1104 9.42625 16.1968 6.7547
145 1 -1.1104 12.1468 19.0404 6.72973
143 1 -1.1104 12.0243 13.3759 6.6547
118 1 -1.1104 6.50325 16.1406 6.32917
229 2 2.2208 13.623 0.918385 8.04223
170 1 -1.1104 0.831292 -0.633989 6.68709
172 1 -1.1104 3.85892 -3.41938 6.76996
167 1 -1.1104 0.82986 2.13648 6.75925
173 1 -1.1104 3.56882 2.27269 6.5843
175 2 2.2208 5.1166 0.796911 10.8495
176 1 -1.1104 0.813425 -3.49563 12.3411
177 1 -1.1104 0.866712 2.23114 12.2444
180 1 -1.1104 0.855508 -3.39306 9.51837
181 1 -1.1104 1.0595 2.3956 9.60116
184 1 -1.1104 1.11519 -0.687826 12.5377
186 2 2.2208 5.37792 -1.98635 7.98858
187 2 2.2208 5.01102 3.59934 8.16894
188 1 -1.1104 0.999541 -0.409208 9.50795
190 1 -1.1104 3.67872 -3.25392 12.3273
191 1 -1.1104 3.71803 2.14375 12.3301
192 2 2.2208 2.19003 0.873479 8.11589
193 1 -1.1104 3.8502 -3.28793 9.51464
194 1 -1.1104 3.66246 2.24038 9.42953
195 2 2.2208 2.24239 -1.97521 10.8168
197 1 -1.1104 3.73604 -0.602085 12.5109
198 1 -1.1104 3.7228 -0.497397 9.5944
196 2 2.2208 2.26077 3.68525 10.944
179 1 -1.1104 6.40695 2.24465 12.3919
189 1 -1.1104 6.54567 -0.567918 9.52808
182 1 -1.1104 6.5412 -3.22152 9.51042
178 1 -1.1104 6.45162 -3.53962 12.4237
185 1 -1.1104 6.47787 -0.705512 12.1041
361 2 2.2208 10.8798 15.0376 13.6326
320 2 2.2208 8.02806 17.6782 8.00605
374 2 2.2208 5.05859 17.7634 -0.54688
8446 2 2.2208 10.8312 -4.99667 -0.339103
233 2 2.2208 13.4883 3.72658 5.36859
206 1 -1.1104 12.1649 2.08873 6.72681
205 1 -1.1104 12.1577 -3.4454 6.75006
209 1 -1.1104 9.31329 2.1921 6.68029
183 1 -1.1104 6.59324 2.24081 9.68798
210 1 -1.1104 9.42393 -0.570907 6.8412
211 2 2.2208 10.6816 0.78587 10.8921
212 1 -1.1104 12.3591 -3.43542 12.3147
213 1 -1.1104 12.1982 2.18678 12.1414
214 1 -1.1104 12.2058 -3.29149 9.53853
215 1 -1.1104 12.2852 2.26385 9.38427
216 1 -1.1104 12.3094 -0.664026 12.271
217 2 2.2208 10.7745 -1.93791 8.17093
218 2 2.2208 10.8734 3.58979 8.06794
219 1 -1.1104 12.2659 -0.577927 9.45118
220 1 -1.1104 9.36084 -3.18783 12.2619
221 1 -1.1104 9.2745 2.27795 12.2415
222 2 2.2208 7.9014 0.8334 8.1119
223 1 -1.1104 9.55577 -3.57599 9.59774
224 1 -1.1104 9.49917 2.11621 9.38494
225 2 2.2208 8.00132 -1.97639 10.9059
227 1 -1.1104 9.39246 -0.616206 12.3184
228 1 -1.1104 9.3749 -0.636339 9.59127
226 2 2.2208 8.06221 3.67907 11.0147
30 2 2.2208 -0.539974 9.20004 8.03521
377 2 2.2208 13.5982 -1.89833 -0.520594
315 1 -1.1104 9.3712 16.1825 12.213
236 1 -1.1104 0.834924 4.83117 6.51081
238 1 -1.1104 3.6734 7.74069 6.70368
234 1 -1.1104 0.95107 7.88844 6.70044
240 2 2.2208 5.09965 6.50268 10.9812
241 2 2.2208 5.08932 12.1382 10.9667
242 1 -1.1104 0.96941 7.86664 12.3727
244 1 -1.1104 0.847141 7.90697 9.59097
246 1 -1.1104 0.713309 5.0625 12.4023
247 1 -1.1104 0.931656 10.6156 12.4572
250 2 2.2208 5.03491 9.14262 8.08368
251 1 -1.1104 0.864092 5.16265 9.45621
252 1 -1.1104 0.687744 10.8911 9.56587
255 1 -1.1104 3.72515 7.74844 12.339
256 2 2.2208 2.24075 6.41621 8.14925
257 2 2.2208 2.37191 12.253 8.01941
258 1 -1.1104 3.70772 7.76916 9.59309
259 2 2.2208 2.2068 9.33862 10.8773
260 1 -1.1104 3.60328 4.98921 12.4456
261 1 -1.1104 3.72601 10.659 12.2842
262 1 -1.1104 3.71804 4.94493 9.66925
263 1 -1.1104 3.51018 10.5454 9.40414
253 1 -1.1104 6.6615 4.92095 9.49213
254 1 -1.1104 6.60299 10.8313 9.4992
248 1 -1.1104 6.50627 5.25517 12.3271
362 2 2.2208 8.02703 17.6756 13.5751
104 2 2.2208 13.6256 11.9792 2.41118
202 2 2.2208 13.5115 6.48498 8.04978
232 2 2.2208 13.5608 9.1957 5.20343
101 1 -1.1104 9.2351 10.7726 6.66704
269 1 -1.1104 9.23203 4.95282 6.77317
265 1 -1.1104 12.2606 7.8298 6.65899
316 2 2.2208 8.01105 20.5137 10.9381
245 1 -1.1104 6.46957 7.79666 9.52195
243 1 -1.1104 6.51439 7.86064 12.3521
249 1 -1.1104 6.62161 10.636 12.3149
65 1 -1.1104 6.55128 10.539 6.54017
264 1 -1.1104 9.49621 10.5546 9.31912
268 1 -1.1104 9.52051 4.84488 9.6581
270 1 -1.1104 9.31814 10.6859 12.3495
271 1 -1.1104 9.48735 4.95145 12.4461
272 2 2.2208 7.922 9.26648 11.0322
273 1 -1.1104 9.2525 7.83858 9.71698
274 2 2.2208 7.94653 11.8836 8.05412
275 2 2.2208 7.85044 6.43146 8.21463
276 2 2.2208 10.8112 6.35707 11.0834
277 2 2.2208 10.7731 12.1333 10.7915
278 1 -1.1104 12.2434 7.86476 12.4386
279 1 -1.1104 11.9997 7.93684 9.62788
280 1 -1.1104 12.1286 5.02615 12.3031
281 1 -1.1104 12.2543 10.72 12.385
282 2 2.2208 10.7654 9.232 8.08648
283 1 -1.1104 12.2576 5.228 9.41137
284 1 -1.1104 12.1415 10.6664 9.57517
285 1 -1.1104 9.34432 8.1456 12.4811
230 2 2.2208 13.6991 -1.99804 10.918
8434 2 2.2208 8.15831 -4.78118 2.48617
296 1 -1.1104 6.85517 19.1402 12.3837
204 2 2.2208 13.588 14.7206 5.24274
203 2 2.2208 13.663 3.63893 10.8386
290 1 -1.1104 6.41863 13.4893 9.61701
111 1 -1.1104 6.73117 13.3093 6.70247
289 1 -1.1104 6.64895 16.2446 9.21155
108 1 -1.1104 1.06075 13.5132 6.68208
310 2 2.2208 2.445 15.0741 10.7594
294 1 -1.1104 0.998037 13.5354 9.49037
309 2 2.2208 2.42537 20.3744 10.8356
293 2 2.2208 5.3026 20.5965 8.10774
292 1 -1.1104 0.896211 16.3627 9.52507
300 2 2.2208 5.2601 17.8102 10.7718
308 1 -1.1104 3.89657 16.3361 12.2979
299 1 -1.1104 0.980666 13.683 12.1392
307 1 -1.1104 1.05652 16.4434 12.2668
298 1 -1.1104 1.10744 19.0814 12.2309
303 2 2.2208 2.35736 17.856 8.01812
305 1 -1.1104 3.83278 13.8847 9.46083
301 1 -1.1104 3.77424 19.2301 9.38624
295 2 2.2208 5.30346 14.8872 7.88829
304 1 -1.1104 3.805 16.5521 9.51791
286 1 -1.1104 3.87351 18.9297 12.3311
287 1 -1.1104 3.70524 13.3414 12.2142
291 1 -1.1104 1.06658 19.1562 9.55203
137 2 2.2208 -0.578318 17.8409 5.29371
136 2 2.2208 -0.561603 20.4143 2.39829
329 1 -1.1104 12.2812 19.166 12.1537
324 2 2.2208 10.9268 20.5925 8.15558
328 1 -1.1104 12.0713 13.6361 9.52575
323 1 -1.1104 12.2112 16.31 9.53855
112 1 -1.1104 6.70187 19.1155 6.81017
318 1 -1.1104 9.45884 19.1179 9.38619
149 1 -1.1104 12.3499 16.2174 6.83916
306 1 -1.1104 6.54971 16.4779 12.201
314 1 -1.1104 9.29943 16.3153 9.42647
330 1 -1.1104 12.1302 13.6245 12.2255
327 1 -1.1104 12.3673 19.1076 9.4967
317 2 2.2208 7.99681 14.8472 10.7412
325 2 2.2208 10.7341 14.832 8.06877
321 1 -1.1104 9.62379 18.9967 12.0027
380 2 2.2208 2.45947 9.23593 -0.342446
313 2 2.2208 -0.517113 14.9515 8.05134
52 2 2.2208 13.5354 9.25201 10.9549
350 2 2.2208 11.0341 3.51192 13.7681
165 2 2.2208 13.5586 17.6279 2.41911
384 2 2.2208 10.8598 6.55804 -0.35684
83 2 2.2208 -0.408463 12.1914 5.25112
355 2 2.2208 10.7548 9.42061 13.7278
352 2 2.2208 5.25639 9.26924 13.7014
378 2 2.2208 13.6826 3.62643 -0.365753
357 2 2.2208 2.28083 17.712 13.7256
383 2 2.2208 -0.284853 6.36558 -0.401677
359 2 2.2208 5.1141 14.8624 13.629
333 2 2.2208 13.69 14.9833 10.9666
82 2 2.2208 -0.346942 9.39127 2.55026
358 2 2.2208 5.13681 20.4944 13.7036
8458 2 2.2208 2.23951 -4.96377 13.7735
349 2 2.2208 7.93726 20.5978 -0.555362
372 2 2.2208 8.17429 3.71183 -0.442269
365 2 2.2208 2.35764 -1.87224 -0.403407
354 2 2.2208 8.03545 6.46689 14.015
388 2 2.2208 5.16178 0.971328 16.4976
389 1 -1.1104 0.88354 -3.36101 17.957
390 1 -1.1104 0.949624 2.10017 17.8965
393 1 -1.1104 0.856831 -3.61512 15.002
395 1 -1.1104 0.736365 2.31171 15.0954
401 1 -1.1104 1.173 -0.669761 18.018
403 2 2.2208 5.35647 -2.02749 19.3116
405 1 -1.1104 1.10322 -0.619395 15.3557
409 1 -1.1104 3.77253 -3.41728 17.96
410 1 -1.1104 3.81678 2.16944 17.893
411 2 2.2208 2.57644 0.831246 19.3063
412 1 -1.1104 3.82365 -3.37395 15.1903
414 1 -1.1104 3.79827 2.18247 15.1381
416 2 2.2208 2.42869 -2.05641 16.4873
418 1 -1.1104 4.02936 -0.464777 18.0598
419 1 -1.1104 3.82101 -0.47323 15.3482
404 2 2.2208 5.24554 3.67202 19.281
417 2 2.2208 2.37068 3.63436 16.5887
392 1 -1.1104 6.69995 2.39659 17.9118
402 1 -1.1104 6.86133 -0.469025 17.8823
391 1 -1.1104 6.6006 -3.38696 18.0005
650 2 2.2208 13.5143 11.9943 19.2468
399 1 -1.1104 6.71618 2.40005 15.204
407 1 -1.1104 6.45231 -0.646769 14.9586
397 1 -1.1104 6.57583 -3.44881 15.301
398 1 -1.1104 6.50341 -3.52402 20.6449
626 2 2.2208 -0.550589 3.55891 25.0266
340 2 2.2208 13.6956 0.712418 13.6027
431 2 2.2208 10.8335 0.744961 16.5126
432 1 -1.1104 12.3034 -3.28334 17.8076
433 1 -1.1104 12.0711 2.26798 17.9212
434 1 -1.1104 12.3613 -3.33305 14.9221
436 1 -1.1104 12.4069 2.17028 15.1632
438 1 -1.1104 12.2368 -0.577932 17.9354
439 2 2.2208 10.8147 -1.9334 19.2808
441 1 -1.1104 12.3071 -0.579284 15.0838
443 1 -1.1104 9.52721 -3.55019 17.7735
444 1 -1.1104 9.46927 2.16628 17.9808
445 2 2.2208 7.99744 0.836752 19.3201
446 1 -1.1104 9.30738 -3.48957 14.9803
448 1 -1.1104 9.49488 2.15708 15.0418
450 2 2.2208 8.07358 -1.99393 16.4647
451 2 2.2208 8.01959 3.57891 16.576
452 1 -1.1104 9.43807 -0.674979 17.9723
453 1 -1.1104 9.40886 -0.55415 15.239
440 2 2.2208 10.8108 3.64465 19.3951
454 1 -1.1104 9.3922 -0.381196 20.8946
376 2 2.2208 13.5147 12.1529 13.6663
8556 2 2.2208 8.08662 -4.8685 19.3566
449 1 -1.1104 9.17221 2.39398 20.7236
341 2 2.2208 5.08321 3.61945 13.7496
426 2 2.2208 13.5722 9.30053 16.4071
464 2 2.2208 5.12992 6.46179 16.532
465 2 2.2208 5.11194 12.0651 16.429
466 1 -1.1104 0.953204 7.76588 18.0323
468 1 -1.1104 1.06626 7.82885 15.2176
472 1 -1.1104 1.06486 4.97274 17.9274
473 1 -1.1104 0.964761 10.6828 18.1059
476 2 2.2208 5.16629 9.27909 19.5622
477 1 -1.1104 0.992936 5.00419 15.2114
479 1 -1.1104 0.975121 10.4765 15.1902
485 1 -1.1104 3.86655 7.85737 18.1069
486 2 2.2208 2.40543 6.47838 19.4426
487 2 2.2208 2.29484 11.9317 19.4333
488 1 -1.1104 3.85447 7.96477 15.2343
490 2 2.2208 2.3672 9.19139 16.5953
491 1 -1.1104 3.73139 4.98178 17.9584
492 1 -1.1104 3.77313 10.6174 18.1741
493 1 -1.1104 3.77519 5.06539 15.1686
495 1 -1.1104 3.80854 10.7085 15.0376
478 1 -1.1104 1.06745 4.88267 20.7926
483 1 -1.1104 6.56747 10.5622 15.0428
467 1 -1.1104 6.67258 7.93846 17.9467
8622 2 2.2208 5.3064 -4.85362 16.659
470 1 -1.1104 6.7576 7.79787 15.2851
475 1 -1.1104 6.46361 10.8243 17.9531
8553 2 2.2208 5.28001 -4.84484 22.2665
351 2 2.2208 2.38944 6.42305 13.8186
651 2 2.2208 13.6066 6.43041 19.3149
474 1 -1.1104 6.4783 5.07628 17.8353
481 1 -1.1104 6.46494 5.06096 15.1318
500 2 2.2208 10.8369 6.4583 16.6252
501 2 2.2208 10.8295 12.1666 16.5189
502 1 -1.1104 12.367 7.74966 17.7947
503 1 -1.1104 12.0185 7.87616 15.158
505 1 -1.1104 12.3237 4.9984 17.9177
506 1 -1.1104 12.1536 10.6166 18.0041
507 2 2.2208 10.9259 9.2329 19.3352
508 1 -1.1104 12.392 4.87225 15.1368
510 1 -1.1104 12.1947 10.7871 15.2449
512 1 -1.1104 9.48447 7.8902 17.9911
513 2 2.2208 7.98347 6.36133 19.1565
514 2 2.2208 8.07972 12.0379 19.0796
515 1 -1.1104 9.51539 7.72448 15.3114
517 2 2.2208 7.95745 9.26815 16.6834
518 1 -1.1104 9.55536 4.89944 18.0245
519 1 -1.1104 9.46718 10.7644 17.73
520 1 -1.1104 9.30837 5.02332 15.2432
522 1 -1.1104 9.25095 10.6747 15.0212
509 1 -1.1104 12.4043 5.01561 20.7415
511 1 -1.1104 12.2643 10.5254 20.8446
504 1 -1.1104 12.2944 7.80594 20.6375
516 1 -1.1104 9.49122 7.69338 20.8299
523 1 -1.1104 9.57401 10.6129 20.5447
360 2 2.2208 10.7355 20.5502 13.5122
527 2 2.2208 5.11241 17.845 16.5053
528 1 -1.1104 0.806404 13.5295 17.8194
529 1 -1.1104 0.813755 18.966 18.1136
532 1 -1.1104 0.862807 13.4205 14.853
534 1 -1.1104 0.948525 19.0663 15.0571
540 1 -1.1104 0.961546 16.2537 17.9864
542 2 2.2208 5.0869 14.7924 19.2026
543 2 2.2208 5.21367 20.5804 19.4632
544 1 -1.1104 0.857884 16.2432 15.0296
548 1 -1.1104 3.7255 13.2164 17.8262
549 1 -1.1104 3.63439 19.0486 17.8919
550 2 2.2208 2.32383 17.6684 19.3664
551 1 -1.1104 3.67558 13.5798 15.0146
553 1 -1.1104 3.76377 18.9838 15.12
555 2 2.2208 2.15397 15.0303 16.4821
556 2 2.2208 2.44132 20.4682 16.5903
557 1 -1.1104 3.76195 16.2868 18.0262
558 1 -1.1104 3.48693 16.3539 15.1891
559 1 -1.1104 3.81159 16.2088 20.6569
533 1 -1.1104 0.808052 13.3069 20.7474
422 2 2.2208 13.6503 9.27029 22.1445
619 2 2.2208 13.6022 14.8984 16.5692
541 1 -1.1104 6.6699 16.3126 17.6294
530 1 -1.1104 6.57702 13.561 17.4931
546 1 -1.1104 6.43858 16.3027 14.9431
547 1 -1.1104 6.73598 16.2858 20.4907
552 1 -1.1104 3.65147 13.6178 20.5777
535 1 -1.1104 0.886247 18.9322 20.9535
554 1 -1.1104 3.67048 19.0566 20.6474
338 2 2.2208 4.99346 -1.99791 13.7462
363 2 2.2208 13.704 17.6978 13.7066
536 1 -1.1104 6.55931 13.417 14.9537
538 1 -1.1104 6.51473 19.1961 15.1663
531 1 -1.1104 6.55758 19.2416 17.9146
563 2 2.2208 10.8244 17.8714 16.3075
564 1 -1.1104 12.1622 13.5675 17.8288
565 1 -1.1104 12.2227 19.2874 17.7179
566 1 -1.1104 12.2517 13.4939 15.0146
568 1 -1.1104 12.1248 19.2136 14.963
570 1 -1.1104 12.3252 16.5278 17.7658
571 2 2.2208 10.8363 14.9439 19.142
572 2 2.2208 10.9249 20.6196 19.1708
573 1 -1.1104 12.1978 16.3572 15.103
575 1 -1.1104 9.52159 13.542 17.8278
576 1 -1.1104 9.21187 19.1026 17.8357
577 2 2.2208 7.93425 17.7519 19.09
578 1 -1.1104 9.33776 13.6951 15.0534
580 1 -1.1104 9.27026 19.1617 14.9071
582 2 2.2208 7.99098 15.008 16.3896
583 2 2.2208 7.93744 20.595 16.5459
584 1 -1.1104 9.50136 16.3483 17.8541
585 1 -1.1104 9.33342 16.368 15.0785
567 1 -1.1104 12.1795 13.5927 20.5241
458 2 2.2208 -0.497353 20.468 19.2566
343 2 2.2208 7.79419 0.716852 13.5584
710 2 2.2208 13.6753 6.44305 24.9289
394 1 -1.1104 1.13462 -3.3872 20.6629
413 1 -1.1104 3.92992 -3.4654 20.7674
406 1 -1.1104 0.983319 -0.753356 20.7121
396 1 -1.1104 0.877521 1.87163 20.6784
408 1 -1.1104 6.76349 -0.582816 20.6425
420 1 -1.1104 3.84006 -0.575464 20.7397
415 1 -1.1104 3.80928 2.41174 20.56
591 2 2.2208 5.40418 0.781538 22.105
592 1 -1.1104 0.938986 -3.33922 23.5281
593 1 -1.1104 1.01326 2.31539 23.5657
596 1 -1.1104 0.745061 -3.31021 26.4329
597 1 -1.1104 1.13018 2.23497 26.3634
600 1 -1.1104 1.0424 -0.352436 23.515
602 2 2.2208 5.22403 -2.11063 25.0042
603 2 2.2208 5.25735 3.53256 25.0024
604 1 -1.1104 0.964051 -0.491973 26.4574
606 1 -1.1104 3.70728 -3.38119 23.6052
607 1 -1.1104 4.0172 2.24854 23.5112
608 2 2.2208 2.37145 0.920474 24.9714
609 1 -1.1104 3.56475 -3.22347 26.5185
610 1 -1.1104 3.7796 2.1313 26.5067
611 2 2.2208 2.42711 -2.02674 22.137
613 1 -1.1104 3.77302 -0.482246 23.5808
614 1 -1.1104 3.72777 -0.529613 26.3409
612 2 2.2208 2.4272 3.49267 22.2334
594 1 -1.1104 6.64747 -3.52925 23.6156
605 1 -1.1104 6.54519 -0.720765 26.4533
601 1 -1.1104 6.63044 -0.755705 23.5092
599 1 -1.1104 6.56995 2.1506 26.3988
560 1 -1.1104 12.0353 16.4356 26.2747
461 2 2.2208 13.6621 20.4434 21.9681
586 1 -1.1104 9.40166 16.1561 20.7169
430 2 2.2208 13.5716 15.0631 22.0621
447 1 -1.1104 9.26156 -3.31177 20.6206
714 1 -1.1104 6.40466 16.4269 26.3291
435 1 -1.1104 12.1879 -3.2667 20.4279
400 1 -1.1104 6.48473 2.1887 20.6746
598 1 -1.1104 6.48791 -3.54488 26.3702
595 1 -1.1104 6.82505 2.2049 23.5795
442 1 -1.1104 12.1036 -0.526672 20.6503
437 1 -1.1104 12.2513 2.18345 20.9096
627 2 2.2208 10.7957 0.858383 22.2247
628 1 -1.1104 12.3216 -3.35272 23.5793
629 1 -1.1104 12.3416 2.22245 23.4371
630 1 -1.1104 12.2042 -3.32234 26.2557
631 1 -1.1104 12.3467 2.24789 26.1836
632 1 -1.1104 12.2188 -0.622927 23.2857
633 2 2.2208 10.886 -1.91751 24.952
635 1 -1.1104 12.1785 -0.429792 26.2108
636 1 -1.1104 9.5567 -3.3292 23.526
637 1 -1.1104 9.53494 2.44064 23.7578
638 2 2.2208 8.09821 0.897251 24.9563
639 1 -1.1104 9.40647 -3.42903 26.3473
640 1 -1.1104 9.44954 2.21847 26.3636
641 2 2.2208 8.03047 -2.06323 22.216
643 1 -1.1104 9.38481 -0.471957 23.6191
644 1 -1.1104 9.42303 -0.630869 26.4882
634 2 2.2208 10.8915 3.69421 25.0434
642 2 2.2208 7.97918 3.82256 22.1598
455 2 2.2208 13.4855 17.7018 24.9745
685 2 2.2208 -0.57791 11.9986 22.1178
429 2 2.2208 13.7215 3.72817 16.5161
480 1 -1.1104 0.962147 10.5996 20.7259
496 1 -1.1104 3.8147 10.774 20.7707
718 1 -1.1104 6.56507 19.0405 23.5614
489 1 -1.1104 3.72444 7.82657 20.927
482 1 -1.1104 6.56044 5.06987 20.7408
469 1 -1.1104 0.989081 7.63536 20.7002
494 1 -1.1104 3.7788 5.18868 20.7997
656 2 2.2208 5.21547 6.37157 22.1804
657 2 2.2208 5.0835 12.1778 22.1254
658 1 -1.1104 0.925284 7.94005 23.4537
660 1 -1.1104 0.998198 7.85292 26.4975
662 1 -1.1104 0.960529 5.15909 23.5708
663 1 -1.1104 0.800539 10.7156 23.4597
666 2 2.2208 5.10136 9.18326 24.8275
667 1 -1.1104 1.18759 4.94342 26.4231
668 1 -1.1104 0.853141 10.6878 26.5545
671 1 -1.1104 3.74652 7.68738 23.4756
672 2 2.2208 2.4398 6.23717 24.88
673 2 2.2208 2.49525 12.1414 24.829
674 1 -1.1104 3.8276 7.93162 26.3336
675 2 2.2208 2.34678 9.27737 22.0387
676 1 -1.1104 3.84772 4.91168 23.69
677 1 -1.1104 3.47139 10.5221 23.4955
678 1 -1.1104 3.9357 4.91164 26.466
679 1 -1.1104 3.65397 10.6451 26.276
659 1 -1.1104 6.43897 7.69965 23.4953
661 1 -1.1104 6.61623 7.73385 26.2638
353 2 2.2208 2.40639 12.0674 13.7182
712 1 -1.1104 6.58648 13.4113 26.1552
561 1 -1.1104 9.32218 13.4036 23.3015
471 1 -1.1104 6.72932 7.79153 20.649
521 1 -1.1104 9.37482 5.03874 20.7453
709 1 -1.1104 6.52696 13.4689 23.2036
525 2 2.2208 10.819 14.781 24.8009
484 1 -1.1104 6.72258 10.711 20.8526
665 1 -1.1104 6.5081 10.661 23.5863
669 1 -1.1104 6.80741 5.00971 26.4192
670 1 -1.1104 6.40364 10.5803 26.3639
664 1 -1.1104 6.65414 5.02255 23.4617
687 1 -1.1104 9.35218 10.603 26.2892
688 1 -1.1104 9.78691 4.87269 26.5813
689 1 -1.1104 9.45071 10.6258 23.3787
690 1 -1.1104 9.38392 5.18462 23.571
691 2 2.2208 8.12809 9.27963 22.0368
692 1 -1.1104 9.5342 7.84753 26.2794
693 2 2.2208 7.95786 12.0602 24.7001
694 2 2.2208 7.95265 6.51984 24.7896
695 2 2.2208 10.8467 6.39943 22.0476
696 2 2.2208 10.8964 12.0761 21.9675
697 1 -1.1104 12.2231 7.92382 23.3934
698 1 -1.1104 12.3441 7.859 26.3671
699 1 -1.1104 12.333 5.02287 23.3543
700 1 -1.1104 12.3786 10.8046 23.5583
701 2 2.2208 10.9506 9.39052 24.9279
702 1 -1.1104 12.3188 4.9386 26.124
703 1 -1.1104 12.1551 10.632 26.4154
704 1 -1.1104 9.24842 8.08627 23.6528
346 2 2.2208 10.6882 -1.97742 13.7182
654 2 2.2208 13.7283 0.965088 24.9191
617 1 -1.1104 9.36138 16.4592 23.3581
588 1 -1.1104 6.40464 19.2081 26.2884
498 1 -1.1104 12.1727 13.4705 26.0837
537 1 -1.1104 6.47502 13.5149 20.3972
545 1 -1.1104 0.858461 16.0596 20.7395
720 2 2.2208 5.24535 14.8276 24.7337
719 2 2.2208 5.08059 20.5791 24.8538
717 1 -1.1104 1.0122 13.6251 26.3706
647 2 2.2208 2.33599 14.8959 22.0671
649 2 2.2208 2.32042 20.5584 22.1184
652 1 -1.1104 3.72386 16.2927 23.3916
655 1 -1.1104 1.00787 16.2657 23.6338
681 1 -1.1104 4.00991 13.2965 26.0724
682 1 -1.1104 3.75123 16.2154 26.3197
683 2 2.2208 2.3257 17.6327 24.9836
686 1 -1.1104 3.65334 19.0179 26.2991
705 2 2.2208 5.25046 17.7246 22.0325
706 1 -1.1104 1.1071 13.3766 23.6055
707 1 -1.1104 0.966674 19.1109 23.7164
711 1 -1.1104 3.73577 18.8864 23.5526
713 1 -1.1104 3.79025 13.3786 23.3617
715 1 -1.1104 0.923364 19.0386 26.4718
716 1 -1.1104 0.900122 16.2549 26.4244
499 1 -1.1104 12.3044 19.0959 26.1864
708 2 2.2208 13.6904 12.1215 24.8481
497 1 -1.1104 12.2021 19.1 23.3217
462 2 2.2208 10.6407 17.6193 21.9945
587 2 2.2208 8.05402 17.7052 24.8079
524 1 -1.1104 12.0507 16.1957 23.3577
569 1 -1.1104 12.2667 19.164 20.4901
539 1 -1.1104 6.51526 19.0433 20.6661
574 1 -1.1104 12.2659 16.2121 20.5717
581 1 -1.1104 9.35203 18.9985 20.6994
579 1 -1.1104 9.40125 13.2363 20.5155
616 2 2.2208 8.11098 20.4961 21.9958
526 2 2.2208 10.7739 20.4312 24.81
620 1 -1.1104 9.19732 16.2239 26.2719
463 1 -1.1104 12.1026 13.4545 23.3308
680 1 -1.1104 6.54717 16.3004 23.2959
373 2 2.2208 2.23707 14.9016 27.8604
589 1 -1.1104 9.31991 13.3929 26.0305
590 1 -1.1104 9.32234 19.029 26.2109
562 1 -1.1104 9.45211 19.1899 23.5097
615 2 2.2208 7.98879 14.7887 21.9587
339 2 2.2208 2.37086 0.837367 13.8646
8453 2 2.2208 13.6181 -4.87655 13.7931
8586 2 2.2208 2.48878 -4.79809 19.3962
423 2 2.2208 13.7258 3.66284 22.075
348 2 2.2208 10.5124 17.6271 27.7688
459 2 2.2208 13.5214 -1.9512 16.4177
622 2 2.2208 -0.567865 9.12373 19.3745
356 2 2.2208 7.91629 12.0504 13.5801
618 2 2.2208 13.5774 17.8954 19.1496
336 2 2.2208 13.4017 6.4868 13.7958
456 2 2.2208 -0.466741 17.6134 16.5549
370 2 2.2208 8.08037 -2.00733 27.8027
347 2 2.2208 7.70052 14.9613 27.6083
366 2 2.2208 2.40117 3.61868 27.7688
375 2 2.2208 2.27643 20.5022 27.6832
344 2 2.2208 13.678 14.9953 27.6836
364 2 2.2208 5.21074 0.801021 27.8381
369 2 2.2208 10.8221 0.78627 27.801
721 2 2.2208 5.05977 23.3269 5.0773
722 2 2.2208 5.19523 28.817 5.17413
723 1 -1.1104 1.01479 24.7604 1.04721
724 1 -1.1104 0.936942 24.6556 3.76489
725 1 -1.1104 1.01516 21.9635 0.949416
726 1 -1.1104 1.02691 27.5103 0.971476
727 2 2.2208 5.20685 26.0397 2.49426
728 1 -1.1104 0.831109 21.8139 3.78458
729 1 -1.1104 0.878078 27.5475 4.0221
730 1 -1.1104 3.96506 24.6103 1.11662
731 2 2.2208 2.22588 23.2335 2.40611
732 2 2.2208 2.51025 29.0072 2.4336
733 1 -1.1104 3.65807 24.6623 3.71455
734 2 2.2208 2.21302 26.1111 5.36566
735 1 -1.1104 3.69835 21.88 0.922812
736 1 -1.1104 3.98756 27.6736 1.2281
737 1 -1.1104 3.53617 22.016 3.90223
738 1 -1.1104 3.7356 27.3813 3.94828
864 1 -1.1104 1.04945 21.815 6.74759
870 1 -1.1104 3.47476 27.4839 6.66342
868 1 -1.1104 3.76792 24.6605 6.54831
1466 1 -1.1104 3.812 47.1372 3.71533
1020 2 2.2208 7.96131 40.0682 8.13195
863 1 -1.1104 6.59829 24.5627 6.65101
1066 2 2.2208 10.7401 31.6998 13.6983
1670 1 -1.1104 12.3366 47.2674 6.64479
1679 1 -1.1104 12.145 47.1025 9.55936
790 2 2.2208 -0.428826 37.3029 2.40969
743 1 -1.1104 6.6491 24.6618 3.84781
745 1 -1.1104 6.63849 27.381 1.07629
742 1 -1.1104 6.53213 24.5825 0.805587
744 1 -1.1104 6.60825 22.0184 0.856423
747 1 -1.1104 6.54986 27.4856 3.69123
746 1 -1.1104 6.36907 22.0564 3.64492
748 2 2.2208 10.8258 23.3119 5.3003
749 2 2.2208 10.8614 28.8012 5.2887
750 1 -1.1104 12.2404 24.7286 1.00719
751 1 -1.1104 12.2787 24.7818 3.89952
752 1 -1.1104 12.2464 21.9506 0.968833
753 1 -1.1104 12.1684 27.4658 1.11754
754 2 2.2208 10.889 26.1028 2.45651
755 1 -1.1104 12.1972 22.0233 3.81558
756 1 -1.1104 12.1915 27.4171 3.92675
757 1 -1.1104 9.21699 24.7421 0.988666
758 2 2.2208 7.93119 23.4318 2.43353
759 2 2.2208 7.97433 28.573 2.48286
760 1 -1.1104 9.41582 24.8651 3.77929
761 2 2.2208 8.0025 26.1578 5.38223
762 1 -1.1104 9.44053 21.9232 0.844249
763 1 -1.1104 9.40701 27.5983 1.16535
764 1 -1.1104 9.42617 22.166 3.74597
765 1 -1.1104 9.42445 27.3548 4.01615
895 1 -1.1104 12.2955 24.9109 6.65777
897 1 -1.1104 12.2522 27.7149 6.79284
900 1 -1.1104 9.32837 27.5069 6.74606
866 1 -1.1104 6.84768 21.8697 6.49861
1097 2 2.2208 -0.404111 34.5435 -0.402111
1077 2 2.2208 7.95391 40.1743 13.8083
769 2 2.2208 5.18183 34.3583 5.15172
770 1 -1.1104 0.856509 30.4132 0.958411
771 1 -1.1104 0.998384 36.05 1.04581
773 1 -1.1104 1.05694 30.3461 3.63676
774 1 -1.1104 0.775988 35.9261 3.85501
776 1 -1.1104 1.04404 33.307 1.00023
777 2 2.2208 5.29384 31.5983 2.36512
778 2 2.2208 5.27275 37.4355 2.44283
779 1 -1.1104 0.945495 33.1501 3.80729
781 1 -1.1104 3.92023 30.4251 0.876377
782 1 -1.1104 3.8334 36.0366 1.14747
783 2 2.2208 2.39431 34.6344 2.57359
784 1 -1.1104 3.9423 30.3084 3.80106
785 1 -1.1104 3.79444 35.9012 3.92892
786 2 2.2208 2.27384 31.6978 5.01922
787 2 2.2208 2.34278 37.4805 5.2554
788 1 -1.1104 3.92304 33.3079 1.11153
789 1 -1.1104 3.59373 32.9821 3.72924
923 1 -1.1104 1.0406 33.2887 6.68595
792 2 2.2208 -0.497943 34.7229 5.29307
927 1 -1.1104 3.90027 33.0373 6.58593
921 1 -1.1104 6.51128 30.1852 6.66866
794 1 -1.1104 6.66306 30.1818 3.70912
1687 1 -1.1104 9.61873 47.2546 12.2301
1057 2 2.2208 10.7802 26.1206 13.8074
739 2 2.2208 -0.511671 28.8356 5.20921
1051 2 2.2208 -0.502043 34.5846 10.7996
780 1 -1.1104 6.57772 32.8997 4.03782
793 1 -1.1104 6.64513 30.1905 0.964937
775 1 -1.1104 6.70957 35.5833 3.79928
795 1 -1.1104 6.66232 32.949 1.00824
772 1 -1.1104 6.68058 35.968 1.02928
796 2 2.2208 10.8225 34.4422 5.04949
797 1 -1.1104 12.3391 30.2046 1.0025
798 1 -1.1104 12.1019 36.0043 0.961583
799 1 -1.1104 12.0437 30.2288 3.77518
800 1 -1.1104 12.036 35.8468 3.57019
801 1 -1.1104 12.2328 33.1126 1.05357
802 2 2.2208 10.6993 31.5653 2.38334
803 2 2.2208 10.707 37.3599 2.25731