ITEM: TIMESTEP
100000
ITEM: NUMBER OF ATOMS
17910
ITEM: BOX BOUNDS pp pp pp
-3.9667337120552659e-01 2.7736673371205796e+01
-4.8251437048861749e+00 3.3290514370488904e+02
-3.9680964710225108e-01 2.7736809647100849e+01
ITEM: ATOMS id type q x y z
1 2 2.2208 5.13813 0.610751 5.17494
2 1 -1.1104 0.967071 -3.51935 1.08295
3 1 -1.1104 0.941368 2.24837 1.06569
6 1 -1.1104 1.24543 -3.44517 3.77264
7 1 -1.1104 1.10959 2.32497 3.94341
10 1 -1.1104 1.0013 -0.639922 1.07557
12 2 2.2208 5.23338 -2.15291 2.34542
14 1 -1.1104 0.833083 -0.644134 3.86406
16 1 -1.1104 3.72859 -3.29129 0.914871
17 1 -1.1104 3.90532 2.06806 0.835863
18 2 2.2208 2.41975 0.836251 2.39591
19 1 -1.1104 4.0798 -3.49135 3.8476
20 1 -1.1104 3.8739 2.1466 3.79483
21 2 2.2208 2.4411 -2.08501 5.18949
22 2 2.2208 2.39458 3.66103 5.14338
23 1 -1.1104 3.89896 -0.631329 1.04748
24 1 -1.1104 3.71037 -0.694474 3.71296
13 2 2.2208 5.11871 3.5866 2.37441
8438 2 2.2208 5.1229 -4.82388 10.697
170 1 -1.1104 1.10228 -0.719346 6.70694
167 1 -1.1104 0.903943 2.19578 6.56292
172 1 -1.1104 4.00271 -3.44689 6.47381
174 1 -1.1104 3.78192 -0.626642 6.56426
173 1 -1.1104 3.73461 2.22297 6.62176
8 1 -1.1104 6.9127 -3.56694 3.65694
9 1 -1.1104 6.53499 2.20901 4.01282
171 1 -1.1104 6.76168 -0.544488 6.35929
166 1 -1.1104 1.12963 -3.56236 6.39149
25 2 2.2208 -0.36426 -2.05944 2.49584
4 1 -1.1104 6.49687 -3.54637 0.986955
15 1 -1.1104 6.60845 -0.615064 3.67384
11 1 -1.1104 6.65301 -0.718309 0.877304
5 1 -1.1104 6.59966 2.14162 1.13547
31 2 2.2208 10.8253 0.900539 5.0075
32 1 -1.1104 12.2478 -3.22416 0.878531
33 1 -1.1104 12.3303 2.30883 0.953582
34 1 -1.1104 12.3994 -3.35592 3.82973
35 1 -1.1104 12.2692 2.12777 3.62469
36 1 -1.1104 12.2833 -0.452404 1.06245
37 2 2.2208 10.8872 -2.04148 2.37237
39 1 -1.1104 12.2231 -0.584546 3.7776
40 1 -1.1104 9.47433 -3.5593 0.847935
41 1 -1.1104 9.52554 2.27445 1.00935
42 2 2.2208 8.11261 0.830322 2.29921
43 1 -1.1104 9.69289 -3.46923 3.71178
44 1 -1.1104 9.48855 2.17728 3.78617
45 2 2.2208 8.19344 -2.032 4.92259
47 1 -1.1104 9.40467 -0.742115 0.872543
48 1 -1.1104 9.36927 -0.602298 3.64848
38 2 2.2208 10.8881 3.66632 2.36974
46 2 2.2208 7.91029 3.59761 5.16478
205 1 -1.1104 12.3571 -3.36748 6.4975
209 1 -1.1104 9.63516 2.34487 6.58967
206 1 -1.1104 12.3749 2.36056 6.61136
8441 2 2.2208 10.9395 -4.71456 10.8867
208 1 -1.1104 9.61363 -3.68439 6.5292
8439 2 2.2208 -0.181812 -4.70041 10.7476
363 2 2.2208 13.6582 17.7266 13.6121
54 2 2.2208 5.22741 6.351 5.05529
55 2 2.2208 5.28296 12.1409 5.094
56 1 -1.1104 0.954237 7.81549 1.06105
58 1 -1.1104 1.05109 7.96149 3.68672
60 1 -1.1104 1.16966 5.02092 0.974917
61 1 -1.1104 1.1835 10.617 1.11683
66 2 2.2208 5.31624 9.39021 2.40464
67 1 -1.1104 1.14415 5.15747 3.79387
68 1 -1.1104 1.13568 10.8388 4.03621
71 1 -1.1104 3.93443 7.89544 1.02674
72 2 2.2208 2.49363 6.54731 2.30497
73 2 2.2208 2.5852 12.2406 2.32786
74 1 -1.1104 4.16693 7.78341 3.76593
75 2 2.2208 2.47604 9.44236 5.19857
76 1 -1.1104 3.87304 5.06393 0.923316
77 1 -1.1104 4.06425 10.8674 1.17299
79 1 -1.1104 3.92453 5.04326 3.6336
80 1 -1.1104 3.9997 10.552 3.81538
239 1 -1.1104 3.95901 5.02881 6.43935
59 1 -1.1104 6.88012 7.97884 3.82866
234 1 -1.1104 1.11427 7.80344 6.38745
78 1 -1.1104 3.89622 10.66 6.63846
236 1 -1.1104 1.06085 5.07969 6.41949
27 2 2.2208 -0.184718 3.70726 2.46289
333 2 2.2208 13.6709 14.9448 10.8846
340 2 2.2208 13.7418 0.803399 13.4924
235 1 -1.1104 6.63317 7.90963 6.58757
64 1 -1.1104 6.61537 10.6968 0.902278
70 1 -1.1104 6.86181 10.9332 3.72526
63 1 -1.1104 6.77139 5.02742 0.922453
69 1 -1.1104 6.59357 5.05953 3.60465
57 1 -1.1104 6.76786 7.99264 0.941339
84 2 2.2208 10.969 6.46779 5.06442
85 2 2.2208 10.8854 12.3487 5.21456
86 1 -1.1104 12.4699 8.01022 0.936873
87 1 -1.1104 12.4888 8.02196 3.74103
88 1 -1.1104 12.4125 5.0962 0.890429
89 1 -1.1104 12.2771 10.7644 1.0974
91 2 2.2208 10.9034 9.35372 2.42593
92 1 -1.1104 12.2248 4.9202 3.66958
93 1 -1.1104 12.4635 10.9197 3.77501
94 1 -1.1104 9.51774 7.94264 1.01926
95 2 2.2208 8.12318 6.5337 2.42026
96 2 2.2208 8.0383 12.0906 2.21421
97 1 -1.1104 9.72727 7.82831 3.61124
98 2 2.2208 8.11354 9.28591 5.12754
99 1 -1.1104 9.60127 5.11377 1.10573
100 1 -1.1104 9.44087 10.5863 0.87184
102 1 -1.1104 9.60711 5.00793 3.90924
103 1 -1.1104 9.51061 10.7128 3.5449
90 1 -1.1104 12.3656 10.6623 6.63078
269 1 -1.1104 9.5019 5.17545 6.82711
267 1 -1.1104 9.42727 7.8218 6.41757
265 1 -1.1104 12.1763 7.85544 6.59364
237 1 -1.1104 6.57648 4.98389 6.48448
101 1 -1.1104 9.61724 10.7175 6.40985
360 2 2.2208 10.9418 20.6785 13.5534
106 2 2.2208 5.2986 17.7706 5.12103
107 1 -1.1104 0.971009 13.4855 1.09665
109 1 -1.1104 1.07178 19.1506 0.834797
113 1 -1.1104 1.01855 13.5277 3.92266
114 1 -1.1104 1.10074 19.1968 3.9506
116 1 -1.1104 1.12604 16.1755 1.10757
119 2 2.2208 5.24214 14.9767 2.24963
120 2 2.2208 5.08833 20.7785 2.40711
121 1 -1.1104 1.07443 16.3439 3.82057
123 1 -1.1104 3.82727 13.6172 0.917584
125 1 -1.1104 3.88681 18.99 1.01097
127 2 2.2208 2.46702 17.7508 2.26545
128 1 -1.1104 3.84051 13.4141 3.83262
129 1 -1.1104 3.89528 19.1902 3.69114
130 2 2.2208 2.37489 14.9259 5.28353
131 2 2.2208 2.35681 20.4397 5.36844
132 1 -1.1104 3.74963 16.3523 1.03419
134 1 -1.1104 3.84418 16.2812 3.9239
115 1 -1.1104 6.76191 13.5764 3.54883
302 1 -1.1104 0.994364 19.318 6.7122
108 1 -1.1104 0.848707 13.6332 6.83973
133 1 -1.1104 3.92021 16.3871 6.72711
203 2 2.2208 13.6107 3.6959 10.9218
126 1 -1.1104 3.6214 19.0115 6.76252
124 1 -1.1104 3.7022 13.5444 6.51821
117 1 -1.1104 1.01797 16.2863 6.87796
8458 2 2.2208 2.4793 -4.6444 13.6927
139 1 -1.1104 6.65298 19.1723 3.67404
138 1 -1.1104 6.67371 19.2202 0.825489
110 1 -1.1104 6.54769 13.4475 0.744965
112 1 -1.1104 6.61516 19.0982 6.55829
149 1 -1.1104 12.2459 16.3898 6.77243
122 1 -1.1104 6.71978 16.2808 3.47055
140 1 -1.1104 6.69478 16.2713 0.951935
141 2 2.2208 10.7938 17.7644 5.30563
142 1 -1.1104 12.3839 13.6189 1.16141
144 1 -1.1104 12.2007 19.2953 1.20702
146 1 -1.1104 12.4243 13.5013 3.82963
147 1 -1.1104 12.1861 19.2552 4.07974
148 1 -1.1104 12.1507 16.514 1.08315
150 2 2.2208 10.8595 15.1624 2.46381
151 2 2.2208 10.8095 20.5718 2.5438
152 1 -1.1104 12.3744 16.33 3.88197
153 1 -1.1104 9.49105 13.5718 0.906288
155 1 -1.1104 9.45882 19.3157 0.982927
157 2 2.2208 7.97923 17.7421 2.3427
158 1 -1.1104 9.60022 13.6838 3.94256
159 1 -1.1104 9.41965 19.2076 3.72233
160 2 2.2208 8.00725 15.0228 5.01193
161 2 2.2208 8.02637 20.4899 5.23435
162 1 -1.1104 9.36197 16.47 0.879043
164 1 -1.1104 9.49901 16.617 3.77946
111 1 -1.1104 6.67091 13.4771 6.28279
154 1 -1.1104 9.48357 13.6403 6.75041
143 1 -1.1104 12.3731 13.5398 6.57684
324 2 2.2208 10.9439 20.6422 8.12422
163 1 -1.1104 9.28028 16.4915 6.65342
145 1 -1.1104 12.2929 19.2533 6.70004
118 1 -1.1104 6.68738 16.2125 6.23855
355 2 2.2208 10.8956 9.2091 13.6504
229 2 2.2208 13.5264 0.917026 7.8896
169 1 -1.1104 6.70493 2.09999 6.77898
337 2 2.2208 -0.234824 3.61791 13.6458
8442 2 2.2208 13.6012 -4.84933 7.95632
369 2 2.2208 10.8476 0.82806 -0.435736
26 2 2.2208 -0.474441 0.652854 5.26863
359 2 2.2208 5.26243 14.9063 13.5818
175 2 2.2208 5.40835 0.867708 10.9108
176 1 -1.1104 1.09418 -3.18316 12.2619
177 1 -1.1104 1.14459 2.36459 12.0457
180 1 -1.1104 1.28221 -3.37898 9.3519
181 1 -1.1104 1.26605 2.43269 9.19945
184 1 -1.1104 1.11962 -0.37184 12.3965
186 2 2.2208 5.43775 -1.96749 7.87741
187 2 2.2208 5.25056 3.60085 7.95044
188 1 -1.1104 1.18037 -0.555347 9.4313
190 1 -1.1104 3.76506 -3.43373 12.3269
191 1 -1.1104 3.89627 2.19399 12.2399
192 2 2.2208 2.49861 0.766533 7.87111
193 1 -1.1104 4.01599 -3.53838 9.17441
194 1 -1.1104 4.01286 2.26344 9.41468
195 2 2.2208 2.5862 -1.97725 10.7223
197 1 -1.1104 4.09878 -0.614028 12.2218
198 1 -1.1104 3.94008 -0.641012 9.46289
196 2 2.2208 2.62683 3.66583 10.6438
201 2 2.2208 -0.285804 0.894693 10.7704
375 2 2.2208 2.34102 20.6538 -0.475893
189 1 -1.1104 6.80158 -0.582346 9.41952
329 1 -1.1104 12.3443 19.0558 12.2979
371 2 2.2208 -0.334412 17.7311 -0.306756
210 1 -1.1104 9.46463 -0.741032 6.34715
207 1 -1.1104 12.1891 -0.360752 6.6008
165 2 2.2208 13.5717 17.7877 2.47545
351 2 2.2208 2.51813 6.36331 13.6037
137 2 2.2208 -0.284139 17.7354 5.34225
168 1 -1.1104 6.71074 -3.29151 6.55101
178 1 -1.1104 6.44423 -3.60186 11.9458
182 1 -1.1104 6.90638 -3.3723 9.14764
185 1 -1.1104 6.78781 -0.742425 12.3262
179 1 -1.1104 6.80078 2.27029 12.3096
183 1 -1.1104 6.70595 2.14296 9.46723
211 2 2.2208 10.8703 0.853786 10.8107
212 1 -1.1104 12.3234 -3.43267 12.2297
213 1 -1.1104 12.3088 2.3877 12.0703
214 1 -1.1104 12.2631 -3.29301 9.37102
215 1 -1.1104 12.3086 2.64162 9.35645
216 1 -1.1104 12.2981 -0.543723 12.2475
217 2 2.2208 10.9058 -2.01488 7.69242
218 2 2.2208 10.9992 3.76028 8.01127
219 1 -1.1104 12.5273 -0.352643 9.41754
220 1 -1.1104 9.44462 -3.3715 12.347
221 1 -1.1104 9.54059 2.1671 12.1796
222 2 2.2208 8.17631 0.754887 7.88335
223 1 -1.1104 9.68258 -3.43173 9.43662
224 1 -1.1104 9.41493 2.09078 9.38177
225 2 2.2208 8.22828 -1.98572 10.789
227 1 -1.1104 9.49495 -0.695718 12.2156
228 1 -1.1104 9.6844 -0.677218 9.16339
226 2 2.2208 8.16386 3.75849 10.6169
81 2 2.2208 -0.331984 6.51321 5.1696
62 1 -1.1104 1.19079 10.6895 6.78499
30 2 2.2208 -0.184623 9.39124 7.90958
200 2 2.2208 -0.321384 -2.11365 8.06452
238 1 -1.1104 3.90873 7.81341 6.51715
240 2 2.2208 5.3444 6.437 10.7953
241 2 2.2208 5.45863 12.1325 10.7491
242 1 -1.1104 1.12002 7.95784 12.1287
244 1 -1.1104 1.09939 7.91451 9.58141
246 1 -1.1104 1.06501 5.08927 12.3628
247 1 -1.1104 1.18976 10.7258 12.1253
250 2 2.2208 5.33637 9.23367 7.97321
251 1 -1.1104 1.01796 5.13088 9.60661
252 1 -1.1104 1.11728 10.7826 9.4409
255 1 -1.1104 3.84628 7.81569 12.2786
256 2 2.2208 2.52966 6.56493 7.90185
257 2 2.2208 2.47161 12.0033 8.20268
258 1 -1.1104 3.9353 7.85761 9.31339
259 2 2.2208 2.62829 9.1944 10.7926
260 1 -1.1104 3.98643 5.07489 12.1542
261 1 -1.1104 3.84915 10.4901 12.3574
262 1 -1.1104 3.88984 5.04322 8.99888
263 1 -1.1104 3.94059 10.8227 9.42987
254 1 -1.1104 6.82661 10.7734 9.44024
65 1 -1.1104 6.75959 10.6127 6.56368
314 1 -1.1104 9.36035 16.296 9.33493
289 1 -1.1104 6.45958 16.3503 9.22316
321 1 -1.1104 9.30765 19.0524 12.2087
325 2 2.2208 10.7981 14.9323 8.00653
231 2 2.2208 13.6394 20.7389 5.24712
266 1 -1.1104 12.3809 5.12474 6.47082
326 1 -1.1104 12.1512 16.3441 12.2159
249 1 -1.1104 6.59631 10.6647 12.1464
245 1 -1.1104 6.70149 7.91197 9.39586
253 1 -1.1104 6.77697 4.88725 9.21696
243 1 -1.1104 6.51201 7.70842 12.0674
248 1 -1.1104 6.82955 5.05441 11.9836
264 1 -1.1104 9.53855 10.8224 9.39475
268 1 -1.1104 9.62488 4.8669 9.36267
270 1 -1.1104 9.44743 10.6806 12.0793
271 1 -1.1104 9.61737 5.02912 12.1926
272 2 2.2208 8.14306 9.41042 10.6053
273 1 -1.1104 9.40442 7.73268 9.33306
274 2 2.2208 8.21073 12.1231 7.95872
275 2 2.2208 8.02006 6.41214 7.89183
276 2 2.2208 10.8597 6.4596 10.7201
277 2 2.2208 10.8583 12.1351 11.027
278 1 -1.1104 12.2107 7.7256 12.2039
279 1 -1.1104 12.3178 8.0249 9.54008
280 1 -1.1104 12.2241 5.02772 12.421
281 1 -1.1104 12.4446 10.4378 12.3721
282 2 2.2208 10.7634 9.22344 7.93583
283 1 -1.1104 12.2637 5.2591 9.4194
284 1 -1.1104 12.4425 11.0049 9.59023
285 1 -1.1104 9.39333 7.94109 12.0854
327 1 -1.1104 12.1302 19.1263 9.43683
323 1 -1.1104 12.1759 16.3469 9.53398
330 1 -1.1104 12.2905 13.4026 12.4763
310 2 2.2208 2.56954 14.8919 10.9309
294 1 -1.1104 1.04837 13.6002 9.58815
309 2 2.2208 2.50574 20.4914 10.9419
293 2 2.2208 5.16937 20.6173 8.05311
292 1 -1.1104 0.679719 16.2994 9.58384
300 2 2.2208 5.20861 17.7262 10.7938
308 1 -1.1104 3.83807 16.2751 12.1876
299 1 -1.1104 1.10403 13.4349 12.2858
307 1 -1.1104 1.05281 16.3444 12.1507
298 1 -1.1104 1.04805 19.2182 12.4125
303 2 2.2208 2.35499 17.6128 8.15356
305 1 -1.1104 3.67744 13.5384 9.36
301 1 -1.1104 3.68843 19.2048 9.40334
295 2 2.2208 5.13418 14.8941 7.91379
304 1 -1.1104 3.90838 16.3609 9.38529
286 1 -1.1104 3.84218 19.1571 12.2539
287 1 -1.1104 4.0081 13.2228 12.3488
291 1 -1.1104 1.02917 19.1917 9.67747
290 1 -1.1104 6.53892 13.3836 9.10765
296 1 -1.1104 6.47797 19.1845 12.2515
331 2 2.2208 10.8109 17.6617 10.8873
320 2 2.2208 8.04298 17.6981 8.20997
317 2 2.2208 8.18782 14.9826 10.7394
318 1 -1.1104 9.46909 19.0893 9.3821
319 1 -1.1104 9.52729 13.6295 9.41262
288 1 -1.1104 6.68857 19.2408 9.42367
297 1 -1.1104 6.7008 13.6804 11.8727
322 1 -1.1104 9.56565 13.4892 12.4083
156 1 -1.1104 9.4289 19.2022 6.5698
328 1 -1.1104 12.3533 13.5828 9.60004
316 2 2.2208 7.93513 20.4722 10.9748
315 1 -1.1104 9.33788 16.283 12.0438
306 1 -1.1104 6.72517 16.3372 12.0859
82 2 2.2208 -0.298702 9.24672 2.21727
354 2 2.2208 8.02646 6.43491 13.5202
380 2 2.2208 2.57215 9.1798 -0.341576
343 2 2.2208 8.13864 0.71407 13.6208
204 2 2.2208 13.7609 14.9998 5.18185
346 2 2.2208 10.9462 -1.99539 13.5565
341 2 2.2208 5.26428 3.70242 13.6514
332 2 2.2208 13.584 17.7692 8.01037
353 2 2.2208 2.52357 12.1011 13.562
338 2 2.2208 5.20602 -2.05143 13.4992
352 2 2.2208 5.3374 9.17179 13.5797
373 2 2.2208 2.46902 14.8877 -0.31618
362 2 2.2208 8.01098 17.7132 13.4448
383 2 2.2208 -0.307941 6.48282 -0.261652
342 2 2.2208 -0.266471 14.9141 13.5454
366 2 2.2208 2.62432 3.66915 -0.294057
356 2 2.2208 7.95984 12.147 13.6038
388 2 2.2208 5.27071 0.783577 16.2902
389 1 -1.1104 1.03915 -3.30054 18.144
390 1 -1.1104 1.06374 2.14145 17.9205
393 1 -1.1104 0.938934 -3.36806 15.083
395 1 -1.1104 1.10638 2.23616 14.9298
401 1 -1.1104 1.05849 -0.519621 18.0092
403 2 2.2208 5.25894 -1.96307 19.3953
405 1 -1.1104 1.09724 -0.357028 15.2493
409 1 -1.1104 3.88255 -3.21883 17.9836
410 1 -1.1104 3.9417 2.40487 17.9394
411 2 2.2208 2.55717 0.891046 19.2658
412 1 -1.1104 3.73991 -3.4197 15.2758
414 1 -1.1104 3.89546 2.14548 15.1728
416 2 2.2208 2.38593 -1.86182 16.5513
418 1 -1.1104 3.97904 -0.341538 17.8061
419 1 -1.1104 3.8357 -0.629108 15.101
404 2 2.2208 5.36014 3.65621 19.2908
417 2 2.2208 2.59824 3.48454 16.4801
406 1 -1.1104 1.17644 -0.502471 20.9311
408 1 -1.1104 6.86209 -0.564251 20.7664
427 2 2.2208 -0.26087 3.53413 19.3068
460 2 2.2208 13.5517 20.7183 16.4282
394 1 -1.1104 1.27728 -3.43608 20.9378
415 1 -1.1104 4.0018 2.51012 20.7852
420 1 -1.1104 4.0574 -0.350693 20.6215
413 1 -1.1104 3.93952 -3.37095 20.8195
8519 2 2.2208 2.6659 -4.67292 24.9437
684 2 2.2208 -0.320514 9.22297 25.0386
8622 2 2.2208 5.25531 -4.74286 16.3841
339 2 2.2208 2.47249 0.922952 13.7464
402 1 -1.1104 6.83749 -0.928542 17.9641
407 1 -1.1104 6.69349 -0.509161 15.0631
397 1 -1.1104 6.63662 -3.42279 14.981
391 1 -1.1104 6.71157 -3.4966 17.7783
399 1 -1.1104 6.64271 2.27308 15.0298
392 1 -1.1104 6.74464 2.06444 17.7399
431 2 2.2208 11.0188 0.732539 16.3616
432 1 -1.1104 12.6455 -3.4955 18.0151
433 1 -1.1104 12.4904 2.07251 17.6659
434 1 -1.1104 12.4632 -3.31134 15.0441
436 1 -1.1104 12.2307 2.0766 14.8947
438 1 -1.1104 12.3413 -0.591588 17.8885
439 2 2.2208 11.0818 -2.007 19.1744
441 1 -1.1104 12.4005 -0.786893 15.0556
443 1 -1.1104 9.77396 -3.48043 17.876
444 1 -1.1104 9.64309 2.28919 17.7569
445 2 2.2208 8.06857 0.661524 19.2484
446 1 -1.1104 9.54206 -3.32124 15.176
448 1 -1.1104 9.49596 2.08091 14.986
450 2 2.2208 8.15251 -1.91863 16.2404
451 2 2.2208 8.15338 3.59998 16.5176
452 1 -1.1104 9.52039 -0.46955 17.6839
453 1 -1.1104 9.58877 -0.618796 14.9797
440 2 2.2208 10.9119 3.79402 19.098
400 1 -1.1104 6.88802 2.4517 20.5359
442 1 -1.1104 12.5081 -0.590905 20.7064
447 1 -1.1104 9.5375 -3.31063 20.514
435 1 -1.1104 12.2979 -3.48146 20.4942
437 1 -1.1104 12.4691 2.42586 20.6482
718 1 -1.1104 6.48082 19.4565 23.3471
461 2 2.2208 13.6199 20.4117 22.0903
651 2 2.2208 13.5865 6.58439 19.1401
562 1 -1.1104 9.25715 19.3133 23.3531
464 2 2.2208 5.36315 6.57697 16.5472
465 2 2.2208 5.2755 12.1186 16.4735
466 1 -1.1104 0.764839 7.70805 17.9461
468 1 -1.1104 0.970697 7.7817 14.9328
472 1 -1.1104 1.13239 4.93051 17.8108
473 1 -1.1104 1.04694 10.557 18.1385
476 2 2.2208 5.13796 9.3623 19.3703
477 1 -1.1104 0.984236 4.88526 15.1366
479 1 -1.1104 0.97284 10.8074 15.2028
485 1 -1.1104 3.62691 7.8857 17.8783
486 2 2.2208 2.34501 6.45352 19.1901
487 2 2.2208 2.36881 12.0665 19.4209
488 1 -1.1104 3.83554 8.02955 15.1043
490 2 2.2208 2.28559 9.3574 16.4301
491 1 -1.1104 3.80068 5.06188 17.6821
492 1 -1.1104 3.81702 10.753 17.8747
493 1 -1.1104 3.82203 4.95312 14.8288
495 1 -1.1104 3.9746 10.9162 15.0237
478 1 -1.1104 1.18512 5.06371 20.7483
496 1 -1.1104 3.68165 10.6624 20.7669
489 1 -1.1104 3.74592 7.70885 20.7038
494 1 -1.1104 3.99477 5.00521 20.4885
481 1 -1.1104 6.57177 4.89207 14.9868
475 1 -1.1104 6.63944 11.0179 17.9981
474 1 -1.1104 6.64099 5.20031 17.7919
480 1 -1.1104 0.817856 10.782 20.7557
482 1 -1.1104 6.71889 5.2868 20.5964
483 1 -1.1104 6.64623 10.6081 15.0633
467 1 -1.1104 6.47662 8.02617 17.9065
470 1 -1.1104 6.60577 7.69475 14.8987
500 2 2.2208 10.8522 6.46175 16.3257
501 2 2.2208 10.7623 12.1897 16.4795
502 1 -1.1104 12.1438 8.09948 17.7001
503 1 -1.1104 12.2242 7.75518 15.0956
505 1 -1.1104 12.2067 5.15241 17.8717
506 1 -1.1104 12.1051 10.6141 17.8409
507 2 2.2208 10.8563 9.33605 19.2092
508 1 -1.1104 12.1924 4.83836 15.1577
510 1 -1.1104 12.2011 10.6698 15.0833
512 1 -1.1104 9.38733 7.89749 17.734
513 2 2.2208 8.14649 6.58705 19.1467
514 2 2.2208 8.1999 12.1929 19.4082
515 1 -1.1104 9.47839 7.82045 14.9042
517 2 2.2208 8.11324 9.19513 16.4503
518 1 -1.1104 9.54121 5.01542 17.8009
519 1 -1.1104 9.2996 10.8979 17.6953
520 1 -1.1104 9.40806 5.07144 15.1501
522 1 -1.1104 9.4207 10.6071 14.7923
509 1 -1.1104 12.0721 5.1693 20.5034
523 1 -1.1104 9.61925 10.6097 20.6273
516 1 -1.1104 9.44547 7.91405 20.4774
471 1 -1.1104 6.61595 8.08738 20.7613
504 1 -1.1104 12.2841 7.88791 20.4003
521 1 -1.1104 9.55256 5.09082 20.3728
511 1 -1.1104 12.3512 10.6693 20.6867
625 2 2.2208 -0.207209 0.835624 22.2627
8584 2 2.2208 11.0321 -4.87704 16.6078
527 2 2.2208 5.311 17.6226 16.4725
528 1 -1.1104 0.777076 13.473 18.2279
529 1 -1.1104 0.928667 19.2401 17.9629
532 1 -1.1104 1.05766 13.4347 15.1092
534 1 -1.1104 1.02321 19.4293 15.2185
540 1 -1.1104 0.995558 16.2983 17.873
542 2 2.2208 5.22214 14.9125 19.3963
543 2 2.2208 5.2015 20.6534 19.2701
544 1 -1.1104 1.03502 16.273 14.9602
548 1 -1.1104 3.88769 13.6065 18.0249
549 1 -1.1104 3.67058 19.2459 17.8528
550 2 2.2208 2.27346 17.7187 19.2579
551 1 -1.1104 3.80532 13.729 15.1487
553 1 -1.1104 3.81873 19.183 15.1513
555 2 2.2208 2.38861 14.9557 16.4508
556 2 2.2208 2.43115 20.5474 16.5118
557 1 -1.1104 3.80384 16.2786 17.8975
558 1 -1.1104 3.76738 16.4821 14.9779
535 1 -1.1104 0.891586 19.0064 20.7494
552 1 -1.1104 3.69649 13.5431 20.798
559 1 -1.1104 3.80978 16.312 20.8615
554 1 -1.1104 3.75047 19.1334 20.5643
458 2 2.2208 -0.300317 20.4064 19.2629
530 1 -1.1104 6.84706 13.6722 18.0275
546 1 -1.1104 6.65034 16.3555 15.0811
537 1 -1.1104 6.56753 13.654 20.778
8623 2 2.2208 -0.338794 -4.71593 16.4307
547 1 -1.1104 6.65993 16.3647 20.6624
384 2 2.2208 10.8746 6.74005 27.5706
385 2 2.2208 8.08597 9.33587 27.6858
709 1 -1.1104 6.74406 13.5894 23.5355
365 2 2.2208 2.42652 -2.10596 27.6836
581 1 -1.1104 9.41242 19.1009 20.6112
538 1 -1.1104 6.71449 18.9082 15.0629
531 1 -1.1104 6.51049 19.1244 17.8255
536 1 -1.1104 6.68267 13.4395 14.9567
541 1 -1.1104 6.71591 16.3375 17.944
563 2 2.2208 10.9206 17.7716 16.5591
564 1 -1.1104 12.2972 13.5772 17.9311
565 1 -1.1104 12.2946 19.3587 17.7547
566 1 -1.1104 12.2569 13.4983 15.1214
568 1 -1.1104 12.1414 19.3098 15.0424
570 1 -1.1104 12.4112 16.3314 17.8036
571 2 2.2208 10.9481 14.8963 19.3414
572 2 2.2208 10.8215 20.5697 19.3774
573 1 -1.1104 12.2454 16.4103 15.0207
575 1 -1.1104 9.48539 13.7396 18.0763
576 1 -1.1104 9.56874 19.1737 17.8799
577 2 2.2208 8.05837 17.7769 19.2398
578 1 -1.1104 9.41385 13.5208 15.225
580 1 -1.1104 9.45125 19.2944 15.0956
582 2 2.2208 8.07561 14.8736 16.548
583 2 2.2208 8.06254 20.4158 16.5403
584 1 -1.1104 9.34761 16.5139 17.581
585 1 -1.1104 9.52058 16.2411 14.9917
574 1 -1.1104 12.2666 16.1746 20.6533
579 1 -1.1104 9.51452 13.5953 20.69
455 2 2.2208 13.411 17.9464 24.8723
345 2 2.2208 13.4814 20.6265 27.7845
396 1 -1.1104 1.14626 2.2799 20.7163
624 2 2.2208 -0.184741 -1.81314 25.0023
8556 2 2.2208 8.17805 -4.70719 19.2005
499 1 -1.1104 11.9826 19.3231 26.2977
591 2 2.2208 5.42539 0.836135 22.06
592 1 -1.1104 1.17554 -3.11758 23.6552
593 1 -1.1104 1.22367 2.3496 23.6843
596 1 -1.1104 1.17252 -3.30531 26.3468
597 1 -1.1104 1.16423 2.36957 26.4745
600 1 -1.1104 1.1063 -0.418691 23.7846
602 2 2.2208 5.29907 -1.82958 24.983
603 2 2.2208 5.39786 3.67212 24.7874
604 1 -1.1104 1.20096 -0.505007 26.3484
606 1 -1.1104 4.16576 -3.36127 23.4758
607 1 -1.1104 3.94512 2.3927 23.5372
608 2 2.2208 2.57947 0.878103 24.9996
609 1 -1.1104 3.92706 -3.31827 26.3626
610 1 -1.1104 3.87526 2.10557 26.3031
611 2 2.2208 2.56671 -1.96235 22.1509
613 1 -1.1104 4.02602 -0.486598 23.3994
614 1 -1.1104 4.02026 -0.570408 26.184
612 2 2.2208 2.65879 3.72367 22.1848
364 2 2.2208 5.34017 0.776962 27.8338
8553 2 2.2208 5.38347 -4.73633 22.1339
601 1 -1.1104 6.76804 -0.571642 23.6749
594 1 -1.1104 6.89552 -3.26111 23.4225
8516 2 2.2208 8.0863 -4.68641 24.8678
463 1 -1.1104 12.2033 13.4766 23.3241
560 1 -1.1104 12.1715 16.4197 26.2544
398 1 -1.1104 6.75018 -3.30874 20.8639
454 1 -1.1104 9.55636 -0.588047 20.591
449 1 -1.1104 9.70939 2.36323 20.6463
378 2 2.2208 13.5999 3.71192 27.7028
421 2 2.2208 -0.359646 6.542 21.9975
424 2 2.2208 -0.433821 0.98349 16.3783
599 1 -1.1104 6.74751 2.17487 26.4376
595 1 -1.1104 6.85133 2.07965 23.4155
598 1 -1.1104 6.61561 -3.40155 26.204
605 1 -1.1104 6.8057 -0.38505 26.422
627 2 2.2208 10.8409 0.894608 21.8508
628 1 -1.1104 12.5398 -3.56736 23.293
629 1 -1.1104 12.3164 2.33015 23.3132
630 1 -1.1104 12.3672 -3.34333 26.2406
631 1 -1.1104 12.2488 2.32028 26.2723
632 1 -1.1104 12.449 -0.490918 23.4403
633 2 2.2208 10.9796 -2.03695 24.7998
635 1 -1.1104 12.3764 -0.503515 26.3901
636 1 -1.1104 9.67864 -3.59069 23.613
637 1 -1.1104 9.58751 2.28265 23.5869
638 2 2.2208 8.10354 0.697199 24.8966
639 1 -1.1104 9.42207 -3.39042 26.2618
640 1 -1.1104 9.56648 2.28497 26.4171
641 2 2.2208 8.18188 -2.04297 22.1286
643 1 -1.1104 9.5144 -0.739877 23.3795
644 1 -1.1104 9.50863 -0.515589 26.2831
634 2 2.2208 10.995 3.58471 24.9204
642 2 2.2208 8.24126 3.64654 21.9215
361 2 2.2208 10.7562 14.8415 13.7294
497 1 -1.1104 12.083 19.0544 23.4283
469 1 -1.1104 0.989287 8.06536 20.8776
589 1 -1.1104 9.55378 13.5599 26.3782
616 2 2.2208 7.96563 20.658 21.9916
656 2 2.2208 5.25223 6.52872 22.0188
657 2 2.2208 5.14247 12.2104 22.119
658 1 -1.1104 1.03797 7.84714 23.6012
660 1 -1.1104 0.968351 7.90037 26.3685
662 1 -1.1104 1.0912 5.14652 23.4705
663 1 -1.1104 1.04932 10.5902 23.6531
666 2 2.2208 5.16673 9.26943 24.9543
667 1 -1.1104 1.0491 5.07958 26.3678
668 1 -1.1104 1.11414 10.7081 26.6093
671 1 -1.1104 3.9374 7.99922 23.4047
672 2 2.2208 2.47493 6.48553 24.77
673 2 2.2208 2.37072 12.0309 24.9283
674 1 -1.1104 3.80483 7.77683 26.3068
675 2 2.2208 2.40105 9.29501 22.232
676 1 -1.1104 4.04152 5.15828 23.3404
677 1 -1.1104 3.73148 10.6797 23.6302
678 1 -1.1104 3.94446 5.19863 26.1895
679 1 -1.1104 3.89149 10.6039 26.3964
659 1 -1.1104 6.69511 7.90404 23.4194
665 1 -1.1104 6.43659 10.7695 23.317
661 1 -1.1104 6.70108 7.86354 26.3634
646 2 2.2208 -0.167948 14.9605 25.1417
370 2 2.2208 8.03112 -2.02227 27.6874
423 2 2.2208 13.6487 3.75853 22.0794
567 1 -1.1104 12.2162 13.4528 20.6695
587 2 2.2208 8.00731 17.8438 24.651
626 2 2.2208 -0.362017 3.76921 24.9336
670 1 -1.1104 6.77691 10.71 26.1319
484 1 -1.1104 6.78186 10.9029 20.7465
664 1 -1.1104 6.79999 5.05819 23.3213
669 1 -1.1104 6.84801 5.12697 26.2397
687 1 -1.1104 9.44427 10.8584 26.0312
688 1 -1.1104 9.62033 5.18113 26.2291
689 1 -1.1104 9.30226 10.6483 23.4423
690 1 -1.1104 9.30565 5.18083 23.2184
691 2 2.2208 8.10412 9.27119 22.0439
692 1 -1.1104 9.38459 8.09788 26.2478
693 2 2.2208 7.91399 12.0255 24.7509
694 2 2.2208 8.10215 6.50285 24.8868
695 2 2.2208 10.8996 6.48123 21.9435
696 2 2.2208 10.9045 12.1028 22.1718
697 1 -1.1104 12.1949 7.79443 23.4617
698 1 -1.1104 12.2065 8.02427 26.377
699 1 -1.1104 12.309 5.13194 23.429
700 1 -1.1104 12.1905 10.7474 23.4739
701 2 2.2208 10.8532 9.38413 24.866
702 1 -1.1104 12.373 5.33332 26.3632
703 1 -1.1104 12.4051 10.6525 26.1077
704 1 -1.1104 9.4377 7.94535 23.3285
561 1 -1.1104 9.46764 13.6486 23.5037
539 1 -1.1104 6.65249 19.3056 20.5472
545 1 -1.1104 0.889109 16.218 20.7793
533 1 -1.1104 0.929809 13.5568 20.9807
712 1 -1.1104 6.8255 13.4016 26.1622
462 2 2.2208 10.8676 17.6396 21.9079
680 1 -1.1104 6.5305 16.4898 23.3935
720 2 2.2208 5.25656 14.908 24.8896
719 2 2.2208 5.1574 20.7436 24.9147
717 1 -1.1104 1.25349 13.6751 26.2852
647 2 2.2208 2.39311 14.792 22.2141
649 2 2.2208 2.37961 20.5364 22.0679
652 1 -1.1104 3.69473 16.1901 23.6004
655 1 -1.1104 0.982182 16.3824 23.6103
681 1 -1.1104 3.91828 13.5786 26.2759
682 1 -1.1104 3.82588 16.3104 26.4592
683 2 2.2208 2.53412 17.7922 24.809
686 1 -1.1104 3.77272 19.2397 26.3011
705 2 2.2208 5.22645 17.8722 22.0752
706 1 -1.1104 1.04689 13.5042 23.594
707 1 -1.1104 0.883952 19.1154 23.4938
711 1 -1.1104 3.68525 19.0978 23.4697
713 1 -1.1104 3.81973 13.4629 23.4736
715 1 -1.1104 0.979689 19.3437 26.3699
716 1 -1.1104 1.03779 16.5072 26.3988
588 1 -1.1104 6.56323 19.0764 26.1299
422 2 2.2208 13.6287 9.367 21.9851
498 1 -1.1104 12.2752 13.5423 26.1469
524 1 -1.1104 12.1496 16.2786 23.5055
617 1 -1.1104 9.37466 16.5801 23.2745
525 2 2.2208 10.8729 14.9993 24.9349
615 2 2.2208 8.09907 15.0846 22.0365
586 1 -1.1104 9.46603 16.4013 20.4723
714 1 -1.1104 6.48556 16.2985 26.3029
590 1 -1.1104 9.29274 19.104 26.1345
569 1 -1.1104 12.3292 18.944 20.5402
526 2 2.2208 10.6845 20.6383 24.8326
620 1 -1.1104 9.34832 16.3525 26.2892
8554 2 2.2208 -0.427496 -4.80061 22.0053
654 2 2.2208 13.6872 0.875099 24.9062
348 2 2.2208 10.6798 17.8387 27.6375
386 2 2.2208 11.0204 12.1967 27.6089
426 2 2.2208 13.6743 9.47754 16.4526
381 2 2.2208 5.3095 12.0412 27.5352
374 2 2.2208 5.21229 17.7878 27.627
621 2 2.2208 -0.322358 6.36732 16.3436
358 2 2.2208 5.15727 20.4292 13.7426
645 2 2.2208 -0.338694 20.6506 24.8643
349 2 2.2208 8.00097 20.5554 27.6423
347 2 2.2208 7.91072 15.0125 27.5096
379 2 2.2208 5.35216 6.48928 27.6272
344 2 2.2208 13.6998 15.1631 27.6808
357 2 2.2208 2.24509 17.7786 13.6651
367 2 2.2208 -0.339344 9.47918 13.6643
368 2 2.2208 -0.282799 0.779275 27.7051
350 2 2.2208 10.7736 3.70926 13.7354
372 2 2.2208 8.22774 3.83364 27.6717
721 2 2.2208 5.05641 23.3446 5.19149
722 2 2.2208 5.16559 29.0701 5.26103
723 1 -1.1104 0.906363 24.8606 0.914007
724 1 -1.1104 0.937256 24.8323 3.82184
725 1 -1.1104 0.839346 21.8777 1.05742
726 1 -1.1104 0.812996 27.6624 0.848899
727 2 2.2208 5.21852 26.1633 2.40004
728 1 -1.1104 0.931893 21.9246 3.81684
729 1 -1.1104 0.867488 27.6081 3.51911
730 1 -1.1104 3.72445 24.676 1.09218
731 2 2.2208 2.22513 23.479 2.50161
732 2 2.2208 2.37078 28.9285 2.46293
733 1 -1.1104 3.65397 24.8292 3.90208
734 2 2.2208 2.34176 26.2487 5.17661
735 1 -1.1104 3.65011 21.8193 0.885428
736 1 -1.1104 3.6451 27.4387 1.11862
737 1 -1.1104 3.77 22.146 3.71071
738 1 -1.1104 3.88588 27.6552 3.88729
862 1 -1.1104 0.940913 24.7693 6.54615
746 1 -1.1104 6.63797 22.0067 3.71269
864 1 -1.1104 0.939501 22.0304 6.70375
1082 2 2.2208 13.6934 40.2662 13.595
744 1 -1.1104 6.59315 22.0286 0.952566
870 1 -1.1104 3.77252 27.6495 6.5006
1010 2 2.2208 -0.221077 43.1644 7.85639
743 1 -1.1104 6.46278 24.7246 3.89732
742 1 -1.1104 6.58178 24.9136 0.994712
747 1 -1.1104 6.67843 27.5959 3.87357
745 1 -1.1104 6.4667 27.7055 0.946931
748 2 2.2208 10.7893 23.4066 5.19119
749 2 2.2208 10.7708 28.8697 5.2679
750 1 -1.1104 12.1964 24.9732 0.992895
751 1 -1.1104 12.3336 24.8333 3.68833
752 1 -1.1104 12.0398 22.0034 1.05313
753 1 -1.1104 12.235 27.727 1.20377
754 2 2.2208 10.9915 26.2909 2.6251
755 1 -1.1104 12.1339 22.1055 3.72066
756 1 -1.1104 12.2871 27.6965 4.02827
757 1 -1.1104 9.42072 24.8522 1.0361
758 2 2.2208 8.00436 23.414 2.439
759 2 2.2208 7.86374 29.1598 2.55909
760 1 -1.1104 9.34487 24.8501 3.93569
761 2 2.2208 7.82844 26.2173 5.34959
762 1 -1.1104 9.43465 22.2744 0.917936
763 1 -1.1104 9.30185 27.5142 1.07431
764 1 -1.1104 9.43087 22.0444 3.72943
765 1 -1.1104 9.47967 27.4447 3.91282
899 1 -1.1104 9.42644 22.0109 6.58615
898 1 -1.1104 9.47759 24.7777 6.69147
866 1 -1.1104 6.62213 21.9407 6.51956
769 2 2.2208 5.15374 34.6147 5.01314
770 1 -1.1104 1.15498 30.442 1.07955
771 1 -1.1104 1.03831 35.9615 0.885441
773 1 -1.1104 0.933486 30.623 3.75058
774 1 -1.1104 1.31268 36.1887 3.75801
776 1 -1.1104 1.02335 33.2392 0.813569
777 2 2.2208 5.11257 31.8058 2.29375
778 2 2.2208 5.12958 37.4097 2.26339
779 1 -1.1104 0.950938 33.3879 3.78701
781 1 -1.1104 3.80513 30.2238 0.988925
782 1 -1.1104 3.73116 36.1218 1.01997
783 2 2.2208 2.45686 34.6358 2.24621
784 1 -1.1104 3.77593 30.4461 3.75795
785 1 -1.1104 3.9898 35.9877 3.61659
786 2 2.2208 2.52841 31.8876 5.05438
787 2 2.2208 2.54496 37.5449 5.07086
788 1 -1.1104 3.60039 33.1608 1.02578
789 1 -1.1104 3.76246 33.2174 3.57095
925 1 -1.1104 3.84698 30.4666 6.63486
926 1 -1.1104 3.98485 36.0961 6.33444
795 1 -1.1104 6.66154 33.4413 0.990605
766 2 2.2208 13.6656 23.3678 2.30146
923 1 -1.1104 0.99451 33.3124 6.42302
922 1 -1.1104 6.74182 36.0364 6.61574
860 2 2.2208 13.6612 45.8177 2.30577
1052 2 2.2208 13.6897 40.3115 7.93931
1066 2 2.2208 10.6102 31.7231 13.515
1075 2 2.2208 8.14286 45.7971 13.6989
793 1 -1.1104 6.45009 30.48 0.966936
1071 2 2.2208 5.1968 43.3346 13.4756
772 1 -1.1104 6.46893 36.0013 0.936326
775 1 -1.1104 6.63886 35.982 3.72617
780 1 -1.1104 6.56654 33.2321 3.68659
794 1 -1.1104 6.38025 30.5262 3.79006
796 2 2.2208 10.9122 34.6764 5.17426
797 1 -1.1104 12.2656 30.4613 1.13024
798 1 -1.1104 12.2339 35.8827 0.993573
799 1 -1.1104 12.0665 30.526 3.88359
800 1 -1.1104 12.1726 35.9046 3.68798
801 1 -1.1104 12.3138 33.2587 0.861734
802 2 2.2208 10.8809 31.8119 2.41125
803 2 2.2208 10.8 37.397 2.31284
804 1 -1.1104 12.3453 33.0632 3.77291
805 1 -1.1104 9.29988 30.3736 1.20221
806 1 -1.1104 9.467 35.995 0.826647
807 2 2.2208 8.01595 34.6183 2.43933
808 1 -1.1104 9.1472 30.3669 3.96049
809 1 -1.1104 9.45383 36.1251 3.64684
810 2 2.2208 8.03844 31.8057 5.27604
811 2 2.2208 8.04739 37.3672 5.14935