ITEM: TIMESTEP
70000
ITEM: NUMBER OF ATOMS
17910
ITEM: BOX BOUNDS pp pp pp
-3.9425423145393307e-01 2.7734254231454781e+01
-4.7275530815542339e+00 3.3280755308155955e+02
-3.9764644674296634e-01 2.7737646446741930e+01
ITEM: ATOMS id type q x y z
1 2 2.2208 5.48272 0.765324 5.27375
2 1 -1.1104 1.53799 -3.31504 0.883568
3 1 -1.1104 1.28175 2.15481 1.08911
6 1 -1.1104 1.37902 -3.3041 3.7451
7 1 -1.1104 1.12196 2.15022 3.87347
10 1 -1.1104 1.25401 -0.627005 0.988357
12 2 2.2208 5.41797 -1.84807 2.31271
14 1 -1.1104 1.19138 -0.534297 3.89006
16 1 -1.1104 4.30866 -3.26111 1.03335
17 1 -1.1104 4.06046 2.13005 1.25652
18 2 2.2208 2.49414 0.832674 2.59694
19 1 -1.1104 4.2709 -3.25487 3.71692
20 1 -1.1104 3.7277 2.12377 3.96496
21 2 2.2208 2.65106 -1.95482 5.14341
22 2 2.2208 2.63993 3.51428 5.33041
23 1 -1.1104 3.96595 -0.503117 0.94848
24 1 -1.1104 4.03638 -0.556025 3.80357
13 2 2.2208 5.449 3.62263 2.33019
26 2 2.2208 -0.180237 0.854874 5.29673
201 2 2.2208 -0.252537 0.804641 11.0475
27 2 2.2208 -0.218603 3.58722 2.44196
8 1 -1.1104 7.01717 -3.0925 3.91434
8434 2 2.2208 8.26895 -4.6663 2.42943
25 2 2.2208 -0.0770694 -1.97467 2.51041
170 1 -1.1104 1.11943 -0.900749 6.4918
173 1 -1.1104 3.90513 2.40526 6.66573
323 1 -1.1104 12.5276 16.6176 9.64938
315 1 -1.1104 9.6766 16.3731 12.3574
4 1 -1.1104 7.11399 -3.28742 0.958728
15 1 -1.1104 6.97642 -0.605869 3.64456
11 1 -1.1104 6.75904 -0.57142 0.892918
5 1 -1.1104 6.94657 2.12062 0.851671
332 2 2.2208 13.5618 17.9946 7.94381
9 1 -1.1104 6.5457 2.41596 3.94662
31 2 2.2208 10.9894 0.950926 5.20277
32 1 -1.1104 12.5706 -3.2098 0.989903
33 1 -1.1104 12.5022 2.46799 1.00101
34 1 -1.1104 12.4803 -3.26032 3.77364
35 1 -1.1104 12.4173 2.4 3.83165
36 1 -1.1104 12.4483 -0.502604 0.954823
37 2 2.2208 11.1016 -1.77433 2.40355
39 1 -1.1104 12.569 -0.495048 3.77536
40 1 -1.1104 9.81639 -3.23375 0.939001
41 1 -1.1104 9.65314 2.32666 1.17477
42 2 2.2208 8.3236 0.844301 2.39683
43 1 -1.1104 9.69703 -3.34577 3.82482
44 1 -1.1104 9.63476 2.25128 3.98172
45 2 2.2208 8.41182 -1.88681 5.18915
47 1 -1.1104 9.73698 -0.395225 0.961099
48 1 -1.1104 9.75754 -0.606345 3.76582
46 2 2.2208 8.10084 3.68076 5.26425
38 2 2.2208 11.1477 3.69188 2.38128
205 1 -1.1104 12.5157 -3.05226 6.45565
209 1 -1.1104 9.46981 2.24674 6.71453
171 1 -1.1104 6.70009 -0.573001 6.5767
169 1 -1.1104 6.75778 2.19663 6.65183
311 2 2.2208 -0.402094 20.592 8.1577
210 1 -1.1104 9.52724 -0.521771 6.60321
206 1 -1.1104 12.4013 2.41793 6.65267
82 2 2.2208 -0.176474 9.19301 2.4766
54 2 2.2208 5.37497 6.43772 5.2447
55 2 2.2208 5.44861 12.1463 5.29042
56 1 -1.1104 1.28734 7.88569 1.01492
58 1 -1.1104 1.29783 7.77427 3.88191
60 1 -1.1104 1.22436 5.07423 0.789772
61 1 -1.1104 1.32037 10.7628 1.13396
66 2 2.2208 5.58809 9.23744 2.35206
67 1 -1.1104 1.22153 4.91396 3.64271
68 1 -1.1104 1.17039 10.6732 3.88061
71 1 -1.1104 4.04713 7.71056 0.877794
72 2 2.2208 2.67106 6.33973 2.28904
73 2 2.2208 2.81431 12.2043 2.45424
74 1 -1.1104 4.23406 8.05229 3.85457
75 2 2.2208 2.76895 9.38784 5.22986
76 1 -1.1104 4.19695 5.03158 0.892853
77 1 -1.1104 4.11018 10.6856 1.08577
79 1 -1.1104 4.11651 5.16504 3.80037
80 1 -1.1104 4.11954 10.698 3.87516
239 1 -1.1104 4.01032 5.10904 6.60557
238 1 -1.1104 4.15598 7.86285 6.68203
236 1 -1.1104 1.2316 4.92516 6.50626
83 2 2.2208 -0.216845 12.1536 5.20509
81 2 2.2208 -0.0630254 6.40702 5.22645
234 1 -1.1104 1.3295 8.11539 6.64639
8441 2 2.2208 11.2904 -4.63643 10.8386
57 1 -1.1104 6.93656 8.01891 0.953253
64 1 -1.1104 6.78525 10.8128 1.06064
70 1 -1.1104 6.88995 10.8175 3.9171
59 1 -1.1104 7.05815 7.90006 3.72994
69 1 -1.1104 6.82856 5.039 3.66849
235 1 -1.1104 6.91218 7.71088 6.38272
63 1 -1.1104 6.88378 5.06124 1.03608
237 1 -1.1104 6.78051 5.0552 6.63253
84 2 2.2208 11.0658 6.52023 5.22365
85 2 2.2208 11.0223 12.3858 5.37096
86 1 -1.1104 12.3868 7.96143 1.12134
87 1 -1.1104 12.566 7.933 3.90322
88 1 -1.1104 12.3156 5.1466 1.11072
89 1 -1.1104 12.4217 10.787 1.00061
91 2 2.2208 10.9434 9.31916 2.51024
92 1 -1.1104 12.3448 5.19391 3.82256
93 1 -1.1104 12.3493 10.7842 3.84177
94 1 -1.1104 9.73115 7.97783 0.942519
95 2 2.2208 8.33366 6.43837 2.38675
96 2 2.2208 8.20818 12.2546 2.35221
97 1 -1.1104 9.74908 8.0207 3.69364
98 2 2.2208 8.25901 9.29272 5.18376
99 1 -1.1104 9.62654 5.01739 1.06379
100 1 -1.1104 9.53237 10.6503 0.925153
102 1 -1.1104 9.67394 5.12082 3.91518
103 1 -1.1104 9.65151 11.0614 3.83137
269 1 -1.1104 9.49987 5.03838 6.71046
266 1 -1.1104 12.3201 5.082 6.75636
65 1 -1.1104 7.08968 10.6079 6.65375
322 1 -1.1104 9.68062 13.542 12.2406
136 2 2.2208 -0.246423 20.5669 2.3271
106 2 2.2208 5.2072 17.7114 5.20634
107 1 -1.1104 1.16312 13.691 1.25227
109 1 -1.1104 1.21695 19.1185 0.712233
113 1 -1.1104 1.31186 13.4433 3.90216
114 1 -1.1104 1.05131 18.9667 3.57758
116 1 -1.1104 1.11979 16.2753 1.02303
119 2 2.2208 5.43349 14.8917 2.48735
120 2 2.2208 5.22592 20.5118 2.46612
121 1 -1.1104 1.03291 16.237 3.96702
123 1 -1.1104 3.94796 13.2804 0.916581
125 1 -1.1104 3.93645 18.9303 1.20284
127 2 2.2208 2.44339 17.5701 2.46166
128 1 -1.1104 4.17042 13.4738 3.8381
129 1 -1.1104 3.79125 18.9776 3.86779
130 2 2.2208 2.58904 15.0071 5.403
131 2 2.2208 2.58531 20.4826 5.11317
132 1 -1.1104 3.91561 16.0586 0.998479
134 1 -1.1104 3.80486 16.2743 3.95202
133 1 -1.1104 4.0376 16.284 6.73329
126 1 -1.1104 3.66517 19.0292 6.59804
135 2 2.2208 -0.277538 14.9497 2.39443
339 2 2.2208 2.65942 0.957137 13.8029
8432 2 2.2208 5.49254 -4.4723 5.10533
8433 2 2.2208 0.0374952 -4.73323 5.20431
386 2 2.2208 11.1107 12.2906 -0.279718
138 1 -1.1104 6.82851 19.1019 1.02217
139 1 -1.1104 6.58481 19.149 3.7917
122 1 -1.1104 6.52227 16.5154 3.93415
140 1 -1.1104 6.82558 16.3759 1.17634
110 1 -1.1104 6.90209 13.5261 1.11822
115 1 -1.1104 7.01474 13.5358 4.06489
141 2 2.2208 10.9454 17.9355 5.23912
142 1 -1.1104 12.6101 13.5714 0.971629
144 1 -1.1104 12.414 19.3585 1.11071
146 1 -1.1104 12.5583 13.6743 3.82421
147 1 -1.1104 12.2429 19.3849 3.83218
148 1 -1.1104 12.5907 16.3989 1.08842
150 2 2.2208 11.0231 15.2602 2.58526
151 2 2.2208 10.8802 20.6903 2.45555
152 1 -1.1104 12.3063 16.633 4.03034
153 1 -1.1104 9.85508 13.7446 1.19113
155 1 -1.1104 9.63459 19.1917 1.06014
157 2 2.2208 8.14728 17.815 2.5136
158 1 -1.1104 9.61314 13.7736 3.96181
159 1 -1.1104 9.54281 19.2561 3.84815
160 2 2.2208 8.21919 15.0049 5.52297
161 2 2.2208 8.0366 20.5895 5.11566
162 1 -1.1104 9.74138 16.5837 1.29656
164 1 -1.1104 9.45306 16.4789 4.06684
154 1 -1.1104 9.6994 13.7278 6.83176
156 1 -1.1104 9.62048 19.2705 6.54043
112 1 -1.1104 6.60334 19.2241 6.43644
143 1 -1.1104 12.4754 13.5916 6.58046
321 1 -1.1104 9.63345 19.2141 12.2776
8439 2 2.2208 -0.227786 -4.68247 11.0109
199 2 2.2208 -0.171669 3.80558 8.10735
343 2 2.2208 8.4307 0.936956 13.6502
8440 2 2.2208 8.34566 -4.76957 8.05087
166 1 -1.1104 1.32084 -3.39389 6.62031
137 2 2.2208 -0.251625 17.8448 5.13685
167 1 -1.1104 1.15987 2.17162 6.79715
172 1 -1.1104 3.87068 -3.12305 6.62213
174 1 -1.1104 3.91391 -0.425595 6.67806
175 2 2.2208 5.47156 0.993267 10.9248
176 1 -1.1104 1.13525 -3.33953 12.2522
177 1 -1.1104 1.32823 2.36972 12.1723
180 1 -1.1104 0.868147 -3.2454 9.51203
181 1 -1.1104 1.11939 2.36794 9.51742
184 1 -1.1104 1.33016 -0.526847 12.4549
186 2 2.2208 5.44736 -1.95554 8.0047
187 2 2.2208 5.29533 3.64094 8.06953
188 1 -1.1104 1.15273 -0.427531 9.43184
190 1 -1.1104 4.07998 -3.25242 12.357
191 1 -1.1104 4.00852 2.52362 12.3069
192 2 2.2208 2.58642 0.882844 8.13991
193 1 -1.1104 3.79328 -3.49436 9.56171
194 1 -1.1104 3.8863 2.36006 9.48933
195 2 2.2208 2.43205 -1.95059 10.853
197 1 -1.1104 4.14711 -0.587058 12.2357
198 1 -1.1104 4.15967 -0.447602 9.35761
196 2 2.2208 2.50953 3.82973 10.9091
200 2 2.2208 -0.145014 -1.89966 8.08743
380 2 2.2208 2.73665 9.24532 -0.283099
319 1 -1.1104 9.61552 13.7767 9.59978
352 2 2.2208 5.45567 9.40144 13.6212
382 2 2.2208 -0.106286 12.1111 -0.371312
337 2 2.2208 -0.247961 3.77392 13.7442
208 1 -1.1104 9.73013 -3.35615 6.62711
168 1 -1.1104 6.81946 -3.28099 6.53498
351 2 2.2208 2.45537 6.76545 13.6564
330 1 -1.1104 12.1865 13.5187 12.2832
290 1 -1.1104 6.97575 13.5864 9.38586
178 1 -1.1104 6.83477 -3.23041 12.2386
185 1 -1.1104 7.03079 -0.382591 12.2664
182 1 -1.1104 6.85892 -3.38495 9.37776
189 1 -1.1104 6.77758 -0.50809 9.51968
183 1 -1.1104 6.74646 2.34826 9.56241
179 1 -1.1104 6.71012 2.35328 12.2784
207 1 -1.1104 12.4092 -0.410868 6.46087
211 2 2.2208 10.9382 0.989049 10.7183
212 1 -1.1104 12.6237 -3.32128 12.495
213 1 -1.1104 12.2879 2.21875 12.2043
214 1 -1.1104 12.708 -3.04515 9.56503
215 1 -1.1104 12.4289 2.23919 9.28461
216 1 -1.1104 12.4913 -0.535398 12.3086
217 2 2.2208 11.1199 -1.82093 7.84934
218 2 2.2208 10.9656 3.83212 7.98197
219 1 -1.1104 12.4599 -0.388531 9.35496
220 1 -1.1104 9.69528 -3.24737 12.3596
221 1 -1.1104 9.57331 2.34576 12.0606
222 2 2.2208 8.16648 0.799886 7.97177
223 1 -1.1104 9.78482 -3.22404 9.25609
224 1 -1.1104 9.45322 2.49724 9.27034
225 2 2.2208 8.21457 -1.92388 10.807
227 1 -1.1104 9.76473 -0.559616 12.077
228 1 -1.1104 9.51289 -0.612462 9.28185
226 2 2.2208 8.09508 3.7754 10.8304
306 1 -1.1104 6.96147 16.4611 12.5196
30 2 2.2208 -0.194538 9.56371 7.99748
78 1 -1.1104 4.10109 10.8166 6.67832
316 2 2.2208 8.19254 20.7841 10.9262
62 1 -1.1104 1.36197 10.9474 6.70406
240 2 2.2208 5.41755 6.42058 10.7685
241 2 2.2208 5.46251 12.1858 10.8799
242 1 -1.1104 1.00407 8.01884 12.2761
244 1 -1.1104 1.32609 7.84074 9.47172
246 1 -1.1104 1.27696 5.28257 11.9948
247 1 -1.1104 1.4176 10.6629 12.4228
250 2 2.2208 5.37657 9.29198 8.13647
251 1 -1.1104 1.21293 5.18859 9.35476
252 1 -1.1104 1.3434 10.9446 9.53745
255 1 -1.1104 3.95762 7.97102 12.2279
256 2 2.2208 2.74463 6.55836 8.13231
257 2 2.2208 2.60717 12.4435 8.11957
258 1 -1.1104 4.11123 7.87276 9.41931
259 2 2.2208 2.6678 9.44601 10.8405
260 1 -1.1104 4.15028 5.3046 12.3668
261 1 -1.1104 4.0681 10.6708 12.2996
262 1 -1.1104 4.10226 5.06913 9.48413
263 1 -1.1104 3.93405 10.8587 9.34315
51 2 2.2208 -0.212996 12.1813 10.8608
29 2 2.2208 -0.244279 6.61601 10.8148
296 1 -1.1104 6.78151 19.234 12.3111
367 2 2.2208 -0.179139 9.39547 13.7414
349 2 2.2208 8.23461 20.6457 -0.495725
267 1 -1.1104 9.64453 7.86158 6.59341
265 1 -1.1104 12.3809 7.92226 6.63946
101 1 -1.1104 9.60021 10.7392 6.55903
288 1 -1.1104 6.89392 19.4029 9.34146
245 1 -1.1104 6.77904 7.9858 9.36934
248 1 -1.1104 6.90029 5.15819 12.1752
253 1 -1.1104 6.87474 5.18948 9.37937
249 1 -1.1104 6.94433 10.7954 12.339
243 1 -1.1104 6.73882 8.05853 12.2649
254 1 -1.1104 6.67138 10.7292 9.53068
90 1 -1.1104 12.466 10.9614 6.55659
264 1 -1.1104 9.63708 10.8297 9.47824
268 1 -1.1104 9.52539 5.21272 9.35785
270 1 -1.1104 9.58844 10.9132 12.3942
271 1 -1.1104 9.58111 5.2195 12.1581
272 2 2.2208 8.10293 9.44739 10.7999
273 1 -1.1104 9.51625 8.12146 9.35621
274 2 2.2208 8.26135 12.3175 8.06017
275 2 2.2208 8.27238 6.44708 7.85553
276 2 2.2208 10.9183 6.59049 10.7737
277 2 2.2208 10.8768 12.2061 10.9042
278 1 -1.1104 12.3466 7.90881 12.4847
279 1 -1.1104 12.4331 8.11393 9.53331
280 1 -1.1104 12.5262 4.98267 12.2126
281 1 -1.1104 12.3483 10.7187 12.1032
282 2 2.2208 10.9448 9.37243 7.96726
283 1 -1.1104 12.2771 5.1274 9.37467
284 1 -1.1104 12.3402 10.8699 9.34436
285 1 -1.1104 9.6181 7.99142 12.2644
313 2 2.2208 -0.3769 14.905 8.13486
124 1 -1.1104 4.10537 13.5738 6.70995
108 1 -1.1104 1.04784 13.5839 6.74152
381 2 2.2208 5.39737 12.1155 -0.331476
302 1 -1.1104 0.919228 19.532 6.54194
117 1 -1.1104 1.22309 16.5011 6.74206
310 2 2.2208 2.6025 15.0228 11.011
294 1 -1.1104 1.13658 13.6217 9.49591
309 2 2.2208 2.49836 20.6831 10.8417
293 2 2.2208 5.38233 20.544 7.92085
292 1 -1.1104 1.1623 16.2836 9.58161
300 2 2.2208 5.36612 17.902 10.8633
308 1 -1.1104 3.89564 16.4839 12.3157
299 1 -1.1104 1.20879 13.2872 12.4888
307 1 -1.1104 1.25272 16.2689 12.3009
298 1 -1.1104 1.11769 19.0721 12.279
303 2 2.2208 2.48961 17.8072 8.15729
305 1 -1.1104 4.09427 13.6814 9.5608
301 1 -1.1104 4.01452 19.1732 9.38703
295 2 2.2208 5.38185 15.0583 8.1223
304 1 -1.1104 3.77388 16.4196 9.68263
286 1 -1.1104 3.96278 19.2961 12.1457
287 1 -1.1104 3.9114 13.625 12.3583
291 1 -1.1104 1.08384 19.0813 9.45322
312 2 2.2208 -0.270629 17.8413 10.9061
111 1 -1.1104 6.7313 13.648 6.80063
327 1 -1.1104 12.3977 19.4757 9.34687
163 1 -1.1104 9.54878 16.6767 6.75885
320 2 2.2208 8.29364 18.0651 8.13856
314 1 -1.1104 9.70374 16.6445 9.44759
331 2 2.2208 11.1628 18.0127 10.9791
318 1 -1.1104 9.62031 19.3366 9.55261
329 1 -1.1104 12.4861 19.5029 12.4123
326 1 -1.1104 12.3821 16.5027 12.3495
297 1 -1.1104 6.73929 13.7777 12.4092
289 1 -1.1104 6.77178 16.4658 9.52424
145 1 -1.1104 12.1909 19.3426 6.38379
328 1 -1.1104 12.3318 14.0061 9.36953
118 1 -1.1104 6.85225 16.6103 6.82367
149 1 -1.1104 12.2193 16.4466 6.71266
325 2 2.2208 10.7922 15.224 8.16106
324 2 2.2208 10.9327 20.878 7.8432
317 2 2.2208 8.26616 15.2997 10.8971
342 2 2.2208 -0.239367 14.9343 13.7037
358 2 2.2208 5.40226 20.676 13.536
341 2 2.2208 5.35664 3.84872 13.6221
368 2 2.2208 -0.0646252 0.901421 -0.306302
354 2 2.2208 8.27305 6.60795 13.5774
335 2 2.2208 -0.257853 20.4288 13.6206
348 2 2.2208 11.1497 18.0054 -0.214244
338 2 2.2208 5.46388 -1.8728 13.5818
346 2 2.2208 11.1655 -1.8634 13.6161
384 2 2.2208 10.9789 6.45911 -0.317188
359 2 2.2208 5.38538 15.1404 13.6478
357 2 2.2208 2.61638 17.9846 13.5361
350 2 2.2208 11.0669 3.63087 13.5807
8458 2 2.2208 2.69041 -4.6528 13.5999
388 2 2.2208 5.38807 0.968916 16.565
389 1 -1.1104 1.0013 -3.39525 17.798
390 1 -1.1104 1.30112 2.26038 17.9683
393 1 -1.1104 1.21792 -3.24386 15.0272
395 1 -1.1104 1.40035 2.31894 15.2022
401 1 -1.1104 1.0506 -0.555687 17.9501
403 2 2.2208 5.34297 -1.96629 19.2683
405 1 -1.1104 1.29785 -0.450958 15.196
409 1 -1.1104 4.01279 -3.37682 17.8174
410 1 -1.1104 4.08688 2.58494 18.1292
411 2 2.2208 2.58976 1.00756 19.2813
412 1 -1.1104 4.06507 -3.11767 14.8812
414 1 -1.1104 3.98976 2.50994 15.101
416 2 2.2208 2.56847 -1.91098 16.2813
418 1 -1.1104 3.91344 -0.275463 17.8799
419 1 -1.1104 4.00486 -0.234919 15.1068
404 2 2.2208 5.4132 3.82875 19.4222
417 2 2.2208 2.60048 3.98862 16.437
397 1 -1.1104 6.87455 -3.32085 15.1631
415 1 -1.1104 3.80116 2.35589 20.8178
420 1 -1.1104 4.02389 -0.488982 20.7878
427 2 2.2208 -0.240984 3.60572 19.2501
424 2 2.2208 -0.108346 0.999684 16.4747
425 2 2.2208 -0.265677 -1.91341 19.2179
8586 2 2.2208 2.52696 -4.65941 19.2914
8517 2 2.2208 11.0662 -4.70878 22.1148
8446 2 2.2208 10.9888 -4.73787 27.8523
623 2 2.2208 -0.378366 17.6318 22.0443
8553 2 2.2208 5.53286 -4.54709 22.2485
391 1 -1.1104 6.80826 -3.13429 17.8699
399 1 -1.1104 6.82278 2.21229 15.0712
407 1 -1.1104 6.98561 -0.750271 14.9598
8519 2 2.2208 2.71812 -4.63285 24.8379
8556 2 2.2208 8.23918 -4.56251 19.0773
402 1 -1.1104 6.62018 -0.400207 17.8045
392 1 -1.1104 6.93137 2.35623 17.9907
431 2 2.2208 11.0356 0.914269 16.4199
432 1 -1.1104 12.3841 -3.16501 18.096
433 1 -1.1104 12.5423 2.49483 17.7072
434 1 -1.1104 12.6429 -3.41523 15.2387
436 1 -1.1104 12.4453 2.29752 14.9346
438 1 -1.1104 12.4411 -0.219834 17.8613
439 2 2.2208 10.9532 -1.65218 19.3578
441 1 -1.1104 12.5032 -0.450331 15.0357
443 1 -1.1104 9.71921 -3.25943 17.7539
444 1 -1.1104 9.8494 2.49108 17.8872
445 2 2.2208 8.27126 1.18362 19.2417
446 1 -1.1104 9.77227 -3.31918 15.108
448 1 -1.1104 9.49993 2.30686 14.9989
450 2 2.2208 8.26494 -1.9779 16.4223
451 2 2.2208 8.14332 3.81628 16.4216
452 1 -1.1104 9.66573 -0.403749 17.8914
453 1 -1.1104 9.74063 -0.373833 15.0956
440 2 2.2208 11.1919 3.9163 19.1686
437 1 -1.1104 12.4505 2.45068 20.7029
442 1 -1.1104 12.5561 -0.379918 20.7317
449 1 -1.1104 9.63307 2.44225 20.808
435 1 -1.1104 12.2572 -3.0163 20.9219
408 1 -1.1104 6.71172 -0.377914 20.5816
400 1 -1.1104 6.78398 2.26106 20.7839
398 1 -1.1104 6.76459 -3.16225 20.7801
454 1 -1.1104 9.66391 -0.190682 20.639
447 1 -1.1104 9.42319 -3.14715 20.5135
621 2 2.2208 -0.238979 6.6656 16.5072
464 2 2.2208 5.3135 6.52309 16.5412
465 2 2.2208 5.4959 12.3463 16.4682
466 1 -1.1104 1.06345 7.98927 18.0976
468 1 -1.1104 1.11835 8.05391 15.3001
472 1 -1.1104 1.1162 5.14189 17.9104
473 1 -1.1104 1.30921 10.6727 18.0643
476 2 2.2208 5.35151 9.43687 19.325
477 1 -1.1104 1.11333 5.2304 14.956
479 1 -1.1104 1.27961 10.8306 15.1979
485 1 -1.1104 3.98306 8.01151 18.0022
486 2 2.2208 2.53408 6.57719 19.3996
487 2 2.2208 2.6459 12.2124 19.2338
488 1 -1.1104 3.89396 8.09746 15.1074
490 2 2.2208 2.61708 9.37868 16.5692
491 1 -1.1104 3.83439 5.16009 18.0218
492 1 -1.1104 4.09855 10.8949 17.969
493 1 -1.1104 3.74743 5.34956 15.088
495 1 -1.1104 4.10796 10.8027 15.1331
622 2 2.2208 -0.195336 9.31833 19.34
469 1 -1.1104 1.13923 8.02158 20.7106
475 1 -1.1104 6.78089 10.8655 17.9241
648 2 2.2208 -0.228184 12.1166 16.4426
496 1 -1.1104 3.77192 10.8237 20.7388
494 1 -1.1104 4.12638 5.26787 20.8187
480 1 -1.1104 1.05449 10.7519 20.8759
489 1 -1.1104 3.82466 8.05355 20.8318
474 1 -1.1104 6.76422 5.13933 18.0261
470 1 -1.1104 6.90978 7.87696 15.2569
481 1 -1.1104 6.82972 5.19045 15.0497
484 1 -1.1104 6.58928 10.8671 20.8604
467 1 -1.1104 6.66358 7.94812 18.0409
483 1 -1.1104 6.93367 10.6851 15.041
500 2 2.2208 11.0967 6.62603 16.4657
501 2 2.2208 10.9758 12.2183 16.621
502 1 -1.1104 12.3948 7.8941 17.9897
503 1 -1.1104 12.5358 7.9641 15.2741
505 1 -1.1104 12.6875 5.2842 17.8256
506 1 -1.1104 12.1931 10.7193 17.833
507 2 2.2208 10.8676 9.30683 19.1635
508 1 -1.1104 12.3251 5.13892 15.1753
510 1 -1.1104 12.5602 10.8654 14.8986
512 1 -1.1104 9.52914 8.0257 17.9357
513 2 2.2208 8.20503 6.52057 19.1549
514 2 2.2208 7.98231 12.2127 19.4
515 1 -1.1104 9.67756 7.93869 15.0421
517 2 2.2208 8.07625 9.35861 16.6136
518 1 -1.1104 9.66211 5.12319 17.6905
519 1 -1.1104 9.49741 10.8597 17.8021
520 1 -1.1104 9.62436 5.00846 15.0618
522 1 -1.1104 9.80579 10.7301 15.2603
471 1 -1.1104 6.64415 8.09425 20.6368
511 1 -1.1104 12.1503 10.9648 20.702
523 1 -1.1104 9.40976 10.834 20.5043
456 2 2.2208 -0.0888017 17.7662 16.513
504 1 -1.1104 12.4566 8.21902 20.7077
516 1 -1.1104 9.53607 7.91653 20.6307
8554 2 2.2208 -0.243 -4.59751 22.1432
718 1 -1.1104 6.75765 19.3125 23.4102
8623 2 2.2208 -0.228706 -4.76508 16.4137
458 2 2.2208 -0.161559 20.6037 19.2788
8516 2 2.2208 8.23792 -4.49465 24.8251
527 2 2.2208 5.24397 17.8071 16.345
528 1 -1.1104 1.23727 13.5553 17.8942
529 1 -1.1104 1.02993 19.2507 17.907
532 1 -1.1104 1.2074 13.618 15.0679
534 1 -1.1104 1.44837 19.3971 14.928
540 1 -1.1104 1.04588 16.3802 17.8746
542 2 2.2208 5.30183 15.0466 19.3481
543 2 2.2208 5.22102 20.6125 19.4007
544 1 -1.1104 1.1008 16.51 14.9052
548 1 -1.1104 3.99999 13.6436 17.9564
549 1 -1.1104 3.8348 19.2713 17.7592
550 2 2.2208 2.54736 17.7744 19.2787
551 1 -1.1104 3.98369 13.6641 15.3278
553 1 -1.1104 4.18899 19.2244 14.7894
555 2 2.2208 2.55014 15.0165 16.4375
556 2 2.2208 2.57727 20.6949 16.4041
557 1 -1.1104 3.9 16.357 17.7978
558 1 -1.1104 3.94866 16.2612 14.9744
552 1 -1.1104 4.0558 13.6312 20.8183
457 2 2.2208 -0.249899 14.9675 19.3657
498 1 -1.1104 12.3555 13.4502 26.3846
524 1 -1.1104 12.5533 16.4687 23.7069
586 1 -1.1104 9.59678 16.6167 21.0005
546 1 -1.1104 6.80166 16.2831 15.1745
530 1 -1.1104 6.51482 13.6755 18.0234
531 1 -1.1104 6.67704 19.1924 17.8323
538 1 -1.1104 6.96554 18.9291 15.1179
541 1 -1.1104 6.65141 16.6749 18.0399
536 1 -1.1104 6.86838 13.538 15.1359
563 2 2.2208 11.0552 17.7786 16.4859
564 1 -1.1104 12.3112 13.6392 17.9613
565 1 -1.1104 12.3033 19.1727 17.8971
566 1 -1.1104 12.5973 13.5605 15.1223
568 1 -1.1104 12.4785 19.2352 15.1396
570 1 -1.1104 12.2896 16.4182 17.9367
571 2 2.2208 10.9091 15.0771 19.3697
572 2 2.2208 10.9298 20.5461 19.2244
573 1 -1.1104 12.3168 16.3131 15.1146
575 1 -1.1104 9.50702 13.5329 18.0125
576 1 -1.1104 9.39159 19.1068 17.9484
577 2 2.2208 8.16504 17.8068 19.482
578 1 -1.1104 9.71137 13.5268 15.2553
580 1 -1.1104 9.82154 19.2289 15.0701
582 2 2.2208 8.21112 14.8961 16.5144
583 2 2.2208 8.04615 20.5399 16.5591
584 1 -1.1104 9.53488 16.4244 18.1717
585 1 -1.1104 9.68653 16.2554 15.1955
579 1 -1.1104 9.45227 13.595 20.8308
547 1 -1.1104 6.67999 16.4448 20.8845
574 1 -1.1104 12.3976 16.553 20.9192
567 1 -1.1104 12.3894 13.8067 20.7462
569 1 -1.1104 12.5204 19.3005 20.8062
562 1 -1.1104 9.58194 19.2844 23.5829
396 1 -1.1104 1.34844 2.25902 20.7516
561 1 -1.1104 9.71392 13.4482 23.5694
421 2 2.2208 -0.171506 6.67722 22.0835
625 2 2.2208 -0.0947936 0.907997 22.1131
587 2 2.2208 8.28011 17.7667 24.9602
413 1 -1.1104 3.914 -3.4775 20.7255
624 2 2.2208 -0.281702 -1.84534 25.0279
626 2 2.2208 -0.202572 3.83639 25.0217
394 1 -1.1104 1.15496 -3.26793 20.6254
406 1 -1.1104 1.12779 -0.635241 20.836
591 2 2.2208 5.34604 0.933568 22.1228
592 1 -1.1104 1.2715 -3.30884 23.5115
593 1 -1.1104 1.13019 2.57876 23.5164
596 1 -1.1104 1.26157 -3.09052 26.1658
597 1 -1.1104 1.15571 2.37686 26.2812
600 1 -1.1104 1.17475 -0.30977 23.6562
602 2 2.2208 5.48331 -1.58117 24.9232
603 2 2.2208 5.41308 3.8461 24.9313
604 1 -1.1104 1.03729 -0.532792 26.3632
606 1 -1.1104 4.06319 -3.01784 23.5666
607 1 -1.1104 3.93572 2.62488 23.7239
608 2 2.2208 2.42526 1.0556 24.8975
609 1 -1.1104 4.16911 -3.21893 26.2144
610 1 -1.1104 3.98094 2.46133 26.5938
611 2 2.2208 2.51919 -1.84861 22.1587
613 1 -1.1104 3.90789 -0.364447 23.6197
614 1 -1.1104 3.95238 -0.308515 26.2583
612 2 2.2208 2.56044 3.81552 22.3672
589 1 -1.1104 9.44604 13.5245 26.3242
463 1 -1.1104 12.3019 13.643 23.4973
617 1 -1.1104 9.61347 16.3338 23.6038
374 2 2.2208 5.45382 17.6814 27.8833
714 1 -1.1104 6.77645 16.2785 26.4124
594 1 -1.1104 6.70504 -2.98495 23.6004
595 1 -1.1104 6.69139 2.37219 23.4677
599 1 -1.1104 6.89238 2.51731 26.1612
605 1 -1.1104 6.85139 -0.36496 26.2217
601 1 -1.1104 6.84703 -0.352081 23.5042
598 1 -1.1104 7.16909 -3.17854 26.3839
627 2 2.2208 11.104 1.06991 22.0959
628 1 -1.1104 12.4416 -3.21493 23.5641
629 1 -1.1104 12.3411 2.53375 23.4323
630 1 -1.1104 12.5633 -3.51147 26.3629
631 1 -1.1104 12.4375 2.36642 26.3319
632 1 -1.1104 12.443 -0.328828 23.5405
633 2 2.2208 11.0407 -1.83165 24.939
635 1 -1.1104 12.415 -0.479209 26.3459
636 1 -1.1104 9.69294 -3.24313 23.2577
637 1 -1.1104 9.59233 2.29543 23.7219
638 2 2.2208 8.34248 1.00313 24.947
639 1 -1.1104 9.73644 -3.2822 26.2543
640 1 -1.1104 9.66471 2.37195 26.5107
641 2 2.2208 8.1451 -1.87364 22.0552
643 1 -1.1104 9.65581 -0.486448 23.6274
644 1 -1.1104 9.70781 -0.615838 26.2691
634 2 2.2208 11.1206 3.79173 24.8722
642 2 2.2208 8.43269 3.72177 22.0973
462 2 2.2208 11.1295 17.9806 22.2157
366 2 2.2208 2.55479 3.90682 27.6242
588 1 -1.1104 6.95429 19.1404 26.3731
482 1 -1.1104 6.93237 5.1294 20.7316
685 2 2.2208 -0.204025 12.2293 22.1354
684 2 2.2208 -0.173341 9.2746 24.9666
525 2 2.2208 11.2246 15.0919 25.0589
526 2 2.2208 10.9796 20.6791 24.9826
478 1 -1.1104 1.2101 5.01157 20.8273
656 2 2.2208 5.39324 6.65049 22.0854
657 2 2.2208 5.34229 12.2479 22.2891
658 1 -1.1104 1.33321 8.01981 23.5064
660 1 -1.1104 1.33113 7.97924 26.3582
662 1 -1.1104 1.06697 5.13525 23.5786
663 1 -1.1104 0.973932 10.885 23.6258
666 2 2.2208 5.54313 9.34998 24.8273
667 1 -1.1104 1.31698 5.42337 26.2249
668 1 -1.1104 1.13257 10.6217 26.317
671 1 -1.1104 4.05138 8.10264 23.4308
672 2 2.2208 2.68525 6.76798 24.9469
673 2 2.2208 2.51174 12.0943 24.883
674 1 -1.1104 4.37898 7.84281 26.1774
675 2 2.2208 2.63963 9.45484 22.1186
676 1 -1.1104 4.03063 5.30683 23.6099
677 1 -1.1104 3.93607 10.7364 23.619
678 1 -1.1104 4.00588 5.15098 26.4192
679 1 -1.1104 4.01393 10.7776 26.2524
669 1 -1.1104 6.83927 5.1404 26.271
499 1 -1.1104 12.3783 19.4734 26.4003
537 1 -1.1104 6.87639 13.7703 20.916
509 1 -1.1104 12.482 5.22626 20.625
680 1 -1.1104 6.88115 16.4805 23.4834
659 1 -1.1104 6.80761 7.99607 23.3356
521 1 -1.1104 9.74592 5.11492 20.8062
664 1 -1.1104 6.93982 5.15363 23.5135
665 1 -1.1104 6.9449 10.866 23.4355
670 1 -1.1104 6.79311 10.6785 26.361
661 1 -1.1104 6.97979 7.904 26.2363
687 1 -1.1104 9.82049 10.8165 26.3828
688 1 -1.1104 9.76313 5.11916 26.3052
689 1 -1.1104 9.60029 10.5948 23.5346
690 1 -1.1104 9.79208 5.14931 23.4192
691 2 2.2208 8.33784 9.451 22.0725
692 1 -1.1104 9.66535 7.9162 26.3873
693 2 2.2208 8.24232 12.0266 24.9393
694 2 2.2208 8.25451 6.56119 24.8776
695 2 2.2208 11.2572 6.52554 22.0724
696 2 2.2208 10.982 12.1694 22.185
697 1 -1.1104 12.5741 8.02379 23.6099
698 1 -1.1104 12.5075 7.9139 26.5168
699 1 -1.1104 12.6534 5.22369 23.4324
700 1 -1.1104 12.433 10.883 23.4822
701 2 2.2208 11.0612 9.41338 25.0368
702 1 -1.1104 12.4117 5.11726 26.3424
703 1 -1.1104 12.4213 10.645 26.3103
704 1 -1.1104 9.70832 7.84914 23.5347
615 2 2.2208 8.20559 14.9686 22.2563
545 1 -1.1104 1.16277 16.3327 20.7153
646 2 2.2208 -0.226777 14.9805 24.9356
709 1 -1.1104 6.764 13.5454 23.5762
554 1 -1.1104 3.81266 19.1564 20.6111
535 1 -1.1104 1.05467 19.0702 20.6159
559 1 -1.1104 3.92727 16.3489 20.6903
533 1 -1.1104 1.16797 13.5615 20.682
720 2 2.2208 5.3234 14.9247 24.9162
719 2 2.2208 5.40102 20.6309 25.0105
717 1 -1.1104 1.20777 13.4454 26.7243
647 2 2.2208 2.52356 15.0072 22.16
649 2 2.2208 2.44879 20.6006 22.0332
652 1 -1.1104 4.07314 16.4493 23.4678
655 1 -1.1104 1.03576 16.3317 23.4783
681 1 -1.1104 3.91553 13.5105 26.2239
682 1 -1.1104 4.11168 16.2882 26.4244
683 2 2.2208 2.62227 17.7416 24.8931
686 1 -1.1104 3.96332 19.1742 26.3289
705 2 2.2208 5.34433 17.825 22.0823
706 1 -1.1104 1.20013 13.5538 23.6056
707 1 -1.1104 1.24944 18.9666 23.5126
711 1 -1.1104 4.00446 19.2682 23.4541
713 1 -1.1104 3.82724 13.6744 23.4615
715 1 -1.1104 0.931538 19.3136 26.2036
716 1 -1.1104 1.19155 16.5021 26.2372
364 2 2.2208 5.34157 0.97407 27.7626
539 1 -1.1104 6.71924 19.1475 20.7097
560 1 -1.1104 12.6603 16.3942 26.2827
590 1 -1.1104 9.68645 19.2093 26.396
581 1 -1.1104 9.57531 19.3041 20.8095
497 1 -1.1104 12.4078 19.236 23.5635
712 1 -1.1104 6.80258 13.6319 26.3659
616 2 2.2208 7.98544 20.6313 22.0323
620 1 -1.1104 9.67859 16.4318 26.4163
8450 2 2.2208 5.52754 -4.68791 27.6526
361 2 2.2208 11.0338 14.8539 13.6852
370 2 2.2208 8.41714 -1.76087 27.7129
383 2 2.2208 -0.125749 6.54507 27.6629
8454 2 2.2208 8.33108 -4.64568 13.8258
372 2 2.2208 8.31758 3.64404 27.617
375 2 2.2208 2.49661 20.5088 27.5266
369 2 2.2208 11.1656 0.870493 27.665
355 2 2.2208 11.136 9.44155 13.8134
356 2 2.2208 8.22846 12.229 13.8042
362 2 2.2208 8.3958 17.7854 13.8578
373 2 2.2208 2.62546 14.9247 27.6368
360 2 2.2208 11.2078 20.6948 13.9094
385 2 2.2208 8.41524 9.35907 27.6473
347 2 2.2208 8.2334 15.1288 27.7463
365 2 2.2208 2.67012 -1.81708 27.5097
353 2 2.2208 2.7669 12.0624 13.8215
379 2 2.2208 5.53717 6.4601 27.6727
371 2 2.2208 -0.343252 17.931 27.5216
334 2 2.2208 -0.186751 -1.77258 13.8623
721 2 2.2208 5.36106 23.4085 5.07305
722 2 2.2208 5.35114 29.1114 5.10158
723 1 -1.1104 1.20526 24.706 0.944661
724 1 -1.1104 1.3039 24.6971 3.95206
725 1 -1.1104 1.04625 21.8421 1.04894
726 1 -1.1104 1.05488 27.6845 0.947928
727 2 2.2208 5.25319 26.2208 2.09375
728 1 -1.1104 1.22972 21.8374 3.84211
729 1 -1.1104 1.02772 27.5627 3.69589
730 1 -1.1104 3.98743 24.607 0.993558
731 2 2.2208 2.59611 23.2692 2.21988
732 2 2.2208 2.48528 29.1169 2.39069
733 1 -1.1104 3.94138 24.8009 3.71097
734 2 2.2208 2.5282 26.2471 5.1619
735 1 -1.1104 3.88988 21.8224 0.84079
736 1 -1.1104 3.74064 27.6628 0.78125
737 1 -1.1104 3.91608 21.8686 3.72722
738 1 -1.1104 3.82602 27.6538 3.65289
745 1 -1.1104 6.54858 27.8036 0.679565
739 2 2.2208 -0.336204 29.1372 5.34466
1442 1 -1.1104 1.16148 47.3104 0.974483
869 1 -1.1104 4.12254 21.9216 6.44857
870 1 -1.1104 3.88613 27.8239 6.43611
865 1 -1.1104 1.14013 27.7953 6.60058
868 1 -1.1104 3.96103 24.7842 6.59054
862 1 -1.1104 1.08056 25.0808 6.58806
1484 1 -1.1104 12.3387 47.2108 1.17767
1012 2 2.2208 -0.36774 40.391 10.9692
1105 2 2.2208 5.22359 45.9796 -0.389094
742 1 -1.1104 6.70314 24.7852 0.892656
743 1 -1.1104 6.78268 24.9677 3.61764
746 1 -1.1104 6.92596 22.0844 3.90011
747 1 -1.1104 6.59981 27.6514 3.48761
744 1 -1.1104 6.60789 21.8916 0.961608
748 2 2.2208 10.8154 23.436 5.01897
749 2 2.2208 10.823 29.1364 5.21792
750 1 -1.1104 12.3176 24.921 1.06319
751 1 -1.1104 12.3574 24.8247 3.76646
752 1 -1.1104 12.1937 22.0383 0.909932
753 1 -1.1104 12.2878 27.7218 0.953087
754 2 2.2208 10.7543 26.3649 2.322
755 1 -1.1104 12.3273 22.1411 3.62151
756 1 -1.1104 12.2857 27.7538 3.76037
757 1 -1.1104 9.57923 24.8735 0.974219
758 2 2.2208 8.03529 23.3504 2.27322
759 2 2.2208 7.98463 29.105 2.13603
760 1 -1.1104 9.33359 24.8018 3.77882
761 2 2.2208 8.02618 26.3579 5.13231
762 1 -1.1104 9.49893 21.9274 1.05326
763 1 -1.1104 9.37233 27.6515 0.617369
764 1 -1.1104 9.43933 22.0399 3.68986
765 1 -1.1104 9.40696 27.9073 3.55359
1497 1 -1.1104 9.55848 47.3977 1.00097
863 1 -1.1104 6.56154 24.8896 6.72255
866 1 -1.1104 6.72108 21.9598 6.53389
897 1 -1.1104 12.1318 27.7304 6.60487
867 1 -1.1104 6.63585 27.7202 6.49556
1054 2 2.2208 2.57238 29.037 13.5541
740 2 2.2208 -0.163704 23.2873 5.25064
769 2 2.2208 5.15553 34.6736 5.19452
770 1 -1.1104 0.855031 30.5288 0.904901
771 1 -1.1104 1.20455 36.3207 1.23225
773 1 -1.1104 0.982514 30.4384 4.007
774 1 -1.1104 0.981953 35.8994 3.81008
776 1 -1.1104 0.88142 33.3573 0.849841
777 2 2.2208 5.20489 31.9074 2.3237
778 2 2.2208 5.27336 37.484 2.37054
779 1 -1.1104 1.18129 33.0836 3.68181
781 1 -1.1104 3.79821 30.4493 0.900785
782 1 -1.1104 3.80484 36.1586 0.918044
783 2 2.2208 2.38115 34.6782 2.32411
784 1 -1.1104 3.82537 30.4937 3.64619
785 1 -1.1104 3.70681 36.0821 3.86834
786 2 2.2208 2.47223 31.8886 5.21561
787 2 2.2208 2.46385 37.4136 5.20139
788 1 -1.1104 3.60687 33.0632 0.793147
789 1 -1.1104 3.98281 33.4017 3.60283
1059 2 2.2208 8.1765 23.4761 13.6896
925 1 -1.1104 3.85515 30.5519 6.67201
841 2 2.2208 -0.449366 40.3986 5.3216
839 2 2.2208 -0.163967 43.0689 2.49928
1048 2 2.2208 13.635 37.4905 10.8435
923 1 -1.1104 1.02049 33.4479 6.54963
926 1 -1.1104 3.7014 36.0321 6.85554
919 1 -1.1104 0.962971 30.6074 6.70416
794 1 -1.1104 6.64819 30.4421 3.60577
795 1 -1.1104 6.72669 33.4001 0.986732
793 1 -1.1104 6.60929 30.7471 0.856867
772 1 -1.1104 6.66242 36.0923 0.937852
780 1 -1.1104 6.53037 33.363 3.82499
775 1 -1.1104 6.53702 36.2036 3.71308
796 2 2.2208 10.8251 34.929 5.12422
797 1 -1.1104 12.2237 30.4407 0.796826
798 1 -1.1104 12.536 35.9909 0.782818
799 1 -1.1104 12.3407 30.5352 3.98027