ITEM: TIMESTEP
30000
ITEM: NUMBER OF ATOMS
17910
ITEM: BOX BOUNDS pp pp pp
-3.9227532986867042e-01 2.7732275329869086e+01
-4.8509770070671259e+00 3.3293097700707551e+02
-3.9914695426748387e-01 2.7739146954267216e+01
ITEM: ATOMS id type q x y z
1 2 2.2208 5.46624 0.779006 5.10758
2 1 -1.1104 1.35172 -3.42131 0.798771
3 1 -1.1104 1.37098 2.1805 1.04017
6 1 -1.1104 1.35317 -3.37217 3.75137
7 1 -1.1104 1.14211 2.27857 3.8785
10 1 -1.1104 1.30912 -0.455251 0.886843
12 2 2.2208 5.56727 -1.93382 2.38167
14 1 -1.1104 1.36669 -0.667494 3.74957
16 1 -1.1104 4.10835 -3.2417 1.00846
17 1 -1.1104 4.10094 2.27729 1.10202
18 2 2.2208 2.6707 0.804013 2.43656
19 1 -1.1104 4.104 -3.31529 3.76767
20 1 -1.1104 3.92187 2.13494 3.84
21 2 2.2208 2.5944 -2.04379 5.23718
22 2 2.2208 2.58532 3.58935 5.42629
23 1 -1.1104 4.07722 -0.578157 0.932584
24 1 -1.1104 4.14499 -0.354132 3.83678
13 2 2.2208 5.34205 3.62074 2.43136
25 2 2.2208 -0.144444 -2.16475 2.37402
167 1 -1.1104 1.17053 2.08298 6.69181
170 1 -1.1104 1.17847 -0.651487 6.65785
26 2 2.2208 -0.202114 0.837092 5.26104
27 2 2.2208 -0.220616 3.52123 2.48367
8431 2 2.2208 2.65074 -4.78052 2.29745
8434 2 2.2208 8.14764 -4.8278 2.30283
173 1 -1.1104 4.02491 2.1106 6.61621
174 1 -1.1104 3.82366 -0.623956 6.69794
172 1 -1.1104 4.01274 -3.4477 6.52415
137 2 2.2208 -0.100213 17.7278 5.13489
322 1 -1.1104 9.66529 13.5827 12.1466
4 1 -1.1104 6.7709 -3.42959 1.0082
8 1 -1.1104 6.97191 -3.4297 3.81385
11 1 -1.1104 6.95711 -0.635403 0.938518
15 1 -1.1104 6.88446 -0.419209 3.77503
9 1 -1.1104 6.85718 2.38236 3.74911
5 1 -1.1104 6.79576 2.16649 1.13266
31 2 2.2208 11.2363 0.872709 5.13428
32 1 -1.1104 12.3755 -3.61223 1.05416
33 1 -1.1104 12.6558 2.22533 1.19852
34 1 -1.1104 12.2664 -3.29106 3.89858
35 1 -1.1104 12.6488 2.24813 4.12613
36 1 -1.1104 12.3101 -0.673444 0.920265
37 2 2.2208 11.0647 -1.98723 2.49099
39 1 -1.1104 12.3634 -0.659843 3.80495
40 1 -1.1104 9.61376 -3.48636 0.906979
41 1 -1.1104 9.72736 2.13673 1.04121
42 2 2.2208 8.21468 0.75647 2.40886
43 1 -1.1104 9.58514 -3.4044 3.74368
44 1 -1.1104 9.86024 2.25535 3.78877
45 2 2.2208 8.27036 -2.03749 5.18901
46 2 2.2208 8.47355 3.52269 5.14174
47 1 -1.1104 9.56466 -0.585683 0.997573
48 1 -1.1104 9.71212 -0.55031 3.85564
38 2 2.2208 11.1429 3.68761 2.35945
207 1 -1.1104 12.2327 -0.727297 6.44191
209 1 -1.1104 9.51095 2.22755 6.60801
206 1 -1.1104 12.364 2.05102 6.75784
210 1 -1.1104 9.38524 -0.738622 6.9453
315 1 -1.1104 9.62076 16.3912 12.4306
8440 2 2.2208 8.12451 -4.87979 8.03922
318 1 -1.1104 9.78397 19.0543 9.45193
326 1 -1.1104 12.5053 16.4214 12.1827
319 1 -1.1104 9.68431 13.7099 9.53942
54 2 2.2208 5.47355 6.33806 5.35254
55 2 2.2208 5.31969 12.1348 5.17549
56 1 -1.1104 1.18815 7.67252 0.985183
58 1 -1.1104 1.31517 7.76995 3.79673
60 1 -1.1104 1.21852 4.76755 1.03029
61 1 -1.1104 1.215 10.7109 1.24309
66 2 2.2208 5.42735 9.20683 2.30818
67 1 -1.1104 1.18421 4.97979 3.95646
68 1 -1.1104 1.21592 10.6132 4.03342
71 1 -1.1104 3.99139 7.92549 1.10645
72 2 2.2208 2.6696 6.38644 2.62272
73 2 2.2208 2.57205 12.0609 2.39611
74 1 -1.1104 4.10663 7.81249 3.8894
75 2 2.2208 2.55899 9.17306 5.18011
76 1 -1.1104 3.99531 5.24375 1.11077
77 1 -1.1104 4.08365 10.6649 1.02949
79 1 -1.1104 4.06647 5.04595 3.95793
80 1 -1.1104 4.03973 10.7262 3.75716
83 2 2.2208 -0.217563 11.939 5.38274
239 1 -1.1104 4.11161 5.03309 6.69887
349 2 2.2208 8.06931 20.4014 -0.466979
347 2 2.2208 8.28713 15.0134 -0.481755
81 2 2.2208 -0.126414 6.38139 5.25598
236 1 -1.1104 1.16692 4.94443 6.78818
62 1 -1.1104 1.35334 10.5121 6.74966
290 1 -1.1104 6.81954 13.7249 9.87551
366 2 2.2208 2.66673 3.57792 -0.266412
70 1 -1.1104 6.65494 10.5563 3.76427
64 1 -1.1104 6.81936 10.5529 1.05195
59 1 -1.1104 6.96005 7.83405 3.92433
63 1 -1.1104 6.78492 5.0917 1.12024
57 1 -1.1104 6.81133 7.86598 1.18309
69 1 -1.1104 6.85398 5.07974 3.84289
84 2 2.2208 11.2355 6.53033 5.17948
85 2 2.2208 10.9563 11.898 5.30298
86 1 -1.1104 12.6016 7.79357 1.20577
87 1 -1.1104 12.6045 7.93009 4.00594
88 1 -1.1104 12.4573 4.8651 1.06299
89 1 -1.1104 12.4256 10.4897 0.935945
91 2 2.2208 11.0349 9.22079 2.55194
92 1 -1.1104 12.4572 5.19843 3.80287
93 1 -1.1104 12.3951 10.7097 3.95861
94 1 -1.1104 9.62357 7.89851 0.942706
95 2 2.2208 8.22345 6.35781 2.45304
96 2 2.2208 8.1376 11.9435 2.37506
97 1 -1.1104 9.71292 7.86835 3.86032
98 2 2.2208 8.14635 9.18374 5.1147
99 1 -1.1104 9.63399 4.85382 1.05886
100 1 -1.1104 9.71164 10.4657 1.08647
102 1 -1.1104 9.72777 4.98367 3.93174
103 1 -1.1104 9.638 10.5262 3.81711
266 1 -1.1104 12.6127 5.04529 6.86261
235 1 -1.1104 6.8774 7.81061 6.74425
269 1 -1.1104 9.72104 4.84703 6.7576
265 1 -1.1104 12.3295 7.68365 6.89406
90 1 -1.1104 12.4982 10.5773 6.79125
267 1 -1.1104 9.5267 7.75139 6.64993
329 1 -1.1104 12.5248 19.1628 12.1957
320 2 2.2208 8.2999 17.7508 8.07003
384 2 2.2208 11.0367 6.43469 -0.372492
106 2 2.2208 5.42373 17.7311 5.36996
107 1 -1.1104 1.12034 13.6488 0.908673
109 1 -1.1104 0.927096 19.3326 0.749688
113 1 -1.1104 1.16838 13.4059 3.83421
114 1 -1.1104 1.34286 19.1579 3.75084
116 1 -1.1104 1.08946 16.3211 1.04754
119 2 2.2208 5.285 14.8031 2.5302
120 2 2.2208 5.24439 20.4985 2.3152
121 1 -1.1104 1.33453 16.2983 3.98476
123 1 -1.1104 3.98565 13.5574 0.954609
125 1 -1.1104 3.97727 18.8861 0.769053
127 2 2.2208 2.6327 17.5729 2.4616
128 1 -1.1104 3.92133 13.4177 3.86476
129 1 -1.1104 3.91605 19.0429 3.79999
130 2 2.2208 2.47036 14.7141 5.40257
131 2 2.2208 2.65413 20.5221 5.43605
132 1 -1.1104 4.04855 16.3339 1.31401
134 1 -1.1104 4.02174 16.3225 3.82967
357 2 2.2208 2.50788 17.7612 13.7773
135 2 2.2208 -0.242517 14.8829 2.45262
133 1 -1.1104 3.81652 16.258 6.55655
108 1 -1.1104 1.08175 13.1527 6.82806
302 1 -1.1104 1.29725 19.1148 6.81936
124 1 -1.1104 3.8236 13.5337 6.76716
380 2 2.2208 2.57829 9.24788 -0.286094
335 2 2.2208 -0.212043 20.5726 13.6735
316 2 2.2208 8.3559 20.7152 10.9309
111 1 -1.1104 6.45754 13.363 6.82809
110 1 -1.1104 6.85094 13.3448 1.11448
139 1 -1.1104 6.8506 18.9686 3.70455
140 1 -1.1104 6.79904 16.3271 0.826539
115 1 -1.1104 6.63413 13.5157 3.95368
122 1 -1.1104 6.8185 16.3703 3.92194
138 1 -1.1104 6.62509 19.2938 0.91419
141 2 2.2208 11.0735 17.6591 5.17242
142 1 -1.1104 12.5986 13.2729 0.814777
144 1 -1.1104 12.4354 18.9333 1.13886
146 1 -1.1104 12.7443 13.1991 3.78662
147 1 -1.1104 12.5098 19.0162 3.68
148 1 -1.1104 12.5183 16.2265 0.977241
150 2 2.2208 11.101 14.7516 2.33633
151 2 2.2208 10.9875 20.5532 2.4968
152 1 -1.1104 12.1572 16.1971 3.92502
153 1 -1.1104 9.66222 13.2905 1.12275
155 1 -1.1104 9.44675 19.0041 0.989154
157 2 2.2208 8.12083 17.6077 2.46108
158 1 -1.1104 9.70088 13.3433 3.85812
159 1 -1.1104 9.74852 19.0932 3.81337
160 2 2.2208 8.16021 14.8923 5.14045
161 2 2.2208 8.18541 20.4769 5.19824
162 1 -1.1104 9.5747 16.1577 1.04722
164 1 -1.1104 9.63015 16.2427 3.94341
154 1 -1.1104 9.48556 13.4076 6.63139
118 1 -1.1104 6.88043 15.975 6.68018
149 1 -1.1104 12.432 16.2379 6.78009
156 1 -1.1104 9.59507 19.1232 6.63874
166 1 -1.1104 1.06836 -3.41322 6.63956
368 2 2.2208 -0.180909 0.808486 -0.271679
321 1 -1.1104 9.6668 19.1642 12.2406
199 2 2.2208 -0.144111 3.74175 8.26946
200 2 2.2208 -0.228395 -1.96714 8.05962
175 2 2.2208 5.35659 0.860991 10.9191
176 1 -1.1104 1.15288 -3.39975 12.3947
177 1 -1.1104 1.22975 2.28755 12.201
180 1 -1.1104 1.39825 -3.43222 9.39385
181 1 -1.1104 1.26716 2.49526 9.49142
184 1 -1.1104 1.30538 -0.71681 12.464
186 2 2.2208 5.28803 -1.89836 8.04126
187 2 2.2208 5.46884 3.63226 7.9909
188 1 -1.1104 1.10561 -0.604934 9.5644
190 1 -1.1104 3.91695 -3.40728 12.0722
191 1 -1.1104 4.04699 2.17507 12.5682
192 2 2.2208 2.52415 0.726563 7.93067
193 1 -1.1104 4.13006 -3.44464 9.37872
194 1 -1.1104 4.11694 2.24468 9.41922
195 2 2.2208 2.66059 -2.06587 10.804
197 1 -1.1104 3.93327 -0.508885 12.1538
198 1 -1.1104 3.79397 -0.567788 9.40111
196 2 2.2208 2.71825 3.70687 10.9987
201 2 2.2208 -0.322028 0.667763 10.9404
346 2 2.2208 10.9705 -2.1035 13.5561
383 2 2.2208 -0.0473725 6.40001 -0.402235
8438 2 2.2208 5.42966 -4.7014 10.7973
385 2 2.2208 8.23434 9.20425 -0.306159
205 1 -1.1104 12.4269 -3.63889 6.59246
379 2 2.2208 5.48267 6.52952 -0.241152
330 1 -1.1104 12.5353 13.5078 12.3681
169 1 -1.1104 6.77367 2.34321 6.45262
171 1 -1.1104 6.68125 -0.467569 6.56852
208 1 -1.1104 9.53105 -3.68727 6.6414
178 1 -1.1104 6.86119 -3.22134 12.2583
182 1 -1.1104 6.76062 -3.46962 9.41534
168 1 -1.1104 6.61955 -3.31681 6.60967
179 1 -1.1104 6.6859 2.24883 12.3257
189 1 -1.1104 6.88011 -0.672321 9.7037
183 1 -1.1104 6.82701 2.24791 9.40269
185 1 -1.1104 6.74555 -0.564349 12.4405
211 2 2.2208 11.0046 0.97069 10.9824
212 1 -1.1104 12.3853 -3.56578 12.1376
213 1 -1.1104 12.4103 2.20938 12.4379
214 1 -1.1104 12.3269 -3.50606 9.40596
215 1 -1.1104 12.3121 2.12793 9.48262
216 1 -1.1104 12.331 -0.619737 12.3195
217 2 2.2208 11.107 -1.95828 7.96
218 2 2.2208 11.1336 3.62018 8.11027
219 1 -1.1104 12.5914 -0.636174 9.57486
220 1 -1.1104 9.60845 -3.44215 12.134
221 1 -1.1104 9.54722 2.19894 12.4186
222 2 2.2208 8.35863 0.794264 8.17082
223 1 -1.1104 9.51465 -3.36487 9.47362
224 1 -1.1104 9.6288 2.36804 9.55317
225 2 2.2208 8.2525 -1.974 10.9219
227 1 -1.1104 9.48925 -0.525406 12.2307
228 1 -1.1104 9.77578 -0.523323 9.56032
226 2 2.2208 8.14068 3.4758 10.8883
163 1 -1.1104 9.63571 16.3468 6.78501
331 2 2.2208 11.1373 17.6461 10.7932
238 1 -1.1104 4.03423 7.85217 6.6082
234 1 -1.1104 1.19342 7.64109 6.72658
30 2 2.2208 -0.0698783 9.0823 8.11351
51 2 2.2208 -0.180976 12.0818 10.8569
29 2 2.2208 -0.114115 6.38839 10.9304
78 1 -1.1104 4.0751 10.758 6.55146
240 2 2.2208 5.47015 6.47731 11.0155
241 2 2.2208 5.42258 12.1783 11.1448
242 1 -1.1104 1.39771 7.86376 12.5885
244 1 -1.1104 1.35692 7.82459 9.5833
246 1 -1.1104 1.30804 5.07015 12.3868
247 1 -1.1104 1.12783 10.5704 12.2407
250 2 2.2208 5.40588 9.27447 7.95255
251 1 -1.1104 1.20352 5.30441 9.48067
252 1 -1.1104 1.13904 10.6345 9.57152
255 1 -1.1104 4.1413 7.92221 12.476
256 2 2.2208 2.82689 6.42476 8.04679
257 2 2.2208 2.69617 11.9505 8.12967
258 1 -1.1104 4.16008 7.99442 9.5507
259 2 2.2208 2.64358 9.2033 11.0132
260 1 -1.1104 4.18759 5.03775 12.4546
261 1 -1.1104 4.08337 10.74 12.3514
262 1 -1.1104 4.03692 5.13031 9.46856
263 1 -1.1104 3.89501 10.5172 9.40428
324 2 2.2208 10.9569 20.4975 8.13838
237 1 -1.1104 6.98773 5.14289 6.86115
243 1 -1.1104 6.79673 7.89376 12.4344
249 1 -1.1104 6.88774 10.6325 12.2303
248 1 -1.1104 7.00938 5.0629 12.2002
245 1 -1.1104 6.82711 8.07167 9.59327
253 1 -1.1104 6.9787 5.10386 9.65444
254 1 -1.1104 6.64414 10.9375 9.43981
65 1 -1.1104 6.82251 10.674 6.63358
101 1 -1.1104 9.81407 10.603 6.67299
264 1 -1.1104 9.58686 10.7889 9.61867
268 1 -1.1104 9.92594 5.07625 9.69767
270 1 -1.1104 9.77257 10.5904 12.3495
271 1 -1.1104 9.7315 5.01021 12.5513
272 2 2.2208 8.24561 9.29411 10.9371
273 1 -1.1104 9.55371 7.97072 9.44742
274 2 2.2208 8.18517 12.1158 8.02959
275 2 2.2208 8.21324 6.43618 8.13956
276 2 2.2208 11.0262 6.39356 11.0072
277 2 2.2208 11.0457 12.1111 10.868
278 1 -1.1104 12.479 7.85116 12.3079
279 1 -1.1104 12.2815 7.87159 9.51931
280 1 -1.1104 12.5311 4.91222 12.2375
281 1 -1.1104 12.5643 10.65 12.2945
282 2 2.2208 10.9539 9.24359 8.20805
283 1 -1.1104 12.5462 5.02949 9.52635
284 1 -1.1104 12.4466 10.6314 9.56186
285 1 -1.1104 9.60797 7.92997 12.3737
143 1 -1.1104 12.1966 13.3094 6.89328
365 2 2.2208 2.62787 -1.85003 -0.445179
117 1 -1.1104 1.14894 16.1753 6.69105
313 2 2.2208 -0.140674 14.9345 7.96076
312 2 2.2208 -0.214364 17.5812 10.9499
126 1 -1.1104 4.03071 19.1277 6.68749
311 2 2.2208 -0.313071 20.5652 8.14957
310 2 2.2208 2.59537 14.9717 10.7288
294 1 -1.1104 1.13113 13.6511 9.37436
309 2 2.2208 2.64661 20.5141 10.8622
293 2 2.2208 5.35425 20.645 8.06257
292 1 -1.1104 1.0598 16.248 9.38958
300 2 2.2208 5.35055 17.7618 10.9648
308 1 -1.1104 3.88849 16.2929 12.2608
299 1 -1.1104 1.19208 13.4543 12.0243
307 1 -1.1104 1.17337 16.2229 12.1501
298 1 -1.1104 1.40365 18.9398 12.3535
303 2 2.2208 2.45276 17.7344 8.11254
305 1 -1.1104 4.14702 13.5094 9.53958
301 1 -1.1104 4.05678 19.1662 9.51745
295 2 2.2208 5.38022 14.8892 8.11854
304 1 -1.1104 3.89543 16.2059 9.31637
286 1 -1.1104 4.13643 19.2035 12.3751
287 1 -1.1104 4.03939 13.5064 12.2757
291 1 -1.1104 1.2403 19.064 9.55969
323 1 -1.1104 12.5775 16.1777 9.42148
296 1 -1.1104 6.89445 19.2705 12.2908
306 1 -1.1104 6.83485 16.4173 12.4092
112 1 -1.1104 6.88514 18.9968 6.59345
145 1 -1.1104 12.4182 19.0694 6.64079
328 1 -1.1104 12.499 13.3369 9.43353
317 2 2.2208 8.21499 15.1192 10.8927
327 1 -1.1104 12.4968 19.1676 9.44157
314 1 -1.1104 9.70833 16.4028 9.53017
288 1 -1.1104 6.91924 19.2245 9.49222
297 1 -1.1104 6.86974 13.4957 12.624
289 1 -1.1104 6.68076 16.3636 9.3663
325 2 2.2208 10.9861 14.8454 7.97728
8454 2 2.2208 8.15558 -4.85519 13.695
348 2 2.2208 10.985 17.5592 -0.198836
8450 2 2.2208 5.32333 -4.655 -0.47362
386 2 2.2208 10.9871 12.0138 -0.391107
360 2 2.2208 11.1765 20.5927 13.6473
337 2 2.2208 -0.297649 3.65387 13.7099
369 2 2.2208 11.0365 0.599436 -0.33655
372 2 2.2208 8.29325 3.58365 -0.287933
342 2 2.2208 -0.159521 14.921 13.528
361 2 2.2208 10.9463 14.9262 13.6396
388 2 2.2208 5.43109 0.825717 16.4758
389 1 -1.1104 1.16369 -3.32235 17.8353
390 1 -1.1104 1.09865 2.2328 17.9705
393 1 -1.1104 1.12149 -3.44946 15.0601
395 1 -1.1104 1.18017 2.17153 14.8758
401 1 -1.1104 1.27977 -0.499033 17.9696
403 2 2.2208 5.41317 -2.03127 19.2602
404 2 2.2208 5.40408 3.58122 19.3322
405 1 -1.1104 1.08124 -0.608567 15.2904
409 1 -1.1104 3.86526 -3.23273 17.9859
410 1 -1.1104 4.0014 2.32832 17.9443
411 2 2.2208 2.65932 0.851927 19.1589
412 1 -1.1104 3.97573 -3.4207 15.2504
414 1 -1.1104 3.99397 2.26732 15.2344
416 2 2.2208 2.56257 -1.93927 16.6754
418 1 -1.1104 4.03941 -0.524879 17.8246
419 1 -1.1104 4.15344 -0.664559 15.1614
420 1 -1.1104 3.96886 -0.86836 20.8045
415 1 -1.1104 4.10559 2.08152 20.753
424 2 2.2208 -0.292905 0.815899 16.4871
425 2 2.2208 -0.18678 -1.99135 19.2799
427 2 2.2208 -0.0981008 3.5877 19.2477
362 2 2.2208 8.26254 17.8787 13.5841
417 2 2.2208 2.65181 3.71116 16.5403
574 1 -1.1104 12.4627 16.2276 20.694
8586 2 2.2208 2.50123 -4.72308 19.2426
396 1 -1.1104 1.3565 2.36889 20.5754
413 1 -1.1104 4.04403 -3.6724 20.8397
370 2 2.2208 8.12471 -2.04434 27.7058
397 1 -1.1104 6.72735 -3.5167 14.9362
402 1 -1.1104 6.8513 -0.636805 18.0692
407 1 -1.1104 6.798 -0.58776 15.2039
399 1 -1.1104 6.94389 2.08769 15.2222
392 1 -1.1104 6.78723 2.1576 17.8081
391 1 -1.1104 6.68701 -3.55056 17.8802
431 2 2.2208 11.0054 0.734726 16.4918
432 1 -1.1104 12.2214 -3.3141 17.9641
433 1 -1.1104 12.4309 2.3841 18.1314
434 1 -1.1104 12.1159 -3.39862 15.0068
436 1 -1.1104 12.5633 2.10442 15.2598
438 1 -1.1104 12.4935 -0.540781 17.815
439 2 2.2208 11.0138 -2.08252 19.3578
441 1 -1.1104 12.368 -0.754429 15.1062
443 1 -1.1104 9.4625 -3.38187 17.9457
444 1 -1.1104 9.62449 2.12831 17.8183
445 2 2.2208 8.29902 0.9258 19.1814
446 1 -1.1104 9.39977 -3.53441 15.2029
448 1 -1.1104 9.79659 2.20273 15.1689
450 2 2.2208 8.22369 -1.94236 16.4826
451 2 2.2208 8.24621 3.74957 16.3913
452 1 -1.1104 9.69487 -0.76474 17.895
453 1 -1.1104 9.57838 -0.641713 15.0819
447 1 -1.1104 9.6786 -3.47308 20.6697
437 1 -1.1104 12.4267 1.94643 20.9284
449 1 -1.1104 9.85408 2.27111 20.588
398 1 -1.1104 6.84056 -3.56505 20.6665
8584 2 2.2208 10.8541 -4.86289 16.4667
408 1 -1.1104 6.65336 -0.652316 20.8749
341 2 2.2208 5.63178 3.58957 13.6776
622 2 2.2208 -0.163028 9.19645 19.4013
464 2 2.2208 5.40748 6.53388 16.7155
465 2 2.2208 5.2355 12.0395 16.3789
466 1 -1.1104 1.25475 7.7607 18.1828
468 1 -1.1104 1.07192 7.95793 15.2686
472 1 -1.1104 1.31108 5.03774 17.9975
473 1 -1.1104 1.06062 10.545 18.0179
476 2 2.2208 5.30136 9.39174 19.3106
477 1 -1.1104 1.14215 5.08901 15.1478
479 1 -1.1104 1.20826 10.582 15.1591
485 1 -1.1104 4.08739 7.99891 17.8047
486 2 2.2208 2.7617 6.55537 19.4179
487 2 2.2208 2.51248 11.9912 19.2032
488 1 -1.1104 4.11195 7.84173 15.3327
490 2 2.2208 2.47381 9.19382 16.5044
491 1 -1.1104 4.1003 5.24145 18.058
492 1 -1.1104 3.81685 10.6406 17.7882
493 1 -1.1104 3.94142 5.10222 15.2706
495 1 -1.1104 4.01754 10.6512 15.0685
621 2 2.2208 -0.174931 6.48622 16.5135
648 2 2.2208 -0.228914 11.9639 16.4924
478 1 -1.1104 1.33306 5.11027 20.6495
469 1 -1.1104 1.44422 7.857 21.0574
494 1 -1.1104 3.93603 4.91309 20.8597
338 2 2.2208 5.31171 -1.88954 13.5857
373 2 2.2208 2.49879 14.9404 27.8311
353 2 2.2208 2.59195 12.0652 13.7223
8516 2 2.2208 8.0848 -4.7891 24.7716
440 2 2.2208 11.0869 3.75669 19.3032
474 1 -1.1104 6.98785 4.94016 17.8499
475 1 -1.1104 6.81275 10.5743 17.8421
467 1 -1.1104 6.87964 7.78318 17.9802
481 1 -1.1104 6.63973 5.08973 14.9686
470 1 -1.1104 6.94316 7.94343 15.1581
483 1 -1.1104 6.99446 10.7306 14.9371
500 2 2.2208 11.0598 6.56362 16.3962
501 2 2.2208 11.1689 12.051 16.5324
502 1 -1.1104 12.5824 7.89174 17.9964
503 1 -1.1104 12.4995 7.87406 15.1102
505 1 -1.1104 12.3254 5.13138 17.8243
506 1 -1.1104 12.4114 10.8477 18.0983
507 2 2.2208 10.9618 9.28025 19.442
508 1 -1.1104 12.4026 5.0089 15.055
510 1 -1.1104 12.6091 10.623 15.1338
512 1 -1.1104 9.76978 7.94234 17.937
513 2 2.2208 8.3427 6.55362 19.4062
514 2 2.2208 8.21023 12.0086 19.1451
515 1 -1.1104 9.7478 7.88259 15.159
517 2 2.2208 8.18953 9.21181 16.5975
518 1 -1.1104 9.55161 5.20473 17.8543
519 1 -1.1104 9.63009 10.5734 18.0349
520 1 -1.1104 9.61551 5.14358 15.1078
522 1 -1.1104 9.72902 10.6714 15.1432
511 1 -1.1104 12.5281 10.7427 20.8191
484 1 -1.1104 6.73616 10.7007 20.5186
516 1 -1.1104 9.742 7.78986 20.7103
523 1 -1.1104 9.42889 10.5899 20.7015
458 2 2.2208 -0.265033 20.4914 19.352
527 2 2.2208 5.45271 17.6017 16.4578
528 1 -1.1104 1.25564 13.4946 17.7128
529 1 -1.1104 1.13036 18.9927 17.875
532 1 -1.1104 1.30858 13.5098 14.7368
534 1 -1.1104 1.20231 19.1443 15.1027
540 1 -1.1104 1.0895 16.4831 17.8679
542 2 2.2208 5.44434 15.0387 19.2359
543 2 2.2208 5.41029 20.5114 19.2072
544 1 -1.1104 1.16192 16.3243 15.072
548 1 -1.1104 4.14127 13.5391 17.8347
549 1 -1.1104 4.02429 19.113 17.8263
550 2 2.2208 2.63522 17.6972 19.2529
551 1 -1.1104 3.88776 13.4252 14.9707
553 1 -1.1104 4.15876 19.1089 15.2111
555 2 2.2208 2.50045 14.8631 16.3634
556 2 2.2208 2.58007 20.6131 16.4173
557 1 -1.1104 3.90773 16.2825 17.8594
558 1 -1.1104 3.95428 16.2995 15.0621
545 1 -1.1104 1.19513 16.1885 20.6163
456 2 2.2208 -0.352521 17.6034 16.544
552 1 -1.1104 3.79159 13.2444 20.7988
457 2 2.2208 -0.225408 14.7711 19.3549
533 1 -1.1104 1.09929 13.3074 20.5758
497 1 -1.1104 12.2281 19.066 23.626
535 1 -1.1104 1.12119 19.0933 20.6617
559 1 -1.1104 4.0741 16.1315 20.6392
537 1 -1.1104 6.71185 13.6061 20.8939
590 1 -1.1104 9.69299 18.8081 26.3895
589 1 -1.1104 9.37156 13.4142 26.4117
530 1 -1.1104 6.93399 13.5602 17.8412
536 1 -1.1104 6.72807 13.4617 15.1504
538 1 -1.1104 6.86734 19.0063 15.0961
546 1 -1.1104 6.76606 16.1812 15.1639
531 1 -1.1104 6.76034 19.1083 17.8924
541 1 -1.1104 6.87151 16.4487 17.8278
563 2 2.2208 11.0388 17.7625 16.4564
564 1 -1.1104 12.4329 13.5072 17.9002
565 1 -1.1104 12.5441 19.2708 17.946
566 1 -1.1104 12.3986 13.5737 15.1631
568 1 -1.1104 12.6228 19.2936 15.012
570 1 -1.1104 12.5048 16.483 17.6654
571 2 2.2208 11.0279 14.8772 19.2702
572 2 2.2208 11.1114 20.4949 19.3667
573 1 -1.1104 12.4398 16.3339 14.813
575 1 -1.1104 9.80366 13.598 17.7358
576 1 -1.1104 9.69845 19.1574 17.8614
577 2 2.2208 8.29997 17.7304 19.2198
578 1 -1.1104 9.53526 13.6077 14.8848
580 1 -1.1104 9.70257 19.1659 15.0806
582 2 2.2208 8.23063 14.948 16.4453
583 2 2.2208 8.37156 20.425 16.542
584 1 -1.1104 9.51615 16.1854 18.0828
585 1 -1.1104 9.635 16.3118 15.1546
579 1 -1.1104 9.45296 13.4402 20.5395
547 1 -1.1104 6.8607 16.4029 20.6052
581 1 -1.1104 9.67786 19.1339 20.579
587 2 2.2208 8.19361 17.6248 25.079
615 2 2.2208 8.15037 14.8836 22.132
394 1 -1.1104 1.3466 -3.14728 20.4929
8623 2 2.2208 -0.199438 -4.86359 16.4942
406 1 -1.1104 1.3379 -0.464548 20.691
625 2 2.2208 -0.141715 0.669983 22.141
591 2 2.2208 5.24854 0.824441 22.1379
592 1 -1.1104 1.08024 -3.5976 23.356
593 1 -1.1104 1.12895 2.12048 23.6939
596 1 -1.1104 1.0892 -3.40682 26.1523
597 1 -1.1104 1.18554 2.19693 26.3117
600 1 -1.1104 1.28387 -0.729563 23.5576
602 2 2.2208 5.51505 -2.03024 24.7991
603 2 2.2208 5.53961 3.66937 25.0576
604 1 -1.1104 1.2685 -0.466715 26.4402
606 1 -1.1104 4.0231 -3.6487 23.5542
607 1 -1.1104 4.15581 2.35774 23.5679
608 2 2.2208 2.59824 0.830986 24.9544
609 1 -1.1104 3.8718 -3.55583 26.2211
610 1 -1.1104 4.20927 2.23228 26.4963
611 2 2.2208 2.65934 -2.18575 22.2524
613 1 -1.1104 3.79226 -0.545529 23.6953
614 1 -1.1104 4.33047 -0.895041 26.2951
612 2 2.2208 2.63835 3.48848 22.1838
626 2 2.2208 -0.110529 3.79224 24.9209
8622 2 2.2208 5.39527 -4.71347 16.4455
624 2 2.2208 -0.223382 -1.95109 24.8613
617 1 -1.1104 9.64101 16.2657 23.7816
8446 2 2.2208 11.0536 -4.86449 27.6916
454 1 -1.1104 9.52148 -0.716256 20.6258
442 1 -1.1104 12.4157 -0.816844 20.6806
435 1 -1.1104 12.5334 -3.5894 20.5428
400 1 -1.1104 6.96906 2.1425 20.6333
343 2 2.2208 8.23011 0.738689 13.7918
595 1 -1.1104 6.86877 2.32019 23.5394
599 1 -1.1104 7.03663 2.27878 26.516
598 1 -1.1104 6.74469 -3.3121 26.3142
594 1 -1.1104 6.81886 -3.4478 23.5423
605 1 -1.1104 6.8492 -0.492352 26.2466
601 1 -1.1104 6.88552 -0.558361 23.4921
627 2 2.2208 10.9466 0.713931 22.1662
628 1 -1.1104 12.556 -3.45976 23.4122
629 1 -1.1104 12.5924 2.11784 23.7287
630 1 -1.1104 12.4852 -3.77298 26.3448
631 1 -1.1104 12.4646 2.15521 26.3273
632 1 -1.1104 12.3762 -0.683536 23.5709
633 2 2.2208 10.9537 -2.25133 24.7675
635 1 -1.1104 12.3706 -0.842341 26.5547
636 1 -1.1104 9.62658 -3.50523 23.372
637 1 -1.1104 9.64553 2.0843 23.5744
638 2 2.2208 8.2361 0.688062 24.767
639 1 -1.1104 9.53488 -3.48191 26.2265
640 1 -1.1104 9.68018 2.11757 26.3141
641 2 2.2208 8.04332 -2.00601 21.9642
643 1 -1.1104 9.52645 -0.935477 23.3514
644 1 -1.1104 9.7238 -0.570638 26.0752
680 1 -1.1104 6.78442 16.3787 23.616
634 2 2.2208 11.0905 3.588 24.9603
642 2 2.2208 8.32897 3.72405 22.0914
421 2 2.2208 -0.138004 6.44125 22.1934
684 2 2.2208 -0.281994 9.24786 24.8084
480 1 -1.1104 1.26637 10.7129 21.0095
496 1 -1.1104 3.87159 10.5692 20.6564
685 2 2.2208 -0.157134 12.1384 21.9973
489 1 -1.1104 4.12704 7.89903 20.9758
656 2 2.2208 5.44522 6.38405 22.2317
657 2 2.2208 5.26511 12.0546 22.1953
658 1 -1.1104 1.16561 7.62881 23.7068
660 1 -1.1104 1.45903 7.7038 26.5062
662 1 -1.1104 1.33441 4.94153 23.4361
663 1 -1.1104 1.16826 10.6012 23.8061
666 2 2.2208 5.5566 9.27261 25.001
667 1 -1.1104 1.2512 5.09568 26.2526
668 1 -1.1104 1.29494 10.504 26.4881
671 1 -1.1104 4.08684 7.74144 23.7796
672 2 2.2208 2.70858 6.50174 25.0166
673 2 2.2208 2.49318 11.9208 25.0901
674 1 -1.1104 4.35334 7.94285 26.4429
675 2 2.2208 2.67293 9.26746 22.3491
676 1 -1.1104 4.168 5.07199 23.6808
677 1 -1.1104 3.92899 10.6147 23.5421
678 1 -1.1104 4.06683 5.07571 26.5795
679 1 -1.1104 4.12681 10.5933 26.1997
382 2 2.2208 -0.354333 12.0024 27.7936
521 1 -1.1104 9.81634 5.19146 20.6841
471 1 -1.1104 6.87945 7.73858 20.8435
509 1 -1.1104 12.5828 5.05931 20.6641
504 1 -1.1104 12.4619 7.86223 20.6711
665 1 -1.1104 6.74605 10.7945 23.5974
659 1 -1.1104 6.87902 7.85429 23.5667
482 1 -1.1104 6.89998 4.93319 20.623
661 1 -1.1104 7.06928 7.91598 26.367
664 1 -1.1104 6.96694 5.08326 23.4326
669 1 -1.1104 6.83484 5.13531 26.3063
670 1 -1.1104 6.80681 10.8622 26.5119
687 1 -1.1104 9.61792 10.8163 26.4074
688 1 -1.1104 9.66131 5.01788 26.3344
689 1 -1.1104 9.50716 10.8638 23.5415
690 1 -1.1104 9.83447 4.92866 23.4434
691 2 2.2208 8.21967 9.26483 22.2327
692 1 -1.1104 9.74038 7.69845 26.2298
693 2 2.2208 8.0742 12.2414 25.1081
694 2 2.2208 8.25348 6.41103 24.8844
695 2 2.2208 11.2382 6.30994 22.0355
696 2 2.2208 10.9125 11.9707 22.2549
697 1 -1.1104 12.4562 7.75525 23.5204
698 1 -1.1104 12.5351 7.71889 26.4249
699 1 -1.1104 12.5693 5.03069 23.5943
700 1 -1.1104 12.3008 10.579 23.5556
701 2 2.2208 10.9999 9.26105 24.9833
702 1 -1.1104 12.6448 4.96912 26.4018
703 1 -1.1104 12.3885 10.5136 26.1976
704 1 -1.1104 9.64119 7.87626 23.5769
367 2 2.2208 -0.228341 9.29731 13.6262
646 2 2.2208 -0.222059 14.842 24.7923
712 1 -1.1104 6.58035 13.6596 26.425
623 2 2.2208 -0.285269 17.7182 22.0701
645 2 2.2208 -0.314249 20.6005 24.722
554 1 -1.1104 4.03049 19.2193 20.6415
647 2 2.2208 2.55738 14.8323 22.2529
649 2 2.2208 2.56419 20.5697 22.1025
652 1 -1.1104 4.05491 16.1553 23.4705
655 1 -1.1104 1.14688 16.2667 23.4174
681 1 -1.1104 3.71614 13.4229 26.2926
682 1 -1.1104 3.90521 16.1923 26.5257
683 2 2.2208 2.49716 17.6564 24.8902
686 1 -1.1104 3.99808 18.8994 26.1487
705 2 2.2208 5.40142 17.5897 22.1401
706 1 -1.1104 1.24756 13.4918 23.37
707 1 -1.1104 1.2346 19.0695 23.3796
711 1 -1.1104 3.85062 19.0468 23.5198
713 1 -1.1104 3.93985 13.301 23.6362
715 1 -1.1104 1.03343 18.9613 26.1718
716 1 -1.1104 1.1214 16.1843 26.1949
717 1 -1.1104 0.977058 13.3233 26.1494
719 2 2.2208 5.48728 20.56 24.8959
720 2 2.2208 5.26293 14.8126 25.0479
498 1 -1.1104 12.2723 13.4465 26.3046
462 2 2.2208 10.9244 17.651 22.1902
616 2 2.2208 8.11393 20.5643 22.1241
524 1 -1.1104 12.2241 16.2295 23.3222
709 1 -1.1104 6.77723 13.446 23.6014
714 1 -1.1104 6.72392 16.3313 26.2859
539 1 -1.1104 6.91281 19.1203 20.6625
567 1 -1.1104 12.3929 13.5651 20.6491
588 1 -1.1104 6.88264 19.1684 26.3193
561 1 -1.1104 9.68021 13.5769 23.6916
569 1 -1.1104 12.3867 18.9622 20.7575
586 1 -1.1104 9.74118 16.0989 21.0289
499 1 -1.1104 12.606 18.9738 26.417
562 1 -1.1104 9.51648 19.1359 23.4576
463 1 -1.1104 12.3714 13.3029 23.6039
560 1 -1.1104 12.6341 16.1818 26.2226
718 1 -1.1104 6.77706 19.1561 23.6059
620 1 -1.1104 9.71289 16.2472 26.4907
526 2 2.2208 11.0287 20.3476 24.9004
525 2 2.2208 11.0712 14.8134 24.963
355 2 2.2208 11.0653 9.19292 13.5772
351 2 2.2208 2.78302 6.42853 13.8209
374 2 2.2208 5.27759 17.6715 27.7003
358 2 2.2208 5.32069 20.6824 13.9249
339 2 2.2208 2.57441 0.763419 13.9123
375 2 2.2208 2.46932 20.51 27.5918
354 2 2.2208 8.2333 6.51148 13.7601
352 2 2.2208 5.56125 9.36049 13.845
364 2 2.2208 5.59136 0.860697 27.7317
334 2 2.2208 -0.262357 -2.10471 13.7245
356 2 2.2208 8.47768 12.0202 13.7114
350 2 2.2208 11.0433 3.62131 13.8827
371 2 2.2208 -0.422894 17.7778 27.7398
381 2 2.2208 5.47382 12.1424 27.7958
359 2 2.2208 5.4831 14.8013 13.7084
721 2 2.2208 5.44029 23.3044 5.20393
722 2 2.2208 5.27054 29.0074 5.36164
723 1 -1.1104 1.2688 24.892 1.16922
724 1 -1.1104 1.22349 24.5335 3.9643
725 1 -1.1104 1.22874 22.0938 0.897536
726 1 -1.1104 1.01916 27.4443 0.964305
727 2 2.2208 5.39966 26.2435 2.32444
728 1 -1.1104 1.04799 21.8106 3.7555
729 1 -1.1104 1.29363 27.4213 3.67533
730 1 -1.1104 4.12918 24.7875 0.933988
731 2 2.2208 2.55722 23.2711 2.62197
732 2 2.2208 2.34032 28.8483 2.30568
733 1 -1.1104 4.01206 24.655 3.73684
734 2 2.2208 2.67354 26.1643 5.22254
735 1 -1.1104 3.76182 21.9056 0.996836
736 1 -1.1104 3.92531 27.6734 1.06658
737 1 -1.1104 3.87639 21.8194 3.81032
738 1 -1.1104 3.96578 27.5396 4.02562
869 1 -1.1104 4.09106 21.9228 6.72565
1690 1 -1.1104 9.59513 47.2153 9.53546
1090 2 2.2208 11.1111 23.1829 -0.461356
740 2 2.2208 -0.266002 23.176 5.23994
1051 2 2.2208 -0.157955 34.558 10.9556
840 2 2.2208 -0.398996 45.9335 5.25285
1045 2 2.2208 -0.380572 26.1126 8.18592
742 1 -1.1104 6.78019 24.7774 0.94006
746 1 -1.1104 6.6925 21.7646 3.74707
744 1 -1.1104 6.76199 21.9606 0.909033
743 1 -1.1104 6.76054 24.8872 3.6659
867 1 -1.1104 6.8879 27.4042 6.57959
747 1 -1.1104 6.71048 27.5672 3.72345
745 1 -1.1104 6.8351 27.515 0.995591
748 2 2.2208 11.0619 23.39 5.34889
749 2 2.2208 10.9799 28.9194 5.40847
750 1 -1.1104 12.2786 24.657 0.988606
751 1 -1.1104 12.3977 24.6039 3.8267
752 1 -1.1104 12.311 21.7565 1.11713
753 1 -1.1104 12.3398 27.4791 0.86156
754 2 2.2208 11.049 26.0498 2.36475
755 1 -1.1104 12.4095 21.8486 3.88664
756 1 -1.1104 12.3391 27.424 3.90262
757 1 -1.1104 9.60618 24.7919 0.948822
758 2 2.2208 8.14844 23.4874 2.36781
759 2 2.2208 8.1011 28.9095 2.46387
760 1 -1.1104 9.70627 24.7214 3.81177
761 2 2.2208 8.3168 26.1392 5.06735
762 1 -1.1104 9.57458 21.9268 0.843774
763 1 -1.1104 9.55901 27.5332 0.769706
764 1 -1.1104 9.67582 22.0856 3.72001
765 1 -1.1104 9.62715 27.5557 3.78456
1091 2 2.2208 8.13806 26.102 -0.373037
897 1 -1.1104 12.6107 27.5104 6.64118
896 1 -1.1104 12.559 21.8187 6.79995
863 1 -1.1104 6.91415 24.704 6.53916
1087 2 2.2208 5.23108 28.8459 -0.476193
741 2 2.2208 -0.185594 26.1945 2.38785
1010 2 2.2208 -0.331225 43.1143 7.90215
1002 1 -1.1104 7.07209 41.3958 12.2689
769 2 2.2208 5.29742 34.5703 5.19106
770 1 -1.1104 0.953234 30.247 1.06082
771 1 -1.1104 1.21766 36.133 0.991924
773 1 -1.1104 1.16217 30.2866 3.83468
774 1 -1.1104 1.16329 36.0444 3.75104
776 1 -1.1104 1.17179 33.0649 0.797779
777 2 2.2208 5.26411 31.786 2.31749
778 2 2.2208 5.22836 37.3217 2.43677
779 1 -1.1104 1.2057 32.9736 3.76511
781 1 -1.1104 3.7201 30.3975 0.985606
782 1 -1.1104 3.83459 35.8995 0.977111
783 2 2.2208 2.57523 34.6003 2.39847
784 1 -1.1104 4.05578 30.3726 4.01125
785 1 -1.1104 3.61907 35.9689 3.98354
786 2 2.2208 2.50444 31.7412 5.23635
787 2 2.2208 2.42651 37.4891 5.26547
788 1 -1.1104 3.81289 33.1286 0.916541
789 1 -1.1104 4.02631 33.1561 3.85504
1449 1 -1.1104 6.64666 47.3148 3.9184
1050 2 2.2208 -0.184926 31.9027 7.87575
923 1 -1.1104 1.08695 33.3636 6.63267
1462 1 -1.1104 4.12491 47.1688 0.887327
988 1 -1.1104 6.73143 38.5834 12.2457
794 1 -1.1104 6.7972 30.2562 4.11148
795 1 -1.1104 6.65467 33.0681 0.930857
793 1 -1.1104 6.89507 30.4804 1.21304
775 1 -1.1104 6.6142 35.9781 3.83797
772 1 -1.1104 6.57344 35.896 1.16912
780 1 -1.1104 6.76052 32.964 3.78416
796 2 2.2208 11.0274 34.5464 5.26327
797 1 -1.1104 12.3145 30.3033 1.06778
798 1 -1.1104 12.4055 35.9018 0.974383
799 1 -1.1104 12.378 30.2275 3.82172
800 1 -1.1104 12.3343 36.0191 3.79633
801 1 -1.1104 12.334 33.073 0.900964
802 2 2.2208 10.8967 31.7918 2.44216
803 2 2.2208 10.9894 37.2646 2.35289
804 1 -1.1104 12.244 33.0978 3.82923
805 1 -1.1104 9.58253 30.2639 1.11909
806 1 -1.1104 9.62622 35.7249 0.918902
807 2 2.2208 8.04068 34.4902 2.38172
808 1 -1.1104 9.57946 30.3511 3.74294
809 1 -1.1104 9.3557 35.8471 3.66051
810 2 2.2208 8.09695 31.8129 5.30194
811 2 2.2208 8.21649 37.3711 5.227
812 1 -1.1104 9.51348 33.005 0.974573