ITEM: TIMESTEP
20000
ITEM: NUMBER OF ATOMS
17910
ITEM: BOX BOUNDS pp pp pp
-3.9730206472190227e-01 2.7737302064722229e+01
-4.8274942846498314e+00 3.3290749428465494e+02
-3.9129512523235560e-01 2.7731295125232112e+01
ITEM: ATOMS id type q x y z
1 2 2.2208 5.25752 0.861918 5.17477
2 1 -1.1104 1.26585 -3.38527 0.982464
3 1 -1.1104 1.11619 2.18898 0.947398
6 1 -1.1104 0.927272 -3.51826 3.83815
7 1 -1.1104 1.12263 2.36644 3.64835
10 1 -1.1104 1.11938 -0.42684 1.05895
12 2 2.2208 5.33056 -1.97914 2.32496
13 2 2.2208 5.07218 3.71463 2.37218
14 1 -1.1104 1.11025 -0.459174 3.81923
16 1 -1.1104 3.89173 -3.48622 0.930147
17 1 -1.1104 3.89714 2.23371 1.09577
18 2 2.2208 2.43881 0.819926 2.52519
19 1 -1.1104 3.77636 -3.17183 3.82839
20 1 -1.1104 3.92136 2.30405 3.80732
21 2 2.2208 2.44424 -1.94296 5.10304
22 2 2.2208 2.32709 3.68838 5.03898
23 1 -1.1104 3.92568 -0.582917 0.858976
24 1 -1.1104 3.95009 -0.518404 3.76558
165 2 2.2208 13.709 17.6716 2.58838
232 2 2.2208 13.5109 9.16444 5.26827
4 1 -1.1104 6.67251 -3.40769 1.01091
15 1 -1.1104 6.8241 -0.572222 3.87953
9 1 -1.1104 6.60422 2.10365 3.75514
8437 2 2.2208 2.49794 -4.83167 8.08179
8440 2 2.2208 8.19743 -4.8383 8.06021
167 1 -1.1104 0.885974 2.40492 6.4249
166 1 -1.1104 1.07784 -3.42998 6.50052
26 2 2.2208 -0.284327 0.977965 5.22717
351 2 2.2208 2.49258 6.37063 13.7079
8 1 -1.1104 6.71374 -3.40507 3.53269
5 1 -1.1104 6.59178 2.27755 1.01663
11 1 -1.1104 6.65286 -0.555585 1.04352
31 2 2.2208 10.8988 0.809466 5.09209
32 1 -1.1104 12.4775 -3.37941 0.927345
33 1 -1.1104 12.3628 2.17979 0.897246
34 1 -1.1104 12.2352 -3.59976 3.69954
35 1 -1.1104 12.1349 2.15622 3.7467
36 1 -1.1104 12.3457 -0.550434 1.13087
37 2 2.2208 10.954 -1.99933 2.32297
38 2 2.2208 10.8339 3.71033 2.22188
39 1 -1.1104 12.3824 -0.776331 3.8748
40 1 -1.1104 9.56225 -3.6328 1.03622
41 1 -1.1104 9.46006 2.19244 1.11523
42 2 2.2208 7.94909 0.928727 2.50527
43 1 -1.1104 9.44404 -3.56407 3.80312
44 1 -1.1104 9.39872 2.25355 3.70425
45 2 2.2208 8.20891 -2.11682 5.19645
46 2 2.2208 7.95711 3.66705 5.09745
47 1 -1.1104 9.57464 -0.769063 0.898186
48 1 -1.1104 9.57643 -0.638801 3.62617
205 1 -1.1104 12.3938 -3.56119 6.58566
207 1 -1.1104 12.4715 -0.803699 6.57797
209 1 -1.1104 9.28916 2.05914 6.34694
210 1 -1.1104 9.53227 -0.631517 6.55324
169 1 -1.1104 6.58842 2.42706 6.56647
208 1 -1.1104 9.76238 -3.35541 6.69393
206 1 -1.1104 12.078 2.09059 6.57401
51 2 2.2208 -0.358461 12.0104 10.7176
332 2 2.2208 13.6294 17.8009 8.38336
312 2 2.2208 -0.194697 17.6172 10.7339
54 2 2.2208 5.22943 6.6366 5.12371
55 2 2.2208 5.29119 12.0626 5.15188
56 1 -1.1104 0.800469 7.76999 0.954703
58 1 -1.1104 1.09174 8.03668 3.72499
60 1 -1.1104 0.96345 5.08539 0.847338
61 1 -1.1104 1.03273 10.7251 1.07503
66 2 2.2208 5.30936 9.33369 2.44002
67 1 -1.1104 1.02209 5.03204 3.7144
68 1 -1.1104 1.04048 10.7485 3.87288
71 1 -1.1104 3.79022 8.03009 1.14928
72 2 2.2208 2.33805 6.51888 2.28474
73 2 2.2208 2.56011 12.131 2.4381
74 1 -1.1104 3.73396 8.02877 3.82213
75 2 2.2208 2.38084 9.39057 5.26893
76 1 -1.1104 3.82401 5.34329 0.937746
77 1 -1.1104 3.84036 10.7114 1.02656
79 1 -1.1104 3.81448 5.12472 3.67819
80 1 -1.1104 3.92191 10.7815 3.68202
78 1 -1.1104 3.93865 10.8343 6.55617
238 1 -1.1104 3.89012 7.89672 6.49292
62 1 -1.1104 1.09677 10.7966 6.6482
236 1 -1.1104 1.08691 5.04685 6.52163
65 1 -1.1104 6.7257 10.3953 6.7426
199 2 2.2208 -0.302068 3.5768 8.04703
53 2 2.2208 13.6232 11.9946 8.08004
28 2 2.2208 13.6771 20.4582 10.8749
364 2 2.2208 5.27307 0.908905 -0.401005
200 2 2.2208 -0.307352 -2.06012 8.08916
237 1 -1.1104 6.69008 5.20092 6.32231
69 1 -1.1104 6.62766 4.9557 3.64141
59 1 -1.1104 6.71643 7.84857 3.77876
57 1 -1.1104 6.62352 7.88467 1.08838
63 1 -1.1104 6.5433 5.04374 0.91042
70 1 -1.1104 6.74568 10.655 3.86387
64 1 -1.1104 6.71692 10.6804 1.00101
84 2 2.2208 10.7953 6.39548 5.31422
85 2 2.2208 10.9879 12.1059 5.32296
86 1 -1.1104 12.1842 7.82609 1.03258
87 1 -1.1104 12.2369 7.71489 4.06223
88 1 -1.1104 12.2621 4.97892 0.90513
89 1 -1.1104 12.3368 10.5645 1.24194
91 2 2.2208 10.9499 9.21572 2.60363
92 1 -1.1104 12.198 4.94236 3.89755
93 1 -1.1104 12.1775 10.6517 3.96635
94 1 -1.1104 9.28464 8.00015 1.04362
95 2 2.2208 8.00904 6.54259 2.3817
96 2 2.2208 8.12546 12.0104 2.29309
97 1 -1.1104 9.4352 7.80981 3.81498
98 2 2.2208 8.12427 9.16472 5.10595
99 1 -1.1104 9.46958 5.10536 1.00368
100 1 -1.1104 9.56004 10.786 0.774808
102 1 -1.1104 9.36875 5.1534 3.59089
103 1 -1.1104 9.47865 10.6009 3.61321
101 1 -1.1104 9.53563 10.6216 6.60707
235 1 -1.1104 6.67519 7.83889 6.59585
265 1 -1.1104 12.2395 7.93257 6.69238
326 1 -1.1104 12.3127 16.181 12.4211
137 2 2.2208 -0.291593 17.6099 5.31099
319 1 -1.1104 9.56224 13.4517 9.62953
106 2 2.2208 5.34612 17.5554 5.31378
107 1 -1.1104 1.08742 13.4887 1.04297
109 1 -1.1104 0.93441 18.986 0.866813
113 1 -1.1104 0.859825 13.4485 3.88179
114 1 -1.1104 1.04711 18.875 3.83362
116 1 -1.1104 1.05558 16.1663 1.05148
119 2 2.2208 5.24089 14.7856 2.42103
120 2 2.2208 5.10082 20.4886 2.36669
121 1 -1.1104 1.11225 16.1481 3.80178
123 1 -1.1104 3.95952 13.3717 0.915297
125 1 -1.1104 3.73297 19.0148 0.896427
127 2 2.2208 2.48622 17.5264 2.46037
128 1 -1.1104 3.85267 13.575 3.93378
129 1 -1.1104 3.77824 19.0447 3.77066
130 2 2.2208 2.44879 14.7734 5.28738
131 2 2.2208 2.38525 20.3768 5.11015
132 1 -1.1104 3.81632 16.2932 0.930448
134 1 -1.1104 3.85751 16.2335 3.95676
140 1 -1.1104 6.55226 16.0981 0.924689
124 1 -1.1104 3.9372 13.5495 6.59232
302 1 -1.1104 0.958819 19.0558 6.36578
108 1 -1.1104 1.07103 13.7594 6.61237
138 1 -1.1104 6.5034 19.0917 0.896124
115 1 -1.1104 6.81735 13.3403 3.72951
321 1 -1.1104 9.3151 19.0655 12.3162
126 1 -1.1104 3.78495 19.1568 6.45052
231 2 2.2208 13.5579 20.5316 5.3655
81 2 2.2208 -0.294066 6.539 5.20616
110 1 -1.1104 6.76764 13.5075 1.17595
118 1 -1.1104 6.68624 16.2497 6.67804
122 1 -1.1104 6.60246 16.1347 3.7873
139 1 -1.1104 6.64215 19.1453 3.67144
141 2 2.2208 10.9168 17.4921 5.29872
142 1 -1.1104 12.3813 13.522 1.15657
144 1 -1.1104 12.4689 19.115 1.22161
146 1 -1.1104 12.1865 13.5212 3.82912
147 1 -1.1104 12.1631 19.3459 4.1031
148 1 -1.1104 12.1079 16.3437 1.09832
150 2 2.2208 10.7342 14.8344 2.33123
151 2 2.2208 10.7804 20.5947 2.54499
152 1 -1.1104 12.2303 16.347 3.84851
153 1 -1.1104 9.63418 13.4745 0.901364
155 1 -1.1104 9.42156 19.1712 0.978417
157 2 2.2208 8.00874 17.6341 2.39534
158 1 -1.1104 9.4749 13.37 3.94441
159 1 -1.1104 9.39349 18.963 3.80964
160 2 2.2208 8.0413 14.7312 5.22878
161 2 2.2208 8.25674 20.4244 5.31593
162 1 -1.1104 9.29481 16.2881 0.935042
164 1 -1.1104 9.30262 16.2899 3.95445
163 1 -1.1104 9.40394 16.1111 6.64671
143 1 -1.1104 12.2535 13.3711 6.59006
154 1 -1.1104 9.53999 13.2803 6.80665
111 1 -1.1104 6.73921 13.195 6.54575
145 1 -1.1104 12.3694 19.034 6.86871
156 1 -1.1104 9.47702 18.9599 6.61811
329 1 -1.1104 12.2286 19.0823 12.2099
174 1 -1.1104 3.73114 -0.502469 6.58418
172 1 -1.1104 3.83124 -3.34351 6.61814
170 1 -1.1104 1.17154 -0.457844 6.6963
25 2 2.2208 -0.271801 -1.981 2.56441
171 1 -1.1104 6.71065 -0.536895 6.6521
331 2 2.2208 10.8532 17.6939 11.0106
201 2 2.2208 -0.340625 0.729119 10.8593
315 1 -1.1104 9.4769 16.2488 12.3223
173 1 -1.1104 3.65903 2.23076 6.47429
175 2 2.2208 5.41254 0.791945 10.8293
176 1 -1.1104 1.16515 -3.49229 12.104
177 1 -1.1104 1.02581 2.42447 12.2548
180 1 -1.1104 1.17053 -3.4356 9.46772
181 1 -1.1104 1.13691 2.28412 9.40859
184 1 -1.1104 1.14222 -0.644254 12.2268
186 2 2.2208 5.21329 -1.98381 7.93274
187 2 2.2208 5.09159 3.70451 7.99059
188 1 -1.1104 1.07564 -0.577584 9.45692
190 1 -1.1104 3.93915 -3.4666 12.3582
191 1 -1.1104 3.90625 2.20608 12.2998
192 2 2.2208 2.56877 0.987991 8.04828
193 1 -1.1104 3.97351 -3.49949 9.43777
194 1 -1.1104 3.86021 2.27716 9.36972
195 2 2.2208 2.53628 -2.02794 10.7702
197 1 -1.1104 4.10399 -0.587482 12.184
198 1 -1.1104 4.04066 -0.609654 9.35472
196 2 2.2208 2.38494 3.70155 10.814
29 2 2.2208 -0.424851 6.21424 10.816
168 1 -1.1104 6.95819 -3.47725 6.44234
185 1 -1.1104 6.81256 -0.549992 12.2303
189 1 -1.1104 6.78054 -0.840495 9.60593
105 2 2.2208 13.6668 6.45432 2.46826
27 2 2.2208 -0.429923 3.69388 2.33037
178 1 -1.1104 6.53933 -3.40448 12.1044
183 1 -1.1104 6.59439 2.08314 9.27601
182 1 -1.1104 6.76454 -3.44448 9.1846
179 1 -1.1104 6.63019 2.22504 12.2441
211 2 2.2208 11.0878 0.674302 10.7361
212 1 -1.1104 12.5264 -3.45102 12.2628
213 1 -1.1104 12.443 2.14878 12.2185
214 1 -1.1104 12.5637 -3.3919 9.44616
215 1 -1.1104 12.2779 2.18743 9.46317
216 1 -1.1104 12.5992 -0.585233 12.0956
217 2 2.2208 11.1165 -2.00088 7.93503
218 2 2.2208 10.6913 3.50118 8.10777
219 1 -1.1104 12.3956 -0.516138 9.24389
220 1 -1.1104 9.61621 -3.50346 12.3955
221 1 -1.1104 9.70054 2.23798 12.3649
222 2 2.2208 8.13749 0.795954 7.93549
223 1 -1.1104 9.65891 -3.54706 9.55586
224 1 -1.1104 9.44108 2.25262 9.41584
225 2 2.2208 8.17366 -2.27009 10.8107
226 2 2.2208 8.11161 3.56155 10.7498
227 1 -1.1104 9.65773 -0.702112 12.1029
228 1 -1.1104 9.61214 -0.699735 9.33324
316 2 2.2208 7.98049 20.5504 10.8915
30 2 2.2208 -0.44256 9.33829 8.04031
234 1 -1.1104 0.945076 7.8226 6.69889
239 1 -1.1104 3.82949 5.00239 6.65338
327 1 -1.1104 12.1859 19.0138 9.49699
297 1 -1.1104 6.61962 13.3015 12.1949
240 2 2.2208 5.30517 6.35629 10.8338
241 2 2.2208 5.15975 11.9673 10.8643
242 1 -1.1104 1.03804 7.84556 12.2539
244 1 -1.1104 1.00007 7.76968 9.44999
246 1 -1.1104 1.09448 5.07466 12.1954
247 1 -1.1104 0.810387 10.662 12.2786
250 2 2.2208 5.25421 9.33719 8.02959
251 1 -1.1104 0.924125 4.99345 9.43233
252 1 -1.1104 0.893026 10.7628 9.37555
255 1 -1.1104 3.76459 7.92709 12.2146
256 2 2.2208 2.40315 6.499 8.12767
257 2 2.2208 2.47359 12.144 8.02707
258 1 -1.1104 3.89344 7.81948 9.37769
259 2 2.2208 2.23296 9.184 10.7743
260 1 -1.1104 3.91955 5.0492 12.3358
261 1 -1.1104 3.815 10.7464 12.2003
262 1 -1.1104 3.67636 5.16881 9.59971
263 1 -1.1104 3.7427 10.6144 9.51954
253 1 -1.1104 6.61578 5.06278 9.38336
243 1 -1.1104 6.51559 7.47204 12.2508
318 1 -1.1104 9.41412 19.1396 9.4901
324 2 2.2208 10.7935 20.5433 8.13596
266 1 -1.1104 12.2308 4.88564 6.71554
269 1 -1.1104 9.41803 4.76638 6.52562
90 1 -1.1104 12.2911 10.632 6.60434
267 1 -1.1104 9.47451 7.80702 6.7315
289 1 -1.1104 6.68031 16.182 9.59895
317 2 2.2208 8.09541 14.7268 10.8462
249 1 -1.1104 6.65951 10.3817 12.0847
245 1 -1.1104 6.69884 7.8198 9.48317
248 1 -1.1104 6.63163 4.91098 12.3445
254 1 -1.1104 6.49869 10.5583 9.4728
264 1 -1.1104 9.46566 10.731 9.41691
268 1 -1.1104 9.30487 5.12728 9.25549
270 1 -1.1104 9.66748 10.6091 12.4734
271 1 -1.1104 9.30772 5.0312 12.1086
272 2 2.2208 7.99229 9.17033 10.7857
273 1 -1.1104 9.42729 7.98575 9.39793
274 2 2.2208 8.1766 11.8509 7.93635
275 2 2.2208 7.86176 6.43183 7.95602
276 2 2.2208 10.8017 6.46481 10.8498
277 2 2.2208 10.9401 12.0008 10.8417
278 1 -1.1104 12.1874 7.81373 12.3568
279 1 -1.1104 12.2625 7.8863 9.47616
280 1 -1.1104 12.3256 5.01203 12.2571
281 1 -1.1104 12.4326 10.6641 12.4746
282 2 2.2208 10.827 9.34608 8.04961
283 1 -1.1104 12.1106 5.13134 9.52653
284 1 -1.1104 12.2014 10.6837 9.38046
285 1 -1.1104 9.34531 7.76403 12.2088
288 1 -1.1104 6.57436 19.028 9.21532
82 2 2.2208 -0.413404 9.31011 2.46598
306 1 -1.1104 6.652 16.1467 12.3424
117 1 -1.1104 1.02628 16.3077 6.64817
296 1 -1.1104 6.70863 19.0407 12.2338
369 2 2.2208 10.864 0.639681 -0.333675
372 2 2.2208 7.979 3.63705 -0.413027
330 1 -1.1104 12.2676 13.3404 12.224
290 1 -1.1104 6.7145 13.3732 9.30335
133 1 -1.1104 3.87602 16.2037 6.58818
310 2 2.2208 2.53282 14.9808 10.7965
294 1 -1.1104 1.21102 13.4729 9.47647
309 2 2.2208 2.48735 20.4203 10.8006
293 2 2.2208 5.14651 20.4272 7.81201
292 1 -1.1104 1.21476 16.157 9.31475
300 2 2.2208 5.25703 17.6191 10.9133
308 1 -1.1104 3.89754 16.1843 12.1835
299 1 -1.1104 0.967481 13.3302 12.2375
307 1 -1.1104 1.17391 16.2909 12.2162
298 1 -1.1104 0.96579 19.1054 12.1199
303 2 2.2208 2.40672 17.5394 7.97238
305 1 -1.1104 3.84276 13.5104 9.44094
301 1 -1.1104 3.88177 19.2235 9.29033
295 2 2.2208 5.23636 14.8976 7.98351
304 1 -1.1104 4.07142 16.2895 9.48243
286 1 -1.1104 3.84249 19.0701 12.0831
287 1 -1.1104 3.82043 13.4242 12.1984
291 1 -1.1104 1.10566 18.8312 9.18796
112 1 -1.1104 6.79424 18.9368 6.50757
328 1 -1.1104 12.409 13.4397 9.40521
314 1 -1.1104 9.49329 16.3016 9.37542
325 2 2.2208 10.8551 14.8013 8.11414
322 1 -1.1104 9.33704 13.3546 12.1398
149 1 -1.1104 12.3792 16.3457 6.67744
320 2 2.2208 8.1282 17.5713 8.02569
323 1 -1.1104 12.2407 16.2561 9.56451
233 2 2.2208 13.5688 3.54302 5.17628
341 2 2.2208 5.27227 3.70198 13.7023
359 2 2.2208 5.22511 14.6472 13.5769
202 2 2.2208 13.6301 6.42287 8.08339
362 2 2.2208 8.20903 17.6237 13.6592
360 2 2.2208 10.8675 20.7589 13.6015
311 2 2.2208 -0.370233 20.3465 7.9403
52 2 2.2208 13.6255 9.20031 10.8881
313 2 2.2208 -0.279993 14.9084 8.13189
204 2 2.2208 13.6704 14.8947 5.34564
345 2 2.2208 13.5838 20.3337 -0.126594
8452 2 2.2208 -0.274922 -4.81827 -0.388039
353 2 2.2208 2.34905 12.0141 13.5482
373 2 2.2208 2.32378 14.7204 -0.418266
354 2 2.2208 8.02805 6.35105 13.7065
135 2 2.2208 -0.334241 14.9158 2.52477
338 2 2.2208 5.38249 -2.0332 13.6221
382 2 2.2208 -0.467269 11.9393 -0.258024
361 2 2.2208 10.6853 14.7855 13.5485
339 2 2.2208 2.6314 0.741319 13.5
388 2 2.2208 5.49346 0.697298 16.5151
389 1 -1.1104 1.40166 -3.30449 17.8576
390 1 -1.1104 0.9487 2.15768 17.8061
393 1 -1.1104 1.09663 -3.33707 14.984
395 1 -1.1104 1.24415 2.30658 15.076
401 1 -1.1104 0.999544 -0.614055 17.884
403 2 2.2208 5.32669 -2.04528 19.2826
404 2 2.2208 5.21388 3.646 19.1673
405 1 -1.1104 1.14293 -0.620588 15.0585
409 1 -1.1104 4.20856 -3.47745 17.935
410 1 -1.1104 3.74672 2.16583 17.7367
411 2 2.2208 2.46418 0.788485 19.1646
412 1 -1.1104 3.99005 -3.56942 15.0981
414 1 -1.1104 3.83908 2.12278 15.0171
416 2 2.2208 2.5346 -1.99814 16.4847
417 2 2.2208 2.44608 3.56871 16.4741
418 1 -1.1104 3.81992 -0.565663 17.6049
419 1 -1.1104 3.83984 -0.700284 14.9014
396 1 -1.1104 1.01411 2.21988 20.5391
406 1 -1.1104 0.889115 -0.647749 20.6271
415 1 -1.1104 3.82629 2.21803 20.5183
8556 2 2.2208 8.11222 -4.85241 19.3445
402 1 -1.1104 6.70445 -0.719236 17.7872
394 1 -1.1104 0.985753 -3.42941 20.5783
413 1 -1.1104 3.89223 -3.38634 20.6787
375 2 2.2208 2.37048 20.4396 27.7248
366 2 2.2208 2.44257 3.67547 27.6806
381 2 2.2208 5.28186 12.0204 27.6507
349 2 2.2208 7.88329 20.4709 27.6613
399 1 -1.1104 6.66553 2.16313 15.1384
392 1 -1.1104 6.6859 2.29759 17.8028
407 1 -1.1104 6.93343 -0.809984 15.0634
397 1 -1.1104 6.69675 -3.6232 15.0014
391 1 -1.1104 6.73924 -3.40248 17.9844
431 2 2.2208 11.0137 0.697899 16.4851
432 1 -1.1104 12.5904 -3.48038 17.9926
433 1 -1.1104 12.622 2.20213 17.9002
434 1 -1.1104 12.3213 -3.48363 15.1168
436 1 -1.1104 12.125 2.11761 15.2015
438 1 -1.1104 12.1916 -0.795587 17.9843
439 2 2.2208 11.069 -2.1781 19.4343
440 2 2.2208 10.8542 3.70783 19.4113
441 1 -1.1104 12.4759 -0.686977 15.1584
443 1 -1.1104 9.60018 -3.51536 18.079
444 1 -1.1104 9.57519 2.27644 17.9676
445 2 2.2208 8.02594 0.822721 19.362
446 1 -1.1104 9.51785 -3.78385 15.328
448 1 -1.1104 9.42283 2.08199 15.2386
450 2 2.2208 8.29129 -2.02671 16.5448
451 2 2.2208 8.2263 3.75053 16.4022
452 1 -1.1104 9.49198 -0.636705 17.7697
453 1 -1.1104 9.55366 -0.774999 14.9078
454 1 -1.1104 9.58918 -0.830692 20.687
449 1 -1.1104 9.61505 2.14554 20.7425
400 1 -1.1104 6.79661 2.14568 20.8166
408 1 -1.1104 6.51821 -0.492772 20.5038
442 1 -1.1104 12.544 -0.873054 20.7684
435 1 -1.1104 12.4446 -3.72148 20.8353
398 1 -1.1104 6.91924 -3.4183 20.7111
714 1 -1.1104 6.7304 16.289 26.1959
447 1 -1.1104 9.64698 -3.52636 20.7772
461 2 2.2208 13.5569 20.4075 22.0803
464 2 2.2208 5.25809 6.36959 16.3914
465 2 2.2208 5.31495 11.9259 16.4338
466 1 -1.1104 0.99781 7.99888 17.8337
468 1 -1.1104 1.12671 7.80503 15.1821
472 1 -1.1104 0.883323 4.97761 17.7695
473 1 -1.1104 1.16858 10.7338 17.7379
476 2 2.2208 5.39006 9.14309 19.2216
477 1 -1.1104 1.02173 5.15906 15.1536
479 1 -1.1104 1.20277 10.4131 14.9362
485 1 -1.1104 3.70987 7.75155 17.8747
486 2 2.2208 2.37609 6.39505 19.4024
487 2 2.2208 2.48321 12.0095 19.2196
488 1 -1.1104 3.96858 7.78661 14.9446
490 2 2.2208 2.5449 9.24578 16.4307
491 1 -1.1104 3.80001 4.86267 17.9064
492 1 -1.1104 4.04131 10.5212 17.6679
493 1 -1.1104 3.98068 4.97608 15.1065
495 1 -1.1104 3.97401 10.5289 14.9492
478 1 -1.1104 1.05835 5.00774 20.6006
496 1 -1.1104 4.08308 10.5884 20.5489
483 1 -1.1104 6.71376 10.5833 15.0542
470 1 -1.1104 6.82085 7.74114 15.0992
494 1 -1.1104 3.91074 4.96222 20.6754
620 1 -1.1104 9.51476 16.1855 26.3619
474 1 -1.1104 6.53971 5.07653 17.8851
481 1 -1.1104 6.762 4.98301 15.2146
475 1 -1.1104 6.83116 10.452 17.8565
467 1 -1.1104 6.67794 7.76346 17.8582
500 2 2.2208 11.0539 6.28001 16.474
501 2 2.2208 10.7911 12.1091 16.5292
502 1 -1.1104 12.1104 7.61032 17.9773
503 1 -1.1104 12.5989 7.46689 15.3123
505 1 -1.1104 12.2523 4.97835 17.88
506 1 -1.1104 12.4078 10.5466 18.0883
507 2 2.2208 10.831 9.14958 19.2281
508 1 -1.1104 12.4896 4.79905 15.0498
510 1 -1.1104 12.382 10.3102 15.1348
512 1 -1.1104 9.46357 7.87666 17.7402
513 2 2.2208 7.99019 6.58047 19.2382
514 2 2.2208 8.06856 11.9229 19.2358
515 1 -1.1104 9.68834 7.91902 15.1705
517 2 2.2208 8.2017 9.19464 16.4798
518 1 -1.1104 9.52617 5.124 17.9347
519 1 -1.1104 9.45191 10.6805 17.948
520 1 -1.1104 9.63142 5.0515 15.0543
522 1 -1.1104 9.5849 10.6341 15.2335
471 1 -1.1104 6.6741 7.7814 20.6138
504 1 -1.1104 12.3626 7.73858 20.8023
509 1 -1.1104 12.2447 4.95605 20.8859
547 1 -1.1104 6.77468 16.2714 20.5548
523 1 -1.1104 9.38021 10.3492 20.6172
511 1 -1.1104 12.1705 10.6717 20.8188
460 2 2.2208 13.5311 20.5834 16.5033
8586 2 2.2208 2.55481 -4.83737 19.3417
527 2 2.2208 5.54997 17.5117 16.5111
528 1 -1.1104 1.03339 13.3367 17.8593
529 1 -1.1104 0.804346 18.8669 17.6864
532 1 -1.1104 0.994087 13.41 14.9887
534 1 -1.1104 1.00049 19.012 14.9298
540 1 -1.1104 1.04238 16.2203 17.8314
542 2 2.2208 5.35263 14.744 19.1894
543 2 2.2208 5.24408 20.5097 19.2973
544 1 -1.1104 0.998778 16.1565 14.962
548 1 -1.1104 3.97497 13.4214 17.7578
549 1 -1.1104 3.57255 19.1101 17.8349
550 2 2.2208 2.4707 17.522 19.2099
551 1 -1.1104 3.83365 13.2433 15.1398
553 1 -1.1104 3.95581 18.8499 14.9668
555 2 2.2208 2.48956 14.7632 16.3799
556 2 2.2208 2.37796 20.3499 16.3663
557 1 -1.1104 4.03034 16.1385 17.6899
558 1 -1.1104 3.86313 15.9899 14.9074
559 1 -1.1104 3.78665 16.2863 20.826
554 1 -1.1104 3.88586 19.143 20.6678
535 1 -1.1104 1.08039 18.9925 20.515
463 1 -1.1104 12.2468 13.4408 23.6213
370 2 2.2208 8.06384 -2.05242 27.7895
552 1 -1.1104 3.76134 13.3272 20.6462
545 1 -1.1104 1.02406 16.2644 20.5846
346 2 2.2208 10.9996 -2.09366 13.562
379 2 2.2208 5.26674 6.6255 27.713
541 1 -1.1104 6.78469 15.9664 17.8857
538 1 -1.1104 6.69394 18.8641 15.1276
546 1 -1.1104 6.95809 16.2043 15.0357
531 1 -1.1104 6.60105 18.8545 17.8335
567 1 -1.1104 12.2456 13.3468 20.6621
536 1 -1.1104 6.72558 13.5264 15.0692
530 1 -1.1104 6.75719 13.1101 17.9554
563 2 2.2208 10.7909 17.8453 16.3865
564 1 -1.1104 12.2765 13.3469 17.7571
565 1 -1.1104 12.1564 19.1935 17.8881
566 1 -1.1104 12.0107 13.3951 14.9247
568 1 -1.1104 12.1539 19.1667 15.0384
570 1 -1.1104 12.2828 16.1551 18.003
571 2 2.2208 10.7745 14.7319 19.3616
572 2 2.2208 10.7078 20.3556 19.198
573 1 -1.1104 12.429 16.4179 15.1452
575 1 -1.1104 9.40051 13.5295 17.8553
576 1 -1.1104 9.41925 19.0137 17.794
577 2 2.2208 8.14799 17.453 19.2811
578 1 -1.1104 9.49138 13.3998 14.8707
580 1 -1.1104 9.48054 19.1952 15.0584
582 2 2.2208 8.24616 14.7938 16.4408
583 2 2.2208 7.92054 20.3297 16.4453
584 1 -1.1104 9.45447 16.2231 17.9163
585 1 -1.1104 9.51337 16.3221 15.1209
579 1 -1.1104 9.29984 13.411 20.6988
712 1 -1.1104 6.56523 13.3975 26.3222
581 1 -1.1104 9.24357 19.0371 20.5769
355 2 2.2208 10.8632 9.18531 13.758
650 2 2.2208 13.6779 11.962 19.4019
420 1 -1.1104 3.71477 -0.705377 20.4417
623 2 2.2208 -0.391627 17.6762 22.1902
8519 2 2.2208 2.50545 -4.75549 25.0821
423 2 2.2208 13.5521 3.39368 22.0999
424 2 2.2208 -0.301523 0.67748 16.4604
421 2 2.2208 -0.475182 6.49736 22.076
591 2 2.2208 5.16309 0.76247 22.1513
592 1 -1.1104 1.14881 -3.3798 23.4562
593 1 -1.1104 0.975633 2.2982 23.4446
596 1 -1.1104 0.929819 -3.34217 26.3018
597 1 -1.1104 0.895024 2.33725 26.2993
600 1 -1.1104 0.943479 -0.633603 23.5147
602 2 2.2208 5.20498 -2.02922 24.7927
603 2 2.2208 5.19278 3.56732 24.8905
604 1 -1.1104 0.887675 -0.579963 26.2314
606 1 -1.1104 3.91231 -3.34222 23.498
607 1 -1.1104 3.66402 2.19396 23.4514
608 2 2.2208 2.27755 0.715323 24.8744
609 1 -1.1104 3.91907 -3.39734 26.2043
610 1 -1.1104 3.82732 2.29139 26.5187
611 2 2.2208 2.35876 -1.97961 22.0093
613 1 -1.1104 3.8388 -0.635961 23.3362
614 1 -1.1104 3.58362 -0.620374 26.1011
612 2 2.2208 2.35518 3.68108 22.1128
624 2 2.2208 -0.41467 -2.03407 24.9384
622 2 2.2208 -0.34784 9.21987 19.2309
8623 2 2.2208 -0.233443 -4.81683 16.4683
462 2 2.2208 10.7438 17.5116 22.0872
437 1 -1.1104 12.3177 2.08141 20.6521
605 1 -1.1104 6.52127 -0.527749 26.303
598 1 -1.1104 6.53007 -3.24952 26.4001
601 1 -1.1104 6.71598 -0.771445 23.1835
594 1 -1.1104 6.71413 -3.38284 23.6766
599 1 -1.1104 6.62665 2.32746 26.2597
595 1 -1.1104 6.64207 2.09402 23.5495
627 2 2.2208 10.9192 0.736312 22.1908
628 1 -1.1104 12.4741 -3.47859 23.464
629 1 -1.1104 12.3314 2.17732 23.5638
630 1 -1.1104 12.3895 -3.68606 26.2107
631 1 -1.1104 12.2085 1.99101 26.2925
632 1 -1.1104 12.4543 -0.644172 23.4685
633 2 2.2208 10.9209 -2.27476 25.0581
634 2 2.2208 10.8077 3.3611 24.8863
635 1 -1.1104 12.333 -0.630554 26.413
636 1 -1.1104 9.58393 -3.69512 23.6002
637 1 -1.1104 9.53877 2.03384 23.4613
638 2 2.2208 8.09649 0.527803 24.8513
639 1 -1.1104 9.51115 -3.3886 26.3923
640 1 -1.1104 9.35778 1.90256 26.334
641 2 2.2208 8.28426 -2.19041 22.1447
642 2 2.2208 8.08093 3.5621 22.1444
643 1 -1.1104 9.64617 -0.599571 23.5301
644 1 -1.1104 9.41329 -0.923945 26.0517
587 2 2.2208 8.01517 17.682 24.8649
380 2 2.2208 2.64735 9.4109 27.7761
430 2 2.2208 13.6093 14.7717 22.2234
589 1 -1.1104 9.5031 13.5815 26.2443
480 1 -1.1104 1.18477 10.6221 20.7543
469 1 -1.1104 1.10696 7.78639 20.8379
497 1 -1.1104 12.1107 18.9616 23.5303
616 2 2.2208 8.01544 20.3799 22.099
489 1 -1.1104 3.98863 7.57096 20.626
656 2 2.2208 5.25317 6.18717 22.0753
657 2 2.2208 5.29341 11.8995 22.1879
658 1 -1.1104 0.849368 8.0002 23.5576
660 1 -1.1104 1.00988 7.90158 26.3149
662 1 -1.1104 0.916221 5.23874 23.5395
663 1 -1.1104 1.03097 10.6451 23.5479
666 2 2.2208 5.36639 9.14367 24.8175
667 1 -1.1104 1.19001 5.03315 26.2967
668 1 -1.1104 1.14948 10.5709 26.3183
671 1 -1.1104 3.89377 7.65673 23.5785
672 2 2.2208 2.43287 6.5193 24.9797
673 2 2.2208 2.43892 12.0028 25.0219
674 1 -1.1104 3.98156 8.14199 26.2711
675 2 2.2208 2.43159 9.22835 22.287
676 1 -1.1104 3.87687 4.88766 23.5148
677 1 -1.1104 3.85968 10.4291 23.6913
678 1 -1.1104 3.97043 5.27326 26.2492
679 1 -1.1104 4.00512 10.6743 26.3945
455 2 2.2208 13.5942 17.7821 24.9711
482 1 -1.1104 6.71946 4.91244 20.7116
521 1 -1.1104 9.44261 4.98258 20.9277
516 1 -1.1104 9.45278 7.71904 20.6869
484 1 -1.1104 6.56417 10.5897 20.6328
665 1 -1.1104 6.77686 10.5113 23.4418
615 2 2.2208 8.02771 14.7301 22.1143
670 1 -1.1104 6.68746 10.6285 26.3991
664 1 -1.1104 6.67581 4.75136 23.4906
661 1 -1.1104 6.76106 7.93409 26.1687
669 1 -1.1104 6.67852 4.98057 26.4191
659 1 -1.1104 6.63081 7.64814 23.5647
687 1 -1.1104 9.68391 10.7561 26.2395
688 1 -1.1104 9.58614 4.90286 26.3382
689 1 -1.1104 9.57882 10.3157 23.3122
690 1 -1.1104 9.41887 4.8772 23.6536
691 2 2.2208 8.1416 8.8739 22.1752
692 1 -1.1104 9.54796 7.76317 26.254
693 2 2.2208 8.05277 12.0355 24.8903
694 2 2.2208 8.07203 6.23885 25.0676
695 2 2.2208 10.9298 6.30512 22.119
696 2 2.2208 10.9222 11.9048 22.248
697 1 -1.1104 12.0928 7.62027 23.5898
698 1 -1.1104 12.4941 7.87345 26.3406
699 1 -1.1104 12.3555 4.84189 23.7134
700 1 -1.1104 12.5038 10.4947 23.7753
701 2 2.2208 10.8938 9.16647 24.7909
702 1 -1.1104 12.5433 4.93322 26.321
703 1 -1.1104 12.4356 10.7861 26.5054
704 1 -1.1104 9.36605 7.62189 23.7001
533 1 -1.1104 0.828103 13.3685 20.6029
561 1 -1.1104 9.58542 13.2516 23.5621
618 2 2.2208 13.6152 17.3982 19.3083
562 1 -1.1104 9.37175 18.7532 23.2989
422 2 2.2208 13.6432 9.11185 22.1287
647 2 2.2208 2.41683 14.7195 21.9485
649 2 2.2208 2.46319 20.4263 22.0037
652 1 -1.1104 3.83719 16.0735 23.4686
655 1 -1.1104 0.81802 16.1168 23.684
681 1 -1.1104 3.73917 13.3988 26.4216
682 1 -1.1104 3.847 16.2306 26.2348
683 2 2.2208 2.32782 17.3809 24.8384
686 1 -1.1104 3.66642 19.036 26.1513
705 2 2.2208 5.23878 17.5303 22.0753
706 1 -1.1104 1.15239 13.3811 23.47
707 1 -1.1104 1.07166 18.9956 23.434
711 1 -1.1104 3.76427 18.8886 23.3498
713 1 -1.1104 3.8581 13.3313 23.3802
715 1 -1.1104 1.10282 18.9141 26.2743
716 1 -1.1104 1.00724 15.9831 26.4309
717 1 -1.1104 1.0475 13.2998 26.3733
719 2 2.2208 5.23451 20.4275 24.8409
720 2 2.2208 5.22685 14.7908 24.9692
680 1 -1.1104 6.73981 16.1145 23.6002
588 1 -1.1104 6.52193 19.0484 26.2844
617 1 -1.1104 9.61791 16.0966 23.3415
537 1 -1.1104 6.49211 13.4269 20.5904
569 1 -1.1104 12.2464 18.9944 20.7052
539 1 -1.1104 6.614 19.0319 20.7545
574 1 -1.1104 12.2071 16.0191 20.665
586 1 -1.1104 9.44839 16.1426 20.7231
524 1 -1.1104 12.3156 16.1969 23.4002
709 1 -1.1104 6.69948 13.3518 23.4645
526 2 2.2208 10.7338 20.3806 25.0173
498 1 -1.1104 12.3322 13.5519 26.2902
525 2 2.2208 10.8998 14.9368 24.8997
718 1 -1.1104 6.50213 19.0467 23.5307
499 1 -1.1104 12.1794 19.1382 26.3193
560 1 -1.1104 12.4419 16.3816 26.4199
590 1 -1.1104 9.35584 18.8643 26.2399
456 2 2.2208 -0.508062 17.4109 16.4881
626 2 2.2208 -0.379075 3.66354 24.9035
458 2 2.2208 -0.296972 20.376 19.0864
648 2 2.2208 -0.299295 11.9626 16.4282
685 2 2.2208 -0.294476 11.8509 22.1674
459 2 2.2208 13.7519 -2.04343 16.5775
646 2 2.2208 -0.261109 14.7243 24.9292
386 2 2.2208 10.9965 12.1194 27.6599
347 2 2.2208 8.02618 14.8741 27.669
334 2 2.2208 -0.345178 -2.09403 13.6676
374 2 2.2208 5.20467 17.5574 27.6452
385 2 2.2208 8.05051 9.12204 27.5901
337 2 2.2208 -0.360078 3.63506 13.6898
356 2 2.2208 8.16872 12.0433 13.6444
348 2 2.2208 10.7968 17.569 27.7246
384 2 2.2208 10.8719 6.45978 27.7067
343 2 2.2208 8.0773 0.557785 13.7217
367 2 2.2208 -0.262954 9.1061 13.7609
358 2 2.2208 5.29837 20.2872 13.7071
357 2 2.2208 2.5603 17.5373 13.7115
365 2 2.2208 2.32992 -1.797 27.6366
350 2 2.2208 10.9275 3.58149 13.8082
352 2 2.2208 5.26928 9.25566 13.6452
721 2 2.2208 5.09202 23.1873 5.21159
722 2 2.2208 5.07173 28.8233 5.21588
723 1 -1.1104 1.10599 24.5562 0.960114
724 1 -1.1104 1.03334 24.4749 3.6795
725 1 -1.1104 1.07783 21.7766 1.11172
726 1 -1.1104 0.767509 27.4176 0.834917
727 2 2.2208 5.17711 26.111 2.20659
728 1 -1.1104 0.792187 21.6144 3.85032
729 1 -1.1104 0.922896 27.4035 3.85157
730 1 -1.1104 3.83295 24.7601 1.11693
731 2 2.2208 2.50344 23.2166 2.32536
732 2 2.2208 2.48528 28.9036 2.45499
733 1 -1.1104 3.95832 24.6443 3.83608
734 2 2.2208 2.39471 25.9656 5.19422
735 1 -1.1104 3.69748 21.7622 1.03478
736 1 -1.1104 3.54012 27.3358 1.22161
737 1 -1.1104 3.54725 21.7944 3.85241
738 1 -1.1104 3.79855 27.4987 3.92003
862 1 -1.1104 1.05465 24.5621 6.58125
747 1 -1.1104 6.56802 27.621 4.00801
745 1 -1.1104 6.4035 27.6315 1.02698
863 1 -1.1104 6.636 24.5432 6.5091
1016 1 -1.1104 9.37431 38.8284 12.1578
1024 2 2.2208 10.9174 43.1335 8.07617
1010 2 2.2208 -0.412922 42.9602 7.91141
1043 2 2.2208 13.546 23.2756 8.12915
744 1 -1.1104 6.53276 21.7769 0.875852
742 1 -1.1104 6.61036 24.6858 0.98143
743 1 -1.1104 6.65502 24.6121 3.68657
746 1 -1.1104 6.49335 22.0341 3.57239
748 2 2.2208 10.8218 23.3248 5.27934
749 2 2.2208 10.7908 28.9123 5.36704
750 1 -1.1104 12.2548 24.8341 1.11373
751 1 -1.1104 12.2476 24.8519 3.82616
752 1 -1.1104 12.0254 21.9791 1.09124
753 1 -1.1104 12.0659 27.4909 1.17375
754 2 2.2208 10.8319 26.0491 2.48211
755 1 -1.1104 12.1048 21.9305 3.88105
756 1 -1.1104 12.0848 27.625 3.85338
757 1 -1.1104 9.50105 24.5972 0.878252
758 2 2.2208 7.90355 23.2381 2.38235
759 2 2.2208 7.95796 28.8868 2.34029
760 1 -1.1104 9.49614 24.4634 3.78852
761 2 2.2208 7.8338 26.155 5.2874
762 1 -1.1104 9.35779 21.8346 1.02104
763 1 -1.1104 9.48109 27.4847 0.929432
764 1 -1.1104 9.23361 21.8465 3.87602
765 1 -1.1104 9.45323 27.3691 3.99932
898 1 -1.1104 9.35136 24.8274 6.52581
895 1 -1.1104 12.1441 24.7687 6.7697
1060 2 2.2208 5.09878 31.7375 13.7173
1039 2 2.2208 13.6236 31.6748 5.2354
896 1 -1.1104 12.1207 22.0855 6.67457
866 1 -1.1104 6.49544 21.6913 6.35793
899 1 -1.1104 9.40886 21.858 6.77443
1656 1 -1.1104 3.91571 47.2157 12.2937
1080 2 2.2208 10.8962 45.7867 -0.487423
1642 1 -1.1104 1.22934 47.0758 12.2984
769 2 2.2208 5.04226 34.4605 5.32969
770 1 -1.1104 1.24189 30.2157 0.944543
771 1 -1.1104 1.05276 36.0453 0.99634
773 1 -1.1104 0.848121 30.2026 3.66502
774 1 -1.1104 1.13749 35.8947 3.87204
776 1 -1.1104 1.03277 33.1053 1.00507
777 2 2.2208 5.14296 31.7314 2.37518
778 2 2.2208 5.14697 37.2745 2.48486
779 1 -1.1104 0.97623 33.1223 3.88394
781 1 -1.1104 3.98476 30.1765 1.0339
782 1 -1.1104 3.67336 35.9498 1.18162
783 2 2.2208 2.38376 34.514 2.58008
784 1 -1.1104 3.67483 30.2933 3.75852
785 1 -1.1104 3.78782 35.8801 3.89392
786 2 2.2208 2.25871 31.7545 5.23947
787 2 2.2208 2.45556 37.3897 5.18221
788 1 -1.1104 3.69997 33.1846 0.932748
789 1 -1.1104 3.73098 33.1355 3.79186
926 1 -1.1104 3.82825 35.8756 6.62448
775 1 -1.1104 6.70032 35.9054 3.61
772 1 -1.1104 6.74905 36.043 0.878056
795 1 -1.1104 6.49018 33.0696 1.12933
793 1 -1.1104 6.62247 30.33 0.901114
794 1 -1.1104 6.43617 30.2636 3.80432
1022 1 -1.1104 12.2744 44.4055 9.58415
922 1 -1.1104 6.6193 35.8576 6.57904
924 1 -1.1104 6.46627 33.0241 6.60836
1019 2 2.2208 8.14309 45.8681 7.97548
860 2 2.2208 13.5803 45.8179 2.43921
780 1 -1.1104 6.5914 33.1628 3.80467
791 2 2.2208 -0.300247 31.5944 2.33759
796 2 2.2208 10.8241 34.473 5.22207
797 1 -1.1104 12.2003 30.1183 0.989109
798 1 -1.1104 12.1463 36.0456 0.993991
799 1 -1.1104 12.1759 30.4545 3.84841
800 1 -1.1104 12.3884 36.0403 3.75292
801 1 -1.1104 12.1296 33.0188 0.870821
802 2 2.2208 10.729 31.764 2.21717
803 2 2.2208 10.8543 37.4553 2.49675
804 1 -1.1104 12.1623 33.302 3.69318
805 1 -1.1104 9.48848 30.2526 0.882978
806 1 -1.1104 9.3668 35.9812 1.13005