ITEM: TIMESTEP
60000
ITEM: NUMBER OF ATOMS
17910
ITEM: BOX BOUNDS pp pp pp
-3.9980175373389704e-01 2.7739801753734476e+01
-4.6908028691735844e+00 3.3277080286917840e+02
-4.0028760975358213e-01 2.7740287609752933e+01
ITEM: ATOMS id type q x y z
1 2 2.2208 5.40203 0.801718 5.09437
2 1 -1.1104 1.28166 -3.48298 1.01972
3 1 -1.1104 0.978893 2.25684 0.943423
6 1 -1.1104 1.0626 -3.45184 3.90628
7 1 -1.1104 1.24877 2.17837 3.796
10 1 -1.1104 1.0753 -0.654842 0.916604
12 2 2.2208 5.44269 -1.96354 2.18819
14 1 -1.1104 1.26357 -0.574475 3.66753
16 1 -1.1104 3.98979 -3.50505 0.875298
17 1 -1.1104 3.85678 2.22627 0.890708
18 2 2.2208 2.47886 0.851966 2.21059
19 1 -1.1104 3.91767 -3.19753 3.59645
20 1 -1.1104 4.05877 2.25909 3.6286
21 2 2.2208 2.60987 -1.80108 5.11521
22 2 2.2208 2.47498 3.65062 5.07118
23 1 -1.1104 3.8537 -0.648548 0.799593
24 1 -1.1104 3.88426 -0.45315 3.61737
13 2 2.2208 5.41395 3.75823 2.29782
26 2 2.2208 -0.29317 0.790499 5.06512
170 1 -1.1104 1.00506 -0.376485 6.5652
172 1 -1.1104 3.89956 -3.22889 6.38387
174 1 -1.1104 3.93565 -0.637803 6.7522
173 1 -1.1104 3.77357 2.18469 6.48243
4 1 -1.1104 6.86936 -3.31606 0.95097
8 1 -1.1104 6.78613 -3.43968 3.63916
8439 2 2.2208 -0.207075 -4.53634 10.9666
8458 2 2.2208 2.44429 -4.73523 13.656
167 1 -1.1104 0.96802 2.35331 6.33766
361 2 2.2208 10.8813 15.1078 13.7621
9 1 -1.1104 6.95932 2.29102 3.61579
11 1 -1.1104 6.7292 -0.528389 0.677698
168 1 -1.1104 6.76633 -2.9913 6.75107
15 1 -1.1104 6.85192 -0.6968 3.72015
5 1 -1.1104 6.81057 2.45266 0.768804
31 2 2.2208 10.946 0.932744 5.17302
32 1 -1.1104 12.4328 -3.31126 1.0537
33 1 -1.1104 12.4364 2.34013 1.11306
34 1 -1.1104 12.492 -3.27257 3.6981
35 1 -1.1104 12.4009 2.37333 3.80781
36 1 -1.1104 12.7878 -0.349279 0.751033
37 2 2.2208 11.0605 -2.03642 2.3508
39 1 -1.1104 12.4722 -0.50247 3.64438
40 1 -1.1104 9.60614 -3.41257 1.11212
41 1 -1.1104 9.50871 2.27475 0.909822
42 2 2.2208 8.13756 0.845669 2.2306
43 1 -1.1104 9.65043 -3.37807 3.7443
44 1 -1.1104 9.57499 2.445 3.74535
45 2 2.2208 8.27321 -1.86763 5.19882
47 1 -1.1104 9.84469 -0.483799 1.03054
48 1 -1.1104 9.60462 -0.411334 3.72793
46 2 2.2208 7.97913 3.68611 5.09899
38 2 2.2208 10.8255 3.60632 2.24991
206 1 -1.1104 12.3754 2.30191 6.52288
209 1 -1.1104 9.57179 2.4688 6.67279
210 1 -1.1104 9.78175 -0.485404 6.51601
169 1 -1.1104 6.6203 2.34723 6.7149
171 1 -1.1104 6.94692 -0.268363 6.40634
207 1 -1.1104 12.4045 -0.566184 6.54643
205 1 -1.1104 12.2432 -3.33808 6.69053
208 1 -1.1104 9.58371 -3.25019 6.56393
54 2 2.2208 5.0649 6.58408 4.9783
55 2 2.2208 5.09991 11.9233 5.47607
56 1 -1.1104 0.917698 8.01928 0.884634
58 1 -1.1104 0.91513 7.78831 3.84303
60 1 -1.1104 1.14217 5.00951 1.03231
61 1 -1.1104 0.771995 10.8949 0.997977
66 2 2.2208 5.37443 9.3941 2.39903
67 1 -1.1104 0.805196 5.04626 3.80733
68 1 -1.1104 1.10086 10.6994 3.85093
71 1 -1.1104 3.70555 7.82118 0.702451
72 2 2.2208 2.40053 6.59925 2.22471
73 2 2.2208 2.46221 12.0761 2.53271
74 1 -1.1104 3.74451 7.94251 3.56615
75 2 2.2208 2.3741 9.16029 5.25541
76 1 -1.1104 3.9543 5.01658 0.797102
77 1 -1.1104 3.82279 10.5393 0.987342
79 1 -1.1104 3.74872 5.09888 3.61419
80 1 -1.1104 3.97015 10.6495 4.03495
8434 2 2.2208 8.19469 -4.77597 2.45635
8435 2 2.2208 10.968 -4.85257 5.22363
236 1 -1.1104 1.30344 5.23261 6.50742
335 2 2.2208 -0.448303 20.5268 13.7157
63 1 -1.1104 6.71426 5.15654 0.931045
235 1 -1.1104 6.61301 7.90399 6.47717
238 1 -1.1104 3.83604 7.92755 6.57083
62 1 -1.1104 0.808018 10.7688 6.5296
8438 2 2.2208 5.42986 -4.55125 10.7543
8433 2 2.2208 -0.214697 -4.73947 5.20702
59 1 -1.1104 6.57771 8.13856 3.82231
70 1 -1.1104 6.82312 10.9527 4.06698
69 1 -1.1104 6.5971 5.23084 3.80251
64 1 -1.1104 6.64027 10.7107 1.19493
57 1 -1.1104 6.59929 7.92092 0.955527
84 2 2.2208 10.8724 6.46168 5.18164
85 2 2.2208 10.7889 12.1154 5.3563
86 1 -1.1104 12.2703 7.85771 1.03645
87 1 -1.1104 12.454 7.76302 3.84606
88 1 -1.1104 12.3862 4.99263 0.895741
89 1 -1.1104 12.1507 10.7635 1.11491
91 2 2.2208 10.9557 9.43062 2.42767
92 1 -1.1104 12.3195 5.01706 3.9797
93 1 -1.1104 12.1143 10.6956 3.9375
94 1 -1.1104 9.59774 7.93465 1.0811
95 2 2.2208 8.10201 6.54144 2.31511
96 2 2.2208 8.22438 12.2367 2.61859
97 1 -1.1104 9.56387 8.03378 3.77535
98 2 2.2208 8.10339 9.32324 5.22198
99 1 -1.1104 9.5757 5.1051 0.928681
100 1 -1.1104 9.22368 10.8643 1.06639
102 1 -1.1104 9.32431 5.02194 3.71059
103 1 -1.1104 9.52985 10.6994 3.9251
237 1 -1.1104 6.70508 5.17875 6.51675
269 1 -1.1104 9.41869 5.03424 6.54937
267 1 -1.1104 9.48829 7.90119 6.38898
65 1 -1.1104 6.51269 10.5745 6.6731
266 1 -1.1104 12.2358 5.29233 6.65421
101 1 -1.1104 9.36591 10.6321 6.69322
90 1 -1.1104 12.1026 10.9201 6.68238
334 2 2.2208 -0.222226 -1.78357 13.7186
314 1 -1.1104 9.40386 16.4768 9.51381
328 1 -1.1104 12.2392 13.5703 9.30825
106 2 2.2208 5.12958 17.7089 5.13667
107 1 -1.1104 1.21442 13.6008 0.947581
109 1 -1.1104 1.21908 19.0397 1.00968
113 1 -1.1104 1.08191 13.6533 3.70231
114 1 -1.1104 0.853853 18.953 3.84109
116 1 -1.1104 1.04884 16.4182 0.905795
119 2 2.2208 5.26027 14.7735 2.42093
120 2 2.2208 5.18655 20.5059 2.47199
121 1 -1.1104 1.01765 16.3317 3.86567
123 1 -1.1104 4.02082 13.4806 0.967271
125 1 -1.1104 3.87139 19.0673 1.00801
127 2 2.2208 2.41692 17.641 2.50902
128 1 -1.1104 3.96558 13.552 3.92936
129 1 -1.1104 3.64983 19.0608 3.91761
130 2 2.2208 2.43041 14.8332 5.23226
131 2 2.2208 2.37607 20.3749 5.28246
132 1 -1.1104 3.78294 16.3367 1.13589
134 1 -1.1104 3.87351 16.1937 3.80595
302 1 -1.1104 0.987497 19.0058 6.7025
122 1 -1.1104 6.64109 16.2687 3.82096
138 1 -1.1104 6.62131 19.1844 1.15959
124 1 -1.1104 3.63443 13.3542 6.63106
8441 2 2.2208 10.942 -4.4632 10.8741
140 1 -1.1104 6.69581 16.2971 1.03762
355 2 2.2208 10.8595 9.30283 13.8124
108 1 -1.1104 0.983147 13.6802 6.57216
133 1 -1.1104 3.85915 16.1777 6.54973
139 1 -1.1104 6.64426 19.1211 3.88896
115 1 -1.1104 6.64914 13.6078 3.8852
110 1 -1.1104 6.78654 13.4629 0.998946
141 2 2.2208 10.7631 17.7709 5.25935
142 1 -1.1104 12.2774 13.6731 1.00472
144 1 -1.1104 12.151 19.1002 1.10933
146 1 -1.1104 12.3567 13.274 3.85757
147 1 -1.1104 12.3126 19.1436 3.88834
148 1 -1.1104 12.4243 16.3711 1.11208
150 2 2.2208 11.0475 15.0356 2.52892
151 2 2.2208 10.734 20.5802 2.49573
152 1 -1.1104 12.1892 16.2328 3.93819
153 1 -1.1104 9.50513 13.6382 1.14164
155 1 -1.1104 9.45261 19.3406 1.04635
157 2 2.2208 8.11262 17.7953 2.39109
158 1 -1.1104 9.64979 13.5587 3.83812
159 1 -1.1104 9.35868 18.9999 3.85481
160 2 2.2208 8.03979 14.8624 5.30367
161 2 2.2208 7.93117 20.5027 5.22897
162 1 -1.1104 9.44204 16.526 1.02013
164 1 -1.1104 9.48273 16.2538 3.99423
156 1 -1.1104 9.46605 19.1756 6.64722
118 1 -1.1104 6.79279 16.3379 6.47263
145 1 -1.1104 12.2232 19.2595 6.47726
149 1 -1.1104 12.1623 16.4509 6.97388
112 1 -1.1104 6.54583 19.0326 6.58119
111 1 -1.1104 6.54412 13.3883 6.78967
163 1 -1.1104 9.54105 16.4271 6.50587
143 1 -1.1104 12.1477 13.7503 6.69103
327 1 -1.1104 12.3036 19.1688 9.45955
202 2 2.2208 13.614 6.56679 8.12354
203 2 2.2208 13.6672 3.80923 10.8223
200 2 2.2208 -0.441175 -1.69549 7.93902
29 2 2.2208 -0.426718 6.40877 10.8116
166 1 -1.1104 0.968572 -3.16354 6.73217
175 2 2.2208 5.26485 1.13841 10.9505
176 1 -1.1104 1.12392 -3.14584 12.3094
177 1 -1.1104 1.04437 2.21616 11.8925
180 1 -1.1104 1.13496 -3.15566 9.48165
181 1 -1.1104 0.967144 2.36524 9.02908
184 1 -1.1104 1.24209 -0.406337 12.2936
186 2 2.2208 5.4653 -1.75043 8.10117
187 2 2.2208 5.2743 3.77371 7.92995
188 1 -1.1104 0.978889 -0.417983 9.27264
190 1 -1.1104 4.01847 -3.22108 12.1586
191 1 -1.1104 3.85832 2.38898 12.2689
192 2 2.2208 2.44522 0.938772 7.85342
193 1 -1.1104 4.04568 -3.19639 9.34272
194 1 -1.1104 3.95982 2.45957 9.35914
195 2 2.2208 2.60844 -1.79382 10.8789
197 1 -1.1104 4.24071 -0.43993 12.3023
198 1 -1.1104 3.89061 -0.356548 9.59644
185 1 -1.1104 6.82897 -0.288573 12.0212
183 1 -1.1104 6.70003 2.31895 9.37975
341 2 2.2208 5.26449 3.79266 13.6305
333 2 2.2208 13.621 14.8803 10.8383
199 2 2.2208 -0.493123 3.61495 7.822
339 2 2.2208 2.65047 1.09551 13.5589
312 2 2.2208 -0.42987 17.7951 10.9366
178 1 -1.1104 6.75392 -3.23201 12.2159
204 2 2.2208 13.5769 14.9143 5.31609
330 1 -1.1104 12.2606 13.6567 12.2895
322 1 -1.1104 9.65424 13.6695 12.2625
182 1 -1.1104 6.75365 -3.24167 9.47042
179 1 -1.1104 6.72085 2.4607 12.3707
189 1 -1.1104 6.80367 -0.367595 9.20793
211 2 2.2208 10.8339 1.08877 10.8236
212 1 -1.1104 12.4944 -3.01389 12.3477
213 1 -1.1104 12.4034 2.44687 12.2964
214 1 -1.1104 12.4919 -3.32265 9.57834
215 1 -1.1104 12.1817 2.38058 9.43854
216 1 -1.1104 12.0933 -0.0512344 12.2742
217 2 2.2208 10.9829 -1.86388 8.0156
218 2 2.2208 10.9017 3.91084 7.96759
219 1 -1.1104 12.187 -0.541121 9.49396
220 1 -1.1104 9.64767 -3.03706 12.0935
221 1 -1.1104 9.4728 2.41535 12.0343
222 2 2.2208 8.16456 1.04293 7.96972
223 1 -1.1104 9.53412 -3.20635 9.42124
224 1 -1.1104 9.49155 2.46041 9.33934
225 2 2.2208 8.1284 -1.78915 10.7465
227 1 -1.1104 9.39342 -0.524397 12.4039
228 1 -1.1104 9.41208 -0.433938 9.26409
226 2 2.2208 8.09871 3.78392 10.7023
30 2 2.2208 -0.481472 9.43399 8.06468
352 2 2.2208 5.27256 9.47196 13.694
234 1 -1.1104 1.02414 7.9613 6.62495
239 1 -1.1104 3.84229 5.00503 6.56193
288 1 -1.1104 6.62847 19.2713 9.61511
196 2 2.2208 2.49081 3.64548 10.6209
78 1 -1.1104 3.58809 10.6203 6.88762
25 2 2.2208 -0.262373 -2.01639 2.47835
240 2 2.2208 5.35177 6.49248 10.9075
241 2 2.2208 5.13209 12.2598 10.8224
242 1 -1.1104 1.09537 7.71342 12.341
244 1 -1.1104 1.0049 7.76312 9.5795
246 1 -1.1104 1.00681 4.89683 12.0768
247 1 -1.1104 1.18322 10.7881 12.298
250 2 2.2208 5.33107 9.23243 8.07576
251 1 -1.1104 1.07796 5.12707 9.25679
252 1 -1.1104 1.03662 10.5731 9.47962
255 1 -1.1104 3.83238 7.91314 12.0591
256 2 2.2208 2.46277 6.48848 8.05036
257 2 2.2208 2.30493 12.101 8.13517
258 1 -1.1104 3.72948 7.91181 9.52262
259 2 2.2208 2.51618 9.23456 10.8791
260 1 -1.1104 3.84528 5.14231 12.3441
261 1 -1.1104 3.87599 10.7926 12.2754
262 1 -1.1104 3.99808 5.28221 9.47999
263 1 -1.1104 3.77256 10.6533 9.47906
332 2 2.2208 13.6991 17.6475 8.15727
320 2 2.2208 8.07381 17.7583 7.98032
27 2 2.2208 -0.364167 3.73767 2.24238
265 1 -1.1104 12.106 8.04596 6.53171
317 2 2.2208 7.96209 15.0928 10.8213
137 2 2.2208 -0.499126 17.7095 5.15391
249 1 -1.1104 6.69869 11.0245 12.2649
248 1 -1.1104 6.67103 5.25097 12.3659
243 1 -1.1104 6.78414 8.0359 12.1747
245 1 -1.1104 6.6603 7.89087 9.43256
253 1 -1.1104 6.80809 5.13128 9.36532
254 1 -1.1104 6.59859 10.898 9.4934
264 1 -1.1104 9.2437 10.9441 9.51623
268 1 -1.1104 9.59467 5.35462 9.28608
270 1 -1.1104 9.54346 10.99 12.2593
271 1 -1.1104 9.45247 5.32578 12.3053
272 2 2.2208 8.16042 9.50367 10.8384
273 1 -1.1104 9.48065 8.17239 9.40828
274 2 2.2208 7.92627 12.1512 8.08678
275 2 2.2208 8.05438 6.50103 7.76462
276 2 2.2208 10.8795 6.52882 10.9013
277 2 2.2208 10.9298 12.2114 10.9119
278 1 -1.1104 12.2813 7.95381 12.436
279 1 -1.1104 12.2963 7.94513 9.53648
280 1 -1.1104 12.2955 5.19676 12.3777
281 1 -1.1104 12.1708 10.8448 12.158
282 2 2.2208 10.7431 9.33208 8.03158
283 1 -1.1104 12.3238 5.10286 9.61679
284 1 -1.1104 12.124 10.6655 9.4364
285 1 -1.1104 9.50213 8.16281 12.1627
357 2 2.2208 2.3783 17.8399 13.8733
289 1 -1.1104 6.50935 16.6748 9.23819
297 1 -1.1104 6.67556 13.6675 12.1439
117 1 -1.1104 1.16072 16.3146 6.74857
323 1 -1.1104 12.3995 16.4573 9.59121
201 2 2.2208 -0.468584 0.922347 10.7069
354 2 2.2208 8.00496 6.572 13.6708
126 1 -1.1104 3.86261 18.9789 6.77798
310 2 2.2208 2.37886 15.1131 10.8107
294 1 -1.1104 0.985098 13.5378 9.59301
309 2 2.2208 2.35506 20.671 10.8204
293 2 2.2208 5.25591 20.3284 8.13038
292 1 -1.1104 0.884517 16.4006 9.57883
300 2 2.2208 5.29695 17.7419 10.8086
308 1 -1.1104 3.85315 16.3893 12.2398
299 1 -1.1104 0.990442 13.7405 12.323
307 1 -1.1104 0.843928 16.4139 12.3194
298 1 -1.1104 1.21028 19.3076 12.3961
303 2 2.2208 2.34184 17.6456 8.04637
305 1 -1.1104 3.6747 13.5904 9.51986
301 1 -1.1104 3.67184 18.8999 9.54259
295 2 2.2208 5.27243 14.9783 7.99301
304 1 -1.1104 3.67301 16.3304 9.49022
286 1 -1.1104 3.82999 19.2788 12.1699
287 1 -1.1104 3.86671 13.6842 12.3563
291 1 -1.1104 0.856187 19.2478 9.58174
296 1 -1.1104 6.80126 19.2839 12.3104
360 2 2.2208 10.8845 20.4445 13.6419
324 2 2.2208 10.952 20.6525 8.10105
325 2 2.2208 10.9393 15.1736 8.13614
306 1 -1.1104 6.63644 16.4361 12.2089
321 1 -1.1104 9.47912 19.1278 12.3972
318 1 -1.1104 9.55261 19.1641 9.45402
315 1 -1.1104 9.38909 16.4074 12.3362
154 1 -1.1104 9.28446 13.3898 6.7028
290 1 -1.1104 6.57405 13.6623 9.5117
319 1 -1.1104 9.33876 13.664 9.4739
331 2 2.2208 10.8319 17.7814 10.9609
326 1 -1.1104 12.2775 16.4358 12.4565
316 2 2.2208 8.14482 20.6238 10.8893
329 1 -1.1104 12.2952 19.231 12.0249
83 2 2.2208 -0.506877 12.0501 5.26311
82 2 2.2208 -0.467213 9.09021 2.36989
136 2 2.2208 -0.379487 20.3957 2.47772
53 2 2.2208 13.5284 12.2115 8.11084
351 2 2.2208 2.51845 6.53319 13.5899
381 2 2.2208 5.30972 12.0728 -0.559558
386 2 2.2208 10.8331 12.1323 -0.378733
353 2 2.2208 2.53077 12.2417 13.5618
373 2 2.2208 2.61544 14.9497 -0.325787
358 2 2.2208 5.24937 20.4973 13.6379
340 2 2.2208 13.7744 0.960016 13.6496
369 2 2.2208 11.1369 0.99425 -0.558062
359 2 2.2208 5.1974 15.1141 13.6484
344 2 2.2208 13.7711 15.056 -0.25992
388 2 2.2208 5.19832 0.99609 16.3966
389 1 -1.1104 1.16167 -3.22532 17.7157
390 1 -1.1104 1.02899 2.42034 17.7753
393 1 -1.1104 1.14521 -3.25437 14.9666
395 1 -1.1104 1.08566 2.24186 14.8724
401 1 -1.1104 1.12889 -0.382025 17.6654
403 2 2.2208 5.39739 -1.80697 19.229
405 1 -1.1104 1.16351 -0.512655 15.1287
409 1 -1.1104 3.89008 -3.18412 17.9728
410 1 -1.1104 3.94964 2.39623 17.7629
411 2 2.2208 2.44944 0.919135 19.4061
412 1 -1.1104 3.95947 -3.18653 15.1917
414 1 -1.1104 3.82596 2.64867 14.9796
416 2 2.2208 2.68449 -1.82254 16.4823
418 1 -1.1104 3.91221 -0.361812 17.8036
419 1 -1.1104 4.02907 -0.518813 15.0027
404 2 2.2208 5.2507 3.79743 19.2129
624 2 2.2208 -0.256391 -1.95826 24.8402
417 2 2.2208 2.41899 3.91405 16.322
406 1 -1.1104 1.0552 -0.425039 20.6256
379 2 2.2208 5.25726 6.55871 27.6255
420 1 -1.1104 3.87254 -0.446325 20.7037
396 1 -1.1104 0.975596 2.42082 20.6167
8454 2 2.2208 8.29395 -4.68523 13.594
424 2 2.2208 -0.278369 1.02539 16.4873
394 1 -1.1104 1.05314 -3.40972 20.6895
387 2 2.2208 13.7992 9.20008 27.8964
413 1 -1.1104 3.90691 -3.1256 20.6196
8553 2 2.2208 5.38978 -4.71916 22.0536
402 1 -1.1104 6.73019 -0.383022 17.7095
407 1 -1.1104 6.81171 -0.454104 14.8167
397 1 -1.1104 6.71342 -3.30487 14.973
391 1 -1.1104 6.63087 -3.28044 17.7675
399 1 -1.1104 6.50385 2.34227 15.0298
392 1 -1.1104 6.68958 2.4377 17.8378
431 2 2.2208 11.0392 0.810048 16.4355
432 1 -1.1104 12.1183 -3.3412 17.816
433 1 -1.1104 12.2418 2.35943 17.7877
434 1 -1.1104 12.0163 -3.41938 15.0346
436 1 -1.1104 12.2686 2.17036 14.9669
438 1 -1.1104 12.4251 -0.532121 17.8237
439 2 2.2208 10.8998 -1.91288 19.1642
441 1 -1.1104 12.4745 -0.628393 15.0773
443 1 -1.1104 9.47088 -3.30653 17.7634
444 1 -1.1104 9.50584 2.32711 17.8023
445 2 2.2208 8.13019 0.918636 19.2142
446 1 -1.1104 9.46735 -3.04967 14.9447
448 1 -1.1104 9.60881 2.30237 14.883
450 2 2.2208 8.16424 -1.87508 16.4237
451 2 2.2208 8.01519 3.80001 16.5379
452 1 -1.1104 9.53705 -0.686815 17.8147
453 1 -1.1104 9.56515 -0.439731 15.2377
440 2 2.2208 10.8784 3.79609 19.3377
400 1 -1.1104 6.78779 2.45568 20.5749
435 1 -1.1104 12.3581 -3.381 20.476
408 1 -1.1104 6.6432 -0.424235 20.6312
398 1 -1.1104 6.67908 -3.30291 20.4196
454 1 -1.1104 9.41172 -0.376882 20.7205
447 1 -1.1104 9.42662 -3.13448 20.5363
8517 2 2.2208 11.0531 -4.6607 21.8808
458 2 2.2208 -0.4874 20.6614 19.1182
380 2 2.2208 2.45663 9.36791 27.6602
460 2 2.2208 13.5821 20.5288 16.5918
684 2 2.2208 -0.351085 9.29439 24.9244
464 2 2.2208 5.28199 6.58673 16.4752
465 2 2.2208 5.39802 12.3269 16.3554
466 1 -1.1104 0.889478 7.93243 17.7363
468 1 -1.1104 1.09752 7.9644 14.9936
472 1 -1.1104 1.06289 5.18297 17.6429
473 1 -1.1104 1.01162 10.8148 18.0231
476 2 2.2208 5.25668 9.49811 19.2002
477 1 -1.1104 1.09467 5.18165 14.8217
479 1 -1.1104 0.926059 10.7284 15.0514
485 1 -1.1104 3.83902 7.83802 17.8368
486 2 2.2208 2.41946 6.62305 19.0497
487 2 2.2208 2.44431 12.1586 19.2121
488 1 -1.1104 3.82606 7.86611 14.9274
490 2 2.2208 2.36577 9.49326 16.3359
491 1 -1.1104 3.83408 5.18414 17.6868
492 1 -1.1104 3.71335 11.0592 17.9246
493 1 -1.1104 3.87109 5.23504 15.0195
495 1 -1.1104 3.81309 10.7815 15.0883
478 1 -1.1104 1.00626 5.28135 20.6344
469 1 -1.1104 1.04266 8.09167 20.6396
494 1 -1.1104 3.77722 5.16364 20.6209
467 1 -1.1104 6.67562 8.00902 17.7426
483 1 -1.1104 6.68232 10.9101 15.0956
8556 2 2.2208 8.1662 -4.77625 19.2346
8623 2 2.2208 -0.316753 -4.76648 16.3566
480 1 -1.1104 1.1437 10.9237 20.7271
489 1 -1.1104 3.82327 7.86117 20.5721
496 1 -1.1104 3.79569 10.6954 20.6413
475 1 -1.1104 6.49196 10.7208 17.7844
474 1 -1.1104 6.57514 5.26267 18.1348
481 1 -1.1104 6.61103 5.20704 15.2291
470 1 -1.1104 6.68513 8.19755 14.9623
500 2 2.2208 10.8185 6.5094 16.5783
501 2 2.2208 10.8845 12.0095 16.3473
502 1 -1.1104 12.1319 8.16625 17.7165
503 1 -1.1104 12.0382 7.73229 15.085
505 1 -1.1104 12.1867 5.18957 17.9022
506 1 -1.1104 12.118 10.689 17.8759
507 2 2.2208 10.8839 9.36869 19.3417
508 1 -1.1104 12.4259 4.93592 15.1432
510 1 -1.1104 12.2103 10.6178 14.9676
512 1 -1.1104 9.42705 7.88246 18.1227
513 2 2.2208 7.98492 6.50967 19.3225
514 2 2.2208 8.08869 12.2653 19.2198
515 1 -1.1104 9.45072 8.00735 15.2797
517 2 2.2208 8.04676 9.37039 16.3814
518 1 -1.1104 9.41236 5.09576 18.0776
519 1 -1.1104 9.40435 10.6859 17.8268
520 1 -1.1104 9.35308 5.06734 15.106
522 1 -1.1104 9.43455 10.6321 14.8985
516 1 -1.1104 9.32371 7.84563 20.8262
484 1 -1.1104 6.6201 10.6675 20.5557
509 1 -1.1104 12.5153 5.06062 20.4945
504 1 -1.1104 12.2447 7.71619 20.6625
471 1 -1.1104 6.56306 8.04092 20.5856
521 1 -1.1104 9.61266 5.31086 20.7895
523 1 -1.1104 9.41018 10.8444 20.5503
527 2 2.2208 5.24407 17.8188 16.525
528 1 -1.1104 1.01731 13.522 17.8992
529 1 -1.1104 1.12382 19.3536 17.9262
532 1 -1.1104 1.14573 13.4123 15.0647
534 1 -1.1104 0.807171 19.3728 15.2331
540 1 -1.1104 1.02032 16.468 17.9797
542 2 2.2208 5.33809 14.9901 19.2662
543 2 2.2208 5.19371 20.5322 19.2115
544 1 -1.1104 0.913593 16.3708 15.1554
548 1 -1.1104 3.78175 13.5647 17.8457
549 1 -1.1104 3.8759 19.2591 17.9499
550 2 2.2208 2.45032 17.8194 19.4073
551 1 -1.1104 3.8865 13.7198 15.1404
553 1 -1.1104 3.7505 19.0191 14.8604
555 2 2.2208 2.45522 15.0322 16.5416
556 2 2.2208 2.39903 20.6254 16.53
557 1 -1.1104 3.91847 16.5286 18.0827
558 1 -1.1104 3.86035 16.4813 15.1065
546 1 -1.1104 6.59612 16.3034 15.0672
530 1 -1.1104 6.71302 13.6368 17.8776
559 1 -1.1104 3.84442 16.4927 20.884
535 1 -1.1104 0.909863 19.3278 20.7472
554 1 -1.1104 3.92951 19 20.7164
533 1 -1.1104 0.926538 13.7847 20.8376
545 1 -1.1104 1.13141 16.5085 20.8524
537 1 -1.1104 6.53887 13.6179 20.644
365 2 2.2208 2.48472 -2.00746 27.7286
531 1 -1.1104 6.59584 19.2216 17.8001
538 1 -1.1104 6.54654 19.3644 15.0886
541 1 -1.1104 6.53718 16.3769 17.7649
536 1 -1.1104 6.73999 13.595 14.9005
563 2 2.2208 10.7866 17.7165 16.5082
564 1 -1.1104 12.2248 13.6198 17.9011
565 1 -1.1104 12.0929 19.1009 17.9754
566 1 -1.1104 12.3951 13.3851 15.2831
568 1 -1.1104 12.091 19.1515 15.2119
570 1 -1.1104 12.1863 16.3152 17.8545
571 2 2.2208 10.7761 15.0172 19.2596
572 2 2.2208 10.8671 20.5392 19.4339
573 1 -1.1104 12.2154 16.2758 15.1675
575 1 -1.1104 9.44012 13.7008 17.9092
576 1 -1.1104 9.33338 19.201 17.9539
577 2 2.2208 8.01253 17.8803 19.3055
578 1 -1.1104 9.48342 13.6249 15.1028
580 1 -1.1104 9.26148 19.1494 15.0406
582 2 2.2208 8.06946 14.9207 16.4701
583 2 2.2208 8.0211 20.6013 16.4611
584 1 -1.1104 9.43455 16.5764 17.7968
585 1 -1.1104 9.3495 16.4824 14.9807
586 1 -1.1104 9.49408 16.4288 20.5581
574 1 -1.1104 12.3298 16.2775 20.8409
581 1 -1.1104 9.24145 19.1705 20.7854
415 1 -1.1104 3.73448 2.44472 20.6236
8622 2 2.2208 5.39704 -4.6731 16.5514
651 2 2.2208 13.7833 6.35419 19.2707
591 2 2.2208 5.32303 1.05344 21.9776
592 1 -1.1104 1.10423 -3.36339 23.3757
593 1 -1.1104 0.996145 2.34464 23.4357
596 1 -1.1104 1.09285 -3.1888 26.2608
597 1 -1.1104 1.04479 2.22721 26.3257
600 1 -1.1104 1.04459 -0.542711 23.3746
602 2 2.2208 5.27359 -1.89086 24.7871
603 2 2.2208 5.14068 3.75827 24.7304
604 1 -1.1104 1.30586 -0.416452 26.3058
606 1 -1.1104 4.0113 -3.2562 23.4022
607 1 -1.1104 3.91894 2.55971 23.2599
608 2 2.2208 2.42679 0.916864 24.7535
609 1 -1.1104 4.04612 -3.2115 26.2224
610 1 -1.1104 3.93013 2.17947 26.1041
611 2 2.2208 2.51625 -2.00674 22.086
613 1 -1.1104 3.96714 -0.357854 23.4892
614 1 -1.1104 3.90108 -0.526341 26.1354
612 2 2.2208 2.4303 3.879 21.9242
619 2 2.2208 13.703 14.9234 16.5317
526 2 2.2208 10.8322 20.5502 24.9515
561 1 -1.1104 9.5127 13.4707 23.4648
617 1 -1.1104 9.53574 16.3642 23.5701
462 2 2.2208 10.8427 17.5823 22.1354
646 2 2.2208 -0.344736 14.9586 24.9823
442 1 -1.1104 12.2217 -0.654549 20.5072
384 2 2.2208 10.993 6.49058 27.7199
601 1 -1.1104 6.73978 -0.401567 23.3839
605 1 -1.1104 6.71762 -0.547419 26.1481
599 1 -1.1104 6.76388 2.30709 26.1614
590 1 -1.1104 9.59037 19.2816 26.4454
449 1 -1.1104 9.54203 2.37811 20.7399
456 2 2.2208 -0.425199 17.9791 16.5473
437 1 -1.1104 12.3236 2.07603 20.4657
598 1 -1.1104 6.92798 -3.24268 26.3193
594 1 -1.1104 6.77455 -3.11138 23.4097
595 1 -1.1104 6.79165 2.46408 23.4598
627 2 2.2208 11.0477 0.962009 22.1288
628 1 -1.1104 12.1138 -3.14927 23.3395
629 1 -1.1104 12.5429 2.34145 23.4641
630 1 -1.1104 12.5258 -3.13626 26.2724
631 1 -1.1104 12.4127 2.41648 26.3392
632 1 -1.1104 12.3924 -0.275524 23.4749
633 2 2.2208 10.9442 -1.80174 24.9406
635 1 -1.1104 12.3664 -0.558708 26.1975
636 1 -1.1104 9.43155 -3.54606 23.5295
637 1 -1.1104 9.49585 2.21671 23.5833
638 2 2.2208 8.15693 0.921856 24.8105
639 1 -1.1104 9.56413 -3.33982 26.3189
640 1 -1.1104 9.64937 2.42993 26.2451
641 2 2.2208 8.05875 -1.88851 22.0427
643 1 -1.1104 9.82702 -0.523777 23.4374
644 1 -1.1104 9.53519 -0.456991 26.3457
634 2 2.2208 11.1179 3.77321 24.931
642 2 2.2208 8.15097 3.78105 22.1664
714 1 -1.1104 6.72329 16.2146 26.3161
375 2 2.2208 2.53192 20.4996 27.7122
497 1 -1.1104 12.0478 19.0978 23.5305
498 1 -1.1104 12.225 13.4722 26.4318
625 2 2.2208 -0.288766 0.761705 22.0798
524 1 -1.1104 12.3357 16.1852 23.553
370 2 2.2208 8.18933 -1.94973 27.5409
656 2 2.2208 5.17201 6.58632 21.9522
657 2 2.2208 5.23904 12.1318 21.8903
658 1 -1.1104 1.14629 7.86707 23.5293
660 1 -1.1104 1.16584 7.77718 26.2848
662 1 -1.1104 1.04055 5.10416 23.3902
663 1 -1.1104 1.13962 10.67 23.579
666 2 2.2208 5.26279 9.31861 24.8267
667 1 -1.1104 0.967705 4.90622 26.2698
668 1 -1.1104 0.970595 10.7568 26.2618
671 1 -1.1104 3.95196 7.95387 23.3688
672 2 2.2208 2.38531 6.41021 24.7717
673 2 2.2208 2.57449 12.3287 24.9372
674 1 -1.1104 3.84187 8.09653 26.1588
675 2 2.2208 2.54847 9.29435 22.059
676 1 -1.1104 4.0379 5.33357 23.3437
677 1 -1.1104 4.09178 10.8594 23.4568
678 1 -1.1104 3.68402 5.1954 26.2406
679 1 -1.1104 3.87158 10.9079 26.2963
664 1 -1.1104 6.86003 5.11514 23.4677
560 1 -1.1104 12.0105 16.3279 26.3772
622 2 2.2208 -0.370728 9.34499 19.1189
511 1 -1.1104 12.2473 10.7051 20.6631
669 1 -1.1104 6.58156 5.10244 26.1141
661 1 -1.1104 6.89272 7.99987 26.3208
382 2 2.2208 -0.391577 12.1775 27.7747
670 1 -1.1104 6.5622 10.637 26.3844
659 1 -1.1104 6.76653 7.99811 23.5548
482 1 -1.1104 6.75335 5.10707 20.7061
665 1 -1.1104 6.714 10.8599 23.4129
687 1 -1.1104 9.32944 10.9248 26.3685
688 1 -1.1104 9.40298 5.26378 26.2064
689 1 -1.1104 9.42896 10.7113 23.5373
690 1 -1.1104 9.62453 5.2052 23.5774
691 2 2.2208 8.00601 9.42383 22.1182
692 1 -1.1104 9.61294 8.12356 26.5749
693 2 2.2208 8.09193 12.1645 24.811
694 2 2.2208 8.06426 6.61795 24.8982
695 2 2.2208 10.821 6.62295 22.0958
696 2 2.2208 10.8996 12.1132 22.1312
697 1 -1.1104 12.4194 8.0967 23.6316
698 1 -1.1104 12.4848 7.80785 26.4221
699 1 -1.1104 12.3103 5.14548 23.2628
700 1 -1.1104 12.2976 10.8355 23.7202
701 2 2.2208 10.9843 9.38059 25.098
702 1 -1.1104 12.5119 5.25343 26.1837
703 1 -1.1104 12.367 10.7487 26.5031
704 1 -1.1104 9.52001 8.13838 23.6849
626 2 2.2208 -0.394026 3.62279 24.9381
615 2 2.2208 8.02067 15.0334 22.0688
567 1 -1.1104 12.2613 13.3073 20.6431
539 1 -1.1104 6.60256 19.2603 20.7145
421 2 2.2208 -0.332136 6.60291 22.1653
562 1 -1.1104 9.49035 18.8982 23.5068
588 1 -1.1104 6.81123 19.2168 26.307
552 1 -1.1104 3.7514 13.5224 20.6687
720 2 2.2208 5.2794 14.9264 24.9814
719 2 2.2208 5.32272 20.5881 24.8946
717 1 -1.1104 1.07961 13.3688 26.3317
647 2 2.2208 2.52869 15.0612 22.0763
649 2 2.2208 2.31792 20.4782 22.2133
652 1 -1.1104 3.92884 16.4005 23.6945
655 1 -1.1104 1.07085 16.3642 23.6365
681 1 -1.1104 4.0614 13.5052 26.3408
682 1 -1.1104 3.98846 16.5564 26.4922
683 2 2.2208 2.40783 17.7655 25.0456
686 1 -1.1104 4.08746 19.1889 26.4483
705 2 2.2208 5.34974 17.8092 22.1902
706 1 -1.1104 1.15768 13.5706 23.468
707 1 -1.1104 1.17833 19.1553 23.738
711 1 -1.1104 3.99178 19.1219 23.5124
713 1 -1.1104 3.8673 13.5648 23.4516
715 1 -1.1104 1.15977 18.9521 26.5576
716 1 -1.1104 1.11181 16.1022 26.2411
712 1 -1.1104 6.71861 13.4935 26.2966
709 1 -1.1104 6.75597 13.6299 23.6047
680 1 -1.1104 6.69356 16.3781 23.4936
525 2 2.2208 10.8311 14.8571 24.9302
385 2 2.2208 7.994 9.41546 27.8457
499 1 -1.1104 12.3338 19.1196 26.3053
569 1 -1.1104 12.1087 18.9384 20.6703
616 2 2.2208 7.97049 20.6216 22.0113
718 1 -1.1104 6.7328 19.4989 23.6374
620 1 -1.1104 9.4581 16.4139 26.4334
463 1 -1.1104 12.2804 13.5205 23.6961
587 2 2.2208 8.11115 17.7451 25.0316
589 1 -1.1104 9.37693 13.5731 26.3196
579 1 -1.1104 9.41262 13.6451 20.7135
547 1 -1.1104 6.77055 16.3076 20.4485
374 2 2.2208 5.20121 17.7753 27.8616
455 2 2.2208 13.6027 17.7388 24.8203
457 2 2.2208 -0.500144 15.0545 19.3483
366 2 2.2208 2.54168 3.46684 27.7078
650 2 2.2208 13.8349 11.9968 19.1768
430 2 2.2208 13.674 14.7581 22.0222
425 2 2.2208 -0.254781 -1.89546 19.0502
372 2 2.2208 8.10854 3.73721 27.4311
338 2 2.2208 5.4023 -1.95778 13.5665
364 2 2.2208 5.37651 0.913178 27.4785
356 2 2.2208 8.12642 12.3657 13.5267
347 2 2.2208 8.18281 14.9659 27.8617
349 2 2.2208 7.98566 20.6471 27.787
346 2 2.2208 11.0054 -1.78806 13.6638
362 2 2.2208 8.0289 17.7693 13.6305
336 2 2.2208 13.7584 6.47414 13.6874
343 2 2.2208 8.16167 0.969085 13.6468
350 2 2.2208 10.878 3.69191 13.6197
348 2 2.2208 10.744 17.8953 27.8485
342 2 2.2208 -0.514053 15.0849 13.6487
345 2 2.2208 13.5965 20.5486 27.7235
721 2 2.2208 5.13529 23.2404 5.20323
722 2 2.2208 5.29668 28.9117 5.09943
723 1 -1.1104 0.925836 24.6293 0.913369
724 1 -1.1104 1.10417 24.6188 3.89335
725 1 -1.1104 1.03642 21.8332 0.971782
726 1 -1.1104 1.01271 27.3747 1.09819
727 2 2.2208 5.14827 26.0895 2.30091
728 1 -1.1104 0.991988 21.8923 3.77918
729 1 -1.1104 0.948394 27.5484 3.92915
730 1 -1.1104 3.87512 24.6128 0.92727
731 2 2.2208 2.35727 23.2824 2.40524
732 2 2.2208 2.32588 28.7987 2.33287
733 1 -1.1104 3.92424 24.5783 3.6274
734 2 2.2208 2.51362 25.9677 5.17365
735 1 -1.1104 3.71201 21.8312 1.0235
736 1 -1.1104 3.71209 27.3224 0.850673
737 1 -1.1104 3.73539 21.7515 3.77529
738 1 -1.1104 3.83696 27.5626 3.89635
870 1 -1.1104 3.76897 27.4312 6.53558
869 1 -1.1104 3.81045 21.8754 6.57347
868 1 -1.1104 3.83232 24.6901 6.38228
742 1 -1.1104 6.69187 24.9198 1.13552
743 1 -1.1104 6.68789 24.7194 3.81052
746 1 -1.1104 6.36868 21.8926 3.73889
1074 2 2.2208 2.28187 45.7429 13.6592
864 1 -1.1104 1.00852 21.9805 6.56767
865 1 -1.1104 0.966565 27.3824 6.59378
866 1 -1.1104 6.609 21.9065 6.47981
863 1 -1.1104 6.52682 24.5977 6.75202
1052 2 2.2208 13.6184 40.2059 7.93861
1071 2 2.2208 5.13057 42.8873 13.5635
745 1 -1.1104 6.74467 27.6433 1.15414
744 1 -1.1104 6.60802 21.8763 0.975444
747 1 -1.1104 6.7213 27.7025 3.80758
748 2 2.2208 10.9607 23.2283 5.41692
749 2 2.2208 10.8101 28.9717 5.19992
750 1 -1.1104 12.2431 24.489 0.919378
751 1 -1.1104 12.3417 24.7357 3.80785
752 1 -1.1104 12.1327 21.8702 1.10738
753 1 -1.1104 12.1514 27.7178 1.06683
754 2 2.2208 10.8515 26.1917 2.50875
755 1 -1.1104 12.2492 21.9811 3.84386
756 1 -1.1104 12.1906 27.5013 3.89076
757 1 -1.1104 9.44576 24.8693 0.933467
758 2 2.2208 7.96566 23.3027 2.53156
759 2 2.2208 8.18635 29.098 2.35718
760 1 -1.1104 9.40113 24.7712 3.85932
761 2 2.2208 8.05446 26.1056 5.23634
762 1 -1.1104 9.47638 22.0523 0.935304
763 1 -1.1104 9.53735 27.5953 0.887052
764 1 -1.1104 9.36699 21.8513 3.89675
765 1 -1.1104 9.4393 27.5238 3.82453
895 1 -1.1104 12.1148 24.7122 6.8275
899 1 -1.1104 9.56761 21.993 6.70768
867 1 -1.1104 6.62676 27.5017 6.78244
1687 1 -1.1104 9.35038 47.2177 12.2598
1093 2 2.2208 10.9686 29.0394 -0.522132
769 2 2.2208 5.2062 34.4056 5.0798
770 1 -1.1104 1.16265 30.1912 0.955555
771 1 -1.1104 0.806571 35.9236 0.830498
773 1 -1.1104 0.973838 30.223 3.71439
774 1 -1.1104 0.968422 36.0373 3.77727
776 1 -1.1104 1.009 32.9785 0.918184
777 2 2.2208 5.23927 31.711 2.29899
778 2 2.2208 5.13868 37.4292 2.28062
779 1 -1.1104 0.712971 33.261 3.63942
781 1 -1.1104 3.88423 30.1784 0.969743
782 1 -1.1104 3.69478 35.943 0.949825
783 2 2.2208 2.34218 34.4625 2.34858
784 1 -1.1104 3.61106 30.3415 3.67757
785 1 -1.1104 3.86228 35.946 3.63465
786 2 2.2208 2.26862 31.7124 5.12268
787 2 2.2208 2.40141 37.5037 5.05048
788 1 -1.1104 3.80909 33.1798 0.849327
789 1 -1.1104 3.57785 33.163 3.74485
927 1 -1.1104 3.69814 33.0366 6.55028
780 1 -1.1104 6.57631 33.2044 3.92901
926 1 -1.1104 3.73918 35.8737 6.59445
775 1 -1.1104 6.77624 35.9447 3.73052
920 1 -1.1104 0.936803 35.9448 6.59389
923 1 -1.1104 0.920501 33.0647 6.60599
772 1 -1.1104 6.63105 36.0693 1.03928
922 1 -1.1104 6.37874 35.9694 6.54055
1057 2 2.2208 10.8318 26.3231 13.7601
919 1 -1.1104 0.84783 30.304 6.59318
925 1 -1.1104 3.87899 30.332 6.67611
1026 1 -1.1104 12.2521 38.7829 12.178
793 1 -1.1104 6.68608 30.5912 0.970655
794 1 -1.1104 6.82672 30.4858 3.81388
921 1 -1.1104 6.6243 30.2887 6.56411
795 1 -1.1104 6.6516 33.2688 1.04945
796 2 2.2208 10.7734 34.786 5.04266
797 1 -1.1104 12.2107 30.5862 0.962766
798 1 -1.1104 12.4441 36.1648 0.957105
799 1 -1.1104 12.3366 30.4708 3.76727
800 1 -1.1104 12.2238 36.1844 3.75932
801 1 -1.1104 12.2587 33.3013 0.979695
802 2 2.2208 10.9442 31.9634 2.39516
803 2 2.2208 10.8894 37.5573 2.32975