ITEM: TIMESTEP
80000
ITEM: NUMBER OF ATOMS
17910
ITEM: BOX BOUNDS pp pp pp
-3.9980831929149924e-01 2.7739808319291974e+01
-4.7596426993582535e+00 3.3283964269936195e+02
-3.9362877394211182e-01 2.7733628773940993e+01
ITEM: ATOMS id type q x y z
1 2 2.2208 5.07132 0.910294 5.21287
2 1 -1.1104 0.733145 -3.2776 1.08077
3 1 -1.1104 0.82696 2.22968 1.08834
6 1 -1.1104 1.04459 -3.37039 3.9044
7 1 -1.1104 1.00713 2.32086 3.81736
10 1 -1.1104 0.743029 -0.538128 1.04251
12 2 2.2208 5.0595 -1.82764 2.48865
14 1 -1.1104 1.02186 -0.535522 3.93017
16 1 -1.1104 3.57589 -3.3142 0.841815
17 1 -1.1104 3.57911 2.28619 0.935095
18 2 2.2208 2.30813 0.755961 2.55351
19 1 -1.1104 3.8876 -3.27812 3.85828
20 1 -1.1104 3.59727 2.40087 3.72211
21 2 2.2208 2.3402 -2.01046 5.36888
22 2 2.2208 2.19444 3.65046 5.32662
23 1 -1.1104 3.54908 -0.47662 0.987419
24 1 -1.1104 3.71865 -0.515269 3.8608
13 2 2.2208 5.05662 3.65529 2.45801
4 1 -1.1104 6.39874 -3.37879 0.971046
8 1 -1.1104 6.7156 -3.30413 3.73318
5 1 -1.1104 6.47048 2.24132 1.01188
9 1 -1.1104 6.31852 2.21502 3.84164
11 1 -1.1104 6.40402 -0.428504 1.1485
15 1 -1.1104 6.45163 -0.523222 3.90604
8438 2 2.2208 5.13306 -4.73357 11.0651
378 2 2.2208 13.5495 3.70165 -0.364825
230 2 2.2208 13.4694 -1.85433 10.7874
233 2 2.2208 13.4603 3.67658 5.10464
31 2 2.2208 10.556 0.820498 5.0859
32 1 -1.1104 12.22 -3.3373 1.03039
33 1 -1.1104 12.0506 2.13337 1.06357
34 1 -1.1104 12.2636 -3.46999 3.86456
35 1 -1.1104 11.9492 2.35374 3.7758
36 1 -1.1104 12.2294 -0.638288 0.891243
37 2 2.2208 10.7743 -1.90539 2.28307
39 1 -1.1104 12.1174 -0.476702 3.6567
40 1 -1.1104 9.37899 -3.31765 0.842484
41 1 -1.1104 9.28464 2.40837 0.952372
42 2 2.2208 7.67244 1.01199 2.47361
43 1 -1.1104 9.52449 -3.40604 3.77637
44 1 -1.1104 9.06112 2.29718 3.74282
45 2 2.2208 7.95829 -2.07163 5.15631
47 1 -1.1104 9.21884 -0.445984 0.961026
48 1 -1.1104 9.33184 -0.610783 3.71662
38 2 2.2208 10.6261 3.68186 2.48752
46 2 2.2208 7.89122 3.70685 5.33042
49 2 2.2208 13.5179 0.847663 2.45462
385 2 2.2208 7.88206 9.35332 -0.304063
205 1 -1.1104 12.1184 -3.37572 6.64265
8442 2 2.2208 13.4972 -4.83143 7.85714
322 1 -1.1104 9.06152 13.5624 12.4073
231 2 2.2208 13.5721 20.5508 5.43851
327 1 -1.1104 12.0638 19.0952 9.52272
209 1 -1.1104 9.22724 2.1912 6.67388
375 2 2.2208 2.32089 20.5436 -0.273574
54 2 2.2208 5.12607 6.33445 5.19392
55 2 2.2208 5.19683 12.0372 5.2079
56 1 -1.1104 0.898815 7.69674 1.05349
58 1 -1.1104 0.862176 7.94097 3.73369
60 1 -1.1104 1.10099 4.89069 1.03589
61 1 -1.1104 0.901164 10.596 1.02626
66 2 2.2208 5.271 9.18774 2.44475
67 1 -1.1104 0.96433 5.10148 3.85937
68 1 -1.1104 0.965782 10.7424 3.57632
71 1 -1.1104 3.79081 7.83215 0.930613
72 2 2.2208 2.31262 6.46317 2.36009
73 2 2.2208 2.38352 12.0901 2.5291
74 1 -1.1104 3.71666 7.76961 3.68347
75 2 2.2208 2.34821 9.30836 5.09125
76 1 -1.1104 3.74523 5.003 1.0679
77 1 -1.1104 3.96521 10.6902 1.03293
79 1 -1.1104 3.74209 5.05323 3.87042
80 1 -1.1104 3.93211 10.5047 3.76269
63 1 -1.1104 6.54179 5.04477 0.980929
64 1 -1.1104 6.64603 10.6978 1.20442
59 1 -1.1104 6.54377 7.87349 3.99475
70 1 -1.1104 6.79384 10.5952 3.97331
69 1 -1.1104 6.63539 5.00388 3.81479
57 1 -1.1104 6.37523 7.7691 1.23522
234 1 -1.1104 0.746938 8.06512 6.71183
236 1 -1.1104 0.889668 5.15936 6.61282
78 1 -1.1104 3.69524 10.763 6.49099
379 2 2.2208 5.1458 6.43322 -0.366692
374 2 2.2208 5.09536 17.8738 -0.299968
232 2 2.2208 13.5858 9.32653 5.54247
84 2 2.2208 10.6433 6.54703 5.31518
85 2 2.2208 10.7911 12.1568 5.26625
86 1 -1.1104 12.1128 8.0284 1.15651
87 1 -1.1104 12.1968 7.70184 3.91182
88 1 -1.1104 12.1986 5.16363 1.2325
89 1 -1.1104 12.0039 10.7757 0.9792
91 2 2.2208 10.7906 9.35318 2.44553
92 1 -1.1104 12.0094 5.09058 3.84706
93 1 -1.1104 12.2793 10.7217 4.00772
94 1 -1.1104 9.21805 8.06168 1.18785
95 2 2.2208 7.99146 6.48861 2.51097
96 2 2.2208 8.00555 12.1688 2.48227
97 1 -1.1104 9.44724 7.94041 4.06801
98 2 2.2208 7.92958 9.30266 5.32633
99 1 -1.1104 9.35244 5.12743 1.16504
100 1 -1.1104 9.35808 10.8175 0.960032
102 1 -1.1104 9.31689 5.12737 3.88104
103 1 -1.1104 9.5225 10.7978 3.80676
105 2 2.2208 13.6193 6.40595 2.44077
104 2 2.2208 13.4192 12.0624 2.62155
267 1 -1.1104 9.37373 7.83806 6.93464
90 1 -1.1104 11.9915 10.7769 6.66972
266 1 -1.1104 12.2293 5.09839 6.53356
345 2 2.2208 13.5773 20.7091 -0.305505
229 2 2.2208 13.5323 0.776212 7.9788
106 2 2.2208 5.14494 17.8214 5.30377
107 1 -1.1104 0.78258 13.3705 1.18925
109 1 -1.1104 0.965341 18.9793 1.13483
113 1 -1.1104 0.964975 13.3222 4.05047
114 1 -1.1104 0.907923 18.9872 3.91748
116 1 -1.1104 0.864395 16.257 1.02584
119 2 2.2208 5.13016 14.9144 2.46807
120 2 2.2208 5.06527 20.5546 2.55249
121 1 -1.1104 0.854874 16.1067 3.96626
123 1 -1.1104 3.64203 13.4916 1.02338
125 1 -1.1104 3.81888 19.0408 1.26497
127 2 2.2208 2.37338 17.6243 2.41471
128 1 -1.1104 3.76322 13.3726 3.87412
129 1 -1.1104 3.74877 19.0152 3.79988
130 2 2.2208 2.33135 14.8265 5.13957
131 2 2.2208 2.29559 20.4619 5.28487
132 1 -1.1104 3.75714 16.2021 0.997335
134 1 -1.1104 3.74776 16.2311 3.85914
139 1 -1.1104 6.54805 19.1391 3.82622
115 1 -1.1104 6.48891 13.5503 3.81529
138 1 -1.1104 6.57439 19.2267 1.06226
111 1 -1.1104 6.54383 13.4913 6.62323
140 1 -1.1104 6.53058 16.3924 1.01399
110 1 -1.1104 6.35397 13.54 1.02878
112 1 -1.1104 6.53389 19.1016 6.68102
133 1 -1.1104 3.62114 16.3609 6.6008
302 1 -1.1104 0.871389 19.1495 6.63842
341 2 2.2208 5.1925 3.54922 13.7062
204 2 2.2208 13.4499 14.8488 5.39425
8436 2 2.2208 13.6896 -4.73361 2.31292
145 1 -1.1104 12.2516 19.177 6.90843
165 2 2.2208 13.4399 17.6963 2.52602
122 1 -1.1104 6.48773 16.5132 3.86945
141 2 2.2208 10.8075 17.8135 5.28092
142 1 -1.1104 12.1191 13.5878 1.20474
144 1 -1.1104 12.0423 19.3557 0.991472
146 1 -1.1104 12.1098 13.5598 3.79935
147 1 -1.1104 12.0108 19.0194 3.74886
148 1 -1.1104 12.0116 16.5828 1.21928
150 2 2.2208 10.6675 15.0336 2.57891
151 2 2.2208 10.7153 20.5651 2.42386
152 1 -1.1104 12.0829 16.2166 4.06198
153 1 -1.1104 9.23245 13.7863 1.24289
155 1 -1.1104 9.43619 19.1279 1.20907
157 2 2.2208 7.93104 17.7395 2.38222
158 1 -1.1104 9.43131 13.6316 3.94591
159 1 -1.1104 9.28123 19.1504 3.89347
160 2 2.2208 7.83371 15.0423 5.22372
161 2 2.2208 8.0172 20.4841 5.40723
162 1 -1.1104 9.39899 16.3946 0.987747
164 1 -1.1104 9.21591 16.3621 3.93638
143 1 -1.1104 12.1796 13.5265 6.57175
156 1 -1.1104 9.46999 18.9338 6.73909
154 1 -1.1104 9.44766 13.4538 6.68508
53 2 2.2208 13.3646 12.2012 8.24692
169 1 -1.1104 6.43102 2.03073 6.80036
171 1 -1.1104 6.71342 -0.748527 6.68072
170 1 -1.1104 0.983096 -0.788938 6.57267
173 1 -1.1104 3.67618 2.23884 6.74724
168 1 -1.1104 6.43008 -3.43434 6.65153
166 1 -1.1104 0.945382 -3.41594 6.83672
167 1 -1.1104 0.897504 2.17536 6.69845
172 1 -1.1104 3.83273 -3.45539 6.66804
174 1 -1.1104 3.92557 -0.629948 6.79197
175 2 2.2208 5.26784 0.732704 10.9523
176 1 -1.1104 1.06681 -3.50276 12.4397
177 1 -1.1104 1.22919 2.26016 12.2122
180 1 -1.1104 1.13173 -3.21899 9.65891
181 1 -1.1104 0.755481 2.29186 9.30347
184 1 -1.1104 0.899931 -0.594445 12.3453
186 2 2.2208 5.10538 -1.99667 8.17807
187 2 2.2208 5.14452 3.60344 8.10029
188 1 -1.1104 0.931805 -0.530682 9.31809
190 1 -1.1104 3.84896 -3.30397 12.3664
191 1 -1.1104 3.7789 2.26925 12.2661
192 2 2.2208 2.38233 0.741525 8.01366
193 1 -1.1104 3.76752 -3.17339 9.65267
194 1 -1.1104 3.57887 2.23243 9.32415
195 2 2.2208 2.33891 -1.86051 11.0133
197 1 -1.1104 3.83783 -0.577144 12.4022
198 1 -1.1104 3.79731 -0.374619 9.63957
196 2 2.2208 2.40695 3.59434 10.8471
182 1 -1.1104 6.44642 -3.36801 9.43658
178 1 -1.1104 6.5633 -3.33337 12.3095
183 1 -1.1104 6.48037 2.26447 9.55231
185 1 -1.1104 6.66119 -0.692236 12.2276
179 1 -1.1104 6.58914 2.23055 12.3141
189 1 -1.1104 6.57969 -0.519345 9.41296
329 1 -1.1104 12.032 19.1532 12.4698
206 1 -1.1104 12.1039 2.09058 6.57206
207 1 -1.1104 12.074 -0.668176 6.43807
208 1 -1.1104 9.33102 -3.2983 6.64508
384 2 2.2208 10.7564 6.55621 -0.25207
203 2 2.2208 13.6206 3.61413 10.7909
163 1 -1.1104 9.1077 16.4018 6.58877
210 1 -1.1104 9.33916 -0.607172 6.57646
369 2 2.2208 10.6457 0.986072 -0.420135
211 2 2.2208 10.8632 0.896031 10.8915
212 1 -1.1104 12.2077 -3.41536 12.2308
213 1 -1.1104 12.1747 2.26285 12.4091
214 1 -1.1104 12.1089 -3.4653 9.43912
215 1 -1.1104 12.2951 2.45439 9.47199
216 1 -1.1104 12.2853 -0.451648 12.2142
217 2 2.2208 10.7052 -1.98858 8.01364
218 2 2.2208 10.8091 3.68182 8.01047
219 1 -1.1104 12.0363 -0.500853 9.50804
220 1 -1.1104 9.29056 -3.39647 12.145
221 1 -1.1104 9.55374 2.43158 12.3178
222 2 2.2208 8.01541 0.799606 8.09733
223 1 -1.1104 9.30175 -3.20867 9.22993
224 1 -1.1104 9.48392 2.25257 9.46613
225 2 2.2208 8.04228 -2.13745 10.8298
227 1 -1.1104 9.45752 -0.443939 12.1502
228 1 -1.1104 9.33259 -0.60818 9.47064
226 2 2.2208 7.98781 3.6723 10.934
238 1 -1.1104 3.63544 7.83673 6.69869
237 1 -1.1104 6.4738 5.02859 6.61055
62 1 -1.1104 0.795889 10.769 6.4947
331 2 2.2208 10.6755 17.6763 10.9949
239 1 -1.1104 3.72402 5.04168 6.70799
65 1 -1.1104 6.51319 10.7442 6.73657
235 1 -1.1104 6.47356 7.88777 6.88939
240 2 2.2208 5.00625 6.46545 10.8399
241 2 2.2208 5.01987 12.1799 10.7817
242 1 -1.1104 1.03114 7.98142 12.3795
244 1 -1.1104 0.793909 7.9638 9.57387
246 1 -1.1104 0.713526 4.97756 12.3204
247 1 -1.1104 0.864649 10.7165 12.081
250 2 2.2208 5.14442 9.27338 8.08472
251 1 -1.1104 0.897607 5.22082 9.52227
252 1 -1.1104 0.78732 10.8144 9.32645
255 1 -1.1104 3.65267 7.95627 12.2535
256 2 2.2208 2.33037 6.48967 8.11347
257 2 2.2208 2.32025 12.0726 7.85768
258 1 -1.1104 3.79638 7.87587 9.51107
259 2 2.2208 2.3123 9.34632 10.7366
260 1 -1.1104 3.7001 5.02835 12.1658
261 1 -1.1104 3.71459 10.6883 12.1354
262 1 -1.1104 3.6726 4.99357 9.37588
263 1 -1.1104 3.61096 10.6221 9.36109
254 1 -1.1104 6.44609 10.8854 9.58253
248 1 -1.1104 6.61058 4.93986 12.282
253 1 -1.1104 6.52284 5.11663 9.50099
245 1 -1.1104 6.60364 7.99643 9.40497
249 1 -1.1104 6.44046 10.7714 12.3181
243 1 -1.1104 6.45169 7.9193 12.3597
314 1 -1.1104 9.1069 16.4759 9.46317
387 2 2.2208 13.4921 9.3414 -0.215569
265 1 -1.1104 12.1207 8.14332 6.69298
202 2 2.2208 13.7091 6.49348 7.87802
101 1 -1.1104 9.17609 10.7202 6.44109
269 1 -1.1104 9.2816 4.99764 6.79707
316 2 2.2208 7.86276 20.4405 10.6913
264 1 -1.1104 9.16224 10.537 9.37898
268 1 -1.1104 9.35634 5.03117 9.61338
270 1 -1.1104 9.24658 10.7193 12.3063
271 1 -1.1104 9.43178 5.243 12.2799
272 2 2.2208 7.89914 9.18756 10.8736
273 1 -1.1104 9.31965 7.86468 9.70051
274 2 2.2208 7.93451 12.0387 8.1094
275 2 2.2208 7.90404 6.36259 8.06735
276 2 2.2208 10.7585 6.44668 10.754
277 2 2.2208 10.6697 12.1053 11.1224
278 1 -1.1104 12.0502 7.85045 12.1514
279 1 -1.1104 11.9669 7.90167 9.42428
280 1 -1.1104 12.1534 4.97517 12.3609
281 1 -1.1104 11.944 10.57 12.3471
282 2 2.2208 10.5305 9.2946 8.16633
283 1 -1.1104 12.2348 5.20296 9.35084
284 1 -1.1104 12.0648 10.7977 9.53071
285 1 -1.1104 9.28169 7.90094 12.4671
52 2 2.2208 13.4969 9.25766 10.8205
330 1 -1.1104 11.936 13.5556 12.3403
108 1 -1.1104 0.882819 13.4572 6.6417
296 1 -1.1104 6.3596 19.1731 12.1781
124 1 -1.1104 3.70085 13.4001 6.66879
118 1 -1.1104 6.38571 16.4636 6.71942
290 1 -1.1104 6.59533 13.7526 9.5131
297 1 -1.1104 6.36495 13.6961 12.2354
288 1 -1.1104 6.47699 19.1522 9.376
117 1 -1.1104 0.816946 16.2983 6.55366
126 1 -1.1104 3.78795 19.1724 6.77772
289 1 -1.1104 6.40566 16.3573 9.37394
310 2 2.2208 2.36109 14.9161 10.7576
294 1 -1.1104 0.956748 13.6908 9.42887
309 2 2.2208 2.30176 20.6607 10.905
293 2 2.2208 5.05221 20.6141 8.09118
292 1 -1.1104 1.02277 16.5077 9.34027
300 2 2.2208 5.16425 17.7347 10.8824
308 1 -1.1104 3.6561 16.3177 12.3466
299 1 -1.1104 0.882203 13.5381 12.0731
307 1 -1.1104 0.912012 16.353 12.1741
298 1 -1.1104 1.01824 19.0247 12.3526
303 2 2.2208 2.47724 17.842 8.09151
305 1 -1.1104 3.61299 13.3724 9.37983
301 1 -1.1104 3.69612 19.0775 9.63972
295 2 2.2208 5.05445 14.974 8.04176
304 1 -1.1104 3.76583 16.2655 9.42146
286 1 -1.1104 3.61011 19.2445 12.4276
287 1 -1.1104 3.73004 13.4396 12.1839
291 1 -1.1104 1.02993 19.2933 9.56658
306 1 -1.1104 6.60586 16.4358 12.3251
319 1 -1.1104 9.25234 13.4565 9.68342
324 2 2.2208 10.6339 20.5267 8.12629
28 2 2.2208 13.4781 20.6041 10.9846
323 1 -1.1104 12.1979 16.3611 9.72264
315 1 -1.1104 9.29416 16.2464 12.3388
321 1 -1.1104 9.3138 19.1691 12.2419
326 1 -1.1104 12.0551 16.1509 12.3246
318 1 -1.1104 9.37282 19.1811 9.53196
317 2 2.2208 7.82268 15.0976 10.8599
149 1 -1.1104 11.9391 16.3959 6.94397
325 2 2.2208 10.5606 15.0635 8.27217
320 2 2.2208 7.84073 17.7916 8.12479
333 2 2.2208 13.6365 14.853 10.9691
328 1 -1.1104 12.1032 13.5331 9.61205
332 2 2.2208 13.5003 17.6646 8.38295
380 2 2.2208 2.456 9.2176 -0.268004
365 2 2.2208 2.2619 -1.84427 -0.25603
8450 2 2.2208 5.04737 -4.69495 -0.510188
348 2 2.2208 10.7786 17.6466 -0.414072
343 2 2.2208 8.14731 0.752904 13.6443
386 2 2.2208 10.5757 12.3023 -0.259299
373 2 2.2208 2.30677 14.864 -0.292585
8453 2 2.2208 13.5307 -4.77436 13.7684
350 2 2.2208 10.726 3.70951 13.6412
338 2 2.2208 5.17398 -1.92038 13.8497
358 2 2.2208 5.00101 20.5022 13.7432
351 2 2.2208 2.27816 6.39589 13.7094
356 2 2.2208 7.76759 12.0388 13.6638
352 2 2.2208 4.96488 9.47844 13.6087
8446 2 2.2208 10.4996 -4.71365 -0.465724
364 2 2.2208 5.02019 0.906796 -0.409359
388 2 2.2208 5.1372 0.869643 16.6043
389 1 -1.1104 1.01354 -3.36594 17.8143
390 1 -1.1104 1.01574 2.35423 18.09
393 1 -1.1104 0.863706 -3.28879 15.0626
395 1 -1.1104 0.923499 2.30646 15.0843
401 1 -1.1104 0.895503 -0.447646 17.8186
403 2 2.2208 5.16712 -2.02636 19.2664
405 1 -1.1104 0.930117 -0.536148 14.9969
409 1 -1.1104 3.84621 -3.3117 17.8546
410 1 -1.1104 3.75469 2.31948 17.7608
411 2 2.2208 2.40265 0.975556 19.3569
412 1 -1.1104 3.61178 -3.47587 15.0925
414 1 -1.1104 3.73723 2.32842 15.1103
416 2 2.2208 2.31931 -1.86878 16.4167
418 1 -1.1104 3.73076 -0.357157 18.1395
419 1 -1.1104 3.84066 -0.603255 15.2738
404 2 2.2208 5.25072 3.57083 19.1787
417 2 2.2208 2.30684 3.80925 16.5931
399 1 -1.1104 6.41735 2.24613 15.1439
402 1 -1.1104 6.59263 -0.633556 17.9058
407 1 -1.1104 6.38764 -0.765587 15.1854
397 1 -1.1104 6.47251 -3.37847 15.0572
392 1 -1.1104 6.76728 2.15205 18.032
654 2 2.2208 13.5161 0.774469 24.893
460 2 2.2208 13.5186 20.4951 16.7812
8584 2 2.2208 10.7121 -4.78454 16.5779
391 1 -1.1104 6.70018 -3.52174 17.8558
370 2 2.2208 7.83145 -1.8318 27.8342
428 2 2.2208 13.7998 0.874831 19.3636
429 2 2.2208 13.6076 3.72712 16.5769
431 2 2.2208 10.8361 0.903776 16.5041
432 1 -1.1104 12.2988 -3.40244 17.8165
433 1 -1.1104 12.2087 2.25512 17.8574
434 1 -1.1104 12.1996 -3.34138 15.0396
436 1 -1.1104 12.1679 2.22347 15.0959
438 1 -1.1104 12.0736 -0.578449 17.8485
439 2 2.2208 10.6982 -1.89042 19.245
441 1 -1.1104 11.9382 -0.59336 15.1713
443 1 -1.1104 9.45122 -3.334 17.8631
444 1 -1.1104 9.60185 2.38762 17.7585
445 2 2.2208 7.95866 0.92533 19.4106
446 1 -1.1104 9.54548 -3.15124 15.0389
448 1 -1.1104 9.26389 2.2198 15.0722
450 2 2.2208 7.84535 -1.98328 16.5035
451 2 2.2208 8.10432 3.68043 16.4982
452 1 -1.1104 9.10271 -0.41407 17.7164
453 1 -1.1104 9.24141 -0.584759 15.0301
440 2 2.2208 10.7898 3.64703 19.3996
459 2 2.2208 13.5306 -2.02363 16.324
447 1 -1.1104 9.32947 -3.42222 20.8296
8518 2 2.2208 13.634 -4.80141 25.026
708 2 2.2208 13.5269 11.9711 25.1532
454 1 -1.1104 9.49494 -0.43665 20.6215
437 1 -1.1104 12.3013 2.20147 20.5936
357 2 2.2208 2.2159 17.7087 13.5971
464 2 2.2208 5.12245 6.49389 16.4714
465 2 2.2208 5.0194 12.1403 16.616
466 1 -1.1104 0.887849 7.77809 17.7216
468 1 -1.1104 0.824551 7.57384 15.0965
472 1 -1.1104 0.902524 5.10634 17.9831
473 1 -1.1104 0.725342 10.5247 17.8967
476 2 2.2208 4.98047 9.37085 19.349
477 1 -1.1104 0.974599 5.01322 15.0858
479 1 -1.1104 0.84949 10.6661 15.0662
485 1 -1.1104 3.62028 7.81337 17.9119
486 2 2.2208 2.30353 6.52879 19.3358
487 2 2.2208 2.21119 12.0045 19.3691
488 1 -1.1104 3.54479 8.0069 15.1231
490 2 2.2208 2.17614 9.2258 16.4525
491 1 -1.1104 3.77065 5.10844 17.9495
492 1 -1.1104 3.43719 10.807 17.8077
493 1 -1.1104 3.74404 5.09026 15.2468
495 1 -1.1104 3.54198 10.6012 15.1433
474 1 -1.1104 6.70278 4.88743 17.8221
481 1 -1.1104 6.55039 5.1256 15.1077
467 1 -1.1104 6.50063 7.89451 17.8348
470 1 -1.1104 6.30139 8.01758 15.2073
483 1 -1.1104 6.36979 10.7541 15.1851
475 1 -1.1104 6.42993 10.6704 17.9178
484 1 -1.1104 6.47103 10.612 20.8406
619 2 2.2208 13.3777 14.7646 16.5798
8517 2 2.2208 10.8708 -4.76903 22.1686
500 2 2.2208 10.7144 6.4388 16.5647
501 2 2.2208 10.575 12.0105 16.5376
502 1 -1.1104 12.1614 7.82168 18.1325
503 1 -1.1104 11.9562 7.84005 15.1747
505 1 -1.1104 11.9915 5.16198 18.1754
506 1 -1.1104 12.0296 10.5507 18.1156
507 2 2.2208 10.618 9.3747 19.364
508 1 -1.1104 12.2107 5.15265 15.306
510 1 -1.1104 11.9494 10.4257 15.2898
512 1 -1.1104 9.22638 8.08674 17.9513
513 2 2.2208 7.99168 6.62825 19.3633
514 2 2.2208 7.88229 12.076 19.3146
515 1 -1.1104 9.22612 7.90962 15.1909
517 2 2.2208 7.72874 9.36063 16.4419
518 1 -1.1104 9.30286 5.18864 17.9712
519 1 -1.1104 9.14256 10.9328 17.8466
520 1 -1.1104 9.3996 5.15177 15.1469
522 1 -1.1104 9.26241 10.742 15.2613
426 2 2.2208 13.4664 9.08041 16.7524
427 2 2.2208 -0.573677 3.86811 19.3742
650 2 2.2208 13.3801 11.9842 19.4724
504 1 -1.1104 12.0151 8.0022 20.9401
523 1 -1.1104 9.19299 10.7881 20.5829
360 2 2.2208 10.626 20.5506 13.738
355 2 2.2208 10.7166 9.18613 13.7335
527 2 2.2208 5.12997 17.6323 16.3697
528 1 -1.1104 1.03 13.4851 17.9936
529 1 -1.1104 0.831867 19.2154 17.9909
532 1 -1.1104 0.971915 13.4719 15.036
534 1 -1.1104 0.695887 19.0558 15.1464
540 1 -1.1104 1.02084 16.3131 17.9767
542 2 2.2208 5.1337 15.1011 19.2296
543 2 2.2208 5.05404 20.5565 19.372
544 1 -1.1104 0.881217 16.295 15.0403
548 1 -1.1104 3.72705 13.5228 17.9893
549 1 -1.1104 3.73369 19.1237 17.951
550 2 2.2208 2.32668 17.674 19.3718
551 1 -1.1104 3.7216 13.3784 15.0862
553 1 -1.1104 3.59763 19.0636 15.1077
555 2 2.2208 2.23346 14.9504 16.5158
556 2 2.2208 2.34025 20.5239 16.5194
557 1 -1.1104 3.8291 16.3811 17.8797
558 1 -1.1104 3.57129 16.2775 15.153
531 1 -1.1104 6.52649 19.0775 17.9653
536 1 -1.1104 6.50316 13.5778 15.0625
546 1 -1.1104 6.4106 16.3349 14.9142
530 1 -1.1104 6.38104 13.5476 17.7852
541 1 -1.1104 6.64455 16.387 17.7966
538 1 -1.1104 6.38895 19.1388 15.1667
547 1 -1.1104 6.45905 16.4337 20.8589
559 1 -1.1104 3.51099 16.1965 20.6861
537 1 -1.1104 6.61863 13.4256 20.8715
552 1 -1.1104 3.67478 13.4993 20.9054
545 1 -1.1104 0.772823 16.6141 20.5762
336 2 2.2208 13.5762 6.38884 13.5998
590 1 -1.1104 9.48022 19.4535 26.6525
563 2 2.2208 10.7259 17.7606 16.5307
564 1 -1.1104 11.97 13.3287 17.8343
565 1 -1.1104 12.1956 18.9974 17.858
566 1 -1.1104 12.0918 13.4354 15.0936
568 1 -1.1104 11.9476 19.1671 15.2555
570 1 -1.1104 12.003 16.0708 17.8975
571 2 2.2208 10.5997 14.8929 19.4527
572 2 2.2208 10.6206 20.425 19.381
573 1 -1.1104 12.0547 16.4046 15.1649
575 1 -1.1104 9.18633 13.6546 18.1475
576 1 -1.1104 9.32776 19.1779 18.0368
577 2 2.2208 7.75129 17.7645 19.3114
578 1 -1.1104 9.27861 13.3911 15.1871
580 1 -1.1104 9.15486 19.1121 15.1089
582 2 2.2208 7.84729 14.9987 16.6044
583 2 2.2208 7.79849 20.479 16.476
584 1 -1.1104 9.2722 16.4406 17.8569
585 1 -1.1104 9.27557 16.3806 15.044
579 1 -1.1104 9.45159 13.4642 20.8003
361 2 2.2208 10.6448 14.9301 13.8024
349 2 2.2208 8.20296 20.6164 27.9395
618 2 2.2208 13.5177 17.6182 19.374
567 1 -1.1104 12.2286 13.4482 20.8777
581 1 -1.1104 9.18085 19.1865 20.946
539 1 -1.1104 6.34542 19.2978 20.8598
617 1 -1.1104 9.2198 16.2224 23.5295
420 1 -1.1104 3.74658 -0.550099 20.8778
396 1 -1.1104 0.966681 2.40087 20.8392
413 1 -1.1104 3.57867 -3.39789 20.7693
406 1 -1.1104 0.926814 -0.360091 20.725
398 1 -1.1104 6.57095 -3.43108 20.6548
415 1 -1.1104 3.85609 2.31914 20.663
394 1 -1.1104 1.00144 -3.08582 20.7022
591 2 2.2208 5.17233 0.782509 22.0537
592 1 -1.1104 0.925726 -3.42823 23.3993
593 1 -1.1104 0.95411 2.20662 23.687
596 1 -1.1104 0.884983 -3.55657 26.2445
597 1 -1.1104 0.863793 2.19227 26.3903
600 1 -1.1104 1.09519 -0.659523 23.6437
602 2 2.2208 5.04743 -1.88833 25.0131
603 2 2.2208 5.09078 3.778 24.9585
604 1 -1.1104 0.774214 -0.683848 26.4411
606 1 -1.1104 3.89685 -3.43369 23.4397
607 1 -1.1104 3.89684 2.24941 23.4781
608 2 2.2208 2.35336 0.807376 25.0759
609 1 -1.1104 3.763 -3.40127 26.0848
610 1 -1.1104 3.66186 2.32243 26.2363
611 2 2.2208 2.35445 -1.90028 22.1351
613 1 -1.1104 3.86231 -0.605778 23.5455
614 1 -1.1104 3.65077 -0.555245 26.3402
612 2 2.2208 2.43065 3.64007 22.1142
400 1 -1.1104 6.60118 2.25805 20.7432
599 1 -1.1104 6.21662 2.43969 26.4234
595 1 -1.1104 6.75101 2.25436 23.5712
598 1 -1.1104 6.36281 -3.23236 26.1735
601 1 -1.1104 6.45918 -0.605498 23.7059
605 1 -1.1104 6.59521 -0.478064 26.4926
408 1 -1.1104 6.43579 -0.54037 20.7188
594 1 -1.1104 6.67069 -3.41548 23.3905
587 2 2.2208 7.73065 17.6214 24.9506
561 1 -1.1104 9.44971 13.5193 23.6144
435 1 -1.1104 12.1812 -3.25538 20.606
574 1 -1.1104 12.055 16.4331 20.8463
423 2 2.2208 13.7631 3.65779 22.1236
442 1 -1.1104 12.2438 -0.453861 20.582
449 1 -1.1104 9.32461 2.45902 20.6411
627 2 2.2208 10.9011 0.916788 22.089
628 1 -1.1104 12.298 -3.34521 23.6562
629 1 -1.1104 12.4111 2.22471 23.5092
630 1 -1.1104 12.0248 -3.43262 26.4802
631 1 -1.1104 12.2194 2.39505 26.129
632 1 -1.1104 12.2857 -0.48747 23.3578
633 2 2.2208 10.6971 -1.94894 24.8775
635 1 -1.1104 12.2535 -0.493179 26.1714
636 1 -1.1104 9.39607 -3.35088 23.4808
637 1 -1.1104 9.52918 2.34322 23.3674
638 2 2.2208 7.83794 0.879284 24.9663
639 1 -1.1104 9.30805 -3.20884 26.3
640 1 -1.1104 9.3546 2.37498 26.2896
641 2 2.2208 7.94011 -1.89516 22.0741
643 1 -1.1104 9.31571 -0.426343 23.3945
644 1 -1.1104 9.39134 -0.413306 26.1699
634 2 2.2208 10.7529 3.64196 24.8254
642 2 2.2208 7.89781 3.78345 22.0762
653 2 2.2208 13.6895 -1.97627 22.0469
586 1 -1.1104 9.10096 16.4181 20.5909
569 1 -1.1104 12.128 19.0183 20.5913
524 1 -1.1104 11.8778 15.9725 23.4381
478 1 -1.1104 0.922787 5.14039 20.8055
480 1 -1.1104 0.800334 10.6783 20.7578
496 1 -1.1104 3.83256 10.8818 20.6607
494 1 -1.1104 3.58823 5.04976 20.6546
489 1 -1.1104 3.54132 7.98298 20.7007
469 1 -1.1104 0.594173 7.8405 20.7802
656 2 2.2208 5.04637 6.5976 22.0498
657 2 2.2208 5.1169 12.0789 22.0834
658 1 -1.1104 0.871078 7.89668 23.5428
660 1 -1.1104 0.612154 7.92467 26.4803
662 1 -1.1104 0.929623 5.14634 23.6406
663 1 -1.1104 0.910814 10.7059 23.6252
666 2 2.2208 5.10223 9.18992 24.9107
667 1 -1.1104 0.897505 5.12925 26.5078
668 1 -1.1104 0.967016 10.7641 26.4214
671 1 -1.1104 3.57345 7.84455 23.6644
672 2 2.2208 2.19849 6.46469 25.0613
673 2 2.2208 2.27494 12.0995 25.0087
674 1 -1.1104 3.77251 7.82291 26.4381
675 2 2.2208 2.21014 9.22895 22.1495
676 1 -1.1104 3.7006 5.00777 23.5063
677 1 -1.1104 3.67696 10.5772 23.4786
678 1 -1.1104 3.67032 5.24239 26.35
679 1 -1.1104 3.71031 10.7058 26.2879
664 1 -1.1104 6.40146 5.10635 23.2683
482 1 -1.1104 6.54438 4.98537 20.6107
665 1 -1.1104 6.37121 10.7022 23.5951
471 1 -1.1104 6.33744 7.91826 20.7111
659 1 -1.1104 6.4089 7.78354 23.6419
661 1 -1.1104 6.52011 7.62141 26.4285
670 1 -1.1104 6.54976 10.4694 26.4011
353 2 2.2208 2.29567 12.1609 13.5566
511 1 -1.1104 12.0941 10.6408 21.0365
509 1 -1.1104 12.1549 5.32064 20.8733
521 1 -1.1104 9.35585 5.16968 20.7571
498 1 -1.1104 12.2153 13.4187 26.543
669 1 -1.1104 6.82614 4.90241 26.213
422 2 2.2208 13.5079 9.23515 22.3477
516 1 -1.1104 9.19078 7.84314 20.8838
362 2 2.2208 7.79269 17.8529 13.5848
710 2 2.2208 13.5814 6.30727 25.0806
687 1 -1.1104 9.34027 10.8516 26.3342
688 1 -1.1104 9.4621 5.07541 26.3053
689 1 -1.1104 9.19543 10.6683 23.6203
690 1 -1.1104 9.32348 5.02786 23.5077
691 2 2.2208 7.94251 9.31412 22.2785
692 1 -1.1104 9.27949 8.09735 26.4641
693 2 2.2208 7.87183 11.9987 25.0347
694 2 2.2208 7.92061 6.53976 24.989
695 2 2.2208 10.7098 6.59545 22.3448
696 2 2.2208 10.8169 12.0405 22.3494
697 1 -1.1104 12.1553 7.72061 23.8221
698 1 -1.1104 12.0193 7.87252 26.4475
699 1 -1.1104 12.1385 5.0431 23.5186
700 1 -1.1104 12.0798 10.7511 23.9284
701 2 2.2208 10.7773 9.3036 25.1608
702 1 -1.1104 12.2375 5.18965 26.6263
703 1 -1.1104 11.9029 10.6179 26.4371
704 1 -1.1104 9.16801 8.02306 23.7388
562 1 -1.1104 9.37198 18.9569 23.682
526 2 2.2208 10.7303 20.4931 25.0178
554 1 -1.1104 3.57809 19.2109 20.8357
709 1 -1.1104 6.40382 13.4564 23.6528
533 1 -1.1104 0.866876 13.6252 20.6644
535 1 -1.1104 1.007 19.2033 20.8593
588 1 -1.1104 6.54839 19.1491 26.3936
714 1 -1.1104 6.4796 16.343 26.3157
720 2 2.2208 5.05275 14.8984 24.9444
719 2 2.2208 5.16946 20.5587 24.8951
717 1 -1.1104 0.778432 13.5327 26.4673
647 2 2.2208 2.34396 15.0043 22.1635
649 2 2.2208 2.22282 20.5202 22.207
652 1 -1.1104 3.64062 16.4026 23.6211
655 1 -1.1104 0.897525 16.4972 23.4844
681 1 -1.1104 3.67766 13.3504 26.5796
682 1 -1.1104 3.76865 16.4147 26.4135
683 2 2.2208 2.22951 17.8233 24.9518
686 1 -1.1104 3.53454 19.0697 26.3959
705 2 2.2208 4.99959 17.7493 22.2199
706 1 -1.1104 0.855568 13.5231 23.5308
707 1 -1.1104 0.800923 19.3587 23.5418
711 1 -1.1104 3.54855 19.2484 23.6274
713 1 -1.1104 3.69063 13.6733 23.5247
715 1 -1.1104 0.904583 19.1398 26.524
716 1 -1.1104 0.965541 16.3646 26.3674
718 1 -1.1104 6.47207 19.0725 23.6047
712 1 -1.1104 6.51971 13.297 26.3725
680 1 -1.1104 6.35308 16.2705 23.5079
589 1 -1.1104 9.3745 13.6569 26.5241
497 1 -1.1104 12.101 18.8727 23.6012
525 2 2.2208 10.7409 14.9261 25.0129
616 2 2.2208 7.90325 20.5367 22.3363
560 1 -1.1104 12.2557 16.3658 26.3706
615 2 2.2208 7.90748 14.8525 22.1763
499 1 -1.1104 12.2303 19.1281 26.5767
463 1 -1.1104 12.2705 13.3283 23.6771
620 1 -1.1104 9.30625 16.3522 26.2926
462 2 2.2208 10.6376 17.6733 22.137
455 2 2.2208 13.5462 17.795 25.1318
430 2 2.2208 13.6231 14.7805 22.2445
461 2 2.2208 13.3693 20.3709 22.1865
366 2 2.2208 2.34924 3.59066 27.784
376 2 2.2208 13.4644 12.0448 13.903
339 2 2.2208 2.47506 0.80685 13.7437
346 2 2.2208 10.8596 -2.026 13.7382
651 2 2.2208 13.4815 6.5234 19.5778
8458 2 2.2208 2.33038 -4.88132 13.8473
363 2 2.2208 13.4118 17.8768 13.801
377 2 2.2208 13.5697 -2.05062 27.6852
381 2 2.2208 5.10154 12.0038 27.8769
372 2 2.2208 7.99147 3.73648 27.7478
347 2 2.2208 7.93646 14.8975 27.8567
344 2 2.2208 13.5422 14.7678 27.8659
359 2 2.2208 5.08985 14.9155 13.6796
354 2 2.2208 7.93823 6.477 13.7184
721 2 2.2208 5.27556 23.3965 5.16747
722 2 2.2208 5.09709 28.9787 5.31464
723 1 -1.1104 1.07642 24.7482 1.04866
724 1 -1.1104 0.986686 24.8225 3.76672
725 1 -1.1104 0.868328 21.9375 1.14509
726 1 -1.1104 0.996738 27.558 1.03978
727 2 2.2208 5.19405 26.058 2.41227
728 1 -1.1104 0.85689 21.8501 3.94142
729 1 -1.1104 0.9813 27.5198 3.83846
730 1 -1.1104 3.64126 24.8077 1.24384
731 2 2.2208 2.27548 23.4181 2.50843
732 2 2.2208 2.3495 28.8019 2.49792
733 1 -1.1104 3.81022 24.9231 3.81598
734 2 2.2208 2.33771 26.1944 5.27385
735 1 -1.1104 3.92917 22.0115 1.05236
736 1 -1.1104 3.67761 27.5427 1.1721
737 1 -1.1104 3.66024 22.1605 3.75203
738 1 -1.1104 3.80387 27.6312 4.04936
865 1 -1.1104 1.10339 27.7249 6.69965
744 1 -1.1104 6.7176 21.9534 0.985777
745 1 -1.1104 6.39849 27.5673 1.13608
742 1 -1.1104 6.53987 24.7375 0.956406
746 1 -1.1104 6.74222 21.9073 3.88563
743 1 -1.1104 6.65232 24.7383 3.76314
864 1 -1.1104 0.83076 21.9567 6.64888
862 1 -1.1104 0.769886 24.9625 6.72955
870 1 -1.1104 3.86108 27.7072 6.75644
867 1 -1.1104 6.56203 27.3871 6.75887
863 1 -1.1104 6.45512 24.6976 6.70813
869 1 -1.1104 3.59227 21.9139 6.52608
868 1 -1.1104 3.70119 24.7525 6.77944
866 1 -1.1104 6.43561 21.9151 6.73528
1039 2 2.2208 13.5779 31.6937 5.26108
747 1 -1.1104 6.72045 27.4303 3.78028
748 2 2.2208 10.8121 23.314 5.31296
749 2 2.2208 10.7828 29.0767 5.28953
750 1 -1.1104 12.1859 24.82 0.949214
751 1 -1.1104 12.0921 24.7177 3.82058
752 1 -1.1104 12.2304 22.0232 1.1821
753 1 -1.1104 12.1669 27.5424 1.25659
754 2 2.2208 10.8618 26.1233 2.52795
755 1 -1.1104 12.0989 21.826 3.952
756 1 -1.1104 12.236 27.5803 3.91047
757 1 -1.1104 9.40342 24.7615 1.26549
758 2 2.2208 8.1519 23.3472 2.52134
759 2 2.2208 8.01406 28.9137 2.62354
760 1 -1.1104 9.36783 24.9873 3.98873
761 2 2.2208 7.89911 26.1875 5.3574
762 1 -1.1104 9.64778 21.9804 1.00235
763 1 -1.1104 9.2733 27.6154 0.917547
764 1 -1.1104 9.43685 21.8454 4.0336
765 1 -1.1104 9.5242 27.6698 3.92976
766 2 2.2208 13.5014 23.3222 2.53378
1092 2 2.2208 13.5638 26.0109 -0.527942
899 1 -1.1104 9.29125 21.8804 6.79774
1016 1 -1.1104 9.33854 38.7996 12.298
900 1 -1.1104 9.35599 27.5 6.62682
895 1 -1.1104 12.078 24.6558 6.77091
769 2 2.2208 5.16803 34.6455 5.20322
770 1 -1.1104 1.01152 30.4578 1.32873
771 1 -1.1104 1.08784 36.0518 0.922711
773 1 -1.1104 0.843019 30.3899 4.03424
774 1 -1.1104 1.1838 36.0521 3.69578
776 1 -1.1104 0.854882 33.2587 1.10778
777 2 2.2208 5.09436 31.6732 2.52772
778 2 2.2208 5.11058 37.5098 2.39624
779 1 -1.1104 1.11532 33.089 3.91128
781 1 -1.1104 3.66059 30.3407 0.864443
782 1 -1.1104 3.81233 36.0834 0.973902
783 2 2.2208 2.43144 34.5453 2.31831
784 1 -1.1104 3.75199 30.2973 3.71667
785 1 -1.1104 3.84469 36.0136 3.66134
786 2 2.2208 2.36683 31.8071 5.22395
787 2 2.2208 2.33915 37.4171 5.16414
788 1 -1.1104 3.67047 33.297 0.828544
789 1 -1.1104 3.76886 33.0657 3.89226
780 1 -1.1104 6.58657 33.165 3.67186
793 1 -1.1104 6.54537 30.2452 1.17283
795 1 -1.1104 6.40593 33.0628 1.11019
775 1 -1.1104 6.61045 36.1199 3.881
919 1 -1.1104 0.959725 30.5388 6.69919
794 1 -1.1104 6.57256 30.3224 3.89078
925 1 -1.1104 3.86157 30.413 6.66978
924 1 -1.1104 6.66018 33.1177 6.66796
767 2 2.2208 13.5611 28.936 2.36626
772 1 -1.1104 6.61494 36.0707 0.985297
860 2 2.2208 13.6287 45.8815 2.54092
796 2 2.2208 10.9999 34.4891 5.34123
797 1 -1.1104 12.0655 30.3807 1.09982
798 1 -1.1104 12.035 35.8677 1.02972
799 1 -1.1104 12.0963 30.3972 3.87954
800 1 -1.1104 12.1262 36.0896 3.92821
801 1 -1.1104 12.1583 33.2134 1.1575
802 2 2.2208 10.6805 31.8252 2.41949
803 2 2.2208 10.7918 37.5872 2.42652
804 1 -1.1104 12.3441 33.1305 3.94361
805 1 -1.1104 9.35892 30.5289 1.17647
806 1 -1.1104 9.38447 36.1451 1.25393
807 2 2.2208 8.09518 34.7674 2.56189
808 1 -1.1104 9.34802 30.3534 3.89683
809 1 -1.1104 9.51591 36.0767 3.983
810 2 2.2208 7.99418 31.9355 5.16979
811 2 2.2208 7.93074 37.4278 5.40467
812 1 -1.1104 9.19787 33.2941 1.09449
813 1 -1.1104 9.37646 33.2794 3.94631