ITEM: TIMESTEP
100000
ITEM: NUMBER OF ATOMS
18000
ITEM: BOX BOUNDS pp pp pp
-4.4409147062584658e-01 2.7784091470626073e+01
-5.3574567933966541e+00 3.3343745679339327e+02
-4.4152979202636800e-01 2.7781529792026618e+01
ITEM: ATOMS id type x y z
3673 2 5.16978 0.44252 5.30464
5 2 2.11278 -2.75888 2.52337
6 1 3.29478 -1.2271 3.63556
14 2 5.37567 -2.71038 2.45478
9 1 6.35068 -1.33956 0.858644
63 2 2.25065 0.432567 2.34922
3604 2 2.18174 -2.61247 5.68011
12 1 3.4109 -3.93258 3.85428
3553 1 3.51209 -3.93298 1.17839
17952 1 3.28657 -1.09296 1.09057
14406 1 0.644064 -1.40159 1.22089
3548 1 0.758161 -1.33239 3.95807
3599 1 1.02767 -4.12151 0.868729
3598 1 0.744692 -3.98073 3.78615
18 1 6.32582 -3.9316 4.06277
17 1 6.51477 -4.28585 1.21924
10 1 3.64046 -4.12989 6.70836
22 1 6.16743 -1.21523 3.96307
19 1 9.0737 -1.35606 0.966843
3564 1 9.09768 -3.9475 4.02549
3685 2 10.7329 0.0944629 5.2366
29 2 10.5697 -2.57323 2.35578
26 2 12.9857 0.100594 2.32435
75 2 7.87268 0.225426 2.27252
3616 2 7.82251 -2.45143 5.24661
23 1 9.12601 -1.22183 3.83329
24 1 11.9869 -1.22665 3.91315
3571 1 9.19785 -4.03118 0.743014
3572 1 11.7823 -4.06425 3.75891
33 1 11.8792 -4.08345 1.02664
21 1 11.8073 -1.16082 0.910609
3621 1 9.4296 -3.91686 6.64378
3617 1 6.42482 -4.17967 6.59892
3623 1 9.2552 -1.0636 6.53584
3629 1 12.1605 -3.94436 6.51793
3631 1 12.1637 -1.26439 6.64164
7321 2 -0.440846 5.84354 10.8686
8 1 0.781224 1.67425 3.62711
66 1 0.771023 4.52605 3.80608
7 1 0.873335 1.40822 0.848242
74 2 4.97103 3.00557 2.41171
69 1 3.62537 4.50592 1.06319
70 1 3.71886 1.62376 3.90079
3664 2 2.34796 2.97693 5.24331
11 1 3.74737 1.65833 0.969818
3733 2 5.17775 5.82096 5.21586
123 2 2.03933 6.0247 2.4063
72 1 3.82382 4.38135 3.91448
3667 1 1.03378 7.34615 3.94423
68 1 1.02655 4.16531 1.07069
129 1 3.49503 7.3318 0.770374
130 1 3.67403 7.3114 3.75711
3666 1 0.974015 4.20362 6.75998
137 1 6.488 7.09236 0.906263
3665 1 0.823853 1.48785 6.61375
78 1 6.36928 1.56209 3.5975
80 1 6.46098 4.38766 3.77665
71 1 6.35086 4.36479 0.999282
77 1 6.49496 1.62216 0.841259
3671 1 3.73166 4.45715 6.63896
3668 1 0.856712 7.21301 6.74239
127 1 -0.24501 6.8412 1.11634
244 2 2.2357 20.1951 -0.486711
3729 1 3.69206 7.21674 6.60976
3677 1 6.51699 4.35817 6.44785
3679 1 6.52373 7.2937 6.52319
3619 1 6.63963 1.78333 6.75671
138 1 6.46914 7.19347 3.79215
82 1 9.15576 1.60456 0.870074
90 1 8.9728 1.68957 3.68257
30 1 11.9575 1.51591 3.63135
86 2 10.713 3.14454 2.32618
81 1 9.12407 4.52378 0.843547
3676 2 7.82451 2.97541 5.06553
3745 2 10.7034 5.83644 5.1618
91 1 11.8951 4.35767 0.869837
92 1 12.2004 4.44564 3.58031
135 2 7.77063 5.86036 2.45721
142 1 9.20419 7.40811 3.87749
84 1 9.34841 4.57221 3.82666
89 1 11.9301 1.58436 0.863263
141 1 9.20379 7.36713 1.10905
83 1 12.0494 7.25391 0.9493
3749 1 12.0573 7.28248 6.54346
150 1 12.1113 7.31536 3.80452
3691 1 11.9857 4.35835 6.42729
3689 1 12.0184 1.48239 6.53765
3741 1 9.23883 7.30479 6.46262
3683 1 9.27658 4.44338 6.55714
147 2 13.4282 5.99395 2.32279
3681 1 9.21914 1.61213 6.62839
180 1 1.13665 9.03051 0.963091
3793 2 5.03029 11.7059 4.83978
125 1 1.19858 10.2357 3.77639
134 2 5.10829 8.67697 2.38058
128 1 0.933891 12.9494 3.81888
183 2 2.26164 11.3915 2.12398
3724 2 2.49568 8.5864 5.17302
131 1 3.98842 10.1413 0.949003
132 1 3.86991 10.131 3.68015
197 1 4.12387 12.792 0.930883
186 1 1.13913 13.1158 1.12281
190 1 3.79851 13.0755 3.53018
3790 1 6.36015 13.0851 6.32746
3789 1 3.65658 12.8134 6.50307
3743 1 6.78006 13.1651 3.6046
198 1 6.71728 12.7183 0.945793
139 1 6.77856 9.8773 0.960523
194 2 5.24457 14.4328 2.2819
3784 2 2.45014 14.3 5.20889
265 2 11.353 17.2555 -0.471019
140 1 6.60821 9.9629 3.78816
3805 2 10.9606 11.3884 5.12646
151 1 12.2714 9.91148 0.884735
146 2 10.6229 8.73269 2.22673
152 1 9.28907 10.11 3.78418
195 2 8.07491 11.3624 2.42318
3736 2 7.84259 8.64071 5.20679
143 1 9.5154 12.9069 0.989807
144 1 9.40897 10.1751 0.823558
210 1 12.3314 13.0396 3.69138
202 1 9.63192 12.9187 3.80966
14606 1 12.1403 13.0257 0.785871
149 1 12.2199 10.0936 3.61561
3751 1 12.3436 10.0174 6.47818
3801 1 9.43793 12.8236 6.43681
3809 1 12.3259 13.1342 6.65965
206 2 10.9092 14.4128 2.38702
3737 1 9.36132 10.0911 6.6768
3842 2 -0.323868 19.9534 7.99699
7441 2 -0.252224 17.2247 10.8929
7456 2 8.02206 19.8641 10.6851
7396 2 8.13104 14.8326 10.6408
257 1 3.92029 18.622 1.02303
254 2 5.23439 20.0495 2.4337
3853 2 5.21171 17.2026 5.26048
246 1 0.997702 18.8886 3.71976
188 1 1.1016 15.7629 3.7879
249 1 1.19146 18.7109 0.999173
243 2 2.43025 17.2306 2.42651
250 1 3.82715 18.4955 3.79167
3844 2 2.4684 19.9989 5.16551
191 1 1.05139 16.0629 1.16211
192 1 3.84274 15.7472 3.85797
14598 1 3.64618 15.6536 0.915483
258 1 6.56574 18.6777 3.67651
200 1 6.44883 15.8374 3.81421
3857 1 6.6295 18.6169 6.50284
3791 1 3.94894 15.6227 6.46088
3845 1 0.942203 18.7703 6.60576
199 1 6.67687 18.4502 0.743799
3628 2 13.4236 -2.58986 5.15224
3867 2 13.6754 17.3559 8.30593
201 1 6.49674 15.8471 0.807545
3796 2 8.13332 14.44 5.19461
14602 1 9.12296 15.7602 1.05226
3865 2 11.0076 17.2066 5.2571
269 1 12.2429 18.7454 0.970253
270 1 12.3319 18.6758 3.77037
211 1 12.0964 15.7905 1.01789
266 2 10.9208 19.9654 2.42709
212 1 12.362 15.7457 3.73223
255 2 7.86407 17.1523 2.55949
262 1 9.55939 18.7291 3.80991
203 1 9.32366 18.3162 1.01756
204 1 9.39964 16.0108 3.81808
3856 2 8.13296 20.203 5.22661
3861 1 9.42819 18.765 6.55031
3803 1 9.59169 15.8005 6.54074
3811 1 12.4892 15.9245 6.71395
7403 1 9.58782 16.0342 12.1129
3869 1 12.4133 18.7385 6.64102
3748 2 13.5551 8.65769 5.02827
7469 1 12.3782 18.9093 12.1591
3609 1 0.596545 -4.00218 6.5185
3607 1 0.833279 -1.08957 6.71586
20 1 6.50099 -1.07611 6.54825
7274 2 5.15963 3.0846 13.6437
3611 1 3.76675 -1.0684 6.64814
7273 2 5.29744 0.17384 10.7903
7205 1 0.826425 -4.04861 12.1585
3606 1 0.707692 -1.31318 9.43636
7207 1 0.853721 -1.11008 12.1558
3614 2 5.06853 -2.57542 8.09372
7209 1 3.70204 -4.06847 12.1478
3663 2 2.31995 0.342623 8.37342
3610 1 3.53859 -4.21396 9.52558
7204 2 2.23962 -2.6919 10.758
7211 1 3.79896 -1.43509 12.0702
3612 1 3.50307 -1.35803 9.44119
7148 1 0.721526 -4.02819 9.38024
3866 2 10.905 20.1337 8.09787
7461 1 9.41446 18.9265 12.1931
3620 1 6.51331 -1.19889 9.48547
7217 1 6.4229 -4.09409 12.1528
3618 1 6.39321 -4.12469 9.45452
7219 1 6.46079 -1.22411 12.2393
7285 2 10.7109 0.205119 10.9535
7229 1 12.1553 -3.83016 12.3267
3630 1 11.9684 -3.99764 9.40599
7231 1 12.0265 -1.20433 12.4527
3626 2 10.6821 -2.66524 8.12994
3632 1 12.0793 -1.12291 9.28841
7221 1 9.21778 -3.76919 12.255
3675 2 7.87027 0.261593 7.97106
3622 1 9.05584 -4.11628 9.59865
7216 2 7.73474 -2.68578 10.8768
7223 1 9.25417 -1.02129 12.0153
3624 1 9.53794 -1.30676 9.30855
7346 2 10.8734 8.65895 13.5534
3782 2 -0.266188 14.3846 8.03926
3687 2 13.4832 0.162776 8.07922
3669 1 3.84747 1.69736 6.72395
3804 1 9.48736 16.11 9.45762
7463 1 9.48005 18.559 9.32923
7265 1 1.07047 1.60951 12.3727
3674 2 4.98636 3.10238 8.04058
3608 1 0.811123 1.52188 9.64626
7269 1 3.86742 1.45212 12.4041
3670 1 3.74507 1.69124 9.64995
7264 2 2.22563 3.07076 10.9735
7333 2 5.18381 5.78553 10.7995
7267 1 0.70712 4.429 9.54833
3723 2 2.22905 5.85135 8.07477
7271 1 3.48642 4.20729 12.338
3672 1 3.59857 4.39724 9.3796
7261 1 0.741071 4.34956 12.2235
3732 1 3.6785 7.3234 9.46209
7325 1 1.00318 7.1988 12.2282
3730 1 0.998383 7.35965 9.49991
7329 1 3.78553 6.97327 12.2842
3738 1 6.37724 7.24682 9.39938
3812 1 12.143 16.0703 9.40131
7337 1 6.56243 7.10598 12.1494
7279 1 6.4838 4.33911 12.124
3680 1 6.52996 4.47302 9.18026
7277 1 6.74704 1.67811 12.1313
3678 1 6.46498 1.71258 9.48009
7289 1 12.351 1.66105 12.3224
3690 1 12.1709 1.66126 9.57571
3686 2 10.7918 2.94299 7.89552
7281 1 9.4692 1.78696 12.2141
3682 1 9.22072 1.41459 9.47093
7276 2 8.08318 2.96267 10.7702
3684 1 9.52551 4.41118 9.39741
7283 1 9.36078 4.77309 12.0394
3735 2 7.97148 5.73648 7.88543
7345 2 10.9664 5.85662 10.6328
7291 1 12.2552 4.35231 12.1076
3692 1 12.2633 4.41753 9.27641
7341 1 9.39954 7.44409 12.1771
3750 1 12.1276 7.21725 9.13306
3742 1 9.24475 7.10548 9.11706
7349 1 12.1013 7.67214 11.8618
88 2 13.6686 2.70317 -0.586343
7335 2 7.965 5.82942 13.6601
193 2 5.50793 11.4264 -0.419641
3731 1 3.75423 10.0371 6.63842
3785 1 0.976587 12.9586 6.78243
3725 1 0.736966 10.0927 6.62769
3727 1 1.00124 13.1224 9.54321
7393 2 4.76733 11.5801 10.6577
3726 1 0.848676 10.3004 9.57093
7327 1 0.860089 10.1016 12.2079
3734 2 4.9001 8.5697 8.10552
3728 1 3.66579 10.0316 9.47624
3783 2 2.20432 11.4827 8
7324 2 2.28507 8.70314 10.7264
7331 1 3.60062 10.0109 12.0458
7389 1 3.84841 13.1356 12.0891
3786 1 3.585 12.9379 9.07888
7385 1 0.975039 13.0384 12.2446
3800 1 6.49153 12.6152 9.41689
7339 1 6.41814 12.4391 12.1314
7343 1 6.94717 9.9634 12.1207
7288 2 13.5415 3.08162 10.9306
7384 2 2.43225 14.3693 10.8344
3794 2 5.21824 14.4825 8.08033
3739 1 6.41898 10.3672 6.57952
3740 1 6.56998 10.2134 9.50924
3797 1 8.091 14.2078 8.20454
7397 1 9.07833 13.203 12.1554
7401 1 9.74507 10.4143 12.4283
3744 1 9.3898 10.1613 9.51458
7336 2 7.99822 8.41642 10.665
3795 2 7.82797 11.8658 7.56886
7405 2 11.2127 11.4944 10.6723
7351 1 12.5278 10.4387 12.0424
3746 2 10.7972 8.7206 7.71661
3752 1 12.3128 10.0377 9.28623
3798 2 8.05585 11.6387 10.683
3802 1 9.61841 12.8319 9.75811
7409 1 11.9877 13.086 12.0457
3810 1 12.2329 13.111 9.41374
3868 2 13.731 20.0229 5.09676
207 2 13.5949 11.5675 2.47222
7407 2 13.7277 11.5296 13.6089
3870 1 12.2807 18.7232 9.40058
3799 1 6.66851 15.8858 6.50775
3849 1 3.63596 18.7713 6.48846
3787 1 0.982289 15.8945 6.63113
7457 1 6.65018 18.5844 11.8899
3858 1 6.63518 18.6216 9.17827
7449 1 3.82794 18.5629 12.3884
3846 1 0.976542 18.7797 9.45533
3788 1 1.15816 15.8693 9.73072
3854 2 5.20959 20.0514 7.9628
7445 1 1.05498 18.6263 12.367
7453 2 5.11307 17.3208 10.7998
3850 1 3.73736 18.7194 9.47883
3843 2 2.41365 17.4828 8.04456
3792 1 3.82258 15.7662 9.53054
7387 1 1.04792 15.6455 12.4333
7391 1 3.98383 15.7026 12.2883
7444 2 2.34349 19.9806 10.9969
3862 1 6.56881 15.9537 9.32293
7399 1 6.58727 15.6636 12.0431
7411 1 12.405 16.0528 12.1405
7465 2 10.9812 17.5066 10.8918
3855 2 8.21084 17.2332 7.88013
7408 2 13.5966 14.4523 10.8093
3806 2 10.83 14.3753 7.98325
182 2 -0.480656 14.4693 2.45634
7468 2 13.5794 20.3299 11.0029
3747 2 13.4728 5.87207 7.86344
7334 2 5.0741 8.42804 13.4829
196 2 8.10834 13.8969 -0.515846
7263 2 2.41342 0.1773 13.5329
7275 2 8.06993 0.308937 13.4531
7394 2 5.23499 14.3939 13.5815
16 2 7.90465 -2.56643 -0.603447
133 2 5.0025 5.87587 -0.328195
3781 2 -0.33167 11.5502 5.16568
64 2 2.12708 3.01975 -0.379784
3841 2 -0.275502 17.3294 5.16748
73 2 5.05528 0.284326 -0.402672
7455 2 8.13893 17.3216 13.4946
28 2 13.4183 -2.67453 -0.175336
7214 2 5.12842 -2.7044 13.5723
7383 2 2.39971 11.5387 13.5746
7406 2 10.8647 14.4241 13.504
10873 2 5.06862 0.25385 16.3864
10805 1 0.950272 -4.20856 17.9362
7206 1 1.00431 -4.15766 14.883
10807 1 0.980714 -1.28746 17.5488
10814 2 4.99285 -2.62923 19.3074
7208 1 1.00798 -1.07897 14.8194
10809 1 3.77336 -3.97753 18.0171
10863 2 2.27927 0.3252 19.259
7210 1 3.68025 -4.1918 15.2906
10804 2 2.35327 -2.76247 16.3801
10811 1 3.69136 -1.16739 17.9125
7212 1 3.75884 -1.35781 15.0168
10812 1 3.5501 -0.921047 20.7134
10808 1 0.498448 -1.1921 20.5561
10810 1 3.72456 -3.67617 20.956
10817 1 6.4759 -4.02767 17.9043
7443 2 2.56011 17.1026 13.6723
14641 2 -0.388521 17.2651 22.0384
7286 2 10.9289 3.26276 13.7273
10819 1 6.45407 -1.24137 18.0006
7218 1 6.55405 -3.9731 14.8914
10818 1 6.54004 -4.18122 20.7997
7220 1 6.68434 -1.09588 15.0912
10885 2 10.7027 0.225538 16.447
10829 1 12.4178 -4.17503 17.7039
7230 1 12.2019 -3.94961 15.1241
10831 1 12.0794 -1.22177 17.9665
10826 2 10.8183 -2.68252 19.2058
7232 1 12.093 -1.22093 15.3107
10821 1 9.3759 -3.93147 17.8177
10875 2 7.94642 0.203274 19.2265
7222 1 9.2044 -4.0395 15.1991
10816 2 7.72173 -2.65774 16.4532
10823 1 9.44336 -1.14706 17.7007
7224 1 9.48911 -1.05504 14.7976
10822 1 9.24459 -3.99278 20.6165
85 2 10.7542 0.114503 27.467
10824 1 9.21495 -1.20621 20.4945
10832 1 12.238 -1.30088 20.7774
10865 1 0.756294 1.40709 18.0427
7266 1 0.644822 1.70198 15.2318
10874 2 5.16811 3.12363 19.3093
10869 1 3.52496 1.70008 17.8183
7270 1 3.57943 1.34178 15.1595
10864 2 2.07427 2.99961 16.536
10933 2 5.14635 5.96845 16.5386
7326 1 1.12847 7.1342 15.1243
10867 1 0.871356 4.48175 17.7948
7268 1 0.874208 4.36269 14.8655
10923 2 2.17454 6.06371 19.305
7330 1 3.60089 7.25726 15.0163
10871 1 3.7645 4.58582 17.8637
7272 1 3.76032 4.32756 15.3292
10929 1 3.84009 7.35919 17.9598
10925 1 0.970053 7.41278 17.8322
10868 1 0.790838 4.56153 20.8585
10879 1 6.53808 4.46207 17.833
10870 1 3.63962 1.9956 20.7331
10866 1 0.832771 1.72168 20.5781
10930 1 3.6828 7.49554 20.696
7280 1 6.5985 4.61442 15.049
10937 1 6.55741 7.24177 17.8931
10926 1 0.820214 7.29061 20.7661
7338 1 6.40273 7.26905 15.0499
10872 1 3.41007 4.67522 20.7978
14428 2 13.5976 -2.70598 22.1363
11041 2 -0.200791 17.2755 16.4562
10877 1 6.48186 1.57171 17.9304
7278 1 6.63895 1.70675 14.8719
10938 1 6.46925 7.22677 20.7265
10880 1 6.36363 4.4735 20.6824
7282 1 9.48276 1.84965 15.0392
10889 1 11.8449 1.79123 17.7508
7290 1 12.368 1.65339 15.1668
10886 2 10.672 3.03116 19.0259
10881 1 9.21608 1.51878 17.8148
10876 2 7.91165 3.1101 16.3733
10945 2 10.8749 5.91015 16.5013
10949 1 12.1266 7.30904 17.7394
10891 1 12.1126 4.49278 18.0484
7292 1 12.2571 4.29546 15.3063
10935 2 7.90449 5.90552 19.1455
10883 1 9.38842 4.5338 17.6574
7284 1 9.50543 4.50988 14.9786
10941 1 9.1747 7.38291 17.7081
7342 1 9.13953 7.21942 14.9372
7350 1 11.9441 7.36181 15.063
10882 1 9.38342 1.83217 20.6722
10950 1 12.2197 7.39006 20.5724
10892 1 12.1966 4.54927 20.6623
10884 1 9.14967 4.3426 20.4247
10888 2 13.6062 3.05358 16.5565
10878 1 6.64178 1.59341 20.6582
10890 1 12.0804 1.71969 20.5051
10825 2 10.7495 -5.42908 16.4548
10993 2 5.09976 11.5759 16.3672
10927 1 1.00022 10.2228 17.7825
10934 2 5.25075 8.70817 19.4054
7328 1 1.01731 10.1218 15.0986
10983 2 2.60882 11.5868 19.2399
10924 2 2.41875 8.80521 16.5132
10931 1 3.7443 10.3192 17.7589
7332 1 3.87529 10.1322 14.9625
10985 1 1.10858 13.0349 18.0325
7386 1 0.951081 12.9682 14.9902
10989 1 3.78427 13.0902 17.8438
7390 1 3.78045 12.9235 15.0187
10986 1 0.981796 13.1587 20.7195
10928 1 1.05569 10.0779 20.3719
10990 1 3.88325 13.0056 20.6223
10997 1 6.45049 12.9271 17.7887
10932 1 3.91957 10.1607 20.5595
10939 1 6.45823 10.1301 17.9096
7340 1 6.46533 10.0786 15.0744
10984 2 2.36515 14.4768 16.4023
14413 2 4.96274 -5.34711 22.1538
10998 1 6.54074 12.9078 20.459
7398 1 6.57179 12.9234 14.9419
11005 2 10.9177 11.5409 16.2995
10951 1 12.1874 9.95948 17.743
10946 2 10.6458 8.65992 19.1265
7352 1 12.2718 10.3286 14.9327
10995 2 7.98457 11.5687 19.1576
10936 2 7.9397 8.62726 16.3374
10943 1 9.39979 10.33 17.8779
7344 1 9.28502 9.98541 15.153
11009 1 12.3156 12.8579 17.683
7410 1 12.1979 13.0938 14.8005
11001 1 9.39405 13.1996 17.8882
7402 1 9.44389 13.0058 15.146
7395 2 7.92077 11.5583 13.9268
10944 1 9.44594 10.1341 20.5304
11002 1 9.51821 13.0755 20.7378
11010 1 12.1266 12.8235 20.6959
205 2 11.0045 14.4125 25.0674
10994 2 5.23164 14.3679 19.2134
11053 2 5.22998 17.2789 16.575
11045 1 1.1117 18.7848 17.872
7446 1 1.20462 18.4876 15.1801
10987 1 1.16529 16.0366 17.8897
11054 2 5.26447 20.1784 19.4316
7388 1 0.862629 15.7653 15.1358
11049 1 3.9875 18.7738 18.038
11043 2 2.43143 17.2998 19.2946
7450 1 3.95225 18.63 15.1869
11044 2 2.46313 20.1209 16.5312
10991 1 3.95737 15.929 18.0024
7392 1 3.86139 15.732 15.0084
11050 1 3.65441 18.6716 20.8258
11057 1 6.82836 18.9107 18.0172
10988 1 0.991297 15.9517 20.6266
11058 1 6.55866 18.6672 20.7766
10999 1 6.55721 15.8706 17.8248
11046 1 0.773645 18.7743 20.6594
7400 1 6.61622 15.782 14.9047
14487 2 13.4831 -0.074916 24.8271
10992 1 3.85184 15.6591 20.7825
14600 1 6.69459 15.7628 26.3129
14642 2 -0.369267 20.0696 24.9251
11042 2 -0.348512 20.224 19.3113
11006 2 10.9323 14.2561 19.3534
7458 1 6.78605 18.6813 14.9846
11062 1 9.49266 18.6905 20.8344
10996 2 8.06872 14.5625 16.3911
11065 2 11.0383 17.1003 16.5473
11069 1 12.3798 18.6112 17.7839
7470 1 12.4812 18.706 15.0247
11011 1 12.5012 15.5588 17.9661
11066 2 11.0209 19.9909 19.3769
7412 1 12.3222 15.7303 15.038
11061 1 9.71898 18.5999 17.941
11055 2 8.10639 17.386 19.3372
7462 1 9.55694 18.4638 15.0774
11056 2 8.12708 20.1628 16.5831
11003 1 9.59467 15.8675 17.8249
7404 1 9.48488 15.6756 14.9677
11070 1 12.576 18.6071 20.7239
11012 1 12.0926 15.7634 20.6737
10948 2 13.628 8.58654 16.2509
14596 2 8.00175 14.3713 22.1338
14522 2 -0.393056 8.29 24.7227
10806 1 0.792231 -3.85164 20.8786
14415 2 7.92167 -5.15087 24.92
4 2 2.1105 -2.71501 27.4927
17960 1 3.73584 -3.80665 26.4199
14473 2 5.05836 0.35419 22.0722
14405 1 0.803787 -3.85018 23.5625
17948 1 0.709055 -4.06959 26.2832
14407 1 0.868327 -1.12172 23.4446
14414 2 5.07767 -2.57786 25.0006
14408 1 0.684341 -1.20686 26.2938
14409 1 3.64646 -3.99234 23.6357
14463 2 2.26825 0.283482 25.0151
14410 1 3.54236 -1.13447 26.6169
14404 2 2.1888 -2.32428 22.143
14411 1 3.57716 -1.06657 23.7448
14418 1 6.75213 -1.13052 26.2903
10947 2 13.6907 5.82098 19.1821
14586 1 -0.320495 14.331 27.5235
10820 1 6.44921 -1.36784 20.8479
14419 1 6.41058 -0.822038 23.5819
14417 1 6.81619 -3.59273 23.7184
17964 1 6.49646 -3.79559 26.6067
10830 1 12.0331 -3.95085 20.7009
14485 2 10.6948 0.232864 21.958
14429 1 12.1883 -4.15004 23.4134
14430 1 12.309 -4.08392 26.3115
14431 1 12.3852 -1.24609 23.2971
14426 2 10.7449 -2.48241 24.9567
14432 1 12.0817 -1.52158 26.4524
14421 1 9.54542 -3.93245 23.5539
14475 2 7.97881 0.295673 24.6961
14422 1 9.38758 -3.80257 26.2162
14416 2 7.9596 -2.58393 22.0355
14423 1 9.27947 -1.17889 23.4079
14424 1 9.36242 -1.09056 26.0949
14488 2 13.3721 3.05102 21.979
136 2 8.03243 8.54323 27.7614
7322 2 -0.235123 8.69949 13.8457
10887 2 13.4009 0.223029 19.2825
259 2 7.93158 20.2447 27.6076
65 1 0.491429 4.64444 26.4915
14465 1 0.772542 1.57292 23.4213
14466 1 0.76189 1.62454 26.3247
14474 2 5.06779 3.08157 24.8152
14469 1 3.58887 1.77652 23.494
14464 2 2.21183 3.08354 22.0783
14412 1 3.49745 1.68883 26.3262
14533 2 5.09538 5.96481 22.0038
14525 1 0.809204 6.96574 23.6421
14467 1 1.06975 4.23035 23.8262
14529 1 3.59971 7.27529 23.4351
14523 2 2.26231 5.83053 24.9529
14471 1 3.58127 4.67223 23.4276
14472 1 3.53296 4.35466 26.2393
14530 1 3.83663 7.20041 26.1218
14526 1 0.818856 7.44931 26.7512
14470 1 6.4002 4.53951 26.2634
14479 1 6.54557 4.64988 23.5283
14537 1 6.42443 7.21756 23.4556
145 2 10.5733 5.94435 27.691
184 2 2.41071 14.1899 27.6414
10942 1 9.41898 7.10463 20.5971
11008 2 13.6301 14.4208 16.3712
7466 2 10.8149 20.1113 13.7885
14480 1 6.49553 7.22072 26.3759
14477 1 6.43028 2.01511 23.3505
14420 1 6.35731 1.66391 26.3459
14478 1 9.19519 4.58166 26.2395
14489 1 12.0891 1.36287 23.4355
14490 1 12.2168 1.49961 26.1854
14481 1 9.40557 1.66951 23.3527
14482 1 9.43947 1.57341 26.2067
14476 2 7.93069 3.06309 22.0247
76 2 10.8275 2.9742 24.8708
14486 1 12.0165 4.59771 26.25
14483 1 9.27458 4.47079 23.495
14535 2 7.84919 5.86713 24.8374
14545 2 10.6429 5.8324 22.129
14549 1 12.1104 7.13158 23.5011
14491 1 12.2007 4.22181 23.4142
14550 1 12.0002 7.23743 26.3369
14541 1 9.22116 7.47227 23.4834
14484 1 9.1791 7.31084 26.4059
14612 1 12.5015 15.6689 26.4181
14669 1 12.3196 18.5567 23.6276
10982 2 -0.412942 14.5036 19.2973
14579 1 -0.389023 9.63827 22.7547
124 2 2.54906 8.89368 27.5002
14604 1 9.57462 15.6007 26.6391
14638 1 0.981866 12.9988 25.6123
14593 2 5.26687 11.5575 21.9911
14527 1 1.74545 9.24815 25.0697
14534 2 5.22506 8.62649 24.9004
14583 2 2.73563 11.5229 25.0214
14524 2 2.31165 8.97657 22.2011
14531 1 3.91865 10.1379 23.4098
14532 1 4.20588 10.1084 26.2219
14589 1 3.96142 13.0689 23.4739
14585 1 1.44738 11.433 23.18
14590 1 3.99841 13.0821 26.3983
14597 1 6.63991 12.8285 23.3633
14540 1 6.62525 12.7657 26.3075
253 2 4.87008 17.2547 27.8147
189 1 1.93944 11.3494 27.4967
14661 1 9.62754 18.3701 23.4217
10940 1 6.61156 10.1604 20.7155
10952 1 12.1594 10.0717 20.5439
10921 2 -0.441405 5.87574 16.58
14655 2 7.96386 17.2759 24.4822
14603 1 9.44139 15.542 23.6646
14539 1 6.64499 9.95707 23.3702
14538 1 6.65067 10.1238 26.1424
14601 1 9.30701 12.7986 23.4928
14610 1 12.3669 12.9185 26.2046
14609 1 12.1688 12.7812 23.6877
14544 1 9.5926 12.8275 26.3798
14543 1 9.40418 9.98801 23.4464
14536 2 8.03977 8.67145 22.0094
14542 1 9.44013 10.0126 26.179
14595 2 8.03884 11.3826 24.728
14605 2 10.6299 11.531 22.0845
14551 1 12.3661 10.1857 23.335
14546 2 10.699 8.82269 24.7266
14552 1 12.1441 10.0932 26.1413
10828 2 13.6726 -2.44451 16.4645
11007 2 13.5986 11.3798 19.1018
11000 1 6.59758 15.6669 20.7397
14599 1 6.60831 15.7197 23.4188
14584 2 2.46881 14.4644 22.0853
14657 1 6.44825 18.4145 23.5414
14650 1 3.84713 18.66 26.3756
14645 1 1.14933 18.6041 23.5301
14592 1 3.95271 15.8471 26.3228
14653 2 5.16443 17.2475 21.9855
14594 2 5.33653 14.3412 24.8986
14649 1 3.81426 18.6247 23.4731
14591 1 3.84616 15.6041 23.4634
14587 1 1.12745 15.7101 23.6529
14644 2 2.27596 20.0248 22.1685
14643 2 2.5033 17.2492 24.8348
14588 1 1.21518 16.0617 26.3422
14646 1 1.10821 18.8337 26.2981
14654 2 5.26944 20.1383 24.9798
14658 1 6.76077 18.4003 26.4227
14666 2 10.668 19.993 25.0343
14665 2 11.0515 17.17 22.2045
14611 1 12.2798 15.6956 23.5606
11004 1 9.48263 16.0432 20.9044
14662 1 8.18993 19.9415 24.9392
14656 2 8.04628 19.9454 22.4352
261 1 9.40968 18.2492 26.4097
14670 1 12.2452 18.7902 26.3869
7442 2 -0.302758 20.0849 13.8131
14547 2 13.4892 5.94752 24.7987
14521 2 -0.454818 5.83547 22.201
14548 2 13.6082 8.63388 21.8419
14528 1 -0.513519 10.341 26.3818
209 2 10.9712 11.4447 27.7252
148 2 13.5706 8.62755 27.6341
79 2 7.96802 3.06605 27.6816
14608 2 13.5262 14.3255 22.1237
7454 2 5.13444 20.2658 13.7981
7226 2 10.7129 -2.61019 13.6889
185 2 -0.399359 12.1258 27.8631
7287 2 13.4938 0.428475 13.8088
256 2 8.023 16.9961 27.6601
7323 2 2.40449 5.73782 13.7783
208 2 13.6969 14.2842 27.7245
241 2 -0.190916 17.3334 27.7732
3913 2 5.18682 23.0084 5.28736
305 1 0.938657 24.3692 0.981348
306 1 0.95708 24.3575 3.77848
247 1 0.78677 21.6366 1.21774
314 2 4.95612 25.6746 2.44334
248 1 0.977961 21.7151 3.85137
309 1 3.9532 24.2734 0.822168
303 2 2.25104 22.8909 2.46517
310 1 3.61986 24.2671 3.77724
3904 2 2.44528 25.7796 5.20213
251 1 3.53291 21.5683 0.97154
252 1 3.77572 21.3958 3.83955
312 1 3.73899 26.9812 3.84675
260 1 6.53109 21.6026 3.93712
307 1 3.64416 27.2172 1.12893
14720 1 6.6425 24.2267 1.00026
308 1 0.740325 27.2148 3.89974
3847 1 0.977692 21.5828 6.52774
318 1 6.2882 24.4795 3.71478
3859 1 6.53403 21.3119 6.54552
3907 1 1.06686 27.1185 6.78384
311 1 6.48272 27.1121 1.02203
317 1 6.51143 21.3237 0.990798
320 1 6.6496 27.4 3.94896
3851 1 3.72831 21.5819 6.72964
3911 1 3.73779 27.3869 6.39584
3925 2 10.8655 23.0036 5.15769
329 1 12.2162 24.3661 0.92105
330 1 12.1763 24.2522 3.79986
271 1 12.1698 21.3946 1.0258
326 2 10.7835 25.5885 2.38918
272 1 12.235 21.5408 3.76541
321 1 9.51124 24.2862 0.99945
315 2 7.87126 22.8161 2.41426
322 1 9.3071 24.1507 3.77878
3916 2 8.03974 25.7393 5.22033
263 1 9.47171 21.312 1.08242
264 1 9.43791 21.5029 3.84086
332 1 12.3176 26.9739 3.4697
3921 1 9.33541 24.2723 6.50828
3871 1 12.1585 21.4081 6.33681
319 1 9.45394 27.1354 0.987666
324 1 9.43266 27.1324 3.81318
3923 1 9.32738 27.1008 6.435
373 2 5.42992 28.5972 -0.396417
3929 1 12.0187 24.4108 6.63073
557 1 6.65382 47.1257 1.11297
14782 1 12.4431 27.6917 0.982716
3928 2 13.4891 25.7065 5.06148
357 1 1.06241 27.2747 1.08744
3973 2 5.36282 28.7786 5.4176
363 2 2.44561 28.5461 2.7812
366 1 0.924537 30.047 1.02244
367 1 0.773191 32.9033 0.911634
374 2 5.11287 31.5496 2.52502
368 1 0.835058 32.7887 3.6393
369 1 3.68212 30.113 1.07712
370 1 3.88085 29.9201 3.91231
3964 2 2.40589 31.2877 5.30674
371 1 3.69566 33.0072 1.26354
372 1 3.67983 32.8853 3.88439
3965 1 1.10601 29.984 3.86108
3969 1 3.91847 30.0756 6.7764
379 1 6.52749 32.8036 1.12772
378 1 6.54453 30.2064 3.83029
380 1 6.58189 33.0888 3.89944
3977 1 6.73755 30.219 6.61725
3966 1 0.982514 29.844 6.54167
3967 1 0.882148 32.7444 6.54092
3979 1 6.45977 32.9485 6.7067
7755 2 7.93322 45.555 13.6429
7685 1 0.965145 41.4568 12.3861
377 1 6.70198 29.9543 1.08419
323 1 12.1217 30.3212 0.460082
3985 2 10.8831 28.7248 5.16203
375 2 7.94415 28.622 2.60582
449 1 12.2988 32.8171 0.992954
386 2 10.8383 31.5656 2.31501
392 1 12.3144 32.7644 3.63807
381 1 9.32536 30.0818 1.12632
382 1 9.51278 30.1954 3.89315
3976 2 8.07568 31.6733 5.29685
383 1 9.34317 32.7785 0.956479
384 1 9.49097 32.9475 3.77801
3989 1 12.2794 30.0556 3.4526
3983 1 9.5327 32.7542 6.59916
3981 1 9.42602 29.991 6.85437
566 2 10.993 45.6114 -0.261489
3991 1 12.2433 32.7235 6.46342
3990 1 12.1241 30.0048 6.3785
448 2 13.6501 37.287 -0.301645
4112 2 10.8086 42.6869 10.9196
4111 1 12.1271 43.903 9.49272
4033 2 5.07978 34.3128 5.30238
425 1 0.772569 35.7076 1.22233
426 1 0.90252 35.8957 3.99885
434 2 5.2304 37.0946 2.46629
429 1 3.6896 35.8341 1.02102
423 2 2.37909 34.4543 2.6573
430 1 3.72006 35.6043 3.90375
4024 2 2.29759 37.2218 5.22047
428 1 0.673121 38.5167 3.63176
427 1 0.871725 38.6183 0.849505
431 1 3.85851 38.6143 1.06153
432 1 4.05181 38.4679 3.68656
483 2 2.38341 39.9089 2.54321
4093 2 5.06457 39.862 5.21695
4084 1 2.44365 39.7039 5.04752
438 1 6.66451 35.7046 4.01622
439 1 6.6257 38.5574 0.882653
4110 1 12.1496 41.227 9.78431
436 2 8.07717 37.0954 -0.391671
4037 1 6.50533 35.7688 6.74981
4025 1 1.04433 35.755 6.81641
4048 2 13.6844 36.976 5.35629
7459 1 6.83444 21.2245 12.0863
437 1 6.49751 35.6997 1.06877
440 1 6.84641 38.3275 3.54111
4045 2 10.8266 34.1356 5.29738
450 1 12.2021 35.6659 3.68577
446 2 10.8755 37.1655 2.40243
441 1 9.47629 35.7697 0.940608
435 2 8.00102 34.3861 2.57435
442 1 9.50717 35.699 3.82745
4036 2 8.01065 37.2111 5.31802
451 1 12.3832 35.6427 0.882549
452 1 12.1894 38.7967 3.77491
443 1 9.54498 38.4963 0.936569
444 1 9.44963 38.4163 3.97483
509 1 12.1794 38.4276 1.08102
495 2 8.00053 39.9069 2.42551
4105 2 10.8319 39.8215 5.26704
4043 1 9.48236 38.5906 6.73619
4041 1 9.25654 35.5958 6.6446
4049 1 12.0685 35.5878 6.53763
4167 2 13.5161 45.3945 8.04152
7588 2 13.6538 31.4072 10.8606
325 2 10.8578 22.7789 -0.358184
4153 2 5.32563 45.6302 5.01816
485 1 1.02655 41.3239 1.00616
486 1 1.01699 41.5708 3.65495
487 1 0.895664 44.2336 0.923264
494 2 5.26423 42.5846 2.18103
488 1 0.823539 44.287 4.02107
489 1 3.77791 41.3271 0.88432
543 2 2.38431 45.5395 2.57261
490 1 4.05366 41.3984 3.74054
491 1 3.77473 44.1357 0.947936
492 1 3.74233 44.2234 4.03184
482 2 2.51014 42.5756 5.30882
4087 1 0.747068 43.9798 6.80606
499 1 6.59014 44.1727 0.97758
500 1 6.68883 44.0123 3.53301
4099 1 6.57847 44.3128 6.60559
539 2 -0.297832 42.7967 2.42474
327 2 13.7262 22.7122 2.45283
7691 1 3.76481 44.17 12.3562
4089 1 3.96773 41.1965 6.91086
3962 2 -0.464632 31.4625 8.08503
7621 2 -0.52382 34.1618 11.0953
498 1 6.73238 41.1849 3.85173
497 1 6.63124 41.2885 0.994445
4097 1 6.67147 41.6157 6.7796
4101 1 9.26288 41.2941 6.60537
4165 2 10.6704 45.4595 5.19638
510 1 12.1003 41.5926 3.99266
511 1 12.4677 41.3114 1.06873
506 2 10.8074 42.7594 2.48932
501 1 9.40957 41.5576 0.826631
555 2 7.9436 45.5639 2.49899
502 1 9.40041 41.3284 3.79913
4096 2 7.92624 42.6195 5.11517
503 1 9.52396 44.3108 1.27094
504 1 9.40046 43.9717 3.95108
565 1 12.1511 44.364 3.63896
569 1 12.3564 44.3668 0.97609
4103 1 9.30773 44.1241 6.67426
512 1 12.068 44.0057 6.51098
4109 1 12.2875 41.3054 6.6481
7696 2 7.64705 42.8484 10.9353
4155 2 7.79866 45.5979 8.06582
385 2 10.4542 28.665 -0.32263
7711 1 12.0972 43.9132 12.4465
3909 1 3.7871 24.5032 6.5799
3905 1 0.983549 24.3515 6.59384
3917 1 6.61222 24.2385 6.80477
3919 1 6.49965 27.0439 6.5971
4106 2 10.7636 42.6548 7.70044
7501 2 -0.00369369 22.8603 10.7772
7513 2 5.35264 22.7422 10.8558
7505 1 0.854158 24.2784 12.3471
3906 1 1.03075 24.3817 9.43568
7447 1 0.991065 21.2771 12.3235
3914 2 5.19736 25.8583 8.19796
3860 1 3.86884 21.5401 9.34373
7509 1 3.65566 24.2863 12.1183
3903 2 2.47714 23.1194 7.97282
3910 1 3.628 24.4127 9.52579
7504 2 2.49532 25.9767 10.9279
7451 1 3.77677 21.4395 12.2986
3852 1 1.03092 21.4759 9.31599
7511 1 3.70468 27.1219 12.3678
7507 1 0.924665 27.194 12.306
3908 1 0.922615 27.2472 9.66984
3912 1 3.79957 27.2048 9.5355
7517 1 6.28237 24.5209 12.1898
362 2 -0.468815 31.5177 2.43026
7519 1 6.62904 27.092 12.2594
3918 1 6.64796 24.3598 9.48877
7623 2 2.52917 34.442 13.698
3931 1 12.026 27.0867 6.52725
567 2 13.7015 45.7341 2.5274
3864 1 6.67987 21.3804 9.3299
7709 1 12.3046 41.5039 12.423
3927 2 13.6492 22.8855 8.0442
3920 1 6.7378 27.164 9.33102
3863 1 9.39977 21.5308 6.71392
7525 2 10.8663 23.1244 10.7199
7529 1 12.1508 24.3873 12.0838
3930 1 12.1997 24.3304 9.23266
7471 1 11.7661 21.5556 12.2095
3926 2 10.8042 25.8454 7.93511
3872 1 12.1852 21.5095 9.32925
7521 1 9.63061 24.5054 11.989
3915 2 8.0437 22.8539 8.14413
3922 1 9.45158 24.2807 9.09642
7516 2 8.10301 25.7405 10.887
7515 1 9.50351 21.3961 9.6456
7523 1 9.72354 27.2579 12.3295
3932 1 12.3725 27.1228 9.31766
3924 1 9.57089 27.0519 9.37006
7531 1 12.2768 27.0274 12.3356
3901 2 -0.418666 23.0018 5.17044
7765 2 10.6478 45.7751 10.6981
3971 1 3.58851 32.9289 6.70872
7573 2 5.12918 28.6486 10.9704
3963 2 2.4647 28.4929 8.14614
7565 1 0.962928 29.9809 9.28051
7567 1 1.17444 33.0118 12.2696
3974 2 5.09096 31.4226 8.16235
3968 1 1.03334 32.8604 9.23205
7569 1 1.15524 29.9641 12.0714
3970 1 3.74693 29.7628 9.58824
7564 2 2.29768 31.5332 11.007
7571 1 3.80777 30.1945 12.3462
3972 1 3.8758 32.5258 9.61283
7572 1 3.9213 32.919 12.4547
3978 1 6.72409 30.0361 9.30156
3980 1 6.59413 32.7269 9.22871
7579 1 6.53337 32.7438 12.0359
364 2 2.31627 31.93 -0.340628
4102 1 9.44606 41.3974 9.63598
388 2 13.7243 31.7665 -0.415713
7577 1 6.4637 29.7851 12.293
7585 2 10.8585 28.4043 10.8212
3975 2 8.00302 28.6875 8.01959
7589 1 12.0707 29.759 12.1128
7591 1 12.4746 32.8438 12.0373
3986 2 10.844 31.5045 8.02525
3992 1 12.2309 32.8622 9.18837
7581 1 9.26019 29.9611 12.2682
3982 1 9.57895 29.9625 9.46666
7576 2 7.98879 31.4688 10.7646
7583 1 12.461 29.9128 9.26262
3984 1 9.45378 32.7361 9.25009
7635 1 9.60944 32.716 12.0529
3987 2 13.427 28.5554 7.77333