LAMMPS (29 Oct 2020)
OMP_NUM_THREADS environment is not set. Defaulting to 1 thread. (../comm.cpp:94)
  using 1 OpenMP thread(s) per MPI task
OMP_NUM_THREADS environment is not set. Defaulting to 1 thread. (../comm.cpp:94)
  using 1 OpenMP thread(s) per MPI task
Reading data file ...
  orthogonal box = (-0.35522144 -4.2685639 -0.35644664) to (27.695221 332.34856 27.696447)
  2 by 13 by 2 MPI processor grid
  reading atoms ...
  17640 atoms
  reading velocities ...
  17640 velocities
Finding 1-2 1-3 1-4 neighbors ...
  special bond factors lj:    0.0      0.0      0.0     
  special bond factors coul:  0.0      0.0      0.0     
     0 = max # of 1-2 neighbors
     0 = max # of 1-3 neighbors
     0 = max # of 1-4 neighbors
     1 = max # of special neighbors
  special bonds CPU = 0.004 seconds
  read_data CPU = 0.063 seconds
Setting atom values ...
  11760 settings made for charge
Setting atom values ...
  5880 settings made for charge
PPPM initialization ...
  using 12-bit tables for long-range coulomb (../kspace.cpp:328)
  G vector (1/distance) = 0.29883141
  grid = 40 240 40
  stencil order = 5
  estimated absolute RMS force accuracy = 0.00015606446
  estimated relative force accuracy = 1.0838077e-05
  using single precision MKL FFT
  3d grid and FFT values/proc = 15000 7600
Neighbor list info ...
  update every 1 steps, delay 0 steps, check yes
  max neighbors/atom: 2000, page size: 100000
  master list distance cutoff = 11.3
  ghost atom cutoff = 11.3
  binsize = 5.65, bins = 5 60 5
  2 neighbor lists, perpetual/occasional/extra = 2 0 0
  (1) pair coul/long, perpetual
      attributes: half, newton on
      pair build: half/bin/newton
      stencil: half/bin/3d/newton
      bin: standard
  (2) pair eam/alloy, perpetual, copy from (1)
      attributes: half, newton on
      pair build: copy
      stencil: none
      bin: none
Setting up Verlet run ...
  Unit style    : metal
  Current step  : 0
  Time step     : 0.001
Per MPI rank memory allocation (min/avg/max) = 8.152 | 8.179 | 8.200 Mbytes
Step Temp E_pair E_mol TotEng Press 
       0          600   -230450.93            0   -229082.92    544.64604 
  100000    595.43213    -230465.3            0    -229107.7    70.317392 
Loop time of 642.491 on 52 procs for 100000 steps with 17640 atoms

Performance: 13.448 ns/day, 1.785 hours/ns, 155.644 timesteps/s
99.8% CPU use with 52 MPI tasks x 1 OpenMP threads

MPI task timing breakdown:
Section |  min time  |  avg time  |  max time  |%varavg| %total
---------------------------------------------------------------
Pair    | 426.84     | 441.67     | 461.02     |  39.8 | 68.74
Bond    | 0.0062871  | 0.010438   | 0.015802   |   2.2 |  0.00
Kspace  | 126.04     | 147.41     | 162.57     |  70.3 | 22.94
Neigh   | 30.549     | 34.094     | 37.384     |  26.2 |  5.31
Comm    | 13.821     | 14.759     | 17.117     |  23.5 |  2.30
Output  | 5.6013e-05 | 6.1688e-05 | 0.00026203 |   0.0 |  0.00
Modify  | 1.705      | 3.2696     | 5.1774     |  66.5 |  0.51
Other   |            | 1.28       |            |       |  0.20

Nlocal:        339.231 ave         375 max         319 min
Histogram: 3 4 8 23 6 4 2 1 0 1
Nghost:        4093.63 ave        4269 max        3967 min
Histogram: 5 7 3 15 7 3 1 6 1 4
Neighs:        67453.8 ave       75829 max       59463 min
Histogram: 4 1 2 3 14 19 2 5 1 1

Total # of neighbors = 3507596
Ave neighs/atom = 198.84331
Ave special neighs/atom = 0.0000000
Neighbor list builds = 16221
Dangerous builds = 0
11760 atoms in group oxygen
PPPM initialization ...
  using 12-bit tables for long-range coulomb (../kspace.cpp:328)
  G vector (1/distance) = 0.29883141
  grid = 40 240 40
  stencil order = 5
  estimated absolute RMS force accuracy = 0.00015606446
  estimated relative force accuracy = 1.0838077e-05
  using single precision MKL FFT
  3d grid and FFT values/proc = 15000 7600
Setting up Verlet run ...
  Unit style    : metal
  Current step  : 0
  Time step     : 0.001
Per MPI rank memory allocation (min/avg/max) = 8.403 | 8.429 | 8.451 Mbytes
Step f_2 Temp v_Tdiff v_deltaT 
       0            0    595.43213            0            0 
  100000    1159.6633    596.89576  0.030810059    357.70193 
  200000    2279.6351    593.97723  0.034387191     399.2321 
  300000    3399.4382    594.57555  0.034359652    398.91237 
  400000    4519.3528     598.5297    0.0332371    385.87964 
  500000    5644.0501    595.77286  0.034081561    395.68375 
  600000    6759.4449    593.64281  0.034187783    396.91698 
  700000     7875.203     591.8329  0.034233237     397.4447 
  800000    8997.5672    598.87995  0.033850909     393.0059 
  900000    10114.505    600.08241  0.034223808    397.33523 
 1000000    11233.736    598.59216  0.034128239    396.22569 
Loop time of 6426.87 on 52 procs for 1000000 steps with 17640 atoms

Performance: 13.444 ns/day, 1.785 hours/ns, 155.597 timesteps/s
99.9% CPU use with 52 MPI tasks x 1 OpenMP threads

MPI task timing breakdown:
Section |  min time  |  avg time  |  max time  |%varavg| %total
---------------------------------------------------------------
Pair    | 4199.4     | 4381.5     | 4606.3     | 137.2 | 68.17
Bond    | 0.066215   | 0.10245    | 0.15235    |   6.2 |  0.00
Kspace  | 1252       | 1500.6     | 1688.3     | 242.6 | 23.35
Neigh   | 319.61     | 358.92     | 394        |  89.3 |  5.58
Comm    | 139.38     | 149.54     | 178.05     |  83.1 |  2.33
Output  | 0.0010498  | 0.0011114  | 0.0023578  |   0.5 |  0.00
Modify  | 5.9101     | 6.5701     | 7.5381     |  18.7 |  0.10
Other   |            | 29.61      |            |       |  0.46

Nlocal:        339.231 ave         373 max         316 min
Histogram: 3 4 8 11 11 9 3 1 1 1
Nghost:        4101.40 ave        4236 max        3914 min
Histogram: 4 0 1 7 7 10 6 5 6 6
Neighs:        67462.2 ave       74929 max       57680 min
Histogram: 2 3 3 0 5 11 19 5 2 2

Total # of neighbors = 3508033
Ave neighs/atom = 198.86808
Ave special neighs/atom = 0.0000000
Neighbor list builds = 170351
Dangerous builds = 0
Total wall time: 1:57:49
