ITEM: TIMESTEP
60000
ITEM: NUMBER OF ATOMS
17640
ITEM: BOX BOUNDS pp pp pp
-3.9531187657277506e-01 2.7735311876572407e+01
-4.7402450564996190e+00 3.3282024505648781e+02
-3.9361451674117964e-01 2.7733614516741419e+01
ITEM: ATOMS id type q x y z
1 2 2.2208 5.29418 0.744372 5.36695
2 1 -1.1104 1.03231 -3.466 1.03272
3 1 -1.1104 1.19173 2.476 1.03814
6 1 -1.1104 1.15019 -3.42088 3.86933
7 1 -1.1104 1.34057 2.04187 3.98716
10 1 -1.1104 1.34767 -0.601865 1.00528
12 2 2.2208 5.40779 -1.99511 2.57167
14 1 -1.1104 1.20098 -0.675383 3.83065
16 1 -1.1104 3.86469 -3.37935 1.00161
17 1 -1.1104 3.88025 2.24942 0.939612
18 2 2.2208 2.60419 0.866852 2.32019
19 1 -1.1104 3.99678 -3.4995 3.97314
20 1 -1.1104 3.98196 2.18593 3.72791
21 2 2.2208 2.60843 -1.997 5.30009
22 2 2.2208 2.64681 3.59792 5.11736
23 1 -1.1104 4.00604 -0.588987 1.17535
24 1 -1.1104 3.85752 -0.678854 3.99136
13 2 2.2208 5.41526 3.53811 2.54613
25 2 2.2208 -0.23342 -2.03043 2.4713
26 2 2.2208 -0.295103 0.793923 5.4155
27 2 2.2208 -0.326277 3.58347 2.52283
397 2 2.2208 -0.19823 6.43312 -0.284806
383 2 2.2208 2.63693 3.65794 -0.286535
382 2 2.2208 2.52964 -1.99663 -0.37272
166 1 -1.1104 1.13798 -3.4074 6.73418
399 2 2.2208 8.03544 9.25743 -0.292421
199 2 2.2208 -0.121213 3.65257 8.05347
387 2 2.2208 11.0686 0.880762 -0.386892
5 1 -1.1104 6.7615 2.09999 1.23764
8 1 -1.1104 6.75434 -3.54 3.96107
11 1 -1.1104 6.96967 -0.563243 1.02733
4 1 -1.1104 6.76031 -3.32205 1.07585
15 1 -1.1104 6.84803 -0.355998 3.73469
9 1 -1.1104 6.71965 2.36902 3.94974
31 2 2.2208 11.0029 0.858177 5.43229
32 1 -1.1104 12.3308 -3.48872 1.13497
33 1 -1.1104 12.4269 2.26707 0.97081
34 1 -1.1104 12.527 -3.23082 3.89561
35 1 -1.1104 12.5815 2.29461 3.86843
36 1 -1.1104 12.5792 -0.675342 1.33575
37 2 2.2208 11.0823 -1.96148 2.60886
39 1 -1.1104 12.4034 -0.504571 3.9787
40 1 -1.1104 9.56321 -3.36906 1.28185
41 1 -1.1104 9.43769 2.30449 1.09488
42 2 2.2208 8.25655 0.81232 2.44601
43 1 -1.1104 9.60144 -3.26994 3.78549
44 1 -1.1104 9.62935 2.24382 4.17618
45 2 2.2208 8.14617 -2.06177 5.40001
47 1 -1.1104 9.80924 -0.479461 1.29613
48 1 -1.1104 9.70035 -0.445922 4.06473
46 2 2.2208 8.1811 3.57938 5.26491
38 2 2.2208 11.0263 3.51545 2.46851
202 2 2.2208 2.56613 -4.6827 8.08554
30 2 2.2208 -0.291381 -4.75972 5.27699
171 1 -1.1104 6.82546 -0.537324 6.58141
111 1 -1.1104 7.06407 13.5097 6.81083
306 1 -1.1104 6.87597 16.4068 12.3791
389 2 2.2208 8.09285 3.61789 -0.383629
54 2 2.2208 5.38967 6.55871 5.27212
55 2 2.2208 5.46236 12.0899 5.40788
56 1 -1.1104 1.20778 7.80234 1.29349
58 1 -1.1104 1.2912 7.73748 3.94699
60 1 -1.1104 1.10131 5.03603 1.22123
61 1 -1.1104 1.24676 10.6155 0.951364
66 2 2.2208 5.39294 9.16732 2.48825
67 1 -1.1104 1.00854 4.87898 4.08668
68 1 -1.1104 1.15741 10.601 3.85661
71 1 -1.1104 4.02439 7.56118 1.12356
72 2 2.2208 2.59297 6.49477 2.57064
73 2 2.2208 2.60972 11.9468 2.39688
74 1 -1.1104 4.03651 7.76637 3.89037
75 2 2.2208 2.4549 9.30877 5.3331
76 1 -1.1104 3.88148 4.89538 1.23028
77 1 -1.1104 4.11674 10.5037 1.13614
79 1 -1.1104 4.03677 5.05432 3.95914
80 1 -1.1104 3.95637 10.5088 3.90475
400 2 2.2208 10.9623 12.0312 -0.222132
381 2 2.2208 5.29262 0.856909 -0.360044
393 2 2.2208 5.46407 6.49108 -0.282307
81 2 2.2208 -0.136545 6.35344 5.45642
394 2 2.2208 2.61553 9.27268 -0.309388
402 2 2.2208 13.6724 9.22733 -0.235111
63 1 -1.1104 6.69858 4.86608 0.938102
82 2 2.2208 -0.315244 9.13856 2.58834
385 2 2.2208 5.35305 -4.66265 -0.331913
314 1 -1.1104 9.49684 16.2105 9.67663
323 1 -1.1104 12.4582 16.2504 9.65146
64 1 -1.1104 7.00032 10.7723 1.0835
57 1 -1.1104 6.83451 7.89689 1.04542
59 1 -1.1104 6.77635 7.82838 3.75817
70 1 -1.1104 6.63222 10.7129 4.01163
69 1 -1.1104 6.67655 5.09431 3.83001
84 2 2.2208 11.0168 6.38608 5.29831
85 2 2.2208 10.9984 12.1745 5.46289
86 1 -1.1104 12.2383 7.72544 1.1073
87 1 -1.1104 12.362 7.83539 4.00795
88 1 -1.1104 12.5521 4.83869 1.23723
89 1 -1.1104 12.2708 10.3961 1.20208
91 2 2.2208 10.8279 9.21335 2.61605
92 1 -1.1104 12.3616 4.9617 3.82765
93 1 -1.1104 12.3498 10.7963 4.02563
94 1 -1.1104 9.43025 7.67116 1.16089
95 2 2.2208 8.05975 6.39055 2.43261
96 2 2.2208 8.20677 12.1156 2.47601
97 1 -1.1104 9.46467 7.81991 3.95404
98 2 2.2208 8.15685 9.37074 5.32835
99 1 -1.1104 9.56464 4.9195 1.18522
100 1 -1.1104 9.59219 10.6068 1.13832
102 1 -1.1104 9.63684 4.92523 4.00158
103 1 -1.1104 9.59538 10.6204 3.85513
388 2 2.2208 8.28341 -1.88628 -0.252177
156 1 -1.1104 9.70091 19.0268 6.8245
235 1 -1.1104 6.70869 8.01529 6.75108
136 2 2.2208 -0.25176 20.3747 2.6405
378 2 2.2208 11.229 17.5945 -0.246626
137 2 2.2208 -0.22184 17.6223 5.46808
135 2 2.2208 -0.195416 14.8164 2.70242
106 2 2.2208 5.43874 17.5684 5.4026
107 1 -1.1104 0.987702 13.3826 1.19741
109 1 -1.1104 1.28841 19.1867 1.32376
113 1 -1.1104 1.35511 13.3245 3.97768
114 1 -1.1104 1.17266 18.9204 4.08915
116 1 -1.1104 1.16558 16.1712 1.1985
119 2 2.2208 5.37015 14.7103 2.6229
120 2 2.2208 5.56741 20.2303 2.60143
121 1 -1.1104 1.25671 16.1146 3.9219
123 1 -1.1104 3.9401 13.4327 1.09741
125 1 -1.1104 3.9433 19.011 1.16678
127 2 2.2208 2.61742 17.607 2.68906
128 1 -1.1104 4.18667 13.3174 3.95201
129 1 -1.1104 4.22843 18.7772 3.80671
130 2 2.2208 2.73365 14.7287 5.40434
131 2 2.2208 2.69833 20.4608 5.11421
132 1 -1.1104 3.95593 16.199 1.3463
134 1 -1.1104 4.04624 15.9973 4.1111
139 1 -1.1104 6.83318 19.1817 4.21442
403 2 2.2208 2.63064 14.8416 -0.303296
342 2 2.2208 -0.257153 12.0995 11.1396
149 1 -1.1104 12.4173 16.3828 6.86889
386 2 2.2208 -0.246781 0.882755 -0.263901
83 2 2.2208 -0.186303 12.1632 5.38593
115 1 -1.1104 6.91445 13.3795 3.99637
140 1 -1.1104 6.86488 16.3771 1.21608
122 1 -1.1104 6.97879 16.2583 3.98591
110 1 -1.1104 6.72072 13.4666 1.11002
138 1 -1.1104 6.8162 19.0143 1.24154
141 2 2.2208 11.1493 17.8291 5.41371
142 1 -1.1104 12.4665 13.3039 1.3058
144 1 -1.1104 12.3907 19.0347 1.09265
146 1 -1.1104 12.4525 13.4848 4.09162
147 1 -1.1104 12.3898 19.1386 3.87724
148 1 -1.1104 12.4521 16.1762 1.17553
150 2 2.2208 10.9397 14.9489 2.6587
151 2 2.2208 11.0974 20.5019 2.57625
152 1 -1.1104 12.5888 16.4347 3.97173
153 1 -1.1104 9.62025 13.5267 1.23328
155 1 -1.1104 9.51333 19.2469 1.36295
157 2 2.2208 8.2506 17.7096 2.61986
158 1 -1.1104 9.6384 13.5297 4.16186
159 1 -1.1104 9.62553 19.1746 4.02718
160 2 2.2208 8.29483 14.8572 5.3724
161 2 2.2208 8.25775 20.6137 5.30981
162 1 -1.1104 9.66725 16.3487 1.13704
164 1 -1.1104 9.90637 16.4193 3.96084
311 2 2.2208 -0.283935 20.5129 8.28018
145 1 -1.1104 12.3676 19.1217 6.83905
143 1 -1.1104 12.4761 13.4109 6.76243
163 1 -1.1104 9.58926 16.2878 6.85319
173 1 -1.1104 3.96853 2.23255 6.7394
167 1 -1.1104 1.18173 2.1479 6.69164
172 1 -1.1104 4.15333 -3.1926 6.67743
317 2 2.2208 8.14824 14.9089 11.104
170 1 -1.1104 1.15407 -0.667628 6.72644
174 1 -1.1104 3.98919 -0.374267 6.77581
175 2 2.2208 5.52948 0.779122 11.1515
176 1 -1.1104 1.33347 -3.26442 12.5584
177 1 -1.1104 1.3248 2.114 12.3415
180 1 -1.1104 1.28267 -3.28593 9.35632
181 1 -1.1104 1.23651 2.42887 9.46198
184 1 -1.1104 1.37383 -0.597193 12.4516
186 2 2.2208 5.32512 -1.82503 8.16076
188 1 -1.1104 1.17999 -0.529289 9.55912
190 1 -1.1104 4.13144 -3.69661 12.5204
191 1 -1.1104 4.11188 2.17624 12.4011
192 2 2.2208 2.4741 0.758615 8.21592
193 1 -1.1104 3.94328 -3.34297 9.544
194 1 -1.1104 4.04726 2.06563 9.64795
195 2 2.2208 2.68346 -2.04515 11.0914
197 1 -1.1104 4.18133 -0.754692 12.2888
198 1 -1.1104 3.98575 -0.647134 9.64335
196 2 2.2208 2.62164 3.56587 10.962
187 2 2.2208 5.31508 3.54242 8.06975
201 2 2.2208 -0.192243 0.739748 11.0013
200 2 2.2208 -0.196783 -1.99087 8.12203
183 1 -1.1104 6.81161 2.22712 9.63433
288 1 -1.1104 6.9996 19.2002 9.59539
316 2 2.2208 8.13849 20.5228 10.8349
320 2 2.2208 8.19723 17.7285 8.27355
208 1 -1.1104 9.7083 -3.6447 6.70274
209 1 -1.1104 9.70545 2.12422 6.86132
189 1 -1.1104 6.99753 -0.526748 9.50479
210 1 -1.1104 9.46777 -0.761647 6.85817
207 1 -1.1104 12.5112 -0.458445 6.87936
205 1 -1.1104 12.5341 -3.20294 6.72685
168 1 -1.1104 6.83414 -3.54916 6.65356
185 1 -1.1104 6.9071 -0.34158 12.5842
179 1 -1.1104 6.92328 2.30172 12.3583
178 1 -1.1104 6.85202 -3.27299 12.3609
182 1 -1.1104 6.86792 -3.40783 9.59872
169 1 -1.1104 6.8353 2.14978 6.91571
206 1 -1.1104 12.6177 2.19227 6.71761
211 2 2.2208 11.1069 0.813972 10.9025
212 1 -1.1104 12.5661 -3.22792 12.4446
213 1 -1.1104 12.5078 2.36845 12.4054
214 1 -1.1104 12.4436 -3.53254 9.67108
215 1 -1.1104 12.6285 2.15351 9.60289
216 1 -1.1104 12.495 -0.344429 12.2614
217 2 2.2208 11.0833 -1.96935 8.15148
219 1 -1.1104 12.6028 -0.681296 9.57685
220 1 -1.1104 9.71416 -3.27108 12.3608
221 1 -1.1104 9.70265 2.27996 12.2774
222 2 2.2208 8.26825 0.81564 8.21899
223 1 -1.1104 9.88836 -3.44825 9.40153
224 1 -1.1104 9.74726 2.22017 9.39999
225 2 2.2208 8.45703 -1.919 10.9363
227 1 -1.1104 9.6852 -0.373738 12.3997
228 1 -1.1104 9.78482 -0.532835 9.56926
218 2 2.2208 11.076 3.56591 8.00622
226 2 2.2208 8.36011 3.61763 10.8155
238 1 -1.1104 3.96537 7.92367 6.76721
239 1 -1.1104 3.91007 4.94512 6.53567
405 2 2.2208 2.61618 20.4402 -0.357329
234 1 -1.1104 1.1406 7.95017 6.7978
78 1 -1.1104 3.947 10.855 6.78664
236 1 -1.1104 1.16373 5.19402 6.76331
62 1 -1.1104 1.20821 10.7959 6.59033
240 2 2.2208 5.53742 6.47104 10.9104
241 2 2.2208 5.3614 12.1021 10.9549
242 1 -1.1104 1.01223 7.85265 12.4842
244 1 -1.1104 1.35034 7.73478 9.66778
246 1 -1.1104 1.31949 4.85163 12.3347
247 1 -1.1104 1.35205 10.6714 12.3883
250 2 2.2208 5.37699 9.24527 8.19829
251 1 -1.1104 1.29714 5.10929 9.59493
252 1 -1.1104 1.26234 10.5164 9.48097
255 1 -1.1104 4.15193 7.76385 12.2597
256 2 2.2208 2.78373 6.40846 8.05629
257 2 2.2208 2.41436 12.0253 8.03695
258 1 -1.1104 4.26505 7.68669 9.37231
259 2 2.2208 2.49635 9.18065 11.0081
260 1 -1.1104 4.0473 5.0539 12.4586
261 1 -1.1104 4.15425 10.6037 12.4531
262 1 -1.1104 3.92351 4.8761 9.4617
263 1 -1.1104 4.02479 10.5625 9.74159
343 2 2.2208 -0.181683 9.29895 8.19858
344 2 2.2208 0.0114796 6.37191 11.0292
90 1 -1.1104 12.487 10.4963 6.94703
265 1 -1.1104 12.2759 7.71855 6.75818
237 1 -1.1104 6.56154 5.00204 6.58596
269 1 -1.1104 9.54877 5.07811 6.6522
101 1 -1.1104 9.64233 10.6535 6.82056
267 1 -1.1104 9.46885 7.9745 6.77059
248 1 -1.1104 6.99337 5.15599 12.123
243 1 -1.1104 7.03175 7.93499 12.4132
65 1 -1.1104 6.84663 10.6413 6.81135
266 1 -1.1104 12.4441 4.93924 6.5439
253 1 -1.1104 6.71282 5.2372 9.20973
249 1 -1.1104 6.80746 10.8614 12.4407
254 1 -1.1104 7.02137 10.584 9.61308
245 1 -1.1104 6.93842 7.91107 9.67275
264 1 -1.1104 9.79499 10.6303 9.56333
268 1 -1.1104 9.7385 5.08563 9.43475
270 1 -1.1104 9.79014 10.6211 12.5011
271 1 -1.1104 9.79804 5.0969 12.1409
272 2 2.2208 8.47608 9.23344 10.9208
273 1 -1.1104 9.76531 7.75568 9.46195
274 2 2.2208 8.16206 11.999 8.17295
275 2 2.2208 8.12297 6.43204 8.09115
276 2 2.2208 10.9639 6.46497 10.8633
277 2 2.2208 11.1024 12.1097 10.997
278 1 -1.1104 12.4702 8.00549 12.3922
279 1 -1.1104 12.45 7.87877 9.559
280 1 -1.1104 12.6329 5.02712 12.1675
281 1 -1.1104 12.4348 10.7546 12.3852
282 2 2.2208 11.0228 9.24548 8.15828
283 1 -1.1104 12.4715 5.05834 9.4352
284 1 -1.1104 12.4174 10.6889 9.71587
285 1 -1.1104 9.82411 8.02216 12.2881
126 1 -1.1104 4.14186 19.1985 6.55659
118 1 -1.1104 6.77117 16.1314 6.88909
312 2 2.2208 -0.155654 17.6884 11.074
124 1 -1.1104 4.18573 13.47 6.85896
117 1 -1.1104 1.10689 16.1494 6.67387
108 1 -1.1104 1.38371 13.5058 6.722
302 1 -1.1104 1.0566 19.0575 7.01149
313 2 2.2208 -0.228913 14.8452 8.20618
133 1 -1.1104 3.89576 16.3726 6.80094
310 2 2.2208 2.57479 14.8643 10.8393
309 2 2.2208 2.45491 20.6055 10.8161
308 1 -1.1104 4.02954 16.349 12.3082
307 1 -1.1104 1.1206 16.2118 12.2901
305 1 -1.1104 3.92258 13.5927 9.56666
304 1 -1.1104 4.01421 16.3724 9.58526
303 2 2.2208 2.61687 17.8568 8.1681
301 1 -1.1104 4.02371 19.0127 9.52121
300 2 2.2208 5.43166 17.7336 10.9627
286 1 -1.1104 3.93991 19.1396 12.1398
299 1 -1.1104 1.04069 13.3591 12.5245
298 1 -1.1104 1.04926 19.1809 12.4502
295 2 2.2208 5.45951 14.9 8.32328
294 1 -1.1104 1.09955 13.2944 9.49372
293 2 2.2208 5.48458 20.565 8.14996
292 1 -1.1104 1.26256 16.3446 9.49493
291 1 -1.1104 1.13345 19.2483 9.76521
287 1 -1.1104 3.99951 13.5288 12.3524
398 2 2.2208 10.8826 6.42517 -0.257592
112 1 -1.1104 6.77951 18.9402 6.93838
289 1 -1.1104 6.75805 16.3903 9.73821
325 2 2.2208 10.9674 14.8847 8.05872
321 1 -1.1104 9.68653 19.0406 12.0798
296 1 -1.1104 6.72395 19.2078 12.4878
297 1 -1.1104 6.8606 13.549 12.3843
331 2 2.2208 11.0251 17.5909 10.9049
324 2 2.2208 10.8878 20.5475 8.06764
290 1 -1.1104 6.71655 13.5302 9.76981
327 1 -1.1104 12.4142 19.1412 9.53531
328 1 -1.1104 12.5317 13.533 9.633
315 1 -1.1104 9.66044 16.335 12.5487
318 1 -1.1104 9.61655 19.0621 9.47496
326 1 -1.1104 12.3694 16.3973 12.3569
154 1 -1.1104 9.77614 13.5775 6.76016
319 1 -1.1104 9.68923 13.4417 9.50592
330 1 -1.1104 12.4554 13.6556 12.3532
322 1 -1.1104 9.62253 13.2925 12.3649
329 1 -1.1104 12.5485 19.1984 12.4402
360 2 2.2208 5.53678 9.18131 13.6827
396 2 2.2208 -0.300833 11.992 -0.13553
379 2 2.2208 8.22612 20.5457 -0.109307
377 2 2.2208 8.27551 14.9186 -0.336619
404 2 2.2208 5.37102 17.5547 -0.144522
232 2 2.2208 11.1929 -4.7201 11.1798
28 2 2.2208 2.52838 -4.6752 2.48533
401 2 2.2208 -0.135371 17.6097 -0.236525
359 2 2.2208 2.63898 6.39103 13.627
395 2 2.2208 5.43058 12.1056 -0.212596
350 2 2.2208 -0.244853 20.764 13.6629
406 2 2.2208 5.39483 0.863452 16.5203
407 1 -1.1104 1.12803 -3.14962 17.9991
408 1 -1.1104 1.13327 2.41303 18.1569
411 1 -1.1104 1.05114 -3.30081 15.3381
413 1 -1.1104 1.01691 2.40277 15.1333
419 1 -1.1104 1.1933 -0.361766 17.9213
421 2 2.2208 5.24618 -1.93283 19.4031
422 2 2.2208 5.47927 3.74827 19.4177
423 1 -1.1104 1.01925 -0.496144 15.1078
427 1 -1.1104 3.76107 -3.24965 17.8641
428 1 -1.1104 4.11387 2.31937 17.9149
429 2 2.2208 2.53981 0.858152 19.2988
430 1 -1.1104 3.95639 -3.33283 15.2771
432 1 -1.1104 4.12159 2.47786 15.3641
434 2 2.2208 2.39007 -1.89854 16.4881
436 1 -1.1104 4.01842 -0.579413 17.9073
437 1 -1.1104 4.00119 -0.370556 15.1201
435 2 2.2208 2.82993 3.90367 16.7234
544 2 2.2208 -0.134728 3.72019 19.5261
352 2 2.2208 5.56782 3.79808 13.7718
443 2 2.2208 -0.283841 -1.76817 19.5286
442 2 2.2208 -0.25695 1.01673 16.6735
346 2 2.2208 -0.142185 -1.96345 13.9052
349 2 2.2208 2.55007 1.09436 13.9039
441 2 2.2208 2.37337 -4.65373 19.128
433 1 -1.1104 3.93195 2.22446 20.9909
700 2 2.2208 8.24582 20.4206 22.3338
663 1 -1.1104 12.642 16.2264 26.5445
363 2 2.2208 8.34744 6.58092 13.7082
420 1 -1.1104 6.93146 -0.609395 18.0368
410 1 -1.1104 6.83621 2.35678 17.9069
409 1 -1.1104 6.76305 -3.42372 17.9451
417 1 -1.1104 6.94604 2.22643 15.0124
415 1 -1.1104 6.72987 -3.55184 15.3366
425 1 -1.1104 6.86603 -0.626622 15.3475
449 2 2.2208 11.1612 0.678965 16.6877
450 1 -1.1104 12.5608 -3.35339 17.9339
451 1 -1.1104 12.4592 2.26802 18.0968
452 1 -1.1104 12.3489 -3.52633 15.0967
454 1 -1.1104 12.4451 2.087 15.4351
456 1 -1.1104 12.685 -0.504835 17.9421
457 2 2.2208 11.1342 -2.01715 19.2554
459 1 -1.1104 12.4504 -0.640692 15.1484
461 1 -1.1104 9.71053 -3.41677 17.9442
462 1 -1.1104 9.68812 2.10499 18.1342
463 2 2.2208 8.1633 0.885839 19.401
464 1 -1.1104 9.58879 -3.30227 15.2054
466 1 -1.1104 9.75442 2.42114 15.2783
468 2 2.2208 8.2741 -2.04061 16.612
469 2 2.2208 8.30782 3.62114 16.691
470 1 -1.1104 9.72614 -0.544103 17.9921
471 1 -1.1104 9.65079 -0.519654 15.2079
458 2 2.2208 10.9725 3.61124 19.4056
358 2 2.2208 -0.117409 9.35756 13.8085
355 2 2.2208 8.45304 1.07707 13.8759
356 2 2.2208 11.0037 -1.99066 13.8791
376 2 2.2208 8.33143 17.8466 13.6838
639 2 2.2208 5.40278 -4.73183 22.1562
482 2 2.2208 5.34708 6.50444 16.4719
483 2 2.2208 5.457 12.209 16.5343
484 1 -1.1104 1.29499 8.08459 18.1662
486 1 -1.1104 1.51295 7.90248 15.1025
490 1 -1.1104 1.27479 5.22352 18.0624
491 1 -1.1104 1.42558 10.8849 17.9856
494 2 2.2208 5.42777 9.21452 19.3078
495 1 -1.1104 1.40165 5.24668 15.2332
497 1 -1.1104 1.09995 10.8041 15.2505
503 1 -1.1104 4.01635 7.89325 17.9015
504 2 2.2208 2.71555 6.5834 19.427
505 2 2.2208 2.67498 12.2134 19.4261
506 1 -1.1104 4.14951 8.11114 15.1724
508 2 2.2208 2.81786 9.45055 16.4985
509 1 -1.1104 4.23371 5.29514 18.0283
510 1 -1.1104 4.37432 10.7093 17.863
511 1 -1.1104 4.16444 5.20781 15.1417
513 1 -1.1104 4.07098 10.7891 15.158
516 2 2.2208 -0.264728 12.2517 16.5739
515 2 2.2208 -0.159073 9.26315 19.4339
481 2 2.2208 -0.0168375 6.49707 16.731
361 2 2.2208 2.65498 12.1532 13.9022
492 1 -1.1104 6.93521 4.98005 17.9023
501 1 -1.1104 6.94674 10.8316 15.1994
514 1 -1.1104 3.99717 10.6585 20.758
351 2 2.2208 -0.173693 14.9865 13.8912
637 2 2.2208 -0.203473 -4.62553 22.1762
365 2 2.2208 8.12433 12.087 13.8108
488 1 -1.1104 6.93663 7.78173 15.1863
485 1 -1.1104 6.83913 7.82955 17.8349
499 1 -1.1104 6.89008 4.99299 15.2586
493 1 -1.1104 6.74738 10.5171 17.8637
518 2 2.2208 11.0451 6.48606 16.496
519 2 2.2208 10.9531 12.1998 16.6406
520 1 -1.1104 12.497 7.84923 17.9975
521 1 -1.1104 12.7657 7.96088 15.1827
523 1 -1.1104 12.3911 5.0667 18.0077
524 1 -1.1104 12.4405 10.9138 18.0858
525 2 2.2208 11.0929 9.34261 19.2891
526 1 -1.1104 12.3547 5.24852 15.1657
528 1 -1.1104 12.501 10.6862 15.3666
530 1 -1.1104 9.70112 7.85425 18.1677
531 2 2.2208 8.11733 6.56684 19.3553
532 2 2.2208 8.13682 12.1285 19.3003
533 1 -1.1104 9.63874 7.9179 15.2405
535 2 2.2208 8.19722 9.35838 16.5887
536 1 -1.1104 9.71262 4.95697 17.8804
537 1 -1.1104 9.54454 10.7123 17.9686
538 1 -1.1104 9.52801 5.18253 15.096
540 1 -1.1104 9.68811 10.8658 15.1342
725 2 2.2208 -0.111398 14.8702 24.9338
502 1 -1.1104 6.91279 10.5382 20.7799
348 2 2.2208 5.38537 -1.87071 13.8503
476 2 2.2208 -0.237553 20.6611 19.5132
369 2 2.2208 5.38413 20.5315 13.7426
545 2 2.2208 5.50538 17.7137 16.6535
546 1 -1.1104 1.40828 13.5407 17.9905
547 1 -1.1104 1.19716 19.1793 18.0393
550 1 -1.1104 1.13592 13.6865 15.2897
552 1 -1.1104 1.40651 19.2142 15.0336
558 1 -1.1104 1.21685 16.5038 17.9667
560 2 2.2208 5.63079 14.8663 19.5534
561 2 2.2208 5.42218 20.4734 19.4034
562 1 -1.1104 1.3701 16.3429 15.3025
566 1 -1.1104 4.21331 13.5768 18.1604
567 1 -1.1104 4.08432 19.0235 18.1161
568 2 2.2208 2.74156 17.8436 19.3927
569 1 -1.1104 4.00312 13.495 15.3208
571 1 -1.1104 4.18107 19.1523 15.3876
573 2 2.2208 2.74217 14.9652 16.8187
574 2 2.2208 2.72058 20.5802 16.5221
575 1 -1.1104 4.18667 16.4825 18.0183
576 1 -1.1104 4.16759 16.1692 15.2635
448 2 2.2208 -0.309251 15.1276 19.4573
368 2 2.2208 2.66144 17.8061 13.7891
669 2 2.2208 8.19336 -4.73686 24.9407
638 2 2.2208 11.156 14.9598 25.0998
371 2 2.2208 5.45521 14.8963 13.7169
367 2 2.2208 -0.215612 3.76413 13.8621
373 2 2.2208 11.0752 14.804 13.7884
555 1 -1.1104 6.8818 13.5654 20.904
357 2 2.2208 11.1154 3.79467 13.7236
559 1 -1.1104 7.01694 16.4396 17.9604
556 1 -1.1104 6.85296 19.1419 15.1557
548 1 -1.1104 6.89542 13.4244 17.8789
564 1 -1.1104 6.70097 16.337 15.185
554 1 -1.1104 6.84151 13.5905 15.1712
549 1 -1.1104 6.7553 19.1351 18.0745
581 2 2.2208 10.9761 17.8101 16.5305
582 1 -1.1104 12.4849 13.5506 17.9048
583 1 -1.1104 12.5065 19.3271 18.0783
584 1 -1.1104 12.4997 13.4225 15.056
586 1 -1.1104 12.5443 18.9677 15.2671
588 1 -1.1104 12.4432 16.2398 17.9555
589 2 2.2208 11.2235 14.8862 19.4758
590 2 2.2208 11.1616 20.5651 19.2591
591 1 -1.1104 12.4484 16.3383 15.125
593 1 -1.1104 9.56816 13.6691 18.2012
594 1 -1.1104 9.67445 19.1406 17.968
595 2 2.2208 8.36714 17.6873 19.487
596 1 -1.1104 9.50444 13.4669 15.2127
598 1 -1.1104 9.65399 19.1706 15.1186
600 2 2.2208 8.25735 14.9647 16.5576
601 2 2.2208 8.17433 20.3997 16.5036
602 1 -1.1104 9.88826 16.3613 18.0658
603 1 -1.1104 9.53209 16.3992 15.3499
597 1 -1.1104 9.63802 13.6554 20.9473
604 1 -1.1104 9.85184 16.3665 20.9229
667 2 2.2208 8.24687 17.6013 25.0612
587 1 -1.1104 12.5268 19.0475 20.7614
599 1 -1.1104 9.90021 19.1834 20.8699
424 1 -1.1104 1.01582 -0.36657 20.7106
673 1 -1.1104 9.73322 13.5548 26.5291
412 1 -1.1104 1.07061 -3.35577 20.7135
431 1 -1.1104 3.89425 -3.32841 20.6944
643 2 2.2208 -0.235615 1.01867 22.2315
414 1 -1.1104 1.32077 2.53688 20.9644
438 1 -1.1104 3.71486 -0.552261 20.7412
609 2 2.2208 5.2655 0.915031 22.2332
610 1 -1.1104 1.1361 -3.46221 23.644
611 1 -1.1104 1.21939 2.2944 23.6345
614 1 -1.1104 1.08606 -3.38034 26.4501
615 1 -1.1104 1.06975 2.22347 26.3425
618 1 -1.1104 1.15947 -0.529395 23.6559
620 2 2.2208 5.40999 -2.05426 25.0622
622 1 -1.1104 0.953925 -0.402797 26.3721
624 1 -1.1104 3.91996 -3.31822 23.6247
625 1 -1.1104 3.84392 2.37088 23.7551
626 2 2.2208 2.43341 0.856494 25.0923
627 1 -1.1104 3.90837 -3.2686 26.3101
628 1 -1.1104 3.99162 2.45396 26.4388
629 2 2.2208 2.65962 -1.95272 22.283
630 2 2.2208 2.80354 3.7418 22.4096
631 1 -1.1104 3.90578 -0.652216 23.6476
632 1 -1.1104 3.73634 -0.473144 26.4729
621 2 2.2208 5.55696 3.58904 25.1847
644 2 2.2208 -0.27358 3.6101 25.0574
642 2 2.2208 -0.199881 -1.96657 24.9764
372 2 2.2208 11.1801 20.5669 13.6825
453 1 -1.1104 12.6474 -3.35175 20.6466
418 1 -1.1104 6.84993 2.29168 20.7841
472 1 -1.1104 9.62908 -0.742916 20.6697
460 1 -1.1104 12.5072 -0.591136 20.7811
426 1 -1.1104 6.70525 -0.404148 20.7815
416 1 -1.1104 6.73449 -3.3943 20.7748
465 1 -1.1104 9.60263 -3.57285 20.7477
455 1 -1.1104 12.6313 2.20746 20.8426
467 1 -1.1104 9.66742 2.14334 20.9234
619 1 -1.1104 6.88056 -0.750145 23.6367
623 1 -1.1104 6.67864 -0.655887 26.5155
617 1 -1.1104 6.77849 2.22865 26.4578
612 1 -1.1104 6.83791 -3.49004 23.5967
613 1 -1.1104 6.69717 2.12035 23.7404
616 1 -1.1104 6.84744 -3.36007 26.3238
645 2 2.2208 11.0102 0.799279 22.0968
646 1 -1.1104 12.5032 -3.35131 23.5421
647 1 -1.1104 12.1558 2.17284 23.5838
648 1 -1.1104 12.2995 -3.42843 26.4571
649 1 -1.1104 12.341 2.20567 26.3359
650 1 -1.1104 12.3938 -0.5526 23.5927
651 2 2.2208 10.9857 -1.8901 24.9268
653 1 -1.1104 12.4251 -0.51578 26.3513
654 1 -1.1104 9.79195 -3.31058 23.4936
655 1 -1.1104 9.37122 2.34007 23.6901
656 2 2.2208 8.33395 0.869774 24.9644
657 1 -1.1104 9.53816 -3.3425 26.6148
658 1 -1.1104 9.67723 2.2425 26.4194
659 2 2.2208 8.25727 -1.97694 22.0374
661 1 -1.1104 9.55911 -0.359565 23.4409
662 1 -1.1104 9.61117 -0.512501 26.4214
660 2 2.2208 8.32403 3.67334 22.1613
652 2 2.2208 10.9925 3.78412 24.914
447 2 2.2208 -0.120304 17.7921 16.4431
512 1 -1.1104 4.17597 5.02581 20.7502
507 1 -1.1104 4.13655 7.81222 20.6421
487 1 -1.1104 1.09217 7.86301 20.8831
496 1 -1.1104 1.4189 5.20987 20.876
703 2 2.2208 -0.224761 12.0628 22.1506
444 2 2.2208 -0.073351 6.33459 22.2357
498 1 -1.1104 1.29451 10.6849 20.6367
674 2 2.2208 5.57779 6.5018 22.218
675 2 2.2208 5.61073 12.0203 22.2123
676 1 -1.1104 1.19919 7.63036 23.7414
678 1 -1.1104 1.27202 7.79695 26.5561
680 1 -1.1104 1.29341 4.99418 23.6276
681 1 -1.1104 0.941997 10.5046 23.6043
684 2 2.2208 5.34192 9.22028 24.9328
685 1 -1.1104 1.22993 4.99821 26.4022
686 1 -1.1104 1.17554 10.901 26.3025
689 1 -1.1104 3.86814 7.86572 23.4197
690 2 2.2208 2.60457 6.37564 25.0665
691 2 2.2208 2.55682 11.9744 24.9956
692 1 -1.1104 3.90568 7.89572 26.2975
693 2 2.2208 2.65498 9.3729 22.1079
694 1 -1.1104 4.28273 5.05361 23.7976
695 1 -1.1104 4.11824 10.6991 23.5788
696 1 -1.1104 4.19521 4.97502 26.6456
697 1 -1.1104 3.96299 10.772 26.5421
702 2 2.2208 -0.28442 9.24653 25.0604
489 1 -1.1104 6.7494 7.91405 20.663
534 1 -1.1104 9.79328 8.06927 20.763
539 1 -1.1104 9.8334 5.05612 20.6951
500 1 -1.1104 6.91092 5.05503 20.7109
527 1 -1.1104 12.4967 5.03154 20.9022
529 1 -1.1104 12.3328 10.529 20.7964
682 1 -1.1104 6.88172 4.99714 23.5008
687 1 -1.1104 6.81213 5.29465 26.327
688 1 -1.1104 6.83144 10.6293 26.4035
541 1 -1.1104 9.51534 10.824 20.9675
522 1 -1.1104 12.5709 7.85062 20.9442
683 1 -1.1104 6.81116 10.6763 23.6138
677 1 -1.1104 6.83293 7.83158 23.6094
679 1 -1.1104 6.59574 7.9199 26.4752
705 1 -1.1104 9.59866 10.6269 26.4729
706 1 -1.1104 9.56567 5.05387 26.4336
707 1 -1.1104 9.7275 10.7552 23.8157
708 1 -1.1104 9.78805 5.02215 23.3426
709 2 2.2208 8.21451 9.37984 22.2683
710 1 -1.1104 9.43569 7.89092 26.654
711 2 2.2208 8.18028 12.0049 25.0263
712 2 2.2208 8.12134 6.60792 25.1596
713 2 2.2208 11.0883 6.48348 22.1894
714 2 2.2208 11.0799 12.1966 22.2011
715 1 -1.1104 12.2747 8.02724 23.5764
716 1 -1.1104 12.3363 7.87454 26.398
717 1 -1.1104 12.6025 5.04912 23.775
718 1 -1.1104 12.5036 10.6992 23.6251
719 2 2.2208 11.0043 9.27667 25.0653
720 1 -1.1104 12.3744 4.98926 26.5297
721 1 -1.1104 12.3237 10.8847 26.4652
722 1 -1.1104 9.45652 8.06874 23.7213
724 2 2.2208 -0.313271 20.4678 24.9719
563 1 -1.1104 1.37545 16.2177 20.8149
572 1 -1.1104 4.0365 19.0502 20.9958
577 1 -1.1104 4.21479 16.2545 20.6457
723 2 2.2208 -0.0162045 17.6505 22.3493
551 1 -1.1104 1.14164 13.4462 20.8027
570 1 -1.1104 3.96642 13.3918 20.9058
698 1 -1.1104 9.61042 19.162 26.6324
553 1 -1.1104 1.10374 19.0637 20.927
748 1 -1.1104 1.32789 16.1419 23.675
746 1 -1.1104 4.07216 13.4593 26.3747
745 1 -1.1104 3.95138 16.324 26.6618
744 2 2.2208 2.73035 17.7356 24.9888
750 2 2.2208 2.6179 20.4434 22.2306
749 1 -1.1104 3.98929 16.0381 23.6419
727 2 2.2208 2.5955 14.6889 22.2162
729 1 -1.1104 4.23194 18.8899 23.7179
731 1 -1.1104 4.11185 13.3911 23.6624
733 1 -1.1104 1.15208 19.0171 26.5385
734 1 -1.1104 1.22144 16.4582 26.4
735 1 -1.1104 1.25332 13.6048 26.2741
737 2 2.2208 5.65058 20.4769 25.1278
738 2 2.2208 5.34815 14.8631 25.0926
740 1 -1.1104 1.39021 18.9984 23.6044
741 1 -1.1104 1.21935 13.2308 23.67
742 2 2.2208 5.49922 17.6236 22.3014
743 1 -1.1104 4.04111 19.1714 26.4918
736 1 -1.1104 6.85967 18.9441 23.7868
665 1 -1.1104 9.62461 19.0453 23.6378
636 1 -1.1104 12.6036 16.2542 23.7055
747 1 -1.1104 6.85638 16.1643 23.613
608 1 -1.1104 12.4683 13.4718 23.5999
592 1 -1.1104 12.7284 16.3402 20.7169
557 1 -1.1104 6.69786 19.0132 20.7991
641 2 2.2208 11.1586 20.5512 24.9498
664 1 -1.1104 9.70654 13.5641 23.6405
730 1 -1.1104 6.94493 13.5366 26.5223
701 1 -1.1104 9.80627 16.3379 23.8627
635 1 -1.1104 12.5677 18.9837 26.3221
634 1 -1.1104 12.4482 13.5193 26.5245
670 1 -1.1104 6.76334 19.2214 26.7637
585 1 -1.1104 12.4495 13.4884 20.8441
739 1 -1.1104 6.84686 13.5723 23.6064
633 1 -1.1104 12.5165 19.1293 23.4911
704 1 -1.1104 9.82429 16.2715 26.4834
699 2 2.2208 8.35228 14.8905 22.2621
732 1 -1.1104 6.84259 16.2871 26.5293
607 2 2.2208 11.2308 17.6217 22.2326
565 1 -1.1104 7.03696 16.4693 20.9142
364 2 2.2208 11.1281 9.37458 13.8218
751 2 2.2208 5.54409 23.1369 5.19562
752 2 2.2208 5.47151 28.9391 5.28654
753 1 -1.1104 1.19673 24.7586 1.02598
754 1 -1.1104 1.3117 24.4498 3.8466
755 1 -1.1104 1.13808 21.9071 0.99945
756 1 -1.1104 1.33024 27.6458 1.14116
757 2 2.2208 5.33275 25.9394 2.4734
758 1 -1.1104 1.2004 21.6588 3.84798
759 1 -1.1104 1.12024 27.325 4.0068
760 1 -1.1104 4.00854 24.6291 0.795254
761 2 2.2208 2.63976 23.0346 2.31819
762 2 2.2208 2.64826 28.8102 2.49206
763 1 -1.1104 4.01196 24.6007 3.8145
764 2 2.2208 2.7482 25.937 5.30627
765 1 -1.1104 3.98029 21.7575 0.989552
766 1 -1.1104 4.00367 27.3491 1.00183
767 1 -1.1104 3.96402 21.6626 3.68599
768 1 -1.1104 3.99788 27.293 3.7726
770 2 2.2208 -0.0854764 23.214 5.17907
1125 2 2.2208 5.42928 34.3792 -0.362965
771 2 2.2208 -0.232191 26.1195 2.63412
1112 2 2.2208 5.54323 23.34 -0.23728
1048 1 -1.1104 9.60667 41.583 9.70321
870 2 2.2208 -0.175156 45.6916 5.0381
1122 2 2.2208 11.0167 28.8839 -0.375234
772 1 -1.1104 6.87837 24.67 1.03212
773 1 -1.1104 6.89478 24.6589 3.90964
777 1 -1.1104 6.79289 27.5089 4.00539
774 1 -1.1104 6.91883 22.0579 1.06048
775 1 -1.1104 6.81412 27.5093 1.13237
776 1 -1.1104 6.79985 21.9377 3.80445
778 2 2.2208 11.1403 23.4203 5.26591
779 2 2.2208 11.1406 29.0208 5.26403
780 1 -1.1104 12.5839 24.7803 0.980394
781 1 -1.1104 12.5626 24.7059 3.93306
782 1 -1.1104 12.6428 21.7898 0.941844
783 1 -1.1104 12.4235 27.5537 1.1544
784 2 2.2208 11.0852 26.026 2.48261
785 1 -1.1104 12.3282 22.0178 3.77375
786 1 -1.1104 12.4873 27.7013 3.8384
787 1 -1.1104 9.67106 24.6332 1.08761
788 2 2.2208 8.22611 23.4405 2.50315
789 2 2.2208 8.23959 29.0557 2.61548
790 1 -1.1104 9.71764 24.8146 4.04423
791 2 2.2208 8.26754 26.1315 5.42027
792 1 -1.1104 9.886 21.8877 1.15847
793 1 -1.1104 9.85789 27.4704 0.950854
794 1 -1.1104 9.48537 22.0445 3.98682
795 1 -1.1104 9.6899 27.4452 3.91437
1053 1 -1.1104 12.2429 38.9153 9.55033
822 2 2.2208 -0.177929 31.6416 2.4672
10315 1 -1.1104 13.4191 44.3434 12.7597
1098 2 2.2208 -0.14623 43.0742 13.6038
799 2 2.2208 5.18113 34.6283 5.18447
800 1 -1.1104 1.09828 30.4013 0.950483
801 1 -1.1104 1.25077 35.9632 0.925908
803 1 -1.1104 1.11181 30.1468 3.87797
804 1 -1.1104 1.16329 35.8732 3.83937
806 1 -1.1104 1.36216 33.2769 0.780418
807 2 2.2208 5.38386 31.7253 2.52833
808 2 2.2208 5.4723 37.3385 2.53178
809 1 -1.1104 1.1246 33.081 3.74298
811 1 -1.1104 4.06685 30.2109 1.03646
812 1 -1.1104 3.98301 35.8581 1.0859
813 2 2.2208 2.64458 34.4766 2.37263
814 1 -1.1104 3.85494 30.2068 3.88145
815 1 -1.1104 3.94516 36.0857 3.86349
816 2 2.2208 2.42224 31.7814 5.30896
817 2 2.2208 2.46131 37.3678 5.24633
818 1 -1.1104 4.03745 33.0169 0.965991
819 1 -1.1104 3.98099 33.0388 3.79644
821 2 2.2208 -0.0748193 37.3379 2.47607
953 1 -1.1104 0.99813 32.9747 6.58398
1044 1 -1.1104 9.46835 38.8108 9.65614
820 2 2.2208 -0.210006 34.4203 5.22549
1124 2 2.2208 2.57386 31.7382 -0.246887
810 1 -1.1104 6.80418 33.1256 3.87607
952 1 -1.1104 6.76891 36.0755 6.66106
805 1 -1.1104 6.78231 35.9591 3.90173
825 1 -1.1104 6.94866 33.1688 1.12529
823 1 -1.1104 6.82368 30.3315 1.02354
824 1 -1.1104 6.73549 30.231 3.95853
802 1 -1.1104 6.86117 35.8568 1.20535
826 2 2.2208 10.9676 34.6212 5.45397
827 1 -1.1104 12.3745 30.345 1.06224
828 1 -1.1104 12.6744 36.0072 1.06431
829 1 -1.1104 12.4379 30.5098 3.9537
830 1 -1.1104 12.329 35.9297 3.8069
831 1 -1.1104 12.3652 33.2171 1.14096
832 2 2.2208 10.9096 31.728 2.60575
833 2 2.2208 11.1555 37.4901 2.29608
834 1 -1.1104 12.2468 33.2415 3.85103
835 1 -1.1104 9.68226 30.4402 1.16053
836 1 -1.1104 9.65009 35.9743 1.14179
837 2 2.2208 8.22269 34.5549 2.56039
838 1 -1.1104 9.56594 30.4335 4.00583
839 1 -1.1104 9.59043 35.9852 4.11164
840 2 2.2208 8.16246 31.8949 5.37352
841 2 2.2208 8.07555 37.4874 5.26513
842 1 -1.1104 9.62787 33.1051 1.17601
843 1 -1.1104 9.53522 33.2503 4.07547
1104 2 2.2208 8.04453 45.5798 13.6874
1133 2 2.2208 5.5981 40.1535 -0.31379
1118 2 2.2208 -0.0762206 23.255 -0.297268