ITEM: TIMESTEP
80000
ITEM: NUMBER OF ATOMS
18000
ITEM: BOX BOUNDS pp pp pp
-3.6268488835751483e-01 2.7702684888358096e+01
-4.2119157636520210e+00 3.3229191576364889e+02
-3.4372918067547464e-01 2.7683729180675662e+01
ITEM: ATOMS id type q x y z
1 2 2.2208 5.2894 1.47604 4.9966
2 2 2.2208 5.24443 7.11055 4.99919
3 1 -1.1104 1.03694 -2.79733 0.919316
5 1 -1.1104 0.957741 2.86 0.897348
7 1 -1.1104 1.00621 8.41195 0.933643
15 1 -1.1104 0.917376 -2.94479 3.68728
16 1 -1.1104 1.03243 3.00671 3.65747
17 1 -1.1104 0.934548 8.60959 3.76359
21 2 2.2208 5.24941 -1.4654 2.3825
22 2 2.2208 5.39336 4.28743 2.37442
23 1 -1.1104 0.995887 0.0133084 0.864219
25 1 -1.1104 0.967661 5.6294 0.783469
31 1 -1.1104 1.02613 0.0646101 3.7565
32 1 -1.1104 1.0997 5.80652 3.61098
35 2 2.2208 2.38264 1.42208 2.35169
36 2 2.2208 2.41371 7.16439 2.25799
37 1 -1.1104 3.89069 -3.01273 1.13147
39 1 -1.1104 3.70027 2.61879 0.857924
41 1 -1.1104 3.88687 8.44895 0.856921
43 1 -1.1104 3.70329 -2.86092 3.88607
44 1 -1.1104 3.91357 2.83723 3.65932
45 1 -1.1104 3.72546 8.52815 3.6694
46 2 2.2208 2.45648 -1.34208 5.18337
47 2 2.2208 2.42972 4.3436 5.13212
48 1 -1.1104 3.79769 -0.179969 1.01848
50 1 -1.1104 3.96539 5.49209 0.908408
52 1 -1.1104 3.69479 0.146055 3.8754
53 1 -1.1104 3.90561 5.74407 3.7485
8 1 -1.1104 1.10177 8.35279 6.49921
9 1 -1.1104 6.59654 -2.72325 0.962051
11 1 -1.1104 6.56031 2.89223 1.07233
33 1 -1.1104 6.59571 -0.0723266 3.58948
34 1 -1.1104 6.66735 5.6525 3.82534
40 1 -1.1104 3.86612 2.90483 6.54916
65 2 2.2208 5.2111 -4.32042 5.18662
30 1 -1.1104 6.79404 5.50106 6.68444
49 1 -1.1104 3.65249 -0.0194523 6.63065
24 1 -1.1104 0.95559 -0.0883114 6.57366
38 1 -1.1104 4.01048 -2.76951 6.54826
6 1 -1.1104 1.16777 2.68357 6.47516
28 1 -1.1104 6.5668 -0.12447 6.32856
51 1 -1.1104 3.85583 5.59689 6.50151
4 1 -1.1104 0.980069 -2.9411 6.60368
12 1 -1.1104 6.58679 2.6152 6.63091
66 2 2.2208 2.42395 -4.21963 2.47937
20 1 -1.1104 6.55111 8.32589 3.62598
13 1 -1.1104 6.66328 8.33955 0.840927
27 1 -1.1104 6.51815 0.18499 0.873505
14 1 -1.1104 6.67956 8.25414 6.53188
10 1 -1.1104 6.66907 -2.95633 6.44462
19 1 -1.1104 6.72381 2.90721 3.75662
18 1 -1.1104 6.66073 -2.87148 3.77244
29 1 -1.1104 6.8078 5.54831 0.990341
98 1 -1.1104 9.38456 8.39826 3.75339
69 2 2.2208 10.8391 1.44226 5.18371
70 2 2.2208 10.9103 6.97894 5.12282
71 1 -1.1104 12.2393 -2.8233 0.761535
73 1 -1.1104 12.2573 2.92521 1.05898
75 1 -1.1104 12.3827 8.2524 0.930407
77 1 -1.1104 12.2672 -2.83881 3.76003
78 1 -1.1104 12.2273 2.81843 3.95266
79 1 -1.1104 12.2567 8.6332 3.65714
80 2 2.2208 10.7501 -1.41482 2.4061
81 2 2.2208 10.9117 4.25289 2.34932
82 1 -1.1104 12.0614 0.0944626 1.02892
84 1 -1.1104 12.3141 5.54911 0.946255
86 1 -1.1104 12.2257 -0.0072998 3.8626
87 1 -1.1104 12.2649 5.71298 3.73936
88 2 2.2208 8.01323 1.40702 2.48052
89 2 2.2208 7.98495 6.88916 2.39626
90 1 -1.1104 9.39905 -2.87499 1.05791
92 1 -1.1104 9.53063 2.80848 0.958495
94 1 -1.1104 9.48505 8.48686 0.916711
96 1 -1.1104 9.40307 -2.75137 3.7911
97 1 -1.1104 9.47116 2.93789 3.75558
99 2 2.2208 8.04077 -1.4573 5.10705
100 2 2.2208 8.01995 4.11227 5.18537
101 1 -1.1104 9.36854 0.0900518 1.06524
103 1 -1.1104 9.49431 5.73965 1.05924
105 1 -1.1104 9.47262 0.163863 3.81825
106 1 -1.1104 9.48382 5.584 3.84959
102 1 -1.1104 9.36246 -0.0441055 6.49707
95 1 -1.1104 9.456 8.4846 6.65339
91 1 -1.1104 9.51027 -2.98466 6.51716
72 1 -1.1104 12.2025 -2.90964 6.5632
104 1 -1.1104 9.37776 5.39928 6.5016
76 1 -1.1104 12.2359 8.28292 6.43772
83 1 -1.1104 12.1198 -0.192753 6.51306
93 1 -1.1104 9.50143 2.75426 6.4937
74 1 -1.1104 12.2529 2.77467 6.70869
118 2 2.2208 7.99181 -4.28276 2.39334
42 1 -1.1104 3.88859 8.27672 6.54561
26 1 -1.1104 1.01054 5.50999 6.43657
164 2 2.2208 -0.396308 -1.38526 8.04152
165 2 2.2208 -0.237084 7.07298 10.7373
163 2 2.2208 -0.19904 4.15742 7.92385
121 1 -1.1104 3.75802 5.52844 9.35305
122 2 2.2208 5.27554 1.39041 10.82
123 2 2.2208 5.2231 6.96557 10.7755
124 1 -1.1104 1.12103 -2.86744 12.1661
125 1 -1.1104 1.1833 2.86142 12.2311
126 1 -1.1104 0.915013 8.47373 12.1635
130 1 -1.1104 1.20019 -2.84267 9.31642
131 1 -1.1104 0.984524 2.7036 9.3086
132 1 -1.1104 1.11263 8.42049 9.34879
136 2 2.2208 5.27675 -1.45199 7.91656
137 2 2.2208 5.22184 4.23989 7.96016
138 1 -1.1104 1.17402 0.00609884 12.1019
139 1 -1.1104 0.934339 5.58688 12.0362
142 1 -1.1104 1.28363 -0.0877476 9.29971
143 1 -1.1104 1.12611 5.61318 9.36936
146 2 2.2208 2.54488 1.45124 7.9599
147 2 2.2208 2.50986 6.96233 7.89224
148 1 -1.1104 3.87281 -2.78686 12.1179
149 1 -1.1104 3.89215 2.92322 12.1743
150 1 -1.1104 3.7612 8.40933 12.1966
151 1 -1.1104 3.93041 -3.02071 9.30955
152 1 -1.1104 3.95943 2.74483 9.35566
153 1 -1.1104 3.8895 8.31821 9.34179
154 2 2.2208 2.56655 -1.47434 10.7669
155 2 2.2208 2.43095 4.23783 10.7503
156 1 -1.1104 3.88591 -0.0429251 12.1825
157 1 -1.1104 3.72379 5.64742 12.2064
158 1 -1.1104 4.00182 -0.0351397 9.45881
133 1 -1.1104 6.63856 -2.84244 9.39676
140 1 -1.1104 6.60416 -0.0122552 12.1076
145 1 -1.1104 6.54837 5.49648 9.42138
159 2 2.2208 5.24055 -1.35622 13.614
134 1 -1.1104 6.65186 2.73 9.48897
144 1 -1.1104 6.83302 0.0252764 9.27545
141 1 -1.1104 6.66661 5.6169 12.3061
128 1 -1.1104 6.4992 2.79499 12.3712
167 2 2.2208 -0.278474 1.28301 10.895
161 2 2.2208 2.52637 1.32756 13.5808
162 2 2.2208 2.3209 7.01389 13.5247
252 2 2.2208 2.4819 -4.26529 13.5068
208 2 2.2208 13.6663 -1.3812 10.7739
206 2 2.2208 13.7108 1.413 7.91552
293 2 2.2208 13.5903 -4.25858 13.5609
209 2 2.2208 13.5658 4.21683 10.7317
175 1 -1.1104 9.40814 0.070799 12.0387
212 2 2.2208 8.1052 -4.33219 7.87086
186 1 -1.1104 12.2964 -2.86833 12.1786
207 2 2.2208 13.4855 6.90085 8.03723
135 1 -1.1104 6.50054 8.32642 9.45691
172 1 -1.1104 9.34185 5.57269 9.32584
195 1 -1.1104 9.54879 2.90693 12.1618
129 1 -1.1104 6.55716 8.34613 12.2369
191 2 2.2208 10.9023 4.21715 7.86926
177 2 2.2208 8.06756 -1.41841 10.7458
199 1 -1.1104 12.203 8.38423 9.42327
85 1 -1.1104 12.3192 5.63037 6.68104
196 2 2.2208 10.9979 -1.39324 7.91383
127 1 -1.1104 6.63805 -2.79725 12.3513
181 1 -1.1104 12.3209 8.53027 12.3413
190 2 2.2208 10.8226 1.32328 10.6355
182 1 -1.1104 9.20891 8.28988 9.40396
178 2 2.2208 8.13372 1.35958 7.90652
180 1 -1.1104 12.1656 -2.63041 9.37676
192 1 -1.1104 12.3865 2.8381 9.30093
183 1 -1.1104 9.57439 2.87053 9.18462
179 1 -1.1104 12.0781 5.71894 9.42557
194 1 -1.1104 9.42738 8.50498 12.0864
185 1 -1.1104 12.2061 2.77989 12.2754
189 2 2.2208 10.8744 6.9073 10.8968
176 2 2.2208 8.00762 4.22294 10.7542
198 2 2.2208 8.06289 6.83758 7.91161
184 1 -1.1104 12.3562 0.05813 9.27527
188 1 -1.1104 12.3068 0.0177705 12.2152
193 1 -1.1104 9.33201 -2.70668 9.21188
174 1 -1.1104 9.51213 5.74989 12.2454
173 1 -1.1104 9.53727 0.0169866 9.41599
197 1 -1.1104 9.39495 -2.81939 12.038
187 1 -1.1104 12.3278 5.69482 12.2996
205 2 2.2208 13.7078 1.41609 13.5159
201 2 2.2208 7.97901 1.50172 13.5591
213 2 2.2208 8.11993 -4.22381 13.5828
200 2 2.2208 10.8615 -1.35861 13.4636
203 2 2.2208 8.16323 7.08061 13.6244
202 2 2.2208 10.8999 4.28728 13.6025
214 2 2.2208 5.25753 1.57936 16.4852
215 2 2.2208 5.13947 6.94196 16.3511
216 1 -1.1104 1.11356 -2.76867 17.8274
217 1 -1.1104 0.857744 2.69307 17.6055
218 1 -1.1104 1.10757 8.30661 17.6775
222 1 -1.1104 1.12729 -2.77398 15.1034
223 1 -1.1104 1.03324 2.62906 14.7233
224 1 -1.1104 0.976286 8.31108 14.9451
228 2 2.2208 5.24319 -1.20178 19.2341
229 2 2.2208 5.15401 4.25872 19.2408
230 1 -1.1104 1.16467 0.00930071 17.7613
231 1 -1.1104 0.868295 5.57665 17.6296
234 1 -1.1104 1.13708 -0.09789 14.8678
235 1 -1.1104 0.875774 5.53929 14.8486
238 2 2.2208 2.33775 1.4775 19.0866
239 2 2.2208 2.37562 7.08108 19.1713
240 1 -1.1104 3.8034 -2.73603 17.9044
241 1 -1.1104 3.6542 2.98798 17.8081
242 1 -1.1104 4.00262 8.37424 17.7988
243 1 -1.1104 3.98637 -2.83766 15.0001
244 1 -1.1104 3.7701 2.84112 15.0988
245 1 -1.1104 3.65473 8.44714 14.9365
246 2 2.2208 2.64829 -1.40222 16.3284
247 2 2.2208 2.337 4.24228 16.3963
248 1 -1.1104 3.8664 0.225847 17.8284
249 1 -1.1104 3.77362 5.60529 17.7379
250 1 -1.1104 3.84064 0.0703376 15.0217
251 1 -1.1104 3.59502 5.71192 15.0013
233 1 -1.1104 6.63061 5.47207 17.6526
219 1 -1.1104 6.54826 -2.73603 17.9045
160 2 2.2208 5.17386 4.2702 13.6104
298 1 -1.1104 6.57473 2.76406 20.7435
226 1 -1.1104 6.64361 3.01618 15.0738
225 1 -1.1104 6.68547 -2.64545 15.0758
295 1 -1.1104 0.955439 2.83315 20.38
305 1 -1.1104 3.75356 2.83466 20.417
306 1 -1.1104 3.78121 8.38951 20.5929
259 2 2.2208 5.27606 -4.12347 16.4116
299 1 -1.1104 6.56441 8.52947 20.5444
236 1 -1.1104 6.49036 0.135924 14.9268
232 1 -1.1104 6.60281 0.0841171 17.7492
255 2 2.2208 -0.47216 6.95992 16.4076
301 1 -1.1104 0.953766 5.67172 20.5087
294 1 -1.1104 1.12353 -2.77589 20.5747
307 1 -1.1104 3.78563 0.0341032 20.5857
304 1 -1.1104 3.84193 -2.58454 20.7458
302 1 -1.1104 6.66105 -0.0567796 20.6577
297 1 -1.1104 6.68978 -2.83186 20.6047
300 1 -1.1104 1.06472 0.13249 20.5979
303 1 -1.1104 6.62113 5.58955 20.4978
220 1 -1.1104 6.62796 2.79352 17.9444
227 1 -1.1104 6.67614 8.42778 15.0199
237 1 -1.1104 6.65285 5.74815 14.8472
221 1 -1.1104 6.67626 8.41258 17.8548
260 2 2.2208 10.9391 1.43429 16.2815
261 2 2.2208 10.9301 6.94653 16.4082
262 1 -1.1104 12.2359 -2.68189 17.8049
263 1 -1.1104 12.233 2.94659 17.7238
264 1 -1.1104 12.2837 8.40098 17.8298
265 1 -1.1104 12.5105 -2.85446 14.9237
266 1 -1.1104 12.3037 2.83556 15.0855
267 1 -1.1104 12.2614 8.41526 15.1626
268 2 2.2208 10.8433 -1.29919 19.0467
269 2 2.2208 10.8171 4.3852 19.0844
270 1 -1.1104 12.4551 0.244648 17.8202
271 1 -1.1104 12.3363 5.6994 17.8284
272 1 -1.1104 12.1861 -0.117308 14.9957
273 1 -1.1104 12.2991 5.73534 14.9729
274 2 2.2208 7.98225 1.41162 19.1925
275 2 2.2208 8.06114 7.01059 19.1505
276 1 -1.1104 9.28938 -2.55022 17.6247
277 1 -1.1104 9.43898 2.84749 17.9005
278 1 -1.1104 9.50805 8.3786 17.7206
279 1 -1.1104 9.60347 -2.88266 14.7997
280 1 -1.1104 9.54417 2.8181 14.8979
281 1 -1.1104 9.45997 8.33776 14.9687
282 2 2.2208 7.91094 -1.22483 16.2564
283 2 2.2208 8.08265 4.20168 16.3552
284 1 -1.1104 9.36192 0.134647 17.5283
285 1 -1.1104 9.48481 5.59003 17.7417
286 1 -1.1104 9.29385 0.0487452 14.7352
287 1 -1.1104 9.40116 5.53676 15.1767
384 1 -1.1104 9.46314 5.59495 20.5636
291 2 2.2208 8.06054 -4.02103 19.2133
289 2 2.2208 13.7338 -1.37582 16.247
288 2 2.2208 13.6471 1.51169 19.1652
370 1 -1.1104 12.2439 2.94217 20.5151
382 1 -1.1104 9.43792 8.41173 20.5566
375 1 -1.1104 12.3423 5.68026 20.6119
374 1 -1.1104 12.1997 0.0286699 20.5258
381 1 -1.1104 9.44319 2.70462 20.5992
369 1 -1.1104 12.3687 -2.86019 20.5316
383 1 -1.1104 9.39916 0.0809435 20.5189
9616 2 2.2208 13.7428 7.09258 19.2451
204 2 2.2208 13.7184 7.11554 13.6257
351 2 2.2208 5.12269 -4.11803 22.078
353 2 2.2208 2.4908 -4.13762 24.8567
352 2 2.2208 -0.233624 -4.21974 22.0495
349 2 2.2208 -0.549396 6.95293 21.9546
308 1 -1.1104 3.83313 5.72031 20.5658
296 1 -1.1104 0.954473 8.50934 20.5503
309 2 2.2208 5.24037 1.40714 21.9622
310 2 2.2208 5.28839 6.94679 22.0056
311 1 -1.1104 1.00243 -2.81717 23.3366
312 1 -1.1104 0.884292 2.67391 23.305
313 1 -1.1104 0.879198 8.33219 23.2075
317 1 -1.1104 0.939759 -2.66572 26.129
318 1 -1.1104 1.07806 2.90144 26.15
319 1 -1.1104 0.98445 8.28068 26.0665
323 2 2.2208 5.29953 -1.39048 24.8328
324 2 2.2208 5.20923 4.23856 24.6652
325 1 -1.1104 0.851876 -0.0321739 23.4456
326 1 -1.1104 1.0958 5.54112 23.3073
329 1 -1.1104 1.05933 0.0262607 26.1338
330 1 -1.1104 0.981906 5.59952 26.0965
333 2 2.2208 2.35952 1.34171 24.8011
334 2 2.2208 2.377 6.91932 24.7047
335 1 -1.1104 3.96039 -2.74712 23.5825
336 1 -1.1104 3.71554 2.90282 23.2411
337 1 -1.1104 3.88103 8.46475 23.4654
338 1 -1.1104 3.83948 -2.82711 26.2394
339 1 -1.1104 3.84516 2.73827 26.0254
340 1 -1.1104 3.72519 8.39019 26.1798
341 2 2.2208 2.37595 -1.28607 21.9855
342 2 2.2208 2.39343 4.25193 21.8331
343 1 -1.1104 3.84724 0.0230901 23.2681
344 1 -1.1104 3.86739 5.64296 23.2502
345 1 -1.1104 3.76546 -0.0290368 26.071
346 1 -1.1104 3.7637 5.52453 26.1338
57 2 2.2208 5.16015 1.37896 27.5941
347 2 2.2208 -0.484863 4.20363 24.7558
327 1 -1.1104 6.70586 0.0355757 23.4614
314 1 -1.1104 6.69924 -2.70987 23.3524
54 2 2.2208 2.42239 4.21808 27.5253
55 2 2.2208 2.46747 -1.35059 27.5302
56 2 2.2208 5.22947 7.05588 27.5215
67 2 2.2208 5.25459 -4.17348 27.5883
120 2 2.2208 10.7569 -4.18889 27.4816
394 2 2.2208 13.5903 -1.32058 21.9224
371 1 -1.1104 12.2809 8.27204 20.5479
393 2 2.2208 13.6122 7.08263 24.7326
392 2 2.2208 13.6436 1.50093 24.7334
9700 2 2.2208 13.5734 -4.17031 24.7894
377 1 -1.1104 12.2527 0.0707305 23.2615
366 1 -1.1104 12.2238 -2.73908 23.3873
390 1 -1.1104 9.35615 -2.91013 23.237
328 1 -1.1104 6.66863 5.61765 23.2147
320 1 -1.1104 6.56755 -2.74203 26.2121
322 1 -1.1104 6.4593 8.51236 26.1658
316 1 -1.1104 6.68013 8.39271 23.3106
321 1 -1.1104 6.73907 2.95214 26.1273
362 1 -1.1104 12.1405 2.87698 26.1927
365 1 -1.1104 12.1535 5.77561 26.2197
385 1 -1.1104 9.55445 2.79686 26.2249
376 1 -1.1104 12.3033 5.57574 23.4667
361 1 -1.1104 9.3841 8.49293 26.1419
395 2 2.2208 13.5623 4.19279 22.0046
315 1 -1.1104 6.48605 2.83502 23.3725
356 1 -1.1104 9.38196 5.47712 23.4447
332 1 -1.1104 6.69375 5.68139 26.1708
380 1 -1.1104 9.62569 -2.68365 20.4273
389 1 -1.1104 9.43865 2.79982 23.4709
367 2 2.2208 10.8855 7.04106 21.9347
387 1 -1.1104 9.49439 8.44537 23.4112
379 1 -1.1104 12.1886 8.47281 26.1207
368 1 -1.1104 12.177 0.137008 26.272
386 1 -1.1104 9.40059 -2.77162 26.0841
391 2 2.2208 10.8166 -1.35855 24.7078
358 1 -1.1104 9.4291 -0.110463 23.1496
363 1 -1.1104 12.2794 2.76713 23.3429
360 2 2.2208 8.04838 -1.42074 21.8818
354 1 -1.1104 9.42923 5.57625 26.1006
359 2 2.2208 8.08425 4.21233 21.8982
373 2 2.2208 10.812 1.47967 22.0183
331 1 -1.1104 6.50319 0.120627 26.282
357 2 2.2208 8.05572 7.01123 24.7206
378 1 -1.1104 12.2672 8.47079 23.2812
372 1 -1.1104 12.2139 -2.61775 26.1569
355 1 -1.1104 9.3703 0.0809324 26.1547
388 2 2.2208 10.7725 4.14715 24.7846
364 2 2.2208 7.99423 1.38131 24.8696
107 2 2.2208 8.09282 4.18964 27.6032
110 2 2.2208 10.7988 1.43818 27.6862
109 2 2.2208 10.8512 7.05468 27.568
108 2 2.2208 7.9912 -1.41528 27.6439
398 2 2.2208 5.23881 12.5176 5.25255
399 2 2.2208 5.35878 18.2644 5.14154
400 1 -1.1104 1.1054 13.9938 1.10957
402 1 -1.1104 1.14238 19.8012 1.12487
406 1 -1.1104 1.04722 14.2652 3.96259
407 1 -1.1104 0.99082 19.7243 3.82835
410 2 2.2208 5.38502 9.86932 2.35223
411 2 2.2208 5.23863 15.5451 2.41969
412 2 2.2208 5.37713 21.1731 2.47321
413 1 -1.1104 1.13919 11.1789 0.933753
415 1 -1.1104 1.29143 16.9363 1.18093
421 1 -1.1104 1.0123 11.3182 3.74626
422 1 -1.1104 1.05288 17.0663 3.95147
425 2 2.2208 2.56381 12.6466 2.38568
426 2 2.2208 2.53626 18.3389 2.57582
427 1 -1.1104 4.04657 14.0936 1.05599
429 1 -1.1104 3.88478 19.7919 1.1298
430 1 -1.1104 3.97543 14.0182 3.86884
431 1 -1.1104 4.08526 19.5537 3.91146
432 2 2.2208 2.41689 9.85675 5.18222
433 2 2.2208 2.39227 15.5104 5.3357
434 2 2.2208 2.56128 21.0377 5.1753
435 1 -1.1104 3.95328 11.1955 0.785322
437 1 -1.1104 4.05417 16.9755 1.08972
439 1 -1.1104 3.96055 11.0995 3.79835
440 1 -1.1104 3.84909 16.8132 3.86038
496 1 -1.1104 0.772793 19.549 6.82169
401 1 -1.1104 1.04514 13.9905 6.5675
416 1 -1.1104 1.04544 16.9242 6.68958
438 1 -1.1104 3.69931 16.7886 6.6317
419 1 -1.1104 6.87326 16.8882 0.98766
414 1 -1.1104 1.18853 11.2037 6.50987
417 1 -1.1104 6.75542 11.346 0.951546
436 1 -1.1104 3.86897 11.1282 6.5816
444 2 2.2208 5.32475 18.4147 -0.263637
441 2 2.2208 2.49509 21.1481 -0.237139
423 1 -1.1104 6.65444 11.2739 3.85129
424 1 -1.1104 6.79232 16.8083 3.93362
405 1 -1.1104 6.77682 19.6779 1.244
403 1 -1.1104 6.698 14.1403 0.968622
428 1 -1.1104 3.92235 13.8827 6.78238
447 2 2.2208 -0.367785 15.3985 2.5204
449 2 2.2208 -0.401424 18.2854 5.36247
404 1 -1.1104 6.80277 13.9882 6.64115
408 1 -1.1104 6.67801 14.0631 3.8296
418 1 -1.1104 6.73737 11.1595 6.60327
409 1 -1.1104 6.66886 19.7141 3.98823
453 2 2.2208 10.9453 12.6111 5.20243
454 2 2.2208 10.8895 18.305 5.20974
455 1 -1.1104 12.3386 13.9769 1.04246
457 1 -1.1104 12.3546 19.7011 1.11169
458 1 -1.1104 12.2802 13.9931 3.8336
459 1 -1.1104 12.3282 19.4392 3.85734
460 2 2.2208 10.9043 9.82401 2.37158
461 2 2.2208 10.9008 15.4878 2.39176
462 2 2.2208 10.9653 21.0412 2.47285
463 1 -1.1104 12.291 11.1798 0.975374
465 1 -1.1104 12.2562 16.9269 1.07276
467 1 -1.1104 12.3042 11.2765 3.80292
468 1 -1.1104 12.2848 16.8085 3.79388
469 2 2.2208 8.14411 12.741 2.40554
470 2 2.2208 8.24531 18.2004 2.48205
471 1 -1.1104 9.53766 14.2097 0.919678
473 1 -1.1104 9.60383 19.7134 1.07803
474 1 -1.1104 9.4933 13.9833 3.82601
475 1 -1.1104 9.57487 19.6643 3.72818
476 2 2.2208 8.19097 9.86791 5.15698
477 2 2.2208 7.99976 15.5741 5.34046
478 2 2.2208 8.15015 21.0328 5.29911
479 1 -1.1104 9.53237 11.3247 1.01299
481 1 -1.1104 9.63191 16.921 1.00233
483 1 -1.1104 9.55212 11.3635 3.81267
484 1 -1.1104 9.56734 16.7929 3.84278
472 1 -1.1104 9.45702 14.1395 6.72404
420 1 -1.1104 6.59462 16.8078 6.73141
560 1 -1.1104 12.2615 19.7055 6.59039
491 2 2.2208 13.6013 9.86541 5.18523
489 2 2.2208 10.8576 12.7295 -0.337348
488 2 2.2208 10.892 18.3376 -0.415498
464 1 -1.1104 12.2083 11.1753 6.56474
480 1 -1.1104 9.50263 11.2542 6.63828
485 2 2.2208 8.13744 21.109 -0.293197
498 1 -1.1104 3.98014 19.7731 6.63641
543 2 2.2208 -0.318387 12.6823 10.8869
540 2 2.2208 -0.387241 9.77094 7.91633
534 2 2.2208 5.1727 15.3487 13.7513
499 2 2.2208 5.12611 12.6668 10.8068
500 2 2.2208 5.15313 18.2565 10.8507
501 1 -1.1104 1.12299 14.0032 12.4457
502 1 -1.1104 1.07496 19.5059 12.3856
505 1 -1.1104 1.07152 14.0412 9.60147
506 1 -1.1104 1.02092 19.7954 9.46244
509 2 2.2208 5.28662 9.9131 7.9554
510 2 2.2208 5.29457 15.5057 8.04017
511 2 2.2208 5.26191 21.1122 8.12135
512 1 -1.1104 1.11829 11.2403 12.156
513 1 -1.1104 1.06469 16.9862 12.3525
516 1 -1.1104 1.00479 11.1989 9.32891
517 1 -1.1104 1.23966 16.8962 9.46334
520 2 2.2208 2.5136 12.699 8.03337
521 2 2.2208 2.44071 18.304 8.0618
522 1 -1.1104 3.86034 14.0209 12.3404
523 1 -1.1104 3.78992 19.624 12.2938
524 1 -1.1104 3.76244 13.9723 9.42203
525 1 -1.1104 3.75139 19.6586 9.43595
526 2 2.2208 2.46291 9.85171 10.8035
527 2 2.2208 2.43646 15.4801 10.9277
528 2 2.2208 2.46243 21.0099 10.9501
529 1 -1.1104 3.90053 11.3009 12.3008
530 1 -1.1104 3.80666 16.7515 12.3445
531 1 -1.1104 3.75897 11.2315 9.46575
532 1 -1.1104 3.97001 16.8366 9.35849
508 1 -1.1104 6.58915 19.6949 9.55609
538 2 2.2208 -0.298606 15.3717 8.05674
535 2 2.2208 5.23442 9.75684 13.6982
542 2 2.2208 -0.301057 18.2571 10.8835
507 1 -1.1104 6.56675 14.2372 9.56523
536 2 2.2208 2.42463 12.572 13.6268
539 2 2.2208 -0.408956 9.86204 13.6954
533 2 2.2208 2.41987 18.2536 13.7009
544 2 2.2208 5.2827 21.0749 13.6024
497 1 -1.1104 6.66695 19.6109 6.6643
584 2 2.2208 13.6425 12.6535 8.0698
482 1 -1.1104 9.48067 17.0022 6.73562
578 2 2.2208 10.8722 9.93613 13.6856
556 1 -1.1104 12.0926 16.9302 12.3329
466 1 -1.1104 12.2561 16.916 6.75821
561 1 -1.1104 9.56493 19.6978 6.57544
570 2 2.2208 10.8483 12.781 10.8796
504 1 -1.1104 6.58179 19.6637 12.3497
503 1 -1.1104 6.66732 13.9849 12.2807
519 1 -1.1104 6.72422 16.9965 9.43429
518 1 -1.1104 6.5181 11.3851 9.31453
514 1 -1.1104 6.69331 11.0777 12.2664
554 2 2.2208 7.97845 9.86409 10.7847
559 2 2.2208 10.8342 15.5617 8.17429
515 1 -1.1104 6.61496 16.744 12.2259
573 1 -1.1104 12.2667 19.6261 12.2561
557 1 -1.1104 12.2472 11.3106 12.1499
568 1 -1.1104 9.37463 14.0369 12.276
569 2 2.2208 8.00205 18.3722 8.03425
562 2 2.2208 10.7316 9.92743 8.03705
563 1 -1.1104 12.3478 19.6455 9.43472
551 1 -1.1104 12.3475 16.9145 9.49405
550 2 2.2208 8.15562 12.6495 8.00441
546 1 -1.1104 9.42336 16.9427 9.49252
549 1 -1.1104 9.42273 11.3296 12.331
571 2 2.2208 10.818 18.334 10.8647
555 1 -1.1104 12.1549 11.2955 9.28868
456 1 -1.1104 12.2891 13.9637 6.58511
567 1 -1.1104 9.44592 19.7682 12.2941
565 1 -1.1104 9.43008 19.7426 9.4451
566 1 -1.1104 9.37185 14.0032 9.50204
547 1 -1.1104 9.33107 11.2255 9.48958
552 2 2.2208 8.11649 21.0508 10.8312
558 2 2.2208 10.9579 21.0538 8.03234
572 1 -1.1104 12.3135 14.1743 12.26
564 1 -1.1104 12.1354 14.0285 9.36901
548 1 -1.1104 9.38966 16.9702 12.2547
553 2 2.2208 8.08053 15.4968 10.9013
580 2 2.2208 13.568 9.749 10.7561
577 2 2.2208 10.9365 15.4214 13.7292
576 2 2.2208 8.01243 18.3606 13.6791
585 2 2.2208 10.8247 20.9593 13.8049
579 2 2.2208 7.98918 12.4802 13.6485
586 2 2.2208 5.31128 12.4915 16.465
587 2 2.2208 5.20941 18.2583 16.4421
588 1 -1.1104 0.935654 13.9204 17.8398
589 1 -1.1104 1.04443 19.9123 17.8352
592 1 -1.1104 1.11051 13.8377 15.0127
593 1 -1.1104 0.995604 19.6392 15.2239
596 2 2.2208 5.11761 9.73485 19.2063
597 2 2.2208 5.32251 15.5546 19.2749
598 2 2.2208 5.20188 21.0181 19.237
599 1 -1.1104 1.01268 11.1985 17.8644
600 1 -1.1104 1.01271 16.9139 17.9369
603 1 -1.1104 1.04452 11.0545 14.9588
604 1 -1.1104 0.837622 16.5779 15.1628
607 2 2.2208 2.37195 12.5804 19.1342
608 2 2.2208 2.32187 18.3368 19.278
609 1 -1.1104 3.8402 14.0391 17.9053
610 1 -1.1104 3.81274 19.6351 17.7558
611 1 -1.1104 3.82878 14.0319 15.0208
612 1 -1.1104 3.78973 19.7046 15.0656
613 2 2.2208 2.41199 9.78375 16.3041
614 2 2.2208 2.42903 15.449 16.564
615 2 2.2208 2.4807 21.0894 16.4788
616 1 -1.1104 3.75304 11.0753 17.7966
617 1 -1.1104 3.70747 16.804 17.916
618 1 -1.1104 3.87385 11.1974 15.077
619 1 -1.1104 3.64283 16.8829 15.1109
658 1 -1.1104 1.17207 14.0757 20.4972
668 1 -1.1104 3.88333 11.2035 20.4805
622 2 2.2208 -0.346407 15.4614 19.3231
590 1 -1.1104 6.80157 13.974 17.8488
595 1 -1.1104 6.6437 19.7035 15.1515
623 2 2.2208 -0.329926 12.646 16.3935
666 1 -1.1104 3.96355 14.0897 20.6393
662 1 -1.1104 1.01238 11.2145 20.6319
669 1 -1.1104 3.87317 17.0175 20.7064
624 2 2.2208 -0.421926 9.78959 19.2223
664 1 -1.1104 6.61297 11.3095 20.4911
620 2 2.2208 -0.359498 18.2949 16.4834
545 2 2.2208 -0.297243 20.992 13.6913
594 1 -1.1104 6.64778 14.0504 15.1816
606 1 -1.1104 6.65245 16.9962 14.9274
602 1 -1.1104 6.45304 16.8355 17.761
591 1 -1.1104 6.6615 19.5442 17.8724
605 1 -1.1104 6.57705 11.1466 15.0356
654 2 2.2208 13.7246 18.2794 19.3449
601 1 -1.1104 6.55314 11.1297 17.8464
625 2 2.2208 10.8631 12.5761 16.4534
626 2 2.2208 10.8571 18.2156 16.5179
627 1 -1.1104 12.3792 14.0494 17.9217
628 1 -1.1104 12.3363 19.6378 17.9439
629 1 -1.1104 12.2923 14.015 15.1337
630 1 -1.1104 12.2269 19.5713 15.1998
632 2 2.2208 10.8444 9.85415 19.1633
633 2 2.2208 10.8711 15.4218 19.3193
634 2 2.2208 10.94 21.1069 19.1988
635 1 -1.1104 12.1578 11.2093 17.7432
636 1 -1.1104 12.271 16.8362 17.8623
637 1 -1.1104 12.2265 11.2388 15.1378
638 1 -1.1104 12.3688 16.8351 15.0228
639 2 2.2208 8.0606 12.6441 19.2584
640 2 2.2208 8.00917 18.3278 19.2383
641 1 -1.1104 9.50761 14.0398 17.8664
642 1 -1.1104 9.44193 19.6772 17.7235
643 1 -1.1104 9.55156 14.0002 15.1581
644 1 -1.1104 9.31417 19.73 15.0597
646 2 2.2208 8.10483 9.79805 16.5002
647 2 2.2208 8.05895 15.4713 16.44
648 2 2.2208 8.02194 21.1301 16.4825
649 1 -1.1104 9.44134 11.3592 17.7888
650 1 -1.1104 9.40746 16.8382 17.7778
651 1 -1.1104 9.35421 11.2525 15.0644
652 1 -1.1104 9.462 16.7827 15.038
665 1 -1.1104 6.57006 16.8735 20.6093
653 2 2.2208 13.6058 12.6321 19.1548
726 1 -1.1104 12.2422 11.1913 20.6155
656 2 2.2208 13.7221 15.462 16.5444
731 1 -1.1104 9.5036 11.1454 20.5837
660 1 -1.1104 6.77444 14.1272 20.5877
583 2 2.2208 13.6844 18.2605 13.684
667 1 -1.1104 3.82095 19.8117 20.6037
659 1 -1.1104 1.1181 19.8444 20.565
451 2 2.2208 -0.399012 12.6758 27.6165
661 1 -1.1104 6.61994 19.6802 20.6266
663 1 -1.1104 1.07107 16.839 20.763
670 2 2.2208 5.29062 12.6465 21.8703
671 2 2.2208 5.27839 18.428 22.0254
672 1 -1.1104 1.09954 13.9865 23.3471
673 1 -1.1104 1.09148 19.6191 23.4469
676 1 -1.1104 0.970897 14.0004 26.2958
677 1 -1.1104 1.1583 19.6993 26.3046
680 2 2.2208 5.21441 9.79415 24.8256
681 2 2.2208 5.3333 15.5887 24.7934
682 2 2.2208 5.40517 21.0014 24.9119
683 1 -1.1104 1.05978 11.1578 23.4047
684 1 -1.1104 1.03474 16.7149 23.6421
687 1 -1.1104 0.991107 11.2611 26.1349
688 1 -1.1104 1.05797 16.8383 26.3811
691 2 2.2208 2.47956 12.567 24.7616
692 2 2.2208 2.47757 18.3071 24.8598
693 1 -1.1104 3.92416 14.0534 23.4487
694 1 -1.1104 3.91383 19.6256 23.3801
695 1 -1.1104 3.72443 14.1903 26.3255
696 1 -1.1104 3.88003 19.644 26.195
697 2 2.2208 2.3652 9.68103 22.0013
698 2 2.2208 2.4973 15.4346 22.1058
699 2 2.2208 2.42995 21.0509 22.1333
700 1 -1.1104 3.79277 11.2447 23.3048
701 1 -1.1104 3.94769 16.9984 23.4803
702 1 -1.1104 3.78048 11.2028 26.1177
703 1 -1.1104 4.00644 16.8383 26.3036
678 1 -1.1104 6.56749 14.1537 26.0879
675 1 -1.1104 6.81157 19.5191 23.487
690 1 -1.1104 6.6462 16.9783 26.2006
442 2 2.2208 2.4755 15.4486 27.7227
704 2 2.2208 -0.260175 21.17 24.9741
708 2 2.2208 -0.375054 12.586 21.9399
705 2 2.2208 -0.290376 15.4318 25.0133
443 2 2.2208 2.42927 9.84896 27.6366
445 2 2.2208 5.23684 12.7541 27.5439
493 2 2.2208 13.6025 9.80307 27.6145
744 2 2.2208 13.7067 15.3869 22.0612
734 1 -1.1104 9.50924 19.4825 23.3984
732 1 -1.1104 9.42476 16.8253 20.5139
645 1 -1.1104 9.56874 19.8268 20.6147
720 1 -1.1104 12.4254 19.875 26.2213
722 1 -1.1104 12.2982 14.0426 20.7003
745 2 2.2208 13.667 21.1978 21.9846
689 1 -1.1104 6.65299 11.369 26.3776
679 1 -1.1104 6.69897 19.7356 26.2741
674 1 -1.1104 6.68072 14.0276 23.2922
712 1 -1.1104 9.4018 11.108 23.2919
733 1 -1.1104 9.51487 14.206 26.1207
717 2 2.2208 10.785 9.95506 24.8087
739 2 2.2208 10.8805 18.1593 22.0655
714 2 2.2208 8.18083 15.4894 22.0584
730 1 -1.1104 9.52757 13.8752 20.5844
727 1 -1.1104 12.2304 16.7985 20.6142
725 1 -1.1104 12.3297 16.8533 23.4927
709 1 -1.1104 9.59796 16.8843 26.2709
740 1 -1.1104 12.3514 13.9735 23.4583
741 2 2.2208 13.7112 12.7152 24.8032
685 1 -1.1104 6.5868 11.2012 23.3396
631 1 -1.1104 12.3818 19.6123 20.608
711 1 -1.1104 9.54545 16.8248 23.2877
724 2 2.2208 10.9288 15.4685 24.8422
737 2 2.2208 7.97458 12.6301 24.713
719 1 -1.1104 12.3296 16.9649 26.2126
735 1 -1.1104 9.58871 14.1269 23.295
715 2 2.2208 7.9393 9.88331 21.8494
736 2 2.2208 8.11027 18.1465 24.9429
729 1 -1.1104 12.3238 11.2689 23.4315
686 1 -1.1104 6.73312 16.765 23.3775
716 1 -1.1104 9.57343 19.6785 26.1668
728 1 -1.1104 12.3906 19.6641 23.4544
718 2 2.2208 10.8956 21.0776 24.7867
710 1 -1.1104 9.50132 11.4043 26.1404
713 2 2.2208 8.09693 21.1026 22.1919
723 1 -1.1104 12.3004 14.142 26.2237
721 1 -1.1104 12.319 11.3777 26.1501
738 2 2.2208 11.003 12.5852 22.0137
486 2 2.2208 8.11415 15.5185 27.6625
487 2 2.2208 8.16454 9.89688 27.5443
746 2 2.2208 5.3062 23.9918 5.40328
748 2 2.2208 5.42227 29.4371 5.35877
749 1 -1.1104 1.14742 25.3348 1.11735
750 1 -1.1104 1.16506 30.9216 1.26186
753 1 -1.1104 1.14869 25.2218 3.89368
754 1 -1.1104 1.13775 30.8809 3.96512
757 2 2.2208 5.301 26.63 2.58293
758 2 2.2208 5.37979 32.2576 2.48372
759 1 -1.1104 1.08283 22.558 1.10318
760 1 -1.1104 1.0585 28.0006 1.04784
761 1 -1.1104 0.97735 33.6986 1.04921
765 1 -1.1104 1.04936 22.4073 3.98306
766 1 -1.1104 1.14789 28.0673 4.13009
767 1 -1.1104 1.07095 33.6349 3.90736
771 2 2.2208 2.45386 23.8974 2.50587
772 2 2.2208 2.47137 29.5016 2.60681
773 1 -1.1104 3.77565 25.2561 1.16986
774 1 -1.1104 3.96853 30.8742 1.12722
775 1 -1.1104 3.92401 25.2175 4.00941
776 1 -1.1104 4.01413 30.9121 3.89118
778 2 2.2208 2.56179 26.6491 5.44138
779 2 2.2208 2.57438 32.3615 5.25584
780 1 -1.1104 3.93108 22.5068 1.09634
781 1 -1.1104 3.83556 28.1387 1.04679
782 1 -1.1104 4.01957 33.7174 1.08868
783 1 -1.1104 3.80144 22.3531 3.87485
784 1 -1.1104 4.04755 28.1224 4.00143
785 1 -1.1104 3.84155 33.6579 3.82029
842 1 -1.1104 3.95967 33.6781 6.64439
830 1 -1.1104 6.74935 25.3261 6.76342
833 1 -1.1104 1.01533 28.2633 7.06293
841 1 -1.1104 3.86647 27.9434 6.89848
790 2 2.2208 -0.376659 32.2279 2.61661
789 2 2.2208 -0.291138 29.4409 5.48939
791 2 2.2208 5.27621 23.8989 -0.31533
763 1 -1.1104 6.68948 28.1652 1.15985
747 2 2.2208 5.43588 29.5412 -0.192532
786 2 2.2208 -0.237072 26.6405 2.52745
840 1 -1.1104 3.74126 22.5712 6.68951
832 1 -1.1104 0.916806 22.4315 6.68082
1080 2 2.2208 2.55078 32.3264 -0.219082
769 1 -1.1104 6.81474 28.1963 4.00596
752 1 -1.1104 6.82379 31.0325 1.22305
762 1 -1.1104 6.72941 22.4686 1.04304
756 1 -1.1104 6.7567 30.9838 3.98373
823 2 2.2208 13.6407 26.8285 -0.257534
770 1 -1.1104 6.83954 33.6272 3.7667
755 1 -1.1104 6.77408 25.435 3.81714
751 1 -1.1104 6.67253 25.3705 1.0739
768 1 -1.1104 6.82419 22.4656 3.87722
764 1 -1.1104 6.73672 33.8761 1.01501
793 2 2.2208 10.9067 23.9367 5.28853
794 2 2.2208 10.9527 29.4891 5.34948
795 1 -1.1104 12.2604 25.2832 1.1022
796 1 -1.1104 12.4403 30.9893 1.12623
797 1 -1.1104 12.3665 25.235 3.96787
798 1 -1.1104 12.2184 30.8679 3.91482
799 2 2.2208 10.8453 26.7022 2.41908
800 2 2.2208 11.0169 32.2854 2.53007
801 1 -1.1104 12.3087 22.522 1.13464
802 1 -1.1104 12.3691 28.0396 1.19984
803 1 -1.1104 12.3501 33.6634 1.22435
804 1 -1.1104 12.287 22.4164 3.81319
805 1 -1.1104 12.2401 27.9653 3.91303
806 1 -1.1104 12.4696 33.6877 3.92686
807 2 2.2208 8.16482 23.9115 2.49497
808 2 2.2208 8.05675 29.4891 2.54598
809 1 -1.1104 9.52971 25.2399 1.13139
810 1 -1.1104 9.59793 30.952 1.13553
811 1 -1.1104 9.53989 25.1149 3.90284
812 1 -1.1104 9.60937 30.8342 3.9513
814 2 2.2208 8.03374 26.8171 5.31859
815 2 2.2208 8.18954 32.2997 5.3425
816 1 -1.1104 9.52218 22.5439 1.21152
817 1 -1.1104 9.55361 28.1798 1.22296
818 1 -1.1104 9.51504 33.812 1.00215
819 1 -1.1104 9.45287 22.2627 3.87515
820 1 -1.1104 9.47778 28.0394 3.99206
821 1 -1.1104 9.54597 33.6897 3.74781
813 2 2.2208 8.03032 26.6577 -0.238951
1113 2 2.2208 8.16057 32.3211 -0.345235
896 1 -1.1104 12.1689 30.9337 6.74427
836 1 -1.1104 6.61954 27.9953 6.87481
822 2 2.2208 10.8492 23.8501 -0.221152
839 1 -1.1104 3.87996 30.8022 6.57865
828 1 -1.1104 1.07549 25.2161 6.73304
835 1 -1.1104 6.64836 22.5747 6.7226
843 2 2.2208 -0.27657 29.6008 11.004
838 1 -1.1104 3.80922 25.193 6.73633
829 1 -1.1104 1.05169 30.9853 6.72276
834 1 -1.1104 1.01702 33.7252 6.66384
883 2 2.2208 -0.331369 32.3863 8.06155
844 2 2.2208 5.31113 23.8359 10.9106
845 2 2.2208 5.27646 29.4286 10.9626
846 1 -1.1104 1.05783 25.2719 12.3599
847 1 -1.1104 1.19063 30.7148 12.3578
850 1 -1.1104 1.09283 25.4162 9.62073
851 1 -1.1104 1.05002 31.0791 9.56145