ITEM: TIMESTEP
50000
ITEM: NUMBER OF ATOMS
18000
ITEM: BOX BOUNDS pp pp pp
-3.5890535570927018e-01 2.7698905355709776e+01
-4.1996459142510947e+00 3.3227964591424382e+02
-3.5889155941536832e-01 2.7698891559415248e+01
ITEM: ATOMS id type q x y z
1 2 2.2208 5.26804 1.48097 5.39865
2 2 2.2208 5.22893 7.13892 5.37064
3 1 -1.1104 0.930195 -2.74809 1.00859
5 1 -1.1104 0.949964 2.95322 0.974446
7 1 -1.1104 0.986007 8.29427 1.29139
15 1 -1.1104 0.924675 -2.80429 3.84964
16 1 -1.1104 0.918844 2.74095 3.78001
17 1 -1.1104 0.864332 8.32782 3.9499
21 2 2.2208 5.24144 -1.41794 2.58259
22 2 2.2208 5.21197 4.31367 2.52227
23 1 -1.1104 1.0291 0.0869875 1.04289
25 1 -1.1104 0.92745 5.67562 1.37087
31 1 -1.1104 1.09363 -0.0152528 3.9504
32 1 -1.1104 0.95616 5.50422 3.99422
35 2 2.2208 2.49526 1.39029 2.61634
36 2 2.2208 2.34967 6.94568 2.6555
37 1 -1.1104 3.73443 -2.62096 1.13848
39 1 -1.1104 3.73155 2.8573 1.19213
41 1 -1.1104 3.78294 8.4513 1.15883
43 1 -1.1104 3.78457 -2.92204 3.85904
44 1 -1.1104 3.77971 2.86099 4.10713
45 1 -1.1104 3.57335 8.56594 4.00669
46 2 2.2208 2.39244 -1.40744 5.2825
47 2 2.2208 2.39628 4.15776 5.43314
48 1 -1.1104 3.81673 0.0220338 1.08917
50 1 -1.1104 3.85186 5.48405 0.996252
52 1 -1.1104 3.96821 -0.144754 3.89673
53 1 -1.1104 3.75877 5.64497 3.95336
33 1 -1.1104 6.61396 0.0143638 3.94052
54 2 2.2208 2.26491 4.19636 -0.34099
9 1 -1.1104 6.54358 -2.73793 1.22793
11 1 -1.1104 6.5226 2.8826 1.11617
18 1 -1.1104 6.53708 -2.85955 3.96469
57 2 2.2208 4.96079 1.53691 -0.289018
55 2 2.2208 2.37422 -1.30995 -0.280484
13 1 -1.1104 6.61466 8.52253 1.1762
34 1 -1.1104 6.5031 5.8105 4.05342
30 1 -1.1104 6.77828 5.53038 6.8435
210 2 2.2208 10.8634 -4.28761 11.0276
19 1 -1.1104 6.53421 2.83213 3.79885
29 1 -1.1104 6.6884 5.65034 1.1172
27 1 -1.1104 6.56235 0.203751 1.16566
20 1 -1.1104 6.6093 8.73879 3.91186
10 1 -1.1104 6.64139 -2.80991 6.78394
26 1 -1.1104 0.933998 5.5523 6.79837
98 1 -1.1104 9.51265 8.50233 4.05205
69 2 2.2208 10.718 1.52168 5.3841
70 2 2.2208 10.7678 7.05299 5.28362
71 1 -1.1104 12.3673 -2.72984 1.21605
73 1 -1.1104 12.0908 2.90255 1.2107
75 1 -1.1104 12.132 8.59911 1.05144
77 1 -1.1104 12.3455 -2.81393 4.12857
78 1 -1.1104 12.359 2.76827 3.87921
79 1 -1.1104 12.2695 8.47576 3.88897
80 2 2.2208 10.8329 -1.36439 2.55504
81 2 2.2208 10.6185 4.28539 2.45253
82 1 -1.1104 12.2075 -0.0195183 1.25907
84 1 -1.1104 12.0572 5.81247 1.06552
86 1 -1.1104 12.1585 -0.0637062 3.98019
87 1 -1.1104 12.0766 5.54796 3.90709
88 2 2.2208 7.92396 1.46397 2.48601
89 2 2.2208 7.95997 7.23529 2.61978
90 1 -1.1104 9.38047 -2.68826 1.13871
92 1 -1.1104 9.31263 2.90107 1.24011
94 1 -1.1104 9.36049 8.49204 1.12519
96 1 -1.1104 9.36007 -2.8888 3.94127
97 1 -1.1104 9.37186 2.8361 3.98255
99 2 2.2208 7.97922 -1.49392 5.26335
100 2 2.2208 8.00828 4.26436 5.36539
101 1 -1.1104 9.44825 0.101168 1.28581
103 1 -1.1104 9.26944 5.85552 1.15137
105 1 -1.1104 9.41036 -0.0787736 4.0519
106 1 -1.1104 9.20283 5.66745 3.95008
114 2 2.2208 13.729 4.19484 5.44049
212 2 2.2208 7.96957 -4.11074 8.25334
113 2 2.2208 13.6022 -1.33531 5.35806
112 2 2.2208 13.4717 7.02329 2.60311
115 2 2.2208 13.5614 -1.28715 -0.30575
111 2 2.2208 13.6011 1.43658 2.54433
107 2 2.2208 7.98622 4.39839 -0.24917
66 2 2.2208 2.44615 -4.19032 2.50125
74 1 -1.1104 12.2633 2.86848 6.81907
83 1 -1.1104 12.2571 0.0301811 6.81834
109 2 2.2208 10.8084 7.21373 -0.366335
8 1 -1.1104 1.17317 8.48814 6.82269
28 1 -1.1104 6.62437 -0.0498774 6.82186
12 1 -1.1104 6.68352 2.77176 6.68308
169 2 2.2208 5.05505 -4.21514 10.9736
140 1 -1.1104 6.68083 0.032769 12.4667
40 1 -1.1104 3.94694 2.83283 6.82912
49 1 -1.1104 3.82784 -0.116898 6.70137
24 1 -1.1104 0.975586 0.0939003 6.65927
4 1 -1.1104 1.10398 -2.75555 6.69023
42 1 -1.1104 3.81047 8.37857 6.90561
6 1 -1.1104 0.957951 2.67569 6.55033
38 1 -1.1104 3.92422 -2.91472 6.6083
51 1 -1.1104 3.90819 5.63655 6.68945
121 1 -1.1104 3.8536 5.58207 9.47118
122 2 2.2208 5.11256 1.45781 10.8434
123 2 2.2208 5.16947 7.00784 10.9656
124 1 -1.1104 0.92914 -2.66368 12.2742
125 1 -1.1104 1.11067 2.72902 12.1687
126 1 -1.1104 0.767293 8.45753 12.4405
130 1 -1.1104 0.978022 -2.93724 9.47261
131 1 -1.1104 0.986178 2.71663 9.55307
132 1 -1.1104 1.06347 8.3653 9.59325
136 2 2.2208 5.06001 -1.41726 8.15035
137 2 2.2208 5.31616 4.1898 8.20723
138 1 -1.1104 0.910344 0.0727977 12.1936
139 1 -1.1104 1.19388 5.64773 12.3486
142 1 -1.1104 0.858298 -0.149381 9.32438
143 1 -1.1104 1.05061 5.75944 9.6501
146 2 2.2208 2.25852 1.36604 8.06855
147 2 2.2208 2.50603 6.9547 8.25014
148 1 -1.1104 3.56099 -2.85926 12.2555
149 1 -1.1104 3.87619 2.80196 12.1613
150 1 -1.1104 3.65937 8.47587 12.4243
151 1 -1.1104 3.7445 -2.86244 9.41163
152 1 -1.1104 3.71653 2.84877 9.46802
153 1 -1.1104 3.84023 8.39337 9.56226
154 2 2.2208 2.24604 -1.34292 10.8999
155 2 2.2208 2.38184 4.1938 10.9235
156 1 -1.1104 3.89502 0.0386137 12.2281
157 1 -1.1104 3.80515 5.75512 12.3598
158 1 -1.1104 3.66973 0.126675 9.46369
133 1 -1.1104 6.53492 -2.83048 9.60907
127 1 -1.1104 6.6594 -2.69972 12.3843
134 1 -1.1104 6.59609 2.84109 9.61215
141 1 -1.1104 6.53338 5.6058 12.5228
145 1 -1.1104 6.60521 5.56844 9.59535
14 1 -1.1104 6.57833 8.35049 6.70038
129 1 -1.1104 6.44113 8.49594 12.3216
144 1 -1.1104 6.59461 0.11953 9.56183
135 1 -1.1104 6.56299 8.36594 9.53191
128 1 -1.1104 6.54585 2.86684 12.3875
207 2 2.2208 13.6408 6.90374 8.24559
102 1 -1.1104 9.4389 0.0115443 6.81584
65 2 2.2208 5.29934 -4.19907 5.32245
199 1 -1.1104 12.2358 8.52687 9.27231
91 1 -1.1104 9.33193 -2.80104 6.73089
209 2 2.2208 13.6117 4.25932 11.0033
173 1 -1.1104 9.43298 0.0943649 9.58556
187 1 -1.1104 12.1338 5.77168 12.3155
177 2 2.2208 8.04654 -1.35798 10.9704
206 2 2.2208 13.581 1.47465 8.17197
208 2 2.2208 13.6552 -1.31791 10.9398
183 1 -1.1104 9.2327 2.93192 9.51278
172 1 -1.1104 9.2731 5.55873 9.51292
76 1 -1.1104 12.0631 8.48323 6.57415
72 1 -1.1104 12.1434 -2.86503 6.97184
85 1 -1.1104 12.3422 5.56534 6.76291
104 1 -1.1104 9.61813 5.63309 6.7276
174 1 -1.1104 9.47108 5.65408 12.3073
182 1 -1.1104 9.33391 8.48395 9.45789
191 2 2.2208 10.7451 4.2227 8.21802
178 2 2.2208 8.02202 1.4223 8.21629
192 1 -1.1104 12.1724 2.8628 9.62614
180 1 -1.1104 12.211 -2.66313 9.65231
194 1 -1.1104 9.26342 8.47235 12.3718
198 2 2.2208 7.91324 7.09799 8.19433
184 1 -1.1104 12.2543 0.160704 9.55335
196 2 2.2208 10.7308 -1.34175 8.12245
95 1 -1.1104 9.2461 8.49309 6.70515
93 1 -1.1104 9.41354 2.80714 6.68759
188 1 -1.1104 12.2626 -0.055705 12.4406
195 1 -1.1104 9.33762 2.86086 12.3483
185 1 -1.1104 12.1191 2.92015 12.3263
179 1 -1.1104 12.0606 5.76238 9.57446
189 2 2.2208 10.8098 7.06644 10.9124
193 1 -1.1104 9.41638 -2.7119 9.57599
186 1 -1.1104 12.2736 -2.8363 12.4167
181 1 -1.1104 12.1238 8.48398 12.2587
175 1 -1.1104 9.4258 0.0571362 12.3014
197 1 -1.1104 9.37442 -2.79821 12.2736
176 2 2.2208 7.89428 4.25907 10.8568
190 2 2.2208 10.8074 1.37835 11.1028
116 2 2.2208 13.5096 4.33382 -0.136646
161 2 2.2208 2.2875 1.46718 13.6821
110 2 2.2208 10.8053 1.51892 -0.225575
56 2 2.2208 5.25349 7.13174 -0.332582
213 2 2.2208 8.05811 -4.27656 13.8416
214 2 2.2208 5.13846 1.39019 16.6353
215 2 2.2208 5.07927 7.11658 16.4922
216 1 -1.1104 0.892747 -2.74441 17.9501
217 1 -1.1104 1.016 2.90537 17.7673
218 1 -1.1104 0.930067 8.59399 17.8483
222 1 -1.1104 1.01602 -2.8116 15.0072
223 1 -1.1104 0.84326 2.85471 14.8757
224 1 -1.1104 0.905179 8.60371 15.0907
228 2 2.2208 5.09903 -1.37265 19.2155
229 2 2.2208 5.16424 4.23426 19.2977
230 1 -1.1104 0.901956 0.103303 17.7924
231 1 -1.1104 1.02208 5.77062 17.9022
234 1 -1.1104 0.982169 -0.0204509 15.0041
235 1 -1.1104 1.0317 5.58212 15.0949
238 2 2.2208 2.33464 1.58152 19.2992
239 2 2.2208 2.35169 7.07091 19.3692
240 1 -1.1104 3.82742 -2.69556 17.9164
241 1 -1.1104 3.80061 2.8543 17.9313
242 1 -1.1104 3.64081 8.44474 17.9885
243 1 -1.1104 3.83069 -2.77134 15.0166
244 1 -1.1104 3.74819 2.81872 15.1738
245 1 -1.1104 3.66565 8.53269 15.1831
246 2 2.2208 2.23389 -1.37931 16.5497
247 2 2.2208 2.39877 4.27765 16.4982
248 1 -1.1104 3.78027 0.0386016 17.7565
249 1 -1.1104 3.70491 5.50798 17.8131
250 1 -1.1104 3.66313 -0.0444439 15.0755
251 1 -1.1104 3.85765 5.76948 15.0578
219 1 -1.1104 6.58744 -2.86024 17.9583
227 1 -1.1104 6.58468 8.54322 15.228
297 1 -1.1104 6.45674 -2.72684 20.8492
288 2 2.2208 13.6171 1.42357 19.256
162 2 2.2208 2.29547 7.03384 13.9346
296 1 -1.1104 0.863522 8.47134 20.8263
252 2 2.2208 2.26623 -4.18742 13.6482
204 2 2.2208 13.5393 7.07013 13.6807
236 1 -1.1104 6.31863 0.0864879 15.2576
226 1 -1.1104 6.49302 2.90953 15.3294
237 1 -1.1104 6.70345 5.77874 15.2753
225 1 -1.1104 6.72375 -2.67607 15.1376
232 1 -1.1104 6.59001 -0.00665012 18.0451
221 1 -1.1104 6.46679 8.50915 18.0214
233 1 -1.1104 6.45365 5.76335 18.0863
220 1 -1.1104 6.61353 2.91017 17.995
305 1 -1.1104 3.57049 2.96924 20.8121
396 2 2.2208 10.7042 -4.15677 22.2166
291 2 2.2208 7.892 -4.13585 19.3981
260 2 2.2208 10.76 1.43555 16.4187
261 2 2.2208 10.7243 7.10098 16.5178
262 1 -1.1104 12.1494 -2.94084 18.0825
263 1 -1.1104 12.2488 2.85267 17.8662
264 1 -1.1104 12.0462 8.33044 17.9032
265 1 -1.1104 12.0916 -2.72311 15.3065
266 1 -1.1104 12.1316 2.69882 15.1294
267 1 -1.1104 12.1295 8.50169 15.0775
268 2 2.2208 10.7726 -1.42444 19.3159
269 2 2.2208 10.6991 4.29173 19.3475
270 1 -1.1104 12.1039 -0.0396292 17.8795
271 1 -1.1104 11.9114 5.61828 17.8638
272 1 -1.1104 12.232 0.0319057 15.133
273 1 -1.1104 12.159 5.56366 15.2325
274 2 2.2208 8.01864 1.3554 19.3425
275 2 2.2208 7.96748 7.11639 19.3944
276 1 -1.1104 9.31353 -2.75427 17.9607
277 1 -1.1104 9.46156 2.80856 17.986
278 1 -1.1104 9.35216 8.53523 17.9952
279 1 -1.1104 9.39718 -2.92247 15.0525
280 1 -1.1104 9.40179 2.869 15.0828
281 1 -1.1104 9.25468 8.49571 15.1434
282 2 2.2208 7.98354 -1.33625 16.6285
283 2 2.2208 7.96047 4.27973 16.5269
284 1 -1.1104 9.44983 0.0556241 17.9865
285 1 -1.1104 9.34651 5.8029 17.9665
286 1 -1.1104 9.29635 0.0434349 15.0983
287 1 -1.1104 9.42508 5.73592 15.1125
9616 2 2.2208 13.5185 7.0078 19.3834
391 2 2.2208 10.6419 -1.41177 24.9523
357 2 2.2208 7.98841 7.0833 24.9904
289 2 2.2208 13.5925 -1.39516 16.4455
378 1 -1.1104 12.0258 8.49676 23.5602
380 1 -1.1104 9.39493 -2.90759 20.8061
290 2 2.2208 13.4748 4.34364 16.5917
205 2 2.2208 13.7243 1.40849 13.7707
203 2 2.2208 7.92824 7.1311 13.8227
307 1 -1.1104 3.70192 0.0935957 20.613
300 1 -1.1104 1.00795 -0.0451177 20.611
301 1 -1.1104 1.05374 5.5725 20.561
298 1 -1.1104 6.50902 2.85373 20.6586
294 1 -1.1104 0.996577 -2.85824 20.6162
304 1 -1.1104 3.73144 -2.77493 20.8455
299 1 -1.1104 6.40561 8.38404 20.863
303 1 -1.1104 6.54938 5.608 20.8669
295 1 -1.1104 0.846474 2.74191 20.6454
308 1 -1.1104 3.90215 5.57407 20.9141
306 1 -1.1104 3.80034 8.32426 20.7662
309 2 2.2208 5.22789 1.55755 22.0895
310 2 2.2208 5.20228 6.96158 22.2316
311 1 -1.1104 0.996611 -2.84415 23.4541
312 1 -1.1104 1.00502 2.92509 23.4528
313 1 -1.1104 0.867008 8.52335 23.6499
317 1 -1.1104 1.04039 -2.85937 26.2901
318 1 -1.1104 1.03347 2.77961 26.2839
319 1 -1.1104 0.928505 8.44923 26.5347
323 2 2.2208 5.09777 -1.38109 24.8787
324 2 2.2208 5.11219 4.2887 25.0204
325 1 -1.1104 1.12341 0.00576993 23.4832
326 1 -1.1104 0.894178 5.69781 23.3445
329 1 -1.1104 0.872996 0.0708708 26.2837
330 1 -1.1104 0.939949 5.60637 26.2757
333 2 2.2208 2.33569 1.41445 24.9114
334 2 2.2208 2.36566 7.05764 25.0511
335 1 -1.1104 3.78974 -2.78018 23.5023
336 1 -1.1104 3.79517 2.89952 23.7897
337 1 -1.1104 3.62238 8.51055 23.6536
338 1 -1.1104 3.86145 -2.77529 26.2771
339 1 -1.1104 3.67789 2.91273 26.4226
340 1 -1.1104 3.58179 8.49967 26.5193
341 2 2.2208 2.41201 -1.36923 22.0943
342 2 2.2208 2.24513 4.34436 22.1178
343 1 -1.1104 3.79094 0.0133334 23.6295
344 1 -1.1104 3.75262 5.69633 23.6589
345 1 -1.1104 3.59632 0.0443258 26.43
346 1 -1.1104 3.77664 5.69946 26.3867
331 1 -1.1104 6.40466 -0.0205144 26.346
322 1 -1.1104 6.5395 8.50112 26.4154
315 1 -1.1104 6.57612 2.78699 23.6014
328 1 -1.1104 6.53364 5.61027 23.7338
302 1 -1.1104 6.6114 0.123902 20.7708
327 1 -1.1104 6.56062 0.0242751 23.6672
320 1 -1.1104 6.69823 -2.67089 26.262
316 1 -1.1104 6.51794 8.51664 23.6994
321 1 -1.1104 6.50696 2.8442 26.4375
314 1 -1.1104 6.59702 -2.73598 23.5576
364 2 2.2208 7.84384 1.47114 25.0566
382 1 -1.1104 9.24772 8.50524 20.761
374 1 -1.1104 12.2505 0.169311 20.7062
388 2 2.2208 10.8297 4.32381 24.9628
389 1 -1.1104 9.38171 2.85951 23.7995
393 2 2.2208 13.5013 6.95378 24.8195
372 1 -1.1104 12.0883 -2.72933 26.2992
371 1 -1.1104 12.0878 8.34926 20.8026
385 1 -1.1104 9.36501 2.9247 26.6026
355 1 -1.1104 9.32151 -0.0189274 26.47
332 1 -1.1104 6.7243 5.88635 26.5041
360 2 2.2208 7.86537 -1.33847 22.2422
395 2 2.2208 13.5072 4.27287 22.1588
383 1 -1.1104 9.31659 -0.137493 20.6869
381 1 -1.1104 9.39959 2.80073 20.8848
375 1 -1.1104 12.1685 5.60752 20.6833
392 2 2.2208 13.4736 1.45512 24.9753
379 1 -1.1104 12.1844 8.48046 26.2824
361 1 -1.1104 9.29746 8.53569 26.3983
376 1 -1.1104 12.1396 5.66913 23.4415
365 1 -1.1104 12.1353 5.70997 26.3445
370 1 -1.1104 12.1734 2.88815 20.6742
384 1 -1.1104 9.35215 5.56298 20.6618
366 1 -1.1104 12.0358 -2.70322 23.4579
367 2 2.2208 10.7042 7.04222 22.0476
368 1 -1.1104 12.1326 0.0968739 26.3872
387 1 -1.1104 9.30323 8.45112 23.4954
386 1 -1.1104 9.35518 -2.97325 26.4384
354 1 -1.1104 9.41857 5.75565 26.353
363 1 -1.1104 12.2178 2.85169 23.5649
390 1 -1.1104 9.30462 -2.7243 23.6007
373 2 2.2208 10.8671 1.4704 22.234
369 1 -1.1104 12.1549 -2.63009 20.8268
359 2 2.2208 7.99123 4.22783 22.1988
362 1 -1.1104 12.1497 2.96943 26.3943
356 1 -1.1104 9.38435 5.67621 23.5469
358 1 -1.1104 9.37312 0.167182 23.6828
377 1 -1.1104 12.0323 0.00927795 23.5055
353 2 2.2208 2.42419 -4.2206 24.9352
9617 2 2.2208 13.5399 -4.21812 19.4521
259 2 2.2208 5.08117 -4.08806 16.4392
202 2 2.2208 10.827 4.28417 13.7337
108 2 2.2208 7.92596 -1.26561 27.7866
200 2 2.2208 10.7912 -1.47349 13.6902
201 2 2.2208 7.98545 1.51137 13.8081
159 2 2.2208 5.16235 -1.27284 13.6602
160 2 2.2208 5.05312 4.23882 13.7592
398 2 2.2208 5.12428 12.6752 5.29216
399 2 2.2208 5.21421 18.3604 5.36562
400 1 -1.1104 0.845595 14.1061 1.228
402 1 -1.1104 1.26368 19.5357 1.03072
406 1 -1.1104 1.04088 13.9726 4.00978
407 1 -1.1104 0.828515 19.7123 3.95683
410 2 2.2208 5.11857 9.7755 2.48683
411 2 2.2208 5.24187 15.4476 2.46249
412 2 2.2208 5.24605 21.0588 2.60124
413 1 -1.1104 0.868998 11.0736 1.37157
415 1 -1.1104 0.999592 16.7029 1.23047
421 1 -1.1104 0.886933 11.1979 4.07565
422 1 -1.1104 1.07265 16.8141 3.97773
425 2 2.2208 2.43118 12.5899 2.61271
426 2 2.2208 2.31627 18.1574 2.54326
427 1 -1.1104 3.70268 14.0306 1.30749
429 1 -1.1104 3.95502 19.6794 1.1342
430 1 -1.1104 3.82266 14.0577 3.93731
431 1 -1.1104 3.86186 19.625 3.87261
432 2 2.2208 2.35549 9.86749 5.5228
433 2 2.2208 2.39267 15.3223 5.33065
434 2 2.2208 2.34673 21.0579 5.21583
435 1 -1.1104 3.72665 11.2544 1.18326
437 1 -1.1104 4.00494 16.7518 1.1107
439 1 -1.1104 3.78459 11.2866 3.92818
440 1 -1.1104 3.76002 16.9395 4.01138
405 1 -1.1104 6.68839 19.6912 1.13492
443 2 2.2208 2.33448 9.74614 -0.0825626
441 2 2.2208 2.43794 20.9516 -0.246669
444 2 2.2208 5.19536 18.2791 -0.21333
442 2 2.2208 2.25649 15.3818 -0.138982
409 1 -1.1104 6.63253 19.8405 4.04562
417 1 -1.1104 6.63441 11.3811 0.964842
445 2 2.2208 5.06738 12.6806 -0.251216
419 1 -1.1104 6.63931 16.8432 1.2037
424 1 -1.1104 6.58277 17.0388 3.92759
423 1 -1.1104 6.56711 11.4286 4.08329
403 1 -1.1104 6.59943 14.0918 1.07043
428 1 -1.1104 3.66031 14.0284 6.80159
404 1 -1.1104 6.55601 14.0054 6.60505
408 1 -1.1104 6.47158 14.0772 3.91425
9793 2 2.2208 13.5616 18.2187 2.47161
453 2 2.2208 10.8358 12.6957 5.36529
454 2 2.2208 10.827 18.26 5.3822
455 1 -1.1104 12.3693 13.9392 1.14217
457 1 -1.1104 12.2232 19.707 1.0335
458 1 -1.1104 12.151 14.2853 4.22182
459 1 -1.1104 12.3832 19.8198 3.98964
460 2 2.2208 10.9655 9.92453 2.56574
461 2 2.2208 10.7525 15.5986 2.51871
462 2 2.2208 10.8151 21.1393 2.47266
463 1 -1.1104 12.1496 11.2471 1.09929
465 1 -1.1104 12.179 16.8173 1.15953
467 1 -1.1104 12.1361 11.3677 3.82396
468 1 -1.1104 12.234 17.0209 4.00135
469 2 2.2208 8.02705 12.6724 2.42688
470 2 2.2208 8.00949 18.2883 2.57126
471 1 -1.1104 9.54046 14.1184 1.20744
473 1 -1.1104 9.37315 19.6467 1.27341
474 1 -1.1104 9.26712 14.1021 3.83173
475 1 -1.1104 9.5081 19.7467 3.94661
476 2 2.2208 7.95592 9.95698 5.46842
477 2 2.2208 7.90819 15.4271 5.29792
478 2 2.2208 8.09502 21.1092 5.3504
479 1 -1.1104 9.48278 11.2581 1.05471
481 1 -1.1104 9.46949 16.8871 1.06977
483 1 -1.1104 9.33864 11.3087 4.05639
484 1 -1.1104 9.34667 16.8397 3.86823
9794 2 2.2208 13.6359 21.1796 -0.428804
486 2 2.2208 7.93577 15.4295 -0.427581
485 2 2.2208 7.95919 21.0192 -0.184568
488 2 2.2208 10.835 18.2922 -0.279556
482 1 -1.1104 9.3726 16.8167 6.75679
490 2 2.2208 13.6614 12.7286 2.48762
494 2 2.2208 13.6029 15.5009 -0.285982
492 2 2.2208 13.6593 15.5261 5.46796
451 2 2.2208 -0.468713 12.5122 -0.165265
493 2 2.2208 13.6356 9.86035 -0.289261
491 2 2.2208 13.4958 9.85745 5.34661
495 2 2.2208 13.7818 20.9613 5.22734
574 2 2.2208 13.6508 21.143 10.7906
497 1 -1.1104 6.58847 19.7895 6.71802
401 1 -1.1104 0.977916 14.1269 6.92033
498 1 -1.1104 3.84397 19.7062 6.76353
436 1 -1.1104 3.74923 11.3896 6.67664
420 1 -1.1104 6.4937 16.8074 6.74785
496 1 -1.1104 1.04674 19.7671 6.64736
416 1 -1.1104 0.851898 16.9551 6.74587
438 1 -1.1104 3.66242 16.9102 6.83999
414 1 -1.1104 0.897704 11.24 6.66323
499 2 2.2208 5.19281 12.7568 11.1842
500 2 2.2208 5.20794 18.2246 10.958
501 1 -1.1104 0.898749 13.9881 12.4328
502 1 -1.1104 0.910447 19.6309 12.2498
505 1 -1.1104 1.08404 14.0916 9.67703
506 1 -1.1104 1.08707 19.6211 9.51841
509 2 2.2208 5.16818 9.81892 8.15448
510 2 2.2208 5.20257 15.4682 8.0479
511 2 2.2208 5.20364 21.1012 8.10997
512 1 -1.1104 1.06065 11.2735 12.2983
513 1 -1.1104 1.07167 16.8382 12.3758
516 1 -1.1104 1.0963 11.2312 9.6583
517 1 -1.1104 0.914385 16.8104 9.45403
520 2 2.2208 2.52825 12.6783 8.3297
521 2 2.2208 2.40996 18.3564 8.12875
522 1 -1.1104 3.8603 14.0819 12.4527
523 1 -1.1104 3.74935 19.8225 12.3113
524 1 -1.1104 3.85872 14.1356 9.6856
525 1 -1.1104 3.86788 19.6865 9.5628
526 2 2.2208 2.46568 9.85107 11.0352
527 2 2.2208 2.40852 15.5533 10.9697
528 2 2.2208 2.44185 21.1034 10.8031
529 1 -1.1104 3.84875 11.3181 12.2754
530 1 -1.1104 3.75411 16.9345 12.5096
531 1 -1.1104 4.00542 11.3215 9.62568
532 1 -1.1104 3.7137 16.9697 9.62675
515 1 -1.1104 6.56054 16.7754 12.2802
519 1 -1.1104 6.49639 16.8818 9.52269
518 1 -1.1104 6.4987 11.1302 9.54176
508 1 -1.1104 6.66555 19.6246 9.58726
514 1 -1.1104 6.58947 11.3586 12.3232
507 1 -1.1104 6.59974 14.0786 9.48435
418 1 -1.1104 6.55236 11.1965 6.85246
472 1 -1.1104 9.35022 14.033 6.79958
580 2 2.2208 13.5852 9.80391 10.96
504 1 -1.1104 6.54283 19.6426 12.4584
503 1 -1.1104 6.79216 14.1956 12.4575
584 2 2.2208 13.5536 12.5176 8.22831
546 1 -1.1104 9.3351 16.8457 9.5196
464 1 -1.1104 12.1529 11.2653 6.72807
571 2 2.2208 10.8275 18.3033 10.8831
553 2 2.2208 8.04152 15.487 10.9261
552 2 2.2208 7.91279 21.1445 11.078
551 1 -1.1104 12.286 16.9176 9.59132
575 2 2.2208 13.6026 15.4063 10.9622
557 1 -1.1104 12.1754 11.1706 12.3788
567 1 -1.1104 9.38805 19.8585 12.4257
561 1 -1.1104 9.48186 19.6287 6.87984
466 1 -1.1104 12.106 16.9294 6.77646
560 1 -1.1104 12.2072 19.6162 6.93388
568 1 -1.1104 9.55018 14.2159 12.2519
558 2 2.2208 10.8537 21.0435 8.219
549 1 -1.1104 9.47274 11.2227 12.3178
572 1 -1.1104 12.1101 13.9973 12.3931
554 2 2.2208 7.99525 9.89922 10.9034
573 1 -1.1104 12.0981 19.5328 12.4855
566 1 -1.1104 9.40396 13.9102 9.61446
562 2 2.2208 10.7518 9.7248 8.11081
480 1 -1.1104 9.42575 11.3633 6.85044
548 1 -1.1104 9.42165 16.995 12.1996
565 1 -1.1104 9.40784 19.7129 9.70665
547 1 -1.1104 9.30524 11.2378 9.52921
564 1 -1.1104 12.2139 14.1147 9.60536
563 1 -1.1104 12.3246 19.658 9.62344
556 1 -1.1104 12.3729 16.7642 12.5001
570 2 2.2208 10.8006 12.6325 10.8877
456 1 -1.1104 12.2287 14.0802 6.86647
559 2 2.2208 10.7762 15.4486 8.10535
555 1 -1.1104 12.0983 11.2223 9.70777
569 2 2.2208 8.00064 18.33 8.25888
550 2 2.2208 7.96404 12.6912 8.08338
582 2 2.2208 13.6438 18.2979 8.21375
447 2 2.2208 -0.491046 15.3952 2.64417
536 2 2.2208 2.31516 12.7571 13.7148
489 2 2.2208 10.7516 12.7359 -0.124374
586 2 2.2208 5.10423 12.6027 16.4959
587 2 2.2208 5.08315 18.3898 16.5758
588 1 -1.1104 0.934069 14.1502 17.9603
589 1 -1.1104 1.00741 19.6511 17.9978
592 1 -1.1104 0.961947 14.1397 15.2485
593 1 -1.1104 0.980308 19.7366 14.9875
596 2 2.2208 5.11576 9.88393 19.3574
597 2 2.2208 5.0756 15.5116 19.3169
598 2 2.2208 5.22959 21.0375 19.4045
599 1 -1.1104 0.881269 11.4418 17.9375
600 1 -1.1104 0.89904 16.9108 17.9155
603 1 -1.1104 0.918449 11.3783 15.1868
604 1 -1.1104 0.932463 16.8819 15.0761
607 2 2.2208 2.32651 12.7907 19.328
608 2 2.2208 2.39854 18.2902 19.462
609 1 -1.1104 3.67615 13.9671 17.8968
610 1 -1.1104 3.71601 19.6949 17.9498
611 1 -1.1104 3.65197 14.1102 15.1163
612 1 -1.1104 3.73691 19.7755 15.0978
613 2 2.2208 2.36485 9.96826 16.438
614 2 2.2208 2.3486 15.5096 16.6211
615 2 2.2208 2.38217 21.1131 16.616
616 1 -1.1104 3.67002 11.2267 17.9965
617 1 -1.1104 3.83239 16.9146 17.9421
618 1 -1.1104 3.72456 11.2609 15.0898
619 1 -1.1104 3.8129 16.7868 15.2485
605 1 -1.1104 6.48911 11.2699 15.3007
735 1 -1.1104 9.27498 14.0326 23.7287
594 1 -1.1104 6.65726 14.0411 15.088
534 2 2.2208 5.20477 15.4144 13.7383
533 2 2.2208 2.42259 18.3243 13.7876
544 2 2.2208 5.12358 21.175 13.6341
705 2 2.2208 -0.573748 15.3126 25.2438
601 1 -1.1104 6.47501 11.3694 18.0734
595 1 -1.1104 6.56957 19.7743 15.2172
606 1 -1.1104 6.7252 16.9299 15.1875
581 2 2.2208 13.5558 12.5755 13.7465
602 1 -1.1104 6.47899 16.8911 17.9905
663 1 -1.1104 0.809607 17.001 20.7403
666 1 -1.1104 3.7149 14.1919 20.7526
590 1 -1.1104 6.55778 14.0418 18.1447
591 1 -1.1104 6.53386 19.6209 18.0333
576 2 2.2208 7.96783 18.3122 13.7614
625 2 2.2208 10.8869 12.7671 16.4398
626 2 2.2208 10.7654 18.3039 16.4906
627 1 -1.1104 12.1231 14.0346 17.9152
628 1 -1.1104 12.2253 19.7633 17.9899
629 1 -1.1104 12.3337 14.0949 15.1978
630 1 -1.1104 12.2344 19.831 15.2066
632 2 2.2208 10.7376 9.90698 19.3969
633 2 2.2208 10.6341 15.5439 19.2585
634 2 2.2208 10.7281 21.073 19.2422
635 1 -1.1104 12.1753 11.1916 18.12
636 1 -1.1104 11.9841 16.9155 17.9171
637 1 -1.1104 12.2493 11.2564 15.0591
638 1 -1.1104 12.2824 17.0113 15.1734
639 2 2.2208 7.84256 12.7139 19.4323
640 2 2.2208 7.83587 18.3476 19.2545
641 1 -1.1104 9.38064 13.9772 17.9443
642 1 -1.1104 9.41799 19.7537 17.74
643 1 -1.1104 9.42733 14.2406 15.1824
644 1 -1.1104 9.23652 19.7084 15.1112
646 2 2.2208 7.98457 9.90139 16.7498
647 2 2.2208 7.96828 15.573 16.5752
648 2 2.2208 7.91015 21.0838 16.4701
649 1 -1.1104 9.44206 11.2762 17.8722
650 1 -1.1104 9.3116 16.9135 17.8911
651 1 -1.1104 9.35228 11.1966 15.1568
652 1 -1.1104 9.37227 17.0109 15.0924
654 2 2.2208 13.5132 18.3154 19.4202
742 2 2.2208 13.6486 18.294 24.8992
579 2 2.2208 8.13873 12.6549 13.7707
585 2 2.2208 10.845 21.1578 13.6953
657 2 2.2208 13.5154 21.1003 16.6148
675 1 -1.1104 6.67864 19.6241 23.5848
577 2 2.2208 10.8207 15.5284 13.7784
645 1 -1.1104 9.33164 19.7177 20.5841
732 1 -1.1104 9.28605 16.9528 20.7915
730 1 -1.1104 9.28914 14.0916 20.914
727 1 -1.1104 12.0655 16.8351 21.0244
723 1 -1.1104 12.1614 14.1926 26.373
655 2 2.2208 13.5513 9.8389 16.5467
658 1 -1.1104 0.916322 14.0375 20.7397
721 1 -1.1104 12.1478 11.3655 26.3892
668 1 -1.1104 3.73485 11.2883 20.7823
669 1 -1.1104 3.62988 16.8078 20.6664
662 1 -1.1104 0.873291 11.3019 20.8159
664 1 -1.1104 6.6369 11.2601 20.8676
667 1 -1.1104 3.70414 19.7141 20.7156
659 1 -1.1104 0.965826 19.4313 21.0112
670 2 2.2208 5.1387 12.6044 22.1929
671 2 2.2208 5.1854 18.2945 22.2922
672 1 -1.1104 0.83933 13.8994 23.578
673 1 -1.1104 0.645088 19.504 23.781
676 1 -1.1104 0.831419 13.9802 26.5614
677 1 -1.1104 0.945732 19.6105 26.5316
680 2 2.2208 5.13105 9.9099 25.078
681 2 2.2208 5.06489 15.4854 24.9297
682 2 2.2208 5.11415 20.8962 24.981
683 1 -1.1104 0.828487 11.1525 23.441
684 1 -1.1104 0.863122 16.6767 23.863
687 1 -1.1104 0.913709 11.1909 26.5628
688 1 -1.1104 0.819465 16.7686 26.5556
691 2 2.2208 2.18892 12.5449 25.056
692 2 2.2208 2.2459 18.2397 25.0591
693 1 -1.1104 3.55638 14.0034 23.4967
694 1 -1.1104 3.68757 19.5175 23.7243
695 1 -1.1104 3.68748 14.1454 26.3384
696 1 -1.1104 3.77119 19.6382 26.5201
697 2 2.2208 2.34973 9.81733 22.1965
698 2 2.2208 2.321 15.4053 22.2162
699 2 2.2208 2.27788 21.0567 22.2681
700 1 -1.1104 3.65703 11.2181 23.6346
701 1 -1.1104 3.66037 16.811 23.6522
702 1 -1.1104 3.73122 11.2553 26.4773
703 1 -1.1104 3.74145 16.865 26.4572
661 1 -1.1104 6.50152 19.6473 20.8216
679 1 -1.1104 6.64058 19.6435 26.3948
678 1 -1.1104 6.35706 14.0078 26.3519
660 1 -1.1104 6.52772 13.9862 20.7269
689 1 -1.1104 6.6094 11.3202 26.4139
685 1 -1.1104 6.40714 11.202 23.4919
686 1 -1.1104 6.51885 16.9483 23.5987
674 1 -1.1104 6.5072 14.1278 23.5017
738 2 2.2208 10.6908 12.5748 22.1029
665 1 -1.1104 6.48947 16.8542 20.7665
690 1 -1.1104 6.61997 16.9657 26.3843
734 1 -1.1104 9.42702 19.5208 23.5907
741 2 2.2208 13.4896 12.7194 25.0075
745 2 2.2208 13.5265 21.0648 22.229
716 1 -1.1104 9.4303 19.542 26.3865
631 1 -1.1104 12.1882 19.6279 20.8706
722 1 -1.1104 12.1848 14.0684 20.5849
726 1 -1.1104 12.1837 11.3045 20.9079
737 2 2.2208 7.89553 12.643 24.9259
709 1 -1.1104 9.43659 16.7627 26.4324
725 1 -1.1104 12.3169 16.9305 23.7245
739 2 2.2208 10.7522 18.2482 22.1604
717 2 2.2208 10.7518 9.99071 24.9012
712 1 -1.1104 9.347 11.2341 23.5026
713 2 2.2208 8.02094 21.0696 22.0764
724 2 2.2208 10.7729 15.4289 24.9168
711 1 -1.1104 9.46464 16.8041 23.6849
710 1 -1.1104 9.38782 11.3533 26.4288
736 2 2.2208 8.04569 18.2194 25.0001
740 1 -1.1104 12.2243 14.1819 23.4647
728 1 -1.1104 12.216 19.7456 23.4891
714 2 2.2208 7.92234 15.4471 22.1222
731 1 -1.1104 9.42617 11.2624 20.6386
729 1 -1.1104 12.124 11.2501 23.6058
733 1 -1.1104 9.3486 13.8966 26.4491
718 2 2.2208 10.7026 21.022 24.9805
715 2 2.2208 7.84399 9.84529 22.2195
719 1 -1.1104 12.2593 17.1121 26.5685
720 1 -1.1104 12.2773 19.8305 26.2017
744 2 2.2208 13.5749 15.4457 22.0327
620 2 2.2208 -0.446883 18.1248 16.7234
743 2 2.2208 13.5903 9.84447 22.2772
656 2 2.2208 13.5829 15.4829 16.5093
583 2 2.2208 13.6899 18.3201 13.6676
487 2 2.2208 8.10212 9.93791 27.8689
535 2 2.2208 5.09181 9.83153 13.7563
578 2 2.2208 10.7543 9.87529 13.7457
746 2 2.2208 5.23408 23.9077 5.3282
748 2 2.2208 5.13187 29.4278 5.24672
749 1 -1.1104 0.850955 25.1912 1.08681
750 1 -1.1104 0.928904 30.7626 0.908257
753 1 -1.1104 0.994832 25.3045 3.85981
754 1 -1.1104 0.963376 30.8681 3.65116
757 2 2.2208 5.24357 26.7277 2.40857
758 2 2.2208 5.19599 32.3213 2.46073
759 1 -1.1104 0.975258 22.397 1.22656
760 1 -1.1104 1.02556 27.9238 1.09541
761 1 -1.1104 1.0169 33.7901 0.998516
765 1 -1.1104 1.17153 22.4894 3.91184
766 1 -1.1104 0.979841 28.0692 3.935
767 1 -1.1104 0.996382 33.5531 3.88474
771 2 2.2208 2.41442 23.7852 2.52178
772 2 2.2208 2.4081 29.4788 2.46278
773 1 -1.1104 3.80231 25.165 1.0725
774 1 -1.1104 3.64761 30.933 1.09991
775 1 -1.1104 3.85236 25.2669 3.91396
776 1 -1.1104 3.69235 30.7655 3.97547
778 2 2.2208 2.42038 26.654 5.23149
779 2 2.2208 2.5167 32.3816 5.32404
780 1 -1.1104 3.75302 22.431 0.935918
781 1 -1.1104 3.81585 28.1125 0.971805
782 1 -1.1104 3.70929 33.7231 0.994694
783 1 -1.1104 3.82942 22.5068 3.86154
784 1 -1.1104 3.78661 28.0616 3.86265
785 1 -1.1104 3.84469 33.6096 3.80326
762 1 -1.1104 6.46895 22.5782 1.06601
768 1 -1.1104 6.57976 22.5113 4.01236
770 1 -1.1104 6.57741 33.6374 4.08119
791 2 2.2208 5.16344 23.8739 -0.386857
917 2 2.2208 10.881 32.2847 8.15464
787 2 2.2208 -0.340005 23.8894 5.3336
1080 2 2.2208 2.28053 32.3321 -0.231046
764 1 -1.1104 6.49236 33.614 1.01368
751 1 -1.1104 6.54056 25.3186 1.03674
755 1 -1.1104 6.59666 25.2373 3.77707
918 1 -1.1104 12.3387 22.2131 12.2778
769 1 -1.1104 6.56681 28.0538 3.84942
756 1 -1.1104 6.58169 30.8252 3.85099
752 1 -1.1104 6.45842 30.9454 0.945614
763 1 -1.1104 6.38894 28.1711 0.928704
793 2 2.2208 10.758 23.829 5.20042
794 2 2.2208 10.7079 29.3832 5.25338
795 1 -1.1104 12.0587 25.4131 0.932621
796 1 -1.1104 12.3375 30.8317 1.1761
797 1 -1.1104 12.1385 25.1861 3.77339
798 1 -1.1104 12.1057 30.7719 3.90056
799 2 2.2208 10.6994 26.5949 2.40885
800 2 2.2208 10.6516 32.3728 2.49207
801 1 -1.1104 12.1864 22.4699 0.943788
802 1 -1.1104 12.3684 28.1066 1.08707
803 1 -1.1104 12.0299 33.6403 1.07324
804 1 -1.1104 12.1277 22.5884 3.80538
805 1 -1.1104 12.0581 27.7946 3.84875
806 1 -1.1104 12.2865 33.5715 3.81077
807 2 2.2208 7.999 23.8627 2.49162
808 2 2.2208 7.91962 29.5421 2.38045
809 1 -1.1104 9.31735 25.2218 0.901761
810 1 -1.1104 9.51008 30.8191 0.990807
811 1 -1.1104 9.38151 25.3915 3.83052
812 1 -1.1104 9.34086 30.8716 3.91879
814 2 2.2208 8.04281 26.6526 5.16743
815 2 2.2208 7.91865 32.2655 5.4273
816 1 -1.1104 9.41166 22.4979 1.05274
817 1 -1.1104 9.30016 27.8841 0.990405
818 1 -1.1104 9.17696 33.6585 1.07883
819 1 -1.1104 9.42123 22.4748 3.82546
820 1 -1.1104 9.30002 28.0602 3.75465
821 1 -1.1104 9.2761 33.8181 3.93576
1113 2 2.2208 7.98173 32.2645 -0.343335
822 2 2.2208 10.7174 23.8319 -0.509044
813 2 2.2208 7.83101 26.6029 -0.487974
1115 2 2.2208 10.799 29.4074 -0.350402
920 1 -1.1104 12.2208 33.5154 12.2909
923 1 -1.1104 12.1957 33.6832 9.4557
827 2 2.2208 13.5485 26.5878 5.17122
825 2 2.2208 13.5051 23.8804 2.34341
826 2 2.2208 13.704 29.4358 2.37697
1114 2 2.2208 13.4738 32.2267 -0.383682
834 1 -1.1104 0.821523 33.7485 6.73282
828 1 -1.1104 1.08896 25.1483 6.58198
839 1 -1.1104 3.73893 30.8725 6.58165
836 1 -1.1104 6.54309 28.14 6.74736
833 1 -1.1104 0.831013 28.0025 6.7618
829 1 -1.1104 0.967597 30.8693 6.49996
832 1 -1.1104 0.967666 22.4612 6.64964
841 1 -1.1104 3.69634 28.0419 6.66375
842 1 -1.1104 3.77488 33.6039 6.67628
838 1 -1.1104 3.86459 25.3723 6.66066
831 1 -1.1104 6.40276 30.7098 6.67013
840 1 -1.1104 3.82717 22.5192 6.66979
844 2 2.2208 5.11135 23.9742 10.9218
845 2 2.2208 5.10362 29.4651 10.9094
846 1 -1.1104 0.832603 25.1803 12.3736
847 1 -1.1104 0.789794 30.9716 12.1771
850 1 -1.1104 1.0214 25.2159 9.4337
851 1 -1.1104 1.01521 30.8387 9.36026
854 2 2.2208 5.18576 26.7117 8.09614