ITEM: TIMESTEP
100000
ITEM: NUMBER OF ATOMS
18000
ITEM: BOX BOUNDS pp pp pp
-3.5434580300035362e-01 2.7694345803000370e+01
-4.3273783452150374e+00 3.3240737834521360e+02
-3.4790274537024207e-01 2.7687902745370330e+01
ITEM: ATOMS id type q x y z
1 2 2.2208 5.30581 1.15819 5.4619
2 2 2.2208 5.16278 6.83337 5.27905
3 1 -1.1104 0.786234 -3.04695 1.0585
5 1 -1.1104 1.0273 2.49606 1.46312
7 1 -1.1104 0.939559 8.27324 1.16527
15 1 -1.1104 0.979715 -2.83157 3.92613
16 1 -1.1104 1.08656 2.67035 4.15353
17 1 -1.1104 1.02579 8.40504 3.92176
21 2 2.2208 5.10227 -1.73125 2.59468
22 2 2.2208 5.28106 4.08212 2.64101
23 1 -1.1104 0.896454 -0.327413 1.21878
25 1 -1.1104 0.976435 5.4625 1.16832
31 1 -1.1104 0.976432 -0.116872 3.85785
32 1 -1.1104 1.01741 5.59905 4.0962
35 2 2.2208 2.3941 1.10799 2.60207
36 2 2.2208 2.35175 6.89322 2.71879
37 1 -1.1104 3.66086 -3.13021 1.13117
39 1 -1.1104 3.95361 2.69524 1.23762
41 1 -1.1104 3.84362 8.21777 1.17482
43 1 -1.1104 3.78111 -3.13995 3.93413
44 1 -1.1104 3.9996 2.55933 4.23728
45 1 -1.1104 3.84963 8.16505 4.0022
46 2 2.2208 2.42677 -1.57627 5.26894
47 2 2.2208 2.49386 4.02532 5.51354
48 1 -1.1104 3.66627 -0.142764 1.27336
50 1 -1.1104 3.88804 5.60366 1.25074
52 1 -1.1104 3.8353 -0.334635 3.98195
53 1 -1.1104 3.78484 5.35348 3.81855
27 1 -1.1104 6.46624 -0.27583 1.08925
20 1 -1.1104 6.72016 8.2802 4.02686
65 2 2.2208 5.24215 -4.46841 5.30858
9 1 -1.1104 6.55217 -3.08232 1.30342
34 1 -1.1104 6.63771 5.50676 3.9406
18 1 -1.1104 6.65146 -2.93296 4.04902
8 1 -1.1104 0.955988 8.45053 6.64174
40 1 -1.1104 3.79875 2.69103 6.90358
49 1 -1.1104 3.92609 -0.208592 6.69285
24 1 -1.1104 1.12255 -0.227981 6.68567
4 1 -1.1104 1.06646 -2.97473 6.56137
10 1 -1.1104 6.72426 -2.92223 6.70038
42 1 -1.1104 3.77061 8.36518 6.76248
26 1 -1.1104 1.20663 5.29818 6.92503
51 1 -1.1104 3.89243 5.45391 6.61168
56 2 2.2208 5.26411 6.87651 -0.233095
11 1 -1.1104 6.65522 2.65255 1.17274
19 1 -1.1104 6.72772 2.52248 4.01343
119 2 2.2208 10.8781 -4.40574 5.20534
113 2 2.2208 13.5947 -1.55086 5.34443
33 1 -1.1104 6.59075 -0.260436 4.05712
29 1 -1.1104 6.63272 5.43027 1.2002
98 1 -1.1104 9.53508 8.40414 4.12309
69 2 2.2208 10.8708 1.31637 5.257
70 2 2.2208 10.7911 6.90337 5.23356
71 1 -1.1104 12.203 -3.19754 1.07683
73 1 -1.1104 12.2237 2.67454 1.22621
75 1 -1.1104 12.2569 8.24016 1.16848
77 1 -1.1104 12.1502 -3.00438 3.80056
78 1 -1.1104 12.2798 2.71195 3.97438
79 1 -1.1104 12.3107 8.20355 3.92761
80 2 2.2208 10.7335 -1.75663 2.47476
81 2 2.2208 10.7986 4.05366 2.61389
82 1 -1.1104 12.1521 -0.145939 1.18045
84 1 -1.1104 12.2917 5.40195 1.22183
86 1 -1.1104 12.3211 -0.0699185 3.99903
87 1 -1.1104 12.3188 5.50202 3.95561
88 2 2.2208 8.01869 1.12362 2.69523
89 2 2.2208 8.06844 6.85952 2.63623
90 1 -1.1104 9.3136 -3.00331 1.09768
92 1 -1.1104 9.3221 2.61726 1.3236
94 1 -1.1104 9.3872 8.22184 1.26824
96 1 -1.1104 9.40721 -3.00637 3.83453
97 1 -1.1104 9.46718 2.61828 4.1058
99 2 2.2208 8.11159 -1.64911 5.31268
100 2 2.2208 8.03471 3.98135 5.39433
101 1 -1.1104 9.33063 -0.351649 1.07733
103 1 -1.1104 9.47111 5.35368 1.31755
105 1 -1.1104 9.4331 -0.29874 3.86885
106 1 -1.1104 9.4132 5.34726 4.03121
117 2 2.2208 13.6711 -4.49768 2.5125
114 2 2.2208 13.7037 4.08625 5.27646
76 1 -1.1104 12.2964 8.27045 6.7396
85 1 -1.1104 12.3634 5.53603 6.6763
28 1 -1.1104 6.70845 -0.156118 6.73565
91 1 -1.1104 9.39671 -3.03717 6.61619
102 1 -1.1104 9.22769 -0.165834 6.76066
95 1 -1.1104 9.50327 8.25171 6.8973
118 2 2.2208 7.99786 -4.51132 2.44594
111 2 2.2208 13.6331 1.30286 2.52566
109 2 2.2208 10.8348 6.87569 -0.274529
170 2 2.2208 -0.42908 -4.3959 10.9538
12 1 -1.1104 6.64125 2.73188 6.95124
168 2 2.2208 2.38703 -4.25041 8.11294
38 1 -1.1104 3.85978 -3.04173 6.65605
6 1 -1.1104 0.962439 2.66907 6.749
121 1 -1.1104 3.80264 5.42872 9.53305
122 2 2.2208 5.11571 1.21254 10.96
123 2 2.2208 5.21808 6.94024 10.9366
124 1 -1.1104 0.947819 -3.0392 12.2062
125 1 -1.1104 0.943097 2.65574 12.3085
126 1 -1.1104 0.87973 8.30299 12.2636
130 1 -1.1104 1.0312 -2.9539 9.55904
131 1 -1.1104 0.890408 2.82889 9.49061
132 1 -1.1104 1.14093 8.4416 9.4161
136 2 2.2208 5.31204 -1.54063 8.154
137 2 2.2208 5.28756 4.1382 8.12875
138 1 -1.1104 1.02238 -0.141163 12.3857
139 1 -1.1104 0.917543 5.49316 12.3302
142 1 -1.1104 0.927625 -0.0049353 9.53552
143 1 -1.1104 0.982313 5.63456 9.58581
146 2 2.2208 2.40035 1.34279 8.24253
147 2 2.2208 2.52806 6.93807 8.07383
148 1 -1.1104 3.78772 -2.901 12.3242
149 1 -1.1104 3.7413 2.71256 12.3055
150 1 -1.1104 3.82022 8.51216 12.4764
151 1 -1.1104 3.86299 -2.84853 9.4785
152 1 -1.1104 3.7109 2.60848 9.55905
153 1 -1.1104 3.90472 8.34097 9.7035
154 2 2.2208 2.30099 -1.4358 10.9376
155 2 2.2208 2.31771 4.11385 10.8619
156 1 -1.1104 3.82921 -0.186288 12.419
157 1 -1.1104 3.77879 5.61976 12.3091
158 1 -1.1104 3.69858 -0.154364 9.54668
14 1 -1.1104 6.64359 8.26192 6.65469
133 1 -1.1104 6.63136 -2.86729 9.49775
169 2 2.2208 5.07623 -4.31408 11.0036
145 1 -1.1104 6.61413 5.56736 9.58716
135 1 -1.1104 6.71213 8.25112 9.47893
128 1 -1.1104 6.49496 2.73081 12.2564
129 1 -1.1104 6.56876 8.34158 12.3615
159 2 2.2208 5.30931 -1.51578 13.6245
162 2 2.2208 2.43289 6.83689 13.7107
160 2 2.2208 5.16565 4.15497 13.6898
252 2 2.2208 2.39764 -4.41064 13.7225
194 1 -1.1104 9.45591 8.28576 12.52
212 2 2.2208 8.03646 -4.34246 8.09289
179 1 -1.1104 12.3584 5.42926 9.59948
72 1 -1.1104 12.2172 -2.81953 6.59075
183 1 -1.1104 9.38043 2.76853 9.617
192 1 -1.1104 12.0429 2.65467 9.64729
206 2 2.2208 13.6243 1.2838 8.22017
203 2 2.2208 7.87624 6.91608 13.7735
180 1 -1.1104 12.3346 -2.90443 9.32501
178 2 2.2208 8.18723 1.3863 8.13611
182 1 -1.1104 9.5219 8.19262 9.64777
190 2 2.2208 10.8043 1.22717 10.958
181 1 -1.1104 12.1922 8.16334 12.5604
134 1 -1.1104 6.59711 2.6784 9.63596
210 2 2.2208 10.8763 -4.37172 10.8176
176 2 2.2208 7.99601 4.09926 10.9451
74 1 -1.1104 12.35 2.81204 6.85983
189 2 2.2208 10.8654 6.78015 10.9891
185 1 -1.1104 12.0647 2.71368 12.4294
30 1 -1.1104 6.55021 5.53143 6.77039
144 1 -1.1104 6.70911 -0.171585 9.52452
141 1 -1.1104 6.62859 5.51857 12.3922
187 1 -1.1104 12.1903 5.54745 12.3343
197 1 -1.1104 9.4623 -2.93345 12.2961
173 1 -1.1104 9.48628 -0.070148 9.47234
104 1 -1.1104 9.44929 5.4538 6.7416
83 1 -1.1104 11.9913 0.0146389 6.78242
93 1 -1.1104 9.58559 2.57932 6.84117
174 1 -1.1104 9.45698 5.47891 12.3914
193 1 -1.1104 9.61074 -2.99125 9.49135
188 1 -1.1104 12.2414 -0.164313 12.2362
184 1 -1.1104 12.295 -0.0418417 9.6697
198 2 2.2208 8.09385 6.78056 8.18223
140 1 -1.1104 6.60795 0.0771478 12.412
127 1 -1.1104 6.60804 -2.89309 12.3303
196 2 2.2208 10.8819 -1.48393 8.0574
175 1 -1.1104 9.26119 -0.115602 12.3885
199 1 -1.1104 12.3278 8.19391 9.53421
186 1 -1.1104 12.2209 -3.07271 12.251
172 1 -1.1104 9.41285 5.39996 9.65992
195 1 -1.1104 9.28492 2.64809 12.321
191 2 2.2208 10.9122 4.03139 8.22546
177 2 2.2208 8.14924 -1.55315 11.0276
293 2 2.2208 13.6821 -4.34347 13.7011
202 2 2.2208 10.7406 4.00388 13.7983
200 2 2.2208 10.787 -1.50939 13.6563
201 2 2.2208 7.86204 1.37711 13.8085
214 2 2.2208 5.17478 1.25968 16.7019
215 2 2.2208 5.21551 6.89214 16.5109
216 1 -1.1104 0.950782 -2.92364 17.8109
217 1 -1.1104 0.876933 2.68938 18.0171
218 1 -1.1104 1.02482 8.44126 17.8497
222 1 -1.1104 0.923755 -2.96247 15.1075
223 1 -1.1104 0.911117 2.59242 15.0572
224 1 -1.1104 1.00042 8.31877 14.9239
228 2 2.2208 5.10196 -1.63507 19.4145
229 2 2.2208 5.15774 4.09468 19.2393
230 1 -1.1104 0.952052 -0.185708 17.8226
231 1 -1.1104 1.09243 5.57194 17.8412
234 1 -1.1104 0.999474 -0.191798 15.1171
235 1 -1.1104 1.03081 5.38425 15.0444
238 2 2.2208 2.2638 1.23785 19.3126
239 2 2.2208 2.4655 6.90065 19.326
240 1 -1.1104 3.7955 -2.94354 17.9
241 1 -1.1104 3.73066 2.84384 18.0768
242 1 -1.1104 3.90293 8.35377 17.9912
243 1 -1.1104 3.7788 -2.95987 15.1499
244 1 -1.1104 3.72998 2.6261 15.3529
245 1 -1.1104 3.7411 8.33683 15.1864
246 2 2.2208 2.41215 -1.56863 16.5697
247 2 2.2208 2.39231 4.11869 16.5043
248 1 -1.1104 3.63533 -0.10233 17.9139
249 1 -1.1104 3.80697 5.45552 17.9013
250 1 -1.1104 3.94463 -0.179201 15.1492
251 1 -1.1104 3.79112 5.67038 15.0783
161 2 2.2208 2.38658 1.23166 13.7058
225 1 -1.1104 6.50713 -2.92957 15.0309
294 1 -1.1104 1.01168 -2.84163 20.7116
296 1 -1.1104 1.23175 8.34384 20.7397
232 1 -1.1104 6.43605 -0.2538 18.0095
226 1 -1.1104 6.59796 2.67995 15.1529
236 1 -1.1104 6.5315 -0.00495129 15.3366
233 1 -1.1104 6.67042 5.51456 18.0244
255 2 2.2208 -0.361381 7.01587 16.5307
259 2 2.2208 5.23352 -4.23474 16.5451
295 1 -1.1104 1.0111 2.7471 20.8037
300 1 -1.1104 0.88115 -0.0512657 20.6441
305 1 -1.1104 3.9071 2.68181 20.8026
299 1 -1.1104 6.67706 8.3309 20.883
301 1 -1.1104 1.06422 5.65624 20.8556
257 2 2.2208 2.40284 -4.42049 19.3607
220 1 -1.1104 6.58231 2.79212 17.9383
227 1 -1.1104 6.56958 8.28926 15.1736
237 1 -1.1104 6.5454 5.54726 15.1324
291 2 2.2208 7.95173 -4.34148 19.3133
221 1 -1.1104 6.52597 8.3702 17.8971
219 1 -1.1104 6.64936 -2.94554 18.0205
260 2 2.2208 10.6922 1.17847 16.5642
261 2 2.2208 10.7007 6.7876 16.5084
262 1 -1.1104 12.1083 -3.07387 17.8384
263 1 -1.1104 12.1391 2.56595 18.0518
264 1 -1.1104 12.055 8.12847 18.003
265 1 -1.1104 12.12 -2.97309 14.9679
266 1 -1.1104 12.1983 2.47315 15.1535
267 1 -1.1104 12.2751 8.21117 15.1439
268 2 2.2208 10.6432 -1.53042 19.3192
269 2 2.2208 10.7269 3.99417 19.3836
270 1 -1.1104 12.1388 -0.29848 17.9422
271 1 -1.1104 12.0913 5.41776 17.976
272 1 -1.1104 12.1333 -0.158531 15.1085
273 1 -1.1104 12.1355 5.35253 15.2341
274 2 2.2208 7.84609 1.31046 19.3901
275 2 2.2208 8.03042 6.95215 19.5035
276 1 -1.1104 9.41847 -2.8553 17.8094
277 1 -1.1104 9.31285 2.59439 17.9309
278 1 -1.1104 9.22365 8.26789 17.929
279 1 -1.1104 9.38603 -2.89364 14.9469
280 1 -1.1104 9.35408 2.58785 15.1003
281 1 -1.1104 9.32084 8.18136 15.1955
282 2 2.2208 7.96392 -1.51661 16.5211
283 2 2.2208 7.96063 4.0737 16.5457
284 1 -1.1104 9.3294 -0.057993 17.9781
285 1 -1.1104 9.51132 5.50093 18.004
286 1 -1.1104 9.20148 -0.128793 15.1607
287 1 -1.1104 9.34576 5.5165 15.1105
371 1 -1.1104 12.3238 8.17989 20.9197
292 2 2.2208 10.7286 -4.33805 16.4031
302 1 -1.1104 6.50308 -0.15177 20.7546
370 1 -1.1104 12.228 2.63407 20.8104
382 1 -1.1104 9.5282 8.33762 20.7902
375 1 -1.1104 12.2834 5.56149 20.8083
374 1 -1.1104 12.2071 -0.0685561 20.6493
369 1 -1.1104 12.2213 -2.72218 20.6721
383 1 -1.1104 9.4172 -0.106562 20.8771
289 2 2.2208 13.5048 -1.604 16.5423
290 2 2.2208 13.5204 3.9232 16.5183
205 2 2.2208 13.6122 1.22298 13.6733
288 2 2.2208 13.5474 1.22549 19.3552
9616 2 2.2208 13.5968 6.84095 19.3715
63 2 2.2208 -0.536742 6.9374 27.8947
353 2 2.2208 2.30015 -4.38645 24.9749
306 1 -1.1104 3.9336 8.41928 20.8499
351 2 2.2208 5.17017 -4.40202 22.1778
297 1 -1.1104 6.55472 -3.05361 20.9556
307 1 -1.1104 3.76276 -0.167198 20.8986
304 1 -1.1104 3.71776 -3.05392 20.7184
308 1 -1.1104 3.82059 5.52778 20.7696
309 2 2.2208 5.24255 1.22932 22.2247
310 2 2.2208 5.16507 6.98243 22.2415
311 1 -1.1104 0.856277 -2.88014 23.4709
312 1 -1.1104 0.966187 2.75473 23.688
313 1 -1.1104 0.979709 8.43272 23.579
317 1 -1.1104 0.987824 -3.07774 26.2507
318 1 -1.1104 1.03911 2.69635 26.5181
319 1 -1.1104 1.06253 8.36844 26.3219
323 2 2.2208 5.16754 -1.54091 25.1041
324 2 2.2208 5.25739 4.02021 25.0829
325 1 -1.1104 0.979902 0.071733 23.5219
326 1 -1.1104 0.891551 5.57136 23.6437
329 1 -1.1104 0.978088 -0.123099 26.5243
330 1 -1.1104 1.01366 5.53272 26.4327
333 2 2.2208 2.36422 1.27767 25.0797
334 2 2.2208 2.3554 6.85422 25.0304
335 1 -1.1104 3.64082 -2.93143 23.4764
336 1 -1.1104 3.67887 2.64458 23.5902
337 1 -1.1104 3.66161 8.44937 23.7081
338 1 -1.1104 3.70306 -2.90432 26.2913
339 1 -1.1104 3.96886 2.65203 26.4944
340 1 -1.1104 3.81851 8.23057 26.4414
341 2 2.2208 2.23017 -1.57495 22.0997
342 2 2.2208 2.50381 4.12968 22.2016
343 1 -1.1104 3.87969 -0.130985 23.6898
344 1 -1.1104 3.8616 5.50002 23.63
345 1 -1.1104 3.67432 -0.101028 26.4641
346 1 -1.1104 3.79765 5.43943 26.4324
328 1 -1.1104 6.64073 5.29198 23.7338
320 1 -1.1104 6.47576 -2.93603 26.4091
298 1 -1.1104 6.67184 2.72537 20.8292
303 1 -1.1104 6.46818 5.55972 20.8499
321 1 -1.1104 6.73117 2.5139 26.3443
327 1 -1.1104 6.61709 -0.307336 23.6041
314 1 -1.1104 6.46293 -3.06784 23.7098
322 1 -1.1104 6.69542 8.37958 26.4979
316 1 -1.1104 6.66422 8.20066 23.6302
349 2 2.2208 -0.292062 6.94483 22.2734
350 2 2.2208 -0.393025 1.40488 22.2043
54 2 2.2208 2.5652 4.06921 27.9657
55 2 2.2208 2.26271 -1.58299 27.7199
57 2 2.2208 5.17608 1.22725 27.8133
67 2 2.2208 5.16444 -4.45772 27.9543
397 2 2.2208 7.96274 -4.42097 24.8793
361 1 -1.1104 9.47609 8.39336 26.5363
376 1 -1.1104 12.3259 5.39768 23.6171
396 2 2.2208 10.7369 -4.29417 22.1003
385 1 -1.1104 9.42066 2.77064 26.4786
365 1 -1.1104 12.2011 5.34896 26.4221
331 1 -1.1104 6.71657 -0.229179 26.3746
362 1 -1.1104 12.225 2.58435 26.459
390 1 -1.1104 9.33955 -3.02583 23.3997
367 2 2.2208 10.8502 6.82241 22.3008
380 1 -1.1104 9.41613 -3.00515 20.6622
389 1 -1.1104 9.57506 2.52911 23.6578
381 1 -1.1104 9.40991 2.63422 20.7738
332 1 -1.1104 6.63298 5.42386 26.5807
356 1 -1.1104 9.41721 5.48674 23.717
315 1 -1.1104 6.59847 2.54809 23.5711
378 1 -1.1104 12.2858 8.11262 23.7898
358 1 -1.1104 9.46449 -0.233608 23.6331
384 1 -1.1104 9.41343 5.46572 20.8373
366 1 -1.1104 12.164 -3.16807 23.4665
357 2 2.2208 8.0903 6.92966 25.054
377 1 -1.1104 12.2534 -0.382991 23.4966
373 2 2.2208 10.9598 1.25795 22.2509
359 2 2.2208 8.00086 4.13037 22.1538
391 2 2.2208 10.8232 -1.71728 24.8777
354 1 -1.1104 9.34228 5.62027 26.4992
386 1 -1.1104 9.30069 -3.00902 26.2917
368 1 -1.1104 12.2909 -0.194489 26.3108
360 2 2.2208 7.98939 -1.63122 22.1235
363 1 -1.1104 12.3558 2.47207 23.693
379 1 -1.1104 12.4034 8.14276 26.4627
387 1 -1.1104 9.46561 8.31947 23.5096
364 2 2.2208 8.06099 1.16669 24.952
388 2 2.2208 10.926 3.95248 25.1317
355 1 -1.1104 9.39903 -0.227931 26.2804
372 1 -1.1104 12.2127 -3.0585 26.2758
392 2 2.2208 13.6676 1.29164 25.0572
394 2 2.2208 13.6783 -1.52745 22.1803
393 2 2.2208 13.7499 6.77308 25.1492
395 2 2.2208 13.7552 4.04635 22.2188
107 2 2.2208 7.99999 3.93261 27.8035
108 2 2.2208 8.00036 -1.61228 27.8876
120 2 2.2208 10.658 -4.4292 27.72
110 2 2.2208 10.779 1.17962 27.8592
115 2 2.2208 13.5613 -1.54655 27.7762
116 2 2.2208 13.7438 4.01269 27.8477
398 2 2.2208 5.17174 12.4975 5.37329
399 2 2.2208 5.38257 18.1273 5.48955
400 1 -1.1104 1.13397 13.9859 1.30538
402 1 -1.1104 0.926717 19.4511 1.16043
406 1 -1.1104 0.934263 13.9078 3.91642
407 1 -1.1104 1.21145 19.5339 3.93824
410 2 2.2208 5.43348 9.79965 2.52097
411 2 2.2208 5.05047 15.2273 2.56372
412 2 2.2208 5.30912 20.798 2.5566
413 1 -1.1104 0.952058 11.0877 1.09052
415 1 -1.1104 0.896905 16.7259 1.24639
421 1 -1.1104 1.03414 11.2435 4.01092
422 1 -1.1104 0.967051 16.6714 4.11863
425 2 2.2208 2.35915 12.6441 2.51326
426 2 2.2208 2.45615 18.1198 2.50029
427 1 -1.1104 3.75655 13.9583 1.07397
429 1 -1.1104 3.75659 19.4505 0.931891
430 1 -1.1104 3.81458 13.8766 4.0319
431 1 -1.1104 3.91768 19.5462 3.71341
432 2 2.2208 2.44093 9.89267 5.29547
433 2 2.2208 2.45516 15.406 5.38031
434 2 2.2208 2.42813 20.8812 5.45411
435 1 -1.1104 3.89492 11.2162 1.3193
437 1 -1.1104 3.78932 16.8105 1.25367
439 1 -1.1104 3.73837 11.0411 3.90659
440 1 -1.1104 3.77908 16.5899 3.9508
401 1 -1.1104 0.901728 13.9122 6.75461
441 2 2.2208 2.40797 20.8503 -0.179671
419 1 -1.1104 6.61654 16.6655 1.19407
417 1 -1.1104 6.80543 11.1216 1.3743
408 1 -1.1104 6.54916 13.8104 4.01709
438 1 -1.1104 3.87952 16.6301 6.69936
449 2 2.2208 -0.45704 18.1024 5.39555
496 1 -1.1104 0.8947 19.5319 6.81627
420 1 -1.1104 6.77021 16.7541 6.82487
424 1 -1.1104 6.52026 16.6915 3.98798
447 2 2.2208 -0.384092 15.3615 2.59289
446 2 2.2208 -0.37583 20.8815 2.63241
403 1 -1.1104 6.62733 13.8805 1.20105
409 1 -1.1104 6.68651 19.4791 4.06928
405 1 -1.1104 6.60861 19.3823 1.23033
497 1 -1.1104 6.69951 19.5496 6.88379
492 2 2.2208 13.6257 15.2243 5.50428
423 1 -1.1104 6.65874 11.091 4.06478
453 2 2.2208 10.8938 12.4959 5.4941
454 2 2.2208 11.0251 18.1377 5.44015
455 1 -1.1104 12.1742 13.8427 1.27686
457 1 -1.1104 12.0739 19.3677 1.0986
458 1 -1.1104 12.2087 13.8849 4.14813
459 1 -1.1104 12.3148 19.4637 3.94601
460 2 2.2208 10.867 9.71125 2.58198
461 2 2.2208 10.8097 15.3116 2.69383
462 2 2.2208 10.8185 20.8137 2.52679
463 1 -1.1104 12.326 11.0715 1.30051
465 1 -1.1104 12.2914 16.5424 1.21387
467 1 -1.1104 12.3946 11.1644 4.0359
468 1 -1.1104 12.3723 16.561 4.0868
469 2 2.2208 7.95451 12.5873 2.73345
470 2 2.2208 8.08464 18.117 2.68899
471 1 -1.1104 9.43876 13.9827 1.37087
473 1 -1.1104 9.397 19.5484 1.29404
474 1 -1.1104 9.47466 13.7797 4.13557
475 1 -1.1104 9.35708 19.4853 4.0329
476 2 2.2208 8.0289 9.75488 5.48866
477 2 2.2208 8.13229 15.3573 5.41203
478 2 2.2208 8.06897 20.8731 5.3835
479 1 -1.1104 9.45738 11.3092 1.16819
481 1 -1.1104 9.52048 16.851 1.33697
483 1 -1.1104 9.51365 11.078 3.90964
484 1 -1.1104 9.55931 16.6532 4.05593
561 1 -1.1104 9.36992 19.394 6.87403
13 1 -1.1104 6.60017 8.24004 1.2386
482 1 -1.1104 9.43838 16.5851 6.97252
490 2 2.2208 13.6533 12.4192 2.56695
9793 2 2.2208 13.7075 17.8396 2.64937
560 1 -1.1104 12.2344 19.5055 6.78331
480 1 -1.1104 9.45734 11.1228 6.77261
466 1 -1.1104 12.1469 16.691 6.91591
456 1 -1.1104 12.2013 13.8331 6.85911
485 2 2.2208 8.11798 20.9364 -0.233584
489 2 2.2208 10.7825 12.6037 -0.152494
428 1 -1.1104 3.74741 13.8812 6.80345
542 2 2.2208 -0.41377 18.0426 10.9562
543 2 2.2208 -0.477366 12.3989 11.0471
498 1 -1.1104 3.85739 19.393 6.63014
416 1 -1.1104 0.916957 16.6538 6.7785
414 1 -1.1104 1.04737 11.1801 6.93312
436 1 -1.1104 3.95314 11.0472 6.63833
499 2 2.2208 5.23394 12.4154 10.9177
500 2 2.2208 5.23749 17.9448 10.869
501 1 -1.1104 1.12893 13.9023 12.4245
502 1 -1.1104 0.915858 19.4788 12.4118
505 1 -1.1104 0.888394 13.7062 9.61319
506 1 -1.1104 1.01702 19.3056 9.6321
509 2 2.2208 5.2568 9.66253 8.21843
510 2 2.2208 5.23007 15.1476 8.07374
511 2 2.2208 5.1662 20.8788 8.33501
512 1 -1.1104 0.923339 11.0643 12.5696
513 1 -1.1104 0.984168 16.6357 12.4583
516 1 -1.1104 1.00104 11.0578 9.68859
517 1 -1.1104 1.10502 16.615 9.58771
520 2 2.2208 2.38767 12.4385 8.2703
521 2 2.2208 2.49977 18.016 8.08566
522 1 -1.1104 3.7022 13.9059 12.3916
523 1 -1.1104 3.70991 19.5289 12.3585
524 1 -1.1104 3.8594 13.7521 9.44709
525 1 -1.1104 3.85183 19.3083 9.55194
526 2 2.2208 2.29956 9.77645 11.0209
527 2 2.2208 2.39177 15.1966 10.969
528 2 2.2208 2.30691 20.7498 11.0091
529 1 -1.1104 3.75086 11.2372 12.3149
530 1 -1.1104 3.78288 16.7348 12.309
531 1 -1.1104 3.87829 11.0557 9.49338
532 1 -1.1104 3.87694 16.5427 9.41978
508 1 -1.1104 6.64879 19.4953 9.65548
418 1 -1.1104 6.60388 11.1291 6.78373
503 1 -1.1104 6.6046 13.8712 12.5135
504 1 -1.1104 6.48429 19.3662 12.4473
534 2 2.2208 5.27731 15.2807 13.6107
544 2 2.2208 5.24736 20.6611 13.8216
533 2 2.2208 2.51163 18.2023 13.7699
536 2 2.2208 2.36071 12.5299 13.9338
404 1 -1.1104 6.69859 13.9782 6.68133
562 2 2.2208 10.8832 9.54661 8.11646
578 2 2.2208 10.8211 9.51601 13.8529
569 2 2.2208 8.14004 18.0381 8.2216
472 1 -1.1104 9.35774 13.8931 6.77072
568 1 -1.1104 9.36164 13.8004 12.361
554 2 2.2208 8.01542 9.58309 11.0409
519 1 -1.1104 6.55923 16.5937 9.52339
514 1 -1.1104 6.67248 11.0759 12.376
557 1 -1.1104 12.3437 11.091 12.574
555 1 -1.1104 12.2054 11.071 9.81347
571 2 2.2208 10.9332 18.0464 11.0956
549 1 -1.1104 9.5778 10.8891 12.3487
546 1 -1.1104 9.44465 16.5783 9.78496
550 2 2.2208 7.94105 12.4058 8.17251
573 1 -1.1104 12.137 19.505 12.4996
551 1 -1.1104 12.1826 16.6469 9.69418
507 1 -1.1104 6.54179 13.9089 9.75275
515 1 -1.1104 6.50018 16.6648 12.2586
553 2 2.2208 7.9957 15.2697 10.8748
548 1 -1.1104 9.41282 16.5481 12.3804
564 1 -1.1104 12.0382 13.7636 9.52069
464 1 -1.1104 12.2485 11.0344 6.828
572 1 -1.1104 12.1392 13.8401 12.3631
558 2 2.2208 10.8684 20.8593 8.15674
552 2 2.2208 8.01376 20.7981 11.0335
563 1 -1.1104 12.1388 19.3893 9.65071
547 1 -1.1104 9.40493 11.0711 9.59606
566 1 -1.1104 9.29732 13.7727 9.5461
559 2 2.2208 10.725 15.1479 8.26812
565 1 -1.1104 9.46302 19.4455 9.66023
518 1 -1.1104 6.75366 11.0602 9.55241
570 2 2.2208 10.7901 12.3868 11.0825
567 1 -1.1104 9.34642 19.504 12.5995
556 1 -1.1104 12.2278 16.7586 12.3894
580 2 2.2208 13.5264 9.64544 11.0484
585 2 2.2208 10.8083 20.8626 13.9351
576 2 2.2208 7.97926 17.9617 13.7302
579 2 2.2208 8.10546 12.4893 13.7502
577 2 2.2208 10.8597 15.284 13.746
586 2 2.2208 5.21519 12.6909 16.5722
587 2 2.2208 5.2734 18.1426 16.453
588 1 -1.1104 0.911633 14.0036 18.075
589 1 -1.1104 1.09256 19.4299 18.0908
592 1 -1.1104 0.944179 13.9318 15.1883
593 1 -1.1104 0.982638 19.4554 15.2987
596 2 2.2208 5.30616 9.83337 19.3885
597 2 2.2208 5.19922 15.3175 19.267
598 2 2.2208 5.11365 20.9405 19.6184
599 1 -1.1104 1.04096 11.2021 17.9637
600 1 -1.1104 1.00353 16.7763 18.0559
603 1 -1.1104 1.03677 11.0035 15.2323
604 1 -1.1104 0.967309 16.7648 15.3353
607 2 2.2208 2.44157 12.5182 19.3049
608 2 2.2208 2.4353 18.1683 19.3953
609 1 -1.1104 3.82491 13.9611 17.9378
610 1 -1.1104 3.89627 19.5668 18.0256
611 1 -1.1104 3.74281 14.0509 15.1537
612 1 -1.1104 3.90074 19.451 15.1978
613 2 2.2208 2.36391 9.75168 16.5599
614 2 2.2208 2.30473 15.3682 16.5839
615 2 2.2208 2.32445 21.0013 16.7958
616 1 -1.1104 3.71602 11.2226 17.8523
617 1 -1.1104 3.90032 16.6118 17.983
618 1 -1.1104 3.94057 11.184 15.2384
619 1 -1.1104 3.80424 16.7587 15.185
624 2 2.2208 -0.362179 9.66979 19.3798
595 1 -1.1104 6.73306 19.5433 15.1674
659 1 -1.1104 1.05259 19.6039 20.6111
602 1 -1.1104 6.80578 16.7184 17.9963
591 1 -1.1104 6.68218 19.4922 18.0567
663 1 -1.1104 0.999139 16.7803 21.0758
668 1 -1.1104 3.82358 11.024 20.7667
662 1 -1.1104 1.06761 11.0206 20.7185
660 1 -1.1104 6.53936 13.9909 20.7913
664 1 -1.1104 6.60118 11.1622 20.9011
621 2 2.2208 -0.402096 20.9933 19.3752
535 2 2.2208 5.18231 9.81661 13.8235
539 2 2.2208 -0.440568 9.63761 13.6899
590 1 -1.1104 6.6591 13.9725 18.0574
606 1 -1.1104 6.54443 16.6707 15.17
601 1 -1.1104 6.5728 11.1285 17.989
594 1 -1.1104 6.57459 13.8778 15.1999
661 1 -1.1104 6.53961 19.5412 20.9858
605 1 -1.1104 6.71566 11.1834 15.1383
625 2 2.2208 10.805 12.519 16.6246
626 2 2.2208 10.7061 18.2364 16.8119
627 1 -1.1104 12.1732 13.9497 17.8979
628 1 -1.1104 12.2159 19.5341 18.0202
629 1 -1.1104 12.2939 13.8422 15.068
630 1 -1.1104 12.1234 19.4032 15.1378
632 2 2.2208 10.7214 9.61175 19.4415
633 2 2.2208 10.7837 15.3876 19.3769
634 2 2.2208 10.7403 20.8881 19.5303
635 1 -1.1104 12.1542 10.9906 18.1697
636 1 -1.1104 12.2102 16.7461 18.0778
637 1 -1.1104 12.2411 11.0392 15.3592
638 1 -1.1104 12.2584 16.6444 15.3135
639 2 2.2208 8.13733 12.6162 19.3907
640 2 2.2208 7.98042 18.1184 19.5102
641 1 -1.1104 9.48282 14.0124 17.9634
642 1 -1.1104 9.43605 19.5847 18.2147
643 1 -1.1104 9.33751 13.9758 15.2065
644 1 -1.1104 9.29326 19.3594 15.4879
646 2 2.2208 7.94891 9.74726 16.6571
647 2 2.2208 8.00163 15.3819 16.5965
648 2 2.2208 8.07562 20.9015 16.7641
649 1 -1.1104 9.43341 11.0813 17.982
650 1 -1.1104 9.439 16.8179 18.0887
651 1 -1.1104 9.51585 11.1 15.3822
652 1 -1.1104 9.43808 16.5445 15.1303
731 1 -1.1104 9.50596 11.2717 20.8015
732 1 -1.1104 9.22078 16.7781 20.953
645 1 -1.1104 9.39438 19.5245 20.92
730 1 -1.1104 9.31908 13.945 20.8491
631 1 -1.1104 12.3621 19.5216 20.7304
722 1 -1.1104 12.1308 13.7857 20.7157
726 1 -1.1104 12.0891 10.9425 20.8243
653 2 2.2208 13.6696 12.315 19.5242
583 2 2.2208 13.6645 18.1051 13.9323
450 2 2.2208 -0.438664 18.075 27.8775
669 1 -1.1104 3.75562 16.7229 20.7255
665 1 -1.1104 6.4422 16.8135 20.9129
658 1 -1.1104 1.0493 13.8817 20.8503
666 1 -1.1104 3.7798 13.8764 20.8289
667 1 -1.1104 3.70087 19.562 20.9262
670 2 2.2208 5.11195 12.5101 22.2965
671 2 2.2208 5.21338 18.1174 22.2484
672 1 -1.1104 0.979333 13.9348 23.7103
673 1 -1.1104 1.02809 19.4011 23.7002
676 1 -1.1104 0.917513 13.9016 26.4829
677 1 -1.1104 0.96524 19.4318 26.4458
680 2 2.2208 5.27354 9.68951 25.0534
681 2 2.2208 5.17109 15.3731 25.1013
682 2 2.2208 5.26748 20.8454 25.1254
683 1 -1.1104 0.898033 11.126 23.4792
684 1 -1.1104 1.04569 16.5072 23.6493
687 1 -1.1104 1.1144 11.1413 26.4062
688 1 -1.1104 1.01476 16.6845 26.4971
691 2 2.2208 2.2281 12.4251 25.0119
692 2 2.2208 2.41448 17.9605 24.9968
693 1 -1.1104 3.78353 13.8795 23.5401
694 1 -1.1104 3.91533 19.3406 23.6034
695 1 -1.1104 3.877 13.7876 26.33
696 1 -1.1104 3.88303 19.352 26.3361
697 2 2.2208 2.4408 9.77619 22.1629
698 2 2.2208 2.41281 15.2415 22.2588
699 2 2.2208 2.38489 20.8007 22.183
700 1 -1.1104 3.74444 11.0794 23.7097
701 1 -1.1104 3.87136 16.6307 23.4899
702 1 -1.1104 3.82637 11.0497 26.5448
703 1 -1.1104 3.74711 16.572 26.4595
685 1 -1.1104 6.65416 11.0393 23.5276
689 1 -1.1104 6.70718 11.0095 26.5697
674 1 -1.1104 6.47656 13.9012 23.637
708 2 2.2208 -0.455043 12.4731 22.1293
707 2 2.2208 -0.388028 18.0598 22.1794
442 2 2.2208 2.37296 15.3172 27.7992
704 2 2.2208 -0.306435 20.8894 25.1562
706 2 2.2208 -0.321844 9.7556 25.0247
445 2 2.2208 5.26836 12.4552 27.7892
443 2 2.2208 2.39075 9.56115 27.9353
444 2 2.2208 5.20325 18.0493 27.9555
494 2 2.2208 13.6313 15.2441 27.78
744 2 2.2208 13.6093 15.2537 22.1067
714 2 2.2208 7.9034 15.2487 22.2407
734 1 -1.1104 9.46486 19.5751 23.6123
727 1 -1.1104 12.2399 16.7029 20.8153
739 2 2.2208 10.8024 18.1906 22.2281
717 2 2.2208 10.8257 9.72562 25.0884
487 2 2.2208 8.1748 9.68644 27.999
713 2 2.2208 8.11858 20.8771 22.3681
723 1 -1.1104 12.1015 13.8228 26.3583
733 1 -1.1104 9.448 14.0996 26.4851
743 2 2.2208 13.5905 9.67996 22.1863
721 1 -1.1104 12.1131 11.1444 26.5613
678 1 -1.1104 6.81799 13.9203 26.4886
690 1 -1.1104 6.57299 16.7123 26.4652
679 1 -1.1104 6.69562 19.5208 26.5498
712 1 -1.1104 9.54568 11.2826 23.6674
741 2 2.2208 13.4928 12.4484 25.0164
719 1 -1.1104 12.2854 16.6183 26.3401
737 2 2.2208 8.01669 12.5014 25.0706
724 2 2.2208 10.8355 15.3967 24.9989
711 1 -1.1104 9.36246 16.8638 23.8358
718 2 2.2208 10.7799 20.8872 25.1557
740 1 -1.1104 12.2935 13.9263 23.5801
686 1 -1.1104 6.6842 16.6157 23.5685
675 1 -1.1104 6.69507 19.4181 23.8028
710 1 -1.1104 9.47174 11.2071 26.3184
709 1 -1.1104 9.4569 16.8499 26.5194
720 1 -1.1104 12.3169 19.4831 26.3552
725 1 -1.1104 12.2649 16.6219 23.5843
728 1 -1.1104 12.2752 19.4838 23.6375
716 1 -1.1104 9.50286 19.5372 26.5374
729 1 -1.1104 12.316 11.1321 23.6342
736 2 2.2208 8.0111 18.076 25.1442
715 2 2.2208 8.0903 9.71308 22.2685
735 1 -1.1104 9.26621 13.9006 23.5382
738 2 2.2208 10.8166 12.5618 22.2066
486 2 2.2208 8.0877 15.4201 27.9205
488 2 2.2208 10.8872 17.9894 27.847
746 2 2.2208 5.26185 23.7157 5.3977
748 2 2.2208 5.24825 29.2535 5.30605
749 1 -1.1104 1.09434 25.1472 1.25561
750 1 -1.1104 1.25756 30.6891 1.11921
753 1 -1.1104 1.04589 25.1923 4.11232
754 1 -1.1104 1.03807 30.6598 3.98542
757 2 2.2208 5.25791 26.5122 2.58152
758 2 2.2208 5.23726 32.1407 2.61966
759 1 -1.1104 1.02279 22.3099 1.34657
760 1 -1.1104 0.943434 27.984 1.4865
761 1 -1.1104 1.12729 33.4859 1.20537
765 1 -1.1104 1.02945 22.3985 4.02576
766 1 -1.1104 1.08043 27.9086 4.15648
767 1 -1.1104 0.941859 33.6417 4.23132
771 2 2.2208 2.40026 23.6974 2.68486
772 2 2.2208 2.46533 29.3976 2.66034
773 1 -1.1104 3.76388 25.0659 1.073
774 1 -1.1104 3.90016 30.825 1.09969
775 1 -1.1104 3.80033 25.1399 4.06135
776 1 -1.1104 3.83644 30.7533 3.99316
778 2 2.2208 2.48862 26.4807 5.46406
779 2 2.2208 2.44467 32.1037 5.30777
780 1 -1.1104 3.79478 22.2084 1.2071
781 1 -1.1104 3.85078 27.973 1.29176
782 1 -1.1104 3.79829 33.5879 1.26903
783 1 -1.1104 3.82049 22.2625 4.00325
784 1 -1.1104 3.8395 27.9083 4.05945
785 1 -1.1104 3.85191 33.4464 4.03797
762 1 -1.1104 6.65278 22.287 1.2748
842 1 -1.1104 3.81297 33.4024 6.80326
840 1 -1.1104 3.89661 22.2908 6.7644
755 1 -1.1104 6.65251 25.1642 3.95277
756 1 -1.1104 6.62279 30.6332 4.02533
790 2 2.2208 -0.334576 32.1314 2.69983
786 2 2.2208 -0.357777 26.5333 2.67886
831 1 -1.1104 6.60723 30.7878 6.76515
841 1 -1.1104 3.95158 27.955 6.79413
828 1 -1.1104 1.16763 25.091 6.87125
787 2 2.2208 -0.306602 23.6557 5.45083
788 2 2.2208 -0.386721 29.3001 -0.209993
1080 2 2.2208 2.47588 32.1314 -0.139249
768 1 -1.1104 6.64306 22.3505 3.9246
764 1 -1.1104 6.69833 33.6658 1.24916
769 1 -1.1104 6.66011 27.894 4.01104
836 1 -1.1104 6.71871 27.9963 6.77699
763 1 -1.1104 6.71368 27.7143 1.33203
752 1 -1.1104 6.65623 30.7784 1.28599
770 1 -1.1104 6.60474 33.5928 3.98883
751 1 -1.1104 6.68028 25.0891 1.22046
793 2 2.2208 10.7789 23.6728 5.36322
794 2 2.2208 10.8123 29.3343 5.39078
795 1 -1.1104 12.3311 24.9674 1.35877
796 1 -1.1104 12.0405 30.5649 1.32858
797 1 -1.1104 12.4535 24.967 4.12069
798 1 -1.1104 12.2284 30.7697 4.02046
799 2 2.2208 11.0414 26.4653 2.67071
800 2 2.2208 10.8648 32.0941 2.59921
801 1 -1.1104 12.1658 22.1948 1.26857
802 1 -1.1104 12.189 27.8332 1.19002
803 1 -1.1104 12.2964 33.4842 1.01866
804 1 -1.1104 12.1437 22.1517 3.97722
805 1 -1.1104 12.3868 27.828 4.07795
806 1 -1.1104 12.244 33.5231 3.86896
807 2 2.2208 8.04775 23.7193 2.64916
808 2 2.2208 8.04936 29.2183 2.70049
809 1 -1.1104 9.54318 25.1673 1.23711
810 1 -1.1104 9.25198 30.8567 1.24058
811 1 -1.1104 9.60054 25.0293 4.04759
812 1 -1.1104 9.43238 30.8451 4.01585
814 2 2.2208 8.09362 26.6295 5.54307
815 2 2.2208 7.9298 32.2003 5.38448
816 1 -1.1104 9.34968 22.478 1.27
817 1 -1.1104 9.53465 27.9943 1.33744
818 1 -1.1104 9.5099 33.6306 1.24625
819 1 -1.1104 9.45298 22.2567 3.95406
820 1 -1.1104 9.56326 27.9283 4.03536
821 1 -1.1104 9.47294 33.5731 4.16936
904 1 -1.1104 9.38451 28.0415 6.82397
830 1 -1.1104 6.79661 25.121 6.68032
898 1 -1.1104 12.2736 27.916 6.91356
905 1 -1.1104 9.4895 33.4067 6.73918
903 1 -1.1104 9.56414 22.127 6.65871
901 1 -1.1104 9.27467 30.7888 6.95966
822 2 2.2208 10.9878 23.7272 -0.0848642
833 1 -1.1104 1.17322 27.7353 6.83293
834 1 -1.1104 1.04579 33.4067 6.89194
832 1 -1.1104 1.16493 22.3166 6.76169
839 1 -1.1104 3.85742 30.6783 6.62769
829 1 -1.1104 1.11997 30.6128 6.66452
838 1 -1.1104 3.97286 25.1696 6.82161
882 2 2.2208 -0.252235 23.6303 11.1536
844 2 2.2208 5.12987 23.817 11.078
845 2 2.2208 5.23422 29.3049 11.11
846 1 -1.1104 1.16807 25.1344 12.549
847 1 -1.1104 1.03288 30.7167 12.0765
850 1 -1.1104 1.14332 24.9939 9.6083
851 1 -1.1104 0.937786 30.741 9.45386
854 2 2.2208 5.28381 26.6785 8.23329
855 2 2.2208 5.27339 32.0937 8.15234