ITEM: TIMESTEP
40000
ITEM: NUMBER OF ATOMS
18000
ITEM: BOX BOUNDS pp pp pp
-3.5609827759650070e-01 2.7696098277596970e+01
-4.1920842445835040e+00 3.3227208424457325e+02
-3.6170573938409023e-01 2.7701705739383872e+01
ITEM: ATOMS id type q x y z
1 2 2.2208 5.217 1.58646 5.12309
2 2 2.2208 5.2925 7.08384 5.17103
3 1 -1.1104 1.05724 -2.86637 1.01798
5 1 -1.1104 0.90171 2.95994 0.960684
7 1 -1.1104 1.05448 8.56556 1.07595
15 1 -1.1104 0.951201 -2.59354 3.83505
16 1 -1.1104 0.916771 3.19112 3.78718
17 1 -1.1104 1.03295 8.5325 3.89171
21 2 2.2208 5.08889 -1.34995 2.39018
22 2 2.2208 5.20734 4.43697 2.27677
23 1 -1.1104 0.75125 0.168153 1.08754
25 1 -1.1104 1.1299 5.69675 1.02638
31 1 -1.1104 0.861177 0.238475 3.79649
32 1 -1.1104 1.05734 5.78858 3.81149
35 2 2.2208 2.2647 1.6778 2.44336
36 2 2.2208 2.45114 7.15199 2.46871
37 1 -1.1104 3.8137 -2.73223 0.854366
39 1 -1.1104 3.79126 2.9243 0.906166
41 1 -1.1104 3.76028 8.719 0.944117
43 1 -1.1104 3.7988 -2.69853 3.76019
44 1 -1.1104 3.67336 2.97356 3.80785
45 1 -1.1104 3.8313 8.54946 3.7055
46 2 2.2208 2.30004 -1.18534 5.14568
47 2 2.2208 2.40769 4.38786 5.32047
48 1 -1.1104 3.60686 -0.0129645 1.13695
50 1 -1.1104 4.03257 5.83802 0.998942
52 1 -1.1104 3.63096 0.136179 3.78969
53 1 -1.1104 3.89562 5.76703 3.89377
63 2 2.2208 -0.426999 7.04348 -0.497817
11 1 -1.1104 6.64344 2.72476 0.910009
34 1 -1.1104 6.58521 5.86845 3.64547
19 1 -1.1104 6.58426 3.10564 3.62702
42 1 -1.1104 3.84459 8.61712 6.54081
13 1 -1.1104 6.41479 8.44385 0.883868
20 1 -1.1104 6.69851 8.71256 3.92726
58 2 2.2208 -0.345703 -4.1128 5.19412
65 2 2.2208 5.14041 -4.12866 5.15007
28 1 -1.1104 6.63765 0.0208297 6.55157
24 1 -1.1104 1.05111 0.267499 6.5178
38 1 -1.1104 3.7939 -2.66881 6.51415
6 1 -1.1104 1.08056 2.99244 6.63809
26 1 -1.1104 1.08937 5.69513 6.57199
49 1 -1.1104 3.79229 0.257913 6.51355
4 1 -1.1104 1.07628 -2.67728 6.65595
8 1 -1.1104 1.11064 8.4637 6.48032
51 1 -1.1104 4.00192 5.91127 6.69412
40 1 -1.1104 3.90741 3.12302 6.57976
12 1 -1.1104 6.62556 2.87897 6.37771
60 2 2.2208 -0.467687 -1.35526 2.32792
9 1 -1.1104 6.61907 -2.81305 0.857587
29 1 -1.1104 6.70101 5.69947 0.782813
18 1 -1.1104 6.67614 -2.68436 3.59085
33 1 -1.1104 6.56056 0.170229 3.77738
119 2 2.2208 10.8997 -4.21143 5.19106
27 1 -1.1104 6.37456 -0.0870441 0.8638
69 2 2.2208 10.8439 1.51747 5.14856
70 2 2.2208 10.7901 7.10136 5.22026
71 1 -1.1104 12.2226 -2.85563 0.940494
73 1 -1.1104 12.3858 2.87305 0.79808
75 1 -1.1104 12.2327 8.59191 0.77276
77 1 -1.1104 12.3833 -2.75603 3.85582
78 1 -1.1104 12.1658 2.86588 3.63538
79 1 -1.1104 12.2689 8.62501 3.60577
80 2 2.2208 10.8929 -1.38426 2.43131
81 2 2.2208 10.8784 4.27466 2.26976
82 1 -1.1104 12.2544 0.0428245 0.954153
84 1 -1.1104 12.2765 5.58038 0.917392
86 1 -1.1104 12.2501 0.116193 3.83749
87 1 -1.1104 12.2184 5.78737 3.59102
88 2 2.2208 7.96723 1.3906 2.31103
89 2 2.2208 8.15003 7.09023 2.18611
90 1 -1.1104 9.57535 -2.73558 0.942986
92 1 -1.1104 9.44814 2.88851 0.93202
94 1 -1.1104 9.53112 8.46387 0.971159
96 1 -1.1104 9.54989 -2.78743 3.70955
97 1 -1.1104 9.49561 2.81015 3.70262
99 2 2.2208 7.93559 -1.31091 5.15867
100 2 2.2208 8.11379 4.30641 5.0584
101 1 -1.1104 9.39107 0.141466 0.981964
103 1 -1.1104 9.54534 5.61709 0.743111
105 1 -1.1104 9.39777 0.00726434 3.71985
106 1 -1.1104 9.41086 5.83601 3.62655
118 2 2.2208 8.06175 -4.06916 2.31891
113 2 2.2208 13.703 -1.25398 5.17383
107 2 2.2208 7.989 4.2602 -0.620008
10 1 -1.1104 6.51783 -2.73969 6.57399
30 1 -1.1104 6.65248 5.75615 6.55404
93 1 -1.1104 9.4596 3.09328 6.53217
76 1 -1.1104 12.1468 8.54751 6.47072
83 1 -1.1104 12.3442 0.0257424 6.66785
91 1 -1.1104 9.37716 -2.49115 6.52615
102 1 -1.1104 9.59378 0.204333 6.55275
72 1 -1.1104 12.2093 -2.76202 6.5942
74 1 -1.1104 12.1493 2.92319 6.32009
85 1 -1.1104 12.1263 5.69599 6.24883
95 1 -1.1104 9.37072 8.61566 6.50915
168 2 2.2208 2.49529 -4.22208 7.8986
163 2 2.2208 -0.315794 4.35137 8.0589
121 1 -1.1104 3.9119 5.53732 9.385
122 2 2.2208 5.2576 1.28384 10.831
123 2 2.2208 5.28631 7.15109 10.7176
124 1 -1.1104 1.16008 -2.698 12.0849
125 1 -1.1104 1.14008 2.83405 12.2077
126 1 -1.1104 0.984595 8.58012 12.0563
130 1 -1.1104 1.03152 -2.8656 9.35252
131 1 -1.1104 1.15332 2.88919 9.48132
132 1 -1.1104 1.1767 8.55275 9.29403
136 2 2.2208 5.23113 -1.37754 7.92279
137 2 2.2208 5.27929 4.2952 8.02905
138 1 -1.1104 0.956066 0.00913267 12.1327
139 1 -1.1104 1.12012 5.6743 12.1199
142 1 -1.1104 1.09739 -0.0920213 9.36025
143 1 -1.1104 1.20194 5.63354 9.37296
146 2 2.2208 2.6135 1.52951 8.06205
147 2 2.2208 2.46919 7.26521 7.87661
148 1 -1.1104 4.07636 -2.63575 12.1604
149 1 -1.1104 3.9513 2.77793 12.2768
150 1 -1.1104 3.78667 8.61618 12.1906
151 1 -1.1104 3.89749 -2.94735 9.38517
152 1 -1.1104 3.99283 2.65881 9.50486
153 1 -1.1104 3.94274 8.56934 9.34675
154 2 2.2208 2.53802 -1.37923 10.7223
155 2 2.2208 2.60427 4.15999 10.8262
156 1 -1.1104 3.8345 -0.0272474 12.0089
157 1 -1.1104 3.9341 5.62651 12.3288
158 1 -1.1104 3.83145 -0.0542787 9.27971
144 1 -1.1104 6.64906 0.108674 9.42033
165 2 2.2208 -0.227216 7.12527 10.7414
164 2 2.2208 -0.432859 -1.45812 8.15711
161 2 2.2208 2.41115 1.44677 13.6425
159 2 2.2208 5.35138 -1.36307 13.5131
160 2 2.2208 5.26979 4.11545 13.6001
162 2 2.2208 2.56854 7.16447 13.4247
166 2 2.2208 -0.215399 4.44717 13.4731
171 2 2.2208 -0.389194 -1.35599 13.576
183 1 -1.1104 9.62164 2.84624 9.41461
210 2 2.2208 11.0109 -3.99151 10.6625
184 1 -1.1104 12.2293 0.109047 9.5205
191 2 2.2208 10.8818 4.22463 7.87718
192 1 -1.1104 12.4665 2.81524 9.28549
185 1 -1.1104 12.3853 2.98681 12.2275
212 2 2.2208 8.08506 -4.20909 7.99529
128 1 -1.1104 6.76572 2.73485 12.1607
127 1 -1.1104 6.78228 -2.80834 12.2383
135 1 -1.1104 6.80213 8.56845 9.33749
140 1 -1.1104 6.67854 -0.0488084 12.1606
145 1 -1.1104 6.81054 5.72128 9.40194
129 1 -1.1104 6.50786 8.70439 12.0456
134 1 -1.1104 6.78127 2.91938 9.21467
188 1 -1.1104 12.3926 0.21785 12.3578
196 2 2.2208 10.9003 -1.20026 7.97905
198 2 2.2208 8.12525 7.24157 7.91332
178 2 2.2208 8.06629 1.62266 7.92465
199 1 -1.1104 12.3984 8.51327 9.31137
193 1 -1.1104 9.53464 -2.75432 9.19904
189 2 2.2208 10.9537 7.19015 10.7292
179 1 -1.1104 12.4312 5.64007 9.21224
14 1 -1.1104 6.69686 8.57087 6.70099
195 1 -1.1104 9.51845 2.9707 12.2239
194 1 -1.1104 9.45079 8.42766 12.2066
180 1 -1.1104 12.3797 -2.52158 9.28245
182 1 -1.1104 9.6643 8.50305 9.30161
141 1 -1.1104 6.64972 5.79534 12.0581
133 1 -1.1104 6.67157 -2.77562 9.44332
190 2 2.2208 10.9373 1.54738 10.8638
197 1 -1.1104 9.53496 -2.74924 12.0523
104 1 -1.1104 9.42969 5.7452 6.52891
181 1 -1.1104 12.1023 8.56203 12.3051
186 1 -1.1104 12.3514 -2.47158 11.9789
187 1 -1.1104 12.349 5.76664 12.1413
176 2 2.2208 8.16932 4.33742 10.8624
175 1 -1.1104 9.51873 0.12947 12.2169
177 2 2.2208 8.16053 -1.38921 10.5838
174 1 -1.1104 9.43762 5.69996 12.3101
173 1 -1.1104 9.5291 0.130732 9.38155
172 1 -1.1104 9.51616 5.71163 9.39268
211 2 2.2208 13.6172 -4.04106 7.8025
202 2 2.2208 10.8944 4.34133 13.7185
201 2 2.2208 8.16892 1.50214 13.5858
200 2 2.2208 10.9193 -1.21366 13.4918
214 2 2.2208 5.32143 1.42217 16.4283
215 2 2.2208 5.36193 7.26383 16.3681
216 1 -1.1104 1.05933 -2.6281 17.6044
217 1 -1.1104 1.00616 2.90789 17.6017
218 1 -1.1104 1.05958 8.47279 17.8119
222 1 -1.1104 1.06348 -2.65472 14.7964
223 1 -1.1104 0.984569 3.03887 14.931
224 1 -1.1104 1.21162 8.65972 14.867
228 2 2.2208 5.1568 -1.27859 19.0822
229 2 2.2208 5.27906 4.36168 19.1073
230 1 -1.1104 1.1497 0.198233 17.7493
231 1 -1.1104 0.888007 5.71482 17.7652
234 1 -1.1104 1.00282 0.2082 15.0077
235 1 -1.1104 1.02518 5.85937 14.8079
238 2 2.2208 2.51352 1.42599 19.1817
239 2 2.2208 2.44766 6.94467 19.2613
240 1 -1.1104 3.81579 -2.70718 17.6753
241 1 -1.1104 3.83542 2.79821 17.7959
242 1 -1.1104 3.78458 8.47782 17.7415
243 1 -1.1104 3.87496 -2.85154 14.9369
244 1 -1.1104 3.78069 2.77618 15.1602
245 1 -1.1104 3.97868 8.5661 14.9603
246 2 2.2208 2.37308 -1.35291 16.3248
247 2 2.2208 2.38734 4.31548 16.291
248 1 -1.1104 3.80948 0.0135099 17.6786
249 1 -1.1104 3.91276 5.60939 17.9064
250 1 -1.1104 3.74361 -0.0866613 14.8367
251 1 -1.1104 3.7717 5.78653 15.0729
221 1 -1.1104 6.68577 8.52755 17.6295
258 2 2.2208 -0.463122 -4.20314 16.441
226 1 -1.1104 6.63167 2.93227 15.0055
259 2 2.2208 5.38009 -4.13232 16.3155
237 1 -1.1104 6.69228 5.69711 15.0825
255 2 2.2208 -0.382211 7.0717 16.425
300 1 -1.1104 0.945368 -0.150707 20.6899
254 2 2.2208 -0.396427 -1.37662 19.1384
219 1 -1.1104 6.71742 -2.71823 17.8793
225 1 -1.1104 6.63117 -2.62773 15.0332
227 1 -1.1104 6.63814 8.61555 14.8455
257 2 2.2208 2.40273 -4.08083 19.1704
294 1 -1.1104 0.874187 -2.89124 20.3537
295 1 -1.1104 1.14202 2.81698 20.5749
307 1 -1.1104 3.66117 0.156887 20.6135
301 1 -1.1104 0.980901 5.58615 20.5996
305 1 -1.1104 3.87407 2.94912 20.5416
302 1 -1.1104 6.5383 0.0923867 20.4073
306 1 -1.1104 3.79993 8.56574 20.533
308 1 -1.1104 3.82418 5.70185 20.6068
304 1 -1.1104 3.7839 -2.91028 20.6213
296 1 -1.1104 1.00963 8.41628 20.6252
303 1 -1.1104 6.66484 5.91923 20.4219
253 2 2.2208 -0.317553 4.20166 19.3276
256 2 2.2208 -0.404478 1.54557 16.2149
220 1 -1.1104 6.70332 2.9324 17.8258
236 1 -1.1104 6.76803 0.265398 14.8987
9617 2 2.2208 13.5795 -4.13203 19.2981
233 1 -1.1104 6.81545 5.76053 17.7036
232 1 -1.1104 6.70208 -0.00698855 17.6708
292 2 2.2208 10.859 -4.12924 16.3808
260 2 2.2208 10.7955 1.50102 16.5198
261 2 2.2208 10.8304 7.12424 16.4183
262 1 -1.1104 12.2864 -2.61307 17.7352
263 1 -1.1104 12.2967 2.96375 17.7662
264 1 -1.1104 12.2356 8.52359 17.774
265 1 -1.1104 12.1678 -2.75534 14.9609
266 1 -1.1104 12.2816 2.80172 15.0841
267 1 -1.1104 12.1604 8.4471 15.1079
268 2 2.2208 10.7998 -1.43181 19.2039
269 2 2.2208 10.7735 4.36693 19.076
270 1 -1.1104 12.2059 0.248937 17.9016
271 1 -1.1104 12.231 5.83158 17.7324
272 1 -1.1104 12.3652 0.0420982 14.9874
273 1 -1.1104 12.2178 5.53845 14.9845
274 2 2.2208 7.9943 1.43241 19.1806
275 2 2.2208 8.0096 7.26211 19.209
276 1 -1.1104 9.3513 -2.73852 17.632
277 1 -1.1104 9.4715 2.80675 17.7634
278 1 -1.1104 9.39885 8.59362 17.8182
279 1 -1.1104 9.46041 -2.45256 14.9439
280 1 -1.1104 9.44356 3.03029 14.9888
281 1 -1.1104 9.42797 8.54922 15.164
282 2 2.2208 8.24705 -1.16878 16.316
283 2 2.2208 8.16781 4.33843 16.4022
284 1 -1.1104 9.4509 0.0541354 17.8684
285 1 -1.1104 9.49771 5.64973 17.8515
286 1 -1.1104 9.5811 0.266342 15.0618
287 1 -1.1104 9.48596 5.77919 15.047
203 2 2.2208 8.05893 7.13937 13.5371
289 2 2.2208 13.8013 -1.30879 16.3665
298 1 -1.1104 6.63799 2.88947 20.5555
299 1 -1.1104 6.58862 8.7605 20.53
381 1 -1.1104 9.38064 2.90195 20.3947
382 1 -1.1104 9.48182 8.43691 20.67
370 1 -1.1104 12.1458 3.00385 20.4932
371 1 -1.1104 12.4144 8.40732 20.5562
375 1 -1.1104 12.2676 5.61871 20.6277
374 1 -1.1104 12.088 -0.00985099 20.5871
383 1 -1.1104 9.37188 0.0785767 20.7134
9616 2 2.2208 13.7737 7.13531 19.1721
351 2 2.2208 5.2293 -4.23093 21.9331
353 2 2.2208 2.45714 -4.11262 24.8737
349 2 2.2208 -0.467034 7.03955 22.0652
350 2 2.2208 -0.438289 1.52554 22.0223
347 2 2.2208 -0.461597 4.33711 24.935
309 2 2.2208 5.28289 1.50499 21.934
310 2 2.2208 5.15768 7.19956 21.9134
311 1 -1.1104 1.01412 -2.70219 23.5803
312 1 -1.1104 1.08327 3.05886 23.3351
313 1 -1.1104 1.1008 8.5823 23.4795
317 1 -1.1104 1.00387 -2.81993 26.3813
318 1 -1.1104 0.825351 2.82119 26.2665
319 1 -1.1104 0.986092 8.42023 26.2395
323 2 2.2208 5.16341 -1.28554 24.7996
324 2 2.2208 5.21466 4.28207 24.7138
325 1 -1.1104 0.815889 0.205794 23.4662
326 1 -1.1104 0.919083 5.72632 23.4455
329 1 -1.1104 0.97206 0.0284923 26.2854
330 1 -1.1104 0.980286 5.70343 26.3434
333 2 2.2208 2.31098 1.55073 24.7815
334 2 2.2208 2.3946 7.01393 24.8292
335 1 -1.1104 3.8602 -2.66899 23.3729
336 1 -1.1104 3.75968 2.83172 23.3841
337 1 -1.1104 3.8114 8.53188 23.3908
338 1 -1.1104 3.85248 -2.54817 26.1988
339 1 -1.1104 3.64601 2.7773 26.0543
340 1 -1.1104 3.83639 8.48301 26.1172
341 2 2.2208 2.40338 -1.3969 22.0107
342 2 2.2208 2.51405 4.20689 22.0813
343 1 -1.1104 3.70072 0.0341033 23.3954
344 1 -1.1104 3.786 5.66401 23.3966
345 1 -1.1104 3.86013 0.00567683 26.2403
346 1 -1.1104 3.86324 5.55702 26.2405
320 1 -1.1104 6.60665 -2.59317 26.1318
331 1 -1.1104 6.59773 0.185954 26.2592
332 1 -1.1104 6.67654 5.80593 26.1472
327 1 -1.1104 6.66756 0.161372 23.3659
315 1 -1.1104 6.52739 2.96181 23.3598
328 1 -1.1104 6.53289 5.7114 23.4003
55 2 2.2208 2.388 -1.2642 27.7221
314 1 -1.1104 6.64278 -2.62175 23.4145
321 1 -1.1104 6.55474 2.91051 26.1285
322 1 -1.1104 6.56485 8.59251 26.1735
57 2 2.2208 5.1192 1.38901 27.4921
54 2 2.2208 2.46135 4.35195 27.7028
56 2 2.2208 5.31744 7.16188 27.501
67 2 2.2208 5.2063 -4.02529 27.5639
397 2 2.2208 7.95466 -3.93179 24.8113
355 1 -1.1104 9.48756 0.233411 26.0765
354 1 -1.1104 9.33028 5.76513 25.9469
386 1 -1.1104 9.2949 -2.67838 26.1476
297 1 -1.1104 6.53418 -2.74993 20.6414
316 1 -1.1104 6.56341 8.51197 23.389
368 1 -1.1104 12.2795 0.0533268 26.2339
392 2 2.2208 13.72 1.53354 24.8315
367 2 2.2208 10.9282 7.01129 21.9343
366 1 -1.1104 12.2921 -2.61212 23.5686
365 1 -1.1104 12.1792 5.56419 26.1468
360 2 2.2208 7.99462 -1.30814 21.9151
364 2 2.2208 8.05965 1.59271 24.7283
363 1 -1.1104 12.1036 2.87829 23.3383
390 1 -1.1104 9.53569 -2.61002 23.2946
394 2 2.2208 13.7202 -1.34498 22.1114
356 1 -1.1104 9.282 5.72355 23.0807
362 1 -1.1104 12.2295 2.85233 26.0652
396 2 2.2208 10.7596 -4.12286 22.0386
359 2 2.2208 8.02462 4.30697 21.861
358 1 -1.1104 9.37344 0.136403 23.4256
384 1 -1.1104 9.43207 5.76559 20.5026
369 1 -1.1104 12.0955 -2.80023 20.5809
380 1 -1.1104 9.37206 -2.71641 20.5657
357 2 2.2208 8.02123 7.17591 24.6839
378 1 -1.1104 12.1539 8.47985 23.4251
377 1 -1.1104 12.341 0.206761 23.2627
376 1 -1.1104 12.1718 5.5301 23.4209
373 2 2.2208 10.7613 1.55493 21.9373
379 1 -1.1104 12.3237 8.50305 26.1303
361 1 -1.1104 9.45109 8.55499 26.2349
372 1 -1.1104 12.2334 -2.62911 26.2097
385 1 -1.1104 9.56991 2.89691 26.0943
389 1 -1.1104 9.32505 2.8533 23.1386
388 2 2.2208 10.7185 4.29301 24.6563
391 2 2.2208 10.8188 -1.10202 24.6289
387 1 -1.1104 9.43033 8.54728 23.4638
393 2 2.2208 13.6935 7.12961 24.867
120 2 2.2208 10.8229 -4.01938 27.4854
109 2 2.2208 10.7717 7.11694 27.5436
110 2 2.2208 10.9083 1.5686 27.6032
116 2 2.2208 13.7592 4.27703 27.4155
108 2 2.2208 8.091 -1.26242 27.5695
398 2 2.2208 5.30262 12.8211 5.27154
399 2 2.2208 5.33342 18.3558 5.2729
400 1 -1.1104 1.06665 14.2008 1.02262
402 1 -1.1104 1.07029 19.9079 1.04082
406 1 -1.1104 0.999383 14.2568 3.83912
407 1 -1.1104 1.14172 19.9635 3.79428
410 2 2.2208 5.27299 9.9882 2.41611
411 2 2.2208 5.36876 15.6175 2.43088
412 2 2.2208 5.36478 21.1993 2.43312
413 1 -1.1104 1.14678 11.3465 1.13146
415 1 -1.1104 1.1966 17.024 0.831895
421 1 -1.1104 1.27601 11.3584 3.75833
422 1 -1.1104 1.1168 16.9787 3.76916
425 2 2.2208 2.55012 12.7641 2.37889
426 2 2.2208 2.41216 18.2708 2.29953
427 1 -1.1104 3.79299 14.2181 1.0411
429 1 -1.1104 3.90208 19.7843 1.01394
430 1 -1.1104 3.82486 14.0685 3.79049
431 1 -1.1104 3.82293 19.7565 3.65328
432 2 2.2208 2.58731 9.98912 5.1806
433 2 2.2208 2.48294 15.553 5.14411
434 2 2.2208 2.56005 21.1459 5.19054
435 1 -1.1104 3.89719 11.465 0.987734
437 1 -1.1104 3.84698 17.0494 1.00499
439 1 -1.1104 4.06798 11.3448 3.79457
440 1 -1.1104 3.97972 16.9565 3.72067
417 1 -1.1104 6.86194 11.3737 0.952132
496 1 -1.1104 1.17615 19.6006 6.43339
424 1 -1.1104 6.67629 17.0538 3.82281
447 2 2.2208 -0.394822 15.5258 2.46795
449 2 2.2208 -0.331841 18.339 5.09735
497 1 -1.1104 6.71069 19.7988 6.73661
418 1 -1.1104 6.77113 11.2883 6.60757
401 1 -1.1104 1.08995 14.1244 6.64573
414 1 -1.1104 1.01924 11.2564 6.53779
416 1 -1.1104 0.899504 16.822 6.55571
436 1 -1.1104 3.89636 11.3886 6.7093
438 1 -1.1104 3.7725 16.9805 6.69846
450 2 2.2208 -0.315411 18.5156 -0.392502
442 2 2.2208 2.43047 15.5797 -0.479217
98 1 -1.1104 9.54067 8.57992 3.68105
409 1 -1.1104 6.74049 19.8967 4.06294
423 1 -1.1104 6.60542 11.4859 3.78907
403 1 -1.1104 6.74719 14.2821 1.06026
404 1 -1.1104 6.5602 14.1477 6.6143
492 2 2.2208 13.593 15.612 5.18614
486 2 2.2208 8.23286 15.5941 -0.480631
405 1 -1.1104 6.89994 19.8651 1.13381
408 1 -1.1104 6.56738 14.1762 3.76057
419 1 -1.1104 6.79772 16.9288 0.960048
453 2 2.2208 10.7838 12.8544 5.20007
454 2 2.2208 10.8369 18.4793 5.24856
455 1 -1.1104 12.316 14.1149 1.04235
457 1 -1.1104 12.2854 19.7289 0.953566
458 1 -1.1104 12.1813 14.1889 3.88998
459 1 -1.1104 12.2684 19.7653 3.80959
460 2 2.2208 10.9037 10.1107 2.29253
461 2 2.2208 10.8795 15.4398 2.37785
462 2 2.2208 10.9646 21.2584 2.44946
463 1 -1.1104 12.185 11.3498 1.06355
465 1 -1.1104 12.3526 16.8923 0.933558
467 1 -1.1104 12.1909 11.4324 3.72781
468 1 -1.1104 12.1802 17.0102 3.84272
469 2 2.2208 7.9308 12.6939 2.42189
470 2 2.2208 8.16483 18.2861 2.387
471 1 -1.1104 9.73592 14.257 0.870292
473 1 -1.1104 9.5863 19.6643 0.950264
474 1 -1.1104 9.43384 14.258 3.69304
475 1 -1.1104 9.52335 19.8159 3.7533
476 2 2.2208 8.02047 9.98727 5.1879
477 2 2.2208 8.03913 15.5834 5.2843
478 2 2.2208 8.17622 21.224 5.24252
479 1 -1.1104 9.50277 11.5682 0.986601
481 1 -1.1104 9.58672 16.9702 1.03156
483 1 -1.1104 9.4019 11.5162 3.73844
484 1 -1.1104 9.38812 16.9396 3.9541
485 2 2.2208 8.19522 21.1843 -0.299098
495 2 2.2208 13.6576 21.2563 5.15451
456 1 -1.1104 12.3232 14.2584 6.64018
561 1 -1.1104 9.62348 19.7888 6.56139
480 1 -1.1104 9.45325 11.5156 6.44695
464 1 -1.1104 12.2453 11.4743 6.59882
488 2 2.2208 10.9892 18.3052 -0.492789
542 2 2.2208 -0.336254 18.3515 10.8637
541 2 2.2208 -0.380745 15.5156 13.634
428 1 -1.1104 3.90715 14.142 6.56153
498 1 -1.1104 3.89996 19.7482 6.42771
499 2 2.2208 5.31884 12.9804 10.7519
500 2 2.2208 5.22711 18.3584 10.9108
501 1 -1.1104 1.1737 14.1727 12.394
502 1 -1.1104 1.00284 19.7529 12.1661
505 1 -1.1104 1.13413 14.1815 9.5783
506 1 -1.1104 1.04361 19.6421 9.35926
509 2 2.2208 5.24684 10.0263 7.98746
510 2 2.2208 5.24686 15.6256 8.07178
511 2 2.2208 5.30179 21.1712 8.0402
512 1 -1.1104 1.24242 11.3774 12.2195
513 1 -1.1104 1.05997 16.9962 12.2188
516 1 -1.1104 1.02355 11.3509 9.30459
517 1 -1.1104 0.972389 16.9032 9.60625
520 2 2.2208 2.34687 12.7176 8.04553
521 2 2.2208 2.49664 18.3709 7.97941
522 1 -1.1104 3.95359 14.1034 12.2112
523 1 -1.1104 3.82355 19.5123 12.348
524 1 -1.1104 3.76781 14.1727 9.41137
525 1 -1.1104 3.92496 19.7442 9.38321
526 2 2.2208 2.51211 10.063 10.7161
527 2 2.2208 2.49117 15.5442 11.0057
528 2 2.2208 2.48177 21.1064 10.8741
529 1 -1.1104 4.06507 11.4325 12.2635
530 1 -1.1104 3.99571 16.8809 12.3072
531 1 -1.1104 3.88103 11.3266 9.41596
532 1 -1.1104 3.82386 16.9547 9.44071
504 1 -1.1104 6.64819 19.7679 12.2854
508 1 -1.1104 6.66306 19.6038 9.47494
540 2 2.2208 -0.333139 9.9613 8.04028
536 2 2.2208 2.53938 12.8335 13.7193
515 1 -1.1104 6.88451 16.9829 12.3231
514 1 -1.1104 6.87608 11.4986 12.1832
519 1 -1.1104 6.67596 16.9611 9.51625
535 2 2.2208 5.2542 9.96223 13.59
544 2 2.2208 5.31003 21.0712 13.7396
533 2 2.2208 2.34056 18.3063 13.6778
539 2 2.2208 -0.258748 9.9236 13.6776
575 2 2.2208 13.7073 15.5454 10.8056
472 1 -1.1104 9.46156 14.2141 6.75315
482 1 -1.1104 9.46405 16.9404 6.72584
560 1 -1.1104 12.3846 19.7585 6.67328
466 1 -1.1104 12.1976 16.934 6.56686
567 1 -1.1104 9.47501 19.6847 12.2057
507 1 -1.1104 6.71283 14.2498 9.47043
557 1 -1.1104 12.4036 11.2411 12.169
566 1 -1.1104 9.43845 14.2317 9.54156
584 2 2.2208 13.705 12.9258 8.00278
559 2 2.2208 10.7525 15.6739 8.11881
580 2 2.2208 13.7731 9.94514 10.7305
556 1 -1.1104 12.2273 16.8624 12.1593
564 1 -1.1104 12.2914 14.2254 9.54944
555 1 -1.1104 12.3382 11.4017 9.38509
563 1 -1.1104 12.2551 19.7732 9.52257
565 1 -1.1104 9.53655 19.732 9.37625
518 1 -1.1104 6.74025 11.5695 9.39776
503 1 -1.1104 6.73144 14.2371 12.314
553 2 2.2208 8.05493 15.5461 10.9915
552 2 2.2208 8.1447 21.1559 10.7945
551 1 -1.1104 12.206 16.9488 9.45494
420 1 -1.1104 6.59634 17.1353 6.69016
550 2 2.2208 8.17259 12.745 8.16235
549 1 -1.1104 9.5449 11.3186 12.3138
548 1 -1.1104 9.58676 16.9141 12.3326
547 1 -1.1104 9.64083 11.3931 9.45427
546 1 -1.1104 9.38437 16.9712 9.55276
571 2 2.2208 10.8688 18.3378 10.9179
572 1 -1.1104 12.1934 14.0961 12.3227
573 1 -1.1104 12.349 19.7779 12.2681
554 2 2.2208 8.15741 9.9839 10.7917
562 2 2.2208 10.9922 10.0166 7.89026
570 2 2.2208 10.9399 12.6766 10.7307
569 2 2.2208 8.09988 18.3938 8.09336
568 1 -1.1104 9.53016 14.0752 12.3666
558 2 2.2208 10.992 21.1901 8.01708
579 2 2.2208 8.1404 12.7864 13.7923
581 2 2.2208 13.6416 12.6635 13.7331
576 2 2.2208 8.0689 18.2732 13.7152
577 2 2.2208 10.885 15.4213 13.6374
586 2 2.2208 5.28367 12.757 16.4556
587 2 2.2208 5.23982 18.2012 16.5141
588 1 -1.1104 1.11728 14.1386 17.819
589 1 -1.1104 1.03646 19.7467 17.9456
592 1 -1.1104 1.09325 14.2359 15.0261
593 1 -1.1104 1.00614 19.7545 15.1458
596 2 2.2208 5.19982 10.0139 19.2399
597 2 2.2208 5.21938 15.42 19.2526
598 2 2.2208 5.2409 21.2279 19.226
599 1 -1.1104 1.18401 11.227 17.7686
600 1 -1.1104 1.00089 16.8981 17.9097
603 1 -1.1104 1.16907 11.3655 14.9745
604 1 -1.1104 1.10332 17.0363 15.0274
607 2 2.2208 2.40332 12.6797 19.1864
608 2 2.2208 2.45556 18.227 19.2099
609 1 -1.1104 3.8626 14.0208 17.6607
610 1 -1.1104 3.92166 19.6191 17.8062
611 1 -1.1104 3.98636 14.1531 14.9412
612 1 -1.1104 3.85161 19.7921 15.0541
613 2 2.2208 2.52582 9.85741 16.3521
614 2 2.2208 2.43824 15.5576 16.4575
615 2 2.2208 2.51792 21.09 16.546
616 1 -1.1104 3.92556 11.2876 17.8295
617 1 -1.1104 3.84293 16.8459 17.744
618 1 -1.1104 3.82747 11.3246 14.965
619 1 -1.1104 3.99118 16.8899 14.9518
658 1 -1.1104 1.11991 13.9836 20.6509
534 2 2.2208 5.31782 15.6227 13.6519
621 2 2.2208 -0.369404 21.0473 19.2789
666 1 -1.1104 3.94404 14.0295 20.5687
668 1 -1.1104 3.6646 11.4487 20.7982
664 1 -1.1104 6.4849 11.3825 20.6451
595 1 -1.1104 6.81184 19.6149 15.1958
669 1 -1.1104 3.94586 16.8633 20.5905
545 2 2.2208 -0.469761 21.0705 13.5995
590 1 -1.1104 6.66355 14.0961 17.8452
605 1 -1.1104 6.66546 11.4592 15.1849
594 1 -1.1104 6.7371 14.2743 15.1
601 1 -1.1104 6.58962 11.2469 17.9292
606 1 -1.1104 6.69207 16.8645 15.1412
591 1 -1.1104 6.55708 19.8446 17.8984
602 1 -1.1104 6.67386 16.8882 17.9676
625 2 2.2208 10.84 12.7166 16.6036
626 2 2.2208 10.8293 18.2432 16.4162
627 1 -1.1104 12.3373 13.9796 17.8818
628 1 -1.1104 12.2216 19.6489 17.7646
629 1 -1.1104 12.1786 14.0522 15.205
630 1 -1.1104 12.4135 19.5837 14.8914
632 2 2.2208 10.8493 9.85106 19.3311
633 2 2.2208 10.9601 15.5533 19.3518
634 2 2.2208 10.922 21.0805 19.2734
635 1 -1.1104 12.2569 11.2759 18.0314
636 1 -1.1104 12.1884 16.8227 17.8343
637 1 -1.1104 12.2133 11.2484 15.0556
638 1 -1.1104 12.387 16.8201 15.1332
639 2 2.2208 8.00527 12.7911 19.3075
640 2 2.2208 8.02524 18.384 19.2756
641 1 -1.1104 9.47347 14.1734 18.0118
642 1 -1.1104 9.42408 19.7275 17.8391
643 1 -1.1104 9.49813 14.1055 15.1557
644 1 -1.1104 9.74372 19.8793 15.1192
646 2 2.2208 8.1068 10.0532 16.4516
647 2 2.2208 8.07649 15.5126 16.4771
648 2 2.2208 8.14444 21.0597 16.5285
649 1 -1.1104 9.44363 11.3822 17.8985
650 1 -1.1104 9.48892 16.9335 17.9367
651 1 -1.1104 9.45838 11.3257 14.9536
652 1 -1.1104 9.49785 17.0375 15.0626
653 2 2.2208 13.7983 12.6497 19.2719
585 2 2.2208 10.897 21.19 13.6472
578 2 2.2208 10.8353 9.96059 13.6596
722 1 -1.1104 12.4001 14.0667 20.6293
645 1 -1.1104 9.62923 19.7372 20.7387
731 1 -1.1104 9.29749 11.2766 20.6361
661 1 -1.1104 6.60677 19.8476 20.6907
631 1 -1.1104 12.381 19.7427 20.6723
726 1 -1.1104 12.2894 11.1462 20.6831
727 1 -1.1104 12.5299 17.02 20.5901
730 1 -1.1104 9.57457 14.0506 20.7881
732 1 -1.1104 9.57269 16.9215 20.6871
583 2 2.2208 13.8629 18.2874 13.5722
707 2 2.2208 -0.399714 18.2679 22.0886
704 2 2.2208 -0.313807 21.3325 24.8354
451 2 2.2208 -0.2248 12.8456 27.81
662 1 -1.1104 0.944375 11.3067 20.6419
659 1 -1.1104 1.14373 19.6887 20.6786
663 1 -1.1104 1.22364 16.8164 20.5461
667 1 -1.1104 3.92363 19.6852 20.7151
670 2 2.2208 5.19283 12.7447 22.1163
671 2 2.2208 5.22841 18.3863 22.1812
672 1 -1.1104 1.08716 14.2833 23.326
673 1 -1.1104 1.19056 19.8348 23.4442
676 1 -1.1104 1.25528 14.1098 26.3138
677 1 -1.1104 1.05708 19.9358 26.1329
680 2 2.2208 5.21206 9.93839 24.8617
681 2 2.2208 5.34156 15.5997 24.952
682 2 2.2208 5.28365 21.2351 24.9594
683 1 -1.1104 1.0906 11.3333 23.5316
684 1 -1.1104 1.05226 17.0487 23.4958
687 1 -1.1104 1.04708 11.3769 26.3432
688 1 -1.1104 1.166 16.92 26.2197
691 2 2.2208 2.50215 12.7514 24.8676
692 2 2.2208 2.50299 18.2805 24.924
693 1 -1.1104 3.88371 14.1458 23.6549
694 1 -1.1104 3.91309 19.8083 23.5447
695 1 -1.1104 3.99809 14.1649 26.4256
696 1 -1.1104 3.94259 19.6599 26.3768
697 2 2.2208 2.3653 9.87737 22.0217
698 2 2.2208 2.49171 15.4491 22.0285
699 2 2.2208 2.50042 21.1139 22.04
700 1 -1.1104 3.85891 11.2332 23.5273
701 1 -1.1104 3.87091 16.879 23.4445
702 1 -1.1104 3.81467 11.2612 26.2836
703 1 -1.1104 3.89749 17.0134 26.2483
674 1 -1.1104 6.66685 13.9467 23.4767
685 1 -1.1104 6.66542 11.36 23.4735
690 1 -1.1104 6.78582 17.048 26.2487
444 2 2.2208 5.32546 18.273 27.7625
689 1 -1.1104 6.71832 11.3527 26.3502
678 1 -1.1104 6.68861 14.0942 26.2875
443 2 2.2208 2.53657 9.90534 27.6351
441 2 2.2208 2.61352 21.2799 27.7247
445 2 2.2208 5.34655 12.6883 27.6312
660 1 -1.1104 6.71276 14.2573 20.6414
713 2 2.2208 8.11552 21.1031 22.1061
712 1 -1.1104 9.46166 11.2966 23.4088
745 2 2.2208 13.7815 21.189 22.233
686 1 -1.1104 6.68387 16.8751 23.5692
665 1 -1.1104 6.81474 17.0386 20.7842
679 1 -1.1104 6.79185 19.693 26.4105
711 1 -1.1104 9.70253 16.8054 23.3853
724 2 2.2208 10.9594 15.4979 24.8959
723 1 -1.1104 12.4074 14.2552 26.2886
721 1 -1.1104 12.319 11.3035 26.074
720 1 -1.1104 12.4481 19.6831 26.185
719 1 -1.1104 12.3623 16.9307 26.1603
715 2 2.2208 8.0117 9.96927 22.039
718 2 2.2208 10.9679 21.1692 24.9755
714 2 2.2208 8.1136 15.4084 22.0195
717 2 2.2208 10.8038 9.95187 24.702
736 2 2.2208 8.12474 18.3801 24.8893
716 1 -1.1104 9.52367 19.7459 26.2966
735 1 -1.1104 9.49537 14.0898 23.4303
734 1 -1.1104 9.56195 19.7959 23.4582
733 1 -1.1104 9.54241 14.1904 26.3015
729 1 -1.1104 12.2637 11.3691 23.3001
728 1 -1.1104 12.4458 19.7471 23.4956
675 1 -1.1104 6.77322 19.7858 23.5069
740 1 -1.1104 12.3171 14.1479 23.533
739 2 2.2208 10.923 18.3326 22.0951
738 2 2.2208 10.9901 12.6862 22.0242
725 1 -1.1104 12.3315 16.9166 23.3646
737 2 2.2208 8.08203 12.77 24.8959
709 1 -1.1104 9.57726 16.9887 26.2235
710 1 -1.1104 9.58805 11.3855 26.2804
489 2 2.2208 11.0176 12.7271 27.6265
487 2 2.2208 8.21936 9.93668 27.6434
746 2 2.2208 5.26134 23.8317 5.20878
748 2 2.2208 5.26454 29.5377 5.21825
749 1 -1.1104 1.07521 25.4682 1.228
750 1 -1.1104 1.07096 30.9644 0.839158
753 1 -1.1104 1.16326 25.4612 3.91882
754 1 -1.1104 0.908007 30.8707 3.78337
756 1 -1.1104 6.63982 30.9636 3.63542
757 2 2.2208 5.29952 26.7129 2.35113
758 2 2.2208 5.27192 32.2457 2.45554
759 1 -1.1104 1.10417 22.6092 1.04959
760 1 -1.1104 0.901682 28.1376 1.1116
761 1 -1.1104 1.035 33.6402 1.08155
765 1 -1.1104 1.10648 22.7734 3.88912
766 1 -1.1104 1.04992 28.1647 3.83072
767 1 -1.1104 1.14019 33.7292 3.88754
770 1 -1.1104 6.66186 33.7218 3.80271
771 2 2.2208 2.57885 23.8088 2.42181
772 2 2.2208 2.44846 29.4837 2.40473
773 1 -1.1104 3.88783 25.3383 0.978731
774 1 -1.1104 3.82513 30.88 1.14154
775 1 -1.1104 3.95316 25.2692 3.82705
776 1 -1.1104 3.90433 30.9004 3.9424
778 2 2.2208 2.5245 26.8533 5.32578
779 2 2.2208 2.52997 32.2503 5.24284
780 1 -1.1104 3.97371 22.5569 1.06791
781 1 -1.1104 3.7223 28.1291 1.13951
782 1 -1.1104 3.88894 33.891 1.05746
783 1 -1.1104 3.88866 22.5231 3.84148
784 1 -1.1104 3.84658 28.1087 3.83829
785 1 -1.1104 3.89679 33.5872 3.89236
828 1 -1.1104 1.07658 25.4117 6.61256
833 1 -1.1104 1.09382 28.3156 6.63247
839 1 -1.1104 3.94357 31.0971 6.81405
763 1 -1.1104 6.56332 28.1333 1.07076
768 1 -1.1104 6.75481 22.6041 3.87432
789 2 2.2208 -0.252065 29.5453 5.23564
829 1 -1.1104 1.05771 31.0761 6.64753
840 1 -1.1104 3.82705 22.509 6.6803
790 2 2.2208 -0.341331 32.3475 2.53828
786 2 2.2208 -0.253127 26.6962 2.65024
787 2 2.2208 -0.334831 23.9346 5.30747
791 2 2.2208 5.39428 23.9681 -0.395462
1080 2 2.2208 2.51155 32.3317 -0.364316
747 2 2.2208 5.15758 29.5479 -0.375768
788 2 2.2208 -0.343025 29.5366 -0.317468
752 1 -1.1104 6.67136 30.8689 0.844222
751 1 -1.1104 6.73939 25.3857 1.01984
769 1 -1.1104 6.60859 28.1837 3.95359
764 1 -1.1104 6.68578 33.9115 1.04594
762 1 -1.1104 6.78444 22.5492 1.21824
1114 2 2.2208 13.8074 32.4472 -0.486437
1115 2 2.2208 10.913 29.5177 -0.321591
813 2 2.2208 8.04009 26.7084 -0.466499
755 1 -1.1104 6.78837 25.3725 3.77907
793 2 2.2208 10.8371 24.0126 5.31376
794 2 2.2208 10.9003 29.5381 5.18066
795 1 -1.1104 12.2845 25.2762 1.25557
796 1 -1.1104 12.1897 30.8733 0.984369
797 1 -1.1104 12.1964 25.418 3.9275
798 1 -1.1104 12.3978 30.897 4.06273
799 2 2.2208 10.789 26.7641 2.58013
800 2 2.2208 10.9325 32.3802 2.36516
801 1 -1.1104 12.3501 22.5172 0.956157
802 1 -1.1104 12.3416 28.0204 1.23807
803 1 -1.1104 12.4788 33.5806 1.07555
804 1 -1.1104 12.282 22.6822 3.86646
805 1 -1.1104 12.2313 28.1138 3.94421
806 1 -1.1104 12.1982 33.6819 3.97592
807 2 2.2208 8.15153 23.9401 2.51161
808 2 2.2208 8.07291 29.5914 2.43097
809 1 -1.1104 9.54666 25.4072 1.01419
810 1 -1.1104 9.28962 31.1187 1.05139
811 1 -1.1104 9.53348 25.3595 4.013
812 1 -1.1104 9.47731 30.9259 3.83317
814 2 2.2208 8.00695 26.7268 5.25069
815 2 2.2208 8.13352 32.3441 5.22589
816 1 -1.1104 9.47389 22.5332 1.14391
817 1 -1.1104 9.53262 28.154 1.13918
818 1 -1.1104 9.59001 33.7019 0.96473
819 1 -1.1104 9.52913 22.5988 3.90384
820 1 -1.1104 9.40419 28.1314 3.94593
821 1 -1.1104 9.49904 33.6324 3.82796
904 1 -1.1104 9.40915 28.2264 6.62615
825 2 2.2208 13.7237 23.8591 2.46015
824 2 2.2208 13.7366 32.2821 5.32581
831 1 -1.1104 6.65359 30.9819 6.58398
837 1 -1.1104 6.75982 33.5963 6.70938
901 1 -1.1104 9.54026 30.9574 6.67422
838 1 -1.1104 3.85475 25.2566 6.73909
882 2 2.2208 -0.392569 23.9776 10.7398
832 1 -1.1104 1.05162 22.3934 6.65182
836 1 -1.1104 6.60041 28.1079 6.7977
841 1 -1.1104 3.86361 28.3203 6.60317
834 1 -1.1104 1.29509 33.8705 6.60303
842 1 -1.1104 3.94296 33.7765 6.68786
844 2 2.2208 5.31978 23.9734 10.9673
845 2 2.2208 5.26748 29.486 10.9415
846 1 -1.1104 0.978838 25.2391 12.2639
847 1 -1.1104 1.18814 30.8853 12.3745
850 1 -1.1104 1.12658 25.427 9.44955