ITEM: TIMESTEP
60000
ITEM: NUMBER OF ATOMS
17640
ITEM: BOX BOUNDS pp pp pp
-3.1622922406548221e-01 2.7656229224065282e+01
-3.7994801677229408e+00 3.3187948016771873e+02
-3.1982171198044096e-01 2.7659821711980225e+01
ITEM: ATOMS id type q x y z
1 2 2.2208 5.3283 1.81042 5.25796
2 1 -1.1104 1.02789 -2.46894 1.16125
3 1 -1.1104 1.06021 3.12666 1.12435
6 1 -1.1104 1.12121 -2.45357 3.81366
7 1 -1.1104 1.28021 3.31768 3.79812
10 1 -1.1104 1.16325 0.302511 1.16549
12 2 2.2208 5.27763 -0.966651 2.49021
13 2 2.2208 5.36001 4.68867 2.49394
14 1 -1.1104 1.02467 0.339557 3.9402
16 1 -1.1104 3.7639 -2.31226 1.05887
17 1 -1.1104 3.75649 3.21774 0.98897
18 2 2.2208 2.4659 1.82724 2.47613
19 1 -1.1104 3.93751 -2.45164 3.76986
20 1 -1.1104 4.0671 3.23637 3.85139
21 2 2.2208 2.50442 -1.08848 5.12102
22 2 2.2208 2.49829 4.64193 5.27681
23 1 -1.1104 3.87995 0.516632 1.06345
24 1 -1.1104 3.86999 0.461533 3.82772
27 2 2.2208 -0.34143 4.53931 2.44667
166 1 -1.1104 1.12772 -2.37523 6.63624
167 1 -1.1104 1.02536 3.21428 6.59551
4 1 -1.1104 6.48747 -2.35194 1.04301
11 1 -1.1104 6.63974 0.415499 1.04047
9 1 -1.1104 6.76041 3.21681 3.96962
25 2 2.2208 -0.272884 -0.989246 2.51257
28 2 2.2208 2.47757 -3.78269 2.43218
136 2 2.2208 -0.212842 21.41 2.41958
170 1 -1.1104 1.13054 0.340974 6.67917
29 2 2.2208 5.28355 -3.89693 5.22392
30 2 2.2208 -0.270664 -3.79738 5.24005
332 2 2.2208 13.6825 18.5784 8.07429
344 2 2.2208 -0.234767 7.40188 10.8598
5 1 -1.1104 6.67991 3.28883 1.1506
15 1 -1.1104 6.66904 0.468961 3.83672
8 1 -1.1104 6.6676 -2.43643 3.76202
31 2 2.2208 10.8894 1.85385 5.23643
32 1 -1.1104 12.2681 -2.38818 1.08682
33 1 -1.1104 12.2898 3.17142 1.01948
34 1 -1.1104 12.3187 -2.32686 3.90475
35 1 -1.1104 12.2613 3.29993 3.85876
36 1 -1.1104 12.2921 0.435926 1.04679
37 2 2.2208 10.8853 -0.944726 2.46659
38 2 2.2208 10.907 4.60971 2.38579
39 1 -1.1104 12.3481 0.427644 3.89105
40 1 -1.1104 9.41171 -2.49617 1.02266
41 1 -1.1104 9.45606 3.1998 0.985464
42 2 2.2208 8.01427 1.89378 2.48697
43 1 -1.1104 9.4911 -2.23499 3.86391
44 1 -1.1104 9.54191 3.21375 3.81061
45 2 2.2208 8.02329 -0.982944 5.19736
47 1 -1.1104 9.45955 0.401389 1.01019
48 1 -1.1104 9.51048 0.554611 3.80321
46 2 2.2208 8.03328 4.59417 5.27104
207 1 -1.1104 12.2576 0.370305 6.69041
205 1 -1.1104 12.2793 -2.41379 6.66434
209 1 -1.1104 9.45306 3.30797 6.6144
52 2 2.2208 10.9203 -3.7605 5.22176
206 1 -1.1104 12.2497 3.20748 6.69083
54 2 2.2208 5.22228 7.42745 5.264
55 2 2.2208 5.3047 12.9808 5.26689
56 1 -1.1104 1.10525 8.90534 0.929638
58 1 -1.1104 1.07239 8.93178 3.82098
60 1 -1.1104 1.14656 6.01146 1.01775
61 1 -1.1104 1.08378 11.6828 1.02465
66 2 2.2208 5.16072 10.2022 2.53225
67 1 -1.1104 1.20748 6.07974 3.84246
68 1 -1.1104 1.01283 11.659 3.8367
71 1 -1.1104 3.84704 8.8723 1.09199
72 2 2.2208 2.50871 7.38026 2.46774
73 2 2.2208 2.49088 13.0919 2.38031
74 1 -1.1104 3.93909 8.83477 3.83582
75 2 2.2208 2.48018 10.2717 5.25368
76 1 -1.1104 3.97399 6.02689 1.07544
77 1 -1.1104 3.84676 11.7392 1.01008
79 1 -1.1104 3.99787 6.03195 3.82083
80 1 -1.1104 3.78121 11.5522 3.86928
202 2 2.2208 2.53188 -3.74421 8.01183
347 2 2.2208 2.54393 -3.86183 13.6696
234 1 -1.1104 1.0762 8.78373 6.67075
236 1 -1.1104 1.07705 5.92028 6.6427
239 1 -1.1104 3.94015 6.00464 6.65718
57 1 -1.1104 6.74747 8.78975 1.11359
237 1 -1.1104 6.67993 6.00141 6.7461
238 1 -1.1104 3.85968 8.84365 6.67425
371 2 2.2208 5.36812 15.8112 13.6813
359 2 2.2208 2.50317 7.5267 13.6108
203 2 2.2208 5.33817 -3.86705 10.8475
70 1 -1.1104 6.61137 11.5442 3.91435
63 1 -1.1104 6.86637 6.02468 1.12058
69 1 -1.1104 6.72863 5.99566 3.93688
59 1 -1.1104 6.68522 8.77745 3.91864
64 1 -1.1104 6.63598 11.5693 1.15335
84 2 2.2208 10.9165 7.4679 5.26868
85 2 2.2208 10.8665 13.0062 5.31225
86 1 -1.1104 12.3725 8.85846 1.03681
87 1 -1.1104 12.3317 8.85536 3.91085
88 1 -1.1104 12.3042 6.02473 1.00519
89 1 -1.1104 12.1946 11.5137 1.01337
91 2 2.2208 10.9152 10.17 2.50815
92 1 -1.1104 12.3815 6.05745 3.86943
93 1 -1.1104 12.1432 11.5732 3.92076
94 1 -1.1104 9.50669 8.7007 1.11483
95 2 2.2208 8.1172 7.38899 2.47605
96 2 2.2208 8.04297 12.9209 2.38983
97 1 -1.1104 9.51424 8.79248 3.8971
98 2 2.2208 8.13607 10.2731 5.2085
99 1 -1.1104 9.57325 5.89202 0.969839
100 1 -1.1104 9.48598 11.6268 1.12089
102 1 -1.1104 9.55147 6.02496 3.79599
103 1 -1.1104 9.44028 11.6166 3.86885
235 1 -1.1104 6.66202 8.74969 6.71315
269 1 -1.1104 9.44383 6.02892 6.57205
266 1 -1.1104 12.3158 6.0212 6.5986
322 1 -1.1104 9.64783 14.4866 12.1492
297 1 -1.1104 6.82753 14.4713 12.2797
106 2 2.2208 5.31079 18.6245 5.22425
107 1 -1.1104 1.05481 14.4506 0.967326
109 1 -1.1104 1.16585 19.9878 0.919294
113 1 -1.1104 1.22649 14.4186 3.86208
114 1 -1.1104 1.03675 20.0194 3.80198
116 1 -1.1104 1.07144 17.2832 1.13
119 2 2.2208 5.19885 15.8542 2.41982
120 2 2.2208 5.27216 21.3394 2.43373
121 1 -1.1104 1.10098 17.2538 3.9609
123 1 -1.1104 3.82665 14.447 1.0346
125 1 -1.1104 3.93761 20.0125 1.03774
127 2 2.2208 2.47107 18.5789 2.45384
128 1 -1.1104 3.87697 14.2827 3.87418
129 1 -1.1104 3.81477 19.9125 3.77661
130 2 2.2208 2.49207 15.7466 5.36094
131 2 2.2208 2.56766 21.3608 5.26903
132 1 -1.1104 3.82702 17.2603 0.893075
134 1 -1.1104 3.89265 17.0912 3.89424
137 2 2.2208 -0.309154 18.6282 5.29654
117 1 -1.1104 1.03675 17.2099 6.66401
302 1 -1.1104 1.12986 20.0036 6.61029
139 1 -1.1104 6.70584 19.8652 3.84888
140 1 -1.1104 6.63875 17.2517 0.962795
231 2 2.2208 8.13681 -3.85693 8.00604
126 1 -1.1104 3.97417 20.0341 6.64055
318 1 -1.1104 9.62974 19.9515 9.47999
122 1 -1.1104 6.68005 17.2015 3.76349
115 1 -1.1104 6.70281 14.4004 3.9284
110 1 -1.1104 6.63576 14.4817 1.10317
138 1 -1.1104 6.68829 20.0517 1.07968
141 2 2.2208 10.8914 18.5825 5.25253
142 1 -1.1104 12.2479 14.4478 1.088
144 1 -1.1104 12.3104 20.0582 1.12118
146 1 -1.1104 12.2364 14.4365 3.91093
147 1 -1.1104 12.2952 20.0298 3.87854
148 1 -1.1104 12.332 17.3032 1.10054
150 2 2.2208 10.7722 15.8207 2.47417
151 2 2.2208 11.0416 21.456 2.48095
152 1 -1.1104 12.2754 17.1618 3.95935
153 1 -1.1104 9.33666 14.4246 0.943206
155 1 -1.1104 9.49407 20.0386 1.05688
157 2 2.2208 8.07402 18.5745 2.41847
158 1 -1.1104 9.41544 14.364 3.7747
159 1 -1.1104 9.53381 20.0142 3.83069
160 2 2.2208 8.05157 15.8401 5.24591
161 2 2.2208 8.1591 21.2717 5.16146
162 1 -1.1104 9.57757 17.1395 0.991394
164 1 -1.1104 9.48754 17.3039 3.82774
145 1 -1.1104 12.4816 20.0475 6.66622
156 1 -1.1104 9.64123 19.9907 6.70106
320 2 2.2208 8.14633 18.6476 8.09868
306 1 -1.1104 6.72648 17.1894 12.248
173 1 -1.1104 3.87142 3.18064 6.56824
174 1 -1.1104 3.85378 0.334965 6.5914
172 1 -1.1104 3.93148 -2.51555 6.51347
330 1 -1.1104 12.4325 14.4352 12.3263
328 1 -1.1104 12.3412 14.4105 9.51349
321 1 -1.1104 9.59839 19.9424 12.359
323 1 -1.1104 12.3361 17.1867 9.49407
175 2 2.2208 5.26691 1.77515 10.8551
176 1 -1.1104 1.13817 -2.34995 12.1885
177 1 -1.1104 1.0672 3.19143 12.1589
180 1 -1.1104 1.17855 -2.42861 9.4246
181 1 -1.1104 1.09675 3.21335 9.36919
184 1 -1.1104 1.10816 0.396851 12.1846
186 2 2.2208 5.36455 -1.08991 7.99301
187 2 2.2208 5.27703 4.56022 8.02784
188 1 -1.1104 1.05021 0.403691 9.41403
190 1 -1.1104 3.92655 -2.48414 12.2578
191 1 -1.1104 3.80627 3.21956 12.2036
192 2 2.2208 2.4465 1.80079 7.96181
193 1 -1.1104 3.96554 -2.43125 9.34083
194 1 -1.1104 3.79698 3.23693 9.34254
195 2 2.2208 2.47732 -1.06134 10.8272
196 2 2.2208 2.43682 4.61821 10.841
197 1 -1.1104 3.85361 0.410217 12.182
198 1 -1.1104 3.90362 0.275369 9.46611
312 2 2.2208 -0.171106 18.5055 10.8446
336 2 2.2208 13.7374 21.4749 5.24755
360 2 2.2208 5.38168 10.2649 13.6528
178 1 -1.1104 6.69924 -2.52585 12.2073
183 1 -1.1104 6.64818 3.18325 9.56297
373 2 2.2208 10.9761 15.875 13.666
319 1 -1.1104 9.50778 14.4318 9.50871
361 2 2.2208 2.49001 12.9073 13.6565
168 1 -1.1104 6.70149 -2.35564 6.52839
210 1 -1.1104 9.43299 0.43808 6.6116
171 1 -1.1104 6.6059 0.37339 6.62385
208 1 -1.1104 9.46916 -2.37349 6.54679
363 2 2.2208 8.10326 7.38086 13.7529
288 1 -1.1104 6.70244 20.0106 9.49974
169 1 -1.1104 6.56459 3.1256 6.69536
111 1 -1.1104 6.59182 14.3424 6.67029
185 1 -1.1104 6.75019 0.331419 12.3206
179 1 -1.1104 6.60683 3.22277 12.3441
182 1 -1.1104 6.86577 -2.49716 9.44058
189 1 -1.1104 6.63767 0.445253 9.47261
211 2 2.2208 10.7346 1.8187 10.8504
212 1 -1.1104 12.4083 -2.31094 12.2777
213 1 -1.1104 12.2192 3.20616 12.3882
214 1 -1.1104 12.2791 -2.49962 9.33837
215 1 -1.1104 12.2971 3.11504 9.62326
216 1 -1.1104 12.1267 0.420776 12.1444
217 2 2.2208 10.8655 -1.04717 7.95899
218 2 2.2208 10.916 4.5534 7.94426
219 1 -1.1104 12.1669 0.436904 9.48132
220 1 -1.1104 9.5372 -2.39258 12.3168
221 1 -1.1104 9.35892 3.25239 12.121
222 2 2.2208 8.05538 1.83382 8.0672
223 1 -1.1104 9.56018 -2.35299 9.5323
224 1 -1.1104 9.41329 3.29063 9.33195
225 2 2.2208 8.08968 -0.948083 10.8202
226 2 2.2208 8.05218 4.72542 10.8016
227 1 -1.1104 9.41543 0.425552 12.2533
228 1 -1.1104 9.41839 0.44646 9.41896
355 2 2.2208 8.12953 1.86244 13.6406
78 1 -1.1104 3.95873 11.6634 6.65874
62 1 -1.1104 1.03629 11.6308 6.62842
342 2 2.2208 -0.36908 13.0237 10.854
343 2 2.2208 -0.355689 10.1947 7.99648
341 2 2.2208 13.6444 10.2393 10.8863
240 2 2.2208 5.2726 7.46743 10.8918
241 2 2.2208 5.33215 13.0515 10.9609
242 1 -1.1104 1.12983 8.86135 12.286
244 1 -1.1104 1.0498 8.78107 9.51068
246 1 -1.1104 1.05336 6.02751 12.2155
247 1 -1.1104 1.05932 11.6345 12.2288
250 2 2.2208 5.31268 10.2175 8.09672
251 1 -1.1104 1.12153 6.02225 9.47841
252 1 -1.1104 1.18489 11.6185 9.3445
255 1 -1.1104 3.95799 8.86029 12.2128
256 2 2.2208 2.49405 7.37269 8.11496
257 2 2.2208 2.49637 13.0313 8.06691
258 1 -1.1104 3.88659 8.90267 9.4795
259 2 2.2208 2.48027 10.3223 10.8
260 1 -1.1104 3.89013 6.07122 12.2272
261 1 -1.1104 3.89555 11.6411 12.2191
262 1 -1.1104 3.91199 6.00812 9.4802
263 1 -1.1104 3.95842 11.6375 9.44788
245 1 -1.1104 6.75624 8.7969 9.48305
296 1 -1.1104 6.83446 19.9493 12.2434
143 1 -1.1104 12.214 14.3878 6.66803
201 2 2.2208 -0.329859 1.84546 10.8119
90 1 -1.1104 12.2687 11.6174 6.72
267 1 -1.1104 9.50272 8.8745 6.72799
101 1 -1.1104 9.54582 11.5941 6.6699
265 1 -1.1104 12.2451 8.78746 6.69762
65 1 -1.1104 6.80213 11.6177 6.72177
248 1 -1.1104 6.74025 6.02835 12.3318
254 1 -1.1104 6.77244 11.5715 9.50036
243 1 -1.1104 6.63301 8.87512 12.2845
249 1 -1.1104 6.74217 11.6473 12.4121
253 1 -1.1104 6.56742 5.94042 9.49552
264 1 -1.1104 9.5756 11.6214 9.53306
268 1 -1.1104 9.5418 5.95899 9.30467
270 1 -1.1104 9.45103 11.6054 12.3457
271 1 -1.1104 9.42322 6.02645 12.1728
272 2 2.2208 8.10575 10.1893 10.9573
273 1 -1.1104 9.46408 8.81919 9.51961
274 2 2.2208 8.11622 12.9647 8.18926
275 2 2.2208 8.04893 7.42313 8.06541
276 2 2.2208 10.9506 7.37424 10.8573
277 2 2.2208 10.9332 13.027 10.8778
278 1 -1.1104 12.323 8.75784 12.1333
279 1 -1.1104 12.2879 8.76147 9.46376
280 1 -1.1104 12.3394 5.97116 12.277
281 1 -1.1104 12.2641 11.6074 12.2296
282 2 2.2208 10.8385 10.2081 8.12716
283 1 -1.1104 12.2866 5.93709 9.3932
284 1 -1.1104 12.2913 11.6639 9.47809
285 1 -1.1104 9.53568 8.72071 12.3266
104 2 2.2208 13.5905 13.007 2.45267
364 2 2.2208 10.9785 10.1637 13.68
149 1 -1.1104 12.2706 17.2151 6.64145
335 2 2.2208 13.6484 10.3044 5.31983
124 1 -1.1104 3.88537 14.4287 6.70947
108 1 -1.1104 1.14646 14.4413 6.69021
133 1 -1.1104 3.84865 17.2755 6.58432
311 2 2.2208 -0.264016 21.4092 7.94447
310 2 2.2208 2.56725 15.6994 10.9995
309 2 2.2208 2.54386 21.369 10.7196
308 1 -1.1104 3.84197 17.2022 12.3624
307 1 -1.1104 1.1173 17.139 12.4752
305 1 -1.1104 3.90089 14.3902 9.5518
304 1 -1.1104 3.97486 17.1223 9.51526
303 2 2.2208 2.52354 18.5978 8.02628
301 1 -1.1104 3.9478 20.0092 9.31162
287 1 -1.1104 4.01355 14.3382 12.306
300 2 2.2208 5.38759 18.5478 10.8418
299 1 -1.1104 1.13644 14.2862 12.2352
298 1 -1.1104 1.27848 20.0274 12.2132
295 2 2.2208 5.33463 15.8044 8.04572
294 1 -1.1104 1.13435 14.4187 9.47819
293 2 2.2208 5.4066 21.363 8.03557
292 1 -1.1104 1.24043 17.1322 9.53132
286 1 -1.1104 3.93777 19.9805 12.1855
291 1 -1.1104 1.1794 19.8744 9.46526
338 2 2.2208 13.6921 4.536 10.8028
290 1 -1.1104 6.70676 14.4384 9.44545
367 2 2.2208 -0.233656 4.59509 13.6179
316 2 2.2208 8.21118 21.374 10.9371
329 1 -1.1104 12.2453 20.0859 12.234
118 1 -1.1104 6.66672 17.2206 6.66022
325 2 2.2208 10.8949 15.7843 8.07126
314 1 -1.1104 9.54129 17.2602 9.432
112 1 -1.1104 6.70312 20.0154 6.59032
154 1 -1.1104 9.41279 14.4273 6.61406
331 2 2.2208 11.0087 18.6051 10.9215
163 1 -1.1104 9.49446 17.2456 6.69703
315 1 -1.1104 9.54016 17.23 12.2503
324 2 2.2208 10.9572 21.3709 7.96391
289 1 -1.1104 6.76056 17.2055 9.46432
317 2 2.2208 8.1206 15.8803 10.8102
327 1 -1.1104 12.4295 20.108 9.35573
326 1 -1.1104 12.3728 17.2548 12.3814
105 2 2.2208 13.6938 7.45493 2.47043
349 2 2.2208 2.51175 1.84623 13.6513
83 2 2.2208 -0.253606 13.0818 5.21704
334 2 2.2208 13.6639 4.61117 5.28355
372 2 2.2208 10.8998 21.3653 13.7341
200 2 2.2208 -0.214238 -0.9801 8.06331
204 2 2.2208 -0.14993 -3.82789 10.8441
199 2 2.2208 -0.363516 4.56908 8.14518
356 2 2.2208 10.8386 -0.970471 13.627
379 2 2.2208 8.13052 21.4431 -0.32729
404 2 2.2208 5.2969 18.6614 -0.451419
398 2 2.2208 10.9353 7.37479 -0.339391
358 2 2.2208 -0.280867 10.2955 13.6198
368 2 2.2208 2.48399 18.6826 13.6906
353 2 2.2208 8.15252 -3.82446 13.6408
389 2 2.2208 8.09497 4.62484 -0.33308
351 2 2.2208 -0.233883 15.81 13.77
387 2 2.2208 10.817 1.74745 -0.398391
348 2 2.2208 5.31792 -1.07054 13.6528
394 2 2.2208 2.45572 10.2593 -0.457987
396 2 2.2208 -0.308419 13.1066 -0.452459
400 2 2.2208 10.8645 12.9815 -0.351501
403 2 2.2208 2.44096 15.9288 -0.382743
406 2 2.2208 5.28795 1.79517 16.4608
407 1 -1.1104 1.09747 -2.29981 17.8743
408 1 -1.1104 1.20616 3.23868 17.8377
411 1 -1.1104 1.14435 -2.34903 15.0012
413 1 -1.1104 1.14068 3.26369 14.9977
419 1 -1.1104 1.11538 0.488406 17.853
421 2 2.2208 5.3072 -1.06464 19.2364
422 2 2.2208 5.33455 4.61281 19.3163
423 1 -1.1104 1.1499 0.384332 15.0436
427 1 -1.1104 3.81749 -2.38955 17.9246
428 1 -1.1104 4.00989 3.11146 17.9343
429 2 2.2208 2.61723 1.79434 19.2919
430 1 -1.1104 3.83132 -2.49818 15.1151
432 1 -1.1104 3.91638 3.24304 15.0682
434 2 2.2208 2.4839 -0.940808 16.4499
435 2 2.2208 2.61477 4.6303 16.4835
436 1 -1.1104 3.9146 0.44729 17.8559
437 1 -1.1104 3.87904 0.473452 15.1055
728 2 2.2208 13.6971 7.33282 24.8319
415 1 -1.1104 6.66203 -2.50289 15.0418
441 2 2.2208 2.48674 -3.82146 19.2837
414 1 -1.1104 1.12722 3.17341 20.7374
431 1 -1.1104 3.94514 -2.39524 20.7051
420 1 -1.1104 6.70192 0.354221 17.8336
425 1 -1.1104 6.62934 0.386218 15.0153
433 1 -1.1104 3.87643 3.17866 20.7378
723 2 2.2208 -0.220917 18.6987 22.003
726 2 2.2208 13.6761 12.9013 24.8177
477 2 2.2208 13.7613 -0.998516 16.4516
410 1 -1.1104 6.7827 3.13459 17.8237
417 1 -1.1104 6.69852 3.17823 15.0568
409 1 -1.1104 6.67324 -2.52016 17.9405
449 2 2.2208 10.8686 1.81238 16.4195
450 1 -1.1104 12.3381 -2.25745 17.8336
451 1 -1.1104 12.3399 3.15097 17.7825
452 1 -1.1104 12.2555 -2.4359 14.9616
454 1 -1.1104 12.3557 3.19125 15.0788
456 1 -1.1104 12.3001 0.380338 17.8142
457 2 2.2208 11.0238 -1.02944 19.3163
458 2 2.2208 10.8782 4.5816 19.2632
459 1 -1.1104 12.3235 0.432923 15.0623
461 1 -1.1104 9.65077 -2.4458 17.8301
462 1 -1.1104 9.5188 3.18028 17.8251
463 2 2.2208 8.1237 1.71148 19.2786
464 1 -1.1104 9.46105 -2.39912 15.0326
466 1 -1.1104 9.49265 3.14499 15.0219
468 2 2.2208 8.10578 -1.00931 16.4637
469 2 2.2208 8.08946 4.56208 16.4623
470 1 -1.1104 9.4423 0.245783 17.9916
471 1 -1.1104 9.53701 0.447566 15.1477
460 1 -1.1104 12.3543 0.484997 20.6207
418 1 -1.1104 6.73178 3.20418 20.6969
472 1 -1.1104 9.56109 0.311788 20.6863
426 1 -1.1104 6.65495 0.408037 20.6286
476 2 2.2208 -0.279212 21.4584 19.2524
440 2 2.2208 5.25969 -3.84941 16.4706
516 2 2.2208 -0.278804 13.0641 16.5403
639 2 2.2208 5.35048 -3.81462 22.1002
369 2 2.2208 5.29119 21.3148 13.6021
482 2 2.2208 5.33694 7.42685 16.3867
483 2 2.2208 5.41328 12.9516 16.4861
484 1 -1.1104 1.10733 8.73618 17.7955
486 1 -1.1104 1.02993 8.80262 15.0163
490 1 -1.1104 1.18731 5.98702 17.977
491 1 -1.1104 1.10162 11.7189 17.9814
494 2 2.2208 5.38514 10.1576 19.3063
495 1 -1.1104 1.19565 6.09056 15.1676
497 1 -1.1104 1.18683 11.5868 15.1967
503 1 -1.1104 4.03324 8.81749 17.9792
504 2 2.2208 2.46204 7.42773 19.2408
505 2 2.2208 2.57266 13.0288 19.313
506 1 -1.1104 3.91433 8.96788 15.0944
508 2 2.2208 2.55552 10.2904 16.539
509 1 -1.1104 3.95802 6.04296 17.8225
510 1 -1.1104 3.97816 11.6753 17.903
511 1 -1.1104 3.87703 6.07802 15.0714
513 1 -1.1104 4.0538 11.6982 15.0665
701 1 -1.1104 9.50953 17.2881 23.3809
670 1 -1.1104 6.76108 20.1005 26.2674
507 1 -1.1104 3.87374 8.82561 20.7294
498 1 -1.1104 1.10891 11.6181 20.6646
487 1 -1.1104 1.11173 8.8761 20.6833
514 1 -1.1104 3.94201 11.6074 20.6951
481 2 2.2208 -0.237076 7.37083 16.4812
493 1 -1.1104 6.79129 11.5646 17.9687
488 1 -1.1104 6.67763 8.77421 15.1287
501 1 -1.1104 6.95501 11.6043 15.1004
499 1 -1.1104 6.7159 5.94634 15.08
492 1 -1.1104 6.69557 5.94677 17.8709
485 1 -1.1104 6.81846 8.76477 17.8021
518 2 2.2208 10.8303 7.28788 16.4933
519 2 2.2208 10.9693 12.962 16.4642
520 1 -1.1104 12.2136 8.83767 17.8506
521 1 -1.1104 12.3141 8.74486 15.0984
523 1 -1.1104 12.2597 5.89771 17.8267
524 1 -1.1104 12.3971 11.5525 17.8991
525 2 2.2208 10.7644 10.221 19.2278
526 1 -1.1104 12.239 6.08569 15.0458
528 1 -1.1104 12.3317 11.5973 15.1601
530 1 -1.1104 9.50571 8.72309 17.864
531 2 2.2208 8.09721 7.36419 19.2965
532 2 2.2208 8.14363 12.9808 19.3682
533 1 -1.1104 9.49971 8.76813 15.0506
535 2 2.2208 8.15548 10.1938 16.4943
536 1 -1.1104 9.48214 5.98784 17.893
537 1 -1.1104 9.52064 11.5825 17.8954
538 1 -1.1104 9.42732 5.89973 15.0116
540 1 -1.1104 9.57881 11.7009 15.1363
500 1 -1.1104 6.77039 5.99557 20.6838
529 1 -1.1104 12.3092 11.5586 20.6437
489 1 -1.1104 6.67719 8.68778 20.6567
703 2 2.2208 -0.235801 13.0392 22.0484
545 2 2.2208 5.42063 18.5894 16.494
546 1 -1.1104 1.08446 14.4756 17.9494
547 1 -1.1104 1.21387 20.1365 17.8574
550 1 -1.1104 1.07099 14.3485 15.2347
552 1 -1.1104 1.0799 19.9841 15.0344
558 1 -1.1104 1.13008 17.3418 18.0599
560 2 2.2208 5.36816 15.7538 19.2628
561 2 2.2208 5.40093 21.4252 19.2807
562 1 -1.1104 1.10156 17.1162 15.2292
566 1 -1.1104 3.95747 14.3828 17.8843
567 1 -1.1104 4.05294 19.9877 17.9103
568 2 2.2208 2.57261 18.6439 19.3387
569 1 -1.1104 3.93383 14.3581 15.1433
571 1 -1.1104 3.97867 19.8622 15.0692
573 2 2.2208 2.52938 15.7883 16.6231
574 2 2.2208 2.52875 21.473 16.5226
575 1 -1.1104 3.90346 17.1223 17.9779
576 1 -1.1104 3.90939 17.2071 15.1127
378 2 2.2208 10.9742 18.6509 27.5825
556 1 -1.1104 6.71632 20.0199 15.1222
448 2 2.2208 -0.214414 15.8002 19.3853
553 1 -1.1104 1.19518 19.9902 20.7073
642 2 2.2208 -0.280333 -0.971108 24.9121
725 2 2.2208 -0.247323 15.8548 24.7507
585 1 -1.1104 12.3022 14.2995 20.5792
564 1 -1.1104 6.80529 17.1657 15.0449
549 1 -1.1104 6.82478 19.8994 17.879
548 1 -1.1104 6.79035 14.3661 17.9789
555 1 -1.1104 6.68685 14.363 20.6807
559 1 -1.1104 6.74748 17.2047 17.869
554 1 -1.1104 6.73417 14.3269 15.0931
581 2 2.2208 10.9491 18.5935 16.4874
582 1 -1.1104 12.3503 14.3345 17.7538
583 1 -1.1104 12.3416 19.9694 17.8969
584 1 -1.1104 12.348 14.3518 15.1613
586 1 -1.1104 12.3441 20.0474 15.1094
588 1 -1.1104 12.3849 17.2014 17.8609
589 2 2.2208 10.9571 15.8251 19.2914
590 2 2.2208 10.9345 21.4506 19.2804
591 1 -1.1104 12.45 17.2578 15.2186
593 1 -1.1104 9.55237 14.3656 17.9334
594 1 -1.1104 9.57792 20.0475 17.9018
595 2 2.2208 8.1738 18.6181 19.2817
596 1 -1.1104 9.54791 14.5044 15.0749
598 1 -1.1104 9.4999 19.9679 15.0733
600 2 2.2208 8.16952 15.7976 16.5521
601 2 2.2208 8.1292 21.4666 16.5086
602 1 -1.1104 9.50318 17.1436 17.8107
603 1 -1.1104 9.68184 17.2104 15.0851
587 1 -1.1104 12.3302 19.8914 20.6789
557 1 -1.1104 6.75179 19.9921 20.7097
599 1 -1.1104 9.54046 19.9875 20.5939
377 2 2.2208 8.09108 15.923 27.6483
412 1 -1.1104 1.09765 -2.31661 20.622
416 1 -1.1104 6.80094 -2.35239 20.5611
608 1 -1.1104 12.2947 14.3187 23.4052
438 1 -1.1104 3.91292 0.357859 20.7097
447 2 2.2208 -0.226341 18.6041 16.4808
424 1 -1.1104 1.0751 0.382443 20.6829
671 2 2.2208 13.7988 -1.03414 22.042
609 2 2.2208 5.27883 1.74737 22.0821
610 1 -1.1104 1.27299 -2.43447 23.4992
611 1 -1.1104 1.05966 3.08068 23.485
614 1 -1.1104 1.12409 -2.38485 26.3449
615 1 -1.1104 1.04375 3.23945 26.2996
618 1 -1.1104 1.07749 0.266924 23.4779
620 2 2.2208 5.36241 -1.03639 24.8228
621 2 2.2208 5.25515 4.68481 24.9403
622 1 -1.1104 1.05261 0.428475 26.3224
624 1 -1.1104 3.96356 -2.45267 23.4433
625 1 -1.1104 3.85917 3.14176 23.4855
626 2 2.2208 2.53631 1.83867 24.8921
627 1 -1.1104 3.87994 -2.35741 26.1997
628 1 -1.1104 3.95634 3.19545 26.264
629 2 2.2208 2.56767 -1.00636 22.0363
630 2 2.2208 2.50964 4.56424 22.089
631 1 -1.1104 4.01519 0.410741 23.6013
632 1 -1.1104 3.9134 0.369841 26.316
386 2 2.2208 -0.392866 1.77166 27.6965
383 2 2.2208 2.41251 4.61103 27.6992
439 2 2.2208 -0.235835 -3.79946 16.4743
613 1 -1.1104 6.6388 3.28464 23.5393
617 1 -1.1104 6.74589 3.21889 26.2462
623 1 -1.1104 6.76564 0.362346 26.23
672 2 2.2208 13.7221 1.72688 24.7788
578 2 2.2208 13.7394 1.83341 19.1696
453 1 -1.1104 12.5623 -2.44272 20.6643
467 1 -1.1104 9.50185 3.15692 20.5504
455 1 -1.1104 12.3033 3.25706 20.5321
619 1 -1.1104 6.72711 0.438393 23.4793
465 1 -1.1104 9.65588 -2.44059 20.6181
616 1 -1.1104 6.63577 -2.41781 26.2415
612 1 -1.1104 6.72 -2.36299 23.4203
645 2 2.2208 10.9808 1.81674 22.0052
646 1 -1.1104 12.3055 -2.43145 23.4039
647 1 -1.1104 12.323 3.17153 23.3546
648 1 -1.1104 12.3122 -2.30559 26.2569
649 1 -1.1104 12.2905 3.09789 26.2151
650 1 -1.1104 12.5209 0.351898 23.3727
651 2 2.2208 10.9076 -1.0323 24.8361
652 2 2.2208 10.961 4.57333 24.859
653 1 -1.1104 12.2335 0.378602 26.2651
654 1 -1.1104 9.51151 -2.43146 23.382
655 1 -1.1104 9.52057 3.15324 23.4467
656 2 2.2208 8.09888 1.78124 24.866
657 1 -1.1104 9.49907 -2.40937 26.1896
658 1 -1.1104 9.44076 3.13431 26.1861
659 2 2.2208 8.03968 -0.978444 22.0828
660 2 2.2208 8.13719 4.60827 22.1684
661 1 -1.1104 9.57061 0.413526 23.4678
662 1 -1.1104 9.51007 0.381222 26.2471
597 1 -1.1104 9.61687 14.4317 20.6958
393 2 2.2208 5.28596 7.4564 27.6549
565 1 -1.1104 6.60067 17.1077 20.6585
388 2 2.2208 8.09095 -0.951629 27.6809
512 1 -1.1104 3.97787 6.04313 20.7004
736 1 -1.1104 6.73733 20.0355 23.4856
635 1 -1.1104 12.3485 20.0536 26.2617
702 2 2.2208 -0.223367 10.2063 24.8284
496 1 -1.1104 1.05894 6.05495 20.7181
638 2 2.2208 10.9175 15.7884 24.8331
674 2 2.2208 5.37967 7.37989 22.0653
675 2 2.2208 5.31097 13.0281 22.0833
676 1 -1.1104 1.12828 8.75716 23.4685
678 1 -1.1104 1.21721 8.79388 26.194
680 1 -1.1104 1.19966 5.96087 23.4286
681 1 -1.1104 1.21881 11.542 23.5457
684 2 2.2208 5.38203 10.2496 24.9385
685 1 -1.1104 1.0438 6.03882 26.1973
686 1 -1.1104 1.1181 11.7053 26.212
689 1 -1.1104 4.00527 8.86241 23.5301
690 2 2.2208 2.60578 7.42229 24.8253
691 2 2.2208 2.4633 13.0664 24.9084
692 1 -1.1104 4.00055 8.74242 26.2578
693 2 2.2208 2.56976 10.1537 22.1382
694 1 -1.1104 3.9808 5.88996 23.4901
695 1 -1.1104 3.9941 11.6543 23.4776
696 1 -1.1104 3.87914 6.00485 26.3339
697 1 -1.1104 3.93676 11.596 26.2513
395 2 2.2208 5.22531 13.0873 27.7308
641 2 2.2208 11.0814 21.4544 24.9081
534 1 -1.1104 9.49227 8.86626 20.6213
527 1 -1.1104 12.3214 5.96753 20.5846
539 1 -1.1104 9.5131 6.06179 20.7673
541 1 -1.1104 9.48356 11.569 20.7468
673 1 -1.1104 9.50748 14.3946 26.1596
687 1 -1.1104 6.67439 5.98258 26.2757
502 1 -1.1104 6.69638 11.5904 20.7009
522 1 -1.1104 12.2281 8.84223 20.6514
677 1 -1.1104 6.6571 8.75887 23.5525
688 1 -1.1104 6.69632 11.693 26.2958
683 1 -1.1104 6.76176 11.6404 23.5555
679 1 -1.1104 6.74665 8.88821 26.368
682 1 -1.1104 6.69856 6.04974 23.5955
705 1 -1.1104 9.43764 11.5552 26.2617
706 1 -1.1104 9.48632 6.00045 26.2503
707 1 -1.1104 9.54435 11.6226 23.4701
708 1 -1.1104 9.55514 5.96547 23.4479
709 2 2.2208 8.12462 10.1741 22.0847
710 1 -1.1104 9.54385 8.72561 26.3112
711 2 2.2208 8.17245 13.0663 24.9361
712 2 2.2208 8.07598 7.39502 24.9282
713 2 2.2208 10.8873 7.38912 22.016
714 2 2.2208 10.9229 13.0348 22.0786
715 1 -1.1104 12.1949 8.76847 23.4548
716 1 -1.1104 12.3799 8.70814 26.2095
717 1 -1.1104 12.3024 5.99951 23.4052
718 1 -1.1104 12.331 11.544 23.5533
719 2 2.2208 10.8632 10.1005 24.827
720 1 -1.1104 12.356 5.97802 26.227
721 1 -1.1104 12.2172 11.5201 26.1979
722 1 -1.1104 9.47247 8.72547 23.4917
399 2 2.2208 8.17472 10.186 27.6895
401 2 2.2208 -0.238101 18.6359 27.6617
572 1 -1.1104 4.03467 19.9905 20.7248
577 1 -1.1104 3.88193 17.1955 20.8188
570 1 -1.1104 3.9692 14.3978 20.667
732 1 -1.1104 6.74429 17.2395 26.26
443 2 2.2208 -0.319501 -0.945176 19.2576
724 2 2.2208 -0.310765 21.4879 24.7429
563 1 -1.1104 1.09216 17.1142 20.7874
551 1 -1.1104 1.24056 14.3968 20.6726
748 1 -1.1104 1.10858 17.2973 23.5485
746 1 -1.1104 3.85045 14.4731 26.1632
745 1 -1.1104 3.89096 17.2817 26.2125
744 2 2.2208 2.493 18.656 24.8559
750 2 2.2208 2.5222 21.4724 22.0394
749 1 -1.1104 3.87186 17.3289 23.3702
727 2 2.2208 2.52869 15.8557 22.0667
729 1 -1.1104 3.96769 20.0636 23.4202
731 1 -1.1104 3.86992 14.5142 23.4297
733 1 -1.1104 1.12042 19.9716 26.1677
734 1 -1.1104 1.1083 17.1281 26.223
735 1 -1.1104 1.11022 14.4209 26.1982
737 2 2.2208 5.24705 21.4999 24.7412
738 2 2.2208 5.32431 15.7794 24.7899
740 1 -1.1104 1.1106 20.1116 23.4376
741 1 -1.1104 1.10154 14.4778 23.4082
742 2 2.2208 5.29278 18.6241 22.0976
743 1 -1.1104 3.85815 20.0811 26.212
636 1 -1.1104 12.2569 17.2202 23.4843
700 2 2.2208 8.20871 21.4004 22.1078
699 2 2.2208 8.02894 15.847 22.077
747 1 -1.1104 6.70155 17.1045 23.505
704 1 -1.1104 9.53431 17.2066 26.2222
607 2 2.2208 10.8929 18.5424 22.0343
592 1 -1.1104 12.3435 17.1025 20.6254
739 1 -1.1104 6.68213 14.3658 23.4619
667 2 2.2208 8.11536 18.5943 24.7939
663 1 -1.1104 12.2696 17.2793 26.2898
730 1 -1.1104 6.63749 14.5244 26.2861
604 1 -1.1104 9.45961 17.1585 20.5808
634 1 -1.1104 12.3195 14.3383 26.1293
698 1 -1.1104 9.54718 20.0666 26.1811
633 1 -1.1104 12.3794 20.0703 23.4795
664 1 -1.1104 9.51591 14.4535 23.4096
665 1 -1.1104 9.52346 20.0516 23.4176
405 2 2.2208 2.55258 21.4092 27.5822
376 2 2.2208 8.16363 18.616 13.7877
382 2 2.2208 2.52081 -0.943293 27.6658
381 2 2.2208 5.26067 1.8197 27.6384
352 2 2.2208 5.29801 4.6205 13.5919
365 2 2.2208 8.19994 13.0696 13.6752
350 2 2.2208 -0.217075 21.4287 13.603
357 2 2.2208 10.9404 4.64947 13.6585
375 2 2.2208 13.7953 21.44 27.6803
751 2 2.2208 5.32776 24.1371 5.28713
752 2 2.2208 5.35497 29.7916 5.2919
753 1 -1.1104 1.15611 25.6374 0.992645
754 1 -1.1104 1.2359 25.5849 3.81788
755 1 -1.1104 1.14073 22.8089 1.02855
756 1 -1.1104 1.01099 28.4305 1.05987
757 2 2.2208 5.32874 27.0245 2.48753
758 1 -1.1104 1.24551 22.7438 3.84289
759 1 -1.1104 1.07409 28.3403 4.02959
760 1 -1.1104 3.97906 25.6312 1.14293
761 2 2.2208 2.57857 24.2174 2.43902
762 2 2.2208 2.53647 29.7115 2.40001
763 1 -1.1104 4.07594 25.5642 3.89298
764 2 2.2208 2.51818 26.984 5.28647
765 1 -1.1104 3.9265 22.7843 1.03799
766 1 -1.1104 3.88674 28.3505 1.0241
767 1 -1.1104 3.88811 22.7641 3.94229
768 1 -1.1104 3.96652 28.3047 3.79078
770 2 2.2208 -0.245197 24.222 5.23681
769 2 2.2208 -0.295009 29.8654 5.27408
894 1 -1.1104 1.09351 22.8537 6.66678
892 1 -1.1104 1.13556 25.6427 6.56974
899 1 -1.1104 3.90776 22.7751 6.66024
771 2 2.2208 -0.220319 26.9775 2.42562
895 1 -1.1104 1.08747 28.4341 6.77505
900 1 -1.1104 3.98813 28.4507 6.66054
1517 1 -1.1104 12.4136 48.0189 3.70355
775 1 -1.1104 6.73448 28.3895 1.01529
773 1 -1.1104 6.81052 25.6378 3.88143
776 1 -1.1104 6.77011 22.6172 3.77973
777 1 -1.1104 6.7603 28.385 3.84453
772 1 -1.1104 6.79773 25.5659 1.0453
774 1 -1.1104 6.68215 22.819 1.23313
778 2 2.2208 10.8651 24.1909 5.2759
779 2 2.2208 10.8885 29.7639 5.16354
780 1 -1.1104 12.4196 25.6148 1.11954
781 1 -1.1104 12.3265 25.548 3.90431
782 1 -1.1104 12.4767 22.8217 1.06661
783 1 -1.1104 12.3375 28.3667 0.990011
784 2 2.2208 10.9723 27.0363 2.41779
785 1 -1.1104 12.3391 22.8692 3.84669
786 1 -1.1104 12.3002 28.2721 3.84441
787 1 -1.1104 9.60419 25.6013 1.11654
788 2 2.2208 8.10195 24.2196 2.47326
789 2 2.2208 8.05933 29.7716 2.37111
790 1 -1.1104 9.62671 25.5986 3.85051
791 2 2.2208 8.08045 26.9576 5.23518
792 1 -1.1104 9.69126 22.8121 1.16692
793 1 -1.1104 9.51491 28.4381 1.05336
794 1 -1.1104 9.57301 22.7557 3.86071
795 1 -1.1104 9.52596 28.3367 3.88113
927 1 -1.1104 12.2622 28.324 6.68238
929 1 -1.1104 9.4607 22.702 6.56024
925 1 -1.1104 12.2602 25.4945 6.73743
930 1 -1.1104 9.45488 28.4257 6.63534
926 1 -1.1104 12.3256 22.7982 6.68329
893 1 -1.1104 6.62986 25.5834 6.67727
896 1 -1.1104 6.76878 22.7432 6.64965
1091 2 2.2208 5.35141 38.2122 13.572
1137 1 -1.1104 12.4117 47.9134 6.59562
799 2 2.2208 5.39572 35.3589 5.28834
800 1 -1.1104 1.16216 31.2378 0.997774
801 1 -1.1104 1.1305 36.8313 1.12941
803 1 -1.1104 1.07706 31.213 3.81996
804 1 -1.1104 1.23544 36.7251 3.83709
806 1 -1.1104 1.02924 33.9297 1.03404
807 2 2.2208 5.23004 32.6094 2.42555
808 2 2.2208 5.35981 38.0735 2.42511
809 1 -1.1104 1.12792 33.957 3.82968
811 1 -1.1104 3.87566 31.0681 0.986613
812 1 -1.1104 3.83717 36.7898 0.954994
813 2 2.2208 2.56435 35.3954 2.46306
814 1 -1.1104 3.83759 31.1088 3.77253
815 1 -1.1104 4.04402 36.7279 3.8329
816 2 2.2208 2.54629 32.5235 5.2098
817 2 2.2208 2.58254 38.1253 5.2044
818 1 -1.1104 3.90225 33.9544 1.07265
819 1 -1.1104 3.92854 33.9647 3.90312
953 1 -1.1104 1.17311 33.9665 6.71689
821 2 2.2208 -0.161189 38.1962 2.44386
950 1 -1.1104 1.24119 36.6887 6.66478
822 2 2.2208 -0.304155 32.6067 2.39307
820 2 2.2208 -0.0959745 35.3368 5.19287
956 1 -1.1104 3.95318 36.7126 6.62055
957 1 -1.1104 3.95509 33.9063 6.693
805 1 -1.1104 6.85221 36.7578 3.74881
825 1 -1.1104 6.63453 34.0059 0.98532
824 1 -1.1104 6.62261 31.143 3.78119
952 1 -1.1104 6.72595 36.7478 6.57547
823 1 -1.1104 6.67826 31.2627 0.898128
802 1 -1.1104 6.72132 36.7858 1.02416
810 1 -1.1104 6.79665 33.9699 3.81261
826 2 2.2208 10.9545 35.373 5.20943
827 1 -1.1104 12.3303 31.1711 1.02035
828 1 -1.1104 12.3048 36.7603 0.952645
829 1 -1.1104 12.2402 31.1078 3.90472
830 1 -1.1104 12.3889 36.7622 3.82145
831 1 -1.1104 12.2931 33.9184 1.0329
832 2 2.2208 10.9058 32.539 2.39279
833 2 2.2208 10.9392 38.1527 2.46133
834 1 -1.1104 12.2987 33.9226 3.76473