LAMMPS (29 Oct 2020)
OMP_NUM_THREADS environment is not set. Defaulting to 1 thread. (../comm.cpp:94)
  using 1 OpenMP thread(s) per MPI task
OMP_NUM_THREADS environment is not set. Defaulting to 1 thread. (../comm.cpp:94)
  using 1 OpenMP thread(s) per MPI task
Reading data file ...
  orthogonal box = (-0.4452594 -5.3575306 -0.42886177) to (27.785259 333.43753 27.768862)
  2 by 13 by 2 MPI processor grid
  reading atoms ...
  17820 atoms
  reading velocities ...
  17820 velocities
Finding 1-2 1-3 1-4 neighbors ...
  special bond factors lj:    0.0      0.0      0.0     
  special bond factors coul:  0.0      0.0      0.0     
     0 = max # of 1-2 neighbors
     0 = max # of 1-3 neighbors
     0 = max # of 1-4 neighbors
     1 = max # of special neighbors
  special bonds CPU = 0.003 seconds
  read_data CPU = 0.060 seconds
Setting atom values ...
  11880 settings made for charge
Setting atom values ...
  5940 settings made for charge
PPPM initialization ...
  using 12-bit tables for long-range coulomb (../kspace.cpp:328)
  G vector (1/distance) = 0.29850375
  grid = 40 240 40
  stencil order = 5
  estimated absolute RMS force accuracy = 0.00015960538
  estimated relative force accuracy = 1.108398e-05
  using single precision MKL FFT
  3d grid and FFT values/proc = 15000 7600
Neighbor list info ...
  update every 1 steps, delay 0 steps, check yes
  max neighbors/atom: 2000, page size: 100000
  master list distance cutoff = 11.3
  ghost atom cutoff = 11.3
  binsize = 5.65, bins = 5 60 5
  2 neighbor lists, perpetual/occasional/extra = 2 0 0
  (1) pair coul/long, perpetual
      attributes: half, newton on
      pair build: half/bin/newton
      stencil: half/bin/3d/newton
      bin: standard
  (2) pair eam/alloy, perpetual, copy from (1)
      attributes: half, newton on
      pair build: copy
      stencil: none
      bin: none
Setting up Verlet run ...
  Unit style    : metal
  Current step  : 0
  Time step     : 0.001
Per MPI rank memory allocation (min/avg/max) = 8.148 | 8.172 | 8.185 Mbytes
Step Temp E_pair E_mol TotEng Press 
       0         1200   -231483.78            0   -228719.84   -451.15561 
   50000    1201.4573   -231495.94            0   -228728.64     -871.067 
Loop time of 329.151 on 52 procs for 50000 steps with 17820 atoms

Performance: 13.125 ns/day, 1.829 hours/ns, 151.906 timesteps/s
99.8% CPU use with 52 MPI tasks x 1 OpenMP threads

MPI task timing breakdown:
Section |  min time  |  avg time  |  max time  |%varavg| %total
---------------------------------------------------------------
Pair    | 213.99     | 224.09     | 229.67     |  22.9 | 68.08
Bond    | 0.0032828  | 0.0047885  | 0.0071981  |   1.3 |  0.00
Kspace  | 65.067     | 71.654     | 82.878     |  50.3 | 21.77
Neigh   | 20.985     | 23.237     | 24.945     |  22.8 |  7.06
Comm    | 7.4069     | 7.8915     | 8.9646     |  14.6 |  2.40
Output  | 5.2166e-05 | 5.7528e-05 | 0.00026372 |   0.0 |  0.00
Modify  | 0.94466    | 1.6146     | 2.5671     |  42.5 |  0.49
Other   |            | 0.6625     |            |       |  0.20

Nlocal:        342.692 ave         363 max         320 min
Histogram: 10 2 0 2 6 7 10 5 4 6
Nghost:        4004.56 ave        4146 max        3905 min
Histogram: 5 7 4 11 13 4 0 0 2 6
Neighs:        68521.2 ave       73534 max       60214 min
Histogram: 4 2 1 5 0 2 14 14 3 7

Total # of neighbors = 3563100
Ave neighs/atom = 199.94949
Ave special neighs/atom = 0.0000000
Neighbor list builds = 10985
Dangerous builds = 0
11880 atoms in group oxygen
PPPM initialization ...
  using 12-bit tables for long-range coulomb (../kspace.cpp:328)
  G vector (1/distance) = 0.29850375
  grid = 40 240 40
  stencil order = 5
  estimated absolute RMS force accuracy = 0.00015960538
  estimated relative force accuracy = 1.108398e-05
  using single precision MKL FFT
  3d grid and FFT values/proc = 15000 7600
Setting up Verlet run ...
  Unit style    : metal
  Current step  : 0
  Time step     : 0.001
Per MPI rank memory allocation (min/avg/max) = 8.399 | 8.423 | 8.436 Mbytes
Step f_2 Temp v_Tdiff v_deltaT 
       0            0    1201.4573            0            0 
  100000    1313.1025    1188.5369  0.047817798     555.1602 
  200000    2574.7907    1199.7611  0.055973091    649.84239 
  300000    3834.8393    1193.1926  0.054505061     632.7987 
  400000    5104.9709    1200.5843  0.054032588    627.31333 
  500000    6371.9788    1200.2847   0.05595116    649.58777 
  600000    7630.9978    1205.8221  0.055471962    644.02433 
  700000    8898.1814    1198.2734  0.052973432    615.01662 
  800000    10151.822    1196.9823  0.055193658    640.79324 
  900000    11424.943    1198.7085  0.056152068    651.92029 
 1000000    12694.296    1212.1566   0.05472415     635.3423 
Loop time of 6551.35 on 52 procs for 1000000 steps with 17820 atoms

Performance: 13.188 ns/day, 1.820 hours/ns, 152.640 timesteps/s
99.8% CPU use with 52 MPI tasks x 1 OpenMP threads

MPI task timing breakdown:
Section |  min time  |  avg time  |  max time  |%varavg| %total
---------------------------------------------------------------
Pair    | 4243.5     | 4417.1     | 4555.8     |  93.8 | 67.42
Bond    | 0.066359   | 0.098697   | 0.14746    |   5.4 |  0.00
Kspace  | 1273.7     | 1436.7     | 1636.4     | 198.2 | 21.93
Neigh   | 448.6      | 498.6      | 535.62     |  98.2 |  7.61
Comm    | 150.65     | 160.44     | 188.23     |  72.6 |  2.45
Output  | 0.0010483  | 0.0011091  | 0.0022867  |   0.5 |  0.00
Modify  | 5.3585     | 5.8002     | 6.2424     |  10.0 |  0.09
Other   |            | 32.6       |            |       |  0.50

Nlocal:        342.692 ave         365 max         318 min
Histogram: 1 4 3 5 16 6 5 1 5 6
Nghost:        4009.44 ave        4137 max        3919 min
Histogram: 8 11 6 6 1 1 6 3 6 4
Neighs:        68511.3 ave       74119 max       60629 min
Histogram: 2 3 1 3 6 12 10 4 6 5

Total # of neighbors = 3562588
Ave neighs/atom = 199.92076
Ave special neighs/atom = 0.0000000
Neighbor list builds = 235475
Dangerous builds = 0
Total wall time: 1:54:40
