ITEM: TIMESTEP
450000
ITEM: NUMBER OF ATOMS
18000
ITEM: BOX BOUNDS xy xz yz pp pp pp
-2.5146831866770192e-01 2.8145468318668602e+01 0.0000000000000000e+00
-2.8110049671177788e+00 3.3753900496713550e+02 0.0000000000000000e+00
-2.2671285646409894e-01 2.8120712856463992e+01 0.0000000000000000e+00
ITEM: ATOMS id type x y z
1 1 1.38715 -1.19023 1.21166
2 1 4.18906 -1.48374 1.44911
3 1 4.29664 -1.36821 4.17722
4 1 1.55362 -1.25976 3.984
5 1 1.26535 1.57932 1.18553
6 1 4.13969 1.32986 1.22674
7 1 4.18638 1.90822 4.21639
8 1 1.15953 1.28595 4.0539
9 1 7.03131 -1.81299 1.4843
10 1 9.93077 -1.40693 1.05964
11 1 9.84686 -1.40553 4.14757
12 1 7.14333 -1.5472 4.22546
13 1 7.20203 1.14572 1.47253
14 1 9.86048 1.63812 1.31115
15 1 10.1424 1.54851 4.03005
16 1 7.14797 1.46351 4.06839
17 1 12.5804 -1.35537 1.28472
18 1 12.8982 -1.27251 4.08182
19 1 13.0172 1.37156 1.45623
20 1 12.8139 1.4333 4.17221
21 1 1.10641 4.05367 1.43189
22 1 4.26286 4.31406 1.27299
23 1 4.43693 4.64729 4.44613
24 1 1.48378 4.24675 4.09069
25 1 1.43396 6.86775 1.5854
26 1 3.99632 7.14043 1.16218
27 1 4.43065 7.25738 3.97377
28 1 1.75954 6.91289 4.30191
29 1 6.88574 4.06098 1.41201
30 1 9.84935 4.26689 1.37978
31 1 9.91099 4.34463 4.36588
32 1 7.24769 4.33292 4.23527
33 1 7.08588 6.81411 1.51541
34 1 9.83147 7.05983 1.22591
35 1 10.0837 7.1999 4.14775
36 1 7.3785 7.22344 4.13163
37 1 12.6244 4.35259 1.42336
12101 2 0.0416754 -2.73696 11.0476
39 1 12.7211 7.09789 1.45058
12012 2 2.83101 5.3967 -0.166923
41 1 1.31596 9.82403 1.56367
42 1 4.16103 9.74651 1.30589
43 1 4.34898 10.0127 4.03567
44 1 1.58381 9.90598 4.44746
45 1 1.30996 12.9243 1.33066
46 1 4.11959 12.5907 1.37718
47 1 4.15915 12.9574 4.33184
48 1 1.40146 12.7731 4.25549
49 1 7.03427 10.0229 1.03401
50 1 10.0664 9.97796 1.50478
51 1 9.94717 10.168 4.27022
52 1 7.34557 9.92315 3.73575
53 1 6.84191 12.9167 1.187
54 1 9.87806 12.9026 1.2855
55 1 9.67427 12.9587 4.17667
56 1 7.0664 12.7539 3.9859
57 1 12.953 10.0295 1.15411
58 1 12.7432 9.99458 3.95516
59 1 12.739 12.9319 1.38423
60 1 12.367 12.988 4.16443
61 1 1.092 15.5432 1.28508
62 1 4.08911 15.4685 1.13101
63 1 4.19638 15.7132 4.02387
64 1 1.21695 15.7098 4.0112
65 1 1.41015 18.6487 1.15467
66 1 4.27972 18.1511 1.28763
67 1 4.26737 18.57 4.04872
68 1 1.32399 18.3791 3.92353
69 1 7.11504 15.619 1.12202
70 1 9.90965 15.703 1.38486
71 1 9.88659 15.6782 4.05689
72 1 7.03005 15.4987 4.05716
73 1 6.96425 18.3876 1.45387
74 1 9.77562 18.3745 1.17195
75 1 9.72514 18.5193 4.05608
76 1 6.85967 18.4691 4.31181
77 1 12.7107 15.7177 3.92663
78 1 12.4588 18.757 4.00212
79 1 12.6876 18.4469 1.13538
12142 2 -0.195676 17.0744 13.8177
81 1 1.1873 21.4997 1.33234
82 1 4.25461 21.2107 1.17675
83 1 3.97089 21.4076 3.92179
84 1 1.22447 21.0969 3.99873
85 1 7.22893 21.2792 1.19148
86 1 9.86923 21.1803 1.03218
87 1 9.69844 21.4328 4.04787
88 1 6.95246 21.5535 4.25468
89 1 12.6572 21.1186 1.28402
90 1 12.2973 21.3766 4.42086
91 1 1.31907 -1.49995 6.78931
92 1 4.08179 -1.59553 6.93981
93 1 4.40358 -1.40011 9.64853
94 1 1.57949 -1.40871 9.70532
95 1 1.53093 1.2936 6.76859
96 1 4.32006 1.26076 6.90809
97 1 4.28377 1.23273 9.7185
98 1 1.5287 1.44251 9.59588
99 1 6.69304 -1.44486 7.07045
100 1 9.62474 -1.22197 7.13907
101 1 10.0052 -1.26821 9.92173
102 1 7.27026 -1.13505 9.56994
103 1 7.0866 1.55913 6.77981
104 1 10.0129 1.43112 6.97363
105 1 9.9376 1.3385 9.9968
106 1 7.00166 1.74644 9.73735
107 1 12.6668 -1.26972 6.80455
108 1 12.61 -1.40213 9.45066
109 1 12.6366 1.27591 7.06397
110 1 12.8596 1.39901 9.77537
111 1 1.36997 4.07983 6.76892
112 1 4.31449 4.26797 7.1866
113 1 4.00275 4.00867 10.0967
114 1 1.4517 4.29792 9.69507
115 1 1.6673 6.98585 7.07286
116 1 4.17862 7.29088 6.98607
117 1 4.12391 7.15388 9.83746
118 1 1.40766 7.17943 9.89711
119 1 7.25856 4.49084 7.37168
120 1 10.2045 4.18448 6.97467
121 1 9.86234 4.40085 9.51806
122 1 6.82241 4.7257 10.1383
123 1 7.22187 7.23842 6.76669
124 1 10.1332 7.18781 7.19735
125 1 9.92196 7.11631 9.77656
126 1 6.91718 7.54475 9.44725
127 1 13.1959 4.26404 7.04051
128 1 12.6875 4.15785 9.70329
129 1 12.8405 7.15357 6.90046
130 1 12.6409 7.40107 9.59991
131 1 1.22404 9.95582 7.18278
132 1 4.244 9.92404 6.77227
133 1 4.29592 10.1544 9.62959
134 1 1.55986 9.96272 10.1051
135 1 1.1079 13.0354 6.89982
136 1 4.42225 12.807 7.12502
137 1 4.42961 12.797 9.76803
138 1 1.41511 12.6327 9.94288
139 1 7.15432 10.1314 7.07589
140 1 9.87202 10.1004 6.73643
141 1 10.0008 9.86074 9.86824
142 1 7.3969 10.1187 9.7463
143 1 7.03905 13.0261 6.96327
144 1 10.0067 13.1703 7.0264
145 1 9.69803 12.7092 9.73086
146 1 7.0053 13.1531 9.79077
147 1 12.7855 9.93276 7.01964
148 1 12.5985 9.92339 9.94553
149 1 12.5444 12.7945 6.8877
150 1 12.4907 12.676 9.7187
151 1 1.25238 16.09 6.64182
152 1 3.95711 15.8524 6.79617
153 1 3.94936 15.6392 9.72578
154 1 1.48675 15.3609 9.66987
155 1 1.31186 18.9313 6.87124
156 1 4.2623 18.6505 6.75719
157 1 4.15481 18.3146 9.57112
158 1 1.22565 18.4565 9.717
159 1 6.91008 15.8636 6.97982
160 1 9.81125 15.9228 6.87266
161 1 9.63389 15.7398 9.75334
162 1 6.87334 15.8098 9.85485
163 1 7.11254 18.7318 6.91118
164 1 9.78048 18.5987 6.89388
165 1 10.0725 18.8365 9.67016
166 1 7.37686 18.5578 9.46711
167 1 12.8168 15.6254 6.83993
168 1 12.6026 15.6986 9.67297
169 1 12.6737 18.5092 6.96709
170 1 12.773 18.3886 9.91438
171 1 1.09319 21.955 6.47819
172 1 4.06428 21.2032 7.03323
173 1 3.93134 21.3973 9.6216
174 1 1.04577 21.322 9.2331
175 1 6.96963 21.407 7.08624
176 1 9.70091 21.461 6.84038
177 1 9.72285 21.4947 9.64979
178 1 6.64568 21.2623 9.83837
179 1 12.8378 21.2368 7.00652
180 1 12.7286 21.236 9.64264
181 1 1.66463 -1.22912 12.6851
182 1 4.34846 -1.48872 12.3267
183 1 1.39586 1.50235 12.3602
184 1 4.31595 1.56524 12.5364
185 1 7.22924 -1.43933 12.4313
186 1 9.90172 -1.60981 12.7182
187 1 7.21046 1.46313 12.4203
188 1 10.0863 1.28396 12.6611
189 1 12.766 -1.62647 12.3496
190 1 12.7974 1.29151 12.4373
191 1 1.29642 4.48902 12.4996
192 1 4.08233 4.38932 12.7504
193 1 1.64867 7.28674 12.5203
194 1 4.47402 7.28097 12.63
195 1 7.02369 4.2549 12.7123
196 1 9.90356 4.16926 12.0688
197 1 7.11427 7.09044 12.4679
198 1 9.89326 6.97534 12.4926
199 1 12.6118 4.10305 12.6896
200 1 12.6069 7.05515 12.3749
201 1 1.14454 10.1048 12.4361
202 1 4.24017 9.96949 12.4328
203 1 1.47028 12.774 12.9502
204 1 4.26345 12.8842 12.4913
205 1 7.38123 10.0018 12.5077
206 1 10.0667 9.97219 12.8268
207 1 7.23559 12.7937 12.5454
208 1 9.9519 12.9097 12.5538
209 1 12.6422 9.73731 12.6817
210 1 12.8145 12.6008 12.4123
211 1 1.06046 15.5492 12.6295
212 1 4.08161 15.69 12.5815
213 1 1.39363 18.4196 12.2967
214 1 4.23934 18.4076 12.4657
215 1 7.04362 15.4453 12.5143
216 1 9.98588 15.5183 12.7311
217 1 6.79883 18.3768 12.5151
218 1 9.79771 18.3449 12.4578
219 1 12.8999 15.4607 12.3142
220 1 12.7628 18.4328 12.7112
221 1 1.23496 21.2129 12.4091
222 1 4.19444 21.4096 12.3645
223 1 6.8119 21.1557 12.7043
224 1 9.61074 21.2203 12.483
225 1 12.5513 21.5533 12.427
12111 2 -0.0346861 8.53105 11.2222
12084 2 0.0796862 16.9488 8.34023
12011 2 -0.124633 2.80487 -0.321329
12024 2 -0.0147042 11.3461 2.62506
12029 2 11.3944 8.64613 0.079757
12121 2 -0.15521 19.7695 11.037
15071 2 13.9678 11.5501 5.39663
12008 2 5.55224 -0.151161 2.81843
12039 2 11.279 14.1925 0.0678627
12010 2 11.3759 -0.00221998 2.53503
12125 2 11.2619 20.0138 11.2374
12044 2 -0.101741 22.8797 2.93026
12013 2 2.6726 2.72123 2.66558
12124 2 8.31693 22.7477 10.9114
12014 2 -0.0596653 5.79053 2.83833
12053 2 2.81658 -2.88962 8.00183
12017 2 8.53118 2.89917 2.77036
12018 2 5.47581 5.75747 2.60159
12061 2 -0.0938876 2.91288 5.18556
12020 2 11.3216 5.59527 2.91465
12113 2 5.87186 8.74753 11.0849
12104 2 8.51727 0.135255 11.1127
12023 2 3.00428 8.57599 2.7997
12003 2 2.70084 -2.77209 2.84797
12016 2 8.67481 5.58996 -0.151066
12107 2 2.84428 5.68761 11.3156
12027 2 8.64345 8.54763 2.72801
12028 2 5.73938 11.1968 2.60508
12051 2 -0.156068 -2.75341 5.44576
12030 2 11.4336 11.4806 2.5387
12102 2 3.03567 0.12423 11.1813
12114 2 8.50814 11.4389 11.1662
12033 2 2.71695 14.2412 2.6364
12106 2 0.00926259 2.89919 11.0391
12100 2 11.1501 22.9791 8.21599
12099 2 10.9912 19.9622 5.6168
12037 2 8.53932 14.1688 2.69876
12038 2 5.60274 16.7578 2.68166
12098 2 5.60649 22.7063 8.35698
12040 2 11.1954 16.8917 2.80821
12097 2 8.48382 20.0275 8.17964
12035 2 5.57905 14.1916 -0.235892
12043 2 2.67926 19.9673 2.72038
12123 2 5.50477 19.8642 11.2171
12096 2 8.34522 22.6675 5.41882
12095 2 5.53973 19.9104 5.43912
12047 2 8.43826 19.9155 2.72671
12048 2 5.63785 22.7235 2.67534
12115 2 11.3555 8.47034 11.3119
12050 2 11.1176 22.5539 2.5608
12054 2 0.102742 -0.0627697 8.24779
12052 2 3.00791 0.00277465 5.61393
12112 2 2.74032 11.3349 11.4016
12122 2 2.5733 22.6174 11.1533
12110 2 11.3223 2.78866 11.1994
12056 2 8.39438 0.179839 5.57496
12109 2 8.46561 5.69227 11.1429
12058 2 5.70726 0.209882 8.3053
12108 2 5.76403 3.02069 11.2049
12060 2 11.3397 -0.0643765 8.20619
12120 2 11.1561 14.1415 11.0411
12062 2 3.03556 5.80103 5.83139
12063 2 2.8201 2.7154 8.15864
12119 2 8.28014 16.9541 10.9733
12065 2 5.7849 2.89518 5.41737
12066 2 8.61613 5.61058 5.76588
12067 2 8.71729 2.82251 8.25769
12068 2 5.62128 5.78004 8.56273
12069 2 11.3845 2.90559 5.59663
12070 2 11.4538 5.70246 8.54233
438 1 12.8484 15.5466 1.1852
12072 2 2.75644 11.4231 5.57361
12073 2 2.80539 8.56766 8.57726
12118 2 5.51962 14.247 11.2555
12075 2 5.76358 8.55282 5.69313
12076 2 8.41401 11.5876 5.5334
12077 2 8.60356 8.7205 8.25427
12078 2 5.76706 11.506 8.53308
12079 2 11.3361 8.62815 5.70222
12080 2 11.2256 11.1791 8.32766
15082 2 13.9806 14.1806 8.4093
12082 2 2.78921 17.2605 5.38213
12083 2 2.85832 14.2737 8.25159
12117 2 2.64805 16.901 11.1114
12085 2 5.63104 14.24 5.49116
12086 2 8.27728 17.0164 5.43268
12087 2 8.43823 14.4408 8.38576
12088 2 5.61529 17.2058 8.23811
12089 2 11.1932 14.2723 5.50047
12090 2 11.3181 17.1255 8.46375
12064 2 0.123315 5.61906 8.39099
12092 2 2.81757 22.8796 5.44512
12093 2 2.66983 19.9406 8.34824
12049 2 11.2603 19.5761 -0.247319
40 1 12.722 7.1084 4.45526
12116 2 -0.0579775 14.177 11.2095
12146 2 2.76565 19.8078 13.6257
12147 2 -0.223282 22.9227 13.9103
38 1 12.8649 4.34801 4.16625
12150 2 11.0311 22.6875 13.9104
12071 2 0.0291062 8.51778 5.66427
12036 2 8.4988 16.952 -0.189027
12006 2 8.50012 -0.0645021 0.103205
12136 2 2.95987 8.35802 13.9493
12015 2 5.69871 2.5541 0.114377
12034 2 -0.197096 17.1974 2.73149
12074 2 -0.072202 11.5016 8.3575
12032 2 2.90509 16.9543 -0.255147
12004 2 -0.0674998 0.114377 2.56868
12045 2 5.6027 19.7851 -0.0725402
12041 2 -0.289753 19.9213 -0.0829011
12019 2 11.4491 2.77998 -0.0648188
12002 2 2.83048 -0.018711 -0.0183088
12022 2 2.65787 11.1636 -0.0235538
12149 2 5.56583 22.7456 13.8177
12103 2 5.58068 -2.70444 10.8355
12129 2 5.73586 -0.08267 13.7696
12130 2 11.3291 -0.0994153 13.8091
12148 2 8.46284 19.8097 13.8026
12001 2 -0.0755765 -2.61286 0.146804
12131 2 2.87174 2.8133 13.7598
12135 2 11.3778 5.79358 13.779
12021 2 -0.140855 8.51174 -0.0484393
12026 2 8.56269 11.4931 0.0512096
12128 2 8.46245 -2.88307 13.9133
226 1 3.8573 -1.71056 15.4177
227 1 1.24909 -1.09082 15.5634
228 1 4.21408 1.33026 15.2428
229 1 1.5602 1.75978 15.186
230 1 9.98411 -1.32178 15.108
231 1 6.97287 -1.50985 15.4491
232 1 9.75428 1.50736 15.509
233 1 7.0475 1.22563 15.2535
234 1 12.8054 -1.39536 15.6485
235 1 12.7531 1.32423 15.153
236 1 4.11906 4.35423 15.4426
237 1 1.01542 4.37925 15.2772
238 1 4.50339 7.1681 15.3948
239 1 1.59612 7.0646 15.3369
240 1 10.206 4.16288 15.0936
241 1 7.146 4.06603 15.4016
242 1 10.1481 7.2384 15.4559
243 1 7.16984 6.98993 15.1744
244 1 12.8627 4.13365 15.593
245 1 12.8415 6.95267 15.3508
246 1 4.15554 9.91006 15.1532
247 1 1.20233 10.1325 15.6872
248 1 4.4202 12.613 15.5997
249 1 1.66224 12.9576 15.699
250 1 9.95475 10.129 15.4722
251 1 6.95571 10.0253 15.4659
252 1 9.8756 12.7508 15.3053
253 1 6.95934 12.9031 15.3204
254 1 12.4749 9.84119 15.6478
255 1 12.3976 12.3376 15.9311
256 1 4.42748 15.5564 15.2031
257 1 1.58665 15.8127 15.5116
258 1 4.06437 18.4517 15.2512
259 1 1.4109 18.4176 15.2712
260 1 9.70885 15.3841 15.6716
261 1 7.01756 15.7152 15.4128
262 1 10.0392 18.4588 15.0569
263 1 7.10633 18.5184 15.3301
264 1 12.6525 15.4733 14.9849
265 1 13.0669 18.3007 15.2534
266 1 4.21389 21.4036 14.9506
267 1 1.39416 21.1968 15.2843
268 1 9.92275 21.351 15.3136
269 1 7.08861 21.3004 15.4052
270 1 12.6072 21.08 15.4275
271 1 1.16162 -1.12774 18.3384
272 1 4.16868 -1.29088 18.2774
273 1 4.52322 -1.45003 20.9748
274 1 1.26915 -1.43447 21.134
275 1 1.19904 1.80395 18.3639
276 1 3.96231 1.3396 18.1091
277 1 4.27512 1.11086 21.071
278 1 1.37946 1.49788 20.9954
279 1 7.05256 -1.36923 18.1796
280 1 9.88603 -1.36936 17.9104
281 1 10.0669 -1.26831 21.1102
282 1 7.36901 -1.03877 20.8987
283 1 6.84949 1.43293 18.2212
284 1 9.97659 1.49924 18.3449
285 1 9.84269 1.46681 21.1663
286 1 6.87675 1.75223 20.9455
287 1 12.7014 -1.33103 18.4919
288 1 12.9706 -1.56804 21.2014
289 1 12.696 1.39303 18.0959
290 1 12.9008 1.12553 21.3546
291 1 1.13159 4.31991 18.4096
292 1 4.149 4.42047 18.4502
293 1 4.29382 4.13476 21.3643
294 1 1.4947 4.21138 21.0391
295 1 1.47686 7.08841 18.2309
296 1 4.28999 7.27799 18.0916
297 2 5.69321 5.57979 22.3379
298 1 4.50277 6.88363 21.0446
299 1 7.04563 4.2808 17.8968
300 1 9.89761 4.38323 18.27
301 1 9.90513 4.13062 21.0161
302 1 7.16496 4.3266 20.902
303 1 7.23158 7.06029 18.0714
304 1 10.1433 7.01679 18.1709
305 1 9.93432 6.97624 21.1622
306 1 7.09786 6.87551 20.8173
307 1 12.7185 4.28158 18.2946
308 1 12.7751 4.49893 21.0463
309 1 12.8622 7.12863 18.2824
310 1 12.6946 7.41153 21.0184
311 1 1.3151 10.135 18.475
312 1 4.36937 10.3457 18.1111
313 1 4.1348 9.85469 21.4467
314 1 1.46505 9.85891 21.0393
315 1 1.61474 13.1119 18.3991
316 1 4.3282 12.9531 18.4603
317 1 4.06649 12.6684 20.9983
318 1 1.53937 12.9067 21.2944
319 1 7.09878 10.053 18.0368
320 1 9.77284 9.76535 18.5969
321 1 9.92357 9.80959 21.2265
322 1 6.89097 9.96733 20.7758
323 1 6.9513 12.9533 18.0604
324 1 9.958 12.4589 18.0381
325 1 9.7127 12.6036 20.7947
326 1 6.87799 12.9491 21.1009
327 1 12.7701 9.88581 18.4083
328 1 12.8992 9.79233 23.9538
329 1 12.9087 12.6389 18.8322
330 1 12.6774 9.96264 21.1169
331 1 1.57623 15.9578 18.4855
332 1 4.23635 15.9364 18.2455
333 1 3.84969 15.7759 21.1746
334 1 1.06205 15.6543 21.183
335 1 1.14265 18.5925 18.31
336 1 4.04087 18.6452 18.0871
337 1 4.16759 18.5141 20.9404
338 1 1.11461 18.6268 21.0377
339 1 6.98388 15.8499 18.3947
340 1 9.94345 15.4537 18.1494
341 1 9.6101 15.7724 21.0644
342 1 6.89021 15.8028 21.2479
343 1 6.92885 18.641 18.0381
344 1 9.50495 18.5236 18.0482
345 1 9.64524 18.4061 21.0877
346 1 7.04285 18.3715 21.0656
347 1 12.9601 15.4473 17.9451
348 1 12.8763 15.2298 21.0868
349 1 12.6942 18.1992 18.1149
350 1 12.6271 18.3433 20.9014
351 1 1.42837 21.4191 18.0612
352 1 4.11904 21.1293 18.0409
353 1 4.05683 21.3833 21.0245
354 1 1.19539 21.2096 20.8241
355 1 7.20337 21.1147 18.2568
356 1 9.70034 21.3956 18.1403
357 1 9.71622 21.3173 20.9044
358 1 6.79237 20.9982 20.9738
359 1 12.5496 21.2698 18.0845
12151 2 -0.217267 -2.8504 16.5743
361 1 1.55763 -1.34746 24.0024
362 1 4.23036 -1.44314 23.9812
363 1 4.14552 -1.23014 26.9653
364 1 1.22195 -1.6044 26.822
365 1 1.36536 1.30238 23.6454
366 1 4.15631 1.45885 23.8754
367 1 4.0802 1.36655 26.9035
368 1 1.34795 1.22806 26.7027
369 1 7.04515 -1.16202 23.981
370 1 9.7756 -1.29751 24.01
371 1 9.9972 -1.6013 26.7814
372 1 6.97733 -1.32886 26.9871
373 1 6.90871 1.32346 24.1181
374 1 9.96663 1.45498 24.0602
375 1 10.0266 1.36298 26.8184
376 1 6.94209 1.37456 26.9817
377 1 12.6747 -1.69688 23.9716
378 1 12.7464 -1.3496 26.6922
379 1 12.8276 1.5217 24.3544
380 1 12.6973 1.29285 27.0333
381 1 1.39266 4.26884 23.87
382 1 4.31034 4.23899 23.7927
383 1 4.31181 4.02933 26.6667
384 1 1.4368 4.15045 26.7805
385 1 1.6245 7.08261 23.966
386 1 4.31025 7.18656 23.5682
387 1 4.23461 6.75786 26.7351
388 1 1.48326 7.0869 26.8805
389 1 6.9929 4.23436 23.7064
390 1 9.65349 4.13615 24.0884
391 1 9.93685 4.02609 26.9861
392 1 7.25864 4.10035 26.9475
393 1 7.11786 6.72329 23.5178
394 1 10.0358 6.99277 23.8049
395 1 9.73044 6.78739 26.7373
396 1 6.89702 7.1715 26.5988
397 1 12.5684 4.39582 23.8123
398 1 12.6088 4.38791 26.7539
399 1 12.8597 6.9947 23.9585
400 1 12.6103 7.35391 26.629
401 1 1.63342 9.77063 23.8949
402 1 4.1056 9.9307 24.1478
403 1 4.23248 9.87722 26.8506
404 1 1.22734 9.72624 26.96
405 1 1.40358 12.4503 24.1799
406 1 4.29442 12.529 23.8749
407 1 4.20268 12.7847 26.7267
408 1 1.53695 12.5058 26.9607
409 1 7.1443 9.81129 23.5916
410 1 10.1323 9.47221 24.1392
411 1 9.94994 9.87887 27.1337
412 1 7.30103 9.93434 26.4942
413 1 7.15724 12.7279 23.8241
414 1 9.88565 12.4888 24.0918
415 1 10.1081 15.5117 26.9167
416 1 7.24483 12.7075 26.7959
417 1 13.2901 12.5747 24.1609
418 1 12.7398 10.0086 26.9454
419 1 12.702 12.7292 27.0087
420 1 9.95185 12.4851 27.0724
421 1 1.4465 15.7356 24.0136
422 1 4.29768 15.6078 23.852
423 1 4.29441 15.9028 26.5166
424 1 1.60289 15.6316 27.0328
425 1 1.0572 18.5785 23.9089
426 1 4.06759 18.4032 23.516
427 1 4.21351 18.674 26.8081
428 1 1.04068 18.4025 26.6858
429 1 7.27495 15.6193 24.0401
430 1 9.67986 18.2352 23.914
431 1 12.776 15.8937 26.7741
432 1 6.81187 15.4835 26.6593
433 1 7.2055 18.5139 24.0035
434 1 12.7181 18.3119 23.6148
435 1 9.73608 18.3255 26.7235
436 1 6.99769 18.3931 26.7309
437 1 12.9435 15.2777 23.9853
12207 2 8.29018 -2.69334 25.3204
439 1 12.5363 21.1599 20.9226
440 1 12.4648 18.4777 26.5206
441 1 1.22275 21.2386 23.7466
442 1 3.92405 21.1221 23.8243
443 1 4.10912 21.2173 26.4091
444 1 1.12703 21.0347 26.719
445 1 6.85579 21.2187 23.6283
446 1 9.74293 21.346 23.6744
447 1 9.66008 21.1941 26.6806
448 1 6.92119 21.0546 26.5612
449 1 12.6286 21.0422 23.8377
450 1 12.6752 21.2004 26.7316
12231 2 -0.108573 14.1623 22.7904
12250 2 11.0308 22.6542 25.0925
15241 2 13.8952 22.4346 22.4113
12194 2 -0.0374326 22.6431 19.4144
12181 2 0.252468 14.4568 16.9128
12227 2 8.59796 8.48381 25.333
12249 2 11.2178 19.4996 22.5354
12226 2 8.50028 11.3112 22.3841
12225 2 5.62657 8.71745 22.3965
12221 2 0.0821371 8.63094 22.6764
12223 2 2.77857 8.4618 25.403
12248 2 5.61993 22.6708 25.2695
12222 2 2.75489 11.2859 22.5482
12228 2 5.67497 11.3401 25.3792
12154 2 -0.19436 0.169814 19.6061
12220 2 11.4807 5.82913 25.319
12247 2 8.48975 19.675 25.3902
12174 2 0.116304 11.6336 19.5626
12201 2 -0.127929 -2.66762 22.5152
12211 2 0.0368795 2.73549 22.3923
12219 2 11.3864 2.6468 22.4523
12246 2 8.38351 22.8091 22.4238
6309 1 1.68661 6.93084 21.1527
12218 2 5.78737 5.28197 25.6581
12204 2 -0.114698 -0.0380105 25.3717
12245 2 5.43944 19.8553 22.2898
12152 2 2.53816 0.0137424 16.9373
12244 2 -0.110429 22.5429 25.1429
12243 2 2.46417 19.678 25.3352
12205 2 5.69441 -2.77505 22.6196
12156 2 8.51747 -0.04708 16.7715
15242 2 13.9523 19.8571 25.2028
12158 2 5.63107 0.038494 19.5203
12164 2 -0.23093 5.69097 19.4684
12160 2 11.505 0.021707 19.8886
12242 2 2.77632 22.6291 22.4264
12162 2 2.70132 5.63121 16.9459
12163 2 2.76646 3.01273 19.8472
12240 2 11.339 16.926 25.019
12165 2 5.71907 2.63651 16.4855
12166 2 8.82778 5.65905 16.6156
12167 2 8.48989 2.8569 19.6085
12168 2 5.85558 5.64125 19.2239
12169 2 11.3361 2.93567 16.8494
12170 2 11.6724 5.72606 19.4991
12239 1 10.0012 15.5795 23.8394
12172 2 2.89249 11.4527 16.9283
12173 2 2.75328 8.52734 19.6333
12238 2 5.67111 17.2646 25.1815
12175 2 5.71147 8.78115 16.7792
12176 2 8.41318 11.4871 16.8632
12177 2 8.4321 8.36833 19.7434
12178 2 5.58896 11.5013 19.6539
12179 2 11.3787 8.6165 17.0023
12180 2 11.1733 11.3493 19.6219
12237 2 8.53236 14.1827 25.0619
12182 2 2.67773 17.2307 16.9353
12183 2 2.82968 14.2077 19.845
12236 2 8.34917 17.0097 22.6171
12185 2 5.51237 14.3542 16.7076
12186 2 8.30167 17.1108 16.5846
12187 2 8.44638 14.2302 19.5624
12188 2 5.58182 17.096 19.631
12189 2 11.2973 14.1814 16.8087
12190 2 11.2477 16.6535 19.7447
12235 2 5.71108 14.2533 22.697
12192 2 2.77963 22.6412 16.6618
12193 2 2.74515 19.821 19.52
12141 2 2.53274 14.4116 13.983
12195 2 5.65049 19.9351 16.6597
12196 2 8.3468 22.6427 16.8827
12197 2 8.26447 19.6753 19.6034
12198 2 5.52282 22.6364 19.5911
12199 2 11.1485 19.7863 16.9146
12200 2 11.1833 22.5409 19.5389
12233 2 2.79267 14.1327 25.528
12202 2 2.73883 -0.0880863 22.3654
12241 2 -0.084456 20.0076 22.4743
12232 2 2.50514 17.0195 22.4118
12140 2 11.2337 11.4595 14.0366
12206 2 8.57683 0.016227 22.6339
12161 2 0.0077136 2.7165 16.6277
12208 2 5.4372 -0.0159675 25.4782
15041 2 13.8917 22.4986 28.0938
12210 2 11.4051 -0.0545032 25.299
12230 2 11.3362 11.3191 25.6084
12212 2 2.6151 5.58512 22.5364
12213 2 2.74897 2.82668 25.2901
12229 2 11.3661 8.5338 22.6578
12215 2 5.64518 2.45285 22.5271
12216 2 8.90748 5.51463 22.4231
12217 2 8.63447 2.57895 25.6148
12153 2 2.66403 -2.90203 19.5847
12144 2 5.50034 17.1073 13.9553
12157 2 8.54714 -2.58781 19.4376
15191 2 13.8127 22.5996 16.7539
12133 2 8.60098 2.7456 13.8485
12224 2 0.0772548 11.3497 25.574
15192 2 13.9402 19.5774 19.3879
12184 2 -0.18669 17.0286 19.7998
12046 2 8.37625 22.5788 28.2344
12145 2 11.3292 16.9964 13.824
12214 2 -0.1012 5.50094 25.4633
12234 2 -0.228801 17.0498 25.2696
12191 2 -0.0113629 19.8791 16.6879
12127 2 -0.04612 0.212469 14.0978
12159 2 11.3421 -2.78251 16.7706
12139 2 5.56446 11.3668 14.0182
12171 2 -0.205972 8.55125 16.9134
12134 2 5.57734 5.60836 14.0005
12143 2 8.47372 14.2412 14.0894
12025 2 5.51858 8.36618 28.1069
12042 2 2.57544 22.5008 28.0198
12137 2 -0.0550288 11.5146 14.1509
12138 2 8.68982 8.61 14.089
12031 2 0.0788243 14.2157 28.1185
451 1 1.33431 24.3112 1.15437
452 1 4.05047 23.983 1.13534
453 1 4.26933 24.3215 3.74174
12346 2 -0.129646 31.0288 11.0869
12295 2 11.1036 48.2103 -0.186133
456 1 9.9442 24.1319 0.986186
457 1 9.92845 24.3204 3.68376
458 1 7.19106 24.2363 4.27765
459 1 12.6246 23.9442 1.01087
460 1 12.6591 27.0064 3.95522
461 1 1.31204 26.8945 0.916056
462 1 4.05976 26.9201 1.09773
463 1 4.00922 27.0606 3.73967
464 1 1.3034 27.0915 4.07658
465 1 1.09313 33.158 1.02154
466 1 4.0488 30.0001 0.989334
467 1 4.08364 29.9207 3.7701
468 1 1.24453 29.8403 0.831168
469 1 6.83641 26.9667 1.13004
470 1 9.81503 27.0465 1.18639
471 1 9.75033 27.0398 3.92006
472 1 6.87913 27.01 3.87536
473 1 6.74336 29.806 1.35774
474 1 9.77015 29.8188 1.03396
475 1 9.86813 29.9205 3.87456
476 1 6.84172 29.9247 4.07333
477 1 12.5806 26.8804 1.14923
478 1 12.5186 29.9645 3.94458
12319 2 -0.150129 39.8321 8.21476
454 1 1.42499 24.0109 4.09569
544 1 1.96984 26.716 9.9308
482 1 4.14171 32.702 1.47709
483 1 4.13845 33.0562 4.36498
484 1 1.27444 32.7069 3.89816
635 1 12.6843 24.2425 12.3115
486 1 3.99157 35.5137 0.968796
487 1 4.03058 35.7773 3.75604
488 1 1.18764 35.6711 1.01791
489 1 6.78511 32.7201 1.13711
490 1 9.60292 32.5957 1.39311
491 1 10.0758 32.4941 4.19972
492 1 7.16778 32.6663 3.96084
12375 2 -0.0527263 39.7389 14.0052
12381 2 8.3248 42.4289 13.7563
495 1 9.49553 35.5528 4.05957
496 1 9.8938 35.5089 1.31296
497 1 12.488 29.599 1.12956
493 1 9.86445 38.5339 0.878903
12293 2 5.5667 48.0379 -0.232837
12361 2 -0.114762 48.1742 10.9187
501 1 1.47429 38.5251 0.988879
502 1 7.36009 35.6914 0.922853
503 1 3.98789 38.4561 3.87878
504 1 1.09374 38.6625 3.9173
505 1 1.33208 41.2814 0.980706
506 1 4.13606 41.1324 0.983188
507 1 4.0752 41.091 3.89453
508 1 1.17848 41.1101 3.96999
509 1 6.90514 38.3531 1.10413
510 1 12.7394 34.9406 1.50962
511 1 9.83232 38.211 3.58752
512 1 6.87105 38.2125 3.94195
513 1 7.18883 41.1915 1.11745
514 1 10.0311 41.3134 1.02249
515 1 9.67009 40.7963 3.82297
516 1 6.70429 41.0352 3.77773
517 1 12.623 38.3381 0.903507
518 1 12.6427 38.3733 3.82219
519 1 12.8055 41.2002 1.08931
520 1 12.6975 40.8946 4.00879
521 1 1.09244 43.929 1.0793
522 1 4.00684 44.0601 1.20033
523 1 3.72392 44.1034 3.77486
524 1 0.829813 44.0381 4.18575
525 1 1.06823 46.7912 1.31736
526 1 4.0503 46.6045 1.39652
527 1 4.01538 46.9773 4.14241
528 1 1.15296 46.7814 3.84087
529 1 6.89977 43.6735 1.07027
530 1 9.71374 44.0249 1.37798
531 1 9.70941 43.9273 4.05965
532 1 6.43033 43.9691 3.91142
533 1 6.8335 46.3479 1.11024
534 1 9.76082 46.6767 0.993236
535 1 9.59667 46.6024 3.75079
536 1 6.59579 47.1197 3.56858
537 1 12.7788 44.0389 0.886161
538 1 12.4781 43.7423 4.06221
539 1 12.5864 46.8768 1.1828
540 1 12.4372 46.7132 4.15881
12382 2 5.4709 45.2387 13.693
542 1 4.19155 23.9237 6.98215
543 1 4.09454 24.2075 9.71629
480 1 12.4209 35.4124 4.25661
545 1 7.02686 24.0261 7.0804
546 1 9.59804 24.2503 6.50027
547 1 9.71284 24.1953 9.45728
548 1 7.07895 24.279 9.55983
549 1 12.3443 24.4176 6.82157
550 1 12.7157 23.997 9.41526
551 1 1.63055 29.9521 6.58309
903 1 3.81801 49.7766 3.97796
553 1 3.80517 26.5683 6.56722
554 1 4.70492 26.9261 9.37472
555 1 1.12674 29.907 3.57768
556 1 4.42134 29.6313 6.85918
557 1 4.28663 29.7129 10.0413
558 1 1.22773 29.8106 9.98177
559 1 6.99352 27.0877 6.5477
560 1 9.78019 26.9368 6.94362
561 1 10.1637 27.0149 9.81062
562 1 7.31097 27.1076 9.54731
563 1 6.9629 29.9374 6.97751
564 1 9.78885 29.7644 6.45437
565 1 9.66854 29.7693 9.43735
566 1 6.72333 30.2536 9.78881
567 1 12.3783 27.0438 6.37117
568 1 12.857 26.9818 9.47454
569 1 12.686 29.5908 6.66281
570 1 12.4716 29.8426 9.63741
571 1 1.12212 35.6138 6.56141
572 1 4.13346 32.3351 7.20196
573 1 4.21028 32.7761 9.91866
574 1 1.19167 32.7504 9.67874
575 1 1.07851 35.6569 3.99488
576 1 3.82406 35.6842 6.47103
577 1 4.1747 35.6315 9.61086
578 1 1.4847 35.5395 9.18427
579 1 6.50689 35.1469 6.70625
580 1 9.67072 32.8737 7.05668
581 1 9.85389 32.3435 9.6251
582 1 6.76699 32.6098 7.03333
583 1 6.78875 35.4436 3.91648
584 1 9.73313 35.7696 6.98872
585 1 9.89369 35.0041 10.1723
586 1 7.11603 32.8944 9.66252
587 1 12.553 32.4206 6.74336
588 1 12.5299 32.6396 9.48143
589 1 12.8047 35.532 9.77532
590 1 12.6762 38.3628 9.73737
591 1 1.46458 38.2227 6.70057
592 1 4.14189 38.6716 6.72352
593 1 4.02647 38.4311 9.74427
594 1 1.18126 38.5649 9.56596
595 1 1.19802 41.0739 6.74066
596 1 3.90094 41.4161 6.7231
597 1 4.16844 41.1799 9.5547
598 1 1.37114 41.1995 9.74212
599 1 6.85936 38.34 6.54895
600 1 10.042 38.5568 6.37949
601 1 9.90289 38.366 9.84489
602 1 6.74862 38.2699 9.82187
603 1 7.04183 41.3686 6.55748
604 1 9.53324 41.2288 6.45687
605 1 9.94381 44.2404 9.58465
606 1 7.01228 41.3537 9.4117
607 1 12.6643 35.3148 6.96744
608 1 12.682 38.1538 6.71593
609 1 12.5257 41.0443 6.97449
610 1 12.8907 41.2394 9.40559
611 1 1.34345 43.8034 6.9298
612 1 4.13378 44.0479 6.62345
613 1 4.25613 44.2306 9.44356
614 1 1.16031 44.0328 9.53212
615 1 1.29452 46.7359 6.7727
616 1 4.26845 47.1338 7.05561
617 1 3.99885 46.9481 9.47322
618 1 1.23028 47.0216 9.70349
619 1 6.75882 44.0594 6.69432
620 1 9.61149 43.9889 6.66549
621 1 9.61999 47.051 9.46391
622 1 7.17863 44.1005 9.3833
623 1 7.07264 46.889 6.4433
624 1 9.61894 46.9983 6.85484
631 1 1.13005 24.1144 12.2344
626 1 6.83169 47.1489 9.49211
627 1 12.7091 44.3117 6.98634
628 1 12.5975 44.1769 9.64788
629 1 12.5681 47.0028 6.82615
630 1 12.4192 46.9393 9.7783
1101 1 1.2263 49.5264 12.2076
12266 2 8.22204 34.0782 -0.222791
633 1 6.86504 24.1236 12.4223
634 1 9.82349 24.0202 12.3124
12296 2 -0.0298412 25.6872 5.38198
636 1 1.40857 27.0741 12.8657
637 1 4.21757 26.8398 12.666
638 1 1.49245 29.8313 12.6434
639 1 4.16582 29.8568 12.82
640 1 6.97309 26.9242 12.4377
641 1 9.73044 26.8324 12.6162
642 1 6.85069 29.5849 12.7023
643 1 9.91489 29.774 12.3183
644 1 12.7147 27.1017 12.4343
645 1 12.7346 29.8898 12.2956
646 1 1.20572 32.6183 12.4492
647 1 4.08971 32.8706 12.596
648 1 1.45587 35.4611 12.2278
649 1 4.51803 35.5363 12.6581
650 1 7.00103 32.5473 12.537
651 1 9.89923 32.5914 12.3557
652 1 6.9966 35.2496 11.6551
653 1 9.74063 35.4809 12.9864
654 1 12.5769 32.6967 12.4533
655 1 12.739 35.4125 12.4571
656 1 1.27986 38.1155 12.5932
657 1 3.89293 38.3081 12.626
658 1 1.57061 41.0139 12.6773
659 1 4.22358 40.9219 12.272
660 1 6.71855 38.2554 12.7241
661 1 9.95196 38.2036 12.7381
662 1 7.12237 41.0801 12.1663
663 1 9.62457 40.8843 12.4502
664 1 12.778 38.4073 12.649
665 1 12.7088 41.1892 12.4487
666 1 1.3191 43.8637 12.6449
667 1 4.20332 43.818 12.2599
668 1 1.1832 46.5514 12.4861
669 1 4.25932 46.9497 12.5263
670 1 6.68877 43.9737 12.3681
671 1 9.61895 43.7277 12.3229
672 1 6.73199 46.7364 12.3525
673 1 9.88516 46.9492 12.2006
674 1 12.4324 44.0286 12.4107
675 1 12.5289 46.8017 12.5786
12363 2 11.1353 48.5518 11.1381
12316 2 -0.093704 36.9204 5.42103
12253 2 2.72029 25.5178 2.38208
12362 2 5.32674 48.2757 11.0643
12349 2 8.50638 33.9241 11.1753
455 1 6.90929 24.1483 1.09308
12257 2 8.31216 25.581 2.61534
12258 2 5.48047 28.4111 2.55189
12378 2 11.1749 39.7457 13.703
12260 2 11.1869 28.3492 2.40953
12255 2 5.33393 25.4219 -0.195792
552 1 1.5265 24.9758 6.74989
12263 2 2.47409 31.3594 2.44881
12360 2 11.1692 42.6309 10.8273
499 1 12.6135 32.2164 1.0971
6464 1 12.9597 32.6917 3.83198
12267 2 8.22541 31.1945 2.78969
12268 2 5.41855 34.195 2.77556
632 1 3.96185 23.8908 12.4085
12270 2 10.7783 34.0373 2.78116
12359 2 8.38372 45.4163 10.9994
12376 2 8.46376 37.0489 13.9156
12273 2 2.50272 37.2156 2.89345
12358 2 5.66042 42.4295 10.8568
12254 2 -0.254578 28.3994 2.60787
541 1 1.33244 24.0818 9.56952
12277 2 8.32162 36.9747 2.61928
12278 2 5.62659 39.8359 2.40114
904 1 0.776791 49.8109 3.97831
12280 2 11.1254 39.6039 2.45958
12377 2 5.31948 39.772 13.7971
918 1 12.6642 49.5384 4.23658
12283 2 2.50275 42.6218 2.47366
12347 2 2.51353 34.0371 11.0625
12341 2 0.0500089 25.6016 10.9582
12366 2 8.30669 25.3801 14.0442
12287 2 8.22029 42.4484 2.60723
12288 2 5.31509 45.3948 2.67583
12350 2 11.1802 31.2538 10.9841
12290 2 11.2059 45.0836 2.7603
12336 2 -0.221379 48.1248 5.18264
12292 2 2.52641 47.9937 2.68678
12352 2 2.56208 39.5932 11.0884
12294 2 8.49885 48.0995 2.51195
15307 2 13.8139 31.0705 8.33439
12357 2 2.61966 45.3912 11.0507
12297 2 2.76039 28.4528 5.18321
12298 2 3.13134 25.3851 8.29936
12299 1 1.21264 32.8858 7.04144
12300 2 5.60857 25.6062 5.35353
12301 2 8.16594 28.4167 5.30487
12302 2 8.41759 25.6789 8.06604
12303 2 5.77049 28.6444 8.17983
12304 2 11.2153 25.5816 5.22386
12305 2 11.3491 28.2038 8.12677
12348 2 5.49417 31.4156 11.3512
12307 2 2.44149 34.1085 5.41627