ITEM: TIMESTEP
250000
ITEM: NUMBER OF ATOMS
18000
ITEM: BOX BOUNDS xy xz yz pp pp pp
-2.3913494342321090e-01 2.8133134943423396e+01 0.0000000000000000e+00
-2.8122759980510303e+00 3.3754027599806955e+02 0.0000000000000000e+00
-2.4488833251813713e-01 2.8138888332517404e+01 0.0000000000000000e+00
ITEM: ATOMS id type x y z
1 1 1.21987 -1.39061 1.0617
2 1 4.13068 -1.46816 1.44425
3 1 3.80797 -1.15574 4.13889
4 1 1.20432 -1.5033 3.99914
5 1 1.21681 1.41491 1.3857
6 1 4.046 1.4297 1.52894
7 1 4.04834 1.62865 4.1496
8 1 1.32107 1.52271 4.00584
9 1 6.95587 -1.56523 1.02458
10 1 9.59313 -1.49534 0.81178
11 1 9.68315 -1.18113 3.75085
12 1 6.93548 -1.61267 3.94796
13 1 6.71643 1.19531 0.905075
14 1 9.65043 1.34939 1.10408
15 1 9.41687 1.67263 4.19359
16 1 6.95876 1.36301 3.81205
17 1 12.5205 -1.28658 1.15151
18 1 12.2279 -1.10423 4.21624
19 1 12.5186 1.77447 1.1913
20 1 12.5584 1.56713 3.92964
21 1 1.21219 4.36819 1.03436
22 1 4.12856 4.09287 1.55231
23 1 4.10031 4.48753 4.18991
24 1 1.13242 4.09948 3.98274
25 1 1.20768 7.08151 1.42758
26 1 4.06257 7.02664 1.12859
27 1 4.24763 7.10179 4.00725
28 1 1.27939 6.90696 4.12329
29 1 6.91053 4.13886 1.00585
30 1 9.70814 4.14553 1.21194
31 1 9.60554 4.28476 4.12211
32 1 6.91923 4.18615 4.16744
33 1 6.64383 7.01528 1.21397
34 1 9.61077 6.95397 1.13847
35 1 9.70772 7.25117 3.91445
36 1 6.98706 6.87861 4.0021
37 1 12.4685 4.3962 1.44551
38 1 12.4332 4.52469 4.34043
39 1 12.1798 7.04299 1.06615
40 1 12.5085 7.30508 3.98537
41 1 1.23428 10.0699 1.44788
42 1 3.96248 9.74187 1.2317
43 1 4.19054 10.0148 3.98372
44 1 1.43196 10.109 4.2766
45 1 1.27549 13.0133 1.40193
46 1 3.83082 12.5661 1.28241
47 1 4.39132 12.8258 4.26361
48 1 1.43846 12.8111 4.14905
49 1 6.81146 9.81466 1.20663
50 1 9.95928 9.81135 0.97789
51 1 10.0045 10.0088 3.64547
52 1 7.14903 9.77612 4.18685
53 1 6.98236 12.6145 0.962629
54 1 9.83881 12.776 0.913867
55 1 10.0535 12.7363 3.81477
56 1 7.37385 12.7487 4.09394
57 1 12.7084 9.78151 1.21562
58 1 12.5322 10.1486 3.85332
59 1 12.7316 12.6562 1.07772
60 1 12.9483 12.9273 3.98312
61 1 1.58013 15.6253 1.12996
62 1 4.21833 15.4129 1.25865
63 1 4.33677 15.4853 3.97972
64 1 1.43136 15.6959 3.83797
65 1 1.08303 18.4963 1.26376
66 1 3.68557 18.5054 1.28044
67 1 3.96338 18.2341 4.17395
68 1 1.03096 18.4447 4.12981
69 1 7.10218 15.3335 1.29164
70 1 9.95898 15.8198 1.44137
71 1 9.59332 15.6302 4.11876
72 1 6.86277 15.7729 4.17675
73 1 6.76826 18.0927 1.10208
74 1 9.77697 18.322 1.26291
75 1 9.62556 18.4125 4.11567
76 1 6.90425 18.6216 3.92069
77 1 12.5728 15.4753 4.4028
78 1 12.6831 18.1593 4.249
79 1 12.594 18.5071 1.2863
12022 2 2.4975 11.2986 0.0253165
81 1 1.10376 21.2986 1.2398
82 1 4.15177 21.4368 1.23379
83 1 4.01613 21.362 4.08129
84 1 1.11322 21.1826 4.10068
85 1 7.10052 20.7788 1.2763
86 1 9.99436 20.9268 1.45521
87 1 9.6697 21.4159 3.91044
88 1 6.8003 21.1889 4.1185
89 1 12.772 21.1297 0.958081
90 1 12.4221 21.0376 3.7475
91 1 1.24012 -1.02423 6.96859
92 1 4.19475 -1.21847 6.89695
93 1 4.33208 -1.20667 9.59269
94 1 1.78402 -1.43258 9.62564
95 1 1.27111 1.64163 7.25075
96 1 4.40304 1.63314 7.02164
97 1 4.25588 1.52583 9.81728
98 1 1.25083 1.47215 9.94727
99 1 6.91099 -1.56952 6.64189
100 1 9.87336 -1.11456 6.91444
101 1 9.79357 -1.43399 9.62075
102 1 7.04469 -1.5076 9.84101
103 1 6.91968 1.35836 6.71639
104 1 9.61718 1.5977 6.84183
105 1 9.97553 1.67984 9.73112
106 1 7.10062 1.41561 9.6281
107 1 12.716 -1.35681 6.6797
108 1 12.5199 -1.55469 9.70131
109 1 12.9113 1.25564 6.78107
110 1 12.5109 1.39035 9.80025
111 1 1.33574 4.28318 7.12423
112 1 4.1218 4.3602 6.92925
113 1 4.17123 4.3546 9.85038
114 1 1.38485 4.30858 9.78313
115 1 1.40877 7.0589 7.08808
116 1 4.38504 7.04865 6.90953
117 1 4.20091 7.22613 9.65368
118 1 1.39583 7.30483 9.69514
119 1 6.8602 4.29362 6.72493
120 1 9.99219 4.32373 6.91615
121 1 9.85618 4.69555 9.46809
122 1 6.87057 4.31261 9.77127
123 1 7.24952 7.18637 6.76424
124 1 9.99026 7.05828 6.89423
125 1 9.7947 7.30137 9.66995
126 1 6.99387 7.21423 9.54778
127 1 12.6622 3.95471 6.94211
128 1 12.8118 4.40107 10.1157
129 1 12.7141 7.00449 6.44949
130 1 12.6584 7.2051 9.32731
131 1 1.32574 9.7463 6.92672
132 1 4.3186 9.66538 6.97111
133 1 4.29658 10.0758 9.88638
134 1 1.28203 10.2188 9.4168
135 1 1.64706 12.6872 6.93963
136 1 4.2368 12.5569 6.85048
137 1 4.45467 12.8135 9.53681
138 1 1.63496 12.8433 9.58823
139 1 6.93405 9.85897 6.96463
140 1 9.82782 10.2215 6.69205
141 1 10.0153 9.90622 9.78518
142 1 7.2787 9.9701 9.60721
143 1 6.95066 12.7083 7.05342
144 1 9.63441 12.8544 6.85595
145 1 9.66662 12.9242 9.6104
146 1 7.07322 12.6759 9.98234
147 1 12.7115 9.94779 6.63242
148 1 12.7469 9.92473 9.35088
149 1 12.6195 12.7394 6.97623
150 1 12.4295 12.6714 9.76271
151 1 1.10578 15.4065 6.9183
152 1 3.96341 15.6135 6.96752
153 1 3.93477 15.7346 9.81043
154 1 1.27068 15.5119 9.63617
155 1 1.23384 18.3064 6.83303
156 1 4.1075 18.1503 6.76031
157 1 4.0455 18.4454 9.65697
158 1 1.19135 18.3473 9.77686
159 1 6.974 15.7407 7.01937
160 1 10.0466 15.7634 7.14504
161 1 9.58411 16.063 9.85036
162 1 6.80689 15.5833 9.60321
163 1 7.01982 18.6186 6.89331
164 1 10.0606 18.4498 6.76631
165 1 9.70753 18.5371 9.54191
166 1 6.64198 18.4868 9.75842
167 1 12.8678 15.8343 7.16072
168 1 12.7301 15.313 9.68368
169 1 12.5462 18.7687 7.15375
170 1 12.5914 18.716 10.0394
171 1 1.27035 21.4075 6.87925
172 1 3.96387 20.9604 6.59608
173 1 4.00047 21.1213 9.56581
174 1 1.25303 21.1404 9.60435
175 1 6.58946 21.2231 6.97479
176 1 9.41008 21.3796 6.91236
177 1 9.53115 21.3949 9.85786
178 1 6.81559 21.4869 9.77289
179 1 12.3564 21.4998 6.71696
180 1 12.4713 21.5002 9.6961
181 1 1.57553 -1.18926 12.4878
182 1 4.25188 -1.3684 12.6424
183 1 1.23114 1.71595 12.6738
184 1 4.02981 1.44506 12.5088
185 1 6.99196 -1.58922 12.925
186 1 10.0845 -1.48737 12.5972
187 1 7.01495 1.41327 12.4466
188 1 9.89584 1.54824 12.534
189 1 12.7484 -1.37958 12.4446
190 1 12.7232 1.63889 12.5001
191 1 1.16426 4.5408 12.5599
192 1 4.05758 4.15632 12.6524
193 1 1.67877 7.19776 12.4268
194 1 4.39587 6.88986 12.486
195 1 7.15907 4.28982 12.5114
196 1 9.91076 4.37498 12.2197
197 1 7.02131 7.241 12.3055
198 1 9.51782 7.05612 12.7243
199 1 12.6289 4.46086 12.8109
200 1 12.7584 7.2975 12.4711
201 1 1.07176 9.78822 12.5682
202 1 3.94359 10.0308 12.4557
203 1 1.45372 13.043 12.5281
204 1 4.13976 12.5276 12.4429
205 1 6.99309 10.203 12.5627
206 1 9.7761 10.0625 12.674
207 1 7.01325 12.7741 12.9411
208 1 9.89231 12.8068 12.5344
209 1 12.7057 9.98303 12.54
210 1 12.8067 12.9831 12.6084
211 1 1.80928 15.7361 12.4666
212 1 4.60983 15.448 12.792
213 1 1.37812 18.578 12.5736
214 1 4.25941 18.3539 12.2413
215 1 7.15353 15.6636 12.4246
216 1 10.003 15.5031 12.9301
217 1 7.05162 18.5436 12.4104
218 1 9.88358 18.5709 12.8941
219 1 12.73 15.5829 12.4467
220 1 12.8715 18.4175 12.5787
221 1 1.09705 21.3883 12.4084
222 1 3.84068 21.2711 12.3888
223 1 6.71239 21.3543 12.4289
224 1 9.64483 21.3369 12.562
225 1 12.6437 21.5566 12.5767
12053 2 2.87718 -2.589 8.1556
12001 2 -0.0928576 -2.7009 -0.204104
12140 2 11.436 11.3327 13.8763
12036 2 8.41592 16.9108 -0.207349
12024 2 0.0632934 11.6751 2.84883
12004 2 -0.138815 -0.0311511 2.85198
12016 2 8.33991 5.57733 -0.185333
12008 2 5.69196 -0.174339 2.64609
12025 2 5.28341 8.52508 -0.126158
12010 2 11.2922 0.101359 2.56344
12125 2 11.1651 20.1116 11.1686
12003 2 2.79599 -2.7472 2.75515
12013 2 2.608 2.9041 2.78451
12124 2 8.4474 22.7822 11.2914
12064 2 0.0659582 5.74556 8.45511
12126 2 2.8444 -2.71859 13.8909
12017 2 8.35643 3.02034 2.46921
12018 2 5.41426 5.6421 2.75596
12051 2 -0.231233 -2.60084 5.51588
12020 2 10.9613 5.61323 2.58599
12113 2 5.60487 8.53196 11.078
12104 2 8.56419 0.0930659 11.026
12023 2 2.77255 8.46748 2.70696
12015 2 5.40957 2.56725 -0.120895
12142 2 0.181027 17.0827 13.906
12107 2 2.84076 5.66039 11.1596
12027 2 8.37643 8.44226 2.36202
12028 2 5.65659 11.3781 2.67266
12121 2 -0.0869172 20.0651 11.1371
12030 2 11.3108 11.3642 2.4344
12102 2 2.76405 0.0453175 10.9994
12114 2 8.57429 11.2814 11.0776
12033 2 2.84753 14.1885 2.80081
15052 2 13.8907 -2.62846 8.27563
12100 2 10.9926 22.6375 8.24997
12099 2 11.0699 19.9388 5.41635
12037 2 8.55437 14.0216 2.48958
12038 2 5.60273 16.7329 2.49795
12098 2 5.29779 22.6774 8.37211
12040 2 11.33 17.0503 2.85335
12097 2 7.98598 19.938 8.42237
12042 2 2.29754 22.5802 -0.132872
12043 2 2.59879 20.0053 2.7399
12123 2 5.43553 19.8228 11.1713
12096 2 8.12704 22.8554 5.54864
12095 2 5.43353 19.6153 5.31426
12047 2 8.45438 19.8995 2.95742
12048 2 5.53291 22.5814 2.50864
12115 2 11.1705 8.4553 11.1665
12050 2 11.0501 22.6544 2.54684
12054 2 -0.182256 -0.0344209 8.5191
12052 2 2.74029 0.255372 5.60825
12112 2 2.81209 11.2866 10.9485
12122 2 2.45509 22.5945 10.989
12110 2 11.2423 2.98852 11.1329
12056 2 8.3897 0.15156 5.49519
12109 2 8.31666 5.83035 10.9603
12058 2 5.58156 -0.0894709 8.33743
12108 2 5.55158 2.91565 11.1298
12060 2 11.2663 0.102567 8.23914
12120 2 11.2121 14.4093 11.1791
12062 2 2.73228 5.73568 5.60492
12063 2 2.63225 2.88235 8.47508
12119 2 8.17215 17.1047 11.1677
12065 2 5.46643 2.72148 5.38202
12066 2 8.37852 5.6019 5.60328
12067 2 8.28167 2.87449 8.07583
12068 2 5.54792 5.73657 8.22519
12069 2 11.2004 2.85236 5.32251
12070 2 11.4772 5.67265 8.07601
438 1 12.6362 15.4495 1.48555
12072 2 2.80318 11.0903 5.60732
12073 2 2.90836 8.52418 8.22647
12118 2 5.50542 14.097 11.248
12075 2 5.61414 8.42034 5.31034
12076 2 8.55277 11.3246 5.35797
12077 2 8.4448 8.46154 8.09721
12078 2 5.71802 11.3335 8.32061
12079 2 11.3642 8.71715 5.28604
12080 2 11.0218 11.2027 8.32159
12081 2 -0.0852862 14.1265 5.62943
12082 2 2.67783 16.7814 5.477
12083 2 2.98099 14.265 8.42459
12117 2 2.58126 17.2029 11.0273
12085 2 5.78471 14.3173 5.50193
12086 2 8.23899 17.0968 5.51376
12087 2 8.13646 14.2119 8.25688
12088 2 5.58746 16.9802 8.2615
12089 2 11.3151 14.1958 5.6567
12090 2 11.1812 17.2064 8.56888
12135 2 11.2874 5.80629 13.9212
12092 2 2.60931 22.681 5.38737
12093 2 2.53099 19.762 8.23345
12138 2 8.37846 8.59377 13.8214
12111 2 -0.0365422 8.54862 10.7846
12149 2 5.45088 22.5748 13.8759
12084 2 -0.196765 16.8182 8.36368
12074 2 -0.0940031 11.4087 8.18466
12034 2 -0.157211 17.1449 2.51332
15022 2 13.8629 8.44421 2.46891
12044 2 -0.214854 22.785 2.49574
12116 2 0.131487 14.0024 11.0369
12139 2 5.62564 11.4181 13.8809
12046 2 8.30881 22.4728 -0.0669639
12150 2 11.2071 22.7346 13.8682
12049 2 11.18 19.6745 -0.128398
12071 2 -0.155025 8.59487 5.41539
12021 2 -0.118602 8.51164 -0.126401
12012 2 2.70693 5.57977 -0.223393
12031 2 0.200574 14.1678 -0.235617
12019 2 11.3572 2.99345 -0.23701
12137 2 0.133072 11.3794 13.9296
226 1 4.50772 -1.19301 15.5754
227 1 1.46051 -1.14861 15.0488
228 1 4.18381 1.34799 15.5456
229 1 1.10751 1.71271 15.4517
230 1 10.1856 -1.16296 15.5484
231 1 7.42892 -1.49898 15.5445
232 1 9.82831 1.58883 15.1829
233 1 7.18549 1.32809 15.1672
234 1 12.8405 -1.37617 15.2249
235 1 12.7078 1.38213 15.3815
236 1 4.2396 4.13702 15.4205
237 1 1.50002 4.58211 15.6037
238 1 4.14914 7.09521 15.3262
239 1 1.39606 7.32656 15.3008
240 1 9.73967 4.63141 15.2685
241 1 7.15014 4.32876 15.24
242 1 9.94993 7.44516 15.2877
243 1 6.72908 7.08739 15.4879
244 1 12.6347 4.41956 15.4842
245 1 12.6287 7.29415 15.465
246 1 4.21586 9.91901 15.2415
247 1 1.34941 10.0006 15.43
248 1 3.93577 12.5997 15.4602
249 1 1.28306 12.8602 15.5297
250 1 9.99625 10.0402 15.3197
251 1 7.15291 9.89223 15.4587
252 1 9.82098 12.8148 15.252
253 1 7.15265 12.8871 15.7416
254 1 12.9009 10.0071 15.3602
255 1 12.5533 12.5623 15.4527
256 1 4.22187 15.5524 15.3037
257 1 1.61082 15.6739 15.3043
258 1 4.39446 18.417 15.1803
259 1 1.51272 18.6663 15.5139
260 1 9.78485 15.6628 15.6789
261 1 7.21607 15.7287 15.505
262 1 9.84523 18.4374 15.3748
263 1 7.14402 18.3591 15.3685
264 1 12.5266 15.4868 15.2255
265 1 12.7886 18.2971 15.4366
266 1 4.04037 21.3948 15.3575
267 1 1.25413 21.2956 15.469
268 1 9.59836 21.339 15.2045
269 1 6.94929 21.0852 15.2846
270 1 12.8079 20.9582 15.3939
271 1 1.07857 -1.35243 18.1885
272 1 3.82872 -0.919403 18.6099
273 1 4.37153 -1.54283 21.2333
274 1 1.48193 -1.27886 20.9904
275 1 1.61373 1.2852 18.3832
276 1 4.7594 1.64756 18.4595
277 1 4.33753 1.34038 21.2858
278 1 1.26968 1.56644 21.1701
279 1 7.08095 -1.44829 18.5024
280 1 9.91117 -1.48029 18.1831
281 1 9.8991 -1.50284 20.9475
282 1 7.04587 -1.13362 21.151
283 1 7.20596 1.32115 17.8129
284 1 9.69886 1.36959 18.2837
285 1 10.0073 1.27862 21.1917
286 1 7.21047 1.45322 20.925
287 1 13.0453 -1.19462 18.465
288 1 12.6472 -1.55107 21.0165
289 1 12.5666 1.59119 17.876
290 1 12.5792 1.52337 20.8087
291 1 1.20125 4.05105 18.4638
292 1 4.13334 4.60043 18.142
293 1 4.38745 3.855 21.0895
294 1 1.36967 4.32764 21.1594
295 1 1.11893 7.09641 18.0198
296 1 4.24627 7.34458 18.0616
297 2 5.34457 5.48212 22.3616
298 1 3.95757 6.76357 21.1394
299 1 7.10452 4.21029 18.2557
300 1 9.75245 4.21018 18.3614
301 1 9.85145 4.07838 20.8867
302 1 7.13399 4.13061 20.8643
303 1 7.16827 7.36381 18.4757
304 1 10.1628 7.00764 17.8916
305 1 9.72283 6.85508 20.8522
306 1 6.65002 6.55532 21.016
307 1 12.8645 4.25298 18.1673
308 1 12.7993 4.12041 21.0174
309 1 12.8258 7.03215 18.1692
310 1 12.8854 6.86399 21.0623
311 1 1.38747 10.0459 18.2184
312 1 4.22375 10.0745 18.0349
313 1 4.36324 9.74602 21.1277
314 1 1.60831 9.91181 21.1816
315 1 1.45995 12.6632 18.2764
316 1 4.17202 12.9985 18.1967
317 1 3.9559 12.5176 20.8947
318 1 1.39768 12.8337 21.0676
319 1 7.21944 10.1711 18.3673
320 1 9.9697 9.75113 18.1584
321 1 9.89872 9.82846 21.2042
322 1 7.01608 9.63947 20.9836
323 1 6.90057 12.9447 18.3859
324 1 9.85028 12.9954 18.1859
325 1 9.3262 12.4936 20.7351
326 1 6.50898 12.4936 21.1337
327 1 12.6767 9.75041 18.1318
328 1 12.6073 9.66959 20.715
329 1 12.5404 12.6196 18.1352
330 1 12.7478 12.4642 20.5879
331 1 1.12368 15.7398 18.0543
332 1 4.27428 15.6027 18.1791
333 1 4.43856 15.5288 20.9892
334 1 1.48381 15.6486 20.8454
335 1 1.25919 18.7448 18.2508
336 1 4.31928 18.3466 18.0326
337 1 4.4941 18.4728 21.05
338 1 1.54986 18.5002 21.191
339 1 6.85131 15.6371 18.3266
340 1 9.9523 15.6978 18.5143
341 1 7.33175 15.875 21.1684
342 1 7.16213 15.6706 23.9754
343 1 7.33295 18.5825 18.2293
344 1 10.1992 18.5549 18.1307
345 1 9.63053 18.0335 20.6518
346 1 7.13145 18.7284 21.2715
347 1 12.8199 15.6631 18.1764
348 1 12.4611 15.6147 20.7393
349 1 13.0994 18.4176 18.2363
350 1 12.591 18.5008 21.1604
351 1 1.45637 21.7542 18.2375
352 1 4.15562 21.0944 18.0931
353 1 4.01069 21.3117 21.0269
354 1 1.1208 21.2392 21.0517
355 1 6.83306 21.4393 17.9388
356 1 9.70643 21.4227 17.9537
357 1 9.7713 21.2095 20.8631
358 1 7.08882 21.3475 20.9725
359 1 12.4096 21.1859 18.5014
12191 2 -0.0704712 19.8133 16.8265
361 1 1.28257 -1.38194 23.8525
362 1 4.07237 -1.01639 24.0243
363 1 4.16578 -1.26359 26.8808
364 1 1.41778 -1.23529 26.5592
365 1 1.56727 1.65405 23.8243
366 1 4.77769 2.07071 24.2295
367 1 4.05089 1.50374 26.7953
368 1 1.17588 1.42253 26.9132
369 1 6.90952 -1.19632 23.9877
370 1 9.74933 -1.4159 23.7167
371 1 10.1626 -1.49478 26.5608
372 1 7.06822 -1.2338 26.7447
373 1 7.26283 1.45413 23.8757
374 1 9.97836 1.50994 23.9374
375 1 9.98216 1.4813 26.9659
376 1 7.25269 1.64981 26.6903
377 1 12.6175 -1.52483 23.7706
378 1 12.9213 -1.41406 26.6975
379 1 12.7545 1.39492 23.7626
380 1 12.6332 1.46742 26.5524
381 1 1.19909 4.33774 24.0072
382 1 3.87647 4.61607 24.0694
383 1 4.05998 4.2114 26.8679
384 1 0.932464 3.99337 26.7536
385 1 1.16252 7.13256 24.1552
386 1 4.05576 7.46617 23.8253
387 1 3.81496 7.17314 26.6657
388 1 1.00185 7.05167 26.9886
389 1 6.78163 4.42488 23.6858
390 1 9.59182 4.12202 23.7061
391 1 9.94664 4.36406 26.7569
392 1 7.15491 4.30832 26.4654
393 1 6.64993 6.84901 23.7009
394 1 9.96759 6.60628 23.5758
395 1 9.60322 6.95802 26.7688
396 1 7.0809 7.30654 26.8392
397 1 12.3301 4.26476 23.6839
398 1 12.6219 4.23384 26.5325
399 1 12.6336 7.20519 23.766
400 1 12.3965 7.18425 26.7034
401 1 1.25062 10.0449 23.9533
402 1 4.01295 10.1298 23.9578
403 1 3.99036 10.0665 26.7673
404 1 1.31341 9.84415 27.0382
405 1 1.28105 12.7697 23.9603
406 1 4.20568 12.6462 23.7633
407 1 4.25819 12.9178 26.5538
408 1 1.63634 12.5146 26.7905
409 1 7.35992 9.82959 23.683
410 1 9.96771 9.57932 23.9215
411 1 9.61335 9.78098 26.5848
412 1 6.63601 9.88411 26.3726
413 1 6.99882 12.8486 23.7525
414 1 9.64559 12.5822 23.9957
415 1 9.68865 12.5022 26.4714
416 1 7.14559 12.6156 26.5852
417 1 12.6815 10.0182 23.8702
418 1 12.5083 9.83648 26.6532
419 1 13.0113 12.6294 23.737
420 1 12.6067 12.6671 26.3948
421 1 1.48976 15.4604 23.7876
422 1 4.18389 15.5517 23.7444
423 1 4.11078 15.901 26.5615
424 1 1.43648 15.4269 26.8175
425 1 1.39533 18.2612 23.8128
426 1 4.19336 18.6443 23.8444
427 1 4.2602 18.5636 26.6305
428 1 1.30394 18.3147 26.6469
429 1 9.90649 16.1692 23.8687
430 1 9.89852 18.7997 23.899
431 1 12.7414 15.7014 27.0347
432 1 6.63054 15.4986 26.9222
433 1 6.9656 18.5905 23.8433
434 1 12.5615 18.5897 23.8374
435 1 9.72615 18.3414 26.7969
436 1 7.09262 18.38 26.6877
437 1 12.9045 15.9596 24.117
12143 2 8.46224 14.33 14.052
439 1 12.409 21.5125 21.1223
440 1 12.6515 18.5172 26.7066
441 1 1.39161 21.1133 23.876
442 1 4.18469 21.337 23.7331
443 1 4.09067 21.4164 26.7295
444 1 1.18847 21.2571 26.8756
445 1 6.81611 21.0972 23.9391
446 1 9.72559 21.2983 23.9404
447 1 9.61737 21.1472 27.0254
448 1 6.88346 21.0099 26.6926
449 1 12.8266 21.1782 23.8525
450 1 12.552 21.1286 26.6444
12026 2 8.30365 11.2726 27.8862
12250 2 11.1071 22.5549 25.2553
15222 2 13.8434 8.60941 25.1241
12161 2 -0.0512526 2.94879 16.9229
12241 2 -0.0533903 19.9728 22.4603
12227 2 8.32446 8.41566 25.2504
12249 2 11.3172 19.9992 22.4696
12226 2 8.50931 11.4983 22.5413
12225 2 5.82895 8.7552 22.5096
12209 2 11.1104 -2.72048 22.3813
12223 2 2.59212 8.74056 25.2554
12248 2 5.45685 22.5692 25.2337
12222 2 2.72481 11.4505 22.4457
12228 2 5.48816 11.4853 25.3013
12144 2 5.75579 17.0301 14.0473
12220 2 11.2905 5.77107 25.2723
12247 2 8.51737 19.7883 25.2866
12146 2 2.61189 19.9999 13.987
12231 2 0.0180795 14.1708 22.309
12194 2 -0.0608764 22.6686 19.58
12219 2 11.3477 2.73524 22.3738
12246 2 8.41323 22.5997 22.5666
6309 1 1.26897 7.35672 20.9024
12218 2 5.40295 5.62559 25.5949
12132 2 0.0437609 5.86206 14.1285
12245 2 5.50855 19.9254 22.3785
12152 2 2.75461 -0.0187617 16.9109
12157 2 8.50695 -2.6755 19.5025
12243 2 2.79019 19.8603 25.2795
12153 2 2.93842 -2.69724 19.7018
12156 2 8.60717 0.0318072 16.5782
12141 2 2.72442 14.2113 13.9842
12158 2 5.88109 0.0794268 19.6392
12205 2 5.77656 -2.74145 22.5715
12160 2 11.2161 -0.0641985 19.6402
12242 2 2.73279 22.6591 22.4069
12162 2 2.75531 5.94017 16.6822
12163 2 2.71453 2.84961 19.7344
12240 2 11.2049 17.096 25.4694
12165 2 5.78376 2.86603 16.8747
12166 2 8.75369 6.04287 16.6372
12167 2 8.39057 2.78741 19.3955
12168 2 5.84292 5.8001 19.0944
12169 2 11.2743 2.94507 16.822
12170 2 11.353 5.60034 19.5033
12239 1 9.77389 15.3911 26.6592
12172 2 2.66834 11.3355 16.8021
12173 2 2.66054 8.76899 19.6827
12238 2 5.67135 17.1883 24.9836
12175 2 5.57437 8.70471 16.8503
12176 2 8.66335 11.4415 16.7535
12177 2 8.58368 8.62154 19.4239
12178 2 5.51539 11.2359 19.6288
12179 2 11.3288 8.61534 16.6042
12180 2 11.3444 11.1014 19.4654
12237 2 8.51357 14.2327 25.0924
12182 2 2.92145 16.8207 16.6036
12183 2 2.73848 14.2733 19.632
12236 2 8.62488 17.4428 22.5593
12185 2 5.54751 14.0723 16.8408
12186 2 8.73787 17.1539 16.9896
12187 2 8.42409 14.1853 19.3832
12188 2 5.84354 17.0139 19.6701
12189 2 11.5768 14.1482 16.8027
12190 2 11.5436 17.0702 19.5263
12235 2 5.91771 14.3533 22.3283
12192 2 2.63218 22.846 16.7624
12193 2 2.91851 19.795 19.5944
12032 2 2.73598 16.9973 28.0648
12195 2 5.57826 19.781 16.8449
12196 2 8.25728 22.708 16.721
12197 2 8.68633 20.0172 19.4853
12198 2 5.77641 22.7208 19.5407
12199 2 11.2128 19.9105 16.6928
12200 2 11.1224 22.8346 19.7376
12233 2 2.82794 14.0747 25.1673
12202 2 2.70037 -0.0273688 22.6001
12174 2 0.000716192 11.2919 19.5006
12232 2 2.87972 17.1142 22.5418
12201 2 0.169168 -2.77533 22.4754
12206 2 8.53017 -0.010276 22.4881
12244 2 -0.0954515 22.7086 25.3741
12208 2 5.65528 0.251405 25.517
12029 2 10.9557 8.36707 28.0326
12210 2 11.2957 0.208472 25.1553
12230 2 11.2775 11.2417 25.1281
12212 2 2.38458 6.03605 22.6175
12213 2 2.52434 2.8862 25.3764
12229 2 11.3766 8.18399 22.1299
12215 2 5.72818 2.49853 22.3884
12216 2 8.66178 5.25073 22.2269
12217 2 8.73875 2.86518 25.4631
12154 2 -0.148644 -0.00806635 19.5336
12184 2 -0.187883 17.0381 19.6248
12130 2 11.4032 0.31402 13.9945
12203 2 2.91008 -2.58363 25.513
12006 2 8.33871 0.0829604 28.1031
12127 2 0.0109283 0.0889885 14.1501
12181 2 0.11416 14.3146 16.6849
12145 2 11.4021 16.9939 13.9535
15231 2 13.924 17.0663 22.5132
12035 2 5.50442 14.0495 28.1199
12164 2 -0.236347 5.60625 19.7435
12211 2 -0.176392 2.79625 22.4967
12224 2 -0.173091 11.5197 25.2285
12131 2 2.74866 2.89153 14.1093
12134 2 5.59743 5.49087 14.0102
12221 2 -0.111855 8.69459 22.6391
12171 2 -0.0746836 8.55262 16.6803
12147 2 -0.217232 22.7143 14.0347
12039 2 11.3674 14.1645 27.9842
12045 2 5.43047 19.7753 28.0289
15011 2 13.8177 5.98795 27.9851
12041 2 -0.0998547 19.7841 28.1257
12133 2 8.28844 2.85866 13.9609
12002 2 2.57044 -0.0660609 28.1276
12129 2 5.5158 0.147233 13.9742
12136 2 2.51943 8.86282 14.0539
12148 2 8.36076 19.8835 13.989
451 1 1.2549 24.1906 1.12065
452 1 4.13626 24.0507 1.20128
453 1 3.93271 24.099 3.97458
454 1 1.35939 24.1663 3.88846
455 1 6.87521 24.068 1.33551
456 1 9.85999 23.7943 0.99937
457 1 9.59117 24.2139 3.78149
458 1 6.98739 24.1095 4.06539
459 1 12.7388 23.9986 1.13499
460 1 12.552 26.8374 4.20307
461 1 1.39845 26.8482 0.991324
462 1 4.25805 26.7208 1.37423
463 1 4.11905 26.9671 4.03905
464 1 1.27058 27.0714 4.15409
465 1 1.08638 32.3919 0.872199
466 1 3.81968 29.6961 1.23448
467 1 3.96539 29.7174 3.78997
468 1 1.13144 29.6962 1.13457
469 1 7.06381 26.8339 1.26999
470 1 9.96835 26.6244 1.23052
471 1 9.66825 26.9519 4.14643
472 1 7.00333 26.9371 4.08383
473 1 6.94596 29.8153 0.985328
474 1 9.6919 29.6214 1.22025
475 1 9.66228 29.8317 4.0864
476 1 6.88076 29.7377 3.91133
477 1 12.6275 26.8508 1.34607
478 1 12.2384 29.7158 3.71754
1009 1 7.03058 49.4748 6.59265
1105 1 6.99356 49.5218 12.5485
544 1 1.55753 26.7248 9.86935
482 1 3.9168 32.6755 1.34228
483 1 3.90046 32.3017 4.04326
484 1 1.37594 32.5983 3.73369
635 1 12.5044 24.1448 12.3903
486 1 4.07254 35.2897 1.10563
487 1 3.62158 35.4635 4.0147
488 1 1.22462 35.5278 0.992124
489 1 6.75982 32.5661 1.11579
490 1 9.66249 32.4606 1.22154
491 1 9.96047 32.4184 3.97557
492 1 7.11682 32.8602 3.86485
15282 2 13.8898 42.9765 2.64103
909 1 7.03132 49.5476 1.21983
495 1 9.63626 35.2932 3.8919
496 1 10.0083 35.4513 0.762291
497 1 12.6468 29.8074 1.21316
493 1 9.75498 38.3048 1.13072
15356 2 13.9164 45.4174 10.9438
499 1 12.7314 32.9026 1.40919
501 1 1.34923 38.2922 1.08733
502 1 7.05564 35.2251 1.28212
503 1 3.97199 38.2459 4.05148
504 1 1.37563 38.6378 3.94402
505 1 1.38068 41.1641 1.18869
506 1 4.30383 41.3541 0.934779
507 1 4.29408 41.1375 3.6508
508 1 1.60175 41.5452 4.15834
509 1 6.95623 38.3166 1.17409
510 1 12.8025 35.4067 1.04663
511 1 9.72764 38.3107 3.7477
512 1 6.83772 38.4522 4.17328
513 1 7.02285 41.2845 1.20479
514 1 9.91541 41.1583 0.982658
515 1 9.60795 41.1513 3.81775
516 1 6.9994 41.2775 4.05439
517 1 12.5163 38.4734 1.27074
518 1 12.8632 38.4914 3.92989
519 1 12.8052 41.4905 1.14667
520 1 12.3466 41.32 3.85367
521 1 1.34504 44.0147 1.0396
522 1 4.07564 43.9816 0.985047
523 1 4.24655 44.0321 4.02745
524 1 1.48059 44.3181 3.88213
525 1 1.37337 46.6313 1.18011
526 1 4.3491 47.0561 1.39559
527 1 4.33922 46.5103 3.9235
528 1 1.33628 46.7868 3.95572
529 1 6.88742 43.9996 1.06017
530 1 9.64093 44.1635 1.01066
531 1 9.93989 43.9025 3.75608
532 1 7.13554 44.0034 3.93085
533 1 7.01001 46.7375 1.28684
534 1 9.67278 46.9354 1.21523
535 1 9.7498 46.7744 4.01895
536 1 7.05177 47.0519 4.10258
537 1 12.3716 44.3155 1.18818
538 1 12.7795 44.1843 3.93009
539 1 12.5227 47.0967 1.12824
540 1 12.5259 46.9474 3.94798
541 1 1.1948 23.9643 9.65975
542 1 3.87109 23.9314 7.03774
543 1 4.05718 24.1379 9.77769
12326 2 -0.211879 42.7109 5.25936
545 1 6.84483 24.0923 7.02488
546 1 9.77864 24.2298 6.89263
547 1 9.53641 24.1764 9.68914
548 1 6.84016 24.458 9.9475
549 1 12.786 24.1665 6.74335
550 1 12.3839 24.1548 9.68782
551 1 1.51018 30.0538 6.72308
552 1 1.14177 24.413 6.68316
553 1 3.37732 26.9146 6.41618
554 1 4.35792 26.9277 9.75247
555 1 1.15588 29.714 3.98336
556 1 4.29132 29.6027 6.68086
557 1 4.18483 29.9819 9.45627
558 1 1.48564 30.2128 9.80306
559 1 6.73498 27.2031 6.7811
560 1 9.60424 26.9121 6.92088
561 1 9.72524 26.967 9.56481
562 1 7.13725 27.5056 9.53021
563 1 7.07002 29.8579 6.76425
564 1 9.84333 29.7201 7.08222
565 1 9.86588 29.7737 9.80407
566 1 7.05312 30.3958 9.72342
567 1 12.6416 26.9907 6.78497
568 1 12.587 26.9133 9.8702
569 1 12.7251 29.879 6.43685
570 1 12.6903 29.6676 9.53492
571 1 1.06301 35.5942 6.85331
572 1 3.88706 32.3693 6.68263
573 1 3.98783 32.927 9.6626
574 1 1.04398 32.8681 9.54922
575 1 0.938404 35.558 3.90047
576 1 3.84813 35.363 6.87302
577 1 4.60835 35.6584 9.59943
578 1 1.60977 35.5663 9.75602
579 1 6.74886 35.4394 6.71524
580 1 9.88807 32.6491 7.0764
581 1 9.75154 32.2533 10.0105
582 1 6.82384 32.5298 6.71623
583 1 6.50335 35.8256 3.73539
584 1 9.8839 35.4713 6.65522
585 1 9.82812 35.4032 9.82649
586 1 7.24511 33.4035 9.251
587 1 12.6796 32.6185 6.9039
588 1 12.5834 32.7188 9.71958
589 1 12.7643 35.6174 9.74859
590 1 12.8676 38.4618 9.55205
591 1 1.20703 38.6255 6.90855
592 1 3.80301 38.4086 6.9531
593 1 4.16645 38.5513 9.78807
594 1 1.4393 38.4067 9.87437
595 1 0.940497 41.2465 7.07647
596 1 3.80845 41.3283 6.52164
597 1 4.23208 41.2661 9.81684
598 1 1.32633 41.248 9.80133
599 1 7.01503 38.8051 6.96496
600 1 10.1245 38.4318 6.71632
601 1 9.95483 38.5577 9.9794
602 1 6.73042 38.5774 10.0028
603 1 6.89933 41.31 6.91365
604 1 9.73761 41.1787 6.7988
605 1 9.78359 44.0011 9.71584
606 1 6.92886 41.2593 9.71384
607 1 12.785 35.4139 6.80503
608 1 12.9673 38.1793 6.74953
609 1 12.6796 41.3489 6.74201
610 1 12.5533 41.1794 9.47383
611 1 1.10193 44.1926 6.4748
612 1 3.97362 44.164 7.06807
613 1 3.92613 44.225 9.9679
614 1 0.957198 43.8697 9.4433
615 1 1.20912 47.0436 7.13153
616 1 3.90585 46.8301 6.66786
617 1 4.33932 46.7663 9.4349
618 1 1.43678 46.9161 9.89419
619 1 7.12693 43.8268 6.77551
620 1 9.76323 43.9687 6.98088
621 1 9.81061 46.9069 9.53732
622 1 6.89964 44.1234 9.53865
623 1 7.12989 46.625 6.87298
624 1 9.8576 46.9752 6.83198
631 1 1.42227 24.1182 12.5617
626 1 6.93383 46.9505 9.57327
627 1 12.7544 44.2515 6.87165
628 1 12.58 43.961 9.84993
629 1 12.6026 47.0895 6.86147
630 1 12.5536 46.9322 9.80917
12306 2 -0.22426 31.1627 5.53586
12341 2 -0.123573 25.636 11.0414
633 1 7.15058 24.1572 12.7951
634 1 9.82709 24.2068 12.7395
15327 2 13.9352 42.603 8.29781
636 1 1.1531 26.8248 12.7924
637 1 4.11207 27.1118 12.4984
638 1 1.21794 29.6211 12.6491
639 1 4.2455 29.9111 12.4315
640 1 6.86476 27.2633 12.3623
641 1 9.76112 26.9527 12.5299
642 1 6.97125 29.9392 12.454
643 1 9.89894 29.7623 12.6624
644 1 12.5843 26.9513 12.5136
645 1 12.8742 29.9181 12.4627
646 1 1.12972 32.7225 12.5616
647 1 4.19812 32.6881 12.3623
648 1 1.12548 35.5877 12.7517
649 1 3.86778 35.3819 12.5508
650 1 6.91253 32.5935 12.1039
651 1 9.89795 32.6086 12.5644
652 1 6.85153 35.5576 12.1048
653 1 9.82929 35.333 12.6636
654 1 12.5062 32.6107 12.6185
655 1 12.8062 35.3424 12.6564
656 1 1.45119 38.5754 12.4539
657 1 4.39093 38.2215 12.792
658 1 1.21788 41.2573 12.7079
659 1 3.92757 41.2231 12.7991
660 1 7.11186 38.3606 12.572
661 1 10.1806 38.0108 12.6514
662 1 6.65739 41.1918 12.4407
663 1 9.5571 41.1577 12.5401
664 1 12.7625 38.079 12.2478
665 1 12.3827 41.3098 12.3273
666 1 1.18615 44.1002 12.1802
667 1 3.976 44.1192 12.7862
668 1 1.24622 46.7936 12.6743
669 1 4.14294 46.9641 12.4792
670 1 6.79907 43.9229 12.5817
671 1 9.75222 43.9274 12.505
672 1 6.96286 46.7184 12.4571
673 1 9.71626 46.7068 12.1764
674 1 12.5636 43.9419 12.5256
675 1 12.6608 46.6984 12.4425
12363 2 11.0838 48.2937 11.0705
12364 2 2.68757 25.6163 13.7954
12253 2 2.6074 25.5481 2.6111
12362 2 5.5805 48.0086 11.063
12349 2 8.67508 33.9802 11.1915
12265 2 5.394 31.0325 -0.115215
12257 2 8.34968 25.5462 2.70638
12258 2 5.47103 27.9888 2.66102
12356 2 -0.236374 42.471 11.0821
12260 2 11.1012 28.1043 2.52979
480 1 12.3838 35.418 3.71239
12351 2 0.0300772 36.9718 11.232
12263 2 2.53395 31.1024 2.37709
12360 2 11.1667 42.708 11.0287
15336 2 13.8326 48.3756 8.3234
6464 1 12.9716 32.7076 4.09714
12267 2 8.39392 31.0671 2.56397
12268 2 5.78702 33.9985 2.60513
12336 2 0.0443899 48.2819 5.51616
12270 2 10.9343 33.9355 2.50073
12359 2 8.38255 45.3545 10.9813
12319 2 -0.214393 39.7295 8.29935
12273 2 2.54911 37.0483 2.75668
12358 2 5.52406 42.6588 11.2622
12254 2 -0.0308947 28.2653 2.62764
12384 2 2.75152 48.0717 13.889
12277 2 8.19438 36.8873 2.83981
12278 2 5.71777 39.8938 2.58353
15252 2 13.9063 25.5248 2.82617
12280 2 11.0571 39.831 2.49288
632 1 4.18025 24.1729 12.3779
12255 2 5.54375 25.3273 -0.205067
12283 2 2.64884 42.7843 2.37534
12347 2 2.59709 34.0736 11.2552
12376 2 8.47019 36.7208 13.7638
12275 2 5.77377 37.0081 -0.0922124
12287 2 8.48324 42.544 2.43153
12288 2 5.57535 45.2826 2.48677
12350 2 11.3761 31.0441 11.1221
12290 2 11.1437 45.7319 2.45934
12383 2 11.3229 45.4075 13.7777
12292 2 2.81794 48.3102 2.52212
12352 2 2.81935 40.0703 11.2713
12294 2 8.1249 48.1985 2.78608
1012 1 7.0293 49.4172 9.69756
12357 2 2.53649 45.5284 11.0734
12297 2 2.58241 28.595 5.37623
12298 2 2.7114 25.3301 8.47552
12299 1 1.19747 32.8265 6.78201
12300 2 5.29232 25.6839 5.66929
12301 2 8.32252 28.4201 5.37305
12302 2 8.25877 25.7252 8.34645
12303 2 5.7898 28.8402 8.18507
12304 2 11.1769 25.3665 5.3114
12305 2 11.3227 28.0853 8.30758
12348 2 5.4524 31.3624 11.0899
12307 2 2.46265 33.8429 5.42843
12308 2 2.49942 31.5369 8.26377
12355 2 11.2252 36.879 11.1404
12310 2 5.32419 31.0582 5.26416
12311 2 8.43711 33.9224 5.70473
12312 2 8.51331 31.3166 8.46934
12313 2 5.32095 33.8716 8.04465
12314 2 11.2278 31.1454 5.35681
12315 2 11.0809 34.2868 8.21646
12354 2 8.29081 39.835 10.9398
12317 2 2.65585 39.8809 5.48471