LAMMPS (29 Oct 2020)
OMP_NUM_THREADS environment is not set. Defaulting to 1 thread. (../comm.cpp:94)
  using 1 OpenMP thread(s) per MPI task
#---------------------------------------
#
# This script is used to calculate the thermal conuctivity of UO2 using Muller-Plathe method
# By Ziqiang Wang on 03/18/2022 on Jilin university
#
#---------------------------------------

variable     Nevery    equal   50
variable     T         equal   600

clear
OMP_NUM_THREADS environment is not set. Defaulting to 1 thread. (../comm.cpp:94)
  using 1 OpenMP thread(s) per MPI task
units          metal
boundary       p p p
atom_style     full

read_data vac_0.005_relaxed.dat
Reading data file ...
  orthogonal box = (-0.36140872 -4.3385321 -0.35366716) to (27.701409 332.41853 27.693667)
  2 by 13 by 2 MPI processor grid
  reading atoms ...
  17910 atoms
  reading velocities ...
  17910 velocities
Finding 1-2 1-3 1-4 neighbors ...
  special bond factors lj:    0.0      0.0      0.0     
  special bond factors coul:  0.0      0.0      0.0     
     0 = max # of 1-2 neighbors
     0 = max # of 1-3 neighbors
     0 = max # of 1-4 neighbors
     1 = max # of special neighbors
  special bonds CPU = 0.004 seconds
  read_data CPU = 0.077 seconds

set           type     1    charge     -1.1104
Setting atom values ...
  11940 settings made for charge
set           type     2    charge      2.2208
Setting atom values ...
  5970 settings made for charge

kspace_style    pppm   1.0e-05
pair_style      hybrid/overlay  coul/long  11.0  eam/alloy
pair_coeff      * * coul/long
pair_coeff      * * eam/alloy CeThUNpPuAmCmO.eam.alloy O Th
newton          on
neighbor        0.3 bin
neigh_modify    delay 0 check yes every 1

#The first equilation
velocity        all create $T 10005 mom yes rot yes dist gaussian
velocity        all create 600 10005 mom yes rot yes dist gaussian
fix             nvt  all  nvt  temp  $T $T  0.1
fix             nvt  all  nvt  temp  600 $T  0.1
fix             nvt  all  nvt  temp  600 600  0.1

run             100000
PPPM initialization ...
  using 12-bit tables for long-range coulomb (../kspace.cpp:328)
  G vector (1/distance) = 0.29883599
  grid = 40 240 40
  stencil order = 5
  estimated absolute RMS force accuracy = 0.00015730388
  estimated relative force accuracy = 1.092415e-05
  using single precision MKL FFT
  3d grid and FFT values/proc = 15000 7600
Neighbor list info ...
  update every 1 steps, delay 0 steps, check yes
  max neighbors/atom: 2000, page size: 100000
  master list distance cutoff = 11.3
  ghost atom cutoff = 11.3
  binsize = 5.65, bins = 5 60 5
  2 neighbor lists, perpetual/occasional/extra = 2 0 0
  (1) pair coul/long, perpetual
      attributes: half, newton on
      pair build: half/bin/newton
      stencil: half/bin/3d/newton
      bin: standard
  (2) pair eam/alloy, perpetual, copy from (1)
      attributes: half, newton on
      pair build: copy
      stencil: none
      bin: none
Per MPI rank memory allocation (min/avg/max) = 8.160 | 8.183 | 8.198 Mbytes
Step Temp E_pair E_mol TotEng Press 
       0          600   -234200.51            0   -232811.56   -931.29546 
  100000    600.64179   -234203.84            0    -232813.4   -997.47091 
Loop time of 644.433 on 52 procs for 100000 steps with 17910 atoms

Performance: 13.407 ns/day, 1.790 hours/ns, 155.175 timesteps/s
99.8% CPU use with 52 MPI tasks x 1 OpenMP threads

MPI task timing breakdown:
Section |  min time  |  avg time  |  max time  |%varavg| %total
---------------------------------------------------------------
Pair    | 434.54     | 449.44     | 462.76     |  27.0 | 69.74
Bond    | 0.00641    | 0.010476   | 0.018374   |   2.0 |  0.00
Kspace  | 124.92     | 141.19     | 160.08     |  59.8 | 21.91
Neigh   | 31.948     | 34.721     | 36.936     |  19.6 |  5.39
Comm    | 13.937     | 14.876     | 17.402     |  23.2 |  2.31
Output  | 5.6024e-05 | 6.1658e-05 | 0.00027467 |   0.0 |  0.00
Modify  | 1.7203     | 2.9596     | 5.0609     |  61.0 |  0.46
Other   |            | 1.243      |            |       |  0.19

Nlocal:        344.423 ave         364 max         323 min
Histogram: 1 3 4 8 12 7 7 1 4 5
Nghost:        4142.58 ave        4250 max        4039 min
Histogram: 3 4 8 7 8 5 3 6 2 6
Neighs:        69258.0 ave       73417 max       62805 min
Histogram: 1 1 1 2 7 17 9 5 4 5

Total # of neighbors = 3601416
Ave neighs/atom = 201.08409
Ave special neighs/atom = 0.0000000
Neighbor list builds = 16226
Dangerous builds = 0
unfix           nvt
reset_timestep  0

# the second run
fix             1 all nve

group           oxygen type 1
11940 atoms in group oxygen
fix             2 oxygen thermal/conductivity ${Nevery} y 20
fix             2 oxygen thermal/conductivity 50 y 20

compute         ke all ke/atom
variable        temp atom c_ke/1.5
compute         layers all chunk/atom bin/1d y lower 0.05 units reduced
fix             3      all ave/chunk  2000 50 100000 layers v_temp file profile_${T}K.mp
fix             3      all ave/chunk  2000 50 100000 layers v_temp file profile_600K.mp

variable        Tdiff    equal     f_3[11][3]-f_3[1][3]
variable        deltaT   equal     v_Tdiff*1.5/0.0001292

timestep        0.001
thermo_style    custom step f_2 temp v_Tdiff v_deltaT
thermo          100000

run             1500000
PPPM initialization ...
  using 12-bit tables for long-range coulomb (../kspace.cpp:328)
  G vector (1/distance) = 0.29883599
  grid = 40 240 40
  stencil order = 5
  estimated absolute RMS force accuracy = 0.00015730388
  estimated relative force accuracy = 1.092415e-05
  using single precision MKL FFT
  3d grid and FFT values/proc = 15000 7600
Per MPI rank memory allocation (min/avg/max) = 8.411 | 8.434 | 8.448 Mbytes
Step f_2 Temp v_Tdiff v_deltaT 
       0            0    600.64179            0            0 
  100000    710.35604    597.24978  0.016000689    185.76651 
  200000    1411.5735    596.54633  0.017199687    199.68677 
  300000    2104.3961    601.47767  0.017485196     203.0015 
  400000     2796.385    596.75682  0.017284071    200.66646 
  500000    3496.8807    600.51012  0.017818809    206.87471 
  600000    4195.1898    601.44113  0.016684552     193.7061 
  700000    4894.0562    603.48093  0.017232915    200.07254 
  800000    5587.5998    602.24638  0.017205942    199.75939 
  900000      6280.65    595.77755  0.017281388    200.63531 
 1000000    6973.9081    596.80221  0.017231748      200.059 
 1100000    7673.0156    596.18865  0.017530043    203.52217 
 1200000    8368.5947    599.49835  0.017129009    198.86621 
 1300000    9064.1377    603.29819  0.017583597    204.14393 
 1400000    9762.8525    596.56385  0.017165834    199.29374 
 1500000    10458.732    601.06783  0.017124908    198.81859 
Loop time of 9521.72 on 52 procs for 1500000 steps with 17910 atoms

Performance: 13.611 ns/day, 1.763 hours/ns, 157.535 timesteps/s
99.8% CPU use with 52 MPI tasks x 1 OpenMP threads

MPI task timing breakdown:
Section |  min time  |  avg time  |  max time  |%varavg| %total
---------------------------------------------------------------
Pair    | 6384.5     | 6624.3     | 6781.3     |  96.3 | 69.57
Bond    | 0.10059    | 0.15672    | 0.23582    |   7.0 |  0.00
Kspace  | 1920.1     | 2090.7     | 2386       | 206.7 | 21.96
Neigh   | 494.65     | 531.6      | 566.35     |  66.8 |  5.58
Comm    | 210.23     | 224.08     | 264.92     |  92.9 |  2.35
Output  | 0.0015581  | 0.0016658  | 0.0034715  |   0.6 |  0.00
Modify  | 7.8194     | 8.6489     | 9.4833     |  13.5 |  0.09
Other   |            | 42.22      |            |       |  0.44

Nlocal:        344.423 ave         370 max         323 min
Histogram: 1 5 9 7 12 6 3 3 4 2
Nghost:        4151.96 ave        4301 max        4037 min
Histogram: 5 6 8 1 9 10 6 3 1 3
Neighs:        69255.2 ave       74986 max       61916 min
Histogram: 1 1 0 5 13 14 5 7 3 3

Total # of neighbors = 3601273
Ave neighs/atom = 201.07610
Ave special neighs/atom = 0.0000000
Neighbor list builds = 247579
Dangerous builds = 0

Total wall time: 2:49:26
