LAMMPS (29 Oct 2020)
OMP_NUM_THREADS environment is not set. Defaulting to 1 thread. (../comm.cpp:94)
  using 1 OpenMP thread(s) per MPI task
#---------------------------------------
#
# This script is used to calculate the thermal conuctivity of UO2 using Muller-Plathe method
# By Ziqiang Wang on 03/18/2022 on Jilin university
#
#---------------------------------------

variable     Nevery    equal   50
variable     T         equal   900

clear
OMP_NUM_THREADS environment is not set. Defaulting to 1 thread. (../comm.cpp:94)
  using 1 OpenMP thread(s) per MPI task
units          metal
boundary       p p p
atom_style     full

read_data vac_0_relaxed.dat
Reading data file ...
  orthogonal box = (-0.38966413 -3.6187975 -0.40056334) to (27.729664 249.67880 27.740563)
  2 by 13 by 2 MPI processor grid
  reading atoms ...
  13500 atoms
  reading velocities ...
  13500 velocities
Finding 1-2 1-3 1-4 neighbors ...
  special bond factors lj:    0.0      0.0      0.0     
  special bond factors coul:  0.0      0.0      0.0     
     0 = max # of 1-2 neighbors
     0 = max # of 1-3 neighbors
     0 = max # of 1-4 neighbors
     1 = max # of special neighbors
  special bonds CPU = 0.004 seconds
  read_data CPU = 0.190 seconds

set           type     1    charge     -1.1104
Setting atom values ...
  9000 settings made for charge
set           type     2    charge      2.2208
Setting atom values ...
  4500 settings made for charge

kspace_style    pppm   1.0e-05
pair_style      hybrid/overlay  coul/long  11.0  eam/alloy
pair_coeff      * * coul/long
pair_coeff      * * eam/alloy CeThUNpPuAmCmO.eam.alloy O Th Th O
newton          on
neighbor        0.3 bin
neigh_modify    delay 0 check yes every 1

#The first equilation
velocity        all create $T 10003 mom yes rot yes dist gaussian
velocity        all create 900 10003 mom yes rot yes dist gaussian
fix             nvt  all  nvt  temp  $T $T  0.1
fix             nvt  all  nvt  temp  900 $T  0.1
fix             nvt  all  nvt  temp  900 900  0.1

run             100000
PPPM initialization ...
  using 12-bit tables for long-range coulomb (../kspace.cpp:328)
  G vector (1/distance) = 0.29981091
  grid = 40 192 40
  stencil order = 5
  estimated absolute RMS force accuracy = 0.00014460861
  estimated relative force accuracy = 1.0042512e-05
  using single precision MKL FFT
  3d grid and FFT values/proc = 12500 6000
Neighbor list info ...
  update every 1 steps, delay 0 steps, check yes
  max neighbors/atom: 2000, page size: 100000
  master list distance cutoff = 11.3
  ghost atom cutoff = 11.3
  binsize = 5.65, bins = 5 45 5
  2 neighbor lists, perpetual/occasional/extra = 2 0 0
  (1) pair coul/long, perpetual
      attributes: half, newton on
      pair build: half/bin/newton
      stencil: half/bin/3d/newton
      bin: standard
  (2) pair eam/alloy, perpetual, copy from (1)
      attributes: half, newton on
      pair build: copy
      stencil: none
      bin: none
Per MPI rank memory allocation (min/avg/max) = 7.951 | 7.974 | 7.984 Mbytes
Step Temp E_pair E_mol TotEng Press 
       0          900   -176045.58            0   -174475.18   -112.96522 
  100000    911.87866   -176066.57            0   -174475.45   -660.10827 
Loop time of 507.899 on 52 procs for 100000 steps with 13500 atoms

Performance: 17.011 ns/day, 1.411 hours/ns, 196.890 timesteps/s
99.8% CPU use with 52 MPI tasks x 1 OpenMP threads

MPI task timing breakdown:
Section |  min time  |  avg time  |  max time  |%varavg| %total
---------------------------------------------------------------
Pair    | 342.38     | 347.42     | 351.58     |  12.3 | 68.40
Bond    | 0.0061603  | 0.0088995  | 0.012988   |   1.7 |  0.00
Kspace  | 105.92     | 111.19     | 118.01     |  27.4 | 21.89
Neigh   | 31.882     | 32.889     | 34.002     |   8.9 |  6.48
Comm    | 12.291     | 12.968     | 14.355     |  16.0 |  2.55
Output  | 5.4152e-05 | 5.8995e-05 | 0.00025058 |   0.0 |  0.00
Modify  | 1.414      | 2.3496     | 3.6428     |  44.4 |  0.46
Other   |            | 1.078      |            |       |  0.21

Nlocal:        259.615 ave         275 max         242 min
Histogram: 2 1 2 9 7 12 9 7 2 1
Nghost:        3603.83 ave        3642 max        3523 min
Histogram: 1 1 1 0 3 5 14 18 7 2
Neighs:        52417.3 ave       55775 max       48576 min
Histogram: 2 2 2 5 9 14 7 7 2 2

Total # of neighbors = 2725701
Ave neighs/atom = 201.90378
Ave special neighs/atom = 0.0000000
Neighbor list builds = 19519
Dangerous builds = 0
unfix           nvt
reset_timestep  0

# the second run
fix             1 all nve

group           oxygen type 1
9000 atoms in group oxygen
fix             2 oxygen thermal/conductivity ${Nevery} y 20
fix             2 oxygen thermal/conductivity 50 y 20

compute         ke all ke/atom
variable        temp atom c_ke/1.5
compute         layers all chunk/atom bin/1d y lower 0.05 units reduced
fix             3      all ave/chunk  2000 50 100000 layers v_temp file profile_${T}K.mp
fix             3      all ave/chunk  2000 50 100000 layers v_temp file profile_900K.mp

variable        Tdiff    equal     f_3[11][3]-f_3[1][3]
variable        deltaT   equal     v_Tdiff*1.5/0.0001292

timestep        0.001
thermo_style    custom step f_2 temp v_Tdiff v_deltaT
thermo          100000

run             1500000
PPPM initialization ...
  using 12-bit tables for long-range coulomb (../kspace.cpp:328)
  G vector (1/distance) = 0.29981091
  grid = 40 192 40
  stencil order = 5
  estimated absolute RMS force accuracy = 0.00014460861
  estimated relative force accuracy = 1.0042512e-05
  using single precision MKL FFT
  3d grid and FFT values/proc = 12500 6000
Per MPI rank memory allocation (min/avg/max) = 8.202 | 8.225 | 8.234 Mbytes
Step f_2 Temp v_Tdiff v_deltaT 
       0            0    911.87866            0            0 
  100000     1030.295    915.42042  0.024287589    281.97665 
  200000    2047.1289    908.60263  0.027090818    314.52188 
  300000    3067.9295    904.06336  0.025756548    299.03113 
  400000    4080.4514    904.64307  0.026210755    304.30444 
  500000    5102.5163    908.29771  0.026394754    306.44064 
  600000    6126.1362    900.51936  0.025449079    295.46145 
  700000    7150.8859    910.36303  0.025790518    299.42552 
  800000    8163.5114    914.31647  0.026778802     310.8994 
  900000    9176.0017    907.87697  0.026901066    312.31888 
 1000000     10190.74    901.38468    0.0276029     320.4671 
 1100000    11210.246    904.29968  0.026221972    304.43466 
 1200000    12225.953    904.82641  0.026482876    307.46374 
 1300000    13240.508    895.52413  0.027796842    322.71876 
 1400000    14257.538    905.67093   0.02649295    307.58069 
 1500000    15273.241    903.36103  0.025968148    301.48779 
Loop time of 7541.88 on 52 procs for 1500000 steps with 13500 atoms

Performance: 17.184 ns/day, 1.397 hours/ns, 198.890 timesteps/s
99.8% CPU use with 52 MPI tasks x 1 OpenMP threads

MPI task timing breakdown:
Section |  min time  |  avg time  |  max time  |%varavg| %total
---------------------------------------------------------------
Pair    | 5047.7     | 5140.1     | 5203.2     |  46.6 | 68.15
Bond    | 0.085464   | 0.13509    | 0.18344    |   5.6 |  0.00
Kspace  | 1590.7     | 1669.1     | 1767.6     | 105.9 | 22.13
Neigh   | 482.32     | 500.49     | 515.74     |  35.0 |  6.64
Comm    | 183.29     | 193.26     | 213.77     |  60.8 |  2.56
Output  | 0.0015554  | 0.0016554  | 0.0032173  |   0.5 |  0.00
Modify  | 6.0677     | 6.6784     | 7.2214     |  10.3 |  0.09
Other   |            | 32.15      |            |       |  0.43

Nlocal:        259.615 ave         267 max         241 min
Histogram: 1 2 1 2 1 4 7 11 12 11
Nghost:        3576.62 ave        3610 max        3471 min
Histogram: 1 2 1 0 0 0 9 13 17 9
Neighs:        52418.5 ave       53973 max       48762 min
Histogram: 1 2 3 0 0 6 9 8 13 10

Total # of neighbors = 2725761
Ave neighs/atom = 201.90822
Ave special neighs/atom = 0.0000000
Neighbor list builds = 297820
Dangerous builds = 0

Total wall time: 2:14:10
