LAMMPS (29 Oct 2020)
OMP_NUM_THREADS environment is not set. Defaulting to 1 thread. (../comm.cpp:94)
  using 1 OpenMP thread(s) per MPI task
OMP_NUM_THREADS environment is not set. Defaulting to 1 thread. (../comm.cpp:94)
  using 1 OpenMP thread(s) per MPI task
Reading data file ...
  orthogonal box = (-0.38861366 -4.4289801 -0.37749594) to (27.728614 332.50898 27.717496)
  2 by 13 by 2 MPI processor grid
  reading atoms ...
  17640 atoms
  reading velocities ...
  17640 velocities
Finding 1-2 1-3 1-4 neighbors ...
  special bond factors lj:    0.0      0.0      0.0     
  special bond factors coul:  0.0      0.0      0.0     
     0 = max # of 1-2 neighbors
     0 = max # of 1-3 neighbors
     0 = max # of 1-4 neighbors
     1 = max # of special neighbors
  special bonds CPU = 0.004 seconds
  read_data CPU = 0.076 seconds
Setting atom values ...
  11760 settings made for charge
Setting atom values ...
  5880 settings made for charge
PPPM initialization ...
  using 12-bit tables for long-range coulomb (../kspace.cpp:328)
  G vector (1/distance) = 0.29875039
  grid = 40 240 40
  stencil order = 5
  estimated absolute RMS force accuracy = 0.00015667867
  estimated relative force accuracy = 1.0880732e-05
  using single precision MKL FFT
  3d grid and FFT values/proc = 15000 7600
Neighbor list info ...
  update every 1 steps, delay 0 steps, check yes
  max neighbors/atom: 2000, page size: 100000
  master list distance cutoff = 11.3
  ghost atom cutoff = 11.3
  binsize = 5.65, bins = 5 60 5
  2 neighbor lists, perpetual/occasional/extra = 2 0 0
  (1) pair coul/long, perpetual
      attributes: half, newton on
      pair build: half/bin/newton
      stencil: half/bin/3d/newton
      bin: standard
  (2) pair eam/alloy, perpetual, copy from (1)
      attributes: half, newton on
      pair build: copy
      stencil: none
      bin: none
Setting up Verlet run ...
  Unit style    : metal
  Current step  : 0
  Time step     : 0.001
Per MPI rank memory allocation (min/avg/max) = 8.151 | 8.175 | 8.191 Mbytes
Step Temp E_pair E_mol TotEng Press 
       0          600    -229912.4            0   -228544.39   -343.44645 
  100000    596.64307   -229929.89            0   -228569.53   -514.87623 
Loop time of 642.106 on 52 procs for 100000 steps with 17640 atoms

Performance: 13.456 ns/day, 1.784 hours/ns, 155.738 timesteps/s
99.8% CPU use with 52 MPI tasks x 1 OpenMP threads

MPI task timing breakdown:
Section |  min time  |  avg time  |  max time  |%varavg| %total
---------------------------------------------------------------
Pair    | 429.9      | 439.34     | 448.85     |  19.2 | 68.42
Bond    | 0.0061986  | 0.010363   | 0.016662   |   2.4 |  0.00
Kspace  | 135.98     | 146.98     | 157.74     |  41.1 | 22.89
Neigh   | 31.784     | 33.343     | 35.488     |  17.2 |  5.19
Comm    | 16.868     | 18.156     | 19.408     |  16.5 |  2.83
Output  | 5.3002e-05 | 5.9033e-05 | 0.00026544 |   0.0 |  0.00
Modify  | 2.132      | 2.8289     | 4.7187     |  45.5 |  0.44
Other   |            | 1.45       |            |       |  0.23

Nlocal:        339.231 ave         357 max         320 min
Histogram: 1 2 6 3 13 11 5 5 3 3
Nghost:        4057.75 ave        4144 max        3952 min
Histogram: 3 2 2 6 8 10 6 8 2 5
Neighs:        67289.7 ave       72230 max       63833 min
Histogram: 4 6 5 8 11 10 5 1 1 1

Total # of neighbors = 3499066
Ave neighs/atom = 198.35975
Ave special neighs/atom = 0.0000000
Neighbor list builds = 16219
Dangerous builds = 0
11760 atoms in group oxygen
PPPM initialization ...
  using 12-bit tables for long-range coulomb (../kspace.cpp:328)
  G vector (1/distance) = 0.29875039
  grid = 40 240 40
  stencil order = 5
  estimated absolute RMS force accuracy = 0.00015667867
  estimated relative force accuracy = 1.0880732e-05
  using single precision MKL FFT
  3d grid and FFT values/proc = 15000 7600
Setting up Verlet run ...
  Unit style    : metal
  Current step  : 0
  Time step     : 0.001
Per MPI rank memory allocation (min/avg/max) = 8.402 | 8.426 | 8.441 Mbytes
Step f_2 Temp v_Tdiff v_deltaT 
       0            0    596.64307            0            0 
  100000    643.25033    609.16358  0.024642784    286.10043 
  200000    1252.3411    600.17068  0.028041726    325.56183 
  300000    1869.6292    608.52295  0.027670092     321.2472 
  400000    2486.5873    607.97231    0.0285719    331.71711 
  500000    3096.7191    606.37893  0.028847664     334.9187 
  600000    3721.0345    607.16222  0.027601036    320.44547 
  700000    4342.7117     607.7684  0.027728159    321.92135 
  800000    4965.6591     610.4649  0.027407018    318.19293 
  900000    5585.8257    608.83079  0.027984538    324.89789 
 1000000    6209.6381    606.29901  0.028160942    326.94592 
Loop time of 6407.15 on 52 procs for 1000000 steps with 17640 atoms

Performance: 13.485 ns/day, 1.780 hours/ns, 156.076 timesteps/s
99.9% CPU use with 52 MPI tasks x 1 OpenMP threads

MPI task timing breakdown:
Section |  min time  |  avg time  |  max time  |%varavg| %total
---------------------------------------------------------------
Pair    | 4276.3     | 4368.7     | 4479.3     |  67.2 | 68.18
Bond    | 0.068086   | 0.10382    | 0.1612     |   7.0 |  0.00
Kspace  | 1356.2     | 1474.4     | 1571.5     | 129.5 | 23.01
Neigh   | 329.5      | 347.83     | 367.64     |  51.1 |  5.43
Comm    | 166.19     | 183.73     | 198.93     |  61.2 |  2.87
Output  | 0.0011162  | 0.0011754  | 0.0023385  |   0.5 |  0.00
Modify  | 5.7511     | 6.2302     | 6.8105     |   9.1 |  0.10
Other   |            | 26.24      |            |       |  0.41

Nlocal:        339.231 ave         365 max         316 min
Histogram: 1 3 5 13 10 4 8 4 2 2
Nghost:        4049.37 ave        4202 max        3908 min
Histogram: 3 2 1 6 16 14 6 0 2 2
Neighs:        67274.2 ave       71738 max       61668 min
Histogram: 1 1 4 4 13 9 5 7 5 3

Total # of neighbors = 3498260
Ave neighs/atom = 198.31406
Ave special neighs/atom = 0.0000000
Neighbor list builds = 168726
Dangerous builds = 0
Total wall time: 1:57:29
