ITEM: TIMESTEP
90000
ITEM: NUMBER OF ATOMS
18000
ITEM: BOX BOUNDS xy xz yz pp pp pp
-1.0278685545839696e-01 2.7996786855458257e+01 0.0000000000000000e+00
-1.1058026373042431e+00 3.3583380263730527e+02 0.0000000000000000e+00
-1.0650490795032633e-01 2.8000504907950685e+01 0.0000000000000000e+00
ITEM: ATOMS id type q mass x y z
103 2 2.2208 232.038 5.55612 -1.05511 11.1627
324 1 -1.1104 15.9994 12.7333 5.849 12.4936
8987 2 2.2208 232.038 -0.0477011 -1.04269 11.216
4 1 -1.1104 15.9994 12.4872 22.7284 12.4007
323 1 -1.1104 15.9994 9.82309 8.67841 12.5418
322 1 -1.1104 15.9994 6.84955 8.8456 12.4187
105 2 2.2208 232.038 11.1757 -1.02241 11.1202
8 2 2.2208 232.038 5.60137 1.66046 2.69317
9 1 -1.1104 15.9994 12.5738 8.66825 12.6772
10 2 2.2208 232.038 11.1487 1.73113 2.48761
11 1 -1.1104 15.9994 9.60927 22.7216 12.552
321 1 -1.1104 15.9994 9.80588 5.95678 12.4053
13 2 2.2208 232.038 2.79074 4.5035 2.93851
14 1 -1.1104 15.9994 6.81354 22.763 12.6439
55 2 2.2208 232.038 5.41067 -0.977181 5.59878
57 2 2.2208 232.038 8.37113 -1.01575 8.30952
17 2 2.2208 232.038 8.40425 4.50447 2.73227
18 2 2.2208 232.038 5.45061 7.3514 2.74789
59 2 2.2208 232.038 11.1166 -0.850721 5.52363
20 2 2.2208 232.038 11.1307 7.29018 2.75229
21 1 -1.1104 15.9994 4.04324 22.9541 12.3806
22 1 -1.1104 15.9994 1.32135 17.008 12.559
23 2 2.2208 232.038 2.65483 10.13 2.72922
320 1 -1.1104 15.9994 6.95083 6.15372 12.5719
15 2 2.2208 232.038 13.8817 15.7618 2.655
660 2 2.2208 232.038 5.5248 -1.05868 0.00311388
27 2 2.2208 232.038 8.34492 10.289 2.64473
28 2 2.2208 232.038 5.65687 12.7527 2.66013
9004 2 2.2208 232.038 -0.0330444 7.39313 2.86938
30 2 2.2208 232.038 11.1273 12.9562 2.58775
31 1 -1.1104 15.9994 12.6644 14.4308 12.5121
32 1 -1.1104 15.9994 12.3974 11.4428 12.6513
33 2 2.2208 232.038 2.79757 15.6927 2.82058
319 1 -1.1104 15.9994 4.01835 8.80028 12.4813
35 1 -1.1104 15.9994 9.79286 14.2574 12.4806
36 1 -1.1104 15.9994 6.99408 14.3881 12.5627
37 2 2.2208 232.038 8.32929 15.7731 2.63588
38 2 2.2208 232.038 5.5467 18.622 2.70308
39 1 -1.1104 15.9994 9.74332 11.3345 12.5676
40 2 2.2208 232.038 11.0725 18.456 2.61066
41 1 -1.1104 15.9994 6.88694 11.6985 12.5594
42 1 -1.1104 15.9994 3.99266 14.2249 12.6258
43 2 2.2208 232.038 2.65901 21.4054 2.72883
318 1 -1.1104 15.9994 1.29878 8.89811 12.6544
45 1 -1.1104 15.9994 1.22449 14.3564 12.4709
46 1 -1.1104 15.9994 4.15757 11.5173 12.5995
47 2 2.2208 232.038 8.29036 21.451 2.71043
48 2 2.2208 232.038 5.43469 24.194 2.67764
49 1 -1.1104 15.9994 1.37841 11.663 12.5809
50 2 2.2208 232.038 10.9165 24.1735 2.72781
51 1 -1.1104 15.9994 1.27439 22.9053 12.3875
52 2 2.2208 232.038 2.60438 1.70413 5.60622
5 2 2.2208 232.038 13.9005 15.8223 8.30644
54 1 -1.1104 15.9994 12.4747 19.955 12.5593
8984 2 2.2208 232.038 -0.104545 4.54523 11.1538
56 2 2.2208 232.038 8.38029 1.72679 5.53403
8982 2 2.2208 232.038 13.9451 -1.01742 2.60673
58 2 2.2208 232.038 5.46861 1.77079 8.39964
9042 2 2.2208 232.038 13.8606 4.54576 8.27338
60 2 2.2208 232.038 11.122 1.84831 8.30914
61 1 -1.1104 15.9994 12.506 17.204 12.4367
62 2 2.2208 232.038 2.69017 7.42265 5.59303
63 2 2.2208 232.038 2.73477 4.63808 8.50657
64 1 -1.1104 15.9994 9.68297 19.9695 12.4241
65 2 2.2208 232.038 5.52998 4.61744 5.60108
66 2 2.2208 232.038 8.32189 7.36654 5.41941
67 2 2.2208 232.038 8.33863 4.63478 8.33954
68 2 2.2208 232.038 5.46951 7.44034 8.33582
69 2 2.2208 232.038 11.0674 4.61763 5.47889
70 2 2.2208 232.038 11.0939 7.36318 8.29533
71 1 -1.1104 15.9994 6.89936 19.8964 12.5309
72 2 2.2208 232.038 2.86804 13.0604 5.64211
73 2 2.2208 232.038 2.68055 10.2297 8.48824
74 1 -1.1104 15.9994 9.6936 17.0265 12.6128
75 2 2.2208 232.038 5.47674 10.1165 5.55014
76 2 2.2208 232.038 8.39426 12.8506 5.6617
77 2 2.2208 232.038 8.3309 10.2061 8.36153
78 2 2.2208 232.038 5.55716 12.9534 8.40456
79 2 2.2208 232.038 11.2653 10.0432 5.48387
80 2 2.2208 232.038 11.2439 13.0382 8.35624
317 1 -1.1104 15.9994 4.07214 5.89302 12.6297
82 2 2.2208 232.038 2.71831 18.6826 5.3817
83 2 2.2208 232.038 2.72472 15.7963 8.40271
3 2 2.2208 232.038 2.70816 -1.04783 2.76476
85 2 2.2208 232.038 5.61472 15.677 5.61746
86 2 2.2208 232.038 8.28963 18.581 5.48579
87 2 2.2208 232.038 8.42026 15.6417 8.28208
88 2 2.2208 232.038 5.48876 18.6041 8.34452
89 2 2.2208 232.038 11.2186 15.6837 5.51717
90 2 2.2208 232.038 11.2281 18.5658 8.33866
663 2 2.2208 232.038 2.75477 7.43847 -0.0285592
92 2 2.2208 232.038 2.64664 24.2262 5.45783
93 2 2.2208 232.038 2.66597 21.461 8.26565
53 2 2.2208 232.038 2.73064 -1.17139 8.50378
95 2 2.2208 232.038 5.4224 21.3656 5.41602
96 2 2.2208 232.038 8.28836 24.2176 5.53316
97 2 2.2208 232.038 8.22018 21.391 8.35435
98 2 2.2208 232.038 5.49255 24.1177 8.31509
99 2 2.2208 232.038 11.0752 21.2813 5.49858
100 2 2.2208 232.038 11.1396 23.9186 8.38593
101 1 -1.1104 15.9994 6.76054 17.2323 12.4718
102 2 2.2208 232.038 2.7981 1.82161 11.1854
8997 2 2.2208 232.038 0.0527671 4.51521 5.64559
104 2 2.2208 232.038 8.45303 1.83091 10.9993
328 2 2.2208 232.038 8.46247 -0.955256 13.8141
106 1 -1.1104 15.9994 4.1442 19.8866 12.5385
107 2 2.2208 232.038 2.72382 7.41713 11.2071
108 2 2.2208 232.038 5.55997 4.56214 11.0269
109 2 2.2208 232.038 8.3186 7.42727 11.1763
110 2 2.2208 232.038 11.2083 4.62794 11.2048
111 1 -1.1104 15.9994 1.33504 19.9489 9.73745
112 2 2.2208 232.038 2.61499 12.9467 11.1895
113 2 2.2208 232.038 5.50447 10.2093 11.2081
114 2 2.2208 232.038 8.34609 12.9529 11.1569
115 2 2.2208 232.038 11.1184 10.125 11.1045
116 1 -1.1104 15.9994 4.06447 17.1383 12.3774
117 2 2.2208 232.038 2.76803 18.5166 11.2342
118 2 2.2208 232.038 5.47203 15.7271 11.1735
119 2 2.2208 232.038 8.23549 18.5588 11.0852
120 2 2.2208 232.038 11.1722 15.7707 11.2384
8998 2 2.2208 232.038 -0.0339156 1.77011 8.45538
122 2 2.2208 232.038 2.55006 24.243 11.1349
123 2 2.2208 232.038 5.54319 21.3465 11.2301
124 2 2.2208 232.038 8.11275 24.1707 11.2062
125 2 2.2208 232.038 11.1381 21.3419 11.2446
126 1 -1.1104 15.9994 1.48402 0.274172 1.35363
127 1 -1.1104 15.9994 4.18666 0.316074 1.4845
128 1 -1.1104 15.9994 1.23407 0.301459 4.20362
129 1 -1.1104 15.9994 3.98337 0.25736 4.28203
130 1 -1.1104 15.9994 1.43445 3.12353 1.41242
131 1 -1.1104 15.9994 4.22967 3.02992 1.48772
132 1 -1.1104 15.9994 1.36938 3.16363 4.28077
133 1 -1.1104 15.9994 4.1777 3.13116 4.25939
134 1 -1.1104 15.9994 7.0417 0.373004 1.17447
135 1 -1.1104 15.9994 9.67277 0.356495 1.02217
136 1 -1.1104 15.9994 6.84743 -0.265881 3.90243
137 1 -1.1104 15.9994 9.61851 0.185194 3.98335
138 1 -1.1104 15.9994 6.89196 3.20644 1.4525
139 1 -1.1104 15.9994 9.7748 3.0085 1.28474
140 1 -1.1104 15.9994 6.87319 2.81669 4.13025
141 1 -1.1104 15.9994 9.82651 3.05692 4.08266
142 1 -1.1104 15.9994 12.4619 0.296384 1.19985
143 1 -1.1104 15.9994 12.4792 0.211448 4.10268
144 1 -1.1104 15.9994 12.4754 2.99064 1.14388
145 1 -1.1104 15.9994 12.5591 2.94653 3.93122
146 1 -1.1104 15.9994 1.52033 5.98762 1.23541
147 1 -1.1104 15.9994 4.14397 5.97465 1.37504
148 1 -1.1104 15.9994 1.4576 5.93282 4.07931
149 1 -1.1104 15.9994 4.28186 5.99358 4.13566
150 1 -1.1104 15.9994 1.44282 8.83301 1.215
151 1 -1.1104 15.9994 4.28143 8.6815 1.47411
152 1 -1.1104 15.9994 1.21169 8.69361 4.22858
153 1 -1.1104 15.9994 3.89307 8.58519 4.14282
154 1 -1.1104 15.9994 7.03516 5.93813 1.2353
155 1 -1.1104 15.9994 9.75939 5.92059 1.38127
156 1 -1.1104 15.9994 6.88384 5.72441 4.05257
157 1 -1.1104 15.9994 9.61027 5.88623 4.01219
158 1 -1.1104 15.9994 6.88513 8.82078 1.3604
159 1 -1.1104 15.9994 9.68502 8.7224 1.39025
160 1 -1.1104 15.9994 6.8864 8.70065 4.06368
161 1 -1.1104 15.9994 9.71562 8.74422 4.25565
162 1 -1.1104 15.9994 12.5708 5.88777 1.3685
163 1 -1.1104 15.9994 12.4054 5.94629 4.14663
164 1 -1.1104 15.9994 12.5649 8.55305 1.31598
165 1 -1.1104 15.9994 12.6598 8.72312 4.12529
166 1 -1.1104 15.9994 1.28886 11.5671 1.36918
167 1 -1.1104 15.9994 4.11383 11.3235 1.251
168 1 -1.1104 15.9994 1.34465 11.5563 4.24044
169 1 -1.1104 15.9994 4.2414 11.499 4.17825
170 1 -1.1104 15.9994 1.39714 14.2514 1.37281
171 1 -1.1104 15.9994 4.24269 14.2315 1.32764
172 1 -1.1104 15.9994 1.24324 14.409 4.17028
173 1 -1.1104 15.9994 4.45008 14.3075 3.99467
174 1 -1.1104 15.9994 6.93034 11.4413 1.25264
175 1 -1.1104 15.9994 9.76688 11.4466 1.26282
176 1 -1.1104 15.9994 6.94533 11.4816 4.06593
177 1 -1.1104 15.9994 9.90589 11.6453 4.05802
178 1 -1.1104 15.9994 6.91544 14.2047 1.26912
179 1 -1.1104 15.9994 9.68004 14.3724 1.22886
180 1 -1.1104 15.9994 7.07865 14.1381 4.20645
181 1 -1.1104 15.9994 9.83693 14.2988 4.03696
182 1 -1.1104 15.9994 12.5932 11.4654 1.33823
183 1 -1.1104 15.9994 12.693 11.5442 4.1124
184 1 -1.1104 15.9994 12.555 14.3302 1.28451
185 1 -1.1104 15.9994 12.7054 14.414 4.18663
186 1 -1.1104 15.9994 1.33735 16.9141 1.36146
187 1 -1.1104 15.9994 4.19702 17.0907 1.46386
188 1 -1.1104 15.9994 1.44606 17.3518 4.02872
189 1 -1.1104 15.9994 4.06821 17.0717 4.19933
190 1 -1.1104 15.9994 1.23506 19.7671 1.23424
191 1 -1.1104 15.9994 4.23607 19.8212 1.24403
192 1 -1.1104 15.9994 1.23344 20.0821 4.07873
193 1 -1.1104 15.9994 4.00252 19.8374 3.92139
194 1 -1.1104 15.9994 6.89757 17.0561 1.25856
195 1 -1.1104 15.9994 9.63932 17.1976 1.24848
196 1 -1.1104 15.9994 6.97454 17.0281 4.23035
197 1 -1.1104 15.9994 9.92314 17.1095 4.0648
198 1 -1.1104 15.9994 7.03626 19.8554 1.37917
199 1 -1.1104 15.9994 9.88778 20.0477 1.33746
200 1 -1.1104 15.9994 6.77333 19.9386 4.09347
201 1 -1.1104 15.9994 9.57358 19.9379 4.07827
202 1 -1.1104 15.9994 12.5183 16.9872 1.25625
203 1 -1.1104 15.9994 12.6046 17.3054 3.99154
204 1 -1.1104 15.9994 12.6767 19.7372 1.47286
205 1 -1.1104 15.9994 12.4809 20.0322 4.25917
206 1 -1.1104 15.9994 1.27705 22.7683 1.4316
207 1 -1.1104 15.9994 4.118 22.5984 1.46755
208 1 -1.1104 15.9994 1.2122 22.845 4.17622
209 1 -1.1104 15.9994 3.99025 22.6759 4.10452
210 1 -1.1104 15.9994 6.86766 22.7089 1.4992
211 1 -1.1104 15.9994 9.60127 22.7669 1.27165
212 1 -1.1104 15.9994 6.87365 22.9088 4.196
213 1 -1.1104 15.9994 9.66546 22.8749 4.3002
214 1 -1.1104 15.9994 12.4492 22.7023 1.2353
215 1 -1.1104 15.9994 12.4266 22.8188 4.22939
216 1 -1.1104 15.9994 1.31356 0.41837 7.00634
217 1 -1.1104 15.9994 4.11525 0.370668 7.16242
9086 2 2.2208 232.038 13.8089 7.33348 11.0119
219 1 -1.1104 15.9994 4.04178 0.29732 9.96908
220 1 -1.1104 15.9994 1.42011 3.15677 7.0034
221 1 -1.1104 15.9994 4.27671 3.15385 6.98477
222 1 -1.1104 15.9994 1.32745 0.358429 9.92302
223 1 -1.1104 15.9994 4.05768 3.05554 9.64982
224 1 -1.1104 15.9994 6.9797 0.314237 6.88094
225 1 -1.1104 15.9994 9.7941 0.384698 6.85765
226 1 -1.1104 15.9994 6.81323 0.273023 9.68552
227 1 -1.1104 15.9994 9.90251 0.363499 9.59424
228 1 -1.1104 15.9994 7.1037 3.18726 6.89491
229 1 -1.1104 15.9994 9.89431 3.10862 6.94856
230 1 -1.1104 15.9994 6.93925 3.05044 9.70087
231 1 -1.1104 15.9994 9.91669 3.16045 9.71849
232 1 -1.1104 15.9994 12.5163 0.407796 6.96657
233 1 -1.1104 15.9994 12.7377 -0.0983654 9.9113
234 1 -1.1104 15.9994 12.6141 3.30597 6.85943
235 1 -1.1104 15.9994 12.7282 2.88114 9.68417
236 1 -1.1104 15.9994 1.42619 5.96984 7.15399
237 1 -1.1104 15.9994 4.1137 5.97136 6.98313
238 1 -1.1104 15.9994 1.34821 3.11303 9.77522
239 1 -1.1104 15.9994 4.19898 5.95359 9.8216
240 1 -1.1104 15.9994 1.19662 8.82431 7.1404
241 1 -1.1104 15.9994 3.99866 8.772 7.01279
242 1 -1.1104 15.9994 1.34075 5.87155 9.90356
243 1 -1.1104 15.9994 4.16065 8.73978 9.88876
244 1 -1.1104 15.9994 6.9136 5.94914 6.8822
245 1 -1.1104 15.9994 9.55431 5.95557 6.72205
246 1 -1.1104 15.9994 7.02508 6.07478 9.82338
247 1 -1.1104 15.9994 9.75001 5.9057 9.7386
248 1 -1.1104 15.9994 7.03112 8.79072 6.98292
249 1 -1.1104 15.9994 9.73558 8.69958 7.00233
250 1 -1.1104 15.9994 6.96679 8.73415 9.67249
251 1 -1.1104 15.9994 9.74575 8.76678 9.73345
252 1 -1.1104 15.9994 12.3113 5.94484 6.85196
253 1 -1.1104 15.9994 12.4844 5.7643 9.66179
254 1 -1.1104 15.9994 12.4623 8.71777 6.88866
255 1 -1.1104 15.9994 12.3919 8.64701 9.79172
256 1 -1.1104 15.9994 1.35231 11.5768 6.87335
257 1 -1.1104 15.9994 4.21144 11.4262 7.07158
258 1 -1.1104 15.9994 1.48166 8.66616 9.78913
259 1 -1.1104 15.9994 4.0116 11.5299 9.89326
260 1 -1.1104 15.9994 1.39372 14.3195 6.93381
261 1 -1.1104 15.9994 4.27453 14.269 7.13764
262 1 -1.1104 15.9994 1.26086 11.4424 9.89386
263 1 -1.1104 15.9994 3.94677 14.3667 9.90304
264 1 -1.1104 15.9994 6.86284 11.4316 7.03463
265 1 -1.1104 15.9994 9.7559 11.4913 6.91073
266 1 -1.1104 15.9994 6.93908 11.541 9.85103
267 1 -1.1104 15.9994 9.74625 11.4808 9.77827
268 1 -1.1104 15.9994 7.12743 14.196 6.97186
269 1 -1.1104 15.9994 9.84756 14.259 6.85884
270 1 -1.1104 15.9994 6.86768 14.268 9.86448
271 1 -1.1104 15.9994 9.80051 14.2339 9.79942
272 1 -1.1104 15.9994 12.4708 11.5048 6.84346
273 1 -1.1104 15.9994 12.5364 11.6024 9.78699
274 1 -1.1104 15.9994 12.6007 14.2588 6.9062
275 1 -1.1104 15.9994 12.5476 14.4131 9.76062
276 1 -1.1104 15.9994 1.44001 17.112 6.91578
277 1 -1.1104 15.9994 4.28157 17.1164 6.96533
278 1 -1.1104 15.9994 1.21702 14.3382 9.6628
279 1 -1.1104 15.9994 4.19774 17.1237 9.65734
280 1 -1.1104 15.9994 1.38111 19.9338 6.8645
281 1 -1.1104 15.9994 4.06965 19.8829 6.81424
282 1 -1.1104 15.9994 1.39596 17.1366 9.78813
283 1 -1.1104 15.9994 4.26162 19.898 9.80475
284 1 -1.1104 15.9994 7.09318 17.1561 6.85299
285 1 -1.1104 15.9994 9.79774 17.1012 7.04414
286 1 -1.1104 15.9994 6.8645 17.1811 9.68737
287 1 -1.1104 15.9994 9.67545 17.1248 9.85968
288 1 -1.1104 15.9994 6.88049 20.0267 6.89773
289 1 -1.1104 15.9994 9.6655 19.8556 6.8559
290 1 -1.1104 15.9994 6.97178 20.0354 9.70119
291 1 -1.1104 15.9994 9.81042 19.9433 9.5045
292 1 -1.1104 15.9994 12.5206 17.1329 6.91447
293 1 -1.1104 15.9994 12.5867 17.1856 9.74491
294 1 -1.1104 15.9994 12.5815 19.8866 7.00748
295 1 -1.1104 15.9994 12.6114 19.9605 9.83147
296 1 -1.1104 15.9994 1.25727 22.7749 6.96955
297 1 -1.1104 15.9994 4.15231 22.8083 6.73389
298 1 -1.1104 15.9994 1.21076 22.8399 9.64054
299 1 -1.1104 15.9994 4.12318 22.7948 9.66262
300 1 -1.1104 15.9994 6.78833 22.6686 7.04994
301 1 -1.1104 15.9994 9.69874 22.8204 7.0014
302 1 -1.1104 15.9994 6.89152 22.8235 9.78821
303 1 -1.1104 15.9994 9.62483 22.7812 9.68037
304 1 -1.1104 15.9994 12.5154 22.6844 6.91675
305 1 -1.1104 15.9994 12.5895 22.6691 9.76719
306 1 -1.1104 15.9994 1.40744 0.235693 12.7636
307 1 -1.1104 15.9994 4.27676 0.247188 12.6293
308 1 -1.1104 15.9994 1.53692 3.23412 12.5411
309 1 -1.1104 15.9994 4.48514 2.93303 12.2869
310 1 -1.1104 15.9994 7.07007 0.533498 12.4334
311 1 -1.1104 15.9994 9.88485 0.409742 12.2431
312 1 -1.1104 15.9994 7.17415 3.29444 12.3504
313 1 -1.1104 15.9994 9.80653 3.25455 12.64
314 1 -1.1104 15.9994 12.5189 0.271133 12.6696
315 1 -1.1104 15.9994 12.6199 3.14317 12.4252
316 1 -1.1104 15.9994 1.23066 5.98673 12.568
483 1 -1.1104 15.9994 1.39796 19.9079 12.6546
346 2 2.2208 232.038 2.75603 21.4548 13.7437
9101 2 2.2208 232.038 13.8797 24.1814 11.1938
9003 2 2.2208 232.038 -0.134912 -0.973792 5.6655
9001 2 2.2208 232.038 13.9858 12.96 -0.0681883
659 2 2.2208 232.038 2.76006 1.72289 0.119442
24 2 2.2208 232.038 -0.0355306 12.9843 2.69027
8994 2 2.2208 232.038 -0.0867865 7.43397 8.44728
84 2 2.2208 232.038 -0.0351791 18.719 8.34558
8988 2 2.2208 232.038 -0.101241 12.9705 8.3103
6 2 2.2208 232.038 13.9804 18.6633 5.49715
8981 2 2.2208 232.038 -0.0553715 15.7088 11.1399
341 2 2.2208 232.038 2.6815 15.7391 13.7855
9041 2 2.2208 232.038 13.9931 7.28671 5.43231
668 2 2.2208 232.038 0.00501903 15.6513 -0.107795
9091 2 2.2208 232.038 13.8991 13.0454 11.1634
81 2 2.2208 232.038 0.0032992 15.8628 5.54476
9052 2 2.2208 232.038 13.8652 10.0967 8.18253
8993 2 2.2208 232.038 -0.113288 10.1594 5.63861
9690 2 2.2208 232.038 0.00914345 4.61437 -0.161024
334 2 2.2208 232.038 5.49935 7.47456 13.8647
16 2 2.2208 232.038 8.37588 7.38075 -0.0376074
345 2 2.2208 232.038 11.1208 18.498 13.9204
335 2 2.2208 232.038 11.1035 7.44704 13.9653
338 2 2.2208 232.038 8.27466 10.1718 13.9723
9692 2 2.2208 232.038 -0.0641335 -1.01381 0.0535039
674 2 2.2208 232.038 2.74783 24.2568 -0.0184566
670 2 2.2208 232.038 5.42486 15.7549 -0.0759581
671 2 2.2208 232.038 8.3001 18.6151 -0.0948423
9661 2 2.2208 232.038 -0.0296024 1.71682 13.9188
9324 2 2.2208 232.038 13.9045 10.2226 13.9095
673 2 2.2208 232.038 -0.0312567 21.4524 -0.0437197
9667 2 2.2208 232.038 -0.0703894 4.51888 16.6942
327 1 -1.1104 15.9994 6.9444 22.8108 26.7426
403 2 2.2208 232.038 2.76938 -1.06541 25.2055
9410 2 2.2208 232.038 13.9807 10.2869 25.2366
665 2 2.2208 232.038 13.9236 24.282 27.9305
409 2 2.2208 232.038 11.1027 -1.01864 22.2435
332 1 -1.1104 15.9994 9.83922 22.7481 23.7962
9668 2 2.2208 232.038 -0.113031 7.33669 19.5758
9370 2 2.2208 232.038 13.9069 15.6948 19.6711
9665 2 2.2208 232.038 -0.0571851 -1.0305 16.8
9409 2 2.2208 232.038 13.9597 12.9024 22.439
337 1 -1.1104 15.9994 6.99161 22.7568 23.8828
646 1 -1.1104 15.9994 1.41742 17.0828 23.7063
355 2 2.2208 232.038 5.61821 -1.03721 16.696
9334 2 2.2208 232.038 13.7831 21.2294 14.129
647 1 -1.1104 15.9994 4.23682 17.0058 23.8462
342 1 -1.1104 15.9994 4.08067 22.8939 26.7817
645 1 -1.1104 15.9994 12.5538 14.361 26.6811
644 1 -1.1104 15.9994 12.4967 14.3002 23.8718
666 2 2.2208 232.038 2.92734 12.9416 27.8375
9673 2 2.2208 232.038 -0.0380795 4.49362 22.3543
677 1 -1.1104 15.9994 9.85132 14.3298 26.747
353 2 2.2208 232.038 2.82831 -0.988474 19.5961
9399 2 2.2208 232.038 13.9757 7.54949 22.3228
672 2 2.2208 232.038 11.1028 15.7856 27.9934
351 1 -1.1104 15.9994 1.38985 22.6475 26.7646
352 2 2.2208 232.038 2.75553 1.75644 16.9164
643 1 -1.1104 15.9994 12.5018 11.6392 26.6959
354 1 -1.1104 15.9994 4.32863 22.5526 24.0185
669 2 2.2208 232.038 2.79406 18.5972 27.9872
356 2 2.2208 232.038 8.24717 1.95668 16.7313
9672 2 2.2208 232.038 -0.0408654 1.58221 25.276
358 2 2.2208 232.038 5.59513 1.87286 19.592
657 2 2.2208 232.038 13.9542 24.3158 22.3269
360 2 2.2208 232.038 11.1243 1.80024 19.4074
361 1 -1.1104 15.9994 1.18809 22.512 23.8687
362 2 2.2208 232.038 2.72047 7.50702 16.7878
363 2 2.2208 232.038 2.70863 4.55346 19.5261
364 1 -1.1104 15.9994 12.6119 19.8575 26.682
365 2 2.2208 232.038 5.39786 4.6147 16.88
366 2 2.2208 232.038 8.25985 7.36673 16.7661
367 2 2.2208 232.038 8.40012 4.57191 19.6104
368 2 2.2208 232.038 5.51609 7.42722 19.5364
369 2 2.2208 232.038 11.0639 4.63058 16.6993
370 2 2.2208 232.038 11.1239 7.43025 19.5121
371 1 -1.1104 15.9994 12.4798 20.0635 23.9531
372 2 2.2208 232.038 2.64513 12.974 16.817
373 2 2.2208 232.038 2.62291 10.174 19.6822
407 2 2.2208 232.038 8.30645 -0.924823 25.0101
375 2 2.2208 232.038 5.55801 10.1811 16.7639
376 2 2.2208 232.038 8.28796 13.0852 16.8118
377 2 2.2208 232.038 8.38475 10.1674 19.6209
378 2 2.2208 232.038 5.47822 12.8874 19.6406
379 2 2.2208 232.038 11.2201 10.3546 16.8598
380 2 2.2208 232.038 11.1566 13.0322 19.6813
381 1 -1.1104 15.9994 12.6101 17.1237 26.5704
382 2 2.2208 232.038 2.70519 18.3347 16.9521
383 2 2.2208 232.038 2.64607 15.6771 19.6599
642 1 -1.1104 15.9994 12.505 11.6312 24.0264
385 2 2.2208 232.038 5.41811 15.7878 16.7407
386 2 2.2208 232.038 8.39525 18.5247 16.802
387 2 2.2208 232.038 8.1733 15.7566 19.7363
388 2 2.2208 232.038 5.54638 18.6321 19.6146
389 2 2.2208 232.038 11.0283 15.7698 16.6772
390 2 2.2208 232.038 11.0701 18.5029 19.6064
391 1 -1.1104 15.9994 12.3765 22.7754 26.4749
392 2 2.2208 232.038 2.68263 24.1267 16.8169
393 2 2.2208 232.038 2.66072 21.3042 19.4971
653 1 -1.1104 15.9994 4.17465 19.872 26.4836
395 2 2.2208 232.038 5.45466 21.2857 16.8407
396 2 2.2208 232.038 8.27024 24.1395 16.8391
397 2 2.2208 232.038 8.42692 21.3726 19.7375
398 2 2.2208 232.038 5.49803 24.1687 19.6862
399 2 2.2208 232.038 11.1434 21.4067 16.8982
400 2 2.2208 232.038 11.0322 24.1804 19.579
401 1 -1.1104 15.9994 12.5696 17.2019 23.8459
402 2 2.2208 232.038 2.74298 1.84738 22.4833
649 1 -1.1104 15.9994 4.14068 17.172 26.7822
404 1 -1.1104 15.9994 9.69949 19.9586 26.6667
655 1 -1.1104 15.9994 9.84818 17.0264 23.9693
406 2 2.2208 232.038 8.16897 1.6855 22.344
656 1 -1.1104 15.9994 7.03822 17.1239 26.721
408 2 2.2208 232.038 5.42667 1.81677 25.2124
650 1 -1.1104 15.9994 1.14561 19.8454 23.9335
410 2 2.2208 232.038 11.1947 1.7259 25.0278
411 1 -1.1104 15.9994 6.97767 20.006 26.7205
412 2 2.2208 232.038 2.68424 7.30144 22.4207
413 2 2.2208 232.038 2.74277 4.52022 25.3249
414 1 -1.1104 15.9994 9.82865 19.978 23.907
415 2 2.2208 232.038 5.37167 4.78164 22.4521
416 2 2.2208 232.038 8.2937 7.36092 22.3859
417 2 2.2208 232.038 8.34701 4.61126 25.0577
418 2 2.2208 232.038 5.43153 7.47583 25.1984
419 2 2.2208 232.038 11.1334 4.51881 22.2348
420 2 2.2208 232.038 11.1733 7.30759 25.1732
421 1 -1.1104 15.9994 6.94606 19.9397 23.8482
422 2 2.2208 232.038 2.67813 12.92 22.48
423 2 2.2208 232.038 2.46784 10.0295 25.1951
424 1 -1.1104 15.9994 9.78756 17.0894 26.5745
425 2 2.2208 232.038 5.52367 10.2408 22.43
426 2 2.2208 232.038 8.47088 12.96 22.4143
427 2 2.2208 232.038 8.2848 10.1971 25.209
428 2 2.2208 232.038 5.49062 13.0196 25.101
429 2 2.2208 232.038 11.0846 10.2681 22.4356
430 2 2.2208 232.038 11.2512 13.0449 25.2936
648 1 -1.1104 15.9994 1.35863 17.1303 26.6856
432 2 2.2208 232.038 2.68141 18.7099 22.4351
433 2 2.2208 232.038 2.68657 15.8846 25.168
652 1 -1.1104 15.9994 1.33231 20.0027 26.626
435 2 2.2208 232.038 5.55592 15.6634 22.4536
436 2 2.2208 232.038 8.35537 18.6288 22.4902
437 2 2.2208 232.038 8.3781 15.742 25.2539
438 2 2.2208 232.038 5.59004 18.5327 25.2602
439 2 2.2208 232.038 11.1969 15.8475 22.444
440 2 2.2208 232.038 11.0579 18.5789 25.2745
651 1 -1.1104 15.9994 4.066 19.8216 23.6595
442 1 -1.1104 15.9994 12.6042 22.8055 23.7894
443 2 2.2208 232.038 2.65786 21.3247 25.1933
654 1 -1.1104 15.9994 7.00369 17.0953 23.8174
445 2 2.2208 232.038 5.39916 21.4569 22.3861
446 2 2.2208 232.038 8.33936 24.199 22.3433
447 2 2.2208 232.038 8.31428 21.3897 25.0886
448 2 2.2208 232.038 5.45113 24.2049 25.122
449 2 2.2208 232.038 11.2681 21.419 22.4414
450 2 2.2208 232.038 11.1436 24.2301 25.0703
451 1 -1.1104 15.9994 1.34195 0.31699 15.6506
452 1 -1.1104 15.9994 4.30736 0.422823 15.5796
453 1 -1.1104 15.9994 1.43404 3.14402 15.3891
454 1 -1.1104 15.9994 4.27517 3.25116 15.2868
455 1 -1.1104 15.9994 7.07461 0.355887 15.375
456 1 -1.1104 15.9994 9.93398 0.299147 15.1921
457 1 -1.1104 15.9994 6.99734 3.17514 15.1816
458 1 -1.1104 15.9994 9.83019 3.2205 15.4373
459 1 -1.1104 15.9994 12.7463 0.378267 15.47
460 1 -1.1104 15.9994 12.7426 3.19318 15.2961
461 1 -1.1104 15.9994 1.49497 6.05942 15.428
462 1 -1.1104 15.9994 4.18807 5.95486 15.5269
463 1 -1.1104 15.9994 1.35286 8.96874 15.4124
464 1 -1.1104 15.9994 4.01575 8.65374 15.2865
465 1 -1.1104 15.9994 6.91373 5.94272 15.3176
466 1 -1.1104 15.9994 9.68163 6.04239 15.3749
467 1 -1.1104 15.9994 6.85744 8.81475 15.2155
468 1 -1.1104 15.9994 9.71869 8.79543 15.3527
469 1 -1.1104 15.9994 12.3975 5.71399 15.1835
470 1 -1.1104 15.9994 12.5519 8.76534 15.4863
471 1 -1.1104 15.9994 1.33192 11.487 15.4548
472 1 -1.1104 15.9994 4.07597 11.5587 15.4499
473 1 -1.1104 15.9994 1.27674 14.2724 15.2636
474 1 -1.1104 15.9994 4.11532 14.3182 15.3486
475 1 -1.1104 15.9994 6.85345 11.5492 15.3129
476 1 -1.1104 15.9994 9.72733 11.6185 15.4848
477 1 -1.1104 15.9994 6.81268 14.3498 15.4977
478 1 -1.1104 15.9994 9.68752 14.3298 15.3593
479 1 -1.1104 15.9994 12.4607 11.6085 15.3215
480 1 -1.1104 15.9994 12.3788 14.3101 15.3089
481 1 -1.1104 15.9994 1.2627 17.2562 15.3733
482 1 -1.1104 15.9994 3.89927 17.143 15.3233
641 1 -1.1104 15.9994 9.64094 11.4642 26.6038
484 1 -1.1104 15.9994 3.54808 19.7667 15.2787
485 1 -1.1104 15.9994 6.87518 17.0907 15.3752
486 1 -1.1104 15.9994 9.73089 17.1415 15.3695
487 1 -1.1104 15.9994 6.66708 19.8654 15.442
488 1 -1.1104 15.9994 9.55872 19.9611 15.3557
489 1 -1.1104 15.9994 12.5563 17.1253 15.2372
490 1 -1.1104 15.9994 12.3732 19.9532 15.5092
491 1 -1.1104 15.9994 1.55296 22.9056 14.9366
492 1 -1.1104 15.9994 4.27238 22.5858 15.2868
493 1 -1.1104 15.9994 6.94514 22.6798 15.3934
494 1 -1.1104 15.9994 9.71994 22.7043 15.352
495 1 -1.1104 15.9994 12.4872 22.7152 15.3343
496 1 -1.1104 15.9994 1.35044 0.336524 18.223
497 1 -1.1104 15.9994 4.24306 0.224344 18.3618
498 1 -1.1104 15.9994 1.22953 0.409725 21.035
499 1 -1.1104 15.9994 4.11253 0.381953 21.0793
500 1 -1.1104 15.9994 1.43139 3.09936 18.2118
501 1 -1.1104 15.9994 4.164 3.11332 18.2003
502 1 -1.1104 15.9994 1.4016 3.14625 21.002
503 1 -1.1104 15.9994 4.24387 3.27535 20.9353
504 1 -1.1104 15.9994 6.8442 0.462269 18.1772
505 1 -1.1104 15.9994 9.56023 0.398936 18.025
506 1 -1.1104 15.9994 6.8998 0.218958 20.8834
507 1 -1.1104 15.9994 9.70445 0.113741 20.8114
508 1 -1.1104 15.9994 6.95604 3.16622 18.131
509 1 -1.1104 15.9994 9.78253 3.2017 18.0966
510 1 -1.1104 15.9994 7.17351 3.2485 21.0171
511 1 -1.1104 15.9994 9.68508 3.05438 20.8118
512 1 -1.1104 15.9994 12.3676 0.20622 18.2781
513 1 -1.1104 15.9994 12.4953 0.331978 20.9504
514 1 -1.1104 15.9994 12.504 2.98763 18.0761
515 1 -1.1104 15.9994 12.5345 3.30596 20.8304
516 1 -1.1104 15.9994 1.31832 5.84848 18.2086
517 1 -1.1104 15.9994 4.17859 5.89694 18.329
518 1 -1.1104 15.9994 1.29072 5.82009 21.0723
519 1 -1.1104 15.9994 4.03651 5.87614 21.0147
520 1 -1.1104 15.9994 1.22892 8.70765 18.2101
521 1 -1.1104 15.9994 4.2826 8.75444 18.0532
522 1 -1.1104 15.9994 1.31198 8.54428 21.0612
523 1 -1.1104 15.9994 4.00596 8.63706 20.9704
524 1 -1.1104 15.9994 6.88776 5.95089 17.9862
525 1 -1.1104 15.9994 9.60398 5.86135 18.2181
526 1 -1.1104 15.9994 6.88278 6.08436 20.9232
527 1 -1.1104 15.9994 9.66145 5.89209 20.9549
528 1 -1.1104 15.9994 6.9929 8.72553 18.2999
529 1 -1.1104 15.9994 9.89454 8.78835 18.1715
530 1 -1.1104 15.9994 6.93794 8.83573 20.9836
531 1 -1.1104 15.9994 9.57875 8.70166 20.9086
532 1 -1.1104 15.9994 12.4737 5.96849 17.8873
533 1 -1.1104 15.9994 12.589 6.16831 20.7642
534 1 -1.1104 15.9994 12.7242 8.71792 18.2158
535 1 -1.1104 15.9994 12.4759 8.81003 20.9671
536 1 -1.1104 15.9994 1.13581 11.358 18.3502
537 1 -1.1104 15.9994 4.03287 11.443 18.2397
538 1 -1.1104 15.9994 1.3587 11.437 21.0456
539 1 -1.1104 15.9994 4.08695 11.3698 21.0411
540 1 -1.1104 15.9994 1.25938 14.2356 18.0584
541 1 -1.1104 15.9994 3.96555 14.2058 18.3653
542 1 -1.1104 15.9994 1.30959 14.0758 20.9674
543 1 -1.1104 15.9994 4.1275 14.3312 21.2403
544 1 -1.1104 15.9994 6.86971 11.483 18.2234
545 1 -1.1104 15.9994 9.68039 11.5836 18.281
546 1 -1.1104 15.9994 6.97797 11.4978 21.0321
547 1 -1.1104 15.9994 9.66255 11.5715 21.1536
548 1 -1.1104 15.9994 6.83007 14.2683 18.1306
549 1 -1.1104 15.9994 9.74485 14.2701 18.2777
550 1 -1.1104 15.9994 6.85967 14.1923 20.9509
551 1 -1.1104 15.9994 9.71771 14.2263 21.104
552 1 -1.1104 15.9994 12.5554 11.6144 18.2842
553 1 -1.1104 15.9994 12.5011 11.585 21.1517
554 1 -1.1104 15.9994 12.5105 14.3154 18.2619
555 1 -1.1104 15.9994 12.4737 14.3263 21.0226
556 1 -1.1104 15.9994 1.39294 16.8488 18.0988
557 1 -1.1104 15.9994 4.22679 17.0543 18.2554
558 1 -1.1104 15.9994 1.28212 16.9439 20.8742
559 1 -1.1104 15.9994 4.07229 17.0761 21.055
560 1 -1.1104 15.9994 1.43403 19.6138 18.2236
561 1 -1.1104 15.9994 4.28837 19.72 17.9443
562 1 -1.1104 15.9994 1.27722 19.8678 21.1544
563 1 -1.1104 15.9994 4.01739 19.8888 20.735
564 1 -1.1104 15.9994 6.93437 17.0255 18.1513
565 1 -1.1104 15.9994 9.67514 17.0608 18.1868
566 1 -1.1104 15.9994 6.84102 17.0343 21.1623
567 1 -1.1104 15.9994 9.67534 17.0729 21.1622
568 1 -1.1104 15.9994 7.05191 19.7612 18.3351
569 1 -1.1104 15.9994 9.8822 19.9063 18.1919
570 1 -1.1104 15.9994 6.98524 19.8777 21.1329
571 1 -1.1104 15.9994 9.85391 19.9374 21.1277
572 1 -1.1104 15.9994 12.3365 17.1981 18.0974
573 1 -1.1104 15.9994 12.5173 17.1422 20.97
574 1 -1.1104 15.9994 12.553 20.0329 18.343
575 1 -1.1104 15.9994 12.4358 19.8646 20.9606
576 1 -1.1104 15.9994 1.41454 22.879 18.0484
577 1 -1.1104 15.9994 4.18039 22.646 18.0852
578 1 -1.1104 15.9994 1.23963 22.5293 20.697
579 1 -1.1104 15.9994 4.36253 22.6454 20.729
580 1 -1.1104 15.9994 7.04094 22.5181 18.1528
581 1 -1.1104 15.9994 9.7339 22.7491 18.3262
582 1 -1.1104 15.9994 7.12037 22.7158 21.1213
583 1 -1.1104 15.9994 9.70116 22.8178 21.094
584 1 -1.1104 15.9994 12.4878 22.758 18.153
585 1 -1.1104 15.9994 12.4602 22.8045 20.8613
586 1 -1.1104 15.9994 1.32614 0.167817 23.8521
587 1 -1.1104 15.9994 4.11208 0.285557 23.9548
588 1 -1.1104 15.9994 1.30981 0.31348 26.7268
589 1 -1.1104 15.9994 4.1369 0.267898 26.6501
590 1 -1.1104 15.9994 1.31749 3.05727 24.0146
591 1 -1.1104 15.9994 4.12164 3.04501 23.8935
592 1 -1.1104 15.9994 1.36007 2.95731 26.8968
593 1 -1.1104 15.9994 4.31345 3.07651 26.7642
594 1 -1.1104 15.9994 6.89834 0.288069 23.6692
595 1 -1.1104 15.9994 9.74072 0.252586 23.5579
596 1 -1.1104 15.9994 6.99444 0.429316 26.5204
597 1 -1.1104 15.9994 9.83016 0.453701 26.3685
598 1 -1.1104 15.9994 6.73612 3.26366 23.7544
599 1 -1.1104 15.9994 9.71708 2.9811 23.7729
600 1 -1.1104 15.9994 7.21041 3.24209 26.4452
601 1 -1.1104 15.9994 9.85678 3.29122 26.6266
602 1 -1.1104 15.9994 12.6791 0.449463 23.6632
603 1 -1.1104 15.9994 12.6065 0.184644 26.4492
604 1 -1.1104 15.9994 12.5468 3.18689 23.5932
605 1 -1.1104 15.9994 12.6483 3.06306 26.405
606 1 -1.1104 15.9994 1.30901 5.81855 23.8517
607 1 -1.1104 15.9994 4.06772 5.88057 23.8694
608 1 -1.1104 15.9994 1.33359 5.85815 26.6394
609 1 -1.1104 15.9994 4.03746 5.86047 26.5824
610 1 -1.1104 15.9994 1.11804 8.67066 23.7402
611 1 -1.1104 15.9994 4.04508 8.7084 23.745
612 1 -1.1104 15.9994 1.34058 8.51626 26.4473
613 1 -1.1104 15.9994 4.06214 8.70848 26.4993
614 1 -1.1104 15.9994 6.89908 6.10362 23.7702
615 1 -1.1104 15.9994 9.7054 5.80847 23.7563
616 1 -1.1104 15.9994 6.87426 5.97387 26.4835
617 1 -1.1104 15.9994 9.68756 5.95218 26.5802
618 1 -1.1104 15.9994 6.78178 8.77233 23.8515
619 1 -1.1104 15.9994 9.72929 8.68263 23.8264
620 1 -1.1104 15.9994 6.86077 8.65768 26.6944
621 1 -1.1104 15.9994 9.64063 8.6732 26.6307
622 1 -1.1104 15.9994 12.5146 5.9152 23.7846
623 1 -1.1104 15.9994 12.5505 5.97143 26.6277
624 1 -1.1104 15.9994 12.5025 8.88512 23.7255
625 1 -1.1104 15.9994 12.4924 8.75278 26.5028
626 1 -1.1104 15.9994 1.2343 11.3299 23.7572
627 1 -1.1104 15.9994 4.05923 11.5583 23.7849
628 1 -1.1104 15.9994 1.27593 11.5257 26.5884
629 1 -1.1104 15.9994 4.04047 11.4561 26.4374