LAMMPS (29 Oct 2020)
OMP_NUM_THREADS environment is not set. Defaulting to 1 thread. (../comm.cpp:94)
  using 1 OpenMP thread(s) per MPI task
OMP_NUM_THREADS environment is not set. Defaulting to 1 thread. (../comm.cpp:94)
  using 1 OpenMP thread(s) per MPI task
Reading data file ...
  triclinic box = (-0.096261345 -1.1061283 -0.10691072) to (27.990261 335.83413 28.000911) with tilt (0.0000000 0.0000000 0.0000000)
  2 by 13 by 2 MPI processor grid
  reading atoms ...
  18000 atoms
  reading velocities ...
  18000 velocities
Finding 1-2 1-3 1-4 neighbors ...
  special bond factors lj:    0.0      0.0      0.0     
  special bond factors coul:  0.0      0.0      0.0     
     0 = max # of 1-2 neighbors
     0 = max # of 1-3 neighbors
     0 = max # of 1-4 neighbors
     1 = max # of special neighbors
  special bonds CPU = 0.003 seconds
  read_data CPU = 0.060 seconds
Setting atom values ...
  12000 settings made for charge
Setting atom values ...
  6000 settings made for charge
PPPM initialization ...
  using 12-bit tables for long-range coulomb (../kspace.cpp:328)
  G vector (1/distance) = 0.29878446
  grid = 40 240 40
  stencil order = 5
  estimated absolute RMS force accuracy = 0.00015810302
  estimated relative force accuracy = 1.0979647e-05
  using single precision MKL FFT
  3d grid and FFT values/proc = 15000 7600
Neighbor list info ...
  update every 1 steps, delay 0 steps, check yes
  max neighbors/atom: 2000, page size: 100000
  master list distance cutoff = 11.3
  ghost atom cutoff = 11.3
  binsize = 5.65, bins = 5 60 5
  2 neighbor lists, perpetual/occasional/extra = 2 0 0
  (1) pair coul/long, perpetual
      attributes: half, newton on
      pair build: half/bin/newton/tri
      stencil: half/bin/3d/newton/tri
      bin: standard
  (2) pair eam/alloy, perpetual, copy from (1)
      attributes: half, newton on
      pair build: copy
      stencil: none
      bin: none
Setting up Verlet run ...
  Unit style    : metal
  Current step  : 0
  Time step     : 0.001
Per MPI rank memory allocation (min/avg/max) = 8.325 | 8.356 | 8.375 Mbytes
Step Temp E_pair E_mol TotEng Press 
       0          600   -235121.02            0   -233725.09   -92.357531 
  100000    598.56699   -235157.06            0   -233764.46   -837.23845 
Loop time of 701.068 on 52 procs for 100000 steps with 18000 atoms

Performance: 12.324 ns/day, 1.947 hours/ns, 142.640 timesteps/s
99.8% CPU use with 52 MPI tasks x 1 OpenMP threads

MPI task timing breakdown:
Section |  min time  |  avg time  |  max time  |%varavg| %total
---------------------------------------------------------------
Pair    | 455.67     | 466.3      | 480.8      |  32.5 | 66.51
Bond    | 0.0062587  | 0.010458   | 0.01473    |   1.9 |  0.00
Kspace  | 143.64     | 161.35     | 173.33     |  61.7 | 23.01
Neigh   | 46.331     | 49.097     | 53.744     |  25.0 |  7.00
Comm    | 18.063     | 19.686     | 22.995     |  28.5 |  2.81
Output  | 5.228e-05  | 5.7837e-05 | 0.00025928 |   0.0 |  0.00
Modify  | 1.9551     | 3.1064     | 5.1441     |  62.0 |  0.44
Other   |            | 1.517      |            |       |  0.22

Nlocal:        346.154 ave         366 max         331 min
Histogram: 5 5 10 8 4 4 5 4 4 3
Nghost:        4159.60 ave        4277 max        4062 min
Histogram: 5 4 7 5 7 10 2 6 5 1
Neighs:        69906.9 ave       74433 max       66032 min
Histogram: 2 5 9 7 8 5 7 2 5 2

Total # of neighbors = 3635161
Ave neighs/atom = 201.95339
Ave special neighs/atom = 0.0000000
Neighbor list builds = 16261
Dangerous builds = 0
12000 atoms in group oxygen
PPPM initialization ...
  using 12-bit tables for long-range coulomb (../kspace.cpp:328)
  G vector (1/distance) = 0.29878446
  grid = 40 240 40
  stencil order = 5
  estimated absolute RMS force accuracy = 0.00015810302
  estimated relative force accuracy = 1.0979647e-05
  using single precision MKL FFT
  3d grid and FFT values/proc = 15000 7600
Setting up Verlet run ...
  Unit style    : metal
  Current step  : 0
  Time step     : 0.001
Per MPI rank memory allocation (min/avg/max) = 8.576 | 8.607 | 8.625 Mbytes
Step f_2 Temp v_Tdiff v_deltaT 
       0            0    598.56699            0            0 
  100000    682.86935    594.99635  0.018615872    216.12854 
  200000     1355.878    595.55684   0.02050773    238.09284 
  300000    2019.5013    592.01654  0.020907384    242.73279 
  400000    2689.7547    591.53623  0.020143359    233.86252 
  500000    3362.4938    592.69891  0.020642161    239.65357 
  600000    4034.6659     593.9115  0.020739462    240.78323 
  700000     4707.787    594.57025  0.020690917    240.21962 
  800000    5386.0345    597.78953  0.019412514    225.37749 
  900000    6054.1382    590.98909  0.020061541    232.91263 
 1000000    6725.1589    593.27064  0.020705824    240.39269 
 1100000    7396.1963    596.28508  0.021240632    246.60176 
 1200000    8063.3846    594.57104   0.02071494    240.49853 
 1300000    8730.4598    595.92457  0.020948784    243.21343 
 1400000    9400.9892    591.94845  0.020093967     233.2891 
 1500000     10070.35    596.46166  0.020693024    240.24409 
Loop time of 10452.9 on 52 procs for 1500000 steps with 18000 atoms

Performance: 12.399 ns/day, 1.936 hours/ns, 143.501 timesteps/s
99.8% CPU use with 52 MPI tasks x 1 OpenMP threads

MPI task timing breakdown:
Section |  min time  |  avg time  |  max time  |%varavg| %total
---------------------------------------------------------------
Pair    | 6745.7     | 6909.3     | 7173.7     | 151.7 | 66.10
Bond    | 0.096795   | 0.15694    | 0.23659    |   7.3 |  0.00
Kspace  | 2140.6     | 2446.8     | 2618.3     | 267.0 | 23.41
Neigh   | 709.52     | 750.31     | 822.52     |  87.6 |  7.18
Comm    | 267.29     | 294.11     | 343.01     | 106.8 |  2.81
Output  | 0.0017302  | 0.0018216  | 0.0035444  |   0.6 |  0.00
Modify  | 8.6542     | 9.4707     | 10.329     |  13.6 |  0.09
Other   |            | 42.72      |            |       |  0.41

Nlocal:        346.154 ave         371 max         325 min
Histogram: 1 8 3 8 7 12 6 3 2 2
Nghost:        4157.31 ave        4257 max        4045 min
Histogram: 2 4 11 4 4 5 2 10 2 8
Neighs:        69904.4 ave       75278 max       65235 min
Histogram: 1 5 6 9 8 11 6 2 2 2

Total # of neighbors = 3635027
Ave neighs/atom = 201.94594
Ave special neighs/atom = 0.0000000
Neighbor list builds = 248519
Dangerous builds = 0
Total wall time: 3:05:54
