LAMMPS (29 Oct 2020)
OMP_NUM_THREADS environment is not set. Defaulting to 1 thread. (../comm.cpp:94)
  using 1 OpenMP thread(s) per MPI task
OMP_NUM_THREADS environment is not set. Defaulting to 1 thread. (../comm.cpp:94)
  using 1 OpenMP thread(s) per MPI task
Reading data file ...
  orthogonal box = (-0.27717828 -3.4472206 -0.27717828) to (27.617178 331.52722 27.617178)
  2 by 13 by 2 MPI processor grid
  reading atoms ...
  18000 atoms
  reading velocities ...
  18000 velocities
Finding 1-2 1-3 1-4 neighbors ...
  special bond factors lj:    0.0      0.0      0.0     
  special bond factors coul:  0.0      0.0      0.0     
     0 = max # of 1-2 neighbors
     0 = max # of 1-3 neighbors
     0 = max # of 1-4 neighbors
     1 = max # of special neighbors
  special bonds CPU = 0.003 seconds
  read_data CPU = 0.054 seconds
90 atoms in group Th
90 atoms in group O
Setting atom values ...
  90 settings made for type
Setting atom values ...
  90 settings made for type
Setting atom values ...
  12000 settings made for charge
Setting atom values ...
  6000 settings made for charge
PPPM initialization ...
  using 12-bit tables for long-range coulomb (../kspace.cpp:328)
  G vector (1/distance) = 0.2991486
  grid = 40 240 40
  stencil order = 5
  estimated absolute RMS force accuracy = 0.00015521489
  estimated relative force accuracy = 1.0779078e-05
  using single precision MKL FFT
  3d grid and FFT values/proc = 18225 7600
Neighbor list info ...
  update every 1 steps, delay 0 steps, check yes
  max neighbors/atom: 2000, page size: 100000
  master list distance cutoff = 13
  ghost atom cutoff = 13
  binsize = 6.5, bins = 5 52 5
  2 neighbor lists, perpetual/occasional/extra = 2 0 0
  (1) pair coul/long, perpetual
      attributes: half, newton on
      pair build: half/bin/newton
      stencil: half/bin/3d/newton
      bin: standard
  (2) pair eam/alloy, perpetual, copy from (1)
      attributes: half, newton on
      pair build: copy
      stencil: none
      bin: none
Setting up cg style minimization ...
  Unit style    : metal
  Current step  : 0
WARNING: Energy due to 3 extra global DOFs will be included in minimizer energies
Per MPI rank memory allocation (min/avg/max) = 9.513 | 10.22 | 10.28 Mbytes
Step Temp E_pair E_mol TotEng Press Volume 
       0            0   -223404.58            0   -223404.58    42412.933    260641.98 
    2280            0   -233823.48            0   -233823.48    105.65732    268728.24 
Loop time of 33.9874 on 52 procs for 2280 steps with 18000 atoms

99.8% CPU use with 52 MPI tasks x 1 OpenMP threads

Minimization stats:
  Stopping criterion = linesearch alpha is zero
  Energy initial, next-to-last, final = 
     -223404.575643803  -233823.482933581  -233823.482933581
  Force two-norm initial, final = 13098.711 41.933406
  Force max component initial, final = 10141.283 23.339802
  Final line search alpha, max atom move = 5.1075535e-12 1.1920929e-10
  Iterations, force evaluations = 2280 3212

MPI task timing breakdown:
Section |  min time  |  avg time  |  max time  |%varavg| %total
---------------------------------------------------------------
Pair    | 20.183     | 21.127     | 21.934     |   9.1 | 62.16
Bond    | 0.00027984 | 0.0004161  | 0.0006471  |   0.0 |  0.00
Kspace  | 4.8566     | 5.6744     | 6.6347     |  17.9 | 16.70
Neigh   | 0.068959   | 0.078925   | 0.090089   |   2.0 |  0.23
Comm    | 0.497      | 0.51959    | 0.53925    |   1.3 |  1.53
Output  | 0          | 0          | 0          |   0.0 |  0.00
Modify  | 0          | 0          | 0          |   0.0 |  0.00
Other   |            | 6.587      |            |       | 19.38

Nlocal:        346.154 ave         392 max         306 min
Histogram: 4 6 8 6 2 7 7 7 2 3
Nghost:        5596.48 ave        5699 max        5479 min
Histogram: 1 9 5 8 0 1 6 10 10 2
Neighs:       109443.0 ave      124465 max       97193 min
Histogram: 5 6 6 7 4 8 7 4 3 2

Total # of neighbors = 5691040
Ave neighs/atom = 316.16889
Ave special neighs/atom = 0.0000000
Neighbor list builds = 27
Dangerous builds = 0
PPPM initialization ...
  using 12-bit tables for long-range coulomb (../kspace.cpp:328)
  G vector (1/distance) = 0.29864975
  grid = 40 240 40
  stencil order = 5
  estimated absolute RMS force accuracy = 0.00015893325
  estimated relative force accuracy = 1.1037303e-05
  using single precision MKL FFT
  3d grid and FFT values/proc = 18225 7600
Setting up Verlet run ...
  Unit style    : metal
  Current step  : 0
  Time step     : 0.001
Per MPI rank memory allocation (min/avg/max) = 10.38 | 10.41 | 10.42 Mbytes
Step Dt Time Atoms Temp PotEng KinEng Press Volume v_latt 
       0        0.001            0    18000          600   -233823.49     1395.932    5653.7515    268728.24    5.6373768 
   10000        0.001           10    18000    600.54912   -234383.27    1397.2096    435.30699    268402.82     5.635062 
   20000        0.001           20    18000    600.59836   -234408.06    1397.3241    395.02864    268284.23    5.6342308 
   30000        0.001           30    18000    593.84903   -234418.16    1381.6215    1001.7169    268156.71    5.6333385 
   40000        0.001           40    18000    598.75011   -234421.54    1393.0241   -1192.8356    268473.17    5.6355534 
   50000        0.001           50    18000    601.37948   -234436.69    1399.1414   -620.17107    268395.49    5.6350096 
   60000        0.001           60    18000    597.96048   -234427.28    1391.1869    496.67705    268211.66    5.6337229 
   70000        0.001           70    18000     602.1933   -234468.21    1401.0348   -277.42535    268207.97    5.6336969 
   80000        0.001           80    18000    591.18425   -234465.32    1375.4217   -712.73819    268267.43    5.6341136 
   90000        0.001           90    18000    599.34075   -234470.39    1394.3982    432.02219    268058.91     5.632653 
  100000        0.001          100    18000    602.04905   -234460.72    1400.6992   -640.48884    268300.78    5.6343467 
Loop time of 821.863 on 52 procs for 100000 steps with 18000 atoms

Performance: 10.513 ns/day, 2.283 hours/ns, 121.675 timesteps/s
99.8% CPU use with 52 MPI tasks x 1 OpenMP threads

MPI task timing breakdown:
Section |  min time  |  avg time  |  max time  |%varavg| %total
---------------------------------------------------------------
Pair    | 526.78     | 538.07     | 548.67     |  23.0 | 65.47
Bond    | 0.010059   | 0.014189   | 0.018194   |   1.6 |  0.00
Kspace  | 149.68     | 160.48     | 171.84     |  42.4 | 19.53
Neigh   | 3.015      | 3.1683     | 3.3399     |   4.4 |  0.39
Comm    | 16.314     | 16.881     | 17.308     |   5.0 |  2.05
Output  | 0.0087687  | 0.0088183  | 0.010717   |   0.3 |  0.00
Modify  | 91.536     | 96.36      | 100.2      |  22.7 | 11.72
Other   |            | 6.875      |            |       |  0.84

Nlocal:        346.154 ave         370 max         330 min
Histogram: 6 9 7 7 3 7 1 7 2 3
Nghost:        5586.60 ave        5728 max        5461 min
Histogram: 3 8 6 7 4 1 9 10 1 3
Neighs:       109268.0 ave      118340 max      102572 min
Histogram: 3 10 6 7 7 7 3 5 1 3

Total # of neighbors = 5681948
Ave neighs/atom = 315.66378
Ave special neighs/atom = 0.0000000
Neighbor list builds = 1082
Dangerous builds = 0
System init for write_data ...
PPPM initialization ...
  using 12-bit tables for long-range coulomb (../kspace.cpp:328)
  G vector (1/distance) = 0.29861452
  grid = 40 240 40
  stencil order = 5
  estimated absolute RMS force accuracy = 0.00015953581
  estimated relative force accuracy = 1.1079149e-05
  using single precision MKL FFT
  3d grid and FFT values/proc = 18225 7600
Total wall time: 0:14:16
