LAMMPS (29 Oct 2020)
OMP_NUM_THREADS environment is not set. Defaulting to 1 thread. (../comm.cpp:94)
  using 1 OpenMP thread(s) per MPI task
OMP_NUM_THREADS environment is not set. Defaulting to 1 thread. (../comm.cpp:94)
  using 1 OpenMP thread(s) per MPI task
Reading data file ...
  orthogonal box = (0.0000000 0.0000000 0.0000000) to (5.4680000 5.4680000 5.4680000)
  2 by 4 by 13 MPI processor grid
  reading atoms ...
  12 atoms
Finding 1-2 1-3 1-4 neighbors ...
  special bond factors lj:    0.0      0.0      0.0     
  special bond factors coul:  0.0      0.0      0.0     
     0 = max # of 1-2 neighbors
     0 = max # of 1-3 neighbors
     0 = max # of 1-4 neighbors
     1 = max # of special neighbors
  special bonds CPU = 0.081 seconds
  read_data CPU = 0.091 seconds
Replicating atoms ...
  orthogonal box = (0.0000000 0.0000000 0.0000000) to (27.340000 328.08000 27.340000)
  2 by 26 by 2 MPI processor grid
  18000 atoms
Finding 1-2 1-3 1-4 neighbors ...
  special bond factors lj:    0.0      0.0      0.0     
  special bond factors coul:  0.0      0.0      0.0     
     0 = max # of 1-2 neighbors
     0 = max # of 1-3 neighbors
     0 = max # of 1-4 neighbors
     1 = max # of special neighbors
  special bonds CPU = 0.010 seconds
  replicate CPU = 0.021 seconds
Setting atom values ...
  12000 settings made for charge
Setting atom values ...
  6000 settings made for charge
PPPM initialization ...
  using 12-bit tables for long-range coulomb (../kspace.cpp:328)
  G vector (1/distance) = 0.30025168
  grid = 40 240 40
  stencil order = 5
  estimated absolute RMS force accuracy = 0.00014651476
  estimated relative force accuracy = 1.0174887e-05
  using single precision MKL FFT
  3d grid and FFT values/proc = 11664 4000
Neighbor list info ...
  update every 1 steps, delay 0 steps, check yes
  max neighbors/atom: 2000, page size: 100000
  master list distance cutoff = 13
  ghost atom cutoff = 13
  binsize = 6.5, bins = 5 51 5
  2 neighbor lists, perpetual/occasional/extra = 2 0 0
  (1) pair coul/long, perpetual
      attributes: half, newton on
      pair build: half/bin/newton
      stencil: half/bin/3d/newton
      bin: standard
  (2) pair eam/alloy, perpetual, copy from (1)
      attributes: half, newton on
      pair build: copy
      stencil: none
      bin: none
Setting up cg style minimization ...
  Unit style    : metal
  Current step  : 0
WARNING: Energy due to 3 extra global DOFs will be included in minimizer energies
Per MPI rank memory allocation (min/avg/max) = 9.018 | 9.038 | 9.063 Mbytes
Step Temp E_pair E_mol TotEng Press Volume 
       0            0   -236328.77            0   -236328.77    136383.26    245231.79 
      24            0   -236946.21            0   -236946.21   -61.949296    260641.98 
Loop time of 1.00927 on 104 procs for 24 steps with 18000 atoms

99.1% CPU use with 104 MPI tasks x 1 OpenMP threads

Minimization stats:
  Stopping criterion = linesearch alpha is zero
  Energy initial, next-to-last, final = 
     -236328.767350111  -236946.208617833  -236946.208617833
  Force two-norm initial, final = 36156.645 224.47553
  Force max component initial, final = 20875.510 192.58659
  Final line search alpha, max atom move = 1.5474765e-13 2.9802322e-11
  Iterations, force evaluations = 24 100

MPI task timing breakdown:
Section |  min time  |  avg time  |  max time  |%varavg| %total
---------------------------------------------------------------
Pair    | 0.35822    | 0.38214    | 0.41192    |   1.7 | 37.86
Bond    | 7.4706e-06 | 1.1072e-05 | 2.2409e-05 |   0.0 |  0.00
Kspace  | 0.43067    | 0.46256    | 0.48878    |   1.6 | 45.83
Neigh   | 0.0070054  | 0.0081501  | 0.0094201  |   0.7 |  0.81
Comm    | 0.026582   | 0.032895   | 0.037172   |   1.4 |  3.26
Output  | 0          | 0          | 0          |   0.0 |  0.00
Modify  | 0          | 0          | 0          |   0.0 |  0.00
Other   |            | 0.1235     |            |       | 12.24

Nlocal:        173.077 ave         213 max         140 min
Histogram: 7 6 14 16 21 10 15 10 2 3
Nghost:        4341.38 ave        4382 max        4238 min
Histogram: 2 4 1 1 3 4 22 30 26 11
Neighs:        55846.2 ave       69037 max       44453 min
Histogram: 6 6 14 16 20 14 13 9 2 4

Total # of neighbors = 5808000
Ave neighs/atom = 322.66667
Ave special neighs/atom = 0.0000000
Neighbor list builds = 5
Dangerous builds = 0
6000 atoms in group thorium
12000 atoms in group oxygen
Setting atom values ...
  0 settings made for type/subset
Setting atom values ...
  0 settings made for type/subset
0 atoms in group delete
WARNING: Ignoring 'compress yes' for molecular system (../delete_atoms.cpp:125)
Deleted 0 atoms, new total = 18000
PPPM initialization ...
  using 12-bit tables for long-range coulomb (../kspace.cpp:328)
  G vector (1/distance) = 0.2991486
  grid = 40 240 40
  stencil order = 5
  estimated absolute RMS force accuracy = 0.00015521489
  estimated relative force accuracy = 1.0779078e-05
  using single precision MKL FFT
  3d grid and FFT values/proc = 11664 4000
Setting up cg style minimization ...
  Unit style    : metal
  Current step  : 0
WARNING: Energy due to 3 extra global DOFs will be included in minimizer energies
Per MPI rank memory allocation (min/avg/max) = 9.010 | 9.036 | 9.066 Mbytes
Step Temp E_pair E_mol TotEng Press Volume 
       0            0   -236946.26            0   -236946.26   -64.517414    260641.98 
       1            0   -236946.26            0   -236946.26   -64.517414    260641.98 
Loop time of 0.431079 on 104 procs for 1 steps with 18000 atoms

99.7% CPU use with 104 MPI tasks x 1 OpenMP threads

Minimization stats:
  Stopping criterion = linesearch alpha is zero
  Energy initial, next-to-last, final = 
     -236946.258403143  -236946.258403143  -236946.258403143
  Force two-norm initial, final = 229.28878 229.28878
  Force max component initial, final = 197.11985 197.11985
  Final line search alpha, max atom move = 1.5118884e-13 2.9802322e-11
  Iterations, force evaluations = 1 44

MPI task timing breakdown:
Section |  min time  |  avg time  |  max time  |%varavg| %total
---------------------------------------------------------------
Pair    | 0.15284    | 0.16299    | 0.17574    |   1.1 | 37.81
Bond    | 3.4072e-06 | 5.006e-06  | 9.6934e-06 |   0.0 |  0.00
Kspace  | 0.18731    | 0.20039    | 0.21101    |   1.1 | 46.48
Neigh   | 0          | 0          | 0          |   0.0 |  0.00
Comm    | 0.010312   | 0.013252   | 0.015012   |   0.9 |  3.07
Output  | 0          | 0          | 0          |   0.0 |  0.00
Modify  | 0          | 0          | 0          |   0.0 |  0.00
Other   |            | 0.05444    |            |       | 12.63

Nlocal:        173.077 ave         213 max         140 min
Histogram: 6 4 16 14 20 19 15 6 1 3
Nghost:        4341.38 ave        4382 max        4242 min
Histogram: 1 6 1 0 1 3 23 37 23 9
Neighs:        55846.2 ave       68768 max       44361 min
Histogram: 5 4 9 21 18 19 15 8 2 3

Total # of neighbors = 5808000
Ave neighs/atom = 322.66667
Ave special neighs/atom = 0.0000000
Neighbor list builds = 0
Dangerous builds = 0
Resetting atom IDs ...
PPPM initialization ...
  using 12-bit tables for long-range coulomb (../kspace.cpp:328)
  G vector (1/distance) = 0.2991486
  grid = 40 240 40
  stencil order = 5
  estimated absolute RMS force accuracy = 0.00015521489
  estimated relative force accuracy = 1.0779078e-05
  using single precision MKL FFT
  3d grid and FFT values/proc = 11664 4000
Finding 1-2 1-3 1-4 neighbors ...
  special bond factors lj:    0.0      0.0      0.0     
  special bond factors coul:  0.0      0.0      0.0     
     0 = max # of 1-2 neighbors
     0 = max # of 1-3 neighbors
     0 = max # of 1-4 neighbors
     1 = max # of special neighbors
  special bonds CPU = 0.005 seconds
PPPM initialization ...
  using 12-bit tables for long-range coulomb (../kspace.cpp:328)
  G vector (1/distance) = 0.2991486
  grid = 40 240 40
  stencil order = 5
  estimated absolute RMS force accuracy = 0.00015521489
  estimated relative force accuracy = 1.0779078e-05
  using single precision MKL FFT
  3d grid and FFT values/proc = 11664 4000
Setting up Verlet run ...
  Unit style    : metal
  Current step  : 0
  Time step     : 0.001
Per MPI rank memory allocation (min/avg/max) = 9.145 | 9.170 | 9.200 Mbytes
Step Dt Time Atoms Temp PotEng KinEng Press Volume 
       0        0.001            0    18000          600   -236946.26     1395.932    5656.0485    260641.98 
   10000        0.001           10    18000    594.63287   -235507.86    1383.4451   -22.368087    264870.29 
   20000        0.001           20    18000    596.41307   -235508.85    1387.5868    684.43496    264737.84 
   30000        0.001           30    18000    594.28013   -235527.63    1382.6244    -1271.977    264975.36 
   40000        0.001           40    18000    596.29718   -235508.05    1387.3172    285.57691    264813.25 
   50000        0.001           50    18000    608.21616   -235507.24    1415.0474   -255.04599    264904.53 
   60000        0.001           60    18000    601.66286   -235519.18    1399.8007   -234.88922    264869.28 
   70000        0.001           70    18000    600.51722   -235503.71    1397.1354   -51.255928    264896.73 
   80000        0.001           80    18000    602.50709   -235500.47    1401.7649    1223.5768    264713.02 
   90000        0.001           90    18000    595.50659   -235500.74    1385.4779   -1027.1111     265038.3 
  100000        0.001          100    18000     598.7885   -235487.33    1393.1134    579.29454    264862.35 
Loop time of 845.056 on 104 procs for 100000 steps with 18000 atoms

Performance: 10.224 ns/day, 2.347 hours/ns, 118.335 timesteps/s
99.8% CPU use with 104 MPI tasks x 1 OpenMP threads

MPI task timing breakdown:
Section |  min time  |  avg time  |  max time  |%varavg| %total
---------------------------------------------------------------
Pair    | 295.85     | 306.72     | 319.17     |  28.7 | 36.30
Bond    | 0.0078156  | 0.012302   | 0.019726   |   2.2 |  0.00
Kspace  | 427.73     | 440.64     | 451.79     |  23.5 | 52.14
Neigh   | 0.13254    | 0.14177    | 0.15277    |   1.5 |  0.02
Comm    | 25.243     | 30.846     | 35.669     |  46.2 |  3.65
Output  | 0.012643   | 0.012686   | 0.014708   |   0.2 |  0.00
Modify  | 53.901     | 58.95      | 66.496     |  35.2 |  6.98
Other   |            | 7.725      |            |       |  0.91

Nlocal:        173.077 ave         192 max         157 min
Histogram: 8 11 15 6 14 12 18 10 6 4
Nghost:        4309.66 ave        4365 max        4129 min
Histogram: 8 0 1 6 1 0 8 5 37 38
Neighs:        55551.2 ave       62117 max       49787 min
Histogram: 7 10 15 9 10 20 14 12 3 4

Total # of neighbors = 5777320
Ave neighs/atom = 320.96222
Ave special neighs/atom = 0.0000000
Neighbor list builds = 89
Dangerous builds = 0
System init for write_data ...
PPPM initialization ...
  using 12-bit tables for long-range coulomb (../kspace.cpp:328)
  G vector (1/distance) = 0.29885573
  grid = 40 240 40
  stencil order = 5
  estimated absolute RMS force accuracy = 0.00015756307
  estimated relative force accuracy = 1.094215e-05
  using single precision MKL FFT
  3d grid and FFT values/proc = 11664 4000
OMP_NUM_THREADS environment is not set. Defaulting to 1 thread. (../comm.cpp:94)
  using 1 OpenMP thread(s) per MPI task
Reading data file ...
  orthogonal box = (-0.34860744 -4.2987436 -0.35947084) to (27.688607 332.37874 27.699471)
  2 by 26 by 2 MPI processor grid
  reading atoms ...
  18000 atoms
  reading velocities ...
  18000 velocities
Finding 1-2 1-3 1-4 neighbors ...
  special bond factors lj:    0.0      0.0      0.0     
  special bond factors coul:  0.0      0.0      0.0     
     0 = max # of 1-2 neighbors
     0 = max # of 1-3 neighbors
     0 = max # of 1-4 neighbors
     1 = max # of special neighbors
  special bonds CPU = 0.004 seconds
  read_data CPU = 0.041 seconds
Setting atom values ...
  12000 settings made for charge
Setting atom values ...
  6000 settings made for charge
12000 atoms in group oxygen
PPPM initialization ...
  using 12-bit tables for long-range coulomb (../kspace.cpp:328)
  G vector (1/distance) = 0.29885573
  grid = 40 240 40
  stencil order = 5
  estimated absolute RMS force accuracy = 0.00015756307
  estimated relative force accuracy = 1.094215e-05
  using single precision MKL FFT
  3d grid and FFT values/proc = 9375 4000
Neighbor list info ...
  update every 1 steps, delay 0 steps, check yes
  max neighbors/atom: 2000, page size: 100000
  master list distance cutoff = 11.3
  ghost atom cutoff = 11.3
  binsize = 5.65, bins = 5 60 5
  2 neighbor lists, perpetual/occasional/extra = 2 0 0
  (1) pair coul/long, perpetual
      attributes: half, newton on
      pair build: half/bin/newton
      stencil: half/bin/3d/newton
      bin: standard
  (2) pair eam/alloy, perpetual, copy from (1)
      attributes: half, newton on
      pair build: copy
      stencil: none
      bin: none
Setting up Verlet run ...
  Unit style    : metal
  Current step  : 0
  Time step     : 0.001
Per MPI rank memory allocation (min/avg/max) = 7.960 | 7.987 | 8.016 Mbytes
Step f_2 Temp v_Tdiff v_deltaT 
       0            0     598.7885            0            0 
  100000    204.27174    604.25995 0.0045470094    52.790357 
  200000    407.51481    604.10886 0.0050531783     58.66693 
  300000    612.45227    600.93255 0.0046473603    53.955422 
  400000     812.8311    604.84244 0.0047925137    55.640639 
  500000    1012.9282    603.34543 0.0043224779    50.183566 
  600000    1216.1837    603.09232 0.0047019979    54.589758 
  700000    1419.1452    602.47904 0.0051820498    60.163117 
  800000     1622.326    606.07821 0.0050051498    58.109324 
  900000    1822.9658     605.1164 0.0048772971    56.624966 
 1000000    2023.2836    605.83946 0.0049440816    57.400328 
 1100000    2224.0232    599.96713 0.0050746952     58.91674 
 1200000    2429.4554    601.88554  0.004398705    51.068557 
Loop time of 8883.35 on 104 procs for 1200000 steps with 18000 atoms

Performance: 11.671 ns/day, 2.056 hours/ns, 135.084 timesteps/s
99.8% CPU use with 104 MPI tasks x 1 OpenMP threads

MPI task timing breakdown:
Section |  min time  |  avg time  |  max time  |%varavg| %total
---------------------------------------------------------------
Pair    | 2875       | 2965.5     | 3094.7     |  90.9 | 33.38
Bond    | 0.067755   | 0.10143    | 0.17304    |   6.5 |  0.00
Kspace  | 5046.2     | 5211.8     | 5348.9     |  87.0 | 58.67
Neigh   | 198.54     | 225.66     | 249.55     |  79.8 |  2.54
Comm    | 325.02     | 393.96     | 457.59     | 149.8 |  4.43
Output  | 0.0015266  | 0.001618   | 0.0030091  |   0.4 |  0.00
Modify  | 13.57      | 15.188     | 20.304     |  23.3 |  0.17
Other   |            | 71.13      |            |       |  0.80

Nlocal:        173.077 ave         188 max         152 min
Histogram: 3 1 11 15 7 11 19 13 17 7
Nghost:        3138.18 ave        3228 max        3040 min
Histogram: 8 11 5 10 18 16 4 5 13 14
Neighs:        34970.9 ave       38877 max       30807 min
Histogram: 2 6 14 15 11 12 21 13 7 3

Total # of neighbors = 3636975
Ave neighs/atom = 202.05417
Ave special neighs/atom = 0.0000000
Neighbor list builds = 195703
Dangerous builds = 0
Total wall time: 2:42:11
