LAMMPS (29 Oct 2020)
OMP_NUM_THREADS environment is not set. Defaulting to 1 thread. (../comm.cpp:94)
  using 1 OpenMP thread(s) per MPI task
OMP_NUM_THREADS environment is not set. Defaulting to 1 thread. (../comm.cpp:94)
  using 1 OpenMP thread(s) per MPI task
Reading data file ...
  orthogonal box = (0.0000000 0.0000000 0.0000000) to (5.4680000 5.4680000 5.4680000)
  2 by 4 by 13 MPI processor grid
  reading atoms ...
  12 atoms
Finding 1-2 1-3 1-4 neighbors ...
  special bond factors lj:    0.0      0.0      0.0     
  special bond factors coul:  0.0      0.0      0.0     
     0 = max # of 1-2 neighbors
     0 = max # of 1-3 neighbors
     0 = max # of 1-4 neighbors
     1 = max # of special neighbors
  special bonds CPU = 1.301 seconds
  read_data CPU = 1.310 seconds
Replicating atoms ...
  orthogonal box = (0.0000000 0.0000000 0.0000000) to (27.340000 328.08000 27.340000)
  2 by 26 by 2 MPI processor grid
  18000 atoms
Finding 1-2 1-3 1-4 neighbors ...
  special bond factors lj:    0.0      0.0      0.0     
  special bond factors coul:  0.0      0.0      0.0     
     0 = max # of 1-2 neighbors
     0 = max # of 1-3 neighbors
     0 = max # of 1-4 neighbors
     1 = max # of special neighbors
  special bonds CPU = 0.010 seconds
  replicate CPU = 0.021 seconds
Setting atom values ...
  12000 settings made for charge
Setting atom values ...
  6000 settings made for charge
PPPM initialization ...
  using 12-bit tables for long-range coulomb (../kspace.cpp:328)
  G vector (1/distance) = 0.30025168
  grid = 40 240 40
  stencil order = 5
  estimated absolute RMS force accuracy = 0.00014651476
  estimated relative force accuracy = 1.0174887e-05
  using single precision MKL FFT
  3d grid and FFT values/proc = 11664 4000
Neighbor list info ...
  update every 1 steps, delay 0 steps, check yes
  max neighbors/atom: 2000, page size: 100000
  master list distance cutoff = 13
  ghost atom cutoff = 13
  binsize = 6.5, bins = 5 51 5
  2 neighbor lists, perpetual/occasional/extra = 2 0 0
  (1) pair coul/long, perpetual
      attributes: half, newton on
      pair build: half/bin/newton
      stencil: half/bin/3d/newton
      bin: standard
  (2) pair eam/alloy, perpetual, copy from (1)
      attributes: half, newton on
      pair build: copy
      stencil: none
      bin: none
Setting up cg style minimization ...
  Unit style    : metal
  Current step  : 0
WARNING: Energy due to 3 extra global DOFs will be included in minimizer energies
Per MPI rank memory allocation (min/avg/max) = 9.018 | 9.038 | 9.063 Mbytes
Step Temp E_pair E_mol TotEng Press Volume 
       0            0   -236328.77            0   -236328.77    136383.26    245231.79 
      24            0   -236946.21            0   -236946.21   -61.949296    260641.98 
Loop time of 1.01275 on 104 procs for 24 steps with 18000 atoms

98.8% CPU use with 104 MPI tasks x 1 OpenMP threads

Minimization stats:
  Stopping criterion = linesearch alpha is zero
  Energy initial, next-to-last, final = 
     -236328.767350111  -236946.208617833  -236946.208617833
  Force two-norm initial, final = 36156.645 224.47553
  Force max component initial, final = 20875.510 192.58659
  Final line search alpha, max atom move = 1.5474765e-13 2.9802322e-11
  Iterations, force evaluations = 24 100

MPI task timing breakdown:
Section |  min time  |  avg time  |  max time  |%varavg| %total
---------------------------------------------------------------
Pair    | 0.35742    | 0.38054    | 0.40896    |   1.6 | 37.58
Bond    | 7.3228e-06 | 1.126e-05  | 2.5366e-05 |   0.0 |  0.00
Kspace  | 0.42987    | 0.45944    | 0.48402    |   1.5 | 45.37
Neigh   | 0.0069417  | 0.0080258  | 0.0093436  |   0.7 |  0.79
Comm    | 0.026431   | 0.032781   | 0.036933   |   1.3 |  3.24
Output  | 0          | 0          | 0          |   0.0 |  0.00
Modify  | 0          | 0          | 0          |   0.0 |  0.00
Other   |            | 0.1319     |            |       | 13.03

Nlocal:        173.077 ave         213 max         140 min
Histogram: 7 6 14 16 21 10 15 10 2 3
Nghost:        4341.38 ave        4382 max        4238 min
Histogram: 2 4 1 1 3 4 22 30 26 11
Neighs:        55846.2 ave       69037 max       44453 min
Histogram: 6 6 14 16 20 14 13 9 2 4

Total # of neighbors = 5808000
Ave neighs/atom = 322.66667
Ave special neighs/atom = 0.0000000
Neighbor list builds = 5
Dangerous builds = 0
6000 atoms in group thorium
12000 atoms in group oxygen
Setting atom values ...
  0 settings made for type/subset
Setting atom values ...
  0 settings made for type/subset
0 atoms in group delete
WARNING: Ignoring 'compress yes' for molecular system (../delete_atoms.cpp:125)
Deleted 0 atoms, new total = 18000
PPPM initialization ...
  using 12-bit tables for long-range coulomb (../kspace.cpp:328)
  G vector (1/distance) = 0.2991486
  grid = 40 240 40
  stencil order = 5
  estimated absolute RMS force accuracy = 0.00015521489
  estimated relative force accuracy = 1.0779078e-05
  using single precision MKL FFT
  3d grid and FFT values/proc = 11664 4000
Setting up cg style minimization ...
  Unit style    : metal
  Current step  : 0
WARNING: Energy due to 3 extra global DOFs will be included in minimizer energies
Per MPI rank memory allocation (min/avg/max) = 9.010 | 9.036 | 9.066 Mbytes
Step Temp E_pair E_mol TotEng Press Volume 
       0            0   -236946.26            0   -236946.26   -64.517414    260641.98 
       1            0   -236946.26            0   -236946.26   -64.517414    260641.98 
Loop time of 0.425522 on 104 procs for 1 steps with 18000 atoms

99.7% CPU use with 104 MPI tasks x 1 OpenMP threads

Minimization stats:
  Stopping criterion = linesearch alpha is zero
  Energy initial, next-to-last, final = 
     -236946.258403143  -236946.258403143  -236946.258403143
  Force two-norm initial, final = 229.28878 229.28878
  Force max component initial, final = 197.11985 197.11985
  Final line search alpha, max atom move = 1.5118884e-13 2.9802322e-11
  Iterations, force evaluations = 1 44

MPI task timing breakdown:
Section |  min time  |  avg time  |  max time  |%varavg| %total
---------------------------------------------------------------
Pair    | 0.15245    | 0.16275    | 0.17536    |   1.1 | 38.25
Bond    | 3.1914e-06 | 4.8548e-06 | 1.5807e-05 |   0.0 |  0.00
Kspace  | 0.18448    | 0.19732    | 0.20795    |   1.0 | 46.37
Neigh   | 0          | 0          | 0          |   0.0 |  0.00
Comm    | 0.010104   | 0.013217   | 0.014847   |   0.9 |  3.11
Output  | 0          | 0          | 0          |   0.0 |  0.00
Modify  | 0          | 0          | 0          |   0.0 |  0.00
Other   |            | 0.05223    |            |       | 12.27

Nlocal:        173.077 ave         213 max         140 min
Histogram: 6 4 16 14 20 19 15 6 1 3
Nghost:        4341.38 ave        4382 max        4242 min
Histogram: 1 6 1 0 1 3 23 37 23 9
Neighs:        55846.2 ave       68768 max       44361 min
Histogram: 5 4 9 21 18 19 15 8 2 3

Total # of neighbors = 5808000
Ave neighs/atom = 322.66667
Ave special neighs/atom = 0.0000000
Neighbor list builds = 0
Dangerous builds = 0
Resetting atom IDs ...
PPPM initialization ...
  using 12-bit tables for long-range coulomb (../kspace.cpp:328)
  G vector (1/distance) = 0.2991486
  grid = 40 240 40
  stencil order = 5
  estimated absolute RMS force accuracy = 0.00015521489
  estimated relative force accuracy = 1.0779078e-05
  using single precision MKL FFT
  3d grid and FFT values/proc = 11664 4000
Finding 1-2 1-3 1-4 neighbors ...
  special bond factors lj:    0.0      0.0      0.0     
  special bond factors coul:  0.0      0.0      0.0     
     0 = max # of 1-2 neighbors
     0 = max # of 1-3 neighbors
     0 = max # of 1-4 neighbors
     1 = max # of special neighbors
  special bonds CPU = 0.005 seconds
PPPM initialization ...
  using 12-bit tables for long-range coulomb (../kspace.cpp:328)
  G vector (1/distance) = 0.2991486
  grid = 40 240 40
  stencil order = 5
  estimated absolute RMS force accuracy = 0.00015521489
  estimated relative force accuracy = 1.0779078e-05
  using single precision MKL FFT
  3d grid and FFT values/proc = 11664 4000
Setting up Verlet run ...
  Unit style    : metal
  Current step  : 0
  Time step     : 0.001
Per MPI rank memory allocation (min/avg/max) = 9.145 | 9.170 | 9.200 Mbytes
Step Dt Time Atoms Temp PotEng KinEng Press Volume 
       0        0.001            0    18000          600   -236946.26     1395.932    5656.0485    260641.98 
   10000        0.001           10    18000    593.29714    -235510.7    1380.3375      -754.93     264951.9 
