LAMMPS data file via write_data, version 29 Oct 2020, timestep = 100000

18000 atoms
4 atom types

-0.34860744421937356 27.688607444219013 xlo xhi
-4.298743577717106 332.37874357772336 ylo yhi
-0.35947083550066355 27.69947083550063 zlo zhi

Masses

1 15.9994
2 232.0381
3 232.0381
4 15.9994

Atoms # full

1 0 2 2.2208 5.256375544952611 1.3368724132024614 5.133640673692319 0 0 0
2 0 2 2.2208 5.402909662247276 6.92844386234661 5.074354411965774 0 0 0
3 0 1 -1.1104 1.0389957058261234 -2.9611166782065967 0.9847238963440236 0 0 0
5 0 1 -1.1104 0.9533797869129985 2.7277796446699436 0.8095949679115034 0 0 0
7 0 1 -1.1104 1.0360472838730428 8.56259880160717 0.7795519582284987 0 0 0
15 0 1 -1.1104 1.069448806665945 -2.919240116938121 3.7263671328447754 0 0 0
16 0 1 -1.1104 1.1321992649067074 2.827713395338945 3.72896676841931 0 0 0
17 0 1 -1.1104 1.0957972892724037 8.399471001543997 3.6725655514180273 0 0 0
21 0 2 2.2208 5.210076969436114 -1.4784739617868716 2.1497497479752545 0 0 0
22 0 2 2.2208 5.385261588312436 4.314445363819983 2.3555110122949734 0 0 0
23 0 1 -1.1104 0.9773308433952422 -0.008119890225340558 0.926312283691189 0 0 0
25 0 1 -1.1104 1.1341940564570856 5.734672048708451 0.875266427018542 0 0 0
31 0 1 -1.1104 1.1390988875462518 -0.08157067752017508 3.5783751774008494 0 0 0
32 0 1 -1.1104 1.1586241754758864 5.60698433418582 3.6612363261025234 0 0 0
35 0 2 2.2208 2.454645057067452 1.2854800164634173 2.144702711034446 0 0 0
36 0 2 2.2208 2.454467276874973 6.974289850604855 2.251386275088564 0 0 0
37 0 1 -1.1104 3.7962736283097964 -2.9244968541478613 0.8012062997601149 0 0 0
39 0 1 -1.1104 3.7046495737687177 2.711537805750196 0.7889971623333714 0 0 0
41 0 1 -1.1104 3.805999360560718 8.270640719646808 0.931132557033448 0 0 0
43 0 1 -1.1104 3.874880007592012 -3.011092545456339 3.7845312637848734 0 0 0
44 0 1 -1.1104 4.025771246841926 2.721232356567001 3.5772965263931575 0 0 0
45 0 1 -1.1104 3.9741342951424556 8.36126025380084 3.6196089300283663 0 0 0
46 0 2 2.2208 2.4678910456382943 -1.5671848551262177 5.100659505885864 0 0 0
47 0 2 2.2208 2.52379909805752 4.165160216126629 5.146548601619698 0 0 0
48 0 1 -1.1104 4.006969650351886 -0.0772757088663247 0.9461018825687795 0 0 0
50 0 1 -1.1104 3.955679788066953 5.402490805097599 0.9405841864800198 0 0 0
52 0 1 -1.1104 3.8095254431607843 -0.15047083880383397 3.544907174310934 0 0 0
53 0 1 -1.1104 3.922539815576699 5.5855150493945525 3.6949399757550507 0 0 0
59 0 2 2.2208 -0.21292288734251003 4.135537130492033 2.2129745518780113 0 0 0
61 0 2 2.2208 -0.28791520293394945 6.903629279206176 5.05228673273161 0 0 0
62 0 2 2.2208 -0.21334069814365736 1.2976137694463972 5.0339358234835965 0 0 0
58 0 2 2.2208 -0.2516776007960857 -4.297072975948652 5.111380601753888 0 0 0
210 0 2 2.2208 10.810847318686841 -4.156343751128304 10.65314537858785 0 0 0
20 0 1 -1.1104 6.819539588409364 8.32512178475338 3.6919075434692195 0 0 0
34 0 1 -1.1104 6.702309910951975 5.55707117665294 3.7312657757249204 0 0 0
29 0 1 -1.1104 6.752804823966903 5.473211186025035 0.8591200920506825 0 0 0
13 0 1 -1.1104 6.4823720734838846 8.322005768771055 0.8102730826531432 0 0 0
33 0 1 -1.1104 6.52532835912441 -0.21888959893795687 3.704951790835451 0 0 0
27 0 1 -1.1104 6.6107719631471 -0.21518535268512154 0.7713986440932499 0 0 0
6 0 1 -1.1104 0.9772805516427374 2.789962741900205 6.412363343805627 0 0 0
40 0 1 -1.1104 3.994722406051182 2.736647092307159 6.520843019013265 0 0 0
8 0 1 -1.1104 1.1318851387008761 8.393912851091764 6.485189772388554 0 0 0
38 0 1 -1.1104 3.728560268538926 -2.929569071766359 6.557491814704294 0 0 0
26 0 1 -1.1104 1.1118149169839178 5.621864965704439 6.479162389096512 0 0 0
30 0 1 -1.1104 6.752086832298626 5.589424339798581 6.446265981500225 0 0 0
163 0 2 2.2208 -0.3031026594368811 4.174275806041953 7.868361007359285 0 0 0
202 0 2 2.2208 10.901733191064437 4.232100047271055 13.479209355563114 0 0 0
203 0 2 2.2208 8.21509381659401 7.096056480271716 13.492985800100554 0 0 0
19 0 1 -1.1104 6.753363691515902 2.752083425879665 3.91873886399657 0 0 0
9 0 1 -1.1104 6.558003281377804 -2.9759451593277886 1.0021131886819399 0 0 0
18 0 1 -1.1104 6.699387527702765 -3.057425459613031 3.7635407005173604 0 0 0
11 0 1 -1.1104 6.655123428275828 2.555703025539498 0.9805769714372475 0 0 0
69 0 2 2.2208 10.914948429715364 1.2919142942378998 5.0667501832517585 0 0 0
70 0 2 2.2208 10.988142955523118 7.012931377579741 5.074381956932823 0 0 0
71 0 1 -1.1104 12.164018218298105 -2.88261223473048 0.8504471397573579 0 0 0
73 0 1 -1.1104 12.28880417175531 2.7646692023475574 0.9014784807108531 0 0 0
75 0 1 -1.1104 12.14120216463608 8.476470528674563 0.6793373673435296 0 0 0
77 0 1 -1.1104 12.323144755717875 -2.8987943116335364 3.589470477689277 0 0 0
78 0 1 -1.1104 12.200529261675664 2.732764442234892 3.8437111937630957 0 0 0
79 0 1 -1.1104 12.444947945639605 8.493867102920769 3.4648956516520277 0 0 0
80 0 2 2.2208 10.800407618552232 -1.5782289907904794 2.260028604418719 0 0 0
81 0 2 2.2208 10.935356590393159 4.204385246453236 2.3381969505607936 0 0 0
82 0 1 -1.1104 12.325779261412366 -0.17997759816286316 0.9912481016438132 0 0 0
84 0 1 -1.1104 12.286110332966373 5.695350846444905 0.9216179560139589 0 0 0
86 0 1 -1.1104 12.329890900120438 -0.15223499296057894 3.7263939838406888 0 0 0
87 0 1 -1.1104 12.315805977793852 5.6197476912270234 3.6376118420308323 0 0 0
88 0 2 2.2208 8.06313777451236 1.327990627564521 2.3204786213721427 0 0 0
89 0 2 2.2208 8.087200758661494 7.099185206777263 2.3241571421116265 0 0 0
90 0 1 -1.1104 9.411356936941337 -2.953623274745118 0.963040837820719 0 0 0
92 0 1 -1.1104 9.555960256384457 2.7128579250196916 0.8651499476640275 0 0 0
94 0 1 -1.1104 9.399699811952965 8.297904030360085 0.9372268268728448 0 0 0
96 0 1 -1.1104 9.457084939819488 -2.9699694614559755 3.711189380236852 0 0 0
97 0 1 -1.1104 9.617762647458868 2.635331887413661 3.6882260187910507 0 0 0
99 0 2 2.2208 7.943925729681346 -1.5291174475144127 5.10676651200316 0 0 0
100 0 2 2.2208 8.16398179456132 4.241038100745739 5.0558619957357305 0 0 0
101 0 1 -1.1104 9.374518969053234 -0.08958111905253266 0.9165579567304496 0 0 0
103 0 1 -1.1104 9.398441186304655 5.515361685065116 1.102435905498964 0 0 0
105 0 1 -1.1104 9.452963148735245 -0.014148358294554342 3.605236861645277 0 0 0
106 0 1 -1.1104 9.498711871380713 5.473901452443983 3.8047302937033214 0 0 0
98 0 1 -1.1104 9.54837358167066 8.330157905261963 3.6235404459907143 0 0 0
111 0 2 2.2208 13.666891074934421 1.1492081019523963 2.371647155406518 0 0 0
293 0 2 2.2208 13.542973847253313 -4.205691514075625 13.54800997309618 0 0 0
28 0 1 -1.1104 6.617009495789831 -0.19293591056062714 6.621602978048644 0 0 0
85 0 1 -1.1104 12.354462226165275 5.520269467271883 6.4981967162003365 0 0 0
104 0 1 -1.1104 9.63141015031349 5.485014794285053 6.468676907990134 0 0 0
91 0 1 -1.1104 9.404873245822637 -2.943067195627939 6.5170958624810496 0 0 0
83 0 1 -1.1104 12.316945784009667 -0.2570316334402496 6.529913389319301 0 0 0
14 0 1 -1.1104 6.8976179310335395 8.413011951007096 6.598535850089924 0 0 0
102 0 1 -1.1104 9.462579478401615 -0.08925499713081456 6.403775995618452 0 0 0
42 0 1 -1.1104 4.0398282392762175 8.35924007470973 6.356184637478596 0 0 0
4 0 1 -1.1104 1.1217596779196273 -2.953083649234878 6.48871435746343 0 0 0
51 0 1 -1.1104 4.015618979992458 5.590418114308946 6.557859823363285 0 0 0
153 0 1 -1.1104 3.9265472285292247 8.225882261327277 9.393197337499116 0 0 0
200 0 2 2.2208 10.782059480593716 -1.3829443408251758 13.551747361016327 0 0 0
24 0 1 -1.1104 0.9631607869695116 -0.10138542844646493 6.409461126340546 0 0 0
49 0 1 -1.1104 3.73388503592216 0.02016202411626684 6.404747738771838 0 0 0
168 0 2 2.2208 2.4981265499547143 -4.17868795069884 7.956629642929387 0 0 0
121 0 1 -1.1104 3.911335955656339 5.503227832086305 9.35626622506667 0 0 0
122 0 2 2.2208 5.150123951599933 1.2813826582523473 10.68415608897564 0 0 0
123 0 2 2.2208 5.330297814299247 6.91109526230191 10.724163780696877 0 0 0
124 0 1 -1.1104 0.9486841597868135 -2.889613422611016 12.160704669181342 0 0 0
125 0 1 -1.1104 0.843421237320869 2.8538762150153683 12.026140519871944 0 0 0
126 0 1 -1.1104 1.0251633833083849 8.498431558334229 12.14444984604932 0 0 0
130 0 1 -1.1104 1.120346507149522 -2.799666426188284 9.243609921002005 0 0 0
131 0 1 -1.1104 1.019243216314906 2.8685415224901307 9.31271346057405 0 0 0
132 0 1 -1.1104 0.9805438184142787 8.367361934103826 9.36900996517815 0 0 0
136 0 2 2.2208 5.167753556681012 -1.593904817079368 7.934970407412016 0 0 0
137 0 2 2.2208 5.291914564590994 4.045408089532506 7.974989382668416 0 0 0
138 0 1 -1.1104 0.9869312967011457 -0.15499449354028427 12.073618237373939 0 0 0
139 0 1 -1.1104 1.0542305153555087 5.546960519264985 12.110659145697122 0 0 0
142 0 1 -1.1104 0.9173615914300777 0.014471465742005793 9.232217514417819 0 0 0
143 0 1 -1.1104 1.0435296171741846 5.640525542468717 9.277856519369655 0 0 0
146 0 2 2.2208 2.2788926411389614 1.3364347631843971 7.922717884072537 0 0 0
147 0 2 2.2208 2.6127528473166493 7.058356025976954 7.749854658189142 0 0 0
148 0 1 -1.1104 4.02841534775727 -2.725685666836337 12.135092651735965 0 0 0
149 0 1 -1.1104 3.9005003379911507 2.835047982717244 12.099785872167685 0 0 0
150 0 1 -1.1104 3.893058264248067 8.304780413147204 12.141674076402685 0 0 0
151 0 1 -1.1104 3.7503781567084578 -2.7282453116378536 9.316343104171063 0 0 0
152 0 1 -1.1104 3.6703783849705007 2.7034048245129383 9.280249736254133 0 0 0
154 0 2 2.2208 2.3741228839655792 -1.4587735125648622 10.690596473802145 0 0 0
155 0 2 2.2208 2.421142992998506 4.214256487877111 10.722326667547723 0 0 0
156 0 1 -1.1104 3.798670014020576 -0.03179019556610844 12.194346824396648 0 0 0
157 0 1 -1.1104 3.8464082176276735 5.549248299912406 12.14825988201771 0 0 0
158 0 1 -1.1104 3.7532501982157362 -0.01871412761377424 9.363374730771312 0 0 0
145 0 1 -1.1104 6.731747252399385 5.4840305331293235 9.213699122926947 0 0 0
169 0 2 2.2208 5.212725123010597 -4.194191468101759 10.774276905995041 0 0 0
10 0 1 -1.1104 6.561436296366105 -2.9381644658310373 6.646518207666646 0 0 0
12 0 1 -1.1104 6.663801940477173 2.608153582255118 6.588688883816966 0 0 0
177 0 2 2.2208 8.13945161197893 -1.4034950057868263 10.60311021517159 0 0 0
127 0 1 -1.1104 6.691200843891906 -2.8039592123933716 12.228206252387603 0 0 0
140 0 1 -1.1104 6.624516120482182 -0.10345086986377738 12.127538486735293 0 0 0
159 0 2 2.2208 5.322288177562511 -1.3258695780676695 13.625994399951258 0 0 0
160 0 2 2.2208 5.148043737759717 4.078761694880581 13.563125561385627 0 0 0
176 0 2 2.2208 8.086996146225903 4.052453644887719 10.656716085903705 0 0 0
196 0 2 2.2208 10.878113742356376 -1.6116908950303843 7.848978144873095 0 0 0
185 0 1 -1.1104 12.274110081333435 2.8141233128300915 12.258461498169934 0 0 0
193 0 1 -1.1104 9.49090157952848 -2.9753779889185674 9.223038211262443 0 0 0
178 0 2 2.2208 8.193525001334008 1.3202676318119917 7.7670814955150576 0 0 0
187 0 1 -1.1104 12.34452068987641 5.576519962913703 12.014173374344276 0 0 0
172 0 1 -1.1104 9.76958091302146 5.623133190940472 9.286484778545667 0 0 0
76 0 1 -1.1104 12.304713585384658 8.288233705581346 6.362307611144701 0 0 0
74 0 1 -1.1104 12.174397181577024 2.643299785866726 6.55455649566625 0 0 0
72 0 1 -1.1104 12.203062606938328 -3.0202188747035903 6.394716713829368 0 0 0
133 0 1 -1.1104 6.590065221094151 -2.91615515202891 9.293580754787907 0 0 0
184 0 1 -1.1104 12.254369914705181 -0.2104885788786698 9.38652587205798 0 0 0
197 0 1 -1.1104 9.491143795114786 -2.834013946386954 12.020906740019997 0 0 0
179 0 1 -1.1104 12.420151624519358 5.384370288976287 9.393098146608112 0 0 0
174 0 1 -1.1104 9.547478673048603 5.724895439987413 12.161621470740727 0 0 0
183 0 1 -1.1104 9.550552416846726 2.6747124453454 9.392017002375313 0 0 0
195 0 1 -1.1104 9.504466706474764 2.831144427267468 12.105727797680755 0 0 0
192 0 1 -1.1104 12.391020933452399 2.6766563910318877 9.272266114886197 0 0 0
194 0 1 -1.1104 9.720044077378676 8.38975809211683 12.098867844076937 0 0 0
180 0 1 -1.1104 12.332686869488805 -2.8844901429195375 9.293287419727468 0 0 0
199 0 1 -1.1104 12.351102361444626 8.289154241873213 9.26700695358602 0 0 0
129 0 1 -1.1104 6.778917170973185 8.383665494375927 12.253349009479805 0 0 0
134 0 1 -1.1104 6.631762726157496 2.543460096557581 9.355932193725675 0 0 0
186 0 1 -1.1104 12.235317223371748 -2.737736546412124 12.095297565083042 0 0 0
182 0 1 -1.1104 9.414428191681383 8.42222974642559 9.066912618813472 0 0 0
189 0 2 2.2208 11.028335307605216 6.9313482137703675 10.562845821162073 0 0 0
191 0 2 2.2208 10.95249397345814 4.116742938936766 7.954984114780222 0 0 0
181 0 1 -1.1104 12.514376903230168 8.367434950462645 11.984811049329174 0 0 0
135 0 1 -1.1104 6.676588876788578 8.328830520090344 9.467302077773853 0 0 0
190 0 2 2.2208 10.89252995457983 1.2707526078870617 10.56375441353626 0 0 0
175 0 1 -1.1104 9.456780693849897 0.021930020215376024 11.948793285008351 0 0 0
173 0 1 -1.1104 9.464988204622298 -0.08166563091639786 9.11674415654189 0 0 0
198 0 2 2.2208 8.144823638159048 6.966632289199279 7.849120370477145 0 0 0
93 0 1 -1.1104 9.440863661106839 2.8136974517118603 6.596337330506479 0 0 0
188 0 1 -1.1104 12.166621659531277 -0.013780273684343449 12.078589713779628 0 0 0
95 0 1 -1.1104 9.63935314821875 8.397643179442474 6.35720115343588 0 0 0
144 0 1 -1.1104 6.677145914017733 -0.17506644381305644 9.39914960246843 0 0 0
128 0 1 -1.1104 6.663432274616977 2.733444117547138 12.092461450500304 0 0 0
141 0 1 -1.1104 6.707119307706537 5.639912311902145 11.996217366936005 0 0 0
65 0 2 2.2208 5.325954674081944 -4.2957047609691585 5.122352775062377 0 0 0
213 0 2 2.2208 7.961712463226706 -4.136891987987326 13.557098135134312 0 0 0
161 0 2 2.2208 2.409991219697811 1.3281682387660565 13.504485807403686 0 0 0
162 0 2 2.2208 2.4920806836984952 6.952897427061828 13.559802668258756 0 0 0
252 0 2 2.2208 2.551578728507835 -4.241328305198044 13.618935810810841 0 0 0
201 0 2 2.2208 8.17693780054675 1.3689757997063863 13.535555472039864 0 0 0
214 0 2 2.2208 5.234127416513244 1.404790494276725 16.250233779044585 0 0 0
215 0 2 2.2208 5.2984214069891085 6.937800043219276 16.25575181268249 0 0 0
216 0 1 -1.1104 1.0555134205941454 -2.7021688216458064 17.681725187019975 0 0 0
217 0 1 -1.1104 1.104019617808022 2.7935604214325056 17.701649900225302 0 0 0
218 0 1 -1.1104 1.1080113891360108 8.354854662282749 17.82782859238133 0 0 0
222 0 1 -1.1104 1.192929040636716 -2.7220814122583734 14.835784077277118 0 0 0
223 0 1 -1.1104 1.0507936703678322 2.7943297434752217 14.916914797121972 0 0 0
224 0 1 -1.1104 1.0237071818421397 8.386359287739532 15.015640343635615 0 0 0
228 0 2 2.2208 5.227488500678238 -1.417931914484345 19.14012420922361 0 0 0
229 0 2 2.2208 5.288720609741203 4.165180744972259 19.170922627991455 0 0 0
230 0 1 -1.1104 0.9829868680825885 0.061072001287970336 17.771995050815264 0 0 0
231 0 1 -1.1104 1.087651378636001 5.576145513501351 17.70464667031339 0 0 0
234 0 1 -1.1104 1.0606989137286174 -0.04142140904875187 14.888849985714018 0 0 0
235 0 1 -1.1104 1.0464594769015896 5.567198586343686 14.970926782904204 0 0 0
238 0 2 2.2208 2.5632778301118484 1.3056526689854475 19.16490693217853 0 0 0
239 0 2 2.2208 2.5089927735794815 6.96030920577574 19.129144875577467 0 0 0
240 0 1 -1.1104 3.807663679177848 -2.821851744717746 17.7441700628315 0 0 0
241 0 1 -1.1104 3.897423932907567 2.933322477642465 17.73008761769805 0 0 0
242 0 1 -1.1104 3.9167566266082114 8.475962930890226 17.723737262797304 0 0 0
243 0 1 -1.1104 3.8935123224266066 -2.8624386468589407 14.971842995322277 0 0 0
244 0 1 -1.1104 3.8291300594906255 2.7126193202317084 14.919815742737882 0 0 0
245 0 1 -1.1104 3.8767102948738663 8.51294610710832 14.99303798044623 0 0 0
246 0 2 2.2208 2.336141394046408 -1.3109837884973372 16.36118218365729 0 0 0
247 0 2 2.2208 2.486534733583657 4.188902146800225 16.27355829689973 0 0 0
248 0 1 -1.1104 3.7675572089712777 0.14129025099575945 17.70849905004719 0 0 0
249 0 1 -1.1104 3.9045030188171697 5.7228998913232525 17.697803890489787 0 0 0
250 0 1 -1.1104 3.7654521319583933 0.025491965390558726 15.002377990573255 0 0 0
251 0 1 -1.1104 3.8902158713907338 5.608889923923827 14.945929325420048 0 0 0
107 0 2 2.2208 8.064769165112844 3.99399351063653 27.58046821329106 0 0 -1
108 0 2 2.2208 8.005452224726003 -1.5997099910080608 27.598342050073228 0 0 -1
110 0 2 2.2208 10.874288250852027 1.2539913326874472 27.612314304441416 0 0 -1
259 0 2 2.2208 5.162836658739911 -4.2854971134188675 16.49662159303581 0 0 0
9617 0 2 2.2208 13.668658622888444 -4.2951772310220235 19.052264893011582 0 0 0
396 0 2 2.2208 10.859949373539392 -4.102401727930953 21.918367850036876 0 0 0
397 0 2 2.2208 8.100170192577092 -4.2829475087471 24.641716823123133 0 0 0
120 0 2 2.2208 10.819628108850617 -4.292810196207908 27.455732871843562 0 0 -1
225 0 1 -1.1104 6.667366317412306 -2.6495559567884155 15.1513684841107 0 0 0
232 0 1 -1.1104 6.628221094985751 0.08097821801028872 17.688003776575474 0 0 0
220 0 1 -1.1104 6.68444142589414 2.8680732801104725 17.595768565399023 0 0 0
219 0 1 -1.1104 6.6937623782127185 -2.732223473964847 17.753732940963367 0 0 0
305 0 1 -1.1104 4.004500059523219 2.807835818739027 20.613499030596966 0 0 0
301 0 1 -1.1104 1.0628105577709184 5.454268428960268 20.471860242467287 0 0 0
300 0 1 -1.1104 1.0934496245763434 -0.07407268637074793 20.59564978778088 0 0 0
307 0 1 -1.1104 3.926968903975894 -0.05459511479666372 20.526674194648784 0 0 0
296 0 1 -1.1104 1.0557051757130527 8.359076503401727 20.606378244629003 0 0 0
298 0 1 -1.1104 6.766561633319302 2.7998432811473246 20.664019044691187 0 0 0
292 0 2 2.2208 10.902498625829093 -4.295292109155296 16.293744852752994 0 0 0
237 0 1 -1.1104 6.652353646574839 5.52499834500046 14.905643973781878 0 0 0
236 0 1 -1.1104 6.575966643829308 0.1282466973116404 14.88038139278702 0 0 0
233 0 1 -1.1104 6.792690738879317 5.607611044854667 17.716360651224168 0 0 0
226 0 1 -1.1104 6.6516391678791065 2.7699793755138757 14.876151676371627 0 0 0
227 0 1 -1.1104 6.689434110224494 8.2845841695228 14.971011199406094 0 0 0
260 0 2 2.2208 10.824289902933733 1.4958975246136363 16.299899993660972 0 0 0
261 0 2 2.2208 10.87454836324913 6.968159874053783 16.279524530090967 0 0 0
262 0 1 -1.1104 12.168666175679375 -2.877270799424473 17.714567856569655 0 0 0
263 0 1 -1.1104 12.220353818958046 2.893206984539553 17.867295340904302 0 0 0
264 0 1 -1.1104 12.443048867574822 8.48188495628006 17.57172969030153 0 0 0
265 0 1 -1.1104 12.232689666678539 -2.8499608736512694 14.891563055020615 0 0 0
266 0 1 -1.1104 12.241570225081949 2.8837703152422276 15.071865763060822 0 0 0
267 0 1 -1.1104 12.213586538194908 8.403505749157723 14.870254791162534 0 0 0
268 0 2 2.2208 10.810993053155565 -1.3455035287071353 19.12102018035287 0 0 0
269 0 2 2.2208 10.884317877302621 4.210643642872636 19.16452802577814 0 0 0
270 0 1 -1.1104 12.28071631046165 -0.08190738319415979 17.798432149563663 0 0 0
271 0 1 -1.1104 12.22969467301474 5.699658808288654 17.854052797727107 0 0 0
272 0 1 -1.1104 12.195601627091357 0.002163076522786357 14.890738519682852 0 0 0
273 0 1 -1.1104 12.225738915695839 5.5496220440252575 14.894734889124367 0 0 0
274 0 2 2.2208 8.010405064717373 1.5279170427085773 19.162605336224626 0 0 0
275 0 2 2.2208 8.190405754011476 7.032769924893963 19.180039881609254 0 0 0
276 0 1 -1.1104 9.302198621492469 -2.7043398119976523 17.80842999705187 0 0 0
277 0 1 -1.1104 9.338610882648114 2.7441471288576667 17.722366948246986 0 0 0
278 0 1 -1.1104 9.528389005389084 8.440080703060916 17.78951334411369 0 0 0
279 0 1 -1.1104 9.476092785098869 -2.807683489808951 14.776907545113337 0 0 0
280 0 1 -1.1104 9.50739974720529 2.9291323594221073 14.864750678081954 0 0 0
281 0 1 -1.1104 9.4062859792872 8.373082918517865 14.863568053419307 0 0 0
282 0 2 2.2208 8.068177470483542 -1.2810991167178754 16.42880613747624 0 0 0
283 0 2 2.2208 7.988758932617095 4.236885808603415 16.399462913896468 0 0 0
284 0 1 -1.1104 9.510402179260113 -0.004400351372186798 17.654803690384462 0 0 0
285 0 1 -1.1104 9.492046974604783 5.7198190440984655 17.861408016781184 0 0 0
286 0 1 -1.1104 9.341730219871526 0.08691772316106061 14.840896608741884 0 0 0
287 0 1 -1.1104 9.503660374461559 5.520832839644598 15.014711543744616 0 0 0
221 0 1 -1.1104 6.718182397185078 8.370948481104293 17.809700201993103 0 0 0
291 0 2 2.2208 7.998995757588069 -4.25059822081461 19.11683360083573 0 0 0
9616 0 2 2.2208 13.616723007148003 7.014341351796472 19.242582222366586 0 0 0
351 0 2 2.2208 5.241035817738527 -4.281696232438776 21.884297498436005 0 0 0
289 0 2 2.2208 13.635650768826025 -1.459059113636012 16.372714603392133 0 0 0
302 0 1 -1.1104 6.61204556802418 0.026544977241415784 20.40077201132181 0 0 0
288 0 2 2.2208 13.66112573398818 1.4806050359480891 19.081112787902768 0 0 0
382 0 1 -1.1104 9.5610753511004 8.397921769206569 20.62854689578324 0 0 0
303 0 1 -1.1104 6.7708269930145315 5.569947828682176 20.579121438032583 0 0 0
383 0 1 -1.1104 9.366526604161724 -0.05741766528178717 20.657437194384443 0 0 0
381 0 1 -1.1104 9.522608451754254 2.7170148702089554 20.543693192534196 0 0 0
370 0 1 -1.1104 12.1270233593035 2.6819966455862545 20.703917029394546 0 0 0
374 0 1 -1.1104 12.336969551138836 0.12535459219302475 20.56738346469397 0 0 0
380 0 1 -1.1104 9.456264103396364 -2.9295598625701005 20.570786074646985 0 0 0
304 0 1 -1.1104 3.931153083064452 -2.836200364375947 20.520265297918723 0 0 0
306 0 1 -1.1104 3.8685364741521773 8.413181214296339 20.464027027076664 0 0 0
294 0 1 -1.1104 1.1693027647137966 -2.939529167821641 20.482407042778227 0 0 0
308 0 1 -1.1104 3.852309762494152 5.503285635539026 20.57832614631462 0 0 0
295 0 1 -1.1104 1.083515515555854 2.7271623702392276 20.416626371515505 0 0 0
299 0 1 -1.1104 6.707111881329744 8.354724735462614 20.60264101139861 0 0 0
309 0 2 2.2208 5.325834954963291 1.4773109591085876 21.984432158288868 0 0 0
310 0 2 2.2208 5.341410436593468 6.9314551473036605 21.915134854362513 0 0 0
311 0 1 -1.1104 1.0582675276368134 -2.8259488157814934 23.299100538881007 0 0 0
312 0 1 -1.1104 1.2070579275475728 2.700550020273525 23.270226428327607 0 0 0
313 0 1 -1.1104 1.0291171101791465 8.178593708802717 23.42951496183067 0 0 0
317 0 1 -1.1104 1.1897692212173654 -2.9845100904201085 26.140211761361844 0 0 0
318 0 1 -1.1104 1.069362439559455 2.7614618169705394 25.979696199850906 0 0 0
319 0 1 -1.1104 1.117181825275163 8.126967645290797 26.119161230263597 0 0 0
323 0 2 2.2208 5.174842283540594 -1.408174640651042 24.750055113178803 0 0 0
324 0 2 2.2208 5.26923645729609 4.09971976426462 24.64782093094952 0 0 0
325 0 1 -1.1104 1.1268820514966413 0.030591535726762858 23.38233665693439 0 0 0
326 0 1 -1.1104 1.1429842175150344 5.481066073130788 23.417931452204446 0 0 0
329 0 1 -1.1104 1.0247741396597796 -0.19081732231820578 26.19555808936239 0 0 0
330 0 1 -1.1104 1.06577021245672 5.3885057807318075 26.26010175725179 0 0 0
333 0 2 2.2208 2.3980042593593045 1.2704459889810638 24.69249076059835 0 0 0
334 0 2 2.2208 2.511950781559893 6.907012699766671 24.75093117547405 0 0 0
335 0 1 -1.1104 3.814257710943393 -2.8570215119344122 23.37481823053361 0 0 0
336 0 1 -1.1104 3.9559328891430776 2.780995704549161 23.192185978993024 0 0 0
337 0 1 -1.1104 4.029129932195632 8.311402865712969 23.388101507122087 0 0 0
338 0 1 -1.1104 3.794121400749458 -2.939327467926422 26.173282916675277 0 0 0
339 0 1 -1.1104 3.840927669625465 2.8040425365798374 26.04865416439717 0 0 0
340 0 1 -1.1104 3.8257463141061083 8.369573460471896 26.085326528376054 0 0 0
341 0 2 2.2208 2.495842438855372 -1.3953533569649965 21.91193532133844 0 0 0
342 0 2 2.2208 2.4984484474454685 4.093763433569442 21.799796143889996 0 0 0
343 0 1 -1.1104 3.9107375311438006 -0.06696108011677163 23.26714214010747 0 0 0
344 0 1 -1.1104 4.0964938559348845 5.600442555151171 23.29815872165207 0 0 0
345 0 1 -1.1104 3.897313061975986 -0.0061877556548062705 26.108164493758164 0 0 0
346 0 1 -1.1104 3.9407699737978072 5.738113119920327 26.08140434332817 0 0 0
350 0 2 2.2208 -0.30843104221676826 1.324680738098209 21.87074364283541 0 0 0
332 0 1 -1.1104 6.878959622674631 5.254791389166061 26.03624947063118 0 0 0
314 0 1 -1.1104 6.625628368819919 -2.9570802144368664 23.301730177733706 0 0 0
327 0 1 -1.1104 6.671667108844333 -0.04799094083721489 23.21223815866706 0 0 0
320 0 1 -1.1104 6.613529220195019 -2.977293285408975 26.068097109225782 0 0 0
331 0 1 -1.1104 6.707258980899446 -0.23063741024169737 26.111242340560327 0 0 0
321 0 1 -1.1104 6.833482989591691 2.467593192764293 26.18030804376496 0 0 0
56 0 2 2.2208 5.28634862081304 6.905032236434894 27.552050447497773 0 0 -1
55 0 2 2.2208 2.40389935513812 -1.5319835647043831 27.562263488510755 0 0 -1
63 0 2 2.2208 -0.33715430010357267 6.990972827706286 27.521605669040063 0 0 -1
360 0 2 2.2208 8.005150108051952 -1.4543315875314113 21.96059716342863 0 0 0
355 0 1 -1.1104 9.588827959217381 -0.09812559152120721 26.16374046224442 0 0 0
361 0 1 -1.1104 9.504130376366714 8.182939004769125 26.21984665625105 0 0 0
366 0 1 -1.1104 12.347310756622134 -2.8699729857352843 23.327481635161217 0 0 0
364 0 2 2.2208 8.235332221287651 1.251060266406907 24.77073679184155 0 0 0
368 0 1 -1.1104 12.298773740412209 -0.09832957895234193 26.214018859151164 0 0 0
358 0 1 -1.1104 9.625417723319238 -0.05980944343171974 23.38519596205892 0 0 0
389 0 1 -1.1104 9.535672222029211 2.772193767155267 23.37539282417499 0 0 0
354 0 1 -1.1104 9.457964124403196 5.489953841928404 26.226306928922572 0 0 0
386 0 1 -1.1104 9.42487083900084 -2.948104086753012 26.165358584091653 0 0 0
357 0 2 2.2208 8.16472304994096 6.817651751235165 24.70438902420716 0 0 0
322 0 1 -1.1104 6.65352424213303 8.36327469978008 26.225375470981586 0 0 0
378 0 1 -1.1104 12.534288716158036 8.305273223353515 23.230654204899793 0 0 0
359 0 2 2.2208 8.184052869182237 4.0987196524605345 22.01069310352669 0 0 0
297 0 1 -1.1104 6.685381838678413 -2.809602930181436 20.64449241425597 0 0 0
369 0 1 -1.1104 12.082087577076509 -2.6035069414088348 20.503459693079343 0 0 0
375 0 1 -1.1104 12.356795505426279 5.492630570049901 20.624754896387 0 0 0
371 0 1 -1.1104 12.237292495875753 8.360190628255882 20.508657941939866 0 0 0
384 0 1 -1.1104 9.555194522479178 5.545833421080384 20.64219327015425 0 0 0
315 0 1 -1.1104 6.711929470521183 2.6033908423487273 23.425048533828132 0 0 0
365 0 1 -1.1104 12.280962837139121 5.5008598805809585 26.10194078596043 0 0 0
356 0 1 -1.1104 9.58472178773441 5.580821080497977 23.474159727173507 0 0 0
379 0 1 -1.1104 12.214426184393698 8.11394095020677 25.972901740031755 0 0 0
363 0 1 -1.1104 12.348109186934495 2.597631068995571 23.49842549837381 0 0 0
376 0 1 -1.1104 12.39422127881443 5.467355046991676 23.39335732590413 0 0 0
391 0 2 2.2208 10.918429927739 -1.6328830216459658 24.8395767320383 0 0 0
362 0 1 -1.1104 12.367035972152403 2.727092882001766 26.276792978667157 0 0 0
367 0 2 2.2208 10.977772034311565 6.892275819374076 21.983028799218115 0 0 0
385 0 1 -1.1104 9.511771233378404 2.6674518257053665 26.22983221748266 0 0 0
390 0 1 -1.1104 9.354836644714497 -2.856581426828519 23.3831274909864 0 0 0
387 0 1 -1.1104 9.671753488570102 8.301387397290451 23.402063449977188 0 0 0
372 0 1 -1.1104 12.466589750576063 -2.875903374374017 26.11252037046274 0 0 0
388 0 2 2.2208 11.027663119836161 4.098505557426692 24.88982570642287 0 0 0
373 0 2 2.2208 10.816179447240748 1.31799638999122 21.98349175359465 0 0 0
328 0 1 -1.1104 6.765657340461495 5.514029011673723 23.30972302885794 0 0 0
377 0 1 -1.1104 12.346232975671095 -0.16002425340486195 23.36575583597689 0 0 0
316 0 1 -1.1104 6.870235590661299 8.355931157110376 23.362502179735547 0 0 0
290 0 2 2.2208 13.646881916634378 4.147353815275094 16.34199663018225 0 0 0
254 0 2 2.2208 -0.28885848787392376 -1.4194617311476727 19.149218929735774 0 0 0
258 0 2 2.2208 -0.3141714085474767 -4.139326913424589 16.356484034997294 0 0 0
253 0 2 2.2208 -0.3102775253408758 4.04073789808979 19.091167872318017 0 0 0
394 0 2 2.2208 13.600246395010444 -1.4192025839898403 21.83986826586702 0 0 0
348 0 2 2.2208 -0.2814954690035272 -1.4827188114103902 24.818785524980193 0 0 0
347 0 2 2.2208 -0.24744798579427396 4.169263724060524 24.696964698944843 0 0 0
349 0 2 2.2208 -0.299598359700024 6.887931707896949 21.826047035859464 0 0 0
257 0 2 2.2208 2.4602405540630037 -4.240944502023922 19.146931281331266 0 0 0
353 0 2 2.2208 2.465345706991994 -4.237681268165602 24.616743168829267 0 0 0
54 0 2 2.2208 2.509810347368764 4.170831262189886 27.47644376684687 0 0 -1
57 0 2 2.2208 5.297140902378545 1.2833796172777099 27.528196110848793 0 0 -1
109 0 2 2.2208 10.731452357200242 6.873704893832756 27.592807351028384 0 0 -1
398 0 2 2.2208 5.239674024694773 12.687072655063725 5.0741879189610914 0 0 0
399 0 2 2.2208 5.163993749850497 18.271766156911507 5.27552181227834 0 0 0
400 0 1 -1.1104 0.8398287706666908 13.964604798471509 0.798355086708618 0 0 0
402 0 1 -1.1104 1.1824801717164222 19.410208277434144 0.9499886572847092 0 0 0
406 0 1 -1.1104 1.0639950947925203 13.836433664519529 3.4898814365893753 0 0 0
407 0 1 -1.1104 1.1854884448391074 19.49170883046872 3.8149256877298328 0 0 0
410 0 2 2.2208 5.288968760278152 9.774245551473964 2.3755038553716106 0 0 0
411 0 2 2.2208 5.257758884638086 15.471489668707832 2.293875550267428 0 0 0
412 0 2 2.2208 5.3920323089685045 21.038207259545313 2.377104034227524 0 0 0
413 0 1 -1.1104 1.0609073578411643 11.248989929701999 0.850940863357516 0 0 0
415 0 1 -1.1104 1.0223577030124016 16.686121493592424 0.8418406204337348 0 0 0
421 0 1 -1.1104 1.0747719028413838 11.071978078787279 3.6125566943741494 0 0 0
422 0 1 -1.1104 1.2342538972539383 16.800280754438354 3.7460871427136304 0 0 0
425 0 2 2.2208 2.4843447053594123 12.547883591779115 2.179470367210686 0 0 0
426 0 2 2.2208 2.6169559038950947 18.16032389951168 2.3553153920615526 0 0 0
427 0 1 -1.1104 3.7715447761373686 13.95225621150247 0.8801650387598944 0 0 0
429 0 1 -1.1104 3.880977848080377 19.546629862456093 1.0579504947064573 0 0 0
430 0 1 -1.1104 3.9821036514865287 14.096154093369943 3.4759013714967955 0 0 0