ITEM: TIMESTEP
100000
ITEM: NUMBER OF ATOMS
17730
ITEM: BOX BOUNDS pp pp pp
-4.3658634314832384e-01 2.7776586343149109e+01
-5.2722629902216918e+00 3.3335226299021923e+02
-4.3607368990768502e-01 2.7776073689907051e+01
ITEM: ATOMS id type q x y z
1 2 2.2208 5.33761 0.343566 5.39364
2 1 -1.1104 0.844695 -3.96382 0.979874
6 1 -1.1104 0.978292 -3.79815 4.12484
10 1 -1.1104 0.94044 -1.1248 1.25597
12 2 2.2208 5.51972 -2.42247 2.50069
14 1 -1.1104 1.04799 -0.872318 4.12606
16 1 -1.1104 3.81552 -3.93195 1.01991
18 2 2.2208 2.36884 0.364967 2.60645
19 1 -1.1104 3.95285 -3.84393 3.89972
21 2 2.2208 2.40208 -2.47379 5.38795
23 1 -1.1104 3.70293 -0.906177 0.971632
24 1 -1.1104 3.80499 -1.10067 3.83995
174 1 -1.1104 3.86928 -1.01141 6.75089
8294 2 2.2208 13.4734 3.29048 5.37273
353 2 2.2208 8.13199 20.0744 -0.287034
8607 2 2.2208 -0.42835 14.2754 2.46808
8608 2 2.2208 -0.337696 20.1711 2.4717
8613 2 2.2208 -0.357295 0.310012 11.1171
307 2 2.2208 2.59679 -2.44914 -0.432406
105 2 2.2208 8.13949 17.3808 8.33743
11 1 -1.1104 6.82642 -1.0872 1.0366
4 1 -1.1104 6.65321 -3.94021 0.98182
8 1 -1.1104 6.82742 -3.64529 3.87229
15 1 -1.1104 6.56437 -1.03516 3.91965
31 2 2.2208 10.7909 0.163018 5.36022
32 1 -1.1104 12.1313 -3.81225 1.05011
34 1 -1.1104 12.2351 -3.90346 4.02245
36 1 -1.1104 12.1735 -0.944811 1.22995
37 2 2.2208 10.9976 -2.44301 2.59868
39 1 -1.1104 12.2907 -1.01475 3.97751
40 1 -1.1104 9.33897 -3.97249 1.1083
42 2 2.2208 8.23058 0.215282 2.5603
43 1 -1.1104 9.5801 -3.88479 3.95551
45 2 2.2208 8.22375 -2.4201 5.37238
47 1 -1.1104 9.51417 -1.06568 1.14138
48 1 -1.1104 9.42203 -1.25488 3.90547
575 2 2.2208 8.09971 3.26578 -0.328153
29 2 2.2208 5.14795 -5.2163 5.23971
3 1 -1.1104 1.16894 1.75147 1.15137
7 1 -1.1104 0.96235 1.67244 4.15528
13 2 2.2208 5.18596 3.05073 2.64491
17 1 -1.1104 3.90979 1.6696 0.998982
20 1 -1.1104 3.79148 1.70409 3.95029
22 2 2.2208 2.2528 3.09616 5.43603
54 2 2.2208 5.31683 5.86471 5.28582
60 1 -1.1104 0.93687 4.55096 0.949331
67 1 -1.1104 0.979449 4.34249 3.9423
72 2 2.2208 2.35205 5.68461 2.53335
76 1 -1.1104 3.7814 4.57425 1.16124
79 1 -1.1104 3.79391 4.60982 4.14601
58 1 -1.1104 1.03443 7.21116 3.97281
71 1 -1.1104 3.70974 7.14388 0.9048
56 1 -1.1104 1.11724 7.35599 1.02703
74 1 -1.1104 3.8861 7.19361 3.8799
57 1 -1.1104 6.67043 7.39528 1.01508
638 2 2.2208 5.44896 17.2622 -0.192344
8602 2 2.2208 -0.402701 6.15782 5.30713
609 2 2.2208 2.38832 8.64002 -0.315894
9022 2 2.2208 -0.245729 11.5126 -0.349608
69 1 -1.1104 6.66213 4.65963 3.88894
5 1 -1.1104 6.99236 1.80392 1.44223
63 1 -1.1104 6.69241 4.55533 1.15556
9 1 -1.1104 6.54658 1.81084 3.99874
59 1 -1.1104 6.55853 7.44632 4.14581
33 1 -1.1104 12.4062 1.90382 1.03585
35 1 -1.1104 12.1304 1.35988 3.6199
38 2 2.2208 10.8843 3.00312 2.37731
41 1 -1.1104 9.58808 1.65011 1.1827
44 1 -1.1104 9.34585 1.63262 4.07317
46 2 2.2208 7.99747 3.32085 5.09739
84 2 2.2208 10.7633 6.02584 5.12273
86 1 -1.1104 12.3441 7.29363 1.29073
88 1 -1.1104 12.1838 4.6041 1.15459
92 1 -1.1104 12.1819 4.42178 3.79822
94 1 -1.1104 9.57154 7.51833 1.206
95 2 2.2208 7.92638 6.01445 2.5025
97 1 -1.1104 9.43811 7.48669 3.99312
99 1 -1.1104 9.41351 4.69337 0.971301
102 1 -1.1104 9.42974 4.57961 3.75164
87 1 -1.1104 12.3374 7.26952 3.7824
8615 2 2.2208 -0.391694 17.4598 10.8813
206 1 -1.1104 12.1365 1.96904 6.65736
267 1 -1.1104 9.50891 7.57821 6.75594
313 2 2.2208 10.9006 6.00953 -0.225215
390 2 2.2208 10.9223 -2.51709 13.6934
8604 2 2.2208 -0.41016 11.7101 5.18674
55 2 2.2208 5.14869 11.5733 5.46628
61 1 -1.1104 1.09804 10.167 0.909271
66 2 2.2208 5.16611 8.72618 2.4741
68 1 -1.1104 1.0954 9.98824 3.93605
73 2 2.2208 2.42249 11.384 2.47767
75 2 2.2208 2.59092 8.70766 5.30715
77 1 -1.1104 3.77334 10.0234 1.09484
80 1 -1.1104 3.83508 10.1607 3.92158
107 1 -1.1104 1.08264 12.9759 1.15911
113 1 -1.1104 1.19085 12.7264 3.94584
123 1 -1.1104 3.92693 12.9346 1.24848
128 1 -1.1104 3.81808 13.0069 3.95816
64 1 -1.1104 6.63194 10.1501 0.896219
315 2 2.2208 11.0087 11.4384 -0.19523
8609 2 2.2208 -0.328717 17.3136 5.37833
8603 2 2.2208 -0.389896 8.62314 2.39125
110 1 -1.1104 6.85849 13.0542 1.0834
115 1 -1.1104 6.7032 12.8762 3.98409
70 1 -1.1104 6.76657 10.1085 3.6074
85 2 2.2208 11.1345 11.6637 5.41275
89 1 -1.1104 12.2087 10.0676 1.16878
91 2 2.2208 11.0742 8.85529 2.6443
93 1 -1.1104 12.6648 10.2256 4.05197
96 2 2.2208 8.25574 11.5765 2.38159
98 2 2.2208 7.98249 9.06503 5.43287
100 1 -1.1104 9.54838 10.1165 0.961805
103 1 -1.1104 9.6848 10.5306 3.98871
142 1 -1.1104 12.4592 12.9553 1.00101
146 1 -1.1104 12.454 12.9728 3.95233
153 1 -1.1104 9.71529 13.0075 1.05896
158 1 -1.1104 9.38714 13.1363 3.66136
8617 2 2.2208 -0.409116 -5.29245 10.776
352 2 2.2208 10.9677 17.1555 -0.337564
111 1 -1.1104 6.76919 13.0704 6.53649
8872 2 2.2208 -0.178907 17.1916 -0.0894859
637 2 2.2208 2.61339 14.4454 -0.129216
130 2 2.2208 2.49896 14.4275 5.31351
119 2 2.2208 5.46606 14.2563 2.60168
106 2 2.2208 5.22765 17.3492 5.54608
109 1 -1.1104 1.30271 18.5907 0.983423
114 1 -1.1104 0.969689 18.5898 3.98647
116 1 -1.1104 1.10062 15.8329 1.18707
120 2 2.2208 5.39759 20.2837 2.61286
121 1 -1.1104 1.13619 15.6277 4.05243
125 1 -1.1104 3.951 18.7164 1.312
127 2 2.2208 2.5634 17.0862 2.76801
129 1 -1.1104 3.89026 18.5935 4.25336
131 2 2.2208 2.53952 20.111 5.4669
132 1 -1.1104 4.22236 15.7532 1.22452
134 1 -1.1104 3.86369 15.8428 4.00653
310 2 2.2208 10.9644 0.308154 -0.422128
8703 2 2.2208 -0.212122 3.0436 13.5717
200 1 -1.1104 9.8741 15.942 9.38532
314 2 2.2208 8.0713 8.80278 -0.298817
137 2 2.2208 8.39631 14.6478 10.8151
349 2 2.2208 8.13474 14.356 -0.226287
165 2 2.2208 8.17 20.1783 11.1377
139 1 -1.1104 6.89736 18.7645 3.82909
138 1 -1.1104 6.83154 18.6039 1.28169
140 1 -1.1104 7.08364 15.7083 1.22592
122 1 -1.1104 6.65842 15.8914 3.92796
112 1 -1.1104 6.8587 18.7058 6.7244
150 2 2.2208 10.913 14.5543 2.60496
160 2 2.2208 8.19074 14.5474 5.36505
141 2 2.2208 10.947 17.3896 5.70802
144 1 -1.1104 12.4951 18.5706 1.15443
147 1 -1.1104 12.5068 18.8033 3.96186
148 1 -1.1104 12.2441 15.758 1.0506
151 2 2.2208 11.0536 19.9447 2.68215
152 1 -1.1104 12.4087 15.7984 4.03855
155 1 -1.1104 9.67711 18.8927 0.986257
157 2 2.2208 8.10781 17.2168 2.77191
159 1 -1.1104 9.82031 18.5473 4.03036
161 2 2.2208 8.01461 20.208 5.43633
162 1 -1.1104 9.48102 16.0027 1.08
164 1 -1.1104 9.63788 15.9451 4.06732
156 1 -1.1104 9.75168 18.8639 6.74918
296 1 -1.1104 6.74234 18.7138 12.5801
170 1 -1.1104 0.936699 -1.03504 6.69928
610 2 2.2208 5.11506 11.5153 -0.207987
81 2 2.2208 10.8714 20.1473 8.17229
8597 2 2.2208 -0.308336 3.07786 2.51092
172 1 -1.1104 3.75111 -3.86956 6.78946
8593 2 2.2208 -0.424601 -2.40062 2.51307
166 1 -1.1104 1.18911 -3.84286 6.89227
175 2 2.2208 5.29076 0.333437 10.9766
176 1 -1.1104 0.900189 -3.88468 12.3632
180 1 -1.1104 1.19867 -3.59988 9.70388
184 1 -1.1104 1.16337 -0.891317 12.5288
186 2 2.2208 5.15773 -2.65914 8.24863
188 1 -1.1104 1.17321 -0.86583 9.74548
190 1 -1.1104 3.82391 -3.77594 12.1741
192 2 2.2208 2.37562 0.326111 8.23747
193 1 -1.1104 3.89027 -4.01686 9.71709
195 2 2.2208 2.64247 -2.49341 10.9878
197 1 -1.1104 3.89062 -1.04631 12.2727
198 1 -1.1104 3.76713 -1.19534 9.45594
182 1 -1.1104 6.67086 -4.09018 9.39484
171 1 -1.1104 6.76373 -0.968182 6.66204
210 1 -1.1104 9.4128 -1.26377 6.72669
208 1 -1.1104 9.43098 -4.06926 6.59445
205 1 -1.1104 12.324 -3.76156 6.82196
207 1 -1.1104 12.3441 -0.988341 6.57286
233 1 -1.1104 6.57473 15.9372 12.3908
8598 2 2.2208 -0.374753 -5.10155 5.37841
168 1 -1.1104 6.62468 -3.76947 6.70894
189 1 -1.1104 6.74839 -1.07344 9.78534
178 1 -1.1104 6.66456 -3.75727 12.1465
185 1 -1.1104 6.38061 -1.01312 12.4427
211 2 2.2208 10.9518 0.393716 10.9623
212 1 -1.1104 12.4575 -3.72008 12.5058
214 1 -1.1104 12.3746 -4.01117 9.5588
216 1 -1.1104 12.2974 -0.889063 12.3474
217 2 2.2208 11.0012 -2.42509 8.29822
219 1 -1.1104 12.4141 -1.01207 9.55192
220 1 -1.1104 9.62753 -3.81303 12.2585
222 2 2.2208 8.19085 0.421323 8.05639
223 1 -1.1104 9.57105 -3.60988 9.47432
225 2 2.2208 8.14648 -2.29646 10.8018
227 1 -1.1104 9.46886 -1.07984 12.4976
228 1 -1.1104 9.61249 -0.828135 9.48752
236 1 -1.1104 1.036 4.31342 6.76883
173 1 -1.1104 3.63702 1.75141 6.82454
8524 2 2.2208 -0.351795 5.95265 10.8898
238 1 -1.1104 4.0369 7.30907 6.80435
234 1 -1.1104 1.02682 7.33856 6.6686
239 1 -1.1104 3.81602 4.34031 6.72995
167 1 -1.1104 0.944759 1.57409 6.9352
177 1 -1.1104 1.29421 1.92079 12.2643
181 1 -1.1104 0.756042 1.68458 9.60908
187 2 2.2208 5.08759 2.96191 8.15111
191 1 -1.1104 4.03102 1.74278 12.5475
194 1 -1.1104 3.72573 1.71723 9.75903
196 2 2.2208 2.42497 3.2073 10.8224
240 2 2.2208 5.19208 6.00783 11.056
244 1 -1.1104 1.0354 7.38631 9.67982
246 1 -1.1104 1.07568 4.65406 12.2407
251 1 -1.1104 1.10865 4.65398 9.56266
255 1 -1.1104 3.7857 7.35127 12.4808
256 2 2.2208 2.60389 6.00177 8.07087
258 1 -1.1104 3.8469 7.48917 9.48254
260 1 -1.1104 3.92816 4.65053 12.4568
262 1 -1.1104 3.88737 4.60226 9.60576
242 1 -1.1104 1.21283 7.49789 12.4722
8611 2 2.2208 -0.357049 3.2767 8.1821
269 1 -1.1104 9.51723 4.76962 6.732
209 1 -1.1104 9.64132 1.69206 6.81149
253 1 -1.1104 6.79288 4.47679 9.49546
237 1 -1.1104 6.67337 4.62287 6.82377
169 1 -1.1104 6.71327 1.77198 6.53824
235 1 -1.1104 6.81484 7.4894 6.82644
248 1 -1.1104 6.57693 4.77634 12.5212
243 1 -1.1104 6.86708 7.6114 12.5211
179 1 -1.1104 6.74553 1.76924 12.2253
183 1 -1.1104 6.50216 1.58407 9.22982
266 1 -1.1104 12.2258 4.68051 6.71143
265 1 -1.1104 12.2819 7.37849 6.79733
245 1 -1.1104 6.5051 7.49921 9.78417
213 1 -1.1104 12.4322 2.03269 12.4925
215 1 -1.1104 12.2679 1.66233 9.45882
218 2 2.2208 10.9618 3.2126 8.14801
221 1 -1.1104 9.57831 1.64198 12.2652
224 1 -1.1104 9.40791 1.8549 9.60836
226 2 2.2208 8.19804 3.14142 11.0857
268 1 -1.1104 9.82189 4.77245 9.46524
271 1 -1.1104 9.23498 4.43884 12.5147
275 2 2.2208 8.01216 5.9425 8.03913
276 2 2.2208 10.983 6.04508 10.9357
280 1 -1.1104 12.1753 4.60438 12.38
283 1 -1.1104 12.5404 4.78195 9.38908
273 1 -1.1104 9.36104 7.35368 9.74725
279 1 -1.1104 12.3082 7.69018 9.65264
285 1 -1.1104 9.30767 7.57258 12.4921
278 1 -1.1104 12.2072 7.48121 12.2825
8616 2 2.2208 -0.0847492 20.227 8.16779
108 1 -1.1104 1.1939 12.9459 6.49314
8523 2 2.2208 -0.404128 8.77196 8.12679
8516 2 2.2208 -0.109642 11.8261 10.9169
78 1 -1.1104 3.83022 10.1739 6.70081
62 1 -1.1104 1.21354 10.0854 6.94205
124 1 -1.1104 3.90236 13.1031 7.08863
241 2 2.2208 5.34634 11.9207 11.0815
247 1 -1.1104 1.31588 10.2814 12.3895
250 2 2.2208 5.25208 8.81108 8.15394
252 1 -1.1104 1.09571 10.3441 9.70545
257 2 2.2208 2.45975 11.6428 8.14643
259 2 2.2208 2.44879 8.85755 10.9786
261 1 -1.1104 4.11763 10.4037 12.5312
263 1 -1.1104 3.90406 10.2313 9.7029
287 1 -1.1104 4.1156 13.3732 12.2645
294 1 -1.1104 1.07976 13.2854 9.4005
299 1 -1.1104 1.17795 13.1424 12.3673
305 1 -1.1104 3.73259 13.0621 9.77628
163 1 -1.1104 9.33161 15.9301 6.676
65 1 -1.1104 6.65794 10.3895 6.88861
297 1 -1.1104 6.96812 13.4578 12.4024
290 1 -1.1104 6.61301 13.3756 9.4336
143 1 -1.1104 12.5133 12.9926 6.77751
254 1 -1.1104 6.86503 10.7419 9.71204
101 1 -1.1104 9.49725 10.5034 6.73655
90 1 -1.1104 12.2942 10.2704 6.70284
154 1 -1.1104 9.8427 13.3429 6.7617
249 1 -1.1104 6.68034 10.3192 12.6032
264 1 -1.1104 9.5247 10.2317 9.52572
270 1 -1.1104 9.71929 10.228 12.2049
272 2 2.2208 8.06981 8.93283 10.9618
274 2 2.2208 8.02684 11.7962 8.18985
277 2 2.2208 11.0455 11.6952 10.9644
281 1 -1.1104 12.3719 10.3501 12.6666
282 2 2.2208 10.9932 8.84112 8.0839
284 1 -1.1104 12.239 10.2616 9.46567
26 1 -1.1104 12.3483 13.1104 12.269
30 1 -1.1104 12.3712 13.1365 9.58608
83 1 -1.1104 9.81292 13.1951 12.4534
135 1 -1.1104 9.44955 13.171 9.62799
551 2 2.2208 2.62782 20.0705 0.0223931
312 2 2.2208 5.28749 5.8437 -0.387309
149 1 -1.1104 12.2144 15.951 6.808
302 1 -1.1104 1.23784 18.7559 6.77002
133 1 -1.1104 4.02933 15.8385 6.73571
117 1 -1.1104 1.15283 15.7367 6.82007
126 1 -1.1104 4.23816 18.5666 7.1482
201 2 2.2208 2.50145 14.6812 10.9452
288 1 -1.1104 6.85723 18.8426 9.60989
229 1 -1.1104 3.88367 15.9408 12.3768
230 1 -1.1104 1.0661 15.9154 12.2443
292 1 -1.1104 1.0327 16.1546 9.62051
291 1 -1.1104 1.20561 18.8928 9.45766
286 1 -1.1104 3.80341 18.9824 12.3255
295 2 2.2208 5.39755 14.6119 8.16337
301 1 -1.1104 4.09903 18.7424 9.73426
300 2 2.2208 5.36452 17.2899 11.005
298 1 -1.1104 1.01912 18.4844 12.4836
293 2 2.2208 5.40014 20.2053 8.46332
304 1 -1.1104 4.07166 15.8452 9.63306
303 2 2.2208 2.42398 17.2664 8.10001
204 2 2.2208 2.43704 20.2046 10.9956
104 1 -1.1104 9.59763 18.8454 12.6278
25 2 2.2208 11.1005 17.4832 11.0796
50 1 -1.1104 12.3359 15.9988 12.3927
82 1 -1.1104 12.4933 15.9746 9.5902
199 1 -1.1104 9.57446 16.1628 12.1262
118 1 -1.1104 6.63367 15.9738 7.10427
289 1 -1.1104 6.96655 16.09 9.79701
145 1 -1.1104 12.4035 18.7692 7.06302
53 2 2.2208 11.0516 14.412 8.22121
136 1 -1.1104 9.63423 18.7759 9.55099
49 1 -1.1104 12.6147 18.7088 9.71357
27 1 -1.1104 12.4095 18.9221 12.7378
309 2 2.2208 5.15757 -5.25447 -0.126399
311 2 2.2208 8.08525 -2.45493 -0.406263
8623 2 2.2208 -0.422745 0.266044 -0.135173
202 2 2.2208 2.48581 -5.19355 8.30614
28 2 2.2208 2.51305 -5.21057 2.38438
577 2 2.2208 10.9732 -5.21941 -0.173458
306 2 2.2208 5.27749 0.23633 -0.227811
389 2 2.2208 8.12896 0.326857 13.6329
8775 2 2.2208 -0.327252 8.81799 13.6105
357 2 2.2208 2.62595 0.430587 13.5208
316 2 2.2208 5.2398 0.441901 16.508
317 1 -1.1104 0.758664 -3.91664 17.7561
321 1 -1.1104 1.0088 -3.87567 15.074
329 1 -1.1104 1.04503 -1.16305 17.8725
331 2 2.2208 5.18164 -2.51722 19.4916
333 1 -1.1104 1.01881 -1.13655 15.1205
337 1 -1.1104 3.64154 -3.78124 18.047
339 2 2.2208 2.50257 0.350946 19.3725
340 1 -1.1104 3.85288 -4.04393 15.113
344 2 2.2208 2.25354 -2.58811 16.5717
346 1 -1.1104 3.8581 -0.83102 17.7486
347 1 -1.1104 3.93626 -0.937873 15.0289
356 2 2.2208 5.26509 -2.44485 13.6845
550 2 2.2208 2.73015 -5.1229 25.0772
425 2 2.2208 2.37751 6.22793 13.9484
8845 2 2.2208 -0.200867 20.0759 13.8303
391 2 2.2208 10.9084 3.21305 13.9012
9014 2 2.2208 -0.424941 -5.2419 21.8799
427 2 2.2208 2.642 11.5941 13.7105
325 1 -1.1104 6.61338 -3.68399 14.8872
335 1 -1.1104 6.96129 -1.03713 15.2495
330 1 -1.1104 6.56215 -0.963393 18.0938
319 1 -1.1104 6.53795 -3.69099 17.7466
359 2 2.2208 11.063 0.395877 16.5111
360 1 -1.1104 12.1493 -4.00253 17.9776
362 1 -1.1104 12.3138 -3.74095 15.163
366 1 -1.1104 12.4577 -1.33038 18.2248
367 2 2.2208 10.8306 -2.52242 19.3088
369 1 -1.1104 12.5463 -0.916753 15.1283
371 1 -1.1104 9.39195 -3.82645 17.9673
373 2 2.2208 8.07366 0.216388 19.5345
374 1 -1.1104 9.66108 -3.72179 15.3404
378 2 2.2208 7.99936 -2.40194 16.5445
380 1 -1.1104 9.63496 -1.13567 18.1359
381 1 -1.1104 9.97991 -1.05988 15.28
9008 2 2.2208 -0.339236 -2.44241 13.7194
490 2 2.2208 5.38837 14.6663 13.7918
308 2 2.2208 2.35103 3.0561 27.7856
318 1 -1.1104 1.07394 1.64508 18.1486
323 1 -1.1104 0.949306 1.96943 15.1547
332 2 2.2208 5.31541 3.24245 19.5222
338 1 -1.1104 3.75016 1.93557 18.2353
342 1 -1.1104 3.71715 1.89177 15.3404
345 2 2.2208 2.23507 3.29606 16.564
392 2 2.2208 5.1262 5.87064 16.5216
396 1 -1.1104 0.913864 7.63517 15.4422
400 1 -1.1104 0.935714 4.57694 18.1459
405 1 -1.1104 0.862882 4.67809 15.378
413 1 -1.1104 3.89727 7.33488 17.9206
414 2 2.2208 2.48854 5.96993 19.4088
419 1 -1.1104 3.68049 4.60095 17.894
421 1 -1.1104 3.66423 4.52322 15.2164
394 1 -1.1104 0.931202 7.26247 18.253
416 1 -1.1104 3.97548 7.38613 15.0416
320 1 -1.1104 6.54101 1.7611 18.0126
515 2 2.2208 10.9751 20.3928 13.8313
8870 2 2.2208 -0.138177 14.4109 25.2994
395 1 -1.1104 6.74707 7.60428 18.1372
579 2 2.2208 8.02793 -5.29098 25.0239
489 2 2.2208 5.29659 20.1198 13.7203
406 1 -1.1104 1.13868 4.80188 20.8716
354 2 2.2208 10.9596 17.4372 22.4335
402 1 -1.1104 6.62954 4.94321 18.0706
327 1 -1.1104 6.69859 1.90035 14.9801
409 1 -1.1104 6.60027 4.39784 15.364
398 1 -1.1104 6.6937 7.43659 15.3861
361 1 -1.1104 12.133 1.48345 18.1626
364 1 -1.1104 12.2866 1.99878 15.4002
368 2 2.2208 10.9249 3.03809 19.4713
372 1 -1.1104 9.2008 1.68594 17.9383
376 1 -1.1104 9.46919 1.64043 15.1774
379 2 2.2208 8.10305 3.08155 16.5945
428 2 2.2208 10.7713 6.00579 16.586
431 1 -1.1104 12.2137 7.70551 15.1553
433 1 -1.1104 12.199 4.51936 18.2371
436 1 -1.1104 12.2846 4.70712 15.3725
441 2 2.2208 7.9996 6.16288 19.4146
446 1 -1.1104 9.24246 4.57942 18.0351
448 1 -1.1104 9.42146 4.56155 15.3831
443 1 -1.1104 9.40156 7.44252 15.1948
440 1 -1.1104 9.45691 7.29504 18.0538
432 1 -1.1104 12.3895 7.31262 20.8707
430 1 -1.1104 12.2423 7.36871 17.9014
452 2 2.2208 8.07598 6.02996 13.897
393 2 2.2208 5.40612 11.8936 16.6306
401 1 -1.1104 1.05205 10.2001 17.965
404 2 2.2208 5.28837 8.91877 19.4362
407 1 -1.1104 1.03995 10.1826 15.1477
415 2 2.2208 2.5176 11.4062 19.4938
418 2 2.2208 2.43313 8.86519 16.719
420 1 -1.1104 3.88357 10.0535 18.0722
423 1 -1.1104 3.78358 10.4621 15.3421
456 1 -1.1104 1.13413 13.2122 18.0956
460 1 -1.1104 1.43671 12.9271 15.2783
476 1 -1.1104 3.87024 13.2013 18.2282
479 1 -1.1104 4.01646 13.049 15.1257
424 1 -1.1104 3.97087 10.2783 20.8206
8737 2 2.2208 -0.203092 11.7742 16.5939
358 2 2.2208 5.19377 3.32513 13.8377
509 1 -1.1104 9.66493 18.9446 20.9062
8846 2 2.2208 -0.345704 -2.50258 25.1111
411 1 -1.1104 6.60943 10.3923 15.3584
464 1 -1.1104 6.85751 13.2494 15.0958
458 1 -1.1104 6.94069 13.1177 17.9158
403 1 -1.1104 6.63248 10.3683 18.0902
429 2 2.2208 11.1049 11.8039 16.6461
434 1 -1.1104 12.5542 10.1664 18.3457
435 2 2.2208 10.9594 8.70717 19.3764
438 1 -1.1104 12.5254 10.4682 15.4685
442 2 2.2208 8.1023 11.6273 19.6371
445 2 2.2208 8.03533 8.93089 16.6356
447 1 -1.1104 9.72389 10.0628 17.8012
450 1 -1.1104 9.60403 10.3813 15.0127
492 1 -1.1104 12.3109 13.057 18.0475
494 1 -1.1104 12.402 13.2797 15.1847
503 1 -1.1104 9.58351 13.079 18.1186
506 1 -1.1104 9.52109 13.1043 15.4293
514 1 -1.1104 9.10893 15.6549 20.7591
439 1 -1.1104 12.3917 10.196 20.9057
453 2 2.2208 10.6977 8.86237 13.7919
611 1 -1.1104 9.65423 18.3935 26.3647
8699 2 2.2208 -0.448117 3.08781 19.2241
8843 2 2.2208 -0.303251 17.334 16.7724
483 2 2.2208 2.51092 14.4817 16.6891
470 2 2.2208 5.4164 14.4909 19.5254
455 2 2.2208 5.22833 17.3293 16.8282
457 1 -1.1104 1.0054 18.8714 18.2333
462 1 -1.1104 1.11976 18.602 15.4133
468 1 -1.1104 1.02577 15.7402 17.6986
471 2 2.2208 5.24257 20.0966 19.3185
472 1 -1.1104 1.26895 15.9208 15.0907
477 1 -1.1104 3.95923 18.9571 17.8559
478 2 2.2208 2.34931 17.2697 19.5978
481 1 -1.1104 3.98246 18.6394 14.9869
484 2 2.2208 2.34856 20.1348 16.5464
485 1 -1.1104 3.69381 15.929 18.0561
486 1 -1.1104 3.87628 15.7885 15.2238
8841 2 2.2208 -0.340167 20.1154 19.5906
8800 2 2.2208 13.5068 14.4794 16.8361
8844 2 2.2208 -0.0594594 14.5906 13.7036
469 1 -1.1104 6.48614 15.8933 18.0802
474 1 -1.1104 6.69024 16.0534 15.2634
517 2 2.2208 7.94491 17.4117 13.8054
467 1 -1.1104 6.78719 18.8481 20.7214
350 2 2.2208 5.20586 -5.18551 16.5369
516 2 2.2208 11.0643 14.6563 13.799
613 2 2.2208 8.01625 20.0594 22.0779
466 1 -1.1104 6.45121 18.8876 15.2919
459 1 -1.1104 6.83542 18.5773 18.0769
499 2 2.2208 10.7151 14.6195 19.3876
510 2 2.2208 8.11226 14.6534 16.6447
491 2 2.2208 10.9994 17.4923 16.6346
493 1 -1.1104 12.1475 18.7818 18.3421
496 1 -1.1104 12.5385 18.5516 15.4283
498 1 -1.1104 12.3565 15.8269 17.99
500 2 2.2208 10.8576 20.3202 19.4871
501 1 -1.1104 12.3331 16.0716 15.2149
504 1 -1.1104 9.46071 18.8859 18.2047
505 2 2.2208 8.01144 17.3071 19.4947
508 1 -1.1104 9.48734 18.5398 15.2967
511 2 2.2208 8.10847 20.0297 16.7797
512 1 -1.1104 9.42814 16.0875 18.0399
513 1 -1.1104 9.57883 15.8233 15.2765
502 1 -1.1104 12.2516 16.057 20.9141
475 1 -1.1104 6.5213 16.1242 20.6528
348 1 -1.1104 3.78058 -1.05776 20.8287
322 1 -1.1104 1.01719 -4.19678 20.5013
341 1 -1.1104 3.69177 -3.81283 20.8088
334 1 -1.1104 1.08845 -1.13844 20.71
9007 2 2.2208 -0.34388 -2.62816 19.2925
9024 2 2.2208 -0.206528 11.6845 22.0594
519 2 2.2208 5.20738 0.477403 22.2727
520 1 -1.1104 1.08022 -3.75155 23.428
524 1 -1.1104 1.4029 -3.99456 26.4547
528 1 -1.1104 0.998268 -1.12859 23.6867
530 2 2.2208 5.44628 -2.38116 24.9248
532 1 -1.1104 1.13657 -1.22832 26.837
534 1 -1.1104 4.02585 -3.78289 23.7731
536 2 2.2208 2.35382 0.398258 24.8613
537 1 -1.1104 4.23217 -3.61621 26.4355
539 2 2.2208 2.48666 -2.4018 22.0989
541 1 -1.1104 3.84615 -0.846146 23.3849
542 1 -1.1104 3.75264 -0.94623 26.0936
370 1 -1.1104 12.4944 -0.935982 20.9107
382 1 -1.1104 9.49058 -1.06213 20.9186
336 1 -1.1104 6.40694 -1.06709 20.8354
375 1 -1.1104 9.56462 -3.86208 20.7672
326 1 -1.1104 6.63623 -3.93227 20.5632
529 1 -1.1104 6.7997 -1.03008 23.4678
526 1 -1.1104 6.98236 -4.0066 26.3625
522 1 -1.1104 6.73806 -3.95942 23.5428
533 1 -1.1104 6.85806 -1.13273 26.2769
363 1 -1.1104 12.2434 -3.71294 20.8493
555 2 2.2208 10.8234 0.430313 22.1661
556 1 -1.1104 12.4552 -3.97343 23.8373
558 1 -1.1104 12.4563 -3.8599 26.4044
560 1 -1.1104 12.5482 -1.08375 23.8455
561 2 2.2208 11.0072 -2.55686 25.0372
563 1 -1.1104 12.7264 -0.900943 26.853
564 1 -1.1104 9.50709 -3.89568 23.7474
566 2 2.2208 8.23347 0.274645 25.0588
567 1 -1.1104 9.52685 -3.8536 26.6722
569 2 2.2208 8.01333 -2.50068 22.1522
571 1 -1.1104 9.81811 -1.04577 23.4762
572 1 -1.1104 9.63733 -0.896179 26.5219
343 1 -1.1104 3.74142 1.67535 20.9858
324 1 -1.1104 0.835451 1.88585 20.7462
8863 2 2.2208 13.5145 2.89783 22.2045
422 1 -1.1104 3.94506 4.57815 20.7334
417 1 -1.1104 3.77663 7.62312 20.7441
397 1 -1.1104 0.918236 7.51367 21.0162
521 1 -1.1104 0.974486 1.57257 23.5921
525 1 -1.1104 0.885578 1.55735 26.5258
531 2 2.2208 5.27887 3.10617 25.132
535 1 -1.1104 3.83849 1.74451 23.8024
538 1 -1.1104 3.70122 1.75582 26.3416
540 2 2.2208 2.36665 3.18323 22.2526
584 2 2.2208 5.3621 6.12132 22.2227
586 1 -1.1104 1.1623 7.35509 23.8063
590 1 -1.1104 0.700726 4.24558 23.5406
595 1 -1.1104 0.852882 4.6699 26.2995
600 2 2.2208 2.31552 5.99651 25.1323
602 1 -1.1104 3.77431 7.4398 26.4235
604 1 -1.1104 3.66291 4.70455 23.5518
606 1 -1.1104 3.58815 4.58433 26.4484
599 1 -1.1104 3.87974 7.49877 23.7184
588 1 -1.1104 0.868799 7.42323 26.5232
597 1 -1.1104 6.62475 4.44846 26.7521
9015 2 2.2208 -0.303593 0.322442 22.0998
497 1 -1.1104 12.5692 18.6733 21.0877
328 1 -1.1104 6.72168 1.78412 21.0421
399 1 -1.1104 6.69079 7.36848 20.99
365 1 -1.1104 12.1698 1.68468 20.8575
444 1 -1.1104 9.54871 7.4392 20.8969
592 1 -1.1104 6.54563 4.66431 23.9304
410 1 -1.1104 6.83538 4.5382 20.9137
523 1 -1.1104 6.62374 1.75407 23.8053
527 1 -1.1104 6.57404 1.62146 26.6929
589 1 -1.1104 6.58796 7.26796 26.4714
437 1 -1.1104 12.179 4.5426 20.9205
449 1 -1.1104 9.70987 4.45608 21.0306
377 1 -1.1104 9.51555 1.91671 20.7518
587 1 -1.1104 6.6516 7.34524 23.6155
557 1 -1.1104 12.1419 1.67707 23.7983
559 1 -1.1104 12.3443 1.84427 26.5358
562 2 2.2208 10.9335 3.33518 25.1896
565 1 -1.1104 9.56649 1.78462 23.5274
568 1 -1.1104 9.42116 1.68132 26.3547
570 2 2.2208 8.05876 3.19517 22.235
616 1 -1.1104 9.58536 4.47751 26.6255
618 1 -1.1104 9.39311 4.70672 23.6891
622 2 2.2208 8.04391 6.03908 25.0839
623 2 2.2208 11.0223 6.02571 22.3109
625 1 -1.1104 12.4094 7.40374 23.6744
626 1 -1.1104 12.1922 7.39432 26.6062
627 1 -1.1104 12.225 4.77703 23.8702
630 1 -1.1104 12.2422 4.49899 26.5915
620 1 -1.1104 9.40127 7.31728 26.7454
632 1 -1.1104 9.49311 7.48255 23.8268
9006 2 2.2208 -0.185589 0.259081 16.5634
408 1 -1.1104 1.10811 10.2866 20.6528
480 1 -1.1104 3.8487 12.9383 21.0118
9023 2 2.2208 -0.394045 8.87407 25.0356
461 1 -1.1104 1.2191 13.0703 20.9954
585 2 2.2208 5.12786 11.6299 22.3193
591 1 -1.1104 1.01609 10.2452 23.4317
594 2 2.2208 5.41623 8.79964 25.1987
596 1 -1.1104 1.13207 10.2997 26.2723
601 2 2.2208 2.53266 11.679 25.0502
603 2 2.2208 2.3834 8.74494 22.2972
605 1 -1.1104 3.73364 10.2462 23.7128
607 1 -1.1104 4.05096 10.1553 26.4899
573 1 -1.1104 3.80875 13.0177 26.5829
635 1 -1.1104 1.04919 12.7996 23.5967
641 1 -1.1104 3.88296 13.0867 23.7913
645 1 -1.1104 1.19755 13.0318 26.509
598 1 -1.1104 7.03832 10.089 26.2841
465 1 -1.1104 6.50427 12.9181 20.9627
451 1 -1.1104 9.41095 10.2258 20.815
412 1 -1.1104 6.67752 10.1065 20.8755
507 1 -1.1104 9.56398 12.9746 20.8334
593 1 -1.1104 6.82289 10.3536 23.5935
649 1 -1.1104 6.55936 13.2308 23.8043
495 1 -1.1104 12.1639 13.085 20.8544
640 1 -1.1104 6.53337 12.8758 26.4881
583 1 -1.1104 9.51016 12.8516 26.666
615 1 -1.1104 9.69814 10.023 26.5746
617 1 -1.1104 9.88406 10.3426 23.7441
619 2 2.2208 8.14967 8.79691 22.3622
621 2 2.2208 8.18363 11.6923 25.1128
624 2 2.2208 10.9885 11.6504 22.2901
628 1 -1.1104 12.7929 10.0966 23.7449
629 2 2.2208 10.8932 8.73087 25.2944
631 1 -1.1104 12.5614 10.1531 26.3171
383 1 -1.1104 12.3509 12.9929 23.5819
388 1 -1.1104 12.4159 12.9923 26.5356
576 1 -1.1104 9.34817 13.1051 23.6664
580 1 -1.1104 9.55219 18.7971 23.6684
426 2 2.2208 5.49072 8.85388 13.7756
8873 2 2.2208 -0.442149 20.2366 25.1579
8842 2 2.2208 -0.401241 14.3716 19.6031
487 1 -1.1104 3.76742 15.7088 20.8642
463 1 -1.1104 1.21736 18.6179 20.9227
482 1 -1.1104 4.03056 18.5306 20.6687
473 1 -1.1104 0.932268 15.7217 21.0637
648 2 2.2208 5.19025 14.3654 25.3798
552 2 2.2208 2.52981 14.3255 22.3794
650 1 -1.1104 0.899985 18.582 23.7769
543 2 2.2208 2.47742 20.0148 22.2819
544 1 -1.1104 3.75008 15.6359 23.9045
545 1 -1.1104 1.16109 15.7716 23.7061
574 1 -1.1104 3.84957 15.6953 26.6615
608 2 2.2208 2.4412 17.3193 25.2294
633 1 -1.1104 4.03472 18.605 26.7118
634 2 2.2208 5.05866 17.1622 22.1937
639 1 -1.1104 3.68845 18.7581 23.7707
643 1 -1.1104 1.09237 18.8831 26.4829
644 1 -1.1104 1.23658 15.9925 26.5124
647 2 2.2208 5.2843 19.9361 25.3161
642 1 -1.1104 6.65622 15.8968 26.6651
454 2 2.2208 8.24226 11.9245 13.6909
582 1 -1.1104 6.78899 18.6231 26.4683
614 1 -1.1104 9.51255 16.0346 23.5584
554 1 -1.1104 12.2282 15.8094 26.5477
581 2 2.2208 8.00387 17.1541 24.7802
518 1 -1.1104 12.3219 18.646 26.6767
387 1 -1.1104 12.4261 18.5241 23.9704
546 1 -1.1104 12.4885 15.8471 23.7218
553 2 2.2208 11.0858 20.0203 25.1618
646 1 -1.1104 6.33542 18.4044 23.4924
548 1 -1.1104 6.54163 15.804 23.5051
547 2 2.2208 11.0183 14.363 25.1815
636 1 -1.1104 9.46195 15.5726 26.4768
612 2 2.2208 7.93769 14.3122 22.2751
488 2 2.2208 2.53769 17.2593 13.8032
386 2 2.2208 8.21703 -5.19499 13.716
9025 2 2.2208 -0.406742 5.77222 27.7771
651 2 2.2208 5.29014 22.9936 5.45699
653 1 -1.1104 1.28081 24.343 1.1355
654 1 -1.1104 1.31833 24.3092 4.19031
655 1 -1.1104 1.15208 21.4667 1.27691
657 2 2.2208 5.56708 25.8417 2.51888
658 1 -1.1104 1.25228 21.5449 3.99905
660 1 -1.1104 4.17376 24.4024 1.25266
661 2 2.2208 2.66463 22.8888 2.67292
663 1 -1.1104 4.12447 24.5288 4.05591
664 2 2.2208 2.62071 25.8934 5.41766
665 1 -1.1104 4.19026 21.476 1.27172
667 1 -1.1104 3.96781 21.6746 3.99892
656 1 -1.1104 1.12812 27.1385 1.18191
666 1 -1.1104 4.06919 27.2734 1.12603
668 1 -1.1104 3.85675 27.178 3.90862
659 1 -1.1104 1.19335 27.1945 4.06805
673 1 -1.1104 6.81114 24.158 3.89079
9216 2 2.2208 -0.0513382 25.8833 8.07731
677 1 -1.1104 6.84733 27.285 3.80742
9354 2 2.2208 13.601 40.0895 2.62821
696 1 -1.1104 12.4493 41.3048 9.6781
798 1 -1.1104 3.94119 24.294 6.95925
800 1 -1.1104 4.05591 26.994 6.69523
795 1 -1.1104 1.43118 27.4109 6.6524
797 1 -1.1104 6.5463 27.1769 6.50479
958 2 2.2208 5.28089 34.1369 -0.124935
955 2 2.2208 10.7806 28.5918 -0.192405
676 1 -1.1104 6.6729 21.5572 3.95716
674 1 -1.1104 7.01018 21.4796 1.14733
675 1 -1.1104 6.94387 27.1775 1.08449
672 1 -1.1104 6.86809 24.4898 1.16343
678 2 2.2208 11.1242 23.0761 5.3304
680 1 -1.1104 12.378 24.3449 0.733274
681 1 -1.1104 12.2288 24.4823 3.60786
682 1 -1.1104 12.3515 21.6289 1.24738
684 2 2.2208 11.0661 25.784 2.51715
685 1 -1.1104 12.4452 21.7871 4.09071
687 1 -1.1104 9.59488 24.4574 1.25889
688 2 2.2208 8.11165 22.9157 2.56445
690 1 -1.1104 9.52409 24.2832 3.86184
691 2 2.2208 8.16587 25.7565 5.23711
692 1 -1.1104 9.78726 21.6405 1.26018
694 1 -1.1104 9.45867 21.3752 3.92576
683 1 -1.1104 12.2383 27.3351 0.914153
686 1 -1.1104 12.632 27.3655 4.06831
695 1 -1.1104 9.76477 27.2578 3.88133
828 1 -1.1104 9.65797 24.4251 6.52759
829 1 -1.1104 9.51685 21.6454 7.04095
825 1 -1.1104 12.4408 24.5312 6.78806
652 2 2.2208 5.19666 28.7157 5.29178
662 2 2.2208 2.5083 28.5859 2.48293
700 1 -1.1104 1.24553 29.9228 1.07046
703 1 -1.1104 1.30145 30.1251 3.89178
706 1 -1.1104 1.20417 32.9182 1.01839
707 2 2.2208 5.24139 31.4853 2.50866
709 1 -1.1104 0.968376 32.9332 3.96681
711 1 -1.1104 4.09198 30.2327 0.885444
714 1 -1.1104 3.90909 29.9909 3.73878
716 2 2.2208 2.49975 31.5945 5.49309
718 1 -1.1104 3.91178 32.9976 1.10752
719 1 -1.1104 3.92792 32.9295 3.89957
849 1 -1.1104 1.24251 30.1668 6.92285
723 1 -1.1104 6.83644 30.017 1.07438
9712 2 2.2208 -0.318181 23.1985 -0.369083
9352 2 2.2208 -0.4619 40.0568 5.37744
1122 2 2.2208 5.17423 45.6977 -0.236587
951 2 2.2208 2.67509 25.8727 -0.169414
693 1 -1.1104 9.69135 27.1755 1.11558
710 1 -1.1104 6.86212 32.8747 3.94048
725 1 -1.1104 6.5545 32.6468 1.11439
724 1 -1.1104 6.76703 30.0097 3.9827
679 2 2.2208 11.0573 28.8117 5.1507
689 2 2.2208 8.34071 28.6741 2.40723
727 1 -1.1104 11.9457 30.2148 1.00954
729 1 -1.1104 12.1695 30.1628 3.73191
731 1 -1.1104 12.258 33.2405 1.11598
732 2 2.2208 10.7797 31.5234 2.5611
734 1 -1.1104 12.3871 32.8793 3.94171
735 1 -1.1104 9.44492 30.1242 1.08221
738 1 -1.1104 9.42415 30.0802 3.88998
740 2 2.2208 8.19433 31.3133 5.14973
742 1 -1.1104 9.5639 32.9502 1.18597
743 1 -1.1104 9.54158 33.0159 4.05331
954 2 2.2208 8.37648 25.8575 -0.22714
9342 2 2.2208 -0.161071 25.7827 2.57557
854 1 -1.1104 6.52465 33.0477 6.83012
1496 1 -1.1104 3.71473 46.694 12.4406
670 2 2.2208 10.9372 45.4541 11.0537
961 2 2.2208 10.7916 34.308 -0.298162
9346 2 2.2208 -0.272576 37.0027 2.48686
9279 2 2.2208 -0.385335 34.4365 11.047
9378 2 2.2208 13.6422 42.7259 -0.335203
699 2 2.2208 5.2058 34.2802 5.47699
701 1 -1.1104 0.998673 35.6232 1.20622
704 1 -1.1104 1.08698 35.7757 4.1165
708 2 2.2208 5.23013 37.2148 2.64481
712 1 -1.1104 4.01892 35.6324 1.35359
713 2 2.2208 2.48108 34.4731 2.7143
715 1 -1.1104 3.91873 35.8239 4.32305
717 2 2.2208 2.44969 37.185 5.50025
745 2 2.2208 5.3521 40.1083 5.28064
751 1 -1.1104 0.920211 38.375 1.15756
756 1 -1.1104 0.882266 38.6147 3.71545
761 2 2.2208 2.24195 39.9778 2.56435
765 1 -1.1104 3.6188 38.559 1.42998
767 1 -1.1104 3.89384 38.6052 4.12815