ITEM: TIMESTEP
80000
ITEM: NUMBER OF ATOMS
17730
ITEM: BOX BOUNDS pp pp pp
-4.3362745895502325e-01 2.7773627458955506e+01
-5.2908535150267904e+00 3.3337085351502486e+02
-4.5036244849206081e-01 2.7790362448491699e+01
ITEM: ATOMS id type q x y z
1 2 2.2208 5.21668 0.28914 5.20635
2 1 -1.1104 0.999053 -4.11208 0.943023
6 1 -1.1104 0.837445 -3.70319 3.84073
10 1 -1.1104 0.819911 -1.31256 0.710502
12 2 2.2208 4.90511 -2.36596 2.23909
14 1 -1.1104 0.934199 -1.03007 3.42362
16 1 -1.1104 3.79588 -3.89365 0.814569
18 2 2.2208 2.20479 0.515169 2.26922
19 1 -1.1104 3.49766 -3.73134 3.74687
21 2 2.2208 2.27056 -2.27824 5.12224
23 1 -1.1104 3.63836 -1.00876 1.09345
24 1 -1.1104 3.58643 -0.983513 3.74129
172 1 -1.1104 3.86252 -3.87964 6.68198
11 1 -1.1104 6.55575 -0.94706 0.989433
15 1 -1.1104 6.39425 -1.16173 3.88702
4 1 -1.1104 6.49643 -3.8196 1.05988
8 1 -1.1104 6.3475 -3.80181 3.58654
8613 2 2.2208 -0.260981 0.506471 10.8465
8600 2 2.2208 13.5374 -2.52726 5.09708
426 2 2.2208 5.1336 9.1654 13.6144
452 2 2.2208 8.08503 6.05204 13.4953
515 2 2.2208 10.8094 20.0815 13.6274
31 2 2.2208 10.7179 0.507146 4.93668
32 1 -1.1104 12.0973 -3.95386 0.87449
34 1 -1.1104 11.8551 -3.74993 3.7414
36 1 -1.1104 11.937 -0.998802 0.730982
37 2 2.2208 10.5442 -2.26231 2.42638
39 1 -1.1104 11.9169 -0.949063 3.47545
40 1 -1.1104 9.16271 -3.76447 1.17463
42 2 2.2208 7.82041 0.566547 2.22982
43 1 -1.1104 9.28393 -3.77008 3.85429
45 2 2.2208 8.03271 -2.38886 5.09654
47 1 -1.1104 9.37356 -0.862995 1.00667
48 1 -1.1104 9.11666 -1.02577 3.62469
208 1 -1.1104 9.4387 -3.88536 6.69274
210 1 -1.1104 9.49457 -0.886957 6.37173
8601 2 2.2208 13.5063 -5.26128 2.26452
231 2 2.2208 8.02769 -5.20511 7.9683
205 1 -1.1104 12.221 -3.83055 6.44745
52 2 2.2208 10.7233 -5.08447 5.18632
490 2 2.2208 5.30102 14.3771 13.4489
3 1 -1.1104 0.959451 1.67731 0.740786
7 1 -1.1104 0.85423 1.87258 3.73439
13 2 2.2208 5.07837 3.15303 2.3517
17 1 -1.1104 3.62876 1.91061 0.878685
20 1 -1.1104 3.67318 1.9929 3.63224
22 2 2.2208 2.44944 3.28849 5.20053
54 2 2.2208 5.01435 6.00148 5.43639
60 1 -1.1104 1.06487 4.77978 0.988486
67 1 -1.1104 0.98171 4.80175 3.51793
72 2 2.2208 2.46606 6.1878 2.3321
76 1 -1.1104 3.79071 4.58204 0.639523
79 1 -1.1104 3.79689 4.81877 3.88457
58 1 -1.1104 0.905583 7.40785 3.96916
71 1 -1.1104 3.87871 7.43073 0.95049
56 1 -1.1104 1.04276 7.56708 0.944763
74 1 -1.1104 3.75861 7.5541 3.86457
234 1 -1.1104 1.25393 7.5261 6.7461
9 1 -1.1104 6.41188 1.95951 3.62717
57 1 -1.1104 6.68757 7.43889 1.02032
59 1 -1.1104 6.56967 7.60715 3.73423
63 1 -1.1104 6.59295 4.65968 0.732252
235 1 -1.1104 6.7335 7.46192 6.64162
29 2 2.2208 5.18692 -5.20254 5.22325
306 2 2.2208 4.96986 0.494492 -0.484383
239 1 -1.1104 3.48284 4.62782 6.69324
237 1 -1.1104 6.36656 4.58721 6.69191
5 1 -1.1104 6.38374 1.80789 0.912945
69 1 -1.1104 6.51298 4.63366 3.7603
33 1 -1.1104 12.1296 1.85839 0.93429
35 1 -1.1104 12.0337 1.79229 3.70643
38 2 2.2208 10.9475 3.39052 2.46528
41 1 -1.1104 9.19916 1.96203 0.936442
44 1 -1.1104 9.13208 1.86979 3.9733
46 2 2.2208 7.82989 3.27942 5.24744
84 2 2.2208 10.6011 6.08775 5.23758
86 1 -1.1104 12.1079 7.62975 0.976466
88 1 -1.1104 12.3222 4.81817 0.961939
92 1 -1.1104 12.3787 4.86584 3.89668
94 1 -1.1104 9.43238 7.74669 0.895523
95 2 2.2208 7.81646 6.06179 2.37043
97 1 -1.1104 9.28141 7.59645 3.73941
99 1 -1.1104 9.39534 4.58398 0.822308
102 1 -1.1104 9.34104 4.66427 3.66134
87 1 -1.1104 12.1965 7.45866 3.92395
209 1 -1.1104 9.34347 1.91028 6.72254
267 1 -1.1104 9.64428 7.57647 6.47061
8599 2 2.2208 13.4503 0.344334 2.24071
453 2 2.2208 10.8133 8.92349 13.6336
55 2 2.2208 5.3024 11.5959 4.99563
61 1 -1.1104 1.03047 10.3933 1.00812
66 2 2.2208 5.1699 8.85338 2.4145
68 1 -1.1104 0.748964 9.98196 3.83319
73 2 2.2208 2.33579 11.8445 2.31619
75 2 2.2208 2.40345 8.88681 5.18354
77 1 -1.1104 3.7773 10.2861 0.90868
80 1 -1.1104 3.61794 10.2776 3.53986
107 1 -1.1104 0.94538 13.2327 1.01733
113 1 -1.1104 0.93629 12.9501 3.69611
123 1 -1.1104 3.71896 13.0125 0.75391
128 1 -1.1104 3.76399 12.9723 3.8787
78 1 -1.1104 3.83734 10.413 6.31064
124 1 -1.1104 3.5977 13.2164 6.60134
115 1 -1.1104 6.5935 13.1195 3.69771
70 1 -1.1104 6.74093 10.3256 3.75229
8505 2 2.2208 13.6247 6.06867 8.09099
108 1 -1.1104 1.00458 12.9248 6.51994
62 1 -1.1104 0.970044 10.1413 6.4962
8603 2 2.2208 -0.454283 8.8839 2.38252
390 2 2.2208 10.7981 -2.34779 13.7199
49 1 -1.1104 12.5249 18.8374 9.10055
64 1 -1.1104 6.6693 10.1941 1.01869
65 1 -1.1104 6.92163 10.4507 6.47142
110 1 -1.1104 6.51392 13.1207 0.944884
85 2 2.2208 11.0299 11.8186 5.06711
89 1 -1.1104 12.122 10.3183 1.11999
91 2 2.2208 10.8695 8.91846 2.57486
93 1 -1.1104 12.3469 10.2894 3.83178
96 2 2.2208 8.06169 11.6611 2.40269
98 2 2.2208 8.09694 8.8421 5.18849
100 1 -1.1104 9.28867 10.5467 0.841054
103 1 -1.1104 9.50632 10.3197 3.83177
142 1 -1.1104 12.2464 12.8825 0.891419
146 1 -1.1104 12.4233 13.1565 3.85676
153 1 -1.1104 9.53717 13.1695 1.05561
158 1 -1.1104 9.53189 13.1555 3.69534
111 1 -1.1104 6.43701 13.1397 6.54314
25 2 2.2208 10.907 17.242 10.8646
154 1 -1.1104 9.56303 13.1118 6.32326
143 1 -1.1104 12.2704 13.1928 6.6842
130 2 2.2208 2.23139 14.4053 5.09358
119 2 2.2208 5.40348 14.5029 2.20461
106 2 2.2208 5.36773 17.1895 4.946
109 1 -1.1104 0.881574 18.8597 0.640918
114 1 -1.1104 0.974633 18.5749 3.52438
116 1 -1.1104 1.0982 15.9018 0.627825
120 2 2.2208 5.14306 20.3781 2.22095
121 1 -1.1104 0.799091 15.826 3.66841
125 1 -1.1104 3.78297 18.6653 0.900549
127 2 2.2208 2.34969 17.0153 2.40811
129 1 -1.1104 3.79676 18.5572 3.5446
131 2 2.2208 2.5847 20.0922 4.92037
132 1 -1.1104 3.67717 15.7958 0.654907
134 1 -1.1104 3.74212 15.56 3.59218
126 1 -1.1104 4.14625 18.726 6.34025
117 1 -1.1104 0.939032 15.9465 6.45347
122 1 -1.1104 6.78271 15.8579 3.75106
140 1 -1.1104 6.61544 16.0601 0.993158
112 1 -1.1104 6.66209 18.9119 6.47514
118 1 -1.1104 6.63324 15.9533 6.46089
104 1 -1.1104 9.57434 18.6691 12.2887
8618 2 2.2208 13.5528 0.3942 7.97061
315 2 2.2208 10.8024 11.4579 -0.481374
138 1 -1.1104 6.66714 18.7392 0.74742
137 2 2.2208 8.07386 14.5689 10.7606
139 1 -1.1104 6.50707 18.5954 3.62163
160 2 2.2208 8.15114 14.4292 5.02474
156 1 -1.1104 9.45643 18.4141 6.5446
141 2 2.2208 10.8357 17.3489 5.13833
144 1 -1.1104 12.4556 18.6747 0.994063
147 1 -1.1104 12.207 18.6684 3.75597
148 1 -1.1104 12.3896 15.8792 1.09977
150 2 2.2208 10.9342 14.505 2.39477
151 2 2.2208 10.991 20.1221 2.30164
152 1 -1.1104 12.277 15.813 3.78771
155 1 -1.1104 9.61173 18.6271 0.882927
157 2 2.2208 8.00992 17.2251 2.28037
159 1 -1.1104 9.33809 18.7414 3.72128
161 2 2.2208 8.1518 20.0381 5.03029
162 1 -1.1104 9.50752 15.7604 0.934782
164 1 -1.1104 9.42899 16.134 3.57141
149 1 -1.1104 12.5923 16.0273 6.57352
166 1 -1.1104 1.06012 -3.75317 6.52944
355 2 2.2208 2.48578 -5.10365 13.5919
174 1 -1.1104 3.88143 -1.06923 6.73259
170 1 -1.1104 0.73859 -1.00978 6.35041
8614 2 2.2208 -0.332551 14.416 7.93281
488 2 2.2208 2.44926 17.4009 13.6035
8516 2 2.2208 -0.3229 11.545 10.7656
175 2 2.2208 5.38225 0.470706 10.8488
176 1 -1.1104 0.817299 -3.8567 12.1672
180 1 -1.1104 0.72192 -3.77263 9.18542
184 1 -1.1104 0.884219 -0.873536 12.3608
186 2 2.2208 5.05356 -2.44239 7.96472
188 1 -1.1104 1.15855 -0.971747 9.24311
190 1 -1.1104 3.37072 -3.53712 12.329
192 2 2.2208 2.40736 0.400547 7.86537
193 1 -1.1104 3.65829 -3.85464 9.69696
195 2 2.2208 2.27913 -2.32636 10.6872
197 1 -1.1104 3.75718 -0.860454 12.1352
198 1 -1.1104 3.96094 -0.960187 9.38661
202 2 2.2208 2.46285 -5.25216 8.00714
9008 2 2.2208 -0.406901 -2.40217 13.5733
51 2 2.2208 7.98769 -5.07658 2.43304
171 1 -1.1104 6.78656 -1.07855 6.53567
168 1 -1.1104 6.58514 -3.95794 6.62018
207 1 -1.1104 12.1818 -0.936144 6.31391
82 1 -1.1104 12.36 16.0212 9.27019
178 1 -1.1104 6.40942 -3.65555 12.0458
185 1 -1.1104 6.75073 -0.893919 12.1584
145 1 -1.1104 12.3328 18.9696 6.489
189 1 -1.1104 6.90962 -0.774837 9.56356
182 1 -1.1104 6.56345 -3.73559 9.37284
211 2 2.2208 10.9138 0.469121 10.8942
212 1 -1.1104 12.0784 -3.76993 12.0702
214 1 -1.1104 11.9807 -3.94322 9.33486
216 1 -1.1104 12.1432 -1.00039 12.217
217 2 2.2208 10.8111 -2.20623 7.76777
219 1 -1.1104 12.2236 -0.963442 9.21777
220 1 -1.1104 9.28399 -3.72759 11.8991
222 2 2.2208 8.07132 0.408787 7.97444
223 1 -1.1104 9.43969 -3.70101 9.30313
225 2 2.2208 8.00456 -2.4303 10.7113
227 1 -1.1104 9.30424 -0.871767 12.2626
228 1 -1.1104 9.38331 -1.13269 9.27021
203 2 2.2208 5.11108 -5.19638 10.7689
50 1 -1.1104 12.1361 15.7815 12.1567
28 2 2.2208 2.39444 -5.20857 2.23067
238 1 -1.1104 4.00277 7.49661 6.67961
236 1 -1.1104 0.861624 4.66647 6.40637
173 1 -1.1104 3.95325 1.56576 6.60318
167 1 -1.1104 1.00151 1.83797 6.70783
169 1 -1.1104 6.50524 1.60406 6.38022
386 2 2.2208 7.98146 -5.20832 13.4966
177 1 -1.1104 0.905778 1.83661 12.147
181 1 -1.1104 0.87592 1.81191 9.49298
187 2 2.2208 4.96439 3.2751 8.17323
191 1 -1.1104 3.671 1.95453 12.3309
194 1 -1.1104 3.89764 1.7223 9.49894
196 2 2.2208 2.20272 3.07856 10.791
240 2 2.2208 5.23597 6.14094 11.0388
244 1 -1.1104 0.943303 7.53094 9.42683
246 1 -1.1104 0.853017 4.54509 11.9195
251 1 -1.1104 1.14945 4.57039 9.18836
255 1 -1.1104 3.69052 7.64759 11.9743
256 2 2.2208 2.41861 6.20625 7.92226
258 1 -1.1104 3.87448 7.48347 9.20547
260 1 -1.1104 3.90973 4.76718 12.222
262 1 -1.1104 3.91856 4.83012 9.57564
242 1 -1.1104 0.874505 7.38796 12.3245
245 1 -1.1104 6.5599 7.44521 9.50151
243 1 -1.1104 6.75942 7.67858 12.4039
266 1 -1.1104 12.1136 4.39755 6.57558
288 1 -1.1104 6.66381 18.622 9.23476
179 1 -1.1104 6.48243 1.85083 12.2154
248 1 -1.1104 6.78553 4.70595 12.2731
253 1 -1.1104 6.8069 4.73123 9.55076
183 1 -1.1104 6.57282 2.07724 9.40773
206 1 -1.1104 12.0648 1.69601 6.59616
265 1 -1.1104 12.3702 7.44955 6.74463
269 1 -1.1104 8.93853 4.72376 6.57863
213 1 -1.1104 12.3332 1.80485 11.9094
215 1 -1.1104 12.2723 1.72324 9.20816
218 2 2.2208 10.7863 3.22748 8.15095
221 1 -1.1104 9.5236 1.93191 12.4069
224 1 -1.1104 9.44757 1.85373 9.46568
226 2 2.2208 8.09996 3.12088 10.8155
268 1 -1.1104 9.49621 4.70268 9.50422
271 1 -1.1104 9.51858 4.33854 12.1671
275 2 2.2208 8.06213 6.17953 7.94514
276 2 2.2208 10.9181 6.05985 10.7157
278 1 -1.1104 12.2853 7.4871 12.195
280 1 -1.1104 12.3092 4.56873 12.1337
283 1 -1.1104 12.1827 4.58656 9.3359
273 1 -1.1104 9.38931 7.44996 9.23086
279 1 -1.1104 12.1182 7.36621 9.2138
285 1 -1.1104 9.75067 7.47912 11.922
136 1 -1.1104 9.67805 18.7656 9.35352
200 1 -1.1104 9.50048 16.0073 9.4243
241 2 2.2208 5.25113 11.7529 10.5714
247 1 -1.1104 0.939298 10.1577 12.2889
250 2 2.2208 5.39772 8.94743 8.09975
252 1 -1.1104 0.862978 10.2583 9.47773
257 2 2.2208 2.25089 11.5636 7.94169
259 2 2.2208 2.29003 8.95096 10.6157
261 1 -1.1104 3.83179 10.4852 11.9635
263 1 -1.1104 3.71871 10.4671 9.13019
287 1 -1.1104 3.82543 13.1457 12.2342
294 1 -1.1104 1.16883 12.8924 9.35249
299 1 -1.1104 1.05468 12.7839 12.1408
305 1 -1.1104 3.85458 13.0479 9.26027
297 1 -1.1104 6.63344 13.1187 12.1902
290 1 -1.1104 7.01854 13.0312 9.30291
249 1 -1.1104 6.51862 10.4427 12.1348
53 2 2.2208 10.9745 14.6294 7.87871
81 2 2.2208 10.9236 20.0996 7.77063
425 2 2.2208 2.2742 6.35592 13.5583
163 1 -1.1104 9.43429 15.8268 6.33517
454 2 2.2208 8.17021 11.7747 13.4501
101 1 -1.1104 9.60968 10.3548 6.53815
90 1 -1.1104 12.2748 10.4094 6.75676
254 1 -1.1104 6.72095 10.3102 9.45873
264 1 -1.1104 9.5248 10.2029 9.62017
270 1 -1.1104 9.50317 10.4632 12.2409
272 2 2.2208 8.00326 8.85651 10.632
274 2 2.2208 8.2901 11.6985 7.93995
277 2 2.2208 10.9185 11.8318 10.6865
281 1 -1.1104 12.3983 10.1228 12.2351
282 2 2.2208 10.9799 8.86881 7.95867
284 1 -1.1104 12.2794 10.3141 9.5159
26 1 -1.1104 12.212 13.1917 12.2475
30 1 -1.1104 12.2484 13.2008 9.26854
83 1 -1.1104 9.55669 13.3543 12.0061
135 1 -1.1104 9.71513 13.3238 9.15114
199 1 -1.1104 9.41946 16.0981 12.2366
8660 2 2.2208 13.5883 0.44937 13.4767
302 1 -1.1104 1.32932 18.5804 6.50277
296 1 -1.1104 6.79771 18.7775 12.0649
165 2 2.2208 8.10765 20.0983 10.6722
133 1 -1.1104 3.95354 15.9105 6.4392
201 2 2.2208 2.55138 14.5118 10.8012
295 2 2.2208 5.19527 14.5301 7.78788
301 1 -1.1104 3.79978 18.8227 9.02947
300 2 2.2208 5.30463 17.4169 10.601
298 1 -1.1104 1.02688 18.7211 12.0867
293 2 2.2208 5.44772 20.1648 7.84618
304 1 -1.1104 3.79415 15.9546 9.2243
303 2 2.2208 2.66373 17.3063 7.8812
204 2 2.2208 2.35953 20.1053 10.6531
229 1 -1.1104 3.87478 15.7432 12.2114
230 1 -1.1104 1.10808 15.851 12.1672
286 1 -1.1104 3.89437 18.687 12.0845
291 1 -1.1104 0.967169 18.5759 9.29836
292 1 -1.1104 1.13132 15.5971 9.4498
233 1 -1.1104 6.57662 15.9563 11.9823
289 1 -1.1104 6.54148 15.7619 9.1307
8619 2 2.2208 13.5331 -2.55853 10.7966
27 1 -1.1104 12.5452 18.6203 12.1491
105 2 2.2208 7.95759 17.3173 7.78127
356 2 2.2208 5.07337 -2.38762 13.5799
8323 2 2.2208 13.6277 8.91906 5.09607
313 2 2.2208 10.7057 6.14255 -0.428712
8606 2 2.2208 13.5945 6.15003 2.52011
489 2 2.2208 5.27406 19.9655 13.5261
8608 2 2.2208 -0.44214 20.2008 2.08144
427 2 2.2208 2.41286 11.6114 13.5238
8294 2 2.2208 13.533 3.04292 5.28223
8593 2 2.2208 -0.272638 -2.60903 2.24035
8609 2 2.2208 -0.353426 17.3582 5.01848
8615 2 2.2208 -0.373217 17.2796 10.7956
609 2 2.2208 2.32795 8.87706 -0.421758
516 2 2.2208 10.8371 14.5997 13.4553
8844 2 2.2208 -0.392886 14.4568 13.7108
311 2 2.2208 7.85558 -2.34479 -0.333214
8594 2 2.2208 13.6743 14.3235 10.7442
8597 2 2.2208 -0.391171 3.23356 2.20871
8523 2 2.2208 -0.321168 8.98021 7.98351
391 2 2.2208 10.8956 3.31153 13.5103
389 2 2.2208 7.92778 0.574587 13.408
517 2 2.2208 8.07167 17.4932 13.5699
577 2 2.2208 10.7005 -5.16285 -0.415451
310 2 2.2208 10.767 0.561264 -0.39857
357 2 2.2208 2.28302 0.466079 13.5952
316 2 2.2208 5.23082 0.511485 16.2373
317 1 -1.1104 0.939421 -4.01219 17.7651
321 1 -1.1104 0.72253 -3.83382 15.1922
329 1 -1.1104 1.04457 -1.22732 17.7816
331 2 2.2208 5.23111 -2.4501 19.222
333 1 -1.1104 1.04894 -0.964617 15.0121
337 1 -1.1104 3.99306 -3.85907 17.7995
339 2 2.2208 2.29532 0.411186 19.1894
340 1 -1.1104 3.72699 -3.69202 14.9451
344 2 2.2208 2.40253 -2.60453 16.5235
346 1 -1.1104 3.745 -1.1743 17.8249
347 1 -1.1104 3.77683 -0.757126 14.8298
334 1 -1.1104 0.734536 -0.893165 20.5757
8629 2 2.2208 13.5452 8.84679 27.7578
348 1 -1.1104 3.63663 -1.006 20.6948
9005 2 2.2208 13.6321 20.0089 22.0005
322 1 -1.1104 0.937404 -3.95178 20.6831
309 2 2.2208 5.12389 -5.20748 27.7713
9018 2 2.2208 13.5391 -2.37627 27.6877
549 2 2.2208 5.17672 -5.18706 22.1127
319 1 -1.1104 6.80399 -4.00916 17.8429
325 1 -1.1104 6.7672 -3.88774 14.7981
330 1 -1.1104 6.46819 -1.04445 17.7134
335 1 -1.1104 6.44548 -1.15761 15.0562
359 2 2.2208 10.6353 0.425832 16.5686
360 1 -1.1104 12.1728 -3.78042 18.0027
362 1 -1.1104 12.0878 -3.88748 15.009
366 1 -1.1104 12.2785 -1.00425 17.8841
367 2 2.2208 10.5743 -2.45672 19.2982
369 1 -1.1104 12.1523 -1.06925 15.1942
371 1 -1.1104 9.54349 -3.70672 17.6022
373 2 2.2208 7.94302 0.544453 19.1469
374 1 -1.1104 9.23877 -3.65634 14.9065
378 2 2.2208 8.01075 -2.29083 16.3727
380 1 -1.1104 9.35919 -0.894943 17.9891
381 1 -1.1104 9.28775 -0.811866 15.0004
375 1 -1.1104 9.171 -3.84568 20.7156
363 1 -1.1104 11.8841 -3.99981 20.7134
9017 2 2.2208 13.6231 -4.98093 24.8008
358 2 2.2208 5.21821 3.38962 13.676
8869 2 2.2208 13.5437 5.8271 24.9705
318 1 -1.1104 1.07473 1.70614 17.737
323 1 -1.1104 0.794844 2.01522 15.1121
332 2 2.2208 5.10284 3.22403 19.0744
338 1 -1.1104 3.7698 1.84276 18.0302
342 1 -1.1104 3.92782 2.19295 15.2281
345 2 2.2208 2.22191 3.41511 16.3803
392 2 2.2208 5.18393 6.34754 16.3679
394 1 -1.1104 1.05831 7.56022 17.8534
396 1 -1.1104 0.906824 7.50708 14.9846
400 1 -1.1104 0.930262 4.71514 17.7787
405 1 -1.1104 0.835276 4.88194 15.0504
413 1 -1.1104 3.77917 7.56666 17.612
414 2 2.2208 2.4064 6.09101 19.156
416 1 -1.1104 3.69651 7.81922 14.7855
419 1 -1.1104 3.66013 4.73876 17.6412
421 1 -1.1104 3.69431 4.94883 14.8787
417 1 -1.1104 3.74602 7.41781 20.4268
320 1 -1.1104 6.73498 1.92271 17.8102
409 1 -1.1104 6.66603 4.7569 14.8978
8623 2 2.2208 -0.415822 0.360772 27.5894
422 1 -1.1104 3.87124 4.63399 20.523
9019 2 2.2208 13.1997 -2.41938 21.9387
327 1 -1.1104 6.63635 1.82593 15.0098
395 1 -1.1104 6.59679 7.67839 17.8768
402 1 -1.1104 6.41162 4.51637 17.6527
361 1 -1.1104 12.1741 1.69358 17.73
364 1 -1.1104 12.352 1.78408 14.8394
368 2 2.2208 10.9106 3.24238 19.2847
372 1 -1.1104 9.34821 1.88707 18.0021
376 1 -1.1104 9.49469 1.97161 15.0108
379 2 2.2208 8.05885 3.43557 16.3568
428 2 2.2208 10.9303 6.06238 16.3653
431 1 -1.1104 12.1328 7.43304 14.9603
433 1 -1.1104 12.0711 4.64247 17.8699
436 1 -1.1104 12.1688 4.65481 15.0019
441 2 2.2208 7.98501 6.06417 19.2412
446 1 -1.1104 9.29868 4.69686 17.7316
448 1 -1.1104 9.35572 4.81978 14.9927
440 1 -1.1104 9.48479 7.49965 17.7099
430 1 -1.1104 12.2193 7.62075 17.6212
443 1 -1.1104 9.2493 7.60027 14.927
377 1 -1.1104 9.21518 1.87204 20.473
399 1 -1.1104 6.48906 7.44152 20.5958
444 1 -1.1104 9.23347 7.48 20.5548
9013 2 2.2208 13.6557 11.4644 24.8582
328 1 -1.1104 6.59697 1.85036 20.804
8863 2 2.2208 13.5167 3.22438 22.0489
8922 2 2.2208 13.5722 8.60468 22.1135
398 1 -1.1104 6.62099 7.62958 15.1834
393 2 2.2208 5.06319 11.8106 16.4099
401 1 -1.1104 0.692225 10.4445 17.9478
404 2 2.2208 5.37958 9.0533 19.2813
407 1 -1.1104 0.928772 10.3054 15.2166
415 2 2.2208 2.19683 11.7491 19.393
418 2 2.2208 2.29679 9.08204 16.4184
420 1 -1.1104 3.72222 10.3312 17.8634
423 1 -1.1104 3.75681 10.516 14.9559
456 1 -1.1104 0.966056 13.3237 17.8862
460 1 -1.1104 0.854453 13.0786 15.029
476 1 -1.1104 3.66953 13.0922 18.0313
479 1 -1.1104 3.7371 13.1809 14.8475
458 1 -1.1104 6.52044 13.1752 17.8701
403 1 -1.1104 6.61213 10.4572 17.5152
408 1 -1.1104 1.09528 10.1266 20.6441
464 1 -1.1104 6.56031 13.3904 14.9472
461 1 -1.1104 0.77229 13.0196 20.8099
8873 2 2.2208 -0.209158 20.0996 24.8735
411 1 -1.1104 6.79442 10.4483 14.8424
429 2 2.2208 10.8103 11.6504 16.261
434 1 -1.1104 12.2494 10.2368 17.7225
435 2 2.2208 10.7619 8.81938 19.1552
438 1 -1.1104 12.2984 10.1194 15.0245
442 2 2.2208 8.12097 11.8444 19.1347
445 2 2.2208 8.09692 8.93404 16.3507
447 1 -1.1104 9.52616 10.171 17.6964
450 1 -1.1104 9.41057 10.3359 14.8485
492 1 -1.1104 12.4976 12.8238 17.7436
494 1 -1.1104 12.2003 12.9954 14.9151
503 1 -1.1104 9.4734 13.1482 17.6172
506 1 -1.1104 9.47226 13.1122 14.8473
314 2 2.2208 8.08972 8.94325 27.791
412 1 -1.1104 6.80364 10.4943 20.4489
8771 2 2.2208 -0.443924 8.90076 19.2412
353 2 2.2208 8.06386 20.0161 27.7989
439 1 -1.1104 12.5196 10.0697 20.6785
483 2 2.2208 2.27917 14.5018 16.4056
470 2 2.2208 5.11242 14.4668 19.3319
455 2 2.2208 5.1236 17.2795 16.3946
457 1 -1.1104 0.805331 18.8893 17.6123
462 1 -1.1104 1.15992 18.7426 14.8217
468 1 -1.1104 1.04621 16.1803 17.8821
471 2 2.2208 5.40488 20.0038 19.1247
472 1 -1.1104 0.827984 15.9222 15.0969
477 1 -1.1104 3.70554 18.8142 17.8229
478 2 2.2208 2.4419 17.2692 19.3153
481 1 -1.1104 3.82864 18.69 14.9073
484 2 2.2208 2.30966 20.0924 16.4597
485 1 -1.1104 3.91166 15.9463 17.8579
486 1 -1.1104 3.94351 15.8442 14.9143
469 1 -1.1104 6.50734 15.859 17.9943
463 1 -1.1104 1.09232 18.8849 20.4882
473 1 -1.1104 0.968509 15.8609 20.7295
387 1 -1.1104 12.3063 18.6611 23.4184
385 2 2.2208 7.90873 -5.33357 19.3899
8662 2 2.2208 13.5925 0.398312 19.2666
459 1 -1.1104 6.66095 18.3175 17.8456
474 1 -1.1104 6.8762 15.9157 14.8959
466 1 -1.1104 6.50242 18.6111 14.9311
509 1 -1.1104 9.74359 18.8392 20.7787
510 2 2.2208 8.11609 14.4467 16.3804
499 2 2.2208 10.9968 14.404 19.1489
491 2 2.2208 10.8067 17.1215 16.3727
493 1 -1.1104 12.31 18.5617 17.7856
496 1 -1.1104 12.3496 18.5763 15.0499
498 1 -1.1104 12.3053 15.6827 17.7289
500 2 2.2208 10.9368 19.6915 19.1795
501 1 -1.1104 12.1268 15.8794 15.0166
504 1 -1.1104 9.42173 18.7206 17.7654
505 2 2.2208 7.83887 17.3041 19.2528
508 1 -1.1104 9.57631 18.6207 15.0636
511 2 2.2208 7.97247 20.0795 16.3134
512 1 -1.1104 9.54204 15.9438 17.8262
513 1 -1.1104 9.52114 15.9669 14.9581
502 1 -1.1104 12.4359 15.8311 20.772
579 2 2.2208 7.94787 -5.16546 24.9341
551 2 2.2208 2.53814 20.1818 27.7535
341 1 -1.1104 3.53738 -4.1568 20.7418
349 2 2.2208 8.13118 14.2683 27.6965
519 2 2.2208 4.96583 0.476503 22.0764
520 1 -1.1104 0.874048 -3.73591 23.612
524 1 -1.1104 0.715541 -3.90319 26.3945
528 1 -1.1104 0.90446 -1.22898 23.3655
530 2 2.2208 5.16043 -2.42435 24.9275
532 1 -1.1104 0.784561 -1.00545 26.1606
534 1 -1.1104 3.63546 -3.97357 23.6076
536 2 2.2208 2.1404 0.272241 24.5866
537 1 -1.1104 3.49419 -3.60174 26.2546
539 2 2.2208 2.24747 -2.52557 22.0423
541 1 -1.1104 3.64147 -1.18851 23.5067
542 1 -1.1104 3.55111 -0.882134 26.4421
307 2 2.2208 2.13905 -2.4516 27.7092
312 2 2.2208 5.13161 6.12497 27.7952
8803 2 2.2208 13.5833 20.0386 16.2873
9006 2 2.2208 -0.441722 0.129128 16.4706
9020 2 2.2208 13.4881 0.382961 24.7912
336 1 -1.1104 6.51145 -0.965319 20.6186
326 1 -1.1104 6.39141 -3.82262 20.7596
382 1 -1.1104 9.30523 -1.05883 20.8235
526 1 -1.1104 6.63376 -3.90667 26.4455
522 1 -1.1104 6.46829 -3.8983 23.4248
533 1 -1.1104 6.47065 -1.11834 26.2923
9021 2 2.2208 13.5699 3.17751 27.7048
370 1 -1.1104 12.125 -0.875662 20.7815
529 1 -1.1104 6.32865 -0.925297 23.3844
555 2 2.2208 10.6897 0.378777 22.0373
556 1 -1.1104 12.1054 -3.75556 23.5299
558 1 -1.1104 12.2505 -3.72432 26.4053
560 1 -1.1104 11.9389 -0.913794 23.5457
561 2 2.2208 10.7452 -2.26008 25.2198
563 1 -1.1104 12.2345 -1.13696 26.4983
564 1 -1.1104 9.1377 -3.83938 23.3994
566 2 2.2208 7.90557 0.533235 24.8743
567 1 -1.1104 9.43411 -3.83803 26.3243
569 2 2.2208 7.92339 -2.22308 22.2587
571 1 -1.1104 9.1292 -1.02561 23.8155
572 1 -1.1104 9.3026 -0.810641 26.5212
406 1 -1.1104 0.965292 4.694 20.6086
397 1 -1.1104 0.950934 7.54386 20.6781
343 1 -1.1104 3.75736 1.92478 20.6149
324 1 -1.1104 0.859042 2.23009 20.5452
521 1 -1.1104 0.846068 1.62308 23.3275
525 1 -1.1104 0.77202 1.80893 26.1216
531 2 2.2208 5.03929 3.39153 24.9385
535 1 -1.1104 3.57168 1.69156 23.4164
538 1 -1.1104 3.57275 1.83923 26.1245
540 2 2.2208 2.2762 3.17183 22.1112
584 2 2.2208 5.21428 5.97823 22.1213
586 1 -1.1104 1.15886 7.39921 23.4958
590 1 -1.1104 1.22064 4.48768 23.737
595 1 -1.1104 0.897575 4.65383 26.442
600 2 2.2208 2.48886 6.19827 24.8806
602 1 -1.1104 3.918 7.66253 26.2795
604 1 -1.1104 3.83252 4.63309 23.5397
606 1 -1.1104 3.75305 4.78566 26.3279
599 1 -1.1104 3.98494 7.5645 23.3846
589 1 -1.1104 6.58016 7.48233 26.4545
592 1 -1.1104 6.53753 4.6513 23.4223
527 1 -1.1104 6.48178 1.90399 26.3833
350 2 2.2208 5.26366 -5.17894 16.3639
9025 2 2.2208 -0.432216 6.12724 27.7109
410 1 -1.1104 6.84824 4.71119 20.5944
554 1 -1.1104 12.4666 15.8273 26.4819
437 1 -1.1104 12.534 4.72231 20.4867
365 1 -1.1104 12.0809 1.93833 20.7513
432 1 -1.1104 12.0002 7.42031 20.5694
523 1 -1.1104 6.30492 1.87823 23.6339
9010 2 2.2208 13.5338 -2.39494 16.5302
587 1 -1.1104 6.74264 7.32844 23.3394
597 1 -1.1104 6.55841 4.70053 26.2176
449 1 -1.1104 9.67725 4.73637 20.5832
557 1 -1.1104 11.8458 1.75178 23.4868
559 1 -1.1104 12.053 1.59939 26.3152
562 2 2.2208 10.5998 3.22946 24.7916
565 1 -1.1104 9.12173 1.75668 23.2923
568 1 -1.1104 9.40064 1.78525 26.3793
570 2 2.2208 7.93339 3.2437 22.0637
616 1 -1.1104 9.3239 4.51817 26.411
618 1 -1.1104 9.20969 4.62458 23.5825
622 2 2.2208 7.76212 6.07268 24.8684
623 2 2.2208 10.7409 6.02334 22.0864
625 1 -1.1104 12.2409 7.23187 23.5319
626 1 -1.1104 11.9742 7.15217 26.3576
627 1 -1.1104 11.9119 4.5949 23.4749
630 1 -1.1104 12.1782 4.41757 26.2899
620 1 -1.1104 9.2714 7.39134 26.2835
632 1 -1.1104 9.43563 7.29949 23.3952
588 1 -1.1104 1.0335 7.31847 26.3819
424 1 -1.1104 3.96609 10.1662 20.6234
480 1 -1.1104 3.45023 12.7834 20.9276
585 2 2.2208 5.18073 11.7487 22.1233
591 1 -1.1104 0.68736 10.4122 23.5581
594 2 2.2208 5.21015 8.83962 24.8919
596 1 -1.1104 1.00897 10.0821 26.339
601 2 2.2208 2.49554 11.4263 24.8517
603 2 2.2208 2.60806 8.72772 21.8994
605 1 -1.1104 3.79603 10.3293 23.2086
607 1 -1.1104 3.80432 10.1198 26.2176
573 1 -1.1104 3.63488 12.8831 26.2398
635 1 -1.1104 1.24441 12.9976 23.5843
641 1 -1.1104 4.08821 13.1169 23.5242
645 1 -1.1104 0.831022 13.0736 26.5314
593 1 -1.1104 6.5531 10.222 23.3828
640 1 -1.1104 6.44375 12.7198 26.2439
649 1 -1.1104 6.77598 13.0337 23.4788
598 1 -1.1104 6.68592 10.1031 26.2433
384 2 2.2208 10.7946 -5.26617 16.5405
308 2 2.2208 2.23218 3.20907 27.604
465 1 -1.1104 6.64657 13.0386 20.5166
451 1 -1.1104 9.45176 10.5079 20.5788
507 1 -1.1104 9.61052 13.3118 20.6789
495 1 -1.1104 12.139 12.9113 20.4579
611 1 -1.1104 9.49302 18.6262 26.3703
518 1 -1.1104 12.3542 18.5457 26.3299
583 1 -1.1104 9.22705 12.6454 26.5519
615 1 -1.1104 9.62556 10.0016 26.2853
617 1 -1.1104 9.3935 10.177 23.4208
619 2 2.2208 8.04387 8.9057 21.9761
621 2 2.2208 7.8927 11.3971 24.816
624 2 2.2208 10.9905 11.5372 22.0203
628 1 -1.1104 12.1381 10.0104 23.3769
629 2 2.2208 10.7173 8.63985 24.7542
631 1 -1.1104 12.329 10.141 26.4011
383 1 -1.1104 12.439 13.0548 23.5641
388 1 -1.1104 12.0184 12.8586 26.2835
576 1 -1.1104 9.6182 12.9216 23.5736
487 1 -1.1104 3.57652 15.7323 20.5604
475 1 -1.1104 6.49542 15.7268 20.7816
642 1 -1.1104 6.82844 15.7743 26.3316
354 2 2.2208 10.8694 17.2324 22.1199
8872 2 2.2208 -0.280221 17.1994 27.5773
482 1 -1.1104 3.79114 18.7137 20.689
548 1 -1.1104 6.893 15.7247 23.3323
552 2 2.2208 2.32348 14.6027 22.1778
650 1 -1.1104 1.08911 18.7814 23.2599
648 2 2.2208 5.405 14.3394 24.8482
543 2 2.2208 2.57062 20.1286 21.9712
544 1 -1.1104 3.68601 15.914 23.4576
545 1 -1.1104 0.935179 15.8476 23.3548
574 1 -1.1104 3.89138 15.8761 26.1724
608 2 2.2208 2.33306 17.3468 24.786
633 1 -1.1104 3.66716 18.6082 26.2623
634 2 2.2208 5.40305 17.2319 22.1262
639 1 -1.1104 4.03574 18.7439 23.3064
643 1 -1.1104 1.02369 18.5583 26.2478
644 1 -1.1104 0.891332 15.8119 26.2333
647 2 2.2208 5.3408 20.0614 24.8321
546 1 -1.1104 12.3977 16.0777 23.4996
514 1 -1.1104 9.21515 16.1457 20.7553
612 2 2.2208 8.13434 14.4656 22.0031
646 1 -1.1104 6.65819 18.7717 23.6491
636 1 -1.1104 9.69638 15.5734 26.392
547 2 2.2208 10.9138 14.395 24.9313
553 2 2.2208 10.8451 19.9719 24.9431
467 1 -1.1104 6.77936 18.6753 20.7497
497 1 -1.1104 12.3436 18.4987 20.6144
8656 2 2.2208 13.4822 3.17985 16.4672
581 2 2.2208 7.98464 17.2991 25.0233
613 2 2.2208 8.07311 19.9976 22.2419
614 1 -1.1104 9.65304 15.7283 23.4129
582 1 -1.1104 6.47897 18.4717 26.2793
580 1 -1.1104 9.45161 18.5298 23.5479
610 2 2.2208 5.07484 11.5886 27.7658
637 2 2.2208 2.42957 14.3622 27.6374
575 2 2.2208 7.89363 3.30522 27.7071
638 2 2.2208 5.15724 17.2122 27.6879
352 2 2.2208 11.0257 17.1084 27.6941
651 2 2.2208 5.35518 22.9212 5.15343
653 1 -1.1104 0.93191 24.2535 0.613403
654 1 -1.1104 0.859785 24.2371 3.82542
655 1 -1.1104 1.06864 21.597 0.83171
657 2 2.2208 5.34804 25.7254 2.24079
658 1 -1.1104 1.24472 21.3124 3.53347
660 1 -1.1104 3.85094 24.5273 0.669131
661 2 2.2208 2.21221 23.0144 2.15897
663 1 -1.1104 3.63531 24.1967 3.44615
664 2 2.2208 2.40562 25.523 5.02518
665 1 -1.1104 3.74838 21.6893 0.842741
667 1 -1.1104 4.10434 21.5435 3.75918
659 1 -1.1104 1.26769 26.938 3.60869
656 1 -1.1104 1.0721 26.8764 0.841747
666 1 -1.1104 3.76521 27.1587 0.944209
677 1 -1.1104 6.77285 26.9427 3.61765
676 1 -1.1104 7.17592 21.228 3.52541
672 1 -1.1104 6.79471 24.374 1.03739
668 1 -1.1104 4.00959 26.6817 3.72898
9342 2 2.2208 -0.354494 25.7862 2.1769
795 1 -1.1104 1.01754 26.8407 6.41552
798 1 -1.1104 3.7417 23.9583 6.49576
800 1 -1.1104 3.80616 26.8043 6.60103
797 1 -1.1104 6.68338 26.8579 6.47475
1023 2 2.2208 8.1768 28.5494 13.4176
674 1 -1.1104 6.56613 21.604 0.808547
673 1 -1.1104 6.67955 24.1316 3.83742
678 2 2.2208 10.8769 22.9214 4.96883
680 1 -1.1104 12.3982 24.38 0.799776
681 1 -1.1104 12.1707 24.3073 3.56939
682 1 -1.1104 12.2557 21.3653 0.878541
684 2 2.2208 11.0081 25.8544 2.38266
685 1 -1.1104 12.5424 21.4624 3.68416
687 1 -1.1104 9.61524 24.462 1.04068
688 2 2.2208 8.26781 23.0184 2.30545
690 1 -1.1104 9.4102 24.4476 3.95248
691 2 2.2208 8.16591 25.6741 5.29731
692 1 -1.1104 9.5017 21.4652 0.892146
694 1 -1.1104 9.80078 21.5761 3.54557
683 1 -1.1104 12.3164 27.2686 0.787236
695 1 -1.1104 9.55386 27.2843 3.77245
825 1 -1.1104 12.1695 24.4058 6.51726
830 1 -1.1104 9.62478 27.0674 6.60776
675 1 -1.1104 6.52157 27.3079 0.817376
686 1 -1.1104 12.3821 27.1831 3.87833
9347 2 2.2208 -0.468219 31.2094 2.26915
793 1 -1.1104 6.85914 24.2364 6.49501
828 1 -1.1104 9.51358 24.027 6.57646
827 1 -1.1104 12.4864 27.1992 6.67353
1022 2 2.2208 10.9382 25.4672 13.6119
652 2 2.2208 5.17999 28.2867 5.06548
662 2 2.2208 2.39344 28.4966 2.18817
700 1 -1.1104 1.04024 29.7784 0.99144
703 1 -1.1104 0.914764 29.7206 3.52137
706 1 -1.1104 0.919209 32.5787 0.752085
707 2 2.2208 5.22752 31.2328 2.32098
709 1 -1.1104 0.965908 32.4699 3.59699
711 1 -1.1104 3.72306 29.9634 0.69898
714 1 -1.1104 3.67242 29.5315 3.6715
716 2 2.2208 2.57851 31.0656 4.98001
718 1 -1.1104 3.67442 32.7887 0.845198
719 1 -1.1104 3.75757 32.4064 3.66588
724 1 -1.1104 6.28467 29.7575 3.65685
710 1 -1.1104 6.47291 32.6716 3.85472
723 1 -1.1104 6.6692 30.2291 0.977046
725 1 -1.1104 6.42055 32.6856 0.938155
849 1 -1.1104 1.2957 29.5425 6.38125
1487 1 -1.1104 6.49081 46.6827 9.19383
1496 1 -1.1104 3.58098 46.731 12.2785
1337 1 -1.1104 9.49696 46.453 0.930294
693 1 -1.1104 9.49716 26.9933 0.829114
679 2 2.2208 10.9332 28.602 5.25486
689 2 2.2208 7.97727 28.5219 2.40571
727 1 -1.1104 12.4454 29.9091 0.801804
729 1 -1.1104 12.1979 29.7349 3.55104
731 1 -1.1104 12.3575 32.7747 0.66795
732 2 2.2208 10.7143 31.1933 2.14164
734 1 -1.1104 12.4042 32.7462 3.78428
735 1 -1.1104 9.42181 29.622 0.913262
738 1 -1.1104 9.47195 29.74 3.74351
740 2 2.2208 8.10049 31.1963 5.11962
742 1 -1.1104 9.36982 32.6034 0.715688
743 1 -1.1104 9.28015 32.5498 3.76624
885 1 -1.1104 12.3341 32.6787 6.4537
886 1 -1.1104 9.50891 29.822 6.62177
883 1 -1.1104 12.3796 29.9759 6.34082
954 2 2.2208 8.06959 25.6176 -0.320847
851 1 -1.1104 6.656 29.6753 6.49262
888 1 -1.1104 9.5336 32.5637 6.51928
699 2 2.2208 5.21329 33.9398 5.01649
701 1 -1.1104 1.08277 35.4955 0.858311
704 1 -1.1104 1.16249 35.1302 3.72858
708 2 2.2208 5.16165 36.8357 2.41417
712 1 -1.1104 3.97693 35.548 0.949081
713 2 2.2208 2.42905 34.0607 2.23659
715 1 -1.1104 3.7135 35.2396 3.57783
717 2 2.2208 2.21871 36.8223 5.03805
745 2 2.2208 5.06635 39.6988 5.11932