LAMMPS (29 Oct 2020)
OMP_NUM_THREADS environment is not set. Defaulting to 1 thread. (../comm.cpp:94)
  using 1 OpenMP thread(s) per MPI task
OMP_NUM_THREADS environment is not set. Defaulting to 1 thread. (../comm.cpp:94)
  using 1 OpenMP thread(s) per MPI task
Reading data file ...
  triclinic box = (-0.22032999 -4.2907158 -0.23322894) to (28.114330 339.01872 28.127229) with tilt (0.0000000 0.0000000 0.0000000)
  2 by 13 by 2 MPI processor grid
  reading atoms ...
  18000 atoms
  reading velocities ...
  18000 velocities
Finding 1-2 1-3 1-4 neighbors ...
  special bond factors lj:    0.0      0.0      0.0     
  special bond factors coul:  0.0      0.0      0.0     
     0 = max # of 1-2 neighbors
     0 = max # of 1-3 neighbors
     0 = max # of 1-4 neighbors
     1 = max # of special neighbors
  special bonds CPU = 0.004 seconds
  read_data CPU = 0.067 seconds
Setting atom values ...
  11880 settings made for charge
Setting atom values ...
  5940 settings made for charge
PPPM initialization ...
  using 12-bit tables for long-range coulomb (../kspace.cpp:328)
  G vector (1/distance) = 0.2980062
  grid = 40 240 40
  stencil order = 5
  estimated absolute RMS force accuracy = 0.00016497699
  estimated relative force accuracy = 1.1457018e-05
  using single precision MKL FFT
  3d grid and FFT values/proc = 15000 7600
Neighbor list info ...
  update every 1 steps, delay 0 steps, check yes
  max neighbors/atom: 2000, page size: 100000
  master list distance cutoff = 11.3
  ghost atom cutoff = 11.3
  binsize = 5.65, bins = 6 61 6
  2 neighbor lists, perpetual/occasional/extra = 2 0 0
  (1) pair coul/long, perpetual
      attributes: half, newton on
      pair build: half/bin/newton/tri
      stencil: half/bin/3d/newton/tri
      bin: standard
  (2) pair eam/alloy, perpetual, copy from (1)
      attributes: half, newton on
      pair build: copy
      stencil: none
      bin: none
Setting up Verlet run ...
  Unit style    : metal
  Current step  : 0
  Time step     : 0.001
Per MPI rank memory allocation (min/avg/max) = 8.313 | 8.339 | 8.361 Mbytes
Step Temp E_pair E_mol TotEng Press 
       0         1500   -232705.06            0   -229215.23   -2532.2055 
  100000    1494.1873   -232681.98            0   -229205.68   -2715.9391 
Loop time of 720.316 on 52 procs for 100000 steps with 18000 atoms

Performance: 11.995 ns/day, 2.001 hours/ns, 138.828 timesteps/s
99.8% CPU use with 52 MPI tasks x 1 OpenMP threads

MPI task timing breakdown:
Section |  min time  |  avg time  |  max time  |%varavg| %total
---------------------------------------------------------------
Pair    | 452.62     | 465.75     | 479.24     |  34.9 | 64.66
Bond    | 0.0068383  | 0.010056   | 0.01319    |   1.4 |  0.00
Kspace  | 146.91     | 164.41     | 180.61     |  72.4 | 22.82
Neigh   | 59.159     | 63.327     | 69.941     |  32.0 |  8.79
Comm    | 19.78      | 21.738     | 25.413     |  28.1 |  3.02
Output  | 5.264e-05  | 5.8013e-05 | 0.00027277 |   0.0 |  0.00
Modify  | 1.8746     | 3.5207     | 5.3673     |  61.1 |  0.49
Other   |            | 1.56       |            |       |  0.22

Nlocal:        346.154 ave         370 max         317 min
Histogram: 1 1 2 12 9 6 8 6 4 3
Nghost:        3958.10 ave        4064 max        3855 min
Histogram: 2 6 10 6 8 2 2 2 6 8
Neighs:        68955.5 ave       74252 max       63008 min
Histogram: 2 0 1 14 9 8 2 11 2 3

Total # of neighbors = 3585686
Ave neighs/atom = 199.20478
Ave special neighs/atom = 0.0000000
Neighbor list builds = 24989
Dangerous builds = 0
11880 atoms in group oxygen
PPPM initialization ...
  using 12-bit tables for long-range coulomb (../kspace.cpp:328)
  G vector (1/distance) = 0.2980062
  grid = 40 240 40
  stencil order = 5
  estimated absolute RMS force accuracy = 0.00016497699
  estimated relative force accuracy = 1.1457018e-05
  using single precision MKL FFT
  3d grid and FFT values/proc = 15000 7600
Setting up Verlet run ...
  Unit style    : metal
  Current step  : 0
  Time step     : 0.001
Per MPI rank memory allocation (min/avg/max) = 8.564 | 8.590 | 8.611 Mbytes
Step f_2 Temp v_Tdiff v_deltaT 
       0            0    1494.1873            0            0 
  100000     1561.584     1503.714  0.068558005    795.95207 
  200000    3019.1716    1497.9944  0.083540948    969.90264 
  300000    4465.8552    1497.7376  0.083967705    974.85726 
  400000    5912.2372     1498.335  0.085951779    997.89218 
  500000    7354.7503    1495.5862  0.086580959    1005.1969 
  600000    8803.5666    1500.8332  0.086505694    1004.3231 
  700000    10245.497    1490.4343  0.087139749    1011.6844 
  800000    11699.163    1476.6751  0.084403058    979.91167 
  900000    13139.404    1501.7629   0.08649731    1004.2257 
 1000000    14582.149    1496.3759  0.084862708    985.24816 
Loop time of 7241.56 on 52 procs for 1000000 steps with 18000 atoms

Performance: 11.931 ns/day, 2.012 hours/ns, 138.092 timesteps/s
99.8% CPU use with 52 MPI tasks x 1 OpenMP threads

MPI task timing breakdown:
Section |  min time  |  avg time  |  max time  |%varavg| %total
---------------------------------------------------------------
Pair    | 4486.8     | 4650.8     | 4827.3     | 154.1 | 64.22
Bond    | 0.074696   | 0.10222    | 0.1423     |   4.3 |  0.00
Kspace  | 1450.3     | 1684.4     | 1868.1     | 287.4 | 23.26
Neigh   | 606.37     | 645.19     | 729.85     | 111.5 |  8.91
Comm    | 195.82     | 217.13     | 258.7      |  92.1 |  3.00
Output  | 0.0011118  | 0.0011711  | 0.0023701  |   0.5 |  0.00
Modify  | 5.6916     | 6.4853     | 7.2209     |  16.3 |  0.09
Other   |            | 37.44      |            |       |  0.52

Nlocal:        346.154 ave         376 max         328 min
Histogram: 2 10 6 10 13 6 2 2 0 1
Nghost:        3962.88 ave        4100 max        3875 min
Histogram: 4 10 1 11 12 6 4 1 1 2
Neighs:        68933.5 ave       75783 max       64830 min
Histogram: 3 7 8 13 9 7 2 2 0 1

Total # of neighbors = 3584544
Ave neighs/atom = 199.14133
Ave special neighs/atom = 0.0000000
Neighbor list builds = 253502
Dangerous builds = 0
Total wall time: 2:12:42
