ITEM: TIMESTEP
30000
ITEM: NUMBER OF ATOMS
13500
ITEM: BOX BOUNDS pp pp pp
-3.9691816881080755e-01 2.7736918168811055e+01
-3.5424081894273858e+00 2.4960240818942887e+02
-3.9840035157132009e-01 2.7738400351571247e+01
ITEM: ATOMS id type q x y z
2 2 2.2208 5.26363 2.04291 5.25406
3 1 -1.1104 1.03431 -2.02767 0.858862
5 1 -1.1104 0.812612 3.63292 0.873153
11 1 -1.1104 1.00113 -2.16685 3.70327
12 1 -1.1104 1.07966 3.21126 3.99204
15 1 -1.1104 1.05046 0.804425 0.850472
19 2 2.2208 5.07548 -0.79948 2.4809
20 2 2.2208 5.35673 4.64834 2.44076
21 1 -1.1104 1.01216 0.605881 3.59405
23 1 -1.1104 3.73778 -2.29693 0.886014
25 1 -1.1104 3.5901 3.20058 0.872999
28 2 2.2208 2.40112 1.89298 2.28505
29 1 -1.1104 3.79619 -2.36127 3.75358
30 1 -1.1104 3.88029 3.31858 3.74334
31 2 2.2208 2.35035 -0.760184 5.24593
32 2 2.2208 2.35043 4.64011 5.17157
33 1 -1.1104 3.71334 0.506003 1.02942
35 1 -1.1104 3.97455 0.504635 3.93958
6628 2 2.2208 -0.533084 -3.72891 5.21358
26 1 -1.1104 3.73005 3.28382 6.83116
9 1 -1.1104 6.56078 3.45528 0.820114
22 1 -1.1104 6.53142 0.599796 3.64172
72 1 -1.1104 0.971724 6.32255 1.05608
6750 2 2.2208 -0.480422 -0.950268 8.12627
4 1 -1.1104 0.797875 -2.11514 6.49536
16 1 -1.1104 0.951218 0.585891 6.67994
6 1 -1.1104 0.971607 3.4176 6.66583
10 1 -1.1104 6.58286 3.3378 6.55198
14 1 -1.1104 6.79086 3.36742 3.81228
6749 2 2.2208 -0.553917 -3.70867 10.7985
256 2 2.2208 13.6505 7.75846 8.19974
13 1 -1.1104 6.45649 -2.2334 3.91183
17 1 -1.1104 6.4164 0.69156 0.958781
7 1 -1.1104 6.3938 -1.97689 0.881057
36 2 2.2208 10.9356 1.93542 5.45953
37 1 -1.1104 12.2415 -2.23358 1.16511
39 1 -1.1104 12.1862 3.35895 1.24242
41 1 -1.1104 12.486 -2.38172 3.8679
42 1 -1.1104 12.1653 3.3708 3.98627
43 1 -1.1104 12.2319 0.628734 1.01068
45 2 2.2208 10.7641 -0.682945 2.35242
46 2 2.2208 10.8878 4.79454 2.51484
47 1 -1.1104 12.323 0.558761 3.88242
48 1 -1.1104 9.18622 -1.95953 1.04527
50 1 -1.1104 9.27496 3.3389 0.856199
52 2 2.2208 8.04413 2.08788 2.31885
53 1 -1.1104 9.36524 -2.14444 3.86197
54 1 -1.1104 9.45103 3.37426 3.7413
55 2 2.2208 7.98535 -0.629596 5.08448
56 2 2.2208 8.17929 4.7991 5.28397
57 1 -1.1104 9.1757 0.604164 1.13671
59 1 -1.1104 9.6412 0.716341 3.87597
6601 2 2.2208 -0.466279 2.02768 5.22609
6595 2 2.2208 13.8005 -0.789966 5.22072
141 2 2.2208 13.581 10.4598 5.42031
140 2 2.2208 13.7788 7.76997 2.53519
117 1 -1.1104 12.4405 6.25332 1.23814
133 1 -1.1104 9.58764 6.08107 1.22197
258 2 2.2208 13.622 10.4182 11.0095
6626 2 2.2208 -0.476452 -0.842026 2.41434
78 1 -1.1104 1.08541 6.13918 3.78297
89 1 -1.1104 4.05138 6.02307 0.954936
93 1 -1.1104 3.82012 6.07014 3.86086
104 1 -1.1104 6.80321 6.27218 1.14116
63 2 2.2208 5.23287 7.52708 5.38948
64 2 2.2208 5.10421 13.2558 5.21056
65 1 -1.1104 1.08618 9.31103 0.994791
67 1 -1.1104 1.28301 14.7135 1.13388
70 1 -1.1104 1.09064 9.09226 3.9167
71 1 -1.1104 1.16243 14.6591 3.93468
74 1 -1.1104 1.3722 11.9463 0.824655
77 2 2.2208 5.28066 10.4136 2.58338
79 1 -1.1104 1.06249 11.8499 3.79378
80 1 -1.1104 4.03433 9.12194 1.05889
82 1 -1.1104 3.75571 14.8166 1.15672
84 2 2.2208 2.5394 7.51922 2.41252
85 2 2.2208 2.50757 13.2496 2.4791
86 1 -1.1104 3.84361 8.93556 3.67036
87 1 -1.1104 3.92421 14.8006 3.89071
88 2 2.2208 2.43084 10.4498 5.31377
91 1 -1.1104 4.00451 11.8445 1.07865
94 1 -1.1104 3.85408 11.7 3.87086
99 1 -1.1104 6.69743 8.99769 1.29853
102 1 -1.1104 6.51473 9.18435 4.19785
96 2 2.2208 2.56637 10.4469 -0.452701
66 1 -1.1104 0.873863 9.08451 6.78765
81 1 -1.1104 3.77465 8.98809 6.59395
75 1 -1.1104 1.11791 11.9488 6.65079
68 1 -1.1104 1.00628 14.5775 6.73425
92 1 -1.1104 3.76786 11.8958 6.71162
106 1 -1.1104 6.58334 11.846 6.69185
415 2 2.2208 2.25147 -0.783496 -0.540768
139 2 2.2208 13.6354 13.2263 2.406
95 2 2.2208 5.31923 13.2555 -0.312714
245 1 -1.1104 9.2828 8.90831 12.3271
107 1 -1.1104 6.55765 6.29037 4.12887
100 1 -1.1104 6.6583 14.4797 1.03547
103 1 -1.1104 6.85835 14.8466 3.75479
137 1 -1.1104 9.36827 6.25579 3.9638
105 1 -1.1104 6.74351 11.791 0.994136
108 1 -1.1104 6.61514 12.0488 3.72073
122 1 -1.1104 12.2029 6.29001 4.03758
109 2 2.2208 10.7213 7.60299 5.25729
110 2 2.2208 10.9668 13.2026 5.27238
111 1 -1.1104 12.2887 9.00443 0.970813
113 1 -1.1104 12.3992 14.6948 1.14228
115 1 -1.1104 12.1453 9.04015 3.82884
116 1 -1.1104 12.4038 14.6386 3.89909
119 1 -1.1104 12.3543 11.9004 1.29151
121 2 2.2208 10.8868 10.4795 2.5556
123 1 -1.1104 12.2204 11.848 3.91498
124 1 -1.1104 9.62622 8.86502 1.29987
126 1 -1.1104 9.49941 14.5465 1.09534
128 2 2.2208 8.02746 7.6124 2.49914
129 2 2.2208 8.05367 13.2963 2.43408
130 1 -1.1104 9.30968 8.94241 3.94062
131 1 -1.1104 9.56391 14.7247 3.84967
132 2 2.2208 8.10683 10.5599 5.46316
135 1 -1.1104 9.51965 11.6808 1.06794
138 1 -1.1104 9.53891 11.875 3.94616
444 2 2.2208 7.88801 -0.636587 -0.421023
257 2 2.2208 13.6824 13.2994 8.16369
114 1 -1.1104 12.2248 14.5791 6.73965
6597 2 2.2208 13.8002 -3.78277 2.41412
125 1 -1.1104 9.44213 9.01977 6.75428
134 1 -1.1104 9.36205 6.17882 6.71608
24 1 -1.1104 3.73656 -2.18123 6.662
34 1 -1.1104 3.72736 0.466086 6.6241
18 1 -1.1104 6.81752 0.569807 6.71943
241 2 2.2208 7.96364 13.2978 8.20971
146 2 2.2208 5.24394 1.9133 10.9511
147 1 -1.1104 0.796878 -2.17075 12.1918
148 1 -1.1104 0.674251 3.48427 12.4066
150 1 -1.1104 0.856639 -2.23705 9.46651
151 1 -1.1104 1.01471 3.33847 9.53377
154 1 -1.1104 1.04642 0.50546 12.0359
156 2 2.2208 5.30376 -0.840586 8.16978
157 2 2.2208 5.01452 4.85928 8.21167
158 1 -1.1104 0.802395 0.570913 9.3891
160 1 -1.1104 3.73189 -2.32127 12.1515
161 1 -1.1104 3.81993 3.56363 12.3389
162 2 2.2208 2.342 1.92499 8.11188
163 1 -1.1104 3.75043 -2.19936 9.42714
164 1 -1.1104 3.64056 3.41998 9.59594
165 2 2.2208 2.37363 -0.969516 10.8365
166 2 2.2208 2.4417 4.8679 10.8933
167 1 -1.1104 3.77781 0.633413 12.4224
168 1 -1.1104 3.95296 0.544061 9.61619
8 1 -1.1104 6.67993 -2.20532 6.61388
152 1 -1.1104 6.69217 -2.28294 9.47204
155 1 -1.1104 6.62179 0.564771 12.3142
149 1 -1.1104 6.6872 -2.15699 12.4385
201 1 -1.1104 3.73312 6.33365 9.59205
136 1 -1.1104 9.64128 11.8473 7.03424
49 1 -1.1104 9.49964 -2.20451 6.58316
38 1 -1.1104 12.2207 -2.15957 6.49283
40 1 -1.1104 12.1295 3.43022 6.87465
101 1 -1.1104 6.52876 14.8473 6.64671
142 2 2.2208 10.8326 13.2153 -0.377538
153 1 -1.1104 6.5963 3.321 9.50282
176 1 -1.1104 6.49611 3.27996 12.283
51 1 -1.1104 9.57108 3.29034 6.58242
44 1 -1.1104 12.3897 0.507775 6.66947
58 1 -1.1104 9.39469 0.645692 6.60838
159 1 -1.1104 6.64858 0.607277 9.50271
177 2 2.2208 10.8194 2.05189 10.9981
178 1 -1.1104 12.1832 -2.21166 12.2755
179 1 -1.1104 12.147 3.35906 12.3626
180 1 -1.1104 12.3335 -2.06962 9.40386
181 1 -1.1104 11.9828 3.44551 9.69918
182 1 -1.1104 12.3999 0.649252 12.3911
183 2 2.2208 10.8861 -0.7595 7.97801
184 2 2.2208 10.8009 4.85193 8.19073
185 1 -1.1104 12.0763 0.643045 9.6298
186 1 -1.1104 9.54845 -2.43509 12.1804
187 1 -1.1104 9.23639 3.27852 12.2491
188 2 2.2208 8.01262 2.14225 8.04285
189 1 -1.1104 9.59759 -2.32346 9.24649
190 1 -1.1104 9.35025 3.63494 9.52741
191 2 2.2208 8.19211 -0.784126 10.6029
192 2 2.2208 7.92958 4.83143 10.9359
193 1 -1.1104 9.54676 0.336985 12.0624
194 1 -1.1104 9.48363 0.788943 9.24087
225 1 -1.1104 6.64708 6.17486 9.80324
220 1 -1.1104 6.45099 6.28173 12.3281
232 1 -1.1104 9.38149 6.03071 12.5193
234 2 2.2208 8.03923 10.5899 11.064
90 1 -1.1104 3.73459 6.18557 6.91004
238 2 2.2208 10.8562 7.60428 10.9488
214 1 -1.1104 6.54532 9.23128 12.3214
73 1 -1.1104 1.17485 6.32867 6.51652
83 1 -1.1104 3.80702 14.5901 6.69129
223 1 -1.1104 0.978865 6.08092 9.4527
218 1 -1.1104 0.978513 6.39038 12.0944
203 1 -1.1104 3.75077 6.42897 12.2001
198 1 -1.1104 3.83823 9.23675 12.0928
200 1 -1.1104 3.71922 11.9921 9.49256
202 1 -1.1104 3.79866 12.0848 12.2089
204 2 2.2208 2.23047 10.5144 10.8179
205 1 -1.1104 3.68465 14.7626 9.41487
206 1 -1.1104 3.62671 9.17475 9.34344
207 2 2.2208 2.31993 13.3806 8.11856
208 2 2.2208 2.26415 7.6857 8.14995
209 1 -1.1104 3.74939 14.8424 12.12
210 2 2.2208 5.05939 7.68733 10.7973
211 2 2.2208 5.20309 13.4145 10.8459
212 1 -1.1104 0.866177 9.06821 12.2213
213 1 -1.1104 1.08438 14.7537 12.1979
215 1 -1.1104 0.842347 9.06015 9.41634
216 1 -1.1104 0.949555 14.9355 9.45611
219 1 -1.1104 1.02481 11.9776 12.2277
222 2 2.2208 5.16119 10.6063 8.09945
224 1 -1.1104 0.868144 12.0462 9.31117
76 1 -1.1104 6.43956 6.21175 7.04477
199 1 -1.1104 6.67216 11.8448 9.51683
233 1 -1.1104 12.2795 14.5521 12.2631
118 1 -1.1104 12.0255 6.43814 6.79833
247 1 -1.1104 12.2149 6.21249 12.292
246 1 -1.1104 12.212 11.9038 9.55416
229 1 -1.1104 9.22994 12.2171 9.79251
221 1 -1.1104 6.60455 12.0564 12.4687
244 1 -1.1104 12.2228 11.8442 12.359
127 1 -1.1104 9.48743 14.7707 6.6306
236 1 -1.1104 12.3076 8.90879 12.3061
240 1 -1.1104 9.75535 9.16714 9.53447
120 1 -1.1104 12.499 11.8908 6.76789
235 1 -1.1104 9.37309 14.8402 9.4431
231 1 -1.1104 9.55071 11.745 12.4997
250 1 -1.1104 12.2519 6.27913 9.6127
237 2 2.2208 10.857 13.2229 10.9911
249 1 -1.1104 12.3293 9.1755 9.50401
230 1 -1.1104 9.54676 6.31619 9.55127
242 2 2.2208 7.93687 7.6879 8.27956
252 1 -1.1104 6.68223 14.7912 9.52663
217 1 -1.1104 6.62283 9.19622 9.62204
251 1 -1.1104 6.73994 14.6646 12.253
248 1 -1.1104 12.2388 14.599 9.41193
243 1 -1.1104 9.5354 14.7275 12.2086
239 2 2.2208 10.9877 10.3442 8.12923
69 1 -1.1104 6.42906 8.94639 7.01675
112 1 -1.1104 12.3638 9.11181 6.76482
170 2 2.2208 5.3218 -0.98295 13.7275
435 2 2.2208 10.808 1.97756 -0.262335
438 2 2.2208 13.7122 -0.873774 -0.363889
411 2 2.2208 5.16893 1.93077 -0.369737
436 2 2.2208 8.03471 4.7804 -0.518976
145 2 2.2208 13.6867 10.5489 -0.426611
387 2 2.2208 2.31709 4.72733 -0.596199
259 2 2.2208 13.7734 13.2315 13.8417
260 2 2.2208 5.25361 1.9628 16.5324
261 1 -1.1104 0.893628 -2.20115 17.8868
262 1 -1.1104 1.17691 3.44162 17.8002
263 1 -1.1104 1.03694 -2.14444 15.0938
265 1 -1.1104 1.06206 3.42494 14.9704
268 1 -1.1104 1.07793 0.553411 17.7499
269 2 2.2208 5.19502 -0.848096 19.2374
270 2 2.2208 5.20272 4.84486 19.4076
271 1 -1.1104 0.989838 0.529198 14.8872
273 1 -1.1104 3.73124 -2.1254 17.8737
274 1 -1.1104 3.73101 3.4567 17.8739
276 2 2.2208 2.52935 1.94546 19.2108
277 1 -1.1104 3.85452 -2.29614 15.0619
279 1 -1.1104 3.84435 3.51781 15.1303
281 2 2.2208 2.53275 -0.824205 16.3314
282 2 2.2208 2.35671 4.8369 16.3484
283 1 -1.1104 3.93592 0.585362 17.9643
284 1 -1.1104 3.72315 0.711101 15.1093
510 1 -1.1104 6.71892 11.9498 23.5105
266 1 -1.1104 0.858139 3.4647 20.6502
169 2 2.2208 2.35931 1.93531 13.5956
227 2 2.2208 2.36713 7.63653 13.7546
98 2 2.2208 -0.451718 7.84498 27.7564
290 1 -1.1104 6.73885 -2.2027 15.0901
293 1 -1.1104 6.5275 0.595197 17.8143
288 1 -1.1104 6.67083 -2.29216 17.9069
292 1 -1.1104 6.63801 3.3836 15.2433
335 1 -1.1104 0.953709 6.14551 15.0918
264 1 -1.1104 0.991036 -2.38712 20.726
278 1 -1.1104 3.98313 -2.2365 20.499
272 1 -1.1104 0.900013 0.557813 20.4744
295 1 -1.1104 6.46244 0.738972 20.67
291 1 -1.1104 6.75486 -2.14362 20.858
502 1 -1.1104 9.59875 9.08337 23.5185
294 1 -1.1104 6.67571 0.320511 15.1154
480 1 -1.1104 9.50227 6.15283 23.7041
488 1 -1.1104 12.2614 6.06017 23.5436
513 2 2.2208 13.7325 10.5583 22.1127
289 1 -1.1104 6.65123 3.41579 18.0739
296 2 2.2208 10.9581 2.0326 16.5624
297 1 -1.1104 12.233 -2.13819 17.905
298 1 -1.1104 12.1489 3.31919 18.0674
299 1 -1.1104 12.1376 -2.23301 15.0389
301 1 -1.1104 12.4622 3.28529 15.2647
303 1 -1.1104 12.2232 0.590199 17.9283
304 2 2.2208 10.8085 -0.812266 19.3406
305 2 2.2208 10.6799 4.70027 19.3486
306 1 -1.1104 12.4336 0.577361 15.1182
308 1 -1.1104 9.57165 -2.09611 17.9308
309 1 -1.1104 9.48094 3.42309 17.9875
310 2 2.2208 7.89218 1.98517 19.2981
311 1 -1.1104 9.5719 -2.22203 15.1231
313 1 -1.1104 9.39235 3.36512 15.2697
315 2 2.2208 8.08553 -0.878992 16.5256
316 2 2.2208 8.12576 4.87031 16.5175
317 1 -1.1104 9.49718 0.599796 17.8597
318 1 -1.1104 9.39121 0.583245 14.9879
307 1 -1.1104 12.1451 0.575313 20.8447
6997 2 2.2208 13.5733 -0.882339 22.1411
7089 2 2.2208 -0.320305 13.2575 22.0391
378 1 -1.1104 9.58419 6.27542 18.0108
6957 2 2.2208 -0.459105 13.2592 16.3319
228 2 2.2208 2.40289 13.4916 13.6814
500 1 -1.1104 12.3905 14.597 26.5513
253 2 2.2208 8.12864 13.3781 13.6898
384 2 2.2208 13.71 13.209 19.5375
226 2 2.2208 5.14831 10.5414 13.5352
350 1 -1.1104 3.66281 6.42346 15.1624
476 2 2.2208 -0.566599 7.82211 22.114
331 1 -1.1104 0.851011 6.36011 17.7074
348 1 -1.1104 3.76037 6.39383 18.0678
323 2 2.2208 5.26788 7.68653 16.488
324 2 2.2208 5.11176 13.3163 16.4637
325 1 -1.1104 1.01939 9.08461 17.8856
326 1 -1.1104 0.971942 14.6427 17.8751
328 1 -1.1104 0.913 8.96805 14.9844
329 1 -1.1104 0.825966 14.8178 15.0284
332 1 -1.1104 1.00634 11.8701 17.7311
334 2 2.2208 5.30238 10.4351 19.1486
337 1 -1.1104 1.00567 11.9216 15.0231
340 1 -1.1104 4.01059 9.22878 17.5607
341 1 -1.1104 3.70117 14.9055 17.9078
342 2 2.2208 2.40479 7.73352 19.3204
343 2 2.2208 2.42791 13.2931 19.2945
344 1 -1.1104 3.80921 9.15111 14.8664
345 1 -1.1104 3.88798 14.8613 15.1992
347 2 2.2208 2.4593 10.5167 16.4182
349 1 -1.1104 3.75706 11.966 17.7654
352 1 -1.1104 3.86493 11.8171 14.8838
354 1 -1.1104 6.66504 14.7289 15.1456
449 1 -1.1104 1.11155 9.05415 20.8402
458 1 -1.1104 3.90677 9.1379 20.492
144 2 2.2208 11.1064 7.64079 27.8879
355 1 -1.1104 6.69739 14.6281 20.7874
353 1 -1.1104 6.27416 14.7366 18.0525
333 1 -1.1104 6.79356 6.26286 17.9506
356 1 -1.1104 6.671 11.8456 17.9921
367 1 -1.1104 12.2827 6.01989 15.0563
338 1 -1.1104 6.62628 6.09031 14.9925
364 1 -1.1104 12.2038 6.27553 17.8462
357 1 -1.1104 6.88711 11.9583 15.2413
327 1 -1.1104 6.62558 9.0143 17.8799
330 1 -1.1104 6.78384 9.0655 15.1551
380 1 -1.1104 9.39259 6.20667 15.1657
358 2 2.2208 10.7619 7.67558 16.5782
359 2 2.2208 11.0158 13.1653 16.731
360 1 -1.1104 12.1425 8.93349 18.1194
361 1 -1.1104 12.3454 14.7872 17.9858
362 1 -1.1104 12.4629 8.90857 15.2666
363 1 -1.1104 12.4666 14.7763 15.2622
365 1 -1.1104 12.3781 11.9372 17.9675
366 2 2.2208 10.8109 10.4133 19.3483
369 1 -1.1104 12.5025 11.8958 15.3049
370 1 -1.1104 9.42219 9.09695 17.7862
371 1 -1.1104 9.38032 14.6262 17.8936
372 2 2.2208 7.93942 7.68313 19.4003
373 2 2.2208 7.97736 13.3031 19.3659
374 1 -1.1104 9.69342 9.114 15.1313
375 1 -1.1104 9.61112 14.7058 15.1702
377 2 2.2208 8.08306 10.5483 16.5183
379 1 -1.1104 9.48449 11.815 18.2015
382 1 -1.1104 9.60679 12.0539 15.1295
255 2 2.2208 7.97468 7.60256 13.6776
477 1 -1.1104 9.33873 11.9182 26.3664
485 2 2.2208 10.9934 10.5027 25.0326
6941 2 2.2208 -0.433343 7.7345 16.4781
498 2 2.2208 8.06325 13.2392 24.9616
280 1 -1.1104 3.80323 3.37302 20.8228
285 1 -1.1104 3.62523 0.428359 20.5749
388 2 2.2208 5.22992 2.09458 22.0872
389 1 -1.1104 0.987048 -2.27617 23.3832
390 1 -1.1104 0.96845 3.44446 23.4196
392 1 -1.1104 0.927647 -2.18979 26.2573
393 1 -1.1104 0.766087 3.37684 26.1466
396 1 -1.1104 1.00999 0.524854 23.3258
398 2 2.2208 5.1871 -0.811808 24.7548
399 2 2.2208 5.06345 4.73498 24.7189
400 1 -1.1104 0.918383 0.637769 26.192
402 1 -1.1104 3.6521 -2.15568 23.4653
403 1 -1.1104 3.59562 3.26185 23.4334
404 2 2.2208 2.34992 1.961 24.8315
405 1 -1.1104 3.73566 -2.23528 26.163
406 1 -1.1104 3.7353 3.45193 26.2051
407 2 2.2208 2.25028 -0.95016 22.0102
408 2 2.2208 2.29227 4.96196 22.0027
409 1 -1.1104 3.78635 0.622156 23.5449
410 1 -1.1104 3.5855 0.897428 26.5192
394 1 -1.1104 6.60675 -2.2381 26.2756
416 1 -1.1104 6.57253 -2.13563 23.6123
391 1 -1.1104 6.53003 3.49468 23.4961
395 1 -1.1104 6.60178 3.3693 26.3268
471 1 -1.1104 6.52061 6.09762 23.5445
336 1 -1.1104 0.932248 6.38339 20.6594
453 1 -1.1104 3.84539 6.21431 23.5927
474 1 -1.1104 1.08909 6.0117 26.2863
339 1 -1.1104 6.6012 6.26009 20.6251
489 1 -1.1104 9.50411 9.27653 26.4092
383 2 2.2208 13.7792 10.5207 16.606
499 2 2.2208 8.12905 7.60087 25.0219
495 1 -1.1104 6.73708 6.31933 26.508
501 1 -1.1104 9.4745 14.7124 23.4767
267 1 -1.1104 6.58275 3.53925 20.7385
506 1 -1.1104 12.284 11.7447 26.5146
302 1 -1.1104 12.0906 3.33488 20.9265
314 1 -1.1104 9.34019 3.40551 20.8222
319 1 -1.1104 9.17824 0.756912 20.8022
312 1 -1.1104 9.5711 -2.25792 20.7695
401 1 -1.1104 6.59156 0.499869 26.19
397 1 -1.1104 6.49562 0.747262 23.5328
300 1 -1.1104 12.2774 -2.15228 20.7272
417 2 2.2208 10.6352 1.75348 22.1468
418 1 -1.1104 12.2821 -2.13463 23.7106
419 1 -1.1104 12.1565 3.19203 23.6698
420 1 -1.1104 12.1095 -2.28883 26.3522
421 1 -1.1104 12.0358 3.63311 26.6078
422 1 -1.1104 12.1825 0.554704 23.664
423 2 2.2208 10.8318 -0.798881 25.0042
424 2 2.2208 10.9172 4.82947 25.0223
425 1 -1.1104 12.2347 0.83222 26.4788
426 1 -1.1104 9.33946 -2.28162 23.5376
427 1 -1.1104 9.29921 3.27134 23.4854
428 2 2.2208 7.95734 2.04241 24.8606
429 1 -1.1104 9.39199 -2.10386 26.4298
430 1 -1.1104 9.41131 3.44884 26.2294
431 2 2.2208 7.98575 -0.821225 22.3197
432 2 2.2208 8.06786 4.83166 22.1499
433 1 -1.1104 9.24221 0.527667 23.6012
434 1 -1.1104 9.47782 0.514092 26.3798
483 1 -1.1104 12.3311 6.26764 26.5269
455 1 -1.1104 0.990208 11.8544 20.5595
459 1 -1.1104 3.90843 12.0203 20.7635
346 1 -1.1104 3.78166 14.8316 20.713
351 1 -1.1104 3.84939 6.19382 20.7663
450 1 -1.1104 1.07382 14.7374 20.7072
469 1 -1.1104 0.997808 6.37289 23.3549
448 1 -1.1104 3.89422 6.12059 26.2664
445 1 -1.1104 3.86283 9.04749 26.3469
446 2 2.2208 2.42038 13.3787 24.9641
447 1 -1.1104 3.85958 11.8832 26.3814
452 1 -1.1104 3.85003 12.1211 23.5416
454 2 2.2208 2.52659 7.57386 24.9724
456 1 -1.1104 3.95201 14.8104 23.8178
457 1 -1.1104 3.93241 9.21138 23.4748
460 1 -1.1104 1.08013 11.6958 26.1758
461 2 2.2208 2.57025 10.5621 22.0555
462 2 2.2208 5.27955 7.64038 22.1471
463 2 2.2208 5.33146 13.351 22.1592
464 1 -1.1104 1.20543 9.02668 23.496
465 1 -1.1104 1.15151 14.8408 23.5286
467 1 -1.1104 1.2181 8.98609 26.3402
468 1 -1.1104 1.08898 14.6332 26.2497
470 1 -1.1104 1.09037 12.1198 23.5404
472 1 -1.1104 3.90342 14.7549 26.6676
473 2 2.2208 5.38197 10.5112 25.0289
466 1 -1.1104 6.69608 9.03912 23.5734
509 1 -1.1104 6.62235 14.7005 26.4023
440 2 2.2208 13.65 1.94192 24.8795
451 1 -1.1104 6.57425 9.04636 20.863
479 1 -1.1104 9.50979 11.948 23.3763
484 2 2.2208 10.8812 13.3415 22.1072
481 2 2.2208 8.00491 10.3215 22.0441
487 1 -1.1104 12.3561 12.0084 23.7854
503 1 -1.1104 12.5062 8.98241 26.3426
490 1 -1.1104 6.69342 11.7216 20.6703
496 1 -1.1104 9.3641 8.87381 20.7069
505 1 -1.1104 12.245 9.02119 23.5864
497 1 -1.1104 9.50132 11.7016 20.7628
507 1 -1.1104 6.75693 14.7625 23.5619
493 1 -1.1104 6.71317 11.8685 26.4223
508 1 -1.1104 6.7088 8.99494 26.4869
381 1 -1.1104 9.3629 6.16128 20.7728
494 1 -1.1104 12.3103 11.8692 20.921
491 1 -1.1104 12.2953 9.03779 20.9627
492 1 -1.1104 12.3439 14.68 20.892
376 1 -1.1104 9.45013 14.6641 20.4448
368 1 -1.1104 12.2675 6.15286 20.8157
482 1 -1.1104 9.63251 14.6933 26.5426
478 1 -1.1104 9.42641 6.30605 26.4775
504 1 -1.1104 12.4539 14.7986 23.6518
486 2 2.2208 10.914 7.56317 22.1936
511 2 2.2208 13.7552 7.48082 24.9611
6874 2 2.2208 13.6138 2.14126 19.4117
6904 2 2.2208 -0.470021 -0.95107 19.1383
475 2 2.2208 -0.231853 10.4243 25.0042
6841 2 2.2208 13.7601 4.86479 16.5711
175 2 2.2208 10.8319 -0.912825 13.6814
512 2 2.2208 13.794 13.3087 25.1453
6772 2 2.2208 -0.461919 -0.660229 13.5645
6811 2 2.2208 13.7868 7.56032 13.8154
97 2 2.2208 5.35303 7.58617 27.8811
254 2 2.2208 10.9291 10.4006 13.8116
195 2 2.2208 10.9134 4.70885 13.6827
143 2 2.2208 8.12742 10.4926 27.9343
174 2 2.2208 7.99319 1.90129 13.7848
6712 2 2.2208 -0.265488 13.4197 27.7931
171 2 2.2208 5.21789 4.81268 13.7823
514 2 2.2208 5.38225 18.9622 5.34407
515 2 2.2208 5.24957 24.6332 5.28856
516 1 -1.1104 1.00466 20.5127 0.917232
518 1 -1.1104 1.09047 20.3024 3.84211
519 1 -1.1104 1.14212 17.6289 1.0416
521 1 -1.1104 1.03462 23.2988 1.15117
522 2 2.2208 5.29888 16.1054 2.28809
523 2 2.2208 5.26754 21.7282 2.59339
524 1 -1.1104 1.15514 17.4774 3.89757
525 1 -1.1104 1.0394 23.1209 3.9133
526 1 -1.1104 3.98331 20.3503 0.954914
528 2 2.2208 2.55955 18.879 2.46767
529 2 2.2208 2.42073 24.5253 2.618
530 1 -1.1104 3.88933 20.3318 3.85069
531 2 2.2208 2.47083 16.0483 5.1666
532 2 2.2208 2.31715 21.6563 5.32154
533 1 -1.1104 3.92099 17.4569 1.00492
535 1 -1.1104 3.96848 23.0294 1.19046
536 1 -1.1104 3.96203 17.6005 3.62898
537 1 -1.1104 3.83172 23.3409 3.91052
541 1 -1.1104 6.638 17.435 1.02179
729 1 -1.1104 12.3471 26.06 12.2962
545 1 -1.1104 6.72397 23.0576 3.9351
568 2 2.2208 7.99125 15.9456 -0.333306
520 1 -1.1104 1.07517 17.3737 6.63659
7280 2 2.2208 -0.335495 24.5907 10.8829
902 2 2.2208 2.47509 21.7379 -0.345179
7282 2 2.2208 -0.527034 21.8084 7.97178
540 1 -1.1104 6.64828 20.1888 3.89997
543 1 -1.1104 6.74934 23.1668 1.11471
725 1 -1.1104 12.3922 26.1361 9.40203
544 1 -1.1104 6.64885 17.5024 3.9226
539 1 -1.1104 6.71885 20.3771 1.05476
546 2 2.2208 10.7993 18.848 5.29026
547 2 2.2208 10.8499 24.4984 5.24752
548 1 -1.1104 12.3105 20.4967 1.11767
549 1 -1.1104 12.4003 20.2351 3.99764
550 1 -1.1104 12.14 17.615 0.930479
552 1 -1.1104 12.1144 23.2035 0.972472
553 2 2.2208 10.8513 16.0297 2.50055
554 2 2.2208 10.7897 21.7573 2.50426
555 1 -1.1104 12.2965 17.4836 3.60394
556 1 -1.1104 12.3192 22.955 4.00113
557 1 -1.1104 9.48015 20.1565 1.23475
558 2 2.2208 7.94171 18.8433 2.38694
559 2 2.2208 8.01175 24.5327 2.55467
560 1 -1.1104 9.3618 20.492 4.08389
562 2 2.2208 8.00319 21.7956 5.35941
563 1 -1.1104 9.41703 17.4543 1.09038
565 1 -1.1104 9.53116 22.963 0.9677
566 1 -1.1104 9.53345 17.5115 3.76337
567 1 -1.1104 9.32257 23.1959 3.9349
561 2 2.2208 8.01623 16.153 5.19727
658 1 -1.1104 9.54113 23.1464 6.60665
654 1 -1.1104 12.1974 20.3707 6.74384
7281 2 2.2208 -0.59324 16.3067 8.15861
551 1 -1.1104 12.2776 17.5267 6.57713
7160 2 2.2208 -0.425335 21.828 2.47935
955 2 2.2208 5.23953 29.9592 -0.344635
591 2 2.2208 2.41461 33.0751 -0.367926
569 2 2.2208 5.11105 30.2313 5.18006
570 1 -1.1104 1.07868 26.0541 1.2669
571 1 -1.1104 1.01195 31.7161 0.941955
572 1 -1.1104 1.0758 25.9527 3.965
573 1 -1.1104 0.996496 31.6254 3.87276
574 1 -1.1104 1.09269 28.8984 0.971551
575 1 -1.1104 1.2066 34.4564 1.08944
576 2 2.2208 5.17979 27.3575 2.52753
577 2 2.2208 5.19153 32.9206 2.35113
578 1 -1.1104 0.995346 28.7634 3.83312
579 1 -1.1104 0.97767 34.4018 3.7944
580 1 -1.1104 3.83245 26.0151 1.01167
581 1 -1.1104 3.98243 31.4777 1.02162
582 2 2.2208 2.30847 30.1989 2.42755
583 1 -1.1104 3.79642 26.0962 3.91252
584 1 -1.1104 3.67912 31.846 3.61211
585 2 2.2208 2.39721 27.2883 5.37754
586 2 2.2208 2.46405 33.0698 5.33529
587 1 -1.1104 3.82532 28.6076 1.2528
588 1 -1.1104 4.06607 34.3121 0.824424
589 1 -1.1104 3.70868 28.784 4.12434
590 1 -1.1104 3.89264 34.6325 3.73717
691 1 -1.1104 0.958798 31.722 6.65634
954 2 2.2208 2.44677 27.3759 -0.353421
600 1 -1.1104 6.39352 28.8211 3.85025
698 1 -1.1104 3.93035 28.745 6.87376
720 1 -1.1104 9.47073 34.5691 9.56272
750 2 2.2208 10.8189 33.201 8.10636
594 1 -1.1104 6.56105 25.8784 1.26868
599 1 -1.1104 6.73986 34.3215 1.15794
601 1 -1.1104 6.7068 34.3322 3.869
597 1 -1.1104 6.62205 31.593 3.94764
596 1 -1.1104 6.74819 25.8404 4.02902
598 1 -1.1104 6.54412 28.669 0.893701
595 1 -1.1104 6.74944 31.4488 1.0324
602 2 2.2208 10.7839 30.2213 5.39675
603 1 -1.1104 12.4224 25.8516 0.992124
604 1 -1.1104 12.2724 31.5643 1.13965
605 1 -1.1104 12.4093 25.8036 3.70615
606 1 -1.1104 12.3887 31.5173 3.85082
607 1 -1.1104 12.3995 28.7668 1.19137
608 1 -1.1104 12.2964 34.5304 1.11128
609 2 2.2208 11.0645 27.3896 2.45887
610 2 2.2208 10.7357 32.9441 2.45978
611 1 -1.1104 12.2135 28.7548 4.07556
612 1 -1.1104 12.3342 34.5124 3.90976
613 1 -1.1104 9.61308 25.9613 1.02913
614 1 -1.1104 9.44156 31.4964 1.0216
615 2 2.2208 7.99416 30.1513 2.42441
616 1 -1.1104 9.65833 25.6996 3.77026
617 1 -1.1104 9.43807 31.5936 3.81833
618 2 2.2208 7.83123 27.5024 5.28453
619 2 2.2208 8.0492 32.9617 5.13439
620 1 -1.1104 9.57416 28.6232 1.26584
621 1 -1.1104 9.50811 34.3586 0.88734
622 1 -1.1104 9.27507 28.8893 3.89468
623 1 -1.1104 9.5119 34.4448 3.78449
735 1 -1.1104 6.68163 28.9362 6.59539
738 1 -1.1104 9.51724 31.5803 12.3512
734 1 -1.1104 6.57459 31.9091 6.77659
7327 2 2.2208 13.7468 27.4656 10.8814
728 1 -1.1104 12.4202 31.6839 12.2989
7159 2 2.2208 -0.399806 24.6432 5.37131
627 1 -1.1104 1.03003 23.1845 6.66373
517 1 -1.1104 0.751856 20.1379 6.72324
538 2 2.2208 2.43777 16.1684 -0.3559
652 1 -1.1104 6.69896 20.5492 6.64523
925 2 2.2208 10.8412 18.9169 -0.264831
904 2 2.2208 5.21735 18.9783 -0.251927
534 1 -1.1104 4.0362 17.3867 6.53847
635 2 2.2208 5.24499 16.0974 8.19151
628 1 -1.1104 3.79539 23.2801 6.68525
527 1 -1.1104 3.57908 20.4788 6.80191
643 2 2.2208 2.32049 16.1421 10.8311
629 2 2.2208 5.39125 19.108 10.9413
630 2 2.2208 5.18987 24.5855 10.9488
631 1 -1.1104 1.13862 20.2534 12.2054
632 1 -1.1104 1.16604 20.5294 9.40262
633 1 -1.1104 1.09262 17.5366 12.2837
634 1 -1.1104 1.02187 23.2515 12.4497
636 2 2.2208 5.25621 21.7966 8.2258
637 1 -1.1104 1.03802 17.7215 9.55467
638 1 -1.1104 0.885691 23.1751 9.63513
639 1 -1.1104 3.88061 20.4481 12.1117
640 2 2.2208 2.44714 18.9597 8.14601
641 2 2.2208 2.28921 24.5718 8.24826
642 1 -1.1104 3.99717 20.3568 9.50343
644 2 2.2208 2.31533 21.7242 10.8395
645 1 -1.1104 3.88368 17.7135 12.3224
646 1 -1.1104 3.72735 23.1785 12.2945
647 1 -1.1104 3.96713 17.5912 9.56996
648 1 -1.1104 3.79402 23.2298 9.50249
660 1 -1.1104 6.73847 20.393 9.38379
737 2 2.2208 7.98425 30.3809 8.11297
542 1 -1.1104 6.79416 17.7402 6.6331
663 1 -1.1104 6.63972 17.4886 9.48526
664 1 -1.1104 6.83091 23.2409 9.68644
661 1 -1.1104 6.72947 17.6131 12.31
653 1 -1.1104 6.67602 23.3189 6.80856
655 1 -1.1104 12.4516 23.3032 6.83892
656 1 -1.1104 9.55278 20.3072 6.80763
564 1 -1.1104 9.61547 17.5339 6.51488
662 1 -1.1104 6.54564 23.3952 12.5117
659 1 -1.1104 6.63886 20.6489 12.3259
679 2 2.2208 8.16122 16.0844 10.7648
665 2 2.2208 10.8119 18.8457 10.7489
666 2 2.2208 10.8902 24.622 10.8875
667 1 -1.1104 12.2724 20.4081 12.4249
668 1 -1.1104 12.1354 20.2902 9.73938
669 1 -1.1104 12.3548 17.5009 12.3251
670 1 -1.1104 12.0968 23.3468 12.5031
671 2 2.2208 10.9185 16.0324 8.04612
672 2 2.2208 10.9043 21.8615 8.02117
673 1 -1.1104 12.3564 17.4331 9.50278
674 1 -1.1104 12.253 23.0888 9.54847
675 1 -1.1104 9.28997 20.2758 12.2197
676 2 2.2208 8.07755 18.9734 8.11498
677 2 2.2208 8.12202 24.5807 8.08827
678 1 -1.1104 9.476 20.3779 9.45684
680 2 2.2208 8.03114 21.8297 10.9059
681 1 -1.1104 9.41431 17.4694 12.2849
682 1 -1.1104 9.54632 23.0777 12.0208
683 1 -1.1104 9.48048 17.5342 9.39546
684 1 -1.1104 9.5314 23.1638 9.29084
657 2 2.2208 13.7854 16.1196 10.9854
7556 2 2.2208 -0.306421 18.9209 -0.47566
7255 2 2.2208 13.818 24.6911 7.92694
692 1 -1.1104 1.01187 28.8833 6.68163
693 1 -1.1104 0.918049 34.3846 6.59413
694 1 -1.1104 3.67083 26.0139 6.68479
688 2 2.2208 -0.326115 27.4694 8.09459
7196 2 2.2208 13.7191 27.4536 5.16125
690 1 -1.1104 1.03476 25.9821 6.86345
695 1 -1.1104 3.71706 31.4682 6.41412
699 1 -1.1104 3.84374 34.3032 6.56613
689 1 -1.1104 3.7736 34.4606 9.38248
696 1 -1.1104 3.93701 28.7765 9.58166
697 1 -1.1104 3.79388 34.382 12.2662
700 1 -1.1104 3.88756 28.9293 12.3752
701 2 2.2208 2.51765 32.9647 10.8058
702 2 2.2208 2.34149 27.4892 10.9477
703 2 2.2208 5.2909 30.1054 10.8776
704 1 -1.1104 1.14537 25.843 12.3213
705 1 -1.1104 1.11923 31.456 12.2663
706 1 -1.1104 1.23223 26.0361 9.51178
707 1 -1.1104 1.22871 31.6426 9.5311
708 1 -1.1104 0.899177 28.705 12.3003
709 1 -1.1104 0.942029 34.2709 12.1894
710 2 2.2208 5.21109 27.4452 8.14571
711 2 2.2208 5.20617 33.0449 8.1572
712 1 -1.1104 1.00556 28.8193 9.64322
713 1 -1.1104 1.14207 34.412 9.52304
714 1 -1.1104 4.16607 26.0999 12.2557
715 1 -1.1104 3.78819 31.5665 12.148
716 2 2.2208 2.41061 30.1886 8.02425
717 1 -1.1104 3.77975 26.0463 9.52269
718 1 -1.1104 3.88996 31.5069 9.27053
760 1 -1.1104 6.79548 28.797 9.51721
754 1 -1.1104 6.70947 26.0848 9.69226
752 1 -1.1104 6.91953 26.0498 12.3429
7619 2 2.2208 13.8003 27.5282 -0.306937
7118 2 2.2208 13.7275 16.106 5.22226
7162 2 2.2208 -0.533633 18.7209 5.31907
723 1 -1.1104 9.50611 28.7071 12.2083
721 1 -1.1104 9.51219 28.9311 9.39817
740 1 -1.1104 12.1085 31.6374 6.88157
745 1 -1.1104 9.42255 28.7667 6.64587
742 1 -1.1104 12.247 34.4028 6.80642
743 1 -1.1104 9.49936 25.9241 6.65967
746 1 -1.1104 9.47007 34.399 6.56372
731 1 -1.1104 9.46442 31.8053 9.5879
739 1 -1.1104 12.2146 26.0357 6.5611
741 1 -1.1104 12.377 28.7486 6.65933
722 1 -1.1104 9.37215 34.3157 12.4055
730 2 2.2208 10.7996 30.262 10.8036
726 2 2.2208 7.96162 33.0457 10.948
758 1 -1.1104 12.285 34.6369 12.3052
748 1 -1.1104 12.0938 34.5093 9.55835
756 1 -1.1104 6.54467 28.8726 12.2552
753 1 -1.1104 6.69771 31.5764 12.3857
732 1 -1.1104 9.60023 26.1047 9.53809
727 2 2.2208 8.19519 27.3617 10.8836
744 1 -1.1104 9.42216 31.7246 6.55918
733 1 -1.1104 6.55069 26.0188 6.67782
757 1 -1.1104 6.59891 34.3746 12.3944
761 1 -1.1104 6.69519 34.4572 9.61374
736 1 -1.1104 6.66458 34.6228 6.72905
755 1 -1.1104 6.60126 31.6018 9.52733
724 1 -1.1104 12.1837 31.682 9.492
747 1 -1.1104 9.61679 26.0058 12.4959
749 1 -1.1104 12.0978 28.9262 9.5514
759 1 -1.1104 12.3545 28.7563 12.383
751 2 2.2208 10.8615 27.3896 8.09792
7113 2 2.2208 13.7356 24.4636 2.48961
625 2 2.2208 7.92141 33.0427 -0.32962
686 2 2.2208 10.9603 16.0087 13.8036
857 2 2.2208 5.22739 33.0753 13.8088
685 2 2.2208 8.14519 19.1278 13.7222
927 2 2.2208 8.03192 21.5979 -0.334713
762 2 2.2208 5.21974 18.8779 16.5164
763 2 2.2208 5.36294 24.4669 16.3931
764 1 -1.1104 1.04319 20.2825 18.0401
765 1 -1.1104 1.09305 20.3693 15.0653
767 1 -1.1104 1.0353 17.474 18.0039
768 1 -1.1104 1.21645 23.0075 17.8628
770 2 2.2208 5.12089 21.9311 19.3323
771 1 -1.1104 0.975107 17.6405 15.1059
773 1 -1.1104 0.971586 23.2484 15.2808
775 1 -1.1104 3.94185 20.531 17.7539
776 2 2.2208 2.55689 19.0815 19.4437
777 2 2.2208 2.3278 24.6663 19.2473
778 1 -1.1104 3.94259 20.3825 15.1357
781 2 2.2208 2.46325 21.7149 16.5325
782 1 -1.1104 3.79218 17.6878 17.9124
783 1 -1.1104 3.88773 23.2532 17.7863
784 1 -1.1104 3.76056 17.5736 14.9615
786 1 -1.1104 3.93314 23.1869 15.1379
769 2 2.2208 5.07996 16.2579 19.3576
780 2 2.2208 2.40204 16.29 16.5098
790 1 -1.1104 6.72089 20.4186 15.1437
796 1 -1.1104 6.67456 23.1419 15.1893
859 2 2.2208 5.2063 27.3191 13.7454
779 1 -1.1104 3.75887 20.6368 20.6768
787 1 -1.1104 3.77087 23.3993 20.8183