ITEM: TIMESTEP
80000
ITEM: NUMBER OF ATOMS
13500
ITEM: BOX BOUNDS pp pp pp
-3.9301318620318543e-01 2.7733013186203674e+01
-3.5898576391077590e+00 2.4964985763911255e+02
-3.9083886369940024e-01 2.7730838863699173e+01
ITEM: ATOMS id type q x y z
2 2 2.2208 5.02131 2.12813 5.35894
3 1 -1.1104 1.04373 -2.10492 0.973707
5 1 -1.1104 0.878061 3.49001 1.10789
11 1 -1.1104 0.662408 -2.34165 3.616
12 1 -1.1104 0.783918 3.26734 4.0851
15 1 -1.1104 0.78772 0.800403 1.11131
19 2 2.2208 5.2101 -0.671573 2.35285
20 2 2.2208 5.1468 4.76212 2.40088
21 1 -1.1104 0.827032 0.620428 3.72587
23 1 -1.1104 3.94637 -2.23275 0.994185
25 1 -1.1104 3.67318 3.3891 1.12105
28 2 2.2208 2.30845 1.93456 2.3484
29 1 -1.1104 3.3475 -1.93976 3.61442
30 1 -1.1104 3.67582 3.39423 3.95984
31 2 2.2208 2.23065 -0.622986 5.15499
32 2 2.2208 2.23699 4.77027 5.25548
33 1 -1.1104 3.83274 0.638231 0.984872
35 1 -1.1104 3.71224 0.82762 3.96802
16 1 -1.1104 0.847584 0.70767 6.43689
9 1 -1.1104 6.59936 3.30276 1.15154
7 1 -1.1104 6.60744 -2.38688 0.922964
6594 2 2.2208 13.5964 4.86384 5.21208
34 1 -1.1104 3.66906 0.668297 6.6688
24 1 -1.1104 3.85439 -2.06853 6.4877
10 1 -1.1104 6.648 3.29856 6.49269
6836 2 2.2208 -0.391189 10.5825 8.08303
6749 2 2.2208 -0.397711 -3.62054 10.79
239 2 2.2208 10.7597 10.4385 8.04152
238 2 2.2208 10.85 7.70788 10.9207
143 2 2.2208 8.00872 10.369 -0.32983
22 1 -1.1104 6.65618 0.67036 3.81553
14 1 -1.1104 6.50464 3.41428 3.86543
17 1 -1.1104 6.5437 0.65681 0.977141
13 1 -1.1104 6.33399 -2.25193 3.79862
36 2 2.2208 10.7122 2.22805 5.14596
37 1 -1.1104 12.2462 -2.23378 0.953726
39 1 -1.1104 12.139 3.52541 0.989834
41 1 -1.1104 12.2026 -2.24963 3.6964
42 1 -1.1104 12.2089 3.50163 3.96039
43 1 -1.1104 12.183 0.537196 0.804254
45 2 2.2208 10.8184 -0.785891 2.32048
46 2 2.2208 10.7525 4.90787 2.52706
47 1 -1.1104 12.1232 0.665005 3.72527
48 1 -1.1104 9.36037 -2.13521 1.17931
50 1 -1.1104 9.44881 3.29895 0.938309
52 2 2.2208 7.89114 1.99716 2.49641
53 1 -1.1104 9.36864 -2.22737 3.86257
54 1 -1.1104 9.32195 3.51791 3.82263
55 2 2.2208 8.04616 -0.628815 5.26496
56 2 2.2208 7.86503 4.91354 5.368
57 1 -1.1104 9.31664 0.476102 1.01457
59 1 -1.1104 9.39401 0.701995 3.94538
196 2 2.2208 8.06236 -3.55138 7.96763
117 1 -1.1104 12.1396 6.18815 1.29768
145 2 2.2208 13.5196 10.3174 -0.231079
40 1 -1.1104 11.9867 3.41827 6.61245
69 1 -1.1104 6.77804 9.01511 6.62627
51 1 -1.1104 9.11863 3.47449 6.68293
136 1 -1.1104 9.45198 11.7427 6.66539
229 1 -1.1104 9.42228 11.764 9.49507
6752 2 2.2208 -0.596786 4.89885 8.09065
142 2 2.2208 10.967 13.2662 -0.335203
72 1 -1.1104 0.956155 6.23665 1.02214
89 1 -1.1104 3.67062 6.17301 1.21357
107 1 -1.1104 6.37467 6.19912 3.92064
78 1 -1.1104 0.657072 6.0422 4.0232
93 1 -1.1104 3.41168 6.33106 3.98806
63 2 2.2208 5.05606 7.58478 5.26416
64 2 2.2208 5.34716 13.4355 5.27801
65 1 -1.1104 0.941328 8.90693 1.09129
67 1 -1.1104 1.09432 14.6785 1.09833
70 1 -1.1104 0.838808 8.9499 3.79376
71 1 -1.1104 0.957665 14.5236 3.81652
74 1 -1.1104 1.19988 11.7074 1.05608
77 2 2.2208 5.07604 10.5667 2.40868
79 1 -1.1104 1.06015 11.7288 3.88011
80 1 -1.1104 3.78684 9.03961 1.0187
82 1 -1.1104 3.86164 14.9738 1.02166
84 2 2.2208 2.27101 7.576 2.53348
85 2 2.2208 2.45678 13.272 2.45386
86 1 -1.1104 3.75184 9.14133 3.90471
87 1 -1.1104 3.92096 14.819 3.82638
88 2 2.2208 2.50498 10.5741 5.26254
91 1 -1.1104 3.96809 12.2283 1.19608
94 1 -1.1104 3.82751 12.0155 3.9538
92 1 -1.1104 3.80249 12.0115 6.69517
6601 2 2.2208 -0.719455 2.09784 5.2222
104 1 -1.1104 6.51041 6.08411 1.14236
102 1 -1.1104 6.47307 8.86374 3.8166
75 1 -1.1104 0.978548 11.8527 6.61652
83 1 -1.1104 3.857 14.9944 6.62899
81 1 -1.1104 3.97806 9.19139 6.77123
106 1 -1.1104 6.6655 11.9983 6.62945
101 1 -1.1104 6.77719 14.7448 6.54197
237 2 2.2208 10.7667 13.0907 10.8576
6709 2 2.2208 -0.553694 7.56552 5.35371
133 1 -1.1104 9.39188 6.03999 1.17415
100 1 -1.1104 6.78617 14.7866 1.00592
103 1 -1.1104 6.6492 14.8113 3.76102
99 1 -1.1104 6.56878 9.067 1.20967
105 1 -1.1104 6.71749 11.994 1.10507
137 1 -1.1104 9.39055 6.10719 3.94823
108 1 -1.1104 6.52139 11.8174 3.87326
122 1 -1.1104 12.2459 6.40936 4.07511
109 2 2.2208 10.7304 7.61906 5.38739
110 2 2.2208 10.8048 13.1498 5.10546
111 1 -1.1104 12.2233 8.89365 1.19393
113 1 -1.1104 12.4027 14.6873 1.07699
115 1 -1.1104 12.0866 9.07238 3.90279
116 1 -1.1104 12.234 14.4674 3.83054
119 1 -1.1104 12.1734 11.7453 1.18787
121 2 2.2208 10.8224 10.3609 2.43658
123 1 -1.1104 12.1664 11.6902 3.95896
124 1 -1.1104 9.29942 8.88054 1.15503
126 1 -1.1104 9.4902 14.8356 0.878654
128 2 2.2208 8.00462 7.46158 2.55129
129 2 2.2208 8.2047 13.32 2.40356
130 1 -1.1104 9.40304 8.91074 3.77985
131 1 -1.1104 9.27194 14.6308 3.94207
132 2 2.2208 8.07785 10.4809 5.27369
135 1 -1.1104 9.45485 11.614 0.929511
138 1 -1.1104 9.38932 11.8422 3.83703
127 1 -1.1104 9.51874 14.66 6.67933
114 1 -1.1104 12.3314 14.6603 6.57447
236 1 -1.1104 12.3488 8.96267 12.3543
95 2 2.2208 5.2401 13.3221 -0.298797
241 2 2.2208 8.03662 13.3473 7.98413
26 1 -1.1104 3.65931 3.54967 6.80109
8 1 -1.1104 6.90406 -2.01679 6.59913
214 1 -1.1104 6.61526 8.93043 12.254
6 1 -1.1104 0.790248 3.36915 6.7627
4 1 -1.1104 1.15787 -2.15611 6.75726
146 2 2.2208 5.11491 1.99366 10.7428
147 1 -1.1104 0.941331 -2.29939 12.3464
148 1 -1.1104 1.17952 3.29043 12.2278
150 1 -1.1104 0.838496 -2.2147 9.45337
151 1 -1.1104 0.852965 3.45948 9.53816
154 1 -1.1104 1.01715 0.477225 12.3224
156 2 2.2208 5.21117 -0.829506 7.98856
157 2 2.2208 5.28512 4.74117 8.15773
158 1 -1.1104 1.03529 0.524917 9.45859
160 1 -1.1104 3.83946 -2.08273 12.1503
161 1 -1.1104 3.78604 3.32451 12.2869
162 2 2.2208 2.26523 2.11937 8.11212
163 1 -1.1104 3.88233 -2.2309 9.38259
164 1 -1.1104 3.73132 3.48295 9.62376
165 2 2.2208 2.25693 -0.92537 10.9011
166 2 2.2208 2.21015 4.70647 10.889
167 1 -1.1104 3.69435 0.619663 12.2051
168 1 -1.1104 3.76025 0.430876 9.38768
159 1 -1.1104 6.47538 0.702874 9.74701
18 1 -1.1104 6.63768 0.557249 6.81617
176 1 -1.1104 6.5779 3.44194 12.216
149 1 -1.1104 6.53598 -2.13611 12.1019
153 1 -1.1104 6.6717 3.27521 9.3692
152 1 -1.1104 6.72847 -2.17929 9.1107
155 1 -1.1104 6.51152 0.709696 12.3537
220 1 -1.1104 6.8081 6.25922 12.2206
201 1 -1.1104 3.60581 6.25658 9.53155
76 1 -1.1104 6.50938 6.23783 6.76946
244 1 -1.1104 12.1351 11.6051 12.2936
247 1 -1.1104 12.3421 6.0748 12.5866
232 1 -1.1104 9.73465 6.26503 12.557
257 2 2.2208 13.7014 13.4269 7.9895
38 1 -1.1104 12.2699 -2.26863 6.41912
58 1 -1.1104 9.33111 0.614407 6.6916
44 1 -1.1104 12.1277 0.747434 6.52578
234 2 2.2208 8.00528 10.4326 10.9233
250 1 -1.1104 12.1251 6.07461 9.6564
49 1 -1.1104 9.66739 -2.25056 6.62233
177 2 2.2208 10.7979 1.98387 10.9907
178 1 -1.1104 12.2966 -2.07866 12.181
179 1 -1.1104 12.288 3.41662 12.4488
180 1 -1.1104 12.2289 -2.07552 9.33449
181 1 -1.1104 12.0801 3.36795 9.42423
182 1 -1.1104 12.1053 0.729669 12.3431
183 2 2.2208 10.6612 -0.647966 8.09247
184 2 2.2208 10.8635 4.90673 8.14304
185 1 -1.1104 12.1885 0.63358 9.28856
186 1 -1.1104 9.34419 -2.0171 12.2746
187 1 -1.1104 9.386 3.52384 12.1398
188 2 2.2208 8.05583 2.059 7.9868
189 1 -1.1104 9.41864 -2.20672 9.57357
190 1 -1.1104 9.35574 3.45946 9.32507
191 2 2.2208 7.95912 -0.768021 10.8687
192 2 2.2208 7.94597 4.74807 10.8173
193 1 -1.1104 9.32754 0.624552 12.3873
194 1 -1.1104 9.44866 0.606021 9.60517
230 1 -1.1104 9.34788 6.15953 9.60688
96 2 2.2208 2.26763 10.2768 -0.358237
6751 2 2.2208 -0.523658 2.0282 10.9338
246 1 -1.1104 12.2578 11.7842 9.53185
195 2 2.2208 10.8981 4.77829 13.853
139 2 2.2208 13.5833 13.2076 2.49328
120 1 -1.1104 12.2062 11.7459 6.68382
6580 2 2.2208 13.6123 1.92228 2.32341
221 1 -1.1104 6.59427 11.8765 12.4046
90 1 -1.1104 3.67138 6.28489 6.57449
252 1 -1.1104 6.55732 14.7438 9.55387
66 1 -1.1104 0.974405 9.1114 6.72644
68 1 -1.1104 1.00162 14.6167 6.72464
203 1 -1.1104 4.02144 6.28623 12.5111
73 1 -1.1104 0.968032 6.18617 6.76698
218 1 -1.1104 0.89224 5.9661 12.2945
223 1 -1.1104 0.762599 6.45727 9.53795
198 1 -1.1104 3.7939 9.0832 12.477
200 1 -1.1104 3.88666 11.8032 9.47847
202 1 -1.1104 3.89514 11.8422 12.4078
204 2 2.2208 2.48185 10.5344 11.022
205 1 -1.1104 3.93492 14.542 9.40305
206 1 -1.1104 3.69778 9.02976 9.79329
207 2 2.2208 2.41828 13.2067 8.08789
208 2 2.2208 2.23526 7.76134 8.08229
209 1 -1.1104 3.88116 14.5441 12.1936
210 2 2.2208 5.1624 7.68331 11.0186
211 2 2.2208 5.30978 13.1782 10.8783
212 1 -1.1104 0.901078 8.88334 12.3639
213 1 -1.1104 1.00319 14.9099 12.3837
215 1 -1.1104 0.891877 9.25725 9.55315
216 1 -1.1104 1.15444 14.7194 9.45558
219 1 -1.1104 1.0835 11.9842 12.5327
222 2 2.2208 5.37401 10.5322 8.10329
224 1 -1.1104 1.01599 11.9848 9.5505
225 1 -1.1104 6.58509 5.96102 9.55694
199 1 -1.1104 6.72661 12.0145 9.42387
6595 2 2.2208 13.4563 -0.64919 5.16349
231 1 -1.1104 9.45394 11.8347 12.4665
233 1 -1.1104 12.2397 14.6017 12.1344
245 1 -1.1104 9.57804 9.15051 12.2879
235 1 -1.1104 9.40212 14.575 9.37788
242 2 2.2208 7.85298 7.57917 8.10014
112 1 -1.1104 12.1441 8.94869 6.80066
125 1 -1.1104 9.34333 8.98555 6.6281
134 1 -1.1104 9.30039 6.08541 6.79656
243 1 -1.1104 9.3484 14.6149 12.3955
436 2 2.2208 7.93465 4.68206 -0.364322
217 1 -1.1104 6.58133 9.27406 9.51514
251 1 -1.1104 6.47993 14.6472 12.4807
249 1 -1.1104 12.0829 9.00013 9.47999
240 1 -1.1104 9.24818 9.01972 9.57167
118 1 -1.1104 12.0264 6.20738 6.81345
248 1 -1.1104 12.3788 14.5873 9.34619
438 2 2.2208 13.5845 -0.878534 -0.457801
175 2 2.2208 10.6936 -0.661434 13.726
227 2 2.2208 2.38683 7.70149 13.8534
169 2 2.2208 2.38656 1.84423 13.5698
444 2 2.2208 7.94534 -0.853058 -0.324063
171 2 2.2208 5.23554 4.85557 13.7375
253 2 2.2208 7.92379 13.4261 13.9491
6772 2 2.2208 -0.362445 -0.871414 13.7342
260 2 2.2208 5.25872 1.86359 16.36
261 1 -1.1104 1.02933 -2.34158 17.8526
262 1 -1.1104 1.07671 3.49969 18.0081
263 1 -1.1104 1.13004 -2.32034 15.1158
265 1 -1.1104 0.989228 3.38221 15.1692
268 1 -1.1104 1.03921 0.51075 17.7718
269 2 2.2208 5.1754 -0.876415 19.2422
270 2 2.2208 5.20665 4.90405 19.2987
271 1 -1.1104 0.942105 0.562498 15.0959
273 1 -1.1104 3.91172 -2.24406 17.5853
274 1 -1.1104 3.93465 3.47475 17.8754
276 2 2.2208 2.47139 1.90729 19.1503
277 1 -1.1104 3.71875 -2.05053 14.9221
279 1 -1.1104 3.8818 3.42171 15.2171
281 2 2.2208 2.35742 -0.775999 16.3619
282 2 2.2208 2.42828 4.76926 16.6843
283 1 -1.1104 3.85821 0.48054 17.8739
284 1 -1.1104 3.70762 0.669813 15.0712
6906 2 2.2208 -0.304045 -3.63958 16.5
413 2 2.2208 2.41752 -3.59028 25.0271
386 2 2.2208 5.12827 -3.78078 27.7491
512 2 2.2208 13.5834 13.138 25.0047
511 2 2.2208 13.5374 7.37906 24.9712
335 1 -1.1104 0.874444 6.15764 15.0854
293 1 -1.1104 6.58469 0.528602 17.938
288 1 -1.1104 6.63403 -2.26291 17.6626
294 1 -1.1104 6.54905 0.548725 15.2268
290 1 -1.1104 6.73145 -2.07388 14.8668
286 2 2.2208 5.31846 -3.72529 16.4629
336 1 -1.1104 1.04819 6.30467 20.5392
267 1 -1.1104 6.68041 3.60673 20.5404
264 1 -1.1104 0.911102 -2.13228 20.6991
280 1 -1.1104 3.87796 3.45768 20.6292
285 1 -1.1104 3.66941 0.36977 20.5889
295 1 -1.1104 6.47121 0.496717 20.6092
292 1 -1.1104 6.55641 3.40653 14.9009
289 1 -1.1104 6.61829 3.46666 17.7452
296 2 2.2208 10.7446 1.96031 16.6101
297 1 -1.1104 12.1387 -2.06069 17.8474
298 1 -1.1104 12.1321 3.24066 18.0678
299 1 -1.1104 12.1421 -2.19856 15.2504
301 1 -1.1104 12.1693 3.17802 15.1243
303 1 -1.1104 12.3496 0.503014 18.1247
304 2 2.2208 10.8417 -0.794223 19.3245
305 2 2.2208 10.7614 4.72505 19.3527
306 1 -1.1104 12.3127 0.459711 15.1526
308 1 -1.1104 9.20952 -2.30429 17.8729
309 1 -1.1104 9.371 3.42691 17.9646
310 2 2.2208 7.86692 1.93979 19.2375
311 1 -1.1104 9.42408 -2.03837 15.1502
313 1 -1.1104 9.31864 3.40555 15.0279
315 2 2.2208 7.98961 -0.809172 16.4122
316 2 2.2208 7.99581 4.79785 16.5301
317 1 -1.1104 9.39907 0.561785 18.1338
318 1 -1.1104 9.2452 0.706902 15.1981
333 1 -1.1104 6.54445 6.29075 17.8952
307 1 -1.1104 12.1696 0.48794 20.8222
314 1 -1.1104 9.29525 3.30328 20.6534
6811 2 2.2208 13.8122 7.67819 13.6237
440 2 2.2208 13.6476 2.06546 24.9711
510 1 -1.1104 6.72335 11.86 23.6536
254 2 2.2208 10.9516 10.315 13.6665
226 2 2.2208 5.31339 10.4704 13.7452
348 1 -1.1104 3.79956 6.21505 18.0284
350 1 -1.1104 3.82819 6.39029 15.1693
331 1 -1.1104 0.851761 6.2568 17.793
323 2 2.2208 5.24195 7.74173 16.4258
324 2 2.2208 5.10876 13.459 16.6412
325 1 -1.1104 0.845612 9.08253 17.8255
326 1 -1.1104 1.04718 14.5601 18.0107
328 1 -1.1104 1.08072 9.10417 15.1262
329 1 -1.1104 0.910726 14.8102 15.1859
332 1 -1.1104 1.03098 11.8041 18.071
334 2 2.2208 5.35447 10.4811 19.2071
337 1 -1.1104 0.996361 11.9913 15.0388
340 1 -1.1104 3.90052 9.02539 17.9056
341 1 -1.1104 3.67259 14.9021 17.9852
342 2 2.2208 2.29702 7.66743 19.227
343 2 2.2208 2.28833 13.2367 19.3676
344 1 -1.1104 3.96464 9.17993 15.1314
345 1 -1.1104 3.71425 14.7401 15.1737
347 2 2.2208 2.52934 10.6669 16.6496
349 1 -1.1104 3.94798 11.8435 18.0437
352 1 -1.1104 3.67832 12.0504 15.3805
450 1 -1.1104 0.874422 14.5779 20.8586
354 1 -1.1104 6.65513 14.8075 15.1916
353 1 -1.1104 6.57463 14.7563 17.9266
357 1 -1.1104 6.57747 11.8672 15.1509
346 1 -1.1104 3.78425 14.6507 20.7755
458 1 -1.1104 3.71021 8.99221 20.7233
455 1 -1.1104 0.990837 11.8845 20.7962
355 1 -1.1104 6.68298 14.7067 20.6904
489 1 -1.1104 9.26201 8.80185 26.3539
499 2 2.2208 7.81415 7.52196 24.9812
477 1 -1.1104 9.4498 11.9152 26.2834
6907 2 2.2208 -0.450339 2.0746 16.4358
6957 2 2.2208 -0.527542 13.2952 16.671
378 1 -1.1104 9.28429 6.20605 17.9827
338 1 -1.1104 6.568 6.28717 14.9081
492 1 -1.1104 12.187 14.4764 20.8204
327 1 -1.1104 6.72782 9.17063 17.8052
330 1 -1.1104 6.89926 9.20909 15.0091
367 1 -1.1104 12.4551 6.20531 15.4202
364 1 -1.1104 12.1991 6.14198 17.8611
380 1 -1.1104 9.52861 6.04638 15.3583
356 1 -1.1104 6.63568 11.9984 17.7825
358 2 2.2208 10.763 7.4992 16.4771
359 2 2.2208 10.9194 13.3218 16.6507
360 1 -1.1104 12.2452 9.23127 17.9612
361 1 -1.1104 12.1979 14.7561 18.0223
362 1 -1.1104 12.3115 9.00849 15.2174
363 1 -1.1104 12.4262 14.6267 15.0263
365 1 -1.1104 12.296 11.9857 17.8526
366 2 2.2208 10.798 10.3643 19.3669
369 1 -1.1104 12.1926 11.6241 15.14
370 1 -1.1104 9.30791 8.77701 17.7634
371 1 -1.1104 9.47457 14.5789 17.9342
372 2 2.2208 7.92868 7.50048 19.3834
373 2 2.2208 7.9545 13.2513 19.2499
374 1 -1.1104 9.69301 8.96666 14.8625
375 1 -1.1104 9.66697 14.7612 15.2189
377 2 2.2208 8.25752 10.4497 16.406
379 1 -1.1104 9.44394 11.7578 17.9501
382 1 -1.1104 9.35538 11.9837 15.2154
376 1 -1.1104 9.39869 14.694 20.7226
497 1 -1.1104 9.27399 11.8212 20.5405
491 1 -1.1104 12.2429 8.96566 20.5573
170 2 2.2208 5.17189 -0.662405 13.6194
476 2 2.2208 -0.58459 7.66501 22.1067
485 2 2.2208 10.8066 10.2199 24.971
6904 2 2.2208 -0.465671 -0.731548 19.225
272 1 -1.1104 0.974929 0.655969 20.4293
266 1 -1.1104 0.896524 3.5925 20.6548
278 1 -1.1104 3.7102 -2.35397 20.5256
388 2 2.2208 5.12807 1.96856 22.0701
389 1 -1.1104 1.09886 -2.35197 23.5384
390 1 -1.1104 1.01856 3.38105 23.3621
392 1 -1.1104 1.05964 -2.25721 26.3222
393 1 -1.1104 0.831756 3.41321 26.2947
396 1 -1.1104 0.995008 0.667965 23.5256
398 2 2.2208 4.99303 -0.924628 24.7155
399 2 2.2208 5.06846 4.83299 24.9523
400 1 -1.1104 0.807038 0.58878 26.5841
402 1 -1.1104 3.81821 -2.27306 23.4609
403 1 -1.1104 3.49596 3.29759 23.5168
404 2 2.2208 2.36519 2.07368 24.9679
405 1 -1.1104 3.77466 -2.26598 26.3138
406 1 -1.1104 3.69522 3.48174 26.3944
407 2 2.2208 2.39167 -0.980784 22.1862
408 2 2.2208 2.242 4.84835 22.1073
409 1 -1.1104 3.72571 0.629892 23.4896
410 1 -1.1104 3.67556 0.565299 26.166
6997 2 2.2208 13.6153 -0.807581 22.2841
391 1 -1.1104 6.24941 3.34626 23.5764
448 1 -1.1104 3.67558 6.21612 26.4094
291 1 -1.1104 6.52347 -2.15812 20.6382
397 1 -1.1104 6.49061 0.693323 23.4876
416 1 -1.1104 6.57804 -2.19384 23.5069
394 1 -1.1104 6.67107 -2.26536 26.2809
351 1 -1.1104 3.73278 6.21159 20.7517
469 1 -1.1104 1.02167 6.2522 23.6246
474 1 -1.1104 0.990645 6.31218 26.3239
385 2 2.2208 13.6681 7.69151 19.3131
228 2 2.2208 2.39501 13.4585 13.7473
7089 2 2.2208 -0.435628 13.2999 22.2431
513 2 2.2208 13.541 10.4037 22.12
302 1 -1.1104 12.2296 3.38254 20.7929
381 1 -1.1104 9.37313 6.05791 20.9343
312 1 -1.1104 9.39195 -2.21574 20.6552
401 1 -1.1104 6.27625 0.519835 26.3127
300 1 -1.1104 12.2229 -2.2683 20.7704
395 1 -1.1104 6.63553 3.26236 26.3922
319 1 -1.1104 9.18314 0.812408 20.8798
417 2 2.2208 10.687 1.98678 22.0968
418 1 -1.1104 12.1492 -2.24493 23.5493
419 1 -1.1104 12.257 3.39767 23.6221
420 1 -1.1104 12.277 -2.27587 26.4014
421 1 -1.1104 12.2291 3.52911 26.3869
422 1 -1.1104 12.1448 0.579961 23.6234
423 2 2.2208 10.8278 -0.809768 24.966
424 2 2.2208 10.838 4.7255 24.9539
425 1 -1.1104 12.2201 0.703293 26.1964
426 1 -1.1104 9.37738 -2.17467 23.4834
427 1 -1.1104 9.33305 3.49578 23.6
428 2 2.2208 7.81562 1.8701 24.9359
429 1 -1.1104 9.38275 -2.49764 26.398
430 1 -1.1104 9.25109 3.4232 26.3199
431 2 2.2208 7.95896 -0.91348 22.0429
432 2 2.2208 7.92106 4.67114 22.1096
433 1 -1.1104 9.3792 0.51026 23.5642
434 1 -1.1104 9.44747 0.337036 26.3165
480 1 -1.1104 9.43424 6.12646 23.6936
478 1 -1.1104 9.38752 6.17798 26.5269
339 1 -1.1104 6.54571 6.21147 20.8368
368 1 -1.1104 12.0754 6.18067 20.7247
506 1 -1.1104 12.2881 11.8905 26.5176
449 1 -1.1104 0.857105 9.18701 20.7412
483 1 -1.1104 12.2151 6.11448 26.3976
507 1 -1.1104 6.66299 14.6796 23.5079
495 1 -1.1104 6.42784 6.06917 26.4521
459 1 -1.1104 3.88149 11.9166 20.862
490 1 -1.1104 6.63178 11.7886 20.9177
453 1 -1.1104 3.91105 6.13106 23.5006
445 1 -1.1104 3.64096 8.93642 26.4199
446 2 2.2208 2.43871 13.2012 24.9369
447 1 -1.1104 3.66511 11.4903 26.4531
452 1 -1.1104 3.92936 11.9436 23.4949
454 2 2.2208 2.36507 7.68989 24.9187
456 1 -1.1104 3.69308 14.6558 23.5576
457 1 -1.1104 3.75828 9.27639 23.5877
460 1 -1.1104 0.939209 11.8121 26.3975
461 2 2.2208 2.3473 10.3331 22.0565
462 2 2.2208 5.06385 7.75889 22.2211
463 2 2.2208 5.15812 13.2821 22.2114
464 1 -1.1104 0.939906 9.04002 23.5013
465 1 -1.1104 0.797079 14.5219 23.6758
467 1 -1.1104 0.862614 8.85367 26.1985
468 1 -1.1104 1.11896 14.625 26.3654
470 1 -1.1104 0.923771 11.8055 23.52
472 1 -1.1104 3.853 14.4648 26.3962
473 2 2.2208 5.17879 10.4779 25.1091
508 1 -1.1104 6.43891 8.95962 26.4403
479 1 -1.1104 9.36087 11.7552 23.5298
502 1 -1.1104 9.23889 8.92576 23.7973
484 2 2.2208 10.7042 13.1667 22.1905
481 2 2.2208 8.02283 10.4814 22.1824
441 2 2.2208 13.677 4.6883 22.0816
500 1 -1.1104 12.1532 14.6961 26.4679
503 1 -1.1104 11.972 9.01603 26.4443
501 1 -1.1104 9.34798 14.6129 23.4357
505 1 -1.1104 12.0349 8.92266 23.4421
466 1 -1.1104 6.4831 9.25806 23.6148
487 1 -1.1104 12.087 11.8138 23.6586
451 1 -1.1104 6.48851 9.14766 20.6825
494 1 -1.1104 12.0892 11.6503 20.7848
504 1 -1.1104 12.1735 14.5279 23.6987
496 1 -1.1104 9.3481 8.92365 20.9111
486 2 2.2208 10.6693 7.51238 22.2202
471 1 -1.1104 6.70348 6.21061 23.4612
498 2 2.2208 8.05322 13.2555 24.9104
509 1 -1.1104 6.68025 14.663 26.3547
493 1 -1.1104 6.59456 11.7812 26.3745
488 1 -1.1104 12.2152 6.16802 23.4596
482 1 -1.1104 9.43096 14.6532 26.2329
6879 2 2.2208 -0.417273 4.87047 19.2302
387 2 2.2208 2.32273 4.96465 27.7173
435 2 2.2208 10.7412 2.038 27.6527
97 2 2.2208 5.14238 7.4641 27.7754
411 2 2.2208 4.96879 2.00316 27.635
144 2 2.2208 10.6931 7.57602 27.846
415 2 2.2208 2.46851 -0.800962 27.6575
287 2 2.2208 2.53499 -3.61494 13.6188
255 2 2.2208 8.15058 7.59415 13.7169
174 2 2.2208 7.93304 1.96375 13.567
62 2 2.2208 13.4862 4.82336 27.7874
514 2 2.2208 5.20413 19.0354 5.29906
515 2 2.2208 5.00441 24.514 5.07172
516 1 -1.1104 0.949874 20.2259 0.956088
518 1 -1.1104 0.80042 20.1923 3.83699
519 1 -1.1104 1.00348 17.4859 0.984649
521 1 -1.1104 0.837407 23.119 1.07272
523 2 2.2208 5.22193 21.4953 2.45362
524 1 -1.1104 1.02584 17.3679 3.85579
525 1 -1.1104 1.09373 22.8689 3.95444
526 1 -1.1104 3.72709 20.292 1.2105
528 2 2.2208 2.30347 18.8242 2.32609
529 2 2.2208 2.45434 24.5192 2.38331
530 1 -1.1104 3.78043 20.2678 3.86901
532 2 2.2208 2.42101 21.5428 5.2438
533 1 -1.1104 3.76761 17.778 0.927865
535 1 -1.1104 3.7893 22.9574 1.01889
536 1 -1.1104 4.05864 17.6662 3.59327
537 1 -1.1104 3.64181 23.1448 3.83769
522 2 2.2208 5.4428 16.1326 2.37124
531 2 2.2208 2.3172 16.0941 5.25568
541 1 -1.1104 6.74223 17.4146 1.04188
7326 2 2.2208 13.7489 30.3981 7.95403
628 1 -1.1104 3.71544 23.1572 6.53299
627 1 -1.1104 0.988384 23.0233 6.68195
635 2 2.2208 5.28336 16.1278 8.04122
902 2 2.2208 2.20376 21.6568 -0.34846
539 1 -1.1104 6.55567 20.3186 1.10817
544 1 -1.1104 6.99212 17.7163 4.0341
545 1 -1.1104 6.33776 23.0968 3.97451
727 2 2.2208 7.91799 27.3815 10.7297
751 2 2.2208 10.9787 27.2585 7.99237
538 2 2.2208 2.33872 16.0253 -0.414336
540 1 -1.1104 6.64935 20.292 3.93523
543 1 -1.1104 6.7241 23.0585 1.11616
561 2 2.2208 8.1443 16.189 5.23033
553 2 2.2208 11.0945 16.1824 2.66415
546 2 2.2208 10.7909 18.9842 5.18408
547 2 2.2208 10.7109 24.4924 5.21566
548 1 -1.1104 12.3502 20.0289 1.1473
549 1 -1.1104 12.3301 20.4285 3.9007
550 1 -1.1104 12.4161 17.3317 1.00312
552 1 -1.1104 12.4218 23.2879 1.11759
554 2 2.2208 10.9041 21.7113 2.44681
555 1 -1.1104 12.2699 17.6512 3.80299
556 1 -1.1104 12.2302 23.0226 3.78924
557 1 -1.1104 9.57095 20.238 1.19101
558 2 2.2208 8.24955 18.8403 2.33455
559 2 2.2208 7.9332 24.4767 2.44541
560 1 -1.1104 9.52238 20.3125 3.82501
562 2 2.2208 8.0977 21.614 5.22756
563 1 -1.1104 9.51841 17.4439 0.964463
565 1 -1.1104 9.57406 23.2411 0.985256
566 1 -1.1104 9.69721 17.4123 3.87227
567 1 -1.1104 9.14343 22.9844 3.66927
652 1 -1.1104 6.62576 20.4053 6.76101
542 1 -1.1104 6.70583 17.5348 6.64889
653 1 -1.1104 6.72101 23.1033 6.63238
551 1 -1.1104 12.2049 17.4899 6.6395
564 1 -1.1104 9.4488 17.4094 6.75437
720 1 -1.1104 9.48243 34.5029 9.36946
7281 2 2.2208 -0.454865 16.0365 8.14074
738 1 -1.1104 9.44911 31.6097 12.2491
569 2 2.2208 5.1085 29.9888 5.16545
570 1 -1.1104 0.940995 25.9463 0.92206
571 1 -1.1104 0.960003 31.5727 0.823258
572 1 -1.1104 1.07901 25.7152 3.72011
573 1 -1.1104 1.02782 31.3309 3.63274
574 1 -1.1104 0.876598 28.8291 1.20979
575 1 -1.1104 1.08117 34.4011 1.13354
576 2 2.2208 5.28509 27.4054 2.35324
577 2 2.2208 5.23445 32.8954 2.38492
578 1 -1.1104 0.987309 28.4204 4.04224
579 1 -1.1104 1.02854 34.4416 3.8021
580 1 -1.1104 3.85947 25.8478 1.03783
581 1 -1.1104 3.83904 31.4845 1.12444
582 2 2.2208 2.46104 29.9871 2.35267
583 1 -1.1104 3.82187 26.0877 3.76412
584 1 -1.1104 3.88461 31.4819 3.91667
585 2 2.2208 2.34702 27.1473 5.2126
586 2 2.2208 2.29641 32.9157 5.29055
587 1 -1.1104 3.58992 28.5882 0.960061
588 1 -1.1104 3.77695 34.4487 1.04773
589 1 -1.1104 3.96948 28.7903 3.75495
590 1 -1.1104 3.70455 34.1491 3.75827
7162 2 2.2208 -0.60884 18.8923 5.33077
600 1 -1.1104 6.73524 28.827 4.00666
599 1 -1.1104 6.48769 34.3027 1.07035
735 1 -1.1104 6.50084 28.6491 6.73761
7251 2 2.2208 13.648 21.7046 11.0695
568 2 2.2208 8.02867 16.0884 -0.473679
7161 2 2.2208 -0.485301 16.0637 2.57743
721 1 -1.1104 9.59271 29.0289 9.34986
985 2 2.2208 8.01987 27.3993 -0.466832
594 1 -1.1104 6.67454 25.8219 1.00584
601 1 -1.1104 6.53578 34.3192 3.86744
597 1 -1.1104 6.78742 31.548 3.76376
598 1 -1.1104 6.72473 28.7838 1.07963
596 1 -1.1104 6.58299 25.986 3.74295
595 1 -1.1104 6.5936 31.4648 0.923563
602 2 2.2208 10.9329 30.0996 5.2277
603 1 -1.1104 12.1508 25.9592 0.971888
604 1 -1.1104 12.2252 31.4759 0.796006
605 1 -1.1104 12.4119 26.0126 3.70355
606 1 -1.1104 12.3602 31.6415 3.67928
607 1 -1.1104 12.3648 28.7427 1.09379
608 1 -1.1104 12.0876 34.6508 1.00578
609 2 2.2208 10.9122 27.3201 2.4295
610 2 2.2208 10.8566 33.098 2.39156
611 1 -1.1104 12.3548 28.6482 3.75953
612 1 -1.1104 12.1731 34.3894 3.90526
613 1 -1.1104 9.42356 26.04 0.915101
614 1 -1.1104 9.57989 31.7151 0.945797
615 2 2.2208 8.02865 30.0455 2.45097
616 1 -1.1104 9.2719 25.8235 3.66232
617 1 -1.1104 9.60479 31.3439 3.70314
618 2 2.2208 8.00269 27.4282 5.2778
619 2 2.2208 8.04166 32.8111 5.11319
620 1 -1.1104 9.39352 28.7343 1.1313
621 1 -1.1104 9.41147 34.441 0.906123
622 1 -1.1104 9.56411 28.6356 4.04772
623 1 -1.1104 9.21408 34.1718 3.60298
743 1 -1.1104 9.42563 25.8948 6.64164
744 1 -1.1104 9.41233 31.3938 6.35033
739 1 -1.1104 12.1838 25.9061 6.65633
742 1 -1.1104 12.1738 34.3242 6.58338
7219 2 2.2208 -0.518089 27.4745 2.57235
527 1 -1.1104 3.8156 20.3899 6.75949
725 1 -1.1104 12.0789 25.8431 9.48599
7196 2 2.2208 13.7001 27.299 5.18201
517 1 -1.1104 1.00017 20.2076 6.72194
7619 2 2.2208 13.6317 27.3884 -0.528568
750 2 2.2208 10.6864 33.0613 7.96828
520 1 -1.1104 1.04311 17.3866 6.76677
534 1 -1.1104 3.81228 17.6868 6.73782
643 2 2.2208 2.39824 16.1622 10.8785
719 2 2.2208 -0.564569 33.0304 7.96006
629 2 2.2208 5.20596 18.8642 10.9316
630 2 2.2208 5.21383 24.3992 10.9336
631 1 -1.1104 1.07134 20.3687 12.4131
632 1 -1.1104 0.936582 20.3952 9.74002
633 1 -1.1104 1.00079 17.6612 12.3711
634 1 -1.1104 0.924199 23.1408 12.3621
636 2 2.2208 5.2722 21.6976 8.00988
637 1 -1.1104 0.928003 17.6328 9.52863
638 1 -1.1104 0.787199 23.1824 9.47378
639 1 -1.1104 3.85178 20.3059 12.2432
640 2 2.2208 2.41114 18.9085 7.98457
641 2 2.2208 2.35776 24.5365 7.9717
642 1 -1.1104 3.89232 20.3052 9.45325
644 2 2.2208 2.27577 21.58 10.9788
645 1 -1.1104 3.72229 17.4304 12.364
646 1 -1.1104 3.77189 22.8348 12.3507
647 1 -1.1104 3.79701 17.5104 9.48754
648 1 -1.1104 3.67681 23.1206 9.61251
661 1 -1.1104 6.57029 17.4143 12.3309
662 1 -1.1104 6.69043 23.0879 12.2825
664 1 -1.1104 6.56316 23.1293 9.51732
904 2 2.2208 5.19507 18.9952 -0.301509
7328 2 2.2208 13.7142 32.9432 10.8651
658 1 -1.1104 9.42853 23.0414 6.75221
7195 2 2.2208 13.6645 30.1883 2.50884
660 1 -1.1104 6.5462 20.2397 9.38684
655 1 -1.1104 12.3427 23.1793 6.594
654 1 -1.1104 12.5764 20.3641 6.71196
656 1 -1.1104 9.6275 20.3406 6.59733
659 1 -1.1104 6.80033 20.2218 12.219
663 1 -1.1104 6.58415 17.6476 9.58046
679 2 2.2208 8.08166 16.1106 11.0799
665 2 2.2208 10.8898 18.9721 10.8918
666 2 2.2208 10.6744 24.5313 10.6942
667 1 -1.1104 12.3556 20.1973 12.3235
668 1 -1.1104 12.1667 20.3111 9.65241
669 1 -1.1104 12.3536 17.3581 12.2214
670 1 -1.1104 12.2051 23.0298 12.2634
672 2 2.2208 10.9269 21.7567 8.10632
673 1 -1.1104 12.3771 17.4743 9.6089
674 1 -1.1104 12.1959 23.0641 9.47734
675 1 -1.1104 9.59576 20.3894 12.0399
676 2 2.2208 8.09035 18.8196 8.15834
677 2 2.2208 7.8765 24.614 8.06162
678 1 -1.1104 9.44703 20.2959 9.49143
680 2 2.2208 8.04577 21.766 10.9601
681 1 -1.1104 9.40438 17.4907 12.4027
682 1 -1.1104 9.35724 23.3398 12.2171
683 1 -1.1104 9.60159 17.3729 9.57721
684 1 -1.1104 9.30855 23.183 9.5358
671 2 2.2208 10.8709 16.0614 8.0358
760 1 -1.1104 6.48888 28.5843 9.35795
7132 2 2.2208 13.7359 21.6289 5.24869
694 1 -1.1104 3.66566 25.8357 6.64725
695 1 -1.1104 3.81831 31.4444 6.67412
691 1 -1.1104 0.907958 31.6011 6.60866
690 1 -1.1104 0.827471 25.9159 6.69558
698 1 -1.1104 3.75024 28.6205 6.48847
692 1 -1.1104 1.06436 28.675 6.58351
693 1 -1.1104 0.801685 34.3671 6.43142
699 1 -1.1104 3.62122 34.2734 6.56662
752 1 -1.1104 6.52795 25.9152 12.2162
717 1 -1.1104 3.48461 25.9608 9.52446
689 1 -1.1104 3.79027 34.4322 9.34398
696 1 -1.1104 3.76734 28.8446 9.55274
697 1 -1.1104 3.72807 34.4817 12.3165
700 1 -1.1104 3.57746 28.6843 12.4171
701 2 2.2208 2.39586 33.0624 10.8448
702 2 2.2208 2.30782 27.313 10.9083
703 2 2.2208 5.11049 30.2584 10.8424
704 1 -1.1104 0.967898 25.99 12.3706
705 1 -1.1104 0.860655 31.5855 12.1612
706 1 -1.1104 0.762215 25.9606 9.54204
707 1 -1.1104 0.985865 31.7296 9.45029
708 1 -1.1104 0.868133 28.6998 12.234
709 1 -1.1104 1.17548 34.4545 12.1422
710 2 2.2208 4.97328 27.1856 8.09081
711 2 2.2208 5.09953 33.1171 7.86997
712 1 -1.1104 0.911651 28.7603 9.40469
713 1 -1.1104 1.00606 34.4557 9.49278
714 1 -1.1104 3.77058 25.7876 12.293
715 1 -1.1104 3.8478 31.6669 12.2262
716 2 2.2208 2.41123 30.162 8.02888
718 1 -1.1104 3.69236 31.7158 9.36204
7252 2 2.2208 13.7539 18.9615 8.21689
753 1 -1.1104 6.70053 31.5995 12.4443
754 1 -1.1104 6.33106 25.82 9.2478
734 1 -1.1104 6.47552 31.5474 6.75824
757 1 -1.1104 6.53041 34.4469 12.2375
756 1 -1.1104 6.61397 28.8684 12.1309
7279 2 2.2208 -0.456316 19.0078 11.0844
755 1 -1.1104 6.53298 31.5852 9.55956
724 1 -1.1104 12.1107 31.4252 9.37296
728 1 -1.1104 12.3359 31.3533 12.0261
741 1 -1.1104 12.5491 28.7509 6.55624
740 1 -1.1104 12.0665 31.611 6.76869
736 1 -1.1104 6.54898 34.3689 6.69778
7327 2 2.2208 13.6648 27.4509 10.8018
746 1 -1.1104 9.33199 34.4665 6.37927
748 1 -1.1104 12.1477 34.1536 9.42094
722 1 -1.1104 9.34465 34.1827 12.1732
747 1 -1.1104 9.44976 26.001 12.1597
749 1 -1.1104 12.2372 28.6607 9.44647
758 1 -1.1104 12.1293 34.29 12.3523
729 1 -1.1104 12.1333 25.9736 12.263
745 1 -1.1104 9.35801 28.6502 6.68885
732 1 -1.1104 9.07971 26.0278 9.42028
730 2 2.2208 10.8628 30.2255 10.7321
737 2 2.2208 7.90133 30.198 8.01282
759 1 -1.1104 12.2135 28.6694 12.3928
723 1 -1.1104 9.28066 28.6698 12.1982
731 1 -1.1104 9.23751 31.8072 9.25015
761 1 -1.1104 6.46779 34.3779 9.32456
726 2 2.2208 7.92135 32.9156 10.8547
733 1 -1.1104 6.52986 25.8315 6.63134
7131 2 2.2208 13.7293 18.8345 2.62847
7118 2 2.2208 13.723 16.1318 5.42603
624 2 2.2208 13.4614 33.0746 5.31127
649 2 2.2208 2.32408 18.7727 13.8299
7133 2 2.2208 13.6663 16.0622 -0.26189
857 2 2.2208 5.03571 32.9503 13.7262
955 2 2.2208 5.10557 30.0212 -0.358092
925 2 2.2208 10.7997 18.8596 -0.391993
7479 2 2.2208 13.5043 30.1631 13.7074
926 2 2.2208 10.8007 24.6882 -0.353599
762 2 2.2208 5.23051 18.9172 16.4691
763 2 2.2208 5.26006 24.5824 16.4729
764 1 -1.1104 0.937715 20.162 17.9702
765 1 -1.1104 0.876576 20.2762 15.1481
767 1 -1.1104 0.871496 17.3808 17.8142
768 1 -1.1104 0.899201 22.881 18.0247
770 2 2.2208 5.20493 21.817 19.2181
771 1 -1.1104 0.757527 17.5914 15.089
773 1 -1.1104 1.18867 23.1363 15.095
775 1 -1.1104 3.84453 20.3559 18.11
776 2 2.2208 2.31532 18.8472 19.3759
777 2 2.2208 2.353 24.4757 19.3682
778 1 -1.1104 3.68965 20.1157 15.1652
781 2 2.2208 2.35143 21.4995 16.6079
782 1 -1.1104 3.62519 17.7009 17.9613
783 1 -1.1104 3.6637 23.1701 17.8268
784 1 -1.1104 3.70965 17.468 15.3051
786 1 -1.1104 3.94022 23.0096 15.1675
780 2 2.2208 2.33525 16.0852 16.5643
769 2 2.2208 5.05515 16.2267 19.4535
787 1 -1.1104 3.845 23.2156 20.6417
7405 2 2.2208 -0.509107 18.9432 16.6037
793 1 -1.1104 6.6348 23.2096 17.8536
792 1 -1.1104 6.39732 17.4728 18.0478