ITEM: TIMESTEP
50000
ITEM: NUMBER OF ATOMS
13500
ITEM: BOX BOUNDS pp pp pp
-3.9798538658315763e-01 2.7737985386583524e+01
-3.6423438709754592e+00 2.4970234387097932e+02
-4.0014293295342646e-01 2.7740142932953361e+01
ITEM: ATOMS id type q x y z
2 2 2.2208 5.27939 2.12615 5.02317
3 1 -1.1104 0.851301 -2.17789 0.828777
5 1 -1.1104 0.983303 3.32041 0.927153
11 1 -1.1104 0.997337 -2.16293 3.68403
12 1 -1.1104 1.09674 3.29154 3.9155
15 1 -1.1104 0.670374 0.75678 1.16294
19 2 2.2208 5.17806 -0.897466 2.49921
20 2 2.2208 5.14318 5.03444 2.45896
21 1 -1.1104 1.09772 0.474549 3.83437
23 1 -1.1104 3.74838 -2.05119 0.867353
25 1 -1.1104 3.74336 3.53366 0.994787
28 2 2.2208 2.36669 2.07132 2.36645
29 1 -1.1104 3.96307 -2.2835 3.88577
30 1 -1.1104 3.91412 3.62096 3.69853
31 2 2.2208 2.39879 -0.781018 5.34161
32 2 2.2208 2.54527 4.82451 5.21914
33 1 -1.1104 3.82652 0.56117 1.02727
35 1 -1.1104 3.92816 0.665311 3.76072
17 1 -1.1104 6.54545 0.56582 1.23386
14 1 -1.1104 6.53958 3.56789 3.94491
78 1 -1.1104 1.02864 6.27488 3.92783
13 1 -1.1104 6.82606 -2.10422 3.75005
7 1 -1.1104 6.64384 -2.33828 0.955114
22 1 -1.1104 6.72189 0.774879 3.86692
8 1 -1.1104 6.64137 -1.92118 6.42515
72 1 -1.1104 0.989131 6.26488 1.07267
26 1 -1.1104 3.80499 3.3984 6.57235
9 1 -1.1104 6.64734 3.45227 1.0547
96 2 2.2208 2.40522 10.4668 -0.34473
6627 2 2.2208 -0.417523 4.69077 2.45342
175 2 2.2208 10.8546 -0.648807 13.9553
36 2 2.2208 10.8134 2.0383 5.3052
37 1 -1.1104 12.3679 -2.18956 1.03041
39 1 -1.1104 12.2525 3.54497 1.04354
41 1 -1.1104 12.2624 -2.19571 3.7916
42 1 -1.1104 12.1858 3.31987 3.90616
43 1 -1.1104 12.1723 0.778431 0.85349
45 2 2.2208 10.8958 -0.8396 2.27244
46 2 2.2208 10.7476 4.82004 2.64467
47 1 -1.1104 12.3944 0.704914 3.74814
48 1 -1.1104 9.51727 -2.10003 1.00372
50 1 -1.1104 9.52481 3.53403 0.951353
52 2 2.2208 8.00466 2.08156 2.46771
53 1 -1.1104 9.62211 -2.09976 3.86818
54 1 -1.1104 9.52648 3.29903 3.85456
55 2 2.2208 8.13464 -0.555187 5.25142
56 2 2.2208 8.13918 4.81151 5.33529
57 1 -1.1104 9.35134 0.752391 1.09448
59 1 -1.1104 9.53761 0.743476 3.86746
137 1 -1.1104 9.39842 6.28796 3.92924
6597 2 2.2208 13.6642 -3.50216 2.36966
10 1 -1.1104 6.76669 3.56182 6.64033
44 1 -1.1104 12.4355 0.511268 6.60999
38 1 -1.1104 12.2197 -2.06248 6.65978
97 2 2.2208 5.22567 7.68653 -0.25317
6836 2 2.2208 -0.491297 10.4953 8.0917
247 1 -1.1104 12.2427 6.04055 12.6035
93 1 -1.1104 3.89431 6.4858 3.78965
104 1 -1.1104 6.40872 6.12827 1.00389
89 1 -1.1104 3.76287 6.29422 1.02066
63 2 2.2208 5.33071 7.75543 5.17526
64 2 2.2208 5.44466 13.1718 5.29804
65 1 -1.1104 0.935259 8.98562 0.988166
67 1 -1.1104 1.13478 14.6049 0.944141
70 1 -1.1104 0.946634 8.90186 3.75834
71 1 -1.1104 1.04665 14.605 3.90811
74 1 -1.1104 1.0096 11.9357 1.22549
77 2 2.2208 5.18494 10.6022 2.38264
79 1 -1.1104 1.04317 11.8088 3.92421
80 1 -1.1104 3.84651 9.04335 1.15929
82 1 -1.1104 3.91487 14.796 1.10838
84 2 2.2208 2.36031 7.65751 2.51785
85 2 2.2208 2.40049 13.2438 2.60304
86 1 -1.1104 3.77631 9.16906 3.89292
87 1 -1.1104 4.06498 14.6605 3.93094
88 2 2.2208 2.35158 10.389 5.26156
91 1 -1.1104 3.65429 11.8451 0.981569
94 1 -1.1104 3.83546 11.886 3.88436
107 1 -1.1104 6.65588 6.38619 3.73483
75 1 -1.1104 1.0137 11.8031 6.551
90 1 -1.1104 3.86712 6.15837 6.55342
99 1 -1.1104 6.59598 8.91331 1.02931
108 1 -1.1104 6.58202 11.7191 3.82179
61 2 2.2208 8.05183 -3.61148 2.53115
173 2 2.2208 5.10489 -3.57356 10.9164
66 1 -1.1104 1.07136 9.0323 6.70801
195 2 2.2208 10.6413 4.84415 13.7847
92 1 -1.1104 3.85493 11.7593 6.60664
69 1 -1.1104 6.58669 9.02964 6.8323
387 2 2.2208 2.29494 4.83546 -0.483997
6743 2 2.2208 13.6319 -0.604025 10.8645
235 1 -1.1104 9.4764 14.5337 9.52785
122 1 -1.1104 12.1966 6.22998 4.04925
103 1 -1.1104 6.75773 14.3985 4.00724
100 1 -1.1104 6.6981 14.5165 0.983027
133 1 -1.1104 9.46955 6.35649 1.2169
117 1 -1.1104 12.0954 6.3786 1.15814
102 1 -1.1104 6.56085 9.11232 3.82146
105 1 -1.1104 6.82912 11.7882 0.973365
109 2 2.2208 10.8253 7.61391 5.30358
110 2 2.2208 10.7912 13.2837 5.27271
111 1 -1.1104 12.1586 9.17923 1.01565
113 1 -1.1104 12.2535 14.5499 1.24751
115 1 -1.1104 12.3664 9.08558 3.90647
116 1 -1.1104 12.4104 14.6773 3.98402
119 1 -1.1104 12.4005 11.9555 1.09947
121 2 2.2208 10.933 10.6755 2.42056
123 1 -1.1104 12.3532 11.962 4.01941
124 1 -1.1104 9.34987 9.32057 1.18358
126 1 -1.1104 9.30931 14.6011 1.12724
128 2 2.2208 8.05362 7.86297 2.55822
129 2 2.2208 7.93218 13.3035 2.36907
130 1 -1.1104 9.48962 9.05591 3.97783
131 1 -1.1104 9.5841 14.5938 3.96169
132 2 2.2208 8.10534 10.4882 5.2473
135 1 -1.1104 9.47495 12.0219 1.19801
138 1 -1.1104 9.58288 11.8105 3.80943
118 1 -1.1104 12.3762 6.04097 6.93053
220 1 -1.1104 6.5692 6.39124 12.5006
127 1 -1.1104 9.46808 14.6582 6.63229
136 1 -1.1104 9.66721 11.9012 6.78951
196 2 2.2208 7.85096 -3.43655 7.98591
134 1 -1.1104 9.47448 6.24151 6.82444
120 1 -1.1104 12.3934 11.8719 6.88873
125 1 -1.1104 9.42799 9.00897 6.74467
6709 2 2.2208 -0.299662 7.70405 5.48227
24 1 -1.1104 3.88453 -2.08743 6.64337
95 2 2.2208 5.16383 13.3454 -0.351967
6 1 -1.1104 1.02175 3.42786 6.76511
4 1 -1.1104 0.967728 -2.01129 6.72962
34 1 -1.1104 3.67339 0.737659 6.69025
16 1 -1.1104 0.88518 0.652469 6.66613
146 2 2.2208 5.38075 2.12583 10.9373
147 1 -1.1104 0.954444 -1.97669 12.2884
148 1 -1.1104 0.994069 3.58319 12.266
150 1 -1.1104 0.941659 -2.0738 9.49943
151 1 -1.1104 1.14016 3.46671 9.64213
154 1 -1.1104 1.01109 0.763791 12.2031
156 2 2.2208 5.2899 -0.645177 7.94216
157 2 2.2208 5.2308 4.71336 8.09517
158 1 -1.1104 0.955936 0.721093 9.50925
160 1 -1.1104 3.77124 -2.1494 12.1246
161 1 -1.1104 3.84228 3.41744 12.16
162 2 2.2208 2.31389 1.96185 8.16721
163 1 -1.1104 3.7207 -1.83427 9.2924
164 1 -1.1104 3.83047 3.69891 9.50061
165 2 2.2208 2.41881 -0.650619 10.8473
166 2 2.2208 2.30544 5.06048 10.9537
167 1 -1.1104 3.66924 0.588332 12.2986
168 1 -1.1104 3.92266 0.822926 9.26685
218 1 -1.1104 1.04167 6.38781 12.2271
153 1 -1.1104 6.74153 3.44908 9.54391
223 1 -1.1104 0.911988 6.4432 9.45584
170 2 2.2208 5.24291 -0.626658 13.6316
112 1 -1.1104 12.1908 8.89242 6.96793
415 2 2.2208 2.13353 -0.911855 -0.56852
236 1 -1.1104 12.3741 8.89395 12.3464
249 1 -1.1104 12.271 9.12179 9.64568
18 1 -1.1104 6.58188 0.70655 6.57383
141 2 2.2208 13.633 10.4178 5.43497
76 1 -1.1104 6.76697 6.28423 6.61302
49 1 -1.1104 9.45369 -2.13715 6.86181
245 1 -1.1104 9.4859 9.03216 12.4229
176 1 -1.1104 6.79943 3.49024 12.45
40 1 -1.1104 12.3985 3.39908 6.84769
51 1 -1.1104 9.5877 3.46526 6.74578
58 1 -1.1104 9.37961 0.729 6.64192
149 1 -1.1104 6.54319 -2.09942 12.4825
152 1 -1.1104 6.68912 -2.15796 9.44335
155 1 -1.1104 6.50739 0.854642 12.3576
159 1 -1.1104 6.77632 0.753785 9.46951
177 2 2.2208 10.8669 2.05757 10.9322
178 1 -1.1104 12.1364 -2.05498 12.4505
179 1 -1.1104 12.087 3.37912 12.3912
180 1 -1.1104 12.3437 -2.21263 9.55724
181 1 -1.1104 12.2254 3.20634 9.64255
182 1 -1.1104 12.2854 0.559075 12.5018
183 2 2.2208 10.9914 -0.8327 8.17068
184 2 2.2208 10.8637 4.91579 8.2971
185 1 -1.1104 12.1352 0.532629 9.46897
186 1 -1.1104 9.24529 -2.07606 12.2725
187 1 -1.1104 9.49631 3.50812 12.2877
188 2 2.2208 8.03286 2.22333 8.01797
189 1 -1.1104 9.63909 -1.88149 9.58362
190 1 -1.1104 9.44772 3.45305 9.55337
191 2 2.2208 8.0037 -0.637078 10.8168
192 2 2.2208 8.15244 4.8551 10.8346
193 1 -1.1104 9.25131 0.788329 12.3166
194 1 -1.1104 9.29225 0.691505 9.36625
232 1 -1.1104 9.38067 6.23233 12.3391
230 1 -1.1104 9.5479 6.23584 9.55041
214 1 -1.1104 6.56243 9.18374 12.2299
238 2 2.2208 10.8806 7.67972 10.9749
73 1 -1.1104 1.09778 6.22281 6.77031
203 1 -1.1104 3.80657 6.20196 12.2072
83 1 -1.1104 3.74992 14.6453 6.74276
68 1 -1.1104 1.04113 14.7308 6.61967
114 1 -1.1104 12.377 14.684 6.6911
81 1 -1.1104 3.86879 8.87997 6.51484
201 1 -1.1104 3.89445 6.30054 9.38675
198 1 -1.1104 3.77147 9.03615 12.2571
200 1 -1.1104 3.87798 11.9358 9.36911
202 1 -1.1104 3.87846 11.7896 12.0862
204 2 2.2208 2.45432 10.4192 10.9015
205 1 -1.1104 3.74846 14.8228 9.47636
206 1 -1.1104 3.81726 9.18368 9.29416
207 2 2.2208 2.32574 13.1919 8.09293
208 2 2.2208 2.39927 7.57325 8.03888
209 1 -1.1104 3.74012 14.7265 12.3057
210 2 2.2208 5.23502 7.67951 10.6844
211 2 2.2208 5.24698 13.2214 10.8489
212 1 -1.1104 1.11743 9.12363 12.1732
213 1 -1.1104 0.747591 14.6808 12.1833
215 1 -1.1104 1.15738 9.04255 9.42647
216 1 -1.1104 0.935114 14.523 9.45608
219 1 -1.1104 0.936017 12.0669 12.196
222 2 2.2208 5.1601 10.4822 7.92511
224 1 -1.1104 1.08109 11.8544 9.38681
221 1 -1.1104 6.53591 11.8138 12.3439
217 1 -1.1104 6.66869 8.76631 9.45466
106 1 -1.1104 6.85059 11.8141 6.68509
139 2 2.2208 13.8063 13.2956 2.53465
172 2 2.2208 2.32992 -3.38085 8.13293
246 1 -1.1104 12.3826 11.8598 9.58844
225 1 -1.1104 6.68456 6.16048 9.55986
250 1 -1.1104 12.1503 6.04419 9.81704
231 1 -1.1104 9.47917 11.7783 12.4102
233 1 -1.1104 12.137 14.4813 12.4497
229 1 -1.1104 9.33299 11.724 9.54594
243 1 -1.1104 9.32898 14.5218 12.5123
244 1 -1.1104 12.3965 11.6938 12.4633
242 2 2.2208 8.06049 7.50001 8.16766
234 2 2.2208 7.96385 10.4479 10.9881
237 2 2.2208 10.8139 13.1026 10.9661
240 1 -1.1104 9.52434 8.87507 9.50441
241 2 2.2208 8.21008 13.3015 8.05175
251 1 -1.1104 6.64941 14.551 12.3633
101 1 -1.1104 6.58567 14.5811 6.69684
252 1 -1.1104 6.54529 14.5402 9.44622
199 1 -1.1104 6.59503 11.747 9.47298
239 2 2.2208 10.8547 10.4282 8.16913
248 1 -1.1104 12.222 14.5164 9.5258
435 2 2.2208 10.7375 2.1802 -0.300705
60 2 2.2208 10.7966 -3.51127 5.33606
386 2 2.2208 5.3613 -3.57119 -0.468334
197 2 2.2208 10.9399 -3.43346 10.9139
171 2 2.2208 5.17402 4.89464 13.5442
6708 2 2.2208 -0.466434 10.4738 2.4327
257 2 2.2208 13.7669 13.3366 8.18488
6752 2 2.2208 -0.390179 4.91489 8.11225
6601 2 2.2208 -0.381247 2.06208 5.27888
6580 2 2.2208 13.6264 2.10406 2.46871
6835 2 2.2208 -0.464261 13.3414 10.8356
6712 2 2.2208 -0.424105 13.1762 -0.397969
6751 2 2.2208 -0.361141 2.18868 10.8807
6626 2 2.2208 -0.402297 -0.731223 2.48699
6595 2 2.2208 13.6807 -0.712668 5.13374
145 2 2.2208 13.6897 10.5774 -0.26715
144 2 2.2208 10.8159 7.66018 -0.248885
322 2 2.2208 7.95882 -3.56925 13.7367
411 2 2.2208 5.11392 2.09308 -0.31663
436 2 2.2208 8.07826 4.74025 -0.27799
287 2 2.2208 2.28457 -3.49106 13.6664
444 2 2.2208 7.88622 -0.704687 -0.273228
255 2 2.2208 7.88662 7.85155 13.7112
6744 2 2.2208 13.5894 1.90817 13.7461
260 2 2.2208 5.32507 2.1159 16.3771
261 1 -1.1104 0.717467 -2.07546 17.8497
262 1 -1.1104 1.07843 3.50214 17.9937
263 1 -1.1104 0.944265 -1.97361 15.1193
265 1 -1.1104 1.07155 3.37441 14.9919
268 1 -1.1104 0.999714 0.83539 17.7808
269 2 2.2208 5.1113 -0.732725 19.2605
270 2 2.2208 5.26727 5.00026 19.3478
271 1 -1.1104 1.00858 0.647308 14.9958
273 1 -1.1104 3.78416 -2.10664 17.7819
274 1 -1.1104 3.92237 3.59474 17.7955
276 2 2.2208 2.37748 1.95497 19.1772
277 1 -1.1104 3.71115 -2.07213 14.9772
279 1 -1.1104 3.85999 3.46325 14.9635
281 2 2.2208 2.4488 -0.611644 16.3449
282 2 2.2208 2.54564 4.99649 16.448
283 1 -1.1104 3.8345 0.800045 17.9113
284 1 -1.1104 3.8841 0.713944 15.0763
280 1 -1.1104 3.74235 3.53493 20.6721
6873 2 2.2208 13.6188 -0.795288 16.547
293 1 -1.1104 6.7271 0.700798 17.8403
288 1 -1.1104 6.39422 -2.20258 18.0266
294 1 -1.1104 6.6476 0.710834 15.1891
272 1 -1.1104 0.92838 0.845819 20.7412
285 1 -1.1104 3.63888 0.741148 20.7456
266 1 -1.1104 0.799841 3.77792 20.8493
295 1 -1.1104 6.48123 0.740392 20.4868
511 2 2.2208 13.5127 7.61625 25.1213
412 2 2.2208 5.18853 -3.57904 21.9929
275 2 2.2208 2.39514 -3.46022 19.2904
513 2 2.2208 13.8289 10.5844 22.1744
6876 2 2.2208 13.6321 -3.38478 19.2679
6957 2 2.2208 -0.424763 13.4043 16.3429
7002 2 2.2208 -0.448144 2.17008 22.027
228 2 2.2208 2.2354 13.2854 13.614
253 2 2.2208 7.93438 13.4318 13.9174
289 1 -1.1104 6.7699 3.76148 17.9839
290 1 -1.1104 6.73111 -2.21743 15.1796
292 1 -1.1104 6.64555 3.56405 15.0792
296 2 2.2208 10.9404 2.22102 16.5205
297 1 -1.1104 12.1365 -2.03939 18.0647
298 1 -1.1104 12.2495 3.4908 17.8814
299 1 -1.1104 12.2805 -2.16513 15.2791
301 1 -1.1104 12.0968 3.49994 15.085
303 1 -1.1104 12.2147 0.652376 17.9031
304 2 2.2208 10.7702 -0.822775 19.4647
305 2 2.2208 10.9145 4.92723 19.3171
306 1 -1.1104 12.3798 0.58939 15.1303
308 1 -1.1104 9.43856 -1.99204 17.9674
309 1 -1.1104 9.47006 3.61339 17.7219
310 2 2.2208 8.04307 2.22953 19.4063
311 1 -1.1104 9.41322 -1.93657 15.2254
313 1 -1.1104 9.36328 3.44062 15.1042
315 2 2.2208 8.10113 -0.53297 16.6423
316 2 2.2208 7.97878 4.92478 16.4616
317 1 -1.1104 9.46754 0.90805 18.1319
318 1 -1.1104 9.61293 0.858099 15.2632
320 2 2.2208 10.7723 -3.46685 16.5375
6879 2 2.2208 -0.299535 4.8523 19.2443
439 2 2.2208 8.16548 -3.51835 24.8431
7001 2 2.2208 -0.499437 -0.736587 24.8511
481 2 2.2208 8.03101 10.5124 22.1859
312 1 -1.1104 9.43372 -2.17783 20.7812
302 1 -1.1104 12.1784 3.42236 20.7894
300 1 -1.1104 12.2827 -2.23347 20.8659
6841 2 2.2208 13.6431 4.82488 16.4251
350 1 -1.1104 3.57888 6.36288 15.0117
331 1 -1.1104 1.07488 6.2593 17.9303
338 1 -1.1104 6.51207 6.24914 15.0502
7089 2 2.2208 -0.321677 13.3059 22.027
335 1 -1.1104 0.869724 6.29141 15.2162
348 1 -1.1104 3.79163 6.46548 17.9977
323 2 2.2208 5.01902 7.83805 16.6251
324 2 2.2208 5.21204 13.3804 16.5537
325 1 -1.1104 0.832009 9.08691 17.8472
326 1 -1.1104 1.13795 14.6338 17.7202
328 1 -1.1104 0.971187 9.16949 14.97
329 1 -1.1104 0.854633 14.8011 14.9892
332 1 -1.1104 1.07669 11.9638 17.7713
334 2 2.2208 5.24835 10.7378 19.1908
337 1 -1.1104 0.804286 12.098 14.9126
340 1 -1.1104 3.62501 9.19867 17.9902
341 1 -1.1104 3.76423 14.7019 17.8751
342 2 2.2208 2.36259 7.75858 19.3045
343 2 2.2208 2.41944 13.4364 19.2395
344 1 -1.1104 3.6872 8.9784 15.1489
345 1 -1.1104 3.89565 14.7096 15.1601
347 2 2.2208 2.19897 10.425 16.5452
349 1 -1.1104 3.83203 11.7822 17.8099
352 1 -1.1104 3.38749 11.7635 14.8738
351 1 -1.1104 3.99988 6.29786 20.8692
450 1 -1.1104 0.879502 14.6115 20.5622
357 1 -1.1104 6.24329 11.9075 15.2922
353 1 -1.1104 6.62426 14.7623 17.7989
330 1 -1.1104 6.44287 9.30452 15.0643
6941 2 2.2208 -0.430246 7.75368 16.4141
499 2 2.2208 7.91453 7.60978 25.0742
336 1 -1.1104 1.21935 6.43325 20.7737
449 1 -1.1104 0.970428 9.09475 20.6555
459 1 -1.1104 3.7777 11.9978 20.6683
346 1 -1.1104 3.77843 14.8527 20.7405
355 1 -1.1104 6.69577 14.739 20.9032
226 2 2.2208 5.11393 10.4562 13.7926
6772 2 2.2208 -0.356442 -0.703579 13.7183
333 1 -1.1104 6.59335 6.57807 17.9168
354 1 -1.1104 6.61414 14.7305 15.1512
356 1 -1.1104 6.83022 12.0096 17.8992
380 1 -1.1104 9.33289 6.29008 15.1626
327 1 -1.1104 6.46914 9.25921 17.9354
364 1 -1.1104 12.193 6.32247 18.0092
367 1 -1.1104 12.2381 6.23615 15.3144
378 1 -1.1104 9.44285 6.3652 17.8965
358 2 2.2208 10.8267 7.70776 16.5874
359 2 2.2208 10.7828 13.2411 16.6684
360 1 -1.1104 12.2824 9.25688 17.9121
361 1 -1.1104 12.3752 14.7293 17.9858
362 1 -1.1104 12.5974 9.00219 15.2418
363 1 -1.1104 12.1812 14.6558 15.2741
365 1 -1.1104 12.3823 12.088 18.0277
366 2 2.2208 10.9044 10.6355 19.4315
369 1 -1.1104 12.2094 11.7924 15.2509
370 1 -1.1104 9.41553 9.10155 17.9823
371 1 -1.1104 9.51614 14.5807 17.992
372 2 2.2208 8.02883 7.74517 19.3593
373 2 2.2208 8.07167 13.4801 19.3678
374 1 -1.1104 9.50167 9.06408 15.2402
375 1 -1.1104 9.29148 14.7914 15.3925
377 2 2.2208 8.06562 10.5997 16.4892
379 1 -1.1104 9.46445 11.9939 18.0105
382 1 -1.1104 9.36262 11.8585 15.0485
508 1 -1.1104 6.73925 9.0389 26.2733
488 1 -1.1104 12.0563 6.29715 23.6021
501 1 -1.1104 9.46567 14.4949 23.9009
6904 2 2.2208 -0.482873 -0.638581 19.2205
278 1 -1.1104 3.83251 -2.29918 20.5952
413 2 2.2208 2.47638 -3.73263 24.7951
477 1 -1.1104 9.42247 11.9625 26.5509
264 1 -1.1104 1.19089 -1.77789 20.6418
388 2 2.2208 5.06206 2.29472 22.0349
389 1 -1.1104 0.850422 -2.06857 23.3502
390 1 -1.1104 0.991762 3.45994 23.5891
392 1 -1.1104 0.796672 -2.26225 26.2088
393 1 -1.1104 1.08411 3.43779 26.3887
396 1 -1.1104 1.08049 0.640429 23.5468
398 2 2.2208 5.23803 -0.741272 24.8778
399 2 2.2208 5.22038 4.7576 25.2173
400 1 -1.1104 0.796979 0.628152 26.5463
402 1 -1.1104 3.76045 -2.31868 23.5242
403 1 -1.1104 3.72466 3.42681 23.5541
404 2 2.2208 2.37194 2.07864 24.9475
405 1 -1.1104 3.76078 -2.12156 26.2251
406 1 -1.1104 3.80443 3.39461 26.4577
407 2 2.2208 2.43954 -0.638475 22.1787
408 2 2.2208 2.48732 4.88468 22.2285
409 1 -1.1104 3.95067 0.591888 23.5054
410 1 -1.1104 3.66695 0.722166 26.3025
394 1 -1.1104 6.60947 -2.31346 26.2183
401 1 -1.1104 6.4831 0.57158 26.3442
267 1 -1.1104 6.4212 3.5778 20.7673
397 1 -1.1104 6.68094 0.629247 23.4668
416 1 -1.1104 6.54049 -2.25516 23.4498
391 1 -1.1104 6.52614 3.20973 23.6358
395 1 -1.1104 6.62983 3.4469 26.3986
494 1 -1.1104 12.3768 11.9438 20.7097
384 2 2.2208 13.8823 13.3381 19.3977
486 2 2.2208 10.8386 7.71357 22.18
491 1 -1.1104 12.2689 9.14406 20.8714
512 2 2.2208 13.9006 13.4152 25.1246
503 1 -1.1104 12.3972 9.07536 26.4522
506 1 -1.1104 12.2154 11.8707 26.4777
307 1 -1.1104 12.2309 0.594183 20.6983
291 1 -1.1104 6.6316 -2.24545 20.6698
314 1 -1.1104 9.40972 3.44654 20.7622
319 1 -1.1104 9.29432 0.664438 20.7528
417 2 2.2208 10.7684 2.02544 22.1846
418 1 -1.1104 12.2495 -2.15884 23.7059
419 1 -1.1104 12.0593 3.71376 23.5856
420 1 -1.1104 12.2433 -2.02929 26.5051
421 1 -1.1104 12.0859 3.57394 26.3285
422 1 -1.1104 12.0265 0.667849 23.556
423 2 2.2208 10.7664 -0.740548 24.8589
424 2 2.2208 10.6225 4.95749 25.0479
425 1 -1.1104 11.9451 0.798264 26.2734
426 1 -1.1104 9.42105 -2.19389 23.4422
427 1 -1.1104 9.35092 3.51132 23.5281
428 2 2.2208 7.96118 2.05697 24.8996
429 1 -1.1104 9.42793 -2.23312 26.1835
430 1 -1.1104 9.29336 3.33524 26.2989
431 2 2.2208 7.96188 -0.72233 22.0813
432 2 2.2208 8.04048 4.95691 22.1753
433 1 -1.1104 9.422 0.684584 23.5777
434 1 -1.1104 9.39331 0.510257 26.5167
480 1 -1.1104 9.3833 6.20966 23.6027
500 1 -1.1104 12.4538 14.7717 26.6528
479 1 -1.1104 9.3762 11.6848 23.6587
483 1 -1.1104 11.9133 6.25005 26.5031
489 1 -1.1104 9.6501 9.01188 26.5733
493 1 -1.1104 6.49733 11.7559 26.4565
339 1 -1.1104 6.62297 6.37356 20.8622
505 1 -1.1104 12.3893 9.10948 23.6528
451 1 -1.1104 6.57276 9.34402 20.7111
455 1 -1.1104 1.03315 11.895 20.6457
453 1 -1.1104 3.9178 6.32694 23.4998
448 1 -1.1104 3.69999 6.31096 26.4314
469 1 -1.1104 1.0396 6.20643 23.6464
458 1 -1.1104 3.80196 9.14404 20.6919
474 1 -1.1104 0.787251 6.21008 26.3467
445 1 -1.1104 3.86153 9.07046 26.3746
446 2 2.2208 2.44706 13.2466 24.981
447 1 -1.1104 3.88197 11.9377 26.2965
452 1 -1.1104 3.64947 12.0668 23.586
454 2 2.2208 2.40467 7.53147 24.9125
456 1 -1.1104 3.85326 14.7323 23.6656
457 1 -1.1104 3.83602 9.19076 23.5187
460 1 -1.1104 0.98074 12.0786 26.358
461 2 2.2208 2.47878 10.628 22.0979
462 2 2.2208 5.28713 7.798 22.1317
463 2 2.2208 5.25093 13.3495 22.3757
464 1 -1.1104 1.0268 9.03705 23.3237
465 1 -1.1104 1.06478 14.7638 23.4788
467 1 -1.1104 1.06577 9.13676 26.3535
468 1 -1.1104 0.969049 14.7241 26.2385
470 1 -1.1104 0.95044 11.9348 23.5848
472 1 -1.1104 3.88078 14.7572 26.4652
473 2 2.2208 5.28215 10.5371 24.9775
507 1 -1.1104 6.83742 14.6739 23.4829
498 2 2.2208 7.98461 13.2836 25.1719
487 1 -1.1104 12.3944 11.8933 23.4702
368 1 -1.1104 12.2211 6.23832 20.7915
484 2 2.2208 10.9573 13.2365 22.2635
504 1 -1.1104 12.44 14.8111 23.6327
485 2 2.2208 10.9974 10.633 24.9519
502 1 -1.1104 9.4494 8.96065 23.7125
478 1 -1.1104 9.19543 6.28951 26.5236
490 1 -1.1104 6.53597 12.1679 20.7894
495 1 -1.1104 6.31637 6.29114 26.3884
510 1 -1.1104 6.50018 11.9113 23.6958
509 1 -1.1104 6.53725 14.5725 26.2191
497 1 -1.1104 9.60502 11.9726 20.8017
466 1 -1.1104 6.6832 9.07022 23.5299
482 1 -1.1104 9.55077 14.6062 26.614
496 1 -1.1104 9.62268 9.02312 20.8215
376 1 -1.1104 9.5931 14.6697 21.0687
492 1 -1.1104 12.2792 14.773 20.8594
381 1 -1.1104 9.3396 6.31357 20.6946
471 1 -1.1104 6.75235 6.22468 23.7844
476 2 2.2208 -0.291563 7.65244 22.0964
6840 2 2.2208 -0.411755 10.6368 13.6319
475 2 2.2208 -0.325671 10.4127 24.9399
142 2 2.2208 10.9587 13.2617 27.9557
254 2 2.2208 10.9862 10.4979 13.7589
98 2 2.2208 -0.521109 7.71196 27.8031
227 2 2.2208 2.33787 7.80008 13.6867
143 2 2.2208 8.0902 10.3884 27.7898
174 2 2.2208 8.0467 2.08914 13.8141
169 2 2.2208 2.51188 2.03081 13.6107
442 2 2.2208 10.882 -3.54208 27.7458
7003 2 2.2208 -0.489766 2.1046 27.7464
6771 2 2.2208 -0.289063 4.81764 13.7672
514 2 2.2208 5.25847 18.8049 5.19121
515 2 2.2208 5.28897 24.4916 5.24986
516 1 -1.1104 1.03985 20.195 1.14582
518 1 -1.1104 0.901834 20.3226 3.95134
519 1 -1.1104 1.11578 17.4819 0.934975
521 1 -1.1104 0.825135 23.1141 1.04866
523 2 2.2208 5.26373 21.6577 2.26932
524 1 -1.1104 1.07056 17.3283 3.75728
525 1 -1.1104 1.02287 23.063 3.9363
526 1 -1.1104 3.95106 20.3631 1.00587
528 2 2.2208 2.47576 18.8184 2.4561
529 2 2.2208 2.45475 24.5345 2.32389
530 1 -1.1104 3.72891 20.2303 3.85317
729 1 -1.1104 12.0729 25.7512 12.348
532 2 2.2208 2.48263 21.8088 5.22479
533 1 -1.1104 3.87316 17.5958 0.873764
535 1 -1.1104 3.8574 22.9844 0.966208
536 1 -1.1104 3.75749 17.4496 3.82305
537 1 -1.1104 3.87011 23.0094 3.76166
522 2 2.2208 5.1296 16.1648 2.46497
627 1 -1.1104 1.17405 23.3632 6.5977
926 2 2.2208 10.8577 24.4214 -0.328028
628 1 -1.1104 3.87146 23.0031 6.44654
538 2 2.2208 2.33317 16.0042 -0.434045
902 2 2.2208 2.42238 21.625 -0.406459
752 1 -1.1104 6.55618 25.6309 12.3155
653 1 -1.1104 6.47971 23.1259 6.78516
531 2 2.2208 2.48041 15.9875 5.28185
903 2 2.2208 5.38447 24.3913 -0.285632
7328 2 2.2208 13.742 33.0003 10.871
541 1 -1.1104 6.90726 17.3322 1.17078
545 1 -1.1104 6.60135 23.1089 3.7894
540 1 -1.1104 6.67582 20.3912 3.89038
543 1 -1.1104 6.6315 23.1322 0.863796
553 2 2.2208 10.9019 15.8957 2.57661
723 1 -1.1104 9.36832 28.7798 12.1639
539 1 -1.1104 6.70087 20.1119 0.716205
544 1 -1.1104 6.54941 17.3762 3.84159
546 2 2.2208 11.026 18.8643 5.442
547 2 2.2208 10.9114 24.5717 5.37983
548 1 -1.1104 12.3058 20.4022 0.922245
549 1 -1.1104 12.3683 20.3305 4.02103
550 1 -1.1104 12.4375 17.3552 1.30054
552 1 -1.1104 12.2487 23.0836 1.21015
554 2 2.2208 10.8515 21.6335 2.57396
555 1 -1.1104 12.352 17.3552 3.95345
556 1 -1.1104 12.2589 23.1638 4.05999
557 1 -1.1104 9.53651 20.1527 1.16968
558 2 2.2208 8.05392 18.8308 2.49968
559 2 2.2208 8.05251 24.7188 2.49258
560 1 -1.1104 9.40348 20.4798 3.94169
562 2 2.2208 7.93357 21.7693 5.28236
563 1 -1.1104 9.66528 17.3862 1.01246
565 1 -1.1104 9.3325 23.1063 1.03026
566 1 -1.1104 9.41529 17.3985 3.87595
567 1 -1.1104 9.42261 23.4752 3.93655
561 2 2.2208 8.21149 15.9856 5.29262
542 1 -1.1104 6.62998 17.4935 6.759
658 1 -1.1104 9.28003 23.1066 6.67993
724 1 -1.1104 12.2637 31.5858 9.37292
687 2 2.2208 -0.532398 30.0943 11.1738
755 1 -1.1104 6.56116 31.4332 9.46997
726 2 2.2208 8.13513 32.8978 10.9097
954 2 2.2208 2.4202 27.2667 -0.348172
721 1 -1.1104 9.43505 28.8074 9.35599
591 2 2.2208 2.39752 32.9371 -0.410395
737 2 2.2208 8.1399 30.2853 8.23856
569 2 2.2208 5.25773 30.2234 5.36491
570 1 -1.1104 1.1235 25.9053 1.02632
571 1 -1.1104 0.898321 31.5237 1.02361
572 1 -1.1104 1.18082 25.9766 3.76579
573 1 -1.1104 0.957404 31.4359 4.00583
574 1 -1.1104 1.06997 28.5731 1.16033
575 1 -1.1104 0.978918 34.1883 1.16611
576 2 2.2208 5.05513 27.3584 2.57817
577 2 2.2208 5.2446 33.0261 2.48287
578 1 -1.1104 0.971214 28.6964 3.98839
579 1 -1.1104 0.944179 34.2555 3.89114
580 1 -1.1104 3.92655 25.7296 1.16386
581 1 -1.1104 3.56212 31.3693 0.940559
582 2 2.2208 2.33976 30.0654 2.54757
583 1 -1.1104 3.99255 25.8368 4.02325
584 1 -1.1104 3.65302 31.2864 4.05905
585 2 2.2208 2.51813 27.2066 5.42256
586 2 2.2208 2.44376 32.832 5.36951
587 1 -1.1104 3.89754 28.5921 1.07827
588 1 -1.1104 3.83487 34.4144 0.971054
589 1 -1.1104 3.65717 28.6354 3.93279
590 1 -1.1104 3.8945 34.2843 3.87531
955 2 2.2208 5.18521 30.173 -0.263241
695 1 -1.1104 3.82139 31.5229 6.90699
725 1 -1.1104 12.2849 25.6961 9.61119
744 1 -1.1104 9.52043 31.6526 6.66592
600 1 -1.1104 6.73568 28.9288 4.02336
594 1 -1.1104 6.56787 25.8576 1.05607
734 1 -1.1104 6.65651 31.8286 6.6766
599 1 -1.1104 6.63861 34.2262 0.983753
597 1 -1.1104 6.58853 31.7689 4.04801
601 1 -1.1104 6.48071 34.5765 3.62576
595 1 -1.1104 6.44604 31.5434 1.17407
598 1 -1.1104 6.5907 28.7118 1.26085
596 1 -1.1104 6.75505 25.9143 3.9819
602 2 2.2208 10.8104 30.1591 5.18849
603 1 -1.1104 12.0117 25.8272 1.07371
604 1 -1.1104 12.2819 31.4719 1.08718
605 1 -1.1104 12.1194 25.8879 3.78528
606 1 -1.1104 12.1918 31.3957 3.95573
607 1 -1.1104 12.2611 28.6696 1.00162
608 1 -1.1104 12.0871 34.14 0.900912
609 2 2.2208 10.8381 27.3759 2.4556
610 2 2.2208 10.6648 32.9024 2.30524
611 1 -1.1104 12.3395 28.8407 3.87073
612 1 -1.1104 12.1694 34.1227 3.8474
613 1 -1.1104 9.3234 25.9661 1.02413
614 1 -1.1104 9.51357 31.4015 1.0006
615 2 2.2208 8.06733 30.1289 2.36353
616 1 -1.1104 9.36152 26.1972 3.89323
617 1 -1.1104 9.51298 31.682 3.8956
618 2 2.2208 8.13066 27.4615 5.35601
619 2 2.2208 8.09414 33.0186 5.17349
620 1 -1.1104 9.39749 28.8492 0.864349
621 1 -1.1104 9.5066 34.2924 0.866979
622 1 -1.1104 9.39351 29.0298 3.88184
623 1 -1.1104 9.26321 34.425 3.81064
739 1 -1.1104 12.2745 26.0222 6.75002
741 1 -1.1104 12.3185 28.6439 6.56054
735 1 -1.1104 6.61182 29.0266 6.82855
7282 2 2.2208 -0.357154 21.7072 7.96151
749 1 -1.1104 12.2389 28.6816 9.37514
626 2 2.2208 10.8262 30.1437 -0.423355
740 1 -1.1104 12.6245 31.5956 6.77484
985 2 2.2208 7.90912 27.4035 -0.184574
643 2 2.2208 2.31106 16.0349 10.9079
520 1 -1.1104 1.04229 17.5343 6.63678
517 1 -1.1104 1.27201 20.2576 6.55
534 1 -1.1104 3.87831 17.3462 6.55348
527 1 -1.1104 4.10886 20.0134 6.69158
635 2 2.2208 5.17057 16.0948 8.1382
629 2 2.2208 5.08335 18.8404 10.9612
630 2 2.2208 5.20757 24.431 10.772
631 1 -1.1104 0.925922 20.1989 12.3719
632 1 -1.1104 0.891322 20.4078 9.52239
633 1 -1.1104 0.999406 17.5365 12.1843
634 1 -1.1104 0.861919 22.9586 12.1707
636 2 2.2208 5.28262 21.5603 8.25765
637 1 -1.1104 1.01447 17.4601 9.42881
638 1 -1.1104 0.922566 23.1753 9.48348
639 1 -1.1104 3.61651 20.1279 12.0694
640 2 2.2208 2.48385 18.8014 8.03915
641 2 2.2208 2.26089 24.661 8.10892
642 1 -1.1104 3.69389 20.2479 9.3624
644 2 2.2208 2.2525 21.6689 10.8907
645 1 -1.1104 3.71484 17.4458 12.5254
646 1 -1.1104 3.71005 23.0448 12.1113
647 1 -1.1104 3.58936 17.2956 9.52793
648 1 -1.1104 3.81773 23.1248 9.38624
664 1 -1.1104 6.68534 22.9801 9.58712
662 1 -1.1104 6.54682 22.9537 12.5623
661 1 -1.1104 6.59758 17.5316 12.2767
759 1 -1.1104 12.2316 28.7632 12.2773
758 1 -1.1104 12.3552 34.1939 12.2291
7281 2 2.2208 -0.363521 16.1061 8.09292
7523 2 2.2208 13.7917 21.6329 -0.353896
656 1 -1.1104 9.36224 20.3407 6.48696
655 1 -1.1104 12.3059 23.2147 6.73287
663 1 -1.1104 6.41364 17.4024 9.50999
652 1 -1.1104 6.68104 20.232 6.69688
654 1 -1.1104 12.1349 20.2853 6.78759
551 1 -1.1104 12.251 17.4673 6.65337
564 1 -1.1104 9.37379 17.4017 6.73332
659 1 -1.1104 6.30617 20.3461 12.2602
660 1 -1.1104 6.62945 20.0403 9.58099
671 2 2.2208 10.9993 16.1051 8.08879
679 2 2.2208 7.97672 15.9974 10.979
665 2 2.2208 10.8931 18.9808 10.735
666 2 2.2208 10.7179 24.458 11.0137
667 1 -1.1104 12.1948 20.1934 12.2274
668 1 -1.1104 12.1753 20.1387 9.39102
669 1 -1.1104 12.0161 17.3894 12.1744
670 1 -1.1104 12.1971 22.9422 12.293
672 2 2.2208 10.7826 21.6855 8.07324
673 1 -1.1104 12.3476 17.3476 9.59278
674 1 -1.1104 12.2907 22.8871 9.38243
675 1 -1.1104 9.23208 20.3027 12.3292
676 2 2.2208 7.97083 18.7894 8.13629
677 2 2.2208 8.10075 24.4884 8.08072
678 1 -1.1104 9.41156 20.3852 9.49946
680 2 2.2208 7.86084 21.5214 10.9276
681 1 -1.1104 9.39373 17.5131 12.1624
682 1 -1.1104 9.34958 23.3339 12.4839
683 1 -1.1104 9.61893 17.4049 9.35244
684 1 -1.1104 9.41376 23.2356 9.52699
731 1 -1.1104 9.69724 31.6661 9.56321
592 2 2.2208 -0.463803 32.9901 2.5377
750 2 2.2208 10.9575 32.9273 7.94957
738 1 -1.1104 9.45135 31.3597 12.3042
693 1 -1.1104 0.901253 34.1594 6.80501
694 1 -1.1104 3.90897 25.8772 6.7785
699 1 -1.1104 3.62187 34.3518 6.73948
754 1 -1.1104 6.77738 25.8244 9.47033
692 1 -1.1104 1.08858 28.6464 6.7496
691 1 -1.1104 0.997583 31.4122 7.03213
690 1 -1.1104 0.990618 25.9137 6.72112
717 1 -1.1104 3.91818 26.08 9.37084
698 1 -1.1104 3.86574 28.6804 6.81517
689 1 -1.1104 3.51531 34.4499 9.43594
696 1 -1.1104 3.92848 28.7063 9.51688
697 1 -1.1104 3.69854 34.4759 12.1037
700 1 -1.1104 3.74328 28.9607 12.3041
701 2 2.2208 2.39438 33.0152 10.8494
702 2 2.2208 2.31888 27.3464 10.911
703 2 2.2208 5.21632 30.1339 10.7986
704 1 -1.1104 0.974345 25.8606 12.4963
705 1 -1.1104 0.840447 31.4653 12.5121
706 1 -1.1104 0.953994 25.8581 9.61658
707 1 -1.1104 0.768887 31.424 9.73559
708 1 -1.1104 0.759549 28.6835 12.3053
709 1 -1.1104 1.0054 34.3976 12.524
710 2 2.2208 5.33725 27.4196 8.12241
711 2 2.2208 5.09648 33.0561 8.3042
712 1 -1.1104 0.952545 28.6234 9.46755
713 1 -1.1104 0.802212 34.3112 9.56197
714 1 -1.1104 3.83589 25.95 12.1274
715 1 -1.1104 3.69063 31.7837 12.2116
716 2 2.2208 2.49249 30.0583 8.10713
718 1 -1.1104 3.7695 31.5518 9.63869
757 1 -1.1104 6.62482 34.1717 12.0532
733 1 -1.1104 6.77125 26.1171 6.64399
751 2 2.2208 10.9171 27.4873 8.0197
732 1 -1.1104 9.57073 26.0956 9.48123
730 2 2.2208 10.8262 30.1298 10.8618
747 1 -1.1104 9.19062 26.073 12.2752
728 1 -1.1104 12.304 31.4145 12.1641
742 1 -1.1104 12.3679 34.3676 6.60883
743 1 -1.1104 9.46174 25.9268 6.69062
748 1 -1.1104 12.2799 34.4775 9.46462
727 2 2.2208 7.97756 27.2888 10.8122
722 1 -1.1104 9.47672 34.2652 12.1845
756 1 -1.1104 6.5054 28.6827 12.1534
760 1 -1.1104 6.69839 28.7436 9.4942
720 1 -1.1104 9.53596 34.3278 9.23281
761 1 -1.1104 6.50047 34.3234 9.37574
753 1 -1.1104 6.36342 31.4949 12.2791
736 1 -1.1104 6.68508 34.5014 6.54757
746 1 -1.1104 9.60858 34.2955 6.4841
745 1 -1.1104 9.41581 28.8831 6.71995
688 2 2.2208 -0.487211 27.3312 8.0919
7279 2 2.2208 -0.434313 18.769 10.8988
925 2 2.2208 10.8821 18.7548 -0.3041
7133 2 2.2208 13.8867 16.1612 -0.0982904
7219 2 2.2208 -0.430003 27.3712 2.5553
568 2 2.2208 8.13003 16.0582 -0.359901
7160 2 2.2208 -0.386466 21.6645 2.40512
7162 2 2.2208 -0.243736 18.908 5.23035
7131 2 2.2208 13.8699 18.9492 2.59746
7118 2 2.2208 13.7936 16.1173 5.37114
719 2 2.2208 -0.44248 32.8562 8.16085
7113 2 2.2208 13.5235 24.4536 2.40465
7251 2 2.2208 13.6461 21.5214 10.9399
593 2 2.2208 -0.258907 30.1011 5.38588
7619 2 2.2208 13.5124 27.2973 -0.388737
7195 2 2.2208 13.6166 30.0512 2.36458