ITEM: TIMESTEP
100000
ITEM: NUMBER OF ATOMS
13500
ITEM: BOX BOUNDS pp pp pp
-3.8966412703942127e-01 2.7729664127040298e+01
-3.6187975022766414e+00 2.4967879750227817e+02
-4.0056334309146263e-01 2.7740563343091431e+01
ITEM: ATOMS id type q x y z
2 2 2.2208 5.24128 2.05 5.33362
3 1 -1.1104 0.813387 -2.41223 0.807308
5 1 -1.1104 1.00926 3.40937 1.1468
11 1 -1.1104 0.82644 -2.32092 3.60981
12 1 -1.1104 0.78887 3.21657 3.91329
15 1 -1.1104 1.10754 0.486526 1.14083
19 2 2.2208 5.15338 -0.59356 2.44284
20 2 2.2208 5.17248 4.68682 2.48315
21 1 -1.1104 0.952474 0.451441 4.04047
23 1 -1.1104 3.78216 -2.21572 1.07024
25 1 -1.1104 3.82687 3.27679 1.1615
28 2 2.2208 2.4004 2.00345 2.58952
29 1 -1.1104 3.66493 -1.9929 3.75642
30 1 -1.1104 3.76481 3.47996 4.01949
31 2 2.2208 2.45864 -0.835342 5.44495
32 2 2.2208 2.37161 4.7456 5.4751
33 1 -1.1104 3.78928 0.59653 1.0626
35 1 -1.1104 3.6961 0.614703 3.88708
7 1 -1.1104 6.62779 -1.94008 1.06695
6751 2 2.2208 -0.389888 1.80718 10.8714
236 1 -1.1104 12.1915 9.09243 12.2923
14 1 -1.1104 6.48873 3.31498 3.9502
6715 2 2.2208 13.7455 1.86712 8.09394
97 2 2.2208 5.07246 7.69261 -0.273319
89 1 -1.1104 3.71479 6.11407 1.0696
78 1 -1.1104 0.907562 6.01796 3.90882
141 2 2.2208 13.4874 10.3426 5.09917
217 1 -1.1104 6.7351 9.16882 9.485
8 1 -1.1104 6.61661 -2.30555 6.51037
6601 2 2.2208 -0.612173 1.89422 5.23921
95 2 2.2208 5.1989 13.1955 -0.331352
172 2 2.2208 2.31264 -3.6423 8.13299
435 2 2.2208 10.9504 1.74115 -0.438038
9 1 -1.1104 6.85853 3.54198 1.09814
17 1 -1.1104 6.50293 0.764124 1.09933
256 2 2.2208 13.6031 7.6159 7.93406
22 1 -1.1104 6.41528 0.500805 4.06235
13 1 -1.1104 6.5001 -2.06835 3.73563
36 2 2.2208 10.8356 1.96381 5.21091
37 1 -1.1104 12.254 -2.24638 1.01015
39 1 -1.1104 12.3386 3.29288 0.889225
41 1 -1.1104 12.1842 -2.11974 3.80352
42 1 -1.1104 12.2552 3.25888 3.8671
43 1 -1.1104 12.3699 0.483021 0.889733
45 2 2.2208 10.9138 -0.757788 2.30222
46 2 2.2208 10.843 4.87786 2.43854
47 1 -1.1104 12.0869 0.747542 3.74236
48 1 -1.1104 9.60202 -2.18806 0.82814
50 1 -1.1104 9.49584 3.30624 1.00839
52 2 2.2208 8.10154 2.02559 2.46748
53 1 -1.1104 9.30281 -2.15294 3.90166
54 1 -1.1104 9.36764 3.52468 3.88028
55 2 2.2208 7.93254 -0.797193 5.13873
56 2 2.2208 8.017 4.85856 5.35204
57 1 -1.1104 9.57956 0.616058 0.993945
59 1 -1.1104 9.33642 0.684042 3.76641
6594 2 2.2208 13.5774 4.78696 5.41251
233 1 -1.1104 12.2124 14.681 12.3979
51 1 -1.1104 9.43217 3.30131 6.59765
44 1 -1.1104 12.271 0.535592 6.66595
258 2 2.2208 13.6323 10.507 10.946
247 1 -1.1104 12.128 6.18447 12.1418
436 2 2.2208 8.13194 4.84535 -0.381406
1 2 2.2208 5.29856 -3.50876 5.22735
72 1 -1.1104 0.92733 6.17926 1.07539
93 1 -1.1104 3.93234 6.15162 4.0142
63 2 2.2208 5.34661 7.59149 5.28693
64 2 2.2208 5.17609 13.1541 5.28278
65 1 -1.1104 0.916323 8.90529 1.27198
67 1 -1.1104 0.909612 14.6333 1.03639
70 1 -1.1104 0.85275 8.98463 4.04978
71 1 -1.1104 0.899797 14.7089 3.70262
74 1 -1.1104 0.716785 11.7701 1.00267
77 2 2.2208 5.19901 10.3501 2.45648
79 1 -1.1104 0.897602 11.9315 3.84278
80 1 -1.1104 3.72683 9.0263 1.09215
82 1 -1.1104 3.68043 14.616 1.16308
84 2 2.2208 2.3231 7.51632 2.40017
85 2 2.2208 2.3063 13.2332 2.43065
86 1 -1.1104 3.67326 8.88759 3.93309
87 1 -1.1104 3.71075 14.765 3.92387
88 2 2.2208 2.33724 10.3225 5.33751
91 1 -1.1104 4.07107 11.7117 1.14075
94 1 -1.1104 3.68876 11.7162 3.9501
83 1 -1.1104 3.91454 14.7125 6.66273
107 1 -1.1104 6.65184 6.19317 3.84606
99 1 -1.1104 6.53389 9.09699 0.942421
68 1 -1.1104 0.989948 14.6504 6.53157
105 1 -1.1104 6.81118 11.9618 0.973906
102 1 -1.1104 6.40091 9.0336 3.81044
103 1 -1.1104 6.46299 14.745 3.83147
106 1 -1.1104 6.52645 11.8784 6.68633
197 2 2.2208 10.9227 -3.61404 10.9228
6752 2 2.2208 -0.56147 4.72156 8.08609
90 1 -1.1104 3.77483 6.30657 6.84465
96 2 2.2208 2.30423 10.5622 -0.309435
240 1 -1.1104 9.48415 8.96735 9.57388
104 1 -1.1104 6.34534 6.30573 1.19056
134 1 -1.1104 9.22964 6.21287 6.81766
122 1 -1.1104 12.2371 6.0264 3.96489
137 1 -1.1104 9.54201 6.23558 3.77587
117 1 -1.1104 12.2569 5.99495 0.877727
108 1 -1.1104 6.56611 11.9172 4.00454
100 1 -1.1104 6.50496 14.6337 0.901489
133 1 -1.1104 9.405 6.09401 1.07483
109 2 2.2208 10.6502 7.59699 5.30526
110 2 2.2208 10.842 13.2534 5.18935
111 1 -1.1104 12.1042 8.93356 0.794676
113 1 -1.1104 12.1032 14.6204 1.1294
115 1 -1.1104 11.994 8.95329 3.84976
116 1 -1.1104 11.9712 14.7607 4.02439
119 1 -1.1104 12.262 11.8951 1.06863
121 2 2.2208 10.6877 10.3873 2.39009
123 1 -1.1104 12.1752 11.6728 3.8114
124 1 -1.1104 9.46699 8.87192 0.852607
126 1 -1.1104 9.42272 14.6064 0.999194
128 2 2.2208 7.86082 7.61541 2.33625
129 2 2.2208 8.04648 13.4001 2.35788
130 1 -1.1104 9.26231 9.10156 3.79206
131 1 -1.1104 9.45852 14.7436 3.85332
132 2 2.2208 7.95468 10.3912 5.2152
135 1 -1.1104 9.55582 11.8435 0.866011
138 1 -1.1104 9.3674 11.8738 3.67715
118 1 -1.1104 12.1072 6.25388 6.54836
112 1 -1.1104 12.1329 8.89782 6.56026
136 1 -1.1104 9.41712 11.8954 6.52935
120 1 -1.1104 12.4178 11.5602 6.71946
127 1 -1.1104 9.34766 14.5657 6.59299
69 1 -1.1104 6.76853 9.10092 6.64759
244 1 -1.1104 12.4858 11.7313 12.3724
60 2 2.2208 10.7011 -3.49511 5.30478
4 1 -1.1104 0.970602 -2.17329 6.69863
6 1 -1.1104 0.821756 3.40053 6.67152
26 1 -1.1104 3.81058 3.69713 6.73982
34 1 -1.1104 3.69985 0.619635 6.7949
16 1 -1.1104 0.936848 0.624393 6.86778
24 1 -1.1104 3.82487 -2.1712 6.77682
146 2 2.2208 5.23433 2.00879 10.884
147 1 -1.1104 1.07841 -2.37271 12.3323
148 1 -1.1104 0.844123 3.3433 12.4244
150 1 -1.1104 0.988845 -2.35344 9.56811
151 1 -1.1104 0.800363 3.38048 9.58916
154 1 -1.1104 1.06903 0.350152 12.1848
156 2 2.2208 5.17166 -0.695007 8.05913
157 2 2.2208 5.16923 4.89016 8.28088
158 1 -1.1104 1.0689 0.638138 9.48363
160 1 -1.1104 4.02647 -2.22535 12.4625
161 1 -1.1104 3.79641 3.52779 12.148
162 2 2.2208 2.43178 2.09667 8.08232
163 1 -1.1104 3.83912 -2.18648 9.5907
164 1 -1.1104 3.70662 3.48209 9.4114
165 2 2.2208 2.44653 -1.04496 10.8165
166 2 2.2208 2.21366 4.79194 10.7992
167 1 -1.1104 3.88411 0.516071 12.3271
168 1 -1.1104 3.87364 0.733194 9.38965
152 1 -1.1104 6.41043 -2.18844 9.51549
149 1 -1.1104 6.72254 -2.37918 12.1574
18 1 -1.1104 6.72661 0.734504 6.66037
241 2 2.2208 7.96695 13.0723 8.03064
196 2 2.2208 7.98498 -3.67562 8.09398
438 2 2.2208 13.6847 -0.975933 -0.397148
10 1 -1.1104 6.51707 3.39206 6.76197
58 1 -1.1104 9.35163 0.567311 6.41466
155 1 -1.1104 6.76877 0.538669 12.2863
199 1 -1.1104 6.5085 12.043 9.61958
40 1 -1.1104 12.2729 3.17902 6.78462
176 1 -1.1104 6.59746 3.35619 12.3873
38 1 -1.1104 12.1919 -2.08902 6.52531
49 1 -1.1104 9.37529 -2.27446 6.73474
153 1 -1.1104 6.67925 3.2527 9.64611
159 1 -1.1104 6.76288 0.547335 9.41416
177 2 2.2208 10.9576 1.97162 10.8184
178 1 -1.1104 12.2378 -2.27626 12.3826
179 1 -1.1104 12.2994 3.30432 12.4676
180 1 -1.1104 12.1788 -2.3647 9.34948
181 1 -1.1104 12.2812 3.46736 9.48443
182 1 -1.1104 12.4385 0.429939 12.3288
183 2 2.2208 10.6939 -0.926042 7.94613
184 2 2.2208 10.9432 4.92275 8.20948
185 1 -1.1104 12.1784 0.508825 9.4632
186 1 -1.1104 9.63115 -2.23444 12.1477
187 1 -1.1104 9.45314 3.36799 12.1411
188 2 2.2208 8.15072 1.88658 8.06962
189 1 -1.1104 9.39949 -2.0694 9.68231
190 1 -1.1104 9.38933 3.37111 9.42723
191 2 2.2208 8.02102 -0.863339 10.8668
192 2 2.2208 7.99678 4.80079 10.8015
193 1 -1.1104 9.35565 0.463935 12.4425
194 1 -1.1104 9.55462 0.69872 9.47338
101 1 -1.1104 6.69252 14.6621 6.77291
234 2 2.2208 7.9568 10.4558 11.0198
229 1 -1.1104 9.43685 11.9035 9.40041
232 1 -1.1104 9.48095 6.1158 12.3088
250 1 -1.1104 12.524 6.11575 9.28364
245 1 -1.1104 9.45078 8.89296 12.378
251 1 -1.1104 6.53751 14.5845 12.3558
92 1 -1.1104 3.69556 11.8619 6.79825
81 1 -1.1104 3.92906 9.06106 6.82759
76 1 -1.1104 6.61542 6.30176 6.55932
203 1 -1.1104 3.9245 6.33763 12.4626
201 1 -1.1104 3.82897 6.18688 9.72863
223 1 -1.1104 0.977518 6.25469 9.56116
218 1 -1.1104 0.998452 6.07408 12.2832
75 1 -1.1104 0.812746 11.8377 6.85487
73 1 -1.1104 0.731579 6.16039 6.88214
66 1 -1.1104 1.3421 9.02495 6.75552
198 1 -1.1104 3.94773 9.29479 12.3848
200 1 -1.1104 3.75227 11.9099 9.69505
202 1 -1.1104 4.04297 12.0015 12.5059
204 2 2.2208 2.45132 10.3487 10.9141
205 1 -1.1104 3.56524 14.6266 9.38176
206 1 -1.1104 3.8325 8.98619 9.4694
207 2 2.2208 2.33319 13.3107 7.9976
208 2 2.2208 2.45921 7.5609 8.19593
209 1 -1.1104 3.66623 14.7349 12.198
210 2 2.2208 5.21238 7.78127 10.9876
211 2 2.2208 5.09364 13.3952 10.9708
212 1 -1.1104 1.11612 8.98299 12.3499
213 1 -1.1104 0.982984 14.6511 12.3618
215 1 -1.1104 0.942234 9.01418 9.56136
216 1 -1.1104 0.892866 14.6094 9.31579
219 1 -1.1104 1.063 11.9355 12.5213
222 2 2.2208 5.02348 10.5186 8.19135
224 1 -1.1104 0.905557 11.7035 9.5232
252 1 -1.1104 6.66827 14.7347 9.58279
221 1 -1.1104 6.7272 11.7095 12.3338
235 1 -1.1104 9.57448 14.6878 9.57399
242 2 2.2208 8.10066 7.7778 8.16307
238 2 2.2208 10.7969 7.6825 10.9552
248 1 -1.1104 12.3577 14.4892 9.33671
231 1 -1.1104 9.59602 11.8261 12.4111
237 2 2.2208 10.9277 13.2927 11.1413
114 1 -1.1104 12.1717 14.3387 6.68051
239 2 2.2208 10.9309 10.4776 8.08363
125 1 -1.1104 9.49526 9.1619 6.81355
214 1 -1.1104 6.75241 9.03813 12.2585
230 1 -1.1104 9.49261 6.12883 9.61183
225 1 -1.1104 6.62194 6.30345 9.50195
243 1 -1.1104 9.34785 14.6357 12.363
249 1 -1.1104 12.2365 8.85022 9.34241
246 1 -1.1104 12.282 11.6737 9.55143
220 1 -1.1104 6.66009 6.28268 12.3109
257 2 2.2208 13.7007 13.1794 7.97216
6748 2 2.2208 13.5912 -3.63799 7.95159
259 2 2.2208 13.7048 13.4085 13.8999
6740 2 2.2208 13.6593 4.75029 10.9648
6627 2 2.2208 -0.576312 4.75309 2.54153
143 2 2.2208 7.98793 10.4353 -0.650173
226 2 2.2208 5.26349 10.4337 13.8395
175 2 2.2208 10.8397 -0.877015 13.6955
287 2 2.2208 2.50706 -3.61247 13.731
170 2 2.2208 5.27404 -0.849018 13.7558
254 2 2.2208 10.8172 10.4506 13.7467
144 2 2.2208 10.7453 7.50376 -0.567954
142 2 2.2208 11.0011 13.2926 -0.397263
415 2 2.2208 2.22564 -0.840044 -0.36041
411 2 2.2208 5.2062 1.87908 -0.406081
260 2 2.2208 5.26443 2.16191 16.5958
261 1 -1.1104 1.01501 -2.3979 17.9489
262 1 -1.1104 0.980733 3.38107 17.7513
263 1 -1.1104 0.955235 -2.30428 15.1493
265 1 -1.1104 1.11388 3.35286 15.0832
268 1 -1.1104 0.78201 0.432456 17.9885
269 2 2.2208 5.31517 -0.826066 19.3642
270 2 2.2208 5.168 4.62637 19.5005
271 1 -1.1104 1.08353 0.505528 15.1173
273 1 -1.1104 3.85572 -2.21104 17.9247
274 1 -1.1104 3.78823 3.41502 18.019
276 2 2.2208 2.55008 1.94562 19.3534
277 1 -1.1104 3.80578 -2.2081 15.1738
279 1 -1.1104 3.77421 3.24481 15.0087
281 2 2.2208 2.38436 -0.906503 16.6056
282 2 2.2208 2.34347 4.65032 16.498
283 1 -1.1104 3.75914 0.573504 17.7668
284 1 -1.1104 3.99872 0.543461 15.0777
228 2 2.2208 2.53983 13.2042 13.6867
266 1 -1.1104 1.1681 3.39311 20.6521
280 1 -1.1104 3.75079 3.27306 20.8662
292 1 -1.1104 6.59825 3.41888 15.3616
255 2 2.2208 8.06628 7.59646 13.8488
275 2 2.2208 2.42194 -3.68769 19.2638
278 1 -1.1104 3.844 -2.31593 20.7824
286 2 2.2208 5.16186 -3.58843 16.6033
267 1 -1.1104 6.58053 3.35969 20.783
253 2 2.2208 7.98934 13.3428 13.7321
437 2 2.2208 10.9339 -3.77529 22.1634
195 2 2.2208 10.8255 4.79331 13.571
383 2 2.2208 13.5598 10.4474 16.5041
502 1 -1.1104 9.15989 9.16484 23.5182
293 1 -1.1104 6.601 0.652722 17.9772
289 1 -1.1104 6.71646 3.38709 18.0528
290 1 -1.1104 6.65438 -2.26763 15.2008
288 1 -1.1104 6.64882 -2.05175 17.9738
294 1 -1.1104 6.67663 0.533649 14.9845
296 2 2.2208 10.7735 1.97107 16.3482
297 1 -1.1104 12.3883 -2.27225 17.9137
298 1 -1.1104 12.1432 3.34129 17.8198
299 1 -1.1104 12.1609 -2.09149 15.1811
301 1 -1.1104 12.1786 3.55203 15.1003
303 1 -1.1104 12.3017 0.545412 17.8909
304 2 2.2208 10.8099 -0.988894 19.3433
305 2 2.2208 10.9574 4.85008 19.2044
306 1 -1.1104 12.143 0.715888 15.0421
308 1 -1.1104 9.38025 -2.16079 17.7393
309 1 -1.1104 9.4441 3.51234 17.7238
310 2 2.2208 8.15949 2.09836 19.3522
311 1 -1.1104 9.36613 -2.22231 15.004
313 1 -1.1104 9.32396 3.51679 14.9876
315 2 2.2208 7.90648 -0.68303 16.5555
316 2 2.2208 8.06245 4.87834 16.5411
317 1 -1.1104 9.42139 0.741006 17.8567
318 1 -1.1104 9.41217 0.593223 15.0968
307 1 -1.1104 12.3171 0.630833 20.7215
7002 2 2.2208 -0.622652 1.81067 22.1244
506 1 -1.1104 12.3711 11.812 26.3368
333 1 -1.1104 6.5938 6.34844 17.958
6873 2 2.2208 13.7183 -0.704979 16.5166
291 1 -1.1104 6.65529 -2.17587 20.7175
302 1 -1.1104 12.2651 3.40283 20.558
499 2 2.2208 7.92948 7.60302 24.7957
6874 2 2.2208 13.6392 1.90794 19.234
331 1 -1.1104 0.848852 6.41443 17.9035
350 1 -1.1104 3.82595 5.96882 15.3154
335 1 -1.1104 1.20276 6.21428 15.2234
348 1 -1.1104 3.66167 6.16309 18.1114
323 2 2.2208 5.09145 7.43096 16.5889
324 2 2.2208 5.18679 13.2045 16.4993
325 1 -1.1104 0.883666 9.24703 18.2038
326 1 -1.1104 0.995436 14.7956 17.9219
328 1 -1.1104 0.935305 9.12292 15.2124
329 1 -1.1104 1.03476 14.5707 15.008
332 1 -1.1104 0.862726 12.0231 17.8044
334 2 2.2208 5.12307 10.6354 19.4581
337 1 -1.1104 1.05321 12.1345 15.1479
340 1 -1.1104 3.77563 9.049 17.9385
341 1 -1.1104 3.8545 14.613 17.9159
342 2 2.2208 2.32413 7.51558 19.4605
343 2 2.2208 2.33957 13.3257 19.3388
344 1 -1.1104 3.64636 9.05898 15.1126
345 1 -1.1104 4.02134 14.5699 15.0679
347 2 2.2208 2.39368 10.4002 16.5997
349 1 -1.1104 3.78618 11.7579 17.972
352 1 -1.1104 3.73417 11.845 15.1155
353 1 -1.1104 6.72053 14.6855 17.8112
346 1 -1.1104 3.84488 14.5846 20.7115
357 1 -1.1104 6.58967 11.8392 15.1812
336 1 -1.1104 0.890577 6.2077 20.7874
354 1 -1.1104 6.6164 14.7355 15.2427
330 1 -1.1104 6.57628 8.95986 15.2102
351 1 -1.1104 3.64006 6.06439 20.7679
455 1 -1.1104 0.893212 11.8318 20.7807
339 1 -1.1104 6.52776 6.184 20.7646
227 2 2.2208 2.45764 7.5121 13.8074
487 1 -1.1104 12.2355 11.7407 23.3793
387 2 2.2208 2.49313 4.64923 27.8603
6940 2 2.2208 -0.591074 10.4711 19.4573
7001 2 2.2208 -0.48086 -1.00328 24.8675
338 1 -1.1104 6.56116 6.17008 15.1404
380 1 -1.1104 9.49585 6.19452 15.2232
378 1 -1.1104 9.4164 6.12963 17.966
480 1 -1.1104 9.45031 6.11694 23.5426
327 1 -1.1104 6.49248 9.37476 18.0521
356 1 -1.1104 6.45976 12.1826 18.1005
364 1 -1.1104 12.102 6.30845 17.9801
376 1 -1.1104 9.37754 14.69 20.7397
367 1 -1.1104 12.2463 6.15847 15.0185
358 2 2.2208 10.8809 7.624 16.5178
359 2 2.2208 10.8716 13.1902 16.404
360 1 -1.1104 12.0904 9.10324 17.9365
361 1 -1.1104 12.3057 14.7035 17.8376
362 1 -1.1104 12.1888 9.14761 15.1827
363 1 -1.1104 12.1876 14.8135 15.0726
365 1 -1.1104 12.2255 11.8207 17.7765
366 2 2.2208 10.6367 10.4501 19.257
369 1 -1.1104 12.2554 11.896 15.1082
370 1 -1.1104 9.53241 8.92299 17.9506
371 1 -1.1104 9.63288 14.6408 17.8522
372 2 2.2208 7.89161 7.53363 19.3387
373 2 2.2208 8.00359 13.3109 19.3052
374 1 -1.1104 9.39792 8.956 15.2086
375 1 -1.1104 9.40735 14.7479 15.1242
377 2 2.2208 7.87796 10.5645 16.4649
379 1 -1.1104 9.27808 11.7756 17.9413
382 1 -1.1104 9.25511 11.827 15.1431
491 1 -1.1104 11.9266 8.95897 20.7379
384 2 2.2208 13.5225 13.1475 19.244
492 1 -1.1104 12.1296 14.659 20.867
494 1 -1.1104 12.1761 11.8468 20.6568
385 2 2.2208 13.4233 7.78653 19.3549
285 1 -1.1104 3.69575 0.415031 20.6382
264 1 -1.1104 1.24292 -2.20087 20.6183
272 1 -1.1104 0.881502 0.46716 20.9351
388 2 2.2208 5.16333 1.93968 22.232
389 1 -1.1104 1.09192 -2.31869 23.4697
390 1 -1.1104 1.05983 3.28564 23.3607
392 1 -1.1104 1.07511 -2.21083 26.1522
393 1 -1.1104 0.999531 3.34413 26.4252
396 1 -1.1104 1.06599 0.417817 23.5561
398 2 2.2208 5.12202 -0.729551 24.9813
399 2 2.2208 5.10764 4.78199 25.0677
400 1 -1.1104 0.75895 0.546009 26.669
402 1 -1.1104 3.94858 -2.06303 23.5496
403 1 -1.1104 3.74886 3.49252 23.6341
404 2 2.2208 2.29906 2.01681 24.8189
405 1 -1.1104 3.75728 -2.1286 26.43
406 1 -1.1104 3.79705 3.33661 26.4649
407 2 2.2208 2.4475 -0.862545 22.2292
408 2 2.2208 2.31366 4.82514 22.1489
409 1 -1.1104 3.76328 0.617174 23.6425
410 1 -1.1104 3.76383 0.610908 26.3375
397 1 -1.1104 6.71518 0.58693 23.5206
441 2 2.2208 13.6248 4.70213 22.2419
401 1 -1.1104 6.73712 0.671052 26.3666
416 1 -1.1104 6.50138 -2.21069 23.6427
394 1 -1.1104 6.57473 -2.14363 26.3684
391 1 -1.1104 6.581 3.5678 23.5784
474 1 -1.1104 1.08522 6.21865 26.1769
505 1 -1.1104 12.1814 8.91221 23.3638
503 1 -1.1104 12.1417 9.01421 26.0249
512 2 2.2208 13.7344 13.2008 25.06
300 1 -1.1104 12.1317 -2.20016 20.6623
312 1 -1.1104 9.50185 -2.20425 20.7747
314 1 -1.1104 9.5566 3.4714 20.5963
495 1 -1.1104 6.63259 6.34974 26.3698
497 1 -1.1104 9.351 11.8494 20.7924
490 1 -1.1104 6.65116 11.9348 20.8332
295 1 -1.1104 6.60694 0.632735 20.756
319 1 -1.1104 9.4809 0.451301 20.6981
395 1 -1.1104 6.58525 3.3915 26.61
417 2 2.2208 10.8217 1.82638 22.0436
418 1 -1.1104 12.1139 -2.3649 23.5681
419 1 -1.1104 12.5308 3.02277 23.3613
420 1 -1.1104 12.2344 -2.32797 26.3611
421 1 -1.1104 12.3722 3.2392 26.144
422 1 -1.1104 12.3321 0.327213 23.5666
423 2 2.2208 10.7695 -0.986361 25.0644
424 2 2.2208 10.9411 4.55401 24.817
425 1 -1.1104 12.3675 0.580709 26.2893
426 1 -1.1104 9.38378 -2.22712 23.6638
427 1 -1.1104 9.47254 3.35909 23.4441
428 2 2.2208 8.27157 2.00774 25.0033
429 1 -1.1104 9.29529 -2.2367 26.2455
430 1 -1.1104 9.61995 3.34188 26.4314
431 2 2.2208 7.94148 -0.801974 22.1414
432 2 2.2208 7.99114 4.70703 22.046
433 1 -1.1104 9.46934 0.60347 23.6307
434 1 -1.1104 9.5437 0.516101 26.3237
476 2 2.2208 -0.643707 7.56471 22.1479
483 1 -1.1104 12.1541 6.13483 26.2757
500 1 -1.1104 12.381 14.7469 26.3595
507 1 -1.1104 6.76614 14.564 23.347
459 1 -1.1104 3.79024 11.9213 20.8458
450 1 -1.1104 1.02584 14.5394 20.8589
355 1 -1.1104 6.73903 14.6988 20.6815
510 1 -1.1104 6.64707 11.8013 23.7019
448 1 -1.1104 3.92849 6.1064 26.6091
458 1 -1.1104 3.79022 9.21172 20.7532
449 1 -1.1104 0.806023 9.03159 20.9028
453 1 -1.1104 3.73563 6.18814 23.5405
469 1 -1.1104 0.762677 5.87179 23.613
445 1 -1.1104 3.81044 8.97436 26.3021
446 2 2.2208 2.26753 13.3395 24.8638
447 1 -1.1104 3.7903 11.8932 26.4689
452 1 -1.1104 3.69008 11.7612 23.7027
454 2 2.2208 2.43365 7.49693 25.0358
456 1 -1.1104 3.88107 14.5458 23.5023
457 1 -1.1104 3.63112 8.88328 23.5139
460 1 -1.1104 0.855783 11.9632 26.199
461 2 2.2208 2.32864 10.4859 22.2688
462 2 2.2208 5.23705 7.61605 22.1401
463 2 2.2208 5.32645 13.2376 22.1012
464 1 -1.1104 0.87982 8.81539 23.6017
465 1 -1.1104 0.91757 14.9323 23.6026
467 1 -1.1104 1.03684 9.20674 26.5167
468 1 -1.1104 0.854756 14.541 26.3916
470 1 -1.1104 1.11236 11.8115 23.5905
472 1 -1.1104 3.80154 14.7377 26.1899
473 2 2.2208 5.06685 10.4734 24.9707
485 2 2.2208 10.7786 10.3017 24.8336
471 1 -1.1104 6.65915 6.44585 23.4407
482 1 -1.1104 9.53499 14.7123 26.3897
481 2 2.2208 8.0652 10.4871 22.0853
489 1 -1.1104 9.44228 8.83764 26.12
368 1 -1.1104 12.1209 6.23127 20.8745
486 2 2.2208 10.7692 7.51415 22.0692
498 2 2.2208 8.16124 13.1571 24.8752
509 1 -1.1104 6.75706 14.7232 26.306
496 1 -1.1104 9.26573 8.8247 20.7558
504 1 -1.1104 12.4176 14.5521 23.6358
451 1 -1.1104 6.64592 9.00136 20.7571
381 1 -1.1104 9.23517 6.03429 20.7196
479 1 -1.1104 9.40389 11.9183 23.4794
501 1 -1.1104 9.54402 14.6428 23.3998
484 2 2.2208 10.9051 13.2839 22.1864
478 1 -1.1104 9.43722 5.99308 26.2382
488 1 -1.1104 12.2946 6.09967 23.5371
477 1 -1.1104 9.60752 11.7605 26.3149
466 1 -1.1104 6.43473 9.21528 23.5723
508 1 -1.1104 6.3989 9.05001 26.2107
493 1 -1.1104 6.63476 11.8974 26.3985
511 2 2.2208 13.6185 7.56958 24.7734
62 2 2.2208 13.6853 4.6167 27.6008
174 2 2.2208 7.94588 2.12537 13.6742
444 2 2.2208 8.03922 -0.644138 27.68
6744 2 2.2208 13.6265 2.01521 13.6336
171 2 2.2208 5.25294 4.78519 13.6841
169 2 2.2208 2.5931 1.76191 13.6905
145 2 2.2208 13.4803 10.219 27.7181
6771 2 2.2208 -0.379091 4.73581 13.7717
6811 2 2.2208 13.6433 7.61098 13.5106
514 2 2.2208 5.09173 18.9886 5.43121
515 2 2.2208 5.21197 24.4817 5.38396
516 1 -1.1104 1.01146 20.2347 1.06314
518 1 -1.1104 0.821498 20.2064 3.71899
519 1 -1.1104 1.09356 17.4146 1.09138
521 1 -1.1104 0.936686 22.9715 1.1904
523 2 2.2208 4.96036 21.6491 2.41367
524 1 -1.1104 0.91317 17.4538 3.75272
525 1 -1.1104 0.783581 23.2453 3.9837
526 1 -1.1104 3.76747 20.2363 1.2478
528 2 2.2208 2.29904 18.9798 2.52263
529 2 2.2208 2.30995 24.4879 2.41999
530 1 -1.1104 3.68586 20.2144 4.07614
532 2 2.2208 2.1102 21.8486 5.15056
533 1 -1.1104 3.91444 17.4836 1.07001
535 1 -1.1104 3.71731 22.9828 1.01957
536 1 -1.1104 3.64388 17.5198 3.81043
537 1 -1.1104 3.63315 23.0565 3.79746
531 2 2.2208 2.43225 16.0342 5.24944
522 2 2.2208 5.16542 16.0174 2.35312
545 1 -1.1104 6.5514 23.1889 4.0239
628 1 -1.1104 3.52157 23.3332 6.50228
720 1 -1.1104 9.40546 34.4377 9.58981
954 2 2.2208 2.19781 27.3805 -0.373984
517 1 -1.1104 0.78036 20.3288 6.58088
527 1 -1.1104 3.57262 20.636 6.9572
652 1 -1.1104 6.3041 20.0854 6.97822
538 2 2.2208 2.4375 16.0116 -0.458918
955 2 2.2208 5.22506 30.2159 -0.310905
541 1 -1.1104 6.59673 17.456 0.858877
539 1 -1.1104 6.45989 20.3615 1.11991
926 2 2.2208 10.7887 24.445 -0.405733
543 1 -1.1104 6.37939 23.0885 0.967349
540 1 -1.1104 6.71386 20.4026 4.0011
561 2 2.2208 7.93425 16.0088 5.35058
553 2 2.2208 10.8103 16.1511 2.4026
544 1 -1.1104 6.39531 17.6663 3.76327
546 2 2.2208 10.6496 19.0021 5.33863
547 2 2.2208 10.8798 24.4458 5.1941
548 1 -1.1104 12.0064 20.0401 1.07102
549 1 -1.1104 12.2984 20.3879 3.87657
550 1 -1.1104 12.0113 17.2778 0.789802
552 1 -1.1104 12.404 22.8794 0.915498
554 2 2.2208 10.8075 21.7329 2.42116
555 1 -1.1104 11.9356 17.3901 3.75498
556 1 -1.1104 12.3855 23.226 3.91173
557 1 -1.1104 9.36074 20.4965 1.062
558 2 2.2208 8.01987 19.1099 2.33687
559 2 2.2208 7.9 24.6421 2.56944
560 1 -1.1104 9.40057 20.3136 3.96082
562 2 2.2208 8.07594 21.7393 5.37345
563 1 -1.1104 9.2896 17.7614 1.04268
565 1 -1.1104 9.24581 23.1551 0.949885
566 1 -1.1104 9.18557 17.3874 3.63884
567 1 -1.1104 9.31577 22.9848 3.90917
653 1 -1.1104 6.6529 23.1711 6.82726
564 1 -1.1104 9.55981 17.3848 6.43996
654 1 -1.1104 12.0677 20.1889 6.78985
656 1 -1.1104 9.30391 20.4103 6.7532
658 1 -1.1104 9.42777 23.2381 6.62249
551 1 -1.1104 12.2223 17.5585 6.61859
542 1 -1.1104 6.74296 17.5297 6.69193
751 2 2.2208 10.9903 27.3265 8.02719
7160 2 2.2208 -0.541938 21.6921 2.44367
925 2 2.2208 10.592 18.9611 -0.412149
927 2 2.2208 7.7906 21.7883 -0.408806
569 2 2.2208 5.11898 30.249 5.33418
570 1 -1.1104 0.904009 25.921 1.07716
571 1 -1.1104 0.884899 31.65 1.11714
572 1 -1.1104 0.866084 25.8337 3.88507
573 1 -1.1104 0.979524 31.6388 3.92731
574 1 -1.1104 0.873461 28.7603 1.09466
575 1 -1.1104 0.983956 34.3353 1.10832
576 2 2.2208 5.18437 27.3356 2.42871
577 2 2.2208 5.30132 32.9577 2.53387
578 1 -1.1104 1.03371 28.7282 3.8686
579 1 -1.1104 1.01076 34.3266 3.99334
580 1 -1.1104 3.78546 25.9429 0.845033
581 1 -1.1104 3.66316 31.447 1.01651
582 2 2.2208 2.48057 30.1329 2.48085
583 1 -1.1104 3.71486 26.0631 4.0039
584 1 -1.1104 3.8629 31.6023 3.77624
585 2 2.2208 2.38074 27.3347 5.28261
586 2 2.2208 2.48381 32.9824 5.23879
587 1 -1.1104 3.70427 28.6396 0.874594
588 1 -1.1104 3.7279 34.3833 0.961752
589 1 -1.1104 3.86121 28.8069 3.81536
590 1 -1.1104 3.83266 34.3432 3.81746
601 1 -1.1104 6.60814 34.4256 3.97453
698 1 -1.1104 3.71075 28.8542 6.60964
691 1 -1.1104 1.06891 31.6857 6.65549
7326 2 2.2208 13.745 30.4033 7.9781
599 1 -1.1104 6.44577 34.3366 1.12527
597 1 -1.1104 6.55825 31.5423 3.75568
694 1 -1.1104 3.76383 26.1301 6.83571
699 1 -1.1104 3.70636 34.6071 6.4896
591 2 2.2208 2.35348 33.0003 -0.337612
7279 2 2.2208 -0.446824 19.0128 10.9574
723 1 -1.1104 9.47198 28.7027 12.217
595 1 -1.1104 6.39404 31.5478 1.23702
598 1 -1.1104 6.58247 28.5597 1.07812
596 1 -1.1104 6.55923 25.9902 4.00514
600 1 -1.1104 6.58427 28.7426 3.9
594 1 -1.1104 6.4055 25.7965 1.15237
744 1 -1.1104 9.40492 31.5411 6.67756
602 2 2.2208 10.7801 30.1653 5.14327
603 1 -1.1104 12.2692 25.6252 1.00133
604 1 -1.1104 11.8709 31.3834 0.983665
605 1 -1.1104 12.4281 26.0801 3.80451
606 1 -1.1104 12.1996 31.471 3.87622
607 1 -1.1104 12.2532 28.697 0.940596
608 1 -1.1104 12.0505 34.1318 0.906575
609 2 2.2208 10.7666 27.3363 2.36166
610 2 2.2208 10.5197 32.7887 2.48743
611 1 -1.1104 12.1791 28.7651 3.79709
612 1 -1.1104 12.3228 34.267 3.60742
613 1 -1.1104 9.24505 25.9957 0.889899
614 1 -1.1104 9.05884 31.7019 1.16895
615 2 2.2208 7.81426 29.9663 2.41848
616 1 -1.1104 9.38801 25.8734 3.74532
617 1 -1.1104 9.30978 31.3752 3.95124
618 2 2.2208 7.92168 27.4728 5.23844
619 2 2.2208 8.09899 32.9571 5.23946
620 1 -1.1104 9.26201 28.7928 0.954538
621 1 -1.1104 9.3107 34.3805 0.964117
622 1 -1.1104 9.38499 28.7772 3.73744
623 1 -1.1104 9.36062 34.2418 3.89164
740 1 -1.1104 12.2696 31.8307 6.5432
746 1 -1.1104 9.42365 34.3599 6.75355
734 1 -1.1104 6.8049 31.7907 6.73777
741 1 -1.1104 12.3763 28.8934 6.59693
743 1 -1.1104 9.53648 25.9931 6.3558
742 1 -1.1104 12.008 34.5883 6.75936
985 2 2.2208 7.87485 27.4221 -0.456684
724 1 -1.1104 12.2608 31.4184 9.44951
624 2 2.2208 13.7219 32.9583 5.20156
726 2 2.2208 8.15315 32.9095 10.7465
643 2 2.2208 2.24231 16.0871 10.785
627 1 -1.1104 0.677178 23.1391 6.65542
520 1 -1.1104 1.12022 17.4747 6.72673
534 1 -1.1104 3.94739 17.4949 6.66043
635 2 2.2208 5.29383 16.1327 8.09339
629 2 2.2208 5.22729 18.8238 10.8676
630 2 2.2208 5.31907 24.7195 10.9541
631 1 -1.1104 0.965543 20.1726 12.302
632 1 -1.1104 1.02694 20.0908 9.47468
633 1 -1.1104 0.949895 17.5354 12.2724
634 1 -1.1104 1.14029 22.9996 12.3644
636 2 2.2208 5.3833 21.6348 8.27926
637 1 -1.1104 1.07205 17.3975 9.55629
638 1 -1.1104 0.883699 23.0962 9.52584
639 1 -1.1104 3.79286 20.4703 12.1619
640 2 2.2208 2.37296 18.896 8.13429
641 2 2.2208 2.38762 24.515 8.18136
642 1 -1.1104 3.88103 20.139 9.51125
644 2 2.2208 2.27891 21.723 10.8746
645 1 -1.1104 3.80244 17.4739 12.2511
646 1 -1.1104 3.94974 23.2725 12.3541
647 1 -1.1104 3.78135 17.4412 9.53826
648 1 -1.1104 3.70992 23.0633 9.48725
737 2 2.2208 8.13542 30.1449 8.09551
662 1 -1.1104 6.78885 23.126 12.3066
663 1 -1.1104 6.71389 17.6192 9.51327
661 1 -1.1104 6.54053 17.4993 12.248
626 2 2.2208 10.7884 30.1512 -0.453237
7282 2 2.2208 -0.547099 21.6671 8.15331
7281 2 2.2208 -0.564201 16.2436 8.09618
902 2 2.2208 2.39516 21.652 -0.226105
655 1 -1.1104 12.2339 22.9681 6.58641
788 2 2.2208 2.41228 24.5575 13.8088
659 1 -1.1104 6.92706 20.182 12.1667
664 1 -1.1104 6.52541 23.1874 9.57172
660 1 -1.1104 6.83944 20.3537 9.48817
679 2 2.2208 8.1104 16.0281 10.7877
665 2 2.2208 10.9448 18.7412 10.901
666 2 2.2208 10.8909 24.3876 10.8145
667 1 -1.1104 12.4043 20.118 12.1978
668 1 -1.1104 12.2658 20.2677 9.52525
669 1 -1.1104 12.0888 17.3573 12.453
670 1 -1.1104 12.2194 22.9831 12.3434
672 2 2.2208 10.8907 21.6047 7.99443
673 1 -1.1104 12.1824 17.2733 9.47254
674 1 -1.1104 12.4023 22.8408 9.27656
675 1 -1.1104 9.62664 20.3002 12.309
676 2 2.2208 8.02883 18.8428 8.04133
677 2 2.2208 8.03947 24.568 7.95511
678 1 -1.1104 9.54724 20.1485 9.43586
680 2 2.2208 8.14235 21.6677 10.8335
681 1 -1.1104 9.38103 17.4817 12.3009
682 1 -1.1104 9.55575 23.0973 12.1879
683 1 -1.1104 9.46399 17.3644 9.35704
684 1 -1.1104 9.40178 23.2042 9.25611
671 2 2.2208 10.8668 15.9297 8.042
695 1 -1.1104 3.97925 31.7825 6.8181
693 1 -1.1104 0.965493 34.5714 6.74338
692 1 -1.1104 0.967147 28.8191 6.70326
733 1 -1.1104 6.71324 26.1622 6.80032
730 2 2.2208 10.9562 30.0951 10.8505
756 1 -1.1104 6.58695 28.9822 12.1575
755 1 -1.1104 6.69135 31.6068 9.44229
757 1 -1.1104 6.49037 34.1993 12.2364
690 1 -1.1104 0.951582 25.9702 6.76827
717 1 -1.1104 3.84626 26.0649 9.47261
689 1 -1.1104 4.08003 34.5158 9.2456
696 1 -1.1104 3.64906 28.911 9.65062
697 1 -1.1104 3.70981 34.3943 12.2091
700 1 -1.1104 3.64753 28.8774 12.1034
701 2 2.2208 2.38866 32.8784 10.8647
702 2 2.2208 2.33675 27.3396 10.8493
703 2 2.2208 5.17175 30.318 10.7899
704 1 -1.1104 1.14596 25.6615 12.2768
705 1 -1.1104 0.993147 31.3662 12.1895
706 1 -1.1104 1.00353 25.905 9.42436
707 1 -1.1104 1.00448 31.5642 9.44309
708 1 -1.1104 0.94265 28.7455 12.1996
709 1 -1.1104 1.16994 34.2521 12.3196
710 2 2.2208 5.15613 27.3609 8.13551
711 2 2.2208 5.29992 33.1116 7.89151
712 1 -1.1104 0.964248 28.7375 9.43105
713 1 -1.1104 1.03798 34.3883 9.52529
714 1 -1.1104 4.0401 26.1329 12.2078
715 1 -1.1104 3.74972 31.647 12.287
716 2 2.2208 2.41647 30.1823 8.17541
718 1 -1.1104 3.76436 31.6496 9.48521
753 1 -1.1104 6.74345 31.5675 12.0599
761 1 -1.1104 6.65124 34.4041 9.33042
760 1 -1.1104 6.66125 28.7928 9.29543
7113 2 2.2208 13.7955 24.4854 2.41357
739 1 -1.1104 12.1506 25.9106 6.67234
732 1 -1.1104 9.4867 26.1316 9.19543
725 1 -1.1104 12.1735 25.7536 9.47392
748 1 -1.1104 12.3259 34.4954 9.51002
747 1 -1.1104 9.61522 25.9118 12.1582
735 1 -1.1104 6.55837 28.8127 6.78564
731 1 -1.1104 9.45942 31.5961 9.52667
745 1 -1.1104 9.49109 28.9055 6.57109
727 2 2.2208 8.1939 27.4407 10.8559
728 1 -1.1104 12.1115 31.3876 12.3049
758 1 -1.1104 12.1464 34.4673 12.1459
749 1 -1.1104 12.2605 28.5675 9.50171
759 1 -1.1104 12.0705 28.544 12.2403
750 2 2.2208 10.7885 32.8827 8.01791
738 1 -1.1104 9.51594 31.4673 12.3129
736 1 -1.1104 6.61898 34.5256 6.49079
754 1 -1.1104 6.64292 25.9764 9.42824
752 1 -1.1104 6.8652 26.1795 12.322
721 1 -1.1104 9.50879 28.928 9.47369
729 1 -1.1104 12.3735 25.6364 12.1985
722 1 -1.1104 9.39899 34.2372 12.523
568 2 2.2208 8.07972 16.0322 -0.37441
7133 2 2.2208 13.7641 16.0299 -0.348066
625 2 2.2208 7.77952 33.0368 -0.355077
7195 2 2.2208 13.5922 30.1255 2.31697
7280 2 2.2208 -0.424999 24.4291 10.7456
688 2 2.2208 -0.523473 27.305 8.02289
7132 2 2.2208 13.8642 21.7289 5.17437
687 2 2.2208 -0.499702 30.0396 10.7695
7159 2 2.2208 -0.686225 24.4197 5.29567
7252 2 2.2208 13.5645 18.9255 8.08522
657 2 2.2208 13.5792 16.0731 10.7301
825 2 2.2208 10.7578 21.7365 13.7157
903 2 2.2208 5.09284 24.5171 -0.458847
858 2 2.2208 2.25632 30.0862 13.6591
859 2 2.2208 5.29514 27.4942 13.5558
900 2 2.2208 10.7918 33.0895 13.7525
901 2 2.2208 10.8586 27.2557 13.6482
762 2 2.2208 5.30934 18.8684 16.4584
763 2 2.2208 5.10871 24.4638 16.392
764 1 -1.1104 0.911503 20.4262 17.9394
765 1 -1.1104 1.16206 20.3117 15.1108
767 1 -1.1104 0.982297 17.7189 18.0009
768 1 -1.1104 1.10979 23.2185 17.7873
770 2 2.2208 5.28659 21.712 19.4181
771 1 -1.1104 1.04232 17.3689 15.1223
773 1 -1.1104 0.88498 23.3038 15.0873
775 1 -1.1104 3.73871 20.153 17.8975
776 2 2.2208 2.55533 18.8217 19.3369
777 2 2.2208 2.4628 24.5652 19.3915
778 1 -1.1104 3.98395 20.4779 15.0886
781 2 2.2208 2.44296 21.6248 16.4543