LAMMPS data file via write_data, version 29 Oct 2020, timestep = 100000

18000 atoms
4 atom types

-0.10275482234678233 27.99675482234765 xlo xhi
-1.1641828004799288 335.89218280049374 ylo yhi
-0.09993811129662601 27.99393811129648 zlo zhi
0.0 0.0 0.0 xy xz yz

Masses

1 15.9994
2 232.0381
3 15.9994
4 232.0381

Atoms # full

1 0 1 -1.1104 1.471195212635768 0.37631898215913767 1.439762074809088 0 0 0
2 0 1 -1.1104 4.147172480292095 0.24776132914428642 1.3151285290281076 0 0 0
3 0 1 -1.1104 3.993539270285227 0.16090106522707381 4.175724980293738 0 0 0
4 0 1 -1.1104 1.0979495267308963 0.251790227383514 4.269280267779812 0 0 0
5 0 1 -1.1104 1.2030067711471089 3.1715947668847653 1.15680072238362 0 0 0
6 0 1 -1.1104 4.151808565743912 2.879987823193837 1.3431399731836051 0 0 0
7 0 1 -1.1104 4.125257362216202 2.990171777730048 4.159461712747509 0 0 0
8 0 1 -1.1104 1.5010077964663635 2.976956730961529 4.011487003939956 0 0 0
9 0 1 -1.1104 7.035297852710191 0.2676414144993442 1.3160824349776057 0 0 0
10 0 1 -1.1104 9.656591309480548 0.22369129980685049 1.2997552285263827 0 0 0
11 0 1 -1.1104 9.553372073567697 0.12491888315220716 4.118152935537166 0 0 0
12 0 1 -1.1104 6.887955647852972 0.20257064369519376 4.289521613116026 0 0 0
13 0 1 -1.1104 6.913639144576874 3.0244817356359364 1.3509488013360456 0 0 0
14 0 1 -1.1104 9.804042672485489 3.0400942441880585 1.2796304483759486 0 0 0
15 0 1 -1.1104 9.691805321862768 2.977822144737325 4.008733003942603 0 0 0
16 0 1 -1.1104 6.989108638184606 3.009997979473332 4.085431144185825 0 0 0
17 0 1 -1.1104 12.371417530172748 0.16313187110175734 1.3924752289498554 0 0 0
18 0 1 -1.1104 12.40974875295348 0.12538075461810952 4.235279435932997 0 0 0
19 0 1 -1.1104 12.58174051494985 3.0569754295161933 1.2332489328495952 0 0 0
20 0 1 -1.1104 12.578401112397227 2.796345724193915 3.9549609244828376 0 0 0
21 0 1 -1.1104 1.1553354700264138 5.865137720202154 1.5166789199950381 0 0 0
22 0 1 -1.1104 4.011698361835936 5.680384653035298 1.2361225599698784 0 0 0
23 0 1 -1.1104 4.091016220727275 5.788312975355985 4.01248077397597 0 0 0
24 0 1 -1.1104 1.1887210388724023 5.799085037147464 4.24645896596037 0 0 0
25 0 1 -1.1104 1.2401655571421886 8.524653563088966 1.2267818411806952 0 0 0
26 0 1 -1.1104 4.046017205455351 8.613596634093907 1.1827727233796583 0 0 0
27 0 1 -1.1104 3.9670066844073157 8.664430991957468 4.152771242251904 0 0 0
28 0 1 -1.1104 1.2289062878410195 8.482014489814125 4.018170592530624 0 0 0
29 0 1 -1.1104 6.852272230509922 5.811194926858971 1.2053483397336042 0 0 0
30 0 1 -1.1104 9.621848528748668 5.7768357142498825 1.2195025156069164 0 0 0
31 0 1 -1.1104 9.722313001896778 5.820847398003364 4.0950883258084705 0 0 0
32 0 1 -1.1104 6.920022031532253 6.009003784082697 4.004656596477524 0 0 0
33 0 1 -1.1104 6.76141372299213 8.57148540839446 1.3313489013897355 0 0 0
34 0 1 -1.1104 9.606816631352693 8.590970930938736 1.2277001225629152 0 0 0
35 0 1 -1.1104 9.8043604649884 8.637034847618908 4.059210738513124 0 0 0
36 0 1 -1.1104 6.8260244461811865 8.55963230276363 4.225480650340182 0 0 0
37 0 1 -1.1104 12.518208859638017 5.806722739080462 1.1910800737878617 0 0 0
38 0 1 -1.1104 12.40818306418715 5.746551321127756 4.252124078480093 0 0 0
39 0 1 -1.1104 12.355857145201346 8.662859777829032 1.4948179143515903 0 0 0
40 0 1 -1.1104 12.428317319155134 8.640092030406931 4.226021421933058 0 0 0
41 0 1 -1.1104 1.2901601299484424 11.187037842450634 1.2539236853624396 0 0 0
42 0 1 -1.1104 4.014309415323352 11.358555147709184 1.2624098254182383 0 0 0
43 0 1 -1.1104 4.148189789898676 11.318087965514673 4.0479172722494345 0 0 0
44 0 1 -1.1104 1.3021086505767432 11.390068570913476 4.061784901599666 0 0 0
45 0 1 -1.1104 1.197232852517205 14.244800590872034 1.4193307599124878 0 0 0
46 0 1 -1.1104 3.929643809537749 14.172645115591147 1.0358814313375848 0 0 0
47 0 1 -1.1104 3.9196660111001784 14.231610665217554 3.905903866008091 0 0 0
48 0 1 -1.1104 1.1642057685337095 14.248868446298792 4.127330430479963 0 0 0
49 0 1 -1.1104 6.8720021893345855 11.303665787299543 1.4148660644392965 0 0 0
50 0 1 -1.1104 9.621224101917356 11.443001780441724 1.3400966370425638 0 0 0
51 0 1 -1.1104 9.592038721870926 11.473399133262111 4.1249478449801975 0 0 0
52 0 1 -1.1104 6.902997066064314 11.461450078198022 4.138913056233094 0 0 0
53 0 1 -1.1104 6.826400962663537 14.082176466838716 1.2927675898022082 0 0 0
54 0 1 -1.1104 9.603721307537368 14.314400725063466 0.9625594136227593 0 0 0
55 0 1 -1.1104 9.648879548469885 14.29642763892076 3.873650090820645 0 0 0
56 0 1 -1.1104 6.852457836800563 14.174473866311294 3.8593730802411583 0 0 0
57 0 1 -1.1104 12.482207758292303 11.50399020523667 1.4708428821721156 0 0 0
58 0 1 -1.1104 12.348486594133698 14.205863591201565 4.007611189024732 0 0 0
59 0 1 -1.1104 12.356034342889876 14.185396309854161 1.3563914322276125 0 0 0
60 0 1 -1.1104 12.508753427614893 16.983745825139433 4.055622999383274 0 0 0
61 0 1 -1.1104 1.3975493857975763 17.01969158868744 1.360578329219955 0 0 0
62 0 1 -1.1104 4.239758507544432 16.942835590920325 1.2801696721400866 0 0 0
63 0 1 -1.1104 4.09899586093645 16.92228682899541 4.130148464484429 0 0 0
64 0 1 -1.1104 1.304607006427196 17.101034227551924 4.046457959877755 0 0 0
65 0 1 -1.1104 1.2657687835453175 19.725781495125304 1.3204863818331807 0 0 0
66 0 1 -1.1104 4.166021492864025 19.757684898014258 1.1909145401578656 0 0 0
67 0 1 -1.1104 4.12520778597462 19.694510981810247 4.088185160788215 0 0 0
68 0 1 -1.1104 1.268278454093128 19.799050254552157 4.076724482140757 0 0 0
69 0 1 -1.1104 7.020325722290509 16.910740754628424 1.2674776339612897 0 0 0
70 0 1 -1.1104 9.858157163152523 17.01674759997989 1.3928650142756465 0 0 0
71 0 1 -1.1104 9.612870772270732 16.91221734063704 4.20235973272333 0 0 0
72 0 1 -1.1104 6.855969882240668 17.074532789757107 3.9466837336413603 0 0 0
73 0 1 -1.1104 6.975205963877384 19.570203206005207 1.2959686680051867 0 0 0
74 0 1 -1.1104 9.576272856380248 19.75998590753651 1.1800793103355554 0 0 0
75 0 1 -1.1104 9.561924437556058 19.74435259971794 4.1851499828327094 0 0 0
76 0 1 -1.1104 6.827881642707969 19.798423474446142 3.937900841777803 0 0 0
77 0 1 -1.1104 12.605285293315449 16.94894354675076 1.3123078237100863 0 0 0
78 0 1 -1.1104 12.588713265439727 19.760910558748396 3.9992698560163267 0 0 0
79 0 1 -1.1104 12.620658166349502 22.654547394228754 1.4852281569491266 0 0 0
80 0 1 -1.1104 12.342625121730828 19.658479054131725 1.18564622683623 0 0 0
81 0 1 -1.1104 1.4483579102580184 22.51107942942015 1.3253994883902618 0 0 0
82 0 1 -1.1104 4.041497957036327 22.54608228691379 1.258846546099382 0 0 0
83 0 1 -1.1104 3.997762623194092 22.628422189152108 3.919656171934149 0 0 0
84 0 1 -1.1104 1.0765409973157711 22.53414935453462 4.058962809772196 0 0 0
85 0 1 -1.1104 6.961492173416972 22.540990859873997 1.2752565137936027 0 0 0
86 0 1 -1.1104 9.811138925567109 22.453210159214354 1.39206761142144 0 0 0
87 0 1 -1.1104 9.607288193467378 22.465039840817337 4.247076623096977 0 0 0
88 0 1 -1.1104 6.951233840607451 22.56739243570398 4.049263086859837 0 0 0
15062 0 2 2.2208 13.84442060719033 4.288045132424509 8.366311299956235 0 0 0
90 0 1 -1.1104 12.395056715017017 22.547007891064908 4.172962299683911 0 0 0
91 0 1 -1.1104 1.2418798039448007 0.13700811027419085 6.955607987857093 0 0 0
92 0 1 -1.1104 4.113832216416274 0.19062481828495167 7.071435153692122 0 0 0
93 0 1 -1.1104 3.922234309934207 3.0501583477801892 9.790387574158215 0 0 0
94 0 1 -1.1104 1.162623657284366 0.19125286659446686 9.695374990802303 0 0 0
95 0 1 -1.1104 1.139647217818918 2.971730498747855 6.835349944502386 0 0 0
96 0 1 -1.1104 4.04741730711527 3.023267661051557 6.933203011106981 0 0 0
97 0 1 -1.1104 4.043024849518968 5.713873845118754 9.591150172079832 0 0 0
98 0 1 -1.1104 1.2236225923057396 2.903146109333701 9.685831140996347 0 0 0
99 0 1 -1.1104 6.86395820518908 0.2674446705717867 7.018227472440139 0 0 0
100 0 1 -1.1104 9.670830468892639 0.06841730508846815 6.87645548968941 0 0 0
101 0 1 -1.1104 9.587067642172228 3.01957085269835 9.65657128377756 0 0 0
102 0 1 -1.1104 6.7463334902669425 3.0315026099734657 9.584834791313025 0 0 0
103 0 1 -1.1104 6.861015287021901 3.0207343509115825 6.855686609132032 0 0 0
104 0 1 -1.1104 9.739474498806345 2.9732625565708166 6.899871543724805 0 0 0
105 0 1 -1.1104 9.64823290984359 5.831555248379777 9.756258455064074 0 0 0
106 0 1 -1.1104 6.724754809610717 5.721715224140286 9.59083411042628 0 0 0
107 0 1 -1.1104 12.561228961296413 0.332302832487005 6.969330253787836 0 0 0
108 0 1 -1.1104 12.396881150604292 5.729991947059837 9.813242492990685 0 0 0
109 0 1 -1.1104 12.51177187141564 3.1005678510633055 6.799696515366377 0 0 0
110 0 1 -1.1104 12.515150745776003 11.398834510378853 9.798254777078101 0 0 0
111 0 1 -1.1104 1.2747467117670812 5.777837300935798 6.887769478521167 0 0 0
112 0 1 -1.1104 3.9571703223298744 5.71769705258273 6.730776605064269 0 0 0
113 0 1 -1.1104 3.9724422450250003 8.467284024448803 9.753420250461692 0 0 0
114 0 1 -1.1104 1.2335371272582352 5.705874792481343 9.676300901912489 0 0 0
115 0 1 -1.1104 1.0983959237423617 8.541277210120873 6.838335477751495 0 0 0
116 0 1 -1.1104 3.9703343966141476 8.706298627304774 6.970227270726376 0 0 0
117 0 1 -1.1104 3.28829870325654 10.591362763679017 11.338258226806976 0 0 0
118 0 1 -1.1104 1.2862636602072948 8.535961284334048 9.579899214220564 0 0 0
119 0 1 -1.1104 6.7272693622635105 5.697680058227085 6.879630464458442 0 0 0
120 0 1 -1.1104 9.694220920730595 5.752669681695996 6.804829325506997 0 0 0
121 0 1 -1.1104 12.486788784338456 8.431610103169634 9.686581950815684 0 0 0
122 0 1 -1.1104 6.703156569745677 8.43912392236743 9.605980438368105 0 0 0
123 0 1 -1.1104 6.870928281251018 8.367908158109005 7.014191680316684 0 0 0
124 0 1 -1.1104 9.735407526172796 8.542768721009237 7.0201354503416145 0 0 0
125 0 1 -1.1104 9.544080884147714 8.465403628490234 9.730575842740313 0 0 0
126 0 2 2.2208 5.336887245695526 9.438829114870275 11.208816532368276 0 0 0
127 0 1 -1.1104 12.541962569897402 5.857644380224524 7.043088978409642 0 0 0
12003 0 2 2.2208 2.685274215631789 -1.1140484036191216 2.733375705518697 0 0 0
129 0 1 -1.1104 12.510764675981587 8.74212736162679 7.015044022778803 0 0 0
130 0 1 -1.1104 12.44170141181819 11.482921884676346 6.988177788065015 0 0 0
131 0 1 -1.1104 1.3202683726202957 11.472194333186403 6.878002526313825 0 0 0
132 0 1 -1.1104 4.03387349739764 11.309009202971046 6.827115868505628 0 0 0
133 0 1 -1.1104 4.158070288424022 12.215075787439957 9.70943031423432 0 0 0
134 0 1 -1.1104 1.2631456481545809 11.44053086302918 9.667126781558222 0 0 0
135 0 1 -1.1104 1.200440295445636 14.24889499094643 6.8670400164994065 0 0 0
136 0 1 -1.1104 3.9646787028447474 13.870815906706467 6.64099696342027 0 0 0
137 0 1 -1.1104 3.8074385465345495 14.664108884697244 11.040703310788135 0 0 0
138 0 1 -1.1104 1.3618599530399778 14.233612841486371 9.652932602766013 0 0 0
139 0 1 -1.1104 6.8520874077213305 11.154208684221194 6.919877595021403 0 0 0
140 0 1 -1.1104 9.602420815012136 11.290442268360918 6.854913095939506 0 0 0
141 0 1 -1.1104 9.732466527769027 11.234883147814744 9.636077294628521 0 0 0
142 0 1 -1.1104 7.69724893793899 12.985563846927754 8.750232592858227 0 0 0
143 0 1 -1.1104 6.830133634054576 14.229143480991143 6.5680114638317395 0 0 0
144 0 1 -1.1104 9.823095679324924 14.360168182909812 6.6964222102489215 0 0 0
145 0 1 -1.1104 9.645637532932415 14.303436878645995 9.68382810695757 0 0 0
146 0 1 -1.1104 5.227172068193391 14.793694463205314 8.881406226652574 0 0 0
147 0 1 -1.1104 12.5563341946106 11.373941023623642 4.130365655454757 0 0 0
12055 0 2 2.2208 5.491911005588349 -1.15145156356834 5.568746347115354 0 0 0
149 0 1 -1.1104 12.425845614139769 14.108860751625821 7.008596662695037 0 0 0
150 0 1 -1.1104 12.165966791839232 14.152638063634734 9.854413429883708 0 0 0
151 0 1 -1.1104 1.2598983114918776 17.088731243353227 6.821371252240035 0 0 0
152 0 1 -1.1104 4.05461256927961 17.09193560844181 6.934524373025221 0 0 0
153 0 1 -1.1104 4.068669756970294 17.330661525481947 9.732425413230429 0 0 0
154 0 1 -1.1104 1.3045431518749717 16.99720562405622 9.58064339603657 0 0 0
155 0 1 -1.1104 1.148113187003592 19.788421611047667 7.005242770996617 0 0 0
156 0 1 -1.1104 3.987635464752839 19.781532582864262 6.952918821449334 0 0 0
157 0 1 -1.1104 4.077384817152746 20.07460048925503 9.793096205376251 0 0 0
158 0 1 -1.1104 1.2389462313782396 19.858650103470744 9.705415612204106 0 0 0
159 0 1 -1.1104 6.8667398250360225 17.028943025570374 6.941150005704294 0 0 0
160 0 1 -1.1104 9.598249489907813 16.95668516190477 6.995353294011889 0 0 0
161 0 1 -1.1104 9.663919053570481 16.998616747634223 9.649941687764251 0 0 0
162 0 1 -1.1104 6.897379289964151 17.11411409567034 9.646323205394946 0 0 0
163 0 1 -1.1104 6.8778506829453745 19.785863388518756 6.778925241080854 0 0 0
164 0 1 -1.1104 9.825522737301144 19.6929242691305 6.839380143960388 0 0 0
165 0 1 -1.1104 9.737095866635528 19.959199580527454 9.653770890706216 0 0 0
166 0 1 -1.1104 6.840784527246747 19.728509499945798 9.565817880015727 0 0 0
167 0 1 -1.1104 12.367390927158505 17.12423931570198 6.769101367714091 0 0 0
168 0 1 -1.1104 12.20050775550762 17.03499921157855 9.75891773821438 0 0 0
169 0 1 -1.1104 12.372979700762768 20.107374300258375 6.979956711024671 0 0 0
170 0 1 -1.1104 12.556609253745258 19.920367974875884 9.852245483748792 0 0 0
171 0 1 -1.1104 1.1799508000721237 22.5942105715966 6.8640104891785265 0 0 0
172 0 1 -1.1104 3.9547795580131364 22.549316551602825 6.883394489992659 0 0 0
173 0 1 -1.1104 3.9807133317533987 22.764631235876212 9.658726485487403 0 0 0
174 0 1 -1.1104 1.2331013307445557 22.528450749088304 9.654713697557966 0 0 0
175 0 1 -1.1104 6.864409376738124 22.588224060337005 6.838956844381362 0 0 0
176 0 1 -1.1104 9.675237747147655 22.542492485180027 6.929655525747525 0 0 0
177 0 1 -1.1104 9.679128114447714 22.65200041999775 9.754751751848378 0 0 0
178 0 1 -1.1104 6.91526162895253 22.569835533738694 9.658888585120417 0 0 0
179 0 1 -1.1104 12.474021741933523 22.661041369776818 6.898604919731326 0 0 0
180 0 1 -1.1104 12.431888786066752 22.6659584703892 9.798879072204581 0 0 0
181 0 1 -1.1104 1.3494790837805881 0.22373154246131702 12.569153916156198 0 0 0
182 0 1 -1.1104 4.0750494723618305 0.0190484555547185 12.489700605462058 0 0 0
183 0 1 -1.1104 1.3151101848671185 2.8964112563927533 12.413737253922699 0 0 0
184 0 1 -1.1104 4.10542078869264 2.96723692693911 12.651034734798195 0 0 0
185 0 1 -1.1104 6.98567874285014 2.6942375552259494 12.51600126943269 0 0 0
186 0 1 -1.1104 9.787544607672908 0.10257976795833837 12.329869399463426 0 0 0
187 0 1 -1.1104 6.865779770133715 5.663197323972363 12.419972841199696 0 0 0
188 0 1 -1.1104 9.76237489713291 2.8237060408250745 12.37372012792198 0 0 0
189 0 1 -1.1104 12.396784541055093 2.8402444536434452 9.622726792309939 0 0 0
190 0 1 -1.1104 12.602217141334357 3.0437979261814307 12.402892074984216 0 0 0
191 0 1 -1.1104 1.4103823239433662 5.753504672877053 12.551840929464417 0 0 0
192 0 1 -1.1104 4.158558439982648 5.640076322654229 12.4480608149016 0 0 0
193 0 1 -1.1104 1.1325833252191069 8.471559904157834 12.393510579096198 0 0 0
194 0 1 -1.1104 4.058450612108311 8.235231003090783 12.522769060859952 0 0 0
195 0 1 -1.1104 6.838299256823458 8.338662721499363 12.508989164312235 0 0 0
196 0 1 -1.1104 9.80869631452779 5.7447914733661705 12.443895934978238 0 0 0
197 0 1 -1.1104 6.80736382026533 11.10561763953615 10.58991999000959 0 0 0
198 0 1 -1.1104 9.789753805961618 8.43537560823893 12.407257319541905 0 0 0
199 0 1 -1.1104 12.566465143252266 5.700454933280045 12.452985769424172 0 0 0
200 0 1 -1.1104 12.582598555257356 8.50959793158699 12.469837713438304 0 0 0
201 0 1 -1.1104 1.161466073162732 11.433370825703681 12.637449723246762 0 0 0
202 0 1 -1.1104 3.7160174515520095 12.815321617034646 13.058282580259668 0 0 0
203 0 1 -1.1104 1.3463668232553503 14.332840429943763 12.622488734757505 0 0 0
204 0 1 -1.1104 5.608726500096708 14.780960436396553 13.304788579369909 0 0 0
205 0 1 -1.1104 7.259625967387542 12.579954014407656 12.898920471750177 0 0 0
206 0 1 -1.1104 9.728954391151854 11.208571176532066 12.550452975793041 0 0 0
207 0 1 -1.1104 7.087097737309345 14.593329318527081 10.869156492955092 0 0 0
208 0 1 -1.1104 9.606594685327533 14.224974952608067 12.558307188407023 0 0 0
209 0 1 -1.1104 12.466304494737368 11.500839450929943 12.565169566038485 0 0 0
210 0 1 -1.1104 12.37721221475239 14.36353857176764 12.527391351338103 0 0 0
211 0 1 -1.1104 1.168199337723654 17.226980739300327 12.280699511244249 0 0 0
212 0 1 -1.1104 3.8754474772925254 17.3353506734902 12.7222066466839 0 0 0
213 0 1 -1.1104 1.2740352599390599 19.976713786377434 12.639258175252044 0 0 0
214 0 1 -1.1104 4.204699566890247 19.82742925261963 12.49175626261366 0 0 0
215 0 1 -1.1104 6.941415187590034 17.132080863026168 12.530114160515817 0 0 0
216 0 1 -1.1104 9.576868777526222 17.121294215055645 12.515925917189339 0 0 0
217 0 1 -1.1104 6.966839806037171 19.89730846272607 12.507927866434619 0 0 0
218 0 1 -1.1104 9.655117452220745 19.837454874188744 12.428397535892284 0 0 0
219 0 1 -1.1104 12.445921809309281 17.00081042374555 12.550051897358207 0 0 0
220 0 1 -1.1104 12.526778586222875 19.803418380183416 12.505416701778632 0 0 0
221 0 1 -1.1104 1.2083514137012759 22.661075341622364 12.418415084460577 0 0 0
222 0 1 -1.1104 4.073750988114725 22.606035606329097 12.435935997520986 0 0 0
223 0 1 -1.1104 6.8439337076907245 22.69981426576612 12.53487898365669 0 0 0
224 0 1 -1.1104 9.549594410635155 22.679228437717185 12.559464048497604 0 0 0
225 0 1 -1.1104 12.36313160711459 22.501760459349015 12.646758518541226 0 0 0
12125 0 2 2.2208 11.108158889049216 21.191066483338926 11.023477001732438 0 0 0
12110 0 2 2.2208 11.118291225281343 4.234698854377954 11.08290302204351 0 0 0
12026 0 2 2.2208 8.2214196193909 12.695796770474276 -0.09123435829397451 0 0 0
12124 0 2 2.2208 8.126140454111752 23.935371357181257 11.027462338270384 0 0 0
12116 0 2 2.2208 -0.09563695295693612 15.603629876404225 10.995204907317074 0 0 0
12109 0 2 2.2208 8.313794017460497 7.0635498614070595 11.125558559373818 0 0 0
12136 0 2 2.2208 2.7088061427090544 9.967456746303066 13.727040767473824 0 0 0
12008 0 2 2.2208 5.468712022342333 1.384360820599503 2.814048021660278 0 0 0
12132 0 2 2.2208 -0.09414486585307215 7.1376928074496915 13.842045984312971 0 0 0
12010 0 2 2.2208 11.075716370229221 1.6135508823210043 2.684230988265096 0 0 0
12123 0 2 2.2208 5.580139827556723 21.253649084020562 11.093388815128712 0 0 0
12108 0 2 2.2208 5.512238827086167 4.300974554413854 11.097476720912868 0 0 0
12013 0 2 2.2208 2.694269207943144 4.4517670135095955 2.6536396369624087 0 0 0
12122 0 2 2.2208 2.649010428111137 23.950023673177554 11.151306806118683 0 0 0
12107 0 2 2.2208 2.6471403308380625 7.02414912639384 11.104379299272003 0 0 0
12112 0 2 2.2208 2.3147012186294664 12.796489866089127 11.173202806718878 0 0 0
12017 0 2 2.2208 8.316899277951979 4.43489031768087 2.6578117179658034 0 0 0
12018 0 2 2.2208 5.523237968341892 7.19988273253547 2.7501085441823934 0 0 0
12104 0 2 2.2208 8.397026695828073 1.4524873964980738 11.12737934928643 0 0 0
12020 0 2 2.2208 11.137092210706504 7.133048623042891 2.784294237219572 0 0 0
12004 0 2 2.2208 -0.05167299800154147 1.58810857525937 2.6767613619459327 0 0 0
15042 0 2 2.2208 13.90586901856257 21.119100767289233 2.6851014383312792 0 0 0
12023 0 2 2.2208 2.768732464899046 9.968671293339101 2.642207483218106 0 0 0
12120 0 2 2.2208 10.962168646091776 15.760785702216678 11.260376658885836 0 0 0
12102 0 2 2.2208 2.6876251944365914 1.463267321656313 11.094344112804235 0 0 0
12113 0 2 2.2208 5.46669506930832 12.890380663293824 11.501036840091428 0 0 0
12027 0 2 2.2208 8.336828769325969 9.945005476930655 2.743139396396035 0 0 0
12028 0 2 2.2208 5.533691894385172 12.783657876222518 2.6170601030949445 0 0 0
12100 0 2 2.2208 11.076554530253874 24.04004669291958 8.274473550241709 0 0 0
12030 0 2 2.2208 11.165235693489842 12.763207480511477 2.8491544595692635 0 0 0
12099 0 2 2.2208 11.117421048409193 21.088599715626273 5.438832361577814 0 0 0
12098 0 2 2.2208 5.38613338000649 23.962243059170916 8.25607159675704 0 0 0
12033 0 2 2.2208 2.518855529503344 15.596036597793963 2.7173795803951393 0 0 0
15111 0 2 2.2208 13.764632108612885 12.86164920821358 11.03404039615345 0 0 0
12097 0 2 2.2208 8.276739575139658 21.097386345217178 8.246369738555561 0 0 0
12096 0 2 2.2208 8.242790107857116 23.90641278323074 5.543533610930101 0 0 0
12037 0 2 2.2208 8.228200041887943 15.677847078590409 2.6208439571922506 0 0 0
12038 0 2 2.2208 5.423256133708984 18.298939422583306 2.7319149939220546 0 0 0
12095 0 2 2.2208 5.514096461229352 21.057214006495414 5.441321071112471 0 0 0
12040 0 2 2.2208 11.186103926003412 18.40448379816547 2.806003542852424 0 0 0
12039 0 2 2.2208 11.164080496246743 15.649165265699017 0.01855062594643062 0 0 0
12093 0 2 2.2208 2.568959364894463 21.24866535247435 8.252670977172212 0 0 0
12043 0 2 2.2208 2.5315407040615723 21.093804676843206 2.716773732478419 0 0 0
243 0 1 -1.1104 5.383620423131892 10.835520407488987 13.173063768630874 0 0 0
12092 0 2 2.2208 2.5467133071044783 23.91853261467302 5.376639412950652 0 0 0
12046 0 2 2.2208 8.227352788514581 23.821977277783375 -0.06015263201816089 0 0 0
12047 0 2 2.2208 8.326637482051868 21.022723743532033 2.730802801773074 0 0 0
12048 0 2 2.2208 5.4477906367257525 23.833446243831464 2.6167299681822445 0 0 0
12090 0 2 2.2208 11.084416574524118 18.366918290376034 8.223243593819936 0 0 0
12050 0 2 2.2208 11.050443470582794 23.859622461605397 2.761547585893542 0 0 0
12119 0 2 2.2208 8.321845661387622 18.50562531116718 11.040763120220886 0 0 0
12052 0 2 2.2208 2.6931723441742257 1.6283115647630981 5.588207348492089 0 0 0
11714 0 1 -1.1104 12.356237128905253 0.034455677434518314 12.380396855416448 0 1 0
12118 0 2 2.2208 5.408675785646976 16.16838554557031 11.09333309812189 0 0 0
12088 0 2 2.2208 5.46794049443356 18.39049093748346 8.285911668466246 0 0 0
12056 0 2 2.2208 8.352438506851183 1.6223801166372431 5.374215284417066 0 0 0
15072 0 2 2.2208 13.813505714083485 9.951040635468575 8.48203381446488 0 0 0
12058 0 2 2.2208 5.497786945453543 1.622792689098425 8.31304717227661 0 0 0
12061 0 2 2.2208 -0.08359856195306987 4.408545736129008 5.448985516845255 0 0 0
12060 0 2 2.2208 11.002646712894522 1.5563025310143113 8.279806573567893 0 0 0
12117 0 2 2.2208 2.6056660411197576 18.550435113057084 11.090941866269507 0 0 0
12062 0 2 2.2208 2.5796438188072712 7.1675066731609665 5.505156689276433 0 0 0
12063 0 2 2.2208 2.694317340627085 4.354480840324982 8.222240198598586 0 0 0
12089 0 2 2.2208 11.071499830535165 15.552400077963766 5.353755264836284 0 0 0
12065 0 2 2.2208 5.602749245250458 4.407081194895388 5.4292622847669145 0 0 0
12066 0 2 2.2208 8.329475067665335 7.3035518565925015 5.527477357078378 0 0 0
12067 0 2 2.2208 8.157551086428061 4.310321777105099 8.327634362506343 0 0 0
12068 0 2 2.2208 5.320679029078698 7.0400512996630225 8.166447594880047 0 0 0
12069 0 2 2.2208 11.158204021062902 4.317768659117194 5.460300390806864 0 0 0
12070 0 2 2.2208 10.981125432174892 7.2151197565569545 8.451069854565256 0 0 0
12115 0 2 2.2208 11.111226333661648 9.909172636657518 11.089672393483724 0 0 0
12072 0 2 2.2208 2.6302483233262284 12.747143159544644 5.329188120690483 0 0 0
12073 0 2 2.2208 2.584471207934549 9.986191494142473 8.2786376317509 0 0 0
12114 0 2 2.2208 8.635590987016897 12.794038588523895 10.993045490866022 0 0 0
12075 0 2 2.2208 5.490495097571617 9.853300719716719 5.497106627431547 0 0 0
12076 0 2 2.2208 8.265553759247467 12.78652500559876 5.38520048728501 0 0 0
12077 0 2 2.2208 8.172430823306913 10.04817217648363 8.421904736591316 0 0 0
12078 0 2 2.2208 5.453564243409862 12.727650033391056 8.001394432623009 0 0 0
12079 0 2 2.2208 11.047926253188653 9.87636842170093 5.559382963592058 0 0 0
12080 0 2 2.2208 11.00692318288524 12.746297272057783 8.308035633989823 0 0 0
15061 0 2 2.2208 13.865820821529033 7.163662125286939 5.601386602781286 0 0 0
12082 0 2 2.2208 2.641850914954883 18.367595383785577 5.483861261105389 0 0 0
12083 0 2 2.2208 2.8233636349161375 15.61527661718486 8.301005093148186 0 0 0
15106 0 2 2.2208 13.874939050648246 7.029710120425305 11.104441675188854 0 0 0
12085 0 2 2.2208 5.4107694008910086 15.563373529781709 5.387994788187926 0 0 0
12086 0 2 2.2208 8.353161027417169 18.182983389564694 5.659775363782194 0 0 0
12087 0 2 2.2208 8.072477650296632 15.456295678962645 8.398054763568789 0 0 0
5725 0 1 -1.1104 9.565472457441844 0.16834199550917073 9.503721942039187 0 1 0
5726 0 1 -1.1104 4.0440822500357205 0.17017474462735074 9.613560992943405 0 1 0
15041 0 2 2.2208 13.824860793538157 23.93768599528401 -0.017745033082241003 0 0 0
5772 0 1 -1.1104 6.854861725772182 0.18866711997449198 9.793391315169135 0 1 0
15082 0 2 2.2208 13.292806423427228 15.650052304951005 8.365848687421153 0 0 0
5730 0 1 -1.1104 12.51509260977879 0.1544121521500501 9.781377670379097 0 1 0
15022 0 2 2.2208 13.931436716834678 10.054511333442987 2.814353670541687 0 0 0
5818 0 1 -1.1104 6.859912214614804 -0.13589409164025051 12.438120936354272 0 1 0
15146 0 2 2.2208 13.744554603834047 21.091967528797365 13.929389391952483 0 0 0
15092 0 2 2.2208 13.814483886473385 21.131700490565127 8.41431369018918 0 0 0
15032 0 2 2.2208 13.822228945977418 15.541690911814056 2.64338227673713 0 0 0
12146 0 2 2.2208 2.7228207210772015 21.20070271880909 13.854361304113882 0 0 0
15101 0 2 2.2208 13.848799083614129 1.4855052318822135 11.226549707262436 0 0 0
15121 0 2 2.2208 13.906379609774659 23.871833368243088 11.201627698006392 0 0 0
15051 0 2 2.2208 13.867376513649035 1.6630407093873987 5.587220002416879 0 0 0
12129 0 2 2.2208 5.544885629107676 1.4562622042166582 13.901160043959294 0 0 0
15136 0 2 2.2208 13.93921017936939 10.051593344285104 13.885754900904288 0 0 0
15141 0 2 2.2208 13.898652946972522 15.593530077613169 13.941087729289439 0 0 0
12074 0 2 2.2208 -0.0710988775013692 12.708305594883816 8.250057529129439 0 0 0
12135 0 2 2.2208 11.111185608046632 7.1344111961929135 13.941608894993983 0 0 0
12138 0 2 2.2208 7.9498768182372075 10.077764229717202 13.939305928512399 0 0 0
12029 0 2 2.2208 11.045159742664088 10.0550938221406 -0.035790198691187845 0 0 0
12133 0 2 2.2208 8.294509741272668 4.328961204467069 13.83141626545447 0 0 0
12145 0 2 2.2208 11.104043419080524 18.388369010349656 13.801284410901397 0 0 0
15021 0 2 2.2208 13.750879411212075 12.703983661734851 0.050414787729702995 0 0 0
12006 0 2 2.2208 8.324991210242217 1.6644732114273646 -0.04889736808958234 0 0 0
12036 0 2 2.2208 8.31263192804725 18.29193080635239 -0.09642128389350824 0 0 0
12032 0 2 2.2208 2.608807989212069 18.427064203593314 -0.023238103663228253 0 0 0
12148 0 2 2.2208 8.258609544934487 21.247277422041492 13.944505193702597 0 0 0
12142 0 2 2.2208 -0.013034751548957845 18.395490319912273 13.852886472361815 0 0 0
12022 0 2 2.2208 2.6403951684167892 12.599269035174304 0.025421074420954873 0 0 0
15001 0 2 2.2208 13.914522527577853 1.5269801398460796 -0.03637051239851695 0 0 0
12019 0 2 2.2208 11.182756599446513 4.370269027590967 -0.09409957323723986 0 0 0
12016 0 2 2.2208 8.094903285950675 7.229212695323972 -0.0798817149894803 0 0 0
226 0 1 -1.1104 4.045497716569101 0.12129174381314237 15.436826678607348 0 0 0
227 0 1 -1.1104 1.382023815476662 0.10184274051167726 15.39441663207044 0 0 0
228 0 1 -1.1104 4.077370404963786 2.9192158958284353 15.369700885264303 0 0 0
229 0 1 -1.1104 1.336227355376148 2.976209664209775 15.533560146350741 0 0 0
230 0 1 -1.1104 9.489788843293931 0.02794674930608093 15.030450570042314 0 0 0
231 0 1 -1.1104 6.854577415947773 2.9012196728607518 15.421566386398721 0 0 0
232 0 1 -1.1104 9.659171503593265 3.1164219404883444 15.095237771211709 0 0 0
233 0 1 -1.1104 6.971014618751725 5.641435662716804 15.220874633961264 0 0 0
234 0 1 -1.1104 12.619547267119225 0.01363228653518832 15.133818647396676 0 0 0
235 0 1 -1.1104 12.75554169092762 2.9949409414714356 15.126234254407475 0 0 0
236 0 1 -1.1104 4.021928233127914 5.704333138997151 15.34243256913914 0 0 0
237 0 1 -1.1104 1.275285738540497 5.88261649701786 15.355368940271278 0 0 0
238 0 1 -1.1104 3.9333894591397955 8.565072340312094 15.402973526481244 0 0 0
239 0 1 -1.1104 1.2403843282252678 8.649534231861251 15.319532554033735 0 0 0
240 0 1 -1.1104 9.708151357384125 5.772747706960372 15.306019666611066 0 0 0
241 0 1 -1.1104 6.791549877352096 8.455910999643896 15.166070906611214 0 0 0
242 0 1 -1.1104 9.613341980458403 8.482748862382119 15.2348221708563 0 0 0
5903 0 1 -1.1104 6.831849173538574 0.07106759781335875 18.16620380884857 0 1 0
244 0 1 -1.1104 12.517391213257875 5.673190487604471 15.246210899464584 0 0 0
245 0 1 -1.1104 12.467330151450977 8.505003116856441 15.339489689736537 0 0 0
246 0 1 -1.1104 3.942181234619555 11.347884981828885 15.522272666121733 0 0 0
247 0 1 -1.1104 0.9684420321805974 11.497571352001872 15.425523787495836 0 0 0
248 0 1 -1.1104 4.067768633256816 14.324013166981322 15.594645582583961 0 0 0
249 0 1 -1.1104 1.3081573187802222 14.140415924559731 15.475684466573005 0 0 0
250 0 1 -1.1104 9.407104371840596 11.323438187743312 15.243095050638239 0 0 0
251 0 1 -1.1104 6.815832289364526 11.233102996137879 15.711674687698133 0 0 0
252 0 1 -1.1104 9.769676709263399 14.03661135042851 15.338901014680882 0 0 0
253 0 1 -1.1104 7.03982107998978 14.08092073665383 15.56002829325275 0 0 0
254 0 1 -1.1104 12.416038496985037 11.3181463013459 15.291704015596727 0 0 0
255 0 1 -1.1104 12.587266872918663 14.104035728595393 15.321149449884844 0 0 0
256 0 1 -1.1104 4.190097544873653 16.961623412430225 15.436012774472092 0 0 0
257 0 1 -1.1104 1.2664437416913361 17.050295407600952 15.197889397108046 0 0 0
258 0 1 -1.1104 4.242878891316403 19.944773331220905 15.297989596792837 0 0 0
259 0 1 -1.1104 1.3986219480214768 19.848278587593658 15.338501350072443 0 0 0
260 0 1 -1.1104 9.771263711998555 16.940391587427897 15.255361940980627 0 0 0
261 0 1 -1.1104 6.954413010867983 16.905636075359 15.371516162462934 0 0 0