ITEM: TIMESTEP
100000
ITEM: NUMBER OF ATOMS
18000
ITEM: BOX BOUNDS xy xz yz pp pp pp
-1.8801361479333159e-01 2.8082013614792945e+01 0.0000000000000000e+00
-2.2542193209537849e+00 3.3698221932096368e+02 0.0000000000000000e+00
-1.9396902942784000e-01 2.8087969029427629e+01 0.0000000000000000e+00
ITEM: ATOMS id type q mass x y z
41 2 2.2208 232.038 -0.210223 20.3117 -0.185267
2 1 -1.1104 15.9994 6.74225 16.2248 12.2139
94 3 -1.1104 15.9994 9.70526 -1.05885 9.84145
8963 2 2.2208 232.038 -0.330865 17.428 2.89672
346 2 2.2208 232.038 2.67483 3.26667 13.7814
6 1 -1.1104 15.9994 4.0068 18.8432 12.807
7 1 -1.1104 15.9994 1.31259 18.9784 12.5626
8 2 2.2208 232.038 5.5254 0.420145 2.49075
9 1 -1.1104 15.9994 3.6295 16.125 12.4739
10 2 2.2208 232.038 11.2103 0.259544 2.68708
11 1 -1.1104 15.9994 0.992434 15.8574 12.4961
12 1 -1.1104 15.9994 12.3999 13.288 12.4613
13 2 2.2208 232.038 2.77793 3.33796 2.58117
9040 2 2.2208 232.038 13.8255 17.6427 5.4472
15 1 -1.1104 15.9994 12.3947 10.516 12.5381
16 1 -1.1104 15.9994 9.76901 13.3296 12.4949
17 2 2.2208 232.038 8.32276 3.20353 2.54416
18 2 2.2208 232.038 5.50411 6.05457 2.54844
19 1 -1.1104 15.9994 6.99203 13.374 12.3577
20 2 2.2208 232.038 10.9123 5.97041 2.31012
9318 2 2.2208 232.038 13.8812 20.189 13.8782
333 2 2.2208 232.038 7.96124 9.13964 13.7064
23 2 2.2208 232.038 2.72188 8.80411 2.5693
795 1 -1.1104 15.9994 8.20899 23.0385 2.57496
25 1 -1.1104 15.9994 9.76053 10.8079 12.2217
26 1 -1.1104 15.9994 6.60597 10.5159 12.5568
27 2 2.2208 232.038 8.1607 8.92413 2.53975
28 2 2.2208 232.038 5.20563 11.6794 2.60508
29 1 -1.1104 15.9994 4.27177 13.331 12.3288
30 2 2.2208 232.038 11.0642 12.0541 2.57027
318 1 -1.1104 15.9994 0.920724 7.4572 12.6196
32 1 -1.1104 15.9994 1.18473 13.092 12.3577
33 2 2.2208 232.038 2.34015 14.5007 2.66361
9020 2 2.2208 232.038 13.8733 5.88436 5.35547
35 1 -1.1104 15.9994 4.0268 10.4477 12.6333
36 1 -1.1104 15.9994 1.17471 10.2595 12.626
37 2 2.2208 232.038 8.16281 14.6192 2.62085
38 2 2.2208 232.038 5.06393 17.5656 2.45146
39 1 -1.1104 15.9994 12.4499 7.48854 12.327
40 2 2.2208 232.038 11.3886 17.5065 2.6872
317 1 -1.1104 15.9994 4.11159 4.72034 12.4948
42 1 -1.1104 15.9994 12.5143 4.46635 13.03
43 2 2.2208 232.038 2.37559 20.2153 2.49772
9021 2 2.2208 232.038 14.0507 3.19499 8.17221
45 1 -1.1104 15.9994 9.85699 7.62908 12.7811
46 1 -1.1104 15.9994 6.50135 7.35144 12.4444
47 2 2.2208 232.038 8.54737 20.8596 2.77609
48 2 2.2208 232.038 5.44693 23.089 2.46342
49 1 -1.1104 15.9994 9.61729 4.79366 12.5499
50 2 2.2208 232.038 11.2405 23.2236 2.79776
51 1 -1.1104 15.9994 6.97884 4.67218 12.4651
52 2 2.2208 232.038 2.84642 0.477348 5.2662
53 1 -1.1104 15.9994 6.98544 21.5475 12.9299
345 2 2.2208 232.038 11.7452 23.0617 13.8225
55 1 -1.1104 15.9994 3.99115 21.7079 12.5078
56 2 2.2208 232.038 8.42163 0.315151 5.41103
57 1 -1.1104 15.9994 1.28878 21.755 12.5177
58 2 2.2208 232.038 5.63347 0.386246 8.31919
59 1 -1.1104 15.9994 12.5905 18.7899 12.4813
60 2 2.2208 232.038 11.1008 0.499268 8.22249
316 1 -1.1104 15.9994 1.22351 4.67978 12.328
62 2 2.2208 232.038 2.55099 6.07133 5.5489
63 2 2.2208 232.038 2.56506 3.28394 8.32752
335 2 2.2208 232.038 11.0915 11.932 13.8561
65 2 2.2208 232.038 5.42432 3.22568 5.5029
66 2 2.2208 232.038 8.1746 6.0123 5.44216
67 2 2.2208 232.038 8.24499 3.27031 8.41886
68 2 2.2208 232.038 5.40148 5.9783 8.22919
69 2 2.2208 232.038 10.9597 3.10556 5.24286
70 2 2.2208 232.038 11.1087 5.71726 8.094
409 2 2.2208 232.038 5.34496 14.5627 -0.186217
72 2 2.2208 232.038 2.5509 11.6565 5.55116
73 2 2.2208 232.038 2.54744 8.86192 8.3582
74 1 -1.1104 15.9994 3.66442 7.27841 12.6893
75 2 2.2208 232.038 5.43607 8.86035 5.36711
76 2 2.2208 232.038 7.96742 11.7809 5.51047
77 2 2.2208 232.038 7.93611 8.82405 8.37195
78 2 2.2208 232.038 5.43988 11.7632 8.376
79 2 2.2208 232.038 10.9638 8.98634 4.99947
80 2 2.2208 232.038 11.04 11.9247 8.11567
81 4 2.2208 232.038 8.18448 17.6502 2.60538
82 2 2.2208 232.038 2.35374 17.5435 5.27598
83 2 2.2208 232.038 2.35207 14.691 8.04379
249 1 -1.1104 15.9994 12.523 10.2454 9.40546
85 2 2.2208 232.038 4.99509 14.6854 5.43351
86 2 2.2208 232.038 8.27393 17.3972 5.81174
87 2 2.2208 232.038 8.17438 14.5439 8.07451
88 2 2.2208 232.038 5.27546 17.4171 8.14142
89 2 2.2208 232.038 11.3215 14.924 5.33621
90 2 2.2208 232.038 11.001 17.4705 8.1981
91 1 -1.1104 15.9994 12.6697 15.884 12.5603
92 2 2.2208 232.038 2.55248 23.2582 5.42255
93 2 2.2208 232.038 2.50225 20.3582 8.04879
338 2 2.2208 232.038 8.41026 14.7467 13.7934
95 2 2.2208 232.038 5.04337 20.235 5.27398
96 2 2.2208 232.038 8.21811 22.9993 5.51281
97 2 2.2208 232.038 8.02211 20.4439 8.24769
98 2 2.2208 232.038 5.13297 23.0872 8.10173
99 2 2.2208 232.038 11.2282 20.2835 5.46631
100 2 2.2208 232.038 11.1155 23.2801 8.23732
101 1 -1.1104 15.9994 9.7794 18.7752 12.4247
102 2 2.2208 232.038 2.6378 0.506639 11.0437
103 1 -1.1104 15.9994 6.85011 18.7579 12.3325
104 2 2.2208 232.038 8.40732 0.500632 11.2409
105 1 -1.1104 15.9994 9.72529 16.0871 12.4255
315 1 -1.1104 15.9994 12.5461 1.79673 12.6237
107 2 2.2208 232.038 2.67828 5.92833 11.0621
108 2 2.2208 232.038 5.53413 3.31294 11.1202
109 2 2.2208 232.038 8.36256 6.45739 11.0178
110 2 2.2208 232.038 11.173 3.07715 11.157
111 4 2.2208 232.038 11.0568 8.80648 8.25221
112 2 2.2208 232.038 2.64952 11.8432 11.2144
113 2 2.2208 232.038 5.46405 9.14087 10.9165
114 2 2.2208 232.038 8.21345 12.0172 10.9968
115 2 2.2208 232.038 10.7869 8.93156 11.3897
116 1 -1.1104 15.9994 12.5065 21.6392 12.2982
117 2 2.2208 232.038 2.17405 17.4026 10.966
118 2 2.2208 232.038 5.24723 14.7325 10.9665
119 2 2.2208 232.038 8.27242 17.4003 11.0295
120 2 2.2208 232.038 11.1314 14.6244 10.9468
121 1 -1.1104 15.9994 9.85312 21.497 12.7932
122 2 2.2208 232.038 2.54011 23.1503 11.2397
123 2 2.2208 232.038 5.18872 20.0433 11.2306
124 2 2.2208 232.038 8.05809 23.0199 11.0491
125 2 2.2208 232.038 11.0373 20.1808 10.8709
126 1 -1.1104 15.9994 1.13229 -1.07156 1.43051
127 1 -1.1104 15.9994 4.0445 -0.880579 1.07817
128 1 -1.1104 15.9994 1.31148 -1.13531 4.05623
129 1 -1.1104 15.9994 4.02214 -0.986515 3.93522
130 1 -1.1104 15.9994 1.52205 1.88794 1.15484
131 1 -1.1104 15.9994 4.18708 1.8564 1.11861
132 1 -1.1104 15.9994 1.30312 2.03415 4.12972
133 1 -1.1104 15.9994 4.15698 1.7331 3.84699
134 1 -1.1104 15.9994 6.82028 -1.11971 1.19135
135 1 -1.1104 15.9994 9.53518 -1.1609 1.50322
136 1 -1.1104 15.9994 6.80279 -1.0156 4.02497
137 1 -1.1104 15.9994 9.54639 -1.18059 4.20657
138 1 -1.1104 15.9994 7.06662 1.72957 1.15283
139 1 -1.1104 15.9994 9.72129 1.86816 1.46786
140 1 -1.1104 15.9994 7.11248 1.89961 4.11113
141 1 -1.1104 15.9994 9.74587 1.73337 3.97911
142 1 -1.1104 15.9994 12.459 -1.38022 1.7555
143 1 -1.1104 15.9994 12.5135 -1.10213 4.1782
144 1 -1.1104 15.9994 12.7095 1.73159 1.50716
145 1 -1.1104 15.9994 12.5091 1.719 4.1681
146 1 -1.1104 15.9994 1.07886 4.60143 1.20095
147 1 -1.1104 15.9994 4.09412 4.62982 1.1893
148 1 -1.1104 15.9994 1.17343 4.74762 4.02467
149 1 -1.1104 15.9994 4.00382 4.57159 4.04389
150 1 -1.1104 15.9994 1.33241 7.4799 1.12466
151 1 -1.1104 15.9994 3.93849 7.31772 1.43981
152 1 -1.1104 15.9994 1.23279 7.41156 4.10396
153 1 -1.1104 15.9994 4.14351 7.33091 4.28086
154 1 -1.1104 15.9994 6.99139 4.56698 1.13505
155 1 -1.1104 15.9994 9.80699 4.54722 0.972582
156 1 -1.1104 15.9994 6.91105 4.68237 3.94649
157 1 -1.1104 15.9994 9.74722 4.43851 3.8477
158 1 -1.1104 15.9994 6.54424 7.62313 1.03429
159 1 -1.1104 15.9994 9.43539 7.54504 1.30877
160 1 -1.1104 15.9994 6.78121 7.57286 3.81709
161 1 -1.1104 15.9994 9.46861 7.41581 3.99444
162 1 -1.1104 15.9994 12.5554 4.47621 1.44854
163 1 -1.1104 15.9994 12.4061 4.42177 4.27329
164 1 -1.1104 15.9994 12.3577 7.44138 1.16317
165 1 -1.1104 15.9994 12.6467 7.33181 3.91216
166 1 -1.1104 15.9994 1.06424 10.0935 0.993257
167 1 -1.1104 15.9994 3.98238 10.4186 1.05119
168 1 -1.1104 15.9994 1.30261 10.3167 3.94763
169 1 -1.1104 15.9994 4.24334 10.2633 4.02324
170 1 -1.1104 15.9994 1.22841 13.0924 1.20998
171 1 -1.1104 15.9994 4.04809 13.3155 1.26625
172 1 -1.1104 15.9994 1.17836 12.9931 4.1154
173 1 -1.1104 15.9994 3.94728 13.0659 4.02572
174 1 -1.1104 15.9994 6.69472 10.397 1.28822
175 1 -1.1104 15.9994 9.74399 10.3705 1.16175
176 1 -1.1104 15.9994 6.82528 10.1071 4.07963
177 1 -1.1104 15.9994 9.7269 10.6149 3.95036
178 1 -1.1104 15.9994 6.79396 13.4201 0.966701
179 1 -1.1104 15.9994 9.50037 13.4063 0.901764
180 1 -1.1104 15.9994 6.70606 13.1958 4.22692
181 1 -1.1104 15.9994 9.44169 13.3532 4.09698
182 1 -1.1104 15.9994 12.483 10.3294 0.994039
183 1 -1.1104 15.9994 12.5406 10.4368 3.84275
184 1 -1.1104 15.9994 12.5291 13.2868 1.11932
185 1 -1.1104 15.9994 12.4384 13.2615 4.06973
186 1 -1.1104 15.9994 1.11538 16.1668 1.11955
187 1 -1.1104 15.9994 3.82728 16.1554 1.30395
188 1 -1.1104 15.9994 1.06226 16.0466 4.00424
189 1 -1.1104 15.9994 3.91007 15.9756 3.99315
190 1 -1.1104 15.9994 1.36837 19.0202 0.888845
191 1 -1.1104 15.9994 4.10025 18.8236 0.976386
192 1 -1.1104 15.9994 1.09985 18.9667 3.87065
193 1 -1.1104 15.9994 3.80388 18.9608 3.93209
194 1 -1.1104 15.9994 6.45808 15.9683 1.4761
195 1 -1.1104 15.9994 9.29212 16.2997 1.1701
196 1 -1.1104 15.9994 9.27586 18.9845 4.24617
197 1 -1.1104 15.9994 6.92069 16.4469 3.9555
198 1 -1.1104 15.9994 7.0361 18.7173 0.895327
199 1 -1.1104 15.9994 9.78873 18.8571 1.51628
200 1 -1.1104 15.9994 6.56955 19.1988 3.50688
201 1 -1.1104 15.9994 9.58283 16.1659 3.76806
202 1 -1.1104 15.9994 12.5457 16.222 1.15111
203 1 -1.1104 15.9994 12.854 15.933 3.79439
204 1 -1.1104 15.9994 12.8179 18.9835 1.06539
205 1 -1.1104 15.9994 12.6154 19.1569 3.89697
206 1 -1.1104 15.9994 1.16706 21.8239 0.960912
207 1 -1.1104 15.9994 3.87587 21.7046 1.2989
208 1 -1.1104 15.9994 0.975065 21.5877 3.99288
209 1 -1.1104 15.9994 3.9605 21.7448 3.83976
210 1 -1.1104 15.9994 6.70814 21.3057 1.03917
211 1 -1.1104 15.9994 9.97884 21.7589 1.06203
212 1 -1.1104 15.9994 6.8274 21.7616 4.32845
213 1 -1.1104 15.9994 11.0883 17.409 5.10489
214 1 -1.1104 15.9994 12.757 21.8102 1.40309
215 1 -1.1104 15.9994 12.7487 21.8072 4.26594
216 1 -1.1104 15.9994 1.24711 -0.666656 6.79515
217 1 -1.1104 15.9994 4.26335 -0.847996 6.83401
218 1 -1.1104 15.9994 1.28181 -0.937652 9.45176
219 1 -1.1104 15.9994 4.08527 -0.881827 9.85847
220 1 -1.1104 15.9994 0.97478 1.85964 6.75071
221 1 -1.1104 15.9994 4.02644 2.04581 6.91746
222 1 -1.1104 15.9994 1.1547 1.8833 9.56423
223 1 -1.1104 15.9994 3.8508 2.09009 9.81119
224 1 -1.1104 15.9994 6.87113 -1.03958 6.91938
225 1 -1.1104 15.9994 9.89356 -0.992063 7.00445
226 1 -1.1104 15.9994 6.93117 -0.856785 9.76919
227 1 -1.1104 15.9994 9.78238 1.89082 9.59484
228 1 -1.1104 15.9994 6.86147 2.02092 7.04117
229 1 -1.1104 15.9994 9.69433 1.84976 6.74078
230 1 -1.1104 15.9994 6.78785 1.80249 9.80902
231 1 -1.1104 15.9994 9.66482 4.68543 6.69248
232 1 -1.1104 15.9994 12.6538 -0.680953 6.94596
233 1 -1.1104 15.9994 12.5951 -1.12855 9.57917
234 1 -1.1104 15.9994 12.588 2.08071 6.81628
235 1 -1.1104 15.9994 12.6436 1.66703 9.76142
236 1 -1.1104 15.9994 1.13462 4.54662 6.90468
237 1 -1.1104 15.9994 4.04312 4.73974 6.87204
238 1 -1.1104 15.9994 1.06237 4.54908 9.69006
239 1 -1.1104 15.9994 4.18887 4.75974 9.73304
240 1 -1.1104 15.9994 1.3015 7.2 6.95148
241 1 -1.1104 15.9994 4.06252 7.41882 6.80683
242 1 -1.1104 15.9994 1.32672 7.34939 9.58862
243 1 -1.1104 15.9994 4.01156 7.70479 9.7905
244 1 -1.1104 15.9994 6.92255 4.56776 6.85049
245 1 -1.1104 15.9994 9.75828 7.61853 6.98596
246 1 -1.1104 15.9994 7.02519 4.76203 9.85941
247 1 -1.1104 15.9994 9.7586 4.52911 9.58209
248 1 -1.1104 15.9994 6.93405 7.42372 6.73776
5 2 2.2208 232.038 2.47232 14.7526 13.813
250 1 -1.1104 15.9994 6.55375 7.55584 9.5607
251 1 -1.1104 15.9994 9.95159 7.37518 9.55019
252 1 -1.1104 15.9994 12.6029 4.81577 6.86746
253 1 -1.1104 15.9994 12.3094 4.5998 9.80977
254 1 -1.1104 15.9994 12.2894 7.67746 6.61737
255 1 -1.1104 15.9994 12.6176 7.35343 9.29412
256 1 -1.1104 15.9994 1.16636 10.1601 7.02341
257 1 -1.1104 15.9994 3.97146 10.0872 6.80906
258 1 -1.1104 15.9994 1.23386 10.3863 9.67461
259 1 -1.1104 15.9994 3.98203 10.6795 9.68356
260 1 -1.1104 15.9994 1.01859 13.0033 6.81277
261 1 -1.1104 15.9994 3.83737 13.0846 6.79921
262 1 -1.1104 15.9994 0.843202 13.1154 9.63677
263 1 -1.1104 15.9994 3.84642 13.2674 9.6092
264 1 -1.1104 15.9994 6.74964 10.1937 6.91682
265 1 -1.1104 15.9994 9.79715 10.4065 9.30267
266 1 -1.1104 15.9994 6.83264 10.59 9.64782
267 1 -1.1104 15.9994 12.5157 10.3246 6.71831
268 1 -1.1104 15.9994 6.86522 13.1723 6.78513
269 1 -1.1104 15.9994 9.70891 13.1149 6.60825
270 1 -1.1104 15.9994 6.88028 13.422 9.63844
271 1 -1.1104 15.9994 9.55525 13.2874 9.73093
272 1 -1.1104 15.9994 8.28504 8.83081 10.9726
273 1 -1.1104 15.9994 9.95474 10.2579 6.71763
274 1 -1.1104 15.9994 12.6713 13.338 7.05503
275 1 -1.1104 15.9994 12.5202 13.0662 9.7914
276 1 -1.1104 15.9994 1.04969 16.1513 6.73874
277 1 -1.1104 15.9994 3.69433 16.0242 6.7616
278 1 -1.1104 15.9994 1.24374 15.8027 9.68209
279 1 -1.1104 15.9994 3.93648 15.9797 9.53645
280 1 -1.1104 15.9994 0.93978 19.1334 6.817
281 1 -1.1104 15.9994 3.87855 18.8335 6.80326
282 1 -1.1104 15.9994 1.06951 19.179 9.36266
283 1 -1.1104 15.9994 3.77755 18.8511 9.70464
284 1 -1.1104 15.9994 6.61281 15.8413 6.63663
285 1 -1.1104 15.9994 9.61477 15.9854 7.02633
286 1 -1.1104 15.9994 7.06854 16.3001 9.19916
287 1 -1.1104 15.9994 9.8102 16.1209 9.66709
288 1 -1.1104 15.9994 6.70332 18.8959 6.5012
289 1 -1.1104 15.9994 9.68607 19.1425 7.07088
290 1 -1.1104 15.9994 6.83749 18.8545 9.61065
291 1 -1.1104 15.9994 9.56287 18.8211 9.79491
292 1 -1.1104 15.9994 12.7595 15.9398 6.90341
293 1 -1.1104 15.9994 12.7268 15.874 9.56408
294 1 -1.1104 15.9994 12.4821 18.8686 6.72999
295 1 -1.1104 15.9994 12.5086 18.8038 9.56104
296 1 -1.1104 15.9994 1.23901 22.0566 6.85206
297 1 -1.1104 15.9994 3.9443 21.7058 6.69403
298 1 -1.1104 15.9994 1.40148 22.0264 9.53868
299 1 -1.1104 15.9994 4.29058 21.5809 9.76056
300 1 -1.1104 15.9994 6.50569 21.7415 7.00495
301 1 -1.1104 15.9994 9.70814 21.86 6.79594
302 1 -1.1104 15.9994 6.84283 21.4868 9.85151
303 1 -1.1104 15.9994 9.33466 21.5989 9.92214
304 1 -1.1104 15.9994 12.7714 21.8728 6.91697
305 1 -1.1104 15.9994 12.3448 21.5887 9.61152
306 1 -1.1104 15.9994 1.36313 -0.859306 12.3202
307 1 -1.1104 15.9994 4.24711 -1.04613 12.6028
308 1 -1.1104 15.9994 1.36293 1.90838 12.3893
309 1 -1.1104 15.9994 4.24145 1.85131 12.5076
310 1 -1.1104 15.9994 7.09641 -0.95151 12.4756
311 1 -1.1104 15.9994 9.8669 -0.89962 12.5963
312 1 -1.1104 15.9994 7.09178 1.79111 12.7294
313 1 -1.1104 15.9994 9.72537 1.84922 12.535
314 1 -1.1104 15.9994 12.6268 -0.981257 12.389
9075 2 2.2208 232.038 13.9434 17.5608 11.1403
1 2 2.2208 232.038 13.8693 0.479345 11.1761
4 2 2.2208 232.038 -0.0353998 0.66584 2.63283
9041 2 2.2208 232.038 14.1141 14.6791 8.11962
9308 2 2.2208 232.038 13.8767 8.97082 13.8547
794 1 -1.1104 15.9994 10.0345 21.6938 4.01902
61 2 2.2208 232.038 -0.164092 3.23661 5.48902
9070 2 2.2208 232.038 14.0691 11.9166 11.1532
344 2 2.2208 232.038 5.19719 22.9723 13.9701
667 2 2.2208 232.038 11.2278 3.02483 -0.171567
659 2 2.2208 232.038 2.5272 0.444897 -0.275413
22 2 2.2208 232.038 2.47983 11.8319 -0.160559
660 2 2.2208 232.038 8.6809 0.461499 -0.138526
369 3 -1.1104 15.9994 1.31427 -0.770382 23.6908
402 2 2.2208 232.038 13.7643 6.21144 16.752
9644 2 2.2208 232.038 13.7593 3.375 25.146
669 2 2.2208 232.038 8.22364 11.8428 28.0068
359 3 -1.1104 15.9994 1.06009 10.2542 26.503
9364 2 2.2208 232.038 13.6594 20.2813 19.56
327 1 -1.1104 15.9994 7.02645 21.6302 23.9196
668 2 2.2208 232.038 5.42145 9.02625 28.004
329 1 -1.1104 15.9994 3.95768 21.6219 26.7379
323 2 2.2208 232.038 13.8961 17.3877 22.2541
331 1 -1.1104 15.9994 0.999421 21.7719 26.5257
332 3 -1.1104 15.9994 9.60998 15.8924 23.5364
340 2 2.2208 232.038 11.2935 17.1641 13.8695
334 1 -1.1104 15.9994 4.16747 21.6629 24.0929
648 1 -1.1104 15.9994 4.06525 18.851 26.4993
336 1 -1.1104 15.9994 1.5503 21.3273 23.6568
337 3 -1.1104 15.9994 10.9278 6.32306 22.3838
84 2 2.2208 232.038 2.67391 8.88859 13.9036
339 1 -1.1104 15.9994 12.5613 19.0222 26.717
349 2 2.2208 232.038 8.48696 22.9476 28.0411
341 1 -1.1104 15.9994 12.5868 18.9815 23.8502
324 2 2.2208 232.038 5.59794 0.554621 13.9646
674 2 2.2208 232.038 2.46488 20.2219 14.1202
9645 2 2.2208 232.038 13.8083 8.80772 19.5503
9299 2 2.2208 232.038 13.7244 14.6143 19.549
354 2 2.2208 232.038 13.8658 0.483349 22.7539
347 2 2.2208 232.038 2.54574 0.42244 16.7271
352 2 2.2208 232.038 13.638 6.11398 22.5707
663 2 2.2208 232.038 -0.184524 3.15929 28.0871
658 1 -1.1104 15.9994 12.7 16.2678 26.386
351 2 2.2208 232.038 8.10087 0.50771 16.6902
9414 2 2.2208 232.038 13.9121 20.4299 25.2147
353 2 2.2208 232.038 5.33668 0.394194 19.4707
649 1 -1.1104 15.9994 6.64757 15.8975 23.6111
355 2 2.2208 232.038 10.894 0.393084 19.5494
398 2 2.2208 232.038 2.689 23.2834 27.9762
357 2 2.2208 232.038 2.5566 5.96778 16.6178
358 2 2.2208 232.038 2.5563 3.22365 19.471
653 1 -1.1104 15.9994 6.82922 18.9571 23.6065
360 2 2.2208 232.038 5.37983 3.31183 16.8624
361 2 2.2208 232.038 8.18744 6.07178 16.9882
362 2 2.2208 232.038 8.09402 3.29614 19.5815
363 2 2.2208 232.038 5.44251 6.12874 19.496
364 2 2.2208 232.038 11.0797 3.25644 16.8759
365 2 2.2208 232.038 11.0324 6.37781 19.8902
655 1 -1.1104 15.9994 6.81092 18.9782 26.586
367 2 2.2208 232.038 2.49293 11.8591 16.3846
368 2 2.2208 232.038 2.57709 8.68503 19.579
325 2 2.2208 232.038 11.0829 0.362687 13.8834
370 2 2.2208 232.038 5.44212 8.75358 16.7339
371 2 2.2208 232.038 8.23715 11.6395 16.7334
372 2 2.2208 232.038 8.10603 9.00122 19.5262
373 2 2.2208 232.038 5.63185 11.6809 19.4893
374 2 2.2208 232.038 10.9845 8.91661 16.8604
375 2 2.2208 232.038 10.9984 11.5784 19.4446
376 4 2.2208 232.038 2.42085 11.9398 19.5601
377 2 2.2208 232.038 2.51538 17.465 16.6015
378 2 2.2208 232.038 2.40065 15.0741 19.4806
379 1 -1.1104 15.9994 12.4593 22.0609 26.8858
380 2 2.2208 232.038 5.37068 14.6121 16.6883
381 2 2.2208 232.038 8.04936 17.4504 16.7013
382 2 2.2208 232.038 8.2402 14.7971 19.7738
383 2 2.2208 232.038 5.55096 17.4472 19.5769
384 2 2.2208 232.038 10.9435 14.4861 16.6488
385 2 2.2208 232.038 10.9173 17.2355 19.527
386 1 -1.1104 15.9994 12.6497 21.8588 24.0225
387 2 2.2208 232.038 2.37936 23.0991 16.8909
388 2 2.2208 232.038 2.93292 20.2196 19.3811
389 1 -1.1104 15.9994 9.67534 21.5701 26.4242
390 2 2.2208 232.038 5.53373 20.1212 16.8696
391 2 2.2208 232.038 8.23927 22.9964 17.4647
392 2 2.2208 232.038 8.54257 20.1034 19.6507
393 2 2.2208 232.038 5.34832 23.14 19.704
394 2 2.2208 232.038 11.2294 20.1129 16.9116
395 2 2.2208 232.038 11.2016 23.3483 19.6289
650 1 -1.1104 15.9994 7.96545 17.416 25.1474
397 2 2.2208 232.038 2.74455 0.41078 22.3426
671 2 2.2208 232.038 2.6048 17.3773 27.9365
657 1 -1.1104 15.9994 12.5892 16.0993 23.6128
399 2 2.2208 232.038 11.0339 14.5529 27.9512
401 2 2.2208 232.038 8.23684 0.412251 22.5056
348 2 2.2208 232.038 13.9388 11.8374 22.3173
403 2 2.2208 232.038 5.44569 0.432488 25.213
436 2 2.2208 232.038 -0.0737697 20.1516 22.2306
405 2 2.2208 232.038 10.9866 0.121082 25.3757
9643 2 2.2208 232.038 -0.120597 0.374699 19.4936
407 2 2.2208 232.038 2.58259 5.94816 22.4661
408 2 2.2208 232.038 2.56585 3.19125 25.1093
652 1 -1.1104 15.9994 9.87319 15.9998 26.5448
410 2 2.2208 232.038 5.65144 3.31821 22.4813
411 2 2.2208 232.038 8.27366 6.173 22.5464
412 2 2.2208 232.038 8.40792 3.01537 25.3673
413 2 2.2208 232.038 5.3932 6.22573 25.3675
414 2 2.2208 232.038 10.9121 3.2769 22.3862
415 2 2.2208 232.038 11.1789 6.10859 25.2741
400 2 2.2208 232.038 8.24165 17.5153 27.4429
417 2 2.2208 232.038 2.61844 11.6854 22.7601
418 2 2.2208 232.038 2.51287 8.96734 25.309
647 1 -1.1104 15.9994 1.16634 18.9299 26.4954
420 2 2.2208 232.038 5.4232 8.98352 22.4351
421 2 2.2208 232.038 8.32936 11.8122 22.303
422 2 2.2208 232.038 8.2349 9.00789 25.2524
423 2 2.2208 232.038 5.42614 11.8138 25.2736
424 2 2.2208 232.038 10.942 8.77313 22.6178
425 2 2.2208 232.038 11.2293 11.6677 25.0307
426 1 -1.1104 15.9994 6.84354 21.6575 26.6826
427 2 2.2208 232.038 2.45606 17.3577 22.4531
428 2 2.2208 232.038 2.62169 14.5773 25.3568
654 1 -1.1104 15.9994 9.88942 18.8661 23.6854
430 2 2.2208 232.038 5.1066 14.6497 22.2121
431 2 2.2208 232.038 8.2387 17.3121 22.5805
432 2 2.2208 232.038 8.30792 14.6678 24.9625
433 2 2.2208 232.038 5.64937 17.3364 25.1658
434 2 2.2208 232.038 11.0616 14.4633 22.4292
435 2 2.2208 232.038 11.1679 17.4242 25.0274
656 1 -1.1104 15.9994 9.91602 18.8085 26.6423
437 2 2.2208 232.038 2.47161 23.0249 22.3779
438 2 2.2208 232.038 2.6851 20.1023 25.2913
439 1 -1.1104 15.9994 9.88557 21.8897 23.7089
440 2 2.2208 232.038 5.39144 20.2284 22.4342
441 2 2.2208 232.038 8.33712 22.9136 22.3736
442 2 2.2208 232.038 8.1485 20.0357 25.177
443 2 2.2208 232.038 5.46815 23.159 25.3422
444 2 2.2208 232.038 11.1435 20.3235 22.4046
445 2 2.2208 232.038 11.1736 23.2714 25.1381
446 1 -1.1104 15.9994 0.990798 -1.05545 15.2045
447 1 -1.1104 15.9994 4.15112 -0.709903 15.4247
448 1 -1.1104 15.9994 1.33795 1.92638 15.3477
449 1 -1.1104 15.9994 4.10633 2.03443 15.2546
450 1 -1.1104 15.9994 6.9228 -0.960635 15.2481
451 1 -1.1104 15.9994 9.60215 -0.816906 15.4162
452 1 -1.1104 15.9994 6.8186 2.1377 15.3992
453 1 -1.1104 15.9994 9.65492 1.93025 15.3199
454 1 -1.1104 15.9994 12.4163 -1.062 15.2095
455 1 -1.1104 15.9994 12.6638 1.75815 15.4473
456 1 -1.1104 15.9994 1.10127 4.68559 15.238
457 1 -1.1104 15.9994 4.0136 4.66061 15.4048
458 1 -1.1104 15.9994 1.15141 7.47468 15.5936
459 1 -1.1104 15.9994 3.93431 7.47885 15.4
460 1 -1.1104 15.9994 6.5637 4.96128 15.5501
461 1 -1.1104 15.9994 9.7004 4.72529 15.4727
462 1 -1.1104 15.9994 6.63024 7.67286 15.2223
463 1 -1.1104 15.9994 9.58719 7.41643 15.5877
464 1 -1.1104 15.9994 12.4408 4.55642 15.6498
465 1 -1.1104 15.9994 12.5931 7.58109 15.33
466 1 -1.1104 15.9994 1.05302 10.4983 15.3872
467 1 -1.1104 15.9994 3.83809 10.4227 15.2503
468 1 -1.1104 15.9994 1.04312 13.3559 15.2825
469 1 -1.1104 15.9994 4.08877 13.3126 15.2669
470 1 -1.1104 15.9994 6.74727 10.3772 15.3448
471 1 -1.1104 15.9994 9.46664 10.5618 15.2213
472 1 -1.1104 15.9994 6.74701 13.2646 15.2851
473 1 -1.1104 15.9994 9.51429 13.1465 15.216
474 1 -1.1104 15.9994 12.537 10.414 15.3414
475 1 -1.1104 15.9994 12.5287 13.295 15.2784
476 1 -1.1104 15.9994 1.3155 15.8878 15.3043
477 1 -1.1104 15.9994 4.01835 16.0935 15.4464
478 1 -1.1104 15.9994 1.1876 18.5989 15.3247
479 1 -1.1104 15.9994 4.01096 18.798 15.397
480 1 -1.1104 15.9994 6.87779 15.9278 15.1515
481 1 -1.1104 15.9994 9.79519 16.0391 15.1938
482 1 -1.1104 15.9994 6.80672 18.7337 15.3335
483 1 -1.1104 15.9994 9.57466 18.8067 15.4889
484 1 -1.1104 15.9994 12.4289 16.0347 15.4303
485 1 -1.1104 15.9994 12.6536 18.9588 15.1608
486 1 -1.1104 15.9994 1.20682 21.48 15.3581
487 1 -1.1104 15.9994 3.93155 21.5325 15.3423
488 1 -1.1104 15.9994 6.67569 22.1868 15.7127
489 1 -1.1104 15.9994 9.33039 21.5295 15.5986
490 1 -1.1104 15.9994 12.522 21.6227 15.4444
491 1 -1.1104 15.9994 1.01511 -1.15942 18.0899
492 1 -1.1104 15.9994 3.94769 -1.05073 17.9947
493 1 -1.1104 15.9994 1.10825 -1.02179 21.1619
494 1 -1.1104 15.9994 4.09259 -0.99626 20.8007
495 1 -1.1104 15.9994 1.12652 1.80776 18.0217
496 1 -1.1104 15.9994 4.02486 1.70027 18.1915
497 1 -1.1104 15.9994 1.12351 1.94646 20.8511
498 1 -1.1104 15.9994 3.87997 1.81394 20.9313
499 1 -1.1104 15.9994 6.74789 -0.987213 18.1334
500 1 -1.1104 15.9994 9.57847 -1.05816 18.3539
501 1 -1.1104 15.9994 6.73683 -1.28612 21.1166
502 1 -1.1104 15.9994 9.50503 -0.750642 20.8974
503 1 -1.1104 15.9994 6.84939 1.95066 18.0772
504 1 -1.1104 15.9994 9.65842 1.80227 18.1337
505 1 -1.1104 15.9994 6.8143 1.63236 20.8685
506 1 -1.1104 15.9994 9.52098 1.94913 21.0084
507 1 -1.1104 15.9994 12.5885 -0.944693 18.1537
508 1 -1.1104 15.9994 12.4938 -1.15547 21.0586
509 1 -1.1104 15.9994 12.4418 2.20109 18.2825
510 1 -1.1104 15.9994 12.2075 1.67703 20.9227
511 1 -1.1104 15.9994 1.06852 4.60916 18.0278
512 1 -1.1104 15.9994 3.86398 4.76925 18.0988
513 1 -1.1104 15.9994 1.11637 4.75983 20.8434
514 1 -1.1104 15.9994 3.94478 4.56932 20.8368
515 1 -1.1104 15.9994 0.948889 7.62767 18.251
516 1 -1.1104 15.9994 3.91602 7.53794 18.2333
517 1 -1.1104 15.9994 1.16338 7.77842 21.147
518 1 -1.1104 15.9994 3.96507 7.4951 21.0955
519 1 -1.1104 15.9994 6.93737 4.60557 18.333
520 1 -1.1104 15.9994 9.67447 4.86367 18.4246
521 1 -1.1104 15.9994 6.6906 4.61308 21.1477
522 1 -1.1104 15.9994 9.73541 4.53859 20.9626
523 1 -1.1104 15.9994 6.67372 7.53289 18.165
524 1 -1.1104 15.9994 9.46732 7.55278 18.2491
525 1 -1.1104 15.9994 6.65131 7.42988 21.0946
526 1 -1.1104 15.9994 9.27526 7.7561 20.9763
527 1 -1.1104 15.9994 12.2909 4.9327 18.3387
528 1 -1.1104 15.9994 12.8709 4.47549 21.2467
529 1 -1.1104 15.9994 12.1792 7.51225 17.9771
530 1 -1.1104 15.9994 12.4228 7.71747 21.009
531 1 -1.1104 15.9994 1.38311 10.635 18.1391
532 1 -1.1104 15.9994 4.02971 10.5875 18.3249
533 1 -1.1104 15.9994 1.24913 10.3812 20.6361
534 1 -1.1104 15.9994 3.75095 10.3259 21.0208
535 1 -1.1104 15.9994 1.12492 13.482 18.3623
536 1 -1.1104 15.9994 3.7544 13.4206 18.2876
537 1 -1.1104 15.9994 0.884807 12.7481 21.0931
538 1 -1.1104 15.9994 3.5962 13.0648 21.1402
539 1 -1.1104 15.9994 6.93364 10.3302 18.2723
540 1 -1.1104 15.9994 9.60289 10.3954 17.9169
541 1 -1.1104 15.9994 6.6769 10.3875 20.9716
542 1 -1.1104 15.9994 9.19327 10.5511 20.7338
543 1 -1.1104 15.9994 6.65039 13.2919 18.0465
544 1 -1.1104 15.9994 9.52107 13.0467 18.2442
545 1 -1.1104 15.9994 6.58518 13.3275 20.9397
546 1 -1.1104 15.9994 9.47539 13.4478 20.9249
547 1 -1.1104 15.9994 12.2957 10.2311 18.2319
548 1 -1.1104 15.9994 12.4642 10.4904 20.8971
549 1 -1.1104 15.9994 12.2955 12.9209 18.1629
550 1 -1.1104 15.9994 12.4871 13.2243 21.1936
551 1 -1.1104 15.9994 1.01029 16.1932 17.8931
552 1 -1.1104 15.9994 3.93547 16.0625 18.1149
553 1 -1.1104 15.9994 1.03743 15.6101 21.0189
554 1 -1.1104 15.9994 3.84329 16.1537 20.924
555 1 -1.1104 15.9994 1.59098 18.8719 18.1815
556 1 -1.1104 15.9994 4.25789 18.9086 17.9646
557 1 -1.1104 15.9994 1.07543 18.3843 20.855
558 1 -1.1104 15.9994 4.00254 18.934 20.8228
559 1 -1.1104 15.9994 6.56084 16.2884 17.9892
560 1 -1.1104 15.9994 9.21486 15.6476 17.9619
561 1 -1.1104 15.9994 6.66907 16.0671 20.9287
562 1 -1.1104 15.9994 9.59922 16.0824 20.9489
563 1 -1.1104 15.9994 6.93095 19.0442 18.1368
564 1 -1.1104 15.9994 9.76001 18.8169 18.2025
565 1 -1.1104 15.9994 6.65729 18.9063 20.9055
566 1 -1.1104 15.9994 9.52197 18.6034 20.9971
567 1 -1.1104 15.9994 11.9592 15.7642 18.1794
568 1 -1.1104 15.9994 12.3759 16.0452 21.0068
569 1 -1.1104 15.9994 12.5853 18.8093 18.0774
570 1 -1.1104 15.9994 12.321 19.029 20.8436
571 1 -1.1104 15.9994 1.06073 21.6713 18.0301
572 1 -1.1104 15.9994 4.05835 21.8197 18.2419
573 1 -1.1104 15.9994 1.59752 21.3647 20.8855
574 1 -1.1104 15.9994 4.07806 21.7328 21.0386
575 1 -1.1104 15.9994 6.80296 21.544 18.3734
576 1 -1.1104 15.9994 9.80562 21.6775 18.5427
577 1 -1.1104 15.9994 6.84872 21.8583 21.0713
578 1 -1.1104 15.9994 9.81528 21.5308 21.0407
579 1 -1.1104 15.9994 12.3349 21.7856 18.2476
580 1 -1.1104 15.9994 12.5937 22.0136 21.0482
646 1 -1.1104 15.9994 3.91543 18.5807 23.8619
582 1 -1.1104 15.9994 4.08361 -0.91687 23.7998
583 1 -1.1104 15.9994 1.05459 -0.890618 26.9428
584 1 -1.1104 15.9994 4.01233 -0.997377 26.5738
585 1 -1.1104 15.9994 1.10387 1.91213 23.7274
586 1 -1.1104 15.9994 4.28527 1.65926 23.6172
587 1 -1.1104 15.9994 1.05571 1.83236 26.4459
588 1 -1.1104 15.9994 4.01134 1.95807 26.6599
589 1 -1.1104 15.9994 6.72914 -0.945248 23.7107
590 1 -1.1104 15.9994 9.50666 -1.14558 23.6316
591 1 -1.1104 15.9994 6.70152 -1.20047 26.4849
592 1 -1.1104 15.9994 9.37709 -1.11934 26.4364
593 1 -1.1104 15.9994 6.98287 1.94874 23.9988
594 1 -1.1104 15.9994 9.82074 1.69246 23.9801
595 1 -1.1104 15.9994 6.94029 1.57884 26.6933
596 1 -1.1104 15.9994 9.70188 1.76911 26.8022
597 1 -1.1104 15.9994 12.1682 -1.17822 23.7084
598 1 -1.1104 15.9994 12.6489 -1.10324 26.3015
599 1 -1.1104 15.9994 12.4134 1.918 23.9174
600 1 -1.1104 15.9994 12.7411 2.0849 26.8076
601 1 -1.1104 15.9994 0.984787 4.66365 23.7781
602 1 -1.1104 15.9994 3.86036 4.44124 23.7403
603 1 -1.1104 15.9994 1.38528 4.64481 26.6782
604 1 -1.1104 15.9994 4.17207 4.7192 26.6435
605 1 -1.1104 15.9994 1.06196 7.58363 23.7451
606 1 -1.1104 15.9994 3.85552 7.40867 23.9353
607 1 -1.1104 15.9994 1.1658 7.50934 26.5848
608 1 -1.1104 15.9994 4.0047 7.78305 26.5444
609 1 -1.1104 15.9994 6.88356 4.99274 23.8406
610 1 -1.1104 15.9994 9.42419 4.47424 23.6299
611 1 -1.1104 15.9994 6.91484 4.31199 26.7447
612 1 -1.1104 15.9994 9.80239 4.62848 26.5822
613 1 -1.1104 15.9994 6.74955 7.54606 24.1581
614 1 -1.1104 15.9994 9.47694 7.55525 24.1269
615 1 -1.1104 15.9994 6.74253 7.57926 26.8569
616 1 -1.1104 15.9994 9.70029 7.55074 26.8314
617 1 -1.1104 15.9994 12.4621 4.69981 23.821
618 1 -1.1104 15.9994 12.4389 4.68363 26.9679
619 1 -1.1104 15.9994 12.4993 7.71244 24.1936
620 1 -1.1104 15.9994 12.5734 7.52161 26.894
651 1 -1.1104 15.9994 6.92842 15.8863 26.7095
622 1 -1.1104 15.9994 4.00275 10.2876 23.8354
623 1 -1.1104 15.9994 1.13602 10.283 23.7966
624 1 -1.1104 15.9994 3.82514 10.5268 26.5808
625 1 -1.1104 15.9994 1.25864 13.1039 23.9626
626 1 -1.1104 15.9994 4.08288 13.1353 24.1338
627 1 -1.1104 15.9994 1.03555 13.2397 26.7407
628 1 -1.1104 15.9994 3.97505 13.1628 26.7482
629 1 -1.1104 15.9994 7.04547 10.3442 23.8572
630 1 -1.1104 15.9994 9.6353 10.4031 23.8401
631 1 -1.1104 15.9994 6.61307 10.6024 26.6085
632 1 -1.1104 15.9994 9.44351 10.188 26.8182
633 1 -1.1104 15.9994 6.99511 13.2439 23.4948
634 1 -1.1104 15.9994 9.61733 13.3476 23.8028
635 1 -1.1104 15.9994 7.03131 13.0862 26.4848
636 1 -1.1104 15.9994 9.81938 12.897 26.4908
637 1 -1.1104 15.9994 12.4463 10.4319 23.5609
638 1 -1.1104 15.9994 12.4923 10.3025 26.6394
639 1 -1.1104 15.9994 12.411 13.3058 23.7873
640 1 -1.1104 15.9994 12.5204 13.3823 26.6738
641 1 -1.1104 15.9994 0.999019 15.8545 23.8202
642 1 -1.1104 15.9994 3.87514 15.7412 23.9824
643 1 -1.1104 15.9994 1.22525 16.0192 26.6611
644 1 -1.1104 15.9994 4.18581 16.1391 26.6457
645 1 -1.1104 15.9994 1.31576 18.7166 23.6448
9327 2 2.2208 232.038 -0.138637 6.21903 25.1158