LAMMPS (29 Oct 2020)
OMP_NUM_THREADS environment is not set. Defaulting to 1 thread. (../comm.cpp:94)
  using 1 OpenMP thread(s) per MPI task
OMP_NUM_THREADS environment is not set. Defaulting to 1 thread. (../comm.cpp:94)
  using 1 OpenMP thread(s) per MPI task
Lattice spacing in x,y,z = 5.5788000 5.5788000 5.5788000
Created orthogonal box = (0.0000000 0.0000000 0.0000000) to (27.894000 334.72800 27.894000)
  2 by 13 by 2 MPI processor grid
Changing box ...
  triclinic box = (0.0000000 0.0000000 0.0000000) to (27.894000 334.72800 27.894000) with tilt (0.0000000 0.0000000 0.0000000)
Created 12000 atoms
  create_atoms CPU = 0.008 seconds
Lattice spacing in x,y,z = 5.5788000 5.5788000 5.5788000
Created 6000 atoms
  create_atoms CPU = 0.002 seconds
12000 atoms in group oxygen
6000 atoms in group uranium
Setting atom values ...
  45 settings made for type/ratio
Setting atom values ...
  45 settings made for type/ratio
45 atoms in group anti_oxygen
45 atoms in group anti_uranium
Setting atom values ...
  45 settings made for type
Setting atom values ...
  45 settings made for type
Setting atom values ...
  12000 settings made for charge
Setting atom values ...
  6000 settings made for charge
PPPM initialization ...
  using 12-bit tables for long-range coulomb (../kspace.cpp:328)
  G vector (1/distance) = 0.29916851
  grid = 40 240 40
  stencil order = 5
  estimated absolute RMS force accuracy = 0.00015502622
  estimated relative force accuracy = 1.0765975e-05
  using single precision MKL FFT
  3d grid and FFT values/proc = 18225 7600
Neighbor list info ...
  update every 1 steps, delay 0 steps, check yes
  max neighbors/atom: 2000, page size: 100000
  master list distance cutoff = 13
  ghost atom cutoff = 13
  binsize = 6.5, bins = 5 52 5
  2 neighbor lists, perpetual/occasional/extra = 2 0 0
  (1) pair coul/long, perpetual
      attributes: half, newton on
      pair build: half/bin/newton/tri
      stencil: half/bin/3d/newton/tri
      bin: standard
  (2) pair eam/alloy, perpetual, copy from (1)
      attributes: half, newton on
      pair build: copy
      stencil: none
      bin: none
Setting up cg style minimization ...
  Unit style    : metal
  Current step  : 0
WARNING: Energy due to 3 extra global DOFs will be included in minimizer energies
Per MPI rank memory allocation (min/avg/max) = 10.42 | 10.45 | 10.47 Mbytes
Step Temp E_pair E_mol TotEng Press Volume 
       0            0   -231588.92            0   -231588.92    19820.881    260443.57 
     623            0   -235362.08            0   -235362.08     28.76818    263894.89 
Loop time of 9.21812 on 52 procs for 623 steps with 18000 atoms

99.6% CPU use with 52 MPI tasks x 1 OpenMP threads

Minimization stats:
  Stopping criterion = linesearch alpha is zero
  Energy initial, next-to-last, final = 
     -231588.917151428  -235362.084353346  -235362.084353362
  Force two-norm initial, final = 5677.1781 31.292485
  Force max component initial, final = 3614.4358 10.221723
  Final line search alpha, max atom move = 1.2081061e-11 1.2348926e-10
  Iterations, force evaluations = 623 779

MPI task timing breakdown:
Section |  min time  |  avg time  |  max time  |%varavg| %total
---------------------------------------------------------------
Pair    | 5.0082     | 5.1736     | 5.3301     |   3.5 | 56.12
Bond    | 6.5886e-05 | 0.00010608 | 0.00016591 |   0.0 |  0.00
Kspace  | 1.6163     | 1.7771     | 1.9514     |   6.1 | 19.28
Neigh   | 0.040081   | 0.046141   | 0.050669   |   1.0 |  0.50
Comm    | 0.18568    | 0.19429    | 0.20801    |   1.4 |  2.11
Output  | 0          | 0          | 0          |   0.0 |  0.00
Modify  | 0          | 0          | 0          |   0.0 |  0.00
Other   |            | 2.027      |            |       | 21.99

Nlocal:        346.154 ave         380 max         304 min
Histogram: 1 1 6 6 7 7 6 9 7 2
Nghost:        5626.13 ave        5719 max        5527 min
Histogram: 7 11 3 2 2 0 1 8 9 9
Neighs:       111451.0 ave      121831 max       97496 min
Histogram: 1 1 5 7 7 5 8 10 4 4

Total # of neighbors = 5795457
Ave neighs/atom = 321.96983
Ave special neighs/atom = 0.0000000
Neighbor list builds = 12
Dangerous builds = 0
PPPM initialization ...
  using 12-bit tables for long-range coulomb (../kspace.cpp:328)
  G vector (1/distance) = 0.29893969
  grid = 40 240 40
  stencil order = 5
  estimated absolute RMS force accuracy = 0.00015680388
  estimated relative force accuracy = 1.0889427e-05
  using single precision MKL FFT
  3d grid and FFT values/proc = 18225 7600
Setting up Verlet run ...
  Unit style    : metal
  Current step  : 0
  Time step     : 0.001
Per MPI rank memory allocation (min/avg/max) = 10.56 | 10.59 | 10.61 Mbytes
Step Dt Time Atoms Temp PotEng KinEng Press Volume v_latt 
       0        0.001            0    18000         1200   -235362.09     2791.864    11328.435    263894.89    5.6033365 
   50000        0.001           50    18000    1207.5077   -233408.37    2809.3311   -337.27577    271562.46    5.6570868 
  100000        0.001          100    18000    1203.1809   -233427.67    2799.2646   -83.754016     271403.6    5.6559836 
Loop time of 942.95 on 52 procs for 100000 steps with 18000 atoms

Performance: 9.163 ns/day, 2.619 hours/ns, 106.050 timesteps/s
99.8% CPU use with 52 MPI tasks x 1 OpenMP threads

MPI task timing breakdown:
Section |  min time  |  avg time  |  max time  |%varavg| %total
---------------------------------------------------------------
Pair    | 551.13     | 561.28     | 576.07     |  24.9 | 59.52
Bond    | 0.0088224  | 0.014805   | 0.020677   |   2.6 |  0.00
Kspace  | 196.44     | 211.82     | 222.57     |  42.5 | 22.46
Neigh   | 10.438     | 10.895     | 11.567     |   9.8 |  1.16
Comm    | 27.224     | 28.089     | 28.963     |   7.7 |  2.98
Output  | 0.0094244  | 0.0094392  | 0.0097698  |   0.0 |  0.00
Modify  | 115.05     | 122        | 127.35     |  27.1 | 12.94
Other   |            | 8.84       |            |       |  0.94

Nlocal:        346.154 ave         368 max         329 min
Histogram: 1 6 12 9 5 6 4 1 6 2
Nghost:        5517.88 ave        5643 max        5371 min
Histogram: 4 1 5 9 6 5 6 5 2 9
Neighs:       107339.0 ave      114194 max      101915 min
Histogram: 2 6 10 8 9 5 3 1 3 5

Total # of neighbors = 5581622
Ave neighs/atom = 310.09011
Ave special neighs/atom = 0.0000000
Neighbor list builds = 2734
Dangerous builds = 0
System init for write_data ...
PPPM initialization ...
  using 12-bit tables for long-range coulomb (../kspace.cpp:328)
  G vector (1/distance) = 0.29840168
  grid = 40 240 40
  stencil order = 5
  estimated absolute RMS force accuracy = 0.0001612728
  estimated relative force accuracy = 1.1199776e-05
  using single precision MKL FFT
  3d grid and FFT values/proc = 18225 7600
Total wall time: 0:15:52
