ITEM: TIMESTEP
100000
ITEM: NUMBER OF ATOMS
18000
ITEM: BOX BOUNDS pp pp pp
-4.8639609416826102e-01 2.7826396094168246e+01
-5.9113431439942934e+00 3.3399134314400146e+02
-4.8547843663155238e-01 2.7825478436631897e+01
ITEM: ATOMS id type x y z
3673 2 5.21585 -0.495131 5.38454
6 1 1.08839 -2.01727 3.90826
14 2 5.15157 -3.13191 2.59847
63 2 2.24523 -0.432989 2.48033
10 1 3.7655 -4.50765 3.78402
3604 2 2.30473 -3.3766 5.30749
12 1 3.50445 -1.96338 3.79845
14406 1 0.939317 -1.83371 1.11069
3551 1 3.82278 -1.83633 0.759877
3548 1 1.15227 -4.87972 4.05828
3547 1 3.86063 -4.47181 1.01142
3599 1 0.937981 -4.75249 1.10596
9 1 6.41012 -1.6963 0.950478
124 2 2.31633 8.08733 -0.316508
7312 2 -0.467197 -0.404857 10.825
3607 1 0.925259 -1.89098 6.7186
3628 2 13.5975 -3.23795 5.21142
20 1 6.52849 -1.93054 3.82933
18 1 6.81649 -4.78573 3.9761
17 1 6.32302 -4.60255 1.05999
253 2 4.39044 16.7222 -0.375235
3685 2 10.8606 -0.471542 5.27089
30 1 12.1481 -4.93086 3.53008
26 2 10.837 -3.34146 2.26814
75 2 7.97195 -0.377703 2.46286
22 1 9.3612 -5.17085 3.90958
3616 2 8.16643 -3.388 5.16603
24 1 12.0513 -1.92032 3.9289
3571 1 9.13308 -1.92893 3.66256
21 1 12.2029 -1.68391 1.04179
3564 1 12.4251 -4.86688 0.880042
17964 1 9.16088 -4.78447 1.143
19 1 9.46137 -1.6841 1.04004
87 2 13.1845 -0.334072 2.44708
3631 1 12.3947 -1.84158 6.81313
3857 1 6.48767 18.6089 6.5346
70 1 3.60985 0.727288 3.96212
11 1 3.68723 1.04353 1.11308
66 1 1.08703 3.70914 3.69203
7 1 0.836629 0.955176 1.08471
74 2 5.19906 2.284 2.40612
8 1 0.806278 0.954533 3.86942
69 1 3.71964 4.09459 0.766956
3664 2 2.35502 2.30526 5.10211
3733 2 5.08235 5.16254 5.21998
67 1 0.956761 6.34336 1.14735
68 1 1.08289 6.54764 3.88568
129 1 3.93699 6.71855 0.97178
123 2 2.47068 5.28323 2.33292
130 1 3.57787 6.51315 3.71067
72 1 3.81762 3.82153 3.79265
65 1 0.99147 3.75638 0.981377
77 1 6.26524 0.949947 3.72869
3729 1 3.7765 3.98588 6.57539
14484 1 6.25737 3.99314 1.08476
71 1 6.55898 1.15068 0.82413
3869 1 12.1867 18.1097 6.80673
80 1 6.64891 3.91491 3.77606
14480 1 6.55955 6.73466 0.881881
145 2 10.8932 5.20359 -0.305263
138 1 6.4005 6.73936 4.01719
3741 1 6.66365 6.48843 6.54087
82 1 9.25845 1.30033 0.949431
23 1 12.1064 1.12888 1.06403
32 1 12.1038 0.960223 3.8257
90 1 9.26865 0.755669 4.06225
86 2 10.7521 2.39002 2.2386
3676 2 7.85423 2.45237 5.34204
3745 2 10.9316 5.13113 5.30759
91 1 12.1254 3.87779 1.03608
92 1 12.1268 3.85886 3.5945
135 2 7.87088 5.21892 2.33046
83 1 9.23453 3.93888 0.858538
84 1 9.33686 3.55246 3.88093
141 1 9.29706 6.62568 1.23155
142 1 9.26179 6.37691 3.86815
150 1 12.0862 6.44832 3.64212
149 1 12.1069 6.70419 0.851608
78 1 6.67229 0.726228 6.78805
3681 1 9.43142 0.910485 6.86722
3683 1 9.41976 3.56369 6.76725
3855 2 7.77343 16.7924 8.01294
4 2 5.4291 -3.28705 -0.451864
147 2 13.5977 5.24215 2.29552
2 2 -0.281308 -3.26623 2.55868
177 1 0.281629 8.97009 0.60034
14588 1 0.855057 12.2126 3.40233
3793 2 5.39965 10.652 5.41835
134 2 5.34429 8.08762 2.39276
183 2 2.846 11.188 2.66074
3724 2 2.45109 7.96317 5.03672
131 1 3.62898 9.49917 1.06334
132 1 3.94125 9.38523 3.69815
189 1 3.87332 12.2445 0.846582
125 1 1.1194 11.7327 0.849896
3732 1 3.10618 11.8753 4.98656
128 1 6.02372 12.4068 3.94411
186 1 1.20653 9.2113 3.25653
192 1 3.50898 13.5622 3.26849
137 1 6.65401 9.3921 1.09149
197 1 6.76412 11.9939 1.01617
3662 2 -0.43492 2.24869 8.10175
257 1 5.88488 18.5769 -0.195724
140 1 6.65311 9.45194 3.93118
3805 2 10.6455 10.7286 5.155
151 1 12.548 9.49677 0.983331
146 2 10.9891 7.93053 2.35506
152 1 12.0401 9.27311 3.88906
195 2 7.99225 10.5852 2.44246
3736 2 8.09958 7.79602 5.28603
143 1 9.45469 9.546 0.84724
144 1 9.15553 9.3486 3.93483
210 1 12.3035 12.1025 3.92433
202 1 9.59386 11.9537 3.5836
14606 1 10.0492 12.7108 0.55281
213 1 12.4768 12.1304 0.969362
190 1 8.02009 11.5813 6.29003
3803 1 9.96814 13.1279 5.93167
3743 1 9.57321 9.1952 6.6069
7468 2 13.4506 19.5586 10.8387
16 2 8.60728 -3.14514 -0.391645
3602 2 -0.426366 -3.13985 8.20497
3784 2 4.44694 13.8526 5.28491
182 2 1.48807 13.8694 5.29087
194 2 5.39932 13.9064 1.97137
3789 1 5.93115 15.2131 3.78882
3853 2 5.24968 16.9777 5.19871
246 1 0.933696 18.4307 3.81289
254 2 5.01664 19.2953 2.1923
249 1 3.26491 17.9773 0.999814
243 2 2.08676 16.6184 2.52584
250 1 3.79814 17.9313 3.61364
191 1 0.767959 15.2073 0.898613
3787 1 3.16626 15.5824 4.76217
14598 1 3.60556 14.9441 0.872902
245 1 0.483237 17.9132 0.87348
3844 2 2.26343 19.5735 5.34286
188 1 0.749523 15.5665 3.89651
200 1 5.65054 16.7813 1.44031
3849 1 3.65901 17.985 6.81252
88 2 13.6269 2.3168 -0.313755
62 2 -0.361663 2.34778 2.34405
3811 1 12.3126 15.5313 6.58362
3812 1 12.5018 15.3424 9.63592
206 2 11.2211 13.4942 2.59795
3797 1 6.68877 13.7723 6.57136
203 1 9.01679 16.0997 0.672859
258 1 6.42334 18.3167 3.92052
3796 2 8.16701 13.7623 4.55423
201 1 7.75385 14.0453 2.35557
3856 2 8.07155 19.699 5.24589
3799 1 7.58946 16.1327 5.703
3865 2 10.673 16.848 5.42835
269 1 12.1413 18.1117 1.21066
270 1 12.414 17.9032 3.91834
211 1 12.1985 15.1189 1.11775
266 2 10.5582 19.5141 2.10455
212 1 12.5638 14.8602 3.96779
261 1 8.16704 18.8062 1.80719
255 2 7.81585 16.7076 2.92323
262 1 9.46472 18.1372 4.10591
204 1 9.6894 15.4602 3.64688
28 2 13.4654 -3.21056 -0.349203
3868 2 13.5621 19.5456 5.17078
7228 2 13.4589 -3.21066 10.9058
3609 1 3.85732 -4.99627 6.60198
3611 1 3.78456 -2.10007 6.48941
3605 1 1.00809 -4.77176 6.91371
7273 2 5.33646 -0.465148 10.9368
7205 1 1.19434 -4.67469 12.4727
3606 1 0.828253 -1.88653 9.531
7207 1 1.12183 -1.79916 12.4288
3614 2 5.22741 -3.50032 8.00081
7209 1 4.02623 -4.80075 12.3652
3663 2 2.36278 -0.593731 8.33559
3610 1 3.84495 -4.65435 9.47878
7204 2 2.38089 -3.21337 11.0477
7211 1 3.6885 -2.02887 12.3336
3612 1 4.04067 -1.72412 9.40001
7148 1 1.09052 -4.66827 9.6474
3618 1 6.65855 -4.709 9.5367
3620 1 6.70196 -1.97298 9.60435
7219 1 6.60571 -1.90144 12.3541
7403 1 11.9395 15.1316 12.5649
3800 1 6.76619 14.8345 9.27393
3617 1 6.71651 -4.9396 6.74734
3619 1 6.48165 -2.05174 6.73408
3623 1 9.5084 -1.84631 6.63595
3621 1 9.43963 -4.71272 6.66371
3629 1 12.2639 -4.4786 6.51937
7396 2 7.743 13.7032 11.2052
7217 1 6.73311 -4.69986 12.3264
7285 2 10.7717 -0.513088 11.011
7229 1 12.2456 -4.69174 12.0973
3630 1 12.0565 -4.5253 9.2506
7231 1 12.0375 -1.78808 12.3241
3626 2 10.8324 -3.22537 7.91304
3632 1 12.4416 -1.74601 9.40975
7221 1 9.46048 -4.92259 12.3368
3675 2 8.08883 -0.599041 8.02792
3622 1 9.38 -4.67818 9.6195
7216 2 7.91181 -3.35964 10.862
7223 1 9.45883 -2.03497 12.2267
3624 1 9.48533 -1.94307 9.35616
7321 2 -0.372217 5.12593 10.8653
199 1 6.26301 14.746 -0.138155
265 2 11.1321 16.5321 -0.309801
3679 1 3.61745 6.68367 6.55406
3665 1 1.15331 0.907997 6.82103
3669 1 3.97717 0.887461 6.69828
3671 1 1.06093 3.73722 6.64767
3667 1 0.814153 6.58819 6.69355
3670 1 3.63224 0.987587 9.51538
7265 1 0.839238 1.00438 12.4198
3666 1 0.991374 3.66077 9.58131
3674 2 5.18104 2.30022 8.16669
3608 1 0.927392 0.919987 9.59544
7269 1 3.86425 0.802231 12.3048
7264 2 2.4454 2.41079 11.0632
7333 2 5.28393 5.25134 10.8687
7329 1 3.69238 6.73398 12.3076
3723 2 2.15329 4.97079 8.00231
7271 1 3.91229 3.68353 12.3605
3672 1 4.14001 3.80506 9.47637
7261 1 1.04624 3.72996 12.3429
7267 1 3.73432 6.77699 9.43322
3668 1 0.788241 6.34203 9.34279
7325 1 1.01408 6.53537 12.1331
7279 1 6.54153 3.79444 12.5341
3738 1 6.57039 6.69846 9.43459
3678 1 6.55838 0.918655 9.44001
3680 1 6.90436 3.91653 9.67474
7277 1 6.77338 0.832999 12.3102
7465 2 10.79 16.5766 10.9555
3802 1 9.71329 14.1394 9.79406
3749 1 9.52489 6.51993 6.65215
3691 1 12.2946 3.56293 6.59179
7515 1 9.62195 18.4661 12.0682
3866 2 10.7643 19.5701 8.167
7337 1 6.30461 6.66702 12.2889
3677 1 6.53161 3.57908 6.71559
3753 1 12.27 6.55017 6.67635
3689 1 12.369 0.829215 6.42237
3682 1 9.34461 0.802709 9.47644
7289 1 12.0594 0.972866 12.4324
3690 1 12.21 0.890017 9.61387
3686 2 10.8085 2.23727 8.10497
7281 1 9.42237 0.748102 12.2996
7276 2 8.14573 2.22088 10.8511
3684 1 9.66613 3.85807 9.4411
7283 1 9.25813 3.9857 12.1414
3735 2 8.09678 5.31556 8.03457
7345 2 10.8007 5.26178 11.0316
7291 1 11.9841 3.48427 12.1229
3692 1 12.3879 3.7644 9.3822
3742 1 9.45667 6.82812 9.4033
3750 1 12.4232 6.44613 9.5105
7341 1 9.21527 6.63132 12.4984
7349 1 11.9167 7.08594 12.0042
3731 1 3.7801 9.34016 6.63526
3862 1 9.0951 17.2902 9.67838
5 2 2.13322 -3.25918 -0.361781
3785 1 0.860006 12.2745 6.99292
3725 1 1.06497 9.57903 6.15294
198 1 4.96981 12.1218 7.08514
7393 2 5.09923 10.7918 10.9692
3726 1 0.694375 9.26439 9.20078
7327 1 0.931841 9.38332 12.2862
3734 2 5.00209 7.98036 8.12849
3728 1 3.90788 12.2369 9.48052
3783 2 2.55694 10.9271 7.85667
3730 1 3.51644 9.45634 9.58003
7324 2 2.26551 8.0728 10.7668
7331 1 3.70927 9.63447 12.3541
7389 1 3.84555 12.2161 12.3596
7385 1 1.08139 12.4709 12.7783
3727 1 0.986051 11.9104 9.65402
3737 1 6.61929 9.6288 9.60734
7339 1 6.64729 9.59085 12.5099
7384 2 2.24751 13.8256 11.045
3870 1 11.9776 18.2726 9.61334
3798 2 8.32639 13.4422 8.04233
3739 1 6.59266 9.08715 6.92571
3751 1 12.2521 9.5585 6.49079
7397 1 6.65863 12.2281 12.2236
3809 1 12.5967 12.5901 7.06902
3740 1 6.77907 12.3228 9.55068
7401 1 9.53357 12.1807 12.0871
3744 1 9.63376 9.5246 9.65678
7343 1 9.59232 9.64365 12.4079
7336 2 8.10312 8.14412 11.1124
3795 2 8.20538 10.2924 8.28157
7405 2 11.0736 10.8245 11.1163
7351 1 12.5942 9.71584 12.3307
3746 2 11.171 8.03043 8.06282
3752 1 12.5268 9.29771 9.36881
7409 1 12.2167 12.4623 12.3513
3810 1 12.56 12.2591 9.67297
3801 1 9.62865 11.9587 8.76642
3806 2 11.3889 13.8563 8.21289
3688 2 13.593 2.38336 5.25252
3845 1 0.885374 18.1614 6.76558
3804 1 9.51892 15.4382 7.50143
3839 1 0.821893 15.6323 6.69454
3786 1 3.09419 14.1994 6.96588
3858 1 6.42201 18.0519 9.54847
3794 2 4.96174 13.8658 8.44547
3792 1 3.82331 18.0123 9.56716
3843 2 2.3883 16.7141 7.98568
3791 1 5.06951 15.8228 7.2878
7444 2 2.30353 19.148 10.9535
3854 2 5.17477 19.4833 8.08483
7391 1 3.7138 15.0879 12.3254
7387 1 0.78617 15.0163 12.3918
3788 1 0.738182 14.9468 9.50346
3790 1 3.8342 15.2717 9.83262
7449 1 3.72487 17.9325 12.4148
3846 1 0.869521 17.8262 9.52076
7445 1 0.985355 17.7379 12.215
7453 2 5.18195 16.6601 11.0461
7399 1 6.27691 15.1772 12.2082
7457 1 6.7012 17.897 12.4156
7461 1 8.95095 15.2735 12.335
7456 2 7.81093 19.3276 10.8704
7469 1 12.321 17.9845 12.4249
3861 1 9.25815 18.3217 6.86381
196 2 8.02563 13.4463 -0.0618492
256 2 7.37718 16.8881 -0.434804
7441 2 -0.425693 16.3567 10.774
7322 2 -0.376054 7.87196 13.6558
14664 1 9.80905 18.6963 -0.407003
193 2 5.08899 10.7843 -0.467822
7288 2 13.5661 2.43839 10.9037
179 2 -0.393487 10.6645 2.38272
244 2 2.04478 19.606 -0.368222
64 2 2.33391 2.49232 -0.432219
14430 1 10.9085 -3.1093 -0.320907
7323 2 2.52141 5.21907 13.6082
133 2 5.15177 5.37076 -0.453403
7263 2 2.35782 -0.312605 13.6351
10873 2 5.28515 -0.513538 16.8497
10805 1 0.798286 -4.85822 18.1183
7206 1 0.8113 -4.57263 15.3064
10807 1 1.02948 -1.82939 17.9663
10814 2 5.12218 -3.37852 19.4568
7208 1 0.919149 -1.80119 15.2627
10809 1 3.54389 -4.64998 18.1429
10863 2 2.44653 -0.414259 19.5169
7210 1 3.81462 -4.6843 15.2836
10804 2 2.4094 -3.2874 16.6928
10811 1 3.95234 -1.81384 18.2205
7212 1 3.79091 -1.73758 15.2749
7220 1 6.51755 -2.16639 15.4579
7218 1 6.45614 -4.9277 15.0583
10820 1 6.53871 -2.05564 20.8919
10861 2 -0.386065 -0.392919 16.5422
7214 2 5.20346 -3.412 13.8101
11008 2 13.6425 13.9333 16.6305
10806 1 0.837586 -4.76771 20.8881
14668 2 13.5064 19.469 22.4013
10819 1 6.76539 -2.22076 18.1629
10817 1 6.41192 -4.95041 18.0433
10885 2 10.8471 -0.584049 16.5248
10829 1 12.0282 -4.58145 17.8966
7230 1 12.0947 -4.84984 14.9095
10831 1 12.6105 -1.59874 17.8261
10826 2 10.932 -3.22498 19.2565
7232 1 12.1642 -2.27484 15.1148
10821 1 9.25328 -5.10085 17.9115
10875 2 8.07079 -0.533715 19.4097
7222 1 9.40922 -4.7723 15.0975
10816 2 7.89379 -3.56144 16.6192
10823 1 9.53867 -2.08345 17.9905
7224 1 9.44532 -1.70559 15.1338
10822 1 9.49774 -4.7527 20.8096
7262 2 -0.345577 2.41769 13.8322
11041 2 -0.431782 16.6361 16.7206
10830 1 12.3755 -4.8955 20.6407
10824 1 9.62162 -1.95822 20.8635
10865 1 0.875266 0.887526 18.1458
7266 1 1.01094 1.062 15.2611
10874 2 5.21414 2.50015 19.3253
10869 1 3.63523 1.17905 18.1487
7270 1 3.76584 0.970956 15.1713
10864 2 2.33887 2.49951 16.5754
10933 2 5.04272 5.43574 16.5377
10867 1 1.03669 3.84864 18.0004
7268 1 1.14707 3.80744 14.9809
10923 2 2.25101 5.1187 19.4406
10871 1 3.72496 3.82068 17.9476
7272 1 3.85689 3.87621 15.1436
10929 1 3.51611 6.74246 17.8787
10925 1 0.992726 6.68395 18.1164
7326 1 0.87812 6.74707 15.1919
7330 1 3.65479 6.68639 15.0495
10930 1 3.60695 6.72588 20.6381
10877 1 6.62172 0.869332 17.9206
10926 1 0.756339 6.5606 20.8434
7338 1 6.4344 6.75989 14.9892
7278 1 6.40333 0.731213 15.3373
10868 1 1.00351 3.74147 20.7847
10938 1 6.64631 6.47601 20.6765
184 2 2.2351 13.7224 27.7449
7280 1 6.68098 3.69983 15.2734
14462 2 -0.273861 2.33265 25.2072
10879 1 6.58804 4.23924 17.8706
10937 1 6.35743 6.91252 17.824
7290 1 12.1207 0.976572 15.2444
10881 1 9.36075 0.767629 17.9705
10889 1 12.3187 0.846816 17.9827
10886 2 11.0061 2.15356 19.3047
7282 1 9.14594 0.895742 15.146
10876 2 8.0272 2.38015 16.6001
10945 2 10.9811 5.10203 16.5915
10891 1 12.2209 3.69733 18.0931
7292 1 12.3571 3.73622 15.3976
10941 1 9.3774 6.77388 17.9945
10935 2 8.11518 5.26451 19.2337
7342 1 9.18857 6.50163 15.2178
10883 1 9.43191 3.57093 18.1031
7284 1 9.43181 3.63395 15.3995
7350 1 11.9903 6.8272 15.3879
10949 1 12.3013 6.44482 18.0234
10884 1 9.6599 3.59414 20.8517
10890 1 12.2571 0.88557 20.8408
10950 1 12.1161 6.82716 20.9156
10892 1 12.2694 3.96076 20.7431
7346 2 10.8057 8.09433 13.7963
10993 2 5.18318 11.0147 16.646
10927 1 0.918141 9.56597 17.9856
10934 2 5.21909 8.10098 19.3975
7328 1 1.03171 9.42428 15.0285
10983 2 2.22963 10.8691 19.3291
10924 2 2.31876 8.21001 16.5432
10931 1 3.80592 9.58268 18.0233
7332 1 4.00944 9.43705 15.2729
10985 1 0.767275 12.5116 18.1658
7386 1 0.744621 12.5508 15.4788
10989 1 3.53378 12.2732 18.122
7390 1 3.62349 12.4614 15.181
10932 1 3.96429 9.63758 20.8808
10939 1 6.57538 9.47707 17.9966
7395 2 7.93805 10.7934 13.7688
10984 2 2.17865 13.7921 16.6874
10928 1 0.988478 9.34989 20.734
7335 2 7.89973 4.98446 13.6989
7287 2 13.5273 -0.515892 13.9247
14521 2 -0.479172 4.93956 22.3084
7398 1 6.555 12.2236 15.046
10997 1 6.57649 12.1954 17.9879
7340 1 6.77798 9.58688 15.1562
11005 2 10.9424 10.7775 16.5646
10951 1 12.428 9.41343 17.9321
10946 2 10.9228 7.91798 19.309
7352 1 12.1845 9.54985 14.9126
10995 2 8.06432 10.8977 19.5412
10936 2 7.93613 7.94711 16.4917
10943 1 9.59014 9.54183 18.0219
7344 1 9.48929 9.39724 15.3038
11009 1 12.5639 12.405 17.9496
7410 1 12.2407 12.4098 15.1663
11001 1 9.34276 12.3155 18.07
7402 1 9.38335 12.0617 15.1546
11002 1 9.16609 12.2244 21.1166
11006 2 10.7488 13.7003 19.3292
85 2 10.8937 -0.446232 27.6777
10940 1 6.76522 9.56298 20.9862
11042 2 -0.480807 19.4291 19.2706
7443 2 2.24404 16.5153 13.8799
14522 2 -0.217226 7.96727 24.8978
209 2 11.0214 10.8653 27.6961
10921 2 -0.346366 5.4429 16.8162
10994 2 5.21937 13.6158 19.4503
11054 2 5.10215 19.4947 19.2989
11053 2 5.01392 16.5208 16.5846
11045 1 1.00264 18.1097 17.9502
7446 1 1.01437 18.2039 15.1038
10987 1 1.06249 15.0438 18.3405
7388 1 0.972566 15.3487 15.4469
11049 1 3.9587 17.9551 17.9576
11043 2 2.3405 16.627 19.3547
7450 1 3.75544 18.0247 15.2426
11044 2 2.50968 19.4951 16.5317
10991 1 3.67815 15.0449 17.9554
7392 1 3.63772 15.1647 15.0868
7400 1 6.47295 14.9632 15.0897
7458 1 6.56727 17.9489 15.1158
11057 1 6.77707 18.044 17.8354
10862 2 -0.375842 2.34857 19.352
7406 2 10.8276 13.6314 13.8396
10999 1 6.59449 15.1875 18.0758
10996 2 8.0693 13.5787 16.4704
11056 2 8.01226 19.5525 16.5088
7404 1 9.3553 14.7072 15.1068
11065 2 10.6956 16.3832 16.6028
11069 1 12.3718 17.8109 17.9074
7470 1 12.3909 17.8242 15.1689
11011 1 12.0054 15.0543 18.0011
11066 2 11.0263 19.3015 19.3023
7412 1 12.1485 15.0123 15.2884
11061 1 9.66546 18.0535 17.824
11055 2 7.99843 16.7651 19.4021
7462 1 9.49585 17.7121 14.8095
11003 1 9.22564 15.0604 17.9679
11058 1 6.58328 18.0917 20.7502
136 2 8.05551 7.97018 27.8202
11004 1 9.47403 15.2729 20.6797
10810 1 3.79908 -4.92349 20.8374
10818 1 6.44732 -4.64487 20.842
7454 2 5.05227 19.5094 13.7664
10812 1 3.90493 -1.81422 20.8802
10808 1 1.07116 -1.92544 20.6464
17952 1 3.98921 -4.86781 26.2541
17948 1 1.01844 -1.8865 26.3947
14473 2 5.14627 -0.39579 22.182
14405 1 0.969813 -4.81047 23.666
14407 1 1.10989 -2.00256 23.4726
14414 2 5.28997 -3.48835 24.5832
14409 1 3.78742 -4.6006 23.3647
14463 2 2.17898 -0.530141 25.1216
14410 1 3.96411 -2.15676 26.4464
14404 2 2.43865 -3.45656 22.0825
14411 1 4.00562 -1.83082 23.7383
17946 1 1.18275 -4.63264 26.6045
14670 1 12.7157 18.0902 26.4441
17960 1 6.71892 -4.81438 26.6916
79 2 8.06616 2.61462 27.7775
14600 1 10.3221 16.9693 25.7536
14417 1 6.65548 -4.87774 23.5098
205 2 11.0089 13.78 24.9285
10832 1 12.2718 -1.97791 20.7016
14419 1 6.81945 -2.01196 23.7699
14420 1 6.72438 -1.92318 26.6913
14418 1 9.19496 -4.67969 26.3464
14485 2 10.8351 -0.386675 22.3322
14429 1 12.484 -4.66839 23.5041
14431 1 12.4317 -1.66344 23.4518
14426 2 10.9474 -3.28549 25.2031
14432 1 12.5316 -1.65872 26.1968
14421 1 9.52766 -4.78241 23.7168
14475 2 7.97391 -0.457795 24.9556
14422 1 12.3487 -4.87468 26.445
14416 2 8.17915 -3.41459 22.2377
14423 1 9.55755 -1.98156 23.6467
14424 1 9.42357 -1.65003 26.1885
259 2 8.01064 19.9499 27.8195
11067 2 13.6217 16.5783 19.3758
7466 2 11.0829 19.1128 13.915
10872 1 3.99952 4.09364 20.847
14611 1 12.4656 15.0778 23.5569
10948 2 13.6555 7.85585 16.4324
10870 1 3.86476 1.23386 20.9038
10866 1 1.02018 0.928249 20.8955
14408 1 0.87157 1.03803 26.7736
14469 1 3.46449 0.755041 23.6382
14465 1 0.891907 0.830582 23.7396
14412 1 3.59754 1.00395 26.4588
14466 1 0.863588 3.8302 26.4733
14474 2 5.13158 2.30989 25.0579
14464 2 2.50276 2.3935 22.2306
14533 2 5.18855 5.21413 22.2154
14467 1 1.00657 3.54781 23.5471
14529 1 3.72497 6.58895 23.5434
14523 2 2.32341 5.19999 25.1586
14471 1 3.98035 3.59451 23.7146
14472 1 3.78415 3.67448 26.2551
14530 1 3.94032 6.60877 26.3708
14525 1 1.12294 6.47701 23.6743
14468 1 1.16365 6.66479 26.6882
14482 1 6.40808 0.695809 26.378
14538 1 6.74361 6.7373 26.3088
14479 1 6.7529 3.715 23.4796
14537 1 6.54412 6.75199 23.4897
7383 2 2.31648 10.8785 13.8036
10880 1 6.70436 3.62576 20.7585
14658 1 8.35749 15.0492 26.427
10878 1 6.7018 0.669027 20.7074
10882 1 9.34443 0.865888 20.9913
10942 1 9.24408 6.3163 20.7315
14470 1 6.59125 3.83821 26.6022
14477 1 6.57669 0.936979 23.742
14481 1 9.45251 0.841531 23.6448
14489 1 12.3064 1.0828 23.916
81 1 9.29037 1.05222 26.495
14478 1 9.54139 3.8726 26.3509
14490 1 12.0189 1.13173 26.6492
14476 2 8.02585 2.42068 22.1455
76 2 11.0185 2.43782 25.1592
14486 1 12.3629 3.75724 26.7731
14483 1 9.36433 3.79582 23.6271
14542 1 9.34574 6.41709 26.8186
14535 2 8.06919 5.23819 25.1836
14545 2 10.8734 5.06459 22.0656
14491 1 12.1592 4.03358 23.8954
14549 1 12.1569 6.60557 23.5831
14541 1 9.26213 6.55469 23.6917
14550 1 12.2051 6.53245 26.6439
10990 1 3.78538 12.4842 20.8968
7467 2 13.4601 16.5286 13.7161
10986 1 0.926187 12.2867 20.8958
14586 1 0.836337 12.4116 26.4688
14593 2 5.19523 11.0275 22.219
14526 1 3.67726 9.47791 26.4056
14527 1 0.892618 9.36455 23.5627
14534 2 5.20295 8.1328 24.9934
14528 1 3.61471 12.24 26.4585
14540 1 3.71833 12.3515 23.7542
14583 2 2.52495 10.9151 24.9465
14524 2 2.36838 7.85641 22.1322
14531 1 3.75951 9.37888 23.4862
14589 1 0.993339 12.2871 23.5463
14585 1 0.951892 9.5603 26.2758
14661 1 9.49182 17.7945 23.3865
14539 1 6.59668 9.56385 23.5938
14532 1 6.65866 9.32016 26.588
7455 2 7.63547 16.4621 13.8074
10952 1 12.3121 9.52848 20.8497
14596 2 7.78662 13.7717 22.3669
14669 1 12.2004 17.9201 23.5761
7394 2 5.03718 13.5632 13.6946
10998 1 6.58782 12.4713 20.8304
11010 1 12.2777 12.1451 20.8571
10944 1 9.51935 9.19643 20.8762
139 1 6.45072 12.12 26.4007
14597 1 6.52312 12.4678 23.611
14601 1 9.48947 12.1784 23.8083
14602 1 9.61836 12.25 26.3844
14609 1 12.2305 12.3952 23.6925
14610 1 12.3998 12.2466 26.4573
14544 1 9.32908 9.24775 26.3676
14543 1 9.32775 9.32307 23.624
14536 2 8.14439 7.84225 22.0755
14595 2 7.7534 10.9385 25.0523
14605 2 10.7272 10.8149 22.3243
14551 1 12.0988 9.48096 23.7576
14546 2 10.7486 7.97999 24.9786
14552 1 12.1051 9.52875 26.4334
7274 2 5.2541 2.31617 13.8408
14656 2 8.06658 19.4375 22.119
11046 1 0.825895 17.9748 20.8542
10988 1 0.748605 15.0718 21.01
10992 1 3.69801 15.2981 20.9213
11000 1 6.56623 15.1659 20.9629
14599 1 6.48471 15.2277 23.7439
14657 1 6.84265 18.0758 23.5159
14645 1 0.862911 17.9314 23.6651
14654 2 5.22607 19.5948 25.1393
11050 1 3.47688 18.2748 20.9482
14646 1 0.645491 18.0612 26.5782
14591 1 3.72914 15.2908 23.6954
14650 1 3.46698 18.0884 26.3786
14649 1 3.76061 18.0543 23.502
14644 2 2.29801 19.4019 22.2649
14643 2 2.33389 16.6515 24.9035
14653 2 5.14296 16.765 22.3774
14584 2 2.2632 13.8101 22.2749
14592 1 3.79165 15.1735 26.4822
14594 2 5.098 13.735 25.0133
14662 1 5.87688 16.7729 26.1334
14590 1 1.05442 15.2569 26.3613
14587 1 1.03957 15.2526 23.577
7275 2 7.96993 -0.510476 13.8515
14665 2 10.9603 16.5146 22.2068
14604 1 7.84573 18.4952 26.1051
14612 1 12.4555 15.1602 26.563
14608 2 13.6656 13.6407 22.1221
14655 2 8.15361 16.6389 24.7121
11062 1 9.49819 18.1735 20.8521
11070 1 12.3464 18.0961 20.8642
11012 1 12.3719 14.9495 20.6648
14666 2 10.6112 19.1902 25.1571
14603 1 9.40493 14.9207 23.4832
14548 2 13.4193 8.08461 22.3327
7286 2 10.887 2.3608 13.8596
7202 2 -0.387012 -3.27334 13.8089
10802 2 -0.412386 -3.33447 19.3397
14641 2 -0.288475 16.6719 22.2715
73 2 5.08915 -0.119784 27.8117
7226 2 10.6047 -3.25727 13.7237
7334 2 5.17673 8.1792 13.6758
3913 2 5.12417 22.1664 5.23994
305 1 1.06105 23.6214 0.91527
306 1 1.16008 23.8111 3.83761
247 1 0.781307 20.993 1.30181
314 2 5.23964 25.2186 2.33465
248 1 0.74017 21.1681 3.75101
309 1 3.73873 23.6152 1.25306
303 2 2.34807 22.327 2.48855
310 1 3.88786 23.5761 3.83234
3904 2 2.54738 25.2463 5.13929
251 1 3.56197 20.8604 0.934705
252 1 3.45774 20.9394 4.02413
14720 1 6.41381 24.0379 0.706573
307 1 1.13072 26.4062 1.02239
3917 1 6.60862 23.8386 6.66409
260 1 6.28611 21.3195 1.04358
311 1 3.78715 26.5111 0.997032
308 1 1.15172 26.6082 3.83523
312 1 4.01851 26.7606 3.81812
3927 2 13.6359 22.4622 8.14851
7621 2 -0.450785 33.7499 11.0818
3911 1 3.89884 26.7406 6.73258
4170 1 11.9403 46.1875 9.28868
3859 1 6.18795 20.8386 3.98063
319 1 6.8243 26.712 0.845635
318 1 6.56936 23.6874 3.84307
272 1 12.1148 20.8556 3.86755
3925 2 10.746 22.3616 5.20253
329 1 12.2177 23.6958 1.10986
330 1 12.0357 23.6159 3.51703
271 1 12.1089 20.9331 1.01055
326 2 10.7136 25.2699 2.45783
321 1 9.32467 24.0537 0.931892
315 2 7.79001 22.4848 2.35507
322 1 9.30715 23.6714 3.83404
3916 2 7.95979 25.1665 5.24939
264 1 9.17106 20.9165 3.78953
263 1 9.15585 21.3801 0.903266
332 1 12.1244 26.5711 3.95624
323 1 9.93932 26.671 0.912039
324 1 9.55662 26.7674 3.79615
14736 1 12.5186 26.9313 1.20008
3919 1 6.46024 26.6789 6.53911
313 2 5.18622 22.4272 -0.358498
3931 1 12.181 26.4248 6.8306
3973 2 5.31073 28.2647 5.22218
363 2 2.47937 28.0009 2.40005
366 1 1.18481 29.2016 0.820012
367 1 0.923226 32.2136 0.992503
374 2 5.19983 30.6929 2.52045
368 1 0.888289 32.22 3.97554
369 1 3.93462 29.4691 0.968261
370 1 3.75697 29.5519 3.88633
3964 2 2.41195 31.0648 5.3726
371 1 3.63812 32.2119 1.1148
372 1 3.74362 32.4084 3.95295
3965 1 1.03318 29.298 3.65607
380 1 6.48083 32.1201 3.76782
377 1 6.63111 29.5394 0.982792
3969 1 3.90178 29.3177 6.74444
7701 1 9.24068 41.442 12.3948
320 1 6.76366 26.4037 3.59778
3977 1 6.55853 29.5054 6.72489
379 1 6.70172 32.2901 1.1095
378 1 6.61354 29.3344 3.79061
3985 2 11.1814 27.9818 5.47167
375 2 8.13678 28.0607 2.29831
390 1 12.3322 29.5816 1.16111
391 1 12.1445 32.3696 0.921265
386 2 10.624 31.0583 2.42555
392 1 12.222 32.2655 3.84106
381 1 9.45357 29.4011 0.767181
382 1 9.40572 29.4604 3.73377
3976 2 8.08628 30.7833 5.27982
383 1 9.21878 32.0734 1.00625
384 1 9.32652 32.4241 3.78609
3989 1 12.2501 29.5472 4.15762
3983 1 9.26478 32.3835 6.49437
3928 2 13.6018 24.9672 5.06549
4082 2 -0.365933 42.2425 7.80725
4033 2 5.10219 33.7735 5.2901
425 1 0.703582 35.0454 1.28523
434 2 5.20413 36.5594 2.46375
429 1 3.83622 35.0009 0.986499
423 2 2.2959 33.6936 2.49204
430 1 3.58676 35.1632 3.74313
4024 2 2.21566 36.4813 5.34508
428 1 0.866135 34.9652 3.93791
427 1 0.778032 38.0704 1.21553
4084 1 0.79396 37.7929 4.04921
431 1 3.79156 37.8304 0.913839
432 1 3.79992 38.122 3.79657
483 2 2.49727 39.3771 2.52517
4093 2 5.08463 39.5431 5.14277
438 1 6.27733 35.0686 3.81606
4029 1 3.95998 35.0847 6.83673
4106 2 10.8502 42.2632 7.60173
4031 1 3.85039 38.0022 6.53009
507 2 13.5156 39.2117 2.37838
447 2 13.4915 33.716 2.53624
364 2 2.42126 31.0473 -0.433126
4048 2 13.5014 36.4833 5.13647
4039 1 6.74232 37.9428 6.67917
439 1 6.54408 38.0481 0.915094
437 1 6.64668 35.2086 1.18959
4037 1 6.71339 35.212 6.64912
440 1 6.57897 37.7735 3.91829
435 2 7.93114 33.6444 2.4671
4045 2 10.7436 33.6915 5.32492
449 1 12.2313 34.9547 0.959335
450 1 12.0811 35.0059 3.78509
446 2 10.8195 36.4215 2.24428
441 1 9.57492 34.7179 0.900895
442 1 9.26616 35.182 3.71883
4036 2 8.00744 36.5933 5.15715
452 1 12.1102 37.8395 3.72393
443 1 9.32955 37.4318 0.926339
444 1 9.41445 38.4439 3.67733
4105 2 10.9172 39.1818 5.13947
451 1 12.1333 37.849 0.996873
495 2 7.90274 39.442 2.33746
4041 1 9.50342 35.1378 6.5217
4043 1 9.55109 37.9742 6.60486
4051 1 12.3809 37.9778 6.39501
4111 1 12.1372 43.0887 9.28344
567 2 13.3524 45.041 2.15441
433 2 5.12971 33.6284 -0.279135
7741 2 -0.409781 45.086 10.8768
7561 2 -0.313137 28.0803 11.0463
4153 2 5.13321 45.1548 5.07626
485 1 1.14842 40.7805 0.820218
487 1 0.829877 43.6974 0.989719
494 2 5.15487 42.2757 2.34323
488 1 0.702482 43.4047 3.77388
489 1 4.03528 40.6792 1.28832
543 2 2.22074 44.9452 2.13746
490 1 3.54441 40.906 3.91827
491 1 3.60013 43.3936 0.929716
492 1 3.6888 43.6675 3.59845
482 2 2.12432 42.0987 5.22416
538 1 0.678058 40.7101 3.85539
499 1 6.40764 43.7194 0.841153
4087 1 1.04287 43.8395 6.41502
4097 1 6.5244 41.1649 6.63773
4089 1 3.63804 40.7073 6.78113
4091 1 3.81065 43.5547 6.85749
4112 2 10.7815 42.1778 10.7763
7588 2 13.5874 31.0006 11.0011
493 2 5.1948 39.3858 -0.387237
4110 1 12.1387 40.676 9.39367
500 1 6.47763 43.7157 3.60113
497 1 6.6126 40.688 1.15983
498 1 6.46653 40.7436 3.81867
4165 2 10.7006 45.4172 5.12954
509 1 11.9477 40.4994 0.984727
510 1 12.1732 40.7891 3.61018
511 1 12.2461 43.3608 0.928068
506 2 10.5397 42.2558 2.11869
501 1 9.27066 40.6135 1.01902
555 2 7.84336 45.0501 2.41107
502 1 9.02263 40.9904 3.86565
4096 2 7.85248 42.3318 5.10968
503 1 9.06128 43.5367 1.11461
504 1 9.00837 43.9616 4.15868
565 1 12.0064 43.9438 3.48032
512 1 12.2719 43.6812 6.3463
328 2 13.5741 24.8839 -0.435365
546 1 0.770804 46.2407 3.57399
7767 2 13.6448 44.822 13.5715
4167 2 13.5391 44.8996 7.87998
4047 2 13.6316 33.6219 8.25678
3905 1 0.872418 23.7206 6.65713
3847 1 0.715552 20.9051 6.62932
3907 1 0.98895 26.7133 6.36667
3909 1 3.76625 23.9241 6.67817
3851 1 3.65462 20.918 6.83971
7513 2 5.20507 22.3354 10.8892
7505 1 0.982052 23.6478 12.25
3906 1 1.07697 23.5064 9.42625
7447 1 0.872698 20.5472 12.4365
3914 2 5.02221 25.4447 8.27577
7509 1 3.60214 23.925 12.6436
3903 2 2.2425 22.3965 7.9004
3910 1 3.90827 23.7376 9.59884
7504 2 2.2769 25.3762 11.1135
7451 1 3.72936 21.1281 12.2229
3850 1 3.77991 20.7079 9.49391
3848 1 0.858216 20.5553 9.58387
7501 2 -0.0252435 22.0953 10.9325
7517 1 6.34774 23.8792 12.2344
7507 1 0.940528 26.356 12.4399
7511 1 3.86765 26.554 12.3398
3918 1 6.73449 24.0299 9.59502
3908 1 0.966074 26.3691 9.56515
3912 1 3.53963 26.6134 9.48475
3961 2 -0.405064 27.9998 5.36876
3860 1 6.76899 21.2258 6.67041
3923 1 9.39285 26.6402 6.55029
3929 1 12.2852 23.4793 6.48592
3871 1 12.3811 20.9095 6.63517
7459 1 6.34917 20.5849 11.6751
3852 1 6.55697 21.0063 9.16726
3921 1 9.4499 23.7711 6.55465
3863 1 9.69873 21.0048 6.73636
3864 1 9.41543 20.7007 9.88115
7525 2 10.7212 22.4875 10.766
7529 1 12.3911 23.4328 12.0377
3930 1 12.2982 23.7766 9.28996
3926 2 10.6868 25.2544 7.93619
3872 1 12.146 21.0418 9.58734
7521 1 9.47494 23.782 12.0479
3915 2 7.98629 22.4307 8.2404
3922 1 9.32502 23.7534 9.35262
7516 2 7.70732 25.2789 10.9952
7463 1 11.9638 20.897 12.4827
7523 1 9.45795 26.4674 12.1553
7528 2 13.3636 25.2354 11.1353
3924 1 9.52575 26.829 9.34208
3932 1 12.3898 26.639 9.41937
7531 1 12.1158 26.6079 12.45
3920 1 6.6517 26.7896 9.30574
426 1 0.821983 32.3356 6.71671
3971 1 3.69036 32.391 6.78958
3967 1 1.25702 29.4212 6.41341
3979 1 6.50998 32.2568 6.95954
327 2 13.619 22.1113 2.17014
7573 2 5.40252 28.1189 11.0579
3963 2 2.39535 27.9414 8.01791
7565 1 0.726655 29.1662 9.33148
3974 2 5.35431 30.7012 8.42439
3968 1 1.10448 32.0856 9.36264
7569 1 1.35859 29.1797 12.2056
3970 1 3.76267 29.3208 9.73891
7564 2 2.53685 30.7567 11.0025
7571 1 4.05722 32.2713 12.415
3972 1 3.80238 32.342 9.77318
7577 1 4.09308 29.4362 12.5168
7567 1 1.12559 32.4782 12.0975
3980 1 6.44938 32.1289 9.92649
3978 1 6.76332 29.4829 9.48574
4101 1 9.44968 40.7344 6.57044
3990 1 12.8155 29.4436 6.7296
3991 1 12.033 32.26 6.72648
7519 1 6.77531 26.7749 12.4278
7579 1 6.85484 29.7349 12.4526
3981 1 9.82613 29.5575 6.60183
7585 2 10.8969 27.9559 10.8741
3975 2 8.03816 27.9362 7.99928
7589 1 12.306 29.3551 12.2343
7591 1 12.2262 32.3082 12.1406
3986 2 10.6514 31.0855 8.15652
3992 1 12.1195 32.4401 9.61054
7581 1 9.50168 29.4897 12.2446
3982 1 9.40886 29.6886 9.42139
7576 2 8.11356 30.8474 10.8149
7583 1 12.1362 29.3713 9.68173
3984 1 9.16538 32.4412 9.496
7635 1 9.39736 32.3093 12.1826
4081 2 -0.389345 39.2503 5.28388
4027 1 1.18087 37.8759 6.86038
4025 1 1.07361 35.1642 6.88303
4021 2 -0.443739 33.6047 5.29632
7625 1 0.87055 35.3233 12.2997
7633 2 5.0931 33.9582 11.002
4026 1 1.39945 35.056 9.41764
4034 2 5.35832 36.5004 8.03952
7629 1 3.70668 35.2 12.508
4023 2 2.40645 33.625 8.10455
4030 1 3.95236 35.3352 9.62911
7624 2 2.32183 36.6812 11.1083
4028 1 0.898268 38.0671 9.65551
7627 1 0.815612 38.2438 12.2539
4032 1 3.68024 38.0837 9.47294
7631 1 3.77468 38.2234 12.2457
4083 2 2.37189 39.2195 8.15483
7693 2 5.15729 39.4488 10.9825