ITEM: TIMESTEP
50000
ITEM: NUMBER OF ATOMS
18000
ITEM: BOX BOUNDS pp pp pp
-4.8788913509335585e-01 2.7827889135093166e+01
-5.9521485973586756e+00 3.3403214859735863e+02
-5.0044389859563598e-01 2.7840443898596160e+01
ITEM: ATOMS id type x y z
3673 2 5.34593 -0.395753 5.14092
6 1 0.875847 -1.88887 3.76683
14 2 5.09984 -3.21651 2.57635
63 2 2.40545 -0.184084 2.33062
10 1 3.89351 -4.72318 4.03901
3604 2 2.29318 -3.22393 5.3035
12 1 3.79207 -1.61039 3.8457
14406 1 1.12708 -1.6252 0.959929
3551 1 3.75306 -2.60615 0.894454
3548 1 1.26741 -4.87782 4.05572
3547 1 4.63617 -5.28202 1.44787
3599 1 1.43605 -4.46428 1.4017
3611 1 4.08131 -2.39141 6.51128
3609 1 4.08454 -5.16797 6.8038
3605 1 1.03936 -4.9241 7.00673
3619 1 6.67466 -1.8657 6.64514
9 1 6.55781 -1.83459 0.778415
18 1 6.61083 -4.6612 3.96611
3721 2 -0.225601 4.84158 5.20135
3862 1 9.51985 17.7312 9.23585
3839 1 -0.00435913 15.3854 6.85773
7322 2 -0.449111 7.89775 13.5483
7469 1 12.0991 17.8419 12.1142
17 1 6.85125 -4.38541 0.846946
20 1 6.66434 -2.01614 3.8959
3685 2 10.7747 -0.604804 5.42931
30 1 12.271 -4.74524 3.76431
26 2 11.1225 -3.48181 2.28051
75 2 8.09669 -0.434192 2.46049
22 1 9.41959 -4.64853 3.84091
3616 2 7.99887 -3.4049 5.17631
24 1 12.2341 -1.82536 3.95252
3571 1 9.42717 -1.72435 3.80756
21 1 12.2274 -1.88339 1.01131
3564 1 12.6272 -5.03419 0.854099
17964 1 9.58194 -4.82778 1.12103
19 1 9.50094 -1.74209 0.971864
87 2 13.3115 -0.329528 2.45054
7461 1 9.64563 17.012 12.2564
3631 1 12.212 -1.71193 6.98596
3623 1 9.59958 -2.19052 6.5338
259 2 8.11282 20.0814 -0.169801
4 2 5.1661 -3.56022 -0.465465
11 1 3.84252 0.745983 0.974829
66 1 0.885278 3.72291 3.58871
7 1 0.857345 1.18353 0.693288
74 2 5.30523 2.30876 2.26554
8 1 0.743099 0.772107 3.49515
69 1 3.82925 3.5702 0.853423
70 1 3.77065 1.15818 3.75134
3664 2 2.20399 2.45588 5.05876
3733 2 5.03664 5.0859 5.06963
67 1 1.19614 6.74732 0.944516
68 1 1.12009 6.4938 3.93526
129 1 3.9092 6.47106 0.68697
123 2 2.34805 5.00856 2.1378
130 1 3.85873 6.30335 3.6857
72 1 3.39022 3.78783 3.8311
65 1 0.997344 3.96732 0.661815
3667 1 1.20147 6.41076 6.77846
3679 1 3.66362 6.4086 6.57466
3729 1 3.82163 3.65475 6.43741
3669 1 3.8561 0.915325 6.60963
77 1 6.69013 0.855558 3.76678
7348 2 13.6174 8.03283 10.6436
3812 1 12.1751 15.0117 9.15188
3671 1 0.880055 3.50299 6.61138
14484 1 6.5464 3.57503 0.547838
71 1 6.63478 0.884064 0.83915
14480 1 6.86026 6.45845 0.60176
138 1 6.6864 6.44284 3.66763
80 1 6.51374 3.69427 3.51205
23 1 12.2311 1.05281 0.916756
32 1 12.3049 1.19337 3.94615
90 1 9.75936 0.816437 3.75011
86 2 11.1766 2.39922 2.47702
82 1 9.46495 0.988897 1.09933
3676 2 8.08935 2.35923 5.06151
3745 2 10.8963 5.257 5.20778
91 1 12.3072 3.71884 1.03154
92 1 12.4286 3.87002 3.98298
135 2 8.10481 5.10241 2.18715
83 1 9.51761 3.78264 1.08617
84 1 9.48339 3.8362 3.726
141 1 9.61333 6.48906 0.867387
142 1 9.43795 6.84323 3.67808
149 1 12.6037 6.58031 0.937813
150 1 12.3303 6.67873 3.74733
3753 1 12.0832 6.71155 6.50567
3741 1 6.41937 6.57163 6.37835
3691 1 12.2945 3.94918 6.54633
3689 1 12.3483 1.03805 6.72782
7395 2 8.17823 10.9111 13.5701
186 1 0.351481 12.7393 3.4179
3793 2 5.20496 10.521 5.1659
127 1 0.90332 12.0505 1.07423
134 2 5.41926 7.86092 2.31146
128 1 2.02171 10.9428 4.61476
183 2 2.87249 10.8898 2.15353
3724 2 2.58069 7.82622 5.16203
131 1 3.91559 9.39645 0.651853
132 1 3.92952 9.10833 3.5886
189 1 3.77446 12.2506 0.54438
190 1 4.45937 11.8647 3.39912
125 1 1.20709 9.41584 1.64846
7321 2 -0.20869 4.94709 10.7357
3841 2 -0.327038 17.1244 5.37595
3785 1 0.663524 12.9321 6.22083
3784 2 2.69458 13.3324 5.02154
3731 1 4.01473 9.11928 6.75188
137 1 6.48475 9.2985 0.922765
194 2 5.15944 13.7055 2.11201
126 1 0.35104 9.1777 3.89752
3781 2 0.130341 10.6897 5.86811
7346 2 11.0707 7.97565 13.6435
140 1 6.6874 9.56836 3.66548
197 1 6.60276 12.3289 0.576575
198 1 6.83725 11.7197 5.91108
3805 2 10.6775 10.9251 5.00958
151 1 12.2813 9.55268 0.674969
146 2 10.9362 8.06814 2.19923
152 1 12.2869 9.34258 3.54924
195 2 8.01958 10.787 2.15964
3736 2 7.92481 8.07918 5.09628
143 1 9.37236 9.51053 0.631712
144 1 9.62337 9.56595 3.47039
210 1 12.0758 11.9932 3.5631
202 1 9.2095 12.1775 3.5989
14606 1 9.31006 12.0949 0.692908
213 1 12.0796 12.3269 0.83599
3809 1 12.0717 12.4585 6.29584
3743 1 9.33616 9.64385 6.35336
201 1 7.03688 13.6613 3.25005
7468 2 13.4917 19.3763 10.766
192 1 2.96408 13.9945 3.08732
3789 1 4.90474 14.2015 5.51052
3853 2 4.89729 16.7736 5.33885
246 1 0.798052 18.2228 3.99834
254 2 5.18715 19.4497 2.37337
200 1 4.91972 15.9225 3.10605
249 1 4.05276 17.9695 0.951991
243 2 2.59258 16.5683 2.5106
250 1 3.46942 18.2902 3.64649
191 1 1.13836 15.342 0.884945
3787 1 2.71654 15.8508 5.11662
14598 1 3.94205 15.0395 0.828702
245 1 1.20816 18.1481 1.13221
3844 2 2.268 19.5302 5.342
258 1 6.26689 17.9817 4.05259
7515 1 9.58774 19.988 12.1412
267 2 13.5741 16.4944 2.3615
3868 2 13.6575 19.2431 5.41229
3800 1 7.46966 15.7765 10.2468
185 2 -0.377808 13.9064 1.59643
3662 2 -0.276708 2.13261 7.896
3804 1 9.69637 14.6584 9.99337
3869 1 12.2724 17.9142 6.47555
257 1 6.80506 17.7736 1.12619
199 1 6.91797 15.1124 0.898974
3796 2 7.82004 13.7965 5.42465
206 2 10.6626 13.4176 2.35382
3856 2 8.072 19.4182 5.1765
3799 1 7.1795 15.9132 5.23906
3865 2 10.6568 16.56 5.15744
269 1 12.2522 18.0963 0.836682
270 1 12.194 17.9481 3.71708
211 1 12.4482 15.1169 1.03399
266 2 11.0081 19.3014 2.4813
212 1 12.2191 14.7403 3.54795
261 1 9.50957 18.2604 0.471968
255 2 7.5611 16.0629 2.91738
262 1 9.24051 17.735 3.58275
203 1 9.60927 15.3468 0.852415
204 1 9.49411 14.8889 3.94911
3803 1 9.50023 15.023 6.65218
7312 2 -0.41251 -0.606818 10.6289
122 2 -0.303316 7.64712 2.39799
3607 1 1.05967 -1.93115 6.53165
7273 2 5.33009 -0.581981 10.8845
7205 1 0.884029 -4.59517 12.3265
3606 1 1.16347 -2.00779 9.32888
7207 1 0.807433 -2.02721 12.1895
3614 2 5.4442 -3.53159 8.07175
7209 1 3.85762 -4.8554 12.1505
3663 2 2.79795 -0.717991 8.01726
3610 1 3.78747 -4.88743 9.48209
7204 2 2.52961 -3.30268 10.8773
7211 1 3.79954 -1.99312 12.3124
3612 1 4.21785 -2.07714 9.50334
7148 1 0.974903 -4.81041 9.54705
7217 1 6.66499 -4.71476 12.1625
3602 2 -0.411573 -3.38823 8.11982
3617 1 6.97367 -4.70713 6.62882
2 2 -0.386652 -3.32447 2.16932
3621 1 9.91318 -4.83146 6.73382
3620 1 6.9063 -2.00902 9.51814
3618 1 6.75704 -4.74361 9.5311
7219 1 6.70912 -1.8446 12.227
3629 1 12.8556 -4.44919 6.61946
7285 2 11.0161 -0.413173 11.0034
7229 1 12.6245 -4.56807 12.5137
3630 1 12.5732 -4.89517 9.33832
7231 1 12.2206 -1.86825 12.1837
3626 2 11.1247 -3.28846 8.13164
3632 1 12.4062 -1.77511 9.54074
7221 1 9.48722 -4.90272 12.3624
3675 2 8.31086 -0.518515 8.26797
3622 1 9.469 -4.9026 9.66275
7216 2 8.2936 -3.35724 11.0189
7223 1 9.46436 -1.83659 12.3508
3624 1 9.79171 -1.96965 9.56538
7408 2 13.4976 13.6313 10.7974
3811 1 12.5292 15.1769 6.23324
244 2 2.42744 19.3397 -0.233328
188 1 -0.0839592 15.3671 3.42358
3665 1 1.10985 0.741098 6.40397
207 2 13.5492 10.7776 2.28954
7382 2 -0.168315 13.6521 13.5932
3670 1 3.9575 0.654991 9.31671
7265 1 1.01637 0.77643 12.1842
3666 1 1.10774 3.62599 9.42951
3674 2 5.32859 1.97668 8.05938
3608 1 1.20455 0.699385 9.29449
7269 1 3.77782 0.882704 12.4468
7264 2 2.52195 2.08478 10.7545
7333 2 5.3533 4.9995 10.7011
7329 1 3.8519 6.33612 12.2369
3723 2 2.57598 5.01085 8.00243
7271 1 3.87018 3.50689 12.2774
3672 1 3.74952 3.53909 9.2962
7261 1 1.07766 3.87468 12.23
7267 1 4.07557 6.29152 9.33678
3668 1 1.30694 6.34517 9.60606
7325 1 0.994255 6.57595 12.3139
7399 1 6.8163 15.1279 12.678
3687 2 13.6766 -0.388669 8.27428
3677 1 6.7551 3.85136 6.26342
78 1 6.82001 0.815251 6.65525
3749 1 9.26727 6.39653 6.43445
3683 1 9.45499 3.61913 6.56995
3680 1 6.54217 3.36823 9.37865
7337 1 6.71492 6.67145 12.2814
7279 1 6.80765 3.8362 12.2652
7277 1 6.68575 0.957712 12.1998
3678 1 6.64533 0.747891 9.51062
3738 1 6.62499 6.53387 9.57095
3681 1 9.26303 0.80786 6.78005
7289 1 12.3371 0.727418 12.5196
3690 1 12.3438 1.0871 9.57562
3686 2 10.882 2.39028 7.93834
7281 1 9.61781 0.939308 12.4426
3682 1 9.62774 1.0365 9.66387
7276 2 8.10865 2.39375 10.9281
3684 1 9.39161 3.92048 9.34346
7283 1 9.50259 3.9268 12.3982
3735 2 7.84012 5.07629 7.93501
7345 2 10.8335 5.11781 10.909
7291 1 12.306 3.29427 12.4794
3692 1 11.9465 3.88955 9.51241
3742 1 9.21581 6.45386 9.53864
3750 1 12.1399 6.537 9.38455
7341 1 9.51835 6.65538 12.2629
7349 1 12.2571 6.59448 12.0498
7457 1 6.68593 17.9165 12.4264
16 2 8.59267 -3.47427 -0.343457
3732 1 3.80058 11.8128 6.54993
3722 2 -0.0992221 7.84356 8.19124
7381 2 -0.0883939 10.7779 10.6955
3725 1 1.30801 9.05465 6.8275
7393 2 5.04201 10.7264 10.7369
3726 1 1.4491 9.16577 9.68196
7327 1 1.10536 9.39578 12.5979
3734 2 5.20679 7.8269 8.08438
3728 1 3.41093 12.2864 9.54094
3783 2 2.68378 10.5234 8.14523
3730 1 3.89853 9.28586 9.47172
7324 2 2.54321 7.76918 10.9037
7331 1 3.95319 9.46905 12.5284
7389 1 4.24998 12.3707 12.4841
7385 1 1.55748 11.9505 12.2481
3740 1 6.27694 11.8299 8.91766
3727 1 0.347864 13.2755 10.4751
3794 2 4.80275 13.527 7.68328
179 2 -0.405568 10.7211 2.62356
3748 2 13.5933 8.09949 5.15991
3751 1 12.1117 9.48554 6.56789
3870 1 12.4366 17.8409 9.24005
7403 1 11.4234 14.9081 12.1655
3798 2 7.35574 13.508 9.96582
7339 1 7.02782 9.5082 12.4598
3739 1 6.40872 9.10563 6.64222
3737 1 6.48179 9.28686 9.54136
3801 1 9.26657 12.2946 6.68278
7397 1 6.97803 12.4284 11.8666
7401 1 9.49011 12.3977 12.2277
3744 1 9.17315 9.08511 8.96636
7343 1 9.52651 9.42287 11.8545
7336 2 8.14062 7.88532 10.9508
3795 2 7.90204 10.7166 7.86372
7405 2 10.7138 10.8627 10.8043
7351 1 12.1162 9.50456 12.2846
3746 2 10.7781 7.88996 7.95306
3752 1 12.0642 9.44988 9.66716
3802 1 8.99331 11.936 9.45771
7409 1 12.1899 12.0264 12.1191
3810 1 12.2568 12.2544 9.01521
3858 1 6.43749 18.0067 9.54556
7444 2 2.30497 19.3237 10.9065
3782 2 -0.0175011 13.7091 8.29367
3845 1 0.981317 18.2179 6.89067
3849 1 3.93268 18.2907 6.6193
3854 2 5.22438 19.5548 8.06947
7391 1 3.98171 15.2626 12.749
7387 1 1.3019 14.9447 12.5749
238 1 0.569611 11.3881 8.41069
7384 2 2.57408 13.775 10.9629
3788 1 1.51162 15.3386 9.62436
3786 1 2.49899 14.1186 7.39621
3790 1 4.93303 14.4431 10.0934
3791 1 4.76447 15.9925 7.75977
7449 1 4.00133 18.1564 12.2756
3846 1 0.614511 18.3893 9.53457
7445 1 0.931958 17.9388 12.3344
7453 2 5.08856 16.6132 10.9802
3843 2 2.27682 16.4871 7.74155
3792 1 3.22918 17.5599 9.85282
7441 2 -0.0917833 16.4765 10.9312
3857 1 6.67847 18.1804 6.91035
3861 1 9.36347 18.0326 6.46222
7465 2 11.1294 16.6159 10.5401
3866 2 10.849 19.5585 7.79825
3855 2 7.93529 16.6428 7.85673
3797 1 6.97273 14.1608 7.71979
7456 2 7.8451 19.3182 10.9493
3806 2 10.8305 13.7284 7.88783
7396 2 8.88115 14.4277 12.1955
3807 2 13.383 10.8704 7.91859
3598 1 -0.510483 -3.07148 -0.270481
3661 2 -0.488089 -0.650143 5.18117
256 2 8.25999 16.7419 -0.444238
147 2 13.6201 5.31355 2.48335
3747 2 13.5598 5.03494 8.14732
7334 2 5.38836 7.89822 13.672
3808 2 13.6188 13.646 5.04004
85 2 10.8367 -0.502178 -0.378622
253 2 5.06252 16.5972 -0.43144
7335 2 8.08185 5.25188 13.6246
5 2 1.94496 -3.29788 -0.47565
124 2 2.63611 7.81106 -0.458837
14588 1 -0.473252 13.4071 -0.518393
10873 2 5.35728 -0.348638 16.5261
10805 1 1.113 -4.76587 18.2479
7206 1 1.12681 -4.73002 15.5039
10807 1 0.989554 -1.9903 17.9283
10814 2 5.35922 -3.35726 19.4149
7208 1 0.853783 -1.92297 15.2331
10809 1 3.77097 -4.40484 17.9587
10863 2 2.50162 -0.427325 19.3297
7210 1 3.87377 -4.85505 14.9899
10804 2 2.35947 -3.06135 16.6941
10811 1 3.77426 -1.62176 17.967
7212 1 3.87149 -1.889 15.1435
10808 1 1.42942 -1.95199 20.8073
10810 1 4.08948 -4.62823 21.1844
10806 1 1.07678 -4.69556 21.0699
10817 1 6.48913 -5.12273 18.0711
14462 2 -0.384163 2.4072 25.0301
241 2 -0.36433 16.6792 27.8345
268 2 13.5755 19.6351 27.7826
10812 1 4.04096 -2.03866 20.8209
7455 2 7.84698 16.8444 13.9675
14641 2 -0.253299 16.5843 21.9861
7220 1 6.59913 -1.89463 14.9962
7218 1 6.55678 -4.74712 15.248
10819 1 6.50201 -1.9471 17.9337
10885 2 10.9754 -0.368884 16.5308
10829 1 12.2882 -4.83406 18.0518
7230 1 12.1912 -4.81231 15.094
10831 1 12.5063 -1.80514 18.2029
10826 2 11.1035 -3.28714 19.4751
7232 1 12.2052 -1.87464 15.289
10821 1 9.51391 -5.12333 18.0483
10875 2 8.1557 -0.402634 19.5557
7222 1 9.53641 -4.53615 15.1666
10816 2 8.15242 -3.28143 16.6431
10823 1 9.4137 -1.96815 18.1546
7224 1 9.42964 -1.91322 15.1321
10824 1 9.84365 -2.02676 20.8342
10822 1 9.43682 -4.83694 20.7708
196 2 8.05954 13.4817 27.5574
10830 1 12.615 -4.82456 20.8605
10818 1 6.60167 -4.45417 21.0162
184 2 2.27701 13.8244 27.6971
10865 1 1.38432 0.762507 17.9805
7266 1 1.01065 0.917713 15.0171
10874 2 5.40592 2.50459 19.2842
10869 1 4.13172 1.0819 18.0412
7270 1 3.97148 0.917783 15.0262
10864 2 2.56222 2.19163 16.5632
10933 2 5.20383 5.17611 16.5382
10867 1 1.14514 3.92792 17.7991
7268 1 0.936192 4.00256 15.0999
10923 2 2.52163 5.32275 19.2225
10871 1 3.89948 3.80432 17.8132
7272 1 3.69325 3.69238 15.0342
10929 1 3.82738 6.86413 17.9137
10925 1 1.09629 6.68914 17.8874
10870 1 3.69437 0.953364 20.6306
7326 1 1.1012 6.78068 14.9466
7330 1 3.78526 6.7498 15.082
10868 1 0.77091 3.77047 20.6814
10926 1 1.13453 6.62515 20.5873
10930 1 3.87993 6.65244 20.7525
7278 1 6.78695 0.897138 15.1798
10937 1 6.49486 6.488 18.2098
7338 1 6.57174 6.63383 15.6006
10877 1 6.79613 0.947815 18.0109
7466 2 10.9536 19.5061 13.8702
10866 1 0.958719 1.00225 20.6819
7262 2 -0.322493 2.30713 13.6446
10879 1 6.55299 3.71647 17.7721
7280 1 6.45246 3.92946 14.7896
7290 1 12.4451 0.869923 15.2533
10881 1 9.50323 0.939872 18.0392
10889 1 12.304 1.0326 18.0034
10886 2 10.9061 2.43017 19.2906
7282 1 9.60918 1.01946 15.3222
10876 2 8.15079 2.29526 16.6185
10945 2 10.7755 5.35033 16.6423
10949 1 12.5528 6.68602 18.0969
10891 1 12.2227 4.09048 18.0445
7292 1 11.898 3.57268 15.3315
10941 1 9.2913 6.67593 17.72
10935 2 8.00999 5.26365 19.2148
7342 1 9.1599 6.44986 15.1259
10883 1 9.40334 3.94202 18.1036
7284 1 9.06439 3.8377 15.3422
7350 1 12.0181 6.94767 15.5713
10942 1 9.55226 6.52913 20.3582
10938 1 6.58138 6.46672 20.802
10890 1 12.5299 0.888668 20.8086
10884 1 9.74558 3.67581 20.7426
11012 1 12.4613 15.0484 20.8436
14603 1 9.42573 15.0696 23.4163
7202 2 -0.371054 -3.3408 13.7213
10981 2 -0.294051 10.8164 16.785
10993 2 5.49326 10.9435 16.6509
10927 1 1.15735 9.48482 18.3359
10934 2 5.12622 7.98421 19.3639
7328 1 1.15774 9.59699 15.4538
10983 2 2.61632 10.8605 19.413
10924 2 2.65323 8.13771 16.5025
10931 1 3.86503 9.52382 18.0784
7332 1 3.96806 9.6791 15.3522
10985 1 1.23615 12.2237 17.9361
7386 1 1.18547 12.3918 15.2089
10989 1 3.91377 12.3568 17.9905
7390 1 4.00218 12.2753 15.3028
10932 1 3.86731 9.27753 20.8045
10997 1 6.80716 12.2542 17.8717
10990 1 3.9705 12.3485 20.6291
7443 2 2.47813 16.7054 13.7666
7406 2 11.4675 13.5307 13.9117
10939 1 6.67078 9.47811 17.9109
7340 1 6.46269 9.47138 15.1457
7398 1 6.76495 12.4051 15.1977
11005 2 10.827 10.808 16.5456
10951 1 12.121 9.33309 18.0492
10946 2 11.0356 7.8808 19.2948
7352 1 12.3249 9.59643 15.083
10995 2 8.34043 10.9422 19.4527
10936 2 7.97013 8.0684 16.5714
10943 1 9.45986 9.63287 17.7801
7344 1 9.38406 9.60257 15.0722
11009 1 12.2395 12.1389 18.1924
7410 1 12.6809 12.249 15.4193
11001 1 9.62417 12.6378 17.947
7402 1 9.70513 12.274 15.0924
10998 1 6.9484 12.2735 20.6844
11002 1 9.91715 12.1047 20.7107
10996 2 8.20092 13.7334 16.5677
10944 1 9.58303 9.17763 20.6784
73 2 5.1074 -0.357828 27.7968
7442 2 -0.450493 19.3075 13.7377
10984 2 2.59223 13.6978 16.6901
10994 2 5.41593 13.7676 19.41
11054 2 5.23342 19.4128 19.2232
11053 2 4.97319 16.5464 16.5681
11045 1 1.0171 18.1278 18.0028
7446 1 0.961582 18.224 15.2005
10987 1 1.08078 15.2615 18.094
7388 1 0.915241 15.2306 15.3916
11049 1 3.84095 17.8578 18.0144
11043 2 2.51564 16.5643 19.5422
7450 1 3.68218 18.0674 15.2507
11044 2 2.35898 19.6962 16.6801
10991 1 4.07555 15.2376 18.2819
7392 1 3.76223 15.189 15.4498
10988 1 1.04117 15.1892 20.8277
11067 2 13.6571 16.4943 19.4225
11070 1 12.228 17.9869 20.8943
10982 2 -0.1292 13.7268 19.4918
7394 2 5.51023 13.7009 13.7618
10802 2 -0.147976 -3.31455 19.3656
14582 2 -0.391095 13.8279 25.0613
7226 2 10.9679 -3.36393 13.744
11000 1 6.64362 15.0223 20.7821
193 2 5.3098 10.8478 27.7808
7458 1 6.4277 17.968 15.3584
11057 1 6.75936 17.9701 17.8717
10999 1 6.58106 15.1539 17.8452
7400 1 6.65252 15.1175 15.4159
14581 2 -0.41788 10.9879 21.9562
11056 2 8.06953 19.5205 16.6561
11006 2 11.0747 13.5663 19.5537
7404 1 9.347 15.0146 14.3719
11065 2 11.0509 16.6072 16.5379
11069 1 12.3506 18.1052 18.0793
7470 1 12.2376 18.0104 15.2123
11011 1 12.2743 14.9386 17.8963
11066 2 11.0567 19.409 19.291
7412 1 12.2193 15.098 15.259
11061 1 9.7993 18.1912 17.8521
11055 2 8.11519 16.497 19.1935
7462 1 9.35338 17.9893 15.1956
11003 1 9.49295 15.2295 17.69
14611 1 12.2821 14.9422 23.5412
17952 1 3.63672 -4.71866 26.9157
17948 1 0.881055 -1.81532 26.2966
14473 2 5.40271 -0.520876 22.1415
14405 1 1.08335 -4.64156 23.859
14407 1 1.01146 -1.78109 23.6696
14414 2 5.45714 -3.24329 24.8248
14409 1 4.06841 -4.691 23.8883
14463 2 2.37902 -0.368843 24.886
14410 1 3.756 -1.94737 26.7959
14404 2 2.66203 -3.28968 22.1644
14411 1 4.11094 -1.56496 24.0545
17946 1 0.832285 -4.96364 26.4215
7274 2 5.13272 2.32944 13.7388
14419 1 6.90699 -1.90109 23.637
14670 1 12.5164 18.1529 26.3348
14461 2 -0.341287 -0.485652 22.2492
64 2 2.5159 2.38472 27.6444
10832 1 12.39 -1.9653 21.0396
14420 1 6.50143 -2.12372 26.4331
10820 1 6.85524 -1.9627 20.7815
17960 1 6.13235 -4.91796 26.4692
14417 1 7.01683 -4.92313 23.6476
14418 1 9.14702 -4.97233 26.4636
14485 2 11.0452 -0.693764 22.23
14429 1 12.4455 -4.58522 23.6928
14431 1 12.5827 -1.89365 23.6768
14426 2 11.2135 -3.11705 25.1723
14432 1 12.2691 -1.53061 26.5737
14421 1 9.66281 -4.6953 23.6641
14475 2 8.16483 -0.461183 25.1314
14422 1 12.822 -4.6276 26.184
14416 2 8.28346 -3.38509 22.2823
14423 1 9.79245 -1.82937 23.7617
14424 1 9.22039 -1.89513 26.4855
136 2 8.14542 8.1453 27.7737
121 2 -0.453263 5.20947 27.693
7275 2 8.29065 -0.377258 13.765
209 2 10.8771 10.8088 27.8634
7323 2 2.59146 5.09674 13.7653
10872 1 3.97069 3.79181 20.6206
7214 2 5.37197 -3.35169 13.668
14469 1 3.72056 1.13674 23.379
14465 1 1.01929 0.982105 23.6409
14412 1 3.88691 0.930388 26.3396
14466 1 1.04918 3.99174 26.4252
14474 2 5.25647 2.39265 24.786
14408 1 1.09778 0.866252 26.2914
14464 2 2.32686 2.44293 22.0304
14533 2 5.48291 5.22876 22.1687
14467 1 1.11436 3.74421 23.4421
14529 1 3.9011 6.5295 23.4665
14523 2 2.42035 5.25031 24.8978
14471 1 3.94476 4.05068 23.3875
14472 1 3.90079 3.71452 26.3717
14530 1 4.13169 6.5189 26.3442
14525 1 0.94943 6.48271 23.394
14468 1 1.34424 6.73184 26.4692
10878 1 6.71212 0.945252 20.7811
10880 1 6.69697 3.84056 20.6722
14599 1 6.77953 15.013 23.5689
14470 1 6.57479 3.74975 26.1535
14537 1 7.188 6.43191 23.4424
14482 1 6.49314 0.807164 26.3242
14479 1 7.10132 3.63424 23.4846
14477 1 6.50102 0.897892 23.4303
10950 1 12.4418 6.47245 20.8179
10882 1 9.63447 0.809786 20.9356
10892 1 12.4413 3.76352 20.4801
14538 1 6.97748 6.57334 26.2678
14489 1 12.1464 1.01608 23.5178
81 1 9.53093 0.913199 26.4245
14478 1 9.46352 3.74372 26.455
14490 1 12.3302 0.9735 26.4655
14481 1 9.37104 0.891722 23.7446
14476 2 8.27323 2.27199 22.1254
76 2 10.9865 2.4316 24.9972
14486 1 12.2947 3.82307 26.3027
14483 1 9.61802 3.84584 23.4322
14542 1 9.72753 6.52659 26.4074
14535 2 8.27221 5.13828 25.0249
14545 2 11.0305 5.17071 21.9827
14550 1 12.3642 6.4772 26.4922
14491 1 12.5134 3.69749 23.4463
14541 1 9.81734 6.55412 23.4794
14549 1 12.6126 6.53121 23.7169
14656 2 8.06004 19.3475 22.3059
14522 2 -0.200885 8.04465 25.0475
14655 2 8.02102 16.3434 24.6867
10986 1 1.03665 12.1957 20.5714
14612 1 12.2162 15.1444 26.296
10928 1 0.960091 9.3712 20.8416
14586 1 1.29625 12.5068 26.1093
14593 2 5.33891 10.7964 22.0946
14526 1 4.02221 9.27934 26.2765
14527 1 1.29199 9.26756 23.843
14534 2 5.54797 7.88075 24.8278
14528 1 3.9616 12.3017 26.2154
14540 1 3.70334 12.1617 23.4564
14583 2 2.60562 10.7419 24.9456
14524 2 2.3283 8.00765 22.2256
14531 1 4.17329 9.45565 23.5635
14589 1 1.08459 12.0216 23.3368
14585 1 1.24573 9.59347 26.5827
14657 1 6.34672 17.7537 23.7678
14539 1 6.81175 9.30059 23.4491
10922 2 -0.385361 8.01912 19.3775
10940 1 6.82236 9.5037 20.609
14532 1 6.82663 9.34676 26.2947
14597 1 6.66402 12.3922 23.476
10952 1 12.3689 9.50531 20.8507
139 1 6.76731 12.1368 26.1713
11010 1 12.5748 12.1959 20.859
14601 1 9.39732 12.3105 23.3545
14602 1 9.49599 12.1477 26.3044
14609 1 12.5004 12.2592 23.6065
14610 1 12.2158 12.2562 26.3428
14544 1 9.78257 9.54928 26.2364
14543 1 9.71784 9.57187 23.4543
14536 2 8.1758 7.83917 21.8825
14595 2 8.1523 10.8601 24.7764
14605 2 11.1323 10.7512 22.2278
14551 1 12.5148 9.39052 23.5243
14546 2 11.0476 7.88072 24.9547
14552 1 12.4954 9.29953 26.4425
205 2 10.8209 13.6213 25.047
14658 1 6.79043 17.9047 26.6961
14661 1 9.34269 17.9672 23.4587
10992 1 3.844 15.067 20.9599
11050 1 3.70854 17.9357 20.8975
10921 2 -0.261732 5.37961 16.3066
14521 2 -0.419371 5.12385 22.168
14596 2 8.1365 13.6743 21.9607
14584 2 2.41236 13.8357 22.322
11046 1 1.04983 18.0344 20.7851
14594 2 5.12383 13.575 24.7419
14590 1 1.00727 15.4353 26.3176
14587 1 1.02298 15.1612 23.5366
14644 2 2.32053 19.5995 22.3483
14649 1 3.66094 18.0402 23.6338
14591 1 3.88698 15.0625 23.9091
14646 1 1.09503 18.1758 26.5406
14654 2 5.27807 19.4023 25.0339
14645 1 0.928838 17.9996 23.8428
14653 2 5.12133 16.4396 22.2753
14650 1 3.87489 18.2908 26.5677
14643 2 2.29677 16.7066 25.088
14592 1 3.84501 15.2067 26.3517
11041 2 -0.293093 16.5861 16.7124
14665 2 10.6906 16.6177 22.1444
14604 1 9.30058 15.0929 26.3732
14669 1 12.0934 17.701 23.7229
11058 1 6.54377 17.6631 20.909
11062 1 9.15785 18.128 20.4783
11004 1 9.65366 15.1907 20.7788
14666 2 10.9739 19.3422 24.9645
14662 1 9.70017 17.6907 26.3149
14600 1 6.63281 15.0509 26.5771
265 2 11.3326 16.7452 27.7595
7383 2 2.39604 10.8377 13.9928
14642 2 -0.50714 19.3022 25.0905
133 2 5.33148 5.01626 27.7777
7286 2 10.7431 2.52621 13.7806
181 2 -0.216108 10.9994 27.4844
7454 2 5.22195 19.4658 13.7333
145 2 10.9355 5.09355 27.7883
14430 1 10.9783 -3.53467 27.5912
79 2 8.23138 2.40421 27.7611
7263 2 2.44438 -0.624242 13.7794
3913 2 5.1732 22.4302 5.30302
305 1 0.712643 23.6906 1.07837
306 1 0.923468 23.6845 3.89565
247 1 0.86744 20.9805 1.10554
314 2 5.3309 25.1372 2.55321
248 1 0.725974 21.1471 3.95553
309 1 3.72722 23.4591 1.16522
303 2 2.39298 22.3593 2.85846
310 1 3.85982 23.9779 3.90019
3904 2 2.27962 24.9598 5.25499
251 1 3.65267 20.7201 1.40555
252 1 3.66396 20.9458 4.24511
3909 1 3.78393 23.704 6.68015
260 1 6.23528 20.7912 1.02735
308 1 1.12341 26.4476 3.58845
3907 1 0.821116 26.438 6.44087
3847 1 0.740947 20.8614 6.93742
307 1 0.879782 26.5202 1.02432
312 1 3.78952 26.7867 4.09036
3905 1 1.11062 23.6807 6.71022
3911 1 3.84645 26.4344 6.75377
4021 2 -0.453753 33.6384 5.0718
4150 1 3.52991 46.2215 9.89045
436 2 8.1797 36.384 -0.480803
447 2 13.4821 33.7402 2.35608
422 2 -0.491187 36.5334 2.34578
14720 1 6.58198 23.8704 1.02134
3859 1 6.69112 20.9669 3.63551
3901 2 -0.466292 22.2878 5.34515
318 1 6.48243 23.6576 3.89626
3925 2 10.8832 22.4133 5.32809
329 1 12.4997 23.72 1.27696
330 1 11.9755 24.1374 4.14104
271 1 12.2659 20.7193 0.932164
326 2 11.0053 25.3618 2.52474
272 1 12.3007 20.8097 3.89143
321 1 9.61461 23.9428 1.03344
315 2 8.1846 22.5125 2.36161
322 1 9.3251 23.5072 3.94127
3916 2 7.86916 25.1766 5.40746
264 1 9.69493 20.527 3.82571
263 1 9.54277 20.979 1.42893
323 1 9.1962 26.6264 0.913746
319 1 6.54223 26.6009 0.955034
320 1 6.6746 26.5689 3.66722
324 1 9.40796 26.535 3.95113
3923 1 9.37116 26.5854 6.55589
304 2 2.31316 24.819 -0.25143
3931 1 12.1479 26.4492 6.61721
3860 1 6.60686 20.9792 6.49879
3871 1 12.299 20.7908 6.58628
3919 1 6.48738 26.6629 6.75766
313 2 5.15687 22.2495 -0.410427
311 1 3.91388 26.5278 1.18298
3973 2 5.17307 28.1863 5.16898
363 2 2.5444 27.9664 2.43039
366 1 0.790058 29.421 1.05362
367 1 0.961861 32.1679 0.814649
374 2 5.11251 31.0703 2.20955
368 1 0.997466 32.3412 3.69627
369 1 3.82793 29.2391 0.896142
370 1 3.71756 29.6813 3.52974
3964 2 2.30574 30.9695 5.10166
371 1 3.7691 32.6129 1.09468
372 1 3.9422 32.2788 3.95766
3965 1 1.03594 29.1513 3.82627
3967 1 1.01807 29.6104 6.62909
379 1 6.36051 31.9997 0.571707
377 1 6.57278 29.4202 0.931962
373 2 5.34143 27.8502 -0.324366
325 2 10.714 22.3008 -0.250469
426 1 0.89755 32.4369 6.37643
332 1 12.4275 26.7019 3.93176
14736 1 12.3255 26.7062 0.913089
380 1 6.62488 32.3167 3.75908
378 1 6.74763 29.433 3.79338
3985 2 10.7623 28.0297 5.23708
375 2 7.96611 27.9571 2.33887
390 1 12.3241 29.4741 0.679905
391 1 12.2976 32.3344 1.03862
386 2 10.9062 31.0238 2.23552
392 1 12.4217 32.2093 3.61472
381 1 9.49957 29.5174 0.800795
382 1 9.5296 29.3924 3.50359
3976 2 8.12747 30.9987 5.1358
383 1 9.17635 32.0921 1.0129
384 1 9.4731 32.2845 3.687
3989 1 12.3392 29.4132 3.67916
567 2 13.5592 44.8995 2.30103
3977 1 6.69604 29.446 6.50615
3981 1 9.53268 29.4744 6.31187
3983 1 9.6498 32.2797 6.47017
3990 1 12.4257 29.2067 6.50045
3991 1 12.2826 32.1138 6.42429
448 2 13.573 36.457 -0.548794
4162 1 9.46224 46.1398 9.53011
3927 2 13.4626 22.2009 7.91883
4033 2 5.39365 33.5555 5.29091
425 1 1.02372 35.2124 0.81139
434 2 5.38256 36.4528 2.15395
429 1 3.98321 35.2188 0.511908
423 2 2.24552 33.7461 2.2739
430 1 3.56017 35.3421 3.29583
4024 2 2.2548 36.47 5.16197
428 1 0.999475 35.1789 3.82605
427 1 0.996806 37.9055 0.604521
4084 1 0.964783 37.9774 3.63162
431 1 3.9825 37.9858 0.989182
432 1 3.92116 37.9027 3.67472
483 2 2.56146 39.4858 2.20835
4093 2 5.13839 39.4758 4.99317
7575 2 7.82407 28.0643 13.598
438 1 6.51568 35.008 3.67374
3988 2 13.5519 30.7053 5.06845
4025 1 1.04676 35.0685 6.59744
7622 2 -0.172157 36.5113 13.4187
388 2 13.6365 31.2049 -0.362162
440 1 6.76506 37.8422 3.62037
437 1 6.8649 34.8009 0.801274
439 1 6.85998 37.8552 0.978941
4037 1 6.71913 35.0821 6.41935
435 2 8.0411 33.7085 2.32051
4045 2 10.9688 33.6753 5.12235
449 1 12.0885 34.9064 0.788084
450 1 12.2661 35.0389 3.73771
446 2 10.8964 36.4601 2.33836
441 1 9.61002 35.0415 0.979185
442 1 9.37035 35.1248 3.81619
4036 2 7.85391 36.4594 5.13117
452 1 12.3745 37.9524 3.60361
443 1 9.56688 37.5569 0.605879
444 1 9.32909 37.8475 3.57003
4105 2 10.9077 39.1866 5.25545
451 1 12.4675 37.8892 0.867059
495 2 8.05895 39.3244 2.24321
4051 1 12.371 37.8315 6.38088
4041 1 9.53804 35.1057 6.54559
4039 1 6.7131 37.8958 6.69128
7743 2 2.3552 45.0432 13.6616
507 2 13.6602 39.3978 2.29575
7586 2 11.096 30.8449 13.6077
7634 2 5.27444 36.5135 13.6347
4153 2 5.13932 45.102 5.31511
485 1 1.01397 40.6018 0.654837
487 1 0.796362 43.5962 0.915242
494 2 5.41167 42.2857 2.18655
488 1 0.933338 43.6335 3.74355
489 1 3.83118 40.8772 0.91397
543 2 2.34183 45.0413 2.11429
490 1 3.84212 40.9666 3.66088
491 1 3.69966 43.7915 0.68283
492 1 3.86832 43.6048 3.66554
482 2 2.45162 42.2524 5.13121
538 1 1.02261 40.9105 3.46323
499 1 6.65569 43.6695 0.869846
500 1 6.81673 43.5466 3.72498
7563 2 2.10113 28.1012 13.6318
7741 2 -0.4214 44.9642 10.7443
3902 2 -0.529327 25.2719 8.08983
4103 1 9.33492 43.5007 6.61902
498 1 6.52361 40.9462 3.53151
497 1 6.78289 40.766 0.751672
4165 2 10.7224 44.8022 5.30087
509 1 12.1267 40.5164 0.962465
510 1 12.2512 40.6757 3.86505
511 1 12.5177 43.1276 0.96051
506 2 11.0277 42.1701 2.37202
501 1 9.44095 40.4107 1.01025
555 2 8.13054 45.0704 2.29052
502 1 9.25765 40.7396 3.76754
4096 2 8.0557 42.0816 5.05054
503 1 9.23149 43.3127 1.37012
504 1 9.73068 43.2592 4.0887
565 1 12.4437 43.509 3.73686
4101 1 9.58922 40.6617 6.5354
4022 2 -0.384824 36.3838 7.93909
562 1 9.59317 46.2848 3.78043
4097 1 6.74655 40.7734 6.56982
7695 2 8.02999 39.2472 13.6438
7621 2 -0.464103 33.6383 10.7897
3961 2 -0.370139 28.1177 5.2182
3851 1 3.58254 20.9409 6.85447
7501 2 -0.122964 22.5082 11.1184
7513 2 5.07066 22.2182 11.1868
7505 1 0.854689 23.6263 12.7689
3906 1 1.05542 23.9382 9.75609
7447 1 0.620142 20.9446 12.5917
3914 2 5.16546 25.1727 8.11609
7509 1 3.73391 23.6047 12.3771
3903 2 2.3686 22.1861 8.23481
3910 1 3.70555 23.6057 9.50399
7504 2 2.57079 25.1296 11.0724
7451 1 3.49406 20.7344 12.3975
3850 1 3.42114 20.3693 9.45313
3848 1 0.743063 21.0187 9.64915
7517 1 6.44008 23.9022 12.1837
7459 1 6.30616 20.6745 11.9119
3912 1 3.64689 26.4154 9.56243
7507 1 0.932791 26.2043 12.3906
7511 1 3.7256 26.6105 12.3882
3908 1 0.720778 26.795 9.47611
3929 1 12.0509 23.5409 6.65207
3863 1 9.39595 20.9519 6.39223
3921 1 9.31411 23.6159 6.72922
3852 1 6.56189 20.883 9.36484
3917 1 6.47662 23.7352 6.56784
3918 1 6.45508 23.8601 9.4839
7528 2 12.7503 24.7122 10.8521
7525 2 10.4334 21.9794 10.9773
7529 1 12.0135 23.597 12.4396
3930 1 11.7296 23.2709 9.36215
3926 2 10.5675 25.1273 7.90986
3872 1 12.1258 20.7947 9.42293
7521 1 9.54284 23.9753 11.9188
3915 2 7.91629 22.1515 7.95824
3922 1 9.02404 23.555 9.33167
7516 2 7.85612 25.1629 10.936
3864 1 9.31064 20.7526 9.34215
7463 1 12.2504 20.8089 12.3743
3920 1 6.61034 26.5536 9.43699
3924 1 9.4735 26.5628 9.31644
7523 1 9.34896 26.6203 12.2388
4161 1 9.28208 46.2375 6.60701
7519 1 6.61457 26.8296 12.1139
3932 1 12.1704 26.4122 9.40621
7531 1 12.3846 26.2227 12.5862
3969 1 3.71423 29.2555 6.49014
424 2 2.5357 36.4867 -0.423809
3971 1 3.79106 32.015 6.65345
3979 1 6.82066 32.2461 6.76301
7573 2 5.21987 28.164 10.9102
3963 2 2.19916 27.7147 8.01099
7565 1 1.28497 29.6721 9.1138
3974 2 5.07661 30.7632 8.00376
3968 1 1.09126 32.5289 9.30641
7569 1 1.20033 29.1856 11.7736
3970 1 4.07916 29.2544 9.46466
7564 2 2.51288 30.9316 10.744
7571 1 4.51951 31.9907 12.0236
3972 1 3.92116 32.3555 9.39078
7577 1 3.75727 29.3466 12.3169
7567 1 1.34759 32.2717 12.019
512 1 12.1611 43.7395 6.71576
3978 1 6.66022 29.6685 9.35804
3980 1 6.92971 32.6616 10.0192
7579 1 6.60152 29.8619 12.0679
7585 2 10.6461 27.8773 10.7117
3975 2 7.97785 27.9572 7.98922
7589 1 12.6554 29.2523 11.8313
7591 1 12.4408 32.2561 12.2485
3986 2 10.7438 30.6754 7.86105
3992 1 12.3217 32.0162 9.38546
7581 1 9.55694 29.4469 12.1433
3982 1 9.36792 29.4947 9.32919
7576 2 8.10296 30.8906 10.8264
7583 1 11.9558 28.9268 9.1489
3984 1 9.50842 32.243 9.22204
7635 1 9.61879 31.8992 11.9821
4107 2 13.6529 38.9837 7.95127
539 2 -0.453327 42.0525 2.08713
317 1 8.06497 22.2169 -0.251494