ITEM: TIMESTEP
70000
ITEM: NUMBER OF ATOMS
22500
ITEM: BOX BOUNDS pp pp pp
-3.5076171810356005e-01 2.7690761718103658e+01
-5.3410036076454173e+00 4.1544100360765242e+02
-3.5820222836924370e-01 2.7698202228369095e+01
ITEM: ATOMS id type q x y z
2 2 2.2208 5.10423 0.216755 5.4562
3 1 -1.1104 0.999494 -4.01611 1.27342
5 1 -1.1104 0.936589 1.69009 1.54427
10 1 -1.1104 0.918599 -4.03931 4.14397
11 1 -1.1104 0.878478 1.65066 4.15569
13 1 -1.1104 1.00934 -1.09809 1.35285
18 2 2.2208 5.18166 -2.61887 2.62989
19 1 -1.1104 0.918089 -1.19513 4.27664
21 1 -1.1104 3.81558 -3.87251 1.18181
23 1 -1.1104 3.75362 1.65646 1.24196
25 2 2.2208 2.38185 0.164036 2.681
26 1 -1.1104 3.66802 -4.14215 4.10389
27 1 -1.1104 3.68981 1.60429 4.2286
28 2 2.2208 2.48225 -2.61616 5.54292
29 1 -1.1104 3.7441 -1.07583 1.19594
31 1 -1.1104 3.69872 -1.35877 3.9312
8 1 -1.1104 6.48552 1.7071 1.35486
12 1 -1.1104 6.54488 1.63144 4.25762
20 1 -1.1104 6.48405 -1.21639 3.97492
41 1 -1.1104 6.41464 -3.94762 3.91438
7 1 -1.1104 6.56132 -3.86508 1.24138
15 1 -1.1104 6.47118 -1.00605 1.2415
809 2 2.2208 2.33295 -2.51757 -0.0968298
808 2 2.2208 5.26806 0.257104 -0.0670684
22468 2 2.2208 5.17825 -5.36758 -0.153239
42 2 2.2208 10.7409 0.357097 5.52522
43 1 -1.1104 12.1255 -3.7816 1.27927
45 1 -1.1104 12.1099 1.84795 1.36426
47 1 -1.1104 12.1792 -3.89803 4.14932
48 1 -1.1104 12.134 1.82425 4.09241
49 1 -1.1104 12.0619 -0.980661 1.2873
51 2 2.2208 10.7912 -2.41854 2.72822
52 1 -1.1104 12.1402 -1.07248 4.07124
53 1 -1.1104 9.397 -3.85505 1.26777
55 1 -1.1104 9.44518 1.81024 1.45961
57 2 2.2208 7.78011 0.319785 2.71754
59 1 -1.1104 9.16179 -3.89326 3.97397
60 1 -1.1104 9.27461 1.68952 4.2822
61 2 2.2208 7.9165 -2.49459 5.60082
63 1 -1.1104 9.22687 -0.96012 1.24906
65 1 -1.1104 9.17863 -1.1509 4.09477
58 2 2.2208 13.5317 0.336791 2.71478
62 2 2.2208 13.5492 -2.51278 5.55764
813 2 2.2208 13.472 -2.59074 -0.174417
21761 2 2.2208 13.5993 -5.33804 2.60385
21760 2 2.2208 7.94082 -5.30926 2.73893
21735 2 2.2208 10.681 -5.27562 5.47568
812 2 2.2208 8.06613 -2.49045 -0.181904
811 2 2.2208 10.6739 0.371944 -0.0530617
73 2 2.2208 16.3453 0.255667 5.4385
74 1 -1.1104 17.7984 -4.13269 1.34231
76 1 -1.1104 17.7291 1.48807 1.40165
78 1 -1.1104 17.8299 -4.03036 4.02027
79 1 -1.1104 17.7491 1.41175 4.0544
80 1 -1.1104 17.6674 -1.26378 1.34433
82 2 2.2208 16.3713 -2.69267 2.61124
83 1 -1.1104 17.8097 -1.255 4.19034
84 1 -1.1104 14.9196 -3.97112 1.20423
86 1 -1.1104 14.8369 1.6807 1.29737
88 2 2.2208 19.2292 0.150755 2.77646
89 1 -1.1104 14.9379 -3.94934 4.1581
90 1 -1.1104 14.8881 1.7184 4.18596
91 2 2.2208 19.1043 -2.63685 5.47093
92 1 -1.1104 14.8219 -1.21876 1.4118
94 1 -1.1104 14.9032 -1.11286 4.14631
105 1 -1.1104 20.6581 1.55301 4.09311
108 1 -1.1104 20.594 -1.33283 4.14623
100 1 -1.1104 20.5256 -3.8964 1.24863
106 1 -1.1104 20.6751 -1.14385 1.38452
102 1 -1.1104 20.5758 1.55845 1.31819
104 1 -1.1104 20.6084 -4.01022 4.01005
814 2 2.2208 16.3312 0.267691 -0.124763
815 2 2.2208 19.1564 -2.52784 -0.0169061
17 2 2.2208 27.5965 -2.51723 2.85295
21762 2 2.2208 27.5778 -5.31262 5.53099
1 2 2.2208 27.6622 0.276613 5.63063
109 2 2.2208 22.0299 0.36276 5.44833
110 1 -1.1104 23.2903 -3.92384 1.37714
112 1 -1.1104 23.3405 1.65355 1.13765
114 1 -1.1104 23.5828 -3.92507 4.17265
115 1 -1.1104 23.4541 1.64181 3.9956
116 1 -1.1104 23.4582 -1.16505 1.28977
118 2 2.2208 22.0293 -2.55604 2.6908
119 1 -1.1104 23.3085 -1.0933 4.06788
120 1 -1.1104 26.0806 -4.02267 1.24988
122 1 -1.1104 26.0328 1.64372 1.26736
124 2 2.2208 24.8136 0.233447 2.73936
125 1 -1.1104 26.2089 -4.01077 4.07849
126 1 -1.1104 26.1736 1.68801 4.20997
127 2 2.2208 24.7247 -2.54616 5.66735
128 1 -1.1104 26.2306 -1.083 1.32794
130 1 -1.1104 26.1655 -1.14345 4.06527
807 2 2.2208 27.6328 0.35642 -0.083162
817 2 2.2208 24.8467 -2.42288 -0.0659926
21700 2 2.2208 22.0192 -5.34586 5.3249
816 2 2.2208 21.9734 0.292727 -0.0471209
821 2 2.2208 2.37648 8.70862 -0.0668458
137 2 2.2208 5.16402 5.85869 5.45043
138 1 -1.1104 0.757591 7.36944 1.26813
142 1 -1.1104 0.834107 7.31616 4.03369
144 1 -1.1104 1.0071 4.38344 1.28299
146 1 -1.1104 0.838206 10.0679 1.25012
154 2 2.2208 5.11861 3.05081 2.7034
155 2 2.2208 5.1588 8.75062 2.78123
156 1 -1.1104 0.946543 4.51708 4.13605
157 1 -1.1104 0.826789 10.1077 3.94081
160 1 -1.1104 3.62532 7.21534 1.42006
162 2 2.2208 2.26151 5.87929 2.80326
163 1 -1.1104 3.76107 7.34687 4.02086
164 2 2.2208 2.29349 3.16268 5.59562
165 2 2.2208 2.36371 8.66227 5.41784
166 1 -1.1104 3.74093 4.53865 1.32259
168 1 -1.1104 3.74562 10.149 1.12302
170 1 -1.1104 3.75673 4.50453 4.23967
171 1 -1.1104 3.84491 10.1743 4.03092
143 1 -1.1104 6.4604 7.27327 4.08175
150 1 -1.1104 6.45492 10.0852 1.29668
158 1 -1.1104 6.69176 4.40704 3.9527
140 1 -1.1104 6.50947 7.19166 1.34587
159 1 -1.1104 6.62291 10.135 4.28183
819 2 2.2208 5.08167 5.93004 -0.102048
820 2 2.2208 2.40771 3.12764 -0.0801288
831 2 2.2208 13.559 3.05621 -0.161787
822 2 2.2208 8.00488 3.17294 -0.00563718
828 2 2.2208 10.8886 5.8902 -0.0806173
148 1 -1.1104 6.65892 4.40988 1.32045
176 2 2.2208 10.7157 6.04637 5.60598
177 1 -1.1104 12.0901 7.23012 1.38885
179 1 -1.1104 12.1251 7.43758 4.29755
180 1 -1.1104 12.2994 4.61093 1.21399
182 1 -1.1104 12.0614 9.9159 1.35358
184 2 2.2208 10.8336 3.11518 2.82523
185 2 2.2208 10.6072 8.67956 2.67067
186 1 -1.1104 12.2654 4.60226 4.18268
187 1 -1.1104 12.2247 10.2807 4.09966
188 1 -1.1104 9.35885 7.39411 1.33908
190 2 2.2208 8.05997 5.87797 2.64972
192 1 -1.1104 9.16508 7.30002 4.0848
193 2 2.2208 7.99086 3.07342 5.53042
194 2 2.2208 7.88176 8.74871 5.50039
196 1 -1.1104 9.4863 4.53345 1.22086
198 1 -1.1104 9.29372 10.2634 1.2965
200 1 -1.1104 9.54743 4.55041 4.08041
201 1 -1.1104 9.39424 10.1409 4.10929
195 2 2.2208 13.593 3.16391 5.63537
191 2 2.2208 13.5173 5.88794 2.72875
205 2 2.2208 13.6791 8.67628 5.54074
823 2 2.2208 7.92924 8.67361 -0.0269507
832 2 2.2208 13.416 8.65707 -0.00576935
206 2 2.2208 16.4752 5.8105 5.58784
207 1 -1.1104 17.7578 7.33852 1.37698
209 1 -1.1104 17.8206 7.20076 4.01126
210 1 -1.1104 17.7109 4.41626 1.39203
212 1 -1.1104 17.9104 10.1521 1.11647
214 2 2.2208 16.3504 3.00414 2.77329
215 2 2.2208 16.2244 8.67489 2.67892
216 1 -1.1104 17.7011 4.44162 4.29074
217 1 -1.1104 17.7602 10.0989 3.98002
218 1 -1.1104 14.8502 7.24191 1.23123
220 2 2.2208 19.1466 5.83399 2.72758
221 1 -1.1104 14.9545 7.39636 4.04938
222 2 2.2208 19.2859 2.97706 5.53295
223 2 2.2208 19.1973 8.58839 5.46419
224 1 -1.1104 15.0392 4.48118 1.35006
226 1 -1.1104 14.8948 10.147 1.3053
228 1 -1.1104 14.9135 4.54717 4.19709
229 1 -1.1104 14.9964 10.1539 4.18387
238 1 -1.1104 20.5362 4.40427 1.35094
243 1 -1.1104 20.5418 9.99227 4.03432
242 1 -1.1104 20.6855 4.37937 4.28265
235 1 -1.1104 20.5677 7.22414 1.22287
240 1 -1.1104 20.7297 10.0452 1.01885
237 1 -1.1104 20.5478 7.13356 4.00621
213 1 -1.1104 17.782 10.0228 6.77144
830 2 2.2208 19.1613 2.94401 -0.0169929
829 2 2.2208 16.3548 5.81709 -0.0168685
833 2 2.2208 19.1477 8.71029 -0.138678
136 2 2.2208 27.4946 6.01132 5.499
153 2 2.2208 27.4517 8.77566 2.63621
152 2 2.2208 27.4971 3.0533 2.64801
244 2 2.2208 21.9862 5.86796 5.4789
245 1 -1.1104 23.48 7.40423 1.26995
247 1 -1.1104 23.4112 7.26971 4.18924
248 1 -1.1104 23.4342 4.60662 1.1279
250 1 -1.1104 23.4538 10.1296 1.10913
252 2 2.2208 22.1383 2.96988 2.7562
253 2 2.2208 22.0612 8.62004 2.64415
254 1 -1.1104 23.394 4.46014 4.11936
255 1 -1.1104 23.3757 10.0993 3.87583
256 1 -1.1104 26.0652 7.22575 1.21772
258 2 2.2208 24.7242 5.8206 2.66827
259 1 -1.1104 25.9953 7.40709 4.04622
260 2 2.2208 24.8875 3.17151 5.4949
261 2 2.2208 24.7601 8.73721 5.49181
262 1 -1.1104 26.1389 4.42458 1.29895
264 1 -1.1104 26.1895 10.1496 1.27345
266 1 -1.1104 26.3022 4.61583 4.13198
267 1 -1.1104 26.2446 10.2187 4.08157
835 2 2.2208 24.7241 3.17139 -0.142698
834 2 2.2208 21.9259 5.82456 -0.162383
836 2 2.2208 24.7304 8.77132 -0.161929
818 2 2.2208 27.646 5.91456 -0.107495
6 1 -1.1104 1.12456 1.71262 7.0205
22 1 -1.1104 3.87972 -3.93361 6.91154
9 1 -1.1104 6.49383 1.77183 7.00148
24 1 -1.1104 3.74725 1.71982 6.99324
30 1 -1.1104 3.62658 -1.15488 6.85477
14 1 -1.1104 0.802026 -1.07447 7.073
16 1 -1.1104 6.58867 -0.949204 6.85488
4 1 -1.1104 1.04854 -3.80864 6.88982
272 2 2.2208 5.13622 0.436221 11.1448
273 1 -1.1104 0.804451 -3.85658 12.4935
274 1 -1.1104 1.03902 1.75477 12.6301
276 1 -1.1104 0.833642 -3.82402 9.59406
277 1 -1.1104 0.951845 1.75784 9.80788
279 1 -1.1104 0.965192 -0.965262 12.5907
282 2 2.2208 5.18731 -2.44671 8.34283
283 1 -1.1104 0.950689 -1.1381 9.81534
285 1 -1.1104 3.63084 -3.93825 12.5125
286 1 -1.1104 3.87122 1.89271 12.5746
287 2 2.2208 2.28887 0.382972 8.44211
288 1 -1.1104 3.78994 -3.96227 9.73867
289 1 -1.1104 3.68598 1.83613 9.77617
290 2 2.2208 2.20455 -2.45901 11.272
291 1 -1.1104 3.7666 -0.937951 12.5128
292 1 -1.1104 3.73951 -1.04794 9.62851
300 1 -1.1104 6.56344 -3.82367 12.6131
278 1 -1.1104 6.47057 1.89155 9.84978
275 1 -1.1104 6.71238 1.65253 12.4757
301 1 -1.1104 6.51235 -3.9107 9.63876
280 1 -1.1104 6.49356 -1.25707 12.4475
284 1 -1.1104 6.56077 -0.846207 9.72312
64 1 -1.1104 9.40748 -1.02123 6.82053
54 1 -1.1104 9.45914 -3.77137 6.83313
56 1 -1.1104 9.39948 1.77179 7.10217
46 1 -1.1104 12.1953 1.60679 7.04732
50 1 -1.1104 12.1591 -1.02396 6.83658
21664 2 2.2208 13.4932 -5.20622 8.28416
21662 2 2.2208 10.7377 -5.31551 11.0453
40 1 -1.1104 6.558 -3.931 6.83151
44 1 -1.1104 12.1794 -3.79119 6.90716
302 2 2.2208 10.6427 0.317475 11.0991
303 1 -1.1104 12.1266 -3.86594 12.4156
304 1 -1.1104 12.138 1.62981 12.5691
305 1 -1.1104 12.1513 -3.97278 9.7544
306 1 -1.1104 12.1848 1.72283 9.85877
307 1 -1.1104 12.2224 -1.13831 12.4753
308 2 2.2208 10.745 -2.37347 8.27895
309 1 -1.1104 12.1666 -1.06134 9.72235
310 1 -1.1104 9.25805 -3.9685 12.4327
311 1 -1.1104 9.34407 1.70857 12.4468
312 2 2.2208 7.91802 0.480155 8.33134
314 1 -1.1104 9.45195 -3.85397 9.58554
315 1 -1.1104 9.3672 1.57271 9.784
316 2 2.2208 8.09386 -2.59927 11.0082
318 1 -1.1104 9.42539 -1.23926 12.4066
319 1 -1.1104 9.27638 -1.15943 9.50019
313 2 2.2208 13.5864 0.249386 8.39198
317 2 2.2208 13.5193 -2.43237 11.0705
21663 2 2.2208 7.96771 -5.24589 8.18434
77 1 -1.1104 17.8572 1.68009 6.88627
75 1 -1.1104 17.8058 -3.91046 6.93162
93 1 -1.1104 14.9837 -1.18077 6.86148
103 1 -1.1104 20.5406 1.55201 6.96662
107 1 -1.1104 20.4643 -1.16384 6.83157
87 1 -1.1104 14.9819 1.72881 6.90143
81 1 -1.1104 17.6677 -1.0993 7.0794
85 1 -1.1104 14.9856 -3.98375 6.84399
101 1 -1.1104 20.5426 -3.90808 6.81271
328 2 2.2208 16.5012 0.220366 11.0517
329 1 -1.1104 17.7615 -3.97999 12.4898
330 1 -1.1104 17.7492 1.69319 12.388
331 1 -1.1104 17.6713 -3.98708 9.59045
332 1 -1.1104 17.7438 1.55996 9.6269
333 1 -1.1104 17.7383 -1.0797 12.6316
334 2 2.2208 16.3191 -2.60465 8.20826
335 1 -1.1104 17.7713 -1.29681 9.86328
336 1 -1.1104 15.0949 -4.01511 12.5209
337 1 -1.1104 14.9243 1.62217 12.5606
338 2 2.2208 19.2098 0.152485 8.27519
339 1 -1.1104 14.9054 -3.98894 9.63971
340 1 -1.1104 14.9356 1.47531 9.77718
341 2 2.2208 19.1091 -2.59607 11.211
342 1 -1.1104 14.9863 -1.15047 12.4865
343 1 -1.1104 14.9831 -1.14771 9.7077
349 1 -1.1104 20.5811 -3.95736 12.5697
352 1 -1.1104 20.5258 1.53799 9.78491
351 1 -1.1104 20.7043 -4.19395 9.67388
354 1 -1.1104 20.5328 -1.11759 9.70709
353 1 -1.1104 20.6104 -1.20061 12.5547
21632 2 2.2208 16.2538 -5.38648 11.1254
113 1 -1.1104 23.4111 1.80641 6.80294
117 1 -1.1104 23.2491 -1.03246 6.94582
21630 2 2.2208 21.9656 -5.35087 11.2346
281 2 2.2208 27.5104 -2.52979 8.39506
271 2 2.2208 27.6762 0.418951 11.1924
21697 2 2.2208 27.5815 -5.49419 11.174
111 1 -1.1104 23.2813 -3.9573 6.89808
129 1 -1.1104 26.0055 -1.10579 6.76778
123 1 -1.1104 26.2786 1.76761 7.10166
350 1 -1.1104 20.5401 1.67966 12.6241
121 1 -1.1104 26.1686 -3.95375 6.94372
355 2 2.2208 21.922 0.287136 11.0965
356 1 -1.1104 23.342 -3.94215 12.6786
357 1 -1.1104 23.2929 1.67687 12.5135
358 1 -1.1104 23.419 -3.73467 9.75925
359 1 -1.1104 23.3223 1.71155 9.81026
360 1 -1.1104 23.2765 -1.04942 12.4563
361 2 2.2208 21.8917 -2.56786 8.27108
362 1 -1.1104 23.3011 -1.11777 9.55324
363 1 -1.1104 26.1132 -4.02814 12.6646
364 1 -1.1104 26.1101 1.72977 12.5723
365 2 2.2208 24.6966 0.370645 8.29492
366 1 -1.1104 26.1638 -3.90306 9.80002
367 1 -1.1104 26.0218 1.59708 9.82472
368 2 2.2208 24.7867 -2.40572 11.2081
369 1 -1.1104 26.0784 -1.21102 12.5689
370 1 -1.1104 26.2253 -1.11892 9.74485
21631 2 2.2208 24.6521 -5.39968 8.32916
169 1 -1.1104 3.61831 10.1527 6.77597
167 1 -1.1104 3.7578 4.56596 6.97872
145 1 -1.1104 0.859589 4.58123 6.83085
139 1 -1.1104 0.855929 7.33695 6.79987
147 1 -1.1104 0.894791 10.258 6.81755
141 1 -1.1104 6.57017 7.28022 6.87454
149 1 -1.1104 6.54912 4.56787 6.87355
151 1 -1.1104 6.42758 10.0409 6.90426
161 1 -1.1104 3.71406 7.34296 6.8265
376 2 2.2208 5.04965 6.00836 11.0319
377 1 -1.1104 0.872234 7.40776 12.584
379 1 -1.1104 0.747447 7.17822 9.7383
381 1 -1.1104 0.892345 4.5612 12.4998
382 1 -1.1104 0.719111 10.2211 12.7849
386 2 2.2208 5.13694 3.0976 8.29484
387 2 2.2208 5.14863 8.75194 8.36097
388 1 -1.1104 0.922168 4.49577 9.74889
389 1 -1.1104 0.87077 10.0863 9.77369
392 1 -1.1104 3.91562 7.34781 12.4577
393 2 2.2208 2.26803 6.00709 8.30768
394 1 -1.1104 3.58592 7.31604 9.5963
395 2 2.2208 2.28433 3.24308 11.1823
396 2 2.2208 2.25797 8.71282 11.1313
397 1 -1.1104 3.75241 4.69638 12.478
398 1 -1.1104 3.56267 10.1146 12.5171
399 1 -1.1104 3.73544 4.62238 9.71576
400 1 -1.1104 3.58934 9.99165 9.7258
385 2 2.2208 -0.47271 3.1563 8.32587
390 1 -1.1104 6.5623 4.58366 9.7982
384 1 -1.1104 6.47103 10.1563 12.5333
383 1 -1.1104 6.58937 4.51773 12.6371
391 1 -1.1104 6.54167 10.0415 9.77315
378 1 -1.1104 6.58098 7.26164 12.6159
380 1 -1.1104 6.38711 7.1414 9.63473
178 1 -1.1104 12.1454 7.21719 7.09515
189 1 -1.1104 9.26807 7.57999 6.92396
199 1 -1.1104 9.27281 10.2131 6.93171
183 1 -1.1104 12.1001 10.1844 6.86801
181 1 -1.1104 12.0442 4.47108 6.87941
197 1 -1.1104 9.32173 4.60181 6.90814
203 1 -1.1104 9.18956 7.24649 9.61762
230 2 2.2208 7.85376 5.91018 8.33145
231 1 -1.1104 9.36385 7.40849 12.6052
232 1 -1.1104 12.3234 10.1232 9.76254
233 1 -1.1104 12.1218 4.47235 9.63684
234 2 2.2208 10.8449 8.73422 8.38038
268 2 2.2208 10.8007 3.12814 8.36949
269 1 -1.1104 12.1618 9.97827 12.5706
270 1 -1.1104 12.2135 4.44785 12.3828
296 1 -1.1104 12.1336 7.30425 9.84759
297 1 -1.1104 12.1579 7.2957 12.7698
299 2 2.2208 10.8002 5.84668 11.1163
323 2 2.2208 7.88694 3.26939 11.1857
324 2 2.2208 8.0162 8.65646 11.1123
346 1 -1.1104 9.38511 4.4736 12.6516
348 1 -1.1104 9.49655 10.1548 12.3962
373 1 -1.1104 9.24136 4.46251 9.68827
374 1 -1.1104 9.32801 10.0277 9.60643
204 2 2.2208 13.5991 5.8448 8.33828
327 2 2.2208 13.6011 3.05388 11.2551
32 2 2.2208 13.6596 8.6295 11.2166
211 1 -1.1104 17.8388 4.36545 6.97442
227 1 -1.1104 14.9237 10.1692 6.8384
225 1 -1.1104 14.9285 4.57813 7.0148
208 1 -1.1104 17.8267 7.14047 7.00973
219 1 -1.1104 15.1576 7.35404 6.87938
239 1 -1.1104 20.7296 4.47802 6.95299
241 1 -1.1104 20.5798 9.97782 6.83624
236 1 -1.1104 20.5103 7.22663 6.83558
345 1 -1.1104 20.4503 10.0153 9.55898
325 1 -1.1104 20.675 4.43552 12.5817
344 1 -1.1104 20.6807 4.46104 9.67642
202 2 2.2208 19.2356 5.82919 8.42726
33 2 2.2208 16.5217 5.92563 11.0937
34 1 -1.1104 17.7007 7.20126 12.4914
35 1 -1.1104 14.9328 7.1461 9.74616
36 1 -1.1104 17.7874 7.23332 9.74595
37 2 2.2208 19.183 3.03406 11.1977
38 1 -1.1104 17.9132 4.48945 12.4202
69 2 2.2208 19.18 8.55876 11.0879
70 1 -1.1104 17.6265 9.95409 12.3782
71 1 -1.1104 15.1841 4.49388 12.604
97 2 2.2208 16.376 2.96205 8.38469
98 1 -1.1104 14.9097 10.0124 12.644
133 2 2.2208 16.369 8.64309 8.27488
134 1 -1.1104 17.8626 4.48815 9.69768
172 1 -1.1104 14.9928 4.39126 9.81685
173 1 -1.1104 17.8258 9.98286 9.60737
174 1 -1.1104 15.1475 10.1782 9.65899
175 1 -1.1104 15.072 7.19976 12.5109
321 1 -1.1104 20.6469 7.24473 9.73728
347 1 -1.1104 20.5632 7.21647 12.6042
326 1 -1.1104 20.424 9.95988 12.4671
293 1 -1.1104 26.1307 7.05246 9.65712
131 1 -1.1104 23.3686 10.1473 9.74405
372 1 -1.1104 23.3573 7.18893 12.5106
322 1 -1.1104 26.1034 4.38899 9.77662
298 1 -1.1104 26.2342 4.61669 12.5128
249 1 -1.1104 23.402 4.56706 6.94145
251 1 -1.1104 23.3659 10.2321 6.85693
265 1 -1.1104 26.0112 10.0897 6.97413
263 1 -1.1104 26.2873 4.54147 7.02409
257 1 -1.1104 26.1242 7.25959 6.82403
68 1 -1.1104 23.5057 4.50102 12.5708
135 2 2.2208 24.7222 5.8616 8.34632
294 2 2.2208 24.6579 3.07852 11.2205
246 1 -1.1104 23.2481 7.39145 6.99611
375 1 -1.1104 26.125 9.85435 9.75579
67 1 -1.1104 23.4987 7.30102 9.78003
320 1 -1.1104 26.048 10.3496 12.5704
132 1 -1.1104 26.2693 7.3441 12.5022
72 1 -1.1104 23.1889 10.0208 12.4607
96 2 2.2208 21.8886 8.62397 8.31773
95 2 2.2208 21.9217 3.1308 8.33372
371 2 2.2208 22.0911 5.80428 11.1943
295 2 2.2208 24.745 8.70814 11.176
66 2 2.2208 27.5474 5.87548 11.0958
99 1 -1.1104 23.3828 4.52067 9.69304
39 2 2.2208 27.4324 8.70271 8.28937
402 2 2.2208 5.11583 0.18122 16.7333
403 1 -1.1104 0.891238 -3.86064 18.122
404 1 -1.1104 0.915815 1.76079 18.1936
407 1 -1.1104 0.827898 -3.87932 15.3537
408 1 -1.1104 0.878251 1.69349 15.4989
411 1 -1.1104 0.88856 -1.074 18.0726
414 2 2.2208 5.10412 -2.44155 19.5838
415 1 -1.1104 0.773291 -1.11246 15.2957
417 1 -1.1104 3.70496 -3.9844 18.2553
418 1 -1.1104 3.84824 1.52378 18.1504
419 2 2.2208 2.26494 0.316337 19.4101
420 1 -1.1104 3.58657 -3.87595 15.3804
421 1 -1.1104 3.79046 1.58012 15.2835
422 2 2.2208 2.29625 -2.5214 16.7028
423 1 -1.1104 3.63684 -1.19107 18.1697
424 1 -1.1104 3.50137 -1.1707 15.2663
412 1 -1.1104 6.50238 -1.06851 18.1059
406 1 -1.1104 6.60281 1.71368 18.074
405 1 -1.1104 6.50785 -3.82427 18.2106
410 1 -1.1104 6.54212 1.60369 15.2647
409 1 -1.1104 6.45288 -4.00001 15.2901
22422 2 2.2208 5.09582 -5.38223 16.7285
413 2 2.2208 -0.54374 -2.40348 19.5682
22421 2 2.2208 2.21511 -5.2308 19.5892
837 2 2.2208 2.32029 0.355329 14.0195
838 2 2.2208 5.10284 -2.55373 13.9835
416 1 -1.1104 6.49853 -1.23494 15.2283
428 2 2.2208 10.6554 0.109516 16.651
429 1 -1.1104 11.8991 -4.06682 18.2016
430 1 -1.1104 11.9947 1.66032 18.0128
431 1 -1.1104 12.2304 -3.95445 15.2584
432 1 -1.1104 12.1227 1.78342 15.3644
433 1 -1.1104 12.2103 -1.13587 18.2367
434 2 2.2208 10.7833 -2.52528 19.5193
435 1 -1.1104 12.1226 -1.16556 15.2343
436 1 -1.1104 9.23159 -3.9604 17.9998
437 1 -1.1104 9.39378 1.46626 18.0776
438 2 2.2208 7.92464 0.260306 19.4733
440 1 -1.1104 9.37946 -3.95808 15.194
441 1 -1.1104 9.29162 1.60943 15.2177
442 2 2.2208 7.93005 -2.60792 16.6599
444 1 -1.1104 9.23707 -1.30052 18.0147
445 1 -1.1104 9.32462 -1.14 15.2099
443 2 2.2208 13.5435 -2.53346 16.7437
439 2 2.2208 13.5052 0.219846 19.4167
840 2 2.2208 7.94901 0.261564 13.7828
22426 2 2.2208 7.90151 -5.37411 19.5562
22425 2 2.2208 10.6671 -5.42167 16.708
22448 2 2.2208 7.94641 -5.38069 13.9071
841 2 2.2208 10.7373 -2.55222 13.8464
22428 2 2.2208 16.302 -5.29381 16.6234
450 2 2.2208 16.2685 0.342186 16.6835
451 1 -1.1104 17.635 -4.02202 18.1474
452 1 -1.1104 17.7487 1.82211 18.0504
453 1 -1.1104 17.7372 -3.98901 15.3231
454 1 -1.1104 17.7326 1.744 15.3445
455 1 -1.1104 17.7624 -1.13151 18.0677
456 2 2.2208 16.3537 -2.60296 19.4064
457 1 -1.1104 17.8706 -1.01362 15.3729
458 1 -1.1104 14.7476 -3.93685 18.2311
459 1 -1.1104 14.9357 1.75744 18.0738
460 2 2.2208 18.9576 0.269663 19.5985
461 1 -1.1104 14.9854 -3.79146 15.4412
462 1 -1.1104 14.8911 1.66902 15.3951
463 2 2.2208 19.0488 -2.55083 16.6892
464 1 -1.1104 14.9249 -1.09518 17.9904
465 1 -1.1104 14.7865 -1.10928 15.3482
470 1 -1.1104 20.5326 1.64692 18.1085
473 1 -1.1104 20.6834 -1.00361 18.1373
469 1 -1.1104 20.526 -3.99818 18.0028
471 1 -1.1104 20.4751 -3.9015 15.252
474 1 -1.1104 20.505 -0.997005 15.3267
472 1 -1.1104 20.5653 1.69198 15.3294
22445 2 2.2208 19.0955 -5.32196 13.842
844 2 2.2208 19.2069 0.22391 13.8789
842 2 2.2208 13.5584 0.257818 13.9621
22427 2 2.2208 19.2104 -5.47427 19.4396
843 2 2.2208 16.3305 -2.50741 13.8298
401 2 2.2208 27.4461 0.30704 16.7416
475 2 2.2208 21.8998 0.323367 16.7854
476 1 -1.1104 23.314 -3.8148 18.0427
477 1 -1.1104 23.3676 1.78696 18.0778
478 1 -1.1104 23.2996 -3.9075 15.3761
479 1 -1.1104 23.3125 1.76689 15.3295
480 1 -1.1104 23.4153 -1.14029 18.1253
481 2 2.2208 22.0285 -2.49974 19.5938
482 1 -1.1104 23.28 -1.0523 15.2987
483 1 -1.1104 26.1307 -3.77249 18.1302
484 1 -1.1104 26.0905 1.78302 18.1762
485 2 2.2208 24.7131 0.326382 19.5327
486 1 -1.1104 26.0768 -3.90923 15.2968
487 1 -1.1104 26.0018 1.91636 15.3875
488 2 2.2208 24.8077 -2.41476 16.6438
489 1 -1.1104 26.1657 -0.955021 18.1192
490 1 -1.1104 26.1639 -0.974233 15.2806
22429 2 2.2208 21.8136 -5.36661 16.6989
22423 2 2.2208 27.4912 -5.26808 16.6181
839 2 2.2208 27.5624 -2.43656 14.0011
22442 2 2.2208 24.6517 -5.32593 13.967
22430 2 2.2208 24.8536 -5.27667 19.4905
845 2 2.2208 24.6094 0.459726 13.978
846 2 2.2208 21.9327 -2.52975 13.9286
492 2 2.2208 5.1158 5.82415 16.8356
493 1 -1.1104 0.975513 7.25886 18.0475
495 1 -1.1104 0.96116 7.35058 15.2718
497 1 -1.1104 0.963943 4.60068 18.0598
498 1 -1.1104 0.983979 9.99912 18.1886
502 2 2.2208 5.20506 3.10218 19.568
503 2 2.2208 5.24618 8.65554 19.5935
504 1 -1.1104 1.08175 4.48439 15.3679
505 1 -1.1104 0.870596 10.0265 15.5194
508 1 -1.1104 3.72589 7.19193 18.1374
509 2 2.2208 2.30736 5.86969 19.5532
510 1 -1.1104 3.79386 7.10112 15.2428
511 2 2.2208 2.37755 3.11995 16.7907
512 2 2.2208 2.37024 8.69589 16.7152
513 1 -1.1104 3.7872 4.45682 18.1531
514 1 -1.1104 3.89503 10.0349 17.9135
515 1 -1.1104 3.73305 4.40288 15.2691
516 1 -1.1104 3.67522 10.0494 15.1413
500 1 -1.1104 6.65355 10.2409 18.0706
507 1 -1.1104 6.42725 9.99971 15.2039
506 1 -1.1104 6.39298 4.35318 15.5
496 1 -1.1104 6.55564 7.2142 15.3869
499 1 -1.1104 6.60046 4.51378 18.2498
494 1 -1.1104 6.58791 7.20811 18.043
850 2 2.2208 5.09172 8.68094 13.9981
848 2 2.2208 5.20655 3.12605 13.9605
847 2 2.2208 2.22727 5.98694 13.9135
827 2 2.2208 13.6034 5.85072 13.9358
517 2 2.2208 10.8569 5.68559 16.8011
518 1 -1.1104 12.1606 7.18758 17.9842
519 1 -1.1104 12.1101 7.20852 15.3488
520 1 -1.1104 12.3247 4.47796 18.1813
521 1 -1.1104 12.1291 10.2176 18.1605
522 2 2.2208 10.8502 2.9444 19.5993
523 2 2.2208 10.7264 8.63202 19.5433
524 1 -1.1104 12.153 4.52972 15.3015
525 1 -1.1104 12.0771 10.0984 15.4264
526 1 -1.1104 9.48907 7.15509 18.2775
527 2 2.2208 8.00233 5.84572 19.5706
529 1 -1.1104 9.38899 7.24634 15.4522
530 2 2.2208 7.96445 2.92162 16.7169
531 2 2.2208 7.9316 8.71762 16.7191
533 1 -1.1104 9.45613 4.23729 18.0962
534 1 -1.1104 9.25738 10.0147 18.0976
535 1 -1.1104 9.39632 4.36209 15.2814
536 1 -1.1104 9.30807 10.1097 15.207
528 2 2.2208 13.4522 5.83121 19.5811
532 2 2.2208 13.4913 3.16952 16.6634
537 2 2.2208 13.397 8.68732 16.775
826 2 2.2208 7.87325 5.79362 14.0481
825 2 2.2208 10.8099 8.7733 13.9284
824 2 2.2208 10.7231 3.16952 13.894
538 2 2.2208 16.2377 5.84702 16.7915
539 1 -1.1104 17.7844 7.16194 18.0642
540 1 -1.1104 17.6178 7.31518 15.3271
541 1 -1.1104 17.7694 4.4642 18.1264
542 1 -1.1104 17.6945 10.0134 18.0881
543 2 2.2208 16.4632 3.12232 19.5059
544 2 2.2208 16.2618 8.62739 19.3839
545 1 -1.1104 17.8023 4.58049 15.2363
546 1 -1.1104 17.7343 9.99271 15.312
547 1 -1.1104 14.8014 7.33007 18.1049
548 2 2.2208 19.1127 5.89346 19.3543
549 1 -1.1104 14.9603 7.18784 15.2767
550 2 2.2208 19.1436 3.14019 16.6591
551 2 2.2208 18.9404 8.64293 16.6679
552 1 -1.1104 14.9459 4.72474 18.2486
553 1 -1.1104 14.8295 10.0206 18.1805
554 1 -1.1104 14.9896 4.34051 15.2314
555 1 -1.1104 14.9522 10.1267 15.3844
558 1 -1.1104 20.3138 7.31181 15.3326
561 1 -1.1104 20.6249 4.51381 15.3357
562 1 -1.1104 20.4564 10.083 15.0733
557 1 -1.1104 20.5061 7.32988 18.0545
560 1 -1.1104 20.681 10.048 18.034
619 1 -1.1104 20.5578 7.18536 20.8589
559 1 -1.1104 20.5708 4.52787 18.0425
803 2 2.2208 16.2928 8.63061 13.8923
804 2 2.2208 16.3939 3.07975 13.8844
802 2 2.2208 19.1748 5.91265 13.846
801 2 2.2208 22.0016 3.13383 14.0437
805 2 2.2208 24.8073 5.97356 13.9317
501 2 2.2208 27.5255 3.27238 19.4287
491 2 2.2208 27.4744 6.06056 16.6263
556 2 2.2208 27.6919 8.71106 19.5436
563 2 2.2208 21.8122 6.02299 16.6247
564 1 -1.1104 23.3527 7.19839 18.0605
565 1 -1.1104 23.3746 7.45844 15.2697
566 1 -1.1104 23.2795 4.50931 18.0847
567 1 -1.1104 23.468 10.0528 18.0516
568 2 2.2208 21.819 3.1285 19.5555
569 2 2.2208 21.9437 8.68242 19.5188
570 1 -1.1104 23.3919 4.69738 15.292
571 1 -1.1104 23.382 10.1293 15.2795
572 1 -1.1104 26.079 7.30566 18.0209
573 2 2.2208 24.7685 5.91926 19.4795
574 1 -1.1104 26.2843 7.39264 15.3589
575 2 2.2208 24.7018 3.20288 16.7444
576 2 2.2208 24.7606 8.73834 16.6168
577 1 -1.1104 26.0951 4.55682 18.1188
578 1 -1.1104 26.29 10.0307 18.134
579 1 -1.1104 26.3895 4.65001 15.278
580 1 -1.1104 26.0856 10.2418 15.5201
806 2 2.2208 27.5085 8.77605 14.0149
810 2 2.2208 21.9573 8.7548 13.9293
849 2 2.2208 27.6053 3.12759 14.081
589 1 -1.1104 3.60623 1.74194 20.8814
586 1 -1.1104 0.85071 -0.975053 20.916
587 1 -1.1104 6.551 -1.18215 20.8616
582 1 -1.1104 0.904497 -3.87192 21.0559
590 1 -1.1104 3.7456 -1.08481 21.0867
583 1 -1.1104 0.782728 1.90182 21.0578
585 1 -1.1104 6.3149 1.64892 21.0226
588 1 -1.1104 3.6014 -3.89807 21.0092
594 2 2.2208 5.2754 0.152778 22.4084
595 1 -1.1104 0.847406 -4.05811 23.8099
596 1 -1.1104 0.793461 1.69644 23.9054
599 1 -1.1104 0.917208 -3.90317 26.488
600 1 -1.1104 0.968792 1.84046 26.7013
603 1 -1.1104 0.871927 -1.17244 23.8176
606 2 2.2208 5.20715 -2.59924 25.0705
607 1 -1.1104 0.973189 -1.03819 26.6227
609 1 -1.1104 3.59432 -3.95714 23.7353
610 1 -1.1104 3.74359 1.70071 23.7901
611 2 2.2208 2.21214 0.227713 25.1562
612 1 -1.1104 3.88975 -3.96716 26.5071
613 1 -1.1104 3.78849 1.63109 26.5133
614 2 2.2208 2.34778 -2.44689 22.5279
615 1 -1.1104 3.89232 -0.977042 23.7448
616 1 -1.1104 3.81851 -1.19769 26.5642
601 1 -1.1104 6.62968 -3.9897 26.4975
597 1 -1.1104 6.58966 -4.02757 23.6063
608 1 -1.1104 6.76734 -1.03282 26.4955
584 1 -1.1104 6.48221 -3.98025 20.8727
602 1 -1.1104 6.61228 1.8043 26.7076
604 1 -1.1104 6.62082 -1.24457 23.7141
22433 2 2.2208 5.07184 -5.36386 22.3537
22431 2 2.2208 2.2608 -5.39177 25.1838
22435 2 2.2208 7.90566 -5.32911 25.0669
622 1 -1.1104 12.1151 -1.10663 20.9345
623 1 -1.1104 9.35913 -3.86267 20.8721
621 1 -1.1104 12.1937 1.5952 20.8779
625 1 -1.1104 9.30604 -1.13399 20.7992
22434 2 2.2208 10.7032 -5.28299 22.3308
598 1 -1.1104 6.57452 1.59117 23.9009
624 1 -1.1104 9.27534 1.60929 20.8538
620 1 -1.1104 12.216 -4.04219 20.9132
626 2 2.2208 10.7695 0.234311 22.1825
627 1 -1.1104 12.1872 -3.98492 23.7249
628 1 -1.1104 12.1307 1.55986 23.8394
629 1 -1.1104 12.1817 -3.98167 26.5451
630 1 -1.1104 12.1661 1.65657 26.6012
631 1 -1.1104 12.0845 -1.15406 23.6422
632 2 2.2208 10.7447 -2.50422 25.1042
633 1 -1.1104 12.2176 -1.13446 26.5921
634 1 -1.1104 9.44285 -3.73608 23.7065
635 1 -1.1104 9.28017 1.78068 23.7457
636 2 2.2208 8.04691 0.454822 25.2889
638 1 -1.1104 9.41633 -3.8627 26.4051
639 1 -1.1104 9.3407 1.77407 26.5656
640 2 2.2208 7.9856 -2.47743 22.281
642 1 -1.1104 9.28908 -1.10241 23.73
643 1 -1.1104 9.52145 -1.08854 26.5178
637 2 2.2208 13.5618 0.210825 25.211
641 2 2.2208 13.5109 -2.58912 22.3489
22437 2 2.2208 16.4993 -5.31857 22.3254
647 1 -1.1104 17.5879 1.5486 21.0401
649 1 -1.1104 14.9774 -4.13268 21.0977
650 1 -1.1104 14.8256 1.627 21.0092
670 1 -1.1104 20.6974 -3.70918 21.0826
651 1 -1.1104 14.8646 -1.22099 20.8184
671 1 -1.1104 20.2841 1.71147 20.862
648 1 -1.1104 17.6397 -1.10439 20.9865
672 1 -1.1104 20.5142 -1.13478 20.8747
646 1 -1.1104 17.86 -3.95541 20.9239
652 2 2.2208 16.1451 0.206547 22.4
653 1 -1.1104 17.8501 -4.07188 23.92
654 1 -1.1104 17.7058 1.67484 23.8096
655 1 -1.1104 17.7523 -3.97616 26.7396
656 1 -1.1104 17.6831 1.58516 26.5973
657 1 -1.1104 17.6343 -1.21121 23.8283
658 2 2.2208 16.2478 -2.69886 25.2843
659 1 -1.1104 17.5509 -1.21586 26.6947
660 1 -1.1104 15.0338 -3.83532 23.7399
661 1 -1.1104 14.9167 1.77874 23.7699
662 2 2.2208 19.0801 0.149596 25.1309
663 1 -1.1104 14.9457 -4.04945 26.5909
664 1 -1.1104 15.0536 1.54929 26.5789
665 2 2.2208 19.0744 -2.60308 22.3908
666 1 -1.1104 14.7155 -1.20572 23.7158
667 1 -1.1104 14.9571 -1.18712 26.5215
680 1 -1.1104 20.5049 1.85598 23.7453
682 1 -1.1104 20.5133 1.503 26.5167
681 1 -1.1104 20.6519 -3.83239 26.5793
679 1 -1.1104 20.5005 -3.84743 23.8058
683 1 -1.1104 20.5755 -0.937622 23.7251
684 1 -1.1104 20.3958 -1.15933 26.655
22438 2 2.2208 19.3234 -5.23083 25.2475
676 1 -1.1104 26.2016 -3.8177 20.9322
677 1 -1.1104 25.9855 1.65185 20.7986
673 1 -1.1104 23.4217 -3.94584 20.9185
678 1 -1.1104 26.1229 -1.10637 20.9464
22439 2 2.2208 21.9786 -5.21605 22.3684
674 1 -1.1104 23.1114 1.70713 20.8876
675 1 -1.1104 23.4529 -1.16817 20.9398
593 2 2.2208 27.5405 0.404781 22.2845
605 2 2.2208 27.5986 -2.65055 25.0362
685 2 2.2208 21.9563 0.257355 22.2562
686 1 -1.1104 23.4413 -3.98456 23.7486
687 1 -1.1104 23.3589 1.63469 23.733
688 1 -1.1104 23.4051 -3.77881 26.6495
689 1 -1.1104 23.4055 1.76154 26.4935
690 1 -1.1104 23.4042 -1.22319 23.6405
691 2 2.2208 21.8792 -2.43024 25.1965
692 1 -1.1104 23.3252 -1.06719 26.4426
693 1 -1.1104 26.3155 -3.82371 23.6791
694 1 -1.1104 26.1581 1.65293 23.6184
695 2 2.2208 24.8832 0.239089 25.0986
696 1 -1.1104 26.21 -3.84355 26.4867
697 1 -1.1104 26.2667 1.82304 26.5628
698 2 2.2208 24.8054 -2.58235 22.3972
699 1 -1.1104 26.2958 -1.07704 23.6851
700 1 -1.1104 26.2032 -1.03283 26.594
22432 2 2.2208 27.5014 -5.34758 22.3259
22440 2 2.2208 24.7907 -5.20114 25.1733
701 1 -1.1104 1.0148 7.31241 20.7608
703 1 -1.1104 0.849614 4.58737 20.8486
704 1 -1.1104 0.960949 10.208 20.9329
709 1 -1.1104 3.88123 10.1105 20.7065
705 1 -1.1104 6.6344 4.47345 21.0286
708 1 -1.1104 3.89045 4.57092 20.9756
707 1 -1.1104 3.76763 7.34753 20.947
711 2 2.2208 5.19281 5.91357 22.3977
712 1 -1.1104 0.968092 7.21944 23.6555
714 1 -1.1104 0.953684 7.51681 26.623
716 1 -1.1104 1.0105 4.4524 23.834
717 1 -1.1104 0.967544 10.0134 23.749
721 2 2.2208 5.1962 3.06568 25.1656
722 2 2.2208 5.10804 8.64595 25.2259
723 1 -1.1104 0.84606 4.55251 26.4675
724 1 -1.1104 1.17603 10.3073 26.6897
727 1 -1.1104 3.95796 7.1849 23.8344
728 2 2.2208 2.35161 5.88892 25.075
729 1 -1.1104 3.70757 7.26552 26.5631
730 2 2.2208 2.32202 3.06482 22.3763