ITEM: TIMESTEP
40000
ITEM: NUMBER OF ATOMS
22500
ITEM: BOX BOUNDS pp pp pp
-3.5938794826503712e-01 2.7699387948265205e+01
-5.2958517206290594e+00 4.1539585172063533e+02
-3.5756819478003948e-01 2.7697568194779780e+01
ITEM: ATOMS id type q x y z
2 2 2.2208 5.13288 0.426514 5.19596
3 1 -1.1104 0.992484 -3.77741 1.31545
5 1 -1.1104 1.05292 1.7192 0.999642
10 1 -1.1104 1.11341 -4.04525 4.11596
11 1 -1.1104 1.06075 1.65144 3.82341
13 1 -1.1104 0.86883 -1.04686 0.92891
18 2 2.2208 5.10436 -2.49936 2.39671
19 1 -1.1104 1.062 -1.23611 3.76661
21 1 -1.1104 3.8053 -3.90577 0.976357
23 1 -1.1104 3.89654 1.77435 0.986679
25 2 2.2208 2.35277 0.315323 2.39497
26 1 -1.1104 3.8263 -3.90839 3.87876
27 1 -1.1104 3.84253 1.74762 3.71557
28 2 2.2208 2.41405 -2.46502 5.27174
29 1 -1.1104 3.92631 -1.05776 0.957513
31 1 -1.1104 3.78069 -1.08845 3.85643
808 2 2.2208 5.23824 0.314545 -0.473585
809 2 2.2208 2.4455 -2.46983 -0.331946
20 1 -1.1104 6.47319 -1.04573 3.82868
41 1 -1.1104 6.61088 -3.79828 3.90054
7 1 -1.1104 6.59272 -3.95413 1.06652
12 1 -1.1104 6.68111 1.83001 3.7674
8 1 -1.1104 6.74137 1.76809 1.05149
15 1 -1.1104 6.51493 -1.21182 1.02172
21794 2 2.2208 2.50679 -5.27699 2.53998
22468 2 2.2208 5.05881 -5.29457 -0.452572
24 1 -1.1104 3.62627 1.71543 6.66637
14 1 -1.1104 0.939183 -1.04796 6.54744
4 1 -1.1104 0.836119 -3.808 6.79495
9 1 -1.1104 6.52734 1.72607 6.58553
42 2 2.2208 10.7866 0.491997 5.30232
43 1 -1.1104 12.2345 -3.825 1.20452
45 1 -1.1104 12.3114 1.84791 0.943402
47 1 -1.1104 12.1944 -3.89599 4.11377
48 1 -1.1104 12.2866 1.89532 3.90825
49 1 -1.1104 12.242 -1.15091 1.12668
51 2 2.2208 10.8412 -2.4176 2.55135
52 1 -1.1104 12.1084 -1.02458 4.06216
53 1 -1.1104 9.38511 -4.00916 1.04915
55 1 -1.1104 9.30035 1.52751 0.874141
57 2 2.2208 7.89346 0.32225 2.50614
59 1 -1.1104 9.39849 -3.75692 3.86253
60 1 -1.1104 9.48567 1.86569 3.79666
61 2 2.2208 7.987 -2.49553 5.31155
63 1 -1.1104 9.45467 -1.10548 1.20554
65 1 -1.1104 9.23811 -0.977194 4.03686
811 2 2.2208 10.7914 0.288826 -0.274325
21735 2 2.2208 10.786 -5.28916 5.45309
812 2 2.2208 8.13932 -2.54039 -0.39135
58 2 2.2208 13.6345 0.372945 2.60735
62 2 2.2208 13.5375 -2.52212 5.32778
21761 2 2.2208 13.5184 -5.13422 2.48226
813 2 2.2208 13.6406 -2.44995 -0.329217
22463 2 2.2208 10.9571 -5.32276 -0.225424
73 2 2.2208 16.3088 0.218945 5.32417
74 1 -1.1104 17.8263 -3.91571 0.953355
76 1 -1.1104 17.7944 1.86199 1.08763
78 1 -1.1104 17.9213 -3.74911 3.92889
79 1 -1.1104 17.7237 1.69289 3.84957
80 1 -1.1104 17.7926 -1.05246 1.21597
82 2 2.2208 16.4491 -2.39018 2.50315
83 1 -1.1104 17.7398 -1.09106 3.92088
84 1 -1.1104 14.945 -3.69166 1.03833
86 1 -1.1104 15.0343 1.72104 1.06575
88 2 2.2208 19.0974 0.33827 2.50845
89 1 -1.1104 14.8863 -3.7822 3.74149
90 1 -1.1104 15.044 1.80654 3.86566
91 2 2.2208 19.3155 -2.44524 5.39301
92 1 -1.1104 15.076 -1.02246 1.2575
94 1 -1.1104 14.8597 -1.06577 4.01028
102 1 -1.1104 20.6189 1.78367 1.1395
100 1 -1.1104 20.7022 -3.70012 1.18592
106 1 -1.1104 20.5867 -0.915157 1.03006
108 1 -1.1104 20.6712 -1.00111 4.02183
104 1 -1.1104 20.5855 -3.69897 3.93374
105 1 -1.1104 20.6705 1.62707 3.84505
814 2 2.2208 16.398 0.397029 -0.246962
21733 2 2.2208 16.3057 -5.23375 5.26171
815 2 2.2208 19.2936 -2.37763 -0.276602
103 1 -1.1104 20.7513 1.74645 6.58861
17 2 2.2208 27.6405 -2.44922 2.48918
1 2 2.2208 27.6783 0.216094 5.2644
109 2 2.2208 22.0476 0.373253 5.26934
110 1 -1.1104 23.4873 -3.79113 1.00019
112 1 -1.1104 23.4278 1.82614 0.911604
114 1 -1.1104 23.571 -3.78587 4.03624
115 1 -1.1104 23.4355 1.73627 3.83294
116 1 -1.1104 23.2802 -0.904594 1.07216
118 2 2.2208 22.1246 -2.40142 2.50283
119 1 -1.1104 23.5002 -0.954034 3.91902
120 1 -1.1104 26.2215 -3.92174 0.976941
122 1 -1.1104 26.3563 1.66065 1.09973
124 2 2.2208 24.8241 0.393995 2.44405
125 1 -1.1104 26.2647 -3.83066 3.77328
126 1 -1.1104 26.262 1.69815 3.95358
127 2 2.2208 24.8246 -2.29223 5.33403
128 1 -1.1104 26.174 -1.05837 1.06691
130 1 -1.1104 26.3335 -1.05466 3.90491
817 2 2.2208 24.8359 -2.35315 -0.339964
816 2 2.2208 21.989 0.472547 -0.341806
21762 2 2.2208 27.5553 -5.26823 5.17405
21732 2 2.2208 24.9206 -5.30364 2.4274
21700 2 2.2208 21.9898 -5.21581 5.37998
807 2 2.2208 27.6311 0.335836 -0.360485
22457 2 2.2208 21.9447 -5.1869 -0.432507
137 2 2.2208 5.14485 5.94012 5.20809
138 1 -1.1104 0.880881 7.36022 0.970958
142 1 -1.1104 0.936029 7.23174 3.71663
144 1 -1.1104 0.975681 4.5279 0.923684
146 1 -1.1104 0.963774 10.2267 0.982105
154 2 2.2208 5.19376 3.1726 2.42204
155 2 2.2208 5.131 8.82105 2.27944
156 1 -1.1104 0.920915 4.58036 3.7062
157 1 -1.1104 0.994873 10.0583 3.82422
160 1 -1.1104 3.689 7.49576 1.00696
162 2 2.2208 2.3585 5.90662 2.34306
163 1 -1.1104 3.75642 7.29522 3.787
164 2 2.2208 2.29016 3.01311 5.31738
165 2 2.2208 2.35986 8.72733 5.15339
166 1 -1.1104 3.85698 4.67252 0.875627
168 1 -1.1104 3.75749 10.1816 0.894329
170 1 -1.1104 3.63521 4.50357 3.8831
171 1 -1.1104 3.8615 10.124 3.72089
150 1 -1.1104 6.65913 10.1961 1.07265
819 2 2.2208 5.19056 6.04741 -0.537301
820 2 2.2208 2.3989 3.11115 -0.43712
158 1 -1.1104 6.43628 4.63971 3.78817
821 2 2.2208 2.27523 8.85325 -0.376613
143 1 -1.1104 6.70294 7.34566 3.79152
148 1 -1.1104 6.69389 4.55253 0.946502
159 1 -1.1104 6.67965 10.1592 3.70799
147 1 -1.1104 0.914229 10.1788 6.68184
140 1 -1.1104 6.50375 7.45554 0.930598
176 2 2.2208 10.8429 5.90445 5.16784
177 1 -1.1104 12.2014 7.56463 0.890495
179 1 -1.1104 12.3255 7.43642 3.9008
180 1 -1.1104 12.1801 4.83456 1.08607
182 1 -1.1104 12.2322 10.2438 0.911856
184 2 2.2208 10.7911 3.22582 2.39705
185 2 2.2208 10.738 8.88339 2.33643
186 1 -1.1104 12.1024 4.45732 3.7515
187 1 -1.1104 12.1745 10.0328 3.86264
188 1 -1.1104 9.53655 7.29033 0.980365
190 2 2.2208 7.90876 6.06773 2.23546
192 1 -1.1104 9.46712 7.47815 3.75405
193 2 2.2208 8.06928 3.3122 5.1649
194 2 2.2208 8.04709 8.69282 5.19646
196 1 -1.1104 9.35702 4.48012 1.06984
198 1 -1.1104 9.41471 10.3552 0.895791
200 1 -1.1104 9.3533 4.66707 3.93552
201 1 -1.1104 9.39097 10.2351 3.79304
822 2 2.2208 8.00479 3.18065 -0.441042
205 2 2.2208 13.5992 8.73637 5.35669
828 2 2.2208 10.8603 6.00711 -0.502166
191 2 2.2208 13.5912 6.02021 2.45328
195 2 2.2208 13.697 3.09096 5.37503
832 2 2.2208 13.6425 8.73509 -0.475872
823 2 2.2208 8.02865 8.91603 -0.468027
831 2 2.2208 13.5383 3.16172 -0.363391
181 1 -1.1104 12.2535 4.65893 6.61347
206 2 2.2208 16.3842 5.95181 5.23961
207 1 -1.1104 17.623 7.33796 0.916243
209 1 -1.1104 17.8141 7.24277 3.79496
210 1 -1.1104 17.8389 4.57712 1.01851
212 1 -1.1104 17.9217 10.0305 0.988105
214 2 2.2208 16.3418 3.08044 2.52869
215 2 2.2208 16.3587 8.78102 2.40203
216 1 -1.1104 17.7329 4.39926 3.83087
217 1 -1.1104 17.7257 10.0998 3.69274
218 1 -1.1104 15.0151 7.31115 1.00181
220 2 2.2208 19.1983 5.90813 2.40988
221 1 -1.1104 15.0588 7.4149 3.80682
222 2 2.2208 19.1904 3.11378 5.30576
223 2 2.2208 19.1309 8.73567 5.26389
224 1 -1.1104 14.9736 4.5096 1.20309
226 1 -1.1104 15.0216 10.2896 1.03238
228 1 -1.1104 14.8201 4.60907 4.1233
229 1 -1.1104 15.0474 10.2439 3.90241
243 1 -1.1104 20.5758 10.3024 3.95547
829 2 2.2208 16.3219 5.78499 -0.204726
833 2 2.2208 19.28 8.71767 -0.39129
240 1 -1.1104 20.7167 10.1725 1.20988
235 1 -1.1104 20.5362 7.44627 1.03688
242 1 -1.1104 20.5934 4.43941 3.86805
237 1 -1.1104 20.4681 7.20008 3.94708
830 2 2.2208 19.3216 3.10384 -0.340905
238 1 -1.1104 20.6523 4.75482 1.04963
136 2 2.2208 27.5512 5.97913 5.16575
153 2 2.2208 27.5074 8.71492 2.56361
152 2 2.2208 27.6174 3.03641 2.54023
244 2 2.2208 21.9493 5.88721 5.29593
245 1 -1.1104 23.3576 7.31562 1.02697
247 1 -1.1104 23.2569 7.41191 3.77045
248 1 -1.1104 23.4609 4.60114 1.1629
250 1 -1.1104 23.4369 10.107 1.04921
252 2 2.2208 22.0959 3.15157 2.47549
253 2 2.2208 21.8391 8.76569 2.47675
254 1 -1.1104 23.4759 4.65478 3.97264
255 1 -1.1104 23.3252 10.1271 3.86147
256 1 -1.1104 26.1308 7.40027 1.10795
258 2 2.2208 24.8088 5.97489 2.49911
259 1 -1.1104 26.1375 7.37196 3.83385
260 2 2.2208 24.8479 3.194 5.37191
261 2 2.2208 24.5847 8.82654 5.17454
262 1 -1.1104 26.1781 4.49035 0.992969
264 1 -1.1104 26.227 10.1886 1.17592
266 1 -1.1104 26.2587 4.60142 3.82419
267 1 -1.1104 26.2176 10.2372 3.85971
834 2 2.2208 22.1702 6.00781 -0.250857
818 2 2.2208 27.6826 5.99376 -0.309399
835 2 2.2208 24.8873 3.18275 -0.488043
40 1 -1.1104 6.50964 -3.95279 6.73392
22 1 -1.1104 3.76267 -3.94011 6.69209
30 1 -1.1104 3.68444 -1.14502 6.63542
6 1 -1.1104 0.866567 1.74495 6.67649
16 1 -1.1104 6.56496 -1.06921 6.66624
272 2 2.2208 5.16587 0.39433 10.8465
273 1 -1.1104 0.971897 -3.86442 12.3573
274 1 -1.1104 0.880043 1.80182 12.3406
276 1 -1.1104 0.919378 -3.75746 9.61217
277 1 -1.1104 0.957811 1.7692 9.43186
279 1 -1.1104 0.864125 -1.04274 12.4552
282 2 2.2208 5.19272 -2.44447 8.0865
283 1 -1.1104 0.974205 -0.989727 9.65801
285 1 -1.1104 3.82827 -3.88089 12.306
286 1 -1.1104 3.87893 1.74691 12.4257
287 2 2.2208 2.28611 0.303967 8.08577
288 1 -1.1104 3.80373 -3.71331 9.40985
289 1 -1.1104 3.76955 1.695 9.41956
290 2 2.2208 2.43624 -2.39726 10.9564
291 1 -1.1104 3.71029 -0.977675 12.4139
292 1 -1.1104 3.80305 -1.01151 9.46256
275 1 -1.1104 6.55018 1.83727 12.2788
301 1 -1.1104 6.60114 -3.84129 9.4714
280 1 -1.1104 6.60313 -0.970313 12.301
284 1 -1.1104 6.58976 -0.88492 9.57903
278 1 -1.1104 6.55831 1.79486 9.27209
300 1 -1.1104 6.61396 -3.84507 12.2772
44 1 -1.1104 12.1101 -3.92817 6.80176
50 1 -1.1104 12.2568 -1.08414 6.74381
54 1 -1.1104 9.34433 -3.79577 6.78275
56 1 -1.1104 9.44525 1.88872 6.51979
46 1 -1.1104 12.4236 1.7837 6.67635
64 1 -1.1104 9.53978 -0.864124 6.84523
302 2 2.2208 10.8292 0.379684 10.908
303 1 -1.1104 12.2441 -3.83213 12.3477
304 1 -1.1104 12.072 1.6246 12.3081
305 1 -1.1104 12.1442 -3.81665 9.62604
306 1 -1.1104 12.3534 1.632 9.51744
307 1 -1.1104 12.0922 -1.1448 12.2568
308 2 2.2208 10.7938 -2.49693 8.21362
309 1 -1.1104 12.3308 -1.05395 9.55589
310 1 -1.1104 9.40434 -3.91097 12.3156
311 1 -1.1104 9.27795 1.63942 12.2808
312 2 2.2208 8.08084 0.361567 7.98416
314 1 -1.1104 9.35236 -3.79228 9.49155
315 1 -1.1104 9.4761 1.72489 9.44341
316 2 2.2208 8.06885 -2.4325 10.9048
318 1 -1.1104 9.31135 -1.13474 12.3967
319 1 -1.1104 9.35135 -0.889865 9.69553
317 2 2.2208 13.674 -2.56695 10.9932
313 2 2.2208 13.6767 0.250658 8.2236
21662 2 2.2208 10.7765 -5.21793 10.942
21664 2 2.2208 13.638 -5.3929 8.06714
21632 2 2.2208 16.5277 -5.31979 10.851
77 1 -1.1104 17.8659 1.83443 6.66088
81 1 -1.1104 17.7715 -1.04791 6.63496
75 1 -1.1104 17.6409 -3.90436 6.76291
101 1 -1.1104 20.5995 -3.84027 6.72853
85 1 -1.1104 14.9906 -4.01242 6.6482
93 1 -1.1104 14.9591 -1.23323 6.84136
87 1 -1.1104 15.1824 1.65637 6.65221
328 2 2.2208 16.362 0.451063 10.9169
329 1 -1.1104 17.9471 -3.81097 12.2999
330 1 -1.1104 17.7913 1.77228 12.3032
331 1 -1.1104 17.7853 -3.82823 9.46129
332 1 -1.1104 17.9375 1.77646 9.42471
333 1 -1.1104 17.7825 -0.979577 12.4442
334 2 2.2208 16.4412 -2.65007 8.19452
335 1 -1.1104 17.8191 -1.08644 9.5859
336 1 -1.1104 15.0479 -3.98045 12.3155
337 1 -1.1104 14.9272 1.8355 12.3581
338 2 2.2208 19.2743 0.324466 8.01198
339 1 -1.1104 14.9901 -3.90613 9.43417
340 1 -1.1104 15.079 1.79984 9.4044
341 2 2.2208 19.0993 -2.35988 10.8971
342 1 -1.1104 15.0382 -1.10348 12.2368
343 1 -1.1104 15.0241 -1.1211 9.58121
350 1 -1.1104 20.6094 1.84437 12.1746
354 1 -1.1104 20.6867 -0.9829 9.70072
349 1 -1.1104 20.5186 -3.79422 12.3495
353 1 -1.1104 20.7277 -1.02112 12.3703
107 1 -1.1104 20.5086 -1.07376 6.82567
351 1 -1.1104 20.4817 -3.79067 9.55239
21661 2 2.2208 19.1023 -5.25465 8.12229
844 2 2.2208 19.1576 0.316206 13.7512
352 1 -1.1104 20.7847 1.77572 9.38897
111 1 -1.1104 23.4463 -3.725 6.7974
129 1 -1.1104 26.3075 -0.884265 6.78041
117 1 -1.1104 23.3661 -1.06911 6.77211
21631 2 2.2208 24.7283 -5.25387 8.04019
271 2 2.2208 27.6414 0.335475 11.0035
123 1 -1.1104 26.2275 1.85672 6.80769
113 1 -1.1104 23.3342 1.79829 6.75058
121 1 -1.1104 26.1768 -3.8597 6.59833
281 2 2.2208 27.6505 -2.44453 8.13564
355 2 2.2208 22.1584 0.364857 10.9244
356 1 -1.1104 23.5529 -3.9953 12.0835
357 1 -1.1104 23.442 1.64956 12.3512
358 1 -1.1104 23.2787 -3.722 9.47062
359 1 -1.1104 23.4522 1.99572 9.43926
360 1 -1.1104 23.4437 -1.18885 12.2974
361 2 2.2208 21.9367 -2.37216 8.24857
362 1 -1.1104 23.4815 -0.916153 9.47601
363 1 -1.1104 26.2966 -3.86301 12.3288
364 1 -1.1104 26.1632 1.72928 12.3698
365 2 2.2208 24.804 0.555511 8.20394
366 1 -1.1104 25.9954 -3.71878 9.41097
367 1 -1.1104 26.2443 1.80018 9.6515
368 2 2.2208 24.8103 -2.34484 10.9279
369 1 -1.1104 26.2845 -1.04925 12.2042
370 1 -1.1104 26.3814 -0.990391 9.62011
21630 2 2.2208 21.8879 -5.22836 10.8495
21697 2 2.2208 27.6328 -5.27621 10.851
167 1 -1.1104 3.77945 4.46286 6.64849
145 1 -1.1104 1.03593 4.60081 6.64856
139 1 -1.1104 0.868752 7.33961 6.51186
151 1 -1.1104 6.61043 10.0324 6.61922
149 1 -1.1104 6.56962 4.49033 6.57285
169 1 -1.1104 3.65158 10.207 6.57267
161 1 -1.1104 3.89119 7.28456 6.58746
376 2 2.2208 5.15703 5.97771 10.8335
377 1 -1.1104 1.03421 7.41214 12.1772
379 1 -1.1104 1.03349 7.45572 9.27334
381 1 -1.1104 1.07182 4.6383 12.2352
382 1 -1.1104 1.01256 10.1323 12.2367
386 2 2.2208 5.15327 3.1961 7.97103
387 2 2.2208 5.2686 8.73157 8.03859
388 1 -1.1104 0.946216 4.57509 9.55467
389 1 -1.1104 0.954392 10.0673 9.40612
392 1 -1.1104 3.77475 7.36452 12.0807
393 2 2.2208 2.3986 6.12374 7.96667
394 1 -1.1104 3.81559 7.41449 9.35064
395 2 2.2208 2.48845 3.17145 10.857
396 2 2.2208 2.4392 8.77376 10.7644
397 1 -1.1104 3.84024 4.43556 12.3768
398 1 -1.1104 3.84146 10.094 12.1236
399 1 -1.1104 3.78665 4.51823 9.47241
400 1 -1.1104 3.75342 10.1478 9.34112
391 1 -1.1104 6.57788 10.1402 9.4807
384 1 -1.1104 6.61543 10.0945 12.2363
390 1 -1.1104 6.49361 4.63959 9.44588
378 1 -1.1104 6.60534 7.40896 12.3489
141 1 -1.1104 6.63178 7.20994 6.53144
383 1 -1.1104 6.64809 4.69879 12.1248
380 1 -1.1104 6.54501 7.34339 9.52805
39 2 2.2208 -0.462727 8.79407 8.08551
189 1 -1.1104 9.44944 7.3571 6.62483
178 1 -1.1104 12.1488 7.38296 6.72693
197 1 -1.1104 9.51198 4.50289 6.73891
199 1 -1.1104 9.4424 10.1384 6.5818
183 1 -1.1104 12.217 10.0668 6.68789
203 1 -1.1104 9.32418 7.33334 9.38311
230 2 2.2208 8.06532 5.99458 7.97947
231 1 -1.1104 9.47469 7.34719 12.2525
232 1 -1.1104 12.1141 10.0665 9.51294
233 1 -1.1104 12.2339 4.62616 9.34739
234 2 2.2208 10.8054 8.8252 7.99067
268 2 2.2208 10.9778 3.03092 8.03088
269 1 -1.1104 12.1113 9.98575 12.235
270 1 -1.1104 12.248 4.47854 12.1004
296 1 -1.1104 12.1418 7.32789 9.53326
297 1 -1.1104 12.153 7.24547 12.1998
299 2 2.2208 10.8258 5.90502 10.8237
323 2 2.2208 7.99981 3.19857 10.755
324 2 2.2208 7.98653 8.63835 10.8395
346 1 -1.1104 9.43915 4.5072 12.1839
348 1 -1.1104 9.30911 10.1521 12.3217
373 1 -1.1104 9.46225 4.51795 9.44234
374 1 -1.1104 9.33429 10.1143 9.40014
32 2 2.2208 13.5327 8.73379 10.8894
204 2 2.2208 13.5809 6.09221 7.93861
327 2 2.2208 13.7295 3.21009 10.7578
826 2 2.2208 7.98574 5.82491 13.5545
239 1 -1.1104 20.5203 4.49253 6.77314
227 1 -1.1104 15.0401 10.1925 6.69952
208 1 -1.1104 17.7754 7.35661 6.5574
211 1 -1.1104 17.7966 4.54428 6.58303
219 1 -1.1104 15.1008 7.31909 6.56727
236 1 -1.1104 20.5403 7.5233 6.81442
213 1 -1.1104 17.7214 10.2208 6.55755
225 1 -1.1104 15.1166 4.62716 6.68841
33 2 2.2208 16.4434 5.99664 10.8434
34 1 -1.1104 17.831 7.44295 12.3434
35 1 -1.1104 14.9555 7.53798 9.26731
36 1 -1.1104 17.7035 7.43473 9.54674
37 2 2.2208 19.265 3.2014 10.7823
38 1 -1.1104 17.9702 4.49499 12.2458
69 2 2.2208 19.2122 8.77889 10.7644
70 1 -1.1104 17.8392 10.3984 12.2018
71 1 -1.1104 15.1317 4.56826 12.2912
97 2 2.2208 16.4245 3.29119 8.03625
98 1 -1.1104 15.0072 10.1411 12.2025
133 2 2.2208 16.3737 8.88851 8.01216
134 1 -1.1104 17.7924 4.58336 9.41611
172 1 -1.1104 15.0037 4.73314 9.45723
173 1 -1.1104 17.797 10.2256 9.41901
174 1 -1.1104 14.9474 10.3045 9.49905
175 1 -1.1104 15.0534 7.33996 12.2263
202 2 2.2208 19.2193 6.06571 7.97075
347 1 -1.1104 20.6794 7.3361 12.1013
326 1 -1.1104 20.6434 10.1348 12.327
321 1 -1.1104 20.5529 7.43576 9.40577
325 1 -1.1104 20.7612 4.66176 12.1608
344 1 -1.1104 20.5448 4.56538 9.45362
241 1 -1.1104 20.4881 10.1673 6.64297
345 1 -1.1104 20.6158 10.2335 9.49206
802 2 2.2208 19.1974 5.96712 13.7012
66 2 2.2208 27.6014 6.05358 10.7243
249 1 -1.1104 23.4028 4.70068 6.78333
251 1 -1.1104 23.4281 10.267 6.61729
372 1 -1.1104 23.5225 7.38731 12.224
96 2 2.2208 22.0075 8.87982 8.21525
246 1 -1.1104 23.2654 7.55891 6.56755
265 1 -1.1104 26.2492 10.1784 6.59411
263 1 -1.1104 26.2924 4.58451 6.62424
375 1 -1.1104 26.242 10.2843 9.48022
99 1 -1.1104 23.406 4.70112 9.58412
131 1 -1.1104 23.517 10.2288 9.46217
132 1 -1.1104 26.2405 7.37887 12.2552
68 1 -1.1104 23.4287 4.65744 12.4233
135 2 2.2208 24.8511 6.11787 8.10754
72 1 -1.1104 23.536 10.1792 12.1769
95 2 2.2208 21.9381 3.30375 8.11862
322 1 -1.1104 26.0829 4.63903 9.4818
257 1 -1.1104 26.0724 7.49705 6.57944
67 1 -1.1104 23.5005 7.33369 9.55085
371 2 2.2208 22.0721 5.8694 10.9146
385 2 2.2208 27.7288 3.19133 8.13587
293 1 -1.1104 26.3108 7.40664 9.42525
294 2 2.2208 24.9267 3.25625 10.9475
295 2 2.2208 24.9177 8.71759 10.8424
298 1 -1.1104 26.2253 4.65638 12.3248
320 1 -1.1104 26.3611 10.1035 12.3343
402 2 2.2208 5.04098 0.412229 16.5272
403 1 -1.1104 0.937201 -3.68716 18.002
404 1 -1.1104 1.0972 1.74953 17.9008
407 1 -1.1104 1.0309 -3.92088 15.2006
408 1 -1.1104 0.966051 1.70413 15.0819
411 1 -1.1104 1.02335 -0.898376 17.9742
414 2 2.2208 5.25854 -2.36706 19.2387
415 1 -1.1104 0.956387 -1.06133 15.2116
417 1 -1.1104 3.63375 -3.9095 18.0103
418 1 -1.1104 3.72895 1.7648 17.917
419 2 2.2208 2.4341 0.380111 19.2854
420 1 -1.1104 3.80576 -3.82672 15.0766
421 1 -1.1104 3.8584 1.79425 15.1237
422 2 2.2208 2.29564 -2.35816 16.5955
423 1 -1.1104 3.69255 -1.06343 17.936
424 1 -1.1104 3.70661 -1.05354 15.1679
409 1 -1.1104 6.53155 -3.87952 15.1196
410 1 -1.1104 6.66017 1.72503 15.1177
416 1 -1.1104 6.66243 -1.10585 15.0735
405 1 -1.1104 6.54245 -3.7834 17.8559
412 1 -1.1104 6.54811 -1.03458 17.8297
406 1 -1.1104 6.5404 1.66675 17.9604
838 2 2.2208 5.18839 -2.4776 13.7231
22421 2 2.2208 2.32563 -5.17538 19.3987
837 2 2.2208 2.35712 0.440404 13.7875
589 1 -1.1104 3.9376 1.86222 20.704
22422 2 2.2208 5.16438 -5.20113 16.6421
22453 2 2.2208 2.38542 -5.28131 13.6973
428 2 2.2208 10.6852 0.302592 16.4752
429 1 -1.1104 12.1244 -3.93687 18.1582
430 1 -1.1104 12.192 1.8007 17.812
431 1 -1.1104 12.2497 -3.82611 15.1625
432 1 -1.1104 12.2234 1.67374 15.0765
433 1 -1.1104 12.1334 -1.05967 17.7779
434 2 2.2208 10.8332 -2.40248 19.3315
435 1 -1.1104 12.1832 -1.13671 15.0046
436 1 -1.1104 9.20831 -3.98148 17.9824
437 1 -1.1104 9.3721 1.76162 17.7827
438 2 2.2208 8.05555 0.230275 19.1904
440 1 -1.1104 9.38775 -3.8264 15.1279
441 1 -1.1104 9.4724 1.79667 15.1001
442 2 2.2208 7.9469 -2.41384 16.5215
444 1 -1.1104 9.41609 -1.25145 17.8692
445 1 -1.1104 9.3894 -1.02963 15.1015
443 2 2.2208 13.5245 -2.51926 16.4998
439 2 2.2208 13.6739 0.417913 19.3138
841 2 2.2208 10.7864 -2.48212 13.6679
842 2 2.2208 13.5503 0.345454 13.7633
840 2 2.2208 7.96531 0.268615 13.7664
22426 2 2.2208 7.89365 -5.18626 19.4411
22425 2 2.2208 10.7313 -5.25992 16.6258
624 1 -1.1104 9.48553 1.7782 20.6184
625 1 -1.1104 9.51877 -1.03275 20.7002
22424 2 2.2208 13.6636 -5.32665 19.4197
22448 2 2.2208 7.90059 -5.24167 13.7958
450 2 2.2208 16.2619 0.30923 16.5321
451 1 -1.1104 17.6485 -3.87583 18.0666
452 1 -1.1104 17.7107 1.66386 17.9999
453 1 -1.1104 17.7975 -3.98769 15.3494
454 1 -1.1104 17.7409 1.64077 15.1822
455 1 -1.1104 17.7929 -1.10628 17.9112
456 2 2.2208 16.3699 -2.39093 19.2749
457 1 -1.1104 17.6909 -1.00167 15.1654
458 1 -1.1104 14.8341 -3.80835 18.0419
459 1 -1.1104 14.954 1.9101 18.0774
460 2 2.2208 19.2646 0.234503 19.3077
461 1 -1.1104 15.1132 -3.87739 15.2596
462 1 -1.1104 14.9154 1.78902 15.2115
463 2 2.2208 19.1398 -2.59893 16.5311
464 1 -1.1104 14.9015 -0.971329 17.8007
465 1 -1.1104 14.9362 -1.07787 15.0018
469 1 -1.1104 20.5465 -4.01534 17.9568
843 2 2.2208 16.4743 -2.48294 13.7266
471 1 -1.1104 20.4483 -3.83566 15.1326
473 1 -1.1104 20.6391 -1.14588 18.0714
470 1 -1.1104 20.4632 1.65208 17.882
472 1 -1.1104 20.5897 1.63002 15.0799
22428 2 2.2208 16.2574 -5.29277 16.7031
474 1 -1.1104 20.5833 -1.01051 15.2285
671 1 -1.1104 20.4466 1.64909 20.7379
401 2 2.2208 27.5892 0.232964 16.526
413 2 2.2208 27.6245 -2.41713 19.4382
475 2 2.2208 21.9046 0.254818 16.6115
476 1 -1.1104 23.377 -3.94292 17.8721
477 1 -1.1104 23.3198 1.86339 17.9336
478 1 -1.1104 23.2213 -3.97336 14.8827
479 1 -1.1104 23.2505 1.69845 15.1036
480 1 -1.1104 23.3435 -1.13431 18.0081
481 2 2.2208 22.0527 -2.61719 19.3183
482 1 -1.1104 23.3056 -1.02741 15.1024
483 1 -1.1104 26.2475 -3.73926 17.9029
484 1 -1.1104 26.2222 1.66933 18.0086
485 2 2.2208 24.8572 0.341843 19.3601
486 1 -1.1104 26.1812 -3.87328 15.067
487 1 -1.1104 26.1726 1.61673 15.2985
488 2 2.2208 24.7364 -2.65833 16.4736
489 1 -1.1104 26.177 -1.00622 17.8068
490 1 -1.1104 26.1226 -1.22584 15.1383
839 2 2.2208 27.6455 -2.51386 13.6663
846 2 2.2208 21.9409 -2.44142 13.6445
845 2 2.2208 24.6723 0.289151 13.8814
22429 2 2.2208 21.9222 -5.32592 16.5026
22430 2 2.2208 24.7875 -5.07163 19.2788
22442 2 2.2208 24.8115 -5.25609 13.6804
492 2 2.2208 5.33749 5.86893 16.4099
493 1 -1.1104 1.0301 7.42696 17.8238
495 1 -1.1104 0.909989 7.28802 15.0887
497 1 -1.1104 0.98681 4.49744 17.8053
498 1 -1.1104 1.12382 10.1049 18.0434
502 2 2.2208 5.24836 3.17437 19.2108
503 2 2.2208 5.26407 8.66913 19.1672
504 1 -1.1104 0.910901 4.66564 15.0662
505 1 -1.1104 0.940657 10.0105 15.1316
508 1 -1.1104 3.85085 7.28436 17.8559
509 2 2.2208 2.39525 5.95173 19.1081
510 1 -1.1104 3.87635 7.26135 14.886
511 2 2.2208 2.36922 3.19818 16.503
512 2 2.2208 2.44235 8.67811 16.512
513 1 -1.1104 3.8996 4.61776 17.8672
514 1 -1.1104 3.81792 10.0199 17.7466
515 1 -1.1104 3.88338 4.54799 15.1042
516 1 -1.1104 3.63659 10.0033 14.9943
848 2 2.2208 5.29398 3.16045 13.6836
507 1 -1.1104 6.4639 10.0854 14.9117
494 1 -1.1104 6.74798 7.25727 17.7996
500 1 -1.1104 6.55485 9.98444 17.8157
496 1 -1.1104 6.70517 7.13728 15.1537
850 2 2.2208 5.14789 8.64621 13.5953
847 2 2.2208 2.38166 5.93551 13.6296
506 1 -1.1104 6.62942 4.46343 14.9683
499 1 -1.1104 6.69989 4.53165 17.7683
705 1 -1.1104 6.74386 4.57196 20.6637
704 1 -1.1104 1.01708 10.1043 20.7726
517 2 2.2208 10.8682 5.97077 16.3983
518 1 -1.1104 12.4131 7.20193 17.6369
519 1 -1.1104 12.4336 7.17615 14.937
520 1 -1.1104 12.2793 4.4456 17.8011
521 1 -1.1104 12.2608 10.1964 17.8987
522 2 2.2208 10.9042 3.21472 19.2014
523 2 2.2208 10.8467 8.77452 19.3393
524 1 -1.1104 12.1814 4.43241 14.9557
525 1 -1.1104 12.17 10.1199 15.0102
526 1 -1.1104 9.68347 7.31789 17.7651
527 2 2.2208 8.1132 5.95092 19.1538
529 1 -1.1104 9.49469 7.34676 15.0741
530 2 2.2208 8.06711 3.08171 16.411
531 2 2.2208 8.0655 8.66916 16.3499
533 1 -1.1104 9.54876 4.51714 17.6507
534 1 -1.1104 9.47161 10.0339 17.7732
535 1 -1.1104 9.36221 4.53715 14.9748
536 1 -1.1104 9.42559 10.1778 15.0311
528 2 2.2208 13.6638 6.0677 19.3133
532 2 2.2208 13.6125 3.13994 16.4772
827 2 2.2208 13.6873 5.85204 13.6234
825 2 2.2208 10.7789 8.58825 13.6262
537 2 2.2208 13.6794 8.73392 16.4273
824 2 2.2208 10.82 3.0624 13.6336
741 1 -1.1104 9.29816 10.0994 20.7036
538 2 2.2208 16.3118 5.90549 16.5237
539 1 -1.1104 17.9889 7.30395 17.889
540 1 -1.1104 17.7437 7.26022 15.0544
541 1 -1.1104 17.86 4.38448 17.7084
542 1 -1.1104 17.7971 10.132 17.7372
543 2 2.2208 16.5083 3.15675 19.3135
544 2 2.2208 16.5286 8.73402 19.1585
545 1 -1.1104 17.7874 4.43571 14.9744
546 1 -1.1104 17.8816 10.0652 14.9601
547 1 -1.1104 15.1327 7.32909 17.9172
548 2 2.2208 19.1724 5.90482 19.3088
549 1 -1.1104 15.0406 7.30589 14.9764
550 2 2.2208 19.1277 3.05725 16.5403
551 2 2.2208 19.1739 8.79104 16.5016
552 1 -1.1104 15.0714 4.57327 17.9601
553 1 -1.1104 15.0443 9.93863 17.7533
554 1 -1.1104 15.1373 4.54803 15.1325
555 1 -1.1104 15.0697 10.2372 14.8667
562 1 -1.1104 20.6075 10.0813 15.0446
561 1 -1.1104 20.5497 4.40484 15.1684
558 1 -1.1104 20.5812 7.29888 15.056
560 1 -1.1104 20.6908 10.2345 17.7001
557 1 -1.1104 20.7116 7.4245 17.8411
559 1 -1.1104 20.5479 4.5438 17.9288
804 2 2.2208 16.3965 3.07813 13.7439
803 2 2.2208 16.4325 8.76612 13.6846
619 1 -1.1104 20.5709 7.39899 20.6591
806 2 2.2208 27.7567 8.69979 13.6871
491 2 2.2208 27.5181 5.9172 16.5488
501 2 2.2208 27.6558 3.24506 19.3047
556 2 2.2208 27.6416 8.72507 19.1856
563 2 2.2208 21.9562 5.95996 16.5132
564 1 -1.1104 23.4529 7.4233 17.8502
565 1 -1.1104 23.3576 7.26377 14.9454
566 1 -1.1104 23.3176 4.61622 18.0162
567 1 -1.1104 23.5126 10.1742 17.8504
568 2 2.2208 21.8913 3.18661 19.3607
569 2 2.2208 22.0425 8.78726 19.2729
570 1 -1.1104 23.3674 4.50305 15.1627
571 1 -1.1104 23.4097 10.2665 15.0831
572 1 -1.1104 26.2615 7.38411 17.7572
573 2 2.2208 24.6855 6.03773 19.293
574 1 -1.1104 26.2239 7.36944 15.1192
575 2 2.2208 24.6858 3.20745 16.6107
576 2 2.2208 24.7396 8.81756 16.4297
577 1 -1.1104 26.1142 4.77689 18.032
578 1 -1.1104 26.147 10.2852 18.0269
579 1 -1.1104 26.2267 4.37075 15.1443
580 1 -1.1104 26.1869 10.0941 15.2211
805 2 2.2208 24.8054 5.95058 13.6644
801 2 2.2208 21.9205 3.12577 13.6694
810 2 2.2208 22.0998 8.78356 13.6425
849 2 2.2208 27.6189 3.18278 13.6878
586 1 -1.1104 0.916063 -1.01328 20.6894
583 1 -1.1104 0.953762 1.68618 20.7673
590 1 -1.1104 3.87399 -0.90869 20.7135
585 1 -1.1104 6.79173 1.72809 20.8267
588 1 -1.1104 3.76976 -3.82839 20.6893
587 1 -1.1104 6.71408 -1.02657 20.6885
582 1 -1.1104 0.991809 -3.7977 20.8363
594 2 2.2208 5.33069 0.420448 22.2161
595 1 -1.1104 1.07182 -3.88948 23.6405
596 1 -1.1104 1.00256 1.57577 23.5443
599 1 -1.1104 1.1306 -3.86442 26.406
600 1 -1.1104 0.95602 1.83342 26.3078
603 1 -1.1104 0.849522 -1.13892 23.6708
606 2 2.2208 5.18963 -2.43529 24.7722
607 1 -1.1104 1.075 -1.02539 26.3382
609 1 -1.1104 3.77778 -3.76046 23.2791
610 1 -1.1104 3.82295 1.89415 23.3753
611 2 2.2208 2.42871 0.280233 24.9372
612 1 -1.1104 3.92947 -3.99815 26.0546
613 1 -1.1104 3.81303 1.73148 26.1172
614 2 2.2208 2.33471 -2.34453 22.0865
615 1 -1.1104 3.84616 -0.901597 23.4754
616 1 -1.1104 3.77843 -1.20701 26.1864
602 1 -1.1104 6.51516 1.85346 26.3582
604 1 -1.1104 6.67797 -1.10016 23.5074
598 1 -1.1104 6.67941 1.66348 23.5492
601 1 -1.1104 6.72592 -3.81704 26.1756
584 1 -1.1104 6.4384 -3.87153 20.5957
597 1 -1.1104 6.57442 -3.92181 23.44
608 1 -1.1104 6.65231 -0.999322 26.2266
22431 2 2.2208 2.40237 -5.30281 24.8957
22433 2 2.2208 5.16271 -5.27483 22.1937
22435 2 2.2208 8.10896 -5.21253 24.9083
623 1 -1.1104 9.31859 -3.78427 20.7426
22436 2 2.2208 13.6369 -5.35897 25.0293
622 1 -1.1104 12.2806 -1.0164 20.5311
621 1 -1.1104 12.2383 1.7573 20.5431
22434 2 2.2208 10.7393 -5.22534 22.2216
620 1 -1.1104 12.1582 -3.88129 20.9235
626 2 2.2208 10.7593 0.506967 21.9536
627 1 -1.1104 12.3548 -4.03165 23.6348
628 1 -1.1104 12.1459 1.6267 23.4712
629 1 -1.1104 12.3035 -4.02948 26.4555
630 1 -1.1104 12.1447 1.733 26.3478
631 1 -1.1104 12.121 -1.14907 23.4368
632 2 2.2208 10.8606 -2.59877 24.8439
633 1 -1.1104 12.2288 -1.28022 26.2743
634 1 -1.1104 9.42416 -3.8869 23.5309
635 1 -1.1104 9.44451 1.79755 23.3939
636 2 2.2208 8.05 0.32267 24.9308
638 1 -1.1104 9.54088 -3.88152 26.3122
639 1 -1.1104 9.36879 1.77954 26.2074
640 2 2.2208 8.05871 -2.37743 22.0843
642 1 -1.1104 9.41126 -1.09098 23.5569
643 1 -1.1104 9.43374 -1.0045 26.4204
641 2 2.2208 13.6918 -2.45152 22.1193
637 2 2.2208 13.4515 0.287903 24.8962
22438 2 2.2208 19.1999 -5.24043 24.9426
651 1 -1.1104 14.9598 -1.01886 20.703
646 1 -1.1104 17.696 -3.86929 20.7363
650 1 -1.1104 14.971 1.71001 20.8043
672 1 -1.1104 20.5341 -1.20943 20.7128
648 1 -1.1104 17.762 -1.1708 20.6827
647 1 -1.1104 17.8316 1.77778 20.7818
649 1 -1.1104 14.9771 -3.84139 20.7323
652 2 2.2208 16.4301 0.40054 22.2378
653 1 -1.1104 17.7975 -3.85686 23.4881
654 1 -1.1104 17.7309 1.63379 23.6728
655 1 -1.1104 17.8325 -3.68855 26.3482
656 1 -1.1104 17.9819 1.55541 26.4393
657 1 -1.1104 17.782 -1.07939 23.4838
658 2 2.2208 16.4012 -2.38228 24.9327
659 1 -1.1104 17.9224 -1.06734 26.3075
660 1 -1.1104 15.0738 -3.94565 23.4887
661 1 -1.1104 14.8459 1.80784 23.5228
662 2 2.2208 19.3401 0.207695 24.953
663 1 -1.1104 15.0974 -3.79575 26.2378
664 1 -1.1104 15.0401 1.60332 26.3791
665 2 2.2208 19.2495 -2.63886 22.1135
666 1 -1.1104 14.9789 -1.04107 23.4684
667 1 -1.1104 15.0438 -0.959463 26.3805
683 1 -1.1104 20.6344 -1.20119 23.5481
679 1 -1.1104 20.7301 -3.87026 23.6357
680 1 -1.1104 20.6624 1.58503 23.437
670 1 -1.1104 20.5421 -3.89756 20.7616
681 1 -1.1104 20.5501 -3.78495 26.2204
684 1 -1.1104 20.8265 -1.0656 26.342
682 1 -1.1104 20.7454 1.80017 26.329
22432 2 2.2208 27.705 -5.34113 22.1774
675 1 -1.1104 23.2456 -1.05655 20.6053
678 1 -1.1104 26.2391 -0.992694 20.6911
676 1 -1.1104 26.1615 -3.85359 20.8651
605 2 2.2208 27.5878 -2.41998 24.8488
593 2 2.2208 27.6252 0.382994 22.1865
674 1 -1.1104 23.2951 1.84029 20.6293
673 1 -1.1104 23.5 -3.8133 20.6874
677 1 -1.1104 26.1411 1.75408 20.8173
685 2 2.2208 21.9727 0.255632 22.0652
686 1 -1.1104 23.5372 -3.95905 23.3678
687 1 -1.1104 23.3261 1.57201 23.5338
688 1 -1.1104 23.449 -3.87961 26.3185
689 1 -1.1104 23.5284 1.74416 26.1453
690 1 -1.1104 23.4423 -1.2487 23.5004
691 2 2.2208 22.0857 -2.62154 24.8525
692 1 -1.1104 23.5166 -1.05936 26.2973
693 1 -1.1104 26.3944 -3.8973 23.5903
694 1 -1.1104 26.208 1.8261 23.4902
695 2 2.2208 24.8487 0.289779 24.9792
696 1 -1.1104 26.2361 -3.72206 26.3015
697 1 -1.1104 26.2403 1.77782 26.2138
698 2 2.2208 24.8663 -2.42246 22.1053
699 1 -1.1104 26.2428 -1.00413 23.4973
700 1 -1.1104 26.3015 -1.07272 26.322
22440 2 2.2208 24.8934 -5.21782 24.9037
22439 2 2.2208 21.9731 -5.28718 22.105
22467 2 2.2208 27.7011 -5.26898 27.6771
703 1 -1.1104 1.05245 4.49222 20.6952
701 1 -1.1104 0.855811 7.2684 20.4768
708 1 -1.1104 3.85019 4.76253 20.6119
709 1 -1.1104 3.85336 10.1414 20.7219
707 1 -1.1104 3.92356 7.47901 20.7339
711 2 2.2208 5.11876 6.00647 21.9908
712 1 -1.1104 0.94054 7.359 23.4445
714 1 -1.1104 0.89987 7.47465 26.3706
716 1 -1.1104 0.989526 4.60133 23.5228
717 1 -1.1104 0.901443 10.1856 23.4222
721 2 2.2208 5.16392 3.19705 24.7325
722 2 2.2208 5.14842 8.74236 24.758
723 1 -1.1104 0.991746 4.64611 26.2142
724 1 -1.1104 0.84376 10.3177 26.2452