LAMMPS (29 Oct 2020)
OMP_NUM_THREADS environment is not set. Defaulting to 1 thread. (../comm.cpp:94)
  using 1 OpenMP thread(s) per MPI task
OMP_NUM_THREADS environment is not set. Defaulting to 1 thread. (../comm.cpp:94)
  using 1 OpenMP thread(s) per MPI task
Reading data file ...
  orthogonal box = (-0.4397313 -5.5684999 -0.43331867) to (27.779731 333.64850 27.773319)
  2 by 13 by 2 MPI processor grid
  reading atoms ...
  17640 atoms
  reading velocities ...
  17640 velocities
Finding 1-2 1-3 1-4 neighbors ...
  special bond factors lj:    0.0      0.0      0.0     
  special bond factors coul:  0.0      0.0      0.0     
     0 = max # of 1-2 neighbors
     0 = max # of 1-3 neighbors
     0 = max # of 1-4 neighbors
     1 = max # of special neighbors
  special bonds CPU = 0.004 seconds
  read_data CPU = 0.084 seconds
Setting atom values ...
  11760 settings made for charge
Setting atom values ...
  5880 settings made for charge
PPPM initialization ...
  using 12-bit tables for long-range coulomb (../kspace.cpp:328)
  G vector (1/distance) = 0.29845872
  grid = 40 240 40
  stencil order = 5
  estimated absolute RMS force accuracy = 0.00015917162
  estimated relative force accuracy = 1.1053857e-05
  using single precision MKL FFT
  3d grid and FFT values/proc = 15000 7600
Neighbor list info ...
  update every 1 steps, delay 0 steps, check yes
  max neighbors/atom: 2000, page size: 100000
  master list distance cutoff = 11.3
  ghost atom cutoff = 11.3
  binsize = 5.65, bins = 5 61 5
  2 neighbor lists, perpetual/occasional/extra = 2 0 0
  (1) pair coul/long, perpetual
      attributes: half, newton on
      pair build: half/bin/newton
      stencil: half/bin/3d/newton
      bin: standard
  (2) pair eam/alloy, perpetual, copy from (1)
      attributes: half, newton on
      pair build: copy
      stencil: none
      bin: none
Setting up Verlet run ...
  Unit style    : metal
  Current step  : 0
  Time step     : 0.001
Per MPI rank memory allocation (min/avg/max) = 8.143 | 8.167 | 8.181 Mbytes
Step Temp E_pair E_mol TotEng Press 
       0         1200   -228754.21            0   -226018.18   -222.41424 
   50000    1209.4105   -228787.62            0   -226030.14    -1111.512 
Loop time of 333.055 on 52 procs for 50000 steps with 17640 atoms

Performance: 12.971 ns/day, 1.850 hours/ns, 150.125 timesteps/s
99.8% CPU use with 52 MPI tasks x 1 OpenMP threads

MPI task timing breakdown:
Section |  min time  |  avg time  |  max time  |%varavg| %total
---------------------------------------------------------------
Pair    | 215.28     | 222.78     | 228.69     |  21.5 | 66.89
Bond    | 0.003302   | 0.0049599  | 0.0081886  |   1.5 |  0.00
Kspace  | 68.228     | 75.849     | 83.973     |  45.3 | 22.77
Neigh   | 20.414     | 22.335     | 24.368     |  19.6 |  6.71
Comm    | 9.0525     | 9.7655     | 10.338     |   9.8 |  2.93
Output  | 5.1805e-05 | 5.7416e-05 | 0.00026875 |   0.0 |  0.00
Modify  | 1.0328     | 1.5837     | 2.6893     |  38.8 |  0.48
Other   |            | 0.7366     |            |       |  0.22

Nlocal:        339.231 ave         365 max         304 min
Histogram: 1 0 2 8 10 8 9 4 4 6
Nghost:        3950.46 ave        4125 max        3824 min
Histogram: 3 8 2 12 12 6 3 2 1 3
Neighs:        67116.3 ave       73345 max       59023 min
Histogram: 1 0 5 5 10 9 9 4 4 5

Total # of neighbors = 3490050
Ave neighs/atom = 197.84864
Ave special neighs/atom = 0.0000000
Neighbor list builds = 10977
Dangerous builds = 0
11760 atoms in group oxygen
PPPM initialization ...
  using 12-bit tables for long-range coulomb (../kspace.cpp:328)
  G vector (1/distance) = 0.29845872
  grid = 40 240 40
  stencil order = 5
  estimated absolute RMS force accuracy = 0.00015917162
  estimated relative force accuracy = 1.1053857e-05
  using single precision MKL FFT
  3d grid and FFT values/proc = 15000 7600
Setting up Verlet run ...
  Unit style    : metal
  Current step  : 0
  Time step     : 0.001
Per MPI rank memory allocation (min/avg/max) = 8.393 | 8.417 | 8.432 Mbytes
Step f_2 Temp v_Tdiff v_deltaT 
       0            0    1209.4105            0            0 
  100000     1284.667    1206.9657  0.051351758    596.18914 
  200000    2503.8558    1206.8563  0.060807453    705.96888 
  300000    3708.5832    1209.8932  0.062560077    726.31668 
  400000    4923.3131    1205.5807  0.062385846    724.29387 
  500000    6125.4707    1208.0565  0.062823488    729.37486 
  600000    7341.6456    1213.0468  0.062310332    723.41717 
  700000    8545.7301    1206.6052  0.064110673    744.31896 
  800000     9749.757    1212.5759  0.061534638    714.41143 
  900000    10967.132    1205.4736   0.06163744    715.60495 
 1000000     12163.73    1210.0067  0.063278003    734.65173 
Loop time of 6610.55 on 52 procs for 1000000 steps with 17640 atoms

Performance: 13.070 ns/day, 1.836 hours/ns, 151.273 timesteps/s
99.8% CPU use with 52 MPI tasks x 1 OpenMP threads

MPI task timing breakdown:
Section |  min time  |  avg time  |  max time  |%varavg| %total
---------------------------------------------------------------
Pair    | 4259.7     | 4384.7     | 4493.9     |  85.8 | 66.33
Bond    | 0.064684   | 0.096378   | 0.14757    |   6.7 |  0.00
Kspace  | 1383.9     | 1504       | 1640.1     | 164.0 | 22.75
Neigh   | 448.91     | 485.99     | 514.73     |  65.9 |  7.35
Comm    | 182.35     | 200.65     | 219.42     |  57.6 |  3.04
Output  | 0.0011095  | 0.0011687  | 0.0024482  |   0.5 |  0.00
Modify  | 5.7136     | 6.1254     | 6.4488     |   7.6 |  0.09
Other   |            | 28.95      |            |       |  0.44

Nlocal:        339.231 ave         365 max         316 min
Histogram: 5 4 2 5 10 12 6 5 2 1
Nghost:        3953.37 ave        4066 max        3825 min
Histogram: 2 4 2 6 8 10 7 5 6 2
Neighs:        67103.6 ave       72735 max       60681 min
Histogram: 3 1 6 2 7 12 9 6 5 1

Total # of neighbors = 3489388
Ave neighs/atom = 197.81111
Ave special neighs/atom = 0.0000000
Neighbor list builds = 238226
Dangerous builds = 0
Total wall time: 1:55:44
