ITEM: TIMESTEP
60000
ITEM: NUMBER OF ATOMS
17640
ITEM: BOX BOUNDS pp pp pp
-3.7134004410888655e-01 2.7711340044109072e+01
-4.3389772052451470e+00 3.3241897720524639e+02
-3.6309736334890830e-01 2.7703097363349276e+01
ITEM: ATOMS id type q x y z
1 2 2.2208 5.16288 1.2066 5.0734
2 1 -1.1104 1.06155 -2.83995 0.857384
3 1 -1.1104 1.04983 2.76459 0.783386
6 1 -1.1104 1.07609 -2.96461 3.63021
7 1 -1.1104 1.13678 2.55452 3.86507
9 1 -1.1104 1.07632 -0.0627022 0.809394
11 2 2.2208 5.25918 -1.64859 2.45265
12 2 2.2208 5.22646 3.92152 2.23957
13 1 -1.1104 1.08159 -0.24269 3.60417
15 1 -1.1104 3.86776 -2.99208 0.953167
16 1 -1.1104 3.84064 2.61978 0.783155
17 2 2.2208 2.41857 1.16345 2.27528
18 1 -1.1104 3.87052 -2.95271 3.6937
19 1 -1.1104 3.65765 2.94719 3.67624
20 2 2.2208 2.41089 -1.53534 5.06399
21 2 2.2208 2.42699 4.05874 5.31784
22 1 -1.1104 3.85631 -0.183322 1.01225
23 1 -1.1104 3.85798 -0.0867183 3.67557
166 1 -1.1104 4.08723 -2.90276 6.52998
167 1 -1.1104 3.90393 2.46264 6.42288
164 1 -1.1104 1.21805 -0.133798 6.54211
160 1 -1.1104 1.25003 -2.86198 6.65143
161 1 -1.1104 1.01145 2.8407 6.62538
14 1 -1.1104 6.4479 2.40879 3.56446
50 2 2.2208 13.6002 9.74596 10.7433
162 1 -1.1104 6.876 -3.01856 6.55482
5 1 -1.1104 6.74155 2.88798 0.858627
25 2 2.2208 13.524 21.2244 10.8389
326 2 2.2208 5.39557 9.76976 13.6188
335 2 2.2208 10.9139 15.3228 13.5248
323 2 2.2208 10.9553 -1.58499 13.4992
17275 2 2.2208 -0.344761 -4.32112 5.26397
165 1 -1.1104 6.76996 -0.300035 3.83178
10 1 -1.1104 6.62362 -0.136405 1.06324
4 1 -1.1104 6.91095 -2.99609 0.802947
163 1 -1.1104 6.66529 0.155585 6.60235
29 2 2.2208 -0.342074 3.9822 2.36582
8 1 -1.1104 6.69809 -2.93093 3.56764
31 2 2.2208 10.9556 1.23817 5.2035
32 1 -1.1104 12.5949 -3.03129 0.825238
33 1 -1.1104 12.5079 2.68663 0.811766
34 1 -1.1104 12.4434 -3.07028 3.67642
35 1 -1.1104 12.3745 2.62702 3.8154
36 1 -1.1104 12.4615 -0.172195 0.682258
37 2 2.2208 11.0509 -1.49178 2.30999
38 2 2.2208 10.9584 3.99335 2.3152
39 1 -1.1104 12.4716 -0.207137 3.73068
40 1 -1.1104 9.67181 -2.8544 0.961845
41 1 -1.1104 9.65974 2.73519 0.73549
42 2 2.2208 8.12514 1.14793 2.42415
43 1 -1.1104 9.63555 -2.9406 3.65003
44 1 -1.1104 9.64882 2.34433 3.60076
45 2 2.2208 8.2328 -1.53488 5.06438
46 1 -1.1104 9.5041 -0.076468 0.931029
47 1 -1.1104 9.82393 -0.314529 3.79405
205 1 -1.1104 9.32 -0.208946 6.65986
200 1 -1.1104 12.3488 2.61358 6.5113
199 1 -1.1104 12.2429 -2.88908 6.74892
201 1 -1.1104 12.2311 -0.151362 6.40717
334 2 2.2208 10.721 20.7836 13.5261
24 2 2.2208 13.5546 18.05 7.86381
8941 2 2.2208 -0.217264 1.26596 10.8698
322 2 2.2208 8.22699 1.44405 13.5129
159 2 2.2208 13.5066 18.4408 2.29943
52 2 2.2208 5.22231 12.5723 5.19658
53 1 -1.1104 0.944794 8.35434 0.981175
55 1 -1.1104 1.36188 8.21041 3.73305
57 1 -1.1104 0.913835 5.52776 0.776855
58 1 -1.1104 0.947773 11.1874 1.08669
63 2 2.2208 5.22574 9.78154 2.27299
64 1 -1.1104 1.32391 5.3429 3.68404
65 1 -1.1104 0.907494 11.0125 3.91319
67 1 -1.1104 3.96483 8.11787 1.31028
68 2 2.2208 2.21264 6.81816 2.19894
69 2 2.2208 2.35462 12.4368 2.39796
70 2 2.2208 2.26668 9.73724 5.29553
71 1 -1.1104 3.69708 5.2796 1.37422
72 1 -1.1104 3.59615 11.0536 0.701273
74 1 -1.1104 3.60035 10.6591 3.58571
230 1 -1.1104 0.899488 5.594 6.54206
60 1 -1.1104 6.44215 5.65319 1.51982
54 1 -1.1104 6.55445 8.47194 0.802342
313 2 2.2208 -0.521864 20.8618 13.4637
306 1 -1.1104 9.55185 13.9593 9.45737
130 1 -1.1104 12.3278 16.7734 12.2432
66 1 -1.1104 6.55538 11.1621 3.64651
56 1 -1.1104 6.64127 8.37966 3.44414
61 1 -1.1104 6.58414 11.2053 0.878063
78 2 2.2208 10.7499 6.78829 5.11236
79 2 2.2208 10.856 12.4814 5.17212
80 1 -1.1104 12.1646 8.30395 0.89329
81 1 -1.1104 12.2288 8.24296 3.7288
82 1 -1.1104 12.4031 5.58446 0.98211
83 1 -1.1104 12.2147 11.1685 0.797018
85 2 2.2208 10.8377 9.59902 2.37979
86 1 -1.1104 12.3059 5.47464 3.86637
87 1 -1.1104 12.1023 11.0388 3.62536
88 1 -1.1104 9.50673 8.25451 0.846787
89 2 2.2208 8.16798 6.96042 2.24185
90 2 2.2208 8.08601 12.6005 2.29854
91 1 -1.1104 9.41243 8.39489 3.7226
92 2 2.2208 8.02108 9.61925 5.13035
93 1 -1.1104 9.45142 5.52162 0.805626
94 1 -1.1104 9.35755 11.14 0.93267
96 1 -1.1104 9.60834 5.53543 3.38071
97 1 -1.1104 9.27978 11.2202 3.73826
259 1 -1.1104 12.2357 8.30755 6.51322
260 1 -1.1104 12.4597 5.45812 6.58666
95 1 -1.1104 9.32852 11.1952 6.39578
336 2 2.2208 8.03272 18.0478 13.6309
8281 2 2.2208 2.64994 -4.36505 8.02292
325 2 2.2208 2.45274 6.86429 13.5962
100 2 2.2208 5.18963 18.2541 5.05749
101 1 -1.1104 0.890663 14.0486 1.03997
103 1 -1.1104 1.12651 19.7769 0.961185
107 1 -1.1104 0.83344 13.9193 3.64796
108 1 -1.1104 0.970243 19.4607 3.61729
110 1 -1.1104 0.994343 16.828 1.01507
113 2 2.2208 5.10866 15.2896 2.36283
114 2 2.2208 5.14141 21.1268 2.38969
115 1 -1.1104 0.976822 16.7612 3.70186
117 1 -1.1104 3.83497 13.9168 0.97997
119 1 -1.1104 3.81989 19.6176 0.942819
121 2 2.2208 2.50354 18.2454 2.33604
122 1 -1.1104 3.69068 13.7513 3.86758
123 1 -1.1104 3.79825 19.6977 3.75195
124 2 2.2208 2.30432 15.2941 5.19194
125 2 2.2208 2.3559 21.073 5.19478
126 1 -1.1104 3.7381 16.7576 0.9783
128 1 -1.1104 3.8728 16.8038 3.77836
120 1 -1.1104 3.91683 19.6695 6.61238
127 1 -1.1104 3.78816 16.9149 6.58874
118 1 -1.1104 3.83568 14.0078 6.54141
296 1 -1.1104 1.16433 19.5075 6.47334
111 1 -1.1104 1.0431 16.7079 6.78945
343 2 2.2208 -0.407412 20.9058 2.27626
133 1 -1.1104 6.61918 19.4434 3.77256
134 1 -1.1104 6.58052 16.7524 1.03823
116 1 -1.1104 6.51632 16.6634 3.78588
104 1 -1.1104 6.50973 14.0408 0.92585
109 1 -1.1104 6.53243 13.8594 3.7721
132 1 -1.1104 6.65155 19.6411 1.03221
135 2 2.2208 10.727 18.2779 5.15656
136 1 -1.1104 12.191 14.1063 0.938205
138 1 -1.1104 12.1311 19.7011 0.829592
140 1 -1.1104 12.1426 13.8407 3.7328
141 1 -1.1104 11.9947 19.7774 3.61847
142 1 -1.1104 12.2597 16.9244 0.930937
144 2 2.2208 10.9242 15.3874 2.32245
145 2 2.2208 10.7176 21.107 2.0849
146 1 -1.1104 12.3683 16.9037 3.72128
147 1 -1.1104 9.40025 14.0205 0.823086
149 1 -1.1104 9.50198 19.6249 1.02617
151 2 2.2208 8.02226 18.1565 2.31987
152 1 -1.1104 9.41848 14.2237 3.76528
153 1 -1.1104 9.38342 19.7434 3.78133
154 2 2.2208 7.95168 15.4623 5.14996
155 2 2.2208 8.11409 20.9824 5.20219
156 1 -1.1104 9.4576 16.7898 0.781929
158 1 -1.1104 9.5299 17.0014 3.75226
148 1 -1.1104 9.3284 14.0543 6.54411
143 1 -1.1104 12.1205 16.7421 6.53957
157 1 -1.1104 9.35878 16.8635 6.5924
139 1 -1.1104 12.4102 19.5744 6.44749
105 1 -1.1104 6.5549 13.9972 6.61392
112 1 -1.1104 6.53941 16.8697 6.65557
204 2 2.2208 13.4782 15.2494 5.20162
106 1 -1.1104 6.57707 19.5838 6.5726
150 1 -1.1104 9.60635 19.7134 6.66161
129 1 -1.1104 12.681 19.4644 9.39842
168 1 -1.1104 3.87297 -0.258987 6.4523
8875 2 2.2208 -0.226326 12.486 10.7877
315 2 2.2208 2.54949 1.40951 13.5482
27 2 2.2208 -0.354602 -1.49055 2.23741
170 2 2.2208 5.31914 1.2833 10.8373
171 1 -1.1104 1.28602 -2.82216 12.1049
172 1 -1.1104 1.02896 2.85068 12.2178
175 1 -1.1104 1.22326 -2.98161 9.31588
176 1 -1.1104 0.974171 2.68962 9.28303
179 1 -1.1104 1.13815 0.056203 12.2687
181 2 2.2208 5.5922 -1.38769 7.87061
183 1 -1.1104 1.26088 -0.00667552 9.52335
185 1 -1.1104 3.97669 -2.76167 12.1325
186 1 -1.1104 3.93568 2.84062 12.259
187 2 2.2208 2.47431 1.32744 8.04706
188 1 -1.1104 4.06111 -2.73023 9.30257
189 1 -1.1104 3.74621 2.78562 9.54438
190 2 2.2208 2.4869 -1.50762 10.7704
192 1 -1.1104 3.83441 -0.0558776 12.2394
193 1 -1.1104 4.10759 0.0919484 9.29575
191 2 2.2208 2.32305 4.17729 10.8883
8950 2 2.2208 -0.333355 4.1688 7.91924
8279 2 2.2208 8.19026 -4.32374 2.33313
311 2 2.2208 8.05881 15.3298 10.8402
8282 2 2.2208 5.41813 -4.28096 10.6615
195 1 -1.1104 9.38429 13.9702 12.2335
8944 2 2.2208 -0.278042 -1.48733 7.9103
8284 2 2.2208 8.30304 -4.30911 7.96553
8807 2 2.2208 -0.376599 15.2455 8.00452
290 1 -1.1104 6.55218 19.5562 12.4268
202 1 -1.1104 9.60218 -2.89917 6.51256
8943 2 2.2208 -0.301774 1.22461 5.11357
180 1 -1.1104 6.78456 0.0360208 12.2834
178 1 -1.1104 6.60799 2.67449 9.05058
173 1 -1.1104 6.75174 -2.88187 12.1646
177 1 -1.1104 6.95586 -2.91108 9.2845
203 1 -1.1104 9.54864 2.47466 6.66338
184 1 -1.1104 6.8533 -0.0364302 9.47135
174 1 -1.1104 6.73889 2.76593 12.1524
206 2 2.2208 11.0157 1.31442 10.8453
207 1 -1.1104 12.5141 -2.90737 12.2774
208 1 -1.1104 12.3617 2.62152 12.2961
209 1 -1.1104 12.4627 -2.98403 9.41246
210 1 -1.1104 12.2354 2.67799 9.43878
211 1 -1.1104 12.1727 -0.248454 12.0711
212 2 2.2208 10.8702 -1.44999 8.05575
213 2 2.2208 10.8958 4.02201 7.77985
214 1 -1.1104 12.2854 -0.0912423 9.33121
215 1 -1.1104 9.61225 -3.02446 12.1068
216 1 -1.1104 9.60326 2.78071 12.1337
217 2 2.2208 8.0741 1.31256 8.01494
218 1 -1.1104 9.69214 -2.90758 9.36979
219 1 -1.1104 9.39326 2.82734 9.43358
220 2 2.2208 8.15863 -1.52634 10.7922
222 1 -1.1104 9.57053 -0.211675 12.0939
223 1 -1.1104 9.58742 0.0868162 9.36329
221 2 2.2208 8.15795 4.13632 10.8083
8964 2 2.2208 13.6501 12.5196 13.5511
282 1 -1.1104 6.75551 19.5828 9.52435
30 1 -1.1104 12.2135 13.8355 12.2242
228 1 -1.1104 0.744756 8.43081 6.47493
73 1 -1.1104 3.79259 11.2263 6.4531
226 2 2.2208 13.5865 21.0068 4.90876
62 1 -1.1104 6.57944 11.2433 6.51915
182 2 2.2208 5.09639 4.17656 8.00804
327 2 2.2208 2.57824 12.6516 13.513
28 2 2.2208 10.907 18.1238 10.7639
233 1 -1.1104 3.54236 5.34282 6.59874
59 1 -1.1104 0.900989 11.2232 6.65483
232 1 -1.1104 3.54963 8.41765 6.58423
308 1 -1.1104 9.39859 16.6714 9.44113
26 2 2.2208 -0.352113 6.93356 10.7834
234 2 2.2208 5.2258 6.9147 10.876
235 2 2.2208 5.41684 12.5551 10.754
236 1 -1.1104 1.02875 8.33358 12.0892
238 1 -1.1104 1.11422 8.50806 9.25111
240 1 -1.1104 1.15331 5.55585 12.1618
241 1 -1.1104 1.14272 11.2242 12.2601
244 2 2.2208 5.27549 9.60192 7.77283
245 1 -1.1104 0.946229 5.51341 9.2285
246 1 -1.1104 0.973929 11.321 9.39179
249 1 -1.1104 3.72459 8.34507 12.1722
250 2 2.2208 2.39255 6.96161 7.86015
251 2 2.2208 2.41819 12.5086 7.94776
252 1 -1.1104 3.83793 8.38572 9.33926
253 2 2.2208 2.45755 9.89437 10.7917
254 1 -1.1104 3.82662 5.56099 12.2771
255 1 -1.1104 3.98335 11.2407 12.2588
256 1 -1.1104 3.72209 5.50483 9.33796
257 1 -1.1104 3.78738 11.1601 9.35969
261 1 -1.1104 9.412 8.30036 6.53682
84 1 -1.1104 12.2704 11.1644 6.61718
263 1 -1.1104 9.56064 5.6877 6.70682
248 1 -1.1104 6.68433 11.0157 9.38967
239 1 -1.1104 6.55557 8.2243 9.30612
229 1 -1.1104 6.62303 8.37237 6.44893
231 1 -1.1104 6.56398 4.91062 6.57701
242 1 -1.1104 6.69153 5.45873 12.1818
247 1 -1.1104 6.47525 5.44081 9.54027
243 1 -1.1104 6.77611 11.1583 12.0801
237 1 -1.1104 6.76368 8.27392 12.1953
258 1 -1.1104 9.41699 11.286 9.30597
262 1 -1.1104 9.16924 5.63187 9.44294
264 1 -1.1104 9.39018 11.1022 12.3444
265 1 -1.1104 9.66807 5.5607 12.3104
266 2 2.2208 8.09158 9.58798 10.683
267 1 -1.1104 9.54443 8.46574 9.17164
268 2 2.2208 7.99521 12.4774 7.89866
269 2 2.2208 7.82099 6.66017 7.83949
270 2 2.2208 10.8968 6.88476 10.6498
271 2 2.2208 10.7776 12.4806 10.8282
272 1 -1.1104 12.4052 8.23955 12.1255
273 1 -1.1104 12.3753 8.43884 9.2956
274 1 -1.1104 12.3596 5.44172 12.1464
275 1 -1.1104 12.2182 10.9922 12.1859
276 2 2.2208 10.7524 9.80416 7.75773
277 1 -1.1104 12.1675 5.40028 9.34213
278 1 -1.1104 12.2925 11.062 9.37997
279 1 -1.1104 9.59979 8.47532 12.0825
328 2 2.2208 8.10368 12.5343 13.6668
329 2 2.2208 10.8159 9.69463 13.4975
669 2 2.2208 7.9743 6.786 13.5817
102 1 -1.1104 1.06059 13.835 6.51232
300 1 -1.1104 6.64847 16.7861 12.1462
307 1 -1.1104 9.5201 19.5215 9.23154
331 2 2.2208 2.55894 18.2608 13.6833
332 2 2.2208 5.16911 21.1255 13.5445
169 2 2.2208 10.8984 20.895 8.01672
280 1 -1.1104 3.87278 19.5665 12.3021
281 1 -1.1104 3.9933 14.0106 12.3581
285 1 -1.1104 1.07039 19.6058 9.26196
286 1 -1.1104 1.05504 16.8565 9.38347
287 2 2.2208 5.25907 20.9346 7.96567
288 1 -1.1104 1.15524 14.0104 9.30212
289 2 2.2208 5.24514 15.2786 7.95215
292 1 -1.1104 0.981019 19.6592 12.1456
293 1 -1.1104 1.16955 14.0714 12.168
294 2 2.2208 5.24422 18.1727 10.8463
295 1 -1.1104 3.7649 19.3648 9.43664
297 2 2.2208 2.5336 18.1953 8.01064
298 1 -1.1104 3.88402 16.798 9.39329
299 1 -1.1104 3.98351 13.8785 9.41534
301 1 -1.1104 1.12154 16.8279 12.2414
302 1 -1.1104 3.81684 16.7418 12.3062
303 2 2.2208 2.49582 20.8836 10.7878
304 2 2.2208 2.49942 15.4102 10.7573
283 1 -1.1104 6.56568 16.6305 9.30332
284 1 -1.1104 6.7618 13.9285 9.34992
196 1 -1.1104 9.31656 19.5663 12.0545
310 2 2.2208 7.96243 20.9912 10.8315
51 2 2.2208 13.6852 12.5615 7.94465
9321 2 2.2208 -0.254341 15.3563 13.5979
137 1 -1.1104 12.2842 13.9396 6.59595
194 1 -1.1104 12.0953 16.7428 9.37202
291 1 -1.1104 6.68918 13.98 12.2813
309 1 -1.1104 9.45833 16.816 12.1677
76 1 -1.1104 12.2237 19.5692 12.1994
131 2 2.2208 10.6547 15.3304 8.00287
305 2 2.2208 7.90202 18.1653 8.05824
77 1 -1.1104 12.2058 13.9077 9.39473
75 2 2.2208 -0.331358 6.92364 5.10587
8848 2 2.2208 -0.296736 18.2516 10.683
99 2 2.2208 13.6662 7.00801 2.41156
98 2 2.2208 13.5304 12.5783 2.2086
318 2 2.2208 8.1481 -4.41784 13.5222
342 2 2.2208 5.34364 6.81834 -0.34524
572 2 2.2208 2.44389 3.98543 -0.598682
345 2 2.2208 5.15226 1.39498 16.3432
346 1 -1.1104 1.0773 -2.87685 17.5165
347 1 -1.1104 1.24879 2.58151 17.7559
350 1 -1.1104 1.08588 -3.08237 14.9668
352 1 -1.1104 1.0956 2.63247 14.9336
358 1 -1.1104 1.14676 -0.28983 17.9051
360 2 2.2208 5.27214 -1.53511 19.2512
361 2 2.2208 5.2322 4.17383 19.2963
362 1 -1.1104 1.23869 -0.219676 15.0504
366 1 -1.1104 3.82677 -3.12687 17.8447
367 1 -1.1104 3.91637 2.63404 18.0116
368 2 2.2208 2.56606 1.25828 19.2852
369 1 -1.1104 4.02567 -2.9443 14.9552
371 1 -1.1104 3.79978 2.93866 14.9944
373 2 2.2208 2.58127 -1.62559 16.3356
374 2 2.2208 2.52285 4.16182 16.5103
375 1 -1.1104 3.92555 -0.350163 17.6607
376 1 -1.1104 3.91735 0.0318819 14.9209
377 1 -1.1104 3.76548 -0.136056 20.6631
370 1 -1.1104 4.02537 -2.93031 20.55
372 1 -1.1104 3.9912 2.7408 20.7183
359 1 -1.1104 6.57316 0.0161325 17.8913
348 1 -1.1104 6.709 -2.86494 17.6779
357 1 -1.1104 6.55384 2.70451 20.4542
667 2 2.2208 -0.339932 4.06013 19.2139
381 2 2.2208 -0.15054 1.2115 16.378
312 2 2.2208 13.5605 15.4154 27.5763
9317 2 2.2208 13.5402 9.68287 27.4616
379 2 2.2208 5.25978 -4.27722 16.3703
9002 2 2.2208 -0.34804 -1.59735 19.1072
364 1 -1.1104 6.647 -0.117074 14.9953
356 1 -1.1104 6.64885 2.78156 14.9724
349 1 -1.1104 6.52736 2.8533 17.6748
354 1 -1.1104 6.8803 -2.80163 14.8767
388 2 2.2208 10.9453 1.18534 16.585
389 1 -1.1104 12.2054 -2.96984 17.8364
390 1 -1.1104 12.2568 2.64979 17.8496
391 1 -1.1104 12.4463 -3.00437 15.0347
393 1 -1.1104 12.3769 2.49381 15.0598
395 1 -1.1104 12.3774 -0.181397 17.884
396 2 2.2208 10.9244 -1.51943 19.1654
397 2 2.2208 10.804 4.16949 19.2097
398 1 -1.1104 12.324 -0.211416 14.9185
400 1 -1.1104 9.44253 -2.77734 17.931
401 1 -1.1104 9.42089 2.73035 17.9066
402 2 2.2208 7.9425 1.25308 19.2727
403 1 -1.1104 9.50664 -2.96302 14.863
405 1 -1.1104 9.51497 2.69767 14.9624
407 2 2.2208 8.05813 -1.34693 16.3687
409 1 -1.1104 9.46674 0.00781976 17.9196
410 1 -1.1104 9.542 -0.133681 15.1049
408 2 2.2208 8.08272 4.09863 16.4546
365 1 -1.1104 6.73228 -0.160619 20.7622
406 1 -1.1104 9.29342 2.69321 20.5094
404 1 -1.1104 9.40942 -2.95509 20.6529
392 1 -1.1104 12.3809 -3.1306 20.6225
414 2 2.2208 8.00126 -4.20046 19.0632
355 1 -1.1104 6.66313 -2.86449 20.541
413 2 2.2208 10.8636 -4.3538 16.4268
9043 2 2.2208 13.6479 18.1335 24.8714
337 2 2.2208 -0.296811 9.62206 13.5951
576 2 2.2208 -0.276353 6.93142 16.3506
9080 2 2.2208 -0.29866 12.5165 16.4317
421 2 2.2208 5.30849 6.87992 16.4088
422 2 2.2208 5.39012 12.5956 16.4733
423 1 -1.1104 1.09034 8.45451 17.7
425 1 -1.1104 1.08397 8.28037 14.8088
429 1 -1.1104 1.15335 5.54034 17.8175
430 1 -1.1104 1.15015 11.1449 17.9522
433 2 2.2208 5.21604 9.6908 19.2113
434 1 -1.1104 1.07401 5.44188 15.0775
436 1 -1.1104 1.14396 11.0662 15.1422
442 1 -1.1104 3.90595 8.30792 17.8841
443 2 2.2208 2.47855 6.89235 19.3215
444 2 2.2208 2.39624 12.4387 19.2891
445 1 -1.1104 3.78811 8.32293 14.8581
447 2 2.2208 2.60903 9.77401 16.4442
448 1 -1.1104 3.92757 5.60704 17.9915
449 1 -1.1104 3.90071 11.0611 17.8663
450 1 -1.1104 3.81409 5.5554 15.1687
452 1 -1.1104 3.97935 11.1488 14.9626
453 1 -1.1104 3.77743 11.1066 20.5066
435 1 -1.1104 0.993407 5.41397 20.5844
9114 2 2.2208 -0.432329 9.67422 19.2863
426 1 -1.1104 1.0514 8.27509 20.4199
446 1 -1.1104 3.7579 8.27942 20.6856
431 1 -1.1104 6.6759 5.59847 17.9043
432 1 -1.1104 6.65875 10.9988 17.6779
382 2 2.2208 13.4953 20.9972 21.9165
441 1 -1.1104 6.61444 11.0248 20.436
438 1 -1.1104 6.65895 5.54725 15.0509
424 1 -1.1104 6.55564 8.22236 17.8124
440 1 -1.1104 6.6656 11.1969 14.8646
427 1 -1.1104 6.6439 8.37641 14.9542
457 2 2.2208 10.8469 6.92799 16.3359
458 2 2.2208 10.874 12.5511 16.419
459 1 -1.1104 12.3208 8.34651 18.0181
460 1 -1.1104 12.2718 8.35807 15.1441
462 1 -1.1104 12.2832 5.41959 17.692
463 1 -1.1104 12.3381 11.3487 17.7264
464 2 2.2208 10.8052 9.80625 19.0697
465 1 -1.1104 12.3952 5.46223 15.0161
467 1 -1.1104 12.3711 11.3612 14.9955
469 1 -1.1104 9.50413 8.37663 17.6669
470 2 2.2208 8.03389 6.90252 19.229
471 2 2.2208 8.18975 12.5051 19.3132
472 1 -1.1104 9.44566 8.21493 14.7696
474 2 2.2208 8.06074 9.78539 16.2784
475 1 -1.1104 9.64288 5.52365 17.799
476 1 -1.1104 9.38655 11.1754 17.8088
477 1 -1.1104 9.50527 5.48482 15.0502
479 1 -1.1104 9.45085 10.9367 14.9935
466 1 -1.1104 12.3465 5.61474 20.4013
468 1 -1.1104 12.2982 11.2115 20.4932
480 1 -1.1104 9.39471 11.2172 20.6519
478 1 -1.1104 9.55841 5.57812 20.6586
461 1 -1.1104 12.2735 8.42305 20.5817
609 1 -1.1104 12.1817 16.7691 26.1738
484 2 2.2208 5.01955 17.926 16.5189
485 1 -1.1104 1.06229 13.7913 17.7796
486 1 -1.1104 0.933239 19.4564 17.6382
489 1 -1.1104 1.14894 13.8801 15.0547
491 1 -1.1104 1.09484 19.5349 14.977
496 1 -1.1104 1.00987 16.6272 18.0445
498 2 2.2208 5.21926 15.2318 19.2997
499 2 2.2208 5.14847 20.8175 19.1934
500 1 -1.1104 1.13626 16.7077 15.194
504 1 -1.1104 4.00165 14.0078 17.8286
505 1 -1.1104 3.70282 19.5417 17.8648
506 2 2.2208 2.36277 18.177 19.2667
507 1 -1.1104 3.98922 13.9339 15.2064
509 1 -1.1104 4.36658 19.3959 14.917
511 2 2.2208 2.42591 15.208 16.4686
512 2 2.2208 2.341 21.0284 16.3894
513 1 -1.1104 3.63979 16.6329 18.0072
514 1 -1.1104 3.76625 16.6205 15.0942
488 1 -1.1104 6.56617 19.2918 17.956
490 1 -1.1104 1.05145 13.8536 20.5634
508 1 -1.1104 3.76796 13.7758 20.6975
501 1 -1.1104 1.09145 16.8559 20.6778
9044 2 2.2208 13.6895 15.3205 21.8857
492 1 -1.1104 0.954489 19.5822 20.514
510 1 -1.1104 3.74521 19.3571 20.6976
487 1 -1.1104 6.73849 13.7544 17.9357
497 1 -1.1104 6.43782 16.5196 17.6307
502 1 -1.1104 6.60892 16.9004 14.988
493 1 -1.1104 6.58965 13.9965 15.0124
519 2 2.2208 10.8899 18.362 16.2935
520 1 -1.1104 12.1603 14.2225 17.701
521 1 -1.1104 12.3646 19.6579 17.7022
522 1 -1.1104 12.4184 14.0465 14.9521
524 1 -1.1104 12.1296 19.9671 14.9507
526 1 -1.1104 12.2369 16.8861 17.6084
527 2 2.2208 10.7962 15.3731 19.1067
528 2 2.2208 10.7307 21.0506 19.0194
529 1 -1.1104 12.1397 16.8173 14.8574
531 1 -1.1104 9.54819 13.8869 17.7105
532 1 -1.1104 9.71402 19.2558 17.8928
533 2 2.2208 8.06147 18.1942 19.1608
534 1 -1.1104 9.5136 13.8476 15.0725
536 1 -1.1104 9.28921 19.504 14.8034
538 2 2.2208 8.02613 15.4295 16.4284
539 1 -1.1104 9.32326 16.6881 17.8913
540 1 -1.1104 9.41871 16.6702 14.9243
523 1 -1.1104 12.3286 14.0746 20.5555
525 1 -1.1104 12.1224 19.6767 20.5226
537 1 -1.1104 9.38873 19.7657 20.5842
530 1 -1.1104 12.3821 16.7863 20.5157
541 1 -1.1104 9.50413 16.8596 20.5916
503 1 -1.1104 6.62452 16.6782 20.2682
535 1 -1.1104 9.47266 14.0146 20.4371
353 1 -1.1104 1.19685 2.72344 20.5215
351 1 -1.1104 1.1389 -2.99802 20.5379
9265 2 2.2208 13.5111 9.74734 21.9402
636 2 2.2208 2.22593 9.76701 27.5119
383 2 2.2208 7.85864 15.2151 27.4475
363 1 -1.1104 1.11338 -0.0131724 20.7659
546 2 2.2208 5.25635 1.23635 22.0875
547 1 -1.1104 0.919369 -2.89845 23.373
548 1 -1.1104 1.15406 2.77624 23.322
551 1 -1.1104 1.13454 -2.8604 26.1189
552 1 -1.1104 1.12901 2.81469 26.0128
555 1 -1.1104 1.32432 -0.165902 23.3337
557 2 2.2208 5.2263 -1.70957 24.7771
559 1 -1.1104 1.07607 0.10158 26.066
561 1 -1.1104 3.74125 -3.08714 23.4305
562 1 -1.1104 3.84446 2.67916 23.3925
563 2 2.2208 2.41933 1.27793 24.6506
564 1 -1.1104 3.77598 -3.01064 26.1098
565 1 -1.1104 3.78715 2.67612 26.1924
566 2 2.2208 2.4237 -1.73409 22.0005
567 2 2.2208 2.54355 4.16819 22.0704
568 1 -1.1104 3.89628 -0.183454 23.4564
569 1 -1.1104 3.98188 -0.300243 26.2112
558 2 2.2208 5.2528 3.96353 24.8208
554 1 -1.1104 6.62754 2.47134 26.1228
560 1 -1.1104 6.61417 -0.278749 26.2631
579 2 2.2208 -0.269432 -1.54748 24.8686
314 2 2.2208 5.32352 -1.41691 13.5528
570 2 2.2208 5.19692 1.08327 27.5219
8998 2 2.2208 -0.279837 1.36329 27.471
9071 2 2.2208 -0.2483 4.1901 24.6665
571 2 2.2208 2.47491 -1.60848 27.5672
394 1 -1.1104 12.3526 2.64201 20.7417
399 1 -1.1104 12.1685 -0.328941 20.6668
553 1 -1.1104 6.58005 -3.00992 26.2243
411 1 -1.1104 9.51066 -0.126066 20.397
605 2 2.2208 10.758 -4.25761 22.1548
549 1 -1.1104 6.70379 -3.05096 23.495
550 1 -1.1104 6.57263 2.70551 23.252
556 1 -1.1104 6.58483 -0.228745 23.4356
582 2 2.2208 10.9125 1.28392 21.9652
583 1 -1.1104 12.2624 -3.04657 23.3601
584 1 -1.1104 12.2863 2.64955 23.4361
585 1 -1.1104 12.1708 -2.96611 26.2495
586 1 -1.1104 12.1433 2.56911 26.0875
587 1 -1.1104 12.1751 -0.163095 23.3976
588 2 2.2208 10.9523 -1.57162 24.8812
590 1 -1.1104 12.5093 -0.309392 26.1176
591 1 -1.1104 9.43381 -2.84348 23.4443
592 1 -1.1104 9.47476 2.58216 23.4004
593 2 2.2208 8.10013 1.19861 24.7033
594 1 -1.1104 9.30557 -2.91045 26.1904
595 1 -1.1104 9.42711 2.51097 26.0798
596 2 2.2208 8.03394 -1.57301 22.0266
598 1 -1.1104 9.36217 -0.172795 23.2977
599 1 -1.1104 9.54719 -0.169596 26.268
589 2 2.2208 10.9103 4.0266 24.768
597 2 2.2208 8.00046 4.12036 21.9876
663 2 2.2208 13.7209 12.4263 24.8033
378 2 2.2208 13.7639 4.0398 16.4436
602 2 2.2208 8.20867 3.8772 27.5127
437 1 -1.1104 0.916982 10.987 20.7025
451 1 -1.1104 3.85792 5.59094 20.7004
611 2 2.2208 5.27747 6.88098 22.0586
612 2 2.2208 5.10973 12.5132 21.9917
613 1 -1.1104 1.13646 8.36008 23.4204
615 1 -1.1104 1.00037 8.25631 26.2029
617 1 -1.1104 1.1058 5.61131 23.3997
618 1 -1.1104 0.870147 11.1243 23.3516
621 2 2.2208 5.16953 9.71326 24.7774
622 1 -1.1104 1.14716 5.49242 26.1496
623 1 -1.1104 1.03642 11.1014 26.1535
626 1 -1.1104 3.86152 8.31457 23.4862
627 2 2.2208 2.4037 6.95266 24.9308
628 2 2.2208 2.32478 12.4259 24.764
629 1 -1.1104 3.8174 8.27727 26.4427
630 2 2.2208 2.39155 9.79262 21.9114
631 1 -1.1104 3.80443 5.50391 23.5369
632 1 -1.1104 3.82105 11.0582 23.3288
633 1 -1.1104 3.95218 5.55644 26.4003
634 1 -1.1104 3.88164 11.07 26.0611
439 1 -1.1104 6.58853 5.55149 20.6313
614 1 -1.1104 6.73888 8.44928 23.419
619 1 -1.1104 6.54425 5.57714 23.5324
9039 2 2.2208 13.6695 6.93335 24.8804
637 2 2.2208 5.1287 12.4125 27.6106
428 1 -1.1104 6.59075 8.31042 20.6239
473 1 -1.1104 9.42877 8.39876 20.4363
661 2 2.2208 7.99854 9.68303 27.5477
620 1 -1.1104 6.51071 11.2203 23.3099
624 1 -1.1104 6.66693 5.17197 26.4581
616 1 -1.1104 6.61673 7.98248 26.2976
625 1 -1.1104 6.65707 11.0334 26.0172
642 1 -1.1104 9.41532 11.1507 26.275
643 1 -1.1104 9.52699 5.36705 26.1993
644 1 -1.1104 9.42505 11.1417 23.4512
645 1 -1.1104 9.35571 5.35317 23.4319
646 2 2.2208 7.98848 9.78507 21.9795
647 1 -1.1104 9.40709 8.36242 26.0381
648 2 2.2208 7.9344 12.4672 24.8051
649 2 2.2208 8.01005 6.86568 24.8771
650 2 2.2208 10.9487 6.96334 21.8176
651 2 2.2208 10.8231 12.6187 21.9176
652 1 -1.1104 12.1812 8.44337 23.4899
653 1 -1.1104 12.3051 8.33396 26.1255
654 1 -1.1104 12.2207 5.46402 23.3545
655 1 -1.1104 12.3052 11.1197 23.5068
656 2 2.2208 10.8626 9.70499 24.8771
657 1 -1.1104 12.186 5.55354 26.1414
658 1 -1.1104 12.175 11.1136 26.1468
659 1 -1.1104 9.51005 8.14132 23.2447
662 2 2.2208 10.7984 12.4686 27.5178
660 2 2.2208 10.8556 6.90999 27.5945
416 2 2.2208 2.49438 21.0205 27.6064
344 2 2.2208 -0.373794 18.0856 27.5325
9293 2 2.2208 -0.322886 6.99534 21.8841
601 2 2.2208 8.17827 -1.50562 27.6188
515 1 -1.1104 4.04827 16.566 20.7314
8999 2 2.2208 -0.344658 1.36743 21.9834
324 2 2.2208 11.0457 4.15263 13.5338
418 2 2.2208 2.45542 15.1948 22.0222
419 2 2.2208 2.38467 20.9725 22.0238
420 1 -1.1104 3.75834 16.6377 23.4855
454 1 -1.1104 1.10548 16.652 23.3676
456 1 -1.1104 3.66699 13.814 26.1981
481 1 -1.1104 3.8365 16.575 26.3784
482 2 2.2208 2.44872 18.0668 24.8644
483 1 -1.1104 3.89723 19.4698 26.1782
516 2 2.2208 5.20798 17.9925 22.032
517 1 -1.1104 0.871008 13.8993 23.2694
518 1 -1.1104 0.948202 19.6061 23.4425
543 2 2.2208 5.1691 15.2634 24.8476
544 2 2.2208 5.17376 20.823 24.8853
603 1 -1.1104 0.971586 13.8134 26.2587
604 1 -1.1104 0.9657 16.6852 26.2939
606 1 -1.1104 1.05865 19.4197 26.2667
635 1 -1.1104 3.70147 13.8339 23.3596
666 1 -1.1104 3.79088 19.5149 23.4376
320 2 2.2208 2.29505 15.2432 27.6926
639 1 -1.1104 9.42182 19.4856 23.4504
319 2 2.2208 8.02167 21.0394 27.459
494 1 -1.1104 6.66644 13.9164 20.6543
495 1 -1.1104 6.56346 19.3778 20.7064
665 1 -1.1104 9.4879 13.8662 26.1335
417 2 2.2208 10.8593 18.1589 21.8558
580 1 -1.1104 12.2841 19.864 26.1878
542 1 -1.1104 6.52381 13.8148 23.3845
317 2 2.2208 10.8279 18.1591 27.5509
415 1 -1.1104 9.5433 19.4412 26.0853
380 1 -1.1104 9.42411 16.6674 23.4938
581 1 -1.1104 12.3071 16.5992 23.3428
386 2 2.2208 8.05542 20.871 22.0202
412 2 2.2208 7.90602 15.4362 21.9313
607 2 2.2208 10.8709 15.213 24.7076
641 1 -1.1104 6.76104 19.5507 26.2736
578 1 -1.1104 12.2952 13.9022 26.1864
638 1 -1.1104 9.36337 14.0038 23.3447
575 1 -1.1104 6.53431 19.4087 23.458
385 1 -1.1104 9.42169 16.763 26.1946
610 1 -1.1104 6.60477 16.643 26.1544
608 2 2.2208 10.8243 20.919 24.6726
455 1 -1.1104 6.58361 16.6928 23.4828
664 1 -1.1104 6.40665 13.8141 26.1757
640 2 2.2208 8.09592 18.0304 24.7458
545 1 -1.1104 12.284 13.8224 23.355
574 1 -1.1104 12.2404 19.298 23.2737
9189 2 2.2208 -0.493034 9.65588 24.8345
9185 2 2.2208 -0.439374 15.2046 19.2027
321 2 2.2208 5.196 18.1118 27.5304
387 2 2.2208 -0.400719 21.0088 24.7943
9075 2 2.2208 13.6907 12.622 19.1703
600 2 2.2208 10.9475 1.20842 27.5889
8366 2 2.2208 10.982 -4.31278 27.708
339 2 2.2208 -0.34812 4.08295 13.6822
316 2 2.2208 5.24155 4.22087 13.7377
333 2 2.2208 5.2781 15.3968 13.7326
670 2 2.2208 5.20237 23.902 5.27328
671 2 2.2208 5.27184 29.4629 5.12927
672 1 -1.1104 0.932308 25.1696 0.940622
673 1 -1.1104 1.03053 25.1039 3.70847
674 1 -1.1104 0.965901 22.4589 0.927265
675 1 -1.1104 1.06295 27.9053 0.926431
676 2 2.2208 5.27719 26.714 2.48251
677 1 -1.1104 1.01582 22.3283 3.75173
678 1 -1.1104 1.16178 27.9701 3.71637
679 1 -1.1104 3.6063 25.0916 0.869089
680 2 2.2208 2.41267 23.8615 2.3523
681 2 2.2208 2.56994 29.4288 2.29147
682 1 -1.1104 3.78343 25.3984 3.79684
683 2 2.2208 2.36652 26.6236 5.20285
684 1 -1.1104 3.77101 22.3429 0.981
685 1 -1.1104 3.95765 28.0553 0.900479
686 1 -1.1104 3.77579 22.4739 3.84129
687 1 -1.1104 3.8841 28.0219 3.79212
814 1 -1.1104 3.90377 25.2148 6.59051
810 1 -1.1104 0.869746 22.4569 6.5305
815 1 -1.1104 3.67432 22.3846 6.64503
1171 2 2.2208 8.13462 46.3024 13.764
816 1 -1.1104 3.90235 28.0249 6.65678
811 1 -1.1104 1.07127 28.0476 6.57494
9532 2 2.2208 13.6806 35.0508 8.00975
691 1 -1.1104 6.53572 25.3003 0.982095
808 1 -1.1104 0.95752 25.2659 6.55113
979 2 2.2208 8.00275 35.1133 13.5557
788 2 2.2208 -0.343001 43.3275 2.50248
693 1 -1.1104 6.63811 22.5256 0.968022
809 1 -1.1104 6.71368 25.3692 6.6851
692 1 -1.1104 6.59596 25.1843 3.9289
695 1 -1.1104 6.58449 22.2247 3.82484
812 1 -1.1104 6.54933 22.6125 6.62972
694 1 -1.1104 6.68992 27.8879 0.807818
696 1 -1.1104 6.57648 28.1116 3.8101
697 2 2.2208 10.8224 23.7707 5.12825
698 2 2.2208 10.8417 29.4408 5.07873
699 1 -1.1104 12.1877 25.1701 0.920262
700 1 -1.1104 12.2547 25.1604 3.83058
701 1 -1.1104 11.8388 22.3026 0.346995
702 1 -1.1104 12.2183 28.0368 1.04655
703 2 2.2208 10.7919 26.633 2.2726
704 1 -1.1104 12.2055 22.4336 3.50331
705 1 -1.1104 12.2583 27.9939 3.69138
706 1 -1.1104 9.44709 25.255 0.907539
707 2 2.2208 7.93603 23.8528 2.31022
708 2 2.2208 8.03302 29.4339 2.26105
709 1 -1.1104 9.52837 25.2983 3.69669
710 2 2.2208 8.09701 26.7184 5.22339
711 1 -1.1104 9.21134 22.5173 0.867915
712 1 -1.1104 9.38998 27.9973 0.871458
713 1 -1.1104 9.39212 22.4954 3.67713
714 1 -1.1104 9.45283 28.1077 3.65175
844 1 -1.1104 9.47625 25.1696 6.56999
813 1 -1.1104 6.69121 28.1926 6.57769
842 1 -1.1104 12.0834 22.3104 6.47869
841 1 -1.1104 12.219 25.1293 6.57228
846 1 -1.1104 9.42866 28.1168 6.50072
843 1 -1.1104 12.1001 27.968 6.45771
720 2 2.2208 5.17895 35.0622 5.11611
721 1 -1.1104 1.10221 30.7702 0.850613
722 1 -1.1104 0.859204 36.4679 0.86451
724 1 -1.1104 1.11074 30.7348 3.64634
725 1 -1.1104 0.94842 36.4207 3.66254
727 1 -1.1104 1.14307 33.5903 0.886998
728 2 2.2208 5.34724 32.1652 2.32043
729 2 2.2208 5.21301 37.8603 2.23983
730 1 -1.1104 1.04669 33.5003 3.74248
732 1 -1.1104 3.92496 30.7239 0.988423
733 1 -1.1104 3.70882 36.4623 0.810693
734 2 2.2208 2.40318 34.9831 2.35727
735 1 -1.1104 3.89899 30.7608 3.81457
736 1 -1.1104 3.84184 36.3546 3.63188
737 2 2.2208 2.36367 32.1134 4.9752
738 2 2.2208 2.31014 37.885 4.98722
739 1 -1.1104 3.74449 33.5868 0.966488
740 1 -1.1104 3.8307 33.614 3.68378
865 1 -1.1104 0.888529 30.7708 6.62139
872 1 -1.1104 3.83043 36.6403 6.46779
726 1 -1.1104 6.66785 36.6855 3.60909
866 1 -1.1104 0.934059 36.4912 6.38944
871 1 -1.1104 3.71131 30.8248 6.5337
9643 2 2.2208 -0.433235 40.7147 5.28714
873 1 -1.1104 3.71775 33.6577 6.34307
869 1 -1.1104 1.0289 33.7696 6.54886
867 1 -1.1104 6.4767 31.052 6.42958
806 2 2.2208 13.6302 46.2778 2.36197
742 1 -1.1104 6.61789 30.6396 0.922909
870 1 -1.1104 6.64343 33.6707 6.48533
731 1 -1.1104 6.59887 33.832 3.64609
744 1 -1.1104 6.46768 33.5821 0.816379
723 1 -1.1104 6.78398 36.2472 0.740945
743 1 -1.1104 6.75906 30.8685 3.69393
745 2 2.2208 10.8557 34.9739 5.13201
746 1 -1.1104 12.2608 30.9632 0.935624
747 1 -1.1104 12.2296 36.5967 0.937481
748 1 -1.1104 12.1874 30.8999 3.75681
749 1 -1.1104 12.3975 36.4295 3.86015
750 1 -1.1104 12.0904 33.7602 0.937429
751 2 2.2208 10.8147 32.231 2.32839
752 2 2.2208 10.8162 37.8017 2.29625
753 1 -1.1104 12.2574 33.6138 3.78176
754 1 -1.1104 9.46558 30.793 1.08391
755 1 -1.1104 9.34468 36.5099 0.863973