ITEM: TIMESTEP
100000
ITEM: NUMBER OF ATOMS
18000
ITEM: BOX BOUNDS xy xz yz pp pp pp
-1.7732261009461606e-01 2.8071322610095343e+01 0.0000000000000000e+00
-2.0804153468275830e+00 3.3680841534681082e+02 0.0000000000000000e+00
-1.8300277308786822e-01 2.8077002773088662e+01 0.0000000000000000e+00
ITEM: ATOMS id type x y z
1 1 1.17157 -0.681117 1.36138
2 1 4.30559 -0.28945 1.07528
3 1 4.2807 -0.64305 3.96118
4 1 1.57693 -0.696815 4.03815
5 1 1.34072 2.31056 0.896851
6 1 4.2285 2.45017 1.27336
7 1 4.34391 2.30208 4.09032
8 1 1.35721 2.19419 3.77383
9 1 7.17851 2.41466 3.96136
10 1 9.92314 -0.652557 1.15439
11 1 9.86238 -0.556239 3.80248
12 1 7.26122 -0.492372 3.87556
13 1 7.04148 2.30567 1.17298
14 1 9.95398 2.23449 1.07276
15 1 9.93144 2.38082 3.88991
16 1 6.9761 5.09279 3.95258
17 1 12.6041 -0.755725 1.15766
18 1 12.7499 -0.650139 3.83641
19 1 12.5965 2.15064 1.07054
20 1 12.8583 2.20183 4.15854
21 1 1.47409 5.2055 1.24642
22 1 4.27343 5.31299 1.07344
23 1 4.33311 4.96765 4.03927
24 1 1.41075 4.86232 3.85966
25 1 1.43636 8.0013 0.822084
26 1 4.14794 7.98546 1.14647
27 1 4.17921 7.94112 3.91148
28 1 1.50577 7.90681 3.90325
29 1 7.00931 4.95494 1.06039
30 1 10.0229 4.9999 0.974449
31 1 10.0266 4.97776 3.75343
32 1 9.89309 13.548 9.62731
33 1 7.0585 7.84581 0.9935
34 1 9.90358 7.85325 1.10346
35 1 9.80179 7.95623 3.84637
36 1 6.98813 8.08789 3.75557
37 1 12.7253 5.01815 1.20549
38 1 12.7932 5.12294 4.08176
39 1 12.7898 7.85591 1.02091
40 1 12.701 7.92695 3.80518
41 1 1.58295 10.5917 0.803488
42 1 4.34962 10.6724 1.00461
43 1 4.36622 10.8032 4.01126
44 1 1.53051 10.5829 3.62863
45 1 1.19682 13.358 0.988844
46 1 4.08514 13.6927 0.867186
47 1 4.09961 13.4199 3.75595
48 1 1.31452 13.5654 3.96253
49 1 6.96813 10.9094 0.882727
50 1 9.90825 10.9307 1.13724
51 1 9.98982 10.7287 3.96966
52 1 7.23088 10.9324 3.68662
53 1 6.94977 13.5871 1.27233
54 1 10.1082 13.7475 1.14226
55 1 9.91452 13.5212 3.86168
56 1 7.17048 13.666 3.84171
57 1 12.7483 10.4717 0.935205
58 1 12.8986 11.0035 3.69198
59 1 13.0213 13.4758 1.27819
60 1 12.7591 13.7839 3.96533
61 1 1.40397 16.1645 1.08828
62 1 4.11958 16.4072 1.38012
63 1 4.34618 16.4137 4.03434
64 1 1.59839 16.4598 3.8824
65 1 1.21013 19.1087 1.20841
66 1 4.21086 19.1303 1.23328
67 1 4.07303 19.2789 3.93735
68 1 1.19226 19.3066 3.90489
69 1 6.91288 16.4873 1.02752
70 1 9.99698 16.4864 1.02853
71 1 10.0083 16.347 3.82128
72 1 7.05868 16.3246 3.82292
73 1 6.89026 19.3417 1.37012
74 1 9.73988 19.2775 1.20074
75 1 9.88757 19.2962 4.08709
76 1 6.85638 22.0894 3.68198
77 1 12.5096 16.2876 1.05373
78 1 12.9712 16.6454 3.80543
79 1 12.6977 19.1205 0.809024
80 1 12.5614 19.3475 3.6967
81 1 1.19714 22.1965 1.27572
82 1 4.21901 22.0968 1.0776
83 1 4.09816 22.1696 3.92609
84 1 1.10269 22.1065 4.04114
85 1 6.92997 22.233 0.936399
86 1 9.60197 22.1501 1.0597
87 1 9.67318 22.236 3.98476
12128 2 8.26764 -2.0499 13.805
89 1 12.5241 22.0435 1.22481
90 1 12.783 21.8909 3.95042
91 1 1.27594 -0.333804 6.76776
92 1 4.17378 -0.620173 6.75341
93 1 4.12824 -0.632576 9.62295
94 1 1.13727 -0.393636 9.67901
95 1 1.42187 2.33894 6.89147
96 1 4.27854 2.33977 7.04142
97 1 4.32364 2.32801 9.80183
98 1 1.36583 2.50724 9.58915
99 1 7.06192 2.15111 6.77661
100 1 10.0787 2.12042 6.72745
101 1 9.77251 2.18406 9.58751
102 1 7.14683 2.21006 9.69884
103 1 7.02753 5.13136 6.77183
104 1 9.86577 4.97677 6.60777
105 1 9.98159 4.90498 9.36427
106 1 7.18584 4.91207 9.7279
12003 2 2.8676 -2.06112 2.73514
108 1 12.7373 2.35172 9.56478
109 1 12.7838 2.243 6.92092
110 1 12.7352 5.36013 9.65277
111 1 1.41609 5.05136 6.74572
112 1 4.23253 5.11248 6.78531
113 1 4.37554 5.16543 9.63644
114 1 1.52195 5.13273 9.50981
115 1 1.71486 7.75802 6.71007
116 1 4.52299 7.86767 6.72067
117 1 4.20996 7.75457 9.85877
118 1 1.57778 7.84047 9.22988
119 1 12.609 13.6481 6.73827
120 1 9.93655 7.97486 6.70812
121 1 9.6735 7.8538 9.52516
122 1 7.26977 7.9119 6.73338
123 1 7.092 10.8257 9.56832
124 1 9.89797 16.473 9.42579
125 1 12.7513 10.8708 9.46589
126 2 8.4318 9.00772 8.31204
127 1 12.5973 5.0975 6.93528
12139 2 6.05151 12.1539 13.8299
129 1 12.6644 7.9893 6.81043
130 1 12.6296 8.08334 9.56876
131 1 1.40463 10.7019 6.54763
132 1 4.25875 10.7599 6.49425
133 1 4.43727 10.6447 9.72792
134 1 1.57741 10.4213 9.70021
135 1 1.39543 13.6871 6.70159
136 1 4.31542 13.3692 6.47661
137 1 4.20213 13.3471 9.46547
138 1 1.38316 13.2975 9.5511
139 1 7.16828 13.3589 6.63503
140 1 7.04701 10.736 6.82389
141 1 9.72562 10.9342 6.88962
142 1 9.86707 10.8427 9.52386
143 1 9.84985 13.6016 6.87735
144 1 9.90198 16.3058 6.58269
145 1 6.92725 19.4302 6.76489
146 1 12.6217 13.7951 9.56593
12148 2 8.38991 20.5347 13.771
12137 2 -0.14696 12.1597 13.833
149 1 12.6269 16.6554 6.67715
150 1 12.6819 16.61 9.35536
151 1 1.5216 16.492 6.68919
152 1 4.32714 16.3828 6.58074
153 1 4.30486 16.2073 9.55529
154 1 1.56476 16.2322 9.44855
155 1 1.1726 19.3927 6.60137
156 1 4.1759 19.372 6.72843
157 1 4.3429 18.9089 9.3658
158 1 1.67563 19.0314 9.46615
159 1 7.09232 16.5713 6.60524
160 1 12.4384 19.4675 6.75954
161 1 9.61565 19.0538 6.80053
162 1 6.95998 16.4942 9.6339
163 1 6.97834 19.3218 4.08221
164 1 9.57086 21.8978 6.66198
165 1 9.99682 19.2207 9.55503
166 1 7.17709 19.259 9.7374
12053 2 2.79861 -1.90058 8.13647
168 1 12.6812 19.1977 9.57708
147 1 12.4279 10.8271 6.46183
170 1 12.4924 22.1818 6.79782
171 1 1.3503 22.2154 6.93031
172 1 4.32046 22.1679 6.73764
173 1 4.11678 22.0081 9.4832
174 1 1.36356 21.9785 9.58137
175 1 6.89584 22.3041 6.61721
12061 2 -0.0481965 3.67506 5.43671
177 1 9.88579 22.0276 9.68686
178 1 7.14002 22.1085 9.32843
12071 2 0.032787 9.18854 5.19054
180 1 12.5604 22.0201 9.43981
181 1 1.21972 -0.501174 12.4442
182 1 3.92881 -0.639459 12.2466
183 1 1.44887 2.32612 12.5273
184 1 4.0602 2.24985 12.4028
185 1 6.92172 -0.679751 12.277
186 1 10.1093 -0.664749 12.3793
187 1 7.08745 2.07501 12.605
188 1 10.1192 2.12678 12.5279
189 1 12.7827 -0.667475 12.5032
190 1 12.8634 1.96801 12.2665
191 1 1.37093 5.04108 12.4166
192 1 4.2475 5.03963 12.7143
193 1 1.37032 7.63953 12.308
194 1 4.18614 7.88928 12.6209
195 1 7.25671 7.87282 12.4533
196 1 9.64775 4.87644 12.1341
197 1 6.93954 7.90558 9.63812
198 1 10.0786 7.68878 12.3777
199 1 12.5175 4.83945 12.4994
200 1 12.7349 7.65075 12.6202
201 1 1.43889 10.7425 12.6125
202 1 4.29026 10.8043 12.4508
203 1 1.28332 13.6117 12.3589
204 1 4.28669 13.5983 12.2455
205 1 7.13855 13.504 9.2092
206 1 9.78584 10.3429 12.241
207 1 7.14719 13.7811 12.1795
208 1 9.73789 13.6938 12.3337
209 1 12.4963 10.864 12.3906
210 1 12.605 13.5534 12.4564
211 1 1.58178 16.1834 12.4035
212 1 4.21178 16.4646 12.4881
213 1 1.32662 19.1706 12.3394
214 1 3.94782 19.5303 11.9747
215 1 7.02589 16.3676 12.6127
216 1 9.90913 16.4737 12.3939
217 1 7.04882 19.1262 12.4198
218 1 9.68643 19.1513 12.3634
219 1 12.6798 16.3767 12.2617
220 1 12.4635 19.2209 12.3641
221 1 1.35727 22.0114 12.387
222 1 4.06907 22.0537 12.3178
223 1 6.96612 21.9809 12.2775
224 1 9.99723 22.0169 12.4671
225 1 12.6475 22.0079 12.3698
12125 2 11.2695 20.6701 11.0277
12110 2 11.4133 3.49561 10.9356
12044 2 -0.0329004 23.3621 2.48657
12124 2 8.54505 23.3491 10.9825
12051 2 -0.152217 -1.91401 5.37069
12109 2 8.61093 6.51617 11.1246
251 1 6.96759 10.5285 12.3011
12008 2 5.71634 0.952447 2.58977
12091 2 -0.173689 20.7663 5.45545
12010 2 11.2574 0.757166 2.48596
12123 2 5.56855 20.4404 10.8505
12108 2 5.61444 3.52764 11.1212
12013 2 2.80994 3.62271 2.56407
12122 2 2.76334 23.2249 10.8436
12107 2 2.80411 6.26204 11.222
12112 2 2.70749 12.1163 11.0787
12017 2 8.60333 3.69198 2.40689
12018 2 5.64084 6.42417 2.50759
12104 2 8.68583 0.808808 11.1002
12020 2 11.353 6.48634 2.37691
12121 2 0.0125199 20.6198 10.9104
12055 2 5.51642 -1.85265 5.44122
12023 2 2.90698 9.14756 2.52601
12120 2 11.2256 15.1057 11.039
12102 2 2.79943 0.971988 10.9541
12113 2 5.49467 9.25057 11.1516
12027 2 8.4325 9.35723 2.44914
12028 2 5.70115 12.2171 2.56559
12106 2 -0.0899641 3.57775 10.8564
12030 2 11.269 12.1563 2.41424
12099 2 11.4118 20.8188 5.35687
12098 2 5.65999 23.392 8.16983
12033 2 2.71031 14.839 2.51263
12024 2 0.00704513 12.0883 2.3484
12097 2 8.65733 20.5128 8.05781
12096 2 8.31896 23.5097 5.23902
12037 2 8.44954 15.0355 2.34974
12038 2 5.60008 17.8224 2.62435
12095 2 5.54663 20.7149 5.36933
12040 2 11.2519 17.7852 2.44754
12084 2 -0.0905437 17.9262 7.90232
12093 2 2.83631 20.7185 8.12705
12043 2 2.68201 20.709 2.62839
12034 2 -0.104031 17.6428 2.6423
12092 2 2.68378 23.5633 5.46165
5723 1 7.0061 -0.521283 6.56979
12047 2 8.34491 20.799 2.46556
12048 2 5.48488 23.6071 2.61766
12090 2 11.0937 17.9541 8.08413
12050 2 11.1961 23.4607 2.37059
12119 2 8.43981 17.6248 11.019
12052 2 2.88533 0.750154 5.25901
12088 2 5.63536 17.7919 8.06766
12118 2 5.53011 14.8974 11.0295
5724 1 9.81967 -0.628494 6.79423
12056 2 8.49929 0.80083 5.34023
12111 2 0.0501187 9.23165 11.052
12058 2 5.70275 1.01104 8.12131
12064 2 -0.0384935 6.62762 7.9989
12060 2 11.3947 0.915391 8.09386
12117 2 2.67463 17.7229 10.9515
12062 2 3.001 6.39016 5.36728
12063 2 2.90468 3.70368 8.1489
12089 2 11.2213 14.942 5.18143
12065 2 5.7706 3.50324 5.45928
12066 2 8.54023 6.4892 5.46704
12067 2 8.45972 3.5627 8.06636
12068 2 5.67023 6.45538 8.32472
12069 2 11.3502 3.6354 5.40812
12070 2 11.1954 6.52768 8.24403
12115 2 11.4395 9.24735 11.0039
12072 2 2.78085 12.1061 5.2303
12073 2 2.83834 9.09489 8.09781
12114 2 8.44901 11.9459 11.2868
12075 2 5.62086 9.41514 5.29712
12076 2 8.51773 12.211 5.01323
12077 2 8.51085 12.2444 8.08108
12078 2 5.43439 11.9375 8.13683
12079 2 11.258 9.25757 5.21573
12080 2 11.6123 12.0917 8.15262
12087 2 8.50519 15.3225 8.02068
12082 2 2.71545 17.8795 5.19769
12083 2 2.86567 14.9122 8.01199
12142 2 -0.0552055 17.6701 13.7451
12085 2 5.55314 15.0543 5.26612
12086 2 8.38199 17.682 5.12152
12100 2 11.1442 23.4421 8.04507
12149 2 5.57623 23.3955 13.7336
5730 1 12.6966 -0.568109 9.62849
5729 1 12.7053 -0.510863 6.7437
12007 2 8.52728 -2.04163 2.42982
5633 1 7.11191 -0.568554 1.28747
5725 1 9.79777 -0.533767 9.63527
241 1 7.02956 4.92049 12.5948
5726 1 7.03919 -0.732827 9.58602
12004 2 -0.122828 0.875328 2.55549
12074 2 0.0990499 12.112 8.04429
12054 2 -0.065764 1.00529 8.20182
12094 2 -0.190653 23.6003 8.33552
12116 2 -0.101917 14.9529 10.9015
15082 2 13.8966 15.2457 8.15999
12081 2 -0.0694624 15.0243 5.36664
12005 2 5.55092 -1.95861 0.025462
12145 2 11.2297 17.888 13.8639
12146 2 2.68682 20.7372 13.8145
15092 2 13.8758 20.5247 8.24272
12130 2 11.3917 0.717246 13.8494
12057 2 8.3845 -1.9292 8.29253
12140 2 10.965 12.1212 13.7765
12141 2 2.84253 14.986 13.8165
12015 2 5.55653 3.62358 -0.205419
12147 2 0.0762862 23.422 13.8071
12014 2 -0.103487 6.3574 2.52318
12103 2 5.46305 -2.09229 10.9386
12131 2 2.77471 3.5942 13.9139
12135 2 11.394 6.31038 13.9468
12129 2 5.58264 0.690728 13.7411
12133 2 8.45713 3.54269 13.8729
12127 2 -0.0974491 0.784691 13.9046
12132 2 -0.0828889 6.4526 13.7156
12101 2 -0.00259819 -1.85908 11.1126
12059 2 11.214 -1.86268 5.2238
319 1 8.48766 12.283 13.8457
12042 2 2.85996 23.472 -0.140414
12041 2 -0.00319804 20.6003 -0.00485797
12143 2 8.31175 14.9026 13.8909
226 1 4.20429 -0.518163 15.0609
227 1 1.45082 -0.557139 15.1808
228 1 4.00438 2.243 15.2257
229 1 1.22847 2.24657 15.154
230 1 9.73433 -0.612956 15.1591
231 1 6.91484 -0.627037 15.4415
232 1 9.62916 2.18912 15.1831
233 1 6.74977 2.21529 15.2031
234 1 12.6075 -0.736146 15.2386
235 1 12.7922 2.19598 15.0826
236 1 4.23148 4.95935 15.3421
237 1 1.30802 4.98837 15.1536
238 1 4.29182 7.8774 15.3833
239 1 1.30828 7.8961 15.1962
240 1 9.83942 5.06418 15.3884
12241 2 0.184372 20.5751 22.2248
242 1 9.78144 7.77429 15.3975
243 1 7.03546 7.77975 15.4127
244 1 12.6383 4.98987 15.4139
245 1 12.6387 7.81414 15.1846
246 1 4.26396 10.7984 15.2965
247 1 1.3054 10.7043 15.3911
248 1 4.15151 13.5345 15.53
249 1 1.39318 13.3692 15.132
250 1 10.0901 10.6823 15.1738
12164 2 0.0501723 6.33563 19.3624
252 1 10.0266 13.7615 15.366
253 1 6.9024 13.6911 15.245
254 1 12.8604 10.6444 15.195
255 1 12.7349 13.7329 15.2181
256 1 4.27276 16.1768 15.3266
257 1 1.36169 16.2785 15.199
258 1 4.04895 19.3184 15.2616
259 1 1.23624 19.3861 15.2764
260 1 9.75505 16.6069 15.083
261 1 6.71786 16.5199 15.5501
262 1 9.99246 19.5131 15.0024
263 1 7.17701 19.2436 15.1258
264 1 12.6458 16.5775 15.1569
265 1 12.6564 19.2372 15.1618
266 1 4.15672 22.0481 15.1015
267 1 1.47596 22.0924 15.4002
268 1 9.72318 22.4161 15.0646
269 1 6.91523 21.9362 15.1397
270 1 12.9788 22.004 15.3578
271 1 1.55528 -0.644148 18.0091
272 1 4.25699 -0.642044 18.1901
273 1 4.08095 -0.478073 21.0129
274 1 1.46569 -0.77606 20.8234
275 1 1.32808 2.08219 17.8094
276 1 4.21509 2.07037 18.075
277 1 4.26946 2.27044 20.8157
278 1 1.44699 2.20603 20.8147
279 1 6.95183 -0.973301 18.1963
280 1 9.53596 -0.529558 17.9282
281 1 9.93444 -0.587174 20.8902
282 1 6.90765 -0.80057 21.2358
283 1 7.01139 2.01165 18.2478
284 1 9.82312 2.1654 18.0864
285 1 9.7484 2.27089 21.0183
286 1 6.98407 2.04898 20.9173
287 1 12.7267 -0.796919 18.0087
288 1 12.4334 -0.523898 20.7515
289 1 12.7377 2.25884 17.8048
290 1 12.5509 2.39192 20.7085
291 1 1.2485 4.72381 18.139
292 1 3.98001 5.0335 18.0784
293 1 4.0859 4.96326 20.8171
294 1 1.53181 5.0444 20.8997
295 1 1.4232 7.45973 17.7464
296 1 4.25735 7.81172 18.0564
297 1 4.28128 7.84901 20.885
298 1 1.24627 7.89496 20.8124
299 1 7.02233 5.03789 15.4375
300 1 9.792 4.97416 18.1881
301 1 6.87257 7.74561 18.1632
302 1 6.83061 4.96419 18.2699
303 1 6.95251 10.4614 15.1679
304 1 9.93912 7.9528 18.2247
305 1 9.68472 7.94428 20.9574
306 1 6.88196 10.6605 18.2315
307 1 12.563 5.21251 18.0962
308 1 12.64 5.17788 20.7139
309 1 12.6464 7.82434 17.9728
310 1 12.5675 7.97881 20.8005
311 1 1.31203 10.7179 18.1036
312 1 3.97736 10.7647 17.9753
313 1 3.94555 10.5683 20.8
314 1 1.19869 10.8042 20.8038
315 1 1.4986 13.5723 17.9642
316 1 4.29655 13.3209 18.099
317 1 4.074 13.51 20.9846
318 1 1.45741 13.6123 20.641
12049 2 11.2373 20.6447 27.8948
320 1 9.84883 10.7804 17.7153
321 1 9.84695 10.7676 20.732
322 1 7.35421 13.2451 17.8673
323 1 5.61462 14.857 19.5586
324 1 9.8287 13.5962 18.3371
325 1 9.76687 13.6671 21.1978
326 1 6.82288 13.3477 21.1492
327 1 12.6689 10.838 18.1041
328 1 12.6724 10.7393 20.822
329 1 12.9215 13.7409 17.9861
330 1 12.6001 13.6595 20.9051
331 1 1.19009 16.4518 17.9875
332 1 4.12505 16.474 18.0496
333 1 4.13106 16.5669 20.8269
334 1 1.44155 16.4861 20.6837
335 1 1.41438 19.2693 18.0445
336 1 4.20704 19.1134 18.0199
337 1 4.51472 19.3051 20.9867
338 1 1.68354 19.1425 20.946
339 1 7.39941 16.5724 18.2847
340 1 10.1932 16.6697 17.7415
341 1 9.77863 16.4868 20.8209
342 1 7.08726 16.4147 21.1884
343 1 6.96563 19.2659 17.9932
344 1 9.79087 19.3038 17.9211
345 1 10.0665 19.4694 20.7123
346 1 7.23341 19.147 21.0064
347 1 12.8655 16.4063 18.0948
348 1 12.7244 16.5371 20.819
349 1 12.6734 19.2129 18.101
350 1 12.8409 19.3975 20.9097
351 1 1.62668 22.1355 18.2217
352 1 4.44244 21.9241 18.0446
353 1 4.45846 22.0622 20.6812
354 1 1.74658 22.0397 20.9312
355 1 7.28969 22.1825 18.1412
356 1 9.91728 22.3818 18.098
357 1 9.74083 22.6027 20.7604
358 1 7.17693 22.1341 20.9743
359 1 12.7285 22.0751 18.0916
360 1 12.6079 22.1231 21.0442
361 1 1.54316 -0.554297 23.6109
362 1 4.17166 2.35236 23.9083
363 1 4.26334 -0.725803 26.6288
364 1 1.34801 -0.687365 26.7392
365 1 1.27944 2.24036 23.5063
366 1 4.15464 5.0169 23.6564
367 1 3.89324 2.02004 26.611
368 1 1.14968 2.59831 26.2652
369 1 7.02909 2.25074 23.7881
370 1 9.91852 2.23569 23.5677
371 1 9.91578 -0.662767 26.8354
372 1 7.08832 -0.551871 26.6581
373 1 6.85785 5.14999 23.7116
374 1 7.13856 5.04495 20.8373
375 1 9.91022 2.14445 26.3759
376 1 6.98757 2.33715 26.5177
377 1 12.7994 2.44841 23.6301
378 1 12.8495 -0.478448 26.4602
379 1 9.74543 5.01875 23.8083
380 1 12.7716 2.24583 26.5838
381 1 1.30214 5.09794 23.7279
382 1 6.95541 7.98328 20.9035
383 1 4.34425 4.72632 26.685
384 1 1.28149 5.33785 26.666
385 1 1.37599 8.11982 23.5331
386 1 4.05808 7.92947 23.7387
387 1 4.55589 7.59388 26.6926
388 1 1.43158 8.2005 26.2601
389 1 6.89805 8.09979 23.7877
390 1 9.7671 5.06098 20.8693
391 1 9.72453 4.77225 26.5019
392 1 7.25064 5.38719 26.4343
393 1 6.99862 10.6795 21.0743
394 1 9.92193 8.07598 23.6235
395 1 9.85673 7.7623 26.5693
396 1 7.33701 8.12677 26.5625
397 1 12.5192 5.20622 23.8618
398 1 12.8502 5.16288 26.6448
399 1 12.9853 8.01144 23.7621
400 1 12.7008 7.90342 26.2638
401 1 1.35954 10.9278 23.5654
402 1 4.21814 10.7891 23.853
403 1 4.31836 10.9015 26.4538
404 1 1.46931 10.9091 26.3971
405 1 1.63376 13.7385 23.3858
406 1 4.20369 13.474 23.6872
407 1 4.30378 13.7817 26.5273
408 1 1.29361 13.4474 26.4486
409 1 7.02698 10.9378 23.7671
410 1 9.99156 10.8975 23.7821
411 1 9.84954 10.616 26.6487
412 1 7.00374 10.9064 26.4913
413 1 7.05996 13.696 23.7683
414 1 9.74141 13.9148 23.74
415 1 9.92677 13.5959 26.6452
416 1 7.10089 13.7784 26.6692
417 1 12.7982 10.8419 23.6392
418 1 12.8501 11.0009 26.4021
419 1 12.6742 13.6566 23.613
420 1 12.8785 13.6887 26.5554
421 1 1.49433 16.3972 23.8259
422 1 4.39342 16.2406 23.8142
423 1 4.22519 16.4638 26.5556
424 1 1.53579 16.37 26.665
425 1 1.36071 19.268 24.0289
426 1 4.1647 19.2515 23.6748
427 1 4.41544 19.1281 26.6277
428 1 1.58625 19.5112 26.8283
429 1 7.19981 16.3898 23.7232
430 1 9.8807 16.7818 23.717
431 1 9.86773 16.5251 26.5336
432 1 7.0509 16.4979 26.6094
433 1 6.97952 19.3735 23.8722
434 1 10.1301 19.4546 23.6847
435 1 10.0882 19.3721 26.6007
436 1 7.25117 19.2556 26.5431
437 1 12.5522 16.4476 23.7236
438 1 12.634 16.3282 26.4441
439 1 12.948 19.1537 23.6223
440 1 12.7922 19.5522 26.419
441 1 1.46031 22.0018 23.7439
442 1 4.32433 22.1155 23.5744
443 1 4.34045 21.9448 26.473
444 1 1.64544 22.2563 26.6161
445 1 7.00307 22.0689 23.5729
446 1 9.88201 22.1048 23.4458
447 1 9.71779 21.9316 26.5699
448 1 6.9518 21.9995 26.4097
449 1 12.9574 21.9779 23.9796
450 1 12.6342 22.1936 26.7736
12201 2 -0.0726249 -1.98747 22.2922
12250 2 11.2928 23.3355 25.1267
12161 2 -0.112912 3.54751 16.6082
12039 2 11.334 15.0179 27.7774
12138 2 8.48164 9.3262 14.0503
5986 1 4.08658 -0.536285 23.8752
12249 2 11.3799 20.7183 22.252
12155 2 5.51444 -2.00412 16.6536
12157 2 8.47349 -1.984 19.4949
12002 2 2.65716 0.721492 27.9566
12209 2 11.3438 -2.03026 22.2004
12248 2 5.81958 23.5869 25.0768
5993 1 7.14123 -0.735972 23.7946
12224 2 -0.172299 12.1961 25.0342
12021 2 -0.0475149 9.3062 27.9135
12234 2 0.0991512 17.7739 25.0921
12211 2 0.0684622 3.76842 22.3621
12191 2 0.0564588 20.6739 16.7035
12025 2 5.63048 9.3052 27.7798
12184 2 -0.0473249 17.8634 19.3196
12011 2 -0.108054 3.86195 28.0469
12244 2 -0.0525006 23.4687 25.0318
12232 2 3.09662 17.7904 22.2689
12231 2 0.18981 15.1522 22.0506
12229 2 11.4598 9.4088 22.2269
12247 2 8.43798 20.6469 25.1762
12152 2 2.66569 0.731536 16.6167
12205 2 5.71433 -2.08539 22.6172
12246 2 8.29677 23.5512 22.2365
12221 2 -0.0998352 9.28961 22.1533
12156 2 8.43451 0.664984 16.5858
5999 1 12.7289 -0.646069 23.7108
12158 2 5.69297 0.628919 19.6023
12016 2 8.51257 6.54729 27.9164
12160 2 11.2784 0.716769 19.3378
12245 2 5.78466 20.5853 22.2426
12162 2 2.75376 6.32819 16.5755
12163 2 2.78148 3.4595 19.4773
12019 2 11.4448 3.76461 27.8868
12165 2 5.48023 3.44647 16.7227
12166 2 8.38573 6.35319 16.6892
12167 2 8.39025 3.62064 19.45
12168 2 5.39366 6.28159 19.3372
12169 2 11.2086 3.74718 16.6818
12170 2 11.0321 6.4975 19.5505
12243 2 2.89635 20.5424 25.2357
12172 2 2.84901 12.0509 16.683
12173 2 2.75073 9.2792 19.4288
12242 2 2.9427 23.614 22.1739
12175 2 5.68583 9.15153 16.6333
12176 2 8.67151 12.1782 16.3025
12177 2 8.41404 9.24774 19.3257
12178 2 5.70369 12.1662 19.5428
12179 2 11.3353 9.22395 16.6026
12180 2 11.2847 12.0625 19.4686
5994 1 9.95021 -0.382292 23.8166
12182 2 2.63873 17.7109 16.7652
12183 2 2.95384 14.9574 19.5614
12228 2 5.71906 12.2274 25.1648
12185 2 5.66928 14.8926 16.9991
12186 2 8.49945 17.8441 16.5642
12187 2 8.28098 15.0254 19.6709
12188 2 5.64387 17.553 19.437
12189 2 11.3992 15.0982 16.6361
12190 2 11.2959 17.7793 19.4558
12235 2 5.44938 14.8708 22.0414
12192 2 2.94577 23.4016 16.7065
12193 2 3.05096 20.4963 19.3384
12174 2 -0.068954 12.0424 19.4756
12195 2 5.55055 20.3911 16.676
12196 2 8.50362 23.4612 16.4701
12197 2 8.52075 20.7772 19.376
12198 2 5.85411 23.4913 19.5447
12199 2 11.3704 20.5227 16.9124
12200 2 11.2128 23.7719 19.5456
12240 2 11.4451 17.9578 25.3245
12202 2 2.79361 0.834241 22.3386
12230 2 11.3842 12.2906 25.1614
12239 2 11.2652 15.006 22.2686
12031 2 -0.0676746 14.8829 27.9486
12206 2 8.53818 0.738804 22.3775
12227 2 8.5173 9.51684 25.0041
12208 2 5.60678 1.0008 25.0117
12226 2 8.32658 12.1582 22.2237
12210 2 11.3408 0.797523 25.2171
12238 2 5.61984 17.7915 25.2144
12212 2 2.77182 6.61723 22.2009
12213 2 2.61565 3.79331 25.2743
12237 2 8.34033 14.9626 25.1797
12215 2 5.8119 3.53418 22.1669
12216 2 8.33807 6.53377 22.1423
12217 2 8.38564 3.58609 25.1136
12218 2 5.86756 6.66693 25.1051
12219 2 11.2577 3.61207 22.2489
12220 2 11.153 6.45186 25.1396
12236 2 8.44566 17.8164 22.4006
12222 2 2.83189 12.072 22.3775
12223 2 2.70921 9.51999 25.0044
12233 2 2.86895 14.9084 25.1166
12225 2 5.60318 9.30167 22.1735
12153 2 2.90839 -2.02636 19.5017
12204 2 -0.0788179 0.936726 25.2607
12214 2 -0.0440423 6.58988 24.967
12181 2 0.0546638 14.8427 16.7135
12194 2 -0.0671885 23.5744 19.3899
12032 2 2.86699 17.8126 27.9772
12151 2 -0.0110413 -1.98965 16.5633
12171 2 -0.12371 9.32675 16.5122
12207 2 8.59817 -2.09427 25.0359
12026 2 8.56655 12.1488 27.9675
12154 2 0.0880059 0.697091 19.5186
12006 2 8.30774 0.861154 27.9158
12029 2 11.3461 9.14098 28.0435
12045 2 5.6644 20.7028 27.9004
15211 2 13.9307 6.48642 22.4782
12144 2 5.63095 17.6682 13.9725
12046 2 8.46266 23.5249 27.9509
12022 2 2.82739 12.1147 27.9813
12134 2 5.43844 6.39953 14.1339
12136 2 2.91774 9.30859 14.1786
15172 2 13.9329 9.22618 19.4119
12150 2 11.4492 23.3721 13.9672
12036 2 8.5368 17.9677 27.9866
12035 2 5.64545 15.044 28.025
12012 2 2.89873 6.64271 27.9954
451 1 1.35891 25.104 1.25798
452 1 4.25282 24.8236 1.04784
453 1 4.08162 24.8762 4.05955
454 1 1.31305 24.8461 4.06225
455 1 7.08611 27.5452 1.15978
456 1 9.86848 24.7947 0.935127
12306 2 -0.0699388 32.0395 5.28691
12351 2 -0.119372 37.6661 11.1404
459 1 12.7106 24.7149 1.07402
460 1 13.4284 29.406 3.37899
461 1 1.30152 27.7166 0.83902
462 1 4.10453 27.6043 1.10603
463 1 3.86079 27.9124 3.78989
464 1 1.16774 27.6621 4.07397
465 1 1.49087 30.6789 1.14031
466 1 4.21847 30.3327 1.08257
467 1 4.14985 30.8475 3.97335
468 1 1.41213 30.5831 3.79125
469 1 7.22023 30.3257 0.963234
470 1 9.84882 27.4332 0.918251
471 1 11.3556 27.3668 7.17737
472 1 6.62446 27.8472 4.15545
473 1 7.09415 33.0771 1.45731
474 1 10.2506 30.3992 0.971852
475 1 8.86151 29.1621 3.12543
476 1 6.89469 30.874 3.7998
477 1 12.7728 27.6529 0.847341
478 1 12.8708 30.5722 0.90488
479 2 11.529 29.1566 1.9861
480 1 11.2702 27.3329 3.3255
481 1 1.60018 33.4708 1.09109
482 1 4.38726 33.4067 1.11448
483 1 4.06832 33.3437 3.84967
484 1 1.38846 33.1563 4.05483
546 1 9.95749 24.8737 6.40029
486 1 4.25737 36.2278 1.12641
487 1 4.22495 35.9517 4.0447
488 1 1.55007 36.3138 1.03643
489 1 6.84933 33.5565 4.24264
490 1 9.83719 33.0129 0.916709
491 1 9.44678 33.2199 3.9551
492 1 7.01083 33.6296 6.95203
493 1 7.15122 36.0567 1.06318
494 1 9.86505 36.0687 1.14336
495 1 9.9472 35.967 3.87261
496 1 7.10935 36.3139 3.76691
497 1 12.7013 33.3797 0.87953
498 1 12.7518 33.36 3.7538
499 1 12.9888 36.1147 1.27069
500 1 12.4653 35.972 3.73364
501 1 1.51795 39.1094 0.962577
502 1 4.27705 39.2348 0.991694
503 1 4.3784 38.7883 3.82202
504 1 1.48811 38.9676 3.97528
505 1 1.34892 41.6877 1.0468
506 1 4.3234 41.9798 1.23705
507 1 3.92974 41.7286 4.06922
508 1 1.30809 41.845 3.98128
509 1 6.91526 38.8869 1.17468
510 1 9.68494 39.0971 1.11733
511 1 9.93495 38.8153 3.93953
512 1 7.27643 39.2754 3.79016
513 1 7.09979 41.7302 1.06604
514 1 9.77218 41.8932 1.05507
515 1 9.9285 41.7397 4.28492
516 1 6.81874 42.0349 3.8281
517 1 12.6654 38.914 1.17668
518 1 12.7956 38.8614 4.05243
519 1 12.56 41.6723 1.02651
520 1 12.695 41.73 3.87895
521 1 1.40517 44.6911 1.16495
522 1 4.16257 44.7781 1.18032
523 1 4.15965 44.5904 4.01219
524 1 1.47366 44.5971 4.18296
525 1 1.26934 47.5226 1.24981
526 1 4.35902 47.5812 1.36244
527 1 4.15934 47.343 4.08804
528 1 1.45374 47.2441 3.99731
529 1 7.14755 44.5856 1.08137
530 1 9.86095 44.6739 0.996601
531 1 9.684 44.9349 3.93098
532 1 6.77525 44.7137 3.86248
533 1 7.4278 47.5676 1.37636
534 1 9.95655 47.4072 0.961786
535 1 9.86368 47.5757 4.03244
536 1 6.86297 47.4503 4.06456
537 1 12.5046 44.5478 1.2718
538 1 12.5997 44.4685 4.06058
539 1 12.7253 47.3927 1.10573
540 1 12.7541 47.4775 3.9656
541 1 1.22684 24.8215 6.76688
542 1 4.02156 25.0587 6.7243
543 1 4.13759 24.9895 9.33214
544 1 1.47187 24.8419 9.62736
545 1 6.99188 24.9317 6.83979
904 1 1.25817 50.0741 4.0459
547 1 9.76119 24.8113 9.48883
12284 2 0.0276686 46.1018 2.44841
549 1 9.40971 27.2383 5.21372
550 1 12.583 25.006 9.24851
551 1 1.53026 27.8459 6.97204
552 1 4.26821 27.9043 6.54235
553 1 3.92452 27.6738 9.4926
554 1 1.33309 27.6493 9.81713
555 1 1.13113 30.7092 6.68771
556 1 3.98159 30.541 6.62755
557 1 4.20634 30.4041 9.38286
558 1 1.35139 30.6435 9.45809
559 1 7.10146 27.7416 6.90842
560 1 9.65876 29.7583 6.71427
561 1 9.92163 27.6833 9.68939
562 1 6.9159 27.8995 9.60391
563 1 6.84851 30.7559 6.71395
564 1 10.8307 30.448 4.1696
565 1 9.96432 30.4456 9.87686
566 1 7.02029 30.5903 9.56147
567 1 13.1991 27.363 5.19245
12371 2 8.46573 32.0387 13.6731
569 1 13.3533 30.9832 5.42697
570 1 12.9253 30.7366 9.92128
571 1 1.33673 36.1947 6.86253
572 1 1.20088 33.492 6.82387
573 1 4.13606 33.2849 9.65731
574 1 1.46316 33.3935 9.80813
575 1 1.52484 36.036 4.01765
576 1 4.17187 36.1456 6.8421
577 1 4.15448 36.0989 9.67362
578 1 1.49158 36.55 9.71349
579 1 4.22171 33.2725 6.88069
580 1 9.82867 33.2972 6.74417
581 1 9.55614 33.197 9.58392
582 1 6.8642 33.5199 9.55763
583 1 7.05038 36.2911 6.68693
584 1 9.80715 36.0671 6.78278
585 1 9.67264 36.1986 9.39024
586 1 6.87133 36.0894 9.55312
587 1 12.925 33.6684 6.74408
588 1 12.539 33.458 9.59034
589 1 12.7448 36.3186 6.56021
590 1 12.5688 36.1275 9.31497
591 1 1.44442 38.7351 6.96633
592 1 4.28491 39.1171 6.68412
593 1 4.23108 38.8933 9.57298
594 1 1.15734 39.2538 9.74198
595 1 1.31417 41.7896 6.89965
596 1 4.04932 41.7503 6.96908
597 1 4.1372 41.9188 9.79883
598 1 1.14751 41.9995 9.67709
599 1 7.03719 39.0482 6.60395
600 1 9.98079 38.9238 6.71939
601 1 9.76608 38.995 9.4344
602 1 6.9818 38.9069 9.3702
603 1 7.01661 42.0204 6.71403
604 1 9.70543 41.7835 6.8032
605 1 9.82939 41.9014 9.66193
606 1 7.01196 41.929 9.54231
607 1 12.5814 39.0685 6.5801
608 1 12.6519 38.9727 9.37339
609 1 12.3059 42.0755 6.66805
610 1 12.5681 41.7946 9.27831
611 1 1.28957 44.7259 6.81324
612 1 4.11289 44.3502 6.92895
613 1 4.07773 44.7509 9.61561
614 1 1.18903 44.4952 9.63662
615 1 1.15186 47.6589 6.85796
616 1 4.27256 47.3332 6.61364
617 1 3.90325 47.5759 9.50217
618 1 1.0896 47.1989 9.83035
619 1 7.12574 44.9262 6.94335
620 1 9.76246 44.7349 6.80111
621 1 9.78033 44.5985 9.63337
622 1 6.86234 44.5788 9.72978
623 1 7.14578 47.6381 7.01661
624 1 9.83018 47.7658 6.86866
625 1 9.67408 47.4208 9.56231
626 1 6.89325 47.602 9.76547
627 1 12.6294 44.9124 6.84634
628 1 12.5138 44.5685 9.60549
629 1 12.6001 47.369 6.89335
630 1 12.501 47.5029 9.70162
631 1 1.33952 24.8915 12.6253
632 1 4.11051 25.0605 12.3202
633 1 6.98059 24.7386 12.3579
634 1 9.86647 24.8574 12.4339
635 1 12.9056 24.7849 12.6592
636 1 1.68597 27.8124 12.5148
637 1 4.38555 27.653 12.1746
638 1 1.48664 30.5473 12.3934
639 1 4.31582 30.3929 12.2784
640 1 7.26971 27.4763 12.2772
641 1 10.0638 27.6372 12.3033
642 1 6.99123 30.6412 12.456
643 1 9.894 30.6021 12.5381
644 1 12.8703 27.6716 9.72899
645 1 12.8855 30.4171 12.5598
646 1 1.37751 33.3907 12.283
647 1 4.26024 33.3241 12.3574
648 1 1.30233 36.2095 12.4266
649 1 4.35139 36.2388 12.5293
650 1 7.09585 33.3848 12.4137
651 1 9.8688 33.5575 12.2106
652 1 7.13502 36.0834 12.3531
653 1 9.96637 36.4088 12.3503
654 1 12.6433 33.3917 12.4761
655 1 12.6186 36.2222 12.0464
656 1 1.22218 39.2171 12.4115
657 1 4.09182 39.0601 12.4119
658 1 1.41281 41.8938 12.5609
659 1 4.16379 41.8462 12.4647
660 1 6.98102 38.9847 12.4029
661 1 9.86702 39.0035 12.1831
662 1 6.97434 41.9119 12.5039
663 1 9.69838 41.8506 12.4499
664 1 12.631 38.9597 12.1628
665 1 12.6491 41.9067 12.4299
666 1 1.31063 44.7584 12.3936
667 1 4.13287 44.8274 12.4669
668 1 1.35662 47.4999 12.6189
669 1 3.76106 47.732 12.238
670 1 6.93048 44.5639 12.5671
671 1 9.64605 44.8534 12.3872
672 1 6.66297 47.3418 12.3953
673 1 9.57892 47.2852 12.5201
674 1 12.4497 44.7373 12.4225
675 1 12.5793 47.5124 12.5805
12363 2 11.0222 48.8448 11.1474
12346 2 0.121324 31.8395 10.9171
12253 2 2.75422 26.326 2.56823
12362 2 5.29805 48.8065 11.1038
457 1 9.8838 24.8982 3.67028
12365 2 -0.124342 29.0828 13.8362
12257 2 8.43049 26.4401 2.7387
12258 2 5.67595 29.0468 2.55952
12329 2 -0.13528 45.9291 8.38283
12260 2 11.6589 28.9406 5.38341
12360 2 11.2805 43.1929 11.0675
12382 2 5.61078 45.9356 13.8925
12263 2 2.9926 31.9524 2.46609
12359 2 8.39321 46.0458 10.7989
6636 1 12.6481 27.6009 12.7858
12373 2 11.2514 35.0161 13.563
12267 2 8.5949 31.6867 2.3661
12268 2 5.55638 34.7776 2.675
12345 2 11.3307 26.2989 10.739
12270 2 11.3507 34.6417 2.21538
12358 2 5.61433 43.2526 10.9991
12344 2 8.33598 29.2066 11.0626
12273 2 2.93287 37.607 2.46055
12357 2 2.71717 46.1139 11.0392
12343 2 5.72351 26.1878 10.8972
12374 2 2.86169 37.8342 13.91
12277 2 8.37598 37.5977 2.40129
12278 2 5.64367 40.4747 2.68412
12385 2 8.32889 48.9443 13.8514
12280 2 11.1949 40.3986 2.57014
12355 2 11.2798 37.5502 10.7791
12369 2 2.74619 32.0001 13.7672
12283 2 2.80994 43.3935 2.53712
12354 2 8.5093 40.319 10.9786
12376 2 8.50306 37.5005 13.7063
12296 2 -0.0785178 26.4058 5.52111
12287 2 8.41693 43.2761 2.4821
12288 2 5.82243 46.2349 2.44465
12361 2 -0.111687 48.8338 10.9327
12290 2 11.0675 46.0336 2.5162
12353 2 5.62403 37.6942 11.1049
12292 2 2.81018 48.7672 2.7138
15297 2 13.9342 26.5028 7.8005
12294 2 8.22208 48.9265 2.78273
88 1 6.76907 25.1471 4.07093
12356 2 -0.205844 43.2634 11.1235
12297 2 2.71872 29.3407 5.26448