LAMMPS (29 Oct 2020)
OMP_NUM_THREADS environment is not set. Defaulting to 1 thread. (../comm.cpp:94)
  using 1 OpenMP thread(s) per MPI task
OMP_NUM_THREADS environment is not set. Defaulting to 1 thread. (../comm.cpp:94)
  using 1 OpenMP thread(s) per MPI task
Reading data file ...
  orthogonal box = (-0.27717828 -3.4472206 -0.27717828) to (27.617178 331.52722 27.617178)
  2 by 13 by 2 MPI processor grid
  reading atoms ...
  18000 atoms
  reading velocities ...
  18000 velocities
Finding 1-2 1-3 1-4 neighbors ...
  special bond factors lj:    0.0      0.0      0.0     
  special bond factors coul:  0.0      0.0      0.0     
     0 = max # of 1-2 neighbors
     0 = max # of 1-3 neighbors
     0 = max # of 1-4 neighbors
     1 = max # of special neighbors
  special bonds CPU = 0.004 seconds
  read_data CPU = 0.078 seconds
Setting atom values ...
  12000 settings made for charge
Setting atom values ...
  6000 settings made for charge
30 atoms in group Th_delete
60 atoms in group O_delete
90 atoms in group delete
WARNING: Ignoring 'compress yes' for molecular system (../delete_atoms.cpp:125)
Deleted 90 atoms, new total = 17910
PPPM initialization ...
  using 12-bit tables for long-range coulomb (../kspace.cpp:328)
  G vector (1/distance) = 0.299142
  grid = 40 240 40
  stencil order = 5
  estimated absolute RMS force accuracy = 0.00015485404
  estimated relative force accuracy = 1.0754018e-05
  using single precision MKL FFT
  3d grid and FFT values/proc = 18225 7600
Neighbor list info ...
  update every 1 steps, delay 0 steps, check yes
  max neighbors/atom: 2000, page size: 100000
  master list distance cutoff = 13
  ghost atom cutoff = 13
  binsize = 6.5, bins = 5 52 5
  2 neighbor lists, perpetual/occasional/extra = 2 0 0
  (1) pair coul/long, perpetual
      attributes: half, newton on
      pair build: half/bin/newton
      stencil: half/bin/3d/newton
      bin: standard
  (2) pair eam/alloy, perpetual, copy from (1)
      attributes: half, newton on
      pair build: copy
      stencil: none
      bin: none
Setting up cg style minimization ...
  Unit style    : metal
  Current step  : 0
WARNING: Energy due to 3 extra global DOFs will be included in minimizer energies
Per MPI rank memory allocation (min/avg/max) = 9.478 | 10.18 | 10.28 Mbytes
Step Temp E_pair E_mol TotEng Press Volume 
       0            0   -235337.93            0   -235337.93   -1360.7358    260641.98 
      15            0   -235376.15            0   -235376.15    116.51842    260454.82 
Loop time of 0.80572 on 52 procs for 15 steps with 17910 atoms

98.5% CPU use with 52 MPI tasks x 1 OpenMP threads

Minimization stats:
  Stopping criterion = linesearch alpha is zero
  Energy initial, next-to-last, final = 
     -235337.927421531  -235376.153065607  -235376.153065607
  Force two-norm initial, final = 457.44167 82.308495
  Force max component initial, final = 407.71332 19.150780
  Final line search alpha, max atom move = 7.6414845e-13 1.4634038e-11
  Iterations, force evaluations = 15 70

MPI task timing breakdown:
Section |  min time  |  avg time  |  max time  |%varavg| %total
---------------------------------------------------------------
Pair    | 0.45866    | 0.48604    | 0.51233    |   1.9 | 60.32
Bond    | 6.834e-06  | 9.5018e-06 | 1.5168e-05 |   0.0 |  0.00
Kspace  | 0.12982    | 0.15627    | 0.1838     |   3.3 | 19.40
Neigh   | 0          | 0          | 0          |   0.0 |  0.00
Comm    | 0.011196   | 0.01198    | 0.012897   |   0.3 |  1.49
Output  | 0          | 0          | 0          |   0.0 |  0.00
Modify  | 0          | 0          | 0          |   0.0 |  0.00
Other   |            | 0.1514     |            |       | 18.79

Nlocal:        344.423 ave         402 max         297 min
Histogram: 6 5 8 4 5 7 7 4 3 3
Nghost:        5630.71 ave        5810 max        5468 min
Histogram: 4 8 5 3 3 10 9 4 2 4
Neighs:       110579.0 ave      129000 max       96205 min
Histogram: 9 3 8 4 6 7 4 5 3 3

Total # of neighbors = 5750108
Ave neighs/atom = 321.05572
Ave special neighs/atom = 0.0000000
Neighbor list builds = 0
Dangerous builds = 0
Resetting atom IDs ...
PPPM initialization ...
  using 12-bit tables for long-range coulomb (../kspace.cpp:328)
  G vector (1/distance) = 0.2991611
  grid = 40 240 40
  stencil order = 5
  estimated absolute RMS force accuracy = 0.00015467207
  estimated relative force accuracy = 1.0741381e-05
  using single precision MKL FFT
  3d grid and FFT values/proc = 18225 7600
Finding 1-2 1-3 1-4 neighbors ...
  special bond factors lj:    0.0      0.0      0.0     
  special bond factors coul:  0.0      0.0      0.0     
     0 = max # of 1-2 neighbors
     0 = max # of 1-3 neighbors
     0 = max # of 1-4 neighbors
     1 = max # of special neighbors
  special bonds CPU = 0.001 seconds
PPPM initialization ...
  using 12-bit tables for long-range coulomb (../kspace.cpp:328)
  G vector (1/distance) = 0.2991611
  grid = 40 240 40
  stencil order = 5
  estimated absolute RMS force accuracy = 0.00015467207
  estimated relative force accuracy = 1.0741381e-05
  using single precision MKL FFT
  3d grid and FFT values/proc = 18225 7600
Setting up Verlet run ...
  Unit style    : metal
  Current step  : 15
  Time step     : 0.001
Per MPI rank memory allocation (min/avg/max) = 9.115 | 9.141 | 9.157 Mbytes
Step Dt Time Atoms Temp PotEng KinEng Press Volume 
      15        0.001            0    17910          900   -235376.15    2083.4279    8660.6415    260454.82 
   10000        0.001        9.985    17910    898.89499   -233367.97    2080.8699    608.61426    267397.08 
   20000        0.001       19.985    17910    902.94221   -233345.47    2090.2389   -1493.1258    267711.27 
   30000        0.001       29.985    17910    889.24816   -233351.62    2058.5383    1366.9767    267279.97 
   40000        0.001       39.985    17910    904.67979   -233339.66    2094.2613   -578.44403    267594.99 
   50000        0.001       49.985    17910    904.87516   -233352.27    2094.7136    79.655746    267476.56 
   60000        0.001       59.985    17910    906.28784   -233358.83    2097.9838     1009.289    267346.61 
   70000        0.001       69.985    17910    894.55302   -233351.36    2070.8186   -692.15586    267566.28 
   80000        0.001       79.985    17910    906.99067   -233354.94    2099.6108   -537.27748    267555.86 
   90000        0.001       89.985    17910    901.05269   -233367.75    2085.8648    1362.4529    267217.72 
  100000        0.001       99.985    17910    902.43759   -233356.72    2089.0708   -1413.1622    267700.45 
  100015        0.001          100    17910    904.60702   -233358.55    2094.0928   -1440.1736    267674.76 
Loop time of 824.292 on 52 procs for 100000 steps with 17910 atoms

Performance: 10.482 ns/day, 2.290 hours/ns, 121.316 timesteps/s
99.8% CPU use with 52 MPI tasks x 1 OpenMP threads

MPI task timing breakdown:
Section |  min time  |  avg time  |  max time  |%varavg| %total
---------------------------------------------------------------
Pair    | 530.95     | 539.18     | 548.77     |  21.7 | 65.41
Bond    | 0.010074   | 0.013507   | 0.017167   |   1.6 |  0.00
Kspace  | 150.6      | 160.2      | 168.6      |  40.6 | 19.44
Neigh   | 3.7404     | 3.9426     | 4.1413     |   5.1 |  0.48
Comm    | 16.483     | 16.905     | 17.226     |   4.9 |  2.05
Output  | 0.049121   | 0.049165   | 0.051022   |   0.1 |  0.01
Modify  | 91.462     | 96.343     | 101.06     |  23.5 | 11.69
Other   |            | 7.653      |            |       |  0.93

Nlocal:        344.423 ave         368 max         324 min
Histogram: 1 4 11 12 7 1 3 4 8 1
Nghost:        5583.54 ave        5676 max        5475 min
Histogram: 4 5 10 5 2 1 2 6 6 11
Neighs:       108401.0 ave      115955 max      101261 min
Histogram: 2 3 7 14 6 3 3 3 9 2

Total # of neighbors = 5636833
Ave neighs/atom = 314.73104
Ave special neighs/atom = 0.0000000
Neighbor list builds = 1336
Dangerous builds = 0
System init for write_data ...
PPPM initialization ...
  using 12-bit tables for long-range coulomb (../kspace.cpp:328)
  G vector (1/distance) = 0.2986594
  grid = 40 240 40
  stencil order = 5
  estimated absolute RMS force accuracy = 0.00015871146
  estimated relative force accuracy = 1.1021901e-05
  using single precision MKL FFT
  3d grid and FFT values/proc = 18225 7600
Total wall time: 0:13:45
