ITEM: TIMESTEP
20000
ITEM: NUMBER OF ATOMS
17640
ITEM: BOX BOUNDS pp pp pp
-4.5625785760025706e-01 2.7796257857599645e+01
-5.3165089740531277e+00 3.3339650897405181e+02
-4.3770749421437932e-01 2.7777707494214305e+01
ITEM: ATOMS id type q x y z
1 2 2.2208 5.43818 0.196779 5.22605
2 1 -1.1104 1.05516 -3.97842 0.916952
6 1 -1.1104 1.21123 -4.03581 3.64777
10 1 -1.1104 0.991149 -1.29896 0.747985
12 2 2.2208 5.17159 -2.74694 2.41194
14 1 -1.1104 1.00089 -1.18084 3.89285
16 1 -1.1104 3.77486 -4.01656 0.94676
18 2 2.2208 2.50722 0.218391 2.17706
19 1 -1.1104 3.93499 -3.93384 3.77187
21 2 2.2208 2.46181 -2.60003 5.15499
23 1 -1.1104 3.82764 -1.24374 0.963681
24 1 -1.1104 3.87315 -1.26802 3.83855
8 1 -1.1104 6.87085 -4.05083 3.77037
15 1 -1.1104 6.849 -1.19829 3.88012
9005 2 2.2208 -0.381375 20.1838 2.34036
8871 2 2.2208 -0.160352 20.0725 8.01355
230 2 2.2208 13.5799 -2.45012 10.9221
171 1 -1.1104 6.84255 -1.21229 6.81745
11 1 -1.1104 6.51637 -1.13944 1.12585
4 1 -1.1104 6.91792 -3.98406 0.798788
31 2 2.2208 11.0717 0.257202 5.14649
32 1 -1.1104 12.3245 -3.78529 0.815323
34 1 -1.1104 12.4706 -4.1892 3.55407
36 1 -1.1104 12.2573 -1.23896 1.02601
37 2 2.2208 10.8854 -2.48522 2.24013
39 1 -1.1104 12.4353 -1.29383 3.88514
40 1 -1.1104 9.64461 -3.95463 0.7543
42 2 2.2208 8.069 0.213271 2.44531
43 1 -1.1104 9.73512 -3.82132 3.76827
45 2 2.2208 8.13406 -2.6624 5.1607
47 1 -1.1104 9.37474 -1.21708 0.847189
48 1 -1.1104 9.54736 -1.15089 3.67723
207 1 -1.1104 12.5114 -1.30681 6.67079
205 1 -1.1104 12.4998 -4.02285 6.34567
210 1 -1.1104 9.64056 -1.1981 6.63262
208 1 -1.1104 9.57963 -3.91764 6.50546
9144 2 2.2208 -0.330488 5.97499 5.23591
9066 2 2.2208 -0.309896 11.3836 10.9026
3 1 -1.1104 1.11889 1.52715 0.717209
7 1 -1.1104 1.08766 1.69689 3.868
13 2 2.2208 5.2963 3.29405 2.21953
17 1 -1.1104 3.90498 1.68462 0.953065
20 1 -1.1104 3.99949 1.58371 3.83731
22 2 2.2208 2.48575 2.99415 5.2018
54 2 2.2208 5.48351 5.67652 5.24983
56 1 -1.1104 1.0157 7.38575 1.10458
60 1 -1.1104 1.15451 4.38894 1.01135
67 1 -1.1104 1.12972 4.62753 3.90625
71 1 -1.1104 4.01407 7.26554 1.0102
72 2 2.2208 2.46542 5.91856 2.38056
74 1 -1.1104 3.73133 7.34025 3.92305
76 1 -1.1104 3.80527 4.64101 0.805597
79 1 -1.1104 3.8722 4.47329 3.47245
58 1 -1.1104 1.24833 7.54168 3.83426
8846 2 2.2208 -0.258203 17.2911 10.919
9141 2 2.2208 -0.387386 3.08726 2.45962
234 1 -1.1104 1.16784 7.15769 6.59517
239 1 -1.1104 3.98064 4.36891 6.49504
238 1 -1.1104 4.10389 7.12274 6.8424
236 1 -1.1104 1.31968 4.44257 6.71425
235 1 -1.1104 7.0755 7.35457 6.62543
169 1 -1.1104 7.22101 1.41808 6.47897
9 1 -1.1104 6.61782 1.69221 3.45498
69 1 -1.1104 6.80191 4.51967 3.86395
63 1 -1.1104 6.6835 4.61998 1.02807
57 1 -1.1104 6.63888 7.45313 0.878046
59 1 -1.1104 6.57961 7.13098 3.82241
5 1 -1.1104 6.81613 1.95044 0.924342
33 1 -1.1104 12.5323 1.69082 0.819437
35 1 -1.1104 12.5106 1.70781 3.8288
38 2 2.2208 10.8957 3.17232 2.40689
41 1 -1.1104 9.59483 1.76523 0.945344
44 1 -1.1104 9.51591 1.60852 3.83308
46 2 2.2208 8.35662 2.95195 5.12384
84 2 2.2208 11.0202 5.95711 5.22326
86 1 -1.1104 12.4261 7.26576 0.888012
87 1 -1.1104 12.3524 7.3895 3.85589
88 1 -1.1104 12.3347 4.48658 0.927776
92 1 -1.1104 12.3614 4.54793 3.80611
95 2 2.2208 8.23367 5.82287 2.30723
97 1 -1.1104 9.73883 7.11909 3.72623
99 1 -1.1104 9.54691 4.47738 1.03278
102 1 -1.1104 9.66973 4.56526 3.89151
94 1 -1.1104 9.57294 7.34764 0.820514
209 1 -1.1104 9.88981 1.69202 6.64166
269 1 -1.1104 9.58126 4.58512 6.77598
266 1 -1.1104 12.4902 4.56927 6.77111
8444 2 2.2208 8.10827 -5.23696 2.32054
9147 2 2.2208 13.6718 11.6155 2.3606
237 1 -1.1104 6.86966 4.27762 6.5929
55 2 2.2208 5.35272 11.5373 5.32828
61 1 -1.1104 1.01968 10.3186 0.923166
66 2 2.2208 5.12505 8.60042 2.44977
68 1 -1.1104 1.1687 10.3538 3.79734
73 2 2.2208 2.51777 11.4788 2.31594
75 2 2.2208 2.53436 8.71541 5.40506
77 1 -1.1104 3.65353 9.97809 1.04983
80 1 -1.1104 3.91402 9.94668 3.96391
107 1 -1.1104 1.05597 12.9116 1.07336
113 1 -1.1104 1.00894 13.1173 3.84626
123 1 -1.1104 3.77583 13.0821 1.04488
128 1 -1.1104 3.99531 12.9521 3.75014
9145 2 2.2208 -0.237305 8.96321 2.34847
70 1 -1.1104 6.87979 10.0678 3.75041
115 1 -1.1104 6.65626 12.7646 3.71667
110 1 -1.1104 6.48453 12.8448 1.07437
335 2 2.2208 13.5168 20.0792 -0.246977
108 1 -1.1104 1.06306 12.9817 6.64289
62 1 -1.1104 1.10083 10.2235 6.73746
78 1 -1.1104 3.88394 9.89558 6.80946
199 2 2.2208 -0.0738726 3.27955 8.05345
318 2 2.2208 11.0336 8.62178 13.6928
265 1 -1.1104 12.601 7.45878 6.59699
64 1 -1.1104 6.63107 10.0595 0.876164
85 2 2.2208 11.083 11.5534 4.89559
89 1 -1.1104 12.3253 10.0409 0.908426
91 2 2.2208 11.1896 8.626 2.29628
93 1 -1.1104 12.3818 10.1792 3.68883
96 2 2.2208 8.08527 11.4293 2.33828
98 2 2.2208 8.51274 8.67124 5.2542
100 1 -1.1104 9.33049 10.0269 1.09249
103 1 -1.1104 9.79353 9.95534 3.67398
142 1 -1.1104 12.1798 12.8352 1.15755
146 1 -1.1104 12.4197 13.0783 3.61726
153 1 -1.1104 9.38443 13.0437 1.27065
158 1 -1.1104 9.56632 12.8474 3.88851
143 1 -1.1104 12.5052 13.0782 6.6525
111 1 -1.1104 6.88155 12.9873 6.67098
90 1 -1.1104 12.5109 10.3312 6.49416
154 1 -1.1104 9.74425 12.8488 6.56983
201 2 2.2208 -0.343726 0.345404 10.927
311 2 2.2208 2.3874 14.4336 -0.359078
130 2 2.2208 2.46113 14.4599 5.18109
106 2 2.2208 5.20048 17.0978 5.46415
109 1 -1.1104 0.974295 18.8824 1.12256
114 1 -1.1104 1.02162 18.608 3.7707
116 1 -1.1104 1.10002 16.0558 0.922707
119 2 2.2208 5.19282 14.3967 2.51158
120 2 2.2208 5.13623 20.1459 2.48907
121 1 -1.1104 0.832474 15.8114 3.80845
125 1 -1.1104 3.79148 18.3885 1.04856
127 2 2.2208 2.42206 17.2025 2.25958
129 1 -1.1104 3.99789 18.6388 3.79949
131 2 2.2208 2.47473 20.0909 5.20742
132 1 -1.1104 3.87494 15.7711 1.03109
134 1 -1.1104 3.76497 15.6471 3.82928
133 1 -1.1104 3.84557 15.7341 6.76503
137 1 -1.1104 12.2351 15.9464 9.44945
334 2 2.2208 2.30721 0.419151 13.4137
140 1 -1.1104 6.66861 15.7858 1.12911
138 1 -1.1104 6.58067 18.5722 1.07813
160 2 2.2208 8.04478 14.3429 5.29369
139 1 -1.1104 6.64564 18.636 4.01431
122 1 -1.1104 6.57281 15.6104 3.8695
141 2 2.2208 10.8611 17.2074 5.27958
144 1 -1.1104 12.1434 18.5785 0.943042
147 1 -1.1104 12.0997 18.5897 3.93243
148 1 -1.1104 12.0299 15.7588 1.09162
150 2 2.2208 10.7431 14.3845 2.45844
151 2 2.2208 10.7302 19.804 2.38383
152 1 -1.1104 12.2696 15.9333 3.8015
155 1 -1.1104 9.28834 18.6285 1.08194
157 2 2.2208 7.93059 17.1905 2.4674
159 1 -1.1104 9.44082 18.3907 3.79008
161 2 2.2208 8.07859 19.8738 5.17724
162 1 -1.1104 9.20483 15.6073 1.16917
164 1 -1.1104 9.57762 15.7033 4.04223
156 1 -1.1104 9.48636 18.8308 6.48918
112 1 -1.1104 6.52376 18.7504 6.81744
145 1 -1.1104 12.3365 18.526 6.84955
163 1 -1.1104 9.57476 15.8176 6.63721
135 2 2.2208 11.0137 14.4074 8.08953
166 1 -1.1104 1.16768 -4.11837 6.49801
172 1 -1.1104 3.85971 -3.92224 6.8274
30 2 2.2208 13.6749 3.24565 5.18856
25 2 2.2208 -0.219545 -2.621 2.43095
174 1 -1.1104 4.03481 -1.06627 6.58741
170 1 -1.1104 1.2511 -1.19386 6.73365
175 2 2.2208 5.38164 0.24701 10.7389
176 1 -1.1104 1.0169 -3.97023 12.3671
180 1 -1.1104 1.26683 -3.88726 9.42689
184 1 -1.1104 1.04893 -1.07323 11.9082
186 2 2.2208 5.26007 -2.53636 7.99295
188 1 -1.1104 1.09028 -1.15777 9.34451
190 1 -1.1104 4.04062 -3.88544 12.2712
192 2 2.2208 2.672 0.197906 8.0379
193 1 -1.1104 4.04459 -3.95519 9.57953
195 2 2.2208 2.68642 -2.44833 10.8763
197 1 -1.1104 3.93972 -1.04567 12.3689
198 1 -1.1104 4.05295 -1.09138 9.54312
185 1 -1.1104 6.69209 -1.19297 12.2724
9142 2 2.2208 13.6642 14.4486 10.9898
52 2 2.2208 8.15118 14.4654 10.7104
168 1 -1.1104 6.72728 -3.99162 6.4243
8872 2 2.2208 13.5387 17.3065 2.4881
562 2 2.2208 5.29929 0.147011 -0.452279
178 1 -1.1104 6.83996 -3.77193 12.2873
182 1 -1.1104 6.73309 -3.76524 9.3194
189 1 -1.1104 6.76388 -0.938109 9.42389
211 2 2.2208 10.9308 0.236284 10.9745
212 1 -1.1104 12.3271 -4.07701 12.3644
214 1 -1.1104 12.5932 -3.86913 9.33754
216 1 -1.1104 12.361 -1.20037 12.5133
217 2 2.2208 10.9868 -2.82944 8.01079
219 1 -1.1104 12.3212 -0.977246 9.53878
220 1 -1.1104 9.58711 -4.02418 12.407
222 2 2.2208 8.46001 0.258378 8.04887
223 1 -1.1104 9.43808 -3.95772 9.41951
225 2 2.2208 8.14698 -2.52948 10.8374
227 1 -1.1104 9.61915 -1.20671 12.2925
228 1 -1.1104 9.54437 -1.20858 9.53449
82 1 -1.1104 12.5905 18.7905 12.4418
9004 2 2.2208 -0.291417 17.3375 5.16134
167 1 -1.1104 1.27591 1.67602 6.81427
173 1 -1.1104 4.04647 1.76814 6.49874
177 1 -1.1104 0.950694 1.86644 12.2437
181 1 -1.1104 1.24458 1.76662 9.39762
187 2 2.2208 5.35075 3.15748 7.94698
191 1 -1.1104 3.7182 1.62501 11.9194
194 1 -1.1104 4.07959 1.8586 9.11186
196 2 2.2208 2.65694 3.23504 10.7093
240 2 2.2208 5.40604 5.83892 10.9777
242 1 -1.1104 0.911267 7.381 12.2963
246 1 -1.1104 1.49531 4.5847 12.0676
251 1 -1.1104 1.13795 4.71962 9.25787
255 1 -1.1104 3.80928 7.22576 12.2279
256 2 2.2208 2.58697 5.94062 7.9874
260 1 -1.1104 3.99224 4.46552 12.3937
262 1 -1.1104 4.12385 4.59117 9.47032
258 1 -1.1104 3.97725 7.62282 9.41961
179 1 -1.1104 6.7555 1.49617 12.091
183 1 -1.1104 6.83643 1.67827 9.42668
244 1 -1.1104 1.05532 7.42986 9.41716
8845 2 2.2208 -0.206876 14.3516 8.099
53 2 2.2208 8.08931 20.051 10.7785
267 1 -1.1104 9.98575 7.44707 6.66555
104 1 -1.1104 12.368 18.7359 9.72085
248 1 -1.1104 6.65865 4.15005 12.0584
206 1 -1.1104 12.5429 1.70124 6.75058
253 1 -1.1104 6.97897 4.26419 9.28246
243 1 -1.1104 6.73234 7.15963 12.1069
213 1 -1.1104 12.2242 1.46872 12.4125
215 1 -1.1104 12.3142 1.69586 9.6993
218 2 2.2208 10.9463 3.20048 8.06377
221 1 -1.1104 9.36141 1.47083 12.2593
224 1 -1.1104 9.63643 1.51793 9.4873
226 2 2.2208 8.10968 2.81306 10.841
268 1 -1.1104 9.65437 4.53651 9.33204
271 1 -1.1104 9.45419 4.5477 12.2242
273 1 -1.1104 9.69297 7.4966 9.43192
275 2 2.2208 8.12639 5.70548 8.08592
276 2 2.2208 10.8947 5.89778 11.0387
278 1 -1.1104 12.4026 7.28274 12.328
280 1 -1.1104 12.3207 4.47623 12.3208
283 1 -1.1104 12.4782 4.78205 9.50796
285 1 -1.1104 9.6161 7.31257 12.1712
279 1 -1.1104 12.4985 7.74733 9.34316
245 1 -1.1104 6.90663 7.20204 9.32677
124 1 -1.1104 3.90146 12.8987 6.79518
241 2 2.2208 5.21291 11.4398 10.9668
247 1 -1.1104 1.31411 10.1592 12.2968
250 2 2.2208 5.57848 8.6333 7.87289
252 1 -1.1104 1.07257 10.2702 9.42395
257 2 2.2208 2.42515 11.5233 8.06831
259 2 2.2208 2.67734 8.75026 10.9518
261 1 -1.1104 3.96586 10.1251 12.4078
263 1 -1.1104 3.76963 10.526 9.5965
287 1 -1.1104 3.81492 12.9692 12.3184
294 1 -1.1104 1.00133 13.0863 9.41879
299 1 -1.1104 0.890522 12.9742 12.2527
305 1 -1.1104 3.87211 13.0906 9.70575
249 1 -1.1104 6.90439 10.1282 12.0125
254 1 -1.1104 6.73497 10.1446 9.41942
297 1 -1.1104 6.67896 12.8875 12.2964
326 2 2.2208 10.7117 17.2478 -0.434848
290 1 -1.1104 6.75534 12.8743 9.51297
288 1 -1.1104 6.6686 18.7688 9.27031
65 1 -1.1104 6.73105 10.1497 6.35524
101 1 -1.1104 9.42874 10.1564 6.83909
204 1 -1.1104 9.40954 13.0859 9.51019
264 1 -1.1104 9.61241 10.2481 9.54507
270 1 -1.1104 9.50368 10.1236 12.311
272 2 2.2208 8.17393 8.83851 10.6116
274 2 2.2208 8.18421 11.7369 7.97073
277 2 2.2208 11.0633 11.4817 10.9512
281 1 -1.1104 12.4867 10.1062 12.2232
282 2 2.2208 11.0439 8.96605 7.90979
284 1 -1.1104 12.4529 10.3827 9.17877
81 1 -1.1104 12.2909 12.9549 12.3476
83 1 -1.1104 12.3575 13.0975 9.59717
165 1 -1.1104 9.36207 12.7679 12.2422
325 2 2.2208 8.09948 14.2771 -0.36566
331 2 2.2208 5.23808 11.4222 -0.259051
302 1 -1.1104 1.05075 18.595 6.64525
9385 2 2.2208 -0.34078 14.3403 13.5353
126 1 -1.1104 3.78366 18.4377 6.47841
117 1 -1.1104 1.19514 15.7528 6.67002
233 2 2.2208 2.56233 14.3487 10.8551
286 1 -1.1104 3.82052 18.7166 12.3145
291 1 -1.1104 1.39519 18.9167 9.46362
292 1 -1.1104 0.924875 16.103 9.36979
293 2 2.2208 5.23678 20.1264 8.12165
295 2 2.2208 5.38063 14.4667 8.11371
298 1 -1.1104 1.09288 18.96 12.2078
300 2 2.2208 5.16565 17.1966 10.8597
301 1 -1.1104 4.09838 18.7149 9.43775
303 2 2.2208 2.48543 17.2533 8.10417
304 1 -1.1104 4.19645 15.7453 9.56311
307 1 -1.1104 0.947702 15.805 12.0015
308 1 -1.1104 3.85514 15.9218 12.2465
309 2 2.2208 2.49648 20.1529 10.8229
203 1 -1.1104 9.51104 15.7619 9.56017
200 2 2.2208 -0.220769 -2.54859 7.96712
202 1 -1.1104 9.40089 15.8398 12.2965
118 1 -1.1104 6.77907 15.8485 6.76381
136 2 2.2208 10.9622 20.0604 8.17648
232 1 -1.1104 9.60256 18.4111 12.4321
105 1 -1.1104 12.2218 15.8915 12.267
149 1 -1.1104 12.3952 15.9334 6.45461
27 2 2.2208 10.9539 17.1976 10.9326
51 1 -1.1104 9.62791 18.4616 9.66509
306 1 -1.1104 6.56627 15.6606 12.4582
231 2 2.2208 8.16039 17.2308 8.07903
296 1 -1.1104 6.73673 18.6095 12.1276
289 1 -1.1104 6.81219 15.7356 9.52605
313 2 2.2208 2.39293 20.1436 -0.455489
315 2 2.2208 -0.421461 5.91065 10.7022
9073 2 2.2208 -0.410795 8.78825 8.04743
320 2 2.2208 5.17918 20.1735 13.5289
378 2 2.2208 5.25136 3.07735 13.55
9506 2 2.2208 -0.319616 20.04 13.6357
628 2 2.2208 2.29614 8.73671 -0.417429
26 2 2.2208 -0.23665 0.162759 5.26691
317 2 2.2208 8.05878 11.4532 13.4874
474 2 2.2208 8.24007 5.89502 13.5895
445 2 2.2208 2.47608 5.9116 13.5686
9152 2 2.2208 13.4652 14.4195 -0.319055
316 2 2.2208 10.9508 3.03522 13.5199
330 2 2.2208 10.98 11.4498 -0.44996
9039 2 2.2208 -0.355339 14.4508 2.33836
661 2 2.2208 7.81194 20.1788 -0.280043
323 2 2.2208 10.4576 14.3896 13.6279
446 2 2.2208 5.36408 8.62831 13.5731
594 2 2.2208 8.20091 3.22105 -0.396113
660 2 2.2208 10.9723 20.0481 13.5702
409 2 2.2208 8.11107 0.360195 13.5986
447 2 2.2208 2.42738 11.6124 13.5285
324 2 2.2208 8.04942 17.0421 13.6251
336 2 2.2208 5.28895 0.417258 16.2717
337 1 -1.1104 0.947395 -3.90602 17.9166
341 1 -1.1104 1.04153 -4.07664 15.0242
349 1 -1.1104 1.07373 -1.1039 17.6211
351 2 2.2208 5.32042 -2.5511 19.0795
353 1 -1.1104 0.986661 -1.23287 14.8989
357 1 -1.1104 3.73078 -3.87852 17.6539
359 2 2.2208 2.65075 0.169574 19.0252
360 1 -1.1104 4.00256 -4.05632 15.0029
364 2 2.2208 2.63625 -2.54086 16.1654
366 1 -1.1104 3.97809 -1.11824 17.5799
367 1 -1.1104 3.83306 -1.08115 14.7924
355 1 -1.1104 6.80439 -1.03038 15.0662
345 1 -1.1104 6.66342 -3.84654 15.1385
9483 2 2.2208 -0.239023 5.98739 21.983
368 1 -1.1104 3.97716 -1.10434 20.5119
9311 2 2.2208 -0.211877 8.89969 13.7025
9276 2 2.2208 -0.30591 -2.44461 19.1458
339 1 -1.1104 6.74796 -3.83285 17.7755
8748 2 2.2208 5.32488 -5.31523 16.3267
354 1 -1.1104 1.21083 -1.05159 20.5396
567 1 -1.1104 9.50665 15.9213 23.6909
350 1 -1.1104 6.77863 -1.17115 17.9802
379 2 2.2208 11.1093 0.421225 16.5378
380 1 -1.1104 12.3747 -3.86144 17.776
382 1 -1.1104 12.3863 -3.9565 14.9362
386 1 -1.1104 12.1836 -1.07442 18.1006
387 2 2.2208 10.7359 -2.52654 19.3229
389 1 -1.1104 12.6954 -1.10685 15.1709
391 1 -1.1104 9.56947 -4.03947 17.9403
393 2 2.2208 7.95752 0.208861 19.3795
394 1 -1.1104 9.48708 -4.11431 15.254
398 2 2.2208 8.1226 -2.33769 16.5222
400 1 -1.1104 9.30367 -1.1898 18.0108
401 1 -1.1104 9.73985 -1.14005 15.0897
9200 2 2.2208 -0.356999 0.402645 21.9218
346 1 -1.1104 6.72668 -3.99543 20.3463
8649 2 2.2208 13.5671 -5.1617 19.2196
356 1 -1.1104 6.4948 -1.14572 20.8695
383 1 -1.1104 12.2784 -3.64725 20.5542
319 2 2.2208 2.38205 17.1071 13.7401
9314 2 2.2208 -0.308007 9.00291 19.305
338 1 -1.1104 0.975814 1.785 17.6387
343 1 -1.1104 1.06946 1.55218 15.1559
352 2 2.2208 5.39744 3.07507 19.3279
358 1 -1.1104 3.86393 1.63728 17.6878
362 1 -1.1104 3.93017 1.71018 14.8549
365 2 2.2208 2.47758 3.30393 16.4158
412 2 2.2208 5.54868 6.04213 16.5366
414 1 -1.1104 1.26856 7.62106 17.9143
416 1 -1.1104 1.39192 7.3037 15.0123
420 1 -1.1104 1.2468 4.47679 18.0429
425 1 -1.1104 0.950866 4.58074 15.029
433 1 -1.1104 4.07231 7.44662 17.9115
434 2 2.2208 2.55972 6.03884 19.263
439 1 -1.1104 4.12225 4.5021 17.9206
441 1 -1.1104 3.93804 4.48314 15.1072
436 1 -1.1104 4.1187 7.22122 14.9722
415 1 -1.1104 6.96736 7.44808 17.9568
442 1 -1.1104 3.88662 4.67892 20.7164
419 1 -1.1104 6.56628 7.25365 20.5474
340 1 -1.1104 6.75629 1.74097 17.8935
348 1 -1.1104 6.79494 1.69878 20.7419
9196 2 2.2208 -0.251501 17.3386 22.0629
344 1 -1.1104 1.17177 1.6684 20.4683
437 1 -1.1104 3.7636 7.50696 20.7838
430 1 -1.1104 6.77999 4.6153 20.7159
8675 2 2.2208 2.72585 -5.276 19.3154
422 1 -1.1104 6.72982 4.54763 17.8433
418 1 -1.1104 6.95971 7.31357 14.9694
429 1 -1.1104 6.77172 4.47641 14.9301
347 1 -1.1104 6.71427 1.79902 15.0397
381 1 -1.1104 12.462 1.84839 17.8651
384 1 -1.1104 12.2419 1.61621 15.0844
388 2 2.2208 10.848 3.21497 19.3843
392 1 -1.1104 9.82957 1.75393 18.1225
396 1 -1.1104 9.47304 1.53039 15.1351
399 2 2.2208 8.24672 3.08382 16.4924
448 2 2.2208 10.9284 5.80229 16.4772
453 1 -1.1104 12.2584 4.57021 18.0525
456 1 -1.1104 12.3499 4.32427 15.0458
460 1 -1.1104 9.80496 7.35375 17.9491
461 2 2.2208 8.20919 6.16325 19.2727
463 1 -1.1104 9.72023 7.05681 15.0595
466 1 -1.1104 9.38929 4.69281 17.9941
468 1 -1.1104 9.54533 4.30886 14.9447
450 1 -1.1104 12.4434 7.2874 17.8787
451 1 -1.1104 12.4249 7.38559 15.1412
469 1 -1.1104 9.67625 4.48767 20.8596
452 1 -1.1104 12.2592 7.53734 20.704
8490 2 2.2208 8.12156 -5.19788 24.8634
385 1 -1.1104 12.2113 1.97684 20.8414
397 1 -1.1104 9.38113 1.53044 20.8643
9236 2 2.2208 -0.388336 14.3946 24.9189
413 2 2.2208 5.32027 11.5837 16.3836
421 1 -1.1104 1.10015 10.3223 17.8369
424 2 2.2208 5.15417 8.63828 19.3798
427 1 -1.1104 1.1276 10.0376 15.036
435 2 2.2208 2.61379 11.5271 19.4979
438 2 2.2208 2.7562 8.8118 16.4695
440 1 -1.1104 3.95588 10.1612 18.013
443 1 -1.1104 3.95004 10.0272 15.14
476 1 -1.1104 1.33229 13.1124 18.0197
480 1 -1.1104 1.20463 12.9331 15.2337
496 1 -1.1104 4.17524 13.0147 17.9591
499 1 -1.1104 3.82769 13.09 14.8813
431 1 -1.1104 6.73375 10.1628 14.9638
478 1 -1.1104 6.77267 12.8601 17.7794
423 1 -1.1104 6.9762 10.0699 17.6414
503 2 2.2208 2.439 14.2197 16.5186
328 2 2.2208 7.97702 8.6817 27.7351
500 1 -1.1104 3.83303 13.0978 20.8733
481 1 -1.1104 0.950445 12.7795 20.7647
432 1 -1.1104 6.74308 10.2178 20.8116
564 2 2.2208 2.52738 3.17664 27.6777
8466 2 2.2208 11.0004 -5.16752 27.5748
484 1 -1.1104 6.68784 13.0196 14.9339
449 2 2.2208 10.9053 11.5419 16.3179
454 1 -1.1104 12.4144 10.0939 17.791
455 2 2.2208 10.9746 8.80474 19.312
458 1 -1.1104 12.4287 10.2105 15.2111
462 2 2.2208 8.19353 11.5256 19.1199
465 2 2.2208 8.28396 8.75513 16.4883
467 1 -1.1104 9.62375 10.1748 17.8061
470 1 -1.1104 9.7261 9.82884 15.0093
512 1 -1.1104 12.4246 13.0782 17.9573
514 1 -1.1104 12.182 13.0897 14.9974
522 1 -1.1104 9.60311 13.0008 17.7467
525 1 -1.1104 9.34635 12.8941 14.9934
471 1 -1.1104 9.40614 10.1042 20.553
472 1 -1.1104 6.60662 15.7134 23.4189
568 1 -1.1104 9.2059 15.721 26.3397
662 2 2.2208 10.8123 0.219889 27.667
573 2 2.2208 10.7583 17.1963 22.3779
475 2 2.2208 5.06333 17.1694 16.5422
477 1 -1.1104 1.05548 18.4447 17.9604
482 1 -1.1104 0.988942 18.7707 15.2158
488 1 -1.1104 0.843063 15.6904 18.0372
490 2 2.2208 5.19489 14.3853 19.3476
491 2 2.2208 5.19606 20.045 19.3479
492 1 -1.1104 0.950049 15.8603 15.0877
497 1 -1.1104 3.76389 18.5624 18.0054
498 2 2.2208 2.47204 17.2238 19.1896
501 1 -1.1104 3.68353 18.5851 15.1591
504 2 2.2208 2.39244 20.0782 16.6133
505 1 -1.1104 3.77882 15.6911 17.8264
506 1 -1.1104 3.50163 15.7214 15.2496
493 1 -1.1104 1.05209 15.7578 21.0566
489 1 -1.1104 6.35691 15.6385 17.9773
486 1 -1.1104 6.41335 18.793 14.9275
479 1 -1.1104 6.69049 18.4013 17.5775
507 1 -1.1104 3.81855 15.8297 20.5908
406 1 -1.1104 9.04582 18.5203 26.6084
656 2 2.2208 5.32794 -5.20248 21.819
404 1 -1.1104 6.37599 19.1078 26.539
633 1 -1.1104 12.0576 18.6752 26.4162
627 2 2.2208 5.27607 5.97444 27.673
494 1 -1.1104 6.14528 15.7814 15.2263
511 2 2.2208 10.7922 17.1738 16.5392
513 1 -1.1104 12.1331 18.6483 18.0966
516 1 -1.1104 12.2514 18.5134 15.384
517 1 -1.1104 12.1513 15.8631 18.049
518 2 2.2208 10.9256 14.4975 19.162
519 2 2.2208 10.8335 20.1741 19.1074
520 1 -1.1104 12.2032 15.9624 15.0624
523 1 -1.1104 9.34844 18.5691 17.9058
524 2 2.2208 7.82736 17.1347 19.1088
527 1 -1.1104 9.22183 18.4948 15.3861
529 2 2.2208 7.8433 14.3619 16.4537
530 2 2.2208 8.0644 20.05 16.5239
531 1 -1.1104 9.31694 15.6439 18.0662
532 1 -1.1104 9.24297 15.8336 15.2134
528 1 -1.1104 9.90478 18.7993 21.1925
521 1 -1.1104 12.3024 16.2575 20.7618
9386 2 2.2208 13.5877 11.5967 24.9715
533 1 -1.1104 9.19962 16.2329 20.8485
9315 2 2.2208 -0.324932 5.94918 16.4361
600 2 2.2208 10.9044 20.1447 25.0164
342 1 -1.1104 1.13143 -3.95652 20.723
9344 2 2.2208 13.5884 20.2557 16.7207
361 1 -1.1104 3.73062 -3.83337 20.4815
9382 2 2.2208 -0.319535 14.4365 19.5785
538 2 2.2208 5.29401 0.245734 22.0966
539 1 -1.1104 0.911958 -3.92059 23.5359
543 1 -1.1104 1.17822 -3.91332 26.1113
547 1 -1.1104 1.09767 -0.811545 23.2839
549 2 2.2208 5.21371 -2.54529 24.8172
551 1 -1.1104 0.963629 -0.95864 26.2718
553 1 -1.1104 3.73695 -3.70567 23.4778
555 2 2.2208 2.37165 0.486495 24.9432
556 1 -1.1104 3.85976 -3.96226 26.3654
558 2 2.2208 2.45706 -2.46877 22.0992
560 1 -1.1104 3.88488 -1.10696 23.6692
561 1 -1.1104 4.11144 -1.24391 26.3141
652 1 -1.1104 6.40286 15.7769 26.2915
552 1 -1.1104 6.79789 -0.764603 26.6317
548 1 -1.1104 6.86635 -1.10908 23.6131
541 1 -1.1104 6.78309 -3.85814 23.3746
390 1 -1.1104 12.1431 -1.05638 20.7431
545 1 -1.1104 6.63431 -3.92094 26.2138
402 1 -1.1104 9.33462 -0.928514 20.8365
395 1 -1.1104 9.41447 -4.0441 20.5723
574 2 2.2208 11.1544 0.436746 22.1818
575 1 -1.1104 12.3855 -3.72742 23.4632
577 1 -1.1104 12.3072 -3.83527 26.3596
579 1 -1.1104 12.4068 -0.846006 23.3815
580 2 2.2208 11.1203 -2.50166 24.8898
582 1 -1.1104 12.3244 -1.04294 26.325
583 1 -1.1104 9.75404 -3.97469 23.6082
585 2 2.2208 8.10128 0.227716 24.8639
586 1 -1.1104 9.58164 -3.68614 26.1604
588 2 2.2208 8.23197 -2.421 22.1342
590 1 -1.1104 9.80219 -0.98897 23.3681
591 1 -1.1104 9.50652 -1.00564 26.1327
598 1 -1.1104 12.1733 15.8881 26.4246
426 1 -1.1104 1.08609 4.64072 20.6377
363 1 -1.1104 3.98709 1.77285 20.8261
417 1 -1.1104 1.04631 7.3893 20.8158
540 1 -1.1104 1.20696 1.99714 23.6
544 1 -1.1104 0.851655 1.69496 26.2388
550 2 2.2208 5.32976 3.11526 24.8734
554 1 -1.1104 3.69928 1.48957 23.3891
557 1 -1.1104 3.69011 1.79871 26.1994
559 2 2.2208 2.49847 3.06613 22.0306
603 2 2.2208 5.20197 5.97752 22.1441
607 1 -1.1104 0.965368 7.3709 26.5543
609 1 -1.1104 1.12809 4.59274 23.3611
614 1 -1.1104 1.12356 4.76491 26.3661
618 1 -1.1104 3.95254 7.2174 23.554
619 2 2.2208 2.56711 5.87811 24.8217
621 1 -1.1104 3.7422 7.36025 26.5144
623 1 -1.1104 3.74182 4.39492 23.4422
625 1 -1.1104 3.92338 4.4555 26.0737
605 1 -1.1104 1.18422 7.31353 23.5601
608 1 -1.1104 6.67487 7.34727 26.2772
616 1 -1.1104 6.632 4.83211 26.4159
321 2 2.2208 5.11504 14.4944 13.67
9201 2 2.2208 -0.444411 -2.39608 24.9565
592 1 -1.1104 6.77022 18.5032 23.3042
9417 2 2.2208 -0.482032 3.03463 24.9653
464 1 -1.1104 9.40194 7.51642 20.6161
563 2 2.2208 2.45647 -2.56811 27.5298
655 1 -1.1104 12.1511 15.6779 23.4698
606 1 -1.1104 6.52472 7.44528 23.3051
611 1 -1.1104 6.52421 4.58855 23.4176
546 1 -1.1104 6.67717 2.07766 26.4402
542 1 -1.1104 6.9335 1.75558 23.4918
457 1 -1.1104 12.3826 4.82853 20.7148
576 1 -1.1104 12.4097 1.83145 23.5694
578 1 -1.1104 12.293 1.83131 26.2597
581 2 2.2208 10.9384 3.16459 24.9551
584 1 -1.1104 9.56566 1.90322 23.6528
587 1 -1.1104 9.55903 1.81961 26.4425
589 2 2.2208 8.1456 3.12363 22.1045
635 1 -1.1104 9.58155 4.5975 26.3936
637 1 -1.1104 9.46737 4.70703 23.4998
639 1 -1.1104 9.52307 7.35328 26.1594
641 2 2.2208 7.99277 6.09468 24.7307
642 2 2.2208 10.8959 5.94931 22.0843
644 1 -1.1104 12.5226 7.4837 23.4837
646 1 -1.1104 12.387 4.66957 23.5298
649 1 -1.1104 12.4525 4.65935 26.3207
651 1 -1.1104 9.55205 7.43764 23.3759
645 1 -1.1104 12.2458 7.4123 26.4287
444 1 -1.1104 3.85506 10.2968 20.824
485 1 -1.1104 6.73008 12.8133 20.763
428 1 -1.1104 1.01312 10.1496 20.7429
604 2 2.2208 5.22597 11.6857 22.2422
610 1 -1.1104 1.05807 10.11 23.5387
613 2 2.2208 5.35834 8.84215 24.9014
615 1 -1.1104 0.821285 10.2253 26.4052
620 2 2.2208 2.35943 11.6365 25.0242
622 2 2.2208 2.54206 8.79989 22.3685
624 1 -1.1104 3.88822 10.2165 23.6361
626 1 -1.1104 3.71228 10.3175 26.4741
473 1 -1.1104 3.88241 13.0779 26.4229
535 1 -1.1104 1.04537 13.1264 23.5082
599 1 -1.1104 1.18062 13.0665 26.3833
653 1 -1.1104 3.81887 13.1035 23.6615
654 1 -1.1104 6.69933 12.8787 26.5012
570 1 -1.1104 6.51767 12.9097 23.6995
617 1 -1.1104 6.65779 10.2642 26.1568
596 1 -1.1104 9.42603 18.5687 23.8618
9381 2 2.2208 -0.35701 19.9064 19.2134
9272 2 2.2208 13.6123 -2.4365 22.0337
595 2 2.2208 7.9432 17.09 24.9324
631 1 -1.1104 12.3399 18.3947 23.5236
566 2 2.2208 8.13706 20.0448 22.057
515 1 -1.1104 12.4062 13.1712 20.8194
526 1 -1.1104 9.26693 13.1023 20.6127
612 1 -1.1104 6.62968 10.1329 23.429
459 1 -1.1104 12.328 10.4986 20.7493
634 1 -1.1104 9.47469 10.1721 26.3285
636 1 -1.1104 9.42568 10.1248 23.4221
638 2 2.2208 7.90805 8.82533 21.9722
640 2 2.2208 8.23998 11.5326 24.9829
643 2 2.2208 10.8384 11.6577 22.0667
647 1 -1.1104 12.3337 10.3168 23.5261
648 2 2.2208 10.933 8.74758 24.878
650 1 -1.1104 12.1913 10.2335 26.1614
405 1 -1.1104 9.72288 12.8034 26.1626
597 1 -1.1104 9.46907 13.0518 23.514
630 1 -1.1104 12.3116 13.0281 23.8207
632 1 -1.1104 12.2474 12.9413 26.6064
495 1 -1.1104 6.60644 15.686 20.6803
601 2 2.2208 10.7882 14.3922 24.9546
487 1 -1.1104 6.81369 18.575 20.4999
483 1 -1.1104 1.43575 18.5524 20.5887
502 1 -1.1104 4.17517 18.6647 20.701
571 2 2.2208 5.17359 14.3605 25.0129
371 2 2.2208 2.23041 14.3436 22.1403
373 1 -1.1104 3.67495 18.739 23.5588
374 2 2.2208 2.56433 20.0004 22.0913
410 1 -1.1104 3.86816 16.0986 23.3719
411 1 -1.1104 0.865187 15.9028 23.7265
508 1 -1.1104 3.71792 15.858 26.5466
509 2 2.2208 2.45067 17.385 25.1123
510 1 -1.1104 3.77184 18.7112 26.469
534 2 2.2208 5.27945 17.1016 21.9988
536 1 -1.1104 0.869471 18.8211 23.2537
572 2 2.2208 5.23684 20.1114 24.8488
602 1 -1.1104 1.02318 15.998 26.482
629 1 -1.1104 1.04911 18.9003 26.2099
408 2 2.2208 7.94315 14.4997 22.0161
372 2 2.2208 -0.257962 0.246406 16.3475
9155 2 2.2208 13.6071 17.3537 13.8219
537 2 2.2208 13.7157 17.2368 25.1764
658 2 2.2208 11.0427 -2.53948 13.743
9277 2 2.2208 -0.252829 11.6097 16.6137
9388 2 2.2208 -0.468145 11.4775 22.0214
312 2 2.2208 5.29009 17.2491 27.7557
9415 2 2.2208 -0.295108 11.65 27.6999
593 2 2.2208 8.08288 -2.48372 27.6903
9507 2 2.2208 -0.181619 17.4329 27.7351
332 2 2.2208 10.9282 5.86081 27.6605
9240 2 2.2208 -0.229635 3.07578 19.1832
9387 2 2.2208 -0.38724 5.95079 27.6315
314 2 2.2208 -0.3661 -2.64559 13.7398
376 2 2.2208 5.37813 -2.39349 13.7239
8602 2 2.2208 8.33638 -5.23605 13.9221
663 2 2.2208 5.50766 22.7466 5.26868
665 1 -1.1104 1.02963 24.3456 1.21002
666 1 -1.1104 0.997974 24.3941 3.92007
667 1 -1.1104 1.03479 21.6764 1.10349
669 2 2.2208 5.22734 25.6324 2.49357
670 1 -1.1104 1.17879 21.5095 3.77032
672 1 -1.1104 3.74932 24.4984 1.20231
673 2 2.2208 2.58275 23.0018 2.58643
675 1 -1.1104 3.88044 24.3712 4.02122
676 2 2.2208 2.42981 25.8015 5.22195
677 1 -1.1104 3.78595 21.5584 1.0206
679 1 -1.1104 3.93882 21.4375 3.73207
804 1 -1.1104 1.25548 21.3358 6.50339
686 1 -1.1104 6.5406 21.4439 1.06426
688 1 -1.1104 6.73561 21.4884 3.66448
668 1 -1.1104 1.00021 27.1888 1.05147
671 1 -1.1104 0.985829 27.0827 3.95984
1295 1 -1.1104 6.48587 46.6382 4.12489
808 1 -1.1104 3.77634 24.4833 6.77845
805 1 -1.1104 1.06099 27.1723 6.75119
802 1 -1.1104 1.04254 24.3115 6.60284
9819 2 2.2208 -0.394515 25.7408 2.38711
9716 2 2.2208 13.4858 36.8374 10.8625
9830 2 2.2208 13.4327 39.781 2.43504
685 1 -1.1104 6.52696 24.3337 3.86969
684 1 -1.1104 6.66835 24.1492 0.8671
803 1 -1.1104 6.74132 24.3315 6.96003
690 2 2.2208 10.7969 22.8268 5.03785
692 1 -1.1104 12.4588 24.0703 0.957897
693 1 -1.1104 11.9954 24.3726 3.70618
694 1 -1.1104 12.4725 21.2408 1.21436
696 2 2.2208 10.6777 25.7464 2.26262
697 1 -1.1104 12.2084 21.3363 3.75078
699 1 -1.1104 9.59916 24.085 0.812974
700 2 2.2208 8.03954 22.8224 2.31677
702 1 -1.1104 9.28758 24.3971 3.69936
703 2 2.2208 7.98678 25.585 5.32252
704 1 -1.1104 9.56249 21.4419 1.09
706 1 -1.1104 9.49083 21.3937 4.07102
698 1 -1.1104 12.1146 27.0615 3.66575
891 1 -1.1104 11.95 27.2581 6.82623
839 1 -1.1104 9.25525 26.953 6.62908
835 1 -1.1104 12.1696 24.4177 6.61427
705 1 -1.1104 9.45765 27.0976 0.856069
707 1 -1.1104 9.23275 26.9468 3.80397
695 1 -1.1104 12.067 26.9729 0.872857
837 1 -1.1104 9.36282 24.224 6.54995
838 1 -1.1104 9.73913 21.6817 6.69573
807 1 -1.1104 6.60887 27.2167 6.74509
1528 1 -1.1104 9.20381 46.6962 12.2218
680 1 -1.1104 3.83278 27.1343 3.89343
678 1 -1.1104 3.67545 27.3449 0.849795
664 2 2.2208 5.20028 28.5371 5.31298
674 2 2.2208 2.29159 28.7738 2.30284
713 1 -1.1104 0.859191 30.0485 1.10058
716 1 -1.1104 0.756599 29.9082 3.65019
719 1 -1.1104 0.595663 32.6438 1.08481
720 2 2.2208 4.94868 31.3155 2.42472
722 1 -1.1104 0.905421 32.8997 4.07501
724 1 -1.1104 3.71742 30.1837 0.985887
727 1 -1.1104 3.51897 29.8354 3.905
729 2 2.2208 2.46809 31.26 5.20817
731 1 -1.1104 3.45693 32.9318 1.17155
732 1 -1.1104 3.75937 32.7923 3.73342
736 1 -1.1104 6.27077 30.0275 3.80714
735 1 -1.1104 6.45438 29.5883 0.836357
865 1 -1.1104 3.85139 32.9964 6.7246
966 2 2.2208 10.814 36.8272 13.5843
857 1 -1.1104 1.3257 29.9678 6.77563
863 1 -1.1104 4.01859 30.0422 6.58357
1498 1 -1.1104 3.43128 46.6479 12.4313
9817 2 2.2208 13.5888 42.4862 10.6636
737 1 -1.1104 6.41774 32.5338 0.9551
687 1 -1.1104 6.46895 26.8931 0.938785
689 1 -1.1104 6.48486 27.1361 3.90523
723 1 -1.1104 6.72952 32.657 3.76835
691 2 2.2208 10.7234 28.2934 5.14909
701 2 2.2208 7.75922 28.3694 2.33032
739 1 -1.1104 12.0345 29.6862 0.879988
742 1 -1.1104 12.1481 32.4838 1.06915
743 2 2.2208 10.5657 30.9726 2.18314
745 1 -1.1104 9.24955 29.6248 0.8206
748 1 -1.1104 8.97953 29.8081 3.766
750 2 2.2208 7.94997 31.3224 5.04705
752 1 -1.1104 9.155 32.3604 0.877713
753 1 -1.1104 9.69678 32.6994 3.55381
893 1 -1.1104 11.7954 29.9214 3.56916
965 2 2.2208 13.351 31.3028 10.7383
862 1 -1.1104 6.68286 32.8776 6.64217
1284 2 2.2208 2.42658 23.097 13.6275
712 2 2.2208 5.07407 34.1729 5.19828
714 1 -1.1104 0.817664 35.3113 1.02473
717 1 -1.1104 0.696265 35.5775 3.97867
721 2 2.2208 5.19914 36.9399 2.44599
725 1 -1.1104 3.70833 35.8328 0.921078
726 2 2.2208 2.12304 34.3006 2.63218
728 1 -1.1104 3.77708 35.5891 3.92301
730 2 2.2208 2.35652 37.0386 5.43859
755 2 2.2208 4.8035 39.9321 5.08616
761 1 -1.1104 1.06082 38.1744 1.12099
766 1 -1.1104 1.0131 38.5191 4.01213