ITEM: TIMESTEP
80000
ITEM: NUMBER OF ATOMS
17640
ITEM: BOX BOUNDS pp pp pp
-5.0277719154383504e-01 2.7842777191543480e+01
-5.8446734923101804e+00 3.3392467349231157e+02
-5.1073657716014609e-01 2.7850736577160792e+01
ITEM: ATOMS id type q x y z
1 2 2.2208 5.30383 -0.180049 5.1587
2 1 -1.1104 0.963705 -4.34567 0.94724
6 1 -1.1104 1.04944 -4.5901 3.70096
10 1 -1.1104 0.949207 -1.52889 0.998051
12 2 2.2208 5.15126 -2.88222 2.15218
14 1 -1.1104 0.920587 -1.80226 3.47258
16 1 -1.1104 3.7997 -4.29899 0.895467
18 2 2.2208 2.4336 -0.225959 2.37589
19 1 -1.1104 3.94423 -4.48411 3.63896
21 2 2.2208 2.50113 -3.13245 5.23095
23 1 -1.1104 3.61976 -1.54209 0.979697
24 1 -1.1104 3.79257 -1.76295 3.62706
4 1 -1.1104 6.52923 -4.40763 0.746804
11 1 -1.1104 6.38876 -1.53838 0.50362
8995 2 2.2208 7.91929 -5.82168 2.3458
170 1 -1.1104 1.34396 -1.73817 6.68599
168 1 -1.1104 6.57496 -4.29887 6.30277
351 2 2.2208 2.25692 5.5077 13.4823
15 1 -1.1104 6.60634 -1.56731 3.62965
8 1 -1.1104 6.61865 -4.45171 3.51764
31 2 2.2208 10.7157 -0.0892051 5.11808
32 1 -1.1104 12.2475 -4.25812 0.951941
34 1 -1.1104 12.1855 -4.67108 3.93427
36 1 -1.1104 12.2153 -1.62942 0.96997
37 2 2.2208 10.7726 -3.10254 2.28473
39 1 -1.1104 12.0616 -1.71443 3.71135
40 1 -1.1104 9.0987 -4.44116 0.96688
42 2 2.2208 7.96189 -0.213534 2.19163
43 1 -1.1104 9.41216 -4.51452 3.79947
45 2 2.2208 7.91183 -3.05798 4.92432
47 1 -1.1104 9.33727 -1.51767 0.772978
48 1 -1.1104 9.36125 -1.59936 3.53375
171 1 -1.1104 6.5227 -1.56151 6.34985
207 1 -1.1104 12.1608 -1.58811 6.5351
208 1 -1.1104 9.51262 -4.7112 6.46703
337 2 2.2208 -0.472226 2.58895 13.5219
26 2 2.2208 -0.406777 -0.30579 4.84385
20 1 -1.1104 3.63312 1.27923 3.94821
3 1 -1.1104 1.11118 1.1171 0.809725
7 1 -1.1104 0.862322 1.04642 3.50175
13 2 2.2208 5.13101 2.58845 2.25444
17 1 -1.1104 3.75037 1.37332 0.769497
22 2 2.2208 2.45683 2.70688 5.36451
54 2 2.2208 5.06714 5.52423 5.04867
60 1 -1.1104 1.11856 3.81819 0.852514
67 1 -1.1104 0.81258 4.33589 3.65301
72 2 2.2208 2.32821 5.43711 2.22775
76 1 -1.1104 3.68144 4.20976 0.862807
79 1 -1.1104 3.4899 4.03964 3.67767
56 1 -1.1104 1.12716 6.79907 0.66976
58 1 -1.1104 0.915316 7.08791 3.34903
71 1 -1.1104 3.92273 6.78699 0.661708
74 1 -1.1104 3.94712 6.90116 3.5157
235 1 -1.1104 6.38825 6.87457 6.44581
236 1 -1.1104 1.03014 4.23819 6.09685
238 1 -1.1104 3.67964 7.23419 6.51508
234 1 -1.1104 1.08224 7.31562 6.37919
173 1 -1.1104 3.95053 1.25255 6.57862
237 1 -1.1104 6.61119 4.26275 6.49818
69 1 -1.1104 6.44253 3.81769 3.81285
9 1 -1.1104 6.55861 0.996116 3.5656
63 1 -1.1104 6.58507 3.98301 1.12113
57 1 -1.1104 6.861 7.19401 0.943259
5 1 -1.1104 6.39675 1.15317 0.750115
59 1 -1.1104 6.58594 6.99242 3.82497
33 1 -1.1104 12.1571 1.33623 1.0305
35 1 -1.1104 12.0979 1.26522 3.89426
38 2 2.2208 10.6521 2.7776 2.16791
41 1 -1.1104 9.30421 1.3036 0.788622
44 1 -1.1104 9.522 1.27531 3.5661
46 2 2.2208 7.82375 2.73594 5.12927
84 2 2.2208 10.9162 5.59099 4.94762
88 1 -1.1104 11.9938 4.02486 0.691631
92 1 -1.1104 11.9745 4.07003 3.50213
95 2 2.2208 7.98586 5.56189 2.38423
99 1 -1.1104 9.18829 4.23037 0.992221
102 1 -1.1104 9.16829 4.36692 3.90965
94 1 -1.1104 9.48818 6.93108 0.977384
97 1 -1.1104 9.7037 7.02708 3.68013
86 1 -1.1104 12.2936 7.11655 0.824678
87 1 -1.1104 12.3776 6.81971 3.70899
169 1 -1.1104 6.59499 1.39849 6.45074
206 1 -1.1104 12.1995 1.16421 6.61949
265 1 -1.1104 12.2792 6.97219 6.53763
266 1 -1.1104 12.1236 3.92997 6.34108
338 2 2.2208 5.13896 -2.98549 13.6058
55 2 2.2208 4.99705 11.4605 5.07858
61 1 -1.1104 0.928217 9.57436 0.788211
66 2 2.2208 5.23851 8.42728 2.18534
68 1 -1.1104 1.03679 9.69858 3.6712
73 2 2.2208 2.27079 11.1131 2.44264
75 2 2.2208 2.45162 8.44122 5.0441
77 1 -1.1104 3.91177 9.76355 0.718779
80 1 -1.1104 3.86884 9.73847 3.4217
107 1 -1.1104 1.0466 12.6799 0.957116
113 1 -1.1104 0.957356 12.7191 3.85346
123 1 -1.1104 3.76745 12.6582 1.01475
128 1 -1.1104 3.72304 12.4866 3.59179
78 1 -1.1104 3.87767 9.97846 6.36137
9011 2 2.2208 5.10253 -5.71743 -0.498213
317 2 2.2208 8.06756 14.0072 10.4907
315 1 -1.1104 9.45711 15.244 11.9992
352 2 2.2208 5.05308 8.45024 13.4494
105 2 2.2208 13.4921 5.5451 1.88181
115 1 -1.1104 6.71074 12.755 3.2719
110 1 -1.1104 6.35032 12.6586 0.538073
64 1 -1.1104 6.7294 9.92047 0.625491
70 1 -1.1104 6.53884 9.88611 3.54423
85 2 2.2208 10.711 11.0521 4.89884
89 1 -1.1104 12.3031 9.95651 0.927279
91 2 2.2208 11.0233 8.31951 2.29567
93 1 -1.1104 12.3457 9.70744 3.82071
96 2 2.2208 7.99254 11.2535 1.94177
98 2 2.2208 7.93439 8.37371 4.92959
100 1 -1.1104 9.5567 9.9614 0.510085
103 1 -1.1104 9.37481 9.81962 3.35067
142 1 -1.1104 12.1449 12.5291 0.774425
146 1 -1.1104 12.1816 12.5842 3.75688
153 1 -1.1104 9.2783 12.7721 0.903223
158 1 -1.1104 9.41396 12.4978 3.48969
154 1 -1.1104 9.47552 12.5468 6.37099
30 2 2.2208 -0.317267 8.39454 8.08389
101 1 -1.1104 9.25537 9.73406 6.354
143 1 -1.1104 12.1793 12.658 6.75127
9002 2 2.2208 10.8839 -5.80775 10.8305
119 2 2.2208 5.19244 14.0952 1.96341
130 2 2.2208 2.27793 14.256 5.13934
106 2 2.2208 5.02761 17.0468 5.01258
109 1 -1.1104 1.12871 18.6291 0.933921
114 1 -1.1104 0.74237 18.1989 3.75657
116 1 -1.1104 0.892393 15.3788 0.799344
120 2 2.2208 5.02873 19.7911 2.21693
121 1 -1.1104 0.715335 15.5563 3.72229
125 1 -1.1104 3.83938 18.2049 0.946987
127 2 2.2208 2.25373 16.8686 2.40506
129 1 -1.1104 3.44582 18.5889 3.56183
131 2 2.2208 2.22948 19.7764 4.92364
132 1 -1.1104 3.78484 15.5669 0.726525
134 1 -1.1104 3.59095 15.555 3.52858
8999 2 2.2208 5.34064 -5.74854 10.6433
313 2 2.2208 -0.429807 13.8442 8.13609
311 2 2.2208 -0.49875 19.7067 7.95117
150 2 2.2208 10.7969 14.0122 2.29302
140 1 -1.1104 6.49162 15.4651 0.645647
138 1 -1.1104 6.46833 18.3134 0.839377
139 1 -1.1104 6.32472 18.625 3.726
122 1 -1.1104 6.30609 15.7694 3.54773
160 2 2.2208 7.95713 14.1213 4.76328
141 2 2.2208 10.9921 16.8883 4.78385
144 1 -1.1104 12.2578 18.1654 0.809541
147 1 -1.1104 12.6231 18.3703 3.60627
148 1 -1.1104 12.3841 15.2937 0.682737
151 2 2.2208 10.8131 19.8491 2.08002
152 1 -1.1104 12.191 15.53 3.37407
155 1 -1.1104 9.2616 18.5553 0.758273
157 2 2.2208 8.02302 16.9192 2.31358
159 1 -1.1104 9.58679 18.3996 3.41675
161 2 2.2208 7.96047 19.7678 4.92707
162 1 -1.1104 9.55536 15.3986 0.890365
164 1 -1.1104 9.50266 15.3591 3.47168
156 1 -1.1104 9.27637 17.9755 6.1545
163 1 -1.1104 9.51509 15.3337 6.13174
149 1 -1.1104 12.4038 15.6962 6.36582
333 2 2.2208 13.6196 14.1123 10.6809
353 2 2.2208 2.32653 11.344 13.5695
202 2 2.2208 13.6825 5.67435 7.99357
166 1 -1.1104 0.896532 -4.42084 6.8963
172 1 -1.1104 3.89214 -4.4528 6.48972
174 1 -1.1104 3.91032 -1.65787 6.45875
175 2 2.2208 5.06518 -0.0693581 10.927
176 1 -1.1104 0.733614 -4.24713 12.3065
180 1 -1.1104 0.892216 -4.37163 9.62381
184 1 -1.1104 0.912526 -1.54839 12.2727
186 2 2.2208 5.25808 -2.89858 7.84753
188 1 -1.1104 1.0527 -1.5711 9.49524
190 1 -1.1104 3.94713 -4.50107 12.3879
192 2 2.2208 2.52945 -0.221851 7.82551
193 1 -1.1104 3.61089 -4.49313 9.66387
195 2 2.2208 2.18673 -2.86031 10.9396
197 1 -1.1104 3.52118 -1.53743 12.2969
198 1 -1.1104 3.64522 -1.48262 9.16115
185 1 -1.1104 6.72413 -1.3439 12.1866
376 2 2.2208 13.5065 11.1381 13.5115
360 2 2.2208 10.8568 19.7146 13.5268
332 2 2.2208 13.4761 17.1553 7.97441
359 2 2.2208 5.25472 13.899 13.6666
201 2 2.2208 -0.269049 -0.147022 10.7828
182 1 -1.1104 6.55063 -4.16897 9.22597
178 1 -1.1104 6.74734 -4.38437 12.1299
205 1 -1.1104 12.3374 -4.41194 6.56012
189 1 -1.1104 6.39624 -1.47605 9.44167
210 1 -1.1104 9.10411 -1.65928 6.37816
211 2 2.2208 10.7777 -0.0581241 10.6466
212 1 -1.1104 12.2543 -4.42513 11.8686
214 1 -1.1104 12.4916 -4.1928 9.29874
216 1 -1.1104 12.4222 -1.60201 12.1544
217 2 2.2208 10.9495 -2.92056 7.93651
219 1 -1.1104 12.1656 -1.29767 9.46525
220 1 -1.1104 9.61487 -4.15747 12.1736
222 2 2.2208 8.0362 -0.206651 7.88217
223 1 -1.1104 9.57326 -4.61208 9.06819
225 2 2.2208 7.99481 -2.73498 10.677
227 1 -1.1104 9.52001 -1.52544 12.4184
228 1 -1.1104 9.4383 -1.62168 9.20103
231 2 2.2208 13.657 19.8292 5.12324
314 1 -1.1104 9.27952 15.427 9.11588
167 1 -1.1104 1.07753 1.20858 6.27656
239 1 -1.1104 3.81347 4.17654 6.51812
177 1 -1.1104 1.37 1.27439 12.2545
181 1 -1.1104 0.939074 1.29083 8.92749
187 2 2.2208 5.20503 2.75551 7.98204
191 1 -1.1104 4.03667 1.30656 12.0356
194 1 -1.1104 3.64183 1.21173 9.19297
196 2 2.2208 2.55712 2.73817 10.5628
240 2 2.2208 5.12944 5.70056 10.8224
246 1 -1.1104 0.902094 3.93404 11.9336
251 1 -1.1104 1.08147 3.9567 9.43408
256 2 2.2208 2.38185 5.51424 7.78017
260 1 -1.1104 3.64381 4.21198 12.0535
262 1 -1.1104 3.87471 4.23438 9.18822
258 1 -1.1104 3.93432 6.96963 9.55987
242 1 -1.1104 0.896158 7.05255 12.1724
244 1 -1.1104 1.19208 6.80862 9.33622
255 1 -1.1104 3.44763 6.80369 12.107
243 1 -1.1104 6.53361 6.78979 12.1848
245 1 -1.1104 6.62582 6.96167 9.4687
204 2 2.2208 13.5754 13.9818 5.06702
233 2 2.2208 13.441 2.77484 5.09309
267 1 -1.1104 9.29213 7.06663 6.58892
248 1 -1.1104 6.46246 4.15366 12.1868
269 1 -1.1104 9.34662 4.26022 6.67767
179 1 -1.1104 6.66123 1.25142 12.3227
183 1 -1.1104 6.61291 1.41094 9.53353
253 1 -1.1104 6.57931 4.15064 9.29861
209 1 -1.1104 9.36644 1.22179 6.32797
213 1 -1.1104 12.2903 1.45709 12.1739
215 1 -1.1104 12.2582 1.36936 9.44903
218 2 2.2208 10.7807 2.77785 7.91904
221 1 -1.1104 9.3638 1.31087 12.2971
224 1 -1.1104 9.40591 1.23256 9.27785
226 2 2.2208 7.87217 2.773 10.9959
268 1 -1.1104 9.66712 4.00154 9.52199
271 1 -1.1104 9.42699 4.02302 12.3175
275 2 2.2208 7.99564 5.57365 7.92088
276 2 2.2208 10.842 5.57347 10.928
280 1 -1.1104 12.5015 4.18109 12.1059
283 1 -1.1104 12.3727 4.25336 9.25147
285 1 -1.1104 9.48658 6.99096 12.3963
279 1 -1.1104 12.2343 6.95269 9.73972
278 1 -1.1104 12.3136 7.09561 12.3888
273 1 -1.1104 9.31797 6.99873 9.35065
62 1 -1.1104 1.09143 9.98788 6.49336
108 1 -1.1104 0.963471 12.7264 6.46337
124 1 -1.1104 3.60774 12.7563 6.64424
299 1 -1.1104 0.89458 12.7077 12.291
241 2 2.2208 5.3884 11.1514 10.6208
247 1 -1.1104 1.13911 9.90868 12.3473
250 2 2.2208 5.28555 8.24578 7.82452
252 1 -1.1104 0.959328 9.71156 9.34219
257 2 2.2208 2.34093 11.1808 7.99285
259 2 2.2208 2.21667 8.36795 10.8576
261 1 -1.1104 4.07648 9.74041 12.0611
263 1 -1.1104 3.75061 9.66635 9.23393
305 1 -1.1104 3.79971 12.5349 9.24984
287 1 -1.1104 3.60247 12.3607 11.8488
294 1 -1.1104 0.869135 12.4781 9.30681
254 1 -1.1104 6.85493 9.7775 9.06711
316 2 2.2208 7.80038 19.7233 10.6037
9001 2 2.2208 7.98545 -5.71379 7.6959
27 2 2.2208 -0.404218 2.41614 2.13186
90 1 -1.1104 12.078 9.79836 6.4144
290 1 -1.1104 6.75308 12.7088 9.26864
249 1 -1.1104 6.64695 9.48149 12.1029
297 1 -1.1104 6.57773 12.5993 11.898
111 1 -1.1104 6.33737 12.5895 6.54692
65 1 -1.1104 6.51593 9.79047 6.0785
328 1 -1.1104 12.206 12.5969 9.52573
322 1 -1.1104 9.25548 12.7068 12.1632
319 1 -1.1104 9.44521 12.8318 9.27002
264 1 -1.1104 9.44463 9.88232 9.16581
270 1 -1.1104 9.35559 9.72086 12.1293
272 2 2.2208 8.26694 8.33479 10.8188
274 2 2.2208 7.90747 11.2334 7.72676
277 2 2.2208 10.7728 11.3041 10.7052
281 1 -1.1104 12.1612 10.0471 12.0084
282 2 2.2208 10.7644 8.43141 7.82559
284 1 -1.1104 12.1499 9.67373 9.4007
330 1 -1.1104 12.3678 12.5803 12.084
229 2 2.2208 13.5868 0.0412804 8.11153
362 2 2.2208 8.01219 16.7964 13.3823
306 1 -1.1104 6.58917 15.5571 11.9987
117 1 -1.1104 1.02205 15.5311 6.63539
133 1 -1.1104 3.71668 15.6618 6.34173
323 1 -1.1104 12.376 15.6248 9.28135
296 1 -1.1104 6.57122 18.2229 12.1736
82 2 2.2208 -0.429604 8.30552 2.22889
302 1 -1.1104 0.914281 18.2088 6.52312
126 1 -1.1104 3.88054 18.3726 6.58546
295 2 2.2208 5.06461 14.071 7.94814
310 2 2.2208 2.25615 13.967 10.7347
298 1 -1.1104 1.03558 18.4889 12.3274
309 2 2.2208 2.39104 19.8269 10.9091
304 1 -1.1104 3.74071 15.4723 9.13436
308 1 -1.1104 3.95508 15.426 11.9738
307 1 -1.1104 1.29 15.4003 12.1081
303 2 2.2208 2.29919 17.041 8.13021
301 1 -1.1104 3.51234 18.3803 9.58633
300 2 2.2208 5.09041 16.8887 10.7115
286 1 -1.1104 3.81586 18.0973 12.3308
291 1 -1.1104 0.819087 18.3139 9.54572
292 1 -1.1104 1.08427 15.574 9.4912
293 2 2.2208 5.1029 19.7549 8.0275
53 2 2.2208 13.513 11.1542 7.92149
318 1 -1.1104 9.67384 17.9779 9.14005
343 2 2.2208 7.98518 -0.086816 13.6809
320 2 2.2208 7.94342 16.789 7.68904
112 1 -1.1104 6.57561 18.3314 6.4146
326 1 -1.1104 12.0775 15.6619 12.1672
327 1 -1.1104 12.1615 18.6304 9.50463
118 1 -1.1104 6.59658 15.5666 6.03556
145 1 -1.1104 12.1474 18.4412 6.45182
324 2 2.2208 10.788 19.7165 7.88921
321 1 -1.1104 9.49123 18.321 12.1005
331 2 2.2208 10.8607 16.8717 10.6393
325 2 2.2208 10.8811 14.1494 7.8621
288 1 -1.1104 6.47515 18.404 9.2385
329 1 -1.1104 12.2583 18.6928 11.9947
289 1 -1.1104 6.43962 15.6035 9.04615
50 2 2.2208 13.4876 -2.98238 5.13139
361 2 2.2208 10.6803 14.0314 13.5366
363 2 2.2208 13.6161 16.7426 13.6448
8992 2 2.2208 2.53666 -5.67024 2.21706
135 2 2.2208 -0.404288 14.0281 2.4141
199 2 2.2208 -0.514806 2.53505 7.7603
49 2 2.2208 13.4702 -0.146178 2.34623
83 2 2.2208 -0.488381 11.1664 5.28912
9019 2 2.2208 2.4397 -5.78459 13.6358
8998 2 2.2208 2.44996 -5.82095 8.21491
200 2 2.2208 -0.456116 -2.96166 8.04296
341 2 2.2208 5.09377 2.70356 13.4926
28 2 2.2208 13.5777 19.809 10.7727
340 2 2.2208 13.5957 -0.166294 13.6682
335 2 2.2208 -0.415343 19.7657 13.5625
354 2 2.2208 8.15181 5.43952 13.5894
373 2 2.2208 2.2145 13.9947 -0.508766
384 2 2.2208 10.9229 5.70633 -0.4935
342 2 2.2208 -0.267037 14.0666 13.5848
357 2 2.2208 2.4602 16.776 13.6498
388 2 2.2208 4.99419 -0.162695 16.5398
389 1 -1.1104 1.0693 -4.44668 18.085
393 1 -1.1104 0.828392 -4.15919 15.3183
401 1 -1.1104 0.970541 -1.63352 17.7508
403 2 2.2208 5.35567 -3.20017 19.2184
405 1 -1.1104 0.939175 -1.59621 15.1919
409 1 -1.1104 4.03756 -4.52835 17.8324
411 2 2.2208 2.14821 -0.324444 19.1356
412 1 -1.1104 3.72096 -4.272 14.9466
416 2 2.2208 2.6198 -2.83887 16.4549
418 1 -1.1104 3.71343 -1.67383 17.9606
419 1 -1.1104 3.7258 -1.53821 15.0483
397 1 -1.1104 6.67128 -4.45851 14.9896
377 2 2.2208 13.5235 -3.18003 27.806
381 2 2.2208 5.05069 11.1963 27.6903
413 1 -1.1104 3.92129 -4.54724 20.878
394 1 -1.1104 0.808777 -4.6008 20.7165
420 1 -1.1104 3.59476 -1.65209 20.758
407 1 -1.1104 6.46324 -1.51546 14.6496
391 1 -1.1104 6.78034 -4.45865 18.1391
402 1 -1.1104 6.56859 -1.69376 17.7792
431 2 2.2208 10.7874 -0.116987 16.4062
432 1 -1.1104 12.6029 -4.2218 17.943
434 1 -1.1104 12.1636 -4.33763 15.1024
438 1 -1.1104 12.3229 -1.33413 17.9095
439 2 2.2208 10.9215 -3.1203 19.5142
441 1 -1.1104 12.2195 -1.65958 15.0577
443 1 -1.1104 9.70022 -4.40584 17.886
445 2 2.2208 8.01443 -0.243249 19.1291
446 1 -1.1104 9.4215 -4.46041 15.0822
450 2 2.2208 8.03477 -3.02531 16.527
452 1 -1.1104 9.43527 -1.59921 18.1141
453 1 -1.1104 9.3219 -1.57127 15.4297
456 2 2.2208 -0.450024 16.9489 16.4755
398 1 -1.1104 6.75385 -4.55161 20.7153
454 1 -1.1104 9.27321 -1.81643 20.6714
447 1 -1.1104 9.37738 -4.6634 20.8299
379 2 2.2208 5.0787 5.657 27.5633
414 1 -1.1104 3.77043 1.41691 15.4536
390 1 -1.1104 0.903027 1.11518 17.9402
395 1 -1.1104 1.00029 1.28426 15.0882
404 2 2.2208 5.06031 2.58551 19.3758
410 1 -1.1104 3.57686 1.18798 17.9985
417 2 2.2208 2.04993 2.6792 16.7439
464 2 2.2208 5.19975 5.70365 16.3543
472 1 -1.1104 0.687384 4.22254 18.2301
477 1 -1.1104 1.062 4.10484 15.0017
486 2 2.2208 2.32397 5.62438 19.4641
491 1 -1.1104 3.3752 3.98554 17.9238
493 1 -1.1104 3.8837 4.19017 15.023
466 1 -1.1104 0.953839 7.01898 17.8879
468 1 -1.1104 0.82781 7.11895 15.1946
485 1 -1.1104 3.84875 6.94755 18.0079
488 1 -1.1104 3.70686 7.00117 14.7922
469 1 -1.1104 0.897768 6.62773 20.8923
481 1 -1.1104 6.70361 4.24109 15.1317
399 1 -1.1104 6.53211 1.24849 15.0365
470 1 -1.1104 6.84115 7.21007 14.9388
372 2 2.2208 7.74896 2.65417 27.8089
415 1 -1.1104 3.71228 1.47416 20.7436
396 1 -1.1104 0.656811 0.954077 20.513
648 2 2.2208 -0.476506 11.3444 16.6228
494 1 -1.1104 3.75245 4.23496 20.6619
489 1 -1.1104 3.96145 6.97497 20.6532
524 1 -1.1104 12.2939 15.2517 23.3389
9128 2 2.2208 10.9908 -5.82995 16.6196
467 1 -1.1104 6.60965 6.81471 17.8423
474 1 -1.1104 6.48542 4.04823 17.9871
392 1 -1.1104 6.62735 1.05691 17.9159
433 1 -1.1104 12.428 1.25607 17.8212
436 1 -1.1104 12.1727 1.25561 14.7462
440 2 2.2208 10.8759 2.70736 19.4581
444 1 -1.1104 9.40856 1.36605 18.0469
448 1 -1.1104 9.28995 1.38947 15.3441
451 2 2.2208 7.8644 2.75378 16.7949
500 2 2.2208 10.8034 5.45091 16.6401
502 1 -1.1104 12.2858 7.03467 18.186
505 1 -1.1104 12.211 4.2617 18.0307
508 1 -1.1104 12.1786 4.1046 15.0076
512 1 -1.1104 9.55204 7.08874 17.7526
513 2 2.2208 8.03231 5.66071 19.3649
518 1 -1.1104 9.10487 4.30476 18.0508
520 1 -1.1104 9.59093 4.1572 15.1038
503 1 -1.1104 12.3593 6.86093 15.3376
515 1 -1.1104 9.56229 6.69797 15.0932
355 2 2.2208 10.919 8.33561 13.8378
458 2 2.2208 -0.368538 19.727 19.1665
400 1 -1.1104 6.55462 1.12921 20.5371
482 1 -1.1104 6.62442 4.2621 20.7234
625 2 2.2208 -0.48682 -0.263559 22.112
465 2 2.2208 5.21281 10.9842 16.2766
473 1 -1.1104 0.882671 9.9859 17.9349
476 2 2.2208 5.47374 8.30192 19.2362
479 1 -1.1104 0.979223 9.83802 15.0686
487 2 2.2208 2.36759 11.1079 19.4478
490 2 2.2208 2.4309 8.32842 16.5083
492 1 -1.1104 3.94125 9.70511 17.8051
495 1 -1.1104 3.94526 9.62278 14.9484
528 1 -1.1104 0.615012 12.8041 17.9101
532 1 -1.1104 1.05479 12.6148 15.2034
548 1 -1.1104 3.64864 12.7337 17.8986
551 1 -1.1104 3.72327 12.4762 14.8967
530 1 -1.1104 6.56676 12.7535 17.738
552 1 -1.1104 3.68188 12.7962 20.7046
480 1 -1.1104 0.955488 9.54037 20.7068
483 1 -1.1104 6.54316 9.87988 14.722
9089 2 2.2208 10.7966 -5.79915 22.1559
590 1 -1.1104 9.33662 18.1574 26.5018
587 2 2.2208 8.13498 16.7878 25.0205
537 1 -1.1104 6.69409 12.6063 20.2895
475 1 -1.1104 6.7472 9.67641 17.6139
536 1 -1.1104 6.53214 12.5241 14.7936
501 2 2.2208 11.0024 11.0293 16.5934
506 1 -1.1104 12.1938 9.89228 18.1748
507 2 2.2208 10.4649 8.43609 19.4611
510 1 -1.1104 12.2406 9.5501 15.0119
514 2 2.2208 7.92911 11.2987 19.0549
517 2 2.2208 8.12013 8.39914 16.542
519 1 -1.1104 9.60929 9.91236 18.035
522 1 -1.1104 9.52786 9.73934 15.2477
564 1 -1.1104 12.3605 12.6101 17.6143
566 1 -1.1104 12.2136 12.3425 14.9506
575 1 -1.1104 9.4454 12.5095 17.9039
578 1 -1.1104 9.44862 12.5519 15.0489
567 1 -1.1104 12.2589 12.4549 20.6268
523 1 -1.1104 9.12464 9.8805 20.6754
356 2 2.2208 8.10008 11.2958 13.7314
680 1 -1.1104 6.76543 15.3805 23.312
385 2 2.2208 8.05061 8.49255 27.6224
499 1 -1.1104 12.1972 18.0318 26.1878
542 2 2.2208 5.14845 14.107 19.1791
555 2 2.2208 2.23654 13.9453 16.652
527 2 2.2208 5.14217 16.8843 16.6856
529 1 -1.1104 1.14231 18.4999 18.0424
534 1 -1.1104 0.872445 18.3593 15.0525
540 1 -1.1104 1.14789 15.7271 17.7064
543 2 2.2208 5.19168 19.7125 19.345
544 1 -1.1104 0.891146 15.6054 14.9899
549 1 -1.1104 4.03695 18.4066 17.9585
550 2 2.2208 2.47653 16.9563 19.27
553 1 -1.1104 3.78098 18.1472 15.1389
556 2 2.2208 2.46812 19.9799 16.5769
557 1 -1.1104 3.98801 15.65 18.0071
558 1 -1.1104 3.59796 15.1351 15.0879
350 2 2.2208 10.7945 2.7831 13.6821
538 1 -1.1104 6.70232 18.1368 15.116
531 1 -1.1104 6.71539 18.4957 17.9662
382 2 2.2208 -0.423985 11.2404 27.7888
545 1 -1.1104 0.864102 15.4061 20.6801
581 1 -1.1104 9.60787 18.3524 20.608
546 1 -1.1104 6.76145 15.2027 14.9685
541 1 -1.1104 6.65601 15.6126 18.0247
582 2 2.2208 8.04498 14.0974 16.4087
571 2 2.2208 10.9041 14.0519 19.1304
563 2 2.2208 10.891 16.8382 16.3603
565 1 -1.1104 12.2548 18.1024 17.7606
570 1 -1.1104 12.3078 15.4432 17.9999
572 2 2.2208 10.8529 19.8159 19.1966
573 1 -1.1104 11.955 15.0716 15.1018
576 1 -1.1104 9.48691 18.4187 17.7798
577 2 2.2208 8.17003 17.0172 19.0011
580 1 -1.1104 9.59081 18.3435 15.1641
583 2 2.2208 8.07252 19.6244 16.365
584 1 -1.1104 9.56799 15.2922 17.7914
585 1 -1.1104 9.41798 15.4462 14.843
568 1 -1.1104 12.3633 17.9911 14.9145
586 1 -1.1104 9.5493 15.6479 20.4497
547 1 -1.1104 6.58495 15.6379 20.7261
569 1 -1.1104 12.4877 18.4716 20.3815
560 1 -1.1104 12.0994 15.4062 26.0966
380 2 2.2208 2.28273 8.31476 27.6795
364 2 2.2208 5.03177 -0.22625 27.6477
423 2 2.2208 13.6805 2.72187 22.363
714 1 -1.1104 6.48506 15.5285 26.2586
406 1 -1.1104 0.995625 -1.79348 20.6933
591 2 2.2208 5.11585 -0.394896 21.9847
592 1 -1.1104 0.916122 -4.24078 23.6659
596 1 -1.1104 0.830385 -4.34957 26.5863
600 1 -1.1104 0.98281 -1.5363 23.5372
602 2 2.2208 5.19425 -2.94602 24.8753
604 1 -1.1104 1.00991 -1.8272 26.3454
606 1 -1.1104 3.78123 -4.50362 23.6632
608 2 2.2208 2.32681 -0.34308 24.9577
609 1 -1.1104 3.73919 -4.33332 26.7454
611 2 2.2208 2.40052 -3.10456 21.9448
613 1 -1.1104 3.79732 -1.68434 23.4545
614 1 -1.1104 3.71342 -1.60584 26.3379
408 1 -1.1104 6.41979 -1.6976 20.5997
367 2 2.2208 -0.362468 8.47303 13.7199
588 1 -1.1104 6.74121 18.2047 26.3742
435 1 -1.1104 12.363 -4.68214 20.7559
616 2 2.2208 7.95182 19.6278 22.1271
594 1 -1.1104 6.61681 -4.28021 23.4176
442 1 -1.1104 12.3115 -1.76448 20.8608
598 1 -1.1104 6.53721 -4.56522 26.1799
601 1 -1.1104 6.51105 -1.62076 23.3715
605 1 -1.1104 6.52394 -1.41625 26.0792
627 2 2.2208 10.7235 -0.187978 22.0729
628 1 -1.1104 12.4486 -4.34102 23.5216
630 1 -1.1104 12.1478 -4.59155 26.4564
632 1 -1.1104 12.1075 -1.64631 23.6706
633 2 2.2208 10.8008 -2.89727 25.0111
635 1 -1.1104 11.9307 -1.67377 26.5085
636 1 -1.1104 9.37635 -4.38566 23.5378
638 2 2.2208 7.79927 -0.00559035 24.6685
639 1 -1.1104 9.43216 -4.36478 26.2478
641 2 2.2208 8.06026 -2.95922 22.1379
643 1 -1.1104 9.34858 -1.44679 23.4448
644 1 -1.1104 9.08463 -1.54947 26.3772
525 2 2.2208 10.8357 14.1009 24.8138
386 2 2.2208 10.8532 11.2643 27.7123
378 2 2.2208 13.5546 2.74425 27.5359
574 1 -1.1104 12.4124 15.2213 20.5805
422 2 2.2208 13.5574 8.4376 22.209
478 1 -1.1104 0.826897 4.0099 21.0164
9088 2 2.2208 8.04144 -5.64889 24.8472
366 2 2.2208 2.30655 2.75566 27.5618
593 1 -1.1104 0.787844 0.996419 23.2464
597 1 -1.1104 0.909916 1.09284 26.084
603 2 2.2208 5.1611 2.44756 24.7701
607 1 -1.1104 3.53546 1.24838 23.3282
610 1 -1.1104 3.7677 1.33077 26.2712
612 2 2.2208 2.1749 2.53014 22.1234
656 2 2.2208 5.08544 5.28641 22.2506
662 1 -1.1104 1.08424 4.04214 23.685
667 1 -1.1104 0.827733 4.32112 26.3722
672 2 2.2208 2.28408 5.49877 24.8214
676 1 -1.1104 3.74803 3.9373 23.486
678 1 -1.1104 3.46687 4.11484 26.202
658 1 -1.1104 1.11997 6.95914 23.428
660 1 -1.1104 1.01965 7.15305 26.0311
671 1 -1.1104 3.81638 6.84205 23.5113
669 1 -1.1104 6.38654 4.23176 26.7232
674 1 -1.1104 3.6472 6.84292 26.2636
539 1 -1.1104 6.55966 18.4263 20.792
526 2 2.2208 10.9613 19.6738 24.9707
620 1 -1.1104 9.30136 15.163 26.4008
437 1 -1.1104 12.3618 1.09475 20.838
516 1 -1.1104 9.3199 6.89356 20.5659
659 1 -1.1104 6.6355 7.01496 23.6433
599 1 -1.1104 6.43826 1.30386 26.2049
595 1 -1.1104 6.28246 1.22775 23.3667
521 1 -1.1104 9.40273 4.13257 20.5515
664 1 -1.1104 6.49625 3.86165 23.4069
661 1 -1.1104 6.57924 6.98286 26.3954
504 1 -1.1104 12.1303 6.95756 21.0073
449 1 -1.1104 9.52152 1.14765 20.671
509 1 -1.1104 12.0408 4.02745 20.6892
629 1 -1.1104 12.3434 1.14162 23.5541
631 1 -1.1104 12.0872 1.38567 26.4081
634 2 2.2208 10.5603 2.54317 24.8608
637 1 -1.1104 9.32275 1.2346 23.4094
640 1 -1.1104 8.98402 1.42537 26.204
642 2 2.2208 7.83439 2.73883 21.9155
688 1 -1.1104 9.38566 4.13672 26.2814
690 1 -1.1104 9.21849 4.01822 23.4097
694 2 2.2208 8.10399 5.57071 24.9021
695 2 2.2208 10.7352 5.64385 22.1382
697 1 -1.1104 12.355 7.11522 23.7033
699 1 -1.1104 12.1179 3.99864 23.5125
702 1 -1.1104 12.4292 4.24595 26.2541
698 1 -1.1104 12.0882 6.9798 26.3358
692 1 -1.1104 9.55964 7.00433 26.4321
471 1 -1.1104 6.32334 7.2221 20.8631
718 1 -1.1104 6.81906 18.2728 23.4966
496 1 -1.1104 3.95806 9.79841 20.6869
533 1 -1.1104 0.995848 12.5083 20.7438
657 2 2.2208 5.19457 11.3871 21.9861
663 1 -1.1104 0.709888 9.83926 23.4166
666 2 2.2208 5.07305 8.24617 24.8561
668 1 -1.1104 1.00105 10.0032 26.2516
673 2 2.2208 2.32281 11.3822 24.7782
675 2 2.2208 2.42592 8.39755 22.2285
677 1 -1.1104 3.65514 9.99208 23.3571
679 1 -1.1104 3.88688 9.58069 26.167
681 1 -1.1104 3.54606 12.4892 26.4148
706 1 -1.1104 1.16026 12.5935 23.3685
713 1 -1.1104 3.90476 13.021 23.5287
717 1 -1.1104 0.584965 12.8088 26.4257
621 2 2.2208 -0.37651 5.65926 16.5139
347 2 2.2208 7.94102 13.8444 27.8155
511 1 -1.1104 11.9972 9.63545 21.0992
462 2 2.2208 11.0686 16.9957 22.0135
704 1 -1.1104 9.37644 6.92144 23.6198
484 1 -1.1104 6.70653 9.60014 20.4974
670 1 -1.1104 6.84205 9.62825 26.1596
709 1 -1.1104 6.50222 12.6007 23.2347
665 1 -1.1104 6.39434 9.88473 23.584
712 1 -1.1104 6.58768 12.48 26.1337
579 1 -1.1104 9.49469 12.5336 20.4069
687 1 -1.1104 9.40099 10.1265 26.1416
689 1 -1.1104 9.22339 9.66738 23.3953
691 2 2.2208 7.57224 8.53773 22.2718
693 2 2.2208 7.88812 11.1477 24.8009
696 2 2.2208 10.6433 11.1248 22.2033
700 1 -1.1104 12.1231 9.84754 23.7521
701 2 2.2208 10.7539 8.60637 24.9362
703 1 -1.1104 12.1783 9.78122 26.5009
589 1 -1.1104 9.70348 12.7493 26.4288
463 1 -1.1104 11.9445 12.5522 23.5963
498 1 -1.1104 12.4598 12.3323 26.5421
561 1 -1.1104 9.23969 12.4978 23.4246
562 1 -1.1104 9.6867 18.402 23.3255
615 2 2.2208 7.99131 14.1721 21.865
559 1 -1.1104 3.78481 15.4925 20.6395
554 1 -1.1104 3.84393 18.2457 20.6559
535 1 -1.1104 1.15736 18.0212 20.6759
421 2 2.2208 -0.47085 5.45412 22.3024
710 2 2.2208 13.6456 5.58469 24.9229
645 2 2.2208 -0.361685 19.7053 25.1429
647 2 2.2208 2.56142 14.2285 22.0761
720 2 2.2208 5.26952 14.3242 24.8986
649 2 2.2208 2.34 19.5712 22.0289
652 1 -1.1104 3.72568 15.7039 23.5939
655 1 -1.1104 0.868112 15.3978 23.6739
682 1 -1.1104 3.79078 15.407 26.5488
683 2 2.2208 2.30298 16.9015 25.1245
686 1 -1.1104 3.89246 18.5964 26.1357
705 2 2.2208 5.25864 17.0603 22.0842
707 1 -1.1104 1.03003 18.3546 23.573
711 1 -1.1104 3.85361 18.334 23.401
715 1 -1.1104 1.01919 18.5327 26.4553
716 1 -1.1104 0.727156 15.74 26.413
719 2 2.2208 5.38948 19.7569 24.8967
346 2 2.2208 10.7642 -3.12799 13.7235
617 1 -1.1104 9.33791 15.4422 23.4916
497 1 -1.1104 12.3478 18.2376 23.2021
383 2 2.2208 -0.50717 5.69479 27.6257
349 2 2.2208 8.00285 19.8036 27.7072
369 2 2.2208 10.469 -0.185825 27.5682
345 2 2.2208 13.6259 19.7606 27.7409
365 2 2.2208 2.43921 -2.98289 27.849
651 2 2.2208 13.3497 5.68641 19.4202
368 2 2.2208 -0.443283 -0.320721 27.6332
348 2 2.2208 10.8727 16.7578 27.6739
370 2 2.2208 7.63851 -2.99973 27.6562
623 2 2.2208 -0.471774 17.0738 22.2463
375 2 2.2208 2.42163 19.9467 27.6907
9159 2 2.2208 -0.347455 -5.67347 16.3624
428 2 2.2208 13.5399 -0.315863 19.436
430 2 2.2208 13.4182 13.8507 22.0888
684 2 2.2208 -0.328556 8.55879 24.8082
426 2 2.2208 13.5764 8.38783 16.3801
339 2 2.2208 2.55436 0.0302411 13.7518
427 2 2.2208 -0.476586 2.74751 19.4244
626 2 2.2208 -0.463063 2.69486 25.0985
334 2 2.2208 -0.444533 -2.97277 13.7081
9126 2 2.2208 -0.387196 -5.74932 22.2986
374 2 2.2208 5.22022 16.8871 27.6763
358 2 2.2208 5.15775 19.5279 13.7935
344 2 2.2208 13.6305 13.8552 27.6218
9014 2 2.2208 13.6763 -5.71344 13.8173
721 2 2.2208 5.11445 22.4921 5.06169
723 1 -1.1104 0.914228 24.0949 0.876274
724 1 -1.1104 0.831197 23.9087 3.51046
725 1 -1.1104 0.933688 21.2635 0.746094
727 2 2.2208 5.1016 25.5791 2.24615
728 1 -1.1104 0.960714 21.2094 3.62815
730 1 -1.1104 3.7072 23.8538 0.87858
731 2 2.2208 2.51658 22.5205 2.29988
733 1 -1.1104 3.64021 24.1198 3.68496
734 2 2.2208 2.28921 25.5205 5.07509
735 1 -1.1104 3.87188 21.266 0.850568
737 1 -1.1104 3.79774 21.1399 3.64741
862 1 -1.1104 1.25076 24.36 6.65587
869 1 -1.1104 3.63454 21.069 6.53863
863 1 -1.1104 6.51804 24.3047 6.01715
738 1 -1.1104 3.61471 27.1362 3.91381
861 2 2.2208 13.5249 45.2053 2.07586
741 2 2.2208 -0.43815 22.6575 5.11776
866 1 -1.1104 6.64658 21.2483 6.15857
1477 1 -1.1104 9.34 46.376 3.7347
746 1 -1.1104 6.63002 21.3971 3.23439
743 1 -1.1104 6.28362 24.0993 3.42498
744 1 -1.1104 6.57208 21.4122 0.416715
742 1 -1.1104 6.47775 24.4298 0.705602
748 2 2.2208 10.8705 22.55 5.22477
750 1 -1.1104 12.0762 23.9147 0.681061
751 1 -1.1104 12.0632 23.7443 3.74179
752 1 -1.1104 12.3414 20.8782 0.600362
754 2 2.2208 10.5888 25.3951 2.05038
755 1 -1.1104 12.2654 21.1537 3.59765
757 1 -1.1104 9.32999 24.0513 0.628738
758 2 2.2208 7.78037 22.8141 2.19147
760 1 -1.1104 9.37812 23.959 3.51882
761 2 2.2208 7.95876 25.5251 4.97893
762 1 -1.1104 9.46672 21.3854 0.687211
764 1 -1.1104 9.18372 21.157 3.52871
899 1 -1.1104 9.37945 20.9904 6.30508
1616 1 -1.1104 3.99732 46.4388 6.46628
898 1 -1.1104 9.3843 24.0177 6.32521
747 1 -1.1104 6.47566 26.6795 3.78602
753 1 -1.1104 12.1603 26.8707 0.553901
867 1 -1.1104 6.55515 26.9716 6.50909
729 1 -1.1104 0.992525 26.7086 3.65865
736 1 -1.1104 3.67819 26.6913 1.15175
726 1 -1.1104 0.988395 26.865 0.90681
865 1 -1.1104 0.869525 26.883 6.49154
722 2 2.2208 5.16439 28.3706 5.20363
732 2 2.2208 2.18144 28.1588 2.38195
770 1 -1.1104 0.972942 29.9519 0.935831
773 1 -1.1104 0.793261 29.5574 3.68266
776 1 -1.1104 0.821135 32.6018 0.682502
777 2 2.2208 5.11914 31.1003 2.38379
779 1 -1.1104 0.891097 32.5715 3.7472
781 1 -1.1104 3.55723 29.3072 0.925312
784 1 -1.1104 3.60043 29.887 3.68592
786 2 2.2208 2.37689 31.274 4.99632
788 1 -1.1104 3.48922 32.5245 0.73452
789 1 -1.1104 3.84437 32.8612 3.36043
914 1 -1.1104 0.785126 29.5458 6.56981
922 1 -1.1104 4.09818 32.5745 6.38771
794 1 -1.1104 6.56855 29.5748 3.7743
918 1 -1.1104 0.8703 32.442 6.34893
920 1 -1.1104 3.66265 29.833 6.37129
1042 2 2.2208 13.6264 39.6358 7.8254
756 1 -1.1104 11.9714 26.6743 3.75242
765 1 -1.1104 9.20676 26.7962 3.58692
780 1 -1.1104 6.67572 32.3898 3.77069
763 1 -1.1104 9.44586 26.8472 0.883713
745 1 -1.1104 6.5081 27.1132 0.997898
793 1 -1.1104 6.17404 29.7506 0.947072
795 1 -1.1104 6.14314 32.4924 0.863712
749 2 2.2208 10.5819 28.1533 5.14784
759 2 2.2208 7.88885 28.2938 2.4393
797 1 -1.1104 12.189 29.7327 0.854994
799 1 -1.1104 12.1941 29.5456 3.77469
801 1 -1.1104 12.1895 32.2494 1.21652
802 2 2.2208 10.959 31.0272 2.41527
804 1 -1.1104 12.2055 32.5388 3.94192
805 1 -1.1104 9.12935 29.4694 0.892516
808 1 -1.1104 9.30348 29.6929 3.60099
810 2 2.2208 8.16395 31.2064 5.04901
812 1 -1.1104 8.99636 32.2589 0.817901
813 1 -1.1104 9.49713 32.7672 3.66123
953 1 -1.1104 9.35864 32.6757 6.5006
951 1 -1.1104 9.09249 29.7573 6.62574
919 1 -1.1104 6.64885 32.4738 6.65495
1074 2 2.2208 -0.399248 28.3925 -0.431405
916 1 -1.1104 6.69809 29.7565 6.64113
950 1 -1.1104 12.483 32.5064 6.72793