ITEM: TIMESTEP
10000
ITEM: NUMBER OF ATOMS
17640
ITEM: BOX BOUNDS pp pp pp
-4.7725651448829642e-01 2.7817256514488491e+01
-5.8921934427780931e+00 3.3397219344277710e+02
-4.8266336955731021e-01 2.7822663369557073e+01
ITEM: ATOMS id type q x y z
1 2 2.2208 4.91536 -0.238175 5.16121
2 1 -1.1104 0.938119 -4.17603 0.806557
6 1 -1.1104 0.907556 -4.21541 3.62696
10 1 -1.1104 0.697117 -1.58879 1.00063
12 2 2.2208 5.01835 -2.79635 2.30633
14 1 -1.1104 0.84225 -1.61913 3.78212
16 1 -1.1104 3.87744 -4.45168 0.9221
18 2 2.2208 2.2529 0.040091 2.58009
19 1 -1.1104 3.75735 -4.28215 3.8873
21 2 2.2208 1.97683 -2.83666 5.1135
23 1 -1.1104 3.46258 -1.73127 0.780448
24 1 -1.1104 3.56408 -1.55193 3.69667
15 1 -1.1104 6.46953 -1.51565 3.71562
11 1 -1.1104 6.20599 -1.52699 0.785556
166 1 -1.1104 0.487805 -4.25484 6.66742
4 1 -1.1104 6.55633 -4.37669 0.82195
8 1 -1.1104 6.67963 -4.36609 3.93231
229 2 2.2208 13.5776 -0.143375 8.04148
170 1 -1.1104 0.80799 -1.67218 6.48753
171 1 -1.1104 6.34645 -1.4315 6.66426
9007 2 2.2208 10.7624 -5.53516 -0.399987
31 2 2.2208 10.8465 -0.118719 5.25866
32 1 -1.1104 12.0119 -4.24626 0.84839
34 1 -1.1104 12.1123 -4.12761 3.7078
36 1 -1.1104 11.8635 -1.53499 0.83071
37 2 2.2208 10.52 -3.14649 2.27814
39 1 -1.1104 12.0066 -1.45951 3.70712
40 1 -1.1104 9.2339 -4.34275 0.77905
42 2 2.2208 8.14977 0.104169 2.47936
43 1 -1.1104 9.31667 -4.33463 3.69504
45 2 2.2208 8.01093 -2.77249 5.09408
47 1 -1.1104 8.96304 -1.41859 0.983786
48 1 -1.1104 9.45411 -1.41609 3.90407
205 1 -1.1104 12.0684 -4.3421 6.66498
369 2 2.2208 10.7946 -0.0192767 -0.384341
9002 2 2.2208 10.9515 -5.83668 10.8783
208 1 -1.1104 9.22463 -4.24289 6.42772
378 2 2.2208 13.5624 2.58743 -0.351026
203 2 2.2208 13.5114 2.80921 10.6661
3 1 -1.1104 0.916498 1.25831 1.05654
7 1 -1.1104 0.866202 1.24623 3.98071
13 2 2.2208 5.21778 2.57084 2.3303
17 1 -1.1104 3.48655 0.92536 0.973092
20 1 -1.1104 3.83618 1.20673 3.90457
22 2 2.2208 2.28092 2.64124 5.13062
54 2 2.2208 5.09024 5.42316 5.05687
56 1 -1.1104 0.710755 6.58378 0.93984
58 1 -1.1104 0.715535 6.66716 3.64169
60 1 -1.1104 0.815271 3.99062 0.82549
67 1 -1.1104 0.720419 3.99376 3.44818
71 1 -1.1104 3.56289 6.61341 0.713597
72 2 2.2208 2.31997 5.50095 2.5225
74 1 -1.1104 3.73479 7.06474 3.57447
76 1 -1.1104 3.8514 3.61948 0.869402
79 1 -1.1104 3.73632 3.96611 3.53937
69 1 -1.1104 6.34418 3.99288 3.91462
9 1 -1.1104 6.48047 1.11305 3.86955
59 1 -1.1104 6.5653 6.85389 3.92964
63 1 -1.1104 6.40584 4.08185 1.1069
234 1 -1.1104 0.741704 6.81662 6.67964
5 1 -1.1104 6.32916 1.27802 0.69843
57 1 -1.1104 6.50768 6.79074 1.10794
230 2 2.2208 13.6307 -3.10273 10.9212
9001 2 2.2208 8.07718 -5.73568 8.16158
33 1 -1.1104 12.3004 1.25296 0.99824
35 1 -1.1104 12.2071 1.09137 3.76152
38 2 2.2208 10.8882 2.733 2.36227
41 1 -1.1104 9.41574 1.30034 1.00906
44 1 -1.1104 9.29966 1.35579 3.70221
46 2 2.2208 7.98215 2.59674 5.21328
84 2 2.2208 10.6722 5.36849 5.21954
88 1 -1.1104 12.1492 3.95598 0.930846
92 1 -1.1104 12.1607 3.99908 3.75482
95 2 2.2208 7.90966 5.42157 2.36268
99 1 -1.1104 9.40792 3.9658 0.813577
102 1 -1.1104 9.28251 4.17326 3.63088
209 1 -1.1104 9.37652 1.0952 6.59087
86 1 -1.1104 12.2442 6.84809 0.87808
94 1 -1.1104 9.2807 6.78492 0.838999
97 1 -1.1104 9.28336 6.88781 3.62384
87 1 -1.1104 12.151 6.64902 3.4358
169 1 -1.1104 6.38065 1.11939 6.75562
267 1 -1.1104 9.1967 6.64394 6.67428
351 2 2.2208 2.37021 5.63665 13.451
104 2 2.2208 13.5177 10.9734 2.11886
55 2 2.2208 5.30414 11.3183 5.1198
61 1 -1.1104 0.928617 9.4675 1.03556
66 2 2.2208 5.14474 8.16731 2.27362
68 1 -1.1104 0.68286 9.6145 4.01091
73 2 2.2208 2.5565 11.0834 2.3087
75 2 2.2208 2.24921 8.44119 5.25994
77 1 -1.1104 3.94677 9.52525 0.946774
80 1 -1.1104 3.7228 9.66893 3.69556
107 1 -1.1104 0.890222 12.2997 0.846817
113 1 -1.1104 1.00685 12.3415 3.53042
123 1 -1.1104 3.61951 12.251 0.778281
128 1 -1.1104 3.95598 12.6145 3.80308
110 1 -1.1104 6.59145 12.9417 1.10187
115 1 -1.1104 6.71941 12.6381 3.78093
124 1 -1.1104 3.77879 12.5144 6.61535
62 1 -1.1104 0.832019 9.75426 6.72431
64 1 -1.1104 6.46491 9.81424 1.37508
70 1 -1.1104 6.60497 9.72079 4.0048
355 2 2.2208 10.6854 8.24471 13.6705
65 1 -1.1104 6.6898 9.69942 6.53192
8997 2 2.2208 13.5793 -5.78407 2.29526
368 2 2.2208 -0.463596 -0.181192 -0.380294
85 2 2.2208 10.9124 11.0974 5.28369
89 1 -1.1104 11.9048 9.66149 0.856394
91 2 2.2208 10.683 8.18962 2.09912
93 1 -1.1104 12.2022 9.55819 3.87537
96 2 2.2208 8.0409 11.1021 2.51821
98 2 2.2208 8.10403 8.31632 5.08688
100 1 -1.1104 9.28718 9.41685 0.678987
103 1 -1.1104 9.49706 9.54891 3.63991
142 1 -1.1104 11.8647 12.4499 0.985337
146 1 -1.1104 12.084 12.5159 3.92156
153 1 -1.1104 9.13999 12.0908 0.822543
158 1 -1.1104 9.52388 12.5272 3.78704
372 2 2.2208 7.95217 2.72403 -0.413664
101 1 -1.1104 9.6433 9.55472 6.32894
360 2 2.2208 10.3944 19.6219 13.6174
106 2 2.2208 4.9149 16.6745 5.13963
109 1 -1.1104 0.771583 18.0968 0.71011
114 1 -1.1104 0.709691 18.3677 3.78432
116 1 -1.1104 0.786432 15.2871 0.991651
119 2 2.2208 4.93187 13.9552 2.12801
120 2 2.2208 5.10074 19.6509 2.34741
121 1 -1.1104 0.933805 15.5184 3.85154
125 1 -1.1104 3.54437 18.1039 1.14103
127 2 2.2208 2.03541 16.7791 2.3918
129 1 -1.1104 3.63403 18.1827 3.77167
130 2 2.2208 2.15559 13.8307 5.07543
131 2 2.2208 2.02796 19.7761 5.06674
132 1 -1.1104 3.4392 15.1744 0.733464
134 1 -1.1104 3.49282 15.3076 3.87759
138 1 -1.1104 6.08395 17.7663 1.0064
140 1 -1.1104 6.42632 15.22 0.632385
350 2 2.2208 10.6417 2.67365 13.6379
117 1 -1.1104 0.694375 15.3978 6.70699
122 1 -1.1104 6.51837 15.5568 3.88389
8993 2 2.2208 5.23857 -5.73742 5.35693
139 1 -1.1104 6.58971 18.349 3.51291
160 2 2.2208 7.9369 13.8789 5.27305
141 2 2.2208 10.8264 16.6012 5.09228
144 1 -1.1104 11.9846 18.1811 0.621462
147 1 -1.1104 12.1689 18.1145 3.54617
148 1 -1.1104 12.3086 15.3004 1.02145
150 2 2.2208 10.7863 13.9339 2.41093
151 2 2.2208 10.7005 19.4348 2.08356
152 1 -1.1104 12.25 15.6444 3.71344
155 1 -1.1104 9.16842 18.1966 0.739608
157 2 2.2208 7.85311 16.5447 2.22418
159 1 -1.1104 9.45357 17.9439 3.50831
161 2 2.2208 7.84715 19.3175 5.0349
162 1 -1.1104 9.08692 15.3447 0.533261
164 1 -1.1104 9.24603 15.0791 3.4919
156 1 -1.1104 9.35237 18.0206 6.51182
204 2 2.2208 13.433 13.8844 5.14423
343 2 2.2208 8.03484 -0.211212 13.5748
165 2 2.2208 13.6288 16.6406 2.29473
168 1 -1.1104 6.43695 -4.21256 6.79339
50 2 2.2208 13.3929 -2.92386 5.2523
172 1 -1.1104 3.4828 -4.501 6.74262
174 1 -1.1104 3.61866 -1.62628 6.5518
175 2 2.2208 4.97199 -0.0885611 10.8885
176 1 -1.1104 0.940532 -4.42544 12.0425
180 1 -1.1104 1.04714 -4.54784 9.53755
184 1 -1.1104 1.10903 -1.69027 12.2566
186 2 2.2208 4.98183 -2.92324 8.01869
188 1 -1.1104 0.785628 -1.6647 9.3203
190 1 -1.1104 3.82306 -4.51412 12.4523
192 2 2.2208 2.07272 -0.292261 8.11073
193 1 -1.1104 3.61051 -4.3988 9.5679
195 2 2.2208 2.27343 -3.05765 10.7462
197 1 -1.1104 3.66179 -1.5525 12.1277
198 1 -1.1104 3.47962 -1.5677 9.3509
182 1 -1.1104 6.44717 -4.56321 9.51609
189 1 -1.1104 6.04862 -1.65579 9.53903
185 1 -1.1104 6.49764 -1.3965 12.2809
178 1 -1.1104 6.6579 -4.4131 12.2325
207 1 -1.1104 12.1456 -1.52514 6.47788
370 2 2.2208 7.92595 -2.81975 -0.456871
358 2 2.2208 5.0301 19.751 13.3623
210 1 -1.1104 9.45332 -1.57444 6.855
211 2 2.2208 10.6979 -0.268349 11.0163
212 1 -1.1104 12.2147 -4.38179 12.4361
214 1 -1.1104 12.2463 -4.39415 9.49894
216 1 -1.1104 12.1084 -1.58747 12.4399
217 2 2.2208 10.6623 -3.21734 7.9904
219 1 -1.1104 12.0554 -1.56284 9.52504
220 1 -1.1104 9.43137 -4.45146 12.1986
222 2 2.2208 7.91491 -0.207849 8.06745
223 1 -1.1104 9.46418 -4.38167 9.35037
225 2 2.2208 7.89221 -2.96145 10.8934
227 1 -1.1104 9.51169 -1.62117 12.3735
228 1 -1.1104 9.06231 -1.4554 9.69297
28 2 2.2208 13.5754 19.7951 10.5989
238 1 -1.1104 3.40939 6.47457 6.18744
237 1 -1.1104 6.42222 3.98741 6.63836
173 1 -1.1104 3.40817 0.984272 6.83856
235 1 -1.1104 6.41606 6.82183 6.63048
236 1 -1.1104 0.780354 4.05172 6.47615
167 1 -1.1104 0.624526 1.16448 6.54274
239 1 -1.1104 3.51783 3.762 6.68779
177 1 -1.1104 0.792777 1.28201 12.4081
181 1 -1.1104 0.645923 1.11395 9.49578
187 2 2.2208 4.91871 2.5756 8.02453
191 1 -1.1104 3.60137 1.22868 12.411
194 1 -1.1104 3.51546 1.08056 9.68627
196 2 2.2208 2.07529 2.44642 10.8932
240 2 2.2208 5.00962 5.47008 10.7935
242 1 -1.1104 0.825148 7.02658 12.1733
244 1 -1.1104 0.665918 7.24587 9.3423
246 1 -1.1104 1.08454 4.26816 12.0787
251 1 -1.1104 0.872196 4.06289 9.12423
256 2 2.2208 2.17797 5.46235 7.94242
260 1 -1.1104 3.76925 4.23642 12.272
262 1 -1.1104 3.51934 4.00758 9.42164
258 1 -1.1104 3.55696 6.9379 9.28935
248 1 -1.1104 6.42423 4.17676 12.3098
179 1 -1.1104 6.70484 1.40424 12.3222
243 1 -1.1104 6.48779 6.90469 12.238
245 1 -1.1104 6.53188 6.74616 9.42879
253 1 -1.1104 6.5111 3.92775 9.38902
340 2 2.2208 13.4581 -0.0826378 13.5614
206 1 -1.1104 11.9836 1.24252 6.51803
265 1 -1.1104 12.1496 6.8003 6.46868
269 1 -1.1104 9.37657 4.04626 6.49298
183 1 -1.1104 6.55452 1.16079 9.39981
232 2 2.2208 13.5488 8.35673 5.11775
266 1 -1.1104 12.2105 4.01011 6.79373
213 1 -1.1104 12.1741 1.52099 12.5715
215 1 -1.1104 12.3031 1.11883 9.68891
218 2 2.2208 10.6751 2.72795 8.03742
221 1 -1.1104 9.43943 1.43633 12.181
224 1 -1.1104 9.4932 1.55381 9.28428
226 2 2.2208 7.90591 2.65125 10.7181
268 1 -1.1104 9.28159 4.14251 9.34687
271 1 -1.1104 9.27993 4.07965 12.3536
273 1 -1.1104 9.27166 7.27232 9.34046
275 2 2.2208 7.89752 5.44125 7.98463
276 2 2.2208 10.7708 5.64105 10.8631
278 1 -1.1104 12.2619 7.15091 12.2596
279 1 -1.1104 12.1436 7.1758 9.3703
280 1 -1.1104 12.0948 4.31284 12.1148
283 1 -1.1104 12.1503 4.36826 9.39803
285 1 -1.1104 9.15476 7.00172 12.097
8992 2 2.2208 2.4418 -5.67537 2.24718
362 2 2.2208 8.17491 16.9393 13.5389
78 1 -1.1104 3.91891 9.88221 6.46736
255 1 -1.1104 3.90218 7.00374 12.1678
108 1 -1.1104 0.670822 12.6119 6.47831
111 1 -1.1104 6.53493 12.5957 6.68551
299 1 -1.1104 0.790855 12.6443 12.154
241 2 2.2208 5.11262 11.0322 10.9486
247 1 -1.1104 0.467746 9.74087 12.1019
250 2 2.2208 5.21417 8.34032 7.92968
252 1 -1.1104 0.929951 10.0814 9.4417
257 2 2.2208 2.14168 11.3982 8.00129
259 2 2.2208 2.13872 8.42375 10.734
261 1 -1.1104 3.59892 9.81386 12.2307
263 1 -1.1104 3.7876 9.70966 9.29134
305 1 -1.1104 3.2814 12.7829 9.32509
287 1 -1.1104 3.67118 12.6822 12.0992
294 1 -1.1104 0.785081 12.8767 9.42511
254 1 -1.1104 6.40806 9.67534 9.38016
290 1 -1.1104 6.3133 12.5087 9.35845
249 1 -1.1104 6.46075 9.72348 12.4576
320 2 2.2208 7.83201 16.7594 7.819
315 1 -1.1104 9.4685 15.5206 12.4421
154 1 -1.1104 9.49194 12.5256 6.64701
8995 2 2.2208 7.82305 -5.7202 2.37323
386 2 2.2208 10.6485 11.1319 -0.461258
297 1 -1.1104 6.55797 12.7143 12.4504
143 1 -1.1104 12.383 12.5538 6.84162
90 1 -1.1104 12.1917 9.83135 6.76042
330 1 -1.1104 12.1817 13.0401 12.3009
328 1 -1.1104 12.0943 12.9555 9.56878
322 1 -1.1104 9.28784 12.6015 12.276
319 1 -1.1104 9.23232 12.6745 9.55995
264 1 -1.1104 9.38058 9.8936 9.18127
270 1 -1.1104 9.21934 9.81294 12.1401
272 2 2.2208 7.87212 8.34808 10.9581
274 2 2.2208 7.88431 11.3032 8.07008
277 2 2.2208 10.6473 11.405 10.9998
281 1 -1.1104 12.0843 10.0719 12.2668
282 2 2.2208 10.8735 8.55756 8.09902
284 1 -1.1104 12.1933 10.1248 9.18624
49 2 2.2208 13.4404 -0.199243 2.37463
133 1 -1.1104 3.52873 15.2474 6.73561
126 1 -1.1104 3.77411 18.0595 6.93545
324 2 2.2208 10.8771 19.6227 7.68717
295 2 2.2208 5.02955 13.8826 8.02645
302 1 -1.1104 1.06349 18.0932 6.41292
309 2 2.2208 2.43514 19.6999 10.9059
304 1 -1.1104 3.93037 15.5909 9.20099
308 1 -1.1104 3.55426 15.5506 12.0004
307 1 -1.1104 0.792654 15.5582 12.3426
310 2 2.2208 2.09938 14.2609 10.7147
303 2 2.2208 2.28677 16.8494 7.90419
301 1 -1.1104 4.09458 18.522 9.4826
300 2 2.2208 5.01188 16.925 10.6056
286 1 -1.1104 3.5077 18.6033 12.3597
291 1 -1.1104 1.09077 18.3911 9.4327
292 1 -1.1104 0.728083 15.6612 9.60461
293 2 2.2208 5.33622 19.6274 7.82065
298 1 -1.1104 0.855879 18.1499 12.598
112 1 -1.1104 6.46338 17.9127 6.22271
296 1 -1.1104 6.68882 18.6048 11.9817
289 1 -1.1104 6.69776 15.2313 9.15293
321 1 -1.1104 9.2796 18.3693 11.9862
331 2 2.2208 10.5487 16.8802 10.5726
314 1 -1.1104 9.37936 15.5242 9.44958
231 2 2.2208 13.5242 19.5498 4.9843
202 2 2.2208 13.4414 5.66591 8.10748
326 1 -1.1104 12.11 16.4662 12.2618
288 1 -1.1104 6.5737 17.9662 9.19332
325 2 2.2208 10.912 13.9983 8.12417
118 1 -1.1104 6.52093 15.4278 6.50067
327 1 -1.1104 12.136 18.0855 9.45385
163 1 -1.1104 9.31679 15.3757 6.67264
149 1 -1.1104 12.1548 15.0557 6.47656
145 1 -1.1104 12.0478 18.0157 6.87678
306 1 -1.1104 6.3953 15.5148 11.9439
329 1 -1.1104 12.1358 19.837 12.3813
318 1 -1.1104 9.14434 18.4486 9.28887
317 2 2.2208 7.89073 14.0892 10.8198
323 1 -1.1104 12.2258 15.522 9.48614
316 2 2.2208 8.13899 20.0264 10.6356
359 2 2.2208 5.05463 14.2548 13.4266
375 2 2.2208 2.15885 19.457 -0.423563
105 2 2.2208 13.6396 5.45073 2.36621
338 2 2.2208 5.11393 -2.87482 13.6479
354 2 2.2208 7.78811 5.57359 13.6453
357 2 2.2208 2.21926 16.8279 13.6397
388 2 2.2208 5.17165 0.0109496 16.3615
389 1 -1.1104 0.596412 -4.42045 17.7505
393 1 -1.1104 0.960212 -4.20153 14.993
401 1 -1.1104 0.936733 -1.76232 17.9777
403 2 2.2208 4.9183 -2.88046 19.4547
405 1 -1.1104 0.773758 -1.33711 15.1156
409 1 -1.1104 3.23948 -4.43331 17.9402
411 2 2.2208 2.05726 -0.15955 19.1935
412 1 -1.1104 3.8077 -4.13297 15.1939
416 2 2.2208 2.17005 -2.9328 16.6128
418 1 -1.1104 3.80609 -1.71705 17.9695
419 1 -1.1104 3.76973 -1.39148 15.0656
413 1 -1.1104 3.56618 -4.14584 20.8196
397 1 -1.1104 6.48639 -4.31124 15.1298
9128 2 2.2208 10.6922 -5.70911 16.3843
406 1 -1.1104 0.373971 -1.59758 20.7344
680 1 -1.1104 6.51785 15.3129 23.586
402 1 -1.1104 6.53256 -1.19894 17.8656
407 1 -1.1104 6.45663 -1.56844 14.9795
408 1 -1.1104 6.36745 -1.66259 20.6165
391 1 -1.1104 6.3935 -4.32009 18.0694
384 2 2.2208 10.8916 5.42063 27.7532
344 2 2.2208 13.5014 13.9877 27.717
9158 2 2.2208 4.93681 -5.79116 16.6237
560 1 -1.1104 12.0698 15.4489 26.3591
431 2 2.2208 10.8271 0.0640382 16.6909
432 1 -1.1104 12.1949 -4.37129 17.7264
434 1 -1.1104 12.1498 -4.49294 14.8624
438 1 -1.1104 12.3375 -1.36755 17.7726
439 2 2.2208 10.8277 -2.7655 19.095
441 1 -1.1104 11.9577 -1.54738 15.0029
443 1 -1.1104 9.18161 -4.33149 17.5677
445 2 2.2208 7.78375 -0.110196 19.3443
446 1 -1.1104 9.3417 -4.12496 14.9997
450 2 2.2208 7.85678 -2.81164 16.6381
452 1 -1.1104 9.3013 -1.52141 17.8363
453 1 -1.1104 9.33225 -1.28858 15.1257
9129 2 2.2208 13.3886 -5.80085 19.131
341 2 2.2208 4.99069 2.66749 13.7121
454 1 -1.1104 9.47427 -1.82725 20.6299
460 2 2.2208 13.6235 19.534 16.3835
336 2 2.2208 13.6427 5.5406 13.7587
385 2 2.2208 7.91745 8.09523 27.7862
390 1 -1.1104 0.587903 1.07642 17.7885
395 1 -1.1104 0.939093 1.38374 14.9901
404 2 2.2208 5.16773 2.70159 19.4631
410 1 -1.1104 3.60387 1.15991 17.877
414 1 -1.1104 3.65258 1.2884 15.055
417 2 2.2208 2.24836 2.60466 16.52
464 2 2.2208 5.15013 5.585 16.5499
466 1 -1.1104 0.853907 6.82963 17.6636
468 1 -1.1104 0.416644 7.12575 15.0304
472 1 -1.1104 0.879428 4.00863 17.8872
477 1 -1.1104 0.768616 4.30617 14.6144
485 1 -1.1104 3.69193 7.0882 17.8491
486 2 2.2208 2.26681 5.34189 19.3316
488 1 -1.1104 3.48882 6.86953 15.0536
491 1 -1.1104 3.88017 4.16202 17.9742
493 1 -1.1104 3.36275 4.12766 14.9999
399 1 -1.1104 6.42359 1.24397 15.0412
481 1 -1.1104 6.53305 4.36197 15.11
392 1 -1.1104 6.42446 1.34578 18.0744
470 1 -1.1104 6.47922 6.99921 14.9932
474 1 -1.1104 6.48307 4.0082 17.7766
478 1 -1.1104 0.831608 4.21638 20.6241
489 1 -1.1104 3.29277 7.01305 20.6374
376 2 2.2208 13.6078 11.205 13.8251
467 1 -1.1104 6.32986 7.18022 17.7836
433 1 -1.1104 12.2111 1.3185 18.2326
436 1 -1.1104 11.9602 1.45362 15.3337
440 2 2.2208 10.6676 2.70243 19.5181
444 1 -1.1104 9.2143 1.34349 17.8922
448 1 -1.1104 9.43559 1.42653 15.11
451 2 2.2208 7.87516 2.702 16.4333
500 2 2.2208 10.5377 5.30468 16.6525
502 1 -1.1104 11.9135 6.81686 17.9191
505 1 -1.1104 12.0794 3.96849 17.9935
508 1 -1.1104 12.224 4.06363 15.108
512 1 -1.1104 8.82334 6.87633 18.0791
513 2 2.2208 7.70496 5.46002 19.4474
515 1 -1.1104 9.13789 6.97574 15.0166
518 1 -1.1104 9.26258 4.02572 18.0648
520 1 -1.1104 9.12041 4.06037 15.1893
503 1 -1.1104 12.0152 6.81604 15.1086
449 1 -1.1104 9.21519 0.984602 20.9392
615 2 2.2208 7.94116 13.9442 22.2806
653 2 2.2208 13.5422 -2.8816 22.1703
465 2 2.2208 5.09401 11.198 16.3753
473 1 -1.1104 0.859399 9.82147 18.1644
476 2 2.2208 4.82404 8.36737 19.2527
479 1 -1.1104 0.808966 9.82475 15.1025
487 2 2.2208 2.09007 11.1909 19.4887
490 2 2.2208 2.2468 8.33321 16.4
492 1 -1.1104 3.49101 9.97844 17.5769
495 1 -1.1104 3.92117 9.93434 14.8077
528 1 -1.1104 0.793578 12.5242 18.0519
532 1 -1.1104 1.00283 12.5093 15.2375
548 1 -1.1104 3.85967 12.8392 18.0268
551 1 -1.1104 3.79246 12.6983 15.0261
496 1 -1.1104 3.73609 9.64731 20.8438
530 1 -1.1104 6.96331 12.6146 17.9725
533 1 -1.1104 0.673516 12.5931 20.7115
618 2 2.2208 13.3334 16.7993 19.2321
475 1 -1.1104 6.41753 9.72846 18.1494
536 1 -1.1104 6.62759 12.5199 14.8242
348 2 2.2208 10.6579 16.6828 27.68
9127 2 2.2208 7.66568 -5.82496 19.4861
483 1 -1.1104 6.74774 9.78424 15.2439
501 2 2.2208 10.8748 11.0945 16.5536
506 1 -1.1104 12.0949 9.72734 18.1756
507 2 2.2208 10.6128 8.16816 19.4233
510 1 -1.1104 12.482 9.69181 15.1281
514 2 2.2208 8.03557 10.9562 19.3703
517 2 2.2208 7.82511 8.19917 16.5969
519 1 -1.1104 9.48035 9.47193 17.7616
522 1 -1.1104 9.88373 9.66973 15.1216
564 1 -1.1104 12.3401 12.6312 18.09
566 1 -1.1104 12.1735 12.4645 15.2434
575 1 -1.1104 9.60865 12.2243 18.0566
578 1 -1.1104 9.22271 12.4079 14.9051
567 1 -1.1104 12.3503 12.4677 20.959
484 1 -1.1104 6.43379 9.4866 20.8375
462 2 2.2208 10.6384 16.5961 22.0419
527 2 2.2208 5.1708 16.9486 16.3471
529 1 -1.1104 0.740947 18.1352 17.6498
534 1 -1.1104 0.880672 18.2041 15.1087
540 1 -1.1104 0.640517 15.2253 18.058
542 2 2.2208 5.2411 14.0107 19.286
543 2 2.2208 4.81699 19.46 19.5024
544 1 -1.1104 0.905804 15.251 15.1237
549 1 -1.1104 3.35121 18.263 18.0176
550 2 2.2208 2.06637 16.7375 19.1822
553 1 -1.1104 3.87082 18.2069 15.141
555 2 2.2208 2.39201 14.0185 16.4581
556 2 2.2208 2.03543 19.7157 16.4348
557 1 -1.1104 3.80385 15.34 17.6984
558 1 -1.1104 3.85931 15.5773 14.8193
541 1 -1.1104 6.63931 15.6125 17.8065
535 1 -1.1104 0.676865 18.2192 20.5035
545 1 -1.1104 0.846283 15.6055 20.6466
531 1 -1.1104 6.26404 18.3141 17.9471
616 2 2.2208 7.92719 19.692 22.1889
430 2 2.2208 13.5792 13.7618 22.1208
422 2 2.2208 13.5736 8.24164 22.1248
546 1 -1.1104 6.67231 15.5419 14.9371
619 2 2.2208 13.6525 13.9357 16.4767
568 1 -1.1104 12.3163 18.5218 14.8003
538 1 -1.1104 6.75972 18.1174 14.8339
563 2 2.2208 10.8975 16.4974 16.3809
565 1 -1.1104 11.9225 18.1206 17.6442
570 1 -1.1104 12.2483 15.1298 17.9407
571 2 2.2208 10.6824 13.9728 19.3117
572 2 2.2208 10.5845 19.6531 19.3635
573 1 -1.1104 12.316 15.3261 15.2329
576 1 -1.1104 9.20249 17.6805 17.9753
577 2 2.2208 7.73637 16.7659 19.4793
580 1 -1.1104 9.53023 18.186 15.0512
582 2 2.2208 7.9936 13.816 16.2353
583 2 2.2208 8.06405 19.5345 16.3411
584 1 -1.1104 9.4097 14.9384 17.5583
585 1 -1.1104 9.27063 15.3628 14.8649
547 1 -1.1104 6.43476 15.2842 20.8394
569 1 -1.1104 11.9769 18.1703 20.7426
581 1 -1.1104 9.12195 18.4467 20.6679
9019 2 2.2208 2.27914 -5.59489 13.7033
586 1 -1.1104 9.29458 15.4218 20.6376
398 1 -1.1104 6.35369 -4.49183 20.7643
394 1 -1.1104 0.884702 -4.60541 20.8029
420 1 -1.1104 3.52354 -1.3886 20.7748
591 2 2.2208 5.07823 -0.172692 22.1153
592 1 -1.1104 0.671464 -4.28462 23.3103
596 1 -1.1104 1.0275 -4.22554 26.1467
600 1 -1.1104 0.642601 -1.60803 23.574
602 2 2.2208 5.10775 -3.08186 24.8733
604 1 -1.1104 0.500116 -1.44809 26.4859
606 1 -1.1104 3.44444 -4.4259 23.6716
608 2 2.2208 2.18493 -0.0983838 24.6905
609 1 -1.1104 3.60636 -4.30938 26.2116
611 2 2.2208 2.14788 -3.1066 22.2961
613 1 -1.1104 3.63 -1.36477 23.4646
614 1 -1.1104 3.5821 -1.12923 26.2815
605 1 -1.1104 6.2885 -1.69917 26.497
601 1 -1.1104 6.50224 -1.49984 23.4764
594 1 -1.1104 6.34214 -4.48916 23.3307
447 1 -1.1104 9.42559 -4.72502 20.5843
435 1 -1.1104 12.1931 -4.10617 20.6668
346 2 2.2208 10.7493 -2.97817 13.7091
374 2 2.2208 4.91959 16.6098 27.6641
373 2 2.2208 2.22759 13.9312 27.709
598 1 -1.1104 6.52561 -4.42623 26.1815
442 1 -1.1104 12.1116 -1.36541 20.6655
627 2 2.2208 10.7058 -0.246027 22.2862
628 1 -1.1104 12.1109 -4.4476 23.5907
630 1 -1.1104 12.0624 -4.30153 26.3625
632 1 -1.1104 11.8757 -1.77545 23.5157
633 2 2.2208 10.5719 -3.10475 24.8975
635 1 -1.1104 12.077 -1.60628 26.2935
636 1 -1.1104 9.37908 -4.45307 23.4335
638 2 2.2208 7.83318 -0.0208048 25.0983
639 1 -1.1104 9.41398 -4.44404 26.317
641 2 2.2208 7.95826 -3.14871 21.7858
643 1 -1.1104 9.12888 -1.50642 23.4898
644 1 -1.1104 8.98593 -1.64932 26.3179
499 1 -1.1104 12.0449 18.1474 26.212
349 2 2.2208 7.88387 19.5185 27.6715
494 1 -1.1104 3.62775 4.19482 20.6563
469 1 -1.1104 0.680448 6.99221 20.6094
400 1 -1.1104 6.41284 1.33241 20.7543
396 1 -1.1104 0.959124 1.29634 20.55
415 1 -1.1104 3.70267 1.26613 20.8433
593 1 -1.1104 0.823256 1.14928 23.4802
597 1 -1.1104 0.794753 1.34586 26.2921
603 2 2.2208 4.89121 2.62147 25.0504
607 1 -1.1104 3.75631 1.33098 23.6153
610 1 -1.1104 3.73145 1.30471 26.4867
612 2 2.2208 2.30224 2.53048 22.0844
656 2 2.2208 4.83667 5.55223 22.0241
658 1 -1.1104 0.71767 6.95339 23.4251
662 1 -1.1104 0.402387 3.93725 23.2788
667 1 -1.1104 0.704407 4.02343 26.3396
671 1 -1.1104 3.53045 7.00413 23.5016
672 2 2.2208 1.97578 5.26404 24.7826
674 1 -1.1104 3.66953 6.73378 26.2465
676 1 -1.1104 3.42074 4.28863 23.1005
678 1 -1.1104 3.61314 4.23676 26.1286
660 1 -1.1104 0.850245 6.62854 26.3267
661 1 -1.1104 6.415 7.00836 26.3382
471 1 -1.1104 6.22047 6.78387 20.5851
664 1 -1.1104 6.33758 4.11099 23.557
659 1 -1.1104 6.4046 7.00159 23.4261
599 1 -1.1104 6.47278 1.25312 26.3524
423 2 2.2208 13.5239 2.78164 22.1063
347 2 2.2208 7.8785 13.6975 27.6267
504 1 -1.1104 12.1471 6.59175 20.6714
482 1 -1.1104 6.32268 3.89082 20.8077
516 1 -1.1104 9.13543 6.89231 20.6515
669 1 -1.1104 6.80445 4.14206 26.5938
509 1 -1.1104 12.325 4.02349 20.673
437 1 -1.1104 12.1186 1.29287 20.9166
595 1 -1.1104 6.44471 1.26969 23.6827
521 1 -1.1104 9.37041 3.91478 20.8958
629 1 -1.1104 11.945 1.26549 23.7003
631 1 -1.1104 12.0612 1.15165 26.5165
634 2 2.2208 10.7212 2.48497 25.0662
637 1 -1.1104 9.33872 1.35387 23.6021
640 1 -1.1104 9.31194 0.962985 26.5861
642 2 2.2208 7.8399 2.49348 22.2466
688 1 -1.1104 9.51968 3.76487 26.5122
690 1 -1.1104 9.40475 4.01427 23.7552
692 1 -1.1104 9.33536 6.79021 26.312
694 2 2.2208 7.85988 5.47639 24.9745
695 2 2.2208 10.9873 5.54045 22.0992
697 1 -1.1104 12.1008 6.97293 23.3007
698 1 -1.1104 12.0621 6.82112 26.4568
699 1 -1.1104 12.168 4.11841 23.2834
702 1 -1.1104 12.1804 4.21683 26.3203
704 1 -1.1104 9.53208 7.21573 23.465
426 2 2.2208 13.5951 8.46566 16.5199
480 1 -1.1104 0.823636 9.87169 20.9126
552 1 -1.1104 3.8056 12.5403 20.8407
657 2 2.2208 5.35486 11.0812 22.0243
663 1 -1.1104 0.569641 9.80174 23.549
666 2 2.2208 5.0205 8.27804 24.8258
668 1 -1.1104 0.730346 9.38374 26.4955
673 2 2.2208 2.09876 11.1389 24.9922
675 2 2.2208 2.1881 8.47954 22.1572
677 1 -1.1104 3.48704 9.85416 23.5992
679 1 -1.1104 3.539 9.61465 26.458
681 1 -1.1104 3.65958 12.6031 26.43
706 1 -1.1104 0.823574 12.5136 23.5246
713 1 -1.1104 3.47359 12.5672 23.4682
717 1 -1.1104 0.843751 12.383 26.4147
665 1 -1.1104 6.60187 9.79675 23.5792
537 1 -1.1104 6.58162 12.1983 20.6943
712 1 -1.1104 6.60349 12.4707 26.1982
709 1 -1.1104 6.44692 12.5722 23.4323
670 1 -1.1104 6.74989 9.7201 26.6138
9088 2 2.2208 8.03824 -5.663 24.8705
579 1 -1.1104 9.4252 12.5178 20.9134
511 1 -1.1104 12.1769 9.53134 20.7825
651 2 2.2208 13.5727 5.43294 19.1991
587 2 2.2208 7.84728 16.5703 24.9184
524 1 -1.1104 12.1799 15.2285 23.378
9092 2 2.2208 4.96093 -5.83835 22.0978
523 1 -1.1104 9.38232 9.63988 20.5647
687 1 -1.1104 9.53513 9.7661 26.4604
689 1 -1.1104 9.69135 9.69115 23.4938
691 2 2.2208 7.89577 8.28043 22.1578
693 2 2.2208 8.01583 11.1378 24.8059
696 2 2.2208 10.9994 11.034 22.1193
700 1 -1.1104 12.4038 9.88009 23.8382
701 2 2.2208 10.9546 8.39424 25.0289
703 1 -1.1104 12.3464 9.59461 26.4135
589 1 -1.1104 9.32873 12.6111 26.3438
463 1 -1.1104 12.1451 12.3816 23.5563
498 1 -1.1104 12.0095 12.788 26.742
561 1 -1.1104 9.38472 12.4738 23.7154
559 1 -1.1104 3.69143 15.1603 20.4058
714 1 -1.1104 6.53771 15.088 26.2026
428 2 2.2208 13.5764 -0.17022 19.2549
554 1 -1.1104 3.31608 18.1097 20.687
647 2 2.2208 2.10384 14.007 22.1426
649 2 2.2208 2.09043 19.5141 22.1228
652 1 -1.1104 3.56763 15.5285 23.2899
655 1 -1.1104 0.555013 15.244 23.4882
682 1 -1.1104 3.64037 15.0529 26.0285
683 2 2.2208 2.18077 16.6727 24.8687
686 1 -1.1104 3.52514 18.0093 26.3633
705 2 2.2208 4.92771 16.8416 22.0957
707 1 -1.1104 0.777052 18.0789 23.3908
711 1 -1.1104 3.70211 18.2789 23.4197
715 1 -1.1104 0.789386 18.1044 26.2877
716 1 -1.1104 0.921284 15.2433 26.3316
719 2 2.2208 5.11166 19.5357 24.9582
720 2 2.2208 5.05071 13.827 24.8999
588 1 -1.1104 6.32032 18.0696 26.3663
718 1 -1.1104 6.4715 18.1892 23.5101
539 1 -1.1104 6.20287 18.1572 20.8021
562 1 -1.1104 9.17218 18.128 23.4525
620 1 -1.1104 9.24193 15.2874 26.182
377 2 2.2208 13.512 -2.94303 27.6677
617 1 -1.1104 9.31011 15.247 23.4722
590 1 -1.1104 9.15956 18.2673 26.1523
650 2 2.2208 13.6008 11.1444 19.3771
366 2 2.2208 2.29418 2.60675 27.7854
574 1 -1.1104 12.0213 15.5497 20.5847
497 1 -1.1104 12.1108 18.0445 23.3323
526 2 2.2208 10.6911 19.6049 24.9232
525 2 2.2208 10.8325 13.9447 24.8989
381 2 2.2208 5.11375 11.0888 27.7775
654 2 2.2208 13.4255 -0.232403 25.0927
455 2 2.2208 13.6298 16.6438 25.0013
710 2 2.2208 13.4782 5.46876 25.0874
352 2 2.2208 5.21894 8.24611 13.6974
429 2 2.2208 13.5936 2.69964 16.4866
365 2 2.2208 2.16446 -2.89736 27.5968
380 2 2.2208 2.20193 8.03079 27.7188
345 2 2.2208 13.5243 19.6733 27.6288
461 2 2.2208 13.5218 19.3123 22.031
9015 2 2.2208 8.01442 -5.62185 13.7677
353 2 2.2208 2.23197 11.25 13.7538
361 2 2.2208 10.6144 13.9194 13.8278
356 2 2.2208 7.95117 11.1324 13.7455
339 2 2.2208 2.14342 -0.202352 13.68
379 2 2.2208 5.06455 5.26302 27.7456
9011 2 2.2208 5.22963 -5.69054 27.7314
387 2 2.2208 13.6298 8.27002 27.7922
9013 2 2.2208 -0.246676 -5.73583 27.7997
364 2 2.2208 4.96114 -0.234763 27.7425
721 2 2.2208 4.86882 22.5846 5.063
723 1 -1.1104 0.935025 23.5699 0.900064
724 1 -1.1104 0.357457 23.8715 3.70336
725 1 -1.1104 0.65805 20.9425 0.96731
727 2 2.2208 4.99907 25.41 2.29474
728 1 -1.1104 0.812561 21.1115 3.73696
730 1 -1.1104 3.80443 23.6877 1.06209
731 2 2.2208 2.22604 22.4959 2.24558
733 1 -1.1104 3.17637 23.9408 3.72051
734 2 2.2208 2.08821 25.284 5.13929
735 1 -1.1104 3.5902 20.9253 0.921435
737 1 -1.1104 3.70273 21.2818 3.56852
738 1 -1.1104 3.71892 26.7773 3.83127
864 1 -1.1104 0.803436 20.9753 6.68141
743 1 -1.1104 6.38105 23.9768 3.56466
744 1 -1.1104 6.51181 21.0911 0.460793
746 1 -1.1104 6.58606 21.0529 3.66398
1050 2 2.2208 2.24032 33.6988 13.58
1030 2 2.2208 13.5609 36.4588 5.03104
862 1 -1.1104 0.777643 23.7493 6.47481
865 1 -1.1104 0.699079 26.5816 6.58563
868 1 -1.1104 3.45928 23.9412 6.60714
870 1 -1.1104 3.61676 26.5872 6.56225
742 1 -1.1104 6.4518 23.8997 0.658176
748 2 2.2208 10.406 22.1514 4.83327
750 1 -1.1104 12.2631 23.5357 0.655393
751 1 -1.1104 12.018 23.9198 3.47037
752 1 -1.1104 12.1197 20.8452 0.720817
754 2 2.2208 10.8244 25.2534 2.05482
755 1 -1.1104 12.4763 20.9692 3.37367
757 1 -1.1104 9.20009 23.6682 0.676848
758 2 2.2208 7.6495 22.4695 2.20364
760 1 -1.1104 9.21818 23.8092 3.44729
761 2 2.2208 7.98874 25.1481 4.94912
762 1 -1.1104 9.05521 21.0578 1.02617
764 1 -1.1104 9.38809 20.5842 3.63044
896 1 -1.1104 11.9601 20.7054 5.99772
763 1 -1.1104 9.31269 26.5829 0.94951
765 1 -1.1104 9.16661 26.7672 3.50599
753 1 -1.1104 12.1703 26.4794 0.559682
895 1 -1.1104 12.055 23.3666 6.3132
900 1 -1.1104 9.42854 26.7879 6.17752
756 1 -1.1104 11.9652 26.5641 3.64545
863 1 -1.1104 6.28723 23.8968 6.31423
867 1 -1.1104 6.62412 26.312 6.61262
898 1 -1.1104 9.30999 23.7097 6.30177
1081 2 2.2208 5.06396 33.4545 -0.441545
726 1 -1.1104 0.684084 26.669 0.986475
729 1 -1.1104 0.945651 26.7129 3.8701
736 1 -1.1104 3.57615 26.6963 0.817484
745 1 -1.1104 6.25921 26.6981 0.87384
722 2 2.2208 5.02011 27.9681 5.21393
732 2 2.2208 2.23548 28.0062 2.30083
770 1 -1.1104 0.969436 29.2063 0.718008
773 1 -1.1104 1.03664 29.5695 3.57865
776 1 -1.1104 1.06498 32.0049 0.761008
777 2 2.2208 4.97701 30.5605 2.13793
779 1 -1.1104 0.83822 32.1745 3.78783
781 1 -1.1104 3.72668 29.3301 0.587392
784 1 -1.1104 3.60594 29.4192 3.53051
786 2 2.2208 2.28559 30.6555 4.95005
788 1 -1.1104 3.81054 31.9628 0.709408
789 1 -1.1104 3.56531 32.2613 3.42395
795 1 -1.1104 6.39911 32.0366 0.736555
814 2 2.2208 13.5198 33.8227 2.04176
918 1 -1.1104 1.03509 32.0338 6.80547
919 1 -1.1104 6.29912 32.0627 6.19733
1007 1 -1.1104 9.44966 43.704 12.1823
747 1 -1.1104 6.5029 26.4727 3.82339
1031 2 2.2208 13.4954 30.9024 5.15131
794 1 -1.1104 6.47869 29.327 3.51464
780 1 -1.1104 6.39657 32.1633 3.59078
793 1 -1.1104 6.46677 29.1425 0.780461
749 2 2.2208 10.5918 28.076 4.92182
759 2 2.2208 7.85322 28.0431 2.261
797 1 -1.1104 12.0847 29.4339 0.747722
799 1 -1.1104 12.1851 29.245 3.48668
801 1 -1.1104 12.2509 32.5233 0.862874
802 2 2.2208 10.6446 30.6996 2.30669
804 1 -1.1104 12.0966 31.9652 3.84186
805 1 -1.1104 9.25664 29.036 0.710353
808 1 -1.1104 9.19158 29.4701 3.56359
810 2 2.2208 7.78976 30.8511 5.03968
812 1 -1.1104 9.53214 31.8099 0.693463
813 1 -1.1104 9.46132 32.4184 3.51733
948 1 -1.1104 12.2566 29.3597 6.08221
953 1 -1.1104 9.16663 32.3531 6.55306
951 1 -1.1104 9.35656 29.5325 6.50175
950 1 -1.1104 12.1779 32.0932 6.79508
769 2 2.2208 5.10086 33.4874 4.84653
771 1 -1.1104 0.61505 34.9373 0.824438
774 1 -1.1104 0.790578 34.8336 3.481
778 2 2.2208 5.09703 36.5517 2.32047
782 1 -1.1104 3.54183 34.8477 1.0271
783 2 2.2208 2.25956 33.5731 2.38424
785 1 -1.1104 3.6044 35.0721 3.66483
787 2 2.2208 2.22344 36.4642 4.97143
815 2 2.2208 4.96682 39.5501 5.11367
821 1 -1.1104 0.878991 38.0562 0.896312
826 1 -1.1104 0.660877 37.6578 3.87427
831 2 2.2208 2.19384 39.3076 2.31051
835 1 -1.1104 3.75863 37.7665 0.672836
837 1 -1.1104 3.37423 37.8115 3.3468
1034 2 2.2208 13.522 27.873 7.88104