ITEM: TIMESTEP
90000
ITEM: NUMBER OF ATOMS
17640
ITEM: BOX BOUNDS pp pp pp
-4.8575434562040715e-01 2.7825754345619831e+01
-5.7310958472304945e+00 3.3381109584723538e+02
-4.9313350951097623e-01 2.7833133509511633e+01
ITEM: ATOMS id type q x y z
1 2 2.2208 5.21505 -0.0406578 5.19746
2 1 -1.1104 0.780556 -4.20346 0.816852
6 1 -1.1104 0.877596 -4.27411 3.73755
10 1 -1.1104 1.01519 -1.46027 0.853967
12 2 2.2208 5.26549 -2.75298 2.46231
14 1 -1.1104 0.831097 -1.58242 4.06755
16 1 -1.1104 3.5241 -4.54856 0.92018
18 2 2.2208 2.44868 -0.146875 2.52322
19 1 -1.1104 3.80524 -4.17589 4.09551
21 2 2.2208 2.30431 -2.86247 5.3972
23 1 -1.1104 3.88768 -1.54408 0.97089
24 1 -1.1104 3.71683 -1.40355 3.90414
380 2 2.2208 2.18064 8.32225 -0.548056
81 2 2.2208 -0.424981 5.59728 5.20817
15 1 -1.1104 6.41982 -1.43106 4.09156
30 2 2.2208 -0.448514 8.31776 8.0643
348 2 2.2208 10.9072 16.9192 -0.316385
344 2 2.2208 13.6974 14.3518 -0.275745
362 2 2.2208 8.09193 16.841 13.6539
8996 2 2.2208 10.9256 -5.60227 5.17157
8999 2 2.2208 5.30184 -5.70355 10.7246
11 1 -1.1104 6.82353 -1.61266 1.02625
8 1 -1.1104 6.60307 -4.31796 3.60852
4 1 -1.1104 6.47792 -4.33881 1.08488
31 2 2.2208 10.8694 0.0885102 5.22202
32 1 -1.1104 12.1645 -4.17335 0.993958
34 1 -1.1104 12.3399 -4.02608 3.79868
36 1 -1.1104 12.313 -1.37693 0.893658
37 2 2.2208 10.8355 -2.72324 2.50678
39 1 -1.1104 12.1711 -1.36211 3.84572
40 1 -1.1104 9.36871 -4.53358 0.764667
42 2 2.2208 8.15524 0.0354505 2.16888
43 1 -1.1104 9.40949 -4.26304 3.92475
45 2 2.2208 7.91889 -2.93728 5.09937
47 1 -1.1104 9.5266 -1.57069 0.763852
48 1 -1.1104 9.2521 -1.40592 3.54496
365 2 2.2208 2.18649 -2.85212 -0.311454
208 1 -1.1104 9.41809 -4.25466 6.50921
199 2 2.2208 -0.381787 2.90147 7.93014
104 2 2.2208 13.5123 11.3152 2.44526
204 2 2.2208 13.683 13.9418 5.24679
20 1 -1.1104 4.07408 1.47414 3.88648
3 1 -1.1104 0.726846 1.56642 0.644509
7 1 -1.1104 1.33289 1.2305 4.00392
13 2 2.2208 5.29243 2.57117 2.19302
17 1 -1.1104 3.64189 1.1186 0.961035
22 2 2.2208 2.53591 2.64402 5.31087
54 2 2.2208 5.27332 5.64644 5.26605
60 1 -1.1104 0.833711 4.23053 0.853232
67 1 -1.1104 0.667912 4.13745 3.8112
72 2 2.2208 2.11698 5.52514 2.31478
76 1 -1.1104 3.78038 3.91796 1.09251
79 1 -1.1104 3.71215 4.2426 3.89399
56 1 -1.1104 0.644501 6.8903 0.755117
58 1 -1.1104 0.984629 6.95705 3.80391
74 1 -1.1104 3.7632 7.14328 3.70245
71 1 -1.1104 3.43768 7.00952 1.08799
135 2 2.2208 -0.47764 13.9676 2.58303
5 1 -1.1104 6.55219 1.15284 0.970136
69 1 -1.1104 6.37449 4.13197 3.6864
57 1 -1.1104 6.76961 7.00978 1.0356
355 2 2.2208 10.9864 8.48224 13.6702
236 1 -1.1104 0.995245 4.234 6.55437
9011 2 2.2208 5.12789 -5.58625 -0.315369
232 2 2.2208 13.6787 8.49381 5.40454
63 1 -1.1104 6.66842 3.90822 0.80146
59 1 -1.1104 6.69939 7.08915 3.73577
9 1 -1.1104 6.65767 1.40567 3.77781
33 1 -1.1104 12.0764 1.29153 1.18198
35 1 -1.1104 12.5436 1.55085 3.77595
38 2 2.2208 10.8207 2.67238 2.30943
41 1 -1.1104 9.31512 1.2789 0.843437
44 1 -1.1104 9.44119 1.33877 3.80418
46 2 2.2208 8.00752 2.80604 5.22595
84 2 2.2208 10.7514 5.6796 5.22652
88 1 -1.1104 12.3496 4.08001 0.886305
92 1 -1.1104 12.3081 4.1036 4.10758
95 2 2.2208 7.9359 5.4634 2.49983
99 1 -1.1104 9.38867 4.15873 0.956079
102 1 -1.1104 9.32844 3.93395 3.93115
97 1 -1.1104 9.42104 6.80034 3.76703
86 1 -1.1104 12.1627 6.83226 1.03848
87 1 -1.1104 12.3563 7.07668 4.07616
94 1 -1.1104 9.56198 6.66575 0.922211
229 2 2.2208 13.5842 0.0634037 8.31527
311 2 2.2208 -0.303576 19.647 8.12472
55 2 2.2208 5.09896 11.1409 5.19505
61 1 -1.1104 0.978538 9.67062 0.92935
66 2 2.2208 5.24665 8.1884 2.22999
68 1 -1.1104 0.952892 10.1051 3.89337
73 2 2.2208 2.43868 11.2175 2.38811
75 2 2.2208 2.1869 8.6532 5.19762
77 1 -1.1104 4.1143 9.63735 0.78787
80 1 -1.1104 3.81966 9.99805 3.61649
107 1 -1.1104 1.01584 12.7052 0.911884
113 1 -1.1104 0.777274 12.6511 4.04753
123 1 -1.1104 3.71594 12.7036 0.933618
128 1 -1.1104 3.72518 12.9202 3.78624
8998 2 2.2208 2.42078 -5.76523 8.06497
347 2 2.2208 7.96041 14.2466 -0.407584
64 1 -1.1104 6.72672 9.60265 0.94134
115 1 -1.1104 6.74061 12.7111 3.98323
70 1 -1.1104 6.55446 9.89833 3.7721
136 2 2.2208 -0.290182 19.8463 2.50865
78 1 -1.1104 3.66621 9.9951 6.50441
340 2 2.2208 13.5849 0.144802 13.7449
29 2 2.2208 -0.396251 5.85949 10.8857
110 1 -1.1104 6.37337 12.6137 1.11637
85 2 2.2208 10.844 11.3541 5.18611
89 1 -1.1104 12.1561 9.68908 0.872601
91 2 2.2208 10.8963 8.29606 2.61465
93 1 -1.1104 12.2201 9.97202 3.79212
96 2 2.2208 8.00671 11.2635 2.35122
98 2 2.2208 7.99363 8.64269 5.095
100 1 -1.1104 9.44578 9.69955 0.864357
103 1 -1.1104 9.60562 9.70454 3.82208
142 1 -1.1104 12.0493 12.855 1.19011
146 1 -1.1104 12.2403 12.7562 4.20248
153 1 -1.1104 9.14667 12.4742 1.09058
158 1 -1.1104 9.3767 12.7522 3.85863
101 1 -1.1104 9.3764 10.0727 6.6096
385 2 2.2208 8.16505 8.59142 -0.392021
9002 2 2.2208 10.8605 -5.69864 10.7264
373 2 2.2208 2.23853 14.0124 -0.440539
374 2 2.2208 5.34772 17.1671 -0.337485
375 2 2.2208 2.41989 19.9879 -0.35255
51 2 2.2208 -0.517848 11.2327 10.9572
119 2 2.2208 5.20335 13.9774 2.451
130 2 2.2208 2.64503 14.1162 5.41095
106 2 2.2208 5.24806 16.9381 5.28772
109 1 -1.1104 1.15672 18.6185 0.997907
114 1 -1.1104 1.04064 18.1854 3.98931
116 1 -1.1104 0.705196 15.5436 1.2268
120 2 2.2208 5.29327 19.9239 2.379
121 1 -1.1104 1.15096 15.4381 3.95179
125 1 -1.1104 4.12671 18.5131 1.11569
127 2 2.2208 2.31301 16.8422 2.30292
129 1 -1.1104 3.70911 18.1118 4.06597
131 2 2.2208 2.44147 19.6411 5.2777
132 1 -1.1104 3.70337 15.5442 0.956288
134 1 -1.1104 3.96565 15.5342 3.95518
140 1 -1.1104 6.81825 15.5798 0.984649
302 1 -1.1104 1.13204 18.4308 6.84516
122 1 -1.1104 6.57672 15.2887 3.59699
139 1 -1.1104 6.74014 18.2548 3.79105
138 1 -1.1104 6.73718 18.4713 0.772096
150 2 2.2208 10.7766 14.1808 2.65598
160 2 2.2208 8.01225 14.1628 5.46276
141 2 2.2208 10.8986 17.048 5.32164
144 1 -1.1104 12.3343 18.7195 0.984995
147 1 -1.1104 12.192 18.1911 3.65632
148 1 -1.1104 12.4248 15.792 1.10541
151 2 2.2208 10.7312 19.8726 2.3384
152 1 -1.1104 12.4667 15.4407 3.74962
155 1 -1.1104 9.47103 18.4843 0.818245
157 2 2.2208 7.99509 16.8593 2.49152
159 1 -1.1104 9.43482 18.38 3.71083
161 2 2.2208 8.21533 19.5843 5.30618
162 1 -1.1104 9.59614 15.6074 1.00934
164 1 -1.1104 9.59445 15.6838 4.07993
28 2 2.2208 13.5885 19.9381 11.0034
323 1 -1.1104 12.4728 15.3301 9.3683
50 2 2.2208 13.6803 -2.70792 5.34895
382 2 2.2208 -0.330586 11.1807 -0.476668
170 1 -1.1104 1.03777 -1.60795 6.81352
172 1 -1.1104 3.58189 -4.36559 6.82433
9013 2 2.2208 -0.459899 -5.52381 -0.39773
174 1 -1.1104 3.89494 -1.74817 6.66299
166 1 -1.1104 0.795583 -4.49568 6.71576
175 2 2.2208 4.96447 -0.167936 10.9785
176 1 -1.1104 0.716529 -4.36206 12.351
180 1 -1.1104 0.704776 -4.00062 9.41181
184 1 -1.1104 1.20725 -1.74591 12.3636
186 2 2.2208 5.21187 -2.80837 8.07263
188 1 -1.1104 0.765358 -1.29382 9.63399
190 1 -1.1104 3.80248 -4.39183 12.3639
192 2 2.2208 2.4182 -0.256432 8.10122
193 1 -1.1104 3.74711 -4.26847 9.42214
195 2 2.2208 2.3634 -2.92086 10.8983
197 1 -1.1104 3.91112 -1.44294 12.5646
198 1 -1.1104 3.62444 -1.45155 9.45697
83 2 2.2208 -0.420885 11.3928 5.38048
182 1 -1.1104 6.62662 -4.27443 9.11539
171 1 -1.1104 6.6678 -1.53999 6.71303
205 1 -1.1104 12.3415 -4.38057 6.64362
189 1 -1.1104 6.3449 -1.49784 9.6488
185 1 -1.1104 6.81548 -1.53029 12.614
168 1 -1.1104 6.51171 -4.51893 6.51067
207 1 -1.1104 12.0218 -1.40028 6.62215
178 1 -1.1104 6.53661 -4.3198 12.2324
210 1 -1.1104 9.20647 -1.41855 6.5207
211 2 2.2208 10.7586 0.0267333 11.0039
212 1 -1.1104 12.3974 -4.2328 12.3492
214 1 -1.1104 12.3105 -4.16732 9.68856
216 1 -1.1104 12.1988 -1.37323 12.3827
217 2 2.2208 10.9289 -3.20545 8.23372
219 1 -1.1104 12.3854 -1.3445 9.56823
220 1 -1.1104 9.64005 -4.42208 12.3644
222 2 2.2208 7.96743 -0.0443891 8.0905
223 1 -1.1104 9.52062 -4.16763 9.58599
225 2 2.2208 7.92114 -2.9006 10.8766
227 1 -1.1104 9.49711 -1.36046 12.5413
228 1 -1.1104 9.28623 -1.3415 9.72199
173 1 -1.1104 3.80585 1.00946 6.61025
234 1 -1.1104 1.0574 7.10563 6.62177
167 1 -1.1104 0.91338 1.11458 6.73683
137 2 2.2208 -0.482879 16.93 5.27184
238 1 -1.1104 3.75294 7.06312 6.39273
329 1 -1.1104 12.2587 18.4892 12.31
239 1 -1.1104 3.95868 3.96735 6.59822
177 1 -1.1104 0.951756 0.964609 12.5166
181 1 -1.1104 0.890679 1.33119 9.56925
187 2 2.2208 5.22964 2.75783 7.96124
191 1 -1.1104 3.79163 1.50606 12.2293
194 1 -1.1104 3.71718 1.47499 9.42271
196 2 2.2208 2.17521 2.72707 10.8562
240 2 2.2208 4.94907 5.52233 11.0147
246 1 -1.1104 0.727354 4.30014 12.1049
251 1 -1.1104 1.19321 4.11688 9.46099
256 2 2.2208 2.43655 5.75872 7.92648
260 1 -1.1104 3.76633 4.26897 12.3661
262 1 -1.1104 4.12737 4.04152 9.50156
258 1 -1.1104 3.50788 7.0483 9.49147
255 1 -1.1104 3.5389 7.04182 12.3365
244 1 -1.1104 0.971923 6.81147 9.62239
242 1 -1.1104 0.653543 7.18044 12.3686
169 1 -1.1104 6.57165 1.19561 6.64025
235 1 -1.1104 6.66957 6.9905 6.58765
265 1 -1.1104 12.589 7.33554 7.11015
206 1 -1.1104 12.3614 1.45193 6.62329
266 1 -1.1104 11.9996 4.3525 6.84921
269 1 -1.1104 9.27419 4.244 6.64629
183 1 -1.1104 6.60237 1.40397 9.31976
237 1 -1.1104 6.70203 4.09646 6.69768
209 1 -1.1104 9.34958 1.33862 6.49164
267 1 -1.1104 10.0458 7.12598 6.46669
248 1 -1.1104 6.43403 4.39254 12.4339
253 1 -1.1104 6.7906 4.39179 9.77323
179 1 -1.1104 6.73117 1.11351 12.0316
243 1 -1.1104 6.41603 7.12926 12.2391
245 1 -1.1104 6.31349 7.08814 9.29126
213 1 -1.1104 12.2364 1.29535 12.1646
215 1 -1.1104 12.0479 1.30261 9.48346
218 2 2.2208 10.826 2.94754 8.12071
221 1 -1.1104 9.67668 1.2623 12.437
224 1 -1.1104 9.2993 1.58921 9.32051
226 2 2.2208 7.9561 2.82785 10.9429
268 1 -1.1104 9.54485 4.32162 9.55747
271 1 -1.1104 9.54332 4.05228 12.4569
275 2 2.2208 7.9414 5.74898 8.16587
276 2 2.2208 10.8415 5.52165 10.8995
280 1 -1.1104 12.4597 4.19074 12.4726
283 1 -1.1104 12.3365 4.1788 9.65236
285 1 -1.1104 9.64945 7.13805 12.392
279 1 -1.1104 12.0497 7.18136 9.7211
278 1 -1.1104 12.3816 7.21461 12.4262
273 1 -1.1104 9.29788 7.24995 9.46766
349 2 2.2208 8.03776 19.9834 -0.373342
364 2 2.2208 5.16712 -0.103819 -0.361883
108 1 -1.1104 1.15477 12.7547 6.60911
111 1 -1.1104 6.65902 12.5296 6.93547
124 1 -1.1104 3.90627 12.626 6.61886
62 1 -1.1104 0.869148 9.98652 6.69464
299 1 -1.1104 0.828381 12.4855 12.2794
241 2 2.2208 5.05657 11.2146 10.9423
247 1 -1.1104 1.14031 9.80994 12.4193
250 2 2.2208 5.03604 8.45828 7.84881
252 1 -1.1104 1.10888 9.84717 9.55892
257 2 2.2208 2.52952 11.2669 8.06131
259 2 2.2208 2.34776 8.39458 11.0673
261 1 -1.1104 3.81717 9.90683 12.5082
263 1 -1.1104 3.9617 9.91008 9.35577
305 1 -1.1104 4.00668 12.6988 9.49737
287 1 -1.1104 3.71517 12.8551 12.2501
294 1 -1.1104 0.850279 12.4948 9.33975
290 1 -1.1104 6.55786 12.5248 9.67326
249 1 -1.1104 6.48206 9.98483 12.1619
154 1 -1.1104 9.4905 12.6753 6.6605
331 2 2.2208 10.9265 16.9793 10.9339
143 1 -1.1104 12.3354 12.9415 6.69548
65 1 -1.1104 6.53588 9.84547 6.58259
90 1 -1.1104 12.1668 10.1404 6.54596
297 1 -1.1104 6.41269 12.4433 12.3469
254 1 -1.1104 6.54181 9.68871 9.34595
328 1 -1.1104 12.3314 12.5702 9.42704
322 1 -1.1104 9.36006 12.7722 12.4505
319 1 -1.1104 9.27481 12.8432 9.63476
264 1 -1.1104 9.54576 10.0255 9.43797
270 1 -1.1104 9.30942 9.82639 12.2844
272 2 2.2208 8.08777 8.60622 10.6591
274 2 2.2208 7.93527 11.1902 8.22081
277 2 2.2208 10.7879 11.1102 11.0735
281 1 -1.1104 12.5156 9.99316 12.1918
282 2 2.2208 10.9013 8.63291 7.98968
284 1 -1.1104 12.2676 9.94065 9.56979
330 1 -1.1104 12.2463 12.6708 12.4087
384 2 2.2208 10.934 5.48882 -0.282288
118 1 -1.1104 6.66596 15.2949 6.77057
126 1 -1.1104 4.08821 18.4328 6.76927
133 1 -1.1104 3.91819 15.5912 6.69951
156 1 -1.1104 9.49223 18.2711 6.69836
296 1 -1.1104 6.58493 18.3855 12.326
117 1 -1.1104 1.10653 15.3489 6.92605
293 2 2.2208 5.28059 19.8247 8.18994
292 1 -1.1104 1.13822 15.3231 9.64283
291 1 -1.1104 1.08499 17.9765 9.58418
286 1 -1.1104 3.94885 18.3295 12.1322
300 2 2.2208 5.24094 16.8317 10.8521
310 2 2.2208 2.49658 13.968 11.0316
295 2 2.2208 5.21497 13.8872 8.06465
298 1 -1.1104 0.634373 18.1518 12.2344
309 2 2.2208 2.44308 19.5839 10.7243
304 1 -1.1104 3.76252 15.1913 9.43053
308 1 -1.1104 3.94317 15.6591 12.5412
307 1 -1.1104 0.985121 15.3591 12.6936
303 2 2.2208 2.46946 16.8008 8.13142
301 1 -1.1104 4.12707 18.1428 9.29369
288 1 -1.1104 6.67951 18.3074 9.47223
318 1 -1.1104 9.32557 18.3608 9.60145
112 1 -1.1104 6.68638 18.0953 6.53673
321 1 -1.1104 9.30556 18.4578 12.4886
149 1 -1.1104 12.3358 15.6134 6.56222
163 1 -1.1104 9.37332 15.6074 6.84511
324 2 2.2208 10.9626 19.8286 8.04656
326 1 -1.1104 12.3068 15.5916 12.3057
314 1 -1.1104 9.70198 15.4577 9.69588
320 2 2.2208 8.11363 16.8503 8.24981
289 1 -1.1104 6.6342 15.4363 9.74773
317 2 2.2208 8.12202 14.0691 10.9261
327 1 -1.1104 12.1879 18.2199 9.25757
315 1 -1.1104 9.58974 15.6577 12.3275
325 2 2.2208 10.8834 14.2035 7.90309
306 1 -1.1104 6.88264 15.359 12.6089
316 2 2.2208 7.93193 19.8205 10.928
145 1 -1.1104 12.2784 18.4687 6.54377
25 2 2.2208 -0.49958 -2.96079 2.49544
202 2 2.2208 13.4686 5.71847 8.18114
313 2 2.2208 -0.470978 13.9468 8.03198
379 2 2.2208 5.13606 5.21926 -0.253964
388 2 2.2208 5.24512 0.0714137 16.7248
389 1 -1.1104 1.16474 -4.21359 17.8605
393 1 -1.1104 0.82688 -4.09372 15.2268
401 1 -1.1104 1.03049 -1.43853 17.9686
403 2 2.2208 5.1307 -2.74527 19.4892
405 1 -1.1104 0.995585 -1.3752 15.2699
409 1 -1.1104 3.98807 -4.27653 18.0524
411 2 2.2208 2.28882 -0.249737 19.369
412 1 -1.1104 3.76821 -4.11934 15.3155
416 2 2.2208 2.43758 -2.89336 16.6548
418 1 -1.1104 3.92065 -1.44401 18.2105
419 1 -1.1104 3.71588 -1.58186 15.4112
624 2 2.2208 -0.435388 -2.89584 24.9655
626 2 2.2208 -0.549983 2.85084 24.8219
562 1 -1.1104 9.41206 18.1124 23.7977
346 2 2.2208 11.0281 -2.88883 13.7785
338 2 2.2208 5.37226 -2.93482 13.9537
391 1 -1.1104 6.66913 -4.77814 18.0382
397 1 -1.1104 6.79673 -4.17058 15.0247
457 2 2.2208 -0.445688 14.1303 19.4742
402 1 -1.1104 6.94956 -1.81169 18.1911
407 1 -1.1104 6.43484 -1.6561 15.4325
431 2 2.2208 10.8802 0.0103155 16.6842
432 1 -1.1104 12.2094 -4.27223 18.0826
434 1 -1.1104 12.5747 -4.09356 15.1121
438 1 -1.1104 12.3413 -1.44822 18.1165
439 2 2.2208 10.8717 -2.81602 19.5847
441 1 -1.1104 12.2744 -1.23601 15.3871
443 1 -1.1104 9.48808 -4.50588 18.324
445 2 2.2208 8.08997 0.0020899 19.2903
446 1 -1.1104 9.93358 -4.38417 15.1848
450 2 2.2208 8.33802 -3.13291 16.8056
452 1 -1.1104 9.55382 -1.54362 18.0069
453 1 -1.1104 9.54957 -1.47465 15.1799
574 1 -1.1104 12.2319 15.8054 20.8027
414 1 -1.1104 3.67753 1.3163 15.3498
390 1 -1.1104 0.922116 1.43091 17.9487
395 1 -1.1104 0.838231 1.36809 15.2315
404 2 2.2208 5.2571 2.66509 19.4919
410 1 -1.1104 3.67833 1.27582 18.1537
417 2 2.2208 2.5096 2.77068 16.6204
464 2 2.2208 5.21392 5.56799 16.5443
472 1 -1.1104 0.992194 4.14628 17.9657
477 1 -1.1104 0.939706 4.10185 15.1713
486 2 2.2208 2.37429 5.48053 19.6134
491 1 -1.1104 3.65378 3.75183 18.4051
493 1 -1.1104 3.7185 4.13702 15.3076
466 1 -1.1104 1.30449 7.02627 18.1477
468 1 -1.1104 0.937796 6.98697 15.1998
485 1 -1.1104 4.25099 6.99246 17.82
488 1 -1.1104 3.83794 7.0246 14.9655
343 2 2.2208 8.04404 -0.0374332 13.9265
427 2 2.2208 -0.334723 2.80987 19.4213
351 2 2.2208 2.15364 5.41934 13.6895
339 2 2.2208 2.38718 -0.218441 13.8021
399 1 -1.1104 6.3489 1.43277 15.0965
474 1 -1.1104 6.42872 4.30142 18.1457
392 1 -1.1104 6.71324 1.36872 17.8962
481 1 -1.1104 6.59834 4.33045 15.2645
467 1 -1.1104 7.03172 7.22522 18.1562
470 1 -1.1104 6.48236 7.0556 15.4018
433 1 -1.1104 12.2162 1.54481 18.0721
436 1 -1.1104 12.4818 1.51391 15.0779
440 2 2.2208 10.9668 2.99006 19.3696
444 1 -1.1104 9.5429 1.50994 18.1413
448 1 -1.1104 9.51172 1.32733 15.2767
451 2 2.2208 8.08186 2.88386 16.6523
500 2 2.2208 10.7421 5.75896 16.4176
505 1 -1.1104 12.2512 4.36547 18.2666
508 1 -1.1104 12.1622 4.23274 15.1509
513 2 2.2208 7.81218 5.45725 19.4263
518 1 -1.1104 9.42451 4.53838 17.9263
520 1 -1.1104 9.11035 4.30216 15.2631
503 1 -1.1104 12.2404 7.13536 15.232
515 1 -1.1104 9.37923 7.09979 15.0443
502 1 -1.1104 12.5748 7.19718 18.0943
512 1 -1.1104 9.65034 7.48916 17.7531
350 2 2.2208 10.9242 2.74438 13.8916
356 2 2.2208 7.98415 11.3076 13.7261
353 2 2.2208 2.35492 11.3378 13.9122
367 2 2.2208 -0.380242 8.47032 13.8019
9159 2 2.2208 -0.601344 -5.59394 16.4787
424 2 2.2208 -0.367689 0.0149096 16.7657
465 2 2.2208 5.11494 11.25 16.6299
473 1 -1.1104 0.724821 9.69477 18.012
476 2 2.2208 5.30057 8.41757 19.5746
479 1 -1.1104 0.936975 9.92386 15.2552
487 2 2.2208 2.29031 11.3352 19.5087
490 2 2.2208 2.3903 8.44467 16.6853
492 1 -1.1104 3.65015 9.73968 18.1146
495 1 -1.1104 3.79885 9.90344 15.3302
528 1 -1.1104 0.970802 12.6089 17.9934
532 1 -1.1104 0.951729 12.7155 15.1244
548 1 -1.1104 4.02544 12.5796 18.1847
551 1 -1.1104 3.90749 12.6936 15.1861
536 1 -1.1104 6.74538 12.817 15.0951
9089 2 2.2208 10.8651 -5.79183 22.3332
9129 2 2.2208 13.6929 -5.55562 19.3607
524 1 -1.1104 12.5328 15.4957 23.8321
530 1 -1.1104 6.75777 12.5287 17.8776
475 1 -1.1104 6.67441 9.95179 17.9426
483 1 -1.1104 6.88579 10.0099 15.1822
501 2 2.2208 11.0109 11.3015 16.5573
506 1 -1.1104 12.3969 10.0136 17.8584
507 2 2.2208 10.8578 8.61211 19.2731
510 1 -1.1104 12.4409 9.89574 15.0436
514 2 2.2208 8.05844 11.336 19.4402
517 2 2.2208 7.95001 8.42684 16.6547
519 1 -1.1104 9.62769 10.2346 18.0018
522 1 -1.1104 9.69773 10.0326 15.0404
564 1 -1.1104 12.2714 12.9008 17.9178
566 1 -1.1104 12.343 12.8378 15.1119
575 1 -1.1104 9.47608 12.8966 18.2174
578 1 -1.1104 9.57201 12.7904 15.2672
571 2 2.2208 10.873 14.3249 19.4163
537 1 -1.1104 6.63649 12.5075 20.7694
646 2 2.2208 -0.445077 14.0845 25.1857
341 2 2.2208 5.18976 2.92427 13.7749
581 1 -1.1104 9.48862 18.5493 20.856
542 2 2.2208 5.3338 14.1276 19.1793
685 2 2.2208 -0.307493 11.3253 22.2355
354 2 2.2208 8.04697 5.77661 13.7966
423 2 2.2208 13.5549 2.81757 22.21
555 2 2.2208 2.18219 14.0442 16.5707
527 2 2.2208 5.36452 16.9898 16.5821
529 1 -1.1104 1.07851 18.0075 17.8599
534 1 -1.1104 0.990255 18.4997 15.0794
540 1 -1.1104 0.797147 15.3815 18.0045
543 2 2.2208 5.33635 19.7349 19.3948
544 1 -1.1104 0.931059 15.5388 15.4032
549 1 -1.1104 3.81854 18.1421 17.8585
550 2 2.2208 2.37902 16.7614 19.2316
553 1 -1.1104 3.92585 18.3519 14.9868
556 2 2.2208 2.52323 19.607 16.4789
557 1 -1.1104 3.81971 15.2693 17.7658
558 1 -1.1104 3.83867 15.5746 15.2032
541 1 -1.1104 6.90868 15.4282 18.1169
538 1 -1.1104 6.58599 18.2757 15.2118
546 1 -1.1104 6.78602 15.4928 15.1908
361 2 2.2208 10.9408 13.988 13.7943
386 2 2.2208 10.8811 11.2005 27.6372
360 2 2.2208 10.8309 19.769 13.6185
359 2 2.2208 5.25765 14.2139 13.7472
620 1 -1.1104 9.35374 15.5868 26.4435
531 1 -1.1104 6.61913 18.2485 18.1729
582 2 2.2208 8.06158 14.0039 16.6443
563 2 2.2208 10.7068 16.9151 16.3613
565 1 -1.1104 12.2709 18.5758 17.864
570 1 -1.1104 12.4224 15.7554 17.9362
572 2 2.2208 10.809 19.8148 19.3885
573 1 -1.1104 12.4918 15.4376 15.0328
576 1 -1.1104 9.38215 18.2869 17.9312
577 2 2.2208 8.28895 16.9148 19.3351
580 1 -1.1104 9.51113 18.4845 15.061
583 2 2.2208 8.0536 19.6666 16.5207
584 1 -1.1104 9.72818 15.708 18.069
585 1 -1.1104 9.395 15.6048 15.0473
568 1 -1.1104 12.3489 18.1708 14.976
425 2 2.2208 -0.530274 -2.79099 19.4282
618 2 2.2208 13.6229 17.0037 19.4923
406 1 -1.1104 0.888153 -1.53137 20.6647
394 1 -1.1104 1.13344 -4.41019 20.6167
372 2 2.2208 8.11991 2.92445 27.7851
588 1 -1.1104 6.44244 18.5474 26.5889
9007 2 2.2208 10.9342 -5.49503 27.7084
413 1 -1.1104 3.74558 -4.19489 20.9205
420 1 -1.1104 3.52477 -1.29346 20.6916
591 2 2.2208 5.47318 0.164431 22.3455
592 1 -1.1104 0.719291 -3.97992 23.5524
596 1 -1.1104 0.985517 -4.18512 26.3121
600 1 -1.1104 0.900118 -1.36887 23.4789
602 2 2.2208 5.11387 -2.9582 25.109
604 1 -1.1104 0.885379 -1.30911 26.4447
606 1 -1.1104 3.50005 -4.22036 23.6371
608 2 2.2208 2.53262 -0.112814 25.001
609 1 -1.1104 3.82478 -4.4074 26.5067
611 2 2.2208 2.49578 -2.80303 22.1196
613 1 -1.1104 3.92253 -1.50449 23.5251
614 1 -1.1104 3.80007 -1.62289 26.4663
398 1 -1.1104 6.69888 -4.01854 20.793
408 1 -1.1104 6.54937 -1.28955 20.9371
547 1 -1.1104 6.76792 15.4528 21.0916
447 1 -1.1104 9.4642 -4.15309 21.1598
435 1 -1.1104 12.0806 -4.31653 20.8392
454 1 -1.1104 9.22776 -1.16342 20.8855
594 1 -1.1104 6.53816 -4.20607 23.5837
601 1 -1.1104 6.61945 -1.54064 23.884
442 1 -1.1104 12.0727 -1.4549 20.9384
598 1 -1.1104 6.40935 -4.55284 26.292
605 1 -1.1104 6.51936 -1.48899 26.7081
627 2 2.2208 10.8778 -0.069597 22.2481
628 1 -1.1104 12.4282 -4.34419 23.5793
630 1 -1.1104 12.4806 -4.19269 26.3688
632 1 -1.1104 12.155 -1.29024 23.533
633 2 2.2208 10.9337 -3.01892 24.8491
635 1 -1.1104 12.1799 -1.65624 26.325
636 1 -1.1104 9.54776 -4.50934 23.8847
638 2 2.2208 7.8052 -0.15505 25.1753
639 1 -1.1104 9.50655 -4.26198 26.3843
641 2 2.2208 8.08722 -2.7404 22.2037
643 1 -1.1104 9.5283 -1.39971 23.691
644 1 -1.1104 9.39284 -1.6345 26.4701
366 2 2.2208 2.40647 2.6055 27.6555
499 1 -1.1104 12.3511 18.3301 26.6069
489 1 -1.1104 3.90999 7.20556 20.7928
494 1 -1.1104 3.84529 4.22734 20.9851
469 1 -1.1104 0.968135 7.08351 21.0127
396 1 -1.1104 0.982161 1.42546 20.6923
415 1 -1.1104 4.07867 1.49301 21.1387
478 1 -1.1104 0.972672 4.2592 20.921
593 1 -1.1104 1.12387 1.30281 23.5925
597 1 -1.1104 1.2157 1.19255 26.223
603 2 2.2208 5.43694 3.00429 25.0608
607 1 -1.1104 4.06671 1.56383 23.8446
610 1 -1.1104 3.96071 1.20624 26.4865
612 2 2.2208 2.54035 2.77379 22.2839
656 2 2.2208 5.29625 5.73578 22.1974
662 1 -1.1104 0.862446 4.21038 23.5977
667 1 -1.1104 0.764572 4.11724 26.3437
672 2 2.2208 2.31708 5.51411 25.1415
676 1 -1.1104 3.82638 4.22115 23.7658
678 1 -1.1104 3.68364 4.05645 26.7136
658 1 -1.1104 0.837981 7.02983 23.654
671 1 -1.1104 3.79372 6.8716 23.786
674 1 -1.1104 3.89576 6.91749 26.511
660 1 -1.1104 0.967767 6.78435 26.3374
661 1 -1.1104 6.56342 7.1086 26.3156
595 1 -1.1104 6.72757 1.39339 23.6525
482 1 -1.1104 6.55158 4.12589 20.8164
521 1 -1.1104 9.51725 4.04575 20.8499
449 1 -1.1104 9.55324 1.49646 20.9107
664 1 -1.1104 6.70912 4.25924 23.7266
659 1 -1.1104 6.79381 7.20634 23.6029
599 1 -1.1104 6.51664 1.37168 26.4341
471 1 -1.1104 6.5913 6.94487 20.8593
400 1 -1.1104 6.70351 1.39282 20.6709
669 1 -1.1104 6.64042 4.36796 26.5582
516 1 -1.1104 9.15008 7.00257 20.4344
437 1 -1.1104 12.1813 1.4618 20.6657
504 1 -1.1104 12.1359 7.02592 20.7201
509 1 -1.1104 12.3098 4.10271 20.6919
629 1 -1.1104 12.4307 1.27445 23.6426
631 1 -1.1104 12.2398 1.13693 26.577
634 2 2.2208 10.9044 2.67272 25.2013
637 1 -1.1104 9.48821 1.45325 23.835
640 1 -1.1104 9.38475 1.5538 26.5822
642 2 2.2208 8.17748 2.837 22.3941
688 1 -1.1104 9.60346 4.28833 26.4936
690 1 -1.1104 9.56199 4.26881 23.7202
694 2 2.2208 8.06306 5.98155 25.0522
695 2 2.2208 10.9516 5.56113 22.1437
699 1 -1.1104 12.1794 4.11406 23.5405
702 1 -1.1104 12.4073 3.78555 26.4719
698 1 -1.1104 12.2234 6.81504 26.3681
692 1 -1.1104 9.3812 7.24141 26.4687
704 1 -1.1104 9.55681 6.89472 23.4808
697 1 -1.1104 12.2673 6.95594 23.4052
357 2 2.2208 2.20272 16.8555 13.8643
480 1 -1.1104 0.916934 9.80119 20.8009
496 1 -1.1104 3.55109 10.0042 21.0415
552 1 -1.1104 3.9217 12.7262 21.0091
533 1 -1.1104 0.906266 12.6553 20.6998
657 2 2.2208 5.14192 11.3284 22.1748
663 1 -1.1104 1.1482 9.96032 23.4954
666 2 2.2208 5.15326 8.53809 25.1235
668 1 -1.1104 0.756729 9.78557 26.309
673 2 2.2208 2.32027 11.4078 25.0576
675 2 2.2208 2.36504 8.32627 22.1978
677 1 -1.1104 3.99983 9.78772 23.5696
679 1 -1.1104 3.43661 9.97974 26.4845
681 1 -1.1104 3.59246 12.5372 26.7312
706 1 -1.1104 1.23503 12.7872 23.7313
713 1 -1.1104 3.68172 12.6088 23.5744
717 1 -1.1104 0.800051 12.6889 26.5544
665 1 -1.1104 6.87867 10.0639 23.3687
709 1 -1.1104 6.41168 12.6553 23.8078
670 1 -1.1104 6.47781 9.97911 26.3591
462 2 2.2208 10.8839 17.0145 22.3149
569 1 -1.1104 12.39 18.4796 20.7808
484 1 -1.1104 6.39171 9.67449 20.8772
579 1 -1.1104 9.61779 12.7296 21.1617
567 1 -1.1104 12.4668 12.9896 20.8409
523 1 -1.1104 9.43691 10.2221 20.8716
511 1 -1.1104 12.1729 9.85665 20.8658
712 1 -1.1104 6.79384 12.6213 26.6004
687 1 -1.1104 9.38663 9.97715 26.4495
689 1 -1.1104 9.83572 9.91939 23.503
691 2 2.2208 7.9502 8.54869 22.1021
693 2 2.2208 8.0243 11.2574 25.114
696 2 2.2208 11.0066 11.3307 22.2404
700 1 -1.1104 12.5732 9.96852 23.6299
701 2 2.2208 10.9908 8.3016 24.8454
703 1 -1.1104 12.3767 9.91354 26.1778
589 1 -1.1104 9.3989 12.7172 26.6395
463 1 -1.1104 12.2822 12.6961 23.8439
498 1 -1.1104 12.2942 12.7739 26.5617
561 1 -1.1104 9.37644 12.6558 23.9409
616 2 2.2208 7.90604 19.9665 22.1166
554 1 -1.1104 3.98321 18.0084 20.6771
539 1 -1.1104 6.69492 18.3628 20.822
647 2 2.2208 2.4531 14.05 22.2298
714 1 -1.1104 6.44803 15.6175 26.5303
559 1 -1.1104 3.95864 15.4019 20.5782
545 1 -1.1104 1.03369 15.5714 20.7203
535 1 -1.1104 1.3104 18.411 20.9891
720 2 2.2208 5.27989 14.2029 25.0077
649 2 2.2208 2.62469 20.0313 22.341
652 1 -1.1104 3.74311 15.6405 23.6085
655 1 -1.1104 0.945353 15.5465 23.8254
682 1 -1.1104 3.62744 15.1789 26.4459
683 2 2.2208 2.24104 16.8617 25.2491
686 1 -1.1104 3.72746 18.3123 26.2162
705 2 2.2208 5.0952 16.8753 22.2264
707 1 -1.1104 0.829692 18.4198 24.0048
711 1 -1.1104 3.98286 18.6978 23.3274
715 1 -1.1104 0.982727 18.1059 26.7058
716 1 -1.1104 0.824957 15.3873 26.7188
719 2 2.2208 5.29279 19.9366 25.1414
718 1 -1.1104 6.56789 18.6374 23.765
560 1 -1.1104 12.2076 15.7421 26.6093
526 2 2.2208 10.7388 19.794 25.3378
590 1 -1.1104 9.34981 18.4635 26.6012
586 1 -1.1104 9.40476 15.6378 20.7472
615 2 2.2208 8.12356 14.1394 22.5077
497 1 -1.1104 12.1281 18.3762 23.6785
617 1 -1.1104 9.60772 15.431 23.617
421 2 2.2208 -0.491151 5.38999 22.2561
680 1 -1.1104 6.72088 15.5902 23.817
525 2 2.2208 10.8135 14.1832 25.3192
587 2 2.2208 7.86981 17.0009 25.0292
645 2 2.2208 -0.423471 19.8874 25.197
9015 2 2.2208 8.30546 -5.76929 13.649
369 2 2.2208 10.8691 -0.32551 27.8695
9157 2 2.2208 2.41686 -5.66832 19.2277
710 2 2.2208 13.4749 5.34058 24.9821
625 2 2.2208 -0.264504 -0.172525 22.1551
9092 2 2.2208 5.03998 -5.73462 22.3251
650 2 2.2208 13.6799 11.1527 19.5251
381 2 2.2208 5.03003 11.1557 27.7567
335 2 2.2208 -0.416425 19.8063 13.6375
458 2 2.2208 -0.364284 19.6887 19.3784
459 2 2.2208 13.6028 -2.80635 16.7552
9091 2 2.2208 2.31721 -5.71106 25.1781
358 2 2.2208 5.2328 19.71 13.783
387 2 2.2208 13.6569 8.50081 27.8477
334 2 2.2208 -0.290238 -2.798 13.8228
352 2 2.2208 5.23418 8.68507 13.7553
9019 2 2.2208 2.46604 -5.58575 13.8311
370 2 2.2208 7.98205 -3.10843 27.7106
721 2 2.2208 5.19328 22.562 5.36947
723 1 -1.1104 1.35082 24.0188 1.12261
724 1 -1.1104 0.822038 23.9884 4.00543
725 1 -1.1104 0.86372 21.256 1.01892
727 2 2.2208 5.04919 25.3424 2.8195
728 1 -1.1104 1.18143 21.0037 3.94084
730 1 -1.1104 4.03836 24.0454 1.31691
731 2 2.2208 2.49169 22.5132 2.60114
733 1 -1.1104 3.69412 23.7656 3.83708
734 2 2.2208 2.28791 25.5381 5.58053
735 1 -1.1104 3.70848 21.485 1.11599
737 1 -1.1104 3.87398 20.94 3.83821
1074 2 2.2208 -0.364489 28.1258 -0.263052
726 1 -1.1104 0.899082 26.8179 1.28263
745 1 -1.1104 6.84246 26.9232 1.30906
744 1 -1.1104 6.60705 21.5079 0.879282
743 1 -1.1104 6.53171 24.1039 4.11137
738 1 -1.1104 3.55115 26.7651 4.04537
747 1 -1.1104 6.77256 26.6028 3.90395
1055 2 2.2208 8.06106 33.8769 13.733
1070 2 2.2208 2.63412 25.2083 -0.140387
869 1 -1.1104 3.92755 21.2518 7.03319
1076 2 2.2208 8.244 25.5417 -0.371638
746 1 -1.1104 6.84081 21.28 3.78943
742 1 -1.1104 6.55203 24.1611 1.21537
748 2 2.2208 10.9626 22.672 5.4135
750 1 -1.1104 11.974 24.1131 0.929578
751 1 -1.1104 12.3914 24.1602 3.86775
752 1 -1.1104 12.3842 21.3903 0.928429
754 2 2.2208 10.873 25.4191 2.39937
755 1 -1.1104 12.2218 21.2378 3.87662
757 1 -1.1104 9.49069 24.0901 0.818425
758 2 2.2208 7.94824 22.7322 2.45943
760 1 -1.1104 9.55345 24.2798 3.83355
761 2 2.2208 8.11214 25.3251 5.14139
762 1 -1.1104 9.258 21.3392 1.05064
764 1 -1.1104 9.4872 21.1325 4.00595
756 1 -1.1104 12.5475 26.951 4.02302
765 1 -1.1104 9.65546 27.0594 3.84697
763 1 -1.1104 9.56411 26.789 1.01868
1080 2 2.2208 2.28161 31.1116 -0.343889
1442 1 -1.1104 3.61519 46.6318 3.95945
1087 2 2.2208 10.6532 45.2747 -0.358336
1084 2 2.2208 8.09099 36.8172 -0.3429
729 1 -1.1104 0.935552 26.6214 4.02374
736 1 -1.1104 3.87083 26.9074 1.1691
1615 1 -1.1104 6.43787 46.4521 6.7494
722 2 2.2208 5.13548 28.2232 5.28754
732 2 2.2208 2.36382 28.129 2.57367
770 1 -1.1104 1.20826 29.8093 1.14979
773 1 -1.1104 0.816677 29.453 4.03231
776 1 -1.1104 0.770478 32.4235 1.13474
777 2 2.2208 5.31153 31.1115 2.68625
779 1 -1.1104 0.946233 32.425 3.80349
781 1 -1.1104 3.99297 29.6082 1.32204
784 1 -1.1104 3.6333 29.5658 4.02484
786 2 2.2208 2.32948 30.9641 5.42119
788 1 -1.1104 3.76415 32.3847 1.02711
789 1 -1.1104 3.83613 32.4143 4.12429
795 1 -1.1104 6.59596 32.3744 1.26449
780 1 -1.1104 6.70847 32.4232 4.19757
1073 2 2.2208 5.42138 28.2596 0.0129237
793 1 -1.1104 6.74433 29.6962 1.04357
1039 2 2.2208 13.5351 36.9335 10.931
753 1 -1.1104 12.1417 26.8486 1.07273
1033 2 2.2208 13.7193 22.606 8.28278
794 1 -1.1104 6.57588 29.5522 3.77342
749 2 2.2208 10.7598 28.1888 5.24041
759 2 2.2208 8.22156 28.2866 2.41543
797 1 -1.1104 12.4489 29.8284 1.12945
799 1 -1.1104 12.3702 29.6277 4.03826
801 1 -1.1104 12.0984 32.6711 1.08909
802 2 2.2208 10.9541 31.0477 2.66115
804 1 -1.1104 12.3266 32.3823 4.00694
805 1 -1.1104 9.54715 29.4677 0.875693
808 1 -1.1104 9.34149 29.727 4.00504
810 2 2.2208 8.10768 31.1886 5.58274
812 1 -1.1104 9.54855 32.4409 1.18397
813 1 -1.1104 9.29156 32.53 3.91871
739 2 2.2208 -0.3142 25.3513 2.69539
1027 2 2.2208 10.605 45.2013 10.8973
953 1 -1.1104 9.59474 32.3481 6.75413
1044 2 2.2208 2.42424 28.0894 13.7884
1085 2 2.2208 8.13338 31.019 -0.29354
1081 2 2.2208 5.2939 33.822 -0.520095
783 2 2.2208 2.34884 33.9377 2.51198
769 2 2.2208 4.94819 34.1408 5.51037
771 1 -1.1104 0.503376 35.276 1.19237
774 1 -1.1104 0.616972 35.2369 4.07478
778 2 2.2208 5.23973 36.9245 2.31682
782 1 -1.1104 3.49681 35.5409 1.35246
785 1 -1.1104 3.56435 35.2486 4.15353
787 2 2.2208 2.16787 36.674 5.31433
815 2 2.2208 5.14995 39.5219 5.35729
821 1 -1.1104 0.731973 37.9704 1.14993
826 1 -1.1104 0.848254 38.0619 3.88496
831 2 2.2208 2.23719 39.3554 2.73308
835 1 -1.1104 3.58724 38.4231 1.14227
837 1 -1.1104 3.95858 38.047 3.82444
828 1 -1.1104 6.58347 38.1422 3.66196