LAMMPS (29 Oct 2020)
OMP_NUM_THREADS environment is not set. Defaulting to 1 thread. (../comm.cpp:94)
  using 1 OpenMP thread(s) per MPI task
OMP_NUM_THREADS environment is not set. Defaulting to 1 thread. (../comm.cpp:94)
  using 1 OpenMP thread(s) per MPI task
Reading data file ...
  orthogonal box = (-0.27717828 -3.4472206 -0.27717828) to (27.617178 331.52722 27.617178)
  2 by 13 by 2 MPI processor grid
  reading atoms ...
  18000 atoms
  reading velocities ...
  18000 velocities
Finding 1-2 1-3 1-4 neighbors ...
  special bond factors lj:    0.0      0.0      0.0     
  special bond factors coul:  0.0      0.0      0.0     
     0 = max # of 1-2 neighbors
     0 = max # of 1-3 neighbors
     0 = max # of 1-4 neighbors
     1 = max # of special neighbors
  special bonds CPU = 0.003 seconds
  read_data CPU = 0.063 seconds
99 atoms in group sphere
4 atoms in group oxygen
13 atoms in group thorium
86 atoms in group 1
90 atoms in group cluster
6000 atoms in group Th
12000 atoms in group O
30 atoms in group Th_group
60 atoms in group O_group
WARNING: Ignoring 'compress yes' for molecular system (../delete_atoms.cpp:125)
Deleted 90 atoms, new total = 17910
99 atoms in group sphere
4 atoms in group oxygen
13 atoms in group thorium
86 atoms in group 1
90 atoms in group cluster
5970 atoms in group Th
11940 atoms in group O
30 atoms in group Th_group
60 atoms in group O_group
WARNING: Ignoring 'compress yes' for molecular system (../delete_atoms.cpp:125)
Deleted 90 atoms, new total = 17820
Setting atom values ...
  11880 settings made for charge
Setting atom values ...
  5940 settings made for charge
PPPM initialization ...
  using 12-bit tables for long-range coulomb (../kspace.cpp:328)
  G vector (1/distance) = 0.29913531
  grid = 40 240 40
  stencil order = 5
  estimated absolute RMS force accuracy = 0.00015449248
  estimated relative force accuracy = 1.0728909e-05
  using single precision MKL FFT
  3d grid and FFT values/proc = 18225 7600
Neighbor list info ...
  update every 1 steps, delay 0 steps, check yes
  max neighbors/atom: 2000, page size: 100000
  master list distance cutoff = 13
  ghost atom cutoff = 13
  binsize = 6.5, bins = 5 52 5
  2 neighbor lists, perpetual/occasional/extra = 2 0 0
  (1) pair coul/long, perpetual
      attributes: half, newton on
      pair build: half/bin/newton
      stencil: half/bin/3d/newton
      bin: standard
  (2) pair eam/alloy, perpetual, copy from (1)
      attributes: half, newton on
      pair build: copy
      stencil: none
      bin: none
Setting up cg style minimization ...
  Unit style    : metal
  Current step  : 0
WARNING: Energy due to 3 extra global DOFs will be included in minimizer energies
Per MPI rank memory allocation (min/avg/max) = 9.473 | 10.15 | 10.28 Mbytes
Step Temp E_pair E_mol TotEng Press Volume 
       0            0    -233903.7            0    -233903.7   -494.23454    260641.98 
      34            0   -234097.45            0   -234097.45    371.37243    260624.98 
Loop time of 1.16063 on 52 procs for 34 steps with 17820 atoms

98.7% CPU use with 52 MPI tasks x 1 OpenMP threads

Minimization stats:
  Stopping criterion = linesearch alpha is zero
  Energy initial, next-to-last, final = 
     -233903.699004474  -234097.446488155  -234097.446488155
  Force two-norm initial, final = 369.09140 126.69739
  Force max component initial, final = 284.51613 78.033389
  Final line search alpha, max atom move = 5.3380722e-13 4.1654786e-11
  Iterations, force evaluations = 34 98

MPI task timing breakdown:
Section |  min time  |  avg time  |  max time  |%varavg| %total
---------------------------------------------------------------
Pair    | 0.60117    | 0.63948    | 0.67633    |   2.5 | 55.10
Bond    | 7.865e-06  | 1.304e-05  | 2.6128e-05 |   0.0 |  0.00
Kspace  | 0.20764    | 0.24478    | 0.28338    |   4.0 | 21.09
Neigh   | 0          | 0          | 0          |   0.0 |  0.00
Comm    | 0.020402   | 0.021646   | 0.02281    |   0.4 |  1.87
Output  | 0          | 0          | 0          |   0.0 |  0.00
Modify  | 0          | 0          | 0          |   0.0 |  0.00
Other   |            | 0.2547     |            |       | 21.95

Nlocal:        342.692 ave         404 max         287 min
Histogram: 3 6 5 11 3 6 7 7 2 2
Nghost:        5599.98 ave        5738 max        5468 min
Histogram: 2 4 7 10 6 5 4 5 5 4
Neighs:       109612.0 ave      130396 max       84386 min
Histogram: 2 2 3 5 12 4 10 6 6 2

Total # of neighbors = 5699812
Ave neighs/atom = 319.85477
Ave special neighs/atom = 0.0000000
Neighbor list builds = 0
Dangerous builds = 0
Resetting atom IDs ...
PPPM initialization ...
  using 12-bit tables for long-range coulomb (../kspace.cpp:328)
  G vector (1/distance) = 0.29913896
  grid = 40 240 40
  stencil order = 5
  estimated absolute RMS force accuracy = 0.00015445129
  estimated relative force accuracy = 1.0726048e-05
  using single precision MKL FFT
  3d grid and FFT values/proc = 18225 7600
Finding 1-2 1-3 1-4 neighbors ...
  special bond factors lj:    0.0      0.0      0.0     
  special bond factors coul:  0.0      0.0      0.0     
     0 = max # of 1-2 neighbors
     0 = max # of 1-3 neighbors
     0 = max # of 1-4 neighbors
     1 = max # of special neighbors
  special bonds CPU = 0.001 seconds
PPPM initialization ...
  using 12-bit tables for long-range coulomb (../kspace.cpp:328)
  G vector (1/distance) = 0.29913896
  grid = 40 240 40
  stencil order = 5
  estimated absolute RMS force accuracy = 0.00015445129
  estimated relative force accuracy = 1.0726048e-05
  using single precision MKL FFT
  3d grid and FFT values/proc = 18225 7600
Setting up Verlet run ...
  Unit style    : metal
  Current step  : 34
  Time step     : 0.001
Per MPI rank memory allocation (min/avg/max) = 8.380 | 9.110 | 9.157 Mbytes
Step Dt Time Atoms Temp PotEng KinEng Press Volume 
      34        0.001            0    17820          600   -234097.45    1381.9719    6035.1075    260624.98 
   10000        0.001        9.966    17820    596.71757   -232972.87    1374.4115   -107.17932    264984.08 
   20000        0.001       19.966    17820     601.4488   -232962.26    1385.3089   -52.230561     264939.5 
   30000        0.001       29.966    17820     601.0175   -232967.55    1384.3155   -217.29906    264974.25 
   40000        0.001       39.966    17820    604.22187   -232979.56    1391.6961    23.820374    264864.32 
   50000        0.001       49.966    17820    600.72708   -232979.51    1383.6466    1546.5354    264696.72 
   60000        0.001       59.966    17820    603.83056   -233000.87    1390.7948    71.159047    264798.56 
   70000        0.001       69.966    17820    603.52323   -232967.51    1390.0869   -195.22876     264931.2 
   80000        0.001       79.966    17820    599.14444   -232974.25    1380.0013    573.38135    264806.08 
   90000        0.001       89.966    17820    593.05015   -232973.84    1365.9644    317.23792    264861.73 
  100000        0.001       99.966    17820    599.11379   -232975.33    1379.9307   -118.07308    264857.54 
  100034        0.001          100    17820    599.09567   -232978.19     1379.889   -1331.3343    265075.96 
Loop time of 831.761 on 52 procs for 100000 steps with 17820 atoms

Performance: 10.388 ns/day, 2.310 hours/ns, 120.227 timesteps/s
99.8% CPU use with 52 MPI tasks x 1 OpenMP threads

MPI task timing breakdown:
Section |  min time  |  avg time  |  max time  |%varavg| %total
---------------------------------------------------------------
Pair    | 489.52     | 510.25     | 528.9      |  32.8 | 61.35
Bond    | 0.010067   | 0.015147   | 0.027138   |   2.9 |  0.00
Kspace  | 176.53     | 196.04     | 216.56     |  54.7 | 23.57
Neigh   | 1.993      | 2.2898     | 2.4442     |   7.0 |  0.28
Comm    | 23.84      | 25.239     | 26.837     |  18.0 |  3.03
Output  | 0.059929   | 0.059989   | 0.061913   |   0.1 |  0.01
Modify  | 84.019     | 87.015     | 91.493     |  23.1 | 10.46
Other   |            | 10.86      |            |       |  1.31

Nlocal:        342.692 ave         370 max         316 min
Histogram: 1 2 5 9 18 4 1 3 6 3
Nghost:        5581.98 ave        5715 max        5487 min
Histogram: 4 3 20 12 1 0 0 0 3 9
Neighs:       109061.0 ave      120381 max       90229 min
Histogram: 1 2 1 0 4 14 17 2 6 5

Total # of neighbors = 5671156
Ave neighs/atom = 318.24669
Ave special neighs/atom = 0.0000000
Neighbor list builds = 809
Dangerous builds = 0
WARNING: Shell command 'mkdir' failed with error 'File exists' (../input.cpp:1197)
System init for write_data ...
PPPM initialization ...
  using 12-bit tables for long-range coulomb (../kspace.cpp:328)
  G vector (1/distance) = 0.29883648
  grid = 40 240 40
  stencil order = 5
  estimated absolute RMS force accuracy = 0.0001568404
  estimated relative force accuracy = 1.0891963e-05
  using single precision MKL FFT
  3d grid and FFT values/proc = 18225 7600
Total wall time: 0:13:53
