LAMMPS (29 Oct 2020)
OMP_NUM_THREADS environment is not set. Defaulting to 1 thread. (../comm.cpp:94)
  using 1 OpenMP thread(s) per MPI task
OMP_NUM_THREADS environment is not set. Defaulting to 1 thread. (../comm.cpp:94)
  using 1 OpenMP thread(s) per MPI task
Reading data file ...
  orthogonal box = (-0.40119084 -7.2216982 -0.3924683) to (27.741191 499.34170 27.732468)
  2 by 26 by 1 MPI processor grid
  reading atoms ...
  27000 atoms
  reading velocities ...
  27000 velocities
Finding 1-2 1-3 1-4 neighbors ...
  special bond factors lj:    0.0      0.0      0.0     
  special bond factors coul:  0.0      0.0      0.0     
     0 = max # of 1-2 neighbors
     0 = max # of 1-3 neighbors
     0 = max # of 1-4 neighbors
     1 = max # of special neighbors
  special bonds CPU = 0.004 seconds
  read_data CPU = 0.095 seconds
Setting atom values ...
  18000 settings made for charge
Setting atom values ...
  9000 settings made for charge
PPPM initialization ...
  using 12-bit tables for long-range coulomb (../kspace.cpp:328)
  G vector (1/distance) = 0.29880206
  grid = 40 360 40
  stencil order = 5
  estimated absolute RMS force accuracy = 0.00015742275
  estimated relative force accuracy = 1.0932405e-05
  using single precision MKL FFT
  3d grid and FFT values/proc = 21375 11200
Neighbor list info ...
  update every 1 steps, delay 0 steps, check yes
  max neighbors/atom: 2000, page size: 100000
  master list distance cutoff = 11.3
  ghost atom cutoff = 11.3
  binsize = 5.65, bins = 5 90 5
  2 neighbor lists, perpetual/occasional/extra = 2 0 0
  (1) pair coul/long, perpetual
      attributes: half, newton on
      pair build: half/bin/newton
      stencil: half/bin/3d/newton
      bin: standard
  (2) pair eam/alloy, perpetual, copy from (1)
      attributes: half, newton on
      pair build: copy
      stencil: none
      bin: none
Setting up Verlet run ...
  Unit style    : metal
  Current step  : 0
  Time step     : 0.001
Per MPI rank memory allocation (min/avg/max) = 8.477 | 9.331 | 9.374 Mbytes
Step Temp E_pair E_mol TotEng Press 
       0          900   -352126.57            0   -348985.66   -1074.1016 
  100000    902.49049   -352140.38            0   -348990.78   -840.08251 
Loop time of 933.615 on 52 procs for 100000 steps with 27000 atoms

Performance: 9.254 ns/day, 2.593 hours/ns, 107.111 timesteps/s
99.8% CPU use with 52 MPI tasks x 1 OpenMP threads

MPI task timing breakdown:
Section |  min time  |  avg time  |  max time  |%varavg| %total
---------------------------------------------------------------
Pair    | 630.21     | 642.57     | 652.94     |  19.2 | 68.83
Bond    | 0.011115   | 0.014089   | 0.021442   |   1.6 |  0.00
Kspace  | 193.61     | 203.12     | 214.45     |  34.1 | 21.76
Neigh   | 63.668     | 64.914     | 66.241     |   7.4 |  6.95
Comm    | 15.092     | 15.899     | 18.662     |  18.8 |  1.70
Output  | 5.6494e-05 | 6.141e-05  | 0.00026283 |   0.0 |  0.00
Modify  | 2.2774     | 5.335      | 7.0069     |  65.9 |  0.57
Other   |            | 1.769      |            |       |  0.19

Nlocal:        519.231 ave         531 max         485 min
Histogram: 1 2 1 0 0 4 8 6 20 10
Nghost:        4806.83 ave        4853 max        4708 min
Histogram: 1 1 1 1 4 4 9 20 9 2
Neighs:       104814.0 ave      108514 max       98370 min
Histogram: 1 3 0 2 5 5 13 16 5 2

Total # of neighbors = 5450319
Ave neighs/atom = 201.86367
Ave special neighs/atom = 0.0000000
Neighbor list builds = 20004
Dangerous builds = 0
18000 atoms in group oxygen
PPPM initialization ...
  using 12-bit tables for long-range coulomb (../kspace.cpp:328)
  G vector (1/distance) = 0.29880206
  grid = 40 360 40
  stencil order = 5
  estimated absolute RMS force accuracy = 0.00015742275
  estimated relative force accuracy = 1.0932405e-05
  using single precision MKL FFT
  3d grid and FFT values/proc = 21375 11200
Setting up Verlet run ...
  Unit style    : metal
  Current step  : 0
  Time step     : 0.001
Per MPI rank memory allocation (min/avg/max) = 9.528 | 9.604 | 9.624 Mbytes
Step f_2 Temp v_Tdiff v_deltaT 
       0            0    902.49049            0            0 
  100000    1052.3258    901.54251  0.033112173    384.42926 
  200000    2033.9274    903.07032   0.04261051    494.70407 
  300000    3012.3443    899.48855  0.042566136    494.18888 
  400000    3992.1846    900.08698   0.04192343    486.72713 
  500000    4970.3597     901.0153  0.042563035    494.15288 
  600000    5953.1573    896.46967  0.042352419    491.70765 
  700000     6931.179    901.50775  0.042105007    488.83522 
  800000    7919.6506    898.03177  0.042459372    492.94937 
  900000    8899.7232    897.06235  0.043710976    507.48037 
 1000000     9883.683     896.6118  0.042374284     491.9615 
 1100000    10858.138    900.74253  0.043737524    507.78859 
 1200000    11846.026    905.09753   0.04281807    497.11381 
 1300000    12833.192     902.3743  0.042883516    497.87364 
 1400000     13818.72    903.51479  0.042917803    498.27171 
 1500000    14796.204    897.85257  0.043051365    499.82235 
Loop time of 13700.1 on 52 procs for 1500000 steps with 27000 atoms

Performance: 9.460 ns/day, 2.537 hours/ns, 109.488 timesteps/s
99.9% CPU use with 52 MPI tasks x 1 OpenMP threads

MPI task timing breakdown:
Section |  min time  |  avg time  |  max time  |%varavg| %total
---------------------------------------------------------------
Pair    | 9248.4     | 9391.9     | 9484.2     |  54.2 | 68.55
Bond    | 0.14995    | 0.21279    | 0.30868    |   6.7 |  0.00
Kspace  | 2858.4     | 3000       | 3161.9     | 122.3 | 21.90
Neigh   | 939.96     | 986.24     | 1021.3     |  53.6 |  7.20
Comm    | 223.64     | 236.29     | 272.5      |  72.3 |  1.72
Output  | 0.0016301  | 0.0017057  | 0.0035751  |   0.6 |  0.00
Modify  | 11.684     | 14.083     | 15.943     |  31.3 |  0.10
Other   |            | 71.29      |            |       |  0.52

Nlocal:        519.231 ave         533 max         486 min
Histogram: 2 2 0 1 2 2 8 14 18 3
Nghost:        4794.69 ave        4852 max        4705 min
Histogram: 3 2 2 1 3 6 16 12 3 4
Neighs:       104835.0 ave      109251 max       98134 min
Histogram: 3 1 0 1 6 11 13 10 6 1

Total # of neighbors = 5451427
Ave neighs/atom = 201.90470
Ave special neighs/atom = 0.0000000
Neighbor list builds = 306385
Dangerous builds = 0
Total wall time: 4:03:54
