LAMMPS (29 Oct 2020)
OMP_NUM_THREADS environment is not set. Defaulting to 1 thread. (../comm.cpp:94)
  using 1 OpenMP thread(s) per MPI task
OMP_NUM_THREADS environment is not set. Defaulting to 1 thread. (../comm.cpp:94)
  using 1 OpenMP thread(s) per MPI task
Reading data file ...
  orthogonal box = (-0.49611388 -5.9586112 -0.49865827) to (27.836114 334.03861 27.838658)
  2 by 13 by 2 MPI processor grid
  reading atoms ...
  18000 atoms
  reading velocities ...
  18000 velocities
Finding 1-2 1-3 1-4 neighbors ...
  special bond factors lj:    0.0      0.0      0.0     
  special bond factors coul:  0.0      0.0      0.0     
     0 = max # of 1-2 neighbors
     0 = max # of 1-3 neighbors
     0 = max # of 1-4 neighbors
     1 = max # of special neighbors
  special bonds CPU = 0.003 seconds
  read_data CPU = 0.044 seconds
Setting atom values ...
  12000 settings made for charge
Setting atom values ...
  6000 settings made for charge
PPPM initialization ...
  using 12-bit tables for long-range coulomb (../kspace.cpp:328)
  G vector (1/distance) = 0.29829443
  grid = 40 240 40
  stencil order = 5
  estimated absolute RMS force accuracy = 0.00016215408
  estimated relative force accuracy = 1.1260978e-05
  using single precision MKL FFT
  3d grid and FFT values/proc = 15000 7600
Neighbor list info ...
  update every 1 steps, delay 0 steps, check yes
  max neighbors/atom: 2000, page size: 100000
  master list distance cutoff = 11.3
  ghost atom cutoff = 11.3
  binsize = 5.65, bins = 6 61 6
  2 neighbor lists, perpetual/occasional/extra = 2 0 0
  (1) pair coul/long, perpetual
      attributes: half, newton on
      pair build: half/bin/newton
      stencil: half/bin/3d/newton
      bin: standard
  (2) pair eam/alloy, perpetual, copy from (1)
      attributes: half, newton on
      pair build: copy
      stencil: none
      bin: none
Setting up Verlet run ...
  Unit style    : metal
  Current step  : 0
  Time step     : 0.001
Per MPI rank memory allocation (min/avg/max) = 8.150 | 8.171 | 8.186 Mbytes
Step Temp E_pair E_mol TotEng Press 
       0         1200   -233012.09            0   -230220.23   -648.18267 
  100000    1203.2485   -232980.03            0   -230180.61   -13.941305 
Loop time of 629.84 on 52 procs for 100000 steps with 18000 atoms

Performance: 13.718 ns/day, 1.750 hours/ns, 158.771 timesteps/s
99.9% CPU use with 52 MPI tasks x 1 OpenMP threads

MPI task timing breakdown:
Section |  min time  |  avg time  |  max time  |%varavg| %total
---------------------------------------------------------------
Pair    | 405.17     | 418.42     | 432.78     |  35.8 | 66.43
Bond    | 0.0066606  | 0.011031   | 0.017285   |   2.6 |  0.00
Kspace  | 134.2      | 151.67     | 165.79     |  66.7 | 24.08
Neigh   | 36.491     | 38.801     | 42.073     |  20.1 |  6.16
Comm    | 14.922     | 15.88      | 18.133     |  21.2 |  2.52
Output  | 5.8185e-05 | 6.3673e-05 | 0.00026589 |   0.0 |  0.00
Modify  | 2.3534     | 3.6888     | 5.913      |  60.6 |  0.59
Other   |            | 1.375      |            |       |  0.22

Nlocal:        346.154 ave         365 max         333 min
Histogram: 9 3 8 10 3 8 2 4 3 2
Nghost:        3981.27 ave        4071 max        3915 min
Histogram: 5 6 7 4 8 10 8 0 2 2
Neighs:        69525.7 ave       76226 max       64125 min
Histogram: 5 7 8 5 4 5 7 3 4 4

Total # of neighbors = 3615338
Ave neighs/atom = 200.85211
Ave special neighs/atom = 0.0000000
Neighbor list builds = 22021
Dangerous builds = 0
12000 atoms in group oxygen
PPPM initialization ...
  using 12-bit tables for long-range coulomb (../kspace.cpp:328)
  G vector (1/distance) = 0.29829443
  grid = 40 240 40
  stencil order = 5
  estimated absolute RMS force accuracy = 0.00016215408
  estimated relative force accuracy = 1.1260978e-05
  using single precision MKL FFT
  3d grid and FFT values/proc = 15000 7600
Setting up Verlet run ...
  Unit style    : metal
  Current step  : 0
  Time step     : 0.001
Per MPI rank memory allocation (min/avg/max) = 8.401 | 8.421 | 8.437 Mbytes
Step f_2 Temp v_Tdiff v_deltaT 
       0            0    1203.2485            0            0 
  100000    1279.9234    1209.1339  0.055347397    642.57814 
  200000       2463.3    1212.8108  0.068613921    796.60125 
  300000    3637.0624    1210.5655  0.070975065    824.01391 
  400000    4820.2416    1214.0466   0.07025232    815.62291 
  500000    5991.4086    1216.2786  0.070034523     813.0943 
  600000    7172.1165    1220.6275  0.069937054     811.9627 
  700000    8353.8945    1218.5589  0.068978791    800.83736 
  800000    9532.6645     1214.525  0.069156853    802.90465 
  900000    10709.724    1224.4717  0.068634478    796.83992 
 1000000    11893.885    1211.8597  0.069318081    804.77648 
Loop time of 6288.44 on 52 procs for 1000000 steps with 18000 atoms

Performance: 13.740 ns/day, 1.747 hours/ns, 159.022 timesteps/s
99.9% CPU use with 52 MPI tasks x 1 OpenMP threads

MPI task timing breakdown:
Section |  min time  |  avg time  |  max time  |%varavg| %total
---------------------------------------------------------------
Pair    | 3988.6     | 4117.3     | 4253.8     | 107.3 | 65.47
Bond    | 0.067551   | 0.10303    | 0.16382    |   7.0 |  0.00
Kspace  | 1401.8     | 1540.2     | 1674.5     | 193.6 | 24.49
Neigh   | 401.49     | 424.11     | 451.28     |  57.5 |  6.74
Comm    | 151.36     | 162.98     | 193.54     |  86.8 |  2.59
Output  | 0.0010022  | 0.0010715  | 0.0022471  |   0.5 |  0.00
Modify  | 5.5162     | 6.0653     | 6.7189     |  11.7 |  0.10
Other   |            | 37.68      |            |       |  0.60

Nlocal:        346.154 ave         363 max         335 min
Histogram: 10 2 8 7 6 7 6 1 2 3
Nghost:        3976.42 ave        4065 max        3911 min
Histogram: 3 5 12 8 5 5 4 6 3 1
Neighs:        69520.8 ave       75098 max       64068 min
Histogram: 5 4 8 5 4 4 6 6 9 1

Total # of neighbors = 3615081
Ave neighs/atom = 200.83783
Ave special neighs/atom = 0.0000000
Neighbor list builds = 242232
Dangerous builds = 0
Total wall time: 1:55:18
