ITEM: TIMESTEP
50000
ITEM: NUMBER OF ATOMS
18000
ITEM: BOX BOUNDS xy xz yz pp pp pp
-2.3228552748017295e-01 2.8126285527480210e+01 0.0000000000000000e+00
-2.7827289980161427e+00 3.3751072899801829e+02 0.0000000000000000e+00
-2.4084873240200697e-01 2.8134848732402347e+01 0.0000000000000000e+00
ITEM: ATOMS id type x y z
1 1 1.45831 -1.30783 1.2346
2 1 4.34903 -1.16475 1.11619
3 1 4.04371 -1.28814 4.18994
4 1 1.15449 -1.57114 4.03323
5 1 1.44692 1.49312 1.39466
6 1 4.39042 1.54596 1.30543
7 1 3.87947 1.53865 4.0371
8 1 1.08823 1.21272 4.57754
9 1 7.11717 -0.988494 1.1582
10 1 9.87049 -1.14401 1.00577
11 1 9.74256 -1.22575 4.12163
12 1 7.00012 -1.00065 3.83769
13 1 7.01063 1.74677 1.32469
14 1 9.74405 1.6604 1.1194
15 1 10.0912 1.52112 4.22863
16 1 6.87684 1.67828 3.99916
17 1 12.462 -1.29452 1.45451
18 1 12.6523 -1.43639 4.11176
19 1 12.4939 1.58982 1.18802
20 1 12.8396 1.35755 4.11758
21 1 0.959447 4.17707 0.919241
22 1 3.93753 4.31748 1.1567
23 1 4.10051 4.34357 4.03695
24 1 1.37015 4.3516 3.97838
25 1 1.36681 6.93668 1.51278
26 1 3.9452 7.17633 1.00848
27 1 4.31702 7.01233 3.95102
28 1 1.229 7.39198 4.08719
29 1 6.8861 4.54379 1.09776
30 1 9.7733 4.25576 1.17764
31 1 9.84294 4.23724 4.10399
32 1 6.95037 4.31327 4.06125
33 1 6.88155 7.32687 1.45651
34 1 9.9091 7.11991 1.21126
35 1 9.993 7.13021 3.91429
36 1 7.10139 6.96848 4.10551
37 1 12.5026 4.57102 1.21988
38 1 12.4288 4.45735 4.02003
39 1 12.819 7.43429 1.04145
40 1 12.7921 7.20485 3.64525
41 1 1.88352 9.78245 1.02764
42 1 4.33604 9.84855 1.25796
43 1 4.29735 9.93871 3.92664
44 1 1.31485 10.1531 3.90983
45 1 1.63197 12.8832 1.12301
46 1 4.42357 12.6776 1.5167
47 1 4.04954 13.0228 3.97052
48 1 1.2436 13.0685 3.76624
49 1 7.39184 9.77317 0.894082
50 1 10.2729 9.87761 1.23956
51 1 9.64224 10.0685 3.85276
52 1 6.90628 9.86222 3.9852
53 1 6.96278 12.5254 1.40229
54 1 10.1046 12.7651 1.277
55 1 9.87246 12.9366 3.98008
56 1 6.84811 12.6607 4.06053
57 1 13.3034 10.2476 1.39726
58 1 12.638 10.0202 4.07966
59 1 13.0219 13.0018 1.09788
60 1 12.7656 13.0529 3.80463
61 1 0.953682 15.7589 1.12674
62 1 3.89984 15.6088 1.07114
63 1 4.30654 15.9119 3.92525
64 1 1.61697 15.6445 3.89435
65 1 1.00945 18.4856 1.468
66 1 4.16804 18.3563 1.22978
67 1 4.01534 18.9369 4.0639
68 1 1.08774 18.2714 4.24123
69 1 6.90028 15.3671 1.16645
70 1 10.089 15.6176 0.876193
71 1 9.652 15.838 3.98278
72 1 6.75482 15.5382 3.819
73 1 7.20404 18.3051 0.967195
74 1 9.99339 18.1865 0.941381
75 1 9.71283 18.502 3.68286
76 1 6.8816 18.4684 3.76205
77 1 12.5917 16.0961 4.03198
78 1 12.4948 18.6432 3.76599
79 1 12.9314 18.889 0.758691
12002 2 2.60568 -0.0510243 -0.140742
81 1 1.09457 21.3109 1.42006
82 1 4.12698 21.0859 1.21218
83 1 3.675 21.4206 3.75921
84 1 0.906593 21.2278 4.28443
85 1 6.64208 21.2978 1.26941
86 1 9.62819 21.2349 1.06498
87 1 9.73713 21.6043 3.97386
88 1 6.50769 21.5701 4.10899
89 1 12.5654 21.5417 1.31674
90 1 12.5282 21.3278 3.86771
91 1 1.3027 -1.25126 7.03649
92 1 4.18175 -0.922184 6.90954
93 1 4.34955 -0.609121 9.80572
94 1 1.25426 -0.971067 9.93346
95 1 1.43647 1.50571 7.03597
96 1 4.42241 1.59849 6.87747
97 1 4.17914 2.19231 9.44543
98 1 1.26466 1.94325 9.64541
99 1 6.91688 -1.08701 6.93733
100 1 9.44029 -1.33311 6.86293
101 1 10.184 -1.2038 10.0015
102 1 7.04987 -1.2179 9.70073
103 1 7.03017 1.66614 6.98896
104 1 10.0071 1.68278 7.24918
105 1 9.82062 1.362 9.85478
106 1 6.83232 1.59939 10.0031
107 1 12.5759 -1.44408 6.93344
12103 2 5.82128 -2.38182 11.1861
109 1 12.8081 1.4639 6.7678
110 1 12.4777 1.93836 9.47963
111 1 1.14314 4.38073 6.81618
112 1 4.09868 4.37129 6.75115
113 1 4.1853 4.8649 9.68111
114 1 1.47079 4.71371 9.67889
115 1 1.39519 7.06241 7.07024
116 1 4.33781 7.18958 6.95854
117 1 3.98947 7.45033 9.905
118 1 1.16442 7.5138 9.71335
119 1 7.18795 4.59402 6.98536
120 1 9.80099 4.615 6.72061
121 1 10.0812 4.45432 9.65699
122 1 7.07517 4.72326 9.7852
123 1 7.09376 7.14028 6.8653
124 1 9.61954 7.36599 6.95141
125 1 9.82965 7.13819 9.93495
126 1 7.17999 7.61006 9.57593
127 1 12.5359 4.54054 7.48132
128 1 12.5259 4.58367 10.3764
129 1 12.4322 7.03526 6.58089
130 1 12.711 7.33048 9.58471
131 1 0.984462 10.0393 6.72584
132 1 4.06357 10.0047 6.4276
133 1 4.20412 10.1719 9.28853
134 1 1.19834 10.2528 9.6461
135 1 1.41684 12.8869 6.74266
136 1 3.98177 12.8753 6.65603
137 1 3.81428 13.1732 9.50371
138 1 1.13771 12.8206 9.59851
139 1 7.20595 10.0926 6.77987
140 1 10.0188 10.2532 6.60951
141 1 10.006 9.89309 9.61129
142 1 6.97149 10.3731 9.38037
143 1 6.97765 12.9606 7.03173
144 1 9.96725 12.7322 6.822
145 1 9.8405 12.7961 9.38319
146 1 7.20085 13.2374 9.77249
147 1 12.8201 9.87361 6.54894
148 1 12.8176 10.0448 9.68354
149 1 12.752 12.8146 6.88282
150 1 12.6703 12.6283 9.76064
151 1 1.37032 15.8901 6.82173
152 1 4.08263 15.7648 6.69804
153 1 3.86713 15.8617 9.49695
154 1 1.17217 15.6945 9.50951
155 1 1.15472 18.483 7.133
156 1 4.08727 18.7731 6.80654
157 1 3.86662 18.7121 9.69464
158 1 0.992294 18.5936 9.71462
159 1 6.88934 15.9138 6.7954
160 1 9.95314 15.4069 6.62924
161 1 9.8276 15.5589 9.42483
162 1 6.7064 15.8089 9.59595
163 1 6.83422 18.7521 6.69009
164 1 9.70162 18.4244 6.26782
165 1 9.60423 18.3409 9.52263
166 1 6.93842 18.5231 9.78439
167 1 12.6937 15.5586 6.59856
168 1 12.5159 15.454 9.58515
169 1 12.7998 18.6688 6.65313
170 1 12.301 18.378 9.31083
171 1 1.09343 21.2296 6.90392
172 1 4.17214 21.4815 6.91173
173 1 3.91566 21.6156 9.28551
174 1 1.12474 21.3862 9.69161
175 1 7.00477 21.4988 6.79432
176 1 9.87307 21.0441 7.04712
177 1 9.9339 21.4072 9.75849
178 1 6.94233 21.4479 9.76075
179 1 12.7495 21.1628 6.65557
180 1 12.7957 21.1868 9.71282
181 1 1.52821 -0.913634 12.6993
182 1 4.30246 -1.19289 12.5394
183 1 1.26598 1.86982 12.5871
184 1 4.22952 1.83428 12.4595
185 1 7.18323 -1.27791 12.5609
186 1 10.0679 -1.05107 12.5565
187 1 6.95373 1.5311 12.5454
188 1 9.80093 1.92342 12.6098
189 1 12.8513 -1.18396 12.4057
190 1 12.7795 1.56857 12.7474
191 1 0.933115 4.37817 12.4767
192 1 3.84824 4.64426 12.5482
193 1 1.38732 7.25414 12.6838
194 1 4.28656 7.23467 12.6396
195 1 7.03632 4.60701 12.5089
196 1 9.69238 4.6105 12.7594
197 1 7.12255 7.26824 12.3581
198 1 10.0298 7.26806 12.7753
199 1 12.4279 4.21505 12.8822
200 1 12.5886 7.33009 12.427
201 1 1.21406 10.1518 12.4678
202 1 3.96551 9.80826 12.3626
203 1 1.3781 12.6173 12.5364
204 1 4.34052 12.9235 12.6416
205 1 6.78332 10.0636 12.2903
206 1 9.72771 10.0285 12.3277
207 1 7.29121 12.6708 12.5068
208 1 9.8765 12.6499 12.5011
209 1 12.716 10.2089 12.484
210 1 12.6887 13.1325 12.5638
211 1 1.35036 15.405 12.4736
212 1 4.06843 15.7507 12.3445
213 1 1.23082 18.6577 12.4493
214 1 4.07093 18.4595 12.567
215 1 7.10589 15.642 12.3894
216 1 9.92653 15.6472 12.5327
217 1 6.99063 18.4498 12.4059
218 1 9.56033 18.6152 12.3492
219 1 12.8537 16.1295 12.568
220 1 12.4403 18.7036 12.2372
221 1 0.998699 21.2205 12.5085
222 1 3.8508 21.1719 12.0238
223 1 6.63342 21.5325 12.3631
224 1 9.34979 21.6134 12.5627
225 1 12.4624 21.2324 12.2206
12105 2 11.2196 -2.67464 11.2817
12081 2 -0.089514 14.3311 5.47837
12061 2 -0.263413 3.05781 5.66218
12111 2 -0.110438 8.73936 11.1096
12053 2 2.83378 -2.45778 8.53024
12044 2 -0.175838 22.709 2.55107
12004 2 0.00202718 -0.00123205 2.82693
12008 2 5.63973 0.268579 2.654
15001 2 13.7535 0.0423221 -0.0261948
12010 2 11.3517 0.0882089 2.85991
12125 2 11.1504 19.6578 10.8935
12024 2 0.0536512 11.5758 2.49709
12013 2 2.81246 2.91797 2.5025
12124 2 8.35536 23.0498 11.2233
15012 2 13.9202 2.90813 2.66644
12106 2 -0.253582 3.03481 10.9318
12017 2 8.38807 2.92663 2.80542
12018 2 5.53978 5.66133 2.57354
12055 2 5.65665 -2.43813 5.35203
12020 2 11.2135 5.88412 2.43946
12113 2 5.59037 8.80409 10.9816
12104 2 8.46234 0.0312846 11.0189
12023 2 2.77375 8.43767 2.61717
12131 2 2.56217 3.13047 13.9476
15146 2 13.9463 19.862 13.8191
12107 2 2.70462 6.0819 11.2584
12027 2 8.20773 8.33792 2.65108
12028 2 5.70517 11.2514 2.5635
108 1 13.2533 -0.914581 9.40801
12030 2 11.3589 11.2952 2.61967
12102 2 2.7631 0.315067 11.2566
12114 2 8.38369 11.5702 10.8703
12033 2 2.7874 14.3347 2.63903
12039 2 11.5307 14.3113 -0.254063
12100 2 11.2388 22.54 8.31214
12099 2 11.2266 19.8096 5.19297
12037 2 8.39697 14.0515 2.75458
12038 2 5.59626 16.8801 2.39245
12098 2 5.66266 22.9019 8.13382
12040 2 11.4154 17.1398 2.46408
12097 2 8.3434 19.9877 8.21943
12054 2 -0.110532 0.18724 8.26429
12043 2 2.55075 20.0234 2.54577
12123 2 5.47969 19.9559 10.8119
12096 2 8.2295 22.6321 5.31212
12095 2 5.3302 20.0498 5.32594
12047 2 8.19051 20.0726 2.64921
12048 2 5.30072 22.9234 2.60179
12115 2 11.3083 8.75134 11.1929
12050 2 11.2143 22.5078 2.57243
12138 2 8.47403 8.6498 13.7732
12052 2 2.86166 0.223925 5.61206
12112 2 2.71308 11.4445 10.9089
12122 2 2.25521 22.7253 11.0883
12110 2 11.1916 2.98886 10.9174
12056 2 8.23594 0.0333301 5.44602
12109 2 8.39417 5.97884 11.2013
12058 2 5.77336 0.468425 8.28013
12108 2 5.58622 3.27686 11.2572
12060 2 11.2557 0.163313 8.51606
12120 2 11.3371 14.2127 11.0176
12062 2 2.78516 5.89894 5.43168
12063 2 2.56155 3.36169 8.27489
12119 2 8.35068 17.0152 11.1988
12065 2 5.61739 3.15243 5.66817
12066 2 8.56873 5.82561 5.40809
12067 2 8.33566 3.13199 8.35693
12068 2 5.59693 5.9294 8.27623
12069 2 11.4078 2.89007 5.35933
12070 2 11.1298 5.9881 8.324
438 1 12.8274 15.9279 1.07818
12072 2 2.72797 11.3515 5.19971
12073 2 2.47145 8.63568 8.12442
12118 2 5.46007 14.4696 10.9942
12075 2 5.67461 8.29953 5.57388
12076 2 8.52024 11.3891 5.49272
12077 2 8.42843 8.79088 8.29985
12078 2 5.56954 11.6602 8.03005
12079 2 11.3962 8.53536 5.37223
12080 2 11.3472 11.3956 8.28873
12007 2 8.22916 -2.55088 2.55069
12082 2 2.97141 17.1653 5.41709
12083 2 2.77123 14.333 7.95746
12117 2 2.55652 17.1073 11.0676
12085 2 5.5205 14.2908 5.29164
12086 2 8.29089 17.2959 5.14482
12087 2 8.38408 14.3943 8.07616
12088 2 5.43906 17.4053 8.43826
12089 2 11.301 14.2173 5.18556
12090 2 11.4165 16.9215 7.8578
12143 2 8.44532 14.3006 13.7397
12092 2 2.4402 22.5346 5.47989
12093 2 2.49507 19.9777 8.3298
12134 2 5.60577 5.91991 13.9611
12101 2 -0.128309 -2.71549 11.1296
12130 2 11.3665 0.253873 13.9338
12074 2 -0.208341 11.4988 8.44772
12145 2 10.9969 17.2102 13.6906
12001 2 -0.119398 -2.74123 -0.198362
12144 2 5.3722 17.0476 13.955
12025 2 5.4734 8.42721 -0.10676
12148 2 8.07035 20.0964 13.7966
12015 2 5.54497 2.92377 -0.251081
12150 2 11.0542 22.5896 13.9383
12003 2 2.81463 -2.48909 2.84709
12051 2 0.0254181 -2.67216 5.67592
12019 2 11.197 3.08188 -0.218066
12116 2 0.0768446 14.2469 10.9476
12146 2 2.5967 20.0452 13.7004
12136 2 2.63286 8.8396 13.6699
12071 2 -0.158089 8.79981 5.25674
12032 2 2.37259 17.1906 -0.0251075
12127 2 -0.107713 0.187662 13.8899
12016 2 8.59473 5.67828 -0.0850834
12132 2 -0.1225 5.95415 13.8991
12029 2 11.4009 8.60207 -0.205669
226 1 4.3261 -1.11657 15.1873
227 1 1.31276 -1.2138 15.37
228 1 4.3686 1.67716 15.3496
229 1 1.43316 1.62938 15.4625
230 1 10.2948 -1.44928 15.2942
231 1 7.1591 -0.931255 15.4949
232 1 10.0141 1.72255 15.5214
233 1 7.35263 1.77812 15.5439
234 1 12.965 -1.20405 15.3545
235 1 12.695 1.63856 15.3636
236 1 4.11201 4.44499 15.1386
237 1 1.31516 4.46613 15.2748
238 1 4.1987 7.25237 15.3639
239 1 1.2721 7.2963 15.3421
240 1 9.8382 4.51335 15.5061
241 1 7.10643 4.46558 15.5375
242 1 9.68918 7.32105 15.5027
243 1 7.00329 7.20186 15.5446
244 1 12.4197 4.45629 15.7269
245 1 12.5526 7.42798 15.4284
246 1 4.17102 9.93148 15.2042
247 1 1.29053 10.4022 15.2343
248 1 3.97862 12.9278 15.1858
249 1 1.32546 13.1889 15.4503
250 1 9.95501 9.99752 15.2576
251 1 7.05279 10.0468 15.3177
252 1 9.8068 12.899 15.3907
253 1 6.71573 12.9128 15.2363
254 1 12.6703 10.1681 15.3974
255 1 12.7225 13.0013 15.4278
256 1 4.29293 15.5032 15.3633
257 1 1.4398 16.0283 15.3143
258 1 4.08403 18.3047 15.3746
259 1 1.3629 18.7932 15.3937
260 1 9.60644 15.6442 15.2979
261 1 7.05032 15.9576 15.0092
262 1 9.76502 18.5868 15.3948
263 1 6.86751 18.9338 15.3451
264 1 12.6334 15.6081 15.3238
265 1 12.4962 18.431 15.2343
266 1 3.98118 21.4863 15.1015
267 1 1.15932 21.4551 15.3224
268 1 9.79975 21.1998 15.3368
269 1 6.72971 21.5112 15.3509
270 1 12.5333 21.2785 15.259
271 1 1.08499 -1.03614 18.1194
272 1 4.0765 -1.17564 18.1008
273 1 4.07225 -0.964693 21.0504
274 1 1.09286 -1.08665 20.7433
275 1 1.32089 1.67239 18.4012
276 1 4.30113 1.39217 18.0331
277 1 4.3149 1.67408 21.0784
278 1 1.45077 1.57374 21.1137
279 1 6.97785 -1.18999 18.1147
280 1 9.67549 -1.08315 18.3498
281 1 9.67873 -1.32282 21.0345
282 1 6.92996 -1.08139 20.9954
283 1 7.00028 1.87378 18.2759
284 1 10.0742 1.55641 18.2129
285 1 9.69202 1.61397 20.9323
286 1 7.08205 1.98819 21.2352
287 1 12.4854 -1.42339 18.0245
288 1 12.6989 -1.4475 20.9643
289 1 12.9649 1.53238 18.2488
290 1 12.467 1.34464 20.9604
291 1 1.41243 4.50461 18.1092
292 1 4.15707 4.4905 18.2009
293 1 3.95067 4.46799 21.206
294 1 0.973969 4.23745 20.9969
295 1 1.32863 7.21485 18.0057
296 1 3.92873 7.26891 18.2085
297 2 5.32501 5.81546 22.3848
298 1 3.8748 7.21049 20.9709
299 1 6.94176 4.58358 18.3604
300 1 9.72776 4.36529 18.1601
301 1 9.89511 4.63965 21.0093
302 1 6.69969 4.6287 20.9552
303 1 6.63546 7.4008 18.1587
304 1 9.52194 7.36946 18.3659
305 1 9.56411 7.42763 21.141
306 1 6.65957 7.17853 21.2157
307 1 12.4859 4.47882 18.3274
308 1 12.6814 4.03944 21.2642
309 1 12.3174 7.57241 18.1892
310 1 12.548 7.14725 20.9708
311 1 1.0948 9.99874 18.118
312 1 3.8705 10.1113 18.2274
313 1 3.96561 10.0604 21.0344
314 1 1.278 10.0535 21.131
315 1 1.41409 12.6969 18.3423
316 1 4.42496 12.9779 18.1346
317 1 4.00906 12.7181 20.8973
318 1 1.49051 12.9623 21.3198
319 1 6.84998 10.1872 17.994
320 1 9.93388 10.0913 18.0221
321 1 9.88317 10.1301 20.7778
322 1 7.022 10.1274 20.8269
323 1 7.21653 13.1661 17.9901
324 1 9.90081 12.7703 18.077
325 1 9.81955 12.7106 21.0859
326 1 6.86396 12.8719 20.8361
327 1 12.6412 10.1323 18.2764
328 1 12.7183 9.90474 21.2763
329 1 12.7824 13.0745 18.0991
330 1 12.8492 12.5623 20.7491
331 1 1.25107 15.6642 18.4296
332 1 3.9803 15.7176 18.0607
333 1 4.25489 15.5464 20.906
334 1 1.30599 15.6388 20.9435
335 1 1.22949 18.3597 18.1588
336 1 3.96622 18.7176 18.1285
337 1 4.01919 18.3584 21.1132
338 1 1.37331 18.5955 21.1522
339 1 6.84259 15.8204 17.9658
340 1 9.70302 15.4621 17.8496
341 1 9.58479 15.7009 20.8651
342 1 6.90543 15.5634 21.1015
343 1 6.72647 18.5222 18.1439
344 1 9.65624 18.5338 18.2456
345 1 9.61232 18.5267 20.9647
346 1 6.61149 18.7479 20.7154
347 1 12.604 15.8856 18.1242
348 1 13.0066 15.6618 20.8795
349 1 12.457 18.8145 18.1704
350 1 12.144 18.3705 21.0506
351 1 1.12249 21.1819 18.1406
352 1 4.06423 21.5077 17.894
353 1 3.8996 21.2496 20.8726
354 1 0.968652 21.2606 21.0753
355 1 6.73991 21.2484 18.3257
356 1 9.63718 21.2848 18.3234
357 1 9.67407 21.2557 21.2087
358 1 6.90305 21.3755 21.172
359 1 12.3809 21.5005 18.261
12171 2 -0.0301211 8.60224 16.7929
361 1 1.17073 -1.28124 23.8519
362 1 4.13265 -1.30299 23.7279
363 1 3.93507 -1.17156 26.4055
364 1 1.03331 -1.24702 26.6455
365 1 0.918986 1.62938 24.0093
366 1 4.09196 1.35994 24.0119
367 1 3.87632 1.62081 26.8153
368 1 1.1662 1.5595 26.7222
369 1 6.98719 -1.13241 23.903
370 1 9.72662 -1.35931 23.671
371 1 9.50832 -1.3108 26.6366
372 1 6.60861 -1.29975 26.7214
373 1 6.84847 1.51953 23.8852
374 1 9.77543 1.59589 23.6901
375 1 9.73682 1.46212 26.7722
376 1 6.96815 1.531 26.7514
377 1 12.5007 -1.41278 24.0881
378 1 12.454 -1.17167 26.9485
379 1 12.6913 1.46016 23.7808
380 1 12.5319 1.68262 26.4994
381 1 1.21665 4.41095 23.6975
382 1 4.11307 4.5331 23.7761
383 1 4.17511 4.2813 26.6495
384 1 1.38327 4.37829 26.7101
385 1 1.23381 7.09127 23.723
386 1 4.3523 7.3345 23.781
387 1 4.27878 7.17812 26.8135
388 1 1.52265 7.08784 26.6378
389 1 6.69301 4.45016 23.6971
390 1 9.57777 4.14854 23.7303
391 1 9.81219 4.32957 26.6582
392 1 6.92338 4.35189 26.6257
393 1 6.79587 7.11348 23.6344
394 1 9.8252 6.92716 23.6909
395 1 9.81827 6.9094 26.7436
396 1 7.15267 7.16628 26.9229
397 1 12.6163 4.29658 24.0685
398 1 12.5345 4.42156 26.7973
399 1 12.7501 7.16781 23.6764
400 1 12.7942 7.12779 26.5236
401 1 1.31948 10.0807 23.9506
402 1 4.09839 10.0464 23.7636
403 1 4.19806 9.96375 26.7559
404 1 1.48859 9.89916 26.6622
405 1 0.852372 12.6507 23.9624
406 1 3.93413 12.8751 24.0769
407 1 4.36573 12.7054 26.7093
408 1 1.6399 12.6857 26.5091
409 1 7.2388 10.2455 23.4378
410 1 9.94224 10.0137 23.8841
411 1 9.82524 9.89181 26.67
412 1 6.99519 9.90374 26.3095
413 1 6.78081 12.8872 23.8815
414 1 9.70717 12.8485 24.2258
415 1 9.85838 13.0222 27.0125
416 1 7.02428 12.7231 26.8594
417 1 12.7953 10.007 23.7835
418 1 12.8583 9.87749 26.9317
419 1 13.1344 12.6931 24.0853
420 1 12.8323 12.778 27.0236
421 1 1.54268 15.3671 23.5234
422 1 4.36981 15.586 23.8022
423 1 4.26903 15.5857 26.8517
424 1 1.22584 15.8963 26.5068
425 1 1.17467 18.1932 24.0149
426 1 4.08229 18.339 24.1014
427 1 3.67251 18.3519 26.8955
428 1 1.13297 18.6061 26.8048
429 1 7.58125 15.5135 23.8131
430 1 9.80639 18.15 23.8546
431 1 12.592 15.6016 26.546
432 1 6.75201 15.5378 26.7735
433 1 6.8977 18.3425 23.5084
434 1 12.5912 18.7522 23.8777
435 1 9.79643 18.5206 26.5965
436 1 6.67466 18.2481 26.8099
437 1 12.7381 15.7636 23.8268
12153 2 2.77304 -2.59421 19.3192
439 1 12.5978 20.9339 21.3291
440 1 12.5004 18.1477 26.8067
441 1 0.99761 21.1799 23.9531
442 1 3.78021 21.0219 23.6695
443 1 4.19682 21.326 26.6459
444 1 0.910699 21.3049 26.9837
445 1 6.64123 21.0911 23.762
446 1 9.46919 21.157 24.063
447 1 9.79853 21.1273 26.7403
448 1 7.01946 21.2219 26.4922
449 1 12.0975 21.3825 23.8534
450 1 12.4585 21.1969 26.8012
12046 2 8.05128 22.5011 28.0923
12250 2 11.1285 22.6883 25.463
12184 2 -0.185845 17.0539 19.6236
12133 2 8.60488 3.1118 14.2355
12154 2 -0.257483 0.371408 19.6682
12227 2 8.37384 8.41833 25.3465
12249 2 10.8946 19.764 22.5368
12226 2 8.58395 11.6676 22.5766
12225 2 5.49404 9.05764 22.2405
12022 2 2.94722 11.4585 28.0509
12223 2 2.78336 8.67059 25.3199
12248 2 5.56923 22.6286 25.3505
12222 2 2.59618 11.5066 22.5458
12228 2 5.71728 11.2477 25.1738
12026 2 8.55148 11.3054 27.9519
12220 2 11.1194 5.68422 25.0738
12247 2 8.33212 19.6431 25.2796
15191 2 13.8513 22.6461 16.5432
12021 2 0.106716 8.50378 28.2027
12128 2 8.37802 -2.6136 14.0596
12219 2 11.1847 2.90396 22.3877
12246 2 8.27876 22.4076 22.6172
6309 1 1.44386 7.15666 20.8798
12218 2 5.60428 5.92695 25.5003
15212 2 14.0286 2.977 25.2565
12245 2 5.37047 19.8049 22.4307
12152 2 2.64102 0.223509 16.7907
12231 2 -0.151921 14.2736 22.4292
12243 2 2.43415 19.7269 25.2934
12181 2 -0.0520072 14.5917 16.7002
12156 2 8.5464 0.32841 16.8597
15242 2 13.8448 19.9362 25.1287
12158 2 5.53311 0.196833 19.6848
12221 2 -0.0735693 8.50536 22.3598
12160 2 11.1877 -0.0235705 19.6738
12242 2 2.40724 22.7107 22.4069
12162 2 2.70433 6.08119 16.6646
12163 2 2.77368 2.86684 19.6086
12240 2 11.3134 17.0122 25.1418
12165 2 5.66983 3.00146 16.6361
12166 2 8.56713 5.80054 16.8985
12167 2 8.35347 3.04107 19.6493
12168 2 5.39037 5.91895 19.224
12169 2 11.4316 2.98723 16.8946
12170 2 11.1127 5.90711 19.6984
12239 1 9.99224 15.8268 26.536
12172 2 2.79419 11.5484 16.7998
12173 2 2.57006 8.73298 19.4364
12238 2 5.6136 16.8941 25.3109
12175 2 5.55256 8.61853 16.6581
12176 2 8.31541 11.6287 16.6161
12177 2 8.32714 8.81007 19.4686
12178 2 5.53881 11.5964 19.4725
12179 2 11.1754 8.72178 16.668
12180 2 11.4021 11.5237 19.5732
12237 2 8.37208 14.0818 25.4723
12182 2 2.62283 17.3235 16.8256
12183 2 2.78409 14.1457 19.5244
12236 2 8.12053 17.1047 22.0742
12185 2 5.62043 14.3355 16.6177
12186 2 8.3609 17.0659 16.7098
12187 2 8.60813 14.1709 19.4793
12188 2 5.4757 17.0326 19.3335
12189 2 11.2361 14.4008 16.8162
12190 2 11.2509 16.8411 19.7008
12235 2 5.54722 14.052 22.3642
12192 2 2.72702 22.7401 16.6661
12193 2 2.43727 19.7913 19.6634
12207 2 8.42699 -2.68731 25.1483
12195 2 5.35778 19.9702 16.7704
12196 2 8.22901 22.5834 16.7452
12197 2 8.11553 20.0005 19.7121
12198 2 5.2755 22.6538 19.5284
12199 2 11.065 19.8021 16.8223
12200 2 11.0697 22.622 19.68
12233 2 2.78134 14.3296 25.2982
12202 2 2.57039 -0.0389363 22.5042
12191 2 -0.0789374 19.8351 16.5526
12232 2 2.90525 16.7448 22.6203
12049 2 11.0769 19.8062 28.0305
12206 2 8.3099 0.0395003 22.5507
12174 2 -0.00413745 11.4924 19.696
12208 2 5.57065 0.203571 25.3085
12203 2 2.75949 -2.7505 25.1769
12210 2 11.4499 0.240247 25.2983
12230 2 11.4701 11.5411 25.289
12212 2 2.21605 5.69903 22.0783
12213 2 2.74932 2.8608 25.1984
12229 2 11.1985 8.71232 22.364
12215 2 5.50426 2.74807 22.6465
12216 2 8.44794 5.86227 22.3413
12217 2 8.17534 2.66958 25.4699
12155 2 5.55214 -2.49983 16.7215
12205 2 5.62539 -2.53776 22.5007
12164 2 -0.154553 5.63859 19.3883
12012 2 2.69105 5.66659 28.1295
12157 2 8.52448 -2.70401 19.6617
12129 2 5.7655 0.223139 13.8927
12211 2 -0.211952 2.88207 22.5258
12161 2 -0.206811 3.04408 16.5879
12135 2 11.3772 5.80521 13.9721
15241 2 13.7908 22.5992 22.4602
12214 2 -0.136817 5.77308 25.3419
12031 2 0.208471 14.1005 28.0029
12045 2 5.43383 19.79 28.1268
12140 2 11.3376 11.5286 14.1843
12035 2 5.61552 14.16 28.0224
12141 2 2.74386 14.2173 14.0489
12126 2 2.70201 -2.54724 13.9595
12005 2 5.47963 -2.77999 27.8559
12137 2 -0.1578 11.5785 14.1384
12139 2 5.69587 11.3123 13.8695
15161 2 13.9124 5.78014 16.8629
12149 2 5.37502 23.0124 13.9869
12042 2 2.71397 22.6696 28.0863
12006 2 8.33987 0.205881 28.0806
12036 2 8.36992 16.9308 27.9733
451 1 1.35304 24.0655 1.09288
452 1 3.91198 24.0949 1.10165
453 1 4.10391 24.2777 3.8556
454 1 1.44957 24.1217 3.85182
455 1 6.82597 24.1173 1.22453
456 1 9.44529 23.9192 1.10054
457 1 9.85683 24.1214 3.92049
458 1 6.90293 24.0881 3.90883
459 1 12.4061 24.0421 1.22982
460 1 12.1995 27.0732 4.34147
461 1 1.24694 27.2558 1.14859
462 1 4.05002 27.0301 1.08824
463 1 4.02235 27.1532 3.86963
464 1 1.0057 26.8884 3.9676
465 1 1.47374 32.9756 1.39627
466 1 4.15316 29.9071 1.08968
467 1 3.91774 29.9282 3.74777
468 1 1.25739 30.291 0.690029
469 1 6.63486 27.0643 1.34099
470 1 9.92892 26.7987 1.33939
471 1 9.59147 26.9641 3.85885
472 1 6.7097 27.0737 4.18989
473 1 6.80324 30.1445 1.31899
474 1 9.49818 29.6076 1.2362
475 1 9.94156 29.7799 4.15315
476 1 6.92901 29.695 3.94897
477 1 13.1106 26.9643 1.37156
478 1 12.8795 29.8316 4.27298
12336 2 -0.166453 48.378 5.62402
480 1 12.7892 35.4336 4.14609
544 1 1.18383 24.6299 9.71734
482 1 4.50312 32.8284 1.26463
483 1 4.0907 32.6746 4.10255
484 1 1.12421 32.8614 4.16487
635 1 12.9639 24.1918 12.3392
486 1 4.50305 35.4559 0.77225
487 1 4.35664 35.6323 3.84507
488 1 1.92501 35.6459 1.32792
489 1 7.32322 32.8441 1.20311
490 1 9.8373 32.4842 1.27404
491 1 9.44939 32.6625 4.19221
492 1 6.87616 32.4705 3.97897
493 1 7.23342 35.821 1.56352
494 1 9.91981 35.5616 1.33024
495 1 10.1456 35.853 4.09764
496 1 7.23805 35.2451 4.15697
497 1 12.4065 29.6736 1.13557
1003 1 4.04629 49.5408 9.5969
12295 2 11.0279 48.2659 -0.103572
499 1 12.5138 32.646 1.45886
501 1 1.40657 38.2072 0.937572
502 1 3.89188 38.1428 1.42391
503 1 3.93645 38.5901 4.12739
504 1 0.817196 38.316 3.72496
505 1 1.26424 40.8592 1.61792
506 1 4.29701 41.3288 1.18863
507 1 4.02865 41.2334 3.97544
508 1 0.738079 40.8817 4.293
509 1 6.79393 38.4512 1.05991
510 1 9.44764 38.404 1.44759
511 1 9.71633 38.6367 3.91594
512 1 6.70821 37.9677 4.02637
513 1 6.80579 41.1227 1.37944
514 1 9.80378 41.2234 1.30814
515 1 9.86652 41.1081 4.03104
516 1 6.75372 41.0674 4.16152
517 1 12.3359 38.3844 1.22672
518 1 12.5639 38.1714 4.01171
519 1 12.658 41.0379 1.2915
520 1 12.5942 41.057 3.99667
521 1 1.12249 43.9194 1.36374
522 1 3.89639 44.0754 1.35226
523 1 4.0619 44.0038 4.03593
524 1 0.998934 44.0265 4.2896
525 1 1.26071 46.8729 1.34457
526 1 4.1768 47.007 0.935561
527 1 4.13711 46.6758 4.24225
528 1 1.33472 46.8275 4.10475
529 1 6.79543 44.1365 1.41386
530 1 9.83136 44.0262 1.45305
531 1 9.78399 43.9625 4.09213
532 1 6.90098 43.9222 4.26635
533 1 6.80401 46.8884 1.35688
534 1 9.76044 46.7681 1.38695
535 1 9.77231 46.9211 4.02604
536 1 7.05151 46.6922 4.13454
537 1 12.4977 44.0334 1.08812
538 1 12.4834 43.9722 4.13707
539 1 12.6631 46.9791 1.03808
540 1 12.6935 46.7255 3.83656
15296 2 13.7612 28.193 5.69348
542 1 4.18725 24.1248 6.53265
543 1 4.05097 24.3303 9.7183
479 2 13.9907 30.7017 2.64703
545 1 7.12228 24.3091 6.61744
546 1 9.79977 24.0396 6.81625
547 1 9.73412 23.7129 9.60489
548 1 6.9987 24.3283 9.53143
549 1 12.5371 23.8919 6.75624
550 1 12.5979 24.0041 9.57717
551 1 1.50532 30.2245 6.71943
552 1 1.44583 27.0127 6.9277
553 1 4.05927 26.8373 6.77225
554 1 3.73362 27.0649 9.52248
555 1 1.48485 29.8161 3.8709
556 1 4.1542 29.6711 6.78079
557 1 4.19389 29.6252 9.73027
558 1 1.24355 29.8568 9.83624
559 1 6.93023 27.0489 6.89734
560 1 9.51695 26.8716 6.86474
561 1 9.84653 26.5404 9.67703
562 1 6.87215 26.9991 9.89864
563 1 6.90029 29.7367 7.05918
564 1 9.52507 29.6926 7.08558
565 1 9.847 29.4468 9.67783
566 1 6.84386 29.843 9.90252
567 1 12.5275 26.8786 6.9291
568 1 12.5151 26.8305 9.81892
569 1 12.5534 29.6784 6.96693
570 1 12.5842 29.9621 9.89931
571 1 0.662847 35.7627 7.0447
572 1 4.08039 32.4693 7.05562
573 1 3.97573 32.6421 9.58862
574 1 1.38469 32.5055 9.77458
575 1 1.35991 35.4737 4.24338
576 1 3.56021 35.221 6.92537
577 1 3.83483 35.4313 9.75676
578 1 1.19657 35.5581 9.95577
579 1 7.0684 32.4212 6.976
580 1 9.79853 32.5822 6.97622
581 1 9.82893 32.444 9.60772
582 1 6.81754 32.591 9.82901
583 1 6.33194 35.2444 6.75499
584 1 9.947 35.3345 6.65459
585 1 10.0177 35.0303 10.011
586 1 6.79707 35.4772 9.97008
587 1 12.4219 32.4238 6.96667
588 1 12.86 32.7321 9.74783
589 1 12.3676 35.7155 7.00492
590 1 12.9099 35.6583 9.89598
591 1 1.09729 38.5288 6.72861
592 1 3.7366 38.1351 6.97526
593 1 3.86768 38.5184 9.70297
594 1 1.28596 38.3244 9.64957
595 1 1.37259 41.4335 7.07973
596 1 4.29122 41.2762 6.96122
597 1 4.09287 41.1872 9.6197
598 1 1.0527 41.216 10.1333
599 1 6.55849 38.5198 6.60197
600 1 9.7632 38.3956 6.98478
601 1 9.94035 38.3314 10.1506
602 1 6.49394 38.7756 10.14
603 1 7.0935 41.3045 6.97973
604 1 9.80267 41.1619 7.04494
605 1 9.93687 44.186 9.78896
606 1 7.00053 41.0662 9.73611
607 1 12.7634 38.5203 7.01388
608 1 12.6377 38.3632 9.80874
609 1 12.622 41.3546 6.71103
610 1 12.4342 41.4386 9.74486
611 1 1.12436 43.9628 7.13505
612 1 4.11522 44.0602 6.77242
613 1 4.1638 44.0598 9.70888
614 1 1.30357 43.8142 9.82742
615 1 1.3372 46.8204 6.98234
616 1 4.21062 46.6744 7.135
617 1 4.0722 46.8358 9.7859
618 1 1.2951 46.5653 9.85867
619 1 6.94326 44.1497 7.14459
620 1 9.64111 43.9435 6.97827
621 1 10.0316 46.9345 9.84601
622 1 6.93647 43.9304 9.95927
623 1 6.96143 46.9198 6.99161
624 1 9.78189 46.9115 7.08249
12254 2 -0.140393 28.5797 2.58183
626 1 7.02022 46.7178 9.8831
627 1 12.3794 43.865 6.85152
628 1 12.4945 44.0633 9.59273
629 1 12.6856 46.6529 6.70167
630 1 12.6634 46.8845 9.68045
631 1 1.10745 24.2249 12.3284
632 1 3.80628 24.4826 12.5423
633 1 6.66517 24.4928 12.6355
634 1 9.63715 24.3066 12.5577
12383 2 11.1397 45.4072 13.935
636 1 1.30998 26.9037 12.5479
637 1 4.14099 27.0134 12.6274
638 1 1.0667 29.7146 12.7348
639 1 3.97467 29.7623 12.6474
640 1 6.83022 27.1327 12.7169
641 1 9.65351 26.9646 12.5704
642 1 6.74678 29.8217 12.436
643 1 9.65465 29.814 12.4918
644 1 12.4006 26.9994 12.6896
645 1 12.5304 29.6006 12.6251
646 1 0.861819 32.7816 12.6062
647 1 3.63393 32.7229 12.4671
648 1 1.25246 35.5223 12.4215
649 1 4.01826 35.4832 12.9086
650 1 6.46852 32.7447 12.8035
651 1 9.61546 32.6041 12.467
652 1 6.8912 35.3363 12.7719
653 1 9.5873 35.4665 12.9261
654 1 12.3173 32.5656 12.7074
655 1 12.5087 35.4742 12.4609
656 1 1.44392 38.5036 12.6833
657 1 4.029 38.4515 12.6358
658 1 0.947936 41.4562 12.755
659 1 4.20675 41.1213 12.6001
660 1 6.93788 37.8541 12.5972
661 1 9.81467 38.3652 12.8761
662 1 6.83223 41.0229 12.7137
663 1 9.43379 41.1164 12.6042
664 1 12.5528 38.1413 12.7543
665 1 12.4251 41.113 12.5772
666 1 1.20266 44.0705 12.5293
667 1 3.98329 43.8069 12.5285
668 1 1.25224 46.9901 12.6083
669 1 4.02605 46.7395 12.5633
670 1 6.92856 44.0125 12.7365
671 1 9.70838 43.8944 12.5449
672 1 6.95626 46.7987 12.9574
673 1 9.63038 46.7061 12.7497
674 1 12.5821 43.9044 12.6387
675 1 12.7646 46.6449 12.2995
12363 2 11.2634 48.2108 11.0782
541 1 1.33787 23.9169 6.99762
12253 2 2.62842 25.4177 2.54685
12362 2 5.67083 48.2065 11.2189
12349 2 8.22034 34.1232 11.2641
12282 2 2.63334 45.3303 -0.305308
12257 2 8.19785 25.5234 2.65823
12258 2 5.33606 28.6633 2.61223
12281 2 -0.166744 42.6643 -0.0414782
12260 2 10.8751 28.4657 2.59145
12371 2 8.07118 31.2996 13.8467
12286 2 8.34355 45.1501 0.00304679
12263 2 2.67427 31.4783 2.61997
12360 2 10.9811 42.5666 11.2899
12329 2 -0.106844 45.3006 8.56623
6464 1 12.3382 32.9636 3.98458
12267 2 8.32626 31.2208 2.66755
12268 2 5.73995 34.1178 2.70446
12364 2 2.54012 25.5479 13.9132
12270 2 10.8151 34.1692 2.83531
12359 2 8.44567 45.3108 11.2413
1106 1 9.88645 49.5225 12.4114
12273 2 2.66259 37.1292 2.97591
12358 2 5.53538 42.4156 11.1015
15317 2 13.9685 36.9643 8.43583
12272 2 2.73963 40.0283 0.00773128
12277 2 8.53927 37.0075 3.09173
12278 2 5.48371 39.5933 2.72385
12264 2 -0.0413203 34.1759 2.90401
12280 2 11.322 39.8009 2.69237
12276 2 8.39134 39.746 -0.0541161
15282 2 13.8817 42.5187 2.72803
12283 2 2.61069 42.6216 2.53325
12380 2 -0.169989 45.4116 13.8511
12256 2 8.12875 28.3778 -0.201091
12293 2 5.54547 48.3246 -0.166392
12287 2 8.19089 42.8356 2.82931
12288 2 5.25401 45.5214 2.57657
12350 2 11.2586 31.1125 11.421
12290 2 11.175 45.38 2.63302
15363 2 13.9369 25.7083 13.8476
12292 2 2.50348 48.2577 2.66307
12352 2 2.7133 39.9012 11.1773
12294 2 8.29507 48.0785 2.57324
12361 2 -0.204272 48.3302 11.2313
12357 2 2.54747 45.3114 11.2961
12297 2 2.58591 28.5613 5.44463
12298 2 2.5898 25.5646 8.09965
12299 1 1.29204 33.0611 7.04252
12300 2 5.42926 25.64 5.32261
12301 2 8.29188 28.5054 5.46701
12302 2 8.31181 25.5226 8.13842
12303 2 5.60235 28.2695 8.2703
12304 2 11.0611 25.5604 5.51219
12305 2 11.1156 28.1095 8.29905
12348 2 5.33452 31.273 11.1361
12307 2 2.74797 33.811 5.50923
12308 2 2.73986 31.1159 8.50946
12355 2 11.1963 36.6295 11.182
12310 2 5.57041 31.0864 5.46988
12311 2 8.1965 33.9953 6.02606
12312 2 8.2809 31.1274 8.51387
12313 2 5.28832 34.108 8.55267
12314 2 10.9384 31.149 5.69016
12315 2 11.1773 34.0882 8.25122
12354 2 8.29655 39.6837 11.2684