ITEM: TIMESTEP
100000
ITEM: NUMBER OF ATOMS
18000
ITEM: BOX BOUNDS xy xz yz pp pp pp
-2.3999111418135086e-01 2.8133991114181335e+01 0.0000000000000000e+00
-2.9296242910177255e+00 3.3765762429103080e+02 0.0000000000000000e+00
-2.3582282371425775e-01 2.8129822823713702e+01 0.0000000000000000e+00
ITEM: ATOMS id type x y z
1 1 1.32661 -1.5412 1.11775
2 1 4.20035 -1.54833 1.20025
3 1 4.05068 -1.70514 4.01629
4 1 1.36067 -1.40532 3.8448
5 1 1.29426 1.28972 1.1026
6 1 4.05833 1.20486 1.304
7 1 3.98216 1.53382 3.97115
8 1 1.23699 1.30055 3.80215
9 1 6.98289 -1.61861 1.44161
10 1 10.3073 -1.54475 1.03391
11 1 9.76337 -1.54603 3.76499
12 1 6.98732 -1.27182 3.96786
13 1 6.88574 1.35836 1.20855
14 1 9.66201 1.26307 1.47428
15 1 9.9687 1.43079 3.90989
16 1 6.78988 1.47538 4.10372
17 1 12.9988 -1.49138 1.35559
18 1 12.5841 -1.5701 3.95149
19 1 12.4299 1.20859 1.27413
20 1 12.7288 1.06918 4.00439
21 1 1.45635 4.31068 1.28043
22 1 4.35601 4.43373 1.14619
23 1 4.37806 4.27148 3.99811
24 1 1.51509 4.26621 4.11194
25 1 1.26982 7.09539 1.10583
26 1 4.15527 7.17232 1.01883
27 1 4.14163 6.82711 3.80321
28 1 1.538 6.86274 4.14053
29 1 7.08985 4.13998 1.28985
30 1 9.71054 4.15319 1.34478
31 1 9.72999 4.22133 4.09553
32 1 7.10575 4.20542 3.89097
33 1 6.76804 6.82271 0.872074
34 1 9.65534 7.01152 1.08824
35 1 9.97736 7.17514 4.04326
36 1 7.09471 7.1593 3.71636
37 1 12.5678 3.98077 1.25931
38 1 12.7038 4.27292 4.02399
39 1 12.2682 6.95879 1.2667
40 1 12.7692 6.95331 4.01764
41 1 1.31807 9.83226 1.33815
42 1 3.94251 9.80096 1.22743
43 1 4.37274 9.66605 4.06231
44 1 1.16079 9.82118 4.13416
45 1 1.02581 12.3659 1.08125
46 1 4.20271 12.8988 1.2342
47 1 4.08869 12.6554 4.36522
48 1 1.06439 12.5702 4.05196
49 1 7.03408 9.57375 1.09078
50 1 9.95893 9.9633 1.00538
51 1 9.53451 10.0433 3.79555
52 1 7.04983 9.82218 4.11964
53 1 7.0301 12.5822 1.187
54 1 9.68684 12.7214 1.46319
55 1 9.541 12.8068 4.18293
56 1 6.71284 12.4807 4.06023
57 1 12.6051 9.89037 1.15214
58 1 12.747 9.83622 3.94506
59 1 12.5074 12.7975 1.17679
60 1 12.4332 12.5402 3.98661
61 1 1.71448 15.1108 1.05617
62 1 4.51433 15.4571 1.06871
63 1 4.21705 15.3523 3.9039
64 1 1.29834 15.4607 3.81381
65 1 1.25627 18.0293 1.42845
66 1 3.81593 18.3182 1.18707
67 1 4.17571 18.4236 3.96063
68 1 1.23778 18.5376 4.14312
69 1 7.03752 15.4556 1.20978
70 1 9.76263 15.41 1.48626
71 1 9.67752 15.4695 4.14879
72 1 6.82122 15.4973 4.08261
73 1 6.89505 18.2583 1.04678
74 1 9.86946 18.3576 1.37489
75 1 9.25381 18.4854 3.98322
76 1 6.67967 18.2557 3.85617
77 1 12.5319 15.3001 3.793
78 1 12.399 18.2185 4.14722
79 1 12.4426 18.2664 1.35809
12042 2 2.62513 22.7529 -0.150181
81 1 1.33265 21.0915 1.31446
82 1 4.1666 21.1682 1.13448
83 1 4.06196 21.1546 4.31465
84 1 1.26281 21.3201 4.05002
85 1 6.926 20.9861 1.1993
86 1 9.61162 21.3231 1.25565
87 1 9.82929 21.1759 4.07445
88 1 6.65309 21.0698 4.18976
89 1 12.5367 21.0621 1.17973
90 1 12.9998 21.4243 3.73596
91 1 1.28666 -1.87582 6.43469
92 1 3.91457 -1.5732 6.9304
93 1 4.23693 -1.36018 9.62292
94 1 1.24256 -1.52628 9.50095
95 1 1.28282 1.16496 6.76356
96 1 4.23502 1.39988 7.0746
97 1 4.39402 1.50822 9.83297
98 1 1.2965 1.32299 9.65481
99 1 6.83094 -1.45658 6.70538
100 1 9.92297 -1.2412 6.63474
101 1 9.87672 -1.30927 9.51271
102 1 6.99719 -1.53728 9.77335
103 1 7.27402 1.21484 6.90651
104 1 9.96963 1.22962 6.87833
105 1 9.91815 1.41824 9.85473
106 1 7.09325 1.46157 9.74027
107 1 12.6751 -1.59022 6.90566
12015 2 5.47623 2.61286 -0.0368918
109 1 12.7805 1.47946 6.6233
110 1 12.7593 1.379 9.69992
111 1 1.37765 4.25351 6.78613
112 1 4.06908 4.11412 7.03081
113 1 4.4541 4.27676 9.95631
114 1 1.3686 4.41066 9.48118
115 1 1.26735 7.16819 6.92959
116 1 4.1047 7.04966 6.94337
117 1 4.13134 7.01913 9.7442
118 1 1.18721 7.02425 9.69004
119 1 6.72126 4.20156 6.89922
120 1 9.73303 4.19371 6.83466
121 1 10.015 4.14137 9.87077
122 1 7.08139 4.19754 9.60774
123 1 7.04344 7.00377 6.78556
124 1 9.713 6.79871 6.9746
125 1 10.1116 6.87886 9.6728
126 1 6.90068 7.01682 9.90746
127 1 12.8341 4.27997 6.84199
128 1 12.8286 4.26506 9.64397
129 1 12.684 7.35769 6.93034
130 1 13.2741 6.99045 9.52223
131 1 1.19016 9.9041 6.77265
132 1 4.22127 9.9499 6.76013
133 1 4.0779 9.87164 9.60992
134 1 1.35304 9.73711 9.68429
135 1 1.09331 12.6755 6.68832
136 1 4.02572 12.5591 7.06343
137 1 4.22359 12.9393 9.76265
138 1 1.17132 12.6661 9.73263
139 1 6.95915 9.85464 6.93408
140 1 9.88178 9.71329 6.54899
141 1 9.80862 9.80696 9.57566
142 1 7.00787 10.0378 9.73869
143 1 6.99815 12.6919 7.02268
144 1 9.79586 12.5322 6.85657
145 1 9.77709 12.7272 9.64378
146 1 6.90981 12.7887 9.63832
147 1 12.6223 9.90876 6.79614
148 1 12.6201 10.1189 9.78024
149 1 12.6929 12.7063 6.76351
150 1 12.5618 13.0406 9.51407
151 1 1.18775 15.3176 6.77243
152 1 3.98619 15.3713 6.99812
153 1 4.04819 15.7138 9.81178
154 1 1.31501 15.596 9.77894
155 1 1.38783 18.3 6.89846
156 1 3.9742 18.4635 6.83949
157 1 4.37083 18.3294 9.76648
158 1 1.29506 18.765 9.97352
159 1 6.83998 15.5517 7.02204
160 1 9.66166 15.4087 6.76425
161 1 9.39774 15.5669 9.71508
162 1 6.73152 15.7111 9.81254
163 1 7.16864 18.2758 6.87543
164 1 9.73898 18.1567 6.82822
165 1 9.50885 18.3611 9.75297
166 1 6.82233 18.6855 9.72578
167 1 12.5127 15.415 6.62647
168 1 12.7292 15.7036 9.52052
169 1 12.4736 18.4006 6.92932
170 1 12.4002 18.5459 9.65517
171 1 1.42986 21.0581 6.8632
172 1 4.29144 21.0635 6.98807
173 1 4.2382 21.1808 9.59152
174 1 1.2862 21.5661 9.57653
175 1 7.17515 21.1083 6.91255
176 1 10.0779 20.8871 6.8906
177 1 9.90144 21.1941 9.76675
178 1 6.90973 21.3475 9.54334
179 1 12.7981 21.1732 6.52142
180 1 12.546 21.3543 9.44173
181 1 1.42076 -1.05514 12.5644
182 1 4.12498 -1.14797 12.4271
183 1 1.53047 1.77774 12.389
184 1 4.34469 1.35661 12.6584
185 1 7.01317 -1.42534 12.5893
186 1 9.83438 -1.40575 12.3031
187 1 7.04696 1.36046 12.5971
188 1 9.72598 1.51224 12.7637
189 1 12.5751 -1.12865 12.5582
190 1 12.5059 1.64832 12.5973
191 1 1.28812 4.53024 12.4729
192 1 4.22782 4.23263 12.7253
193 1 1.47897 7.26969 12.5913
194 1 4.21892 7.04184 12.5018
195 1 7.12395 4.21804 12.5515
196 1 9.81043 4.74689 12.6518
197 1 7.01558 6.88204 12.6158
198 1 9.8489 7.47886 12.3571
199 1 12.9245 4.30675 12.3141
200 1 12.7111 7.13736 12.6939
201 1 1.29217 9.98245 12.4931
202 1 4.2619 9.73905 12.5301
203 1 1.18341 12.7066 12.5997
204 1 4.1182 12.6661 12.4812
205 1 6.98397 9.84122 12.6385
206 1 9.90279 10.0906 12.779
207 1 6.84456 12.8545 12.7812
208 1 9.52803 12.6568 12.4727
209 1 12.7482 9.93982 12.4453
210 1 12.2206 12.6959 12.4196
211 1 1.48071 15.4416 12.6625
212 1 4.28163 15.5344 12.3085
213 1 1.39968 18.2572 12.7295
214 1 4.2221 18.3058 12.6519
215 1 6.96833 15.6185 12.6638
216 1 9.88058 15.4316 12.4893
217 1 7.13881 18.5068 12.5033
218 1 9.74603 18.3063 12.5558
219 1 12.6004 15.7118 12.4379
220 1 12.4281 18.5556 12.5954
221 1 1.18784 21.1435 12.342
222 1 4.14215 21.0823 12.4076
223 1 6.92217 21.2736 12.2268
224 1 9.87708 21.2635 12.5112
225 1 12.6172 21.1302 12.4366
12071 2 0.0547962 8.33604 5.51692
12053 2 2.67838 -2.83938 8.1108
12103 2 5.54911 -2.72158 11.2097
12061 2 0.112157 2.89551 5.44056
15092 2 13.9206 19.7165 8.23691
12135 2 11.3555 5.71452 13.7514
12057 2 8.26277 -2.85695 8.2056
12008 2 5.3427 -0.0968445 2.6517
12012 2 2.84887 5.47574 -0.257157
12010 2 11.3207 -0.119926 2.60526
12125 2 11.1156 19.6871 11.0583
12116 2 -0.0311517 14.3198 11.1823
12013 2 2.86128 2.84993 2.50361
12124 2 8.22527 22.6387 10.9375
12091 2 -0.148408 19.8577 5.46729
12004 2 -0.0988567 -0.0978635 2.54935
12017 2 8.49372 2.73861 2.63132
12018 2 5.75815 5.74818 2.49084
12105 2 11.1514 -2.68083 10.8748
12020 2 11.1772 5.61221 2.5027
12113 2 5.60433 8.49504 11.2396
12104 2 8.34387 -0.0808149 11.0523
12023 2 2.92672 8.25798 2.74796
15032 2 13.804 14.0593 2.4939
12074 2 -0.0482805 11.1885 8.0924
12107 2 2.73413 5.74352 10.9911
12027 2 8.47399 8.43936 2.51375
12028 2 5.64803 11.0991 2.72536
12081 2 -0.179505 14.0978 5.2562
12030 2 11.0852 11.2162 2.58395
12102 2 2.84827 -0.108433 11.0215
12114 2 8.32292 11.29 11.0615
12033 2 2.82854 14.0553 2.7118
15121 2 13.9209 22.37 11.0653
12100 2 11.0246 22.544 8.19772
12099 2 11.1342 19.6555 5.41592
12037 2 8.34007 13.9563 2.51609
12038 2 5.45412 17.0139 2.42688
12098 2 5.71483 22.3731 8.11342
12040 2 11.1565 16.6975 2.67287
12097 2 8.40668 19.6263 8.3186
12101 2 -0.17964 -2.7529 10.8581
12043 2 2.69482 19.8614 2.78142
12123 2 5.49451 20.0559 11.0643
12096 2 8.51202 22.4072 5.39667
12095 2 5.51954 19.6538 5.42994
12047 2 8.21325 19.6557 2.5992
12048 2 5.48694 22.4212 2.55519
12115 2 11.4008 8.60815 11.094
12050 2 11.2413 22.5878 2.45714
12031 2 0.261147 14.0093 -0.219832
12052 2 2.58426 -0.223172 5.25133
12112 2 2.64755 11.3273 11.1485
12122 2 2.69362 22.615 11.0548
12110 2 11.259 2.81205 11.1981
12056 2 8.41782 -0.118201 5.51716
12109 2 8.37801 5.67735 10.9035
12058 2 5.51755 0.02627 8.21249
12108 2 5.67489 2.88398 11.1632
12060 2 11.3823 -0.159425 8.0333
12120 2 11.1005 14.2388 10.8724
12062 2 2.94975 5.4927 5.43415
12063 2 2.73368 2.68357 8.35536
12119 2 8.18735 17.0225 11.1214
12065 2 5.52524 2.6512 5.56266
12066 2 8.37325 5.64247 5.48548
12067 2 8.52753 2.77784 8.42542
12068 2 5.32964 5.6246 8.37854
12069 2 11.159 2.80825 5.42753
12070 2 11.5231 5.59395 8.28301
438 1 12.4295 15.6001 1.03379
12072 2 2.54404 11.2837 5.44793
12073 2 2.70579 8.52058 8.19235
12118 2 5.66176 14.0988 11.0855
12075 2 5.78686 8.56428 5.41656
12076 2 8.54477 11.2276 5.46867
12077 2 8.42918 8.29043 8.0829
12078 2 5.48516 11.2312 8.24495
12079 2 11.5119 8.36825 5.41645
12080 2 11.3229 11.2194 8.11765
15141 2 13.8335 14.1957 13.7946
12082 2 2.58347 16.8602 5.51911
12083 2 2.66497 14.1972 8.24018
12117 2 2.70492 16.9946 11.4348
12085 2 5.50302 14.0133 5.61266
12086 2 8.24769 16.7432 5.3806
12087 2 8.29684 14.107 8.28082
12088 2 5.45956 17.0658 8.27771
12089 2 11.0845 14.0285 5.37977
12090 2 10.9351 16.8938 8.21156
12136 2 2.66631 8.44176 13.8609
12092 2 2.56949 22.4824 5.60782
12093 2 2.72092 19.7562 8.60508
12138 2 8.50518 8.29329 13.918
12134 2 5.53724 5.60181 13.9177
12106 2 0.0657123 2.91274 10.9052
12137 2 -0.216337 11.2132 13.8284
12149 2 5.68819 22.4656 13.9098
12111 2 -0.19373 8.472 10.9419
108 1 12.8397 -1.56972 9.71367
12064 2 -0.110078 5.66245 7.99295
12148 2 8.54465 19.7368 13.6694
12049 2 11.0809 19.6893 -0.212165
12014 2 -0.0559528 5.74511 2.47676
12021 2 0.0252047 8.35015 -0.203981
12024 2 -0.111029 11.2733 2.34287
12006 2 8.43391 -0.123554 -0.0176653
12145 2 11.2097 16.8098 13.8782
12127 2 -0.109645 0.221438 13.8499
12132 2 -0.183488 5.76996 13.6389
12002 2 2.6901 -0.342273 -0.0962
12146 2 2.81425 19.919 13.8028
12016 2 8.33135 5.51973 -0.164012
226 1 3.80589 -1.49154 15.2487
227 1 1.08823 -1.52633 15.2787
228 1 4.19205 1.4824 15.409
229 1 1.27312 1.50846 15.0446
230 1 9.51068 -1.38968 15.2269
231 1 6.72251 -1.56469 15.4544
232 1 9.89207 1.67746 15.4536
233 1 6.99139 1.32083 15.5376
234 1 12.6095 -1.34454 15.3273
235 1 12.6752 1.32312 15.2548
236 1 3.78339 4.26749 15.5777
237 1 1.091 4.39463 15.4649
238 1 4.1216 7.07053 15.057
239 1 1.18601 7.14747 15.2345
240 1 9.77709 4.39231 15.2636
241 1 7.07975 4.04577 15.4812
242 1 9.77457 7.20191 15.3394
243 1 7.00831 6.79422 15.2801
244 1 12.726 4.2979 15.3688
245 1 12.9638 7.10209 15.7252
246 1 3.86642 9.86161 15.3704
247 1 1.29585 9.76191 15.5278
248 1 4.06516 12.523 15.161
249 1 1.24507 12.5578 15.7702
250 1 9.87828 9.80625 15.6199
251 1 6.91798 9.92034 15.4682
252 1 9.83886 12.6996 15.456
253 1 7.03859 12.9385 15.5636
254 1 12.7283 10.0446 15.3359
255 1 12.5631 12.9391 15.0399
256 1 4.20627 15.2772 15.4965
257 1 1.56436 15.573 15.1729
258 1 4.17805 18.1412 15.2782
259 1 1.44825 18.7377 15.4857
260 1 9.90258 15.4434 15.5094
261 1 6.86155 15.5859 15.4786
262 1 9.65486 18.4838 15.2756
263 1 6.92414 18.2648 15.6
264 1 12.6747 15.7174 15.2069
265 1 12.452 18.3846 15.4344
266 1 4.27419 21.0114 15.1102
267 1 1.33061 21.5445 15.2642
268 1 9.9054 21.2366 15.5159
269 1 7.18503 21.2834 15.2349
270 1 12.4432 21.1096 15.3475
271 1 1.54178 -1.90258 17.8607
272 1 4.32739 -1.64522 18.2076
273 1 4.11132 -1.3133 21.1221
274 1 1.38555 -1.45745 20.7537
275 1 1.26287 1.16384 18.0105
276 1 4.21557 1.29273 17.988
277 1 4.24545 1.73446 20.8753
278 1 1.50298 1.43534 21.0077
279 1 7.277 -1.48983 18.1586
280 1 9.96709 -1.53752 18.1224
281 1 9.96629 -1.40056 21.142
282 1 6.96954 -1.39467 20.8418
283 1 7.29735 1.40741 18.2974
284 1 9.8903 1.34136 18.3405
285 1 9.74471 1.33876 21.036
286 1 7.00934 1.18474 21.1231
287 1 12.8689 -1.32484 18.4321
288 1 12.6221 -1.03636 21.0939
289 1 12.638 1.27869 17.8362
290 1 12.5715 1.59552 20.738
291 1 1.05938 3.88932 18.5353
292 1 3.97393 4.3304 18.3419
293 1 3.81423 4.39952 21.0669
294 1 0.930233 4.2841 21.2139
295 1 1.21296 6.86085 18.1879
296 1 4.17173 7.0393 17.9627
297 2 5.45085 5.59308 22.28
298 1 4.14563 6.94236 20.7184
299 1 6.74991 4.33601 18.063
300 1 9.82942 4.01207 18.4082
301 1 9.91231 4.06487 21.1744
302 1 6.75279 3.99203 20.942
303 1 7.15157 7.12759 18.1124
304 1 9.86715 6.87959 18.2019
305 1 9.45491 6.91698 21.1529
306 1 6.83225 6.65052 20.9161
307 1 12.6403 4.20661 18.0716
308 1 12.6204 4.19885 20.9096
309 1 12.4089 6.87193 18.2891
310 1 12.5594 6.85595 21.1261
311 1 1.49695 9.90144 18.5504
312 1 4.08598 9.79574 17.9762
313 1 4.46908 9.79735 21.0298
314 1 1.36308 9.82796 21.0845
315 1 1.07746 12.9698 18.3512
316 1 4.19478 12.3552 18.2615
317 1 4.01374 12.6525 21.1222
318 1 1.25808 12.9379 21.2547
319 1 6.85943 9.8573 18.2219
320 1 9.87325 9.85619 18.2981
321 1 9.92816 9.65263 21.1505
322 1 7.28106 9.60437 21.0968
323 1 7.21734 12.5501 18.2053
324 1 9.69831 12.7074 18.4126
325 1 9.65516 12.7357 21.083
326 1 6.74225 12.5885 21.1197
327 1 12.7524 9.87084 18.1349
328 1 12.7265 9.69196 20.7417
329 1 12.6891 12.4252 18.0916
330 1 12.9285 12.4958 20.6192
331 1 1.25644 15.6054 18.1797
332 1 3.88006 15.6516 18.274
333 1 4.1475 15.4148 20.9633
334 1 1.18912 15.8249 21.0861
335 1 1.32146 18.3659 18.452
336 1 4.22802 18.3925 18.475
337 1 3.83886 18.2276 21.0412
338 1 1.34253 18.5046 21.3226
339 1 7.03446 15.4406 18.2193
340 1 9.84669 15.3745 18.5741
341 1 7.14084 15.6399 21.0239
342 1 6.85588 15.3847 23.6314
343 1 7.13358 18.3235 18.3094
344 1 9.80763 18.502 18.1322
345 1 9.49557 18.2431 21.03
346 1 6.78145 18.17 21.2195
347 1 12.5702 15.4031 18.2095
348 1 12.936 15.6019 20.7971
349 1 12.4713 18.2539 18.0557
350 1 12.4736 18.3711 21.1575
351 1 1.04879 21.0255 18.0828
352 1 3.72498 21.3698 18.2438
353 1 4.22765 21.2164 21.0288
354 1 1.22778 21.2257 21.2883
355 1 6.53954 21.2533 18.2016
356 1 9.48109 21.3505 18.5294
357 1 9.76331 21.2126 21.258
358 1 7.11893 20.8926 21.4552
359 1 12.5615 20.8971 18.2539
12205 2 5.76303 -2.65819 22.3216
361 1 1.29318 -1.51783 23.7649
362 1 4.16303 -1.6962 23.8977
363 1 3.94443 -1.61251 26.5285
364 1 1.18309 -1.31973 26.7197
365 1 1.24711 1.15824 23.8703
366 1 4.33093 1.25344 24.0798
367 1 4.07735 1.10466 26.7344
368 1 1.3181 1.25843 26.7048
369 1 7.01527 -1.25206 23.8825
370 1 10.1321 -1.5158 23.7604
371 1 9.71943 -1.34179 26.6566
372 1 6.91983 -1.52996 26.9898
373 1 7.21035 1.74386 23.725
374 1 9.77723 1.20295 23.9886
375 1 9.74748 1.57527 26.9764
376 1 6.81573 1.29641 26.6142
377 1 12.8413 -1.58638 24.1109
378 1 12.9556 -1.51851 26.7696
379 1 12.9067 1.30328 23.6389
380 1 12.7278 1.31503 26.5527
381 1 1.27828 4.01608 23.7583
382 1 4.07352 4.015 23.6078
383 1 4.13726 4.00352 26.917
384 1 1.2615 4.13686 26.7273
385 1 1.20889 6.87809 23.9299
386 1 4.21537 6.79042 23.4743
387 1 4.15316 6.87211 26.6167
388 1 1.29525 6.77879 26.7738
389 1 6.74595 4.62395 23.8714
390 1 9.74344 4.23906 24.0264
391 1 9.77715 4.21514 26.7143
392 1 6.91389 3.91364 26.7493
393 1 7.16027 7.26691 23.496
394 1 9.85762 6.78427 24.029
395 1 9.91755 6.77767 26.8111
396 1 6.98053 6.6545 26.5449
397 1 12.4924 4.3538 23.7738
398 1 12.6134 4.17113 26.5398
399 1 12.6072 7.06139 24.0526
400 1 12.5241 6.83548 26.8973
401 1 1.06234 9.66302 23.8299
402 1 4.10142 9.58349 23.8697
403 1 3.97437 9.78924 26.7854
404 1 1.21056 9.97958 26.6091
405 1 1.05289 12.331 23.9466
406 1 4.02314 12.5067 24.1781
407 1 4.16271 12.5595 27.0352
408 1 1.38378 12.6275 26.7171
409 1 7.16237 10.0012 24.013
410 1 10.1101 9.73993 24.0718
411 1 9.82917 9.95068 26.4212
412 1 6.94239 9.44543 26.6886
413 1 6.61639 12.7587 23.8995
414 1 9.62195 12.8618 24.0234
415 1 9.60319 12.6208 26.7979
416 1 6.84929 12.4305 26.647
417 1 13.1172 9.70799 23.764
418 1 12.4691 9.59685 26.8604
419 1 12.8312 12.5215 23.9791
420 1 12.3192 12.4003 26.8217
421 1 1.0428 15.5023 23.9096
422 1 3.87247 15.4196 23.8303
423 1 3.61986 15.2894 26.7074
424 1 0.718678 15.4451 26.5094
425 1 1.02696 18.2658 23.9989
426 1 3.84838 18.3301 23.8149
427 1 4.12636 18.0605 26.671
428 1 1.17372 18.5094 26.8543
429 1 9.47133 15.9531 24.103
430 1 9.79864 18.5572 23.8818
431 1 12.7185 15.2331 26.853
432 1 6.87183 15.3834 26.5237
433 1 6.77564 18.3426 24.0363
434 1 12.5694 18.293 24.2644
435 1 9.34839 18.3859 26.6374
436 1 6.68802 18.4127 26.5695
437 1 12.9102 15.6723 24.1027
15021 2 13.9165 11.123 28.1438
439 1 12.7832 20.9327 21.0407
440 1 12.525 18.326 26.9153
441 1 1.07562 20.9483 24.5693
442 1 3.96384 21.2219 23.9659
443 1 3.99438 21.226 26.783
444 1 0.992822 21.4764 26.8452
445 1 6.82723 21.1236 23.9986
446 1 9.64838 21.1459 24.082
447 1 9.40475 21.1593 26.8177
448 1 6.68986 21.1175 26.6427
449 1 12.4317 21.3501 23.7698
450 1 12.3748 21.1979 26.6745
12011 2 -0.141378 2.65519 28.0845
12250 2 11.1451 22.4425 25.2569
12157 2 8.38908 -2.81266 19.6126
12184 2 -0.101829 17.1515 19.6559
12201 2 -0.141988 -2.79909 22.195
12227 2 8.50464 8.24625 25.338
12249 2 11.1384 19.736 22.5171
12226 2 8.38899 11.4615 22.5818
12225 2 5.79133 8.63878 22.4059
12046 2 8.12846 22.4405 27.9455
12223 2 2.46245 8.55637 25.1996
12248 2 5.43585 22.4583 25.4495
12222 2 2.55986 11.2054 22.3989
12228 2 5.68188 11.0926 25.3823
12164 2 -0.188449 5.60236 19.6219
12220 2 11.341 5.562 25.3409
12247 2 8.15723 19.5961 25.3505
12207 2 8.47355 -2.92348 25.2293
12036 2 8.2239 16.8751 28.1093
12026 2 8.40766 11.1644 27.9754
12219 2 11.2295 2.71178 22.3799
12246 2 8.44583 22.6415 22.7331
6309 1 1.05977 6.91127 21.256
12218 2 5.52426 5.20378 25.6385
12129 2 5.68492 0.0467399 13.9569
12245 2 5.32271 19.6631 22.5133
12152 2 2.82008 -0.101594 16.8421
12133 2 8.42049 2.84521 14.0698
12243 2 2.73879 19.6525 25.3684
12159 2 11.2893 -2.75005 16.8483
12156 2 8.41116 0.0663831 16.8829
12001 2 -0.232461 -2.64137 27.9043
12158 2 5.83778 0.0357707 19.4875
12140 2 11.3514 11.1356 14.0597
12160 2 11.2565 -0.171746 19.5741
12242 2 2.66062 22.7363 22.364
12162 2 2.52914 5.73946 16.574
12163 2 2.66318 2.7276 19.4145
12240 2 11.2803 16.9806 25.5657
12165 2 5.39638 2.6981 16.6381
12166 2 8.44262 5.7469 16.5689
12167 2 8.35373 2.94514 19.603
12168 2 5.42195 5.69165 19.2079
12169 2 11.348 2.70767 16.7791
12170 2 11.2421 5.3979 19.6415
12239 1 9.769 15.6643 26.7701
12172 2 2.65119 11.1338 16.9582
12173 2 2.73878 8.22693 19.5836
12238 2 5.28549 16.6704 25.3554
12175 2 5.56716 8.63014 16.7041
12176 2 8.51649 11.2621 16.5848
12177 2 8.536 8.40798 19.5556
12178 2 5.60515 11.1368 19.4648
12179 2 11.4688 8.51238 16.8624
12180 2 11.1797 11.2226 19.6801
12237 2 8.29166 14.1695 25.2817
12182 2 2.55536 16.9879 16.7549
12183 2 2.37517 14.3377 19.817
12236 2 8.23114 16.9971 22.7094
12185 2 5.67605 14.1622 16.8287
12186 2 8.27265 17.0224 16.8629
12187 2 8.15782 13.8524 19.698
12188 2 5.41497 16.7889 19.6502
12189 2 11.1694 13.966 16.8506
12190 2 11.0858 16.9079 19.5752
12235 2 5.42748 14.0552 22.3853
12192 2 2.61459 22.676 16.8438
12193 2 2.71593 19.8526 19.6157
15172 2 13.8904 8.22722 19.6246
12195 2 5.41079 19.778 16.7272
12196 2 8.47904 22.6103 16.8236
12197 2 8.33003 19.7632 19.761
12198 2 5.39684 22.5553 19.7574
12199 2 11.332 19.6458 16.7086
12200 2 11.0863 22.4452 19.7809
12233 2 2.58388 13.9635 25.1984
12202 2 2.65787 -0.280601 22.386
12130 2 11.168 0.124357 13.9528
12232 2 2.24542 16.9268 22.6624
12035 2 5.47496 13.9959 28.0805
12206 2 8.47741 -0.00557411 22.4385
12144 2 5.69104 17.0002 14.0715
12208 2 5.55125 -0.159568 25.5036
12171 2 -0.23116 8.42517 16.8555
12210 2 11.4892 -0.0353536 25.1003
12230 2 11.2339 11.3012 25.3607
12212 2 2.33611 5.52165 22.4135
12213 2 2.68052 2.6053 25.2818
12229 2 11.2795 8.21078 22.3727
12215 2 5.46782 2.47582 22.4689
12216 2 8.47601 5.60655 22.6016
12217 2 8.35713 2.81775 25.4334
12022 2 2.72563 11.1273 28.1452
12224 2 -0.211388 11.2054 25.2022
12142 2 -0.0850779 17.0849 13.9812
12191 2 -0.229158 19.8447 16.6844
12128 2 8.39877 -2.78485 13.9993
12032 2 2.50588 17.0599 28.1472
12204 2 -0.104143 -0.212769 25.0006
12161 2 -0.144107 2.79431 16.5499
12211 2 -0.147084 2.68899 22.2143
12154 2 -0.0901017 -0.126997 19.3822
12029 2 11.31 8.34713 28.1072
12151 2 -0.10431 -2.88466 16.6998
12045 2 5.41229 19.6954 28.0807
12143 2 8.52507 14.0903 14.0024
12139 2 5.52574 11.1656 13.928
12209 2 11.4041 -2.82225 22.453
12025 2 5.48776 8.42257 27.9334
12131 2 2.68605 3.01567 13.9846
12174 2 0.0458109 11.3952 19.6167
12141 2 2.90672 13.9843 14.0052
12019 2 11.207 2.89368 28.0721
12150 2 11.2724 22.4429 14.0995
12126 2 2.59129 -2.76086 14.0087
12039 2 11.0337 13.8522 28.1056
451 1 1.1251 24.1242 1.30976
452 1 4.17889 23.9867 1.06248
453 1 4.0669 23.8169 4.028
454 1 1.23516 24.1096 4.25695
455 1 6.67386 23.8065 1.16225
456 1 9.76682 23.9978 1.02591
457 1 9.64915 23.9427 3.56541
458 1 7.05205 23.8443 3.79188
459 1 12.4942 24.125 0.72177
460 1 12.342 26.8579 3.72613
461 1 1.22712 26.7326 1.24534
462 1 4.06037 27.0044 1.30603
463 1 4.23021 26.6937 4.37127
464 1 1.08274 26.9883 3.88667
465 1 1.34121 32.28 1.362
466 1 4.23001 29.9171 1.17491
467 1 3.85812 29.4307 3.99647
468 1 1.05556 29.3374 1.02844
469 1 6.87656 26.9244 1.15883
470 1 9.64491 26.8473 1.09106
471 1 9.51014 26.9157 3.66649
472 1 6.9508 26.593 4.17662
473 1 6.76584 29.7506 1.22557
474 1 9.63974 29.7098 1.2053
475 1 9.83351 29.5908 4.02575
476 1 6.70997 29.4323 4.07888
477 1 12.4174 26.9173 0.885046
478 1 12.6081 29.4529 3.84543
12293 2 5.45286 48.1011 0.0586649
480 1 12.8744 35.2701 3.89177
544 1 1.00485 24.287 9.85689
482 1 4.39796 33.1948 0.967685
483 1 3.84409 32.3606 4.15037
484 1 0.704611 32.707 4.02267
635 1 12.4759 23.8997 12.3323
486 1 4.15598 35.7477 1.26365
487 1 4.05701 35.395 4.20234
488 1 1.3696 35.1046 1.29801
489 1 7.22462 32.4186 1.4843
490 1 9.78894 32.3127 1.31274
491 1 9.95888 32.8257 4.25023
492 1 6.84039 32.5245 4.36255
493 1 6.88993 35.1305 1.23845
494 1 9.84511 35.5151 1.12219
495 1 9.57643 35.5315 3.73264
496 1 6.70298 35.6718 4.00661
497 1 12.4583 29.5703 0.983369
12289 2 11.0634 42.376 -0.166479
12368 2 11.0275 28.1502 13.725
499 1 12.652 32.4572 1.38677
501 1 0.832631 37.6026 1.60803
502 1 3.52384 38.507 1.24017
503 1 3.93194 38.3741 4.1472
504 1 1.22904 38.2092 4.38813
505 1 1.20407 41.2178 1.08167
506 1 4.02276 41.0762 1.31116
507 1 3.87929 41.1843 4.1983
508 1 1.11482 41.0202 4.03081
509 1 6.65921 38.2057 1.25001
510 1 9.35631 38.4358 1.07459
511 1 9.84211 38.0707 3.93176
512 1 6.93954 38.2401 4.04405
513 1 6.89246 41.1035 1.4157
514 1 9.68275 41.226 1.16222
515 1 9.46329 40.9754 3.90345
516 1 6.63614 41.1082 4.33692
517 1 12.4137 38.1536 1.21808
518 1 12.4715 38.3582 4.01234
519 1 12.5481 41.0057 1.03023
520 1 12.6642 40.9756 3.55074
521 1 0.920678 43.9565 1.27719
522 1 3.9729 44.0852 1.27139
523 1 4.26255 43.996 4.24671
524 1 1.61847 44.2511 3.84517
525 1 1.13342 46.7187 1.44788
526 1 3.86343 46.7642 1.32288
527 1 4.31707 47.1597 4.3242
528 1 1.08422 46.8939 4.32922
529 1 6.9357 43.9671 1.19169
530 1 9.54544 44.1923 1.44589
531 1 9.83555 43.7291 4.22682
532 1 7.15188 43.9665 3.98981
533 1 6.85437 46.9357 1.42083
534 1 9.72916 46.8608 1.48372
535 1 9.96729 46.5986 4.38387
536 1 7.03323 47.0106 3.88791
537 1 12.5584 43.6484 1.05872
538 1 12.7641 43.7988 4.09019
539 1 12.6565 46.6102 1.32958
540 1 12.6849 46.6739 4.09307
15341 2 13.8916 28.2959 11.2937
542 1 4.14439 23.8195 6.79329
543 1 3.94353 23.6756 9.76169
541 1 1.20892 23.9061 7.26156
545 1 6.99578 23.7481 6.56589
546 1 9.7947 23.8844 6.56647
547 1 9.68297 24.1727 9.26461
548 1 6.81417 24.2585 9.47867
549 1 12.6307 23.727 6.86389
550 1 12.4375 24.1318 9.47517
551 1 1.2192 29.5295 6.87604
552 1 1.56469 26.5104 6.71058
553 1 4.30435 26.7186 7.11833
554 1 3.54505 26.5569 9.65369
555 1 1.22486 29.6026 4.12474
556 1 3.9008 29.6708 6.90617
557 1 3.98319 29.6252 9.76929
558 1 1.02805 29.8112 9.92483
559 1 6.96421 26.8021 6.71794
560 1 9.55755 26.884 6.7722
561 1 9.52591 26.671 9.57966
562 1 6.6213 26.7872 9.72964
563 1 6.8653 29.6006 7.00897
564 1 9.70586 29.6721 7.16303
565 1 9.67345 29.4232 9.90354
566 1 6.6712 29.4706 9.87854
567 1 12.5053 26.57 6.73066
568 1 12.1631 26.8764 9.79148
569 1 12.7041 29.6119 6.74585
570 1 12.3741 29.8852 9.50437
571 1 1.05157 35.5843 6.99352
572 1 3.82413 32.232 6.95538
573 1 4.08878 32.4181 9.87418
574 1 1.06267 32.4972 9.69898
575 1 0.976282 35.3886 4.4327
576 1 3.76765 35.3564 6.9763
577 1 3.76398 35.2063 9.67002
578 1 1.07857 35.4607 10.0335
579 1 6.78507 32.4904 6.93256
580 1 9.65099 32.517 7.01926
581 1 9.63072 32.4326 9.64148
582 1 6.79318 32.3409 9.94636
583 1 6.2228 35.0091 6.60705
584 1 9.67714 35.254 6.84196
585 1 9.64312 35.1169 9.90932
586 1 6.51489 35.1991 10.0787
587 1 12.5059 32.6729 7.06197
588 1 12.4937 32.4517 10.1219
589 1 12.6369 35.4213 9.61084
590 1 12.9239 38.2898 9.60714
591 1 1.06617 38.2316 7.23936
592 1 3.80132 38.0195 7.07133
593 1 3.7778 38.1506 9.84389
594 1 0.980551 38.2717 9.93118
595 1 1.26229 41.0565 7.09922
596 1 4.33157 40.8432 6.81365
597 1 4.0511 41.0878 9.65495
598 1 1.28985 41.1385 9.89558
599 1 6.6715 37.9421 6.87996
600 1 9.77472 38.2955 6.80781
601 1 10.1403 38.3968 10.2476
602 1 6.52627 38.2263 9.92501
603 1 7.17327 40.6109 7.33584
604 1 9.53658 41.0247 6.92109
605 1 9.63571 44.1326 9.79109
606 1 6.82976 41.0462 9.91246
607 1 12.6954 35.5081 6.79383
608 1 12.4651 38.2192 6.66561
609 1 12.1866 41.0626 6.6683
610 1 12.4533 41.1057 9.50958
611 1 1.39584 43.4812 6.62146
612 1 3.98381 43.8197 7.10447
613 1 4.07137 44.1159 9.83617
614 1 1.18427 43.7976 9.77313
615 1 1.17459 46.4618 7.24817
616 1 4.03009 46.8545 6.96081
617 1 4.05884 46.7584 9.82753
618 1 1.29127 46.6472 9.80757
619 1 6.9819 43.8564 6.68709
620 1 9.75456 44.0938 6.85178
621 1 9.41319 46.6814 9.73774
622 1 6.81817 43.8533 9.60467
623 1 6.73473 46.8782 6.83693
624 1 9.75873 47.0978 7.17651
917 1 12.7076 49.5447 1.41366
626 1 6.78021 46.5832 9.68851
627 1 12.5501 43.9697 6.9014
628 1 12.222 43.9883 9.65683
629 1 12.5068 46.8879 6.613
630 1 12.4401 46.9268 9.48827
631 1 1.38556 23.9987 12.5617
12296 2 -0.226739 25.7546 5.47672
633 1 6.94802 24.05 12.5897
634 1 9.44158 23.9114 12.372
12282 2 2.3951 45.3619 -0.049026
636 1 0.910893 26.7648 12.272
637 1 3.84883 26.8098 12.4734
638 1 1.14991 29.5784 12.5946
639 1 3.87949 29.5535 12.5105
640 1 6.65311 26.8144 12.385
641 1 9.52216 26.5606 12.5187
642 1 6.86636 29.6246 12.3564
643 1 9.55137 29.7005 12.6833
644 1 12.6052 26.9206 12.4309
645 1 12.4771 29.6145 12.5614
646 1 1.11629 32.7737 12.4433
647 1 3.85007 32.6421 12.686
648 1 1.24785 35.378 12.6632
649 1 4.01972 35.5917 12.5039
650 1 6.58743 32.5687 12.71
651 1 9.41699 32.4308 12.4822
652 1 7.21503 35.4394 12.6592
653 1 10.0227 35.2252 12.6563
654 1 12.4189 32.4387 12.8305
655 1 12.7923 35.3833 12.5273
656 1 1.22908 38.1835 12.4148
657 1 4.14017 38.3348 12.5166
658 1 1.1368 40.8768 12.712
659 1 3.58006 41.2487 12.3847
660 1 6.87574 38.1332 12.9025
661 1 9.58033 38.184 12.7516
662 1 6.93556 41.0741 12.5799
663 1 9.73029 41.0117 12.5924
664 1 12.7227 38.2301 12.552
665 1 12.4142 40.9795 12.3496
666 1 1.04854 43.7645 12.4285
667 1 3.91624 44.2209 12.9479
668 1 1.2387 46.6662 12.817
669 1 3.98485 46.8044 12.8375
670 1 6.62238 43.9545 12.3994
671 1 9.44368 43.8069 12.4101
672 1 6.68218 46.7208 12.5349
673 1 9.54588 46.5853 12.615
674 1 12.5383 43.9931 12.5698
675 1 12.7471 46.7884 12.1598
12363 2 11.0194 48.1766 10.9147
12285 2 5.51271 42.4972 -0.0245473
12253 2 2.56708 25.4829 2.76357
12362 2 5.35259 48.052 11.3495
12349 2 8.18084 33.9497 11.2447
1003 1 4.20622 49.4065 9.77485
12257 2 8.10126 25.1921 2.39277
12258 2 5.45477 28.0817 2.63204
12295 2 11.2171 48.1348 -0.0894185
12260 2 11.1393 28.2157 2.43987
12251 2 -0.0405783 25.5752 -0.111108
1001 1 1.36588 49.5558 7.11686
12263 2 2.50875 30.8938 2.79196
12360 2 10.9729 42.6077 11.1248
12326 2 -0.0543311 42.3295 5.54639
6464 1 12.8327 32.5087 4.21203
12267 2 8.29149 30.8885 2.7599
12268 2 5.28975 33.9592 2.81811
12252 2 2.73868 28.2534 -0.0119823
12270 2 10.8175 33.9626 2.70046
12359 2 8.1721 45.1593 11.0457
12372 2 5.36149 33.8333 13.8727
12273 2 2.46486 36.6189 3.05131
12358 2 5.33774 42.3396 10.9549
12256 2 8.1931 28.4302 -0.152474
12286 2 8.59693 45.6169 -0.152666
12277 2 8.29297 36.9139 2.45237
12278 2 5.23757 39.7627 2.83542
12266 2 8.4572 33.8615 0.00029728
12280 2 11.0841 39.6586 2.51715
632 1 4.24839 23.8479 12.4323
12269 2 11.2437 30.9897 -0.186159
12283 2 2.62156 42.5025 2.74697
1106 1 9.81158 49.4245 12.5466
12284 2 -0.245238 45.3962 2.71723
15327 2 13.8569 42.6311 8.21184
12287 2 8.19102 42.6231 2.53532
12288 2 5.61361 45.4232 2.67652
12350 2 11.0899 30.9964 11.2593
12290 2 11.1739 45.1531 2.77053
15356 2 13.8745 45.3915 10.9531
12292 2 2.33344 48.293 2.60576
12352 2 2.65005 39.5743 10.9982
12294 2 8.4264 48.3499 2.81224
1004 1 1.3436 49.3987 9.8924
12357 2 2.74501 45.4003 11.2022
12297 2 2.59032 28.2874 5.6479
12298 2 2.85193 25.1894 8.18238
12299 1 1.11265 32.5044 6.96146
12300 2 5.50613 25.3809 5.50116
12301 2 8.19133 28.1382 5.37329
12302 2 8.12943 25.6213 8.22847
12303 2 5.36293 28.2767 8.45099
12304 2 11.1875 25.2919 5.2473
12305 2 10.9299 28.2313 8.32001
12348 2 5.31146 30.8984 11.2186
12307 2 2.40544 33.906 5.55427
12308 2 2.31845 31.0594 8.50389
12355 2 11.2311 36.41 11.2096
12310 2 5.31845 30.9985 5.6766
12311 2 8.19414 33.9698 5.82311
12312 2 8.06189 30.9483 8.35351
12313 2 5.28819 33.9114 8.56684
12314 2 11.1045 31.1435 5.51142
12315 2 10.9257 34.0711 8.27961
12354 2 8.23033 39.479 11.3049
12317 2 2.39264 39.4447 5.75918
12318 2 2.67337 36.7643 8.46609
12262 2 2.63641 33.6814 -0.052803
12320 2 5.45061 36.8397 5.5997