LAMMPS (29 Oct 2020)
OMP_NUM_THREADS environment is not set. Defaulting to 1 thread. (../comm.cpp:94)
  using 1 OpenMP thread(s) per MPI task
OMP_NUM_THREADS environment is not set. Defaulting to 1 thread. (../comm.cpp:94)
  using 1 OpenMP thread(s) per MPI task
Reading data file ...
  orthogonal box = (-0.36422507 -4.3335210 -0.35634085) to (27.704225 332.41352 27.696341)
  2 by 26 by 2 MPI processor grid
  reading atoms ...
  17820 atoms
  reading velocities ...
  17820 velocities
Finding 1-2 1-3 1-4 neighbors ...
  special bond factors lj:    0.0      0.0      0.0     
  special bond factors coul:  0.0      0.0      0.0     
     0 = max # of 1-2 neighbors
     0 = max # of 1-3 neighbors
     0 = max # of 1-4 neighbors
     1 = max # of special neighbors
  special bonds CPU = 2.018 seconds
  read_data CPU = 2.096 seconds
Setting atom values ...
  11880 settings made for charge
Setting atom values ...
  5940 settings made for charge
PPPM initialization ...
  using 12-bit tables for long-range coulomb (../kspace.cpp:328)
  G vector (1/distance) = 0.29882489
  grid = 40 240 40
  stencil order = 5
  estimated absolute RMS force accuracy = 0.0001569644
  estimated relative force accuracy = 1.0900574e-05
  using single precision MKL FFT
  3d grid and FFT values/proc = 9375 4000
Neighbor list info ...
  update every 1 steps, delay 0 steps, check yes
  max neighbors/atom: 2000, page size: 100000
  master list distance cutoff = 11.3
  ghost atom cutoff = 11.3
  binsize = 5.65, bins = 5 60 5
  2 neighbor lists, perpetual/occasional/extra = 2 0 0
  (1) pair coul/long, perpetual
      attributes: half, newton on
      pair build: half/bin/newton
      stencil: half/bin/3d/newton
      bin: standard
  (2) pair eam/alloy, perpetual, copy from (1)
      attributes: half, newton on
      pair build: copy
      stencil: none
      bin: none
Setting up Verlet run ...
  Unit style    : metal
  Current step  : 0
  Time step     : 0.001
Per MPI rank memory allocation (min/avg/max) = 7.707 | 7.735 | 7.764 Mbytes
Step Temp E_pair E_mol TotEng Press 
       0          600   -232808.63            0   -231426.66    146.82458 
  100000    600.64774   -232801.05            0   -231417.59    87.839844 
Loop time of 729.466 on 104 procs for 100000 steps with 17820 atoms

Performance: 11.844 ns/day, 2.026 hours/ns, 137.087 timesteps/s
99.8% CPU use with 104 MPI tasks x 1 OpenMP threads

MPI task timing breakdown:
Section |  min time  |  avg time  |  max time  |%varavg| %total
---------------------------------------------------------------
Pair    | 233.88     | 244.62     | 256.44     |  29.4 | 33.53
Bond    | 0.0055419  | 0.0085542  | 0.013129   |   1.8 |  0.00
Kspace  | 414.49     | 429.24     | 443.07     |  28.1 | 58.84
Neigh   | 15.619     | 17.508     | 19.674     |  22.2 |  2.40
Comm    | 26.28      | 31.106     | 37.243     |  41.0 |  4.26
Output  | 6.3717e-05 | 6.6925e-05 | 0.00027337 |   0.0 |  0.00
Modify  | 2.9702     | 5.6058     | 9.5362     |  72.7 |  0.77
Other   |            | 1.376      |            |       |  0.19

Nlocal:        171.346 ave         191 max         150 min
Histogram: 5 8 8 12 15 9 20 13 9 5
Nghost:        3103.92 ave        3201 max        2973 min
Histogram: 3 5 6 11 19 12 13 10 12 13
Neighs:        34302.5 ave       38666 max       29531 min
Histogram: 3 4 13 10 16 19 18 10 5 6

Total # of neighbors = 3567455
Ave neighs/atom = 200.19388
Ave special neighs/atom = 0.0000000
Neighbor list builds = 16214
Dangerous builds = 0
11880 atoms in group oxygen
PPPM initialization ...
  using 12-bit tables for long-range coulomb (../kspace.cpp:328)
  G vector (1/distance) = 0.29882489
  grid = 40 240 40
  stencil order = 5
  estimated absolute RMS force accuracy = 0.0001569644
  estimated relative force accuracy = 1.0900574e-05
  using single precision MKL FFT
  3d grid and FFT values/proc = 9375 4000
Setting up Verlet run ...
  Unit style    : metal
  Current step  : 0
  Time step     : 0.001
Per MPI rank memory allocation (min/avg/max) = 7.962 | 7.987 | 8.016 Mbytes
Step f_2 Temp v_Tdiff v_deltaT 
       0            0    600.64774            0            0 
  100000    199.67879    598.45496 0.0050777221    58.951882 
  200000    397.74043    603.59912  0.006163446    71.557036 
  300000    594.85298    602.21573 0.0064429066    74.801547 
  400000    794.66755    608.74939 0.0063132388    73.296117 
  500000    994.39394    604.74909 0.0061579155    71.492827 
  600000    1195.5465    603.46727  0.005530473    64.208278 
  700000    1394.8286    606.71617  0.005597231    64.983333 
  800000    1594.5124    602.22495 0.0061707898    71.642297 
  900000    1792.8122    602.69454 0.0062323789     72.35734 
 1000000    1993.9747    606.32249 0.0050346666    58.452011 
 1100000    2189.6746    604.16446 0.0061267565    71.131074 
 1200000    2389.4721    604.38357 0.0056391457    65.469958 
Loop time of 8798.11 on 104 procs for 1200000 steps with 17820 atoms

Performance: 11.784 ns/day, 2.037 hours/ns, 136.393 timesteps/s
99.8% CPU use with 104 MPI tasks x 1 OpenMP threads

MPI task timing breakdown:
Section |  min time  |  avg time  |  max time  |%varavg| %total
---------------------------------------------------------------
Pair    | 2789.5     | 2914.7     | 3045.9     | 100.9 | 33.13
Bond    | 0.069433   | 0.1014     | 0.18531    |   6.5 |  0.00
Kspace  | 5027.7     | 5200.8     | 5370.3     |  94.8 | 59.11
Neigh   | 190.17     | 215.35     | 243.01     |  77.3 |  2.45
Comm    | 325.89     | 381.59     | 459.4      | 143.3 |  4.34
Output  | 0.0014622  | 0.0015284  | 0.0029395  |   0.4 |  0.00
Modify  | 13.649     | 15.17      | 20.038     |  25.1 |  0.17
Other   |            | 70.41      |            |       |  0.80

Nlocal:        171.346 ave         194 max         151 min
Histogram: 5 9 11 16 12 19 16 11 3 2
Nghost:        3107.13 ave        3215 max        2990 min
Histogram: 4 10 7 13 17 12 8 13 16 4
Neighs:        34305.2 ave       39653 max       29166 min
Histogram: 2 8 8 17 14 20 21 11 2 1

Total # of neighbors = 3567746
Ave neighs/atom = 200.21021
Ave special neighs/atom = 0.0000000
Neighbor list builds = 195653
Dangerous builds = 0
Total wall time: 2:38:50
