ITEM: TIMESTEP
50000
ITEM: NUMBER OF ATOMS
18000
ITEM: BOX BOUNDS xy xz yz pp pp pp
-1.4111194256201512e-01 2.8035111942562153e+01 0.0000000000000000e+00
-1.6341073898231691e+00 3.3636210738982442e+02 0.0000000000000000e+00
-1.5043401332593814e-01 2.8044434013326182e+01 0.0000000000000000e+00
ITEM: ATOMS id type x y z
1 1 1.63143 -0.127109 1.18176
2 1 4.42216 -0.0780574 1.18978
3 1 4.4436 -0.123102 4.33059
4 1 1.57085 -0.077875 4.09454
5 1 1.36756 2.60129 1.03561
6 1 4.21533 2.70861 1.31712
7 1 4.27529 2.53889 3.81164
8 1 1.43908 2.72555 4.05725
9 1 7.29437 2.50963 4.20753
10 1 9.91509 -0.303474 1.18447
11 1 10.0308 -0.135129 4.03803
12 1 7.37568 -0.418007 6.99323
13 1 7.22382 5.42256 1.39523
14 1 9.97493 2.60446 1.34781
15 1 10.1495 2.57077 4.23189
16 1 7.26385 2.48941 7.04282
17 1 12.9974 -0.0827636 1.22204
18 1 12.7902 -0.309915 3.99686
19 1 12.7575 2.58127 1.38579
20 1 12.9013 2.39345 4.28112
21 1 1.59552 5.54447 1.11039
22 1 4.42125 5.52871 1.36646
23 1 4.42208 5.37737 4.21989
24 1 1.58145 5.51461 3.76992
25 1 1.64855 8.57359 1.42282
26 1 4.33236 8.32909 1.21973
27 1 4.11008 8.24277 4.0681
28 1 1.54221 8.3846 4.07745
29 1 10.0577 8.13415 1.46452
30 1 10.0073 5.38023 1.21969
31 1 9.9585 5.46088 4.02714
32 1 7.18787 5.37989 4.10193
33 1 7.11935 8.25035 1.48247
34 1 12.8325 8.07837 1.21323
35 1 9.9332 8.35471 4.26057
36 1 7.27371 8.23511 4.06698
37 1 12.8166 5.3945 1.30175
38 1 12.8385 5.31761 4.10024
39 1 12.8927 10.9724 1.49101
40 1 12.9428 8.07906 4.08684
41 1 1.37544 11.3023 1.06697
42 1 4.61478 11.0429 1.35487
43 1 4.39565 11.0917 3.88657
44 1 1.61266 11.2545 3.93505
45 1 1.61337 14.1445 1.31927
46 1 4.44551 13.8674 1.24088
47 1 4.38233 13.9048 4.11605
48 1 1.63713 13.9403 4.32964
49 1 7.3336 11.0854 1.23504
50 1 10.1876 11.0957 1.19363
51 1 10.1968 11.0214 4.03715
52 1 7.57611 10.9794 3.99099
53 1 7.2292 13.9387 1.46579
54 1 9.99229 13.9895 1.64679
55 1 9.97176 13.7847 4.30539
56 1 7.21032 13.8156 4.2235
57 1 12.69 13.7936 1.34896
58 1 12.889 11.0138 4.28433
59 1 12.8957 16.8737 1.36893
60 1 13.0016 13.8068 4.13752
61 1 1.4494 16.891 1.4056
62 1 4.43436 16.7193 1.15396
63 1 4.37693 16.7732 4.01368
64 1 1.60853 16.7373 4.08273
65 1 1.61737 19.5385 1.16758
66 1 4.55766 19.6593 1.39641
67 1 4.42628 19.6063 4.26895
68 1 1.55437 19.5725 4.00719
69 1 7.31371 16.9033 1.30314
70 1 9.95672 16.7332 1.54893
71 1 10.03 16.7558 4.36299
72 1 7.17393 16.7701 4.16682
73 1 7.09916 19.6004 1.38679
74 1 10.0493 19.5045 1.17506
75 1 10.1209 19.5191 3.87471
76 1 7.30154 19.6137 4.21256
77 1 13.0766 19.6366 1.20164
78 1 12.6812 16.7299 4.10868
79 1 12.7891 22.2947 1.29477
80 1 13.057 19.5127 4.10005
81 1 1.62423 22.2395 1.29366
82 1 4.45903 22.2873 1.2374
83 1 4.40153 22.29 4.22569
84 1 1.55518 22.4362 4.29824
85 1 7.19483 22.4273 1.45832
86 1 9.81204 22.3368 1.51239
87 1 9.87666 22.0848 4.33925
88 1 7.24688 22.2848 4.18159
12004 2 0.308772 1.24787 2.5693
12111 2 0.296498 9.59459 11.2965
91 1 1.59392 -0.106324 7.05699
92 1 4.44747 -0.226589 7.06138
93 1 4.46887 2.54982 9.70115
94 1 1.68787 2.55942 9.70807
95 1 1.74429 2.72225 6.92713
96 1 4.56301 2.55171 6.76848
97 1 4.57116 5.30346 9.82958
98 1 1.61226 5.51734 9.65955
99 1 7.28402 5.12184 6.84357
100 1 10.0447 -0.261857 6.91472
101 1 10.1596 -0.390636 9.84269
102 1 4.27614 -0.174052 9.70472
103 1 8.00065 7.60014 8.21847
104 1 10.113 2.51572 6.7936
105 1 9.91237 2.40106 9.70644
106 1 7.38734 5.24698 9.6728
107 1 12.8859 -0.0289217 7.08287
108 1 12.8147 -0.20229 9.89022
109 1 12.6626 2.85454 6.94895
110 1 12.9254 2.41858 9.78551
111 1 1.66073 5.35904 6.88853
112 1 4.42792 5.32743 6.96782
113 1 4.1054 7.81457 8.17928
12116 2 0.139266 15.2154 11.2831
115 1 1.4629 8.20699 6.93112
116 1 6.03206 7.76335 6.50337
117 1 3.7396 11.7544 8.22623
12024 2 0.0775652 12.4855 2.7121
119 1 7.83247 9.87501 6.59047
120 1 9.95236 5.39988 6.96667
121 1 10.0945 5.41097 9.80377
122 1 5.88929 7.92548 9.97409
123 1 5.84447 11.4763 6.59925
124 1 10.4519 8.20621 7.04056
125 1 10.2929 8.23054 9.96733
126 2 5.85455 9.59482 8.15405
127 1 12.9783 5.56632 6.9015
128 1 12.9146 5.28383 9.74339
129 1 13.1893 8.60297 6.72276
130 1 13.0548 7.81312 9.72322
131 1 1.24104 11.1563 6.85994
132 1 3.81422 9.78877 6.47235
133 1 5.87142 11.4443 10.0736
134 1 1.27251 11.0347 9.71316
135 1 1.56731 13.9351 6.81124
136 1 4.48233 14.086 6.8906
137 1 4.35968 14.0406 9.8606
138 1 1.49137 14.0089 9.73427
139 1 8.07413 11.7278 8.62815
140 1 10.3115 11.1036 6.97112
141 1 10.3558 11.2137 9.94817
142 1 7.99531 9.42915 10.5388
143 1 7.34035 14.1887 6.90946
144 1 10.0872 13.7882 6.94951
145 1 10.1365 14.1469 9.57179
146 1 7.1917 14.0635 10.0222
147 1 12.9187 11.1451 7.15115
148 1 12.9394 11.0171 9.89243
149 1 12.9363 13.8881 7.01174
150 1 13.1349 13.9209 9.76094
151 1 1.60878 16.801 6.93687
152 1 4.38332 16.7612 6.90792
153 1 4.29531 16.7736 9.78549
154 1 1.39248 17.0134 9.90547
155 1 1.57406 19.4681 6.76927
156 1 4.29931 19.439 7.03032
157 1 4.37079 19.6224 9.82988
158 1 1.61096 19.6699 9.81712
159 1 7.21693 16.8835 6.91072
160 1 10.128 16.7324 7.07624
161 1 9.98289 16.8286 9.94035
162 1 7.08798 16.8064 9.68171
163 1 7.20157 19.5778 7.22317
164 1 10.0644 19.5616 6.81848
165 1 10.0391 19.694 9.59129
166 1 7.16852 19.5935 9.75666
167 1 12.7632 16.9362 6.98836
168 1 12.8137 16.7898 9.74333
169 1 12.8671 19.4954 7.08962
170 1 12.7417 19.6152 9.82839
171 1 1.43653 22.4626 6.97152
172 1 4.35429 22.3762 6.93961
173 1 4.20439 22.484 9.63251
174 1 1.50285 22.5511 9.78592
175 1 7.20715 22.3205 6.9393
176 1 10.0594 22.453 7.30833
177 1 10.1111 22.6181 9.88843
178 1 7.16978 22.3323 9.77577
179 1 12.9208 22.4614 6.89048
180 1 12.8838 22.3713 9.8505
181 1 1.60954 -0.178484 12.4778
182 1 4.37132 -0.203598 12.6227
183 1 1.53939 2.55138 12.4675
184 1 4.23728 2.61786 12.4834
185 1 7.30417 -0.228128 12.4485
186 1 9.97536 -0.116021 12.5597
187 1 7.16845 2.67125 12.6867
188 1 10.0872 2.8186 12.8268
189 1 12.9393 -0.344877 12.4958
190 1 12.9254 2.41043 12.564
191 1 1.7104 5.36265 12.5122
192 1 4.62997 5.18668 12.7858
193 1 1.72877 8.37329 12.7286
194 1 4.29149 8.21183 12.528
195 1 7.41022 5.42547 12.5984
196 1 10.1387 5.51297 12.5566
197 1 7.05036 8.21844 13.0016
198 1 10.0111 8.52233 12.6873
199 1 12.7695 5.34122 12.4654
200 1 12.989 8.20178 12.5175
201 1 1.76345 11.257 12.7167
202 1 4.64982 11.1087 12.708
203 1 1.59126 14.0021 12.6898
204 1 4.46494 13.8003 12.6187
205 1 7.48011 11.1766 12.6794
206 1 10.1984 11.2779 12.6644
207 1 7.13749 14.0508 12.6269
208 1 9.9095 14.0232 12.5108
209 1 12.9965 11.2056 12.6882
210 1 12.6875 14.0366 12.5882
211 1 1.69644 16.5788 12.7767
212 1 4.51076 16.7183 12.6556
213 1 1.53818 19.4337 12.6488
214 1 4.36717 19.5349 12.7576
215 1 7.26825 16.7984 12.4041
216 1 9.873 16.8945 12.6824
217 1 7.03215 19.5291 12.5686
218 1 9.80118 19.6739 12.1763
219 1 12.7449 16.8088 12.3945
220 1 12.7156 19.7804 12.6619
221 1 1.44357 22.4329 12.5081
222 1 4.41965 22.4988 12.4021
223 1 7.25664 22.2403 12.5035
224 1 9.93511 22.4047 12.5447
225 1 12.9705 22.4901 12.6082
12125 2 11.328 21.1199 11.2925
12110 2 11.5091 3.99301 11.2291
12042 2 2.85863 23.7354 0.0377038
12124 2 8.41435 23.9164 11.2311
12074 2 0.0658108 12.5375 8.32227
12109 2 8.46912 7.01568 11.0789
12054 2 0.245002 1.18434 8.44836
12008 2 5.76758 1.08507 2.74816
12061 2 0.231016 4.08417 5.50817
12010 2 11.3013 1.18113 2.7063
12123 2 5.61498 20.9177 11.2671
12108 2 5.87597 3.97906 11.1278
12013 2 2.90298 4.17463 2.67212
12122 2 2.88385 23.7832 11.1308
12107 2 2.99078 6.98626 10.949
12112 2 3.30393 12.2768 11.0075
12017 2 8.58686 3.98494 2.78611
12018 2 5.83079 6.82051 2.80597
12104 2 8.50734 1.17485 11.1699
12020 2 11.5074 6.65264 2.65539
5718 1 1.47087 -0.294153 9.71428
12032 2 2.9306 17.9833 -0.122066
12023 2 2.99698 9.79397 2.70519
12120 2 11.2437 15.4491 11.1874
12102 2 2.9828 1.27714 11.1914
12113 2 5.80186 9.74658 11.5383
12027 2 8.79116 9.62067 2.73917
12028 2 6.00442 12.4297 2.65764
12100 2 11.4702 23.9148 8.476
12030 2 11.5793 12.5032 2.79039
12099 2 11.3035 21.0457 5.55963
12098 2 5.77751 23.7111 8.35138
12033 2 2.89057 15.3073 2.72911
12091 2 0.145239 20.9408 5.51859
12097 2 8.57438 20.9739 8.43834
12096 2 8.57517 23.6238 5.69801
12037 2 8.61201 15.1804 2.93878
12038 2 5.92079 18.0655 2.67687
12095 2 5.86603 20.7119 5.66601
12040 2 11.4957 18.1185 2.55876
12084 2 0.146951 18.184 8.37022
12093 2 2.90126 21.0275 8.36785
12043 2 3.1187 20.9837 2.79188
12014 2 0.295396 6.91984 2.74708
12092 2 2.94663 23.6914 5.69123
12106 2 0.316637 4.05942 11.1201
12047 2 8.56619 20.82 2.6844
12048 2 5.76615 23.7192 2.81297
12090 2 11.4405 18.152 8.39428
12050 2 11.5197 23.3995 2.9596
12119 2 8.45106 18.1964 11.0347
12052 2 3.03313 1.32083 5.55099
12034 2 0.0116277 18.1875 2.69575
12118 2 5.85853 15.3601 11.216
12051 2 0.134071 -1.51793 5.56821
12056 2 8.62934 1.1382 5.69404
12006 2 8.55251 1.226 -0.082941
12058 2 5.82668 1.10054 8.29195
5629 1 7.29884 -0.23167 4.11771
12060 2 11.439 1.1418 8.33571
12117 2 2.82953 18.0357 11.3483
12062 2 3.10358 6.88098 5.8655
12063 2 3.0967 3.97629 8.35798
12089 2 11.3481 15.2212 5.57906
12065 2 5.96231 3.99622 5.44638
12066 2 8.55013 6.97187 5.6476
12067 2 8.70214 3.88681 8.41255
12068 2 5.99927 6.41497 8.31829
12069 2 11.3204 4.10484 5.41276
12070 2 11.3925 6.70608 8.46666
12115 2 11.5004 9.71615 11.3972
12072 2 3.1947 12.2192 5.77303
12073 2 2.55008 9.67261 8.30214
12114 2 8.66975 12.395 11.0985
12075 2 5.82248 9.71449 5.03057
12076 2 8.56142 12.2967 5.68565
12077 2 9.25457 9.57092 8.59975
12078 2 5.80998 12.8707 8.37537
12079 2 11.5363 9.65682 5.48807
12080 2 11.5272 12.5277 8.46567
114 1 3.64738 9.82643 10.2177
12082 2 3.00452 18.1485 5.53884
12083 2 2.92535 15.2054 8.29392
12126 2 2.9529 -1.65291 13.9034
12085 2 5.7584 15.2901 5.40423
12086 2 8.60278 18.1595 5.58725
12087 2 8.55445 15.4056 8.47183
12088 2 5.63045 18.2143 8.47562
5723 1 7.20886 2.43161 9.73082
12064 2 0.184422 6.7665 8.33879
12094 2 0.124046 23.8549 8.47127
12121 2 0.113588 20.9501 11.155
12031 2 0.106751 15.2506 -0.124282
90 1 12.8897 22.2336 4.31923
5726 1 7.26702 -0.203118 9.61858
118 1 1.42874 8.10006 9.74115
5633 1 7.22274 -0.261949 1.26803
372 1 7.18604 2.66124 1.3428
12081 2 0.228694 15.31 5.45442
12044 2 0.283585 23.5641 2.73248
12145 2 11.5162 18.0893 13.7841
12055 2 5.8192 -1.61536 5.53756
12036 2 8.77446 18.0512 0.00201283
12003 2 2.96918 -1.57229 2.63404
12103 2 5.71264 -1.52097 11.0479
12019 2 11.4873 3.92989 -0.0732833
12046 2 8.59585 23.6246 0.0695818
12041 2 0.280917 20.7923 -0.129892
12071 2 0.197503 9.7663 5.48734
12059 2 11.593 -1.46941 5.60093
12011 2 0.147239 4.11706 -0.147679
12012 2 3.05548 7.03228 -0.0630077
12026 2 8.73131 12.3441 0.0352196
12022 2 3.05213 12.434 -0.0273354
12025 2 5.93056 9.61998 0.114762
12016 2 8.65154 6.61384 0.0109777
12039 2 11.3153 15.1964 0.0866378
12147 2 0.178234 23.8007 13.931
12029 2 11.5317 9.44754 -0.0944272
12127 2 0.154414 1.1847 13.9509
12129 2 5.73409 1.24709 13.8992
12135 2 11.3767 6.75826 13.8295
12148 2 8.68287 20.9359 13.9275
12045 2 5.72958 20.8544 -0.04428
12035 2 5.76676 15.3196 -0.0276671
12130 2 11.5537 1.23651 13.9036
12143 2 8.63336 15.3166 13.9378
12021 2 0.169545 9.5825 -0.0878754
12015 2 5.66569 4.027 -0.0716622
226 1 4.32542 -0.205729 15.3916
227 1 1.48616 -0.0356455 15.4806
228 1 4.25913 2.51528 15.1725
229 1 1.43936 2.68555 15.4015
230 1 9.99751 -0.0247856 15.2409
231 1 7.1828 -0.210358 15.455
232 1 9.93493 2.76802 15.53
233 1 7.0959 2.72406 15.2096
234 1 13.0316 -0.225206 15.3419
235 1 12.7121 2.71745 15.3902
236 1 4.28303 5.37775 15.459
237 1 1.36885 5.37689 15.6497
238 1 4.45224 8.1099 15.3916
239 1 1.61928 8.00308 15.4585
240 1 10.1157 5.56858 15.3605
241 1 7.3564 5.5754 15.5475
242 1 10.0665 8.36174 15.3864
243 1 7.60459 8.49721 15.8258
244 1 12.8698 5.29782 15.2389
245 1 12.9457 8.23744 15.3677
246 1 4.56631 11.01 15.4774
247 1 1.72455 11.0257 15.4748
248 1 4.54791 13.8218 15.5547
249 1 1.73818 13.849 15.4726
250 1 10.3032 11.0256 15.4832
251 1 7.28878 11.1733 15.4747
252 1 10.2854 13.762 15.2494
253 1 7.40759 14.0138 15.4088
254 1 13.119 10.8588 15.4531
255 1 12.9691 13.7639 15.2596
256 1 4.52391 16.6671 15.5869
257 1 1.85579 16.6577 15.4856
258 1 4.32923 19.5772 15.426
259 1 1.59661 19.5227 15.314
260 1 9.91838 16.7463 15.3772
261 1 7.04343 16.7014 15.3486
262 1 10.136 19.579 15.2878
263 1 7.12268 19.5177 15.3469
264 1 12.7824 16.7155 15.2025
265 1 12.7818 19.5268 15.285
266 1 4.34724 22.3076 15.364
267 1 1.53406 22.2225 15.1432
268 1 9.97255 22.229 15.3808
269 1 7.07971 22.3933 15.5955
270 1 12.8307 22.5317 15.4539
271 1 1.50474 -0.0710302 18.2944
272 1 4.30413 -0.368395 18.019
273 1 4.22257 -0.232967 20.7908
274 1 1.58131 -0.00339986 21.1169
275 1 1.58538 2.68905 18.1495
276 1 4.56116 2.47338 18.3881
277 1 4.2586 2.69294 21.0374
278 1 1.41614 2.5613 20.9798
279 1 7.20199 -0.204233 18.3841
280 1 10.1037 -0.141958 17.9788
281 1 10.1035 -0.152967 20.6017
282 1 7.23426 2.75447 23.7584
283 1 7.18463 2.54395 18.0737
284 1 9.94343 2.66661 17.999
285 1 9.99428 2.63006 20.8685
286 1 7.15539 2.54867 20.9299
287 1 12.8475 -0.221433 18.3402
288 1 12.9075 -0.177295 21.0876
289 1 12.7122 2.72004 18.1388
290 1 12.793 2.50015 20.9621
291 1 1.49082 5.38667 18.3715
292 1 4.43919 5.39259 18.26
293 1 4.38427 5.44532 21.1391
294 1 1.58845 5.31602 21.0346
295 1 1.50817 8.34634 18.2516
296 1 4.37215 8.28812 18.1807
297 1 4.10279 8.19697 21.0738
298 1 1.2866 8.10313 21.1754
299 1 7.14219 5.48941 18.1504
300 1 10.0397 5.51584 18.2353
301 1 10.0386 5.40731 20.9625
302 1 7.43151 5.4639 21.0224
303 1 7.29591 8.13907 18.3659
304 1 10.0163 8.18924 18.2753
305 1 10.0598 8.35453 20.9772
306 1 7.06738 8.31729 21.1013
307 1 12.8367 5.42223 18.327
308 1 12.7906 5.26304 21.1657
309 1 12.9519 8.2764 18.366
310 1 12.8643 8.26231 21.0502
311 1 1.65721 11.0277 18.1561
312 1 4.38909 11.0734 18.3657
313 1 4.3534 11.1379 21.1316
314 1 1.55608 11.1647 21.0559
315 1 1.30919 13.9654 18.489
316 1 4.18451 13.7637 18.3874
317 1 4.37886 13.9876 20.9866
318 1 1.47357 13.875 21.2133
319 1 7.20594 11.1194 18.4236
320 1 9.99231 11.0112 18.2715
321 1 9.90592 11.2338 21.0088
322 1 7.29767 11.0022 21.0444
323 1 7.07849 13.8388 18.4009
324 1 9.85727 13.7578 18.1843
325 1 10.0573 14.0055 20.9919
326 1 7.20139 13.769 21.1343
327 1 12.8648 11.0961 18.1859
328 1 12.7411 11.0296 20.8239
329 1 12.8087 13.8973 18.1865
330 1 12.7517 13.8081 20.9585
331 1 1.64906 16.8195 18.2371
332 1 4.4435 16.5757 18.2656
333 1 4.33464 16.6856 21.1897
334 1 1.54683 16.6908 21.0248
335 1 1.5757 19.5116 18.0747
336 1 4.62803 19.601 18.3862
337 1 4.2677 19.3921 21.0929
338 1 1.56236 19.5857 20.8303
339 1 7.34433 16.7961 18.205
340 1 10.0224 16.6871 18.2765
341 1 9.76076 16.6255 20.9283
342 1 6.92693 16.7442 21.0856
343 1 7.35391 19.5413 18.2303
344 1 10.1508 19.4714 18.0908
345 1 10.0011 19.4485 20.8276
346 1 7.20048 19.5656 21.0389
347 1 13.011 16.5843 18.1174
348 1 12.6285 16.9027 21.0251
349 1 12.7451 19.3736 18.0819
350 1 12.5417 19.6198 21.0791
351 1 1.57542 22.3837 18.0998
352 1 4.25713 22.3228 18.2579
353 1 4.27871 22.4101 21.0603
354 1 1.45579 22.323 20.9204
355 1 7.15183 22.3619 18.2071
356 1 9.99298 22.3344 18.3405
357 1 10.0836 22.398 21.2291
358 1 7.1702 22.4483 21.2274
359 1 12.6239 22.2518 18.3168
360 1 12.9724 22.3492 21.2193
361 1 1.59599 -0.13409 23.8628
362 1 4.54447 -0.370477 23.8529
363 1 4.20883 -0.143245 26.5862
364 1 1.29603 -0.212902 26.5662
365 1 1.56906 2.6781 23.7621
366 1 4.39778 2.5904 23.7964
367 1 4.43764 2.58754 26.7384
368 1 1.52524 2.76846 26.6235
369 1 7.30891 2.54783 26.5394
370 1 9.98538 -0.179098 23.628
371 1 9.98078 -0.222502 26.7252
12244 2 0.137444 23.6849 25.1945
373 1 7.32307 5.64364 24.0058
374 1 9.77667 2.54817 23.8237
375 1 9.98631 2.62304 26.705
376 1 7.20076 5.26968 26.6999
377 1 12.7522 -0.250061 23.8527
378 1 12.6421 -0.160369 26.6884
379 1 12.7328 2.49766 23.7964
380 1 12.8301 2.61773 26.5132
381 1 1.56166 5.4703 23.8675
382 1 4.41375 5.43975 23.9778
383 1 4.52382 5.44738 26.6439
384 1 1.86797 5.71338 26.6758
385 1 1.6643 8.29831 23.983
386 1 4.53097 8.19616 23.8282
387 1 4.60468 8.47319 26.5253
388 1 1.75084 8.52108 26.8191
389 1 10.1841 8.18797 26.6418
390 1 9.99577 5.23769 23.7479
391 1 10.0296 5.63083 26.7741
12174 2 -0.00319123 12.46 19.5594
393 1 7.38427 8.20681 23.9604
394 1 10.0588 8.06347 23.8632
395 1 12.9923 8.27152 26.2653
12191 2 0.239368 20.8628 16.7642
397 1 12.7665 5.45438 24.0502
398 1 12.8814 5.51752 26.7679
399 1 13.0606 8.37715 23.6339
12211 2 0.0953563 3.98624 22.4096
401 1 1.54749 11.0647 23.8077
402 1 4.29497 11.271 23.9702
403 1 4.61696 11.0082 26.7551
404 1 1.84127 11.3281 26.4867
405 1 1.50816 13.7102 23.8636
406 1 4.31234 13.9919 23.9959
407 1 4.37194 13.8545 26.7429
408 1 1.59066 13.8617 26.7126
409 1 7.0608 11.105 23.7884
410 1 9.70236 10.8989 24.0202
411 1 12.8624 10.9067 26.8844
412 1 7.14636 11.0377 26.5726
413 1 7.26883 13.8975 23.9999
414 1 10.0035 13.9194 23.7911
415 1 10.2642 13.7171 26.7907
416 1 7.33798 13.9611 26.7759
417 1 12.4595 11.0186 23.8039
12221 2 0.134954 9.55483 22.549
419 1 12.8586 14.0742 23.8064
420 1 12.7306 14.2112 26.789
421 1 1.40333 16.7304 23.8495
422 1 4.09621 16.6991 23.8741
423 1 4.47812 16.565 26.6142
424 1 1.63037 16.6364 26.7785
425 1 1.5175 19.587 23.6972
426 1 4.39411 19.5484 23.892
427 1 4.33238 19.2975 26.7195
428 1 1.62632 19.4989 26.5688
429 1 7.00496 16.7418 23.9513
430 1 9.91275 16.5936 23.8556
431 1 9.85659 16.5201 26.9653
432 1 7.3333 16.6754 26.7472
433 1 7.21919 19.7256 23.9678
434 1 10.0216 19.4995 23.8639
435 1 10.1205 19.5874 26.5785
436 1 7.40639 19.5275 26.9413
437 1 12.7672 16.6686 23.7342
438 1 12.5635 16.9559 26.66
439 1 12.8869 19.4546 23.7895
440 1 12.9552 19.6678 26.7696
441 1 1.55432 22.4873 23.938
442 1 4.37526 22.4024 23.8367
443 1 4.31884 22.198 26.5315
444 1 1.56919 22.2703 26.7005
445 1 7.22998 22.3983 24.0181
446 1 10.0594 22.3896 23.9752
447 1 9.84301 22.3884 26.8752
448 1 7.14348 22.2485 26.8393
449 1 12.9337 22.3182 24.0315
450 1 12.5719 22.3034 26.7785
12233 2 2.99731 15.2813 25.25
12250 2 11.3744 23.6424 25.2934
12164 2 0.0265188 6.60759 19.7515
12155 2 5.71039 -1.48721 16.7334
12194 2 0.128867 23.5631 19.5091
12231 2 0.0476323 15.1433 22.5552
12249 2 11.48 20.8959 22.5486
12157 2 8.74061 -1.45186 19.4631
12151 2 0.144468 -1.52773 16.8763
12234 2 0.191199 18.209 25.2569
12204 2 -0.0121806 1.27904 25.3291
12248 2 5.75579 23.6963 25.3873
12228 2 5.87366 12.5169 25.4895
12214 2 0.230581 6.82613 25.2108
12241 2 0.135363 20.8485 22.2364
5996 1 7.26695 -0.279935 26.7913
12201 2 0.0399692 -1.54125 22.4762
12184 2 0.226146 17.9674 19.5285
12140 2 11.5743 12.3405 14.0187
12137 2 0.328153 12.3118 14.0652
396 1 10.1196 10.7604 26.6998
12223 2 3.16508 9.7856 25.2208
5993 1 7.25633 0.0235343 23.8939
12154 2 0.126875 1.13342 19.6551
392 1 7.23674 8.13954 26.8476
12247 2 8.56778 20.8158 25.3682
12152 2 2.96529 1.04801 16.7784
12232 2 2.80454 18.0093 22.3926
12246 2 8.60632 23.7673 22.644
12139 2 6.01521 12.6191 14.0393
12156 2 8.62344 1.22529 16.7271
12230 2 11.469 12.4237 25.2965
12158 2 5.87428 1.14605 19.661
12226 2 8.4979 12.4626 22.4954
12160 2 11.377 1.19281 19.3892
12245 2 5.81639 20.983 22.6114
12162 2 2.8713 6.76317 16.8689
12163 2 2.9736 3.81055 19.5588
12225 2 5.72976 9.69352 22.5257
12165 2 5.91396 4.05036 16.7833
12166 2 8.63593 7.01498 16.8702
12167 2 8.65755 4.12718 19.5181
12168 2 5.78214 6.72674 19.6062
12169 2 11.3445 4.02208 16.8604
12170 2 11.4284 6.73628 19.6586
12243 2 3.03307 20.8752 25.2273
12172 2 3.15429 12.554 16.832
12173 2 2.8618 9.72379 19.6961
12242 2 2.91333 23.5988 22.4232
12175 2 5.93986 9.60579 16.982
12176 2 8.72182 12.3828 16.8374
12177 2 8.56888 9.69788 19.8323
12178 2 5.72949 12.4369 19.7436
12179 2 11.4198 9.4762 16.9446
12180 2 11.4579 12.4576 19.5728
5906 1 7.13404 -0.0549401 21.0373
12182 2 3.20937 18.0089 16.8458
12183 2 2.87274 15.2132 19.6812
12171 2 0.274614 9.67954 16.8447
12185 2 5.94281 15.3242 16.9306
12186 2 8.5933 17.9862 16.8545
12187 2 8.47578 15.0625 19.7806
12188 2 5.77775 18.1051 19.7026
12189 2 11.2771 15.0978 16.738
12190 2 11.3379 18.078 19.4204
12235 2 5.7477 15.3603 22.5529
12192 2 2.99916 23.8636 16.7493
12193 2 3.02281 20.8956 19.4805
12134 2 5.82477 6.67732 14.1116
12195 2 5.86848 20.8726 16.7595
12196 2 8.51586 23.6923 16.8435
12197 2 8.58907 20.9599 19.7279
12198 2 5.85135 23.6151 19.7183
12199 2 11.4213 21.0036 16.7845
12200 2 11.5047 23.7654 19.676
12240 2 11.2426 18.0878 25.0415
12202 2 3.00355 1.24994 22.3887
12227 2 8.56759 9.50532 25.3366
12239 2 11.5353 15.3132 22.2934
12181 2 0.146882 15.1754 16.8457
12206 2 8.66022 1.305 22.346
12161 2 0.00694648 3.94606 16.957
12208 2 5.84222 1.28251 25.1346
12229 2 11.3727 9.59191 22.4426
12210 2 11.4055 1.16532 25.2059
12238 2 5.77365 17.998 25.4681
12212 2 2.89688 6.77839 22.5616
12213 2 3.00057 4.02805 25.3349
12237 2 8.7415 15.1036 25.3921
12215 2 5.83365 3.92092 22.4499
12216 2 8.69303 6.78238 22.366
12217 2 8.61998 4.13629 25.3391
12218 2 5.80286 6.92533 25.2767
12219 2 11.5276 3.92171 22.4704
12220 2 11.4538 6.82196 25.1508
12236 2 8.45571 17.9137 22.4828
12222 2 2.88162 12.5522 22.4914
12224 2 0.165875 12.5082 25.2586
12144 2 5.8255 18.1793 14.0186
12209 2 11.4742 -1.55908 22.2677
12136 2 3.18967 9.72155 14.2012
12149 2 5.74813 23.6274 14.0682
12141 2 3.12484 15.0958 14.1982
12146 2 2.99736 20.9191 14.0408
12132 2 0.0786757 6.75022 14.0858
12138 2 8.70492 9.66883 14.1705
12142 2 0.299273 18.0005 13.9653
12131 2 2.94681 4.05169 14.0569
12203 2 2.90268 -1.52769 25.2234
12207 2 8.57017 -1.41555 25.3243
12205 2 5.79273 -1.53532 22.4274
12002 2 2.77669 1.27185 27.9175
12150 2 11.3028 23.7629 14.0442
12001 2 -0.109927 -1.42836 27.9865
12128 2 8.52653 -1.61585 14.0357
12049 2 11.4013 20.7559 28.0119
12133 2 8.69559 4.13695 13.9727
451 1 1.67188 25.1967 1.38283
452 1 4.3919 25.1458 1.52224
453 1 4.35388 25.1381 4.36281
454 1 1.53715 25.0729 4.12897
455 1 7.11672 25.0387 1.35995
456 1 9.88055 25.425 1.41589
457 1 9.79723 24.8891 4.01087
458 1 6.88443 24.9329 4.4494
459 1 12.6989 25.4522 4.22179
12255 2 5.61773 26.4003 0.0754334
461 1 1.53975 27.9531 1.50171
462 1 4.64495 28.0126 1.4972
463 1 4.42086 27.9071 4.14569
464 1 1.62875 27.9732 4.25903
465 1 1.65155 30.8618 1.58858
466 1 4.39174 30.7623 1.00737
467 1 4.26008 30.7037 4.49103
468 1 1.51204 30.8625 4.40097
469 1 7.43262 28.0094 1.4765
470 1 10.223 28.4218 1.69717
471 1 9.58652 27.5225 4.50536
472 1 6.94294 27.9614 4.41702
473 1 7.39051 30.7669 1.47145
474 1 10.0888 31.089 1.32802
475 1 7.4154 30.7539 4.44157
476 1 5.48586 31.9247 2.8733
477 1 12.6623 27.7397 1.50228
478 1 12.2466 28.1502 4.34125
479 2 11.6839 29.9147 2.99144
480 1 10.0991 30.883 4.35808
481 1 1.6279 33.5834 1.56235
482 1 4.17842 33.8032 1.22063
483 1 4.1978 33.926 4.00794
484 1 1.48646 33.842 4.25391
485 2 2.82987 35.1121 2.66805
486 1 4.1382 36.7588 1.49845
487 1 3.99518 36.666 4.13515
488 1 1.35144 36.5674 3.98201
489 1 7.27499 33.6256 1.50236
490 1 10.0097 33.8431 1.53807
491 1 9.96237 33.6707 4.36972
492 1 7.1416 33.7511 4.37171
493 1 7.01029 36.789 1.44785
494 1 9.88953 36.6295 1.37776
495 1 10.046 36.4319 4.17618
496 1 7.12007 36.7338 4.06778
497 1 12.8468 33.7861 1.63068
498 1 12.7622 33.7601 4.48878
499 1 12.6194 36.5928 1.35061
500 1 12.8665 36.354 3.95816
501 1 1.46416 39.0706 1.55608
502 1 4.22629 39.4152 1.51331
503 1 4.29899 39.5515 4.37299
504 1 1.23541 39.45 4.32187
505 1 1.39729 41.9537 1.44787
506 1 4.11881 42.2118 1.38926
507 1 4.26054 42.177 4.20003
508 1 1.4245 42.1351 4.18174
509 1 7.10477 39.5054 1.5143
510 1 10.0247 39.2922 1.36533
511 1 9.86913 39.3056 4.14076
512 1 6.94952 39.3725 4.35991
513 1 6.88195 42.1786 1.42351
514 1 9.78258 42.251 1.46353
515 1 9.82969 41.8694 4.09868
516 1 7.12889 42.0953 4.18558
517 1 12.8005 39.5519 1.40058
518 1 12.8565 39.1816 4.21208
519 1 12.777 42.3234 1.42885
520 1 12.6749 42.1544 4.13904
521 1 1.54025 44.8239 1.39259
522 1 4.43086 44.8484 1.40693
523 1 4.1312 44.7807 4.37036
524 1 1.33264 44.8791 4.06124
525 1 1.29561 47.6688 1.48779
526 1 4.09935 47.6082 1.36359
527 1 4.28753 47.6307 4.24622
528 1 1.37413 47.719 4.14322
529 1 7.07307 44.9641 1.26181
530 1 9.88653 45.0294 1.36231
531 1 9.82507 44.7174 4.23307
532 1 6.89919 44.9639 4.14351
533 1 6.93971 47.6976 1.66885
534 1 9.71556 47.7924 1.43581
535 1 9.9401 47.5112 4.3087
536 1 7.21602 47.9254 4.38247
537 1 12.8375 44.9099 1.25373
538 1 12.7817 45.0751 4.20664
539 1 12.65 47.6403 1.24195
540 1 12.7626 47.7443 4.08551
541 1 1.62282 25.3018 6.98598
542 1 4.38958 25.1359 7.16064
543 1 4.43889 25.2167 9.99955
544 1 1.52606 25.3086 9.72208
545 1 7.15267 25.16 7.11001
546 1 10.0348 25.0755 6.88329
547 1 10.0249 25.3553 9.79037
548 1 7.07454 25.2717 9.92338
549 1 12.7671 25.2321 7.09286
550 1 12.909 25.3376 9.90119
551 1 1.46217 27.8993 7.22564
552 1 4.34285 27.9298 7.13281
553 1 4.41867 28.2764 10.2031
554 1 1.56713 28.2657 10.0105
555 1 1.37947 30.7086 7.09087
556 1 4.1839 30.739 7.22579
557 1 4.42073 30.83 9.90041
558 1 1.49487 31.0174 9.98138
559 1 7.06739 28.0525 7.25386
560 1 9.89669 27.9565 7.39254
561 1 9.88919 28.0383 10.0547
562 1 7.18291 28.0188 9.98279
563 1 7.06628 30.9803 7.07283
564 1 9.87013 30.897 7.06096
565 1 9.9368 30.9953 9.79183
566 1 7.20152 30.8345 9.80023
567 1 12.7875 30.588 7.11413
568 1 12.732 27.9682 9.80072
569 1 12.8739 31.0558 4.4803
570 1 12.7799 30.9208 10.0626
571 1 1.73449 33.5315 7.05466
572 1 4.47898 33.541 6.90205
573 1 4.28716 33.4996 9.87675
574 1 1.46516 33.7814 9.79918
575 1 1.44396 36.4194 6.86222
576 1 4.41299 36.2922 7.02952
577 1 4.33918 36.2847 9.85562
578 1 1.39916 36.6937 9.86848
579 1 7.24537 33.7892 7.14914
580 1 10.0359 33.6509 7.21908
581 1 9.89091 33.7461 9.88435
582 1 7.18662 33.5705 10.045
583 1 7.2543 36.5509 7.05811
584 1 10.0133 36.3982 6.93944
585 1 10.0772 36.5522 9.74319
586 1 7.19312 36.3688 9.83412
587 1 12.9071 33.6641 7.17569
588 1 12.6501 33.581 9.80396
589 1 12.8782 36.3757 7.00445
590 1 12.8272 36.2605 10.0213
591 1 1.54875 39.4606 7.13874
592 1 4.19196 39.1756 7.22624
593 1 4.3149 39.1057 10.0136
594 1 1.61077 39.4119 10.0082
595 1 1.39727 42.2179 7.12753
596 1 4.42013 42.1132 7.19975
597 1 4.31338 41.9607 9.9682
598 1 1.58302 42.1147 9.97847
599 1 7.19887 39.2393 7.16589
600 1 9.87793 39.3176 7.03437
601 1 9.82999 39.4116 9.67817
602 1 7.08212 39.137 9.82915
603 1 7.04906 42.1213 7.07103
604 1 10.0227 42.1467 6.9962
605 1 9.96429 42.291 9.99525
606 1 7.02232 42.1238 9.98017
607 1 12.8343 39.1572 6.96229
608 1 12.725 39.0991 9.81064
609 1 12.7741 42.1226 7.05716
610 1 12.7822 42.1219 10.1093
611 1 1.76157 44.9064 7.02048
612 1 4.42024 44.7458 7.09062
613 1 4.24871 44.9982 9.90684
614 1 1.25831 45.0787 9.83136
615 1 1.28926 47.5532 6.95737
616 1 4.22503 47.5593 6.99696
617 1 4.38129 47.7527 9.89581
618 1 1.27552 47.9112 9.99933
619 1 7.47302 45.0867 7.02383
620 1 10.1245 45.0561 7.05602
621 1 9.93592 44.9163 9.75692
622 1 7.12212 44.8136 9.7773
623 1 6.98455 47.8353 7.16972
624 1 9.7887 47.8715 7.09544
625 1 9.78144 47.8013 9.87328
626 1 7.00138 48.0485 9.90619
627 1 12.9478 45.1049 6.91098
628 1 12.6727 44.9365 9.9049
629 1 12.7462 47.976 6.9176
630 1 12.8286 47.6358 9.67562
631 1 1.42078 25.2543 12.4455
632 1 4.2799 25.2672 12.5307
633 1 7.13067 25.0392 12.701
634 1 9.78388 25.1244 12.6843
635 1 12.5996 25.1276 12.7372
636 1 1.29294 28.0712 12.5439
637 1 4.23359 28.0771 12.6737
638 1 1.59402 30.9335 12.5981
639 1 4.3438 30.9836 12.6937
640 1 7.31375 27.9805 12.7269
641 1 10.0732 27.8901 12.9019
642 1 7.04259 30.92 12.6924
643 1 9.83437 30.8809 12.6756
644 1 12.8384 27.9268 12.6349
645 1 12.568 30.6815 12.7139
646 1 1.52114 33.621 12.622
647 1 4.32858 33.8461 12.7265
648 1 1.49625 36.4974 12.5878
649 1 4.51725 36.6209 12.8462
650 1 7.18602 33.6687 12.9017
651 1 10.0627 33.7165 12.6694
652 1 7.29899 36.5126 12.6793
653 1 10.123 36.412 12.6181
654 1 12.7795 33.6318 12.7327
655 1 12.7675 36.262 12.7593
656 1 1.61104 39.0979 12.7438
657 1 4.45442 39.4759 12.932
658 1 1.39808 41.862 12.7764
659 1 4.27157 42.1644 12.7505
660 1 7.09948 39.4174 12.7599
661 1 9.72911 39.3385 12.6385
662 1 7.08452 42.3145 12.7891
663 1 9.76186 42.0821 12.9763
664 1 12.5149 39.2711 12.8154
665 1 12.7561 42.1454 13.0121
666 1 1.61752 44.8689 12.5221
667 1 4.30065 44.9874 12.6792
668 1 1.26319 47.7753 12.7072
669 1 4.03322 47.8384 12.6648
670 1 6.98708 44.9996 12.5587
671 1 9.78925 44.905 12.4771
672 1 6.89529 47.7209 12.5352
673 1 9.7316 47.9924 12.7193
674 1 12.6058 44.9988 12.8038
675 1 12.6397 47.7405 12.4929
12363 2 11.2185 49.0991 11.1763
89 1 12.6191 25.1149 1.54309
12253 2 3.07241 26.5608 2.92401
12362 2 5.46619 49.207 11.2312
12341 2 0.131881 26.7062 11.0619
12299 2 0.0489336 29.3465 8.50048
12257 2 7.92039 26.4864 3.05429
12258 2 5.7498 29.5245 2.9031
12306 2 -0.0227733 32.2158 5.85758
12260 2 11.2396 26.6329 2.86326
12360 2 11.3731 43.4944 11.4018
12274 2 -0.0710202 40.6331 2.78996
12263 2 3.27878 31.9134 2.75073
12359 2 8.23816 46.4209 11.0566
12326 2 0.152115 43.6103 5.63932
12336 2 0.060076 49.0003 5.64917
12267 2 8.55256 32.3154 2.94628
12268 2 6.10286 35.0933 2.92989
12345 2 11.3416 26.4504 11.2471
12270 2 11.3962 34.9574 2.94438
12358 2 5.64534 43.5182 11.2612
12344 2 8.40684 29.5683 11.3019
12273 2 2.77912 38.1885 2.96242
12357 2 2.86143 46.4234 11.2444
12343 2 5.71831 26.7493 11.4199
901 1 1.34158 50.3258 1.41527
12277 2 8.58421 38.0909 2.70837
12278 2 5.68383 40.8387 2.84326
12295 2 11.3212 49.2669 -0.0622935
12280 2 11.2712 40.841 2.739
12355 2 11.4035 37.7669 11.2977
12251 2 0.121908 26.4908 -0.031838
12283 2 2.8942 43.5113 2.86839
12354 2 8.50389 40.8467 11.3911
12254 2 0.0901368 29.3638 2.75566
12309 2 0.0658709 35.2153 8.41346
12287 2 8.43038 43.4986 2.85351
12288 2 5.65125 46.1829 2.79118
12319 2 0.0724731 40.7877 8.52063
12290 2 11.3229 46.3974 2.793
12353 2 5.83777 37.7926 11.4449
12292 2 2.75425 49.079 2.84866
12291 2 -0.111535 49.1696 -0.166828
12294 2 8.44581 49.1478 2.96555
6541 1 12.6307 28.1159 7.07925
12282 2 2.77766 46.3362 0.0659144
12297 2 2.94044 29.2607 5.90937
12298 2 3.05263 26.4909 8.60204
12272 2 2.79375 40.7842 0.0882996
12300 2 5.69361 26.4573 5.81027
12301 2 8.617 29.4012 5.7227
12302 2 8.53339 26.6151 8.5778