ITEM: TIMESTEP
385000
ITEM: NUMBER OF ATOMS
18000
ITEM: BOX BOUNDS xy xz yz pp pp pp
-1.0057621956524646e-01 2.7994576219565694e+01 0.0000000000000000e+00
-1.1200302058491762e+00 3.3584803020588339e+02 0.0000000000000000e+00
-9.3735175385146863e-02 2.7987735175385264e+01 0.0000000000000000e+00
ITEM: ATOMS id type x y z
1 1 1.37755 0.186948 1.36256
2 1 4.29384 0.0438175 1.45099
3 1 4.21121 0.145829 4.33553
4 1 1.46924 0.0474376 4.19134
5 1 1.3571 2.87326 1.35667
6 1 4.19466 2.91561 1.3237
7 1 3.98767 2.837 4.21703
8 1 1.25838 2.85629 4.12946
9 1 6.98138 2.93718 1.38177
10 1 9.87004 0.158961 1.51928
11 1 9.79996 0.068294 4.36062
12 1 6.79662 2.82995 4.20494
13 1 7.00685 5.67813 1.36952
14 1 9.72989 3.15054 1.35134
15 1 9.80978 2.98775 4.19734
16 1 7.00392 5.45857 4.28797
17 1 12.662 0.165006 1.40112
18 1 12.7481 -0.0220891 4.17117
19 1 12.6659 2.88688 1.43052
20 1 12.6334 2.86696 4.23432
21 1 1.32139 5.78741 1.50557
22 1 4.18608 5.85911 1.45584
23 1 4.17741 5.58187 4.40325
24 1 1.3222 5.75006 4.26254
25 1 1.30695 8.62456 1.32445
26 1 4.15827 8.5408 1.42711
27 1 3.93571 11.3433 4.14364
28 1 1.37383 8.60949 4.32793
12046 2 8.52425 23.9994 -0.125219
30 1 9.77997 5.8501 1.36708
31 1 9.87805 5.74011 4.22005
32 1 6.58668 8.18117 5.85188
33 1 6.45261 10.322 3.75087
34 1 9.78357 8.57157 1.31747
35 1 7.94835 7.94962 3.43154
36 1 6.43059 12.0436 5.67669
37 1 12.5404 5.81047 1.37444
38 1 12.6209 5.71662 4.15999
39 1 12.5173 8.6593 1.36045
40 1 12.399 8.60866 4.10889
41 1 1.3303 11.3873 1.4195
42 1 4.00966 11.4104 1.33837
43 1 6.91545 14.3748 4.17979
44 1 1.08422 11.3889 4.33733
45 1 1.29612 14.2396 1.39204
46 1 4.23781 14.2628 1.54539
47 1 4.17128 14.2914 4.25111
48 1 1.47829 14.273 4.23774
49 1 4.01731 8.43859 4.15356
50 1 9.79356 11.4244 1.34243
51 1 9.89135 8.97731 4.96445
52 1 8.83039 11.5863 3.98717
53 1 6.95997 17.1293 4.15469
54 1 9.77734 14.127 1.16101
55 1 12.3989 14.3751 3.90892
56 1 9.83178 14.3871 4.18027
57 1 12.5584 11.4368 1.33416
58 1 12.6384 11.5413 3.9561
59 1 12.3775 14.2531 1.17337
12054 2 -0.0542949 1.56983 8.45103
61 1 1.41313 17.0391 1.24395
62 1 4.21327 16.933 1.29831
63 1 4.09331 17.0364 4.0926
64 1 1.20485 17.2248 4.23395
65 1 1.28119 19.8408 1.47136
66 1 4.01904 19.9399 1.39672
67 1 4.18066 19.948 4.06719
68 1 1.33052 20.0063 4.21509
69 1 6.9503 17.0744 1.42637
70 1 9.87475 16.9943 1.22643
71 1 12.4929 17.0268 4.06897
72 1 9.7234 17.1117 4.18463
73 1 6.82967 19.8279 1.48346
74 1 9.83846 19.8366 1.43583
75 1 9.8225 19.8356 4.05687
76 1 6.99811 19.9804 4.29496
77 1 12.6386 17.1722 1.37732
12035 2 5.60463 15.676 0.0151316
79 1 12.5672 19.9594 1.36339
12014 2 -0.0823432 7.20802 2.86853
81 1 1.28494 22.804 1.31488
82 1 4.13111 22.7273 1.33453
83 1 4.11431 22.6936 4.29839
84 1 1.38598 22.7675 4.14958
85 1 7.07376 22.6728 1.32522
86 1 9.79398 22.7386 1.47288
87 1 9.72473 22.7455 4.16576
88 1 6.8562 22.7285 4.16119
15062 2 13.9298 4.34787 8.48741
12121 2 -0.00884383 21.21 11.233
91 1 1.15331 -0.00828089 6.9331
92 1 4.01756 0.133754 7.32697
93 1 4.14876 2.88557 9.90291
94 1 1.82589 0.332352 9.72717
95 1 1.38111 2.95202 7.06585
96 1 4.22463 2.97401 7.11368
97 1 7.02616 5.73086 9.94014
98 1 1.36775 2.95073 9.87525
99 1 6.96632 3.02124 6.99475
100 1 9.52551 0.285829 7.13356
101 1 9.60339 0.149766 9.91672
102 1 7.03114 2.89279 9.83858
103 1 7.07051 5.62922 7.10688
104 1 9.80905 3.10393 7.01172
105 1 9.77263 3.06493 9.90807
106 1 6.95189 5.9427 12.7367
107 1 12.4099 0.120939 6.86251
108 1 12.4615 0.165823 9.72341
109 1 12.675 3.04712 6.98122
110 1 12.5715 2.91267 9.66618
111 1 1.12754 5.65772 7.0405
112 1 4.10161 5.73797 7.14348
113 1 4.29981 8.47173 9.79186
114 1 1.40306 5.70727 9.88079
115 1 1.32564 8.57142 7.07956
116 1 4.0583 8.53471 7.00743
117 1 6.439 10.2331 7.58225
118 1 1.3425 8.59938 9.84675
119 1 8.68277 8.43475 7.38963
120 1 9.86969 5.90646 6.82778
121 1 9.89494 5.89021 9.77303
122 1 6.97363 8.45529 9.90929
123 1 8.52522 12.0288 7.69286
124 1 12.4692 8.45773 7.00988
125 1 10.4495 10.4359 7.60703
126 2 8.52892 10.0712 8.98641
127 1 12.5786 5.85968 7.08451
128 1 12.5538 5.7553 9.85004
15091 2 14.0292 24.183 5.64312
130 1 12.5233 11.2969 9.97977
131 1 1.18562 11.4783 7.01398
132 1 3.83113 11.5736 7.02026
133 1 4.03418 11.3735 9.89866
134 1 1.16167 11.4444 9.89732
135 1 1.39941 14.2375 7.15755
136 1 4.31416 14.2281 7.09311
137 1 4.1209 14.1161 9.84994
138 1 1.36157 14.1933 9.81544
139 1 9.82306 14.5258 7.10073
140 1 10.7938 12.3351 5.79676
141 1 9.97651 11.4349 10.1081
142 1 7.0016 11.4187 10.0172
143 1 7.05691 14.4845 6.94485
144 1 9.58377 17.2337 7.04213
145 1 9.66515 14.2074 9.90253
146 1 6.92341 14.1852 9.63854
147 1 12.5649 14.1644 6.98319
148 1 12.4821 14.3236 9.71498
149 1 12.3233 17.0824 7.05192
150 1 12.5481 17.1051 9.84778
151 1 1.50012 17.1306 6.85247
152 1 4.07814 17.1099 6.89116
153 1 4.19989 17.0519 9.73092
154 1 1.42749 17.0035 9.76495
155 1 1.37559 20.0753 6.9277
156 1 4.22328 19.89 6.93559
157 1 4.21486 19.8552 9.70402
158 1 1.41181 19.807 9.7209
159 1 6.9118 17.2414 7.11815
160 1 12.5847 22.9288 4.16294
161 1 9.71675 17.0678 9.94775
162 1 6.96382 17.0729 9.97357
163 1 6.93519 20.0274 6.99782
164 1 9.7345 20.1004 6.96281
165 1 9.75037 19.7388 9.84082
166 1 7.06396 19.7636 9.79001
241 1 9.67115 8.55305 12.7075
168 1 12.4962 19.8344 9.62809
169 1 12.6494 22.7135 7.07902
170 1 12.5194 22.7797 9.83747
171 1 1.35442 22.7549 7.04683
172 1 4.13663 22.6503 7.12661
173 1 4.18897 22.6654 9.86396
174 1 1.42063 22.6005 9.87717
175 1 6.99862 22.8084 7.00494
176 1 9.929 22.7514 6.96822
177 1 9.86057 22.6553 9.85047
178 1 6.99812 22.6153 9.68267
15106 2 14.0625 7.29258 11.3304
12094 2 -0.0269232 24.0065 8.47084
181 1 1.28462 0.0986054 12.6277
182 1 4.10252 0.331809 12.447
183 1 1.19337 2.95545 12.5346
184 1 4.04699 3.06987 12.6855
185 1 6.78067 0.13092 12.688
186 1 9.78589 0.261827 12.6274
187 1 6.85742 3.02661 12.6301
188 1 9.75383 2.98567 12.775
189 1 12.4832 0.0585843 12.5449
190 1 12.5306 2.88158 12.6416
191 1 1.27984 5.76687 12.7304
192 1 4.25889 5.75443 10.0163
193 1 1.1642 8.53162 12.6572
194 1 4.13206 8.50756 12.6323
195 1 4.08082 5.85853 12.6453
196 1 9.95058 5.85406 12.6042
197 1 9.87636 8.51504 10.0324
198 1 12.6345 8.44797 9.90324
199 1 12.616 5.75097 12.7344
200 1 12.5613 8.60558 12.6976
201 1 1.18001 11.4405 12.6962
202 1 4.08681 11.2508 12.7215
203 1 1.2892 14.311 12.5764
204 1 3.95609 14.1924 12.55
205 1 6.85389 11.2673 12.6435
206 1 9.6663 11.3978 12.7427
207 1 6.83348 14.3656 12.6032
208 1 9.69502 14.3184 12.7418
209 1 12.5876 11.4011 12.7563
210 1 12.5105 14.196 12.7003
211 1 1.12687 17.1317 12.5747
212 1 4.08394 16.9816 12.5112
213 1 1.38386 19.8601 12.5388
214 1 4.15411 19.7707 12.5098
215 1 6.8574 17.0576 12.6921
216 1 9.66546 17.0524 12.6112
217 1 6.81745 19.7898 12.5345
218 1 9.79593 19.8865 12.6837
219 1 12.5508 17.0244 12.6423
220 1 12.6153 19.8129 12.6657
221 1 1.2506 22.6593 12.7178
222 1 4.07749 22.5913 12.667
223 1 7.02187 22.5993 12.5477
224 1 9.59106 22.6483 12.622
225 1 12.3271 22.743 12.5782
12125 2 11.1202 21.1864 11.2781
12110 2 11.1787 4.34122 11.3022
15121 2 13.9756 24.0883 11.1081
12124 2 8.31747 23.922 11.2009
80 1 12.5877 22.7376 1.09649
12109 2 8.36977 7.19245 11.2874
12039 2 11.2123 15.6564 -0.109173
12008 2 5.5504 1.47338 2.74649
243 1 6.9001 8.58954 12.7213
12010 2 11.3173 1.58877 2.83124
12123 2 5.64895 21.1963 11.1109
12108 2 5.57293 4.36904 11.2577
12013 2 2.66154 4.4945 2.79967
12122 2 2.75767 23.998 11.2557
12107 2 2.65888 7.1412 11.2443
12112 2 2.68537 12.7862 11.1608
12017 2 8.35461 4.37525 2.78767
12018 2 5.65775 7.22669 2.88569
12104 2 8.24133 1.51426 11.3034
12020 2 11.0891 7.16747 2.73922
60 1 12.4964 19.9629 4.09524
15071 2 13.8212 13.14 5.33861
12023 2 2.62456 9.98599 2.78569
12120 2 11.1765 15.6486 11.1896
12102 2 2.5959 1.70616 11.3907
12113 2 5.54546 9.89274 11.2984
12027 2 8.24014 10.0245 2.33158
12028 2 5.61544 12.869 2.92307
12100 2 11.1555 24.0688 8.44523
12030 2 11.0597 12.773 2.76972
12099 2 11.1329 21.3221 5.62335
12098 2 5.61774 24.0406 8.42316
12033 2 2.72737 15.6647 2.81116
412 1 7.12949 14.2179 1.33647
12097 2 8.46624 21.2715 8.31129
12096 2 8.39339 24.1089 5.50016
12037 2 8.49846 15.6374 2.72753
12038 2 5.64019 18.454 2.90727
12095 2 5.55642 21.3813 5.54624
12040 2 11.1794 18.4774 2.66195
29 1 6.91946 8.57131 1.08044
12093 2 2.73546 21.3473 8.4413
12043 2 2.69307 21.3736 2.77693
5723 1 6.75823 0.262037 6.96582
12092 2 2.77565 23.997 5.7
5634 1 7.05274 0.0562296 1.18786
12047 2 8.37141 21.2758 2.76269
12048 2 5.48832 24.1052 2.6349
12090 2 11.1226 18.4637 8.44457
12050 2 11.1764 23.9839 2.66521
12119 2 8.29579 18.4144 11.2172
12052 2 2.71631 1.48722 5.75381
12111 2 -0.185648 10.0516 11.2529
12118 2 5.57703 15.6764 11.1206
5633 1 6.96018 -0.0428153 4.11468
12056 2 8.31517 1.49117 5.62624
5726 1 6.43971 0.254368 9.9779
12058 2 5.58169 1.69133 8.37723
12022 2 2.74901 12.719 0.0160288
12060 2 11.1912 1.53072 8.40137
12117 2 2.74623 18.3743 11.1933
12062 2 2.60823 7.08679 5.72536
12063 2 2.75678 4.47525 8.53546
12089 2 11.2298 15.6718 5.7219
12065 2 5.54897 4.36519 5.67409
12066 2 8.38975 6.90684 5.50198
12067 2 8.5111 4.44425 8.47343
12068 2 5.64457 7.28053 8.39063
12069 2 11.2479 4.35759 5.60976
12070 2 11.1386 7.28984 8.46487
12115 2 11.2644 9.99924 11.2595
12072 2 2.56329 12.8303 5.5815
12073 2 2.79715 10.0255 8.49799
12114 2 8.36766 12.8381 11.234
12075 2 5.01775 10.0688 5.60526
12076 2 8.52475 13.1519 5.70634
12077 2 8.12137 10.0117 5.71878
12078 2 5.88152 12.6198 8.23165
12079 2 11.6314 10.1964 5.65668
12080 2 10.899 12.7923 8.29561
395 1 6.90317 11.5059 1.28532
12082 2 2.79665 18.5683 5.538
12083 2 2.87186 15.4677 8.37115
15081 2 13.5931 18.4416 5.52259
12085 2 5.56472 15.8027 5.55641
12086 2 8.39224 18.4256 5.63019
12087 2 8.31922 15.6936 8.48515
12088 2 5.52442 18.511 8.3521
167 1 12.487 19.779 6.93704
12024 2 -0.152572 12.8351 2.82282
129 1 13.3486 11.289 6.8222
15116 2 13.9311 18.3724 11.1591
15101 2 13.8718 1.37199 11.2414
12026 2 8.36402 12.8493 -0.151473
12074 2 -0.110746 12.8656 8.44303
12106 2 -0.176956 4.41642 11.1652
12084 2 0.107065 18.5228 8.38169
12015 2 5.60655 4.4363 -0.0729095
15061 2 13.866 7.1194 5.55787
12081 2 -0.052513 15.567 5.65344
12064 2 -0.168771 7.23549 8.45482
12034 2 -0.187934 18.5362 2.80293
12044 2 0.0428877 24.1821 2.70301
12071 2 -0.163818 9.99744 5.61767
12061 2 -0.194206 4.35292 5.68316
12006 2 8.42726 1.58031 0.0267515
12042 2 2.8972 23.9745 -0.170331
12025 2 5.39453 10.055 -0.0532325
12012 2 2.76257 7.24744 0.140047
12032 2 2.786 18.4776 0.09302
12045 2 5.52133 21.2868 -0.00230016
12136 2 2.64234 9.92526 14.1198
12002 2 2.6784 1.60645 -0.00460757
12036 2 8.29574 18.4239 0.00191679
226 1 3.94604 0.194657 15.4221
227 1 1.10684 0.121971 15.3669
228 1 4.0599 2.93221 15.5217
229 1 1.31407 2.95666 15.3026
230 1 9.60391 0.271048 15.5292
231 1 6.7717 0.286685 15.4093
232 1 9.64924 3.042 15.3834
233 1 6.77369 3.05577 15.4527
234 1 12.3258 0.253489 15.4983
235 1 12.5249 3.0323 15.5471
236 1 4.10963 5.90387 15.4366
237 1 1.34203 5.92945 15.4896
238 1 4.05348 8.66955 15.4097
239 1 1.24475 8.70809 15.5771
240 1 9.81109 5.78136 15.3205
15232 2 13.898 15.6747 25.1281
242 1 9.74973 8.60126 15.5769
5993 1 6.88013 0.17157 23.7635
244 1 12.6107 5.81111 15.4337
245 1 12.5703 8.61251 15.3762
246 1 3.97153 11.3094 15.5519
247 1 1.21092 11.5859 15.4668
248 1 4.03405 14.1469 15.417
249 1 1.23339 14.4318 15.4326
250 1 9.55342 11.3745 15.543
251 1 6.78614 11.3593 15.444
252 1 9.5963 14.2917 15.3984
253 1 6.94053 14.1456 15.3199
254 1 12.4433 11.4206 15.4172
255 1 12.4053 14.1442 15.5387
256 1 4.11733 17.063 15.3188
257 1 1.33746 17.1375 15.2652
258 1 4.20591 19.7559 15.3853
259 1 1.30306 19.8601 15.2667
260 1 9.78756 17.1783 15.3145
261 1 6.92666 17.0587 15.4877
262 1 9.69062 20.0613 15.3914
263 1 7.07855 19.9549 15.3566
264 1 12.6583 17.0027 15.4222
265 1 12.466 19.6534 15.5467
266 1 4.13363 22.638 15.493
267 1 1.41461 22.6396 15.4537
268 1 9.76402 22.8187 15.4022
269 1 6.87981 22.6544 15.406
270 1 12.5705 22.5124 15.4179
271 1 1.26913 0.224548 18.182
272 1 4.11998 0.263873 18.3653
273 1 4.1174 0.224659 21.1046
274 1 1.40775 0.200934 21.0466
275 1 1.20118 3.03607 18.2928
276 1 3.85949 3.0701 18.2718
277 1 4.08046 3.12551 21.103
278 1 1.44848 2.86874 21.0403
279 1 6.82364 2.93961 18.3063
280 1 9.63507 0.196217 18.1781
281 1 9.64399 0.0995687 21.1084
282 1 7.03733 2.96964 21.1898
283 1 6.91969 5.90717 18.2013
284 1 9.75238 3.0031 18.2513
285 1 9.81562 2.81623 21.0918
286 1 6.85499 5.93139 23.9545
287 1 12.456 0.157208 18.2085
288 1 12.4007 0.210924 21.04
289 1 12.5609 2.84467 18.1876
290 1 12.4978 3.03716 20.8708
291 1 1.44059 5.80807 18.2994
292 1 4.24935 5.86189 18.3169
293 1 4.2023 5.83944 21.1512
294 1 1.33705 5.82492 21.1106
295 1 1.29337 8.54143 18.1995
296 1 4.05772 8.82978 18.2758
297 1 4.03133 8.60622 21.0985
298 1 1.20814 8.69759 20.965
299 1 6.98436 5.70096 15.3974
300 1 9.62984 5.76574 18.1865
301 1 9.88343 5.81431 20.9967
302 1 6.97958 5.81719 21.0491
303 1 6.70857 8.62028 15.5191
304 1 9.87057 8.60666 18.285
305 1 9.75753 8.54126 21.0806
306 1 7.02243 8.69739 18.1652
307 1 12.4251 5.61063 18.2393
308 1 12.6202 5.82571 20.9221
309 1 12.5656 8.48576 18.1692
310 1 12.5762 8.64805 20.9953
311 1 1.22053 11.5592 18.2039
312 1 4.06874 11.618 18.1783
313 1 4.04483 11.503 20.8928
314 1 1.22366 11.526 21.1409
315 1 1.21844 14.3213 18.2185
316 1 3.94181 14.3296 18.2424
317 1 4.18522 14.1515 21.0483
318 1 1.33621 14.3206 21.0928
319 1 6.96674 11.5317 18.1464
320 1 9.67014 11.4111 18.302
321 1 9.68304 11.5052 21.0193
322 1 6.7897 11.481 21.0652
323 1 6.8468 14.2723 18.3073
324 1 9.6303 14.1908 18.1359
325 1 9.60975 14.3338 20.9048
326 1 6.95799 14.3311 20.9687
327 1 12.5357 11.1727 17.9975
328 1 12.5066 11.4711 20.8283
329 1 12.6117 14.1555 18.365
330 1 12.4025 14.2905 20.9795
331 1 1.277 17.0802 18.1699
332 1 3.89533 17.128 18.193
333 1 4.33597 17.1005 20.9337
334 1 1.36302 17.0864 20.9124
335 1 1.19459 19.9898 18.1666
336 1 4.14724 19.8437 18.0571
337 1 3.99568 19.8582 21.0132
338 1 1.20458 19.8726 20.9748
339 1 6.75693 17.0123 18.2365
340 1 9.7344 17.008 18.1943
341 1 9.77618 16.9927 21.0337
342 1 6.92821 17.2421 21.0179
343 1 6.96685 19.815 18.1245
344 1 9.80856 19.7653 18.1862
345 1 9.65767 19.8883 21.0806
346 1 6.85763 19.922 20.8367
347 1 12.5068 16.9397 18.1511
348 1 12.5257 17.0961 20.9458
349 1 12.7033 19.796 18.2929
350 1 12.669 19.8825 21.0968
351 1 1.30405 22.89 18.2382
352 1 4.18204 22.572 18.3639
353 1 4.14134 22.6071 21.0667
354 1 1.44071 22.6662 21.0369
355 1 6.94494 22.6378 18.2313
356 1 9.65173 22.6353 18.0749
357 1 9.73641 22.8002 20.9493
358 1 7.00843 22.678 21.1311
359 1 12.5012 22.6556 18.1731
360 1 12.4599 22.7465 21.0976
361 1 1.28978 0.253164 23.7541
362 1 4.0753 0.296593 23.9435
363 1 3.87546 0.235908 26.6742
364 1 1.14382 0.239509 26.6281
365 1 1.28269 3.06211 23.8539
366 1 4.18932 3.12552 23.8107
367 1 3.88533 3.09846 26.5525
368 1 1.14635 3.02809 26.6298
369 1 6.90775 2.96895 23.9602
370 1 9.72389 0.28103 24.0469
371 1 9.76149 0.0930433 26.75
372 1 6.93121 2.93042 26.7227
373 1 7.05381 5.77345 26.6302
374 1 9.8065 3.18323 23.84
375 1 9.83992 2.86867 26.7457
376 1 9.69608 5.66095 26.6551
377 1 12.6223 0.210399 23.9375
378 1 12.6479 0.089572 26.7371
379 1 12.5529 3.02139 23.7159
380 1 12.5875 3.10114 26.4883
381 1 1.10143 6.00482 23.7671
382 1 4.01672 5.84223 23.8137
383 1 4.24381 5.87248 26.6138
384 1 1.33186 5.87791 26.8214
385 1 1.26557 8.60846 23.8757
386 1 4.10452 8.75618 23.894
387 1 4.03766 8.77359 26.6996
388 1 1.30454 8.64633 26.689
389 1 6.99517 8.6256 23.644
390 1 9.67724 5.79289 23.8003
391 1 9.71978 8.52194 26.6497
392 1 6.95789 8.58669 26.3366
393 1 6.7901 8.65051 21.0275
394 1 9.87807 8.64051 23.8434
15241 2 13.9843 24.0131 22.3311
396 1 6.89101 11.3522 26.6969
397 1 12.5984 5.81446 23.823
398 1 12.555 5.78633 26.5854
399 1 12.5192 8.38489 23.7022
400 1 12.5519 8.49737 26.4994
401 1 1.21074 11.3389 23.9872
402 1 4.10632 11.5298 23.867
403 1 4.09646 11.4962 26.5699
404 1 1.33595 11.3766 26.7113
405 1 1.3956 14.2855 23.9225
406 1 4.0932 14.271 23.943
407 1 4.09424 14.1363 26.8126
408 1 1.24221 14.2177 26.745
409 1 6.77372 11.5574 23.9486
410 1 9.76297 11.3552 23.8508
411 1 9.6939 11.3536 26.6972
12135 2 11.1452 7.24376 14.058
413 1 6.99272 14.2232 23.7718
414 1 9.80901 14.2174 23.8222
415 1 9.78609 14.194 26.5191
416 1 6.84139 14.2352 26.4469
417 1 12.5055 11.3679 23.7908
418 1 12.4341 11.3325 26.6152
419 1 12.4941 14.2913 23.8305
420 1 12.5177 14.4272 26.5677
421 1 1.23394 17.134 23.7625
422 1 4.2055 16.9335 23.6305
423 1 4.22421 17.0545 26.7157
424 1 1.43981 17.1858 26.4764
425 1 1.28955 19.9266 23.8131
426 1 3.99989 19.6072 23.8189
427 1 4.17974 19.7982 26.6574
428 1 1.34906 19.8793 26.7484
429 1 6.98251 16.9785 23.8492
430 1 9.85597 17.188 23.7274
431 1 9.70669 17.0419 26.6291
432 1 6.96583 16.9516 26.6576
433 1 6.83178 19.7674 23.7181
434 1 9.66589 19.985 23.8751
435 1 9.74826 19.8853 26.6879
436 1 6.90716 19.8257 26.7075
437 1 12.5269 17.0501 23.8681
438 1 12.4121 17.2454 26.5232
439 1 12.5268 19.9393 23.8459
440 1 12.5833 20.0088 26.7078
441 1 1.22774 22.6439 23.9164
442 1 4.10994 22.5317 23.8265
443 1 4.20542 22.6256 26.5622
444 1 1.42034 22.4292 26.6616
445 1 6.9129 22.6902 23.8494
446 1 9.6856 22.7882 23.8311
447 1 9.87669 22.7369 26.639
448 1 6.98706 22.6087 26.6241
449 1 12.4278 22.7234 23.6401
450 1 12.6358 22.7704 26.466
12147 2 -0.132228 23.9891 13.84
12250 2 11.1297 24.1241 25.0156
12133 2 8.28982 4.34288 13.9559
12049 2 11.1906 21.2536 28.075
5906 1 6.80096 0.152168 21.0237
12143 2 8.2462 15.7195 13.9177
12249 2 11.0663 21.3096 22.2174
15151 2 13.9559 1.58166 16.8856
12214 2 -0.228989 7.29556 25.1687
15201 2 13.9189 1.58188 22.4662
12241 2 -0.110254 21.2347 22.4412
12248 2 5.52445 23.9949 25.1601
12145 2 11.1348 18.3218 13.99
15212 2 14.0156 4.45566 25.229
12141 2 2.73035 15.7276 13.908
12134 2 5.55554 7.15252 14.105
12148 2 8.30782 21.0983 13.8609
12150 2 11.0456 24.1202 13.924
12220 2 11.0277 7.11211 25.2272
12131 2 2.64874 4.48342 14.1792
12232 2 2.71753 18.3821 22.3973
12216 2 8.38309 7.28154 22.5287
5903 1 6.87102 0.099617 18.2001
12219 2 11.2174 4.45112 22.2909
12218 2 5.45014 7.23031 25.2078
12247 2 8.36629 21.3652 25.2513
12152 2 2.62867 1.55791 16.7753
12227 2 8.34856 9.95485 25.2956
12246 2 8.3124 24.0943 22.364
12230 2 11.1928 12.7672 25.1818
12156 2 8.20766 1.60956 16.7819
12229 2 11.1181 9.87828 22.3704
12158 2 5.46948 1.62782 19.6932
12217 2 8.35244 4.41942 25.1914
12160 2 11.1141 1.63732 19.555
12245 2 5.49947 21.1643 22.368
12162 2 2.75781 7.24032 16.8444
12163 2 2.76734 4.40194 19.7668
12228 2 5.46001 12.8747 25.2326
12165 2 5.52091 4.38687 16.7721
12166 2 8.34468 7.22803 16.782
12167 2 8.24827 4.2066 19.6786
12168 2 5.65222 7.24484 19.6108
12169 2 11.0595 4.34177 16.8429
12170 2 11.1979 7.20443 19.6531
12243 2 2.84769 21.1028 25.2287
12172 2 2.63559 12.8162 16.8184
12173 2 2.70108 9.94647 19.5393
12242 2 2.71271 24.0031 22.4014
12175 2 5.42623 10.0447 16.9188
12176 2 8.27276 12.9101 16.8375
12177 2 8.39541 10.1271 19.68
12178 2 5.43459 12.8402 19.5815
12179 2 11.1569 9.9106 16.8149
12180 2 11.1135 12.8771 19.5207
12236 2 8.27458 18.5214 22.4433
12182 2 2.56462 18.4644 16.7533
12183 2 2.69943 15.6429 19.577
12223 2 2.69421 10.0348 25.2859
12185 2 5.38312 15.7106 16.7805
12186 2 8.40119 18.5928 16.8223
12187 2 8.31337 15.7422 19.5092
12188 2 5.46047 18.4055 19.5525
12189 2 11.0846 15.5813 16.7503
12190 2 11.1943 18.4096 19.5779
12226 2 8.25512 12.8878 22.4181
12192 2 2.78935 24.1153 16.6873
12193 2 2.70173 21.2563 19.6892
12225 2 5.45296 10.1976 22.4829
12195 2 5.68259 21.265 16.8605
12196 2 8.32318 24.1355 16.6887
12197 2 8.32776 21.3615 19.614
12198 2 5.66831 24.102 19.5112
12199 2 11.1219 21.2987 16.8041
12200 2 11.1926 24.1301 19.5994
12240 2 11.1128 18.6188 25.3235
12202 2 2.82212 1.56273 22.5394
5996 1 6.82803 0.233629 26.4947
12239 2 11.0188 15.6678 22.4421
12222 2 2.64419 12.8439 22.4976
12206 2 8.30938 1.41889 22.4331
12235 2 5.60374 15.6232 22.3635
12208 2 5.51333 1.62609 25.3204
12233 2 2.83277 15.612 25.2704
12210 2 11.1592 1.72234 25.2517
12238 2 5.50303 18.4211 25.2205
12212 2 2.61828 7.25012 22.4328
12213 2 2.58498 4.39157 25.1803
12237 2 8.40145 15.666 25.2145
12215 2 5.49777 4.50391 22.5491
12129 2 5.42401 1.60632 13.9723
12221 2 -0.0720367 10.0161 22.348
12138 2 8.23517 10.0089 14.1247
12164 2 -0.115791 7.19354 19.7206
12244 2 -0.0939273 24.0862 25.1908
12139 2 5.42408 12.7436 14.0253
12140 2 11.0625 12.7996 14.06
12234 2 -0.00236412 18.5746 25.2862
12146 2 2.75781 21.1493 14.0328
15231 2 13.8971 18.4391 22.5446
12029 2 11.1904 9.93167 27.9965
12154 2 0.0284732 1.53199 19.7803
12041 2 -0.0144979 21.2967 28.1293
12191 2 -0.110838 21.3103 16.5749
12194 2 0.0280384 24.2038 19.5055
12211 2 -0.111355 4.31663 22.4539
15146 2 13.8986 21.1557 14.0204
12016 2 8.264 7.07154 28.0159
12149 2 5.47992 24.0124 14.0499
12019 2 11.1593 4.42404 28.0796
15021 2 13.8942 12.8011 27.8685
12130 2 11.1331 1.70897 14.1125
12144 2 5.51115 18.4225 14.1182
451 1 1.5125 25.5102 1.46138
452 1 4.26515 25.5331 1.04182
453 1 4.11932 25.4605 4.17401
454 1 1.39435 25.3963 4.37144
455 1 7.05759 25.4182 1.24647
456 1 9.78653 25.4753 1.24958
457 1 9.76866 25.5383 4.0446
458 1 6.95082 25.439 4.03668
459 1 12.6826 31.086 1.37239
460 1 12.5541 28.4524 4.08606
461 1 1.17326 28.256 1.33746
462 1 4.1322 28.2588 1.34721
463 1 4.09625 28.1701 4.20669
464 1 1.20468 28.0899 4.14127
465 1 1.38323 31.0597 1.48192
466 1 4.04097 31.0923 1.51286
467 1 4.12757 30.9427 4.14661
468 1 1.32111 30.8158 4.24648
469 1 6.77165 28.1644 1.27507
470 1 9.68914 28.2372 1.08603
471 1 9.74934 28.1408 3.93865
472 1 7.0337 28.2471 4.03396
473 1 6.97337 30.8795 1.1516
15306 2 13.953 35.4719 5.68883
475 1 9.7514 30.9199 4.0619
476 1 6.77441 31.135 4.16926
477 1 9.95266 31.0214 1.27607
478 1 9.64217 33.9841 1.67474
15368 2 13.9616 32.4882 13.9296
12351 2 -0.188456 38.1695 11.175
481 1 1.18741 33.6706 1.30617
482 1 4.26848 34.0588 0.779311
483 1 3.9462 33.6185 4.28076
484 1 1.17152 33.7634 4.36558
909 1 6.89279 50.8767 1.36515
486 1 2.76126 35.2309 2.72813
487 1 4.23588 36.8752 4.19775
488 1 1.21909 36.7652 4.35583
489 1 6.57348 33.3784 2.56701
847 1 1.1909 36.9242 1.36916
491 1 9.17844 33.6667 4.23555
492 1 6.60676 34.7268 4.74267
493 1 4.05541 36.8031 0.686041
494 1 9.40456 36.7341 1.47674
495 1 9.71034 36.2799 4.24181
496 1 7.04604 37.1015 3.91023
497 1 12.651 33.873 1.20966
498 1 12.3065 34.1221 4.27778
499 1 12.2754 36.7469 1.27501
500 1 12.5777 36.8508 4.06446
501 1 1.34541 39.6966 1.12227
502 1 4.16051 39.8101 1.46333
503 1 4.08943 39.6509 4.19784
504 1 1.35868 39.4805 3.97802
505 1 1.2292 42.319 1.49406
506 1 4.04459 42.4712 1.30671
507 1 4.02504 42.3978 4.21583
508 1 1.38532 42.4488 4.16473
509 1 6.91316 39.4777 1.41401
510 1 9.70428 39.5679 1.35473
511 1 9.70208 39.5989 4.25071
512 1 6.879 39.855 4.22062
513 1 6.83059 42.483 1.40299
514 1 9.75681 42.2705 1.37282
515 1 9.61366 42.436 4.16128
516 1 6.79177 42.4709 4.12248
517 1 12.5724 39.5075 1.23593
518 1 12.2741 39.5485 4.02589
519 1 12.5496 42.307 1.27743
520 1 12.452 42.4358 4.1013
521 1 1.35578 45.1493 1.40739
522 1 4.11293 45.2173 1.37829
523 1 4.02701 45.1293 4.25143
524 1 1.26515 45.3395 4.13565
525 1 1.36558 47.9703 1.37924
526 1 4.17256 47.9047 1.3373
527 1 4.10889 48.1133 4.1796
528 1 1.47649 48.0423 4.099
529 1 7.01265 45.2188 1.36176
530 1 9.6732 45.0485 1.27161
531 1 9.78819 45.2369 4.11033
532 1 6.89282 45.1434 4.08527
533 1 7.03027 48.0654 1.1485
534 1 9.78199 47.7891 1.36221
535 1 9.58295 48.0898 4.23261
536 1 6.82768 47.889 4.08162
537 1 12.5894 45.0141 1.25143
538 1 12.5759 45.2251 4.15177
539 1 12.6104 47.9474 1.41629
540 1 12.5844 47.972 4.19577
541 1 1.30183 25.6012 7.12601
542 1 4.14751 25.5003 7.10735
543 1 4.18484 25.4687 9.91055
544 1 1.46856 25.391 9.82513
545 1 6.92832 25.5002 6.89376
546 1 9.74363 25.5888 6.86783
547 1 9.66941 25.4651 9.79336
548 1 6.90749 25.3398 9.80795
549 1 12.5122 28.3228 6.80033
550 1 12.4734 25.5488 9.69198
551 1 1.44397 28.3826 6.81929
552 1 4.16529 28.1524 7.00479
553 1 4.21336 28.3838 9.71425
554 1 1.21055 28.2111 9.76773
555 1 1.27062 31.2835 7.07744
556 1 3.90802 30.9454 6.97078
557 1 4.06279 31.2274 9.90465
558 1 1.5372 31.0482 9.74302
559 1 6.93356 28.221 6.8064
560 1 9.59049 28.3277 6.9161
561 1 9.82022 28.2343 9.70938
562 1 6.89251 28.1906 9.71069
563 1 6.92272 30.9238 7.02181
564 1 9.74097 31.1432 6.85917
565 1 9.72175 31.0304 9.57322
566 1 6.83575 31.0796 9.90091
567 1 12.5285 31.0892 6.89001
568 1 12.5396 28.186 9.77219
90 1 12.6401 25.4076 1.29376
570 1 12.584 31.0863 9.72979
571 1 1.19936 34.088 6.97335
572 1 4.16697 33.8301 7.01284
573 1 4.09363 34.0856 9.67787
574 1 1.20157 33.9709 9.78006
575 1 1.06558 36.8144 7.09198
576 1 3.96807 36.8561 7.07937
577 1 4.04166 36.6905 9.76702
578 1 1.18371 36.7512 9.73743
579 1 6.97502 33.6892 7.13871
580 1 9.95379 33.7477 6.96053
581 1 9.79237 33.8124 9.71042
582 1 7.16307 34.0283 9.63247
583 1 6.95156 36.7235 7.03247
584 1 9.74467 36.7166 7.06685
585 1 9.87053 36.7523 9.67801
586 1 6.97888 36.7492 9.87723
587 1 12.6248 33.7904 6.95262
588 1 12.4919 33.8077 9.80201
589 1 12.5173 36.6462 7.00691
590 1 12.5853 36.7903 9.73039
591 1 1.1301 39.7501 6.92582
592 1 4.04412 39.6767 6.99011
593 1 4.12591 39.5804 9.75564
594 1 1.30748 39.5618 9.82592
595 1 1.29691 42.5708 7.05468
596 1 4.11029 42.3505 6.86306
597 1 4.05603 42.335 9.76753
598 1 1.478 42.4892 9.75057
599 1 7.0125 39.626 6.91796
600 1 9.93089 39.6571 7.05268
601 1 9.79843 39.5629 9.76142
602 1 7.0172 39.4707 9.70345
603 1 6.92277 42.3522 6.93033
604 1 9.77552 42.4735 6.99735
605 1 9.73769 42.3391 9.74406
606 1 6.87935 42.4613 9.7196
607 1 12.7257 39.5556 6.91714
608 1 12.6015 39.6028 9.76593
609 1 12.5333 42.5517 6.87613
610 1 12.5569 42.4511 9.76499
611 1 1.46879 45.3499 6.92752
612 1 4.18938 45.2876 6.96014
613 1 4.3467 45.2509 9.78239
614 1 1.33991 45.2134 9.71191
615 1 1.24624 48.0393 6.92542
616 1 4.20324 47.9976 6.97479
617 1 4.09484 48.0336 9.72734
618 1 1.32132 47.8967 9.78568
619 1 6.97054 45.2069 6.90551
620 1 9.75854 45.1514 7.04882
621 1 9.77522 45.072 9.74931
622 1 6.95535 45.1861 9.68229
623 1 7.00296 47.9697 6.93374
624 1 9.78734 47.9018 6.90999
625 1 9.67758 47.8514 9.86067
626 1 6.93409 47.9637 9.79507
627 1 12.5257 45.3079 6.8517
628 1 12.5486 45.2397 9.77465
629 1 12.4885 47.9756 7.03322
630 1 12.3684 47.9117 9.84135
631 1 1.42384 25.4198 12.5179
632 1 4.23491 25.3691 12.4824
633 1 7.09991 25.4894 12.6798
634 1 9.73265 25.3867 12.5541
635 1 12.4524 25.5267 12.6554
636 1 1.27789 28.3284 12.5501
637 1 4.24146 28.0909 12.6834
638 1 1.17534 31.0509 12.6112
639 1 4.02558 31.1278 12.7178
640 1 6.9963 28.2729 12.5292
641 1 9.7379 28.1437 12.4322
642 1 6.84013 31.0448 12.544
643 1 9.70125 30.9911 12.5566
644 1 12.4179 28.2672 12.6537
645 1 12.5727 31.0911 12.5909
646 1 1.24696 33.9661 12.6509
647 1 4.01875 33.8009 12.5156
648 1 1.252 36.7786 12.5292
649 1 4.0267 36.6064 12.686
650 1 7.03415 33.895 12.4603
651 1 9.88278 33.9162 12.584
652 1 6.76353 36.8469 12.6743
653 1 9.86232 36.8153 12.5179
654 1 12.5279 33.9783 12.4033
655 1 12.5762 36.9093 12.5074
656 1 1.43151 39.546 12.5526
657 1 4.13272 39.6031 12.5537
658 1 1.3443 42.3195 12.5801
659 1 4.1445 42.2947 12.6464
660 1 6.89446 39.5998 12.4544
661 1 9.66305 39.3755 12.5296
662 1 6.92699 42.4439 12.4769
663 1 9.79594 42.2616 12.4175
664 1 12.507 39.6998 12.5709
665 1 12.605 42.4927 12.4033
666 1 1.44471 45.105 12.5567
667 1 4.12696 45.1627 12.5797
668 1 1.29086 47.9235 12.5237
669 1 4.12569 47.946 12.5243
670 1 6.94491 45.2542 12.4104
671 1 9.68945 45.2069 12.5206
672 1 6.76342 48.1668 12.5303
673 1 9.53333 47.79 12.683
674 1 12.3115 45.3094 12.3893
675 1 12.58 48.0377 12.7151
12363 2 11.2306 49.355 11.3815
89 1 12.7099 28.1053 1.23186
12253 2 2.70383 26.8269 2.82462
12362 2 5.50791 49.4601 11.1656
15317 2 14.0989 38.2813 8.36438
180 1 12.6417 25.521 6.86686
12257 2 8.30032 26.6573 2.72309
12258 2 5.46029 29.6131 2.77565
910 1 9.65322 50.6334 1.13292
12260 2 11.1784 29.5897 2.674
12360 2 11.0491 43.8597 11.1239
12289 2 11.104 43.6904 -0.14766
12263 2 2.56686 32.337 2.8021
12359 2 8.26605 46.5475 11.1018
15351 2 13.988 41.0926 11.2824
12368 2 11.1298 29.6982 14.0836
12267 2 8.36071 31.9729 2.67076
12268 2 4.92503 35.1325 2.85904
12345 2 11.1425 26.9364 11.1686
12270 2 11.3072 35.367 2.72935
12358 2 5.54874 43.7791 11.1498
12344 2 8.28186 29.6057 11.1834
12273 2 2.70819 38.1958 2.70553
12357 2 2.83745 46.5064 11.1717
12343 2 5.66674 26.7491 11.1897
179 1 12.8178 25.5799 4.01237
12277 2 8.39486 38.5444 2.80381
12278 2 5.43275 40.9953 2.82416
12319 2 -0.250297 41.0866 8.32866
12280 2 11.0771 41.0775 2.78102
12355 2 11.2992 38.1361 11.1347
12296 2 -0.0925471 26.9001 5.68464
12283 2 2.72018 43.7785 2.81965
12354 2 8.34993 40.9742 11.1514
851 1 6.6679 36.0293 1.41486
12342 2 2.64807 29.7162 11.2709
12287 2 8.32295 43.8344 2.74109
12288 2 5.50026 46.5109 2.68082
12340 2 11.0683 49.4231 5.55591
12290 2 11.112 46.5677 2.78044
12353 2 5.45881 38.1682 11.2024
12292 2 2.74467 49.4293 2.80729
12341 2 0.0105079 26.7906 11.1253
12294 2 8.26898 49.4124 2.63008
15363 2 13.907 26.8787 14.1483
12339 2 8.48023 49.4113 8.47087
12297 2 2.75898 29.4667 5.53861
12298 2 2.82444 26.9735 8.46082
12338 2 5.56504 49.4349 5.53687
12300 2 5.48853 26.8559 5.6585
12301 2 8.31252 29.5396 5.5168
12302 2 8.26133 26.8548 8.46796
12303 2 5.67189 29.6675 8.42316
12304 2 11.1554 26.7089 5.40103
12305 2 11.2354 29.654 8.26901
12352 2 2.74801 41.0412 11.1716
12307 2 2.60215 35.3398 5.61831
12308 2 2.66449 32.5842 8.34116
569 1 12.4093 31.28 3.96655
12310 2 5.50224 32.3384 5.66508
12311 2 8.40275 35.2711 6.06156
12312 2 8.40983 32.4897 8.35187
12313 2 5.4685 35.5046 8.33752
12314 2 11.1962 32.4713 5.42996
12315 2 11.3116 35.2834 8.50938
12266 2 7.89922 35.1335 2.98405
12317 2 2.57777 40.9643 5.48642
12318 2 2.555 38.2627 8.38692
12350 2 11.2055 32.4409 11.1617
12320 2 5.52735 38.3039 5.63393
12321 2 8.22735 41.0905 5.61553
12322 2 8.48073 38.2148 8.52769
12323 2 5.49277 40.961 8.38167
12324 2 11.1729 38.1597 5.63962
12325 2 11.2245 41.1032 8.41324