ITEM: TIMESTEP
450000
ITEM: NUMBER OF ATOMS
18000
ITEM: BOX BOUNDS xy xz yz pp pp pp
-1.0098477278575152e-01 2.7994984772784921e+01 0.0000000000000000e+00
-1.1220440377341077e+00 3.3585004403776139e+02 0.0000000000000000e+00
-1.0307362720052235e-01 2.7997073627199732e+01 0.0000000000000000e+00
ITEM: ATOMS id type x y z
1 1 1.17493 0.218668 1.21661
2 1 4.0404 0.174937 1.3263
3 1 4.22666 0.315686 4.19872
4 1 1.38068 0.327361 3.94974
5 1 1.34989 2.97568 1.19127
6 1 4.12982 2.8933 1.17241
7 1 4.22371 2.98538 4.04451
8 1 1.29087 3.0186 3.99291
9 1 6.96007 2.95958 1.15306
10 1 9.79014 0.189557 1.19833
11 1 9.87948 0.115297 3.94416
12 1 6.98004 2.89476 4.00369
13 1 6.96358 6.06001 1.34342
14 1 9.85087 2.86769 1.25898
15 1 9.71202 3.021 3.82772
16 1 6.82518 5.57528 4.04186
17 1 12.7296 0.149299 1.227
18 1 12.6405 0.322096 3.94128
19 1 12.6062 2.87576 1.2665
20 1 12.5367 2.97735 4.23993
21 1 1.21073 5.83846 1.19001
22 1 4.1832 5.74985 1.4971
23 1 3.97561 5.77491 4.0558
24 1 1.21239 5.86378 4.08077
25 1 1.30663 8.67678 1.16417
26 1 4.1049 8.60845 1.19188
27 1 3.7796 11.3569 4.05707
28 1 1.22211 8.53085 4.02157
12144 2 5.47834 18.3891 14.0022
30 1 9.7648 5.78983 1.36365
31 1 9.88987 5.74667 4.26483
32 1 6.45846 8.00399 5.89051
33 1 6.43428 9.82119 3.66057
34 1 9.88458 8.6591 1.25684
35 1 8.3687 8.01481 3.66462
36 1 6.28411 11.9272 5.31691
37 1 12.4259 5.73739 1.21888
38 1 12.6745 5.85521 4.11856
39 1 12.6182 8.42215 1.2273
40 1 12.489 8.54604 4.13011
41 1 1.30404 11.3959 1.28456
42 1 4.07781 11.329 1.29378
43 1 6.74567 14.4807 3.9088
44 1 1.23401 11.2877 4.01729
45 1 1.17212 14.1771 1.27796
46 1 4.09728 14.0711 1.34653
47 1 4.01665 14.0719 4.16783
48 1 1.18562 14.2697 4.14171
49 1 3.8646 8.4946 4.04147
50 1 9.87349 11.3418 1.05907
51 1 10.0217 10.0488 4.36937
52 1 8.53092 11.8635 3.63967
53 1 6.80914 17.0851 3.97634
54 1 9.73751 14.1288 1.11521
55 1 12.5987 14.2118 3.91688
56 1 9.70214 14.4379 3.96166
57 1 12.6994 11.3463 1.09291
58 1 12.665 11.4526 3.79812
59 1 12.6097 14.3156 1.08277
12141 2 2.56805 15.6376 14.0068
61 1 1.23162 16.9631 1.31511
62 1 4.04328 16.8371 1.30322
63 1 3.97998 16.9439 4.1906
64 1 1.21656 17.1126 4.15585
65 1 1.20992 19.8881 1.31637
66 1 3.95331 19.6885 1.29953
67 1 4.02819 19.8107 4.13975
68 1 1.29181 19.8329 4.17883
69 1 6.78928 17.0143 1.02452
70 1 9.64508 17.0421 1.17341
71 1 12.527 17.1309 4.0356
72 1 9.65323 17.2237 3.94596
73 1 6.85145 19.809 1.27717
74 1 9.68497 19.8163 1.25569
75 1 9.77315 20.1173 3.97446
76 1 6.8909 19.9204 3.95774
77 1 12.4113 17.158 1.04582
12019 2 11.1812 4.35784 -0.15572
79 1 12.4192 19.8339 1.27176
15061 2 13.9498 7.30756 5.59773
81 1 1.26117 22.6336 1.21713
82 1 3.98296 22.568 1.25978
83 1 3.94348 22.4615 4.10943
84 1 1.27092 22.6412 4.17232
85 1 6.80321 22.5951 1.16893
86 1 9.63983 22.6195 1.25694
87 1 9.74421 22.8164 4.02614
88 1 6.75151 22.785 3.90964
12150 2 11.1602 24.0252 13.9176
12143 2 8.25916 15.7705 13.9767
91 1 1.2687 0.163165 6.81565
92 1 4.17476 0.166765 7.14805
93 1 4.09926 2.54695 9.62751
94 1 1.56681 0.190248 9.63464
95 1 1.34431 2.92123 6.76523
96 1 4.2787 3.07863 6.87801
97 1 6.84827 5.85449 9.75104
98 1 1.26445 2.88879 9.66827
99 1 7.05697 2.90319 6.74316
100 1 9.81307 0.15267 6.76957
101 1 9.62071 0.190113 9.73291
102 1 6.91061 3.07184 9.69865
103 1 6.75469 5.55321 6.99255
104 1 9.74302 2.93885 6.77599
105 1 9.56079 2.85696 9.80698
106 1 6.8435 5.66891 12.6468
107 1 12.5032 0.234565 6.81836
108 1 12.4707 0.185848 9.65004
109 1 12.6105 3.10443 6.96468
110 1 12.4389 2.88596 9.84293
111 1 1.16341 5.71204 6.92807
112 1 3.98469 5.83191 6.87849
113 1 4.11187 8.7056 9.66023
114 1 1.21139 5.72775 9.73343
115 1 1.07802 8.54417 7.01643
116 1 3.71987 8.48961 6.91634
117 1 6.31786 9.97504 7.43553
118 1 1.29578 8.68525 9.69521
119 1 9.12296 8.5218 6.80667
120 1 9.76533 5.61941 7.08616
121 1 9.57591 5.65932 9.65783
122 1 6.9601 8.57333 9.74621
123 1 8.73008 11.6768 6.92049
124 1 12.565 8.37975 7.12329
125 1 11.0816 10.6331 7.70217
126 2 8.56463 10.0769 8.54946
127 1 12.5888 5.81188 6.92047
128 1 12.4776 5.67527 9.70462
12126 2 2.67595 -1.32309 13.794
130 1 12.5325 11.5081 9.81296
131 1 1.13859 11.4598 6.95396
132 1 3.86108 11.4258 6.96966
133 1 3.91597 11.4942 9.8254
134 1 1.13082 11.4899 9.82921
135 1 1.3028 14.3106 6.85091
136 1 3.90735 14.2591 6.92711
137 1 4.06418 14.3113 9.70171
138 1 1.21207 14.3227 9.70332
139 1 9.7073 14.6193 6.97668
140 1 10.9884 12.5614 5.71755
141 1 9.86916 11.4897 10.0322
142 1 6.98924 11.4818 9.86109
143 1 6.87807 14.2409 6.9624
144 1 9.53946 17.1488 6.69685
145 1 9.60969 14.2274 9.63365
146 1 6.8792 14.1499 9.68641
147 1 12.6926 14.0992 6.98891
148 1 12.4835 14.3711 9.66687
149 1 12.171 17.0437 7.05087
150 1 12.271 17.134 9.65267
151 1 1.13949 17.0495 6.97497
152 1 3.9172 16.9694 6.95556
153 1 4.03739 17.2754 9.81062
154 1 1.23591 17.1569 9.72253
155 1 1.46772 19.8566 7.18217
156 1 4.10906 19.883 6.91119
157 1 4.13063 20.0098 9.74551
158 1 1.29698 19.8042 9.84016
159 1 6.90269 17.1691 6.84846
160 1 12.4911 22.6876 4.30193
161 1 9.57987 17.106 9.58868
162 1 6.7656 16.9737 9.75114
163 1 6.82767 19.8276 6.88421
164 1 9.5642 19.8789 6.84995
165 1 9.40609 19.9681 9.65738
166 1 6.78069 19.8523 9.64703
241 1 9.57738 8.59429 12.621
168 1 12.3722 19.8961 9.72743
169 1 12.5248 22.8717 6.97625
170 1 12.4431 22.7283 9.76996
171 1 1.36233 22.6852 6.85846
172 1 4.18806 22.6639 6.86124
173 1 4.06685 22.7764 9.75714
174 1 1.33516 22.7932 9.76548
175 1 7.0159 22.4605 6.78149
176 1 9.75537 22.6482 6.78221
177 1 9.61384 22.8016 9.74257
178 1 6.76901 22.6943 9.60654
15106 2 13.9939 7.26491 11.2528
15072 2 13.7054 10.032 8.47647
181 1 1.26082 0.325974 12.3666
182 1 4.03242 0.0278753 12.0365
183 1 1.24646 2.93568 12.5398
184 1 4.14137 3.02109 12.4765
185 1 6.823 0.324067 12.5116
186 1 9.63996 0.263397 12.6281
187 1 6.92887 3.11411 12.4902
188 1 9.6343 3.1322 12.5281
189 1 12.442 0.12114 12.3859
190 1 12.4702 3.0197 12.5561
191 1 1.2026 5.85149 12.4448
192 1 4.17055 5.64206 9.5985
193 1 1.12949 8.62007 12.4674
194 1 4.145 8.64365 12.4847
195 1 3.99674 5.76352 12.415
196 1 9.69928 5.87267 12.4677
197 1 9.77838 8.64303 9.69197
198 1 12.3828 8.55117 9.77297
199 1 12.6306 5.79778 12.556
200 1 12.4101 8.56752 12.6427
201 1 1.30053 11.4252 12.5635
202 1 4.07324 11.5228 12.5888
203 1 1.12107 14.2729 12.5546
204 1 4.066 14.2988 12.4919
205 1 6.77252 11.3321 12.6266
206 1 9.60394 11.4557 12.754
207 1 6.82334 14.3553 12.7793
208 1 9.65455 14.2564 12.5742
209 1 12.447 11.4035 12.6341
210 1 12.4235 14.26 12.4313
211 1 1.40697 17.0894 12.6017
212 1 4.05631 17.0219 12.6314
213 1 1.28631 19.8841 12.6122
214 1 4.04864 19.9036 12.612
215 1 6.96927 17.0553 12.5517
216 1 9.63382 17.0868 12.5138
217 1 6.88396 19.7767 12.5361
218 1 9.72007 19.934 12.4685
219 1 12.4029 17.1345 12.4032
220 1 12.4687 19.7727 12.627
221 1 1.29016 22.5886 12.6662
222 1 4.08839 22.6755 12.5594
223 1 6.75638 22.7484 12.5348
224 1 9.63915 22.6086 12.3415
225 1 12.5011 22.5959 12.5076
12125 2 11.0689 21.1887 11.1593
12110 2 11.0393 4.38941 11.2
129 1 13.5701 10.9251 6.4502
12124 2 8.2255 24.0749 11.135
80 1 12.543 22.8851 1.3683
12109 2 8.27442 7.11797 11.1426
15051 2 13.9714 1.62271 5.57115
12008 2 5.6303 1.66674 2.62783
243 1 6.95171 8.4915 12.4127
12010 2 11.2162 1.53654 2.56023
12123 2 5.44573 21.2708 11.1695
12108 2 5.57377 4.54605 11.0334
12013 2 2.66354 4.38723 2.63696
12122 2 2.63673 24.0495 11.1507
12107 2 2.66882 7.29547 11.1319
12112 2 2.69167 12.9631 11.1091
12017 2 8.37703 4.24249 2.52468
12018 2 5.4621 7.16259 2.75652
12104 2 8.18329 1.63173 11.2562
12020 2 11.0197 7.29304 2.7352
60 1 12.5516 19.7735 4.0393
15012 2 13.9132 4.43085 2.73266
12023 2 2.74938 9.92444 2.56561
12120 2 10.9266 15.7197 10.9044
12102 2 2.62994 1.73058 11.1084
12113 2 5.49899 10.0076 11.1701
12027 2 8.41875 10.0653 2.37685
12028 2 5.51037 12.6359 2.63849
12100 2 11.1903 24.0234 8.34529
12030 2 11.0198 12.7513 2.64776
12099 2 11.0286 21.3294 5.53791
12098 2 5.56605 24.0942 8.37765
12033 2 2.53989 15.5478 2.73155
412 1 6.84318 14.1796 1.1594
12097 2 8.21664 21.3654 8.32016
12096 2 8.31283 23.9465 5.50873
12037 2 8.20659 15.6847 2.46384
12038 2 5.58535 18.3879 2.55262
12095 2 5.42522 21.1335 5.45884
12040 2 11.1253 18.4757 2.59369
29 1 6.82331 8.75825 1.19298
12093 2 2.66446 21.3394 8.44198
12043 2 2.65614 21.0861 2.65788
5723 1 7.1045 0.26344 6.76982
12092 2 2.80397 24.0097 5.55932
5634 1 7.06998 0.102048 1.15042
12047 2 8.30219 21.2365 2.5893
12048 2 5.39501 24.1102 2.67058
12090 2 10.9238 18.5382 8.28628
12050 2 11.113 24.0055 2.83517
12119 2 8.17532 18.4629 11.1053
12052 2 2.75943 1.54222 5.41203
15111 2 13.8116 12.8636 11.0758
12118 2 5.40624 15.6942 11.1886
5633 1 6.93508 0.20652 3.974
12056 2 8.47305 1.48517 5.28079
5726 1 6.52632 0.36623 9.69163
12058 2 5.6554 1.69571 8.14962
12129 2 5.43292 1.62216 13.8722
12060 2 11.1814 1.59779 8.34444
12117 2 2.67149 18.4005 11.1612
12062 2 2.5603 7.0526 5.43922
12063 2 2.67804 4.36047 8.31879
12089 2 11.205 15.6033 5.55936
12065 2 5.31976 4.4828 5.42877
12066 2 8.21213 6.63706 5.58467
12067 2 8.23313 4.3255 8.34843
12068 2 5.53109 7.37642 8.3052
12069 2 11.2355 4.30274 5.62489
12070 2 11.0738 7.11011 8.37275
12115 2 11.1705 9.99542 11.2669
12072 2 2.45308 12.7395 5.44315
12073 2 2.52867 10.0647 8.44076
12114 2 8.17754 12.9415 11.3109
12075 2 4.94525 9.93003 5.48162
12076 2 8.37662 13.28 5.47241
12077 2 8.02901 10.0667 5.44556
12078 2 5.54974 12.7069 8.17923
12079 2 11.7165 10.1628 5.5899
12080 2 11.0849 12.7937 8.17668
395 1 6.90611 11.5328 0.944985
12082 2 2.66865 18.4907 5.59435
12083 2 2.68777 15.6485 8.34591
15081 2 13.5623 18.3081 5.49693
12085 2 5.32394 15.5931 5.45317
12086 2 8.29017 18.4472 5.39506
12087 2 8.24984 15.7023 8.28319
12088 2 5.44534 18.5476 8.21221
167 1 12.2218 19.8781 6.9124
12135 2 11.0803 7.2273 14.0593
12145 2 11.1001 18.4636 13.9374
15121 2 13.9861 23.9475 11.2042
15032 2 13.7749 15.5757 2.55151
12134 2 5.57564 7.23473 13.974
15116 2 13.6759 18.4234 11.0166
15071 2 13.7932 12.9288 5.23993
15091 2 13.8793 24.252 5.61237
12116 2 -0.217509 15.6607 11.062
15011 2 14.0051 7.12731 -0.247748
15022 2 13.9437 9.91815 2.6597
12106 2 -0.196933 4.44805 11.1477
15136 2 13.9014 10.0804 13.912
15062 2 13.9947 4.47322 8.38688
12140 2 11.0035 12.9616 13.8858
12036 2 8.25478 18.3745 -0.211476
12147 2 -0.148041 23.9497 13.9124
12149 2 5.35465 24.1103 13.9333
12035 2 5.4069 15.4849 -0.21692
15131 2 13.9613 4.4322 14.0543
12131 2 2.60599 4.46703 13.895
12133 2 8.24595 4.4898 14.0207
12016 2 8.29768 7.24738 -0.19773
15146 2 13.8565 21.204 13.9216
12006 2 8.35379 1.45741 -0.31103
12002 2 2.57539 1.64633 -0.294097
226 1 4.10779 0.195426 15.1147
227 1 1.26937 0.140989 15.2027
228 1 3.9454 3.00989 15.2242
229 1 1.22032 2.93697 15.2717
230 1 9.83289 0.212199 15.2881
231 1 6.86208 0.284364 15.2021
232 1 9.76743 3.22987 15.3629
233 1 6.94455 3.06555 15.3486
234 1 12.5142 0.363155 15.3449
235 1 12.5496 3.11112 15.3641
236 1 4.04496 5.90592 15.3481
237 1 1.18515 5.98192 15.3447
238 1 4.16155 8.5809 15.253
239 1 1.17342 8.66292 15.2998
240 1 9.54844 5.98635 15.4198
15041 2 13.9731 24.1535 27.9112
242 1 9.69072 8.75902 15.4758
5993 1 6.85506 0.237099 23.7269
244 1 12.4453 5.88977 15.3901
245 1 12.5101 8.52258 15.4848
246 1 3.93452 11.1953 15.3912
247 1 1.11324 11.3841 15.2558
248 1 3.9543 14.1233 15.2947
249 1 1.21799 14.2354 15.2495
250 1 9.46931 11.5571 15.4897
251 1 6.62168 11.0778 15.2709
252 1 9.6155 14.2811 15.324
253 1 6.8403 14.1516 15.3576
254 1 12.4426 11.343 15.3406
255 1 12.4928 14.1736 15.1876
256 1 3.93399 16.8553 15.4708
257 1 1.15432 17.1428 15.3294
258 1 4.06213 19.8561 15.3624
259 1 1.30512 19.8566 15.4649
260 1 9.73423 17.1431 15.3047
261 1 6.73335 16.9833 15.3866
262 1 9.6697 20.0139 15.3
263 1 6.85541 19.894 15.3401
264 1 12.6026 16.9135 15.3822
265 1 12.3476 19.8308 15.5236
266 1 4.04503 22.6612 15.3742
267 1 1.2322 22.6281 15.3364
268 1 9.69268 22.5826 15.2688
269 1 6.9007 22.774 15.1815
270 1 12.417 22.6685 15.3181
271 1 1.21128 0.0727215 18.1766
272 1 4.15793 0.274748 17.9703
273 1 3.94074 0.253779 20.8325
274 1 1.27204 0.326293 20.8544
275 1 1.26633 3.08551 18.0398
276 1 4.11379 3.13672 18.066
277 1 4.17883 3.10643 20.9171
278 1 1.16636 3.18575 20.8815
279 1 6.9161 2.9711 17.8926
280 1 9.7016 0.0328489 18.1049
281 1 9.65999 0.170676 20.8602
282 1 6.85058 3.03954 20.7849
283 1 6.77848 5.88387 18.1215
284 1 9.65898 2.93325 18.1096
285 1 9.75778 2.82489 21.0777
286 1 6.93571 5.71247 23.7582
287 1 12.6008 0.422589 18.1908
288 1 12.4053 -0.00238883 21.0301
289 1 12.2737 3.09955 18.0804
290 1 12.3924 3.0193 20.9014
291 1 1.19605 5.87193 18.1216
292 1 3.94173 5.79888 17.9293
293 1 3.98019 5.87414 20.8978
294 1 1.16466 5.8285 20.9974
295 1 1.22517 8.81144 18.1266
296 1 4.00076 8.53333 18.1357
297 1 4.17003 8.70866 20.8691
298 1 1.24544 8.68463 20.8682
299 1 6.93064 5.81713 15.3464
300 1 9.59114 5.92102 18.2213
301 1 9.66817 5.74093 20.9174
302 1 6.81475 5.72134 21.0163
303 1 6.9968 8.45508 15.4203
304 1 9.62955 8.60763 18.2094
305 1 9.77929 8.6317 20.9247
306 1 6.7907 8.739 18.2293
307 1 12.4711 5.89067 18.1194
308 1 12.4831 5.70888 20.9307
309 1 12.6045 8.72468 18.1762
310 1 12.7106 8.4824 20.9069
311 1 1.22405 11.3723 18.2472
312 1 4.14415 11.2965 18.0763
313 1 3.89329 11.3385 20.8761
314 1 1.13732 11.5339 21.0135
315 1 1.03661 14.2009 18.1488
316 1 3.76254 14.1869 17.9395
317 1 4.1734 14.1661 20.8224
318 1 1.23182 14.1524 20.912
319 1 6.90683 11.4947 18.0732
320 1 9.62958 11.5216 18.228
321 1 9.6263 11.358 20.8309
322 1 6.68771 11.4109 20.9091
323 1 6.72785 14.2511 18.0736
324 1 9.65736 14.35 18.2202
325 1 9.61349 14.2682 20.9422
326 1 6.85083 14.2692 20.7967
327 1 12.4765 11.5264 18.0422
328 1 12.3487 11.3627 20.8852
329 1 12.5889 14.3007 18.0357
330 1 12.4245 14.1321 20.7412
331 1 1.19575 17.0346 18.1777
332 1 3.91143 16.994 18.3251
333 1 3.99353 16.8934 20.9942
334 1 1.27632 17.1026 20.8498
335 1 1.31113 19.6774 18.3151
336 1 3.99224 19.9734 18.2418
337 1 3.95086 19.7918 21.0084
338 1 1.32156 20.0033 21.0474
339 1 6.72381 16.9893 18.1838
340 1 9.66429 17.1999 18.0386
341 1 9.68125 17.1808 20.9474
342 1 6.8804 17.0129 21.0788
343 1 6.7626 19.6927 18.1364
344 1 9.62022 19.9573 18.035
345 1 9.54757 19.8206 20.8702
346 1 6.62093 19.8014 21.0143
347 1 12.397 17.0031 18.1848
348 1 12.5056 17.0713 20.7801
349 1 12.5454 19.8821 18.2614
350 1 12.4526 19.8759 20.9605
351 1 1.34759 22.6333 18.0407
352 1 4.10287 22.6133 18.3223
353 1 4.13415 22.7849 21.0302
354 1 1.27763 22.6793 20.9824
355 1 6.71662 22.6718 18.1568
356 1 9.45561 22.6304 18.1878
357 1 9.71967 22.5602 20.8739
358 1 6.91951 22.589 20.8447
359 1 12.4205 22.6153 17.9991
360 1 12.3433 22.6729 20.8945
361 1 1.32073 0.196775 23.6249
362 1 4.10044 0.130562 23.6543
363 1 4.07964 0.140007 26.5267
364 1 1.292 0.164931 26.535
365 1 1.37092 3.00253 23.7127
366 1 4.08108 3.09278 23.7626
367 1 3.96121 2.94744 26.5262
368 1 1.1335 3.05546 26.4822
369 1 6.80505 2.92029 23.6306
370 1 9.62199 0.193127 23.7226
371 1 9.75663 0.165499 26.459
372 1 6.7685 2.98909 26.4437
373 1 6.96482 5.82647 26.5107
374 1 9.58763 2.93485 23.7857
375 1 9.67852 3.05863 26.6371
376 1 9.58884 5.74943 26.5547
377 1 12.4881 0.0873013 23.77
378 1 12.4533 0.162096 26.4294
379 1 12.3865 2.9231 23.7515
380 1 12.5464 3.00489 26.4917
381 1 1.26555 5.78968 23.7547
382 1 4.05643 5.87055 23.5889
383 1 4.1099 5.80595 26.6012
384 1 1.19755 5.7691 26.613
385 1 1.19102 8.51801 23.7244
386 1 4.13318 8.58056 23.7
387 1 4.07032 8.51634 26.4791
388 1 1.28215 8.61391 26.5642
389 1 6.90869 8.50537 23.7134
390 1 9.84382 5.78135 23.7072
391 1 9.76146 8.61006 26.4555
392 1 6.89556 8.62142 26.5115
393 1 7.0083 8.45601 20.8607
394 1 9.73341 8.58155 23.6228
15242 2 13.7867 21.3897 25.0401
396 1 6.89082 11.3046 26.4212
397 1 12.5478 5.56689 23.7704
398 1 12.4518 5.86518 26.5528
399 1 12.5494 8.4036 23.8085
400 1 12.6844 8.60458 26.4941
401 1 1.17922 11.2862 23.7188
402 1 4.16764 11.2697 23.7686
403 1 3.95479 11.4058 26.5819
404 1 1.1944 11.6322 26.5896
405 1 1.34678 14.1694 23.7234
406 1 4.09341 14.2114 23.6959
407 1 4.11256 13.9743 26.5943
408 1 1.21639 14.3648 26.4541
409 1 6.72538 11.5371 23.6468
410 1 9.65847 11.4712 23.5328
411 1 9.7072 11.3885 26.3516
15172 2 13.912 9.99695 19.6036
413 1 6.86752 14.2498 23.6979
414 1 9.68578 14.3293 23.5982
415 1 9.84265 14.2213 26.4153
416 1 7.08681 14.0774 26.3908
417 1 12.7076 11.3311 23.7258
418 1 12.4968 11.3192 26.4662
419 1 12.4294 14.2403 23.6108
420 1 12.517 14.2543 26.3981
421 1 1.1559 17.0154 23.7771
422 1 4.07429 17.0092 23.7343
423 1 3.92206 16.7613 26.4968
424 1 0.971027 17.0804 26.766
425 1 1.14979 19.9412 23.7705
426 1 3.90276 19.7477 23.8409
427 1 3.97956 19.7314 26.6645
428 1 1.26938 19.8278 26.5918
429 1 6.95537 17.1146 23.8191
430 1 9.80875 17.0966 23.7492
431 1 9.77492 17.1062 26.5114
432 1 6.78342 16.8883 26.4596
433 1 6.7326 19.9142 23.7423
434 1 9.48865 19.9285 23.6283
435 1 9.53342 20.0182 26.5657
436 1 6.80563 19.7563 26.67
437 1 12.6551 16.9784 23.4999
438 1 12.4965 17.0803 26.3501
439 1 12.2238 20.0419 23.7515
440 1 12.5475 19.954 26.5979
441 1 1.2544 22.7778 23.6663
442 1 4.10473 22.5632 23.8207
443 1 4.00132 22.6615 26.6001
444 1 1.25993 22.6702 26.4057
445 1 6.87343 22.6646 23.6195
446 1 9.62921 22.7371 23.7645
447 1 9.76437 22.7572 26.4623
448 1 6.79929 22.6531 26.4944
449 1 12.4075 22.8637 23.7931
450 1 12.5642 22.6125 26.6084
15192 2 13.8729 21.2895 19.5157
12250 2 11.0821 24.2116 25.2406
12231 2 -0.129176 15.666 22.3479
12042 2 2.64673 23.9516 27.9144
5906 1 6.79172 0.239693 20.8423
15151 2 13.9032 1.61925 16.8137
12249 2 10.9216 21.2906 22.3176
15201 2 13.8298 1.50723 22.3516
15181 2 13.8267 18.4114 16.7584
15182 2 13.9357 15.6055 19.5023
15231 2 13.8203 18.4532 22.2871
12248 2 5.41794 24.0285 25.2153
15212 2 13.8362 4.46551 25.2011
12029 2 11.1978 9.91044 27.7938
12049 2 11.0842 21.1713 27.9429
15241 2 13.9131 23.9192 22.2497
12012 2 2.63756 7.21102 27.9275
15222 2 14.0945 10.0279 25.1641
12220 2 11.0279 7.0651 25.1618
12032 2 2.46987 18.3543 28.1154
12232 2 2.66205 18.4706 22.411
12216 2 8.39065 7.12757 22.239
5903 1 6.87206 0.249376 18.1046
12219 2 11.1252 4.39262 22.265
12218 2 5.55596 7.27617 25.0744
12247 2 8.20114 21.4464 25.1313
12152 2 2.65442 1.74683 16.6442
12227 2 8.28036 9.96728 25.0862
12246 2 8.22725 24.0141 22.3199
12230 2 11.1733 12.8001 25.0626
12156 2 8.37425 1.62348 16.5995
12229 2 11.0905 9.94136 22.2856
12158 2 5.38121 1.59903 19.4676
12217 2 8.23964 4.36073 25.0932
12160 2 11.0716 1.50725 19.4449
12245 2 5.34081 21.2339 22.348
12162 2 2.62729 7.23916 16.6129
12163 2 2.67553 4.39205 19.5325
12228 2 5.53091 12.7071 25.1752
12165 2 5.48831 4.53416 16.7261
12166 2 8.25012 7.22778 16.7861
12167 2 8.22959 4.40846 19.4829
12168 2 5.465 7.24717 19.5856
12169 2 11.0892 4.45323 16.8372
12170 2 11.1875 7.31259 19.5731
12243 2 2.58723 21.1251 25.0793
12172 2 2.4487 12.7072 16.6552
12173 2 2.70536 9.95845 19.4254
12242 2 2.7473 24.1581 22.4088
12175 2 5.48574 9.84794 16.7255
12176 2 8.34168 12.8562 16.8235
12177 2 8.18072 10.1233 19.4524
12178 2 5.45983 12.8187 19.4488
12179 2 11.0649 10.0658 16.8059
12180 2 10.9349 12.9528 19.4802
12236 2 8.21425 18.4909 22.3263
12182 2 2.66059 18.2945 16.8741
12183 2 2.4866 15.6208 19.5325
12223 2 2.68417 9.88502 25.1133
12185 2 5.21981 15.5419 16.8023
12186 2 8.24412 18.5424 16.7148
12187 2 8.23821 15.6899 19.4818
12188 2 5.49947 18.4026 19.6546
12189 2 11.0351 15.6063 16.7011
12190 2 11.0461 18.5424 19.4436
12226 2 8.27487 12.8796 22.2477
12192 2 2.71583 23.9463 16.7551
12193 2 2.6876 21.2802 19.7466
12225 2 5.47221 10.0054 22.1771
12195 2 5.36142 21.2452 16.8039
12196 2 8.20039 23.9913 16.657
12197 2 8.2979 21.1827 19.4942
12198 2 5.52442 24.2101 19.5734
12199 2 11.0668 21.3302 16.6959
12200 2 10.9693 23.967 19.4077
12240 2 11.047 18.5097 25.1251
12202 2 2.63908 1.68573 22.3095
5996 1 6.85483 0.194307 26.587
12239 2 10.996 15.6826 22.1689
12222 2 2.72225 12.7966 22.3789
12206 2 8.208 1.51184 22.235
12235 2 5.3595 15.5567 22.2915
12208 2 5.51223 1.55868 25.1203
12233 2 2.64413 15.5262 25.1439
12210 2 11.1165 1.53242 25.085
12238 2 5.44121 18.3355 25.2035
12212 2 2.72329 7.19807 22.3328
12213 2 2.6788 4.58013 25.1342
12237 2 8.33617 15.6136 25.1243
12215 2 5.48045 4.38818 22.3614
12039 2 11.1388 15.591 27.7627
15211 2 14.0035 7.161 22.4257
12046 2 8.28481 24.001 28.0357
15232 2 13.8813 15.7759 25.0723
15021 2 13.9843 12.8481 27.8928
12025 2 5.45252 9.95188 27.9202
12139 2 5.37977 12.7491 14.1009
12015 2 5.59384 4.46564 27.8812
12146 2 2.63863 21.1837 13.9485
12148 2 8.27487 21.3163 13.8065
12026 2 8.40671 12.7444 27.764
12136 2 2.64189 10.0316 13.8422
12045 2 5.40696 21.1753 28.0346
12022 2 2.63775 12.7977 28.0512
15141 2 13.9035 15.7164 13.8081
12011 2 -0.310624 4.30021 27.9738
15031 2 13.917 18.5449 27.8838
12138 2 8.17347 10.087 14.0317
12130 2 11.217 1.75627 13.9184
451 1 1.2087 25.3723 1.34235
452 1 4.05705 25.3134 1.2008
453 1 3.97978 25.3238 4.16007
454 1 1.29678 25.4222 4.04679
455 1 6.88315 25.5078 1.25654
456 1 9.67219 25.5218 1.38752
457 1 9.73754 25.5722 4.23338
458 1 6.93079 25.4957 4.21863
459 1 12.3983 31.1648 1.40104
460 1 12.5066 28.2331 4.0813
461 1 1.26238 28.1977 1.14163
462 1 4.16447 28.1989 1.30159
463 1 4.17592 28.304 4.10624
464 1 1.31445 28.3276 4.1365
465 1 1.22043 31.0986 1.34519
466 1 4.10156 31.1173 1.32147
467 1 4.09733 31.1568 4.00974
468 1 1.31383 31.0851 4.07702
469 1 6.7644 28.075 1.18255
470 1 9.66083 28.2838 1.33602
471 1 9.72919 28.3793 4.13449
472 1 6.87253 28.1942 4.02842
473 1 6.8987 30.8637 1.2496
12285 2 5.36245 43.7675 -0.14727
475 1 9.69964 31.1072 4.18006
476 1 6.90547 31.0555 4.27131
477 1 9.70797 31.1009 1.38775
478 1 9.59198 33.969 1.2055
15296 2 13.9517 29.6889 5.39286
1017 1 12.6962 50.6945 6.95661
481 1 1.21775 33.8355 1.09819
482 1 4.41375 34.0554 0.665124
483 1 4.14432 33.9006 4.33556
484 1 1.05179 33.8119 4.16534
12364 2 2.6226 26.7818 13.9515
486 1 2.75475 35.3726 2.47829
487 1 4.08854 36.8331 4.06996
488 1 1.09679 36.7759 4.26779
489 1 6.51637 33.3462 2.33142
847 1 1.05796 36.8908 1.31733
491 1 9.71796 33.8401 3.86589
492 1 7.03413 34.2832 4.47824
493 1 4.25626 36.7161 0.831442
494 1 9.41382 36.6177 1.52525
495 1 9.63755 36.4022 4.19775
496 1 6.88011 36.8065 3.77036
497 1 12.3005 33.9019 1.20268
498 1 12.4898 33.9471 4.09418
499 1 12.4297 36.7608 1.20296
500 1 12.4563 36.7826 4.04207
501 1 1.13905 39.6324 1.37697
502 1 3.86226 39.5179 1.3783
503 1 4.07398 39.6034 4.1699
504 1 1.17801 39.4169 4.15028
505 1 1.08252 42.458 1.20071
506 1 3.92098 42.397 1.32292
507 1 4.01254 42.4403 4.21791
508 1 1.22346 42.363 4.14902
509 1 6.73123 39.5518 1.46348
510 1 9.5975 39.5931 1.28901
511 1 9.73887 39.4929 4.18986
512 1 6.77457 39.6083 4.16195
513 1 6.76371 42.4779 1.26512
514 1 9.60887 42.3194 1.28074
515 1 9.72814 42.4089 4.06357
516 1 6.79501 42.4836 4.18418
517 1 12.3932 39.5818 1.28144
518 1 12.4775 39.4798 4.15339
519 1 12.5336 42.2188 1.36821
520 1 12.5187 42.3279 4.0129
521 1 1.27068 45.1981 1.24716
522 1 3.97641 45.1275 1.28359
523 1 4.2549 45.1425 4.0388
524 1 1.42789 45.2309 4.07005
525 1 1.1728 48.162 1.31815
526 1 3.96573 48.0046 1.4699
527 1 4.24085 48.0849 4.16929
528 1 1.36053 48.0593 4.08326
529 1 6.91954 45.321 1.39288
530 1 9.57407 45.093 1.18795
531 1 9.93628 45.1415 3.9637
532 1 7.04222 45.2191 4.26102
533 1 6.95355 48.1125 1.32963
534 1 9.79443 47.8648 1.33174
535 1 9.7675 48.0749 4.10966
536 1 6.97666 48.0744 4.13111
537 1 12.5851 45.0674 1.31682
538 1 12.6657 45.1048 4.19812
539 1 12.5159 47.8453 1.26444
540 1 12.629 48.0564 4.16571
541 1 1.44725 25.3703 6.93351
542 1 4.24801 25.5229 7.02826
543 1 4.13677 25.6368 9.7612
544 1 1.14576 25.6156 9.5459
545 1 6.96604 25.3936 6.91611
546 1 9.80142 25.4116 7.04026
547 1 9.72502 25.3609 9.84014
548 1 6.98611 25.625 9.74114
549 1 12.6693 28.4082 6.76443
550 1 12.7106 25.4627 9.71761
551 1 1.29706 28.2897 6.91751
552 1 4.03587 28.4809 6.98913
553 1 4.16433 28.3347 9.68265
554 1 1.32772 28.3364 9.6612
555 1 1.43123 31.0431 6.88421
556 1 4.17622 31.2096 6.93549
557 1 4.07311 31.1615 9.70118
558 1 1.29246 31.3475 9.63227
559 1 6.87535 28.1761 6.85713
560 1 9.68549 28.4232 6.9005
561 1 9.75897 28.1884 9.65299
562 1 6.98669 28.3333 9.63549
563 1 7.08715 30.9265 7.00658
564 1 9.7994 31.1763 7.04519
565 1 9.84592 31.0117 9.83571
566 1 6.98318 31.2025 9.67166
567 1 12.5797 31.0673 6.88947
568 1 12.6335 28.3824 9.77144
90 1 12.4036 25.5572 1.3289
570 1 12.5287 31.1204 9.73364
571 1 1.24803 33.9147 6.90568
572 1 4.12604 34.0591 6.98625
573 1 4.17492 34.153 9.82975
574 1 1.28696 34.056 9.79228
575 1 1.37804 36.7305 6.87933
576 1 4.19131 36.8483 6.88894
577 1 4.11185 36.8502 9.68111
578 1 1.15634 36.8683 9.78095
579 1 6.83685 33.8766 7.05863
580 1 9.66808 33.8532 6.91942
581 1 9.64166 33.9998 9.71348
582 1 6.88823 33.9694 9.79633
583 1 6.94366 36.87 6.83439
584 1 9.81135 36.6928 7.13117
585 1 9.72999 36.7461 9.7889
586 1 6.90208 36.8955 9.60598
587 1 12.3077 33.9047 6.91805
588 1 12.5772 33.8764 9.86888
589 1 12.5525 36.863 6.94629
590 1 12.5611 36.6735 9.67907
591 1 1.01606 39.6102 6.89883
592 1 4.08898 39.6151 6.98927
593 1 4.27107 39.6409 9.86395
594 1 1.45332 39.5865 9.85042
595 1 1.30879 42.4019 7.02109
596 1 4.0846 42.4387 6.95182
597 1 4.03334 42.3743 9.83108
598 1 1.1214 42.2752 9.8811
599 1 6.83496 39.6606 7.01567
600 1 9.65938 39.4982 6.95516
601 1 9.68852 39.5702 9.72752
602 1 6.93141 39.7304 9.9191
603 1 6.78855 42.5275 6.85125
604 1 9.71524 42.2231 6.88098
605 1 9.7696 42.3454 9.7571
606 1 6.95264 42.473 9.56425
607 1 12.4595 39.6693 6.95247
608 1 12.5128 39.6271 9.67402
609 1 12.632 42.4345 6.80205
610 1 12.3841 42.3432 9.77391
611 1 1.28721 45.1181 6.81366
612 1 4.04546 45.2318 6.90945
613 1 4.11019 45.2385 9.68316
614 1 1.24722 45.1537 9.84045
615 1 1.43308 48.0102 7.12913
616 1 4.16767 48.0404 6.93052
617 1 4.07629 48.0889 9.72711
618 1 1.19504 47.854 9.80966
619 1 6.96223 45.3345 6.95036
620 1 9.70104 44.9715 6.84215
621 1 9.63566 45.3648 9.92596
622 1 6.93736 45.2856 9.80448
623 1 6.95492 48.1278 7.01899
624 1 9.71035 47.8481 7.14485
625 1 9.90272 48.1295 9.81999
626 1 6.99738 47.9691 9.7844
627 1 12.5189 45.1644 6.87646
628 1 12.4659 45.2757 9.66151
629 1 12.5787 47.9861 6.97579
630 1 12.6039 47.9412 9.83284
631 1 1.21131 25.3267 12.5392
632 1 3.99582 25.5474 12.6341
633 1 6.72988 25.5408 12.4177
634 1 9.85928 25.4909 12.5688
635 1 12.7508 25.3898 12.5187
636 1 1.1669 28.2696 12.495
637 1 4.08326 28.3687 12.4915
638 1 1.31483 30.9469 12.5992
639 1 4.1949 31.1716 12.4975
640 1 6.93659 28.3128 12.5893
641 1 9.81643 28.2973 12.5609
642 1 6.99994 31.1072 12.5427
643 1 9.78004 31.0896 12.539
644 1 12.4858 28.1889 12.4614
645 1 12.5357 31.0038 12.4515
646 1 1.21143 33.8483 12.6535
647 1 3.96635 33.7986 12.5695
648 1 1.33498 36.6866 12.4998
649 1 4.02811 36.8316 12.7416
650 1 6.98985 33.8782 12.6583
651 1 9.8832 33.9026 12.4711
652 1 6.78507 36.6977 12.507
653 1 9.77365 36.6673 12.5962
654 1 12.6231 34.0046 12.5845
655 1 12.4399 36.7903 12.5095
656 1 1.34074 39.5386 12.4567
657 1 4.11566 39.791 12.5747
658 1 1.46988 42.4261 12.692
659 1 4.30545 42.5594 12.5902
660 1 6.97048 39.477 12.7154
661 1 9.70976 39.4486 12.5184
662 1 6.92134 42.1277 12.4255
663 1 9.83552 42.2117 12.4853
664 1 12.5387 39.6137 12.4569
665 1 12.6762 42.4439 12.5851
666 1 1.15451 45.1843 12.5285
667 1 4.11915 45.3004 12.5272
668 1 1.38774 47.9445 12.5145
669 1 4.2134 47.97 12.494
670 1 7.02106 45.2375 12.5825
671 1 9.88583 45.1119 12.6315
672 1 6.97631 48.1132 12.7295
673 1 9.75612 47.8988 12.6246
674 1 12.7052 45.0934 12.3179
675 1 12.5669 48.0698 12.7146
12363 2 11.1675 49.3345 11.3369
89 1 12.4263 28.4603 1.25484
12253 2 2.71575 26.8209 2.65327
12362 2 5.68872 49.4759 11.2114
15351 2 13.9568 40.9647 11.1068
180 1 12.5202 25.5831 6.99319
12257 2 8.20702 26.8974 2.68229
12258 2 5.45405 29.5848 2.69711
12341 2 -0.159122 26.9127 11.0691
12260 2 11.1308 29.6749 2.72527
12360 2 11.1097 43.8185 11.1609
911 1 9.88658 50.8083 4.15865
12263 2 2.59008 32.6085 2.82501
12359 2 8.32873 46.6766 11.2604
12346 2 -0.190661 32.4839 11.1077
12385 2 8.37108 49.4668 14.088
12267 2 8.25635 32.0124 2.74605
12268 2 5.07306 35.2006 2.76754
12345 2 11.271 26.811 11.1759
12270 2 11.2878 35.3752 2.68212
12358 2 5.55156 43.7732 11.164
12344 2 8.44811 29.6836 11.1447
12273 2 2.61353 38.0394 2.74282
12357 2 2.77489 46.6571 11.152
12343 2 5.59769 27.013 11.025
179 1 12.5202 25.4909 4.18876
12277 2 8.27222 38.3839 2.77183
12278 2 5.33199 41.2269 2.82261
12376 2 8.24349 38.0426 14.0659
12280 2 11.0577 41.1303 2.71028
12355 2 10.9975 38.0385 11.1552
1012 1 7.06091 50.8181 9.7718
12283 2 2.67534 43.9812 2.69206
12354 2 8.38874 41.0089 11.1056
851 1 6.92677 35.8334 1.29858
12342 2 2.74483 29.6495 11.1102
12287 2 8.32635 43.8182 2.76421
12288 2 5.524 46.6888 2.81661
12340 2 11.2344 49.4588 5.48251
12290 2 11.1474 46.5727 2.72524
12353 2 5.40545 38.3139 11.3224
12292 2 2.69116 49.5002 2.72613
12336 2 -0.10921 49.3695 5.56973
12294 2 8.39776 49.3971 2.796
910 1 9.85661 50.609 1.30654
12339 2 8.39632 49.4373 8.40379
12297 2 2.6636 29.7393 5.47738
12298 2 2.66273 26.9154 8.26276
12338 2 5.60549 49.5052 5.57454
12300 2 5.50685 26.8705 5.53054
12301 2 8.25942 29.5283 5.52926
12302 2 8.34156 26.9111 8.25594
12303 2 5.46758 29.6115 8.30099
12304 2 11.051 26.821 5.53236
12305 2 11.1996 29.7065 8.30304
12352 2 2.66899 41.032 11.2598
12307 2 2.70157 35.4574 5.44215
12308 2 2.70294 32.6102 8.37529
569 1 12.4844 31.0568 4.0522
12310 2 5.64507 32.5141 5.60205
12311 2 8.31569 35.4105 6.0077
12312 2 8.317 32.3473 8.33987
12313 2 5.48584 35.3685 8.41614
12314 2 11.1852 32.4784 5.44887
12315 2 11.1843 35.442 8.48248
12266 2 8.23752 35.023 2.82762
12317 2 2.60708 41.0599 5.58707
12318 2 2.74515 38.146 8.39731
12350 2 11.2369 32.4661 11.1651
12320 2 5.4506 38.1916 5.52182
12321 2 8.2403 41.0336 5.46397
12322 2 8.18943 38.371 8.37852
12323 2 5.51025 41.13 8.30415
12324 2 11.0732 38.2404 5.57236
12325 2 11.1329 40.989 8.4242
12349 2 8.34057 35.348 11.2187
12327 2 2.86323 46.6917 5.5265
12328 2 2.62868 43.7789 8.43171
12348 2 5.46731 32.5489 11.214
12330 2 5.50047 43.7844 5.52636
12331 2 8.34488 46.6123 5.61557