ITEM: TIMESTEP
90000
ITEM: NUMBER OF ATOMS
18000
ITEM: BOX BOUNDS xy xz yz pp pp pp
-9.1856295071182245e-02 2.7985856295071326e+01 0.0000000000000000e+00
-1.2607043784241865e+00 3.3598870437842663e+02 0.0000000000000000e+00
-9.7389967782349346e-02 2.7991389967782194e+01 0.0000000000000000e+00
ITEM: ATOMS id type x y z
1 1 1.0224 0.027783 1.40936
2 1 3.87672 -0.106656 1.60142
3 1 4.00193 0.142658 4.38689
4 1 1.10812 0.0681523 4.16787
5 1 1.16501 2.91452 1.38952
6 1 3.85905 2.68351 1.2899
7 1 4.24595 2.72461 4.13621
8 1 1.27044 2.91158 4.27849
9 1 6.80954 2.63354 1.49479
10 1 9.6011 0.0114655 1.23793
11 1 9.62615 0.079761 4.06553
12 1 7.08138 2.91451 4.14739
13 1 6.84536 5.51061 1.3171
14 1 9.75427 2.61021 1.31509
15 1 9.86874 2.77073 4.11988
16 1 6.91037 5.40392 4.20012
17 1 12.4986 -0.0951735 1.46411
18 1 12.3485 -0.0458493 4.29023
19 1 12.5256 2.7024 1.26174
20 1 12.654 2.78806 4.15355
21 1 1.352 5.78594 1.51144
22 1 4.07015 5.51985 1.36053
23 1 3.98261 5.61499 4.17504
24 1 1.25357 5.66683 4.29888
25 1 1.18841 8.54405 1.28284
26 1 3.88475 8.35714 1.28459
27 1 3.89002 11.3245 4.2446
28 1 1.21304 8.62445 4.21531
15101 2 13.9138 1.42454 11.1326
30 1 9.69968 5.42711 1.31768
31 1 9.74094 5.58591 4.20223
32 1 6.48347 8.06295 5.82158
33 1 6.58056 10.2472 3.77069
34 1 9.64669 8.36535 1.33372
35 1 7.76859 7.69848 3.512
36 1 6.3376 11.9069 5.88161
37 1 12.5928 5.66265 1.42767
38 1 12.7227 5.71376 4.07364
39 1 12.5115 8.43849 1.3006
40 1 12.5164 8.50417 4.06833
41 1 1.28609 11.4191 1.31342
42 1 4.13785 11.2298 1.45734
43 1 6.75783 14.141 4.01115
44 1 1.26589 11.4351 4.11972
45 1 1.33612 14.1565 1.20691
46 1 4.2005 14.1389 1.40389
47 1 4.09907 14.0486 4.23365
48 1 1.28426 14.232 4.10806
49 1 4.07778 8.43393 3.98618
50 1 9.56406 11.1585 1.11515
51 1 9.88046 8.97138 4.53253
52 1 8.97673 11.5705 3.90959
53 1 6.78024 16.9215 4.19031
54 1 9.66002 14.0841 1.31576
55 1 12.5256 14.1548 4.09011
56 1 9.84166 14.2132 4.06672
57 1 12.5642 11.163 1.10216
58 1 12.4652 11.3356 3.85041
59 1 12.3975 14.1226 1.16281
15116 2 13.8164 18.3692 11.2852
61 1 1.38982 16.8211 1.24604
62 1 4.12619 16.9099 1.31027
63 1 3.97834 16.8814 4.18979
64 1 1.24153 16.9328 3.95204
65 1 1.23914 19.6247 1.37643
66 1 4.12863 19.8732 1.28483
67 1 4.0633 19.6097 4.13413
68 1 1.2726 19.6671 4.06388
69 1 6.81333 17.1015 1.27906
70 1 9.55669 16.9309 1.10422
71 1 12.1011 16.84 4.12798
72 1 9.5298 16.9605 4.02302
73 1 6.80484 19.8068 1.26495
74 1 9.73545 19.4999 1.28041
75 1 9.60688 19.878 4.178
76 1 6.84071 19.762 4.03542
77 1 12.4916 16.9111 1.33588
15071 2 13.6918 12.7799 5.37532
79 1 12.4673 19.7871 1.34346
12015 2 5.47189 4.2214 0.0235608
81 1 1.20428 22.5576 1.14625
82 1 3.95097 22.507 1.25371
83 1 4.04508 22.3771 4.06402
84 1 1.27765 22.5182 4.10285
85 1 6.84895 22.3867 1.25786
86 1 9.72392 22.4402 1.23523
87 1 9.63959 22.7019 4.18018
88 1 6.84105 22.6035 4.09446
12032 2 2.504 18.2961 -0.0269344
12044 2 -0.00202745 23.8648 2.57479
91 1 1.27339 0.0184144 7.02279
92 1 4.0835 0.00611398 7.09263
93 1 4.12059 2.58801 9.86655
94 1 1.71356 0.0594346 9.89541
95 1 1.30392 2.81992 7.11111
96 1 4.14092 2.73243 6.98217
97 1 6.78964 5.62507 9.86578
98 1 1.3688 2.98244 9.84301
99 1 7.11759 2.77487 6.90391
100 1 9.5982 -0.00883113 6.91812
101 1 9.2869 0.00276184 9.82385
102 1 6.94229 2.83165 9.81081
103 1 7.00747 5.48793 6.95275
104 1 9.85159 2.96861 6.89394
105 1 9.85298 2.70782 9.70819
106 1 6.99425 5.60941 12.5731
107 1 12.5598 -0.0766615 6.9799
108 1 12.3557 0.00878386 9.71897
109 1 12.579 2.72622 7.00511
110 1 12.515 2.75755 9.79897
111 1 1.32169 5.64248 7.2053
112 1 4.2476 5.60505 6.98529
113 1 4.26269 8.3185 9.66414
114 1 1.23985 5.77786 9.91352
115 1 1.35588 8.45823 6.84714
116 1 3.98385 8.43163 7.03832
117 1 6.72164 9.94235 7.50863
118 1 1.36648 8.48756 9.72325
119 1 9.14435 8.35336 7.10731
120 1 9.81637 5.61574 6.99186
121 1 9.84992 5.51201 9.83067
122 1 7.1313 8.44058 9.75187
123 1 8.72348 11.4736 7.23455
124 1 12.6505 8.22435 6.90811
125 1 11.1663 10.1288 7.9353
126 2 8.49788 9.90889 8.79185
127 1 12.5182 5.43387 6.89471
128 1 12.6132 5.38741 9.74414
15121 2 13.9351 24.0038 11.1899
130 1 12.7126 11.1164 9.7989
131 1 1.34739 11.1281 6.92811
132 1 3.91304 11.3794 7.11666
133 1 4.04751 11.027 9.80486
134 1 1.26895 11.4075 9.6776
135 1 1.16055 13.9685 6.90227
136 1 4.10129 14.151 6.9559
137 1 4.1393 13.9361 9.62006
138 1 1.37078 14.1091 9.81574
139 1 9.66829 14.2106 7.11152
140 1 11.0826 12.1163 5.97531
141 1 9.85073 11.3044 9.99216
142 1 6.91639 11.536 9.86131
143 1 6.97812 14.4183 7.03442
144 1 9.76258 16.9161 6.87867
145 1 9.78604 14.151 9.77586
146 1 7.0598 14.171 9.81112
147 1 12.6405 14.1991 6.97738
148 1 12.718 13.9779 9.77701
149 1 12.4722 16.8537 6.88814
150 1 12.4446 17.0386 9.71884
151 1 1.30348 16.8894 6.86501
152 1 3.95443 16.8759 6.81089
153 1 4.0851 16.9479 9.66527
154 1 1.30497 16.708 9.64865
155 1 1.08048 19.6616 7.03285
156 1 3.83375 19.7573 6.94305
157 1 4.11439 19.7747 9.8279
158 1 1.21348 19.6864 9.66974
159 1 6.65899 17.1004 6.96703
160 1 12.4185 22.5608 4.1831
161 1 9.68737 17.0149 9.82133
162 1 6.86783 16.9766 9.76949
163 1 6.69756 19.7363 7.10251
164 1 9.46766 19.8151 7.09714
165 1 9.54646 19.9025 9.81462
166 1 6.77948 19.9069 9.82083
241 1 9.60698 8.56628 12.43
168 1 12.4235 19.8528 9.75262
169 1 12.7291 22.5062 6.98798
170 1 12.474 22.6309 9.81086
171 1 1.17937 22.5822 6.95724
172 1 3.96373 22.4829 7.03993
173 1 4.02612 22.4593 9.82688
174 1 1.25872 22.6844 9.80543
175 1 6.89493 22.602 6.95913
176 1 9.82323 22.6285 6.96907
177 1 9.65545 22.767 9.86156
178 1 6.98271 22.6092 9.79346
12002 2 2.49649 1.32489 0.0354738
15032 2 13.7667 15.5348 2.7126
181 1 1.1606 -0.0283015 12.7313
182 1 4.14505 -0.0515902 12.3557
183 1 1.39536 2.85615 12.5686
184 1 4.05709 2.71924 12.6475
185 1 6.97449 0.092482 12.6356
186 1 9.62653 0.0167322 12.5101
187 1 6.93267 2.85957 12.594
188 1 9.78435 2.85509 12.7116
189 1 12.5142 0.000602866 12.4556
190 1 12.6059 2.69798 12.5088
191 1 1.33675 5.60596 12.7141
192 1 4.05243 5.59505 9.79192
193 1 1.34265 8.40507 12.5435
194 1 4.18051 8.5746 12.5151
195 1 4.11839 5.62887 12.6737
196 1 9.81699 5.52575 12.6112
197 1 9.81826 8.29217 9.79524
198 1 12.6581 8.218 9.88942
199 1 12.4969 5.66553 12.6395
200 1 12.4223 8.4486 12.8688
201 1 1.38803 11.3285 12.6541
202 1 3.98223 11.2614 12.4602
203 1 1.23641 14.0322 12.5781
204 1 4.16753 14.023 12.3751
205 1 6.94309 11.0916 12.5237
206 1 9.63526 11.3304 12.6323
207 1 6.97908 14.0621 12.5373
208 1 9.73096 14.0761 12.5861
209 1 12.5705 11.3285 12.6205
210 1 12.3924 14.0394 12.5053
211 1 1.18476 17.004 12.5476
212 1 3.85881 16.8448 12.453
213 1 1.25627 19.6176 12.5809
214 1 4.04256 19.7031 12.5497
215 1 6.91865 16.886 12.5844
216 1 9.7094 16.8671 12.5288
217 1 6.7995 19.6266 12.5772
218 1 9.63305 19.7946 12.6864
219 1 12.5331 16.8332 12.7505
220 1 12.4133 19.7561 12.4735
221 1 1.32126 22.3823 12.6308
222 1 3.9725 22.5442 12.5221
223 1 6.82443 22.6067 12.6119
224 1 9.59729 22.5961 12.6293
225 1 12.6624 22.6069 12.5769
12125 2 11.0861 21.1907 11.0615
12110 2 11.211 4.13447 11.1037
12019 2 11.1836 4.06355 -0.0146632
12124 2 8.19718 24.0218 11.2357
80 1 12.564 22.6089 1.4069
12109 2 8.42251 6.94982 11.2196
12006 2 8.22374 1.38508 -0.0799736
12008 2 5.45654 1.32961 2.79692
243 1 6.86266 8.37192 12.5016
12010 2 11.2384 1.35652 2.79536
12123 2 5.48675 21.1934 11.2176
12108 2 5.42384 4.2262 11.2449
12013 2 2.64428 4.28131 2.79051
12122 2 2.68415 23.9371 11.2809
12107 2 2.82475 7.03257 11.1585
12112 2 2.72638 12.6576 11.0921
12017 2 8.22877 4.08605 2.68823
12018 2 5.64056 7.0219 2.79462
12104 2 8.21815 1.37986 11.1705
12020 2 11.206 7.03694 2.77054
60 1 12.2495 19.6606 4.14025
15022 2 13.9173 9.92207 2.63934
12023 2 2.66117 9.9337 2.66928
12120 2 11.2461 15.438 11.0692
12102 2 2.6772 1.41911 11.3863
12113 2 5.57614 9.73689 11.0623
12027 2 8.18589 9.8095 2.38133
12028 2 5.31488 12.5085 2.88073
12100 2 11.162 23.9185 8.3589
12030 2 10.8449 12.7118 2.68281
12099 2 11.1455 21.2265 5.49753
12098 2 5.6097 23.8388 8.39144
12033 2 2.64297 15.4158 2.67152
412 1 6.89974 14.1644 1.32332
12097 2 8.14188 21.0969 8.44455
12096 2 8.32788 24.0043 5.70378
12037 2 8.15853 15.6433 2.72683
12038 2 5.47595 18.3428 2.67233
12095 2 5.36016 21.0553 5.59566
12040 2 11.0344 18.2121 2.62777
29 1 6.72129 8.43404 1.25241
12093 2 2.59805 21.097 8.3015
12043 2 2.63741 21.0307 2.77481
5723 1 6.84556 -0.0704254 7.0603
12092 2 2.78305 23.9064 5.55827
5634 1 6.82916 -0.0339479 1.33258
12047 2 8.26635 21.0584 2.65911
12048 2 5.49687 23.7315 2.71603
12090 2 11.1147 18.3973 8.28042
12050 2 11.075 23.85 2.68895
12119 2 8.26372 18.1941 11.3265
12052 2 2.76461 1.49919 5.6273
15091 2 13.9146 24.0276 5.61137
12118 2 5.49879 15.3322 11.0792
5633 1 6.86712 -0.0748231 4.1595
12056 2 8.35213 1.38874 5.51918
5726 1 6.29708 0.0271268 9.8815
12058 2 5.57411 1.54708 8.27526
12049 2 11.2163 21.1469 -0.0577031
12060 2 11.1804 1.29413 8.29019
12117 2 2.64753 18.2324 11.0395
12062 2 2.65076 7.04864 5.53766
12063 2 2.65601 4.28616 8.46956
12089 2 11.1656 15.4092 5.62293
12065 2 5.49825 4.25763 5.58702
12066 2 8.34268 6.70378 5.52615
12067 2 8.35879 4.22549 8.4329
12068 2 5.56099 7.08944 8.25115
12069 2 11.2406 4.15264 5.54501
12070 2 11.1286 6.94699 8.25232
12115 2 11.1907 9.79965 11.1546
12072 2 2.62408 12.7406 5.52745
12073 2 2.70421 9.89728 8.44198
12114 2 8.35026 12.7752 11.1929
12075 2 4.93095 9.89845 5.59953
12076 2 8.2974 13.1982 5.58514
12077 2 8.16214 9.89183 5.57718
12078 2 5.64192 12.6563 8.28457
12079 2 11.6364 9.94223 5.6731
12080 2 11.088 12.4375 8.28221
395 1 6.7296 11.3895 1.25646
12082 2 2.54531 18.2303 5.42573
12083 2 2.64767 15.4255 8.21674
15081 2 13.4341 18.2561 5.40716
12085 2 5.38568 15.5252 5.61615
12086 2 8.23463 18.2694 5.55046
12087 2 8.37065 15.5755 8.52052
12088 2 5.42625 18.3808 8.46055
167 1 12.291 19.7439 6.8996
15072 2 13.8849 9.62954 8.53414
129 1 13.5955 11.0629 6.78482
15111 2 13.894 12.5681 11.1897
15106 2 13.8634 7.01415 11.3039
12149 2 5.55297 24.0094 13.9666
12134 2 5.57843 7.05223 13.9037
12150 2 11.1446 23.7998 13.9251
12016 2 8.30278 6.89861 -0.0935234
12025 2 5.40882 9.94546 -0.065393
12132 2 -0.195212 6.98756 13.9544
12133 2 8.33162 4.21123 13.9646
12145 2 11.0862 18.3185 14.0085
12035 2 5.58162 15.4723 0.0204718
12144 2 5.36697 18.2274 13.894
12012 2 2.74604 7.08609 -0.143628
12136 2 2.66282 9.80015 13.8494
226 1 3.97513 0.121493 15.1166
227 1 1.3646 -0.145632 15.6015
228 1 4.11619 2.86425 15.4394
229 1 1.41898 2.67806 15.2107
230 1 9.76746 0.0331088 15.3896
231 1 6.88756 0.0477444 15.3802
232 1 9.64104 2.7308 15.2685
233 1 6.87241 2.80157 15.3189
234 1 12.5345 -0.0960282 15.2819
235 1 12.5582 2.742 15.3972
236 1 4.29935 5.67436 15.3795
237 1 1.33135 5.43625 15.4996
238 1 4.02872 8.21782 15.3101
239 1 1.20928 8.36144 15.3457
240 1 9.84171 5.55915 15.2961
12143 2 8.36178 15.4338 13.9806
242 1 9.78402 8.40764 15.3842
5993 1 6.93753 0.123546 23.89
244 1 12.5223 5.50845 15.3997
245 1 12.5166 8.39086 15.5893
246 1 4.20458 11.1205 15.275
247 1 1.31801 11.1967 15.3608
248 1 4.01381 14.0148 15.3223
249 1 1.36849 13.9694 15.4541
250 1 9.71011 11.0349 15.3803
251 1 7.00393 11.3715 15.3446
252 1 9.56016 14.1406 15.3577
253 1 6.71098 14.1173 15.2796
254 1 12.5222 11.2424 15.315
255 1 12.4366 14.1062 15.3986
256 1 4.01618 16.9004 15.3428
257 1 1.25137 16.8512 15.3939
258 1 4.02705 19.7672 15.3983
259 1 1.14461 19.7496 15.2771
260 1 9.71692 16.7845 15.3449
261 1 6.85717 16.8777 15.4746
262 1 9.648 19.6504 15.3274
263 1 6.80039 19.6243 15.3536
264 1 12.4604 16.9345 15.3632
265 1 12.4889 19.8339 15.2181
266 1 4.12376 22.5702 15.5073
267 1 1.31082 22.5267 15.3803
268 1 9.81625 22.539 15.3575
269 1 6.93483 22.5772 15.2719
270 1 12.7102 22.6195 15.4291
271 1 1.33487 0.151827 18.3563
272 1 4.05365 0.00714874 18.1019
273 1 4.22507 0.111745 21.0279
274 1 1.22192 -0.020727 21.0826
275 1 1.3988 2.80458 18.0044
276 1 4.23017 2.74024 18.3154
277 1 4.25692 2.87708 21.1644
278 1 1.40234 2.76816 20.8004
279 1 6.89345 2.80369 18.105
280 1 9.52307 0.00462982 18.3004
281 1 9.79069 -0.00223111 21.0953
282 1 7.05287 2.80008 20.8803
283 1 6.94059 5.75379 18.0843
284 1 9.64326 2.80478 18.072
285 1 9.85493 2.86277 21.0622
286 1 6.9496 5.53877 23.7339
287 1 12.3594 0.14673 18.1538
288 1 12.6686 -0.0324751 20.9951
289 1 12.3798 2.73987 18.291
290 1 12.5697 2.79059 21.1657
291 1 1.27824 5.74982 18.2431
292 1 4.2088 5.53118 18.1601
293 1 4.01436 5.56948 21.1169
294 1 1.37654 5.57131 21.0299
295 1 1.25955 8.47594 18.1285
296 1 4.16173 8.38422 18.2119
297 1 4.05983 8.40857 21.025
298 1 1.18654 8.44209 20.9102
299 1 7.04521 5.61605 15.2396
300 1 9.84267 5.68986 18.1105
301 1 9.59421 5.66476 21.0755
302 1 6.84922 5.81661 21.0454
303 1 6.85405 8.46089 15.319
304 1 9.69351 8.39913 18.1458
305 1 9.67539 8.50603 20.8321
306 1 6.84871 8.43415 18.0453
307 1 12.5897 5.58955 18.156
308 1 12.5128 5.62203 20.8684
309 1 12.4925 8.47095 18.2905
310 1 12.4746 8.42921 21.0811
311 1 1.19561 11.2712 18.2816
312 1 4.0202 11.0719 18.1931
313 1 4.19402 11.1916 20.8368
314 1 1.29818 11.305 20.9568
315 1 1.08319 14.1342 18.1976
316 1 3.91752 14.039 18.1196
317 1 4.11354 13.9547 20.9886
318 1 1.12646 14.0944 20.8962
319 1 6.8471 11.2364 18.0321
320 1 9.7396 11.2607 18.1069
321 1 9.70374 11.2799 20.8556
322 1 6.97269 11.2522 21.0871
323 1 6.80419 14.1088 18.0896
324 1 9.70573 14.1064 18.1016
325 1 9.64992 14.0707 20.9155
326 1 6.79301 14.1168 20.916
327 1 12.536 11.199 18.2414
328 1 12.5146 11.2578 20.9174
329 1 12.4428 14.1671 18.2145
330 1 12.4932 14.1477 20.9588
331 1 1.27257 16.91 18.3577
332 1 4.10414 16.7989 18.0963
333 1 3.91091 16.7408 20.8985
334 1 1.09087 16.9343 21.0008
335 1 1.29325 19.8123 18.1946
336 1 4.03887 19.5552 18.133
337 1 4.10081 19.5882 20.9856
338 1 1.24803 19.8074 20.8873
339 1 7.10121 16.772 18.1132
340 1 9.83529 16.9566 18.2181
341 1 9.60396 16.7774 21.0584
342 1 6.77647 16.9467 20.9882
343 1 6.84752 19.8001 18.0854
344 1 9.54095 19.7653 18.1518
345 1 9.69724 19.6591 20.9687
346 1 6.94178 19.7122 21.0847
347 1 12.5022 17.0534 17.9617
348 1 12.3931 16.8862 20.9563
349 1 12.4655 19.8225 18.0832
350 1 12.4474 19.6338 20.8644
351 1 1.17022 22.5575 18.2588
352 1 3.9747 22.4409 18.2039
353 1 3.96998 22.5892 20.8862
354 1 1.07536 22.6514 21.0306
355 1 6.79918 22.5046 18.1078
356 1 9.69081 22.5338 18.1841
357 1 9.53426 22.4872 20.8277
358 1 6.6918 22.3461 20.9187
359 1 12.6139 22.6297 18.2101
360 1 12.3949 22.5479 21.1318
361 1 1.28986 0.143341 24.0275
362 1 4.12604 0.0234349 23.8095
363 1 4.09296 0.0904157 26.7661
364 1 1.2166 0.101176 26.6618
365 1 1.38635 2.94652 23.7981
366 1 4.02137 2.86774 23.8718
367 1 4.06425 2.91077 26.5781
368 1 1.30795 2.78026 26.6766
369 1 6.95174 2.83362 23.8295
370 1 9.79978 0.115589 23.818
371 1 9.73101 0.0596041 26.6232
372 1 6.82946 2.88007 26.5944
373 1 7.06458 5.50024 26.5301
374 1 9.80115 2.95072 23.8439
375 1 9.56326 2.82585 26.5514
376 1 9.8443 5.66679 26.56
377 1 12.5745 0.0828863 24.004
378 1 12.4739 0.0285473 26.8394
379 1 12.5437 2.94537 23.8522
380 1 12.5175 2.83644 26.6078
381 1 1.3643 5.78084 23.8192
382 1 4.18765 5.64064 23.991
383 1 4.13039 5.73122 26.6285
384 1 1.38454 5.68072 26.7083
385 1 1.23991 8.35818 23.7842
386 1 4.10377 8.41293 23.8037
387 1 4.21698 8.55652 26.5435
388 1 1.25857 8.47439 26.5793
389 1 6.85685 8.46554 23.7767
390 1 9.77866 5.69891 23.7187
391 1 9.64334 8.4502 26.6158
392 1 6.98626 8.35738 26.5302
393 1 6.7966 8.48983 20.9299
394 1 9.58957 8.55296 23.614
12130 2 11.1936 1.42227 13.9326
396 1 6.77925 11.2053 26.6753
397 1 12.5518 5.79384 23.7138
398 1 12.6103 5.59636 26.5977
399 1 12.3355 8.45945 23.6758
400 1 12.4816 8.43045 26.4501
401 1 1.2165 11.1378 23.8143
402 1 4.01652 11.4284 23.76
403 1 3.96291 11.3834 26.6423
404 1 1.1807 11.4002 26.6514
405 1 1.20932 14.0477 23.5715
406 1 3.96374 14.0989 23.8662
407 1 4.11407 13.9689 26.6714
408 1 1.24498 14.1093 26.4963
409 1 6.80227 11.2926 23.9001
410 1 9.75165 11.2347 23.7556
411 1 9.60702 11.2559 26.5695
12039 2 11.0174 15.4825 27.9587
413 1 6.87487 14.1514 23.8871
414 1 9.64231 14.029 23.7303
415 1 9.58971 14.0699 26.5735
416 1 6.79217 14.0327 26.6123
417 1 12.6028 11.2525 23.738
418 1 12.3318 11.2788 26.5227
419 1 12.4629 14.1315 23.686
420 1 12.5732 14.1224 26.5537
421 1 1.03464 16.777 23.7836
422 1 3.75839 16.8784 23.5513
423 1 4.00256 17.0183 26.5418
424 1 1.07657 16.9871 26.5336
425 1 1.00282 19.6015 23.6353
426 1 3.8466 19.5619 23.8474
427 1 4.0723 19.8496 26.5745
428 1 1.13648 19.6279 26.4124
429 1 6.55175 16.9918 23.8201
430 1 9.71873 16.7567 23.7022
431 1 9.63041 16.7504 26.576
432 1 6.89585 16.8838 26.5377
433 1 6.68289 19.7455 24.0348
434 1 9.56672 19.5887 23.8127
435 1 9.66563 19.7551 26.5902
436 1 6.83392 19.6394 26.6725
437 1 12.5716 16.8988 23.8668
438 1 12.3009 16.9598 26.4831
439 1 12.5468 19.7356 23.7107
440 1 12.473 19.792 26.415
441 1 1.18994 22.5374 23.8763
442 1 3.90046 22.4939 23.8734
443 1 4.02852 22.5387 26.5291
444 1 1.22205 22.5254 26.7012
445 1 6.8357 22.4349 23.6946
446 1 9.61965 22.4671 23.7559
447 1 9.70054 22.6297 26.5873
448 1 6.8734 22.5769 26.4477
449 1 12.6623 22.5611 23.8899
450 1 12.5354 22.5173 26.6525
12042 2 2.61376 23.8695 27.9425
12250 2 11.1176 23.86 25.2416
15031 2 13.7917 18.403 27.8686
12211 2 0.0122943 4.34107 22.4027
5906 1 7.02578 0.117417 20.957
15241 2 13.8539 23.9943 22.4748
12249 2 10.9945 21.0769 22.4033
15171 2 13.8251 12.5881 16.7067
12045 2 5.40167 21.0802 27.9264
15222 2 13.759 9.8414 25.0959
12139 2 5.4666 12.5875 13.8761
12248 2 5.48434 23.959 25.155
15232 2 13.8709 15.494 25.236
12138 2 8.21972 9.77976 14.0144
15191 2 13.9264 23.9724 16.7927
15211 2 13.9651 7.07317 22.4553
12029 2 11.0866 9.77952 27.9168
15162 2 13.8566 4.20823 19.5598
12220 2 11.0542 7.10039 25.1619
12131 2 2.72965 4.22787 14.1229
12232 2 2.39136 18.252 22.3139
12216 2 8.26607 6.94688 22.3896
5903 1 6.87141 -0.175309 18.1128
12219 2 11.0795 4.26027 22.4053
12218 2 5.60198 7.01082 25.2392
12247 2 8.36486 20.9868 25.2527
12152 2 2.80984 1.38432 16.7872
12227 2 8.23173 9.86623 25.1303
12246 2 8.02356 23.7458 22.257
12230 2 11.1484 12.7336 25.1568
12156 2 8.26627 1.31594 16.7225
12229 2 10.9883 9.8766 22.3587
12158 2 5.57496 1.35115 19.6077
12217 2 8.34866 4.22332 25.1316
12160 2 11.1081 1.35786 19.6129
12245 2 5.28522 21.0487 22.3905
12162 2 2.70741 7.09354 16.8256
12163 2 2.79731 4.21787 19.5592
12228 2 5.40993 12.7438 25.1841
12165 2 5.51571 4.18004 16.7788
12166 2 8.37587 7.04909 16.6823
12167 2 8.43331 4.17016 19.5396
12168 2 5.48983 6.98567 19.5786
12169 2 11.1429 4.15268 16.6058
12170 2 11.0802 7.08347 19.6271
12243 2 2.57583 21.0625 25.2087
12172 2 2.59262 12.5771 16.9073
12173 2 2.70182 9.71704 19.6164
12242 2 2.53266 24.058 22.3751
12175 2 5.514 9.76549 16.7325
12176 2 8.27582 12.6355 16.7544
12177 2 8.40858 9.80168 19.4568
12178 2 5.42816 12.5675 19.5134
12179 2 11.1729 9.83286 16.844
12180 2 11.1991 12.7648 19.5011
12236 2 8.21063 18.1062 22.461
12182 2 2.54331 18.3391 16.8132
12183 2 2.5633 15.4661 19.5568
12223 2 2.59533 9.95577 25.2837
12185 2 5.50202 15.4276 16.8436
12186 2 8.32304 18.2108 16.7069
12187 2 8.2855 15.4855 19.5271
12188 2 5.44372 18.2399 19.5247
12189 2 11.1334 15.4425 16.6955
12190 2 11.1178 18.3548 19.5204
12226 2 8.29729 12.6461 22.243
12192 2 2.69538 23.9077 16.8107
12193 2 2.62075 21.1262 19.5783
12225 2 5.42633 9.87111 22.3852
12195 2 5.38812 21.1115 16.766
12196 2 8.27884 24.035 16.6776
12197 2 8.18106 21.0329 19.4445
12198 2 5.39472 23.862 19.5891
12199 2 11.0709 21.2588 16.7722
12200 2 10.9884 23.9495 19.6091
12240 2 10.9662 18.2517 25.1775
12202 2 2.67405 1.47518 22.363
5996 1 6.91015 0.113601 26.6593
12239 2 11.0923 15.4561 22.3193
12222 2 2.66435 12.6344 22.312
12206 2 8.41917 1.435 22.4275
12235 2 5.43448 15.4669 22.3918
12208 2 5.46595 1.44446 25.2476
12233 2 2.58458 15.4881 25.1368
12210 2 11.228 1.39924 25.3336
12238 2 5.30137 18.2919 25.1843
12212 2 2.74258 7.0575 22.4733
12213 2 2.67771 4.24825 25.2958
12237 2 8.31869 15.5383 25.0325
12215 2 5.57489 4.16144 22.4052
12129 2 5.57066 1.50285 13.962
15212 2 13.8716 4.2735 25.2198
15231 2 13.9041 18.2923 22.4132
15172 2 14.027 10.019 19.6194
12135 2 11.1938 6.96011 14.1267
12140 2 11.0651 12.7215 13.9146
15242 2 14.0009 21.0826 25.0881
15192 2 13.8903 21.1417 19.5333
15151 2 13.9238 1.33319 16.8311
12161 2 -0.00638905 4.21029 16.8804
12154 2 -0.107272 1.40075 19.6432
15146 2 13.9364 21.0598 13.9358
12036 2 8.19726 18.3543 27.9248
12026 2 8.13382 12.6526 27.959
15136 2 13.8002 9.82781 14.0395
12147 2 -0.193794 23.985 14.0467
12146 2 2.62804 21.0423 13.947
12021 2 -0.0832288 9.89503 27.9349
12046 2 8.36781 23.8685 27.9445
12141 2 2.71738 15.4152 13.9228
15011 2 13.8398 7.06768 27.9152
12022 2 2.6525 12.8073 28.0524
12148 2 8.23639 21.0727 13.9745
15041 2 13.93 23.9093 27.9573
451 1 1.10244 25.3498 1.21778
452 1 3.94791 25.3492 1.2423
453 1 4.09379 25.311 4.16366
454 1 1.30154 25.3024 4.04609
455 1 6.99151 25.1935 1.23152
456 1 9.72718 25.3667 1.20556
457 1 9.75037 25.3713 4.02153
458 1 6.90228 25.388 4.11244
459 1 12.6567 30.7647 1.33125
460 1 12.6321 28.2378 4.10602
461 1 1.23815 28.1429 1.29937
462 1 4.32406 28.0071 1.38355
463 1 3.99363 28.1575 4.15494
464 1 1.32463 28.16 4.12928
465 1 1.37386 31.2165 1.24323
466 1 4.29822 30.8812 1.24388
467 1 4.14633 30.9803 4.06753
468 1 1.35586 31.0454 3.85607
469 1 6.9645 28.0203 1.37366
470 1 9.74968 28.049 1.3077
471 1 9.88913 28.119 4.28362
472 1 6.87852 28.2172 4.05091
473 1 6.99884 30.8042 1.18824
12372 2 5.41566 35.259 13.9012
475 1 9.68524 30.8817 4.19946
476 1 6.97641 31.1055 3.99659
477 1 9.83098 30.4943 1.08275
478 1 10.9088 32.5625 2.45196
479 2 11.1916 32.0904 0.17579
480 1 9.48668 33.6513 0.507423
481 1 1.34517 34.3363 1.2344
482 1 4.21089 33.5249 0.788096
483 1 4.06289 33.901 3.91367
484 1 1.18832 33.766 4.00811
485 2 1.4169 36.5549 0.968781
486 1 3.40029 36.3328 1.78388
487 1 3.88577 36.891 4.39432
488 1 1.00408 36.7505 3.35102
489 1 6.95492 33.8401 1.5062
12364 2 2.67722 26.6449 13.887
491 1 9.54912 33.8954 4.07475
492 1 6.80789 33.9018 4.2647
493 1 6.34256 36.7968 1.54841
494 1 9.30801 36.2831 1.51025
495 1 9.70947 36.8395 4.1366
496 1 6.76148 36.6544 4.18529
497 1 12.5882 33.8045 0.788692
498 1 12.5801 33.9937 3.96145
499 1 12.2963 36.6202 0.946899
500 1 12.4382 36.5966 3.77625
501 1 0.896717 38.8629 1.40828
502 1 4.06615 39.4933 1.19565
503 1 4.15855 39.7247 4.10246
504 1 1.24238 39.4997 4.08153
505 1 1.0994 41.979 1.23843
506 1 4.00682 42.2255 1.14073
507 1 4.15594 42.2915 3.87716
508 1 1.35015 42.1985 3.92933
509 1 6.81841 39.4923 1.12814
510 1 9.6196 39.301 1.15086
511 1 9.69821 39.506 4.09043
512 1 6.85622 39.5185 4.09483
513 1 6.96009 42.2558 1.11551
514 1 9.65364 42.369 1.21326
515 1 9.70408 42.355 4.05871
516 1 6.88664 42.3129 3.94974
517 1 12.4374 39.5036 1.139
518 1 12.4473 39.5483 4.04281
519 1 12.4195 42.2762 1.17973
520 1 12.4599 42.2379 3.9039
521 1 1.35055 45.0851 1.06739
522 1 4.08297 45.1851 1.07356
523 1 4.07828 45.0996 3.87862
524 1 1.36785 45.1156 3.88251
525 1 1.36376 47.9055 1.1747
526 1 4.09798 48.0876 1.03093
527 1 4.28299 47.9093 3.89428
528 1 1.36677 47.8729 4.08542
529 1 6.9195 45.1157 0.989565
530 1 9.66668 45.0607 1.18578
531 1 9.81487 45.2537 3.98948
532 1 6.98105 45.1315 3.98947
533 1 7.01957 48.0019 1.10828
534 1 9.78585 48.0205 1.38602
535 1 9.70106 47.9905 4.13428
536 1 7.01092 47.8103 3.92878
537 1 12.4501 45.0285 1.32247
538 1 12.6097 45.1751 3.91451
539 1 12.5986 47.8885 1.41302
540 1 12.5957 48.086 4.02649
541 1 1.35037 25.4809 6.85384
542 1 4.08618 25.1413 6.99092
543 1 4.19045 25.3938 9.85826
544 1 1.2699 25.4163 9.53294
545 1 6.82599 25.3104 7.01411
546 1 9.75631 25.4206 6.82256
547 1 9.69428 25.4745 9.72653
548 1 6.88521 25.354 9.75601
549 1 12.3366 28.2054 6.90457
550 1 12.4815 25.5411 9.71914
551 1 1.46973 28.2106 6.92602
552 1 4.33261 28.0539 6.80882
553 1 4.19579 28.2263 9.52602
554 1 1.35678 28.1386 9.71803
555 1 1.30414 30.9561 6.67513
556 1 4.17418 31.0794 6.83748
557 1 4.05979 30.8851 9.63813
558 1 1.41164 30.9668 9.43941
559 1 6.9602 28.1626 6.8779
560 1 9.66749 28.1925 7.00937
561 1 9.72518 28.2587 9.76877
562 1 6.97753 28.1309 9.71354
563 1 6.92455 30.9959 6.74944
564 1 9.7263 31.0093 6.99426
565 1 9.75965 30.9354 9.81591
566 1 6.97294 30.9733 9.65484
567 1 12.5459 30.9171 6.86103
568 1 12.4658 28.3421 9.96265
90 1 12.4884 25.2942 1.442
570 1 12.561 31.097 9.84977
571 1 1.2097 33.7405 6.74909
572 1 4.08947 33.829 6.84963
573 1 4.02327 33.7925 9.57109
574 1 1.28691 33.7729 9.64583
575 1 1.17855 36.3857 6.67159
576 1 4.05281 36.3765 6.99651
577 1 4.10765 36.5704 9.7852
578 1 1.34983 36.5881 9.63103
579 1 6.96436 33.7603 6.89985
580 1 9.67629 33.874 6.78889
581 1 9.71247 33.8125 9.62321
582 1 6.94012 33.7308 9.65057
583 1 6.84568 36.7897 6.8914
584 1 9.76057 36.6137 6.99707
585 1 9.64211 36.8008 9.80946
586 1 6.88696 36.7182 9.62088
587 1 12.4876 33.7918 6.75842
588 1 12.433 33.8811 9.69811
589 1 12.4052 36.6673 6.83663
590 1 12.3475 36.962 9.55526
591 1 1.31974 39.1749 6.83026
592 1 4.06997 39.4147 6.82557
593 1 4.17621 39.4502 9.57528
594 1 1.2275 39.4828 9.64369
595 1 1.15821 42.2666 6.7852
596 1 4.10073 42.3813 6.72421
597 1 3.95106 42.2764 9.52882
598 1 1.30754 42.2966 9.73948
599 1 6.99509 39.6821 6.87438
600 1 9.67155 39.5763 6.87525
601 1 9.75189 39.5744 9.66822
602 1 6.82388 39.6059 9.54971
603 1 6.82853 42.4486 6.79131
604 1 9.74831 42.3902 6.77563
605 1 9.74073 42.3489 9.5741
606 1 6.81602 42.3192 9.87158
607 1 12.2678 39.4782 6.90744
608 1 12.5734 39.6585 9.6674
609 1 12.456 42.4285 6.79038
610 1 12.4605 42.4288 9.53821
611 1 1.28997 45.0344 6.85264
612 1 4.112 45.0687 6.70602
613 1 4.0329 45.082 9.61513
614 1 1.26268 45.0099 9.54131
615 1 1.0954 47.8757 6.72512
616 1 4.05772 47.9512 6.82998
617 1 4.07585 47.8277 9.63855
618 1 1.29925 47.9499 9.52232
619 1 6.93728 45.2169 6.87359
620 1 9.65399 45.1863 6.76328
621 1 9.76171 45.2014 9.61003
622 1 6.93747 45.1377 9.6107
623 1 6.90359 48.0537 6.79505
624 1 9.60651 47.9842 6.83521
625 1 9.63836 47.9976 9.54024
626 1 6.80368 47.9812 9.63823
627 1 12.4942 45.325 6.76427
628 1 12.462 45.2801 9.61288
629 1 12.5674 47.9122 6.76848
630 1 12.5618 47.9906 9.72674
631 1 1.21649 25.2004 12.475
632 1 4.08038 25.4065 12.4872
633 1 6.90839 25.4521 12.5716
634 1 9.66143 25.3311 12.6849
635 1 12.4906 25.5184 12.5436
636 1 1.31296 27.9825 12.4078
637 1 3.9907 28.1377 12.5395
638 1 1.36717 30.9356 12.4567
639 1 4.16602 31.0263 12.4204
640 1 6.7336 28.1962 12.3708
641 1 9.55177 28.1438 12.4914
642 1 7.01227 30.9025 12.5436
643 1 9.77907 30.9287 12.693
644 1 12.4234 28.3344 12.7845
645 1 12.7952 31.254 12.6192
646 1 1.2605 33.7258 12.5306
647 1 4.02195 33.9741 12.4023
648 1 1.33007 36.5553 12.4242
649 1 4.14239 36.7176 12.525
650 1 6.83365 33.7064 12.52
651 1 9.5848 33.7723 12.4915
652 1 6.82483 36.5426 12.4651
653 1 9.53924 36.5147 12.5626
654 1 12.4943 34.0362 12.4093
655 1 12.2997 36.7984 12.5015
656 1 1.29232 39.4839 12.4261
657 1 3.96167 39.5295 12.5349
658 1 1.39736 42.2954 12.5344
659 1 4.05567 42.4091 12.3241
660 1 6.78859 39.434 12.3704
661 1 9.56428 39.5879 12.4685
662 1 6.82913 42.3379 12.6138
663 1 9.70741 42.3663 12.4937
664 1 12.4952 39.5285 12.4397
665 1 12.4993 42.3024 12.3477
666 1 1.28765 45.0667 12.2013
667 1 4.11275 45.2243 12.5489
668 1 1.35717 47.8632 12.4982
669 1 4.20801 47.9238 12.4169
670 1 6.97811 44.9963 12.4044
671 1 9.75719 45.1885 12.5402
672 1 7.01794 47.9283 12.396
673 1 9.7042 48.0518 12.3639
674 1 12.5252 45.1682 12.4237
675 1 12.4984 47.9445 12.4526
12363 2 11.1594 49.4749 10.9308
89 1 12.5536 28.0859 1.37115
12253 2 2.71512 26.7472 2.7482
12362 2 5.54838 49.2352 11.0879
12374 2 2.72433 38.1033 13.8771
180 1 12.5318 25.3216 6.99311
12257 2 8.29528 26.624 2.7362
12258 2 5.48956 29.5177 2.84886
15252 2 13.9755 26.8091 2.77475
12260 2 11.1816 29.503 2.84344
12360 2 11.0916 43.7512 10.9739
12316 2 -0.111557 38.1085 5.42084
12263 2 2.75682 32.4972 2.70459
12359 2 8.36104 46.6484 10.9114
15307 2 13.9064 32.4912 8.25578
12383 2 11.0985 46.6121 13.9446
12267 2 8.44337 32.3941 2.60049
12268 2 5.54242 35.1025 2.69891
12345 2 11.0523 26.7581 11.0905
12270 2 11.0421 35.0043 2.56939
12358 2 5.46249 43.8237 11.1052
12344 2 8.34332 29.6031 11.1396
12273 2 2.83317 38.3492 2.9115
12357 2 2.6141 46.5537 10.9596
12343 2 5.42502 26.8518 11.1742
179 1 12.5958 25.4403 4.15985
12277 2 8.18619 38.049 2.65098
12278 2 5.56489 41.047 2.51378
12284 2 -0.0471712 46.4808 2.47561
12280 2 10.9887 40.8805 2.56233
12355 2 11.0866 38.2393 11.0047
15346 2 13.7547 35.362 11.079
12283 2 2.70318 43.6955 2.52625
12354 2 8.26361 40.8334 11.0452
15378 2 13.9047 43.678 13.8231
12382 2 5.50773 46.6211 13.8784
12287 2 8.377 43.7149 2.56799
12288 2 5.44758 46.5325 2.53681
15356 2 13.9334 46.563 10.9812
12290 2 11.1969 46.6272 2.59598
12353 2 5.47472 38.1058 11.061
12292 2 2.80188 49.3394 2.60051
12336 2 -0.0835648 49.2827 5.40309
12294 2 8.40646 49.3915 2.53255
902 1 4.2979 50.8949 1.12677
12379 2 2.70956 43.787 13.8277
12297 2 2.78182 29.4728 5.54909
12298 2 2.83533 26.6393 8.39934
12356 2 -0.0615525 43.6576 11.0194
12300 2 5.48796 26.6853 5.5098
12301 2 8.38527 29.4652 5.57237
12302 2 8.22509 26.7879 8.39502
12303 2 5.57888 29.5584 8.29616
12304 2 11.2003 26.7188 5.59179
12305 2 11.1348 29.6121 8.31644
12352 2 2.66776 40.8701 11.0269
12307 2 2.7385 35.1139 5.46368
12308 2 2.65308 32.4158 8.23016
569 1 12.5099 31.0384 4.19833
12310 2 5.58062 32.4293 5.44916
12311 2 8.33787 35.2584 5.42122
12312 2 8.36924 32.2872 8.20747
12313 2 5.52134 35.1961 8.34099
12314 2 11.0614 32.4529 5.38583
12315 2 10.8863 35.3061 8.28317
12367 2 5.49819 29.6409 13.9115
12317 2 2.68725 40.9785 5.42508
12318 2 2.76919 38.0042 8.22567
12350 2 11.1066 32.4936 11.0749
12320 2 5.57511 38.0407 5.5981
12321 2 8.29823 40.9893 5.37567
12322 2 8.36245 38.2091 8.25991
12323 2 5.46639 40.9387 8.14196
12324 2 11.0482 38.1434 5.41746
12325 2 11.1015 41.0108 8.21563
12349 2 8.16146 35.2657 11.0541
12327 2 2.69448 46.5198 5.427
12328 2 2.66326 43.5914 8.19837
12348 2 5.53945 32.3418 11.0387
12330 2 5.48403 43.7608 5.2752
12331 2 8.26968 46.6123 5.5056
12332 2 8.2481 43.7867 8.33855
12333 2 5.6136 46.6752 8.12739