ITEM: TIMESTEP
465000
ITEM: NUMBER OF ATOMS
18000
ITEM: BOX BOUNDS xy xz yz pp pp pp
-1.0293231615046264e-01 2.7996932316149639e+01 0.0000000000000000e+00
-1.1240333862292082e+00 3.3585203338624933e+02 0.0000000000000000e+00
-9.3567483327803791e-02 2.7987567483327076e+01 0.0000000000000000e+00
ITEM: ATOMS id type x y z
1 1 1.2062 0.243199 1.38503
2 1 3.96544 0.226796 1.51035
3 1 3.87799 0.184815 4.44609
4 1 1.34556 0.218205 4.20844
5 1 1.44963 3.05736 1.28632
6 1 4.06522 3.06616 1.32523
7 1 3.83645 2.81468 4.13084
8 1 1.25774 2.95296 4.35911
9 1 6.92646 3.01149 1.57361
10 1 9.50597 0.0902191 1.23999
11 1 9.49531 0.309784 4.03751
12 1 6.83617 3.04112 4.35924
13 1 6.94387 5.88381 1.24827
14 1 9.6195 2.99493 1.24733
15 1 9.58323 3.03999 4.11705
16 1 6.74984 5.61643 4.0918
17 1 12.3618 0.258603 1.35775
18 1 12.3558 0.200624 4.07996
19 1 12.4732 3.01796 1.29856
20 1 12.4963 3.01153 4.19733
21 1 1.2633 5.75682 1.53862
22 1 4.17698 5.7849 1.45488
23 1 3.96996 5.57136 4.27873
24 1 1.06565 5.82901 4.31317
25 1 1.20878 8.52912 1.44174
26 1 3.91745 8.78872 1.18576
27 1 3.97223 11.4467 4.34493
28 1 1.33435 8.62287 4.32667
15072 2 13.6446 9.71622 8.47566
30 1 9.82059 5.7415 1.47049
31 1 9.86724 5.72888 4.26466
32 1 6.60549 8.28522 5.1004
33 1 6.33542 10.1645 3.61435
34 1 9.72405 8.64724 1.09095
35 1 8.19799 7.74093 3.12271
36 1 6.36636 12.106 5.64184
37 1 12.4471 5.76119 1.50102
38 1 12.5926 5.85199 4.19586
39 1 12.5403 8.5581 1.36443
40 1 12.4568 8.615 4.15653
41 1 1.29108 11.55 1.38922
42 1 4.20071 11.3213 1.39435
43 1 6.9299 14.3034 3.97678
44 1 1.37851 11.4903 4.17021
45 1 1.06282 14.3552 1.43912
46 1 4.02188 14.4055 1.25353
47 1 4.06632 14.2722 4.12607
48 1 1.19701 14.4321 4.23686
49 1 4.07032 8.5258 3.96966
50 1 9.80646 11.4384 1.31361
51 1 9.87889 9.36969 4.13443
52 1 8.58927 11.8531 3.90854
53 1 6.63991 17.0423 4.12358
54 1 9.69027 14.2825 1.13581
55 1 12.3576 14.3267 4.00229
56 1 9.72792 14.5581 4.09759
57 1 12.5489 11.4912 1.11817
58 1 12.4136 11.4116 3.64259
59 1 12.4723 14.1883 1.29844
15061 2 13.8796 7.11085 5.64206
61 1 1.32423 17.0798 1.36726
62 1 4.06729 17.1062 1.47447
63 1 4.02195 17.2271 4.12898
64 1 1.17299 17.2636 4.17666
65 1 1.40291 19.8921 1.29076
66 1 4.13114 19.8672 1.22454
67 1 4.12752 19.9185 4.17084
68 1 1.26029 19.9204 4.19564
69 1 6.86641 17.059 1.35005
70 1 9.63088 17.1224 1.15004
71 1 12.0787 17.1567 4.1027
72 1 9.36328 17.2765 4.09778
73 1 6.84738 19.8611 1.13392
74 1 9.60471 19.8304 1.20117
75 1 9.63785 19.9126 3.98513
76 1 6.86917 19.9148 4.046
77 1 12.483 17.0637 1.28375
12103 2 5.45886 -1.11318 11.2386
79 1 12.4745 19.8387 1.14837
12121 2 -0.0544088 21.2647 11.1186
81 1 1.34962 22.7283 1.2346
82 1 4.13564 22.646 1.25712
83 1 4.04478 22.7821 4.14871
84 1 1.44517 22.7245 4.09322
85 1 6.73794 22.5848 1.28499
86 1 9.77493 22.5959 1.39579
87 1 9.55642 22.7246 4.08508
88 1 6.81805 22.6261 4.08547
12071 2 -0.0635704 10.0068 5.56746
15071 2 13.6943 12.7868 5.19519
91 1 1.03591 0.119699 7.11321
92 1 4.0123 0.309931 7.34341
93 1 4.24937 2.77664 9.8545
94 1 1.3752 0.406734 9.81661
95 1 1.21202 2.96637 7.12485
96 1 4.09502 3.09188 7.03406
97 1 6.70071 5.79052 9.88749
98 1 1.33213 3.1763 9.83097
99 1 6.85152 3.07058 6.98124
100 1 9.65967 0.0832038 6.99499
101 1 9.55791 0.203755 9.63595
102 1 6.84579 3.04565 9.77795
103 1 6.83319 5.98755 6.99066
104 1 9.56361 2.90409 7.03896
105 1 9.78121 2.98521 9.77902
106 1 6.86016 5.93134 12.5968
107 1 12.3339 0.205725 6.96923
108 1 12.339 0.365728 9.71911
109 1 12.5722 2.84988 6.90746
110 1 12.4913 2.97585 9.94275
111 1 1.10626 6.0013 6.93784
112 1 4.24746 5.8703 7.00639
113 1 3.98325 8.57161 9.78444
114 1 1.13565 5.88734 9.81134
115 1 1.14887 8.69725 7.02011
116 1 3.90696 8.59507 7.08398
117 1 6.69233 9.62252 7.22875
118 1 1.09853 8.64795 9.94913
119 1 9.08905 8.61343 6.78914
120 1 9.58468 5.61558 6.97801
121 1 9.5423 5.78595 9.78232
122 1 6.96299 8.64605 9.74835
123 1 8.41303 12.0053 7.31407
124 1 12.3374 8.19285 7.08417
125 1 10.7676 10.5136 7.75934
126 2 8.46021 10.0736 8.76282
127 1 12.3079 5.57604 7.11241
128 1 12.3954 5.84856 10.0114
12044 2 -0.0377034 24.1435 2.7398
130 1 12.5967 11.3419 9.91294
131 1 1.25812 11.4937 6.83015
132 1 3.88802 11.5321 7.11987
133 1 4.05334 11.3352 9.85626
134 1 1.20068 11.5758 9.62413
135 1 1.10121 14.4718 7.05463
136 1 4.06758 14.2425 6.89914
137 1 4.00774 14.2839 9.80648
138 1 1.27041 14.2301 9.80856
139 1 9.96827 14.6546 7.0121
140 1 10.5375 12.2067 5.59594
141 1 9.69327 11.341 10.09
142 1 6.79182 11.4276 9.92907
143 1 6.95213 14.4357 7.1061
144 1 9.48878 17.2086 6.92696
145 1 9.54649 14.167 9.73863
146 1 6.83263 14.292 9.8642
147 1 12.8171 14.0495 7.04353
148 1 12.5752 14.2446 9.82268
149 1 12.166 16.9906 7.12457
150 1 12.5113 16.9408 9.79531
151 1 1.27099 17.2829 7.03172
152 1 4.04597 17.043 6.86205
153 1 4.05316 17.1452 9.67195
154 1 1.28332 17.1983 9.70035
155 1 1.19715 20.0619 7.02701
156 1 4.00761 20.0044 7.08621
157 1 4.0552 19.9938 9.77813
158 1 1.36236 19.9547 9.83025
159 1 6.6959 17.2467 6.83782
160 1 12.4074 22.6123 4.17016
161 1 9.64141 17.1165 9.81904
162 1 6.82771 17.0871 9.68695
163 1 6.82125 19.9595 6.94686
164 1 9.58655 19.9159 6.93038
165 1 9.52249 19.947 9.70748
166 1 6.81009 19.8 9.81673
241 1 9.60275 8.50979 12.5426
168 1 12.2094 19.8913 9.8736
169 1 12.5925 22.8293 7.02366
170 1 12.5773 22.6354 9.69765
171 1 1.19489 22.7508 7.04425
172 1 4.10129 22.6759 7.00415
173 1 4.05499 22.7658 9.86075
174 1 1.32343 22.749 9.80273
175 1 6.88986 22.6522 6.95829
176 1 9.71471 22.5784 7.03626
177 1 9.59418 22.7359 9.80617
178 1 6.77634 22.6235 9.63723
12004 2 -0.0692713 1.64512 2.819
15116 2 13.7006 18.4553 11.3229
181 1 1.26388 0.314458 12.6165
182 1 3.97614 0.399853 12.1481
183 1 1.17719 3.16274 12.6028
184 1 4.1348 3.07928 12.6562
185 1 6.91408 0.281555 12.7446
186 1 9.71453 0.306911 12.4665
187 1 6.74461 3.07469 12.5118
188 1 9.36034 2.96664 12.6928
189 1 12.379 0.295072 12.5983
190 1 12.3987 3.0597 12.6412
191 1 1.09851 5.96796 12.5901
192 1 3.92505 5.84538 9.81453
193 1 1.21265 8.76968 12.7067
194 1 4.00195 8.82022 12.632
195 1 3.98432 5.9188 12.4715
196 1 9.71549 5.77225 12.6358
197 1 9.64221 8.54046 9.75942
198 1 12.3531 8.53906 9.8596
199 1 12.4059 5.86582 12.6656
200 1 12.4831 8.6683 12.6071
201 1 1.1804 11.6256 12.3888
202 1 4.04963 11.6538 12.6017
203 1 1.15005 14.2057 12.5324
204 1 3.99251 14.3289 12.5994
205 1 6.94969 11.4562 12.519
206 1 9.81692 11.2186 12.8288
207 1 6.81891 14.3095 12.6347
208 1 9.67687 14.1201 12.5278
209 1 12.4982 11.5282 12.5275
210 1 12.4603 14.3168 12.5821
211 1 1.14996 17.0425 12.4573
212 1 4.06889 17.1116 12.4998
213 1 1.27686 19.8673 12.6132
214 1 4.17809 19.787 12.5473
215 1 6.82641 17.129 12.6019
216 1 9.67057 17.0646 12.6392
217 1 6.93817 20.0741 12.5943
218 1 9.62467 19.9122 12.4952
219 1 12.5952 17.0422 12.5746
220 1 12.3777 19.8889 12.5975
221 1 1.2433 22.7291 12.6507
222 1 3.9707 22.668 12.6992
223 1 6.85044 22.8509 12.5543
224 1 9.63 22.8047 12.5583
225 1 12.4742 22.6434 12.5417
12125 2 10.9608 21.3021 11.1064
12110 2 11.1332 4.32679 11.2564
15032 2 13.9193 15.7956 2.80419
12124 2 8.22251 24.0936 11.1596
80 1 12.4239 22.8135 1.3338
12109 2 8.17986 7.16723 11.1906
15091 2 13.8032 24.2632 5.46428
12008 2 5.40754 1.62579 2.89406
243 1 6.78709 8.63821 12.5764
12010 2 10.9309 1.61196 2.69565
12123 2 5.52277 21.3969 11.2042
12108 2 5.32045 4.38596 11.1103
12013 2 2.66455 4.35432 2.80758
12122 2 2.66618 24.1905 11.2212
12107 2 2.44432 7.30518 11.2387
12112 2 2.61065 12.8181 11.0713
12017 2 8.31357 4.4474 2.76305
12018 2 5.73967 7.43482 2.83559
12104 2 8.29201 1.65993 11.129
12020 2 11.046 7.30366 2.73711
60 1 12.3524 19.9379 4.02544
12012 2 2.74746 7.30897 0.0904801
12023 2 2.68471 10.0686 2.70599
12120 2 11.1754 15.5704 11.1932
12102 2 2.37975 1.75764 11.2598
12113 2 5.414 10.0374 11.2935
12027 2 8.31018 9.97322 2.31661
12028 2 5.66895 12.5889 3.0446
12100 2 11.0988 24.0752 8.41065
12030 2 10.8459 12.9404 2.62851
12099 2 11.0225 21.2178 5.54864
12098 2 5.4755 24.0089 8.42324
12033 2 2.6393 15.6755 2.73988
412 1 6.98284 14.3952 1.10919
12097 2 8.34251 21.2055 8.38291
12096 2 8.21788 24.052 5.6842
12037 2 8.24886 15.7792 2.63095
12038 2 5.44275 18.4622 2.70253
12095 2 5.61322 21.2592 5.52671
12040 2 10.9352 18.4587 2.52178
29 1 6.87304 8.6443 1.11261
12093 2 2.6787 21.4106 8.40925
12043 2 2.66528 21.3151 2.73043
5723 1 6.88188 0.242166 7.00518
12092 2 2.68794 24.1384 5.59376
5634 1 6.59855 0.238702 1.52406
12047 2 8.189 21.2958 2.59389
12048 2 5.4588 24.0076 2.76325
12090 2 10.9333 18.5226 8.41233
12050 2 11.0642 23.9974 2.82792
12119 2 8.23456 18.6123 11.2354
12052 2 2.63587 1.5386 5.80032
129 1 13.2588 10.8308 6.5329
12118 2 5.37849 15.6717 11.1316
5633 1 6.79492 0.124764 4.29469
12056 2 8.17744 1.57815 5.5379
5726 1 6.5982 0.145742 9.69584
12058 2 5.63882 1.69532 8.32655
12145 2 11.0784 18.5835 13.9153
12060 2 11.0265 1.56972 8.3505
12117 2 2.7094 18.4591 11.1296
12062 2 2.68273 7.21648 5.62914
12063 2 2.6043 4.55232 8.31826
12089 2 11.1577 15.7437 5.50005
12065 2 5.4832 4.48033 5.61037
12066 2 8.21722 6.86536 5.43987
12067 2 8.24563 4.42054 8.33732
12068 2 5.37521 7.31679 8.43856
12069 2 11.1024 4.2332 5.57076
12070 2 10.9404 7.01046 8.39839
12115 2 11.1637 9.98018 11.195
12072 2 2.56369 12.9025 5.54078
12073 2 2.58465 9.9992 8.50001
12114 2 8.31859 12.8306 11.1896
12075 2 4.93124 9.9859 5.62701
12076 2 8.42689 13.332 5.51009
12077 2 7.94745 10.1903 5.49818
12078 2 5.49377 12.8225 8.28069
12079 2 11.3672 10.091 5.72238
12080 2 10.9882 12.8766 8.27228
395 1 7.0512 11.748 1.33888
12082 2 2.67477 18.6218 5.59836
12083 2 2.67018 15.7331 8.35449
15081 2 13.4432 18.3567 5.60758
12085 2 5.4848 15.7217 5.63199
12086 2 8.14793 18.5592 5.55302
12087 2 8.26609 15.7588 8.42667
12088 2 5.416 18.455 8.36687
167 1 12.1584 19.9312 7.10434
12015 2 5.54091 4.50159 -0.0109597
15012 2 13.9596 4.40226 2.74868
15022 2 13.8606 9.95457 2.61484
12002 2 2.61104 1.56411 0.0260138
15106 2 13.8301 7.15449 11.3261
12032 2 2.6901 18.4663 -0.00676335
12006 2 8.14744 1.47948 0.034232
12022 2 2.73194 12.8463 -0.0189891
15111 2 13.9075 12.8914 11.1714
15062 2 13.9378 4.24097 8.33229
15121 2 13.9605 24.034 11.086
15101 2 13.8268 1.54446 11.1513
15051 2 13.9294 1.4455 5.60189
15021 2 13.8725 12.8432 -0.0127933
12143 2 8.27972 15.651 13.9291
15001 2 13.7785 1.67166 0.0934723
12049 2 11.1964 21.265 0.0158661
15146 2 13.7955 21.2202 13.8963
15041 2 13.8627 24.1407 -0.0233538
12138 2 8.24962 9.90437 13.901
12141 2 2.6267 15.6075 13.8478
12041 2 -0.0278501 21.3085 -0.0364057
15011 2 13.8469 7.13815 0.0547961
12021 2 -0.0541205 9.99301 0.11635
12029 2 11.1507 10.0451 -0.072844
12131 2 2.49564 4.53245 13.9868
12144 2 5.51971 18.4599 13.9496
15136 2 13.8527 10.0245 13.9369
226 1 3.90447 0.249422 15.2811
227 1 1.13961 0.192308 15.3159
228 1 3.94942 2.92925 15.3023
229 1 1.14053 3.2155 15.3827
230 1 9.5662 0.162625 15.3096
231 1 6.79314 0.262823 15.5073
232 1 9.68008 3.15724 15.3716
233 1 6.89351 3.09978 15.4031
234 1 12.427 0.158129 15.4072
235 1 12.4528 3.0286 15.4167
236 1 4.09061 5.83726 15.3287
237 1 1.26027 6.05519 15.3281
238 1 4.0504 8.59065 15.4581
239 1 1.20701 8.87438 15.3724
240 1 9.60403 5.87035 15.5352
12207 2 8.25532 -1.06222 25.3514
242 1 9.54147 8.71013 15.3466
5993 1 6.75863 0.17649 23.7084
244 1 12.5183 5.84253 15.4314
245 1 12.4446 8.63656 15.3395
246 1 4.23654 11.4523 15.4172
247 1 1.25196 11.5447 15.4595
248 1 3.95853 14.1391 15.3574
249 1 1.30206 14.2886 15.2856
250 1 9.73097 11.3858 15.6227
251 1 7.01909 11.4236 15.2839
252 1 9.77447 14.2845 15.2777
253 1 7.01258 14.2302 15.3529
254 1 12.5376 11.4508 15.3133
255 1 12.5513 14.1914 15.2639
256 1 3.98518 16.884 15.4413
257 1 1.32133 17.0029 15.3684
258 1 4.04496 19.8614 15.3631
259 1 1.15644 19.8432 15.3922
260 1 9.75942 17.0666 15.493
261 1 6.82784 17.0295 15.446
262 1 9.64222 20.0199 15.2168
263 1 6.83464 19.8805 15.2281
264 1 12.6916 17.2577 15.1803
265 1 12.4046 19.979 15.4849
266 1 4.33603 22.5963 15.3149
267 1 1.41552 22.6542 15.4903
268 1 9.77845 22.7782 15.3413
269 1 7.06742 22.654 15.4887
270 1 12.5494 22.7499 15.3285
271 1 1.31056 0.359828 18.2261
272 1 3.9276 0.178255 18.1151
273 1 4.01787 0.168438 20.9348
274 1 1.28718 0.0637664 21.0365
275 1 1.13201 3.07663 18.3221
276 1 3.98594 3.20477 18.0465
277 1 3.91946 3.0518 21.0755
278 1 1.21065 2.96149 21.0608
279 1 6.81757 2.87904 18.2196
280 1 9.43875 0.117065 18.1194
281 1 9.57637 0.15055 20.9633
282 1 6.6245 2.892 21.0014
283 1 6.8826 5.78082 18.2787
284 1 9.53924 3.0038 18.1923
285 1 9.53345 2.90604 20.8682
286 1 6.77255 5.92454 23.9082
287 1 12.3975 0.25788 18.1854
288 1 12.34 0.156122 20.9722
289 1 12.4659 2.94947 18.1409
290 1 12.3629 2.91252 20.9674
291 1 1.15822 5.94049 18.3356
292 1 4.12869 5.93974 18.1229
293 1 3.9574 5.93461 20.9981
294 1 1.29857 5.82908 21.1607
295 1 1.01499 8.79548 18.2404
296 1 4.08527 8.7363 18.3138
297 1 4.04392 8.58837 21.1409
298 1 1.09557 8.63232 21.108
299 1 6.77651 5.96206 15.4321
300 1 9.6138 5.81175 18.2498
301 1 9.71815 5.8586 21.069
302 1 6.74972 5.82128 21.122
303 1 6.68695 8.57052 15.2432
304 1 9.72914 8.54591 18.1845
305 1 9.74468 8.69866 20.9925
306 1 6.94768 8.68542 18.2974
307 1 12.3802 5.69476 18.2334
308 1 12.467 5.67147 20.8876
309 1 12.4278 8.59593 18.2057
310 1 12.4446 8.53102 21.1427
311 1 1.105 11.5935 18.1819
312 1 3.97013 11.4781 18.2177
313 1 3.88179 11.3559 21.0494
314 1 1.1146 11.5027 20.9786
315 1 1.16125 14.3326 18.0526
316 1 4.02648 14.3908 18.103
317 1 4.02357 14.3235 20.9302
318 1 1.35044 14.2179 20.9376
319 1 6.78745 11.4407 18.147
320 1 9.62609 11.4467 18.1937
321 1 9.7355 11.3811 21.1273
322 1 6.86748 11.4238 21.0603
323 1 6.92969 14.3122 18.2779
324 1 9.78849 14.1056 18.1127
325 1 9.63061 14.275 20.9205
326 1 6.85751 14.15 21.0912
327 1 12.5443 11.301 18.0497
328 1 12.5097 11.4011 20.9115
329 1 12.6453 14.1625 18.0279
330 1 12.5884 14.2013 20.8239
331 1 1.27181 17.2448 18.2764
332 1 4.00916 17.1027 18.2147
333 1 4.0228 17.023 20.9132
334 1 1.27989 17.1474 21.1255
335 1 1.43423 19.9718 18.2337
336 1 4.16743 19.8263 18.1116
337 1 4.04363 19.7976 21.0244
338 1 1.26593 19.9533 21.1169
339 1 6.76981 17.0301 18.0991
340 1 9.58532 17.0987 18.3165
341 1 9.66961 17.02 20.9072
342 1 6.81723 17.0269 20.914
343 1 6.93479 19.7758 18.0576
344 1 9.69053 19.9769 17.9843
345 1 9.71471 19.9314 20.8097
346 1 6.88576 19.7921 20.8307
347 1 12.5217 16.9537 18.1447
348 1 12.577 16.9337 21.0435
349 1 12.5493 19.9424 18.1988
350 1 12.5742 19.7433 21.0203
351 1 1.34476 22.7602 18.2667
352 1 4.20512 22.5804 18.1009
353 1 4.06541 22.7477 20.9359
354 1 1.23926 22.5745 20.8688
355 1 6.96833 22.5664 18.1835
356 1 9.70757 22.6772 18.2449
357 1 9.86724 22.6654 20.9471
358 1 7.05389 22.4792 20.926
359 1 12.3859 22.8231 18.1439
360 1 12.6558 22.6871 20.7988
361 1 1.23244 0.188944 23.8143
362 1 3.92179 0.171346 23.8405
363 1 3.9324 0.319908 26.7522
364 1 1.22392 0.350473 26.5115
365 1 1.40806 2.94807 24.0682
366 1 4.00236 3.00679 23.8304
367 1 4.02243 3.0548 26.6888
368 1 1.1329 3.13315 26.6993
369 1 6.7105 2.98767 23.8156
370 1 9.60344 0.143243 23.7641
371 1 9.59358 0.271825 26.6821
372 1 6.82437 2.85145 26.4986
373 1 6.85341 5.7336 26.7169
374 1 9.45543 2.90782 23.6924
375 1 9.5525 3.08611 26.5424
376 1 9.51154 5.90175 26.599
377 1 12.3846 0.0553784 23.838
378 1 12.3744 0.20073 26.6642
379 1 12.3534 2.89971 23.7383
380 1 12.357 2.93487 26.5332
381 1 1.00409 5.90276 24.0307
382 1 3.90386 5.75902 23.8895
383 1 4.03358 5.86475 26.7277
384 1 1.30297 6.00046 26.8353
385 1 1.28644 8.59817 23.9362
386 1 4.20948 8.56471 23.8922
387 1 3.95601 8.80277 26.6159
388 1 1.33403 8.6738 26.7896
389 1 7.08232 8.7508 23.8805
390 1 9.64445 5.75217 23.6934
391 1 9.74971 8.78847 26.4874
392 1 6.85987 8.63574 26.5612
393 1 6.95903 8.59441 21.0402
394 1 9.84576 8.50915 23.7297
12046 2 8.27739 23.9559 27.9092
396 1 6.87718 11.5734 26.648
397 1 12.5881 5.50966 23.8269
398 1 12.2776 5.91171 26.7858
399 1 12.5198 8.46642 23.9376
400 1 12.5048 8.70252 26.6758
401 1 1.24985 11.5006 23.9046
402 1 4.0786 11.4058 23.8079
403 1 4.05145 11.6014 26.6215
404 1 1.20645 11.4221 26.7833
405 1 1.19725 14.1926 23.8126
406 1 4.00722 14.2083 23.685
407 1 4.16561 14.3018 26.4704
408 1 1.4062 14.1857 26.7179
409 1 6.87292 11.6324 23.8489
410 1 9.66984 11.4936 23.9496
411 1 9.71471 11.454 26.6195
12234 2 -0.062831 18.6353 25.153
413 1 6.87941 14.2459 23.7816
414 1 9.80067 14.3103 23.7157
415 1 9.60891 14.3486 26.5074
416 1 6.80684 14.3349 26.4403
417 1 12.594 11.3808 23.7433
418 1 12.4319 11.4457 26.6156
419 1 12.6225 14.1254 23.4975
420 1 12.4423 14.4423 26.4537
421 1 1.29876 16.9223 23.8988
422 1 4.08679 17.0227 23.8453
423 1 4.07975 17.165 26.7077
424 1 1.16875 17.085 26.6634
425 1 1.40724 20.0658 23.7591
426 1 4.14168 19.7637 23.8774
427 1 4.09152 19.9641 26.5453
428 1 1.168 19.9449 26.536
429 1 6.89424 17.0067 23.8455
430 1 9.71679 17.0638 23.669
431 1 9.74502 17.2334 26.3765
432 1 6.91669 17.1353 26.594
433 1 6.97298 19.8743 23.5661
434 1 9.81052 19.7996 23.6199
435 1 9.78469 19.8788 26.5483
436 1 6.8533 19.9067 26.4867
437 1 12.4803 17.1266 23.6808
438 1 12.5506 17.1821 26.465
439 1 12.6947 19.8979 23.6549
440 1 12.5048 19.9568 26.4317
441 1 1.21276 22.8373 23.672
442 1 4.04463 22.4549 23.6914
443 1 4.1248 22.6916 26.5958
444 1 1.25125 22.6797 26.541
445 1 6.92736 22.6686 23.844
446 1 9.76064 22.5733 23.767
447 1 9.80409 22.6628 26.5746
448 1 6.96924 22.6461 26.6351
449 1 12.5552 22.7166 23.7899
450 1 12.4367 22.7714 26.6468
15131 2 13.7833 4.42518 13.9592
12250 2 11.1195 24.0118 25.1533
12203 2 2.58326 -1.07822 25.304
12136 2 2.61215 10.2256 14.0741
5906 1 6.70062 0.144823 20.9437
15126 2 13.8537 -1.10939 14.0983
12249 2 11.1809 21.1843 22.2716
12184 2 -0.0438321 18.5419 19.7091
12130 2 11.088 1.51325 13.981
15161 2 13.8131 7.1192 16.6823
12231 2 -0.151313 15.5698 22.4512
12248 2 5.52116 24.0633 25.1711
15222 2 13.8665 9.87551 25.2452
15232 2 13.8939 15.6518 25.0181
15212 2 13.9329 4.272 25.3579
12134 2 5.36305 7.17759 14.0187
15172 2 13.8829 9.90899 19.6647
12191 2 -0.0655402 21.3008 16.8122
12220 2 11.0336 7.15419 25.2569
12026 2 8.19748 13.0076 27.9269
12232 2 2.70616 18.4252 22.5155
12216 2 8.27779 7.25518 22.5526
5903 1 6.74236 0.154399 18.2924
12219 2 11.0099 4.34374 22.3587
12218 2 5.50911 7.29006 25.2035
12247 2 8.44253 21.1271 25.0832
12152 2 2.60634 1.58763 16.7376
12227 2 8.38563 10.1613 25.2137
12246 2 8.42241 23.8685 22.2849
12230 2 11.0932 12.9528 25.2122
12156 2 8.26364 1.71539 16.8008
12229 2 11.1083 9.93337 22.5319
12158 2 5.33242 1.53061 19.6229
12217 2 8.10225 4.36203 25.1832
12160 2 10.9794 1.46161 19.4927
12245 2 5.48002 21.2187 22.4741
12162 2 2.60028 7.29307 16.9238
12163 2 2.60589 4.49832 19.6538
12228 2 5.39101 12.8853 25.1515
12165 2 5.32415 4.38737 16.64
12166 2 8.24226 7.28314 16.8485
12167 2 8.18454 4.32946 19.5279
12168 2 5.52363 7.20462 19.6957
12169 2 11.0717 4.39116 16.8245
12170 2 11.0243 7.16035 19.5681
12243 2 2.59754 21.2546 25.2048
12172 2 2.6271 12.9801 16.8101
12173 2 2.52191 10.0959 19.7123
12242 2 2.7239 24.0783 22.4265
12175 2 5.5092 10.0394 16.793
12176 2 8.29128 12.8565 16.7808
12177 2 8.25442 10.1075 19.5904
12178 2 5.35285 12.78 19.7456
12179 2 11.1418 9.93071 16.8131
12180 2 11.1108 12.7345 19.5311
12236 2 8.30814 18.3826 22.2496
12182 2 2.62962 18.4407 16.6941
12183 2 2.58412 15.6115 19.5493
12223 2 2.58554 9.9488 25.2693
12185 2 5.45548 15.603 16.778
12186 2 8.27533 18.3533 16.729
12187 2 8.18048 15.6996 19.5594
12188 2 5.45073 18.3279 19.5878
12189 2 11.252 15.6067 16.7648
12190 2 11.2502 18.3713 19.5222
12226 2 8.45315 12.723 22.3976
12192 2 2.6792 24.0678 16.8458
12193 2 2.84959 21.1994 19.5652
12225 2 5.60581 10.0821 22.4447
12195 2 5.5374 21.1895 16.7548
12196 2 8.20575 24.08 16.9662
12197 2 8.32023 21.1809 19.451
12198 2 5.52498 23.9723 19.558
12199 2 11.0524 21.3433 16.6967
12200 2 11.1798 24.0579 19.5617
12240 2 11.2387 18.5485 25.0942
12202 2 2.65061 1.60521 22.5144
5996 1 6.89895 0.11182 26.7526
12239 2 11.0859 15.5502 22.2505
12222 2 2.69707 12.7959 22.4876
12206 2 8.02151 1.57643 22.2884
12235 2 5.44039 15.6073 22.3698
12208 2 5.33401 1.58956 25.1802
12233 2 2.65415 15.5699 25.2889
12210 2 10.975 1.60477 25.2283
12238 2 5.44522 18.35 25.2399
12212 2 2.53837 7.23819 22.5458
12213 2 2.58049 4.50023 25.4336
12237 2 8.33193 15.7667 25.0954
12215 2 5.37692 4.45519 22.4128
15211 2 13.8532 7.06959 22.4279
12139 2 5.58234 12.8594 13.9387
15151 2 13.864 1.66867 16.8019
15192 2 13.8601 21.2044 19.5696
12133 2 8.09778 4.39376 13.9816
12214 2 -0.120104 7.32954 25.4134
12154 2 -0.157065 1.58595 19.5992
12039 2 11.2007 15.6963 27.8924
15162 2 13.7898 4.25479 19.5932
12036 2 8.33021 18.495 27.8451
12142 2 -0.106608 18.5124 13.9631
12135 2 11.0726 7.15937 14.053
15201 2 13.7437 1.46087 22.3902
15031 2 13.8914 18.4585 27.9154
12137 2 -0.0745797 12.8739 14.0261
12019 2 11.0461 4.41101 27.9211
12148 2 8.18923 21.3978 13.9612
12140 2 11.0914 12.6454 14.0503
12045 2 5.52917 21.237 27.9033
12150 2 11.2243 24.1281 14.0634
12149 2 5.49169 24.0787 14.1515
12035 2 5.51218 15.6558 27.9536
12042 2 2.57791 24.1066 27.8647
15141 2 13.9401 15.527 13.9797
12025 2 5.47512 10.1132 27.9312
12129 2 5.45222 1.67651 14.0849
12146 2 2.81342 21.2668 13.9943
12016 2 8.27321 7.23116 27.9479
451 1 1.33753 25.5824 1.33696
452 1 4.11991 25.3341 1.22543
453 1 3.89593 25.5092 4.09992
454 1 1.1921 25.5289 4.23877
455 1 6.87063 25.352 1.35929
456 1 9.74054 25.5309 1.35152
457 1 9.62286 25.596 4.21839
458 1 6.85542 25.413 4.0281
459 1 12.568 31.1537 1.31041
460 1 12.5396 28.3281 4.20534
461 1 1.07025 28.4891 1.30124
462 1 4.02598 28.038 1.24524
463 1 4.09011 28.2733 4.23619
464 1 1.23642 28.2542 4.10408
465 1 1.23979 31.2445 1.36764
466 1 3.96586 30.8318 1.28762
467 1 3.90455 31.036 4.08954
468 1 1.11719 31.0263 4.0474
469 1 7.12815 28.0999 1.27632
470 1 9.81766 28.2809 1.26381
471 1 9.67111 28.5289 4.20891
472 1 6.95722 28.4261 4.2301
473 1 6.78602 30.855 1.35365
12341 2 0.0302876 26.94 11.0907
475 1 9.66317 31.3938 4.05744
476 1 6.73067 31.3591 4.09038
477 1 9.80558 31.0618 1.22488
478 1 9.64395 34.0754 1.57392
901 1 1.11605 50.7434 1.3856
911 1 9.81088 50.6613 4.10321
481 1 0.882358 34.0403 1.12901
482 1 4.16242 33.7096 0.998062
483 1 4.04043 33.6541 4.1053
484 1 1.2123 33.7229 4.20121
15351 2 13.9309 40.9768 11.1134
486 1 2.68652 35.377 2.50743
487 1 3.86519 36.8802 4.32361
488 1 1.14373 36.7394 4.23682
489 1 6.65093 34.2701 1.89646
847 1 0.947413 36.9172 1.39415
491 1 9.71858 34.2815 4.34187
492 1 6.82859 34.2427 4.60501
493 1 4.43595 36.5751 1.05191
494 1 9.7772 36.5603 1.79686
495 1 9.25613 36.8313 4.46937
496 1 6.64379 36.82 3.53998
497 1 12.7198 33.9781 1.28917
498 1 12.4927 33.8314 4.22774
499 1 12.5167 36.8576 1.32971
500 1 12.4402 36.8161 4.3395
501 1 1.32892 39.5189 1.3463
502 1 4.0852 39.5343 1.23498
503 1 4.11788 39.5199 4.00501
504 1 1.26586 39.6226 4.07885
505 1 1.38258 42.2519 1.46732
506 1 4.05498 42.5233 1.3552
507 1 4.03349 42.3118 4.13743
508 1 1.11261 42.4044 4.15347
509 1 6.90794 39.4788 1.44043
510 1 9.79744 39.4663 1.29788
511 1 9.80187 39.4658 4.24351
512 1 6.90813 39.7172 4.24682
513 1 6.88048 42.2845 1.35563
514 1 9.72032 42.2212 1.41171
515 1 9.82841 42.3276 4.08129
516 1 6.9497 42.3016 4.16487
517 1 12.5588 39.6101 1.45558
518 1 12.6135 39.6973 4.20751
519 1 12.5195 42.4789 1.4198
520 1 12.5636 42.3831 4.15517
521 1 1.40612 45.1046 1.33598
522 1 4.19327 45.3663 1.39594
523 1 3.93789 45.2209 4.06892
524 1 1.23356 45.3635 4.20217
525 1 1.30484 47.9618 1.40378
526 1 4.00975 48.045 1.41804
527 1 4.06765 48.115 4.21396
528 1 1.23696 48.1618 4.07779
529 1 6.92711 45.141 1.34649
530 1 9.68758 45.1109 1.25354
531 1 9.75065 45.122 4.10664
532 1 6.90413 45.2581 4.14449
533 1 6.87427 47.9498 1.31837
534 1 9.48884 47.841 1.38356
535 1 9.67271 47.8411 4.09685
536 1 6.97619 47.9867 4.1901
537 1 12.6686 45.3056 1.38664
538 1 12.5263 45.2791 4.07309
539 1 12.4097 48.0084 1.28307
540 1 12.6271 47.9822 4.10604
541 1 1.24772 25.677 6.95849
542 1 4.07685 25.44 7.10225
543 1 3.97345 25.6713 9.96448
544 1 1.2231 25.534 9.73174
545 1 6.95651 25.5217 6.97999
546 1 9.58476 25.3041 7.1495
547 1 9.52878 25.6118 9.97119
548 1 6.69197 25.4678 9.72821
549 1 12.3222 28.406 6.98572
550 1 12.4082 25.5713 9.84855
551 1 1.24145 28.3211 6.97625
552 1 4.02258 28.2016 6.86182
553 1 4.0545 28.3901 9.76368
554 1 1.37352 28.3113 9.79554
555 1 1.17412 31.1121 6.95592
556 1 4.01066 31.0267 6.96789
557 1 3.99821 31.2917 9.80365
558 1 1.17136 31.0011 9.84031
559 1 6.83192 28.4009 7.07605
560 1 9.68459 28.1737 6.96227
561 1 9.63136 28.4063 9.68373
562 1 6.84057 28.341 9.80962
563 1 6.914 31.1712 6.965
564 1 9.62426 31.2019 6.841
565 1 9.50546 31.12 9.74654
566 1 6.82928 31.2247 9.87393
567 1 12.3805 31.3494 6.91901
568 1 12.4644 28.4324 9.73716
90 1 12.5733 25.5099 1.28656
570 1 12.2796 31.3449 9.63851
571 1 1.2571 33.88 6.93534
572 1 4.03212 34.0073 6.82509
573 1 4.03626 33.9253 9.76159
574 1 1.42064 34.0489 9.78626
575 1 1.27854 36.9154 6.99205
576 1 4.07763 36.7427 7.11265
577 1 4.21783 36.6813 9.88426
578 1 1.18709 36.7941 9.74262
579 1 6.9751 33.9048 7.37966
580 1 9.87926 33.8677 7.06904
581 1 9.70251 33.9525 9.8359
582 1 6.81915 33.9968 10.0312
583 1 6.67014 36.6603 6.6499
584 1 9.7852 36.7596 7.16711
585 1 9.67306 36.8512 9.84038
586 1 6.91826 36.6404 9.5895
587 1 12.729 34.1301 7.03207
588 1 12.405 33.9999 9.76967
589 1 12.685 36.7832 7.01343
590 1 12.5545 36.8421 9.87097
591 1 1.32476 39.5682 7.00129
592 1 4.19427 39.5218 7.0414
593 1 4.11533 39.5728 9.94284
594 1 1.24426 39.649 9.78255
595 1 1.4141 42.3298 6.80925
596 1 4.10987 42.3804 6.90888
597 1 4.13659 42.3514 9.77555
598 1 1.5094 42.4064 9.7447
599 1 6.90289 39.4615 7.10722
600 1 9.65554 39.5012 7.05624
601 1 9.62772 39.5522 9.85642
602 1 6.87379 39.5128 9.84572
603 1 6.86847 42.3397 6.98803
604 1 9.6021 42.4356 6.95609
605 1 9.65626 42.2028 9.81817
606 1 6.86316 42.3938 9.87666
607 1 12.5924 39.5933 6.94507
608 1 12.3151 39.5033 9.69836
609 1 12.337 42.2732 7.03991
610 1 12.5119 42.3526 9.79663
611 1 1.31723 45.1406 6.91712
612 1 4.19406 45.1793 6.9812
613 1 4.22223 45.15 9.77327
614 1 1.22054 45.2485 9.75107
615 1 1.37917 48.1082 6.84675
616 1 4.04245 48.0625 6.95883
617 1 4.1121 48.0794 9.91032
618 1 1.2894 48.0685 9.71837
619 1 6.88622 45.2683 7.04426
620 1 9.60336 45.1259 6.96929
621 1 9.65533 45.1339 9.72398
622 1 6.90842 45.3335 9.70365
623 1 6.85109 48.1928 7.00631
624 1 9.74274 47.9113 7.04006
625 1 9.71526 47.9517 9.81867
626 1 6.88424 48.1184 9.7795
627 1 12.4556 45.2116 7.09218
628 1 12.4513 45.1613 9.74065
629 1 12.4413 48.0633 6.85023
630 1 12.556 47.8968 9.61508
631 1 1.21605 25.4998 12.6004
632 1 4.08119 25.4595 12.7086
633 1 6.92917 25.4305 12.6138
634 1 9.66039 25.4585 12.7477
635 1 12.5963 25.4047 12.5743
636 1 1.3762 28.5453 12.5659
637 1 4.18607 28.3172 12.663
638 1 1.30312 31.2292 12.626
639 1 4.0261 31.2495 12.6361
640 1 6.88615 28.201 12.5493
641 1 9.71346 28.2813 12.5254
642 1 7.08992 31.1616 12.7207
643 1 9.75609 31.0708 12.5922
644 1 12.5549 28.346 12.4624
645 1 12.497 31.1182 12.5522
646 1 1.35611 34.0777 12.5801
647 1 4.13753 34.113 12.628
648 1 1.20647 36.8125 12.4967
649 1 4.23049 36.8501 12.6835
650 1 6.8579 33.927 12.5545
651 1 9.60693 34.0126 12.5789
652 1 6.96832 36.8337 12.52
653 1 9.736 36.8882 12.621
654 1 12.4827 33.923 12.6711
655 1 12.555 36.7229 12.6209
656 1 1.23966 39.6332 12.7474
657 1 4.03052 39.6189 12.6644
658 1 1.28098 42.2452 12.696
659 1 4.00085 42.4611 12.6415
660 1 6.81187 39.7722 12.5017
661 1 9.6417 39.7089 12.6597
662 1 6.77737 42.4842 12.6656
663 1 9.56796 42.4857 12.6376
664 1 12.3813 39.3958 12.6472
665 1 12.4899 42.3082 12.5629
666 1 1.26054 45.2198 12.6143
667 1 4.0327 45.2815 12.5794
668 1 1.27083 48.1354 12.5064
669 1 3.99283 47.9891 12.6359
670 1 6.85716 45.2947 12.5407
671 1 9.73119 45.0772 12.6461
672 1 6.96854 48.0521 12.67
673 1 9.80393 47.813 12.6527
674 1 12.6495 44.9711 12.5358
675 1 12.5312 47.9468 12.7012
12363 2 11.3067 49.3165 11.1141
89 1 12.5661 28.3907 1.38724
12253 2 2.65503 26.8541 2.76652
12362 2 5.65657 49.4752 11.1281
15252 2 13.8482 26.8915 2.80396
180 1 12.4344 25.5167 6.92923
12257 2 8.41289 26.8117 2.78604
12258 2 5.37199 29.501 2.71196
12361 2 -0.0316898 49.4995 11.1834
12260 2 11.274 29.6784 2.88814
12360 2 11.1975 43.8004 11.1854
912 1 6.93241 50.7761 4.14506
12263 2 2.62104 32.5123 2.68796
12359 2 8.42946 46.6788 11.1436
15341 2 13.9009 29.623 11.1529
15356 2 13.847 46.3989 11.1464
12267 2 8.20598 32.1593 2.52301
12268 2 4.90117 35.302 3.0114
12345 2 10.9461 26.9141 11.2491
12270 2 11.5188 35.3509 2.72711
12358 2 5.4661 43.8087 11.1943
12344 2 8.2922 29.7077 11.2115
12273 2 2.61578 38.127 2.83597
12357 2 2.71486 46.6388 11.1862
12343 2 5.48597 26.7942 11.1896
179 1 12.5016 25.5989 4.16386
12277 2 8.33178 38.5044 2.8688
12278 2 5.47572 41.0144 2.77685
12282 2 2.63842 46.6374 0.00140326
12280 2 11.1647 40.9967 2.73505
12355 2 10.9997 38.3164 11.1659
15327 2 13.8102 43.7314 8.39514
12283 2 2.70212 43.9521 2.78267
12354 2 8.27027 41.0664 11.3768
851 1 7.25081 36.4896 0.823291
12342 2 2.73842 29.7745 11.1986
12287 2 8.26599 43.7675 2.74695
12288 2 5.5891 46.8111 2.69743
12340 2 11.1511 49.4056 5.51589
12290 2 11.0716 46.5762 2.7544
12353 2 5.57535 38.2624 11.2015
12292 2 2.6625 49.405 2.75534
12293 2 5.41287 49.3774 -0.103172
12294 2 8.32486 49.3553 2.63521
15307 2 13.9411 32.6388 8.45816
12339 2 8.34506 49.5004 8.32671
12297 2 2.58463 29.6019 5.57393
12298 2 2.64988 26.9339 8.3807
12338 2 5.40985 49.4937 5.5575
12300 2 5.48578 26.8319 5.74657
12301 2 8.07318 29.7129 5.52934
12302 2 8.32237 27.0103 8.38823
12303 2 5.53736 29.795 8.40817
12304 2 10.94 26.9325 5.53717
12305 2 11.0117 29.8519 8.26517
12352 2 2.64268 41.0542 11.3056
12307 2 2.45938 35.3717 5.46136
12308 2 2.63976 32.6 8.3017
569 1 12.5108 31.1641 4.10371
12310 2 5.42463 32.4446 5.57927
12311 2 8.35502 35.234 6.12242
12312 2 8.30735 32.4948 8.43913
12313 2 5.22674 35.2659 8.29958
12314 2 11.0044 32.6994 5.56872
12315 2 11.2233 35.4081 8.55979
12266 2 8.19842 35.3659 3.01589
12317 2 2.6071 41.0547 5.47202
12318 2 2.64429 38.2613 8.39479
12350 2 11.0258 32.5593 11.1468