ITEM: TIMESTEP
135000
ITEM: NUMBER OF ATOMS
18000
ITEM: BOX BOUNDS xy xz yz pp pp pp
-1.0337952015396001e-01 2.7997379520154862e+01 0.0000000000000000e+00
-1.1168981506738305e+00 3.3584489815068116e+02 0.0000000000000000e+00
-9.8255795169624738e-02 2.7992255795169608e+01 0.0000000000000000e+00
ITEM: ATOMS id type x y z
1 1 1.47145 0.358577 1.11298
2 1 4.32923 0.170545 1.39269
3 1 4.07716 0.173875 4.17277
4 1 1.22203 0.135656 3.97574
5 1 1.43048 3.05812 1.14659
6 1 4.23861 2.98109 1.28437
7 1 4.25701 2.97866 4.09535
8 1 1.41254 3.04207 4.0329
9 1 7.11651 2.91702 1.44917
10 1 9.86948 0.273905 1.19397
11 1 9.73398 0.270542 3.98743
12 1 7.12595 2.91411 4.06873
13 1 7.06891 5.8236 1.31883
14 1 9.98593 3.15257 1.32318
15 1 9.79439 2.96021 4.11138
16 1 7.21745 5.50751 4.2131
17 1 12.6799 0.189138 1.24277
18 1 12.6386 0.12567 4.10937
19 1 12.7484 3.1928 1.26973
20 1 12.5736 3.11977 3.95368
21 1 1.45423 5.9712 1.31644
22 1 4.24581 5.76308 1.27579
23 1 4.42476 5.90715 4.06874
24 1 1.53053 5.67065 4.08152
25 1 1.30366 8.81621 1.16765
26 1 4.22508 8.60078 1.23661
27 1 3.90602 11.485 4.08444
28 1 1.36938 8.63416 4.03318
12057 2 8.30357 -1.10782 8.23537
30 1 9.77105 5.78175 1.25591
31 1 9.99328 5.79962 4.03601
32 1 6.65294 8.33579 5.72644
33 1 6.38186 10.2913 3.56093
34 1 9.8394 8.69084 1.12605
35 1 7.87421 7.93256 3.30766
36 1 6.46558 12.2262 5.37759
37 1 12.5984 6.02264 1.35386
38 1 12.728 6.02168 4.03495
39 1 12.6121 8.8445 1.36135
40 1 12.8711 8.77589 4.16272
41 1 1.42083 11.478 1.22309
42 1 4.15232 11.3143 1.39643
43 1 7.11382 14.4061 4.03736
44 1 1.21097 11.4668 4.16453
45 1 1.30694 14.2846 1.36956
46 1 4.09989 14.3382 1.31109
47 1 4.17006 14.2582 4.22479
48 1 1.2923 14.2641 4.15883
49 1 4.01252 8.58081 3.88508
50 1 9.69339 11.4091 1.34715
51 1 9.91249 9.25603 4.57638
52 1 8.88045 11.7583 4.05647
53 1 6.7632 17.0898 4.09823
54 1 9.66671 14.2698 1.37249
55 1 12.5973 14.436 4.13732
56 1 9.83472 14.5358 4.02212
57 1 12.6456 11.6086 1.1654
58 1 12.6171 11.4454 3.80551
59 1 12.6146 14.2082 1.56983
12054 2 0.111131 1.6443 8.26719
61 1 1.41567 16.9919 1.27265
62 1 4.22545 17.1791 1.38799
63 1 4.05194 16.9417 4.12833
64 1 1.34607 17.0508 4.20722
65 1 1.4808 19.8076 1.3182
66 1 4.19552 19.9843 1.14875
67 1 4.35748 19.8884 3.99145
68 1 1.54679 19.8595 4.04111
69 1 7.07911 17.2293 1.20159
70 1 9.76122 17.2186 1.28185
71 1 12.3484 17.1703 4.04228
72 1 9.46347 17.0992 4.16386
73 1 7.05982 20.0468 1.25568
74 1 9.86686 19.975 1.14406
75 1 9.82247 19.9217 4.10367
76 1 7.15084 19.8831 4.10064
77 1 12.6307 17.216 1.41593
15121 2 13.9158 24.1228 11.2175
79 1 12.6826 19.9492 1.18592
12029 2 11.1978 10.1353 0.0452428
81 1 1.26961 22.7083 1.24971
82 1 4.316 22.7408 1.28278
83 1 4.22976 22.6519 4.15583
84 1 1.45409 22.598 3.97763
85 1 7.14881 22.7918 1.34378
86 1 9.90028 22.7637 1.32789
87 1 9.88427 22.7876 3.99299
88 1 6.98764 22.7911 4.08762
12003 2 2.68165 -1.10598 2.69936
12116 2 -0.0106944 15.739 11.3231
91 1 1.49348 0.180344 6.78977
92 1 4.26156 0.266642 7.29849
93 1 4.2358 3.03631 9.69345
94 1 2.07408 0.412961 9.47327
95 1 1.38311 3.12701 6.83374
96 1 4.29951 2.87128 6.95733
97 1 6.99243 5.90959 9.89781
98 1 1.34866 3.08313 9.61686
99 1 7.11668 3.19045 6.938
100 1 9.69117 0.14405 6.79084
101 1 9.64084 0.167198 9.78901
102 1 6.95269 3.09899 9.68411
103 1 6.95199 5.90856 7.1301
104 1 9.90248 3.06078 7.03569
105 1 9.78463 3.03313 9.81765
106 1 6.93066 5.88801 12.6139
107 1 12.5167 0.258917 6.91209
108 1 12.6321 0.13573 9.62573
109 1 12.6555 3.0034 6.94913
110 1 12.4587 2.87304 9.71484
111 1 1.47528 5.87372 6.94976
112 1 4.12475 5.87105 6.80224
113 1 4.20319 8.87892 9.75218
114 1 1.42251 5.91116 9.78222
115 1 1.33056 8.77317 6.91288
116 1 3.97849 8.49104 7.00622
117 1 6.39158 10.1793 7.37265
118 1 1.34532 8.65447 9.72736
119 1 9.0088 8.52057 7.12093
120 1 10.0843 5.91536 6.83328
121 1 9.73699 5.88638 9.74109
122 1 7.11186 8.62971 9.71875
123 1 8.63846 11.8598 7.28382
124 1 12.6356 8.54059 6.94301
125 1 10.7333 10.481 7.77924
126 2 8.50322 10.1333 8.83319
127 1 12.7154 5.78727 6.82172
128 1 12.6342 5.81501 9.73193
12044 2 0.025062 24.1331 2.72873
130 1 12.6677 11.3555 9.72345
131 1 1.23241 11.5377 7.10377
132 1 3.8462 11.4583 6.97018
133 1 4.10889 11.6018 9.69043
134 1 1.25954 11.5556 9.90415
135 1 1.27544 14.2586 7.14021
136 1 4.05921 14.3092 7.0859
137 1 4.12306 14.4165 9.87871
138 1 1.29124 14.2163 10.0087
139 1 9.78103 14.479 7.01162
140 1 10.8528 12.3165 5.57782
141 1 9.64428 11.5686 10.125
142 1 6.90932 11.4126 9.78793
143 1 6.97817 14.4534 7.00327
144 1 9.61713 17.3388 7.02605
145 1 9.68606 14.2492 9.63718
146 1 6.90896 14.3198 9.93267
147 1 12.5176 14.2496 7.01248
148 1 12.6619 14.385 9.79819
149 1 12.2604 17.2551 6.81458
150 1 12.7886 17.128 9.76804
151 1 1.33257 17.0518 7.02317
152 1 4.01144 17.0792 7.02289
153 1 4.12565 17.2164 9.76147
154 1 1.41867 17.0728 9.82799
155 1 1.24208 19.8874 7.0728
156 1 4.09607 20.0056 6.83527
157 1 4.17595 19.9274 9.74972
158 1 1.31901 19.8178 9.76896
159 1 6.73594 17.1486 6.8385
160 1 12.7186 22.8906 4.11312
161 1 9.89752 17.1766 9.84152
162 1 7.0173 17.1679 9.60377
163 1 6.92335 19.9045 6.94931
164 1 9.77498 20.054 7.09975
165 1 9.83838 19.8558 9.86446
166 1 6.9723 19.9134 9.85266
241 1 9.84237 8.75791 12.8252
168 1 12.517 19.8959 9.82632
169 1 12.5791 22.7386 7.04969
170 1 12.5274 22.669 9.88631
171 1 1.28155 22.7678 6.90592
172 1 4.13212 22.6952 7.10613
173 1 4.14841 22.8873 9.74152
174 1 1.29219 22.7811 9.87392
175 1 6.97898 22.7475 6.95339
176 1 9.64464 22.7623 6.90488
177 1 9.66461 22.7579 9.69232
178 1 6.93467 22.8517 9.79065
12127 2 0.149695 1.58105 13.9351
12064 2 -0.00458922 7.33101 8.3221
181 1 1.41774 0.320106 12.5054
182 1 4.19498 0.10581 12.2181
183 1 1.30939 3.04222 12.406
184 1 4.21183 3.14151 12.4563
185 1 6.9023 0.246675 12.5842
186 1 9.79852 0.128013 12.568
187 1 6.91333 3.03524 12.4045
188 1 9.84777 2.93883 12.6769
189 1 12.5011 0.177573 12.3452
190 1 12.5002 2.88042 12.4751
191 1 1.39032 5.87396 12.4944
192 1 4.23447 5.93685 9.59106
193 1 1.23253 8.59554 12.5687
194 1 4.20414 8.74006 12.5152
195 1 4.0473 6.07928 12.5086
196 1 9.76646 5.90904 12.6464
197 1 9.93136 8.62756 10.0838
198 1 12.7344 8.56151 9.82264
199 1 12.6153 5.6821 12.5324
200 1 12.6039 8.50419 12.6997
201 1 1.42476 11.4221 12.6267
202 1 4.14048 11.4983 12.5656
203 1 1.19635 14.3824 12.6595
204 1 4.1111 14.4288 12.6756
205 1 6.92339 11.5095 12.7156
206 1 9.66306 11.6116 12.8164
207 1 6.74416 14.4854 12.5652
208 1 9.7446 14.5135 12.3599
209 1 12.593 11.4152 12.556
210 1 12.4812 14.3504 12.6011
211 1 1.41451 17.2103 12.6812
212 1 4.1341 17.1307 12.6061
213 1 1.25215 19.8815 12.5829
214 1 4.02556 19.8516 12.562
215 1 6.9579 17.3484 12.6098
216 1 9.82514 17.184 12.5427
217 1 6.81501 20.0874 12.6308
218 1 9.81138 19.9395 12.56
219 1 12.4985 17.2066 12.578
220 1 12.7625 20.0495 12.5257
221 1 1.36418 22.7267 12.55
222 1 4.02453 22.7247 12.5233
223 1 6.89441 22.8738 12.5808
224 1 9.77027 22.6613 12.4699
225 1 12.5373 22.7417 12.6054
12125 2 11.1578 21.3086 11.0631
12110 2 11.0775 4.35241 11.2794
12071 2 -0.0921433 10.0315 5.41972
12124 2 8.35926 24.113 11.2237
80 1 12.5857 22.7475 1.41879
12109 2 8.36667 7.21202 11.2756
12061 2 0.0552301 4.49097 5.46435
12008 2 5.73152 1.55806 2.69048
243 1 7.0929 8.68644 12.5882
12010 2 11.2518 1.57912 2.60275
12123 2 5.5646 21.463 11.1675
12108 2 5.62 4.46678 11.166
12013 2 2.94452 4.40741 2.59168
12122 2 2.67038 24.0434 11.2173
12107 2 2.70361 7.34577 11.1631
12112 2 2.75744 12.7822 11.217
12017 2 8.43184 4.3421 2.59838
12018 2 5.71044 7.25246 2.6595
12104 2 8.31094 1.55299 11.2522
12020 2 11.146 7.26931 2.74748
60 1 12.7281 20.0628 3.90752
12081 2 0.0910241 15.7007 5.62002
12023 2 2.80277 10.0642 2.70743
12120 2 11.3029 15.767 10.941
12102 2 2.72144 1.68829 11.0714
12113 2 5.49882 10.1025 11.1366
12027 2 8.2977 9.95491 2.40662
12028 2 5.46044 12.7491 2.72847
12100 2 11.2479 24.1403 8.45947
12030 2 11.083 12.8795 2.78773
12099 2 11.2687 21.5014 5.56748
12098 2 5.62163 24.2555 8.25907
12033 2 2.82295 15.7204 2.79495
412 1 6.95142 14.28 1.19832
12097 2 8.20983 21.4356 8.35998
12096 2 8.39842 24.1591 5.44626
12037 2 8.29608 15.7937 2.75635
12038 2 5.68875 18.5296 2.6452
12095 2 5.60162 21.2847 5.46682
12040 2 11.1543 18.6095 2.70475
29 1 6.93828 8.63491 0.995902
12093 2 2.83929 21.3466 8.40781
12043 2 2.87761 21.2361 2.58568
5723 1 6.95397 0.365741 7.01284
12092 2 2.89631 24.0717 5.63935
5634 1 7.05222 0.261096 1.2723
12047 2 8.47541 21.3143 2.73737
12048 2 5.65002 24.0785 2.63589
12090 2 11.1152 18.5032 8.39873
12050 2 11.2002 24.1538 2.70586
12119 2 8.47304 18.5245 11.1698
12052 2 2.74863 1.64693 5.45131
12014 2 -0.00885468 7.18832 2.57114
12118 2 5.40035 15.8859 11.1513
5633 1 6.92324 0.124252 4.15838
12056 2 8.31584 1.63582 5.43388
5726 1 6.77399 0.220818 9.85112
12058 2 5.614 1.77957 8.33502
12094 2 -0.0260161 24.0304 8.36046
12060 2 11.0856 1.51378 8.31379
12117 2 2.81915 18.4812 11.1633
12062 2 2.73829 7.25498 5.38126
12063 2 2.77607 4.51928 8.35048
12089 2 11.1792 15.6942 5.49462
12065 2 5.60572 4.47976 5.52892
12066 2 8.50105 6.88374 5.41215
12067 2 8.41992 4.42613 8.42371
12068 2 5.58474 7.46566 8.17907
12069 2 11.1592 4.3328 5.63072
12070 2 11.1403 7.36999 8.51802
12115 2 11.2263 10.1269 11.2732
12072 2 2.75654 12.9031 5.64334
12073 2 2.64415 10.0856 8.34321
12114 2 8.2083 12.9397 11.3002
12075 2 5.04542 9.95523 5.45689
12076 2 8.50935 13.3108 5.46388
12077 2 8.14054 10.1556 5.63023
12078 2 5.63909 12.7504 8.27568
12079 2 11.7435 10.1833 5.60112
12080 2 10.981 12.759 8.05945
395 1 6.8907 11.5212 1.16606
12082 2 2.73553 18.4721 5.48963
12083 2 2.68966 15.712 8.47679
15081 2 13.594 18.407 5.57192
12085 2 5.43338 15.6471 5.62783
12086 2 8.27358 18.4803 5.52029
12087 2 8.36307 15.7745 8.36347
12088 2 5.46188 18.4827 8.32244
167 1 12.4948 20.0772 7.02825
12004 2 0.0616326 1.6715 2.61022
12111 2 -0.0727273 10.1324 11.1725
15071 2 13.7875 12.8928 5.22446
12129 2 5.59237 1.698 13.877
12134 2 5.59389 7.33492 13.8905
12136 2 2.83169 10.0853 13.9261
129 1 13.431 11.2846 6.69918
12074 2 -0.0726241 12.988 8.44536
12024 2 -0.0752628 12.925 2.77661
12034 2 -0.0264934 18.3817 2.76778
15116 2 13.9252 18.5259 11.203
12130 2 11.2425 1.5525 13.9236
12091 2 0.0860543 21.2295 5.48118
12106 2 -0.0863518 4.47455 11.114
12019 2 11.2285 4.453 -0.0153985
15141 2 13.8805 15.6593 13.9406
12021 2 -0.0122199 10.0982 -0.0367985
12143 2 8.4754 15.7251 13.9299
12026 2 8.35625 12.8223 -0.0461301
12135 2 11.1394 7.3164 13.932
12039 2 11.2651 15.5035 0.00783593
12131 2 2.67887 4.66305 13.8663
12139 2 5.51143 13.0494 13.9178
12022 2 2.79167 12.7799 -0.0751629
12006 2 8.40717 1.56635 -0.0780047
12031 2 -0.011693 15.6287 -0.0711926
226 1 4.21399 0.247756 15.2052
227 1 1.57745 0.153284 15.3783
228 1 4.26544 3.28217 15.3655
229 1 1.36093 2.94054 15.1726
230 1 9.78626 0.309493 15.3353
231 1 6.95417 0.326532 15.2655
232 1 9.91753 3.03339 15.4304
233 1 7.07652 3.10176 15.2093
234 1 12.5713 0.196776 15.213
235 1 12.897 3.06878 15.2796
236 1 4.23716 6.03171 15.2714
237 1 1.37111 5.88295 15.3096
238 1 4.12727 8.78249 15.3419
239 1 1.3856 8.74399 15.2734
240 1 9.88753 5.97615 15.4803
12209 2 11.2177 -1.09992 22.3649
242 1 9.68206 8.77423 15.2912
5993 1 7.08199 0.191501 23.6269
244 1 12.673 6.00404 15.2986
245 1 12.5712 8.68726 15.3983
246 1 4.12617 11.5205 15.2922
247 1 1.36725 11.5008 15.4668
248 1 4.13723 14.3375 15.4139
249 1 1.37636 14.209 15.3569
250 1 9.8869 11.5046 15.624
251 1 6.8292 11.6422 15.4491
252 1 9.79501 14.262 15.3345
253 1 7.06174 14.3058 15.4244
254 1 12.6278 11.4615 15.3764
255 1 12.4831 14.2977 15.3128
256 1 4.13177 17.0833 15.3176
257 1 1.41549 17.0376 15.4183
258 1 4.28432 19.9369 15.4034
259 1 1.42969 19.7042 15.5205
260 1 9.87573 17.1126 15.3935
261 1 7.00594 17.0093 15.2336
262 1 9.63531 19.9766 15.2822
263 1 7.08822 19.7984 15.4535
264 1 12.5818 17.1028 15.4017
265 1 12.4759 19.9588 15.4212
266 1 4.12219 22.7167 15.3669
267 1 1.34548 22.4378 15.3573
268 1 9.66137 22.7894 15.2135
269 1 6.86636 22.8282 15.3125
270 1 12.6279 22.7333 15.3617
271 1 1.51089 0.294275 18.1346
272 1 4.24284 0.255426 17.9156
273 1 4.19278 0.172569 20.8561
274 1 1.41607 0.337451 20.9556
275 1 1.48604 2.98598 18.1265
276 1 4.20599 3.19482 18.3444
277 1 4.24716 2.90115 21.0692
278 1 1.36745 3.11154 20.8593
279 1 7.0726 2.98043 18.1297
280 1 9.84032 0.187744 18.0844
281 1 9.79541 0.216547 20.7821
282 1 6.84798 3.15428 20.9108
283 1 7.057 5.9735 18.171
284 1 9.88881 3.06193 18.1282
285 1 9.80408 2.9337 20.9543
286 1 7.051 5.88753 23.8026
287 1 12.5909 0.123692 18.1087
288 1 12.6204 0.36072 20.8466
289 1 12.8014 3.02319 18.0513
290 1 12.6538 3.18078 21.0103
291 1 1.28038 5.98934 18.0622
292 1 4.18805 5.86781 18.0968
293 1 4.2741 5.80826 20.9852
294 1 1.38155 5.77755 20.8437
295 1 1.12322 8.64493 18.0236
296 1 4.03684 8.65268 18.0683
297 1 4.11159 8.57564 20.8351
298 1 1.40992 8.79248 20.8812
299 1 7.11219 5.805 15.4046
300 1 10.019 5.82494 18.2748
301 1 9.74144 5.76975 21.0297
302 1 7.12588 5.86991 20.996
303 1 6.95106 8.71707 15.3351
304 1 9.81263 8.5753 18.1721
305 1 9.83965 8.68137 20.8395
306 1 6.89664 8.74232 18.112
307 1 12.6267 5.82998 18.1302
308 1 12.4799 5.87831 21.015
309 1 12.499 8.63919 18.106
310 1 12.6378 8.60517 20.9625
311 1 1.29989 11.2994 18.2376
312 1 4.10494 11.6038 18.1613
313 1 4.17128 11.3491 20.8703
314 1 1.41476 11.4852 20.9812
315 1 1.28489 14.2781 18.2112
316 1 4.12969 14.2887 18.0256
317 1 4.18494 14.3128 20.8985
318 1 1.37622 14.2705 20.9211
319 1 6.94131 11.4484 18.287
320 1 9.73566 11.3828 18.3018
321 1 9.85183 11.4425 21.1319
322 1 6.96064 11.4923 21.024
323 1 7.06198 14.3412 18.1216
324 1 9.93433 14.2379 18.3184
325 1 9.79954 14.2183 21.0339
326 1 6.94391 14.3647 20.9669
327 1 12.5589 11.3932 18.3573
328 1 12.7396 11.2592 21.0456
329 1 12.6492 14.1699 18.1363
330 1 12.6404 14.1375 20.878
331 1 1.4383 17.0309 18.1878
332 1 4.1901 17.1231 18.2575
333 1 4.22977 17.0155 20.9605
334 1 1.29568 17.1029 20.9719
335 1 1.3674 19.9476 18.0943
336 1 4.05902 19.9805 18.2152
337 1 4.2168 19.8317 20.9021
338 1 1.4159 19.9495 20.9681
339 1 6.89999 17.1212 18.0781
340 1 9.90237 17.0546 18.2099
341 1 9.85554 17.0165 21.0191
342 1 7.14711 17.0302 20.9519
343 1 6.92763 20.0325 18.2935
344 1 9.71556 19.8861 18.0219
345 1 9.87862 19.8075 20.8466
346 1 7.09264 19.8851 21.0222
347 1 12.5503 17.0633 18.2092
348 1 12.5247 16.9208 21.2044
349 1 12.5962 19.8832 18.2117
350 1 12.5729 19.7998 21.0752
351 1 1.33514 22.7497 18.3395
352 1 4.17244 22.7702 18.1717
353 1 4.25606 22.6118 20.9922
354 1 1.48574 22.8844 20.9994
355 1 6.94884 22.7312 18.1387
356 1 9.96112 22.739 18.0331
357 1 9.79449 22.6857 20.8703
358 1 7.17401 22.8766 21.1132
359 1 12.6586 22.8785 18.2359
360 1 12.4757 22.5354 20.955
361 1 1.39729 0.188644 23.6418
362 1 4.21963 0.203581 23.7107
363 1 4.15589 0.205723 26.5543
364 1 1.41802 0.14137 26.5523
365 1 1.36429 2.9853 23.6147
366 1 4.22655 3.06509 23.9027
367 1 4.27589 3.09845 26.5648
368 1 1.36706 2.95864 26.4631
369 1 6.79734 3.01778 23.773
370 1 9.83536 0.268346 23.621
371 1 9.89375 0.313866 26.535
372 1 6.98036 2.94541 26.7549
373 1 6.99639 5.78545 26.5026
374 1 9.80533 2.9574 23.5761
375 1 9.77328 2.96538 26.5358
376 1 9.86967 5.78166 26.6979
377 1 12.7718 0.212465 23.6319
378 1 12.7254 0.441051 26.546
379 1 12.5545 3.11117 23.905
380 1 12.5046 3.03467 26.6371
381 1 1.44093 5.82457 23.7804
382 1 4.25377 5.8713 23.7283
383 1 4.38712 5.87011 26.5759
384 1 1.40857 5.79445 26.5488
385 1 1.25318 8.66344 23.625
386 1 4.14273 8.52598 23.6157
387 1 4.17108 8.62665 26.4305
388 1 1.50423 8.58532 26.4828
389 1 7.05045 8.71721 23.6429
390 1 9.81657 5.70868 23.9669
391 1 9.63133 8.59461 26.5631
392 1 6.76474 8.66496 26.4441
393 1 7.02183 8.71658 20.846
394 1 9.91828 8.46421 23.6631
12194 2 0.0111372 24.0586 19.6366
396 1 6.87772 11.4835 26.6317
397 1 12.634 5.86935 23.6693
398 1 12.6281 5.91226 26.6197
399 1 12.5807 8.61861 23.8324
400 1 12.6315 8.70679 26.6248
401 1 1.31434 11.4272 23.6627
402 1 4.15259 11.2404 23.7525
403 1 4.02053 11.4938 26.525
404 1 1.29282 11.3268 26.5503
405 1 1.30384 14.2147 23.6954
406 1 4.28609 14.0614 23.5761
407 1 4.31797 14.2396 26.3553
408 1 1.43447 14.2159 26.5967
409 1 6.89049 11.3407 23.8087
410 1 9.79182 11.594 23.9932
411 1 9.86244 11.5132 26.7022
12174 2 0.0109165 12.8302 19.643
413 1 6.92412 14.3252 23.8013
414 1 9.80994 14.2901 23.9585
415 1 9.86369 14.3474 26.7198
416 1 6.98164 14.1567 26.5589
417 1 12.5791 11.6543 23.7985
418 1 12.7748 11.4183 26.5036
419 1 12.5699 14.2173 23.7582
420 1 12.6071 14.3422 26.7179
421 1 1.39436 17.0533 23.7631
422 1 4.04377 16.9238 23.8433
423 1 4.18978 17.1163 26.4842
424 1 1.26655 16.9773 26.5586
425 1 1.24966 19.9517 23.7869
426 1 4.19721 19.7658 23.7674
427 1 4.07878 19.918 26.5604
428 1 1.40799 19.9448 26.619
429 1 6.93606 17.009 23.8683
430 1 9.84212 17.1084 23.7939
431 1 9.79236 17.1117 26.5317
432 1 6.98813 17.0585 26.5429
433 1 6.88589 19.7726 23.7259
434 1 9.66478 19.9515 23.5296
435 1 9.8119 19.9025 26.4656
436 1 6.99075 19.971 26.5575
437 1 12.6327 17.0477 24.0231
438 1 12.4388 17.0875 26.7039
439 1 12.5266 19.7059 23.7544
440 1 12.6599 19.966 26.5864
441 1 1.46174 22.7838 23.6203
442 1 4.28131 22.5857 23.668
443 1 4.14237 22.6803 26.5383
444 1 1.38387 22.6967 26.4891
445 1 7.01293 22.6503 23.8064
446 1 9.79389 22.6628 23.7367
447 1 9.95064 22.6009 26.5171
448 1 7.12708 22.7322 26.5037
449 1 12.6055 22.5737 23.9162
450 1 12.6271 22.715 26.5973
12224 2 -0.075724 12.8209 25.187
12250 2 11.2405 24.1433 25.1402
12036 2 8.43058 18.5216 27.846
15181 2 13.9177 18.4486 16.6429
5906 1 7.0492 0.147294 20.8812
12171 2 -0.0643084 10.1699 16.7785
12249 2 11.2009 21.2048 22.4455
12184 2 0.0724441 18.4896 19.5663
12181 2 -0.0727941 15.6224 16.7654
15231 2 13.8934 18.4657 22.437
12214 2 -0.00997052 7.23651 25.1417
12248 2 5.6622 23.9941 25.1092
12231 2 0.0276562 15.5914 22.3775
15171 2 13.8932 12.8201 16.7346
12145 2 11.1906 18.5793 14.013
12146 2 2.71355 21.1993 14.0211
12144 2 5.61225 18.5649 14.0082
12147 2 -0.0373008 24.0047 13.9978
12220 2 11.3484 7.23002 25.1312
12204 2 -0.0474652 1.53043 25.1774
12232 2 2.69347 18.5524 22.3761
12216 2 8.41794 7.15121 22.3652
5903 1 7.15428 0.0901021 18.0135
12219 2 11.2275 4.43849 22.3445
12218 2 5.62 7.33774 25.0969
12247 2 8.39762 21.2656 25.1149
12152 2 2.73919 1.62495 16.6673
12227 2 8.33735 10.038 25.1234
12246 2 8.42404 24.1641 22.423
12230 2 11.1239 12.93 25.2598
12156 2 8.46114 1.58109 16.6743
12229 2 11.325 9.90593 22.3139
12158 2 5.56056 1.57553 19.5379
12217 2 8.33791 4.38185 25.2067
12160 2 11.3005 1.6241 19.4547
12245 2 5.7037 21.2489 22.3218
12162 2 2.73866 7.32696 16.7612
12163 2 2.79345 4.45763 19.568
12228 2 5.48894 12.7986 25.0713
12165 2 5.63159 4.58935 16.736
12166 2 8.40324 7.35395 16.7121
12167 2 8.45141 4.45929 19.4461
12168 2 5.67006 7.34503 19.4723
12169 2 11.2696 4.50069 16.6971
12170 2 11.1357 7.22698 19.4644
12243 2 2.68841 21.2785 25.0254
12172 2 2.7434 12.9214 16.8843
12173 2 2.72024 10.0071 19.6017
12242 2 2.88711 24.0466 22.3798
12175 2 5.5491 10.2253 16.8341
12176 2 8.35023 12.8152 16.8589
12177 2 8.37196 10.0926 19.5721
12178 2 5.5126 12.9525 19.5975
12179 2 11.1558 10.0216 16.7411
12180 2 11.234 12.7073 19.6823
12236 2 8.35991 18.3682 22.3139
12182 2 2.83798 18.3883 16.7801
12183 2 2.83261 15.7015 19.5136
12223 2 2.6723 9.94148 25.1148
12185 2 5.66671 15.6772 16.646
12186 2 8.37538 18.5006 16.7811
12187 2 8.54999 15.6858 19.638
12188 2 5.59045 18.4532 19.5857
12189 2 11.2298 15.5582 16.7604
12190 2 11.282 18.3031 19.6807
12226 2 8.42753 12.7586 22.4993
12192 2 2.74188 24.0309 16.7545
12193 2 2.73908 21.3479 19.5917
12225 2 5.62857 9.93605 22.3328
12195 2 5.63217 21.1953 16.7733
12196 2 8.4431 24.1884 16.5601
12197 2 8.56865 21.4082 19.532
12198 2 5.53943 24.2081 19.4405
12199 2 11.2642 21.2356 16.7634
12200 2 11.2055 24.1349 19.5717
12240 2 11.201 18.4874 25.2577
12202 2 2.76695 1.65825 22.3982
5996 1 7.06625 0.179308 26.3394
12239 2 11.199 15.5589 22.5441
12222 2 2.76602 12.8206 22.3485
12206 2 8.35726 1.62254 22.2096
12235 2 5.49249 15.6057 22.3735
12208 2 5.58729 1.49004 25.116
12233 2 2.70499 15.6486 25.1664
12210 2 11.1293 1.71198 25.0984
12238 2 5.57521 18.4582 25.153
12212 2 2.76045 7.18067 22.1764
12213 2 2.8261 4.42832 25.1246
12237 2 8.39933 15.6888 25.2376
12215 2 5.55953 4.43947 22.319
12191 2 -0.0463412 21.2829 16.7621
12149 2 5.48204 24.1366 13.9633
12154 2 0.0509209 1.73299 19.4905
12025 2 5.40637 10.1325 27.891
12221 2 -0.0914757 10.0406 22.2151
12138 2 8.31907 10.1133 14.0122
12211 2 0.0696987 4.39847 22.2558
12164 2 -0.0462723 7.2443 19.405
12241 2 -0.070605 21.2551 22.4163
12002 2 2.72252 1.70276 27.8495
12016 2 8.31717 7.18668 27.8649
12140 2 11.1801 12.9657 13.9672
12015 2 5.69267 4.34636 27.8909
12244 2 0.0440243 24.176 25.092
12011 2 -0.0247212 4.43561 27.9692
12133 2 8.42867 4.54029 13.9935
12141 2 2.6799 15.733 14.0613
12148 2 8.32485 21.2819 14.0094
12150 2 11.2343 24.1637 14.0063
12032 2 2.6791 18.4835 27.8739
12012 2 2.84299 7.18438 27.9092
12046 2 8.5042 24.0855 27.9093
12142 2 -0.103918 18.3946 14.0375
12045 2 5.54833 21.2552 27.9279
12035 2 5.62009 15.6803 27.8897
12042 2 2.75275 24.0187 27.9604
12049 2 11.3137 21.383 27.9899
451 1 1.47012 25.6392 1.31767
452 1 4.22353 25.3878 1.29503
453 1 4.11173 25.5285 3.9979
454 1 1.34526 25.5643 4.21554
455 1 7.06909 25.7581 1.27759
456 1 9.94606 25.6063 1.26753
457 1 9.71518 25.5025 4.09536
458 1 7.0201 25.6312 4.09015
459 1 12.8316 30.8399 1.51008
460 1 12.6862 28.3719 4.13674
461 1 1.36963 28.4105 1.25109
462 1 4.10813 28.2687 1.30367
463 1 4.18334 28.4574 4.14578
464 1 1.45626 28.4074 4.17758
465 1 1.42018 31.2911 1.12719
466 1 4.09157 31.0479 1.25709
467 1 4.20021 31.1511 4.15793
468 1 1.34226 31.1008 4.07005
469 1 6.95344 28.3682 1.29822
470 1 9.69106 28.1576 1.18631
471 1 9.7408 28.3228 4.22295
472 1 6.89904 28.3808 4.05734
473 1 7.05718 31.0583 1.1286
1011 1 9.8066 50.6834 9.79501
475 1 9.65015 30.9352 4.09322
476 1 6.99099 31.2604 3.96198
477 1 9.8659 30.7543 1.05611
478 1 11.0798 32.7863 2.48973
479 2 11.3837 32.2225 0.264545
480 1 9.52201 33.7902 0.568132
481 1 1.08195 34.2603 1.35683
482 1 4.16069 33.7226 1.01657
483 1 4.00744 33.937 4.083
484 1 1.17776 34.003 4.13685
485 2 1.37018 36.371 0.461774
486 1 3.27545 36.2372 1.56058
487 1 3.98507 36.7782 4.24578
488 1 1.10677 36.6057 4.00949
489 1 6.8762 33.7743 1.46571
12329 2 -0.0345711 46.7096 8.24894
491 1 9.61469 33.8438 4.24239
492 1 6.7264 34.1497 4.2104
493 1 6.2197 36.7805 1.48802
494 1 9.68012 36.3848 1.59836
495 1 9.82656 36.7666 4.28025
496 1 7.11336 36.8328 4.16169
497 1 12.9526 33.6945 0.953548
498 1 12.6769 34.0053 4.1953
499 1 12.4977 36.525 1.13045
500 1 12.569 36.6106 4.12928
501 1 1.00527 38.4263 1.35628
502 1 3.8811 39.48 1.15468
503 1 4.13224 39.5788 4.18033
504 1 1.27929 39.4751 4.04805
505 1 1.45008 41.6539 1.33145
506 1 4.155 42.3702 1.27809
507 1 4.01764 42.3297 4.09828
508 1 1.13348 42.346 3.92645
509 1 6.78606 39.7739 1.25243
510 1 9.7402 39.5808 1.44529
511 1 9.73527 39.5849 4.30789
512 1 6.84574 39.5257 4.03785
513 1 6.85631 42.4512 1.37539
514 1 9.6752 42.34 1.30285
515 1 9.78591 42.3545 4.31607
516 1 6.93785 42.3727 4.19749
517 1 12.5727 39.3302 1.39839
518 1 12.471 39.5403 4.18691
519 1 12.5183 42.3293 1.29996
520 1 12.4652 42.5146 4.05757
521 1 1.28394 44.9483 1.30112
522 1 4.02356 45.1696 1.2585
523 1 4.20956 44.9503 3.94992
524 1 1.37477 45.0755 4.00856
525 1 1.12354 47.8924 1.32547
526 1 3.85849 47.985 1.34959
527 1 4.09707 47.9016 4.10937
528 1 1.35792 47.9532 4.10422
529 1 6.85735 45.2828 1.16927
530 1 9.81802 45.1919 1.25768
531 1 9.72183 45.1711 4.14108
532 1 7.02422 45.23 4.08954
533 1 6.78619 47.9893 1.25575
534 1 9.60525 48.0034 1.24017
535 1 9.70709 47.9499 4.2137
536 1 6.99321 47.9273 3.95453
537 1 12.5012 45.2518 1.39227
538 1 12.6042 45.1765 4.08295
539 1 12.5697 48.0695 1.43905
540 1 12.5034 48.04 4.24353
541 1 1.38749 25.564 7.04369
542 1 4.2342 25.5111 6.83544
543 1 4.24756 25.6966 9.78597
544 1 1.49845 25.7068 9.81436
545 1 6.92234 25.5167 6.92419
546 1 9.70784 25.6072 6.77425
547 1 9.77708 25.5863 9.70506
548 1 7.00588 25.468 9.847
549 1 12.6379 28.2765 6.92715
550 1 12.5186 25.5291 9.86659
551 1 1.41089 28.2649 7.06412
552 1 4.16484 28.3397 6.80932
553 1 4.03502 28.4928 9.70572
554 1 1.28728 28.4917 9.76452
555 1 1.41866 31.1307 6.93047
556 1 4.11845 30.9938 6.93305
557 1 4.15425 31.2257 9.87642
558 1 1.51799 31.4412 9.86704
559 1 6.97063 28.1646 7.00489
560 1 9.86425 28.3239 6.95183
561 1 9.82643 28.3221 9.89908
562 1 7.08146 28.3626 9.74001
563 1 6.9059 31.1272 6.91544
564 1 9.74536 31.1607 6.88701
565 1 9.70564 31.0838 9.69143
566 1 7.04091 31.3259 9.72656
567 1 12.6065 31.016 6.94159
568 1 12.7047 28.4375 9.85145
90 1 12.7028 25.6286 1.05615
570 1 12.5374 31.2647 9.56411
571 1 1.29609 33.8676 6.93166
572 1 4.08811 33.858 6.97565
573 1 4.26325 33.8553 9.77059
574 1 1.47308 34.134 9.7248
575 1 1.33576 36.808 6.82419
576 1 4.16036 36.6226 6.87769
577 1 4.10211 36.6197 9.49629
578 1 1.4309 36.8135 9.59981
579 1 7.00283 33.8604 6.98501
580 1 9.74586 34.0422 6.87182
581 1 9.88281 33.9389 9.71553
582 1 7.04563 33.9926 9.79336
583 1 6.93803 36.6174 7.17238
584 1 9.7538 36.7288 7.05358
585 1 9.72708 36.8464 9.75497
586 1 6.94992 36.8359 9.83809
587 1 12.5079 33.9888 6.98109
588 1 12.5705 33.799 9.58897
589 1 12.6321 36.8547 6.86467
590 1 12.6838 36.6256 9.67668
591 1 1.29683 39.488 6.76
592 1 4.01906 39.482 6.93511
593 1 4.17095 39.5813 9.72595
594 1 1.23844 39.6596 9.6467
595 1 1.37897 42.3026 6.80316
596 1 4.28769 42.2768 6.83741
597 1 4.21262 42.3581 9.62896
598 1 1.43124 42.4147 9.58304
599 1 6.84952 39.3979 6.99149
600 1 9.6265 39.5394 6.87726
601 1 9.77934 39.7225 9.58847
602 1 6.94762 39.7197 9.63613
603 1 7.15552 42.3029 6.95461
604 1 10.0105 42.5055 7.06568
605 1 9.71627 42.4215 9.93348
606 1 7.04244 42.4987 9.66469
607 1 12.5109 39.5203 7.09564
608 1 12.5771 39.4682 9.80812
609 1 12.6087 42.2834 6.85842
610 1 12.4911 42.3006 9.68105
611 1 1.26335 44.9105 6.87189
612 1 4.06439 45.0313 6.85928
613 1 4.18146 45.1164 9.67612
614 1 1.28077 45.2101 9.6276
615 1 1.34804 47.9644 6.86259
616 1 4.1822 47.9379 6.85985
617 1 4.13536 47.9404 9.60329
618 1 1.46981 48.0425 9.71706
619 1 6.9591 45.0568 7.03379
620 1 9.80412 45.2638 6.87722
621 1 9.8262 45.207 9.66978
622 1 7.01919 45.3256 9.69026
623 1 7.03937 48.0581 6.73766
624 1 9.88868 47.9734 6.92559
625 1 9.70066 47.9959 9.65593
626 1 6.97289 48.0563 9.57352
627 1 12.7365 45.0472 7.00655
628 1 12.5998 45.2273 9.74947
629 1 12.5552 47.887 6.96138
630 1 12.5732 48.09 9.80651
631 1 1.29325 25.4345 12.5979
632 1 4.07858 25.597 12.6921
633 1 6.91382 25.5404 12.6189
634 1 9.8857 25.4102 12.6322
635 1 12.6394 25.83 12.457
636 1 1.37281 28.3059 12.4022
637 1 4.25318 28.3196 12.648
638 1 1.40063 31.2504 12.6135
639 1 4.22696 31.0604 12.6512
640 1 7.03163 28.3739 12.6215
641 1 9.85707 28.3012 12.6074
642 1 7.02542 31.281 12.4929
643 1 9.92369 31.1825 12.5319
644 1 12.7915 28.5497 12.7197
645 1 12.5468 31.1657 12.5268
646 1 1.39054 34.0121 12.6829
647 1 4.1519 34.0242 12.5282
648 1 1.34065 36.8385 12.3018
649 1 4.22063 36.8518 12.3635
650 1 7.02754 33.9577 12.6347
651 1 10.012 34.1357 12.474
652 1 7.00841 36.9031 12.6292
653 1 9.97408 36.7766 12.6015
654 1 12.8027 33.8733 12.403
655 1 12.7305 36.8868 12.4559
656 1 1.57759 39.5228 12.5124
657 1 4.30498 39.5149 12.4996
658 1 1.45001 42.3926 12.4651
659 1 4.21904 42.4037 12.4951
660 1 7.06435 39.6992 12.4454
661 1 9.90994 39.507 12.5057
662 1 6.88186 42.5521 12.5357
663 1 9.74603 42.1106 12.5888
664 1 12.7072 39.6697 12.8221
665 1 12.4952 42.2993 12.4037
666 1 1.29155 45.1978 12.4877
667 1 4.06092 45.1307 12.4167
668 1 1.40108 47.9381 12.482
669 1 4.2291 48.0208 12.4772
670 1 7.01201 45.2439 12.5716
671 1 9.82142 45.1366 12.4231
672 1 6.98123 47.9842 12.4717
673 1 9.64062 47.8838 12.6052
674 1 12.5885 45.0931 12.5137
675 1 12.5337 48.0902 12.6641
12363 2 11.1346 49.434 11.2274
89 1 12.6792 28.2662 1.30308
12253 2 2.79779 26.8965 2.7519
12362 2 5.61884 49.4759 11.1016
12341 2 -0.054479 26.9576 11.1981
180 1 12.725 25.4281 7.09006
12257 2 8.49633 26.9946 2.7264
12258 2 5.44071 29.719 2.78597
12361 2 0.0325435 49.4199 11.1995
12260 2 11.214 29.6899 2.82798
12360 2 11.1793 43.8323 11.1591
12254 2 -0.0354555 29.7444 2.70391
12263 2 2.72839 32.5427 2.64327
12359 2 8.41792 46.53 11.1024
903 1 4.30555 50.6195 3.77787
1106 1 9.69458 50.6721 12.6157
12267 2 8.50652 32.4055 2.52435
12268 2 5.29923 35.3733 2.89835
12345 2 11.1985 26.8704 11.2067
12270 2 11.1615 35.1099 2.95929
12358 2 5.55823 43.7601 11.0284
12344 2 8.40271 29.8136 11.1085
12273 2 2.7696 38.3526 2.83668
12357 2 2.78823 46.6185 11.0932
12343 2 5.59918 26.8725 11.2354
179 1 12.49 25.6215 4.13107
12277 2 8.28965 38.1497 2.78295
12278 2 5.58874 41.0909 2.68341
12256 2 8.25955 29.5157 -0.0798105
12280 2 11.0658 40.96 2.87355
12355 2 11.2584 38.1417 11.2261
15291 2 13.9054 49.365 2.79766
12283 2 2.78574 43.6676 2.69865
12354 2 8.38896 40.9966 11.1091
1010 1 9.65413 50.707 6.79725
12299 2 0.00802396 29.7279 8.30818
12287 2 8.41194 43.8693 2.75416
12288 2 5.48987 46.5914 2.65453
918 1 12.4991 50.7524 4.2049
12290 2 11.144 46.661 2.82805
12353 2 5.62066 38.2794 11.1185
12292 2 2.66766 49.2541 2.7715
12356 2 0.0148428 43.8592 11.146
12294 2 8.26453 49.3526 2.53996
12252 2 2.78799 29.6042 -0.0680995
12306 2 0.00510724 32.4381 5.53947
12297 2 2.82042 29.7872 5.6222
12298 2 2.7713 26.9455 8.35137
910 1 9.67945 50.6314 1.24573
12300 2 5.60283 27.0003 5.48278
12301 2 8.37414 29.6267 5.5856
12302 2 8.34622 26.9019 8.35659
12303 2 5.52483 29.7412 8.30461
12304 2 11.2117 26.961 5.69737
12305 2 11.2242 29.7702 8.40964
12352 2 2.83861 41.0402 10.9421
12307 2 2.67747 35.2865 5.67336
12308 2 2.87436 32.5768 8.38998
569 1 12.605 31.1473 4.16014
12310 2 5.66285 32.5165 5.58563
12311 2 8.36637 35.2743 5.47273
12312 2 8.41868 32.4854 8.46234
12313 2 5.51708 35.3986 8.42335
12314 2 11.1708 32.5525 5.51191
12315 2 11.2147 35.3231 8.26239
12266 2 7.78025 35.7146 0.231407
12317 2 2.71233 40.9131 5.52643
12318 2 2.63949 38.2568 8.30486
12350 2 11.2617 32.5872 11.034
12320 2 5.49551 38.0485 5.60485