ITEM: TIMESTEP
265000
ITEM: NUMBER OF ATOMS
18000
ITEM: BOX BOUNDS xy xz yz pp pp pp
-1.0651413572210730e-01 2.8000514135723002e+01 0.0000000000000000e+00
-1.2144993172440048e+00 3.3594249931727757e+02 0.0000000000000000e+00
-9.7403082148121212e-02 2.7991403082148569e+01 0.0000000000000000e+00
ITEM: ATOMS id type x y z
1 1 1.18994 0.18109 1.3789
2 1 3.95956 0.151804 1.42965
3 1 4.13974 -0.0535881 4.27349
4 1 1.25468 0.136095 4.0516
5 1 1.18478 2.86984 1.22061
6 1 3.98872 2.80875 1.37559
7 1 4.18512 2.76524 4.15611
8 1 1.40041 2.97335 4.03777
9 1 6.82326 2.94869 1.3719
10 1 9.75585 0.0880981 1.3946
11 1 9.7365 0.155218 4.17008
12 1 6.88474 2.80911 4.14605
13 1 6.90177 5.67873 1.3309
14 1 9.62743 2.89534 1.36341
15 1 9.69618 2.80345 4.30213
16 1 6.90713 5.45188 4.26004
17 1 12.6162 0.21603 1.33369
18 1 12.4862 0.084178 4.13692
19 1 12.5644 2.94682 1.33477
20 1 12.603 2.86097 4.10074
21 1 1.21389 5.59066 1.38438
22 1 4.04318 5.73602 1.33733
23 1 4.12108 5.64998 4.13938
24 1 1.2502 5.59152 3.99502
25 1 1.23364 8.37048 1.26804
26 1 4.11052 8.50007 1.42601
27 1 3.91233 11.3961 4.14621
28 1 1.26337 8.4553 4.14524
15091 2 13.9453 23.9954 5.57773
30 1 9.74934 5.63224 1.46144
31 1 9.92 5.72057 4.17428
32 1 6.48742 8.01964 5.87586
33 1 6.52904 10.098 3.81014
34 1 9.79573 8.38057 1.21632
35 1 7.90034 7.84394 3.48933
36 1 6.32035 12.0198 5.53604
37 1 12.3799 5.71475 1.41885
38 1 12.5167 5.60037 4.15969
39 1 12.5125 8.45999 1.40356
40 1 12.6768 8.55623 4.26632
41 1 1.26023 11.3258 1.37515
42 1 4.22205 11.2909 1.3971
43 1 6.8753 14.2451 4.12452
44 1 1.13796 11.2083 4.26185
45 1 1.20355 14.1499 1.37973
46 1 4.0467 14.175 1.4549
47 1 3.94827 14.1876 4.14647
48 1 1.14747 14.0951 4.23497
49 1 3.9499 8.35578 4.01185
50 1 9.81323 11.2607 1.16275
51 1 9.98879 8.97345 4.34639
52 1 8.92738 11.5428 4.03529
53 1 6.93077 16.9109 4.08261
54 1 9.67665 14.0381 1.22712
55 1 12.4915 14.2563 4.09339
56 1 9.74113 14.2206 3.95366
57 1 12.5228 11.3471 1.15247
58 1 12.4614 11.4147 3.82819
59 1 12.5807 14.0986 1.24596
15071 2 13.7895 12.8169 5.2116
61 1 1.35075 16.8788 1.4438
62 1 4.16522 16.9187 1.40705
63 1 4.2165 17.0106 4.264
64 1 1.43593 16.8569 4.38821
65 1 1.24427 19.6955 1.30852
66 1 4.15723 19.654 1.45098
67 1 4.14444 19.8152 4.22018
68 1 1.36315 19.6742 4.0526
69 1 7.02655 16.9683 1.41086
70 1 9.85506 16.8374 1.31358
71 1 12.3817 16.9739 3.95408
72 1 9.71827 16.8553 4.26588
73 1 6.86315 19.827 1.18761
74 1 9.66536 19.6659 1.36137
75 1 9.63927 19.7089 4.27435
76 1 6.86788 19.6727 3.94067
77 1 12.688 16.9496 1.21469
12007 2 8.34697 -1.21181 2.67076
79 1 12.5631 19.7672 1.22973
12084 2 -0.066617 18.2628 8.4543
81 1 1.20294 22.4174 1.35246
82 1 4.00481 22.5528 1.36808
83 1 4.14094 22.5056 4.15893
84 1 1.21615 22.468 4.1737
85 1 6.93734 22.5742 1.27974
86 1 9.72676 22.4326 1.24612
87 1 9.70266 22.6087 4.0546
88 1 6.958 22.6257 4.09874
12111 2 -0.082887 9.97567 11.168
12035 2 5.43055 15.4131 -0.0505542
91 1 1.21817 0.0808014 6.97179
92 1 3.98127 0.224473 7.41948
93 1 4.10099 2.55884 9.73008
94 1 1.40968 0.0240922 9.83455
95 1 1.24242 2.89617 6.80867
96 1 4.10083 2.87102 7.04385
97 1 6.7478 5.69869 9.83127
98 1 1.26851 2.84104 9.56386
99 1 6.86224 2.94367 7.04212
100 1 9.58267 0.110178 6.98711
101 1 9.57533 -0.000705199 9.81949
102 1 6.84161 2.8988 9.79065
103 1 6.88673 5.5551 7.01489
104 1 9.68013 2.83339 7.15471
105 1 9.61069 2.78361 9.81221
106 1 6.88598 5.85803 12.7529
107 1 12.4394 -0.10381 6.95519
108 1 12.4231 0.243066 9.91984
109 1 12.4939 2.77034 7.00309
110 1 12.6218 2.91282 9.72368
111 1 1.392 5.60835 6.71913
112 1 4.16826 5.57266 6.85196
113 1 4.19655 8.30859 9.72031
114 1 1.26376 5.52552 9.68668
115 1 1.09446 8.41107 6.90941
116 1 3.93988 8.35421 6.95185
117 1 6.51875 10.1039 7.47088
118 1 1.2398 8.5447 9.62569
119 1 8.97946 8.44229 7.00333
120 1 9.78358 5.70171 6.96026
121 1 9.63101 5.50477 9.88549
122 1 7.07565 8.41271 9.82791
123 1 8.72949 11.5413 7.1359
124 1 12.566 8.27765 7.17011
125 1 10.8874 10.3418 7.8033
126 2 8.50403 9.96458 8.74496
127 1 12.7088 5.53197 6.89975
128 1 12.4095 5.63517 9.8849
12015 2 5.49085 4.25393 -0.0356215
130 1 12.6109 11.3749 9.81134
131 1 1.21647 11.1333 6.98695
132 1 3.82625 11.3905 6.99659
133 1 4.08463 11.029 9.65642
134 1 1.30848 11.4048 9.90724
135 1 1.21312 14.056 7.06009
136 1 4.17996 14.0762 7.0605
137 1 4.19067 13.9926 9.68652
138 1 1.3641 13.9945 9.83493
139 1 9.7417 14.5448 7.0141
140 1 11.0531 12.328 5.89832
141 1 9.62812 11.4368 10.0004
142 1 6.85715 11.2824 9.87004
143 1 6.98837 14.3733 7.02269
144 1 9.48006 17.2209 7.08962
145 1 9.73074 14.2456 9.70094
146 1 7.04734 14.3222 9.80927
147 1 12.7723 13.9655 6.96123
148 1 12.6093 14.166 9.66131
149 1 12.1924 16.8543 7.06766
150 1 12.4345 17.0038 9.88168
151 1 1.29761 16.732 7.06754
152 1 4.02948 16.8026 6.98005
153 1 4.06588 16.909 9.83841
154 1 1.29535 16.9534 9.78034
155 1 1.27268 19.6248 6.92984
156 1 4.04133 19.6785 6.89624
157 1 4.14058 19.7499 9.72937
158 1 1.41333 19.7219 9.71675
159 1 6.76396 17.0573 6.91039
160 1 12.5428 22.597 4.13558
161 1 9.58903 16.9335 9.91611
162 1 6.81778 17.1173 9.79054
163 1 6.96721 19.7894 6.92971
164 1 9.6805 19.8518 7.09443
165 1 9.80906 19.7919 9.85435
166 1 6.93016 19.8619 9.73778
241 1 9.82788 8.55769 12.8154
168 1 12.6656 19.7116 9.6997
169 1 12.6555 22.4842 7.08455
170 1 12.5248 22.7957 9.96277
171 1 1.35463 22.5521 7.032
172 1 4.18182 22.469 7.04094
173 1 4.26014 22.5705 9.89873
174 1 1.34456 22.4579 9.77681
175 1 6.95646 22.5533 6.89546
176 1 9.97781 22.53 6.77343
177 1 9.73655 22.5026 9.86604
178 1 7.0341 22.6289 9.74345
15101 2 13.879 1.53711 11.3451
12074 2 -0.0619079 12.7623 8.47729
181 1 1.29827 0.0180502 12.4669
182 1 4.0121 0.105637 12.1365
183 1 1.12572 2.91443 12.4425
184 1 3.99778 2.97487 12.371
185 1 6.87015 0.132507 12.5213
186 1 9.63385 0.163021 12.6242
187 1 6.80354 2.99865 12.4742
188 1 9.66505 2.9252 12.5691
189 1 12.4451 -0.0624096 12.6328
190 1 12.4706 2.95715 12.57
191 1 1.18642 5.73663 12.4802
192 1 4.01993 5.46016 9.67944
193 1 1.33824 8.3273 12.4944
194 1 3.95986 8.58102 12.6171
195 1 4.00185 5.79371 12.5153
196 1 9.69456 5.76619 12.5876
197 1 9.73668 8.41826 9.96054
198 1 12.4829 8.34869 10.036
199 1 12.4422 5.86239 12.6067
200 1 12.7179 8.47049 12.6513
201 1 1.15929 11.2491 12.7382
202 1 4.13647 11.4083 12.5136
203 1 1.52786 14.1234 12.5854
204 1 4.19807 14.2244 12.4959
205 1 6.91978 11.2763 12.7374
206 1 9.64949 11.3354 12.4567
207 1 7.00327 14.0707 12.6911
208 1 9.72889 14.2284 12.5844
209 1 12.4502 11.3872 12.6537
210 1 12.4565 14.1286 12.477
211 1 1.40905 16.8629 12.5732
212 1 4.23636 17.1334 12.5786
213 1 1.27542 19.7031 12.5946
214 1 4.20646 19.9381 12.5538
215 1 6.98299 16.7736 12.5845
216 1 9.6988 16.9879 12.6155
217 1 7.00993 19.6262 12.7302
218 1 9.70457 19.9676 12.4581
219 1 12.6063 17.014 12.6537
220 1 12.3914 19.9042 12.5635
221 1 1.20116 22.5918 12.4425
222 1 4.07033 22.5996 12.6943
223 1 6.84348 22.5509 12.7103
224 1 9.65169 22.61 12.6127
225 1 12.6539 22.6505 12.7264
12125 2 11.1331 21.2074 11.1404
12110 2 11.0383 4.23434 11.2684
12024 2 -0.0979826 12.652 2.76153
12124 2 8.27957 23.9519 11.2351
80 1 12.5425 22.4011 1.34493
12109 2 8.35265 7.01847 11.2009
15022 2 13.863 9.85648 2.60413
12008 2 5.45018 1.44258 2.85379
243 1 6.86145 8.49799 12.6618
12010 2 11.1355 1.48729 2.78962
12123 2 5.6012 21.1889 11.1788
12108 2 5.39261 4.30428 11.1535
12013 2 2.71179 4.30645 2.67411
12122 2 2.78817 23.9977 11.1883
12107 2 2.72233 7.0836 11.0343
12112 2 2.89635 12.7625 11.1401
12017 2 8.26033 4.30663 2.70753
12018 2 5.62877 7.14548 2.8527
12104 2 8.28916 1.55047 11.2306
12020 2 11.1282 7.18402 2.7711
60 1 12.3246 19.7733 3.94617
12046 2 8.23807 23.9483 -0.0564842
12023 2 2.50578 9.86085 2.64429
12120 2 11.0894 15.6182 11.1317
12102 2 2.51468 1.53387 11.1004
12113 2 5.47759 9.83997 11.1201
12027 2 8.40541 9.8427 2.41722
12028 2 5.54256 12.6292 2.99499
12100 2 11.3376 23.8133 8.4085
12030 2 11.063 12.7032 2.6176
12099 2 11.1271 21.1507 5.48844
12098 2 5.50848 23.8354 8.29905
12033 2 2.71892 15.5007 2.75469
412 1 6.94642 14.2198 1.37237
12097 2 8.31806 21.156 8.39926
12096 2 8.33759 24.0139 5.62972
12037 2 8.27927 15.5057 2.67436
12038 2 5.50187 18.2962 2.74606
12095 2 5.52292 21.1612 5.464
12040 2 11.0769 18.3645 2.74845
29 1 6.89197 8.35873 1.09063
12093 2 2.70062 21.0811 8.33057
12043 2 2.6808 21.0705 2.69694
5723 1 6.68238 -0.00364956 6.83314
12092 2 2.7652 23.9056 5.62056
5634 1 6.88791 0.139397 1.28604
12047 2 8.19285 21.1641 2.68927
12048 2 5.49871 23.9229 2.7216
12090 2 10.9738 18.3603 8.41572
12050 2 11.1662 23.8296 2.77592
12119 2 8.20807 18.419 11.18
12052 2 2.6097 1.43411 5.66882
15116 2 13.8969 18.412 11.2752
12118 2 5.58234 15.6096 11.1158
5633 1 7.01674 0.0304646 4.13401
12056 2 8.23317 1.39913 5.69034
5726 1 6.77213 0.112774 9.70401
12058 2 5.55737 1.49168 8.39012
15072 2 13.827 9.7578 8.52373
12060 2 11.0529 1.31531 8.46474
12117 2 2.78743 18.4333 11.1473
12062 2 2.62084 6.94707 5.46278
12063 2 2.65401 4.30472 8.11855
12089 2 11.1544 15.444 5.63152
12065 2 5.44023 4.27525 5.62429
12066 2 8.27079 6.6741 5.47057
12067 2 8.27636 4.29364 8.38243
12068 2 5.57964 7.1838 8.31589
12069 2 11.2023 4.23609 5.52954
12070 2 11.1723 7.0522 8.63728
12115 2 11.1315 9.91057 11.3578
12072 2 2.54946 12.7359 5.62728
12073 2 2.59237 9.87314 8.3135
12114 2 8.23476 12.7705 11.3702
12075 2 4.92811 9.97026 5.50583
12076 2 8.45829 13.2278 5.57563
12077 2 8.11991 9.95321 5.48264
12078 2 5.68078 12.4601 8.19295
12079 2 11.6415 9.98443 5.65389
12080 2 11.0819 12.6475 8.38016
395 1 6.97437 11.449 1.46174
12082 2 2.79388 18.2781 5.61832
12083 2 2.76719 15.3539 8.48528
15081 2 13.3467 18.0827 5.5998
12085 2 5.44401 15.4929 5.60772
12086 2 8.25307 18.2847 5.54101
12087 2 8.28097 15.7058 8.45141
12088 2 5.47749 18.2873 8.31549
167 1 12.2216 19.7495 6.94841
12094 2 -0.0706884 23.9153 8.38559
12002 2 2.69416 1.50933 -0.0863779
129 1 13.5938 10.8628 6.64547
12049 2 11.0178 21.0891 -0.052467
12116 2 -0.0982974 15.4687 11.3278
12034 2 -0.066975 18.3325 2.74496
12022 2 2.74454 12.6822 0.0872269
15012 2 13.8634 4.33172 2.69973
15051 2 13.9176 1.48414 5.5658
12006 2 8.22678 1.5219 -0.0051218
12131 2 2.56343 4.29038 13.9329
12012 2 2.70509 7.04415 0.0754365
12025 2 5.48471 9.81054 0.01496
12016 2 8.35022 7.01874 -0.00518668
12019 2 11.0275 4.2109 -0.0813258
12129 2 5.41482 1.66998 13.9139
12039 2 11.2392 15.321 -0.0424441
12042 2 2.57649 23.9668 -0.0449338
12145 2 11.0319 18.3842 13.9339
12032 2 2.60025 18.3949 -0.00429634
15011 2 13.8147 7.01018 -0.0305044
12036 2 8.24083 18.3035 0.0474675
226 1 4.17228 0.0556011 15.1242
227 1 1.26841 0.0518784 15.2045
228 1 4.1252 3.00049 15.2665
229 1 1.29873 2.83825 15.3059
230 1 9.52758 0.115998 15.3891
231 1 6.83566 0.192655 15.292
232 1 9.57834 2.82519 15.2531
233 1 6.72467 2.97314 15.371
234 1 12.3513 0.012792 15.3608
235 1 12.4147 2.87755 15.3993
236 1 4.13357 5.71654 15.3211
237 1 1.2659 5.62326 15.2708
238 1 4.06655 8.46736 15.5175
239 1 1.28201 8.44437 15.3581
240 1 9.77693 5.67753 15.4882
12135 2 11.2487 6.97078 14.0521
242 1 9.54401 8.47097 15.498
5993 1 6.86173 0.259883 23.8493
244 1 12.6366 5.60333 15.3289
245 1 12.6274 8.4319 15.4134
246 1 4.16755 11.2588 15.3201
247 1 1.37257 11.1538 15.4336
248 1 4.10787 14.0863 15.4
249 1 1.21338 13.9407 15.4509
250 1 9.57562 11.3251 15.4281
251 1 6.81611 11.2581 15.5763
252 1 9.70206 14.0523 15.3204
253 1 6.99957 14.1047 15.4678
254 1 12.4098 11.4518 15.5568
255 1 12.465 14.135 15.293
256 1 4.07822 16.9442 15.5092
257 1 1.38024 16.9887 15.3828
258 1 4.13698 19.8416 15.5174
259 1 1.31584 19.7497 15.392
260 1 9.73813 16.942 15.3513
261 1 6.93463 16.9367 15.3407
262 1 9.74381 19.8649 15.4787
263 1 6.77749 19.7816 15.3317
264 1 12.4796 16.9291 15.4103
265 1 12.5699 19.6206 15.5115
266 1 3.98939 22.5005 15.5519
267 1 1.19481 22.6929 15.4084
268 1 9.76819 22.6549 15.4067
269 1 6.8603 22.4791 15.497
270 1 12.6217 22.5942 15.4124
271 1 1.479 0.200631 18.0406
272 1 4.11174 0.00530004 18.0306
273 1 3.97522 0.337271 21.0199
274 1 1.2143 0.173186 20.7825
275 1 1.27649 2.79669 18.0312
276 1 4.03925 2.86587 18.1299
277 1 4.02681 3.06684 20.9875
278 1 1.25516 2.91305 21.0577
279 1 7.03668 3.01071 18.1401
280 1 9.7406 0.0843338 18.0656
281 1 9.43384 0.234926 20.9334
282 1 6.85431 2.90629 20.9595
283 1 6.77518 5.65847 18.31
284 1 9.6805 2.83433 18.1128
285 1 9.60641 2.9807 20.9625
286 1 6.88886 5.74255 23.9587
287 1 12.5623 0.192033 18.2753
288 1 12.3991 0.189824 20.9996
289 1 12.5019 2.95534 18.1887
290 1 12.5593 2.85346 21.0714
291 1 1.29885 5.67863 18.2697
292 1 4.04767 5.62148 18.1659
293 1 3.98082 5.78585 21.0178
294 1 1.1298 5.7229 21.2209
295 1 1.17752 8.3185 18.1537
296 1 4.04317 8.47979 18.2339
297 1 4.12179 8.56283 20.9843
298 1 1.32902 8.47618 20.8542
299 1 6.95512 5.69558 15.5522
300 1 9.66131 5.62185 18.2105
301 1 9.68731 5.72839 20.9996
302 1 6.9942 5.61433 21.1844
303 1 6.81458 8.51523 15.5758
304 1 9.7143 8.65143 18.205
305 1 9.67 8.50733 20.954
306 1 6.96447 8.3893 18.2409
307 1 12.4894 5.79089 18.0397
308 1 12.372 5.71267 21.0619
309 1 12.4545 8.53507 18.1749
310 1 12.5003 8.50043 20.9536
311 1 1.17773 11.3476 18.2305
312 1 4.13911 11.3134 18.3376
313 1 4.02256 11.1934 21.0577
314 1 1.26767 11.2185 21.1488
315 1 1.3584 14.159 18.273
316 1 4.16747 14.024 18.2882
317 1 4.27271 13.9897 21.1009
318 1 1.45822 14.0458 20.9694
319 1 6.84091 11.2438 18.2457
320 1 9.57565 11.4272 18.2557
321 1 9.62053 11.2765 21.0128
322 1 6.81665 11.3925 21.0994
323 1 6.94817 14.2378 18.0868
324 1 9.59569 14.3043 18.1459
325 1 9.72262 13.9901 21.0098
326 1 6.9149 14.1489 20.943
327 1 12.5756 11.3933 18.1549
328 1 12.4278 11.342 20.9893
329 1 12.4217 14.165 18.161
330 1 12.5543 14.2073 20.8874
331 1 1.34063 16.8608 18.2397
332 1 4.14912 16.732 18.3707
333 1 3.9899 16.9606 21.1375
334 1 1.26806 16.8408 21.0417
335 1 1.32892 19.6059 18.1762
336 1 4.22513 19.7014 18.2277
337 1 4.02914 19.6153 21.084
338 1 1.29268 19.5949 21.0184
339 1 6.98707 16.9949 18.1877
340 1 9.73848 17.0699 18.1557
341 1 9.86781 16.9318 20.9254
342 1 6.89681 16.9035 21.0146
343 1 7.23452 19.7507 18.1309
344 1 10.0916 19.9065 18.3058
345 1 9.71958 19.7723 21.0297
346 1 6.83633 19.7177 21.0937
347 1 12.5219 16.8497 18.2378
348 1 12.6897 17.0547 20.9959
349 1 12.5195 19.5514 18.3155
350 1 12.526 19.72 21.0762
351 1 1.24762 22.4602 18.1774
352 1 4.28831 22.5418 18.4102
353 1 4.16472 22.4867 21.1956
354 1 1.24127 22.522 20.9528
355 1 7.04923 22.5541 18.1207
356 1 9.85407 22.6847 18.1951
357 1 9.79335 22.4941 20.9917
358 1 7.01833 22.5087 20.9838
359 1 12.5596 22.4819 18.1882
360 1 12.3667 22.6187 21.153
361 1 1.22554 0.187878 23.6489
362 1 4.14913 -0.0120023 23.969
363 1 4.01147 0.120245 26.6918
364 1 1.25113 0.167921 26.5505
365 1 1.295 2.90488 23.8574
366 1 4.0607 2.87329 23.8603
367 1 4.02492 2.90052 26.6984
368 1 1.21904 3.02856 26.5891
369 1 6.8221 2.98092 23.9215
370 1 9.67649 0.109541 23.8079
371 1 9.63811 0.317933 26.7059
372 1 6.83049 2.86393 26.6882
373 1 6.83927 5.60556 26.5485
374 1 9.58976 2.89831 23.8019
375 1 9.63129 2.97921 26.5849
376 1 9.75217 5.75172 26.7721
377 1 12.3376 -0.0770812 23.8313
378 1 12.414 0.107913 26.5993
379 1 12.3188 2.94223 23.8913
380 1 12.5137 2.83569 26.6531
381 1 1.35191 5.69702 23.8722
382 1 4.14215 5.72938 23.8036
383 1 4.08421 5.74868 26.6788
384 1 1.28159 5.64573 26.6131
385 1 1.28875 8.43955 23.679
386 1 4.04031 8.62738 23.8868
387 1 4.10692 8.48283 26.7457
388 1 1.30299 8.54399 26.5119
389 1 6.91154 8.35819 23.892
390 1 9.68399 5.65213 23.7524
391 1 9.73415 8.56798 26.6297
392 1 6.88657 8.46432 26.6054
393 1 6.91869 8.55692 21.0319
394 1 9.77956 8.55186 23.8155
12150 2 11.3038 23.9952 13.9474
396 1 6.99549 11.1977 26.7223
397 1 12.3744 5.71753 23.9203
398 1 12.4787 5.59142 26.584
399 1 12.6991 8.44881 23.6825
400 1 12.5012 8.49523 26.5577
401 1 1.23018 11.3299 24.0452
402 1 4.10396 11.2736 23.7734
403 1 4.13601 11.2605 26.7275
404 1 1.44852 11.2294 26.8894
405 1 1.42724 14.1941 23.855
406 1 4.21023 14.1848 23.8602
407 1 3.99714 14.1105 26.7561
408 1 1.35372 13.9892 26.7114
409 1 6.91452 11.2279 23.9341
410 1 9.80147 11.3171 23.7335
411 1 9.76522 11.3169 26.5739
12231 2 -0.0903481 15.4701 22.3759
413 1 7.04144 14.1099 23.7893
414 1 9.87354 14.0828 23.6983
415 1 9.70663 14.0723 26.5546
416 1 6.92749 14.1372 26.6078
417 1 12.5124 11.379 23.722
418 1 12.5798 11.2923 26.4935
419 1 12.5199 14.2709 23.8048
420 1 12.5518 14.025 26.5978
421 1 1.32035 16.8486 23.85
422 1 4.16615 16.8975 23.8831
423 1 3.9725 16.9155 26.6976
424 1 1.2846 16.915 26.6368
425 1 1.18844 19.6197 23.8036
426 1 4.10815 19.7365 23.7727
427 1 3.82905 19.7718 26.5901
428 1 1.26533 19.7535 26.6141
429 1 7.02469 16.8579 23.828
430 1 9.6547 16.9152 23.8482
431 1 9.64111 16.9522 26.5987
432 1 6.86548 16.9725 26.6149
433 1 6.95197 19.6223 23.8705
434 1 9.71423 19.7832 23.7191
435 1 9.61074 19.7948 26.6665
436 1 6.86332 19.8132 26.5998
437 1 12.4691 17.0255 23.7865
438 1 12.5416 16.9049 26.6026
439 1 12.4703 19.838 23.9126
440 1 12.536 19.876 26.6282
441 1 1.37598 22.7266 23.8371
442 1 4.02381 22.5317 23.8318
443 1 3.97094 22.5947 26.6734
444 1 1.08499 22.7222 26.7001
445 1 6.91921 22.6017 23.7649
446 1 9.73863 22.6641 23.9175
447 1 9.71947 22.5848 26.6955
448 1 6.88294 22.5671 26.517
449 1 12.4536 22.6484 23.7507
450 1 12.4926 22.6131 26.5698
15231 2 13.8615 18.3146 22.4586
12250 2 11.0815 23.9452 25.2536
15041 2 13.8421 24.0087 27.9689
12207 2 8.35358 -1.18304 25.2234
5906 1 6.66853 0.0200648 20.9876
12141 2 2.89791 15.5257 13.9514
12249 2 11.1282 21.0734 22.4203
15211 2 13.9378 6.96173 22.405
15212 2 13.8269 4.22819 25.1798
15221 2 13.9218 12.5951 22.3209
15171 2 13.8529 12.7375 16.8302
12248 2 5.44116 24.0084 25.2093
12140 2 11.1386 12.6348 13.9668
15031 2 13.9411 18.3768 27.9883
12241 2 -0.0913786 21.0407 22.3852
15192 2 13.8928 21.0804 19.7194
12191 2 -0.0189332 20.9986 16.7598
15232 2 13.82 15.6298 25.1172
12220 2 11.091 7.04838 25.2084
12171 2 -0.0595874 9.90632 16.8707
12232 2 2.64597 18.2482 22.5106
12216 2 8.3485 7.08974 22.3839
5903 1 6.81793 0.147303 18.1901
12219 2 11.0284 4.30581 22.4572
12218 2 5.53824 7.18172 25.2903
12247 2 8.32946 21.0434 25.1375
12152 2 2.76048 1.4586 16.6555
12227 2 8.32676 9.81697 25.2799
12246 2 8.4176 23.8964 22.3326
12230 2 11.1144 12.6299 25.165
12156 2 8.18269 1.54657 16.7529
12229 2 11.0836 9.8768 22.3341
12158 2 5.50205 1.49282 19.4785
12217 2 8.20324 4.31332 25.211
12160 2 11.0892 1.55249 19.6106
12245 2 5.50115 21.1031 22.4672
12162 2 2.62426 7.13314 16.9575
12163 2 2.73202 4.34502 19.6376
12228 2 5.43894 12.6714 25.2348
12165 2 5.44403 4.40964 16.785
12166 2 8.42849 7.06073 16.8373
12167 2 8.24769 4.3345 19.5811
12168 2 5.40985 7.10489 19.5634
12169 2 11.0424 4.23534 16.808
12170 2 11.0447 7.16915 19.4766
12243 2 2.60575 21.1828 25.2112
12172 2 2.74156 12.7081 16.7534
12173 2 2.70762 9.97667 19.6942
12242 2 2.73953 23.8762 22.397
12175 2 5.42236 9.90869 16.9398
12176 2 8.24701 12.7583 16.8486
12177 2 8.23983 9.91807 19.5687
12178 2 5.54108 12.6859 19.6688
12179 2 11.0279 9.93826 16.8003
12180 2 11.0318 12.7223 19.6367
12236 2 8.30907 18.1127 22.4473
12182 2 2.75751 18.2892 16.7586
12183 2 2.77722 15.5326 19.7061
12223 2 2.77914 9.89615 25.2405
12185 2 5.54604 15.5112 17.0221
12186 2 8.39821 18.4012 16.7267
12187 2 8.31991 15.4784 19.5575
12188 2 5.59521 18.3604 19.6483
12189 2 11.1299 15.6201 16.7651
12190 2 11.1848 18.3509 19.6229
12226 2 8.31978 12.7066 22.4565
12192 2 2.7174 24.0424 16.7786
12193 2 2.68744 21.0102 19.6007
12225 2 5.56523 9.87272 22.4724
12195 2 5.52352 21.14 16.8124
12196 2 8.32474 24.028 16.7763
12197 2 8.48662 21.2348 19.6772
12198 2 5.48261 23.8784 19.7418
12199 2 11.2725 21.1425 16.8451
12200 2 11.1622 23.9299 19.605
12240 2 11.1167 18.4296 25.258
12202 2 2.57452 1.64584 22.3684
5996 1 6.87207 0.032545 26.5864
12239 2 11.147 15.5232 22.3059
12222 2 2.65653 12.6957 22.4741
12206 2 8.18108 1.4104 22.3322
12235 2 5.64655 15.5166 22.46
12208 2 5.39945 1.51528 25.3802
12233 2 2.74602 15.5535 25.2993
12210 2 10.8628 1.47609 25.1437
12238 2 5.38165 18.3309 25.3093
12212 2 2.66838 6.99998 22.4619
12213 2 2.75575 4.27465 25.3179
12237 2 8.30047 15.5303 25.2338
12215 2 5.46088 4.21071 22.5545
12137 2 -0.0597926 12.7392 13.9759
12144 2 5.57422 18.2976 14.0052
12133 2 8.20081 4.33667 13.9654
15181 2 13.8834 18.2728 16.8186
12136 2 2.63973 9.7903 14.0421
12026 2 8.29339 12.7499 27.9606
12142 2 -0.00902314 18.276 13.9852
15242 2 13.8762 21.1235 25.2267
15182 2 13.9273 15.7302 19.6015
15241 2 13.8525 24.0433 22.4089
12029 2 11.1784 9.96349 27.8855
12148 2 8.36606 21.1254 14.0659
12214 2 -0.0876872 6.97179 25.2986
15131 2 13.9026 4.32528 13.9929
15141 2 13.9307 15.4782 13.9613
15222 2 13.8661 9.72093 25.1544
15201 2 13.8414 1.49654 22.4304
15001 2 13.8668 1.53714 27.9859
15162 2 13.8997 4.29614 19.6326
15151 2 13.8937 1.47056 16.7889
12211 2 -0.0697471 4.20674 22.4651
12194 2 -0.0486444 23.8237 19.4967
12221 2 -0.0820221 9.92202 22.4945
12224 2 -0.0144653 12.707 25.3297
12143 2 8.37244 15.4867 14.0835
12045 2 5.46887 21.1345 27.9545
15136 2 13.939 9.78004 14.0433
12134 2 5.48707 7.10632 14.0556
12021 2 -0.104896 9.92738 27.9611
12130 2 11.0911 1.40341 14.0546
12146 2 2.6175 21.1158 14.0952
12139 2 5.67191 12.6342 14.1052
12149 2 5.52483 24.0189 14.0533
12138 2 8.10893 9.73179 14.128
12031 2 -0.068458 15.4289 27.9821
451 1 1.27558 25.3564 1.46763
452 1 4.06855 25.4229 1.60823
453 1 3.95774 25.2496 4.22418
454 1 1.35347 25.427 4.19879
455 1 6.8697 25.3456 1.30346
456 1 9.5688 25.2694 1.37309
457 1 9.73306 25.3502 4.17465
458 1 6.95681 25.3036 4.02402
459 1 12.7394 30.9044 1.30275
460 1 12.4269 28.2951 4.16313
461 1 1.25953 28.2342 1.46724
462 1 3.94237 28.2898 1.25637
463 1 4.00727 28.0064 4.16992
464 1 1.22578 28.2933 4.12026
465 1 1.28969 30.9746 1.29639
466 1 4.01531 31.1799 1.36444
467 1 4.06177 30.7879 4.08077
468 1 1.36098 31.1989 4.10855
469 1 6.85291 28.2076 1.46562
470 1 9.65888 28.1734 1.40329
471 1 9.69864 28.2131 4.0805
472 1 6.64536 27.9507 4.24728
473 1 6.96692 31.06 1.21484
15252 2 13.8916 26.7723 2.74995
475 1 9.79254 31.0886 4.03368
476 1 6.82464 30.733 3.89766
477 1 9.76371 31.063 1.32237
478 1 9.79308 33.8981 1.5259
1105 1 6.82411 50.6332 12.6451
12341 2 0.0538017 26.6895 11.1698
481 1 1.11903 33.7288 1.25938
482 1 4.66608 33.9973 1.12572
483 1 4.01614 33.7545 4.2938
484 1 1.10718 33.6774 4.12454
12385 2 8.20611 49.2686 13.9401
486 1 2.73397 35.2732 2.40705
487 1 3.89785 36.9919 4.26116
488 1 1.14688 36.6438 4.31634
489 1 7.43061 34.3366 0.841229
847 1 1.13186 36.9557 1.35888
491 1 9.29119 33.9399 4.23901
492 1 6.70549 33.4869 3.18322
493 1 4.32918 36.7062 0.839364
494 1 9.7953 36.5034 1.65153
495 1 9.38639 36.6405 4.29486
496 1 6.5709 35.9661 4.62283
497 1 12.6218 33.7798 1.29185
498 1 12.522 33.8836 3.98955
499 1 12.4588 36.7409 1.21857
500 1 12.4335 36.7418 4.03842
501 1 1.25118 39.6305 1.27851
502 1 4.30194 39.4621 1.36871
503 1 4.11916 39.7021 4.20705
504 1 1.28338 39.5928 4.1809
505 1 1.38088 42.2592 1.28855
506 1 4.24409 42.2836 1.33077
507 1 3.94826 42.3646 4.14635
508 1 1.21761 42.3388 3.95787
509 1 7.02409 39.7536 1.19636
510 1 9.87865 39.3249 1.23713
511 1 9.5656 39.6387 4.05462
512 1 6.85446 39.3201 4.19292
513 1 6.91676 42.3765 1.12828
514 1 9.67678 42.2218 1.42431
515 1 9.65974 42.4166 4.23916
516 1 6.82189 42.2686 4.05902
517 1 12.6688 39.6218 1.38099
518 1 12.4549 39.4572 4.23415
519 1 12.5016 42.3958 1.42575
520 1 12.5196 42.1564 4.15214
521 1 1.11669 44.9311 1.39613
522 1 3.76807 44.9767 1.16429
523 1 4.19139 45.204 4.03287
524 1 1.30676 45.0535 4.18346
525 1 1.28227 47.6727 1.18394
526 1 4.10486 47.8806 1.14498
527 1 3.95162 47.922 4.00248
528 1 1.23067 47.8836 4.04857
529 1 6.73963 44.9894 1.21329
530 1 9.78708 45.065 1.22509
531 1 9.62476 45.0658 4.22307
532 1 6.85205 45.1686 4.02231
533 1 6.986 47.8381 1.22489
534 1 9.73829 48.0125 1.34707
535 1 9.70162 47.8853 3.96521
536 1 6.90011 48.0508 3.96996
537 1 12.5581 45.1088 1.37876
538 1 12.353 44.9239 4.20308
539 1 12.3926 47.9082 1.22063
540 1 12.5025 47.857 4.13953
541 1 1.24378 25.3285 7.1619
542 1 3.98961 25.3003 6.94946
543 1 4.04063 25.4762 9.6812
544 1 1.4084 25.3427 9.78783
545 1 6.75146 25.3585 6.92999
546 1 9.7469 25.3867 7.00988
547 1 9.70501 25.3084 9.66906
548 1 6.96714 25.4762 9.79603
549 1 12.5883 28.2504 6.78923
550 1 12.6507 25.5456 9.60463
551 1 1.10685 28.1343 6.94055
552 1 3.87222 28.1453 6.92828
553 1 4.14744 28.2241 9.68963
554 1 1.37227 28.1645 9.78101
555 1 1.22872 30.9515 6.80758
556 1 4.00307 30.9566 6.95873
557 1 3.93139 31.0692 9.74967
558 1 1.19982 30.9752 9.63484
559 1 6.8711 28.1163 6.89702
560 1 9.68139 28.2618 6.9514
561 1 9.77729 28.2735 9.73968
562 1 6.93066 28.1197 9.73614
563 1 6.75225 30.8115 6.84567
564 1 9.57614 31.0159 6.81599
565 1 9.65503 30.9606 9.8348
566 1 6.82154 30.8158 9.57618
567 1 12.5327 31.1217 6.87317
568 1 12.6064 28.2425 9.65769
90 1 12.5019 25.3355 1.30121
570 1 12.6163 30.949 9.60494
571 1 1.18448 33.7908 6.86301
572 1 4.10386 33.8003 6.95861
573 1 4.00178 33.7546 9.57394
574 1 1.00868 33.9145 9.63549
575 1 1.25555 36.6297 7.09462
576 1 4.11202 36.6041 7.05249
577 1 4.02142 36.4467 9.87224
578 1 1.11062 36.602 9.92449
579 1 6.91421 33.587 6.67483
580 1 9.70058 33.7631 7.01893
581 1 9.5831 33.7568 9.56593
582 1 6.65875 33.6665 9.50124
583 1 6.86144 36.5319 7.24122
584 1 9.74394 36.6468 6.98463
585 1 9.58909 36.6524 9.86706
586 1 6.87514 36.4241 9.87553
587 1 12.3572 33.8611 6.86708
588 1 12.4043 33.7668 9.70164
589 1 12.545 36.7807 6.77105
590 1 12.3626 36.6171 9.66031
591 1 1.3255 39.4254 6.87167
592 1 4.00192 39.3905 7.01599
593 1 4.20227 39.3267 9.81576
594 1 1.33333 39.2898 9.7535
595 1 1.17883 42.2428 6.85213
596 1 4.08066 42.1546 6.99974
597 1 4.00274 42.2751 9.77674
598 1 1.22165 42.1252 9.71015
599 1 6.80186 39.4962 6.99702
600 1 9.78465 39.613 6.96378
601 1 9.82897 39.4203 9.79513
602 1 6.92875 39.4405 9.78347
603 1 6.94399 42.3121 6.94837
604 1 9.8311 42.3579 6.97346
605 1 9.61458 42.155 9.75346
606 1 6.81112 42.2894 9.62475
607 1 12.4993 39.5421 7.01319
608 1 12.5128 39.4043 9.85027
609 1 12.5874 42.329 6.85542
610 1 12.4853 42.1818 9.74879
611 1 1.09509 45.1231 7.09072
612 1 3.9096 44.989 6.84289
613 1 4.10007 44.9599 9.70189
614 1 1.2032 45.0466 9.77253
615 1 1.31408 47.7357 6.84456
616 1 4.22979 47.9297 6.93542
617 1 4.01936 47.742 9.77083
618 1 1.19909 47.8368 9.77405
619 1 6.71932 44.9313 6.91776
620 1 9.63279 45.1979 6.90966
621 1 9.83633 45.0519 9.67703
622 1 7.00602 45.1025 9.73154
623 1 6.98902 47.6664 6.76384
624 1 9.7434 47.8562 6.98976
625 1 9.67586 47.888 9.72361
626 1 6.77781 47.8779 9.6127
627 1 12.5123 45.071 6.94091
628 1 12.6796 45.037 9.77235
629 1 12.6317 47.9251 6.93518
630 1 12.6219 48.0222 9.71352
631 1 1.34857 25.4069 12.5104
632 1 4.25521 25.3563 12.763
633 1 6.83884 25.4143 12.6185
634 1 9.86675 25.3143 12.4001
635 1 12.5779 25.566 12.4281
636 1 1.37801 28.2703 12.5873
637 1 4.11233 28.2585 12.4389
638 1 1.3256 31.0804 12.5347
639 1 4.1255 30.9754 12.5039
640 1 6.95718 28.095 12.6039
641 1 9.67071 28.2243 12.6307
642 1 6.98053 31.1149 12.561
643 1 9.81525 31.1036 12.5737
644 1 12.4806 28.4009 12.4524
645 1 12.5589 31.1508 12.4834
646 1 1.23927 33.8765 12.3906
647 1 3.96426 33.8491 12.6069
648 1 1.31079 36.6327 12.6302
649 1 4.13551 36.6623 12.6458
650 1 6.80371 33.9209 12.4763
651 1 9.67001 33.8797 12.5825
652 1 6.9892 36.6837 12.7369
653 1 9.76194 36.8379 12.5914
654 1 12.4324 33.8163 12.6425
655 1 12.4158 36.8603 12.7247
656 1 1.26712 39.5097 12.4907
657 1 4.15172 39.4062 12.5601
658 1 1.06787 42.1879 12.3506
659 1 3.97697 42.1812 12.6081
660 1 6.97096 39.494 12.5097
661 1 9.85915 39.5432 12.4722
662 1 6.81009 42.3223 12.5142
663 1 9.68299 42.3489 12.5607
664 1 12.6926 39.7003 12.7456
665 1 12.3628 42.4058 12.5162
666 1 1.14587 45.0789 12.6408
667 1 4.02905 45.0663 12.41
668 1 1.21627 47.7278 12.599
669 1 4.12155 47.8532 12.5783
670 1 6.87114 45.1433 12.4968
671 1 9.46223 45.1003 12.4093
672 1 6.77423 47.9388 12.5131
673 1 9.59936 47.8363 12.5071
674 1 12.2391 45.1022 12.5216
675 1 12.414 47.8884 12.4918
12363 2 11.023 49.277 11.0973
89 1 12.5562 28.1309 1.29058
12253 2 2.6247 26.7156 2.86236
12362 2 5.31889 49.3058 11.0448
1101 1 1.21226 50.6389 12.5442
180 1 12.4474 25.3986 6.80307
12257 2 8.31916 26.7559 2.77734
12258 2 5.31568 29.4061 2.68059
15296 2 13.8767 29.6652 5.49509
12260 2 11.1346 29.5528 2.7189
12360 2 11.1087 43.5713 11.0579
15326 2 13.897 46.608 5.62372
12263 2 2.6422 32.5595 2.66937
12359 2 8.1259 46.551 11.1816
12383 2 10.9593 46.4854 13.8505
1004 1 1.19555 50.5747 9.88038
12267 2 8.29685 32.0388 2.70957
12268 2 4.95938 35.3261 2.94656
12345 2 11.1137 26.8317 11.1018
12270 2 11.5686 35.2527 2.62108
12358 2 5.4341 43.7267 11.134
12344 2 8.3277 29.5895 11.1989
12273 2 2.55125 38.1304 2.83589
12357 2 2.55151 46.3462 11.1364
12343 2 5.4391 26.8055 11.1526
179 1 12.5373 25.4889 4.11685
12277 2 8.28668 38.4199 2.49482
12278 2 5.41558 41.0058 2.74802
15316 2 13.8642 40.8702 5.48862
12280 2 11.1702 40.9736 2.78529
12355 2 11.19 38.1761 11.2782
1106 1 9.65553 50.6186 12.434
12283 2 2.54593 43.664 2.69962
12354 2 8.24419 40.9677 11.179
851 1 6.60403 36.798 2.30844
12342 2 2.61334 29.6473 11.0805
12287 2 8.29921 43.602 2.66252
12288 2 5.40939 46.4739 2.4516
12340 2 11.1139 49.2666 5.43327
12290 2 11.1145 46.4534 2.79428
12353 2 5.57443 38.0343 11.3169
12292 2 2.66714 49.3398 2.62351
1003 1 3.97041 50.5654 9.70486
12294 2 8.30626 49.3 2.63724
1010 1 9.65131 50.5939 6.76909
12339 2 8.26177 49.4455 8.22174
12297 2 2.56743 29.5344 5.56376
12298 2 2.66752 26.6816 8.30376
12338 2 5.39761 49.3531 5.43325
12300 2 5.30206 26.7123 5.56747
12301 2 8.19177 29.5187 5.57239
12302 2 8.20346 26.8535 8.44589
12303 2 5.38916 29.5728 8.36155
12304 2 11.123 26.7486 5.51162
12305 2 11.1809 29.5501 8.3145
12352 2 2.67364 40.7818 11.1941
12307 2 2.57815 35.284 5.57589
12308 2 2.53206 32.4329 8.31224
569 1 12.6202 31.0328 3.99069
12310 2 5.34573 32.2274 5.56265
12311 2 8.24495 35.1856 6.04236
12312 2 8.28017 32.2786 8.38029
12313 2 5.36444 35.1317 8.32281
12314 2 10.9999 32.3657 5.49941
12315 2 11.0586 35.2487 8.38699
12266 2 8.23274 35.2839 2.84219