ITEM: TIMESTEP
490000
ITEM: NUMBER OF ATOMS
18000
ITEM: BOX BOUNDS xy xz yz pp pp pp
-1.0094600778866833e-01 2.7994946007787338e+01 0.0000000000000000e+00
-1.1541562014932385e+00 3.3588215620151681e+02 0.0000000000000000e+00
-1.0335687858978586e-01 2.7997356878588629e+01 0.0000000000000000e+00
ITEM: ATOMS id type x y z
1 1 1.21395 0.189454 1.48081
2 1 3.96813 0.129263 1.4485
3 1 4.03485 0.145555 4.23002
4 1 1.25842 0.236332 4.21519
5 1 1.27424 3.0467 1.38073
6 1 3.9572 2.97853 1.2713
7 1 3.9689 3.01612 4.10512
8 1 1.12118 3.00793 4.25934
9 1 6.75784 2.75657 1.18752
10 1 9.70855 0.0814703 1.34445
11 1 9.49842 0.106192 4.0923
12 1 6.77137 2.82472 4.08458
13 1 6.91424 5.70722 1.35408
14 1 9.7006 2.87395 1.29169
15 1 9.63326 2.89387 4.0563
16 1 6.85335 5.51649 3.9787
17 1 12.5245 0.0911805 1.40149
18 1 12.4185 0.168998 4.242
19 1 12.5846 3.04023 1.13772
20 1 12.3214 2.97384 3.96697
21 1 1.33492 5.76395 1.17637
22 1 4.11167 5.64547 1.10467
23 1 4.10653 5.77577 4.07053
24 1 1.15017 5.80223 4.04582
25 1 1.08838 8.53158 1.17167
26 1 3.96639 8.42625 1.28737
27 1 3.87603 11.5114 3.96777
28 1 1.04901 8.55858 4.07815
12141 2 2.69853 15.565 14.1023
30 1 9.67981 5.74858 1.15699
31 1 9.81248 5.7525 4.08868
32 1 6.32022 8.30814 5.6583
33 1 6.33812 10.3485 3.5473
34 1 9.97874 8.61192 1.22653
35 1 7.73039 8.10916 3.35052
36 1 6.34074 11.9198 5.32569
37 1 12.3061 5.79339 1.24252
38 1 12.5406 5.73706 4.09966
39 1 12.6842 8.64446 1.08742
40 1 12.5836 8.34128 3.92522
41 1 1.1424 11.3568 1.23546
42 1 4.05485 11.3782 1.04938
43 1 6.87422 14.256 3.98255
44 1 1.08587 11.2627 4.04568
45 1 1.2359 14.2513 1.25231
46 1 3.80961 14.2318 1.08818
47 1 4.07354 14.1851 3.96731
48 1 1.13385 14.2398 3.9943
49 1 3.87192 8.44315 4.04192
50 1 9.62607 11.3642 1.11009
51 1 9.83083 8.69063 4.7358
52 1 9.03361 11.3022 3.98201
53 1 6.86249 16.9184 4.14314
54 1 9.62421 14.2081 1.25444
55 1 12.4491 14.2951 3.96297
56 1 9.71844 14.2303 3.85424
57 1 12.6426 11.3282 1.14245
58 1 12.5237 11.3872 3.74608
59 1 12.4998 14.1101 1.20183
15101 2 13.8431 1.4214 11.2124
61 1 1.22162 17.0667 1.19072
62 1 3.95035 17.0669 1.26398
63 1 4.05403 16.8921 4.1033
64 1 1.23402 16.8535 4.10889
65 1 1.32348 19.864 1.11751
66 1 4.22821 19.785 1.2832
67 1 4.10479 19.9364 4.14922
68 1 1.43806 19.6984 4.00864
69 1 6.75812 17.1659 1.43511
70 1 9.70636 17.0034 1.13972
71 1 12.4209 17.1355 3.98734
72 1 9.6307 17.069 4.0532
73 1 6.94528 19.8924 1.42263
74 1 9.60721 19.7971 1.22568
75 1 9.65458 19.912 4.06177
76 1 6.85972 19.8064 4.24484
77 1 12.4297 16.9571 1.26562
12136 2 2.71663 10.0157 13.8943
79 1 12.4159 19.8262 1.37573
15022 2 13.9147 9.91495 2.58086
81 1 1.23347 22.6023 1.38904
82 1 4.12087 22.7112 1.11343
83 1 4.04169 22.681 3.97832
84 1 1.19556 22.5994 4.23998
85 1 6.98701 22.6173 1.25428
86 1 9.74273 22.5581 1.31894
87 1 9.70535 22.7165 4.14372
88 1 6.85853 22.674 4.07741
15062 2 13.8711 4.35389 8.30176
15111 2 13.8754 12.744 10.9433
91 1 1.25151 0.157574 6.9252
92 1 4.09255 0.322543 7.01434
93 1 4.19537 2.38386 9.90426
94 1 1.50375 0.080957 9.87759
95 1 1.37074 2.98811 7.07518
96 1 4.12298 3.11557 7.07953
97 1 6.86949 5.6913 9.65965
98 1 1.18266 2.98475 9.80838
99 1 7.07522 2.94938 6.80638
100 1 9.8967 -0.0493408 6.96107
101 1 9.60647 0.0292207 9.76907
102 1 6.9751 2.95279 9.6338
103 1 6.78744 5.68605 6.6845
104 1 9.65063 2.87377 6.88579
105 1 9.87206 2.91019 9.72719
106 1 6.88701 5.81695 12.4685
107 1 12.548 0.191775 6.94448
108 1 12.4004 0.0570334 9.86669
109 1 12.4691 2.90497 6.91364
110 1 12.5662 2.97816 9.62253
111 1 1.09598 5.69857 6.93454
112 1 4.0154 5.77082 6.80127
113 1 3.95731 8.4198 9.49651
114 1 1.1299 5.79181 9.72459
115 1 1.10773 8.66221 6.89146
116 1 3.85385 8.59511 6.83113
117 1 6.41553 10.1478 7.37854
118 1 1.17925 8.50986 9.8175
119 1 8.71777 8.43612 7.00713
120 1 9.67683 5.70133 6.95094
121 1 9.60043 5.85469 9.77993
122 1 6.81454 8.51373 9.67526
123 1 8.5627 11.8344 7.0544
124 1 12.5479 8.33598 7.02665
125 1 10.7415 10.4287 7.37635
126 2 8.38674 9.93571 8.63741
127 1 12.5443 5.66915 7.0189
128 1 12.4926 5.73708 9.72836
12140 2 11.2012 12.7689 13.9211
130 1 12.6017 11.3755 9.44511
131 1 1.00282 11.4609 6.85452
132 1 3.70656 11.4882 6.84435
133 1 4.00482 11.294 9.51494
134 1 1.21948 11.5118 9.63125
135 1 1.23313 14.3478 6.913
136 1 3.96505 14.3772 6.59234
137 1 4.07673 14.1531 9.66166
138 1 1.42142 14.2441 9.60961
139 1 9.75766 14.5069 6.84103
140 1 11.0071 12.3292 5.56363
141 1 9.68543 11.4029 9.89227
142 1 6.84607 11.3452 9.8774
143 1 6.97326 14.2492 6.91826
144 1 9.69343 17.1376 6.97197
145 1 9.68049 13.9713 9.63006
146 1 6.95177 14.2358 9.66698
147 1 12.6166 13.9959 6.88948
148 1 12.5593 14.3446 9.69233
149 1 12.2856 17.0546 7.06494
150 1 12.3778 17.1141 9.77411
151 1 1.47359 17.0015 6.93445
152 1 4.16307 17.0772 6.92495
153 1 4.02277 16.8614 9.67593
154 1 1.30464 17.0596 9.74893
155 1 1.35573 19.7006 6.83374
156 1 4.16137 19.8679 6.94915
157 1 4.07606 19.7336 9.70363
158 1 1.1424 19.7855 9.67119
159 1 6.85426 17.0217 6.85226
160 1 12.4658 22.6864 4.21944
161 1 9.64592 16.9598 9.70941
162 1 6.94988 17.0467 9.72546
163 1 6.86038 19.8265 6.8882
164 1 9.67889 20.0609 6.81991
165 1 9.75909 19.8547 9.564
166 1 6.90462 19.8399 9.64968
241 1 9.70114 8.62163 12.4338
168 1 12.547 19.8941 9.81541
169 1 12.4778 22.735 6.73323
170 1 12.4661 22.6481 9.71651
171 1 1.19695 22.6194 7.01535
172 1 4.00854 22.5806 6.84192
173 1 4.12626 22.5012 9.7096
174 1 1.27346 22.6274 9.76235
175 1 6.81647 22.742 6.95338
176 1 9.54801 22.772 6.88555
177 1 9.77698 22.7328 9.73722
178 1 6.92856 22.5184 9.70676
12035 2 5.33327 15.7704 0.00642042
12133 2 8.22283 4.27729 13.9053
181 1 1.25728 0.190215 12.5831
182 1 3.98979 0.148539 12.4655
183 1 1.14461 3.02688 12.5373
184 1 3.86604 3.15142 12.6418
185 1 6.82385 0.053871 12.5581
186 1 9.64782 0.124573 12.5692
187 1 6.69274 2.94371 12.5638
188 1 9.61783 2.92164 12.5001
189 1 12.4809 0.0368045 12.6849
190 1 12.4712 2.9881 12.488
191 1 1.26944 5.91715 12.5474
192 1 3.97118 5.54021 9.72283
193 1 1.22426 8.59824 12.6326
194 1 3.8541 8.71068 12.3686
195 1 4.20357 5.89521 12.4114
196 1 9.64433 5.66583 12.5566
197 1 9.73042 8.64451 9.70035
198 1 12.508 8.56682 9.75892
199 1 12.4002 5.88248 12.5259
200 1 12.3846 8.59578 12.5287
201 1 1.261 11.3793 12.4928
202 1 4.12303 11.4955 12.3811
203 1 1.28383 14.182 12.5452
204 1 3.99757 14.182 12.606
205 1 6.86696 11.2896 12.6513
206 1 9.66946 11.3972 12.5318
207 1 6.72357 14.1408 12.422
208 1 9.58171 14.1251 12.5645
209 1 12.5324 11.4695 12.277
210 1 12.4574 14.0972 12.5214
211 1 1.47985 17.0017 12.5743
212 1 4.1693 17.0539 12.5993
213 1 1.37399 19.7915 12.3901
214 1 4.12937 19.8879 12.6267
215 1 6.96811 17.004 12.6074
216 1 9.78302 16.9339 12.5198
217 1 6.95791 19.8062 12.5452
218 1 9.6566 19.7601 12.4536
219 1 12.3633 17.0359 12.5282
220 1 12.5106 19.8893 12.5527
221 1 1.23355 22.5713 12.5934
222 1 4.10792 22.5532 12.6459
223 1 6.90731 22.6143 12.5092
224 1 9.86939 22.5654 12.6376
225 1 12.5501 22.5532 12.5026
12125 2 11.1767 21.2722 11.0939
12110 2 11.142 4.30863 11.1897
15091 2 13.8327 24.1756 5.52087
12124 2 8.37514 24.0174 11.1329
80 1 12.5356 22.7448 1.36804
12109 2 8.2286 7.16121 11.1299
15042 2 14.0115 21.2695 2.85097
12008 2 5.37008 1.6385 2.73396
243 1 6.83706 8.65587 12.4285
12010 2 11.0976 1.49274 2.7336
12123 2 5.5782 21.2241 11.1731
12108 2 5.40037 4.35406 11.0704
12013 2 2.68466 4.46446 2.65428
12122 2 2.6951 24.0426 11.1509
12107 2 2.70132 7.26287 11.0812
12112 2 2.74237 12.7191 11.0606
12017 2 8.26816 4.27795 2.51928
12018 2 5.59254 7.21665 2.76231
12104 2 8.14206 1.55749 11.1301
12020 2 11.0738 7.04919 2.52253
60 1 12.3644 19.8396 4.20641
12091 2 -0.00648175 21.1615 5.62098
12023 2 2.47294 9.81075 2.59021
12120 2 10.9765 15.4934 11.0154
12102 2 2.63535 1.61087 11.3259
12113 2 5.49881 9.95563 11.1177
12027 2 8.28978 9.90566 2.19572
12028 2 5.54538 12.5215 2.83246
12100 2 11.0383 24.071 8.15237
12030 2 11.1745 12.7667 2.53464
12099 2 11.112 21.4497 5.50006
12098 2 5.40176 24.065 8.33184
12033 2 2.5673 15.565 2.76902
412 1 6.86592 14.3254 1.24461
12097 2 8.13994 21.2365 8.22096
12096 2 8.19457 24.0542 5.60359
12037 2 8.3345 15.5868 2.66196
12038 2 5.45916 18.449 2.79652
12095 2 5.41557 21.3281 5.51386
12040 2 11.0092 18.4865 2.76292
29 1 6.73113 8.57326 0.96522
12093 2 2.64254 21.1864 8.41047
12043 2 2.65071 21.2235 2.70044
5723 1 6.95829 0.191058 6.76797
12092 2 2.67242 24.1118 5.52553
5634 1 6.93301 0.0191505 1.14457
12047 2 8.28144 21.2204 2.67134
12048 2 5.46599 23.9061 2.58494
12090 2 11.0476 18.439 8.39199
12050 2 11.1982 23.9826 2.728
12119 2 8.27553 18.4099 11.096
12052 2 2.59096 1.57607 5.48938
15012 2 13.8481 4.2999 2.59069
12118 2 5.49533 15.6551 11.1358
5633 1 6.83263 0.151739 4.05715
12056 2 8.33977 1.5375 5.48882
5726 1 6.58608 0.0283534 9.54223
12058 2 5.63496 1.678 8.13482
15032 2 13.7575 15.7069 2.68021
12060 2 11.1353 1.50759 8.3447
12117 2 2.68272 18.318 11.0477
12062 2 2.61686 7.05837 5.43193
12063 2 2.57444 4.34768 8.26478
12089 2 11.1678 15.7189 5.50689
12065 2 5.4336 4.37253 5.43589
12066 2 8.31194 6.82527 5.38481
12067 2 8.34498 4.46326 8.27316
12068 2 5.44989 7.21198 8.12584
12069 2 11.0936 4.30634 5.49467
12070 2 11.0703 7.16268 8.33401
12115 2 11.2157 9.94022 11.1869
12072 2 2.46959 12.854 5.38212
12073 2 2.38081 10.0527 8.35086
12114 2 8.17896 12.8254 11.0759
12075 2 4.86848 10.0792 5.5094
12076 2 8.45047 13.2043 5.37794
12077 2 7.8909 10.0764 5.4996
12078 2 5.59155 12.7007 7.98451
12079 2 11.5882 10.0116 5.37488
12080 2 10.9689 12.651 8.07226
395 1 6.7859 11.3876 1.04159
12082 2 2.85076 18.419 5.48919
12083 2 2.86766 15.5663 8.30694
15081 2 13.4305 18.4375 5.56521
12085 2 5.45161 15.5704 5.36541
12086 2 8.37672 18.4248 5.51898
12087 2 8.36085 15.5872 8.29371
12088 2 5.50348 18.4115 8.2537
167 1 12.3175 19.9506 7.12433
12002 2 2.63252 1.57204 -0.167535
15071 2 13.7017 12.8399 5.28491
12146 2 2.68879 21.1955 14.0516
15146 2 14.0023 21.3168 13.8374
15116 2 13.7199 18.3644 11.2003
129 1 13.7791 10.9025 6.37791
15061 2 13.9719 7.03827 5.56956
12121 2 -0.0820992 21.3198 11.1115
12054 2 -0.209196 1.57256 8.24931
15051 2 13.9456 1.6232 5.47384
12044 2 -0.150022 23.9427 2.65616
15072 2 13.8324 9.75525 8.31983
12139 2 5.48539 12.7869 13.9641
12084 2 -0.0997077 18.5016 8.29646
12144 2 5.53007 18.5548 13.8991
15106 2 13.9497 7.17945 11.1685
12006 2 8.34548 1.43465 -0.149564
12064 2 -0.230042 7.21076 8.23982
12094 2 -0.099487 23.974 8.32278
15041 2 13.8379 23.9991 -0.188687
12022 2 2.62642 12.7281 -0.153423
12148 2 8.29017 21.2801 14.0228
12138 2 8.30046 10.0096 14.0356
12149 2 5.47145 24.0322 14.0057
12134 2 5.42453 7.15747 13.9416
12039 2 11.0957 15.559 -0.192452
12132 2 -0.275716 7.12261 13.8776
226 1 3.9575 0.122308 15.4313
227 1 1.12267 0.131964 15.5015
228 1 3.89362 2.90508 15.3032
229 1 1.31882 2.8805 15.2859
230 1 9.65481 0.169344 15.3143
231 1 6.86411 0.044704 15.4073
232 1 9.75133 2.8009 15.2754
233 1 6.80809 2.94447 15.3291
234 1 12.4563 0.11732 15.5067
235 1 12.5828 2.86585 15.1263
236 1 4.01286 5.80554 15.2426
237 1 1.13202 5.65094 15.2134
238 1 4.07151 8.54681 15.2771
239 1 1.37607 8.56141 15.3384
240 1 9.49602 5.73606 15.4006
12031 2 -0.0896999 15.6776 28.0168
242 1 9.62486 8.69683 15.3174
5993 1 6.96653 0.0858307 23.7826
244 1 12.3566 5.55062 15.2265
245 1 12.4603 8.41969 15.2884
246 1 4.28603 11.3428 15.2766
247 1 1.31629 11.4165 15.2994
248 1 4.14062 14.1218 15.4072
249 1 1.13602 14.2081 15.3506
250 1 9.87489 11.4221 15.3067
251 1 7.04609 11.4227 15.3649
252 1 9.7401 14.1862 15.2681
253 1 6.98229 14.2168 15.1156
254 1 12.6135 11.3119 15.0603
255 1 12.5773 14.1873 15.3154
256 1 4.20679 16.912 15.3525
257 1 1.37851 17.0186 15.3454
258 1 4.09696 19.6837 15.4504
259 1 1.35031 19.7794 15.3351
260 1 9.77557 17.0163 15.3864
261 1 6.9204 17.1325 15.4705
262 1 9.62028 19.8755 15.2693
263 1 6.84308 19.9201 15.3631
264 1 12.5929 17.1469 15.2028
265 1 12.4765 19.887 15.353
266 1 4.12101 22.5685 15.4267
267 1 1.31042 22.6105 15.3303
268 1 9.67756 22.6073 15.4583
269 1 7.03914 22.5951 15.4832
270 1 12.5502 22.6968 15.4345
271 1 1.02979 0.0949958 18.1475
272 1 3.84378 0.175291 18.2361
273 1 3.92885 0.0339896 20.9775
274 1 1.2295 0.112121 21.1041
275 1 1.40385 2.88614 18.1435
276 1 4.14934 2.98667 18.1193
277 1 4.00591 2.81145 20.9938
278 1 1.45871 2.86407 20.9531
279 1 7.03058 3.0003 18.1829
280 1 9.68702 0.116297 18.1266
281 1 9.64123 -0.0187274 20.9863
282 1 6.73165 2.84618 21.0666
283 1 6.76501 5.93249 18.2674
284 1 9.72338 3.00829 18.1819
285 1 9.4737 2.85511 20.9199
286 1 6.81637 5.76995 23.6226
287 1 12.2152 0.263059 18.2154
288 1 12.4743 0.175635 21.0796
289 1 12.4081 3.13654 18.117
290 1 12.4814 2.97275 20.7483
291 1 1.20984 5.68243 18.0054
292 1 3.90812 5.74684 18.1387
293 1 4.03057 5.74945 21.0369
294 1 1.19873 5.76807 20.9533
295 1 1.25316 8.46557 18.0871
296 1 4.17635 8.51002 18.0747
297 1 4.11946 8.61505 20.9883
298 1 1.32555 8.59872 20.7706
299 1 6.75529 5.78859 15.3437
300 1 9.71334 5.82311 18.1715
301 1 9.76165 5.67542 20.9081
302 1 6.81813 5.66742 20.8815
303 1 6.82297 8.46366 15.2026
304 1 9.60544 8.44957 18.1479
305 1 9.64938 8.45 20.9204
306 1 6.76565 8.61773 18.0495
307 1 12.6874 5.84935 18.0118
308 1 12.5607 5.97128 20.9228
309 1 12.3752 8.5861 17.9899
310 1 12.4799 8.63065 20.8561
311 1 1.32669 11.2905 17.9869
312 1 4.11731 11.3377 18.2303
313 1 4.09774 11.3264 20.8946
314 1 1.30088 11.3566 20.8148
315 1 1.32798 14.2785 18.2321
316 1 4.08696 14.2176 18.0391
317 1 4.04349 14.0484 20.8213
318 1 1.36102 14.2869 21.1177
319 1 6.99995 11.4388 18.1433
320 1 9.95927 11.3231 17.9805
321 1 9.63496 11.3352 20.6693
322 1 6.94569 11.3631 20.847
323 1 6.7898 14.268 18.0093
324 1 9.63679 14.0731 18.1247
325 1 9.65534 14.2119 20.8647
326 1 6.79129 14.2118 20.8489
327 1 12.7147 11.6122 18.0903
328 1 12.5528 11.4155 20.8778
329 1 12.4504 14.4537 17.9869
330 1 12.4993 14.2061 20.8937
331 1 1.15154 16.938 18.1358
332 1 3.94186 17.0789 18.18
333 1 4.19613 17.0899 20.8467
334 1 1.30491 17.0896 21.1179
335 1 1.4707 19.822 18.1887
336 1 4.12635 19.7539 18.2351
337 1 4.12155 19.8943 21.0371
338 1 1.30593 19.9198 20.9007
339 1 7.03205 17.1124 18.3146
340 1 9.61543 17.058 18.1137
341 1 9.59889 17.1117 20.9115
342 1 6.97198 17.0168 20.9386
343 1 6.98156 19.8645 18.1387
344 1 9.71467 19.8638 18.1317
345 1 9.63143 19.9744 21.0015
346 1 6.89356 19.9125 20.9508
347 1 12.4522 17.0779 18.2159
348 1 12.5194 17.018 20.8629
349 1 12.5173 19.9948 18.1675
350 1 12.3772 19.7602 20.87
351 1 1.3886 22.6972 18.134
352 1 4.2255 22.5418 18.1717
353 1 4.14948 22.7169 20.8722
354 1 1.31993 22.625 21.1113
355 1 6.99952 22.6652 18.238
356 1 9.60725 22.8262 18.2979
357 1 9.76131 22.5583 20.9835
358 1 6.91816 22.6764 20.9048
359 1 12.4743 22.6973 18.1436
360 1 12.5904 22.5403 21.088
361 1 1.12662 0.244668 23.8705
362 1 4.1468 0.115597 23.6293
363 1 4.16334 0.239185 26.4914
364 1 1.33515 0.0444464 26.7296
365 1 1.25927 3.0588 23.7764
366 1 4.08176 2.99231 23.7894
367 1 4.04622 2.92525 26.5276
368 1 1.43225 2.98559 26.5463
369 1 6.92023 2.9616 23.7695
370 1 9.71719 0.119936 23.7606
371 1 9.96717 0.0444793 26.6279
372 1 6.84949 2.93599 26.4969
373 1 6.98619 5.70308 26.4292
374 1 9.92616 2.93182 23.7536
375 1 9.64553 2.80276 26.4311
376 1 9.83017 5.78073 26.382
377 1 12.502 0.222115 23.7091
378 1 12.5638 0.216586 26.5087
379 1 12.7 3.13569 23.6579
380 1 12.5618 2.90188 26.3929
381 1 1.31541 5.8395 23.8001
382 1 3.90549 5.83741 23.6858
383 1 4.06026 5.60934 26.3482
384 1 1.08121 5.61535 26.5837
385 1 1.39016 8.72953 23.5878
386 1 4.18298 8.56961 23.7621
387 1 3.97713 8.43059 26.5941
388 1 1.18377 8.44205 26.4377
389 1 6.82366 8.52144 23.6133
390 1 9.76509 5.732 23.7626
391 1 9.65041 8.54538 26.4952
392 1 6.71682 8.67152 26.4071
393 1 6.91266 8.61784 20.9026
394 1 9.68234 8.59907 23.6222
15152 2 13.9044 -1.15387 19.6254
396 1 6.88265 11.4412 26.2928
397 1 12.6447 5.70336 23.5924
398 1 12.6137 5.7813 26.5483
399 1 12.4965 8.5612 23.8411
400 1 12.5345 8.61415 26.5657
401 1 1.4377 11.4254 23.8565
402 1 4.18007 11.4978 23.595
403 1 4.01236 11.2668 26.3866
404 1 1.21813 11.2677 26.653
405 1 1.21368 14.2109 23.8575
406 1 4.13725 14.3018 23.5169
407 1 4.03826 14.2529 26.4976
408 1 1.09314 14.1619 26.4803
409 1 7.17593 11.3255 23.6128
410 1 9.85514 11.4619 23.7193
411 1 9.66642 11.2968 26.468
12145 2 11.0944 18.4438 13.8797
413 1 6.86249 14.2425 23.5298
414 1 9.74305 14.092 23.7118
415 1 9.81442 14.2203 26.4508
416 1 6.90316 14.3633 26.4112
417 1 12.4736 11.4918 23.6352
418 1 12.4568 11.4387 26.4802
419 1 12.4071 14.4062 23.7258
420 1 12.477 14.2024 26.4517
421 1 1.21634 17.1475 23.8697
422 1 3.96584 17.0848 23.7537
423 1 4.0383 16.9635 26.4827
424 1 1.24094 16.9839 26.5057
425 1 1.27725 20.0408 23.6962
426 1 4.27429 19.8267 23.8184
427 1 4.02801 19.9 26.5487
428 1 1.07791 19.8443 26.5773
429 1 6.75768 17.0156 23.7218
430 1 9.54595 17.0813 23.7722
431 1 9.71298 17.0032 26.4704
432 1 6.75752 17.0828 26.7296
433 1 7.02931 19.8521 23.7168
434 1 9.60682 20.0279 23.7603
435 1 9.59845 19.8773 26.5419
436 1 6.77319 19.9966 26.4779
437 1 12.2781 17.0364 23.6466
438 1 12.498 17.1525 26.5398
439 1 12.6114 19.8322 23.8367
440 1 12.4006 19.8549 26.611
441 1 1.40551 22.8015 23.9503
442 1 4.24621 22.7124 23.7848
443 1 3.92199 22.7072 26.5229
444 1 1.26882 22.65 26.8016
445 1 6.92248 22.797 23.8151
446 1 9.74245 22.7846 23.8017
447 1 9.62877 22.7038 26.5943
448 1 6.86322 22.7711 26.5513
449 1 12.5249 22.7535 23.7876
450 1 12.4417 22.5281 26.6587
15021 2 13.9369 12.7077 27.8942
12250 2 11.1145 24.1076 25.1085
15151 2 13.829 1.66977 16.7701
15221 2 13.8534 12.8568 22.3166
5906 1 6.69824 0.214495 20.9465
12224 2 -0.138843 12.735 25.1681
12249 2 11.1159 21.2345 22.3459
12244 2 -0.170839 24.0028 25.2785
12046 2 8.32852 24.0646 28.0697
12026 2 8.21411 12.9388 27.893
12042 2 2.67418 24.0026 27.9674
12248 2 5.46752 24.0003 25.2546
12032 2 2.69118 18.4309 27.9449
12025 2 5.381 10.025 27.7974
12029 2 11.1356 9.95947 27.7858
12015 2 5.45199 4.20377 27.8902
15241 2 13.8349 24.1056 22.2895
15171 2 14.0142 12.8654 16.7128
12220 2 11.1746 7.20142 25.1409
15242 2 14.0001 21.2514 25.1398
12232 2 2.66702 18.4644 22.5312
12216 2 8.30417 7.11068 22.2491
5903 1 6.73734 0.15382 18.0752
12219 2 11.2325 4.37869 22.207
12218 2 5.40622 7.15646 24.9782
12247 2 8.19441 21.2588 25.1995
12152 2 2.63566 1.49591 16.5765
12227 2 8.19675 9.97929 25.098
12246 2 8.3597 23.9681 22.3812
12230 2 11.1226 12.8089 25.0507
12156 2 8.28423 1.51445 16.7731
12229 2 11.0127 10.044 22.2457
12158 2 5.28174 1.46021 19.6386
12217 2 8.3218 4.35359 25.1392
12160 2 11.0324 1.54154 19.6258
12245 2 5.58609 21.2497 22.3854
12162 2 2.73175 7.15509 16.7476
12163 2 2.70217 4.22672 19.5969
12228 2 5.52938 12.872 24.924
12165 2 5.35438 4.44753 16.7086
12166 2 8.28124 7.10303 16.7086
12167 2 8.31147 4.40136 19.5344
12168 2 5.38115 7.24947 19.6017
12169 2 11.0853 4.34241 16.6311
12170 2 11.0422 7.04709 19.5157
12243 2 2.65239 21.2092 25.1533
12172 2 2.85484 12.8604 16.7805
12173 2 2.71794 9.89467 19.4293
12242 2 2.73325 24.0714 22.4364
12175 2 5.48319 10.0044 16.6999
12176 2 8.38531 12.7039 16.686
12177 2 8.29178 9.94931 19.4642
12178 2 5.54039 12.775 19.4986
12179 2 11.0775 9.82959 16.7262
12180 2 11.2063 12.8198 19.4097
12236 2 8.32328 18.4087 22.3062
12182 2 2.62564 18.2916 16.7608
12183 2 2.74873 15.5268 19.5216
12223 2 2.6583 9.93529 25.2086
12185 2 5.56163 15.6206 16.728
12186 2 8.23028 18.5196 16.7705
12187 2 8.35853 15.735 19.5555
12188 2 5.57314 18.6022 19.5764
12189 2 11.1028 15.5778 16.6033
12190 2 11.0062 18.5333 19.5162
12226 2 8.399 12.7883 22.253
12192 2 2.63813 24.0485 16.8853
12193 2 2.73845 21.2022 19.5202
12225 2 5.50092 10.079 22.3313
12195 2 5.57822 21.1219 16.7951
12196 2 8.36215 24.0701 16.7835
12197 2 8.31296 21.2399 19.5473
12198 2 5.59185 23.8801 19.5256
12199 2 11.1139 21.2791 16.7453
12200 2 11.1204 24.0683 19.5191
12240 2 11.007 18.3972 25.186
12202 2 2.64537 1.43424 22.3541
5996 1 7.04183 0.176679 26.5131
12239 2 11.1439 15.7118 22.1991
12222 2 2.6746 12.6544 22.2606
12206 2 8.19563 1.55504 22.3784
12235 2 5.48524 15.5927 22.2574
12208 2 5.50089 1.50456 25.0899
12233 2 2.72136 15.552 25.1291
12210 2 11.1528 1.60807 25.1354
12238 2 5.51573 18.2634 25.1958
12212 2 2.6686 7.22225 22.3631
12213 2 2.71449 4.33831 25.1561
12237 2 8.29306 15.5689 25.0775
12215 2 5.3561 4.35524 22.3551
12194 2 -0.0660098 23.9533 19.6788
15182 2 13.9438 15.638 19.5813
12016 2 8.14789 7.05132 27.8714
15031 2 13.825 18.4463 27.9099
12049 2 10.9517 21.2533 27.9837
12045 2 5.5666 21.2575 28.0088
15231 2 13.8523 18.5008 22.2995
15212 2 13.9845 4.36547 25.0961
12019 2 11.1182 4.2653 27.8695
15201 2 13.9329 1.65889 22.4586
15211 2 13.8 7.23367 22.3615
15181 2 13.9097 18.4106 16.727
15172 2 13.9135 10.0338 19.4198
12135 2 11.0069 7.12298 13.9455
15222 2 13.9077 10.0678 25.1275
12191 2 -0.0750728 21.1527 16.8239
12164 2 -0.131459 7.0838 19.4968
15001 2 14.0315 1.49225 27.7773
12231 2 -0.184772 15.5593 22.4385
12130 2 11.1285 1.38189 13.9113
12150 2 11.0971 24.0001 13.9997
12137 2 -0.113319 12.8588 13.9711
15141 2 13.9334 15.7103 13.9143
12143 2 8.30224 15.6829 13.8881
12036 2 8.2561 18.4939 28.0021
12129 2 5.33578 1.42935 14.1186
12142 2 -0.0727362 18.4365 13.8945
12012 2 2.64664 6.97882 27.9002
12131 2 2.62784 4.47398 13.8771
15131 2 13.778 4.41494 13.8359
451 1 1.44038 25.5587 1.31011
452 1 4.18705 25.3633 1.39615
453 1 4.15468 25.5026 4.23605
454 1 1.1784 25.2325 4.03766
455 1 6.91562 25.4292 1.40891
456 1 9.67669 25.5083 1.24166
457 1 9.73472 25.4516 4.19771
458 1 6.90155 25.4388 4.21593
459 1 12.4902 31.1452 1.40867
460 1 12.4945 28.4171 4.10167
461 1 1.35137 28.3473 1.45686
462 1 3.97201 28.2798 1.25668
463 1 3.95992 28.2689 4.06286
464 1 1.39377 28.1371 4.20192
465 1 1.14039 30.9539 1.26792
466 1 3.97508 31.1182 1.26519
467 1 4.05798 31.0109 4.12621
468 1 1.21621 30.9854 4.07203
469 1 6.81471 28.2869 1.33232
470 1 9.79695 28.4265 1.3098
471 1 9.73338 28.2378 4.18841
472 1 6.88278 28.1545 4.02126
473 1 6.8081 30.9958 1.26715
15373 2 13.8304 38.2401 13.8985
475 1 9.80803 31.1521 4.12496
476 1 6.99478 30.861 4.09122
477 1 9.77481 31.0818 1.2455
478 1 9.6861 33.957 1.18692
12378 2 11.0697 40.9726 13.9295
12341 2 -0.00393488 26.8163 11.2332
481 1 1.02389 33.7583 1.16053
482 1 4.12898 33.9205 0.79291
483 1 4.353 33.648 4.07319
484 1 1.10713 33.8242 4.1902
12372 2 5.54132 35.399 14.0112
486 1 2.68805 35.2136 2.58098
487 1 3.90352 36.8382 4.0767
488 1 1.16536 36.9317 4.17506
489 1 6.89102 34.5034 1.43249
847 1 1.14132 36.9434 1.23972
491 1 9.66826 34.0666 3.88676
492 1 7.16191 33.6441 4.06972
493 1 4.39578 36.581 0.712986
494 1 9.59067 36.5529 1.6613
495 1 9.16739 36.8747 4.45409
496 1 6.49978 36.0749 4.72956
497 1 12.5221 33.9522 1.12964
498 1 12.5626 33.9125 4.10085
499 1 12.6273 36.8468 1.11289
500 1 12.4174 36.6163 4.08452
501 1 1.19944 39.8922 1.27011
502 1 4.03087 39.3186 1.37061
503 1 4.06363 39.645 4.06488
504 1 1.1407 39.6977 4.11571
505 1 1.21234 42.5755 1.35789
506 1 4.12726 42.2304 1.29188
507 1 4.12551 42.3407 4.14411
508 1 1.28789 42.5138 4.14877
509 1 6.93462 39.8102 1.23017
510 1 9.74959 39.6711 1.21936
511 1 9.68761 39.5935 4.05299
512 1 6.89659 39.6955 4.15772
513 1 7.01868 42.45 1.05767
514 1 9.75558 42.3562 1.2904
515 1 9.72094 42.4642 4.03622
516 1 7.00311 42.4007 4.04357
517 1 12.5542 39.4841 1.08157
518 1 12.4752 39.5477 4.1536
519 1 12.5126 42.266 1.18034
520 1 12.49 42.4491 4.05826
521 1 1.29504 45.3659 1.31225
522 1 4.02565 45.0933 1.16495
523 1 4.14933 45.1518 3.93495
524 1 1.23092 45.3091 4.1445
525 1 1.47465 48.1359 1.1065
526 1 4.19497 48.0367 1.21565
527 1 4.12425 47.8339 4.02626
528 1 1.27726 48.1567 3.86971
529 1 6.77626 45.2015 1.15654
530 1 9.59531 45.1075 1.13416
531 1 9.5976 45.0874 3.8927
532 1 6.89647 45.1748 3.97939
533 1 6.97854 47.9801 1.27662
534 1 9.79371 47.9975 1.27442
535 1 9.51984 47.928 4.05832
536 1 6.9209 47.863 3.99414
537 1 12.4573 44.992 0.927718
538 1 12.3874 45.1182 3.8165
539 1 12.5278 47.8339 1.36736
540 1 12.4241 47.9583 4.1053
541 1 1.26328 25.4568 6.94541
542 1 3.99395 25.517 6.95802
543 1 4.05007 25.4609 9.74989
544 1 1.31944 25.5839 9.80918
545 1 6.90013 25.5268 6.96495
546 1 9.7173 25.4923 6.98373
547 1 9.58877 25.5885 9.83325
548 1 6.83721 25.4087 9.95817
549 1 12.5413 28.1518 6.92397
550 1 12.3697 25.5638 9.61784
551 1 1.19143 28.2794 6.98335
552 1 4.1009 28.3423 6.83146
553 1 4.04376 28.2273 9.6114
554 1 1.3024 28.3426 9.93527
555 1 1.38289 31.0294 6.98374
556 1 4.141 31.0884 6.90401
557 1 4.18944 30.9944 9.83188
558 1 1.32209 31.1734 9.7891
559 1 6.86767 28.2865 6.89253
560 1 9.67536 28.3791 6.86429
561 1 9.59116 28.3877 9.71986
562 1 6.74401 28.1253 9.71608
563 1 7.04282 31.0809 6.94361
564 1 9.80287 31.2134 6.98297
565 1 9.7806 31.2021 9.83903
566 1 6.88571 31.0438 9.67416
567 1 12.5941 31.0417 6.91968
568 1 12.5616 28.3309 9.56137
90 1 12.609 25.5446 1.24982
570 1 12.4835 31.0695 9.70717
571 1 1.03637 33.8262 6.96431
572 1 3.82351 33.8527 6.67485
573 1 4.03873 33.8799 9.64684
574 1 1.27727 33.9262 9.72268
575 1 1.24464 36.7084 6.80095
576 1 4.04515 36.7056 6.94615
577 1 3.95505 36.8566 9.65525
578 1 1.31283 36.7005 9.52917
579 1 6.85158 33.7934 6.91488
580 1 9.81673 33.855 6.99012
581 1 9.72511 33.8821 9.67944
582 1 6.85157 34.0528 9.76018
583 1 6.99363 36.8226 7.19878
584 1 9.8824 36.7784 7.10292
585 1 9.53262 36.6494 9.71161
586 1 6.77996 36.8108 9.84485
587 1 12.474 33.8096 6.94699
588 1 12.5386 33.9139 9.72153
589 1 12.5903 36.7261 6.81428
590 1 12.5334 36.7685 9.65489
591 1 1.2849 39.5411 7.00607
592 1 4.0744 39.4224 6.86734
593 1 3.84811 39.6418 9.74208
594 1 1.09565 39.7029 9.67203
595 1 1.27799 42.4192 6.99161
596 1 4.11738 42.3296 6.82476
597 1 3.98289 42.3737 9.67057
598 1 1.12554 42.564 9.85745
599 1 6.88812 39.5774 6.92811
600 1 9.77673 39.4616 6.99986
601 1 9.77453 39.4995 9.84899
602 1 6.78802 39.6139 9.64249
603 1 6.88045 42.4388 6.91094
604 1 9.7493 42.2833 7.0155
605 1 9.4882 42.3014 9.79006
606 1 6.75987 42.3047 9.65395
607 1 12.7049 39.4881 6.87639
608 1 12.5603 39.5616 9.69304
609 1 12.5954 42.2309 6.83988
610 1 12.2934 42.3854 9.68996
611 1 1.45803 45.2082 6.98255
612 1 4.19969 45.0819 7.00347
613 1 3.89948 45.2492 9.78655
614 1 1.27191 45.2433 9.67912
615 1 1.28687 48.1559 6.8584
616 1 4.17145 47.9648 6.7445
617 1 3.99949 48.03 9.70096
618 1 1.32131 47.9743 9.58522
619 1 6.81281 45.1779 6.91401
620 1 9.53497 44.9931 6.81722
621 1 9.65303 45.193 9.62222
622 1 6.74288 45.2049 9.67613
623 1 6.95811 47.8402 6.94045
624 1 9.86362 47.7262 6.66566
625 1 9.73736 47.9527 9.5676
626 1 6.93595 47.923 9.746
627 1 12.6097 44.9773 6.73168
628 1 12.4956 45.1158 9.59925
629 1 12.7484 47.8399 6.96701
630 1 12.4445 47.756 9.86473
631 1 1.28081 25.4817 12.661
632 1 4.00916 25.4603 12.4259
633 1 6.85342 25.4463 12.7309
634 1 9.85288 25.495 12.6628
635 1 12.6158 25.3272 12.43
636 1 1.3353 28.2038 12.6227
637 1 4.18667 28.383 12.4619
638 1 1.24037 31.0846 12.5806
639 1 4.02356 31.2902 12.4716
640 1 6.96124 28.2587 12.4522
641 1 9.68799 28.2234 12.5546
642 1 6.90651 31.0001 12.5188
643 1 9.76213 30.9879 12.609
644 1 12.4252 28.3111 12.5041
645 1 12.5404 31.1514 12.5022
646 1 1.32938 33.8654 12.4801
647 1 4.18392 34.1136 12.5693
648 1 1.10814 36.7177 12.4439
649 1 4.16709 36.9891 12.4519
650 1 6.95507 33.8814 12.5732
651 1 9.88232 33.8367 12.3673
652 1 6.84796 36.7555 12.6393
653 1 9.6777 36.6887 12.4947
654 1 12.5034 34.0767 12.5632
655 1 12.5335 36.8085 12.3784
656 1 0.985493 39.5831 12.6399
657 1 4.01084 39.6542 12.5568
658 1 1.3326 42.4957 12.577
659 1 4.18406 42.4783 12.4519
660 1 6.7321 39.5215 12.45
661 1 9.41136 39.7148 12.555
662 1 7.01001 42.2615 12.4756
663 1 9.82426 42.3213 12.4085
664 1 12.3174 39.446 12.4912
665 1 12.522 42.2408 12.5738
666 1 1.31443 45.2209 12.5014
667 1 4.11079 45.0791 12.5914
668 1 1.1873 48.0091 12.435
669 1 4.17996 47.8819 12.4561
670 1 6.86386 45.1855 12.4872
671 1 9.62064 45.2216 12.4271
672 1 6.87025 47.9429 12.5094
673 1 9.67992 47.9045 12.4493
674 1 12.3422 45.0535 12.4596
675 1 12.4223 47.9529 12.5733
12363 2 11.0342 49.2853 11.0729
89 1 12.5303 28.3565 1.23213
12253 2 2.75017 26.7759 2.75279
12362 2 5.59977 49.3317 11.0568
12382 2 5.48796 46.608 13.8472
180 1 12.4804 25.5186 6.7358
12257 2 8.28531 26.8602 2.67454
12258 2 5.43114 29.5552 2.7177
1009 1 6.97872 50.7436 6.67135
12260 2 11.1721 29.6997 2.71837
12360 2 11.0444 43.7258 11.0915
1002 1 4.24047 50.802 6.85471
12263 2 2.64815 32.5706 2.7039
12359 2 8.26496 46.5519 11.0349
1010 1 9.9414 50.6987 6.958
15317 2 14.0009 38.2474 8.45222
12267 2 8.30088 32.1157 2.75264
12268 2 5.0097 35.4044 2.85984
12345 2 11.0898 26.9364 11.0944
12270 2 11.4922 35.1803 2.5613
12358 2 5.41267 43.9025 11.1045
12344 2 8.32141 29.6063 11.1383
12273 2 2.48701 38.3283 2.76438
12357 2 2.71906 46.5692 11.216
12343 2 5.41639 26.8991 11.1875
179 1 12.4847 25.6013 3.92806
12277 2 8.31835 38.6666 2.57811
12278 2 5.51559 41.0637 2.56661
12377 2 5.50479 41.0528 13.8041
12280 2 11.1078 41.0886 2.72089
12355 2 11.109 38.0516 11.0861
918 1 12.5466 50.7194 4.1133
12283 2 2.71463 43.8972 2.69866
12354 2 8.16951 40.986 11.0521
851 1 6.51588 37.256 2.53979
12342 2 2.65766 29.6644 11.2524
12287 2 8.29989 43.8271 2.56628
12288 2 5.54439 46.6327 2.60234
12340 2 11.1377 49.3494 5.39549
12290 2 11.0829 46.6005 2.56463
12353 2 5.40444 38.2545 11.072
12292 2 2.70996 49.3591 2.59102
912 1 6.92459 50.6993 4.01204
12294 2 8.2664 49.4135 2.72997
917 1 12.5047 50.6296 1.27492
12339 2 8.42835 49.3525 8.20292
12297 2 2.68009 29.4976 5.53321
12298 2 2.66162 26.9193 8.34538
12338 2 5.59813 49.3468 5.48056
12300 2 5.49856 26.8513 5.49768
12301 2 8.3554 29.6371 5.60077
12302 2 8.30584 26.9706 8.37782
12303 2 5.44881 29.7517 8.28718
12304 2 11.0596 26.9253 5.56945
12305 2 11.0738 29.7612 8.33131
12352 2 2.6098 41.1496 11.08
12307 2 2.61978 35.3689 5.29053
12308 2 2.66225 32.5696 8.26776
569 1 12.5508 31.0561 4.18917
12310 2 5.51608 32.4368 5.58536
12311 2 8.40264 35.4806 6.07656
12312 2 8.44616 32.5641 8.32402
12313 2 5.42684 35.377 8.35925
12314 2 11.2945 32.4749 5.58586
12315 2 11.197 35.251 8.3979
12266 2 8.20673 35.3837 2.95984
12317 2 2.69698 40.9609 5.48461
12318 2 2.6333 38.1217 8.23052