ITEM: TIMESTEP
170000
ITEM: NUMBER OF ATOMS
18000
ITEM: BOX BOUNDS xy xz yz pp pp pp
-9.8922052714845998e-02 2.7992922052715812e+01 0.0000000000000000e+00
-1.1853531034329188e+00 3.3591335310345204e+02 0.0000000000000000e+00
-9.8139229806711956e-02 2.7992139229806714e+01 0.0000000000000000e+00
ITEM: ATOMS id type x y z
1 1 1.37457 0.173479 1.33398
2 1 4.18768 0.193409 1.34478
3 1 3.9957 -0.027288 4.24179
4 1 1.22274 0.0239372 4.01946
5 1 1.19984 3.03926 1.27322
6 1 4.09683 3.04431 1.27225
7 1 3.98076 2.78181 4.05648
8 1 1.34403 2.83176 4.0086
9 1 6.92507 2.85617 1.2669
10 1 9.84546 0.20863 1.45041
11 1 9.67763 0.176682 4.18366
12 1 6.92534 3.0252 4.20215
13 1 6.90403 5.787 1.29473
14 1 9.61885 3.08988 1.28097
15 1 9.63483 2.89794 4.11573
16 1 6.80738 5.57862 4.03851
17 1 12.6847 0.320522 1.6311
18 1 12.4571 0.190668 4.30237
19 1 12.4647 2.95134 1.36083
20 1 12.436 2.96161 4.29663
21 1 1.34203 5.71298 1.30726
22 1 4.10572 5.74387 1.37602
23 1 4.0331 5.63538 4.13521
24 1 1.293 5.83738 4.07331
25 1 1.12294 8.54462 1.31373
26 1 4.17246 8.59602 1.32052
27 1 3.76864 11.392 4.1349
28 1 1.18683 8.61943 4.17009
15091 2 13.8596 24.1731 5.47558
30 1 9.71347 5.79959 1.36055
31 1 9.83989 5.66456 4.07332
32 1 6.57627 8.14822 5.89428
33 1 6.34004 10.1919 3.44837
34 1 9.87317 8.5242 1.4002
35 1 7.85374 8.0267 3.5906
36 1 6.47016 11.8904 5.2069
37 1 12.5083 5.76527 1.30018
38 1 12.4682 5.70285 4.21197
39 1 12.7062 8.46061 1.17627
40 1 12.6759 8.57189 4.06541
41 1 1.23806 11.3675 1.20538
42 1 3.98977 11.4057 1.19168
43 1 6.82967 14.4001 4.09428
44 1 1.22499 11.2626 4.12543
45 1 1.1936 14.1978 1.26981
46 1 3.98173 14.159 1.33911
47 1 3.96568 14.2524 4.27154
48 1 1.1715 14.2404 4.23722
49 1 3.89945 8.47083 4.15084
50 1 9.6201 11.3936 1.14168
51 1 9.99868 9.02633 4.38226
52 1 9.00432 11.4732 3.87063
53 1 6.80488 17.0068 4.0325
54 1 9.5771 14.2679 1.1744
55 1 12.4321 14.2466 4.15029
56 1 9.61864 14.3407 4.102
57 1 12.347 11.3476 1.25925
58 1 12.5291 11.3792 3.86706
59 1 12.3233 14.2414 1.34468
12039 2 11.1736 15.5357 -0.25564
61 1 1.37945 17.1104 1.26277
62 1 4.10088 16.9961 1.42314
63 1 3.87001 17.0387 4.17562
64 1 1.26752 17.0972 4.16355
65 1 1.10332 19.9342 1.23606
66 1 4.03605 19.7708 1.30198
67 1 4.03701 19.8356 4.02349
68 1 1.41555 19.8082 4.09284
69 1 6.90965 17.1859 1.36323
70 1 9.82669 16.9993 1.17262
71 1 12.4392 16.9696 3.95143
72 1 9.57329 16.9419 4.00051
73 1 7.00616 19.8342 1.1295
74 1 9.76165 19.8708 1.2796
75 1 9.65402 19.8555 4.03757
76 1 6.77985 19.9254 3.97731
77 1 12.5509 17.1068 1.16296
12105 2 11.0809 -1.31988 11.286
79 1 12.4604 19.9229 1.21392
12148 2 8.30234 21.2117 14.0003
81 1 1.2394 22.6081 1.22421
82 1 3.98553 22.6663 1.14269
83 1 3.93799 22.534 3.97887
84 1 1.36052 22.6668 4.03849
85 1 6.77995 22.6504 1.4478
86 1 9.6665 22.6435 1.24358
87 1 9.65991 22.6181 3.9951
88 1 6.65371 22.8763 4.26453
15062 2 13.9836 4.38736 8.30241
12116 2 -0.0651728 15.5895 11.243
91 1 1.43926 0.0314669 6.85246
92 1 4.11772 0.133561 7.29883
93 1 4.12835 2.72278 9.8166
94 1 1.66036 0.216282 9.71337
95 1 1.41838 2.9145 6.80888
96 1 4.14097 2.98834 7.01091
97 1 6.89995 5.85145 9.75436
98 1 1.07779 3.08909 9.79188
99 1 6.85587 2.94624 6.90966
100 1 9.65335 0.237775 7.03929
101 1 9.6208 0.130906 9.87523
102 1 6.82157 2.86553 9.82493
103 1 6.80757 5.63402 6.94704
104 1 9.79516 3.03891 7.03066
105 1 9.62275 2.94585 9.71927
106 1 6.76461 5.57917 12.5319
107 1 12.4391 0.263715 6.97003
108 1 12.3524 0.239522 9.90858
109 1 12.6667 3.0241 7.01993
110 1 12.4352 2.99862 9.83618
111 1 1.22164 5.62154 6.97951
112 1 3.93778 5.78853 6.87377
113 1 4.151 8.48819 9.78851
114 1 1.325 5.68447 9.84469
115 1 1.137 8.31261 7.02988
116 1 3.93861 8.55291 6.92377
117 1 6.35381 10.1218 7.31784
118 1 1.21656 8.50465 9.70901
119 1 9.12227 8.42138 7.00628
120 1 9.92701 5.56142 6.91285
121 1 9.61833 5.65647 9.75844
122 1 6.81929 8.5923 9.69854
123 1 8.70078 11.5609 6.99132
124 1 12.5088 8.35821 6.87018
125 1 11.122 10.261 7.89048
126 2 8.4002 9.94775 8.68033
127 1 12.6601 5.7877 6.91747
128 1 12.5904 5.78426 9.63359
15042 2 14.0117 21.3612 2.79911
130 1 12.6995 11.6351 9.68437
131 1 1.30221 11.1633 6.95194
132 1 3.94207 11.4722 6.96636
133 1 4.29071 11.3004 9.80748
134 1 1.4442 11.3581 9.816
135 1 1.26008 14.0833 7.05582
136 1 4.06553 14.0465 7.05075
137 1 4.1239 14.1674 9.81949
138 1 1.37224 14.2138 9.8418
139 1 9.58646 14.4113 6.99128
140 1 10.9204 12.3952 5.7213
141 1 9.74611 11.4617 9.93202
142 1 6.88948 11.3805 9.86202
143 1 6.79974 14.3589 7.14812
144 1 9.63001 17.1918 6.73316
145 1 9.59481 14.4102 9.84346
146 1 6.86255 14.1107 9.94353
147 1 12.56 14.1876 7.00834
148 1 12.5074 14.3898 9.67373
149 1 12.2225 16.9487 6.93348
150 1 12.5103 17.0151 9.72792
151 1 1.35734 16.8637 6.85426
152 1 4.10218 17.056 6.92308
153 1 3.98269 16.818 9.76339
154 1 1.33534 16.9514 9.59968
155 1 1.22608 19.8103 6.96209
156 1 3.98396 19.8849 6.90432
157 1 4.09227 19.6524 9.76715
158 1 1.29905 19.7054 9.72695
159 1 6.7685 17.2561 6.79012
160 1 12.4191 22.7085 4.28255
161 1 9.67703 17.0893 9.66631
162 1 6.74997 17.0353 9.68876
163 1 6.7802 19.9184 6.80632
164 1 9.72009 19.8716 7.00024
165 1 9.61989 19.9136 9.62973
166 1 6.76046 19.7755 9.75878
241 1 9.61794 8.64031 12.5718
168 1 12.4648 19.7792 9.65344
169 1 12.5394 22.6328 6.86767
170 1 12.5488 22.5672 9.76033
171 1 1.38864 22.6398 6.83404
172 1 4.00612 22.6641 6.97263
173 1 4.24608 22.4356 9.79062
174 1 1.47733 22.5229 9.79834
175 1 6.73241 22.6011 7.09893
176 1 9.72038 22.6946 6.76579
177 1 9.5862 22.6494 9.61905
178 1 6.98349 22.5212 9.87734
15106 2 13.8906 7.15327 11.269
15071 2 13.7909 12.9283 5.32592
181 1 1.12878 0.198511 12.4834
182 1 4.08063 0.00833433 12.2027
183 1 1.19224 3.12023 12.5235
184 1 3.93224 2.94845 12.5737
185 1 6.71341 0.0547395 12.6387
186 1 9.5384 0.29822 12.7579
187 1 6.84846 2.86536 12.6349
188 1 9.68909 2.99281 12.3779
189 1 12.4805 0.172207 12.7748
190 1 12.4602 3.09318 12.5858
191 1 1.21242 5.8887 12.5732
192 1 4.08346 5.74771 9.65306
193 1 1.18163 8.8085 12.6351
194 1 4.00626 8.43413 12.7059
195 1 4.05133 5.7647 12.5537
196 1 9.62078 5.76916 12.5527
197 1 9.74828 8.44001 9.77599
198 1 12.4736 8.42847 9.96381
199 1 12.4369 5.81494 12.494
200 1 12.3855 8.56689 12.7517
201 1 1.33861 11.5399 12.4693
202 1 4.23629 11.2914 12.6294
203 1 1.41108 14.3232 12.6186
204 1 4.20863 14.1886 12.6495
205 1 7.07601 11.4258 12.6387
206 1 9.87895 11.397 12.623
207 1 6.93627 14.3656 12.6506
208 1 9.85248 14.213 12.6241
209 1 12.6024 11.4005 12.4907
210 1 12.525 14.1488 12.6163
211 1 1.21363 17.0506 12.517
212 1 4.00746 17.0281 12.6506
213 1 1.30983 19.8629 12.5964
214 1 4.09379 19.735 12.4936
215 1 6.86939 17.1109 12.7278
216 1 9.79094 16.9117 12.5233
217 1 6.88875 19.8979 12.6865
218 1 9.59314 19.6554 12.5818
219 1 12.582 16.927 12.5341
220 1 12.4578 19.7533 12.5479
221 1 1.31812 22.6259 12.6004
222 1 4.21043 22.5594 12.5936
223 1 6.84524 22.6941 12.6305
224 1 9.68306 22.6041 12.596
225 1 12.5704 22.7239 12.5398
12125 2 11.0674 21.1792 10.9582
12110 2 11.1189 4.39059 11.0833
12091 2 -0.0404651 21.1823 5.47397
12124 2 8.2655 24.0528 11.1396
80 1 12.6554 22.6116 1.52074
12109 2 8.22245 7.15521 11.2331
12006 2 8.35379 1.65101 -0.0580557
12008 2 5.48455 1.53035 2.64477
243 1 6.79065 8.57417 12.5329
12010 2 11.0994 1.65816 2.79293
12123 2 5.63209 21.1179 11.2307
12108 2 5.3904 4.41016 11.0581
12013 2 2.69527 4.29031 2.65205
12122 2 2.70877 23.9923 11.1134
12107 2 2.59733 7.13986 11.0455
12112 2 2.92625 12.8145 11.1862
12017 2 8.29977 4.42616 2.60736
12018 2 5.59615 7.25545 2.70809
12104 2 8.25674 1.55492 11.1353
12020 2 11.2151 7.21233 2.61491
60 1 12.4418 19.7709 4.06266
12121 2 -0.144805 21.2953 11.231
12023 2 2.66019 9.88347 2.69746
12120 2 11.1276 15.6458 11.1055
12102 2 2.52775 1.67851 11.2246
12113 2 5.43411 9.97359 11.1966
12027 2 8.33053 9.90848 2.2165
12028 2 5.48137 12.6741 2.7246
12100 2 11.1286 23.9322 8.26269
12030 2 10.9391 12.8387 2.8431
12099 2 11.0261 21.2109 5.54578
12098 2 5.48974 24.0113 8.42172
12033 2 2.68655 15.5288 2.59392
412 1 6.8283 14.2451 1.31888
12097 2 8.18589 21.2854 8.21526
12096 2 8.34136 24.111 5.40367
12037 2 8.29926 15.7512 2.60724
12038 2 5.32085 18.4287 2.77601
12095 2 5.28904 21.3008 5.42824
12040 2 11.0381 18.5072 2.63888
29 1 6.93523 8.64277 0.981755
12093 2 2.77699 21.088 8.41508
12043 2 2.57435 21.1626 2.65826
5723 1 6.76535 0.0640808 6.97823
12092 2 2.8046 23.9983 5.52743
5634 1 7.04579 0.142834 1.28083
12047 2 8.29153 21.1677 2.68691
12048 2 5.40755 23.9656 2.63981
12090 2 11.0462 18.431 8.3133
12050 2 11.0552 23.9669 2.70081
12119 2 8.24369 18.4933 11.1105
12052 2 2.6076 1.46032 5.50691
12150 2 11.1614 23.961 13.9778
12118 2 5.49046 15.6485 11.1319
5633 1 6.75698 0.194578 4.20236
12056 2 8.31068 1.55947 5.48849
5726 1 6.62916 0.0220955 9.7177
12058 2 5.52527 1.5097 8.31754
15061 2 14.0736 7.07367 5.58593
12060 2 11.0503 1.53731 8.41534
12117 2 2.64079 18.2524 11.1253
12062 2 2.58271 7.18017 5.55048
12063 2 2.69061 4.39196 8.28642
12089 2 11.0189 15.6078 5.49213
12065 2 5.38246 4.28671 5.54145
12066 2 8.35821 6.63866 5.5491
12067 2 8.23377 4.3944 8.30582
12068 2 5.50819 7.10761 8.13625
12069 2 11.2573 4.34178 5.50879
12070 2 11.1646 7.0146 8.40978
12115 2 11.0645 9.94185 11.1513
12072 2 2.61448 12.8055 5.57883
12073 2 2.71402 9.97366 8.46776
12114 2 8.37932 12.8763 11.3125
12075 2 4.90047 10.0919 5.54122
12076 2 8.21119 13.3283 5.6
12077 2 8.23052 9.98878 5.45231
12078 2 5.51613 12.5908 8.34642
12079 2 11.6152 10.1879 5.66353
12080 2 11.1085 12.8059 8.27257
395 1 6.87813 11.5427 1.12033
12082 2 2.67855 18.5017 5.53113
12083 2 2.7076 15.5019 8.30653
15081 2 13.5545 18.2527 5.45315
12085 2 5.4202 15.5619 5.54734
12086 2 8.19447 18.5505 5.44674
12087 2 8.20043 15.6021 8.43102
12088 2 5.46498 18.4116 8.19003
167 1 12.3084 19.7993 6.86927
15001 2 13.9179 1.52842 0.0102841
15022 2 14.0131 9.95868 2.67324
12061 2 -0.132585 4.41553 5.49719
12094 2 -0.000711269 23.9459 8.33498
129 1 13.5651 11.2337 6.8117
15116 2 13.8596 18.4819 11.1476
12084 2 -0.146643 18.2116 8.26401
12019 2 11.1451 4.35744 -0.0472018
15121 2 13.8468 24.0121 10.9948
12144 2 5.53665 18.3825 14.1022
12015 2 5.4528 4.44975 -0.136743
12035 2 5.47058 15.5651 0.00280654
15146 2 14.0256 21.0384 14.0003
12135 2 10.9406 7.11541 14.0826
12141 2 2.81328 15.6617 14.1202
12147 2 -0.0841485 24.0799 13.9057
12130 2 11.033 1.59994 13.9953
12136 2 2.64972 10.043 14.0198
12011 2 -0.13987 4.3401 -0.0899672
12129 2 5.52483 1.56199 14.0561
12149 2 5.59281 24.0764 13.9704
12041 2 -0.200094 21.2143 -0.247624
12025 2 5.40503 10.1207 -0.257551
12145 2 11.2235 18.3076 13.953
226 1 4.00466 0.206985 15.2099
227 1 1.27673 0.302967 15.1995
228 1 4.04628 3.08342 15.3719
229 1 1.2206 3.14796 15.3855
230 1 9.5891 0.0976369 15.5469
231 1 6.84984 0.114382 15.4789
232 1 9.54183 2.98926 15.1115
233 1 6.85457 2.97718 15.4117
234 1 12.4429 0.0241231 15.6417
235 1 12.3736 3.0074 15.5169
236 1 3.98742 5.85684 15.3455
237 1 1.1242 5.90665 15.3106
238 1 4.06724 8.74449 15.4928
239 1 1.22716 8.71886 15.3685
240 1 9.60356 5.78686 15.2961
15041 2 13.8923 24.0786 27.9711
242 1 9.75932 8.50152 15.5473
5993 1 6.74621 0.165178 23.6579
244 1 12.4586 5.77779 15.456
245 1 12.5741 8.64818 15.5035
246 1 4.11038 11.5984 15.4043
247 1 1.23665 11.3963 15.3322
248 1 4.25156 14.4461 15.3515
249 1 1.36242 14.2699 15.2913
250 1 9.80605 11.106 15.4524
251 1 6.87512 11.4762 15.3643
252 1 9.66188 14.0429 15.3435
253 1 6.88332 14.2056 15.5296
254 1 12.609 11.3407 15.2856
255 1 12.4549 14.1641 15.3651
256 1 4.03018 17.2451 15.5752
257 1 1.14024 17.1186 15.3252
258 1 4.0739 19.9779 15.2715
259 1 1.32291 19.8779 15.3519
260 1 9.69803 17.0039 15.3386
261 1 6.83865 17.1049 15.3745
262 1 9.72077 19.8263 15.401
263 1 7.00183 19.7908 15.3208
264 1 12.505 16.9492 15.4871
265 1 12.5547 19.7428 15.3666
266 1 3.97514 22.6482 15.2053
267 1 1.2167 22.6229 15.3217
268 1 9.74059 22.768 15.504
269 1 6.87944 22.635 15.4555
270 1 12.561 22.5377 15.2819
271 1 1.26633 0.17057 18.1076
272 1 4.24705 0.175576 18.1159
273 1 4.09724 0.163397 20.7902
274 1 1.22377 0.126057 20.9821
275 1 1.09084 2.75479 18.0412
276 1 3.92556 2.93873 18.1441
277 1 3.93103 2.94929 20.9397
278 1 1.11832 2.89428 20.9559
279 1 6.90834 2.94299 18.1269
280 1 9.72262 0.0459673 18.3441
281 1 9.63912 0.017646 21.0521
282 1 6.68003 2.92076 20.8928
283 1 6.84468 5.85082 18.2369
284 1 9.60623 2.7475 18.3376
285 1 9.61674 2.84091 20.9844
286 1 6.9105 5.90288 23.7786
287 1 12.472 0.173148 18.3754
288 1 12.4395 0.114444 21.2288
289 1 12.4614 2.90848 18.3485
290 1 12.4528 2.91703 21.1459
291 1 1.21485 5.58159 18.1233
292 1 4.01396 5.82728 18.2007
293 1 4.04078 5.8175 20.8333
294 1 1.26246 5.77017 21.0604
295 1 1.40014 8.55303 18.3057
296 1 4.14791 8.74181 18.2283
297 1 4.08966 8.60564 20.942
298 1 1.27607 8.63562 20.8815
299 1 6.79222 5.82304 15.4212
300 1 9.66933 5.52024 18.1224
301 1 9.59038 5.6787 20.9505
302 1 6.80289 5.73201 20.88
303 1 6.95048 8.74906 15.3938
304 1 9.70353 8.42339 18.1571
305 1 9.76884 8.51251 21.0907
306 1 6.83846 8.60855 18.1126
307 1 12.6337 5.75006 18.2934
308 1 12.5103 5.77821 21.0455
309 1 12.5147 8.56141 18.3241
310 1 12.561 8.53615 20.9454
311 1 1.37893 11.445 17.9693
312 1 4.24955 11.4614 18.1284
313 1 4.00772 11.3821 20.8513
314 1 1.41775 11.5692 20.8136
315 1 1.36988 14.1991 18.1191
316 1 4.09972 14.1772 18.078
317 1 4.21951 14.2846 20.874
318 1 1.33051 14.2074 21.0706
319 1 6.90155 11.5206 18.1847
320 1 9.8515 11.1685 18.2574
321 1 9.77887 11.4877 20.8915
322 1 6.8579 11.4392 20.9837
323 1 6.93061 14.3238 18.2777
324 1 9.82107 14.0724 18.1594
325 1 9.69912 14.3327 20.9733
326 1 6.97953 14.1495 21.0308
327 1 12.6001 11.3845 18.2548
328 1 12.4876 11.3415 20.9468
329 1 12.6048 14.1663 18.0836
330 1 12.5827 14.0708 20.9258
331 1 1.28664 17.0783 18.1907
332 1 4.11385 17.0714 18.1968
333 1 4.36101 17.1418 20.9154
334 1 1.42376 16.9916 21.0334
335 1 1.18385 19.9686 18.165
336 1 4.04891 19.8522 17.9835
337 1 3.9936 19.9341 20.8922
338 1 1.1511 19.7857 20.9072
339 1 6.93363 17.1252 18.3271
340 1 9.78019 16.9376 18.2142
341 1 9.75685 16.9419 20.9217
342 1 6.99065 16.9753 21.0044
343 1 6.95729 20.0065 18.0948
344 1 9.77038 19.7683 18.1377
345 1 9.69329 19.7881 21.0442
346 1 7.02592 19.8549 20.8979
347 1 12.5576 16.9791 18.2025
348 1 12.5888 16.8866 21.0367
349 1 12.6391 19.8003 18.2139
350 1 12.4214 19.7535 21.0146
351 1 1.1637 22.7681 18.0932
352 1 4.09282 22.7314 18.0226
353 1 3.96328 22.7113 20.9175
354 1 1.16445 22.5938 21.0015
355 1 6.86104 22.8127 18.1554
356 1 9.68453 22.5738 18.2033
357 1 9.50631 22.7062 20.8623
358 1 6.79104 22.6865 20.9813
359 1 12.4213 22.5889 17.9909
360 1 12.3247 22.6465 20.7746
361 1 1.05174 0.212025 23.7666
362 1 3.87104 0.107981 23.6166
363 1 4.08003 0.228902 26.4737
364 1 1.31277 0.247156 26.7961
365 1 1.13264 2.83286 23.6776
366 1 3.99795 2.94783 23.7974
367 1 3.9921 3.01109 26.4862
368 1 1.15222 3.04382 26.4201
369 1 6.97833 3.0309 23.7322
370 1 9.45871 0.117433 23.8996
371 1 9.56677 0.206027 26.7429
372 1 6.85589 2.96218 26.562
373 1 6.84232 5.77484 26.5868
374 1 9.71033 2.86962 23.7822
375 1 9.66964 2.88001 26.5388
376 1 9.61852 5.66937 26.4985
377 1 12.3833 0.0920805 23.9588
378 1 12.4147 0.130757 26.836
379 1 12.4097 3.04567 23.7969
380 1 12.5008 2.95407 26.6715
381 1 1.26295 5.77079 23.8092
382 1 4.11971 5.78383 23.6527
383 1 3.82858 5.80301 26.5134
384 1 1.03131 5.78134 26.5798
385 1 1.21706 8.53754 23.7839
386 1 4.1023 8.69719 23.9084
387 1 4.10369 8.57628 26.7895
388 1 1.23392 8.60044 26.5472
389 1 6.86329 8.54384 23.6071
390 1 9.6845 5.69013 23.6502
391 1 9.70125 8.44586 26.7531
392 1 6.85385 8.61987 26.4163
393 1 6.99773 8.63207 20.8611
394 1 9.56254 8.49226 23.7936
15202 2 13.8853 -1.4082 25.3245
396 1 6.87271 11.3674 26.3685
397 1 12.5363 5.81077 23.7137
398 1 12.3824 5.69351 26.6504
399 1 12.4082 8.45099 23.6771
400 1 12.5148 8.60587 26.4366
401 1 1.27149 11.3548 23.7129
402 1 4.09389 11.3806 23.6741
403 1 4.07324 11.3122 26.437
404 1 1.23867 11.3901 26.5375
405 1 1.2558 14.2505 23.8115
406 1 4.1691 14.2787 23.7185
407 1 3.89581 14.2369 26.6863
408 1 1.1728 14.1814 26.6884
409 1 6.84701 11.3091 23.636
410 1 9.81801 11.3653 23.6711
411 1 9.7364 11.2823 26.5076
15211 2 13.9398 7.16005 22.403
413 1 6.9574 14.2067 23.6899
414 1 9.67127 14.0711 23.859
415 1 9.76608 14.1333 26.5783
416 1 6.83625 14.1597 26.601
417 1 12.5981 11.2345 23.688
418 1 12.5783 11.4054 26.5412
419 1 12.4207 14.0776 23.6681
420 1 12.5343 14.0903 26.6051
421 1 1.53736 17.1027 23.7321
422 1 4.17925 17.048 23.7836
423 1 4.1951 16.9159 26.5477
424 1 1.36904 16.9982 26.5548
425 1 1.38149 19.9188 23.6982
426 1 4.06095 19.8344 23.7446
427 1 4.06614 19.6357 26.5237
428 1 1.33394 19.9185 26.5523
429 1 7.0676 17.0589 23.7622
430 1 9.78485 16.9513 23.8476
431 1 9.81374 16.9547 26.6472
432 1 7.04093 16.9211 26.6446
433 1 6.83194 19.8157 23.6883
434 1 9.71622 19.8057 23.7771
435 1 9.65594 19.7554 26.4607
436 1 6.97921 19.803 26.5546
437 1 12.6501 16.9014 23.7879
438 1 12.5304 17.057 26.4604
439 1 12.6093 19.8927 23.6683
440 1 12.5723 20.0153 26.4484
441 1 1.21211 22.663 23.8416
442 1 3.93028 22.4282 23.6621
443 1 4.10211 22.5777 26.3674
444 1 1.21015 22.637 26.5047
445 1 6.87033 22.6555 23.7409
446 1 9.67121 22.4306 23.7587
447 1 9.61973 22.6862 26.5542
448 1 6.80831 22.6581 26.6645
449 1 12.5216 22.7727 23.6884
450 1 12.4569 22.8166 26.6098
15126 2 13.8695 -1.32287 14.0051
12250 2 11.0859 23.9603 25.2015
15242 2 13.9795 21.2647 25.1443
12205 2 5.34884 -1.3737 22.4561
5906 1 7.01053 0.0524058 20.9654
15222 2 13.8761 9.87796 25.1663
12249 2 11.0572 21.1474 22.3271
12029 2 11.0665 9.9142 27.9645
12026 2 8.2542 12.8644 27.9488
15151 2 13.907 1.49504 16.8226
15181 2 13.9734 18.4264 16.8661
12248 2 5.42576 23.9457 25.0434
15161 2 13.9728 7.12353 16.6968
15201 2 13.8871 1.5999 22.3494
12184 2 -0.141934 18.4421 19.6172
12181 2 -0.134891 15.5102 16.6361
12244 2 -0.190904 23.9567 25.2183
12224 2 -0.219388 12.7851 25.1646
12220 2 11.0023 7.12063 25.147
15031 2 13.8499 18.4127 27.9726
12232 2 2.6433 18.3915 22.3832
12216 2 8.3166 7.09883 22.3734
5903 1 7.02927 0.0541624 18.2168
12219 2 11.1107 4.37075 22.307
12218 2 5.5348 7.20594 25.1533
12247 2 8.23128 21.2047 25.0539
12152 2 2.69283 1.64655 16.6052
12227 2 8.25513 9.92271 25.107
12246 2 8.40009 24.1824 22.1878
12230 2 11.1855 12.7177 25.2014
12156 2 8.29036 1.55193 16.7715
12229 2 11.1521 9.90683 22.3356
12158 2 5.59627 1.46264 19.533
12217 2 8.27918 4.37249 25.139
12160 2 11.0173 1.42007 19.6697
12245 2 5.51029 21.2484 22.2855
12162 2 2.71185 7.18871 16.8108
12163 2 2.60209 4.44463 19.6135
12228 2 5.53308 12.7831 25.0958
12165 2 5.37501 4.42955 16.8795
12166 2 8.21862 7.08862 16.7892
12167 2 8.2517 4.25463 19.535
12168 2 5.60301 7.28151 19.5549
12169 2 11.1392 4.3277 16.8293
12170 2 11.1571 7.17684 19.6256
12243 2 2.68489 21.19 25.1162
12172 2 2.76106 12.9002 16.6847
12173 2 2.72062 9.99218 19.5179
12242 2 2.6142 23.972 22.3291
12175 2 5.4255 10.1348 16.7814
12176 2 8.34036 12.7301 16.7836
12177 2 8.28847 9.98114 19.5524
12178 2 5.55935 12.7974 19.5451
12179 2 11.1892 9.90653 16.906
12180 2 11.1773 12.7625 19.6245
12236 2 8.3621 18.365 22.3267
12182 2 2.58751 18.5018 16.9041
12183 2 2.7218 15.6511 19.4714
12223 2 2.67175 9.92792 25.1725
12185 2 5.62963 15.7347 16.834
12186 2 8.35256 18.4084 16.8158
12187 2 8.34201 15.6592 19.6706
12188 2 5.53351 18.5598 19.5578
12189 2 11.1675 15.3554 16.6988
12190 2 11.1674 18.3988 19.4727
12226 2 8.32974 12.8158 22.3654
12192 2 2.66301 24.0391 16.7049
12193 2 2.56391 21.3181 19.5898
12225 2 5.53014 9.97608 22.2195
12195 2 5.47955 21.2097 16.638
12196 2 8.25994 24.0927 16.7149
12197 2 8.36554 21.2355 19.5398
12198 2 5.53016 24.0143 19.6265
12199 2 11.0735 21.1218 16.7301
12200 2 10.9897 24.0524 19.3982
12240 2 11.1393 18.5547 25.2316
12202 2 2.6324 1.55504 22.2785
5996 1 6.74448 0.351919 26.4537
12239 2 11.2559 15.5213 22.3201
12222 2 2.63802 12.8152 22.3009
12206 2 8.2324 1.51599 22.3285
12235 2 5.46148 15.7145 22.3083
12208 2 5.44051 1.62078 25.0021
12233 2 2.81091 15.5893 25.224
12210 2 11.0628 1.47407 25.3067
12238 2 5.45274 18.4987 25.0839
12212 2 2.72162 7.26445 22.3964
12213 2 2.51348 4.32402 25.1257
12237 2 8.34484 15.589 25.1716
12215 2 5.40823 4.29346 22.3458
12241 2 -0.271127 21.2738 22.4093
15232 2 13.9554 15.6214 25.2257
15221 2 13.8886 12.6587 22.4084
12131 2 2.59739 4.52235 13.9508
15172 2 13.8979 9.85917 19.671
12046 2 8.27923 23.9297 27.9974
15162 2 13.9656 4.27724 19.5734
12194 2 -0.17714 24.1061 19.5528
12045 2 5.44325 21.143 27.929
12140 2 11.1772 12.7253 14.0902
12049 2 11.2092 21.2893 27.9668
12042 2 2.59914 23.9331 27.898
12022 2 2.59862 12.7617 28.0761
12146 2 2.68954 21.1943 13.8646
12032 2 2.70667 18.4134 28.0506
12016 2 8.24466 7.16393 28.0118
15136 2 13.9895 9.99822 14.0412
12138 2 8.31492 9.96328 14.0338
12132 2 -0.247781 7.17582 13.9245
12133 2 8.24729 4.27177 13.8845
12134 2 5.40061 7.15255 14.0514
15011 2 13.9717 7.06771 27.939
12012 2 2.65147 7.17657 28.0396
12139 2 5.62295 12.8445 14.0118
12142 2 -0.0859702 18.517 13.8284
12036 2 8.36668 18.3808 28.0038
12002 2 2.65712 1.53453 28.0952
12143 2 8.29906 15.7831 13.995
451 1 1.22639 25.5877 1.21709
452 1 3.88618 25.3717 1.19047
453 1 4.11678 25.2542 4.00292
454 1 1.42789 25.3619 4.1094
455 1 6.89656 25.3689 1.21414
456 1 9.65226 25.2932 1.2313
457 1 9.70056 25.532 4.03761
458 1 6.90139 25.6325 4.13337
459 1 12.3942 31.0745 1.40713
460 1 12.491 28.2763 4.17282
461 1 1.11961 28.3254 1.08498
462 1 4.1543 28.05 1.22777
463 1 4.07773 28.134 4.07513
464 1 1.36582 28.1999 4.07192
465 1 1.2293 31.1278 1.08603
466 1 3.90473 30.7518 1.09981
467 1 4.09798 30.9202 3.94856
468 1 1.25957 31.1799 4.06788
469 1 6.93751 27.9977 1.08771
470 1 9.73538 28.2561 1.16483
471 1 9.60935 28.3291 4.11032
472 1 6.78785 28.3488 4.13204
473 1 6.80647 30.6975 1.17296
12373 2 11.1663 35.2535 14.0267
475 1 9.59921 31.3091 4.04395
476 1 6.72741 31.1786 3.95161
477 1 9.66581 30.9338 1.39542
478 1 9.71292 34.0373 1.65091
15356 2 13.9425 46.5278 10.9846
904 1 1.30623 50.8118 3.99678
481 1 0.936657 33.7803 1.29702
482 1 5.18199 33.1289 1.6587
483 1 4.01165 33.7204 4.41281
484 1 1.3464 33.762 4.15302
917 1 12.5604 50.8271 1.28029
486 1 3.38765 34.7413 1.71165
487 1 4.00676 36.7048 4.30127
488 1 1.23493 36.568 4.20189
489 1 6.97922 34.7493 1.26554
847 1 1.29922 36.7334 1.3813
491 1 9.85796 34.6203 4.32057
492 1 7.14915 33.9427 3.98415
493 1 4.73217 36.8771 1.46893
494 1 10.0659 36.5451 1.21769
495 1 9.53458 37.2191 4.01394
496 1 6.81556 36.5598 4.12629
497 1 12.6359 33.9599 1.07368
498 1 12.4767 33.9419 4.04552
499 1 12.7613 36.879 1.14879
500 1 12.4389 36.9053 3.99571
501 1 1.25377 39.3398 1.28754
502 1 4.1201 39.7048 1.2824
503 1 4.11968 39.5475 4.08306
504 1 1.28216 39.5253 4.03824
505 1 1.23675 42.3038 1.26114
506 1 4.18704 42.3361 1.1346
507 1 4.01388 42.521 4.01406
508 1 1.33431 42.3141 4.13396
509 1 6.89571 39.8917 1.3265
510 1 9.64704 39.7074 1.14489
511 1 9.83078 40.0267 3.98963
512 1 6.86712 39.5989 4.3539
513 1 7.10055 42.4822 1.19391
514 1 9.98371 42.5428 0.914945
515 1 9.53375 42.6163 3.97939
516 1 6.72147 42.3825 3.90867
517 1 12.3391 39.6209 1.32048
518 1 12.4049 39.4899 4.13548
519 1 12.6571 42.4343 1.18075
520 1 12.5414 42.5437 3.98791
521 1 1.22511 45.1528 1.15882
522 1 4.05032 45.0685 1.05203
523 1 4.08915 45.2252 3.93105
524 1 1.27925 45.1272 4.02981
525 1 1.47075 48.0969 1.16878
526 1 4.20833 47.9675 1.19989
527 1 4.1824 48.0668 3.93534
528 1 1.2531 47.9038 3.81167
529 1 6.88488 45.2272 1.23722
530 1 9.66559 45.1525 1.24106
531 1 9.72876 45.3359 3.99954
532 1 6.77069 45.1932 3.92632
533 1 7.00571 48.0728 1.29316
534 1 9.80533 48.0735 1.17303
535 1 9.76986 48.0158 3.98942
536 1 6.95364 47.8571 4.06996
537 1 12.643 45.3131 1.20193
538 1 12.5097 45.1482 4.09156
539 1 12.5822 48.1459 1.29911
540 1 12.6352 47.9406 3.99997
541 1 1.27893 25.4273 7.00211
542 1 4.11717 25.3512 6.84139
543 1 3.95032 25.2884 9.63126
544 1 1.23012 25.4817 9.84549
545 1 7.00311 25.3459 6.93926
546 1 9.69835 25.4639 6.71536
547 1 9.76588 25.4263 9.76514
548 1 7.06503 25.4328 9.69551
549 1 12.3488 28.3403 6.96397
550 1 12.3961 25.3702 9.747
551 1 1.28472 28.2111 6.73417
552 1 4.09807 28.1835 6.89424
553 1 3.95319 28.0994 9.65654
554 1 1.22903 28.3485 9.67155
555 1 1.25123 30.908 6.8568
556 1 4.0021 31.0328 6.90162
557 1 4.00407 31.156 9.64143
558 1 1.23342 31.2843 9.63789
559 1 6.81943 28.2695 6.94629
560 1 9.55369 28.4914 7.02873
561 1 9.67369 28.3614 9.73405
562 1 6.83531 28.1946 9.7139
563 1 6.77399 30.9861 6.75378
564 1 9.56234 31.2113 6.8832
565 1 9.45605 31.0686 9.83635
566 1 6.78622 31.0692 9.64925
567 1 12.4608 31.0953 6.97503
568 1 12.6333 28.2406 9.72522
90 1 12.4644 25.3923 1.26853
570 1 12.43 31.1322 9.88724
571 1 1.41517 34.0037 6.99864
572 1 4.04432 33.8459 6.98242
573 1 4.15368 33.9423 9.79051
574 1 1.33165 34.0863 9.71925
575 1 1.32402 36.7697 6.90968
576 1 4.10208 36.8152 7.04865
577 1 4.04942 36.7001 9.81229
578 1 1.2021 36.8418 9.72134
579 1 6.78057 33.8774 6.72275
580 1 9.64654 33.8831 7.04181
581 1 9.73219 33.9278 9.73756
582 1 6.93992 33.8939 9.71253
583 1 6.80153 36.7477 6.75965
584 1 9.63854 36.7744 6.88822
585 1 9.60609 36.6809 9.59805
586 1 6.82657 36.8387 9.64431
587 1 12.4003 33.7676 6.91966
588 1 12.3709 33.8356 9.79821
589 1 12.4845 36.5773 6.87974
590 1 12.5682 36.73 9.75009
591 1 1.36462 39.4836 6.96366
592 1 4.05107 39.6326 6.81997
593 1 4.03289 39.5748 9.62044
594 1 1.28257 39.529 9.7992
595 1 1.36206 42.1937 6.95693
596 1 4.15778 42.3883 6.78101
597 1 4.15879 42.3181 9.6708
598 1 1.19981 42.4208 9.78191
599 1 6.94027 39.61 6.85354
600 1 9.65988 39.5796 6.85355
601 1 9.86984 39.5137 9.58071
602 1 6.83098 39.6617 9.56361
603 1 6.9706 42.4554 6.84788
604 1 9.79643 42.3387 6.77781
605 1 9.5867 42.1835 9.61216
606 1 6.86182 42.3441 9.63363
607 1 12.5825 39.517 7.00122
608 1 12.5991 39.5912 9.56892
609 1 12.4216 42.3399 6.81744
610 1 12.6585 42.3352 9.5324
611 1 1.01333 44.9447 6.88851
612 1 3.88663 45.1653 6.86148
613 1 3.9713 45.0641 9.75386
614 1 1.19202 45.2374 9.68375
615 1 1.29245 47.9746 6.61193
616 1 4.04974 47.9598 6.86211
617 1 3.96042 47.859 9.60062
618 1 1.23264 48.1398 9.75169
619 1 6.77723 45.1467 6.78229
620 1 9.55942 45.1095 6.75012
621 1 9.68212 45.1059 9.65686
622 1 6.86017 45.1548 9.6866
623 1 6.93959 47.8666 6.77327
624 1 9.74683 47.7383 6.79443
625 1 9.70525 47.9057 9.80024
626 1 6.8315 47.8336 9.77199
627 1 12.5826 45.1719 6.96227
628 1 12.5093 45.1434 9.7542
629 1 12.4943 47.9463 6.72097
630 1 12.5061 47.916 9.59519
631 1 1.27155 25.3191 12.4955
632 1 4.09107 25.5174 12.3225
633 1 6.97989 25.5305 12.4724
634 1 9.78753 25.452 12.5745
635 1 12.5017 25.4943 12.3954
636 1 1.29489 28.1427 12.4914
637 1 3.93811 28.4006 12.5558
638 1 1.23694 31.0021 12.4425
639 1 4.03023 31.0813 12.6783
640 1 6.78006 28.2852 12.5959
641 1 9.75609 28.3799 12.3529
642 1 6.92473 31.1168 12.5172
643 1 9.80291 31.1082 12.6081
644 1 12.3901 28.4199 12.3776
645 1 12.4332 31.2681 12.6128
646 1 1.29304 33.9883 12.6787
647 1 3.93677 33.9883 12.5773
648 1 1.27489 36.6615 12.5008
649 1 4.05461 36.6516 12.4848
650 1 6.76306 33.8199 12.5717
651 1 9.57008 33.8549 12.5179
652 1 6.88816 36.5894 12.429
653 1 9.68901 36.6812 12.4691
654 1 12.4501 34.0518 12.5489
655 1 12.4312 36.7883 12.5781
656 1 1.44152 39.5343 12.5125
657 1 4.17387 39.551 12.4103
658 1 1.3473 42.4589 12.5011
659 1 4.13377 42.3259 12.5487
660 1 6.90831 39.5711 12.4185
661 1 9.6688 39.4977 12.3883
662 1 6.93718 42.4325 12.5434
663 1 9.6941 42.1628 12.482
664 1 12.5887 39.5886 12.3622
665 1 12.4161 42.1706 12.3278
666 1 1.2382 45.0459 12.6226
667 1 4.09409 45.0837 12.6812
668 1 1.14916 47.8581 12.5243
669 1 3.91615 47.9366 12.5344
670 1 6.84533 45.197 12.4273
671 1 9.64631 45.099 12.3979
672 1 6.86776 47.8694 12.5614
673 1 9.72012 47.9481 12.6357
674 1 12.6071 45.0097 12.4766
675 1 12.7477 47.7311 12.4475
12363 2 11.1366 49.3448 11.0865
89 1 12.5236 28.304 1.31763
12253 2 2.66438 26.7104 2.6973
12362 2 5.44831 49.3483 11.2727
15291 2 14.0399 49.5399 2.67035
180 1 12.4779 25.4043 6.88077
12257 2 8.21908 26.8071 2.59205
12258 2 5.32266 29.5487 2.7178
12364 2 2.67064 26.8846 14.0494
12260 2 11.0762 29.7665 2.86692
12360 2 11.0756 43.6345 11.049
15296 2 13.8518 29.6977 5.59157
12263 2 2.61943 32.5522 2.52614
12359 2 8.27454 46.53 11.04
15351 2 13.9648 41.0051 11.0019
12341 2 -0.111734 26.8224 11.1285
12267 2 7.9362 32.2681 2.2825
12268 2 5.13036 35.1588 3.17065
12345 2 11.1107 26.8931 11.0668
12270 2 11.4829 35.4321 2.54763
12358 2 5.5111 43.6995 11.1253
12344 2 8.17514 29.6492 11.2232
12273 2 2.68705 38.0389 2.66406
12357 2 2.61088 46.4593 11.141
12343 2 5.44879 26.8498 11.1484
179 1 12.5709 25.6293 4.07426
12277 2 8.34011 38.7627 2.85088
12278 2 5.37091 41.089 2.68311
479 2 10.9113 32.3357 0.0894532
12280 2 11.1619 41.1854 2.47921
12355 2 11.1583 38.1563 11.0956
12367 2 5.45649 29.7254 14.1438
12283 2 2.58829 43.8652 2.6424
12354 2 8.29576 40.9628 11.045
851 1 7.53356 37.2779 1.443
12299 2 -0.0961793 29.6836 8.17217
12287 2 8.33981 43.9906 2.64188
12288 2 5.59225 46.7052 2.54873
12385 2 8.29709 49.3888 13.9003
12290 2 11.1592 46.5855 2.70197
12353 2 5.43991 38.2159 11.0736
12292 2 2.68854 49.4594 2.67116
12382 2 5.41716 46.5528 13.9223
12294 2 8.34869 49.4249 2.6598
15317 2 13.943 38.1643 8.30259
12262 2 5.26815 35.034 0.0506358
12297 2 2.71874 29.572 5.49814
12298 2 2.67136 26.7588 8.22212
15378 2 14.0375 43.7931 13.8717
12300 2 5.56464 26.7549 5.46427
12301 2 8.21915 29.761 5.41995
12302 2 8.25336 26.8527 8.26663
12303 2 5.47754 29.6612 8.29088
12304 2 11.1105 26.8935 5.53023
12305 2 11.052 29.775 8.38388
12352 2 2.71041 40.9569 11.1242
12307 2 2.60621 35.3173 5.63961
12308 2 2.68305 32.4963 8.25139
569 1 12.5673 31.072 4.15562
12310 2 5.43307 32.4042 5.5775
12311 2 8.28283 35.3116 5.81946
12312 2 8.34781 32.358 8.38934
12313 2 5.36817 35.2014 8.26611
12314 2 11.0736 32.6056 5.54691
12315 2 11.155 35.3008 8.34208
12266 2 8.39194 35.6768 2.70089
12317 2 2.70558 40.985 5.45299
12318 2 2.79425 38.0844 8.43123
12350 2 11.0474 32.6047 11.1981
12320 2 5.36312 38.2875 5.68666
12321 2 8.26071 41.0001 5.49824
12322 2 8.23356 38.2962 8.26094