ITEM: TIMESTEP
330000
ITEM: NUMBER OF ATOMS
18000
ITEM: BOX BOUNDS xy xz yz pp pp pp
-1.0397612374173033e-01 2.7997976123741914e+01 0.0000000000000000e+00
-1.0464565275241826e+00 3.3577445652754989e+02 0.0000000000000000e+00
-9.4178573623084197e-02 2.7988178573623713e+01 0.0000000000000000e+00
ITEM: ATOMS id type x y z
1 1 1.30244 0.177196 1.23736
2 1 4.10876 0.166961 1.45238
3 1 4.0878 0.090536 4.49542
4 1 1.26766 0.207552 4.02102
5 1 1.40228 3.03785 1.21224
6 1 4.26329 3.03473 1.29395
7 1 4.1341 2.90804 3.9739
8 1 1.22121 3.0428 4.06092
9 1 6.88503 2.98195 1.23987
10 1 9.62449 0.128149 1.34299
11 1 9.66524 0.16382 4.0354
12 1 6.92124 2.91465 3.97073
13 1 6.85758 5.85974 1.19322
14 1 9.63775 3.0635 1.12102
15 1 9.77215 3.01458 4.02374
16 1 6.91625 5.38762 4.08299
17 1 12.296 0.260328 1.12598
18 1 12.4974 0.209076 3.97953
19 1 12.2957 3.13311 1.27636
20 1 12.3911 2.89629 4.06852
21 1 1.35611 5.77418 1.03746
22 1 4.18682 5.87888 1.10535
23 1 4.14846 5.74425 3.8513
24 1 1.34894 5.8621 3.82217
25 1 1.25589 8.54143 1.01348
26 1 4.10202 8.69811 1.28704
27 1 3.79144 11.4276 4.01659
28 1 1.17841 8.64907 3.86296
15012 2 13.8147 4.41058 2.72075
30 1 9.69451 5.77649 1.26011
31 1 9.84658 5.72188 4.11105
32 1 6.31112 8.11523 5.52918
33 1 6.41303 10.1554 3.38975
34 1 9.93189 8.72137 1.421
35 1 7.88109 7.82907 3.43077
36 1 6.47447 11.8665 5.11358
37 1 12.3891 5.99156 1.38559
38 1 12.6355 5.70658 4.22447
39 1 12.5113 8.89011 1.31658
40 1 12.5939 8.56858 3.94393
41 1 1.1989 11.4611 1.22106
42 1 3.96799 11.4605 1.18065
43 1 6.84559 14.4969 3.93645
44 1 0.944521 11.4517 4.17076
45 1 1.24586 14.3998 1.33583
46 1 4.04702 14.1903 1.35273
47 1 4.07878 14.2755 4.1801
48 1 1.21379 14.2788 4.15325
49 1 3.83979 8.43438 3.93774
50 1 9.76826 11.4433 1.10941
51 1 9.85712 9.1466 4.56379
52 1 9.05389 11.6362 3.86681
53 1 6.90525 17.1952 3.85264
54 1 9.74441 14.3531 1.12256
55 1 12.4127 14.2427 3.87416
56 1 9.73333 14.4586 3.85636
57 1 12.5102 11.6954 1.08648
58 1 12.5844 11.4104 3.72165
59 1 12.6175 14.5093 1.06068
15111 2 13.939 12.9294 11.0193
61 1 1.40928 17.0883 1.34086
62 1 4.09683 16.955 1.37495
63 1 4.10728 17.1289 4.19732
64 1 1.35189 17.0879 3.97499
65 1 1.22047 19.8486 1.32844
66 1 4.13824 19.9383 1.2728
67 1 4.06127 19.9384 4.21863
68 1 1.28707 19.8739 4.07859
69 1 6.94376 17.0683 1.07043
70 1 9.72847 17.1551 1.18288
71 1 12.4369 17.052 3.90408
72 1 9.69422 17.1225 4.01399
73 1 7.07361 19.833 1.19592
74 1 9.89671 20.0851 1.32146
75 1 9.79508 19.9071 4.17309
76 1 6.89162 20.0287 4.02449
77 1 12.5103 17.1524 1.04511
15116 2 13.7529 18.4122 11.0883
79 1 12.5565 19.8711 1.35737
12130 2 11.0997 1.71714 13.9079
81 1 1.09 22.5172 1.29941
82 1 4.03593 22.6709 1.30675
83 1 4.10026 22.6638 4.29952
84 1 1.23419 22.6603 4.15291
85 1 6.82356 22.7504 1.37885
86 1 9.60541 22.7885 1.21548
87 1 9.71982 22.6408 4.18857
88 1 6.86073 22.7594 4.03188
15071 2 13.8034 12.9673 5.15175
12094 2 -0.0466285 24.157 8.321
91 1 1.40041 0.183412 6.74498
92 1 4.10967 0.20698 7.47209
93 1 4.05479 2.76051 9.70023
94 1 1.66035 0.0450388 9.68672
95 1 1.29045 3.07054 6.84437
96 1 3.94428 3.02941 6.73635
97 1 6.77754 5.78145 9.84227
98 1 1.36607 2.86527 9.70244
99 1 6.97825 3.0276 6.86499
100 1 9.62783 0.0926746 6.83201
101 1 9.5778 0.19981 9.57928
102 1 6.88843 2.99006 9.66934
103 1 6.69257 5.65409 7.02169
104 1 9.64655 2.9701 6.92605
105 1 9.71765 2.95766 9.73836
106 1 6.77542 5.68434 12.7002
107 1 12.5558 0.181193 6.77834
108 1 12.4127 0.220295 9.58745
109 1 12.4277 2.94132 6.90521
110 1 12.5418 3.07106 9.75197
111 1 1.15715 5.86347 6.65407
112 1 3.9564 5.86389 6.818
113 1 3.99627 8.52294 9.6497
114 1 1.23244 5.83162 9.65492
115 1 1.28048 8.48799 6.795
116 1 3.88648 8.47171 6.76817
117 1 6.45023 10.3129 7.34425
118 1 1.13368 8.5321 9.7675
119 1 8.89272 8.50656 6.88949
120 1 9.80562 5.75866 6.94215
121 1 9.66171 5.82294 9.67136
122 1 6.66528 8.71235 9.61627
123 1 8.76075 11.6946 6.91538
124 1 12.3823 8.38094 6.83904
125 1 11.0013 10.4531 7.71319
126 2 8.3499 10.1052 8.62511
127 1 12.4801 5.84065 6.95859
128 1 12.5105 5.84631 9.72122
129 1 13.4703 11.1325 6.56109
130 1 12.6567 11.5292 9.68551
131 1 1.16916 11.3881 6.98067
132 1 3.96902 11.45 6.92284
133 1 3.94723 11.3256 9.71286
134 1 1.22192 11.4617 9.76509
135 1 1.19227 14.3415 6.93847
136 1 4.07221 14.172 6.86797
137 1 3.88576 14.2325 9.71591
138 1 1.05401 14.3585 9.64921
139 1 9.57761 14.5904 6.89299
140 1 11.137 12.5929 5.67051
141 1 9.72745 11.496 9.74291
142 1 6.94221 11.4954 9.81283
143 1 6.90148 14.1507 6.72652
144 1 9.63949 17.3534 6.8536
145 1 9.58818 14.295 9.69547
146 1 6.80546 14.302 9.43981
147 1 12.7763 14.1137 6.9722
148 1 12.6213 14.3521 9.64576
149 1 12.2512 16.9814 6.96994
150 1 12.4407 17.0201 9.63745
151 1 1.15812 17.1483 6.79996
152 1 4.0531 17.1386 7.00289
153 1 4.01537 17.1577 9.74678
154 1 1.20466 17.2201 9.63491
155 1 1.19883 19.8238 6.92079
156 1 3.94756 19.7827 6.95332
157 1 3.96952 19.9053 9.65391
158 1 1.35065 19.9706 9.73848
159 1 6.87463 16.8699 6.7611
160 1 12.4585 22.7431 4.07806
161 1 9.50721 17.0562 9.64895
162 1 6.69544 17.0096 9.58572
163 1 6.79443 19.7686 6.89091
164 1 9.71565 20.1082 6.83505
165 1 9.58696 19.902 9.74104
166 1 6.84135 19.988 9.67185
241 1 9.39933 8.57112 12.4519
168 1 12.4283 19.9025 9.71231
169 1 12.5689 22.6756 6.85274
170 1 12.4894 22.6028 9.64272
171 1 1.26483 22.7862 6.95952
172 1 4.08773 22.5934 7.13278
173 1 4.11945 22.7088 9.84528
174 1 1.28439 22.743 9.80427
175 1 6.90244 22.6112 6.94269
176 1 9.81324 22.752 6.8858
177 1 9.83078 22.7639 9.71695
178 1 7.047 22.7824 9.93097
15092 2 13.9326 21.1846 8.18518
12014 2 -0.113389 7.19513 2.62427
181 1 1.3632 0.118798 12.6772
182 1 4.1514 0.214508 12.0381
183 1 1.22538 3.14622 12.3768
184 1 4.09635 2.9376 12.6288
185 1 6.80725 0.033493 12.6466
186 1 9.77817 0.318656 12.3642
187 1 6.89964 2.86408 12.5742
188 1 9.75648 3.03577 12.5568
189 1 12.5177 0.30625 12.5747
190 1 12.4454 3.10663 12.5532
191 1 1.1273 5.8088 12.5314
192 1 3.94051 5.62774 9.77727
193 1 1.23515 8.65967 12.4587
194 1 4.02775 8.7045 12.3859
195 1 4.07924 5.92428 12.5654
196 1 9.78593 5.81358 12.6691
197 1 9.67975 8.60631 9.80282
198 1 12.5 8.62496 9.94892
199 1 12.4808 5.87262 12.6399
200 1 12.3209 8.64397 12.5449
201 1 1.10948 11.45 12.5502
202 1 3.99274 11.5155 12.4865
203 1 1.2111 14.2976 12.5206
204 1 4.13781 14.2853 12.4636
205 1 6.76086 11.4806 12.5298
206 1 9.5655 11.485 12.4873
207 1 6.93623 14.173 12.4149
208 1 9.75674 14.456 12.445
209 1 12.4238 11.4136 12.6397
210 1 12.4972 14.1352 12.5913
211 1 1.15228 17.0409 12.6034
212 1 4.07572 16.977 12.5071
213 1 1.32554 20.0712 12.5512
214 1 4.13834 19.7037 12.4434
215 1 6.7615 17.0951 12.4213
216 1 9.58315 17.1305 12.5388
217 1 6.94712 19.8634 12.382
218 1 9.81459 19.8053 12.4739
219 1 12.4273 16.9672 12.5606
220 1 12.492 19.7876 12.5168
221 1 1.17218 22.9101 12.4784
222 1 4.00326 22.6135 12.5028
223 1 6.8159 22.7393 12.6921
224 1 9.67024 22.547 12.5079
225 1 12.4387 22.6719 12.4579
12125 2 11.0962 21.2506 11.1804
12110 2 11.0455 4.47819 11.1553
12129 2 5.51285 1.64972 13.9641
12124 2 8.27962 24.0479 11.3245
80 1 12.575 22.6184 1.425
12109 2 8.13368 7.27984 11.1447
12064 2 -0.0756245 7.17597 8.27841
12008 2 5.57724 1.61947 2.63206
243 1 6.72679 8.68559 12.4961
12010 2 10.9186 1.58657 2.6517
12123 2 5.5313 21.205 11.203
12108 2 5.44714 4.36522 11.1879
12013 2 2.73633 4.42813 2.54585
12122 2 2.77261 24.1191 11.1352
12107 2 2.54561 7.19581 11.0939
12112 2 2.66987 12.8469 11.1711
12017 2 8.2824 4.41387 2.60317
12018 2 5.61194 7.31409 2.66399
12104 2 8.34658 1.56808 11.1488
12020 2 11.0407 7.37493 2.79617
60 1 12.4364 19.8122 4.13916
15136 2 13.9421 9.91522 13.8625
12023 2 2.60258 9.98848 2.48631
12120 2 10.9898 15.6764 10.9597
12102 2 2.52094 1.70268 11.2726
12113 2 5.43746 10.1087 11.1062
12027 2 8.2652 10.0425 2.22114
12028 2 5.48309 12.7413 2.69086
12100 2 11.1989 24.1202 8.25476
12030 2 10.9988 12.8369 2.55826
12099 2 11.1353 21.3143 5.42838
12098 2 5.51983 23.977 8.34757
12033 2 2.72352 15.6538 2.75544
412 1 6.90746 14.3813 1.21448
12097 2 8.35025 21.3929 8.25985
12096 2 8.30133 24.1372 5.44298
12037 2 8.35263 15.7172 2.52226
12038 2 5.47593 18.5177 2.66632
12095 2 5.45686 21.2059 5.70479
12040 2 11.0681 18.5505 2.60882
29 1 6.89665 8.68281 0.938213
12093 2 2.69321 21.2426 8.4295
12043 2 2.71404 21.2437 2.75166
5723 1 6.88748 0.279862 6.87993
12092 2 2.69721 24.092 5.48926
5634 1 6.81159 0.161 1.12826
12047 2 8.33544 21.371 2.65226
12048 2 5.53108 24.1733 2.77134
12090 2 10.9799 18.5611 8.28241
12050 2 11.0674 24.1121 2.57469
12119 2 8.23049 18.481 11.0837
12052 2 2.61709 1.64503 5.46096
15072 2 13.8232 9.81321 8.41446
12118 2 5.45158 15.5829 11.0017
5633 1 6.81839 0.178942 3.98273
12056 2 8.35252 1.52197 5.44027
5726 1 6.53891 0.091033 9.85144
12058 2 5.57937 1.75957 8.2855
15091 2 13.8769 24.1819 5.46359
12060 2 11.0824 1.63353 8.30797
12117 2 2.66169 18.4696 11.1379
12062 2 2.60262 7.14483 5.33088
12063 2 2.69268 4.37983 8.22624
12089 2 11.2559 15.5231 5.48338
12065 2 5.35352 4.29495 5.32156
12066 2 8.20261 6.66433 5.46231
12067 2 8.27125 4.35098 8.37317
12068 2 5.40982 7.18538 8.18051
12069 2 11.2006 4.31134 5.52097
12070 2 10.9931 7.31537 8.21827
12115 2 11.1046 10.072 11.1926
12072 2 2.58864 12.9456 5.57114
12073 2 2.51226 10.0739 8.30239
12114 2 8.28977 12.8775 11.0425
12075 2 4.87699 10.0838 5.33653
12076 2 8.50345 13.3319 5.37562
12077 2 7.92722 10.0105 5.41147
12078 2 5.69753 12.5292 7.93204
12079 2 11.5455 10.1741 5.58002
12080 2 11.2207 12.7577 8.16647
395 1 6.91813 11.5917 1.23585
12082 2 2.66401 18.4054 5.48031
12083 2 2.65539 15.6881 8.37696
15081 2 13.5874 18.354 5.34623
12085 2 5.48864 15.6669 5.44953
12086 2 8.29036 18.6002 5.46117
12087 2 8.22775 15.7083 8.27245
12088 2 5.41755 18.4421 8.39355
167 1 12.4684 19.7383 6.92361
12054 2 -0.126365 1.56827 8.23776
15032 2 13.9431 15.8096 2.41435
12121 2 -0.0435272 21.3542 11.0332
12141 2 2.74813 15.5311 13.8839
12143 2 8.22465 15.4991 13.792
15101 2 13.9666 1.60484 11.1924
12136 2 2.64416 10.1263 13.8332
12140 2 11.0357 12.8566 13.9027
12138 2 8.27135 10.0008 13.8856
12131 2 2.62937 4.50203 13.9008
12091 2 -0.106924 21.3326 5.61091
12004 2 -0.163108 1.63705 2.65205
15121 2 13.8334 24.0301 10.9091
15062 2 13.8883 4.50051 8.44538
12139 2 5.39211 12.8551 13.7341
12042 2 2.59725 23.9601 -0.0667635
12144 2 5.48108 18.297 13.8883
15141 2 13.8239 15.7011 13.8081
15011 2 13.8028 7.27013 -0.0346394
12035 2 5.44699 15.6629 -0.0255273
15146 2 13.8589 21.1912 13.8594
12148 2 8.32391 21.1292 13.9143
12150 2 11.0832 24.0885 13.8476
12022 2 2.60954 12.8756 -0.0953842
226 1 4.14131 0.295207 15.2623
227 1 1.24207 0.271373 15.3343
228 1 4.06156 2.91877 15.4321
229 1 1.2366 3.02016 15.1368
230 1 9.76778 0.17621 15.135
231 1 6.91614 0.185619 15.3475
232 1 9.52006 2.95222 15.3701
233 1 6.74139 3.07598 15.3474
234 1 12.6357 0.236213 15.3163
235 1 12.3775 3.11826 15.2319
236 1 3.9548 5.959 15.2597
237 1 1.22525 5.95109 15.1437
238 1 4.12825 8.70551 15.3026
239 1 1.21456 8.65901 15.1834
240 1 9.64707 5.76075 15.4429
15242 2 13.8259 21.4557 25.0141
242 1 9.59925 8.55238 15.2015
5993 1 7.11534 0.226792 23.7332
244 1 12.4774 6.0193 15.5343
245 1 12.4678 8.68594 15.301
246 1 4.05896 11.3105 15.2899
247 1 1.22964 11.5606 15.2939
248 1 3.87478 14.1911 15.3575
249 1 1.17398 14.3445 15.4812
250 1 9.7015 11.3108 15.2883
251 1 6.84346 11.392 15.3207
252 1 9.45421 14.0799 15.1962
253 1 6.67439 14.2161 15.1375
254 1 12.5338 11.4695 15.2974
255 1 12.389 14.2367 15.3595
256 1 3.97454 17.0997 15.2941
257 1 1.35414 16.918 15.4937
258 1 4.17613 19.8802 15.1407
259 1 1.3843 19.8661 15.2507
260 1 9.83999 16.8598 15.4216
261 1 6.82764 16.9433 15.2245
262 1 9.67019 19.7185 15.2727
263 1 6.97072 19.7129 15.2579
264 1 12.657 17.0124 15.3414
265 1 12.5362 19.8201 15.2599
266 1 4.08713 22.6807 15.2799
267 1 1.41554 22.7137 15.319
268 1 9.80115 22.6444 15.2318
269 1 7.04692 22.5242 15.277
270 1 12.522 22.721 15.2071
271 1 1.3528 0.237189 18.0899
272 1 4.08253 0.266387 18.1271
273 1 4.27766 0.265043 20.918
274 1 1.37216 0.154221 20.9443
275 1 1.32596 3.11735 17.9231
276 1 4.09448 3.07075 18.0891
277 1 4.00565 3.01424 20.9223
278 1 1.28809 3.14341 20.8519
279 1 6.88633 3.0422 18.134
280 1 9.80342 0.293335 17.9769
281 1 9.83741 0.276011 20.7671
282 1 6.8645 3.01241 20.8425
283 1 6.80704 5.76036 18.0814
284 1 9.72926 3.01015 18.2568
285 1 9.66837 3.12396 21.0608
286 1 6.8683 5.96436 23.6367
287 1 12.6556 0.211834 18.1093
288 1 12.5904 0.298033 20.9286
289 1 12.4758 2.88462 18.0147
290 1 12.6344 3.06428 20.7818
291 1 1.05794 5.86196 18.0263
292 1 3.99245 5.9368 18.1058
293 1 4.08367 5.86589 20.7934
294 1 1.19273 6.08078 20.6927
295 1 1.20184 8.78778 17.9876
296 1 4.13681 8.80336 17.989
297 1 4.0878 8.71507 20.8001
298 1 1.2229 8.87028 20.8253
299 1 6.87002 5.68549 15.2882
300 1 9.70511 5.76561 18.1853
301 1 9.67441 5.94697 20.8843
302 1 6.77288 5.87233 20.9159
303 1 6.94887 8.49905 15.2224
304 1 9.61901 8.63133 18.0203
305 1 9.62142 8.70671 20.8088
306 1 6.91273 8.59676 18.0462
307 1 12.5907 5.87413 18.3281
308 1 12.5802 5.80658 21.0274
309 1 12.4697 8.77007 17.9919
310 1 12.4531 8.68076 20.7999
311 1 1.213 11.5445 18.107
312 1 4.05425 11.5381 18.2123
313 1 4.10079 11.373 20.9961
314 1 1.39283 11.468 20.9506
315 1 1.1264 14.3008 18.1696
316 1 3.99454 14.2849 18.2946
317 1 4.20554 14.2891 21.0222
318 1 1.36825 14.2654 21.1169
319 1 6.73096 11.442 18.158
320 1 9.52443 11.4585 18.0817
321 1 9.74537 11.5477 20.951
322 1 6.86549 11.3569 20.9665
323 1 6.8866 14.2299 18.1676
324 1 9.73461 14.1855 18.2493
325 1 9.69752 14.2669 21.0391
326 1 6.89917 14.1947 20.9787
327 1 12.5196 11.4357 18.2204
328 1 12.3683 11.5085 21.0431
329 1 12.4213 14.1877 18.0025
330 1 12.5744 14.2435 20.8253
331 1 1.31044 17.1145 18.2274
332 1 4.06459 16.9663 18.0845
333 1 3.97651 16.9678 20.9582
334 1 1.13452 17.177 20.9408
335 1 1.0839 19.7603 18.0538
336 1 4.00627 19.6869 18.2932
337 1 4.06264 19.6785 21.0503
338 1 1.28247 19.8306 20.7685
339 1 6.94778 16.9801 18.0163
340 1 9.63368 17.0511 18.2713
341 1 9.55545 16.9749 20.9568
342 1 6.8516 16.9489 20.9397
343 1 6.74413 19.7546 18.1075
344 1 9.42435 19.7476 18.1521
345 1 9.64232 19.8418 20.6726
346 1 6.82518 19.7763 20.8656
347 1 12.4702 16.9545 18.1782
348 1 12.4555 17.0253 20.8622
349 1 12.3454 19.6586 18.0452
350 1 12.5365 19.7488 20.9376
351 1 1.17541 22.4774 18.0238
352 1 4.09351 22.4826 18.0707
353 1 4.15707 22.6143 20.8001
354 1 1.47662 22.5723 20.8835
355 1 6.90463 22.6304 18.1301
356 1 9.80584 22.5905 17.969
357 1 9.49443 22.6589 20.8458
358 1 6.80925 22.5603 20.8587
359 1 12.4982 22.4889 18.0777
360 1 12.4751 22.599 20.7361
361 1 1.36087 0.143196 23.6132
362 1 4.08665 0.292687 23.6218
363 1 4.12211 0.0693053 26.4568
364 1 1.31937 0.367971 26.5236
365 1 1.29349 2.88899 23.5306
366 1 4.04492 3.13965 23.6647
367 1 4.03101 2.92954 26.4487
368 1 1.36037 3.08709 26.5015
369 1 6.9342 3.08618 23.6231
370 1 9.78695 0.245935 23.5875
371 1 9.66324 0.171552 26.4367
372 1 6.67243 2.98671 26.4215
373 1 6.9506 5.8005 26.4686
374 1 9.80064 2.95652 23.6794
375 1 9.77935 2.80768 26.4819
376 1 9.75155 5.60355 26.4686
377 1 12.5849 0.208475 23.5924
378 1 12.3649 0.139126 26.4399
379 1 12.5868 2.97494 23.5654
380 1 12.6127 2.90869 26.4448
381 1 1.2287 5.8674 23.6052
382 1 4.0765 5.94045 23.6203
383 1 4.2648 5.77969 26.4021
384 1 1.44504 5.94559 26.3322
385 1 1.26337 8.63289 23.6489
386 1 4.11587 8.73145 23.6529
387 1 4.02579 8.74096 26.5831
388 1 1.24984 8.60395 26.28
389 1 6.91567 8.70614 23.6633
390 1 9.76614 5.85996 23.6464
391 1 9.53113 8.524 26.5639
392 1 6.76004 8.50628 26.3043
393 1 6.78648 8.71678 20.8415
394 1 9.74748 8.63858 23.7783
12029 2 11.1835 10.0872 27.8488
396 1 7.00404 11.4906 26.4125
397 1 12.4607 5.74898 23.7723
398 1 12.5349 5.84354 26.4598
399 1 12.5767 8.6751 23.6056
400 1 12.4346 8.5988 26.4562
401 1 1.142 11.3181 23.7835
402 1 3.96974 11.5334 23.8263
403 1 4.07066 11.4263 26.5895
404 1 1.21587 11.5252 26.5232
405 1 1.39606 14.0045 24.0003
406 1 4.17172 14.3028 23.9054
407 1 4.22715 14.2999 26.684
408 1 1.29545 14.1277 26.5756
409 1 6.88293 11.4353 23.6903
410 1 9.68868 11.3554 23.708
411 1 9.75537 11.3734 26.6136
12194 2 -0.127486 24.0274 19.6229
413 1 6.75264 14.3856 23.7496
414 1 9.51624 14.2726 23.6552
415 1 9.66685 14.5049 26.425
416 1 7.02408 14.2049 26.3988
417 1 12.4874 11.305 23.7928
418 1 12.5761 11.5305 26.4601
419 1 12.3756 14.1822 23.5762
420 1 12.5477 14.4237 26.4164
421 1 1.21455 16.8869 23.8378
422 1 4.09351 17.113 23.7105
423 1 4.133 17.2641 26.57
424 1 1.26408 16.9641 26.5629
425 1 1.16765 19.9398 23.6062
426 1 3.92952 19.7655 23.8264
427 1 4.15004 19.8782 26.5817
428 1 1.19427 19.8721 26.5847
429 1 6.78327 17.0876 23.82
430 1 9.66955 17.1418 23.778
431 1 9.72235 17.3406 26.535
432 1 6.90698 17.0605 26.4657
433 1 6.80197 20.0003 23.6092
434 1 9.50836 20.0867 23.5082
435 1 9.65281 20.0299 26.5847
436 1 6.91851 20.0101 26.43
437 1 12.4352 17.0295 23.5563
438 1 12.5237 17.2917 26.3865
439 1 12.3493 19.9581 23.7354
440 1 12.494 19.9948 26.4922
441 1 1.12817 22.7389 23.7277
442 1 3.96645 22.6396 23.588
443 1 3.936 22.7502 26.3731
444 1 1.27542 22.6 26.4878
445 1 6.86798 22.6968 23.6266
446 1 9.83789 22.784 23.6679
447 1 9.72099 22.8761 26.3095
448 1 6.75267 22.766 26.4884
449 1 12.5521 22.838 23.6448
450 1 12.5233 22.5766 26.5256
15031 2 13.8297 18.6326 27.771
12250 2 11.0762 24.2388 24.9913
15191 2 13.7943 23.9845 16.5892
15231 2 13.8081 18.5017 22.3716
5906 1 6.91258 0.30661 20.817
15172 2 13.8677 9.99899 19.6182
12249 2 11.1226 21.3136 22.2419
12019 2 11.1694 4.40759 27.9312
15241 2 13.9594 24.1703 22.2265
15181 2 13.9606 18.3482 16.7943
12221 2 -0.0849407 9.98906 22.297
12248 2 5.33265 24.0152 24.9253
12135 2 11.1587 7.27116 13.9214
12174 2 -0.106592 12.8376 19.567
12012 2 2.79309 7.17421 27.8804
12002 2 2.7753 1.48645 27.8732
12039 2 11.1467 15.8302 27.8735
12046 2 8.17582 24.1599 27.9447
12220 2 11.102 7.0656 25.1102
12149 2 5.53045 24.1145 13.9258
12232 2 2.61138 18.2511 22.4731
12216 2 8.23183 7.37093 22.3205
5903 1 6.93036 0.195254 18.1654
12219 2 11.2697 4.34909 22.2994
12218 2 5.41269 7.25558 24.9783
12247 2 8.3629 21.4402 25.0523
12152 2 2.68865 1.6337 16.794
12227 2 8.30492 9.91214 25.1274
12246 2 8.24324 23.9707 22.2696
12230 2 11.0145 12.785 25.1187
12156 2 8.24489 1.52464 16.7201
12229 2 11.0437 10.1119 22.3757
12158 2 5.46954 1.58334 19.5037
12217 2 8.28057 4.46696 24.9811
12160 2 11.181 1.61672 19.4066
12245 2 5.41494 21.2116 22.2292
12162 2 2.62437 7.32121 16.6401
12163 2 2.69059 4.47231 19.4678
12228 2 5.55136 12.9469 25.1486
12165 2 5.43421 4.38838 16.7002
12166 2 8.23252 7.26102 16.7737
12167 2 8.27555 4.35473 19.5725
12168 2 5.46994 7.2194 19.5313
12169 2 11.1061 4.45777 16.6508
12170 2 11.1308 7.32271 19.4611
12243 2 2.50809 21.2694 25.0377
12172 2 2.74326 12.9128 16.8174
12173 2 2.65613 10.0405 19.415
12242 2 2.67862 23.9692 22.272
12175 2 5.47711 10.0388 16.7177
12176 2 8.0834 12.6945 16.7166
12177 2 8.18726 10.1042 19.4362
12178 2 5.4518 12.8869 19.7057
12179 2 11.1022 10.1279 16.6687
12180 2 11.0735 12.7388 19.4622
12236 2 8.16903 18.4762 22.2706
12182 2 2.6311 18.4747 16.6395
12183 2 2.60445 15.6827 19.5604
12223 2 2.64327 10.0642 25.1745
12185 2 5.37186 15.6768 16.7366
12186 2 8.26145 18.3755 16.7007
12187 2 8.28623 15.6574 19.5311
12188 2 5.37898 18.1862 19.5971
12189 2 11.1819 15.5534 16.8004
12190 2 11.0622 18.3505 19.5006
12226 2 8.24865 12.8823 22.3878
12192 2 2.5665 24.0526 16.792
12193 2 2.73527 21.1071 19.4801
12225 2 5.44345 10.136 22.3359
12195 2 5.43322 21.0868 16.7355
12196 2 8.3146 23.9666 16.6988
12197 2 8.21753 21.1597 19.5358
12198 2 5.44333 23.9959 19.4648
12199 2 11.1351 21.1634 16.608
12200 2 11.0744 23.9743 19.5446
12240 2 11.0343 18.5427 24.9696
12202 2 2.69882 1.60173 22.2355
5996 1 6.87265 0.235041 26.4409
12239 2 11.0814 15.5958 22.2957
12222 2 2.66153 12.6925 22.4702
12206 2 8.34141 1.56831 22.2915
12235 2 5.40828 15.6298 22.4257
12208 2 5.50518 1.61079 25.0565
12233 2 2.64889 15.5685 25.1451
12210 2 11.1871 1.62702 25.0128
12238 2 5.52347 18.5058 25.0773
12212 2 2.62493 7.29901 22.1927
12213 2 2.61373 4.37641 25.1544
12237 2 8.22758 15.7318 25.0925
12215 2 5.4698 4.39599 22.2464
12036 2 8.26244 18.4864 27.8864
15131 2 13.8886 4.54942 13.9445
15171 2 13.9617 12.8929 16.692
12146 2 2.7081 21.2093 13.9353
12025 2 5.41361 10.056 27.8548
12016 2 8.35884 7.09907 27.9449
15221 2 13.8764 12.8017 22.2832
12015 2 5.46024 4.41448 27.8975
12045 2 5.50329 21.3813 27.8868
15212 2 13.8498 4.37871 25.1211
12021 2 -0.0730131 9.98802 27.8466
15222 2 13.9881 10.0694 24.9508
15162 2 14.0022 4.50465 19.5948
15021 2 13.8744 12.9237 27.8321
12214 2 -0.0756048 7.20969 24.9764
15192 2 13.8979 21.1723 19.5466
12006 2 8.23865 1.69901 27.7844
12142 2 -0.0347984 18.3782 13.989
12032 2 2.63869 18.4709 27.9711
12031 2 -0.0831285 15.6751 27.8731
12134 2 5.39451 7.27881 13.9239
12145 2 11.1186 18.2548 13.9551
12133 2 8.29555 4.42939 14.0211
12049 2 11.1652 21.3298 27.9025
12026 2 8.36946 12.9006 27.8035
451 1 1.37478 25.5206 1.32547
452 1 4.26256 25.5433 1.17418
453 1 4.12596 25.5481 4.08554
454 1 1.33532 25.3847 3.98947
455 1 6.92816 25.4715 1.45089
456 1 9.78431 25.6452 1.21598
457 1 9.88732 25.4852 4.06458
458 1 7.10147 25.4938 4.06355
459 1 12.6303 31.2395 1.40462
460 1 12.5863 28.2767 4.06292
461 1 1.41521 28.3134 1.29278
462 1 4.15744 28.202 1.25785
463 1 4.21566 28.364 4.04342
464 1 1.40984 28.1223 4.15208
465 1 1.28421 31.0069 1.30295
466 1 4.09805 30.9291 1.43893
467 1 4.19789 31.0566 4.03439
468 1 1.38169 30.9822 4.04759
469 1 7.13919 28.3337 1.33164
470 1 9.82703 28.2954 1.20831
471 1 9.65968 28.4236 3.914
472 1 6.93773 28.388 4.24595
473 1 6.94621 30.9078 1.23814
1105 1 6.93193 50.7236 12.4048
475 1 9.78999 30.8964 4.21405
476 1 6.99711 31.0417 4.27401
477 1 9.84491 31.1309 1.3536
478 1 9.35637 33.9045 1.0223
12368 2 11.1161 29.7132 13.8687
12309 2 -0.0950847 35.222 8.36255
481 1 1.05013 33.9247 1.37373
482 1 3.8723 33.6294 0.603695
483 1 4.07404 33.7708 4.04816
484 1 1.24826 33.9504 4.08355
1109 1 12.4845 50.8565 12.6651
486 1 3.40237 35.7685 1.80126
487 1 3.94745 36.7363 4.41266
488 1 1.17675 36.7062 4.16787
489 1 6.49652 33.9197 1.83842
847 1 1.00201 36.866 1.18804
491 1 9.6366 33.8639 3.84905
492 1 6.93955 34.0861 4.21834
493 1 5.40125 37.1573 1.59467
494 1 9.99033 36.5145 1.46407
495 1 9.74798 36.6466 3.87852
496 1 7.17705 36.6848 3.78987
497 1 12.5715 33.9545 1.11071
498 1 12.5474 33.827 4.11262
499 1 12.6974 36.8065 1.17041
500 1 12.5251 36.8394 4.02933
501 1 1.13968 39.4814 1.50804
502 1 3.87832 39.5672 1.29373
503 1 4.09802 39.6875 4.07047
504 1 1.31812 39.4392 4.27836
505 1 1.30679 42.3904 1.29007
506 1 4.01581 42.2948 1.18467
507 1 4.13043 42.4592 4.1549
508 1 1.13748 42.2423 4.09704
509 1 7.00721 39.7127 1.26161
510 1 9.78639 39.483 1.28934
511 1 9.72852 39.599 4.22759
512 1 6.81948 39.4744 4.08951
513 1 6.73428 42.4487 1.53066
514 1 9.64192 42.2307 1.17902
515 1 9.55328 42.4306 4.00752
516 1 6.92809 42.2839 4.14716
517 1 12.5945 39.7544 1.32777
518 1 12.625 39.6689 4.10575
519 1 12.5541 42.4684 1.37774
520 1 12.492 42.4066 4.12887
521 1 1.28301 45.2953 1.34875
522 1 4.12525 45.2302 1.346
523 1 4.09919 45.2645 4.20762
524 1 1.2301 45.1195 4.13291
525 1 1.39071 48.0106 1.41619
526 1 4.25061 47.9081 1.23093
527 1 3.98447 47.9838 4.24219
528 1 1.17909 47.9231 4.29168
529 1 6.95802 45.2296 1.26899
530 1 9.68996 45.1181 1.49122
531 1 9.73059 45.4036 4.20977
532 1 6.88822 45.1356 4.28529
533 1 6.94899 48.1236 1.45109
534 1 9.66472 48.0673 1.29424
535 1 9.7625 48.1012 4.19625
536 1 6.89831 47.9231 4.2462
537 1 12.4704 45.1921 1.33336
538 1 12.4417 45.2288 4.10681
539 1 12.5753 48.0722 1.35309
540 1 12.6659 48.1706 4.14825
541 1 1.48397 25.453 6.94022
542 1 4.2215 25.4666 6.90855
543 1 4.05879 25.5651 9.77793
544 1 1.2264 25.6899 9.65134
545 1 7.044 25.4799 6.82267
546 1 9.70526 25.5433 6.83735
547 1 9.68041 25.5063 9.80332
548 1 6.81262 25.6269 9.7769
549 1 12.5071 28.4586 6.91306
550 1 12.5432 25.4999 9.59434
551 1 1.13887 28.2727 6.81197
552 1 4.21777 28.3166 6.87304
553 1 4.05732 28.3528 9.51903
554 1 1.19197 28.2364 9.56141
555 1 1.42513 31.0959 6.71504
556 1 4.15595 31.0459 6.78615
557 1 3.97954 31.2417 9.65922
558 1 1.31486 31.127 9.58949
559 1 7.05913 28.3008 7.06401
560 1 9.81656 28.3771 6.85594
561 1 9.63034 28.328 9.72657
562 1 6.83512 28.4022 9.65766
563 1 6.9506 31.2399 7.006
564 1 9.77575 31.2772 6.9084
565 1 9.73729 31.2037 9.72649
566 1 6.98752 31.1276 9.66025
567 1 12.4412 31.15 7.00111
568 1 12.6948 28.3684 9.70273
90 1 12.4605 25.5672 1.29422
570 1 12.6068 31.2271 9.89599
571 1 1.38387 33.9078 6.84888
572 1 4.09598 33.9823 6.81546
573 1 4.11989 33.9365 9.70045
574 1 1.2972 33.902 9.56617
575 1 1.1786 36.7067 7.01511
576 1 4.14036 36.8066 6.95219
577 1 4.04571 36.8403 9.75699
578 1 1.2597 36.6667 9.77256
579 1 6.89974 33.9307 6.77523
580 1 9.84184 34.0614 6.78753
581 1 9.7117 33.9381 9.73577
582 1 7.08674 33.9908 9.60587
583 1 6.91235 36.8628 6.87729
584 1 9.76156 36.84 6.87347
585 1 9.72284 36.754 9.69283
586 1 6.91565 36.7106 9.60294
587 1 12.5908 34.0526 6.82218
588 1 12.5476 34.0373 9.67638
589 1 12.5346 36.7928 6.89514
590 1 12.5574 36.6402 9.84592
591 1 1.37763 39.5131 7.09478
592 1 4.10478 39.6975 7.0102
593 1 4.00506 39.7464 9.80814
594 1 1.29287 39.5374 9.84732
595 1 1.2076 42.4549 7.09872
596 1 4.01934 42.4667 6.97093
597 1 4.06466 42.4062 9.91507
598 1 1.33825 42.4122 9.98456
599 1 6.97357 39.5163 6.68508
600 1 9.81283 39.6268 6.9303
601 1 9.54306 39.585 9.82488
602 1 6.75608 39.5363 9.47199
603 1 6.84889 42.3918 7.0383
604 1 9.61594 42.4526 6.8873
605 1 9.78682 42.2906 9.75161
606 1 6.82113 42.3034 9.80962
607 1 12.3961 39.6051 6.96303
608 1 12.4345 39.6092 9.86282
609 1 12.394 42.3257 6.98868
610 1 12.5423 42.2727 9.82793
611 1 1.16787 45.1856 6.97735
612 1 4.00648 45.2369 7.07517
613 1 4.08833 45.2896 9.72801
614 1 1.31504 45.2376 9.75908
615 1 1.28718 47.9533 6.97785
616 1 4.11264 47.8824 6.9218
617 1 4.06118 48.1302 9.82121
618 1 1.43478 47.9011 9.83186
619 1 6.87951 45.1097 6.99668
620 1 9.64301 45.234 7.04608
621 1 9.79825 45.213 9.82482
622 1 6.96534 45.2265 9.74011
623 1 6.94726 47.9555 7.05743
624 1 9.69764 48.0575 6.97989
625 1 9.75267 48.1494 9.68183
626 1 6.92738 47.923 9.91654
627 1 12.4716 45.2901 6.91586
628 1 12.4646 45.2275 9.83714
629 1 12.376 47.9889 7.06344
630 1 12.5113 48.0103 9.88049
631 1 1.22398 25.647 12.5308
632 1 4.02575 25.5052 12.5982
633 1 6.94481 25.5729 12.5015
634 1 9.69146 25.5483 12.4459
635 1 12.5756 25.4428 12.3737
636 1 1.25128 28.4104 12.3341
637 1 4.09238 28.4516 12.4887
638 1 1.34205 31.1166 12.5858
639 1 4.2568 31.2323 12.4112
640 1 6.84517 28.4395 12.518
641 1 9.57626 28.3851 12.5928
642 1 6.97021 31.2246 12.4662
643 1 9.70657 31.2053 12.4572
644 1 12.4109 28.2707 12.4127
645 1 12.4932 31.2512 12.6603
646 1 1.29124 33.836 12.3562
647 1 4.0826 33.9155 12.5558
648 1 1.41336 36.6838 12.6816
649 1 4.082 36.7182 12.482
650 1 6.87872 33.9115 12.4528
651 1 9.71334 34.0071 12.5098
652 1 6.94122 36.7628 12.4379
653 1 9.72133 36.8684 12.6101
654 1 12.4387 33.9071 12.4465
655 1 12.5342 36.781 12.4952
656 1 1.2628 39.449 12.6621
657 1 4.25772 39.5631 12.65
658 1 1.25063 42.2593 12.8624
659 1 4.04715 42.276 12.8172
660 1 7.02064 39.6329 12.4493
661 1 9.60989 39.5974 12.3938
662 1 6.82534 42.3448 12.6782
663 1 9.6012 42.3803 12.6694
664 1 12.5252 39.59 12.6831
665 1 12.5481 42.3424 12.6847
666 1 1.41718 45.2345 12.5403
667 1 4.12441 45.0568 12.5857
668 1 1.14613 48.0447 12.4771
669 1 4.01795 47.8397 12.7261
670 1 6.94684 45.2386 12.5351
671 1 9.86131 45.1358 12.5009
672 1 6.88451 47.9671 12.6519
673 1 9.82543 48.0151 12.577
674 1 12.7269 45.2218 12.5926
675 1 12.615 48.0137 12.5916
12363 2 11.1114 49.4774 11.3278
89 1 12.6731 28.3186 1.06833
12253 2 2.68386 26.8554 2.56837
12362 2 5.52837 49.4006 11.2224
15281 2 13.8752 46.7236 -0.00133729
180 1 12.6565 25.5438 6.86509
12257 2 8.50574 26.9138 2.62157
12258 2 5.49463 29.6168 2.62952
1004 1 1.05479 50.6939 9.83756
12260 2 11.2857 29.5383 2.61816
12360 2 11.1492 43.7583 11.2424
12373 2 11.1957 35.29 13.9123
12263 2 2.6631 32.4791 2.64211
12359 2 8.38246 46.6362 11.1889
1002 1 3.97573 50.7283 6.96626
15297 2 13.88 26.9435 8.27716
12267 2 8.34894 31.9837 2.77952
12268 2 5.21117 35.3827 3.20586
12345 2 11.1353 26.8607 11.1483
12270 2 11.547 35.385 2.63254
12358 2 5.58161 43.7977 11.2179
12344 2 8.22072 29.7736 11.111
12273 2 2.55344 38.1521 2.64023
12357 2 2.80396 46.5548 11.1676
12343 2 5.48692 27.0478 10.9952
179 1 12.5349 25.7289 3.98237
12277 2 8.37548 38.4352 2.72741
12278 2 5.46562 41.0231 2.82048
485 2 2.17262 35.3357 -0.0567975
12280 2 11.1781 41.1391 2.67981
12355 2 11.1373 38.2632 11.0715
15282 2 13.8461 43.8793 2.85144
12283 2 2.63862 43.8209 2.70016
12354 2 8.26092 41.0859 11.2012
851 1 7.57524 36.4169 0.804173
12342 2 2.68396 29.6154 10.9424
12287 2 8.21972 43.798 2.66963
12288 2 5.4886 46.6434 2.87068
12340 2 11.0591 49.4007 5.68146
12290 2 11.097 46.7389 2.77357
12353 2 5.56697 38.2742 11.1432
12292 2 2.69126 49.3857 2.84183
12262 2 5.32523 35.5168 0.00922265
12294 2 8.28563 49.4681 2.85148
12293 2 5.57063 49.4525 -0.0386168
12339 2 8.32511 49.4721 8.36079
12297 2 2.68723 29.5766 5.45827
12298 2 2.73665 26.8832 8.31077
12338 2 5.45951 49.3032 5.5506
12300 2 5.60338 26.814 5.485
12301 2 8.40581 29.6656 5.60472
12302 2 8.22414 26.8778 8.34149
12303 2 5.47404 29.8012 8.24297
12304 2 11.0641 26.9756 5.46015
12305 2 11.0617 29.7988 8.4256
12352 2 2.66547 40.8534 11.3739
12307 2 2.53066 35.3529 5.57138
12308 2 2.66727 32.4983 8.20346
569 1 12.5626 30.9581 4.12492
12310 2 5.53539 32.4082 5.49126
12311 2 8.39731 35.3713 5.70424
12312 2 8.351 32.5574 8.25497
12313 2 5.5877 35.314 8.33554
12314 2 11.1887 32.3841 5.50636
12315 2 11.2167 35.3617 8.40056
12266 2 8.27335 35.2095 2.54832
12317 2 2.52158 41.047 5.56378
12318 2 2.74044 38.2095 8.39619
12350 2 11.2241 32.5203 11.2632
12320 2 5.29967 38.414 5.53823
12321 2 8.28168 41.0573 5.45149
12322 2 8.29716 38.2963 8.20704
12323 2 5.40357 41.1452 8.48605
12324 2 11.1385 38.2152 5.49178
12325 2 10.9932 40.9753 8.32271
12349 2 8.39422 35.3597 11.1215