ITEM: TIMESTEP
390000
ITEM: NUMBER OF ATOMS
18000
ITEM: BOX BOUNDS xy xz yz pp pp pp
-1.0160259161849951e-01 2.7995602591618848e+01 0.0000000000000000e+00
-1.1630400412590796e+00 3.3589104004129126e+02 0.0000000000000000e+00
-9.5579495571970430e-02 2.7989579495572055e+01 0.0000000000000000e+00
ITEM: ATOMS id type x y z
1 1 1.41978 0.238304 1.26235
2 1 4.2455 0.240807 1.40096
3 1 4.10342 0.0717196 4.20956
4 1 1.29338 0.0412274 4.15635
5 1 1.41527 3.22207 1.28401
6 1 4.24968 2.92655 1.2221
7 1 4.0587 2.99372 3.98265
8 1 1.35064 2.83957 4.1411
9 1 6.99597 3.01097 1.25675
10 1 9.73224 0.272151 1.307
11 1 9.78271 0.194324 4.07631
12 1 6.90597 2.92445 4.05814
13 1 6.96267 5.84952 1.20371
14 1 9.80358 3.06225 1.33381
15 1 9.73594 3.23767 4.14055
16 1 7.14616 5.51089 4.15459
17 1 12.4268 0.216843 1.18648
18 1 12.5678 0.191118 4.06046
19 1 12.6524 3.07514 1.27017
20 1 12.5216 3.02872 4.22127
21 1 1.43171 5.98989 1.2124
22 1 4.23121 5.79316 1.31765
23 1 4.34779 5.83469 4.09767
24 1 1.4653 5.68015 3.92378
25 1 1.25274 8.83819 1.26892
26 1 4.12688 8.5983 1.32871
27 1 4.03827 11.5118 4.05682
28 1 1.37749 8.52047 3.96909
12007 2 8.39575 -1.29688 2.63938
30 1 9.8157 5.87282 1.22711
31 1 10.0109 5.93903 4.17204
32 1 6.56772 8.28778 5.75057
33 1 6.45616 10.213 3.69138
34 1 9.93191 8.60824 1.20647
35 1 8.02556 7.95208 3.52291
36 1 6.46005 11.9159 5.7756
37 1 12.419 5.78038 1.34821
38 1 12.6483 5.72965 4.07422
39 1 12.7426 8.5388 1.29078
40 1 12.6229 8.56494 4.09487
41 1 1.32094 11.6543 1.3678
42 1 4.16854 11.4038 1.3745
43 1 6.92786 14.3415 4.20639
44 1 1.4633 11.3991 4.24229
45 1 1.45467 14.3526 1.43447
46 1 4.31235 14.1988 1.38262
47 1 4.05186 14.3673 4.23211
48 1 1.20979 14.2225 4.14136
49 1 4.03934 8.50091 3.9866
50 1 9.88634 11.5089 1.29045
51 1 10.0223 9.39922 4.46803
52 1 8.78702 11.81 3.88796
53 1 6.97733 17.0701 4.17023
54 1 9.92588 14.3669 1.25794
55 1 12.5177 14.2837 4.01242
56 1 9.8706 14.4217 4.03884
57 1 12.7154 11.317 1.16642
58 1 12.6152 11.3661 3.81376
59 1 12.6907 14.0718 1.21118
12084 2 -0.0396114 18.368 8.32064
61 1 1.43104 17.1225 1.18908
62 1 4.14051 17.08 1.44275
63 1 4.15637 17.1653 4.17656
64 1 1.37152 17.0649 4.05854
65 1 1.27911 19.8235 1.30017
66 1 4.03837 19.8541 1.20594
67 1 4.01147 20.0222 4.0046
68 1 1.22227 19.8657 4.21334
69 1 6.87902 17.0954 1.26886
70 1 9.68552 17.084 1.19947
71 1 12.5869 17.0717 3.9532
72 1 9.71469 17.0851 4.00398
73 1 6.79082 19.8786 1.23992
74 1 9.68147 19.8111 1.19842
75 1 9.84236 19.881 3.98719
76 1 6.98303 19.8127 4.13219
77 1 12.5104 16.9895 1.19317
12071 2 -0.0443696 10.0899 5.36979
79 1 12.4828 19.8689 1.2788
12064 2 0.0467782 7.17074 8.27732
81 1 1.34836 22.4722 1.22786
82 1 4.08687 22.6668 1.25404
83 1 4.34724 22.6657 4.18442
84 1 1.41189 22.5148 4.23481
85 1 7.03124 22.6135 1.42178
86 1 9.77589 22.6255 1.25825
87 1 10.043 22.7142 4.10519
88 1 7.09726 22.5324 4.29264
15111 2 13.9883 12.8004 11.1301
12121 2 -0.048175 21.246 11.2745
91 1 1.44113 0.0593724 6.9267
92 1 4.18438 0.0717092 7.28051
93 1 4.00682 2.68037 9.745
94 1 1.35536 0.195895 9.69767
95 1 1.22779 3.06964 6.98592
96 1 4.17497 2.91556 6.78964
97 1 7.06378 5.89957 9.70446
98 1 1.37604 2.92096 9.74968
99 1 6.89729 3.0349 6.8473
100 1 9.79268 0.276577 6.91037
101 1 9.73919 0.174201 9.71378
102 1 6.89773 2.98005 9.63155
103 1 6.8976 5.77337 6.99856
104 1 9.72372 2.99524 6.79945
105 1 9.75077 2.79359 9.68832
106 1 7.05294 5.62708 12.6021
107 1 12.6872 0.371441 6.88375
108 1 12.6054 0.169895 9.69758
109 1 12.665 3.08805 6.85597
110 1 12.6648 2.98303 9.67227
111 1 1.30375 5.82108 6.81999
112 1 4.12248 5.83589 6.79349
113 1 4.22896 8.45666 9.72182
114 1 1.4161 5.80156 9.64107
115 1 1.40309 8.51464 6.93343
116 1 3.90946 8.62153 6.90623
117 1 6.6537 10.0109 7.58534
118 1 1.4575 8.58442 9.79235
119 1 9.25196 8.49995 7.01806
120 1 9.74758 5.77024 6.9673
121 1 9.86257 5.7052 9.745
122 1 7.08008 8.57787 9.70451
123 1 8.95887 11.5051 7.03755
124 1 12.6687 8.39802 6.85336
125 1 11.1964 10.3262 7.94163
126 2 8.68744 9.97141 8.71855
127 1 12.491 5.71345 6.93301
128 1 12.6144 5.75173 9.64594
15071 2 13.9075 12.9942 5.35815
130 1 12.6586 11.2771 9.89528
131 1 1.21099 11.4118 6.97662
132 1 3.88337 11.4342 6.95275
133 1 4.21622 11.3176 9.77904
134 1 1.50005 11.3607 9.76208
135 1 1.38265 14.254 7.01491
136 1 4.1605 14.1813 6.92923
137 1 4.145 14.1446 9.67875
138 1 1.33615 14.1018 9.90649
139 1 9.89767 14.4724 7.12302
140 1 11.071 12.3355 5.72337
141 1 9.80424 11.5304 10.0152
142 1 7.06812 11.5133 9.85812
143 1 6.97853 14.4108 7.0652
144 1 9.85317 17.013 6.74135
145 1 9.70552 14.2614 9.81475
146 1 6.96305 14.235 9.77813
147 1 12.7429 14.2062 7.11518
148 1 12.4542 14.1758 9.92365
149 1 12.4037 17.0582 7.00576
150 1 12.4779 16.9425 9.63116
151 1 1.22254 17.1748 6.89138
152 1 4.06026 17.0399 6.98346
153 1 4.0194 16.8495 9.7977
154 1 1.30699 16.9985 9.61466
155 1 1.53149 19.8093 7.05155
156 1 4.34472 19.7346 6.84829
157 1 4.28967 19.7432 9.61846
158 1 1.5296 19.8079 9.67183
159 1 6.96828 17.0957 7.03369
160 1 12.7074 22.5472 3.92186
161 1 9.85353 17.0272 9.72386
162 1 6.87313 17.0825 9.88793
163 1 7.0944 19.8554 6.92195
164 1 9.84346 19.6388 6.88779
165 1 9.92634 19.7988 9.82374
166 1 7.19307 19.957 9.84023
241 1 9.87916 8.59396 12.6688
168 1 12.7637 19.9172 9.65529
169 1 12.7455 22.7395 6.86224
170 1 12.6833 22.5683 9.88103
171 1 1.47811 22.6579 6.95716
172 1 4.14992 22.5996 6.99673
173 1 4.2097 22.7668 9.67195
174 1 1.40059 22.6213 9.8234
175 1 7.04792 22.5408 7.00942
176 1 10.1069 22.517 6.98572
177 1 9.72385 22.7002 9.71826
178 1 6.99015 22.6656 9.65984
12024 2 -0.117217 12.8568 2.66376
12150 2 11.2169 23.9978 13.8958
181 1 1.44878 0.198991 12.5408
182 1 4.16842 0.280607 12.0833
183 1 1.39939 2.95886 12.5694
184 1 4.12816 3.02009 12.6601
185 1 6.89539 0.132904 12.609
186 1 9.66854 0.31122 12.4487
187 1 7.00269 2.95744 12.5606
188 1 9.90293 3.17266 12.4702
189 1 12.5638 0.160452 12.4866
190 1 12.6296 2.98877 12.5521
191 1 1.37315 5.83992 12.5385
192 1 4.12162 5.59094 9.95717
193 1 1.4257 8.76791 12.7142
194 1 4.21163 8.55916 12.7019
195 1 4.27475 5.78392 12.753
196 1 9.79519 5.74787 12.3136
197 1 9.82517 8.52954 9.92354
198 1 12.591 8.48083 9.84554
199 1 12.7059 5.69253 12.3703
200 1 12.7901 8.46346 12.6188
201 1 1.46569 11.4637 12.5807
202 1 4.20374 11.4215 12.7003
203 1 1.4074 14.1663 12.6737
204 1 4.09798 14.2594 12.4852
205 1 7.1214 11.2482 12.5943
206 1 9.91798 11.3802 12.6762
207 1 7.01768 14.1409 12.6431
208 1 9.84816 14.2227 12.7113
209 1 12.6156 11.4812 12.5785
210 1 12.7626 14.2494 12.5418
211 1 1.39027 16.9813 12.5201
212 1 4.17199 17.0635 12.4438
213 1 1.37498 19.8742 12.5503
214 1 4.15463 19.8476 12.3877
215 1 7.02251 17.1003 12.5367
216 1 9.8227 16.9621 12.5867
217 1 7.07378 19.9352 12.4963
218 1 9.91509 19.8046 12.5871
219 1 12.6223 17.1207 12.4504
220 1 12.6432 19.7222 12.5229
221 1 1.44047 22.5836 12.5057
222 1 4.17042 22.6545 12.4705
223 1 7.15001 22.7311 12.4622
224 1 9.76301 22.5337 12.6376
225 1 12.6765 22.6226 12.5037
12125 2 11.2328 21.2483 11.1689
12110 2 11.3194 4.43217 11.0595
12111 2 0.0120989 10.046 11.1158
12124 2 8.52454 24.1276 11.2013
80 1 12.6404 22.6869 1.26419
12109 2 8.48571 7.08521 11.0556
12134 2 5.58933 7.1283 14.0323
12008 2 5.66623 1.58278 2.67266
243 1 7.01465 8.4045 12.4019
12010 2 11.1278 1.6473 2.79795
12123 2 5.74131 21.3039 11.2015
12108 2 5.62806 4.47714 11.2239
12013 2 2.93228 4.37065 2.5361
12122 2 2.80721 24.051 11.0619
12107 2 2.84422 7.2035 11.1841
12112 2 2.80771 12.7324 11.2273
12017 2 8.47534 4.41872 2.51292
12018 2 5.69952 7.20171 2.66942
12104 2 8.19253 1.55462 11.0956
12020 2 11.2063 7.2399 2.57857
60 1 12.6073 19.8001 4.11517
12081 2 -0.0361397 15.605 5.57592
12023 2 2.74565 10.0111 2.62575
12120 2 11.0797 15.6228 11.0813
12102 2 2.6227 1.66724 11.191
12113 2 5.69056 9.93127 11.1755
12027 2 8.39583 9.9674 2.29562
12028 2 5.63365 12.7581 2.83832
12100 2 11.3139 24.0461 8.27148
12030 2 11.1624 12.8575 2.74389
12099 2 11.4061 21.1747 5.39814
12098 2 5.57088 23.9955 8.28008
12033 2 2.78916 15.7053 2.80876
412 1 7.15028 14.2831 1.36112
12097 2 8.52928 21.2365 8.37435
12096 2 8.52769 23.8677 5.6922
12037 2 8.46936 15.6006 2.8014
12038 2 5.61083 18.4332 2.70418
12095 2 5.67317 21.0953 5.46042
12040 2 11.1571 18.4349 2.57539
29 1 6.91671 8.63486 1.06401
12093 2 2.89809 21.0951 8.3803
12043 2 2.63503 21.1915 2.74016
5723 1 6.96046 0.339493 6.82422
12092 2 2.90871 23.8849 5.50601
5634 1 7.14717 0.227549 1.28972
12047 2 8.43463 21.1592 2.65185
12048 2 5.66928 23.966 2.66897
12090 2 11.2286 18.4449 8.37658
12050 2 11.2602 24.0047 2.59008
12119 2 8.42392 18.4795 11.0813
12052 2 2.63541 1.44299 5.46727
12004 2 -0.0421124 1.57955 2.73267
12118 2 5.46243 15.5465 11.1238
5633 1 7.00705 0.025557 4.08702
12056 2 8.40937 1.62673 5.42071
5726 1 6.77017 0.143982 9.61588
12058 2 5.71737 1.65 8.14775
12116 2 0.091433 15.5764 11.243
12060 2 11.2027 1.5943 8.30761
12117 2 2.76888 18.336 11.0518
12062 2 2.63217 7.10491 5.42023
12063 2 2.6189 4.34826 8.19895
12089 2 11.3279 15.5706 5.50063
12065 2 5.59662 4.42081 5.46255
12066 2 8.40667 6.82221 5.45004
12067 2 8.36505 4.40946 8.31735
12068 2 5.52414 7.35195 8.15341
12069 2 11.2763 4.33616 5.50344
12070 2 11.1904 7.21442 8.32739
12115 2 11.3194 9.97152 11.1963
12072 2 2.77821 12.9988 5.61038
12073 2 2.68747 9.8973 8.33602
12114 2 8.43292 12.8673 11.2532
12075 2 5.00099 10.0472 5.5512
12076 2 8.52784 13.3054 5.6234
12077 2 8.05956 10.0773 5.46061
12078 2 5.59781 12.5226 8.24703
12079 2 11.75 10.177 5.6328
12080 2 11.1468 12.6359 8.22409
395 1 7.05386 11.4564 1.32276
12082 2 2.8396 18.4584 5.62921
12083 2 2.72624 15.5178 8.31604
15081 2 13.7014 18.2741 5.51719
12085 2 5.63568 15.5864 5.60437
12086 2 8.45969 18.3171 5.54471
12087 2 8.36295 15.6769 8.50154
12088 2 5.56101 18.3642 8.29188
167 1 12.5656 19.8259 6.8875
12034 2 -0.093738 18.3358 2.66233
12002 2 2.81361 1.49556 -0.135309
129 1 13.6409 11.2661 6.71605
12148 2 8.41016 21.2847 13.8845
12094 2 0.038544 23.8784 8.40014
12136 2 2.89774 9.99466 14.0738
12061 2 -0.0789433 4.39605 5.43996
12014 2 -0.0135009 7.17189 2.63389
12019 2 11.3607 4.34571 -0.204392
12044 2 -0.131204 24.0393 2.63708
12147 2 -0.0316998 23.901 14.0745
15072 2 13.9377 9.81969 8.49265
12142 2 0.0588556 18.4029 13.9065
12074 2 -0.0671991 12.7375 8.39498
12039 2 11.2995 15.5948 -0.296715
12032 2 2.54826 18.3643 -0.172046
12046 2 8.45825 24.0227 -0.167473
12129 2 5.53147 1.57034 13.9754
12035 2 5.52538 15.6441 -0.0398621
12011 2 0.0310664 4.42983 -0.181324
12145 2 11.2077 18.3322 13.858
226 1 4.2401 0.0669233 15.2584
227 1 1.3638 0.186523 15.4086
228 1 4.21745 2.94108 15.6461
229 1 1.51888 2.84968 15.3348
230 1 9.86565 0.23664 15.1629
231 1 6.95013 0.205126 15.32
232 1 9.88423 3.01881 15.2654
233 1 7.0265 2.95985 15.3377
234 1 12.657 0.18122 15.2603
235 1 12.7875 3.17999 15.3347
236 1 4.14232 5.6421 15.4917
237 1 1.27788 5.74918 15.3481
238 1 4.26801 8.55283 15.5072
239 1 1.4357 8.61074 15.4081
240 1 9.86789 5.82413 15.3794
12171 2 -0.0287974 9.89841 16.8672
242 1 9.86876 8.62343 15.5208
5993 1 7.0437 -0.00218806 23.7727
244 1 12.6544 5.90426 15.2038
245 1 12.7097 8.56323 15.4824
246 1 4.33706 11.2284 15.389
247 1 1.42075 11.6086 15.3807
248 1 4.23075 14.0535 15.4158
249 1 1.24975 14.2823 15.4266
250 1 9.95902 11.4441 15.448
251 1 7.02138 11.3682 15.3373
252 1 9.90183 14.3302 15.5396
253 1 7.05674 14.1186 15.387
254 1 12.702 11.3541 15.3466
255 1 12.6504 14.1078 15.4674
256 1 4.11688 16.9052 15.3944
257 1 1.3157 16.9475 15.3492
258 1 4.08072 19.716 15.2435
259 1 1.40092 19.7258 15.2531
260 1 9.85694 17.0978 15.417
261 1 7.06796 16.8914 15.4354
262 1 9.77527 19.8543 15.2692
263 1 7.10198 19.7304 15.2774
264 1 12.7067 16.9886 15.2916
265 1 12.6454 19.6017 15.3742
266 1 4.21538 22.5063 15.3846
267 1 1.56797 22.5433 15.2131
268 1 9.74398 22.7421 15.4163
269 1 6.85819 22.5176 15.3652
270 1 12.5236 22.5486 15.1907
271 1 1.43988 -0.00320387 18.2454
272 1 4.30926 0.0537736 18.1029
273 1 4.31445 0.127952 21.077
274 1 1.54666 0.148674 21.039
275 1 1.18773 2.93922 18.1182
276 1 4.03456 2.8672 18.2537
277 1 4.08576 3.0392 20.9428
278 1 1.29198 2.83709 20.8832
279 1 7.02536 2.9019 18.1004
280 1 9.73847 0.131947 17.9822
281 1 9.87631 0.161785 20.7706
282 1 6.97337 2.95769 20.8369
283 1 7.03681 5.85193 18.0316
284 1 9.92428 2.92636 18.1644
285 1 9.79348 2.96554 20.8748
286 1 7.01155 5.82474 23.6912
287 1 12.7407 0.259031 18.0653
288 1 12.572 0.145795 20.8097
289 1 12.6892 2.95595 18.1763
290 1 12.7376 3.01843 20.9931
291 1 1.31181 5.70794 18.0917
292 1 4.13171 5.66988 18.215
293 1 4.19501 5.68842 21.0283
294 1 1.29875 5.60749 20.7818
295 1 1.45137 8.47096 18.2372
296 1 4.25294 8.50113 18.2634
297 1 4.24011 8.43187 21.0265
298 1 1.43618 8.34876 21.0326
299 1 7.05211 5.7704 15.3521
300 1 9.84931 5.71966 18.0709
301 1 9.79487 5.84956 20.9695
302 1 6.99719 5.62829 20.8564
303 1 7.00157 8.64363 15.2842
304 1 9.82041 8.63218 18.3536
305 1 9.76369 8.53794 21.048
306 1 7.09813 8.45743 18.1366
307 1 12.7911 5.7235 18.1764
308 1 12.6715 5.77577 20.9029
309 1 12.6133 8.49995 18.132
310 1 12.4849 8.60258 21.0035
311 1 1.33286 11.3016 18.1593
312 1 4.15846 11.3804 18.1827
313 1 4.22149 11.3453 20.9272
314 1 1.39996 11.3616 21.073
315 1 1.36973 14.0946 18.1935
316 1 4.1781 14.2135 18.1368
317 1 4.10097 14.0961 20.955
318 1 1.29271 14.0873 20.9951
319 1 6.93403 11.284 18.2167
320 1 9.84497 11.3962 18.0435
321 1 9.79059 11.2807 20.8645
322 1 6.98651 11.5 21.0516
323 1 7.09102 14.185 18.2547
324 1 9.77171 14.2495 18.1873
325 1 9.90515 14.2249 20.9047
326 1 7.04985 14.3152 20.9778
327 1 12.6416 11.4255 18.2478
328 1 12.6846 11.473 21.0388
329 1 12.5154 14.2462 18.3032
330 1 12.717 14.2949 21.0831
331 1 1.4152 17.0249 18.2302
332 1 4.18338 16.9969 18.1402
333 1 4.39111 16.8347 20.8716
334 1 1.50095 17.0141 21.0999
335 1 1.23123 19.82 18.0283
336 1 4.11291 19.8157 18.1752
337 1 4.15493 19.7195 20.954
338 1 1.42321 19.8708 20.9127
339 1 7.16113 16.9898 18.0983
340 1 9.95629 17.1232 18.1897
341 1 9.85543 17.105 21.0378
342 1 7.09961 17.0676 20.8686
343 1 6.93584 19.7119 18.0964
344 1 9.81053 19.9035 18.0098
345 1 9.72443 19.9259 21.0083
346 1 6.91908 19.7203 20.9638
347 1 12.6402 17.0483 18.1453
348 1 12.6481 17.0403 20.9653
349 1 12.5745 19.8769 18.1129
350 1 12.7588 19.8669 20.9653
351 1 1.2598 22.4991 18.1303
352 1 4.19726 22.6506 18.1596
353 1 4.16355 22.5924 21.0102
354 1 1.37056 22.5661 20.8725
355 1 6.96657 22.4342 18.0803
356 1 9.84199 22.5875 18.1994
357 1 9.65075 22.4908 20.9466
358 1 6.91034 22.5724 20.9056
359 1 12.6388 22.6666 17.9081
360 1 12.5672 22.5936 20.7717
361 1 1.30306 0.218211 23.7022
362 1 4.13364 0.14124 23.9124
363 1 4.25803 0.111569 26.6596
364 1 1.38886 0.246163 26.716
365 1 1.5006 3.06509 23.6425
366 1 4.23052 2.86327 23.8369
367 1 4.16859 2.86661 26.5174
368 1 1.37932 2.9689 26.4219
369 1 7.03989 2.87935 23.7512
370 1 9.78612 0.162092 23.5533
371 1 9.84962 0.318833 26.3506
372 1 7.02696 2.81435 26.6003
373 1 7.08779 5.74696 26.5123
374 1 9.80686 2.99481 23.6387
375 1 9.77069 2.9596 26.3505
376 1 10.0009 5.62987 26.4836
377 1 12.5177 0.293146 23.6822
378 1 12.5835 0.235901 26.45
379 1 12.6311 2.94757 23.7283
380 1 12.5451 3.14639 26.3551
381 1 1.33588 5.74574 23.5274
382 1 4.27454 5.64309 23.7889
383 1 4.18041 5.68097 26.6277
384 1 1.32586 5.73522 26.3133
385 1 1.51906 8.50933 23.7164
386 1 4.38506 8.52694 23.9283
387 1 4.22582 8.60308 26.6589
388 1 1.39245 8.49074 26.4608
389 1 7.06051 8.56235 23.8023
390 1 9.8181 5.83012 23.7166
391 1 9.83182 8.43985 26.4561
392 1 6.88458 8.66106 26.5584
393 1 6.95985 8.49972 21.0132
394 1 9.83745 8.67531 23.6993
15001 2 13.9831 1.53278 27.8789
396 1 7.1172 11.5473 26.7016
397 1 12.6289 5.77409 23.6747
398 1 12.6627 5.83281 26.6363
399 1 12.738 8.54405 23.8297
400 1 12.9056 8.62334 26.7662
401 1 1.48957 11.3276 23.7818
402 1 4.27457 11.3556 23.7798
403 1 4.38074 11.4407 26.6867
404 1 1.46694 11.3924 26.7469
405 1 1.31053 14.2136 23.9484
406 1 4.14446 14.2233 23.8115
407 1 4.14854 14.2248 26.5532
408 1 1.46387 14.1636 26.6337
409 1 7.08121 11.4198 23.7811
410 1 9.80655 11.4189 23.6936
411 1 9.93398 11.3149 26.4845
12191 2 -0.140117 21.0803 16.6169
413 1 6.89389 14.3593 23.8331
414 1 9.68655 14.1714 23.6278
415 1 9.77334 14.0692 26.3977
416 1 6.9879 14.3732 26.7063
417 1 12.6951 11.3664 23.7287
418 1 12.7331 11.5064 26.4456
419 1 12.5115 14.3789 23.7788
420 1 12.5551 14.1763 26.41
421 1 1.46466 16.8722 23.9055
422 1 4.20107 16.9883 23.7754
423 1 4.1105 17.0004 26.6173
424 1 1.31139 16.9277 26.523
425 1 1.39896 19.7452 23.7295
426 1 4.24249 19.6992 23.682
427 1 4.17666 19.8055 26.4772
428 1 1.34297 19.7066 26.5069
429 1 7.01144 17.0684 23.6702
430 1 9.87639 16.9863 23.6427
431 1 9.7507 16.911 26.5365
432 1 6.93655 17.1111 26.5376
433 1 7.1633 19.5998 23.8462
434 1 9.85402 19.8545 23.8085
435 1 9.77896 19.8126 26.5674
436 1 6.97829 19.8818 26.5825
437 1 12.8099 17.1434 23.6694
438 1 12.5706 17.0522 26.5085
439 1 12.5004 19.8893 23.7705
440 1 12.6629 19.8573 26.5495
441 1 1.37418 22.4874 23.679
442 1 4.26639 22.5135 23.6922
443 1 4.12209 22.6321 26.5426
444 1 1.36451 22.4681 26.4412
445 1 7.06566 22.5185 23.7524
446 1 9.81428 22.7486 23.7281
447 1 9.80208 22.5492 26.5142
448 1 6.81652 22.7057 26.6621
449 1 12.601 22.631 23.5714
450 1 12.5574 22.6324 26.6136
12135 2 11.1494 7.18635 13.9855
12250 2 11.1961 23.9543 25.0943
12022 2 2.82579 12.8672 28.0306
12041 2 -0.147612 21.1615 27.9583
5906 1 7.15762 0.131806 20.9325
12204 2 -0.026852 1.47792 25.2694
12249 2 11.2026 21.2435 22.238
12194 2 -0.0508965 23.858 19.4703
12205 2 5.6187 -1.36562 22.4511
12045 2 5.40276 21.1931 27.9287
12016 2 8.40981 7.25095 27.9461
12248 2 5.62209 24.0287 25.0935
12154 2 -0.108821 1.45692 19.6546
12036 2 8.23409 18.4175 27.9169
12161 2 -0.10068 4.37947 16.7254
12234 2 0.0272534 18.3654 25.0876
12214 2 -0.0209891 7.15329 24.9776
12042 2 2.73288 23.9433 27.8846
12220 2 11.3107 7.09417 25.1123
12211 2 0.0329537 4.30984 22.2693
12232 2 2.85496 18.2829 22.3937
12216 2 8.34274 7.1211 22.4574
5903 1 7.04152 0.0741463 18.0584
12219 2 11.2243 4.39284 22.3671
12218 2 5.57093 7.16179 25.2111
12247 2 8.40474 21.1128 25.1664
12152 2 2.74693 1.47979 16.8286
12227 2 8.43285 9.96101 25.1163
12246 2 8.38766 23.8967 22.2256
12230 2 11.1693 12.6661 25.0961
12156 2 8.46292 1.39148 16.6701
12229 2 11.1533 9.9734 22.3407
12158 2 5.58112 1.47996 19.4679
12217 2 8.52253 4.3323 25.1054
12160 2 11.2704 1.50305 19.4553
12245 2 5.63187 21.1262 22.3712
12162 2 2.75887 7.07432 16.8649
12163 2 2.74667 4.31252 19.5546
12228 2 5.59058 12.7621 25.255
12165 2 5.64757 4.25758 16.7388
12166 2 8.47081 7.14776 16.8012
12167 2 8.50903 4.37468 19.5166
12168 2 5.65302 7.08357 19.5959
12169 2 11.26 4.40438 16.6161
12170 2 11.1782 7.02618 19.5995
12243 2 2.74362 21.0915 25.1043
12172 2 2.72304 12.6733 16.874
12173 2 2.82063 9.96459 19.5749
12242 2 2.7962 23.9044 22.3318
12175 2 5.66333 9.88638 16.8725
12176 2 8.48834 12.8316 16.6866
12177 2 8.32468 9.90124 19.6052
12178 2 5.72655 12.8972 19.5763
12179 2 11.2395 9.96427 16.8858
12180 2 11.2303 12.7174 19.5484
12236 2 8.47258 18.3679 22.3976
12182 2 2.71502 18.3281 16.788
12183 2 2.83671 15.5337 19.4468
12223 2 2.92636 9.89859 25.1229
12185 2 5.64748 15.5313 16.7508
12186 2 8.43447 18.3625 16.7839
12187 2 8.61524 15.7055 19.5021
12188 2 5.52831 18.3841 19.571
12189 2 11.2834 15.6803 16.851
12190 2 11.2636 18.4417 19.5777
12226 2 8.48493 12.8583 22.2605
12192 2 2.81401 23.955 16.7288
12193 2 2.76018 21.1876 19.5154
12225 2 5.65799 9.94995 22.2861
12195 2 5.56093 21.0605 16.7685
12196 2 8.37674 23.9548 16.7792
12197 2 8.46724 21.094 19.3977
12198 2 5.56452 23.9606 19.5532
12199 2 11.1161 21.0828 16.5741
12200 2 11.2641 24.0152 19.4708
12240 2 11.2362 18.3948 25.2083
12202 2 2.87859 1.55238 22.4463
5996 1 7.09671 0.124877 26.6318
12239 2 11.2198 15.6476 22.415
12222 2 2.88 12.7969 22.4849
12206 2 8.39442 1.51472 22.1478
12235 2 5.642 15.5996 22.2829
12208 2 5.65479 1.49695 25.1472
12233 2 2.84794 15.5467 25.2697
12210 2 11.1902 1.56625 25.0274
12238 2 5.53279 18.2734 25.2094
12212 2 2.90534 6.97986 22.2947
12213 2 2.75094 4.37083 25.1453
12237 2 8.41031 15.6154 25.0774
12215 2 5.63186 4.26614 22.2536
12164 2 0.0324351 7.14478 19.5877
12231 2 -0.0154675 15.5357 22.2949
15232 2 14.0859 15.7094 25.149
12130 2 11.2993 1.55788 13.821
12049 2 11.1436 21.1867 27.9206
12181 2 -0.129888 15.5061 16.8141
12026 2 8.49729 12.9043 28.1001
12221 2 0.0856358 9.92633 22.3793
12029 2 11.3437 9.93462 27.9245
12143 2 8.44831 15.7488 14.0157
12244 2 -0.0329855 23.8191 25.1436
12241 2 -0.0383452 21.135 22.4443
12184 2 0.00614626 18.4933 19.5075
12138 2 8.51271 9.90595 13.998
12144 2 5.49017 18.3326 13.9397
12025 2 5.53007 10.1402 28.1203
12140 2 11.3146 12.727 13.997
12006 2 8.51192 1.53062 27.9366
12137 2 0.0144408 12.7519 13.8785
12141 2 2.74103 15.5002 14.0183
12139 2 5.64522 12.7581 14.0714
12133 2 8.46272 4.44762 13.8904
12131 2 2.78895 4.30064 14.0734
12015 2 5.6616 4.33096 27.8901
12012 2 2.83138 7.12499 27.8879
12146 2 2.91972 21.1542 13.8203
12132 2 0.0818192 7.18394 13.8871
12149 2 5.55957 23.8793 13.9054
451 1 1.32502 25.4017 1.11592
452 1 4.0758 25.5656 1.09963
453 1 4.10079 25.4096 4.08243
454 1 1.21867 25.4212 3.82496
455 1 7.05286 25.3967 1.20465
456 1 9.88263 25.3695 1.22617
457 1 9.91015 25.5365 4.05402
458 1 6.98894 25.4703 4.1694
459 1 12.6061 31.0017 1.30292
460 1 12.5147 28.2687 4.16932
461 1 1.31722 28.172 1.24467
462 1 4.18114 28.3376 1.12017
463 1 4.28276 28.1697 4.08254
464 1 1.53448 28.2794 4.00621
465 1 1.25715 30.8781 1.13184
466 1 4.12823 31.0287 1.24043
467 1 4.17774 31.1098 3.98215
468 1 1.44451 31.0441 3.98105
469 1 7.0525 28.1777 1.07703
470 1 9.8967 28.0894 1.37881
471 1 9.8075 28.3125 4.06176
472 1 7.06518 28.3359 4.01796
473 1 6.94236 30.7886 1.03163
15282 2 14.0105 43.8077 2.68826
475 1 9.73047 31.1516 4.05274
476 1 6.95725 31.1543 4.01249
477 1 9.88693 30.9358 1.19579
478 1 9.46084 33.9057 1.41476
903 1 4.1817 50.6028 4.02947
12351 2 -0.233619 37.9238 11.1009
481 1 1.01208 33.6458 1.21329
482 1 3.97952 33.7733 0.787208
483 1 3.91768 33.7399 4.27868
484 1 1.08191 33.8382 4.12382
918 1 12.5792 50.7352 4.26688
486 1 2.80178 35.3075 2.41447
487 1 3.97232 36.8454 4.34721
488 1 1.16026 36.7276 4.04143
489 1 6.4187 33.5923 2.22348
847 1 1.10752 36.775 1.23554
491 1 9.59882 33.9852 4.0411
492 1 6.85638 34.4413 4.47509
493 1 4.37651 36.7062 1.20913
494 1 9.78616 36.5001 1.40532
495 1 9.46685 36.5452 4.09738
496 1 6.67427 36.8843 3.47545
497 1 12.4517 33.9117 1.37668
498 1 12.4675 33.9559 4.18627
499 1 12.4339 36.6841 1.26438
500 1 12.4091 36.703 4.09371
501 1 1.21894 39.5423 1.32453
502 1 4.07084 39.3308 1.47556
503 1 4.10772 39.5899 4.23227
504 1 1.28351 39.5532 3.9696
505 1 1.1812 42.4523 1.43569
506 1 4.03027 42.2445 1.24226
507 1 4.1059 42.4979 4.14007
508 1 1.14175 42.2602 4.13107
509 1 6.81021 39.5492 1.37483
510 1 9.71375 39.4357 1.15357
511 1 9.90525 39.3475 3.85446
512 1 7.10046 39.6847 4.20766
513 1 6.9022 42.321 1.29118
514 1 9.77266 42.4112 1.38186
515 1 9.86002 42.2783 4.04518
516 1 7.06601 42.5455 4.14602
517 1 12.4447 39.4816 1.22192
518 1 12.5059 39.3964 4.04851
519 1 12.5556 42.3256 1.25135
520 1 12.7792 42.329 4.10847
521 1 1.29498 45.0584 1.24941
522 1 4.06513 45.2277 1.29393
523 1 4.02889 45.2168 4.06514
524 1 1.25505 45.1165 3.89384
525 1 1.27951 47.8391 1.32543
526 1 4.23884 47.7775 1.26607
527 1 4.18265 47.8715 4.11439
528 1 1.41932 47.9923 4.17995
529 1 6.93038 45.1574 1.26961
530 1 9.7504 45.1698 1.35576
531 1 9.72364 44.9537 4.12625
532 1 6.80453 45.158 4.22023
533 1 6.88666 48.0077 1.25099
534 1 9.58641 47.9261 1.27137
535 1 9.7163 47.9544 4.19284
536 1 6.92767 47.9062 4.07233
537 1 12.5001 45.1145 1.24183
538 1 12.4416 44.9549 4.07444
539 1 12.402 47.8771 1.17549
540 1 12.4374 47.9602 4.10138
541 1 1.44461 25.4383 6.78841
542 1 4.28919 25.4907 6.97306
543 1 4.22986 25.4791 9.75339
544 1 1.33883 25.3693 9.57359
545 1 6.99555 25.4587 7.00636
546 1 9.90619 25.3167 6.9768
547 1 9.83315 25.492 9.73965
548 1 7.07935 25.5625 9.7732
549 1 12.6674 28.3123 6.92136
550 1 12.6728 25.2805 9.61874
551 1 1.5067 28.3814 6.84126
552 1 4.18196 28.2837 6.99852
553 1 4.09839 28.2898 9.73381
554 1 1.3336 28.3035 9.85473
555 1 1.20752 31.0701 6.85527
556 1 4.15265 31.1422 6.80254
557 1 4.14211 31.0568 9.60925
558 1 1.31856 31.1775 9.66118
559 1 6.94173 28.4476 6.74684
560 1 9.9416 28.1273 6.95817
561 1 9.95104 28.2883 9.75365
562 1 7.10181 28.3827 9.64855
563 1 6.9871 31.113 6.83254
564 1 9.70635 30.9321 6.82031
565 1 9.87814 31.2234 9.6914
566 1 6.98217 31.0782 9.71823
567 1 12.3337 31.0523 7.01888
568 1 12.6044 28.123 9.66701
90 1 12.787 25.4259 1.09828
570 1 12.5891 31.0272 9.73899
571 1 1.29283 33.9254 6.90374
572 1 4.15264 34.0412 6.95155
573 1 4.14386 33.8081 9.53101
574 1 1.41095 33.8736 9.60883
575 1 1.21034 36.6232 6.85073
576 1 4.0768 36.8034 6.96461
577 1 4.27061 36.7393 9.64325
578 1 1.20648 36.5077 9.68017
579 1 6.9392 33.893 7.03328
580 1 9.77379 33.9304 7.03961
581 1 9.76255 34.1846 9.68058
582 1 7.01366 33.8745 9.55936
583 1 6.90029 36.7892 6.82749
584 1 9.90591 36.8093 6.97857
585 1 9.73806 36.8085 9.74253
586 1 6.82577 36.7119 9.67268
587 1 12.5049 33.9492 6.96796
588 1 12.6348 33.8843 9.84532
589 1 12.5412 36.7665 6.78509
590 1 12.5767 36.7845 9.85363
591 1 1.23114 39.4497 6.89072
592 1 4.05613 39.5992 6.98849
593 1 4.02478 39.5239 9.77382
594 1 1.22841 39.3796 9.66287
595 1 1.20835 42.3238 7.04876
596 1 3.9932 42.4066 6.87307
597 1 4.16017 42.3695 9.70324
598 1 1.32731 42.2935 9.77799
599 1 6.76709 39.4871 6.81703
600 1 9.6962 39.6494 6.95452
601 1 9.75099 39.5591 9.77132
602 1 6.78087 39.5403 9.68628
603 1 6.81297 42.2672 6.99799
604 1 9.7638 42.464 6.90456
605 1 9.67252 42.3657 9.66041
606 1 7.03728 42.3361 9.74859
607 1 12.4809 39.5538 6.85891
608 1 12.5796 39.5899 9.82277
609 1 12.5086 42.2819 6.9857
610 1 12.4694 42.4068 9.76414
611 1 1.40626 45.1969 6.88
612 1 4.11982 45.2189 7.083
613 1 4.02023 45.2182 9.82911
614 1 1.32745 45.0885 9.66027
615 1 1.06048 47.9026 7.00186
616 1 4.05268 47.9797 7.08054
617 1 4.14718 47.9618 9.77485
618 1 1.38824 47.7902 9.92046
619 1 6.89394 45.1507 7.00021
620 1 9.72224 45.1894 6.9131
621 1 9.62495 45.3487 9.78074
622 1 6.79437 45.1438 9.73614
623 1 6.74091 48.0281 6.96462
624 1 9.58973 48.0586 6.83421
625 1 9.65862 48.1157 9.86872
626 1 6.89621 48.023 9.90208
627 1 12.5374 45.1877 6.97901
628 1 12.5041 45.1882 9.79304
629 1 12.4467 47.8652 7.04912
630 1 12.5597 47.8963 9.65942
631 1 1.34123 25.4029 12.3312
632 1 4.11916 25.4514 12.4373
633 1 6.98951 25.4742 12.5382
634 1 9.86225 25.5113 12.3551
635 1 12.6623 25.4605 12.4178
636 1 1.3497 28.2692 12.5778
637 1 4.24947 28.3045 12.5361
638 1 1.40443 31.0359 12.5752
639 1 4.2744 31.1534 12.4376
640 1 7.03976 28.1538 12.3879
641 1 9.96365 28.4613 12.4333
642 1 7.0174 31.0205 12.5505
643 1 9.78425 31.2126 12.5067
644 1 12.7644 28.3958 12.4569
645 1 12.4383 31.1354 12.5673
646 1 1.25253 33.9071 12.4143
647 1 4.17423 33.8982 12.427
648 1 1.2699 36.7739 12.3158
649 1 4.03488 36.703 12.4387
650 1 6.95334 33.8161 12.3647
651 1 9.73608 33.9109 12.5352
652 1 6.77248 36.7877 12.3656
653 1 9.69679 36.7347 12.4912
654 1 12.494 34.0378 12.5211
655 1 12.5998 36.6753 12.7088
656 1 1.24317 39.4787 12.4873
657 1 4.02551 39.4892 12.5073
658 1 1.44166 42.1433 12.5463
659 1 4.09901 42.2071 12.5098
660 1 7.0033 39.5658 12.4255
661 1 9.71883 39.6547 12.4926
662 1 6.91278 42.3946 12.5423
663 1 9.79404 42.2589 12.5639
664 1 12.4681 39.4396 12.6463
665 1 12.582 42.3681 12.4384
666 1 1.27479 45.0857 12.561
667 1 3.9746 45.0095 12.5466
668 1 1.48487 47.8907 12.645
669 1 4.14281 47.9361 12.5217
670 1 6.74115 45.1408 12.6513
671 1 9.67488 45.0475 12.5567
672 1 6.85779 47.8849 12.5782
673 1 9.67135 47.9246 12.534
674 1 12.5125 45.1832 12.4919
675 1 12.3863 47.8363 12.5552
12363 2 11.1518 49.3343 11.1623
89 1 12.6081 28.1848 1.24381
12253 2 2.74278 26.7443 2.57047
12362 2 5.5057 49.4736 11.1479
12364 2 2.67228 26.7423 13.9785
180 1 12.6378 25.5709 6.8377
12257 2 8.35851 26.8948 2.6635
12258 2 5.54193 29.6316 2.69095
12326 2 -0.222765 43.8489 5.38674
12260 2 11.2206 29.7 2.7076
12360 2 11.0937 43.8014 11.1338
12371 2 8.35385 32.5742 13.912
12263 2 2.57392 32.5025 2.72918
12359 2 8.27075 46.5216 11.3158
904 1 1.33852 50.65 4.08697
15317 2 14.0406 38.0512 8.45286
12267 2 8.25373 32.0531 2.30148
12268 2 4.84554 35.3224 3.06628
12345 2 11.3274 26.7776 11.0631
12270 2 11.2699 35.278 2.80931
12358 2 5.43224 43.7118 11.0885
12344 2 8.49206 29.6369 11.1518
12273 2 2.60275 37.9317 2.64105
12357 2 2.78034 46.5085 11.1942
12343 2 5.6462 26.8471 11.0752
179 1 12.7457 25.5059 3.94231
12277 2 8.26949 38.3918 2.66577
12278 2 5.4879 41.0355 2.84739
15378 2 13.9648 43.8209 13.9145
12280 2 11.1466 41.0399 2.72794
12355 2 11.1867 38.0381 11.3099
917 1 12.5248 50.6658 1.42086
12283 2 2.63479 43.7372 2.62115
12354 2 8.36002 41.0237 11.0469
851 1 7.06569 36.1897 1.02219
12342 2 2.86666 29.7078 11.132
12287 2 8.26146 43.8253 2.80719
12288 2 5.50071 46.4703 2.81396
12340 2 11.0566 49.3907 5.55319
12290 2 11.1677 46.5141 2.66632
12353 2 5.51115 38.1563 11.1138
12292 2 2.75969 49.3453 2.66809
12282 2 2.62829 46.521 -0.130516
12294 2 8.41886 49.3001 2.74797
12378 2 11.1138 40.9317 13.8677
12339 2 8.13825 49.4348 8.43486
12297 2 2.91262 29.693 5.4328
12298 2 2.77227 26.7 8.44203
12338 2 5.57759 49.4656 5.49921
12300 2 5.64646 26.7419 5.57503
12301 2 8.35279 29.7131 5.42313
12302 2 8.58979 26.8306 8.27232
12303 2 5.53559 29.6788 8.32152
12304 2 11.2304 26.7694 5.47932
12305 2 11.2396 29.602 8.3609
12352 2 2.72868 40.8201 11.1531
12307 2 2.55712 35.3185 5.50457
12308 2 2.6816 32.5348 8.1992
569 1 12.6322 31.1853 4.11461
12310 2 5.60383 32.4967 5.48538
12311 2 8.48306 35.3751 5.94162
12312 2 8.26627 32.4444 8.23951
12313 2 5.60628 35.3816 8.25608
12314 2 11.1036 32.4275 5.53342
12315 2 11.385 35.3126 8.42683
12266 2 8.15634 35.1462 2.77093
12317 2 2.55965 41.0704 5.53097
12318 2 2.67714 38.1133 8.32653
12350 2 11.2606 32.5531 11.1529
12320 2 5.34881 38.3161 5.49284
12321 2 8.26019 41.1382 5.6675
12322 2 8.2793 38.2419 8.35817
12323 2 5.39551 40.9892 8.3527