ITEM: TIMESTEP
190000
ITEM: NUMBER OF ATOMS
18000
ITEM: BOX BOUNDS xy xz yz pp pp pp
-9.8618350633679963e-02 2.7992618350634455e+01 0.0000000000000000e+00
-1.1315917526316526e+00 3.3585959175266169e+02 0.0000000000000000e+00
-1.0501262614122520e-01 2.7999012626141347e+01 0.0000000000000000e+00
ITEM: ATOMS id type x y z
1 1 1.47983 0.210381 1.27555
2 1 4.24914 0.175354 1.38803
3 1 4.1658 -0.00032076 4.24371
4 1 1.4734 0.182578 4.03276
5 1 1.36382 3.00389 1.1715
6 1 4.19498 2.94061 1.08493
7 1 4.24258 2.98945 3.93633
8 1 1.27126 2.94925 4.04
9 1 6.97543 2.97925 1.24548
10 1 9.76965 0.06991 1.35634
11 1 10.0315 0.181383 4.09878
12 1 7.01428 2.95821 4.11298
13 1 7.11177 5.6171 1.13385
14 1 9.83545 2.78953 1.17434
15 1 9.91922 2.97331 4.03946
16 1 6.89204 5.57812 3.95164
17 1 12.6329 0.0261271 1.23528
18 1 12.6312 0.0770091 4.15906
19 1 12.782 2.86871 1.19544
20 1 12.6992 3.02673 3.98316
21 1 1.38107 5.91102 1.24063
22 1 4.27471 5.71715 1.20304
23 1 4.10953 5.74595 3.9943
24 1 1.11598 5.86988 4.0188
25 1 1.51857 8.59329 1.16745
26 1 4.2967 8.50929 1.4129
27 1 3.93274 11.3985 4.07846
28 1 1.13319 8.85684 3.79382
15032 2 13.8845 15.6135 2.53423
30 1 9.85137 5.70066 1.30641
31 1 10.0074 5.65498 4.15374
32 1 6.60136 8.13395 5.39701
33 1 6.49063 10.105 3.39102
34 1 9.89549 8.45552 1.05066
35 1 8.17036 7.77067 3.3758
36 1 6.54301 11.7096 5.48823
37 1 12.6756 5.72058 1.18621
38 1 12.5589 5.74127 4.06657
39 1 12.6364 8.57446 1.25726
40 1 12.6859 8.5767 3.99698
41 1 1.49609 11.314 1.15562
42 1 4.32885 11.3735 1.3043
43 1 7.09018 14.2296 3.99672
44 1 1.11962 11.6157 4.192
45 1 1.35842 14.3049 1.23695
46 1 4.21911 14.1758 1.24613
47 1 4.26801 14.2122 4.0013
48 1 1.40958 14.1687 4.01615
49 1 3.90943 8.39526 4.14271
50 1 9.94533 11.4231 1.17545
51 1 9.98598 9.0656 4.37394
52 1 8.80775 11.6166 3.73121
53 1 6.92347 17.1095 4.1028
54 1 9.96681 14.3274 1.08579
55 1 12.6121 14.2686 3.9539
56 1 9.87431 14.3893 3.91572
57 1 12.6115 11.4168 1.05787
58 1 12.5103 11.3899 3.86235
59 1 12.616 14.161 1.15103
12044 2 0.0895402 24.1253 2.70172
61 1 1.32778 17.0821 1.21847
62 1 4.16807 17.1032 1.18514
63 1 4.15519 16.9986 4.01007
64 1 1.37841 17.0078 3.99276
65 1 1.29741 19.8552 1.23091
66 1 4.10597 19.9669 1.08709
67 1 4.17103 19.8266 4.12402
68 1 1.41304 19.8107 4.01171
69 1 6.98841 17.0788 1.1662
70 1 9.6475 16.9989 1.15693
71 1 12.3973 17.0643 3.95059
72 1 9.63639 17.0483 4.01079
73 1 6.90768 19.9388 1.08209
74 1 9.67153 19.8443 1.31354
75 1 9.82293 19.8878 4.03392
76 1 7.10353 20.0095 4.11382
77 1 12.7037 16.9721 1.08779
12004 2 -0.0166978 1.69042 2.648
79 1 12.6698 19.7164 1.20677
12127 2 0.000813451 1.50555 13.9232
81 1 1.39132 22.6654 1.37691
82 1 4.16597 22.6594 1.37335
83 1 4.2215 22.6108 4.10589
84 1 1.26704 22.7531 4.17686
85 1 7.00594 22.762 1.2896
86 1 9.86838 22.6921 1.14144
87 1 9.93295 22.6457 4.03065
88 1 7.17242 22.7433 3.95976
12129 2 5.74755 1.55287 13.794
12136 2 2.84313 10.0382 13.8704
91 1 1.45443 0.0137248 6.79978
92 1 4.21859 0.0291729 7.23419
93 1 4.17213 2.65659 9.57478
94 1 1.79618 0.250609 9.64028
95 1 1.56726 2.75526 6.87452
96 1 4.30379 2.91719 6.80262
97 1 6.91062 5.70264 9.75517
98 1 1.36316 3.04146 9.83955
99 1 6.97876 3.00857 6.84534
100 1 9.68447 -0.0268918 6.70939
101 1 9.81017 0.154894 9.55799
102 1 7.00649 3.02453 9.70693
103 1 6.91292 5.68895 6.94461
104 1 9.73899 2.92115 6.85127
105 1 9.74061 3.04534 9.65908
106 1 7.03413 5.70682 12.5759
107 1 12.5782 0.0401673 6.88459
108 1 12.6601 0.0982511 9.76489
109 1 12.629 2.76471 6.87005
110 1 12.613 2.90453 9.78635
111 1 1.26049 5.63367 6.76492
112 1 4.07931 5.64274 6.85682
113 1 4.20502 8.46152 9.65944
114 1 1.31689 5.84501 9.51887
115 1 1.41753 8.58847 6.86362
116 1 4.00756 8.49707 6.94883
117 1 6.59505 9.73569 7.423
118 1 1.29649 8.50748 9.58964
119 1 8.91158 8.32638 6.93528
120 1 9.866 5.77583 6.86125
121 1 9.77583 5.80309 9.71656
122 1 7.00134 8.33297 9.85864
123 1 8.53969 11.6823 7.112
124 1 12.6611 8.38567 6.98885
125 1 10.7656 10.4197 7.61476
126 2 8.42915 9.93409 8.64075
127 1 12.4945 5.53778 7.05051
128 1 12.5866 5.74488 9.69525
12134 2 5.51229 7.0824 13.9074
130 1 12.6387 11.3337 9.71189
131 1 1.31817 11.328 6.97053
132 1 4.03146 11.5135 7.09332
133 1 4.29605 11.3189 9.77125
134 1 1.26531 11.3686 9.73584
135 1 1.32708 14.2847 6.96751
136 1 4.31194 14.3542 6.78537
137 1 4.23694 14.1787 9.67927
138 1 1.32498 14.1509 9.66845
139 1 9.75667 14.2954 6.97825
140 1 10.7941 12.3263 5.69271
141 1 9.81879 11.5049 9.97616
142 1 6.97658 11.411 9.78003
143 1 6.87741 14.418 6.69037
144 1 9.70679 16.9924 6.68178
145 1 9.87604 14.2741 9.52702
146 1 7.14858 14.1766 9.56665
147 1 12.7469 13.9482 6.79513
148 1 12.5128 14.2162 9.64574
149 1 12.4421 16.9129 7.09356
150 1 12.4464 17.0052 9.77968
151 1 1.48467 17.0724 6.91913
152 1 4.19154 17.048 6.88852
153 1 4.14199 17.0754 9.61242
154 1 1.34913 17.1251 9.73593
155 1 1.16004 19.9311 6.99407
156 1 3.95948 19.6825 6.80199
157 1 4.26004 19.949 9.5372
158 1 1.3986 20.0136 9.71081
159 1 6.83125 17.2338 6.80021
160 1 12.7078 22.6603 3.86118
161 1 9.58629 17.1669 9.73285
162 1 6.93914 17.0606 9.63152
163 1 6.81633 20.0446 7.04988
164 1 9.87402 19.776 6.74295
165 1 9.72742 19.8325 9.62275
166 1 7.04615 19.8697 9.91737
241 1 9.65115 8.38793 12.6145
168 1 12.6237 19.8022 9.80591
169 1 12.4961 22.6353 6.69829
170 1 12.6135 22.6876 9.67402
171 1 1.30062 22.6068 6.96701
172 1 4.09278 22.688 6.84617
173 1 4.22906 22.6259 9.68356
174 1 1.36585 22.7307 9.79934
175 1 6.97241 22.6919 6.80232
176 1 9.66183 22.7033 6.80037
177 1 9.84242 22.4986 9.75335
178 1 6.88078 22.7278 9.58794
12149 2 5.61483 24.003 13.8809
12150 2 11.1538 24.0148 13.9229
181 1 1.43199 0.173534 12.4754
182 1 4.28209 0.179647 12.1678
183 1 1.33031 2.96214 12.6517
184 1 4.22181 2.88706 12.3902
185 1 7.11316 0.0200558 12.5708
186 1 9.83112 0.0805197 12.4366
187 1 7.02268 2.79944 12.4613
188 1 9.74316 2.97714 12.3776
189 1 12.744 0.197598 12.5851
190 1 12.5667 3.10201 12.5045
191 1 1.47316 5.8303 12.5314
192 1 4.11183 5.66446 9.6654
193 1 1.3941 8.57424 12.2064
194 1 4.12221 8.3945 12.5115
195 1 4.23384 5.73485 12.4865
196 1 9.75866 5.67068 12.5321
197 1 9.82234 8.44364 9.94684
198 1 12.6151 8.57628 9.72151
199 1 12.6994 5.84793 12.6138
200 1 12.5954 8.58756 12.4353
201 1 1.40865 11.4891 12.3908
202 1 4.2431 11.3741 12.5568
203 1 1.26229 14.2452 12.4616
204 1 4.12069 14.1968 12.5246
205 1 7.04249 11.4705 12.4982
206 1 9.81139 11.4381 12.6622
207 1 6.80118 14.2308 12.2925
208 1 9.70989 14.3352 12.5663
209 1 12.575 11.2869 12.3861
210 1 12.4578 14.1761 12.4291
211 1 1.33023 16.9709 12.6251
212 1 3.98799 17.0236 12.4291
213 1 1.24647 19.7447 12.512
214 1 3.9976 19.8577 12.5238
215 1 7.00822 17.1385 12.4179
216 1 9.79042 17.0217 12.5601
217 1 6.88413 19.7895 12.4899
218 1 9.7567 19.8493 12.5781
219 1 12.5644 16.9728 12.5649
220 1 12.4572 19.8395 12.4698
221 1 1.28127 22.5732 12.5636
222 1 4.12712 22.6929 12.4981
223 1 6.95558 22.7098 12.4555
224 1 9.78923 22.6027 12.4772
225 1 12.517 22.6647 12.6404
12125 2 11.1922 21.1009 11.1025
12110 2 11.1482 4.38131 11.062
12081 2 0.0422379 15.5402 5.41385
12124 2 8.32548 23.9977 11.0772
80 1 12.5951 22.801 1.03294
12109 2 8.37987 7.02848 11.1411
12024 2 0.0274883 12.8206 2.57922
12008 2 5.62679 1.54457 2.64359
243 1 6.78148 8.54849 12.5961
12010 2 11.3475 1.50451 2.59888
12123 2 5.54372 21.3168 11.1677
12108 2 5.53218 4.20024 11.0794
12013 2 2.91559 4.40041 2.57972
12122 2 2.78792 23.9928 11.1576
12107 2 2.7846 7.11799 11.1093
12112 2 2.85255 12.8489 11.0711
12017 2 8.44281 4.24544 2.6544
12018 2 5.8325 7.382 2.76857
12104 2 8.35852 1.41909 11.109
12020 2 11.2989 7.17359 2.49814
60 1 12.5486 19.6543 3.93878
12116 2 -0.0932189 15.5909 10.9693
12023 2 2.79955 9.93499 2.57919
12120 2 10.9954 15.5724 11.078
12102 2 2.64286 1.6989 11.2059
12113 2 5.55583 9.89693 11.049
12027 2 8.43068 9.86374 2.23888
12028 2 5.72114 12.7327 2.6447
12100 2 11.4021 23.9957 8.31558
12030 2 11.1873 12.8853 2.66861
12099 2 11.2798 21.3108 5.32326
12098 2 5.5454 23.961 8.27465
12033 2 2.78151 15.6093 2.61751
412 1 7.09458 14.3424 0.992359
12097 2 8.31811 21.2011 8.29716
12096 2 8.59043 24.0396 5.32734
12037 2 8.27276 15.7256 2.60639
12038 2 5.51768 18.455 2.54246
12095 2 5.53751 21.2183 5.41885
12040 2 11.2452 18.3861 2.52817
29 1 7.05293 8.55062 1.07084
12093 2 2.76592 21.2929 8.22022
12043 2 2.69832 21.2632 2.67271
5723 1 6.95873 0.134981 6.88516
12092 2 2.76821 24.0417 5.59409
5634 1 6.88881 0.0634842 1.15982
12047 2 8.33985 21.2413 2.65364
12048 2 5.67119 24.0572 2.72979
12090 2 11.0876 18.4235 8.3791
12050 2 11.2615 24.0682 2.67431
12119 2 8.30674 18.5839 11.1104
12052 2 2.82338 1.44028 5.43446
129 1 13.6988 10.9655 6.37929
12118 2 5.66221 15.5767 10.9469
5633 1 7.02353 0.218544 4.02864
12056 2 8.43609 1.58012 5.36894
5726 1 6.81486 0.109834 9.70847
12058 2 5.7336 1.67088 8.1341
12111 2 -0.0346049 9.97119 11.0153
12060 2 11.3296 1.4114 8.30183
12117 2 2.69193 18.509 11.1827
12062 2 2.68616 7.08013 5.5714
12063 2 2.78981 4.28838 8.3121
12089 2 11.15 15.4439 5.54127
12065 2 5.4632 4.35544 5.40246
12066 2 8.3934 6.72708 5.33824
12067 2 8.33564 4.35469 8.28813
12068 2 5.62545 7.08804 8.29871
12069 2 11.3239 4.22929 5.48993
12070 2 11.2061 7.08521 8.33548
12115 2 11.0418 9.97419 11.2488
12072 2 2.66097 12.8746 5.52004
12073 2 2.73475 9.96296 8.37953
12114 2 8.33916 12.9206 11.1057
12075 2 5.02183 9.94309 5.39871
12076 2 8.58948 13.2262 5.3727
12077 2 8.0706 9.98886 5.41652
12078 2 5.7878 12.6346 8.04948
12079 2 11.7476 10.1125 5.52303
12080 2 11.0417 12.7273 8.13875
395 1 7.19979 11.6276 1.22568
12082 2 2.72149 18.3958 5.41147
12083 2 2.9023 15.6364 8.16207
15081 2 13.5964 18.1481 5.52025
12085 2 5.59091 15.6215 5.40796
12086 2 8.50367 18.5642 5.48222
12087 2 8.29703 15.7428 8.18952
12088 2 5.52667 18.5234 8.18893
167 1 12.496 19.7028 7.01397
12133 2 8.49976 4.37912 13.8774
12054 2 0.00558958 1.57023 8.38531
12084 2 0.0246746 18.4017 8.31826
12135 2 11.3519 7.14694 13.964
15111 2 13.9855 12.8459 10.9827
12139 2 5.59625 12.8364 13.9005
12106 2 0.036781 4.39695 11.1555
12074 2 -0.137734 12.6882 8.29656
15091 2 13.9488 24.1656 5.47888
12132 2 -0.0389448 7.22716 13.8199
12147 2 -0.00551131 24.1431 13.8981
12071 2 5.36241e-05 9.91038 5.41304
12144 2 5.512 18.4017 13.7749
12148 2 8.37376 21.2452 13.9151
12145 2 11.1753 18.387 13.8982
12143 2 8.32444 15.6694 13.8721
12034 2 -0.0596933 18.3945 2.77598
12022 2 2.81551 12.8016 -0.0353464
226 1 4.34163 0.09545 14.8896
227 1 1.70462 0.196278 15.2877
228 1 4.16617 2.95338 15.1472
229 1 1.3511 3.02281 15.3018
230 1 9.85134 0.29174 15.2031
231 1 7.02152 0.201097 15.3449
232 1 9.92048 3.03628 15.309
233 1 6.99877 3.01144 15.3236
234 1 12.5632 0.186811 15.4528
235 1 12.6648 3.01771 15.2417
236 1 4.18663 5.71764 15.2419
237 1 1.14307 5.90058 15.2655
238 1 4.11119 8.51132 15.2721
239 1 1.22034 8.62134 15.1375
240 1 9.75223 5.91065 15.4342
12049 2 11.333 21.3456 27.9711
242 1 9.8335 8.59546 15.4252
5993 1 6.97902 0.21679 23.8187
244 1 12.6086 5.76089 15.4682
245 1 12.5918 8.67004 15.2716
246 1 4.26768 11.4571 15.3605
247 1 1.34122 11.3764 15.1884
248 1 4.1044 14.2898 15.2359
249 1 1.2066 14.1189 15.3008
250 1 9.80371 11.4267 15.3477
251 1 6.97688 11.3806 15.4263
252 1 9.66909 14.2203 15.418
253 1 6.91329 14.3427 15.3021
254 1 12.4844 11.4762 15.3022
255 1 12.5497 14.2817 15.1548
256 1 4.19046 16.9751 15.3324
257 1 1.20365 17.1784 15.4964
258 1 4.15626 19.9996 15.3441
259 1 1.42591 19.9459 15.2542
260 1 9.81457 17.0276 15.2698
261 1 6.8729 17.1338 15.1285
262 1 9.70667 19.931 15.4434
263 1 7.01892 19.7145 15.2947
264 1 12.6051 17.1455 15.2348
265 1 12.5478 19.9016 15.3779
266 1 4.22083 22.8151 15.1939
267 1 1.39926 22.7459 15.34
268 1 9.69373 22.6036 15.3591
269 1 6.98446 22.7238 15.228
270 1 12.3906 22.7195 15.3993
271 1 1.32635 0.238217 18.0825
272 1 4.14139 0.154032 17.9326
273 1 4.18194 0.152346 20.8681
274 1 1.39172 0.331833 20.8626
275 1 1.50219 3.17192 17.8754
276 1 4.15811 2.94353 18.0046
277 1 4.23275 2.88416 20.7613
278 1 1.33878 3.11941 20.7517
279 1 6.98437 3.16533 18.0694
280 1 9.6034 0.115188 18.1547
281 1 9.83456 0.234998 20.9211
282 1 6.96475 2.97422 20.7844
283 1 7.10656 5.9197 18.0035
284 1 9.66702 2.93031 18.1564
285 1 9.84668 3.11707 21.0075
286 1 7.147 5.64834 23.7222
287 1 12.5284 0.199693 18.2059
288 1 12.5749 0.233391 20.9866
289 1 12.4961 3.02228 18.0227
290 1 12.5952 3.06229 20.9425
291 1 1.45949 5.91349 18.1374
292 1 4.16836 5.92612 18.1112
293 1 4.39492 5.85991 20.7638
294 1 1.5991 5.89838 20.9936
295 1 1.33859 8.57439 18.0519
296 1 4.09003 8.6957 18.2591
297 1 4.37222 8.72064 21.0125
298 1 1.47826 8.69593 20.8807
299 1 6.97179 5.87694 15.2236
300 1 9.90046 5.8388 18.13
301 1 9.82609 5.80901 20.9393
302 1 7.11009 5.78773 20.8923
303 1 6.93228 8.67515 15.3703
304 1 9.66793 8.80447 18.1769
305 1 9.90405 8.526 21.1624
306 1 6.86118 8.78934 18.2878
307 1 12.6104 5.71791 18.1869
308 1 12.5144 5.89812 21.0424
309 1 12.4539 8.7662 18.1177
310 1 12.6212 8.68303 20.8677
311 1 1.30116 11.5038 18.1369
312 1 4.1211 11.5481 18.0954
313 1 4.21165 11.4478 21.0241
314 1 1.48878 11.4372 20.9517
315 1 1.20842 14.2043 17.9492
316 1 4.06772 14.2546 18.2041
317 1 4.19766 14.4412 20.9538
318 1 1.44174 14.2533 20.8632
319 1 6.99882 11.4921 18.2024
320 1 9.6283 11.5502 18.2298
321 1 9.78979 11.3874 20.9683
322 1 6.98613 11.4935 21.1218
323 1 6.93694 14.0789 18.1264
324 1 9.69652 14.2746 18.0742
325 1 9.81342 14.2684 20.9729
326 1 7.0413 14.2461 20.9721
327 1 12.4484 11.5579 18.0684
328 1 12.5914 11.472 20.9396
329 1 12.6295 14.3563 18.1053
330 1 12.5891 14.1768 20.8154
331 1 1.23525 17.0454 18.1663
332 1 4.03952 17.1032 18.1301
333 1 4.10279 17.2598 20.942
334 1 1.25693 17.0118 20.8857
335 1 1.42107 19.8184 18.1791
336 1 4.15861 19.8665 18.157
337 1 4.21047 20.0334 20.7488
338 1 1.36028 19.8323 20.9922
339 1 6.94518 17.0235 17.9932
340 1 9.73159 16.9271 18.0892
341 1 9.71937 17.0275 20.866
342 1 7.01563 17.067 20.8565
343 1 6.98478 19.7616 18.0018
344 1 9.76603 19.6931 18.1804
345 1 9.77133 19.8565 21.0335
346 1 6.8935 19.835 20.9233
347 1 12.5857 17.208 18.1391
348 1 12.6018 17.0972 20.9572
349 1 12.6306 19.9434 18.182
350 1 12.556 20.0119 21.0613
351 1 1.4954 22.5722 18.0353
352 1 4.30851 22.7682 18.0266
353 1 4.06355 22.7266 20.9493
354 1 1.32238 22.6393 20.911
355 1 7.10052 22.5079 18.0508
356 1 9.80103 22.6226 18.1346
357 1 9.6344 22.4998 20.8561
358 1 6.86482 22.6094 20.9083
359 1 12.3719 22.7081 18.1637
360 1 12.4795 22.7562 20.9935
361 1 1.27645 0.249823 23.6301
362 1 4.11263 0.28179 23.7362
363 1 4.24132 0.0839145 26.602
364 1 1.38567 0.235713 26.4269
365 1 1.47043 2.9133 23.6285
366 1 4.22172 3.06724 23.7035
367 1 4.09859 2.97871 26.4587
368 1 1.32709 2.99655 26.4862
369 1 6.8386 2.85918 23.6385
370 1 9.71478 0.21897 23.7306
371 1 9.78334 0.205535 26.5581
372 1 6.8613 2.83592 26.5817
373 1 7.05911 5.6827 26.5485
374 1 9.73453 3.04153 23.7163
375 1 9.70344 3.04061 26.4804
376 1 9.81699 5.64965 26.5657
377 1 12.5588 0.238473 23.7432
378 1 12.584 0.118925 26.449
379 1 12.6233 3.00058 23.7795
380 1 12.7667 2.98097 26.5515
381 1 1.63083 5.8513 23.802
382 1 4.23238 5.87169 23.6436
383 1 4.22488 5.7914 26.6137
384 1 1.41521 5.80441 26.5284
385 1 1.34629 8.49007 23.7263
386 1 4.29061 8.59811 23.6533
387 1 4.349 8.58586 26.5778
388 1 1.41013 8.61279 26.4267
389 1 7.127 8.51874 23.764
390 1 9.89644 5.78235 23.691
391 1 9.91032 8.49755 26.5874
392 1 7.05236 8.59827 26.5832
393 1 7.0957 8.59281 21.0152
394 1 10.0322 8.54247 23.9397
12012 2 2.81292 7.20077 28.0631
396 1 6.94652 11.4521 26.5622
397 1 12.8873 5.91295 23.878
398 1 12.6573 5.86366 26.6124
399 1 12.7154 8.75189 23.7009
400 1 12.7082 8.66444 26.5706
401 1 1.46566 11.2212 23.7365
402 1 4.19285 11.4965 23.779
403 1 4.13182 11.5157 26.644
404 1 1.36185 11.3353 26.5197
405 1 1.30024 14.1441 23.6737
406 1 4.14424 14.4173 23.7082
407 1 4.25729 14.2565 26.4571
408 1 1.55439 14.2538 26.635
409 1 6.81255 11.3797 23.8947
410 1 9.77219 11.2934 23.8759
411 1 9.69963 11.2685 26.5543
12224 2 -0.111806 12.7469 25.0239
413 1 6.97851 14.1212 23.6725
414 1 9.81242 14.1686 23.7648
415 1 9.89729 14.2173 26.5196
416 1 7.0518 14.3721 26.3774
417 1 12.6086 11.4776 23.716
418 1 12.6708 11.6164 26.4197
419 1 12.566 14.3077 23.7035
420 1 12.7544 14.4014 26.4655
421 1 1.41212 16.9657 23.8857
422 1 4.14975 17.1323 23.7506
423 1 4.20242 17.0455 26.43
424 1 1.31316 17.1006 26.569
425 1 1.45108 19.8937 23.7768
426 1 4.24877 19.8739 23.7134
427 1 4.12826 19.8934 26.4047
428 1 1.29136 19.9522 26.485
429 1 7.09023 16.8443 23.7008
430 1 9.93338 17.0379 23.7067
431 1 9.76517 16.9952 26.4428
432 1 7.03274 17.1703 26.509
433 1 7.02284 19.8384 23.6638
434 1 9.76229 19.7987 23.7199
435 1 9.87873 19.7528 26.5349
436 1 7.05912 19.8511 26.4994
437 1 12.6462 17.1407 23.8486
438 1 12.6671 17.1459 26.5003
439 1 12.4695 19.8747 23.8982
440 1 12.5932 20.051 26.6702
441 1 1.25191 22.6961 23.7311
442 1 4.20058 22.6948 23.7491
443 1 4.05017 22.7261 26.6168
444 1 1.24931 22.717 26.525
445 1 7.02833 22.5843 23.6202
446 1 9.76485 22.7145 23.5882
447 1 9.7477 22.6214 26.385
448 1 6.85688 22.6501 26.5449
449 1 12.666 22.7703 23.6342
450 1 12.6111 22.8004 26.3717
12006 2 8.31872 1.57661 28.0006
12250 2 11.2354 24.0974 25.0483
12029 2 11.1917 9.94514 27.7715
12194 2 -0.088645 23.9668 19.6204
5906 1 6.93901 -0.0845182 20.8652
12211 2 0.0756356 4.29465 22.3172
12249 2 11.1692 21.3686 22.369
12042 2 2.84927 24.0443 28.0599
12031 2 -0.0741462 15.5852 27.9071
12191 2 -0.137112 21.2239 16.61
12011 2 -0.0810049 4.36633 27.9832
12248 2 5.48953 24.0381 25.0469
12026 2 8.57472 12.8815 27.8033
12171 2 -0.020377 9.94212 16.6643
12041 2 -0.0999928 21.2848 28.0086
12035 2 5.65785 15.6239 27.9017
12241 2 -0.0374197 21.2918 22.3893
12016 2 8.53086 6.99912 27.9196
12220 2 11.376 7.13504 25.0835
12025 2 5.71487 9.97803 27.9452
12232 2 2.65967 18.5227 22.2706
12216 2 8.52299 7.13744 22.2864
5903 1 6.90438 0.199785 18.0623
12219 2 11.3492 4.46297 22.3893
12218 2 5.64807 7.08042 25.1938
12247 2 8.3788 21.2958 25.0919
12152 2 2.75166 1.58234 16.5805
12227 2 8.28884 9.87317 25.2091
12246 2 8.33425 24.0389 22.2671
12230 2 11.2724 12.7876 25.1862
12156 2 8.39523 1.55703 16.676
12229 2 11.127 10.0573 22.3613
12158 2 5.6103 1.49234 19.2859
12217 2 8.31135 4.29869 25.0846
12160 2 11.1308 1.64407 19.5009
12245 2 5.65751 21.1749 22.3688
12162 2 2.71183 7.25143 16.6076
12163 2 2.81647 4.49525 19.3477
12228 2 5.64055 12.8092 25.2372
12165 2 5.6632 4.44665 16.6075
12166 2 8.43693 7.21534 16.7006
12167 2 8.47459 4.46735 19.5325
12168 2 5.54534 7.33478 19.5905
12169 2 11.0864 4.37063 16.7268
12170 2 11.1669 7.26752 19.4925
12243 2 2.73463 21.3679 25.2419
12172 2 2.77071 12.8973 16.5908
12173 2 2.73344 10.1218 19.5113
12242 2 2.82295 23.9648 22.213
12175 2 5.527 10.0277 16.7996
12176 2 8.43282 12.7776 16.7898
12177 2 8.24922 10.0849 19.5479
12178 2 5.56413 12.9622 19.5641
12179 2 11.136 10.0303 16.6989
12180 2 11.1839 12.9018 19.4523
12236 2 8.48842 18.3936 22.2742
12182 2 2.77225 18.4732 16.7959
12183 2 2.70735 15.6496 19.5592
12223 2 2.90368 9.96431 25.0647
12185 2 5.71061 15.6579 16.7106
12186 2 8.40469 18.2954 16.5691
12187 2 8.26364 15.5698 19.4903
12188 2 5.43938 18.5155 19.5333
12189 2 11.1704 15.5046 16.63
12190 2 11.1592 18.5256 19.5511
12226 2 8.43598 12.7969 22.3113
12192 2 2.79509 24.1077 16.7707
12193 2 2.6982 21.28 19.5318
12225 2 5.65894 10.1032 22.4613
12195 2 5.59416 21.198 16.6651
12196 2 8.40671 24.0698 16.8327
12197 2 8.35242 21.1211 19.5436
12198 2 5.57384 24.0844 19.4501
12199 2 11.145 21.2314 16.7764
12200 2 11.1468 24.0478 19.6899
12240 2 11.1484 18.4663 25.157
12202 2 2.81094 1.54117 22.2796
5996 1 7.10069 0.198557 26.4763
12239 2 11.1976 15.577 22.3612
12222 2 2.82897 12.8145 22.3701
12206 2 8.46865 1.57881 22.3215
12235 2 5.54618 15.6198 22.4009
12208 2 5.56162 1.61012 25.0567
12233 2 2.71079 15.6006 25.1933
12210 2 10.9743 1.58343 25.195
12238 2 5.68504 18.3544 24.9226
12212 2 2.95494 7.34387 22.1899
12213 2 2.90985 4.36161 25.1957
12237 2 8.42442 15.6202 25.1154
12215 2 5.72554 4.28503 22.1921
12046 2 8.45622 24.0487 27.8492
12231 2 -0.0890392 15.534 22.2318
12164 2 0.014773 7.26315 19.5068
12204 2 -0.0270006 1.52338 25.1046
12002 2 2.87409 1.57956 27.9351
12201 2 0.0416431 -1.12793 22.235
12184 2 -0.0949677 18.4197 19.5169
12154 2 -0.021733 1.67434 19.5088
12221 2 0.0190389 10.0261 22.3203
12036 2 8.46971 18.4393 27.8499
12045 2 5.52888 21.279 27.8348
12015 2 5.60901 4.26949 27.9225
12214 2 0.0249973 7.24282 25.0739
15181 2 13.9503 18.5244 16.7934
15182 2 13.9876 15.7051 19.4368
15231 2 13.93 18.467 22.337
15201 2 14.0162 1.60604 22.3949
12234 2 0.00595052 18.4353 25.2197
15191 2 13.9455 24.1001 16.7608
12039 2 11.2708 15.639 27.7518
12021 2 0.140952 9.8812 27.8631
12032 2 2.72834 18.3733 27.8376
12019 2 11.1638 4.33818 27.926
15146 2 13.9229 21.2762 14.0085
12146 2 2.70545 21.3024 13.9311
12141 2 2.64652 15.5725 13.8926
12130 2 11.2697 1.4768 13.9526
12142 2 -0.0719763 18.4374 13.9179
12138 2 8.35714 9.98451 13.9737
12140 2 11.1188 12.7739 13.9918
12131 2 2.7913 4.32109 14.0612
451 1 1.52161 25.5054 1.29988
452 1 4.25476 25.4281 1.30757
453 1 4.14027 25.3938 4.11124
454 1 1.33893 25.4233 4.08562
455 1 7.03019 25.4863 1.26142
456 1 9.89612 25.3951 1.18019
457 1 9.81372 25.5291 3.99859
458 1 7.09276 25.5238 4.01642
459 1 12.5157 30.9824 1.29778
460 1 12.5645 28.1967 4.08391
461 1 1.29049 28.3487 1.31517
462 1 4.03368 28.2581 1.34511
463 1 3.9834 28.325 4.19913
464 1 1.36438 28.2328 3.97509
465 1 1.23783 30.995 1.37388
466 1 4.05667 31.015 1.21055
467 1 3.91519 31.0711 4.11909
468 1 1.23991 31.208 4.19508
469 1 6.81812 28.2818 1.28823
470 1 9.7595 27.9739 1.34195
471 1 9.75449 28.4063 4.01292
472 1 6.89542 28.3817 3.974
473 1 6.94021 30.8296 1.27113
912 1 6.77981 50.9191 3.94235
475 1 9.60275 31.1889 4.19445
476 1 6.74767 31.1839 4.27994
477 1 9.70811 30.5957 1.28192
478 1 10.5056 33.2761 2.35644
1102 1 4.25146 50.7154 12.5382
15317 2 13.9117 38.1369 8.38782
481 1 1.50333 33.7972 1.19069
482 1 4.74797 33.6109 1.4897
483 1 4.26397 33.6717 4.28596
484 1 1.44777 33.9508 4.26412
12375 2 -0.0481829 40.9997 13.9885
486 1 3.44506 35.9625 1.80349
487 1 4.15499 36.6742 4.43731
488 1 1.29265 36.6163 4.16019
489 1 6.9248 34.7644 1.42302
847 1 1.16897 36.8519 1.29401
491 1 10.1682 34.8056 4.48605
492 1 7.50406 33.9631 3.92126
493 1 5.5197 37.2453 1.61844
494 1 10.4511 35.6942 0.842986
495 1 10.0388 37.0572 3.41494
496 1 7.22 36.6863 3.99311
497 1 12.851 33.7916 1.00758
498 1 12.7142 33.7317 4.19242
499 1 12.7803 36.8339 1.24289
500 1 12.735 36.7056 4.07388
501 1 1.18649 39.7175 1.38743
502 1 3.81146 39.5545 1.20193
503 1 3.96266 39.5017 4.15697
504 1 1.17619 39.642 4.12302
505 1 1.41789 42.5219 1.19709
506 1 4.11726 42.2002 1.10139
507 1 3.90825 42.2693 3.99267
508 1 1.19556 42.4592 4.28182
509 1 6.92214 39.8066 1.19471
510 1 9.88502 39.539 1.39939
511 1 9.68638 39.7508 4.20683
512 1 6.73704 39.6214 4.08805
513 1 7.0005 42.3822 1.18666
514 1 9.74333 42.2576 1.27196
515 1 9.6758 42.3833 3.97758
516 1 6.78611 42.3527 4.04651
517 1 12.5872 39.6306 1.35277
518 1 12.4239 39.6017 4.17188
519 1 12.5497 42.4216 1.24838
520 1 12.481 42.3403 4.09415
521 1 1.25789 45.2839 1.39077
522 1 4.1551 45.0067 1.32231
523 1 4.08964 45.0964 4.11573
524 1 1.22171 45.2596 4.17649
525 1 1.29356 48.0401 1.3454
526 1 4.15918 47.7178 1.2203
527 1 3.98446 47.6656 4.08242
528 1 1.0453 48.1837 4.16933
529 1 6.9141 45.0697 1.37014
530 1 9.81151 44.9702 1.22688
531 1 9.80129 45.2643 3.95595
532 1 7.02291 45.289 4.03209
533 1 7.07919 48.0421 1.16372
534 1 9.75055 47.8505 1.26946
535 1 9.69838 47.8522 4.15833
536 1 6.8112 47.991 4.06066
537 1 12.5393 45.2446 1.24213
538 1 12.5135 45.3178 4.11078
539 1 12.6431 47.9067 1.29484
540 1 12.5242 48.0511 4.12676
541 1 1.32705 25.4222 6.97926
542 1 4.19281 25.4551 6.86662
543 1 4.19119 25.3719 9.76651
544 1 1.21718 25.4128 9.71614
545 1 7.01944 25.4755 6.80697
546 1 9.86821 25.3884 6.85015
547 1 9.75336 25.317 9.66176
548 1 6.98005 25.5156 9.65943
549 1 12.527 28.3433 6.89636
550 1 12.6072 25.5394 9.6996
551 1 1.37247 28.3094 7.00889
552 1 4.2064 28.2178 6.88134
553 1 4.25651 28.2308 9.64403
554 1 1.50928 28.2521 9.68847
555 1 1.1923 31.1714 6.95764
556 1 3.98916 31.001 6.91333
557 1 4.18741 30.888 9.82669
558 1 1.36584 31.1687 9.82039
559 1 7.0275 28.1273 7.05463
560 1 9.85718 28.2694 6.96981
561 1 9.65346 28.1119 9.66217
562 1 6.94217 28.2395 9.81838
563 1 6.86542 30.9625 6.91183
564 1 9.64783 31.1335 6.9292
565 1 9.693 30.9673 9.74243
566 1 7.03797 31.059 9.74805
567 1 12.5118 31.0839 6.85968
568 1 12.4627 28.255 9.60865
90 1 12.6654 25.561 1.22322
570 1 12.5563 31.1483 9.75947
571 1 1.38502 33.8684 7.11689
572 1 4.10152 33.9293 6.97043
573 1 4.12166 33.6356 9.66801
574 1 1.41851 33.9586 9.7693
575 1 1.20271 36.7664 6.96285
576 1 4.20079 36.8645 7.0269
577 1 4.08077 36.6924 9.69194
578 1 1.34724 36.6866 9.8975
579 1 6.87541 33.8011 6.84823
580 1 9.76785 33.9034 6.99803
581 1 9.68517 33.8886 9.76177
582 1 6.83007 33.8056 9.72126
583 1 6.88192 36.8248 6.84872
584 1 9.63156 36.6993 6.92826
585 1 9.68765 36.6541 9.7124
586 1 6.90809 36.6274 9.71087
587 1 12.5292 33.891 6.97566
588 1 12.4855 33.9012 9.66499
589 1 12.5767 36.7951 6.88111
590 1 12.5853 36.698 9.73075
591 1 1.33462 39.448 6.85974
592 1 4.05781 39.6117 6.94043
593 1 4.16212 39.3435 9.70607
594 1 1.34965 39.6133 9.81082
595 1 1.33849 42.2699 7.00219
596 1 4.10494 42.3435 6.72557
597 1 4.05325 42.2401 9.62397
598 1 1.23553 42.4123 9.78313
599 1 6.81687 39.585 6.85801
600 1 9.61933 39.4775 6.87808
601 1 9.62527 39.5228 9.73424
602 1 6.92932 39.5884 9.69838
603 1 6.83216 42.3412 6.8812
604 1 9.66258 42.4244 6.83432
605 1 9.76703 42.2703 9.752
606 1 6.97275 42.3402 9.57945
607 1 12.5658 39.4887 7.03495
608 1 12.3815 39.4339 9.71667
609 1 12.5251 42.1911 6.95122
610 1 12.5324 42.2952 9.72807
611 1 1.29644 45.1797 6.93085
612 1 4.14093 45.2029 6.78874
613 1 4.17379 45.1105 9.56368
614 1 1.25111 45.0776 9.73504
615 1 1.31058 48.1057 6.83812
616 1 4.27065 48.0069 6.88446
617 1 3.98065 47.8933 9.70111
618 1 1.47207 48.0595 9.64412
619 1 6.95326 45.1131 6.84938
620 1 9.7125 45.0956 6.77866
621 1 9.73999 45.0097 9.53885
622 1 7.03775 45.2056 9.61625
623 1 6.91961 47.8742 6.84734
624 1 9.61895 47.8654 7.05077
625 1 9.65855 47.9427 9.77832
626 1 6.77157 48.0522 9.62738
627 1 12.4804 45.0678 6.93442
628 1 12.6701 45.1905 9.77403
629 1 12.48 47.9217 6.94217
630 1 12.396 47.9177 9.62451
631 1 1.49115 25.495 12.4162
632 1 4.33283 25.3993 12.4477
633 1 7.1116 25.6516 12.4264
634 1 9.87004 25.4876 12.5636
635 1 12.6368 25.3814 12.5375
636 1 1.41627 28.1808 12.5784
637 1 4.205 28.2333 12.4763
638 1 1.36869 31.0291 12.6594
639 1 4.03961 31.0205 12.6605
640 1 7.0948 28.2118 12.6675
641 1 9.76328 28.1709 12.4725
642 1 6.81605 30.8564 12.5157
643 1 9.49651 31.1373 12.4707
644 1 12.6076 28.2454 12.4094
645 1 12.5204 31.2083 12.4736
646 1 1.30607 33.8554 12.436
647 1 4.18056 33.9526 12.4846
648 1 1.35555 36.7357 12.5313
649 1 4.15316 36.645 12.5301
650 1 6.88004 33.7018 12.6005
651 1 9.78144 34.0247 12.5045
652 1 6.8462 36.6379 12.5739
653 1 9.80771 36.7238 12.4337
654 1 12.6255 33.9167 12.4324
655 1 12.5644 36.6467 12.5657
656 1 1.37818 39.5528 12.5855
657 1 4.1668 39.519 12.491
658 1 1.3657 42.3576 12.699
659 1 4.2412 42.2689 12.3243
660 1 7.04949 39.4823 12.5351
661 1 9.78322 39.6223 12.4675
662 1 7.02784 42.3299 12.3463
663 1 9.88197 42.3799 12.4993
664 1 12.6684 39.4764 12.3958
665 1 12.4913 42.2032 12.5369
666 1 1.29273 45.1494 12.6286
667 1 4.10679 45.0389 12.494
668 1 1.20407 47.98 12.552
669 1 4.05261 47.7559 12.5306
670 1 6.85341 45.0634 12.4839
671 1 9.80518 45.2119 12.3504
672 1 6.98992 47.8482 12.4731
673 1 9.72729 47.8624 12.4009
674 1 12.4841 44.9744 12.5547
675 1 12.6135 47.9708 12.3837
12363 2 11.1396 49.2796 11.1093
89 1 12.7189 28.2626 1.31167
12253 2 2.68742 26.8952 2.74021
12362 2 5.481 49.3232 11.1026
1106 1 9.74984 50.8502 12.5023
180 1 12.7106 25.4555 6.82296
12257 2 8.4265 26.7963 2.57044
12258 2 5.48469 29.5473 2.70372
15356 2 13.9086 46.5413 11.1043
12260 2 11.1684 29.5714 2.69003
12360 2 11.1459 43.6804 11.086
15336 2 13.7859 49.2987 8.37861
12263 2 2.72919 32.5861 2.78339
12359 2 8.3119 46.5021 11.1123
12341 2 -0.09676 26.8223 11.0381
12262 2 5.22026 35.3751 0.151699
12267 2 8.32775 32.0932 2.59299
12268 2 5.40866 35.3065 3.1997
12345 2 11.0791 26.8095 11.1586
12270 2 11.8616 35.2206 2.75306
12358 2 5.54122 43.8327 10.9516
12344 2 8.32666 29.6048 11.1185
12273 2 2.63486 38.1187 2.69789
12357 2 2.66387 46.5513 11.1455
12343 2 5.72717 26.8945 11.2095
179 1 12.6169 25.4365 4.00981
12277 2 8.3513 38.5195 2.75289
12278 2 5.3855 41.0765 2.5738
1009 1 6.92815 50.7336 6.9111
12280 2 11.1039 40.9431 2.74445
12355 2 11.0715 38.0998 11.0936
12346 2 -0.0358991 32.6695 11.0669
12283 2 2.64575 43.8916 2.68394
12354 2 8.35306 40.8687 11.0862
851 1 8.4029 37.0609 1.03474
902 1 4.19991 50.702 1.3811
12287 2 8.42333 43.7977 2.57224
12288 2 5.52137 46.4739 2.76589
12367 2 5.52366 29.5793 13.965
12290 2 11.1857 46.657 2.64784
12353 2 5.53424 38.1227 11.1459
12292 2 2.66878 49.3413 2.79408
12361 2 -0.0853337 49.4648 11.1484
12294 2 8.35691 49.3832 2.6405
1105 1 6.79351 50.6689 12.5172
904 1 1.34861 50.9217 4.05258
12297 2 2.5419 29.6386 5.5026
12298 2 2.711 26.7434 8.33675
15368 2 13.91 32.3779 13.9079
12300 2 5.65851 26.8469 5.54008
12301 2 8.41903 29.6885 5.58414
12302 2 8.37225 26.7091 8.33358
12303 2 5.56681 29.5514 8.34196
12304 2 11.2169 26.9044 5.56323
12305 2 11.1544 29.5253 8.37873
12352 2 2.81123 40.9371 11.176
12307 2 2.57515 35.3381 5.73112
12308 2 2.76298 32.3764 8.33203
569 1 12.5627 31.0783 4.04116
12310 2 5.3926 32.2677 5.67747
12311 2 8.24737 35.2929 5.84104
12312 2 8.33218 32.3856 8.41079
12313 2 5.40168 35.2329 8.30461
12314 2 11.2287 32.4345 5.50523
12315 2 11.0079 35.412 8.34671
12266 2 8.82843 35.304 2.6021
12317 2 2.61048 40.9893 5.47806
12318 2 2.66476 38.0973 8.35986
12350 2 11.2066 32.6012 11.1031
12320 2 5.43589 38.3529 5.4926
12321 2 8.31489 41.1046 5.42427
12322 2 8.27471 38.1627 8.33344
12323 2 5.53182 40.9524 8.33887
12324 2 11.1117 38.0949 5.41983