ITEM: TIMESTEP
185000
ITEM: NUMBER OF ATOMS
18000
ITEM: BOX BOUNDS xy xz yz pp pp pp
-1.0226288800095676e-01 2.7996262888001681e+01 0.0000000000000000e+00
-1.1390396878960070e+00 3.3586703968792307e+02 0.0000000000000000e+00
-9.6705466481977087e-02 2.7990705466481941e+01 0.0000000000000000e+00
ITEM: ATOMS id type x y z
1 1 1.4893 0.238153 1.34902
2 1 4.13274 0.282403 1.48966
3 1 4.05581 0.101999 4.19815
4 1 1.29942 0.195923 4.12221
5 1 1.28605 2.98088 1.1576
6 1 4.14401 2.9919 1.15262
7 1 4.07969 2.98959 4.12514
8 1 1.30686 3.10503 4.02867
9 1 6.84942 3.02885 1.24672
10 1 9.8332 -0.0418207 1.28687
11 1 9.62246 0.188638 4.14189
12 1 7.04125 2.84555 4.13057
13 1 6.87206 5.72451 1.16433
14 1 9.7929 2.94732 1.29184
15 1 9.75547 2.95154 3.97671
16 1 6.89285 5.50634 4.06707
17 1 12.4524 0.274903 1.20298
18 1 12.6312 0.156083 4.13389
19 1 12.4669 3.13002 1.28964
20 1 12.5935 2.92467 4.18684
21 1 1.34823 5.6498 1.3223
22 1 4.14878 5.91918 1.38943
23 1 4.18197 5.78864 4.12693
24 1 1.49847 5.78868 4.09344
25 1 1.25511 8.58362 1.16415
26 1 4.09786 8.50792 1.34353
27 1 3.86886 11.6373 4.13105
28 1 1.20238 8.72476 4.05029
12105 2 11.0812 -1.13219 11.0986
30 1 9.5282 5.81949 1.2556
31 1 9.81614 5.85984 4.18638
32 1 6.32039 8.28837 5.75608
33 1 6.46285 10.6211 3.72233
34 1 9.92132 8.73355 1.41493
35 1 7.6079 8.04017 3.58315
36 1 6.21585 12.15 5.83313
37 1 12.535 5.81714 1.21429
38 1 12.6233 5.78856 4.08403
39 1 12.6208 8.57839 1.40753
40 1 12.4729 8.53349 4.20526
41 1 1.20427 11.4576 1.38257
42 1 4.09955 11.2735 1.24414
43 1 6.80532 14.4169 3.94241
44 1 1.2502 11.6263 4.30547
45 1 1.0116 14.1887 1.30433
46 1 3.90563 14.1 1.36661
47 1 3.89179 14.2276 4.10657
48 1 1.09319 14.3578 4.24567
49 1 3.97825 8.60231 4.03125
50 1 9.71255 11.3913 1.28971
51 1 9.84868 9.13093 4.28988
52 1 8.78181 11.7282 3.91502
53 1 6.65792 17.1388 4.15364
54 1 9.48632 14.1891 1.42973
55 1 12.33 14.3477 3.96239
56 1 9.66165 14.4308 4.26835
57 1 12.6812 11.4908 1.20838
58 1 12.4263 11.403 3.80918
59 1 12.4847 14.2771 1.29993
15101 2 13.9093 1.78544 11.1131
61 1 1.10764 16.9703 1.2725
62 1 4.11609 16.9866 1.01595
63 1 3.98768 17.1211 3.93436
64 1 1.28581 17.1058 4.07784
65 1 1.35791 19.7223 1.39135
66 1 4.22899 19.877 1.34878
67 1 4.07621 20.0294 4.09686
68 1 1.22803 19.8642 4.16064
69 1 6.8616 17.0966 1.28725
70 1 9.50154 17.0693 1.09673
71 1 12.2736 16.9957 4.01317
72 1 9.50812 17.1293 4.19852
73 1 6.92674 19.8049 1.25559
74 1 9.53588 19.7618 1.24193
75 1 9.60882 20.0139 4.08767
76 1 6.90833 19.9704 4.11783
77 1 12.3476 17.066 1.23697
15022 2 13.9697 10.0688 2.74466
79 1 12.4049 20.0899 1.45009
12132 2 -0.184264 7.30603 13.9833
81 1 0.979548 22.627 1.29822
82 1 3.85219 22.7656 1.44847
83 1 3.79526 22.6997 4.04182
84 1 0.974441 22.7772 4.19508
85 1 6.7714 22.5737 1.24254
86 1 9.67733 22.6926 1.2969
87 1 9.52895 22.7897 4.03228
88 1 6.64698 22.8739 4.15025
15071 2 13.655 13.0472 5.33097
15121 2 13.7929 24.1349 11.0915
91 1 1.41995 0.206795 6.82664
92 1 4.12724 0.14116 7.20153
93 1 4.01532 2.84223 9.62174
94 1 1.65797 0.242334 9.71409
95 1 1.26473 2.91703 6.89301
96 1 4.10146 2.99258 6.79087
97 1 6.88315 5.83882 9.82789
98 1 1.35945 3.00272 9.72382
99 1 6.89812 3.10273 6.93252
100 1 9.60305 0.252924 7.16125
101 1 9.5951 0.21559 9.82779
102 1 6.90781 2.96792 9.8532
103 1 7.08083 5.86743 6.98404
104 1 9.79337 3.04426 6.78505
105 1 9.6422 2.98816 9.64189
106 1 6.82455 5.9811 12.4712
107 1 12.5571 0.409426 6.78189
108 1 12.4369 0.217764 9.69235
109 1 12.4552 3.11529 7.02556
110 1 12.5362 3.07477 9.78969
111 1 1.26599 5.87908 6.83305
112 1 4.101 5.86058 6.91617
113 1 4.03587 8.6228 9.69379
114 1 1.13012 5.76507 9.76791
115 1 1.01838 8.64273 6.81745
116 1 3.85856 8.66956 6.91003
117 1 6.568 10.0438 7.49539
118 1 1.21412 8.56309 9.65631
119 1 9.08316 8.48227 7.0373
120 1 9.74511 5.76573 6.88639
121 1 9.71963 5.83428 9.85445
122 1 6.90787 8.49648 9.74557
123 1 8.65107 11.6324 7.06966
124 1 12.5449 8.45204 7.01606
125 1 10.8997 10.4224 7.98647
126 2 8.48981 10.0906 8.74425
127 1 12.653 5.75305 6.86579
128 1 12.5152 5.79718 9.68524
15091 2 13.8297 24.3063 5.50993
130 1 12.5141 11.496 9.75648
131 1 1.03105 11.4223 7.00732
132 1 3.73552 11.6098 7.03032
133 1 3.95548 11.4522 9.66157
134 1 1.00354 11.4449 9.71252
135 1 0.943421 14.2783 7.04061
136 1 3.94445 14.4691 6.93411
137 1 4.0787 14.2742 9.60897
138 1 1.2758 14.2287 9.80872
139 1 9.72914 14.3952 7.09011
140 1 11.2058 12.3666 5.91243
141 1 9.69032 11.6694 10.0074
142 1 6.92309 11.5035 9.86766
143 1 6.93756 14.5348 6.96866
144 1 9.64134 17.1647 7.02649
145 1 9.51076 14.329 9.8313
146 1 6.82249 14.3272 9.71233
147 1 12.6919 14.5343 6.82781
148 1 12.3371 14.2969 9.55014
149 1 12.2339 17.254 7.0721
150 1 12.4252 17.2188 9.77446
151 1 1.0193 17.1294 6.96431
152 1 3.91399 17.2681 6.85454
153 1 4.01759 17.0364 9.79286
154 1 1.13443 17.1 9.73504
155 1 1.17624 20.0034 6.87125
156 1 3.93838 20.0993 6.88526
157 1 4.00684 19.9345 9.85482
158 1 1.25347 19.8622 9.65221
159 1 6.73906 17.2279 6.94138
160 1 12.367 22.6976 4.12736
161 1 9.64803 17.2294 9.77101
162 1 6.80611 17.1896 9.79567
163 1 6.74809 19.936 6.9449
164 1 9.45879 20.0501 6.9043
165 1 9.52264 19.9537 9.75806
166 1 6.76687 20.068 9.66749
241 1 9.57006 8.7632 12.5461
168 1 12.5021 20.0198 9.66444
169 1 12.4848 22.8417 6.93481
170 1 12.3631 22.77 9.79119
171 1 1.18637 22.7636 7.05702
172 1 3.98427 22.9022 7.02336
173 1 3.94435 22.6225 9.77153
174 1 1.1815 22.7625 9.79924
175 1 6.71227 22.8199 6.98458
176 1 9.54802 22.7539 7.03354
177 1 9.57226 22.7669 9.67852
178 1 6.72304 22.896 9.74675
12116 2 -0.2032 15.7068 11.1322
12147 2 -0.282764 24.1066 13.9312
181 1 1.25892 0.20142 12.478
182 1 4.14153 0.276131 12.1265
183 1 1.15924 3.02549 12.4252
184 1 3.95688 3.2508 12.4801
185 1 6.88209 0.265143 12.4812
186 1 9.66742 0.157219 12.5248
187 1 6.91013 2.9578 12.4941
188 1 9.60379 3.06589 12.423
189 1 12.3721 0.313764 12.4321
190 1 12.5542 3.04682 12.4378
191 1 1.18534 5.90014 12.5996
192 1 4.10737 5.82597 9.63546
193 1 1.23008 8.73569 12.5018
194 1 3.9523 8.69305 12.5556
195 1 4.06368 5.86554 12.4685
196 1 9.67687 5.79542 12.548
197 1 9.63918 8.63031 10.066
198 1 12.5314 8.52352 9.73107
199 1 12.4857 5.87058 12.4138
200 1 12.3905 8.76827 12.5455
201 1 1.10115 11.5049 12.4106
202 1 4.06875 11.5386 12.4145
203 1 1.21727 14.2119 12.61
204 1 4.08946 14.3687 12.487
205 1 6.94565 11.4066 12.6607
206 1 9.71929 11.4281 12.7244
207 1 6.83712 14.3836 12.489
208 1 9.54277 14.2932 12.6814
209 1 12.6752 11.4066 12.5999
210 1 12.4824 14.2952 12.4963
211 1 1.30602 16.9234 12.4432
212 1 4.22458 17.1593 12.6147
213 1 1.28859 19.7567 12.3151
214 1 4.00244 19.9478 12.5235
215 1 7.01391 17.0904 12.5349
216 1 9.74714 17.0161 12.5617
217 1 6.79991 19.9169 12.4166
218 1 9.5917 19.8127 12.4869
219 1 12.6212 17.1091 12.5153
220 1 12.326 19.9197 12.4014
221 1 1.2284 22.7139 12.5404
222 1 4.04304 22.6611 12.5944
223 1 6.83988 22.6913 12.5952
224 1 9.60016 22.6513 12.5294
225 1 12.3936 22.7666 12.4461
12125 2 11.0333 21.3256 11.0856
12110 2 11.116 4.40589 11.1075
15106 2 13.999 7.17306 11.1364
12124 2 8.2391 24.1634 10.9921
80 1 12.3621 22.792 1.20967
12109 2 8.24725 7.25631 11.2341
15051 2 14.0931 1.57399 5.5337
12008 2 5.5629 1.65527 2.65556
243 1 6.63936 8.59776 12.5468
12010 2 11.1859 1.53913 2.68498
12123 2 5.36198 21.2908 11.0929
12108 2 5.56768 4.55281 11.0788
12013 2 2.68009 4.34008 2.71581
12122 2 2.77509 23.9817 11.1227
12107 2 2.6529 7.24806 11.1469
12112 2 2.67929 12.8371 11.081
12017 2 8.25356 4.3791 2.58601
12018 2 5.57438 7.15443 2.76743
12104 2 8.33188 1.62258 11.1471
12020 2 11.2094 7.23345 2.74851
60 1 12.25 19.7414 4.06316
15032 2 13.9587 15.7106 2.672
12023 2 2.5986 10.0771 2.66429
12120 2 11.1217 15.8177 11.0251
12102 2 2.61842 1.8168 11.2349
12113 2 5.42278 10.0834 11.0543
12027 2 8.2509 10.1102 2.33668
12028 2 5.37397 12.7148 2.74777
12100 2 10.8911 24.1456 8.28051
12030 2 10.9481 12.7993 2.87086
12099 2 10.9106 21.3611 5.53583
12098 2 5.50418 24.2311 8.31003
12033 2 2.41347 15.5518 2.61002
412 1 6.78705 14.3379 1.25799
12097 2 8.12766 21.397 8.35865
12096 2 8.1908 24.1791 5.42462
12037 2 8.26947 15.6873 2.59957
12038 2 5.51219 18.4688 2.71132
12095 2 5.32662 21.505 5.44317
12040 2 10.8576 18.3971 2.69415
29 1 6.90126 8.681 1.06472
12093 2 2.55028 21.292 8.35585
12043 2 2.47867 21.1953 2.72182
5723 1 6.87129 0.320062 6.89573
12092 2 2.63977 24.2042 5.51911
5634 1 6.99641 0.249544 1.44946
12047 2 8.26053 21.2443 2.70371
12048 2 5.33018 24.0499 2.61497
12090 2 10.9276 18.5667 8.48057
12050 2 11.0375 24.0446 2.71197
12119 2 8.20746 18.5928 11.13
12052 2 2.68719 1.61337 5.49344
129 1 13.5185 11.1285 6.63756
12118 2 5.48177 15.7848 11.0718
5633 1 6.8475 0.108103 4.18078
12056 2 8.37474 1.49969 5.58079
5726 1 6.67868 0.268752 9.66448
12058 2 5.5319 1.71308 8.16177
15141 2 14.0042 15.5964 13.9543
12060 2 11.169 1.64727 8.23161
12117 2 2.67668 18.3948 11.0763
12062 2 2.55282 7.33957 5.57474
12063 2 2.72414 4.45705 8.26702
12089 2 11.1196 15.7915 5.58791
12065 2 5.46969 4.44976 5.52424
12066 2 8.30616 6.86317 5.42025
12067 2 8.4132 4.38163 8.27213
12068 2 5.56628 7.41428 8.16392
12069 2 11.2273 4.38414 5.49878
12070 2 11.1163 7.12478 8.42063
12115 2 11.149 10.0679 11.1744
12072 2 2.53335 12.9329 5.53045
12073 2 2.48623 10.0481 8.32478
12114 2 8.29214 12.9961 11.2319
12075 2 4.94402 10.1994 5.679
12076 2 8.32198 13.3988 5.62196
12077 2 7.90848 10.0552 5.56478
12078 2 5.45901 12.922 8.15261
12079 2 11.3937 10.1674 5.72607
12080 2 10.9997 12.7782 8.22679
395 1 6.83116 11.4384 1.14921
12082 2 2.7055 18.5467 5.39064
12083 2 2.51933 15.738 8.36838
15081 2 13.4258 18.4557 5.48976
12085 2 5.48492 15.6593 5.44187
12086 2 8.11919 18.4917 5.59791
12087 2 8.16451 15.798 8.43256
12088 2 5.20298 18.6162 8.31074
167 1 12.2454 19.9706 6.93153
15072 2 13.9474 9.89926 8.36217
12136 2 2.68551 10.0254 14.0346
12015 2 5.41421 4.38337 -0.0834012
15116 2 13.842 18.5262 11.066
12012 2 2.61954 7.22692 0.102547
12022 2 2.70073 12.8281 -0.125555
12131 2 2.60933 4.60011 14.0706
12140 2 11.0198 12.9099 13.9967
15041 2 13.836 24.1375 -0.0570597
12031 2 -0.31873 15.5873 -0.0233559
12011 2 -0.0900839 4.35931 -0.137987
12139 2 5.42239 12.8966 14.0208
12032 2 2.70972 18.3618 -0.179185
12143 2 8.21128 15.7448 14.0828
12133 2 8.20941 4.57221 13.8496
12146 2 2.67307 21.2281 13.9698
15146 2 13.9334 21.2354 13.8782
12129 2 5.38267 1.70257 13.7801
12049 2 10.9336 21.2471 -0.158165
12148 2 8.15774 21.2671 13.8933
12046 2 8.14758 24.0892 -0.0908591
12035 2 5.43402 15.5449 -0.138165
12006 2 8.41283 1.63345 -0.167066
12145 2 10.9623 18.493 13.8075
226 1 4.05056 0.244828 15.1516
227 1 1.16765 0.275885 15.2903
228 1 4.01588 3.11033 15.2504
229 1 1.34412 3.08367 15.2535
230 1 9.707 0.267927 15.2928
231 1 6.91214 0.323446 15.1674
232 1 9.66257 3.07307 15.1834
233 1 6.89681 3.15819 15.2115
234 1 12.4945 0.362255 15.1114
235 1 12.576 3.09663 15.3298
236 1 4.13294 5.9691 15.2891
237 1 1.31375 6.07459 15.4493
238 1 4.03307 8.60301 15.2622
239 1 1.22323 8.70791 15.3828
240 1 9.67947 6.04848 15.3575
12204 2 -0.106794 1.6257 25.1827
242 1 9.72787 8.79367 15.3651
5993 1 6.76847 0.158552 23.7534
244 1 12.7288 5.95018 15.2358
245 1 12.59 8.47918 15.2302
246 1 4.15959 11.3272 15.2954
247 1 1.24337 11.4408 15.2211
248 1 3.95183 13.9811 15.3089
249 1 1.14933 14.1507 15.4295
250 1 9.76251 11.4577 15.396
251 1 6.94285 11.6388 15.4967
252 1 9.79439 14.2972 15.3051
253 1 6.68415 14.4123 15.3497
254 1 12.5386 11.3573 15.3882
255 1 12.5248 14.2704 15.3046
256 1 4.11727 16.9 15.2524
257 1 1.18318 17.0571 15.3876
258 1 4.06051 19.8215 15.3864
259 1 1.24911 19.8815 15.2408
260 1 9.73865 17.1255 15.3031
261 1 7.00847 17.1676 15.3043
262 1 9.6614 19.9815 15.235
263 1 6.96828 19.9525 15.3046
264 1 12.4792 17.0692 15.1302
265 1 12.6101 19.7788 15.2939
266 1 4.08791 22.6652 15.257
267 1 1.32944 22.7334 15.371
268 1 9.74213 22.8347 15.3308
269 1 6.77093 22.7001 15.3907
270 1 12.4943 22.6695 15.2051
271 1 1.32109 0.158468 18.2317
272 1 4.02856 0.200921 17.9852
273 1 4.15113 0.36539 21.0884
274 1 1.2461 0.293111 21.0878
275 1 1.32653 3.01393 18.1646
276 1 4.12783 3.05008 17.9208
277 1 3.97007 3.15662 20.8959
278 1 1.24339 3.03818 20.8948
279 1 6.90847 3.04671 18.045
280 1 9.78401 0.312945 18.0717
281 1 9.56606 0.180138 20.8094
282 1 6.80823 2.94176 20.8848
283 1 6.80894 5.78015 18.1431
284 1 9.74 2.98072 18.0775
285 1 9.50851 2.90539 20.961
286 1 6.83188 5.77982 23.77
287 1 12.6367 0.220982 18.0509
288 1 12.485 0.409979 20.8422
289 1 12.5253 2.86031 18.2629
290 1 12.2516 3.06648 21.0012
291 1 1.24339 5.87193 18.1454
292 1 3.98099 5.80292 18.1986
293 1 4.09165 5.84136 20.9276
294 1 1.26328 5.89554 21.0209
295 1 1.18097 8.65289 18.141
296 1 4.19348 8.66058 18.0391
297 1 4.01283 8.72055 20.7963
298 1 1.42081 8.74934 20.8577
299 1 6.9292 5.89487 15.3637
300 1 9.70948 5.79535 18.1231
301 1 9.63945 5.87601 21.1127
302 1 6.80106 5.71077 21.002
303 1 6.80903 8.79068 15.3784
304 1 9.60716 8.60004 18.2024
305 1 9.67185 8.73009 21.0551
306 1 6.94779 8.5401 18.2184
307 1 12.5441 6.00819 18.1723
308 1 12.4144 5.77017 20.9372
309 1 12.6548 8.73913 18.1023
310 1 12.3983 8.67785 20.9655
311 1 1.11061 11.3577 18.1098
312 1 3.94054 11.4697 18.0737
313 1 3.90059 11.5795 20.9792
314 1 1.22047 11.501 20.809
315 1 1.34566 14.1961 18.1513
316 1 4.09067 14.1224 18.1755
317 1 3.95205 14.1497 21.1235
318 1 1.07014 14.2838 20.9817
319 1 6.76719 11.2737 18.3435
320 1 9.59735 11.439 18.0605
321 1 9.51583 11.4431 20.8512
322 1 6.86208 11.3207 21.0787
323 1 6.89769 14.0671 18.0916
324 1 9.60048 14.2458 18.1095
325 1 9.65496 14.2959 20.8798
326 1 6.89399 14.1062 21.0735
327 1 12.4549 11.5804 18.2151
328 1 12.3869 11.5282 20.9103
329 1 12.4127 14.2175 18.1938
330 1 12.4229 14.2901 20.8937
331 1 1.29945 16.993 18.1918
332 1 4.01865 16.9563 18.1312
333 1 4.04217 16.969 20.9574
334 1 1.252 17.0289 21.0333
335 1 1.35324 19.7613 18.0867
336 1 4.06934 19.8012 18.1503
337 1 4.10539 19.8192 20.8942
338 1 1.35808 19.895 20.9348
339 1 6.91774 16.9938 18.1134
340 1 9.84962 17.0416 18.1746
341 1 9.7131 17.2113 20.9209
342 1 6.82556 17.0612 20.968
343 1 6.85517 19.7548 17.9725
344 1 9.79399 19.8682 18.2248
345 1 9.61463 19.9185 21.1122
346 1 6.85593 19.9012 20.7798
347 1 12.4411 17.099 18.0414
348 1 12.5009 17.1664 20.8684
349 1 12.5582 19.8396 18.0269
350 1 12.4543 19.9622 20.8304
351 1 1.19607 22.6649 18.1436
352 1 4.07156 22.652 17.9605
353 1 4.10347 22.7122 20.8553
354 1 1.2173 22.7462 20.9113
355 1 6.83949 22.5959 18.1209
356 1 9.7162 22.5745 18.2496
357 1 9.69617 22.7067 20.9974
358 1 6.9446 22.7351 20.8624
359 1 12.3954 22.682 18.185
360 1 12.5263 22.713 20.9408
361 1 1.37173 0.322092 23.8622
362 1 4.14077 0.0663694 23.852
363 1 4.25256 0.469455 26.6896
364 1 1.36304 0.202662 26.6933
365 1 1.21117 3.11501 23.8297
366 1 4.19863 3.11011 23.7107
367 1 4.11189 3.10066 26.4755
368 1 1.37636 2.8814 26.4173
369 1 6.84629 2.85209 23.6873
370 1 9.73698 0.0984833 23.701
371 1 9.9292 0.246638 26.4589
372 1 6.86942 3.01178 26.5447
373 1 6.9832 5.75852 26.4708
374 1 9.57988 2.90249 23.7783
375 1 9.77802 2.94914 26.5176
376 1 9.79938 5.81448 26.7105
377 1 12.512 0.334171 23.7552
378 1 12.576 0.355036 26.4154
379 1 12.415 3.14287 24.0302
380 1 12.7011 3.01518 26.7469
381 1 1.17887 5.78728 23.7831
382 1 4.01204 5.97022 23.713
383 1 3.97497 5.79133 26.6184
384 1 1.20985 5.6704 26.5572
385 1 1.19085 8.72269 23.8859
386 1 4.03855 8.59968 23.7182
387 1 4.11435 8.61548 26.4433
388 1 1.30852 8.58785 26.6577
389 1 6.88731 8.5474 23.7621
390 1 9.55388 5.74185 23.8917
391 1 9.60657 8.52193 26.7012
392 1 6.87245 8.48396 26.6305
393 1 6.8588 8.4688 21.0276
394 1 9.6289 8.62756 23.8325
12241 2 -0.154617 21.229 22.3716
396 1 6.80686 11.4157 26.6043
397 1 12.354 5.79141 23.7149
398 1 12.4946 5.84402 26.553
399 1 12.5675 8.55395 23.7912
400 1 12.448 8.69236 26.4723
401 1 1.17947 11.5007 23.6939
402 1 4.09804 11.5004 23.704
403 1 3.9977 11.4376 26.4453
404 1 1.32739 11.3902 26.6711
405 1 1.22956 14.2396 23.8625
406 1 3.95613 14.2245 23.761
407 1 4.16945 14.0498 26.5948
408 1 1.36966 14.1392 26.5905
409 1 6.88807 11.3078 23.8616
410 1 9.66887 11.4528 23.6639
411 1 9.69905 11.3351 26.5947
12231 2 -0.15824 15.7768 22.3429
413 1 6.98031 14.0897 23.8208
414 1 9.69841 14.24 23.8121
415 1 9.65444 14.0491 26.6145
416 1 6.91217 14.3168 26.6965
417 1 12.4625 11.4063 23.6464
418 1 12.5393 11.509 26.5161
419 1 12.5563 14.1974 23.9247
420 1 12.487 14.134 26.5787
421 1 1.27692 17.0404 23.9398
422 1 4.16605 17.0211 23.6351
423 1 4.12014 16.8553 26.3814
424 1 1.1326 16.9678 26.7756
425 1 1.22158 19.8163 23.7318
426 1 4.10259 19.8372 23.819
427 1 4.03971 19.7292 26.5255
428 1 1.26553 19.8179 26.565
429 1 6.7532 16.825 23.7968
430 1 9.6737 17.0788 23.6645
431 1 9.72231 16.9465 26.4401
432 1 6.77324 16.9881 26.6148
433 1 6.88541 19.7632 23.5049
434 1 9.47169 19.8656 23.9097
435 1 9.62416 19.7669 26.4739
436 1 6.78356 19.7345 26.4787
437 1 12.4268 16.9053 23.7147
438 1 12.5061 17.1498 26.6086
439 1 12.3608 19.8843 23.6428
440 1 12.264 19.7999 26.6776
441 1 1.26311 22.5193 23.8609
442 1 4.02411 22.4386 23.7032
443 1 4.13486 22.5808 26.6232
444 1 1.3181 22.4812 26.5622
445 1 6.76311 22.6951 23.7101
446 1 9.47343 22.7306 23.8398
447 1 9.57657 22.8335 26.5748
448 1 6.93579 22.486 26.6109
449 1 12.6282 22.6368 23.6997
450 1 12.4323 22.6855 26.4812
12171 2 -0.301894 9.92987 16.7299
12250 2 11.0764 24.0508 25.2736
15201 2 13.7643 1.6965 22.3009
12042 2 2.54485 24.0321 27.9307
5906 1 6.79249 0.189053 20.9614
15221 2 13.9106 12.9472 22.3052
12249 2 11.0378 21.1758 22.3395
15171 2 13.9778 12.949 16.745
12026 2 8.28734 12.7322 27.977
12029 2 11.2359 9.96302 27.9866
15172 2 13.9622 10.1899 19.5619
12248 2 5.39508 24.0025 25.2796
12150 2 10.9374 24.0712 13.8876
15231 2 13.9323 18.4809 22.2316
12045 2 5.44037 21.1495 27.9761
12039 2 11.0644 15.5735 27.9219
12002 2 2.80103 1.50354 28.023
12130 2 11.0252 1.67189 13.9136
12220 2 11.1187 7.09708 25.1606
15232 2 13.9376 15.6954 25.1587
12232 2 2.75512 18.4612 22.3101
12216 2 8.21282 7.12216 22.4378
5903 1 6.83255 0.085388 18.0472
12219 2 10.8822 4.34615 22.3092
12218 2 5.47993 7.11534 25.1096
12247 2 8.14853 21.2081 25.1263
12152 2 2.71511 1.72231 16.6827
12227 2 8.21468 9.91743 25.2004
12246 2 8.31604 24.0755 22.3819
12230 2 11.0167 12.7773 25.2374
12156 2 8.36206 1.71538 16.6446
12229 2 11.0412 10.035 22.3718
12158 2 5.50679 1.65792 19.4651
12217 2 8.23136 4.33549 25.1745
12160 2 11.0882 1.61107 19.5021
12245 2 5.62985 21.0956 22.2638
12162 2 2.86187 7.24511 16.858
12163 2 2.66803 4.38587 19.6028
12228 2 5.57413 12.759 25.1793
12165 2 5.57144 4.43986 16.8036
12166 2 8.25232 7.179 16.7674
12167 2 8.30898 4.47089 19.5812
12168 2 5.48909 7.22162 19.5951
12169 2 11.2871 4.39133 16.6655
12170 2 11.1677 7.38659 19.6026
12243 2 2.58966 21.0817 25.0953
12172 2 2.51457 12.6752 16.7368
12173 2 2.66536 10.1415 19.4473
12242 2 2.56853 23.9823 22.3989
12175 2 5.49849 10.1166 16.7593
12176 2 8.28289 12.8132 16.729
12177 2 8.20749 10.012 19.67
12178 2 5.38563 12.8047 19.6728
12179 2 11.2304 9.94898 16.7274
12180 2 11.0082 12.7664 19.4024
12236 2 8.24654 18.3799 22.282
12182 2 2.73824 18.5227 16.7344
12183 2 2.78672 15.624 19.5159
12223 2 2.6287 10.0588 25.1474
12185 2 5.48111 15.6336 16.7686
12186 2 8.40711 18.5669 16.6435
12187 2 8.43274 15.7317 19.4815
12188 2 5.53445 18.3478 19.4734
12189 2 11.1968 15.7025 16.6483
12190 2 11.0958 18.4632 19.6345
12226 2 8.31477 12.7562 22.3184
12192 2 2.63762 24.1223 16.6684
12193 2 2.75833 21.2335 19.463
12225 2 5.48238 9.93021 22.4575
12195 2 5.36353 21.24 16.7183
12196 2 8.33018 24.1016 16.7493
12197 2 8.34858 21.3318 19.5264
12198 2 5.43768 24.1129 19.4313
12199 2 11.1617 21.1918 16.8003
12200 2 11.1071 24.1647 19.5899
12240 2 11.0043 18.4427 25.0838
12202 2 2.68412 1.69424 22.4277
5996 1 6.99575 0.278825 26.7215
12239 2 10.9931 15.5704 22.3734
12222 2 2.5658 12.8269 22.3613
12206 2 8.30763 1.48199 22.2587
12235 2 5.52807 15.5261 22.4761
12208 2 5.58811 1.59548 25.1541
12233 2 2.71434 15.4782 25.2065
12210 2 11.1093 1.59883 25.0699
12238 2 5.4602 18.3292 25.0789
12212 2 2.59297 7.2764 22.3537
12213 2 2.60569 4.36717 25.0895
12237 2 8.21363 15.6023 25.1435
12215 2 5.49866 4.39738 22.3719
15222 2 13.9301 9.992 25.1813
12135 2 11.192 7.26015 13.7989
15011 2 13.9668 7.2235 28.0078
12016 2 8.26075 7.1633 27.9149
15212 2 13.8635 4.37577 25.2213
15241 2 13.8863 23.9848 22.3052
12174 2 -0.245557 12.8971 19.5399
15242 2 13.673 21.2038 25.2541
15211 2 13.901 7.17015 22.4165
15031 2 13.714 18.6173 28.0194
15021 2 13.9308 12.8211 27.9207
12019 2 11.1775 4.46747 28.0143
12144 2 5.51961 18.4755 13.9588
12128 2 8.29225 -1.14927 14.0364
12134 2 5.35483 7.33667 13.8553
12141 2 2.64492 15.6103 13.9585
12127 2 -0.336738 1.50683 13.8831
15001 2 13.9214 1.56011 27.9641
12025 2 5.45014 9.89823 27.9027
15131 2 13.9761 4.46381 13.994
12149 2 5.37222 24.0766 13.8724
12138 2 8.34315 10.0898 14.0399
12036 2 8.14808 18.4344 27.81
451 1 1.05269 25.4408 1.25224
452 1 4.01571 25.4465 1.21239
453 1 4.13374 25.5852 3.98965
454 1 1.23465 25.5503 3.99604
455 1 6.72603 25.4261 1.20835
456 1 9.51143 25.4212 1.14738
457 1 9.74191 25.6308 4.04956
458 1 6.7971 25.5425 4.17594
459 1 12.3893 31.1535 1.47041
460 1 12.6152 28.2165 4.27844
461 1 1.11425 28.2309 1.32694
462 1 3.98498 28.3621 1.34233
463 1 3.92285 28.2797 3.96821
464 1 1.16256 28.4205 4.08755
465 1 1.09906 31.0202 1.31136
466 1 3.99891 31.1076 1.17209
467 1 3.97631 31.1148 4.15511
468 1 1.28452 31.0966 4.02208
469 1 6.83111 28.0958 1.32899
470 1 9.62613 28.3197 1.28002
471 1 9.6807 28.5151 4.19962
472 1 6.80104 28.373 4.18003
473 1 6.69404 30.7411 1.11625
12356 2 -0.153109 43.8178 11.0897
475 1 9.53092 31.4515 4.17744
476 1 6.77762 31.1567 4.05005
477 1 9.56622 31.1444 1.53142
478 1 9.61219 33.9873 1.60777
15291 2 13.8449 49.4086 2.73967
15252 2 13.8766 26.899 2.65068
481 1 0.866901 33.8726 1.36817
482 1 5.81194 33.2944 1.57548
483 1 4.15864 34.0352 4.30475
484 1 1.26261 33.7711 4.11712
15346 2 13.8729 35.4215 11.2607
486 1 3.49642 34.4827 1.81039
487 1 3.93477 36.8669 4.13741
488 1 1.04873 36.6902 4.41546
489 1 7.15403 35.2471 0.844116
847 1 1.24352 36.7501 1.46357
491 1 9.82945 34.5864 4.35285
492 1 7.03896 34.1415 3.69673
493 1 4.28767 36.7331 0.868291
494 1 9.90321 36.5967 1.23941
495 1 9.60317 37.1741 4.0417
496 1 6.85442 36.8707 4.24588
497 1 12.5728 33.8521 1.27458
498 1 12.5033 33.9105 4.29886
499 1 12.5299 36.7327 1.10985
500 1 12.4699 36.7041 4.08805
501 1 1.22658 39.5977 1.31089
502 1 4.09423 39.612 1.46099
503 1 4.05209 39.6702 4.14143
504 1 1.18409 39.5914 4.01446
505 1 1.17884 42.4933 1.51917
506 1 3.98959 42.5474 1.50712
507 1 3.97025 42.4792 4.2951
508 1 1.19065 42.2922 4.25718
509 1 6.75044 40.0341 1.45034
510 1 9.60835 39.74 1.37956
511 1 9.64259 39.8454 4.20737
512 1 6.7285 39.8162 4.34256
513 1 6.96275 42.657 1.37498
514 1 9.69532 42.3713 1.44563
515 1 9.43611 42.5185 4.17511
516 1 6.86963 42.4849 4.17271
517 1 12.5448 39.7097 1.34586
518 1 12.4686 39.591 4.07926
519 1 12.4864 42.5604 1.20589
520 1 12.4609 42.4525 4.08094
521 1 1.2845 45.2883 1.43168
522 1 4.03269 45.2715 1.44886
523 1 4.01117 45.2413 4.15911
524 1 1.16986 45.0971 4.15564
525 1 1.29138 47.9687 1.36002
526 1 4.04158 48.1671 1.35462
527 1 4.0475 48.035 4.2148
528 1 1.46613 48.034 4.20407
529 1 6.74705 45.4118 1.46011
530 1 9.64786 45.1966 1.34881
531 1 9.58086 45.3515 4.12391
532 1 6.83567 45.1428 4.16913
533 1 6.81653 48.1362 1.24575
534 1 9.61628 48.0997 1.33481
535 1 9.76893 48.2128 4.14803
536 1 7.02549 48.1455 4.08337
537 1 12.4889 45.247 1.22763
538 1 12.5794 45.1102 4.22362
539 1 12.4826 47.9995 1.22809
540 1 12.6083 47.9637 4.17223
541 1 1.12336 25.5759 6.74438
542 1 3.98077 25.8423 6.82205
543 1 3.98048 25.4576 9.65567
544 1 1.40358 25.5782 9.64781
545 1 6.77397 25.6963 7.01951
546 1 9.481 25.6135 6.89361
547 1 9.63741 25.693 9.70576
548 1 6.90742 25.6415 9.69277
549 1 12.376 28.3162 6.92059
550 1 12.3518 25.5764 9.60337
551 1 1.26253 28.2679 6.92762
552 1 4.03401 28.3491 6.87581
553 1 4.02745 28.3636 9.73359
554 1 1.29861 28.3157 9.57447
555 1 1.22192 31.0634 6.92071
556 1 3.93882 31.1195 6.98413
557 1 4.13824 31.1346 9.74967
558 1 1.32922 31.1206 9.63009
559 1 6.84502 28.4391 6.89266
560 1 9.52788 28.4188 6.92661
561 1 9.62666 28.431 9.78191
562 1 6.81733 28.3799 9.73227
563 1 6.653 31.1896 7.10478
564 1 9.50202 31.2462 6.92702
565 1 9.74629 31.2802 9.61224
566 1 6.93145 31.3338 9.81857
567 1 12.2843 31.1872 6.99153
568 1 12.5319 28.3847 9.66072
90 1 12.2694 25.5783 1.24096
570 1 12.3575 31.2533 9.72084
571 1 1.27732 33.9097 6.88105
572 1 3.86418 33.9591 7.00232
573 1 4.05464 34.0109 9.81943
574 1 1.2023 33.9677 9.79169
575 1 1.22385 36.8518 7.04464
576 1 4.0665 36.899 6.85312
577 1 3.87895 36.8027 9.61791
578 1 1.22619 36.7938 9.82462
579 1 6.78008 34.0542 6.8509
580 1 9.67878 33.9613 6.9567
581 1 9.69999 34.1339 9.82786
582 1 6.85752 34.1317 9.58863
583 1 6.7531 36.8219 6.91384
584 1 9.78647 36.8792 6.96746
585 1 9.56817 36.8949 9.71937
586 1 6.69707 36.8066 9.81734
587 1 12.4145 34.0813 6.96899
588 1 12.4448 34.0158 9.79902
589 1 12.5252 36.8248 6.98856
590 1 12.5974 36.9522 9.79736
591 1 1.25476 39.6716 6.95443
592 1 3.93986 39.6941 6.91761
593 1 3.94626 39.671 9.72146
594 1 1.20241 39.5897 9.74104
595 1 1.14153 42.4066 7.05012
596 1 3.8915 42.6462 7.00694
597 1 3.97583 42.464 9.78193
598 1 1.28116 42.3732 9.86112
599 1 6.60761 39.5961 6.95338
600 1 9.59004 39.6649 6.90514
601 1 9.67977 39.672 9.74826
602 1 6.89491 39.5579 9.82427
603 1 6.86917 42.5492 7.07585
604 1 9.7087 42.5027 6.90456
605 1 9.75011 42.3787 9.74724
606 1 6.83656 42.2288 9.73798
607 1 12.4079 39.7697 6.84949
608 1 12.4476 39.8179 9.65065
609 1 12.5534 42.546 6.87682
610 1 12.5244 42.3888 9.64699
611 1 1.4148 45.2746 6.95596
612 1 4.13984 45.3943 7.04189
613 1 3.98663 45.3189 9.77752
614 1 1.15813 45.2121 9.78357
615 1 1.43762 48.0582 6.98333
616 1 4.09546 48.0984 6.88872
617 1 4.0172 48.1106 9.69082
618 1 1.29666 48.1717 9.7497
619 1 6.84054 45.3251 6.95429
620 1 9.72598 45.3251 6.98608
621 1 9.59723 45.2676 9.76266
622 1 6.86883 45.1762 9.76414
623 1 6.8069 48.132 6.96881
624 1 9.60591 48.1147 6.86577
625 1 9.78807 48.0218 9.62815
626 1 6.86726 47.9829 9.72895
627 1 12.4554 45.376 6.97351
628 1 12.4473 45.162 9.81588
629 1 12.6118 48.0915 7.03476
630 1 12.6491 48.0258 9.92285
631 1 1.19292 25.496 12.5398
632 1 3.95834 25.5412 12.4848
633 1 6.72856 25.482 12.506
634 1 9.47512 25.5719 12.5359
635 1 12.3134 25.7195 12.5341
636 1 1.43261 28.3934 12.4037
637 1 4.13087 28.2077 12.6583
638 1 1.07545 31.1078 12.5083
639 1 3.86181 31.2434 12.6487
640 1 6.8303 28.3045 12.7201
641 1 9.7059 28.5405 12.4979
642 1 6.72385 31.167 12.6981
643 1 9.54134 31.3027 12.5962
644 1 12.4174 28.4678 12.6646
645 1 12.4621 31.2092 12.5074
646 1 1.11385 34.2136 12.5323
647 1 3.91815 34.09 12.5368
648 1 1.23336 36.9382 12.5899
649 1 4.07547 36.7439 12.3029
650 1 6.73972 34.0239 12.4321
651 1 9.56568 34.0655 12.5375
652 1 6.89573 36.8451 12.5334
653 1 9.66401 36.8698 12.4519
654 1 12.4177 34.0035 12.4701
655 1 12.4029 36.7845 12.6477
656 1 1.18158 39.6571 12.564
657 1 3.99427 39.6035 12.6452
658 1 1.24152 42.4408 12.5998
659 1 4.02004 42.3705 12.5087
660 1 6.87404 39.7133 12.5745
661 1 9.68937 39.6619 12.5474
662 1 6.93327 42.5932 12.5976
663 1 9.84716 42.4169 12.5664
664 1 12.5154 39.7141 12.5904
665 1 12.6237 42.6068 12.529
666 1 1.38956 45.1554 12.4476
667 1 4.14826 45.1837 12.7291
668 1 1.37023 47.9814 12.57
669 1 4.05565 48.1369 12.6363
670 1 6.943 45.3151 12.5804
671 1 9.74622 45.2419 12.5489
672 1 6.76592 47.9289 12.5568
673 1 9.66001 48.0213 12.4317
674 1 12.7731 45.3089 12.6021
675 1 12.542 48.1372 12.4947
12363 2 11.1836 49.5047 11.0535
89 1 12.5963 28.474 1.42475
12253 2 2.51944 26.8653 2.61787
12362 2 5.42295 49.4955 11.183
15351 2 13.9584 41.1376 11.1704
180 1 12.2966 25.5907 6.85909
12257 2 8.12962 26.7783 2.68028
12258 2 5.26012 29.5849 2.76601
1105 1 6.87016 50.7994 12.5658
12260 2 11.1241 29.7053 2.833
12360 2 11.1745 43.835 11.2194
15316 2 13.8858 41.0952 5.51527
12263 2 2.62705 32.6114 2.72004
12359 2 8.24861 46.6784 11.229
1017 1 12.4971 50.9405 6.80501
15271 2 13.9004 40.9993 -0.128607
12267 2 7.82698 32.4281 2.31601
12268 2 5.18615 35.3943 2.87774
12345 2 11.0883 27.0701 11.0535
12270 2 11.5456 35.2782 2.71163
12358 2 5.4637 43.8768 11.1784
12344 2 8.20582 29.7506 11.2483
12273 2 2.59837 38.2752 2.76387
12357 2 2.70476 46.72 11.1604
12343 2 5.48094 26.9033 11.0524
179 1 12.4141 25.4894 3.94052
12277 2 8.14463 38.8197 2.91508
12278 2 5.35907 41.181 2.83908
15307 2 13.8337 32.6372 8.36757
12280 2 11.1459 41.1572 2.80736
12355 2 11.0193 38.2398 11.1022
15297 2 13.7695 26.9257 8.30689
12283 2 2.65926 43.8482 2.81149
12354 2 8.32221 41.0879 11.1627
851 1 6.75231 37.518 1.80045
15341 2 13.8774 29.813 11.2152
12287 2 8.26675 43.9125 2.74427
12288 2 5.49976 46.7474 2.86044
12361 2 -0.0934558 49.4402 11.0601
12290 2 10.9782 46.6187 2.75362
12353 2 5.34173 38.243 11.1927
12292 2 2.69461 49.3871 2.64996
479 2 10.7949 32.3082 -0.0261691
12294 2 8.39248 49.5792 2.61271
12289 2 11.0912 43.895 -0.147472
15317 2 13.9197 38.2487 8.33037
12297 2 2.63873 29.779 5.42672
12298 2 2.67019 26.9227 8.33878
15296 2 13.9395 29.7868 5.51983
12300 2 5.45935 27.0059 5.51597
12301 2 8.21299 29.8499 5.53819
12302 2 8.28 26.9917 8.38036
12303 2 5.3929 29.6991 8.31168
12304 2 11.0822 27.0647 5.49264
12305 2 11.0187 29.8318 8.33442
12352 2 2.68327 41.0869 11.2482
12307 2 2.5851 35.3566 5.57124
12308 2 2.60583 32.5634 8.23056
569 1 12.456 31.1758 4.20646
12310 2 5.3113 32.3136 5.5891
12311 2 8.2555 35.4114 5.90351
12312 2 8.25676 32.547 8.32319
12313 2 5.24081 35.4227 8.38179
12314 2 11.0442 32.572 5.55815
12315 2 11.0467 35.4705 8.45868
12266 2 8.42968 35.7867 2.71304
12317 2 2.57014 41.1044 5.54711
12318 2 2.54285 38.1878 8.49092
12350 2 10.9223 32.6304 11.0576
12320 2 5.31713 38.2339 5.66704
12321 2 8.26329 41.1993 5.6616
12322 2 8.04224 38.3118 8.43384
12323 2 5.35524 41.1484 8.30226
12324 2 11.136 38.3107 5.58121
12325 2 11.1494 41.125 8.24999
12349 2 8.13903 35.4342 11.0964
12327 2 2.77603 46.5945 5.62211
12328 2 2.62061 43.8874 8.39904