ITEM: TIMESTEP
255000
ITEM: NUMBER OF ATOMS
18000
ITEM: BOX BOUNDS xy xz yz pp pp pp
-1.0986972253832075e-01 2.8003869722539090e+01 0.0000000000000000e+00
-9.9471652735625660e-01 3.3572271652738965e+02 0.0000000000000000e+00
-1.0463047448656226e-01 2.7998630474487157e+01 0.0000000000000000e+00
ITEM: ATOMS id type x y z
1 1 1.54761 0.0743909 1.29717
2 1 4.27415 0.300275 1.39202
3 1 4.17813 0.207737 4.346
4 1 1.46872 0.222121 4.22239
5 1 1.52407 3.01411 1.46403
6 1 4.30739 3.10692 1.4476
7 1 4.07138 3.07731 4.27381
8 1 1.19835 3.09676 4.27573
9 1 7.03645 3.11527 1.30031
10 1 9.97009 0.304379 1.31006
11 1 9.95232 0.275402 4.11693
12 1 7.03635 2.96737 4.206
13 1 7.08563 5.8241 1.40975
14 1 9.82814 3.14037 1.33171
15 1 9.86246 2.95031 4.10499
16 1 7.03889 5.78457 4.13764
17 1 12.8597 0.293233 1.20625
18 1 12.8093 0.168311 4.01702
19 1 12.5994 3.12448 1.32998
20 1 12.7958 2.97726 4.06722
21 1 1.57133 6.03157 1.56372
22 1 4.33421 5.95857 1.66311
23 1 4.30986 6.01776 4.31581
24 1 1.51129 5.86893 4.24916
25 1 1.42275 8.79125 1.37545
26 1 4.30672 8.82546 1.42301
27 1 3.885 11.8102 4.04939
28 1 1.31362 8.63062 4.21378
15116 2 13.8925 18.5041 11.1337
30 1 9.69629 5.88861 1.32263
31 1 10.0705 5.7268 4.06417
32 1 6.49398 8.32033 5.42121
33 1 6.56022 10.2678 3.45335
34 1 9.93507 8.70101 1.25185
35 1 8.54762 8.08825 3.63756
36 1 6.40957 12.1787 5.44643
37 1 12.587 5.94888 1.34763
38 1 12.7196 5.76104 4.28254
39 1 12.7052 8.70968 1.24027
40 1 12.6604 8.60152 4.1948
41 1 1.25382 11.5516 1.36013
42 1 4.27224 11.7215 1.29049
43 1 6.87758 14.6578 4.02036
44 1 1.17854 11.4967 4.23373
45 1 1.33234 14.4327 1.382
46 1 4.23898 14.5424 1.36371
47 1 3.96596 14.4509 4.28385
48 1 1.23564 14.4068 4.20912
49 1 3.91918 8.77424 4.09341
50 1 9.98118 11.5164 1.16156
51 1 10.1161 9.93908 4.11413
52 1 8.64627 12.1298 3.5775
53 1 7.0397 17.311 4.21851
54 1 9.73893 14.3694 1.44569
55 1 12.5644 14.528 3.94977
56 1 9.79704 14.7808 4.11413
57 1 12.6744 11.4986 1.27091
58 1 12.7229 11.6822 3.84966
59 1 12.5155 14.2587 1.10673
15071 2 13.8209 13.1905 5.34956
61 1 1.412 17.3132 1.24131
62 1 4.29961 17.0527 1.47089
63 1 4.29788 17.4529 4.20547
64 1 1.32919 17.1902 4.03446
65 1 1.31686 20.0206 1.42623
66 1 4.18271 19.9858 1.36561
67 1 4.09901 20.0893 4.35765
68 1 1.40395 20.1238 4.13133
69 1 7.02605 17.3931 1.3259
70 1 9.72957 17.3015 1.13688
71 1 12.5894 17.3031 4.0894
72 1 9.65052 17.3058 4.04872
73 1 6.8186 20.1499 1.31488
74 1 9.62259 19.9868 1.41748
75 1 9.9155 20.19 4.16749
76 1 7.06946 20.0506 4.10073
77 1 12.6476 17.0658 1.29686
12054 2 -0.104836 1.74195 8.29376
79 1 12.5313 19.917 1.25102
12094 2 -0.0682534 24.1512 8.23174
81 1 1.33077 22.8295 1.23223
82 1 4.17639 22.6718 1.2755
83 1 4.17475 22.7876 4.17406
84 1 1.42518 22.9006 4.14937
85 1 6.9222 22.8804 1.39534
86 1 9.85508 22.9298 1.25404
87 1 9.68501 22.8578 4.03887
88 1 6.93977 22.7289 4.14379
12116 2 -0.0280174 15.7826 11.2679
12121 2 -0.0224203 21.4795 11.2089
91 1 1.28205 0.263534 7.01727
92 1 4.12031 0.379867 7.27218
93 1 4.23596 2.77464 9.82633
94 1 1.58115 0.165408 9.69648
95 1 1.37488 3.10512 7.05882
96 1 4.18615 3.15317 7.00101
97 1 6.92959 5.86248 9.84423
98 1 1.48424 3.0704 9.81204
99 1 6.91249 3.14535 6.86667
100 1 9.79794 0.275596 6.93687
101 1 9.74708 0.279052 9.82428
102 1 7.09693 3.21433 9.68147
103 1 7.11622 5.91958 7.07513
104 1 9.91445 3.05105 6.89729
105 1 9.91018 2.97268 9.81546
106 1 6.99149 5.92513 12.6339
107 1 12.4923 0.140791 6.89394
108 1 12.6058 0.222378 9.71224
109 1 12.6377 2.9565 6.96997
110 1 12.7203 2.99373 9.64256
111 1 1.53652 5.81985 6.982
112 1 4.22833 6.06779 7.03475
113 1 4.22815 8.7121 9.63063
114 1 1.26268 5.95381 9.79952
115 1 1.34395 8.75538 6.88351
116 1 4.11976 8.90433 6.97043
117 1 6.62087 9.96688 7.30621
118 1 1.29618 8.80309 9.74379
119 1 9.42329 8.8297 6.78575
120 1 9.86689 5.88943 7.05129
121 1 9.68171 5.97761 9.74971
122 1 7.20582 8.69912 9.70717
123 1 8.68846 11.7785 7.02631
124 1 12.6987 8.50496 6.97477
125 1 11.1426 10.5988 7.91559
126 2 8.73511 10.1902 8.6159
127 1 12.6498 5.72305 7.0226
128 1 12.5773 5.72301 9.8056
12044 2 -0.00319975 24.168 2.64623
130 1 12.7947 11.573 9.70932
131 1 1.32055 11.6528 6.90793
132 1 3.93712 11.6351 6.97095
133 1 4.24005 11.3781 9.66603
134 1 1.46 11.631 9.75609
135 1 1.36909 14.4514 7.08694
136 1 4.28713 14.4656 7.08493
137 1 4.30894 14.3185 9.82556
138 1 1.43585 14.3318 9.99137
139 1 9.80096 14.6186 7.0381
140 1 10.8349 12.4677 5.54963
141 1 9.84523 11.6992 9.98137
142 1 7.08417 11.6393 9.85197
143 1 6.99652 14.4282 6.78672
144 1 9.85335 17.3252 6.88119
145 1 9.89523 14.3016 9.69659
146 1 7.13028 14.348 9.68803
147 1 12.7073 14.1097 6.9492
148 1 12.5711 14.2776 9.66906
149 1 12.4948 17.198 7.00171
150 1 12.5314 17.1881 9.76862
151 1 1.38207 17.142 7.03936
152 1 4.14169 17.2351 6.94204
153 1 4.16758 17.3367 9.79169
154 1 1.57505 17.1274 9.97523
155 1 1.38485 19.9878 6.91006
156 1 4.22972 19.9491 7.05361
157 1 4.1173 20.0137 10.0369
158 1 1.41536 20.14 9.61323
159 1 6.86368 17.1452 6.93192
160 1 12.5178 22.8737 4.18172
161 1 9.84152 17.21 9.89497
162 1 6.99734 17.2128 9.98468
163 1 7.06323 19.966 6.96342
164 1 9.89128 20.0545 6.98567
165 1 9.73299 20.0733 9.76591
166 1 7.01499 19.9942 9.71595
241 1 9.71352 8.64663 12.5942
168 1 12.5751 19.9696 9.87641
169 1 12.5506 22.818 7.00257
170 1 12.504 22.8693 9.83766
171 1 1.32654 22.7541 6.93838
172 1 4.14943 22.7492 6.94718
173 1 4.13248 22.8805 9.7381
174 1 1.24276 23.0355 9.8057
175 1 7.05784 22.7365 6.81269
176 1 9.86994 22.8071 6.73238
177 1 9.64502 22.7667 9.64388
178 1 6.87536 22.7844 9.7146
12064 2 -0.039739 7.28409 8.36362
12004 2 0.0332275 1.65557 2.84024
181 1 1.44242 0.162205 12.5959
182 1 4.27753 0.484821 12.0691
183 1 1.40147 2.99328 12.6973
184 1 4.24938 3.24659 12.5353
185 1 6.96979 0.31427 12.6679
186 1 9.65175 0.288132 12.5396
187 1 7.0695 3.02275 12.4552
188 1 9.89779 3.06666 12.627
189 1 12.6053 0.296919 12.573
190 1 12.6232 3.1321 12.6616
191 1 1.28705 5.89646 12.5082
192 1 4.14232 5.7301 9.8043
193 1 1.51306 8.49366 12.5635
194 1 4.21096 8.7587 12.3807
195 1 4.28333 5.98234 12.5288
196 1 9.87588 5.91253 12.4899
197 1 9.86599 8.60409 9.78959
198 1 12.5445 8.62114 9.84173
199 1 12.6805 5.91247 12.5679
200 1 12.5788 8.74238 12.6152
201 1 1.3835 11.366 12.5632
202 1 4.29017 11.5096 12.4277
203 1 1.10794 14.3832 12.7605
204 1 3.92714 14.2244 12.6824
205 1 7.09566 11.6078 12.5044
206 1 9.79866 11.5535 12.5725
207 1 7.0288 14.4151 12.4179
208 1 9.86188 14.47 12.5839
209 1 12.6483 11.4022 12.7791
210 1 12.6625 14.1227 12.4971
211 1 1.23514 17.42 12.642
212 1 4.08685 17.1504 12.6733
213 1 1.25541 20.2121 12.7117
214 1 4.07029 20.0056 12.8168
215 1 6.89888 17.2246 12.6971
216 1 9.76884 17.3405 12.6272
217 1 6.97659 19.9045 12.6272
218 1 9.73274 20.0764 12.6467
219 1 12.5891 17.0002 12.5097
220 1 12.5286 19.8161 12.5774
221 1 1.36779 22.862 12.4725
222 1 4.14882 22.8122 12.6042
223 1 6.95341 22.7841 12.4571
224 1 9.7722 22.796 12.4411
225 1 12.7227 22.6644 12.5247
12125 2 11.195 21.4017 11.2159
12110 2 11.2194 4.38522 11.1236
12081 2 0.0335555 15.8161 5.64358
12124 2 8.32658 24.1472 11.1503
80 1 12.536 22.9281 1.40251
12109 2 8.40281 7.25974 11.216
12150 2 11.1887 24.1715 13.8676
12008 2 5.59435 1.75459 2.8344
243 1 7.12313 8.78236 12.4119
12010 2 11.3872 1.60431 2.68061
12123 2 5.58593 21.2881 11.2973
12108 2 5.64234 4.51055 11.1625
12013 2 2.9177 4.64613 2.97104
12122 2 2.71224 24.1935 11.2257
12107 2 2.79388 7.16414 11.1714
12112 2 2.86561 12.8847 11.076
12017 2 8.47253 4.41093 2.74996
12018 2 5.75202 7.47773 2.91279
12104 2 8.35793 1.67525 11.1806
12020 2 11.17 7.33961 2.67129
60 1 12.755 20.125 4.0489
12074 2 0.0710067 13.0172 8.50015
12023 2 2.53914 10.2254 2.75801
12120 2 11.2625 15.7103 11.1485
12102 2 2.72158 1.74788 11.162
12113 2 5.67146 10.155 11.0991
12027 2 8.5775 10.0989 2.21076
12028 2 5.59412 12.9611 2.88868
12100 2 11.0786 24.0996 8.42466
12030 2 11.1115 12.9431 2.61345
12099 2 11.2315 21.43 5.49418
12098 2 5.47263 24.1909 8.39768
12033 2 2.82948 15.9649 2.82325
412 1 6.95917 14.5652 1.25184
12097 2 8.38978 21.3297 8.24161
12096 2 8.30779 24.1027 5.46017
12037 2 8.27164 15.9219 2.74793
12038 2 5.57067 18.6387 2.72764
12095 2 5.64452 21.3764 5.44017
12040 2 11.1022 18.5937 2.73355
29 1 6.98593 8.64625 1.0927
12093 2 2.75356 21.4702 8.37843
12043 2 2.9046 21.35 2.79472
5723 1 6.97511 0.279546 6.96191
12092 2 2.75145 24.166 5.53326
5634 1 7.16163 0.408162 1.41414
12047 2 8.38522 21.4149 2.70009
12048 2 5.42939 24.245 2.75691
12090 2 11.2231 18.6426 8.37947
12050 2 11.0554 24.2638 2.72189
12119 2 8.38111 18.6707 11.2391
12052 2 2.7057 1.78311 5.64643
12133 2 8.43503 4.47349 13.9303
12118 2 5.63126 15.8305 11.2872
5633 1 7.00352 0.245066 4.25879
12056 2 8.40619 1.56441 5.51451
5726 1 6.84796 0.304763 9.65385
12058 2 5.62356 1.67855 8.26706
12024 2 0.0519022 13.0107 2.8085
12060 2 11.2829 1.59462 8.31884
12117 2 2.76346 18.626 11.3459
12062 2 2.8327 7.29823 5.57418
12063 2 2.78516 4.56822 8.34973
12089 2 11.2873 15.8145 5.65624
12065 2 5.60617 4.46775 5.58886
12066 2 8.46329 6.89538 5.53737
12067 2 8.45559 4.46735 8.44354
12068 2 5.68765 7.4468 8.14982
12069 2 11.4278 4.33489 5.63116
12070 2 11.2886 7.22339 8.34183
12115 2 11.2777 10.2176 11.074
12072 2 2.54849 13.031 5.57608
12073 2 2.71163 10.0746 8.3585
12114 2 8.33521 12.9737 11.2119
12075 2 5.02552 10.2683 5.42969
12076 2 8.49339 13.4999 5.33122
12077 2 8.18155 10.3075 5.26649
12078 2 5.78371 12.867 8.12836
12079 2 11.7171 10.2276 5.64544
12080 2 11.1501 12.9131 8.41537
395 1 7.07308 11.6365 1.20383
12082 2 2.81684 18.7401 5.63571
12083 2 2.90477 15.73 8.47483
15081 2 13.8213 18.5272 5.56078
12085 2 5.48668 15.8428 5.5263
12086 2 8.41594 18.5638 5.56895
12087 2 8.46129 15.9569 8.41788
12088 2 5.61968 18.6252 8.30087
167 1 12.7121 19.9915 7.05624
12091 2 0.0147938 21.3264 5.51728
12106 2 -0.0262228 4.54445 11.1797
12014 2 0.0372113 7.27016 2.77295
12061 2 -0.0712553 4.51923 5.59277
129 1 13.7656 11.3034 6.65834
12034 2 -0.0115008 18.5773 2.86721
12111 2 -0.0716112 10.0222 11.1217
12084 2 0.101563 18.5944 8.51468
12134 2 5.48924 7.29174 13.9364
12025 2 5.53581 10.2056 -0.159134
12026 2 8.40089 13.0655 -0.104806
12022 2 2.76871 12.9591 0.0615032
12136 2 2.83121 10.1143 13.8619
12031 2 -0.0578175 15.7874 -0.0104789
15146 2 13.9814 21.2635 13.9427
12016 2 8.45787 7.20559 -0.0803956
12049 2 11.1613 21.4414 -0.0404102
12011 2 0.183942 4.50195 0.018778
12015 2 5.70831 4.51407 -0.0396431
12006 2 8.49465 1.68379 -0.0818695
12140 2 11.2734 12.946 13.9187
12149 2 5.60833 24.2785 13.9443
12141 2 2.61585 15.7635 13.9688
12039 2 11.1561 15.7342 -0.128836
12002 2 3.01945 1.62918 0.0982591
12137 2 -0.0971314 12.8339 13.9894
12032 2 2.71244 18.5389 -0.00723014
12129 2 5.67662 1.76233 13.8758
12138 2 8.51047 10.1318 13.9574
12021 2 -0.0800464 10.0996 -0.0329842
12012 2 2.98597 7.39405 0.000375645
226 1 4.27373 0.247791 15.1188
227 1 1.4536 0.195073 15.4134
228 1 4.22745 2.95953 15.4339
229 1 1.30756 2.90522 15.5471
230 1 9.93311 0.0996678 15.4376
231 1 6.99167 0.280504 15.4648
232 1 9.83439 3.05114 15.3588
233 1 7.13146 3.10607 15.2457
234 1 12.7354 0.288199 15.3444
235 1 12.7749 3.2114 15.3697
236 1 4.02171 5.83464 15.2404
237 1 1.3735 5.76557 15.3453
238 1 4.08398 8.76916 15.3885
239 1 1.25596 8.60972 15.3842
240 1 9.72427 5.98815 15.2528
12164 2 0.0601298 7.31043 19.622
242 1 9.84847 8.86081 15.3225
5993 1 6.97799 0.282977 23.7605
244 1 12.635 6.00398 15.5119
245 1 12.5479 8.69874 15.3837
246 1 4.11645 11.4806 15.3478
247 1 1.4272 11.5035 15.3464
248 1 4.16561 14.3214 15.4377
249 1 1.34388 14.3553 15.6805
250 1 9.7227 11.4748 15.3894
251 1 6.91767 11.6577 15.2081
252 1 9.76505 14.5745 15.3398
253 1 6.87734 14.4782 15.2544
254 1 12.6525 11.6488 15.4551
255 1 12.6374 14.2953 15.3398
256 1 4.28818 17.223 15.3866
257 1 1.30356 17.1829 15.4527
258 1 4.12059 20.1015 15.5649
259 1 1.1237 19.9202 15.4425
260 1 9.78707 17.2998 15.4736
261 1 6.95488 17.108 15.517
262 1 9.67626 20.1139 15.5821
263 1 7.03041 19.9288 15.4901
264 1 12.567 17.2737 15.4195
265 1 12.5209 19.9887 15.3676
266 1 4.23613 23.0148 15.4483
267 1 1.35017 22.805 15.543
268 1 9.72631 22.7728 15.2997
269 1 6.89933 22.7962 15.3168
270 1 12.4417 22.7744 15.3569
271 1 1.42714 0.396911 18.1593
272 1 4.18616 0.283049 18.0338
273 1 4.15749 0.325023 20.9996
274 1 1.32857 0.28498 21.0811
275 1 1.41344 3.17965 18.3421
276 1 4.34088 3.17822 18.0908
277 1 4.11035 3.18785 21.011
278 1 1.34602 3.16177 21.1582
279 1 7.09154 3.05583 18.0304
280 1 9.93977 0.191669 18.3071
281 1 9.84312 0.125929 21.0247
282 1 7.00138 3.03835 20.8128
283 1 7.07486 5.83075 18.1187
284 1 9.747 3.05192 17.9696
285 1 9.80084 3.08512 20.8266
286 1 7.17305 5.78207 23.7906
287 1 12.9099 0.193492 18.0625
288 1 12.6135 0.345692 20.9031
289 1 12.5861 2.99046 18.049
290 1 12.6144 3.07075 21.0623
291 1 1.57118 5.86327 18.3069
292 1 4.24827 5.84875 18.2485
293 1 4.39564 5.92909 21.0398
294 1 1.43045 6.02768 21.1832
295 1 1.32746 8.72559 18.1505
296 1 4.10163 8.66466 18.3729
297 1 4.16568 8.66503 20.9848
298 1 1.43972 8.66993 21.0508
299 1 6.95878 5.99076 15.4627
300 1 9.88924 5.97764 18.0635
301 1 10.0271 5.86332 20.9163
302 1 7.22092 5.85182 20.8152
303 1 6.93395 8.8413 15.3266
304 1 9.73226 8.7483 18.1631
305 1 9.94189 8.59907 20.9939
306 1 6.9103 8.65819 18.1674
307 1 12.5377 5.74173 18.1658
308 1 12.8176 5.75648 20.9149
309 1 12.5954 8.73757 18.2494
310 1 12.7563 8.74198 20.9321
311 1 1.48823 11.4849 18.256
312 1 4.28723 11.4341 18.2641
313 1 4.26185 11.4151 21.1855
314 1 1.48676 11.6723 21.0195
315 1 1.35625 14.2774 18.5678
316 1 4.08503 14.2716 18.2736
317 1 4.41754 14.294 21.1248
318 1 1.44833 14.4351 21.1869
319 1 6.90878 11.6312 18.0729
320 1 9.83755 11.6437 18.1444
321 1 9.66871 11.4079 20.9146
322 1 7.03581 11.4722 20.9119
323 1 6.97861 14.446 18.0205
324 1 9.71128 14.3814 18.2099
325 1 9.78461 14.3968 21.0144
326 1 7.07423 14.2596 21.071
327 1 12.5202 11.5606 18.3145
328 1 12.6181 11.4863 21.0393
329 1 12.5985 14.3854 18.1414
330 1 12.4876 14.4491 20.8932
331 1 1.55601 17.0029 18.1553
332 1 4.27001 17.0663 18.3284
333 1 4.25904 17.2527 21.0146
334 1 1.47756 17.2058 20.9074
335 1 1.47101 19.9002 18.1761
336 1 4.08788 19.8834 18.1988
337 1 4.14807 20.0817 21.1864
338 1 1.44905 19.9282 20.9642
339 1 7.05004 17.1334 18.3188
340 1 9.82141 17.2471 18.3665
341 1 9.92838 17.2183 21.0099
342 1 6.99981 17.128 21.176
343 1 7.08822 20.0407 18.2258
344 1 9.80378 20.1474 18.3807
345 1 9.97908 19.9946 21.11
346 1 7.0235 20.028 21.0569
347 1 12.6735 17.1595 18.2424
348 1 12.5777 17.2871 21.0611
349 1 12.585 19.9351 18.2613
350 1 12.6302 20.0258 21.1385
351 1 1.39926 22.7484 18.343
352 1 4.14761 22.7527 18.1444
353 1 4.19804 22.9736 21.0598
354 1 1.41374 22.7074 21.0376
355 1 6.9695 22.921 18.1979
356 1 9.8434 22.8978 18.1258
357 1 9.70293 22.7679 21.0194
358 1 6.93398 22.8234 20.9569
359 1 12.6906 22.8179 18.2179
360 1 12.636 22.9542 21.0618
361 1 1.52939 0.341985 23.9597
362 1 4.27767 0.227429 23.7128
363 1 4.28796 0.415898 26.7025
364 1 1.51373 0.268496 26.6753
365 1 1.34263 3.15491 23.874
366 1 4.20271 3.15786 23.8884
367 1 4.3702 3.2009 26.6731
368 1 1.47986 3.1172 26.8174
369 1 7.1326 3.08481 23.6426
370 1 9.93097 0.260574 23.89
371 1 9.91695 0.184739 26.5441
372 1 7.08357 3.04949 26.5717
373 1 6.99163 5.92858 26.6762
374 1 9.74568 3.11342 23.8478
375 1 9.82875 3.07003 26.7565
376 1 9.85988 5.90769 26.5937
377 1 12.5861 0.326322 23.8298
378 1 12.5482 0.258771 26.6275
379 1 12.5272 3.10372 23.8467
380 1 12.7551 3.12294 26.6029
381 1 1.47586 5.95201 23.9594
382 1 4.28619 6.03737 23.7839
383 1 4.18557 5.90797 26.688
384 1 1.49888 5.9433 26.5997
385 1 1.49024 8.69054 23.9063
386 1 4.24518 8.80353 23.7732
387 1 4.34855 8.72992 26.6227
388 1 1.50941 8.8383 26.7656
389 1 7.02299 8.68097 23.8148
390 1 9.87342 5.93114 23.8577
391 1 9.88431 8.66753 26.7294
392 1 7.1267 8.64725 26.5562
393 1 7.15576 8.67688 21.0178
394 1 9.93313 8.7034 23.9224
12214 2 0.0842966 7.32953 25.2255
396 1 6.98611 11.4758 26.5353
397 1 12.6469 5.77561 23.772
398 1 12.4965 5.9838 26.5745
399 1 12.6427 8.64524 23.6952
400 1 12.6893 8.7813 26.5526
401 1 1.31502 11.6012 23.7448
402 1 4.17666 11.633 23.9827
403 1 4.12462 11.578 26.759
404 1 1.25778 11.7326 26.545
405 1 1.55841 14.4693 23.919
406 1 4.34868 14.4716 23.9393
407 1 4.31204 14.4691 26.6502
408 1 1.43169 14.4414 26.7656
409 1 7.07724 11.588 23.9137
410 1 9.98232 11.4741 23.7983
411 1 9.77492 11.5251 26.6248
12194 2 0.0131233 24.1675 19.7037
413 1 6.99434 14.3631 23.8534
414 1 9.78949 14.3788 23.8681
415 1 9.88259 14.4444 26.7305
416 1 7.14422 14.3588 26.6354
417 1 12.6765 11.5184 23.6464
418 1 12.468 11.4558 26.4137
419 1 12.6423 14.4932 23.663
420 1 12.694 14.2332 26.5026
421 1 1.3158 17.2708 23.779
422 1 4.11803 17.2729 23.78
423 1 4.17709 17.1582 26.6173
424 1 1.2746 17.256 26.7497
425 1 1.46825 20.1414 23.8412
426 1 4.31255 20.0854 23.8211
427 1 4.18969 20.0393 26.696
428 1 1.48503 20.0975 26.6805
429 1 7.07559 17.1846 23.892
430 1 9.69809 17.1594 23.6227
431 1 9.78413 17.4723 26.4005
432 1 6.95931 17.3194 26.5378
433 1 6.92665 20.156 23.7874
434 1 9.86406 20.2234 23.8501
435 1 9.75099 20.1671 26.6135
436 1 6.98765 20.2468 26.4694
437 1 12.5515 17.3263 23.7846
438 1 12.5113 17.0705 26.5781
439 1 12.6389 20.0989 23.9263
440 1 12.5709 19.9304 26.6662
441 1 1.41499 22.914 23.7309
442 1 4.29632 22.855 23.8481
443 1 4.16609 22.8092 26.5781
444 1 1.33631 22.9175 26.5766
445 1 6.83438 22.9392 23.8579
446 1 9.62823 22.969 23.8159
447 1 9.84784 22.9209 26.5736
448 1 6.96507 22.9282 26.6583
449 1 12.6578 23.0414 23.8164
450 1 12.5857 22.9309 26.6253
12132 2 -0.0572901 7.2784 13.9725
12250 2 11.2122 24.2647 25.076
12231 2 0.0329162 15.7967 22.4436
15171 2 13.9868 12.8883 16.8406
5906 1 6.98292 0.189644 20.8922
15201 2 13.9074 1.69287 22.4071
12249 2 11.2509 21.4616 22.4725
12181 2 -0.088542 15.7615 16.9112
12171 2 0.00892964 10.1724 16.7049
12139 2 5.58716 12.9254 13.948
15031 2 13.7799 18.424 28.0244
12248 2 5.64605 24.2776 25.2584
12161 2 -0.0408609 4.33815 16.7268
12221 2 0.0933018 10.1758 22.4667
12154 2 0.0815874 1.71264 19.6609
15162 2 13.9859 4.39095 19.625
12241 2 0.0479541 21.3856 22.4803
12184 2 -0.0306712 18.4742 19.6046
12220 2 11.1941 7.27978 25.241
12144 2 5.61509 18.5963 14.1562
12232 2 2.81089 18.5223 22.3564
12216 2 8.46554 7.32976 22.3634
5903 1 6.94097 0.229126 18.0657
12219 2 11.191 4.52376 22.2918
12218 2 5.64182 7.26721 25.1978
12247 2 8.44926 21.5052 25.2445
12152 2 2.7673 1.76611 16.7621
12227 2 8.3512 10.128 25.2923
12246 2 8.3711 24.204 22.4502
12230 2 11.2912 12.8939 25.1553
12156 2 8.43424 1.49519 16.7528
12229 2 11.2384 10.0685 22.29
12158 2 5.62398 1.63974 19.4522
12217 2 8.48515 4.53371 25.1974
12160 2 11.3516 1.61782 19.4743
12245 2 5.70768 21.5165 22.4065
12162 2 2.74564 7.37242 16.8322
12163 2 2.81897 4.496 19.6082
12228 2 5.65078 12.9334 25.2025
12165 2 5.74745 4.50981 16.7065
12166 2 8.39578 7.3435 16.7537
12167 2 8.41867 4.39086 19.5384
12168 2 5.62353 7.26026 19.562
12169 2 11.1536 4.49581 16.615
12170 2 11.2616 7.22605 19.5407
12243 2 2.85801 21.4002 25.2979
12172 2 2.80576 12.8319 16.7957
12173 2 2.82493 10.1353 19.6509
12242 2 2.79836 24.232 22.4694
12175 2 5.51669 10.0943 16.779
12176 2 8.36682 12.9566 16.7061
12177 2 8.34388 10.077 19.4525
12178 2 5.56029 12.942 19.6121
12179 2 11.1805 10.1618 16.8227
12180 2 11.1396 12.991 19.6452
12236 2 8.46911 18.5995 22.3705
12182 2 2.74213 18.5518 16.8619
12183 2 2.86334 15.741 19.6254
12223 2 2.78024 10.1276 25.3617
12185 2 5.52398 15.7768 16.8509
12186 2 8.50897 18.4811 16.8934
12187 2 8.3028 15.7084 19.8065
12188 2 5.63502 18.5753 19.6796
12189 2 11.2123 15.7564 16.7371
12190 2 11.1852 18.6318 19.7169
12226 2 8.42759 12.8512 22.4709
12192 2 2.77445 24.2458 16.8346
12193 2 2.86686 21.3929 19.6306
12225 2 5.57121 10.1251 22.4524
12195 2 5.63472 21.3915 16.8124
12196 2 8.40549 24.2958 16.7594
12197 2 8.3195 21.508 19.5789
12198 2 5.58785 24.4059 19.5557
12199 2 11.2086 21.4064 16.8248
12200 2 11.1931 24.2384 19.6295
12240 2 11.2553 18.7259 25.2309
12202 2 2.83499 1.58994 22.4961
5996 1 7.13068 0.347799 26.7501
12239 2 11.1559 15.8417 22.448
12222 2 2.76094 12.9684 22.4477
12206 2 8.39181 1.62039 22.2577
12235 2 5.59222 15.791 22.5025
12208 2 5.74781 1.75047 25.1529
12233 2 2.77153 15.754 25.3317
12210 2 11.1987 1.67191 25.227
12238 2 5.51863 18.6468 25.0861
12212 2 2.83856 7.36069 22.4701
12213 2 2.87902 4.53542 25.3695
12237 2 8.40568 15.734 25.2465
12215 2 5.61117 4.4212 22.3489
12131 2 2.82279 4.36655 14.0545
12204 2 0.0109192 1.73904 25.3541
12029 2 11.2481 10.0641 27.8748
12174 2 -0.0624695 13.0236 19.7925
12234 2 0.118313 18.6501 25.2083
12191 2 -0.0241377 21.4823 16.9077
12046 2 8.23761 24.2329 28.1063
12244 2 0.00428516 24.2766 25.1434
12224 2 -0.110457 13.0219 25.2767
12143 2 8.39866 15.8482 13.9888
12145 2 11.2172 18.5891 13.9244
15221 2 14.0634 13.0068 22.3772
12019 2 11.2208 4.49798 28.0665
12127 2 -0.0210576 1.56348 14.006
12135 2 11.081 7.34536 13.9461
12045 2 5.51091 21.4769 27.9176
12211 2 -0.0417427 4.60104 22.511
12130 2 11.2591 1.67097 14.0383
12042 2 2.83249 24.1505 27.8554
12041 2 0.0207857 21.3836 27.9871
15041 2 13.9035 24.3296 27.8301
12036 2 8.22126 18.7101 27.8673
12147 2 -0.0393051 24.2315 13.9585
12148 2 8.37615 21.3939 13.9957
12146 2 2.73144 21.3814 14.0905
12035 2 5.62036 15.7663 28.0813
451 1 1.34286 25.5962 1.1509
452 1 4.04804 25.4781 1.25621
453 1 3.97408 25.5649 4.12993
454 1 1.10883 25.7313 4.05554
455 1 6.93676 25.6449 1.50753
456 1 9.68859 25.6922 1.27617
457 1 9.74028 25.6646 4.10437
458 1 6.77186 25.52 4.28352
459 1 12.4918 31.3489 1.43188
460 1 12.5481 28.3947 4.04892
461 1 1.22304 28.5654 1.34229
462 1 4.03008 28.3928 1.20674
463 1 4.0421 28.2802 4.14273
464 1 1.31906 28.4517 4.18093
465 1 1.41312 31.1184 1.31878
466 1 4.14693 31.1086 1.38244
467 1 3.94016 31.1013 4.20621
468 1 1.22662 31.2289 4.18483
469 1 6.8651 28.387 1.30315
470 1 9.5815 28.4512 1.39803
471 1 9.70674 28.3551 4.13363
472 1 6.86357 28.216 4.13273
473 1 6.94646 31.1285 1.2768
12326 2 -0.0352925 43.8547 5.49941
475 1 9.72562 31.0361 4.15022
476 1 6.91593 31.0256 4.12179
477 1 9.76113 31.201 1.42488
478 1 9.64888 34.1029 1.42872
12376 2 8.35108 38.2397 13.8646
909 1 6.81298 50.8644 1.42833
481 1 0.929471 33.7807 1.17023
482 1 4.32167 34.0097 0.753093
483 1 3.88655 33.8674 4.3207
484 1 1.01403 33.8224 4.19521
12299 2 -0.112914 29.8219 8.37324
486 1 2.71605 35.069 2.48625
487 1 3.94267 36.9831 4.21494
488 1 1.04464 36.8963 4.16076
489 1 7.02655 34.4917 0.837252
847 1 1.11259 37.0779 1.27344
491 1 9.22302 34.015 4.17033
492 1 6.53211 33.7993 3.43975
493 1 4.19485 36.8658 0.798061
494 1 9.56061 36.7059 1.29756
495 1 9.42309 36.6485 3.95745
496 1 6.76974 36.375 4.47296
497 1 12.4752 34.0776 1.35536
498 1 12.301 34.1211 4.25698
499 1 12.4608 36.9192 1.22632
500 1 12.4587 36.9768 4.00279
501 1 1.3483 39.87 1.36783
502 1 4.07747 39.7097 1.3861
503 1 4.1087 39.6124 4.18748
504 1 1.11445 39.6073 4.06308
505 1 1.39301 42.6557 1.09406
506 1 3.97458 42.4098 1.22926
507 1 4.00349 42.5668 4.21355
508 1 1.38944 42.3002 3.97405
509 1 6.91473 40.0491 1.36047
510 1 9.73325 39.6924 1.19305
511 1 9.63481 39.708 3.99109
512 1 6.90283 39.6615 4.15777
513 1 6.93282 42.6558 1.16309
514 1 9.84033 42.4264 1.33322
515 1 9.58484 42.425 4.14144
516 1 6.78641 42.4033 4.06849
517 1 12.6063 39.7146 1.29628
518 1 12.5599 39.8629 4.01957
519 1 12.5506 42.4195 1.26202
520 1 12.5557 42.5206 4.24373
521 1 1.25219 45.3493 1.45994
522 1 4.18234 45.0804 1.27357
523 1 4.16511 45.3159 4.16798
524 1 1.31262 45.3299 4.23441
525 1 1.29631 48.1256 1.31549
526 1 4.2155 47.9414 1.2489
527 1 4.21838 48.1474 4.19307
528 1 1.43595 48.1035 4.12337
529 1 7.02107 45.2416 1.22554
530 1 9.74565 45.2024 1.26521
531 1 9.82492 45.1375 4.07887
532 1 6.99805 45.1712 4.073
533 1 6.84235 48.0692 1.48491
534 1 9.62709 47.882 1.33227
535 1 9.68072 48.0011 4.17833
536 1 6.99215 48.0184 4.29783
537 1 12.5547 45.1177 1.1999
538 1 12.5113 45.2592 4.0934
539 1 12.603 48.0015 1.3306
540 1 12.5785 47.9452 4.20819
541 1 1.37663 25.5413 6.81895
542 1 4.1566 25.4307 7.00291
543 1 3.94491 25.6422 9.78337
544 1 1.20606 25.7067 9.59251
545 1 6.9179 25.6657 6.98672
546 1 9.6172 25.6096 6.73176
547 1 9.78809 25.6335 9.70678
548 1 6.89592 25.4444 9.85088
549 1 12.4726 28.6183 6.9438
550 1 12.5678 25.6137 9.66295
551 1 1.24974 28.3111 6.98813
552 1 4.15206 28.1642 7.12002
553 1 4.0626 28.2907 9.82073
554 1 1.21405 28.3027 9.93731
555 1 1.34572 31.1577 6.98789
556 1 4.06811 31.059 7.03182
557 1 4.08674 31.0256 9.63191
558 1 1.3933 31.2591 9.85542
559 1 7.04847 28.3456 6.90911
560 1 9.87998 28.4619 7.05059
561 1 9.73838 28.4791 9.72141
562 1 6.90616 28.2338 9.58491
563 1 7.01516 31.3094 6.85434
564 1 9.6817 31.35 6.9408
565 1 9.67859 31.4042 9.71953
566 1 6.99938 31.3754 9.68655
567 1 12.5147 31.2256 6.95045
568 1 12.4404 28.5151 9.74573
90 1 12.5123 25.782 1.14459
570 1 12.4922 31.1194 9.8178
571 1 1.26293 33.9684 6.90849
572 1 4.08445 34.0614 6.9462
573 1 4.23411 33.9743 9.69583
574 1 1.26346 33.9273 9.57822
575 1 1.32666 36.7945 6.87545
576 1 4.1937 36.8035 6.88864
577 1 4.18182 36.7556 9.7108
578 1 1.36034 36.6932 9.65486
579 1 6.891 34.0405 6.80703
580 1 9.73811 34.2991 7.00676
581 1 9.71465 34.1309 9.87732
582 1 6.91951 34.1635 9.49794
583 1 6.94315 36.9283 7.05588
584 1 9.74199 36.9862 6.92016
585 1 9.70077 36.9795 9.6441
586 1 6.91839 36.9991 9.75551
587 1 12.5083 34.0268 6.86997
588 1 12.5011 33.9629 9.60072
589 1 12.4741 36.8606 6.77977
590 1 12.6819 36.9143 9.5735
591 1 1.10269 39.8021 6.84418
592 1 3.86762 39.5602 6.92749
593 1 4.05107 39.5718 9.74644
594 1 1.15881 39.6191 9.5392
595 1 1.35362 42.4788 6.90303
596 1 4.03621 42.3681 6.91137
597 1 4.17879 42.3261 9.68552
598 1 1.32502 42.4945 9.66649
599 1 6.9066 39.6363 6.90439
600 1 9.83422 39.7731 7.00546
601 1 9.76112 39.7528 9.64534
602 1 7.0109 39.8334 9.64559
603 1 6.91343 42.3734 6.92477
604 1 9.75238 42.4836 6.95537
605 1 9.72878 42.5356 9.77484
606 1 6.81762 42.5764 9.65809
607 1 12.5638 39.6812 7.01823
608 1 12.6278 39.7626 9.78602
609 1 12.5638 42.4187 6.98912
610 1 12.5751 42.4794 9.83618
611 1 1.3837 45.233 6.88251
612 1 4.20671 45.0854 7.16882
613 1 4.07837 45.2409 9.73958
614 1 1.162 45.21 9.72743
615 1 1.35705 48.1027 7.02961
616 1 4.24164 47.9985 7.06624
617 1 4.17162 48.0605 9.81283
618 1 1.32184 47.9783 9.77964
619 1 6.83303 45.2428 7.0455
620 1 9.72766 45.202 7.05024
621 1 9.68499 45.2925 9.77578
622 1 6.9613 45.2407 9.80226
623 1 6.86982 47.9279 7.05496
624 1 9.8469 47.8506 6.90537
625 1 9.5553 48.1681 9.81052
626 1 6.96811 48.0913 9.91912
627 1 12.5659 45.068 6.91309
628 1 12.6198 45.2888 9.83376
629 1 12.6422 47.9548 7.05351
630 1 12.4997 47.9596 9.7539
631 1 1.32374 25.7364 12.5938
632 1 4.06275 25.6145 12.6483
633 1 6.90235 25.646 12.7039
634 1 9.75078 25.5801 12.5917
635 1 12.4019 25.5464 12.3416
636 1 1.25524 28.4813 12.5091
637 1 4.16992 28.2746 12.4977
638 1 1.27156 31.3051 12.6855
639 1 4.1872 31.1081 12.5042
640 1 7.01899 28.4419 12.4732
641 1 9.78776 28.4277 12.5519
642 1 6.88026 31.1718 12.6741
643 1 9.73533 31.284 12.4382
644 1 12.6143 28.3233 12.6275
645 1 12.433 31.0733 12.636
646 1 1.20871 34.0498 12.3391
647 1 3.94392 34.0022 12.4391
648 1 1.32601 36.8323 12.5334
649 1 4.06524 36.9264 12.5999
650 1 6.88868 34.1841 12.2532
651 1 9.61927 33.876 12.636
652 1 6.97636 36.8785 12.4729
653 1 9.77877 36.8325 12.4519
654 1 12.511 33.8353 12.395
655 1 12.4656 36.7428 12.3987
656 1 1.30624 39.6316 12.4298
657 1 3.99842 39.6995 12.526
658 1 1.17491 42.6225 12.4062
659 1 3.87399 42.5313 12.6501
660 1 6.86909 39.8445 12.3197
661 1 9.64209 39.7206 12.5509
662 1 6.67511 42.5799 12.5687
663 1 9.72596 42.45 12.4571
664 1 12.4945 39.7735 12.5333
665 1 12.6317 42.6007 12.525
666 1 1.19404 45.3163 12.7631
667 1 3.92329 45.2447 12.5719
668 1 1.1933 48.335 12.4441
669 1 3.91599 48.0242 12.5159
670 1 6.72279 45.2498 12.614
671 1 9.66526 45.238 12.4784
672 1 6.95498 48.0951 12.6195
673 1 9.73889 48.0722 12.5278
674 1 12.5702 45.3043 12.6553
675 1 12.3985 48.1071 12.4914
12363 2 10.9812 49.4169 11.2463
89 1 12.395 28.5572 1.11422
12253 2 2.54791 27.0313 2.68677
12362 2 5.51949 49.5351 11.152
15317 2 13.912 38.3457 8.21462
180 1 12.6406 25.6668 7.02081
12257 2 8.23729 26.8607 2.8284
12258 2 5.42941 29.627 2.81569
917 1 12.5962 50.8891 1.24928
12260 2 11.039 29.6982 2.69056
12360 2 11.1651 44.0005 11.1109
15306 2 13.9387 35.5331 5.43704
12263 2 2.41245 32.5897 2.71702
12359 2 8.34266 46.7132 11.3276
12252 2 2.76366 29.8235 -0.122835
1010 1 9.66128 50.688 6.9978
12267 2 8.31015 32.2279 2.89926
12268 2 4.90677 35.4449 2.94643
12345 2 11.1187 27.0833 11.1822
12270 2 11.2409 35.4898 2.73537
12358 2 5.36498 43.8188 11.2041
12344 2 8.40187 29.7443 11.0803
12273 2 2.55988 38.2694 2.70865
12357 2 2.56868 46.6523 11.2616
12343 2 5.46052 26.9353 11.1887
179 1 12.5783 25.5817 4.01663
12277 2 8.32191 38.7131 2.495
12278 2 5.27303 41.2564 2.85925
12286 2 8.25968 46.6612 -0.0714382
12280 2 11.2158 41.1234 2.67148
12355 2 11.264 38.3948 11.0208
12341 2 -0.0692657 26.9897 11.1977
12283 2 2.64648 43.9874 2.65955
12354 2 8.32087 41.1745 11.0767
851 1 6.35214 36.9899 2.20308
12342 2 2.76543 29.7708 11.2028
12287 2 8.34404 43.9288 2.63802
12288 2 5.49016 46.6105 2.74207
12340 2 11.2364 49.3071 5.66972
12290 2 11.0676 46.5801 2.77174
12353 2 5.49435 38.27 11.1151
12292 2 2.74071 49.5927 2.7585
485 2 2.34168 35.2835 0.0986049
12294 2 8.30723 49.4448 2.83393
902 1 4.12505 50.9754 1.32794
12339 2 8.22455 49.5377 8.33258
12297 2 2.73453 29.6992 5.62956
12298 2 2.64869 26.9082 8.35795
12338 2 5.54515 49.4238 5.5228
12300 2 5.47442 26.9207 5.74962
12301 2 8.43437 29.7509 5.66054
12302 2 8.44006 26.9225 8.23778
12303 2 5.46882 29.6312 8.39879
12304 2 11.0941 26.9522 5.4894
12305 2 11.1376 29.8653 8.41433
12352 2 2.68564 41.2066 11.0589
12307 2 2.54381 35.3862 5.49633
12308 2 2.74305 32.5746 8.32747
569 1 12.4952 31.2353 4.08573
12310 2 5.3156 32.5504 5.6533
12311 2 8.26163 35.5574 5.90127
12312 2 8.34742 32.6472 8.38548
12313 2 5.41814 35.536 8.28267
12314 2 11.1532 32.5221 5.68109
12315 2 11.2562 35.4789 8.3203