ITEM: TIMESTEP
310000
ITEM: NUMBER OF ATOMS
18000
ITEM: BOX BOUNDS xy xz yz pp pp pp
-9.6615700395504003e-02 2.7990615700396056e+01 0.0000000000000000e+00
-1.1418130942503553e+00 3.3586981309427597e+02 0.0000000000000000e+00
-1.0452997763511168e-01 2.7998529977635666e+01 0.0000000000000000e+00
ITEM: ATOMS id type x y z
1 1 1.37162 0.2649 1.26829
2 1 4.14372 0.42138 1.35429
3 1 4.26313 0.35211 4.3425
4 1 1.39067 0.396835 4.10217
5 1 1.19281 3.03964 1.42188
6 1 4.03881 2.95242 1.30194
7 1 4.19101 2.99447 4.17097
8 1 1.23715 3.17698 4.15187
9 1 6.92179 3.02232 1.31036
10 1 9.67423 0.283987 1.34075
11 1 9.86758 0.141671 4.13641
12 1 6.96924 3.00901 4.04345
13 1 7.00072 5.88567 1.23654
14 1 9.79013 2.96338 1.3564
15 1 9.77026 3.11967 4.17989
16 1 7.08169 5.75003 4.16874
17 1 12.5009 0.298962 1.44131
18 1 12.5497 0.221725 4.20527
19 1 12.4274 3.03225 1.16595
20 1 12.5249 3.182 4.17114
21 1 1.44166 5.92835 1.32198
22 1 4.2681 5.90276 1.32345
23 1 4.3766 5.83541 4.11163
24 1 1.35915 5.98245 4.11562
25 1 1.2249 8.78569 1.16001
26 1 3.98419 8.76552 1.30235
27 1 3.71622 11.5686 4.1183
28 1 1.3583 8.81042 4.02568
12003 2 2.79065 -1.03628 2.6235
30 1 9.70878 5.81513 1.36708
31 1 9.93092 5.80147 4.12077
32 1 6.58969 8.22359 5.8928
33 1 6.36943 10.2324 3.58075
34 1 9.96134 8.63961 1.49217
35 1 7.94877 8.2606 3.67071
36 1 6.493 12.1219 5.23793
37 1 12.4285 5.80388 1.09001
38 1 12.6497 5.95703 4.06979
39 1 12.6531 8.63369 1.2838
40 1 12.7234 8.80403 3.99923
41 1 1.31784 11.5026 1.28628
42 1 4.10302 11.403 1.29846
43 1 6.97976 14.4575 4.17558
44 1 1.14869 11.524 4.20292
45 1 1.20985 14.3876 1.28662
46 1 3.89848 14.2873 1.4223
47 1 4.02352 14.3907 4.19388
48 1 1.39823 14.629 4.16253
49 1 4.1318 8.70919 4.04638
50 1 9.84378 11.4142 1.32261
51 1 10.1167 8.85105 4.97639
52 1 9.15206 11.4 4.06052
53 1 6.82073 17.2732 4.0782
54 1 9.67374 14.3155 1.13496
55 1 12.4619 14.3103 3.97089
56 1 9.75807 14.4691 4.06099
57 1 12.6087 11.7028 1.21873
58 1 12.5534 11.6007 3.9275
59 1 12.4663 14.5455 1.12998
12150 2 11.1037 24.2091 13.9489
61 1 1.28361 17.181 1.32371
62 1 4.06087 17.2655 1.28856
63 1 4.19147 17.1681 4.13083
64 1 1.2874 17.263 4.15819
65 1 1.18528 19.9741 1.13216
66 1 4.17507 20.0639 1.30353
67 1 4.1076 20.1042 4.26315
68 1 1.29382 20.0081 3.98794
69 1 6.85505 17.1854 1.29551
70 1 9.64383 17.1253 1.09933
71 1 12.1625 17.1276 4.09907
72 1 9.53477 17.312 4.0087
73 1 7.04461 19.987 1.26441
74 1 9.79252 19.995 1.09189
75 1 9.68212 20.1944 4.00208
76 1 6.9157 20.1025 4.02428
77 1 12.583 17.2511 1.22751
15116 2 13.843 18.7133 11.2042
79 1 12.5911 19.9479 1.39396
12031 2 -0.0815855 15.7491 -0.0876254
81 1 1.35771 22.7987 1.41333
82 1 4.07509 22.9089 1.32008
83 1 4.10405 22.8836 4.09874
84 1 1.36689 22.764 4.09794
85 1 6.85819 22.7681 1.20628
86 1 9.76325 22.7243 1.20414
87 1 9.76915 23.0141 4.08726
88 1 6.90921 22.9081 4.20653
12059 2 11.2653 -1.10275 5.65596
15071 2 13.8373 12.9834 5.25402
91 1 1.35376 0.384479 6.98925
92 1 4.18901 0.19729 7.36268
93 1 4.21675 2.68659 9.92941
94 1 1.65717 0.28332 9.76219
95 1 1.28796 3.14926 6.96115
96 1 4.23435 2.94183 7.04052
97 1 6.93087 5.89669 9.85747
98 1 1.35378 3.06609 9.74541
99 1 7.10021 3.00854 6.89973
100 1 9.70625 0.323033 7.01741
101 1 9.63241 0.209806 9.79699
102 1 6.9083 3.00351 9.75038
103 1 6.91767 5.62767 7.02965
104 1 9.82417 3.19485 7.01302
105 1 9.71938 3.08149 9.74316
106 1 6.90548 5.88327 12.6464
107 1 12.6978 0.291178 6.93133
108 1 12.499 0.289948 9.6343
109 1 12.6654 3.07112 6.9455
110 1 12.5086 3.06511 9.74208
111 1 1.34402 5.92841 6.88458
112 1 4.05544 5.84354 6.9008
113 1 4.16797 8.88946 9.76821
114 1 1.33093 5.93638 9.6399
115 1 1.40934 8.82264 6.76363
116 1 3.94902 8.62927 7.12297
117 1 6.31557 10.2896 7.43714
118 1 1.33006 8.75115 9.82521
119 1 8.70603 8.56146 7.27269
120 1 10.038 5.96879 6.92782
121 1 9.66199 5.87724 9.72669
122 1 7.03478 8.66224 9.82994
123 1 8.50491 11.7055 6.97323
124 1 12.7511 8.48836 6.96699
125 1 10.9217 10.2725 7.89992
126 2 8.60022 10.1186 8.83256
127 1 12.8273 5.80611 6.89595
128 1 12.4754 5.71134 9.82812
12101 2 0.0104774 -1.09739 11.1455
130 1 12.6812 11.478 9.59388
131 1 1.23809 11.5956 6.95175
132 1 3.91883 11.5656 7.01838
133 1 3.96291 11.6229 9.68047
134 1 1.08287 11.6192 9.86587
135 1 1.28151 14.441 6.9948
136 1 4.10173 14.3412 7.06767
137 1 4.17864 14.289 9.80036
138 1 1.25821 14.4532 9.72795
139 1 10.0054 14.7624 7.03631
140 1 11.0529 12.501 6.0975
141 1 9.95454 11.6404 9.95624
142 1 7.02675 11.4835 9.93103
143 1 7.11331 14.4526 7.09055
144 1 9.56499 17.4807 7.08711
145 1 10.0598 14.4918 9.7764
146 1 7.1693 14.1642 9.92366
147 1 13.0909 14.3197 6.99196
148 1 12.6609 14.2811 9.79847
149 1 12.3848 17.1476 6.93319
150 1 12.4171 17.2834 9.65632
151 1 1.41532 17.3174 6.96398
152 1 4.15155 17.1087 6.93254
153 1 4.18192 17.0464 9.79775
154 1 1.41644 17.1022 9.80654
155 1 1.34072 20.1836 6.96238
156 1 4.00791 19.9503 6.98567
157 1 4.13569 19.9748 9.8122
158 1 1.44318 19.8911 9.74144
159 1 6.81051 17.1523 6.89194
160 1 12.6089 22.8071 4.12699
161 1 9.77875 17.2865 9.83496
162 1 6.94167 17.0409 9.78492
163 1 6.74324 19.8923 6.83948
164 1 9.46387 20.0727 6.84467
165 1 9.67672 20.16 9.62884
166 1 6.89935 19.9983 9.74092
241 1 9.64432 8.77141 12.6359
168 1 12.5252 20.0399 9.65746
169 1 12.6264 23.1624 6.89843
170 1 12.5967 22.9054 9.79989
171 1 1.17586 22.8349 7.06771
172 1 4.03452 22.822 6.9756
173 1 4.28188 22.8162 9.71827
174 1 1.29994 22.7555 9.73713
175 1 6.93008 22.7619 7.05171
176 1 9.785 22.9689 6.91333
177 1 9.94787 22.8102 9.66546
178 1 7.03668 22.761 9.77402
12009 2 11.2738 -1.06149 -0.0597727
12116 2 0.0127483 15.7011 11.175
181 1 1.35703 0.356567 12.6911
182 1 4.06683 0.248336 12.2658
183 1 1.31643 3.20987 12.6566
184 1 4.14955 3.15388 12.7431
185 1 6.86473 0.103973 12.7129
186 1 9.59804 0.24127 12.5435
187 1 6.88212 2.89688 12.4802
188 1 9.84918 3.12914 12.6908
189 1 12.4188 0.229562 12.5442
190 1 12.611 3.02246 12.6207
191 1 1.3317 6.06141 12.5465
192 1 4.03293 5.7759 9.68932
193 1 1.36187 8.79417 12.4895
194 1 4.26743 8.68925 12.4016
195 1 4.12434 5.93256 12.4156
196 1 9.817 5.86368 12.4911
197 1 9.92195 8.56523 10.0036
198 1 12.6356 8.53108 9.7943
199 1 12.6039 5.83696 12.6711
200 1 12.456 8.59696 12.5632
201 1 1.35142 11.4449 12.5701
202 1 4.18175 11.629 12.497
203 1 1.33863 14.3626 12.4863
204 1 4.16198 14.4262 12.4554
205 1 6.97615 11.4782 12.637
206 1 9.87185 11.5143 12.6889
207 1 6.99559 14.1902 12.6825
208 1 9.93555 14.3217 12.5576
209 1 12.6323 11.5035 12.5157
210 1 12.7585 14.5863 12.6008
211 1 1.48532 17.1049 12.5667
212 1 4.23352 17.2555 12.5585
213 1 1.40643 19.9497 12.5896
214 1 4.15694 20.0294 12.5516
215 1 7.01455 17.0403 12.465
216 1 9.80092 17.1839 12.6996
217 1 6.83487 19.9245 12.5159
218 1 9.64045 20.0049 12.598
219 1 12.506 17.3015 12.5359
220 1 12.4935 20.2088 12.443
221 1 1.25271 22.7551 12.5858
222 1 3.9816 22.7478 12.497
223 1 7.00685 22.7037 12.6207
224 1 9.73761 22.8635 12.5453
225 1 12.7293 22.8995 12.674
12125 2 11.2401 21.3995 11.017
12110 2 11.0559 4.41234 11.1733
12024 2 0.0327997 13.0152 2.70173
12124 2 8.3783 24.131 11.1245
80 1 12.5943 22.8425 1.24145
12109 2 8.30955 7.31475 11.2318
12136 2 2.7923 10.1244 13.8327
12008 2 5.5726 1.61823 2.74952
243 1 6.89837 8.7768 12.6421
12010 2 11.1262 1.69073 2.79977
12123 2 5.60762 21.28 11.1552
12108 2 5.51197 4.38544 11.2005
12013 2 2.69183 4.46477 2.66923
12122 2 2.70129 24.2564 11.0829
12107 2 2.81805 7.30146 11.0115
12112 2 2.73481 13.012 11.0533
12017 2 8.51318 4.5155 2.62056
12018 2 5.75493 7.33569 2.92534
12104 2 8.31053 1.59852 11.2306
12020 2 11.2133 7.30509 2.75653
60 1 12.3902 20.1703 4.29231
129 1 13.7125 11.2432 6.73625
12023 2 2.66953 10.1185 2.68133
12120 2 11.303 15.8337 11.2113
12102 2 2.66981 1.8638 11.3994
12113 2 5.40272 10.2098 11.0246
12027 2 8.25421 10.0783 2.28891
12028 2 5.53869 12.6958 2.82529
12100 2 11.2984 24.3238 8.28335
12030 2 11.164 12.9973 2.57769
12099 2 10.9453 21.5271 5.50492
12098 2 5.6105 24.0472 8.31237
12033 2 2.81555 15.8055 2.74128
412 1 6.85154 14.2808 1.25251
12097 2 8.29195 21.346 8.31255
12096 2 8.4356 24.3226 5.43863
12037 2 8.24837 15.706 2.62292
12038 2 5.5914 18.5902 2.78599
12095 2 5.50606 21.4593 5.54485
12040 2 11.0948 18.5556 2.66731
29 1 6.90367 8.71879 1.21441
12093 2 2.7862 21.4507 8.40461
12043 2 2.80654 21.3374 2.68188
5723 1 6.88297 0.302403 6.99114
12092 2 2.60658 24.1687 5.50923
5634 1 6.99811 0.249185 1.13916
12047 2 8.32864 21.4051 2.62479
12048 2 5.61691 24.29 2.71007
12090 2 11.0722 18.6478 8.35559
12050 2 11.1392 24.1828 2.56145
12119 2 8.34437 18.6302 11.1498
12052 2 2.71286 1.71795 5.56726
12004 2 -0.0729669 1.532 2.67183
12118 2 5.67408 15.6529 11.1282
5633 1 7.00157 0.212504 4.04178
12056 2 8.39119 1.69505 5.56065
5726 1 6.68594 0.386338 9.75308
12058 2 5.63037 1.76501 8.27186
12148 2 8.41068 21.3883 13.9024
12060 2 11.1692 1.68312 8.38935
12117 2 2.8481 18.6178 11.1692
12062 2 2.87415 7.33652 5.53748
12063 2 2.74747 4.39439 8.24811
12089 2 11.3849 15.6033 5.494
12065 2 5.63317 4.32767 5.55012
12066 2 8.45923 6.94831 5.55488
12067 2 8.31913 4.33975 8.43061
12068 2 5.67303 7.44726 8.15606
12069 2 11.3879 4.4425 5.5645
12070 2 11.201 7.29193 8.50044
12115 2 11.1905 10.0615 11.1116
12072 2 2.65135 12.9187 5.53923
12073 2 2.56241 10.1821 8.40972
12114 2 8.48376 12.8882 11.2914
12075 2 5.05289 10.2137 5.56069
12076 2 8.56901 13.3905 5.68451
12077 2 8.08379 10.0425 5.46314
12078 2 5.58888 12.8855 8.2902
12079 2 11.7186 10.3063 5.68002
12080 2 11.2701 12.9261 8.39925
395 1 6.93308 11.6925 1.15276
12082 2 2.75051 18.5606 5.51679
12083 2 2.82486 15.751 8.33668
15081 2 13.4051 18.6841 5.54109
12085 2 5.50495 15.6987 5.51098
12086 2 8.20838 18.5602 5.58286
12087 2 8.43518 15.7881 8.51374
12088 2 5.51499 18.5449 8.37892
167 1 12.1083 20.2792 7.0598
12032 2 2.73126 18.616 -0.0608767
12111 2 0.00160163 10.126 11.1472
12016 2 8.37274 7.37714 -0.037807
12106 2 -0.0131108 4.53842 11.2672
15101 2 13.8907 1.67365 11.2869
15022 2 13.9217 10.1027 2.60274
12064 2 -0.0786548 7.26661 8.21527
15012 2 13.8777 4.47984 2.70462
12041 2 0.0437009 21.5699 -0.00612318
12121 2 0.00540592 21.2657 11.1839
12074 2 -0.0888321 13.0443 8.30659
12091 2 -0.085933 21.4101 5.52016
15032 2 13.8356 15.8131 2.54205
12094 2 -0.0101787 24.1482 8.32526
12006 2 8.34339 1.68283 -0.0843906
12081 2 -0.0752759 15.817 5.47679
12084 2 0.0649437 18.4508 8.49807
12105 2 11.239 -1.1395 11.0729
12054 2 -0.0406669 1.79023 8.41697
15091 2 13.8609 24.3096 5.41265
12014 2 -0.0242732 7.32823 2.75469
12015 2 5.52172 4.41143 0.0167827
12135 2 11.1404 7.24973 13.9555
12146 2 2.76093 21.3345 13.9055
12042 2 2.6981 24.1839 0.0159712
12139 2 5.47751 12.8233 13.7953
15001 2 13.8556 1.64449 -0.103154
12144 2 5.60699 18.5261 13.8781
12134 2 5.61231 7.32943 13.8822
12143 2 8.45076 15.8166 13.8606
226 1 4.04369 0.275592 15.1857
227 1 1.47592 0.311017 15.4135
228 1 4.18584 2.99386 15.3921
229 1 1.24104 3.02442 15.3938
230 1 9.72792 0.319335 15.3299
231 1 6.89481 0.517256 15.5725
232 1 9.73139 3.10768 15.5029
233 1 6.88688 3.08281 15.3979
234 1 12.5366 0.334526 15.4496
235 1 12.6129 3.12748 15.3607
236 1 4.18985 5.69316 15.2555
237 1 1.22225 5.72139 15.3852
238 1 4.13167 8.5425 15.3709
239 1 1.31877 8.68418 15.3122
240 1 9.72379 5.85487 15.3425
12026 2 8.27139 13.0504 27.9939
242 1 9.70371 8.61045 15.4357
5993 1 6.88757 0.315324 23.8427
244 1 12.5951 5.96975 15.5096
245 1 12.545 8.76166 15.2845
246 1 4.25194 11.4066 15.3356
247 1 1.29517 11.4866 15.3291
248 1 4.15618 14.2522 15.2398
249 1 1.43169 14.0895 15.3745
250 1 9.74856 11.529 15.4583
251 1 7.02355 11.5167 15.3485
252 1 9.6557 14.4012 15.2781
253 1 6.97948 14.5221 15.4179
254 1 12.6246 11.5443 15.2212
255 1 12.5615 14.3467 15.3502
256 1 4.11388 17.0473 15.3806
257 1 1.24034 16.9566 15.3174
258 1 4.34503 19.9888 15.4051
259 1 1.47467 19.9412 15.3328
260 1 9.69425 17.2037 15.3134
261 1 6.95868 17.286 15.4579
262 1 9.98901 20.1666 15.3202
263 1 7.17389 20.0331 15.1406
264 1 12.5444 17.1564 15.5166
265 1 12.7056 19.9625 15.3628
266 1 4.26779 22.826 15.4374
267 1 1.50259 22.7618 15.319
268 1 9.86723 22.7947 15.4228
269 1 7.03378 22.7978 15.3952
270 1 12.5957 22.7875 15.4222
271 1 1.3173 0.285911 18.177
272 1 4.28953 0.3403 18.1548
273 1 4.17297 0.340963 21.0321
274 1 1.38085 0.310729 21.1378
275 1 1.37163 3.13169 18.1829
276 1 4.1358 3.09863 18.2735
277 1 4.1822 3.16062 21.0591
278 1 1.26257 3.04003 21.024
279 1 6.92886 3.16146 18.2886
280 1 9.77982 0.330473 18.301
281 1 9.92553 0.32788 21.145
282 1 7.02669 3.01872 20.9866
283 1 6.73962 5.82774 18.3226
284 1 9.7981 3.05509 18.1615
285 1 9.63519 3.17802 20.9309
286 1 6.99563 5.99829 23.8679
287 1 12.6422 0.483879 18.1172
288 1 12.6631 0.463443 20.9523
289 1 12.3788 3.04036 18.1471
290 1 12.5703 3.19304 21.1082
291 1 1.2929 5.93981 18.1897
292 1 3.93371 5.99678 18.1382
293 1 4.14483 5.82488 20.9907
294 1 1.38981 5.88305 21.0914
295 1 1.24628 8.77802 18.1017
296 1 4.12504 8.89632 18.1379
297 1 4.152 8.66437 20.9226
298 1 1.38153 8.81115 20.8392
299 1 6.9957 5.99493 15.3583
300 1 9.43133 5.93373 18.2267
301 1 9.83846 5.975 21.0133
302 1 7.07837 5.85766 21.065
303 1 7.0155 8.76216 15.4229
304 1 9.66252 8.68698 18.1327
305 1 9.78842 8.63396 21.0899
306 1 6.99652 8.72229 18.3351
307 1 12.3568 5.89361 18.2813
308 1 12.6576 6.0143 21.1481
309 1 12.4528 8.59952 18.2059
310 1 12.5491 8.84662 20.9832
311 1 1.35015 11.5545 18.1908
312 1 4.28769 11.7187 18.0752
313 1 4.15921 11.663 20.7684
314 1 1.37118 11.5791 20.9374
315 1 1.3637 14.2723 18.3018
316 1 4.05295 14.4579 18.1221
317 1 4.21432 14.3463 20.9379
318 1 1.47114 14.3004 20.9376
319 1 6.89122 11.4857 18.1916
320 1 9.77938 11.4601 18.179
321 1 9.79524 11.5701 20.9495
322 1 7.07421 11.5086 20.8573
323 1 7.0536 14.2944 18.2257
324 1 9.72502 14.2346 18.0854
325 1 9.82492 14.34 20.9601
326 1 7.07982 14.4408 21.0688
327 1 12.6029 11.4713 17.9835
328 1 12.5867 11.6506 20.8593
329 1 12.5505 14.3982 18.1688
330 1 12.7808 14.4668 20.9601
331 1 1.27923 17.2725 18.0653
332 1 4.169 17.1715 18.1029
333 1 4.0721 17.1216 20.9697
334 1 1.33084 17.1323 20.9933
335 1 1.3765 20.053 18.1905
336 1 4.28912 19.9998 18.119
337 1 4.19831 19.9545 20.8448
338 1 1.24044 19.9771 21.1072
339 1 6.94845 17.1024 18.2003
340 1 9.8243 17.1935 18.1567
341 1 9.67769 17.2429 20.8104
342 1 6.73417 17.1892 20.8139
343 1 7.01467 20.1065 18.0125
344 1 9.65018 20.059 18.2178
345 1 9.84922 20.0666 20.8705
346 1 6.96844 19.8478 20.8312
347 1 12.5164 17.1209 18.2972
348 1 12.5083 17.3187 20.907
349 1 12.4749 20.0808 18.1268
350 1 12.5838 19.93 20.9669
351 1 1.33305 22.84 18.1004
352 1 4.14779 22.7524 18.2558
353 1 4.06831 22.6721 21.0329
354 1 1.30072 22.8155 21.0718
355 1 7.02112 22.7828 18.1397
356 1 9.75464 22.7119 18.2405
357 1 9.6203 22.7601 20.9883
358 1 6.82775 22.7269 20.9285
359 1 12.5406 22.9342 18.1074
360 1 12.6195 22.8242 20.8783
361 1 1.31401 0.237983 23.829
362 1 4.15969 0.431126 23.7443
363 1 4.0832 0.171129 26.7061
364 1 1.23396 0.143759 26.6348
365 1 1.32256 2.99669 23.7861
366 1 4.07669 3.07813 23.7953
367 1 4.13714 3.02953 26.6518
368 1 1.42924 3.0695 26.5735
369 1 6.88737 2.9437 23.8625
370 1 9.85462 0.304836 23.8622
371 1 9.84584 0.359352 26.6269
372 1 6.83355 3.30855 26.6162
373 1 6.95778 5.99691 26.5658
374 1 9.81957 3.1035 23.7958
375 1 9.7541 3.21386 26.6015
376 1 9.9959 6.03811 26.6099
377 1 12.7578 0.391086 23.7352
378 1 12.6269 0.306511 26.5494
379 1 12.6136 3.182 23.7826
380 1 12.5996 3.20257 26.5241
381 1 1.42845 5.95338 23.8622
382 1 4.1207 5.91947 23.6928
383 1 4.14058 5.91646 26.5198
384 1 1.29199 5.77867 26.5318
385 1 1.2841 8.70887 23.7376
386 1 4.02406 8.79029 23.5988
387 1 4.12747 8.69055 26.4735
388 1 1.36187 8.79891 26.6226
389 1 6.87034 8.65675 23.8198
390 1 9.74432 5.67484 23.9708
391 1 9.81661 8.78841 26.6711
392 1 7.15545 8.78919 26.6739
393 1 7.06443 8.75335 20.9822
394 1 9.7256 8.73478 23.9574
12036 2 8.2977 18.5931 27.926
396 1 7.06281 11.541 26.539
397 1 12.6455 5.94534 23.835
398 1 12.7573 5.9375 26.4265
399 1 12.5121 8.7962 23.7706
400 1 12.6949 8.78399 26.6117
401 1 1.24972 11.5377 23.7524
402 1 4.19729 11.4481 23.7782
403 1 4.2195 11.3979 26.6262
404 1 1.34449 11.5249 26.5129
405 1 1.34392 14.3736 23.7427
406 1 4.14575 14.3849 23.8281
407 1 4.1969 14.2648 26.6714
408 1 1.43351 14.3323 26.5896
409 1 6.98845 11.3782 23.7344
410 1 9.93839 11.5311 23.7838
411 1 9.85181 11.5363 26.6124
12153 2 2.70231 -1.11027 19.6013
413 1 6.87354 14.3422 23.9225
414 1 9.72351 14.4142 23.5694
415 1 9.73479 14.3385 26.3518
416 1 6.90946 14.4081 26.591
417 1 12.5939 11.5799 23.6801
418 1 12.5459 11.6846 26.5389
419 1 12.493 14.3874 23.7962
420 1 12.5538 14.395 26.4431
421 1 1.43027 17.0771 23.8239
422 1 4.09892 17.1397 23.7686
423 1 4.22053 17.1266 26.6184
424 1 1.44598 17.1071 26.6382
425 1 1.32987 19.7792 23.7058
426 1 4.07029 19.9387 23.738
427 1 4.38751 19.9729 26.6379
428 1 1.56858 19.9907 26.5255
429 1 6.99395 17.1908 23.7235
430 1 9.94506 17.1942 23.6502
431 1 9.59434 17.2344 26.4849
432 1 6.87954 17.1562 26.4658
433 1 6.81063 19.9176 23.721
434 1 9.81257 20.0823 23.6061
435 1 9.83511 20.1289 26.3441
436 1 7.00513 19.9379 26.4512
437 1 12.6587 17.1006 23.7191
438 1 12.5814 17.099 26.6846
439 1 12.6717 19.8754 23.6842
440 1 12.5733 20.054 26.5063
441 1 1.44724 22.8466 23.8815
442 1 4.14623 22.7573 23.8563
443 1 4.19775 22.8319 26.625
444 1 1.42525 22.9437 26.7222
445 1 6.99861 22.7436 23.7225
446 1 9.85573 22.7734 23.6288
447 1 10.0011 22.8323 26.5618
448 1 7.04841 22.7152 26.6343
449 1 12.5219 22.7149 23.6647
450 1 12.7332 22.971 26.4895
12207 2 8.38547 -1.04306 25.1842
12250 2 11.2541 24.0966 25.0455
12029 2 11.2083 10.1264 27.9869
12159 2 11.1598 -1.06551 16.8083
5906 1 7.14775 0.139185 21.1508
12130 2 11.1577 1.77603 14.0955
12249 2 11.1442 21.4202 22.2446
12194 2 0.0246326 24.2659 19.5115
12209 2 11.3978 -1.0409 22.3736
12025 2 5.4533 10.0541 28.0172
12035 2 5.53351 15.7537 27.9491
12248 2 5.62621 24.1972 25.2621
15021 2 13.9262 13.0096 27.9088
12155 2 5.52721 -1.1218 16.6788
12181 2 -0.00439771 15.5495 16.7572
12231 2 0.00487007 15.7281 22.4669
12171 2 -0.0345423 10.1201 16.7287
12241 2 -0.0533781 21.3932 22.3559
12220 2 11.2007 7.36017 25.2194
12151 2 -0.00699921 -1.03743 16.7763
12232 2 2.6879 18.4843 22.4328
12216 2 8.47072 7.23392 22.484
5903 1 7.11658 0.358277 18.4378
12219 2 11.1377 4.35121 22.4732
12218 2 5.51646 7.30973 25.0682
12247 2 8.37084 21.3196 25.025
12152 2 2.84216 1.70813 16.7437
12227 2 8.46167 10.2086 25.2168
12246 2 8.38752 24.2079 22.2992
12230 2 11.2369 12.9736 25.1108
12156 2 8.29934 1.77939 16.8586
12229 2 11.3177 10.1267 22.2717
12158 2 5.54148 1.67958 19.6456
12217 2 8.39543 4.5876 25.2696
12160 2 11.0879 1.76255 19.6782
12245 2 5.5418 21.3649 22.3489
12162 2 2.61867 7.36919 16.8304
12163 2 2.65242 4.50885 19.5918
12228 2 5.58659 12.822 25.1213
12165 2 5.53419 4.57625 16.7872
12166 2 8.24209 7.34178 16.8613
12167 2 8.3005 4.49571 19.604
12168 2 5.4302 7.22865 19.557
12169 2 11.1007 4.54201 16.7984
12170 2 11.1103 7.30753 19.5734
12243 2 2.85182 21.4199 25.2627
12172 2 2.80754 12.8118 16.6597
12173 2 2.77729 10.2288 19.5026
12242 2 2.82853 24.2483 22.4437
12175 2 5.61353 10.1844 16.7818
12176 2 8.25113 12.9888 16.6989
12177 2 8.51743 9.98173 19.5907
12178 2 5.6134 12.9521 19.5255
12179 2 11.1762 10.0921 16.6236
12180 2 11.058 12.9717 19.5811
12236 2 8.28641 18.5795 22.1924
12182 2 2.85865 18.5934 16.7113
12183 2 2.81401 15.6592 19.5923
12223 2 2.72593 10.1267 25.0882
12185 2 5.50426 15.7463 16.8467
12186 2 8.44764 18.6233 16.756
12187 2 8.39659 15.7438 19.5511
12188 2 5.6033 18.5687 19.4492
12189 2 11.1466 15.6901 16.7594
12190 2 11.1147 18.5632 19.4648
12226 2 8.48716 12.9213 22.3238
12192 2 2.7816 24.1555 16.7481
12193 2 2.62625 21.5126 19.5407
12225 2 5.67646 10.1184 22.1987
12195 2 5.63848 21.4398 16.7448
12196 2 8.44978 24.1551 16.7023
12197 2 8.29735 21.4075 19.5952
12198 2 5.61745 24.1952 19.5023
12199 2 11.2776 21.4403 16.731
12200 2 11.2628 24.1979 19.5367
12240 2 11.0079 18.5606 25.136
12202 2 2.73059 1.77861 22.3526
5996 1 6.96744 0.230921 26.6279
12239 2 11.1474 15.8353 22.3162
12222 2 2.84574 13.0163 22.2767
12206 2 8.38392 1.66591 22.4089
12235 2 5.48746 15.6747 22.3457
12208 2 5.54002 1.72983 25.2084
12233 2 2.82205 15.6967 25.1658
12210 2 11.202 1.77061 25.1905
12238 2 5.49012 18.5434 25.1687
12212 2 2.74838 7.29956 22.3834
12213 2 2.76193 4.5426 25.1357
12237 2 8.35405 15.8075 25.1149
12215 2 5.61741 4.50363 22.5032
12205 2 5.56843 -1.05939 22.4031
12140 2 11.2215 12.984 13.9489
12201 2 0.0551216 -1.04931 22.4379
12174 2 0.0395711 12.9347 19.5623
12128 2 8.44344 -0.991558 14.0871
15031 2 13.8402 18.6064 27.9408
12039 2 11.1845 15.6472 27.8329
12234 2 0.00908171 18.6204 25.1582
12022 2 2.70529 12.9111 27.964
12138 2 8.39048 10.136 14.0221
15192 2 13.8948 21.3673 19.5127
15162 2 13.9289 4.60501 19.6709
15181 2 13.9422 18.4889 16.7728
12191 2 -0.0375176 21.4177 16.7734
12224 2 -0.0728833 12.9642 25.2318
12244 2 -0.0336084 24.204 25.2513
12046 2 8.42238 24.1296 27.9116
12184 2 -0.0235433 18.6577 19.5952
12049 2 11.2692 21.3293 27.98
12127 2 -0.059838 1.70453 14.1244
12021 2 -0.0639278 10.2283 27.8727
12012 2 2.7196 7.29409 27.845
12132 2 0.014438 7.41451 14.0549
12147 2 0.0161925 24.135 13.9751
12145 2 11.2256 18.6683 14.0189
12149 2 5.489 24.1241 13.9764
12129 2 5.49397 1.65775 13.985
12137 2 -0.0624563 12.8756 13.9432
12141 2 2.81886 15.641 13.9735
12002 2 2.84146 1.68628 28.0221
12142 2 -0.0306441 18.5245 14.0933
12011 2 -0.0592942 4.47521 27.9251
12131 2 2.71867 4.61992 14.049
12045 2 5.56643 21.4162 27.9496
12019 2 11.1217 4.56668 27.8967
12133 2 8.44786 4.48604 14.1002
451 1 1.40012 25.7717 1.21432
452 1 4.18247 25.7356 1.11882
453 1 4.07219 25.6495 4.01653
454 1 1.3748 25.4792 3.95987
455 1 7.07965 25.4963 1.20673
456 1 9.70877 25.5728 1.28915
457 1 9.7267 25.9428 4.13085
458 1 6.9597 25.6871 4.01846
459 1 12.7081 31.1377 1.11629
460 1 12.5361 28.4178 3.9767
461 1 1.39502 28.4589 1.19771
462 1 4.19985 28.3504 1.2933
463 1 4.19577 28.4397 4.17493
464 1 1.40639 28.2963 4.11198
465 1 1.47815 31.2517 1.25164
466 1 4.09562 31.048 1.07869
467 1 4.08731 31.1932 3.90972
468 1 1.26452 31.0452 4.11661
469 1 7.04026 28.2233 1.16831
470 1 9.9125 28.463 1.21291
471 1 9.76789 28.7519 3.98321
472 1 6.93133 28.5212 3.92888
473 1 7.00771 30.8855 1.12321
12296 2 -0.0729736 27.0811 5.42767
475 1 9.84869 31.4144 4.01971
476 1 7.00321 31.2811 3.97938
477 1 9.84051 31.3243 1.17684
478 1 9.93534 34.4775 1.04492
15373 2 13.9225 38.2797 13.8068
12383 2 11.3126 46.6284 13.7627
481 1 1.16319 34.0372 1.13401
482 1 5.57364 33.3736 1.82485
483 1 4.09701 33.883 4.23963
484 1 1.28216 34.0018 4.00289
1102 1 4.00508 50.6798 12.3803
486 1 3.65731 34.9495 1.76793
487 1 4.19683 36.973 4.07585
488 1 1.45371 36.7883 4.20342
489 1 7.47831 34.1354 0.741748
847 1 1.24349 36.8731 1.36625
491 1 9.78405 34.2531 3.78422
492 1 7.20715 33.9732 3.95244
493 1 3.9832 37.2764 0.79986
494 1 9.20624 37.1725 0.915912
495 1 9.82994 36.9481 3.53453
496 1 7.13022 36.5085 4.21701
497 1 12.6066 33.9969 1.29867
498 1 12.5588 33.9719 3.96209
499 1 12.5156 36.8172 1.05459
500 1 12.6149 36.9102 4.02756
501 1 1.23853 39.7561 1.16646
502 1 4.29094 39.8843 1.1389
503 1 4.15354 39.6768 3.99509
504 1 1.242 39.56 3.89181
505 1 1.34785 42.4399 1.27197
506 1 4.0708 42.4921 1.26373
507 1 4.10971 42.4652 4.06216
508 1 1.31078 42.4664 4.06075
509 1 7.04565 39.585 1.22879
510 1 9.8004 39.9577 1.27641
511 1 9.87415 39.7017 4.01024
512 1 7.02977 39.6556 3.96345
513 1 6.99853 42.2472 1.17631
514 1 9.64246 42.6137 1.09415
515 1 9.88372 42.508 4.00015
516 1 6.93721 42.5013 4.10716
517 1 12.4975 39.7346 1.10641
518 1 12.6902 39.806 3.99661
519 1 12.5289 42.5628 1.15686
520 1 12.6119 42.6539 3.96455
521 1 1.3706 45.291 1.24464
522 1 4.22859 45.2334 1.1791
523 1 4.12284 45.23 4.02705
524 1 1.35506 45.2375 4.0271
525 1 1.37391 48.1252 1.16117
526 1 4.15952 48.0534 1.31227
527 1 3.9514 48.0281 4.11158
528 1 1.1745 48.0698 4.19159
529 1 7.0456 45.0749 1.14563
530 1 9.78039 45.283 1.35181
531 1 9.6392 45.1527 4.14015
532 1 6.92386 45.1151 4.00476
533 1 7.07449 47.9416 1.12765
534 1 9.72776 48.2231 1.23285
535 1 9.83159 48.0812 4.00937
536 1 6.87307 47.9433 4.00035
537 1 12.3753 45.3311 1.18724
538 1 12.3646 45.4192 4.00142
539 1 12.5985 48.0874 1.06505
540 1 12.6014 48.0831 3.82658
541 1 1.4694 25.6236 6.90102
542 1 4.23202 25.498 6.76274
543 1 4.11023 25.4985 9.59775
544 1 1.27811 25.5898 9.71377
545 1 7.01164 25.7335 6.6893
546 1 9.7849 25.8246 6.8351
547 1 9.81833 25.6973 9.74613
548 1 6.95295 25.5317 9.61854
549 1 12.616 28.5942 6.81969
550 1 12.7696 25.5862 9.78386
551 1 1.31434 28.4456 6.94978
552 1 4.18033 28.5136 6.88554
553 1 4.24639 28.264 9.63693
554 1 1.43455 28.4941 9.57979
555 1 1.48007 31.2083 6.95302
556 1 4.25951 31.1433 6.75485
557 1 4.25815 31.056 9.59548
558 1 1.41346 31.214 9.6822
559 1 7.07645 28.576 6.84182
560 1 9.76127 28.5081 6.8887
561 1 9.74643 28.4442 9.73708
562 1 7.06946 28.2861 9.60669
563 1 7.1319 31.2567 6.85687
564 1 9.73348 31.3946 6.62733
565 1 9.8256 31.0589 9.72299
566 1 6.9742 31.1655 9.53603
567 1 12.6446 31.3524 6.79377
568 1 12.5156 28.5334 9.66843
90 1 12.463 25.5024 1.28288
570 1 12.7794 31.3641 9.58245
571 1 1.25663 34.1281 6.85015
572 1 4.05606 34.0642 6.88122
573 1 4.24734 34.039 9.57143
574 1 1.40956 33.9954 9.71816
575 1 1.31537 36.8284 7.00492
576 1 4.18418 36.8029 6.90805
577 1 4.22153 36.886 9.72022
578 1 1.27835 36.6961 9.74741
579 1 6.93414 33.9512 6.84117
580 1 9.81698 34.0988 6.89878
581 1 9.76001 33.9678 9.65064
582 1 7.00106 33.9116 9.60615
583 1 6.90095 36.6915 7.02268
584 1 9.65571 36.9695 6.67471
585 1 9.72508 36.9326 9.59338
586 1 7.04694 36.8708 9.69777
587 1 12.5768 34.091 6.80949
588 1 12.4813 34.1261 9.7706
589 1 12.5135 36.8662 6.8208
590 1 12.5237 36.8898 9.4922
591 1 1.19985 39.8155 6.6759
592 1 4.13107 39.5321 6.73609
593 1 3.8765 39.5842 9.51818
594 1 1.09699 39.3685 9.56543
595 1 1.41588 42.5377 6.78115
596 1 4.11109 42.3274 6.93277
597 1 4.1542 42.3281 9.75026
598 1 1.41512 42.2823 9.58134
599 1 6.97898 39.7439 6.82538
600 1 9.64318 39.633 6.75362
601 1 9.52984 39.7516 9.37862
602 1 6.82108 39.6202 9.67525
603 1 6.802 42.4448 6.86229
604 1 9.77025 42.4627 6.73658
605 1 9.86984 42.4732 9.46692
606 1 6.92792 42.436 9.59979
607 1 12.6708 39.6878 6.78082
608 1 12.4695 39.6464 9.55494
609 1 12.5919 42.328 6.67815
610 1 12.5901 42.35 9.64386
611 1 1.22771 45.2263 6.90609
612 1 4.14838 45.3337 6.91843
613 1 3.85922 45.1455 9.76457
614 1 1.23877 45.1004 9.58985
615 1 1.36892 47.9387 6.92239
616 1 4.15442 48.1836 6.92075
617 1 4.21041 48.1129 9.56593
618 1 1.36786 48.0674 9.63232
619 1 7.05707 45.2075 6.81953
620 1 9.78508 45.4403 6.90213
621 1 9.66005 45.3282 9.63164
622 1 6.80595 45.1853 9.74802
623 1 6.87984 48.1508 6.78556
624 1 9.90623 48.1985 6.90533
625 1 9.74729 48.189 9.74264
626 1 6.90914 48.0255 9.70983
627 1 12.5074 45.2265 6.81969
628 1 12.4746 45.3333 9.56649
629 1 12.6881 48.0882 6.79567
630 1 12.6479 48.2343 9.47271
631 1 1.2345 25.6714 12.4279
632 1 4.10969 25.5595 12.35
633 1 6.91906 25.5282 12.6076
634 1 9.7592 25.5121 12.4738
635 1 12.5561 25.7605 12.4998
636 1 1.55167 28.4734 12.541
637 1 4.22799 28.2066 12.4555
638 1 1.34267 31.156 12.4854
639 1 4.25134 31.1815 12.4967
640 1 7.16584 28.2722 12.3991
641 1 9.77549 28.4933 12.3935
642 1 7.02936 31.2145 12.4676
643 1 9.78648 31.1421 12.6315
644 1 12.5241 28.4144 12.5566
645 1 12.5992 31.3292 12.4402
646 1 1.36915 33.8613 12.5391
647 1 4.12908 33.8564 12.2759
648 1 1.19726 36.8649 12.414
649 1 4.20168 36.7623 12.4383
650 1 6.95657 33.9939 12.5406
651 1 9.6737 33.8786 12.4134
652 1 6.91675 36.919 12.5026
653 1 9.78968 36.9127 12.5755
654 1 12.5516 34.099 12.5513
655 1 12.4874 36.9812 12.4309
656 1 1.31089 39.6281 12.3516
657 1 4.10583 39.5202 12.3405
658 1 1.24228 42.4316 12.4233
659 1 4.09002 42.3384 12.4724
660 1 6.82879 39.5699 12.4688
661 1 9.55062 39.7541 12.375
662 1 6.99456 42.3481 12.4105
663 1 9.79702 42.6044 12.2586
664 1 12.6154 39.694 12.3834
665 1 12.5002 42.5176 12.2608
666 1 1.4124 45.2916 12.4887
667 1 4.16008 45.2033 12.4867
668 1 1.53526 48.1367 12.3291
669 1 4.30291 47.9906 12.4937
670 1 7.05122 45.2561 12.4822
671 1 9.99259 45.4407 12.3398
672 1 6.9722 48.0717 12.3999
673 1 9.91973 48.1534 12.5173
674 1 12.6928 45.3861 12.4409
675 1 12.7017 48.1846 12.3363
12363 2 11.2234 49.5523 11.0723
89 1 12.6658 28.3963 1.18295
12253 2 2.81104 27.0663 2.66161
12362 2 5.58893 49.4532 11.0729
12306 2 -0.0314885 32.5929 5.44782
180 1 12.4805 25.8773 6.91369
12257 2 8.37431 26.9337 2.6767
12258 2 5.50588 29.693 2.56742
12382 2 5.5889 46.6247 13.8465
12260 2 11.2127 29.8873 2.61806
12360 2 11.1365 43.9605 10.8802
12341 2 0.0617482 26.9447 11.0041
12263 2 2.70507 32.7278 2.54532
12359 2 8.51741 46.7309 11.0922
15297 2 13.9527 27.0685 8.23138
911 1 9.65017 50.8081 3.95008
12267 2 8.24671 32.3198 2.42217
12268 2 5.34579 35.3044 3.16504
12345 2 11.2715 27.0488 11.0822
12270 2 11.4785 35.4487 2.74732
12358 2 5.44386 43.8066 11.0119
12344 2 8.49511 29.7263 11.0316
12273 2 2.64747 38.3246 2.58404
12357 2 2.79393 46.6412 11.0301
12343 2 5.64558 26.9078 11.1053
179 1 12.5999 25.625 3.90382
12277 2 8.52453 38.7283 2.59338
12278 2 5.52005 41.1779 2.6439
12367 2 5.57373 29.7394 13.8841
12280 2 11.2339 41.2194 2.57766
12355 2 11.1178 38.3804 11.0019
12381 2 8.35858 43.981 13.8898
12283 2 2.70606 43.8757 2.63387
12354 2 8.21729 41.0074 10.9848
851 1 6.45649 36.5932 1.69118
12342 2 2.96965 29.7008 11.0654
12287 2 8.37374 43.8904 2.62534
12288 2 5.61364 46.5665 2.59684
12340 2 11.2259 49.5356 5.48459
12290 2 11.1449 46.7428 2.60245
12353 2 5.52721 38.2477 11.1284
12292 2 2.50223 49.4368 2.73716
12262 2 5.56433 35.3158 0.0965432
12294 2 8.32162 49.5123 2.64825
12379 2 2.82221 43.9017 13.9424
12339 2 8.21453 49.5119 8.21703
12297 2 2.78199 29.7976 5.4936
12298 2 2.86746 26.925 8.24989
12338 2 5.49971 49.5575 5.39596
12300 2 5.55684 27.1414 5.54986
12301 2 8.362 29.8443 5.35285
12302 2 8.40596 26.938 8.34257
12303 2 5.60395 29.8417 8.14731
12304 2 11.1547 27.1523 5.43986
12305 2 11.127 29.9307 8.16082
12352 2 2.65388 40.9801 10.9789
12307 2 2.6358 35.4727 5.45618