ITEM: TIMESTEP
175000
ITEM: NUMBER OF ATOMS
18000
ITEM: BOX BOUNDS xy xz yz pp pp pp
-9.8576839945834008e-02 2.7992576839946736e+01 0.0000000000000000e+00
-1.0728515322532148e+00 3.3580085153227719e+02 0.0000000000000000e+00
-1.0031812547689008e-01 2.7994318125477150e+01 0.0000000000000000e+00
ITEM: ATOMS id type x y z
1 1 1.24261 0.324881 1.27502
2 1 3.99865 0.20531 1.31063
3 1 4.13921 0.256095 4.13061
4 1 1.38561 0.296644 4.11373
5 1 1.31295 3.26486 1.21673
6 1 4.14229 2.99725 1.34581
7 1 4.12236 3.02176 4.27404
8 1 1.27852 3.06577 3.89937
9 1 7.03357 3.049 1.44422
10 1 9.75269 0.158827 1.39909
11 1 9.87279 0.352718 4.06663
12 1 6.90691 2.77855 4.16492
13 1 7.06779 5.78437 1.51372
14 1 9.81532 2.89227 1.28865
15 1 9.82394 3.1028 4.00205
16 1 6.97826 5.69254 4.15549
17 1 12.5888 0.333281 1.15204
18 1 12.7922 0.327611 4.038
19 1 12.5335 3.03807 1.26855
20 1 12.5665 3.03096 4.1835
21 1 1.44035 6.04705 1.25973
22 1 4.18927 6.05024 1.45712
23 1 4.25933 5.80626 4.08452
24 1 1.31773 5.90159 4.18242
25 1 1.34447 8.93984 1.25391
26 1 4.21412 8.6763 1.48641
27 1 3.99256 11.7068 4.09627
28 1 1.4395 8.91331 3.95242
12049 2 11.1499 21.4391 -0.00433876
30 1 9.86137 5.67004 1.20231
31 1 9.82021 5.93696 4.02272
32 1 6.34173 8.21369 5.82467
33 1 6.60568 10.5425 3.74092
34 1 9.73357 8.48037 1.16266
35 1 7.85321 8.19508 3.671
36 1 6.26408 12.3118 5.77137
37 1 12.6245 6.03302 1.16829
38 1 12.6606 5.82895 4.00553
39 1 12.506 8.89706 1.40575
40 1 12.6314 8.69388 4.08805
41 1 1.26247 11.6746 1.36539
42 1 4.13581 11.5838 1.1399
43 1 7.07764 14.4448 4.09004
44 1 1.31625 11.7325 4.20115
45 1 1.25789 14.5869 1.52142
46 1 4.01743 14.4294 1.37877
47 1 4.32497 14.3331 4.07962
48 1 1.41127 14.6671 4.21199
49 1 4.16172 8.73258 4.13294
50 1 9.92116 11.4269 1.46219
51 1 10.0585 9.093 4.5127
52 1 8.91949 11.7986 4.05992
53 1 6.90765 17.3586 4.36748
54 1 9.7953 14.3861 1.48476
55 1 12.5912 14.5367 4.11032
56 1 9.90365 14.6764 4.25488
57 1 12.5151 11.5259 1.09336
58 1 12.6589 11.6967 3.83779
59 1 12.5535 14.3539 1.43587
15012 2 14.0973 4.45498 2.55518
61 1 1.35126 17.3333 1.45833
62 1 4.23867 17.2266 1.32304
63 1 4.13302 17.3108 4.21227
64 1 1.32219 17.3658 4.19438
65 1 1.25783 20.0848 1.46494
66 1 4.16914 19.9699 1.33797
67 1 4.24229 20.1017 4.08163
68 1 1.42358 20.1819 4.21951
69 1 7.06539 17.2514 1.43537
70 1 9.82294 17.2292 1.37545
71 1 12.2533 17.3127 4.25501
72 1 9.5742 17.2911 4.077
73 1 6.96399 20.0356 1.36572
74 1 9.87742 20.1611 1.49116
75 1 9.66446 19.9548 4.36313
76 1 6.89904 20.0668 4.21155
77 1 12.6087 17.1677 1.1847
12101 2 -0.00727997 -1.14451 11.103
79 1 12.5875 20.127 1.39031
12003 2 2.87745 -1.21705 2.69212
81 1 1.29596 22.8722 1.36441
82 1 4.14527 22.7413 1.46887
83 1 4.2328 23.0628 4.22755
84 1 1.37958 22.7959 4.20259
85 1 6.9381 22.7226 1.35327
86 1 9.7529 22.9038 1.33275
87 1 9.75501 22.8797 4.2298
88 1 7.0226 22.9279 4.23044
12094 2 -0.149048 24.2925 8.45435
12121 2 -0.0970308 21.5336 11.1177
91 1 1.34707 0.415183 6.91863
92 1 4.16318 0.376111 7.17512
93 1 4.24644 2.8252 9.87129
94 1 1.79327 0.36279 9.5743
95 1 1.41238 3.28144 6.88489
96 1 4.15479 3.27091 7.07154
97 1 6.9871 6.09857 9.88796
98 1 1.55905 3.02046 9.87909
99 1 7.02069 3.32016 6.91179
100 1 9.87506 0.174627 6.80249
101 1 9.72046 0.261341 9.68287
102 1 7.16868 3.18811 9.56999
103 1 7.3183 5.99213 7.18835
104 1 9.8206 3.02929 6.85052
105 1 9.8523 3.12633 9.66649
106 1 6.8602 5.90768 12.6623
107 1 12.6355 0.445908 6.83591
108 1 12.5263 0.380726 9.60651
109 1 12.6773 3.20164 7.0073
110 1 12.6077 3.1261 9.82707
111 1 1.52495 6.01738 6.95689
112 1 4.37571 5.9606 6.95869
113 1 4.26611 8.68891 9.74932
114 1 1.40374 5.91913 9.71128
115 1 1.44511 8.88184 6.9232
116 1 3.97196 8.80266 7.08625
117 1 6.57062 10.0811 7.36104
118 1 1.42711 8.79865 9.77772
119 1 9.13456 8.60854 6.94751
120 1 9.97169 5.86559 6.83496
121 1 9.95383 5.90777 9.7402
122 1 7.18956 8.81422 9.73675
123 1 8.6596 11.7518 7.10055
124 1 12.7652 8.66357 6.91948
125 1 11.0593 10.3968 7.92371
126 2 8.69853 10.1257 8.67234
127 1 12.8448 5.83061 6.90299
128 1 12.8041 5.96157 9.79083
12128 2 8.62256 -0.970333 13.9931
130 1 12.8703 11.7129 9.7937
131 1 1.28046 11.6783 7.00962
132 1 3.99903 11.6203 7.09457
133 1 4.27748 11.642 9.80203
134 1 1.27708 11.7113 9.68833
135 1 1.44214 14.6438 7.14302
136 1 4.2126 14.5226 6.88598
137 1 4.19891 14.4019 9.80725
138 1 1.38836 14.4603 9.92565
139 1 10.02 14.5854 7.26676
140 1 11.0335 12.454 5.96761
141 1 9.97824 11.7232 9.92374
142 1 7.09108 11.659 9.79093
143 1 7.05606 14.55 7.06917
144 1 9.65232 17.1934 7.02559
145 1 9.91482 14.52 9.95001
146 1 6.99837 14.5889 9.88504
147 1 12.8985 14.4049 6.95949
148 1 12.8513 14.5495 9.59145
149 1 12.3674 17.4833 7.1931
150 1 12.4592 17.2867 9.9149
151 1 1.28879 17.3078 7.14221
152 1 4.09452 17.3201 7.0861
153 1 4.15332 17.1642 9.73839
154 1 1.2827 17.237 9.96711
155 1 1.33896 20.1995 6.98579
156 1 4.11953 20.0668 7.11141
157 1 4.00202 19.9597 9.77267
158 1 1.26803 20.1773 9.75518
159 1 7.02501 17.1975 7.17084
160 1 12.5288 23.106 4.21812
161 1 9.80269 17.3849 9.87099
162 1 7.03149 17.3306 9.89849
163 1 6.91134 20.1545 6.97243
164 1 9.82546 20.1759 7.08261
165 1 9.74264 20.2167 9.88219
166 1 6.88614 20.149 9.74583
241 1 9.67149 8.76961 12.6102
168 1 12.5442 20.1015 9.87341
169 1 12.6098 22.7867 7.01619
170 1 12.5057 23.0454 9.80093
171 1 1.30067 22.9106 6.94941
172 1 4.16097 22.9085 7.07855
173 1 4.076 22.8925 9.84625
174 1 1.23827 22.872 9.82553
175 1 6.99834 22.9529 6.91086
176 1 9.7659 22.8796 6.92239
177 1 9.65756 22.9695 9.71811
178 1 6.78296 22.9017 9.82492
12064 2 0.0267791 7.39863 8.28251
15126 2 14.1352 -1.05656 13.9542
181 1 1.30787 0.351257 12.3327
182 1 4.10904 0.251037 12.4147
183 1 1.42279 3.09873 12.4785
184 1 4.28446 3.15414 12.4992
185 1 7.02862 0.391336 12.3818
186 1 9.83357 0.359049 12.4796
187 1 7.09133 3.06808 12.3408
188 1 9.88033 3.21751 12.5769
189 1 12.676 0.390184 12.4832
190 1 12.668 3.18047 12.5174
191 1 1.34948 5.88654 12.4202
192 1 4.23156 5.64625 9.71307
193 1 1.4267 8.66949 12.5134
194 1 4.11173 8.81454 12.4022
195 1 4.17882 5.97101 12.4874
196 1 9.81751 6.0107 12.4835
197 1 10.042 8.71914 10.0325
198 1 12.7761 8.78328 9.87243
199 1 12.5694 5.92471 12.6508
200 1 12.5885 8.87311 12.4955
201 1 1.38844 11.4979 12.5531
202 1 4.31783 11.6707 12.6072
203 1 1.31954 14.3825 12.643
204 1 4.06071 14.5679 12.5657
205 1 7.05289 11.6624 12.5194
206 1 9.93226 11.5565 12.6639
207 1 7.00133 14.2943 12.759
208 1 9.76568 14.3747 12.8341
209 1 12.5863 11.5361 12.5687
210 1 12.5941 14.3435 12.5714
211 1 1.30093 17.3449 12.732
212 1 4.19917 17.3077 12.4781
213 1 1.23152 20.1974 12.6826
214 1 4.06927 20.2152 12.7986
215 1 7.02974 17.2321 12.5985
216 1 9.89269 17.1541 12.7355
217 1 6.98275 20.0083 12.5742
218 1 9.6932 19.8146 12.7964
219 1 12.5873 17.2396 12.773
220 1 12.5382 20.1127 12.7409
221 1 1.22685 22.9336 12.6428
222 1 4.07838 22.9087 12.675
223 1 6.91124 22.7509 12.7405
224 1 9.86977 22.7597 12.671
225 1 12.5183 22.9864 12.5516
12125 2 11.1521 21.5555 11.1294
12110 2 11.3029 4.50284 11.1435
12126 2 2.76387 -1.0557 13.9411
12124 2 8.46127 24.3375 11.3399
80 1 12.7269 22.9132 1.51657
12109 2 8.51265 7.4691 11.1776
15031 2 14.0572 18.5971 -0.008112
12008 2 5.59772 1.66853 2.74086
243 1 6.875 8.85177 12.6538
12010 2 11.2357 1.50031 2.65526
12123 2 5.53266 21.4074 11.2699
12108 2 5.68623 4.54192 11.0877
12013 2 2.71836 4.58506 2.72959
12122 2 2.70498 24.2791 11.2859
12107 2 2.79261 7.22372 11.075
12112 2 2.67936 13.0513 11.1107
12017 2 8.40506 4.41801 2.68966
12018 2 5.63069 7.45171 2.81872
12104 2 8.49046 1.70855 11.0656
12020 2 11.2174 7.4537 2.73177
60 1 12.5387 20.251 4.13501
12032 2 2.66903 18.6032 0.0328514
12023 2 2.70249 10.265 2.73182
12120 2 11.2214 15.6801 11.2364
12102 2 2.81614 1.7341 11.176
12113 2 5.61609 10.2244 11.0381
12027 2 8.35214 9.95564 2.2364
12028 2 5.74744 12.8095 2.96939
12100 2 11.1751 24.1157 8.36085
12030 2 11.1239 13.0882 2.77408
12099 2 11.1944 21.4432 5.61856
12098 2 5.51475 24.3558 8.5148
12033 2 2.83619 15.8471 2.73497
412 1 7.18042 14.3928 1.45763
12097 2 8.25406 21.625 8.37641
12096 2 8.34515 24.2417 5.56744
12037 2 8.43212 15.8882 2.69806
12038 2 5.55264 18.723 2.78423
12095 2 5.54543 21.4872 5.60134
12040 2 11.1115 18.8355 2.81057
29 1 6.90011 8.67643 1.13531
12093 2 2.79087 21.4294 8.48522
12043 2 2.76266 21.5046 2.74035
5723 1 7.2104 0.282532 6.9226
12092 2 2.69399 24.3327 5.66371
5634 1 6.94234 0.226066 1.33301
12047 2 8.33075 21.446 2.80791
12048 2 5.65246 24.2008 2.91462
12090 2 11.1372 18.7088 8.63721
12050 2 11.2471 24.369 2.8179
12119 2 8.39313 18.7564 11.2477
12052 2 2.74689 1.6261 5.41383
129 1 13.4152 11.389 6.74994
12118 2 5.61031 15.7445 11.3108
5633 1 7.00871 0.129522 4.14741
12056 2 8.47446 1.70045 5.46087
5726 1 6.67192 0.407692 9.52953
12058 2 5.683 1.8703 8.16036
12074 2 -0.0344046 13.1026 8.4936
12060 2 11.2571 1.72254 8.28931
12117 2 2.71845 18.6289 11.2145
12062 2 2.83459 7.365 5.6924
12063 2 2.77473 4.5933 8.40789
12089 2 11.3112 15.8759 5.6917
12065 2 5.63174 4.6105 5.64388
12066 2 8.42632 6.99834 5.50143
12067 2 8.63913 4.51108 8.25498
12068 2 5.72255 7.55174 8.27054
12069 2 11.3359 4.53697 5.49118
12070 2 11.2516 7.39622 8.21795
12115 2 11.3449 10.3206 11.12
12072 2 2.68725 13.1415 5.50412
12073 2 2.56968 10.2726 8.42365
12114 2 8.45825 13.0713 11.1619
12075 2 5.04624 10.3056 5.5989
12076 2 8.63208 13.4241 5.6441
12077 2 8.0605 10.1409 5.46159
12078 2 5.64631 12.9686 8.21768
12079 2 11.7424 10.3273 5.57223
12080 2 11.4432 12.8909 8.25957
395 1 7.04756 11.6593 1.26091
12082 2 2.80063 18.6767 5.63371
12083 2 2.77097 15.8148 8.45132
15081 2 13.5094 18.7065 5.67062
12085 2 5.67914 15.7947 5.62502
12086 2 8.29311 18.6485 5.74547
12087 2 8.48892 15.9556 8.55452
12088 2 5.53461 18.6697 8.42552
167 1 12.5483 20.1186 7.12489
12105 2 11.1321 -1.08979 11.1124
12091 2 -0.116544 21.4272 5.65509
12051 2 -0.184342 -1.1243 5.46655
12057 2 8.36657 -1.1002 8.2749
12007 2 8.30266 -1.23303 2.74401
12054 2 0.14295 1.66889 8.35425
12024 2 -0.128426 13.0646 2.7315
12084 2 -0.102205 18.5827 8.39615
15071 2 13.9741 13.1316 5.32318
12041 2 -0.0576331 21.4388 -0.00233837
12111 2 0.147509 10.0953 11.1274
15116 2 13.8892 18.6376 11.4681
12116 2 -0.0752673 15.9872 11.2466
12059 2 11.1204 -1.17218 5.48008
12106 2 -0.0105364 4.54126 11.1276
12045 2 5.5673 21.3927 -0.0530633
12130 2 11.3053 1.86852 13.971
12129 2 5.69881 1.77485 13.9164
12034 2 -0.0164627 18.7917 2.86922
15091 2 13.9102 24.3354 5.57129
12039 2 11.1814 15.7697 -0.097047
12071 2 0.0356068 10.1784 5.62486
12036 2 8.35944 18.71 0.0151409
12044 2 -0.0966199 24.1875 2.88911
12012 2 2.82297 7.36731 -0.0335511
12139 2 5.73258 12.8924 14.0591
12022 2 2.64281 12.967 0.0168274
12025 2 5.53981 10.164 -0.115583
12016 2 8.36822 7.10175 -0.0699435
12133 2 8.39324 4.51666 13.8159
12042 2 2.87382 24.1085 -0.0189497
12005 2 5.57707 -1.09934 0.0551614
12132 2 -0.108871 7.39127 13.8687
12134 2 5.54468 7.36913 13.9076
12035 2 5.5672 15.8259 0.0215645
12002 2 2.66272 1.69074 -0.0799122
12145 2 11.2343 18.5572 14.1371
226 1 4.22955 0.317444 15.2346
227 1 1.37743 0.454694 15.4524
228 1 4.20178 3.01257 15.1712
229 1 1.39229 3.18879 15.3592
230 1 9.89856 0.324842 15.3672
231 1 7.09465 0.372721 15.2748
232 1 9.90534 3.13011 15.5773
233 1 7.0248 3.26234 15.3079
234 1 12.6252 0.399858 15.1897
235 1 12.6584 3.19789 15.3462
236 1 4.0156 5.95171 15.2953
237 1 1.35807 6.04302 15.2057
238 1 4.06529 8.87253 15.3155
239 1 1.44675 8.82385 15.3242
240 1 10.0042 5.93656 15.3313
12157 2 8.39718 -1.08905 19.5543
242 1 9.72582 8.72969 15.3286
5993 1 6.89663 0.489733 23.8757
244 1 12.6146 5.89957 15.4759
245 1 12.5328 8.75441 15.3647
246 1 4.24887 11.6473 15.4981
247 1 1.47853 11.6537 15.2381
248 1 4.25848 14.3805 15.4326
249 1 1.44382 14.3488 15.3647
250 1 9.83256 11.5765 15.5485
251 1 7.05467 11.588 15.3911
252 1 9.74159 14.4837 15.6168
253 1 7.00878 14.5191 15.4987
254 1 12.6438 11.491 15.3557
255 1 12.5364 14.248 15.332
256 1 4.05121 17.2145 15.265
257 1 1.29377 17.0823 15.4242
258 1 4.18003 20.0797 15.4715
259 1 1.4743 19.9415 15.5961
260 1 9.83183 17.224 15.7932
261 1 6.85596 17.2548 15.339
262 1 9.91331 20.0797 15.4446
263 1 6.92021 20.0336 15.3529
264 1 12.7637 17.228 15.5495
265 1 12.6375 20.2173 15.5042
266 1 4.05316 22.8527 15.3508
267 1 1.36593 22.9442 15.5367
268 1 9.76174 22.9459 15.3286
269 1 6.96034 22.8595 15.4141
270 1 12.5901 22.9001 15.4978
271 1 1.32902 0.294662 18.1983
272 1 4.18294 0.452229 17.9925
273 1 4.1866 0.369763 20.9555
274 1 1.30478 0.322828 21.1732
275 1 1.34329 3.10271 18.3304
276 1 4.0862 3.24856 18.2343
277 1 4.25037 3.16452 20.9455
278 1 1.4612 3.21925 21.0257
279 1 6.95154 3.04777 18.1091
280 1 9.73219 0.458646 18.325
281 1 9.881 0.230284 21.0894
282 1 6.87136 3.12182 20.8335
283 1 6.92223 5.90272 18.0391
284 1 9.81797 3.16302 18.3222
285 1 9.68247 3.03893 21.0166
286 1 6.97598 5.90549 23.7127
287 1 12.644 0.231318 18.1167
288 1 12.6395 0.351038 20.9308
289 1 12.6549 3.10147 18.1162
290 1 12.5807 3.17241 20.8904
291 1 1.30406 5.94408 18.1134
292 1 4.00386 5.98431 18.1534
293 1 4.20822 6.02232 20.9804
294 1 1.2948 5.96389 20.8307
295 1 1.35797 8.73393 18.1888
296 1 4.34112 8.74312 18.0353
297 1 4.00836 8.83217 20.898
298 1 1.32139 8.83298 20.9397
299 1 6.96764 6.15586 15.2732
300 1 9.72902 5.95938 18.0842
301 1 9.89822 6.0873 20.9112
302 1 6.99951 5.9974 20.9585
303 1 6.77875 8.81411 15.4819
304 1 9.92831 8.72359 18.2039
305 1 9.64216 8.73862 20.9321
306 1 7.07092 8.66512 18.287
307 1 12.6559 6.02539 18.1758
308 1 12.6124 6.02962 20.9778
309 1 12.6832 8.83665 18.235
310 1 12.5327 8.7598 21.0508
311 1 1.30446 11.6987 17.991
312 1 3.99669 11.5929 18.3302
313 1 4.17814 11.5784 20.9561
314 1 1.40809 11.5677 20.9072
315 1 1.37258 14.3541 18.1399
316 1 4.2638 14.3709 18.1922
317 1 4.1707 14.501 21.0383
318 1 1.56182 14.5103 20.954
319 1 6.98867 11.6943 18.184
320 1 9.6887 11.4084 18.3813
321 1 9.69133 11.5363 21.2018
322 1 6.88203 11.5885 21.1143
323 1 7.08448 14.4271 18.3398
324 1 9.79767 14.3926 18.132
325 1 9.83311 14.2221 21.0106
326 1 7.01042 14.4706 21.0847
327 1 12.6071 11.5468 18.2696
328 1 12.5096 11.5824 20.9757
329 1 12.6589 14.2275 18.2139
330 1 12.3676 14.5079 21.02
331 1 1.39662 17.2076 18.0859
332 1 4.12593 17.2796 18.2829
333 1 4.17664 17.2927 21.1016
334 1 1.3114 17.21 20.9135
335 1 1.45767 19.9788 18.2526
336 1 4.25712 20.0658 18.2449
337 1 4.05465 20.0269 21.1173
338 1 1.40752 19.9416 20.995
339 1 7.01497 17.3105 18.3152
340 1 9.64341 17.4635 18.3834
341 1 9.82337 17.1573 21.0702
342 1 7.01231 17.2526 20.9779
343 1 6.98912 20.0022 18.2465
344 1 9.84497 20.3125 18.0824
345 1 9.67627 20.0784 20.97
346 1 6.93588 20.1294 20.9389
347 1 12.4934 17.1957 18.1709
348 1 12.7247 17.4212 20.9813
349 1 12.5182 20.1317 18.2726
350 1 12.5633 20.0797 21.0265
351 1 1.44706 22.7677 18.3426
352 1 4.16525 22.7629 18.2994
353 1 4.14392 22.9017 21.1169
354 1 1.39925 22.8812 21.1567
355 1 7.05442 22.8276 18.0985
356 1 9.9607 23.0292 18.1128
357 1 9.75341 22.9069 20.9764
358 1 7.05075 23.0082 20.8221
359 1 12.6568 22.896 18.2903
360 1 12.5672 22.8987 21.058
361 1 1.37898 0.230001 23.7658
362 1 4.24079 0.254128 23.9191
363 1 4.22613 0.20919 26.79
364 1 1.33094 0.42606 26.5583
365 1 1.31224 3.0465 23.7066
366 1 4.258 3.13254 23.7869
367 1 4.02061 3.03228 26.6423
368 1 1.40866 3.07782 26.4285
369 1 7.08611 3.30539 23.69
370 1 9.74858 0.169104 23.6704
371 1 9.7465 0.248074 26.5498
372 1 6.98797 3.21451 26.6742
373 1 6.89871 5.98171 26.6132
374 1 9.8201 3.14614 23.8559
375 1 9.66467 3.06819 26.4782
376 1 9.8157 5.72614 26.5755
377 1 12.6484 0.291631 23.7765
378 1 12.5336 0.360378 26.4825
379 1 12.66 3.10613 23.6986
380 1 12.4434 3.15472 26.4783
381 1 1.44671 5.95168 23.6989
382 1 4.2468 6.00587 23.8063
383 1 4.09226 5.94069 26.6522
384 1 1.24749 5.99913 26.6297
385 1 1.32104 8.88584 23.7787
386 1 4.09254 8.58559 23.7149
387 1 4.08884 8.82162 26.6606
388 1 1.34112 8.65631 26.6666
389 1 6.86269 8.7715 23.8333
390 1 9.89325 5.92454 23.8114
391 1 9.64139 8.50836 26.6702
392 1 7.03106 8.75722 26.5214
393 1 6.7952 8.80097 21.0364
394 1 9.66251 8.65724 23.8261
12146 2 2.72024 21.4357 14.0428
396 1 7.00698 11.606 26.7181
397 1 12.6627 5.93059 23.7941
398 1 12.656 5.98954 26.5378
399 1 12.5444 8.77706 23.8185
400 1 12.5966 8.73936 26.6783
401 1 1.44846 11.5668 23.7249
402 1 4.21945 11.4534 23.8432
403 1 4.12066 11.6263 26.5898
404 1 1.44211 11.2819 26.7042
405 1 1.35791 14.3004 23.8987
406 1 4.16704 14.4443 23.7558
407 1 4.22421 14.5616 26.5632
408 1 1.33509 14.3061 26.8645
409 1 6.86463 11.6514 23.9322
410 1 9.79193 11.6208 23.9023
411 1 9.81803 11.4965 26.7076
12144 2 5.53517 18.5797 13.9931
413 1 7.0073 14.5258 23.9285
414 1 9.75583 14.4014 24.0236
415 1 9.72997 14.3998 26.7114
416 1 6.97685 14.669 26.7153
417 1 12.5985 11.518 23.7105
418 1 12.7034 11.4573 26.4286
419 1 12.665 14.2488 23.9068
420 1 12.4612 14.3708 26.6995
421 1 1.35397 17.1738 23.8234
422 1 4.15959 17.0749 23.7737
423 1 4.16289 17.4518 26.6089
424 1 1.34092 17.2268 26.6481
425 1 1.36554 20.08 23.8263
426 1 4.21177 20.0288 23.7533
427 1 4.17811 20.0749 26.5565
428 1 1.39152 20.1319 26.6625
429 1 7.02351 17.2854 23.8116
430 1 9.59141 17.4833 23.8823
431 1 9.8048 17.3233 26.6481
432 1 7.08528 17.3992 26.5979
433 1 6.82449 20.1183 23.8678
434 1 9.72932 20.2816 23.8976
435 1 9.7775 20.0611 26.7064
436 1 6.934 20.1421 26.588
437 1 12.4104 17.3343 23.8377
438 1 12.4324 17.2837 26.4716
439 1 12.6285 20.0514 23.784
440 1 12.6777 20.1842 26.8158
441 1 1.35322 22.8581 23.8698
442 1 4.11787 22.8742 23.9004
443 1 4.15787 22.8089 26.7098
444 1 1.39993 22.7628 26.6832
445 1 6.81638 22.8915 23.606
446 1 9.73636 22.863 23.817
447 1 9.76442 22.897 26.6219
448 1 6.79616 22.8705 26.48
449 1 12.6616 22.92 23.683
450 1 12.588 22.9452 26.6722
12153 2 2.82787 -1.18337 19.4973
12250 2 11.2243 24.3116 25.1229
15222 2 14.0842 10.0844 25.2321
12159 2 11.3227 -1.04825 16.7837
5906 1 7.0146 0.338383 20.9172
12204 2 -0.0657749 1.81731 25.1109
12249 2 11.2122 21.4006 22.3713
15201 2 13.9904 1.65368 22.3215
12194 2 -0.111687 24.2958 19.659
12155 2 5.52188 -1.04842 16.6705
15241 2 14.035 24.2839 22.4358
12248 2 5.46085 24.2515 25.2308
12015 2 5.51993 4.65964 28.1404
12221 2 -0.0433703 10.1222 22.2882
15181 2 14.1264 18.8164 16.8621
12154 2 -0.152953 1.77859 19.5875
15231 2 14.0751 18.5226 22.5166
12244 2 -0.0194261 24.1688 25.3141
12220 2 11.2226 7.21024 25.2653
12142 2 0.0107161 18.6616 13.9861
12232 2 2.74294 18.556 22.5303
12216 2 8.35244 7.32244 22.3585
5903 1 7.01068 0.131231 18.1024
12219 2 11.1983 4.47775 22.3854
12218 2 5.54421 7.40587 25.1742
12247 2 8.24825 21.5803 25.1551
12152 2 2.72671 1.7671 16.6582
12227 2 8.33112 10.0895 25.304
12246 2 8.33674 24.2242 22.4131
12230 2 11.1808 12.8843 25.2277
12156 2 8.44733 1.70242 16.758
12229 2 11.0845 10.0604 22.3636
12158 2 5.50929 1.76185 19.5253
12217 2 8.35925 4.58652 25.1634
12160 2 11.2636 1.62387 19.6153
12245 2 5.61132 21.5126 22.3451
12162 2 2.73421 7.44615 16.6495
12163 2 2.66917 4.57532 19.5275
12228 2 5.5392 13.043 25.2646
12165 2 5.47936 4.64088 16.7329
12166 2 8.46563 7.34464 16.6185
12167 2 8.3568 4.52035 19.5202
12168 2 5.66246 7.35412 19.5841
12169 2 11.2828 4.56678 16.8167
12170 2 11.1453 7.33394 19.5447
12243 2 2.82241 21.4174 25.2463
12172 2 2.72845 13.0585 16.7744
12173 2 2.74411 10.1405 19.5385
12242 2 2.71121 24.3195 22.4236
12175 2 5.61118 10.2605 16.8107
12176 2 8.43169 12.9597 16.7649
12177 2 8.28476 10.1534 19.662
12178 2 5.67838 12.9847 19.5979
12179 2 11.0985 10.0938 16.886
12180 2 11.1308 12.9171 19.6192
12236 2 8.23485 18.7469 22.5486
12182 2 2.87144 18.6876 16.8202
12183 2 2.74264 15.8522 19.5679
12223 2 2.76291 10.1557 25.2406
12185 2 5.72372 15.7515 16.9195
12186 2 8.34813 18.6539 16.7871
12187 2 8.38304 15.8443 19.7058
12188 2 5.52034 18.677 19.6656
12189 2 11.2012 15.7945 16.9534
12190 2 11.0562 18.7672 19.6824
12226 2 8.3911 13.0003 22.6053
12192 2 2.73203 24.1697 16.9359
12193 2 2.72324 21.417 19.736
12225 2 5.482 10.0992 22.4394
12195 2 5.59325 21.5211 16.7659
12196 2 8.39859 24.3206 16.8496
12197 2 8.40275 21.4605 19.52
12198 2 5.49 24.2443 19.683
12199 2 11.2644 21.5628 16.7875
12200 2 11.1404 24.2704 19.6353
12240 2 11.0718 18.8495 25.2374
12202 2 2.90678 1.77201 22.4053
5996 1 7.04813 0.33581 26.6881
12239 2 10.9678 15.7783 22.5565
12222 2 2.80598 12.9722 22.2679
12206 2 8.22916 1.76418 22.497
12235 2 5.44688 15.7752 22.4848
12208 2 5.552 1.71113 25.3334
12233 2 2.83391 15.7749 25.2135
12210 2 11.1063 1.52064 25.0534
12238 2 5.5716 18.5968 25.2789
12212 2 2.75494 7.30357 22.3415
12213 2 2.81248 4.52149 25.1768
12237 2 8.34524 15.8925 25.258
12215 2 5.60507 4.57356 22.3695
12029 2 11.2334 10.0787 27.9855
12138 2 8.27782 10.0941 13.9263
12231 2 -0.00495977 15.7452 22.4481
12151 2 -0.0132269 -1.14202 16.8154
12148 2 8.44289 21.3185 14.0406
12174 2 -0.0268694 12.9779 19.5151
15171 2 13.9923 13.0404 16.8289
12019 2 11.1775 4.45815 28.0338
12136 2 2.8919 10.2424 13.8824
12161 2 0.114383 4.57626 16.7338
12184 2 -0.0135131 18.6086 19.4612
12006 2 8.33191 1.67244 28.0761
12241 2 -0.0223449 21.4717 22.5354
12201 2 0.0616055 -1.22027 22.3811
12234 2 0.0237744 18.6327 25.2074
12021 2 -0.148706 10.1389 28.0646
12150 2 11.2161 24.293 13.994
12164 2 -0.0980171 7.32864 19.5063
12135 2 11.2232 7.31824 13.7933
12214 2 0.00046216 7.31066 25.1016
12171 2 0.0286513 10.1554 16.7318
12140 2 11.133 12.8804 14.0682
12224 2 -0.0345037 12.8286 25.2522
12149 2 5.62679 24.1649 13.9816
12137 2 0.0453468 12.8761 14.0176
12131 2 2.85265 4.65875 13.7427
12143 2 8.34721 15.8612 14.0524
12127 2 0.111888 1.71493 13.894
12046 2 8.39028 24.1678 28.0441
12026 2 8.46572 12.9833 28.0852
15041 2 13.9977 24.2463 28.1961
12141 2 2.74471 15.9231 13.9331
12147 2 -0.0954175 24.1668 13.9984
451 1 1.27844 25.6349 1.62081
452 1 4.1524 25.6288 1.39193
453 1 4.26445 25.8449 4.17102
454 1 1.44057 25.681 4.30662
455 1 7.02359 25.5575 1.49177
456 1 9.90795 25.7753 1.44634
457 1 9.61052 25.6425 4.20232
458 1 6.90113 25.8673 4.23471
459 1 12.6093 31.2885 1.40908
460 1 12.4573 28.5121 4.03976
461 1 1.44249 28.3418 1.23433
462 1 4.24776 28.3299 1.23442
463 1 4.13028 28.5782 4.1811
464 1 1.35389 28.4515 4.11628
465 1 1.48604 31.2438 1.2522
466 1 4.18802 31.0568 1.27846
467 1 4.0001 31.2558 4.17679
468 1 1.41304 31.3448 3.96441
469 1 6.92892 28.2986 1.3304
470 1 9.71048 28.4813 1.42443
471 1 9.80716 28.5709 4.24019
472 1 6.97299 28.6102 4.15342
473 1 7.0343 31.0257 1.28845
15306 2 14.1648 35.5954 5.42458
475 1 9.5439 31.4897 4.32208
476 1 6.67793 31.2401 4.25744
477 1 9.62325 31.0941 1.25246
478 1 9.8567 33.8815 2.02095
12264 2 -0.141735 35.5474 2.78203
12336 2 -0.116348 49.5326 5.5482
481 1 0.995712 34.191 1.37981
482 1 5.47083 33.3525 1.91533
483 1 4.17182 34.0361 4.54431
484 1 1.25823 34.1096 4.20856
15327 2 13.9502 43.974 8.25143
486 1 3.47429 34.9495 1.85642
487 1 4.23851 36.8846 4.37574
488 1 1.39824 36.983 4.2204
489 1 7.31023 34.8654 1.3552
847 1 1.41644 36.9144 1.32734
491 1 10.1451 34.8455 4.3443
492 1 7.36965 34.28 4.10939
493 1 5.01698 36.9944 1.68585
494 1 10.2228 36.4787 1.06526
495 1 9.95623 37.4255 3.75157
496 1 7.24327 37.0062 3.99268
497 1 12.6397 34.1576 1.22808
498 1 12.8646 34.0816 4.08606
499 1 12.8417 37.0738 1.15927
500 1 12.8859 37.0004 4.03685
501 1 1.3188 39.7025 1.32128
502 1 4.16654 39.7964 1.34961
503 1 4.18326 39.8442 4.13188
504 1 1.29876 39.7227 4.10929
505 1 1.44006 42.5802 1.41783
506 1 4.15554 42.5763 1.35522
507 1 4.07016 42.642 4.05827
508 1 1.16504 42.5306 4.198
509 1 6.97891 39.9727 1.37515
510 1 9.83683 39.7063 1.30098
511 1 9.76674 40.1289 4.15731
512 1 6.9349 39.8107 4.22018
513 1 7.01375 42.7001 1.2858
514 1 9.82162 42.5506 1.25673
515 1 9.68288 42.6753 4.06172
516 1 6.98351 42.5667 4.12282
517 1 12.66 39.7456 1.18486
518 1 12.561 39.7912 4.03941
519 1 12.6082 42.619 1.26694
520 1 12.6506 42.611 4.02531
521 1 1.30402 45.3867 1.37735
522 1 4.20289 45.3796 1.40712
523 1 4.04735 45.4031 4.17485
524 1 1.20364 45.3198 4.2716
525 1 1.2533 48.0765 1.34072
526 1 4.10639 48.2229 1.33062
527 1 3.99808 48.1962 4.0861
528 1 1.4333 48.1272 4.03808
529 1 6.94556 45.6114 1.23337
530 1 9.77881 45.3791 1.25647
531 1 9.71768 45.4435 4.09822
532 1 6.89247 45.3379 4.09952
533 1 7.08512 48.1883 1.39125
534 1 9.87404 48.137 1.32208
535 1 9.70636 48.26 4.14555
536 1 6.86928 48.0883 4.1432
537 1 12.6211 45.3874 1.3768
538 1 12.6968 45.4012 4.02493
539 1 12.6276 48.067 1.26743
540 1 12.5377 48.1825 4.06284
541 1 1.34281 25.7447 7.10874
542 1 4.31948 25.8567 7.13974
543 1 4.22054 25.6315 9.99093
544 1 1.42564 25.6138 9.81458
545 1 7.01026 25.8022 7.11596
546 1 9.74592 25.7453 6.97099
547 1 9.67804 25.8691 9.85122
548 1 7.06297 25.6336 9.96102
549 1 12.4282 28.4176 7.04842
550 1 12.5691 25.781 9.65897
551 1 1.32154 28.4641 7.02837
552 1 4.13931 28.6382 6.93808
553 1 4.20203 28.3312 9.71961
554 1 1.33735 28.4262 9.71413
555 1 1.16556 31.1677 6.86317
556 1 4.03769 31.2417 7.10399
557 1 4.10929 31.2737 9.98979
558 1 1.35689 31.1588 9.67104
559 1 7.1166 28.4579 7.05311
560 1 9.72675 28.4867 7.14944
561 1 9.72356 28.6174 9.95845
562 1 7.00586 28.355 10.0465
563 1 6.82348 31.1747 6.99142
564 1 9.68532 31.1834 7.07791
565 1 9.71791 31.1778 9.76737
566 1 6.92574 31.2153 9.89161
567 1 12.4377 31.3182 7.03122
568 1 12.7277 28.5518 9.96811
90 1 12.5851 25.7321 1.27034
570 1 12.576 31.4596 9.82914
571 1 1.27154 34.0562 7.00375
572 1 4.18304 34.1117 7.09169
573 1 4.27875 34.1033 10.0938
574 1 1.32474 33.9738 9.81588
575 1 1.32306 36.8468 6.88661
576 1 4.10044 36.9799 7.08613
577 1 4.074 36.8565 9.81094
578 1 1.25776 36.7253 9.80145
579 1 6.89156 33.8958 6.83216
580 1 9.61689 33.9987 7.01848
581 1 9.78421 33.9719 9.77156
582 1 6.91522 33.9894 9.63042
583 1 6.959 36.9175 6.89521
584 1 9.75328 36.9148 6.92023
585 1 9.65455 36.6085 9.69294
586 1 6.8566 36.8581 9.85586
587 1 12.5656 34.0642 6.89061
588 1 12.6086 34.0853 9.78327
589 1 12.5093 36.8032 6.83837
590 1 12.4403 36.7586 9.75059
591 1 1.05961 39.5817 6.95506
592 1 3.95324 39.7475 6.86629
593 1 3.98537 39.6612 9.65474
594 1 1.22865 39.6119 9.75154
595 1 1.14042 42.3686 7.04691
596 1 3.99478 42.5516 6.98342
597 1 4.07386 42.3847 9.79133
598 1 1.31064 42.264 9.93168
599 1 6.88208 39.7415 7.20432
600 1 9.71271 39.8225 6.78888
601 1 9.84899 39.6369 9.66471
602 1 6.83655 39.6096 9.81563
603 1 6.89968 42.4095 6.93515
604 1 9.77512 42.5613 6.94434
605 1 9.50251 42.4032 9.73351
606 1 6.83053 42.442 9.75224
607 1 12.5923 39.7515 6.89979
608 1 12.5113 39.7725 9.72354
609 1 12.6502 42.5248 6.7685
610 1 12.4596 42.626 9.55368
611 1 1.22168 45.2335 6.85213
612 1 4.03513 45.3164 6.96974
613 1 4.13093 45.2636 9.7681
614 1 1.14664 45.1221 9.6062
615 1 1.42678 48.0648 7.02297
616 1 4.46251 48.1425 6.97666
617 1 3.97667 48.1556 9.73761
618 1 1.21513 48.0219 9.80745
619 1 6.86688 45.2479 6.97809
620 1 9.62877 45.3431 6.82522
621 1 9.79559 45.1996 9.61344
622 1 6.80971 45.3562 9.88734
623 1 7.08659 48.135 6.84423
624 1 9.84535 48.0513 6.9565
625 1 9.69687 48.1557 9.60667
626 1 6.93472 48.1141 9.75769
627 1 12.4293 45.4391 6.82038
628 1 12.6174 45.3717 9.7811
629 1 12.6458 48.101 6.93458
630 1 12.4083 48.0685 9.71768
631 1 1.38733 25.557 12.6218
632 1 4.1603 25.885 12.7688
633 1 7.08234 25.6108 12.6533
634 1 9.93071 25.6752 12.4973
635 1 12.4554 25.7449 12.6081
636 1 1.40342 28.3353 12.5554
637 1 4.06366 28.5079 12.6834
638 1 1.22818 31.2175 12.6498
639 1 4.0643 31.2706 12.6553
640 1 6.95661 28.5727 12.761
641 1 9.68297 28.5134 12.5802
642 1 6.8952 31.3673 12.695
643 1 9.7242 31.3439 12.6545
644 1 12.6734 28.6911 12.6497
645 1 12.7184 31.4951 12.5068
646 1 1.12454 34.118 12.5311
647 1 4.05831 33.8804 12.7484
648 1 1.30565 36.863 12.5639
649 1 4.08933 36.8221 12.6347
650 1 6.97079 34.0397 12.519
651 1 9.70183 34.1021 12.7868
652 1 6.84124 36.8263 12.7238
653 1 9.67163 36.9027 12.5899
654 1 12.48 34.123 12.5228
655 1 12.5157 36.9327 12.6951
656 1 1.18461 39.6351 12.6407
657 1 3.90559 39.6278 12.5236
658 1 1.37475 42.4417 12.6381
659 1 4.14252 42.5229 12.4732
660 1 6.62139 39.595 12.5371
661 1 9.54345 39.6271 12.5491
662 1 6.88385 42.4348 12.6687
663 1 9.70364 42.5445 12.5304
664 1 12.4817 39.7754 12.4233
665 1 12.4446 42.5423 12.5885
666 1 1.46228 45.2193 12.3789
667 1 4.24165 45.3245 12.4572
668 1 1.1963 48.0175 12.5572
669 1 4.15197 48.0766 12.6122
670 1 6.9415 45.2085 12.6091
671 1 9.75987 45.2383 12.3434
672 1 6.96128 48.103 12.5784
673 1 9.74616 47.8801 12.4346
674 1 12.5679 45.3585 12.5355
675 1 12.5633 48.27 12.5469
12363 2 11.1503 49.3298 11.0903
89 1 12.5403 28.4023 1.20406
12253 2 2.77881 26.946 2.74008
12362 2 5.40867 49.4652 11.1247
479 2 10.9432 32.5078 0.0303986
180 1 12.5995 25.5395 6.92232
12257 2 8.46328 27.0981 2.84642
12258 2 5.42478 29.6975 2.79525
15297 2 13.8691 27.122 8.36077
12260 2 11.186 29.7941 2.68182
12360 2 11.1264 43.8582 11.1085
12271 2 -0.137792 38.3405 -0.117664
12263 2 2.85792 32.6498 2.51002
12359 2 8.21179 46.7183 11.1861
15356 2 13.8662 46.7675 11.1846
12259 2 11.1857 27.0317 -0.101444
12267 2 8.09007 32.4008 2.63296
12268 2 5.38132 35.3357 3.26959
12345 2 11.0948 27.1735 11.1337
12270 2 11.6553 35.5471 2.71306
12358 2 5.57401 43.8496 11.2222
12344 2 8.33501 29.9819 11.358
12273 2 2.83543 38.2409 2.82591
12357 2 2.57349 46.7773 11.0068
12343 2 5.4855 27.056 11.2568
179 1 12.3523 25.8446 4.14846
12277 2 8.38456 38.9629 2.73388
12278 2 5.52118 41.399 2.76035
12346 2 -0.117426 32.6901 11.2513
12280 2 11.3078 41.2791 2.66229
12355 2 11.1035 38.3432 11.1521
12299 2 -0.0595518 29.9408 8.25582
12283 2 2.64113 44.009 2.80816
12354 2 8.18709 40.9717 11.0523
851 1 7.66 37.2451 1.12645
12285 2 5.55589 44.0781 -0.070127
12287 2 8.40001 44.0307 2.56167
12288 2 5.44159 46.7477 2.74046
12326 2 -0.187027 43.891 5.48065
12290 2 11.1978 46.8435 2.78553
12353 2 5.33596 38.2957 11.1529
12292 2 2.69278 49.6281 2.68979
15252 2 14.0595 27.1618 2.60875
12294 2 8.30209 49.5735 2.82264
15341 2 14.0671 30.0404 11.1157
15336 2 14.077 49.4964 8.3382
12297 2 2.62525 29.9429 5.52706
12298 2 2.73476 27.0893 8.38138
15351 2 14.0043 41.2191 11.1054
12300 2 5.58706 27.1397 5.62961
12301 2 8.18382 29.8492 5.65356
12302 2 8.47264 27.1356 8.46309