ITEM: TIMESTEP
340000
ITEM: NUMBER OF ATOMS
18000
ITEM: BOX BOUNDS xy xz yz pp pp pp
-9.6343486671037926e-02 2.7990343486671254e+01 0.0000000000000000e+00
-1.1161947203280720e+00 3.3584419472035108e+02 0.0000000000000000e+00
-1.0750241688633860e-01 2.8001502416887103e+01 0.0000000000000000e+00
ITEM: ATOMS id type x y z
1 1 1.16923 0.386025 1.32039
2 1 3.97301 0.215793 1.40427
3 1 4.08013 0.34506 4.1515
4 1 1.33266 0.313121 4.14081
5 1 1.23317 3.19438 1.36196
6 1 4.01959 3.32745 1.31515
7 1 4.01976 3.06002 4.13755
8 1 1.25445 3.20164 4.15224
9 1 6.8557 3.05218 1.28252
10 1 9.68605 0.36725 1.24278
11 1 9.60949 0.396891 3.95942
12 1 6.83064 3.14917 4.09784
13 1 6.85835 5.87818 1.16073
14 1 9.75666 2.9866 1.24366
15 1 9.71959 3.28023 3.93675
16 1 6.71152 5.67526 3.90806
17 1 12.506 0.18598 1.29545
18 1 12.5731 0.390805 4.02507
19 1 12.6025 3.02229 1.22161
20 1 12.4424 3.27658 4.03485
21 1 1.23507 6.004 1.42108
22 1 4.08944 5.98776 1.14578
23 1 3.99251 5.84121 4.15771
24 1 1.12473 5.92642 4.11027
25 1 1.11563 8.77169 1.21914
26 1 4.07074 8.69421 1.27384
27 1 3.90954 11.526 4.09952
28 1 1.27467 8.61916 4.01449
12144 2 5.51551 18.5034 13.8187
30 1 9.83261 5.93746 1.19712
31 1 9.77306 5.99336 3.91588
32 1 6.34142 8.34933 5.69332
33 1 6.44895 10.0423 3.5902
34 1 9.89342 8.68255 1.20633
35 1 8.01874 7.89777 3.26276
36 1 6.49383 12.1813 5.07167
37 1 12.5511 5.87406 1.24042
38 1 12.5379 5.86225 4.11779
39 1 12.5706 8.83135 1.0199
40 1 12.6751 8.65127 3.76874
41 1 1.42024 11.646 1.37979
42 1 4.15005 11.5906 1.26924
43 1 6.95678 14.5554 3.93535
44 1 1.15274 11.4629 4.0132
45 1 1.25776 14.3233 1.21244
46 1 4.02183 14.3576 1.16592
47 1 4.0514 14.2712 4.08155
48 1 1.17584 14.3878 4.09417
49 1 4.04533 8.66251 3.97244
50 1 9.72652 11.4929 1.24345
51 1 9.87681 9.61251 4.25605
52 1 8.72037 11.9124 3.63537
53 1 6.92321 17.3804 4.21527
54 1 9.6899 14.3415 1.36166
55 1 12.4649 14.5569 3.95444
56 1 9.67153 14.6771 4.02093
57 1 12.5943 11.7107 1.34406
58 1 12.6006 11.4944 3.8375
59 1 12.3526 14.3592 1.19361
12055 2 5.43248 -1.07675 5.53949
61 1 1.30276 17.2072 1.29089
62 1 4.0427 17.1251 1.12218
63 1 4.08744 17.1038 4.08688
64 1 1.40658 17.3337 4.07669
65 1 1.16333 19.9551 1.22668
66 1 3.9969 20.0963 1.25995
67 1 4.0904 19.9177 4.03557
68 1 1.35677 20.1134 4.16948
69 1 6.87258 17.1999 1.25612
70 1 9.67069 17.178 1.26185
71 1 12.6423 17.2978 3.87245
72 1 9.82497 17.2994 4.04035
73 1 6.87674 20.0625 1.17889
74 1 9.48355 19.9943 1.29596
75 1 9.6717 19.9934 4.27033
76 1 6.78259 20.125 3.98571
77 1 12.4581 17.1266 1.18622
12003 2 2.63757 -1.03628 2.69656
79 1 12.3744 20.0469 1.22968
15052 2 13.8679 -1.08236 8.23505
81 1 1.29205 22.7454 1.28328
82 1 4.1634 22.801 1.22376
83 1 3.95429 22.751 4.0271
84 1 1.15397 22.8752 4.00609
85 1 6.96431 22.9345 1.23152
86 1 9.77137 22.9822 1.24977
87 1 9.55792 22.9204 4.07888
88 1 6.75317 22.7917 4.11161
12105 2 11.1285 -1.07155 10.961
15091 2 13.7613 24.3416 5.51096
91 1 1.2031 0.201303 7.00306
92 1 4.13137 0.272827 7.15822
93 1 4.22181 2.79767 9.86501
94 1 1.64284 0.182838 9.73281
95 1 1.27602 3.1957 6.92861
96 1 4.22433 3.21821 6.98237
97 1 6.84701 5.85136 9.74623
98 1 1.18458 2.99385 9.73127
99 1 6.93852 3.11338 6.89034
100 1 9.7774 0.468676 6.70742
101 1 9.70292 0.337287 9.49143
102 1 6.91282 3.02941 9.76718
103 1 6.68892 5.82901 6.86248
104 1 9.60677 3.17373 6.76788
105 1 9.70793 3.12102 9.68168
106 1 7.01398 5.91275 12.5076
107 1 12.5702 0.369929 6.81935
108 1 12.5061 0.550575 9.62279
109 1 12.4459 3.11236 6.86109
110 1 12.4577 3.15486 9.68286
111 1 1.25607 5.9651 6.97777
112 1 3.86555 5.93423 6.97219
113 1 4.04282 8.45922 9.4146
114 1 1.09414 5.74959 9.67039
115 1 0.969744 8.74703 6.89462
116 1 3.58194 8.79204 6.84584
117 1 6.40044 10.345 7.27965
118 1 1.29133 8.53699 9.6778
119 1 8.91817 8.66944 6.76923
120 1 9.45506 5.9934 6.91592
121 1 9.65665 5.79319 9.5956
122 1 6.80315 8.62207 9.56948
123 1 8.65414 11.6603 6.89106
124 1 12.4898 8.57914 6.80058
125 1 10.9284 10.5642 7.78773
126 2 8.34971 10.0797 8.58057
127 1 12.2852 5.90223 6.82109
128 1 12.4295 5.81784 9.74184
129 1 13.3349 11.3469 6.66141
130 1 12.7498 11.4922 9.80654
131 1 1.10545 11.5428 6.83924
132 1 3.80206 11.6663 6.93981
133 1 3.85703 11.4737 9.63814
134 1 1.17638 11.5245 9.70867
135 1 1.22851 14.2572 6.7365
136 1 4.04403 14.3396 6.85151
137 1 4.02216 14.3041 9.59504
138 1 1.18625 14.2099 9.70654
139 1 9.78713 14.5518 6.84748
140 1 10.9902 12.6066 5.50628
141 1 9.70274 11.4674 9.78619
142 1 6.83422 11.5262 9.8278
143 1 7.00516 14.4641 6.9336
144 1 9.64865 17.2893 7.03337
145 1 9.82052 14.312 9.56747
146 1 6.88213 14.3493 9.72667
147 1 12.6584 14.2038 7.01627
148 1 12.5267 14.3324 9.72417
149 1 12.2141 17.26 6.88582
150 1 12.5583 17.2133 9.6064
151 1 1.22172 17.1956 7.06038
152 1 4.10995 17.1319 6.73376
153 1 3.9735 17.1378 9.68763
154 1 1.1546 17.1151 9.85792
155 1 1.28028 20.1386 6.79308
156 1 4.04537 19.9353 6.95299
157 1 4.02945 19.927 9.79556
158 1 1.20444 20.0417 9.60201
159 1 6.93245 17.1362 6.8939
160 1 12.3697 23.0471 4.09673
161 1 9.81074 17.1526 9.79096
162 1 6.98016 17.1349 9.79058
163 1 6.87665 19.9378 6.91379
164 1 9.78345 20.1707 6.94667
165 1 9.72099 19.8136 9.85086
166 1 6.86686 19.8337 9.59885
241 1 9.69527 8.67623 12.4849
168 1 12.45 20.0464 9.64004
169 1 12.5146 22.8926 6.92083
170 1 12.7108 22.7996 9.60032
171 1 1.16938 22.8571 6.94366
172 1 3.85749 22.8659 6.97812
173 1 4.1048 22.7279 9.68087
174 1 1.11673 22.9046 9.83428
175 1 6.85251 22.9273 6.82108
176 1 9.61027 22.9701 6.93857
177 1 9.73782 22.6361 9.58371
178 1 6.85436 22.6789 9.53705
12012 2 2.6688 7.48914 -0.080464
15062 2 13.8819 4.47765 8.40558
181 1 1.33286 0.35498 12.5281
182 1 4.1524 0.306311 12.189
183 1 1.26198 2.98353 12.6555
184 1 4.0502 3.02835 12.6905
185 1 6.99769 0.309439 12.5487
186 1 9.81003 0.324057 12.4311
187 1 6.89164 3.08993 12.5667
188 1 9.69401 3.08046 12.4458
189 1 12.6185 0.295087 12.4239
190 1 12.5382 3.23227 12.4785
191 1 1.401 5.59578 12.3353
192 1 3.9835 5.58216 9.7974
193 1 1.15148 8.68192 12.4838
194 1 4.11289 8.59054 12.4089
195 1 4.11318 5.75599 12.5407
196 1 9.79696 5.93301 12.4964
197 1 9.6526 8.57398 9.78823
198 1 12.4268 8.59027 9.74356
199 1 12.5827 5.90326 12.5397
200 1 12.396 8.69746 12.5837
201 1 1.19904 11.6679 12.435
202 1 4.15433 11.5879 12.4329
203 1 1.20634 14.2855 12.4842
204 1 4.16475 14.4255 12.4572
205 1 6.87508 11.5227 12.65
206 1 9.73206 11.5319 12.5261
207 1 6.69348 14.2183 12.4046
208 1 9.54372 14.3645 12.5198
209 1 12.589 11.5607 12.4829
210 1 12.408 14.3728 12.5299
211 1 1.22671 17.0903 12.4778
212 1 4.09574 17.2722 12.4782
213 1 1.22442 19.9144 12.5491
214 1 4.05123 19.9812 12.5396
215 1 6.9449 17.1839 12.5335
216 1 9.81309 17.356 12.5854
217 1 6.87332 19.8749 12.3047
218 1 9.757 20.0418 12.6312
219 1 12.4404 17.1387 12.4705
220 1 12.5754 20.0198 12.4409
221 1 1.27161 22.6428 12.6143
222 1 4.09894 22.7661 12.465
223 1 6.82418 22.6132 12.4677
224 1 9.63111 22.7525 12.3876
225 1 12.4209 22.8702 12.3896
12125 2 11.1559 21.2984 11.0131
12110 2 11.1677 4.52405 11.1464
15032 2 13.8644 15.6797 2.50851
12124 2 8.27641 24.1545 10.9893
80 1 12.4635 22.9136 1.32051
12109 2 8.29029 7.26971 11.1061
12057 2 8.31838 -1.05083 8.22625
12008 2 5.41434 1.72239 2.71929
243 1 7.01502 8.8703 12.3206
12010 2 11.0937 1.70382 2.7382
12123 2 5.50362 21.3713 11.0471
12108 2 5.58424 4.47708 11.1374
12013 2 2.63169 4.50451 2.83757
12122 2 2.67755 24.181 11.0524
12107 2 2.5856 7.03894 10.9181
12112 2 2.60774 13.0077 11.1014
12017 2 8.41117 4.63094 2.56172
12018 2 5.58121 7.26427 2.64494
12104 2 8.32113 1.66436 11.0254
12020 2 11.1292 7.27729 2.58913
60 1 12.42 20.0407 4.03026
12007 2 8.23357 -1.03373 2.68517
12023 2 2.71127 10.0788 2.57841
12120 2 11.2003 15.7555 11.0489
12102 2 2.66753 1.74602 11.2689
12113 2 5.36211 10.0391 10.9472
12027 2 8.32945 9.94824 2.22471
12028 2 5.60908 12.9454 2.82709
12100 2 11.0811 24.166 8.27049
12030 2 10.9816 12.9276 2.86662
12099 2 11.1308 21.4218 5.5088
12098 2 5.28091 24.2779 8.25431
12033 2 2.60234 15.8057 2.61911
412 1 6.92097 14.36 1.30959
12097 2 8.26193 21.4186 8.15967
12096 2 8.28528 24.3881 5.42672
12037 2 8.33041 15.6634 2.5448
12038 2 5.54865 18.5707 2.64448
12095 2 5.4048 21.3311 5.53501
12040 2 10.9793 18.5556 2.59374
29 1 6.93297 8.70639 0.877966
12093 2 2.59775 21.3795 8.25882
12043 2 2.65157 21.3255 2.59069
5723 1 6.93968 0.294089 6.93735
12092 2 2.62655 24.273 5.53638
5634 1 6.81057 0.24501 1.3875
12047 2 8.33321 21.4541 2.74105
12048 2 5.54414 24.1164 2.68845
12090 2 11.1119 18.5669 8.39235
12050 2 11.0387 24.3416 2.57882
12119 2 8.29198 18.5385 11.093
12052 2 2.53012 1.65505 5.56891
15071 2 13.8035 13.1189 5.1811
12118 2 5.55375 15.7989 11.0892
5633 1 6.82079 0.358901 4.17631
12056 2 8.24459 1.71493 5.36353
5726 1 6.82088 0.252347 9.93045
12058 2 5.63276 1.75712 8.23517
15002 2 13.8914 -0.99326 2.57555
12060 2 11.1514 1.82097 8.27845
12117 2 2.66921 18.6649 11.1228
12062 2 2.47742 7.33887 5.40506
12063 2 2.5773 4.44927 8.34854
12089 2 11.2387 15.7453 5.57094
12065 2 5.30322 4.5693 5.49185
12066 2 8.08253 6.80388 5.34145
12067 2 8.26732 4.45458 8.38124
12068 2 5.32721 7.26707 8.14528
12069 2 11.0419 4.53003 5.5871
12070 2 11.0398 7.25773 8.2472
12115 2 11.1474 10.1551 11.118
12072 2 2.39029 12.8483 5.47177
12073 2 2.34329 10.0888 8.38536
12114 2 8.27681 12.9202 11.1762
12075 2 4.95058 10.2121 5.60778
12076 2 8.43848 13.4375 5.43946
12077 2 7.98638 10.2 5.38034
12078 2 5.41327 12.8788 8.33892
12079 2 11.5625 10.3229 5.52649
12080 2 11.0768 12.8481 8.12647
395 1 6.79652 11.6613 1.24074
12082 2 2.7735 18.5817 5.43102
12083 2 2.62121 15.7077 8.30702
15081 2 13.5116 18.5706 5.51123
12085 2 5.3862 15.617 5.46509
12086 2 8.39911 18.5555 5.56208
12087 2 8.3695 15.8295 8.42896
12088 2 5.44116 18.3666 8.28724
167 1 12.669 20.1571 6.93428
12059 2 11.1857 -0.940808 5.5434
15101 2 13.8765 1.71631 11.1245
15051 2 13.9209 1.75756 5.39885
15061 2 13.9213 7.26262 5.37667
15106 2 13.9085 7.25489 11.176
15116 2 13.8066 18.5768 11.1721
15111 2 13.901 13.0124 11.0801
12149 2 5.38482 24.1058 13.7762
12139 2 5.43994 12.9091 13.8937
12134 2 5.57008 7.21627 13.8465
12131 2 2.59676 4.40614 13.9422
15072 2 13.7003 9.93842 8.37955
12148 2 8.29336 21.236 13.7635
12143 2 8.20163 15.6335 13.8608
12005 2 5.48801 -1.13468 -0.101297
15022 2 13.9226 10.0423 2.49038
12138 2 8.3631 10.1356 13.8383
12150 2 10.932 24.2601 13.7961
12024 2 -0.0331911 13.0033 2.68392
12034 2 -0.0556918 18.6305 2.6471
12136 2 2.50934 10.1818 13.8347
15121 2 13.7753 24.2181 11.0848
12002 2 2.73016 1.78342 -0.108476
12049 2 11.0417 21.4681 -0.0911486
15146 2 13.9351 21.3114 13.8427
12146 2 2.74876 21.3521 13.9177
12141 2 2.57803 15.7936 13.7866
12032 2 2.62047 18.5446 -0.114916
12009 2 11.2032 -1.0919 -0.0791411
12036 2 8.30004 18.4827 -0.0311089
12026 2 8.34299 12.9355 -0.0132768
15136 2 13.9249 10.0023 13.8381
12133 2 8.30219 4.48707 13.9199
12011 2 -0.0530059 4.54345 -0.0842381
15031 2 13.7365 18.6474 -0.0911953
12140 2 11.151 12.8555 13.8861
12130 2 11.0767 1.6913 13.9324
15131 2 13.9265 4.47444 13.771
226 1 4.04168 0.432886 15.116
227 1 1.3234 0.309533 15.3549
228 1 4.11894 3.24414 15.4231
229 1 1.35872 2.97993 15.3819
230 1 9.70212 0.362933 15.342
231 1 6.90943 0.409067 15.3101
232 1 9.70122 3.01344 15.2078
233 1 6.98955 3.15962 15.3847
234 1 12.584 0.317313 15.2899
235 1 12.4803 3.06398 15.3136
236 1 4.20319 5.95466 15.2541
237 1 1.37867 5.93315 15.2398
238 1 3.93985 8.78669 15.228
239 1 1.15937 8.82361 15.2822
240 1 9.71981 5.94296 15.5493
15126 2 13.9635 -0.997415 13.9955
242 1 9.66762 8.80935 15.1861
5993 1 6.92333 0.386789 23.8038
244 1 12.5297 5.81618 15.4306
245 1 12.6851 8.73424 15.4931
246 1 4.11639 11.5437 15.2764
247 1 1.30253 11.6336 15.2064
248 1 4.07063 14.4175 15.3838
249 1 1.38401 14.2588 15.2316
250 1 9.89749 11.5631 15.2948
251 1 7.04854 11.5669 15.3419
252 1 9.77752 14.3373 15.1799
253 1 6.93377 14.3913 15.2096
254 1 12.6189 11.536 15.2319
255 1 12.5408 14.2702 15.2683
256 1 4.0287 17.2134 15.286
257 1 1.22283 17.107 15.2461
258 1 4.18744 20.0166 15.1094
259 1 1.44184 20.0025 15.2658
260 1 9.57636 16.9978 15.2773
261 1 6.82709 17.2084 15.3403
262 1 9.69278 19.904 15.2116
263 1 6.92498 19.998 15.1587
264 1 12.4345 17.2912 15.2826
265 1 12.4551 20.0212 15.3018
266 1 3.97102 22.7974 15.2628
267 1 1.09378 22.7401 15.4445
268 1 9.65401 22.8345 15.2035
269 1 6.7946 22.7172 15.32
270 1 12.5216 22.7069 15.2089
271 1 1.20844 0.292218 18.2163
272 1 4.10404 0.288007 18.0915
273 1 4.09645 0.343798 20.9162
274 1 1.33335 0.323827 20.969
275 1 1.3516 3.19091 18.1873
276 1 4.12457 3.09023 18.308
277 1 4.29765 3.14574 21.0162
278 1 1.26046 3.12609 20.8577
279 1 6.9597 3.23182 18.3033
280 1 9.75903 0.356543 18.3176
281 1 9.87628 0.439363 21.0122
282 1 7.24219 3.141 21.0667
283 1 6.84781 5.95191 18.1305
284 1 9.70438 3.17631 18.1145
285 1 9.88106 3.09723 21.0201
286 1 6.76488 6.07365 23.6966
287 1 12.5899 0.339134 17.9941
288 1 12.5099 0.390404 20.9356
289 1 12.7135 3.11295 18.1161
290 1 12.649 3.16626 20.9754
291 1 1.36698 6.05194 18.2238
292 1 4.07119 5.85105 18.0294
293 1 4.11958 5.83349 20.8746
294 1 1.36289 5.98806 20.9253
295 1 1.30776 8.857 18.0245
296 1 4.07452 8.73329 18.1186
297 1 4.01943 8.59463 21.004
298 1 1.24941 8.75384 20.8278
299 1 6.96938 6.02178 15.2034
300 1 9.81334 6.03617 18.2861
301 1 9.76771 5.8857 21.0023
302 1 6.97516 5.99434 20.9072
303 1 6.88714 8.73345 15.1956
304 1 9.77935 8.8332 18.0412
305 1 9.80232 8.77952 20.9318
306 1 6.82966 8.74955 18.0437
307 1 12.5207 5.81347 18.3603
308 1 12.5138 5.93538 21.0072
309 1 12.65 8.82286 18.2268
310 1 12.5956 8.78981 20.9669
311 1 1.15108 11.5612 17.9299
312 1 4.08769 11.4565 18.1591
313 1 4.01699 11.3958 20.948
314 1 1.25569 11.4509 20.7755
315 1 1.12701 14.2352 18.0195
316 1 4.15798 14.353 18.0087
317 1 4.17163 14.1579 20.805
318 1 1.33038 14.2495 20.7413
319 1 6.8513 11.3903 18.1988
320 1 9.75995 11.574 18.0261
321 1 9.7199 11.4631 20.8891
322 1 6.96423 11.5447 20.828
323 1 6.89649 14.2524 18.0144
324 1 9.76609 14.4081 18.1655
325 1 9.67458 14.1967 20.9015
326 1 6.92244 14.4491 20.7965
327 1 12.5274 11.7079 18.0929
328 1 12.5168 11.472 20.7387
329 1 12.6244 14.4326 17.9669
330 1 12.4402 14.2301 20.8934
331 1 1.33726 17.1521 17.9932
332 1 3.98349 17.2653 18.1437
333 1 4.12432 17.0474 20.9902
334 1 1.25461 17.1156 20.7772
335 1 1.34063 20.0415 18.1602
336 1 4.03463 20.0162 18.1037
337 1 4.13019 19.9299 20.8553
338 1 1.27674 19.9511 20.905
339 1 6.90457 17.1643 18.2028
340 1 9.76589 17.167 18.074
341 1 9.5743 17.1376 20.9087
342 1 6.827 17.2103 20.9721
343 1 6.90077 19.8871 18.1018
344 1 9.63866 19.9192 18.0283
345 1 9.65312 20.0045 20.8569
346 1 6.96668 20.0376 20.9239
347 1 12.491 17.0889 18.0297
348 1 12.3698 17.0444 20.9221
349 1 12.4477 20.0474 18.1596
350 1 12.5352 19.9659 20.8563
351 1 1.18047 22.6868 18.179
352 1 4.21694 22.7284 18.1103
353 1 4.11571 22.6182 20.9869
354 1 1.2765 22.8115 21.0416
355 1 6.79898 22.8071 18.1423
356 1 9.75566 22.7438 18.0604
357 1 9.71664 22.8083 20.7637
358 1 6.89791 22.7903 21.0077
359 1 12.4069 22.8081 18.0617
360 1 12.6433 22.6969 20.8077
361 1 1.30276 0.342246 23.7464
362 1 4.0928 0.39927 23.8109
363 1 4.09683 0.391731 26.7715
364 1 1.45492 0.352876 26.5649
365 1 1.46136 3.21933 23.6013
366 1 4.2047 3.16516 23.6683
367 1 4.0607 3.09774 26.5693
368 1 1.31399 3.21307 26.4431
369 1 6.98423 3.20325 23.7233
370 1 9.7464 0.374213 23.8841
371 1 9.64711 0.338484 26.6291
372 1 6.97057 3.07885 26.5898
373 1 6.85259 5.77638 26.4661
374 1 9.76043 3.17958 23.9003
375 1 9.64215 3.0558 26.5997
376 1 9.74834 5.85276 26.5249
377 1 12.6166 0.24438 23.7754
378 1 12.5224 0.337224 26.5929
379 1 12.5999 3.02005 23.9097
380 1 12.5112 3.12948 26.5668
381 1 1.2157 6.03195 23.7296
382 1 3.83567 5.94031 23.6888
383 1 4.11677 6.05117 26.5849
384 1 1.27491 5.95059 26.7484
385 1 1.36217 8.76778 23.8005
386 1 4.18566 8.75134 23.7398
387 1 4.13887 8.92689 26.5297
388 1 1.38146 8.78595 26.5239
389 1 6.9472 8.94326 23.5162
390 1 9.61474 6.03587 23.7826
391 1 9.70043 8.71558 26.3951
392 1 6.9429 8.70881 26.4436
393 1 6.97755 8.68285 20.8317
394 1 9.81684 8.87871 23.7578
12128 2 8.41937 -1.11333 13.9232
396 1 6.78945 11.5031 26.5549
397 1 12.5046 5.90965 23.5925
398 1 12.4106 5.92389 26.439
399 1 12.4718 8.74139 23.7339
400 1 12.5951 8.74365 26.4558
401 1 1.29231 11.5622 23.6564
402 1 4.06443 11.5994 23.6806
403 1 3.96915 11.7233 26.6259
404 1 1.22637 11.4652 26.5198
405 1 1.23596 14.4435 23.8206
406 1 4.03348 14.3726 23.5364
407 1 4.03213 14.368 26.4328
408 1 1.26137 14.3131 26.631
409 1 6.87714 11.622 23.6617
410 1 9.68523 11.5306 23.7613
411 1 9.58836 11.406 26.6963
15191 2 13.7469 24.1211 16.6979
413 1 6.93063 14.2852 23.5814
414 1 9.72228 14.3382 23.7624
415 1 9.66221 14.3631 26.5276
416 1 6.80339 14.3512 26.4172
417 1 12.4373 11.5717 23.9103
418 1 12.3685 11.5009 26.5465
419 1 12.4834 14.3338 23.693
420 1 12.4667 14.4501 26.4795
421 1 1.39331 17.1927 23.7409
422 1 4.15359 17.1623 23.6719
423 1 4.18826 17.1103 26.4428
424 1 1.41578 16.9528 26.6781
425 1 1.26658 20.0442 23.5914
426 1 3.96164 19.9223 23.6592
427 1 4.05227 19.9116 26.4733
428 1 1.14728 19.894 26.4057
429 1 6.97555 17.3087 23.8016
430 1 9.77828 17.0561 23.6962
431 1 9.74731 16.9815 26.5379
432 1 6.99729 17.1165 26.5508
433 1 6.89119 19.9789 23.7987
434 1 9.8026 19.8235 23.7342
435 1 9.59304 20.1717 26.644
436 1 6.93587 19.834 26.4924
437 1 12.5782 17.163 23.8229
438 1 12.6853 17.0976 26.5259
439 1 12.5541 19.9228 23.8084
440 1 12.3007 19.9339 26.541
441 1 1.25352 22.7199 23.8308
442 1 4.022 22.7494 23.8617
443 1 4.05294 22.7781 26.4956
444 1 1.29689 22.7831 26.5131
445 1 6.95852 22.766 23.7406
446 1 9.63532 22.6968 23.6233
447 1 9.64794 22.729 26.4777
448 1 6.88828 22.717 26.6437
449 1 12.4941 22.7414 23.6528
450 1 12.2731 22.8687 26.6172
12015 2 5.51873 4.55903 27.9615
12250 2 11.0612 24.1933 25.2499
12205 2 5.56264 -1.07742 22.4904
12157 2 8.21582 -0.923044 19.6187
5906 1 6.90588 0.351027 20.9788
15222 2 13.843 10.1919 25.1869
12249 2 11.0416 21.258 22.2875
12203 2 2.70442 -1.09307 25.2553
12159 2 11.0851 -1.10334 16.8337
12209 2 11.2169 -1.03145 22.561
15212 2 13.9293 4.62766 25.2021
12248 2 5.46382 24.106 25.2134
12153 2 2.79075 -1.00856 19.5629
12006 2 8.27202 1.6922 28.0097
15232 2 13.895 15.7814 25.0142
12126 2 2.71107 -1.10549 13.9998
12207 2 8.35299 -1.03339 25.2868
12029 2 11.1469 10.1874 27.9413
12220 2 11.089 7.35717 25.0121
15242 2 13.7478 21.4242 25.0821
12232 2 2.71715 18.4472 22.369
12216 2 8.33053 7.37011 22.2804
5903 1 6.88331 0.430003 18.2068
12219 2 11.156 4.53336 22.255
12218 2 5.39251 7.42072 25.1107
12247 2 8.35672 21.3582 25.1233
12152 2 2.81428 1.68517 16.8344
12227 2 8.19555 10.2414 25.1193
12246 2 8.32267 24.1041 22.2637
12230 2 11.0214 12.9299 25.0804
12156 2 8.35312 1.71856 16.8037
12229 2 11.1823 10.0055 22.3337
12158 2 5.55683 1.89348 19.6604
12217 2 8.2493 4.53204 25.1099
12160 2 11.3016 1.72649 19.5097
12245 2 5.54621 21.3431 22.3507
12162 2 2.80272 7.25978 16.6735
12163 2 2.62618 4.54657 19.5807
12228 2 5.51601 12.9231 25.1111
12165 2 5.58235 4.46775 16.8796
12166 2 8.28407 7.3997 16.7349
12167 2 8.48927 4.59191 19.6874
12168 2 5.47791 7.37645 19.5708
12169 2 11.1139 4.46224 16.895
12170 2 11.2254 7.37984 19.6178
12243 2 2.73071 21.2951 25.1192
12172 2 2.67546 12.9708 16.6627
12173 2 2.68896 10.1152 19.4465
12242 2 2.73681 24.0843 22.4414
12175 2 5.42267 10.1109 16.6302
12176 2 8.4046 12.9126 16.5748
12177 2 8.33016 10.1005 19.5033
12178 2 5.53083 12.8178 19.4793
12179 2 11.1661 10.2277 16.7509
12180 2 11.1497 12.9459 19.5135
12236 2 8.26319 18.5559 22.2404
12182 2 2.66737 18.5493 16.6945
12183 2 2.70169 15.7422 19.3928
12223 2 2.68135 10.2077 25.0756
12185 2 5.53653 15.7943 16.7059
12186 2 8.28607 18.4624 16.6105
12187 2 8.21621 15.7413 19.4202
12188 2 5.50718 18.6065 19.5343
12189 2 11.1425 15.6979 16.6458
12190 2 11.0848 18.5213 19.4424
12226 2 8.39356 12.8559 22.287
12192 2 2.601 24.154 16.8161
12193 2 2.78513 21.4132 19.5593
12225 2 5.49118 10.1599 22.293
12195 2 5.39061 21.2645 16.7067
12196 2 8.20777 24.0875 16.7052
12197 2 8.18739 21.4336 19.4944
12198 2 5.45328 24.1627 19.5152
12199 2 11.0088 21.4006 16.5874
12200 2 11.1305 24.0807 19.4552
12240 2 11.0426 18.4503 25.1558
12202 2 2.73716 1.79011 22.4159
5996 1 6.82919 0.282325 26.6421
12239 2 11.0906 15.6939 22.3284
12222 2 2.66156 12.9569 22.2674
12206 2 8.37183 1.73445 22.5028
12235 2 5.5343 15.7052 22.2451
12208 2 5.55745 1.62354 25.2712
12233 2 2.72976 15.6681 25.1039
12210 2 11.1101 1.68351 25.272
12238 2 5.46928 18.5783 25.0961
12212 2 2.60104 7.39822 22.3132
12213 2 2.72552 4.51652 25.092
12237 2 8.26252 15.7646 25.203
12215 2 5.49116 4.66265 22.3893
15241 2 13.9006 24.0806 22.1582
15182 2 13.8538 15.6871 19.4894
12155 2 5.52554 -1.02299 16.8849
15231 2 13.799 18.5671 22.2764
12019 2 11.0475 4.40633 27.8973
12184 2 -0.0513838 18.5865 19.5031
15151 2 13.966 1.84468 16.6947
12016 2 8.41373 7.24742 27.8764
12161 2 0.0163791 4.52858 16.6346
15181 2 13.876 18.5141 16.6875
15011 2 13.8849 7.19244 27.8131
12214 2 -0.00161964 7.31423 25.1788
12025 2 5.47114 10.2609 27.9259
12022 2 2.6674 12.9271 27.929
15211 2 13.9232 7.4178 22.3864
15152 2 13.8044 -1.0168 19.5867
12231 2 -0.0691716 15.6588 22.2941
15161 2 13.939 7.19807 16.7994
12045 2 5.61514 21.3349 27.901
12211 2 -0.0728475 4.54478 22.4754
12042 2 2.70452 24.1964 27.9
12145 2 11.0415 18.428 13.9606
12135 2 11.051 7.2039 13.959
12129 2 5.55787 1.84867 13.9511
12035 2 5.37151 15.5559 27.8672
15021 2 13.8097 12.9806 27.8134
12046 2 8.26961 24.3139 27.957
12039 2 11.0732 15.7615 27.8852
15041 2 13.868 24.2239 27.9467
15001 2 13.8482 1.78732 27.9558
451 1 1.10896 25.6063 1.29277
452 1 4.1013 25.5805 1.18766
453 1 4.21972 25.6542 4.01074
454 1 1.35617 25.4955 4.14381
455 1 6.79377 25.6749 1.36368
456 1 9.69923 25.7814 1.15852
457 1 9.879 25.7789 3.89551
458 1 6.92346 25.7635 4.10754
459 1 12.4883 31.3006 1.37046
460 1 12.7091 28.4389 4.08147
461 1 1.07696 28.4039 1.2131
462 1 3.91974 28.4271 1.35117
463 1 3.98688 28.4272 4.18147
464 1 1.19138 28.2325 4.05851
465 1 1.22305 31.2861 1.19259
466 1 3.96589 31.1811 1.37165
467 1 4.03837 31.1722 4.05065
468 1 1.1911 31.0894 3.98122
469 1 6.74158 28.3651 1.36317
470 1 9.60465 28.5069 1.30339
471 1 9.67315 28.5057 4.08886
472 1 6.88396 28.5275 4.12914
473 1 6.89653 31.0477 1.25794
12272 2 2.5691 41.0546 0.0857608
475 1 9.63506 31.5103 4.11404
476 1 6.95696 31.2446 4.08629
477 1 9.75546 31.2859 1.28301
478 1 9.59175 34.0574 1.30929
15383 2 13.8948 49.5996 13.9047
15317 2 13.892 38.4526 8.27429
481 1 0.987302 33.9835 1.2499
482 1 4.07212 33.9406 0.733065
483 1 4.21093 33.7538 4.22993
484 1 1.2983 33.9966 4.26394
12368 2 11.0497 29.8294 13.9039
486 1 2.87969 35.4293 2.61895
487 1 4.01326 36.8324 4.5096
488 1 1.15802 36.8426 4.16449
489 1 6.59113 34.2207 1.86549
847 1 1.26528 36.8919 1.23877
491 1 9.74859 34.3889 4.00703
492 1 6.89579 34.3079 4.39234
493 1 4.67691 36.8223 1.19284
494 1 9.93397 36.7717 1.61924
495 1 9.38089 37.0503 4.24483
496 1 6.70124 36.9751 3.59277
497 1 12.5287 34.1676 1.29427
498 1 12.5422 34.1546 4.11661
499 1 12.7048 36.9631 1.35175
500 1 12.3866 36.8736 4.27286
501 1 1.07236 39.5995 1.32823
502 1 4.02131 39.721 1.4831
503 1 4.09068 39.5509 4.10839
504 1 1.22179 39.5551 4.21807
505 1 1.12045 42.375 1.33196
506 1 3.97473 42.4413 1.28361
507 1 4.19252 42.5341 4.39896
508 1 1.36174 42.3789 4.14854
509 1 6.77489 39.545 1.56646
510 1 9.7544 39.5037 1.3969
511 1 9.72015 39.817 4.24198
512 1 6.84312 39.7634 4.26357
513 1 6.96091 42.2832 1.42562
514 1 9.83562 42.3819 1.34185
515 1 9.72587 42.668 4.12679
516 1 6.93176 42.5821 4.20679
517 1 12.5999 39.6943 1.37468
518 1 12.5037 39.629 4.18956
519 1 12.6197 42.5419 1.2057
520 1 12.6132 42.4616 4.01535
521 1 1.37665 45.0591 1.28926
522 1 4.09229 45.1534 1.39708
523 1 4.1219 45.2976 4.08967
524 1 1.36109 45.2376 4.1953
525 1 1.35354 48.0935 1.32881
526 1 4.0661 48.0579 1.38976
527 1 4.15055 48.0608 4.14369
528 1 1.39076 47.9191 3.99858
529 1 6.84238 45.2018 1.24688
530 1 9.50469 45.2973 1.41044
531 1 9.76108 45.4565 4.34677
532 1 6.90086 45.5465 4.29362
533 1 6.86385 47.9012 1.26973
534 1 9.72442 48.0628 1.3425
535 1 9.70086 48.1336 4.09929
536 1 6.82474 48.1556 4.26574
537 1 12.3185 45.4218 1.32497
538 1 12.52 45.1951 4.06492
539 1 12.5298 48.1649 1.49406
540 1 12.5215 48.079 4.2192
541 1 1.11216 25.6585 6.8764
542 1 3.98956 25.5244 6.8442
543 1 3.90974 25.7561 9.6772
544 1 1.24347 25.512 9.67578
545 1 6.7107 25.7444 6.96153
546 1 9.59371 25.7347 6.82552
547 1 9.7801 25.7439 9.70545
548 1 6.88076 25.5491 9.73479
549 1 12.5713 28.4803 7.00273
550 1 12.4083 25.6441 9.68492
551 1 1.30548 28.3422 6.87946
552 1 4.09689 28.3178 7.04048
553 1 4.14667 28.4839 9.77134
554 1 1.22514 28.502 9.70986
555 1 1.37349 31.1508 6.92266
556 1 4.09777 31.1599 6.94379
557 1 4.08279 31.2792 9.82763
558 1 1.45805 31.2743 9.71258
559 1 7.0141 28.4298 6.84382
560 1 9.75222 28.512 6.7779
561 1 9.61138 28.3761 9.88115
562 1 6.99191 28.5633 9.6174
563 1 6.76194 31.2482 6.93947
564 1 9.71137 31.1717 6.95628
565 1 9.93911 31.2672 9.68017
566 1 6.97229 31.3558 9.87153
567 1 12.7951 31.3706 6.94844
568 1 12.429 28.365 9.79568
90 1 12.4939 25.7359 1.16058
570 1 12.611 31.0959 9.6595
571 1 1.22945 34.0926 7.01826
572 1 4.01158 34.1619 6.8674
573 1 3.9932 34.0866 9.64998
574 1 1.35245 33.9754 9.86876
575 1 1.27763 36.8777 6.98577
576 1 3.98555 36.904 7.11359
577 1 4.09167 36.7677 9.72542
578 1 1.28736 36.8442 9.85889
579 1 6.85374 33.9951 6.9409
580 1 9.58137 33.9141 6.96683
581 1 9.64204 34.1219 9.69141
582 1 6.82368 34.0847 9.82789
583 1 6.92544 36.8255 7.02357
584 1 9.67711 36.7756 7.1218
585 1 9.80749 36.8818 9.81275
586 1 7.01819 36.7319 9.84887
587 1 12.4287 34.0749 7.09077
588 1 12.4887 34.109 9.95108
589 1 12.4931 36.9252 7.02606
590 1 12.7369 36.8768 9.6703
591 1 1.2369 39.5415 7.07163
592 1 3.97614 39.7716 7.09266
593 1 3.95698 39.4224 9.845
594 1 1.15843 39.6715 9.78278
595 1 1.25181 42.3924 6.94648
596 1 4.03966 42.5388 7.01542
597 1 4.05299 42.3264 9.88724
598 1 1.27436 42.3884 9.83837
599 1 6.92042 39.7457 6.92146
600 1 9.77371 39.7008 7.12624
601 1 9.64969 39.7222 9.89029
602 1 6.78306 39.6373 9.81526
603 1 6.86689 42.5824 7.02212
604 1 9.8282 42.6838 6.89116
605 1 9.63481 42.5159 9.50259
606 1 6.79893 42.4197 9.78712
607 1 12.5292 39.8373 6.98782
608 1 12.493 39.6262 9.87127
609 1 12.4464 42.5217 6.83272
610 1 12.5757 42.5171 9.82799
611 1 1.10372 45.2138 6.921
612 1 4.01525 45.3368 6.9342
613 1 4.14803 45.1793 9.89701
614 1 1.29163 45.201 9.87012
615 1 1.22007 48.1288 6.8176
616 1 4.15187 48.1174 7.00618
617 1 4.14905 48.0839 9.83063
618 1 1.36741 47.9979 9.53571
619 1 6.9054 45.3931 7.12885
620 1 9.89376 45.3675 7.02888
621 1 9.62722 45.4025 9.78661
622 1 6.87129 45.3106 9.73864
623 1 6.9437 48.196 7.05357
624 1 9.74597 48.2802 6.88438
625 1 9.81084 48.1991 9.71952
626 1 6.84533 48.1798 9.71459
627 1 12.7049 45.4537 6.91581
628 1 12.4946 45.3034 9.78945
629 1 12.6838 48.2389 6.84404
630 1 12.6307 48.1043 9.73693
631 1 1.32112 25.6628 12.5668
632 1 4.14233 25.5806 12.514
633 1 6.89761 25.416 12.5351
634 1 9.71241 25.4796 12.4148
635 1 12.408 25.8161 12.5272
636 1 1.17674 28.4476 12.5471
637 1 4.04163 28.344 12.461
638 1 1.37106 31.1865 12.5533
639 1 4.08827 31.2728 12.6642
640 1 6.94142 28.4147 12.3958
641 1 9.69814 28.3346 12.6516
642 1 6.86556 31.1564 12.4857
643 1 9.72271 31.057 12.5202
644 1 12.5192 28.481 12.5393
645 1 12.4007 31.2412 12.6184
646 1 1.15525 34.015 12.6922
647 1 3.92597 34.0619 12.585
648 1 1.38665 36.8595 12.7331
649 1 4.3133 36.8189 12.5602
650 1 6.83643 33.973 12.5886
651 1 9.68958 33.7842 12.5206
652 1 7.00846 36.8086 12.7077
653 1 9.85008 36.7698 12.5164
654 1 12.4054 34.146 12.6841
655 1 12.6372 36.8177 12.662
656 1 1.22776 39.6125 12.5482
657 1 3.94145 39.6332 12.6104
658 1 1.33536 42.4013 12.5856
659 1 4.11347 42.5029 12.6509
660 1 6.80278 39.8039 12.672
661 1 9.67959 39.4834 12.7959
662 1 6.96991 42.5695 12.618
663 1 9.87346 42.4494 12.4099
664 1 12.6234 39.6765 12.6648
665 1 12.6339 42.3523 12.6915
666 1 1.21298 45.1566 12.64
667 1 3.97392 45.3945 12.5127
668 1 1.44689 47.9825 12.5055
669 1 4.15922 48.1473 12.651
670 1 6.89037 45.3436 12.6084
671 1 9.68482 45.2581 12.6151
672 1 6.83291 48.1658 12.5285
673 1 9.6731 48.0656 12.5547
674 1 12.4651 45.3114 12.6899
675 1 12.381 48.2181 12.5767
12363 2 11.0206 49.6224 11.1859
89 1 12.4908 28.4549 1.32357
12253 2 2.72025 26.8716 2.66584
12362 2 5.48389 49.6547 11.1934
12299 2 -0.00277449 29.8275 8.34705
180 1 12.4289 25.6357 6.83202
12257 2 8.20283 26.9984 2.67441
12258 2 5.38107 29.7345 2.78251
12356 2 -0.129148 43.8537 11.2221
12260 2 11.0585 29.8913 2.71609
12360 2 11.1444 43.9717 11.0877
12346 2 -0.00748019 32.7254 11.2514
12263 2 2.57177 32.5933 2.64563
12359 2 8.23353 46.8984 11.1319
12366 2 8.27255 26.9226 13.8648
12264 2 -0.0954592 35.46 2.66327
12267 2 8.16442 32.4299 2.61004
12268 2 4.98052 35.4236 3.08953
12345 2 11.1829 27.0597 11.2237
12270 2 11.5728 35.5519 2.73952
12358 2 5.49504 43.9218 11.2753
12344 2 8.37869 29.8157 11.1762
12273 2 2.62033 38.0686 2.70743
12357 2 2.81899 46.7923 11.2297
12343 2 5.56832 27.0719 11.0351
179 1 12.5765 25.7264 3.99779
12277 2 8.28873 38.6234 2.94872
12278 2 5.3687 41.1131 2.97315
15297 2 13.8378 27.0597 8.31727
12280 2 11.1461 41.1238 2.73684
12355 2 11.1045 38.3099 11.2141
12351 2 -0.0726589 38.3332 11.2352
12283 2 2.66293 44.0217 2.76899
12354 2 8.25662 41.1831 11.1925
851 1 7.43781 36.4853 0.827773
12342 2 2.61508 29.7868 11.1619
12287 2 8.08639 44.0594 2.78914
12288 2 5.55052 46.6921 2.85055
12340 2 11.1642 49.5011 5.48036
12290 2 11.09 46.6844 2.77324
12353 2 5.4582 38.2352 11.2201
12292 2 2.65643 49.6155 2.76873
15336 2 13.972 49.6446 8.30698
12294 2 8.37101 49.5806 2.7436
12275 2 5.42066 38.6888 -0.0312917
12339 2 8.35296 49.5369 8.35839
12297 2 2.68115 29.6953 5.44037
12298 2 2.71007 26.9955 8.25404
12338 2 5.56378 49.4561 5.62403
12300 2 5.54554 26.9945 5.5542
12301 2 8.2977 29.7751 5.58526
12302 2 8.34445 27.0553 8.40743
12303 2 5.52932 29.8365 8.43876
12304 2 11.1869 27.0353 5.48912
12305 2 11.1516 29.8313 8.43995
12352 2 2.66509 41.0691 11.2054