ITEM: TIMESTEP
215000
ITEM: NUMBER OF ATOMS
18000
ITEM: BOX BOUNDS xy xz yz pp pp pp
-9.8640123918736750e-02 2.7992640123919685e+01 0.0000000000000000e+00
-1.2092428389477685e+00 3.3593724283897933e+02 0.0000000000000000e+00
-9.7001941620430451e-02 2.7991001941620791e+01 0.0000000000000000e+00
ITEM: ATOMS id type x y z
1 1 1.43203 0.215978 1.24037
2 1 4.21399 0.248288 1.33229
3 1 4.1194 0.0682696 4.18124
4 1 1.35662 0.187268 4.18751
5 1 1.29803 3.06484 1.45215
6 1 4.14304 2.97989 1.47293
7 1 4.30151 3.13142 4.23021
8 1 1.47671 3.07085 4.25548
9 1 6.96797 2.96884 1.25311
10 1 9.76928 0.059126 1.33445
11 1 9.97434 0.110682 4.16307
12 1 7.05083 2.6565 4.15353
13 1 7.14186 5.71909 1.41208
14 1 9.90217 2.95054 1.28559
15 1 9.89486 2.91646 3.9604
16 1 7.06257 5.41309 4.28256
17 1 12.7188 0.198885 1.32626
18 1 12.8076 0.0648387 4.25605
19 1 12.6415 2.96555 1.34791
20 1 12.7026 2.88306 4.15693
21 1 1.50966 5.80566 1.42359
22 1 4.33673 5.77672 1.3419
23 1 4.33479 5.90316 4.38865
24 1 1.58823 5.99341 4.16975
25 1 1.55912 8.61548 1.47971
26 1 4.35072 8.70266 1.49859
27 1 3.97939 11.5064 4.07471
28 1 1.28501 8.78002 4.21184
12045 2 5.45078 21.3471 0.0228662
30 1 9.93918 5.78531 1.30935
31 1 9.96236 5.72983 4.16756
32 1 6.47699 8.13785 6.2056
33 1 6.5375 10.1124 3.8592
34 1 9.95987 8.603 1.24783
35 1 7.79231 7.96737 3.63235
36 1 6.51637 12.202 5.54328
37 1 12.633 5.80207 1.38404
38 1 12.7574 5.7769 4.17463
39 1 12.6905 8.63311 1.34352
40 1 12.8144 8.60891 4.09194
41 1 1.38236 11.2849 1.53154
42 1 4.28184 11.3644 1.39742
43 1 7.01592 14.4541 4.05736
44 1 1.39728 11.4496 4.30439
45 1 1.19741 14.1927 1.46837
46 1 3.96636 14.2772 1.43706
47 1 4.17495 14.3199 4.10814
48 1 1.30998 14.3522 4.17561
49 1 3.95938 8.63551 4.28162
50 1 9.71857 11.4174 1.26219
51 1 9.98906 8.90182 4.6659
52 1 9.28904 11.3831 4.02185
53 1 6.99922 17.3049 4.12161
54 1 9.86177 14.1177 1.24383
55 1 12.6051 14.2647 4.19121
56 1 9.74627 14.3444 3.93972
57 1 12.5072 11.4106 1.13882
58 1 12.4493 11.3133 3.89305
59 1 12.6231 14.2007 1.36335
12126 2 2.77533 -1.21047 13.9243
61 1 1.31339 16.9579 1.22418
62 1 4.1307 17.019 1.39917
63 1 4.16895 17.1891 4.24222
64 1 1.357 17.0291 4.18847
65 1 1.40674 19.8868 1.38135
66 1 4.07785 19.8978 1.50589
67 1 4.13805 19.9191 4.31657
68 1 1.29942 19.8759 4.23408
69 1 6.94772 17.178 1.33371
70 1 9.78917 17.1436 1.35927
71 1 12.5636 17.1829 3.9985
72 1 9.8975 17.089 4.14016
73 1 6.8206 19.9251 1.19119
74 1 9.72986 19.8254 1.40101
75 1 9.93868 19.8655 4.18684
76 1 7.01231 20.0562 4.05909
77 1 12.6332 17.0456 1.33939
12035 2 5.45077 15.6947 -0.00936983
79 1 12.6092 20.036 1.34287
12071 2 -0.0722294 10.1056 5.56431
81 1 1.34837 22.6561 1.39331
82 1 4.04176 22.7333 1.22999
83 1 4.16923 22.6616 4.22053
84 1 1.40314 22.8378 4.31986
85 1 6.86245 22.738 1.41229
86 1 9.80969 22.8893 1.27787
87 1 9.67889 22.5877 4.08907
88 1 6.96882 22.7602 4.18766
12121 2 -0.0582713 21.1424 11.0907
15071 2 13.8841 12.899 5.28559
91 1 1.40654 0.238112 7.02258
92 1 4.1338 0.114685 7.29566
93 1 4.31798 2.79574 9.9392
94 1 1.78785 0.210934 9.73779
95 1 1.51778 3.10341 6.85794
96 1 4.26746 2.94809 7.13807
97 1 7.23054 5.84872 9.97297
98 1 1.30216 3.00371 9.77238
99 1 7.00345 3.0742 7.02571
100 1 9.9152 0.193147 6.80917
101 1 9.58985 0.245192 9.58564
102 1 7.17634 3.26511 9.76465
103 1 7.07464 5.77553 7.1755
104 1 9.72811 2.90726 6.68175
105 1 9.86651 2.98534 9.45599
106 1 6.92663 5.91003 12.6645
107 1 12.5728 0.255414 7.05834
108 1 12.6196 0.261795 9.70541
109 1 12.6613 3.06661 7.04157
110 1 12.7041 3.0552 9.84529
111 1 1.15675 5.84452 6.90719
112 1 4.08754 5.71205 6.97682
113 1 4.04437 8.66483 9.92824
114 1 1.41235 5.93179 9.78109
115 1 1.26999 8.60603 7.06051
116 1 4.07924 8.71472 7.14615
117 1 6.4576 10.4558 7.58302
118 1 1.33231 8.65562 9.74457
119 1 8.98262 8.55785 7.19681
120 1 10.1455 5.75538 6.99397
121 1 10.0151 5.84063 9.83504
122 1 6.93165 8.66163 9.74048
123 1 8.82128 11.7292 7.27043
124 1 12.6442 8.48011 7.08793
125 1 10.9572 10.2425 7.9609
126 2 8.45903 10.1587 8.83901
127 1 12.8452 5.78523 6.95337
128 1 12.7692 5.82113 9.78013
12111 2 0.00611611 10.0704 11.1866
130 1 12.7213 11.4649 9.66714
131 1 1.28739 11.3974 6.96789
132 1 3.90769 11.5831 7.0387
133 1 4.12203 11.4846 9.81903
134 1 1.38988 11.651 9.88599
135 1 1.27218 14.3988 7.11163
136 1 4.11797 14.3181 6.76404
137 1 4.24703 14.2322 9.70905
138 1 1.55414 14.4079 9.85669
139 1 9.97998 14.5666 7.03255
140 1 11.071 12.3253 6.00143
141 1 9.90089 11.6222 10.0297
142 1 6.97262 11.5557 9.91056
143 1 7.01027 14.2691 6.95565
144 1 9.73583 17.2432 6.81053
145 1 9.8382 14.2807 9.84737
146 1 6.97752 14.2584 9.68554
147 1 12.6696 14.2867 7.13851
148 1 12.5742 14.3602 10.033
149 1 12.4425 17.3092 7.10188
150 1 12.6528 17.2164 9.79323
151 1 1.40011 17.1752 6.94753
152 1 4.27402 17.0543 7.0492
153 1 4.16113 17.1296 9.81993
154 1 1.47782 17.1532 9.64708
155 1 1.47212 19.9636 6.97456
156 1 4.22211 19.9149 6.94759
157 1 4.14282 19.9354 9.81407
158 1 1.38487 19.8501 9.83019
159 1 7.08814 17.0295 7.04764
160 1 12.6906 22.9678 4.15957
161 1 9.79514 17.1475 9.8021
162 1 7.07271 17.1545 9.77123
163 1 6.99936 19.8916 7.01496
164 1 9.81132 20.1709 7.09095
165 1 9.70394 19.9653 9.93054
166 1 7.00807 19.8566 9.93728
241 1 9.82793 8.71256 12.7317
168 1 12.5518 20.1469 9.73235
169 1 12.5689 22.8363 6.91789
170 1 12.4237 22.7638 9.829
171 1 1.4989 22.6459 7.04412
172 1 4.23175 22.7481 6.89407
173 1 4.17119 22.6946 9.72573
174 1 1.31189 22.7027 9.76882
175 1 6.87703 22.8183 7.02443
176 1 9.71255 22.8562 6.95141
177 1 9.73688 22.7381 9.82497
178 1 6.93942 22.5833 9.70676
12091 2 -0.0186642 21.287 5.55363
12094 2 -0.181258 24.1036 8.40032
181 1 1.30466 0.141895 12.5419
182 1 4.19667 0.142894 12.081
183 1 1.34985 3.05235 12.5827
184 1 4.25562 3.06314 12.5501
185 1 7.09641 0.240012 12.6471
186 1 9.7432 0.258057 12.4252
187 1 7.01755 3.04575 12.6251
188 1 9.83428 3.20272 12.4468
189 1 12.4738 0.240771 12.4222
190 1 12.6476 2.98644 12.6556
191 1 1.23658 5.90262 12.6027
192 1 4.27744 5.72306 9.64791
193 1 1.28555 8.61411 12.5186
194 1 4.08565 8.54356 12.7223
195 1 3.96117 5.77094 12.4341
196 1 9.95393 5.92444 12.5562
197 1 10.0198 8.63707 10.0097
198 1 12.6691 8.46192 9.88007
199 1 12.737 5.86441 12.6816
200 1 12.7591 8.5782 12.661
201 1 1.2667 11.4922 12.6865
202 1 4.12103 11.3803 12.5773
203 1 1.47813 14.2935 12.5651
204 1 4.25569 14.2788 12.587
205 1 7.06516 11.4899 12.6116
206 1 9.7447 11.6873 12.6151
207 1 6.95093 14.4276 12.5722
208 1 9.79412 14.4262 12.6353
209 1 12.6033 11.5723 12.6044
210 1 12.5243 14.4365 12.7621
211 1 1.45155 17.2237 12.5727
212 1 4.1556 17.1336 12.624
213 1 1.30838 20.1367 12.7562
214 1 4.05275 19.8646 12.5772
215 1 6.97657 17.1465 12.6878
216 1 9.77388 17.2315 12.6606
217 1 7.02488 20.054 12.7011
218 1 9.85779 19.9838 12.59
219 1 12.4695 17.1714 12.7446
220 1 12.5744 19.9728 12.6354
221 1 1.28386 22.8342 12.5045
222 1 4.29118 22.5965 12.545
223 1 6.8856 22.8634 12.6041
224 1 9.65512 22.8115 12.6577
225 1 12.5335 22.7002 12.5985
12125 2 11.1617 21.3724 11.2703
12110 2 11.347 4.55674 11.169
12032 2 2.81931 18.5868 -0.0964049
12124 2 8.36303 24.1346 11.2349
80 1 12.5899 22.9155 1.32009
12109 2 8.51625 7.29172 11.2565
12084 2 0.0950544 18.5269 8.34504
12008 2 5.60857 1.59513 2.72979
243 1 6.96082 8.64481 12.4698
12010 2 11.2864 1.52848 2.72784
12123 2 5.57575 21.3034 11.2127
12108 2 5.67361 4.52263 11.2179
12013 2 2.87226 4.40293 2.84023
12122 2 2.73058 24.1258 11.2145
12107 2 2.64127 7.29872 11.1981
12112 2 2.85967 12.902 11.1724
12017 2 8.60127 4.37172 2.76795
12018 2 5.69739 7.19645 2.91359
12104 2 8.47969 1.61425 11.0851
12020 2 11.26 7.33289 2.83638
60 1 12.5947 20.0472 4.04438
129 1 13.8477 10.8709 6.38716
12023 2 2.75275 10.0521 2.81116
12120 2 11.1694 15.8304 11.2187
12102 2 2.60371 1.73926 11.0867
12113 2 5.54806 10.061 11.0631
12027 2 8.43223 9.94158 2.47821
12028 2 5.65477 12.9021 2.85767
12100 2 11.1635 24.0438 8.32187
12030 2 11.2145 12.8333 2.60116
12099 2 11.2419 21.2796 5.52472
12098 2 5.49483 24.0489 8.30727
12033 2 2.8146 15.5959 2.87804
412 1 6.83876 14.4102 1.36023
12097 2 8.41238 21.3254 8.43924
12096 2 8.3653 24.1464 5.56786
12037 2 8.3973 15.8883 2.77497
12038 2 5.46321 18.5683 2.77107
12095 2 5.65142 21.3953 5.45448
12040 2 11.2221 18.5626 2.70114
29 1 7.11018 8.60701 1.13278
12093 2 2.94744 21.2866 8.42023
12043 2 2.70433 21.2744 2.83182
5723 1 7.04796 0.039112 6.99114
12092 2 2.74497 24.0847 5.6085
5634 1 7.08083 0.212992 1.22899
12047 2 8.38538 21.3134 2.7263
12048 2 5.5361 24.1235 2.71914
12090 2 11.0693 18.6493 8.43182
12050 2 11.1613 24.2277 2.76091
12119 2 8.44047 18.5721 11.3453
12052 2 2.91987 1.56286 5.64396
12042 2 2.74515 24.3447 -0.0741216
12118 2 5.51677 15.6791 11.2032
5633 1 6.91964 0.01049 4.09406
12056 2 8.4569 1.4078 5.45188
5726 1 6.72223 0.34303 9.92658
12058 2 5.79867 1.71505 8.32592
12081 2 -0.00718397 15.7809 5.45662
12060 2 11.1622 1.51987 8.36621
12117 2 2.80104 18.4425 11.1296
12062 2 2.67998 7.25011 5.63147
12063 2 2.74118 4.45543 8.44204
12089 2 11.2921 15.7943 5.63158
12065 2 5.61135 4.46173 5.65991
12066 2 8.44692 6.89821 5.60118
12067 2 8.59651 4.36471 8.28889
12068 2 5.61981 7.35702 8.37792
12069 2 11.3803 4.37505 5.63064
12070 2 11.1434 7.33172 8.40535
12115 2 11.3195 10.1306 11.2111
12072 2 2.6658 12.9344 5.57928
12073 2 2.64445 10.1703 8.51618
12114 2 8.35454 12.8848 11.2615
12075 2 4.99007 10.0584 5.65196
12076 2 8.62358 13.3044 5.51175
12077 2 8.00424 10.1388 5.64734
12078 2 5.70128 12.821 8.20001
12079 2 11.6791 10.193 5.69669
12080 2 11.2159 12.7914 8.4093
395 1 7.02353 11.635 1.44273
12082 2 2.82194 18.5555 5.63075
12083 2 2.82378 15.6146 8.29269
15081 2 13.7191 18.5185 5.52571
12085 2 5.5498 15.6634 5.58902
12086 2 8.41853 18.5228 5.52347
12087 2 8.4172 15.7226 8.4631
12088 2 5.69645 18.4832 8.41558
167 1 12.5994 20.0126 6.90526
12012 2 2.98671 7.34439 0.0446602
12026 2 8.33632 12.8911 -0.0473439
12014 2 0.09857 7.2206 2.82428
15126 2 13.9892 -1.12134 13.9883
12016 2 8.48555 7.24253 -0.0642993
12074 2 -0.0243125 12.865 8.44367
12103 2 5.80119 -1.33986 11.1592
12142 2 0.0159635 18.5169 13.9827
12022 2 2.89242 12.7453 0.0186242
12046 2 8.46508 24.251 -0.043044
12019 2 11.2742 4.33408 -0.0173907
12061 2 -0.0121382 4.375 5.53216
15116 2 13.8558 18.6166 11.293
12034 2 -0.0914386 18.5175 2.64128
12021 2 0.0702382 10.1228 0.0188005
12003 2 2.67809 -1.1803 2.66936
12116 2 0.166788 15.6745 11.2304
12128 2 8.54283 -1.16418 13.8759
12024 2 -0.0613945 12.9 2.92912
12004 2 -0.152514 1.53082 2.67118
12132 2 0.017755 7.19063 13.9623
12011 2 0.0217929 4.47961 -0.0405958
12031 2 -0.0826031 15.6128 -0.0671234
12006 2 8.52221 1.57181 -0.0664345
12136 2 2.61145 10.0925 13.9142
12002 2 2.91333 1.68513 0.00470875
12129 2 5.6583 1.62754 13.8432
12049 2 11.2206 21.3771 -0.0429821
15041 2 13.8753 24.1526 0.0304675
12131 2 2.82119 4.34424 13.8337
12130 2 11.115 1.7605 13.8448
12025 2 5.60958 10.1627 -0.0468523
12015 2 5.64429 4.54516 0.0146034
226 1 4.19051 0.248704 15.1675
227 1 1.45098 0.14255 15.2919
228 1 4.2285 3.03144 15.2882
229 1 1.38609 3.053 15.3421
230 1 9.8448 0.381091 15.1729
231 1 7.07403 0.12674 15.4094
232 1 9.91049 3.15052 15.3114
233 1 7.04119 2.995 15.4526
234 1 12.4814 0.297662 15.2743
235 1 12.6881 3.2443 15.5843
236 1 4.18306 5.82006 15.295
237 1 1.4977 5.76192 15.3216
238 1 4.26657 8.58098 15.5608
239 1 1.34513 8.68076 15.2773
240 1 9.70438 5.937 15.4505
12224 2 0.0648277 12.9092 25.2864
242 1 9.97732 8.66389 15.5388
5993 1 6.97296 0.334515 23.7066
244 1 12.4536 5.92874 15.5413
245 1 12.7497 8.76819 15.4647
246 1 4.14997 11.5015 15.3661
247 1 1.35864 11.5398 15.397
248 1 4.32256 14.3192 15.3491
249 1 1.44279 14.4944 15.3045
250 1 9.91626 11.5154 15.5293
251 1 6.90019 11.5144 15.4845
252 1 9.73023 14.343 15.4564
253 1 7.20001 14.1982 15.4253
254 1 12.6174 11.6569 15.2807
255 1 12.7615 14.4673 15.5393
256 1 4.14042 17.2639 15.5609
257 1 1.40384 17.2879 15.4707
258 1 3.92234 19.8728 15.3176
259 1 1.22165 20.1315 15.5049
260 1 9.66502 17.0339 15.3518
261 1 6.80515 17.0601 15.4359
262 1 9.61938 19.9397 15.3548
263 1 6.79527 19.8492 15.5625
264 1 12.3955 17.3147 15.5739
265 1 12.5756 19.927 15.5273
266 1 4.00075 22.6731 15.2092
267 1 1.28253 22.918 15.3612
268 1 9.6133 22.828 15.5027
269 1 6.86345 22.6703 15.6077
270 1 12.478 22.8261 15.3939
271 1 1.48069 0.216091 18.0584
272 1 4.46879 0.421356 17.9544
273 1 4.21837 0.275408 20.8711
274 1 1.35355 0.428346 20.8595
275 1 1.4665 3.04401 18.0228
276 1 4.20175 3.19204 18.1298
277 1 4.15159 3.12235 21.0644
278 1 1.30093 3.21967 20.8877
279 1 7.06044 3.15623 18.15
280 1 9.78091 0.334397 18.0379
281 1 9.71346 0.169336 20.8341
282 1 7.07421 3.22206 21.064
283 1 6.85195 5.90856 18.3601
284 1 9.82117 3.1487 18.2317
285 1 9.7402 3.00927 21.0525
286 1 6.9861 5.95903 23.8836
287 1 12.7475 0.120182 18.0069
288 1 12.6039 0.205066 20.9771
289 1 12.5376 3.13032 18.3076
290 1 12.6123 2.89041 20.9747
291 1 1.31969 5.96777 18.1379
292 1 4.03794 5.99966 18.1638
293 1 4.11791 5.86728 20.9512
294 1 1.4721 5.88825 20.8916
295 1 1.3666 8.67634 18.063
296 1 4.16976 8.83235 18.3089
297 1 4.29098 8.78723 21.1772
298 1 1.33272 8.7647 20.9299
299 1 6.94369 5.85328 15.4356
300 1 9.72156 5.8078 18.2276
301 1 9.63191 5.88766 21.0655
302 1 6.99345 6.09785 21.0949
303 1 7.17487 8.57088 15.1932
304 1 9.91194 8.58225 18.1607
305 1 9.90169 8.65674 21.0651
306 1 6.88938 8.61105 18.0065
307 1 12.5199 6.00032 18.3171
308 1 12.6121 5.77065 20.946
309 1 12.744 8.83163 18.336
310 1 12.6971 8.46785 20.9607
311 1 1.41684 11.4246 18.2456
312 1 4.19646 11.5442 18.158
313 1 4.1857 11.5835 20.8734
314 1 1.23188 11.5414 20.9716
315 1 1.42475 14.2761 18.1944
316 1 4.38445 14.3835 18.2095
317 1 4.11414 14.3017 21.0986
318 1 1.3222 14.4174 21.0812
319 1 6.99078 11.4126 18.3379
320 1 9.8266 11.5706 18.1949
321 1 9.75991 11.4519 20.9795
322 1 7.00455 11.4551 21.0343
323 1 7.12657 14.3414 18.26
324 1 9.86006 14.2857 18.2535
325 1 9.86649 14.335 21.0168
326 1 6.89606 14.2098 20.988
327 1 12.7676 11.5344 18.1115
328 1 12.623 11.4121 20.9198
329 1 12.8164 14.4388 18.1243
330 1 12.6113 14.2683 20.9265
331 1 1.52761 17.058 18.1794
332 1 4.22759 17.0646 18.1827
333 1 4.15107 17.1156 21.1409
334 1 1.27277 17.3929 20.8073
335 1 1.27593 20.0159 18.2904
336 1 4.21876 19.9896 18.202
337 1 4.11142 19.8431 21.0848
338 1 1.25387 20.0713 21.0701
339 1 7.07527 17.174 18.2645
340 1 9.79814 17.0549 18.2625
341 1 9.80721 17.1234 21.2318
342 1 7.01254 17.0205 20.9221
343 1 6.99451 19.9281 18.4129
344 1 9.903 19.8776 18.1796
345 1 9.67875 19.9806 21.12
346 1 6.80527 19.9076 21.1077
347 1 12.5519 17.2363 18.3303
348 1 12.5023 16.9785 21.0619
349 1 12.5538 19.9857 18.3251
350 1 12.4899 19.9399 21.0726
351 1 1.23705 22.8175 18.1813
352 1 4.03633 22.7778 18.1613
353 1 4.10027 22.7135 21.018
354 1 1.41127 22.8517 21.0893
355 1 6.98601 22.8155 18.3175
356 1 9.76827 22.6372 18.4343
357 1 9.72887 22.689 21.1545
358 1 6.89152 22.7696 21.133
359 1 12.581 22.8425 18.2934
360 1 12.468 22.6596 21.0319
361 1 1.49657 0.0131842 23.6116
362 1 4.33035 0.430182 23.5932
363 1 4.10982 0.262864 26.5253
364 1 1.40587 0.238938 26.4999
365 1 1.54704 2.9528 23.8269
366 1 4.324 3.10841 23.8308
367 1 4.28532 3.12294 26.6495
368 1 1.48881 3.15782 26.7548
369 1 7.05163 3.28138 23.702
370 1 9.75537 0.487057 23.6341
371 1 9.8887 0.235304 26.6064
372 1 7.00353 3.25831 26.451
373 1 7.15496 5.93548 26.8962
374 1 9.97177 3.19069 23.7407
375 1 9.89635 3.00336 26.5973
376 1 9.99262 5.85623 26.5958
377 1 12.5869 0.269307 23.8329
378 1 12.6903 0.229741 26.7222
379 1 12.7505 3.05898 23.7672
380 1 12.6726 2.99066 26.6575
381 1 1.31348 5.82239 23.6187
382 1 4.16726 5.894 23.8837
383 1 4.23282 5.99631 26.6187
384 1 1.51253 6.02513 26.4451
385 1 1.32325 8.51497 23.8704
386 1 4.19566 8.66516 23.9741
387 1 4.15622 8.75939 26.6404
388 1 1.31903 8.77881 26.8288
389 1 7.06385 8.72722 23.6805
390 1 9.84862 5.87523 23.712
391 1 9.89746 8.66743 26.4812
392 1 7.16552 8.79875 26.4831
393 1 7.09937 8.76389 20.8987
394 1 9.74525 8.56151 23.8272
12039 2 11.0898 15.7274 28.0174
396 1 7.00215 11.6004 26.724
397 1 12.5869 5.81079 23.7081
398 1 12.7835 5.8166 26.5301
399 1 12.7397 8.52389 23.7783
400 1 12.6019 8.5832 26.4526
401 1 1.31543 11.492 23.7776
402 1 4.03786 11.3247 23.839
403 1 4.15974 11.3679 26.6446
404 1 1.51901 11.5386 26.646
405 1 1.38025 14.3291 24.0074
406 1 4.17784 14.2229 23.9221
407 1 4.16081 14.2923 26.7193
408 1 1.42053 14.2545 26.6677
409 1 6.98003 11.5254 23.8926
410 1 9.96435 11.4372 23.702
411 1 9.75179 11.4067 26.673
12153 2 2.8314 -1.07618 19.356
413 1 6.95674 14.2868 23.8796
414 1 9.95186 14.2167 23.8474
415 1 9.62668 14.2824 26.5908
416 1 6.7751 14.3618 26.6188
417 1 12.7322 11.5026 23.6869
418 1 12.6619 11.4292 26.4958
419 1 12.7603 14.2788 23.8549
420 1 12.6152 14.2744 26.7709
421 1 1.35663 17.0939 23.7353
422 1 4.104 17.1698 23.795
423 1 4.18211 17.1013 26.6221
424 1 1.42045 17.0742 26.4803
425 1 1.26858 19.8187 23.8936
426 1 3.97792 19.8737 23.9158
427 1 4.16361 19.8661 26.778
428 1 1.26888 19.9534 26.4949
429 1 6.83813 17.0553 23.7739
430 1 9.65401 17.1174 23.8399
431 1 9.70191 17.0842 26.5755
432 1 6.9973 17.1817 26.5759
433 1 6.93534 19.8117 23.839
434 1 9.79089 19.8719 23.8755
435 1 9.81463 20.0379 26.6266
436 1 6.92383 19.9595 26.6265
437 1 12.5072 17.0824 23.8051
438 1 12.4802 17.0586 26.4937
439 1 12.5529 19.9533 23.8154
440 1 12.4735 19.8587 26.6599
441 1 1.18476 22.6005 23.9784
442 1 4.06539 22.7023 23.8066
443 1 4.2744 22.6776 26.584
444 1 1.33943 22.759 26.5952
445 1 6.80896 22.609 23.8543
446 1 9.69685 22.6771 23.8728
447 1 9.8185 22.792 26.6292
448 1 7.02517 22.6503 26.7186
449 1 12.5587 22.6892 23.8399
450 1 12.5929 22.6923 26.5869
12204 2 0.0462181 1.59211 25.1325
12250 2 11.135 24.1229 25.2282
12244 2 -0.0710222 24.2214 25.3201
12148 2 8.32031 21.4434 13.9874
5906 1 7.01311 0.274249 20.9951
12150 2 11.1214 24.0908 13.9888
12249 2 11.1656 21.3048 22.513
12154 2 -0.0382076 1.58261 19.4999
12144 2 5.49359 18.556 13.9474
12146 2 2.62883 21.3162 14.0713
12181 2 0.0578114 15.7084 16.8525
12248 2 5.67898 23.9837 25.2898
12214 2 -0.0434861 7.29488 25.3252
12139 2 5.55013 12.73 14.0397
12203 2 2.8354 -1.1242 25.1239
12143 2 8.37627 15.6703 13.9464
12194 2 -0.000365098 24.1677 19.5523
15242 2 13.9719 21.2345 25.2466
12220 2 11.2147 7.2313 25.1294
12221 2 -0.0659455 10.0385 22.4589
12232 2 2.63903 18.4759 22.4977
12216 2 8.43337 7.31787 22.379
5903 1 7.08141 0.290918 18.0663
12219 2 11.1999 4.41717 22.2745
12218 2 5.56459 7.27279 25.2627
12247 2 8.41935 21.3148 25.2795
12152 2 2.85013 1.67555 16.6963
12227 2 8.47064 10.0524 25.0733
12246 2 8.32823 24.0489 22.4228
12230 2 11.2617 12.9224 25.1413
12156 2 8.48436 1.69309 16.7085
12229 2 11.3047 9.92107 22.385
12158 2 5.75412 1.6832 19.5708
12217 2 8.46263 4.58263 25.1552
12160 2 11.203 1.64935 19.563
12245 2 5.44178 21.2882 22.4857
12162 2 2.72574 7.24593 16.5907
12163 2 2.79531 4.44725 19.544
12228 2 5.47491 12.9123 25.3682
12165 2 5.48224 4.45569 16.6683
12166 2 8.39136 7.28709 16.9041
12167 2 8.30875 4.53116 19.6464
12168 2 5.50298 7.36294 19.6435
12169 2 11.086 4.52363 16.8213
12170 2 11.2698 7.28074 19.702
12243 2 2.68576 21.3737 25.2771
12172 2 2.76563 12.9679 16.9228
12173 2 2.75512 10.0973 19.5617
12242 2 2.70739 24.1829 22.5474
12175 2 5.51652 10.1452 16.825
12176 2 8.30497 12.8737 16.8649
12177 2 8.48251 10.0203 19.5938
12178 2 5.62927 12.8293 19.6497
12179 2 11.2991 10.0613 16.8157
12180 2 11.2811 12.828 19.6254
12236 2 8.38095 18.4823 22.4313
12182 2 2.72874 18.7901 16.8116
12183 2 2.85381 15.7196 19.6553
12223 2 2.74438 9.98062 25.2292
12185 2 5.60229 15.7418 16.8851
12186 2 8.35222 18.4946 16.9375
12187 2 8.49317 15.6614 19.5675
12188 2 5.64644 18.5017 19.6247
12189 2 11.1006 15.6668 16.976
12190 2 11.2169 18.4942 19.7062
12226 2 8.32212 12.8014 22.3534
12192 2 2.73232 24.1562 16.7262
12193 2 2.66053 21.4021 19.7295
12225 2 5.55849 10.1253 22.4638
12195 2 5.54841 21.2805 16.8828
12196 2 8.36215 24.1046 16.847
12197 2 8.32861 21.3562 19.7515
12198 2 5.44452 24.0417 19.5586
12199 2 11.3039 21.3391 16.9094
12200 2 11.1335 24.0971 19.7108
12240 2 11.1595 18.3662 25.0837
12202 2 2.84407 1.70786 22.4244
5996 1 7.07267 0.314362 26.5307
12239 2 11.2065 15.6086 22.4323
12222 2 2.74894 12.8692 22.4558
12206 2 8.25626 1.74831 22.2846
12235 2 5.44826 15.6905 22.4353
12208 2 5.63204 1.78056 25.2675
12233 2 2.77969 15.7164 25.3101
12210 2 11.321 1.48891 25.1922
12238 2 5.54294 18.6073 25.3706
12212 2 2.78429 7.28522 22.5004
12213 2 2.75822 4.56349 25.1979
12237 2 8.30067 15.6582 25.1189
12215 2 5.54937 4.58164 22.4332
12205 2 5.57565 -1.11571 22.1875
12149 2 5.55861 24.0813 13.9903
12209 2 11.2526 -1.1274 22.2531
12171 2 -0.0548868 10.1578 16.7438
12207 2 8.51317 -0.959204 25.1094
12127 2 0.0482569 1.52739 13.9509
12174 2 -0.0749955 13.0471 19.588
12191 2 -0.14496 21.3695 16.7416
15141 2 13.9493 15.9051 14.1282
12211 2 -0.0404022 4.47787 22.4462
12137 2 0.0127666 12.8872 13.9632
12234 2 -0.100327 18.5572 25.2116
12231 2 0.0526859 15.8909 22.34
12241 2 -0.132434 21.4301 22.4016
12161 2 0.112786 4.39162 16.6896
15192 2 13.8599 21.4048 19.628
15241 2 13.89 24.0643 22.4705
15191 2 13.9729 24.1289 16.8101
15151 2 13.989 1.66355 16.6923
12164 2 -0.00792996 7.37253 19.5752
12138 2 8.42215 10.1262 14.0866
12140 2 11.1948 13.0017 14.0279
12184 2 -0.201462 18.6166 19.5726
12145 2 10.9134 18.5459 14.1049
12001 2 0.00234268 -1.20302 27.8922
12133 2 8.44859 4.48878 13.8993
12134 2 5.66203 7.232 14.0503
12029 2 11.2273 10.0764 27.9005
12036 2 8.31989 18.6352 27.8782
12141 2 2.94789 15.7027 14.0268
12135 2 11.2682 7.28404 14.0528
451 1 1.36576 25.4672 1.29536
452 1 4.17539 25.5494 1.36143
453 1 4.26677 25.6419 4.0762
454 1 1.39798 25.5412 3.98158
455 1 6.91936 25.5419 1.45392
456 1 9.74674 25.643 1.16993
457 1 9.73362 25.5297 4.25537
458 1 7.07448 25.6748 4.11797
459 1 12.6963 31.0894 1.24808
460 1 12.7057 28.4382 4.03222
461 1 1.42222 28.2842 1.34188
462 1 4.20226 28.2007 1.25636
463 1 4.22034 28.4221 4.23335
464 1 1.29368 28.2961 4.03208
465 1 1.4327 31.0849 1.26994
466 1 4.10359 31.1163 1.18721
467 1 4.16923 31.0683 4.13521
468 1 1.19167 31.1524 4.07759
469 1 6.93792 28.4576 1.27386
470 1 9.8408 28.6013 1.55097
471 1 9.72548 28.3299 4.27603
472 1 6.87731 28.4944 4.09683
473 1 6.99334 31.2928 1.22483
1102 1 4.14816 50.8024 12.6937
475 1 9.77143 31.3704 4.16463
476 1 7.00665 31.1612 4.18177
477 1 9.95144 31.1842 1.27306
478 1 9.62069 33.8078 1.66212
15317 2 13.8687 38.1951 8.35561
12380 2 -0.121928 46.5774 13.9443
481 1 1.27945 33.9559 1.28073
482 1 4.91455 33.5884 1.73004
483 1 4.0737 33.789 4.45407
484 1 1.32261 33.9496 4.15096
12252 2 2.77625 29.7463 -0.121197
486 1 3.35213 35.8263 1.85898
487 1 3.96963 36.9317 4.40272
488 1 1.26899 36.8053 4.12485
489 1 7.16182 34.4185 1.11678
847 1 0.99336 36.9327 1.21739
491 1 9.56581 34.3958 4.28157
492 1 7.02359 34.008 4.07008
493 1 5.41574 37.1901 1.6963
494 1 10.0875 36.0756 0.976368
495 1 9.78871 37.0842 3.62801
496 1 7.13604 36.6263 4.18806
497 1 12.6915 33.8354 1.19235
498 1 12.4478 33.9317 3.99088
499 1 12.7337 36.8142 1.19177
500 1 12.5512 36.6532 4.19515
501 1 1.17467 39.7198 1.25519
502 1 4.04347 39.5244 1.42157
503 1 3.88104 39.6403 4.24854
504 1 1.12855 39.5858 3.97433
505 1 1.3075 42.3905 1.32221
506 1 4.06805 42.2058 1.21834
507 1 4.02599 42.3909 4.17164
508 1 1.27542 42.4763 4.28662
509 1 7.0138 39.9051 1.32339
510 1 9.92683 39.4162 1.26236
511 1 9.56071 39.7931 4.08483
512 1 6.66167 39.5519 4.10818
513 1 6.7172 42.4419 1.42843
514 1 9.66436 42.2536 1.45946
515 1 9.5627 42.5397 4.04366
516 1 6.64182 42.2759 4.23685
517 1 12.5876 39.6437 1.29619
518 1 12.3821 39.4499 3.98426
519 1 12.3567 42.4504 1.24799
520 1 12.4873 42.3034 4.0399
521 1 1.31259 45.1296 1.34656
522 1 4.16965 45.1759 1.31906
523 1 3.86152 45.1938 4.10737
524 1 1.09872 45.3693 4.09138
525 1 1.38344 48.0693 1.41195
526 1 4.15632 47.9798 1.39753
527 1 4.18098 47.9361 4.19788
528 1 1.37468 48.033 4.12453
529 1 6.94177 45.1056 1.34456
530 1 9.7803 45.3839 1.27721
531 1 9.68724 45.3311 4.08486
532 1 6.83398 45.121 4.13901
533 1 6.91398 47.8561 1.11536
534 1 9.63099 48.0925 1.30162
535 1 9.72331 48.2399 4.1415
536 1 6.98503 47.8904 3.92463
537 1 12.6938 45.3342 1.28998
538 1 12.6065 45.1789 3.89485
539 1 12.6623 47.9958 1.21345
540 1 12.5932 48.0085 4.04644
541 1 1.17451 25.3048 6.91505
542 1 4.143 25.606 6.99343
543 1 4.08154 25.4635 9.85017
544 1 1.20719 25.4058 9.71212
545 1 7.0102 25.4994 6.96635
546 1 9.76761 25.5376 7.03119
547 1 9.64868 25.4881 9.78329
548 1 6.9367 25.7432 9.79816
549 1 12.6204 28.3216 6.88633
550 1 12.559 25.5717 9.64792
551 1 1.30113 28.2432 6.86329
552 1 4.12694 28.432 7.04753
553 1 3.90358 28.4359 9.81123
554 1 1.19492 28.2645 9.6636
555 1 1.21983 31.1296 6.89478
556 1 3.95618 31.2601 7.05148
557 1 4.00666 31.1913 9.7963
558 1 1.26246 31.079 9.7501
559 1 6.97187 28.1205 6.78339
560 1 9.72004 28.3744 6.94937
561 1 9.67468 28.4567 9.84527
562 1 6.97936 28.4067 9.67527
563 1 6.99938 30.9473 6.99372
564 1 9.81354 31.088 6.98545
565 1 9.73436 31.09 9.6712
566 1 7.02134 31.1922 9.91322
567 1 12.6314 31.1141 7.00389
568 1 12.4719 28.2624 9.73053
90 1 12.5946 25.5973 1.4145
570 1 12.5295 31.2418 9.78914
571 1 1.21391 33.9815 7.08544
572 1 3.98953 33.9857 7.02122
573 1 3.75681 34.0381 9.66323
574 1 1.02942 33.9483 9.85953
575 1 1.08386 36.8232 6.97503
576 1 3.9298 36.8122 7.16349
577 1 4.09262 36.9054 9.91282
578 1 1.23292 36.8368 9.78985
579 1 6.88791 33.8125 7.10581
580 1 9.74179 33.8376 6.93604
581 1 9.71427 33.9978 9.59568
582 1 6.74818 34.0538 9.78509
583 1 6.55044 36.7703 6.76731
584 1 9.65002 36.7881 6.80122
585 1 9.61628 36.9145 9.57204
586 1 6.81571 36.8384 9.64137
587 1 12.582 33.9863 6.67398
588 1 12.4068 34.0018 9.59433
589 1 12.4632 36.7309 6.97232
590 1 12.2785 36.7818 9.73389
591 1 1.25737 39.5343 6.76846
592 1 4.06382 39.6292 7.09558
593 1 4.06574 39.8448 9.838
594 1 1.31974 39.6248 9.62885
595 1 1.19824 42.4572 6.89219
596 1 3.84238 42.3622 6.9672
597 1 4.23007 42.4978 9.62248
598 1 1.33034 42.5519 9.60438
599 1 6.85383 39.4972 6.82868
600 1 9.61392 39.6174 6.89297
601 1 9.74496 39.6465 9.77526
602 1 6.85605 39.6347 9.75262
603 1 6.72057 42.41 7.01365
604 1 9.55293 42.2864 6.90399
605 1 9.88641 42.4911 9.66784
606 1 7.09373 42.471 9.9188
607 1 12.4621 39.4773 6.85088
608 1 12.5551 39.5094 9.7949
609 1 12.45 42.3558 6.79799
610 1 12.714 42.3205 9.621
611 1 1.30781 45.1899 6.95073
612 1 4.10942 45.203 6.95747
613 1 3.98441 45.2964 9.70106
614 1 1.34969 45.4168 9.76379
615 1 1.22073 47.9211 6.95889
616 1 4.02801 48.1382 6.98107
617 1 4.19497 47.9962 9.81538
618 1 1.20261 48.2009 9.69237
619 1 7.03661 45.1449 6.77564
620 1 9.85455 45.0834 6.96374
621 1 9.59946 45.3134 9.68776
622 1 6.69561 45.1195 9.65983
623 1 6.81036 47.9403 6.75108
624 1 9.66791 48.0976 6.90229
625 1 9.62618 48.0231 9.63489
626 1 6.86669 47.964 9.70665
627 1 12.6693 45.183 6.76786
628 1 12.565 45.2834 9.54194
629 1 12.5122 47.9753 6.87164
630 1 12.5055 47.9991 9.66951
631 1 1.27812 25.4787 12.5419
632 1 4.20429 25.439 12.8076
633 1 6.95277 25.4509 12.5017
634 1 9.68562 25.5196 12.7379
635 1 12.407 25.422 12.5333
636 1 1.25877 28.3056 12.4809
637 1 4.10592 28.2256 12.5202
638 1 1.34442 31.1834 12.4482
639 1 4.14075 31.2857 12.5436
640 1 6.80393 28.2955 12.6683
641 1 9.67319 28.2954 12.7055
642 1 6.9665 31.0989 12.663
643 1 9.749 31.1357 12.5258
644 1 12.4223 28.2068 12.5928
645 1 12.5073 30.9766 12.4849
646 1 1.167 34.1171 12.6949
647 1 3.95133 34.2385 12.6033
648 1 1.19354 36.9108 12.488
649 1 4.28358 36.9835 12.623
650 1 6.93594 33.8177 12.5235
651 1 9.79016 33.9169 12.3808
652 1 6.97496 36.7836 12.5544
653 1 9.6955 36.7316 12.4224
654 1 12.4709 33.7429 12.325
655 1 12.4562 36.6131 12.5607
656 1 1.37668 39.6238 12.4494
657 1 4.19937 39.7523 12.6102
658 1 1.21576 42.459 12.3615
659 1 4.14777 42.536 12.5451
660 1 7.05402 39.6232 12.5832
661 1 9.64424 39.6853 12.6074
662 1 6.92458 42.4489 12.6733
663 1 9.53678 42.4128 12.5016
664 1 12.4962 39.5781 12.4663
665 1 12.521 42.3449 12.4898
666 1 1.35844 45.1601 12.6141
667 1 4.10829 45.2296 12.4658
668 1 1.255 47.9846 12.435
669 1 3.92497 48.1036 12.5309
670 1 6.97585 45.1641 12.5691
671 1 9.80266 45.1449 12.3271
672 1 6.8948 47.9466 12.4639
673 1 9.74056 47.9709 12.4366
674 1 12.572 45.0704 12.4051
675 1 12.6347 47.9757 12.5925
12363 2 11.1253 49.378 11.2221
89 1 12.6304 28.2704 1.2438
12253 2 2.77794 26.9564 2.74314
12362 2 5.45381 49.4109 11.1769
15316 2 13.8733 40.9421 5.41917
180 1 12.5379 25.4828 6.95493
12257 2 8.38928 26.958 2.79872
12258 2 5.57068 29.7326 2.69906
15326 2 13.9667 46.6365 5.39758
12260 2 11.3398 29.7666 2.79072
12360 2 11.2196 43.775 10.9948
15346 2 13.7857 35.3601 11.0674
12263 2 2.80726 32.4746 2.63225
12359 2 8.30063 46.6811 11.0684
12255 2 5.5355 26.7919 -0.0218399
12293 2 5.64317 49.3685 -0.0688012
12267 2 8.36167 32.3639 2.76184
12268 2 5.17376 35.366 3.30403
12345 2 11.1103 26.8222 11.0854
12270 2 11.4764 35.3952 2.61032
12358 2 5.62832 43.869 11.2219
12344 2 8.26445 29.751 11.131
12273 2 2.63258 38.2771 2.62929
12357 2 2.73411 46.6247 11.0106
12343 2 5.61092 26.9517 11.2705
179 1 12.4324 25.7338 4.12574
12277 2 8.30663 38.757 2.70242
12278 2 5.32865 41.0695 2.82416
12299 2 -0.119804 29.6713 8.33725
12280 2 11.1641 41.0306 2.69248
12355 2 10.971 38.2325 11.1121
12262 2 5.3736 35.5185 0.136958
12283 2 2.55943 43.8298 2.74859
12354 2 8.35157 41.0782 11.1557
851 1 7.82385 37.1539 0.996834
12342 2 2.64612 29.686 11.1343
12287 2 8.16563 43.8121 2.8223
12288 2 5.45894 46.5759 2.70657
12340 2 11.2 49.6963 5.46493
12290 2 11.291 46.7044 2.55344
12353 2 5.43927 38.2893 11.2436
12292 2 2.76531 49.4448 2.78404
12375 2 -0.0679286 41.0484 13.8987
12294 2 8.3021 49.4565 2.7427
12256 2 8.47913 29.7832 -0.0201937
12339 2 8.33618 49.464 8.33812
12297 2 2.54916 29.6421 5.49156
12298 2 2.65068 26.7984 8.39716
12338 2 5.57674 49.402 5.52953
12300 2 5.52979 26.9954 5.5216
12301 2 8.36828 29.694 5.5788
12302 2 8.34244 26.923 8.39525
12303 2 5.48883 29.8032 8.44109
12304 2 11.1391 26.9408 5.61659
12305 2 11.1082 29.6635 8.36373
12352 2 2.78611 41.0542 11.1519
12307 2 2.59872 35.4623 5.70775