ITEM: TIMESTEP
435000
ITEM: NUMBER OF ATOMS
18000
ITEM: BOX BOUNDS xy xz yz pp pp pp
-9.7952400754150640e-02 2.7991952400753586e+01 0.0000000000000000e+00
-1.0988128816030862e+00 3.3582681288162917e+02 0.0000000000000000e+00
-1.0922380767379079e-01 2.8003223807673372e+01 0.0000000000000000e+00
ITEM: ATOMS id type x y z
1 1 1.51002 0.250772 1.34958
2 1 4.19603 0.26057 1.32237
3 1 4.17356 0.393397 4.34237
4 1 1.39682 0.245477 4.15907
5 1 1.45611 2.99895 1.39147
6 1 4.33224 3.08675 1.42588
7 1 4.26597 3.16817 4.16667
8 1 1.32581 3.01405 4.25197
9 1 7.29055 2.90687 1.33231
10 1 9.83819 0.23009 1.37918
11 1 9.89989 0.128112 4.0661
12 1 6.98543 2.90647 4.1785
13 1 7.11269 5.75888 1.36429
14 1 9.92789 3.1121 1.23623
15 1 9.73722 2.87323 3.96661
16 1 7.02741 5.46975 4.18451
17 1 12.7771 0.305979 1.34812
18 1 12.6583 0.167517 4.08592
19 1 12.7757 3.14799 1.29973
20 1 12.647 2.97825 4.17069
21 1 1.48578 5.78138 1.35929
22 1 4.15697 5.88812 1.35492
23 1 4.2012 5.8392 4.13399
24 1 1.38689 5.83752 4.18027
25 1 1.40925 8.65662 1.2543
26 1 4.18939 8.76248 1.39145
27 1 3.92598 11.51 4.00672
28 1 1.22212 8.79305 4.09627
12150 2 11.3664 24.1571 13.8414
30 1 9.80411 5.90037 1.25199
31 1 9.89897 5.70804 4.07955
32 1 6.49374 8.1614 5.65811
33 1 6.60777 10.4915 3.82006
34 1 9.78107 8.70691 1.33333
35 1 8.00367 8.05269 3.40241
36 1 6.38247 12.1513 5.92749
37 1 12.5928 5.95647 1.36581
38 1 12.6009 5.73949 4.1232
39 1 12.59 8.98768 1.33489
40 1 12.6801 8.57084 3.98752
41 1 1.27947 11.465 1.26132
42 1 4.13358 11.3832 1.26463
43 1 7.01681 14.1109 3.94196
44 1 1.26067 11.6383 4.19152
45 1 1.2718 14.3725 1.12088
46 1 4.04953 14.1969 1.23476
47 1 4.0423 14.3186 3.87251
48 1 1.25966 14.498 4.03419
49 1 3.9809 8.49519 4.05777
50 1 9.71475 11.5678 1.21427
51 1 10.0594 9.04882 4.72408
52 1 8.99656 11.6004 3.93319
53 1 6.79951 17.034 4.04665
54 1 9.72262 14.3868 1.26365
55 1 12.5405 14.2793 4.0574
56 1 9.79319 14.4841 4.04308
57 1 12.4589 11.5378 1.22646
58 1 12.5311 11.395 3.88723
59 1 12.5127 14.2045 1.40443
12148 2 8.43429 21.3295 13.8757
61 1 1.22713 17.222 1.32214
62 1 4.13329 17.322 1.2797
63 1 4.15541 17.1141 4.09524
64 1 1.33608 17.1192 4.175
65 1 1.33007 19.8832 1.3145
66 1 4.09534 19.9919 1.04183
67 1 4.05884 19.8474 4.1541
68 1 1.23202 19.8241 4.05089
69 1 6.82781 17.099 1.15376
70 1 9.71826 17.2196 0.983197
71 1 12.324 17.2018 3.89825
72 1 9.51199 17.3781 3.89927
73 1 6.84647 20.041 1.22077
74 1 9.69767 19.8967 1.19051
75 1 9.65566 20.144 4.17042
76 1 6.78111 19.8357 4.04004
77 1 12.5746 17.0126 0.991402
12021 2 -0.0277733 10.2565 -0.135611
79 1 12.5204 19.84 1.28296
12084 2 -0.00261868 18.5928 8.3372
81 1 1.2225 22.7651 1.14531
82 1 4.17054 22.7045 1.18614
83 1 4.125 22.8247 3.86174
84 1 1.44818 22.6867 4.06155
85 1 7.12087 22.7405 1.18681
86 1 9.78758 22.6099 1.13324
87 1 9.60329 22.699 3.9746
88 1 6.83335 22.6304 4.1267
12111 2 -0.101319 10.0036 11.2445
12144 2 5.63294 18.4161 14.0164
91 1 1.31348 0.141174 6.97467
92 1 4.13438 0.233887 7.41573
93 1 4.18602 2.75546 9.88924
94 1 1.51788 0.26315 9.7655
95 1 1.47751 3.04254 7.03242
96 1 4.24061 3.14506 7.01138
97 1 7.18616 5.89497 9.85286
98 1 1.33224 3.18948 9.77524
99 1 7.01413 2.99381 7.00063
100 1 9.75954 0.295812 6.85125
101 1 9.50508 0.399004 9.57402
102 1 6.93976 3.19638 9.66524
103 1 6.97958 5.94647 7.05806
104 1 9.80351 2.98135 6.93973
105 1 9.77643 3.03403 9.80867
106 1 6.82806 5.90558 12.7591
107 1 12.4582 0.17057 6.92775
108 1 12.5006 0.32355 9.73242
109 1 12.6177 2.93064 6.90554
110 1 12.5254 3.23155 9.51755
111 1 1.37634 5.90404 6.93503
112 1 4.14102 6.0104 6.98512
113 1 4.23517 8.59098 9.69085
114 1 1.47199 6.01851 9.67636
115 1 1.24738 8.52319 6.78091
116 1 3.96453 8.77692 6.93667
117 1 6.63548 9.97474 7.38036
118 1 1.31529 8.95057 9.84737
119 1 8.96868 8.43374 7.10805
120 1 9.72319 5.80055 6.89331
121 1 9.90573 5.9525 9.83222
122 1 7.0099 8.78342 9.94695
123 1 8.95897 11.6391 7.14727
124 1 12.6867 8.42574 6.92476
125 1 11.0697 10.1399 7.88861
126 2 8.60949 10.0819 8.80897
127 1 12.5523 5.80277 6.70133
128 1 12.655 6.06281 9.52619
12147 2 -0.0654165 24.1214 13.8661
130 1 12.6696 11.5306 9.80623
131 1 1.17962 11.4768 6.89795
132 1 3.9292 11.5855 6.92115
133 1 4.07929 11.43 9.72625
134 1 1.28413 11.6638 9.80602
135 1 1.22968 14.2742 6.71508
136 1 4.14343 14.3497 6.70278
137 1 4.24188 14.3986 9.50616
138 1 1.41992 14.3391 9.49079
139 1 9.78002 14.5906 6.99736
140 1 10.9808 12.509 5.80651
141 1 9.73738 11.717 10.0787
142 1 7.01523 11.6693 9.64893
143 1 7.01879 14.4264 6.87973
144 1 9.54715 17.3025 6.95177
145 1 9.65227 14.408 9.63332
146 1 6.92261 14.4711 9.77228
147 1 12.7067 14.1832 7.00033
148 1 12.542 14.3213 9.6369
149 1 12.3322 17.1626 6.98084
150 1 12.5101 17.1182 9.7681
151 1 1.23751 17.022 7.02721
152 1 4.10701 17.1609 6.93359
153 1 4.14219 17.0785 9.63803
154 1 1.47407 17.0271 9.69897
155 1 1.2675 19.8884 6.91304
156 1 4.10938 19.9732 6.93637
157 1 4.03134 19.9708 9.73555
158 1 1.26045 19.8698 9.60047
159 1 6.80739 17.0815 6.89936
160 1 12.5827 22.707 4.11714
161 1 9.64871 17.1786 9.73266
162 1 6.89108 17.1394 9.79724
163 1 6.80517 19.8427 6.91965
164 1 9.85336 19.8706 6.93721
165 1 9.65373 20.029 9.77681
166 1 6.84915 19.8903 9.67874
241 1 9.77817 8.76354 12.757
168 1 12.6575 19.8886 9.68867
169 1 12.6912 22.7794 6.79149
170 1 12.6565 22.7972 9.678
171 1 1.43389 22.6842 6.88318
172 1 4.31797 22.7781 6.75071
173 1 4.15418 22.7042 9.67373
174 1 1.46636 22.6314 9.92419
175 1 7.02729 22.7928 6.87399
176 1 9.68645 22.7179 6.74771
177 1 9.68121 22.7669 9.64076
178 1 6.96801 22.9082 9.82793
12059 2 11.2456 -1.20042 5.44361
12022 2 2.79872 12.945 -0.19458
181 1 1.39885 0.347715 12.519
182 1 4.39803 0.374554 12.2685
183 1 1.42448 3.16839 12.6755
184 1 4.17144 3.19185 12.6704
185 1 7.09615 0.272217 12.6788
186 1 9.78015 0.201068 12.4594
187 1 6.96412 3.03595 12.564
188 1 9.81472 2.95568 12.5933
189 1 12.5419 0.198723 12.4568
190 1 12.649 2.99126 12.5159
191 1 1.40126 5.96448 12.4902
192 1 4.09027 5.80015 9.86619
193 1 1.34101 8.71916 12.6973
194 1 4.22929 8.78556 12.5276
195 1 4.13301 6.05221 12.5987
196 1 9.83113 5.7246 12.5802
197 1 9.86514 8.55221 10.0376
198 1 12.6856 8.66578 9.99334
199 1 12.6483 5.7101 12.4326
200 1 12.569 8.557 12.615
201 1 1.33234 11.3886 12.6073
202 1 4.09942 11.589 12.5324
203 1 1.38904 14.3657 12.4181
204 1 4.15072 14.3032 12.4728
205 1 7.03079 11.4567 12.4897
206 1 9.81546 11.5412 12.7424
207 1 6.93682 14.369 12.6967
208 1 9.70733 14.4429 12.4972
209 1 12.6196 11.4847 12.7215
210 1 12.5358 14.2753 12.5731
211 1 1.24565 17.1093 12.6095
212 1 4.06491 17.0813 12.4405
213 1 1.34316 19.9589 12.6061
214 1 4.03334 19.9442 12.53
215 1 6.8652 17.0713 12.517
216 1 9.69781 17.1061 12.549
217 1 6.9663 19.8945 12.673
218 1 9.90381 20.0727 12.5334
219 1 12.5057 17.1073 12.5434
220 1 12.6873 19.9628 12.6213
221 1 1.27835 22.7661 12.6032
222 1 4.05999 22.7917 12.5666
223 1 6.96463 22.804 12.5117
224 1 9.77849 22.9628 12.4639
225 1 12.5746 22.769 12.5153
12125 2 11.2744 21.2895 11.1352
12110 2 11.234 4.47793 11.0272
15042 2 14.1571 21.2281 2.84958
12124 2 8.37077 24.1597 11.0738
80 1 12.7297 22.6479 1.42082
12109 2 8.43107 7.19391 11.4018
12116 2 0.0446745 15.6176 11.0613
12008 2 5.62416 1.68048 2.83913
243 1 7.07465 8.69764 12.6033
12010 2 11.284 1.58616 2.81021
12123 2 5.61554 21.385 11.1418
12108 2 5.62911 4.58278 11.1123
12013 2 2.72515 4.50317 2.91671
12122 2 2.72787 24.1691 11.1128
12107 2 2.81495 7.35543 11.146
12112 2 2.73537 12.9742 11.0194
12017 2 8.52072 4.34297 2.6722
12018 2 5.70704 7.12555 2.70801
12104 2 8.31561 1.67598 11.0752
12020 2 11.2894 7.23373 2.7263
60 1 12.586 19.8944 3.9923
15116 2 13.8894 18.4459 11.1917
12023 2 2.65555 10.0499 2.68462
12120 2 11.1631 15.7445 11.0492
12102 2 2.70231 1.67766 11.3646
12113 2 5.61414 10.1322 11.1061
12027 2 8.28838 10.0406 2.27177
12028 2 5.39236 12.8561 2.52232
12100 2 11.1629 24.1527 8.21115
12030 2 11.0126 12.899 2.67286
12099 2 11.1905 21.2281 5.54891
12098 2 5.73049 24.2841 8.26607
12033 2 2.69721 15.691 2.62281
412 1 6.80102 14.453 1.24075
12097 2 8.39701 21.1761 8.16159
12096 2 8.38264 24.0525 5.47841
12037 2 8.30512 15.7145 2.5543
12038 2 5.58949 18.4759 2.66465
12095 2 5.53568 21.3291 5.54552
12040 2 11.0386 18.5513 2.67953
29 1 6.90582 8.65673 0.89249
12093 2 2.84161 21.3501 8.32518
12043 2 2.72869 21.1436 2.74251
5723 1 6.97383 0.142194 6.99154
12092 2 2.78831 24.2221 5.37418
5634 1 6.91625 0.109326 1.14533
12047 2 8.34565 21.3304 2.70489
12048 2 5.68205 24.043 2.53743
12090 2 11.2318 18.4589 8.33375
12050 2 11.1111 23.8834 2.62785
12119 2 8.32074 18.533 11.2187
12052 2 2.76217 1.62768 5.51329
15071 2 13.9017 12.9714 5.34697
12118 2 5.58894 15.6983 11.1264
5633 1 7.0392 0.134874 4.03232
12056 2 8.31002 1.65152 5.39668
5726 1 6.59557 0.252709 9.9165
12058 2 5.6795 1.74706 8.23167
129 1 13.5344 11.3205 6.76796
12060 2 11.1682 1.62613 8.2191
12117 2 2.79726 18.4725 11.0616
12062 2 2.77194 7.2406 5.57495
12063 2 2.77393 4.56355 8.37323
12089 2 11.3376 15.5028 5.51549
12065 2 5.56219 4.45866 5.67262
12066 2 8.419 6.81132 5.35845
12067 2 8.45394 4.40247 8.38073
12068 2 5.7694 7.58895 8.22923
12069 2 11.2728 4.45532 5.53775
12070 2 11.1146 7.28347 8.33964
12115 2 11.1562 10.1662 11.2641
12072 2 2.69217 13.0513 5.40224
12073 2 2.66172 10.1506 8.29196
12114 2 8.3365 13.0219 11.2305
12075 2 5.08963 10.1423 5.43664
12076 2 8.52797 13.1575 5.45129
12077 2 8.09642 9.94263 5.61794
12078 2 5.66917 12.9281 8.05075
12079 2 11.6727 10.1881 5.67008
12080 2 10.9752 12.9962 8.16078
395 1 6.88896 11.6311 1.18849
12082 2 2.74806 18.3403 5.53561
12083 2 2.79278 15.7874 8.19744
15081 2 13.601 18.466 5.51699
12085 2 5.54969 15.5655 5.34335
12086 2 8.22295 18.4104 5.44246
12087 2 8.30888 15.8456 8.35083
12088 2 5.50304 18.4667 8.26918
167 1 12.4587 19.9867 6.80503
15072 2 13.8078 10.0514 8.46529
15111 2 14.0141 12.9957 11.0479
12044 2 -0.214513 24.2009 2.72422
12054 2 -0.066167 1.66009 8.35274
12146 2 2.72401 21.3921 14.0175
12064 2 -0.0807565 7.51243 8.29483
12034 2 -0.284058 18.5389 2.69799
12143 2 8.39361 15.6915 14.0164
12061 2 -0.0571095 4.55123 5.50358
12149 2 5.68312 24.169 13.9814
12121 2 -0.00660425 21.2895 11.162
12009 2 11.1168 -1.22213 -0.0603946
12081 2 -0.217842 15.7203 5.59301
15091 2 13.8521 24.2548 5.3731
12012 2 2.82005 7.36035 -0.0792931
12126 2 2.5597 -1.27597 14.0398
12132 2 -0.121669 7.15156 14.0608
12145 2 11.1664 18.4773 13.852
12006 2 8.41958 1.56375 -0.285028
12141 2 2.67205 15.7127 14.0194
12134 2 5.62545 7.32168 14.0269
226 1 4.03467 0.102697 15.2383
227 1 1.15816 0.295948 15.276
228 1 4.28612 2.99527 15.4363
229 1 1.3272 3.13237 15.4283
230 1 9.67346 0.278791 15.3568
231 1 6.90065 0.187579 15.2919
232 1 9.69909 3.17192 15.4832
233 1 7.04623 2.98453 15.3672
234 1 12.5623 0.240763 15.2059
235 1 12.5035 2.86416 15.3552
236 1 4.20004 5.79522 15.4223
237 1 1.22236 5.85494 15.3472
238 1 4.19743 8.64502 15.3789
239 1 1.36564 8.59919 15.3222
240 1 9.86949 6.08097 15.2892
12129 2 5.47663 1.60892 13.9669
242 1 9.61234 8.85725 15.6295
5993 1 6.98707 0.153277 23.8232
244 1 12.5227 5.83403 15.4048
245 1 12.535 8.86944 15.42
246 1 4.14411 11.4984 15.2892
247 1 1.37827 11.3483 15.3392
248 1 4.08484 14.2114 15.3467
249 1 1.32602 14.3405 15.3188
250 1 9.87465 11.7058 15.6478
251 1 6.98744 11.591 15.4548
252 1 9.78191 14.3945 15.234
253 1 7.04344 14.501 15.543
254 1 12.7028 11.5896 15.4854
255 1 12.6318 14.4087 15.4362
256 1 4.31483 17.0835 15.3192
257 1 1.40656 17.2296 15.342
258 1 4.19462 19.9257 15.3352
259 1 1.36976 20.0581 15.334
260 1 9.84587 17.0857 15.4754
261 1 7.21736 17.0523 15.3051
262 1 9.81675 19.8783 15.3177
263 1 7.13273 19.9556 15.4307
264 1 12.6689 17.2403 15.2571
265 1 12.6336 20.0845 15.3214
266 1 4.23078 22.7631 15.3755
267 1 1.50773 22.6823 15.3391
268 1 9.88956 22.6939 15.2557
269 1 6.99257 22.8288 15.3921
270 1 12.7636 22.8404 15.302
271 1 1.41245 0.324483 18.0099
272 1 4.07185 0.3981 17.9666
273 1 4.07998 0.237777 20.7039
274 1 1.37561 0.281619 20.9491
275 1 1.38065 3.02216 18.3709
276 1 4.01391 3.18009 18.2537
277 1 4.11855 3.09668 21.1328
278 1 1.30976 3.08565 21.0678
279 1 6.89379 3.03902 18.1349
280 1 9.79816 0.0973628 18.1977
281 1 9.69868 0.230844 20.9692
282 1 6.91871 2.90013 21.0817
283 1 7.07993 5.91731 18.2788
284 1 9.83426 3.13219 18.2513
285 1 9.79233 3.07372 20.9513
286 1 6.89308 5.76736 23.8718
287 1 12.6374 0.221877 18.1198
288 1 12.5427 0.338374 20.9954
289 1 12.5298 3.07854 18.1302
290 1 12.6029 3.12014 20.9782
291 1 1.42387 5.91423 18.2648
292 1 4.18603 5.85159 18.1609
293 1 4.01114 5.97301 21.1858
294 1 1.26246 5.99125 21.0551
295 1 1.33129 8.7753 18.2523
296 1 4.19351 8.70216 18.2869
297 1 4.11396 8.77265 21.0711
298 1 1.1899 8.82293 21.1259
299 1 6.93175 5.94051 15.4638
300 1 9.73838 5.86685 18.1328
301 1 9.78382 5.848 21.0205
302 1 6.91806 5.85028 21.0887
303 1 6.92601 8.67914 15.4236
304 1 9.767 8.69047 18.2827
305 1 9.82771 8.75901 21.0232
306 1 6.95025 8.76737 18.429
307 1 12.6234 6.00391 18.2286
308 1 12.6145 5.85191 21.1222
309 1 12.6173 8.79284 18.1269
310 1 12.6027 8.70216 20.8404
311 1 1.20099 11.5662 18.2505
312 1 4.15644 11.3737 18.3397
313 1 4.14382 11.5072 20.9367
314 1 1.3924 11.4518 20.9233
315 1 1.2768 14.2724 18.1445
316 1 4.15183 14.3437 18.2274
317 1 4.22256 14.3907 21.0517
318 1 1.32016 14.4277 20.9379
319 1 7.10294 11.5536 18.337
320 1 9.85445 11.6341 18.3824
321 1 9.82017 11.5962 21.1371
322 1 6.96956 11.6273 21.1366
323 1 6.90642 14.3665 18.3647
324 1 9.83146 14.4604 18.2596
325 1 9.92107 14.3786 21.2336
326 1 7.12909 14.3302 21.0064
327 1 12.7492 11.6588 18.2921
328 1 12.6276 11.6634 20.9041
329 1 12.6531 14.3588 18.2433
330 1 12.7917 14.4716 20.9864
331 1 1.23882 17.1068 18.1125
332 1 4.0417 17.0358 18.1148
333 1 4.00099 17.1954 20.8899
334 1 1.16304 17.1353 20.9147
335 1 1.30332 20.0109 18.1332
336 1 4.11833 19.9701 18.0152
337 1 4.22045 20.0344 20.7668
338 1 1.41697 20.0101 20.8756
339 1 6.9437 17.163 18.0668
340 1 9.76766 17.1811 18.2414
341 1 9.87032 17.0897 20.8441
342 1 6.93493 17.2496 21.0024
343 1 6.83967 19.9835 18.0859
344 1 9.71846 20.0069 18.2185
345 1 9.80426 19.863 20.8538
346 1 6.97846 19.935 20.7542
347 1 12.5124 17.3006 17.9308
348 1 12.7323 17.2282 20.9352
349 1 12.6976 19.9405 18.0186
350 1 12.6425 20.0777 20.8673
351 1 1.47646 22.7616 18.1846
352 1 4.16597 22.804 18.163
353 1 4.09312 22.9616 20.9349
354 1 1.30018 22.7555 20.9153
355 1 7.07605 22.8421 18.2001
356 1 9.95099 22.7641 18.1105
357 1 9.72258 22.6438 20.8299
358 1 6.99326 22.8277 20.8316
359 1 12.6035 22.8131 17.945
360 1 12.496 22.7873 20.7857
361 1 1.47172 0.303136 23.7817
362 1 4.23124 0.227203 23.6525
363 1 4.21633 0.360773 26.6743
364 1 1.50239 0.359465 26.6935
365 1 1.44366 3.1606 23.7572
366 1 4.16359 3.20191 23.9038
367 1 4.30158 3.06371 26.6551
368 1 1.44885 3.09557 26.6565
369 1 7.0094 2.98614 23.8834
370 1 9.77341 0.106935 23.7786
371 1 9.8683 0.173668 26.5304
372 1 6.99496 3.04804 26.6153
373 1 7.01715 5.70886 26.703
374 1 9.73346 2.96541 23.5947
375 1 9.84552 3.0483 26.6296
376 1 9.8378 5.83178 26.3646
377 1 12.6214 0.334994 23.8721
378 1 12.6194 0.241746 26.5293
379 1 12.581 3.12218 23.7738
380 1 12.5788 3.13214 26.5096
381 1 1.29753 5.98601 23.7628
382 1 4.11543 5.91229 23.9443
383 1 4.15562 5.90165 26.7483
384 1 1.32366 5.88976 26.6806
385 1 1.16654 8.73745 23.8932
386 1 4.02379 8.68023 23.8389
387 1 4.19345 8.74848 26.5415
388 1 1.41026 8.77105 26.5611
389 1 6.93209 8.61211 23.7457
390 1 9.67331 5.92323 23.6568
391 1 9.81494 8.7275 26.8275
392 1 6.96167 8.80152 26.4907
393 1 6.95877 8.65682 21.0371
394 1 9.787 8.75206 23.8607
12131 2 2.75142 4.5831 13.9609
396 1 6.95239 11.698 26.5074
397 1 12.4035 5.83444 23.8724
398 1 12.6721 5.97754 26.636
399 1 12.6791 8.62124 23.6269
400 1 12.5554 8.63631 26.6853
401 1 1.31194 11.7218 23.8836
402 1 4.04419 11.449 23.7659
403 1 4.18686 11.4806 26.7265
404 1 1.38206 11.5 26.5851
405 1 1.3681 14.4073 23.6726
406 1 4.05437 14.2538 23.7882
407 1 4.16174 14.3678 26.5843
408 1 1.2688 14.3395 26.4752
409 1 6.87757 11.5805 23.8734
410 1 9.62808 11.4649 23.7754
411 1 9.83136 11.558 26.6428
12151 2 -0.0818365 -1.05561 16.7332
413 1 6.89606 14.3088 23.7876
414 1 9.77134 14.417 23.9475
415 1 9.6776 14.4238 26.6012
416 1 6.88363 14.5417 26.5953
417 1 12.4337 11.3481 23.7527
418 1 12.6575 11.4623 26.468
419 1 12.6494 14.2789 23.6965
420 1 12.4819 14.2184 26.6438
421 1 1.38434 17.0269 23.6675
422 1 4.23194 17.2403 23.7348
423 1 3.94569 17.2593 26.4319
424 1 1.19699 17.0803 26.4738
425 1 1.17091 19.8969 23.6432
426 1 4.02564 19.8392 23.5824
427 1 3.92128 20.0129 26.3352
428 1 1.27259 19.823 26.5815
429 1 7.03603 17.1905 23.7998
430 1 9.79452 17.2818 23.7106
431 1 9.7697 17.1614 26.4241
432 1 6.7792 17.3611 26.5297
433 1 6.95959 19.8885 23.4974
434 1 9.71433 19.9091 23.7364
435 1 9.71605 20.0003 26.4774
436 1 6.91624 20.0814 26.3755
437 1 12.7059 17.1186 23.6996
438 1 12.5186 17.0936 26.5666
439 1 12.5801 19.9299 23.7207
440 1 12.5871 19.9386 26.5614
441 1 1.30888 22.6858 23.7894
442 1 4.16538 22.6523 23.8364
443 1 4.11594 22.8215 26.5976
444 1 1.25866 22.7256 26.4769
445 1 6.87331 22.645 23.5904
446 1 9.87906 22.7362 23.6946
447 1 9.79469 22.7451 26.5599
448 1 6.86026 22.8971 26.5394
449 1 12.6219 22.7993 23.554
450 1 12.5154 22.763 26.5026
12039 2 11.0845 15.743 27.8587
12250 2 11.1523 24.2091 25.1899
15146 2 14.094 21.4034 13.869
12191 2 -0.0490274 21.3336 16.7081
5906 1 6.90606 0.247129 20.9762
15141 2 14.0825 15.6362 13.9736
12249 2 11.1693 21.3688 22.2947
12221 2 -0.118432 10.0498 22.4713
15221 2 13.9166 12.8818 22.3827
15192 2 14.0018 21.2793 19.4188
12127 2 -0.11846 1.70144 14.0195
12248 2 5.53097 24.1008 25.0899
12046 2 8.31283 24.1546 27.8579
12002 2 2.87592 1.66085 28.0474
12029 2 11.3192 10.1551 28.0417
12174 2 -0.0939744 12.9005 19.7031
15231 2 14.066 18.5669 22.2293
15172 2 14.1516 10.029 19.5683
12220 2 11.1716 7.39244 25.0917
15211 2 14.0024 7.15372 22.3632
12232 2 2.67734 18.5378 22.2852
12216 2 8.26845 7.26182 22.4267
5903 1 6.97169 0.265017 18.0319
12219 2 11.1105 4.43777 22.3624
12218 2 5.56773 7.20944 25.216
12247 2 8.24073 21.3412 24.9912
12152 2 2.71635 1.81495 16.6509
12227 2 8.30846 10.1271 25.3304
12246 2 8.31535 24.0394 22.2715
12230 2 11.1637 12.7776 25.2226
12156 2 8.29424 1.52671 16.6557
12229 2 11.2078 10.1337 22.2223
12158 2 5.50481 1.62733 19.5099
12217 2 8.39703 4.46184 25.1687
12160 2 11.2667 1.78697 19.6448
12245 2 5.60487 21.2528 22.2112
12162 2 2.79145 7.21112 16.7349
12163 2 2.7078 4.43762 19.7086
12228 2 5.47742 12.9497 25.2138
12165 2 5.56489 4.42551 16.8254
12166 2 8.41007 7.37796 16.872
12167 2 8.17583 4.40734 19.5983
12168 2 5.45797 7.34727 19.6759
12169 2 11.183 4.44893 16.7659
12170 2 11.1972 7.22905 19.6655
12243 2 2.79111 21.3442 25.0408
12172 2 2.77803 13.0118 16.8131
12173 2 2.67812 10.1507 19.5498
12242 2 2.84687 24.1798 22.4204
12175 2 5.58956 10.1111 16.8046
12176 2 8.46545 13.1038 16.9359
12177 2 8.39926 10.0438 19.5974
12178 2 5.58011 12.9659 19.7211
12179 2 11.2272 10.2508 16.9216
12180 2 11.239 13.0728 19.6629
12236 2 8.45811 18.5108 22.2829
12182 2 2.67653 18.5735 16.7096
12183 2 2.64604 15.7416 19.6706
12223 2 2.69855 10.1628 25.2113
12185 2 5.54756 15.6815 16.9152
12186 2 8.37179 18.5444 16.7214
12187 2 8.37678 15.8633 19.6236
12188 2 5.49734 18.5638 19.3906
12189 2 11.1649 15.8051 16.7297
12190 2 11.3394 18.5021 19.5354
12226 2 8.42261 12.9465 22.4393
12192 2 2.72378 24.1178 16.7016
12193 2 2.68197 21.4103 19.508
12225 2 5.50286 10.18 22.5858
12195 2 5.58918 21.4196 16.7695
12196 2 8.46529 24.1321 16.6943
12197 2 8.24365 21.2585 19.4787
12198 2 5.57593 24.2271 19.5735
12199 2 11.2525 21.3195 16.7197
12200 2 11.0703 24.1833 19.3367
12240 2 11.15 18.5818 25.1944
12202 2 2.79208 1.65773 22.2813
5996 1 7.11461 0.161313 26.4483
12239 2 11.3363 15.7459 22.3553
12222 2 2.78246 12.8233 22.2872
12206 2 8.40507 1.56493 22.2775
12235 2 5.66796 15.6603 22.3893
12208 2 5.70178 1.55861 25.3127
12233 2 2.69245 15.8427 25.0811
12210 2 11.1465 1.66061 25.1141
12238 2 5.45235 18.6361 25.1087
12212 2 2.66178 7.32658 22.5135
12213 2 2.82227 4.44448 25.3162
12237 2 8.2022 15.762 25.1636
12215 2 5.63737 4.3983 22.5713
12154 2 -0.178365 1.59201 19.558
12036 2 8.23806 18.7113 27.7566
12049 2 11.111 21.2384 27.8445
12214 2 -0.183608 7.26845 25.1942
12042 2 2.64395 23.9992 27.9068
12224 2 -0.0574291 12.8355 25.2871
12205 2 5.60265 -1.15544 22.559
12133 2 8.48188 4.43842 14.0355
12211 2 -0.12519 4.49748 22.4315
12207 2 8.46231 -1.25245 25.1317
12241 2 -0.126028 21.2927 22.1884
12041 2 -0.0311368 21.2055 27.9021
12181 2 -0.148703 15.6912 16.7317
12194 2 -0.00464466 24.0712 19.5605
12164 2 -0.0646422 7.30639 19.5713
12025 2 5.44622 10.0964 27.9393
12130 2 11.1305 1.6602 13.8713
12136 2 2.79954 10.1282 13.928
15171 2 14.0179 12.9458 16.8774
12244 2 -0.044747 24.0218 25.112
12234 2 -0.060094 18.5721 25.1867
12138 2 8.41495 10.1105 14.1152
12137 2 0.0300867 12.7742 13.8805
12142 2 -0.0149682 18.525 13.9531
12015 2 5.69213 4.34916 28.1222
12026 2 8.30957 13.0499 27.954
12140 2 11.3078 12.9539 13.9634
12045 2 5.51561 21.4531 27.9012
12019 2 11.1676 4.44915 28.0376
12035 2 5.42998 15.858 27.9233
15041 2 13.9162 24.0375 28.0707
12135 2 11.187 7.25371 14.075
12032 2 2.60721 18.5589 28.0815
12016 2 8.44442 7.21324 28.0194
12139 2 5.6179 12.7788 13.9888
451 1 1.28365 25.6274 1.35142
452 1 4.17666 25.5083 1.05075
453 1 4.16119 25.4261 3.95449
454 1 1.34064 25.5048 4.02685
455 1 6.91254 25.4978 1.19076
456 1 9.73674 25.5687 1.08321
457 1 9.66155 25.3799 3.82902
458 1 6.9721 25.498 4.00734
459 1 12.3892 31.2146 1.18146
460 1 12.517 28.5132 3.81834
461 1 1.34427 28.3443 1.14713
462 1 4.16813 28.157 1.247
463 1 4.10378 28.1872 3.98465
464 1 1.24719 28.2209 3.99021
465 1 1.26547 31.1098 1.33156
466 1 3.99268 31.0185 1.39319
467 1 4.18524 30.8674 4.07898
468 1 1.45903 31.1595 4.20167
469 1 7.03995 28.2645 1.14736
470 1 9.83989 28.3393 1.20612
471 1 9.68527 28.3725 3.94897
472 1 7.02334 28.3366 3.89396
473 1 6.83699 31.0204 1.28613
12369 2 2.66536 32.5472 13.9729
475 1 9.72547 31.3119 3.98407
476 1 6.88971 31.0731 4.0206
477 1 9.71471 31.2899 1.16577
478 1 9.93835 34.1959 1.42843
12384 2 2.7451 49.4846 13.8436
485 2 2.51116 35.5324 -0.114869
481 1 1.37235 33.823 1.00389
482 1 4.2505 33.8753 0.79744
483 1 4.13898 33.7006 4.00938
484 1 1.13018 33.8199 4.15871
12374 2 2.65887 38.2418 13.8752
486 1 2.79438 35.4892 2.65717
487 1 3.95079 36.9701 4.38033
488 1 1.182 36.8097 4.07887
489 1 6.54374 34.1038 2.00652
847 1 1.29228 36.9211 1.16177
491 1 10.0019 34.178 4.04062
492 1 7.42214 33.731 4.2965
493 1 4.48751 36.6728 0.906058
494 1 9.6393 36.9018 1.17941
495 1 9.38271 36.6919 3.9309
496 1 6.69988 36.5365 4.09059
497 1 12.8853 33.9735 1.07256
498 1 12.7718 34.0781 3.89367
499 1 12.3738 36.8598 0.930791
500 1 12.4161 36.876 4.02229
501 1 1.31811 39.7218 1.26992
502 1 4.08653 39.5067 1.20754
503 1 4.09112 39.6446 3.96982
504 1 1.34735 39.5613 3.98562
505 1 1.2494 42.3728 1.26888
506 1 3.95 42.3084 1.10212
507 1 4.22296 42.5277 3.91571
508 1 1.32565 42.4349 4.0579
509 1 6.90144 39.6399 1.11055
510 1 9.71504 39.7269 1.11711
511 1 9.87238 39.6101 4.00566
512 1 6.91314 39.4944 4.04969
513 1 7.03028 42.3682 1.20582
514 1 9.70669 42.4208 1.28625
515 1 9.76586 42.4437 4.11686
516 1 7.05839 42.2319 3.93882
517 1 12.5187 39.6758 1.09007
518 1 12.4856 39.673 3.86239
519 1 12.555 42.6084 1.27287
520 1 12.5522 42.4436 4.00369
521 1 1.30098 45.2805 1.18645
522 1 4.1534 45.1064 1.04756
523 1 4.08596 45.1697 3.99435
524 1 1.25264 45.1176 3.86909
525 1 1.32013 47.9504 1.11523
526 1 4.0293 47.9772 1.11346
527 1 4.15479 47.9749 3.97545
528 1 1.35659 47.888 3.93778
529 1 7.00147 45.1588 1.16636
530 1 9.88375 45.2571 1.29961
531 1 9.87237 45.2549 3.99473
532 1 6.9598 45.1842 3.96365
533 1 6.84965 48.1437 1.20947
534 1 9.84923 48.1547 1.18844
535 1 9.65861 48.1178 4.00122
536 1 6.8944 48.0475 3.92372
537 1 12.6092 45.5011 1.07079
538 1 12.7181 45.3223 3.93973
539 1 12.5821 48.0703 1.14853
540 1 12.4863 48.0271 4.02929
541 1 1.40652 25.4311 6.91859
542 1 4.23297 25.3549 6.81511
543 1 4.31752 25.7109 9.687
544 1 1.48802 25.5827 9.73766
545 1 7.04725 25.5086 6.81175
546 1 9.89801 25.537 6.78246
547 1 10.004 25.6729 9.58487
548 1 7.04722 25.7474 9.65722
549 1 12.4756 28.4911 6.69992
550 1 12.6191 25.5319 9.64402
551 1 1.44536 28.2002 6.84587
552 1 4.12628 28.1505 6.77714
553 1 4.17536 28.4077 9.59168
554 1 1.30419 28.2289 9.73035
555 1 1.38421 30.8941 6.89097
556 1 4.16118 31.032 6.76357
557 1 4.19102 31.1688 9.63989
558 1 1.37432 31.0453 9.6236
559 1 6.85378 28.3358 6.56577
560 1 9.69682 28.435 6.83196
561 1 9.78144 28.4569 9.6678
562 1 6.9764 28.4031 9.48019
563 1 6.99188 31.2271 6.77843
564 1 9.69876 31.2438 6.7047
565 1 9.68523 31.2133 9.62581
566 1 6.90539 31.4028 9.51431
567 1 12.5243 31.275 6.87998
568 1 12.5887 28.4751 9.56271
90 1 12.5459 25.4455 1.23058
570 1 12.5628 31.3405 9.72891
571 1 1.2613 33.9177 7.01855
572 1 4.07155 33.9449 6.91716
573 1 4.06998 34.0263 9.69021
574 1 1.2568 33.9896 9.66239
575 1 1.42202 36.8051 6.80375
576 1 4.20714 36.8968 6.95536
577 1 4.10023 36.8205 9.68208
578 1 1.32738 36.8993 9.72725
579 1 6.85848 34.0123 6.94596
580 1 9.68747 34.0254 6.94932
581 1 9.78573 34.0584 9.5591
582 1 6.92371 34.1311 9.68548
583 1 6.90528 36.9686 6.89179
584 1 9.6693 36.7848 6.75119
585 1 9.75241 36.9366 9.53897
586 1 6.93536 36.8507 9.62556
587 1 12.4434 34.0756 6.66629
588 1 12.5924 34.1303 9.61647
589 1 12.5293 36.7074 6.76609
590 1 12.5733 36.8213 9.64572
591 1 1.09678 39.5909 6.9253
592 1 3.98598 39.7548 6.85693
593 1 4.04091 39.6988 9.53733
594 1 1.30746 39.5931 9.65447
595 1 1.17324 42.4497 6.69281
596 1 4.18361 42.5197 6.81774
597 1 4.22482 42.4018 9.75889
598 1 1.35956 42.4895 9.45854
599 1 6.8409 39.8274 6.98263
600 1 9.6197 39.5927 6.8044
601 1 9.60754 39.6394 9.62578
602 1 6.74096 39.6452 9.70162
603 1 6.98981 42.3708 6.71235
604 1 9.77751 42.4766 6.75023
605 1 9.87545 42.4926 9.68194
606 1 7.05634 42.4477 9.55638
607 1 12.407 39.5212 6.82129
608 1 12.6303 39.6555 9.69368
609 1 12.5387 42.3285 6.85521
610 1 12.4406 42.45 9.63544
611 1 1.38725 45.2845 6.67809
612 1 4.17642 45.2758 6.96606
613 1 4.0985 45.3675 9.57394
614 1 1.19473 45.2599 9.58958
615 1 1.27018 48.0907 6.72869
616 1 4.10909 48.063 6.90025
617 1 4.08724 48.0916 9.70167
618 1 1.38638 48.0114 9.58301
619 1 7.05756 45.4378 6.811
620 1 9.72143 45.399 6.7861
621 1 9.66213 45.3748 9.53176
622 1 6.75476 45.1682 9.56672
623 1 6.902 48.0977 6.68159
624 1 9.79581 48.0911 6.77003
625 1 9.72901 48.0246 9.67207
626 1 6.88879 48.0598 9.43726
627 1 12.5052 45.1462 6.77056
628 1 12.5107 45.1567 9.57257
629 1 12.5693 48.01 6.67613
630 1 12.4615 47.9883 9.55616
631 1 1.36575 25.6134 12.6095
632 1 4.06535 25.452 12.466
633 1 6.99634 25.5111 12.4968
634 1 9.70194 25.694 12.5014
635 1 12.6198 25.745 12.4461
636 1 1.2567 28.4847 12.4745
637 1 4.11357 28.3385 12.4419
638 1 1.47001 31.2862 12.4771
639 1 4.15389 31.2821 12.5044
640 1 6.91868 28.4118 12.4345
641 1 9.53334 28.5093 12.5033
642 1 6.7827 31.2509 12.5611
643 1 9.60367 31.2944 12.3468
644 1 12.3388 28.5563 12.3535
645 1 12.4247 31.3707 12.6852
646 1 1.06219 33.9419 12.4262
647 1 4.07326 34.1459 12.4125
648 1 1.24125 36.602 12.505
649 1 3.95058 36.8665 12.5271
650 1 6.92779 34.124 12.3908
651 1 9.78527 34.1394 12.3733
652 1 6.72576 36.8285 12.4889
653 1 9.64001 36.7837 12.3994
654 1 12.4971 34.0746 12.5181
655 1 12.6131 36.9272 12.4561
656 1 1.20989 39.5606 12.5258
657 1 4.03969 39.7104 12.3212
658 1 1.18488 42.4406 12.3821
659 1 4.06566 42.4604 12.5043
660 1 6.77643 39.6203 12.4104
661 1 9.69014 39.6397 12.4797
662 1 6.77595 42.4976 12.4043
663 1 9.74897 42.5655 12.4527
664 1 12.4972 39.8082 12.5483
665 1 12.5022 42.5165 12.3821
666 1 1.27835 45.2588 12.5603
667 1 4.13537 45.4151 12.4305
668 1 1.2586 47.9995 12.3735
669 1 4.21157 48.3385 12.4637
670 1 7.1058 45.2303 12.3126
671 1 9.68331 45.3526 12.4049
672 1 6.96057 48.1161 12.3916
673 1 9.63744 48.0484 12.4966
674 1 12.5601 45.3487 12.3912
675 1 12.5833 48.1557 12.353
12363 2 11.2054 49.4836 10.8405
89 1 12.5168 28.3998 1.19103
12253 2 2.82129 26.7811 2.60507
12362 2 5.55444 49.4995 11.074
12364 2 2.7162 26.8915 13.852
180 1 12.6259 25.7471 6.71427
12257 2 8.30399 26.8892 2.50796
12258 2 5.49611 29.589 2.73083
12254 2 -0.181109 29.5919 2.68195
12260 2 11.0511 29.8615 2.49651
12360 2 11.1337 43.9752 10.9515
12372 2 5.44383 35.5171 13.7601
12263 2 2.63975 32.5024 2.74784
12359 2 8.25262 46.7558 10.854
1102 1 4.17803 50.9005 12.3513
12351 2 -0.264552 38.2566 11.0654
12267 2 8.25609 32.3173 2.56585
12268 2 4.92212 35.4259 2.81164
12345 2 11.0876 26.972 11.1556
12270 2 11.5917 35.3929 2.56823
12358 2 5.57255 43.8769 11.0608
12344 2 8.23037 29.8563 11.0204
12273 2 2.67712 38.1053 2.68143
12357 2 2.73763 46.7607 10.9709
12343 2 5.62369 26.924 11.1517
179 1 12.634 25.5186 4.02179
12277 2 8.24543 38.6417 2.53625
12278 2 5.50585 41.0393 2.6307
12299 2 -0.0693761 29.763 8.21271
12280 2 11.1356 41.1159 2.54841
12355 2 11.1076 38.2654 10.9969
15368 2 13.8666 32.6232 13.9458
12283 2 2.63158 43.7419 2.59756
12354 2 8.17172 41.0287 11.0167
851 1 7.0626 36.5503 1.37402
12342 2 2.77847 29.7092 11.0079
12287 2 8.41197 43.7891 2.61413
12288 2 5.57884 46.5596 2.48668
12340 2 11.0888 49.4662 5.38317
12290 2 11.2268 46.7517 2.55151
12353 2 5.34337 38.2896 11.0749
12292 2 2.80262 49.4704 2.55451
12371 2 8.2306 32.723 13.7557
12294 2 8.27435 49.5207 2.67454
12341 2 -0.0641462 26.8237 11.1553
12339 2 8.23211 49.5042 8.20585
12297 2 2.74821 29.5784 5.37481
12298 2 2.80229 26.8895 8.25731
12338 2 5.4866 49.5045 5.34877
12300 2 5.52557 26.7931 5.43668
12301 2 8.23986 29.7217 5.35692
12302 2 8.47852 26.948 8.24605
12303 2 5.55668 29.747 8.16591
12304 2 11.1278 27.0175 5.28081
12305 2 11.1184 29.8603 8.30235
12352 2 2.65929 41.0855 11.0462
12307 2 2.62915 35.3355 5.42683
12308 2 2.705 32.4875 8.23029
569 1 12.4735 31.3752 4.04356
12310 2 5.5701 32.4341 5.56336
12311 2 8.26378 35.3631 5.77774
12312 2 8.3599 32.6805 8.36141
12313 2 5.44326 35.3483 8.33264
12314 2 11.1156 32.564 5.43517
12315 2 11.1533 35.3951 8.2022
12266 2 8.36693 35.3313 2.63278
12317 2 2.67184 41.0245 5.53193