ITEM: TIMESTEP
155000
ITEM: NUMBER OF ATOMS
18000
ITEM: BOX BOUNDS xy xz yz pp pp pp
-9.8312955477160152e-02 2.7992312955477892e+01 0.0000000000000000e+00
-1.1718464676038856e+00 3.3589984646761826e+02 0.0000000000000000e+00
-1.0524184288791014e-01 2.7999241842887717e+01 0.0000000000000000e+00
ITEM: ATOMS id type x y z
1 1 1.2714 0.0434224 1.45583
2 1 4.13794 0.185121 1.61632
3 1 4.24446 0.0522036 4.44791
4 1 1.32957 -0.000234925 4.19464
5 1 1.37096 2.79707 1.49223
6 1 4.19441 3.02705 1.30095
7 1 3.97893 2.80056 4.14116
8 1 1.16443 2.84549 4.34797
9 1 7.03714 2.80334 1.3719
10 1 9.75946 0.204707 1.22748
11 1 9.80492 0.120829 4.289
12 1 6.85808 2.83308 4.2733
13 1 6.83646 5.75943 1.30388
14 1 9.77954 2.8883 1.45909
15 1 9.68066 2.78351 4.2486
16 1 7.01297 5.40873 4.09357
17 1 12.4803 0.320548 1.45572
18 1 12.5321 0.0227849 4.09235
19 1 12.4703 3.02468 1.25119
20 1 12.5125 2.79082 4.21518
21 1 1.28441 5.6684 1.23831
22 1 4.00035 5.8563 1.3488
23 1 4.07224 5.72495 4.2286
24 1 1.15513 5.73297 4.06862
25 1 1.19475 8.55125 1.21586
26 1 4.09531 8.48784 1.25711
27 1 3.78063 11.434 4.00767
28 1 1.19315 8.5788 4.14492
15111 2 13.8832 12.6779 11.2664
30 1 9.80678 5.78975 1.16223
31 1 9.88365 5.57472 4.02137
32 1 6.38248 8.07141 5.88159
33 1 6.33798 9.88523 3.70603
34 1 9.97704 8.54574 1.28452
35 1 7.98446 7.80697 3.60336
36 1 6.24828 11.9879 5.26416
37 1 12.574 5.78623 1.23541
38 1 12.5906 5.63536 4.05319
39 1 12.7038 8.60557 1.26108
40 1 12.4451 8.4961 4.09382
41 1 1.22793 11.3369 1.22029
42 1 4.05949 11.2824 1.24971
43 1 6.80692 14.2212 4.13587
44 1 1.0873 11.5478 4.24829
45 1 1.2494 14.0939 1.39022
46 1 4.08486 14.1266 1.3648
47 1 3.98981 14.1402 4.13042
48 1 1.09233 14.2503 4.12569
49 1 3.8722 8.46408 4.2549
50 1 9.70102 11.5468 1.16359
51 1 9.75214 9.25352 4.33008
52 1 8.81831 11.5503 3.92273
53 1 6.79891 17.0131 3.95995
54 1 9.55465 14.3647 1.25372
55 1 12.5094 14.1671 3.91846
56 1 9.71293 14.2371 4.06737
57 1 12.4119 11.3057 1.23908
58 1 12.4848 11.3826 3.8003
59 1 12.4858 13.9963 1.07514
15051 2 13.8678 1.42862 5.62675
61 1 1.22423 17.0215 1.341
62 1 3.95942 16.9462 1.18179
63 1 4.05624 16.9866 4.08816
64 1 1.1969 17.1591 4.2028
65 1 1.23771 19.7266 1.33052
66 1 4.00565 19.669 1.31957
67 1 4.01818 19.7059 4.12446
68 1 1.27167 19.8461 4.21219
69 1 6.78651 16.9613 1.2286
70 1 9.56184 17.0683 1.26795
71 1 12.3573 16.9759 3.87492
72 1 9.69946 16.8082 4.11101
73 1 6.81498 19.7155 1.33161
74 1 9.62993 19.9342 1.15598
75 1 9.62355 19.6164 3.84213
76 1 6.8613 19.8317 4.06126
77 1 12.3479 17 1.05573
15116 2 13.7703 18.3978 11.3228
79 1 12.4501 19.7869 1.30992
15032 2 13.6988 15.6392 2.65037
81 1 1.08382 22.5101 1.37202
82 1 4.04753 22.5289 1.21538
83 1 4.13526 22.5468 4.07091
84 1 1.29001 22.6167 4.18233
85 1 6.76597 22.5451 1.12012
86 1 9.5382 22.6001 1.22492
87 1 9.8398 22.4495 4.01599
88 1 6.93529 22.6482 4.00406
15136 2 13.8471 9.92017 14.0247
15022 2 14.0032 9.91389 2.66829
91 1 1.14009 0.0601905 6.89528
92 1 3.80703 0.201105 7.51919
93 1 3.94478 2.72243 9.75538
94 1 1.34947 0.223558 9.62358
95 1 1.2886 2.985 7.01378
96 1 4.09772 2.83251 6.94352
97 1 6.87509 5.74448 9.8419
98 1 1.18316 2.99788 9.82369
99 1 6.82419 2.90623 7.01687
100 1 9.47048 0.176049 6.99533
101 1 9.40486 0.069545 9.94094
102 1 6.90795 2.82796 9.82335
103 1 6.81839 5.54947 7.02704
104 1 9.67657 2.84884 6.91407
105 1 9.66106 2.82548 9.79073
106 1 6.75675 5.71913 12.5001
107 1 12.4882 0.030929 6.8625
108 1 12.2993 0.245378 9.72923
109 1 12.4525 2.72587 7.01413
110 1 12.4095 3.03315 9.90185
111 1 1.11953 5.81896 6.9237
112 1 4.05696 5.69157 6.91326
113 1 4.00679 8.59472 9.84305
114 1 1.35166 5.79955 9.73693
115 1 1.03528 8.53954 6.96491
116 1 3.83068 8.54097 7.11499
117 1 6.38351 10.2332 7.37072
118 1 1.07476 8.54809 9.70243
119 1 9.07032 8.33439 7.01711
120 1 9.79782 5.65653 6.84736
121 1 9.68444 5.54865 9.69699
122 1 6.81649 8.48789 9.8245
123 1 8.81147 11.35 6.87754
124 1 12.4821 8.10626 6.89051
125 1 11.2938 10.4166 7.96936
126 2 8.38615 9.90328 8.66412
127 1 12.4302 5.46356 6.88673
128 1 12.472 5.67633 9.85091
12139 2 5.42088 12.7552 14.0142
130 1 12.7352 11.3326 9.94264
131 1 1.20269 11.2369 7.0974
132 1 3.77726 11.5319 6.89071
133 1 3.93829 11.5263 9.66558
134 1 1.10773 11.3445 9.83894
135 1 1.21466 14.1058 7.0178
136 1 4.05792 14.2866 6.85345
137 1 3.94944 14.1156 9.65464
138 1 1.26893 14.2629 9.79986
139 1 9.75169 14.3396 7.10917
140 1 10.8882 12.3539 5.73551
141 1 9.67797 11.35 9.81065
142 1 6.84365 11.3935 9.96229
143 1 6.93978 14.1456 7.08178
144 1 9.43977 17.0147 6.92923
145 1 9.77939 14.1585 9.71713
146 1 6.92409 14.1818 9.85548
147 1 12.696 13.9923 7.06836
148 1 12.582 14.1855 9.9069
149 1 12.2359 16.9885 6.90933
150 1 12.3561 16.9169 9.76954
151 1 1.12044 16.9266 7.05195
152 1 3.9005 17.004 7.02485
153 1 4.10242 17.0607 9.81294
154 1 1.35275 17.0371 9.80198
155 1 1.19576 19.788 6.9648
156 1 4.16751 19.7391 6.86149
157 1 3.98346 19.8393 9.85764
158 1 1.21851 19.7478 9.90319
159 1 6.72395 16.8112 6.88317
160 1 12.559 22.7708 4.31435
161 1 9.51319 17.0711 9.73172
162 1 6.80077 16.9326 9.79308
163 1 6.91349 19.6912 6.79588
164 1 9.63369 19.7197 6.91967
165 1 9.44759 19.925 9.84538
166 1 6.72629 19.8168 9.59525
241 1 9.64576 8.42611 12.6611
168 1 12.1467 19.6349 9.81619
169 1 12.3998 22.5988 7.08158
170 1 12.4371 22.3628 9.74902
171 1 1.29732 22.6325 6.81348
172 1 4.13301 22.6032 7.03053
173 1 4.07338 22.6725 9.73473
174 1 1.23659 22.5375 9.74492
175 1 6.86596 22.537 6.87112
176 1 9.68283 22.5182 6.84572
177 1 9.60306 22.6645 9.67236
178 1 6.84328 22.5323 9.68591
15071 2 13.7498 12.7674 5.24574
12006 2 8.37081 1.48146 -0.0181421
181 1 1.12294 0.291309 12.6454
182 1 4.0235 0.194606 12.2869
183 1 1.04209 3.18681 12.7056
184 1 4.08228 2.90236 12.5805
185 1 6.71183 0.0792782 12.7345
186 1 9.57504 0.122586 12.6292
187 1 6.63892 2.86755 12.6558
188 1 9.52796 2.88974 12.6817
189 1 12.55 0.152749 12.4521
190 1 12.5041 2.91153 12.5786
191 1 1.33508 5.71095 12.5404
192 1 4.12194 5.6971 9.74503
193 1 1.28531 8.59812 12.5551
194 1 3.98925 8.38076 12.6545
195 1 4.07851 5.63596 12.6654
196 1 9.63744 5.65436 12.4976
197 1 9.57761 8.43442 9.90677
198 1 12.4093 8.37562 9.80641
199 1 12.2976 5.75488 12.5054
200 1 12.5126 8.4554 12.6088
201 1 1.32949 11.4021 12.6373
202 1 4.07284 11.1411 12.5807
203 1 1.06867 14.2117 12.587
204 1 4.11333 14.2268 12.4053
205 1 6.76952 11.4117 12.7587
206 1 9.52378 11.3466 12.5862
207 1 6.86513 14.1424 12.6633
208 1 9.62578 14.1386 12.5662
209 1 12.4365 11.2802 12.6879
210 1 12.521 14.0539 12.5887
211 1 1.35374 16.9328 12.5514
212 1 4.21685 16.9425 12.6715
213 1 1.07326 19.7427 12.594
214 1 4.03824 19.7465 12.5613
215 1 6.88823 17.1058 12.7388
216 1 9.58049 16.9916 12.512
217 1 6.92516 19.9588 12.4761
218 1 9.60548 19.8034 12.5901
219 1 12.3511 17.031 12.5717
220 1 12.5359 19.8271 12.5805
221 1 1.23179 22.5099 12.564
222 1 4.04307 22.5214 12.5288
223 1 6.9909 22.5717 12.4595
224 1 9.75435 22.6464 12.4634
225 1 12.5617 22.64 12.5449
12125 2 11.0536 21.1605 11.1737
12110 2 11.0624 4.27435 11.296
15106 2 13.8503 6.9765 11.2231
12124 2 8.31332 23.9141 11.0362
80 1 12.5902 22.6321 1.23271
12109 2 8.2379 6.94661 11.2442
15062 2 13.793 4.28577 8.4075
12008 2 5.54651 1.53517 2.83908
243 1 6.90991 8.51666 12.5769
12010 2 11.2097 1.47239 2.87815
12123 2 5.4926 21.2523 11.1736
12108 2 5.40761 4.27267 11.3038
12013 2 2.57567 4.29013 2.83303
12122 2 2.52023 23.8844 11.1394
12107 2 2.68732 7.09469 11.0943
12112 2 2.64013 12.8146 11.1535
12017 2 8.3428 4.13442 2.72575
12018 2 5.5307 7.31426 2.88468
12104 2 8.16526 1.45117 11.2885
12020 2 11.1669 6.9213 2.5646
60 1 12.2893 19.7813 4.02272
15091 2 13.7729 24.2448 5.68521
12023 2 2.57256 9.80552 2.63791
12120 2 11.0994 15.4372 11.1491
12102 2 2.31929 1.61393 11.2696
12113 2 5.42767 9.79556 11.1868
12027 2 8.36936 9.81297 2.33942
12028 2 5.41823 12.625 2.87338
12100 2 11.0397 23.9012 8.33173
12030 2 11.0066 12.8147 2.68661
12099 2 11.1686 21.2852 5.45433
12098 2 5.51322 23.9085 8.20873
12033 2 2.65157 15.5197 2.74355
412 1 6.69701 14.0842 1.18614
12097 2 8.27117 21.2568 8.19849
12096 2 8.35044 23.9026 5.45331
12037 2 8.29586 15.5818 2.61433
12038 2 5.37941 18.2648 2.56104
12095 2 5.47282 21.1059 5.4606
12040 2 11.0622 18.3499 2.533
29 1 6.98991 8.50941 1.16301
12093 2 2.75282 21.0594 8.37133
12043 2 2.52129 20.9868 2.70297
5723 1 6.59079 0.046168 7.04278
12092 2 2.78379 23.9478 5.47442
5634 1 6.89176 0.116196 1.43134
12047 2 8.29356 21.1726 2.64375
12048 2 5.50921 23.9068 2.68706
12090 2 10.9544 18.442 8.36427
12050 2 11.1053 24.0877 2.65791
12119 2 8.11197 18.3839 11.021
12052 2 2.68166 1.41998 5.57702
15061 2 13.9289 6.93486 5.44775
12118 2 5.54827 15.5414 11.3171
5633 1 6.99334 0.125807 4.20982
12056 2 8.23927 1.58478 5.70082
5726 1 6.61531 0.0663922 9.9149
12058 2 5.51282 1.56429 8.34593
15121 2 13.7649 24.0476 11.0287
12060 2 10.9637 1.3975 8.31007
12117 2 2.72516 18.3057 11.2255
12062 2 2.50901 7.1419 5.61375
12063 2 2.714 4.27223 8.42068
12089 2 10.9803 15.5752 5.57893
12065 2 5.35031 4.27492 5.52622
12066 2 8.38558 6.6964 5.54071
12067 2 8.25737 4.24697 8.41413
12068 2 5.37468 7.21763 8.31954
12069 2 11.0847 4.17691 5.48246
12070 2 11.2246 6.95659 8.36524
12115 2 11.0129 9.73552 11.1144
12072 2 2.56485 12.8001 5.51048
12073 2 2.46451 9.94224 8.3891
12114 2 8.19759 12.692 11.2679
12075 2 4.83022 10.0314 5.54986
12076 2 8.4353 13.0984 5.51464
12077 2 7.90344 9.80887 5.42731
12078 2 5.46353 12.6384 8.36523
12079 2 11.4812 10.0425 5.58582
12080 2 11.1775 12.7237 8.29785
395 1 6.90508 11.1537 1.1696
12082 2 2.73937 18.4093 5.55527
12083 2 2.66041 15.5393 8.39596
15081 2 13.415 18.3844 5.44612
12085 2 5.4464 15.4936 5.53421
12086 2 8.27381 18.3738 5.45352
12087 2 8.21709 15.5227 8.38225
12088 2 5.44408 18.3038 8.25492
167 1 12.1972 19.7594 6.99014
15082 2 13.8613 15.8273 8.2984
15101 2 13.8416 1.57096 11.1935
12137 2 -0.170739 12.7571 14.0384
12014 2 -0.15675 7.19643 2.71292
129 1 13.5312 10.8654 6.49542
12019 2 11.1179 4.22687 -0.0966203
15072 2 13.6289 9.80418 8.43075
12015 2 5.52691 4.30824 0.051739
12002 2 2.84098 1.54188 0.0374516
12042 2 2.64323 23.972 -0.0273726
12140 2 10.975 12.6837 13.8822
12134 2 5.46309 7.08201 13.8846
12149 2 5.5432 23.9318 13.8402
12141 2 2.69558 15.6073 13.8976
226 1 3.99084 0.10733 15.4239
227 1 1.18685 0.160777 15.3787
228 1 4.05543 2.77313 15.3658
229 1 1.38458 2.91678 15.5755
230 1 9.74561 0.163173 15.3988
231 1 6.93073 -0.155415 15.5116
232 1 9.53412 2.87288 15.4463
233 1 6.74827 2.6749 15.3996
234 1 12.488 0.161719 15.4088
235 1 12.4011 2.87991 15.3699
236 1 4.17513 5.76412 15.4833
237 1 1.29108 5.79015 15.5299
238 1 3.99357 8.69844 15.3762
239 1 1.26513 8.5258 15.3124
240 1 9.60434 5.61288 15.3719
12016 2 8.32189 7.06043 28.0266
242 1 9.56946 8.45466 15.4612
5993 1 6.82278 0.110409 23.7164
244 1 12.4292 5.793 15.3737
245 1 12.3671 8.6502 15.1863
246 1 4.05858 11.448 15.3585
247 1 1.36843 11.4413 15.4297
248 1 4.03515 14.29 15.279
249 1 1.377 14.1068 15.3503
250 1 9.63363 11.3297 15.3398
251 1 6.90519 11.2438 15.4307
252 1 9.7438 14.1241 15.4292
253 1 6.82353 14.1439 15.2886
254 1 12.311 11.4355 15.4953
255 1 12.4487 14.2317 15.4403
256 1 3.98962 17.1383 15.4738
257 1 1.29194 16.9176 15.2628
258 1 4.00956 19.7936 15.3291
259 1 1.19638 19.796 15.4517
260 1 9.55514 16.9754 15.4102
261 1 6.86449 16.9769 15.5055
262 1 9.65183 19.9153 15.3114
263 1 6.78586 19.794 15.3158
264 1 12.4904 17.0523 15.2565
265 1 12.4494 19.7976 15.4655
266 1 4.01249 22.6251 15.2717
267 1 1.17589 22.6991 15.3868
268 1 9.83353 22.5889 15.3677
269 1 6.89675 22.6302 15.2974
270 1 12.4443 22.5413 15.3436
271 1 1.31881 0.197397 18.2277
272 1 3.98472 0.112837 18.2139
273 1 4.21892 0.116037 21.1102
274 1 1.25532 0.0781665 21.0677
275 1 1.22269 3.01326 18.2468
276 1 4.02326 3.029 18.1731
277 1 4.1173 2.9481 20.8819
278 1 1.35957 2.91464 21.0112
279 1 6.75836 3.02261 18.2871
280 1 9.48394 0.043199 18.2904
281 1 9.67153 0.0433746 20.9943
282 1 6.80282 2.97688 20.9723
283 1 6.85813 5.73591 18.1121
284 1 9.62024 2.9622 18.3488
285 1 9.71057 2.80724 21.0551
286 1 6.88623 5.70244 23.8533
287 1 12.339 0.0983384 18.2558
288 1 12.5506 0.189314 21.0429
289 1 12.432 2.85554 18.2269
290 1 12.5238 3.01159 21.0961
291 1 1.18144 5.85793 18.3936
292 1 4.05629 5.86274 18.175
293 1 4.05142 5.88431 20.9587
294 1 1.26705 5.61288 21.193
295 1 1.234 8.55692 18.183
296 1 4.00613 8.56004 18.2649
297 1 4.09239 8.44959 21.0124
298 1 1.16821 8.66563 20.8832
299 1 6.9447 5.53181 15.4221
300 1 9.70749 5.59132 18.3153
301 1 9.73012 5.48577 21.0826
302 1 6.73235 5.79299 20.9388
303 1 6.83928 8.50905 15.265
304 1 9.6026 8.3834 18.3199
305 1 9.72724 8.27735 21.0296
306 1 6.79546 8.5963 18.0882
307 1 12.5213 5.57559 18.0137
308 1 12.4964 5.75018 20.8845
309 1 12.5949 8.51797 17.9097
310 1 12.3856 8.56495 20.9159
311 1 1.19373 11.3285 18.1166
312 1 4.06962 11.2816 18.1007
313 1 4.08484 11.1685 20.9494
314 1 1.2823 11.3922 21.0319
315 1 1.3492 14.1571 18.1552
316 1 4.10724 14.1245 18.1958
317 1 3.9924 13.9867 21.0259
318 1 1.1571 14.2311 20.9275
319 1 6.93708 11.2344 18.2311
320 1 9.59443 11.2234 18.1676
321 1 9.62272 11.231 21.0029
322 1 6.76155 11.2808 21.0649
323 1 7.12645 14.2542 18.0992
324 1 9.85732 14.1637 18.1963
325 1 9.43723 14.1168 20.9672
326 1 6.59195 14.2254 20.8964
327 1 12.268 11.2041 18.248
328 1 12.4954 11.4994 20.9079
329 1 12.5078 14.0432 18.1624
330 1 12.5427 14.176 21.0299
331 1 1.20444 16.8836 18.1075
332 1 3.96131 16.9178 18.3202
333 1 4.06037 17.0316 21.0585
334 1 1.37229 17.0363 20.9846
335 1 1.12286 19.7323 18.3714
336 1 3.9456 19.6826 18.1985
337 1 4.1016 19.9818 21.0527
338 1 1.1228 19.8002 21.0855
339 1 6.84145 17.0354 18.1352
340 1 9.67771 17.0011 18.1708
341 1 9.8331 16.9918 20.8667
342 1 7.0432 16.8696 20.9637
343 1 6.76923 19.9259 18.0961
344 1 9.75443 19.6745 18.1087
345 1 9.67555 19.7725 20.797
346 1 6.79599 19.7555 20.8265
347 1 12.6087 16.8199 18.1635
348 1 12.3937 17.0595 20.9824
349 1 12.5673 19.7481 18.1928
350 1 12.5128 19.9484 21.0223
351 1 1.21986 22.5447 18.2742
352 1 3.9767 22.6429 18.1395
353 1 4.06266 22.6987 20.8969
354 1 1.34077 22.4971 20.9945
355 1 6.81396 22.624 18.2248
356 1 9.65714 22.5084 18.0805
357 1 9.72377 22.4774 20.7243
358 1 6.899 22.5193 21.0137
359 1 12.4368 22.5637 18.1288
360 1 12.5505 22.6646 20.9359
361 1 1.36314 0.13845 23.8105
362 1 4.04629 0.133481 23.8208
363 1 3.99595 0.151653 26.5593
364 1 1.33836 0.0300009 26.7346
365 1 1.21438 2.91111 23.9555
366 1 4.1536 2.95561 23.724
367 1 4.00485 2.81596 26.6193
368 1 1.30977 2.96268 26.7827
369 1 6.97183 2.97083 23.8441
370 1 9.7541 0.16609 23.7291
371 1 9.68449 0.182055 26.4643
372 1 6.79947 2.71614 26.6984
373 1 6.89149 5.54562 26.5659
374 1 9.71771 3.01605 23.8981
375 1 9.60048 2.88222 26.7805
376 1 9.72234 5.61262 26.618
377 1 12.446 0.0942429 23.8171
378 1 12.5242 0.118574 26.6011
379 1 12.4944 3.00934 23.8158
380 1 12.4102 2.82621 26.6004
381 1 1.167 5.6623 23.8385
382 1 4.07184 5.67237 23.7595
383 1 4.03051 5.71075 26.7511
384 1 1.37556 5.7003 26.5782
385 1 1.29356 8.34399 23.7552
386 1 3.92955 8.47535 23.812
387 1 4.02708 8.56822 26.5547
388 1 1.31526 8.641 26.5236
389 1 6.93398 8.48778 23.719
390 1 9.72197 5.82989 23.8532
391 1 9.75238 8.63721 26.6101
392 1 6.95719 8.21891 26.5193
393 1 6.85646 8.52811 20.922
394 1 9.81614 8.47776 23.8042
12133 2 8.17762 4.19876 13.9685
396 1 6.79474 11.0798 26.6008
397 1 12.3476 5.89178 23.7451
398 1 12.444 5.71417 26.5888
399 1 12.5538 8.62202 23.7668
400 1 12.5977 8.51356 26.5482
401 1 1.17458 11.2962 23.6216
402 1 3.92843 11.379 23.704
403 1 3.93137 11.3496 26.484
404 1 1.13757 11.4426 26.3878
405 1 1.22147 14.0662 23.7768
406 1 3.91442 14.3053 23.7699
407 1 3.9227 14.1654 26.541
408 1 1.13274 14.2439 26.5811
409 1 7.01933 11.3512 23.8741
410 1 9.70407 11.4423 23.7056
411 1 9.60022 11.3767 26.5282
15221 2 13.9995 12.6674 22.3131
413 1 6.82739 14.1625 23.7489
414 1 9.7605 14.1992 23.9498
415 1 9.60741 14.1938 26.6163
416 1 6.80006 14.0447 26.4368
417 1 12.5144 11.2924 23.7326
418 1 12.4161 11.2534 26.5244
419 1 12.5704 14.0436 23.741
420 1 12.4363 14.2456 26.6353
421 1 1.22075 16.9875 23.8127
422 1 4.06096 17.1394 23.7811
423 1 3.99627 17.0122 26.4117
424 1 1.27042 16.9323 26.6422
425 1 1.22313 19.696 23.7286
426 1 3.99295 19.8907 23.7387
427 1 4.08026 19.7371 26.6338
428 1 1.15676 19.8952 26.5996
429 1 6.81883 17.0198 23.7147
430 1 9.63668 17.0639 23.7423
431 1 9.70034 17.0679 26.5422
432 1 6.70597 16.9107 26.59
433 1 6.93698 19.8401 23.5871
434 1 9.63227 19.8206 23.6031
435 1 9.69574 19.7628 26.5326
436 1 6.88794 19.7176 26.4096
437 1 12.4524 16.8786 23.7841
438 1 12.3843 17.0631 26.4181
439 1 12.4394 19.8205 23.66
440 1 12.5979 19.8236 26.4631
441 1 1.31926 22.6272 23.8819
442 1 4.01533 22.7377 23.6659
443 1 4.03539 22.5847 26.5612
444 1 1.14574 22.5999 26.6547
445 1 6.88146 22.6364 23.7261
446 1 9.75216 22.5831 23.7061
447 1 9.7177 22.6111 26.5892
448 1 6.8856 22.6548 26.3998
449 1 12.5522 22.6264 23.7922
450 1 12.5321 22.6558 26.605
12026 2 8.12964 12.7124 27.8979
12250 2 11.1362 24.05 25.275
15151 2 13.8466 1.62244 16.8469
15242 2 13.938 21.1988 25.119
5906 1 6.9898 0.148001 21.0039
15171 2 13.8102 12.6648 16.8522
12249 2 11.1235 21.2109 22.3093
15212 2 13.8363 4.44595 25.1038
15232 2 13.9555 15.4095 25.1138
15211 2 13.9261 7.13898 22.3575
15191 2 13.8552 23.883 16.6312
12248 2 5.44347 24.0062 25.0375
12022 2 2.75458 12.6693 28.0224
15172 2 13.7468 9.845 19.5298
15222 2 13.8825 9.90626 25.143
15162 2 13.8295 4.22855 19.6222
15161 2 13.871 7.05793 16.7384
15131 2 13.8096 4.33352 13.9155
12220 2 11.1413 7.17119 25.1946
12146 2 2.57664 21.0573 13.9637
12232 2 2.69391 18.449 22.4038
12216 2 8.36973 7.01559 22.4563
5903 1 6.62046 0.0693539 18.2294
12219 2 11.0683 4.29435 22.5107
12218 2 5.4065 7.04682 25.1608
12247 2 8.19429 21.2156 25.0027
12152 2 2.67818 1.54274 16.8396
12227 2 8.32035 9.83918 25.1626
12246 2 8.39786 23.862 22.282
12230 2 11.0672 12.7493 25.1865
12156 2 8.22922 1.39108 16.9061
12229 2 10.9964 9.76016 22.389
12158 2 5.52303 1.53233 19.6335
12217 2 8.26601 4.37996 25.3046
12160 2 11.0225 1.44931 19.5882
12245 2 5.3981 21.2713 22.3721
12162 2 2.58954 7.28674 16.8757
12163 2 2.64494 4.39822 19.6287
12228 2 5.4607 12.6657 25.0323
12165 2 5.47568 4.34452 16.8031
12166 2 8.31114 6.9747 16.689
12167 2 8.26305 4.27044 19.6771
12168 2 5.46545 7.14637 19.5573
12169 2 11.0413 4.23681 16.7159
12170 2 11.0439 6.98676 19.5829
12243 2 2.67685 21.2295 25.2454
12172 2 2.68555 12.8144 16.7599
12173 2 2.68078 10.0285 19.5739
12242 2 2.66789 23.9159 22.2468
12175 2 5.43464 9.91292 16.7651
12176 2 8.34969 12.8029 16.6494
12177 2 8.24113 9.77987 19.6272
12178 2 5.5281 12.7044 19.5124
12179 2 11.0146 9.95081 16.7575
12180 2 11.0343 12.7345 19.5594
12236 2 8.32256 18.3538 22.314
12182 2 2.54567 18.3519 16.7671
12183 2 2.63443 15.4872 19.6282
12223 2 2.52883 9.94673 25.0148
12185 2 5.46139 15.6392 16.878
12186 2 8.28877 18.3171 16.6835
12187 2 8.28408 15.6312 19.6141
12188 2 5.51023 18.3598 19.5134
12189 2 11.1524 15.5418 16.7303
12190 2 11.1655 18.3877 19.4948
12226 2 8.2316 12.6587 22.3956
12192 2 2.59566 23.9054 16.6396
12193 2 2.57862 21.1689 19.5393
12225 2 5.4767 9.78336 22.3899
12195 2 5.32441 21.2242 16.6932
12196 2 8.31665 23.8775 16.7619
12197 2 8.24001 21.1267 19.5148
12198 2 5.50822 23.9663 19.5233
12199 2 11.1161 21.1132 16.8418
12200 2 11.1568 23.959 19.5585
12240 2 11.04 18.3746 25.1299
12202 2 2.74983 1.54463 22.3769
5996 1 6.68564 0.0571377 26.6296
12239 2 11.0516 15.5783 22.2829
12222 2 2.58118 12.6734 22.3747
12206 2 8.34638 1.53745 22.4259
12235 2 5.37435 15.5706 22.3731
12208 2 5.32317 1.45448 25.1941
12233 2 2.58075 15.6052 25.0928
12210 2 11.0254 1.53813 25.2932
12238 2 5.46277 18.395 25.0499
12212 2 2.68001 7.07362 22.3491
12213 2 2.63748 4.34429 25.1815
12237 2 8.22614 15.5396 25.2281
12215 2 5.5832 4.30023 22.335
12039 2 10.9773 15.5679 27.9735
12032 2 2.6564 18.2595 28.0036
12136 2 2.70538 10.0175 13.9794
12234 2 -0.161653 18.3984 25.2549
12036 2 8.18247 18.3471 27.926
12046 2 8.25892 23.9954 27.9066
12145 2 10.9465 18.4797 13.8798
12244 2 -0.0948139 24.0237 25.252
12045 2 5.43837 21.0835 27.9574
12130 2 11.0417 1.34 13.9708
15141 2 13.8764 15.5402 14.0028
15146 2 13.8386 21.1669 13.9487
15241 2 13.8594 24.1266 22.3656
12029 2 11.2246 9.94374 27.9649
12150 2 11.0848 23.9379 13.8464
12148 2 8.31476 21.186 14.0079
12025 2 5.4087 9.83566 27.8639
15031 2 13.8286 18.3147 27.706
12035 2 5.22929 15.5482 27.9022
12012 2 2.57398 7.11176 27.9343
12049 2 11.1333 21.2018 27.8563
15001 2 13.9263 1.46046 28.0237
15021 2 13.8909 12.7078 27.9341
12144 2 5.53082 18.4569 14.0125
12129 2 5.43839 1.39868 14.0612
12131 2 2.74936 4.42776 14.1796
12135 2 11.0046 7.18123 13.9968
12138 2 8.14414 9.87181 14.0184
12143 2 8.25774 15.5213 13.996
451 1 1.23774 25.4007 1.35311
452 1 3.95429 25.4298 1.20744
453 1 4.12696 25.4205 4.15323
454 1 1.26682 25.3627 3.95697
455 1 6.67258 25.4252 1.24314
456 1 9.59923 25.4737 1.26431
457 1 9.52748 25.3323 4.11189
458 1 6.79357 25.4781 3.98479
459 1 12.8969 30.8702 1.41641
460 1 12.4093 28.2084 4.14722
461 1 1.18953 28.2988 1.41595
462 1 4.13422 28.2444 1.2018
463 1 4.01928 28.2238 3.97971
464 1 1.3634 28.3211 4.20657
465 1 1.24651 31.1311 1.16956
466 1 4.07443 30.9631 1.26913
467 1 4.0133 31.1887 3.96778
468 1 1.19499 31.1328 4.01259
469 1 6.78875 28.2546 1.20654
470 1 9.52223 28.0094 1.19331
471 1 9.72687 28.2443 3.93722
472 1 6.90799 28.3258 4.09022
473 1 7.14465 31.1123 1.2324
12299 2 -0.0248308 29.7608 8.22107
475 1 9.68254 30.7951 4.16942
476 1 6.73464 31.0221 4.10436
477 1 9.87677 30.725 0.981466
478 1 10.9023 32.5875 2.56193
479 2 11.4459 32.1745 0.267336
480 1 9.49634 33.9017 0.835484
481 1 1.14948 34.4004 1.51337
482 1 3.94449 33.6004 1.18752
483 1 3.78702 34.0573 4.13919
484 1 1.01142 34.0338 4.18468
485 2 1.43762 36.6096 0.970843
486 1 3.38344 36.369 2.0105
487 1 4.12061 36.8414 4.47344
488 1 0.905246 36.7428 3.66879
489 1 6.6132 33.9703 1.39921
904 1 1.30639 50.8093 4.20962
491 1 9.62931 33.8262 4.48872
492 1 6.77748 33.8987 4.13478
493 1 6.37878 36.7808 1.63645
494 1 9.43433 36.5046 1.42124
495 1 9.79674 36.596 4.1942
496 1 7.02684 36.7396 4.30372
497 1 12.6423 33.9313 1.2845
498 1 12.5939 33.9344 4.27176
499 1 12.2499 36.7324 1.48795
500 1 12.5165 36.6163 4.34195
501 1 1.3292 38.8061 1.41564
502 1 4.02977 39.549 1.40079
503 1 4.09993 39.6017 4.34171
504 1 1.09548 39.4742 4.15827
505 1 1.32406 41.7181 1.20282
506 1 4.09426 42.3323 1.41639
507 1 4.04502 42.3448 4.17801
508 1 1.41484 42.2947 4.07232
509 1 6.87086 39.7395 1.31824
510 1 9.68919 39.4893 1.38774
511 1 9.51159 39.4233 4.22975
512 1 6.84456 39.4969 4.22621
513 1 6.81266 42.5136 1.26984
514 1 9.71539 42.2695 1.2107
515 1 9.60242 42.3387 4.06169
516 1 6.84491 42.447 4.3096
517 1 12.5854 39.4125 1.25505
518 1 12.465 39.456 4.07445
519 1 12.6617 42.4438 1.23857
520 1 12.629 42.2155 4.09274
521 1 1.25861 44.9738 1.22555
522 1 4.04714 45.1042 1.16028
523 1 4.12198 45.1576 3.97735
524 1 1.33108 45.2933 3.97358
525 1 1.34743 47.8484 1.33473
526 1 4.10316 47.9105 1.22435
527 1 3.9253 47.96 4.1194
528 1 1.16339 47.908 4.10385
529 1 6.88224 45.3415 1.07017
530 1 9.80239 45.0266 1.24622
531 1 9.72418 45.2341 3.97672
532 1 6.97376 45.3593 3.91465
533 1 6.92715 48.0667 1.18094
534 1 9.49662 48.083 1.1776
535 1 9.66918 48.0073 3.99053
536 1 6.83493 47.9657 4.08061
537 1 12.6963 45.1055 1.21586
538 1 12.5668 45.1353 4.15436
539 1 12.4726 47.8991 1.33922
540 1 12.4581 47.8205 4.01348
541 1 1.02417 25.6454 7.15635
542 1 4.075 25.4016 6.99581
543 1 4.0362 25.4075 9.67096
544 1 1.13328 25.4734 9.70817
545 1 7.04052 25.1525 6.72793
546 1 9.77505 25.3929 6.84549
547 1 9.58197 25.4241 9.70663
548 1 6.76193 25.3792 9.52299
549 1 12.3948 28.3355 6.78188
550 1 12.2929 25.3462 9.82501
551 1 1.28657 28.4414 6.96189
552 1 4.09603 28.2459 6.79965
553 1 4.16121 28.1128 9.7735
554 1 1.3366 28.2922 9.75402
555 1 1.35562 31.2834 6.80778
556 1 4.01269 31.0518 6.88315
557 1 4.2051 31.0564 9.67661
558 1 1.39602 30.9797 9.74849
559 1 6.84267 28.0098 6.91749
560 1 9.43172 28.1343 6.81977
561 1 9.57565 28.1121 9.49908
562 1 6.82973 28.1341 9.69603
563 1 6.88066 30.9398 6.8635
564 1 9.82503 30.9895 6.83089
565 1 9.48903 31.0516 9.74495
566 1 6.83835 31.0591 9.71701
567 1 12.6609 30.9982 7.09223
568 1 12.3961 28.2748 9.62171
90 1 12.5684 25.5177 1.15528
570 1 12.3767 31.1124 9.85745
571 1 1.24168 34.0401 7.06451
572 1 4.05612 33.9295 6.85156
573 1 4.03231 34.0127 9.78207
574 1 1.24379 33.9514 9.8445
575 1 1.05343 36.7382 6.5508
576 1 3.82802 36.6957 7.13952
577 1 4.05537 36.8617 9.83965
578 1 1.20639 36.7745 9.68294
579 1 6.86398 33.8822 6.84512
580 1 9.69234 33.8421 7.10203
581 1 9.73488 33.8271 9.80597
582 1 6.89676 34.019 9.85478
583 1 6.77889 36.6863 7.06555
584 1 9.70772 36.708 6.98861
585 1 9.61349 36.4709 9.87057
586 1 6.87678 36.801 9.87559
587 1 12.4045 33.9038 6.96163
588 1 12.5179 33.9967 9.81643
589 1 12.354 36.6514 7.09251
590 1 12.4847 36.6689 9.88843
591 1 1.31063 39.3728 6.82585
592 1 4.1599 39.7408 7.17166
593 1 4.09258 39.5377 9.98918
594 1 1.30362 39.5984 9.6648
595 1 1.26752 42.1552 6.9874
596 1 4.18183 42.3826 6.99189
597 1 4.17881 42.4604 9.82366
598 1 1.29274 42.2622 9.79161
599 1 6.7991 39.535 7.11837
600 1 9.61263 39.5598 7.1491
601 1 9.69794 39.2799 9.7722
602 1 6.88524 39.5896 9.86181
603 1 6.8968 42.3379 7.06551
604 1 9.90253 42.3842 6.88759
605 1 9.64919 42.2841 9.66194
606 1 6.89822 42.3914 9.82076
607 1 12.5518 39.5733 6.94053
608 1 12.4889 39.4453 9.78998
609 1 12.5686 42.3432 6.92979
610 1 12.6096 42.39 9.73672
611 1 1.19686 44.996 6.83008
612 1 4.03622 45.2218 6.77846
613 1 4.19695 45.1779 9.59852
614 1 1.46242 45.139 9.69373
615 1 1.36138 47.9612 7.11275
616 1 4.18761 47.9493 6.92901
617 1 4.2135 48.0092 9.76605
618 1 1.44441 47.9917 9.89777
619 1 6.85031 45.1682 6.98172
620 1 9.67867 45.167 6.82267
621 1 9.97156 45.209 9.76052
622 1 7.00824 45.2082 9.70481
623 1 6.92165 47.9787 6.88997
624 1 9.73775 47.9715 6.77236
625 1 9.65778 47.7452 9.64261
626 1 7.06427 47.8787 9.862
627 1 12.4685 45.0992 7.05184
628 1 12.6002 45.2131 9.75184
629 1 12.5649 48.0067 6.83109
630 1 12.5426 48.0298 9.61441
631 1 1.21228 25.209 12.5458
632 1 4.03797 25.2497 12.4966
633 1 6.81738 25.4893 12.4961
634 1 9.65606 25.5393 12.4995
635 1 12.5737 25.4825 12.5258
636 1 1.42275 28.2167 12.5194
637 1 4.08185 28.1194 12.6747
638 1 1.35227 31.0783 12.5945
639 1 4.08856 31.0179 12.5504
640 1 6.78082 28.2296 12.3947
641 1 9.5784 28.3738 12.4207
642 1 6.92871 30.946 12.7081
643 1 9.63384 30.9956 12.5417
644 1 12.5602 28.1811 12.4602
645 1 12.4331 30.9905 12.5551
646 1 1.33071 34.0324 12.6699
647 1 4.11968 33.8089 12.5778
648 1 1.35698 36.6962 12.5601
649 1 4.07755 36.6787 12.6797
650 1 6.81183 33.7412 12.713
651 1 9.6793 33.8018 12.7744
652 1 6.87098 36.8803 12.6924
653 1 9.60696 36.6409 12.5915
654 1 12.4348 33.7382 12.6319
655 1 12.3932 36.7198 12.7079
656 1 1.28553 39.499 12.6661
657 1 4.15874 39.5015 12.7869
658 1 1.14785 42.341 12.6425
659 1 4.02329 42.483 12.5345
660 1 7.12362 39.6699 12.7474
661 1 9.82443 39.5322 12.7557
662 1 7.12014 42.421 12.5434
663 1 9.77242 42.1746 12.5741
664 1 12.6599 39.4443 12.5525
665 1 12.5229 42.3106 12.5693
666 1 1.32475 45.1213 12.5966
667 1 4.2389 45.1489 12.4979
668 1 1.40021 47.8254 12.6544
669 1 4.22995 48.0182 12.5284
670 1 6.97949 45.1333 12.5563
671 1 9.83679 45.0652 12.5445
672 1 6.88752 47.9184 12.5522
673 1 9.67966 47.7316 12.6423
674 1 12.6125 45.241 12.492
675 1 12.5102 47.9926 12.3908
12363 2 11.1362 49.3338 11.0237
89 1 12.431 28.308 1.42779
12253 2 2.68556 26.8254 2.68967
12362 2 5.54732 49.3969 11.0766
1101 1 1.50738 50.8087 12.6069
180 1 12.3666 25.6449 7.15233
12257 2 8.23956 26.8696 2.61089
12258 2 5.46642 29.6926 2.57271
15282 2 13.8663 43.725 2.74346
12260 2 11.1935 29.7559 2.80094
12360 2 11.2187 43.7176 11.1588
15316 2 13.9093 40.9621 5.43731
12263 2 2.57051 32.5215 2.6912
12359 2 8.35491 46.6132 11.1094
910 1 9.7041 50.7216 1.30155
12329 2 -0.0191872 46.5509 8.36477
12267 2 8.48958 32.4312 2.75025
12268 2 5.277 35.3443 3.00732
12345 2 10.9829 27.0211 11.0495
12270 2 11.0984 35.0775 2.86328
12358 2 5.64491 43.7888 11.158
12344 2 8.15976 29.6268 11.1894
12273 2 2.83812 38.2538 3.30653
12357 2 2.78143 46.5149 11.1643
12343 2 5.43621 26.6469 11.1097
179 1 12.3088 25.4241 4.06361
12277 2 8.17946 38.0424 2.80515
12278 2 5.41022 41.0746 2.80175
15296 2 13.8948 29.6865 5.519
12280 2 11.0505 40.7814 2.79253
12355 2 11.0949 38.0774 11.1816
12361 2 0.0243234 49.3273 11.2068
12283 2 2.69611 43.7524 2.65282
12354 2 8.38626 40.817 11.1817
12351 2 -0.124586 38.1457 11.1427
1003 1 4.27121 50.8801 9.62109
12287 2 8.34315 43.7441 2.60449
12288 2 5.45701 46.6828 2.59286
15351 2 14.0981 40.9581 11.1903
12290 2 11.0168 46.5845 2.58014
12353 2 5.55541 38.2351 11.2108
12292 2 2.71809 49.3014 2.77381
902 1 4.22508 50.6644 1.37329
12294 2 8.35541 49.4041 2.60617
15306 2 13.8945 35.3274 5.63923
12285 2 5.49795 43.6946 -0.121173
12297 2 2.65716 29.6938 5.54031
12298 2 2.70166 26.7883 8.41911
12346 2 0.023079 32.4765 11.248
12300 2 5.62321 26.8421 5.43681
12301 2 8.30939 29.6227 5.48347
12302 2 8.35102 26.6615 8.24417
12303 2 5.52228 29.4819 8.26465
12304 2 11.0002 26.8928 5.54781
12305 2 11.1406 29.6219 8.21884
12352 2 2.57851 40.9718 11.2567
12307 2 2.55188 35.2473 5.56838
12308 2 2.72107 32.4817 8.32197
569 1 12.7133 31.1491 4.26573
12310 2 5.41672 32.3479 5.57076
12311 2 8.31051 35.2102 5.71982
12312 2 8.33605 32.5043 8.38631
12313 2 5.46266 35.3047 8.4266
12314 2 11.0712 32.5782 5.56632
12315 2 11.1003 35.3505 8.50399
12266 2 7.66338 35.5582 0.150958
12317 2 2.70035 40.9792 5.64828
12318 2 2.71068 38.2704 8.48788
12350 2 10.9924 32.3341 11.1147
12320 2 5.52338 38.203 5.73066
12321 2 8.31043 41.0629 5.68038
12322 2 8.27998 38.1172 8.29638
12323 2 5.52857 41.0565 8.47976
12324 2 11.1043 38.1751 5.66452
12325 2 11.1794 40.9431 8.29756
12349 2 8.33097 35.2343 11.2721
12327 2 2.6391 46.5403 5.42294
12328 2 2.6803 43.7373 8.33392
12348 2 5.51377 32.408 11.1081
12330 2 5.50988 43.8361 5.49111
12331 2 8.36698 46.6339 5.3579
12332 2 8.43499 43.7728 8.4905