ITEM: TIMESTEP
95000
ITEM: NUMBER OF ATOMS
18000
ITEM: BOX BOUNDS xy xz yz pp pp pp
-1.0084830689043117e-01 2.7994848306890649e+01 0.0000000000000000e+00
-1.2006528622020152e+00 3.3592865286220427e+02 0.0000000000000000e+00
-9.9972664493029953e-02 2.7993972664493100e+01 0.0000000000000000e+00
ITEM: ATOMS id type x y z
1 1 1.27791 0.185385 1.24004
2 1 4.07417 0.117546 1.40517
3 1 4.10383 -0.00371421 4.28118
4 1 1.28231 0.068249 4.10766
5 1 1.32391 2.96922 1.25273
6 1 4.05757 2.93369 1.36361
7 1 4.0035 2.71056 4.13369
8 1 1.2307 2.75075 4.11402
9 1 6.80259 2.83322 1.27104
10 1 9.73344 0.115522 1.36795
11 1 9.59152 0.0967204 4.07627
12 1 6.87692 2.73171 4.1292
13 1 7.05942 5.53756 1.26547
14 1 9.71402 2.80086 1.34017
15 1 9.69215 2.88309 4.09117
16 1 6.84645 5.36429 4.0478
17 1 12.5673 0.0686233 1.36549
18 1 12.4447 0.00656965 4.06202
19 1 12.4997 2.91722 1.3011
20 1 12.8095 2.76749 3.99402
21 1 1.22366 5.65048 1.31305
22 1 4.16625 5.68222 1.41811
23 1 3.94698 5.61438 4.37442
24 1 1.16598 5.65833 4.07177
25 1 1.25593 8.46491 1.1869
26 1 4.20074 8.48859 1.43716
27 1 3.85202 11.3196 4.27078
28 1 1.05082 8.57791 4.03645
15121 2 14.0286 23.8223 11.184
30 1 9.71146 5.69849 1.48213
31 1 9.83327 5.78371 4.16114
32 1 6.39126 8.04931 5.91562
33 1 6.27856 10.0365 3.58502
34 1 9.87978 8.48764 1.07231
35 1 7.77105 7.89079 3.73579
36 1 6.6404 11.9058 5.50323
37 1 12.431 5.72347 1.2902
38 1 12.5654 5.59073 3.93677
39 1 12.5797 8.40386 1.30732
40 1 12.5963 8.4628 4.05742
41 1 1.25011 11.3146 1.27494
42 1 4.09919 11.257 1.18472
43 1 6.89197 14.2551 4.13761
44 1 1.04983 11.4022 4.10502
45 1 1.2904 14.1498 1.57824
46 1 4.11386 14.0721 1.34897
47 1 4.10162 14.2481 4.19822
48 1 1.21397 14.1456 4.18206
49 1 3.86795 8.40534 4.16767
50 1 9.92781 11.208 1.20152
51 1 9.82299 9.19289 4.16856
52 1 8.81688 11.6756 3.85821
53 1 6.94608 17.0244 4.09086
54 1 9.57667 14.14 1.32276
55 1 12.4856 14.2218 3.94504
56 1 9.68729 14.3213 4.04883
57 1 12.6183 11.2245 1.07476
58 1 12.5832 11.3151 3.7456
59 1 12.3966 13.9818 1.27817
12139 2 5.45069 12.6226 14.0281
61 1 1.40301 16.8449 1.34454
62 1 4.17646 16.9344 1.31474
63 1 4.0779 16.8727 4.10164
64 1 1.3217 16.9404 4.17795
65 1 1.38309 19.6009 1.36671
66 1 4.11718 19.6958 1.3019
67 1 4.26074 19.7903 4.19119
68 1 1.37958 19.6705 4.25294
69 1 7.06539 16.9506 1.2922
70 1 10.0272 17.0143 1.14636
71 1 12.4561 17.1375 4.00438
72 1 9.78758 16.947 4.09896
73 1 7.11721 19.8099 1.20974
74 1 9.84851 19.8215 1.17237
75 1 9.7539 19.7412 3.92692
76 1 6.96081 19.6751 3.9632
77 1 12.5502 16.9052 1.15454
12141 2 2.76944 15.467 14.0788
79 1 12.7169 19.7052 1.28483
12121 2 -0.010985 20.9958 11.1676
81 1 1.36415 22.441 1.35497
82 1 4.12636 22.5119 1.34921
83 1 4.1847 22.5421 4.27034
84 1 1.23033 22.4913 4.08727
85 1 6.94434 22.4359 1.2865
86 1 9.89461 22.4525 1.36506
87 1 9.85817 22.687 4.18254
88 1 6.8676 22.6905 4.08726
15101 2 13.9796 1.3948 10.9974
12071 2 -0.231429 9.97559 5.52363
91 1 1.34857 0.259887 6.99628
92 1 4.13508 -0.048137 7.24318
93 1 4.15154 2.66969 9.69692
94 1 1.56823 0.182891 9.64466
95 1 1.17337 3.04631 7.07127
96 1 4.04988 2.7749 6.80541
97 1 6.98097 5.6757 9.71472
98 1 1.30268 3.02597 9.8903
99 1 6.98458 2.8546 6.99486
100 1 9.71821 0.0547028 6.82775
101 1 9.61146 -0.061653 9.59115
102 1 6.96193 2.81364 9.87541
103 1 6.85084 5.58766 7.03683
104 1 9.78461 2.87148 6.70705
105 1 9.67262 2.85056 9.55537
106 1 7.02868 5.56666 12.547
107 1 12.6671 -0.0023203 6.82723
108 1 12.6371 0.107583 9.61707
109 1 12.5647 2.83856 6.92714
110 1 12.4425 2.9917 9.70435
111 1 1.14095 5.64945 6.85532
112 1 4.05126 5.63712 7.2317
113 1 3.94429 8.22258 9.76271
114 1 1.4057 5.61757 9.77883
115 1 1.08479 8.50938 6.74599
116 1 3.79608 8.44047 6.93806
117 1 6.49813 10.0843 7.5047
118 1 1.1242 8.46071 9.65024
119 1 9.27561 8.42443 6.99254
120 1 9.64421 5.55206 6.93345
121 1 9.78737 5.60529 9.83978
122 1 6.85833 8.32139 9.78788
123 1 8.62971 11.6762 7.38725
124 1 12.5937 8.19218 6.99589
125 1 10.9673 10.2592 7.94171
126 2 8.41601 9.88078 8.82042
127 1 12.4389 5.59704 6.86693
128 1 12.4748 5.74561 9.73336
12044 2 -0.0828297 23.958 2.78997
130 1 12.5163 11.2901 9.71344
131 1 1.15397 11.3235 7.09595
132 1 3.75741 11.1259 6.99384
133 1 4.13925 11.0208 9.85225
134 1 1.37631 11.2778 9.96844
135 1 1.29365 14.1389 7.13286
136 1 4.20045 14.0028 6.95
137 1 4.2769 13.9608 9.81448
138 1 1.29703 14.0574 9.792
139 1 9.71538 14.3917 7.14682
140 1 11.0832 12.2625 5.75959
141 1 9.68417 11.2006 10.0562
142 1 6.8862 11.2077 9.88618
143 1 6.96117 14.1188 7.16074
144 1 9.71989 17.0208 6.83319
145 1 9.81527 13.9425 9.96147
146 1 7.03019 13.892 10.0114
147 1 12.6155 14.0605 7.02613
148 1 12.5543 14.1306 9.70068
149 1 12.5865 16.9267 7.05847
150 1 12.5422 16.7737 9.64242
151 1 1.45703 16.9928 6.9457
152 1 4.06866 16.83 6.97118
153 1 4.12276 16.8552 9.79577
154 1 1.32685 16.7843 9.62719
155 1 1.36377 19.8544 7.03059
156 1 4.06594 19.7473 6.87283
157 1 4.18056 19.6985 9.72962
158 1 1.4303 19.685 9.72627
159 1 6.99412 16.8461 6.93233
160 1 12.6377 22.5392 4.16586
161 1 9.82974 16.7452 9.66048
162 1 7.03066 16.8866 9.93134
163 1 7.07117 19.7396 6.82601
164 1 9.87987 19.6776 6.79088
165 1 9.74655 19.5869 9.69268
166 1 6.89149 19.7451 9.55322
241 1 9.79466 8.47389 12.5127
168 1 12.4937 19.5184 9.77795
169 1 12.6326 22.6037 6.92006
170 1 12.5264 22.3253 9.66104
171 1 1.37121 22.6212 6.90322
172 1 4.21582 22.6142 7.02535
173 1 4.20865 22.4787 9.71893
174 1 1.40772 22.6152 9.86381
175 1 7.03912 22.6044 6.93449
176 1 9.73184 22.5803 6.89907
177 1 9.83136 22.4594 9.7063
178 1 7.11954 22.6059 9.65991
12134 2 5.53029 7.06703 14.055
15071 2 13.7323 12.878 5.28297
181 1 1.33006 0.228205 12.4637
182 1 4.06128 -0.00576825 12.2173
183 1 1.3501 2.92136 12.7407
184 1 4.23904 2.81986 12.5129
185 1 6.90993 -0.0823227 12.4892
186 1 9.73302 -0.0998052 12.443
187 1 6.88732 2.61889 12.4948
188 1 9.72187 2.80441 12.3555
189 1 12.6398 -0.0870264 12.4628
190 1 12.4735 2.85114 12.5734
191 1 1.20368 5.6517 12.6794
192 1 4.10276 5.51732 9.97875
193 1 1.48661 8.35032 12.526
194 1 4.20908 8.39593 12.6296
195 1 4.21104 5.57486 12.7852
196 1 9.69612 5.59845 12.6677
197 1 9.71879 8.41768 9.92907
198 1 12.5554 8.41268 9.84951
199 1 12.3233 5.59221 12.5904
200 1 12.4736 8.36413 12.5465
201 1 1.30692 11.2167 12.6979
202 1 4.08719 11.2568 12.6726
203 1 1.34085 14.1733 12.4699
204 1 4.17686 14.2163 12.6578
205 1 6.92379 11.322 12.6418
206 1 9.77078 11.4191 12.87
207 1 6.859 14.0136 12.7531
208 1 9.84344 14.1997 12.6614
209 1 12.621 11.2095 12.4344
210 1 12.4835 13.9462 12.6743
211 1 1.46936 16.8761 12.6131
212 1 4.25954 17.0296 12.5117
213 1 1.54396 19.8019 12.6314
214 1 4.22382 19.6742 12.7201
215 1 7.1127 16.8212 12.6742
216 1 9.90559 16.908 12.5882
217 1 6.95081 19.6039 12.4827
218 1 9.67892 19.6862 12.5323
219 1 12.6023 16.7973 12.5023
220 1 12.6133 19.6302 12.6175
221 1 1.45765 22.6145 12.706
222 1 4.21024 22.4475 12.5079
223 1 6.89733 22.4095 12.3193
224 1 9.75048 22.5081 12.6262
225 1 12.6159 22.3946 12.3891
12125 2 11.3347 21.07 11.0836
12110 2 11.14 4.30876 11.1431
15061 2 13.9854 6.9469 5.54456
12124 2 8.50269 23.9351 11.1014
80 1 12.6899 22.5376 1.38114
12109 2 8.39481 6.90481 11.2276
12039 2 11.1846 15.5007 -0.0877505
12008 2 5.45397 1.44065 2.70367
243 1 7.04082 8.45633 12.761
12010 2 11.1829 1.41055 2.81483
12123 2 5.62376 21.0731 11.0408
12108 2 5.6257 4.24111 11.2045
12013 2 2.62212 4.27083 2.78348
12122 2 2.70026 23.9731 11.2735
12107 2 2.75361 6.91915 11.239
12112 2 2.78246 12.6491 11.1964
12017 2 8.32966 4.13978 2.65571
12018 2 5.69069 7.12771 2.7743
12104 2 8.3643 1.38586 11.1487
12020 2 11.0269 7.15769 2.66552
60 1 12.65 19.809 4.15537
12094 2 0.00734994 23.8879 8.29219
12023 2 2.63437 9.81251 2.63736
12120 2 11.1649 15.3903 11.1843
12102 2 2.53987 1.60694 11.1667
12113 2 5.50474 9.78755 11.2681
12027 2 8.4437 9.83144 2.35798
12028 2 5.63863 12.3816 2.93517
12100 2 11.178 23.9042 8.37188
12030 2 10.8938 12.6607 2.65867
12099 2 11.2248 21.2335 5.52995
12098 2 5.63986 23.9607 8.49436
12033 2 2.75534 15.5332 2.84729
412 1 6.84689 13.9961 1.31391
12097 2 8.42314 21.0203 8.30914
12096 2 8.32608 23.9112 5.50795
12037 2 8.28001 15.5077 2.66506
12038 2 5.48228 18.4207 2.68166
12095 2 5.55762 21.2508 5.60335
12040 2 11.1425 18.4626 2.59163
29 1 7.05488 8.43363 1.17417
12093 2 2.82656 21.0601 8.45147
12043 2 2.65569 21.0373 2.84796
5723 1 6.84907 0.0672918 6.87992
12092 2 2.72988 23.9161 5.53588
5634 1 6.7967 -0.021793 1.31775
12047 2 8.35006 21.1656 2.73503
12048 2 5.57164 23.8332 2.75887
12090 2 11.1604 18.165 8.325
12050 2 11.2873 23.8927 2.73184
12119 2 8.5316 18.1596 11.3293
12052 2 2.72637 1.44656 5.51536
12133 2 8.38172 4.23137 13.9207
12118 2 5.60581 15.4273 11.2554
5633 1 6.78842 -0.0196594 4.21182
12056 2 8.20763 1.44953 5.44961
5726 1 6.72949 -0.172419 9.49481
12058 2 5.63115 1.43995 8.27092
15042 2 14.2542 21.154 2.95121
12060 2 11.1883 1.47233 8.24847
12117 2 2.96197 18.3098 11.1143
12062 2 2.38824 6.95845 5.51998
12063 2 2.76393 4.22163 8.43623
12089 2 11.2549 15.4948 5.59224
12065 2 5.37838 4.16777 5.4837
12066 2 8.15278 6.6262 5.47364
12067 2 8.34037 4.35192 8.3097
12068 2 5.50104 7.16419 8.31529
12069 2 11.2478 4.15773 5.37522
12070 2 11.0842 7.12565 8.26773
12115 2 11.2019 9.86342 11.2223
12072 2 2.58933 12.8001 5.70934
12073 2 2.59033 9.85215 8.44984
12114 2 8.36115 12.6875 11.4043
12075 2 4.87033 9.89508 5.53742
12076 2 8.44797 13.2543 5.56858
12077 2 8.03742 10.0489 5.57086
12078 2 5.78223 12.4676 8.32708
12079 2 11.5251 10.0067 5.64006
12080 2 11.0353 12.6492 8.28075
395 1 6.97363 11.307 1.32538
12082 2 2.66476 18.2318 5.56423
12083 2 2.69729 15.4674 8.53955
15081 2 13.7008 18.2843 5.62083
12085 2 5.52462 15.4645 5.54478
12086 2 8.26266 18.1716 5.43178
12087 2 8.32183 15.3594 8.60995
12088 2 5.61918 18.191 8.24416
167 1 12.5524 19.7912 6.98837
12022 2 2.63148 12.6548 0.0092048
129 1 13.4319 11.0479 6.63347
12138 2 8.42734 9.94268 13.9562
12143 2 8.43234 15.4599 14.0703
15072 2 13.9078 9.75388 8.44833
15116 2 13.8652 18.144 11.1752
12034 2 -0.101565 18.2295 2.71719
15136 2 14.0514 9.78644 13.9339
12004 2 -0.134992 1.48792 2.64356
12049 2 11.3477 21.1566 -0.156474
15091 2 13.9628 23.9596 5.63903
12091 2 0.0139205 21.127 5.59485
12074 2 -0.0915056 12.6423 8.46078
12116 2 -0.113529 15.4496 11.2601
12014 2 -0.233301 7.08154 2.72898
15012 2 13.9571 4.24585 2.57608
12084 2 -0.0469516 18.3688 8.30738
12081 2 -0.0472967 15.4567 5.63303
12142 2 0.0595255 18.2248 13.9743
12032 2 2.79835 18.1873 -0.077111
12041 2 -0.0381146 21.0766 0.044495
12015 2 5.42126 4.27589 -0.14153
12045 2 5.63679 21.0984 -0.134087
12029 2 11.3281 9.92387 -0.232953
12046 2 8.47934 23.7881 -0.095068
12002 2 2.58004 1.46253 -0.0910531
12026 2 8.2195 12.8432 -0.204595
12035 2 5.42976 15.4993 0.0870332
12147 2 -0.0750776 23.8737 13.9162
12146 2 2.68271 21.0354 14.068
12140 2 11.2139 12.7027 14.1176
226 1 4.11226 0.118543 15.2301
227 1 1.22021 0.166017 15.2509
228 1 4.06627 2.83012 15.3558
229 1 1.31937 2.86914 15.4517
230 1 9.65558 -0.0342232 15.3504
231 1 6.88812 0.0759809 15.156
232 1 9.68593 2.78866 15.3185
233 1 6.88999 2.88634 15.3483
234 1 12.386 0.0655298 15.1679
235 1 12.4446 2.80492 15.1977
236 1 4.03197 5.59028 15.5587
237 1 1.3437 5.60122 15.5541
238 1 4.04554 8.48852 15.3642
239 1 1.3739 8.32201 15.2402
240 1 9.72912 5.58937 15.3357
12149 2 5.47776 23.7346 13.8832
242 1 9.93458 8.359 15.2486
5993 1 7.06305 -0.0345125 23.9515
244 1 12.6286 5.51288 15.2462
245 1 12.7217 8.43411 15.3216
246 1 4.03072 11.2562 15.5338
247 1 1.28539 11.2565 15.2683
248 1 4.15864 14.052 15.6316
249 1 1.33865 13.9598 15.4049
250 1 9.68392 11.0613 15.5277
251 1 6.93219 11.267 15.353
252 1 9.79382 14.1336 15.4668
253 1 6.91989 14.123 15.7048
254 1 12.4262 11.1967 15.3536
255 1 12.6494 14.0111 15.5063
256 1 4.19982 16.7951 15.221
257 1 1.46508 16.6885 15.4948
258 1 4.08697 19.7015 15.3544
259 1 1.28891 19.5865 15.4515
260 1 9.73014 16.9145 15.385
261 1 6.94495 16.9382 15.4048
262 1 9.77447 19.618 15.3368
263 1 6.96765 19.7397 15.3681
264 1 12.4685 16.7978 15.3315
265 1 12.6142 19.6556 15.3108
266 1 4.07733 22.4958 15.3909
267 1 1.23182 22.4381 15.343
268 1 9.88172 22.3708 15.4419
269 1 6.99045 22.3907 15.1626
270 1 12.5752 22.5704 15.256
271 1 1.26024 0.112085 18.2619
272 1 3.9794 0.0625566 18.0718
273 1 4.19577 0.0852799 20.9626
274 1 1.24358 -0.00317385 21.2339
275 1 1.2624 2.93361 18.2636
276 1 4.10993 2.87604 18.1643
277 1 4.18406 2.86535 21.0175
278 1 1.29959 2.84576 21.1759
279 1 6.97957 2.71581 18.148
280 1 9.76059 0.0498768 18.1094
281 1 9.79343 0.193342 21.0381
282 1 6.96446 2.76874 21.0613
283 1 6.92593 5.6873 18.2585
284 1 9.79123 2.93278 18.1791
285 1 9.73466 2.82946 21.0256
286 1 6.93618 5.69676 23.7303
287 1 12.5223 0.0515759 18.164
288 1 12.5366 0.0731049 20.9701
289 1 12.7024 2.60467 17.8954
290 1 12.4689 2.95761 20.8585
291 1 1.4156 5.64929 18.25
292 1 4.14521 5.66883 18.2511
293 1 4.21773 5.63194 20.9991
294 1 1.27445 5.71145 20.9418
295 1 1.32946 8.54377 18.1322
296 1 4.13323 8.39059 18.1741
297 1 4.27966 8.36854 21.0775
298 1 1.59239 8.39856 20.97
299 1 6.81501 5.60143 15.351
300 1 9.69466 5.63699 18.2397
301 1 9.66711 5.59074 21.1156
302 1 6.96783 5.42986 21.0044
303 1 6.76606 8.41877 15.5241
304 1 9.65684 8.31706 18.1046
305 1 9.82989 8.38653 20.9027
306 1 6.92739 8.563 18.1798
307 1 12.5149 5.60869 18.0725
308 1 12.4944 5.7057 20.8884
309 1 12.4039 8.36079 18.1272
310 1 12.5606 8.40664 20.8961
311 1 1.18516 11.3761 18.3018
312 1 4.07434 11.214 18.3072
313 1 4.19579 11.2677 21.0547
314 1 1.45795 11.0791 21.0659
315 1 1.27238 14.1631 18.3228
316 1 4.06743 14.1884 18.4405
317 1 4.02109 14.0282 21.215
318 1 1.34012 13.9815 21.2043
319 1 6.79106 11.2342 18.2487
320 1 9.70004 11.3001 18.3199
321 1 9.80253 11.2464 21.0763
322 1 7.06675 11.2659 20.896
323 1 6.95355 14.1847 18.4142
324 1 9.68975 14.1134 18.2614
325 1 9.87225 14.0933 20.9884
326 1 7.13772 14.0419 21.2112
327 1 12.4209 11.2352 18.1407
328 1 12.5531 11.2564 20.919
329 1 12.5198 14.1854 18.2807
330 1 12.6276 14.1211 20.9728
331 1 1.30331 16.8462 18.2795
332 1 4.03747 16.9054 18.2089
333 1 4.14174 16.8651 21.0563
334 1 1.35431 16.8506 21.0099
335 1 1.36864 19.7317 18.2776
336 1 4.16576 19.7942 18.1502
337 1 4.0498 19.6362 21.096
338 1 1.39428 19.6784 21.2129
339 1 6.85686 16.7497 18.3286
340 1 9.66944 16.8162 18.2703
341 1 9.92021 16.8727 21.0761
342 1 6.86496 16.8586 21.1316
343 1 6.84131 19.6557 18.1945
344 1 9.6813 19.6739 18.1869
345 1 9.75854 19.5293 20.8948
346 1 6.9426 19.6164 21.0492
347 1 12.4886 17.0362 18.1513
348 1 12.6237 17.0206 20.9892
349 1 12.5739 19.7319 18.2074
350 1 12.5184 19.7733 20.8691
351 1 1.30956 22.5786 18.2589
352 1 4.17781 22.5185 18.0721
353 1 4.14346 22.4711 20.9826
354 1 1.47415 22.5 21.0005
355 1 7.11406 22.3875 18.1189
356 1 9.82624 22.4975 18.2278
357 1 9.83516 22.3604 21.0359
358 1 6.96147 22.3244 21.0481
359 1 12.6967 22.4273 18.1331
360 1 12.683 22.5087 20.9553
361 1 1.39659 0.0762679 23.7617
362 1 4.26455 0.0623589 23.7538
363 1 4.08377 -0.0719457 26.587
364 1 1.38487 0.0596081 26.5112
365 1 1.20821 2.84233 23.9168
366 1 4.1103 2.6872 23.9489
367 1 4.17153 2.82164 26.5457
368 1 1.30321 2.79648 26.6083
369 1 6.88116 2.86073 23.9208
370 1 9.80797 0.0413458 23.936
371 1 9.6594 0.0411004 26.7096
372 1 6.89376 2.7217 26.6721
373 1 6.90791 5.72079 26.6262
374 1 9.67401 2.7745 23.8348
375 1 9.77662 2.78383 26.5531
376 1 9.79169 5.69386 26.6327
377 1 12.592 0.142082 23.7119
378 1 12.4791 0.0328537 26.5709
379 1 12.6299 2.88027 23.7501
380 1 12.5544 2.92211 26.5914
381 1 1.27941 5.67261 23.8559
382 1 4.05958 5.5897 23.9303
383 1 4.16267 5.91501 26.7674
384 1 1.36746 5.58714 26.6631
385 1 1.34882 8.38797 23.7627
386 1 4.04773 8.39657 23.9194
387 1 4.01559 8.5867 26.711
388 1 1.30534 8.53478 26.5944
389 1 7.08733 8.48675 23.8867
390 1 9.76798 5.5346 23.9677
391 1 9.8688 8.48732 26.5228
392 1 6.95998 8.4315 26.6419
393 1 7.07429 8.43901 20.892
394 1 9.8396 8.36774 23.598
12211 2 -0.0446372 4.30593 22.4282
396 1 7.01062 11.2816 26.4942
397 1 12.5393 5.73991 23.8918
398 1 12.5702 5.70322 26.6357
399 1 12.5843 8.53981 23.6307
400 1 12.5939 8.49871 26.4494
401 1 1.23888 11.1974 23.7481
402 1 4.13008 11.2477 23.676
403 1 4.12799 11.2814 26.5164
404 1 1.25384 11.3479 26.5002
405 1 1.33798 14.0173 23.871
406 1 4.15176 14.1103 23.9374
407 1 4.1471 14.0662 26.6811
408 1 1.38153 14.1336 26.6088
409 1 6.83305 11.1869 23.8164
410 1 9.74764 11.2094 23.8155
411 1 9.74544 11.2473 26.5988
12204 2 -0.110197 1.45223 25.1799
413 1 6.99123 14.1312 23.9441
414 1 9.79766 14.2376 23.9594
415 1 9.84443 14.0901 26.6093
416 1 6.93639 14.2537 26.59
417 1 12.4611 11.3508 23.8034
418 1 12.6482 11.2821 26.4411
419 1 12.5821 14.0912 23.6936
420 1 12.6954 14.2389 26.5765
421 1 1.3414 16.831 23.9049
422 1 4.16293 16.9269 23.7744
423 1 3.91908 16.8325 26.6026
424 1 1.21536 16.9245 26.7637
425 1 1.43503 19.5124 23.9758
426 1 4.13802 19.835 24.0289
427 1 4.129 19.6637 26.74
428 1 1.32469 19.8309 26.6502
429 1 6.99813 16.85 23.9716
430 1 9.71538 16.913 23.6903
431 1 9.78078 17.0022 26.4697
432 1 6.7442 16.9542 26.8085
433 1 6.89971 19.8127 23.8874
434 1 9.77452 19.8401 23.699
435 1 9.90757 19.685 26.5006
436 1 6.94654 19.8243 26.5433
437 1 12.5383 16.9559 23.789
438 1 12.6185 17.0887 26.541
439 1 12.5366 19.7528 23.6971
440 1 12.7099 19.8133 26.5809
441 1 1.4729 22.3255 23.7661
442 1 4.20422 22.4799 23.9036
443 1 4.17473 22.5056 26.7689
444 1 1.36018 22.6578 26.6855
445 1 6.93502 22.4948 23.7545
446 1 9.84075 22.4801 23.6502
447 1 9.83811 22.6827 26.579
448 1 6.94985 22.5719 26.595
449 1 12.7398 22.572 23.6724
450 1 12.607 22.477 26.436
12145 2 11.2629 18.235 14.0099
12250 2 11.3315 23.8985 25.0673
15011 2 14.0124 7.03178 27.9284
12244 2 0.0847019 23.855 25.2015
5906 1 7.01916 -0.0476565 21.0288
12231 2 -0.0774004 15.4428 22.4701
12249 2 11.2112 21.0332 22.2184
12171 2 -0.0649323 9.75011 16.7222
12019 2 11.139 4.36531 28.0329
12016 2 8.29998 6.97528 27.8987
12025 2 5.55604 9.91388 28.0709
12248 2 5.64661 23.8709 25.2766
12174 2 -0.0476965 12.6292 19.5772
12221 2 -0.0178799 9.87422 22.3521
12224 2 0.0175192 12.7012 25.2202
12241 2 0.0154851 21.1534 22.4962
15232 2 14.0359 15.4851 25.1375
12161 2 -0.130519 4.28581 16.7273
12220 2 11.1372 7.12797 25.1214
12150 2 11.1086 23.7384 13.9828
12232 2 2.6534 18.2558 22.4688
12216 2 8.39398 7.05613 22.3683
5903 1 6.85786 0.0822831 18.1437
12219 2 11.1066 4.35199 22.416
12218 2 5.55007 7.10348 25.3218
12247 2 8.37685 21.1766 25.1876
12152 2 2.64261 1.44776 16.8535
12227 2 8.4417 9.84406 25.2547
12246 2 8.30514 23.8007 22.2949
12230 2 11.1727 12.7253 25.1424
12156 2 8.30058 1.34901 16.6088
12229 2 11.1563 9.85068 22.3061
12158 2 5.46676 1.41812 19.6203
12217 2 8.36696 4.2535 25.256
12160 2 11.1514 1.47688 19.6204
12245 2 5.47271 21.0809 22.4472
12162 2 2.71506 6.9625 16.8126
12163 2 2.77677 4.3313 19.6547
12228 2 5.54859 12.5831 25.1247
12165 2 5.57903 4.22822 16.8429
12166 2 8.37349 7.10601 16.7865
12167 2 8.28076 4.27849 19.6304
12168 2 5.50845 7.06186 19.6247
12169 2 11.215 4.14209 16.6866
12170 2 11.1108 6.99185 19.574
12243 2 2.69274 21.0016 25.3385
12172 2 2.61778 12.6442 16.9514
12173 2 2.76016 9.80117 19.6464
12242 2 2.77592 23.8491 22.5035
12175 2 5.52826 9.76291 16.9356
12176 2 8.33789 12.6264 17.0173
12177 2 8.43782 9.75871 19.5827
12178 2 5.45794 12.658 19.7243
12179 2 11.1454 9.66081 16.7832
12180 2 11.1766 12.6486 19.5984
12236 2 8.36538 18.4165 22.4106
12182 2 2.74391 18.3462 16.9071
12183 2 2.60532 15.3651 19.6876
12223 2 2.7653 9.89656 25.2525
12185 2 5.38244 15.497 16.8608
12186 2 8.2073 18.2481 16.7871
12187 2 8.43158 15.5067 19.7006
12188 2 5.55126 18.3148 19.8017
12189 2 11.0879 15.5761 16.8552
12190 2 11.1932 18.3347 19.53
12226 2 8.45947 12.6134 22.4738
12192 2 2.71381 23.853 16.8277
12193 2 2.8049 21.1273 19.676
12225 2 5.59064 9.79935 22.3288
12195 2 5.55038 21.0722 16.7881
12196 2 8.46693 23.8285 16.7571
12197 2 8.41721 20.9707 19.6331
12198 2 5.62461 23.8049 19.496
12199 2 11.0833 21.0605 16.7428
12200 2 11.2676 23.7831 19.6178
12240 2 11.1266 18.2795 25.0488
12202 2 2.72003 1.50864 22.4754
5996 1 6.79514 -0.0443133 26.7392
12239 2 11.2057 15.4785 22.3966
12222 2 2.72466 12.5431 22.5191
12206 2 8.40496 1.28119 22.5598
12235 2 5.49164 15.373 22.4501
12208 2 5.50633 1.29451 25.2146
12233 2 2.74187 15.4523 25.2266
12210 2 11.188 1.5197 25.1803
12238 2 5.50228 18.315 25.2361
12212 2 2.7876 6.96677 22.421
12213 2 2.6088 4.18832 25.2678
12237 2 8.32855 15.5677 25.2724
12215 2 5.60019 4.09095 22.3954
12042 2 2.77908 23.9439 28.1667
12031 2 -0.0657899 15.4384 28.1518
15222 2 14.0522 9.86676 25.0785
12181 2 -0.0789719 15.3528 16.7369
15221 2 14.0007 12.6794 22.1874
15201 2 14.0693 1.43965 22.3005
12006 2 8.31041 1.50371 28.012
12191 2 -0.098208 20.9601 16.7838
12234 2 -0.00321592 18.2628 25.406
15161 2 14.0275 6.97222 16.6795
15181 2 13.9848 18.1777 16.743
15191 2 13.9998 23.8657 16.7219
15171 2 13.943 12.541 16.7762
15162 2 13.9875 4.13631 19.4148
12194 2 -0.1077 23.8534 19.6414
12148 2 8.34244 21.0959 13.8502
12130 2 10.975 1.38736 13.8193
12012 2 2.69726 7.06002 28.1037
12136 2 2.66066 9.82647 14.0201
12129 2 5.61683 1.48914 13.9667
12135 2 11.2339 7.01936 13.9623
12131 2 2.65741 4.26057 14.0467
12011 2 -0.126973 4.22204 27.9422
12036 2 8.43584 18.3026 28.0012
12144 2 5.61523 18.1766 13.9961
12137 2 -0.0685003 12.6426 13.9694
451 1 1.38428 25.3718 1.47776
452 1 4.17051 25.3174 1.42944
453 1 4.17763 25.3116 3.97276
454 1 1.48843 25.4462 4.29952
455 1 7.06226 25.2548 1.33049
456 1 10.0369 25.189 1.08431
457 1 9.90093 25.3231 4.02761
458 1 6.93816 25.2892 3.92923
459 1 12.8451 30.76 1.46198
460 1 12.7464 28.1252 3.9995
461 1 1.47109 28.1128 1.39245
462 1 4.24735 28.0603 1.2995
463 1 4.18548 28.2005 4.18083
464 1 1.41271 28.284 4.12504
465 1 1.55924 31.0293 1.35874
466 1 4.39273 30.9521 1.31831
467 1 4.3269 31.0957 4.10635
468 1 1.52561 31.0312 4.07444
469 1 7.05315 27.9216 1.35974
470 1 9.90914 27.9263 1.31317
471 1 9.97673 28.1276 4.09537
472 1 7.10097 28.067 4.09864
473 1 7.20523 30.9546 1.45873
910 1 9.63879 50.9101 1.37941
475 1 9.85648 30.9457 4.24233
476 1 7.15893 30.9675 4.05703
477 1 9.86399 30.6106 1.30103
478 1 11.1235 32.6643 2.47125
479 2 11.4757 32.0528 0.202707
480 1 9.71703 33.8069 0.537394
481 1 1.33991 34.0502 1.60228
482 1 4.17536 33.6852 0.889054
483 1 4.04132 33.8986 3.87616
484 1 1.19873 33.7946 4.21012
485 2 1.61017 36.3423 0.966894
486 1 3.63395 36.2463 1.83968
487 1 4.0829 36.8033 4.3661
488 1 1.26739 36.4985 3.49826
489 1 6.78802 33.7417 1.44269
12326 2 -0.0996145 43.4943 5.44078
491 1 9.8052 33.897 4.27371
492 1 7.1052 33.8584 4.13938
493 1 6.55257 36.7652 1.68454
494 1 9.68189 36.3889 1.32966
495 1 9.84622 36.7277 3.99556
496 1 6.99025 36.5936 4.19311
497 1 12.8137 33.7193 0.833911
498 1 12.8713 33.8102 4.08904
499 1 12.5164 36.6193 1.10959
500 1 12.6436 36.5847 4.06703
501 1 1.36402 38.7177 1.21142
502 1 4.17031 39.6232 1.363
503 1 4.28844 39.637 4.26862
504 1 1.5183 39.4147 4.09196
505 1 1.20597 42.1364 1.14388
506 1 3.9988 42.3636 1.2811
507 1 4.20074 42.3725 4.12294
508 1 1.36961 42.243 4.12033
509 1 7.02966 39.6224 1.22686
510 1 9.71601 39.3131 1.24498
511 1 9.6937 39.4249 4.09211
512 1 6.99296 39.3765 4.18562
513 1 6.78857 42.3544 1.43254
514 1 9.75675 42.2882 1.21821
515 1 9.85817 42.1469 4.01805
516 1 7.1099 42.0419 4.16834
517 1 12.4444 39.4199 1.26606
518 1 12.6157 39.49 4.15427
519 1 12.5844 42.0574 1.24139
520 1 12.5396 42.2376 4.01592
521 1 1.32466 44.946 1.29528
522 1 4.15961 44.9061 1.40719
523 1 4.2405 45.1367 4.15236
524 1 1.24707 45.108 4.00503
525 1 1.38752 47.8441 1.31719
526 1 4.24744 47.5723 1.27783
527 1 4.06202 47.8069 4.00746
528 1 1.1512 47.7904 4.10872
529 1 6.85378 45.0753 1.15669
530 1 9.71532 45.0337 1.19172
531 1 9.83431 44.984 4.13202
532 1 7.03577 44.874 4.01664
533 1 7.04678 47.7655 1.29502
534 1 9.85202 47.9298 1.28958
535 1 9.7662 47.7708 3.99617
536 1 6.97027 47.8231 3.92685
537 1 12.5374 44.9027 1.25578
538 1 12.6657 45.1214 4.09468
539 1 12.5098 47.8012 1.449
540 1 12.5604 47.9633 4.19821
541 1 1.41206 25.4474 6.83647
542 1 4.14228 25.3006 6.98006
543 1 4.2503 25.2926 9.83818
544 1 1.41009 25.4499 9.81018
545 1 7.04124 25.3853 6.77806
546 1 9.79198 25.4152 6.95758
547 1 9.79897 25.3589 9.81397
548 1 7.09214 25.3897 9.69485
549 1 12.5534 28.1738 6.88746
550 1 12.5047 25.2018 9.74049
551 1 1.34515 28.085 6.99977
552 1 4.40181 28.2013 6.85434
553 1 4.23264 28.1731 9.69498
554 1 1.40672 28.1024 9.7858
555 1 1.5193 30.9718 6.82144
556 1 4.29298 30.9957 6.93774
557 1 4.21105 31.0601 9.59872
558 1 1.23737 30.851 9.69304
559 1 7.09197 28.1653 6.83971
560 1 9.81945 28.2952 6.90486
561 1 9.80817 28.0937 9.58029
562 1 6.94289 28.1346 9.62448
563 1 7.2048 30.9415 7.01977
564 1 9.87714 31.0591 6.96432
565 1 9.79618 30.856 9.69513
566 1 7.04939 30.8353 9.76581
567 1 12.497 30.8545 6.97229
568 1 12.6124 28.041 9.52028
90 1 12.8226 25.3968 1.39174
570 1 12.5168 30.8782 9.70384
571 1 1.32107 33.7608 6.96143
572 1 4.1475 33.7478 6.8624
573 1 4.05786 33.8925 9.65352
574 1 1.53302 33.7054 9.87621
575 1 1.24826 36.6961 6.6986
576 1 4.22139 36.4406 6.98262
577 1 4.15047 36.7544 9.84668
578 1 1.39484 36.4481 9.53863
579 1 7.04476 33.7369 6.93579
580 1 9.79303 33.8543 7.04556
581 1 9.72406 33.7845 9.91986
582 1 6.94503 33.6401 9.67758
583 1 7.0464 36.5335 7.10762
584 1 9.87433 36.6326 6.94267
585 1 9.74096 36.6128 9.78602
586 1 7.00946 36.4867 9.84864
587 1 12.5222 33.7825 6.8665
588 1 12.4145 33.6171 9.7338
589 1 12.7531 36.6581 6.85852
590 1 12.5786 36.5671 9.64567
591 1 1.28889 39.4745 6.78858
592 1 4.30307 39.2019 7.15294
593 1 4.11732 39.4093 9.69721
594 1 1.35697 39.3681 9.63939
595 1 1.41852 42.237 6.80003
596 1 4.35582 42.0657 7.04807
597 1 4.2039 42.2354 9.80962
598 1 1.44399 42.2777 9.57888
599 1 7.04906 39.3489 7.02376
600 1 9.78966 39.2745 6.90438
601 1 9.75922 39.523 9.79594
602 1 7.0252 39.5385 9.89032
603 1 7.14484 42.097 7.10891
604 1 9.92413 42.1378 6.96291
605 1 9.77313 42.2958 9.82041
606 1 6.96122 42.4307 9.78221
607 1 12.5669 39.4752 6.90621
608 1 12.5381 39.3398 9.76132
609 1 12.4788 42.1652 6.92357
610 1 12.5395 42.2933 9.63244
611 1 1.35893 44.9594 6.79854
612 1 4.13433 44.9324 6.98668
613 1 4.20365 44.9407 9.73839
614 1 1.40864 45.1098 9.71512
615 1 1.35775 47.6723 6.89419
616 1 4.27961 47.7558 6.99391
617 1 4.1382 47.7029 9.7729
618 1 1.39312 47.8735 9.67985
619 1 6.95213 44.9171 6.92223
620 1 9.91563 44.8476 6.97767
621 1 9.76839 45.2362 9.65182
622 1 6.89691 45.134 9.81674
623 1 6.99873 47.8397 6.86098
624 1 9.79741 47.874 6.65919
625 1 9.72214 47.9971 9.5174
626 1 6.96412 47.8531 9.76881
627 1 12.6398 45.1211 6.7976
628 1 12.6507 44.9263 9.65412
629 1 12.6179 47.9068 6.94236
630 1 12.591 47.7977 9.73485
631 1 1.2197 25.3915 12.4986
632 1 4.08047 25.5207 12.5627
633 1 7.0504 25.2161 12.5728
634 1 9.8241 25.3138 12.5954
635 1 12.573 25.1597 12.6412
636 1 1.23385 28.2686 12.5577
637 1 4.16531 28.1535 12.5827
638 1 1.42443 31.0469 12.4819
639 1 4.26631 30.9616 12.6259
640 1 7.0727 28.135 12.4663
641 1 9.92815 28.096 12.4649
642 1 7.02236 30.9809 12.5018
643 1 9.86096 30.7427 12.4249
644 1 12.6098 28.0602 12.4153
645 1 12.8444 30.9913 12.6179
646 1 1.30594 33.857 12.6466
647 1 4.19855 33.7524 12.4593
648 1 1.41613 36.7163 12.4539
649 1 4.07111 36.6259 12.655
650 1 6.99195 33.7154 12.5366
651 1 9.66999 33.5681 12.5359
652 1 6.87226 36.4017 12.574
653 1 9.78718 36.4435 12.4514
654 1 12.5496 33.6042 12.5233
655 1 12.5166 36.4599 12.4934
656 1 1.51382 39.5928 12.4884
657 1 4.21039 39.4204 12.297
658 1 1.40237 42.2909 12.3217
659 1 4.20292 42.2753 12.5314
660 1 7.08502 39.215 12.5829
661 1 9.77934 39.5482 12.5992
662 1 6.89508 42.1915 12.6917
663 1 9.8712 42.285 12.5859
664 1 12.5006 39.2476 12.5125
665 1 12.6158 42.2154 12.3603
666 1 1.3879 45.0886 12.6527
667 1 4.18636 45.1291 12.6145
668 1 1.17055 47.9086 12.5867
669 1 4.07582 48.0025 12.4495
670 1 7.08581 45.0989 12.6665
671 1 9.82096 45.1116 12.6503
672 1 6.93099 47.928 12.5946
673 1 9.87944 47.8506 12.5425
674 1 12.5859 45.1034 12.6321
675 1 12.7368 47.8043 12.5015
12363 2 11.2447 49.2674 11.1924
89 1 12.7709 28.1719 1.10547
12253 2 2.89101 26.6602 2.74016
12362 2 5.58182 49.3103 11.1396
15291 2 13.8531 49.2267 2.68489
180 1 12.6542 25.3806 7.01478
12257 2 8.43376 26.6702 2.77612
12258 2 5.7617 29.4671 2.72575
15336 2 14.03 49.2608 8.30216
12260 2 11.2715 29.4822 2.81466
12360 2 11.2299 43.6721 11.0213
1109 1 12.5403 50.6011 12.4906
12263 2 2.96321 32.3857 2.53113
12359 2 8.4086 46.57 11.2009
1003 1 4.05242 50.5297 9.56242
12306 2 -0.0490466 32.3279 5.50979
12267 2 8.69298 32.3709 2.68538
12268 2 5.45211 35.1786 2.8751
12345 2 11.3152 26.6342 11.1688
12270 2 11.2792 35.1473 2.68012
12358 2 5.60926 43.676 11.2208
12344 2 8.41039 29.5006 11.2216
12273 2 3.13601 38.255 2.84581
12357 2 2.6952 46.5829 11.1306
12343 2 5.63358 26.7379 11.121
179 1 12.5852 25.3774 4.178
12277 2 8.34219 37.9865 2.66454
12278 2 5.54894 41.0611 2.72655
12274 2 -0.134407 40.7329 2.70221
12280 2 11.1904 40.7773 2.60956
12355 2 11.0716 37.9483 11.2771
15296 2 14.0395 29.5458 5.61703
12283 2 2.65635 43.6482 2.71367
12354 2 8.41113 40.9077 11.2842
12256 2 8.30456 29.3716 -0.0051228
904 1 1.33774 50.4896 4.11703
12287 2 8.40827 43.6708 2.83127
12288 2 5.5052 46.4092 2.68243
12316 2 -0.0769362 37.9512 5.4773
12290 2 11.2133 46.3551 2.73552
12353 2 5.6941 37.9773 11.14
12292 2 2.76028 49.2513 2.59757
12319 2 -0.00375219 40.8717 8.20916
12294 2 8.38914 49.285 2.65937
12356 2 0.0155672 43.6662 11.1579
909 1 7.03715 50.6601 1.05959
12297 2 2.8705 29.6021 5.46032
12298 2 2.80375 26.6741 8.36593
12341 2 -0.0778288 26.6512 11.1492
12300 2 5.59269 26.6547 5.457
12301 2 8.51462 29.6046 5.55367
12302 2 8.4995 26.7716 8.13615
12303 2 5.6911 29.4896 8.27912
12304 2 11.337 26.809 5.59642
12305 2 11.1669 29.5993 8.35993
12352 2 2.82615 40.9622 11.1765
12307 2 2.7595 35.1124 5.56434
12308 2 2.69854 32.3618 8.34256
569 1 12.6794 30.8385 4.163
12310 2 5.73716 32.3494 5.61321
12311 2 8.43548 35.242 5.64274
12312 2 8.4399 32.2506 8.2719
12313 2 5.54658 35.1597 8.33065
12314 2 11.209 32.3437 5.45541
12315 2 11.1957 35.1468 8.31035