ITEM: TIMESTEP
460000
ITEM: NUMBER OF ATOMS
18000
ITEM: BOX BOUNDS xy xz yz pp pp pp
-1.0595210489654801e-01 2.7999952104895893e+01 0.0000000000000000e+00
-1.1028305022362985e+00 3.3583083050225383e+02 0.0000000000000000e+00
-1.0538442241905878e-01 2.7999384422418224e+01 0.0000000000000000e+00
ITEM: ATOMS id type x y z
1 1 1.28773 0.314525 1.15648
2 1 3.98682 0.248497 1.42121
3 1 4.19146 0.337522 4.14185
4 1 1.25121 0.193895 4.11398
5 1 1.32618 3.05769 1.2925
6 1 4.1 2.99114 1.18982
7 1 4.1552 3.13799 3.97589
8 1 1.3683 2.80811 4.21367
9 1 7.03063 3.07814 1.31684
10 1 9.73416 0.23571 1.16812
11 1 9.66879 0.195935 3.99117
12 1 6.81873 3.00783 4.20681
13 1 6.92528 5.94346 1.22506
14 1 9.67245 3.07589 1.25826
15 1 9.70779 3.22265 4.01756
16 1 6.7801 5.66481 3.91174
17 1 12.5656 0.129257 1.17225
18 1 12.4242 0.1923 4.0447
19 1 12.6097 2.93523 1.25474
20 1 12.5066 2.94411 4.02709
21 1 1.39568 5.76358 1.13413
22 1 4.19229 5.86103 1.28914
23 1 4.0021 5.97582 4.14058
24 1 1.21717 5.7049 3.9414
25 1 1.26348 8.62512 1.21109
26 1 4.11697 8.53237 1.25578
27 1 3.85185 11.3447 3.95143
28 1 1.20797 8.63241 3.98298
12143 2 8.41275 15.6128 13.8695
30 1 9.74428 5.79569 1.09568
31 1 9.92763 5.88049 3.95173
32 1 6.40495 8.20473 5.30433
33 1 6.32455 10.3157 3.4925
34 1 9.87762 8.65641 1.09611
35 1 8.2591 8.023 3.19476
36 1 6.46705 11.952 5.57384
37 1 12.643 5.76568 1.08058
38 1 12.5893 5.75325 3.88009
39 1 12.5919 8.59319 1.19605
40 1 12.7154 8.55903 3.94017
41 1 1.08066 11.3445 1.17303
42 1 4.00544 11.4491 1.15717
43 1 6.8489 14.3173 3.85151
44 1 1.2492 11.3649 3.93773
45 1 1.28366 14.1605 1.16035
46 1 4.12356 14.2055 1.14731
47 1 4.04166 14.2576 4.13068
48 1 1.23294 14.1843 3.97798
49 1 3.88033 8.66218 3.91964
50 1 9.7979 11.5731 1.03796
51 1 9.8826 9.63458 4.20175
52 1 8.58695 11.9292 3.60595
53 1 6.92594 17.1788 3.94483
54 1 9.65032 14.338 1.0579
55 1 12.6254 14.1999 3.81506
56 1 9.83508 14.39 3.81613
57 1 12.588 11.556 1.02583
58 1 12.5761 11.4511 3.62016
59 1 12.3922 14.5224 1.05681
12150 2 11.1792 24.0141 13.9263
61 1 1.30278 16.9985 1.29242
62 1 4.20595 17.0529 1.09736
63 1 4.08225 16.9862 3.99934
64 1 1.19565 17.0309 4.01631
65 1 1.20367 19.8143 1.09428
66 1 4.10808 19.8979 1.32023
67 1 4.07646 19.88 4.02732
68 1 1.29792 19.7892 3.93277
69 1 6.9363 17.0722 0.947568
70 1 9.71277 17.1155 0.94132
71 1 12.5836 16.9901 3.96131
72 1 9.87647 16.9718 4.03921
73 1 6.96716 19.8329 1.21732
74 1 9.8283 19.9006 1.1752
75 1 9.65241 19.9135 3.90306
76 1 6.81734 19.9749 4.09216
77 1 12.4305 17.2359 1.1999
15091 2 13.9343 24.1603 5.51056
79 1 12.6465 19.9514 1.30571
12105 2 11.1659 -1.30112 11.0709
81 1 1.23368 22.7081 1.16718
82 1 3.96525 22.79 1.19518
83 1 4.07675 22.6597 3.99607
84 1 1.06505 22.507 3.78493
85 1 6.83026 22.629 1.38957
86 1 9.63057 22.6621 1.22079
87 1 9.79212 22.6421 4.02117
88 1 7.07882 22.8282 4.12591
12137 2 -0.153603 12.8058 13.8686
12141 2 2.78979 15.6008 13.8936
91 1 1.3065 0.196081 6.9021
92 1 4.14874 0.232814 7.16394
93 1 3.97153 2.54715 9.52413
94 1 1.37235 0.222151 9.66303
95 1 1.2838 2.94601 6.95941
96 1 4.14687 2.99738 6.77313
97 1 6.66199 5.74595 9.60356
98 1 1.2242 3.08402 9.72652
99 1 7.00271 3.09582 6.8759
100 1 9.66549 0.326182 6.79211
101 1 9.38778 0.118704 9.70974
102 1 6.82488 2.91339 9.74974
103 1 6.98297 5.77126 6.79424
104 1 9.78942 3.09062 6.86071
105 1 9.63481 2.95888 9.7385
106 1 6.77137 5.79025 12.5556
107 1 12.5661 0.258454 6.941
108 1 12.2614 0.318485 9.67935
109 1 12.5599 3.06181 6.91491
110 1 12.4878 2.95028 9.69055
111 1 1.38875 5.76314 6.79106
112 1 4.17537 5.67213 6.94528
113 1 4.14653 8.60245 9.67086
114 1 1.19943 5.81261 9.69129
115 1 1.19291 8.60348 6.82112
116 1 3.90955 8.43154 6.90169
117 1 6.49957 9.76952 7.32598
118 1 1.36788 8.61425 9.73617
119 1 8.90621 8.49401 6.66884
120 1 9.75751 5.83121 6.77547
121 1 9.7352 5.53313 9.64525
122 1 7.00059 8.46566 9.80894
123 1 8.73395 11.7005 6.99123
124 1 12.5864 8.32306 6.75521
125 1 10.9063 10.3284 7.65496
126 2 8.51705 9.99945 8.55149
127 1 12.541 5.82341 6.70923
128 1 12.4552 5.82515 9.51964
15136 2 13.9894 10.0216 13.8754
130 1 12.5702 11.3809 9.63421
131 1 1.21933 11.3346 6.89195
132 1 3.82791 11.3455 6.74907
133 1 4.15918 11.3944 9.47002
134 1 1.16921 11.3285 9.7783
135 1 1.22812 14.2196 6.89595
136 1 4.04969 14.0756 7.05215
137 1 4.13197 14.2394 9.74023
138 1 1.42425 14.0587 9.65043
139 1 9.59101 14.7383 6.77039
140 1 10.8918 12.3886 5.59738
141 1 9.69752 11.2917 9.93584
142 1 6.84916 11.4588 9.67254
143 1 6.81032 14.318 6.81542
144 1 9.55795 17.1613 6.9086
145 1 9.67999 14.1478 9.62141
146 1 6.85736 14.1195 9.63634
147 1 12.6545 14.1169 6.89451
148 1 12.4705 14.2839 9.65618
149 1 12.3124 16.8879 6.98968
150 1 12.3977 17.0559 9.7064
151 1 1.16846 17.2331 6.89496
152 1 3.87668 16.9494 6.93456
153 1 4.12205 16.9287 9.81371
154 1 1.18104 17.0239 9.79062
155 1 1.19908 19.9353 6.68986
156 1 3.9916 19.797 6.91997
157 1 3.90845 19.7618 9.68811
158 1 1.21374 19.8571 9.69767
159 1 6.68956 17.0648 6.85822
160 1 12.4851 22.6456 4.16539
161 1 9.65441 16.9392 9.838
162 1 6.91975 17.1805 9.63062
163 1 6.90807 19.9152 6.83643
164 1 9.63602 19.8869 6.83771
165 1 9.60067 19.7618 9.66308
166 1 6.61237 19.919 9.46452
241 1 9.85987 8.50922 12.4277
168 1 12.398 19.8681 9.70794
169 1 12.6292 22.7234 6.94806
170 1 12.3651 22.6935 9.76722
171 1 1.3536 22.6258 6.48148
172 1 4.27789 22.8066 6.7428
173 1 4.10361 22.6233 9.59329
174 1 1.3275 22.6505 9.48758
175 1 7.03756 22.6539 6.93449
176 1 9.77828 22.6706 6.80598
177 1 9.57422 22.6962 9.55035
178 1 6.86331 22.6967 9.60401
12042 2 2.66299 24.1314 -0.252756
15116 2 13.806 18.3575 11.0626
181 1 1.23437 0.227705 12.4247
182 1 4.10237 0.206483 12.1102
183 1 1.1909 3.02607 12.4552
184 1 3.93603 3.23004 12.3342
185 1 7.00549 0.106634 12.5572
186 1 9.79049 0.147255 12.4954
187 1 6.73539 2.86479 12.5613
188 1 9.59886 2.98405 12.3698
189 1 12.5238 0.279559 12.5006
190 1 12.4804 3.03486 12.3934
191 1 1.12576 5.79009 12.4996
192 1 3.92804 5.68661 9.72241
193 1 1.31333 8.49587 12.4672
194 1 4.03664 8.5358 12.4483
195 1 3.98937 5.80045 12.3623
196 1 9.63429 5.82841 12.5949
197 1 9.68088 8.40382 9.6406
198 1 12.4951 8.42367 9.64098
199 1 12.394 5.69288 12.5757
200 1 12.6966 8.62915 12.5106
201 1 1.33735 11.3253 12.5064
202 1 4.23055 11.2893 12.4126
203 1 1.43159 14.1561 12.4342
204 1 4.27236 14.13 12.4922
205 1 6.97788 11.3953 12.4294
206 1 9.66501 11.4481 12.5986
207 1 7.10183 14.2768 12.3577
208 1 9.65183 14.2225 12.4441
209 1 12.5223 11.4309 12.4146
210 1 12.3935 14.3608 12.4721
211 1 1.26552 17.1446 12.5282
212 1 3.97361 16.9728 12.499
213 1 1.22316 19.9152 12.5759
214 1 4.07805 19.8496 12.5524
215 1 6.80074 16.8939 12.5445
216 1 9.72196 17.0224 12.4584
217 1 6.84454 19.7826 12.4137
218 1 9.5643 19.9082 12.394
219 1 12.5701 17.0159 12.5601
220 1 12.3488 19.798 12.42
221 1 1.36408 22.6391 12.4163
222 1 4.12196 22.6063 12.3844
223 1 6.98321 22.7299 12.5058
224 1 9.75706 22.6807 12.4127
225 1 12.5735 22.5638 12.5917
12125 2 11.0621 21.2185 11.0047
12110 2 11.1338 4.36978 11.1286
15051 2 13.9419 1.42805 5.40294
12124 2 8.39045 24.1815 11.1121
80 1 12.5777 22.6035 1.24985
12109 2 8.31977 7.01076 11.0676
15012 2 14.0297 4.4184 2.50796
12008 2 5.54431 1.66899 2.71042
243 1 6.7454 8.64457 12.4918
12010 2 11.0895 1.69173 2.42481
12123 2 5.52025 21.2566 11.0922
12108 2 5.37127 4.38535 11.0324
12013 2 2.74814 4.51617 2.61756
12122 2 2.81685 23.9809 11.0395
12107 2 2.67038 7.19133 11.0704
12112 2 2.85696 12.7394 11.0701
12017 2 8.36245 4.50072 2.54389
12018 2 5.57468 7.36939 2.6796
12104 2 8.26342 1.58956 11.1625
12020 2 11.2427 7.25852 2.54763
60 1 12.2897 19.7934 3.97873
12034 2 -0.244736 18.4804 2.55696
12023 2 2.46808 9.89181 2.56338
12120 2 11.0516 15.4746 11.1239
12102 2 2.52872 1.80335 11.1933
12113 2 5.47293 9.97781 11.0288
12027 2 8.36743 10.0391 2.11365
12028 2 5.55171 12.6459 2.61058
12100 2 11.146 23.9966 8.22997
12030 2 11.0818 12.8138 2.54578
12099 2 11.1564 21.2537 5.5315
12098 2 5.70449 24.0469 8.19365
12033 2 2.61745 15.5777 2.46045
412 1 6.84146 14.1154 1.11792
12097 2 8.27433 21.3278 8.16642
12096 2 8.37969 24.0713 5.51046
12037 2 8.25242 15.6131 2.41522
12038 2 5.45825 18.4513 2.62918
12095 2 5.50588 21.2718 5.43348
12040 2 10.9652 18.4824 2.51509
29 1 6.77166 8.71198 1.03142
12093 2 2.62155 21.2485 8.09431
12043 2 2.6004 21.2833 2.57022
5723 1 7.0147 0.292438 6.87663
12092 2 2.82714 24.145 5.49225
5634 1 6.82255 0.236783 1.23463
12047 2 8.32305 21.3162 2.66291
12048 2 5.52367 24.0922 2.74573
12090 2 10.9871 18.3736 8.34715
12050 2 11.095 24.0487 2.7132
12119 2 8.29499 18.3312 11.1719
12052 2 2.74417 1.4809 5.53673
129 1 13.5222 11.0201 6.61433
12118 2 5.52727 15.5859 11.0113
5633 1 6.95474 0.241387 3.98321
12056 2 8.34514 1.56805 5.38437
5726 1 6.37132 0.0575147 9.64478
12058 2 5.68972 1.77809 8.23244
12131 2 2.69853 4.47559 13.8161
12060 2 11.0155 1.62812 8.25699
12117 2 2.6475 18.4386 11.0818
12062 2 2.69053 7.22366 5.46994
12063 2 2.64057 4.2869 8.33486
12089 2 11.2147 15.5311 5.30611
12065 2 5.50678 4.50381 5.39003
12066 2 8.29965 6.87665 5.24133
12067 2 8.38842 4.35029 8.20567
12068 2 5.4642 7.25694 8.16982
12069 2 11.2116 4.41404 5.45067
12070 2 11.1045 7.14836 8.13504
12115 2 11.1833 9.97894 11.0909
12072 2 2.5472 12.8762 5.43943
12073 2 2.6367 10.0099 8.32389
12114 2 8.26886 12.8232 11.0164
12075 2 4.97176 10.0644 5.39852
12076 2 8.30715 13.4375 5.32389
12077 2 7.97936 10.1567 5.34375
12078 2 5.61676 12.6656 8.00648
12079 2 11.7384 10.0924 5.43464
12080 2 11.0196 12.6444 8.12605
395 1 6.7619 11.4186 0.973956
12082 2 2.72358 18.4041 5.33639
12083 2 2.72454 15.5042 8.2399
15081 2 13.4461 18.1799 5.5682
12085 2 5.41512 15.6034 5.36004
12086 2 8.2375 18.4732 5.39057
12087 2 8.37435 15.7006 8.37293
12088 2 5.48475 18.3963 8.28648
167 1 12.4062 19.8121 6.89405
12129 2 5.5418 1.45752 13.8583
15071 2 13.8307 12.9576 5.34366
15072 2 13.8654 9.7788 8.42584
12081 2 -0.145418 15.5738 5.50041
12144 2 5.41346 18.4502 13.9257
12074 2 -0.131372 12.6432 8.33017
15101 2 14.0269 1.49342 11.1437
15111 2 13.8898 12.8372 11.0502
12146 2 2.69418 21.3344 13.9106
12091 2 -0.152972 21.1716 5.36734
12094 2 -0.0418951 24.0986 8.15968
12135 2 11.1741 7.17076 13.912
12130 2 11.1587 1.53926 13.8922
15141 2 13.8533 15.6795 13.8803
12133 2 8.25696 4.30914 13.8241
12139 2 5.43632 12.6818 13.9573
12145 2 11.0143 18.5042 13.8662
15146 2 13.8875 21.1609 13.9465
12134 2 5.44206 7.27359 13.8176
12002 2 2.77338 1.61594 -0.161529
12147 2 -0.121127 24.1239 13.9395
226 1 4.039 0.0342346 14.9398
227 1 1.15845 0.112348 15.3509
228 1 4.04205 3.05449 15.1576
229 1 1.34531 2.85331 15.2677
230 1 9.65603 0.113496 15.2977
231 1 6.84967 0.105294 15.3352
232 1 9.75366 2.92775 15.1847
233 1 6.84751 3.05057 15.1952
234 1 12.409 0.077556 15.2128
235 1 12.4533 2.72225 15.3332
236 1 4.12856 5.82616 15.1942
237 1 1.31847 5.64166 15.383
238 1 4.01908 8.6627 15.2109
239 1 1.2039 8.51503 15.2133
240 1 9.69209 5.79045 15.2379
15192 2 13.9457 21.2128 19.6614
242 1 9.66775 8.57227 15.4101
5993 1 6.8428 0.0386779 23.7457
244 1 12.5283 5.5993 15.3986
245 1 12.4935 8.53481 15.3081
246 1 3.95358 11.377 15.193
247 1 1.15707 11.3688 15.3565
248 1 4.0043 14.1945 15.3298
249 1 1.18961 14.1559 15.1572
250 1 9.71269 11.3147 15.3269
251 1 6.80101 11.4163 15.2927
252 1 9.8445 14.1708 15.3931
253 1 6.80692 14.2469 15.221
254 1 12.5485 11.3576 15.1465
255 1 12.5251 14.2395 15.3375
256 1 4.12363 17.0619 15.3187
257 1 1.42908 17.0011 15.2707
258 1 4.01279 19.9782 15.4047
259 1 1.24249 19.9987 15.2551
260 1 9.82396 16.9759 15.2037
261 1 7.06456 17.0246 15.3272
262 1 9.58748 19.8633 15.3108
263 1 6.71673 19.8684 15.2306
264 1 12.5656 17.0932 15.2757
265 1 12.4452 19.7973 15.3387
266 1 4.09367 22.7374 15.2824
267 1 1.14183 22.7545 15.2463
268 1 9.80948 22.7055 15.2486
269 1 6.89037 22.7408 15.3318
270 1 12.4601 22.4632 15.4633
271 1 1.2659 -0.0168852 18.1111
272 1 3.989 0.208014 18.1004
273 1 3.99545 0.294823 20.9156
274 1 1.28716 0.0889082 21.0499
275 1 1.3631 2.86944 18.0662
276 1 4.1147 3.06945 17.8761
277 1 3.75449 2.99897 20.7754
278 1 1.12936 2.88215 21.0159
279 1 7.03094 2.81593 18.0931
280 1 9.67727 0.149356 18.212
281 1 9.7089 0.256369 20.9672
282 1 6.69349 3.10604 20.8664
283 1 6.77882 5.63293 17.9643
284 1 9.84215 2.86796 17.9829
285 1 9.72466 3.04839 20.69
286 1 6.7896 5.81652 23.6393
287 1 12.573 0.11818 18.1018
288 1 12.6405 0.12322 20.8717
289 1 12.551 3.08502 18.1008
290 1 12.4711 3.0399 20.8003
291 1 1.32748 5.8476 18.1392
292 1 4.01403 5.73317 17.8792
293 1 4.04799 5.76414 20.8355
294 1 1.08863 5.75977 20.738
295 1 1.27683 8.62254 17.8595
296 1 4.05748 8.59779 18.1235
297 1 4.05975 8.4297 20.906
298 1 1.0874 8.57327 20.8067
299 1 6.97007 5.95027 15.2207
300 1 9.62108 5.72307 17.8872
301 1 9.57654 5.81116 20.7125
302 1 6.9114 5.73018 20.8787
303 1 6.91144 8.64312 15.2955
304 1 9.5586 8.6534 18.2221
305 1 9.70544 8.6121 20.9272
306 1 6.92647 8.57884 18.2077
307 1 12.4636 5.92653 18.0452
308 1 12.4014 5.78921 20.9609
309 1 12.3568 8.58849 18.1593
310 1 12.5913 8.78712 20.928
311 1 1.25248 11.3685 18.1751
312 1 3.97261 11.3156 18.1302
313 1 4.02831 11.3927 20.9438
314 1 1.36059 11.2475 21.0679
315 1 1.25759 14.1327 18.091
316 1 4.09694 14.0553 18.0644
317 1 4.15494 14.274 20.8391
318 1 1.2155 14.1034 20.885
319 1 6.91308 11.2999 18.0083
320 1 9.82214 11.518 18.212
321 1 9.70306 11.4676 21.1261
322 1 6.81837 11.4838 20.7503
323 1 6.88913 14.2338 18.089
324 1 9.78524 14.2864 18.1187
325 1 9.76956 14.3767 20.8809
326 1 6.79226 14.3506 20.7925
327 1 12.4695 11.4271 18.0584
328 1 12.5002 11.4992 20.8774
329 1 12.5627 14.1033 18.0416
330 1 12.5553 14.2922 20.8648
331 1 1.42868 17.1129 18.0664
332 1 4.25445 17.0288 18.1662
333 1 4.06838 17.0487 20.7886
334 1 1.30677 17.0019 20.7737
335 1 1.27133 20.008 18.1581
336 1 4.14507 19.8934 18.1547
337 1 4.05745 19.9743 20.9528
338 1 1.33092 19.8952 20.9588
339 1 6.91178 17.0244 18.087
340 1 9.66245 17.1387 18.0095
341 1 9.7174 17.1404 20.8204
342 1 6.91259 17.1005 20.9188
343 1 7.11669 19.8618 18.1267
344 1 9.78304 19.8711 18.1521
345 1 9.64185 19.9526 21.0402
346 1 6.92537 20.0385 20.9192
347 1 12.4347 17.0487 18.0064
348 1 12.5788 17.0651 20.826
349 1 12.6368 19.8596 18.1606
350 1 12.4671 19.9802 20.9735
351 1 1.30703 22.7191 18.0544
352 1 4.16511 22.7977 18.1451
353 1 4.10963 22.7375 20.9137
354 1 1.31686 22.7019 20.835
355 1 7.07591 22.8509 18.0899
356 1 9.75349 22.8524 17.951
357 1 9.6008 22.8847 20.7247
358 1 6.86117 22.6691 20.9333
359 1 12.5606 22.7237 18.3055
360 1 12.5073 22.744 21.0095
361 1 1.37931 0.258595 23.8278
362 1 4.11432 0.285648 23.6348
363 1 4.03068 0.193388 26.597
364 1 1.21343 0.319228 26.5612
365 1 1.19429 2.94362 23.7368
366 1 4.0429 3.10916 23.7957
367 1 4.23313 2.98703 26.5445
368 1 1.45349 3.05166 26.5321
369 1 6.88579 3.0126 23.7113
370 1 9.54124 0.315347 23.738
371 1 9.75656 0.292289 26.4237
372 1 7.01363 2.9511 26.4417
373 1 6.76531 5.73103 26.4986
374 1 9.68471 2.99288 23.4796
375 1 9.87887 3.03063 26.3805
376 1 9.56426 5.87451 26.2905
377 1 12.4088 0.279883 23.7399
378 1 12.5982 0.18804 26.3461
379 1 12.4144 3.03448 23.6167
380 1 12.4801 2.9453 26.4773
381 1 1.40593 5.77183 23.6386
382 1 4.03621 5.89919 23.7416
383 1 3.98283 5.69432 26.603
384 1 1.23867 5.89169 26.3629
385 1 1.23984 8.66352 23.5621
386 1 4.04662 8.66758 23.8547
387 1 4.00128 8.60193 26.5646
388 1 1.3047 8.83773 26.4863
389 1 6.90205 8.60522 23.7534
390 1 9.64532 5.68771 23.5095
391 1 9.69412 8.51207 26.4538
392 1 6.84783 8.62681 26.5364
393 1 6.76198 8.67612 21.0041
394 1 9.65382 8.49551 23.7357
12015 2 5.46607 4.41925 27.9948
396 1 6.83601 11.5092 26.3366
397 1 12.4493 5.83338 23.6391
398 1 12.5097 5.76219 26.511
399 1 12.4711 8.63247 23.7273
400 1 12.5648 8.58508 26.537
401 1 1.25717 11.4996 23.9174
402 1 3.98919 11.5381 23.8052
403 1 4.1065 11.5028 26.4933
404 1 1.24061 11.4745 26.5127
405 1 1.22787 14.2344 23.6363
406 1 4.07958 14.1835 23.7105
407 1 4.05334 14.3329 26.4016
408 1 1.36184 14.21 26.5438
409 1 6.89358 11.3998 23.6157
410 1 9.58172 11.3948 23.7325
411 1 9.66253 11.5013 26.3971
15172 2 13.8663 10.0526 19.5147
413 1 6.9008 14.3817 23.5277
414 1 9.65888 14.2241 23.7069
415 1 9.78539 14.403 26.3655
416 1 6.92988 14.1617 26.3733
417 1 12.5449 11.2277 23.6866
418 1 12.5257 11.4327 26.4621
419 1 12.4447 14.0947 23.6641
420 1 12.3954 14.3291 26.4584
421 1 1.19816 16.9018 23.3877
422 1 4.16565 17.0469 23.7361
423 1 4.18134 17.1191 26.4544
424 1 1.30907 16.9201 26.4456
425 1 1.3484 19.7089 23.6928
426 1 4.17693 19.9279 23.7083
427 1 3.90127 19.8993 26.5059
428 1 1.2127 19.8634 26.4854
429 1 6.90169 17.0334 23.6518
430 1 9.86243 17.1424 23.6133
431 1 9.73407 17.1226 26.3381
432 1 7.02677 16.9606 26.2958
433 1 7.09027 19.7675 23.7546
434 1 9.77452 19.9422 23.8771
435 1 9.80332 19.8824 26.495
436 1 6.80018 19.9779 26.5686
437 1 12.5874 17.0034 23.7645
438 1 12.5624 17.0698 26.5959
439 1 12.5191 19.7774 23.7182
440 1 12.4493 19.8001 26.5828
441 1 1.33467 22.6348 23.5413
442 1 4.13276 22.6533 23.7617
443 1 4.03666 22.8126 26.5121
444 1 1.17125 22.7519 26.3672
445 1 6.90024 22.523 23.6975
446 1 9.7965 22.8955 23.5587
447 1 9.69211 22.7025 26.3845
448 1 6.83399 22.6929 26.5299
449 1 12.6002 22.4906 23.8286
450 1 12.5302 22.614 26.5768
12019 2 11.1755 4.40273 27.9153
12250 2 11.0663 24.0602 25.1833
12016 2 8.29588 7.23802 27.8801
12039 2 11.022 15.7779 27.9559
5906 1 6.96599 0.281613 21.0126
12032 2 2.67972 18.4312 27.9421
12249 2 11.1388 21.304 22.4516
12012 2 2.70464 7.11302 27.8889
12049 2 11.166 21.1494 27.9915
12035 2 5.50551 15.6025 27.8661
12026 2 8.35757 12.9032 27.7753
12248 2 5.58071 23.9828 25.123
15211 2 13.8022 7.18279 22.2575
12022 2 2.64168 12.8142 27.928
12148 2 8.37557 21.2575 13.8464
12025 2 5.31705 10.0522 27.85
12006 2 8.30225 1.65194 27.8995
12231 2 -0.223288 15.6926 22.2286
12220 2 11.0445 7.18007 24.9566
12045 2 5.41811 21.226 27.868
12232 2 2.64299 18.3025 22.2186
12216 2 8.33104 7.24752 22.3761
5903 1 6.76267 0.134646 18.1215
12219 2 11.1221 4.43708 22.2082
12218 2 5.39315 7.16319 25.2414
12247 2 8.37967 21.1895 25.1704
12152 2 2.55077 1.52127 16.6859
12227 2 8.22658 9.99398 25.0013
12246 2 8.35386 24.0861 22.3143
12230 2 11.0983 12.8413 25.0614
12156 2 8.25453 1.54923 16.6045
12229 2 11.0123 9.94276 22.4535
12158 2 5.33495 1.60984 19.5002
12217 2 8.28017 4.34076 24.9737
12160 2 11.0996 1.558 19.5201
12245 2 5.54827 21.2737 22.2547
12162 2 2.70366 7.28503 16.628
12163 2 2.57463 4.40832 19.4365
12228 2 5.526 12.8765 25.0401
12165 2 5.452 4.44034 16.5606
12166 2 8.34207 7.23385 16.5991
12167 2 8.21473 4.27945 19.4704
12168 2 5.3676 7.04786 19.4374
12169 2 10.9958 4.30067 16.669
12170 2 10.968 7.15713 19.4356
12243 2 2.68707 21.3349 25.0651
12172 2 2.58209 12.7654 16.632
12173 2 2.6706 9.90974 19.5481
12242 2 2.71923 24.0742 22.2522
12175 2 5.4114 9.99259 16.7164
12176 2 8.333 12.7581 16.7844
12177 2 8.20644 9.99595 19.5078
12178 2 5.57596 12.7878 19.4471
12179 2 11.0727 9.89827 16.7386
12180 2 11.2061 12.9051 19.5223
12236 2 8.38886 18.5772 22.3121
12182 2 2.7106 18.5287 16.5945
12183 2 2.7165 15.5522 19.502
12223 2 2.57271 10.0661 25.0986
12185 2 5.57107 15.6233 16.6979
12186 2 8.27236 18.4675 16.5738
12187 2 8.31346 15.7894 19.4785
12188 2 5.5006 18.4335 19.4657
12189 2 11.1194 15.5928 16.7086
12190 2 11.1664 18.5232 19.36
12226 2 8.37081 12.8311 22.2344
12192 2 2.66001 24.0835 16.6733
12193 2 2.65357 21.2667 19.5444
12225 2 5.36318 9.99681 22.3299
12195 2 5.52705 21.3406 16.8332
12196 2 8.3113 24.2567 16.7272
12197 2 8.41502 21.3259 19.5353
12198 2 5.55411 24.0382 19.6008
12199 2 11.085 21.2807 16.7094
12200 2 11.1763 24.2547 19.4272
12240 2 11.1699 18.4345 25.0674
12202 2 2.75042 1.64954 22.3187
5996 1 6.85369 0.169374 26.5714
12239 2 11.1042 15.5428 22.3023
12222 2 2.63992 12.8013 22.436
12206 2 8.24614 1.59094 22.3158
12235 2 5.5143 15.704 22.1839
12208 2 5.55439 1.56153 24.9981
12233 2 2.74632 15.6675 25.0562
12210 2 11.0608 1.66992 24.9279
12238 2 5.52649 18.4851 25.0974
12212 2 2.52461 7.21884 22.3076
12213 2 2.63693 4.38544 25.0642
12237 2 8.41706 15.7254 25.0111
12215 2 5.45365 4.52937 22.302
15001 2 13.9411 1.51671 27.8413
15241 2 13.986 23.9983 22.2675
12029 2 11.1461 10.0423 27.7878
15162 2 13.8094 4.41674 19.4211
15161 2 14.0419 7.18014 16.6658
15221 2 13.9301 12.7151 22.3959
12181 2 -0.132252 15.653 16.7247
15212 2 13.9441 4.36207 25.0548
15011 2 14.0029 7.00686 27.9364
12046 2 8.25263 23.9482 27.9373
12036 2 8.38024 18.5475 27.7952
15191 2 13.9731 24.081 16.8386
12204 2 -0.0956598 1.58646 25.0695
15031 2 14.0217 18.4042 27.9247
15151 2 13.896 1.55273 16.8
15182 2 13.9433 15.5786 19.4483
15222 2 13.8925 9.83382 25.1236
12194 2 -0.0951435 24.0599 19.5572
12211 2 -0.187431 4.43678 22.2869
15021 2 13.8036 12.9164 27.969
12136 2 2.59439 9.95846 13.8325
12149 2 5.55074 24.0947 13.9101
15041 2 13.9421 24.1312 27.9735
12140 2 11.1138 12.7511 13.8877
12041 2 -0.318399 21.3275 27.8891
12138 2 8.31116 10.0223 13.9022
451 1 1.23965 25.5959 1.09925
452 1 3.98749 25.5493 1.20059
453 1 4.11 25.5003 3.96133
454 1 1.3333 25.3715 4.0255
455 1 6.7365 25.4748 1.18155
456 1 9.64308 25.4485 1.31558
457 1 9.79821 25.5043 3.95028
458 1 6.95473 25.6096 4.10805
459 1 12.6195 31.0283 1.19583
460 1 12.7026 28.2568 4.03323
461 1 1.2022 28.4601 1.24931
462 1 4.10582 28.4038 1.2256
463 1 4.03671 28.0419 3.99669
464 1 1.32886 28.2827 4.01578
465 1 1.05643 31.0762 1.19217
466 1 4.01136 31.127 1.46278
467 1 4.24004 30.92 4.18365
468 1 1.42544 31.1572 4.03839
469 1 6.89028 28.1651 1.39617
470 1 9.77969 28.2984 1.20755
471 1 9.75973 28.237 4.09853
472 1 6.8881 28.4136 4.20757
473 1 6.92658 30.8805 1.25799
904 1 1.4489 50.8626 4.05871
475 1 9.81427 31.0033 3.98938
476 1 6.88177 31.2408 4.11303
477 1 9.83058 31.0004 1.37998
478 1 9.62589 34.0677 1.38301
12329 2 -0.0534 46.7001 8.40936
12284 2 -0.104072 46.5616 2.75015
481 1 1.11897 33.7699 1.26861
482 1 4.32208 33.9071 0.776483
483 1 4.15121 33.7118 4.43446
484 1 1.24875 33.9582 4.24167
12264 2 -0.192968 35.3077 2.77309
486 1 2.86534 35.302 2.55419
487 1 4.02279 36.7089 4.41489
488 1 1.23295 36.8855 4.17414
489 1 6.61375 33.7612 1.94561
847 1 1.07015 36.8366 1.23198
491 1 9.59556 33.8608 3.93134
492 1 6.83761 34.2131 4.35395
493 1 4.58219 36.5808 1.07603
494 1 9.95191 36.5593 1.28949
495 1 9.47348 36.6206 4.1386
496 1 6.72497 36.8208 3.58615
497 1 12.4502 33.8186 1.2753
498 1 12.4719 34.0298 4.13028
499 1 12.561 36.6644 1.23516
500 1 12.579 36.8272 4.15038
501 1 1.38163 39.5669 1.28329
502 1 4.02919 39.4649 1.19718
503 1 4.34608 39.4061 4.02616
504 1 1.44948 39.6103 4.03112
505 1 1.29049 42.1706 1.35302
506 1 4.20503 42.3361 1.30031
507 1 3.89702 42.2927 4.04048
508 1 1.2337 42.3486 4.18506
509 1 6.97937 39.415 1.41836
510 1 9.82795 39.532 1.30151
511 1 9.88607 39.5404 3.98907
512 1 7.0067 39.5364 4.22371
513 1 6.97357 42.165 1.32973
514 1 9.80035 42.3017 1.29152
515 1 9.64212 42.1905 4.22469
516 1 6.8226 42.2593 4.15221
517 1 12.706 39.4968 1.19958
518 1 12.7632 39.4545 4.15587
519 1 12.4583 42.4078 1.34881
520 1 12.2624 42.2583 4.17082
521 1 1.26567 45.0549 1.13567
522 1 4.04474 45.016 1.25059
523 1 4.16412 45.0296 4.11661
524 1 1.21528 45.2227 4.02217
525 1 1.41051 47.9261 1.22209
526 1 4.33461 47.7877 1.22569
527 1 4.14656 47.9471 4.06219
528 1 1.31712 47.9176 4.12756
529 1 6.99014 45.1544 1.19106
530 1 9.63426 45.3088 1.35532
531 1 9.96604 44.9474 4.09352
532 1 6.97545 45.0922 4.08162
533 1 7.02614 47.8528 1.40941
534 1 9.84971 48.1379 1.30263
535 1 9.89483 47.9566 4.12805
536 1 7.09443 47.8637 4.08844
537 1 12.5289 45.2341 1.37784
538 1 12.5567 45.08 4.27584
539 1 12.7145 48.0744 1.09887
540 1 12.5544 47.9875 4.10562
541 1 1.27343 25.5089 6.7944
542 1 4.25708 25.5306 6.75401
543 1 4.13336 25.4204 9.52664
544 1 1.42197 25.4016 9.696
545 1 7.01431 25.5695 6.90205
546 1 9.73385 25.3993 6.9756
547 1 9.71119 25.5159 9.75524
548 1 7.01873 25.6044 9.83785
549 1 12.5195 28.3196 6.73253
550 1 12.6265 25.4943 9.76452
551 1 1.30515 28.204 6.79422
552 1 3.97923 28.2887 6.9094
553 1 4.25473 28.3854 9.73116
554 1 1.47492 28.2808 9.65896
555 1 1.50226 30.9472 6.83765
556 1 4.34507 30.9822 6.91318
557 1 4.27685 31.0591 9.76797
558 1 1.39068 30.9949 9.69332
559 1 6.87834 28.362 6.8605
560 1 9.75043 28.2544 6.93288
561 1 9.70872 28.2712 9.7846
562 1 6.988 28.2722 9.77549
563 1 7.05736 31.229 6.92086
564 1 9.85931 31.0652 6.81495
565 1 9.87199 31.1196 9.56405
566 1 7.09711 31.151 9.74773
567 1 12.6913 31.1504 6.89589
568 1 12.4146 28.329 9.58333
90 1 12.5449 25.4751 1.23892
570 1 12.7011 30.9014 9.66677
571 1 1.46253 33.8421 7.11788
572 1 4.28811 33.9062 7.20867
573 1 4.18694 33.8457 9.86646
574 1 1.30732 33.8511 9.7838
575 1 1.40293 36.6332 6.88065
576 1 4.338 36.7295 7.06949
577 1 4.2864 36.7008 9.78413
578 1 1.52994 36.5642 9.56158
579 1 6.9548 33.902 6.98152
580 1 9.6903 33.8547 7.14649
581 1 9.9113 33.85 9.84943
582 1 6.96423 33.8764 9.66426
583 1 7.0398 36.7884 6.77058
584 1 9.82529 36.6253 6.92409
585 1 9.65063 36.787 9.72772
586 1 7.06857 36.7868 9.61705
587 1 12.3157 33.9137 6.88102
588 1 12.6439 33.7626 9.74221
589 1 12.6583 36.5325 7.12736
590 1 12.5747 36.7355 9.81576
591 1 1.46927 39.4922 7.05342
592 1 4.23973 39.5641 6.92677
593 1 4.19762 39.4534 9.73455
594 1 1.39466 39.4732 9.72382
595 1 1.29855 42.2433 6.94001
596 1 4.15666 42.36 6.87574
597 1 4.25026 42.4408 9.77123
598 1 1.4691 42.3221 9.71658
599 1 6.95828 39.4952 6.91126
600 1 9.95754 39.5074 6.92679
601 1 9.95037 39.6117 9.73525
602 1 6.94833 39.5805 9.66097
603 1 7.06119 42.332 7.00457
604 1 9.86612 42.2258 6.9862
605 1 9.8545 42.4645 9.68787
606 1 7.01204 42.4012 9.79798
607 1 12.7214 39.4012 6.9453
608 1 12.7388 39.5455 9.73262
609 1 12.7394 42.3172 6.91824
610 1 12.6841 42.3118 9.69919
611 1 1.44366 45.0847 6.86794
612 1 4.20484 45.0982 6.99317
613 1 4.12362 45.1565 9.74016
614 1 1.27991 45.1373 9.69519
615 1 1.37686 47.8554 6.85024
616 1 4.1645 47.7705 6.92419
617 1 4.09 47.9313 9.76082
618 1 1.37622 47.9696 9.75373
619 1 7.03026 45.2175 6.97805
620 1 9.82408 45.1212 7.0075
621 1 9.81769 45.205 9.77716
622 1 7.00605 45.1564 9.72548
623 1 6.93353 47.9458 6.88336
624 1 9.64721 47.9104 6.84856
625 1 9.76199 48.0039 9.71596
626 1 6.9604 47.8504 9.86035
627 1 12.6774 45.2725 6.91826
628 1 12.8197 45.0289 9.69232
629 1 12.4936 48.1321 7.03832
630 1 12.5948 47.8957 9.82868
631 1 1.41113 25.4741 12.3813
632 1 4.16913 25.4817 12.3412
633 1 6.94363 25.5185 12.7142
634 1 9.86869 25.4778 12.6172
635 1 12.5245 25.3547 12.5433
636 1 1.43914 28.3955 12.4557
637 1 4.31519 28.2727 12.6302
638 1 1.50439 31.1939 12.6628
639 1 4.27543 31.182 12.54
640 1 7.09053 28.2787 12.5013
641 1 9.91349 28.3048 12.5122
642 1 7.00354 31.1053 12.4981
643 1 9.86285 31.1886 12.4636
644 1 12.7227 28.1025 12.3822
645 1 12.7088 31.0521 12.5598
646 1 1.29312 33.927 12.6158
647 1 4.1246 34.0043 12.6731
648 1 1.39508 36.7761 12.403
649 1 4.13023 36.7545 12.4301
650 1 7.03629 34.0009 12.3176
651 1 9.83638 33.9676 12.543
652 1 7.08997 36.6373 12.4669
653 1 9.94563 36.6948 12.4329
654 1 12.6254 33.8058 12.5145
655 1 12.7915 36.6315 12.5211
656 1 1.36479 39.535 12.5015
657 1 4.24015 39.4244 12.6255
658 1 1.53439 42.3292 12.5581
659 1 4.14762 42.2224 12.5294
660 1 7.10967 39.5724 12.5348
661 1 9.85311 39.4635 12.5494
662 1 6.98793 42.4056 12.5056
663 1 9.82067 42.3093 12.5798
664 1 12.6709 39.384 12.5532
665 1 12.5572 42.2963 12.5284
666 1 1.43142 45.1801 12.5161
667 1 4.25601 45.1322 12.6517
668 1 1.38816 47.8582 12.591
669 1 4.16313 47.8155 12.6415
670 1 7.00563 45.1975 12.5361
671 1 9.77199 45.2003 12.5519
672 1 7.0729 47.883 12.5136
673 1 9.87914 48.0029 12.5376
674 1 12.552 45.1247 12.6163
675 1 12.6763 48.0015 12.5116
12363 2 11.2268 49.3602 11.1173
89 1 12.4597 28.172 1.31475
12253 2 2.66558 26.8275 2.49344
12362 2 5.51759 49.1286 11.2552
12341 2 0.0581197 26.9708 11.0791
180 1 12.432 25.5644 6.93178
12257 2 8.15822 26.7197 2.61053
12258 2 5.41363 29.5431 2.79158
15291 2 14.0769 49.3839 2.62666
12260 2 11.2839 29.5489 2.58944
12360 2 11.1973 43.7788 11.0057
474 1 7.37237 33.3655 -0.317277
12263 2 2.62064 32.5114 2.66878
12359 2 8.4917 46.5683 11.0525
12316 2 -0.0602388 38.1233 5.71282
485 2 2.39831 35.317 0.183071
12267 2 8.30708 32.0765 2.61846
12268 2 5.03785 35.2899 3.05853
12345 2 11.0862 26.8475 11.0132
12270 2 11.4116 35.3414 2.69245
12358 2 5.59022 43.8366 11.2338
12344 2 8.46828 29.6628 11.2229
12273 2 2.66213 38.1577 2.7209
12357 2 2.85409 46.5089 11.1644
12343 2 5.6378 26.8582 11.1235
179 1 12.6547 25.3392 3.97698
12277 2 8.44229 38.3953 2.71725
12278 2 5.47637 40.9535 2.7647
1011 1 9.67791 50.7408 9.51811
12280 2 11.1819 40.93 2.69336
12355 2 11.1598 38.1171 11.0972
12282 2 2.72498 46.4423 -0.118471
12283 2 2.63048 43.6663 2.73784
12354 2 8.4529 41.0183 11.1137
851 1 7.31897 36.352 0.942351
12342 2 2.93911 29.6939 11.166
12287 2 8.44178 43.6975 2.72582
12288 2 5.57815 46.5155 2.66232
12340 2 11.2613 49.3854 5.36341
12290 2 11.2376 46.6249 2.72826
12353 2 5.63284 38.1618 11.2024
12292 2 2.70523 49.3927 2.65399
12272 2 2.67462 40.9617 -0.168519
12294 2 8.47944 49.464 2.82167
12255 2 5.32998 26.8543 -0.307473
12339 2 8.34398 49.1693 8.25642
12297 2 2.75349 29.5741 5.4115
12298 2 2.64839 26.8392 8.26283
12338 2 5.51197 49.2532 5.45581
12300 2 5.54085 26.9097 5.47767
12301 2 8.34989 29.6833 5.564
12302 2 8.28103 26.9766 8.39031
12303 2 5.54528 29.7044 8.22869
12304 2 11.1307 26.8333 5.56276
12305 2 11.1762 29.6822 8.21949
12352 2 2.94051 40.8891 11.1888
12307 2 2.62241 35.2708 5.56172
12308 2 2.90199 32.3525 8.41147
569 1 12.5397 31.1663 4.01671
12310 2 5.53662 32.4939 5.68558
12311 2 8.41198 35.2706 5.83422
12312 2 8.41051 32.5527 8.428
12313 2 5.56838 35.3278 8.48118
12314 2 11.2147 32.4277 5.52243
12315 2 11.1433 35.3784 8.37497
12266 2 8.2425 35.1766 2.67316
12317 2 2.66257 40.9944 5.54688
12318 2 2.77457 38.098 8.31304
12350 2 11.3681 32.4783 11.0889
12320 2 5.47378 38.2239 5.50959
12321 2 8.34903 40.875 5.64513
12322 2 8.34342 38.2142 8.29281
12323 2 5.59256 40.9982 8.38194
12324 2 11.3453 38.2738 5.64698
12325 2 11.3723 40.8489 8.45258
12349 2 8.44603 35.2733 11.08
12327 2 2.71167 46.4305 5.49858
12328 2 2.80115 43.6039 8.35034