ITEM: TIMESTEP
240000
ITEM: NUMBER OF ATOMS
18000
ITEM: BOX BOUNDS xy xz yz pp pp pp
-1.0069251381026516e-01 2.7994692513811323e+01 0.0000000000000000e+00
-1.1642947132588604e+00 3.3589229471329412e+02 0.0000000000000000e+00
-1.0248547508124776e-01 2.7996485475081759e+01 0.0000000000000000e+00
ITEM: ATOMS id type x y z
1 1 1.2939 0.0787438 1.2793
2 1 4.0138 0.21811 1.43291
3 1 4.03141 0.148605 4.33478
4 1 1.28006 0.247703 4.06359
5 1 1.36487 2.9552 1.42079
6 1 4.04303 3.04777 1.25688
7 1 4.27747 2.99109 4.12396
8 1 1.5145 3.06912 4.18204
9 1 7.0023 3.10809 1.24834
10 1 9.5413 0.171581 1.21042
11 1 9.88374 0.0312007 4.05183
12 1 7.02906 2.78024 4.18859
13 1 6.87411 5.90751 1.28411
14 1 9.73466 3.05538 1.31889
15 1 9.8101 3.00812 4.16703
16 1 7.10953 5.40636 4.23764
17 1 12.561 0.223239 1.30855
18 1 12.625 0.281078 4.09732
19 1 12.6007 2.90262 1.18704
20 1 12.5538 2.95064 3.94435
21 1 1.34203 5.59311 1.31062
22 1 4.15699 5.95478 1.3747
23 1 4.28233 5.81101 4.18933
24 1 1.30468 5.87673 4.10298
25 1 1.39244 8.49665 1.39006
26 1 4.27858 8.63666 1.25625
27 1 4.00068 11.4032 4.19005
28 1 1.39658 8.75477 4.07058
12024 2 -0.0809982 12.8874 2.65622
30 1 9.71691 5.76542 1.32409
31 1 10.0335 5.93245 4.10056
32 1 6.63672 8.46883 5.06824
33 1 6.62184 10.6036 3.61721
34 1 9.90817 8.6842 1.09253
35 1 8.16146 7.77692 3.28211
36 1 6.40311 12.147 5.8852
37 1 12.449 5.87736 1.41477
38 1 12.7781 5.69517 4.22753
39 1 12.5808 8.68437 1.30687
40 1 12.5271 8.48933 4.06284
41 1 1.32717 11.3839 1.12566
42 1 3.96868 11.4568 1.33131
43 1 6.97004 14.3562 3.97762
44 1 1.30704 11.4564 4.13276
45 1 1.25205 14.1339 1.25672
46 1 4.08168 14.24 1.28635
47 1 4.17864 14.3464 4.11195
48 1 1.26633 14.3902 3.98649
49 1 3.8954 8.53124 3.96972
50 1 9.87181 11.4873 1.25524
51 1 9.83984 9.35118 4.1775
52 1 8.71547 12.0199 3.77004
53 1 6.96096 17.1506 4.1673
54 1 9.68848 14.3361 1.33927
55 1 12.5485 14.2642 4.0886
56 1 9.66985 14.7315 4.24554
57 1 12.6239 11.4558 1.16389
58 1 12.6769 11.321 3.88435
59 1 12.3947 14.2102 1.35825
12007 2 8.38496 -1.38227 2.70573
61 1 1.28885 17.0724 1.36455
62 1 4.19685 17.1548 1.32112
63 1 4.10997 17.1546 4.24584
64 1 1.40413 17.0659 4.05981
65 1 1.41991 19.9147 1.35405
66 1 4.14707 20.0253 1.3579
67 1 4.17597 19.9121 4.16303
68 1 1.28345 19.857 4.23533
69 1 6.90328 17.0116 1.34942
70 1 9.77934 17.0025 1.3229
71 1 12.4655 17.2032 3.88857
72 1 9.7066 17.2406 4.09415
73 1 7.01989 19.8356 1.36711
74 1 9.61226 20.1308 1.35578
75 1 9.62134 19.9733 4.16074
76 1 6.94502 19.9832 4.14826
77 1 12.6308 16.9606 1.28217
12034 2 -0.0798564 18.494 2.80747
79 1 12.4526 19.8282 1.16701
15022 2 14.0018 10.0184 2.60022
81 1 1.33483 22.6798 1.37538
82 1 4.1517 22.7959 1.28771
83 1 4.06722 22.9342 4.05473
84 1 1.26834 22.6568 4.1206
85 1 6.86549 22.7717 1.28783
86 1 9.79853 22.9508 1.38572
87 1 9.70335 22.7267 4.21041
88 1 6.97142 22.8398 4.21099
12059 2 11.316 -1.10517 5.46704
12002 2 2.70617 1.55397 -0.116025
91 1 1.38181 0.257639 6.9498
92 1 4.13888 0.104981 7.27577
93 1 4.03406 2.84958 9.61693
94 1 1.61935 0.299324 9.70993
95 1 1.30606 3.0519 6.8995
96 1 4.14154 2.94922 6.9031
97 1 6.91358 5.86103 9.85717
98 1 1.302 3.21241 9.79582
99 1 6.8759 3.18469 7.05129
100 1 9.78142 0.3229 6.88192
101 1 9.54479 0.457067 9.57326
102 1 6.79351 3.01181 9.83725
103 1 6.88119 5.95711 7.05976
104 1 9.67216 3.17494 6.83477
105 1 9.83867 3.07163 9.58101
106 1 6.72751 5.74737 12.6532
107 1 12.6691 0.323253 6.78033
108 1 12.4029 0.417484 9.62008
109 1 12.5679 3.01149 6.91307
110 1 12.7252 3.23633 9.82194
111 1 1.18893 5.71962 6.95977
112 1 4.16216 5.74161 6.91995
113 1 4.10367 8.65612 9.82973
114 1 1.4529 6.03001 9.77803
115 1 1.20552 8.61659 6.86944
116 1 3.91652 8.51334 7.05842
117 1 6.62861 9.61701 7.4314
118 1 1.3675 8.71795 9.85481
119 1 9.18785 8.80036 6.72345
120 1 9.78686 6.00226 6.82395
121 1 9.76277 5.80588 9.72551
122 1 7.06368 8.63557 9.92892
123 1 8.6204 11.7089 7.1215
124 1 12.5051 8.52399 6.80544
125 1 11.1662 10.5785 7.8732
126 2 8.52475 10.0983 8.70514
127 1 12.6228 5.72852 6.83447
128 1 12.4964 5.84495 9.62422
12003 2 2.68551 -1.20752 2.70813
130 1 12.7278 11.4938 9.81969
131 1 1.46569 11.4023 6.77607
132 1 4.11813 11.4021 7.15598
133 1 4.03544 11.5573 9.79501
134 1 1.23178 11.4466 9.6273
135 1 1.43804 14.1856 6.95505
136 1 4.11276 14.3811 7.00155
137 1 4.0991 14.2058 9.6811
138 1 1.32433 14.1262 9.84977
139 1 9.82269 14.5 7.13915
140 1 10.7482 12.3514 5.44127
141 1 9.79593 11.5329 9.97904
142 1 6.90584 11.5717 9.67912
143 1 6.86443 14.6464 7.05462
144 1 9.61434 17.2142 7.09881
145 1 9.66412 14.2599 9.91504
146 1 6.92765 14.3272 9.90484
147 1 12.6141 14.0816 7.01921
148 1 12.5925 14.2789 9.77687
149 1 12.2857 17.0646 7.08126
150 1 12.4662 17.0963 9.86125
151 1 1.3161 17.0066 6.97805
152 1 4.13309 17.0035 7.03345
153 1 4.1195 17.0293 9.84927
154 1 1.27862 17.1333 9.76334
155 1 1.43805 19.9419 6.9938
156 1 4.15796 20.0206 7.11742
157 1 4.0759 19.9649 9.9076
158 1 1.34307 19.9955 9.78153
159 1 6.92271 17.3521 7.04158
160 1 12.4534 22.6441 4.32934
161 1 9.51522 17.1161 9.9118
162 1 6.91567 17.1336 9.76259
163 1 6.88332 20.0708 6.9513
164 1 9.74315 19.9819 6.91913
165 1 9.77956 19.8124 9.74166
166 1 6.94167 19.8801 9.79774
241 1 9.70889 8.52268 12.7319
168 1 12.7082 20.0982 9.83795
169 1 12.6357 22.7494 7.04498
170 1 12.3809 22.9785 9.84094
171 1 1.2642 22.9377 6.96388
172 1 3.92604 22.788 6.86513
173 1 4.11711 22.6972 9.76616
174 1 1.26527 22.7682 9.77946
175 1 6.90391 22.8631 6.98149
176 1 9.82182 22.7906 7.00161
177 1 9.57306 22.7309 9.81713
178 1 6.76665 22.747 9.88288
15116 2 13.8957 18.4709 11.1361
15071 2 13.838 12.8627 5.3025
181 1 1.26417 0.235097 12.5313
182 1 4.09479 0.373362 12.2903
183 1 1.23757 3.06177 12.6089
184 1 4.05989 3.16999 12.5415
185 1 6.80727 0.217944 12.4987
186 1 9.66751 0.228787 12.5209
187 1 6.83169 3.05846 12.5037
188 1 9.62169 3.12982 12.4467
189 1 12.5662 0.264822 12.5387
190 1 12.6231 3.08695 12.59
191 1 1.10307 5.98501 12.622
192 1 4.1421 5.87067 9.65154
193 1 1.37705 8.82378 12.6097
194 1 4.15068 8.63526 12.4092
195 1 3.92776 5.8392 12.5618
196 1 9.6266 5.84019 12.6081
197 1 9.80763 8.49732 9.82535
198 1 12.5382 8.55729 9.86879
199 1 12.4646 5.87046 12.5318
200 1 12.6896 8.66206 12.5037
201 1 1.32165 11.5387 12.5308
202 1 4.15916 11.5578 12.5937
203 1 1.39915 14.3457 12.6707
204 1 4.14538 14.2482 12.5601
205 1 6.87472 11.6266 12.4713
206 1 9.71076 11.4279 12.7161
207 1 6.85473 14.4828 12.7171
208 1 9.78048 14.2379 12.6182
209 1 12.5267 11.5953 12.6334
210 1 12.5472 14.3357 12.6859
211 1 1.23811 17.1529 12.484
212 1 4.04543 17.0025 12.6333
213 1 1.21403 19.9824 12.818
214 1 4.05861 19.9891 12.5343
215 1 6.86196 17.171 12.5047
216 1 9.81109 17.0922 12.6955
217 1 6.89059 19.9674 12.5692
218 1 9.59938 19.7495 12.6979
219 1 12.5762 17.1736 12.5729
220 1 12.522 19.9016 12.6061
221 1 1.38531 22.9127 12.5289
222 1 4.11902 22.7695 12.5998
223 1 7.00286 22.741 12.6073
224 1 9.83957 22.6349 12.6255
225 1 12.6386 22.7092 12.593
12125 2 11.2986 21.3576 11.0579
12110 2 11.1963 4.52177 11.1115
12105 2 11.11 -1.00347 11.1545
12124 2 8.49334 24.1388 11.1681
80 1 12.5492 22.6259 1.41672
12109 2 8.26532 7.18265 11.2716
12061 2 -0.0716367 4.49569 5.56124
12008 2 5.55267 1.72112 2.72394
243 1 6.81323 8.68811 12.587
12010 2 11.184 1.49111 2.65483
12123 2 5.52365 21.4752 11.2633
12108 2 5.39131 4.54338 11.1395
12013 2 2.81342 4.38042 2.7184
12122 2 2.74054 24.134 11.0575
12107 2 2.74102 7.34111 11.2318
12112 2 2.82065 12.8945 11.1402
12017 2 8.56472 4.50198 2.9054
12018 2 5.63134 7.39055 2.62144
12104 2 8.20933 1.69803 11.1162
12020 2 11.1301 7.3438 2.68919
60 1 12.5252 19.819 4.02185
15052 2 13.9038 -0.989835 8.29036
12023 2 2.72213 9.99938 2.64668
12120 2 11.0785 15.6669 11.2201
12102 2 2.59961 1.76986 11.2676
12113 2 5.48395 10.0997 11.1482
12027 2 8.4142 9.97148 2.29338
12028 2 5.56638 12.6984 2.89377
12100 2 11.0979 24.268 8.34056
12030 2 10.9196 12.853 2.77058
12099 2 11.2754 21.3508 5.6916
12098 2 5.51726 24.1264 8.27452
12033 2 2.90283 15.6561 2.69326
412 1 6.83773 14.2353 1.33855
12097 2 8.23761 21.3101 8.2849
12096 2 8.37 24.1531 5.5968
12037 2 8.37487 15.7201 2.68261
12038 2 5.68855 18.5237 2.81092
12095 2 5.44843 21.3502 5.45614
12040 2 11.0895 18.5184 2.62043
29 1 6.91527 8.79203 1.07418
12093 2 2.73083 21.2677 8.40478
12043 2 2.79032 21.3585 2.72302
5723 1 6.91557 0.288735 6.90578
12092 2 2.72048 24.2056 5.51146
5634 1 6.80518 0.222844 1.31163
12047 2 8.33179 21.3841 2.74056
12048 2 5.53701 24.2371 2.76043
12090 2 11.1325 18.5057 8.46472
12050 2 11.161 24.0209 2.94176
12119 2 8.26338 18.5307 11.1785
12052 2 2.69778 1.6053 5.42882
15032 2 13.8903 15.5869 2.68905
12118 2 5.56166 15.6141 11.0743
5633 1 6.84782 0.132088 4.15122
12056 2 8.39455 1.5318 5.49107
5726 1 6.66916 0.355815 9.65064
12058 2 5.5365 1.84369 8.25898
129 1 13.3942 11.1633 6.63377
12060 2 11.1819 1.63643 8.26038
12117 2 2.70359 18.5073 11.2159
12062 2 2.69583 7.12764 5.52983
12063 2 2.72058 4.47781 8.2799
12089 2 11.2626 15.6239 5.58863
12065 2 5.52525 4.40833 5.59248
12066 2 8.30624 7.04364 5.489
12067 2 8.37516 4.45003 8.4254
12068 2 5.50632 7.3646 8.39266
12069 2 11.284 4.25817 5.48448
12070 2 11.2173 7.21226 8.28625
12115 2 11.2386 10.0953 11.0668
12072 2 2.69837 12.8369 5.38968
12073 2 2.63073 9.93584 8.43262
12114 2 8.27616 12.8208 11.2355
12075 2 4.96587 10.0496 5.58249
12076 2 8.39966 13.5005 5.61315
12077 2 8.02812 10.2908 5.4615
12078 2 5.49751 12.8523 8.28399
12079 2 11.5027 10.2411 5.50281
12080 2 11.1194 12.8787 8.35839
395 1 6.99798 11.5697 1.10884
12082 2 2.72313 18.3959 5.61113
12083 2 2.70794 15.5917 8.53834
15081 2 13.6572 18.2914 5.53572
12085 2 5.53014 15.9062 5.48441
12086 2 8.36826 18.6 5.5271
12087 2 8.38336 15.7394 8.5009
12088 2 5.48307 18.5003 8.51497
167 1 12.4741 19.8276 7.05018
12041 2 0.0280138 21.2858 -0.123791
12116 2 -0.0122893 15.7517 11.1382
15062 2 14.072 4.47932 8.23632
12121 2 -0.026856 21.3491 11.2111
12011 2 -0.0850311 4.4462 -0.0612498
12021 2 -0.146216 10.0486 -0.0805342
12046 2 8.22437 24.2195 -0.0579378
12091 2 -0.0435492 21.2093 5.61563
12042 2 2.85637 24.2585 -0.0833005
15091 2 13.857 24.2443 5.6755
12035 2 5.56929 15.7469 -0.0943694
12014 2 -0.0376248 7.27909 2.84304
15111 2 13.9884 12.8489 11.3237
12111 2 -0.147362 10.1102 11.2254
12084 2 -0.0695218 18.4771 8.29428
15082 2 14.1451 15.4638 8.30302
12134 2 5.4315 7.22189 14.0792
12143 2 8.28818 15.7963 14.0566
12026 2 8.2716 13.0222 -0.130144
12150 2 11.1947 24.124 14.0111
12049 2 11.117 21.4654 -0.14009
12135 2 11.124 7.32935 13.928
15041 2 14.0232 24.0744 0.021224
12138 2 8.39794 9.99729 14.0155
12148 2 8.3907 21.2677 14.0307
12036 2 8.27579 18.5448 -0.108039
226 1 4.21319 0.307923 15.3072
227 1 1.3816 0.237856 15.3474
228 1 4.19488 3.19771 15.392
229 1 1.3411 3.12563 15.3914
230 1 9.68278 0.271513 15.3708
231 1 7.03182 0.216559 15.2182
232 1 9.81876 3.00667 15.2146
233 1 7.03262 3.06397 15.3708
234 1 12.5428 0.388541 15.4304
235 1 12.6075 3.24568 15.3398
236 1 4.12206 5.9433 15.4137
237 1 1.32045 5.82218 15.3588
238 1 4.1361 8.74872 15.2713
239 1 1.28327 8.76283 15.4118
240 1 9.57273 5.87558 15.4463
12137 2 -0.0606438 12.9167 13.9373
242 1 9.74292 8.6799 15.3404
5993 1 6.90561 0.146255 23.7501
244 1 12.4811 5.9263 15.2368
245 1 12.5045 8.70769 15.4622
246 1 4.07667 11.3815 15.4796
247 1 1.34395 11.5944 15.2146
248 1 4.09805 14.1798 15.4399
249 1 1.24856 14.4295 15.4851
250 1 9.7991 11.5736 15.4346
251 1 6.94746 11.5308 15.1914
252 1 9.60516 14.3575 15.3326
253 1 6.91596 14.4225 15.6318
254 1 12.589 11.4229 15.3491
255 1 12.6418 14.2917 15.4496
256 1 4.08461 17.1095 15.399
257 1 1.23404 17.1893 15.487
258 1 4.21846 19.9032 15.4228
259 1 1.38834 20.0566 15.3411
260 1 9.64488 17.0191 15.5934
261 1 6.89965 17.2528 15.3487
262 1 9.862 19.8321 15.5178
263 1 7.03532 19.8537 15.3105
264 1 12.4198 17.041 15.3548
265 1 12.6781 19.856 15.2745
266 1 4.13826 22.792 15.5864
267 1 1.25921 22.8697 15.306
268 1 9.79014 22.7019 15.3801
269 1 6.88385 22.6396 15.3315
270 1 12.6073 22.5834 15.3758
271 1 1.23019 0.390584 18.1726
272 1 4.03223 0.146903 18.1093
273 1 4.04053 0.35384 20.9499
274 1 1.19255 0.250561 20.8035
275 1 1.45745 3.25792 18.1069
276 1 4.11579 3.11077 18.0415
277 1 4.18561 3.11562 20.83
278 1 1.34814 3.22231 21.0448
279 1 6.95387 3.04416 18.0917
280 1 9.73835 0.208042 18.1245
281 1 9.82617 0.245319 21.0571
282 1 6.95141 2.85429 20.9923
283 1 6.94863 5.94485 18.1805
284 1 9.6023 3.06977 18.0615
285 1 9.90326 3.15821 20.9636
286 1 6.8499 5.91254 23.6689
287 1 12.623 0.218562 18.2261
288 1 12.5762 0.212023 21.059
289 1 12.4978 3.09137 18.1033
290 1 12.5487 3.08372 20.9405
291 1 1.52094 5.91369 18.205
292 1 4.25356 5.87251 18.2282
293 1 4.09605 5.89684 21.1499
294 1 1.35951 6.06894 20.9702
295 1 1.39311 8.73954 18.1566
296 1 4.23415 8.67703 18.1341
297 1 4.09531 8.7336 20.9684
298 1 1.32362 8.88757 21.0001
299 1 6.65785 5.73979 15.3557
300 1 9.79507 5.74996 18.3694
301 1 9.64634 5.89455 21.0949
302 1 6.99054 5.82427 20.9891
303 1 6.96664 8.57409 15.5263
304 1 9.73076 8.58589 18.1543
305 1 9.86236 8.7648 20.96
306 1 6.93855 8.8794 18.2271
307 1 12.4253 5.91027 18.1892
308 1 12.5362 5.91223 21.1949
309 1 12.6233 8.57754 18.2539
310 1 12.601 8.6613 21.1668
311 1 1.21026 11.4814 18.1617
312 1 4.08452 11.5416 18.1273
313 1 4.14122 11.5853 21.071
314 1 1.32243 11.6376 20.9632
315 1 1.21767 14.4382 18.1309
316 1 3.91487 14.2418 18.1908
317 1 4.13716 14.3978 20.8753
318 1 1.29915 14.439 21.0046
319 1 7.0184 11.5735 18.1071
320 1 9.74824 11.5128 18.2159
321 1 9.68846 11.4314 20.9867
322 1 6.77812 11.6572 21.0456
323 1 6.9662 14.4069 18.2676
324 1 9.75197 14.2107 18.3107
325 1 9.66905 14.2451 21.2549
326 1 6.91888 14.4011 21.112
327 1 12.4752 11.5218 17.995
328 1 12.5311 11.5372 20.84
329 1 12.5072 14.3024 18.2561
330 1 12.4642 14.154 21.0612
331 1 1.26966 17.249 18.2276
332 1 4.18667 17.0925 18.2358
333 1 3.96954 17.3162 20.9628
334 1 1.28137 17.164 21.0946
335 1 1.41323 20.114 18.0957
336 1 4.12258 19.873 18.3154
337 1 4.09354 20.073 21.0658
338 1 1.26213 20.0334 20.9504
339 1 6.90907 17.1294 18.1769
340 1 9.66946 16.9007 18.4212
341 1 9.7175 17.103 21.1609
342 1 6.91415 17.2278 21.1251
343 1 6.96421 19.896 18.1349
344 1 9.8014 19.8048 18.3927
345 1 9.76565 19.9176 21.1922
346 1 7.0158 19.9384 20.9044
347 1 12.3514 17.1751 18.2253
348 1 12.6192 17.2357 21.0371
349 1 12.5594 19.9245 18.2036
350 1 12.6054 19.9222 21.0333
351 1 1.3922 22.9415 18.0962
352 1 4.22115 22.7119 18.3224
353 1 4.04047 22.7951 20.9884
354 1 1.51012 22.8592 20.9611
355 1 7.05261 22.7243 18.1764
356 1 9.81081 22.8078 18.16
357 1 9.76659 22.8294 20.9429
358 1 6.93188 22.7443 20.915
359 1 12.6299 22.8192 18.3231
360 1 12.4919 22.5902 21.147
361 1 1.30656 0.200527 23.7342
362 1 3.99295 0.314843 23.7422
363 1 3.94923 0.226694 26.7143
364 1 1.17623 0.232192 26.5564
365 1 1.47372 2.95314 23.6569
366 1 4.27802 3.21618 23.8332
367 1 4.04317 3.1319 26.622
368 1 1.26563 2.98542 26.6493
369 1 6.89397 3.01741 23.8183
370 1 9.63771 0.150946 23.8263
371 1 9.76771 0.0947351 26.5988
372 1 6.96036 2.96884 26.6228
373 1 6.78588 5.74448 26.5735
374 1 9.72693 2.95297 23.9159
375 1 9.93017 3.01706 26.5225
376 1 9.66954 5.87081 26.6773
377 1 12.5081 0.091698 23.8725
378 1 12.5462 0.188456 26.6884
379 1 12.5977 3.11856 23.8427
380 1 12.7356 2.87929 26.5337
381 1 1.16259 5.81062 23.8363
382 1 4.13094 5.91243 23.8433
383 1 4.03163 5.94002 26.7194
384 1 1.35192 5.86237 26.6126
385 1 1.21536 8.72907 23.8459
386 1 4.14048 8.73079 23.7189
387 1 4.17781 8.78518 26.5535
388 1 1.35572 8.72533 26.6601
389 1 6.80571 8.68214 23.8156
390 1 9.68429 5.84083 23.84
391 1 9.74022 8.57858 26.4945
392 1 6.91403 8.68455 26.4926
393 1 6.98521 8.57947 20.9612
394 1 9.74432 8.66737 23.691
12164 2 -0.133294 7.30718 19.5802
396 1 7.07107 11.7005 26.38
397 1 12.4972 5.81054 23.9568
398 1 12.5566 5.89599 26.6876
399 1 12.6274 8.6958 23.9238
400 1 12.5569 8.7848 26.5608
401 1 1.32885 11.6173 23.78
402 1 4.11463 11.5046 23.8096
403 1 4.11603 11.4588 26.6747
404 1 1.45524 11.5399 26.5491
405 1 1.22584 14.3294 23.7606
406 1 4.20335 14.1416 23.7188
407 1 4.18466 14.3541 26.5943
408 1 1.27823 14.408 26.6673
409 1 6.98931 11.5028 23.6889
410 1 9.82372 11.4911 23.9074
411 1 9.95894 11.4154 26.7122
12153 2 2.71486 -1.17466 19.5024
413 1 6.90609 14.4 23.8119
414 1 9.67978 14.3614 23.9077
415 1 9.68439 14.2799 26.6906
416 1 6.9253 14.3837 26.4542
417 1 12.6583 11.5681 23.7219
418 1 12.687 11.6813 26.5095
419 1 12.5446 14.4322 23.9498
420 1 12.7846 14.3257 26.6138
421 1 1.19006 16.974 23.7749
422 1 4.05651 16.9949 23.8715
423 1 3.98234 17.0563 26.584
424 1 1.2118 17.1553 26.8399
425 1 1.25673 19.8783 23.8886
426 1 3.95295 19.9137 23.9837
427 1 4.02752 19.9766 26.8492
428 1 1.38634 19.867 26.6399
429 1 6.80322 17.1534 23.8817
430 1 9.88049 17.1552 23.9247
431 1 9.7166 17.1778 26.6013
432 1 6.95237 17.2973 26.6767
433 1 6.86522 19.9447 23.757
434 1 9.7845 19.9097 23.9646
435 1 9.70694 19.8929 26.5419
436 1 6.84029 19.9476 26.5549
437 1 12.5087 17.1967 23.7499
438 1 12.5683 17.1384 26.669
439 1 12.6071 19.8852 23.7665
440 1 12.5476 20.1276 26.5162
441 1 1.26023 22.7397 23.7231
442 1 4.19755 22.764 23.72
443 1 4.12556 22.849 26.5076
444 1 1.34116 22.8271 26.7051
445 1 6.998 22.7143 23.7293
446 1 9.79599 22.7103 23.8097
447 1 9.6573 22.7467 26.6696
448 1 6.91037 22.7715 26.6258
449 1 12.5649 22.675 23.9228
450 1 12.7634 23.0125 26.712
12126 2 2.63751 -1.08041 13.8918
12250 2 11.2206 24.0899 25.3322
12146 2 2.6768 21.3866 13.9803
15182 2 13.875 15.7707 19.731
5906 1 6.72052 0.194732 20.8588
12149 2 5.49858 24.1642 13.984
12249 2 11.1779 21.1971 22.4163
15241 2 14.067 24.0927 22.5527
12016 2 8.39163 7.17471 28.075
12155 2 5.53392 -1.16179 16.7331
12133 2 8.20116 4.44706 13.9407
12248 2 5.56916 24.2046 25.1372
12194 2 0.0164453 24.1134 19.5966
12129 2 5.5086 1.71039 13.9089
12019 2 11.2864 4.41112 27.9856
12025 2 5.50652 10.1045 27.9224
15231 2 13.9738 18.6372 22.4387
12015 2 5.40578 4.41702 28.0502
12220 2 11.1264 7.24357 25.2287
12001 2 -0.219398 -1.10582 28.104
12232 2 2.65682 18.6303 22.3929
12216 2 8.32017 7.33621 22.5132
5903 1 6.95786 0.0948972 18.0879
12219 2 11.0832 4.48324 22.4217
12218 2 5.52658 7.28561 25.2659
12247 2 8.25079 21.3181 25.1688
12152 2 2.7055 1.72267 16.7258
12227 2 8.35873 10.0334 25.1705
12246 2 8.47292 24.0853 22.3605
12230 2 11.1567 12.9549 25.2289
12156 2 8.28741 1.56318 16.7251
12229 2 11.156 9.99977 22.321
12158 2 5.56572 1.64685 19.4191
12217 2 8.28939 4.45398 25.2442
12160 2 11.1393 1.75003 19.614
12245 2 5.56103 21.3543 22.3493
12162 2 2.83017 7.38796 16.9261
12163 2 2.7951 4.57532 19.5905
12228 2 5.64841 12.9169 25.1922
12165 2 5.50144 4.438 16.7551
12166 2 8.36268 7.0963 16.8165
12167 2 8.32128 4.42812 19.6388
12168 2 5.5846 7.29908 19.7303
12169 2 11.12 4.50858 16.7796
12170 2 11.1202 7.20772 19.6152
12243 2 2.76534 21.5024 25.2131
12172 2 2.71935 12.882 16.7993
12173 2 2.79857 10.179 19.6217
12242 2 2.69005 24.214 22.3476
12175 2 5.55243 10.0399 16.7552
12176 2 8.41765 12.9762 16.8113
12177 2 8.37801 10.1688 19.5071
12178 2 5.49897 12.9554 19.5756
12179 2 11.1165 10.0485 16.6847
12180 2 11.1143 12.8915 19.731
12236 2 8.27979 18.5407 22.5717
12182 2 2.62813 18.4188 16.83
12183 2 2.64131 15.7892 19.6174
12223 2 2.71146 10.0412 25.1712
12185 2 5.55847 15.669 16.9234
12186 2 8.30557 18.4836 16.8364
12187 2 8.20519 15.626 19.6939
12188 2 5.54626 18.6143 19.6003
12189 2 11.1102 15.7641 16.9329
12190 2 11.1195 18.4787 19.6576
12226 2 8.33658 12.8647 22.6017
12192 2 2.82883 24.2543 16.7928
12193 2 2.81557 21.4234 19.6362
12225 2 5.45372 10.1386 22.3569
12195 2 5.50497 21.2621 16.7944
12196 2 8.39797 23.994 16.7137
12197 2 8.37104 21.3183 19.4857
12198 2 5.65932 24.0935 19.6118
12199 2 11.2194 21.3484 16.8
12200 2 11.2167 24.1675 19.6295
12240 2 11.194 18.5456 25.2814
12202 2 2.71146 1.58965 22.3066
5996 1 6.95948 0.202339 26.5216
12239 2 11.1672 15.8208 22.5231
12222 2 2.73341 12.8985 22.3694
12206 2 8.22172 1.61217 22.4023
12235 2 5.47589 15.7637 22.4406
12208 2 5.4998 1.57607 25.131
12233 2 2.62361 15.5837 25.1944
12210 2 11.0954 1.56174 25.1792
12238 2 5.33803 18.5365 25.3394
12212 2 2.745 7.31204 22.3736
12213 2 2.74072 4.49398 25.2498
12237 2 8.30316 15.866 25.1803
12215 2 5.51902 4.40378 22.3469
12204 2 -0.116595 1.61201 25.2045
12205 2 5.26772 -1.18886 22.3093
12203 2 2.68406 -1.2619 25.1208
12029 2 11.2694 10.0654 27.9535
15001 2 14.1867 1.55711 27.8801
15181 2 13.947 18.4877 16.8395
12145 2 11.2243 18.5259 13.9871
12159 2 11.1608 -1.16784 16.8179
12006 2 8.27147 1.67191 28.0496
12039 2 11.1329 15.7184 28.0102
12214 2 -0.231789 7.25842 25.137
15031 2 13.9066 18.4915 28.0138
12244 2 -0.188566 24.1772 25.1409
15172 2 14.0268 10.0943 19.5011
12147 2 -0.0282341 24.3519 13.9625
12181 2 -0.262727 15.7307 16.8743
12184 2 -0.0679362 18.468 19.721
12221 2 -0.132154 10.1246 22.2753
12171 2 -0.184445 10.1154 16.9047
12241 2 -0.130974 21.2513 22.3929
15191 2 14.0429 24.1151 16.7437
12144 2 5.47093 18.5412 13.8779
15242 2 13.9573 21.2604 25.1369
15141 2 14.0618 15.6526 14.1014
12012 2 2.71989 7.15148 28.0288
12130 2 11.1635 1.6713 13.9192
12022 2 2.81559 12.7835 28.1047
12131 2 2.62586 4.49814 14.0577
12045 2 5.51578 21.3376 28.0931
12136 2 2.81394 10.251 13.9432
12142 2 -0.0935132 18.404 14.0618
12141 2 2.77581 15.5893 14.0425
12139 2 5.52215 12.9296 13.9377
12140 2 11.1563 13.0666 14.0385
12032 2 2.69817 18.4143 28.0188
12132 2 -0.0781105 7.40809 14.1279
451 1 1.40052 25.4093 1.47848
452 1 4.1328 25.548 1.32305
453 1 4.03314 25.6511 4.11513
454 1 1.25398 25.4617 4.17647
455 1 6.93615 25.5367 1.37975
456 1 9.82543 25.621 1.58885
457 1 9.58738 25.6175 4.30141
458 1 6.89029 25.673 4.07866
459 1 12.6339 31.3112 1.35355
460 1 12.4818 28.3401 4.15533
461 1 1.19836 28.3021 1.37169
462 1 4.14111 28.2582 1.28893
463 1 4.07905 28.3504 4.18687
464 1 1.39208 28.1719 4.26982
465 1 1.39929 31.1939 1.31535
466 1 4.12654 31.1824 1.27029
467 1 4.21598 31.0528 4.19477
468 1 1.30047 31.1162 4.14965
469 1 6.95429 28.4249 1.42323
470 1 9.75563 28.4892 1.15507
471 1 9.69438 28.4551 3.99853
472 1 7.03034 28.4845 4.09519
473 1 6.97599 31.1105 1.33773
12361 2 -0.0826256 49.45 11.1869
475 1 9.76947 31.2522 4.13753
476 1 7.00093 31.1256 4.15177
477 1 9.87295 31.2449 1.37281
478 1 9.64327 33.9351 1.66066
12309 2 -0.0721992 35.4589 8.31608
12275 2 5.61091 38.6887 -0.0081844
481 1 1.20191 33.7335 1.24224
482 1 4.22996 34.0616 1.10454
483 1 4.1417 33.8191 4.32679
484 1 1.15685 33.9061 4.18177
15351 2 14.1217 41.1356 11.1972
486 1 2.7072 35.3477 2.68248
487 1 4.05635 37.0074 4.28175
488 1 1.29642 36.9048 4.29082
489 1 6.88182 34.7207 1.34939
847 1 1.17388 36.8703 1.18008
491 1 9.59052 34.3698 4.46053
492 1 6.91014 33.9052 3.85555
493 1 4.42981 36.9246 0.854884
494 1 9.71479 36.5789 1.70521
495 1 9.35942 36.9585 4.24659
496 1 6.75435 36.2388 4.64731
497 1 12.5319 34.0075 1.22862
498 1 12.5617 33.9349 4.14732
499 1 12.5208 36.8164 1.28286
500 1 12.4931 36.8129 4.07005
501 1 1.25486 39.6939 1.29514
502 1 4.09076 39.6417 1.55312
503 1 4.26925 39.6422 4.2503
504 1 1.26499 39.5979 4.22149
505 1 1.30708 42.4169 1.38568
506 1 4.25986 42.4961 1.47343
507 1 4.07082 42.4507 4.25213
508 1 1.18292 42.5436 4.24875
509 1 6.96513 39.9615 1.45548
510 1 9.75743 39.7043 1.25229
511 1 9.97045 39.7492 4.00041
512 1 7.15875 39.6356 4.3249
513 1 7.09468 42.5452 1.30375
514 1 9.87099 42.5279 1.339
515 1 9.88549 42.4208 4.18258
516 1 6.96092 42.5003 4.25429
517 1 12.5589 39.4955 1.27805
518 1 12.7579 39.6397 4.15234
519 1 12.6994 42.4888 1.30023
520 1 12.642 42.5374 4.02239
521 1 1.0928 45.3357 1.47475
522 1 3.99127 45.3065 1.3764
523 1 4.07875 45.3088 4.16667
524 1 1.21125 45.3508 4.42702
525 1 1.25382 48.157 1.36378
526 1 4.10052 48.0253 1.37478
527 1 4.16637 48.1603 4.20108
528 1 1.33329 48.0364 4.11772
529 1 6.83197 45.2559 1.31638
530 1 9.79795 45.3071 1.47884
531 1 9.74602 45.2685 4.14667
532 1 7.02343 45.1596 4.27826
533 1 7.12425 47.8166 1.46401
534 1 9.8814 48.0649 1.46071
535 1 9.89836 47.9581 4.28537
536 1 7.05644 48.0655 3.93241
537 1 12.5874 45.1461 1.25852
538 1 12.5845 45.2972 4.24639
539 1 12.6071 48.0018 1.46232
540 1 12.6327 48.1754 4.26707
541 1 1.32652 25.6554 6.99207
542 1 4.2123 25.5531 6.86501
543 1 4.24066 25.6076 9.70793
544 1 1.22944 25.5485 9.83615
545 1 6.95312 25.8078 6.92852
546 1 9.76848 25.6488 6.97338
547 1 9.80525 25.619 9.76464
548 1 6.96572 25.4547 9.68122
549 1 12.5646 28.4385 6.86872
550 1 12.6324 25.7608 9.78136
551 1 1.26794 28.2656 6.97062
552 1 4.04012 28.3047 7.0487
553 1 4.28892 28.5207 9.86852
554 1 1.34551 28.4207 9.70801
555 1 1.4485 31.1103 6.9483
556 1 4.18502 30.9609 6.79073
557 1 4.3493 31.2756 9.67386
558 1 1.42229 31.1429 9.67988
559 1 6.95214 28.4871 6.87048
560 1 9.76486 28.2707 6.9332
561 1 9.76113 28.3518 9.69216
562 1 6.97329 28.2011 9.68022
563 1 7.01636 31.1706 7.01709
564 1 9.7274 31.1675 6.89864
565 1 9.82948 31.256 9.75409
566 1 7.14436 30.9558 9.65826
567 1 12.6445 31.1163 6.92508
568 1 12.5496 28.4298 9.63735
90 1 12.492 25.5234 1.3779
570 1 12.5464 31.3574 9.49574
571 1 1.30671 33.8961 6.99154
572 1 4.17743 34.0174 7.10503
573 1 4.3156 34.0482 9.77564
574 1 1.3322 34.0572 9.8047
575 1 1.37828 36.9602 7.0557
576 1 4.21741 36.7373 6.94461
577 1 4.06165 36.8609 9.64515
578 1 1.28476 36.8799 9.77049
579 1 6.96892 33.9266 6.98388
580 1 9.75196 34.0567 7.20078
581 1 9.86727 34.0039 9.8682
582 1 6.98187 33.902 9.73541
583 1 7.18401 37.0076 7.15865
584 1 9.84787 36.9346 7.20562
585 1 9.74353 36.9063 9.83294
586 1 6.93391 36.7671 10.0021
587 1 12.6055 34.1317 7.03435
588 1 12.644 34.0037 9.65806
589 1 12.697 36.8606 7.0519
590 1 12.5876 36.9169 9.89512
591 1 1.30419 39.6404 6.97105
592 1 4.26585 39.5375 7.06565
593 1 4.32525 39.5833 9.80859
594 1 1.54314 39.5973 9.72745
595 1 1.32114 42.3951 6.98402
596 1 4.18465 42.3678 7.09615
597 1 4.34783 42.4526 9.85036
598 1 1.52933 42.5505 9.78248
599 1 6.99214 39.7902 7.18292
600 1 9.80502 39.7408 6.92846
601 1 9.72064 39.6394 9.81772
602 1 7.05945 39.7197 9.93783
603 1 6.96156 42.6792 7.07245
604 1 9.83922 42.4131 7.00403
605 1 9.94249 42.5396 9.77696
606 1 7.14239 42.5981 9.95482
607 1 12.5575 39.7093 7.18269
608 1 12.7154 39.7467 9.91417
609 1 12.6839 42.3635 6.88349
610 1 12.6538 42.4737 9.83789
611 1 1.39978 45.1717 7.05903
612 1 4.16414 45.1853 7.03164
613 1 3.99711 45.1719 9.98269
614 1 1.33647 45.2721 9.81678
615 1 1.43038 47.847 6.89203
616 1 4.17872 48.2962 6.95116
617 1 3.98589 47.8652 9.72223
618 1 1.22162 48.1545 9.70571
619 1 6.90128 45.3649 7.07774
620 1 9.66609 45.1637 7.01785
621 1 9.89384 45.3087 9.81904
622 1 6.92582 45.3568 9.89482
623 1 6.8883 48.0955 6.90719
624 1 9.81074 48.1714 7.03941
625 1 9.95588 48.0527 9.83942
626 1 6.90834 48.1075 9.71666
627 1 12.5075 45.277 7.00536
628 1 12.6116 45.3279 9.65263
629 1 12.525 48.0678 6.99352
630 1 12.8142 48.0085 9.76511
631 1 1.27913 25.8111 12.6963
632 1 3.98047 25.484 12.4959
633 1 7.0536 25.5491 12.584
634 1 9.75921 25.3727 12.5783
635 1 12.4786 25.5564 12.543
636 1 1.53051 28.5771 12.5537
637 1 4.3111 28.4252 12.64
638 1 1.49811 31.2437 12.5073
639 1 4.20796 31.2029 12.5837
640 1 7.06773 28.1365 12.6372
641 1 9.92413 28.1233 12.5306
642 1 6.9881 31.0939 12.5416
643 1 9.98325 31.0756 12.4309
644 1 12.7494 28.36 12.3705
645 1 12.6531 31.1592 12.4929
646 1 1.43054 33.9774 12.6339
647 1 4.31664 34.0417 12.6009
648 1 1.35918 36.8886 12.4971
649 1 4.13687 36.8164 12.6129
650 1 7.13076 34.0709 12.555
651 1 9.86958 33.9975 12.568
652 1 7.00133 36.8561 12.5859
653 1 9.83589 36.9701 12.5971
654 1 12.6119 34.0584 12.4465
655 1 12.6835 36.7843 12.6547
656 1 1.50972 39.6493 12.5603
657 1 4.16269 39.4958 12.6292
658 1 1.4651 42.4509 12.547
659 1 4.04654 42.2282 12.5337
660 1 7.02133 39.6542 12.5732
661 1 9.8486 39.7657 12.6472
662 1 6.90708 42.4362 12.7073
663 1 9.59302 42.5153 12.7069
664 1 12.8006 39.699 12.6784
665 1 12.6858 42.483 12.7163
666 1 1.31939 45.3247 12.6437
667 1 4.1927 45.1316 12.7046
668 1 1.32303 48.038 12.639
669 1 4.14157 47.9374 12.4537
670 1 6.96504 45.1473 12.641
671 1 9.90248 45.2403 12.6665
672 1 6.94053 48.0414 12.6616
673 1 9.73522 48.103 12.5977
674 1 12.6018 45.2601 12.6987
675 1 12.6635 48.0775 12.609
12363 2 11.2541 49.4664 11.1454
89 1 12.7253 28.4408 1.42398
12253 2 2.58557 26.8233 2.72191
12362 2 5.64652 49.4751 11.1918
12356 2 -0.0414362 43.9321 11.2351
180 1 12.5484 25.6584 7.07473
12257 2 8.33596 26.9964 2.7635
12258 2 5.53936 29.6471 2.815
15282 2 14.1239 43.9599 2.7988
12260 2 11.2426 29.6388 2.72776
12360 2 11.356 43.9951 11.1886
12319 2 -0.12882 41.0382 8.3535
12263 2 2.61854 32.5026 2.81566
12359 2 8.38257 46.606 11.2464
12264 2 0.0851142 35.4358 2.76837
12286 2 8.49737 46.6284 0.00258021
12267 2 8.31658 32.2565 2.83706
12268 2 5.03579 35.4653 2.96963
12345 2 11.2178 26.9265 11.1076
12270 2 11.3592 35.3771 2.76013
12358 2 5.52064 43.8802 11.1972
12344 2 8.48452 29.6734 11.118
12273 2 2.53644 38.1207 2.84352
12357 2 2.73451 46.5425 11.2041
12343 2 5.74069 26.9805 11.2868
179 1 12.4797 25.3974 4.26306
12277 2 8.33175 38.7186 2.77082
12278 2 5.45208 41.2381 2.76103
12254 2 -0.0910971 29.7706 2.71498
12280 2 11.3066 41.1935 2.6461
12355 2 11.265 38.3104 11.253
12306 2 -0.144314 32.5255 5.47177
12283 2 2.64616 43.9562 2.85582
12354 2 8.40188 41.1546 11.3488
851 1 6.51512 37.2129 2.48802
12342 2 2.96911 29.8723 11.1473
12287 2 8.36001 43.838 2.77772
12288 2 5.40213 46.6889 2.6955
12340 2 11.2307 49.5318 5.69557
12290 2 11.2016 46.6987 2.81209
12353 2 5.59401 38.1442 11.1123
12292 2 2.73822 49.5119 2.78213
12299 2 0.0884378 29.7046 8.30728
12294 2 8.43967 49.3971 2.78984
12296 2 -0.134186 27.0373 5.57109
12339 2 8.36986 49.6061 8.41809
12297 2 2.72323 29.6958 5.58326
12298 2 2.77528 26.928 8.33826
12338 2 5.60021 49.6264 5.61498
12300 2 5.4994 27.0241 5.59858
12301 2 8.36376 29.7314 5.51473
12302 2 8.36336 27.0119 8.27878
12303 2 5.60786 29.7346 8.32567
12304 2 11.1446 26.8316 5.60853
12305 2 11.1446 29.8294 8.33434
12352 2 2.81457 41.0473 11.1049
12307 2 2.59652 35.4822 5.56346
12308 2 2.76585 32.7368 8.33148
569 1 12.6128 31.2753 4.17318
12310 2 5.59901 32.5264 5.62056
12311 2 8.42398 35.4862 6.12894