ITEM: TIMESTEP
220000
ITEM: NUMBER OF ATOMS
18000
ITEM: BOX BOUNDS xy xz yz pp pp pp
-1.0357902398298538e-01 2.7997579023984098e+01 0.0000000000000000e+00
-1.1739640351933005e+00 3.3590196403522521e+02 0.0000000000000000e+00
-9.8087460520281514e-02 2.7992087460520686e+01 0.0000000000000000e+00
ITEM: ATOMS id type x y z
1 1 1.38116 0.169125 1.5197
2 1 4.00727 0.0898072 1.37772
3 1 4.08529 0.274275 4.33074
4 1 1.44699 0.0712263 4.29828
5 1 1.36647 2.84951 1.38263
6 1 4.10281 2.88956 1.43254
7 1 4.1456 3.02915 4.09109
8 1 1.42325 3.02987 4.10309
9 1 6.99632 3.01528 1.24552
10 1 9.68008 0.112235 1.27253
11 1 9.79148 0.0699716 4.13351
12 1 6.87599 2.95163 4.09252
13 1 6.92666 5.83991 1.21342
14 1 9.67698 2.85525 1.34443
15 1 9.72926 2.92801 4.0329
16 1 6.70166 5.80493 4.00281
17 1 12.5865 0.125473 1.18771
18 1 12.6846 0.0744346 3.97387
19 1 12.5488 2.80103 1.21702
20 1 12.4617 2.90665 4.01871
21 1 1.21179 5.76205 1.33277
22 1 4.14568 5.79633 1.18538
23 1 3.88059 5.77526 4.25076
24 1 1.27977 5.80535 4.15896
25 1 1.19122 8.42941 1.38773
26 1 3.943 8.61427 1.25943
27 1 3.69932 11.3456 4.15499
28 1 1.125 8.57539 4.18884
15051 2 14.0492 1.54563 5.47801
30 1 9.84853 5.69451 1.3268
31 1 9.60681 5.49045 4.08694
32 1 6.248 8.14137 5.76823
33 1 6.21624 10.2009 3.59414
34 1 9.73695 8.52571 1.32836
35 1 7.59024 8.08984 3.44268
36 1 6.34368 11.7697 5.5764
37 1 12.4604 5.78143 1.31469
38 1 12.5258 5.78468 4.05875
39 1 12.546 8.56451 1.36013
40 1 12.5571 8.51575 4.19783
41 1 1.12662 11.3068 1.2626
42 1 3.86646 11.2868 1.45359
43 1 6.91066 14.2643 4.02264
44 1 1.04628 11.4707 4.15638
45 1 1.3176 14.2819 1.27884
46 1 4.18566 14.0592 1.32803
47 1 4.20014 14.1882 4.08347
48 1 1.1538 14.0943 4.17191
49 1 3.93433 8.51041 4.05762
50 1 9.75132 11.3786 1.06584
51 1 9.69538 8.89056 4.66695
52 1 8.78449 11.4654 3.74638
53 1 6.88838 17.0663 3.96547
54 1 9.76138 14.1304 1.23813
55 1 12.5827 14.2886 4.04101
56 1 9.68029 14.3939 4.10957
57 1 12.5553 11.3357 1.17577
58 1 12.5626 11.4607 3.88414
59 1 12.5277 14.1871 1.50625
15042 2 13.9985 21.1553 2.87671
61 1 1.38345 16.9564 1.36729
62 1 4.09504 17.1185 1.13656
63 1 4.05047 17.097 3.99447
64 1 1.16925 17.0149 4.07254
65 1 1.26197 19.7864 1.32543
66 1 4.0262 19.8783 1.30844
67 1 4.23158 19.738 4.17903
68 1 1.43656 19.8741 4.07256
69 1 7.0763 16.9892 1.03575
70 1 9.708 16.9477 1.3113
71 1 12.4812 16.8899 4.18107
72 1 9.58428 17.0799 4.26723
73 1 6.95803 19.6868 1.17102
74 1 9.71546 19.6455 1.33384
75 1 9.76738 19.6929 4.00086
76 1 6.82518 19.9684 4.10542
77 1 12.6085 16.9859 1.17067
12116 2 -0.0678699 15.4823 11.3152
79 1 12.5207 19.7689 1.40165
12142 2 -0.0949193 18.4546 13.9313
81 1 1.40454 22.5653 1.40337
82 1 4.27236 22.5704 1.38034
83 1 4.05226 22.6404 4.13608
84 1 1.29999 22.7136 4.32504
85 1 7.15464 22.4609 1.41896
86 1 10.0477 22.6429 1.16857
87 1 9.85726 22.504 4.01671
88 1 6.98323 22.7833 4.04122
12121 2 -0.0476722 21.2147 11.1378
12094 2 -0.127562 23.9952 8.32258
91 1 1.28866 0.185517 7.04148
92 1 4.12823 0.103656 7.27071
93 1 4.06461 2.63883 9.88757
94 1 1.69373 0.0317162 9.7863
95 1 1.39109 2.8842 6.97091
96 1 4.06724 2.9687 6.99349
97 1 6.7371 5.83931 9.53403
98 1 1.29227 2.9421 9.76893
99 1 6.78436 3.06247 6.89462
100 1 9.62177 0.224926 6.99303
101 1 9.65186 0.06884 9.79013
102 1 6.90316 2.9866 9.77317
103 1 6.9938 5.63319 6.78154
104 1 9.7039 3.00743 6.72304
105 1 9.83114 2.99867 9.59391
106 1 6.91159 5.75712 12.5453
107 1 12.45 0.15976 6.76839
108 1 12.5901 0.13451 9.69543
109 1 12.5658 2.92587 6.75917
110 1 12.6487 2.85099 9.57576
111 1 1.32687 5.69304 6.92269
112 1 4.19661 5.61671 7.15781
113 1 3.92953 8.52628 9.76278
114 1 1.32122 5.69882 9.93848
115 1 1.07919 8.35921 6.88199
116 1 3.78492 8.52545 7.03146
117 1 6.35656 10.103 7.58723
118 1 1.10836 8.45637 9.86683
119 1 8.79128 8.5243 7.01826
120 1 9.90081 5.81604 6.77191
121 1 9.64711 5.62956 9.61391
122 1 7.00904 8.55802 9.7575
123 1 8.63183 11.7451 7.19021
124 1 12.5723 8.3057 7.04731
125 1 10.832 10.3016 7.8389
126 2 8.41206 9.9781 8.78471
127 1 12.6581 5.62234 7.01418
128 1 12.5824 5.70994 9.71399
15121 2 13.9127 24.0337 11.2609
130 1 12.6828 11.4098 9.76574
131 1 1.17439 11.1427 6.84982
132 1 3.79695 11.507 6.92139
133 1 4.04027 11.3891 9.71888
134 1 1.06972 11.229 9.88463
135 1 1.17428 14.1058 7.03856
136 1 3.9158 14.3146 6.9274
137 1 4.08237 14.2116 9.71554
138 1 1.32621 14.2128 9.89645
139 1 9.61392 14.4357 6.97589
140 1 10.7951 12.0907 5.60604
141 1 9.82639 11.3201 10.0912
142 1 7.06683 11.6341 9.80128
143 1 6.79835 14.3695 6.97159
144 1 9.518 17.0294 7.02633
145 1 9.72314 14.1199 9.74007
146 1 6.90095 14.2927 9.9165
147 1 12.5176 13.9706 7.04109
148 1 12.579 14.2728 9.78847
149 1 12.2433 17.0147 7.0408
150 1 12.4345 17.1379 9.69667
151 1 1.18794 17.0026 6.8676
152 1 3.94885 16.9794 6.92888
153 1 3.8977 17.0974 9.7962
154 1 1.15894 17.0768 9.93977
155 1 1.28407 19.7844 6.96313
156 1 3.98877 19.8956 6.92028
157 1 4.11905 19.8899 9.71085
158 1 1.31938 19.9511 9.69388
159 1 6.73102 17.1213 6.86189
160 1 12.5176 22.7203 4.22588
161 1 9.58719 16.813 9.83178
162 1 6.72641 16.9844 9.73653
163 1 6.77067 19.7913 6.88616
164 1 9.61742 19.8176 6.85068
165 1 9.49405 19.7301 9.76621
166 1 6.82571 19.6989 9.65441
241 1 9.78479 8.60172 12.6089
168 1 12.3411 19.8494 9.81151
169 1 12.5601 22.5309 6.96499
170 1 12.4427 22.664 9.76987
171 1 1.27171 22.5661 7.06722
172 1 4.04734 22.7275 6.953
173 1 4.18909 22.7498 9.85432
174 1 1.30099 22.6 9.82385
175 1 6.88764 22.5669 6.8984
176 1 9.76788 22.5828 6.89648
177 1 9.68645 22.7054 9.68086
178 1 6.87892 22.5522 9.68894
12074 2 -0.26999 12.6843 8.39799
15022 2 14.0326 9.89928 2.66002
181 1 1.38026 0.242357 12.6928
182 1 4.19542 0.312477 12.1345
183 1 1.1246 3.16657 12.4991
184 1 4.07028 2.92317 12.6013
185 1 6.93517 0.109287 12.6137
186 1 9.82012 0.14484 12.6145
187 1 6.84178 3.02154 12.627
188 1 9.68668 3.03215 12.4268
189 1 12.6081 0.145576 12.5106
190 1 12.4883 2.82523 12.5223
191 1 1.28368 5.83803 12.6261
192 1 4.03584 5.7156 9.87624
193 1 1.25376 8.60698 12.7498
194 1 4.10922 8.50868 12.5217
195 1 3.95811 5.64631 12.5346
196 1 9.73682 5.76101 12.549
197 1 9.75777 8.38491 9.76972
198 1 12.5079 8.54211 9.84614
199 1 12.6079 5.68786 12.5171
200 1 12.5455 8.49203 12.6182
201 1 1.20242 11.3608 12.6153
202 1 3.93034 11.4337 12.6713
203 1 1.42923 14.2001 12.6341
204 1 4.05087 14.0991 12.5676
205 1 6.90881 11.338 12.492
206 1 9.79 11.3111 12.6865
207 1 6.89653 14.1764 12.801
208 1 9.79974 14.0973 12.6912
209 1 12.5643 11.2984 12.5786
210 1 12.6459 14.2197 12.6282
211 1 1.32891 17.0787 12.5801
212 1 4.05722 17.0047 12.5025
213 1 1.30939 19.7934 12.6395
214 1 4.0412 19.9499 12.4828
215 1 6.77922 16.8993 12.5863
216 1 9.54686 16.9721 12.6228
217 1 6.8793 19.7308 12.6082
218 1 9.74133 19.7047 12.5981
219 1 12.3648 17.0906 12.4746
220 1 12.5212 19.8362 12.6605
221 1 1.32301 22.5228 12.5025
222 1 4.15121 22.6572 12.6244
223 1 6.93073 22.4023 12.6223
224 1 9.67036 22.7964 12.5235
225 1 12.4704 22.852 12.6248
12125 2 10.9863 21.2703 11.078
12110 2 11.1471 4.30933 11.0601
15092 2 14.1953 20.9512 8.22819
12124 2 8.19673 24.1128 11.1559
80 1 12.5704 22.6498 1.4069
12109 2 8.38211 7.10952 11.1308
12081 2 -0.178974 15.5706 5.58179
12008 2 5.49081 1.59825 2.71924
243 1 7.00928 8.52455 12.5186
12010 2 11.1143 1.50447 2.66808
12123 2 5.55819 21.2259 11.152
12108 2 5.46777 4.44217 11.1793
12013 2 2.79014 4.43519 2.70515
12122 2 2.69183 24.01 11.1743
12107 2 2.63906 7.12936 11.2187
12112 2 2.6478 12.862 11.2669
12017 2 8.17049 4.38401 2.64557
12018 2 5.51826 7.37683 2.6906
12104 2 8.41509 1.56828 11.1361
12020 2 11.1417 7.20951 2.76201
60 1 12.6368 19.7638 4.12771
15091 2 13.8253 24.0448 5.66862
12023 2 2.47353 9.89907 2.69949
12120 2 11.0421 15.5613 11.1571
12102 2 2.46424 1.73302 11.3339
12113 2 5.54958 10.1227 11.1251
12027 2 8.08004 9.93152 2.21176
12028 2 5.40097 12.5354 2.8049
12100 2 11.1355 23.9577 8.33715
12030 2 10.9553 12.8224 2.82118
12099 2 11.1335 21.2023 5.56616
12098 2 5.5335 24.045 8.38723
12033 2 2.66086 15.5633 2.61508
412 1 6.95456 14.0845 1.20725
12097 2 8.29161 21.1422 8.30388
12096 2 8.38902 23.9527 5.57831
12037 2 8.19571 15.5706 2.60816
12038 2 5.55945 18.3431 2.60388
12095 2 5.45126 21.215 5.58599
12040 2 11.154 18.3612 2.64216
29 1 6.76528 8.48524 0.948409
12093 2 2.66269 21.2238 8.31607
12043 2 2.8003 21.158 2.70414
5723 1 6.76647 0.240192 6.89948
12092 2 2.64417 24.0379 5.61528
5634 1 6.7238 0.292385 1.21681
12047 2 8.30953 21.0971 2.713
12048 2 5.55925 23.9634 2.69135
12090 2 10.9045 18.4355 8.3337
12050 2 11.1707 24.0206 2.75547
12119 2 8.19005 18.3042 11.1642
12052 2 2.69209 1.56504 5.488
15032 2 13.9805 15.5229 2.69874
12118 2 5.34747 15.566 11.1904
5633 1 6.82581 0.0780441 4.07066
12056 2 8.35145 1.57089 5.35981
5726 1 6.63772 0.374561 9.77589
12058 2 5.52144 1.7544 8.27858
129 1 13.3603 11.0179 6.77726
12060 2 11.192 1.56886 8.26731
12117 2 2.57935 18.531 11.2329
12062 2 2.5259 7.09663 5.50034
12063 2 2.64024 4.32206 8.41216
12089 2 11.0927 15.6818 5.60294
12065 2 5.41997 4.42673 5.52836
12066 2 8.19223 6.86056 5.3622
12067 2 8.2584 4.37318 8.28632
12068 2 5.41796 7.30355 8.25036
12069 2 11.2133 4.2485 5.48774
12070 2 11.0605 7.08655 8.37084
12115 2 11.1442 9.91132 11.1143
12072 2 2.49398 12.7863 5.57987
12073 2 2.55793 9.94126 8.40633
12114 2 8.4511 12.8436 11.2932
12075 2 4.82389 9.90679 5.51308
12076 2 8.33151 13.3387 5.5562
12077 2 7.92236 10.0644 5.53205
12078 2 5.57327 12.7165 8.11486
12079 2 11.4785 9.98678 5.64792
12080 2 11.0819 12.5722 8.13325
395 1 6.66765 11.3328 1.10875
12082 2 2.64779 18.3778 5.50527
12083 2 2.60129 15.5682 8.45164
15081 2 13.6332 18.2148 5.61443
12085 2 5.30547 15.7218 5.46756
12086 2 8.22378 18.5396 5.42617
12087 2 8.16345 15.5684 8.40613
12088 2 5.41005 18.4311 8.41159
167 1 12.3013 19.8806 7.043
15061 2 13.9207 7.02939 5.55822
15072 2 13.8621 9.7845 8.48563
12006 2 8.26497 1.49319 -0.119765
12035 2 5.47125 15.5283 -0.090605
12149 2 5.49637 24.0253 13.8959
15101 2 14.0703 1.43021 11.1306
15071 2 13.8202 12.7517 5.44514
12141 2 2.63049 15.6367 13.9455
12144 2 5.54509 18.3465 14.0448
15126 2 13.9156 -1.27358 13.9552
12143 2 8.28471 15.5316 13.9974
12128 2 8.31499 -1.29335 14.0154
12036 2 8.41268 18.4253 -0.227733
15136 2 13.9651 9.98454 13.9235
15131 2 14.0062 4.3584 13.9708
12042 2 2.77364 24.1023 -0.13679
12015 2 5.57337 4.38907 -0.160443
12137 2 -0.132052 12.755 14.1281
12130 2 11.2124 1.50541 13.9066
12002 2 2.76013 1.60105 -0.0597726
12133 2 8.41527 4.45868 14.1143
12016 2 8.34603 7.07461 -0.0768467
12045 2 5.6052 21.1516 -0.102485
12147 2 -0.0285221 23.9874 13.8065
12032 2 2.75734 18.4087 -0.13801
226 1 4.16004 0.221803 15.0216
227 1 1.34761 0.0601369 15.2949
228 1 4.06647 2.89806 15.3606
229 1 1.33227 2.89942 15.4652
230 1 9.93499 0.0405732 15.3058
231 1 6.9453 0.202501 15.3958
232 1 9.77302 2.91852 15.3237
233 1 6.99946 2.99097 15.3004
234 1 12.71 0.156261 15.2639
235 1 12.5341 2.87509 15.3504
236 1 4.09077 5.68469 15.3047
237 1 1.26225 5.85565 15.3438
238 1 4.17701 8.5249 15.3607
239 1 1.41755 8.61156 15.5738
240 1 9.66334 5.8578 15.4908
12159 2 11.223 -1.26842 16.7694
242 1 9.67259 8.73016 15.4998
5993 1 6.85179 0.19928 23.5732
244 1 12.4329 5.64586 15.2398
245 1 12.5929 8.5096 15.3239
246 1 4.07595 11.4154 15.3581
247 1 1.28097 11.3472 15.4908
248 1 4.15505 14.1999 15.2616
249 1 1.32131 14.1079 15.5354
250 1 9.78031 11.4502 15.3961
251 1 6.8913 11.2895 15.4566
252 1 9.71944 14.3416 15.3444
253 1 7.01749 14.2456 15.4125
254 1 12.5303 11.32 15.3744
255 1 12.3586 14.2766 15.4386
256 1 4.05455 16.9333 15.2839
257 1 1.30286 16.8633 15.4688
258 1 4.10428 19.636 15.2366
259 1 1.35965 19.9039 15.4809
260 1 9.76126 17.1861 15.4539
261 1 6.94884 16.9234 15.4531
262 1 9.57621 19.9309 15.366
263 1 6.82766 19.7207 15.416
264 1 12.5559 17.0417 15.301
265 1 12.4321 19.917 15.4247
266 1 3.85671 22.5322 15.5021
267 1 1.20801 22.762 15.3364
268 1 9.55807 22.7576 15.3764
269 1 6.77905 22.4753 15.32
270 1 12.511 22.7669 15.4145
271 1 1.38348 0.167056 18.1578
272 1 4.25183 0.25612 17.9685
273 1 4.04806 0.145383 20.9257
274 1 1.26552 -0.0276203 20.8576
275 1 1.32425 2.76046 18.2462
276 1 4.05185 2.981 18.2037
277 1 3.9238 3.0282 20.9776
278 1 1.13292 2.8633 21.1041
279 1 6.96274 2.98478 18.1215
280 1 9.69733 0.260884 17.9511
281 1 9.63214 0.103022 20.7206
282 1 6.77877 2.99639 20.838
283 1 6.84311 5.82671 18.0366
284 1 9.6142 3.03103 18.0876
285 1 9.59995 2.88925 20.8271
286 1 6.78909 5.75851 23.6706
287 1 12.4843 0.24741 18.1941
288 1 12.558 0.261582 20.8508
289 1 12.5433 2.99591 18.0818
290 1 12.448 2.913 21.0385
291 1 1.23795 5.64072 18.3706
292 1 3.99894 5.73894 18.204
293 1 4.15691 5.81877 20.9777
294 1 1.32774 5.74338 21.0243
295 1 1.29468 8.48716 18.2139
296 1 4.06488 8.69843 18.191
297 1 4.0765 8.65659 21.0112
298 1 1.35146 8.63913 20.9608
299 1 6.82901 5.71521 15.3482
300 1 9.74932 5.81893 18.0294
301 1 9.72721 5.73647 20.8842
302 1 7.00927 5.83358 20.8693
303 1 6.95639 8.5719 15.4266
304 1 9.75434 8.52231 18.1573
305 1 9.68247 8.57288 21.0317
306 1 6.82974 8.68714 18.1961
307 1 12.4053 5.70175 18.0579
308 1 12.6047 5.83816 20.6697
309 1 12.4166 8.5464 18.194
310 1 12.4578 8.66291 20.9332
311 1 1.1999 11.4203 18.1635
312 1 4.01731 11.3677 18.2759
313 1 3.94929 11.3274 21.0765
314 1 1.19317 11.3737 20.9607
315 1 1.25804 14.3127 18.1458
316 1 4.11496 14.2474 18.1173
317 1 4.19995 14.2874 21.0021
318 1 1.46452 14.0514 20.9334
319 1 6.88924 11.4652 18.1008
320 1 9.61993 11.2511 18.2316
321 1 9.74751 11.3914 21.0263
322 1 6.93487 11.506 21.045
323 1 6.83532 14.2374 18.0883
324 1 9.70069 14.1602 18.1638
325 1 9.77558 14.2047 20.9936
326 1 6.92706 14.2273 20.9187
327 1 12.5383 11.4256 18.2122
328 1 12.5179 11.3853 21.0991
329 1 12.435 14.0462 18.2074
330 1 12.4571 14.2131 20.9702
331 1 1.52825 17.0366 18.283
332 1 4.34069 17.0555 18.0284
333 1 4.11705 16.9791 20.906
334 1 1.22264 16.9443 20.9191
335 1 1.28991 19.7553 18.2957
336 1 4.09943 19.7649 18.3094
337 1 4.37339 19.931 20.9826
338 1 1.44972 19.6494 20.9816
339 1 7.0401 17.0306 18.1024
340 1 9.78311 16.9751 18.2281
341 1 9.80812 16.898 20.827
342 1 6.89316 16.9754 20.7924
343 1 6.97618 20.056 18.1386
344 1 9.79811 19.8176 18.1182
345 1 9.89563 19.7637 21.0072
346 1 7.1335 19.8283 20.9521
347 1 12.5031 16.9354 18.1248
348 1 12.596 17.0284 20.7828
349 1 12.5639 19.7428 18.1331
350 1 12.6018 19.8545 20.9201
351 1 1.25908 22.7675 18.1683
352 1 4.05858 22.6696 18.2946
353 1 4.06767 22.4787 21.0387
354 1 1.14543 22.4571 20.8551
355 1 6.88808 22.6589 18.2114
356 1 9.89928 22.4431 18.3138
357 1 9.77773 22.6689 21.1273
358 1 6.91821 22.6978 21.0995
359 1 12.5624 22.7411 18.1548
360 1 12.4885 22.7082 20.9863
361 1 1.28535 0.152905 23.7239
362 1 4.29499 -0.0127331 23.7173
363 1 4.17726 0.18933 26.5554
364 1 1.39829 0.139307 26.6604
365 1 1.31449 2.80526 23.8094
366 1 4.11047 2.88941 23.7509
367 1 4.09301 2.92231 26.5208
368 1 1.28479 2.97368 26.6618
369 1 7.00147 3.0535 23.7816
370 1 9.74297 0.241393 23.5968
371 1 9.7729 0.121551 26.5062
372 1 6.86442 2.94372 26.48
373 1 6.84782 5.68046 26.5483
374 1 9.61386 2.91372 23.594
375 1 9.64718 2.89992 26.5198
376 1 9.74133 5.72987 26.5712
377 1 12.4131 0.273585 23.6708
378 1 12.4739 0.395809 26.5529
379 1 12.4288 3.03612 23.7685
380 1 12.5324 3.08294 26.477
381 1 1.16822 5.60248 23.6121
382 1 3.99749 5.77531 23.7433
383 1 4.01747 5.75683 26.4779
384 1 1.30232 5.77945 26.5548
385 1 1.17576 8.54717 23.705
386 1 4.07926 8.57164 23.8973
387 1 3.91655 8.6246 26.7382
388 1 1.23024 8.67301 26.5673
389 1 6.99277 8.65602 23.5994
390 1 9.66252 5.75832 23.7581
391 1 9.63142 8.65875 26.6984
392 1 6.79502 8.31682 26.3692
393 1 6.80067 8.56256 21.0731
394 1 9.81974 8.62325 23.8759
12153 2 2.7855 -1.30301 19.4067
396 1 6.9186 11.3449 26.4613
397 1 12.5001 5.6974 23.5774
398 1 12.5009 5.8418 26.5042
399 1 12.6049 8.43411 23.746
400 1 12.489 8.60162 26.5826
401 1 1.3577 11.3145 23.8443
402 1 4.09919 11.3649 23.9566
403 1 4.15221 11.4528 26.6823
404 1 1.22093 11.3467 26.5319
405 1 1.14354 14.0729 23.7766
406 1 4.01941 14.1193 23.7832
407 1 3.86864 14.0898 26.7236
408 1 1.20745 14.1925 26.6138
409 1 6.79328 11.5586 23.7352
410 1 9.68641 11.328 23.7676
411 1 9.67196 11.3578 26.3904
15162 2 13.9405 4.39377 19.3894
413 1 6.94208 14.2297 23.7486
414 1 9.76387 14.2022 23.7906
415 1 9.6678 14.0931 26.6619
416 1 6.78295 14.196 26.5593
417 1 12.515 11.4295 23.7895
418 1 12.5948 11.4603 26.5257
419 1 12.5832 14.3626 23.9555
420 1 12.4695 14.0845 26.6964
421 1 1.32817 16.9136 23.906
422 1 4.08763 16.7824 23.709
423 1 4.17889 17.023 26.5999
424 1 1.34939 17.049 26.6154
425 1 1.21066 19.6491 23.7231
426 1 4.01115 19.8741 23.7959
427 1 4.18132 19.8795 26.5465
428 1 1.34348 19.8717 26.5709
429 1 6.95217 16.9026 23.692
430 1 9.81631 17.0734 23.6982
431 1 9.83609 16.9132 26.4925
432 1 7.00344 17.0662 26.5298
433 1 6.9787 19.8108 23.7927
434 1 9.80084 19.8361 23.7868
435 1 9.7509 19.8786 26.7119
436 1 6.97335 19.8741 26.6001
437 1 12.5439 17.0438 23.741
438 1 12.566 16.9564 26.6285
439 1 12.618 19.7952 23.7128
440 1 12.6734 19.7457 26.5225
441 1 1.2897 22.5508 23.7738
442 1 4.06073 22.6257 23.9105
443 1 4.14888 22.6344 26.6038
444 1 1.46172 22.5948 26.6884
445 1 6.85431 22.5592 23.9815
446 1 9.6864 22.688 23.7665
447 1 9.88103 22.6071 26.3847
448 1 7.03229 22.6939 26.7144
449 1 12.4532 22.6047 23.8563
450 1 12.6346 22.728 26.651
12135 2 11.1958 7.20185 14.0738
12250 2 11.2308 24.0808 25.1415
15221 2 13.9371 12.8372 22.4352
15041 2 14.0022 24.0229 27.9546
5906 1 6.94645 0.00409229 20.7335
12026 2 8.27522 12.6276 27.8908
12249 2 11.1238 21.1375 22.3249
12164 2 -0.10199 7.11389 19.6125
12039 2 11.1742 15.5217 28.0681
12244 2 -0.140061 24.1813 25.1945
12234 2 -0.0825017 18.3316 25.2263
12248 2 5.55834 24.0269 25.1034
15201 2 13.8937 1.65489 22.2909
15191 2 13.9533 23.9967 16.7352
15021 2 13.9334 12.7694 28.0064
15161 2 13.9251 7.16646 16.6934
12025 2 5.3026 9.89065 27.9263
15242 2 14.0168 21.3321 25.0646
12220 2 11.1756 7.09623 25.0819
12194 2 -0.187993 24.0477 19.4985
12232 2 2.77676 18.2569 22.4129
12216 2 8.27715 7.1888 22.3301
5903 1 6.95142 0.1321 18.0734
12219 2 11.081 4.30047 22.2223
12218 2 5.39449 6.98919 25.1313
12247 2 8.36149 21.1084 25.1201
12152 2 2.70804 1.47408 16.6332
12227 2 8.25729 9.93683 25.1142
12246 2 8.53408 24.0178 22.4011
12230 2 11.1043 12.7319 25.191
12156 2 8.30882 1.58057 16.6828
12229 2 11.0864 9.95162 22.3921
12158 2 5.50327 1.53526 19.4702
12217 2 8.35559 4.25671 25.0749
12160 2 11.1022 1.5998 19.4522
12245 2 5.47241 21.2747 22.5287
12162 2 2.70514 7.24063 16.8136
12163 2 2.6227 4.31234 19.6105
12228 2 5.45252 12.8074 25.2493
12165 2 5.4046 4.39393 16.8243
12166 2 8.31087 7.33328 16.7694
12167 2 8.19405 4.40147 19.4901
12168 2 5.50721 7.27186 19.693
12169 2 10.9868 4.24818 16.6534
12170 2 11.0543 7.19639 19.5399
12243 2 2.6616 21.2812 25.1972
12172 2 2.70728 12.7905 16.7713
12173 2 2.76284 9.95545 19.4864
12242 2 2.59733 23.8921 22.3962
12175 2 5.44652 10.0562 16.8039
12176 2 8.39994 12.7844 16.726
12177 2 8.20496 9.984 19.5539
12178 2 5.43929 12.7878 19.5562
12179 2 11.114 9.94061 16.7545
12180 2 11.1305 12.782 19.5822
12236 2 8.43017 18.1815 22.3811
12182 2 2.78061 18.322 16.704
12183 2 2.70619 15.5498 19.5481
12223 2 2.76358 10.0384 25.2748
12185 2 5.65068 15.5661 16.7359
12186 2 8.4409 18.5227 16.9223
12187 2 8.33008 15.4811 19.4621
12188 2 5.5598 18.3743 19.5061
12189 2 11.1613 15.6332 16.8963
12190 2 11.2025 18.3493 19.5946
12226 2 8.35349 12.7906 22.3684
12192 2 2.73159 23.9988 16.8154
12193 2 2.73485 21.1039 19.59
12225 2 5.43405 10.0396 22.5118
12195 2 5.47288 21.0986 16.8242
12196 2 8.2389 23.9049 16.7802
12197 2 8.35352 21.2031 19.6658
12198 2 5.39167 23.9166 19.6688
12199 2 11.1469 21.2021 16.8317
12200 2 11.198 24.0279 19.3991
12240 2 11.1812 18.3784 25.1762
12202 2 2.61477 1.47974 22.2659
5996 1 7.01676 0.17495 26.356
12239 2 11.2324 15.578 22.3457
12222 2 2.6649 12.6082 22.437
12206 2 8.27143 1.5478 22.1783
12235 2 5.57258 15.6066 22.3445
12208 2 5.57228 1.46827 25.0192
12233 2 2.63391 15.4465 25.2427
12210 2 11.1277 1.59691 25.0613
12238 2 5.59887 18.3722 25.1895
12212 2 2.69716 7.19473 22.4069
12213 2 2.67029 4.25561 25.1381
12237 2 8.27435 15.5112 25.1915
12215 2 5.42794 4.29027 22.3691
15031 2 13.9018 18.2683 27.959
15232 2 13.9288 15.5588 25.2966
12029 2 11.2111 9.97993 28.0075
12150 2 11.0555 24.0939 14.027
15211 2 13.8654 7.04512 22.2795
12174 2 -0.163025 12.7834 19.5721
12136 2 2.66908 10.0097 13.9712
12131 2 2.72149 4.30136 14.013
12127 2 -0.141795 1.65669 14.0601
12031 2 -0.03823 15.5588 27.9933
12046 2 8.3951 23.873 27.9854
12022 2 2.6869 12.6828 28.0592
12134 2 5.49896 7.09485 13.8661
12146 2 2.72885 21.1667 13.9516
12148 2 8.26936 21.2253 13.972
15011 2 13.9578 7.1752 27.8754
12139 2 5.48384 12.7949 13.9886
12138 2 8.35006 9.93042 13.9886
12012 2 2.55744 7.16547 27.9972
12049 2 11.3154 21.2273 27.9914
12140 2 11.2207 12.7084 13.9383
12129 2 5.57265 1.6305 13.7943
12019 2 11.1302 4.2748 28.0783
12145 2 10.9815 18.4287 13.9616
451 1 1.45619 25.4732 1.22049
452 1 4.18222 25.3908 1.25677
453 1 4.13178 25.3911 4.22043
454 1 1.32536 25.423 4.13159
455 1 6.92944 25.3699 1.2517
456 1 9.8004 25.6835 1.2964
457 1 9.68934 25.3657 4.1915
458 1 6.84349 25.4404 4.08061
459 1 12.5102 31.0598 1.26069
460 1 12.5267 28.1185 4.12226
461 1 1.32878 28.1667 1.337
462 1 4.07006 28.1027 1.30775
463 1 4.22908 28.3102 4.13797
464 1 1.30601 28.1016 4.21859
465 1 1.31676 31.1046 1.20343
466 1 4.07384 30.9042 1.35753
467 1 4.11454 31.0062 4.14224
468 1 1.3408 30.9145 4.04569
469 1 6.87389 28.1692 1.23414
470 1 9.71688 28.4435 1.3329
471 1 9.75878 28.2741 4.05013
472 1 6.94357 28.1699 4.09408
473 1 6.98758 30.8519 1.36136
12341 2 0.0597417 26.7482 11.165
475 1 9.71429 30.8661 4.14887
476 1 6.75197 30.9282 4.20371
477 1 9.66418 31.1994 1.30845
478 1 10.3148 34.3639 1.13414
12276 2 8.22425 41.0093 -0.139724
1106 1 9.87116 50.8308 12.5378
481 1 1.1257 33.9092 1.34086
482 1 5.33864 33.4315 1.65662
483 1 4.11712 33.7807 4.34443
484 1 1.35182 33.8612 4.20476
12306 2 -0.141931 32.4703 5.45159
486 1 3.42149 34.9363 1.73836
487 1 4.15361 36.7405 4.40144
488 1 1.36699 36.7619 4.12308
489 1 7.87307 33.4898 1.01244
847 1 1.14749 36.7541 1.21364
491 1 9.90779 33.8049 3.7704
492 1 7.11907 33.9504 4.10794
493 1 4.60008 37.1175 1.53097
494 1 9.44377 36.6688 1.33922
495 1 9.73803 36.3401 4.14294
496 1 7.21348 36.5944 4.0419
497 1 12.9391 33.9075 1.35239
498 1 12.784 33.8384 4.22112
499 1 12.6981 36.765 1.32377
500 1 12.5129 36.6512 4.27188
501 1 1.33644 39.6823 1.26407
502 1 4.06545 39.5823 1.31181
503 1 4.09667 39.548 4.11364
504 1 1.19204 39.4829 4.07332
505 1 1.40884 42.5367 1.26183
506 1 4.13569 42.355 1.32034
507 1 4.152 42.2867 4.17467
508 1 1.38913 42.4109 4.11929
509 1 6.78718 39.5524 1.38139
510 1 9.68237 39.3698 1.25268
511 1 10.0326 39.2032 3.99219
512 1 6.91066 39.4151 4.2594
513 1 6.84692 42.2882 1.38885
514 1 9.75506 42.22 1.28106
515 1 9.47707 42.1388 4.17197
516 1 6.92298 42.335 4.22561
517 1 12.5818 39.5968 1.4052
518 1 12.76 39.5785 4.14389
519 1 12.6289 42.2635 1.26782
520 1 12.2522 42.3115 4.29133
521 1 1.42273 45.172 1.20916
522 1 4.15825 45.2737 1.27366
523 1 4.16319 45.0889 4.09756
524 1 1.50272 45.0698 4.0969
525 1 1.25156 48.0319 1.26481
526 1 4.12737 48.0408 1.42059
527 1 4.26605 48.0712 4.15953
528 1 1.47784 47.9741 4.02982
529 1 6.85663 45.1252 1.48678
530 1 9.78184 45.0111 1.45371
531 1 9.66209 45.1811 4.23595
532 1 6.92599 45.2526 4.14974
533 1 6.90423 47.9674 1.44821
534 1 9.77992 47.8601 1.32925
535 1 9.79721 47.8704 3.93567
536 1 7.05177 47.9998 4.25452
537 1 12.6033 45.1633 1.32387
538 1 12.4047 45.0348 4.19152
539 1 12.574 48.0941 1.34058
540 1 12.5178 47.9264 4.12346
541 1 1.23097 25.5642 7.02461
542 1 3.96028 25.486 6.9394
543 1 4.13305 25.4794 9.76068
544 1 1.3464 25.3501 9.87561
545 1 6.91847 25.358 6.78457
546 1 9.73988 25.305 6.90224
547 1 9.60391 25.5822 9.68888
548 1 6.84267 25.4595 9.71953
549 1 12.6242 28.1631 6.87924
550 1 12.5737 25.3877 9.73135
551 1 1.14859 28.3388 6.94594
552 1 4.12822 28.2692 6.99023
553 1 4.25936 28.1509 9.77655
554 1 1.25985 28.2335 9.74634
555 1 1.38663 31.1111 6.92961
556 1 4.04395 31.1394 6.90314
557 1 4.08841 30.8503 9.65754
558 1 1.34875 31.1687 9.8464
559 1 6.88564 28.108 6.87867
560 1 9.80186 28.0354 6.89923
561 1 9.74366 28.3196 9.70213
562 1 7.02908 28.1511 9.62949
563 1 6.92083 30.9821 7.00852
564 1 9.56186 30.8391 6.85261
565 1 9.62658 31.1606 9.75711
566 1 6.91204 31.0016 9.82895
567 1 12.4809 31.0293 6.89451
568 1 12.501 28.3773 9.66757
90 1 12.4811 25.515 1.37609
570 1 12.5124 31.0977 9.56797
571 1 1.29438 33.9015 7.07192
572 1 4.12067 33.9293 7.01308
573 1 4.19645 33.8633 9.79018
574 1 1.27118 34.0565 9.70701
575 1 1.29062 36.7481 6.96394
576 1 4.1468 36.7108 7.02538
577 1 4.22801 36.6998 9.73
578 1 1.43222 36.83 9.79649
579 1 6.9288 33.9219 6.97165
580 1 9.68088 33.6872 6.7597
581 1 9.67719 33.9464 9.63092
582 1 6.98034 33.8719 9.66707
583 1 6.96346 36.8738 6.82567
584 1 9.76191 36.677 6.84237
585 1 9.74818 36.8665 9.64109
586 1 6.81811 36.7809 9.77209
587 1 12.5704 33.8487 6.90524
588 1 12.594 33.9409 9.75791
589 1 12.5856 36.6653 6.99643
590 1 12.5595 36.714 9.68194
591 1 1.27788 39.433 6.87518
592 1 3.96147 39.5304 6.94441
593 1 4.17801 39.4596 9.7547
594 1 1.21539 39.6413 9.68997
595 1 1.14376 42.3391 6.8599
596 1 4.00735 42.4893 6.92074
597 1 4.04768 42.3434 9.65424
598 1 1.30678 42.4841 9.61031
599 1 6.73241 39.5332 6.86759
600 1 9.62565 39.4241 6.95629
601 1 9.72227 39.5158 9.64751
602 1 6.90088 39.6047 9.85578
603 1 6.80857 42.3993 6.9897
604 1 9.64434 42.1178 6.89688
605 1 9.85967 42.3431 9.66504
606 1 6.99911 42.2821 9.79078
607 1 12.6104 39.4482 7.0589
608 1 12.6405 39.4203 9.75945
609 1 12.4536 42.2436 6.85028
610 1 12.7613 42.3248 9.64248
611 1 1.14972 45.1575 6.95907
612 1 3.99237 45.2985 6.89652
613 1 4.35011 45.0559 9.71674
614 1 1.42516 45.1236 9.77934
615 1 1.2261 47.9451 6.88787
616 1 4.10032 48.0479 6.83904
617 1 4.17246 47.8343 9.6785
618 1 1.20909 47.8252 9.678
619 1 6.85816 45.1079 7.02168
620 1 9.72916 45.1982 6.94911
621 1 9.79145 45.1116 9.88185
622 1 7.04976 45.0633 9.79039
623 1 6.8503 47.9124 7.00043
624 1 9.69717 47.9763 6.91761
625 1 9.91134 47.9457 9.5611
626 1 7.12359 48.0363 9.78352
627 1 12.6551 45.1271 7.06125
628 1 12.5152 45.0714 9.63721
629 1 12.6215 47.9852 7.02916
630 1 12.6977 47.9142 9.80171
631 1 1.42589 25.3589 12.5627
632 1 4.12486 25.4076 12.4833
633 1 6.75456 25.3891 12.5221
634 1 9.67173 25.3949 12.4129
635 1 12.5398 25.671 12.4138
636 1 1.51262 28.2082 12.4084
637 1 4.2716 28.2841 12.5275
638 1 1.38765 30.9162 12.5438
639 1 4.10636 31.1112 12.5491
640 1 7.16975 28.1804 12.5747
641 1 9.76895 28.2334 12.6311
642 1 6.84251 31.0461 12.473
643 1 9.76696 31.1236 12.4355
644 1 12.4038 28.3143 12.401
645 1 12.5072 31.2388 12.3896
646 1 1.37015 33.7696 12.4932
647 1 4.03402 34.1017 12.5686
648 1 1.29901 36.562 12.5444
649 1 4.03999 36.831 12.5458
650 1 6.89508 33.8327 12.5218
651 1 9.75723 33.9524 12.3913
652 1 6.88487 36.8883 12.4225
653 1 9.82722 36.6409 12.3369
654 1 12.4265 33.9559 12.6126
655 1 12.719 36.8237 12.572
656 1 1.47514 39.5657 12.482
657 1 4.20234 39.5697 12.4397
658 1 1.29423 42.4207 12.4181
659 1 4.09545 42.3666 12.5355
660 1 6.96672 39.6233 12.6053
661 1 9.84235 39.5368 12.4985
662 1 6.80328 42.3583 12.6254
663 1 9.67612 42.3943 12.4764
664 1 12.5741 39.5415 12.5258
665 1 12.5343 42.4061 12.4599
666 1 1.41569 45.0985 12.5227
667 1 4.21897 45.2714 12.6572
668 1 1.30854 47.8752 12.5165
669 1 4.207 48.0665 12.5005
670 1 6.95151 45.269 12.6321
671 1 9.77746 45.2344 12.7216
672 1 7.09096 48.0667 12.6522
673 1 9.98716 48.1049 12.4216
674 1 12.5479 45.282 12.6347
675 1 12.6972 47.9953 12.5569
12363 2 11.2376 49.4753 11.0757
89 1 12.5468 28.381 1.24745
12253 2 2.73732 26.6532 2.75492
12362 2 5.58733 49.3495 11.1913
12299 2 -0.124053 29.7439 8.21287
180 1 12.4515 25.4673 7.0419
12257 2 8.43843 26.8776 2.63089
12258 2 5.41289 29.5046 2.75758
15252 2 13.9157 26.8626 2.68329
12260 2 11.1953 29.5277 2.71883
12360 2 11.154 43.6625 11.0044
12356 2 -0.137611 43.723 11.0394
12263 2 2.7386 32.573 2.78354
12359 2 8.52901 46.6194 11.1894
12346 2 -0.0981261 32.5611 11.0912
12364 2 2.68592 26.7673 13.882
12267 2 8.31034 31.9903 2.87575
12268 2 5.23304 35.311 3.11084
12345 2 11.0389 26.8343 11.0577
12270 2 11.6752 35.2574 2.74839
12358 2 5.58163 43.7198 11.1647
12344 2 8.32207 29.6659 11.1107
12273 2 2.66188 38.2483 2.73791
12357 2 2.85231 46.559 11.153
12343 2 5.65592 26.8768 11.2079
179 1 12.4594 25.363 4.16354
12277 2 8.2436 38.3977 2.74346
12278 2 5.40021 41.0352 2.76248
12285 2 5.5414 43.7682 -0.116348
12280 2 11.1922 40.8387 2.7652
12355 2 11.2871 38.0386 11.0916
12262 2 5.12289 35.2938 0.0769565
12283 2 2.7641 43.7629 2.7099
12354 2 8.37993 40.9663 11.0936
851 1 6.86993 35.8796 1.39852
12342 2 2.73554 29.6038 11.159
12287 2 8.34815 43.8172 2.76318
12288 2 5.57003 46.6986 2.92853
12340 2 11.1372 49.3678 5.46411
12290 2 11.1693 46.4946 2.74571
12353 2 5.52657 38.2458 11.1196
12292 2 2.71782 49.4107 2.78197
12319 2 -0.168166 41.0176 8.28487
12294 2 8.45771 49.387 2.76896
12329 2 -0.18833 46.5015 8.39978
12339 2 8.24902 49.3683 8.23747
12297 2 2.70749 29.6754 5.51589
12298 2 2.71811 26.8314 8.46706
12338 2 5.56629 49.4055 5.51467
12300 2 5.46252 26.8522 5.51666
12301 2 8.31912 29.4663 5.58737
12302 2 8.28854 26.8139 8.29838
12303 2 5.51401 29.5502 8.37452
12304 2 11.1248 26.7391 5.41956
12305 2 11.1429 29.6028 8.12809
12352 2 2.73643 41.0009 11.0807
12307 2 2.64947 35.3415 5.60601
12308 2 2.73092 32.5075 8.4102
569 1 12.6661 31.068 4.12039
12310 2 5.52591 32.3358 5.62239
12311 2 8.40199 35.3101 5.77638
12312 2 8.36266 32.3951 8.40784
12313 2 5.52296 35.2772 8.2535
12314 2 11.1891 32.3751 5.49383
12315 2 11.2464 35.2749 8.34058
12266 2 8.55053 35.1082 2.64864
12317 2 2.51625 41.0165 5.50588
12318 2 2.72636 38.2413 8.34812
12350 2 11.1935 32.5615 11.0035
12320 2 5.38432 38.199 5.63053
12321 2 8.21478 40.9517 5.60849
12322 2 8.22118 38.2206 8.36474
12323 2 5.55579 41.0054 8.23612
12324 2 11.3313 38.0415 5.54091
12325 2 11.1556 41.0017 8.2121
12349 2 8.33673 35.4519 11.1174