ITEM: TIMESTEP
50000
ITEM: NUMBER OF ATOMS
18000
ITEM: BOX BOUNDS xy xz yz pp pp pp
-9.3479099311328820e-02 2.7987479099311674e+01 0.0000000000000000e+00
-1.1776252381894550e+00 3.3590562523819523e+02 0.0000000000000000e+00
-1.0772590707234965e-01 2.8001725907072405e+01 0.0000000000000000e+00
ITEM: ATOMS id type x y z
1 1 1.334 0.196149 1.2316
2 1 4.1434 0.179722 1.55021
3 1 4.26708 0.294097 4.35063
4 1 1.38838 0.456932 4.25576
5 1 1.26304 3.09563 1.41053
6 1 4.17976 3.06834 1.36903
7 1 3.9472 3.09771 4.24074
8 1 1.1668 3.22967 4.18557
9 1 6.92444 3.03025 1.30161
10 1 9.74672 0.288367 1.34001
11 1 9.6785 0.386182 4.09759
12 1 6.98405 3.01308 4.05244
13 1 6.93612 5.87606 1.2567
14 1 9.72708 3.2605 1.56556
15 1 9.79033 3.22306 4.23764
16 1 6.74976 5.74171 4.16519
17 1 12.5386 0.200131 1.31306
18 1 12.3617 0.399995 4.17467
19 1 12.5294 3.15147 1.27489
20 1 12.6025 3.13421 4.09348
21 1 1.17316 5.98413 1.34422
22 1 3.86928 5.78406 1.47402
23 1 3.86456 5.86954 4.29613
24 1 1.11663 5.92325 4.2974
25 1 1.21982 8.76379 1.42705
26 1 4.00761 8.7363 1.28229
27 1 3.75085 11.5498 4.28395
28 1 1.06403 8.73115 4.3025
15071 2 13.9076 13.0938 5.23367
30 1 9.69033 5.97902 1.18724
31 1 9.96298 5.87975 4.04495
32 1 6.57809 8.23624 5.41705
33 1 6.13902 10.2892 3.57692
34 1 9.99175 8.81234 1.18046
35 1 8.2561 7.95478 3.29001
36 1 6.19302 12.0527 5.88355
37 1 12.6755 5.96432 1.17396
38 1 12.6123 5.95753 4.07602
39 1 12.7451 8.80486 1.2125
40 1 12.4278 8.77986 3.98334
41 1 1.23429 11.5074 1.39612
42 1 4.05097 11.6041 1.53105
43 1 6.88863 14.5186 4.18882
44 1 1.08268 11.5085 4.10051
45 1 1.0737 14.3574 1.26676
46 1 3.88042 14.4063 1.28609
47 1 4.07336 14.4283 4.14907
48 1 1.06458 14.2767 4.081
49 1 3.90843 8.63888 4.18507
50 1 9.68195 11.6106 1.37519
51 1 9.74882 9.81215 4.22143
52 1 7.93585 12.0223 3.81628
53 1 6.71566 17.2185 4.16788
54 1 9.62104 14.4304 1.31959
55 1 12.4582 14.4573 3.9707
56 1 9.5929 14.5692 4.0248
57 1 12.5192 11.5052 1.23537
58 1 12.6085 11.7004 3.81335
59 1 12.5807 14.3995 1.09818
12006 2 8.29301 1.59907 -0.0560642
61 1 1.21037 17.2089 1.24006
62 1 3.987 17.1137 1.34564
63 1 3.83279 17.2378 4.20785
64 1 1.02632 17.0004 4.13979
65 1 1.26002 19.8768 1.28793
66 1 4.15258 19.8791 1.21809
67 1 4.07858 20.1351 3.9975
68 1 1.14544 19.8733 4.02587
69 1 6.94679 16.9876 1.23404
70 1 9.68931 17.146 1.21367
71 1 12.2447 17.1946 4.05081
72 1 9.51227 17.2464 4.18078
73 1 7.00082 19.8031 1.45453
74 1 9.70826 20.0426 1.29979
75 1 9.66441 20.0025 4.1822
76 1 6.75642 20.1826 4.14475
77 1 12.4496 17.0948 1.38159
12002 2 2.56 1.75086 -0.055902
79 1 12.3331 19.7844 1.14887
12054 2 -0.126946 1.80935 8.37027
81 1 1.22477 22.8278 1.20221
82 1 4.12695 22.7695 1.49247
83 1 4.00832 22.9138 4.28939
84 1 1.32414 22.7792 3.90491
85 1 7.08238 22.7055 1.30651
86 1 9.76621 22.8912 1.40272
87 1 9.51983 22.7729 4.14002
88 1 6.88121 22.8196 4.06105
15002 2 14.0605 -1.21802 2.76562
12016 2 8.40553 7.407 -0.10768
91 1 1.24311 0.404608 7.04512
92 1 4.12835 0.369275 7.37809
93 1 4.09554 2.82591 9.71937
94 1 1.75411 0.210598 10.0005
95 1 1.29953 3.12482 7.07642
96 1 4.08732 3.25018 7.01536
97 1 6.83647 5.72836 9.88898
98 1 1.26514 3.20128 9.87477
99 1 6.78398 3.12029 6.812
100 1 9.78339 0.256086 6.87132
101 1 9.64568 0.396662 9.80626
102 1 6.97044 3.08158 9.81479
103 1 6.81451 5.81009 7.0128
104 1 9.72406 3.00765 6.97876
105 1 9.75423 3.168 9.86559
106 1 6.83294 5.99311 12.5491
107 1 12.4346 0.473557 6.84939
108 1 12.5614 0.233349 9.7071
109 1 12.4907 3.20634 7.04707
110 1 12.5889 3.10865 9.8578
111 1 1.1775 5.85649 7.09502
112 1 3.95077 6.04431 7.08176
113 1 4.10211 8.60595 9.74273
114 1 1.40627 6.01689 9.99611
115 1 1.22099 8.65931 7.05642
116 1 3.85577 8.70168 7.09213
117 1 6.55925 9.84689 7.3726
118 1 1.18542 8.92627 9.77005
119 1 9.26371 8.56898 6.81916
120 1 9.78671 5.73361 6.96893
121 1 9.72991 6.02398 9.77676
122 1 6.98082 8.40847 9.62451
123 1 8.49278 11.8138 7.27258
124 1 12.5288 8.58428 6.81374
125 1 11.0125 10.6338 7.70449
126 2 8.41495 10.0371 8.65179
127 1 12.6254 5.98169 6.85611
128 1 12.5321 5.93987 9.6857
15022 2 13.9629 10.0831 2.67875
130 1 12.5894 11.6639 9.78874
131 1 1.13367 11.6267 6.81111
132 1 3.77689 11.6981 7.17946
133 1 4.02322 11.4601 9.79547
134 1 1.24372 11.8014 9.82638
135 1 1.15307 14.4283 7.0576
136 1 3.99491 14.5612 6.9798
137 1 4.14159 14.3988 9.73096
138 1 1.40054 14.5187 9.75945
139 1 9.83788 14.4956 6.87778
140 1 10.4518 12.2613 5.116
141 1 9.7278 11.5558 9.91848
142 1 6.95018 11.5195 9.71811
143 1 6.79358 14.5919 7.06422
144 1 9.63472 17.2877 6.91729
145 1 9.74728 14.5421 9.77332
146 1 6.83562 14.2122 9.82415
147 1 12.5215 14.3099 6.95035
148 1 12.6439 14.3697 9.75323
149 1 12.1928 17.1803 7.02477
150 1 12.6871 17.0771 9.99093
151 1 1.30471 17.3525 6.86489
152 1 4.05998 17.3178 6.86856
153 1 3.9292 17.3509 9.66793
154 1 1.27057 17.4442 9.70863
155 1 1.28691 20.0767 6.85447
156 1 4.00088 20.1754 6.9528
157 1 4.11219 20.2305 9.83297
158 1 1.26467 20.1485 9.74978
159 1 6.84682 17.2359 6.96304
160 1 12.4453 22.8347 4.09328
161 1 9.67193 17.2168 9.74019
162 1 6.87509 17.0871 9.7049
163 1 6.69791 20.0666 6.96718
164 1 9.57243 19.9565 6.92736
165 1 9.62059 19.9836 9.67326
166 1 6.96846 19.9446 9.7426
241 1 9.59003 8.63576 12.5688
168 1 12.4981 19.8149 9.7241
169 1 12.4504 22.739 6.78942
170 1 12.4952 22.8029 9.64436
171 1 1.18659 22.7653 6.82537
172 1 4.06185 22.8391 7.04015
173 1 4.18608 22.9048 9.9019
174 1 1.35245 22.8821 9.72899
175 1 6.85887 22.9485 6.82228
176 1 9.67893 22.8452 6.92866
177 1 9.6984 22.8156 9.77004
178 1 6.90291 22.7539 9.51957
12005 2 5.50454 -1.16011 0.039303
15091 2 13.8009 24.3184 5.45643
181 1 1.19137 0.59086 12.7786
182 1 4.01062 0.316801 12.3904
183 1 1.28598 3.2611 12.6712
184 1 4.15097 3.16422 12.6321
185 1 6.84983 0.417799 12.6684
186 1 9.7987 0.269417 12.6294
187 1 6.83606 3.15084 12.6495
188 1 9.70355 2.96987 12.7096
189 1 12.5568 0.271038 12.5493
190 1 12.5937 3.22707 12.7168
191 1 1.21175 5.94623 12.6697
192 1 4.01071 5.68751 10.039
193 1 1.09479 8.78457 12.6402
194 1 4.0677 8.83917 12.629
195 1 4.12836 6.03771 12.6355
196 1 9.70569 5.84091 12.6995
197 1 9.80803 8.76716 9.80859
198 1 12.4127 8.73204 9.8914
199 1 12.3473 5.9323 12.6445
200 1 12.5177 8.88681 12.7242
201 1 1.30357 11.6456 12.6668
202 1 3.99888 11.7265 12.6014
203 1 1.42135 14.4545 12.7088
204 1 4.20589 14.538 12.7137
205 1 6.78308 11.5687 12.524
206 1 9.62699 11.4828 12.7134
207 1 6.88032 14.2335 12.7177
208 1 9.65933 14.3403 12.504
209 1 12.4656 11.5358 12.6279
210 1 12.4698 14.417 12.5905
211 1 1.33695 17.2833 12.5291
212 1 4.10897 17.1873 12.4696
213 1 1.21662 20.0509 12.6531
214 1 4.12392 19.9109 12.5435
215 1 6.86524 17.019 12.5212
216 1 9.58681 17.1541 12.5068
217 1 6.9707 19.933 12.5472
218 1 9.67444 19.9574 12.5793
219 1 12.4028 17.2084 12.6184
220 1 12.5419 20.0268 12.6179
221 1 1.46583 22.8569 12.5199
222 1 4.11832 22.6696 12.564
223 1 6.8654 22.8578 12.4426
224 1 9.71406 22.6103 12.4921
225 1 12.5105 22.7236 12.516
12125 2 11.1137 21.2727 11.1138
12110 2 11.1255 4.51992 11.1574
12019 2 11.0594 4.51414 -0.0860079
12124 2 8.32252 24.1382 11.0606
80 1 12.5849 22.7281 1.27463
12109 2 8.26694 7.21225 11.1842
12057 2 8.36424 -1.09691 8.46699
12008 2 5.41542 1.65427 2.7512
243 1 6.91296 8.64807 12.3544
12010 2 11.138 1.69544 2.88389
12123 2 5.57208 21.3867 11.0353
12108 2 5.49929 4.51086 11.2838
12013 2 2.55496 4.54797 2.80651
12122 2 2.83994 24.156 11.2059
12107 2 2.66244 7.38689 11.3766
12112 2 2.76415 13.161 11.07
12017 2 8.31172 4.50051 2.71041
12018 2 5.49264 7.2972 2.83094
12104 2 8.3792 1.75299 11.2771
12020 2 11.1808 7.39609 2.52016
60 1 12.5226 20.0178 4.04835
15072 2 13.6689 10.0301 8.4545
12023 2 2.5907 10.1262 2.77783
12120 2 11.1942 15.8197 11.2203
12102 2 2.68716 1.97852 11.3168
12113 2 5.49855 10.1164 11.1415
12027 2 8.33961 10.0665 2.32734
12028 2 5.6309 12.7071 2.95592
12100 2 10.9913 24.2579 8.11385
12030 2 11.0857 13.0419 2.68166
12099 2 11.0762 21.403 5.39383
12098 2 5.44596 24.2302 8.28531
12033 2 2.5775 15.6542 2.73232
412 1 6.85539 14.2339 1.30153
12097 2 8.3558 21.2797 8.35931
12096 2 8.28212 24.2063 5.50499
12037 2 8.30848 15.7906 2.72623
12038 2 5.45373 18.5233 2.69819
12095 2 5.49192 21.482 5.51543
12040 2 11.0702 18.6583 2.57035
29 1 6.82705 8.66695 1.11054
12093 2 2.61839 21.4902 8.35104
12043 2 2.55324 21.3341 2.72331
5723 1 6.9987 0.423647 7.03852
12092 2 2.51646 24.2116 5.53932
5634 1 6.79265 0.22748 1.39657
12047 2 8.29047 21.3122 2.70501
12048 2 5.43111 24.0799 2.77782
12090 2 10.9716 18.5464 8.26836
12050 2 11.0357 24.2465 2.71152
12119 2 8.39933 18.387 11.1578
12052 2 2.65138 1.7674 5.61777
12009 2 11.1629 -1.06609 0.059745
12118 2 5.49082 15.6931 11.1377
5633 1 6.93048 0.0767185 4.24084
12056 2 8.32719 1.6702 5.47588
5726 1 6.78968 0.453159 9.93585
12058 2 5.67646 1.80923 8.30526
129 1 13.3547 11.3619 6.68968
12060 2 11.0985 1.66611 8.33496
12117 2 2.6779 18.7396 11.1829
12062 2 2.44258 7.23946 5.68459
12063 2 2.72444 4.65123 8.49759
12089 2 11.0044 15.6856 5.48055
12065 2 5.38479 4.5085 5.62936
12066 2 8.32279 6.9081 5.42047
12067 2 8.30766 4.44168 8.32581
12068 2 5.45112 7.33997 8.35207
12069 2 11.2578 4.43838 5.63221
12070 2 11.1371 7.36448 8.31425
12115 2 11.0181 10.1238 11.2035
12072 2 2.50631 13.0394 5.48085
12073 2 2.59777 10.1596 8.43016
12114 2 8.18532 12.9955 11.182
12075 2 4.85721 10.0144 5.58135
12076 2 8.40806 13.4072 5.6045
12077 2 8.0004 10.2131 5.52725
12078 2 5.54117 12.8392 8.11601
12079 2 11.5527 10.3475 5.45501
12080 2 11.0788 12.8972 8.34677
395 1 6.91427 11.5141 1.10689
12082 2 2.67541 18.6396 5.56608
12083 2 2.59916 16.0041 8.31245
15081 2 13.3931 18.419 5.55524
12085 2 5.35684 15.7908 5.6475
12086 2 8.22289 18.4928 5.5552
12087 2 8.33906 15.8621 8.40334
12088 2 5.46244 18.543 8.34223
167 1 12.3765 20.033 7.03351
12059 2 11.1323 -1.15178 5.61861
15001 2 13.9189 1.61684 -0.0801816
12149 2 5.53628 24.1666 13.9665
15101 2 14.0124 1.78464 11.1788
15121 2 13.7152 24.2088 11.0164
15052 2 13.9061 -1.00212 8.36404
12007 2 8.33442 -1.16855 2.77468
12146 2 2.61399 21.2679 14.0195
15011 2 14.0155 7.3661 -0.185047
12055 2 5.56543 -1.14456 5.63945
15042 2 14.0775 21.3456 2.92561
15116 2 13.999 18.6292 11.1392
12144 2 5.60192 18.4841 13.9115
15032 2 13.9679 15.8485 2.73129
12015 2 5.46768 4.60582 0.0159906
12148 2 8.22647 21.3526 13.9409
12091 2 -0.0957381 21.4131 5.40237
15062 2 13.9782 4.50932 8.41555
12021 2 -0.14398 10.2201 -0.125939
12032 2 2.67348 18.3214 -0.140926
12133 2 8.23843 4.51609 13.9315
12035 2 5.45335 15.5505 0.0222525
12039 2 11.228 15.726 -0.0757259
12042 2 2.65681 24.1412 -0.127137
12150 2 11.0402 24.1417 13.8926
12141 2 2.73446 15.8286 14.1233
15031 2 13.8888 18.5754 -0.214835
12145 2 10.9897 18.7162 14.022
12140 2 10.9834 12.9313 13.8688
12142 2 -0.193719 18.6996 14.0737
226 1 3.95415 0.601061 15.2902
227 1 1.15738 0.40652 15.5798
228 1 4.1974 3.28507 15.4909
229 1 1.31361 3.22843 15.3977
230 1 9.73819 0.389852 15.4972
231 1 6.93772 0.269535 15.3765
232 1 9.77887 3.26872 15.3594
233 1 6.9163 3.14982 15.55
234 1 12.4157 0.432508 15.4386
235 1 12.7616 3.08034 15.389
236 1 4.19374 6.03691 15.6164
237 1 1.31215 5.96186 15.6562
238 1 4.05845 8.79657 15.4013
239 1 1.19058 8.8207 15.4226
240 1 9.73873 6.20498 15.5499
12138 2 8.30698 10.2034 14.001
242 1 9.7231 8.87675 15.4497
5993 1 6.88933 0.33367 23.8844
244 1 12.6789 5.89446 15.4769
245 1 12.5249 8.80709 15.3531
246 1 4.2117 11.6681 15.3726
247 1 1.38413 11.5723 15.4894
248 1 4.18884 14.4843 15.3534
249 1 1.30598 14.4274 15.3535
250 1 9.72314 11.697 15.4874
251 1 6.99866 11.5094 15.4585
252 1 9.85433 14.4372 15.3759
253 1 7.08611 14.3985 15.5637
254 1 12.5671 11.5388 15.472
255 1 12.5637 14.3429 15.3197
256 1 3.94243 17.224 15.4034
257 1 1.17659 17.0611 15.5393
258 1 4.06867 20.0185 15.4118
259 1 1.25007 19.908 15.3666
260 1 9.73075 17.1844 15.347
261 1 6.89005 17.0471 15.3694
262 1 9.6044 20.0721 15.4804
263 1 6.87083 19.8318 15.4603
264 1 12.4294 17.2385 15.4195
265 1 12.4362 20.0442 15.5455
266 1 4.01486 22.7253 15.4677
267 1 1.22909 22.7067 15.239
268 1 9.60909 22.8518 15.324
269 1 6.83817 22.6725 15.3491
270 1 12.4625 22.7611 15.4258
271 1 1.32401 0.323148 18.3758
272 1 4.02271 0.388012 18.1798
273 1 4.08719 0.337201 20.9363
274 1 1.22983 0.4313 21.0809
275 1 1.2012 3.13464 18.4381
276 1 4.19671 3.22368 18.3189
277 1 4.2497 3.13412 20.9531
278 1 1.20447 3.34324 21.2458
279 1 6.88065 3.05875 18.2855
280 1 9.69632 0.327952 18.1862
281 1 9.81265 0.209219 21.0818
282 1 6.87575 3.08989 21.036
283 1 6.88074 5.98286 18.1243
284 1 9.69899 3.01147 18.2651
285 1 9.63374 3.01687 21.0706
286 1 6.89456 5.87538 23.86
287 1 12.5617 0.288059 18.2741
288 1 12.6809 0.143361 21.1083
289 1 12.5494 3.0699 18.2671
290 1 12.5347 2.97358 20.9092
291 1 1.36081 5.85892 18.3401
292 1 4.1153 6.07372 18.3832
293 1 3.933 5.95264 21.0667
294 1 1.29765 6.06643 20.9564
295 1 1.30545 8.63029 18.3386
296 1 4.21533 8.8013 18.2652
297 1 3.97146 8.74367 21.1552
298 1 1.19226 8.85841 21.151
299 1 7.02035 5.82455 15.314
300 1 9.89679 5.82625 18.2535
301 1 9.65026 5.76931 21.142
302 1 6.74737 5.92301 20.9933
303 1 6.96124 8.57424 15.3281
304 1 9.76105 8.67396 18.1386
305 1 9.66939 8.65027 20.9347
306 1 6.86058 8.74144 18.1755
307 1 12.5867 5.85608 18.2256
308 1 12.5484 5.99935 20.9863
309 1 12.6242 8.75528 18.0173
310 1 12.5456 8.72991 20.8491
311 1 1.17315 11.5269 18.3937
312 1 4.09432 11.7385 18.2695
313 1 4.21096 11.6011 21.1161
314 1 1.32273 11.5857 21.1157
315 1 1.27023 14.2144 18.2377
316 1 3.94008 14.5979 17.9977
317 1 4.16461 14.331 20.8694
318 1 1.3467 14.4627 21.0916
319 1 6.92541 11.4472 18.1408
320 1 9.76684 11.5367 18.2215
321 1 9.8266 11.683 20.9496
322 1 7.04904 11.5338 20.9861
323 1 6.7685 14.2609 18.1921
324 1 9.654 14.4156 18.2152
325 1 9.87041 14.3757 20.9563
326 1 6.9296 14.3913 21.0472
327 1 12.4995 11.466 18.1028
328 1 12.5968 11.5935 21.0971
329 1 12.5399 14.3119 18.0441
330 1 12.6424 14.3684 20.8932
331 1 1.39358 17.192 18.3045
332 1 4.00181 17.2342 18.1597
333 1 3.97899 17.099 21.0192
334 1 1.32559 17.3281 21.125
335 1 1.40319 19.9541 18.2615
336 1 4.08904 19.952 18.2832
337 1 4.24811 19.9224 21.0546
338 1 1.30399 20.0415 21.0662
339 1 6.74255 17.1932 18.2214
340 1 9.49173 17.2096 18.1384
341 1 9.7777 17.2292 21.04
342 1 6.87104 17.2879 21.0161
343 1 6.97 19.9585 18.2682
344 1 9.80835 20.0018 18.2766
345 1 9.78949 19.9324 21.0556
346 1 6.99054 19.9713 20.9339
347 1 12.4615 17.1507 18.3281
348 1 12.5694 17.2223 21.0709
349 1 12.6139 20.0276 18.1728
350 1 12.6054 20.0044 20.8162
351 1 1.2983 22.7035 18.0854
352 1 4.14642 22.6881 18.2206
353 1 4.06131 22.7524 21.0629
354 1 1.29184 22.6538 21.0351
355 1 6.90893 22.7605 18.3295
356 1 9.62673 22.7517 18.2234
357 1 9.80928 22.8576 20.9807
358 1 7.07774 22.7252 21.0384
359 1 12.5436 22.7737 18.165
360 1 12.6325 22.8082 20.9936
361 1 1.11475 0.498611 23.7694
362 1 4.12823 0.505734 23.8928
363 1 4.02328 0.268965 26.7325
364 1 1.23231 0.471117 26.6595
365 1 1.29709 3.20276 24.0071
366 1 4.05019 3.25051 23.8475
367 1 4.13607 3.13956 26.7355
368 1 1.33947 3.34009 26.7182
369 1 7.11061 3.05783 23.7953
370 1 9.69471 0.242776 23.7525
371 1 9.67862 0.259085 26.6232
372 1 6.97531 3.01427 26.5945
373 1 6.81423 5.83633 26.6034
374 1 9.87175 3.13334 23.881
375 1 9.77449 3.12501 26.5905
376 1 9.63267 5.97658 26.481
377 1 12.572 0.173215 23.9235
378 1 12.3288 0.283038 26.6094
379 1 12.4645 3.18232 23.6162
380 1 12.4924 3.02855 26.4573
381 1 1.33666 6.10844 23.7778
382 1 4.12669 6.13346 23.9139
383 1 4.06545 5.93083 26.7023
384 1 1.29624 6.06335 26.6737
385 1 1.20449 8.75396 23.9316
386 1 4.11025 8.86061 23.9648
387 1 4.24822 8.69103 26.6839
388 1 1.40143 8.81953 26.707
389 1 6.9478 8.74479 23.7335
390 1 9.63079 5.89897 23.7282
391 1 9.68821 8.73761 26.5999
392 1 7.00852 8.57049 26.35
393 1 6.93077 8.7483 20.9648
394 1 9.46764 8.82725 23.7183
12205 2 5.5031 -1.09017 22.4197
396 1 6.94461 11.5783 26.5654
397 1 12.503 5.98677 23.7526
398 1 12.317 6.07733 26.6757
399 1 12.4525 8.69182 23.7424
400 1 12.4907 8.80682 26.4587
401 1 1.26494 11.6125 23.8972
402 1 4.18894 11.6253 23.7978
403 1 4.10095 11.6059 26.6748
404 1 1.2751 11.5696 26.6962
405 1 1.36805 14.365 23.9385
406 1 4.2775 14.3193 23.7551
407 1 4.08813 14.3399 26.5133
408 1 1.28081 14.4013 26.7254
409 1 6.91999 11.5089 23.9273
410 1 9.85413 11.5358 23.839
411 1 9.76596 11.3654 26.6598
12155 2 5.48157 -1.22563 16.9345
413 1 6.97048 14.3693 23.7694
414 1 9.70576 14.4477 23.7385
415 1 9.70035 14.3571 26.654
416 1 6.91514 14.3614 26.5055
417 1 12.5382 11.3814 23.6656
418 1 12.5845 11.6957 26.5855
419 1 12.4958 14.2551 23.7516
420 1 12.4025 14.3033 26.5171
421 1 1.43718 17.2642 23.8399
422 1 4.11752 17.1998 23.8379
423 1 4.14106 16.9676 26.7078
424 1 1.26886 17.08 26.5166
425 1 1.28905 20.1457 23.7736
426 1 4.27332 19.9822 23.7909
427 1 4.28139 19.9474 26.6329
428 1 1.30216 19.866 26.5792
429 1 6.90835 17.1473 23.8078
430 1 9.64805 17.2086 23.8181
431 1 9.72207 17.2982 26.6125
432 1 6.83957 17.2449 26.6125
433 1 7.10759 20.0568 23.781
434 1 9.84312 19.9777 23.8708
435 1 9.78386 20.0409 26.7154
436 1 6.84286 19.9558 26.529
437 1 12.5528 17.1581 23.8418
438 1 12.4552 17.2533 26.6521
439 1 12.6321 19.9324 23.5387
440 1 12.4239 20.1425 26.3448
441 1 1.17151 22.8292 23.7534
442 1 4.04279 22.6863 23.7731
443 1 4.14764 22.7684 26.7332
444 1 1.27007 22.6608 26.4549
445 1 6.90639 22.7844 23.8263
446 1 9.75109 22.8031 23.7294
447 1 9.81003 22.8414 26.5062
448 1 6.93787 22.7336 26.5927
449 1 12.7317 22.8851 23.7854
450 1 12.6259 22.7723 26.4975
12203 2 2.59732 -0.97134 25.2751
12250 2 11.1304 24.1151 25.2377
12049 2 11.0939 21.3525 28.031
15212 2 13.8174 4.52798 25.1437
5906 1 7.02224 0.303495 20.9936
12157 2 8.35323 -1.19681 19.7644
12249 2 11.1662 21.3746 22.3554
12159 2 11.0815 -1.08119 16.7205
12209 2 11.1418 -1.19255 22.4791
12128 2 8.48842 -1.04804 13.969
15242 2 14.0217 21.4653 25.0354
12248 2 5.3421 23.9296 25.1067
15231 2 14.0091 18.5784 22.3331
12153 2 2.63046 -1.10894 19.6193
12201 2 -0.207428 -1.02641 22.447
15021 2 13.9962 12.9755 27.8981
12046 2 8.38185 24.2507 27.8922
15241 2 14.0425 24.2185 22.28
12220 2 11.0346 7.29367 25.1466
15222 2 13.9082 10.0344 25.1635
12232 2 2.82415 18.6686 22.4239
15181 2 13.9855 18.7429 16.7224
5903 1 6.81162 0.0734643 18.142
15232 2 13.8885 15.6203 25.1021
12136 2 2.68524 10.3019 13.9957
12247 2 8.43469 21.3563 25.2131
12152 2 2.61114 1.87999 16.8522
12227 2 8.32162 10.1022 25.1917
12246 2 8.45319 24.245 22.2895
12230 2 11.0166 13.027 25.1689
12156 2 8.29548 1.56588 16.7464
12229 2 11.1203 10.1274 22.3348
12158 2 5.5626 1.70244 19.5937
15192 2 13.9584 21.4532 19.6227
12160 2 11.0164 1.62243 19.6795
12245 2 5.73882 21.479 22.3363
12162 2 2.66927 7.31324 16.9277
12163 2 2.69833 4.56141 19.7248
12228 2 5.59438 12.9109 25.2817
12165 2 5.53881 4.64015 16.9363
12166 2 8.23665 7.36956 16.8147
12167 2 8.2492 4.43114 19.5216
12168 2 5.50226 7.41709 19.655
12169 2 11.2315 4.58049 16.8688
12170 2 11.1797 7.27405 19.6474
12243 2 2.74699 21.317 25.157
12172 2 2.73662 13.1128 16.7988
12173 2 2.7008 10.1969 19.6399
12242 2 2.54758 24.1116 22.4104
12175 2 5.41418 10.2136 16.8055
12176 2 8.41496 12.9769 16.8587
12177 2 8.38496 10.1066 19.5294
12178 2 5.6501 12.8489 19.7047
12179 2 11.0916 10.1419 16.7619
12180 2 11.1956 12.9548 19.5523
12236 2 8.33898 18.5454 22.4871
12182 2 2.63856 18.5297 16.8106
12183 2 2.74223 15.8451 19.6013
12223 2 2.7696 10.2388 25.2295
12185 2 5.50266 15.7116 16.7271
12186 2 8.1536 18.5579 16.8001
12187 2 8.29971 15.755 19.6964
12188 2 5.50057 18.5706 19.4945
12189 2 11.007 15.7571 16.701
12190 2 11.1843 18.6306 19.5683
12226 2 8.39567 12.9868 22.5205
12192 2 2.69649 24.118 16.642
12193 2 2.70803 21.2137 19.5999
12225 2 5.5819 10.155 22.5551
12195 2 5.48896 21.3804 16.743
12196 2 8.27991 24.1859 16.6956
12197 2 8.40784 21.2594 19.597
12198 2 5.50668 24.0306 19.5606
12199 2 11.0763 21.4484 16.8506
12200 2 11.1587 24.2312 19.5862
12240 2 11.098 18.6132 25.2133
12202 2 2.645 1.77735 22.4412
5996 1 6.85086 0.283438 26.7106
12239 2 11.1165 15.801 22.4369
12222 2 2.76758 13.0112 22.5153
12206 2 8.31368 1.61298 22.4448
12235 2 5.53524 15.6599 22.3624
12208 2 5.47057 1.68291 25.3755
12233 2 2.73083 15.7618 25.1863
12210 2 11.1465 1.60887 25.1623
12238 2 5.57316 18.5323 25.2351
12212 2 2.65415 7.38387 22.4255
12213 2 2.67889 4.58822 25.309
12237 2 8.28485 15.7867 25.2481
12215 2 5.53637 4.44931 22.4512
12216 2 8.16414 7.262 22.4902
12217 2 8.31053 4.43537 25.2559
12218 2 5.40166 7.33984 25.2169
12219 2 11.0474 4.48469 22.3788
12244 2 -0.174473 24.0918 25.2332
12214 2 -0.112194 7.5791 25.2701
15182 2 13.9583 15.784 19.5812
12025 2 5.49501 10.0359 27.9069
12129 2 5.60896 1.87301 14.0937
12131 2 2.85537 4.56256 14.106
15161 2 13.9612 7.33677 16.8801
12134 2 5.51693 7.45555 14.009
12135 2 11.1368 7.41275 14.2086
12207 2 8.34318 -1.26788 25.4049
12126 2 2.65467 -0.890457 14.0354
15201 2 13.8575 1.61584 22.4856
15191 2 13.9885 24.152 16.6094
12137 2 0.0221492 13.0212 14.04
12026 2 8.37747 12.9717 28.0218
15151 2 13.9508 1.65046 16.8658
12174 2 -0.0265569 13.0739 19.7073
12029 2 11.3077 10.0872 27.965
12130 2 11.193 1.81236 14.0865
15126 2 13.8878 -1.11038 13.9353
12194 2 -0.051615 24.2143 19.5554
12221 2 -0.112876 10.247 22.4738
15172 2 13.866 10.2016 19.435
12191 2 -0.0534078 21.3534 16.9277
12012 2 2.67076 7.32189 28.0848
12022 2 2.65261 13.0208 28.0664
12143 2 8.29899 15.8187 13.981
12045 2 5.5937 21.2654 28.1603
15141 2 13.9605 15.899 14.0751
12036 2 8.25359 18.4324 28.0314
12139 2 5.51466 12.9969 13.9885
15041 2 13.9482 24.1825 28.1226
451 1 1.2347 25.6826 1.33894
452 1 4.15493 25.4787 1.31078
453 1 3.99833 25.6119 4.05223
454 1 1.27202 25.6487 4.09712
455 1 6.89567 25.4062 1.12238
456 1 9.68942 25.636 1.20962
457 1 9.79184 25.5186 4.16772
458 1 6.81711 25.6784 4.13708
459 1 12.6873 31.0867 1.23263
460 1 12.5367 28.5805 4.17124
461 1 1.29106 28.4272 1.30499
462 1 4.13107 28.3755 1.16934
463 1 3.97364 28.5364 4.03705
464 1 1.21307 28.3979 4.252
465 1 1.28961 31.4146 1.30064
466 1 4.03812 31.043 1.29854
467 1 3.97475 31.3446 4.04853
468 1 1.10722 31.2824 4.09156
469 1 6.88837 28.3011 1.13442
470 1 9.69744 28.3847 1.12193
471 1 9.63163 28.4458 3.95977
472 1 6.78691 28.4174 3.94076
473 1 6.86708 31.155 1.16826
15316 2 13.8803 41.0397 5.39712
475 1 9.45068 31.1958 4.04013
476 1 6.77721 31.3092 3.97644
477 1 9.4893 31.0872 0.846837
478 1 11.0048 32.7326 2.37357
479 2 11.2394 32.5497 0.173477
480 1 9.40263 34.0648 0.438837
481 1 1.12016 34.5086 1.06633
482 1 3.87307 33.6895 1.05006
483 1 3.97466 34.1358 3.98461
484 1 1.1289 34.0803 4.06318
485 2 1.40299 36.7606 0.879777
486 1 3.55316 36.3133 1.70239
487 1 4.07522 36.9237 4.22686
488 1 1.22286 36.908 3.20477
489 1 6.74552 33.9452 1.25014
15282 2 13.9458 43.8826 2.59355
491 1 9.54556 34.2263 4.13218
492 1 6.80311 34.0915 4.14417
493 1 6.36269 37.1046 1.63576
494 1 9.39323 36.7483 1.43582
495 1 9.55146 36.9884 3.953
496 1 6.88975 36.7658 4.1698
497 1 12.6421 34.2104 0.922613
498 1 12.5539 34.2141 4.15071
499 1 12.3467 36.8006 1.22574
500 1 12.463 36.9799 4.04735
501 1 1.38108 38.9766 1.09117
502 1 4.0682 39.79 1.39368
503 1 4.19913 39.9644 4.07425
504 1 1.48309 39.8136 3.93401
505 1 1.16035 42.285 1.03564
506 1 4.07946 42.6372 1.36437
507 1 4.03699 42.5825 4.14031
508 1 1.24915 42.4939 3.90808
509 1 6.72989 39.7186 1.32518
510 1 9.661 39.5234 1.15618
511 1 9.45665 39.8373 3.95136
512 1 6.81798 39.7055 4.11899
513 1 6.91658 42.477 1.25585
514 1 9.78084 42.4657 1.16865
515 1 9.56084 42.4917 4.0335
516 1 6.98859 42.4995 4.07929
517 1 12.4797 39.6784 1.15384
518 1 12.4441 39.7258 4.075
519 1 12.5154 42.559 1.20887
520 1 12.4803 42.2696 4.06263
521 1 1.27387 45.2768 1.29249
522 1 4.00737 45.3666 1.44292
523 1 4.15689 45.2763 4.07604
524 1 1.17033 45.0807 4.00024
525 1 1.28115 48.0169 1.19292
526 1 4.1926 48.1603 1.18003
527 1 3.99713 48.0141 3.84088
528 1 1.16141 47.8152 4.00556
529 1 7.02548 45.3183 1.1489
530 1 9.76835 45.3132 1.34827
531 1 9.82564 45.3418 4.1068
532 1 6.87587 45.4345 3.94932
533 1 6.9777 48.1687 1.14285
534 1 9.72664 48.1733 1.24221
535 1 9.5798 48.0266 4.02186
536 1 6.75404 48.2527 4.01574
537 1 12.4054 45.3328 1.07648
538 1 12.6664 45.1852 4.03116
539 1 12.617 48.0801 1.29454
540 1 12.5017 48.1237 3.92172
541 1 1.13906 25.4931 7.01437
542 1 3.91189 25.7216 6.82104
543 1 4.11399 25.576 9.77182
544 1 1.36008 25.6125 9.68816
545 1 6.65277 25.7031 6.92103
546 1 9.58901 25.7016 6.86581
547 1 9.57409 25.6899 9.69666
548 1 6.86795 25.4718 9.66832
549 1 12.5762 28.5222 6.79062
550 1 12.4848 25.7516 9.71161
551 1 1.28051 28.387 6.9401
552 1 4.11207 28.5418 7.01487
553 1 3.96361 28.5411 9.61429
554 1 1.32373 28.4616 9.73801
555 1 1.27213 31.175 6.84677
556 1 4.01728 31.3713 6.91677
557 1 3.90516 31.3608 9.75464
558 1 1.11553 31.2242 9.59128
559 1 6.71443 28.4091 6.79165
560 1 9.63063 28.4331 6.86086
561 1 9.61092 28.461 9.7827
562 1 6.90455 28.4525 9.82432
563 1 6.83387 31.13 6.82787
564 1 9.67924 31.2637 6.73785
565 1 9.61706 31.1197 9.59929
566 1 6.78794 31.1491 9.8023
567 1 12.3728 31.2795 6.93932
568 1 12.4549 28.466 9.74126
90 1 12.6435 25.5215 1.34769
570 1 12.4485 31.3359 9.71713
571 1 1.25366 33.9263 6.96775
572 1 4.12938 33.9839 6.8983
573 1 3.89598 34.1533 9.73038
574 1 1.2068 33.9495 9.76708
575 1 1.08852 36.7271 6.48568
576 1 3.99903 36.7911 6.86159
577 1 4.00673 36.9097 9.74485
578 1 1.37588 36.8987 9.56265
579 1 6.73988 34.1152 6.8094
580 1 9.58217 34.0673 6.91619
581 1 9.60382 33.9091 9.54623
582 1 6.82012 33.9477 9.75287
583 1 6.97355 36.9838 6.897
584 1 9.88898 36.8615 6.6776
585 1 9.59559 36.7405 9.68773
586 1 6.8502 36.8091 9.67093
587 1 12.4274 34.0026 6.89806
588 1 12.4115 34.1571 9.54242
589 1 12.4948 36.9944 6.82488
590 1 12.4705 36.9284 9.6533
591 1 1.19596 39.5305 6.77853
592 1 3.96422 39.6133 6.83967
593 1 4.1114 39.7382 9.62903
594 1 1.36873 39.811 9.72311
595 1 1.32766 42.4951 6.78804
596 1 3.98448 42.4516 7.04714
597 1 4.08738 42.4379 9.78282
598 1 1.27382 42.4592 9.67745
599 1 6.77732 39.7312 6.94794
600 1 9.63052 39.5549 6.72775
601 1 9.69708 39.6204 9.69434
602 1 6.93248 39.6409 9.68249
603 1 6.79837 42.5023 6.85129
604 1 9.57942 42.3863 6.96135
605 1 9.67692 42.4178 9.6721
606 1 6.82407 42.4232 9.66716
607 1 12.5518 39.7827 6.89574
608 1 12.4866 39.7208 9.73751
609 1 12.3761 42.5069 6.91986
610 1 12.3944 42.39 9.69093
611 1 1.34268 45.2799 6.80009
612 1 4.12123 45.102 6.98671
613 1 4.2959 45.3198 9.74276
614 1 1.38727 45.2604 9.61773
615 1 1.3292 48.157 6.67343
616 1 4.04598 47.9794 6.65194
617 1 4.00852 48.0495 9.30406
618 1 1.27994 48.0257 9.41627
619 1 6.9668 45.2382 6.73509
620 1 9.698 45.2652 6.96401
621 1 9.85658 45.3431 9.60288
622 1 7.04765 45.227 9.46493
623 1 6.84754 48.0129 6.8657
624 1 9.7696 48.1272 6.82818
625 1 9.65717 47.9677 9.54406
626 1 6.7668 48.157 9.63229
627 1 12.4847 45.2957 6.77502
628 1 12.625 45.2563 9.61648
629 1 12.4231 48.0118 6.73849
630 1 12.6262 47.9885 9.68621
631 1 1.3574 25.6538 12.5042
632 1 4.12001 25.4966 12.6725
633 1 6.94775 25.6654 12.6615
634 1 9.70033 25.5532 12.4226
635 1 12.4888 25.3544 12.5513
636 1 1.18552 28.4697 12.4391
637 1 4.0188 28.3098 12.3735
638 1 1.0809 31.1565 12.6122
639 1 4.08339 31.1658 12.6083
640 1 6.79784 28.3095 12.6537
641 1 9.76922 28.5711 12.5103
642 1 6.83089 31.1724 12.526
643 1 9.81017 31.3504 12.3587
644 1 12.3836 28.2953 12.5332
645 1 12.4462 31.0444 12.5534
646 1 1.29046 34.1374 12.5808
647 1 4.03905 33.8916 12.6136
648 1 1.14112 36.8915 12.5198
649 1 4.03227 36.742 12.5187
650 1 6.74715 34.0213 12.4834
651 1 9.60907 34.135 12.2611
652 1 6.83447 36.9405 12.4053
653 1 9.63747 36.8067 12.4623
654 1 12.5657 33.9369 12.3704
655 1 12.3732 36.7071 12.5519
656 1 1.17188 39.6846 12.452
657 1 3.96259 39.5216 12.4361
658 1 1.32599 42.3682 12.6163
659 1 4.06589 42.4731 12.5312
660 1 6.7528 39.6404 12.574
661 1 9.63435 39.6457 12.3243
662 1 6.85556 42.4303 12.5064
663 1 9.54787 42.3893 12.4408
664 1 12.3156 39.67 12.4121
665 1 12.4354 42.5 12.3968
666 1 1.3876 45.1312 12.46
667 1 4.20582 45.1463 12.4391
668 1 1.17797 48.168 12.4657
669 1 4.01705 48.0245 12.2978
670 1 6.93843 45.2175 12.3889
671 1 9.66722 45.2178 12.4311
672 1 7.04221 48.0277 12.4067
673 1 9.74301 48.0495 12.3672
674 1 12.4183 45.2474 12.3803
675 1 12.4849 48.0491 12.5588
12363 2 11.2404 49.3082 11.0633
89 1 12.5187 28.4681 1.3461
12253 2 2.72912 26.962 2.62486
12362 2 5.44637 49.4521 10.9508
15262 2 13.7457 32.873 2.75211
180 1 12.3462 25.6571 6.9229
12257 2 8.1635 26.9395 2.59633
12258 2 5.41077 29.7524 2.57031
15346 2 13.743 35.4278 11.0372
12260 2 11.154 29.9351 2.55511
12360 2 11.1521 43.88 10.9816
12376 2 8.15032 38.2252 13.7881
12263 2 2.61197 32.6267 2.69604
12359 2 8.37243 46.6967 11.0158
1004 1 1.15847 50.8494 9.51801
12371 2 8.23824 32.5943 13.848
12267 2 8.28104 32.6245 2.55553
12268 2 5.50385 35.4405 2.75111
12345 2 11.0238 26.9165 10.972
12270 2 11.1318 35.4928 2.56601
12358 2 5.64913 43.9556 10.9957
12344 2 8.286 29.8418 11.1594
12273 2 3.09804 38.4443 2.91063
12357 2 2.61471 46.6355 11.0325
12343 2 5.58007 26.9532 11.2174
179 1 12.4532 25.7015 3.92888
12277 2 8.18471 38.3835 2.53529
12278 2 5.5894 41.0948 2.62031
12364 2 2.64195 26.9688 13.8618
12280 2 10.9776 41.0669 2.59466
12355 2 11.0499 38.162 11.0383
15378 2 13.8689 43.8612 13.7264
12283 2 2.70875 43.8675 2.6567
12354 2 8.15137 40.9553 11.1332
15252 2 13.9618 27.127 2.7391
15351 2 13.9599 41.019 11.0774
12287 2 8.33497 43.8771 2.58573
12288 2 5.57325 46.7691 2.56565
12369 2 2.60671 32.503 14.0045
12290 2 11.255 46.7388 2.55138
12353 2 5.48234 38.2688 11.0395
12292 2 2.60211 49.3532 2.67842
15306 2 13.9488 35.5984 5.49008
12294 2 8.2895 49.558 2.65286
15317 2 13.906 38.3492 8.28905
15327 2 13.7528 43.8535 8.09672
12297 2 2.72305 29.8556 5.57998
12298 2 2.81556 27.011 8.36861
12385 2 8.3681 49.3733 13.8225
12300 2 5.24824 27.1298 5.50928
12301 2 8.2833 29.8087 5.33253
12302 2 8.17748 26.9818 8.27002
12303 2 5.41021 29.8563 8.37461
12304 2 11.0473 27.1237 5.48074
12305 2 11.1024 29.8277 8.2671
12352 2 2.63727 41.1701 11.2059
12307 2 2.7727 35.3618 5.47324
12308 2 2.66327 32.6508 8.30235
569 1 12.5945 31.3655 4.06853