ITEM: TIMESTEP
225000
ITEM: NUMBER OF ATOMS
18000
ITEM: BOX BOUNDS xy xz yz pp pp pp
-9.9897922434640615e-02 2.7993897922435757e+01 0.0000000000000000e+00
-1.1626319636865674e+00 3.3589063196371961e+02 0.0000000000000000e+00
-9.7845257050041753e-02 2.7991845257050581e+01 0.0000000000000000e+00
ITEM: ATOMS id type x y z
1 1 1.30653 0.184736 1.38221
2 1 4.08984 0.218769 1.30347
3 1 4.04488 0.143355 4.24682
4 1 1.27819 0.147953 4.21366
5 1 1.22483 2.9979 1.24987
6 1 3.96272 3.02989 1.29913
7 1 3.99627 2.90191 4.16173
8 1 1.23657 2.93396 4.16876
9 1 6.91277 2.88697 1.16288
10 1 9.72073 0.0164361 1.20472
11 1 9.60962 0.203789 4.08763
12 1 6.76741 2.92273 4.13169
13 1 6.87589 5.77601 1.26547
14 1 9.73519 2.83947 1.21757
15 1 9.74296 2.97936 4.17006
16 1 6.93574 5.50261 4.10629
17 1 12.5054 0.142359 1.27332
18 1 12.5834 0.0738376 4.15054
19 1 12.3837 2.96421 1.32798
20 1 12.5498 2.81829 4.10424
21 1 1.31124 5.82277 1.22716
22 1 4.13892 5.86196 1.35864
23 1 4.1601 5.77346 4.16995
24 1 1.26333 5.6726 4.118
25 1 1.34503 8.57423 1.15223
26 1 4.02983 8.69857 1.25907
27 1 3.88048 11.3914 4.09459
28 1 1.28974 8.47513 4.10987
15072 2 13.8333 9.71074 8.44436
30 1 9.6982 5.83099 1.4105
31 1 9.83568 5.73461 4.10461
32 1 6.4257 8.22246 5.42762
33 1 6.50676 10.3685 3.77309
34 1 9.9249 8.68699 1.32468
35 1 7.87371 7.967 3.45145
36 1 6.54308 11.97 5.85724
37 1 12.5323 5.9141 1.35048
38 1 12.4901 5.58702 4.11556
39 1 12.6996 8.5571 1.25056
40 1 12.6669 8.53412 4.02341
41 1 1.08522 11.4149 1.51614
42 1 3.80169 11.5047 1.32295
43 1 7.02048 14.4314 4.21051
44 1 1.17356 11.2826 4.33845
45 1 1.32096 14.2556 1.36253
46 1 4.06199 14.2218 1.15737
47 1 4.10135 14.2194 4.24099
48 1 1.23479 14.1978 4.20686
49 1 3.93881 8.34771 4.02778
50 1 9.66042 11.5204 1.09769
51 1 10.0536 8.88115 4.77316
52 1 9.01882 11.5779 3.89425
53 1 7.1133 17.0457 4.21825
54 1 9.64946 14.3494 1.19302
55 1 12.4366 14.3787 3.98472
56 1 9.7363 14.4029 4.07429
57 1 12.5433 11.4145 1.14177
58 1 12.455 11.3593 3.92117
59 1 12.4181 14.1223 1.09151
12144 2 5.51311 18.4892 14.0605
61 1 1.30315 17.0786 1.39244
62 1 4.10041 16.9551 1.42044
63 1 4.24254 16.839 3.99452
64 1 1.29434 17.0071 4.11174
65 1 0.937902 19.7974 1.31509
66 1 3.83306 19.8316 1.29934
67 1 4.02069 19.723 4.01841
68 1 1.19512 19.695 4.2581
69 1 6.93367 17.0284 1.22719
70 1 9.67908 17.0569 1.40155
71 1 12.3689 17.0594 4.16949
72 1 9.80821 17.1276 4.29851
73 1 6.73635 19.6598 1.14503
74 1 9.59598 19.8918 1.27226
75 1 9.5433 19.9818 4.20105
76 1 6.71486 19.8171 3.83209
77 1 12.4047 16.9228 1.35607
15001 2 13.9531 1.55748 -0.164819
79 1 12.3784 19.6724 1.22029
15101 2 13.9374 1.478 11.2696
81 1 1.2563 22.6778 1.24954
82 1 3.94417 22.6939 1.23173
83 1 3.98361 22.6042 3.99642
84 1 1.35003 22.6231 4.25503
85 1 6.80712 22.5783 1.36836
86 1 9.68298 22.7695 1.11979
87 1 9.62586 22.6552 4.06615
88 1 6.75824 22.5889 4.23965
15041 2 13.7483 23.9124 -0.0717904
12034 2 -0.317982 18.3693 2.87524
91 1 1.26031 0.0453834 6.92292
92 1 4.1248 0.195514 7.39598
93 1 4.21435 2.59529 9.8494
94 1 1.50715 0.0954384 9.76557
95 1 1.36329 2.86425 6.87518
96 1 4.18888 2.94378 6.95241
97 1 6.93823 5.74897 9.79046
98 1 1.22635 2.9316 9.81792
99 1 6.99054 3.10449 6.91951
100 1 9.65521 0.00021199 6.94232
101 1 9.49133 0.0566044 9.76318
102 1 7.07314 2.94369 9.76073
103 1 6.87657 5.86132 6.95644
104 1 9.68722 2.93116 6.88211
105 1 9.79477 2.87286 9.78161
106 1 6.96003 5.74516 12.6699
107 1 12.3959 0.0147613 6.9861
108 1 12.5419 0.184631 9.75074
109 1 12.5497 2.66729 6.91454
110 1 12.5966 3.01504 9.81637
111 1 1.14299 5.58446 6.89815
112 1 4.0266 5.67383 7.00848
113 1 4.12452 8.40258 9.8709
114 1 1.46776 5.62411 9.76591
115 1 1.20845 8.34336 7.05653
116 1 3.84815 8.41035 6.98933
117 1 6.3476 9.88858 7.58294
118 1 1.29728 8.36689 9.88705
119 1 8.84746 8.38955 7.10283
120 1 9.78659 5.70552 6.88138
121 1 9.83448 5.73687 9.71698
122 1 7.0656 8.42285 9.82626
123 1 8.86278 11.5781 7.00438
124 1 12.6195 8.26298 6.94298
125 1 10.8927 10.2628 7.80095
126 2 8.43363 9.90178 8.78802
127 1 12.4137 5.61153 6.87097
128 1 12.5826 5.66149 9.5805
12049 2 10.9722 21.2613 -0.0527672
130 1 12.6649 11.4539 9.64161
131 1 1.16116 11.5101 6.97129
132 1 3.9069 11.2834 6.98599
133 1 4.07883 11.2094 9.72703
134 1 1.11882 11.3195 9.67564
135 1 1.33949 14.2373 6.98278
136 1 4.18858 14.1121 6.96335
137 1 4.03167 14.0013 9.74916
138 1 1.25607 14.1545 9.75359
139 1 9.82183 14.4701 7.0497
140 1 11.3519 12.3853 6.01286
141 1 9.81309 11.3698 10.0471
142 1 7.0739 11.3692 9.75403
143 1 7.0888 14.3314 6.9868
144 1 9.3737 17.1259 7.18974
145 1 9.76954 14.0377 9.76616
146 1 6.89451 14.1014 9.86468
147 1 12.7648 14.4017 6.83948
148 1 12.4536 14.1931 9.64496
149 1 12.1011 17.17 7.06315
150 1 12.5036 17.0296 9.89025
151 1 1.21162 16.9754 6.9872
152 1 3.98224 16.9113 7.02637
153 1 3.97309 16.9464 9.88048
154 1 1.21578 16.8481 9.73184
155 1 1.2917 19.8797 6.91719
156 1 4.06315 19.7307 6.75802
157 1 4.19435 19.7487 9.53429
158 1 1.22124 19.7182 9.63699
159 1 6.64558 17.0379 6.89702
160 1 12.4054 22.5542 4.28551
161 1 9.68315 17.0538 9.98534
162 1 6.85657 16.8942 9.78217
163 1 6.86376 19.7355 6.83483
164 1 9.47457 19.8668 6.99841
165 1 9.57916 19.8038 10.0381
166 1 6.88913 19.8174 9.6834
241 1 9.70672 8.55112 12.5242
168 1 12.3149 19.9806 9.74413
169 1 12.2311 22.5969 7.0295
170 1 12.395 22.655 9.76307
171 1 0.968798 22.6878 6.8835
172 1 3.87393 22.6005 6.90181
173 1 4.07716 22.541 9.78926
174 1 1.41812 22.5746 9.71771
175 1 6.57828 22.5479 6.86546
176 1 9.32519 22.5688 6.97523
177 1 9.49261 22.5654 9.84568
178 1 6.64089 22.8545 9.90672
12064 2 -0.0313898 7.00022 8.51425
15111 2 13.9593 12.811 11.1458
181 1 1.29084 0.266082 12.679
182 1 4.15426 0.15537 12.268
183 1 1.38749 3.01469 12.6086
184 1 4.09962 2.92661 12.5909
185 1 7.07386 0.107088 12.6518
186 1 9.83068 0.138304 12.4801
187 1 7.00789 2.88015 12.4632
188 1 9.85146 2.92723 12.5769
189 1 12.4435 0.114971 12.5675
190 1 12.5172 3.01037 12.5467
191 1 1.38079 5.83523 12.6211
192 1 4.03637 5.5107 9.74141
193 1 1.28516 8.63271 12.5353
194 1 4.03883 8.49205 12.6112
195 1 4.18251 5.74212 12.4846
196 1 9.63538 5.68041 12.5421
197 1 9.77082 8.37899 10.0188
198 1 12.602 8.53823 9.90858
199 1 12.6487 5.9057 12.6085
200 1 12.5718 8.59488 12.6202
201 1 1.24746 11.3914 12.4199
202 1 4.0657 11.3108 12.5276
203 1 1.4224 14.1401 12.5815
204 1 4.22317 14.2176 12.6199
205 1 6.82739 11.413 12.5133
206 1 9.71438 11.3935 12.789
207 1 7.0098 14.1999 12.7247
208 1 9.84314 14.1733 12.5586
209 1 12.4564 11.4512 12.6272
210 1 12.589 14.1709 12.5755
211 1 1.52937 16.9916 12.6189
212 1 4.25325 16.9277 12.7047
213 1 1.18209 19.6715 12.3162
214 1 4.1502 19.6672 12.4267
215 1 7.15911 16.8455 12.4942
216 1 9.86413 16.9291 12.7191
217 1 7.00167 19.6895 12.5856
218 1 9.65371 19.7512 12.7302
219 1 12.6082 17.0276 12.7754
220 1 12.4497 19.8881 12.4821
221 1 1.09391 22.5919 12.6399
222 1 4.15943 22.4777 12.6701
223 1 6.82458 22.6283 12.6423
224 1 9.66525 22.5273 12.6049
225 1 12.4629 22.6934 12.6978
12125 2 11.0165 21.2581 11.1991
12110 2 11.1687 4.34796 11.1094
12042 2 2.48639 23.9359 -0.202782
12124 2 8.2185 24.0505 11.2469
80 1 12.3756 22.5119 1.35407
12109 2 8.35972 7.05497 11.2495
15022 2 13.9866 9.94343 2.71963
12008 2 5.38357 1.56566 2.78053
243 1 6.85655 8.58897 12.5787
12010 2 11.1322 1.48117 2.76238
12123 2 5.49208 21.1627 11.1155
12108 2 5.5509 4.34556 11.1569
12013 2 2.68863 4.38181 2.71412
12122 2 2.74112 24.0025 11.1481
12107 2 2.70971 7.16445 11.2171
12112 2 2.73272 12.5418 11.069
12017 2 8.33813 4.26801 2.73654
12018 2 5.67983 7.29512 2.77369
12104 2 8.37179 1.54284 11.1909
12020 2 11.2024 7.24136 2.73854
60 1 12.3369 19.8896 4.02554
12141 2 2.81254 15.5326 14.0439
12023 2 2.55664 9.92732 2.73312
12120 2 11.1336 15.5563 11.2766
12102 2 2.72323 1.57327 11.1819
12113 2 5.53152 9.82559 11.1868
12027 2 8.35046 9.97032 2.32811
12028 2 5.44632 12.8195 2.58347
12100 2 10.9347 23.9252 8.39463
12030 2 10.9894 12.9137 2.72156
12099 2 10.8732 21.2559 5.52736
12098 2 5.24824 23.9958 8.40099
12033 2 2.69153 15.5744 2.78154
412 1 6.93149 14.2258 1.54442
12097 2 8.12118 21.2564 8.40417
12096 2 8.15766 23.9831 5.57336
12037 2 8.43788 15.7088 2.73985
12038 2 5.51857 18.2949 2.77258
12095 2 5.30196 21.1798 5.41655
12040 2 11.0779 18.4375 2.62625
29 1 6.88301 8.75694 0.965411
12093 2 2.70377 21.2357 8.34814
12043 2 2.60203 21.2657 2.71282
5723 1 6.92214 0.158728 6.90008
12092 2 2.45019 24.0495 5.58693
5634 1 6.8143 0.107475 1.3003
12047 2 8.3299 21.1918 2.71319
12048 2 5.32208 24.0356 2.82748
12090 2 10.933 18.4595 8.50402
12050 2 11.0285 23.9486 2.72819
12119 2 8.39101 18.3568 11.3143
12052 2 2.65757 1.5143 5.58404
15116 2 13.8382 18.5032 11.147
12118 2 5.56596 15.6305 11.1999
5633 1 6.90219 0.274153 4.08614
12056 2 8.29848 1.58231 5.46861
5726 1 6.5089 0.0879062 9.74416
12058 2 5.7107 1.62076 8.29789
129 1 13.836 10.8792 6.5075
12060 2 11.1683 1.52791 8.36337
12117 2 2.71287 18.1986 11.1456
12062 2 2.59072 7.05363 5.57029
12063 2 2.69529 4.22471 8.30327
12089 2 11.2771 15.6666 5.67029
12065 2 5.39312 4.45123 5.49614
12066 2 8.35401 6.93887 5.44159
12067 2 8.42892 4.36181 8.31742
12068 2 5.50859 7.15493 8.33349
12069 2 11.1745 4.28437 5.47057
12070 2 11.13 7.17018 8.34445
12115 2 11.1964 10.0057 11.2639
12072 2 2.73947 12.7951 5.67493
12073 2 2.50567 9.81191 8.48804
12114 2 8.39783 12.8414 11.2823
12075 2 4.86327 9.85477 5.57433
12076 2 8.57226 13.2574 5.6035
12077 2 7.95306 10.1048 5.57298
12078 2 5.5318 12.4891 8.16429
12079 2 11.6119 10.1285 5.69466
12080 2 11.0178 12.6175 8.36031
395 1 6.78089 11.4113 1.26025
12082 2 2.71686 18.2254 5.47271
12083 2 2.72661 15.4738 8.40558
15081 2 13.2494 18.5085 5.59867
12085 2 5.53078 15.5597 5.55759
12086 2 8.27373 18.4141 5.61183
12087 2 8.28435 15.571 8.54201
12088 2 5.4171 18.2965 8.36348
167 1 12.1716 20.0095 6.9497
15071 2 13.7727 12.9264 5.34146
15062 2 13.9298 4.31273 8.32786
12004 2 -0.15973 1.62834 2.7369
15091 2 13.6288 24.0569 5.46439
12129 2 5.57009 1.44958 14.0781
12130 2 11.1709 1.54646 13.9404
12014 2 0.0167114 7.18763 2.5752
12061 2 -0.180087 4.27012 5.45609
12054 2 -0.187712 1.41683 8.39296
12074 2 -0.261113 12.6953 8.36036
12136 2 2.68956 9.90531 13.9165
12138 2 8.32873 9.92119 13.8245
12045 2 5.31927 21.0416 -0.062999
12111 2 -0.239548 9.90262 11.2699
15051 2 14.0232 1.55423 5.5404
12046 2 8.12308 24.0481 -0.0192414
12143 2 8.45885 15.6458 13.9834
12036 2 8.19706 18.4666 -0.107288
12011 2 0.00837654 4.42469 -0.111818
15011 2 14.0009 7.14472 -0.13421
12035 2 5.49771 15.555 -0.107892
12134 2 5.53612 7.00418 13.9871
12146 2 2.67561 21.0968 13.8561
12145 2 11.0901 18.4288 14.0435
12022 2 2.70441 12.9484 -0.0977128
15136 2 13.9436 10.1436 13.9458
226 1 3.99099 0.163215 15.2299
227 1 1.21235 0.194709 15.5942
228 1 4.25364 2.88176 15.4198
229 1 1.39541 2.98879 15.4124
230 1 9.66759 0.172753 15.3648
231 1 6.8518 -0.0092447 15.3213
232 1 9.67728 2.88906 15.392
233 1 6.98071 2.78655 15.4601
234 1 12.6266 0.0747064 15.2688
235 1 12.3735 3.01908 15.3344
236 1 4.14099 5.65407 15.4051
237 1 1.36029 5.73435 15.3494
238 1 4.143 8.51816 15.5987
239 1 1.24984 8.57488 15.2412
240 1 9.68471 5.71126 15.5812
15162 2 13.9747 4.36576 19.4509
242 1 9.70076 8.56487 15.2325
5993 1 6.91837 0.204231 23.7194
244 1 12.505 5.631 15.4537
245 1 12.521 8.75727 15.2349
246 1 4.18359 11.3914 15.3138
247 1 1.55516 11.4131 15.3976
248 1 4.05977 14.2342 15.5136
249 1 1.2477 14.1022 15.4051
250 1 9.72227 11.472 15.5553
251 1 7.08356 11.3004 15.2877
252 1 9.80745 14.3385 15.5538
253 1 6.95539 14.0322 15.3973
254 1 12.4489 11.4286 15.3517
255 1 12.658 14.1572 15.3572
256 1 4.22271 17.0626 15.4091
257 1 1.37277 17.0112 15.4306
258 1 4.18602 19.9465 15.2639
259 1 1.4867 19.6221 15.246
260 1 9.78868 17.1397 15.3919
261 1 7.1638 16.8947 15.2901
262 1 9.84347 19.8375 15.467
263 1 7.0087 19.9215 15.412
264 1 12.645 16.9494 15.4854
265 1 12.6183 19.7683 15.4764
266 1 4.21511 22.7357 15.4596
267 1 1.35614 22.6851 15.4613
268 1 9.67143 22.5984 15.4685
269 1 6.93009 22.6326 15.4607
270 1 12.521 22.5666 15.5296
271 1 1.07313 -0.0110946 18.3206
272 1 4.08787 0.109727 18.0973
273 1 4.21821 0.00901704 20.8677
274 1 1.26787 0.283264 21.0103
275 1 1.27476 2.78862 18.2671
276 1 4.19892 2.9356 18.082
277 1 4.07181 2.83106 20.8013
278 1 1.19262 3.04003 20.9654
279 1 7.08519 2.93852 18.2887
280 1 9.61916 0.0413278 18.1288
281 1 9.67544 0.048257 20.8662
282 1 6.9202 3.12929 21.0869
283 1 6.86847 5.7843 18.1067
284 1 9.60575 2.92213 18.1965
285 1 9.77309 2.8516 20.9373
286 1 6.90782 5.87581 23.6203
287 1 12.4239 0.399321 17.9083
288 1 12.4552 0.194732 20.817
289 1 12.5302 3.18662 18.2344
290 1 12.5422 2.97168 20.9484
291 1 1.33084 5.5769 18.1459
292 1 4.17482 5.77705 18.2036
293 1 4.04399 5.69617 20.9069
294 1 1.30998 5.72677 20.9074
295 1 1.11224 8.43895 17.981
296 1 3.9849 8.60609 18.3447
297 1 4.08755 8.58723 21.0386
298 1 1.30455 8.60756 20.9796
299 1 7.07576 5.75101 15.3432
300 1 9.58266 5.78309 18.151
301 1 9.62788 5.81138 20.9392
302 1 6.91802 5.71404 21.0213
303 1 6.9231 8.56267 15.386
304 1 9.75557 8.58917 18.2948
305 1 9.59726 8.60114 21.0003
306 1 6.99709 8.60672 18.1743
307 1 12.4651 5.9488 18.1623
308 1 12.4991 5.75887 20.9619
309 1 12.7024 8.68208 17.9744
310 1 12.5443 8.51212 20.8608
311 1 1.31418 11.4184 18.2365
312 1 4.00038 11.4968 18.2457
313 1 3.99991 11.3562 20.9986
314 1 1.19379 11.4561 20.9707
315 1 1.23375 14.1885 18.1703
316 1 4.02995 14.1738 18.2665
317 1 4.16393 14.2014 20.97
318 1 1.30473 14.1598 21.0476
319 1 6.76736 11.4395 18.2627
320 1 9.77663 11.4477 18.315
321 1 9.8287 11.3862 21.0101
322 1 7.02783 11.4481 21.049
323 1 7.04396 14.1599 18.1533
324 1 9.7542 14.247 18.2575
325 1 9.74066 14.2336 20.9128
326 1 6.90675 14.0023 20.9091
327 1 12.5154 11.4797 18.0035
328 1 12.4897 11.3349 20.9421
329 1 12.5723 14.3612 18.1178
330 1 12.4664 14.1633 20.996
331 1 1.27466 17.0303 18.2653
332 1 4.0775 17.0908 18.111
333 1 4.15527 16.9555 20.9091
334 1 1.20914 16.9915 21.0254
335 1 1.12464 19.8792 18.2595
336 1 4.18053 19.8097 18.0955
337 1 4.07719 19.8248 21.0536
338 1 1.21476 19.8336 20.9685
339 1 6.71679 16.925 18.1823
340 1 9.70643 17.0831 18.244
341 1 9.65716 16.9961 20.92
342 1 6.79334 16.9595 20.9281
343 1 6.96458 19.8098 18.2269
344 1 9.8165 19.8803 18.3069
345 1 9.7522 19.9171 21.0522
346 1 7.01758 19.7092 20.9121
347 1 12.5101 17.1609 18.292
348 1 12.4611 17.1309 20.988
349 1 12.5475 20.0505 18.1891
350 1 12.5647 19.9566 21.0066
351 1 1.25585 22.4837 18.2061
352 1 4.04089 22.658 18.2623
353 1 4.2272 22.5691 20.8203
354 1 1.40335 22.6187 21.0921
355 1 6.80854 22.5619 18.2784
356 1 9.64827 22.7248 18.2311
357 1 9.7896 22.7198 20.9446
358 1 7.10239 22.4906 21.0851
359 1 12.6002 22.8426 18.2636
360 1 12.5532 22.7827 21.0329
361 1 1.28629 0.248849 23.8288
362 1 4.11847 0.23138 23.8116
363 1 4.06868 0.264749 26.5651
364 1 1.28822 0.16644 26.7887
365 1 1.34392 2.9753 23.8041
366 1 4.23203 2.95578 23.7562
367 1 4.1039 3.05531 26.551
368 1 1.30779 2.87544 26.52
369 1 7.03506 2.92405 23.9152
370 1 9.82209 0.240998 23.7269
371 1 9.6062 0.0593989 26.6229
372 1 6.87487 2.96488 26.6314
373 1 6.90648 5.70032 26.4802
374 1 9.65918 3.03282 23.7705
375 1 9.61139 2.91846 26.4961
376 1 9.79043 5.7731 26.5498
377 1 12.5295 0.233378 23.628
378 1 12.4368 0.177053 26.4052
379 1 12.526 2.90963 23.8151
380 1 12.6087 2.96965 26.6672
381 1 1.27308 5.70188 23.8108
382 1 4.2423 5.69946 23.6569
383 1 4.22762 5.87859 26.601
384 1 1.41268 5.85909 26.5496
385 1 1.20416 8.58269 23.8406
386 1 4.06047 8.53209 23.7586
387 1 4.18238 8.68754 26.5801
388 1 1.33699 8.62097 26.5273
389 1 6.90655 8.61994 23.7972
390 1 9.63897 6.04689 23.8702
391 1 9.83046 8.65594 26.5981
392 1 7.04131 8.44738 26.4235
393 1 6.93463 8.57516 20.9271
394 1 9.53144 8.72417 23.7047
15171 2 13.9123 12.9426 16.8649
396 1 6.98085 11.4004 26.5591
397 1 12.4047 5.76901 23.8387
398 1 12.5494 5.8293 26.6929
399 1 12.3871 8.51881 23.6702
400 1 12.7445 8.57899 26.4895
401 1 1.23198 11.3466 23.8045
402 1 4.13723 11.357 23.623
403 1 4.20656 11.5038 26.4169
404 1 1.29085 11.4046 26.8616
405 1 1.21666 14.2641 23.7955
406 1 4.13573 14.3003 23.7765
407 1 4.16527 14.1921 26.6518
408 1 1.28029 14.3587 26.6231
409 1 6.69263 11.3432 23.7972
410 1 9.72028 11.4641 23.7553
411 1 9.63888 11.6171 26.6142
15182 2 13.8847 15.7086 19.5975
413 1 6.97818 14.2161 23.7389
414 1 9.78585 14.2445 23.7794
415 1 9.72133 14.3232 26.4743
416 1 6.94083 14.3681 26.6453
417 1 12.4272 11.4423 23.6791
418 1 12.6242 11.4133 26.3712
419 1 12.4913 14.2925 23.6947
420 1 12.3853 14.2138 26.4147
421 1 1.34475 17.0561 23.7895
422 1 4.10233 16.9864 23.7789
423 1 3.93159 16.9374 26.6461
424 1 1.12904 16.9765 26.687
425 1 1.25522 19.6994 23.8787
426 1 4.09727 19.9106 23.6905
427 1 3.98363 19.6609 26.5088
428 1 1.15126 19.7517 26.5246
429 1 6.92636 16.9778 23.9527
430 1 9.75955 17.0608 23.7626
431 1 9.68923 17.1346 26.5143
432 1 6.85387 17.1696 26.6429
433 1 6.96502 19.7388 23.7465
434 1 9.69022 19.8951 23.8755
435 1 9.67341 19.8266 26.5961
436 1 6.78984 19.9767 26.4719
437 1 12.505 17.0337 23.8347
438 1 12.4082 16.938 26.5696
439 1 12.6197 19.9009 23.7977
440 1 12.3001 19.8623 26.5861
441 1 1.35153 22.4081 23.741
442 1 4.34637 22.616 23.646
443 1 3.90196 22.4142 26.5295
444 1 1.01171 22.5463 26.5411
445 1 6.9568 22.7398 23.8363
446 1 9.80443 22.7895 23.7089
447 1 9.53289 22.6918 26.5705
448 1 6.72252 22.6622 26.5908
449 1 12.5892 22.6473 23.8861
450 1 12.3895 22.5433 26.6557
15222 2 13.9431 9.89808 25.1325
12250 2 11.0378 24.0526 25.1511
12026 2 8.34902 12.8862 27.9191
15201 2 14.0003 1.59374 22.4236
5906 1 6.87195 0.337528 20.8934
12154 2 -0.230483 1.54405 19.5703
12249 2 11.1206 21.1996 22.4911
12140 2 11.1559 12.7603 14.1051
12149 2 5.46507 23.9517 13.9768
12194 2 -0.224135 24.0406 19.3355
15191 2 13.8839 24.0308 16.8123
12248 2 5.46615 23.9989 25.2003
12012 2 2.81506 7.17082 27.9103
12029 2 11.3403 10.0976 27.955
12148 2 8.36156 21.184 14.03
15192 2 13.9957 21.289 19.5866
15241 2 13.964 24.0688 22.4721
12150 2 10.9946 23.9968 14.0787
12220 2 11.1501 7.20704 25.1789
12244 2 -0.0730477 24.0472 25.1378
12232 2 2.68634 18.384 22.3768
12216 2 8.34393 7.21597 22.3556
5903 1 6.92801 0.0166333 18.2744
12219 2 11.1702 4.36031 22.2775
12218 2 5.63052 7.21601 25.1697
12247 2 8.24622 21.2692 25.1964
12152 2 2.68015 1.57732 16.8196
12227 2 8.30442 10.014 25.1453
12246 2 8.48789 24.0699 22.2771
12230 2 11.1348 12.9032 25.1542
12156 2 8.36147 1.44363 16.8177
12229 2 11.2327 9.99294 22.312
12158 2 5.54093 1.54417 19.4904
12217 2 8.26121 4.37396 25.1419
12160 2 11.1595 1.55012 19.4855
12245 2 5.66099 21.2011 22.344
12162 2 2.82659 7.08693 16.7947
12163 2 2.67553 4.37558 19.6215
12228 2 5.58711 12.8388 25.1757
12165 2 5.70343 4.29359 16.8315
12166 2 8.25635 7.15796 16.7655
12167 2 8.30639 4.39762 19.6191
12168 2 5.56687 7.21885 19.6581
12169 2 11.0431 4.35808 16.8815
12170 2 11.0001 7.18722 19.6653
12243 2 2.6873 21.0501 25.1515
12172 2 2.63866 12.7417 16.8298
12173 2 2.59697 10.0955 19.678
12242 2 2.69067 23.9298 22.3844
12175 2 5.64255 10.025 16.7608
12176 2 8.40485 12.7768 16.768
12177 2 8.24475 10.083 19.6722
12178 2 5.39798 12.8312 19.5888
12179 2 11.1949 10.0648 16.7229
12180 2 11.1002 12.7534 19.517
12236 2 8.36838 18.4024 22.4611
12182 2 2.7173 18.4302 16.7762
12183 2 2.67911 15.569 19.5756
12223 2 2.73231 9.98053 25.2428
12185 2 5.54225 15.4409 16.8447
12186 2 8.33324 18.3647 16.8203
12187 2 8.30965 15.5387 19.5125
12188 2 5.49732 18.4263 19.4783
12189 2 11.1186 15.66 16.902
12190 2 11.1366 18.5587 19.5647
12226 2 8.29319 12.8291 22.3293
12192 2 2.59076 24.1358 16.8594
12193 2 2.68794 21.2231 19.641
12225 2 5.48444 9.87083 22.383
12195 2 5.54589 21.2798 16.8886
12196 2 8.26074 24.0859 16.7379
12197 2 8.32394 21.1803 19.6767
12198 2 5.49392 24.0336 19.6796
12199 2 11.0233 21.3522 16.9042
12200 2 11.1612 24.0612 19.6433
12240 2 11.1275 18.439 25.314
12202 2 2.59982 1.57194 22.2465
5996 1 6.77476 0.182069 26.5784
12239 2 11.014 15.4978 22.3078
12222 2 2.70416 12.7845 22.3962
12206 2 8.36933 1.56766 22.4008
12235 2 5.5439 15.6598 22.3607
12208 2 5.57258 1.61421 25.1982
12233 2 2.69726 15.6837 25.2085
12210 2 11.1301 1.50596 25.1773
12238 2 5.49162 18.4073 25.1547
12212 2 2.65088 7.17294 22.3673
12213 2 2.67985 4.28315 25.0237
12237 2 8.3863 15.6385 25.1072
12215 2 5.55788 4.32694 22.3601
15151 2 14.068 1.6019 16.7819
12164 2 -0.0928071 7.12302 19.578
12015 2 5.51849 4.38743 27.9516
12016 2 8.33424 7.13577 28.0311
15242 2 13.9126 21.2974 25.1669
15212 2 13.8957 4.37283 25.1153
12006 2 8.26736 1.40103 27.9997
15211 2 13.8526 7.24115 22.3483
15181 2 13.984 18.4042 16.7416
15221 2 13.9267 12.7404 22.3979
15172 2 13.8865 10.0048 19.4518
12039 2 10.9512 15.6634 28.0169
12032 2 2.60928 18.2516 28.1544
12019 2 11.1701 4.41 28.1086
12135 2 11.0671 7.23349 14.0415
12002 2 2.82758 1.60372 28.0725
12139 2 5.49393 12.7388 13.9174
12133 2 8.43974 4.295 14.0562
12131 2 2.74671 4.17666 14.0352
15021 2 13.8555 12.8179 27.863
15141 2 14.0397 15.6125 14.0008
12025 2 5.36585 10.0833 27.9385
15031 2 13.8795 18.3257 27.8824
451 1 1.16306 25.5084 1.34183
452 1 3.93516 25.5394 1.19721
453 1 3.77847 25.3137 4.14546
454 1 1.02848 25.366 4.08536
455 1 6.75003 25.4309 1.13912
456 1 9.59075 25.4357 1.27544
457 1 9.50698 25.4386 4.09382
458 1 6.60804 25.2586 4.30126
459 1 12.7092 31.0252 1.2785
460 1 12.47 28.1396 4.12197
461 1 1.13241 28.3008 1.34787
462 1 3.91174 28.4608 1.41692
463 1 4.04521 28.2437 4.22577
464 1 1.31695 28.2118 4.2778
465 1 1.19006 30.8984 1.44802
466 1 4.0732 31.1651 1.36281
467 1 4.04772 31.0361 4.18986
468 1 1.30082 31.0583 4.19185
469 1 6.75692 28.1924 1.36283
470 1 9.72391 28.1426 1.28065
471 1 9.76077 28.2124 4.19492
472 1 6.90156 28.2364 4.1894
473 1 6.95523 30.8611 1.46546
1010 1 9.66549 50.8066 6.94112
475 1 9.69417 30.8314 4.15831
476 1 6.92732 30.9234 4.27887
477 1 9.96168 30.812 1.26767
478 1 10.1663 33.4996 2.16153
15346 2 13.8966 35.4492 11.1321
15327 2 13.9094 43.7049 8.32723
481 1 0.960024 33.6412 1.28627
482 1 5.96907 33.8881 1.6909
483 1 3.74101 33.8012 4.25128
484 1 1.00009 34.0487 4.25105
15282 2 13.8254 43.7397 2.67584
486 1 3.60017 34.3185 1.56843
487 1 3.77327 36.6964 4.43113
488 1 1.09714 36.7679 4.29312
489 1 8.21832 33.36 0.62659
847 1 1.23147 36.6862 1.43422
491 1 9.22458 33.5144 4.4648
492 1 6.75481 34.0517 4.16271
493 1 4.45469 36.864 1.69249
494 1 9.80439 36.1881 1.11062
495 1 9.53989 36.167 3.85591
496 1 6.81412 36.7075 3.99773
497 1 12.6667 33.9887 1.28126
498 1 12.4586 33.9929 4.37983
499 1 12.5567 36.8698 1.17845
500 1 12.3596 36.9179 4.10852
501 1 1.25629 39.4813 1.22573
502 1 3.9707 39.539 1.36634
503 1 4.0942 39.4691 4.09207
504 1 1.25605 39.5412 3.95067
505 1 1.24661 42.3199 1.4232
506 1 4.06507 42.2952 1.32259
507 1 4.14909 42.4279 4.14272
508 1 1.25382 42.3874 4.2395
509 1 6.78563 39.4104 1.43658
510 1 9.73492 39.1939 1.44827
511 1 9.55731 39.3158 4.10028
512 1 6.86894 39.4703 4.23954
513 1 6.84519 42.3231 1.25733
514 1 9.60014 42.0334 1.30613
515 1 9.68713 42.311 4.11842
516 1 6.86856 42.1859 4.17367
517 1 12.6695 39.6568 1.21377
518 1 12.3165 39.615 4.04301
519 1 12.3497 42.2969 1.34734
520 1 12.429 42.4651 3.94327
521 1 1.26078 44.9818 1.45677
522 1 4.02114 45.0646 1.27701
523 1 4.07106 45.345 4.14062
524 1 1.2011 45.1107 4.32785
525 1 1.22022 47.877 1.39885
526 1 4.07114 47.8293 1.40451
527 1 4.07353 47.9793 4.08579
528 1 1.25691 47.9109 4.2811
529 1 6.83817 45.0915 1.28355
530 1 9.69654 44.982 1.27167
531 1 9.65886 45.1884 3.99813
532 1 6.85102 45.1165 4.02217
533 1 6.87097 47.7344 1.3066
534 1 9.70796 48.0112 1.36458
535 1 9.52455 48.0614 4.16435
536 1 6.78869 47.9579 4.05447
537 1 12.5614 45.0686 1.28115
538 1 12.4559 45.2607 4.02228
539 1 12.6086 47.8306 1.42073
540 1 12.4523 48.1146 4.00795
541 1 1.29311 25.4438 7.05205
542 1 3.87912 25.4153 7.04066
543 1 3.91584 25.4803 9.78021
544 1 1.25328 25.4182 9.95316
545 1 6.67975 25.4066 7.05205
546 1 9.56383 25.3507 6.94432
547 1 9.68315 25.539 9.72482
548 1 6.75542 25.6745 9.8005
549 1 12.277 28.2277 6.98764
550 1 12.4983 25.5293 9.76361
551 1 1.15147 28.2691 7.00843
552 1 4.12353 28.3188 6.97381
553 1 3.95921 28.2144 9.70917
554 1 1.06027 28.3332 9.8006
555 1 1.31161 30.9911 6.95795
556 1 4.06091 31.0819 6.94689
557 1 3.8487 31.0194 9.78178
558 1 1.23063 31.1285 9.76008
559 1 6.96486 28.2044 6.91226
560 1 9.60126 28.2093 6.9314
561 1 9.75162 28.2896 9.81172
562 1 6.81733 28.3631 9.72324
563 1 6.92578 31.0211 6.85429
564 1 9.71931 31.1094 6.95157
565 1 9.64952 30.9203 9.90074
566 1 6.76554 31.0264 9.69295
567 1 12.4453 31.0365 6.93603
568 1 12.5035 28.5093 9.90216
90 1 12.4233 25.3044 1.41562
570 1 12.4951 31.2746 9.81473
571 1 1.16283 33.8608 7.04963
572 1 4.00548 33.8911 7.05135
573 1 4.07964 33.9657 9.90935
574 1 1.3514 33.9086 9.80745
575 1 1.11063 36.6526 7.09734
576 1 4.00089 36.7425 7.0676
577 1 4.03417 36.6811 9.73713
578 1 1.22741 36.6476 9.70613
579 1 6.78732 33.8694 6.95707
580 1 9.74678 34.044 7.03815
581 1 9.56367 33.7973 9.8047
582 1 6.74607 33.7589 9.75043
583 1 6.798 36.6225 6.91035
584 1 9.46256 36.7569 6.94183
585 1 9.60909 36.7628 9.82563
586 1 6.82255 36.5285 9.78798
587 1 12.5005 33.9298 7.07817
588 1 12.3604 34.2099 9.98007
589 1 12.2793 36.7131 6.80217
590 1 12.4171 36.8851 9.58485
591 1 1.3234 39.5753 6.70981
592 1 3.98782 39.4449 6.92478
593 1 4.09276 39.4739 9.81253
594 1 1.22982 39.3491 9.88846
595 1 1.23584 42.3494 6.93241
596 1 4.03114 42.2357 6.90268
597 1 4.26606 42.3531 9.71203
598 1 1.26437 42.2325 9.75166
599 1 6.78044 39.4273 7.01143
600 1 9.6822 39.4917 6.95169
601 1 9.63737 39.4998 9.72551
602 1 6.80063 39.4505 9.75844
603 1 6.93208 42.3267 6.96007
604 1 9.7153 42.3402 6.99152
605 1 9.65863 42.3835 9.7141
606 1 6.97746 42.4359 9.50224
607 1 12.4819 39.4883 6.90709
608 1 12.421 39.5369 9.69432
609 1 12.3691 42.3254 6.78695
610 1 12.4326 42.2803 9.73764
611 1 1.18468 45.0542 6.95626
612 1 4.08804 44.9876 6.8755
613 1 4.06522 45.0797 9.78256
614 1 1.19658 45.2055 9.76088
615 1 1.40815 47.9655 7.07771
616 1 4.2502 48.0565 6.83576
617 1 4.04577 47.9627 9.64121
618 1 1.25698 48.0445 9.88584
619 1 6.77209 45.0306 6.92347
620 1 9.6992 45.1181 6.86393
621 1 9.65449 45.2512 9.77526
622 1 6.86406 45.189 9.71694
623 1 7.13616 47.7596 6.90791
624 1 9.7788 48.013 7.01277
625 1 9.67111 47.961 9.76645
626 1 6.84618 48.0672 9.65873
627 1 12.5177 45.2139 6.88902
628 1 12.4489 45.1039 9.61612
629 1 12.4244 47.9505 6.90339
630 1 12.5301 48.0641 9.75382
631 1 1.31679 25.4114 12.704
632 1 3.97836 25.3144 12.5387
633 1 6.90306 25.593 12.5765
634 1 9.62152 25.4366 12.5971
635 1 12.4308 25.5243 12.5223
636 1 1.33899 28.162 12.5418
637 1 4.09416 28.2219 12.5042
638 1 1.12901 30.9911 12.5224
639 1 4.00351 31.0689 12.5563
640 1 6.87893 28.2969 12.5707
641 1 9.72646 28.2718 12.6837
642 1 6.82693 30.9713 12.5332
643 1 9.60063 31.0086 12.6852
644 1 12.491 28.2695 12.8066
645 1 12.5343 30.9601 12.6811
646 1 1.41203 33.8057 12.5811
647 1 4.11805 33.8955 12.5015
648 1 1.26884 36.6484 12.6511
649 1 3.96321 36.6402 12.5378
650 1 6.88642 33.8196 12.4463
651 1 9.81344 33.9354 12.6794
652 1 6.82773 36.6741 12.5055
653 1 9.49986 36.562 12.4978
654 1 12.4622 33.8312 12.5912
655 1 12.4731 36.7098 12.5077
656 1 1.27781 39.6308 12.6415
657 1 4.11016 39.5547 12.6422
658 1 1.22282 42.4401 12.4033
659 1 4.13272 42.3646 12.6703
660 1 6.85087 39.3324 12.5533
661 1 9.7006 39.439 12.6889
662 1 6.9269 42.2664 12.6457
663 1 9.58552 42.3348 12.5046
664 1 12.5615 39.4391 12.5176
665 1 12.4173 42.173 12.514
666 1 1.22945 45.3256 12.4233
667 1 4.16074 45.2118 12.4639
668 1 1.41693 48.0577 12.6752
669 1 4.29438 47.8409 12.5048
670 1 6.97995 44.9443 12.5171
671 1 9.83705 45.0852 12.6398
672 1 7.062 47.8746 12.5673
673 1 10.0161 47.8251 12.4634
674 1 12.7231 44.9398 12.373
675 1 12.5302 47.7676 12.5787
12363 2 11.1172 49.3234 11.2015
89 1 12.4721 28.2416 1.24164
12253 2 2.53546 26.8533 2.70675
12362 2 5.52584 49.3011 11.1653
15378 2 13.9449 43.7437 13.9888
180 1 12.2201 25.3854 6.92579
12257 2 8.22037 26.716 2.63685
12258 2 5.33544 29.6577 2.92846
15368 2 14.0027 32.4007 13.953
12260 2 11.1879 29.577 2.82112
12360 2 11.0988 43.6898 11.1349
12341 2 -0.0955544 26.7171 11.2087
12263 2 2.49471 32.4579 2.81817
12359 2 8.29531 46.5841 11.1283
15307 2 13.8459 32.5222 8.30413
1109 1 12.4639 50.6159 12.6463
12267 2 8.48216 31.8878 2.75347
12268 2 5.07907 35.2546 3.23682
12345 2 11.0405 27.0149 11.3052
12270 2 11.5015 35.3639 2.6787
12358 2 5.60606 43.7666 11.0393
12344 2 8.24936 29.6505 11.1642
12273 2 2.56356 38.1672 2.6956
12357 2 2.68342 46.6558 11.1646
12343 2 5.44787 26.9133 11.1764
179 1 12.2862 25.2535 4.11259
12277 2 8.18691 38.163 2.81454
12278 2 5.53173 41.0202 2.78505
12276 2 8.19119 40.8503 -0.248174
12280 2 11.2066 40.8152 2.57127
12355 2 11.0301 38.1564 11.2342
1009 1 6.64041 50.8294 6.91987
12283 2 2.69992 43.8564 2.71999
12354 2 8.22563 41.0545 11.1883
851 1 7.20087 36.4466 1.16199
12342 2 2.53287 29.6456 11.2057
12287 2 8.28591 43.6668 2.62099
12288 2 5.48202 46.5045 2.70717
12340 2 10.9856 49.3776 5.53621
12290 2 11.0736 46.6289 2.68686
12353 2 5.35902 37.9909 11.2057
12292 2 2.70294 49.2416 2.80376
15336 2 13.8904 49.4887 8.32552
12294 2 8.24045 49.2865 2.67114
1106 1 9.73806 50.7524 12.5659
12339 2 8.26841 49.5173 8.33114
12297 2 2.60847 29.574 5.64644
12298 2 2.59657 26.9283 8.29238
12338 2 5.60556 49.3412 5.42714
12300 2 5.41195 26.7923 5.57648
12301 2 8.34959 29.5603 5.61408
12302 2 8.21977 26.804 8.44133
12303 2 5.60199 29.6725 8.35675
12304 2 10.9707 26.8437 5.52561
12305 2 11.1128 29.7998 8.46737
12352 2 2.69925 40.9297 11.3343
12307 2 2.44007 35.2903 5.74057
12308 2 2.67406 32.4116 8.2976
569 1 12.5864 31.119 4.0881
12310 2 5.4157 32.4264 5.54427
12311 2 8.27045 35.2531 5.78698
12312 2 8.29839 32.4485 8.36915
12313 2 5.46601 35.2693 8.4098
12314 2 11.016 32.5921 5.67801
12315 2 11.0448 35.4271 8.42653
12266 2 8.34426 34.8673 2.50208
12317 2 2.70702 40.9086 5.42173
12318 2 2.56545 38.0297 8.30888
12350 2 11.1433 32.5452 11.3698
12320 2 5.26356 38.0482 5.60557
12321 2 8.29772 40.9362 5.68424
12322 2 8.28682 38.11 8.40319
12323 2 5.34906 40.7621 8.42035
12324 2 11.1554 38.1609 5.49164