ITEM: TIMESTEP
445000
ITEM: NUMBER OF ATOMS
18000
ITEM: BOX BOUNDS xy xz yz pp pp pp
-1.0130187225915448e-01 2.7995301872258452e+01 0.0000000000000000e+00
-1.1002068085281065e+00 3.3582820680855525e+02 0.0000000000000000e+00
-1.0667003953228989e-01 2.8000670039531663e+01 0.0000000000000000e+00
ITEM: ATOMS id type x y z
1 1 1.22482 0.493397 1.30227
2 1 4.09273 0.355457 1.3878
3 1 4.24215 0.276974 4.34342
4 1 1.33683 0.305374 3.89074
5 1 1.46105 3.17884 1.32441
6 1 4.16713 3.15491 1.41058
7 1 4.18471 3.16926 4.12884
8 1 1.34452 3.12367 4.23346
9 1 6.85245 3.1424 1.15108
10 1 9.73509 0.383728 1.09443
11 1 9.72655 0.220793 3.87598
12 1 6.92887 2.88925 3.95323
13 1 6.83993 5.93973 1.54841
14 1 9.74899 3.13942 1.24972
15 1 9.89832 3.0659 4.09751
16 1 7.19063 5.50849 4.27945
17 1 12.5657 0.343736 1.30969
18 1 12.6917 0.24379 4.10273
19 1 12.5836 3.1337 1.15274
20 1 12.6663 2.94505 3.98225
21 1 1.25793 5.99311 1.19624
22 1 4.25642 5.97549 1.38754
23 1 4.1945 5.9558 4.12004
24 1 1.33858 6.09969 4.27309
25 1 1.30987 8.71677 1.24563
26 1 3.97398 8.78263 1.25598
27 1 4.05771 11.6009 4.12102
28 1 1.21895 8.79764 4.11923
12101 2 -0.02432 -1.18893 11.1668
30 1 9.84987 5.91563 1.35269
31 1 10.1432 5.96452 4.17845
32 1 6.42518 8.14056 5.63755
33 1 6.52352 10.2369 3.72889
34 1 9.78943 8.61684 1.36881
35 1 7.99886 8.13818 3.57623
36 1 6.52477 12.0601 5.74179
37 1 12.7399 5.91765 1.34178
38 1 12.6409 5.84236 4.19323
39 1 12.6065 8.70358 1.18077
40 1 12.8564 8.75304 4.13833
41 1 1.20964 11.6926 1.27125
42 1 4.17604 11.534 1.38386
43 1 6.86623 14.5442 4.20411
44 1 1.37212 11.7418 4.0711
45 1 1.23641 14.6079 1.47591
46 1 3.94186 14.4058 1.44072
47 1 4.12707 14.4358 4.10533
48 1 1.33008 14.5071 4.23234
49 1 4.0347 8.75239 4.03927
50 1 9.94066 11.4479 1.45889
51 1 10.0381 9.43771 4.33692
52 1 8.61401 11.9814 3.94203
53 1 6.87117 17.1871 4.13114
54 1 9.65136 14.3365 1.36576
55 1 12.4546 14.3757 3.94631
56 1 9.6911 14.6642 4.2173
57 1 12.6631 11.4028 1.44413
58 1 12.9021 11.7236 3.96179
59 1 12.5611 14.1312 1.28408
15101 2 14.0311 1.80155 11.2356
61 1 1.2588 17.2834 1.38824
62 1 4.11803 17.3096 1.401
63 1 4.06179 17.144 4.29323
64 1 1.24019 17.3856 4.15246
65 1 1.33309 20.024 1.37431
66 1 4.01461 20.0789 1.26113
67 1 4.11747 20.0337 4.11719
68 1 1.35253 20.0187 4.15268
69 1 6.91237 17.1479 1.44859
70 1 9.71735 17.0902 1.47004
71 1 12.5457 17.108 4.08595
72 1 9.74792 17.279 4.1532
73 1 6.83001 19.9461 1.36234
74 1 9.69143 19.9431 1.43244
75 1 9.75486 20.0119 4.18054
76 1 6.976 19.897 4.24766
77 1 12.6198 17.1104 1.16438
15116 2 13.8642 18.5154 11.4186
79 1 12.3774 20.1317 1.32792
12022 2 2.69873 12.959 0.0123309
81 1 1.2139 22.8176 1.52027
82 1 3.97428 22.7466 1.49005
83 1 4.05128 22.8075 4.15814
84 1 1.09896 22.7668 4.13753
85 1 6.90193 22.9207 1.27665
86 1 9.69032 22.8917 1.34745
87 1 9.64283 22.7699 4.1713
88 1 6.75028 22.8243 4.19393
12150 2 10.9467 24.1427 14.0724
12003 2 2.70103 -1.13046 2.72632
91 1 1.24763 0.163154 6.8471
92 1 4.19749 0.20717 7.22801
93 1 4.10536 2.86835 9.58635
94 1 1.59466 0.272969 9.75429
95 1 1.33249 3.06867 7.03271
96 1 4.03414 3.03016 6.76503
97 1 6.80241 5.98869 9.79202
98 1 1.30887 3.16958 9.7537
99 1 6.91935 3.18286 6.83907
100 1 9.86568 0.352487 6.7276
101 1 9.70902 0.333125 9.61191
102 1 7.0903 3.08223 9.59892
103 1 6.85799 5.80193 7.02563
104 1 9.7533 3.116 6.91092
105 1 9.85666 3.14134 9.69495
106 1 6.84365 5.9427 12.6858
107 1 12.603 0.343906 6.75998
108 1 12.4774 0.311347 9.6505
109 1 12.7206 3.0649 6.92932
110 1 12.6636 3.16174 9.78
111 1 1.39005 5.8393 6.95863
112 1 4.10906 5.85596 6.89051
113 1 4.03792 8.71821 9.73942
114 1 1.20341 5.98569 9.8206
115 1 1.17904 8.58133 6.83888
116 1 3.9773 8.59251 6.9875
117 1 6.38816 10.0321 7.44992
118 1 1.25034 8.74892 9.64376
119 1 8.95209 8.61624 6.95556
120 1 9.86449 5.87203 6.95008
121 1 9.69855 5.9548 9.80595
122 1 6.7159 8.58537 9.85327
123 1 8.68011 11.8093 7.37101
124 1 12.7136 8.54864 6.87883
125 1 10.9914 10.461 7.70287
126 2 8.40293 10.1046 8.76487
127 1 12.5431 5.88195 7.01776
128 1 12.6595 5.91642 9.72839
12045 2 5.37063 21.4766 0.055845
130 1 12.5356 11.6116 9.75808
131 1 1.09238 11.4712 6.91108
132 1 3.82475 11.4997 6.98416
133 1 4.18932 11.5518 9.65219
134 1 1.30738 11.6068 9.84035
135 1 1.28056 14.2843 6.93237
136 1 4.09982 14.2775 7.03231
137 1 4.00586 14.4211 9.89751
138 1 1.09141 14.3637 9.83996
139 1 9.76001 14.4887 7.10534
140 1 10.719 12.4487 5.49917
141 1 9.79235 11.5548 10.1345
142 1 7.01692 11.7119 9.80426
143 1 6.85955 14.6269 7.02018
144 1 9.698 17.1878 6.99746
145 1 9.74206 14.2481 9.92963
146 1 6.82138 14.4893 9.83669
147 1 12.5634 14.2592 7.25869
148 1 12.533 14.4376 10.005
149 1 12.3311 17.1627 7.13965
150 1 12.338 17.2301 9.96482
151 1 1.29469 17.2816 6.92936
152 1 4.02964 17.1603 7.03238
153 1 4.01217 17.3101 9.78546
154 1 1.22234 17.1405 9.73192
155 1 1.3816 20.0379 6.98947
156 1 4.07292 19.97 7.03913
157 1 3.92209 19.9943 9.929
158 1 1.31079 20.0058 9.83153
159 1 6.98952 17.3585 7.02515
160 1 12.3763 22.7888 4.26621
161 1 9.69274 17.1503 9.84474
162 1 6.84099 17.2491 9.94125
163 1 6.77557 20.0806 7.18088
164 1 9.63531 20.0083 7.11573
165 1 9.59063 19.9862 9.91767
166 1 6.82639 19.9239 9.88177
241 1 9.74664 8.70365 12.8083
168 1 12.4731 20.06 9.85424
169 1 12.5054 22.7349 7.15331
170 1 12.4588 22.8228 10.0616
171 1 1.38012 22.8542 7.06728
172 1 4.12809 22.8319 7.09047
173 1 3.96416 22.651 9.8074
174 1 1.25356 22.8503 9.76456
175 1 6.91058 22.8824 6.93386
176 1 9.69284 22.777 7.06907
177 1 9.60549 22.81 9.73091
178 1 6.79672 22.7965 9.75599
15091 2 13.7398 24.1883 5.67321
12059 2 11.2112 -1.16763 5.48291
181 1 1.41221 0.265734 12.4847
182 1 4.20885 0.337312 12.3851
183 1 1.33449 3.18746 12.5901
184 1 4.19224 3.08802 12.4027
185 1 6.98329 0.331159 12.3267
186 1 9.72875 0.423811 12.5218
187 1 6.96803 3.19582 12.4604
188 1 9.78544 3.14622 12.444
189 1 12.6581 0.26635 12.4428
190 1 12.6132 3.08915 12.5124
191 1 1.29472 5.93318 12.5577
192 1 4.07427 5.78717 9.79249
193 1 1.50323 8.67281 12.582
194 1 4.16386 8.70793 12.6025
195 1 4.15375 5.96017 12.7791
196 1 9.71902 5.94677 12.6037
197 1 9.62083 8.67998 10.0489
198 1 12.273 8.67431 9.87628
199 1 12.529 5.93423 12.5678
200 1 12.5181 8.71142 12.6224
201 1 1.31293 11.5958 12.5135
202 1 4.04676 11.438 12.5671
203 1 1.31588 14.3336 12.7174
204 1 4.17788 14.2864 12.6797
205 1 6.85977 11.4311 12.7137
206 1 9.72617 11.4367 12.7658
207 1 6.87699 14.2659 12.6447
208 1 9.60391 14.4246 12.7915
209 1 12.5321 11.3628 12.6826
210 1 12.4142 14.2949 12.7005
211 1 1.31014 17.1241 12.6357
212 1 4.0836 17.1498 12.5207
213 1 1.08238 19.9252 12.7205
214 1 3.75584 20.0229 12.7194
215 1 6.75559 17.1517 12.7233
216 1 9.69902 17.2171 12.678
217 1 6.62442 20.0342 12.7343
218 1 9.52149 20.0429 12.7223
219 1 12.5685 17.1431 12.7942
220 1 12.5217 19.897 12.7445
221 1 1.30175 22.8264 12.6229
222 1 4.16054 22.8213 12.6721
223 1 6.85734 22.8831 12.6947
224 1 9.62038 22.6703 12.6363
225 1 12.5528 22.7785 12.6636
12125 2 11.0568 21.3248 11.2642
12110 2 11.1745 4.56856 11.1925
12032 2 2.62698 18.6334 -0.0587803
12124 2 8.21708 24.1376 11.1237
80 1 12.3694 22.6976 1.32783
12109 2 8.29353 7.26187 11.3176
15032 2 13.946 15.5994 2.7371
12008 2 5.5674 1.51177 2.69405
243 1 6.89241 8.79011 12.634
12010 2 11.3017 1.60868 2.65716
12123 2 5.39346 21.313 11.2514
12108 2 5.53772 4.44302 11.0518
12013 2 2.81166 4.69321 2.75458
12122 2 2.63857 24.1421 11.1701
12107 2 2.72593 7.32518 11.0492
12112 2 2.76392 13.01 11.202
12017 2 8.41877 4.39212 2.61133
12018 2 5.86837 7.46191 3.06332
12104 2 8.31351 1.77606 11.0602
12020 2 11.3224 7.26009 2.76108
60 1 12.5224 19.8478 4.01577
12015 2 5.52093 4.68519 0.0533114
12023 2 2.56565 10.1024 2.77398
12120 2 11.1275 15.656 11.3396
12102 2 2.6057 1.79752 11.1791
12113 2 5.56763 10.0802 11.2746
12027 2 8.30545 10.0999 2.38257
12028 2 5.52364 12.8838 2.93055
12100 2 11.0599 24.2047 8.64659
12030 2 11.0377 12.9178 2.81892
12099 2 11.118 21.3696 5.68165
12098 2 5.46455 24.2156 8.35721
12033 2 2.74816 15.8711 2.68188
412 1 6.67014 14.3699 1.31775
12097 2 8.22364 21.4384 8.4003
12096 2 8.28508 24.2392 5.66178
12037 2 8.2867 15.7256 2.66852
12038 2 5.49457 18.6489 2.88974
12095 2 5.47582 21.4263 5.57478
12040 2 10.8875 18.5568 2.75619
29 1 6.87652 8.84323 1.14984
12093 2 2.74214 21.3762 8.39068
12043 2 2.54408 21.3963 2.73453
5723 1 7.03612 0.416314 6.91427
12092 2 2.71199 24.1381 5.62145
5634 1 6.95144 0.259697 1.30795
12047 2 8.43865 21.4415 2.79069
12048 2 5.3732 24.3081 2.79934
12090 2 10.9603 18.5149 8.54431
12050 2 11.1359 24.0693 2.8879
12119 2 8.10763 18.6326 11.3435
12052 2 2.68408 1.70593 5.53
12103 2 5.68202 -1.30719 11.2819
12118 2 5.5028 15.808 11.2374
5633 1 6.95017 0.141666 4.18289
12056 2 8.37328 1.70902 5.5062
5726 1 6.53061 0.318399 9.74368
12058 2 5.5668 1.67954 8.22953
129 1 13.3985 11.55 6.85659
12060 2 11.3105 1.75268 8.27381
12117 2 2.54171 18.55 11.1785
12062 2 2.67334 7.38436 5.58143
12063 2 2.751 4.51514 8.29075
12089 2 11.1814 15.6933 5.66654
12065 2 5.38734 4.43429 5.46338
12066 2 8.43778 6.93433 5.48138
12067 2 8.47022 4.36092 8.34361
12068 2 5.60925 7.37028 8.15507
12069 2 11.1867 4.39724 5.52279
12070 2 11.0646 7.25999 8.54409
12115 2 11.1316 10.1069 11.3078
12072 2 2.7015 12.9897 5.53004
12073 2 2.74534 10.031 8.43159
12114 2 8.37269 12.9252 11.3343
12075 2 4.96897 10.1153 5.63678
12076 2 8.43257 13.4687 5.6736
12077 2 8.163 10.3097 5.50683
12078 2 5.56411 12.9274 8.30489
12079 2 11.7911 10.3726 5.56179
12080 2 10.9633 12.7521 8.27667
395 1 6.96389 11.7481 1.32883
12082 2 2.63409 18.6692 5.60155
12083 2 2.66307 15.6979 8.46208
15081 2 13.47 18.4685 5.60707
12085 2 5.34645 15.7152 5.54715
12086 2 8.38007 18.5172 5.5932
12087 2 8.28302 15.8671 8.54975
12088 2 5.42875 18.6481 8.35933
167 1 12.3255 19.98 7.12151
12081 2 -0.208717 15.7666 5.6081
12116 2 -0.231774 15.6771 11.1813
15071 2 13.9118 13.3394 5.4311
12012 2 2.77101 7.42568 -0.118976
15072 2 13.7674 10.0016 8.52489
12074 2 -0.169753 12.8828 8.29142
12054 2 0.0044769 1.74155 8.48098
12094 2 -0.132137 24.1132 8.42956
12049 2 11.1442 21.4126 -0.099066
15111 2 13.9192 12.9116 11.0649
12025 2 5.39635 10.2072 -0.0358537
15136 2 13.8947 10.1933 14.0452
12061 2 -0.124706 4.48597 5.51222
12042 2 2.61566 24.2173 -0.00690854
15042 2 14.0617 21.378 2.88602
15021 2 13.9251 12.9264 -0.0445277
12106 2 -0.181875 4.59614 11.2424
15121 2 13.8846 24.2173 11.2382
12064 2 -0.230404 7.18744 8.41822
15082 2 13.8529 15.72 8.49511
12131 2 2.7514 4.66084 14.0668
12016 2 8.51307 7.37071 -0.0342134
12039 2 11.1564 15.5511 -0.0507488
12005 2 5.61718 -1.15623 -0.0289694
12035 2 5.40405 15.8111 0.0772385
12026 2 8.22191 13.0178 -0.0564176
12036 2 8.24843 18.5713 0.0578011
12046 2 8.32726 24.2261 -0.128985
12002 2 2.84362 1.68996 0.0087502
15146 2 13.8488 21.3933 14.2556
226 1 4.1848 0.387338 15.2199
227 1 1.48687 0.474282 15.2303
228 1 4.03017 3.23188 15.2974
229 1 1.32125 3.30366 15.4754
230 1 9.86544 0.303885 15.4153
231 1 6.98133 0.411892 15.3158
232 1 9.99784 3.13878 15.2727
233 1 6.91539 3.18574 15.3524
234 1 12.6278 0.397126 15.2218
235 1 12.598 3.28412 15.1993
236 1 4.0273 5.9407 15.5169
237 1 1.31779 6.00359 15.3534
238 1 4.07093 8.5096 15.4239
239 1 1.2444 8.78807 15.3546
240 1 9.93743 5.90803 15.363
12151 2 0.00174281 -1.08644 16.9078
242 1 9.67191 8.77547 15.5368
5993 1 6.95834 0.29816 23.8247
244 1 12.6633 6.0071 15.4941
245 1 12.3896 8.66041 15.5136
246 1 4.01644 11.4783 15.4128
247 1 1.37167 11.6503 15.3795
248 1 4.07749 14.3239 15.6061
249 1 1.08354 14.3333 15.3658
250 1 9.61464 11.604 15.4786
251 1 6.89667 11.6288 15.4207
252 1 9.5533 14.3494 15.571
253 1 6.87023 14.2864 15.5607
254 1 12.475 11.6012 15.6307
255 1 12.3793 14.3448 15.4023
256 1 3.96876 17.1908 15.3386
257 1 1.17842 17.2541 15.3561
258 1 3.89254 20.1528 15.3744
259 1 1.13376 20.2281 15.4855
260 1 9.53047 17.0883 15.4708
261 1 6.71927 17.1606 15.4582
262 1 9.57632 19.8647 15.4911
263 1 6.75344 20.0445 15.3812
264 1 12.2273 17.2454 15.5112
265 1 12.4291 19.8549 15.4867
266 1 3.97083 22.9679 15.3435
267 1 1.20185 22.9179 15.4002
268 1 9.56988 22.7088 15.4321
269 1 6.84098 22.7927 15.4727
270 1 12.4281 22.5553 15.4981
271 1 1.39107 0.29693 18.2528
272 1 4.29971 0.427243 18.0055
273 1 4.05377 0.365287 21.0219
274 1 1.37495 0.274109 21.0323
275 1 1.32647 2.97524 18.1007
276 1 4.06147 3.20859 18.1672
277 1 4.26246 3.11219 21.1024
278 1 1.3816 3.15923 20.9232
279 1 6.90093 2.94382 18.1206
280 1 9.8884 0.407937 18.1374
281 1 9.64545 0.302815 20.9239
282 1 6.96193 3.19592 20.937
283 1 6.99007 5.82993 18.1947
284 1 9.56926 3.08551 18.2076
285 1 9.721 3.15345 21.0018
286 1 6.97281 6.01162 23.8094
287 1 12.7042 0.446865 18.1124
288 1 12.6584 0.251402 21.0068
289 1 12.5357 3.13743 18.2443
290 1 12.6338 3.16258 21.0823
291 1 1.45089 5.82053 18.1018
292 1 4.08366 5.88824 18.2625
293 1 4.29952 5.86671 21.0685
294 1 1.47782 5.85004 20.9691
295 1 1.42238 8.72205 18.1301
296 1 4.20607 8.77633 18.2483
297 1 4.14329 8.7999 21.0304
298 1 1.32269 8.70127 20.9925
299 1 6.9081 5.99685 15.5632
300 1 9.81574 5.86481 18.1742
301 1 9.62482 5.96505 21.0287
302 1 6.89253 6.08682 21.0025
303 1 6.7935 8.84021 15.4454
304 1 9.6677 8.77571 18.3122
305 1 9.90007 8.78291 21.1145
306 1 6.95578 8.66447 18.2087
307 1 12.5467 5.79558 18.2833
308 1 12.5083 6.01556 21.0903
309 1 12.4992 8.7147 18.4009
310 1 12.5698 8.76287 20.9777
311 1 1.26109 11.6082 18.2317
312 1 4.11089 11.5822 18.423
313 1 4.19891 11.6945 21.1708
314 1 1.4551 11.58 21.0322
315 1 1.2773 14.5494 18.1849
316 1 4.11018 14.4254 18.266
317 1 4.05954 14.4086 21.1249
318 1 1.26053 14.3666 21.0917
319 1 6.83384 11.4767 18.2519
320 1 9.57015 11.4848 18.3279
321 1 9.62452 11.6269 21.0584
322 1 6.96189 11.6675 21.1544
323 1 6.94072 14.2974 18.244
324 1 9.66882 14.3315 18.3135
325 1 9.73664 14.5386 21.3012
326 1 6.91344 14.3953 21.0305
327 1 12.5283 11.5334 18.3916
328 1 12.6 11.593 21.1027
329 1 12.4808 14.4025 18.3166
330 1 12.5013 14.4183 21.0449
331 1 1.02579 17.3143 18.0484
332 1 4.02145 17.2477 18.1681
333 1 4.14171 17.2232 21.0844
334 1 1.3425 17.2879 21.0669
335 1 1.19178 20.1103 18.2193
336 1 4.0607 20.0339 18.3237
337 1 4.10036 19.946 20.9795
338 1 1.25514 20.0015 21.0457
339 1 6.76546 17.1676 18.2987
340 1 9.61099 17.1839 18.2218
341 1 9.6038 17.26 21.0729
342 1 6.84311 17.2126 21.0315
343 1 6.84181 20.1524 18.0769
344 1 9.62208 19.9898 18.3768
345 1 9.53976 20.0775 21.2333
346 1 6.84446 19.9694 21.0277
347 1 12.5468 17.2252 18.3054
348 1 12.5131 17.2067 21.212
349 1 12.3908 20.0933 18.3179
350 1 12.4852 19.9488 20.9687
351 1 1.13575 22.79 18.1633
352 1 3.96585 22.8039 18.0981
353 1 4.04608 22.6882 21.0217
354 1 1.2296 22.9157 20.9916
355 1 6.84531 22.8445 18.2147
356 1 9.68172 22.7927 18.25
357 1 9.7255 22.8478 20.9823
358 1 6.85476 22.9866 20.9979
359 1 12.3987 22.9943 18.2413
360 1 12.4561 22.7699 21.1098
361 1 1.56452 0.380066 23.7175
362 1 4.23241 0.227258 23.9343
363 1 4.22942 0.0594665 26.763
364 1 1.44496 0.380789 26.5092
365 1 1.35573 3.08342 23.8412
366 1 4.25527 3.15301 23.8258
367 1 4.27027 2.96322 26.6941
368 1 1.40383 3.23144 26.674
369 1 7.04869 3.12775 23.7393
370 1 9.82637 0.266314 23.7768
371 1 9.76133 0.283449 26.455
372 1 7.0567 3.19959 26.5842
373 1 6.9558 6.06757 26.6989
374 1 9.93858 3.0987 23.7997
375 1 9.88223 3.17095 26.6447
376 1 9.78069 6.00296 26.656
377 1 12.5703 0.428972 23.9212
378 1 12.5777 0.235302 26.7289
379 1 12.8734 3.17409 23.7434
380 1 12.6992 3.03898 26.5151
381 1 1.36804 5.93099 23.68
382 1 4.23203 5.86537 23.8257
383 1 4.11222 6.0011 26.6371
384 1 1.27439 6.00154 26.5554
385 1 1.3637 8.84785 23.6574
386 1 4.19376 8.79081 23.8748
387 1 4.07898 8.91719 26.6259
388 1 1.3208 8.91021 26.315
389 1 7.01103 8.76277 23.7812
390 1 9.7125 5.87512 23.8367
391 1 9.79538 8.855 26.717
392 1 6.87027 8.7803 26.5485
393 1 6.87589 8.88212 21.0296
394 1 9.71498 8.75251 23.8636
12132 2 -0.0470214 7.48088 13.9864
396 1 6.88633 11.7271 26.7558
397 1 12.4836 5.85788 23.6963
398 1 12.704 5.91468 26.6086
399 1 12.6408 8.76499 23.8249
400 1 12.6406 8.80912 26.3711
401 1 1.30998 11.6884 23.6531
402 1 4.10787 11.6718 23.9038
403 1 4.00931 11.6412 26.692
404 1 1.34111 11.732 26.6396
405 1 1.21009 14.4733 23.9344
406 1 4.06546 14.5136 23.9401
407 1 4.00531 14.479 26.6612
408 1 1.25997 14.4264 26.7441
409 1 6.96902 11.5848 24.0074
410 1 9.80875 11.5741 23.8564
411 1 9.67627 11.6611 26.6812
15041 2 13.9112 24.1806 28.0944
413 1 6.88366 14.3872 23.9469
414 1 9.80786 14.4101 23.9916
415 1 9.63308 14.2379 26.6764
416 1 6.90829 14.4543 26.6725
417 1 12.6065 11.5494 23.9419
418 1 12.5474 11.5965 26.7027
419 1 12.5626 14.3522 23.8338
420 1 12.5808 14.3671 26.5952
421 1 1.29791 17.3803 23.7861
422 1 4.04484 17.3282 23.8461
423 1 4.07953 17.1729 26.7377
424 1 1.21718 17.1987 26.6469
425 1 1.1937 20.2276 23.8488
426 1 3.94344 20.002 23.9007
427 1 3.8957 20.0302 26.5986
428 1 1.27001 20.1467 26.5429
429 1 6.87669 17.3391 23.9151
430 1 9.63523 17.1415 23.8728
431 1 9.70466 17.0806 26.8062
432 1 6.83781 17.2042 26.6809
433 1 6.81787 20.0988 23.8334
434 1 9.63989 19.9841 24.0495
435 1 9.7585 20.053 26.8343
436 1 6.89048 19.9735 26.4877
437 1 12.5237 17.2727 23.8616
438 1 12.4673 17.1141 26.5441
439 1 12.3769 20.004 23.887
440 1 12.3015 19.9266 26.5153
441 1 1.14767 22.851 23.923
442 1 4.02633 22.8064 23.8861
443 1 4.12358 22.9337 26.7637
444 1 1.30198 22.8494 26.7654
445 1 6.8285 22.8631 23.8788
446 1 9.54811 22.7002 23.6695
447 1 9.70612 22.8191 26.4382
448 1 6.92963 22.8097 26.6178
449 1 12.3707 22.9137 23.7007
450 1 12.4037 22.787 26.6063
12126 2 2.84376 -1.06648 13.9172
12250 2 11.0889 24.2298 25.1868
12224 2 -0.0532061 13.0232 25.396
15212 2 14.0583 4.37057 25.1467
5906 1 6.84578 0.328185 21.0478
12148 2 8.22497 21.3347 14.0744
12249 2 11.0339 21.3479 22.4098
15242 2 13.8359 21.353 25.2021
15181 2 13.9968 18.623 16.9781
15222 2 14.0481 10.169 25.2515
12161 2 -0.101531 4.61822 16.6615
12248 2 5.35809 24.1053 25.3065
15162 2 13.9524 4.51069 19.533
12157 2 8.54474 -1.24658 19.5367
12203 2 2.8789 -1.0533 25.2831
12204 2 0.0849759 1.74898 25.268
12141 2 2.70913 15.7427 13.973
12139 2 5.50338 12.8963 14.0912
12220 2 11.3077 7.28297 25.1204
12149 2 5.43623 24.165 14.0047
12232 2 2.75257 18.6911 22.4472
12216 2 8.38479 7.36856 22.5046
5903 1 7.09484 0.0714825 18.2997
12219 2 11.1359 4.48332 22.2804
12218 2 5.60521 7.24394 25.2208
12247 2 8.32414 21.3853 25.2198
12152 2 2.84049 1.78545 16.7509
12227 2 8.42961 10.1864 25.2518
12246 2 8.0963 24.3371 22.5737
12230 2 11.1171 13.0126 25.4232
12156 2 8.45512 1.7298 16.6335
12229 2 11.1612 10.2025 22.4857
12158 2 5.57882 1.73416 19.58
12217 2 8.36674 4.60065 25.148
12160 2 11.2562 1.67938 19.6806
12245 2 5.50013 21.3089 22.3933
12162 2 2.76308 7.28353 16.7585
12163 2 2.66322 4.49826 19.5678
12228 2 5.49512 13.0606 25.3459
12165 2 5.49626 4.55062 16.9296
12166 2 8.34872 7.26924 16.928
12167 2 8.39265 4.44995 19.6072
12168 2 5.58012 7.34788 19.6731
12169 2 11.2772 4.4832 16.8658
12170 2 11.0937 7.39271 19.5883
12243 2 2.59776 21.5297 25.2255
12172 2 2.51391 12.9854 16.8615
12173 2 2.7663 10.1367 19.6397
12242 2 2.60936 24.0292 22.4039
12175 2 5.5964 10.1074 16.8666
12176 2 8.29622 13.0224 16.9189
12177 2 8.2621 10.213 19.6695
12178 2 5.49176 13.028 19.725
12179 2 11.0483 10.1424 16.8641
12180 2 11.0605 12.9636 19.7429
12236 2 8.23874 18.6344 22.5695
12182 2 2.65875 18.6911 16.8827
12183 2 2.6299 15.7983 19.5989
12223 2 2.78825 10.3181 25.233
12185 2 5.4125 15.8026 16.9071
12186 2 8.15246 18.6136 16.8826
12187 2 8.2733 15.724 19.6911
12188 2 5.45715 18.6441 19.6408
12189 2 11.0227 15.7773 16.9122
12190 2 11.1028 18.5881 19.5983
12226 2 8.35887 12.9946 22.5108
12192 2 2.60964 24.2715 16.7631
12193 2 2.75169 21.3521 19.6596
12225 2 5.70364 10.2565 22.5264
12195 2 5.35332 21.4346 16.6377
12196 2 8.17473 24.377 16.8586
12197 2 8.19289 21.4239 19.7831
12198 2 5.41243 24.2072 19.5153
12199 2 10.8984 21.4557 16.8314
12200 2 11.0294 24.1938 19.7697
12240 2 11.0503 18.5399 25.2727
12202 2 2.78513 1.76844 22.3485
5996 1 7.02678 0.362869 26.679
12239 2 11.009 15.9088 22.505
12222 2 2.68893 12.9789 22.5228
12206 2 8.4134 1.78499 22.4504
12235 2 5.53069 15.7987 22.4767
12208 2 5.60342 1.65608 25.2895
12233 2 2.63584 15.9156 25.305
12210 2 11.2396 1.62192 25.3164
12238 2 5.42497 18.5843 25.4255
12212 2 2.84608 7.32301 22.4214
12213 2 2.75986 4.59239 25.221
12237 2 8.29465 15.8637 25.2477
12215 2 5.55784 4.59112 22.3562
12211 2 0.00747771 4.44861 22.4279
12201 2 -0.00346195 -1.07654 22.3703
12029 2 11.2296 10.0241 28.0538
15221 2 13.9303 13.0196 22.5543
12221 2 -0.0788961 10.2851 22.4036
15231 2 13.9972 18.5526 22.3922
12133 2 8.41008 4.53529 14.0474
15182 2 13.9618 15.7443 19.767
15241 2 13.9216 24.2982 22.4024
15191 2 13.8094 24.1665 16.8178
12146 2 2.5629 21.5014 14.0654
12135 2 11.1836 7.32984 14.0583
12143 2 8.22195 15.6073 14.1181
15171 2 14.005 12.9283 16.8382
12144 2 5.39159 18.5684 14.0236
12154 2 -0.0510653 1.75974 19.5549
12136 2 2.78758 10.0843 14.0895
12140 2 11.0877 12.9321 14.1482
15201 2 14.1376 1.792 22.425
15172 2 13.9343 10.1672 19.6657
15161 2 13.8811 7.46964 16.8534
12214 2 -0.0590918 7.34414 25.1527
12137 2 -0.183721 12.8787 14.0229
12011 2 -0.114768 4.61605 27.9176
15141 2 13.777 15.7368 14.107
12006 2 8.3705 1.78879 28.0519
12145 2 11.053 18.6095 14.1075
12019 2 11.1752 4.57858 28.0037
12138 2 8.24043 10.1305 14.1158
12134 2 5.5743 7.28982 14.09
12130 2 11.2302 1.699 13.7895
12129 2 5.61664 1.78077 13.8832
451 1 1.21737 25.6803 1.37503
452 1 4.03018 25.6547 1.26065
453 1 3.99343 25.5571 4.04669
454 1 1.30184 25.6354 4.18059
455 1 6.79769 25.6909 1.4179
456 1 9.60499 25.6581 1.15524
457 1 9.63865 25.5557 4.10279
458 1 6.90162 25.7614 4.31392
459 1 12.5994 31.151 1.26757
460 1 12.3131 28.3469 4.24463
461 1 1.27338 28.4274 1.2246
462 1 4.05524 28.6479 1.39318
463 1 3.92798 28.305 4.09807
464 1 1.14071 28.4504 4.15518
465 1 1.1163 31.3113 1.37185
466 1 3.98971 31.3226 1.43692
467 1 4.22965 31.2219 4.2063
468 1 1.18537 31.1387 4.01457
469 1 6.73519 28.4679 1.14985
470 1 9.70153 28.4996 1.32206
471 1 9.53632 28.5026 3.99983
472 1 6.89356 28.4866 3.99342
473 1 6.92889 31.0684 1.18766
1101 1 1.18939 50.8956 12.5956
475 1 9.74188 31.1015 4.22029
476 1 6.96288 31.1981 4.22913
477 1 9.83667 31.3082 1.22132
478 1 9.62598 34.0723 1.35116
12293 2 5.61668 49.4662 0.0846843
485 2 2.37746 35.4786 0.219473
481 1 1.0597 33.9659 1.26648
482 1 4.17708 34.1272 0.784201
483 1 4.02888 33.939 4.27502
484 1 1.14206 33.9097 4.18065
12282 2 2.69048 46.7195 -0.146192
486 1 2.68161 35.5329 2.73436
487 1 4.1305 36.9939 4.44343
488 1 1.23736 36.9427 4.18127
489 1 6.43018 33.7878 2.20279
847 1 1.20646 37.0613 1.28455
491 1 9.61245 33.8117 3.98046
492 1 6.8634 34.431 4.61669
493 1 4.43846 36.7284 0.979524
494 1 9.59377 36.7445 1.37858
495 1 9.45448 36.542 4.15704
496 1 6.94637 36.9985 3.83008
497 1 12.4969 33.9979 1.21778
498 1 12.4157 34.071 4.17564
499 1 12.4218 36.8883 1.33948
500 1 12.5284 36.8622 4.07736
501 1 1.37402 39.7941 1.28338
502 1 4.07366 39.564 1.41693
503 1 3.94192 39.8112 4.28915
504 1 1.2175 39.7179 4.14935
505 1 1.27045 42.6466 1.30064
506 1 4.13296 42.442 1.16134
507 1 4.08408 42.5299 4.06189
508 1 1.3014 42.5799 4.13096
509 1 6.87553 39.7218 1.39503
510 1 9.88707 39.6727 1.30363
511 1 9.67794 39.6048 4.20445
512 1 6.74317 39.7617 4.1725
513 1 6.92761 42.3865 1.4058
514 1 9.66849 42.5454 1.30926
515 1 9.63777 42.3459 4.11474
516 1 6.82988 42.6561 4.16548
517 1 12.5462 39.7243 1.14779
518 1 12.6605 39.6992 4.08678
519 1 12.627 42.3463 1.39534
520 1 12.543 42.5555 4.10494
521 1 1.27429 45.3276 1.30376
522 1 3.83834 45.2896 1.269
523 1 4.06821 45.2809 4.16738
524 1 1.39989 45.4249 4.06967
525 1 1.20348 48.1499 1.41828
526 1 4.22313 48.1075 1.23216
527 1 4.26084 48.0373 3.9945
528 1 1.34604 48.2359 3.98859
529 1 6.90444 45.211 1.39171
530 1 9.53605 45.2462 1.19499
531 1 9.74123 45.0898 4.11911
532 1 6.85986 45.3456 4.11495
533 1 7.0407 48.1706 1.27984
534 1 9.76239 48.1819 1.37895
535 1 9.76329 47.927 4.09766
536 1 6.99758 48.0367 3.95723
537 1 12.3176 45.0748 1.26599
538 1 12.3897 45.3286 4.02841
539 1 12.5426 47.8 1.36536
540 1 12.4191 48.1519 4.12624
541 1 1.22707 25.5622 6.92436
542 1 4.08534 25.6743 6.82004
543 1 4.19361 25.5362 9.75729
544 1 1.27717 25.5499 9.86475
545 1 6.882 25.6391 7.03357
546 1 9.65539 25.5729 7.03409
547 1 9.61761 25.6102 9.79292
548 1 6.76461 25.5995 9.74665
549 1 12.3245 28.4417 6.98546
550 1 12.4147 25.6191 9.92612
551 1 1.23206 28.4107 6.93254
552 1 4.14498 28.4286 7.03467
553 1 4.03145 28.2636 9.91792
554 1 1.29094 28.3937 9.72867
555 1 1.20383 31.2193 6.85525
556 1 4.0005 31.2018 7.00166
557 1 4.11604 31.2038 9.72427
558 1 1.38128 31.3478 9.76294
559 1 6.8857 28.5598 7.05483
560 1 9.65038 28.3263 6.89115
561 1 9.7349 28.4473 9.82826
562 1 6.77077 28.3612 9.67457
563 1 6.75092 31.283 7.02898
564 1 9.6587 31.2459 7.00298
565 1 9.7452 31.1723 9.785
566 1 6.93534 31.1143 9.78839
567 1 12.4014 31.2904 6.73213
568 1 12.4915 28.3807 9.85742
90 1 12.5613 25.4975 1.39512
570 1 12.5659 31.3075 9.74465
571 1 1.32897 33.9845 6.96719
572 1 3.99391 34.0829 7.08017
573 1 3.87598 34.0871 9.94891
574 1 1.21666 34.1356 9.566
575 1 1.28729 36.9189 6.95767
576 1 4.07297 36.8715 7.14289
577 1 4.21464 36.8916 9.97299
578 1 1.31029 37.0526 9.77829
579 1 6.96496 34.0827 7.2528
580 1 9.8576 34.1315 6.90857
581 1 9.60376 33.9491 9.73639
582 1 6.79248 33.9808 9.91935
583 1 6.93488 36.9464 6.99318
584 1 9.97643 37.0437 7.08781
585 1 9.71324 36.7464 9.86773
586 1 6.93994 36.9021 9.81196
587 1 12.3431 34.0619 6.88375
588 1 12.486 34.0274 9.81035
589 1 12.5181 36.7494 6.9041
590 1 12.6004 36.7763 9.69594
591 1 1.20867 39.8704 7.0385
592 1 4.01686 39.8108 6.99055
593 1 3.97372 39.5635 9.90521
594 1 1.1573 39.6299 9.8123
595 1 1.28636 42.6719 7.00905
596 1 4.1069 42.5967 6.95079
597 1 3.95669 42.568 9.73542
598 1 1.22746 42.4862 9.78946
599 1 6.85124 39.7035 7.00939
600 1 9.80096 39.745 6.98405
601 1 9.67285 39.6022 9.93761
602 1 6.80176 39.7112 9.77854
603 1 6.82604 42.4846 6.98179
604 1 9.70029 42.5519 6.93324
605 1 9.65789 42.4333 9.73802
606 1 6.81791 42.5103 9.87396
607 1 12.6193 39.6109 6.86464
608 1 12.4664 39.6361 9.71683
609 1 12.498 42.5895 6.8261
610 1 12.4824 42.4812 9.76532
611 1 1.25712 45.4257 6.92775
612 1 4.08231 45.308 7.06969
613 1 4.23525 45.4689 9.94026
614 1 1.34466 45.3271 9.83906
615 1 1.40274 48.0653 6.80865
616 1 4.06263 48.0415 6.83301
617 1 4.08475 48.1604 9.74269
618 1 1.16721 47.9859 9.63383
619 1 7.01901 45.3832 6.99273
620 1 9.81431 45.26 7.09494
621 1 9.69528 45.1879 9.77328
622 1 6.83957 45.0377 9.78021
623 1 6.78015 47.9988 6.70827
624 1 9.57033 48.1442 6.92505
625 1 9.74998 48.0847 9.71784
626 1 6.92376 48.1027 9.66926
627 1 12.5037 45.3547 6.87218
628 1 12.4426 45.2709 9.60513
629 1 12.5464 48.0805 6.98273
630 1 12.5528 48.0838 9.81105
631 1 1.13985 25.634 12.6835
632 1 3.90995 25.4787 12.7263
633 1 6.82389 25.7329 12.6785
634 1 9.62118 25.618 12.5482
635 1 12.3374 25.6397 12.6732
636 1 1.16625 28.5055 12.347
637 1 4.13398 28.371 12.7719
638 1 1.27534 31.196 12.4332
639 1 3.95561 31.1544 12.4983
640 1 6.87783 28.5275 12.3517
641 1 9.61778 28.4622 12.6268
642 1 6.86703 31.3168 12.5044
643 1 9.73634 31.2111 12.4425
644 1 12.4194 28.5082 12.7116
645 1 12.4441 31.2371 12.524
646 1 1.2565 34.122 12.4038
647 1 4.04905 34.0536 12.7011
648 1 1.26442 36.8526 12.4993
649 1 4.11833 36.9795 12.6709
650 1 6.86185 34.1041 12.6778
651 1 9.82431 34.0255 12.5235
652 1 7.03125 36.991 12.5255
653 1 9.83167 36.8386 12.7175
654 1 12.584 34.0642 12.5242
655 1 12.5822 36.9129 12.4595
656 1 1.20651 39.6303 12.641
657 1 4.04554 39.7933 12.5819
658 1 1.28206 42.534 12.5578
659 1 3.99502 42.5852 12.6519
660 1 6.81862 39.7347 12.6703
661 1 9.6397 39.6057 12.5745
662 1 6.74771 42.4502 12.4961
663 1 9.68775 42.4586 12.6742
664 1 12.5005 39.8077 12.6512
665 1 12.4869 42.5361 12.6691
666 1 1.31706 45.4055 12.5981
667 1 4.03923 45.3299 12.7573
668 1 1.27802 48.1655 12.6541
669 1 4.2063 48.1467 12.5726
670 1 6.97598 45.405 12.5382
671 1 9.88173 45.2619 12.4234
672 1 6.99879 48.0917 12.452
673 1 9.90935 48.0208 12.5006
674 1 12.6961 45.2704 12.553
675 1 12.5645 48.1811 12.4835
12363 2 11.0926 49.5739 11.1962
89 1 12.4718 28.3718 1.30599
12253 2 2.64297 26.9837 2.73018
12362 2 5.498 49.5293 11.1151
15281 2 13.9057 46.6191 -0.188141
180 1 12.4477 25.6051 7.04341
12257 2 8.30933 27.0297 2.69978
12258 2 5.484 29.8108 2.80905
12265 2 5.44 32.1691 -0.0473202
12260 2 11.1637 29.7527 2.68228
12360 2 11.1634 43.8646 11.0709
15341 2 13.8797 29.8265 11.2006
12263 2 2.61844 32.7429 2.78002
12359 2 8.39436 46.6715 11.1027
12272 2 2.69169 41.1664 -0.155376
12361 2 -0.183554 49.5307 11.1693
12267 2 8.28585 32.0857 2.67164
12268 2 4.9978 35.5688 3.01315
12345 2 11.0396 27.0416 11.3057
12270 2 11.3104 35.3199 2.73048
12358 2 5.4149 43.9494 11.2226
12344 2 8.24323 29.6449 11.1014
12273 2 2.46552 38.318 2.81406
12357 2 2.67242 46.789 11.2552
12343 2 5.37415 26.9521 11.2424
179 1 12.4383 25.5324 4.14182
12277 2 8.32205 38.4227 2.76129
12278 2 5.39081 41.2234 2.7548
12289 2 11.1059 43.8563 -0.141544
12280 2 11.1369 41.2176 2.69606
12355 2 11.0962 38.3188 11.1305
15297 2 13.7613 27.1087 8.33686
12283 2 2.63398 44.0228 2.78699
12354 2 8.23046 41.2014 11.2041
851 1 7.02137 36.4352 1.16123
12342 2 2.59879 29.8842 11.11
12287 2 8.30872 43.9352 2.79587
12288 2 5.58075 46.7039 2.76246
12340 2 11.1559 49.4481 5.52363
12290 2 11.0218 46.581 2.60397
12353 2 5.44773 38.3535 11.2508
12292 2 2.71573 49.5585 2.59044
12255 2 5.40944 27.024 -0.03195
12294 2 8.37698 49.4975 2.75637
474 1 7.17801 33.7381 -0.0949362
12339 2 8.43163 49.6203 8.41589
12297 2 2.67249 29.764 5.58829
12298 2 2.62037 26.9775 8.32648
12338 2 5.41517 49.5259 5.52019
12300 2 5.43109 27.0529 5.48245
12301 2 8.30925 29.7939 5.62848
12302 2 8.12307 27.0554 8.38615
12303 2 5.44401 29.8347 8.41334
12304 2 10.9689 27.0649 5.5427
12305 2 11.1721 29.7411 8.46955
12352 2 2.57549 41.0717 11.1947
12307 2 2.51065 35.3859 5.49906
12308 2 2.69599 32.7566 8.48959
569 1 12.572 31.249 3.97289
12310 2 5.50724 32.6737 5.68422
12311 2 8.43058 35.6271 5.9602
12312 2 8.20302 32.5563 8.60018