ITEM: TIMESTEP
410000
ITEM: NUMBER OF ATOMS
18000
ITEM: BOX BOUNDS xy xz yz pp pp pp
-1.0162115606379304e-01 2.7995621156064011e+01 0.0000000000000000e+00
-1.1735245178382392e+00 3.3590152451786332e+02 0.0000000000000000e+00
-1.0130154669184743e-01 2.7995301546691621e+01 0.0000000000000000e+00
ITEM: ATOMS id type x y z
1 1 1.27351 0.264616 1.32776
2 1 3.98278 0.26315 1.28034
3 1 3.92426 0.230346 4.07414
4 1 1.23028 0.348391 4.1366
5 1 1.25398 3.13336 1.2676
6 1 4.18914 3.22538 1.35078
7 1 4.12415 3.03025 4.04141
8 1 1.32877 3.14968 4.1285
9 1 6.96721 3.18877 1.17001
10 1 9.65459 0.50188 1.08298
11 1 9.62278 0.467685 3.96335
12 1 6.82756 2.98574 3.9611
13 1 6.96628 5.92475 1.27733
14 1 9.71261 3.22754 1.17704
15 1 9.81153 3.11797 4.05442
16 1 6.83911 5.72012 4.02156
17 1 12.5302 0.327242 1.19495
18 1 12.3538 0.403306 4.01965
19 1 12.6246 3.09259 1.32188
20 1 12.5239 3.16089 4.09549
21 1 1.2891 5.95052 1.37233
22 1 4.11161 6.00276 1.31965
23 1 4.11708 5.83831 4.28428
24 1 1.22005 5.85873 4.06706
25 1 1.14304 8.86623 1.34553
26 1 4.04927 8.71278 1.1698
27 1 3.82673 11.5495 4.30442
28 1 1.36643 8.69509 4.08978
15091 2 13.7832 24.3143 5.50994
30 1 9.69389 6.04976 1.26165
31 1 9.86239 6.10762 4.22658
32 1 6.37285 8.41544 6.06329
33 1 6.31891 10.5942 3.60869
34 1 9.69671 8.74972 1.15695
35 1 7.52072 8.21984 3.70242
36 1 6.42148 12.06 5.53232
37 1 12.5861 5.92511 1.22034
38 1 12.6577 5.88282 3.96044
39 1 12.5178 8.66798 1.16458
40 1 12.5389 8.64463 4.00424
41 1 1.14214 11.6384 1.32535
42 1 4.12977 11.7464 1.35317
43 1 6.72168 14.467 4.00167
44 1 1.19505 11.5368 3.9772
45 1 1.22548 14.5415 1.34321
46 1 4.1131 14.4988 1.10273
47 1 3.98996 14.4348 4.10769
48 1 1.1146 14.445 4.06606
49 1 4.09919 8.62215 4.13379
50 1 9.68459 11.4879 1.00149
51 1 9.74912 9.55113 4.21034
52 1 8.87247 11.8831 3.73926
53 1 6.97416 17.1484 4.15722
54 1 9.76369 14.2644 1.14406
55 1 12.5635 14.3019 3.82909
56 1 9.70268 14.6876 3.94417
57 1 12.4452 11.6964 1.09754
58 1 12.5816 11.4896 3.5915
59 1 12.5734 14.4183 1.13964
15002 2 13.9085 -1.08714 2.70255
61 1 1.2098 17.1442 1.33125
62 1 4.00853 17.261 1.20687
63 1 4.15983 17.1953 3.99235
64 1 1.29569 17.2016 4.11086
65 1 1.29487 20.0002 1.10944
66 1 4.14852 19.9349 1.19776
67 1 4.14674 20.226 4.10334
68 1 1.21355 20.044 3.88582
69 1 6.81413 17.2531 1.38972
70 1 9.64166 17.0244 1.11865
71 1 12.4077 17.0469 3.98853
72 1 9.67962 17.2241 4.00999
73 1 6.82203 20.1422 1.2146
74 1 9.73507 19.8993 1.19109
75 1 9.6697 19.9912 4.01918
76 1 6.8109 20.0026 4.20715
77 1 12.4931 17.2527 1.25063
12134 2 5.47271 7.28145 13.9727
79 1 12.5321 20.0363 1.26287
12105 2 11.221 -1.10566 11.0787
81 1 1.33359 22.9332 1.05701
82 1 4.11948 22.8134 1.21936
83 1 4.05894 22.9728 4.04834
84 1 1.385 22.8011 3.98821
85 1 6.92377 22.7408 1.32762
86 1 9.63458 22.5575 1.26521
87 1 9.77639 22.7597 4.24191
88 1 6.78863 22.741 4.08865
12059 2 11.124 -1.12035 5.376
12128 2 8.39507 -1.0959 13.912
91 1 1.30836 0.265223 6.90941
92 1 4.15958 0.296583 7.07748
93 1 4.25882 2.90277 9.80615
94 1 1.85631 0.356945 9.63995
95 1 1.2882 2.97103 6.91009
96 1 4.1061 3.23024 6.8782
97 1 6.80731 5.87038 9.71785
98 1 1.31239 3.04377 9.6257
99 1 6.97938 3.18876 6.77334
100 1 9.6541 0.311168 6.80644
101 1 9.59787 0.33632 9.69693
102 1 6.92551 3.16752 9.60498
103 1 6.80542 5.85424 6.91798
104 1 9.84083 3.12709 7.05702
105 1 9.62663 3.11363 9.76457
106 1 6.91512 5.88684 12.5562
107 1 12.378 0.200231 6.82464
108 1 12.4974 0.259544 9.7295
109 1 12.4435 3.02249 7.03407
110 1 12.4713 2.93999 9.70484
111 1 1.33493 5.80793 6.82466
112 1 4.09743 5.98708 7.09339
113 1 4.19189 8.60339 9.67025
114 1 1.19762 5.85817 9.70821
115 1 1.07 8.74856 6.96682
116 1 3.74294 8.78182 7.00023
117 1 6.23864 10.5236 7.63214
118 1 1.34248 8.79569 9.85004
119 1 8.96708 8.8096 6.79495
120 1 9.79401 5.88117 7.04691
121 1 9.7051 5.89881 9.76067
122 1 6.90186 8.76552 9.62252
123 1 8.62276 11.679 6.94228
124 1 12.3528 8.40196 6.65834
125 1 11.1703 10.6219 7.78411
126 2 8.35343 10.2525 8.62045
127 1 12.6059 5.80028 7.04346
128 1 12.5455 5.59669 9.66424
12003 2 2.53992 -1.09949 2.70249
130 1 12.7022 11.4893 9.67327
131 1 1.18715 11.5468 6.82053
132 1 3.83923 11.6915 6.98988
133 1 3.93976 11.5369 9.85532
134 1 1.23462 11.6345 9.68265
135 1 1.28052 14.323 6.98675
136 1 4.01788 14.4721 6.99842
137 1 4.08804 14.3011 9.90572
138 1 1.30938 14.4129 9.68211
139 1 9.68676 14.6738 6.8997
140 1 10.9878 12.5706 5.65422
141 1 9.68427 11.6508 9.94637
142 1 6.7412 11.7623 10.0126
143 1 6.85592 14.4987 7.1075
144 1 9.59608 17.2575 6.94455
145 1 9.72947 14.3851 9.87981
146 1 6.90195 14.5006 9.88242
147 1 12.6754 14.1336 6.91426
148 1 12.5317 14.3621 9.71885
149 1 12.2333 17.1436 7.02159
150 1 12.5136 17.2752 9.75588
151 1 1.30757 17.0341 7.01149
152 1 4.12895 17.3106 6.94614
153 1 4.17868 17.1048 9.77917
154 1 1.32331 17.12 9.81735
155 1 1.18133 19.9531 6.78263
156 1 3.91641 20.0885 6.82786
157 1 3.98443 20.0041 9.68715
158 1 1.32218 19.7107 9.53253
159 1 6.76233 17.2307 6.87649
160 1 12.5406 22.7833 3.95525
161 1 9.56838 17.165 9.84782
162 1 6.87136 17.1844 9.85872
163 1 6.98032 20.0485 7.06881
164 1 9.68631 20.0307 7.05259
165 1 9.5864 20.0825 9.806
166 1 6.89686 19.8739 9.75706
241 1 9.65544 8.75542 12.5524
168 1 12.5084 20.0521 9.73264
169 1 12.5595 22.7503 6.87595
170 1 12.4816 22.7702 9.7999
171 1 1.36455 22.7678 6.84318
172 1 4.01054 22.8628 6.9375
173 1 4.16118 22.8247 9.57002
174 1 1.27364 22.7288 9.67119
175 1 6.90595 22.837 6.83728
176 1 9.86894 22.8354 6.99381
177 1 9.69079 22.8529 9.81835
178 1 6.96014 22.7645 9.72934
12022 2 2.72165 12.9838 -0.0702583
12116 2 -0.112751 15.7541 11.0731
181 1 1.24864 0.356256 12.2887
182 1 4.11702 0.269621 12.2689
183 1 1.11848 3.18917 12.5881
184 1 4.04679 3.03134 12.6361
185 1 6.95149 0.224542 12.5782
186 1 9.65094 0.408326 12.5337
187 1 6.85509 3.11003 12.4622
188 1 9.71553 2.97261 12.5912
189 1 12.5783 0.308201 12.4829
190 1 12.6831 3.07471 12.3732
191 1 1.23309 6.03263 12.5347
192 1 3.9677 5.7403 9.87916
193 1 1.2361 8.84129 12.6305
194 1 4.06242 8.58666 12.4805
195 1 4.01779 5.78956 12.6514
196 1 9.70293 5.85871 12.4855
197 1 9.77433 8.73621 9.66471
198 1 12.5331 8.54494 9.59207
199 1 12.3976 6.0867 12.5168
200 1 12.4809 8.75816 12.3224
201 1 1.29738 11.54 12.4876
202 1 3.98813 11.5454 12.655
203 1 1.15476 14.3877 12.4221
204 1 3.92587 14.3573 12.7368
205 1 6.8611 11.3555 12.7072
206 1 9.78735 11.5673 12.5423
207 1 6.84843 14.3415 12.7303
208 1 9.65519 14.5025 12.5847
209 1 12.522 11.5962 12.339
210 1 12.5195 14.4597 12.5362
211 1 1.31163 17.144 12.6178
212 1 4.05259 17.0682 12.5569
213 1 1.21098 19.8945 12.4454
214 1 3.99079 20.079 12.3969
215 1 6.84429 17.2771 12.718
216 1 9.60314 17.2428 12.5504
217 1 6.79446 19.9987 12.4202
218 1 9.73786 20.1549 12.5587
219 1 12.3415 17.3833 12.3942
220 1 12.5525 20.0175 12.577
221 1 1.12732 22.7628 12.5014
222 1 3.98229 22.8929 12.3418
223 1 6.73128 22.7171 12.6124
224 1 9.60515 22.9923 12.5951
225 1 12.4296 22.7455 12.5192
12125 2 11.043 21.4822 11.0975
12110 2 11.0838 4.32392 11.1039
12133 2 8.36061 4.39604 13.8713
12124 2 8.16775 24.2764 11.3197
80 1 12.3682 22.8951 1.12602
12109 2 8.30783 7.30484 11.1146
12007 2 8.27483 -1.07504 2.60587
12008 2 5.4863 1.73686 2.65818
243 1 6.83372 8.69007 12.5299
12010 2 11.0572 1.62351 2.61343
12123 2 5.48608 21.3796 11.0829
12108 2 5.48321 4.42711 11.1444
12013 2 2.71018 4.50012 2.7702
12122 2 2.65076 24.1974 10.992
12107 2 2.70188 7.35093 11.1703
12112 2 2.65521 12.9515 11.2592
12017 2 8.36046 4.49828 2.51974
12018 2 5.55443 7.28762 2.75999
12104 2 8.22875 1.60037 11.1835
12020 2 11.2405 7.36333 2.60255
60 1 12.4115 19.8594 4.04381
15101 2 13.9782 1.56606 11.1097
12023 2 2.6025 10.1089 2.66645
12120 2 11.1221 15.7469 11.0711
12102 2 2.5545 1.87227 11.1935
12113 2 5.40989 9.99179 11.1391
12027 2 8.24002 10.1296 2.22216
12028 2 5.59993 12.6806 2.93304
12100 2 11.1713 24.2066 8.35064
12030 2 11.0383 12.9244 2.57922
12099 2 11.2078 21.4087 5.43154
12098 2 5.43824 24.1628 8.21174
12033 2 2.65355 15.8494 2.63973
412 1 7.01443 14.4219 1.17201
12097 2 8.37299 21.4941 8.32366
12096 2 8.31205 24.1681 5.47412
12037 2 8.28016 15.7886 2.63192
12038 2 5.53594 18.647 2.65728
12095 2 5.40761 21.3531 5.56719
12040 2 11.1046 18.5236 2.67531
29 1 6.76512 8.81981 1.03244
12093 2 2.59322 21.3419 8.20968
12043 2 2.61743 21.5138 2.50142
5723 1 6.90345 0.365811 6.79525
12092 2 2.67939 24.1863 5.50633
5634 1 6.76967 0.315834 1.22224
12047 2 8.17031 21.4099 2.68637
12048 2 5.44082 24.1365 2.6269
12090 2 10.9386 18.6731 8.48911
12050 2 11.1409 24.0443 2.60422
12119 2 8.17224 18.6124 11.2188
12052 2 2.67601 1.64871 5.4758
12129 2 5.48266 1.69504 13.89
12118 2 5.55797 15.6901 11.3041
5633 1 6.8281 0.345764 4.02664
12056 2 8.24635 1.80321 5.36061
5726 1 6.51546 0.343769 9.78985
12058 2 5.61649 1.967 8.13622
12103 2 5.62989 -1.12711 11.219
12060 2 11.1015 1.60069 8.27796
12117 2 2.67208 18.4669 11.1779
12062 2 2.56024 7.33111 5.53401
12063 2 2.60734 4.54015 8.33954
12089 2 11.2535 15.6112 5.5059
12065 2 5.45616 4.53953 5.49638
12066 2 8.2826 7.0815 5.50171
12067 2 8.40065 4.48911 8.43325
12068 2 5.4639 7.31572 8.20451
12069 2 11.1618 4.51274 5.62022
12070 2 11.2117 7.18168 8.46459
12115 2 11.1205 10.2187 11.1623
12072 2 2.58848 13.0213 5.50269
12073 2 2.62044 10.1929 8.4137
12114 2 8.24567 12.9754 11.2531
12075 2 4.92542 10.1536 5.6514
12076 2 8.28092 13.4827 5.50574
12077 2 7.96268 10.2976 5.28297
12078 2 5.45143 12.8898 8.28711
12079 2 11.5447 10.3223 5.42636
12080 2 11.1028 12.96 8.20268
395 1 6.86011 11.7634 1.19058
12082 2 2.70004 18.4981 5.39116
12083 2 2.69136 15.7836 8.29628
15081 2 13.485 18.3844 5.55962
12085 2 5.49081 15.7474 5.46596
12086 2 8.3778 18.5721 5.49904
12087 2 8.28829 15.8138 8.4478
12088 2 5.55218 18.5186 8.43675
167 1 12.2987 19.8942 6.94188
15052 2 13.9671 -1.09984 8.3118
15072 2 13.7479 9.99769 8.24676
15032 2 13.8648 15.7859 2.52685
15051 2 13.847 1.66308 5.45639
15141 2 13.8131 15.808 13.9125
15071 2 13.7941 13.0801 5.10096
12057 2 8.35052 -1.04182 8.27093
15062 2 13.9168 4.34233 8.30795
12034 2 -0.139741 18.5133 2.67031
12044 2 -0.0528658 24.2431 2.62018
15116 2 13.8414 18.731 11.102
12004 2 -0.0508374 1.69311 2.67673
12146 2 2.69483 21.5464 13.8959
15106 2 13.8935 7.23772 11.1337
15111 2 13.9232 12.9487 11.0286
12054 2 0.0121207 1.63464 8.34664
12148 2 8.26576 21.381 13.915
129 1 13.5071 11.0597 6.26513
12149 2 5.44698 24.2796 13.8868
15121 2 13.9042 24.1723 11.1748
12091 2 -0.0188434 21.3467 5.30776
15136 2 13.805 10.0166 13.8227
15126 2 13.9076 -1.16108 13.916
12002 2 2.70648 1.86886 -0.0327348
12130 2 11.2387 1.69303 13.8246
12145 2 11.0175 18.71 13.8567
12019 2 11.1921 4.57583 -0.105837
12144 2 5.50045 18.7445 13.9253
12140 2 11.0836 12.9582 13.8467
12031 2 -0.0654227 15.8776 -0.100921
226 1 4.2257 0.251514 15.1176
227 1 1.3087 0.225203 15.2601
228 1 4.06593 2.98506 15.3558
229 1 1.32964 3.07354 15.2734
230 1 9.87066 0.324382 15.306
231 1 7.03178 0.319594 15.3405
232 1 9.74402 3.18731 15.3172
233 1 6.99342 3.09746 15.275
234 1 12.542 0.343235 15.2515
235 1 12.5552 2.98477 15.1785
236 1 4.06122 5.95011 15.3567
237 1 1.32422 6.10098 15.3504
238 1 4.07214 8.79215 15.2486
239 1 1.23061 8.75793 15.394
240 1 9.77438 5.8362 15.3502
12026 2 8.23777 13.0325 27.8979
242 1 9.66403 8.75912 15.4135
5993 1 6.70407 0.331782 23.6657
244 1 12.6605 5.8362 15.3375
245 1 12.4273 8.71048 15.2443
246 1 4.07198 11.7227 15.5483
247 1 1.24855 11.5838 15.3416
248 1 3.7564 14.502 15.4306
249 1 1.1352 14.3713 15.3918
250 1 9.80364 11.4906 15.3363
251 1 6.86745 11.4902 15.4582
252 1 9.47906 14.3244 15.4355
253 1 6.71043 14.1744 15.4335
254 1 12.3924 11.4681 15.2222
255 1 12.323 14.3872 15.2679
256 1 4.11695 17.2429 15.3742
257 1 1.11388 17.3084 15.3799
258 1 3.95634 20.1312 15.4147
259 1 1.30127 20.0642 15.3248
260 1 9.53362 17.1397 15.2755
261 1 6.86141 17.1462 15.3645
262 1 9.61039 19.9743 15.3241
263 1 6.86238 20.0124 15.2786
264 1 12.4713 17.2461 15.2866
265 1 12.4862 19.9745 15.3767
266 1 4.0725 22.9169 15.2112
267 1 1.31771 22.9206 15.3063
268 1 9.6845 22.7194 15.3926
269 1 6.75772 22.8839 15.366
270 1 12.6136 22.6729 15.3217
271 1 1.33708 0.381994 18.072
272 1 4.08902 0.224203 18.0838
273 1 3.91672 0.216903 21.0677
274 1 1.35306 0.264155 20.9026
275 1 1.33301 3.16268 18.0494
276 1 3.98856 3.22217 18.0822
277 1 4.05891 3.00071 21.0782
278 1 1.14429 3.16351 20.9511
279 1 6.87197 3.05642 18.1044
280 1 9.80636 0.27749 18.0517
281 1 9.66565 0.294557 20.8546
282 1 6.89564 3.13482 20.8315
283 1 7.06631 5.70687 18.1087
284 1 9.6728 2.94828 18.1742
285 1 9.73426 3.04017 20.8214
286 1 6.97442 5.87631 23.585
287 1 12.6317 0.0972377 18.0209
288 1 12.6054 0.337178 20.8166
289 1 12.5487 3.05188 17.9912
290 1 12.3779 3.15034 21.0238
291 1 1.24397 6.07133 18.2773
292 1 4.23308 5.92756 18.136
293 1 4.05885 5.96904 20.9223
294 1 1.26907 5.85766 21.0387
295 1 1.25835 8.77109 18.2074
296 1 4.05296 8.68631 18.2588
297 1 4.0968 8.65245 21.0062
298 1 1.24746 8.78473 20.9205
299 1 6.91148 5.73736 15.2144
300 1 9.81601 5.76951 18.1405
301 1 9.55198 5.87943 20.8026
302 1 6.78965 5.89692 20.9234
303 1 6.91569 8.77299 15.5248
304 1 9.57291 8.79853 18.1191
305 1 9.83824 8.64549 20.9089
306 1 6.73758 8.79076 18.2104
307 1 12.5472 5.79274 18.1784
308 1 12.3966 5.95038 20.934
309 1 12.2848 8.55906 17.9666
310 1 12.4978 8.68312 20.8524
311 1 1.17034 11.6981 18.1376
312 1 3.83823 11.4956 18.2537
313 1 4.03833 11.6026 21.0236
314 1 1.17682 11.5025 21.1158
315 1 1.11236 14.3871 18.179
316 1 3.91738 14.4287 18.2142
317 1 3.98842 14.4572 20.9385
318 1 1.10026 14.277 20.9955
319 1 6.70062 11.5945 18.237
320 1 9.59702 11.6763 18.0293
321 1 9.57976 11.5486 20.8584
322 1 6.69273 11.4772 21.0172
323 1 6.61935 14.3741 18.2058
324 1 9.48428 14.2119 18.2493
325 1 9.6563 14.2824 21.0898
326 1 6.81182 14.2731 21.0756
327 1 12.543 11.3801 17.9456
328 1 12.5288 11.5174 20.7875
329 1 12.3495 14.2852 18.0563
330 1 12.4709 14.3385 20.8835
331 1 1.34176 17.2574 18.2025
332 1 4.14612 17.1554 18.1744
333 1 4.24579 17.2315 21.0198
334 1 1.25451 17.2295 21.0523
335 1 1.18283 19.994 18.2442
336 1 4.08787 20.0602 18.2052
337 1 4.30037 19.9211 20.7733
338 1 1.4252 20.0337 21.0259
339 1 6.94455 17.3125 18.2147
340 1 9.6526 17.0062 18.0085
341 1 9.66473 17.212 20.871
342 1 6.87438 17.0934 21.0203
343 1 6.87972 20.0619 18.0618
344 1 9.73293 19.9491 17.9838
345 1 9.82817 20.0612 20.7051
346 1 7.04636 19.9814 20.9394
347 1 12.6252 17.1593 17.8986
348 1 12.4513 17.1266 20.8983
349 1 12.6327 19.8994 18.2789
350 1 12.5473 19.8197 20.9851
351 1 1.24055 22.9024 18.2893
352 1 3.91755 22.7952 17.9673
353 1 4.13368 22.8535 20.915
354 1 1.26253 22.8086 20.9078
355 1 6.70281 22.9298 18.0655
356 1 9.61901 22.8285 18.1164
357 1 9.64894 22.8161 21.0136
358 1 6.80775 22.7291 20.8738
359 1 12.5291 22.7929 18.1451
360 1 12.4422 22.6807 20.853
361 1 1.11516 0.291357 23.7033
362 1 3.91348 0.423492 23.7362
363 1 3.97938 0.498606 26.6293
364 1 1.08799 0.299591 26.5355
365 1 1.09849 2.91108 23.7538
366 1 3.95456 3.26435 23.847
367 1 3.98537 3.14523 26.7043
368 1 1.12034 3.10736 26.5742
369 1 6.82591 3.03754 23.7099
370 1 9.56789 0.213374 23.7091
371 1 9.47087 0.282778 26.5053
372 1 6.83904 3.12988 26.4341
373 1 6.95187 5.81713 26.5171
374 1 9.71897 3.11392 23.6771
375 1 9.63012 3.07204 26.4277
376 1 9.7305 5.87812 26.4723
377 1 12.5029 0.290877 23.7058
378 1 12.538 0.401606 26.585
379 1 12.6123 3.04437 23.9075
380 1 12.34 3.00401 26.6792
381 1 1.2648 5.8457 23.7578
382 1 4.10856 5.9146 23.6323
383 1 4.04763 5.90408 26.4939
384 1 1.10085 6.05798 26.6159
385 1 1.17845 8.61604 23.7352
386 1 4.10008 8.79686 23.879
387 1 4.15908 8.66091 26.6145
388 1 1.34967 8.97413 26.6283
389 1 7.00528 8.63849 23.7936
390 1 9.79771 6.03509 23.5982
391 1 9.74753 8.676 26.5102
392 1 7.01963 8.72493 26.5178
393 1 7.02668 8.71865 21.0684
394 1 9.78619 8.73282 23.7102
12207 2 8.13595 -1.11477 25.0911
396 1 6.81037 11.5685 26.4263
397 1 12.4225 5.81053 23.7803
398 1 12.4935 5.96543 26.6366
399 1 12.7616 8.60937 23.6405
400 1 12.6469 8.65478 26.4962
401 1 1.25543 11.4412 23.83
402 1 3.98646 11.6207 23.7989
403 1 4.10695 11.6683 26.6048
404 1 1.2257 11.7141 26.6941
405 1 1.31244 14.4342 23.6877
406 1 4.01497 14.3926 23.7221
407 1 4.09083 14.5523 26.5325
408 1 1.44757 14.479 26.5077
409 1 6.68572 11.453 23.7149
410 1 9.62666 11.5183 23.7064
411 1 9.69003 11.7749 26.5216
12039 2 11.1041 15.6967 27.9189
413 1 6.82848 14.3563 23.7539
414 1 9.77001 14.1679 23.6578
415 1 9.67694 14.5006 26.4968
416 1 6.97793 14.4153 26.577
417 1 12.4112 11.5813 23.6729
418 1 12.6258 11.4714 26.4859
419 1 12.5401 14.3548 23.668
420 1 12.2908 14.2651 26.4217
421 1 1.34369 17.36 23.9294
422 1 4.01064 17.2767 23.762
423 1 4.11678 17.2352 26.5305
424 1 1.3598 17.3598 26.5639
425 1 1.21129 20.0127 23.7674
426 1 4.26661 20.0203 23.7184
427 1 4.20186 20.0147 26.5158
428 1 1.31348 20.0629 26.4526
429 1 6.98011 17.135 23.7819
430 1 9.74718 17.0091 23.7268
431 1 9.75427 17.1259 26.4628
432 1 6.86588 17.156 26.6644
433 1 6.99669 19.9825 23.659
434 1 9.80065 19.8459 23.4911
435 1 9.82098 20.0372 26.4278
436 1 6.97043 19.9966 26.5167
437 1 12.6245 17.0547 23.6123
438 1 12.5235 17.1289 26.525
439 1 12.6823 19.9112 23.8478
440 1 12.513 19.9372 26.4627
441 1 1.25782 22.8168 23.7434
442 1 3.99787 22.7326 23.7794
443 1 4.02606 22.8699 26.5987
444 1 1.18426 22.8022 26.4917
445 1 6.93589 22.6886 23.6673
446 1 9.79669 22.5729 23.8265
447 1 9.66959 22.7159 26.5841
448 1 6.91811 22.7314 26.5766
449 1 12.5693 22.7981 23.6324
450 1 12.5672 22.9066 26.5033
15242 2 13.9353 21.2483 25.0965
12250 2 11.1731 24.2017 25.1262
12029 2 11.1338 10.1138 27.9586
12203 2 2.67951 -0.947337 25.1207
5906 1 6.86636 0.346991 20.8678
12155 2 5.52703 -1.04441 16.6496
12249 2 11.0944 21.3411 22.2066
12045 2 5.52518 21.3961 27.9247
12209 2 11.0438 -1.1091 22.3196
12041 2 -0.0266078 21.3569 27.881
15031 2 13.9271 18.555 27.8223
12248 2 5.44434 24.1806 25.0379
12205 2 5.33153 -1.03658 22.4292
12025 2 5.37703 10.1481 27.9131
15161 2 13.8879 7.31024 16.7411
12015 2 5.48888 4.5514 27.9715
12139 2 5.39506 12.9613 14.0676
15241 2 13.8986 24.1321 22.3069
12220 2 11.1329 7.26995 25.1121
15182 2 13.8763 15.6561 19.3887
12232 2 2.69752 18.536 22.3602
12216 2 8.34398 7.27986 22.2469
5903 1 6.96978 0.219269 18.139
12219 2 11.1247 4.48495 22.3264
12218 2 5.53051 7.17685 25.0798
12247 2 8.35809 21.3075 25.1395
12152 2 2.53915 1.71551 16.6447
12227 2 8.27109 10.1255 25.0694
12246 2 8.30502 24.1989 22.3353
12230 2 10.9893 12.9048 25.1019
12156 2 8.26915 1.70223 16.8139
12229 2 11.1124 10.1067 22.3192
12158 2 5.4856 1.74384 19.4928
12217 2 8.34357 4.47907 25.0496
12160 2 11.1236 1.51376 19.4796
12245 2 5.5299 21.2838 22.2689
12162 2 2.71988 7.29824 16.8193
12163 2 2.72903 4.55401 19.5862
12228 2 5.37965 12.9363 25.1728
12165 2 5.6137 4.40897 16.7223
12166 2 8.32772 7.29024 16.7171
12167 2 8.40318 4.48533 19.5945
12168 2 5.49088 7.26972 19.58
12169 2 11.1822 4.31946 16.7364
12170 2 11.0625 7.17492 19.4962
12243 2 2.71968 21.4533 25.071
12172 2 2.56434 12.9553 16.8772
12173 2 2.71345 10.132 19.6195
12242 2 2.72108 24.1567 22.3015
12175 2 5.37739 10.1299 16.7513
12176 2 8.18919 12.932 16.656
12177 2 8.15724 10.1438 19.4745
12178 2 5.34164 12.9086 19.6275
12179 2 11.0286 10.0945 16.7326
12180 2 11.0223 12.7865 19.5255
12236 2 8.30134 18.5632 22.3347
12182 2 2.60714 18.7204 16.8287
12183 2 2.6284 15.7489 19.5568
12223 2 2.75808 10.0844 25.1642
12185 2 5.47985 15.8312 16.7365
12186 2 8.20259 18.5882 16.6931
12187 2 8.26323 15.4971 19.6424
12188 2 5.55602 18.4978 19.5636
12189 2 10.9631 15.7321 16.6419
12190 2 10.9731 18.4243 19.4535
12226 2 8.17457 12.9033 22.2669
12192 2 2.51639 24.3144 16.6272
12193 2 2.71201 21.4112 19.5888
12225 2 5.35736 10.1312 22.3971
12195 2 5.38926 21.4737 16.6949
12196 2 8.18705 24.1964 16.7687
12197 2 8.38232 21.3538 19.5351
12198 2 5.53294 24.2392 19.5335
12199 2 11.0485 21.3068 16.7166
12200 2 11.0244 24.0826 19.4437
12240 2 11.1472 18.4767 25.0388
12202 2 2.45522 1.7895 22.3991
5996 1 6.65726 0.221741 26.4014
12239 2 11.0526 15.6977 22.3529
12222 2 2.67834 12.999 22.3246
12206 2 8.23832 1.67761 22.3058
12235 2 5.54351 15.7738 22.4267
12208 2 5.51793 1.80206 25.0442
12233 2 2.61368 15.8346 25.0621
12210 2 11.0337 1.60624 25.1968
12238 2 5.61533 18.5345 25.1201
12212 2 2.63976 7.34413 22.4288
12213 2 2.51379 4.46683 25.2134
12237 2 8.2456 15.6458 25.1301
12215 2 5.41444 4.50556 22.3064
15231 2 13.908 18.4473 22.1781
12016 2 8.257 7.30453 27.8734
12181 2 -0.103484 15.7457 16.7831
12005 2 5.36706 -1.00519 27.9977
12136 2 2.6889 10.2486 14.0418
15021 2 13.8141 12.9039 27.8326
12211 2 -0.151594 4.55158 22.3749
15171 2 13.8846 12.8252 16.4624
15172 2 13.9262 10.105 19.5232
15221 2 13.7351 12.9433 22.2262
12042 2 2.71833 24.2058 27.9257
15162 2 13.829 4.52661 19.4594
12231 2 -0.10488 15.7098 22.393
12046 2 8.33138 24.1664 27.9715
15212 2 13.8463 4.48068 25.2367
12194 2 -0.0733942 24.2626 19.5502
15191 2 13.8829 23.9949 16.7742
15201 2 13.8448 1.71201 22.4263
12006 2 8.19288 1.73016 27.8481
12135 2 11.0716 7.24887 13.9921
12036 2 8.28826 18.65 27.8495
12131 2 2.58682 4.67551 13.9397
12049 2 11.1104 21.3207 27.8486
15041 2 13.8858 24.278 27.802
12141 2 2.5895 15.7917 14.1104
12032 2 2.8022 18.5588 27.8136
12035 2 5.45983 15.7507 27.9372
12150 2 11.1074 24.0612 13.9815
12138 2 8.39209 10.1832 14.0427
15001 2 13.8705 1.63857 27.9268
12012 2 2.65759 7.30073 27.9163
12009 2 11.1059 -1.09454 27.9055
12143 2 8.25473 15.8279 14.0094
451 1 1.27066 25.575 1.19123
452 1 3.98233 25.6497 1.28458
453 1 4.07584 25.6769 3.96545
454 1 1.24643 25.6583 4.06113
455 1 6.74626 25.564 1.20488
456 1 9.54731 25.6713 1.31425
457 1 9.61287 25.426 3.99944
458 1 6.82521 25.5085 4.07498
459 1 12.6452 31.0868 1.41023
460 1 12.5133 28.4265 4.12848
461 1 1.23458 28.2988 1.27551
462 1 3.85702 28.4927 1.12899
463 1 4.00142 28.5082 4.00331
464 1 1.22104 28.4182 4.09974
465 1 1.22863 31.1916 1.30519
466 1 3.85428 31.1554 1.33668
467 1 4.21097 31.1912 4.11729
468 1 1.20918 31.1649 4.07899
469 1 6.73916 28.3257 1.17875
470 1 9.55434 28.4571 1.31522
471 1 9.76983 28.2933 4.00908
472 1 6.86387 28.3846 4.16765
473 1 6.78117 31.0636 1.23943
485 2 2.48687 35.4467 0.0378588
475 1 9.7141 31.0708 4.03963
476 1 7.03205 31.1534 3.89388
477 1 9.85929 31.1191 1.1461
478 1 9.58162 34.0423 1.44005
12341 2 -0.0979769 27.0268 11.1058
12254 2 -0.116604 29.8233 2.58789
481 1 1.2171 33.911 1.29447
482 1 4.22003 33.9529 0.940009
483 1 3.93011 33.6779 4.39606
484 1 1.31514 34.0051 4.19292
12351 2 -0.100169 38.2112 11.1018
486 1 2.88072 35.8355 2.49475
487 1 4.30688 36.849 4.34455
488 1 1.0848 36.9645 4.17777
489 1 6.5795 33.5464 2.32677
847 1 1.0625 36.8873 1.19961
491 1 9.14307 33.9019 4.1785
492 1 6.60411 34.5438 4.62034
493 1 4.13317 36.9891 0.718336
494 1 9.3568 36.6754 1.45161
495 1 9.70097 36.6739 4.13173
496 1 7.17928 37.0026 4.05698
497 1 12.4033 34.1817 1.1154
498 1 12.2233 33.9687 3.82504
499 1 12.4072 36.9925 1.16725
500 1 12.6387 36.8047 3.9315
501 1 1.21648 39.7303 1.22321
502 1 4.17934 39.5925 1.43521
503 1 4.12785 39.5604 4.11785
504 1 1.37347 39.6701 4.03737
505 1 1.25027 42.4328 1.31151
506 1 4.04388 42.3278 1.11461
507 1 4.13535 42.5471 3.988
508 1 1.35544 42.6506 4.17087
509 1 6.85967 39.764 1.32675
510 1 9.79159 39.5717 1.22027
511 1 9.76346 39.7234 4.20501
512 1 7.02063 39.7778 4.17399
513 1 6.88512 42.5252 1.52247
514 1 9.72743 42.3662 1.32389
515 1 9.71871 42.3836 4.20938
516 1 6.87274 42.5604 4.23793
517 1 12.5983 39.6762 1.24066
518 1 12.4268 39.7898 4.00621
519 1 12.6368 42.4762 1.30311
520 1 12.5499 42.5592 4.05252
521 1 1.32621 45.141 1.2962
522 1 4.00837 45.1927 1.22444
523 1 4.15362 45.2401 3.97896
524 1 1.274 45.392 4.06107
525 1 1.20786 47.9688 1.28246
526 1 4.19109 47.9358 1.38177
527 1 3.95798 48.1398 4.12085
528 1 1.24096 48.0722 4.14363
529 1 6.8351 45.2849 1.36661
530 1 9.56174 45.1278 1.33526
531 1 9.6795 45.0918 4.1354
532 1 6.9967 45.2663 4.13297
533 1 6.97107 48.0704 1.35272
534 1 9.80193 48.114 1.27769
535 1 9.66883 48.0027 4.00821
536 1 6.74412 48.1001 4.09335
537 1 12.2905 45.2088 1.38322
538 1 12.4925 45.2591 4.00026
539 1 12.5546 47.9467 1.29984
540 1 12.5213 48.0705 4.19778
541 1 1.28112 25.4895 6.97277
542 1 4.04183 25.6935 6.8144
543 1 4.05095 25.6403 9.77925
544 1 1.11897 25.6465 9.68845
545 1 6.86616 25.7258 6.76195
546 1 9.56646 25.4622 6.99435
547 1 9.7371 25.7407 9.82937
548 1 6.9288 25.7688 9.77334
549 1 12.5434 28.4311 6.83973
550 1 12.4278 25.5039 9.67606
551 1 1.38863 28.2261 6.78441
552 1 4.18131 28.4727 6.92281
553 1 3.9446 28.4165 9.65662
554 1 1.32831 28.4297 9.56649
555 1 1.32565 31.0622 6.90741
556 1 3.99928 31.181 7.04059
557 1 3.9838 31.3698 9.77393
558 1 1.27297 31.1272 9.6435
559 1 6.80336 28.4934 6.88524
560 1 9.46733 28.4222 6.82759
561 1 9.72351 28.5025 9.65151
562 1 6.81221 28.5007 9.62854
563 1 6.75867 31.277 6.84664
564 1 9.49266 31.1055 6.69592
565 1 9.67933 31.2919 9.4539
566 1 6.85178 31.2221 9.8355
567 1 12.2699 31.2482 6.86161
568 1 12.3803 28.531 9.70427
90 1 12.5257 25.7029 1.12166
570 1 12.4633 31.2877 9.67441
571 1 1.1295 33.9336 7.01872
572 1 3.9384 34.2026 7.03675
573 1 4.15196 34.0174 9.77272
574 1 1.25571 34.0582 9.7876
575 1 1.26432 36.7826 6.98729
576 1 4.04038 36.9889 7.03605
577 1 4.08921 36.856 9.78609
578 1 1.32393 36.7443 9.67591
579 1 6.89197 34.0915 7.2278
580 1 9.72379 33.9931 6.90938
581 1 9.58456 33.9887 9.64463
582 1 6.81277 34.0107 9.86908
583 1 6.84192 36.8776 6.95075
584 1 9.76447 36.9387 6.93359
585 1 9.60265 36.8086 9.74746
586 1 6.78674 36.8458 9.84059
587 1 12.5213 33.9629 6.56285
588 1 12.3411 34.0019 9.58229
589 1 12.4456 36.7087 6.75535
590 1 12.4817 36.9086 9.63109
591 1 1.27208 39.5653 6.77751
592 1 4.08516 39.6279 6.83074
593 1 4.04841 39.7505 9.65072
594 1 1.27576 39.7539 9.55277
595 1 1.18638 42.4953 6.88037
596 1 4.03406 42.4256 6.84696
597 1 4.0979 42.4139 9.69603
598 1 1.25707 42.4809 9.87178
599 1 7.0032 39.7653 6.743
600 1 9.87133 39.7163 6.93669
601 1 9.64654 39.8032 9.66709
602 1 6.95762 39.7649 9.63311
603 1 6.79579 42.5534 7.03698
604 1 9.70615 42.7109 6.91821
605 1 9.79725 42.4933 9.58179
606 1 6.86552 42.5433 9.72237
607 1 12.5582 39.695 6.83379
608 1 12.5301 39.6693 9.61129
609 1 12.4983 42.5725 7.00122
610 1 12.5743 42.4484 9.76081
611 1 1.3494 45.2721 6.826
612 1 3.94705 45.2019 6.98203
613 1 4.09951 45.1727 9.70934
614 1 1.3682 45.3304 9.7168
615 1 1.44776 48.2797 7.01436
616 1 4.08934 47.9677 6.85162
617 1 4.15992 48.148 9.84055
618 1 1.44529 48.0748 9.86512
619 1 6.67204 45.2902 6.95498
620 1 9.53628 45.4543 7.10297
621 1 9.77919 45.4422 9.77947
622 1 6.9775 45.2783 9.7186
623 1 6.91494 48.0911 6.8254
624 1 9.82318 48.2294 6.84609
625 1 9.75833 48.3355 9.57517
626 1 7.03547 48.1706 9.84368
627 1 12.6497 45.3019 6.79828
628 1 12.4866 45.1706 9.86172
629 1 12.5026 48.0359 6.97176
630 1 12.4817 47.9471 9.89814
631 1 1.32376 25.668 12.3755
632 1 4.02567 25.6978 12.6696
633 1 6.88289 25.7214 12.4817
634 1 9.76115 25.6477 12.4695
635 1 12.6585 25.5906 12.431
636 1 1.23388 28.4585 12.4269
637 1 4.10458 28.4788 12.4645
638 1 1.24879 31.1862 12.6586
639 1 4.00972 31.1644 12.6344
640 1 6.91741 28.4974 12.4643
641 1 9.56974 28.3557 12.4702
642 1 6.80463 31.3141 12.4505
643 1 9.57071 31.1993 12.349
644 1 12.4944 28.1963 12.5895
645 1 12.2982 31.1731 12.4626
646 1 1.34139 34.0462 12.605
647 1 4.04297 34.1376 12.5385
648 1 1.27251 36.8956 12.5619
649 1 4.22528 36.8516 12.7074
650 1 7.05677 33.9308 12.4967
651 1 9.79477 33.9516 12.53
652 1 6.8019 36.9117 12.6553
653 1 9.64111 36.9878 12.6847
654 1 12.5057 34.0288 12.2762
655 1 12.418 36.8951 12.3686
656 1 1.5262 39.6308 12.4033
657 1 4.21035 39.6055 12.6059
658 1 1.27415 42.4834 12.6062
659 1 4.09278 42.5283 12.6143
660 1 6.80291 39.8976 12.4816
661 1 9.60475 39.6936 12.353
662 1 6.93337 42.6063 12.4169
663 1 9.61213 42.5333 12.4406
664 1 12.3335 39.5694 12.4049
665 1 12.4485 42.3847 12.6378
666 1 1.27956 45.1934 12.5923
667 1 4.09428 45.278 12.623
668 1 1.32658 47.9399 12.6456
669 1 4.20662 47.9938 12.5359
670 1 6.90338 45.2024 12.4807
671 1 9.70535 45.2901 12.6139
672 1 6.9594 48.0527 12.693
673 1 9.74174 48.0632 12.4991
674 1 12.5132 45.1877 12.7434
675 1 12.4999 47.9831 12.5749
12363 2 11.1254 49.5495 11.124
89 1 12.3103 28.3978 1.12739
12253 2 2.71108 27.0476 2.64504
12362 2 5.47678 49.5468 11.1986
15373 2 13.8713 38.1566 13.9149
180 1 12.4304 25.7357 6.99166
12257 2 8.23413 26.9224 2.72531
12258 2 5.49768 29.6986 2.62404
15262 2 13.9065 32.5619 2.72364
12260 2 11.1827 29.6879 2.657
12360 2 11.141 43.8374 11.1539
12346 2 -0.0434181 32.5976 11.1356
12263 2 2.69502 32.5114 2.89527
12359 2 8.35505 46.7158 11.1679
15317 2 13.9576 38.2586 8.34632
12329 2 0.180579 46.6958 8.39932
12267 2 8.35374 32.1269 2.40435
12268 2 4.90461 35.2083 3.13036
12345 2 11.1119 27.042 11.1494
12270 2 11.2712 35.5426 2.61536
12358 2 5.49158 43.9265 11.1018
12344 2 8.20605 29.7356 10.9877
12273 2 2.64519 38.1193 2.57752
12357 2 2.7422 46.6132 11.2326
12343 2 5.3885 27.1225 11.0048
179 1 12.3301 25.7736 4.08231
12277 2 8.56309 38.6598 2.93033
12278 2 5.42177 41.1137 2.7819
12295 2 11.1643 49.4683 -0.0925309
12280 2 11.1964 41.1851 2.65385
12355 2 10.8768 38.2802 11.0474
15316 2 13.8578 41.1938 5.51122
12283 2 2.6481 43.8967 2.72593
12354 2 8.29075 41.3163 11.0834
851 1 6.58463 36.3365 1.48526
12342 2 2.61719 29.9254 11.1447
12287 2 8.30078 43.8897 2.82048
12288 2 5.53988 46.7414 2.70372
12340 2 11.2028 49.5193 5.47867
12290 2 11.0503 46.5622 2.69624
12353 2 5.52991 38.2575 11.1973
12292 2 2.72196 49.5067 2.73853
12299 2 -0.0854441 29.7931 8.22392
12294 2 8.3478 49.5406 2.79558
15351 2 13.8416 40.9513 11.156
12339 2 8.37801 49.6444 8.27269
12297 2 2.69849 29.7459 5.52202
12298 2 2.74199 27.0199 8.26572
12338 2 5.40121 49.4159 5.46806
12300 2 5.44341 27.0198 5.44833
12301 2 8.30786 29.7842 5.54066
12302 2 8.21869 26.9214 8.35805
12303 2 5.40534 29.873 8.32306
12304 2 10.892 27.0315 5.42569
12305 2 11.0755 29.8343 8.12528
12352 2 2.70778 41.1317 11.1777
12307 2 2.56597 35.6222 5.54235
12308 2 2.61627 32.6772 8.34287
569 1 12.3944 31.3402 4.09892
12310 2 5.44862 32.6666 5.6105
12311 2 8.17672 35.5063 5.95364