LAMMPS (29 Oct 2020)
OMP_NUM_THREADS environment is not set. Defaulting to 1 thread. (../comm.cpp:94)
  using 1 OpenMP thread(s) per MPI task
OMP_NUM_THREADS environment is not set. Defaulting to 1 thread. (../comm.cpp:94)
  using 1 OpenMP thread(s) per MPI task
Reading data file ...
  orthogonal box = (-0.35877922 -4.2466794 -0.35088779) to (27.698779 332.32668 27.690888)
  2 by 13 by 2 MPI processor grid
  reading atoms ...
  17640 atoms
  reading velocities ...
  17640 velocities
Finding 1-2 1-3 1-4 neighbors ...
  special bond factors lj:    0.0      0.0      0.0     
  special bond factors coul:  0.0      0.0      0.0     
     0 = max # of 1-2 neighbors
     0 = max # of 1-3 neighbors
     0 = max # of 1-4 neighbors
     1 = max # of special neighbors
  special bonds CPU = 0.004 seconds
  read_data CPU = 0.061 seconds
Setting atom values ...
  11760 settings made for charge
Setting atom values ...
  5880 settings made for charge
PPPM initialization ...
  using 12-bit tables for long-range coulomb (../kspace.cpp:328)
  G vector (1/distance) = 0.29883693
  grid = 40 240 40
  stencil order = 5
  estimated absolute RMS force accuracy = 0.00015601769
  estimated relative force accuracy = 1.0834829e-05
  using single precision MKL FFT
  3d grid and FFT values/proc = 15000 7600
Neighbor list info ...
  update every 1 steps, delay 0 steps, check yes
  max neighbors/atom: 2000, page size: 100000
  master list distance cutoff = 11.3
  ghost atom cutoff = 11.3
  binsize = 5.65, bins = 5 60 5
  2 neighbor lists, perpetual/occasional/extra = 2 0 0
  (1) pair coul/long, perpetual
      attributes: half, newton on
      pair build: half/bin/newton
      stencil: half/bin/3d/newton
      bin: standard
  (2) pair eam/alloy, perpetual, copy from (1)
      attributes: half, newton on
      pair build: copy
      stencil: none
      bin: none
Setting up Verlet run ...
  Unit style    : metal
  Current step  : 0
  Time step     : 0.001
Per MPI rank memory allocation (min/avg/max) = 8.155 | 8.179 | 8.193 Mbytes
Step Temp E_pair E_mol TotEng Press 
       0          600   -230496.61            0    -229128.6    596.58639 
  100000    602.26312   -230488.68            0    -229115.5    854.23712 
Loop time of 646.245 on 52 procs for 100000 steps with 17640 atoms

Performance: 13.370 ns/day, 1.795 hours/ns, 154.740 timesteps/s
99.8% CPU use with 52 MPI tasks x 1 OpenMP threads

MPI task timing breakdown:
Section |  min time  |  avg time  |  max time  |%varavg| %total
---------------------------------------------------------------
Pair    | 431.32     | 448.09     | 461.93     |  39.9 | 69.34
Bond    | 0.0076557  | 0.010204   | 0.01459    |   1.7 |  0.00
Kspace  | 127.81     | 144.68     | 165.42     |  85.0 | 22.39
Neigh   | 31.112     | 34.093     | 37.368     |  34.8 |  5.28
Comm    | 13.681     | 14.814     | 16.572     |  19.5 |  2.29
Output  | 5.2605e-05 | 5.8272e-05 | 0.00025869 |   0.0 |  0.00
Modify  | 1.6409     | 3.2977     | 5.1394     |  62.9 |  0.51
Other   |            | 1.26       |            |       |  0.19

Nlocal:        339.231 ave         365 max         313 min
Histogram: 4 6 9 6 1 4 5 5 4 8
Nghost:        4107.88 ave        4213 max        3992 min
Histogram: 2 5 5 10 4 4 6 5 6 5
Neighs:        67399.4 ave       73674 max       60507 min
Histogram: 6 6 7 3 3 1 5 5 10 6

Total # of neighbors = 3504771
Ave neighs/atom = 198.68316
Ave special neighs/atom = 0.0000000
Neighbor list builds = 16221
Dangerous builds = 0
11760 atoms in group oxygen
PPPM initialization ...
  using 12-bit tables for long-range coulomb (../kspace.cpp:328)
  G vector (1/distance) = 0.29883693
  grid = 40 240 40
  stencil order = 5
  estimated absolute RMS force accuracy = 0.00015601769
  estimated relative force accuracy = 1.0834829e-05
  using single precision MKL FFT
  3d grid and FFT values/proc = 15000 7600
Setting up Verlet run ...
  Unit style    : metal
  Current step  : 0
  Time step     : 0.001
Per MPI rank memory allocation (min/avg/max) = 8.407 | 8.430 | 8.444 Mbytes
Step f_2 Temp v_Tdiff v_deltaT 
       0            0    602.26312            0            0 
  100000    694.88481    604.05186  0.019161305    222.46097 
  200000    1376.8604    605.46038  0.020457477    237.50941 
  300000    2051.7667     601.1241  0.020760212    241.02414 
  400000    2732.6467    598.16067  0.020032602    232.57665 
  500000    3414.0387    604.47876  0.019952504    231.64672 
  600000    4095.4042    602.47881  0.020664951    239.91817 
  700000    4777.7454     602.0472  0.020869059    242.28784 
  800000    5458.2975    604.37467   0.02037769    236.58309 
  900000    6142.4107    605.38747   0.02054746    238.55411 
 1000000    6818.9249    611.00271  0.021104041    245.01596 
Loop time of 6390.49 on 52 procs for 1000000 steps with 17640 atoms

Performance: 13.520 ns/day, 1.775 hours/ns, 156.482 timesteps/s
99.8% CPU use with 52 MPI tasks x 1 OpenMP threads

MPI task timing breakdown:
Section |  min time  |  avg time  |  max time  |%varavg| %total
---------------------------------------------------------------
Pair    | 4256       | 4407.1     | 4554.3     | 123.9 | 68.96
Bond    | 0.066271   | 0.10345    | 0.14712    |   5.5 |  0.00
Kspace  | 1284.7     | 1449.4     | 1622.8     | 258.7 | 22.68
Neigh   | 320.04     | 350.03     | 382.97     | 107.3 |  5.48
Comm    | 138.4      | 148.45     | 166.1      |  63.0 |  2.32
Output  | 0.0010593  | 0.0011164  | 0.0023304  |   0.5 |  0.00
Modify  | 5.1905     | 5.7163     | 6.2612     |  12.2 |  0.09
Other   |            | 29.75      |            |       |  0.47

Nlocal:        339.231 ave         365 max         315 min
Histogram: 4 7 8 5 0 6 5 8 4 5
Nghost:        4109.60 ave        4200 max        4001 min
Histogram: 3 5 4 6 6 3 8 4 7 6
Neighs:        67382.6 ave       73862 max       59745 min
Histogram: 3 5 6 7 3 1 5 11 4 7

Total # of neighbors = 3503893
Ave neighs/atom = 198.63339
Ave special neighs/atom = 0.0000000
Neighbor list builds = 166301
Dangerous builds = 0
Total wall time: 1:57:17
