LAMMPS (29 Oct 2020)
OMP_NUM_THREADS environment is not set. Defaulting to 1 thread. (../comm.cpp:94)
  using 1 OpenMP thread(s) per MPI task
OMP_NUM_THREADS environment is not set. Defaulting to 1 thread. (../comm.cpp:94)
  using 1 OpenMP thread(s) per MPI task
Reading data file ...
  orthogonal box = (-0.27717828 -3.4472206 -0.27717828) to (27.617178 331.52722 27.617178)
  2 by 13 by 2 MPI processor grid
  reading atoms ...
  18000 atoms
  reading velocities ...
  18000 velocities
Finding 1-2 1-3 1-4 neighbors ...
  special bond factors lj:    0.0      0.0      0.0     
  special bond factors coul:  0.0      0.0      0.0     
     0 = max # of 1-2 neighbors
     0 = max # of 1-3 neighbors
     0 = max # of 1-4 neighbors
     1 = max # of special neighbors
  special bonds CPU = 0.005 seconds
  read_data CPU = 0.087 seconds
45 atoms in group sphere
2 atoms in group oxygen
2 atoms in group thorium
43 atoms in group 1
45 atoms in group cluster
6000 atoms in group Th
12000 atoms in group O
15 atoms in group Th_group
30 atoms in group O_group
WARNING: Ignoring 'compress yes' for molecular system (../delete_atoms.cpp:125)
Deleted 45 atoms, new total = 17955
45 atoms in group sphere
2 atoms in group oxygen
2 atoms in group thorium
43 atoms in group 1
45 atoms in group cluster
5985 atoms in group Th
11970 atoms in group O
15 atoms in group Th_group
30 atoms in group O_group
WARNING: Ignoring 'compress yes' for molecular system (../delete_atoms.cpp:125)
Deleted 45 atoms, new total = 17910
45 atoms in group sphere
2 atoms in group oxygen
2 atoms in group thorium
43 atoms in group 1
45 atoms in group cluster
5970 atoms in group Th
11940 atoms in group O
15 atoms in group Th_group
30 atoms in group O_group
WARNING: Ignoring 'compress yes' for molecular system (../delete_atoms.cpp:125)
Deleted 45 atoms, new total = 17865
45 atoms in group sphere
2 atoms in group oxygen
2 atoms in group thorium
43 atoms in group 1
45 atoms in group cluster
5955 atoms in group Th
11910 atoms in group O
15 atoms in group Th_group
30 atoms in group O_group
WARNING: Ignoring 'compress yes' for molecular system (../delete_atoms.cpp:125)
Deleted 45 atoms, new total = 17820
45 atoms in group sphere
2 atoms in group oxygen
2 atoms in group thorium
43 atoms in group 1
45 atoms in group cluster
5940 atoms in group Th
11880 atoms in group O
15 atoms in group Th_group
30 atoms in group O_group
WARNING: Ignoring 'compress yes' for molecular system (../delete_atoms.cpp:125)
Deleted 45 atoms, new total = 17775
45 atoms in group sphere
2 atoms in group oxygen
2 atoms in group thorium
43 atoms in group 1
45 atoms in group cluster
5925 atoms in group Th
11850 atoms in group O
15 atoms in group Th_group
30 atoms in group O_group
WARNING: Ignoring 'compress yes' for molecular system (../delete_atoms.cpp:125)
Deleted 45 atoms, new total = 17730
45 atoms in group sphere
2 atoms in group oxygen
2 atoms in group thorium
43 atoms in group 1
45 atoms in group cluster
5910 atoms in group Th
11820 atoms in group O
15 atoms in group Th_group
30 atoms in group O_group
WARNING: Ignoring 'compress yes' for molecular system (../delete_atoms.cpp:125)
Deleted 45 atoms, new total = 17685
45 atoms in group sphere
2 atoms in group oxygen
2 atoms in group thorium
43 atoms in group 1
45 atoms in group cluster
5895 atoms in group Th
11790 atoms in group O
15 atoms in group Th_group
30 atoms in group O_group
WARNING: Ignoring 'compress yes' for molecular system (../delete_atoms.cpp:125)
Deleted 45 atoms, new total = 17640
Setting atom values ...
  11760 settings made for charge
Setting atom values ...
  5880 settings made for charge
PPPM initialization ...
  using 12-bit tables for long-range coulomb (../kspace.cpp:328)
  G vector (1/distance) = 0.29912164
  grid = 40 240 40
  stencil order = 5
  estimated absolute RMS force accuracy = 0.00015376724
  estimated relative force accuracy = 1.0678544e-05
  using single precision MKL FFT
  3d grid and FFT values/proc = 18225 7600
Neighbor list info ...
  update every 1 steps, delay 0 steps, check yes
  max neighbors/atom: 2000, page size: 100000
  master list distance cutoff = 13
  ghost atom cutoff = 13
  binsize = 6.5, bins = 5 52 5
  2 neighbor lists, perpetual/occasional/extra = 2 0 0
  (1) pair coul/long, perpetual
      attributes: half, newton on
      pair build: half/bin/newton
      stencil: half/bin/3d/newton
      bin: standard
  (2) pair eam/alloy, perpetual, copy from (1)
      attributes: half, newton on
      pair build: copy
      stencil: none
      bin: none
Setting up cg style minimization ...
  Unit style    : metal
  Current step  : 0
WARNING: Energy due to 3 extra global DOFs will be included in minimizer energies
Per MPI rank memory allocation (min/avg/max) = 9.473 | 10.07 | 10.28 Mbytes
Step Temp E_pair E_mol TotEng Press Volume 
       0            0   -231649.26            0   -231649.26   -2378.1806    260641.98 
      77            0   -231787.04            0   -231787.04    46.687819    260516.57 
Loop time of 1.84458 on 52 procs for 77 steps with 17640 atoms

99.1% CPU use with 52 MPI tasks x 1 OpenMP threads

Minimization stats:
  Stopping criterion = linesearch alpha is zero
  Energy initial, next-to-last, final = 
     -231649.259920945   -231787.03716835   -231787.03716835
  Force two-norm initial, final = 723.86071 36.674680
  Force max component initial, final = 600.27320 22.062879
  Final line search alpha, max atom move = 6.6359974e-12 1.4640921e-10
  Iterations, force evaluations = 77 161

MPI task timing breakdown:
Section |  min time  |  avg time  |  max time  |%varavg| %total
---------------------------------------------------------------
Pair    | 0.99853    | 1.0762     | 1.1593     |   3.4 | 58.34
Bond    | 1.3312e-05 | 2.1392e-05 | 7.2379e-05 |   0.0 |  0.00
Kspace  | 0.31319    | 0.39604    | 0.47404    |   5.5 | 21.47
Neigh   | 0          | 0          | 0          |   0.0 |  0.00
Comm    | 0.034257   | 0.035609   | 0.036932   |   0.4 |  1.93
Output  | 0          | 0          | 0          |   0.0 |  0.00
Modify  | 0          | 0          | 0          |   0.0 |  0.00
Other   |            | 0.3367     |            |       | 18.26

Nlocal:        339.231 ave         404 max         289 min
Histogram: 4 6 7 7 7 8 2 8 2 1
Nghost:        5551.81 ave        5754 max        5399 min
Histogram: 2 7 10 10 6 3 6 1 3 4
Neighs:       107377.0 ave      130204 max       89925 min
Histogram: 7 6 3 7 6 9 4 5 4 1

Total # of neighbors = 5583600
Ave neighs/atom = 316.53061
Ave special neighs/atom = 0.0000000
Neighbor list builds = 0
Dangerous builds = 0
Resetting atom IDs ...
PPPM initialization ...
  using 12-bit tables for long-range coulomb (../kspace.cpp:328)
  G vector (1/distance) = 0.29913712
  grid = 40 240 40
  stencil order = 5
  estimated absolute RMS force accuracy = 0.00015361135
  estimated relative force accuracy = 1.0667718e-05
  using single precision MKL FFT
  3d grid and FFT values/proc = 18225 7600
Finding 1-2 1-3 1-4 neighbors ...
  special bond factors lj:    0.0      0.0      0.0     
  special bond factors coul:  0.0      0.0      0.0     
     0 = max # of 1-2 neighbors
     0 = max # of 1-3 neighbors
     0 = max # of 1-4 neighbors
     1 = max # of special neighbors
  special bonds CPU = 0.001 seconds
PPPM initialization ...
  using 12-bit tables for long-range coulomb (../kspace.cpp:328)
  G vector (1/distance) = 0.29913712
  grid = 40 240 40
  stencil order = 5
  estimated absolute RMS force accuracy = 0.00015361135
  estimated relative force accuracy = 1.0667718e-05
  using single precision MKL FFT
  3d grid and FFT values/proc = 18225 7600
Setting up Verlet run ...
  Unit style    : metal
  Current step  : 77
  Time step     : 0.001
Per MPI rank memory allocation (min/avg/max) = 9.111 | 9.135 | 9.150 Mbytes
Step Dt Time Atoms Temp PotEng KinEng Press Volume 
      77        0.001            0    17640         1500   -231787.04    3420.0295    14068.841    260516.57 
   10000        0.001        9.923    17640    1498.9942   -228132.26    3417.7364    1247.8483    272192.44 
   20000        0.001       19.923    17640    1512.8916    -228164.8    3449.4228   -277.42501    272365.98 
   30000        0.001       29.923    17640    1516.5975   -228166.19    3457.8722   -244.47725    272358.71 
   40000        0.001       39.923    17640     1501.387   -228132.32    3423.1918   -781.65473    272479.36 
   50000        0.001       49.923    17640    1514.0201   -228161.58    3451.9957    1737.9539    271997.25 
   60000        0.001       59.923    17640    1502.0826   -228136.75     3424.778   -325.16375    272558.89 
   70000        0.001       69.923    17640    1501.7443   -228076.86    3424.0067   -770.88529    272669.48 
   80000        0.001       79.923    17640    1500.7938   -228096.34    3421.8395   -3818.6325    273147.94 
   90000        0.001       89.923    17640    1496.3749   -228126.09    3411.7642    357.70204    272299.04 
  100000        0.001       99.923    17640    1506.4085   -228167.07     3434.641    812.42814    272119.59 
  100077        0.001          100    17640    1492.3685    -228123.3    3402.6295    1386.5644    272224.35 
Loop time of 862.711 on 52 procs for 100000 steps with 17640 atoms

Performance: 10.015 ns/day, 2.396 hours/ns, 115.914 timesteps/s
99.8% CPU use with 52 MPI tasks x 1 OpenMP threads

MPI task timing breakdown:
Section |  min time  |  avg time  |  max time  |%varavg| %total
---------------------------------------------------------------
Pair    | 507.29     | 524.91     | 544.69     |  31.8 | 60.84
Bond    | 0.0097947  | 0.013877   | 0.018359   |   1.7 |  0.00
Kspace  | 176.46     | 197        | 215.31     |  54.2 | 22.84
Neigh   | 8.9242     | 9.5044     | 10.206     |   9.5 |  1.10
Comm    | 24.124     | 25.249     | 26.132     |  10.0 |  2.93
Output  | 0.051789   | 0.051831   | 0.053727   |   0.1 |  0.01
Modify  | 92.894     | 98.044     | 102.16     |  22.9 | 11.36
Other   |            | 7.936      |            |       |  0.92

Nlocal:        339.231 ave         363 max         322 min
Histogram: 3 7 9 9 6 8 2 5 0 3
Nghost:        5416.25 ave        5535 max        5283 min
Histogram: 3 1 0 13 14 6 3 0 3 9
Neighs:       102690.0 ave      111805 max       94771 min
Histogram: 5 5 2 9 7 10 5 4 2 3

Total # of neighbors = 5339884
Ave neighs/atom = 302.71451
Ave special neighs/atom = 0.0000000
Neighbor list builds = 3367
Dangerous builds = 0
WARNING: Shell command 'mkdir' failed with error 'File exists' (../input.cpp:1197)
System init for write_data ...
PPPM initialization ...
  using 12-bit tables for long-range coulomb (../kspace.cpp:328)
  G vector (1/distance) = 0.29832923
  grid = 40 240 40
  stencil order = 5
  estimated absolute RMS force accuracy = 0.0001601191
  estimated relative force accuracy = 1.1119656e-05
  using single precision MKL FFT
  3d grid and FFT values/proc = 18225 7600
Total wall time: 0:14:25
