LAMMPS (29 Oct 2020)
OMP_NUM_THREADS environment is not set. Defaulting to 1 thread. (../comm.cpp:94)
  using 1 OpenMP thread(s) per MPI task
OMP_NUM_THREADS environment is not set. Defaulting to 1 thread. (../comm.cpp:94)
  using 1 OpenMP thread(s) per MPI task
Lattice spacing in x,y,z = 5.5788000 5.5788000 5.5788000
Created orthogonal box = (0.0000000 0.0000000 0.0000000) to (27.894000 334.72800 27.894000)
  2 by 13 by 2 MPI processor grid
Changing box ...
  triclinic box = (0.0000000 0.0000000 0.0000000) to (27.894000 334.72800 27.894000) with tilt (0.0000000 0.0000000 0.0000000)
Created 6000 atoms
  create_atoms CPU = 0.006 seconds
Lattice spacing in x,y,z = 5.5788000 5.5788000 5.5788000
Created 12000 atoms
  create_atoms CPU = 0.002 seconds
Lattice spacing in x,y,z = 5.5788000 5.5788000 5.5788000
Created 6000 atoms
  create_atoms CPU = 0.002 seconds
12000 atoms in group oxygen
6000 atoms in group uranium
3000 atoms in group octoxygen
3000 atoms in group octuran
Setting atom values ...
  30 settings made for type/ratio
Setting atom values ...
  15 settings made for type/ratio
Setting atom values ...
  2970 settings made for type/ratio
Setting atom values ...
  2985 settings made for type/ratio
30 atoms in group odel
15 atoms in group udel
2970 atoms in group octOdel
2985 atoms in group octUdel
WARNING: Ignoring 'compress yes' for molecular system (../delete_atoms.cpp:125)
Deleted 30 atoms, new total = 23970
WARNING: Ignoring 'compress yes' for molecular system (../delete_atoms.cpp:125)
Deleted 15 atoms, new total = 23955
WARNING: Ignoring 'compress yes' for molecular system (../delete_atoms.cpp:125)
Deleted 2970 atoms, new total = 20985
WARNING: Ignoring 'compress yes' for molecular system (../delete_atoms.cpp:125)
Deleted 2985 atoms, new total = 18000
12000 atoms in group 1
6000 atoms in group 2
Setting atom values ...
  12000 settings made for type
Setting atom values ...
  6000 settings made for type
Setting atom values ...
  12000 settings made for charge
Setting atom values ...
  6000 settings made for charge
PPPM initialization ...
  using 12-bit tables for long-range coulomb (../kspace.cpp:328)
  G vector (1/distance) = 0.29916851
  grid = 40 240 40
  stencil order = 5
  estimated absolute RMS force accuracy = 0.00015502622
  estimated relative force accuracy = 1.0765975e-05
  using single precision MKL FFT
  3d grid and FFT values/proc = 18225 7600
Neighbor list info ...
  update every 1 steps, delay 0 steps, check yes
  max neighbors/atom: 2000, page size: 100000
  master list distance cutoff = 13
  ghost atom cutoff = 13
  binsize = 6.5, bins = 5 52 5
  2 neighbor lists, perpetual/occasional/extra = 2 0 0
  (1) pair coul/long, perpetual
      attributes: half, newton on
      pair build: half/bin/newton/tri
      stencil: half/bin/3d/newton/tri
      bin: standard
  (2) pair eam/alloy, perpetual, copy from (1)
      attributes: half, newton on
      pair build: copy
      stencil: none
      bin: none
Setting up cg style minimization ...
  Unit style    : metal
  Current step  : 0
WARNING: Energy due to 3 extra global DOFs will be included in minimizer energies
Per MPI rank memory allocation (min/avg/max) = 10.44 | 10.47 | 10.49 Mbytes
Step Temp E_pair E_mol TotEng Press Volume 
       0            0   -234876.63            0   -234876.63    7945.6869    260443.57 
     183            0   -236179.05            0   -236179.05    63.749164    262391.09 
Loop time of 3.44372 on 52 procs for 183 steps with 18000 atoms

99.5% CPU use with 52 MPI tasks x 1 OpenMP threads

Minimization stats:
  Stopping criterion = linesearch alpha is zero
  Energy initial, next-to-last, final = 
     -234876.631450708  -236179.046650198  -236179.046650198
  Force two-norm initial, final = 2720.2903 44.470449
  Force max component initial, final = 1924.9946 31.206047
  Final line search alpha, max atom move = 4.1738634e-12 1.3024978e-10
  Iterations, force evaluations = 183 281

MPI task timing breakdown:
Section |  min time  |  avg time  |  max time  |%varavg| %total
---------------------------------------------------------------
Pair    | 1.8248     | 1.94       | 2.0645     |   3.5 | 56.33
Bond    | 2.1091e-05 | 3.492e-05  | 5.7345e-05 |   0.0 |  0.00
Kspace  | 0.57972    | 0.70532    | 0.82191    |   5.8 | 20.48
Neigh   | 0.0069376  | 0.0080836  | 0.0092861  |   0.6 |  0.23
Comm    | 0.066172   | 0.068018   | 0.070252   |   0.4 |  1.98
Output  | 0          | 0          | 0          |   0.0 |  0.00
Modify  | 0          | 0          | 0          |   0.0 |  0.00
Other   |            | 0.7223     |            |       | 20.97

Nlocal:        346.154 ave         392 max         299 min
Histogram: 4 1 5 7 14 5 2 4 6 4
Nghost:        5656.98 ave        5808 max        5520 min
Histogram: 7 8 5 0 3 9 8 3 1 8
Neighs:       111712.0 ave      127431 max       96661 min
Histogram: 4 0 8 7 15 2 2 6 5 3

Total # of neighbors = 5809007
Ave neighs/atom = 322.72261
Ave special neighs/atom = 0.0000000
Neighbor list builds = 2
Dangerous builds = 0
Resetting atom IDs ...
PPPM initialization ...
  using 12-bit tables for long-range coulomb (../kspace.cpp:328)
  G vector (1/distance) = 0.29905291
  grid = 40 240 40
  stencil order = 5
  estimated absolute RMS force accuracy = 0.00015585195
  estimated relative force accuracy = 1.0823319e-05
  using single precision MKL FFT
  3d grid and FFT values/proc = 18225 7600
Finding 1-2 1-3 1-4 neighbors ...
  special bond factors lj:    0.0      0.0      0.0     
  special bond factors coul:  0.0      0.0      0.0     
     0 = max # of 1-2 neighbors
     0 = max # of 1-3 neighbors
     0 = max # of 1-4 neighbors
     1 = max # of special neighbors
  special bonds CPU = 0.003 seconds
PPPM initialization ...
  using 12-bit tables for long-range coulomb (../kspace.cpp:328)
  G vector (1/distance) = 0.29905291
  grid = 40 240 40
  stencil order = 5
  estimated absolute RMS force accuracy = 0.00015585195
  estimated relative force accuracy = 1.0823319e-05
  using single precision MKL FFT
  3d grid and FFT values/proc = 18225 7600
Setting up Verlet run ...
  Unit style    : metal
  Current step  : 0
  Time step     : 0.001
Per MPI rank memory allocation (min/avg/max) = 10.59 | 10.62 | 10.64 Mbytes
Step Temp KinEng PotEng Press v_latt 
       0         1500      3489.83   -236179.05    14269.571    5.5926754 
   10000    1503.9552     3499.032   -232768.09   -1738.1717    5.6723088 
   20000    1499.3205    3488.2491   -232832.34    1084.4746    5.6678082 
   30000    1507.2614    3506.7239   -232883.68   -331.56783     5.668449 
   40000    1493.3322    3474.3169   -232871.91    55.185917    5.6685623 
   50000    1514.9596    3524.6344   -232866.76    2903.9061    5.6658284 
   60000    1505.2542    3502.0542   -232843.06    834.01348    5.6684332 
   70000    1510.8223    3515.0087   -232878.58    162.01672    5.6679927 
   80000    1494.3947    3476.7889   -232884.94   -1119.6354    5.6689957 
   90000    1501.6318    3493.6266   -232891.56    1667.5925    5.6657395 
  100000    1509.2221    3511.2857   -232851.94   -1895.0768    5.6708517 
  110000    1511.1145    3515.6884   -232815.19   -1056.3872    5.6707517 
  120000     1510.582    3514.4496   -232862.47    616.71837    5.6683416 
  130000    1514.9548    3524.6231    -232886.2      -233.59    5.6686204 
  140000    1484.1197    3452.8838   -232850.51   -110.98156    5.6693552 
  150000    1502.7633    3496.2591   -232874.27    1425.1175    5.6666371 
  160000    1487.5323    3460.8232   -232862.64    606.77986    5.6679425 
  170000    1485.7775    3456.7406   -232835.59    340.03203     5.668818 
  180000    1501.3137    3492.8864   -232825.86    -1826.834    5.6712179 
  190000    1513.1499     3520.424    -232894.3    589.37066     5.667879 
  200000    1500.2427    3490.3948   -232903.08      2527.49    5.6652221 
  210000    1492.0102    3471.2413   -232903.77     338.3344    5.6670241 
  220000    1511.3443    3516.2232    -232819.4    2705.7272    5.6665309 
  230000    1501.5257    3493.3796   -232880.42   -343.55166    5.6686203 
  240000    1506.8564    3505.7819   -232881.53   -1624.0648    5.6704366 
  250000    1496.9638    3482.7662   -232852.91   -1498.2832    5.6701989 
  260000    1487.0579    3459.7196   -232852.19    1812.4542    5.6664265 
  270000    1499.0972    3487.7297   -232905.23   -1095.9169    5.6690798 
  280000    1505.5935    3502.8436   -232874.11    7.7300251    5.6679581 
  290000    1506.0608    3503.9308   -232836.93     993.6147    5.6681503 
  300000    1491.1695    3469.2854   -232866.72    197.26829    5.6677378 
Loop time of 2869.96 on 52 procs for 300000 steps with 18000 atoms

Performance: 9.031 ns/day, 2.657 hours/ns, 104.531 timesteps/s
99.8% CPU use with 52 MPI tasks x 1 OpenMP threads

MPI task timing breakdown:
Section |  min time  |  avg time  |  max time  |%varavg| %total
---------------------------------------------------------------
Pair    | 1645.6     | 1673.9     | 1709.8     |  37.7 | 58.33
Bond    | 0.028982   | 0.042547   | 0.056796   |   2.9 |  0.00
Kspace  | 592.05     | 630.82     | 660.99     |  66.3 | 21.98
Neigh   | 39.206     | 40.635     | 43.265     |  17.7 |  1.42
Comm    | 81.738     | 84.983     | 87.789     |  16.1 |  2.96
Output  | 0.1636     | 0.16373    | 0.16876    |   0.2 |  0.01
Modify  | 342.67     | 367.06     | 431.77     |  81.5 | 12.79
Other   |            | 72.36      |            |       |  2.52

Nlocal:        346.154 ave         368 max         330 min
Histogram: 3 5 13 6 5 6 10 0 2 2
Nghost:        5467.98 ave        5604 max        5365 min
Histogram: 8 9 8 6 3 2 0 2 7 7
Neighs:       106340.0 ave      113675 max      101358 min
Histogram: 4 6 13 6 5 5 8 2 2 1

Total # of neighbors = 5529695
Ave neighs/atom = 307.20528
Ave special neighs/atom = 0.0000000
Neighbor list builds = 10099
Dangerous builds = 0
System init for write_data ...
PPPM initialization ...
  using 12-bit tables for long-range coulomb (../kspace.cpp:328)
  G vector (1/distance) = 0.29828778
  grid = 40 240 40
  stencil order = 5
  estimated absolute RMS force accuracy = 0.00016219822
  estimated relative force accuracy = 1.1264043e-05
  using single precision MKL FFT
  3d grid and FFT values/proc = 18225 7600
Total wall time: 0:47:53
