ITEM: TIMESTEP
100000
ITEM: NUMBER OF ATOMS
18000
ITEM: BOX BOUNDS pp pp pp
-5.2906782166490673e-01 2.7869067821665436e+01
-6.5576308077721270e+00 3.3463763080777034e+02
-5.5374900839065178e-01 2.7893749008390831e+01
ITEM: ATOMS id type x y z
3673 2 4.88189 -1.16192 5.08828
6 1 0.236016 -4.85821 0.930345
14 2 4.95432 -3.70703 2.23841
8 1 1.00575 -2.54479 3.93118
20 1 3.24716 -2.14662 0.843836
63 2 2.2492 -0.927269 2.34816
3604 2 2.19366 -3.86249 5.38054
12 1 3.5489 -2.36432 4.00675
17952 1 3.29321 -5.00744 1.03176
3548 1 0.536861 -5.38099 3.77923
17 1 0.570196 -1.93284 0.98179
10 1 3.7844 -4.94041 3.83971
5 2 2.30515 -6.42699 2.62444
19 1 6.2388 -2.40686 0.716666
3560 1 6.52872 -5.22681 3.70604
18 1 6.46055 -2.35459 3.62965
3551 1 6.30142 -5.13871 0.859715
64 2 2.22531 1.86645 -0.295057
3609 1 3.76137 -5.38952 6.87425
3617 1 6.46844 -5.17616 6.75206
3685 2 10.8052 -1.1202 5.66228
29 2 10.4779 -3.99144 2.17123
26 2 10.9188 -0.97572 2.48032
75 2 7.61761 -0.861083 2.1889
3616 2 7.73014 -3.85341 5.29445
14430 1 11.8992 -5.09761 0.706319
36 1 9.16877 -2.21099 3.97066
3570 1 9.37239 -5.08893 3.72253
3572 1 11.9406 -5.15691 3.66693
31 1 11.86 -2.33373 3.75363
81 1 8.98728 -5.05671 0.909202
30 1 11.9198 -2.25372 0.97056
93 1 9.23768 -2.31259 0.980875
23 1 9.61248 0.182018 0.809917
21 1 12.3091 0.141566 0.623513
3804 1 8.96237 14.6673 9.68018
22 1 9.92248 0.29078 3.71123
3628 2 13.5111 -3.94718 5.19918
244 2 2.04104 19.2548 -0.406231
9 1 3.71645 0.59081 1.34807
70 1 3.49314 0.278176 3.92003
66 1 0.526375 0.419521 3.95565
7 1 0.978972 0.644741 1.10582
65 1 0.595171 3.29143 0.780483
74 2 4.99178 1.97538 2.46945
69 1 3.46318 3.42583 0.942843
3664 2 2.21025 1.54081 5.16714
3733 2 4.70907 4.95592 5.20216
68 1 0.721361 3.22025 3.71574
123 2 2.19294 4.71305 2.07179
72 1 3.45479 3.22228 3.54259
126 1 0.554431 6.21863 3.64665
129 1 3.36791 6.3596 0.685657
78 1 6.14337 0.587873 4.10826
71 1 6.08531 3.32562 0.826325
67 1 0.382398 6.14687 0.959079
130 1 3.22404 6.20198 3.58474
80 1 5.96616 3.43757 3.92113
144 1 6.024 6.18853 1.25553
3729 1 3.48837 6.23617 6.53669
11 1 6.42967 0.397101 0.741017
3665 1 0.928529 0.61166 6.80679
3671 1 3.67415 3.21925 6.64584
138 1 6.27469 6.30025 3.87856
3679 1 6.57978 3.30436 6.54326
3808 2 13.254 13.3415 5.15951
24 1 12.5462 0.12074 3.51513
82 1 7.78653 1.70517 2.30973
77 1 9.06658 3.51399 0.515328
89 1 10.4434 4.59955 2.10085
86 2 10.318 2.22136 2.14752
3676 2 7.77687 1.62684 5.26428
3745 2 10.5743 4.70877 5.29344
135 2 7.88332 4.4933 2.58902
95 1 12.4578 2.90513 3.32182
14484 1 9.04214 3.14511 4.09502
32 1 11.8659 2.72011 0.516015
91 1 12.1476 6.07641 0.752863
139 1 12.0673 6.09109 3.98342
84 1 8.92835 6.14773 4.09547
92 1 11.8412 5.92897 6.93267
3868 2 13.376 19.124 5.11869
3689 1 12.1686 0.57918 6.62079
90 1 12.2689 3.17574 6.29262
3688 2 13.6771 1.73949 5.1091
3812 1 11.7337 14.7248 9.54445
7408 2 13.3861 13.5904 10.8398
3793 2 4.86302 10.5163 5.34037
125 1 0.872448 8.98279 1.03482
134 2 4.79222 7.55748 2.35968
128 1 0.559265 9.0007 3.83848
183 2 2.12828 10.5725 2.72435
3724 2 1.97032 7.76183 5.26973
131 1 3.49528 9.52878 1.19474
132 1 3.4626 9.00297 4.00861
186 1 0.598338 11.7425 3.82541
189 1 5.89053 12.0166 0.987924
190 1 3.42259 11.9859 4.05085
140 1 5.99444 9.25049 3.74069
198 1 6.36824 11.9269 3.92669
137 1 6.13026 8.84702 0.925662
3785 1 0.732174 12.1137 6.67129
127 1 3.27828 12.1374 1.11225
3797 1 6.20599 11.8622 6.61053
3731 1 3.4761 9.02832 6.84909
7395 2 7.85878 10.4924 13.6611
151 1 8.93221 6.34227 0.890372
197 1 7.76048 10.3873 -0.0310261
202 1 9.03533 9.17887 2.88151
14554 1 12.4821 11.1454 4.13479
3805 2 10.9811 10.3397 2.36734
150 1 9.4168 12.004 3.85414
146 2 10.3987 7.00914 2.61442
195 2 7.23579 10.5929 2.34899
3736 2 7.55212 7.49298 5.24004
3809 1 12.3916 12.0683 1.84674
210 1 9.81421 11.4827 1.04031
3795 2 10.454 10.4581 5.49346
141 1 11.2407 8.61469 4.19275
83 1 10.3872 8.53669 0.620224
3743 1 8.65745 9.25794 6.27846
153 1 12.9976 8.52347 1.81112
149 1 12.709 10.4183 -0.0867136
3748 2 13.3617 7.81864 5.17183
3801 1 9.17251 11.9306 6.64429
3814 1 11.9165 11.9085 6.81149
7411 1 11.8987 14.9494 12.5257
3870 1 11.6623 17.6754 9.47937
194 2 5.07637 13.5096 2.83195
3784 2 2.1903 13.5856 5.28456
245 1 0.532003 17.4996 1.15367
3853 2 4.86053 16.2617 5.40648
246 1 0.776737 17.5944 3.75072
254 2 4.93063 19.017 2.62726
188 1 0.684022 14.6214 3.73056
243 2 2.16155 16.2911 2.56653
250 1 3.43702 17.7371 4.05224
3844 2 2.08661 19.061 5.38983
191 1 3.68953 14.9898 0.89974
192 1 3.46445 14.8789 3.72115
249 1 3.26553 17.8913 1.28699
14662 1 6.43063 16.5665 1.01216
258 1 6.09091 17.6314 4.24238
200 1 6.20557 14.9076 3.92642
3857 1 6.34357 17.6529 6.80445
3791 1 3.56921 14.9845 6.69016
3849 1 3.54514 17.5579 6.90398
7465 2 10.2993 16.1143 11.2264
14592 1 1.02959 14.9214 0.817666
3845 1 0.64463 17.8786 6.9209
3787 1 0.778028 14.9091 6.64746
184 2 4.40068 13.1774 -0.394483
7396 2 7.49101 13.2884 11.1004
3866 2 10.5327 19.3619 8.32181
7456 2 7.79919 19.2981 11.305
267 2 13.2722 16.3321 2.15764
3806 2 10.3857 13.3033 8.1515
142 1 8.00833 13.4926 1.41135
3796 2 7.80572 13.4497 5.43091
199 1 7.7158 18.7807 2.16099
3856 2 7.80521 19.2036 5.43418
211 1 11.8863 14.7351 0.903162
3865 2 10.6363 16.4104 5.37543
269 1 12.0662 17.6293 1.10614
270 1 12.1684 17.5057 3.71986
206 2 10.2475 13.6509 2.23835
266 2 10.3661 18.9495 2.15107
212 1 11.3666 14.5551 3.85048
255 2 7.89266 16.4678 2.99107
262 1 9.25562 17.712 4.19442
203 1 9.5923 15.9819 1.67003
204 1 8.76504 14.8904 4.18256
3861 1 9.07509 17.9791 6.8363
3803 1 9.32041 14.856 6.78416
3869 1 11.912 17.7855 6.58656
7468 2 13.6621 18.9174 10.8115
193 2 4.9738 10.2223 -0.433935
3619 1 6.51169 -2.22218 6.59795
3611 1 3.74568 -2.58263 6.83176
7461 1 9.1747 17.9348 12.7612
259 2 7.69163 19.5658 -0.303078
3607 1 0.985832 -2.48349 6.82518
3605 1 1.03228 -5.26348 6.41493
7273 2 5.06272 -0.952638 10.8136
7205 1 0.692706 -5.14035 12.206
3606 1 0.792412 -2.37409 9.60788
7207 1 0.915785 -2.14744 12.3427
3614 2 5.19298 -3.83564 8.24625
7209 1 3.5092 -4.92775 12.4593
3663 2 2.2035 -1.08675 8.08443
3610 1 3.66438 -5.15523 9.84339
7204 2 2.14522 -3.69569 10.9975
7211 1 3.9396 -2.18166 12.1957
3612 1 3.86549 -2.3716 9.49433
7148 1 0.565502 -5.35652 9.27396
7217 1 6.41087 -5.24125 12.48
3618 1 6.73774 -5.1583 9.75554
3620 1 6.44329 -2.341 9.48941
7219 1 6.5049 -2.41179 12.6172
7469 1 11.9171 17.9279 12.4774
3564 1 9.22359 -5.36399 6.46657
3621 1 12.1245 -5.54213 6.8809
3623 1 9.22779 -2.76682 6.8147
3687 2 13.591 -0.769992 8.17058
3631 1 12.04 -2.51521 6.95007
7174 1 12.4002 -5.34239 9.70156
7285 2 10.6868 -1.0645 10.8999
7229 1 11.9614 -5.21556 12.4925
7231 1 11.9855 -2.35384 12.342
3626 2 10.97 -3.86554 8.23441
3632 1 12.2809 -2.45239 9.58388
7221 1 9.18332 -5.16613 12.4294
3675 2 7.89275 -1.15533 7.96609
3622 1 9.67529 -5.46781 9.37149
7216 2 7.82309 -3.65535 10.9075
7223 1 9.11594 -2.13976 12.2813
3624 1 9.44219 -2.74125 9.60224
7228 2 13.6499 -3.6886 11.0895
253 2 4.5961 16.513 -0.515553
145 2 10.6543 4.75021 -0.545315
3862 1 8.92497 17.5257 9.77388
3667 1 0.761466 3.5742 6.56726
3725 1 0.763762 6.52589 6.60578
3737 1 6.26315 6.12062 6.79045
3669 1 3.72851 0.175755 6.49346
3677 1 6.65753 0.260723 6.72311
3670 1 3.59164 0.54459 9.18416
3608 1 0.937571 0.370231 9.41327
7272 1 3.41354 3.66055 12.2413
7265 1 0.737134 0.553669 12.381
3666 1 0.916717 3.34493 9.53861
3674 2 5.09992 1.79352 7.87542
7269 1 3.47989 0.712396 12.0201
7264 2 2.20599 1.93792 10.7841
7333 2 5.00084 4.79916 10.8372
3723 2 2.0418 4.78916 7.96066
7271 1 0.491911 3.30598 12.2533
3672 1 3.75413 3.33005 9.74195
7267 1 0.654161 6.20158 9.3448
3730 1 3.52981 6.26397 9.31302
7329 1 3.34026 6.45146 12.2391
7325 1 0.569754 6.16418 12.2174
3738 1 6.32157 6.38128 9.59564
7337 1 6.18042 6.12175 12.3353
3678 1 6.5242 0.675161 9.30638
7277 1 6.36568 0.399404 12.2387
7279 1 6.24861 3.20977 12.2649
3680 1 6.5998 3.43697 9.45251
147 2 13.3487 4.6853 2.4318
3681 1 9.59437 0.376747 6.52
3683 1 9.25884 6.3573 6.72652
3747 2 13.5166 4.63456 7.94409
3691 1 9.28504 3.39427 6.61453
7288 2 13.5872 1.98805 10.8891
7289 1 12.1542 0.521387 12.2504
3690 1 12.2388 0.253387 9.4548
3686 2 10.6178 1.84026 8.07447
7281 1 9.21793 0.403428 12.0584
3682 1 9.34001 0.0839026 9.32272
7276 2 7.8918 1.78334 10.7235
3684 1 9.3868 3.2426 9.59387
7283 1 9.15224 3.18382 12.2312
3735 2 7.99445 4.6213 8.01149
7345 2 10.5157 4.9668 11.1532
7291 1 11.9969 3.17819 12.1976
3692 1 12.1759 3.18622 9.17221
7341 1 8.89593 6.41951 12.3964
3742 1 9.16482 5.97691 9.48298
3753 1 11.8722 5.97093 9.61063
7334 2 4.97507 7.55995 13.4733
3739 1 6.1863 9.17504 6.26803
3727 1 0.581844 9.29352 6.62139
3789 1 3.37349 11.8219 6.6205
7393 2 4.86664 10.5219 11.0165
3726 1 0.783874 8.989 9.23688
7327 1 0.55404 9.0071 12.2396
3734 2 4.81913 7.44116 8.02291
3728 1 0.730497 11.9632 9.35042
3783 2 2.19192 10.3713 8.06048
7324 2 1.91023 7.60382 10.9839
7331 1 3.39803 9.09583 12.2899
3732 1 3.53756 9.20052 9.6098
7389 1 3.5942 11.8556 12.5198
7385 1 0.799161 12.0258 12.3109
3790 1 3.66006 12.2523 9.70668
7397 1 6.1787 11.924 12.2936
3740 1 6.13252 8.9582 9.27698
3800 1 6.11969 11.7268 9.3359
7339 1 6.56497 9.04169 12.2518
14664 1 9.44712 18.0037 0.11332
3741 1 11.8995 8.98147 6.77302
3749 1 11.7902 6.31924 12.3116
7348 2 13.2651 7.46406 11.03
3750 1 12.2732 9.14607 12.0888
7351 1 11.6234 8.8487 9.50581
3744 1 8.80487 8.87148 9.32559
7343 1 9.37757 8.96417 12.3124
7336 2 7.61267 7.8099 10.8787
7405 2 10.6302 10.6496 11.0591
3746 2 10.5171 7.42344 8.30217
3798 2 7.4729 10.476 7.91774
3802 1 9.01323 11.5444 9.27724
7409 1 9.0486 12.0206 12.0839
7410 1 11.668 11.9716 12.5863
3810 1 12.0194 11.9236 9.69379
7213 2 5.09422 -6.48415 10.9301
3807 2 13.4132 10.5061 8.32135
7286 2 10.6674 1.77633 13.542
237 1 0.618173 11.963 1.09103
3799 1 6.54206 14.733 6.92902
7335 2 7.67036 4.78694 13.5992
201 1 6.04607 14.6776 -0.447111
7459 1 6.24192 17.4056 9.65619
7457 1 6.25045 17.5396 12.28
7384 2 2.23717 13.2683 11.144
3794 2 4.864 13.4548 8.15452
7444 2 2.10627 19.144 10.9338
3854 2 5.05667 19.0786 8.03758
7449 1 3.49485 17.9505 12.3488
3788 1 0.652463 17.873 9.52701
3786 1 0.890397 14.7466 9.52758
7445 1 0.754513 17.7704 12.3113
7453 2 4.80442 16.2936 10.8722
3850 1 3.452 17.8585 9.63483
3843 2 1.97542 16.361 8.23004
3792 1 3.50285 15.1691 9.44093
7387 1 0.781148 14.7638 12.3727
7391 1 3.72634 14.9008 12.1653
7399 1 6.4339 14.9773 12.4739
3858 1 6.21234 14.8283 9.77013
3867 2 13.0543 16.254 8.39467
7403 1 9.08095 14.8123 12.6543
3855 2 7.6562 16.3363 8.42135
3811 1 12.161 14.6813 6.78109
208 2 13.0594 13.0799 -0.350197
148 2 12.784 7.80781 -0.313321
3662 2 -0.407039 2.14571 7.81064
7274 2 4.85305 2.01168 13.5095
4 2 1.86876 -3.81912 -0.485003
7312 2 -0.502042 -0.811129 10.8342
28 2 13.3713 -3.63301 -0.513447
256 2 7.90262 16.1744 -0.412508
10873 2 4.85174 -0.661449 16.6375
10805 1 0.457613 -5.31365 18.2831
7206 1 0.835896 -5.03678 15.0762
10807 1 0.74897 -2.36939 17.8153
10814 2 5.0151 -3.81024 19.374
7208 1 0.852223 -2.21736 14.846
10809 1 3.43567 -5.20473 18.0357
10863 2 1.95815 -1.00313 19.2366
7210 1 3.9199 -4.98072 15.3026
10804 2 2.39352 -3.73255 16.5545
10811 1 3.64766 -2.35655 18.172
7212 1 3.53065 -2.08791 15.091
10817 1 6.68068 -5.41638 18.0107
10808 1 0.959428 -2.50975 20.6367
10819 1 6.52085 -2.40449 18.1198
7220 1 6.42836 -2.15028 15.2588
7218 1 6.62128 -5.31383 15.2064
7443 2 2.14037 16.0543 13.7055
10806 1 0.857892 -5.34287 20.9759
14600 1 7.70107 13.9802 25.8697
73 2 5.015 -0.947188 27.8128
10885 2 10.5138 -0.785099 16.6481
10829 1 12.0898 -5.39503 17.9792
7230 1 12.2684 -5.20302 15.4206
10831 1 11.9906 -2.30207 18.06
10826 2 10.4483 -3.69773 19.4911
7232 1 12.2849 -2.32451 15.224
10821 1 9.35139 -5.04818 18.0471
10875 2 7.73316 -0.758014 19.2015
7222 1 9.50462 -5.10123 15.1941
10816 2 7.9423 -3.82487 16.6904
10823 1 9.31228 -2.16706 18.0505
7224 1 9.42084 -2.31197 15.1804
10825 2 10.692 -6.478 16.5809
10828 2 13.4998 -3.75147 16.7849
14661 1 9.43028 17.9659 23.4749
10832 1 11.7774 -2.34816 20.7927
7203 2 2.23363 -6.3732 13.9172
7467 2 13.3124 16.3871 13.7113
11008 2 13.3386 13.422 16.5322
10887 2 13.4484 -1.02052 19.1774
10865 1 0.627529 0.638399 17.9209
7266 1 0.652947 0.510722 15.0746
7270 1 3.50048 0.54001 15.1565
10869 1 3.23241 0.514994 17.9295
10874 2 4.58305 2.11366 19.2995
10864 2 2.02783 2.0432 16.3301
10933 2 5.00921 4.88297 16.4579
10867 1 0.83875 3.33881 18.0648
7268 1 0.618334 3.29224 15.0414
10923 2 2.21213 5.03143 19.2585
10871 1 3.40936 3.57578 17.6385
7330 1 3.56095 3.43997 14.9874
10925 1 0.716895 6.1872 18.0044
7326 1 0.95006 6.14057 15.0641
10937 1 3.39207 6.53547 17.9835
10929 1 3.58018 6.32458 15.0741
7280 1 6.30297 3.18125 14.9128
7342 1 6.46029 6.06749 15.0312
10926 1 0.570934 6.10366 20.8059
10877 1 6.25158 0.763702 18.1073
7278 1 6.21487 0.522988 15.1774
7338 1 6.02441 6.37222 17.8102
7442 2 -0.536133 19.2191 13.91
10866 1 0.631369 0.211393 20.5869
10870 1 3.49007 0.663091 20.9705
10868 1 0.648079 3.24002 21.0139
10880 1 6.10096 3.30939 20.774
10879 1 6.30781 3.5874 17.7836
10947 2 13.3551 4.89583 19.1545
7290 1 11.7484 0.295012 14.8142
10889 1 12.2681 0.0819143 17.6218
10886 2 10.4493 1.97339 19.4762
10881 1 9.19755 0.606473 17.8719
7282 1 8.90258 0.364432 15.2616
10876 2 7.62027 2.03204 16.452
10945 2 10.5133 4.60196 16.3202
10891 1 12.2829 2.96755 18.2388
7292 1 11.5217 2.80541 15.5622
10935 2 7.60185 4.99882 19.1584
10883 1 9.27584 3.36948 17.6563
7284 1 8.80534 3.44859 15.0989
10949 1 11.859 6.11909 18.1513
10941 1 8.96526 6.28156 17.7352
7350 1 9.29804 6.42866 15.0636
7352 1 12.1052 6.27622 15.3551
10888 2 13.4059 1.87577 16.5691
10882 1 9.05257 0.76139 20.5856
10942 1 9.03375 6.40347 20.6566
14428 2 13.4182 -3.80574 22.148
10993 2 4.81647 10.7214 16.547
10927 1 0.804248 9.2575 17.8614
10934 2 4.81268 7.82776 19.2765
7328 1 0.552255 9.16846 14.9182
10983 2 2.01005 10.3496 19.2648
10924 2 1.99267 7.99613 16.44
10931 1 3.3977 9.26237 17.9704
7332 1 3.48392 9.37901 15.1158
10985 1 0.653703 12.101 17.9263
7386 1 0.725239 11.9861 15.321
10989 1 3.44611 11.9063 18.0432
7390 1 3.65195 12.1906 15.4211
10986 1 0.454553 11.8483 20.5214
10990 1 3.2931 11.9972 20.7573
7340 1 6.21871 9.06144 15.214
7398 1 6.52426 12.1523 15.1077
10932 1 3.5186 9.02266 20.8136
10928 1 0.494469 8.76725 20.6212
10939 1 6.16341 9.34979 17.938
10998 1 6.19164 12.231 20.7794
10997 1 6.31756 12.1225 17.845
185 2 1.26879 13.3236 27.734
7349 1 12.3479 8.93 14.9654
11005 2 10.2925 10.633 16.4857
10951 1 11.8084 9.18545 17.8262
10946 2 10.3745 7.76529 19.3997
10995 2 7.57319 10.6373 19.1921
10936 2 7.81965 7.69953 16.2253
10943 1 8.96555 9.10833 18.0474
7344 1 9.21159 9.14364 15.0118
11009 1 11.7273 11.894 17.977
11001 1 9.16828 11.8434 17.7961
7402 1 11.9307 11.9084 15.2652
7401 1 9.23849 12.0779 14.8957
11010 1 11.7867 12.0371 21.1021
10948 2 13.2043 7.7136 16.763
11002 1 8.95247 12.0706 20.5168
11007 2 13.4544 10.6374 19.3607
10944 1 8.98427 9.1033 20.618
14604 1 7.98475 18 26.4813
10984 2 2.15569 13.4336 16.7062
10994 2 4.72778 13.4459 19.4985
11044 2 2.07914 19.0522 16.5026
11053 2 4.78397 16.458 16.7842
11045 1 0.549275 17.534 17.9888
7446 1 0.655664 17.5641 15.1171
10987 1 0.557783 14.8215 17.9893
11054 2 4.76776 19.2238 19.5429
7388 1 0.309706 14.7933 15.17
11049 1 3.24377 17.7443 18.1775
11043 2 1.761 16.298 19.5139
7450 1 3.60451 17.607 15.11
10991 1 3.45157 14.8957 17.7997
7392 1 3.25719 14.6133 14.9834
11046 1 0.628536 17.812 20.7685
11057 1 6.29356 17.9694 17.97
11050 1 3.43703 17.7827 20.8614
11000 1 6.2595 14.8286 20.6481
10999 1 6.18197 15.0176 17.9439
7458 1 6.36428 17.773 15.1356
11058 1 6.12051 17.9296 20.8444
7400 1 6.2133 14.9406 15.238
10988 1 0.290318 14.8988 20.7247
11068 2 13.3361 19.2224 16.5534
10996 2 7.65251 13.5226 16.342
11062 1 8.8676 17.9162 20.8893
11006 2 10.4408 13.3708 19.3852
11065 2 10.5692 16.2618 16.8422
11069 1 12.2732 17.7726 17.9521
7470 1 12.1656 17.8537 15.1299
11011 1 12.0425 14.778 18.0354
11066 2 10.4786 19.3868 19.6356
7412 1 11.9486 14.9082 15.2893
11061 1 9.10483 17.6491 18.4792
11055 2 7.70952 16.337 19.4988
7462 1 9.37115 17.9045 15.5715
11003 1 9.02881 14.7196 18.0712
7404 1 9.16241 15.1482 15.3583
11056 2 7.61473 19.2833 16.7342
11004 1 9.11702 14.9338 20.781
11012 1 11.8827 15.0324 21.0966
7275 2 7.7174 -0.814927 13.8062
11067 2 13.2244 16.2646 19.5093
11070 1 11.7516 18.1161 20.6969
10810 1 3.55708 -5.17067 20.665
10818 1 6.32909 -5.66857 20.7091
10820 1 6.51898 -2.62121 20.609
14488 2 13.1748 2.05936 22.3138
10812 1 3.5746 -2.28887 20.9228
17960 1 3.27502 -5.13382 26.5825
17948 1 0.471623 -2.37657 26.4395
18000 1 0.703484 -5.37616 26.6243
14473 2 4.75365 -0.832862 22.2279
14407 1 0.389905 -2.38892 23.7866
14414 2 4.71667 -3.84962 25.0224
14409 1 3.48001 -5.38565 23.6372
14463 2 1.92974 -0.981573 25.1522
14410 1 0.764863 -4.96961 23.7276
14404 2 2.0899 -3.7066 22.049
14411 1 3.17016 -2.47085 23.6356
14412 1 3.69701 -2.42805 26.5192
14417 1 6.34105 -5.26129 23.3785
14419 1 5.86328 -2.21141 23.4724
14418 1 6.26164 -5.04308 26.3747
7263 2 2.07223 -0.729431 13.6831
79 2 7.72623 2.2142 27.858
10824 1 9.15375 -2.14014 20.8325
7346 2 10.7839 7.79258 13.8384
14420 1 6.33427 -1.90346 26.1424
10822 1 9.09487 -5.30952 20.873
10830 1 11.9843 -5.2078 20.7464
14434 1 11.9785 -5.12968 26.4614
14485 2 10.4977 -0.925476 22.214
14429 1 11.8682 -5.2123 23.4877
14431 1 11.7795 -2.15939 23.7716
14426 2 10.3958 -3.72514 25.0346
14432 1 12.0824 -2.25585 26.4942
14421 1 9.01034 -5.25864 23.4722
14475 2 7.80111 -0.899801 24.9181
14422 1 9.26936 -5.16078 26.4634
14416 2 7.7195 -3.80025 22.0804
14423 1 9.13566 -2.34835 23.7697
14424 1 9.14265 -2.36538 26.6152
85 2 10.6127 -0.935143 27.749
10803 2 2.10522 -6.57073 19.4653
14670 1 12.144 17.7873 26.3665
265 2 11.1242 16.2124 27.8326
10930 1 3.52167 6.27181 20.8395
10872 1 3.41151 3.45954 20.7567
10938 1 6.36728 6.33654 20.6646
10878 1 6.41353 0.240651 20.8004
14408 1 0.366743 0.606784 26.7704
14469 1 3.34892 0.377244 23.9824
14465 1 0.623896 0.389296 23.5343
14466 1 0.73044 3.34975 26.5371
14474 2 4.88163 2.08158 25.166
14470 1 3.31329 0.34794 26.8632
14464 2 2.01619 1.79935 22.2147
14533 2 4.82285 4.86416 22.1478
14467 1 0.586525 3.17574 23.9552
14523 2 2.10898 4.60169 25.1242
14530 1 3.54532 5.9781 26.2552
14471 1 3.38602 3.24581 23.6783
14472 1 3.50533 3.03116 26.4277
14525 1 0.950191 6.10971 23.8025
14529 1 3.70861 6.08461 23.6392
14468 1 0.82032 5.91247 26.3631
14538 1 6.31254 6.24216 26.5853
14479 1 6.13766 3.67809 23.5449
14478 1 6.34493 1.01667 26.4513
14480 1 6.44075 3.55943 26.4269
14477 1 6.10573 0.62534 23.7091
14537 1 6.48447 6.40144 23.6354
14667 2 13.3893 16.3762 24.9782
124 2 1.71411 7.91568 27.8873
10884 1 9.04076 3.59752 20.4884
14547 2 13.4097 4.92577 25.0623
10950 1 11.9931 6.28098 20.7666
14487 2 13.5116 -0.802786 24.9772
7466 2 10.6091 19.0575 13.928
10892 1 11.9641 3.61005 20.7437
10890 1 12.0023 0.472174 21.0095
14481 1 9.15419 0.453883 23.4573
14489 1 11.8712 0.617575 23.5481
14490 1 12.0127 0.618712 26.3125
14482 1 9.07476 0.805345 26.4318
14476 2 7.55399 2.05408 22.0631
76 2 10.46 1.84703 25.023
14486 1 9.28439 3.66273 26.184
14483 1 8.85983 3.49007 23.4013
14535 2 7.83808 4.95604 25.0126
14545 2 10.4786 4.95935 22.0689
14491 1 11.744 3.23599 23.5217
14492 1 12.203 3.5782 26.4336
14541 1 9.23388 6.18158 23.3883
14549 1 12.1566 5.92388 23.5836
14542 1 9.29456 6.19619 26.2871
10940 1 6.12517 9.25693 20.7097
14580 1 0.810391 10.6645 26.8915
88 2 13.4553 1.96751 27.9017
175 1 0.522575 8.99854 24.8261
14590 1 3.22828 11.8425 26.8088
14593 2 4.93622 10.4723 22.2087
14527 1 1.13465 10.5642 22.9231
14534 2 4.91318 7.66262 24.9998
14583 2 2.25647 10.5257 24.9977
14524 2 2.23856 7.64168 22.4647
14531 1 3.56754 8.95831 23.7116
14532 1 3.37405 8.84493 26.5578
14589 1 3.40519 12.0786 23.6026
14586 1 1.03781 12.795 24.9481
14540 1 6.28463 9.07758 26.4997
14539 1 6.32166 9.07798 23.5456
14598 1 5.99634 11.9632 26.5877
7454 2 5.0239 18.9975 13.8193
10952 1 11.7575 9.18397 20.7772
14550 1 12.1632 6.19929 26.5259
14597 1 6.2942 11.9193 23.482
7406 2 10.74 13.578 13.8734
14607 2 13.3966 11.1008 25.0873
14548 2 13.4 7.53453 22.2052
205 2 10.4456 10.3867 27.4881
14544 1 9.2916 8.78335 26.2121
14601 1 8.99632 11.941 23.4128
14602 1 9.17641 11.7596 26.2276
14610 1 11.5937 12.0312 26.2595
14609 1 11.9118 11.8958 23.7348
14543 1 9.29432 9.10026 23.4557
14536 2 7.71995 7.6803 22.1545
14595 2 7.66944 10.7515 24.796
14605 2 10.5779 10.4808 22.2203
14551 1 11.9064 8.79583 23.2538
14546 2 10.7504 7.49182 24.8471
14552 1 11.9224 9.19996 25.9941
10992 1 3.30211 14.8766 20.5262
14655 2 7.86477 16.2231 24.7844
7383 2 2.17318 10.5167 13.7432
14584 2 1.65471 12.939 22.2026
14599 1 6.301 14.9791 23.3567
14658 1 5.50822 16.3065 25.8498
14657 1 6.5218 17.8182 23.5793
14588 1 0.386134 15.3523 26.4508
14650 1 3.069 17.5571 26.6306
14653 2 4.8295 16.331 22.0597
14594 2 4.85568 13.6401 24.6631
14643 2 1.83806 16.6192 24.9201
14644 2 2.01668 19.2052 22.424
14591 1 3.4797 15.0813 23.4498
14587 1 0.582283 15.1941 23.5361
14649 1 3.72773 17.9357 23.4424
14646 1 0.390935 18.0316 26.7505
14654 2 4.99292 19.069 25.1972
14645 1 0.439755 17.9163 23.5449
14606 1 3.41772 14.5859 26.7229
14668 2 13.4991 19.2268 22.278
268 2 13.4156 19.2027 27.9103
7323 2 2.08202 4.94796 13.6857
14521 2 -0.451367 4.62911 22.3941
14665 2 10.4056 16.413 22.4085
261 1 9.92159 16.1 25.851
14611 1 12.0043 15.0163 23.7502
14666 2 10.7291 19.2286 25.1255
14612 1 12.4665 14.778 26.8055
14603 1 9.0505 14.8251 23.5807
14608 2 13.4998 13.4556 22.2123
7287 2 13.3852 -0.81586 13.7529
209 2 10.1922 13.6387 25.1898
14596 2 7.78323 13.3424 21.9335
14656 2 7.91726 19.3499 22.2694
14669 1 12.1734 17.8545 23.6997
7394 2 5.15128 13.5563 13.7289
7214 2 5.04585 -3.58253 13.8399
7455 2 7.70304 16.3965 13.791
16 2 7.74222 -3.53351 27.7913
7407 2 13.5111 10.4156 13.7154
7226 2 10.7648 -3.64532 13.9153
196 2 7.87671 12.6259 27.8797
136 2 7.77852 7.73737 27.8484
143 1 9.51375 14.4106 27.8341
133 2 4.94098 4.60688 27.8307
257 1 5.46939 18.6444 27.7851
3913 2 4.98319 21.9935 5.31268
314 2 4.88831 24.6113 2.44654
248 1 0.66828 20.4588 4.02612
309 1 3.22828 23.4543 1.27887
303 2 2.18411 21.8931 2.43999
310 1 3.54557 23.2562 3.94105
3904 2 2.45462 24.7224 5.32199
299 1 0.688627 23.3398 3.59143
305 1 0.361733 23.4964 0.754082
252 1 3.43794 20.3558 3.75188
251 1 3.59269 20.5588 0.971443
247 1 0.91045 20.5607 1.16013
3905 1 0.709428 23.4153 6.72225
3864 1 6.32245 20.6308 6.94183
3859 1 6.34781 20.6335 4.18439
260 1 6.33791 20.8335 0.854718
3851 1 3.51884 20.5878 6.50481
3907 1 0.818551 26.0787 6.16114
317 1 6.05807 23.5868 0.851944
3917 1 6.30016 23.5111 6.62509
3909 1 3.68051 23.3602 6.5413
318 1 6.23049 23.4806 3.78015
312 1 3.33181 26.3582 4.10441
3925 2 10.5365 21.8606 5.22173
329 1 11.9124 23.6154 0.883129
330 1 11.8028 23.0948 3.63118
271 1 12.0829 20.5557 0.947997
326 2 10.5329 24.7691 2.45136
321 1 8.84009 23.6061 1.09858
315 2 7.66479 21.7994 2.58445
322 1 8.7872 23.1743 4.0372
3916 2 7.72741 24.8927 5.07352
264 1 9.04366 20.5507 3.85371
272 1 11.7177 20.2898 3.7672
263 1 9.10209 20.9622 0.974083
3863 1 9.17717 20.7071 6.76222
3929 1 11.8967 23.337 6.70747
3921 1 9.11661 23.352 6.71432
3928 2 13.6151 24.7817 5.23927
332 1 11.7524 26.1032 3.70093
324 1 9.16148 26.0337 3.73757
327 2 13.2051 21.8662 2.25364
7711 1 12.3092 42.8344 12.1512
7597 2 13.4419 25.027 10.9836
3911 1 3.75957 26.1007 6.81434
308 1 0.383443 26.474 0.636638
3965 1 0.441704 26.3151 3.50508
307 1 3.06205 26.6432 1.05679
3973 2 5.14284 27.8569 5.34379
363 2 1.72743 27.7165 2.80799
426 1 0.648687 31.7556 3.30097
367 1 0.173224 31.6193 0.44723
374 2 4.8273 30.3823 2.2434
368 1 0.507832 29.2549 3.95518
370 1 3.62188 29.0553 3.78637
3964 2 2.30461 30.6542 5.2049
371 1 3.55114 31.9014 1.03027
372 1 3.61195 32.0317 3.94119
366 1 1.28807 28.9687 0.997364
311 1 3.70518 29.279 0.396983
380 1 6.36201 32.3703 3.824
3968 1 0.625079 31.8803 6.23445
3971 1 3.48977 31.9076 6.78836
3967 1 1.13789 29.0831 6.69347
3969 1 3.83296 29.167 6.87565
378 1 6.20364 29.0623 3.86491
14770 1 6.51227 31.7505 1.06471
306 1 6.45072 28.7747 0.965324
319 1 6.00389 26.3035 0.880661
3919 1 6.70404 26.2504 6.58862
320 1 6.36234 26.2073 3.75036
331 1 11.8343 26.2918 1.06332
323 1 9.13301 26.3137 0.953714
379 1 9.39439 32.0221 1.00111
3985 2 10.5842 27.6291 5.32929
375 2 7.62729 27.589 2.25856
390 1 11.8407 28.9609 0.924261
386 2 10.7652 30.6811 2.54901
392 1 11.5635 31.9109 4.12167
382 1 9.12915 28.9619 3.85017
3976 2 7.94136 30.5209 5.17054
384 1 8.84667 31.7961 3.6604
395 1 11.9124 29.0352 3.85559
377 1 9.04994 29.2138 0.996948
3983 1 9.0821 32.2051 6.56799
3989 1 12.1561 29.2185 6.96384
14796 1 12.2258 32.2073 0.85659
4110 1 12.2183 40.8583 9.36708
387 2 13.2496 27.6917 2.52577
3991 1 11.9819 32.0124 6.84813
557 1 6.26187 45.9869 0.933278
4033 2 4.93525 33.4866 5.15496
425 1 0.712606 34.6297 0.940057
434 2 4.91066 36.1618 2.40254
429 1 3.55102 34.7755 0.884236
423 2 2.08671 33.5529 2.35001
430 1 3.47441 34.692 3.94071
4024 2 1.86905 36.1662 5.33969
428 1 0.591106 34.6926 3.84509
486 1 0.619871 37.415 3.62855
427 1 0.749827 37.6665 0.718157
431 1 3.6613 37.7433 0.627753
432 1 3.48179 37.6315 3.72738
483 2 2.07454 39.0637 2.34884
4093 2 4.88423 38.9865 5.19826
4025 1 0.39916 34.7465 6.55846
4037 1 6.44583 34.9747 6.42343
4031 1 3.22947 37.7348 6.62634
4039 1 6.36731 37.7114 6.39166
440 1 6.38559 37.3693 3.80629
438 1 6.4251 34.826 3.77971
4027 1 0.471257 37.7279 6.52169
439 1 6.34072 37.5741 1.13338
437 1 6.54598 34.5205 0.607156
4029 1 3.28749 34.9364 6.67857
507 2 13.3917 39.0399 2.31119
4048 2 13.4449 36.0937 5.20444
509 1 12.178 37.744 1.0048
4045 2 10.401 33.4841 5.43984
450 1 12.0285 34.6237 3.88484
446 2 10.7607 36.2652 2.2526
441 1 8.94493 34.8465 1.00321
435 2 7.72036 33.4639 2.39887
442 1 9.3571 34.9181 3.59274
4036 2 7.77533 36.2463 4.95607
452 1 12.1821 37.4318 3.81368
443 1 9.20916 37.6068 0.858754
444 1 9.14323 37.8564 3.76368
4105 2 10.6195 39.0684 4.99867
495 2 7.79491 38.9082 2.30154
451 1 12.0765 34.9587 0.657501
4041 1 9.30271 35.1956 6.53301
4049 1 12.0074 34.9626 6.68791
4043 1 9.54378 37.7619 6.47351
4155 2 7.55184 44.9983 8.01316
4051 1 12.0889 37.6565 6.42781
4108 2 13.2473 41.8528 5.04203
490 1 3.50522 40.393 3.86025
4153 2 4.78719 44.958 5.13382
485 1 0.78734 40.4931 0.990974
487 1 0.598463 43.3355 0.816861
494 2 5.02512 41.9291 2.25268
488 1 0.482803 43.1976 4.00056
489 1 3.49771 40.5196 0.583294
543 2 1.99559 44.6888 2.41029
4084 1 0.806852 40.5039 3.65543
491 1 3.28138 43.3043 1.14944
492 1 3.40084 43.2841 3.89291
482 2 1.95259 41.9678 5.1289
499 1 6.29048 43.1983 0.629693
498 1 6.52743 40.1635 3.97242
4085 1 0.387559 40.6834 6.26541
4087 1 0.877873 43.3185 6.66558
500 1 6.3301 43.1358 3.65986
4089 1 3.33705 40.7321 6.47194
4091 1 3.44228 43.5503 6.45665
497 1 6.32933 40.3202 0.730006
4097 1 6.16032 40.3418 6.69191
4099 1 6.21519 43.4713 6.65648
14910 1 11.9403 40.4954 0.802211
4165 2 10.6321 44.8374 5.09088
510 1 11.9863 40.1733 3.58245
511 1 12.1331 43.2309 0.879859
506 2 10.549 41.9256 2.08414
501 1 9.23299 40.2253 0.775687
555 2 7.82494 44.8165 2.19186
502 1 9.24037 40.7372 3.64416
4096 2 7.77136 42.0044 5.19346
503 1 8.90317 43.1236 0.904553
504 1 9.20872 43.4408 3.71154
565 1 11.8599 43.3359 3.69948
4101 1 8.99589 40.8091 6.7087
4103 1 8.88918 43.5124 7.0052
4109 1 11.8393 40.5685 6.34019
567 2 13.2936 44.6083 2.19351
4169 1 11.8138 45.8964 6.64646
512 1 12.0415 43.4093 6.34529
385 2 10.4208 27.7107 -0.341025
3847 1 0.883706 20.3969 6.93902
7707 2 13.5216 38.7109 13.5471
3846 1 0.654222 20.5956 9.80392
7513 2 5.04356 21.9951 10.7785
3906 1 0.918953 23.7016 9.61651
7447 1 0.721051 20.7148 12.5303
3914 2 5.16683 24.8754 8.11596
7509 1 3.37603 23.6656 12.5193
3903 2 2.27016 21.9334 8.09513
3910 1 3.74711 23.3727 9.22929
7504 2 2.2738 25.2211 10.8296
7451 1 3.73094 20.8645 12.0339
3852 1 3.46649 20.5009 9.30591
7505 1 0.682403 23.508 12.4573
3860 1 6.56043 20.5006 9.72793
7515 1 6.17812 20.4956 12.6231
3918 1 6.68631 23.6242 9.35424
7517 1 6.24725 23.1561 12.2277
389 2 13.3233 30.0249 -0.302627
3871 1 11.8786 20.74 6.69587
7528 2 10.7621 21.8611 11.0598
3872 1 12.0868 20.4542 9.68192
7529 1 12.1111 20.8222 12.6104
7471 1 9.24774 20.6892 12.5266
3930 1 11.9874 23.161 9.41529
3926 2 10.5779 24.6575 7.91479
7521 1 8.994 23.4313 12.4488
3915 2 7.84229 21.989 8.1668
3922 1 9.40125 23.2455 9.60249
7516 2 7.7558 24.8261 10.9024
7463 1 9.17768 20.5863 9.91033
7523 1 11.9477 23.4634 12.5048
7581 1 9.01939 26.3663 12.3356
4111 1 11.6607 43.4384 9.54164
3927 2 13.2448 22.0077 7.92368
7589 1 11.8875 26.2904 12.4036
4102 1 9.45222 40.3246 9.65456
7767 2 13.556 44.7066 13.4617
364 2 2.13396 30.8562 -0.495255
3977 1 6.67228 29.121 6.77145
3979 1 6.25509 31.777 6.86705
7507 1 0.628182 26.3169 12.0331
7511 1 3.51983 26.7583 12.4728
3908 1 1.02551 26.4031 9.00119
3920 1 6.73225 26.5403 9.56505
3912 1 3.98028 26.1729 9.64691
7519 1 6.3884 26.1662 12.2315
7573 2 5.17923 27.5862 10.93
3963 2 2.54935 27.6996 8.04509
7565 1 0.87136 28.9776 12.1002
3966 1 0.496048 29.448 9.42688
7567 1 0.654866 32.0884 9.08523
3974 2 4.99716 30.5356 8.43655
7569 1 3.62595 29.3695 12.1511
3970 1 3.3959 28.9012 9.5742
7564 2 2.10358 30.676 10.8286
3972 1 3.6089 31.9126 9.50089
7571 1 4.36181 32.0289 12.5196
7625 1 1.25291 32.1599 12.3054
3980 1 6.22587 31.9651 9.81126
3978 1 6.54774 29.2953 9.81439
7579 1 6.26796 29.0606 12.5734
316 2 7.73283 24.8237 -0.352799
381 1 13.3701 30.4601 2.4476
4047 2 13.4726 33.6258 8.07708
3931 1 11.9959 26.3793 6.55971
3923 1 9.36512 26.4801 6.65309
3981 1 9.4642 29.3954 6.68241
7709 1 11.5409 40.2581 12.3175
7588 2 13.4547 30.5192 11.0237
3990 1 12.0094 26.5023 9.47771
3924 1 9.30983 26.1384 9.54763
7577 1 9.44454 28.7717 12.4561
7582 1 9.15662 31.7085 12.2363
7585 2 10.7201 27.6008 11.0231
3975 2 8.05199 27.6716 8.20603
7591 1 12.1701 29.0014 12.5196
3986 2 10.73 30.7533 8.15691
3992 1 11.772 32.4291 9.72697
3982 1 9.22893 29.172 9.44226
7576 2 7.95509 30.4096 10.9288
7583 1 11.7802 29.3549 9.86787
3984 1 9.09333 31.9476 9.57993
7635 1 11.9605 31.6661 12.4205
3987 2 13.3969 27.6723 8.20991
3988 2 13.3035 30.6307 5.3338