ITEM: TIMESTEP
50000
ITEM: NUMBER OF ATOMS
18000
ITEM: BOX BOUNDS pp pp pp
-5.4490837258307623e-01 2.7884908372583059e+01
-6.6473779206018406e+00 3.3472737792061025e+02
-5.2951788916447839e-01 2.7869517889164420e+01
ITEM: ATOMS id type x y z
3673 2 4.9095 -0.751705 5.36599
6 1 0.964115 -5.43637 0.690314
14 2 5.3304 -3.79542 2.06875
8 1 0.624037 -2.42405 3.79631
20 1 3.72977 -2.39325 0.5703
63 2 2.18882 -0.762874 2.48859
3604 2 2.22352 -3.66427 5.1644
12 1 3.40768 -2.21378 3.67837
17952 1 3.66743 -5.11116 0.967871
3548 1 0.899928 -5.16599 3.84958
17 1 1.19903 -2.56173 1.13268
10 1 3.6132 -5.14694 3.78803
18 1 6.3084 -2.63221 3.97395
19 1 6.80134 -2.51786 0.80276
5 2 2.21564 -6.42062 2.53371
242 2 -0.41083 19.0168 2.47567
7225 2 10.8139 -6.33317 10.8712
3605 1 1.03183 -5.0616 6.67072
64 2 2.26096 1.93873 -0.292905
184 2 2.83578 13.319 -0.553756
3551 1 6.48695 -5.38517 1.04869
3560 1 6.55514 -5.29517 3.7777
3685 2 10.8944 -0.778397 5.61921
29 2 10.7541 -4.44396 2.30372
26 2 10.9611 -1.3632 2.45515
75 2 7.4007 -0.883328 2.61495
22 1 8.9798 -0.584728 4.40189
3616 2 8.26446 -3.65127 4.90654
17964 1 9.16502 -5.33498 0.818085
14430 1 12.0103 -5.72511 1.11397
36 1 10.6657 -2.78787 4.40126
3570 1 9.30371 -5.44063 3.83696
3572 1 12.2498 -5.26412 3.85965
30 1 12.6503 -3.04053 2.39415
81 1 8.89711 -2.92932 2.67464
31 1 12.9276 -0.924662 4.29384
32 1 12.6047 -0.705725 0.646344
93 1 10.7605 -2.58157 0.570519
3747 2 13.6166 4.74364 8.18002
3688 2 13.3076 2.03648 5.30057
3722 2 -0.465399 7.33299 8.23444
7321 2 -0.470569 4.77195 11.0667
9 1 3.5248 0.650424 0.901723
7 1 0.894238 0.305215 0.955476
65 1 0.896365 3.40454 0.951807
66 1 0.553166 0.476194 3.99614
74 2 5.20551 2.09175 2.38465
69 1 3.90935 3.40673 1.15164
70 1 3.4804 0.569952 4.02432
3664 2 2.21025 1.98789 5.25389
3733 2 5.2738 4.97785 5.38992
68 1 0.894849 3.15149 3.49907
123 2 2.22065 4.67569 2.58255
72 1 3.68343 3.31699 3.85759
67 1 0.799302 6.19105 1.3075
126 1 0.843354 5.80295 3.97997
129 1 3.6233 6.2193 1.31735
130 1 4.02254 6.5807 4.14065
71 1 6.81456 3.22765 0.96075
78 1 6.29246 0.634703 3.95117
257 1 6.52833 17.3718 0.753158
244 2 2.43278 19.1457 -0.537159
7465 2 10.91 16.4322 11.396
121 2 -0.507348 4.57726 -0.363795
182 2 -0.411482 13.393 2.77092
23 1 9.17192 -0.137725 1.34391
80 1 6.21868 3.67607 3.80673
11 1 6.29139 0.405286 1.21621
138 1 6.82059 6.24845 3.9495
144 1 6.66068 6.0776 1.17224
24 1 11.0452 1.30658 4.73333
77 1 9.56159 3.93481 1.17599
89 1 12.1193 3.66404 3.79284
86 2 10.9344 2.23062 2.56285
82 1 8.74821 2.56329 3.22362
3676 2 8.10859 1.78345 5.17728
3745 2 10.917 5.02026 5.59345
135 2 7.84886 4.62419 2.54437
91 1 12.6443 3.6094 1.0605
83 1 12.5387 6.26087 3.94364
95 1 12.9364 1.06883 2.42256
14484 1 9.74641 6.66363 0.671144
84 1 9.66197 5.33773 3.74053
90 1 12.1859 3.46789 6.70201
3683 1 9.56005 6.34 6.58191
21 1 10.8713 1.41182 0.124211
3691 1 9.4949 3.50537 6.29569
14554 1 12.8607 6.33286 1.09132
3855 2 8.09318 16.1273 8.09274
3782 2 -0.365922 13.0486 8.06273
3862 1 9.65579 17.3926 9.82361
127 1 1.25404 12.5563 1.20293
3793 2 5.25077 10.3592 5.46016
125 1 0.979569 8.81695 0.896374
134 2 5.19899 7.60097 2.42423
128 1 1.07529 8.56216 4.08004
183 2 2.20027 10.7136 2.53325
3724 2 2.44798 7.61893 5.61241
131 1 4.03994 8.81961 0.704764
132 1 3.82862 9.31095 3.80293
186 1 1.11526 12.1652 4.04058
189 1 3.87785 11.8439 1.06185
190 1 3.8553 12.0176 3.83436
137 1 6.44706 8.92113 0.901419
3613 2 4.98821 -6.45064 5.15376
13 2 5.08186 -6.4956 -0.457594
3785 1 1.02544 11.8096 6.75377
3806 2 10.8565 13.4617 8.16869
7469 1 12.458 17.6839 12.5124
124 2 2.52753 7.60959 -0.403638
197 1 6.53961 11.9578 1.04787
140 1 6.47054 9.16788 4.11205
198 1 6.36124 11.9149 3.93344
202 1 9.44963 10.5685 0.592156
3805 2 10.564 10.4653 2.47491
150 1 9.01856 10.7678 4.34973
146 2 11.0064 7.09853 2.65499
195 2 7.26448 10.5822 2.47517
3736 2 8.15468 7.83234 5.23368
3809 1 11.3283 12.3045 3.91671
210 1 12.2138 11.9685 1.40768
3795 2 10.9584 10.3425 5.57807
155 1 12.4874 9.58276 3.64833
139 1 10.5358 8.21908 4.67063
141 1 8.94997 8.69427 2.4797
151 1 11.9159 8.83913 1.0186
3741 1 12.4433 9.09735 6.91433
136 2 7.94732 7.64127 -0.456877
3842 2 -0.509364 19.1188 8.12949
79 2 8.41307 1.95105 -0.39808
7396 2 8.03418 13.071 10.9224
7288 2 13.5509 2.26975 11.0578
3841 2 -0.372551 16.1862 5.42825
3615 2 8.17272 -6.51966 7.95413
3857 1 6.41123 17.6196 6.58964
3784 2 2.70593 13.5409 5.16999
194 2 5.04934 13.2946 2.56315
245 1 0.827673 17.6975 1.00801
3853 2 5.25404 16.3798 5.23946
246 1 0.957398 17.7547 3.86829
254 2 5.01458 19.0007 2.20991
188 1 1.0183 14.9231 3.52092
243 2 2.41373 16.2332 2.38504
250 1 3.65336 17.6462 3.76233
3844 2 2.29886 19.0491 5.14537
191 1 4.01479 14.8446 1.17039
192 1 3.69635 14.9074 3.75934
249 1 3.61037 17.7297 1.07474
201 1 7.02664 14.7145 0.740857
258 1 6.25687 17.53 3.70966
143 1 10.1905 13.8928 -0.0633388
133 2 5.30375 4.78561 -0.216875
3812 1 12.1317 14.5969 9.63638
3799 1 6.74709 14.6502 6.42586
3870 1 12.2286 17.9112 9.74436
3781 2 -0.300162 10.398 5.05805
7443 2 2.49839 15.9352 13.7123
200 1 6.73029 14.5065 3.78788
14592 1 1.23677 14.8323 0.126892
3796 2 8.18603 13.1446 5.23704
142 1 9.09541 12.3469 2.45603
3856 2 7.91429 19.0417 5.47504
211 1 12.926 14.7462 1.00324
199 1 8.58549 18.4273 1.65881
3865 2 10.879 16.3535 5.27422
269 1 12.2523 17.5391 0.942897
270 1 12.4584 17.5392 3.85338
206 2 10.9618 13.9271 2.31525
266 2 10.76 18.8357 2.53406
212 1 12.5893 14.9724 4.22927
255 2 7.76759 16.3657 2.54056
262 1 9.35605 17.6878 4.16937
203 1 9.68232 15.8541 1.51679
204 1 9.58477 14.6154 4.08896
3804 1 9.19932 14.7895 9.56249
7228 2 13.5209 -3.61766 11.2263
253 2 5.03998 16.2697 -0.446655
3811 1 12.3425 15.0457 6.68072
3609 1 3.98107 -4.99372 6.55171
3611 1 3.53009 -2.16242 6.34926
7411 1 12.5195 15.0328 12.6054
3607 1 1.00677 -2.53488 6.6325
7273 2 5.40265 -0.980522 10.9799
7205 1 0.920644 -5.29431 12.6941
3606 1 0.704661 -2.34769 9.35536
7207 1 0.702392 -2.42851 12.3023
3614 2 5.39136 -3.67684 7.85464
7209 1 3.71435 -5.01486 12.1572
3663 2 2.33195 -0.891119 8.18825
3610 1 3.86675 -5.09523 9.30192
7204 2 2.26223 -3.60982 10.8105
7211 1 3.74482 -2.28416 12.2345
3612 1 3.71035 -2.28733 9.34565
7148 1 0.961212 -4.93458 9.70873
7219 1 6.52774 -2.66189 12.4517
3627 2 13.4844 -6.44626 7.98323
7213 2 5.13627 -6.48994 10.6963
3621 1 12.3061 -5.05754 6.45506
3619 1 6.32262 -1.92683 6.8855
265 2 11.5346 16.1001 -0.557147
196 2 8.18683 12.7688 -0.453848
3617 1 6.80766 -5.1457 6.47181
3564 1 9.62531 -5.42169 6.71746
3631 1 12.453 -2.17487 6.59879
7217 1 6.74333 -5.42842 12.0692
3620 1 6.77082 -2.36949 9.76425
3618 1 6.87026 -5.15972 9.36517
3623 1 9.18513 -2.33407 6.71947
7174 1 12.2886 -4.96593 9.46402
7285 2 10.7899 -0.824123 10.9571
7229 1 12.2865 -5.21637 12.4636
7231 1 11.876 -2.44028 12.1612
3626 2 10.8007 -3.48519 8.02744
3632 1 12.1899 -1.69687 9.34739
7221 1 9.52209 -5.11571 12.2967
3675 2 7.96554 -0.774297 8.07744
3622 1 9.65305 -4.87771 9.40948
7216 2 8.17121 -3.94151 10.9636
7223 1 9.12502 -2.49673 12.5673
3624 1 9.62877 -2.33333 9.73213
3867 2 13.2002 16.2841 8.19211
3665 1 0.681294 0.238223 6.78692
3729 1 3.866 6.22219 6.93849
3669 1 3.4229 0.888004 6.74958
3671 1 3.67271 3.6944 6.57277
237 1 -0.294 10.4079 2.61581
7461 1 9.22495 17.655 12.4533
3667 1 0.686113 3.02011 6.35149
3725 1 0.819027 5.92203 6.73108
3608 1 0.936537 0.393961 9.86528
7272 1 3.6306 3.27493 12.4163
7265 1 0.945423 0.446584 12.3728
3666 1 0.896362 3.25165 9.3457
3674 2 5.0553 2.01496 7.95404
7269 1 3.7163 0.428259 12.4986
3670 1 3.83413 0.391087 9.64307
7264 2 2.42261 1.96278 10.9235
7333 2 5.22591 4.69207 11.0799
3723 2 2.60866 4.87426 8.40159
7271 1 0.737691 3.43564 12.2342
3672 1 3.75443 3.37052 9.51803
7325 1 1.3239 6.25881 12.4398
7277 1 6.59043 0.391144 12.0501
7279 1 6.2436 2.93662 12.4763
7267 1 0.911916 6.13243 9.62704
7459 1 6.77009 17.5615 9.43209
3677 1 6.5558 0.464226 6.43672
3679 1 6.68883 3.23674 6.69158
92 1 12.4457 6.1275 6.67314
3680 1 6.37879 3.45099 9.3598
3678 1 6.59172 0.542129 9.30045
3681 1 9.4195 0.662213 6.90683
3737 1 6.80105 6.08946 6.67306
3689 1 12.3368 0.530203 6.94324
3753 1 12.34 6.38466 9.31997
7289 1 11.7766 0.0813338 12.8305
3690 1 12.2384 0.736279 10.0323
3686 2 10.9184 2.03294 8.21131
7281 1 9.30982 0.524968 12.3783
3682 1 9.45653 0.426383 9.62715
7276 2 8.07148 1.86452 10.8696
3684 1 9.53956 3.59547 9.23928
7283 1 8.97232 3.34084 12.3074
3735 2 8.13539 4.72281 7.85773
7345 2 10.8133 5.00333 11.0174
7291 1 11.7302 3.2184 12.2005
3692 1 12.4061 3.41981 9.19732
7341 1 9.2461 6.1127 12.2529
3742 1 9.46365 6.34379 9.38503
3749 1 12.2104 6.4385 12.167
3738 1 6.75716 6.43818 9.62124
3727 1 1.18986 8.83681 6.79096
7214 2 5.00219 -3.85916 13.6457
7329 1 3.72255 6.13133 12.5698
3730 1 3.8977 6.23826 9.83212
3731 1 3.89326 9.31331 6.87499
3789 1 4.07301 11.9077 6.94551
7393 2 5.38072 10.339 11.0779
3726 1 1.24333 9.19866 9.7724
7327 1 0.9292 8.91888 12.5249
3734 2 5.61395 7.89042 8.2029
3728 1 1.00962 12.0878 9.63401
3783 2 2.55654 10.4828 8.43092
7324 2 2.52634 7.68038 11.2506
7331 1 3.832 8.85919 12.4914
3732 1 4.37217 8.98236 9.66418
7389 1 3.89578 11.7093 12.4167
7385 1 0.864465 11.6611 12.432
3790 1 3.63717 11.7835 9.614
3797 1 6.64872 11.8794 6.68721
7339 1 6.67907 8.91552 12.2898
7275 2 7.92814 -1.02759 13.6019
3803 1 9.62068 14.6599 6.8127
3814 1 12.7644 11.7772 6.47471
3801 1 9.958 11.7552 7.065
7337 1 6.74394 5.75285 12.3756
3739 1 6.93626 9.09201 6.9246
3740 1 7.03224 9.43162 9.71338
3800 1 6.665 12.0996 9.52095
3743 1 9.52485 9.06307 6.92621
7397 1 6.8726 11.7381 12.6372
3750 1 12.2999 9.0577 12.4339
7351 1 12.4187 9.26616 9.65624
3744 1 9.74881 9.32148 9.3987
7343 1 9.52938 8.75729 12.1706
7336 2 8.13756 7.64663 10.8062
7405 2 10.9145 10.575 11.1926
3746 2 10.9634 7.80278 8.24647
3798 2 8.46253 10.4583 8.11936
3802 1 9.62343 12.0385 9.78298
7409 1 9.58451 11.7753 12.5696
7410 1 12.5456 11.8474 12.377
3810 1 12.249 11.7584 9.3119
3787 1 1.24438 15.0166 6.31829
3849 1 3.53588 17.6637 6.73293
7201 2 -0.453196 -6.41473 10.9867
7456 2 7.96439 19.0576 10.8471
3791 1 4.19686 14.9364 6.58779
3858 1 6.70161 14.9731 9.26416
7399 1 6.6244 14.5619 12.315
7384 2 2.50307 13.3147 11.179
3794 2 5.50059 13.1901 7.98929
3845 1 0.705975 17.6069 7.04265
7444 2 2.65341 18.6975 10.9747
3854 2 5.18784 19.232 7.99699
7449 1 3.71427 17.1003 12.1433
3788 1 0.772854 17.6786 9.64945
3786 1 0.928946 14.7595 9.45803
7445 1 0.926592 17.1622 12.1476
7453 2 5.31366 15.8993 10.8643
3850 1 3.96923 17.4116 9.53688
3843 2 2.55262 16.1806 8.02526
3792 1 4.02859 14.4041 9.34123
7387 1 0.846993 14.6577 12.5146
7391 1 3.9728 14.5524 12.3505
3869 1 12.0656 17.8811 6.58855
3861 1 9.36469 17.6776 6.78688
7403 1 9.48384 14.7658 12.5235
3866 2 10.8908 19.1801 8.09065
7457 1 6.41591 17.4318 12.4312
62 2 -0.388135 1.70864 2.32867
7408 2 13.5486 13.3972 10.7618
28 2 13.4507 -3.47128 -0.0300543
259 2 8.11071 19.6226 -0.259535
7381 2 -0.535114 10.4843 10.8915
3603 2 2.35277 -6.42143 8.0845
7348 2 13.5054 7.75853 11.0083
73 2 5.08408 -0.856834 -0.509335
88 2 13.536 1.79151 -0.0836072
3628 2 13.5705 -3.63665 4.92276
3601 2 -0.436486 -6.43608 5.26341
7263 2 2.51082 -1.02662 13.611
145 2 10.9745 4.97696 -0.415356
7202 2 -0.502805 -3.88854 13.5867
10873 2 5.26049 -1.26704 16.4425
10805 1 0.754244 -5.29788 18.1057
7206 1 0.984813 -5.25101 15.3463
10807 1 0.954386 -2.26037 18.0863
10814 2 5.21329 -3.70878 19.6293
7208 1 1.22388 -2.33759 15.1102
10809 1 3.88276 -4.98261 18.1469
10863 2 2.28997 -0.919336 19.4269
7210 1 3.75697 -5.37707 15.1226
10804 2 2.40904 -3.81194 16.7987
10811 1 3.95894 -2.29352 17.7356
7212 1 3.9785 -2.48883 15.1157
10819 1 6.60963 -2.74618 18.1462
10817 1 6.66722 -5.30299 17.9033
10818 1 6.43898 -5.13344 20.947
14661 1 9.59168 17.5072 23.6558
14612 1 12.6228 14.6163 26.2966
10947 2 13.4721 4.79204 19.2931
10825 2 10.8833 -6.51044 16.5187
7220 1 6.63213 -2.28095 15.1049
7218 1 6.47396 -5.2884 15.0022
10885 2 10.8326 -0.820795 16.479
10829 1 12.1993 -5.24095 17.9642
7230 1 12.1583 -5.06936 15.3765
10831 1 12.1462 -2.55311 18.0025
10826 2 10.7059 -3.7553 19.4681
7232 1 12.2592 -2.0222 14.9686
10821 1 9.43171 -5.37605 17.8914
10875 2 8.06023 -0.909648 19.3892
7222 1 9.09246 -5.15537 14.9679
10816 2 8.10715 -3.81799 16.6639
10823 1 9.57654 -2.36967 18.0605
7224 1 9.50836 -2.37046 15.2559
1 2 -0.483652 -6.51743 27.8941
7466 2 10.9241 18.9678 13.6799
10824 1 9.52149 -2.35626 20.8491
7287 2 13.6094 -0.724124 13.9349
7335 2 8.01684 4.73806 13.8505
10813 2 5.32705 -6.60371 16.5069
7382 2 -0.43911 13.2287 13.9628
7266 1 1.35252 0.536417 15.2592
7270 1 3.91592 0.443895 15.2901
10869 1 3.77312 0.274405 18.1856
10865 1 0.688755 0.36274 18.3208
10874 2 5.32843 1.80726 19.2816
10864 2 2.53159 1.73644 16.6494
10933 2 5.12466 4.79306 16.5204
10867 1 0.977162 3.06584 18.2009
7268 1 1.01241 3.11162 15.1714
10923 2 2.18028 4.60063 19.4539
10871 1 3.77075 3.54054 17.9901
7330 1 3.6829 2.98799 15.1839
10937 1 3.74552 6.20426 17.9966
10929 1 3.75712 5.98004 15.1346
10925 1 0.863451 5.78157 17.9434
7326 1 1.17978 6.10905 14.9762
10879 1 6.47622 3.32993 18.1512
7280 1 6.56683 3.30551 15.5396
7338 1 6.32737 6.35744 18.0834
7278 1 6.5729 0.461656 14.9968
10868 1 0.932106 3.49187 20.9353
10866 1 0.996765 0.515373 21.1089
185 2 -0.38546 13.3415 27.8233
7342 1 6.4541 6.22387 15.0347
7290 1 11.9822 0.82448 15.4052
10877 1 6.61139 0.144385 17.8409
10889 1 12.2097 0.333789 17.9997
10886 2 10.78 1.84082 19.5059
10881 1 9.50546 0.565512 17.967
7282 1 9.30301 0.299784 15.1809
10876 2 7.72758 1.64181 16.4681
10945 2 10.7032 4.58939 16.6671
10891 1 11.9977 3.19172 18.2489
7292 1 12.2391 3.31476 15.5131
10935 2 7.93323 4.59916 19.3559
10883 1 9.03832 3.2197 18.1351
7284 1 9.36938 3.18352 15.3695
7350 1 9.13103 6.24762 15.1775
10890 1 11.9983 0.578125 20.6929
10949 1 11.895 6.07858 18.3161
10941 1 9.14302 6.02362 17.9482
7352 1 11.8678 6.59584 15.4951
14415 2 7.95802 -6.55967 25.0347
7286 2 10.6973 1.89121 13.792
25 2 10.9794 -6.55288 27.7124
10993 2 5.18586 10.3919 16.5972
10927 1 0.968907 8.64125 17.7576
10934 2 5.06048 7.52585 19.3881
7328 1 0.92909 8.84724 15.2186
10983 2 2.5132 10.7345 19.4318
10924 2 2.4318 7.32408 16.5243
10931 1 3.82924 8.87515 17.8798
7332 1 3.57846 8.73665 15.2949
10985 1 1.16972 11.8776 17.9593
7386 1 1.03038 11.6765 15.1617
10989 1 3.98621 11.7273 18.0983
7390 1 3.78206 11.7578 15.1777
10939 1 6.72468 9.07521 17.8266
10986 1 1.02914 11.7281 20.6519
7334 2 5.00028 7.72389 13.9069
7383 2 2.26109 10.2968 13.7464
10997 1 6.79381 12.0859 18.0997
7398 1 6.67388 11.9583 15.3896
7340 1 6.5864 9.02426 15.1437
7349 1 12.2623 9.30228 15.4321
11005 2 10.8263 10.4438 16.7001
10951 1 12.2314 9.10918 18.2581
10946 2 11.0301 7.72117 19.5733
10995 2 8.17799 10.3877 19.3814
10936 2 7.95542 7.51475 16.7753
10943 1 9.53338 8.67648 18.1508
7344 1 9.72371 9.01146 15.4305
11009 1 12.2865 12.0405 18.2909
11001 1 9.63834 11.7495 18.2253
7402 1 12.1129 12.0698 15.2592
7401 1 9.46954 11.9606 15.3661
7395 2 8.22955 10.2659 13.8186
10940 1 6.78436 8.94216 20.8254
7346 2 10.6484 7.54187 13.8741
193 2 5.21948 10.4721 27.8721
14425 2 10.83 -6.59271 22.1418
10994 2 5.27944 13.3939 19.3721
10984 2 2.58173 13.1961 16.6504
11044 2 2.23987 18.911 16.6329
11053 2 5.42397 16.2475 16.6028
11045 1 0.963969 17.1916 17.7427
7446 1 0.834517 17.5923 15.0495
10987 1 1.05819 14.5815 17.853
11054 2 5.19449 18.7575 19.3577
7388 1 1.0251 14.5554 14.995
11049 1 3.47326 17.609 18.1019
11043 2 2.33117 15.9039 19.1156
7450 1 4.02107 17.5794 15.3208
10991 1 4.24194 14.8469 18.0983
7392 1 3.6936 14.7508 15.2722
10999 1 6.77432 14.5832 17.9766
7458 1 6.89392 17.5214 15.3091
7226 2 10.7738 -3.65075 13.8302
14403 2 2.52622 -6.46072 25.196
10948 2 13.642 7.71737 16.4928
14606 1 5.14663 13.8792 27.4485
7394 2 5.46084 13.3098 13.8248
7454 2 5.15148 18.9366 13.9305
10996 2 8.24259 13.4086 16.7824
7400 1 6.49481 14.81 15.1307
11057 1 6.64732 17.452 18.12
11006 2 10.9429 13.2206 19.6363
11065 2 10.9474 16.0564 16.5715
11069 1 12.3274 17.8801 18.1151
7470 1 12.1991 17.3849 15.0919
11011 1 12.4455 15.2693 18.0896
11066 2 10.9943 19.1009 19.4468
7412 1 12.2117 14.7101 15.2606
11061 1 9.63033 17.3773 17.9128
11055 2 8.14672 16.1692 19.4647
7462 1 9.6285 17.3992 15.0539
11003 1 9.89594 14.4908 18.233
7404 1 9.31263 14.7582 15.2248
11056 2 8.15809 18.8949 16.4442
14401 2 -0.465416 -6.39676 21.9747
7455 2 8.17363 16.1525 13.6645
11012 1 12.2105 14.9298 20.9402
14655 2 8.04676 16.0073 24.6321
7406 2 10.9722 13.301 13.8663
10806 1 1.40594 -4.9737 20.7327
10810 1 3.93543 -5.03707 21.0279
10808 1 0.898324 -2.15594 20.7098
10812 1 3.73337 -2.07741 20.8638
7322 2 -0.430426 7.40577 13.7998
10861 2 -0.309969 -0.896885 16.6008
17960 1 4.00315 -5.06937 26.4518
17948 1 0.653863 -2.23927 26.4345
18000 1 1.05431 -4.97304 26.4694
14473 2 5.25702 -1.11538 22.2575
14407 1 0.997023 -2.23803 23.6729
14414 2 5.11976 -3.89731 24.9109
14409 1 3.78927 -5.40572 23.6671
14463 2 2.23659 -1.10925 25.1455
14410 1 0.97289 -4.92768 23.5765
14404 2 2.38267 -3.62684 22.2106
14411 1 3.97621 -2.41025 23.4764
14412 1 3.64241 -2.41017 26.0988
14418 1 6.51731 -5.24879 26.5542
14417 1 6.59919 -5.20808 23.743
14420 1 6.74603 -2.56526 26.4436
14419 1 6.60516 -2.27653 23.6007
7274 2 4.9466 1.85008 13.7842
256 2 8.19242 16.1428 27.8287
10820 1 6.65191 -2.27834 21.0834
10822 1 9.29872 -5.37249 20.9847
10830 1 12.1452 -5.10111 20.7663
10832 1 12.3262 -2.32271 20.873
14434 1 12.1726 -5.09378 26.4774
14485 2 10.896 -0.82967 22.1762
14429 1 11.9482 -5.09736 23.3287
14431 1 12.1067 -1.96334 23.7726
14426 2 10.9328 -3.66058 24.9734
14432 1 12.5189 -2.41657 26.4724
14421 1 9.57048 -5.21513 23.4478
14475 2 8.03301 -0.885784 25.1073
14422 1 9.34371 -5.17119 26.451
14416 2 7.91072 -3.64384 22.4183
14423 1 9.52065 -2.32049 23.5664
14424 1 9.58367 -2.37267 26.4013
7262 2 -0.277125 1.80309 13.69
10926 1 0.731486 6.40286 20.9299
10870 1 3.65899 0.758521 20.9182
10872 1 3.47315 3.67204 21.2679
10930 1 3.88687 6.43251 21.0508
14469 1 3.62253 0.490534 23.9455
14408 1 0.835726 0.524576 26.5481
14465 1 0.756125 0.501127 23.8208
14466 1 0.840879 3.28939 26.8606
14474 2 5.20931 2.02435 25.2421
14470 1 3.72589 0.310376 26.5494
14464 2 2.33853 1.84074 22.3552
14533 2 5.10447 4.89647 22.4294
14467 1 0.658839 3.28447 23.9233
14523 2 2.43268 4.65748 25.1501
14530 1 3.86827 6.09691 26.8399
14471 1 3.60127 3.1162 23.9528
14472 1 3.86799 3.1893 26.5659
14468 1 0.872963 5.96345 26.4631
14525 1 0.946658 6.12336 23.6708
14529 1 3.57036 6.20615 23.8624
14478 1 6.75923 0.592326 26.734
14538 1 6.6813 6.18063 26.5992
14537 1 6.53227 5.94416 23.7902
14588 1 -0.289609 15.8386 25.6442
10950 1 12.3694 6.07603 21.0461
10880 1 6.39699 3.21189 20.9309
10884 1 9.36375 3.14751 20.9369
10942 1 9.63826 5.946 20.6103
10878 1 6.42744 0.496899 20.5601
10938 1 6.89879 5.95061 20.8364
10882 1 9.13383 0.611765 20.8747
10892 1 12.4218 3.35505 21.1244
14481 1 9.56506 0.413961 23.8674
14477 1 6.61511 0.462457 23.9594
14479 1 6.49116 3.2219 23.8062
14480 1 6.52879 3.53672 26.5898
14489 1 12.6357 0.51668 23.4599
14490 1 12.31 0.429997 26.2692
14482 1 9.32055 0.515081 26.4327
14476 2 7.87196 1.84781 22.389
76 2 11.0266 1.93005 25.2615
14486 1 9.58271 3.47314 26.3815
14483 1 9.47789 3.42923 23.8716
14542 1 9.61013 6.07409 26.3155
14535 2 8.11255 4.78238 25.1517
14545 2 10.986 4.72895 22.2844
14491 1 12.346 3.27744 23.9581
14492 1 12.3334 3.27726 26.5916
14541 1 9.25497 6.19973 23.6189
14549 1 12.3976 6.06073 23.8168
14550 1 12.3533 6.01643 26.7669
14585 1 -0.497891 12.9848 22.4431
10932 1 4.10365 9.23573 20.6262
10990 1 4.15912 12.0978 20.6089
10928 1 1.15087 8.9599 20.6749
14526 1 1.2956 8.72685 26.1096
175 1 0.590145 11.2359 27.3518
14579 1 0.623502 9.02211 23.4933
14590 1 3.46224 11.8797 26.2745
14593 2 5.29757 10.4168 22.0001
14527 1 0.831994 11.67 24.2028
14534 2 5.18313 7.58614 24.991
14583 2 2.55551 10.474 24.8378
14524 2 2.23145 7.55404 22.2998
14531 1 3.63393 8.81341 23.5074
14532 1 4.0266 9.25727 26.2172
14589 1 3.56046 11.6434 23.064
14597 1 6.61709 11.6715 23.5443
10998 1 6.97326 11.6938 20.8188
14539 1 6.59609 8.84949 23.6419
10888 2 13.6218 2.17031 16.6266
11042 2 -0.540545 18.9902 19.4692
10952 1 12.3622 9.04816 21.127
11010 1 12.4574 11.9959 21.1566
14540 1 6.72372 8.89451 26.4801
11002 1 9.66927 11.993 21.0246
10944 1 9.6131 9.13713 20.6983
14598 1 6.7773 11.5347 26.5867
205 2 11.1791 10.2956 27.4597
14544 1 9.45114 8.90146 26.6426
14601 1 9.35005 11.9116 24.0156
14602 1 9.56245 11.7335 26.4525
14610 1 12.4342 12.0016 26.4748
14609 1 12.1755 11.7028 24.1045
14543 1 9.3796 9.06635 23.4646
14536 2 8.29841 7.61778 22.0567
14595 2 8.02935 10.241 25.1244
14605 2 10.9612 10.4644 22.3332
14551 1 12.0729 9.06026 23.7298
14546 2 10.7505 7.54077 25.0153
14552 1 12.1637 8.67481 26.2933
11041 2 -0.443181 15.9736 16.3475
10988 1 0.837674 14.8005 20.5274
10992 1 3.62783 14.6629 20.6485
11046 1 1.02982 17.4834 20.8036
14582 2 -0.332275 13.645 24.574
14427 2 13.5858 -6.49466 24.8609
14641 2 -0.360634 16.222 21.9658
10815 2 8.09634 -6.62822 19.4721
11050 1 3.92934 17.4783 20.8879
14586 1 1.37063 13.7719 26.027
14594 2 5.39871 13.6477 25.3512
14604 1 5.98351 16.2599 25.9184
14584 2 2.54433 13.5822 22.1151
14643 2 2.07674 16.2171 25.0989
14658 1 3.3897 15.6024 26.8199
14644 2 2.31959 19.064 22.0712
14591 1 3.86004 14.9131 23.8271
14587 1 1.21098 14.9644 23.3421
14649 1 3.87479 17.4809 23.9253
14646 1 1.20329 17.3539 26.8108
14654 2 5.43027 18.8429 25.1708
14645 1 1.02616 17.4569 23.3309
14653 2 5.14255 16.0667 22.3634
14650 1 4.24052 18.258 27.0549
14657 1 6.66829 17.5864 23.5821
10981 2 -0.26836 10.2865 16.6538
14642 2 -0.468179 18.741 24.9841
11058 1 6.60635 17.4266 20.9075
14669 1 12.2573 17.4662 23.6576
11004 1 9.56713 15.0144 20.9803
11062 1 9.46673 17.8394 21.161
14670 1 12.6665 17.2766 26.4143
261 1 9.97721 15.6192 26.2472
14662 1 7.82203 14.4546 26.2205
14599 1 6.59269 14.5733 23.5877
14666 2 10.8131 18.6874 25.0902
14665 2 10.8571 16.2219 22.2054
14600 1 7.81964 17.8041 26.3705
11000 1 6.57022 14.5801 20.7565
11070 1 12.4304 17.4915 20.8235
14611 1 12.5293 14.4802 23.5919
14603 1 9.50461 14.6229 23.6345
14656 2 8.12148 19.1635 21.9566
14596 2 8.00506 13.2246 22.2401
209 2 10.977 13.4158 25.0793
14522 2 -0.339083 7.2151 25.0405
14581 2 -0.341672 10.6065 22.1505
14461 2 -0.485423 -0.96976 22.3263
10802 2 -0.522825 -3.63301 19.329
10982 2 -0.588823 13.2997 19.4446
10922 2 -0.237063 7.5538 19.3449
11008 2 13.6613 13.3622 16.5917
85 2 10.793 -0.85353 27.3782
61 2 -0.543795 -0.96829 27.7615
7215 2 7.89367 -6.63279 13.8676
14664 1 10.0292 18.0124 27.7894
10862 2 -0.397777 1.85568 19.5978
14462 2 -0.454725 1.8647 25.1981
10801 2 -0.528068 -6.5657 16.5617
10828 2 13.6209 -3.69722 16.4978
10887 2 13.5083 -0.996031 19.2281
14521 2 -0.470313 4.72321 22.4488
10921 2 -0.466758 4.7395 16.4693
16 2 7.94442 -3.82929 27.7416
7323 2 2.4755 4.55156 13.7805
4 2 2.45113 -3.60233 27.86
148 2 13.5837 7.6534 27.7453
241 2 -0.519014 16.4468 27.8524
3913 2 5.2846 22.026 5.1495
314 2 5.55477 24.65 2.6444
248 1 1.04794 20.3908 3.76444
309 1 4.0218 23.3067 1.10789
303 2 2.43356 21.7826 2.249
310 1 3.74745 23.188 3.70583
3904 2 2.60088 24.8253 5.10529
299 1 0.93149 23.1128 3.86364
305 1 1.01701 23.1306 1.06382
252 1 3.80309 20.4396 3.68851
251 1 3.72423 20.5891 0.934044
247 1 0.823988 20.4 0.886634
307 1 4.00637 26.5552 0.716994
7749 1 3.87903 45.8973 12.1293
362 2 -0.295682 30.5355 2.28147
545 1 0.813363 45.6074 0.656501
313 2 5.16863 21.7217 -0.536959
260 1 6.39152 20.1776 0.731106
3859 1 6.66496 20.5814 3.89165
318 1 6.84668 23.3967 3.81583
317 1 6.6591 22.8066 1.02688
3925 2 10.8557 21.8679 5.32299
329 1 12.7356 23.3495 0.992572
330 1 12.3924 23.3019 3.88725
271 1 12.0652 20.326 0.540616
326 2 11.0912 24.6796 2.3506
321 1 9.38985 23.6536 1.24404
315 2 8.23247 21.8214 2.45698
322 1 9.59168 23.3132 3.77095
3916 2 8.19536 24.8411 5.31037
264 1 9.43889 20.4848 4.05982
272 1 12.1542 20.285 3.85574
263 1 9.53417 21.0882 0.968388
3871 1 12.1277 20.6786 6.7933
512 1 12.2676 43.356 6.6489
4111 1 12.3638 43.0544 9.96128
3923 1 9.54432 26.0816 6.71435
308 1 1.32683 26.2447 0.449891
312 1 4.11833 26.1095 3.61707
3965 1 1.07958 26.0028 3.73426
3973 2 5.3758 27.8475 5.29276
363 2 2.46382 27.5521 2.51307
426 1 1.10491 31.6842 3.69929
367 1 0.936693 31.7875 0.669617
374 2 5.27193 30.5605 2.47962
368 1 0.758784 28.8024 3.47244
370 1 3.78101 29.0956 3.53725
3964 2 2.38369 30.3444 5.10744
371 1 3.65962 31.9196 0.985384
372 1 4.00526 31.7532 3.8963
366 1 1.42042 28.8592 0.749566
311 1 4.06511 29.1667 0.586734
3919 1 6.74833 26.1214 6.68611
381 1 11.5053 31.0608 -0.095695
7765 2 10.8343 44.8146 11.0845
3911 1 3.88389 26.4467 6.44202
3967 1 1.16396 28.8277 6.42521
3968 1 1.24057 31.8715 6.69476
4155 2 8.05231 44.3913 8.23091
3979 1 6.96315 31.9431 6.49583
546 1 1.11567 45.9365 3.93002
319 1 6.55083 25.7998 0.881343
332 1 12.3685 26.2006 3.67485
331 1 11.988 25.9651 0.67447
306 1 6.53247 28.89 0.853641
380 1 6.94628 31.763 3.83487
324 1 9.66408 26.1866 3.76614
320 1 6.89415 26.1026 3.97637
14770 1 6.39734 31.4588 0.468376
323 1 8.97521 26.2933 0.61229
378 1 6.79975 28.9238 3.65357
379 1 9.01307 31.8118 0.971478
3985 2 10.7622 27.5259 5.07935
375 2 8.12181 27.6843 2.26685
390 1 12.4167 28.4453 0.903543
386 2 10.9991 30.414 2.3699
392 1 12.2576 32.0132 3.94007
382 1 9.43314 29.0382 3.82944
3976 2 8.39409 30.4979 5.41727
384 1 9.74938 31.5268 4.00861
395 1 12.312 29.1593 3.61725
377 1 9.5586 29.0663 0.878844
7741 2 -0.22968 44.4331 10.7828
3983 1 9.64203 31.7309 6.96467
3989 1 12.3583 28.6756 6.32424
4101 1 9.41475 40.4237 6.76401
4082 2 -0.405683 41.4818 8.30261
4157 1 6.99504 45.7305 6.62605
7561 2 -0.178959 27.7353 10.9593
3902 2 -0.224254 24.7802 7.94376
4033 2 5.30211 33.3225 5.41973
425 1 1.0975 34.5138 1.22844
434 2 5.46636 35.8473 2.41626
429 1 3.85732 34.672 0.960367
423 2 2.22469 33.2099 2.43298
430 1 3.82988 34.3521 3.87698
4024 2 2.49797 35.9651 5.18252
428 1 1.07163 34.4049 3.86012
486 1 1.0213 37.2857 3.57954
427 1 1.04665 37.2123 0.801277
431 1 3.81954 37.5235 0.890186
432 1 3.86994 37.3503 3.79119
4093 2 5.27124 38.789 5.20591
4037 1 6.46508 34.5971 6.92959
483 2 2.47957 38.7618 2.24091
4021 2 -0.17443 33.1555 5.2361
4039 1 6.83826 37.5757 6.56953
4145 1 1.19679 45.8636 6.63903
438 1 6.63461 34.4679 3.86656
440 1 6.60516 37.0584 3.88586
437 1 6.49679 34.3681 1.05248
439 1 6.72406 37.3416 1.1479
509 1 12.3577 37.7953 0.762162
4045 2 10.9966 32.9286 5.29497
450 1 12.2973 34.662 3.81582
446 2 10.8954 35.6821 2.17588
441 1 9.09389 34.6141 1.16209
435 2 8.01586 33.0094 2.5002
442 1 9.41562 34.7691 3.8878
4036 2 8.12451 35.8034 5.35578
452 1 12.5773 37.3105 3.64468
443 1 9.73052 37.2603 0.930253
444 1 9.62328 37.4276 3.76713
495 2 8.06244 38.6921 2.49854
4105 2 10.7882 38.6378 5.07226
391 1 11.3487 33.0191 1.48402
3927 2 13.6599 22.0394 7.92107
4162 1 9.24861 45.7436 9.69417
7696 2 7.85152 41.7087 10.7846
490 1 4.01655 40.1429 3.95251
4153 2 5.26542 44.4345 5.26264
485 1 1.09354 39.9352 0.973771
487 1 0.791423 42.6965 0.6713
494 2 5.12415 41.5709 2.46436
488 1 1.00541 42.7734 3.76578
489 1 3.64947 40.2794 0.980325
543 2 2.41526 44.0965 2.3454
4084 1 1.17468 40.1598 3.90622
491 1 3.69848 43.0567 0.848826
492 1 3.59922 42.8702 4.01955
482 2 2.45395 41.557 5.17994
500 1 6.54396 43.1851 3.87342
499 1 6.54526 42.9343 0.863919
498 1 6.68936 40.2311 3.9947
497 1 6.6559 39.9915 1.21804
4091 1 3.60718 43.1162 6.70003
4087 1 1.03522 42.996 6.56718
4085 1 0.724135 40.1706 6.93826
4102 1 9.46507 40.2608 9.48581
4089 1 3.59716 40.0675 6.4565
304 2 2.61706 24.4081 -0.40641
3958 1 -0.605976 21.737 8.32613
14910 1 12.2975 40.3305 0.752985
4165 2 10.9084 44.4741 5.09392
510 1 12.4567 40.0585 3.63803
511 1 12.454 42.993 1.21357
506 2 10.8552 41.7451 2.29941
501 1 9.32775 40.017 1.04283
555 2 8.14421 44.5073 2.24436
502 1 9.36594 40.2929 3.78827
4096 2 7.94521 41.6171 5.18888
503 1 9.23432 42.7631 1.17816
504 1 9.57943 43.2864 3.66544
565 1 12.1593 42.8041 4.08628
4099 1 6.37576 42.9674 6.65019
4097 1 6.41794 40.2961 6.65329
388 2 13.1187 33.0344 -0.339159
3847 1 1.14979 20.5035 6.36021
3851 1 4.04978 20.5403 6.54489
3909 1 3.89343 23.4699 6.38009
3905 1 1.3148 23.4509 6.46696
7501 2 -0.144501 22.0626 10.7039
3846 1 1.36211 20.2861 9.1301
7513 2 5.18526 21.8983 10.8816
3906 1 1.06027 23.6834 9.41938
7447 1 1.20189 20.6393 11.8483
3914 2 5.2496 24.934 8.01175
7509 1 3.5005 23.4471 12.4807
3903 2 2.4784 21.9901 7.9809
3910 1 3.73801 23.0706 9.47219
7504 2 2.28239 24.8262 10.9434
7451 1 3.81322 20.2147 12.512
3852 1 3.9152 20.2133 9.7129
7505 1 0.853461 23.3133 12.5904
7507 1 1.0191 25.9068 12.369
7517 1 6.55772 23.2014 12.3242
3860 1 6.58318 20.7165 9.44959
7511 1 3.80071 26.3001 12.2541
7575 2 8.25421 27.484 13.6805
3921 1 9.43436 23.2347 6.69505
3917 1 6.67464 23.5223 6.46546
7519 1 6.72192 26.0289 12.6043
3863 1 9.40442 20.4762 6.80384
3929 1 12.2238 23.3072 6.71841
3864 1 6.81247 20.8405 6.83597
7515 1 6.64974 20.2013 12.3135
3918 1 6.48369 23.4784 9.56865
7528 2 10.8657 22.2753 10.9818
3872 1 12.381 20.6053 9.4181
7529 1 12.2295 20.569 12.4361
7471 1 9.29422 20.6989 12.2433
3930 1 12.3762 23.7109 9.48329
3926 2 10.9846 24.8368 8.08949
7521 1 9.5699 23.6466 12.6363
3915 2 8.08952 22.128 8.21585
3922 1 9.53921 23.6553 9.46679
7516 2 8.00516 24.813 11.0583
7463 1 9.16237 20.4446 9.51245
7523 1 12.3771 23.6824 12.2881
3920 1 6.60455 26.3826 9.38542
3907 1 1.2838 26.0637 6.61502
3901 2 -0.295604 21.9613 5.37979
4103 1 9.5198 43.1085 6.40252
3969 1 3.94064 29.0795 6.33526
3912 1 3.74569 25.9622 9.30862
3908 1 1.07876 26.4447 9.61803
3971 1 4.008 32.0757 6.91149
7573 2 5.23832 27.5507 10.7521
3963 2 2.58943 27.5825 8.10697
7565 1 1.41963 28.9873 12.1466
3966 1 1.2586 29.1986 9.28284
7567 1 1.14641 31.9325 10.117
3974 2 5.49975 30.6515 8.0733
7569 1 4.24447 29.2333 12.0104
3970 1 3.85038 28.8412 9.28538
7564 2 2.71552 30.2809 10.8747
3972 1 3.96007 31.6486 9.46588
7571 1 3.65199 31.8756 12.3085
7579 1 6.56063 31.5365 11.8723
7621 2 -0.562607 33.2279 10.806
3931 1 12.002 26.0367 6.45361
3991 1 12.6309 31.5351 6.49171
4100 1 6.60112 42.9904 9.2997
3977 1 6.63575 29.3818 6.46408
3978 1 6.48589 29.149 9.46665