ITEM: TIMESTEP
70000
ITEM: NUMBER OF ATOMS
18000
ITEM: BOX BOUNDS xy xz yz pp pp pp
-1.8767550064407434e-01 2.8081675500644103e+01 0.0000000000000000e+00
-2.0628511169776611e+00 3.3679085111698600e+02 0.0000000000000000e+00
-1.7576021784429452e-01 2.8069760217844266e+01 0.0000000000000000e+00
ITEM: ATOMS id type q mass x y z
9701 2 2.2208 232.038 13.818 6.39277 -0.0771897
324 1 -1.1104 15.9994 12.4345 5.08418 12.6696
8992 2 2.2208 232.038 13.8828 3.33093 2.72608
4 1 -1.1104 15.9994 12.2978 21.9571 12.5596
323 1 -1.1104 15.9994 9.40905 7.8642 12.8249
322 1 -1.1104 15.9994 6.79484 7.62641 12.5757
673 2 2.2208 232.038 -0.313336 20.6466 -0.173728
8 2 2.2208 232.038 5.4259 0.675958 2.86414
9 1 -1.1104 15.9994 12.2384 7.89012 12.6128
10 2 2.2208 232.038 11.1997 0.692992 2.84472
11 1 -1.1104 15.9994 9.40179 21.9116 12.6263
321 1 -1.1104 15.9994 9.46221 5.14115 12.8697
13 2 2.2208 232.038 2.76178 3.51865 2.7999
14 1 -1.1104 15.9994 6.83922 21.8937 12.6508
663 2 2.2208 232.038 2.68796 6.49544 0.0203048
9101 2 2.2208 232.038 13.9287 23.232 11.222
17 2 2.2208 232.038 8.27215 3.63337 2.76462
18 2 2.2208 232.038 5.52687 6.42383 2.72002
53 2 2.2208 232.038 2.5447 -1.83905 8.40373
20 2 2.2208 232.038 11.0609 6.44702 2.79394
21 1 -1.1104 15.9994 4.02825 22.0089 12.6118
22 1 -1.1104 15.9994 1.10088 16.3244 12.4738
23 2 2.2208 232.038 2.60999 9.32019 2.65952
320 1 -1.1104 15.9994 6.84929 4.67056 12.7955
660 2 2.2208 232.038 5.67691 -1.84654 -0.105125
3 2 2.2208 232.038 2.55314 -2.07816 2.6735
27 2 2.2208 232.038 8.26231 9.1623 2.58568
28 2 2.2208 232.038 5.47985 11.9977 2.70296
12 2 2.2208 232.038 13.6374 20.3537 2.73939
30 2 2.2208 232.038 11.1602 11.9042 2.61079
31 1 -1.1104 15.9994 12.6461 13.4622 12.6876
32 1 -1.1104 15.9994 12.4831 10.6852 12.3495
33 2 2.2208 232.038 2.62983 14.6334 2.65695
319 1 -1.1104 15.9994 3.82476 7.83142 12.3816
35 1 -1.1104 15.9994 9.7208 13.4724 12.574
36 1 -1.1104 15.9994 6.86997 13.1815 12.4234
37 2 2.2208 232.038 8.25897 14.8955 2.74876
38 2 2.2208 232.038 5.30187 17.5168 2.73438
39 1 -1.1104 15.9994 9.76332 10.5295 12.6986
40 2 2.2208 232.038 10.8509 17.4245 2.84008
41 1 -1.1104 15.9994 6.85995 10.6672 12.6258
42 1 -1.1104 15.9994 4.00833 13.3449 12.6962
43 2 2.2208 232.038 2.53348 20.5414 2.67187
318 1 -1.1104 15.9994 1.14583 7.87988 12.3578
45 1 -1.1104 15.9994 1.30771 13.6089 12.656
46 1 -1.1104 15.9994 4.07272 10.5456 12.5661
47 2 2.2208 232.038 8.18902 20.4866 2.75937
48 2 2.2208 232.038 5.44065 23.1228 2.44991
49 1 -1.1104 15.9994 1.12376 10.7197 12.6422
50 2 2.2208 232.038 11.1393 23.2348 2.60238
51 1 -1.1104 15.9994 1.06233 21.9843 12.5962
52 2 2.2208 232.038 2.59952 0.739152 5.53324
8993 2 2.2208 232.038 -0.164795 9.29919 5.56847
54 1 -1.1104 15.9994 12.4895 19.1731 12.8051
9052 2 2.2208 232.038 13.7676 9.05454 8.35545
56 2 2.2208 232.038 8.27122 0.76511 5.7134
103 2 2.2208 232.038 5.57481 -2.02713 11.1555
58 2 2.2208 232.038 5.45605 0.85575 8.52415
670 2 2.2208 232.038 5.27221 14.7277 0.0403471
60 2 2.2208 232.038 11.1027 0.741981 8.47783
61 1 -1.1104 15.9994 12.383 16.4824 12.8593
62 2 2.2208 232.038 2.54435 6.34884 5.35904
63 2 2.2208 232.038 2.66102 3.49639 8.15451
64 1 -1.1104 15.9994 9.76586 19.0939 12.7878
65 2 2.2208 232.038 5.4554 3.51686 5.58439
66 2 2.2208 232.038 8.21434 6.41069 5.56352
67 2 2.2208 232.038 8.27125 3.7053 8.55763
68 2 2.2208 232.038 5.41879 6.27335 8.34955
69 2 2.2208 232.038 11.1085 3.53835 5.64452
70 2 2.2208 232.038 11.1228 6.36958 8.32106
71 1 -1.1104 15.9994 6.84664 19.193 12.6485
72 2 2.2208 232.038 2.53845 12.1813 5.52608
73 2 2.2208 232.038 2.73365 9.22474 8.34178
74 1 -1.1104 15.9994 9.57658 16.3761 12.714
75 2 2.2208 232.038 5.39349 9.17233 5.46908
76 2 2.2208 232.038 8.27322 12.0572 5.59203
77 2 2.2208 232.038 8.24451 9.25242 8.371
78 2 2.2208 232.038 5.44854 12.1298 8.43984
79 2 2.2208 232.038 11.0955 9.27876 5.60903
80 2 2.2208 232.038 10.8628 12.1504 8.46128
317 1 -1.1104 15.9994 4.01435 5.03788 12.5479
82 2 2.2208 232.038 2.42826 17.6838 5.56597
83 2 2.2208 232.038 2.6387 14.8275 8.52826
653 1 -1.1104 15.9994 3.97893 19.1966 1.33298
85 2 2.2208 232.038 5.27569 14.7756 5.64396
86 2 2.2208 232.038 8.39617 17.7561 5.59292
87 2 2.2208 232.038 8.09139 14.9604 8.17974
88 2 2.2208 232.038 5.33033 17.7297 8.44848
89 2 2.2208 232.038 11.0868 14.8478 5.68053
90 2 2.2208 232.038 11.142 17.726 8.44691
26 2 2.2208 232.038 8.31343 12.1275 -0.11687
92 2 2.2208 232.038 2.60382 23.2844 5.36556
93 2 2.2208 232.038 2.64494 20.7337 8.47501
676 2 2.2208 232.038 8.14545 23.302 -0.134748
95 2 2.2208 232.038 5.35887 20.3443 5.45449
96 2 2.2208 232.038 8.22449 23.1465 5.60787
97 2 2.2208 232.038 8.25756 20.5138 8.52972
98 2 2.2208 232.038 5.34596 23.3537 8.27213
99 2 2.2208 232.038 11.0175 20.4356 5.50132
100 2 2.2208 232.038 11.3262 23.2366 8.38993
101 1 -1.1104 15.9994 6.88054 16.1708 12.5695
102 2 2.2208 232.038 2.57711 0.875541 11.3897
325 2 2.2208 232.038 5.40691 3.55234 -0.152572
104 2 2.2208 232.038 8.42247 0.8909 11.3926
667 2 2.2208 232.038 13.8216 17.6517 0.0147663
106 1 -1.1104 15.9994 4.26358 19.2523 12.7384
107 2 2.2208 232.038 2.63465 6.39193 10.8889
108 2 2.2208 232.038 5.48302 3.3961 11.3587
109 2 2.2208 232.038 8.34483 6.37317 11.2682
110 2 2.2208 232.038 10.8896 3.61604 11.4424
111 1 -1.1104 15.9994 1.28136 19.0447 12.4282
112 2 2.2208 232.038 2.78965 12.037 11.2929
113 2 2.2208 232.038 5.37845 9.04821 11.1086
114 2 2.2208 232.038 8.24721 11.9373 11.1427
115 2 2.2208 232.038 10.9923 9.193 11.2366
116 1 -1.1104 15.9994 3.98205 16.289 12.6782
117 2 2.2208 232.038 2.57107 17.8624 11.2425
118 2 2.2208 232.038 5.45281 14.8781 11.3892
119 2 2.2208 232.038 8.11308 17.6777 11.1864
120 2 2.2208 232.038 11.0109 14.9695 11.5284
666 2 2.2208 232.038 2.44368 12.0696 -0.205323
122 2 2.2208 232.038 2.47663 23.4322 11.3643
123 2 2.2208 232.038 5.42848 20.7285 11.0904
124 2 2.2208 232.038 8.18774 23.2756 11.239
125 2 2.2208 232.038 10.9958 20.5185 11.3217
126 1 -1.1104 15.9994 1.31722 -0.603017 1.44772
127 1 -1.1104 15.9994 4.15317 -0.735623 1.43498
128 1 -1.1104 15.9994 1.01718 -0.381749 4.25413
129 1 -1.1104 15.9994 3.79057 -0.734517 4.23593
130 1 -1.1104 15.9994 1.26904 2.30464 1.25259
131 1 -1.1104 15.9994 4.06135 1.89193 1.3692
132 1 -1.1104 15.9994 1.16253 2.19261 4.10934
133 1 -1.1104 15.9994 4.07688 2.14881 4.27116
134 1 -1.1104 15.9994 6.96237 -0.562234 1.38704
135 1 -1.1104 15.9994 9.81314 -0.693779 1.12812
136 1 -1.1104 15.9994 9.66653 -0.534457 4.16944
2 2 2.2208 232.038 13.8257 20.375 8.261
138 1 -1.1104 15.9994 6.81919 2.15841 1.41864
139 1 -1.1104 15.9994 9.63271 2.30024 1.28029
140 1 -1.1104 15.9994 6.78264 -0.630919 4.22633
141 1 -1.1104 15.9994 9.85862 2.18071 4.118
142 1 -1.1104 15.9994 12.3701 -0.758201 1.37175
143 1 -1.1104 15.9994 12.726 -0.622092 4.32653
144 1 -1.1104 15.9994 12.4209 1.96786 1.39237
145 1 -1.1104 15.9994 12.6188 1.81385 4.37075
146 1 -1.1104 15.9994 1.18269 4.99885 1.20961
147 1 -1.1104 15.9994 4.02731 5.04985 1.3119
148 1 -1.1104 15.9994 1.13415 5.0107 4.02195
149 1 -1.1104 15.9994 4.28121 4.79793 4.08988
150 1 -1.1104 15.9994 0.862104 7.57796 1.18731
151 1 -1.1104 15.9994 3.97272 8.09097 1.40593
152 1 -1.1104 15.9994 1.09766 7.77743 3.99102
153 1 -1.1104 15.9994 4.08959 7.93791 4.00896
154 1 -1.1104 15.9994 6.76293 4.90813 1.36084
155 1 -1.1104 15.9994 10.0193 4.85927 1.37729
156 1 -1.1104 15.9994 7.07909 2.07488 4.252
157 1 -1.1104 15.9994 9.41167 4.91287 4.29996
158 1 -1.1104 15.9994 6.89079 7.85662 1.39087
159 1 -1.1104 15.9994 9.86052 7.84495 1.21919
160 1 -1.1104 15.9994 6.92513 5.03381 3.96286
161 1 -1.1104 15.9994 9.6138 7.69573 4.30323
162 1 -1.1104 15.9994 12.6517 4.89435 1.48585
163 1 -1.1104 15.9994 12.3628 4.89446 4.31623
164 1 -1.1104 15.9994 12.5958 7.76765 1.35824
165 1 -1.1104 15.9994 12.4391 7.80271 4.06641
166 1 -1.1104 15.9994 1.39426 10.4918 1.25028
167 1 -1.1104 15.9994 4.26453 10.871 1.07958
168 1 -1.1104 15.9994 1.1819 10.5625 4.17866
169 1 -1.1104 15.9994 4.00739 10.8875 3.98519
170 1 -1.1104 15.9994 1.09595 13.3404 1.34804
171 1 -1.1104 15.9994 4.20464 13.3702 3.95569
172 1 -1.1104 15.9994 1.22636 13.4214 4.27603
173 1 -1.1104 15.9994 6.86595 13.2114 4.21032
174 1 -1.1104 15.9994 6.96622 10.6949 1.24206
175 1 -1.1104 15.9994 9.71382 10.4283 1.33904
176 1 -1.1104 15.9994 6.77454 7.6632 4.2465
177 1 -1.1104 15.9994 9.54379 10.616 4.19095
178 1 -1.1104 15.9994 6.96725 13.4852 1.33438
179 1 -1.1104 15.9994 9.66572 13.2666 1.15805
180 1 -1.1104 15.9994 6.72508 10.4533 4.20169
181 1 -1.1104 15.9994 9.79344 13.4665 4.17698
182 1 -1.1104 15.9994 12.5006 10.5065 1.14495
183 1 -1.1104 15.9994 12.3645 10.4568 4.17255
184 1 -1.1104 15.9994 12.2556 13.4444 1.33607
185 1 -1.1104 15.9994 12.5613 13.3884 4.21427
186 1 -1.1104 15.9994 1.15405 16.0458 1.49433
187 1 -1.1104 15.9994 3.94535 13.5082 1.33833
188 1 -1.1104 15.9994 1.00373 16.3263 4.11981
189 1 -1.1104 15.9994 3.79261 16.174 4.26878
190 1 -1.1104 15.9994 1.07366 19.0784 1.08233
191 1 -1.1104 15.9994 3.88283 16.2057 1.21942
192 1 -1.1104 15.9994 1.08865 19.0812 4.18751
193 1 -1.1104 15.9994 3.9753 18.921 4.04636
194 1 -1.1104 15.9994 6.68472 16.0882 1.15668
195 1 -1.1104 15.9994 9.67696 16.1116 1.24632
196 1 -1.1104 15.9994 6.52579 16.1604 4.00678
197 1 -1.1104 15.9994 9.55657 16.3089 4.18546
198 1 -1.1104 15.9994 6.55428 19.0289 1.62076
199 1 -1.1104 15.9994 9.53067 18.8619 1.34945
200 1 -1.1104 15.9994 6.85985 19.1084 4.3392
201 1 -1.1104 15.9994 9.68292 19.0722 4.0069
202 1 -1.1104 15.9994 12.3448 16.247 1.56479
203 1 -1.1104 15.9994 12.5076 16.1554 4.38118
204 1 -1.1104 15.9994 12.4687 18.8395 1.48563
205 1 -1.1104 15.9994 12.4663 18.9469 4.38272
206 1 -1.1104 15.9994 0.965631 21.8662 1.39335
207 1 -1.1104 15.9994 3.92234 21.8192 1.37301
208 1 -1.1104 15.9994 0.985209 21.9309 4.38949
209 1 -1.1104 15.9994 3.84161 21.5882 4.13436
210 1 -1.1104 15.9994 6.8821 21.7444 1.17997
211 1 -1.1104 15.9994 9.72878 21.6965 1.31133
212 1 -1.1104 15.9994 6.78583 21.9879 4.2132
213 1 -1.1104 15.9994 9.58506 21.8311 4.37531
214 1 -1.1104 15.9994 12.3949 21.6648 1.25863
215 1 -1.1104 15.9994 12.4504 21.9603 4.07999
216 1 -1.1104 15.9994 1.0834 -0.82424 6.9945
217 1 -1.1104 15.9994 3.99917 -0.596609 7.02929
218 1 -1.1104 15.9994 0.81194 -0.721013 9.64106
219 1 -1.1104 15.9994 4.00522 -0.567363 9.78256
220 1 -1.1104 15.9994 0.926771 2.11194 6.84087
221 1 -1.1104 15.9994 4.07982 2.09243 6.74992
222 1 -1.1104 15.9994 1.33607 1.96187 9.58572
223 1 -1.1104 15.9994 4.21891 2.12429 9.91867
224 1 -1.1104 15.9994 6.83916 -0.620576 6.98565
225 1 -1.1104 15.9994 9.62852 -0.536492 7.2966
226 1 -1.1104 15.9994 6.89775 -0.681362 9.83946
227 1 -1.1104 15.9994 9.84962 -0.495527 9.9623
228 1 -1.1104 15.9994 6.9008 2.0848 7.40377
229 1 -1.1104 15.9994 9.65214 2.31058 6.85251
230 1 -1.1104 15.9994 6.95249 2.24512 10.0654
231 1 -1.1104 15.9994 9.60019 2.21773 9.81631
232 1 -1.1104 15.9994 12.7882 -0.509176 7.01585
233 1 -1.1104 15.9994 12.5357 -0.753711 9.86343
234 1 -1.1104 15.9994 12.4852 2.20791 7.28876
235 1 -1.1104 15.9994 12.369 2.32561 10.0553
236 1 -1.1104 15.9994 1.43693 4.75932 6.8143
237 1 -1.1104 15.9994 4.27488 4.72147 7.01682
238 1 -1.1104 15.9994 1.1326 5.06713 9.58302
239 1 -1.1104 15.9994 4.02953 5.00372 9.63473
240 1 -1.1104 15.9994 1.34031 7.77191 6.84633
241 1 -1.1104 15.9994 4.02145 7.55354 6.73234
242 1 -1.1104 15.9994 1.03664 7.83457 9.65418
243 1 -1.1104 15.9994 3.83685 7.80619 9.62382
244 1 -1.1104 15.9994 6.89699 4.6823 7.10588
245 1 -1.1104 15.9994 9.75222 4.98408 7.09622
246 1 -1.1104 15.9994 7.04251 5.13224 9.8095
247 1 -1.1104 15.9994 9.7309 4.94879 10.0287
248 1 -1.1104 15.9994 6.65656 7.55145 6.91069
249 1 -1.1104 15.9994 9.71371 7.77566 7.11566
250 1 -1.1104 15.9994 6.6837 7.84126 9.78612
251 1 -1.1104 15.9994 9.43991 7.64113 9.93953
252 1 -1.1104 15.9994 12.6076 4.83357 7.01638
253 1 -1.1104 15.9994 12.5827 5.10389 9.57973
254 1 -1.1104 15.9994 12.5667 7.70957 6.99374
255 1 -1.1104 15.9994 12.3934 7.71329 9.7961
256 1 -1.1104 15.9994 1.11017 10.668 6.93891
257 1 -1.1104 15.9994 4.04207 10.4273 6.97293
258 1 -1.1104 15.9994 1.22929 10.779 9.81313
259 1 -1.1104 15.9994 3.89809 10.6949 9.77726
260 1 -1.1104 15.9994 1.12801 13.6247 7.14274
261 1 -1.1104 15.9994 3.89727 13.4856 6.96294
262 1 -1.1104 15.9994 1.31444 13.5446 9.86412
263 1 -1.1104 15.9994 4.14419 13.5945 9.88353
264 1 -1.1104 15.9994 6.7726 10.4982 7.23789
265 1 -1.1104 15.9994 9.75975 10.7001 7.05047
266 1 -1.1104 15.9994 7.00011 10.4983 9.8786
267 1 -1.1104 15.9994 9.57772 10.7506 9.88392
268 1 -1.1104 15.9994 6.52363 13.502 6.93953
269 1 -1.1104 15.9994 9.63593 13.6686 7.10287
270 1 -1.1104 15.9994 6.84306 13.4615 9.66228
271 1 -1.1104 15.9994 9.62176 13.5572 9.95463
272 1 -1.1104 15.9994 12.4781 10.5711 6.97411
273 1 -1.1104 15.9994 12.4189 10.2911 9.56943
274 1 -1.1104 15.9994 12.4365 13.4997 6.99183
275 1 -1.1104 15.9994 12.5434 13.2397 9.87931
276 1 -1.1104 15.9994 1.21358 16.3023 7.01108
277 1 -1.1104 15.9994 4.09141 16.2102 7.15369
278 1 -1.1104 15.9994 1.14773 16.2704 9.75774
279 1 -1.1104 15.9994 4.14816 16.1396 9.77492
280 1 -1.1104 15.9994 1.33509 19.1077 7.13526
281 1 -1.1104 15.9994 4.01812 18.948 6.94424
282 1 -1.1104 15.9994 1.46546 19.3359 9.83523
283 1 -1.1104 15.9994 4.20418 19.2072 9.85765
284 1 -1.1104 15.9994 6.86912 16.2584 6.81109
285 1 -1.1104 15.9994 9.89143 16.4562 6.81117
286 1 -1.1104 15.9994 6.91006 16.298 9.78077
287 1 -1.1104 15.9994 9.78792 16.374 9.93931
288 1 -1.1104 15.9994 6.91958 18.8953 7.10303
289 1 -1.1104 15.9994 9.67189 19.2367 6.89492
290 1 -1.1104 15.9994 6.64688 19.3189 9.7528
291 1 -1.1104 15.9994 9.43625 19.2474 9.98669
292 1 -1.1104 15.9994 12.5221 16.2119 7.15686
293 1 -1.1104 15.9994 12.4255 16.216 10.2408
294 1 -1.1104 15.9994 12.5147 18.9635 7.11119
295 1 -1.1104 15.9994 12.3405 19.1338 9.99794
296 1 -1.1104 15.9994 1.08471 22.0086 7.13235
297 1 -1.1104 15.9994 3.96804 21.9148 6.89837
298 1 -1.1104 15.9994 1.01988 21.9397 9.83156
299 1 -1.1104 15.9994 3.7429 22.0664 9.8368
300 1 -1.1104 15.9994 6.75058 21.648 7.06759
301 1 -1.1104 15.9994 9.66674 21.9815 7.27202
302 1 -1.1104 15.9994 6.61441 22.3283 9.70682
303 1 -1.1104 15.9994 9.70376 22.0827 10.0245
304 1 -1.1104 15.9994 12.5312 21.7754 7.02583
305 1 -1.1104 15.9994 12.5455 21.944 9.85179
306 1 -1.1104 15.9994 1.08247 -0.774896 12.69
307 1 -1.1104 15.9994 4.08809 -0.584454 12.6522
308 1 -1.1104 15.9994 1.3659 2.40899 12.5542
309 1 -1.1104 15.9994 4.00081 2.24996 12.6915
310 1 -1.1104 15.9994 6.85273 -0.590475 12.643
311 1 -1.1104 15.9994 9.64045 -0.534631 12.7577
312 1 -1.1104 15.9994 6.93117 2.19853 12.8359
313 1 -1.1104 15.9994 9.79779 2.36148 12.8358
314 1 -1.1104 15.9994 12.3994 -0.740438 12.4807
315 1 -1.1104 15.9994 12.4371 2.09023 12.8463
316 1 -1.1104 15.9994 1.28538 5.13746 12.4708
57 2 2.2208 232.038 8.23411 -1.87693 8.55535
9002 2 2.2208 232.038 13.8117 9.08766 2.74547
16 2 2.2208 232.038 8.41667 6.37684 -0.117414
672 2 2.2208 232.038 11.0474 14.9156 -0.0639949
8991 2 2.2208 232.038 13.8809 11.9178 5.35673
374 2 2.2208 232.038 10.9216 20.3501 0.00177385
8988 2 2.2208 232.038 0.00395692 12.033 8.32145
675 2 2.2208 232.038 5.35518 20.4138 -0.0724607
1 2 2.2208 232.038 13.8647 23.4426 5.56304
5 2 2.2208 232.038 13.8151 14.8988 8.7228
674 2 2.2208 232.038 2.63256 23.2832 0.0595718
9003 2 2.2208 232.038 -0.170201 -2.07729 5.68766
659 2 2.2208 232.038 2.73575 0.52238 -0.107852
8994 2 2.2208 232.038 -0.226662 6.37864 8.23498
661 2 2.2208 232.038 8.32703 0.701629 -0.0893528
55 2 2.2208 232.038 5.55454 -2.03283 5.72197
29 2 2.2208 232.038 11.0229 9.35397 -0.161318
9324 2 2.2208 232.038 13.7484 9.14832 13.9031
59 2 2.2208 232.038 11.045 -1.9333 5.61956
84 2 2.2208 232.038 -0.0849803 17.6724 8.40131
91 2 2.2208 232.038 -0.0737804 20.5287 5.74343
9081 2 2.2208 232.038 13.7261 0.880142 11.1657
9001 2 2.2208 232.038 13.8066 12.1779 -0.0498547
339 2 2.2208 232.038 5.41316 12.0721 13.909
19 2 2.2208 232.038 11.2209 3.53438 0.0751979
669 2 2.2208 232.038 2.55431 17.7092 -0.0277322
671 2 2.2208 232.038 8.13619 17.6796 -0.143981
349 2 2.2208 232.038 5.38895 23.3646 13.754
340 2 2.2208 232.038 11.0644 12.1152 14.093
327 1 -1.1104 15.9994 6.7085 22.059 26.712
331 2 2.2208 232.038 2.58148 3.84973 14.0081
333 2 2.2208 232.038 8.37529 3.46365 14.1546
334 2 2.2208 232.038 5.42906 6.43763 14.0738
9675 2 2.2208 232.038 -0.160635 9.27086 22.4537
332 1 -1.1104 15.9994 9.61449 21.8083 23.9244
384 2 2.2208 232.038 -0.116358 17.6786 19.4217
9663 2 2.2208 232.038 -0.0821681 12.2089 13.9019
330 2 2.2208 232.038 11.0243 0.681782 14.1539
9661 2 2.2208 232.038 -0.0462536 0.645306 14.1581
337 1 -1.1104 15.9994 6.9307 21.7022 23.7285
677 1 -1.1104 15.9994 9.67633 13.6917 26.6736
409 2 2.2208 232.038 11.0546 -1.94516 22.4378
344 2 2.2208 232.038 5.43523 17.9202 14.0481
441 2 2.2208 232.038 -0.166303 20.4779 22.3801
342 1 -1.1104 15.9994 3.99015 21.8104 26.7879
341 2 2.2208 232.038 2.57043 15.1162 14.0727
353 2 2.2208 232.038 2.48183 -2.04139 19.6243
9349 2 2.2208 232.038 13.91 6.42471 17.0239
664 2 2.2208 232.038 -0.176011 14.9912 16.7764
9591 1 -1.1104 15.9994 1.43191 2.21015 23.7203
9673 2 2.2208 232.038 -0.0073178 3.57305 22.5543
405 2 2.2208 232.038 5.47181 -2.00043 22.4918
9700 2 2.2208 232.038 -0.177331 12.0747 19.6021
351 1 -1.1104 15.9994 1.03051 21.7805 26.5968
352 2 2.2208 232.038 2.58498 0.921953 16.9453
394 2 2.2208 232.038 -0.229089 23.2645 19.6409
354 1 -1.1104 15.9994 4.14449 21.6823 24.0337
9340 2 2.2208 232.038 13.8589 -1.94086 19.7838
356 2 2.2208 232.038 8.06035 0.697045 16.9821
329 2 2.2208 232.038 5.37967 0.692391 14.0914
358 2 2.2208 232.038 5.35556 0.812961 19.7292
355 2 2.2208 232.038 5.26606 -2.02004 16.7718
360 2 2.2208 232.038 11.1777 0.842435 19.6676
361 1 -1.1104 15.9994 1.15701 21.6337 23.8258
362 2 2.2208 232.038 2.73666 6.36764 16.8731
363 2 2.2208 232.038 2.6377 3.62605 19.7108
364 1 -1.1104 15.9994 12.5138 18.9209 26.9021
365 2 2.2208 232.038 5.31563 3.59917 16.9107
366 2 2.2208 232.038 8.1161 6.25206 16.7562
367 2 2.2208 232.038 8.34502 3.47616 19.8264
368 2 2.2208 232.038 5.43792 6.41067 19.5732
369 2 2.2208 232.038 11.206 3.53953 16.8403
370 2 2.2208 232.038 11.0602 6.53347 19.5566
371 1 -1.1104 15.9994 12.5203 19.0195 23.9813
372 2 2.2208 232.038 2.58644 12.1194 16.8857
373 2 2.2208 232.038 2.7051 9.21195 19.6637
350 2 2.2208 232.038 11.126 23.2317 14.0283
375 2 2.2208 232.038 5.34126 9.20566 16.9565
376 2 2.2208 232.038 8.3293 12.0577 16.8408
377 2 2.2208 232.038 8.21287 9.14193 19.7455
378 2 2.2208 232.038 5.48939 12.0008 19.813
379 2 2.2208 232.038 11.0252 9.31015 16.8462
380 2 2.2208 232.038 11.0255 12.1597 19.7919
381 1 -1.1104 15.9994 12.541 16.1714 26.8908
382 2 2.2208 232.038 2.9678 17.7822 16.8716
383 2 2.2208 232.038 2.72662 14.8607 19.5183
343 2 2.2208 232.038 8.286 14.9186 14.1234
385 2 2.2208 232.038 5.58941 14.8981 16.8369
386 2 2.2208 232.038 8.24855 17.7923 16.8828
387 2 2.2208 232.038 8.22156 14.8579 19.7813
388 2 2.2208 232.038 5.49304 17.6736 19.6628
389 2 2.2208 232.038 11.1544 14.6972 16.9451
390 2 2.2208 232.038 11.1149 17.6823 19.623
391 1 -1.1104 15.9994 12.5365 21.7742 26.5403
392 2 2.2208 232.038 2.80915 23.5167 16.7416
393 2 2.2208 232.038 2.61711 20.3746 19.6834
655 1 -1.1104 15.9994 9.4881 16.1156 23.8718
395 2 2.2208 232.038 5.42267 20.4729 16.9614
396 2 2.2208 232.038 8.22979 23.1272 16.8965
397 2 2.2208 232.038 8.26675 20.52 19.8094
398 2 2.2208 232.038 5.36676 23.3249 19.8669
399 2 2.2208 232.038 11.0784 20.4928 16.9606
400 2 2.2208 232.038 11.0017 23.3166 19.5954
401 1 -1.1104 15.9994 12.5115 16.2775 24.0066
402 2 2.2208 232.038 2.81768 0.988513 22.4192
444 2 2.2208 232.038 -0.275236 23.3543 25.2561
404 1 -1.1104 15.9994 9.78601 19.1603 26.7142
346 2 2.2208 232.038 2.6741 20.6344 14.0143
406 2 2.2208 232.038 8.19187 0.790534 22.6686
654 1 -1.1104 15.9994 6.56092 16.0523 24.1481
408 2 2.2208 232.038 5.52954 0.873714 25.2877
656 1 -1.1104 15.9994 6.9463 16.4792 26.645
410 2 2.2208 232.038 11.1218 0.685419 25.5096
411 1 -1.1104 15.9994 7.02073 19.3554 27.0475
412 2 2.2208 232.038 2.65927 6.43891 22.5128
413 2 2.2208 232.038 2.79785 3.56822 25.3417
414 1 -1.1104 15.9994 9.9202 18.7791 23.6822
415 2 2.2208 232.038 5.55137 3.74142 22.5772
416 2 2.2208 232.038 8.38404 6.46682 22.6163
417 2 2.2208 232.038 8.16209 3.51143 25.3149
418 2 2.2208 232.038 5.42312 6.54485 25.3107
419 2 2.2208 232.038 11.0729 3.52717 22.6737
420 2 2.2208 232.038 11.0306 6.25729 25.4686
421 1 -1.1104 15.9994 6.85445 18.8699 24.0469
422 2 2.2208 232.038 2.51903 12.0162 22.3513
423 2 2.2208 232.038 2.55923 9.15201 25.3632
424 1 -1.1104 15.9994 9.71972 16.3263 26.6749
425 2 2.2208 232.038 5.47533 9.32828 22.3714
426 2 2.2208 232.038 8.16658 12.0277 22.5136
427 2 2.2208 232.038 8.18461 9.27167 25.2926
428 2 2.2208 232.038 5.3542 11.9064 25.2209
429 2 2.2208 232.038 10.9898 9.22077 22.6493
430 2 2.2208 232.038 11.0086 12.0819 25.2773
652 1 -1.1104 15.9994 1.19892 18.8834 26.4911
432 2 2.2208 232.038 2.35237 17.3434 22.4171
433 2 2.2208 232.038 2.56311 14.5623 25.3491
651 1 -1.1104 15.9994 4.1167 18.9016 26.8715
435 2 2.2208 232.038 5.26688 14.7933 22.5502
436 2 2.2208 232.038 8.16945 17.4866 22.6107
437 2 2.2208 232.038 8.09418 14.9718 25.2307
438 2 2.2208 232.038 5.34867 17.5841 25.2415
439 2 2.2208 232.038 11.0056 14.8712 22.5146
440 2 2.2208 232.038 11.2695 17.5292 25.2914
658 2 2.2208 232.038 13.776 20.3495 25.2926
442 1 -1.1104 15.9994 12.4725 21.7297 23.8977
443 2 2.2208 232.038 2.54222 20.4093 25.2657
336 2 2.2208 232.038 2.51622 9.22078 13.8888
445 2 2.2208 232.038 5.28953 20.4273 22.3571
446 2 2.2208 232.038 8.21843 23.3821 22.529
447 2 2.2208 232.038 8.34138 20.4744 25.2584
448 2 2.2208 232.038 5.289 23.3032 25.3816
449 2 2.2208 232.038 11.0278 20.5069 22.689
450 2 2.2208 232.038 10.9261 23.39 25.3335
451 1 -1.1104 15.9994 1.36073 -0.566185 15.8025
452 1 -1.1104 15.9994 3.93049 -0.744442 15.5748
453 1 -1.1104 15.9994 1.37857 2.3149 15.3069
454 1 -1.1104 15.9994 4.06714 2.0436 15.6296
455 1 -1.1104 15.9994 6.7143 -0.698011 15.5236
456 1 -1.1104 15.9994 9.7581 -0.836897 15.4432
457 1 -1.1104 15.9994 7.04821 2.15692 15.44
458 1 -1.1104 15.9994 9.68721 2.13974 15.6028
459 1 -1.1104 15.9994 12.5263 -0.681015 15.2686
460 1 -1.1104 15.9994 12.5278 2.02005 15.5414
461 1 -1.1104 15.9994 1.20536 5.15802 15.251
462 1 -1.1104 15.9994 4.01329 4.97007 15.646
463 1 -1.1104 15.9994 0.950052 7.90414 15.2336
464 1 -1.1104 15.9994 3.78057 7.70823 15.2433
465 1 -1.1104 15.9994 6.68385 4.96245 15.3821
466 1 -1.1104 15.9994 9.60959 4.99343 15.5757
467 1 -1.1104 15.9994 6.8018 7.66881 15.5372
468 1 -1.1104 15.9994 9.75168 7.63944 15.4974
469 1 -1.1104 15.9994 12.6613 4.94864 15.6086
470 1 -1.1104 15.9994 12.576 7.7252 15.3759
471 1 -1.1104 15.9994 1.33865 10.7936 15.3203
472 1 -1.1104 15.9994 3.88735 10.3192 15.5198
473 1 -1.1104 15.9994 1.09492 13.5529 15.3008
474 1 -1.1104 15.9994 3.98953 13.6991 15.2927
475 1 -1.1104 15.9994 6.79444 10.5441 15.6374
476 1 -1.1104 15.9994 9.57493 10.6579 15.4461
477 1 -1.1104 15.9994 6.84633 13.2792 15.5728
478 1 -1.1104 15.9994 9.50725 13.356 15.2351
479 1 -1.1104 15.9994 12.2237 10.5129 15.3604
480 1 -1.1104 15.9994 12.4865 13.4057 15.5735
481 1 -1.1104 15.9994 1.05822 16.3829 15.293
482 1 -1.1104 15.9994 4.1921 16.4266 15.3249
483 1 -1.1104 15.9994 1.71729 18.9655 15.245
484 1 -1.1104 15.9994 4.10808 19.19 15.5336
485 1 -1.1104 15.9994 7.06258 16.2985 15.4833
486 1 -1.1104 15.9994 9.81859 16.1986 15.7501
487 1 -1.1104 15.9994 6.84582 19.2056 15.4784
488 1 -1.1104 15.9994 9.70952 19.2347 15.4464
489 1 -1.1104 15.9994 12.6897 16.1228 15.4285
490 1 -1.1104 15.9994 12.4425 19.1299 15.6067
491 1 -1.1104 15.9994 1.35938 22.1692 15.2412
492 1 -1.1104 15.9994 4.10375 22.1457 15.3943
493 1 -1.1104 15.9994 6.83107 22.0418 15.5597
494 1 -1.1104 15.9994 9.68415 22.1091 15.4374
495 1 -1.1104 15.9994 12.5797 21.96 15.2405
496 1 -1.1104 15.9994 1.14813 -0.819566 18.216
497 1 -1.1104 15.9994 3.96526 -0.612474 18.3113
498 1 -1.1104 15.9994 1.29166 -0.641014 21.2462
499 1 -1.1104 15.9994 3.83746 -0.599277 21.0529
500 1 -1.1104 15.9994 0.996276 2.03912 18.2047
501 1 -1.1104 15.9994 3.96057 2.10449 18.4647
502 1 -1.1104 15.9994 1.12969 2.15269 21.0277
503 1 -1.1104 15.9994 4.04144 2.32844 21.049
504 1 -1.1104 15.9994 6.64863 -0.57337 18.2041
505 1 -1.1104 15.9994 9.30697 -0.653254 18.1188
506 1 -1.1104 15.9994 6.78103 -0.443747 21.1313
507 1 -1.1104 15.9994 9.73595 -0.763257 21.1177
508 1 -1.1104 15.9994 6.75005 2.15425 18.4284
509 1 -1.1104 15.9994 9.93496 2.064 18.2895
510 1 -1.1104 15.9994 6.92906 2.25158 21.214
511 1 -1.1104 15.9994 9.73105 2.09492 21.0366
512 1 -1.1104 15.9994 12.5031 -0.501872 18.3622
513 1 -1.1104 15.9994 12.5463 -0.546541 21.289
514 1 -1.1104 15.9994 12.6666 2.30541 18.2701
515 1 -1.1104 15.9994 12.3981 2.308 20.9957
516 1 -1.1104 15.9994 1.28114 4.81955 18.1305
517 1 -1.1104 15.9994 4.07832 5.10167 18.3378
518 1 -1.1104 15.9994 1.12411 5.11388 20.823
519 1 -1.1104 15.9994 3.98279 4.94401 21.0958
520 1 -1.1104 15.9994 1.16023 7.81229 18.2831
521 1 -1.1104 15.9994 4.05322 7.653 18.2184
522 1 -1.1104 15.9994 1.27458 7.6953 21.0089
523 1 -1.1104 15.9994 4.19369 7.88906 21.099
524 1 -1.1104 15.9994 6.6718 4.87194 18.2253
525 1 -1.1104 15.9994 9.29123 4.98454 18.3807
526 1 -1.1104 15.9994 6.735 5.21399 21.1793
527 1 -1.1104 15.9994 9.59196 5.09716 21.0871
528 1 -1.1104 15.9994 6.60925 7.90617 18.3116
529 1 -1.1104 15.9994 9.64875 7.72956 18.4126
530 1 -1.1104 15.9994 6.81218 7.86556 21.0759
531 1 -1.1104 15.9994 9.64033 8.02163 21.3816
532 1 -1.1104 15.9994 12.4366 4.89437 18.474
533 1 -1.1104 15.9994 12.4258 4.92087 21.2514
534 1 -1.1104 15.9994 12.4716 7.67619 18.0157
535 1 -1.1104 15.9994 12.3922 7.66885 21.0234
536 1 -1.1104 15.9994 0.999882 10.6801 18.1472
537 1 -1.1104 15.9994 3.87793 10.391 18.2205
538 1 -1.1104 15.9994 1.2371 10.4671 20.8464
539 1 -1.1104 15.9994 3.99614 10.704 21.0481
540 1 -1.1104 15.9994 1.3163 13.424 18.0864
541 1 -1.1104 15.9994 4.29321 13.2633 18.2458
542 1 -1.1104 15.9994 1.11651 13.4097 20.8779
543 1 -1.1104 15.9994 3.99509 13.4433 21.0221
544 1 -1.1104 15.9994 7.02385 10.5523 18.4706
545 1 -1.1104 15.9994 9.64531 10.4505 18.2873
546 1 -1.1104 15.9994 6.84078 10.5593 21.0383
547 1 -1.1104 15.9994 9.41768 10.7627 21.1181
548 1 -1.1104 15.9994 6.94926 13.4693 18.5173
549 1 -1.1104 15.9994 9.68821 13.6009 18.2867
550 1 -1.1104 15.9994 6.68848 13.58 21.17
551 1 -1.1104 15.9994 9.47345 13.4061 21.1267
552 1 -1.1104 15.9994 12.3833 10.5864 18.2344
553 1 -1.1104 15.9994 12.4971 10.4921 21.1075
554 1 -1.1104 15.9994 12.4483 13.3238 18.3449
555 1 -1.1104 15.9994 12.3324 13.5259 21.045
556 1 -1.1104 15.9994 1.40489 16.2866 18.1979
557 1 -1.1104 15.9994 4.19804 16.2401 17.9884
558 1 -1.1104 15.9994 1.22283 16.0659 21.0231
559 1 -1.1104 15.9994 4.01385 16.2302 20.9391
560 1 -1.1104 15.9994 1.57338 18.9266 18.3457
561 1 -1.1104 15.9994 4.16661 18.9394 18.634
562 1 -1.1104 15.9994 1.18494 18.7937 23.7449
563 1 -1.1104 15.9994 3.95964 19.1497 21.3236
564 1 -1.1104 15.9994 6.82932 16.2751 18.2516
565 1 -1.1104 15.9994 9.68034 16.3123 18.3837
566 1 -1.1104 15.9994 6.7322 16.0741 21.2407
567 1 -1.1104 15.9994 9.60116 16.2771 21.2327
568 1 -1.1104 15.9994 6.81483 19.2031 18.513
569 1 -1.1104 15.9994 9.52612 19.1306 18.1834
570 1 -1.1104 15.9994 6.91524 18.7783 21.3516
571 1 -1.1104 15.9994 9.7208 19.2573 21.0134
572 1 -1.1104 15.9994 12.3973 16.2193 18.1667
573 1 -1.1104 15.9994 12.5171 16.1589 21.0781
574 1 -1.1104 15.9994 12.386 19.0709 18.2852
575 1 -1.1104 15.9994 12.5635 19.0072 20.9781
576 1 -1.1104 15.9994 0.917932 21.5177 20.583
577 1 -1.1104 15.9994 3.46012 22.0045 18.1153
578 1 -1.1104 15.9994 1.00331 18.7859 21.1041
579 1 -1.1104 15.9994 4.08212 21.8482 20.8754
580 1 -1.1104 15.9994 6.50885 21.8397 18.2687
581 1 -1.1104 15.9994 9.44459 21.736 18.3495
582 1 -1.1104 15.9994 6.93675 22.0537 20.98
583 1 -1.1104 15.9994 9.62708 21.9352 21.251
584 1 -1.1104 15.9994 12.3402 21.9985 18.2325
585 1 -1.1104 15.9994 12.451 21.79 21.1296
338 2 2.2208 232.038 8.13926 9.33436 14.0974
587 1 -1.1104 15.9994 4.11387 -0.387235 23.791
588 1 -1.1104 15.9994 1.29758 -0.660073 26.811
589 1 -1.1104 15.9994 4.19745 -0.657817 26.6181
590 1 -1.1104 15.9994 1.23098 -0.649676 23.9609
591 1 -1.1104 15.9994 4.18441 2.19926 24.0083
592 1 -1.1104 15.9994 1.21051 2.2781 26.5641
593 1 -1.1104 15.9994 4.07441 2.08968 26.802
594 1 -1.1104 15.9994 6.73874 -0.889654 23.9418
595 1 -1.1104 15.9994 9.47899 -0.611237 23.915
596 1 -1.1104 15.9994 7.05341 -0.500937 26.5798
597 1 -1.1104 15.9994 9.88485 -0.916089 26.5295
598 1 -1.1104 15.9994 7.08095 2.23089 24.0109
599 1 -1.1104 15.9994 9.84487 1.96142 24.0727
600 1 -1.1104 15.9994 6.76069 2.25062 26.7367
601 1 -1.1104 15.9994 9.62191 1.81788 26.7559
602 1 -1.1104 15.9994 12.6322 -0.798218 24.06
603 1 -1.1104 15.9994 12.6104 -0.74068 26.7136
604 1 -1.1104 15.9994 12.4565 1.91584 24.1799
605 1 -1.1104 15.9994 12.6707 2.14715 26.8821
606 1 -1.1104 15.9994 1.15472 5.20345 23.6042
607 1 -1.1104 15.9994 3.87926 4.93302 24.0118
608 1 -1.1104 15.9994 1.02496 4.86064 26.5331
609 1 -1.1104 15.9994 4.07917 4.84236 26.7571
610 1 -1.1104 15.9994 1.16875 7.97269 23.7601
611 1 -1.1104 15.9994 4.04976 7.86064 24.0394
612 1 -1.1104 15.9994 1.33311 7.73065 26.7134
613 1 -1.1104 15.9994 4.02432 7.69885 26.806
614 1 -1.1104 15.9994 6.83962 5.07204 24.0187
615 1 -1.1104 15.9994 9.67921 4.95754 24.0316
616 1 -1.1104 15.9994 6.98031 4.96751 26.8601
617 1 -1.1104 15.9994 9.64294 4.92778 26.8123
618 1 -1.1104 15.9994 6.67944 8.0386 24.0162
619 1 -1.1104 15.9994 9.73159 7.8301 24.137
620 1 -1.1104 15.9994 6.97398 7.86277 26.781
621 1 -1.1104 15.9994 9.75062 7.76899 26.853
622 1 -1.1104 15.9994 12.6962 4.75013 24.121
623 1 -1.1104 15.9994 12.6288 4.88657 26.8822
624 1 -1.1104 15.9994 12.375 7.59344 23.9449
625 1 -1.1104 15.9994 12.6486 7.73545 26.7377
626 1 -1.1104 15.9994 1.11175 10.5687 23.6967
627 1 -1.1104 15.9994 3.83857 10.6739 23.7568
628 1 -1.1104 15.9994 1.17158 10.4993 26.6759
629 1 -1.1104 15.9994 3.88968 10.3421 26.4788
630 1 -1.1104 15.9994 1.39786 13.2366 23.6953
631 1 -1.1104 15.9994 4.03448 13.2848 24.0165
632 1 -1.1104 15.9994 1.07272 13.3283 26.5451