ITEM: TIMESTEP
30000
ITEM: NUMBER OF ATOMS
18000
ITEM: BOX BOUNDS xy xz yz pp pp pp
-1.7426211642599265e-01 2.8068262116425913e+01 0.0000000000000000e+00
-2.1692461107745040e+00 3.3689724611077446e+02 0.0000000000000000e+00
-1.8850955946466563e-01 2.8082509559464576e+01 0.0000000000000000e+00
ITEM: ATOMS id type q mass x y z
57 2 2.2208 232.038 8.10271 -2.05378 8.63146
324 1 -1.1104 15.9994 12.5671 4.99666 12.6933
7 2 2.2208 232.038 7.95873 -2.05632 2.69387
4 1 -1.1104 15.9994 12.4335 21.6482 12.7403
323 1 -1.1104 15.9994 9.52371 7.55226 12.7198
322 1 -1.1104 15.9994 6.66599 7.63436 12.5504
9101 2 2.2208 232.038 13.798 23.0576 11.2865
8 2 2.2208 232.038 5.17242 0.550614 2.5535
9 1 -1.1104 15.9994 12.2408 7.9927 12.8711
10 2 2.2208 232.038 11.1198 0.487303 2.7284
11 1 -1.1104 15.9994 9.94777 22.0134 12.4773
321 1 -1.1104 15.9994 9.59099 4.91312 12.881
13 2 2.2208 232.038 2.23578 3.66851 2.66452
14 1 -1.1104 15.9994 7.11241 21.5989 12.671
44 2 2.2208 232.038 -0.118721 23.2711 2.58136
660 2 2.2208 232.038 5.38867 -2.14917 -0.18326
17 2 2.2208 232.038 8.2888 3.46097 2.48949
18 2 2.2208 232.038 5.35131 6.20812 2.64899
9001 2 2.2208 232.038 13.9142 11.8995 -0.0509038
20 2 2.2208 232.038 11.0437 6.28839 2.64348
21 1 -1.1104 15.9994 4.04076 21.8601 12.5592
22 1 -1.1104 15.9994 0.906774 16.1556 12.4855
23 2 2.2208 232.038 2.5441 9.18393 2.42556
320 1 -1.1104 15.9994 6.56431 4.47995 12.8663
675 2 2.2208 232.038 5.32355 20.4555 -0.196692
9086 2 2.2208 232.038 13.8311 6.43254 11.4642
27 2 2.2208 232.038 8.07182 8.91596 2.66232
28 2 2.2208 232.038 5.59279 12.0321 2.63328
6 2 2.2208 232.038 13.8754 17.4754 5.61435
30 2 2.2208 232.038 11.0982 11.7667 2.76095
31 1 -1.1104 15.9994 12.5114 13.5879 12.6531
32 1 -1.1104 15.9994 12.4681 10.6492 12.5556
33 2 2.2208 232.038 2.50043 14.8966 2.57812
319 1 -1.1104 15.9994 3.89559 7.71512 12.4181
35 1 -1.1104 15.9994 9.61942 13.2502 12.6714
36 1 -1.1104 15.9994 6.71222 13.3183 12.3882
37 2 2.2208 232.038 8.57845 14.5451 2.72388
38 2 2.2208 232.038 5.51897 17.4451 2.58612
39 1 -1.1104 15.9994 9.5356 10.3896 12.5674
40 2 2.2208 232.038 11.1725 17.583 2.51971
41 1 -1.1104 15.9994 6.79102 10.4835 12.4623
42 1 -1.1104 15.9994 3.76868 13.1634 12.4423
43 2 2.2208 232.038 2.5993 20.325 2.59663
318 1 -1.1104 15.9994 1.32357 7.68682 12.6179
45 1 -1.1104 15.9994 1.03727 13.2159 12.4144
46 1 -1.1104 15.9994 3.88712 10.4349 12.5768
47 2 2.2208 232.038 8.25537 20.3288 2.63109
48 2 2.2208 232.038 5.38132 23.1385 2.70819
49 1 -1.1104 15.9994 1.12822 10.2998 12.5924
50 2 2.2208 232.038 10.812 23.0622 2.66594
51 1 -1.1104 15.9994 1.37808 21.8629 12.4794
52 2 2.2208 232.038 2.68815 0.744007 5.57894
103 2 2.2208 232.038 5.36285 -2.11921 11.2242
54 1 -1.1104 15.9994 12.4071 18.827 12.5708
9677 2 2.2208 232.038 13.8761 0.517772 -0.158399
56 2 2.2208 232.038 8.17644 0.477035 5.7366
34 2 2.2208 232.038 -0.159858 17.5114 2.68912
58 2 2.2208 232.038 5.24845 0.658538 8.4028
659 2 2.2208 232.038 2.51447 0.756393 -0.0604629
60 2 2.2208 232.038 10.9315 0.724667 8.5008
61 1 -1.1104 15.9994 12.4695 16.1849 12.8767
62 2 2.2208 232.038 2.52453 6.27857 5.57566
63 2 2.2208 232.038 2.38332 3.43063 8.52293
64 1 -1.1104 15.9994 9.57424 18.914 12.7055
65 2 2.2208 232.038 5.15596 3.54294 5.73295
66 2 2.2208 232.038 8.22527 6.18865 5.5239
67 2 2.2208 232.038 8.02387 3.45433 8.32823
68 2 2.2208 232.038 5.4948 6.42424 8.45357
69 2 2.2208 232.038 11.0627 3.27969 5.49273
70 2 2.2208 232.038 11.0468 6.23788 8.37752
71 1 -1.1104 15.9994 6.75546 18.7524 12.7005
72 2 2.2208 232.038 2.60097 11.9531 5.46544
73 2 2.2208 232.038 2.61791 8.97639 8.31142
74 1 -1.1104 15.9994 9.38863 16.1633 12.5703
75 2 2.2208 232.038 5.36324 9.0224 5.40359
76 2 2.2208 232.038 8.14179 11.8491 5.66165
77 2 2.2208 232.038 8.27406 8.92225 8.32433
78 2 2.2208 232.038 5.49541 11.9572 8.31747
79 2 2.2208 232.038 11.091 9.11065 5.61361
80 2 2.2208 232.038 10.9634 12.0379 8.42878
317 1 -1.1104 15.9994 3.77677 4.84699 12.4586
82 2 2.2208 232.038 2.5595 17.4897 5.43446
83 2 2.2208 232.038 2.62984 14.6286 8.30257
9002 2 2.2208 232.038 13.6769 9.04733 2.84594
85 2 2.2208 232.038 5.36944 14.7366 5.62899
86 2 2.2208 232.038 8.29374 17.4948 5.41428
87 2 2.2208 232.038 8.14214 14.7566 8.26279
88 2 2.2208 232.038 5.29729 17.547 8.44345
89 2 2.2208 232.038 11.0471 14.6631 5.5854
90 2 2.2208 232.038 10.7415 17.3384 8.26551
5 2 2.2208 232.038 13.8509 14.795 8.31019
92 2 2.2208 232.038 2.42026 23.1967 5.3827
93 2 2.2208 232.038 2.48188 20.3082 8.30717
2 2 2.2208 232.038 13.6789 20.0176 8.40334
95 2 2.2208 232.038 5.27504 20.2739 5.43287
96 2 2.2208 232.038 8.14224 23.1183 5.57972
97 2 2.2208 232.038 7.93452 20.2894 8.22869
98 2 2.2208 232.038 5.11072 23.0816 8.38398
99 2 2.2208 232.038 11.113 20.1742 5.24341
100 2 2.2208 232.038 10.8701 22.6774 8.16976
101 1 -1.1104 15.9994 6.44262 15.8602 12.7729
102 2 2.2208 232.038 2.47254 0.556301 11.2209
674 2 2.2208 232.038 2.69465 23.3229 -0.137214
104 2 2.2208 232.038 8.10565 0.579508 11.2658
9042 2 2.2208 232.038 13.8124 3.72476 8.46967
106 1 -1.1104 15.9994 3.89893 18.7286 12.646
107 2 2.2208 232.038 2.5718 6.14592 11.0892
108 2 2.2208 232.038 5.39577 3.29065 11.1423
109 2 2.2208 232.038 8.11494 6.19722 11.4711
110 2 2.2208 232.038 10.9205 3.55961 11.3074
111 1 -1.1104 15.9994 1.17432 18.9492 12.1743
112 2 2.2208 232.038 2.55001 11.8154 11.139
113 2 2.2208 232.038 5.32361 9.10669 11.1504
114 2 2.2208 232.038 8.1021 11.9395 11.1375
115 2 2.2208 232.038 10.8135 9.07053 11.2552
116 1 -1.1104 15.9994 3.51713 15.6654 12.0573
117 2 2.2208 232.038 2.50092 17.5028 11.1926
118 2 2.2208 232.038 5.30658 14.6406 11.1115
119 2 2.2208 232.038 8.23704 17.5804 11.2135
120 2 2.2208 232.038 10.9346 14.7031 11.3891
55 2 2.2208 232.038 5.13009 -2.27303 5.68562
122 2 2.2208 232.038 2.70153 23.2864 11.2197
123 2 2.2208 232.038 5.30519 20.3488 11.2522
124 2 2.2208 232.038 8.21778 23.0929 11.2097
125 2 2.2208 232.038 10.9262 20.1768 11.2375
126 1 -1.1104 15.9994 1.23515 -0.524873 1.57453
127 1 -1.1104 15.9994 3.80606 -0.86302 1.19454
128 1 -1.1104 15.9994 1.21744 -0.642733 4.32554
129 1 -1.1104 15.9994 4.17782 -1.01607 3.95461
130 1 -1.1104 15.9994 0.638434 2.38742 1.44739
131 1 -1.1104 15.9994 3.64624 1.98831 1.65276
132 1 -1.1104 15.9994 1.27959 2.1416 4.39102
133 1 -1.1104 15.9994 4.3269 1.85607 4.38072
134 1 -1.1104 15.9994 6.28895 -0.33227 1.02742
135 1 -1.1104 15.9994 9.46232 -0.870813 1.34597
136 1 -1.1104 15.9994 9.64949 -0.878587 4.1733
9096 2 2.2208 232.038 14.0848 17.7008 11.2847
138 1 -1.1104 15.9994 6.93713 2.03669 1.529
139 1 -1.1104 15.9994 9.64749 1.90225 1.0367
140 1 -1.1104 15.9994 6.85366 -0.425497 3.86566
141 1 -1.1104 15.9994 9.18888 1.9133 4.21326
142 1 -1.1104 15.9994 12.5252 -0.873731 1.1639
143 1 -1.1104 15.9994 12.5611 -0.844171 3.99086
144 1 -1.1104 15.9994 12.5186 1.87719 1.79872
145 1 -1.1104 15.9994 12.2896 1.90207 4.36983
146 1 -1.1104 15.9994 0.838234 5.23785 1.34048
147 1 -1.1104 15.9994 4.0018 4.78945 1.32572
148 1 -1.1104 15.9994 0.975358 5.00059 4.19911
149 1 -1.1104 15.9994 3.83148 4.70561 4.15477
150 1 -1.1104 15.9994 1.03219 7.71644 1.15323
151 1 -1.1104 15.9994 3.8888 7.53559 1.18867
152 1 -1.1104 15.9994 0.994686 7.71725 4.11614
153 1 -1.1104 15.9994 3.82663 7.39506 3.73314
154 1 -1.1104 15.9994 6.95341 4.84936 1.14624
155 1 -1.1104 15.9994 9.62878 4.9914 1.18563
156 1 -1.1104 15.9994 6.78974 4.4932 4.21602
157 1 -1.1104 15.9994 9.53297 4.74761 4.03887
158 1 -1.1104 15.9994 6.59621 7.69941 1.24824
159 1 -1.1104 15.9994 9.58574 7.62515 1.23385
160 1 -1.1104 15.9994 6.68619 7.3056 4.00649
161 1 -1.1104 15.9994 9.69035 7.7549 4.21585
162 1 -1.1104 15.9994 12.5163 4.86029 1.28179
163 1 -1.1104 15.9994 12.3613 4.68766 4.15012
164 1 -1.1104 15.9994 12.2663 7.72615 1.17472
165 1 -1.1104 15.9994 12.4331 7.49089 4.00637
166 1 -1.1104 15.9994 1.12644 10.5907 1.2817
167 1 -1.1104 15.9994 3.7736 10.5704 0.965535
168 1 -1.1104 15.9994 1.17562 10.4175 3.85882
169 1 -1.1104 15.9994 3.90542 10.5538 3.94786
170 1 -1.1104 15.9994 1.5135 13.3703 1.35911
171 1 -1.1104 15.9994 4.21554 13.2803 1.25797
172 1 -1.1104 15.9994 1.13558 13.1853 4.03814
173 1 -1.1104 15.9994 4.21168 13.4335 4.11096
174 1 -1.1104 15.9994 6.7381 10.4741 1.29222
175 1 -1.1104 15.9994 9.41641 10.2042 1.15409
176 1 -1.1104 15.9994 6.7597 10.4567 4.12699
177 1 -1.1104 15.9994 9.50877 10.6396 4.11456
178 1 -1.1104 15.9994 6.99561 13.3277 1.30257
179 1 -1.1104 15.9994 9.77627 12.9547 1.40381
180 1 -1.1104 15.9994 6.96851 13.1563 4.1524
181 1 -1.1104 15.9994 9.68806 13.2691 4.51011
182 1 -1.1104 15.9994 12.2187 10.4649 1.34201
183 1 -1.1104 15.9994 12.5384 10.4206 4.22662
184 1 -1.1104 15.9994 12.5374 13.2641 1.52456
185 1 -1.1104 15.9994 12.4282 13.1595 4.15601
186 1 -1.1104 15.9994 0.968557 16.0899 1.31404
187 1 -1.1104 15.9994 4.04383 16.0949 1.30344
188 1 -1.1104 15.9994 1.08872 16.0947 3.97245
189 1 -1.1104 15.9994 4.13293 16.2096 4.03715
190 1 -1.1104 15.9994 1.38726 18.7816 1.32025
191 1 -1.1104 15.9994 4.11826 18.9431 1.28777
192 1 -1.1104 15.9994 1.21385 19.0069 4.13314
193 1 -1.1104 15.9994 3.81426 18.8737 4.13158
194 1 -1.1104 15.9994 7.12663 15.9338 1.12103
195 1 -1.1104 15.9994 9.7981 15.9198 1.35008
196 1 -1.1104 15.9994 7.24716 16.2164 3.97433
197 1 -1.1104 15.9994 10.0847 15.9865 3.92309
198 1 -1.1104 15.9994 7.10749 18.7923 1.49988
199 1 -1.1104 15.9994 9.88139 18.6687 0.863251
200 1 -1.1104 15.9994 6.87593 19.0101 4.01105
201 1 -1.1104 15.9994 9.60429 18.9255 3.98179
202 1 -1.1104 15.9994 12.5616 16.1134 1.03963
203 1 -1.1104 15.9994 12.7474 16.0123 4.23241
204 1 -1.1104 15.9994 12.8799 18.8888 1.34741
205 1 -1.1104 15.9994 12.5671 18.8406 3.9701
206 1 -1.1104 15.9994 1.25627 21.6673 1.32135
207 1 -1.1104 15.9994 3.92407 21.8118 1.35985
208 1 -1.1104 15.9994 0.974227 21.8707 3.93494
209 1 -1.1104 15.9994 3.87117 21.6055 4.03103
210 1 -1.1104 15.9994 6.74632 21.5973 1.21128
211 1 -1.1104 15.9994 9.54102 21.8242 1.13176
212 1 -1.1104 15.9994 6.88172 21.7636 3.97948
213 1 -1.1104 15.9994 9.55886 21.7774 4.22991
214 1 -1.1104 15.9994 12.344 21.4711 1.49481
215 1 -1.1104 15.9994 12.3584 21.4728 4.15418
216 1 -1.1104 15.9994 1.15874 -0.967835 7.19593
217 1 -1.1104 15.9994 4.04357 -0.779399 6.91449
218 1 -1.1104 15.9994 1.05667 -0.986072 10.0428
219 1 -1.1104 15.9994 3.93861 -0.916805 9.95308
220 1 -1.1104 15.9994 0.965064 1.8804 6.89105
221 1 -1.1104 15.9994 3.8003 1.92985 7.13375
222 1 -1.1104 15.9994 1.06204 1.98183 9.88714
223 1 -1.1104 15.9994 3.83255 1.94849 9.82763
224 1 -1.1104 15.9994 6.69434 -0.91527 7.05968
225 1 -1.1104 15.9994 9.62104 -0.828346 7.03437
226 1 -1.1104 15.9994 6.72502 -0.855042 9.96371
227 1 -1.1104 15.9994 9.63356 -0.660811 9.98044
228 1 -1.1104 15.9994 6.60126 1.97052 6.70869
229 1 -1.1104 15.9994 9.44227 1.94147 7.03452
230 1 -1.1104 15.9994 6.73734 1.85106 9.67617
231 1 -1.1104 15.9994 9.62756 2.11624 9.90455
232 1 -1.1104 15.9994 12.128 -0.618238 6.73421
233 1 -1.1104 15.9994 12.3107 -0.580166 9.92859
234 1 -1.1104 15.9994 12.4883 1.94144 7.26912
235 1 -1.1104 15.9994 12.3555 2.35276 9.86114
236 1 -1.1104 15.9994 1.01372 4.85978 7.03419
237 1 -1.1104 15.9994 3.85417 4.75852 7.16729
238 1 -1.1104 15.9994 1.08726 4.69585 9.74739
239 1 -1.1104 15.9994 3.96998 4.85475 9.86918
240 1 -1.1104 15.9994 1.26483 7.7168 6.6956
241 1 -1.1104 15.9994 3.92523 7.55398 6.84479
242 1 -1.1104 15.9994 1.19659 7.60055 9.75101
243 1 -1.1104 15.9994 3.70151 7.55458 9.61384
244 1 -1.1104 15.9994 6.61964 4.75375 7.17815
245 1 -1.1104 15.9994 9.38469 4.86451 7.0336
246 1 -1.1104 15.9994 6.85152 4.76299 9.98005
247 1 -1.1104 15.9994 9.45528 4.75617 10.0733
248 1 -1.1104 15.9994 6.65578 7.40797 6.80366
249 1 -1.1104 15.9994 9.53703 7.67021 6.97164
250 1 -1.1104 15.9994 6.68533 7.80073 9.71009
251 1 -1.1104 15.9994 9.52727 7.56007 9.81536
252 1 -1.1104 15.9994 12.2918 4.86305 7.03397
253 1 -1.1104 15.9994 12.265 5.03639 9.84032
254 1 -1.1104 15.9994 12.3924 7.77691 7.04729
255 1 -1.1104 15.9994 12.2744 7.79099 9.92451
256 1 -1.1104 15.9994 1.41863 10.3615 6.86825
257 1 -1.1104 15.9994 4.20299 10.5066 6.80812
258 1 -1.1104 15.9994 1.15778 10.3857 9.64895
259 1 -1.1104 15.9994 4.12233 10.2898 9.8161
260 1 -1.1104 15.9994 1.24415 13.2644 6.84608
261 1 -1.1104 15.9994 3.91025 13.1563 6.96119
262 1 -1.1104 15.9994 1.21743 13.321 9.70441
263 1 -1.1104 15.9994 3.96845 13.0941 9.74182
264 1 -1.1104 15.9994 7.1496 10.2262 6.86691
265 1 -1.1104 15.9994 9.83876 10.5132 6.92657
266 1 -1.1104 15.9994 6.86887 10.4824 9.69902
267 1 -1.1104 15.9994 9.44929 10.3766 9.74278
268 1 -1.1104 15.9994 6.90788 13.2664 6.90367
269 1 -1.1104 15.9994 9.63156 13.3502 7.09136
270 1 -1.1104 15.9994 6.59148 13.1499 9.72221
271 1 -1.1104 15.9994 9.51445 13.1871 9.78829
272 1 -1.1104 15.9994 12.4298 10.678 7.03131
273 1 -1.1104 15.9994 12.3386 10.4719 9.72882
274 1 -1.1104 15.9994 12.4276 13.4384 7.03831
275 1 -1.1104 15.9994 12.2927 13.1861 9.80865
276 1 -1.1104 15.9994 1.29424 15.8639 6.55503
277 1 -1.1104 15.9994 3.9109 16.2361 6.6846
278 1 -1.1104 15.9994 1.29362 16.1486 9.57863
279 1 -1.1104 15.9994 3.97507 16.1368 9.70529
280 1 -1.1104 15.9994 1.05947 18.814 6.79823
281 1 -1.1104 15.9994 3.86917 19.0082 7.21944
282 1 -1.1104 15.9994 1.02047 19.1575 9.39237
283 1 -1.1104 15.9994 3.96812 18.8686 9.83141
284 1 -1.1104 15.9994 6.74578 15.9278 7.10311
285 1 -1.1104 15.9994 9.43742 16.012 6.84634
286 1 -1.1104 15.9994 6.66392 16.0708 9.79974
287 1 -1.1104 15.9994 9.39402 15.9941 9.84221
288 1 -1.1104 15.9994 6.74257 18.7932 6.8964
289 1 -1.1104 15.9994 9.61714 18.8736 6.87085
290 1 -1.1104 15.9994 6.6811 18.8965 9.9127
291 1 -1.1104 15.9994 9.60107 18.8577 9.70787
292 1 -1.1104 15.9994 12.3757 16.1778 6.8174
293 1 -1.1104 15.9994 12.2795 15.9359 9.8577
294 1 -1.1104 15.9994 12.3917 18.7911 6.69593
295 1 -1.1104 15.9994 12.3345 18.6897 9.7194
296 1 -1.1104 15.9994 1.06388 21.749 6.87712
297 1 -1.1104 15.9994 3.69773 21.6534 6.62385
298 1 -1.1104 15.9994 1.13191 22.1413 9.73721
299 1 -1.1104 15.9994 3.91276 21.5409 9.72968
300 1 -1.1104 15.9994 6.64441 21.5114 6.86456
301 1 -1.1104 15.9994 9.35953 21.6043 6.97922
302 1 -1.1104 15.9994 6.51435 22.0038 9.74906
303 1 -1.1104 15.9994 9.44283 21.6044 9.68634
304 1 -1.1104 15.9994 12.381 21.5584 6.84646
305 1 -1.1104 15.9994 12.3773 21.5377 9.69871
306 1 -1.1104 15.9994 1.18159 -0.636442 12.8089
307 1 -1.1104 15.9994 3.92762 -0.929808 12.5043
308 1 -1.1104 15.9994 1.03697 2.17023 12.6841
309 1 -1.1104 15.9994 3.73848 1.86799 12.5535
310 1 -1.1104 15.9994 6.60687 -0.868459 12.7627
311 1 -1.1104 15.9994 9.56357 -0.944495 12.6573
312 1 -1.1104 15.9994 6.75832 1.84178 12.6376
313 1 -1.1104 15.9994 9.56646 1.90168 12.7717
314 1 -1.1104 15.9994 12.3785 -0.784876 12.6048
315 1 -1.1104 15.9994 12.3299 2.03832 12.801
316 1 -1.1104 15.9994 0.818372 4.7421 12.5702
9052 2 2.2208 232.038 13.7697 9.07055 8.50572
81 2 2.2208 232.038 -0.18037 14.795 5.41824
8991 2 2.2208 232.038 13.9113 11.7581 5.52702
26 2 2.2208 232.038 8.19944 11.9415 -0.223387
9031 2 2.2208 232.038 13.9027 0.621355 5.49667
670 2 2.2208 232.038 5.46596 14.6372 0.0385721
9081 2 2.2208 232.038 13.7238 0.742702 11.0663
24 2 2.2208 232.038 -0.182958 11.9321 2.62696
12 2 2.2208 232.038 13.8434 20.4307 2.66329
1 2 2.2208 232.038 13.6875 23.2567 5.63695
676 2 2.2208 232.038 8.16964 23.2701 -0.109587
9041 2 2.2208 232.038 13.8354 6.12932 5.76749
8992 2 2.2208 232.038 13.6915 3.51569 2.70824
9091 2 2.2208 232.038 13.8687 12.0396 11.2595
673 2 2.2208 232.038 -0.156628 20.4309 -0.0144386
665 2 2.2208 232.038 14.0021 23.2407 -0.077862
121 2 2.2208 232.038 -0.107597 20.552 11.1394
341 2 2.2208 232.038 2.29915 14.6449 13.8304
663 2 2.2208 232.038 2.37802 6.45306 -0.128877
671 2 2.2208 232.038 8.28506 17.5066 -0.0357882
661 2 2.2208 232.038 8.00681 0.70135 -0.10584
9350 2 2.2208 232.038 13.8688 3.57003 19.6127
327 1 -1.1104 15.9994 6.70072 21.8993 26.7632
9389 2 2.2208 232.038 13.8702 0.703011 22.4713
394 2 2.2208 232.038 -0.247662 23.1033 19.8419
25 2 2.2208 232.038 5.12098 9.14749 27.956
326 2 2.2208 232.038 2.66484 -2.17541 14.0374
332 1 -1.1104 15.9994 9.89198 21.6691 23.9719
9380 2 2.2208 232.038 13.7911 20.5141 19.5913
345 2 2.2208 232.038 11.0964 17.4704 14.0823
9701 2 2.2208 232.038 13.7437 6.32116 27.9535
9349 2 2.2208 232.038 13.5711 6.46112 17.055
337 1 -1.1104 15.9994 7.00899 21.497 24.055
677 1 -1.1104 15.9994 9.55828 13.3847 26.6038
9360 2 2.2208 232.038 13.6859 9.21404 19.6775
339 2 2.2208 232.038 5.15826 11.9226 14.0067
403 2 2.2208 232.038 2.50589 -2.01995 25.5182
342 1 -1.1104 15.9994 3.9126 21.9348 26.6522
9314 2 2.2208 232.038 13.8298 -2.07669 13.9463
9400 2 2.2208 232.038 13.7979 3.64046 25.0767
338 2 2.2208 232.038 8.15955 9.1131 14.0474
333 2 2.2208 232.038 8.08665 3.23918 14.1093
9591 1 -1.1104 15.9994 0.97569 2.08822 24.2878
336 2 2.2208 232.038 2.51321 8.96291 14.2612
9370 2 2.2208 232.038 13.8655 14.7768 19.5803
340 2 2.2208 232.038 11.0999 11.8638 13.9308
351 1 -1.1104 15.9994 1.12034 21.7831 26.8521
352 2 2.2208 232.038 2.51448 0.46245 16.7412
9390 2 2.2208 232.038 13.6602 -2.19107 25.3921
354 1 -1.1104 15.9994 4.2505 21.3787 24.1277
9319 2 2.2208 232.038 13.7291 3.6311 14.0169
356 2 2.2208 232.038 8.223 0.37279 16.9725
9420 2 2.2208 232.038 13.9685 14.6654 25.3488
358 2 2.2208 232.038 5.21053 0.445385 19.498
349 2 2.2208 232.038 5.21887 23.1582 13.9642
360 2 2.2208 232.038 10.9044 0.540911 19.7046
361 1 -1.1104 15.9994 0.940069 21.6211 24.1415
362 2 2.2208 232.038 2.39639 6.2941 16.7783
363 2 2.2208 232.038 2.55412 3.30515 19.6159
364 1 -1.1104 15.9994 12.364 18.8156 26.6877
365 2 2.2208 232.038 5.23352 3.30937 16.8055
366 2 2.2208 232.038 7.99046 6.12823 16.6631
367 2 2.2208 232.038 8.32382 3.25536 19.6531
368 2 2.2208 232.038 5.19256 6.0906 19.4699
369 2 2.2208 232.038 10.948 3.3847 16.8006
370 2 2.2208 232.038 10.7432 6.41481 19.5462
371 1 -1.1104 15.9994 12.5043 18.753 23.9619
372 2 2.2208 232.038 2.43642 11.9202 16.8934
373 2 2.2208 232.038 2.4005 8.99491 19.5482
329 2 2.2208 232.038 5.2245 0.60087 13.9954
375 2 2.2208 232.038 5.38305 9.09481 16.783
376 2 2.2208 232.038 8.22269 11.8368 16.8594
377 2 2.2208 232.038 8.01042 8.99942 19.6421
378 2 2.2208 232.038 5.31697 11.7616 19.6865
379 2 2.2208 232.038 10.8636 9.18226 16.8711
380 2 2.2208 232.038 10.8867 11.9306 19.7038
381 1 -1.1104 15.9994 12.6265 16.1179 26.4864
382 2 2.2208 232.038 2.64283 17.545 16.9994
383 2 2.2208 232.038 2.56533 14.6595 19.4703
325 2 2.2208 232.038 5.27757 3.59147 28.0927
385 2 2.2208 232.038 5.33862 14.5741 16.9101
386 2 2.2208 232.038 8.15748 17.3626 16.8781
387 2 2.2208 232.038 8.30574 14.7357 19.5901
388 2 2.2208 232.038 5.38073 17.5879 19.7165
389 2 2.2208 232.038 11.1453 14.6876 16.8606
390 2 2.2208 232.038 11.1704 17.5447 19.7014
391 1 -1.1104 15.9994 12.2103 21.9172 26.9381
392 2 2.2208 232.038 2.33586 23.379 16.8067
393 2 2.2208 232.038 2.44097 20.5792 19.4708
655 1 -1.1104 15.9994 9.8336 16.3659 23.7792
395 2 2.2208 232.038 5.48452 20.2808 16.8425
396 2 2.2208 232.038 8.21261 23.2553 16.9261
397 2 2.2208 232.038 8.37378 20.3495 19.5761
398 2 2.2208 232.038 5.26254 23.0588 19.7937
399 2 2.2208 232.038 11.0299 20.3247 16.9147
400 2 2.2208 232.038 11.0164 23.1111 19.8465
401 1 -1.1104 15.9994 12.5573 15.917 23.8821
402 2 2.2208 232.038 2.53776 0.583283 22.3821
374 2 2.2208 232.038 10.942 20.3614 27.9811
404 1 -1.1104 15.9994 9.47526 18.7558 26.7148
9379 2 2.2208 232.038 13.8588 23.3906 17.0113
406 2 2.2208 232.038 8.21155 0.609876 22.4768
654 1 -1.1104 15.9994 6.87152 16.2098 23.7976
408 2 2.2208 232.038 5.25113 0.661213 25.3461
656 1 -1.1104 15.9994 7.03415 16.2521 26.8139
410 2 2.2208 232.038 10.8912 0.852185 25.3734
411 1 -1.1104 15.9994 6.88616 18.9995 26.9534
412 2 2.2208 232.038 2.60045 6.17329 22.3986
413 2 2.2208 232.038 2.42373 3.58995 25.3128
414 1 -1.1104 15.9994 9.75942 19.0538 23.99
415 2 2.2208 232.038 5.33557 3.25847 22.3783
416 2 2.2208 232.038 8.07004 6.26359 22.2459
417 2 2.2208 232.038 8.05395 3.52481 25.1734
418 2 2.2208 232.038 5.29887 6.2532 25.1814
419 2 2.2208 232.038 11.0107 3.46848 22.5759
420 2 2.2208 232.038 10.9248 6.39985 25.1361
421 1 -1.1104 15.9994 6.94869 18.8903 24.0326
422 2 2.2208 232.038 2.5 11.9289 22.4472
423 2 2.2208 232.038 2.64833 9.09849 25.1317
424 1 -1.1104 15.9994 9.64494 15.958 26.6705
425 2 2.2208 232.038 5.25893 9.1352 22.4358
426 2 2.2208 232.038 8.12223 12.013 22.4794
427 2 2.2208 232.038 8.03553 9.104 25.2283
428 2 2.2208 232.038 5.29239 11.9933 25.2613
429 2 2.2208 232.038 10.8089 9.26841 22.5074
430 2 2.2208 232.038 11.0352 11.8907 25.4675
407 2 2.2208 232.038 8.14969 -2.11681 25.1653
432 2 2.2208 232.038 2.52028 17.5837 22.4528
433 2 2.2208 232.038 2.68487 14.7959 25.2486
348 2 2.2208 232.038 8.20659 20.2616 14.1761
435 2 2.2208 232.038 5.50779 14.9617 22.2159
436 2 2.2208 232.038 8.4822 17.8464 22.5929
437 2 2.2208 232.038 8.15291 14.785 25.2069
438 2 2.2208 232.038 5.47114 17.541 25.3826
439 2 2.2208 232.038 11.1797 14.7725 22.431
440 2 2.2208 232.038 11.118 17.5352 25.3635
9399 2 2.2208 232.038 13.617 6.48223 22.3544
442 1 -1.1104 15.9994 12.54 21.6605 24.0539
443 2 2.2208 232.038 2.56854 20.233 25.1565
9359 2 2.2208 232.038 13.8944 12.0637 16.8891
445 2 2.2208 232.038 5.5005 20.4305 22.49
446 2 2.2208 232.038 8.41489 23.0961 22.6338
447 2 2.2208 232.038 8.08937 20.2236 25.5578
448 2 2.2208 232.038 5.20316 23.252 25.2122
449 2 2.2208 232.038 11.3085 20.1962 22.5776
450 2 2.2208 232.038 10.8924 23.1481 25.3232
451 1 -1.1104 15.9994 1.05591 -0.85732 15.3894
452 1 -1.1104 15.9994 4.10664 -0.838699 15.4685
453 1 -1.1104 15.9994 1.31063 2.00677 15.4682
454 1 -1.1104 15.9994 3.87786 2.15323 15.2876
455 1 -1.1104 15.9994 6.95985 -1.05781 15.4429
456 1 -1.1104 15.9994 9.67765 -1.02679 15.416
457 1 -1.1104 15.9994 6.79609 1.72466 15.3888
458 1 -1.1104 15.9994 9.51056 1.89179 15.6636
459 1 -1.1104 15.9994 12.5317 -0.588431 15.4956
460 1 -1.1104 15.9994 12.4469 2.25614 15.3953
461 1 -1.1104 15.9994 0.994693 4.70971 15.56
462 1 -1.1104 15.9994 3.95269 5.11164 15.3087
463 1 -1.1104 15.9994 1.0183 7.57551 15.6584
464 1 -1.1104 15.9994 3.74418 7.72647 15.5327
465 1 -1.1104 15.9994 6.83373 4.64285 15.3809
466 1 -1.1104 15.9994 9.49704 4.77881 15.5798
467 1 -1.1104 15.9994 6.5399 7.61045 15.3564
468 1 -1.1104 15.9994 9.44704 7.74749 15.4308
469 1 -1.1104 15.9994 12.2835 4.94383 15.4716
470 1 -1.1104 15.9994 12.1602 7.75573 15.5429
471 1 -1.1104 15.9994 0.797102 10.2216 15.2488
472 1 -1.1104 15.9994 3.96037 10.3956 15.3762
473 1 -1.1104 15.9994 1.06277 13.1814 15.3077
474 1 -1.1104 15.9994 3.9123 13.3157 15.4412
475 1 -1.1104 15.9994 6.79457 10.3144 15.3982
476 1 -1.1104 15.9994 9.77163 10.6442 15.5243
477 1 -1.1104 15.9994 6.5822 13.1762 15.3921
478 1 -1.1104 15.9994 9.70138 13.1922 15.5334
479 1 -1.1104 15.9994 12.4478 10.3147 15.4906
480 1 -1.1104 15.9994 12.6572 13.384 15.4708
481 1 -1.1104 15.9994 0.794741 15.9319 14.9956
482 1 -1.1104 15.9994 3.66333 16.0262 15.1878
483 1 -1.1104 15.9994 1.19059 18.6708 15.2396
484 1 -1.1104 15.9994 4.12217 18.7162 15.5783
485 1 -1.1104 15.9994 6.66301 15.8164 15.4931
486 1 -1.1104 15.9994 9.66048 16.1279 15.4226
487 1 -1.1104 15.9994 6.82127 18.7058 15.5423
488 1 -1.1104 15.9994 9.67662 18.9904 15.3942
489 1 -1.1104 15.9994 12.5702 16.0075 15.3847
490 1 -1.1104 15.9994 12.6466 18.8337 15.3657
491 1 -1.1104 15.9994 1.51385 21.9986 15.0516
492 1 -1.1104 15.9994 4.45192 21.3149 15.129
493 1 -1.1104 15.9994 7.00719 21.7421 15.478
494 1 -1.1104 15.9994 9.71585 21.7805 15.4421
495 1 -1.1104 15.9994 12.4792 21.7337 15.7096
496 1 -1.1104 15.9994 1.19079 -0.881514 18.0791
497 1 -1.1104 15.9994 4.02876 -1.09828 18.1202
498 1 -1.1104 15.9994 1.09902 -0.792289 20.9838
499 1 -1.1104 15.9994 3.77032 -0.861313 20.9818
500 1 -1.1104 15.9994 1.13278 2.00408 18.3401
501 1 -1.1104 15.9994 4.06586 1.77473 18.0258
502 1 -1.1104 15.9994 1.07962 1.95603 21.1766
503 1 -1.1104 15.9994 3.96511 1.96204 20.9946
504 1 -1.1104 15.9994 6.91619 -0.756241 18.3932
505 1 -1.1104 15.9994 9.70877 -0.812892 18.3917
506 1 -1.1104 15.9994 6.70934 -0.907154 21.0802
507 1 -1.1104 15.9994 9.55417 -0.627475 21.2316
508 1 -1.1104 15.9994 6.79723 1.95413 18.2204
509 1 -1.1104 15.9994 9.63446 1.87361 18.3503
510 1 -1.1104 15.9994 6.84321 1.78375 21.1594
511 1 -1.1104 15.9994 9.33493 2.08519 21.162
512 1 -1.1104 15.9994 12.4179 -0.717059 18.1392
513 1 -1.1104 15.9994 12.3789 -0.777096 20.9451
514 1 -1.1104 15.9994 12.5829 2.11254 18.1268
515 1 -1.1104 15.9994 12.1748 1.94246 21.1902
516 1 -1.1104 15.9994 0.930944 4.67581 18.2732
517 1 -1.1104 15.9994 3.76428 4.59327 18.2301
518 1 -1.1104 15.9994 1.0882 4.90792 21.1453
519 1 -1.1104 15.9994 3.75029 4.7967 20.8939
520 1 -1.1104 15.9994 1.07036 7.6033 18.3078
521 1 -1.1104 15.9994 3.97512 7.64897 18.1101
522 1 -1.1104 15.9994 0.975485 7.58412 21.0495
523 1 -1.1104 15.9994 3.66104 7.30821 20.8011
524 1 -1.1104 15.9994 6.48178 4.71647 18.1798
525 1 -1.1104 15.9994 9.37849 4.55416 18.2188
526 1 -1.1104 15.9994 6.7801 4.78654 20.8757
527 1 -1.1104 15.9994 9.57512 4.95279 21.0509
528 1 -1.1104 15.9994 6.59958 7.52413 18.1068
529 1 -1.1104 15.9994 9.1795 7.68975 17.9645
530 1 -1.1104 15.9994 6.50568 7.59556 20.9725
531 1 -1.1104 15.9994 9.42608 7.74433 20.9658
532 1 -1.1104 15.9994 12.2138 4.96752 18.3133
533 1 -1.1104 15.9994 12.3134 4.77693 20.9906
534 1 -1.1104 15.9994 12.159 7.85828 18.3754
535 1 -1.1104 15.9994 12.0476 7.56603 20.9362
536 1 -1.1104 15.9994 1.04032 10.3644 18.1467
537 1 -1.1104 15.9994 3.74378 10.5697 18.3195
538 1 -1.1104 15.9994 1.02751 10.333 21.0042
539 1 -1.1104 15.9994 4.02122 10.009 20.9165
540 1 -1.1104 15.9994 1.07766 13.1796 18.1442
541 1 -1.1104 15.9994 4.11992 13.1839 18.3274
542 1 -1.1104 15.9994 1.15537 12.933 20.8338
543 1 -1.1104 15.9994 3.9423 13.1356 21.0023
544 1 -1.1104 15.9994 6.8268 10.5157 18.028
545 1 -1.1104 15.9994 9.54587 10.3795 18.47
546 1 -1.1104 15.9994 6.68667 10.3293 21.0154
547 1 -1.1104 15.9994 9.43057 10.4378 21.1051
548 1 -1.1104 15.9994 6.98382 13.2659 18.0406
549 1 -1.1104 15.9994 9.66233 13.1933 18.2915
550 1 -1.1104 15.9994 6.75423 13.2033 20.9376
551 1 -1.1104 15.9994 9.55119 13.5349 21.2155
552 1 -1.1104 15.9994 12.3605 10.5823 18.3326
553 1 -1.1104 15.9994 12.4068 10.3058 20.9892
554 1 -1.1104 15.9994 12.5652 13.339 18.3453
555 1 -1.1104 15.9994 12.545 13.0104 21.1845
556 1 -1.1104 15.9994 1.09685 16.0016 18.0417
557 1 -1.1104 15.9994 3.94694 16.0735 18.1045
558 1 -1.1104 15.9994 1.39502 15.559 21.1246
559 1 -1.1104 15.9994 3.99175 15.9236 20.9111
560 1 -1.1104 15.9994 1.23138 18.818 18.4669
561 1 -1.1104 15.9994 4.01082 18.9329 18.3228
562 1 -1.1104 15.9994 1.08153 18.6607 21.2183
563 1 -1.1104 15.9994 4.10591 18.7143 21.3347
564 1 -1.1104 15.9994 6.68596 16.1159 18.2374
565 1 -1.1104 15.9994 9.75861 15.9831 18.171
566 1 -1.1104 15.9994 6.94957 16.0865 20.8887
567 1 -1.1104 15.9994 9.77434 16.3036 21.0184
568 1 -1.1104 15.9994 6.76869 19.1012 18.382
569 1 -1.1104 15.9994 9.46136 18.8381 18.0735
570 1 -1.1104 15.9994 6.94921 18.7929 21.323
571 1 -1.1104 15.9994 9.8164 19.1207 21.0447
572 1 -1.1104 15.9994 12.4345 16.2548 18.211
573 1 -1.1104 15.9994 12.5396 16.0351 20.9807
574 1 -1.1104 15.9994 12.1908 18.8977 18.1349
575 1 -1.1104 15.9994 12.584 18.7914 21.0103
576 1 -1.1104 15.9994 1.38659 22.1309 18.3802
577 1 -1.1104 15.9994 3.85972 21.7684 17.9066
578 1 -1.1104 15.9994 1.25957 21.5102 20.9975
579 1 -1.1104 15.9994 4.3428 21.3784 20.6646
580 1 -1.1104 15.9994 7.03132 21.7823 18.3046
581 1 -1.1104 15.9994 9.82635 21.6672 18.3804
582 1 -1.1104 15.9994 6.92843 21.5955 21.0077
583 1 -1.1104 15.9994 9.82177 21.761 21.3137
584 1 -1.1104 15.9994 12.476 21.8328 18.4762
585 1 -1.1104 15.9994 12.543 21.5584 21.3407
405 2 2.2208 232.038 5.31295 -2.18193 22.5509
587 1 -1.1104 15.9994 3.95202 -0.899215 24.0014
588 1 -1.1104 15.9994 1.25436 -0.501164 26.7039
589 1 -1.1104 15.9994 3.96558 -0.658816 26.7869
590 1 -1.1104 15.9994 1.04628 -0.674294 23.9322
591 1 -1.1104 15.9994 3.58398 1.91804 23.9532
592 1 -1.1104 15.9994 0.937023 2.22886 26.9822
593 1 -1.1104 15.9994 3.88978 2.16996 26.839
594 1 -1.1104 15.9994 6.74032 -0.865961 23.8264
595 1 -1.1104 15.9994 9.56345 -0.615567 24.085
596 1 -1.1104 15.9994 6.70543 -0.882573 26.5728
597 1 -1.1104 15.9994 9.72861 -0.721394 26.8663
598 1 -1.1104 15.9994 6.57603 1.88072 24.0782
599 1 -1.1104 15.9994 9.60108 2.32515 23.9738
600 1 -1.1104 15.9994 6.48288 2.06255 26.9152
601 1 -1.1104 15.9994 9.29176 2.22802 26.6484
602 1 -1.1104 15.9994 12.093 -0.620546 23.8907
603 1 -1.1104 15.9994 12.5802 -0.735176 26.6262
604 1 -1.1104 15.9994 12.3322 2.22602 24.017
605 1 -1.1104 15.9994 12.2609 1.97929 26.9929
606 1 -1.1104 15.9994 1.20539 4.82876 23.7016
607 1 -1.1104 15.9994 3.947 4.82224 23.6106
608 1 -1.1104 15.9994 0.955704 4.86402 26.6667
609 1 -1.1104 15.9994 3.67952 4.80989 26.7412
610 1 -1.1104 15.9994 1.13783 7.67895 24.013
611 1 -1.1104 15.9994 3.97821 7.6605 23.7634
612 1 -1.1104 15.9994 0.992794 7.92106 26.6965
613 1 -1.1104 15.9994 3.81761 7.65393 26.444
614 1 -1.1104 15.9994 6.51887 4.65158 23.6679
615 1 -1.1104 15.9994 9.49646 4.93603 23.8616
616 1 -1.1104 15.9994 6.51506 5.09028 26.6563
617 1 -1.1104 15.9994 9.31712 4.84537 26.5906
618 1 -1.1104 15.9994 6.78992 7.52293 24.0755
619 1 -1.1104 15.9994 9.58905 7.58628 23.4895
620 1 -1.1104 15.9994 6.49581 7.76493 26.8087
621 1 -1.1104 15.9994 9.3994 7.69569 26.4493
622 1 -1.1104 15.9994 12.4785 5.05135 23.7617
623 1 -1.1104 15.9994 12.2475 4.80509 26.5122
624 1 -1.1104 15.9994 12.5161 7.75176 23.8355
625 1 -1.1104 15.9994 12.1842 7.51325 26.7739
626 1 -1.1104 15.9994 1.16703 10.2694 23.7229
627 1 -1.1104 15.9994 3.8165 10.6413 23.7255
628 1 -1.1104 15.9994 1.37235 10.4866 26.7642
629 1 -1.1104 15.9994 3.96286 10.5257 26.3652
630 1 -1.1104 15.9994 1.06941 13.215 24.0498
631 1 -1.1104 15.9994 3.85494 13.3327 23.7783
632 1 -1.1104 15.9994 0.844153 13.3688 26.571
633 1 -1.1104 15.9994 3.82951 13.5028 26.7741
634 1 -1.1104 15.9994 6.6672 10.6661 23.6582
635 1 -1.1104 15.9994 9.45936 10.6143 24.0492
636 1 -1.1104 15.9994 6.8438 10.6573 26.7442
637 1 -1.1104 15.9994 9.67294 21.8892 26.8361
638 1 -1.1104 15.9994 6.83848 13.3732 23.7852
639 1 -1.1104 15.9994 9.80101 13.5071 23.931