LAMMPS (29 Oct 2020)
OMP_NUM_THREADS environment is not set. Defaulting to 1 thread. (../comm.cpp:94)
  using 1 OpenMP thread(s) per MPI task
OMP_NUM_THREADS environment is not set. Defaulting to 1 thread. (../comm.cpp:94)
  using 1 OpenMP thread(s) per MPI task
Reading data file ...
  orthogonal box = (-0.36016745 -4.2829562 -0.34989136) to (27.700167 332.36296 27.689891)
  2 by 13 by 2 MPI processor grid
  reading atoms ...
  17820 atoms
  reading velocities ...
  17820 velocities
Finding 1-2 1-3 1-4 neighbors ...
  special bond factors lj:    0.0      0.0      0.0     
  special bond factors coul:  0.0      0.0      0.0     
     0 = max # of 1-2 neighbors
     0 = max # of 1-3 neighbors
     0 = max # of 1-4 neighbors
     1 = max # of special neighbors
  special bonds CPU = 0.004 seconds
  read_data CPU = 0.076 seconds
Setting atom values ...
  11880 settings made for charge
Setting atom values ...
  5940 settings made for charge
PPPM initialization ...
  using 12-bit tables for long-range coulomb (../kspace.cpp:328)
  G vector (1/distance) = 0.29884368
  grid = 40 240 40
  stencil order = 5
  estimated absolute RMS force accuracy = 0.00015681537
  estimated relative force accuracy = 1.0890225e-05
  using single precision MKL FFT
  3d grid and FFT values/proc = 15000 7600
Neighbor list info ...
  update every 1 steps, delay 0 steps, check yes
  max neighbors/atom: 2000, page size: 100000
  master list distance cutoff = 11.3
  ghost atom cutoff = 11.3
  binsize = 5.65, bins = 5 60 5
  2 neighbor lists, perpetual/occasional/extra = 2 0 0
  (1) pair coul/long, perpetual
      attributes: half, newton on
      pair build: half/bin/newton
      stencil: half/bin/3d/newton
      bin: standard
  (2) pair eam/alloy, perpetual, copy from (1)
      attributes: half, newton on
      pair build: copy
      stencil: none
      bin: none
Setting up Verlet run ...
  Unit style    : metal
  Current step  : 0
  Time step     : 0.001
Per MPI rank memory allocation (min/avg/max) = 8.157 | 8.181 | 8.195 Mbytes
Step Temp E_pair E_mol TotEng Press 
       0          600   -232841.13            0   -231459.15    1167.6288 
  100000    597.78023   -232860.38            0   -231483.52    1268.5148 
Loop time of 645.017 on 52 procs for 100000 steps with 17820 atoms

Performance: 13.395 ns/day, 1.792 hours/ns, 155.035 timesteps/s
99.8% CPU use with 52 MPI tasks x 1 OpenMP threads

MPI task timing breakdown:
Section |  min time  |  avg time  |  max time  |%varavg| %total
---------------------------------------------------------------
Pair    | 432.62     | 448.38     | 463.81     |  30.2 | 69.52
Bond    | 0.0065781  | 0.010472   | 0.013745   |   1.7 |  0.00
Kspace  | 124.49     | 142.63     | 159.96     |  62.6 | 22.11
Neigh   | 32.444     | 34.731     | 37.269     |  19.8 |  5.38
Comm    | 13.831     | 14.984     | 18.041     |  24.2 |  2.32
Output  | 5.4761e-05 | 6.0519e-05 | 0.00030418 |   0.0 |  0.00
Modify  | 1.6785     | 3.0329     | 5.4457     |  66.0 |  0.47
Other   |            | 1.242      |            |       |  0.19

Nlocal:        342.692 ave         366 max         322 min
Histogram: 3 3 7 12 3 10 3 4 3 4
Nghost:        4128.52 ave        4257 max        3997 min
Histogram: 1 4 6 9 10 5 3 4 6 4
Neighs:        68621.7 ave       73853 max       63559 min
Histogram: 4 0 8 8 8 8 5 5 2 4

Total # of neighbors = 3568326
Ave neighs/atom = 200.24276
Ave special neighs/atom = 0.0000000
Neighbor list builds = 16212
Dangerous builds = 0
11880 atoms in group oxygen
PPPM initialization ...
  using 12-bit tables for long-range coulomb (../kspace.cpp:328)
  G vector (1/distance) = 0.29884368
  grid = 40 240 40
  stencil order = 5
  estimated absolute RMS force accuracy = 0.00015681537
  estimated relative force accuracy = 1.0890225e-05
  using single precision MKL FFT
  3d grid and FFT values/proc = 15000 7600
Setting up Verlet run ...
  Unit style    : metal
  Current step  : 0
  Time step     : 0.001
Per MPI rank memory allocation (min/avg/max) = 8.408 | 8.432 | 8.445 Mbytes
Step f_2 Temp v_Tdiff v_deltaT 
       0            0    597.78023            0            0 
  100000    689.98119    600.31399  0.017581055    204.11442 
  200000    1368.3083    598.80741  0.018876859    219.15858 
  300000    2042.9265    597.03918  0.019244474    223.42655 
  400000    2719.0636    594.83784  0.019169008    222.55041 
  500000    3395.7312    599.85988  0.018621517    216.19408 
  600000    4068.2075    598.26847  0.019212889    223.05986 
  700000    4747.5278    599.55865  0.018566048    215.55009 
  800000    5423.9374    596.21982  0.019588307    227.41843 
  900000    6099.3966    601.41258  0.018721833    217.35874 
 1000000    6778.9509    599.30564  0.019682489    228.51187 
Loop time of 6381.89 on 52 procs for 1000000 steps with 17820 atoms

Performance: 13.538 ns/day, 1.773 hours/ns, 156.693 timesteps/s
99.8% CPU use with 52 MPI tasks x 1 OpenMP threads

MPI task timing breakdown:
Section |  min time  |  avg time  |  max time  |%varavg| %total
---------------------------------------------------------------
Pair    | 4235       | 4413.3     | 4562       | 100.8 | 69.15
Bond    | 0.074614   | 0.10713    | 0.14206    |   5.4 |  0.00
Kspace  | 1251.8     | 1429.4     | 1644.9     | 203.5 | 22.40
Neigh   | 331.18     | 354.77     | 381.03     |  60.9 |  5.56
Comm    | 138.5      | 150.12     | 181.32     |  74.4 |  2.35
Output  | 0.0010546  | 0.0011351  | 0.0023694  |   0.5 |  0.00
Modify  | 5.1485     | 5.7706     | 6.243      |  10.9 |  0.09
Other   |            | 28.38      |            |       |  0.44

Nlocal:        342.692 ave         366 max         314 min
Histogram: 1 0 3 7 11 9 10 5 3 3
Nghost:        4131.56 ave        4265 max        4008 min
Histogram: 2 4 10 5 10 4 6 4 4 3
Neighs:        68623.0 ave       73773 max       62665 min
Histogram: 2 0 5 8 8 9 6 9 2 3

Total # of neighbors = 3568398
Ave neighs/atom = 200.24680
Ave special neighs/atom = 0.0000000
Neighbor list builds = 165663
Dangerous builds = 0
Total wall time: 1:57:07
