ITEM: TIMESTEP
100000
ITEM: NUMBER OF ATOMS
18000
ITEM: BOX BOUNDS xy xz yz pp pp pp
-2.2695830110337159e-01 2.8120958301103411e+01 0.0000000000000000e+00
-2.7822048721971524e+00 3.3751020487219330e+02 0.0000000000000000e+00
-2.4968224082424309e-01 2.8143682240824834e+01 0.0000000000000000e+00
ITEM: ATOMS id type x y z
1 1 1.02181 -1.34161 1.43875
2 1 3.81444 -1.49289 1.20107
3 1 3.68391 -1.3512 3.99306
4 1 0.877563 -0.974874 4.33667
5 1 1.0332 1.38528 0.973468
6 1 3.86564 1.12091 1.3205
7 1 3.72152 1.27475 4.12197
8 1 0.951344 1.56175 4.02017
9 1 6.63173 -1.42931 0.877092
12064 2 -0.178925 5.76685 8.54905
11 1 9.68425 -1.42728 1.35596
12 1 6.74927 -1.56015 3.82954
13 1 6.59778 1.51979 1.53004
14 1 9.63873 1.39438 1.34789
15 1 9.341 1.39396 4.05564
16 1 6.51787 1.0932 4.25451
17 1 12.5593 -1.26409 1.51038
18 1 12.2654 -1.41766 4.25073
19 1 12.212 1.87144 1.5127
20 1 12.4275 1.39621 4.18652
21 1 1.28589 4.14053 1.31878
22 1 4.02816 4.36408 1.24317
23 1 3.87306 4.41757 4.15029
24 1 1.16781 4.18193 4.19446
25 1 0.933364 7.02811 1.25788
26 1 4.19598 7.28548 1.44408
27 1 3.85179 7.37077 4.31037
28 1 0.921769 7.37681 3.92964
29 1 6.72933 4.48525 1.13994
30 1 9.45992 4.38155 1.31748
31 1 9.34548 4.07563 4.07383
32 1 6.53116 4.04221 4.17464
33 1 6.96582 7.38132 1.29223
34 1 10.2586 7.28913 1.41953
35 1 9.44067 7.29974 4.46644
36 1 6.70903 6.9008 3.98738
37 1 12.3646 4.51154 1.10862
38 1 12.2843 4.20374 3.96441
15116 2 13.7084 16.9473 11.2795
40 1 12.1107 7.24935 4.05426
41 1 1.01289 9.92758 1.16948
42 1 3.88587 9.87479 1.11086
43 1 4.08408 9.98167 3.99509
44 1 1.27407 10.2045 3.90472
45 1 1.11602 12.8114 1.21684
46 1 4.03391 13.0137 1.10641
47 1 4.17077 12.7926 3.89515
48 1 1.39701 12.8696 3.95034
49 1 6.63917 10.0704 1.41206
50 1 9.4392 9.94456 1.01001
51 1 9.66996 10.1907 4.08878
52 1 6.87161 9.94179 4.39569
53 1 7.02075 12.6835 1.28426
54 1 9.87376 12.6024 1.29
55 1 9.60125 13.0463 4.44824
56 1 6.86683 12.865 4.03367
57 1 12.3497 10.1315 1.28421
58 1 12.4301 10.094 4.20333
59 1 12.9151 13.0785 1.16251
60 1 12.4192 12.9517 4.06581
61 1 0.891303 15.6498 1.32839
62 1 3.86105 15.7693 1.25012
63 1 4.25845 15.4673 4.05184
64 1 1.2161 15.7119 3.96
65 1 1.18039 18.6438 1.1741
66 1 4.06234 18.4333 1.32086
67 1 3.81378 18.2907 4.1102
68 1 1.17722 18.631 3.79842
69 1 6.9463 15.3599 1.21894
70 1 9.8192 15.4799 1.33785
71 1 9.90023 15.7628 4.22318
72 1 7.15272 15.6157 4.19153
73 1 6.74649 18.1962 1.48097
74 1 9.53548 18.439 1.01684
75 1 9.45179 18.6297 3.80488
76 1 6.79432 18.5812 4.09446
77 1 12.6094 15.8842 1.24716
78 1 12.641 15.9128 4.24952
79 1 12.3019 21.3137 1.09678
80 1 12.5595 18.5865 1.41065
81 1 1.38824 21.3315 1.04867
82 1 4.10025 21.3058 1.49073
83 1 3.86709 21.2773 4.0694
15091 2 13.8281 22.813 5.32395
85 1 6.89595 21.1901 1.248
86 1 9.72648 21.3392 1.05344
87 1 9.38459 21.3067 3.86944
88 1 6.63513 21.3794 3.95972
15001 2 13.9196 0.0495939 0.159469
90 1 12.1663 21.4383 4.05023
91 1 1.11259 -1.27903 7.2045
92 1 3.94969 -1.40124 7.01799
93 1 4.06676 -1.46642 9.75003
94 1 1.40934 -1.49857 9.87398
95 1 1.03054 1.48352 7.00392
96 1 3.85096 1.38932 6.97724
97 1 3.98911 1.37457 9.62344
98 1 1.24492 1.61709 9.78982
99 1 6.65092 -1.37107 7.0876
100 1 9.66464 -1.1827 7.04799
101 1 9.6367 -1.25939 9.99118
102 1 6.98706 -1.64214 9.93298
103 1 6.9508 1.2513 7.04568
104 1 9.91347 1.498 7.33789
105 1 9.73244 1.34626 10.0544
106 1 6.83994 1.20623 9.85661
107 1 12.5162 -1.21039 7.02337
15072 2 13.8005 8.89427 8.3659
109 1 12.5005 1.50379 6.94708
110 1 12.3964 1.78237 9.83133
111 1 1.07121 4.28297 7.1695
112 1 3.94165 4.35954 6.80444
113 1 3.98529 4.3257 9.64778
114 1 1.07876 4.63274 9.87053
115 1 1.0227 7.1409 6.83124
116 1 3.61749 6.93988 7.27758
117 1 3.80843 7.28717 9.93765
118 1 1.23862 7.45344 9.85117
119 1 6.43107 4.0847 7.25913
120 1 9.36424 3.98998 6.72307
121 1 10.1031 4.32333 9.69878
122 1 7.06848 4.05405 10.0879
123 1 6.44691 7.08544 6.84115
124 1 9.21187 6.73747 7.09212
125 1 9.41031 7.20933 10.0039
126 1 6.46787 7.0479 9.87794
127 1 12.2779 4.4583 6.71789
128 1 12.6619 4.76035 9.41662
129 1 12.5132 7.33606 7.00647
130 1 12.2405 7.49564 9.65492
131 1 1.13466 9.89542 6.91065
132 1 4.23611 10.1247 6.94652
133 1 3.72799 10.1452 9.96038
134 1 1.21069 10.0629 9.65496
135 1 1.37605 12.6285 6.77897
136 1 4.07421 12.9024 7.16994
137 1 3.91928 13.0051 10.0249
138 1 1.25868 12.9049 9.80242
139 1 6.63849 10.0977 7.29227
140 1 9.33595 9.71965 7.02222
141 1 9.57663 9.87963 9.9896
142 1 6.52598 10.0537 9.94824
143 1 6.79865 13.0202 7.00776
144 1 9.74237 12.7582 7.13583
145 1 9.40924 12.7458 9.85467
146 1 6.56353 13.0164 9.87269
147 1 12.3912 10.3921 7.07782
148 1 12.4425 10.1731 9.81213
149 1 12.4069 13.1062 6.99319
150 1 12.5782 12.8233 9.7888
151 1 1.2017 15.2874 6.7019
152 1 3.83288 15.5414 6.61269
153 1 3.78817 15.6799 9.77508
154 1 0.98286 15.8152 9.62662
155 1 1.14223 18.4383 6.66161
156 1 4.058 18.5265 6.90744
157 1 4.09249 18.6167 9.44362
158 1 1.46032 21.2013 9.54539
159 1 6.77004 15.7442 7.00541
160 1 9.62498 15.571 6.91419
161 1 9.4851 15.5759 9.85177
162 1 6.68072 15.8569 10.019
163 1 6.94703 18.5699 6.76574
164 1 9.7496 18.4513 6.77518
165 1 10.0205 18.5042 9.70652
166 1 6.72672 18.6334 9.59234
167 1 12.6447 15.8156 7.11473
168 1 12.33 15.4574 9.79273
169 1 12.5863 18.7396 6.98
170 1 12.7305 18.2723 9.84186
171 1 1.05574 21.2979 3.66156
172 1 3.97172 21.3913 6.78122
173 1 4.15862 21.3988 9.79666
174 1 0.98843 21.3287 6.48777
175 1 6.63455 21.7837 6.83947
176 1 9.32189 21.4044 6.99566
177 1 9.61721 21.506 9.91329
178 1 6.7676 21.4424 9.52571
179 1 12.14 21.6387 6.69815
180 1 12.2392 21.3574 9.81174
181 1 1.09418 -1.28067 12.6314
182 1 3.86586 -1.33294 12.5435
183 1 1.11047 1.66742 12.5017
184 1 3.92118 1.20747 12.5172
185 1 6.77672 -1.26781 12.6793
186 1 9.67177 -1.06479 12.6236
187 1 6.92721 1.54878 12.7922
188 1 9.96511 1.71779 12.7055
189 1 12.3156 -1.31026 12.708
190 1 12.6965 1.5482 12.6833
191 1 1.29063 4.55523 12.7032
192 1 4.28594 4.08413 12.5145
193 1 1.28007 7.10027 12.5271
194 1 3.90227 6.99777 12.7428
195 1 6.93781 4.48613 12.7487
196 1 9.63308 4.39365 12.5095
197 1 6.75126 7.29883 12.4679
198 1 9.60575 7.22036 12.8978
199 1 12.4318 4.41724 12.6779
200 1 12.3404 7.16042 12.4222
201 1 1.29034 9.8592 12.6415
202 1 4.08737 10.0207 12.801
203 1 1.24661 12.944 12.5915
204 1 4.01548 12.7294 12.838
205 1 6.89881 9.88393 12.8329
206 1 9.76544 10.1 12.4799
207 1 6.99755 12.8498 12.5671
208 1 9.73725 12.8529 12.6131
209 1 12.7391 10.0217 12.8253
210 1 12.6649 12.8894 12.5094
211 1 1.42873 15.8323 12.4994
212 1 4.11798 15.5056 12.5667
213 1 1.10158 18.6803 12.5465
214 1 3.97383 18.5239 12.2047
215 1 6.81368 16.0472 12.7331
216 1 9.64525 15.7944 12.5146
217 1 6.93405 18.726 12.4555
218 1 9.6275 18.4487 12.742
219 1 12.3908 15.5574 12.5379
220 1 12.6173 18.6605 12.7022
221 1 1.04157 21.54 12.483
222 1 3.77652 21.307 12.4531
223 1 6.62155 21.7647 12.4446
224 1 9.57186 21.4144 12.739
225 1 12.3202 21.4179 12.5598
12081 2 -0.149321 14.2749 5.26733
12111 2 -0.0725614 8.61409 11.2993
15051 2 13.6849 0.088476 5.62659
12103 2 5.36624 -2.63299 11.2646
15061 2 13.78 5.81556 5.84193
15022 2 13.8545 8.67098 2.8317
12036 2 8.23868 17.17 -0.205953
12008 2 5.07803 -0.0747016 2.80532
15106 2 13.8207 5.84905 11.1106
12010 2 11.1115 -0.0288185 2.81322
12125 2 11.1832 19.896 11.4632
12053 2 2.49024 -2.77114 8.5059
12013 2 2.48413 2.61576 2.7648
12124 2 7.98899 22.8627 11.1235
12006 2 8.24395 0.00330973 -0.0869744
12121 2 -0.248027 19.9219 11.1088
12017 2 8.17427 2.56267 2.80525
12018 2 5.32808 5.75048 2.79278
12045 2 5.32067 20.0048 -0.0257625
12020 2 11.0549 5.66324 2.93894
12113 2 5.28861 8.73177 11.288
12104 2 8.13561 0.0136638 11.1434
12023 2 2.52584 8.47385 2.53082
12002 2 2.54264 -0.00621049 -0.115962
15101 2 13.8479 0.112353 11.264
12107 2 2.55727 5.68685 11.2155
12027 2 8.40662 8.39308 2.59892
12028 2 5.55343 11.2784 2.70119
12042 2 2.74257 22.9222 -0.110653
12030 2 11.083 11.4729 2.71144
12102 2 2.4777 0.110163 11.2048
12114 2 8.18088 11.2515 11.1966
12033 2 2.73942 14.2914 2.64306
15121 2 13.7474 22.7512 11.0564
12100 2 10.9563 22.6985 8.33891
12099 2 11.0249 19.8095 5.31644
12037 2 8.37853 14.3283 2.72986
12038 2 5.35456 16.8723 2.71861
12098 2 5.31762 22.8588 8.23615
12040 2 11.1084 17.1141 2.73782
12097 2 8.40877 20.0375 8.62879
5635 1 9.48133 -1.36482 3.99912
12043 2 2.55265 19.9634 2.61614
12123 2 5.3783 19.9182 11.0327
12096 2 8.20095 22.5811 5.30347
12095 2 5.41274 20.1077 5.52054
12047 2 8.10475 19.7553 2.65015
12048 2 5.56305 22.7383 2.56476
12115 2 11.0616 8.65608 11.2248
12050 2 10.8785 22.6663 2.57443
15092 2 13.7179 20.0701 8.48356
12052 2 2.38139 0.0674265 5.79023
12112 2 2.40665 11.5542 11.3382
12122 2 2.54892 22.6357 10.975
12110 2 11.104 3.12741 11.1859
12056 2 8.02078 -0.0815076 5.60809
12109 2 8.22128 5.69103 11.3331
12058 2 5.31251 0.071761 8.34725
12108 2 5.51651 2.59462 11.2754
12060 2 11.2025 0.00639131 8.58027
12120 2 11.0029 14.239 11.2205
12062 2 2.33248 5.58136 5.65004
12063 2 2.5105 3.10854 8.63845
12119 2 8.09714 17.0601 11.3821
12065 2 5.26927 2.72653 5.59619
12066 2 7.93226 5.3441 5.63882
12067 2 8.36217 2.80243 8.56298
12068 2 5.22624 5.77104 8.47833
12069 2 11.0148 2.77462 5.60229
12070 2 11.0148 6.07685 8.33615
12029 2 11.0946 8.77656 -0.149897
12072 2 2.87243 11.3529 5.6682
12073 2 2.49265 8.57053 8.54862
12118 2 5.41609 14.3762 11.1634
12075 2 5.46046 8.41095 5.49731
12076 2 8.1715 11.4111 5.73544
12077 2 7.79524 8.5516 8.51688
12078 2 5.24373 11.4919 8.60231
12079 2 10.7794 8.54205 5.6473
12080 2 11.0944 11.5546 8.56325
39 1 13.2932 7.2578 1.11496
12082 2 2.51415 16.9894 5.452
12083 2 2.57007 14.3186 8.37385
12117 2 2.40129 17.1499 11.1187
12085 2 5.59194 14.2377 5.53132
12086 2 8.29267 17.2274 5.53116
12087 2 8.13408 14.3688 8.36205
12088 2 5.34239 17.1616 8.28465
12089 2 11.1434 14.4789 5.65539
12090 2 11.0208 16.926 8.31585
6218 1 1.18489 18.4084 9.65071
12092 2 2.47952 22.6603 5.4182
12093 2 2.58825 19.7823 8.25336
12046 2 8.24572 22.802 -0.346789
12012 2 2.60628 5.70784 -0.153096
12142 2 0.0412869 17.1337 13.9477
12026 2 8.22286 11.5424 -0.0576188
12032 2 2.45851 17.1441 -0.213835
6064 1 12.6225 18.7568 4.23608
12035 2 5.41414 14.3428 -0.0874001
15021 2 13.9341 11.6154 -0.0502985
12049 2 11.0645 19.6731 -0.00440857
12071 2 -0.0595617 8.63491 5.47665
12074 2 -0.0285458 11.5807 8.19679
108 1 12.7251 -1.3017 9.75912
12015 2 5.47743 2.80743 -0.0804646
12135 2 11.0661 5.89936 14.0008
15071 2 13.7671 11.538 5.61356
12140 2 11.1363 11.4104 13.8724
15082 2 13.9732 14.3263 8.2579
12024 2 -0.108288 11.4133 2.64967
12022 2 2.66976 11.2522 -0.134253
12025 2 5.58069 8.51273 -0.228872
12019 2 10.9197 3.14624 -0.116427
12134 2 5.47095 5.72843 13.8615
12016 2 8.31142 5.74119 -0.145959
12148 2 8.17536 20.0171 13.9792
12143 2 8.12329 14.3992 13.9242
12149 2 5.20796 22.8872 13.9059
226 1 3.92003 -1.25186 15.3299
227 1 1.19649 -0.835735 15.3841
228 1 3.93514 1.55068 15.358
229 1 1.1843 1.9948 15.4415
230 1 9.87816 -1.27439 15.421
231 1 6.97379 -1.20689 15.3742
232 1 9.59395 1.58372 15.7968
233 1 6.89609 1.44247 15.5448
234 1 12.5841 -0.980524 15.4028
235 1 12.5714 1.76671 15.4167
236 1 4.1227 4.58331 15.2546
237 1 1.05665 4.64092 15.5215
238 1 3.86035 7.14863 15.3037
239 1 0.941395 7.33965 15.3741
240 1 9.63311 4.57533 15.191
241 1 7.01127 4.12087 15.5843
242 1 10.0325 7.6654 15.489
243 1 7.15509 7.25811 15.3254
244 1 12.4062 4.49892 15.5811
245 1 12.8536 7.17127 15.1623
246 1 3.99629 10.2193 15.3944
247 1 1.13763 10.2029 15.6862
248 1 4.17476 12.834 15.7818
249 1 1.33188 12.8037 15.1401
250 1 9.58975 10.2404 15.2669
251 1 6.76179 10.0207 15.6866
252 1 9.59544 13.1221 15.4955
253 1 6.91984 12.8305 15.2545
254 1 12.685 10.0703 15.6965
255 1 12.1535 12.8053 15.2217
256 1 4.07025 15.6676 15.4107
257 1 1.39965 15.7137 15.5282
258 1 4.17215 18.5489 15.1816
259 1 1.34931 18.7194 15.7159
260 1 9.46917 16.0199 15.496
261 1 6.58724 15.8237 15.403
262 1 9.83246 18.6725 15.4023
263 1 6.94306 18.8279 15.4109
264 1 12.2998 15.6643 15.4253
265 1 12.8328 18.2301 15.5242
266 1 3.69865 21.3944 15.6466
267 1 1.04477 21.6373 15.2871
268 1 9.84515 21.3919 15.8316
269 1 6.49462 21.3828 15.333
270 1 12.5795 21.3686 15.6087
271 1 1.25583 -1.39154 18.4405
272 1 4.07907 -1.11802 18.0152
273 1 3.94065 -1.33334 20.9377
274 1 1.11715 -1.32278 21.127
275 1 1.4289 1.49804 18.3775
276 1 4.2367 1.69445 18.2339
277 1 4.02756 4.47625 21.18
278 1 1.16452 1.52472 21.3876
279 1 6.76583 -1.48349 18.2255
280 1 9.83348 -1.26536 18.1859
281 1 9.65763 -1.53148 20.8962
282 1 6.80595 -1.50979 21.0063
283 1 6.92521 1.59176 18.4629
284 1 9.77147 1.67679 18.3799
285 1 9.50965 1.21035 21.3912
286 1 6.55907 1.73181 21.0119
287 1 12.5712 -1.45678 18.2843
288 1 12.4615 -1.60173 21.28
289 1 12.5295 1.37023 18.382
290 1 12.4106 1.36192 21.3155
291 1 1.18839 4.49646 18.4911
292 1 3.78479 4.29603 18.2826
293 1 4.448 7.31553 20.8169
294 1 0.894499 4.09396 20.8857
295 1 1.09166 7.09648 18.242
296 1 4.02215 7.39776 18.1664
297 2 5.7203 8.57005 19.4639
298 1 1.49228 7.24299 21.0752
299 1 6.77065 4.44471 18.2693
300 1 9.52334 4.67854 18.402
301 1 9.67888 4.16234 21.0506
302 1 6.81686 4.32937 21.1589
303 1 6.68269 7.23421 17.7516
304 1 9.59102 7.30729 18.0978
305 1 9.89252 7.25654 21.2505
306 1 7.02875 7.12718 20.7356
307 1 12.4107 4.12358 18.3714
308 1 12.5615 4.27658 21.2562
309 1 12.4551 6.90332 18.1454
310 1 12.4899 7.20697 21.0993
311 1 1.31 9.84733 18.4745
312 1 4.30647 9.91205 18.6448
313 1 3.89292 10.0121 21.2099
314 1 1.34207 9.90716 21.361
315 1 1.14406 13.0854 18.2481
316 1 3.95413 12.8815 18.4539
317 1 3.83444 13.0857 21.1449
318 1 1.0197 12.6283 21.0184
319 1 6.9138 10.1611 18.491
320 1 9.68525 10.1993 18.1878
321 1 9.9105 10.0673 21.0327
322 1 6.72901 10.201 21.1006
323 1 7.00517 13.0332 18.0996
324 1 9.79072 12.9241 18.247
325 1 9.40074 12.7524 20.945
326 1 6.82777 12.9113 21.2754
327 1 12.4751 9.92075 18.5246
328 1 12.5677 10.1647 21.2863
329 1 12.5613 12.8614 18.2095
330 1 12.4558 13.0228 21.0764
331 1 1.47767 16.0319 18.417
332 1 4.20575 15.9176 18.2908
333 1 3.9492 15.984 20.9078
334 1 1.24066 15.8308 21.0534
335 1 0.996582 18.5082 18.2894
336 1 4.1026 18.6646 18.2071
337 1 4.08154 18.8151 21.0321
338 1 1.34624 18.9116 21.3938
339 1 6.87148 15.7744 18.0346
340 1 9.71159 15.9575 18.2292
341 1 9.62724 15.7753 21.1026
342 1 6.79282 15.6875 21.0294
343 1 6.81176 18.5099 18.2549
344 1 9.90218 18.837 18.4361
345 1 9.75035 18.5248 21.4375
346 1 6.95109 18.4183 21.2227
347 1 12.5859 15.7448 18.0506
348 1 12.8291 15.961 20.9385
349 1 12.7002 18.5934 18.2037
350 1 12.3104 18.8032 21.1877
351 1 1.23781 21.2699 18.259
352 1 4.09923 21.4832 18.6623
353 1 3.94829 21.5149 21.4978
354 1 1.00032 21.6636 20.9084
355 1 7.01262 21.4028 18.2921
356 1 9.586 21.3761 18.6818
357 1 9.53164 21.4473 21.2165
358 1 6.76714 21.3236 21.3734
359 1 12.4986 21.4884 18.3686
360 1 12.6454 21.311 21.1245
361 1 0.919817 -1.41744 23.9896
362 1 3.90676 1.37272 23.9125
363 1 3.88825 -1.4694 26.5525
364 1 1.11116 -1.23871 26.8539
365 1 1.12762 1.43002 23.9146
366 1 3.84164 1.71793 21.1437
367 1 3.77026 1.25405 26.7738
368 1 1.26936 1.58651 26.8017
369 1 3.8193 -1.34831 24.0864
370 1 6.82516 -1.47463 23.8638
371 1 9.67285 -1.46929 24.1742
372 1 6.79305 -1.30079 26.8879
373 1 6.67067 1.47817 23.9972
374 1 9.51039 1.36358 24.0258
375 1 9.38973 1.57914 26.9852
376 1 6.54693 1.62714 26.82
377 1 12.2557 -1.67624 24.1498
378 1 12.5346 -1.62466 27.1591
379 1 12.3847 1.36888 24.23
380 1 12.6321 1.45924 26.9348
381 1 1.34695 4.24284 23.8368
382 1 4.02233 4.24076 23.9809
383 1 3.85002 4.36783 26.6041
384 1 1.10164 4.47812 26.9946
385 1 1.02278 7.22296 23.6728
386 1 3.88112 6.84138 23.9139
387 1 4.15275 7.0569 26.7651
388 1 1.25783 7.23887 26.667
389 1 6.90818 4.44354 23.6996
390 1 9.59166 4.23158 23.7718
391 1 9.58322 4.43655 26.7099
392 1 6.75452 4.13778 26.7764
393 1 6.75298 7.23526 23.598
394 1 9.36186 7.35042 23.9538
395 1 9.70319 7.31215 26.9594
396 1 6.82763 7.0736 26.4827
397 1 12.141 4.24927 24.0437
398 1 12.5379 4.37178 26.7256
399 1 12.4167 6.92119 23.8713
400 1 12.361 7.2898 26.9623
401 1 0.868887 9.8804 24.2262
402 1 3.67566 9.93758 23.7873
403 1 4.06563 9.91863 26.6739
404 1 1.17166 10.223 26.5398
405 1 1.02093 13.0687 23.9719
406 1 3.87308 12.8307 24.2115
407 1 4.00373 12.7711 26.9311
408 1 0.873108 12.9048 26.9031
409 1 6.53514 9.91903 24.186
410 1 9.67466 10.2297 23.7358
411 1 9.66474 10.1597 26.7905
412 1 6.84887 10.0043 26.9547
413 1 6.64056 12.6555 23.8576
414 1 9.07112 12.5458 24.485
415 1 9.5145 13.0781 26.9728
416 1 6.61298 13.08 26.7043
417 1 12.3245 10.0871 24.2054
418 1 12.4591 10.2239 27.0256
419 1 12.4281 12.9288 24.1214
420 1 12.2137 12.9604 26.8844
421 1 1.05503 15.7414 24.2556
422 1 3.90142 15.6139 23.9646
423 1 4.09363 15.6072 26.6879
424 1 1.09606 15.5602 27.0782
425 1 1.09536 18.6184 23.9956
426 1 3.95148 18.7822 23.8687
427 1 3.88354 18.6758 26.6221
428 1 0.979434 18.6238 26.7293
429 1 6.64698 15.589 24.2073
430 1 9.88174 18.5566 26.7922
431 1 9.79061 15.8283 26.6927
432 1 6.91653 15.769 26.8317
433 1 6.77854 18.7071 24.2862
434 1 9.75605 18.505 24.1618
435 1 12.602 18.5041 27.0891
436 1 6.82357 18.5297 27.0427
437 1 12.5233 18.4986 24.0593
438 1 12.5858 15.6808 26.8969
439 1 12.362 21.5488 23.9985
440 1 12.7917 21.4768 26.6648
441 1 1.31964 21.3702 23.8027
442 1 3.99897 21.6303 23.9998
443 1 4.31236 21.5041 26.9702
444 1 1.45952 21.3766 26.8021
445 1 6.94143 21.8385 24.1359
446 1 9.82407 21.2466 24.0873
447 1 9.58146 21.4325 26.8149
448 1 6.80092 21.3172 26.9735
15221 2 13.6771 11.6588 22.8237
12144 2 5.21798 17.1507 13.9569
15241 2 13.6744 22.7041 22.5278
12250 2 11.1472 22.6846 25.5238
12021 2 -0.0901256 8.52448 28.0729
12126 2 2.49548 -2.61439 13.9201
15182 2 13.9245 14.0782 19.7041
12227 2 8.17452 8.72904 25.2416
12249 2 11.0064 19.9987 22.6766
12226 2 8.21623 11.6667 22.5367
12225 2 5.30237 8.64042 22.713
12151 2 -0.170085 -2.50299 17.0784
12223 2 2.52577 8.38363 25.1525
12248 2 5.52907 22.7686 25.4774
12222 2 2.50253 11.647 22.6175
12228 2 5.27357 11.3871 25.5624
12207 2 8.16793 -2.79161 25.5652
12220 2 11.0251 5.79343 25.358
12247 2 8.3185 19.8516 25.5005
12138 2 8.4128 8.69476 14.1715
12203 2 2.2367 -2.72587 25.4017
15191 2 13.9493 22.9307 16.806
12219 2 11.0143 2.68547 22.6718
12246 2 8.4324 22.8169 22.6018
12129 2 5.49394 -0.0254186 14.1246
12218 2 5.41516 5.57755 25.2961
15211 2 13.8875 5.89093 22.3032
12245 2 5.63505 19.9877 22.7054
12152 2 2.66098 0.156417 16.914
12205 2 5.39703 -2.84898 22.6471
12243 2 2.54644 20.1266 25.3149
12153 2 2.60049 -2.77003 19.7089
12156 2 8.27754 0.119023 16.9139
12039 2 10.9819 14.4433 28.1793
12158 2 5.58266 -0.0437634 19.5775
12139 2 5.50727 11.5211 14.042
12160 2 11.0045 0.0141294 19.7748
12242 2 2.61009 23.0252 22.5226
12162 2 2.51636 5.71101 16.6675
12163 2 2.5436 3.04605 19.897
12240 2 11.2417 17.1468 25.459
12165 2 5.69928 2.82138 16.9174
12166 2 8.28253 5.76672 16.6048
12167 2 8.01272 3.09604 19.7081
12168 2 5.25821 5.46052 19.6336
12169 2 11.0721 2.91303 16.8683
12170 2 11.0392 5.76594 19.7622
12239 1 9.38191 15.7462 24.1437
12172 2 2.48718 11.7158 16.8091
12173 2 2.57202 8.56069 19.7253
12238 2 5.54306 17.0647 25.447
12175 2 5.23222 8.73708 16.4448
12176 2 8.40221 11.6402 16.8421
12177 2 8.78308 8.7212 19.6224
12178 2 5.4468 11.7421 19.8918
12179 2 11.3396 8.84799 16.9656
12180 2 11.1474 11.5231 19.8406
12237 2 8.18927 14.4064 25.4289
12182 2 2.66685 17.0513 16.8082
12183 2 2.62707 14.3914 19.5325
12236 2 8.44067 17.044 22.4767
12185 2 5.54932 14.35 16.9948
12186 2 8.16531 17.2059 16.7754
12187 2 8.5582 14.3109 19.7399
12188 2 5.48652 17.2285 19.6231
12189 2 11.1375 14.2733 16.7802
12190 2 11.2888 17.2297 19.7821
12235 2 5.44482 14.399 22.5478
12192 2 2.58855 22.8648 17.1045
12193 2 2.60096 20.0137 19.7921
12136 2 2.46656 8.64142 13.9785
12195 2 5.46979 20.1088 16.9081
12196 2 8.21264 22.7427 16.8627
12197 2 8.20527 19.7784 19.7792
12198 2 5.55894 22.6853 19.8562
12199 2 11.1142 20.1588 17.1434
12200 2 11.1034 22.7783 19.8113
12233 2 2.48897 14.2729 25.4127
12202 2 2.63797 -0.0828604 22.4915
10 1 9.69931 -1.46108 27.1488
12232 2 2.59911 17.2442 22.6473
12191 2 -0.130918 19.994 16.882
12206 2 8.1361 -0.0368934 22.6775
12161 2 -0.0142473 3.02782 17.1358
12208 2 5.08159 0.0624493 25.3181
12231 2 -0.0433603 14.4169 22.4769
12210 2 11.0034 0.00950022 25.6326
12230 2 10.9166 11.7422 25.3484
12212 2 2.60326 5.5344 22.6221
12213 2 2.6297 2.81627 25.3738
12229 2 11.1657 8.85801 22.6046
12215 2 5.34107 3.15341 22.6046
12216 2 8.50376 5.7589 22.3137
12217 2 8.12252 2.80498 25.432
12131 2 2.65567 2.79797 14.0012
12128 2 8.30786 -2.64035 14.2631
12145 2 11.055 16.9915 14.2925
15231 2 13.7437 16.8487 22.6381
12241 2 -0.224779 20.1037 22.5042
6421 1 12.6619 15.8967 24.1991
15232 2 13.9628 14.3628 25.4773
15201 2 13.7408 -0.0794302 22.5716
12146 2 2.45058 20.2162 14.0241
15222 2 13.9039 8.82493 25.5553
15131 2 13.8745 2.97836 14.059
15212 2 13.7468 2.82029 25.3406
15011 2 13.8726 5.69494 28.1225
12130 2 11.2406 0.19047 13.9798
12159 2 11.2183 -2.69727 16.8562
12150 2 11.1086 22.786 14.1592
15041 2 13.9197 22.5949 28.057
12141 2 2.67637 14.1891 13.9789
12133 2 8.29607 3.07861 14.0427
451 1 1.19983 24.1411 1.20879
452 1 4.18777 24.3206 1.24893
453 1 3.97579 24.1486 4.21528
454 1 0.955705 27.1612 4.16998
455 1 6.73229 23.8452 0.999502
15306 2 13.8525 34.273 5.77447
457 1 9.73353 24.2514 3.97069
458 1 6.9675 24.147 4.16213
459 1 12.4411 26.7918 1.35582
460 1 12.517 24.2369 4.04153
461 1 1.17959 27.2728 1.4922
462 1 4.11629 26.9832 1.09786
463 1 4.02056 26.7791 3.65305
464 1 1.21006 30.0371 3.88836
456 1 9.5858 24.1737 1.15226
466 1 4.17736 29.8767 1.40657
467 1 4.13761 29.8109 4.17541
468 1 1.12612 29.7985 6.74838
469 1 6.95444 26.6333 1.08254
470 1 9.73611 27.0317 1.05376
471 1 9.78875 27.1352 4.34874
472 1 6.77332 27.1587 3.7412
473 1 6.8083 29.8824 1.15823
474 1 9.69479 29.9067 1.43438
475 1 9.75377 29.8083 4.15878
476 1 6.91545 30.0175 4.06136
12289 2 11.3545 42.6142 -0.11871
478 1 12.5225 27.165 4.00935
12319 2 -0.281686 39.7696 8.38595
480 1 12.5782 30.2309 3.91674
12379 2 2.69344 42.4239 14.0062
482 1 4.15536 32.6847 1.16759
483 1 4.01861 32.68 4.15166
12279 2 10.951 36.7996 0.21767
541 1 0.814938 24.0143 6.73506
486 1 3.85937 35.3427 1.28086
487 1 4.18151 35.3342 4.06345
488 1 1.46482 38.2574 4.21245
489 1 6.86242 32.5442 1.14483
490 1 9.77324 32.6933 1.57618
491 1 9.70698 32.8162 4.24317
492 1 6.83579 32.6864 4.04826
493 1 6.81185 35.3168 1.24077
12385 2 8.68708 47.9835 13.8595
495 1 9.77303 35.7874 4.00719
496 1 6.85678 38.132 3.77072
6481 1 12.9084 32.6812 0.941353
498 1 12.3585 32.9651 4.05734
902 1 4.20766 49.3786 1.12539
500 1 12.4013 35.395 1.57634
501 1 1.18474 35.4418 1.09431
502 1 3.9093 38.2035 1.26943
503 1 4.0169 38.3015 3.8266
504 1 1.22742 38.4466 1.06192
505 1 1.44448 41.256 1.43977
506 1 4.17041 41.1135 1.09964
507 1 4.0199 41.2617 4.08186
508 1 1.35435 41.0063 4.1188
509 1 6.8912 38.0648 1.08224
12296 2 -0.133535 25.4914 5.44936
511 1 9.78597 38.4942 3.61596
512 1 9.54845 38.3442 1.12209
513 1 6.84973 40.9768 1.41356
514 1 9.74708 43.9083 4.16726
515 1 9.89089 41.1062 3.77288
516 1 6.8844 40.8538 4.05467
517 1 12.5449 38.6057 1.30607
518 1 12.7314 38.4424 3.88486
519 1 12.4983 41.267 1.15209
520 1 12.7579 41.2559 3.91536
521 1 1.35985 44.1245 1.08917
522 1 4.18842 44.1564 1.32081
523 1 3.88463 43.9062 4.14702
524 1 1.10199 43.6356 3.8565
525 1 1.26533 46.8988 1.06639
526 1 3.8455 46.7837 1.39185
527 1 3.75779 46.8306 4.02851
528 1 1.27302 46.5216 3.90476
529 1 7.07085 43.559 0.995658
6494 1 1.15631 30.0711 1.17466
531 1 10.0479 43.7744 1.43064
532 1 6.93456 43.9465 4.00958
533 1 7.03667 46.6392 1.32504
534 1 9.92743 46.3698 1.27537
535 1 9.93226 46.7218 4.13902
536 1 7.16158 47.0426 4.07899
537 1 12.764 44.0331 1.15877
538 1 12.7621 43.8362 3.85681
539 1 12.798 46.854 1.1326
540 1 12.6015 46.7472 3.81323
6478 1 1.41901 32.5714 1.45874
542 1 3.71485 24.1047 7.04765
543 1 4.01529 24.1651 9.61995
12383 2 11.2498 45.3081 13.6913
545 1 6.31337 24.4887 6.95746
546 1 9.37487 24.152 6.82146
547 1 9.58968 24.0398 9.7228
548 1 6.74017 24.1201 9.83325
549 1 12.5733 24.3853 6.94273
550 1 12.5169 24.1256 9.71869
551 1 1.42946 26.8309 7.0962
552 1 4.00715 27.1637 6.73487
553 1 3.85477 26.9687 9.85957
554 1 1.11469 26.7073 9.88488
12251 2 -0.279613 25.8579 -0.0854284
556 1 3.93845 29.6748 6.99097
557 1 3.95865 29.6216 9.93122
558 1 1.29985 32.2835 9.84652
559 1 6.89753 27.0009 6.76661
560 1 9.64552 27.0061 6.96263
561 1 9.86739 26.9316 9.83267
562 1 6.62994 26.9337 9.81231
563 1 6.79525 30.1095 6.89705
564 1 9.55645 30.0251 7.06994
565 1 9.42771 29.9036 9.93457
566 1 6.68175 29.9009 9.72846
567 1 12.297 27.2156 6.86529
568 1 12.5036 27.0107 9.86811
569 1 12.3035 29.8733 6.99307
570 1 12.2214 29.9817 9.40521
12269 2 10.7515 31.4532 0.155428
572 1 4.31209 32.6479 6.91731
573 1 4.25769 32.5864 9.68088
574 1 1.3795 35.7511 6.60215
575 1 1.3455 35.7091 4.14286
576 1 4.19017 35.4967 6.83946
577 1 3.86148 35.416 9.97923
578 1 1.0865 35.3922 10.1269
579 1 6.94548 35.5247 6.73571
580 1 7.08909 32.8221 6.92123
581 1 10.0053 32.4206 9.59958
582 1 7.02109 32.7203 9.79376
583 1 7.06841 35.4033 3.99462
584 1 9.66514 33.2908 7.02619
585 1 9.68109 35.205 9.66994
586 1 6.48451 35.4895 9.6471
587 1 12.6008 32.6128 6.88747
588 1 12.8783 32.7163 9.66861
589 1 12.1471 35.4631 6.82569
590 1 12.471 35.5134 9.6649
591 1 1.15017 38.4177 6.89251
592 1 3.93402 38.4146 7.00624
593 1 3.91699 38.3678 9.71424
594 1 1.18937 38.0953 9.79587
595 1 1.0058 41.3064 6.96162
596 1 3.97604 41.3637 6.83844
597 1 4.12595 41.1663 9.74602
598 1 1.17569 41.1868 9.75311
599 1 6.69896 38.5093 6.57476
600 1 9.66748 41.3695 6.67792
601 1 9.93106 38.4886 10.0337
602 1 6.52125 38.5957 10.0804
603 1 6.88494 41.0388 7.04226
604 1 9.81902 44.0863 7.08927
605 1 10.0512 41.3328 9.54259
606 1 6.935 41.2257 9.88044
607 1 12.5588 38.1994 6.88947
608 1 12.6053 38.2537 9.68922
609 1 12.5718 41.2124 6.76626
610 1 12.864 41.0634 9.5001
611 1 1.05372 44.2372 6.91355
612 1 3.76006 43.9999 6.90467
613 1 4.07218 43.7628 9.65219
614 1 1.27873 43.7718 9.53314
615 1 1.26917 46.8537 6.85365
616 1 4.11564 46.7744 6.80805
617 1 4.03219 46.7765 9.72636
618 1 1.33631 46.6937 9.87434
619 1 7.05776 44.0072 6.96881
620 1 10.1554 46.7713 6.97729
621 1 9.63815 44.0058 9.82811
622 1 6.90106 44.2002 9.48389
623 1 6.91749 46.7072 6.7567
530 1 9.5957 41.2149 1.10233
625 1 9.86812 46.8636 9.77093
626 1 6.75619 46.8461 9.56016
627 1 12.7775 43.8648 6.67894
628 1 12.4841 43.8505 9.5084
629 1 12.6817 46.8463 6.61113
630 1 12.4216 46.7296 9.36667
631 1 1.13582 24.4596 12.4467
632 1 3.92328 24.2442 12.521
633 1 6.70421 24.4111 12.5395
634 1 9.72162 24.1193 12.6332
635 1 12.631 24.2137 12.3694
636 1 1.14283 27.2548 12.7667
637 1 4.11889 26.8959 12.5783
638 1 0.922834 30.1059 12.4395
639 1 3.94942 29.8553 12.7008
640 1 6.83116 27.19 12.584
641 1 9.61121 26.931 12.5756
642 1 6.72257 29.8209 12.7761
643 1 9.74537 29.8504 12.5608
644 1 12.5672 27.0789 12.8318
645 1 12.4983 29.6316 12.3789
646 1 1.11596 32.6935 13.0733
647 1 3.84746 32.5487 12.593
648 1 0.945132 35.6898 12.7347
649 1 4.27849 35.451 12.7331
650 1 6.79748 32.7286 12.5764
651 1 9.45234 32.7384 12.6015
652 1 7.23393 35.5487 12.4894
653 1 10.0331 35.6432 12.6195
654 1 12.438 32.4251 12.7451
655 1 12.663 35.4944 12.5727
656 1 1.27528 38.414 12.5332
657 1 4.18421 38.2005 12.7588
658 1 1.34959 41.2128 12.5744
659 1 4.22782 41.0647 12.5605
660 1 6.83627 38.1459 12.7806
661 1 9.82274 38.3479 12.7105
662 1 6.81827 41.1654 12.516
663 1 9.70879 40.9925 12.444
664 1 12.7775 38.5844 12.6326
665 1 12.9549 41.4694 12.253
666 1 1.03341 43.9545 12.9287
667 1 4.15398 44.0854 12.4096
668 1 1.30963 46.8423 12.7477
669 1 4.05424 46.842 12.7427
670 1 6.88071 43.8676 12.5362
671 1 9.59831 44.3097 12.4325
672 1 6.81475 46.4944 12.3424
673 1 10.0851 46.9998 12.4266
674 1 12.4999 43.997 12.1141
675 1 12.8024 46.8642 12.3294
12363 2 11.3124 48.1756 10.9855
12256 2 8.33936 28.5465 -0.108743
12253 2 2.68559 25.6233 2.33771
12362 2 5.46479 48.039 11.2582
1009 1 7.02664 49.64 6.92542
12284 2 -0.175328 45.3516 2.5476
12257 2 8.37125 25.5982 2.69897
12258 2 5.52237 28.473 2.36496
12274 2 -0.0298289 39.8843 2.48978
12260 2 10.9689 28.4517 2.71944
89 1 12.2583 24.0283 1.33764
12381 2 8.21988 42.5063 13.8079
12263 2 2.51897 31.2806 2.77002
12360 2 11.1244 42.5238 10.9969
903 1 3.84291 49.5925 3.99457
910 1 9.93002 49.6165 1.1976
12267 2 8.29107 31.1447 2.73476
12268 2 5.50069 33.8828 2.76266
555 1 1.03276 29.8628 9.63656
12270 2 10.9376 34.2668 2.88013
12359 2 8.2581 45.3841 10.9447
12349 2 8.17187 34.2304 10.9723
12273 2 2.70645 36.8885 2.78328
12358 2 5.57736 42.5219 10.9534
6482 1 12.9494 35.9125 4.41796
12361 2 -0.013636 48.1492 10.9062
12277 2 8.17188 36.8757 2.47372
12278 2 5.51815 39.5183 2.51864
571 1 1.38978 32.7699 4.10843
12280 2 11.136 39.9081 2.49912
12348 2 5.38252 31.1114 11.2089
84 1 1.23284 24.2606 4.0298
12283 2 2.67411 42.5789 2.64043
12259 2 11.2166 25.5725 -0.189975
12347 2 2.62554 34.0011 11.4397
12281 2 -0.0676573 42.694 -0.0293635
12287 2 8.41474 42.5231 2.66296
12288 2 5.33629 45.3601 2.74273
12329 2 -0.163457 45.6233 8.26631
12290 2 11.3474 45.2268 2.7083
12350 2 11.0099 31.3497 11.2278
12292 2 2.60242 48.1768 2.54444
12352 2 2.89177 39.5592 11.2551
12294 2 8.62164 48.1799 2.71899
858 1 9.57444 35.2431 1.31781
12357 2 2.59109 45.0668 11.1669
12297 2 2.58513 28.5484 5.31932
12298 2 2.52029 25.336 8.49047
12299 1 1.20349 32.8398 6.93991
12300 2 5.26242 25.6263 5.29702
12301 2 7.92346 28.6114 5.55041
12302 2 7.99313 25.625 8.2476
12303 2 5.37342 28.4582 8.44889
12304 2 10.9169 25.3522 5.61632
12305 2 10.9066 28.5192 8.36016
12295 2 11.3422 48.2257 -0.10877
12307 2 2.50474 34.1102 5.55947
12308 2 2.5939 31.2007 8.41216
12355 2 10.9743 36.932 11.0336
12310 2 5.36904 31.3119 5.42209
12311 2 8.20962 34.112 5.39184
12312 2 8.27131 31.4353 8.43884
12313 2 5.53483 34.0574 8.25041
12314 2 11.0012 31.306 5.60987
12315 2 11.2339 34.1568 8.33479
12354 2 8.36647 39.7032 11.2174
12317 2 2.6597 39.8889 5.46931
12318 2 2.7036 36.9806 8.30668
544 1 1.13243 24.0148 9.78305