ITEM: TIMESTEP
100000
ITEM: NUMBER OF ATOMS
18000
ITEM: BOX BOUNDS xy xz yz pp pp pp
-2.3057299285499958e-01 2.8124572992855850e+01 0.0000000000000000e+00
-2.6274746302106418e+00 3.3735547463021948e+02 0.0000000000000000e+00
-2.2458428551458098e-01 2.8118584285514249e+01 0.0000000000000000e+00
ITEM: ATOMS id type x y z
1 1 1.17196 -1.46378 1.1659
2 1 3.90984 -1.40772 0.989634
3 1 3.8326 -1.5383 3.93256
4 1 1.01542 -1.56346 3.78526
5 1 1.09524 1.12865 1.02292
6 1 3.90528 1.3078 1.03943
7 1 3.84157 1.43037 3.85562
8 1 1.17694 1.5097 3.84805
9 1 6.86433 1.60657 1.01521
10 1 9.85076 -1.38662 0.979191
11 1 9.41613 -1.37988 3.83241
12 1 6.69094 1.40935 6.71442
13 1 6.93865 1.25695 3.94392
14 1 9.60131 1.41179 1.28485
15 1 9.6625 1.52097 4.00099
16 1 6.94516 4.32594 3.80939
17 1 12.6344 -1.19357 1.12689
18 1 12.5747 -1.71839 3.98271
19 1 12.4506 1.51063 1.39708
20 1 12.3049 1.20498 4.16994
21 1 1.13943 4.37726 0.945909
22 1 4.39346 4.24592 1.10315
23 1 4.321 4.37059 3.96224
24 1 1.45498 4.17613 3.98686
25 1 1.3946 7.2675 1.17168
26 1 4.1938 7.12505 1.29089
27 1 4.0898 7.08146 4.08022
28 1 1.24507 7.16208 4.08495
29 1 6.7993 7.17675 1.08453
30 1 10.4016 4.40342 1.19808
31 1 9.91291 4.1356 3.93924
32 1 7.01878 7.15757 4.14235
33 1 6.92069 9.90105 1.3821
34 1 9.93574 7.0617 1.04857
35 1 9.61107 6.87921 3.91328
36 1 7.02274 9.73151 4.13145
37 1 13.0977 4.3241 1.24426
38 1 12.7461 3.82705 3.97705
39 1 12.8707 7.12235 1.06993
40 1 12.6493 6.89111 4.09714
41 1 1.07651 9.658 0.96413
42 1 4.0043 9.91707 1.18883
43 1 4.17198 12.6405 3.99592
44 1 4.45421 9.94767 3.82541
45 1 1.34979 12.6462 1.20172
46 1 4.32507 12.8876 1.41871
47 1 4.39308 12.494 6.57935
48 1 1.37429 12.7247 4.31238
49 1 7.14481 12.6798 0.970338
50 1 9.81667 9.93804 1.34614
51 1 12.6377 10.1972 6.71445
52 1 6.88708 12.6617 4.13062
53 1 6.94324 15.6935 1.15592
54 1 9.93931 12.8232 1.24549
55 1 9.89158 12.846 3.9304
56 1 10.0214 15.4786 6.69939
57 1 12.7382 10.1356 1.13481
58 1 12.8464 9.87412 3.84394
59 1 12.6314 12.7495 0.99189
60 1 12.5033 12.6088 4.03721
61 1 1.43135 15.6941 1.06311
62 1 4.28884 15.5416 1.07547
63 1 4.43581 15.7996 3.89513
64 1 1.46442 15.4877 4.01406
65 1 1.28957 18.3551 1.22752
66 1 4.10067 18.5254 1.0023
67 1 4.24182 18.3104 3.95985
68 1 1.24487 18.4549 3.77179
69 1 6.5271 18.6878 1.32134
70 1 9.86196 15.6796 1.00844
71 1 9.66588 15.6795 3.63297
72 1 7.20734 15.4149 4.21659
73 1 7.0973 21.1933 0.987554
74 1 9.80709 18.4691 0.966462
75 1 12.6358 18.2011 3.70949
76 1 7.16796 18.338 4.00878
77 1 12.695 15.6186 1.10906
78 1 12.6397 15.4327 3.79381
79 1 12.6789 18.4861 1.12996
80 1 12.7395 21.2754 3.89659
81 1 1.09702 21.517 1.15634
82 1 4.11288 21.3935 1.14943
83 1 4.36283 21.194 3.93009
84 1 1.53532 21.3 4.06547
12061 2 -0.0909489 2.82301 5.35454
86 1 9.97565 21.354 1.00703
87 1 9.73046 21.0891 4.16294
88 1 7.19857 21.2632 3.9506
89 1 12.6981 21.2724 1.21938
12081 2 -0.0997748 14.1276 5.56533
91 1 1.39922 -1.36596 6.6688
92 1 4.38435 -1.48508 6.93538
93 1 3.76242 -1.43124 9.82891
94 1 1.08756 1.24014 6.7379
95 1 1.27544 4.41427 6.81831
96 1 3.81683 1.25373 6.68439
97 1 3.94119 1.39476 9.57319
98 1 1.06921 1.4712 9.52263
99 1 6.62317 4.26349 6.29355
100 1 9.62768 -1.33639 6.65946
101 1 9.74418 -1.50846 9.40989
102 1 6.8962 1.73112 9.4132
103 1 7.10507 6.99104 6.62353
104 1 9.54936 1.59481 6.79681
105 1 9.95798 1.57138 9.67518
106 1 6.87206 4.39568 9.74227
107 1 12.3785 -1.39802 6.79078
108 1 12.5385 -1.46832 9.66246
109 1 12.4959 1.52862 7.04211
110 1 12.6446 1.33544 9.74682
111 1 1.1568 7.23452 6.9678
112 1 3.82444 3.73934 6.5997
113 1 4.00904 4.21036 9.30553
114 1 0.911575 4.13195 9.59371
115 1 1.3997 9.84051 6.61262
116 1 4.07922 7.11696 6.66192
117 1 4.01694 7.15202 9.46936
118 1 1.23301 7.08583 9.50089
119 1 9.6249 9.99558 4.07152
120 1 9.64458 4.37771 6.77944
121 1 9.83825 4.30338 9.6608
122 1 6.68567 7.02934 9.62705
123 1 4.12961 9.82806 7.01456
124 1 9.87873 7.47797 6.64664
125 1 9.80062 6.91782 9.53319
126 2 8.48897 8.33926 8.50091
127 1 12.5945 4.55538 6.63568
128 1 12.6416 4.14632 9.54789
129 1 12.8376 7.27795 6.86573
130 1 12.7355 7.32617 9.3943
15042 2 13.9918 19.7943 2.4591
132 1 1.41018 12.5844 7.07967
133 1 4.09314 9.93004 9.71576
134 1 1.32334 10.031 9.74674
12094 2 -0.195326 22.5328 8.17474
136 1 4.24749 15.3105 7.03124
137 1 4.21551 12.8979 9.82583
138 1 1.32882 12.623 9.74344
139 1 7.07513 9.8657 6.71624
140 1 9.80073 10.2507 6.71141
141 1 9.92715 9.84103 9.5977
142 1 7.20569 10.0194 9.42237
143 1 7.0407 12.8818 6.88528
144 1 9.83126 12.8193 6.83719
145 1 9.78333 12.9951 9.56184
146 1 7.16758 13.0382 9.78247
12135 2 10.9552 5.75207 13.8235
148 1 12.6553 10.1426 9.64113
12111 2 0.0238524 8.35631 10.8919
150 1 12.7 12.9342 9.67115
151 1 4.00047 18.2422 6.76895
152 1 7.02884 15.7742 6.92687
153 1 4.10972 15.7023 9.7986
154 1 1.24224 15.6271 9.34527
155 1 1.54546 18.4558 6.89108
156 1 7.22188 18.6131 6.79045
157 1 3.8468 18.5832 9.66399
158 1 1.16149 18.2271 9.8572
159 1 12.9986 15.7647 6.83836
160 1 12.8592 18.4898 6.65339
161 1 9.82495 15.7431 9.6039
162 1 7.01013 15.989 9.69835
163 1 10.0472 18.4128 3.93479
164 1 9.82757 18.4191 6.93218
165 1 10.0245 18.5978 9.77168
166 1 6.75623 18.7951 9.37186
12074 2 -0.196545 11.1774 8.24322
168 1 12.579 15.653 9.70943
169 1 12.651 21.2888 6.7594
170 1 12.6245 18.6377 9.46629
171 1 0.959726 21.321 6.61373
172 1 4.07534 21.4366 6.74009
173 1 4.03754 21.461 9.62131
174 1 1.26949 21.3661 9.41991
175 1 7.13257 21.3682 6.68002
176 1 9.89646 21.3962 6.91024
177 1 9.90428 21.158 9.53502
178 1 7.07629 21.6536 9.55786
12024 2 -0.105885 11.1885 2.35779
180 1 12.8365 21.0842 9.60509
181 1 1.09979 -1.30233 9.52154
182 1 4.09919 -1.63323 12.4494
183 1 1.39408 1.75289 12.4096
184 1 3.76547 1.39177 12.4133
185 1 6.9729 -1.30051 12.4086
186 1 9.77416 -1.27382 12.2915
187 1 6.85992 1.38012 12.4058
188 1 9.65639 1.35131 12.5188
189 1 12.7887 -1.2616 12.5621
190 1 12.767 1.81605 12.3331
191 1 1.24287 4.24274 12.3122
192 1 4.07645 4.43394 12.3442
193 1 1.52367 7.18193 12.3792
194 1 4.51951 7.08075 12.5236
195 1 6.86185 4.0884 12.7512
196 1 9.57735 4.2021 12.3302
197 1 6.95468 7.35251 12.296
198 1 9.75519 7.24847 12.3114
199 1 12.4236 4.48955 12.4463
200 1 12.6066 7.4017 12.265
201 1 1.24146 9.80861 12.4782
202 1 4.14707 9.94407 12.595
203 1 1.40939 12.7007 12.4074
204 1 3.99756 12.765 12.6353
205 1 6.86932 10.1362 12.255
206 1 9.80761 10.0709 12.4285
207 1 6.91224 12.9482 12.4926
208 1 9.81866 12.7276 12.5182
209 1 12.8996 10.0276 12.3537
210 1 12.7412 12.5894 12.5696
211 1 1.54515 15.8879 12.3808
212 1 4.12274 15.5384 12.4289
213 1 1.46142 18.6188 12.5781
214 1 4.4815 18.6421 12.3855
215 1 7.06778 15.806 12.5527
216 1 9.75646 15.6258 12.4519
217 1 7.49069 18.9452 12.1353
218 1 9.85744 18.4044 12.6099
219 1 12.7946 15.4244 12.5684
220 1 12.6922 18.1977 12.4601
221 1 1.22202 21.4121 12.4252
222 1 4.11351 21.1531 12.3119
223 1 7.05735 21.6253 12.363
224 1 9.67154 21.4377 12.545
225 1 12.7244 21.4369 12.5165
12125 2 11.2079 19.9915 10.9939
12110 2 11.1859 2.89443 11.0018
12084 2 -0.0459746 17.1145 8.28256
12124 2 8.33744 22.8103 11.0774
12132 2 0.0248263 5.7708 13.7257
12109 2 8.19685 5.5422 11.0924
12022 2 2.47526 11.2259 -0.133521
12008 2 5.27052 0.0322211 2.4698
12091 2 -0.102573 19.762 5.36194
12010 2 11.0938 -0.0938249 2.71389
12123 2 5.71745 20.0719 10.9154
12108 2 5.40585 2.73315 11.2405
12013 2 2.3989 2.81495 2.20249
12121 2 -0.0952394 19.6142 11.1237
12107 2 2.67352 5.47509 10.7671
12112 2 2.72813 11.4829 11.0297
12017 2 8.2985 2.56728 2.52734
12018 2 5.73778 5.71767 2.45399
12104 2 8.48539 -0.0813048 10.9265
12020 2 11.708 5.40891 2.57048
5633 1 6.73666 -1.26427 4.10094
12148 2 8.47825 19.7785 13.9139
12023 2 2.70963 8.41413 2.48926
12120 2 11.314 14.383 11.1811
12102 2 2.55006 0.100558 10.9005
12113 2 5.51025 8.53688 10.8854
12027 2 8.35726 8.39917 2.15571
12028 2 5.7578 11.3829 2.56205
12100 2 11.3524 22.5809 8.33688
12030 2 11.4219 11.3417 2.45869
12099 2 11.3845 19.7705 5.43069
12098 2 5.68355 22.8197 8.29011
12033 2 2.69006 14.0347 2.66414
12041 2 0.0270217 19.8825 -0.202207
12097 2 8.44593 20.0039 8.08746
12096 2 8.61529 22.7516 5.31096
12037 2 8.36346 14.1162 2.4552
12038 2 5.57159 17.2129 2.56586
12095 2 5.81198 19.8355 5.36685
12040 2 11.3259 16.8558 2.43168
12142 2 0.159732 17.1775 13.9573
12093 2 2.74516 19.8067 8.33401
12043 2 2.88011 19.8432 2.63351
12116 2 -0.22664 14.1322 10.8755
12092 2 2.71131 22.7096 5.51141
149 1 12.4641 12.9107 7.02645
12047 2 8.52785 19.6313 2.51927
12048 2 5.47813 22.6043 2.69178
12090 2 11.2053 17.1404 8.31162
12050 2 11.3896 22.5992 2.39224
12119 2 8.52113 17.0336 11.0801
12052 2 2.44048 0.0577331 5.16909
5723 1 7.1823 -1.18097 6.92525
12118 2 5.49465 14.215 11.0752
372 1 6.82943 -1.14072 1.25091
12056 2 8.32745 0.0615113 5.33321
12034 2 -0.0693795 17.0644 2.48437
12058 2 5.36404 -0.134461 8.26634
227 1 1.16523 -1.15235 12.4078
12060 2 11.2785 0.090483 8.23583
12117 2 2.7842 17.0809 11.0328
12062 2 2.7633 5.44977 5.35168
12063 2 2.48756 2.69128 8.11549
12089 2 11.3086 14.0252 5.4004
12065 2 5.32273 2.68968 5.17435
12066 2 8.44538 5.32989 5.21549
12067 2 8.19757 2.78968 8.21118
12068 2 5.47884 5.40992 7.91457
12069 2 11.0386 2.76865 5.27406
12070 2 11.4749 5.85261 8.38135
12115 2 11.2828 8.67647 10.9462
12072 2 2.85942 11.11 5.21939
12073 2 2.61924 8.52819 8.03841
12114 2 8.40128 11.3835 11.1314
12075 2 5.34328 8.43961 5.16947
12076 2 8.54506 11.7239 5.47254
12077 2 8.40883 8.58651 5.38413
12078 2 5.55725 11.2049 8.13654
12079 2 11.8455 8.46573 5.40752
12080 2 11.2871 11.324 8.40146
12035 2 5.79727 14.0889 -0.100195
12082 2 2.86701 16.9855 5.43279
12083 2 2.78785 14.0362 8.41972
376 1 7.33823 4.55882 1.37277
12085 2 5.54221 14.1377 5.3781
12086 2 8.383 16.9636 5.52912
12087 2 8.44215 14.3334 8.3183
12088 2 5.33934 16.9901 8.36142
5726 1 6.82538 -1.15673 9.75112
131 1 1.42057 9.97009 3.628
135 1 1.52891 15.6583 6.77995
12122 2 2.58431 22.5547 10.8773
12141 2 2.80779 14.2171 13.8438
12139 2 5.59574 11.5125 13.89
12071 2 -0.162859 8.56968 5.42055
12127 2 -0.110635 -0.0526377 13.7368
12145 2 11.2917 16.89 13.8181
12136 2 2.7832 8.58729 13.88
12144 2 5.51411 17.1614 13.8529
12138 2 8.42231 8.65513 13.8388
12137 2 -0.190753 11.3293 13.7643
12149 2 5.54934 22.7677 13.8082
12140 2 11.3972 11.2709 13.93
12044 2 -0.073341 22.8083 2.58285
12143 2 8.2622 14.3279 13.9233
12147 2 -0.0250195 22.6992 13.7343
12012 2 2.49851 5.66793 -0.21218
12006 2 8.36376 -0.121199 -0.137152
12130 2 11.3351 -0.0607161 13.7092
12129 2 5.44276 0.0227003 13.8856
226 1 4.35589 -1.53712 15.1325
5906 1 6.88117 -1.46724 21.1018
228 1 4.07513 1.3733 15.4213
229 1 1.46104 1.29234 15.1507
230 1 9.94304 -1.38514 15.3467
231 1 7.11952 -1.50688 15.2188
232 1 10.0287 1.44015 15.4428
233 1 6.88659 1.44263 15.1665
5814 1 1.19757 -1.41739 15.1896
235 1 12.8377 1.2638 15.2775
236 1 4.33971 3.97932 15.334
237 1 1.28074 4.5257 15.1782
238 1 4.28422 6.88398 15.3754
239 1 1.3451 7.01557 15.4525
240 1 9.82643 4.24847 15.2493
241 1 7.06698 4.54555 15.4258
242 1 9.72247 7.31467 15.0086
243 1 7.31179 7.30886 15.2438
244 1 12.5732 4.13546 15.3653
245 1 12.3992 6.88177 15.3871
246 1 4.18916 9.9994 15.1756
247 1 1.13651 9.80902 15.1892
248 1 4.11925 12.6999 15.4653
249 1 1.39543 12.7776 15.251
250 1 10.1124 10.1106 15.6109
251 1 7.10696 10.3669 15.0807
252 1 9.95454 12.7283 15.1515
253 1 7.0489 12.9756 15.2001
254 1 12.7041 9.62043 15.3042
255 1 12.5711 12.4116 15.2133
256 1 4.11556 15.7177 15.2214
257 1 1.40025 15.9326 15.4884
258 1 4.54158 18.5607 15.1522
259 1 1.41523 18.6329 15.329
260 1 9.81346 15.6037 15.3218
261 1 7.01317 15.6377 15.3806
262 1 9.9725 18.2559 15.2577
263 1 7.1982 18.3638 15.439
264 1 12.4756 15.4236 15.2402
265 1 13.0072 18.3429 15.3541
266 1 4.1719 21.4659 15.2249
267 1 1.33102 21.554 15.2984
268 1 9.84214 21.1254 15.2016
269 1 7.05302 21.228 15.191
270 1 12.705 21.1632 15.2519
271 1 1.36402 -1.31963 18.2408
272 1 4.23769 -1.43105 17.8547
273 1 4.06398 -1.52551 20.6421
274 1 1.29606 -1.70109 21.0145
275 1 1.2732 1.57307 17.954
276 1 3.89545 1.24316 18.2779
277 1 4.09202 1.28571 20.9236
278 1 1.29048 1.42828 20.9962
279 1 6.92364 -1.65322 17.9743
280 1 9.65221 -1.52938 18.047
281 1 9.79333 -1.58686 20.8155
282 1 6.89461 1.48806 20.9463
283 1 6.89359 1.52504 18.1511
284 1 9.70424 1.25257 18.0309
285 1 9.8034 1.31655 20.8999
286 1 5.48938 2.39021 25.3681
287 1 12.8037 -1.57466 18.1799
288 1 12.3311 -1.40866 21.0806
289 1 12.5449 1.34636 18.1812
290 1 12.7853 1.39416 21.1391
291 1 1.18521 4.28601 18.1001
292 1 4.0085 4.3354 18.067
293 1 4.17339 4.1234 20.9386
294 1 1.25816 4.13236 20.8614
295 1 1.07879 6.99445 18.1937
296 1 3.848 7.08856 18.0456
297 1 4.21375 7.04476 20.9113
298 1 1.13786 7.05138 20.8551
299 1 7.06598 4.4242 18.2696
300 1 9.84146 4.28951 18.2457
301 1 9.82763 4.26652 21.0978
302 1 6.74556 4.37405 20.9747
303 1 6.55893 7.02487 17.8141
304 1 9.58551 7.27726 18.1517
305 1 9.58698 7.16582 20.8424
306 1 6.87493 7.24597 20.6604
307 1 12.6739 4.26835 18.1599
308 1 12.7291 4.15632 20.9721
309 1 12.2415 6.97825 18.1834
310 1 12.5816 6.99907 20.8601
311 1 1.18209 9.85651 18.0768
312 1 4.04296 10.0835 18.0644
313 1 4.18255 10.1649 21.0559
314 1 1.34196 9.87996 21.022
315 1 1.39536 12.9825 18.2955
316 1 3.97384 12.8262 18.1054
317 1 4.16309 12.9281 21.0064
318 1 1.42422 12.631 21.142
319 1 7.01655 9.93192 17.7615
320 1 9.7747 10.1567 18.2488
321 1 9.99427 10.1296 21.0341
322 1 7.01752 10.2215 20.5415
323 1 6.78019 12.8626 18.1037
324 1 9.47386 12.8112 18.0373
325 1 9.79627 12.724 20.8187
326 1 6.96999 12.9451 20.9443
327 1 12.5285 9.96146 18.1556
328 1 12.5779 9.55252 20.889
329 1 12.6282 12.8005 18.0545
330 1 12.3623 12.5222 21.1686
331 1 1.51883 15.624 18.273
332 1 3.93974 15.5921 18.2294
333 1 4.00649 15.969 21.131
334 1 1.36692 15.4369 21.0712
335 1 1.22112 18.4882 18.0175
336 1 4.26351 18.397 17.952
337 1 4.54283 18.8018 20.6457
338 1 1.21438 18.0397 20.9693
339 1 6.82125 15.6165 18.2091
340 1 9.69179 15.513 18.0787
341 1 9.84125 15.6505 20.7928
342 1 6.98063 15.4796 20.995
343 1 7.07126 18.5477 18.2738
344 1 9.84347 18.418 18.0114
345 1 9.97944 18.4929 20.8677
346 1 7.33101 18.5069 21.1659
347 1 12.6669 15.6535 18.1641
348 1 12.737 15.364 21.0569
349 1 12.6766 18.4258 18.028
350 1 12.57 18.1252 20.89
351 1 1.37115 21.459 18.2688
352 1 4.18555 21.2564 18.1411
353 1 4.06723 21.3664 20.9432
354 1 1.19947 21.0946 20.9819
355 1 7.21287 21.4068 18.3808
356 1 9.95106 21.3415 17.7156
357 1 10.0193 21.2608 20.9527
358 1 7.14053 21.2854 20.9692
359 1 12.9752 21.1096 17.94
360 1 12.6301 21.0726 20.7584
361 1 1.37315 -1.49237 23.7939
362 1 4.08202 -1.74747 23.6218
363 1 4.22465 -1.53367 26.4647
364 1 1.19079 -1.70954 26.4758
365 1 1.25496 1.35499 23.6764
366 1 4.14119 1.14124 23.4875
367 1 3.80797 1.08895 26.73
368 1 1.16852 1.23432 26.6006
369 1 7.16183 1.38674 23.6098
370 1 9.80825 -1.4004 23.8237
371 1 9.84279 -1.44578 26.6504
12204 2 -0.0287394 -0.243275 24.9979
373 1 7.07814 1.21393 26.6708
374 1 9.72666 1.29228 23.7932
375 1 9.75081 1.36012 26.5762
12042 2 2.49733 22.69 28.0936
377 1 12.6572 -1.68678 23.7995
378 1 12.8406 -1.60585 26.5215
379 1 12.2234 1.35699 23.9755
380 1 12.6809 1.2414 26.8373
381 1 1.47959 4.10707 23.8253
382 1 4.20037 4.20585 23.5719
383 1 3.749 4.39291 26.7705
384 1 1.01981 4.2013 26.6032
385 1 1.46284 6.98586 23.878
386 1 4.20431 7.10932 23.8169
387 1 4.14099 6.95217 26.8571
388 1 1.39752 7.33431 26.6976
389 1 7.13963 4.29734 24.0469
390 1 9.76963 4.54668 23.6422
391 1 9.74227 4.2217 26.7772
392 1 7.13861 4.25527 26.7247
393 1 7.1128 7.17988 23.7376
394 1 10.0592 7.22041 24.0641
395 1 9.82338 7.12203 26.6222
396 1 7.05724 7.32481 26.6761
397 1 12.6292 4.12607 23.7943
398 1 12.4177 4.12319 26.5042
399 1 12.9137 6.87999 23.5968
400 1 12.6517 6.9584 26.5404
401 1 1.37958 9.82878 23.7021
402 1 4.10745 9.9629 23.8801
403 1 4.38121 9.95083 26.7342
404 1 1.44868 9.96465 26.5012
405 1 1.26214 12.6063 24.014
406 1 3.98511 12.8065 23.9751
407 1 4.07387 12.6121 27.023
408 1 1.09375 12.6316 26.8385
409 1 7.0726 9.88871 23.8181
410 1 9.64178 9.86919 23.88
411 1 10.0079 9.80721 26.7716
412 1 7.05756 9.88058 26.6817
413 1 6.67763 12.5263 23.7666
414 1 9.64322 12.7598 23.8252
415 1 9.91621 12.6165 26.7895
416 1 7.04905 12.7756 26.4729
417 1 12.6426 9.72865 23.8612
418 1 12.8341 9.89912 26.5803
419 1 12.463 12.4899 23.9201
420 1 12.5547 12.6904 26.5628
421 1 1.388 15.5519 23.8792
422 1 3.97331 15.7529 24.3459
423 1 4.39204 15.3152 26.8951
424 1 1.25758 15.2715 26.6337
425 1 1.29897 18.4703 23.9657
426 1 4.04135 18.5361 23.4305
427 1 4.25126 18.2527 26.5173
428 1 1.57043 18.6126 26.5783
429 1 6.71198 15.5163 23.6613
430 1 9.78037 15.4188 23.5871
431 1 9.9244 15.3711 26.645
432 1 7.20304 15.5509 26.4327
433 1 6.94765 18.6678 23.744
434 1 9.81925 18.1242 23.6187
435 1 9.89594 18.0141 26.4597
436 1 7.07534 18.3817 26.7332
437 1 12.6049 15.3985 23.8831
438 1 12.7897 15.446 26.4906
439 1 12.3097 18.2589 23.9798
440 1 12.7435 18.366 26.7565
441 1 1.33977 21.1069 23.6317
442 1 4.16406 21.1118 23.7408
443 1 4.03107 21.384 26.5428
444 1 1.25133 21.2623 26.5284
445 1 7.15421 21.2982 23.7704
446 1 10.0065 21.1853 23.9274
447 1 9.69342 21.1637 26.3918
448 1 6.82948 21.1859 26.361
449 1 12.58 20.9631 23.5967
450 1 12.5038 21.2048 26.4012
5993 1 6.81657 -1.48309 26.6165
12250 2 11.1197 22.707 25.299
12011 2 -0.141688 2.50405 27.6076
12021 2 -0.187253 8.52738 27.898
12150 2 11.0751 22.6544 14.0776
12174 2 -0.0382555 11.1833 19.6548
12249 2 11.1622 19.9216 22.4347
12171 2 -0.162664 8.56075 16.7107
15242 2 13.8498 19.8204 25.0749
12184 2 -0.232358 16.7685 19.6115
12029 2 11.3514 8.19005 28.0737
12248 2 5.55037 22.6496 25.2428
12015 2 5.33645 2.76342 27.7781
15161 2 13.8573 5.61818 16.7851
12241 2 -0.112995 19.6401 22.3463
12229 2 11.1356 8.3122 22.2791
12244 2 -0.181683 22.5179 25.168
12228 2 5.62705 11.1251 25.351
12224 2 -0.104791 11.1615 25.2905
5820 1 12.7631 -1.45582 15.1338
12221 2 -0.184845 8.48851 22.2721
12227 2 8.42824 8.45373 25.2595
12232 2 2.50248 16.9706 22.4084
12211 2 -0.11378 2.69394 22.4088
12019 2 11.2341 2.59693 27.8773
12247 2 8.35608 19.8634 24.9894
12152 2 2.68135 -0.0517992 16.681
15201 2 13.8396 -0.222199 22.4696
12246 2 8.3138 22.7691 22.4405
12225 2 5.49164 8.49383 22.4046
12156 2 8.32891 -0.0353119 16.64
12226 2 8.50536 11.3314 22.3642
12158 2 5.29182 -0.0661347 19.4145
12235 2 5.54231 13.9697 22.4352
12160 2 11.1299 -0.0257047 19.5521
12245 2 5.68821 19.9174 22.4215
12162 2 2.47335 5.60968 16.7114
12163 2 2.5884 2.88989 19.61
12233 2 2.61068 13.856 25.3774
12165 2 5.63646 2.94147 16.8542
12166 2 8.5745 5.74233 16.6925
12167 2 8.25629 2.71912 19.6797
12168 2 5.49259 5.68293 19.3517
12169 2 11.2686 2.79611 16.9004
12170 2 11.0943 5.61464 19.7024
12243 2 3.02329 19.9265 25.1627
12172 2 2.5839 11.3838 16.672
12173 2 2.74237 8.51757 19.4706
12242 2 2.63804 22.7346 22.3317
12175 2 5.44224 8.66892 16.5324
12176 2 8.50401 11.3146 16.6381
12177 2 8.33106 8.66029 19.3503
12178 2 5.24189 11.473 19.5021
12179 2 11.2203 8.43576 16.7411
12180 2 11.2641 11.3649 19.5242
12214 2 -0.20387 5.75958 25.1651
12182 2 2.86998 16.9489 17.0244
12183 2 2.76084 14.2719 19.7753
15231 2 13.9796 16.8906 22.2808
12185 2 5.26035 14.2681 16.7256
12186 2 8.55865 17.0123 16.7351
12187 2 8.24738 14.0828 19.4761
12188 2 5.71722 17.02 19.6701
12189 2 11.2079 13.978 16.6257
12190 2 11.2893 16.8542 19.4164
12191 2 0.0196365 20.047 16.6414
12192 2 2.79006 22.8406 16.6478
12193 2 2.72871 19.7073 19.5288
12230 2 11.3275 11.1413 25.362
12195 2 5.70504 19.801 16.7983
12196 2 8.34589 22.5678 16.6729
12197 2 8.54538 19.8137 19.68
12198 2 5.42004 22.6274 19.4126
12199 2 11.4641 19.675 16.6112
12200 2 11.0531 22.4502 19.4343
12240 2 11.1795 16.7997 25.189
12202 2 2.85102 -0.218689 22.2361
5989 1 6.88205 -1.59351 23.9216
12239 2 11.1426 14.0233 22.3456
12002 2 2.64713 -0.387534 27.9431
12206 2 8.48528 -0.15967 22.4207
12161 2 -0.0238662 2.90228 16.3327
12208 2 5.58957 -0.00785422 25.0479
12049 2 11.259 19.8927 27.9021
12210 2 11.1654 -0.217975 25.0965
12238 2 5.65401 16.9978 25.3036
12212 2 2.72034 5.4569 22.5414
12213 2 2.81412 2.66986 24.9654
12237 2 8.16623 14.0101 24.922
12215 2 5.56262 2.63976 22.3561
12216 2 8.27416 5.74613 22.2423
12217 2 8.3146 2.74111 25.0919
12218 2 5.4857 5.3187 25.2946
12219 2 11.3055 2.76544 22.3676
12220 2 11.1154 5.43617 25.2498
12236 2 8.42853 16.9156 22.3385
12222 2 2.70443 11.3819 22.409
12223 2 2.89233 8.51075 25.2326
12231 2 -0.130091 13.99 22.3028
15011 2 13.9217 5.59819 27.942
12181 2 0.110144 14.2437 16.7751
12234 2 0.216152 16.9927 25.1556
15241 2 13.8586 22.4821 22.2433
12039 2 11.34 14.1959 27.9227
12016 2 8.39809 5.64996 28.0342
12194 2 0.0691611 22.6705 19.7043
12133 2 8.5638 2.60407 14.1119
12036 2 8.46546 16.9829 27.8359
12032 2 2.97862 17.0717 28.1452
15221 2 13.7883 11.2039 22.361
12046 2 8.45327 22.7519 27.9193
12131 2 2.75551 2.94941 13.9159
12146 2 2.82854 20.0299 13.9547
12025 2 5.59884 8.47403 27.9819
12026 2 8.67649 11.2841 27.9658
12045 2 5.67633 19.9737 27.9095
12134 2 5.44958 5.625 13.9584
451 1 1.40064 24.2068 1.21358
452 1 4.24726 24.2565 1.03604
453 1 4.25022 24.1111 4.21099
454 1 1.4292 24.0175 3.87684
455 1 7.1292 27.1432 1.1302
456 1 9.71874 24.2512 0.999454
12377 2 5.75977 39.7585 13.8335
458 1 7.01924 24.0689 3.8539
12373 2 11.3613 33.9246 13.7752
12380 2 0.0287711 45.5468 13.7802
461 1 1.32512 27.1882 1.27056
462 1 4.25524 27.0209 1.11938
463 1 4.39527 26.9187 3.91271
464 1 1.46855 26.9354 4.0394
465 1 1.3261 30.0182 0.998406
466 1 4.35565 29.688 0.91814
467 1 4.24546 29.8861 3.83381
468 1 1.35784 29.9196 3.62943
469 1 6.9769 29.9434 0.905088
470 1 10.0636 26.9421 0.930193
471 1 9.92543 26.7624 3.80777
472 1 7.2647 26.7733 3.89198
473 1 9.60631 29.8523 0.870947
12364 2 2.79228 25.6498 13.7546
475 1 9.57048 29.7605 3.97382
476 1 6.97037 29.6475 3.99753
901 1 1.27905 49.8817 1.14166
12369 2 2.77124 31.2706 13.7291
12378 2 11.2234 39.767 13.6329
480 1 11.7231 30.7025 2.42827
481 1 1.52139 32.7243 1.1278
482 1 4.27721 32.6957 1.40336
483 1 4.1135 32.7883 3.7029
484 1 1.40552 32.614 4.10966
485 2 2.57763 34.0136 2.54757
486 1 3.75518 35.5079 1.0924
487 1 4.05057 35.3771 4.09955
488 1 1.20045 35.3864 3.87492
489 1 7.16185 32.8368 1.01665
490 1 9.88586 32.4631 1.06929
491 1 9.72054 32.6813 4.04953
492 1 7.04205 32.4631 3.70487
493 1 6.72519 35.6808 1.0982
494 1 9.8642 35.5767 1.14533
495 1 9.83665 35.6346 3.9258
496 1 7.13417 35.3093 3.81179
497 1 12.6779 32.9591 1.13386
498 1 12.3516 33.138 4.22983
499 1 12.8322 35.6847 0.927065
500 1 12.6595 35.6902 3.67522
501 1 0.997083 35.4735 1.34506
502 1 4.00783 38.4022 1.04326
503 1 3.93273 38.2254 3.79064
504 1 1.15134 38.395 3.87422
505 1 1.01994 38.1479 1.02709
506 1 4.14097 41.4681 1.08814
507 1 4.29644 41.3781 3.86841
508 1 1.43602 41.1101 3.89705
509 1 6.80916 38.3364 1.11766
510 1 9.68269 38.2999 0.979935
511 1 9.99314 38.0322 3.6923
512 1 6.85591 38.1651 3.99726
513 1 7.00053 41.1289 0.932385
514 1 9.72179 41.331 1.02283
515 1 9.64692 41.1343 3.88802
516 1 6.86995 41.0175 3.91579
517 1 12.6273 38.4137 1.22603
518 1 12.6833 38.3177 3.874
519 1 12.6214 41.1957 1.04258
520 1 12.5683 41.2144 3.86137
521 1 1.35465 41.1129 1.14198
522 1 4.07505 44.2776 1.38374
523 1 3.90314 44.0907 4.03316
524 1 0.968431 43.9857 3.8704
525 1 1.52599 46.9193 1.06173
526 1 4.41511 46.8948 1.10501
527 1 4.12598 47.1361 3.89604
528 1 1.16848 46.8696 3.85805
529 1 7.05297 44.0266 1.02082
530 1 9.91322 44.1611 1.22195
531 1 9.77101 44.0945 4.15405
532 1 7.02639 43.8465 3.89471
533 1 7.09244 46.9118 1.17664
534 1 9.78765 47.1098 0.964286
535 1 9.80045 46.8853 3.83668
536 1 7.12133 46.8133 3.9918
537 1 12.7636 43.8748 1.10733
538 1 12.5083 44.0951 4.25576
539 1 12.5702 46.6311 1.18577
540 1 12.8351 46.8352 3.79806
541 1 1.30098 24.1867 6.75735
542 1 4.00727 24.2176 6.69923
543 1 3.84812 23.9489 9.54182
544 1 1.28316 24.2333 9.42616
179 1 12.8412 24.1356 4.11712
546 1 9.77566 24.1454 6.65821
547 1 9.33373 23.9536 9.55081
548 1 6.67077 24.2492 9.72369
12365 2 -0.146036 28.4324 13.6558
550 1 12.4218 23.9172 9.9184
551 1 1.29887 27.1713 6.91262
552 1 4.29896 26.9466 6.51103
553 1 4.022 26.9508 9.70078
554 1 1.08219 27.0176 9.56078
555 1 1.76586 29.8486 6.55663
556 1 4.57388 29.7705 6.48142
557 1 4.20684 29.5216 9.48455
558 1 1.39319 29.9052 9.14295
559 1 7.20636 27.193 6.85189
560 1 9.89907 26.8543 6.95112
561 1 9.91774 26.7886 9.56564
562 1 6.73458 26.97 9.52821
563 1 7.14462 30.0781 6.97981
564 1 10.0295 29.6846 6.67562
565 1 9.73952 29.8501 9.54874
566 1 6.81188 29.6668 9.75587
567 1 12.6632 26.8032 6.78734
568 1 12.8588 26.8804 9.90098
569 1 12.6972 29.747 6.84934
570 1 12.4051 29.8563 9.54104
571 1 1.50777 32.51 6.91787
572 1 4.18594 32.5485 6.72024
573 1 4.20969 32.7608 9.5143
574 1 1.24259 32.4377 9.6054
575 1 1.14786 35.6769 6.62859
576 1 4.34252 35.4017 6.6837
577 1 4.37027 35.818 9.24416
578 1 1.55856 35.3026 9.33717
579 1 6.8369 32.8977 6.76673
580 1 9.66267 32.4945 6.69663
581 1 9.94075 32.6232 9.61554
582 1 7.08836 32.7752 9.36773
583 1 6.99181 35.532 6.94079
584 1 9.77958 35.344 6.75797
585 1 9.60621 35.4686 9.69575
586 1 6.93955 35.583 10.0526
587 1 12.562 32.4133 6.94171
588 1 12.7855 32.802 9.62956
589 1 12.5877 35.5971 6.99672
590 1 12.5723 35.5117 9.59208
591 1 1.44937 38.3737 6.65351
592 1 4.36406 38.2174 6.71592
593 1 4.19807 38.4811 9.79223
594 1 1.43815 38.2152 9.59034
595 1 1.11795 41.322 6.76425
596 1 3.8709 41.1904 6.71493
597 1 4.22559 41.3535 9.75488
598 1 1.48586 41.1669 9.71669
599 1 7.14796 38.2545 6.83385
600 1 9.72428 38.3716 6.65842
601 1 9.80283 38.2813 9.71327
602 1 6.95678 38.4687 9.67335
603 1 6.78625 40.9828 6.9013
604 1 9.694 41.1237 6.72133
605 1 9.85191 41.2515 9.69892
606 1 7.04942 41.3215 9.57292
607 1 12.524 38.5252 6.75589
608 1 12.6202 38.4089 9.45309
609 1 12.5557 41.511 6.83537
610 1 12.6137 41.3949 9.53584
611 1 1.33731 43.9842 6.99593
612 1 4.256 44.0248 6.90233
613 1 4.39643 43.9975 9.40437
614 1 1.55312 44.0278 9.80659
615 1 1.28327 46.9954 6.75706
616 1 4.05789 47.1476 6.52619
617 1 4.15328 47.0342 9.31601
618 1 1.35003 46.8257 9.65197
619 1 6.93614 43.7896 6.86713
620 1 9.84314 43.9541 7.01824
621 1 9.78305 44.1654 9.75263
622 1 7.25467 44.032 9.91113
623 1 7.0115 46.6819 6.83826
624 1 10.0192 46.6234 6.62
625 1 9.89509 47.0493 9.53982
626 1 7.12492 46.8749 9.68378
627 1 12.8161 44.2984 7.18006
628 1 12.856 44.1486 9.84574
629 1 12.9269 46.9367 6.67323
630 1 12.8289 46.855 9.60076
631 1 1.67563 24.2126 12.1279
632 1 4.45162 23.9459 12.2108
633 1 6.91069 24.6102 12.4384
634 1 9.73303 24.1292 12.6055
635 1 12.7069 24.1235 12.3034
636 1 1.12715 27.1686 12.4103
637 1 4.21027 27.0006 12.5161
638 1 1.36233 30.0635 12.2576
639 1 4.0569 29.8319 12.3353
640 1 7.05885 27.4113 12.5908
641 1 9.86981 27.0307 12.5335
642 1 7.03038 29.8662 12.5162
643 1 9.97967 29.987 12.4577
644 1 12.8058 27.0787 12.5141
645 1 12.7608 29.8837 12.3994
646 1 1.37315 32.8327 12.3631
647 1 4.26903 32.5777 12.3353
648 1 1.53604 35.5553 12.359
649 1 4.2144 35.3967 12.3701
650 1 6.87497 32.3466 12.5331
651 1 9.88825 32.6566 12.3742
652 1 7.21923 35.2894 12.6799
653 1 10.1535 35.4207 12.739
654 1 12.8849 32.6251 12.3714
655 1 12.6654 35.7134 12.4016
656 1 1.26989 38.4757 12.0899
657 1 4.23008 38.3746 12.6575
658 1 1.37495 41.0978 12.1614
659 1 4.3805 41.3991 12.4469
660 1 7.10866 38.3998 12.4254
661 1 9.89195 38.3293 12.2175
662 1 7.04745 41.0805 12.444
663 1 9.96047 41.2003 12.5427
664 1 12.6822 38.3331 12.1074
665 1 12.77 41.3695 12.302
666 1 1.30186 43.6956 12.5625
667 1 4.11299 44.0922 12.3425
668 1 1.48444 46.4994 12.4951
669 1 4.36716 46.7658 12.1644
670 1 6.88824 44.287 12.3989
671 1 9.64 43.9983 12.4287
672 1 7.41134 46.9691 12.6555
673 1 9.91736 46.856 12.4291
674 1 12.322 44.2529 12.5207
675 1 12.5146 47.0127 12.3898
12363 2 11.1454 48.3334 11.2024
12286 2 8.60325 45.4948 -0.212988
12253 2 2.89088 25.545 2.59374
12362 2 5.66696 48.1852 11.0758
12336 2 -0.11682 48.3697 5.2
457 1 9.91751 24.1019 4.02082
12257 2 8.45687 25.47 2.50938
12258 2 5.70668 28.3509 2.51191
12356 2 0.0761333 42.6161 10.965
12260 2 11.0997 28.3567 2.27384
12360 2 11.1918 42.7257 11.1958
12351 2 0.195907 36.7376 11.2025
12263 2 3.06691 30.8447 2.40031
12359 2 8.51319 45.4165 11.1449
545 1 6.98041 24.2489 6.85308
12326 2 -0.153052 42.5786 5.23991
12267 2 8.65994 31.2904 2.57867
12268 2 5.91342 34.0427 2.4647
12345 2 11.2377 25.4535 11.1638
12270 2 11.2849 34.4027 2.42554
12358 2 5.65532 42.5989 10.8984
12344 2 8.43556 28.3862 10.9763
12273 2 2.48466 37.1889 2.41363
12357 2 2.84697 45.4149 10.8869
12343 2 5.32964 25.426 10.8386
85 1 6.98609 24.2199 1.05399
12277 2 8.30268 36.9025 2.39094
12278 2 5.54172 39.8416 2.46338
1101 1 1.32762 49.7959 12.4462
12280 2 11.3426 39.731 2.34951
12355 2 11.3701 36.912 10.9024
12299 2 0.0108761 28.4559 8.16944
12283 2 2.84068 42.6432 2.51496
12354 2 8.4189 39.7472 11.1272
15306 2 13.8803 34.3673 5.5104
6171 1 12.7847 23.984 7.06148
12287 2 8.321 42.6665 2.48424
12288 2 5.7107 45.4516 2.50291
460 1 12.8858 26.9556 1.90026
12290 2 11.0994 45.4443 2.59889
12353 2 5.4949 36.9509 11.0929
12292 2 2.60899 48.1126 2.54696
12374 2 2.87381 36.9325 13.9795
12294 2 8.37953 48.3564 2.3833
12383 2 11.1216 45.592 13.8375
12254 2 -0.140848 28.3811 2.48914
12297 2 2.87975 28.4448 5.30448
12298 2 2.9324 25.459 8.03984
549 1 12.4317 28.4089 4.06802
12300 2 5.71857 25.5393 5.28743
12301 2 8.61874 28.0685 5.42235
12302 2 8.1654 25.6538 8.23613
12303 2 5.53683 28.38 7.96175
12304 2 11.4527 25.5879 5.26715
12305 2 11.214 28.4925 7.90793
12352 2 2.93225 39.789 11.1745
12307 2 2.8582 34.1228 5.75964
12308 2 3.05158 31.1107 8.16609
12372 2 5.69654 33.8753 13.9103
12310 2 5.85542 31.305 5.16917
12311 2 8.42004 34.0268 5.33973
12312 2 8.5001 31.2718 8.18265
12313 2 5.52335 34.1655 8.39254
12314 2 11.27 31.0834 5.30487
12315 2 11.2106 34.0485 8.19634
12296 2 0.0901726 25.5051 5.49844
12317 2 2.71377 39.6912 5.28679
12318 2 2.74563 37.0075 8.12641
12350 2 11.3538 31.1707 11.0989
12320 2 5.83952 36.8797 5.49703
12321 2 8.3671 39.7394 5.45136
12322 2 8.36763 36.9517 8.37376
12323 2 5.47414 39.7099 8.33024
12324 2 11.0271 37.0993 5.48685