LAMMPS (29 Oct 2020)
OMP_NUM_THREADS environment is not set. Defaulting to 1 thread. (../comm.cpp:94)
  using 1 OpenMP thread(s) per MPI task
OMP_NUM_THREADS environment is not set. Defaulting to 1 thread. (../comm.cpp:94)
  using 1 OpenMP thread(s) per MPI task
Reading data file ...
  orthogonal box = (-0.476352 -5.7146325 -0.50139438) to (27.816352 333.79463 27.841394)
  2 by 13 by 2 MPI processor grid
  reading atoms ...
  17640 atoms
  reading velocities ...
  17640 velocities
Finding 1-2 1-3 1-4 neighbors ...
  special bond factors lj:    0.0      0.0      0.0     
  special bond factors coul:  0.0      0.0      0.0     
     0 = max # of 1-2 neighbors
     0 = max # of 1-3 neighbors
     0 = max # of 1-4 neighbors
     1 = max # of special neighbors
  special bonds CPU = 0.006 seconds
  read_data CPU = 0.078 seconds
Setting atom values ...
  11760 settings made for charge
Setting atom values ...
  5880 settings made for charge
PPPM initialization ...
  using 12-bit tables for long-range coulomb (../kspace.cpp:328)
  G vector (1/distance) = 0.29832855
  grid = 40 240 40
  stencil order = 5
  estimated absolute RMS force accuracy = 0.00016011929
  estimated relative force accuracy = 1.111967e-05
  using single precision MKL FFT
  3d grid and FFT values/proc = 15000 7600
Neighbor list info ...
  update every 1 steps, delay 0 steps, check yes
  max neighbors/atom: 2000, page size: 100000
  master list distance cutoff = 11.3
  ghost atom cutoff = 11.3
  binsize = 5.65, bins = 6 61 6
  2 neighbor lists, perpetual/occasional/extra = 2 0 0
  (1) pair coul/long, perpetual
      attributes: half, newton on
      pair build: half/bin/newton
      stencil: half/bin/3d/newton
      bin: standard
  (2) pair eam/alloy, perpetual, copy from (1)
      attributes: half, newton on
      pair build: copy
      stencil: none
      bin: none
Setting up Verlet run ...
  Unit style    : metal
  Current step  : 0
  Time step     : 0.001
Per MPI rank memory allocation (min/avg/max) = 8.139 | 8.164 | 8.181 Mbytes
Step Temp E_pair E_mol TotEng Press 
       0         1500   -228240.27            0   -224820.24    -805.8171 
  100000    1509.5958   -228222.14            0   -224780.23    146.62768 
Loop time of 680.968 on 52 procs for 100000 steps with 17640 atoms

Performance: 12.688 ns/day, 1.892 hours/ns, 146.850 timesteps/s
99.8% CPU use with 52 MPI tasks x 1 OpenMP threads

MPI task timing breakdown:
Section |  min time  |  avg time  |  max time  |%varavg| %total
---------------------------------------------------------------
Pair    | 431.1      | 451.51     | 473.84     |  47.0 | 66.30
Bond    | 0.006687   | 0.010476   | 0.015454   |   2.1 |  0.00
Kspace  | 134.84     | 159.74     | 182.43     |  87.1 | 23.46
Neigh   | 39.742     | 45.359     | 49.55      |  32.9 |  6.66
Comm    | 18.554     | 19.88      | 21.429     |  17.1 |  2.92
Output  | 5.6468e-05 | 6.2492e-05 | 0.00026584 |   0.0 |  0.00
Modify  | 2.0734     | 2.9744     | 5.0026     |  50.1 |  0.44
Other   |            | 1.498      |            |       |  0.22

Nlocal:        339.231 ave         365 max         314 min
Histogram: 3 1 4 7 9 17 5 1 3 2
Nghost:        3912.62 ave        4080 max        3755 min
Histogram: 9 3 4 2 5 10 7 5 3 4
Neighs:        67226.0 ave       75643 max       55361 min
Histogram: 2 2 1 2 7 12 9 12 3 2

Total # of neighbors = 3495754
Ave neighs/atom = 198.17200
Ave special neighs/atom = 0.0000000
Neighbor list builds = 25003
Dangerous builds = 0
11760 atoms in group oxygen
PPPM initialization ...
  using 12-bit tables for long-range coulomb (../kspace.cpp:328)
  G vector (1/distance) = 0.29832855
  grid = 40 240 40
  stencil order = 5
  estimated absolute RMS force accuracy = 0.00016011929
  estimated relative force accuracy = 1.111967e-05
  using single precision MKL FFT
  3d grid and FFT values/proc = 15000 7600
Setting up Verlet run ...
  Unit style    : metal
  Current step  : 0
  Time step     : 0.001
Per MPI rank memory allocation (min/avg/max) = 8.389 | 8.415 | 8.432 Mbytes
Step f_2 Temp v_Tdiff v_deltaT 
       0            0    1509.5958            0            0 
  100000    1607.1586    1513.0169  0.061785872    717.32823 
  200000      3072.53    1503.4329   0.08087902    938.99791 
  300000    4552.1984    1500.1455  0.081277258    943.62142 
  400000    6029.5902      1494.81   0.08352854    969.75859 
  500000    7519.5374    1490.6453   0.08075111    937.51289 
  600000    8990.3692     1510.711  0.081405181     945.1066 
  700000    10456.783    1515.5325  0.083727284    972.06599 
  800000    11941.332    1505.7614  0.082509628    957.92912 
  900000    13415.309    1515.3748  0.082762529    960.86528 
 1000000    14890.493    1509.1611  0.082340073     955.9606 
Loop time of 6763.99 on 52 procs for 1000000 steps with 17640 atoms

Performance: 12.774 ns/day, 1.879 hours/ns, 147.842 timesteps/s
99.8% CPU use with 52 MPI tasks x 1 OpenMP threads

MPI task timing breakdown:
Section |  min time  |  avg time  |  max time  |%varavg| %total
---------------------------------------------------------------
Pair    | 4273.4     | 4509       | 4687.8     | 133.7 | 66.66
Bond    | 0.057791   | 0.10274    | 0.17922    |   6.7 |  0.00
Kspace  | 1357.3     | 1559.3     | 1840.7     | 266.4 | 23.05
Neigh   | 382.66     | 458.77     | 494.37     | 133.5 |  6.78
Comm    | 180.86     | 200.59     | 231.42     |  84.2 |  2.97
Output  | 0.0011726  | 0.0012287  | 0.0023379  |   0.4 |  0.00
Modify  | 5.5013     | 6.1308     | 6.8661     |  12.7 |  0.09
Other   |            | 30.06      |            |       |  0.44

Nlocal:        339.231 ave         359 max         304 min
Histogram: 4 3 3 2 0 2 11 10 7 10
Nghost:        3914.56 ave        4046 max        3778 min
Histogram: 11 5 0 4 4 1 9 4 10 4
Neighs:        67202.5 ave       74543 max       55370 min
Histogram: 4 2 1 2 4 7 10 7 9 6

Total # of neighbors = 3494531
Ave neighs/atom = 198.10266
Ave special neighs/atom = 0.0000000
Neighbor list builds = 253278
Dangerous builds = 0
Total wall time: 2:04:05
