LAMMPS (29 Oct 2020)
OMP_NUM_THREADS environment is not set. Defaulting to 1 thread. (../comm.cpp:94)
  using 1 OpenMP thread(s) per MPI task
OMP_NUM_THREADS environment is not set. Defaulting to 1 thread. (../comm.cpp:94)
  using 1 OpenMP thread(s) per MPI task
Lattice spacing in x,y,z = 5.5788000 5.5788000 5.5788000
Created orthogonal box = (0.0000000 0.0000000 0.0000000) to (27.894000 334.72800 27.894000)
  2 by 13 by 2 MPI processor grid
Changing box ...
  triclinic box = (0.0000000 0.0000000 0.0000000) to (27.894000 334.72800 27.894000) with tilt (0.0000000 0.0000000 0.0000000)
Created 12000 atoms
  create_atoms CPU = 0.006 seconds
Lattice spacing in x,y,z = 5.5788000 5.5788000 5.5788000
Created 6000 atoms
  create_atoms CPU = 0.001 seconds
12000 atoms in group oxygen
6000 atoms in group uranium
Setting atom values ...
  22 settings made for type/ratio
Setting atom values ...
  22 settings made for type/ratio
22 atoms in group anti_oxygen
22 atoms in group anti_uranium
Setting atom values ...
  22 settings made for type
Setting atom values ...
  22 settings made for type
Setting atom values ...
  12000 settings made for charge
Setting atom values ...
  6000 settings made for charge
PPPM initialization ...
  using 12-bit tables for long-range coulomb (../kspace.cpp:328)
  G vector (1/distance) = 0.29916851
  grid = 40 240 40
  stencil order = 5
  estimated absolute RMS force accuracy = 0.00015502622
  estimated relative force accuracy = 1.0765975e-05
  using single precision MKL FFT
  3d grid and FFT values/proc = 18225 7600
Neighbor list info ...
  update every 1 steps, delay 0 steps, check yes
  max neighbors/atom: 2000, page size: 100000
  master list distance cutoff = 13
  ghost atom cutoff = 13
  binsize = 6.5, bins = 5 52 5
  2 neighbor lists, perpetual/occasional/extra = 2 0 0
  (1) pair coul/long, perpetual
      attributes: half, newton on
      pair build: half/bin/newton/tri
      stencil: half/bin/3d/newton/tri
      bin: standard
  (2) pair eam/alloy, perpetual, copy from (1)
      attributes: half, newton on
      pair build: copy
      stencil: none
      bin: none
Setting up cg style minimization ...
  Unit style    : metal
  Current step  : 0
WARNING: Energy due to 3 extra global DOFs will be included in minimizer energies
Per MPI rank memory allocation (min/avg/max) = 10.42 | 10.45 | 10.47 Mbytes
Step Temp E_pair E_mol TotEng Press Volume 
       0            0   -232429.76            0   -232429.76    14303.058    260443.57 
     829            0   -235528.01            0   -235528.01    138.17647    263794.26 
Loop time of 13.4225 on 52 procs for 829 steps with 18000 atoms

99.7% CPU use with 52 MPI tasks x 1 OpenMP threads

Minimization stats:
  Stopping criterion = linesearch alpha is zero
  Energy initial, next-to-last, final = 
     -232429.763555041  -235528.010984748  -235528.010984748
  Force two-norm initial, final = 5386.2722 45.547724
  Force max component initial, final = 3798.0178 23.180158
  Final line search alpha, max atom move = 4.4688628e-12 1.0358894e-10
  Iterations, force evaluations = 829 1162

MPI task timing breakdown:
Section |  min time  |  avg time  |  max time  |%varavg| %total
---------------------------------------------------------------
Pair    | 7.4695     | 7.884      | 8.433      |   7.8 | 58.74
Bond    | 0.00010561 | 0.00015498 | 0.00021588 |   0.0 |  0.00
Kspace  | 1.8493     | 2.403      | 2.8188     |  14.3 | 17.90
Neigh   | 0.020953   | 0.023276   | 0.027442   |   1.0 |  0.17
Comm    | 0.19366    | 0.20039    | 0.2064     |   0.6 |  1.49
Output  | 0          | 0          | 0          |   0.0 |  0.00
Modify  | 0          | 0          | 0          |   0.0 |  0.00
Other   |            | 2.912      |            |       | 21.69

Nlocal:        346.154 ave         412 max         300 min
Histogram: 4 9 5 5 10 8 8 1 1 1
Nghost:        5656.83 ave        5820 max        5500 min
Histogram: 2 10 7 1 1 11 9 3 5 3
Neighs:       111624.0 ave      132960 max       96226 min
Histogram: 2 9 7 4 10 9 8 1 1 1

Total # of neighbors = 5804426
Ave neighs/atom = 322.46811
Ave special neighs/atom = 0.0000000
Neighbor list builds = 6
Dangerous builds = 0
PPPM initialization ...
  using 12-bit tables for long-range coulomb (../kspace.cpp:328)
  G vector (1/distance) = 0.29898277
  grid = 40 240 40
  stencil order = 5
  estimated absolute RMS force accuracy = 0.00015628065
  estimated relative force accuracy = 1.0853091e-05
  using single precision MKL FFT
  3d grid and FFT values/proc = 18225 7600
Setting up Verlet run ...
  Unit style    : metal
  Current step  : 0
  Time step     : 0.001
Per MPI rank memory allocation (min/avg/max) = 10.56 | 10.59 | 10.61 Mbytes
Step Dt Time Atoms Temp PotEng KinEng Press Volume v_latt 
       0        0.001            0    18000          600   -235528.02     1395.932    5790.0076    263794.26    5.6026464 
   50000        0.001           50    18000    602.11879   -235058.32    1400.8615     1560.558    265967.65    5.6179671 
  100000        0.001          100    18000    600.77143   -235075.43    1397.7268   -194.66867    266188.01    5.6195193 
Loop time of 885.694 on 52 procs for 100000 steps with 18000 atoms

Performance: 9.755 ns/day, 2.460 hours/ns, 112.906 timesteps/s
99.8% CPU use with 52 MPI tasks x 1 OpenMP threads

MPI task timing breakdown:
Section |  min time  |  avg time  |  max time  |%varavg| %total
---------------------------------------------------------------
Pair    | 549.53     | 563.09     | 584.44     |  33.9 | 63.58
Bond    | 0.0091431  | 0.014665   | 0.019397   |   2.1 |  0.00
Kspace  | 152.85     | 174.61     | 188.33     |  61.7 | 19.71
Neigh   | 3.3388     | 3.5062     | 3.7493     |   5.4 |  0.40
Comm    | 17.066     | 17.428     | 18.074     |   5.4 |  1.97
Output  | 0.008458   | 0.0084681  | 0.0087881  |   0.0 |  0.00
Modify  | 113.43     | 118.68     | 123.1      |  27.7 | 13.40
Other   |            | 8.351      |            |       |  0.94

Nlocal:        346.154 ave         370 max         330 min
Histogram: 5 8 6 5 9 9 1 6 1 2
Nghost:        5615.88 ave        5722 max        5522 min
Histogram: 6 12 6 4 0 0 1 12 7 4
Neighs:       110526.0 ave      118925 max      104750 min
Histogram: 6 7 10 2 7 10 1 5 2 2

Total # of neighbors = 5747334
Ave neighs/atom = 319.29633
Ave special neighs/atom = 0.0000000
Neighbor list builds = 873
Dangerous builds = 0
System init for write_data ...
PPPM initialization ...
  using 12-bit tables for long-range coulomb (../kspace.cpp:328)
  G vector (1/distance) = 0.29877543
  grid = 40 240 40
  stencil order = 5
  estimated absolute RMS force accuracy = 0.00015815597
  estimated relative force accuracy = 1.0983325e-05
  using single precision MKL FFT
  3d grid and FFT values/proc = 18225 7600
Total wall time: 0:14:59
