ITEM: TIMESTEP
40000
ITEM: NUMBER OF ATOMS
17820
ITEM: BOX BOUNDS pp pp pp
-3.6238275110766005e-01 2.7702382751107397e+01
-4.3586228908421782e+00 3.3243862289083279e+02
-3.6545651754038994e-01 2.7705456517540814e+01
ITEM: ATOMS id type q x y z
1 2 2.2208 5.3476 1.41141 5.13786
2 1 -1.1104 1.15916 -2.87528 0.989303
3 1 -1.1104 1.10714 2.81148 1.1652
6 1 -1.1104 1.12184 -2.88098 3.75238
7 1 -1.1104 1.13359 2.71588 3.91435
10 1 -1.1104 1.0301 -0.288066 0.96203
12 2 2.2208 5.25205 -1.36657 2.39159
13 2 2.2208 5.29766 4.09935 2.40002
14 1 -1.1104 1.20176 -0.0926442 3.71566
16 1 -1.1104 3.83473 -2.85226 0.973554
17 1 -1.1104 3.8661 2.57476 0.900893
18 2 2.2208 2.5325 1.30185 2.35314
19 1 -1.1104 3.86516 -2.85531 3.82504
20 1 -1.1104 3.9244 2.77074 3.69889
21 2 2.2208 2.5292 -1.38782 5.15823
22 2 2.2208 2.46077 4.20363 5.23127
23 1 -1.1104 3.68548 -0.231821 0.881721
24 1 -1.1104 3.89727 0.033495 3.76475
11 1 -1.1104 6.63879 0.117035 1.26999
4 1 -1.1104 6.5743 -3.01107 1.11486
174 1 -1.1104 3.82367 -0.223444 6.76047
230 2 2.2208 13.7493 -1.61258 10.7649
49 2 2.2208 13.8456 1.19086 2.48524
9086 2 2.2208 -0.304129 1.24279 -0.312319
232 2 2.2208 10.8923 -4.33415 10.8205
349 2 2.2208 5.41164 1.22308 -0.515839
5 1 -1.1104 6.6247 2.79299 0.935056
9 1 -1.1104 6.80186 2.86637 3.87815
8 1 -1.1104 6.64022 -2.93904 3.79829
15 1 -1.1104 6.63953 -0.0307631 3.91199
348 2 2.2208 8.02569 15.3009 -0.301815
611 2 2.2208 8.04331 4.09134 -0.400432
314 1 -1.1104 9.3806 16.9072 9.53783
31 2 2.2208 10.9858 1.17612 5.16627
32 1 -1.1104 12.6365 -2.95852 1.1379
33 1 -1.1104 12.5316 2.77168 1.19467
34 1 -1.1104 12.2737 -2.91949 3.88647
35 1 -1.1104 12.3163 2.75555 4.06706
36 1 -1.1104 12.5522 -0.236685 1.05717
37 2 2.2208 11.0343 -1.57604 2.4154
38 2 2.2208 11.0548 4.17366 2.57346
39 1 -1.1104 12.3757 -0.0973397 3.83831
40 1 -1.1104 9.82141 -3.12854 1.1702
41 1 -1.1104 9.62878 2.79567 0.979544
42 2 2.2208 8.2603 1.31955 2.33392
43 1 -1.1104 9.46031 -2.79761 3.87962
44 1 -1.1104 9.62545 2.67818 3.85112
45 2 2.2208 8.04606 -1.45868 5.16465
46 2 2.2208 8.21068 4.18014 5.11431
47 1 -1.1104 9.85349 0.020691 1.22462
48 1 -1.1104 9.32443 -0.00679396 3.97455
610 2 2.2208 11.1141 1.47478 -0.235477
351 2 2.2208 2.5263 4.09836 -0.286366
313 2 2.2208 -0.41724 15.3383 8.06901
209 1 -1.1104 9.54213 2.71753 6.68378
52 2 2.2208 10.8858 -4.22558 5.23128
333 2 2.2208 13.5226 20.985 5.23871
330 1 -1.1104 12.2427 13.9446 12.3138
54 2 2.2208 5.38769 6.92522 5.21581
55 2 2.2208 5.28433 12.54 5.36269
56 1 -1.1104 1.30133 8.30245 1.0962
58 1 -1.1104 1.05064 8.5304 3.837
60 1 -1.1104 1.16391 5.49917 0.997889
61 1 -1.1104 1.00957 11.1693 1.15959
66 2 2.2208 5.31044 9.80295 2.381
67 1 -1.1104 1.03326 5.61283 3.74023
68 1 -1.1104 1.20097 11.2371 3.77789
71 1 -1.1104 4.04709 8.31613 1.0854
72 2 2.2208 2.62886 6.98171 2.49558
73 2 2.2208 2.43847 12.4826 2.39906
74 1 -1.1104 3.91997 8.30874 3.95586
75 2 2.2208 2.56145 9.82566 5.29148
76 1 -1.1104 3.9603 5.42446 1.07618
77 1 -1.1104 4.04326 11.0485 0.935161
79 1 -1.1104 3.80387 5.54531 3.96632
80 1 -1.1104 3.86381 11.15 4.0097
63 1 -1.1104 6.81911 5.5877 1.0232
64 1 -1.1104 6.94977 11.0549 1.18815
69 1 -1.1104 6.7826 5.56558 3.73917
70 1 -1.1104 6.62364 11.2327 4.03882
59 1 -1.1104 6.61465 8.42985 3.907
533 2 2.2208 13.6729 18.174 13.6471
236 1 -1.1104 1.12878 5.69986 6.59599
81 2 2.2208 -0.349855 6.96464 5.20152
82 2 2.2208 -0.294965 9.71338 2.46114
645 2 2.2208 5.33606 6.96682 -0.403237
57 1 -1.1104 6.8414 8.26893 1.08489
322 1 -1.1104 9.40744 13.9443 12.3291
8513 2 2.2208 -0.335804 -4.47439 -0.339544
84 2 2.2208 10.95 7.02697 5.34308
85 2 2.2208 11.0032 12.4692 5.28354
86 1 -1.1104 12.3726 8.36811 1.26729
87 1 -1.1104 12.4216 8.46061 4.124
88 1 -1.1104 12.3498 5.53058 1.12783
89 1 -1.1104 12.2942 11.3391 1.05517
91 2 2.2208 10.8926 9.69947 2.52812
92 1 -1.1104 12.4223 5.59208 4.0189
93 1 -1.1104 12.4075 11.2648 3.87018
94 1 -1.1104 9.64809 8.16417 1.12554
95 2 2.2208 8.17794 6.91956 2.51997
96 2 2.2208 8.14724 12.5914 2.5346
97 1 -1.1104 9.57496 8.41091 3.77921
98 2 2.2208 8.13138 9.66124 5.33828
99 1 -1.1104 9.62631 5.4578 1.12834
100 1 -1.1104 9.60202 11.0103 1.06248
102 1 -1.1104 9.62671 5.63366 3.85307
103 1 -1.1104 9.5193 11.0974 3.9898
29 2 2.2208 5.31483 -4.21483 5.24052
8422 2 2.2208 11.0462 -4.34092 -0.180118
359 2 2.2208 8.14482 9.57622 -0.193913
106 2 2.2208 5.33436 18.1409 5.20885
107 1 -1.1104 0.913044 13.8805 1.03667
109 1 -1.1104 1.13624 19.5491 1.06901
113 1 -1.1104 1.29853 13.9369 3.8671
114 1 -1.1104 1.22476 19.4586 3.8172
116 1 -1.1104 1.17899 16.7822 1.02995
119 2 2.2208 5.38956 15.1708 2.42206
120 2 2.2208 5.24381 20.9768 2.39824
121 1 -1.1104 1.11839 16.8131 3.78627
123 1 -1.1104 3.76346 13.8855 1.03078
125 1 -1.1104 3.97323 19.5124 1.00379
127 2 2.2208 2.74263 18.0795 2.43035
128 1 -1.1104 3.93626 14.0043 3.88686
129 1 -1.1104 3.92661 19.5058 3.71811
130 2 2.2208 2.46758 15.262 5.35195
131 2 2.2208 2.48142 20.9694 5.14894
132 1 -1.1104 4.08634 16.6844 1.2081
134 1 -1.1104 3.89738 16.8166 4.14752
122 1 -1.1104 6.63283 16.8053 3.62506
108 1 -1.1104 0.970151 14.0148 6.73552
8418 2 2.2208 -0.374269 -4.25861 10.8576
202 2 2.2208 2.45422 -4.35021 8.00242
318 1 -1.1104 9.56158 19.7531 9.54852
8417 2 2.2208 5.26873 -4.33749 10.9568
9082 2 2.2208 -0.355918 -1.4264 2.39691
140 1 -1.1104 6.79702 16.7548 1.01821
110 1 -1.1104 6.63693 13.8252 1.07747
138 1 -1.1104 6.89578 19.7739 0.987303
115 1 -1.1104 6.68798 14.0263 3.88456
139 1 -1.1104 6.58399 19.699 3.88618
118 1 -1.1104 6.8262 16.6807 6.57963
141 2 2.2208 10.8824 18.2548 5.20237
142 1 -1.1104 12.2715 14.1567 1.14266
144 1 -1.1104 12.2681 19.4576 0.958043
146 1 -1.1104 12.2457 14.1424 3.85831
147 1 -1.1104 12.2242 19.7045 3.79478
148 1 -1.1104 12.263 16.8415 1.06364
150 2 2.2208 10.898 15.491 2.538
151 2 2.2208 10.8016 21.0342 2.3521
152 1 -1.1104 12.3282 16.9978 3.75326
153 1 -1.1104 9.35937 13.9848 1.00971
155 1 -1.1104 9.44853 19.646 1.02088
157 2 2.2208 8.13532 18.3183 2.37897
158 1 -1.1104 9.45845 14.0556 3.81969
159 1 -1.1104 9.3833 19.5616 3.88586
160 2 2.2208 8.07482 15.4099 5.27973
161 2 2.2208 7.98239 20.9478 5.23778
162 1 -1.1104 9.51766 16.7554 1.04568
164 1 -1.1104 9.28378 16.8761 3.82972
329 1 -1.1104 12.2266 19.7002 12.1002
137 2 2.2208 -0.291729 18.0751 5.29299
111 1 -1.1104 6.75091 14.0062 6.81744
143 1 -1.1104 12.2849 14.0639 6.66185
149 1 -1.1104 12.2631 16.9465 6.66808
145 1 -1.1104 12.1848 19.6227 6.62165
26 2 2.2208 -0.234143 1.27279 5.09737
173 1 -1.1104 4.06861 2.56096 6.56936
168 1 -1.1104 6.69029 -2.83979 6.52391
172 1 -1.1104 3.83818 -2.88457 6.83274
167 1 -1.1104 1.24946 2.86221 6.6308
170 1 -1.1104 1.02855 0.0316127 6.52739
166 1 -1.1104 1.04731 -2.85875 6.45045
175 2 2.2208 5.39284 1.299 10.7273
176 1 -1.1104 1.10198 -2.79757 12.5372
177 1 -1.1104 1.09509 2.73903 12.1596
180 1 -1.1104 0.95205 -2.96236 9.38244
181 1 -1.1104 1.10582 2.51433 9.46905
184 1 -1.1104 1.17433 -0.0294552 12.1237
186 2 2.2208 5.3451 -1.50828 8.09851
187 2 2.2208 5.36202 4.24943 7.95387
188 1 -1.1104 1.02282 -0.0859682 9.28761
190 1 -1.1104 3.81238 -2.93867 12.3085
191 1 -1.1104 3.97173 2.6603 12.1619
192 2 2.2208 2.45549 1.24659 7.94713
193 1 -1.1104 3.80892 -2.89304 9.60617
194 1 -1.1104 3.88898 2.71252 9.24292
195 2 2.2208 2.42842 -1.38283 10.8531
197 1 -1.1104 3.8784 -0.0896511 12.1553
198 1 -1.1104 3.79192 -0.00514149 9.42337
196 2 2.2208 2.54135 4.15031 10.6896
183 1 -1.1104 6.63729 2.7259 9.45792
178 1 -1.1104 6.56006 -3.02459 12.385
179 1 -1.1104 6.76502 2.64406 12.15
199 2 2.2208 -0.367023 4.04491 7.9978
208 1 -1.1104 9.57944 -2.86125 6.58803
207 1 -1.1104 12.3218 -0.152841 6.60305
205 1 -1.1104 12.3538 -2.88767 6.6391
210 1 -1.1104 9.5582 -0.020894 6.68577
169 1 -1.1104 6.86236 2.78289 6.67669
206 1 -1.1104 12.4139 2.57677 6.80335
50 2 2.2208 13.8368 -1.65546 5.14319
171 1 -1.1104 6.5741 -0.11166 6.5742
189 1 -1.1104 6.79431 -0.141198 9.41132
185 1 -1.1104 6.74627 -0.124094 12.194
182 1 -1.1104 6.61795 -2.91578 9.57149
319 1 -1.1104 9.36384 14.0319 9.4288
211 2 2.2208 11.0147 1.25827 10.7694
212 1 -1.1104 12.265 -2.9405 12.1606
213 1 -1.1104 12.4201 2.69551 12.0756
214 1 -1.1104 12.249 -2.88915 9.5303
215 1 -1.1104 12.3998 2.76181 9.51535
216 1 -1.1104 12.47 -0.06324 12.1857
217 2 2.2208 10.8748 -1.48203 7.90059
218 2 2.2208 10.9784 4.05973 8.05086
219 1 -1.1104 12.2592 -0.211842 9.3955
220 1 -1.1104 9.4609 -3.16723 12.2561
221 1 -1.1104 9.69624 2.72072 12.1683
222 2 2.2208 8.09827 1.26667 7.93395
223 1 -1.1104 9.42114 -2.8613 9.49759
224 1 -1.1104 9.64142 2.60565 9.39863
225 2 2.2208 8.0705 -1.62139 10.848
226 2 2.2208 8.21344 4.10588 10.76
227 1 -1.1104 9.58598 -0.28502 12.2534
228 1 -1.1104 9.52291 -0.188594 9.38495
355 2 2.2208 2.47897 9.83642 -0.381311
470 2 2.2208 8.18604 12.4606 13.7761
78 1 -1.1104 3.76404 11.2587 6.67221
62 1 -1.1104 0.977994 11.1124 6.60489
239 1 -1.1104 3.93122 5.62617 6.57157
237 1 -1.1104 6.69648 5.58059 6.50651
200 2 2.2208 -0.28378 -1.50788 7.95844
234 1 -1.1104 1.13519 8.4658 6.62368
235 1 -1.1104 6.72707 8.38253 6.68814
238 1 -1.1104 4.06977 8.46322 6.59912
240 2 2.2208 5.40599 7.00124 10.8447
241 2 2.2208 5.29882 12.5523 10.8818
242 1 -1.1104 1.29824 8.45199 12.2099
244 1 -1.1104 1.25495 8.29833 9.39423
246 1 -1.1104 1.17612 5.55265 12.1934
247 1 -1.1104 1.11106 11.3057 12.2035
250 2 2.2208 5.29042 9.63918 8.12801
251 1 -1.1104 0.996099 5.42482 9.29056
252 1 -1.1104 1.07519 11.1381 9.45031
255 1 -1.1104 4.05016 8.49156 12.1533
256 2 2.2208 2.43891 6.9136 7.95569
257 2 2.2208 2.50213 12.5661 8.04766
258 1 -1.1104 3.93325 8.19514 9.41378
259 2 2.2208 2.53768 9.85713 10.8879
260 1 -1.1104 3.92187 5.62428 12.1996
261 1 -1.1104 4.05346 11.1987 12.1909
262 1 -1.1104 3.92017 5.57638 9.25726
263 1 -1.1104 3.9525 11.0249 9.46179
249 1 -1.1104 6.74321 11.2092 12.3001
243 1 -1.1104 6.78104 8.40878 12.3259
203 2 2.2208 -0.24937 7.05112 10.7911
204 2 2.2208 -0.252269 9.73976 8.09351
90 1 -1.1104 12.3693 11.1366 6.59843
267 1 -1.1104 9.44337 8.3743 6.73828
265 1 -1.1104 12.2726 8.41912 6.91132
266 1 -1.1104 12.321 5.53717 6.75707
65 1 -1.1104 6.71472 11.0422 6.73122
245 1 -1.1104 6.73207 8.31307 9.52715
253 1 -1.1104 6.76792 5.55187 9.36548
254 1 -1.1104 6.67875 11.1901 9.42689
248 1 -1.1104 6.62215 5.55283 12.193
269 1 -1.1104 9.4292 5.55511 6.63707
101 1 -1.1104 9.51051 11.2344 6.75778
264 1 -1.1104 9.51549 11.2612 9.4905
268 1 -1.1104 9.65126 5.45462 9.44126
270 1 -1.1104 9.48425 11.0963 12.3498
271 1 -1.1104 9.26476 5.55877 12.2286
272 2 2.2208 8.19432 9.86615 10.9709
273 1 -1.1104 9.72747 8.37113 9.55967
274 2 2.2208 7.99438 12.5909 8.1006
275 2 2.2208 8.27142 6.83629 8.09831
276 2 2.2208 10.9162 6.92088 11.0097
277 2 2.2208 10.8525 12.6376 10.8696
278 1 -1.1104 12.3796 8.42013 12.3965
279 1 -1.1104 12.4976 8.27414 9.5743
280 1 -1.1104 12.016 5.61419 12.4476
281 1 -1.1104 12.2317 11.1817 12.2405
282 2 2.2208 10.788 9.8522 8.21507
283 1 -1.1104 12.3794 5.61913 9.61239
284 1 -1.1104 12.2768 11.1712 9.49829
285 1 -1.1104 9.57338 8.3453 12.3709
315 1 -1.1104 9.53815 16.6756 12.3999
117 1 -1.1104 1.1339 16.7441 6.66307
325 2 2.2208 10.8262 15.5089 8.00023
361 2 2.2208 5.36449 18.2426 -0.329904
312 2 2.2208 -0.457226 18.1985 10.8814
133 1 -1.1104 3.8762 16.7294 6.74114
124 1 -1.1104 3.84535 13.9871 6.66705
112 1 -1.1104 6.62427 19.4597 6.69358
302 1 -1.1104 1.01897 19.5254 6.67135
297 1 -1.1104 6.66976 13.9989 12.2594
306 1 -1.1104 6.69081 16.7782 12.1366
126 1 -1.1104 3.78888 19.6436 6.49399
305 1 -1.1104 3.79691 13.9587 9.49252
304 1 -1.1104 3.74637 16.7894 9.57778
309 2 2.2208 2.36891 20.8357 10.7242
308 1 -1.1104 3.73758 16.7731 12.4207
307 1 -1.1104 0.980166 16.817 12.4904
310 2 2.2208 2.40243 15.3647 10.9258
286 1 -1.1104 3.82618 19.5836 11.9991
287 1 -1.1104 3.96795 13.9706 12.2386
291 1 -1.1104 0.998823 19.4321 9.39627
292 1 -1.1104 0.911715 16.7057 9.62418
293 2 2.2208 5.23986 20.9572 8.0535
294 1 -1.1104 1.08606 13.9541 9.54695
295 2 2.2208 5.24479 15.4093 8.10227
298 1 -1.1104 1.13328 19.5425 12.2947
299 1 -1.1104 1.04058 14.0401 12.4492
300 2 2.2208 5.26629 18.1295 10.7935
301 1 -1.1104 3.77833 19.5046 9.29537
303 2 2.2208 2.36811 18.1454 7.9406
28 2 2.2208 13.6561 21.0175 10.8745
288 1 -1.1104 6.73733 19.5302 9.45494
320 2 2.2208 8.19732 18.2029 8.00989
326 1 -1.1104 12.3017 16.9555 12.2133
328 1 -1.1104 12.2579 13.9679 9.42676
327 1 -1.1104 12.4048 19.6547 9.3443
163 1 -1.1104 9.48127 16.83 6.67042
154 1 -1.1104 9.50882 14.0413 6.75558
321 1 -1.1104 9.52006 19.4157 12.2657
323 1 -1.1104 12.1793 16.8355 9.38449
53 2 2.2208 10.8663 18.278 10.7956
317 2 2.2208 8.12739 15.3139 10.8697
316 2 2.2208 8.17311 20.9845 10.8203
156 1 -1.1104 9.47848 19.5925 6.6968
324 2 2.2208 10.9487 21.1159 8.01612
296 1 -1.1104 6.61506 19.5516 12.2824
289 1 -1.1104 6.72055 16.6399 9.44486
290 1 -1.1104 6.61534 13.8771 9.41343
334 2 2.2208 13.6786 15.377 5.34932
229 2 2.2208 13.7843 1.1941 8.10393
8991 2 2.2208 -0.32754 4.14181 2.46471
83 2 2.2208 -0.297067 12.5083 5.25502
8990 2 2.2208 13.8043 -4.39468 2.388
165 2 2.2208 13.6501 18.1386 2.30779
342 2 2.2208 8.13504 -4.40449 13.7329
586 2 2.2208 13.6675 6.97229 13.6794
345 2 2.2208 5.37691 9.82047 13.6321
534 2 2.2208 8.1181 18.0653 13.6652
344 2 2.2208 2.52621 12.71 13.6463
9102 2 2.2208 -0.476836 -1.46431 13.6718
559 2 2.2208 10.8362 15.369 13.7699
350 2 2.2208 2.47275 -1.55913 -0.483547
560 2 2.2208 10.8143 20.9038 13.6629
360 2 2.2208 2.46485 20.8696 -0.348936
364 2 2.2208 5.33252 1.21185 16.4076
365 1 -1.1104 0.908966 2.65791 17.7928
368 1 -1.1104 0.956299 -2.87039 15.4181
369 1 -1.1104 0.969802 2.79562 15.038
375 1 -1.1104 0.853205 -0.229562 17.7694
377 2 2.2208 5.36575 3.99616 19.1981
378 1 -1.1104 1.0642 -0.0959424 14.8261
382 1 -1.1104 3.8086 2.61425 17.6799
383 2 2.2208 2.22512 1.39835 19.163
384 1 -1.1104 3.80492 -2.84957 15.5721
385 1 -1.1104 3.80944 2.70142 14.9214
387 2 2.2208 2.48582 -1.24802 16.4292
388 2 2.2208 2.37363 4.12194 16.4139
389 1 -1.1104 3.64669 -0.127593 17.9984
390 1 -1.1104 3.87762 0.000248984 14.9559
367 1 -1.1104 6.82512 2.67026 17.9733
366 1 -1.1104 6.78866 -3.21124 17.7143
380 1 -1.1104 6.61334 -0.183781 14.9645
371 1 -1.1104 6.63365 -3.0675 14.9175
400 2 2.2208 5.25819 4.05341 13.5143
341 2 2.2208 2.46754 1.35551 13.557
376 1 -1.1104 6.84906 0.0576618 17.7386
340 2 2.2208 5.22875 -1.50934 13.6251
612 2 2.2208 13.796 -4.25317 24.9473
373 1 -1.1104 6.63096 2.58814 14.9473
401 2 2.2208 10.9595 1.3344 16.3853
402 1 -1.1104 12.4479 -2.78065 18.0956
403 1 -1.1104 12.4013 2.79973 17.86
404 1 -1.1104 12.4199 -3.01548 15.0899
406 1 -1.1104 12.3056 2.69495 15.0141
408 1 -1.1104 12.4268 -0.0352577 17.9056
409 2 2.2208 10.8964 -1.32838 19.348
410 2 2.2208 10.9503 4.12787 19.1259
411 1 -1.1104 12.2263 -0.176966 15.0506
413 1 -1.1104 9.74663 -2.80963 17.891
414 1 -1.1104 9.55868 2.56174 17.8655
415 2 2.2208 8.14293 1.1344 19.2993
416 1 -1.1104 9.50764 -2.95928 15.0263
418 1 -1.1104 9.42573 2.60493 14.9428
420 2 2.2208 8.1186 -1.60754 16.4916
421 2 2.2208 8.10385 4.0444 16.448
422 1 -1.1104 9.60417 -0.0794643 17.8046
423 1 -1.1104 9.55373 -0.246542 15.1594
706 1 -1.1104 9.48965 16.6368 23.5513
702 1 -1.1104 9.47353 19.6278 23.3876
407 1 -1.1104 12.2176 2.64105 20.7273
432 2 2.2208 10.916 -1.55837 13.6237
431 2 2.2208 8.11205 1.29557 13.5857
424 1 -1.1104 9.47551 0.0970206 20.7505
419 1 -1.1104 9.65564 2.70399 20.5537
434 2 2.2208 5.32471 6.86742 16.42
435 2 2.2208 5.1624 12.6119 16.6067
436 1 -1.1104 1.12738 8.24521 17.8498
438 1 -1.1104 1.23014 8.40328 15.0786
442 1 -1.1104 1.05619 5.54672 17.9056
443 1 -1.1104 1.10026 11.2754 17.7978
446 2 2.2208 5.1934 9.75132 19.3109
447 1 -1.1104 1.21205 5.61812 15.0831
449 1 -1.1104 0.955444 11.2734 15.109
455 1 -1.1104 3.8344 8.25898 17.9528
456 2 2.2208 2.62438 6.78647 19.2981
457 2 2.2208 2.31184 12.6289 19.3787
458 1 -1.1104 4.0548 8.32306 14.9675
460 2 2.2208 2.49336 9.82732 16.4798
461 1 -1.1104 3.92053 5.32595 17.9362
462 1 -1.1104 3.86 11.2077 17.8585
463 1 -1.1104 4.04407 5.42656 15.0546
465 1 -1.1104 3.56955 11.2136 15.0725
450 1 -1.1104 0.923548 11.133 20.6762
346 2 2.2208 2.54385 6.9697 13.6165
433 2 2.2208 10.9118 4.12938 13.6201
466 1 -1.1104 3.76115 11.0633 20.5963
441 1 -1.1104 6.72464 8.35054 20.5708
584 2 2.2208 10.8968 18.0763 27.5892
496 2 2.2208 8.08952 6.93343 13.7036
619 2 2.2208 13.8298 1.21909 24.9218
592 2 2.2208 -0.410747 18.1592 16.5713
451 1 -1.1104 6.67627 5.52298 15.1426
440 1 -1.1104 6.70998 8.34752 15.0922
445 1 -1.1104 6.6439 11.0575 17.8773
437 1 -1.1104 6.58589 8.29175 17.7005
444 1 -1.1104 6.78155 5.45226 17.9015
453 1 -1.1104 6.64767 11.2913 15.0504
472 2 2.2208 10.9004 6.89627 16.4515
473 2 2.2208 10.8191 12.5032 16.6125
474 1 -1.1104 12.2891 8.39691 17.9476
475 1 -1.1104 12.24 8.26645 15.0904
477 1 -1.1104 12.2573 5.69096 17.8749
478 1 -1.1104 12.3652 11.1518 18.0231
479 2 2.2208 10.8874 9.69095 19.4129
480 1 -1.1104 12.3247 5.46625 15.1613
482 1 -1.1104 12.2906 11.1339 15.2062
484 1 -1.1104 9.49333 8.41518 17.8961
485 2 2.2208 8.2203 7.02875 19.2425
486 2 2.2208 7.92254 12.317 19.298
487 1 -1.1104 9.45788 8.24865 15.1639
489 2 2.2208 7.99606 9.73761 16.3869
490 1 -1.1104 9.51554 5.39444 17.8673
491 1 -1.1104 9.43823 11.0505 17.9592
492 1 -1.1104 9.47662 5.49623 14.9928
494 1 -1.1104 9.47964 11.0029 15.1279
591 2 2.2208 13.7228 1.21956 13.6056
429 2 2.2208 13.7412 -1.50855 16.597
617 2 2.2208 13.7946 -1.54724 27.5842
498 2 2.2208 5.36642 18.1694 16.6043
499 1 -1.1104 0.903447 14.1895 17.9891
500 1 -1.1104 1.04477 19.5994 17.9487
503 1 -1.1104 1.01131 14.0925 15.1847
505 1 -1.1104 1.21814 19.5504 15.2727
511 1 -1.1104 0.889544 16.852 17.9706
513 2 2.2208 5.27885 15.474 19.5062
514 2 2.2208 5.32004 21.0698 19.315
515 1 -1.1104 1.04578 16.7354 15.2355
519 1 -1.1104 3.77014 14.1263 18.0465
520 1 -1.1104 3.95007 19.5076 17.9018
521 2 2.2208 2.47184 18.302 19.327
522 1 -1.1104 4.00477 13.9727 15.1774
524 1 -1.1104 3.95472 19.5741 14.9822
526 2 2.2208 2.46595 15.5508 16.6007
527 2 2.2208 2.64678 20.9008 16.5061
528 1 -1.1104 3.74484 16.8363 18.0164
529 1 -1.1104 4.0136 16.9669 15.1537
509 1 -1.1104 6.62036 19.6145 15.2007
501 1 -1.1104 6.56071 13.9769 17.9626
9176 2 2.2208 -0.354615 1.18519 22.069
516 1 -1.1104 1.31876 16.9529 20.8921
504 1 -1.1104 1.01555 14.0561 20.815
650 2 2.2208 -0.379774 12.5205 22.3142
649 2 2.2208 -0.349772 9.76363 24.9245
506 1 -1.1104 1.09987 19.7291 20.7454
523 1 -1.1104 3.93 14.1093 20.9369
530 1 -1.1104 3.92081 16.9014 20.8217
9177 2 2.2208 -0.366019 3.97218 24.9021
553 1 -1.1104 9.49399 19.7222 20.7599
517 1 -1.1104 6.60508 16.7252 15.13
502 1 -1.1104 6.81669 19.6751 17.9651
507 1 -1.1104 6.71171 13.9392 15.0622
512 1 -1.1104 6.63721 16.7327 17.9801
510 1 -1.1104 6.56304 19.6901 20.7644
357 2 2.2208 -0.472191 12.6055 27.7361
685 1 -1.1104 6.56083 14.1618 23.4848
535 2 2.2208 10.8587 18.1319 16.5513
536 1 -1.1104 12.2138 13.9025 17.8917
537 1 -1.1104 12.3002 19.4548 17.8524
538 1 -1.1104 12.3757 14.0694 14.9556
540 1 -1.1104 12.0751 19.4839 14.9283
542 1 -1.1104 12.2196 16.6515 17.9189
543 2 2.2208 10.8283 15.2845 19.2962
544 2 2.2208 10.9418 21.0121 19.3621
545 1 -1.1104 12.3172 16.7892 15.1307
547 1 -1.1104 9.43036 13.8474 17.8422
548 1 -1.1104 9.642 19.509 17.8327
549 2 2.2208 8.16417 18.229 19.3637
550 1 -1.1104 9.57129 13.884 15.1727
552 1 -1.1104 9.36528 19.5681 15.0221
554 2 2.2208 7.91474 15.3879 16.5912
555 2 2.2208 8.04789 20.9542 16.4404
556 1 -1.1104 9.38573 16.6531 17.9374
557 1 -1.1104 9.33495 16.7038 15.3351
700 1 -1.1104 9.29586 13.7427 23.531
508 1 -1.1104 6.65417 13.8725 20.7199
541 1 -1.1104 12.2466 19.5375 20.7972
539 1 -1.1104 12.162 13.9118 20.7094
374 1 -1.1104 6.81996 2.63267 20.8197
370 1 -1.1104 0.908815 2.6837 20.6754
386 1 -1.1104 3.61793 2.07297 20.7815
391 1 -1.1104 1.26616 -0.0434653 20.6834
379 1 -1.1104 1.06985 -2.8814 20.5559
561 2 2.2208 5.47737 1.40923 22.0633
562 1 -1.1104 0.73082 -3.085 23.5284
563 1 -1.1104 1.1952 2.68764 23.6121
566 1 -1.1104 0.921094 -2.98742 26.2544
567 1 -1.1104 1.0252 2.58885 26.2842
569 1 -1.1104 0.985119 -0.18787 23.4545
571 2 2.2208 5.43781 -1.61129 24.8022
573 1 -1.1104 1.05518 -0.182287 26.2809
574 1 -1.1104 3.68525 -3.18964 23.4403
575 1 -1.1104 4.01109 2.61789 23.4763
576 2 2.2208 2.59885 1.29838 24.971
577 1 -1.1104 3.80303 -2.97277 26.2587
578 1 -1.1104 3.91583 2.64382 26.4113
579 2 2.2208 2.2464 -1.6291 22.2522
581 1 -1.1104 3.84497 -0.295106 23.0904
582 1 -1.1104 3.8306 -0.210955 26.0106
572 2 2.2208 5.51277 4.16263 24.9289
580 2 2.2208 2.4832 3.96484 22.1664
570 1 -1.1104 6.68143 0.0397026 23.5562
8769 1 -1.1104 6.53037 -3.19462 25.9658
565 1 -1.1104 6.92085 2.83113 23.5167
568 1 -1.1104 6.72839 2.71094 26.1462
704 2 2.2208 -0.335332 18.1638 22.1125
405 1 -1.1104 12.1047 -2.95663 20.8171
8478 2 2.2208 11.0738 -4.27813 22.3706
372 1 -1.1104 6.72116 -2.97435 23.1713
609 1 -1.1104 6.6699 -0.0261006 26.1005
381 1 -1.1104 6.69551 -0.196097 20.7623
412 1 -1.1104 12.3227 -0.190462 20.6897
417 1 -1.1104 9.07778 -2.79269 20.5706
693 1 -1.1104 6.55951 16.9048 23.4286
564 1 -1.1104 9.46877 -2.97471 23.5641
595 2 2.2208 11.0421 1.30042 22.2322
596 1 -1.1104 12.5465 -2.94669 23.391
597 1 -1.1104 12.4071 2.96481 23.6375
598 1 -1.1104 12.363 -3.09467 26.5133
599 1 -1.1104 12.2748 2.93319 26.505
600 1 -1.1104 12.5318 0.2087 23.2656
602 1 -1.1104 12.4421 0.138407 26.3339
603 1 -1.1104 9.62173 2.62688 23.4244
604 2 2.2208 8.1941 1.29793 24.8036
605 1 -1.1104 9.5965 2.67742 26.2587
606 2 2.2208 8.23165 -1.38519 22.2957
608 1 -1.1104 9.54564 0.10405 23.5238
607 2 2.2208 8.39279 3.98969 22.0709
601 2 2.2208 10.9921 4.07209 24.9844
618 2 2.2208 13.7027 -1.52506 22.1316
676 1 -1.1104 6.51862 13.9374 26.3109
707 2 2.2208 8.0794 21.0927 22.0743
593 2 2.2208 10.8554 18.1247 22.1417
709 1 -1.1104 9.51531 19.6592 26.178
439 1 -1.1104 1.21696 8.3821 20.6037
459 1 -1.1104 3.8465 8.15974 20.6566
448 1 -1.1104 1.12673 5.5924 20.8456
464 1 -1.1104 3.93239 5.23432 20.5418
620 2 2.2208 5.26617 6.88512 22.004
621 2 2.2208 5.33469 12.617 22.1673
622 1 -1.1104 1.20889 8.23219 23.5094
624 1 -1.1104 1.03989 8.36955 26.2194
626 1 -1.1104 1.12569 5.40225 23.5471
627 1 -1.1104 1.17079 11.1438 23.6428
630 2 2.2208 5.31937 9.82113 24.8793
631 1 -1.1104 1.27084 5.47904 26.2978
632 1 -1.1104 0.992587 11.1992 26.4363
635 1 -1.1104 3.99258 8.27695 23.524
636 2 2.2208 2.56955 6.88372 24.8735
637 2 2.2208 2.38698 12.4008 25.0026
638 1 -1.1104 3.86248 8.33711 26.5053
639 2 2.2208 2.40997 9.58926 22.06
640 1 -1.1104 3.88821 5.48125 23.4482
641 1 -1.1104 3.82111 11.0646 23.5625
642 1 -1.1104 4.09768 5.59687 26.2958
643 1 -1.1104 4.00979 11.1472 26.2889
628 1 -1.1104 6.79068 5.55198 23.466
670 2 2.2208 10.8502 15.3552 24.9381
648 1 -1.1104 12.2808 19.5986 26.3095
452 1 -1.1104 6.65399 5.47076 20.6756
454 1 -1.1104 6.54518 11.0432 20.7039
633 1 -1.1104 6.79697 5.58392 26.3443
625 1 -1.1104 6.83247 8.30962 26.2583
623 1 -1.1104 6.59201 8.40994 23.3756
634 1 -1.1104 6.70186 11.1263 26.3577
629 1 -1.1104 6.6913 11.1451 23.3151
495 1 -1.1104 9.42482 11.1585 20.6598
481 1 -1.1104 12.2524 5.2845 20.73
488 1 -1.1104 9.56381 8.30519 20.6582
493 1 -1.1104 9.58382 5.63464 20.6088
483 1 -1.1104 12.1515 11.1911 20.6616
476 1 -1.1104 12.2906 8.36071 20.5961
699 1 -1.1104 12.2137 16.7657 26.3046
651 1 -1.1104 9.43929 11.0653 26.4199
652 1 -1.1104 9.49729 5.54836 26.3183
653 1 -1.1104 9.49687 11.1278 23.7599
654 1 -1.1104 9.70699 5.43607 23.4709
655 2 2.2208 8.19308 9.63642 22.0703
656 1 -1.1104 9.57126 8.32016 26.3004
657 2 2.2208 8.0748 12.6213 25.073
658 2 2.2208 8.23039 6.89626 24.9376
659 2 2.2208 10.9704 6.73022 22.121
660 2 2.2208 10.6983 12.4759 22.1678
661 1 -1.1104 12.1077 8.38146 23.4039
662 1 -1.1104 12.3265 8.3261 26.3778
663 1 -1.1104 12.5692 5.65255 23.4336
664 1 -1.1104 12.2406 11.1658 23.5347
665 2 2.2208 10.9122 9.67709 24.8907
666 1 -1.1104 12.1972 5.67802 26.3101
667 1 -1.1104 12.2747 11.2007 26.29
668 1 -1.1104 9.30799 8.32755 23.62
647 1 -1.1104 12.182 14.0686 26.3163
701 2 2.2208 -0.438866 15.3656 25.0132
343 2 2.2208 -0.140328 9.81979 13.6808
525 1 -1.1104 3.90991 19.8645 20.6283
696 2 2.2208 2.39856 21.1024 22.0337
695 1 -1.1104 3.75323 16.8798 23.6643
694 1 -1.1104 0.964784 16.8818 23.7172
692 1 -1.1104 3.84861 13.9896 26.2944
691 1 -1.1104 4.09679 16.8362 26.3531
690 2 2.2208 2.35375 18.1812 24.991
689 1 -1.1104 3.91676 19.4972 26.3017
697 2 2.2208 2.46899 15.3458 22.2896
675 1 -1.1104 3.85648 19.7302 23.4605
677 1 -1.1104 3.82956 13.8807 23.5895
679 1 -1.1104 0.977223 19.4962 26.3931
680 1 -1.1104 1.01369 16.7644 26.5359
681 1 -1.1104 0.901416 13.8849 26.3167
683 2 2.2208 5.25923 21.0772 24.9254
684 2 2.2208 5.2706 15.4269 24.9716
686 1 -1.1104 1.20481 19.6298 23.5237
687 1 -1.1104 0.970317 13.9845 23.4731
688 2 2.2208 5.17542 18.256 22.1745
678 1 -1.1104 6.74738 16.7941 26.279
682 1 -1.1104 6.5701 19.5798 23.4358
644 1 -1.1104 12.2766 19.6278 23.6387
705 1 -1.1104 9.52884 16.7678 26.2962
711 1 -1.1104 6.76047 19.4551 26.2992
698 2 2.2208 10.9025 21.1327 24.7967
710 1 -1.1104 9.37452 14.1026 26.3219
712 2 2.2208 8.07271 18.2058 24.8947
518 1 -1.1104 6.80382 16.8867 20.6437
551 1 -1.1104 9.37284 13.9457 20.5821
669 1 -1.1104 12.1077 16.7158 23.5471
594 1 -1.1104 12.1332 13.8226 23.5039
708 2 2.2208 8.02913 15.4656 22.0223
546 1 -1.1104 12.2635 16.6707 20.9067
558 1 -1.1104 9.63736 16.7522 20.6036
590 2 2.2208 13.6375 1.22913 19.3353
646 2 2.2208 13.6904 4.13852 16.3912
362 2 2.2208 2.47113 15.2804 27.7132
9134 2 2.2208 -0.408007 1.33156 16.4771
589 2 2.2208 8.13129 21.0566 27.5869
583 2 2.2208 13.7597 7.02789 19.2698
585 2 2.2208 13.6395 9.78079 16.6044
615 2 2.2208 -0.382362 21.0631 19.3439
531 2 2.2208 13.5368 12.6397 19.4647
358 2 2.2208 10.8108 6.84125 27.7232
671 2 2.2208 10.8467 12.5273 27.7413
356 2 2.2208 5.23486 12.62 27.6814
532 2 2.2208 5.22746 20.9466 13.5374
430 2 2.2208 13.7344 -4.31794 13.6551
471 2 2.2208 10.9765 9.53446 13.7612
497 2 2.2208 5.33822 15.3227 13.6207
347 2 2.2208 2.46152 18.2119 13.7151
9083 2 2.2208 -0.248408 6.89779 27.5609
713 2 2.2208 5.11801 23.7336 5.22796
714 2 2.2208 5.22223 29.4014 5.22335
715 1 -1.1104 1.09191 25.1179 0.922949
716 1 -1.1104 1.02701 25.0824 3.63588
717 1 -1.1104 1.09243 22.2018 1.04187
718 1 -1.1104 0.987148 27.8905 0.902703
719 2 2.2208 5.37581 26.6042 2.41251
720 1 -1.1104 1.01697 22.3753 3.92432
721 1 -1.1104 0.89505 28.043 3.67651
722 1 -1.1104 3.79868 25.2028 1.08489
723 2 2.2208 2.49872 23.7698 2.36273
724 2 2.2208 2.37138 29.3547 2.32022
725 1 -1.1104 3.95301 25.2801 3.67489
726 2 2.2208 2.43522 26.4908 5.23984
727 1 -1.1104 3.83383 22.356 1.14282
728 1 -1.1104 3.8199 28.098 0.945311
729 1 -1.1104 3.86559 22.3183 3.98177
730 1 -1.1104 3.74534 28.0711 3.80095
857 1 -1.1104 1.12244 28.039 6.50792
737 1 -1.1104 6.68066 28.0018 0.945099
734 1 -1.1104 6.751 25.1948 1.0322
739 1 -1.1104 6.64252 28.0874 3.80463
1657 1 -1.1104 9.55441 47.6383 6.8276
1678 1 -1.1104 9.59925 47.6757 9.54767
759 2 2.2208 13.8495 29.3477 2.45538
944 2 2.2208 -0.45142 37.8085 7.86875
732 2 2.2208 -0.343094 23.669 5.28211
1490 1 -1.1104 9.38449 47.7007 1.1164
860 1 -1.1104 3.83416 25.1663 6.62263
854 1 -1.1104 1.06077 25.1375 6.45708
736 1 -1.1104 6.5456 22.4553 1.13076
738 1 -1.1104 6.66579 22.4405 3.81397
735 1 -1.1104 6.64526 25.2111 3.80998
740 2 2.2208 10.8209 23.8636 5.20274
741 2 2.2208 10.9529 29.2644 5.14143
742 1 -1.1104 12.3468 25.2642 1.1556
743 1 -1.1104 12.3682 25.2606 3.95478
744 1 -1.1104 12.2602 22.3399 0.976467
745 1 -1.1104 12.4476 27.9278 0.920078
746 2 2.2208 11.0703 26.6035 2.48004
747 1 -1.1104 12.2329 22.475 3.94119
748 1 -1.1104 12.3128 27.9765 3.73954
749 1 -1.1104 9.4376 25.1371 0.956124
750 2 2.2208 8.09342 23.7463 2.41299
751 2 2.2208 8.03093 29.4465 2.28335
752 1 -1.1104 9.40623 25.285 3.77359
753 2 2.2208 8.05446 26.6595 5.22704
754 1 -1.1104 9.54222 22.4038 0.889166
755 1 -1.1104 9.65491 27.9628 1.11812
756 1 -1.1104 9.36303 22.3169 3.61336
757 1 -1.1104 9.47568 27.9514 3.89404
1034 2 2.2208 13.6447 29.4462 8.09389
1045 2 2.2208 13.863 46.3243 8.16477
1043 2 2.2208 -0.291769 35.0161 10.8069
887 1 -1.1104 12.3117 25.32 6.743
892 1 -1.1104 9.59726 28.1012 6.78259
853 2 2.2208 13.6763 40.5527 2.39253
758 2 2.2208 13.6124 23.7649 2.43373
761 2 2.2208 5.22277 35.1103 5.27913
762 1 -1.1104 0.906771 30.6991 0.956795
763 1 -1.1104 1.12949 36.4261 1.00562
765 1 -1.1104 1.00075 30.8245 3.78406
766 1 -1.1104 1.06478 36.4333 3.73163
768 1 -1.1104 0.933674 33.5739 1.11076
769 2 2.2208 5.22456 32.2136 2.4625
770 2 2.2208 5.22157 37.868 2.53009
771 1 -1.1104 1.06156 33.6591 3.94312
773 1 -1.1104 3.71675 30.6593 1.08671
774 1 -1.1104 3.96305 36.2255 1.11155
775 2 2.2208 2.44547 34.9607 2.54522
776 1 -1.1104 3.88219 30.8335 3.83776
777 1 -1.1104 3.86907 36.391 3.9285
778 2 2.2208 2.42934 32.128 5.25714
779 2 2.2208 2.43186 37.8643 5.17157
780 1 -1.1104 3.73804 33.4879 1.15045
781 1 -1.1104 3.87298 33.6407 3.77805
787 1 -1.1104 6.73561 33.4768 1.14068
767 1 -1.1104 6.57755 36.6578 3.97313
764 1 -1.1104 6.76999 36.5083 1.11815
772 1 -1.1104 6.58228 33.6975 3.93331
786 1 -1.1104 6.75504 30.8576 3.75817
785 1 -1.1104 6.57116 30.7584 0.78533
913 1 -1.1104 6.62732 30.6471 6.59208
1035 2 2.2208 13.6415 23.8285 8.05837
1268 2 2.2208 5.20956 29.4758 -0.52165
1151 2 2.2208 5.34236 32.243 13.6952
917 1 -1.1104 3.86794 30.8348 6.5735
916 1 -1.1104 6.37292 33.5207 6.56193
918 1 -1.1104 3.71624 36.485 6.71497
914 1 -1.1104 6.67872 36.2973 6.80979
1027 2 2.2208 10.9747 46.2879 10.9585
1050 2 2.2208 8.16837 46.0029 13.6775
788 2 2.2208 10.8416 35.0706 5.34447
789 1 -1.1104 12.2094 30.7549 0.917819
790 1 -1.1104 12.2877 36.5273 1.08991
791 1 -1.1104 12.3732 30.8648 3.66786
792 1 -1.1104 12.2522 36.511 4.10431
793 1 -1.1104 12.2593 33.7235 0.99229
794 2 2.2208 10.921 32.2285 2.45142
795 2 2.2208 10.7877 37.825 2.62285
796 1 -1.1104 12.1511 33.7584 3.85285
797 1 -1.1104 9.37703 30.8222 0.926333
798 1 -1.1104 9.50959 36.472 1.1066
799 2 2.2208 8.02334 35.1051 2.48649
800 1 -1.1104 9.50388 30.8216 3.62857
801 1 -1.1104 9.31641 36.4698 3.98439
802 2 2.2208 7.90881 32.1862 5.13912
803 2 2.2208 8.08405 37.8208 5.28707
804 1 -1.1104 9.48814 33.7607 0.919893
805 1 -1.1104 9.23235 33.7035 3.77989