ITEM: TIMESTEP
100000
ITEM: NUMBER OF ATOMS
17820
ITEM: BOX BOUNDS pp pp pp
-3.6034382027382245e-01 2.7700343820273616e+01
-4.3382568778791999e+00 3.3241825687786661e+02
-3.6505013291057198e-01 2.7705050132911623e+01
ITEM: ATOMS id type q x y z
1 2 2.2208 5.33256 1.36666 5.18111
2 1 -1.1104 1.06281 -3.05564 0.887227
3 1 -1.1104 1.01168 2.73295 1.11164
6 1 -1.1104 0.973629 -2.99362 3.88771
7 1 -1.1104 1.10192 2.7019 3.8419
10 1 -1.1104 0.859151 -0.171642 0.928
12 2 2.2208 5.1702 -1.49476 2.24061
14 1 -1.1104 0.971753 -0.0812137 3.79197
16 1 -1.1104 3.71113 -2.96905 0.939856
17 1 -1.1104 3.75797 2.79647 0.958289
18 2 2.2208 2.40208 1.27418 2.38724
19 1 -1.1104 3.70356 -2.9904 3.75537
20 1 -1.1104 3.87551 2.88447 3.86757
21 2 2.2208 2.41837 -1.62013 5.2121
22 2 2.2208 2.49389 4.02887 5.35597
23 1 -1.1104 3.65442 -0.122497 0.852407
24 1 -1.1104 3.75484 -0.123276 3.78733
11 1 -1.1104 6.24957 0.0619714 1.06311
13 2 2.2208 5.16145 4.27379 2.42615
26 2 2.2208 -0.283444 1.27003 5.22321
9082 2 2.2208 -0.413917 -1.55571 2.40499
4 1 -1.1104 6.32629 -3.07287 1.15886
170 1 -1.1104 0.972841 -0.185621 6.49446
169 1 -1.1104 6.56003 2.79084 6.49568
339 2 2.2208 -0.383562 12.4183 10.9478
168 1 -1.1104 6.63281 -2.87707 6.59001
8417 2 2.2208 5.16093 -4.36658 10.8831
351 2 2.2208 2.31639 4.24809 -0.51052
9 1 -1.1104 6.63842 2.78816 3.79382
5 1 -1.1104 6.679 2.8813 1.06699
15 1 -1.1104 6.60611 -0.0648396 3.76361
8 1 -1.1104 6.50039 -2.96904 3.83868
31 2 2.2208 10.7648 1.19665 5.19881
32 1 -1.1104 12.0575 -2.8429 1.06162
33 1 -1.1104 12.023 2.6191 0.982927
34 1 -1.1104 12.2134 -2.85665 3.9024
35 1 -1.1104 12.0923 2.80051 3.84003
36 1 -1.1104 12.3029 -0.228683 1.03067
37 2 2.2208 10.7893 -1.49719 2.31368
38 2 2.2208 10.6105 4.13548 2.48031
39 1 -1.1104 12.2334 -0.0260292 3.86578
40 1 -1.1104 9.30844 -3.20675 0.816597
41 1 -1.1104 9.31152 2.85865 0.817103
42 2 2.2208 8.02674 1.238 2.27531
43 1 -1.1104 9.37473 -2.97081 3.66534
44 1 -1.1104 9.24821 2.51308 3.97656
45 2 2.2208 7.98613 -1.4784 4.97481
47 1 -1.1104 9.49609 0.18289 0.994367
48 1 -1.1104 9.54055 -0.182692 3.80354
46 2 2.2208 7.91347 4.09264 5.14164
209 1 -1.1104 9.49662 2.7593 6.68949
205 1 -1.1104 12.232 -3.07118 6.72223
206 1 -1.1104 12.2836 2.60191 6.73438
27 2 2.2208 13.7638 18.1479 8.15929
611 2 2.2208 7.84072 4.26197 -0.28398
610 2 2.2208 10.8218 1.359 -0.443026
319 1 -1.1104 9.3688 13.8015 9.5109
54 2 2.2208 5.21835 6.91976 5.1915
55 2 2.2208 5.27612 12.5218 5.33805
56 1 -1.1104 0.828351 8.47676 1.14827
58 1 -1.1104 0.89785 8.28952 3.86584
60 1 -1.1104 1.00239 5.76306 0.911902
61 1 -1.1104 1.01465 11.1683 1.11652
66 2 2.2208 5.19864 9.74814 2.51468
67 1 -1.1104 0.927857 5.61786 3.85017
68 1 -1.1104 0.894709 11.1316 3.85996
71 1 -1.1104 3.56778 8.58201 1.17616
72 2 2.2208 2.23971 6.92353 2.42613
73 2 2.2208 2.29986 12.5829 2.58042
74 1 -1.1104 3.68101 8.30837 4.03263
75 2 2.2208 2.28456 9.70679 5.35901
76 1 -1.1104 3.68968 5.70422 0.992685
77 1 -1.1104 3.89196 11.1809 1.06674
79 1 -1.1104 3.75747 5.58276 3.88601
80 1 -1.1104 3.82577 11.2564 3.93349
64 1 -1.1104 6.73002 11.0754 1.21283
59 1 -1.1104 6.72926 8.44995 3.77033
65 1 -1.1104 6.65012 11.1215 6.70813
235 1 -1.1104 6.52248 8.22227 6.74968
236 1 -1.1104 0.988833 5.6078 6.61128
8422 2 2.2208 10.9017 -4.31823 -0.38908
70 1 -1.1104 6.76621 11.1527 3.86435
57 1 -1.1104 6.41002 8.40441 0.95257
237 1 -1.1104 6.59557 5.4944 6.49572
69 1 -1.1104 6.49034 5.63821 3.82391
63 1 -1.1104 6.46874 5.63669 1.06226
84 2 2.2208 10.7727 7.00005 5.32174
85 2 2.2208 10.801 12.506 5.25588
86 1 -1.1104 12.0408 8.31944 1.01673
87 1 -1.1104 12.1142 8.51692 3.84022
88 1 -1.1104 12.1378 5.55247 0.969781
89 1 -1.1104 12.1563 11.1054 1.12009
91 2 2.2208 10.8717 9.66354 2.42195
92 1 -1.1104 12.0406 5.81854 3.75562
93 1 -1.1104 12.157 11.2843 3.70507
94 1 -1.1104 9.25605 8.40722 0.985784
95 2 2.2208 7.99808 7.01458 2.31103
96 2 2.2208 7.94042 12.53 2.4532
97 1 -1.1104 9.43999 8.17916 3.80069
98 2 2.2208 8.07071 9.66523 5.29998
99 1 -1.1104 9.27615 5.70879 0.908062
100 1 -1.1104 9.47275 11.157 0.983559
102 1 -1.1104 9.23699 5.38523 3.83231
103 1 -1.1104 9.46866 11.1156 3.94985
101 1 -1.1104 9.45381 11.1189 6.66033
267 1 -1.1104 9.36209 8.20244 6.77562
671 2 2.2208 10.8227 12.533 -0.33319
52 2 2.2208 10.7269 -4.19732 5.10589
106 2 2.2208 5.25979 18.2587 5.29474
107 1 -1.1104 0.988607 14.0336 1.1453
109 1 -1.1104 0.941423 19.6706 1.18311
113 1 -1.1104 1.0137 14.0122 4.03971
114 1 -1.1104 1.01738 19.6881 3.88039
116 1 -1.1104 1.03301 16.9213 1.16666
119 2 2.2208 5.16754 15.4051 2.34253
120 2 2.2208 5.25688 21.0008 2.39782
121 1 -1.1104 1.10692 16.7221 3.99706
123 1 -1.1104 3.74191 14.0106 1.01369
125 1 -1.1104 3.7555 19.5958 1.09557
127 2 2.2208 2.52169 18.1721 2.49901
128 1 -1.1104 3.91339 14.1479 3.72164
129 1 -1.1104 3.78371 19.613 3.93186
130 2 2.2208 2.50702 15.4113 5.36375
131 2 2.2208 2.46272 21.0592 5.26555
132 1 -1.1104 3.74384 16.8343 1.01059
134 1 -1.1104 3.8101 16.8096 3.79031
124 1 -1.1104 3.82551 14.0443 6.76403
126 1 -1.1104 3.86129 19.5758 6.66527
110 1 -1.1104 6.65806 14.0057 1.12603
302 1 -1.1104 0.967784 19.5492 6.80723
118 1 -1.1104 6.64904 16.7253 6.70418
115 1 -1.1104 6.58525 13.8594 3.90973
360 2 2.2208 2.40618 20.8921 -0.360901
51 2 2.2208 7.92265 -4.29227 2.41867
139 1 -1.1104 6.69894 19.6467 3.83425
140 1 -1.1104 6.63741 16.7718 1.11851
122 1 -1.1104 6.59637 16.8 3.77023
138 1 -1.1104 6.65702 19.4706 0.926706
141 2 2.2208 10.7471 18.1884 5.39634
142 1 -1.1104 12.1076 13.94 0.960965
144 1 -1.1104 12.1887 19.5425 1.14247
146 1 -1.1104 12.2532 14.0361 3.79488
147 1 -1.1104 12.219 19.6365 3.8973
148 1 -1.1104 12.1431 16.7643 1.22905
150 2 2.2208 10.7187 15.2895 2.47528
151 2 2.2208 10.6773 20.8716 2.49287
152 1 -1.1104 12.0946 16.7978 4.05815
153 1 -1.1104 9.44486 13.9585 0.903262
155 1 -1.1104 9.32678 19.417 1.01113
157 2 2.2208 7.96624 18.1632 2.37136
158 1 -1.1104 9.49622 14.0375 3.87229
159 1 -1.1104 9.43647 19.4782 3.83104
160 2 2.2208 7.90325 15.306 5.22488
161 2 2.2208 8.03955 20.9198 5.26506
162 1 -1.1104 9.3668 16.7 1.10444
164 1 -1.1104 9.41384 16.8714 3.89966
154 1 -1.1104 9.33754 13.8845 6.65078
145 1 -1.1104 12.2162 19.4969 6.7443
324 2 2.2208 10.8762 20.8623 8.13295
316 2 2.2208 8.09095 20.93 10.8469
326 1 -1.1104 12.2669 16.8263 12.4073
111 1 -1.1104 6.5932 13.8752 6.65418
29 2 2.2208 5.15616 -4.39647 5.17923
172 1 -1.1104 3.80177 -2.9496 6.60339
173 1 -1.1104 3.75296 2.55394 6.5991
166 1 -1.1104 0.892473 -3.02108 6.6054
167 1 -1.1104 0.841635 2.73991 6.60378
174 1 -1.1104 3.76026 -0.159572 6.73168
202 2 2.2208 2.4122 -4.29868 7.91788
341 2 2.2208 2.3394 1.3046 13.6938
175 2 2.2208 5.09558 1.25675 10.7307
176 1 -1.1104 0.977859 -2.8463 12.4487
177 1 -1.1104 0.924865 2.57057 12.2058
180 1 -1.1104 0.919089 -2.91077 9.44944
181 1 -1.1104 0.996587 2.70809 9.26281
184 1 -1.1104 1.02543 -0.122608 12.2585
186 2 2.2208 5.20184 -1.50678 8.06941
187 2 2.2208 5.01435 4.03209 7.9451
188 1 -1.1104 0.908114 -0.0552585 9.3882
190 1 -1.1104 3.78078 -3.0552 12.4222
191 1 -1.1104 3.76318 2.55279 12.1837
192 2 2.2208 2.30189 1.20837 7.92387
193 1 -1.1104 3.82297 -3.02963 9.53278
194 1 -1.1104 3.73839 2.78032 9.41256
195 2 2.2208 2.34197 -1.5753 10.9726
197 1 -1.1104 3.80427 -0.283741 12.201
198 1 -1.1104 3.63936 -0.0464598 9.41059
196 2 2.2208 2.27102 3.90282 10.7405
178 1 -1.1104 6.70472 -2.95276 12.1879
189 1 -1.1104 6.58268 -0.23379 9.50049
183 1 -1.1104 6.41803 2.69658 9.27892
199 2 2.2208 -0.502929 4.20302 7.9531
232 2 2.2208 10.7807 -4.29227 10.7634
207 1 -1.1104 12.0845 -0.147027 6.68248
171 1 -1.1104 6.56215 -0.0989412 6.57201
203 2 2.2208 -0.412793 7.01853 10.8712
210 1 -1.1104 9.39676 -0.146474 6.71685
208 1 -1.1104 9.53544 -2.81237 6.53938
179 1 -1.1104 6.49113 2.64895 12.2627
185 1 -1.1104 6.55892 -0.170209 12.3091
182 1 -1.1104 6.6034 -2.84731 9.34447
211 2 2.2208 10.7551 1.33926 10.883
212 1 -1.1104 12.2659 -2.87981 12.3733
213 1 -1.1104 12.1694 2.89837 12.3462
214 1 -1.1104 12.3168 -2.87519 9.39405
215 1 -1.1104 12.3834 2.56286 9.6025
216 1 -1.1104 12.0986 0.0330711 12.3741
217 2 2.2208 10.7481 -1.49729 8.02965
219 1 -1.1104 12.1533 -0.155576 9.48441
220 1 -1.1104 9.49961 -2.91625 12.2901
221 1 -1.1104 9.27165 2.83382 12.3858
222 2 2.2208 7.92009 1.40328 8.0471
223 1 -1.1104 9.35212 -2.8583 9.39864
224 1 -1.1104 9.352 2.66555 9.5689
225 2 2.2208 7.97488 -1.37487 10.8281
227 1 -1.1104 9.3489 -0.0770909 12.2449
228 1 -1.1104 9.37676 -0.19445 9.38557
226 2 2.2208 7.86063 4.0562 11.0751
218 2 2.2208 10.7225 4.11335 8.09272
313 2 2.2208 -0.388614 15.2327 8.24132
53 2 2.2208 10.8622 18.0592 10.8867
234 1 -1.1104 0.994783 8.31919 6.65155
62 1 -1.1104 1.08861 11.059 6.70378
78 1 -1.1104 3.77449 11.2288 6.75605
238 1 -1.1104 3.93204 8.37824 6.61122
239 1 -1.1104 3.73057 5.50431 6.72405
345 2 2.2208 5.16246 9.7626 13.6858
346 2 2.2208 2.44986 6.87049 13.6428
240 2 2.2208 5.16081 6.80851 10.9013
241 2 2.2208 5.0765 12.482 10.9542
242 1 -1.1104 1.03566 8.20667 12.3855
244 1 -1.1104 0.877755 8.26439 9.51728
246 1 -1.1104 0.954698 5.32051 12.1161
247 1 -1.1104 0.911927 11.049 12.4208
250 2 2.2208 5.18376 9.72165 7.91057
251 1 -1.1104 1.00967 5.5569 9.47787
252 1 -1.1104 0.858794 11.0268 9.52146
255 1 -1.1104 3.68718 8.23488 12.1695
256 2 2.2208 2.51636 7.02454 8.08209
257 2 2.2208 2.37319 12.5434 8.26279
258 1 -1.1104 3.84352 8.50909 9.46167
259 2 2.2208 2.31419 9.63374 10.9182
260 1 -1.1104 3.76805 5.43592 12.4958
261 1 -1.1104 3.70946 11.155 12.2896
262 1 -1.1104 3.73755 5.381 9.47878
263 1 -1.1104 3.58637 11.0696 9.43739
248 1 -1.1104 6.52022 5.41717 12.2227
288 1 -1.1104 6.59425 19.5707 9.47019
253 1 -1.1104 6.64857 5.50791 9.48
249 1 -1.1104 6.56665 11.1328 12.3752
325 2 2.2208 10.7647 15.4145 8.06056
269 1 -1.1104 9.4857 5.46754 6.57095
90 1 -1.1104 12.0026 11.0722 6.72374
245 1 -1.1104 6.57381 8.30474 9.42769
243 1 -1.1104 6.39409 8.37141 12.2553
254 1 -1.1104 6.54649 10.9789 9.34599
266 1 -1.1104 12.1669 5.4912 6.52965
265 1 -1.1104 12.2379 8.28477 6.44006
264 1 -1.1104 9.36767 11.0877 9.52248
268 1 -1.1104 9.37194 5.52339 9.49091
270 1 -1.1104 9.26851 11.0846 12.3914
271 1 -1.1104 9.4595 5.67482 12.3406
272 2 2.2208 7.8944 9.66599 10.8827
273 1 -1.1104 9.33762 8.41355 9.59764
274 2 2.2208 8.03048 12.4387 8.05603
275 2 2.2208 7.78454 6.83466 8.06304
276 2 2.2208 10.6418 6.93394 10.8043
277 2 2.2208 10.7471 12.6181 10.7817
278 1 -1.1104 12.1556 8.39965 12.1413
279 1 -1.1104 12.1437 8.24583 9.37748
280 1 -1.1104 12.0309 5.72479 12.0987
281 1 -1.1104 11.9342 11.1807 12.4105
282 2 2.2208 10.7721 9.71299 8.12278
283 1 -1.1104 12.2594 5.42635 9.29175
284 1 -1.1104 12.2115 11.2022 9.47467
285 1 -1.1104 9.19399 8.31866 12.392
470 2 2.2208 7.89484 12.5872 13.7143
532 2 2.2208 5.32561 20.9781 13.748
108 1 -1.1104 1.04146 13.9478 6.85785
133 1 -1.1104 3.98377 16.7982 6.77099
312 2 2.2208 -0.493114 18.1674 10.8414
311 2 2.2208 -0.335873 20.9291 8.11019
296 1 -1.1104 6.70062 19.5488 12.3691
117 1 -1.1104 1.04587 16.6426 6.68426
347 2 2.2208 2.37503 18.1342 13.7167
305 1 -1.1104 3.77616 13.9608 9.51991
304 1 -1.1104 3.79462 16.7834 9.63616
309 2 2.2208 2.53651 21.0526 10.9417
308 1 -1.1104 3.83297 16.7681 12.4033
307 1 -1.1104 1.03684 16.7724 12.2778
310 2 2.2208 2.42055 15.3607 11.0009
286 1 -1.1104 3.96546 19.6589 12.316
287 1 -1.1104 3.73249 13.9687 12.2022
291 1 -1.1104 1.01612 19.6068 9.56964
292 1 -1.1104 1.11505 16.6971 9.47546
293 2 2.2208 5.22944 20.8782 8.16544
294 1 -1.1104 1.026 13.7966 9.5796
295 2 2.2208 5.19244 15.3413 8.10005
298 1 -1.1104 1.09067 19.7024 12.3709
299 1 -1.1104 0.996596 13.8306 12.3652
300 2 2.2208 5.24187 18.1466 10.9429
301 1 -1.1104 3.81109 19.4228 9.49797
303 2 2.2208 2.44606 18.0019 8.12841
306 1 -1.1104 6.62847 16.8005 12.3711
354 2 2.2208 -0.301566 15.2165 13.7431
28 2 2.2208 13.5281 20.9539 10.8896
328 1 -1.1104 12.1427 14.0616 9.43649
289 1 -1.1104 6.54702 16.7015 9.48289
327 1 -1.1104 12.1759 19.6051 9.46676
315 1 -1.1104 9.47312 16.7454 12.1999
322 1 -1.1104 9.43604 13.8649 12.2475
112 1 -1.1104 6.64124 19.4252 6.61154
149 1 -1.1104 12.0442 16.7578 6.81842
163 1 -1.1104 9.2698 16.7335 6.64656
143 1 -1.1104 12.1578 13.913 6.65087
318 1 -1.1104 9.46327 19.5137 9.48283
320 2 2.2208 7.86415 18.0841 8.08769
330 1 -1.1104 12.1827 14.0161 12.1969
321 1 -1.1104 9.50924 19.5802 12.2689
314 1 -1.1104 9.22438 16.6411 9.45031
317 2 2.2208 8.07784 15.1858 10.8584
323 1 -1.1104 12.1949 16.7815 9.54135
329 1 -1.1104 12.173 19.6807 12.2474
297 1 -1.1104 6.59807 13.9735 12.2924
156 1 -1.1104 9.38966 19.6828 6.71488
290 1 -1.1104 6.52823 13.7767 9.40339
201 2 2.2208 -0.411954 1.34713 10.7367
82 2 2.2208 -0.453763 9.70217 2.58307
83 2 2.2208 -0.428357 12.5468 5.33345
137 2 2.2208 -0.427773 18.1686 5.37095
229 2 2.2208 13.5864 1.22946 8.05516
200 2 2.2208 -0.515051 -1.62507 7.99905
8514 2 2.2208 2.28612 -4.35269 13.6915
340 2 2.2208 5.23845 -1.46294 13.7176
342 2 2.2208 7.94068 -4.36252 13.5041
586 2 2.2208 13.5184 7.06434 13.6429
471 2 2.2208 10.7447 9.84374 13.6676
497 2 2.2208 5.17679 15.413 13.7422
617 2 2.2208 13.5368 -1.48274 -0.545595
9086 2 2.2208 -0.497733 1.197 -0.432704
357 2 2.2208 -0.422401 12.6429 -0.321315
9083 2 2.2208 -0.542523 7.11395 -0.41354
364 2 2.2208 5.19377 1.21076 16.5184
365 1 -1.1104 0.744746 2.59823 17.7657
368 1 -1.1104 0.966897 -2.951 15.2683
369 1 -1.1104 0.900101 2.72347 15.0454
375 1 -1.1104 0.842335 -0.436042 17.7356
378 1 -1.1104 0.87881 -0.099798 15.0101
382 1 -1.1104 3.67856 2.89367 17.8213
383 2 2.2208 2.21109 1.3628 19.1672
384 1 -1.1104 3.63191 -2.96437 15.3009
385 1 -1.1104 3.7137 2.67583 15.1005
387 2 2.2208 2.31178 -1.44603 16.2838
389 1 -1.1104 3.66022 -0.130992 17.9842
390 1 -1.1104 3.71026 0.0932524 15.103
377 2 2.2208 5.09895 4.19185 19.2374
388 2 2.2208 2.37503 4.18226 16.3405
400 2 2.2208 5.23377 3.95755 13.7758
587 2 2.2208 -0.534143 4.12628 19.2572
9135 2 2.2208 -0.577465 -1.5107 19.259
386 1 -1.1104 3.51779 2.31168 20.8132
352 2 2.2208 -0.472153 4.06404 13.6419
426 2 2.2208 10.7107 -4.30813 16.3776
704 2 2.2208 -0.48683 18.2497 22.0905
367 1 -1.1104 6.56081 2.76652 17.8814
366 1 -1.1104 6.57403 -2.96454 17.8006
373 1 -1.1104 6.51436 2.56943 14.9889
380 1 -1.1104 6.63583 -0.160025 14.9924
371 1 -1.1104 6.42137 -2.89195 14.965
376 1 -1.1104 6.6841 -0.015536 17.8233
401 2 2.2208 10.6637 1.40224 16.493
402 1 -1.1104 12.0773 -2.90107 17.82
403 1 -1.1104 12.0753 2.88724 17.7805
404 1 -1.1104 12.123 -2.91408 15.1898
406 1 -1.1104 12.1145 2.76703 15.1063
408 1 -1.1104 12.0466 -0.0466618 17.6587
409 2 2.2208 10.6994 -1.38799 19.1763
410 2 2.2208 10.7051 4.24476 19.1327
411 1 -1.1104 12.0042 0.0820898 14.9014
413 1 -1.1104 9.31107 -2.90815 17.6046
414 1 -1.1104 9.29892 2.82192 17.7771
415 2 2.2208 7.84817 1.38537 19.2699
416 1 -1.1104 9.21966 -3.07002 14.9412
418 1 -1.1104 9.34278 2.70609 15.019
420 2 2.2208 7.86756 -1.48779 16.4985
421 2 2.2208 7.91414 4.25324 16.5225
422 1 -1.1104 9.30832 0.0575775 18.0586
423 1 -1.1104 9.31359 -0.0512056 15.2219
405 1 -1.1104 11.7809 -2.98112 20.5812
407 1 -1.1104 12.1629 2.84358 20.6599
431 2 2.2208 7.89622 1.18364 13.7307
392 2 2.2208 13.4861 15.3094 22.0732
432 2 2.2208 10.7539 -1.50732 13.7189
428 2 2.2208 -0.485596 7.00495 16.4126
434 2 2.2208 5.14104 7.086 16.4085
435 2 2.2208 5.3059 12.589 16.5433
436 1 -1.1104 1.06119 8.29312 17.9466
438 1 -1.1104 0.934065 8.31653 15.048
442 1 -1.1104 0.963083 5.47869 17.898
443 1 -1.1104 1.01049 11.0067 18.0327
446 2 2.2208 4.94777 9.92988 19.3266
447 1 -1.1104 0.974753 5.49597 15.0751
449 1 -1.1104 0.860578 11.1226 15.1603
455 1 -1.1104 3.78094 8.44007 17.9815
456 2 2.2208 2.34929 6.97742 19.3927
457 2 2.2208 2.37826 12.5788 19.2753
458 1 -1.1104 3.74713 8.31424 15.089
460 2 2.2208 2.27176 9.73573 16.4187
461 1 -1.1104 3.83147 5.67557 17.9431
462 1 -1.1104 3.75872 11.2504 17.881
463 1 -1.1104 3.80547 5.49901 15.1824
465 1 -1.1104 3.78014 11.0109 14.9866
450 1 -1.1104 0.893899 11.2184 20.8203
439 1 -1.1104 0.711339 8.32054 20.5855
468 2 2.2208 -0.411268 12.5406 16.5884
466 1 -1.1104 3.61805 11.0035 20.7483
464 1 -1.1104 3.713 5.33402 20.723
467 2 2.2208 -0.551693 9.62702 19.2188
343 2 2.2208 -0.477312 9.62567 13.8583
344 2 2.2208 2.27317 12.3627 13.7651
437 1 -1.1104 6.41292 8.49906 17.7568
453 1 -1.1104 6.57475 11.3538 15.172
445 1 -1.1104 6.51027 11.2409 18.068
444 1 -1.1104 6.58349 5.56845 17.8306
454 1 -1.1104 6.33531 11.0942 20.8976
451 1 -1.1104 6.50957 5.51639 14.9358
440 1 -1.1104 6.49872 8.42328 14.9738
472 2 2.2208 10.7512 6.96594 16.5308
473 2 2.2208 10.7618 12.5832 16.3858
474 1 -1.1104 12.0991 8.39632 17.7713
475 1 -1.1104 12.0683 8.44352 15.039
477 1 -1.1104 12.2813 5.63331 17.7752
478 1 -1.1104 12.2853 11.2109 17.8025
479 2 2.2208 10.7839 9.79542 19.3505
480 1 -1.1104 12.1847 5.71427 15.0576
482 1 -1.1104 12.1257 11.2029 15.1909
484 1 -1.1104 9.32234 8.43567 17.9693
485 2 2.2208 7.71126 6.98773 19.2325
486 2 2.2208 7.87791 12.4554 19.3737
487 1 -1.1104 9.35137 8.46805 15.2062
489 2 2.2208 7.99028 9.76823 16.4945
490 1 -1.1104 9.30906 5.57258 17.8292
491 1 -1.1104 9.38853 11.2372 17.9552
492 1 -1.1104 9.42477 5.66095 15.0494
494 1 -1.1104 9.33334 11.1447 15.1437
493 1 -1.1104 9.16114 5.82789 20.6746
476 1 -1.1104 12.1672 8.42253 20.7421
488 1 -1.1104 9.24069 8.46459 20.6049
495 1 -1.1104 9.23471 11.1642 20.7621
531 2 2.2208 13.5771 12.6232 19.2585
425 2 2.2208 13.5702 20.9431 22.1058
496 2 2.2208 7.8226 7.02312 13.6783
394 2 2.2208 13.496 18.1127 24.9877
498 2 2.2208 5.2466 18.0792 16.502
499 1 -1.1104 0.991278 13.8632 17.8376
500 1 -1.1104 1.0055 19.6754 18.0405
503 1 -1.1104 1.0359 13.8902 15.0787
505 1 -1.1104 1.00944 19.3501 15.3774
511 1 -1.1104 0.984416 16.8128 17.936
513 2 2.2208 5.10746 15.2991 19.3766
514 2 2.2208 5.25591 21.0293 19.3891
515 1 -1.1104 0.965257 16.7383 15.0541
519 1 -1.1104 3.72227 14.0513 17.8623
520 1 -1.1104 3.8326 19.5295 17.9953
521 2 2.2208 2.36823 18.2068 19.3061
522 1 -1.1104 3.7741 13.9982 15.1869
524 1 -1.1104 4.0059 19.5486 15.1201
526 2 2.2208 2.31688 15.3871 16.4185
527 2 2.2208 2.41324 20.8731 16.5806
528 1 -1.1104 3.89265 16.874 17.9968
529 1 -1.1104 3.83139 16.7402 15.0811
525 1 -1.1104 3.74037 19.702 20.7626
516 1 -1.1104 0.868807 16.7432 20.5788
504 1 -1.1104 0.935268 14.0653 20.6973
523 1 -1.1104 3.60915 13.9214 20.5825
530 1 -1.1104 3.73939 16.7641 20.8222
502 1 -1.1104 6.67625 19.7104 17.9624
613 2 2.2208 -0.455358 15.3297 19.3909
507 1 -1.1104 6.58039 14.0665 14.9437
512 1 -1.1104 6.74288 16.6361 17.9715
508 1 -1.1104 6.58755 13.8143 20.7688
615 2 2.2208 -0.465826 21.1109 19.4179
510 1 -1.1104 6.58891 19.6304 20.8423
353 2 2.2208 -0.38231 20.8998 13.6741
509 1 -1.1104 6.67688 19.4894 15.2797
501 1 -1.1104 6.62904 14.0379 17.9845
517 1 -1.1104 6.67845 16.8465 15.1232
535 2 2.2208 10.8393 18.192 16.4037
536 1 -1.1104 12.2139 13.9945 17.8891
537 1 -1.1104 12.2888 19.5555 17.9373
538 1 -1.1104 12.2213 14.0286 15.02
540 1 -1.1104 12.3328 19.5312 15.0285
542 1 -1.1104 12.2265 16.7873 17.9435
543 2 2.2208 10.7767 15.4155 19.283
544 2 2.2208 10.8067 21.0186 19.3903
545 1 -1.1104 12.2509 16.7313 15.1293
547 1 -1.1104 9.44975 14.0807 17.9316
548 1 -1.1104 9.45319 19.7107 17.7837
549 2 2.2208 7.91636 18.1592 19.2954
550 1 -1.1104 9.37103 14.0619 15.0851
552 1 -1.1104 9.39518 19.7029 14.9754
554 2 2.2208 8.03765 15.4061 16.516
555 2 2.2208 8.07147 20.9495 16.5132
556 1 -1.1104 9.4482 16.7726 17.933
557 1 -1.1104 9.39792 16.8392 15.0008
546 1 -1.1104 12.2286 16.7994 20.7548
553 1 -1.1104 9.38233 19.5045 20.6006
541 1 -1.1104 12.2312 19.5576 20.7426
558 1 -1.1104 9.28314 16.8858 20.747
560 2 2.2208 10.8632 20.9019 13.7429
533 2 2.2208 13.6836 18.1957 13.7291
399 2 2.2208 13.6909 15.3687 16.5063
398 2 2.2208 13.6206 18.1406 19.3409
616 2 2.2208 13.6425 20.9497 16.5606
534 2 2.2208 8.10913 18.2939 13.7196
370 1 -1.1104 0.838772 2.80479 20.6804
8425 2 2.2208 5.23683 -4.32423 27.652
391 1 -1.1104 1.02793 0.0795784 20.5149
379 1 -1.1104 0.844351 -2.66063 20.794
9177 2 2.2208 -0.505216 4.28122 24.8938
561 2 2.2208 5.1443 1.42883 22.1644
562 1 -1.1104 0.563522 -2.83701 23.5944
563 1 -1.1104 0.945726 2.74532 23.5827
566 1 -1.1104 0.867379 -2.8388 26.2354
567 1 -1.1104 0.725302 2.85516 26.3835
569 1 -1.1104 0.944329 0.0858752 23.3456
571 2 2.2208 5.08168 -1.42007 24.8417
573 1 -1.1104 0.841922 -0.0252087 26.1376
574 1 -1.1104 3.2914 -3.12307 23.0488
575 1 -1.1104 3.66851 2.7085 23.535
576 2 2.2208 2.42343 1.35184 24.9096
577 1 -1.1104 3.70002 -2.87812 26.0765
578 1 -1.1104 3.6076 2.72849 26.3116
579 2 2.2208 2.04624 -1.42839 22.1817
581 1 -1.1104 3.64951 -0.200452 23.1376
582 1 -1.1104 3.56894 -0.218795 26.2109
580 2 2.2208 2.2894 4.04002 22.1533
572 2 2.2208 5.1593 4.21066 25.0307
350 2 2.2208 2.32556 -1.60623 27.6172
372 1 -1.1104 6.10401 -2.64539 22.921
8769 1 -1.1104 6.27912 -3.00835 25.8754
349 2 2.2208 5.09573 1.33229 27.6882
9176 2 2.2208 -0.680047 1.441 22.1191
584 2 2.2208 10.7975 18.1622 27.8099
583 2 2.2208 13.5912 7.0687 19.2414
412 1 -1.1104 12.285 -0.124354 20.3739
424 1 -1.1104 9.44767 -0.0129766 20.8061
417 1 -1.1104 8.8408 -2.74116 20.5066
419 1 -1.1104 9.31125 3.01474 20.5548
374 1 -1.1104 6.41279 2.9193 20.6744
570 1 -1.1104 6.38607 0.0863533 23.4314
609 1 -1.1104 6.18181 0.272977 26.0805
565 1 -1.1104 6.44771 2.88863 23.4578
381 1 -1.1104 6.45976 0.0998037 20.721
568 1 -1.1104 6.41234 2.9841 26.4306
564 1 -1.1104 8.9351 -2.95836 23.3655
595 2 2.2208 10.632 1.50495 22.1204
596 1 -1.1104 12.0666 -2.93596 23.3907
597 1 -1.1104 12.0722 2.80308 23.3855
598 1 -1.1104 12.2718 -3.16286 26.4307
599 1 -1.1104 12.0885 2.77744 26.2202
600 1 -1.1104 12.0974 0.056522 23.1923
602 1 -1.1104 12.0444 -0.0399355 26.387
603 1 -1.1104 9.16989 3.02297 23.5731
604 2 2.2208 7.79371 1.49845 24.8799
605 1 -1.1104 9.23203 2.51793 26.2583
606 2 2.2208 8.03745 -1.29837 22.1527
608 1 -1.1104 9.05805 0.202689 23.4419
601 2 2.2208 10.7664 4.34065 24.8533
607 2 2.2208 8.03142 4.37567 22.1315
712 2 2.2208 7.93312 18.1016 24.9496
448 1 -1.1104 0.948701 5.37992 20.8632
459 1 -1.1104 3.57519 8.33396 20.7773
393 2 2.2208 -0.499021 6.90386 22.1198
620 2 2.2208 5.08859 7.09208 22.1547
621 2 2.2208 5.15463 12.5602 22.1583
622 1 -1.1104 0.920113 8.44787 23.3699
624 1 -1.1104 0.957795 8.37985 26.3764
626 1 -1.1104 0.93353 5.56922 23.6188
627 1 -1.1104 0.801736 11.1962 23.7187
630 2 2.2208 5.14528 9.89367 24.8749
631 1 -1.1104 0.855341 5.71115 26.4326
632 1 -1.1104 0.902898 11.2641 26.3374
635 1 -1.1104 3.7889 8.51098 23.5375
636 2 2.2208 2.23114 7.06428 24.9467
637 2 2.2208 2.36587 12.7532 24.9698
638 1 -1.1104 3.75518 8.48687 26.3451
639 2 2.2208 2.21006 9.91306 22.1246
640 1 -1.1104 3.67751 5.60846 23.6127
641 1 -1.1104 3.76189 11.3417 23.5711
642 1 -1.1104 3.7351 5.61428 26.3066
643 1 -1.1104 3.67426 11.3334 26.3768
650 2 2.2208 -0.491469 12.5369 22.09
634 1 -1.1104 6.40741 11.231 26.3554
9134 2 2.2208 -0.554358 1.37852 16.4329
645 2 2.2208 5.09126 7.06128 27.7747
356 2 2.2208 5.1436 12.6016 27.8079
649 2 2.2208 -0.555169 9.83843 24.9476
702 1 -1.1104 9.36944 19.5931 23.5083
452 1 -1.1104 6.44615 5.63741 20.7033
481 1 -1.1104 12.0735 5.53292 20.516
483 1 -1.1104 12.0763 11.1683 20.6599
629 1 -1.1104 6.63888 11.3053 23.6074
441 1 -1.1104 6.46935 8.41751 20.6253
633 1 -1.1104 6.4141 5.71606 26.3929
628 1 -1.1104 6.46606 5.60573 23.4842
623 1 -1.1104 6.60752 8.37263 23.3613
625 1 -1.1104 6.50577 8.45039 26.1773
651 1 -1.1104 9.37301 11.1199 26.3179
652 1 -1.1104 9.10215 5.42313 26.2271
653 1 -1.1104 9.4941 11.2016 23.4706
654 1 -1.1104 9.46887 5.79234 23.5688
655 2 2.2208 7.93056 9.79369 22.0051
656 1 -1.1104 9.3804 8.3206 26.3838
657 2 2.2208 8.0797 12.5569 24.8515
658 2 2.2208 7.84815 7.04598 24.9427
659 2 2.2208 10.6995 7.02525 22.0599
660 2 2.2208 10.8166 12.5157 22.0754
661 1 -1.1104 11.9853 8.3788 23.5248
662 1 -1.1104 12.2586 8.3649 26.205
663 1 -1.1104 12.1044 5.68097 23.4061
664 1 -1.1104 12.4056 11.0583 23.5038
665 2 2.2208 10.7602 9.75433 24.9307
666 1 -1.1104 12.0515 5.56717 26.3511
667 1 -1.1104 12.1588 11.3739 26.3447
668 1 -1.1104 9.3337 8.39725 23.5768
359 2 2.2208 7.98304 9.7654 27.7448
701 2 2.2208 -0.566514 15.3717 24.9261
506 1 -1.1104 0.94976 19.6537 20.7019
361 2 2.2208 5.2045 18.2361 27.6839
696 2 2.2208 2.35755 20.9277 22.1523
695 1 -1.1104 3.62941 16.7034 23.4798
694 1 -1.1104 0.867839 16.7902 23.4723
692 1 -1.1104 3.91167 14.2239 26.3488
691 1 -1.1104 3.70557 16.9274 26.4191
690 2 2.2208 2.32145 18.0108 24.9641
689 1 -1.1104 3.75173 19.579 26.4178
697 2 2.2208 2.27564 15.277 22.0947
675 1 -1.1104 3.7275 19.4585 23.5756
677 1 -1.1104 3.83867 13.9488 23.5091
679 1 -1.1104 0.90294 19.6158 26.2636
680 1 -1.1104 0.970247 16.8959 26.4653
681 1 -1.1104 0.936392 14.0916 26.3654
683 2 2.2208 5.19575 20.9647 25.016
684 2 2.2208 5.20777 15.4668 24.991
686 1 -1.1104 0.886012 19.466 23.4632
687 1 -1.1104 0.833294 13.9552 23.5682
688 2 2.2208 5.15909 18.2323 22.2543
676 1 -1.1104 6.62135 13.9619 26.3152
682 1 -1.1104 6.52332 19.5973 23.5273
685 1 -1.1104 6.73177 14.1288 23.4869
703 2 2.2208 -0.468348 21.0019 24.9512
648 1 -1.1104 12.1987 19.4398 26.421
362 2 2.2208 2.38908 15.4997 27.8142
348 2 2.2208 7.95073 15.3818 27.7125
678 1 -1.1104 6.45276 16.9058 26.3141
647 1 -1.1104 12.2192 14.0536 26.3362
669 1 -1.1104 12.082 16.728 23.5139
539 1 -1.1104 12.0935 13.9393 20.6802
551 1 -1.1104 9.32888 14.0286 20.7338
644 1 -1.1104 12.1635 19.5195 23.5355
699 1 -1.1104 12.0215 16.7274 26.4466
710 1 -1.1104 9.35521 14.024 26.3432
711 1 -1.1104 6.48881 19.6558 26.4151
693 1 -1.1104 6.51695 16.8091 23.6385
708 2 2.2208 8.08497 15.3405 22.0838
698 2 2.2208 10.7654 20.9477 24.894
670 2 2.2208 10.7456 15.3115 24.9448
706 1 -1.1104 9.38088 16.8242 23.5328
518 1 -1.1104 6.47424 16.7229 20.7925
700 1 -1.1104 9.45307 13.9471 23.4789
705 1 -1.1104 9.30959 16.7374 26.2979
709 1 -1.1104 9.42615 19.5499 26.2524
593 2 2.2208 10.7547 18.1882 22.172
707 2 2.2208 7.9538 21.0098 22.1909
594 1 -1.1104 12.2552 13.9707 23.5382
559 2 2.2208 10.6996 15.3556 13.6584
355 2 2.2208 2.33768 9.88248 27.7773
358 2 2.2208 10.7194 6.97126 27.6868
589 2 2.2208 8.07114 20.8121 27.6719
396 2 2.2208 13.6243 20.9359 27.8186
433 2 2.2208 10.7124 4.23393 13.6914
673 2 2.2208 13.5177 9.75903 27.6417
9102 2 2.2208 -0.567878 -1.43599 13.7061
713 2 2.2208 5.28922 23.7259 5.2559
714 2 2.2208 5.34376 29.3265 5.4479
715 1 -1.1104 1.09274 25.182 0.944546
716 1 -1.1104 0.883621 25.2597 3.77921
717 1 -1.1104 1.06775 22.2901 1.06911
718 1 -1.1104 1.19508 27.9766 1.11631
719 2 2.2208 5.26902 26.493 2.58328
720 1 -1.1104 0.802309 22.4666 3.84193
721 1 -1.1104 1.07957 28.1027 3.86498
722 1 -1.1104 3.90957 25.1795 1.07407
723 2 2.2208 2.34202 23.7476 2.42704
724 2 2.2208 2.53689 29.2556 2.43519
725 1 -1.1104 3.75986 25.1896 3.78731
726 2 2.2208 2.38465 26.5391 5.29141
727 1 -1.1104 3.81895 22.288 1.03128
728 1 -1.1104 3.8043 27.9029 0.957837
729 1 -1.1104 3.76818 22.3601 3.98828
730 1 -1.1104 3.99063 27.9049 3.80767
856 1 -1.1104 1.12877 22.4058 6.71285
861 1 -1.1104 4.00965 22.4238 6.67954
862 1 -1.1104 4.01567 27.8632 6.6319
735 1 -1.1104 6.67194 25.2187 3.93678
731 2 2.2208 -0.318619 29.4587 5.37073
1675 1 -1.1104 9.44611 47.4785 12.2353
738 1 -1.1104 6.45507 22.3668 3.87668
1266 2 2.2208 5.20144 23.7223 -0.268233
1270 2 2.2208 -0.424481 23.8029 -0.280757
855 1 -1.1104 6.60945 24.9479 6.80602
734 1 -1.1104 6.66161 25.0859 1.20756
739 1 -1.1104 6.63723 27.9638 4.05972
737 1 -1.1104 6.72394 27.8535 1.23069
736 1 -1.1104 6.60941 22.2688 0.977676
740 2 2.2208 10.9224 23.7724 5.3694
741 2 2.2208 10.8865 29.2425 5.45317
742 1 -1.1104 12.3418 25.2123 0.978936
743 1 -1.1104 12.1554 25.1679 3.82602
744 1 -1.1104 12.1839 22.487 1.16986
745 1 -1.1104 12.283 28.0305 1.10928
746 2 2.2208 10.883 26.6471 2.50684
747 1 -1.1104 12.2375 22.3956 3.93694
748 1 -1.1104 12.2244 27.918 3.98543
749 1 -1.1104 9.48756 25.1889 1.06777
750 2 2.2208 8.19214 23.7158 2.50788
751 2 2.2208 8.08762 29.4161 2.65586
752 1 -1.1104 9.41235 25.1097 3.82532
753 2 2.2208 7.99146 26.5565 5.29589
754 1 -1.1104 9.42939 22.1682 1.14266
755 1 -1.1104 9.47089 28.1058 1.08646
756 1 -1.1104 9.38326 22.2973 3.79035
757 1 -1.1104 9.45084 27.9702 4.04508
892 1 -1.1104 9.52755 27.9509 6.7314
758 2 2.2208 13.5433 23.8757 2.42031
891 1 -1.1104 9.53995 22.4114 6.60784
759 2 2.2208 13.7591 29.421 2.50065
761 2 2.2208 5.2425 34.9178 5.22509
762 1 -1.1104 1.07854 30.6284 1.10692
763 1 -1.1104 1.16599 36.4445 1.05882
765 1 -1.1104 1.12844 30.9551 3.6506
766 1 -1.1104 1.1731 36.5742 3.87779
768 1 -1.1104 1.0786 33.5801 1.0614
769 2 2.2208 5.41576 32.0099 2.61847
770 2 2.2208 5.37515 37.866 2.47267
771 1 -1.1104 1.05325 33.6953 3.84996
773 1 -1.1104 4.03926 30.7819 1.05577
774 1 -1.1104 4.00376 36.4247 1.01391
775 2 2.2208 2.44301 35.0084 2.56075
776 1 -1.1104 3.99286 30.6853 3.92209
777 1 -1.1104 3.9097 36.3422 3.8833
778 2 2.2208 2.50347 32.1605 5.24889
779 2 2.2208 2.43585 37.877 5.24398
780 1 -1.1104 3.87182 33.6575 1.21646
781 1 -1.1104 3.90585 33.3707 3.9414
915 1 -1.1104 0.953523 33.6479 6.6546
911 1 -1.1104 1.2012 30.8483 6.682
917 1 -1.1104 3.96262 30.636 6.84467
1645 1 -1.1104 3.80845 47.6524 9.35713
772 1 -1.1104 6.71448 33.538 3.9356
785 1 -1.1104 6.79829 30.7454 1.23128
764 1 -1.1104 6.75232 36.4219 1.08686
912 1 -1.1104 0.954728 36.6146 6.64008
1477 1 -1.1104 12.5788 47.6184 0.955371
787 1 -1.1104 6.68707 33.6013 1.23838
1428 2 2.2208 -0.276093 32.1423 13.7249
767 1 -1.1104 6.82539 36.5419 3.90312
786 1 -1.1104 6.72702 30.685 4.05006
788 2 2.2208 10.9221 34.8682 5.22721
789 1 -1.1104 12.3584 30.8618 0.9392
790 1 -1.1104 12.3513 36.6205 1.04805
791 1 -1.1104 12.3194 30.694 3.81467
792 1 -1.1104 12.2338 36.5119 3.86451
793 1 -1.1104 12.1905 33.7111 1.25752
794 2 2.2208 10.9054 32.1337 2.52932
795 2 2.2208 10.8554 37.9834 2.53185
796 1 -1.1104 12.4116 33.6395 3.90028
797 1 -1.1104 9.57556 30.8817 1.17832
798 1 -1.1104 9.57664 36.5048 1.10085
799 2 2.2208 8.13998 34.9732 2.54877
800 1 -1.1104 9.5462 30.8099 3.94438
801 1 -1.1104 9.63257 36.4761 3.96576
802 2 2.2208 8.06354 32.0671 5.43866
803 2 2.2208 8.06654 37.8367 5.40175
804 1 -1.1104 9.54305 33.6783 1.17721
805 1 -1.1104 9.54526 33.5055 3.97275
947 1 -1.1104 12.3043 33.5111 6.71803
949 1 -1.1104 9.38327 36.3451 6.79494