ITEM: TIMESTEP
80000
ITEM: NUMBER OF ATOMS
17820
ITEM: BOX BOUNDS pp pp pp
-3.6474183449543018e-01 2.7704741834494961e+01
-4.3457083434254482e+00 3.3242570834341711e+02
-3.7045028645754413e-01 2.7710450286458382e+01
ITEM: ATOMS id type q x y z
1 2 2.2208 5.36377 1.23204 5.1754
2 1 -1.1104 1.07696 -2.93944 1.08648
3 1 -1.1104 1.03119 2.7428 0.958577
6 1 -1.1104 1.14491 -2.96988 3.99585
7 1 -1.1104 1.12977 2.77761 3.83901
10 1 -1.1104 0.998102 -0.0664139 1.09263
12 2 2.2208 5.39361 -1.46368 2.49992
14 1 -1.1104 1.13094 -0.0965329 3.80798
16 1 -1.1104 3.93768 -2.94949 0.985031
17 1 -1.1104 3.9542 2.64851 0.977077
18 2 2.2208 2.44192 1.29823 2.41094
19 1 -1.1104 3.8032 -2.98053 3.81772
20 1 -1.1104 3.88906 2.60692 3.73968
21 2 2.2208 2.6073 -1.68297 5.2606
22 2 2.2208 2.5447 4.00795 5.31144
23 1 -1.1104 3.74743 -0.138593 0.902186
24 1 -1.1104 4.00331 -0.265472 3.88193
11 1 -1.1104 6.52815 0.107189 1.14201
4 1 -1.1104 6.36337 -3.16137 1.38217
13 2 2.2208 5.34631 4.08104 2.29449
5 1 -1.1104 6.83634 2.80557 0.825969
165 2 2.2208 13.866 18.0882 2.50743
173 1 -1.1104 4 2.55967 6.61354
145 1 -1.1104 12.247 19.3886 6.69014
172 1 -1.1104 4.01605 -3.13706 6.63165
8991 2 2.2208 -0.322197 3.97045 2.28096
9 1 -1.1104 6.77785 2.69088 3.53226
15 1 -1.1104 6.80542 -0.0999454 3.87607
322 1 -1.1104 9.61019 13.848 12.0469
8 1 -1.1104 6.71151 -2.92199 3.98065
31 2 2.2208 10.9813 1.41581 5.11258
32 1 -1.1104 12.3613 -2.88674 1.2407
33 1 -1.1104 12.4341 2.72488 1.14263
34 1 -1.1104 12.4607 -3.01746 4.11902
35 1 -1.1104 12.4334 2.87256 3.93919
36 1 -1.1104 12.2856 -0.0572832 1.07054
37 2 2.2208 10.915 -1.51464 2.42956
38 2 2.2208 10.8875 4.19148 2.43374
39 1 -1.1104 12.4132 -0.147455 3.74904
40 1 -1.1104 9.65424 -3.08228 1.11325
41 1 -1.1104 9.75198 2.82089 1.06622
42 2 2.2208 8.16671 1.32822 2.25168
43 1 -1.1104 9.51469 -3.04921 3.99051
44 1 -1.1104 9.58565 2.76423 3.86357
45 2 2.2208 8.12026 -1.35884 5.36244
46 2 2.2208 8.17789 4.1483 5.24648
47 1 -1.1104 9.58554 -0.0835301 1.10816
48 1 -1.1104 9.60782 -0.195433 3.91653
202 2 2.2208 2.57119 -4.37775 8.10758
611 2 2.2208 8.2074 4.0131 -0.506432
311 2 2.2208 -0.25918 20.8195 8.05767
210 1 -1.1104 9.46501 -0.10193 6.65688
54 2 2.2208 5.28825 6.90779 5.19834
55 2 2.2208 5.30964 12.482 5.22751
56 1 -1.1104 1.23212 8.30177 0.990911
58 1 -1.1104 1.10952 8.17871 3.811
60 1 -1.1104 1.11491 5.5111 0.967653
61 1 -1.1104 1.07915 11.2415 0.964122
66 2 2.2208 5.27269 9.68297 2.41878
67 1 -1.1104 1.10507 5.52619 3.71397
68 1 -1.1104 1.23093 10.9916 3.74775
71 1 -1.1104 3.89804 8.34659 0.909537
72 2 2.2208 2.64002 6.80772 2.4431
73 2 2.2208 2.6032 12.5892 2.4272
74 1 -1.1104 3.8632 8.2652 3.8319
75 2 2.2208 2.40957 9.56553 5.31171
76 1 -1.1104 3.92664 5.47048 0.992863
77 1 -1.1104 3.79122 11.1617 1.0034
79 1 -1.1104 3.89574 5.42 3.87956
80 1 -1.1104 3.91324 11.0804 3.79661
69 1 -1.1104 6.72112 5.40998 3.95456
59 1 -1.1104 6.85665 8.28451 3.83647
70 1 -1.1104 6.58608 11.0636 3.9129
361 2 2.2208 5.41135 17.9971 -0.237039
236 1 -1.1104 1.05438 5.32882 6.55272
238 1 -1.1104 3.94402 8.25247 6.62344
234 1 -1.1104 1.15405 8.26619 6.71659
8416 2 2.2208 2.50333 -4.27246 2.44278
671 2 2.2208 10.9588 12.4825 -0.462784
29 2 2.2208 5.27204 -4.4084 5.1636
64 1 -1.1104 6.56935 11.1569 1.04026
63 1 -1.1104 6.78528 5.66209 1.02524
57 1 -1.1104 6.70842 8.37033 0.989214
328 1 -1.1104 12.3645 13.7358 9.44413
84 2 2.2208 10.9487 6.92488 5.15682
85 2 2.2208 10.9584 12.4497 5.17456
86 1 -1.1104 12.393 8.31786 0.84266
87 1 -1.1104 12.5109 8.29416 3.74877
88 1 -1.1104 12.3608 5.50577 0.943212
89 1 -1.1104 12.2176 10.9703 0.95762
91 2 2.2208 10.9133 9.73899 2.34869
92 1 -1.1104 12.4488 5.58915 3.89031
93 1 -1.1104 12.4023 10.9045 3.71172
94 1 -1.1104 9.6008 8.20922 0.99099
95 2 2.2208 8.32881 6.9558 2.37298
96 2 2.2208 8.12 12.6022 2.46776
97 1 -1.1104 9.69257 8.2805 3.85814
98 2 2.2208 8.01956 9.68582 5.22293
99 1 -1.1104 9.58176 5.57344 0.897619
100 1 -1.1104 9.33017 11.1213 0.925315
102 1 -1.1104 9.58504 5.50559 3.73127
103 1 -1.1104 9.5722 11.0007 3.76037
358 2 2.2208 11.034 6.75129 -0.496771
314 1 -1.1104 9.47671 16.7234 9.52273
106 2 2.2208 5.32368 18.1383 5.40311
107 1 -1.1104 1.28365 13.9605 0.916335
109 1 -1.1104 1.08478 19.5191 1.06441
113 1 -1.1104 1.16206 13.876 3.93237
114 1 -1.1104 1.04159 19.4084 3.86767
116 1 -1.1104 0.958663 16.7023 1.09565
119 2 2.2208 5.34537 15.3864 2.52157
120 2 2.2208 5.18884 20.9301 2.48424
121 1 -1.1104 1.11169 16.7409 3.99038
123 1 -1.1104 4.07796 14.0477 0.987171
125 1 -1.1104 3.9603 19.5257 1.17236
127 2 2.2208 2.49617 17.9965 2.40616
128 1 -1.1104 3.88712 13.9667 3.80595
129 1 -1.1104 3.88861 19.5203 3.95641
130 2 2.2208 2.48416 15.2316 5.386
131 2 2.2208 2.49924 20.8553 5.23219
132 1 -1.1104 3.93539 16.7008 1.10228
134 1 -1.1104 3.89542 16.7795 3.96097
122 1 -1.1104 6.82146 16.6429 3.9174
115 1 -1.1104 6.82477 13.896 3.86577
30 2 2.2208 -0.339566 -4.39364 5.23154
645 2 2.2208 5.20526 6.83584 -0.532675
117 1 -1.1104 1.16039 16.449 6.77511
302 1 -1.1104 1.15556 19.5296 6.62942
126 1 -1.1104 3.98826 19.5565 6.59869
135 2 2.2208 -0.319891 15.2431 2.51954
163 1 -1.1104 9.51335 16.5511 6.67969
201 2 2.2208 -0.333384 1.20451 10.8293
110 1 -1.1104 6.66492 13.8884 1.20464
138 1 -1.1104 6.8495 19.4486 1.0334
139 1 -1.1104 6.676 19.5097 3.77029
140 1 -1.1104 6.68945 16.6943 1.04338
351 2 2.2208 2.45884 4.08484 -0.42819
154 1 -1.1104 9.44817 13.8348 6.57109
156 1 -1.1104 9.55345 19.4424 6.68676
141 2 2.2208 10.9002 17.9855 5.19981
142 1 -1.1104 12.3757 13.813 1.03152
144 1 -1.1104 12.3554 19.432 1.05753
146 1 -1.1104 12.4308 13.7323 3.90284
147 1 -1.1104 12.3139 19.3086 3.9331
148 1 -1.1104 12.4306 16.7129 1.17521
150 2 2.2208 10.9897 15.2942 2.45482
151 2 2.2208 11.0771 20.7963 2.4709
152 1 -1.1104 12.4714 16.5106 3.88525
153 1 -1.1104 9.63177 13.8862 1.11286
155 1 -1.1104 9.55907 19.4665 1.04901
157 2 2.2208 8.18032 18.1644 2.47166
158 1 -1.1104 9.56796 13.8708 3.79923
159 1 -1.1104 9.50109 19.4425 3.98517
160 2 2.2208 8.12866 15.2859 5.24602
161 2 2.2208 8.08986 20.8841 5.36734
162 1 -1.1104 9.41607 16.5855 0.977535
164 1 -1.1104 9.55639 16.708 3.8544
137 2 2.2208 -0.300825 18.0141 5.35151
143 1 -1.1104 12.2309 13.7888 6.63579
327 1 -1.1104 12.1517 19.3699 9.38002
118 1 -1.1104 6.75265 16.6716 6.72326
81 2 2.2208 -0.284541 6.70739 5.09734
170 1 -1.1104 1.16898 -0.0640101 6.70984
199 2 2.2208 -0.290701 4.07878 8.10037
200 2 2.2208 -0.309118 -1.48623 8.0334
174 1 -1.1104 4.017 -0.245017 6.64879
171 1 -1.1104 6.64481 0.0367533 6.70432
167 1 -1.1104 0.996584 2.63469 6.77526
166 1 -1.1104 1.14214 -2.88874 6.79028
175 2 2.2208 5.32565 1.18198 10.7662
176 1 -1.1104 1.02979 -2.96533 12.3782
177 1 -1.1104 1.08081 2.57657 12.18
180 1 -1.1104 1.21645 -2.9663 9.49741
181 1 -1.1104 1.13151 2.52496 9.48642
184 1 -1.1104 1.21856 -0.234303 12.1906
186 2 2.2208 5.26901 -1.59902 7.99991
187 2 2.2208 5.31633 3.97226 8.03386
188 1 -1.1104 1.1591 -0.0842679 9.45371
190 1 -1.1104 3.91801 -2.99811 12.6471
191 1 -1.1104 3.89223 2.38721 12.3075
192 2 2.2208 2.46789 1.24032 7.96916
193 1 -1.1104 4.03401 -3.1121 9.54978
194 1 -1.1104 3.88265 2.59577 9.50397
195 2 2.2208 2.62744 -1.63099 10.966
197 1 -1.1104 3.9682 -0.319979 12.3249
198 1 -1.1104 4.02925 -0.281325 9.56287
196 2 2.2208 2.59947 3.90745 10.837
183 1 -1.1104 6.70719 2.59066 9.31355
179 1 -1.1104 6.7084 2.59328 12.1672
189 1 -1.1104 6.87449 -0.14788 9.46353
182 1 -1.1104 6.75001 -2.80085 9.42606
169 1 -1.1104 6.67251 2.84202 6.55852
205 1 -1.1104 12.4441 -2.90712 6.8746
168 1 -1.1104 6.70939 -2.87431 6.65988
673 2 2.2208 13.7991 9.67698 -0.453116
178 1 -1.1104 6.69381 -2.78459 12.0775
185 1 -1.1104 6.76194 -0.121324 12.13
209 1 -1.1104 9.51124 2.70239 6.61597
208 1 -1.1104 9.53629 -2.87312 6.57576
207 1 -1.1104 12.2993 -0.148867 6.51418
206 1 -1.1104 12.4124 2.6937 6.69057
211 2 2.2208 11.0184 1.24821 10.7861
212 1 -1.1104 12.3902 -3.12287 12.2511
213 1 -1.1104 12.3643 2.62556 12.1052
214 1 -1.1104 12.4813 -2.80409 9.50525
215 1 -1.1104 12.4769 2.78476 9.29147
216 1 -1.1104 12.455 -0.302005 12.3399
217 2 2.2208 11.0351 -1.55665 7.94952
218 2 2.2208 11.006 4.12136 8.01272
219 1 -1.1104 12.4155 -0.189507 9.38131
220 1 -1.1104 9.48992 -2.98459 12.023
221 1 -1.1104 9.63897 2.60157 12.1304
222 2 2.2208 8.29901 1.24468 8.0018
223 1 -1.1104 9.57987 -2.8703 9.26895
224 1 -1.1104 9.69983 2.58245 9.36004
225 2 2.2208 8.14138 -1.56094 10.8053
227 1 -1.1104 9.6409 -0.103063 12.2272
228 1 -1.1104 9.72149 -0.132709 9.37548
226 2 2.2208 8.19037 4.08777 10.7518
339 2 2.2208 -0.426403 12.5302 10.9202
239 1 -1.1104 3.83822 5.29128 6.77569
62 1 -1.1104 1.09865 10.9429 6.5908
203 2 2.2208 -0.338613 6.81248 10.9516
204 2 2.2208 -0.453542 9.68639 8.03425
78 1 -1.1104 3.86641 11.063 6.63694
235 1 -1.1104 6.83336 8.29758 6.6047
237 1 -1.1104 6.76465 5.63972 6.64074
240 2 2.2208 5.28065 6.77506 10.8295
241 2 2.2208 5.318 12.2836 10.8558
242 1 -1.1104 0.961775 8.21391 12.2274
244 1 -1.1104 0.965706 8.24524 9.36786
246 1 -1.1104 1.04171 5.39856 12.208
247 1 -1.1104 1.16801 11.1071 12.2967
250 2 2.2208 5.40603 9.61354 8.04671
251 1 -1.1104 1.10058 5.4664 9.48103
252 1 -1.1104 0.98073 11.186 9.52573
255 1 -1.1104 3.85392 8.19277 12.3262
256 2 2.2208 2.39107 6.73976 8.02983
257 2 2.2208 2.52893 12.4062 8.05979
258 1 -1.1104 3.84106 8.23185 9.51574
259 2 2.2208 2.40602 9.7059 10.7968
260 1 -1.1104 3.7557 5.32793 12.2399
261 1 -1.1104 3.99746 10.9973 12.3051
262 1 -1.1104 3.96705 5.29223 9.44055
263 1 -1.1104 3.83382 11.0143 9.43823
243 1 -1.1104 6.60914 8.27628 12.0775
65 1 -1.1104 6.70623 11.2037 6.63011
101 1 -1.1104 9.55436 11.0948 6.5408
90 1 -1.1104 12.2959 11.0222 6.44971
254 1 -1.1104 6.6443 11.0113 9.40026
248 1 -1.1104 6.67753 5.47593 12.1542
249 1 -1.1104 6.84574 10.8797 12.186
245 1 -1.1104 6.73741 8.22301 9.35465
253 1 -1.1104 6.76918 5.4696 9.39824
267 1 -1.1104 9.65286 8.26197 6.50852
265 1 -1.1104 12.3593 8.29092 6.53728
269 1 -1.1104 9.49596 5.46756 6.65536
266 1 -1.1104 12.3229 5.56301 6.63905
264 1 -1.1104 9.32395 10.9976 9.26624
268 1 -1.1104 9.50092 5.44046 9.39711
270 1 -1.1104 9.64827 11.0302 12.2019
271 1 -1.1104 9.47934 5.36043 12.1497
272 2 2.2208 8.13408 9.60539 10.7022
273 1 -1.1104 9.60346 8.16938 9.43148
274 2 2.2208 8.04256 12.465 7.96201
275 2 2.2208 8.27429 6.88004 8.01068
276 2 2.2208 10.976 6.86141 10.8231
277 2 2.2208 10.8767 12.4033 10.8469
278 1 -1.1104 12.4384 8.29255 12.0902
279 1 -1.1104 12.3162 8.29957 9.37649
280 1 -1.1104 12.4267 5.52324 12.2345
281 1 -1.1104 12.5296 11.0698 12.2734
282 2 2.2208 10.9731 9.63192 7.9194
283 1 -1.1104 12.3014 5.43818 9.45314
284 1 -1.1104 12.34 11.0609 9.44195
285 1 -1.1104 9.49488 8.2798 12.1801
53 2 2.2208 10.7342 18.021 10.8445
133 1 -1.1104 3.90502 16.7645 6.55111
124 1 -1.1104 3.93773 13.9007 6.7313
112 1 -1.1104 6.72092 19.5413 6.61471
108 1 -1.1104 1.19208 13.6745 6.64273
290 1 -1.1104 6.77269 13.7402 9.48499
297 1 -1.1104 6.55332 13.7094 12.2554
289 1 -1.1104 6.81556 16.6289 9.51406
306 1 -1.1104 6.64908 16.5912 12.3477
305 1 -1.1104 3.88766 13.6984 9.65797
304 1 -1.1104 3.97096 16.6343 9.33547
309 2 2.2208 2.43247 20.9575 10.9437
308 1 -1.1104 3.83367 16.5973 12.3419
307 1 -1.1104 1.15991 16.7218 12.3623
310 2 2.2208 2.46714 15.2201 10.9143
286 1 -1.1104 3.85578 19.4257 12.2847
287 1 -1.1104 3.75011 13.7612 12.378
291 1 -1.1104 1.23125 19.5177 9.35366
292 1 -1.1104 1.12087 16.6239 9.50322
293 2 2.2208 5.25853 20.8176 8.16027
294 1 -1.1104 1.08442 13.96 9.52733
295 2 2.2208 5.37723 15.1392 8.0485
298 1 -1.1104 0.961 19.5421 12.1187
299 1 -1.1104 0.983548 13.77 12.2295
300 2 2.2208 5.24979 17.9057 10.8434
301 1 -1.1104 3.87089 19.3253 9.42095
303 2 2.2208 2.55893 17.9881 8.07724
296 1 -1.1104 6.52441 19.3265 12.2988
313 2 2.2208 -0.414432 15.1622 8.15216
149 1 -1.1104 12.3125 16.5847 6.5592
316 2 2.2208 7.95809 20.6221 10.8451
321 1 -1.1104 9.2236 19.4806 12.3568
320 2 2.2208 8.16391 18.0858 7.97051
326 1 -1.1104 12.3174 16.5921 12.2599
329 1 -1.1104 12.2767 19.3172 12.2579
111 1 -1.1104 6.67881 13.9349 6.64699
319 1 -1.1104 9.52471 13.8259 9.5023
323 1 -1.1104 12.2341 16.7155 9.31215
317 2 2.2208 8.11364 15.1202 10.8786
288 1 -1.1104 6.65326 19.3856 9.41946
315 1 -1.1104 9.52106 16.6721 12.2883
324 2 2.2208 10.8576 20.8185 8.17504
330 1 -1.1104 12.4213 13.8856 12.1787
318 1 -1.1104 9.45967 19.3032 9.36361
325 2 2.2208 10.9328 15.1547 8.00092
26 2 2.2208 -0.316336 1.36406 5.22623
534 2 2.2208 8.05619 18.051 13.7454
9082 2 2.2208 -0.366253 -1.55728 2.45302
334 2 2.2208 13.8433 15.1139 5.29124
343 2 2.2208 -0.260669 9.65626 13.5564
341 2 2.2208 2.48614 1.09591 13.6338
352 2 2.2208 -0.28907 3.93518 13.5994
346 2 2.2208 2.45421 6.7692 13.5925
136 2 2.2208 -0.243153 20.8465 2.44666
340 2 2.2208 5.4204 -1.42442 13.6019
8513 2 2.2208 -0.404478 -4.46278 -0.344818
400 2 2.2208 5.32892 4.04151 13.6804
9086 2 2.2208 -0.246806 1.23686 -0.328128
532 2 2.2208 5.14209 20.7322 13.7679
432 2 2.2208 11.0162 -1.69034 13.6511
345 2 2.2208 5.30065 9.53019 13.6586
471 2 2.2208 10.9986 9.68716 13.6132
496 2 2.2208 8.10177 6.82868 13.5241
470 2 2.2208 8.1098 12.4589 13.5542
497 2 2.2208 5.14722 15.2432 13.7405
354 2 2.2208 -0.454249 15.1822 13.734
584 2 2.2208 10.8618 18.0435 -0.366185
362 2 2.2208 2.6982 15.1902 -0.488655
356 2 2.2208 5.24201 12.4713 -0.458109
559 2 2.2208 10.9562 15.2058 13.6211
349 2 2.2208 5.23427 1.18049 -0.354512
364 2 2.2208 5.36895 1.10133 16.4529
365 1 -1.1104 0.849404 2.47128 17.8331
368 1 -1.1104 1.18152 -3.06072 15.3099
369 1 -1.1104 1.10993 2.53649 15.0505
375 1 -1.1104 0.956796 -0.450375 17.8258
378 1 -1.1104 1.06304 -0.2632 15.0232
382 1 -1.1104 3.86221 2.60309 17.8309
383 2 2.2208 2.37072 1.29966 19.1556
384 1 -1.1104 4.04985 -2.95994 15.5934
385 1 -1.1104 3.94534 2.49711 15.157
387 2 2.2208 2.4684 -1.50188 16.4316
388 2 2.2208 2.54755 3.99469 16.3354
389 1 -1.1104 3.62184 -0.119258 17.8227
390 1 -1.1104 3.9844 -0.275465 15.0065
377 2 2.2208 5.32009 3.81682 19.1272
380 1 -1.1104 6.80168 -0.161006 15.0514
374 1 -1.1104 6.69493 2.71516 20.6019
8478 2 2.2208 11.0151 -4.33857 22.1561
376 1 -1.1104 6.90494 -0.299621 17.8429
467 2 2.2208 -0.282152 9.60522 19.3098
379 1 -1.1104 1.20852 -2.9491 20.3812
392 2 2.2208 13.7964 15.297 22.0867
9102 2 2.2208 -0.279675 -1.63703 13.6142
588 2 2.2208 13.6812 4.03372 21.9971
367 1 -1.1104 6.70076 2.53579 17.7073
373 1 -1.1104 6.8027 2.69779 14.9805
366 1 -1.1104 6.90958 -3.19582 17.7208
371 1 -1.1104 6.87367 -2.88413 14.846
401 2 2.2208 11.013 1.24297 16.4893
402 1 -1.1104 12.4096 -2.96285 17.8597
403 1 -1.1104 12.4785 2.70739 17.8113
404 1 -1.1104 12.3275 -2.99725 15.1353
406 1 -1.1104 12.3665 2.55363 14.9419
408 1 -1.1104 12.2506 -0.0626537 17.8328
409 2 2.2208 10.9892 -1.69329 19.2829
410 2 2.2208 10.9779 4.01381 19.2092
411 1 -1.1104 12.3591 -0.277212 15.171
413 1 -1.1104 9.65278 -3.03431 17.8103
414 1 -1.1104 9.57344 2.62737 17.9129
415 2 2.2208 8.14676 1.12542 19.3709
416 1 -1.1104 9.58072 -2.93509 14.8515
418 1 -1.1104 9.4697 2.61269 15.1035
420 2 2.2208 8.18378 -1.55988 16.5854
421 2 2.2208 8.10924 3.89637 16.3871
422 1 -1.1104 9.57869 -0.214707 17.8473
423 1 -1.1104 9.49479 0.00439309 15.0429
412 1 -1.1104 12.4239 -0.127803 20.5085
518 1 -1.1104 6.73594 16.6088 20.6464
431 2 2.2208 8.12373 1.24525 13.4582
405 1 -1.1104 12.3035 -3.01666 20.5627
433 2 2.2208 11.0137 3.99436 13.604
424 1 -1.1104 9.6438 -0.143439 20.6924
434 2 2.2208 5.33654 6.79537 16.3679
435 2 2.2208 5.233 12.3504 16.5563
436 1 -1.1104 1.00058 8.18994 17.9504
438 1 -1.1104 1.09015 8.145 15.1307
442 1 -1.1104 1.14871 5.2497 17.9525
443 1 -1.1104 0.99695 11.1391 17.794
446 2 2.2208 5.35495 9.62279 19.2604
447 1 -1.1104 1.08341 5.42652 15.0137
449 1 -1.1104 1.07973 11.0164 15.0395
455 1 -1.1104 3.87095 8.17154 17.7979
456 2 2.2208 2.47775 6.85359 19.2826
457 2 2.2208 2.47366 12.3987 19.2499
458 1 -1.1104 3.94144 8.13887 15.0088
460 2 2.2208 2.46178 9.70505 16.5511
461 1 -1.1104 3.78311 5.35393 17.7826
462 1 -1.1104 3.97863 11.0566 17.9537
463 1 -1.1104 3.83893 5.22602 14.9883
465 1 -1.1104 3.86626 10.9431 15.1976
9177 2 2.2208 -0.378534 4.06984 24.9517
448 1 -1.1104 1.19575 5.59844 20.7185
466 1 -1.1104 4.03363 10.9856 20.7254
450 1 -1.1104 1.24533 10.9513 20.6732
353 2 2.2208 -0.430858 20.8889 13.672
468 2 2.2208 -0.403117 12.3487 16.4285
707 2 2.2208 8.036 20.81 22.1505
9176 2 2.2208 -0.318965 1.28642 22.1232
393 2 2.2208 -0.31179 6.89977 21.9773
453 1 -1.1104 6.6032 10.9541 14.9323
444 1 -1.1104 6.44819 5.35873 17.8396
437 1 -1.1104 6.69333 8.17108 17.7592
440 1 -1.1104 6.75243 8.15662 14.9555
445 1 -1.1104 6.664 11.0629 17.8746
451 1 -1.1104 6.84858 5.44213 14.9077
613 2 2.2208 -0.42236 15.2058 19.2534
472 2 2.2208 10.8831 6.91849 16.305
473 2 2.2208 10.9746 12.4095 16.4569
474 1 -1.1104 12.4832 8.37184 17.761
475 1 -1.1104 12.4754 8.34282 14.8973
477 1 -1.1104 12.183 5.52003 17.8962
478 1 -1.1104 12.2739 11.123 17.8037
479 2 2.2208 11.0285 9.5948 19.186
480 1 -1.1104 12.4337 5.52965 15.0716
482 1 -1.1104 12.2982 11.0858 15.0751
484 1 -1.1104 9.5984 8.2622 17.6556
485 2 2.2208 8.11456 6.84482 19.1814
486 2 2.2208 8.23869 12.5136 19.223
487 1 -1.1104 9.60513 8.38926 14.8175
489 2 2.2208 8.11555 9.63005 16.4468
490 1 -1.1104 9.27371 5.51282 17.6809
491 1 -1.1104 9.50539 11.0153 17.8112
492 1 -1.1104 9.60175 5.40604 14.9349
494 1 -1.1104 9.6469 11.2415 15.0091
483 1 -1.1104 12.3834 10.9854 20.6852
425 2 2.2208 13.6799 20.6743 22.2127
452 1 -1.1104 6.86835 5.45792 20.5764
481 1 -1.1104 12.2959 5.39245 20.6772
585 2 2.2208 13.8263 9.68403 16.4469
9140 2 2.2208 -0.269073 -1.59183 24.9905
704 2 2.2208 -0.356312 17.9955 22.1666
498 2 2.2208 5.27018 17.934 16.5267
499 1 -1.1104 1.00371 13.9025 17.9108
500 1 -1.1104 1.08525 19.5632 17.8445
503 1 -1.1104 0.903436 13.8366 15.0831
505 1 -1.1104 1.09539 19.4143 15.007
511 1 -1.1104 0.971229 16.8129 17.9065
513 2 2.2208 5.28887 15.226 19.2859
514 2 2.2208 5.11486 20.7625 19.2803
515 1 -1.1104 1.02737 16.6524 15.0918
519 1 -1.1104 3.8167 13.7445 17.7205
520 1 -1.1104 3.83018 19.2878 17.9596
521 2 2.2208 2.41108 18.1063 19.347
522 1 -1.1104 3.67026 13.8909 15.0504
524 1 -1.1104 3.87567 19.5104 15.2141
526 2 2.2208 2.41917 15.232 16.4529
527 2 2.2208 2.41616 20.8337 16.5451
528 1 -1.1104 3.77734 16.4425 17.9162
529 1 -1.1104 3.76156 16.6069 15.1276
501 1 -1.1104 6.80525 13.8668 17.9413
560 2 2.2208 10.8616 20.7913 13.6966
512 1 -1.1104 6.53469 16.5359 17.8726
509 1 -1.1104 6.65237 19.4064 15.1426
672 2 2.2208 13.8623 12.386 24.744
701 2 2.2208 -0.310318 15.4116 24.8554
516 1 -1.1104 0.938867 16.4899 20.8165
504 1 -1.1104 1.07117 13.8818 20.5858
551 1 -1.1104 9.55866 13.8944 20.6495
517 1 -1.1104 6.64296 16.5072 15.0777
502 1 -1.1104 6.59376 19.3521 18.0605
507 1 -1.1104 6.58562 13.8274 15.0539
558 1 -1.1104 9.4147 16.6701 20.6445
535 2 2.2208 10.9087 18.1364 16.5312
536 1 -1.1104 12.2825 14.0402 17.828
537 1 -1.1104 12.3327 19.4613 18.0274
538 1 -1.1104 12.3031 13.7262 14.9911
540 1 -1.1104 12.3756 19.4098 15.2112
542 1 -1.1104 12.2393 16.762 17.8241
543 2 2.2208 10.8188 15.3805 19.3389
544 2 2.2208 10.9063 20.8112 19.3904
545 1 -1.1104 12.399 16.6378 14.9942
547 1 -1.1104 9.55918 13.7843 17.7288
548 1 -1.1104 9.4457 19.345 17.9419
549 2 2.2208 7.95235 18.032 19.3454
550 1 -1.1104 9.31777 13.97 14.9117
552 1 -1.1104 9.56093 19.5706 15.2165
554 2 2.2208 8.02269 15.1415 16.3611
555 2 2.2208 8.01259 20.7916 16.5802
556 1 -1.1104 9.3442 16.6685 17.8808
557 1 -1.1104 9.60479 16.6624 15.2136
541 1 -1.1104 12.1052 19.4502 20.8669
539 1 -1.1104 12.4603 14.0368 20.5543
553 1 -1.1104 9.35094 19.4438 20.7447
546 1 -1.1104 12.2538 16.7862 20.7403
648 1 -1.1104 12.2574 19.3367 26.244
386 1 -1.1104 3.93403 2.18164 20.5434
644 1 -1.1104 12.2346 19.3723 23.5139
706 1 -1.1104 9.43491 16.672 23.4399
370 1 -1.1104 1.22288 2.62055 20.6655
391 1 -1.1104 1.28284 -0.0613423 20.7497
561 2 2.2208 5.44971 1.24066 22.0582
562 1 -1.1104 0.979609 -2.95879 23.4177
563 1 -1.1104 1.21626 2.58313 23.4674
566 1 -1.1104 0.930693 -3.05362 26.4236
567 1 -1.1104 1.00103 2.57689 26.2764
569 1 -1.1104 1.22716 -0.257618 23.5729
571 2 2.2208 5.30384 -1.47952 24.9069
573 1 -1.1104 1.12848 -0.261036 26.334
574 1 -1.1104 3.6125 -3.27178 23.3188
575 1 -1.1104 4.05815 2.49064 23.2822
576 2 2.2208 2.58689 1.17788 24.8689
577 1 -1.1104 3.62879 -2.76446 26.1994
578 1 -1.1104 3.83491 2.59633 26.0692
579 2 2.2208 2.30998 -1.67717 22.2057
581 1 -1.1104 3.98882 -0.263638 22.8763
582 1 -1.1104 3.99163 -0.149997 26.1509
572 2 2.2208 5.34166 3.94506 24.8537
580 2 2.2208 2.57593 3.99273 22.0413
570 1 -1.1104 6.75564 -0.143316 23.6058
372 1 -1.1104 6.33055 -2.89256 23.0228
8769 1 -1.1104 6.63196 -3.26334 25.8416
609 1 -1.1104 6.7195 -0.146945 26.2572
565 1 -1.1104 6.79361 2.65061 23.4053
698 2 2.2208 10.7334 20.9032 24.9172
350 2 2.2208 2.51067 -1.55567 27.8178
407 1 -1.1104 12.3344 2.70614 20.6541
381 1 -1.1104 6.90004 -0.174061 20.8162
417 1 -1.1104 9.2635 -3.04734 20.7083
419 1 -1.1104 9.49873 2.74264 20.668
710 1 -1.1104 9.3982 13.7636 26.4172
568 1 -1.1104 6.62736 2.5669 26.2454
693 1 -1.1104 6.75303 16.5397 23.4316
564 1 -1.1104 9.32737 -3.02829 23.53
595 2 2.2208 10.9941 1.27745 22.0988
596 1 -1.1104 12.387 -3.02668 23.2667
597 1 -1.1104 12.3632 2.85992 23.6152
598 1 -1.1104 12.427 -3.18337 26.4997
599 1 -1.1104 12.3907 2.58297 26.4382
600 1 -1.1104 12.6488 0.138417 23.3504
602 1 -1.1104 12.2745 -0.0709992 26.3986
603 1 -1.1104 9.61532 2.75518 23.4998
604 2 2.2208 8.08887 1.2882 24.9359
605 1 -1.1104 9.63353 2.54013 26.3761
606 2 2.2208 8.20907 -1.51271 22.269
608 1 -1.1104 9.52455 0.00924763 23.6614
601 2 2.2208 10.9312 4.02526 24.9256
607 2 2.2208 8.16408 3.99092 21.9524
464 1 -1.1104 4.02476 5.29498 20.616
711 1 -1.1104 6.8214 19.4612 26.2699
649 2 2.2208 -0.113864 9.7082 24.8822
650 2 2.2208 -0.358346 12.5206 21.992
441 1 -1.1104 6.73476 8.22555 20.554
459 1 -1.1104 4.02861 8.09905 20.524
439 1 -1.1104 1.09317 8.3123 20.6388
620 2 2.2208 5.40515 6.76108 21.9929
621 2 2.2208 5.2734 12.3466 21.9581
622 1 -1.1104 1.22356 8.26731 23.4566
624 1 -1.1104 1.0852 8.18757 26.2693
626 1 -1.1104 1.17471 5.36206 23.4345
627 1 -1.1104 1.13121 10.9776 23.4228
630 2 2.2208 5.2685 9.49845 24.868
631 1 -1.1104 1.13576 5.40077 26.3214
632 1 -1.1104 1.12076 11.2254 26.2785
635 1 -1.1104 3.94329 8.29538 23.3942
636 2 2.2208 2.49034 6.81823 24.7992
637 2 2.2208 2.43926 12.4727 24.7407
638 1 -1.1104 3.81141 8.24381 26.1923
639 2 2.2208 2.56327 9.59376 22.0342
640 1 -1.1104 3.93222 5.44662 23.4167
641 1 -1.1104 4.05048 10.864 23.4319
642 1 -1.1104 3.95375 5.30718 26.2979
643 1 -1.1104 3.95636 11.12 26.1204
628 1 -1.1104 6.77996 5.4282 23.448
670 2 2.2208 10.8723 15.1447 24.9268
699 1 -1.1104 12.4573 16.6918 26.2755
669 1 -1.1104 12.372 16.4746 23.4035
587 2 2.2208 -0.402222 3.9261 19.23
495 1 -1.1104 9.78422 11.217 20.6422
488 1 -1.1104 9.60037 8.3667 20.4912
454 1 -1.1104 6.89135 11.0464 20.5761
623 1 -1.1104 6.66831 8.20836 23.3372
625 1 -1.1104 6.78136 8.11815 26.234
633 1 -1.1104 6.76533 5.27054 26.1032
634 1 -1.1104 6.82792 10.8882 26.3606
629 1 -1.1104 6.81706 10.9863 23.5513
476 1 -1.1104 12.4223 8.24446 20.4144
493 1 -1.1104 9.55524 5.45826 20.6003
651 1 -1.1104 9.69109 10.9874 26.2197
652 1 -1.1104 9.55121 5.41344 26.2326
653 1 -1.1104 9.57007 10.9131 23.4661
654 1 -1.1104 9.49127 5.42532 23.4345
655 2 2.2208 8.24697 9.67119 21.9356
656 1 -1.1104 9.51764 8.34178 26.2329
657 2 2.2208 8.06105 12.2831 24.9657
658 2 2.2208 8.05328 6.7643 24.7317
659 2 2.2208 10.8057 6.73135 22.0026
660 2 2.2208 11.0079 12.5424 21.9736
661 1 -1.1104 12.3768 8.13552 23.412
662 1 -1.1104 12.2828 8.23018 26.0915
663 1 -1.1104 12.1673 5.44496 23.4806
664 1 -1.1104 12.3416 10.9472 23.4439
665 2 2.2208 10.9946 9.59289 24.9737
666 1 -1.1104 12.3906 5.29814 26.2531
667 1 -1.1104 12.4399 11.0415 26.1731
668 1 -1.1104 9.46016 8.05872 23.3834
510 1 -1.1104 6.63983 19.2915 20.7104
685 1 -1.1104 6.85558 13.7131 23.4805
594 1 -1.1104 12.3629 13.6871 23.51
506 1 -1.1104 1.08666 19.4855 20.7164
530 1 -1.1104 3.93147 16.5839 20.6767
523 1 -1.1104 3.80814 13.7246 20.6206
525 1 -1.1104 3.86039 19.2739 20.7865
682 1 -1.1104 6.60821 19.3266 23.4972
696 2 2.2208 2.49266 20.873 22.1436
695 1 -1.1104 3.97822 16.5707 23.5192
694 1 -1.1104 1.15822 16.5989 23.5148
692 1 -1.1104 3.9211 13.8365 26.1182
691 1 -1.1104 4.00397 16.6115 26.4167
690 2 2.2208 2.60968 17.9344 24.9073
689 1 -1.1104 4.11459 19.5161 26.3649
697 2 2.2208 2.44087 15.2342 21.974
675 1 -1.1104 3.75378 19.4775 23.6128
677 1 -1.1104 4.06228 13.7313 23.446
679 1 -1.1104 1.3156 19.3415 26.4886
680 1 -1.1104 1.28183 16.647 26.4152
681 1 -1.1104 1.16493 13.8864 26.2424
683 2 2.2208 5.39131 20.7122 24.8546
684 2 2.2208 5.37759 15.2223 24.8955
686 1 -1.1104 1.13294 19.3621 23.4516
687 1 -1.1104 1.2174 13.7597 23.3653
688 2 2.2208 5.26362 17.9384 22.0676
678 1 -1.1104 6.7381 16.8184 26.2723
676 1 -1.1104 6.65113 14.0188 26.2974
705 1 -1.1104 9.58981 16.6524 26.2591
708 2 2.2208 8.14846 15.1883 22.0691
709 1 -1.1104 9.49155 19.5038 26.4002
647 1 -1.1104 12.3684 13.8859 26.3206
712 2 2.2208 8.05891 18.0906 24.8614
700 1 -1.1104 9.61114 13.8132 23.494
702 1 -1.1104 9.44134 19.4066 23.5553
593 2 2.2208 10.7254 18.006 22.1207
508 1 -1.1104 6.72122 13.84 20.5542
610 2 2.2208 11.0092 1.32547 27.8206
355 2 2.2208 2.36466 9.6637 27.5151
359 2 2.2208 8.15361 9.5663 27.7228
9083 2 2.2208 -0.247511 6.80125 27.762
357 2 2.2208 -0.310886 12.6802 27.7833
348 2 2.2208 8.04135 15.211 27.7687
360 2 2.2208 2.50667 20.8591 27.7025
589 2 2.2208 8.13145 20.8254 27.7658
344 2 2.2208 2.55194 12.3947 13.6832
347 2 2.2208 2.57972 18.0081 13.7633
713 2 2.2208 5.25197 23.6631 5.29765
714 2 2.2208 5.25477 29.2163 5.4328
715 1 -1.1104 1.12157 25.0609 1.00741
716 1 -1.1104 1.11798 25.0146 3.79257
717 1 -1.1104 1.12152 22.3008 1.20372
718 1 -1.1104 1.12664 27.7425 1.05992
719 2 2.2208 5.29613 26.4436 2.51395
720 1 -1.1104 1.09208 22.3044 3.95259
721 1 -1.1104 1.12709 27.8515 3.80863
722 1 -1.1104 3.93173 24.9387 0.903141
723 2 2.2208 2.5158 23.8208 2.38318
724 2 2.2208 2.54362 29.1957 2.46868
725 1 -1.1104 3.97733 25.0967 3.91857
726 2 2.2208 2.41658 26.5294 5.19122
727 1 -1.1104 3.78533 22.2525 0.928913
728 1 -1.1104 3.96001 27.7668 1.09778
729 1 -1.1104 3.83934 22.3649 3.86807
730 1 -1.1104 3.88476 27.7256 3.96881
735 1 -1.1104 6.6799 25.0578 4.09737
862 1 -1.1104 3.76698 28.0833 6.71721
1442 1 -1.1104 6.74987 47.6259 3.87664
859 1 -1.1104 6.75631 27.8628 6.78759
860 1 -1.1104 3.9249 25.2307 6.62854
857 1 -1.1104 1.10848 27.9539 6.71955
856 1 -1.1104 1.0091 22.3163 6.72042
739 1 -1.1104 6.69222 27.8427 4.13533
737 1 -1.1104 6.79896 27.768 1.26112
738 1 -1.1104 6.73616 22.2529 3.83739
855 1 -1.1104 6.62378 24.9978 6.71131
734 1 -1.1104 6.74166 25.1036 1.25588
736 1 -1.1104 6.58781 22.188 1.03074
740 2 2.2208 10.8811 23.6379 5.22349
741 2 2.2208 10.9741 29.3137 5.2575
742 1 -1.1104 12.3155 25.1706 1.23801
743 1 -1.1104 12.3227 24.9804 3.91579
744 1 -1.1104 12.5154 22.2645 1.09569
745 1 -1.1104 12.4295 27.9075 1.04938
746 2 2.2208 10.8913 26.4561 2.55152
747 1 -1.1104 12.3696 22.1015 4.01174
748 1 -1.1104 12.3078 28.0088 3.91513
749 1 -1.1104 9.49722 25.0996 1.08204
750 2 2.2208 8.06983 23.6313 2.54042
751 2 2.2208 8.10321 29.2902 2.57295
752 1 -1.1104 9.36002 25.0837 3.74439
753 2 2.2208 8.07421 26.3635 5.38065
754 1 -1.1104 9.53178 22.2946 1.11328
755 1 -1.1104 9.72528 27.8686 1.13988
756 1 -1.1104 9.54277 22.2109 3.88672
757 1 -1.1104 9.5228 27.7123 3.94271
832 2 2.2208 -0.204326 46.1108 5.29824
891 1 -1.1104 9.57991 22.2924 6.63292
858 1 -1.1104 6.86999 22.3198 6.83848
887 1 -1.1104 12.2407 25.1409 6.64108
889 1 -1.1104 12.4514 27.8261 6.72649
890 1 -1.1104 9.40356 25.0967 6.78198
761 2 2.2208 5.46274 34.7999 5.34654
762 1 -1.1104 1.22486 30.5602 1.04452
763 1 -1.1104 1.19504 36.2141 1.05256
765 1 -1.1104 1.08433 30.5518 3.78622
766 1 -1.1104 1.03788 36.2051 3.8237
768 1 -1.1104 1.06122 33.3981 0.995189
769 2 2.2208 5.31285 32.181 2.42178
770 2 2.2208 5.39606 37.7121 2.53066
771 1 -1.1104 1.12636 33.4497 3.71786
773 1 -1.1104 3.92657 30.5534 1.02843
774 1 -1.1104 3.82665 36.2581 1.00675
775 2 2.2208 2.56866 34.9625 2.4379
776 1 -1.1104 3.925 30.7637 3.77371
777 1 -1.1104 4.10005 36.3335 3.97202
778 2 2.2208 2.49046 32.0841 5.0442
779 2 2.2208 2.51226 37.604 5.24302
780 1 -1.1104 3.97969 33.5069 1.06607
781 1 -1.1104 3.87869 33.4771 3.9169
772 1 -1.1104 6.84187 33.6464 3.80804
767 1 -1.1104 6.84595 36.2236 3.94893
918 1 -1.1104 3.94739 36.2993 6.68367
919 1 -1.1104 3.79731 33.499 6.81005
912 1 -1.1104 1.02726 36.353 6.69888
911 1 -1.1104 1.10829 30.8182 6.61212
917 1 -1.1104 3.79979 30.7315 6.47493
1046 1 -1.1104 1.15373 47.2815 12.2369
1667 1 -1.1104 12.3431 47.6438 9.43998
787 1 -1.1104 6.80133 33.448 0.903667
786 1 -1.1104 6.82893 30.7307 3.93603
785 1 -1.1104 6.82147 30.6511 1.10247
764 1 -1.1104 6.63144 36.3023 1.0178
913 1 -1.1104 6.72359 30.7055 6.74475
1025 1 -1.1104 12.4561 41.8947 9.34697
788 2 2.2208 10.9568 34.9356 5.38096
789 1 -1.1104 12.299 30.7575 1.01042
790 1 -1.1104 12.4055 36.1503 1.10582
791 1 -1.1104 12.3414 30.6768 3.91586
792 1 -1.1104 12.5034 36.546 3.77992
793 1 -1.1104 12.3512 33.5001 1.15097
794 2 2.2208 11.0024 32.2077 2.49446
795 2 2.2208 11.0572 37.6299 2.29035
796 1 -1.1104 12.4809 33.5774 3.97063
797 1 -1.1104 9.642 30.535 1.0185
798 1 -1.1104 9.60452 36.1795 1.01768
799 2 2.2208 8.20634 34.8965 2.50084
800 1 -1.1104 9.64948 30.5337 3.80864
801 1 -1.1104 9.67797 36.0837 3.75612
802 2 2.2208 8.19958 32.0551 5.4086
803 2 2.2208 8.34918 37.6663 5.21435
804 1 -1.1104 9.54457 33.3524 1.22989
805 1 -1.1104 9.65943 33.3847 4.03681
947 1 -1.1104 12.2388 33.4348 6.58823
945 1 -1.1104 12.2916 30.6416 6.80531
948 1 -1.1104 9.54778 30.5886 6.64316
1410 2 2.2208 10.9138 40.4439 -0.437492
1036 2 2.2208 -0.156408 29.4012 10.8917
1414 2 2.2208 13.8174 29.2609 13.6937
827 1 -1.1104 3.85272 39.0662 1.04159
807 2 2.2208 5.28305 40.5956 5.41816
808 2 2.2208 5.50124 46.0865 5.25069
809 1 -1.1104 1.08477 41.8386 0.996453
811 1 -1.1104 1.18434 41.7417 3.85947
813 1 -1.1104 1.21261 39.1973 1.11658
814 1 -1.1104 1.24996 44.6423 1.18687
817 2 2.2208 5.26044 43.3626 2.52267
818 1 -1.1104 1.14154 38.9869 3.86709