ITEM: TIMESTEP
60000
ITEM: NUMBER OF ATOMS
17820
ITEM: BOX BOUNDS pp pp pp
-3.6667778273319307e-01 2.7706677782732601e+01
-4.3393148237204366e+00 3.3241931482370967e+02
-3.6254763981003107e-01 2.7702547639810874e+01
ITEM: ATOMS id type q x y z
1 2 2.2208 5.3279 1.21852 5.28287
2 1 -1.1104 0.845161 -2.95191 0.944425
3 1 -1.1104 0.925573 2.86876 0.98996
6 1 -1.1104 1.03546 -2.88312 3.80801
7 1 -1.1104 0.898837 2.74174 4.01315
10 1 -1.1104 0.924619 0.0356759 1.1568
12 2 2.2208 5.25223 -1.5036 2.39741
13 2 2.2208 5.06386 4.22662 2.56116
14 1 -1.1104 1.11462 -0.0704976 3.97802
16 1 -1.1104 3.80499 -2.97073 0.875993
17 1 -1.1104 3.74033 2.795 1.04646
18 2 2.2208 2.39452 1.37272 2.47307
19 1 -1.1104 3.83985 -2.91891 3.89674
20 1 -1.1104 3.68578 2.66599 3.9304
21 2 2.2208 2.42909 -1.52565 5.2836
22 2 2.2208 2.50253 4.07276 5.36066
23 1 -1.1104 3.79232 -0.176923 0.940824
24 1 -1.1104 3.82852 -0.0288101 3.65042
173 1 -1.1104 3.77028 2.74426 6.71492
170 1 -1.1104 1.09216 -0.269268 6.71635
166 1 -1.1104 0.970153 -3.06791 6.58695
172 1 -1.1104 3.78083 -2.98312 6.80544
4 1 -1.1104 6.57444 -2.98115 1.08863
15 1 -1.1104 6.62096 -0.0917752 3.8053
9082 2 2.2208 -0.277555 -1.3522 2.43935
11 1 -1.1104 6.61482 0.166532 1.16084
168 1 -1.1104 6.55816 -3.01007 6.66705
5 1 -1.1104 6.46963 2.87684 1.26604
8 1 -1.1104 6.66917 -2.84394 3.86666
8416 2 2.2208 2.37992 -4.24065 2.24495
349 2 2.2208 5.20721 1.34563 -0.308503
8425 2 2.2208 5.44664 -4.27985 -0.360086
9 1 -1.1104 6.60247 2.90505 3.89721
31 2 2.2208 10.8008 1.40427 5.19694
32 1 -1.1104 12.3552 -2.83292 1.09966
33 1 -1.1104 12.3161 2.89654 1.1425
34 1 -1.1104 12.1281 -3.05361 3.94998
35 1 -1.1104 12.196 2.89076 3.79526
36 1 -1.1104 12.3485 0.0516929 1.02432
37 2 2.2208 10.7025 -1.47097 2.452
38 2 2.2208 10.7677 4.32489 2.3356
39 1 -1.1104 12.1378 -0.0840559 3.85942
40 1 -1.1104 9.65759 -2.99405 1.13381
41 1 -1.1104 9.44447 2.86875 1.10646
42 2 2.2208 8.02257 1.45062 2.50383
43 1 -1.1104 9.30504 -2.83051 3.93856
44 1 -1.1104 9.48778 2.78787 3.86602
45 2 2.2208 7.99114 -1.5157 5.19696
46 2 2.2208 8.00474 4.20615 5.24011
47 1 -1.1104 9.55776 0.139667 1.16062
48 1 -1.1104 9.39077 -0.0603797 3.96595
208 1 -1.1104 9.31673 -2.81063 6.76882
206 1 -1.1104 12.1214 2.83448 6.72197
610 2 2.2208 10.9019 1.51614 -0.137997
51 2 2.2208 8.11746 -4.31415 2.29169
207 1 -1.1104 12.0972 0.0335215 6.60231
209 1 -1.1104 9.30797 2.76598 6.67117
52 2 2.2208 10.6013 -4.18264 5.25897
8422 2 2.2208 10.9915 -4.22371 -0.279482
205 1 -1.1104 12.2399 -2.75552 6.71744
50 2 2.2208 13.5598 -1.43985 5.25662
331 2 2.2208 13.5839 4.2527 5.23757
611 2 2.2208 7.8669 4.11959 -0.34176
356 2 2.2208 5.14014 12.6074 -0.326679
645 2 2.2208 5.07655 6.9736 -0.351818
54 2 2.2208 5.09123 6.95808 5.279
55 2 2.2208 5.23389 12.6912 5.25055
56 1 -1.1104 0.901467 8.37715 0.927773
58 1 -1.1104 0.933604 8.29402 3.7166
60 1 -1.1104 0.879842 5.54335 1.05858
61 1 -1.1104 1.01054 11.1691 1.11058
66 2 2.2208 5.09438 9.7561 2.42364
67 1 -1.1104 0.999302 5.5388 3.84942
68 1 -1.1104 0.880259 11.1779 3.81246
71 1 -1.1104 3.8634 8.36701 1.05882
72 2 2.2208 2.22446 6.91721 2.42883
73 2 2.2208 2.32615 12.6139 2.43595
74 1 -1.1104 3.84274 8.37256 3.87853
75 2 2.2208 2.33045 9.87377 5.15609
76 1 -1.1104 3.60407 5.56021 1.08104
77 1 -1.1104 3.688 11.1607 1.02833
79 1 -1.1104 3.56437 5.46817 3.92438
80 1 -1.1104 3.66698 11.3491 3.82464
62 1 -1.1104 0.866391 11.152 6.70957
355 2 2.2208 2.3663 9.72773 -0.313762
236 1 -1.1104 0.845795 5.56167 6.84797
234 1 -1.1104 1.01869 8.35195 6.64256
78 1 -1.1104 3.65886 11.3063 6.58228
57 1 -1.1104 6.56919 8.26786 1.04787
64 1 -1.1104 6.39724 11.1628 1.00335
59 1 -1.1104 6.59543 8.30613 3.70413
63 1 -1.1104 6.42236 5.5475 0.998618
65 1 -1.1104 6.54569 11.1229 6.67284
671 2 2.2208 10.7909 12.5313 -0.32171
70 1 -1.1104 6.4643 11.114 4.02972
69 1 -1.1104 6.42094 5.49765 3.85909
84 2 2.2208 10.7517 6.94752 5.22185
85 2 2.2208 10.7605 12.5325 5.32708
86 1 -1.1104 12.0867 8.42605 0.9393
87 1 -1.1104 12.0873 8.2583 3.77199
88 1 -1.1104 12.2076 5.70326 0.983075
89 1 -1.1104 12.1681 11.2032 1.09215
91 2 2.2208 10.752 9.70912 2.42665
92 1 -1.1104 12.2952 5.60268 3.87999
93 1 -1.1104 12.0679 10.9708 4.05128
94 1 -1.1104 9.42239 8.38627 0.940815
95 2 2.2208 7.94165 6.92265 2.41413
96 2 2.2208 8.03337 12.5225 2.50072
97 1 -1.1104 9.33548 8.21308 3.80913
98 2 2.2208 8.10346 9.61696 5.27142
99 1 -1.1104 9.23122 5.7217 0.849214
100 1 -1.1104 9.34145 11.2727 0.999678
102 1 -1.1104 9.43871 5.43385 3.72811
103 1 -1.1104 9.34514 10.9228 3.79192
266 1 -1.1104 12.109 5.54915 6.7167
101 1 -1.1104 9.41371 10.9903 6.6904
265 1 -1.1104 12.1381 8.27022 6.68625
332 2 2.2208 13.5403 9.70856 5.20745
267 1 -1.1104 9.3493 8.16255 6.67688
104 2 2.2208 13.5962 12.4814 2.45577
105 2 2.2208 13.6547 6.92675 2.34977
673 2 2.2208 13.5595 9.82081 -0.36244
360 2 2.2208 2.38794 20.9563 -0.189241
106 2 2.2208 5.25447 18.1845 5.40791
107 1 -1.1104 0.893956 14.1645 1.25268
109 1 -1.1104 1.02985 19.6098 1.19092
113 1 -1.1104 0.994062 13.9658 4.00581
114 1 -1.1104 0.956171 19.6523 3.99643
116 1 -1.1104 1.01488 16.8971 1.1875
119 2 2.2208 5.2253 15.5302 2.39653
120 2 2.2208 5.17905 20.9295 2.62827
121 1 -1.1104 1.10182 16.7128 3.93356
123 1 -1.1104 3.77516 13.9953 1.21394
125 1 -1.1104 3.79563 19.5207 1.13117
127 2 2.2208 2.35059 18.2325 2.59706
128 1 -1.1104 3.98849 14.0714 3.91097
129 1 -1.1104 3.66873 19.6429 3.92392
130 2 2.2208 2.4981 15.3556 5.28889
131 2 2.2208 2.46085 21.1003 5.32223
132 1 -1.1104 3.65511 16.7623 1.22718
134 1 -1.1104 3.8514 16.9341 3.91761
126 1 -1.1104 3.74608 19.6342 6.76363
138 1 -1.1104 6.82254 19.6193 1.20924
361 2 2.2208 5.26218 18.1713 -0.282918
362 2 2.2208 2.38328 15.53 -0.249931
140 1 -1.1104 6.60676 16.7303 1.07661
136 2 2.2208 -0.370187 20.8969 2.51712
139 1 -1.1104 6.50807 19.4417 4.01817
110 1 -1.1104 6.46669 14.0318 1.02707
115 1 -1.1104 6.81868 13.9276 3.93777
122 1 -1.1104 6.57283 16.7899 4.08105
141 2 2.2208 10.8298 18.2724 5.18919
142 1 -1.1104 12.3475 13.8778 1.08379
144 1 -1.1104 12.3342 19.4526 1.03564
146 1 -1.1104 12.0715 13.8484 3.87392
147 1 -1.1104 12.3634 19.5596 3.81212
148 1 -1.1104 12.3587 16.7187 1.24223
150 2 2.2208 10.8836 15.3581 2.44878
151 2 2.2208 10.9057 21.0075 2.53887
152 1 -1.1104 12.2447 16.6345 3.94609
153 1 -1.1104 9.42742 14.1125 0.890887
155 1 -1.1104 9.59955 19.5017 1.22005
157 2 2.2208 7.93634 18.2003 2.58749
158 1 -1.1104 9.45997 13.897 3.72893
159 1 -1.1104 9.4577 19.5906 3.87156
160 2 2.2208 8.14717 15.3875 5.25985
161 2 2.2208 7.99124 21.0528 5.29303
162 1 -1.1104 9.45655 16.8119 0.968127
164 1 -1.1104 9.48791 16.7898 3.88842
163 1 -1.1104 9.6186 16.8674 6.77367
165 2 2.2208 13.6481 18.1361 2.55573
334 2 2.2208 13.5915 15.3019 5.35851
154 1 -1.1104 9.32259 13.8361 6.63897
396 2 2.2208 13.6855 20.9898 -0.183115
589 2 2.2208 8.04664 21.0856 -0.211525
584 2 2.2208 10.7911 18.1728 -0.296246
167 1 -1.1104 0.983149 2.60706 6.79603
174 1 -1.1104 3.75424 -0.0719213 6.59105
171 1 -1.1104 6.53093 -0.233246 6.64509
200 2 2.2208 -0.330637 -1.66223 8.06684
175 2 2.2208 5.15393 1.26559 10.789
176 1 -1.1104 1.00488 -2.741 12.4223
177 1 -1.1104 0.984412 2.72662 12.2558
180 1 -1.1104 0.953935 -2.96002 9.44876
181 1 -1.1104 0.893347 2.71245 9.51707
184 1 -1.1104 0.768565 -0.157173 12.2014
186 2 2.2208 5.16537 -1.65776 8.04674
187 2 2.2208 5.06242 4.14973 8.03468
188 1 -1.1104 0.890668 -0.227578 9.3651
190 1 -1.1104 3.87583 -3.00861 12.3161
191 1 -1.1104 3.82315 2.69546 12.4086
192 2 2.2208 2.33497 1.19508 8.0291
193 1 -1.1104 3.79252 -2.89881 9.61143
194 1 -1.1104 3.64807 2.66111 9.5786
195 2 2.2208 2.29635 -1.51192 10.8949
197 1 -1.1104 3.77642 -0.124145 12.2126
198 1 -1.1104 3.57288 -0.115491 9.49484
196 2 2.2208 2.48792 4.20658 10.8895
185 1 -1.1104 6.61074 0.0216886 12.2586
341 2 2.2208 2.29191 1.27923 13.5701
179 1 -1.1104 6.52641 2.8672 12.3146
183 1 -1.1104 6.5268 2.7043 9.28082
182 1 -1.1104 6.48803 -2.94107 9.37856
8514 2 2.2208 2.37455 -4.17329 13.6095
169 1 -1.1104 6.53115 2.76904 6.59142
430 2 2.2208 13.5003 -4.16879 13.5952
233 2 2.2208 13.5572 -4.31871 7.91592
342 2 2.2208 8.05676 -4.32779 13.6364
229 2 2.2208 13.4607 1.35964 8.00167
210 1 -1.1104 9.21863 -0.0124873 6.67555
189 1 -1.1104 6.43641 -0.178365 9.60912
178 1 -1.1104 6.58027 -2.90514 12.247
211 2 2.2208 10.7426 1.26698 10.7901
212 1 -1.1104 12.1338 -3.05359 12.2378
213 1 -1.1104 12.0874 2.64265 12.3889
214 1 -1.1104 12.0854 -2.85814 9.44456
215 1 -1.1104 12.2023 2.85 9.56215
216 1 -1.1104 12.079 -0.0864468 12.11
217 2 2.2208 10.7037 -1.40621 7.97497
218 2 2.2208 10.7087 4.16706 8.04799
219 1 -1.1104 11.8762 0.0855366 9.33054
220 1 -1.1104 9.36692 -2.99077 12.1637
221 1 -1.1104 9.39362 2.72613 12.3789
222 2 2.2208 7.9852 1.28253 8.02503
223 1 -1.1104 9.31435 -2.93341 9.5064
224 1 -1.1104 9.44933 2.70071 9.41191
225 2 2.2208 7.99293 -1.65673 10.928
227 1 -1.1104 9.31821 -0.125468 12.2336
228 1 -1.1104 9.3174 -0.163344 9.41028
226 2 2.2208 8.09388 4.24409 10.8103
231 2 2.2208 7.91117 -4.31413 8.07589
591 2 2.2208 13.5141 1.3032 13.6281
230 2 2.2208 13.5345 -1.41159 10.7218
431 2 2.2208 7.90191 1.32777 13.6344
432 2 2.2208 10.7282 -1.37349 13.6167
238 1 -1.1104 3.72299 8.54764 6.55688
239 1 -1.1104 3.71407 5.65722 6.71907
240 2 2.2208 5.14229 6.95325 10.8769
241 2 2.2208 5.17943 12.634 10.9045
242 1 -1.1104 0.980493 8.32591 12.3285
244 1 -1.1104 0.990957 8.30523 9.50335
246 1 -1.1104 1.10535 5.55728 12.232
247 1 -1.1104 0.955177 11.1751 12.4609
250 2 2.2208 5.07176 9.8567 7.98926
251 1 -1.1104 0.955794 5.52416 9.42849
252 1 -1.1104 1.05144 11.1167 9.54358
255 1 -1.1104 3.86349 8.44019 12.1431
256 2 2.2208 2.34194 7.01792 8.11969
257 2 2.2208 2.33423 12.5948 8.0942
258 1 -1.1104 3.72345 8.36726 9.43489
259 2 2.2208 2.48051 9.95441 10.9166
260 1 -1.1104 3.8491 5.618 12.2325
261 1 -1.1104 3.74015 11.2646 12.3651
262 1 -1.1104 3.96832 5.44122 9.5073
263 1 -1.1104 3.88215 11.2949 9.47214
249 1 -1.1104 6.39201 11.2921 12.2017
254 1 -1.1104 6.48664 11.2885 9.30453
248 1 -1.1104 6.63207 5.4959 12.2649
243 1 -1.1104 6.45427 8.27042 12.3348
235 1 -1.1104 6.62254 8.2986 6.65055
237 1 -1.1104 6.49365 5.44447 6.72449
253 1 -1.1104 6.73763 5.51372 9.54213
245 1 -1.1104 6.54816 8.32234 9.43332
346 2 2.2208 2.48795 6.89924 13.6561
269 1 -1.1104 9.44324 5.57199 6.6097
337 2 2.2208 13.5681 12.3993 8.14689
336 2 2.2208 13.6375 6.88751 8.03267
496 2 2.2208 8.02435 6.917 13.6856
338 2 2.2208 13.5625 9.74998 10.9845
90 1 -1.1104 12.1354 11.0062 6.71788
264 1 -1.1104 9.33893 11.104 9.51035
268 1 -1.1104 9.37882 5.54101 9.41772
270 1 -1.1104 9.28793 11.3771 12.3529
271 1 -1.1104 9.43417 5.77868 12.1923
272 2 2.2208 7.89369 9.84978 10.8484
273 1 -1.1104 9.39137 8.30259 9.46936
274 2 2.2208 7.95447 12.5495 7.99553
275 2 2.2208 7.88543 6.94558 8.19412
276 2 2.2208 10.8171 7.09997 10.9026
277 2 2.2208 10.7131 12.6627 10.8852
278 1 -1.1104 12.1034 8.44173 12.2733
279 1 -1.1104 12.2264 8.49188 9.47767
280 1 -1.1104 12.2133 5.6754 12.2653
281 1 -1.1104 12.1771 11.2514 12.2733
282 2 2.2208 10.7769 9.61247 8.05865
283 1 -1.1104 12.2055 5.68971 9.44513
284 1 -1.1104 12.1021 11.2515 9.52144
285 1 -1.1104 9.1754 8.42458 12.2781
133 1 -1.1104 4.03543 16.7629 6.74667
117 1 -1.1104 1.16249 16.9492 6.59444
532 2 2.2208 5.26301 21.0004 13.6993
108 1 -1.1104 0.956519 14.0851 6.648
302 1 -1.1104 0.879557 19.6386 6.73111
124 1 -1.1104 3.90574 13.9913 6.67156
112 1 -1.1104 6.53197 19.8096 6.73763
288 1 -1.1104 6.69446 19.6334 9.29903
306 1 -1.1104 6.69666 16.7834 12.5267
305 1 -1.1104 3.7302 13.9764 9.5317
304 1 -1.1104 3.81481 16.7275 9.70851
309 2 2.2208 2.43454 20.9966 10.926
308 1 -1.1104 3.6935 16.8995 12.3194
307 1 -1.1104 0.879161 16.6676 12.3981
310 2 2.2208 2.31046 15.2429 11.0405
286 1 -1.1104 3.68199 19.7039 12.2993
287 1 -1.1104 3.75717 14.1225 12.4997
291 1 -1.1104 0.817926 19.5755 9.65108
292 1 -1.1104 0.845307 16.8442 9.5723
293 2 2.2208 5.25412 21.0266 8.09821
294 1 -1.1104 0.866394 13.9381 9.46144
295 2 2.2208 5.24655 15.4545 8.23734
298 1 -1.1104 1.04766 19.5866 12.4345
299 1 -1.1104 0.798123 13.8524 12.3465
300 2 2.2208 5.15398 18.2183 10.9951
301 1 -1.1104 3.70073 19.6419 9.48876
303 2 2.2208 2.36507 18.1928 8.14308
296 1 -1.1104 6.61719 19.623 12.1924
289 1 -1.1104 6.6059 16.9166 9.55324
297 1 -1.1104 6.50704 14.0833 12.3802
28 2 2.2208 13.6646 21.0214 10.9126
315 1 -1.1104 9.34612 16.6687 12.3802
328 1 -1.1104 12.2748 13.9673 9.37121
111 1 -1.1104 6.66939 13.9687 6.6656
53 2 2.2208 10.7949 18.2378 10.8762
316 2 2.2208 8.00902 20.9587 10.9142
156 1 -1.1104 9.40643 19.5552 6.41621
149 1 -1.1104 12.3534 16.7678 6.56757
118 1 -1.1104 6.87194 16.7796 6.72555
25 2 2.2208 13.4615 15.4584 10.8807
326 1 -1.1104 12.065 16.8843 12.3297
330 1 -1.1104 11.9615 13.9732 12.2881
325 2 2.2208 10.7901 15.3211 7.94739
329 1 -1.1104 12.3068 19.5878 12.3914
320 2 2.2208 8.1028 18.1854 8.03833
145 1 -1.1104 12.1067 19.5867 6.62839
143 1 -1.1104 12.194 13.8899 6.66478
317 2 2.2208 8.00654 15.3958 10.9185
321 1 -1.1104 9.4044 19.5306 12.3139
322 1 -1.1104 9.37208 13.925 12.2225
318 1 -1.1104 9.33192 19.6648 9.55671
290 1 -1.1104 6.44559 13.9806 9.47787
324 2 2.2208 10.8453 21.0154 8.20101
319 1 -1.1104 9.50576 14.0838 9.49414
327 1 -1.1104 12.2738 19.6517 9.66951
323 1 -1.1104 12.0822 16.8199 9.53392
314 1 -1.1104 9.39388 16.8631 9.54479
27 2 2.2208 13.5701 18.2005 8.06933
533 2 2.2208 13.6136 18.129 13.6007
364 2 2.2208 5.18484 1.36665 16.542
365 1 -1.1104 1.09536 2.5161 17.7776
368 1 -1.1104 0.914161 -2.90197 15.2715
369 1 -1.1104 0.977163 2.76406 15.075
375 1 -1.1104 0.881815 -0.378444 17.7778
378 1 -1.1104 0.936577 0.0647798 15.0263
382 1 -1.1104 3.88037 2.83128 17.927
383 2 2.2208 2.31171 1.39937 19.1711
384 1 -1.1104 3.66315 -2.94329 15.3145
385 1 -1.1104 3.77507 2.57685 15.2151
387 2 2.2208 2.44767 -1.3049 16.3012
388 2 2.2208 2.38684 4.01918 16.4558
389 1 -1.1104 3.46034 0.198947 17.7004
390 1 -1.1104 3.67722 -0.0217095 15.0207
391 1 -1.1104 1.2772 -0.0818132 20.721
377 2 2.2208 5.0815 4.07499 19.2491
379 1 -1.1104 0.917282 -2.72858 20.7246
371 1 -1.1104 6.52339 -2.79933 15
380 1 -1.1104 6.43063 0.0270511 15.0808
367 1 -1.1104 6.58347 2.70585 17.9191
366 1 -1.1104 6.62452 -3.08833 17.6966
370 1 -1.1104 0.863761 2.68042 20.7069
400 2 2.2208 5.25978 4.18325 13.6685
340 2 2.2208 5.22636 -1.35978 13.6786
373 1 -1.1104 6.6787 2.79893 15.1948
376 1 -1.1104 6.65384 -0.0812645 17.7957
401 2 2.2208 10.7696 1.34618 16.506
402 1 -1.1104 12.4148 -2.82923 17.7961
403 1 -1.1104 12.2323 2.6814 17.938
404 1 -1.1104 12.0558 -2.84172 14.9551
406 1 -1.1104 12.4096 2.80644 15.2156
408 1 -1.1104 12.075 -0.0215061 17.8211
409 2 2.2208 10.7925 -1.48532 19.2219
410 2 2.2208 10.8311 4.10515 19.2738
411 1 -1.1104 12.1298 -0.0529252 14.9369
413 1 -1.1104 9.51034 -2.85178 17.6821
414 1 -1.1104 9.27287 2.74175 17.9246
415 2 2.2208 7.89499 1.1426 19.2245
416 1 -1.1104 9.35712 -2.80143 14.9255
418 1 -1.1104 9.52857 2.79827 15.148
420 2 2.2208 7.9416 -1.53882 16.5015
421 2 2.2208 8.0769 4.16635 16.5506
422 1 -1.1104 9.40427 -0.14706 17.8175
423 1 -1.1104 9.33256 -0.028946 15.0097
405 1 -1.1104 11.938 -2.84323 20.5536
419 1 -1.1104 9.29178 2.76953 20.6876
417 1 -1.1104 9.00134 -2.70746 20.515
412 1 -1.1104 12.0964 -0.19537 20.4645
426 2 2.2208 10.8836 -4.10103 16.3667
427 2 2.2208 7.93147 -4.25004 19.0925
429 2 2.2208 13.5729 -1.49916 16.3114
646 2 2.2208 13.6491 4.25841 16.5204
9354 2 2.2208 13.4946 -4.23673 19.2675
590 2 2.2208 13.6274 1.34416 19.2481
433 2 2.2208 10.8368 4.23559 13.7659
434 2 2.2208 5.18281 6.87814 16.502
435 2 2.2208 5.16945 12.5981 16.6095
436 1 -1.1104 0.859296 8.28841 17.8436
438 1 -1.1104 1.0532 8.36862 15.1145
442 1 -1.1104 0.948304 5.42753 17.8233
443 1 -1.1104 0.899644 11.2452 17.9433
446 2 2.2208 5.16185 9.74283 19.3696
447 1 -1.1104 1.0695 5.64452 15.0851
449 1 -1.1104 1.00977 11.1253 15.1569
455 1 -1.1104 3.62778 8.25175 17.8952
456 2 2.2208 2.28798 6.91604 19.2464
457 2 2.2208 2.34025 12.5048 19.2097
458 1 -1.1104 3.82155 8.26546 15.0752
460 2 2.2208 2.40158 9.70662 16.4831
461 1 -1.1104 3.68004 5.5044 18.0119
462 1 -1.1104 3.80204 11.2748 17.8508
463 1 -1.1104 3.87827 5.36045 15.1672
465 1 -1.1104 3.95718 11.0822 15.0409
464 1 -1.1104 3.82099 5.3207 20.8126
459 1 -1.1104 3.74935 8.30232 20.6926
451 1 -1.1104 6.70928 5.62411 15.1713
445 1 -1.1104 6.50235 11.1617 17.8697
437 1 -1.1104 6.41737 8.24768 18.0428
440 1 -1.1104 6.57655 8.28859 15.0449
345 2 2.2208 5.27769 9.71113 13.6495
344 2 2.2208 2.36382 12.6249 13.7678
444 1 -1.1104 6.74319 5.49484 17.8992
453 1 -1.1104 6.72537 11.0818 15.1035
472 2 2.2208 10.7632 6.95752 16.4068
473 2 2.2208 10.8539 12.6815 16.5254
474 1 -1.1104 12.1157 8.38232 17.8705
475 1 -1.1104 12.1154 8.27596 15.094
477 1 -1.1104 12.314 5.58423 17.8311
478 1 -1.1104 12.1431 11.2383 17.8133
479 2 2.2208 10.9133 9.8534 19.2586
480 1 -1.1104 12.2071 5.68693 15.0338
482 1 -1.1104 12.2122 11.0382 15.0099
484 1 -1.1104 9.4457 8.3109 17.9398
485 2 2.2208 8.00864 6.9011 19.3834
486 2 2.2208 7.99469 12.5774 19.2599
487 1 -1.1104 9.32796 8.39884 15.1138
489 2 2.2208 8.04308 9.68062 16.63
490 1 -1.1104 9.55489 5.42256 17.7008
491 1 -1.1104 9.50197 11.2484 18.0485
492 1 -1.1104 9.40009 5.65976 14.8542
494 1 -1.1104 9.45095 11.1405 15.1839
481 1 -1.1104 12.1586 5.46994 20.5803
476 1 -1.1104 12.3019 8.27085 20.7011
583 2 2.2208 13.575 7.07874 19.1937
469 2 2.2208 13.595 12.5886 13.6702
585 2 2.2208 13.5039 9.77855 16.49
471 2 2.2208 10.6639 9.8526 13.7314
470 2 2.2208 7.99167 12.6898 13.8711
495 1 -1.1104 9.38772 11.221 20.7835
488 1 -1.1104 9.50656 8.40419 20.654
493 1 -1.1104 9.31984 5.57856 20.6462
483 1 -1.1104 12.1909 11.1364 20.6116
531 2 2.2208 13.7191 12.733 19.2262
586 2 2.2208 13.641 6.98885 13.6249
498 2 2.2208 5.24682 18.2758 16.5358
499 1 -1.1104 1.09402 13.9528 17.9782
500 1 -1.1104 1.02173 19.5968 17.7332
503 1 -1.1104 0.96011 13.907 15.2469
505 1 -1.1104 0.907189 19.6186 15.0625
511 1 -1.1104 1.03264 16.7508 18.1821
513 2 2.2208 5.11065 15.4464 19.3316
514 2 2.2208 5.38678 20.973 19.2664
515 1 -1.1104 0.867158 16.8307 15.1411
519 1 -1.1104 3.84274 14.0323 17.7838
520 1 -1.1104 3.75357 19.7787 17.868
521 2 2.2208 2.49317 18.2495 19.4222
522 1 -1.1104 3.77321 14.0044 15.1597
524 1 -1.1104 3.81528 19.5814 15.0949
526 2 2.2208 2.34167 15.4646 16.5404
527 2 2.2208 2.39521 20.9519 16.4659
528 1 -1.1104 4.00827 17.0321 17.9926
529 1 -1.1104 3.80307 16.8914 15.2233
502 1 -1.1104 6.72675 19.6848 18.0732
497 2 2.2208 5.18615 15.4725 13.9447
615 2 2.2208 -0.243054 20.9649 19.3342
501 1 -1.1104 6.63508 14.0767 17.9982
507 1 -1.1104 6.68291 14.0303 15.2217
525 1 -1.1104 3.99304 19.4709 20.755
510 1 -1.1104 6.83035 19.5696 20.978
518 1 -1.1104 6.61698 16.7773 20.6533
347 2 2.2208 2.30517 18.2162 13.7849
560 2 2.2208 10.9757 20.9829 13.7547
517 1 -1.1104 6.57479 16.8955 15.2729
512 1 -1.1104 6.59072 16.9661 17.9193
509 1 -1.1104 6.58067 19.614 15.0927
535 2 2.2208 10.7223 18.226 16.4301
536 1 -1.1104 12.3506 14.0916 17.8915
537 1 -1.1104 12.3134 19.5589 17.7455
538 1 -1.1104 12.2785 13.8525 15.0593
540 1 -1.1104 12.2063 19.5174 15.0427
542 1 -1.1104 12.1624 16.9032 17.8866
543 2 2.2208 10.7517 15.4073 19.2534
544 2 2.2208 10.9152 21.0387 19.2443
545 1 -1.1104 12.3166 16.7546 15.1502
547 1 -1.1104 9.45557 14.0185 17.8455
548 1 -1.1104 9.47435 19.723 18.0178
549 2 2.2208 8.06436 18.2536 19.3693
550 1 -1.1104 9.4634 14.0146 15.0934
552 1 -1.1104 9.42957 19.7581 15.1514
554 2 2.2208 8.02205 15.4166 16.5809
555 2 2.2208 8.0587 20.9981 16.4953
556 1 -1.1104 9.40836 16.7863 17.9345
557 1 -1.1104 9.46898 16.7781 15.2668
553 1 -1.1104 9.49395 19.6405 20.7912
398 2 2.2208 13.4991 18.2836 19.3155
559 2 2.2208 10.7396 15.3588 13.7515
551 1 -1.1104 9.51745 14.0575 20.5393
534 2 2.2208 8.11912 18.1373 13.8002
386 1 -1.1104 3.67298 2.5508 20.6358
381 1 -1.1104 6.52558 0.046176 20.7582
350 2 2.2208 2.29444 -1.52052 27.6279
561 2 2.2208 5.34672 1.40393 22.1389
562 1 -1.1104 0.761177 -2.81907 23.3739
563 1 -1.1104 1.05023 2.61051 23.3821
566 1 -1.1104 0.945682 -2.95846 26.1827
567 1 -1.1104 0.924086 2.61733 26.227
569 1 -1.1104 0.980249 -0.0687131 23.4052
571 2 2.2208 5.28989 -1.38228 24.9615
573 1 -1.1104 0.860044 -0.176038 26.3229
574 1 -1.1104 3.61242 -3.0809 23.197
575 1 -1.1104 3.71662 2.71244 23.5448
576 2 2.2208 2.30181 1.4584 24.8605
577 1 -1.1104 3.71342 -2.79148 26.2404
578 1 -1.1104 3.84303 2.87384 26.1514
579 2 2.2208 2.20008 -1.51635 22.2448
581 1 -1.1104 3.77025 -0.189552 23.0824
582 1 -1.1104 3.65002 0.0866228 26.1267
572 2 2.2208 5.18606 4.25704 24.8705
580 2 2.2208 2.3695 4.12018 22.155
372 1 -1.1104 6.30313 -2.6787 23.1116
374 1 -1.1104 6.42063 2.81602 20.628
570 1 -1.1104 6.6221 -0.0195106 23.4718
609 1 -1.1104 6.32484 0.161748 26.1506
568 1 -1.1104 6.50585 3.02446 26.3656
351 2 2.2208 2.48523 4.21816 27.6781
424 1 -1.1104 9.27639 -0.0170787 20.7019
618 2 2.2208 13.4915 -1.44645 22.101
612 2 2.2208 13.5662 -4.27948 24.8011
8769 1 -1.1104 6.5933 -3.15119 25.9781
407 1 -1.1104 12.2992 2.66661 20.586
588 2 2.2208 13.4861 4.14344 22.0063
565 1 -1.1104 6.57766 2.89802 23.6295
8478 2 2.2208 10.7182 -4.20128 22.0361
564 1 -1.1104 9.02915 -3.12608 23.3012
595 2 2.2208 10.6805 1.24244 21.9584
596 1 -1.1104 12.4508 -3.03487 23.166
597 1 -1.1104 12.2141 2.78216 23.4305
598 1 -1.1104 12.0311 -3.05252 26.2034
599 1 -1.1104 12.0525 2.95359 26.3616
600 1 -1.1104 12.2491 0.12709 23.2778
602 1 -1.1104 12.3676 0.169659 26.4804
603 1 -1.1104 9.48421 2.86163 23.2712
604 2 2.2208 7.84801 1.45057 24.8712
605 1 -1.1104 9.30436 2.50925 26.4333
606 2 2.2208 7.9472 -1.41923 22.2546
608 1 -1.1104 9.27267 0.213692 23.6334
607 2 2.2208 7.87761 4.13238 21.9931
601 2 2.2208 10.7724 4.07925 24.9002
619 2 2.2208 13.4876 1.18414 24.8278
614 2 2.2208 13.6585 4.24522 27.5702
617 2 2.2208 13.6084 -1.33821 27.5212
439 1 -1.1104 0.876277 8.22684 20.6759
450 1 -1.1104 0.88127 11.0724 20.68
448 1 -1.1104 0.954386 5.51477 20.6741
452 1 -1.1104 6.45757 5.68601 20.5976
466 1 -1.1104 3.75645 10.9028 20.7031
454 1 -1.1104 6.4711 11.1711 20.6434
620 2 2.2208 5.16274 7.02609 22.1722
621 2 2.2208 5.09025 12.5078 22.1425
622 1 -1.1104 0.953374 8.3954 23.4278
624 1 -1.1104 0.986135 8.38928 26.2296
626 1 -1.1104 0.902133 5.4262 23.2957
627 1 -1.1104 0.900433 11.1464 23.5011
630 2 2.2208 5.12668 9.77432 24.8611
631 1 -1.1104 0.959393 5.60898 26.2873
632 1 -1.1104 0.990447 11.1694 26.454
635 1 -1.1104 3.78105 8.28508 23.5304
636 2 2.2208 2.3247 6.92873 24.7954
637 2 2.2208 2.35594 12.5179 24.8774
638 1 -1.1104 3.70459 8.39899 26.2405
639 2 2.2208 2.2709 9.6838 22.1263
640 1 -1.1104 3.77956 5.69069 23.6271
641 1 -1.1104 3.70336 11.0553 23.3959
642 1 -1.1104 3.7895 5.57539 26.3586
643 1 -1.1104 3.6597 11.1083 26.2685
625 1 -1.1104 6.45262 8.46714 26.2468
629 1 -1.1104 6.5667 11.4235 23.4387
623 1 -1.1104 6.60425 8.42513 23.3925
634 1 -1.1104 6.65427 11.2152 26.1957
628 1 -1.1104 6.49884 5.51823 23.4261
674 2 2.2208 13.5176 7.04062 24.7894
672 2 2.2208 13.5267 12.5564 24.8878
397 2 2.2208 13.5922 9.85423 22.0191
441 1 -1.1104 6.65092 8.38955 20.6424
633 1 -1.1104 6.63483 5.6449 26.2499
651 1 -1.1104 9.36194 11.2246 26.3439
652 1 -1.1104 9.52543 5.51401 26.178
653 1 -1.1104 9.36885 11.1128 23.4764
654 1 -1.1104 9.28603 5.55747 23.3779
655 2 2.2208 8.05903 9.78905 22.0894
656 1 -1.1104 9.27476 8.362 26.2364
657 2 2.2208 7.94432 12.6655 24.869
658 2 2.2208 8.02984 6.96442 24.756
659 2 2.2208 10.7107 6.91169 22.0251
660 2 2.2208 10.8538 12.6163 22.0127
661 1 -1.1104 12.1371 8.47514 23.5212
662 1 -1.1104 12.2768 8.46321 26.2258
663 1 -1.1104 12.1528 5.53818 23.4705
664 1 -1.1104 12.1204 11.0702 23.4455
665 2 2.2208 10.7107 9.83664 24.9597
666 1 -1.1104 12.2678 5.69083 26.1939
667 1 -1.1104 12.0894 11.1859 26.2509
668 1 -1.1104 9.43384 8.39034 23.4685
358 2 2.2208 10.6875 7.0051 27.5948
359 2 2.2208 7.8643 9.6995 27.5989
506 1 -1.1104 1.06318 19.5881 20.7162
530 1 -1.1104 3.83848 16.6757 20.8021
504 1 -1.1104 0.958663 13.9776 20.6601
508 1 -1.1104 6.56596 14.0132 20.7546
703 2 2.2208 -0.27508 21.0668 25.0074
678 1 -1.1104 6.49971 17.0122 26.1709
676 1 -1.1104 6.66558 14.2487 26.3749
685 1 -1.1104 6.57148 14.0556 23.5744
523 1 -1.1104 3.65123 13.8667 20.5791
516 1 -1.1104 0.86835 16.8007 20.7934
696 2 2.2208 2.7239 20.9711 22.2484
695 1 -1.1104 3.71384 16.6352 23.6225
694 1 -1.1104 0.838194 16.7807 23.6323
692 1 -1.1104 3.664 13.972 26.3913
691 1 -1.1104 3.69972 16.6869 26.3646
690 2 2.2208 2.3297 18.1469 24.9837
689 1 -1.1104 3.7725 19.5157 26.5053
697 2 2.2208 2.29172 15.3245 22.1901
675 1 -1.1104 3.933 19.4743 23.5975
677 1 -1.1104 3.71656 13.9054 23.4679
679 1 -1.1104 0.990701 19.6451 26.4394
680 1 -1.1104 0.977895 16.8256 26.3158
681 1 -1.1104 0.832759 13.782 26.442
683 2 2.2208 5.28566 20.8364 25.1128
684 2 2.2208 5.14421 15.3596 24.9601
686 1 -1.1104 1.1752 19.663 23.622
687 1 -1.1104 0.916223 13.9165 23.4716
688 2 2.2208 5.20827 18.1544 22.019
709 1 -1.1104 9.44755 19.6694 26.3594
708 2 2.2208 8.04138 15.4807 22.121
644 1 -1.1104 12.3073 19.5004 23.5088
710 1 -1.1104 9.4766 14.1001 26.1257
699 1 -1.1104 12.1253 16.6965 26.4845
669 1 -1.1104 12.202 16.7339 23.6712
682 1 -1.1104 6.61981 19.7008 23.6748
392 2 2.2208 13.5022 15.3994 22.1712
539 1 -1.1104 12.1501 14.0106 20.6967
558 1 -1.1104 9.47204 16.8225 20.6864
702 1 -1.1104 9.48598 19.6098 23.579
546 1 -1.1104 12.1752 16.8628 20.7098
541 1 -1.1104 12.2091 19.5796 20.6732
711 1 -1.1104 6.62385 19.6629 26.5054
712 2 2.2208 8.01143 18.2464 24.8791
705 1 -1.1104 9.45644 16.8125 26.2279
698 2 2.2208 10.8829 20.9743 24.93
706 1 -1.1104 9.48797 16.6506 23.4501
647 1 -1.1104 12.3585 13.9291 26.3166
693 1 -1.1104 6.4027 16.7659 23.3834
670 2 2.2208 10.8404 15.347 24.9303
707 2 2.2208 8.05325 20.9399 22.1578
593 2 2.2208 10.884 18.086 22.0818
648 1 -1.1104 12.2432 19.5509 26.2046
594 1 -1.1104 12.2535 13.846 23.4902
700 1 -1.1104 9.38212 14.0162 23.4138
394 2 2.2208 13.6339 18.2247 24.9584
348 2 2.2208 8.13326 15.4253 27.5519
713 2 2.2208 5.17133 23.8791 5.38773
714 2 2.2208 5.32735 29.3806 5.29201
715 1 -1.1104 1.09635 25.0687 1.06701
716 1 -1.1104 0.990457 25.3127 4.01338
717 1 -1.1104 1.10663 22.3148 1.21878
718 1 -1.1104 1.0175 27.8945 1.18431
719 2 2.2208 5.21928 26.5519 2.56988
720 1 -1.1104 0.9645 22.418 3.82683
721 1 -1.1104 1.11516 27.972 3.96228
722 1 -1.1104 3.85659 25.2901 1.03351
723 2 2.2208 2.39995 23.8831 2.60954
724 2 2.2208 2.5328 29.3422 2.61873
725 1 -1.1104 3.807 25.2303 3.95677
726 2 2.2208 2.56576 26.5622 5.56171
727 1 -1.1104 3.82639 22.4235 1.13875
728 1 -1.1104 3.93048 27.9805 1.21101
729 1 -1.1104 3.73241 22.4331 4.07624
730 1 -1.1104 4.02093 27.9276 4.0647
738 1 -1.1104 6.45357 22.4301 3.96377
735 1 -1.1104 6.6391 25.2231 4.00914
737 1 -1.1104 6.64137 27.8688 1.08709
739 1 -1.1104 6.74568 27.9691 3.98968
857 1 -1.1104 0.995779 27.8347 6.77281
733 2 2.2208 -0.396516 26.5698 2.56269
1269 2 2.2208 -0.292882 29.4117 -0.160693
1268 2 2.2208 5.2452 29.4346 -0.245395
1266 2 2.2208 5.20836 23.7214 -0.242571
1270 2 2.2208 -0.341623 23.7779 -0.226896
736 1 -1.1104 6.54851 22.3384 1.1507
734 1 -1.1104 6.56138 25.107 1.32998
740 2 2.2208 10.8677 23.76 5.28709
741 2 2.2208 10.8544 29.3681 5.22536
742 1 -1.1104 12.2392 25.0608 1.04173
743 1 -1.1104 12.1679 25.2317 3.77337
744 1 -1.1104 12.33 22.4126 1.32169
745 1 -1.1104 12.2955 27.9898 0.961273
746 2 2.2208 10.8247 26.6182 2.45217
747 1 -1.1104 12.2996 22.2505 3.94119
748 1 -1.1104 12.3634 28.0526 3.83483
749 1 -1.1104 9.45151 25.0246 1.06649
750 2 2.2208 8.01489 23.7721 2.63544
751 2 2.2208 7.95691 29.3643 2.46444
752 1 -1.1104 9.39164 25.2513 3.98275
753 2 2.2208 8.04993 26.5536 5.30744
754 1 -1.1104 9.42583 22.2971 1.26413
755 1 -1.1104 9.42155 27.9121 1.16589
756 1 -1.1104 9.3435 22.5032 3.99009
757 1 -1.1104 9.52959 27.9813 3.92028
891 1 -1.1104 9.54621 22.311 6.83265
892 1 -1.1104 9.45527 27.9896 6.75502
1297 2 2.2208 8.03197 26.3413 -0.269404
889 1 -1.1104 12.3102 28.0645 6.77349
887 1 -1.1104 12.3433 25.2926 6.75783
760 2 2.2208 13.6647 26.6883 5.30598
1302 2 2.2208 10.8889 29.4743 -0.333243
1296 2 2.2208 10.9584 23.905 -0.393572
1326 2 2.2208 2.38575 32.1229 -0.16666
761 2 2.2208 5.32745 35.0799 5.22276
762 1 -1.1104 1.11971 30.6067 1.27838
763 1 -1.1104 1.11324 36.2532 1.05637
765 1 -1.1104 0.890981 30.7701 3.88199
766 1 -1.1104 1.07107 36.3097 3.95039
768 1 -1.1104 0.985233 33.468 1.24263
769 2 2.2208 5.25139 32.2417 2.52195
770 2 2.2208 5.24392 37.988 2.5173
771 1 -1.1104 0.989186 33.638 3.8408
773 1 -1.1104 3.82293 30.7776 1.13395
774 1 -1.1104 3.71465 36.4929 1.10103
775 2 2.2208 2.46661 34.9751 2.4644
776 1 -1.1104 3.7954 30.7811 3.982
777 1 -1.1104 3.84575 36.5411 3.80626
778 2 2.2208 2.40428 32.2368 5.29198
779 2 2.2208 2.39085 37.7347 5.3486
780 1 -1.1104 3.82389 33.583 1.09346
781 1 -1.1104 3.93109 33.6872 3.94818
911 1 -1.1104 1.01375 30.6567 6.65797
912 1 -1.1104 0.946388 36.3973 6.70972
764 1 -1.1104 6.5359 36.3607 1.21175
787 1 -1.1104 6.47785 33.6512 1.16995
785 1 -1.1104 6.63871 30.8036 1.18427
767 1 -1.1104 6.81533 36.3543 4.02188
1051 2 2.2208 2.29415 37.8454 -0.344654
782 2 2.2208 -0.35388 37.6974 2.50236
917 1 -1.1104 3.67879 30.7272 6.47028
918 1 -1.1104 3.90667 36.3366 6.8422
913 1 -1.1104 6.55862 30.7934 6.60133
1328 2 2.2208 -0.391869 35.0911 -0.149815
784 2 2.2208 -0.294816 34.9655 5.17827
1327 2 2.2208 5.12527 34.9902 -0.22199
1357 2 2.2208 10.7765 34.9236 -0.240256
786 1 -1.1104 6.71622 30.6484 3.9624
772 1 -1.1104 6.62403 33.5345 3.87914
788 2 2.2208 10.8046 35.084 5.28089
789 1 -1.1104 12.2556 30.8202 1.1644
790 1 -1.1104 12.2503 36.3079 1.25443
791 1 -1.1104 12.3823 30.7802 3.99592
792 1 -1.1104 12.4134 36.4226 3.98439
793 1 -1.1104 12.2609 33.5486 1.08755
794 2 2.2208 10.9009 32.1576 2.57321
795 2 2.2208 10.8649 37.8404 2.59651
796 1 -1.1104 12.3431 33.5477 3.76864
797 1 -1.1104 9.44412 30.7732 1.15829
798 1 -1.1104 9.40234 36.4783 1.0832
799 2 2.2208 7.99888 35.0592 2.47059
800 1 -1.1104 9.56289 30.7565 3.9414
801 1 -1.1104 9.50238 36.3704 3.83589
802 2 2.2208 8.10511 32.2734 5.20375
803 2 2.2208 8.15202 37.8628 5.39274
804 1 -1.1104 9.32829 33.6613 1.07456
805 1 -1.1104 9.54815 33.5461 3.9651
945 1 -1.1104 12.2915 30.802 6.79794
950 1 -1.1104 9.45527 33.496 6.78163