ITEM: TIMESTEP
20000
ITEM: NUMBER OF ATOMS
17820
ITEM: BOX BOUNDS pp pp pp
-3.5784389881390810e-01 2.7697843898813900e+01
-4.4453537562926266e+00 3.3252535375628906e+02
-3.5995529870429810e-01 2.7699955298704520e+01
ITEM: ATOMS id type q x y z
1 2 2.2208 5.18832 1.01798 5.17816
2 1 -1.1104 0.956147 -3.14881 1.04361
3 1 -1.1104 0.990092 2.521 1.10902
6 1 -1.1104 0.940177 -3.18404 3.82073
7 1 -1.1104 0.98474 2.51776 3.95491
10 1 -1.1104 1.0448 -0.423055 0.976127
12 2 2.2208 5.2041 -1.70113 2.48987
13 2 2.2208 5.15183 3.94702 2.48397
14 1 -1.1104 0.936591 -0.371686 3.91115
16 1 -1.1104 3.72788 -3.08848 1.03141
17 1 -1.1104 3.79716 2.51116 1.04853
18 2 2.2208 2.34716 1.10853 2.41869
19 1 -1.1104 3.81325 -3.03908 3.95355
20 1 -1.1104 3.90717 2.46509 3.88927
21 2 2.2208 2.28956 -1.64525 5.23519
22 2 2.2208 2.50713 3.9489 5.3398
23 1 -1.1104 3.71387 -0.189586 0.872333
24 1 -1.1104 3.80728 -0.348225 3.73255
172 1 -1.1104 3.89695 -3.10156 6.5492
4 1 -1.1104 6.27429 -3.25727 1.20706
166 1 -1.1104 1.04383 -2.96131 6.5932
11 1 -1.1104 6.45334 -0.202492 1.41121
5 1 -1.1104 6.63564 2.7478 1.22863
174 1 -1.1104 3.85618 -0.368316 6.63443
15 1 -1.1104 6.57618 -0.370933 3.92231
351 2 2.2208 2.46156 3.91903 -0.328553
26 2 2.2208 -0.354538 1.19305 5.2934
9082 2 2.2208 -0.352541 -1.70096 2.46877
349 2 2.2208 5.25158 1.12803 -0.230688
9086 2 2.2208 -0.346442 1.1874 -0.235391
8 1 -1.1104 6.82234 -3.20515 3.99398
169 1 -1.1104 6.67614 2.66591 6.61172
52 2 2.2208 10.8531 -4.40314 5.223
51 2 2.2208 7.96166 -4.40264 2.4464
9 1 -1.1104 6.70579 2.49841 3.89339
31 2 2.2208 10.9638 1.09191 5.19653
32 1 -1.1104 12.2098 -3.16595 1.1326
33 1 -1.1104 12.2209 2.34759 1.15147
34 1 -1.1104 12.184 -2.93683 3.96344
35 1 -1.1104 12.4095 2.64016 3.82905
36 1 -1.1104 12.3139 -0.332282 1.02082
37 2 2.2208 10.8922 -1.73267 2.31955
38 2 2.2208 10.9163 3.97515 2.41153
39 1 -1.1104 12.2906 -0.223681 3.81527
40 1 -1.1104 9.45971 -3.37736 1.26037
41 1 -1.1104 9.47691 2.54432 1.2193
42 2 2.2208 8.12714 1.1362 2.54634
43 1 -1.1104 9.51619 -2.89427 3.80523
44 1 -1.1104 9.56998 2.62105 3.87556
45 2 2.2208 7.97864 -1.6751 5.33329
46 2 2.2208 8.06223 4.00695 5.18572
47 1 -1.1104 9.44248 -0.165684 1.09526
48 1 -1.1104 9.54138 -0.170874 3.83252
209 1 -1.1104 9.48048 2.58569 6.63788
207 1 -1.1104 12.2223 -0.272631 6.61673
610 2 2.2208 10.8803 0.993588 -0.271277
50 2 2.2208 13.6488 -1.64244 5.27879
206 1 -1.1104 12.2604 2.5313 6.4623
611 2 2.2208 8.02413 3.93166 -0.220012
54 2 2.2208 5.38157 6.68533 5.24867
55 2 2.2208 5.24831 12.317 5.31044
56 1 -1.1104 0.840164 8.16094 0.862808
58 1 -1.1104 1.0138 8.17128 3.72523
60 1 -1.1104 1.05969 5.31358 1.05426
61 1 -1.1104 0.91929 10.9796 1.01561
66 2 2.2208 5.19472 9.47754 2.37439
67 1 -1.1104 1.01081 5.20923 3.98346
68 1 -1.1104 1.07675 10.7947 3.89157
71 1 -1.1104 3.57063 8.00848 0.901401
72 2 2.2208 2.38384 6.55052 2.52277
73 2 2.2208 2.33972 12.3622 2.41883
74 1 -1.1104 3.83649 7.86536 3.79364
75 2 2.2208 2.35148 9.53789 5.19581
76 1 -1.1104 3.76126 5.324 1.01451
77 1 -1.1104 3.72916 10.8438 0.975567
79 1 -1.1104 3.6044 5.1465 3.8247
80 1 -1.1104 3.77541 10.9504 3.73873
239 1 -1.1104 3.9901 5.49955 6.63067
70 1 -1.1104 6.56768 10.824 3.73609
59 1 -1.1104 6.59154 8.14509 3.79924
78 1 -1.1104 3.92025 10.9435 6.5734
57 1 -1.1104 6.59474 8.15256 1.03614
63 1 -1.1104 6.50662 5.51578 1.08916
69 1 -1.1104 6.61272 5.37543 3.86077
234 1 -1.1104 0.859266 8.08069 6.63343
83 2 2.2208 -0.321894 12.245 5.08749
64 1 -1.1104 6.70199 11.068 0.941714
84 2 2.2208 10.7354 6.7804 5.15026
85 2 2.2208 10.9023 12.32 5.2668
86 1 -1.1104 12.3234 8.22147 1.01347
87 1 -1.1104 12.1222 8.31685 3.81874
88 1 -1.1104 12.2067 5.29447 0.988073
89 1 -1.1104 12.1724 11.005 1.02471
91 2 2.2208 10.8138 9.58937 2.36515
92 1 -1.1104 12.2218 5.4843 3.77109
93 1 -1.1104 12.1145 11.0983 3.75863
94 1 -1.1104 9.61081 8.21015 0.882858
95 2 2.2208 8.0349 6.84274 2.35829
96 2 2.2208 7.99288 12.3432 2.49398
97 1 -1.1104 9.35963 8.28739 3.7191
98 2 2.2208 8.03535 9.53944 5.29329
99 1 -1.1104 9.48996 5.42637 1.09723
100 1 -1.1104 9.37421 10.8639 0.900847
102 1 -1.1104 9.42683 5.47606 3.77177
103 1 -1.1104 9.32106 11.0266 3.77292
265 1 -1.1104 12.319 8.06396 6.56345
266 1 -1.1104 12.355 5.31522 6.56349
90 1 -1.1104 12.3406 10.9646 6.55438
65 1 -1.1104 6.68477 10.9178 6.65117
104 2 2.2208 13.5851 12.2819 2.54835
269 1 -1.1104 9.42212 5.43908 6.5945
101 1 -1.1104 9.54044 10.9842 6.55978
237 1 -1.1104 6.73838 5.38237 6.60569
267 1 -1.1104 9.34028 8.2309 6.61459
105 2 2.2208 13.599 6.74802 2.54359
358 2 2.2208 10.8956 6.73924 -0.266195
671 2 2.2208 10.7719 12.3808 -0.337575
106 2 2.2208 5.22479 17.8561 5.21996
107 1 -1.1104 0.886881 13.6845 1.0578
109 1 -1.1104 1.01166 19.4961 1.1003
113 1 -1.1104 1.03871 13.7327 3.82133
114 1 -1.1104 0.989112 19.5356 3.8904
116 1 -1.1104 0.959459 16.5993 1.14233
119 2 2.2208 5.14593 15.0837 2.54885
120 2 2.2208 5.26698 20.9406 2.48342
121 1 -1.1104 1.03447 16.7319 3.81478
123 1 -1.1104 3.68849 13.6812 1.08265
125 1 -1.1104 3.77332 19.4856 1.03631
127 2 2.2208 2.36607 18.0707 2.56632
128 1 -1.1104 3.82468 13.6449 3.79009
129 1 -1.1104 3.80122 19.3385 3.98034
130 2 2.2208 2.46054 15.0488 5.22495
131 2 2.2208 2.39652 20.8114 5.15539
132 1 -1.1104 3.85614 16.4274 1.00754
134 1 -1.1104 3.82853 16.4463 3.88649
110 1 -1.1104 6.47281 13.8099 1.10509
138 1 -1.1104 6.65123 19.4607 1.04929
140 1 -1.1104 6.56255 16.6778 1.14696
139 1 -1.1104 6.65177 19.4359 3.79224
302 1 -1.1104 0.952469 19.416 6.58735
108 1 -1.1104 1.10123 13.717 6.60282
118 1 -1.1104 6.64926 16.5916 6.49441
133 1 -1.1104 3.78681 16.6034 6.62435
117 1 -1.1104 1.09189 16.4851 6.59568
361 2 2.2208 5.11578 18.0472 -0.327267
136 2 2.2208 -0.311039 20.9019 2.43842
584 2 2.2208 10.8223 17.9314 -0.345712
115 1 -1.1104 6.67768 13.8116 3.97617
163 1 -1.1104 9.50922 16.6931 6.54944
122 1 -1.1104 6.75072 16.443 3.93051
141 2 2.2208 11.0462 17.8112 5.32888
142 1 -1.1104 12.3863 13.7661 1.20589
144 1 -1.1104 12.1753 19.1314 1.15224
146 1 -1.1104 12.3374 13.6442 3.84166
147 1 -1.1104 12.279 19.2947 3.83511
148 1 -1.1104 12.2162 16.4073 1.02058
150 2 2.2208 10.9069 15.2444 2.51821
151 2 2.2208 10.78 20.5186 2.47977
152 1 -1.1104 12.4124 16.6021 3.92531
153 1 -1.1104 9.39875 13.8125 1.1216
155 1 -1.1104 9.56249 19.3524 1.082
157 2 2.2208 7.95021 17.9331 2.4909
158 1 -1.1104 9.55979 13.6848 4.16205
159 1 -1.1104 9.46728 19.4212 3.77758
160 2 2.2208 8.07263 15.0775 5.32136
161 2 2.2208 8.00337 20.8097 5.3226
162 1 -1.1104 9.28906 16.5852 1.17387
164 1 -1.1104 9.62343 16.487 3.8894
143 1 -1.1104 12.3577 13.6492 6.48199
145 1 -1.1104 12.1345 19.2772 6.61863
396 2 2.2208 13.6568 20.6585 -0.226692
112 1 -1.1104 6.66685 19.3033 6.55957
333 2 2.2208 13.5453 20.6483 5.18946
348 2 2.2208 7.9449 15.238 -0.331029
589 2 2.2208 7.87748 20.8037 -0.328659
170 1 -1.1104 0.971306 -0.12278 6.6645
8417 2 2.2208 5.26354 -4.42846 10.7908
168 1 -1.1104 6.59065 -3.05859 6.75543
171 1 -1.1104 6.64073 -0.178013 6.7576
352 2 2.2208 -0.286695 3.99903 13.6315
201 2 2.2208 -0.328766 1.07687 10.8567
173 1 -1.1104 3.86918 2.53023 6.72925
167 1 -1.1104 1.11916 2.4474 6.70714
175 2 2.2208 5.36984 1.20197 10.8029
176 1 -1.1104 1.02211 -2.88973 12.2237
177 1 -1.1104 1.00347 2.57072 12.291
180 1 -1.1104 1.04135 -2.94388 9.47309
181 1 -1.1104 1.1964 2.50132 9.45259
184 1 -1.1104 0.989539 -0.20994 12.2968
186 2 2.2208 5.31157 -1.66087 8.07101
187 2 2.2208 5.27245 3.96161 8.05983
188 1 -1.1104 1.11156 -0.195819 9.37272
190 1 -1.1104 3.99847 -3.01042 12.1912
191 1 -1.1104 3.77805 2.67625 12.1662
192 2 2.2208 2.44719 1.09171 8.08281
193 1 -1.1104 3.81148 -3.03856 9.4215
194 1 -1.1104 4.01364 2.57045 9.4159
195 2 2.2208 2.48321 -1.66243 10.8063
197 1 -1.1104 3.76262 -0.19102 12.1514
198 1 -1.1104 3.87918 -0.255361 9.43237
196 2 2.2208 2.54207 3.9618 10.8604
200 2 2.2208 -0.278466 -1.67094 8.01437
178 1 -1.1104 6.62772 -3.11599 12.3068
183 1 -1.1104 6.62966 2.62473 9.38512
400 2 2.2208 5.26917 4.14312 13.5154
199 2 2.2208 -0.325201 3.90648 8.05043
340 2 2.2208 5.2097 -1.62421 13.5991
342 2 2.2208 8.18085 -4.35425 13.6517
208 1 -1.1104 9.35826 -3.00149 6.71551
210 1 -1.1104 9.56221 -0.167331 6.71021
233 2 2.2208 13.6622 -4.43438 8.14469
229 2 2.2208 13.6559 1.15893 8.07851
232 2 2.2208 10.8534 -4.43072 10.8018
431 2 2.2208 7.97945 1.05233 13.6052
179 1 -1.1104 6.68612 2.72269 12.2115
231 2 2.2208 8.12754 -4.44033 7.88643
205 1 -1.1104 12.1811 -3.03715 6.77617
185 1 -1.1104 6.68882 -0.20674 12.2347
182 1 -1.1104 6.69307 -3.08428 9.4736
189 1 -1.1104 6.67935 -0.319647 9.44833
211 2 2.2208 10.8744 1.26698 10.7151
212 1 -1.1104 12.2592 -3.02292 12.3237
213 1 -1.1104 12.3635 2.66488 12.2375
214 1 -1.1104 12.3638 -3.09775 9.46895
215 1 -1.1104 12.3357 2.6377 9.38344
216 1 -1.1104 12.0676 -0.0998582 12.3357
217 2 2.2208 10.8091 -1.66118 8.05117
218 2 2.2208 10.8978 3.97071 8.02823
219 1 -1.1104 12.3092 -0.233705 9.441
220 1 -1.1104 9.51163 -3.02169 12.2363
221 1 -1.1104 9.47457 2.60605 12.4118
222 2 2.2208 8.07987 1.27721 7.98866
223 1 -1.1104 9.4837 -3.06859 9.41258
224 1 -1.1104 9.49251 2.64547 9.47347
225 2 2.2208 8.00695 -1.56159 10.9536
226 2 2.2208 8.12115 4.04831 10.7318
227 1 -1.1104 9.419 -0.241401 12.3463
228 1 -1.1104 9.54254 -0.245693 9.60433
230 2 2.2208 13.6678 -1.61971 10.892
433 2 2.2208 10.865 3.9762 13.4853
62 1 -1.1104 1.04432 10.8352 6.74022
238 1 -1.1104 3.73051 8.26863 6.6674
204 2 2.2208 -0.344183 9.54826 8.16984
236 1 -1.1104 1.13707 5.27652 6.70303
240 2 2.2208 5.37251 6.85077 10.9137
241 2 2.2208 5.12516 12.4523 10.8176
242 1 -1.1104 1.03707 8.08019 12.2569
244 1 -1.1104 1.09447 8.12062 9.39522
246 1 -1.1104 1.13435 5.26918 12.2906
247 1 -1.1104 1.20786 10.9439 12.2314
250 2 2.2208 5.30685 9.55528 8.02478
251 1 -1.1104 1.05119 5.28003 9.60708
252 1 -1.1104 0.886674 10.9565 9.54199
255 1 -1.1104 3.86229 8.22015 12.1831
256 2 2.2208 2.54801 6.83877 8.17548
257 2 2.2208 2.42414 12.2635 7.98335
258 1 -1.1104 3.89036 8.08391 9.3541
259 2 2.2208 2.45292 9.62791 10.7692
260 1 -1.1104 3.95995 5.46796 12.2186
261 1 -1.1104 3.90063 11.0394 12.2309
262 1 -1.1104 4.03591 5.34831 9.50629
263 1 -1.1104 3.77851 11.0296 9.34497
245 1 -1.1104 6.57151 8.24816 9.43472
254 1 -1.1104 6.61882 10.9865 9.39568
339 2 2.2208 -0.325893 12.3416 10.9471
203 2 2.2208 -0.296438 6.72869 10.8923
345 2 2.2208 5.29699 9.67099 13.6697
343 2 2.2208 -0.27858 9.59968 13.5546
235 1 -1.1104 6.69936 8.2482 6.65508
243 1 -1.1104 6.86722 8.25111 12.3167
253 1 -1.1104 6.8522 5.46274 9.45788
249 1 -1.1104 6.70305 11.0527 12.1925
248 1 -1.1104 6.79139 5.49071 12.303
264 1 -1.1104 9.3386 11.039 9.52719
268 1 -1.1104 9.56225 5.36308 9.48116
270 1 -1.1104 9.38393 10.9909 12.305
271 1 -1.1104 9.52085 5.32234 12.0513
272 2 2.2208 8.09713 9.68543 10.8497
273 1 -1.1104 9.45022 8.32953 9.51356
274 2 2.2208 7.95841 12.3756 8.20313
275 2 2.2208 8.08772 6.83038 7.99066
276 2 2.2208 11.0899 6.90577 10.7834
277 2 2.2208 10.738 12.5098 10.8341
278 1 -1.1104 12.3776 8.37035 12.0716
279 1 -1.1104 12.4849 8.19453 9.31105
280 1 -1.1104 12.3131 5.5288 12.2769
281 1 -1.1104 12.1973 11.112 12.2616
282 2 2.2208 10.8341 9.63849 8.0656
283 1 -1.1104 12.3957 5.38253 9.38529
284 1 -1.1104 12.2209 11.0106 9.27284
285 1 -1.1104 9.60046 8.16367 12.1776
471 2 2.2208 10.7928 9.68967 13.5869
496 2 2.2208 8.16451 6.83998 13.6183
497 2 2.2208 5.22187 15.1717 13.6005
126 1 -1.1104 3.90606 19.245 6.668
124 1 -1.1104 3.78545 13.6467 6.66277
111 1 -1.1104 6.59441 13.7768 6.7517
305 1 -1.1104 3.77103 13.7884 9.49783
304 1 -1.1104 3.8475 16.4914 9.49006
306 1 -1.1104 6.64521 16.5695 12.2182
288 1 -1.1104 6.54907 19.3205 9.26543
297 1 -1.1104 6.53199 13.8409 12.3547
309 2 2.2208 2.29645 20.682 10.897
308 1 -1.1104 3.98225 16.4852 12.3052
307 1 -1.1104 1.14363 16.499 12.2625
289 1 -1.1104 6.63156 16.5781 9.27359
290 1 -1.1104 6.61303 13.7895 9.65484
310 2 2.2208 2.41516 15.1122 10.9103
286 1 -1.1104 3.8948 19.2483 12.1418
287 1 -1.1104 3.80703 13.7969 12.3661
291 1 -1.1104 0.882711 19.1277 9.60342
292 1 -1.1104 1.20399 16.4186 9.47822
293 2 2.2208 5.08432 20.6854 8.08068
294 1 -1.1104 0.830584 13.645 9.51441
295 2 2.2208 5.21517 15.0881 7.98431
298 1 -1.1104 0.99232 19.1988 12.3485
299 1 -1.1104 1.14872 13.7594 12.3978
300 2 2.2208 5.32046 17.8716 10.7255
301 1 -1.1104 3.75762 19.3071 9.49992
303 2 2.2208 2.43156 17.8133 8.06856
347 2 2.2208 2.5524 17.9588 13.5791
532 2 2.2208 5.17627 20.6475 13.4719
325 2 2.2208 10.8386 15.1571 8.08268
315 1 -1.1104 9.37184 16.6013 12.2482
324 2 2.2208 10.8884 20.8237 8.0387
156 1 -1.1104 9.40105 19.559 6.73633
318 1 -1.1104 9.38001 19.3208 9.39627
330 1 -1.1104 12.0502 13.8919 12.1359
27 2 2.2208 13.6615 18.028 8.00333
317 2 2.2208 7.8907 15.2056 10.9101
326 1 -1.1104 12.1828 16.5905 12.2334
154 1 -1.1104 9.36982 13.7627 6.88587
329 1 -1.1104 12.2794 19.3464 12.1962
314 1 -1.1104 9.27044 16.6055 9.43639
323 1 -1.1104 12.2943 16.5298 9.56321
53 2 2.2208 10.7474 17.9753 10.8533
328 1 -1.1104 12.157 13.7597 9.40196
321 1 -1.1104 9.39939 19.2138 12.2854
322 1 -1.1104 9.3286 13.9261 12.2086
316 2 2.2208 7.96638 20.7125 10.6904
319 1 -1.1104 9.34153 13.8175 9.40044
149 1 -1.1104 12.3154 16.4538 6.76241
296 1 -1.1104 6.65695 19.4618 12.2941
320 2 2.2208 8.02299 18.0081 7.87348
327 1 -1.1104 12.2396 19.3346 9.43654
534 2 2.2208 7.93874 17.9835 13.5547
25 2 2.2208 13.5902 15.1495 10.8776
533 2 2.2208 13.6665 17.9724 13.5996
559 2 2.2208 10.7087 15.315 13.5869
364 2 2.2208 5.28352 1.1942 16.4221
365 1 -1.1104 1.00361 2.18424 18.0419
368 1 -1.1104 0.944797 -2.88418 15.2615
369 1 -1.1104 1.07133 2.48147 15.0921
375 1 -1.1104 1.06579 -0.66462 17.9204
377 2 2.2208 5.25781 4.17711 19.1473
378 1 -1.1104 1.1222 -0.105993 15.0743
382 1 -1.1104 3.82344 2.63243 18.1576
383 2 2.2208 2.45502 1.05087 19.2696
384 1 -1.1104 3.80232 -2.96677 15.1598
385 1 -1.1104 3.81558 2.62983 15.1896
387 2 2.2208 2.54131 -1.47297 16.3061
388 2 2.2208 2.43265 3.92139 16.4848
389 1 -1.1104 3.67634 -0.172375 17.7289
390 1 -1.1104 3.98302 -0.172441 14.9214
367 1 -1.1104 6.48885 2.75157 17.8056
373 1 -1.1104 6.619 2.54339 14.9564
380 1 -1.1104 6.56318 -0.27485 14.9703
8515 2 2.2208 5.33742 -4.44514 16.334
9134 2 2.2208 -0.301274 1.1037 16.4988
391 1 -1.1104 1.30419 -0.300289 20.676
374 1 -1.1104 6.53652 2.64977 20.6777
341 2 2.2208 2.50152 1.26398 13.6827
366 1 -1.1104 6.66652 -3.13735 17.777
9354 2 2.2208 13.6206 -4.39666 19.3215
371 1 -1.1104 6.80551 -3.08851 15.0626
376 1 -1.1104 6.75782 0.137809 17.6287
401 2 2.2208 10.7829 1.07445 16.3999
402 1 -1.1104 12.4098 -3.08476 17.8571
403 1 -1.1104 12.3697 2.57655 17.8688
404 1 -1.1104 12.2298 -3.14495 15.1238
406 1 -1.1104 12.2756 2.41541 15.1418
408 1 -1.1104 12.247 -0.1644 17.7788
409 2 2.2208 10.7737 -1.62953 19.2767
410 2 2.2208 10.9167 3.92038 19.337
411 1 -1.1104 12.2154 -0.296071 15.068
413 1 -1.1104 9.51416 -2.99196 17.702
414 1 -1.1104 9.49715 2.6801 17.95
415 2 2.2208 7.97831 1.21728 19.2505
416 1 -1.1104 9.594 -3.19203 15.065
418 1 -1.1104 9.59346 2.53452 14.9937
420 2 2.2208 8.03988 -1.7038 16.5023
421 2 2.2208 8.19431 3.92314 16.4857
422 1 -1.1104 9.34311 -0.180648 17.8635
423 1 -1.1104 9.40492 -0.478649 15.1615
412 1 -1.1104 12.4168 -0.330825 20.5299
417 1 -1.1104 9.00328 -3.03433 20.4823
405 1 -1.1104 11.9242 -3.15088 20.5652
419 1 -1.1104 9.3259 2.58133 20.5876
424 1 -1.1104 9.48696 -0.250579 20.6124
432 2 2.2208 10.8038 -1.74299 13.7033
646 2 2.2208 13.6443 3.95444 16.5353
429 2 2.2208 13.6232 -1.64029 16.4505
434 2 2.2208 5.19371 6.75195 16.4466
435 2 2.2208 5.19586 12.4695 16.4654
436 1 -1.1104 1.10692 8.06939 17.7812
438 1 -1.1104 1.11346 8.17503 15.112
442 1 -1.1104 0.960629 5.14884 17.8108
443 1 -1.1104 0.880467 11.0051 18.0607
446 2 2.2208 5.21769 9.53217 19.3077
447 1 -1.1104 1.07416 5.32818 15.1214
449 1 -1.1104 0.862138 10.8897 15.0611
455 1 -1.1104 3.73313 8.26239 17.7378
456 2 2.2208 2.40254 6.66286 19.2133
457 2 2.2208 2.41408 12.3342 19.3323
458 1 -1.1104 3.94727 8.24197 14.9341
460 2 2.2208 2.29998 9.55359 16.5497
461 1 -1.1104 3.7476 5.46657 17.8031
462 1 -1.1104 3.75265 11.0351 17.9808
463 1 -1.1104 3.97348 5.4228 15.0792
465 1 -1.1104 3.87196 11.0438 15.1071
459 1 -1.1104 3.87974 8.2288 20.4938
453 1 -1.1104 6.61358 11.0346 15.0562
437 1 -1.1104 6.58326 8.30031 17.9894
439 1 -1.1104 1.01278 7.96454 20.6259
452 1 -1.1104 6.65014 5.45842 20.5702
344 2 2.2208 2.5548 12.3419 13.7647
346 2 2.2208 2.49946 6.80762 13.7035
469 2 2.2208 13.5074 12.4249 13.7231
445 1 -1.1104 6.71513 11.0735 17.8398
451 1 -1.1104 6.67316 5.44707 15.0538
440 1 -1.1104 6.75114 8.1424 15.1003
444 1 -1.1104 6.68434 5.48997 17.8378
472 2 2.2208 10.9106 6.92751 16.1684
473 2 2.2208 10.7431 12.3445 16.4713
474 1 -1.1104 12.2825 8.22018 17.9083
475 1 -1.1104 12.3543 8.18617 15.0922
477 1 -1.1104 12.395 5.38428 17.872
478 1 -1.1104 12.3078 11.0006 17.9609
479 2 2.2208 10.9229 9.59514 19.3941
480 1 -1.1104 12.3094 5.30035 15.0399
482 1 -1.1104 12.109 11.0132 15.0742
484 1 -1.1104 9.40873 8.2678 17.7445
485 2 2.2208 8.16481 6.80147 19.2641
486 2 2.2208 8.09307 12.4389 19.3123
487 1 -1.1104 9.45561 8.35502 14.9489
489 2 2.2208 8.08772 9.67492 16.3758
490 1 -1.1104 9.6475 5.50516 17.775
491 1 -1.1104 9.54529 10.9187 17.8315
492 1 -1.1104 9.46102 5.45425 15.0117
494 1 -1.1104 9.33391 11.1491 15.0877
495 1 -1.1104 9.41138 11.0657 20.569
481 1 -1.1104 12.251 5.2395 20.6218
583 2 2.2208 13.5761 6.7073 19.3679
470 2 2.2208 8.01501 12.5743 13.742
531 2 2.2208 13.5608 12.3257 19.2341
454 1 -1.1104 6.72141 10.9554 20.6447
615 2 2.2208 -0.300801 20.8707 19.3583
354 2 2.2208 -0.327744 15.0661 13.7033
498 2 2.2208 5.19734 17.9359 16.3651
499 1 -1.1104 1.10537 13.7159 17.7624
500 1 -1.1104 1.05367 19.2808 17.7193
503 1 -1.1104 1.04242 13.772 15.0577
505 1 -1.1104 1.0391 19.4421 15.1165
511 1 -1.1104 1.04278 16.5529 17.8402
513 2 2.2208 5.13901 15.1143 19.2632
514 2 2.2208 5.18502 20.914 19.0618
515 1 -1.1104 1.05376 16.4692 15.1595
519 1 -1.1104 3.80363 13.787 17.8321
520 1 -1.1104 3.84186 19.2954 17.9189
521 2 2.2208 2.49692 17.9555 19.2432
522 1 -1.1104 3.80071 13.8376 15.1467
524 1 -1.1104 3.75639 19.3781 14.9911
526 2 2.2208 2.46645 15.2227 16.4791
527 2 2.2208 2.475 20.7812 16.3999
528 1 -1.1104 3.77095 16.5055 17.9314
529 1 -1.1104 3.77113 16.5865 15.0874
517 1 -1.1104 6.40835 16.5313 15.002
502 1 -1.1104 6.56085 19.4943 17.7583
507 1 -1.1104 6.57301 13.8811 14.9714
509 1 -1.1104 6.59661 19.3016 14.965
512 1 -1.1104 6.58639 16.6217 17.7819
510 1 -1.1104 6.58805 19.4718 20.6706
613 2 2.2208 -0.250641 15.1456 19.0744
504 1 -1.1104 0.968646 13.7899 20.5641
506 1 -1.1104 1.13029 19.4686 20.6415
523 1 -1.1104 3.81677 13.8126 20.6586
516 1 -1.1104 1.01669 16.7327 20.5133
398 2 2.2208 13.537 17.9689 19.1977
501 1 -1.1104 6.72123 13.8505 17.8668
535 2 2.2208 10.8768 17.996 16.3781
536 1 -1.1104 12.1793 13.6718 17.8473
537 1 -1.1104 12.2303 19.5352 17.7351
538 1 -1.1104 12.2397 13.8562 15.1527
540 1 -1.1104 12.3828 19.3696 15.0306
542 1 -1.1104 12.2159 16.4924 17.7439
543 2 2.2208 10.7612 15.2383 19.2575
544 2 2.2208 10.6383 20.6169 19.1559
545 1 -1.1104 12.1413 16.5986 14.9979
547 1 -1.1104 9.51591 13.8233 17.7974
548 1 -1.1104 9.24319 19.338 17.908
549 2 2.2208 7.82535 18.0488 19.3667
550 1 -1.1104 9.4842 13.7912 14.9071
552 1 -1.1104 9.36614 19.456 15.1374
554 2 2.2208 8.1017 15.2839 16.4929
555 2 2.2208 8.02643 20.8025 16.4131
556 1 -1.1104 9.3634 16.7416 17.971
557 1 -1.1104 9.20877 16.7035 15.1486
616 2 2.2208 13.6307 20.8523 16.284
546 1 -1.1104 12.1562 16.4973 20.6583
541 1 -1.1104 12.2212 19.4117 20.6314
551 1 -1.1104 9.45046 13.9004 20.6668
399 2 2.2208 13.5752 15.2173 16.4422
560 2 2.2208 10.819 20.7575 13.7128
370 1 -1.1104 0.943676 2.54398 20.7842
386 1 -1.1104 3.75345 2.30541 20.8707
379 1 -1.1104 1.06509 -2.91613 20.9764
9140 2 2.2208 -0.331278 -1.7969 24.914
561 2 2.2208 5.41554 1.16501 22.0018
562 1 -1.1104 0.874793 -3.13831 23.5439
563 1 -1.1104 1.16085 2.45871 23.4304
566 1 -1.1104 1.14537 -3.11005 26.3181
567 1 -1.1104 1.05789 2.78853 26.2442
569 1 -1.1104 0.923522 -0.33874 23.6123
571 2 2.2208 5.47129 -1.68651 24.8147
573 1 -1.1104 1.08351 -0.0696852 26.3928
574 1 -1.1104 3.60386 -3.55496 23.2551
575 1 -1.1104 3.94759 2.31744 23.5979
576 2 2.2208 2.40958 1.25499 24.9413
577 1 -1.1104 3.85404 -3.13186 26.1054
578 1 -1.1104 3.83843 2.56825 26.4106
579 2 2.2208 2.27562 -1.81798 22.4012
580 2 2.2208 2.54452 4.00944 22.2005
581 1 -1.1104 4.03838 -0.586592 22.9824
582 1 -1.1104 3.7807 -0.314291 25.8992
572 2 2.2208 5.26908 3.97225 24.8277
372 1 -1.1104 6.4793 -3.03352 22.9165
609 1 -1.1104 6.61347 -0.14922 26.2532
8769 1 -1.1104 6.42418 -3.30851 25.9444
350 2 2.2208 2.57644 -1.70501 27.6425
568 1 -1.1104 6.57387 2.67993 26.3543
619 2 2.2208 13.6663 1.18944 25.047
588 2 2.2208 13.5921 3.87756 22.2124
570 1 -1.1104 6.7056 -0.0933326 23.5187
381 1 -1.1104 6.71572 -0.0698059 20.7017
565 1 -1.1104 6.71893 2.68264 23.627
407 1 -1.1104 12.1458 2.49393 20.6968
564 1 -1.1104 8.96329 -3.05239 23.3434
595 2 2.2208 10.9139 1.27081 22.1473
596 1 -1.1104 12.3544 -3.15967 23.2156
597 1 -1.1104 12.1213 2.70349 23.6402
598 1 -1.1104 12.3507 -3.36595 26.5076
599 1 -1.1104 12.2114 2.70153 26.486
600 1 -1.1104 12.6295 0.22373 23.226
602 1 -1.1104 12.1867 -0.160858 26.4232
603 1 -1.1104 9.38745 2.63406 23.5287
604 2 2.2208 7.99118 1.19005 25.0116
605 1 -1.1104 9.42112 2.45965 26.5404
606 2 2.2208 8.02289 -1.45334 22.0698
608 1 -1.1104 9.47118 -0.168268 23.5072
607 2 2.2208 8.11772 3.89459 22.1319
601 2 2.2208 10.7859 4.02249 25.0466
618 2 2.2208 13.6649 -1.65372 22.0756
356 2 2.2208 5.14712 12.3441 27.6963
393 2 2.2208 -0.308392 6.70671 22.1949
650 2 2.2208 -0.334256 12.4332 22.0858
464 1 -1.1104 3.91983 5.32158 20.6876
450 1 -1.1104 1.04274 10.9775 20.728
645 2 2.2208 5.25058 6.755 27.6776
448 1 -1.1104 1.04129 5.27197 20.7138
466 1 -1.1104 3.79634 11.0217 20.7733
620 2 2.2208 5.26386 6.83136 22.1252
621 2 2.2208 5.20863 12.3414 22.0895
622 1 -1.1104 0.945255 8.20518 23.3083
624 1 -1.1104 0.899176 8.21986 25.9048
626 1 -1.1104 1.0346 5.37381 23.5741
627 1 -1.1104 0.978753 11 23.4614
630 2 2.2208 5.22235 9.5882 24.7221
631 1 -1.1104 0.969715 5.49558 26.2413
632 1 -1.1104 0.918798 10.9204 26.392
635 1 -1.1104 3.75315 8.15103 23.2682
636 2 2.2208 2.46203 6.80021 24.972
637 2 2.2208 2.3965 12.3187 24.9123
638 1 -1.1104 3.68441 8.32554 26.2237
639 2 2.2208 2.37714 9.50437 21.9892
640 1 -1.1104 3.96288 5.31084 23.5074
641 1 -1.1104 3.76806 10.9409 23.5482
642 1 -1.1104 3.87746 5.53234 26.3402
643 1 -1.1104 3.83983 11.0292 26.1945
623 1 -1.1104 6.56468 8.16175 23.4638
625 1 -1.1104 6.51345 8.14863 26.2043
629 1 -1.1104 6.5438 10.8899 23.4053
355 2 2.2208 2.38875 9.58417 27.6441
674 2 2.2208 13.5878 6.57756 24.9292
672 2 2.2208 13.6426 12.2942 24.8899
441 1 -1.1104 6.8351 8.26414 20.8508
397 2 2.2208 13.6081 9.55949 22.0827
634 1 -1.1104 6.68858 11.0241 26.2665
493 1 -1.1104 9.42782 5.33275 20.7027
488 1 -1.1104 9.57937 8.14326 20.6985
483 1 -1.1104 12.1648 10.9841 20.8596
633 1 -1.1104 6.67109 5.36229 26.2239
628 1 -1.1104 6.80964 5.48207 23.2655
476 1 -1.1104 12.1738 8.14829 20.6881
651 1 -1.1104 9.40554 11.1036 26.1349
652 1 -1.1104 9.37602 5.29207 26.4171
653 1 -1.1104 9.352 10.9782 23.4916
654 1 -1.1104 9.54855 5.34552 23.5086
655 2 2.2208 8.122 9.59693 22.0642
656 1 -1.1104 9.34199 8.29158 26.1972
657 2 2.2208 7.95033 12.3395 24.8207
658 2 2.2208 7.98743 6.84958 24.917
659 2 2.2208 10.9267 6.69072 22.0637
660 2 2.2208 10.7985 12.3847 22.0994
661 1 -1.1104 12.2986 8.10337 23.4098
662 1 -1.1104 12.0896 8.14222 26.2352
663 1 -1.1104 12.2634 5.36852 23.4011
664 1 -1.1104 12.2215 10.9024 23.6165
665 2 2.2208 10.8973 9.58277 24.8448
666 1 -1.1104 12.1782 5.36481 26.3405
667 1 -1.1104 12.2734 11.08 26.2759
668 1 -1.1104 9.39888 8.22112 23.4351
359 2 2.2208 8.00556 9.51325 27.6665
673 2 2.2208 13.5731 9.58252 27.6348
362 2 2.2208 2.37845 15.2475 27.6965
530 1 -1.1104 3.81739 16.5439 20.7664
518 1 -1.1104 6.61196 16.7422 20.7155
711 1 -1.1104 6.3744 19.5657 26.3794
525 1 -1.1104 3.79208 19.312 20.7759
682 1 -1.1104 6.65013 19.4775 23.5258
676 1 -1.1104 6.45765 13.7254 26.2906
693 1 -1.1104 6.55037 16.6537 23.5339
696 2 2.2208 2.42252 20.6596 22.0739
695 1 -1.1104 3.76007 16.5353 23.5581
694 1 -1.1104 0.844169 16.5656 23.51
692 1 -1.1104 3.55215 13.8488 26.2373
691 1 -1.1104 3.73715 16.6275 26.2404
690 2 2.2208 2.2861 17.9923 24.9312
689 1 -1.1104 3.69664 19.4109 26.386
697 2 2.2208 2.32846 15.2045 22.0045
675 1 -1.1104 3.82425 19.3422 23.5636
677 1 -1.1104 3.77864 13.6147 23.454
679 1 -1.1104 1.00027 19.434 26.312
680 1 -1.1104 0.942726 16.5572 26.1562
681 1 -1.1104 0.777492 13.6288 26.2773
683 2 2.2208 5.20977 20.9203 24.8587
684 2 2.2208 5.04658 15.0991 24.7956
686 1 -1.1104 1.01884 19.3733 23.3704
687 1 -1.1104 0.986972 13.8396 23.3741
688 2 2.2208 5.27414 18.0594 22.1732
685 1 -1.1104 6.63165 13.6979 23.4479
360 2 2.2208 2.46409 20.8841 27.639
710 1 -1.1104 9.26864 13.7715 26.4871
702 1 -1.1104 9.39936 19.4377 23.5714
553 1 -1.1104 9.54408 19.2515 20.8528
558 1 -1.1104 9.44496 16.6624 20.7381
712 2 2.2208 8.04681 17.9573 24.9853
392 2 2.2208 13.6184 15.1171 22.0884
644 1 -1.1104 12.3789 19.3817 23.4469
594 1 -1.1104 12.1334 13.7073 23.5627
670 2 2.2208 10.7885 15.1291 24.9899
678 1 -1.1104 6.75902 16.6991 26.4049
669 1 -1.1104 12.3071 16.6456 23.529
508 1 -1.1104 6.67372 13.7711 20.714
647 1 -1.1104 12.104 13.7891 26.314
708 2 2.2208 7.96382 15.2258 22.1241
698 2 2.2208 10.8485 20.8231 24.9882
700 1 -1.1104 9.36221 13.6572 23.4258
706 1 -1.1104 9.3968 16.49 23.639
699 1 -1.1104 12.2816 16.4869 26.397
539 1 -1.1104 12.24 13.7453 20.7037
709 1 -1.1104 9.28859 19.4199 26.4028
707 2 2.2208 7.96734 20.833 22.1468
593 2 2.2208 10.9577 18.0095 22.1652
648 1 -1.1104 12.2382 19.5339 26.2949
705 1 -1.1104 9.50818 16.5936 26.2559
713 2 2.2208 5.37822 23.4751 5.27534
714 2 2.2208 5.22307 29.1109 5.27861
715 1 -1.1104 1.08568 24.9887 1.01113
716 1 -1.1104 1.17959 25.1231 3.74196
717 1 -1.1104 1.19333 22.1877 1.01698
718 1 -1.1104 1.1277 27.831 1.01257
719 2 2.2208 5.43596 26.2822 2.49112
720 1 -1.1104 1.03407 22.4324 3.96239
721 1 -1.1104 1.06468 27.7811 3.73273
722 1 -1.1104 4.08725 24.9908 1.12501
723 2 2.2208 2.48829 23.6977 2.51237
724 2 2.2208 2.51899 29.1731 2.41669
725 1 -1.1104 3.93489 25.0575 3.85513
726 2 2.2208 2.4093 26.3547 5.29116
727 1 -1.1104 3.75498 22.3303 0.946587
728 1 -1.1104 4.03733 27.7574 1.06648
729 1 -1.1104 3.94027 22.2703 3.6629
730 1 -1.1104 3.94296 27.7427 3.99408
856 1 -1.1104 1.07172 22.1997 6.647
859 1 -1.1104 6.49165 27.8145 6.60766
736 1 -1.1104 6.59761 22.1694 1.09978
1270 2 2.2208 -0.259655 23.5447 -0.311035
731 2 2.2208 -0.335145 29.181 5.21337
861 1 -1.1104 3.77325 22.0862 6.5485
860 1 -1.1104 3.78334 24.8697 6.60391
1267 2 2.2208 2.54985 26.4376 -0.271537
734 1 -1.1104 6.88603 25.0695 0.989267
738 1 -1.1104 6.73615 22.2037 3.90498
739 1 -1.1104 6.67452 27.7245 3.69562
735 1 -1.1104 6.74074 24.9402 3.88932
737 1 -1.1104 6.7472 27.7823 1.09386
740 2 2.2208 10.8499 23.5368 5.39267
741 2 2.2208 10.8487 29.2173 5.11497
742 1 -1.1104 12.2204 25.0135 0.95416
743 1 -1.1104 12.3053 24.9848 3.99206
744 1 -1.1104 12.3096 22.0449 1.06107
745 1 -1.1104 12.2042 27.8807 1.16544
746 2 2.2208 10.8416 26.4153 2.40813
747 1 -1.1104 12.1902 22.1189 3.88394
748 1 -1.1104 12.4399 27.8064 3.86326
749 1 -1.1104 9.635 25.0123 1.12453
750 2 2.2208 8.19237 23.5469 2.473
751 2 2.2208 8.02987 29.1806 2.44408
752 1 -1.1104 9.44797 24.9306 3.86353
753 2 2.2208 7.95765 26.3414 5.26806
754 1 -1.1104 9.33558 22.1772 1.05118
755 1 -1.1104 9.56764 27.8495 1.06416
756 1 -1.1104 9.48783 22.2157 3.935
757 1 -1.1104 9.53235 27.8015 3.81764
888 1 -1.1104 12.3787 22.04 6.54575
889 1 -1.1104 12.0926 27.8469 6.63085
758 2 2.2208 13.6345 23.5242 2.51154
760 2 2.2208 13.5953 26.4084 5.34005
1296 2 2.2208 10.8126 23.4693 -0.258471
1302 2 2.2208 10.8439 29.3091 -0.24308
1051 2 2.2208 2.30334 37.615 -0.289491
761 2 2.2208 5.27382 34.7793 5.29305
762 1 -1.1104 1.092 30.6633 1.04016
763 1 -1.1104 1.01502 36.1387 1.02568
765 1 -1.1104 1.04498 30.7102 3.87587
766 1 -1.1104 1.08223 36.1788 3.85906
768 1 -1.1104 0.980487 33.339 1.01407
769 2 2.2208 5.32336 32.0201 2.40914
770 2 2.2208 5.19827 37.5277 2.56267
771 1 -1.1104 1.11907 33.3973 3.86409
773 1 -1.1104 3.9092 30.589 1.12168
774 1 -1.1104 3.77201 36.2125 1.02193
775 2 2.2208 2.53077 34.7516 2.43515
776 1 -1.1104 3.86215 30.5998 3.85826
777 1 -1.1104 3.84253 36.0857 4.03292
778 2 2.2208 2.38214 31.9568 5.24749
779 2 2.2208 2.50793 37.6037 5.39664
780 1 -1.1104 4.00958 33.4703 1.11033
781 1 -1.1104 3.94646 33.419 3.73444
772 1 -1.1104 6.64754 33.4645 3.88819
912 1 -1.1104 1.04736 36.3516 6.62325
764 1 -1.1104 6.46679 36.0466 1.1293
919 1 -1.1104 3.75924 33.2965 6.65092
783 2 2.2208 -0.267397 32.0826 2.52678
784 2 2.2208 -0.348243 34.9229 5.32983
915 1 -1.1104 0.91605 33.3962 6.64561
911 1 -1.1104 1.11329 30.6753 6.60234
917 1 -1.1104 3.78296 30.361 6.56105
782 2 2.2208 -0.305093 37.5547 2.46007
1326 2 2.2208 2.50859 31.9609 -0.282157
786 1 -1.1104 6.6719 30.6835 3.7306
767 1 -1.1104 6.65691 36.2781 4.06735
787 1 -1.1104 6.89803 33.3649 1.06201
913 1 -1.1104 6.66526 30.5383 6.65105
1352 2 2.2208 13.6116 37.6472 -0.267826
785 1 -1.1104 6.68847 30.645 0.815536
788 2 2.2208 10.8316 34.7627 5.31331
789 1 -1.1104 12.2774 30.6468 1.06163
790 1 -1.1104 12.2225 36.1368 0.99868
791 1 -1.1104 12.2891 30.5741 3.9339
792 1 -1.1104 12.2289 36.1466 3.75805
793 1 -1.1104 12.3609 33.392 0.976595
794 2 2.2208 10.913 32.1105 2.43991
795 2 2.2208 10.8155 37.5943 2.5004
796 1 -1.1104 12.1954 33.4367 3.90718
797 1 -1.1104 9.4809 30.604 1.02316
798 1 -1.1104 9.45883 36.2394 1.19746
799 2 2.2208 8.07258 34.7747 2.65879
800 1 -1.1104 9.47095 30.661 3.82126
801 1 -1.1104 9.5155 36.1884 3.81846
802 2 2.2208 7.9272 31.955 5.28501
803 2 2.2208 8.09795 37.6958 5.33713
804 1 -1.1104 9.54835 33.4338 1.05709
805 1 -1.1104 9.56938 33.506 3.80797
948 1 -1.1104 9.29257 30.3624 6.62626
806 2 2.2208 13.623 34.8069 2.41464
1031 2 2.2208 13.5926 31.9777 5.19806
1356 2 2.2208 8.11683 32.01 -0.350147
1030 2 2.2208 13.4467 37.5724 5.26553
950 1 -1.1104 9.29117 33.2776 6.47396
1355 2 2.2208 8.08491 37.5422 -0.259016