LAMMPS (29 Oct 2020)
OMP_NUM_THREADS environment is not set. Defaulting to 1 thread. (../comm.cpp:94)
  using 1 OpenMP thread(s) per MPI task
OMP_NUM_THREADS environment is not set. Defaulting to 1 thread. (../comm.cpp:94)
  using 1 OpenMP thread(s) per MPI task
Reading data file ...
  triclinic box = (-0.1230606 -1.4901673 -0.12583423) to (28.017061 336.21817 28.019834) with tilt (0.0000000 0.0000000 0.0000000)
  2 by 13 by 2 MPI processor grid
  reading atoms ...
  18001 atoms
  reading velocities ...
  18001 velocities
Finding 1-2 1-3 1-4 neighbors ...
  special bond factors lj:    0.0      0.0      0.0     
  special bond factors coul:  0.0      0.0      0.0     
     0 = max # of 1-2 neighbors
     0 = max # of 1-3 neighbors
     0 = max # of 1-4 neighbors
     1 = max # of special neighbors
  special bonds CPU = 0.003 seconds
  read_data CPU = 0.074 seconds
Setting atom values ...
  12000 settings made for charge
Setting atom values ...
  6001 settings made for charge
PPPM initialization ...
WARNING: System is not charge neutral, net charge = 2.2208000 (../kspace.cpp:313)
  using 12-bit tables for long-range coulomb (../kspace.cpp:328)
  G vector (1/distance) = 0.29867623
  grid = 40 240 40
  stencil order = 5
  estimated absolute RMS force accuracy = 0.00015902646
  estimated relative force accuracy = 1.1043776e-05
  using single precision MKL FFT
  3d grid and FFT values/proc = 15000 7600
Neighbor list info ...
  update every 1 steps, delay 0 steps, check yes
  max neighbors/atom: 2000, page size: 100000
  master list distance cutoff = 11.3
  ghost atom cutoff = 11.3
  binsize = 5.65, bins = 5 60 5
  2 neighbor lists, perpetual/occasional/extra = 2 0 0
  (1) pair coul/long, perpetual
      attributes: half, newton on
      pair build: half/bin/newton/tri
      stencil: half/bin/3d/newton/tri
      bin: standard
  (2) pair eam/alloy, perpetual, copy from (1)
      attributes: half, newton on
      pair build: copy
      stencil: none
      bin: none
Setting up Verlet run ...
  Unit style    : metal
  Current step  : 0
  Time step     : 0.001
Per MPI rank memory allocation (min/avg/max) = 8.324 | 8.352 | 8.369 Mbytes
Step Temp E_pair E_mol TotEng Press 
       0          600   -234671.13            0   -233275.12   -110.54202 
  100000    594.86702    -234662.3            0   -233278.23      231.488 
Loop time of 680.073 on 52 procs for 100000 steps with 18001 atoms

Performance: 12.705 ns/day, 1.889 hours/ns, 147.043 timesteps/s
99.8% CPU use with 52 MPI tasks x 1 OpenMP threads

MPI task timing breakdown:
Section |  min time  |  avg time  |  max time  |%varavg| %total
---------------------------------------------------------------
Pair    | 451.7      | 465.96     | 478.48     |  28.2 | 68.52
Bond    | 0.0069756  | 0.010933   | 0.015355   |   1.8 |  0.00
Kspace  | 128.75     | 143.96     | 158.2      |  60.2 | 21.17
Neigh   | 47.711     | 50.317     | 54.682     |  23.7 |  7.40
Comm    | 14.272     | 15.304     | 17.238     |  20.9 |  2.25
Output  | 5.4004e-05 | 6.103e-05  | 0.00031129 |   0.0 |  0.00
Modify  | 1.8211     | 3.2534     | 5.2285     |  61.2 |  0.48
Other   |            | 1.266      |            |       |  0.19

Nlocal:        346.173 ave         370 max         328 min
Histogram: 4 7 8 8 6 5 6 1 6 1
Nghost:        4090.90 ave        4208 max        4001 min
Histogram: 3 8 11 8 3 6 1 3 3 6
Neighs:        69864.7 ave       75236 max       65444 min
Histogram: 3 5 7 8 9 6 4 4 4 2

Total # of neighbors = 3632966
Ave neighs/atom = 201.82023
Ave special neighs/atom = 0.0000000
Neighbor list builds = 16238
Dangerous builds = 0
12000 atoms in group oxygen
PPPM initialization ...
  using 12-bit tables for long-range coulomb (../kspace.cpp:328)
  G vector (1/distance) = 0.29867623
  grid = 40 240 40
  stencil order = 5
  estimated absolute RMS force accuracy = 0.00015902646
  estimated relative force accuracy = 1.1043776e-05
  using single precision MKL FFT
  3d grid and FFT values/proc = 15000 7600
Setting up Verlet run ...
  Unit style    : metal
  Current step  : 0
  Time step     : 0.001
Per MPI rank memory allocation (min/avg/max) = 8.575 | 8.603 | 8.619 Mbytes
Step f_2 Temp v_Tdiff v_deltaT 
       0            0    594.86702            0            0 
  100000    653.39085    595.77049  0.022580708    262.15992 
  200000     1278.678    601.89583  0.026920068    312.53948 
  300000    1908.5733    597.37202  0.025894489    300.63261 
  400000    2534.3024    602.39384  0.026279125     305.0982 
  500000    3158.2309    601.50845  0.026583347    308.63019 
  600000    3784.4286     604.2975    0.0266468    309.36687 
  700000    4410.9028    600.04764  0.027197485    315.76028 
  800000    5043.0734    600.38617  0.026236421    304.60241 
  900000     5674.998    602.74693  0.026480428    307.43531 
 1000000    6306.8602    596.67806  0.025996233    301.81386 
 1100000    6938.2651    602.08019  0.026805156    311.20537 
 1200000    7565.4373     603.4933   0.02701393    313.62922 
 1300000     8190.211     604.1212  0.026582073    308.61539 
 1400000    8821.0879    602.67837  0.026645475    309.35149 
 1500000     9455.228    603.43281  0.026603554    308.86479 
Loop time of 10065.2 on 52 procs for 1500000 steps with 18001 atoms

Performance: 12.876 ns/day, 1.864 hours/ns, 149.028 timesteps/s
99.8% CPU use with 52 MPI tasks x 1 OpenMP threads

MPI task timing breakdown:
Section |  min time  |  avg time  |  max time  |%varavg| %total
---------------------------------------------------------------
Pair    | 6680.2     | 6850.6     | 7054       | 103.6 | 68.06
Bond    | 0.097552   | 0.16721    | 0.21236    |   6.6 |  0.00
Kspace  | 1910.7     | 2151.1     | 2320.7     | 213.6 | 21.37
Neigh   | 741        | 780.45     | 849.2      |  85.3 |  7.75
Comm    | 214.26     | 229.65     | 262.84     |  81.2 |  2.28
Output  | 0.0015712  | 0.0016562  | 0.0037036  |   0.7 |  0.00
Modify  | 8.12       | 8.8377     | 9.5138     |  12.0 |  0.09
Other   |            | 44.36      |            |       |  0.44

Nlocal:        346.173 ave         364 max         325 min
Histogram: 1 3 2 10 9 8 7 3 4 5
Nghost:        4105.71 ave        4187 max        4022 min
Histogram: 3 3 7 7 1 11 6 8 3 3
Neighs:        69859.5 ave       74069 max       64786 min
Histogram: 1 2 2 8 8 10 10 5 4 2

Total # of neighbors = 3632696
Ave neighs/atom = 201.80523
Ave special neighs/atom = 0.0000000
Neighbor list builds = 252183
Dangerous builds = 0
Total wall time: 2:59:05
