LAMMPS (29 Oct 2020)
OMP_NUM_THREADS environment is not set. Defaulting to 1 thread. (../comm.cpp:94)
  using 1 OpenMP thread(s) per MPI task
OMP_NUM_THREADS environment is not set. Defaulting to 1 thread. (../comm.cpp:94)
  using 1 OpenMP thread(s) per MPI task
Reading data file ...
  orthogonal box = (-0.27717828 -3.4472206 -0.27717828) to (27.617178 331.52722 27.617178)
  2 by 13 by 2 MPI processor grid
  reading atoms ...
  18000 atoms
  reading velocities ...
  18000 velocities
Finding 1-2 1-3 1-4 neighbors ...
  special bond factors lj:    0.0      0.0      0.0     
  special bond factors coul:  0.0      0.0      0.0     
     0 = max # of 1-2 neighbors
     0 = max # of 1-3 neighbors
     0 = max # of 1-4 neighbors
     1 = max # of special neighbors
  special bonds CPU = 0.003 seconds
  read_data CPU = 0.055 seconds
120 atoms in group Th_delete
240 atoms in group O_delete
360 atoms in group delete
WARNING: Ignoring 'compress yes' for molecular system (../delete_atoms.cpp:125)
Deleted 360 atoms, new total = 17640
Setting atom values ...
  11760 settings made for charge
Setting atom values ...
  5880 settings made for charge
PPPM initialization ...
  using 12-bit tables for long-range coulomb (../kspace.cpp:328)
  G vector (1/distance) = 0.29912164
  grid = 40 240 40
  stencil order = 5
  estimated absolute RMS force accuracy = 0.00015376724
  estimated relative force accuracy = 1.0678544e-05
  using single precision MKL FFT
  3d grid and FFT values/proc = 18225 7600
Neighbor list info ...
  update every 1 steps, delay 0 steps, check yes
  max neighbors/atom: 2000, page size: 100000
  master list distance cutoff = 13
  ghost atom cutoff = 13
  binsize = 6.5, bins = 5 52 5
  2 neighbor lists, perpetual/occasional/extra = 2 0 0
  (1) pair coul/long, perpetual
      attributes: half, newton on
      pair build: half/bin/newton
      stencil: half/bin/3d/newton
      bin: standard
  (2) pair eam/alloy, perpetual, copy from (1)
      attributes: half, newton on
      pair build: copy
      stencil: none
      bin: none
Setting up cg style minimization ...
  Unit style    : metal
  Current step  : 0
WARNING: Energy due to 3 extra global DOFs will be included in minimizer energies
Per MPI rank memory allocation (min/avg/max) = 9.468 | 10.10 | 10.28 Mbytes
Step Temp E_pair E_mol TotEng Press Volume 
       0            0   -230608.63            0   -230608.63   -4106.1171    260641.98 
     262            0   -231333.88            0   -231333.88     33.89544    261397.04 
Loop time of 4.6067 on 52 procs for 262 steps with 17640 atoms

99.5% CPU use with 52 MPI tasks x 1 OpenMP threads

Minimization stats:
  Stopping criterion = linesearch alpha is zero
  Energy initial, next-to-last, final = 
     -230608.627667571  -231333.884336859  -231333.884336859
  Force two-norm initial, final = 1200.5509 19.907016
  Force max component initial, final = 885.21993 12.831226
  Final line search alpha, max atom move = 2.5060126e-11 3.2155214e-10
  Iterations, force evaluations = 262 436

MPI task timing breakdown:
Section |  min time  |  avg time  |  max time  |%varavg| %total
---------------------------------------------------------------
Pair    | 2.7155     | 2.8363     | 2.9261     |   3.0 | 61.57
Bond    | 4.0562e-05 | 5.6823e-05 | 7.9908e-05 |   0.0 |  0.00
Kspace  | 0.69476    | 0.78631    | 0.90968    |   5.7 | 17.07
Neigh   | 0.0076306  | 0.009095   | 0.010534   |   0.6 |  0.20
Comm    | 0.0727     | 0.073945   | 0.077653   |   0.3 |  1.61
Output  | 0          | 0          | 0          |   0.0 |  0.00
Modify  | 0          | 0          | 0          |   0.0 |  0.00
Other   |            | 0.901      |            |       | 19.56

Nlocal:        339.231 ave         372 max         303 min
Histogram: 2 5 2 8 7 8 10 2 5 3
Nghost:        5528.67 ave        5657 max        5381 min
Histogram: 1 6 6 5 6 6 8 3 7 4
Neighs:       107330.0 ave      118418 max       94139 min
Histogram: 2 3 3 6 6 10 9 5 4 4

Total # of neighbors = 5581164
Ave neighs/atom = 316.39252
Ave special neighs/atom = 0.0000000
Neighbor list builds = 3
Dangerous builds = 0
Resetting atom IDs ...
PPPM initialization ...
  using 12-bit tables for long-range coulomb (../kspace.cpp:328)
  G vector (1/distance) = 0.29907536
  grid = 40 240 40
  stencil order = 5
  estimated absolute RMS force accuracy = 0.00015410438
  estimated relative force accuracy = 1.0701957e-05
  using single precision MKL FFT
  3d grid and FFT values/proc = 18225 7600
Finding 1-2 1-3 1-4 neighbors ...
  special bond factors lj:    0.0      0.0      0.0     
  special bond factors coul:  0.0      0.0      0.0     
     0 = max # of 1-2 neighbors
     0 = max # of 1-3 neighbors
     0 = max # of 1-4 neighbors
     1 = max # of special neighbors
  special bonds CPU = 0.001 seconds
PPPM initialization ...
  using 12-bit tables for long-range coulomb (../kspace.cpp:328)
  G vector (1/distance) = 0.29907536
  grid = 40 240 40
  stencil order = 5
  estimated absolute RMS force accuracy = 0.00015410438
  estimated relative force accuracy = 1.0701957e-05
  using single precision MKL FFT
  3d grid and FFT values/proc = 18225 7600
Setting up Verlet run ...
  Unit style    : metal
  Current step  : 262
  Time step     : 0.001
Per MPI rank memory allocation (min/avg/max) = 8.344 | 9.120 | 9.151 Mbytes
Step Dt Time Atoms Temp PotEng KinEng Press Volume 
     262        0.001            0    17640         1200   -231333.89    2736.0236    11213.705    261397.04 
   20000        0.001       19.738    17640    1210.6148   -228702.91    2760.2255    526.85448    270007.27 
   40000        0.001       39.738    17640    1208.7395   -228752.58    2755.9499   -1624.3582    270199.05 
   60000        0.001       59.738    17640    1198.3404   -228699.77    2732.2396   -949.56075    270280.03 
   80000        0.001       79.738    17640    1203.3687   -228705.36    2743.7043    377.35332    270077.49 
  100000        0.001       99.738    17640    1192.8995   -228696.12    2719.8343       977.68    269885.83 
  100262        0.001          100    17640    1203.3439    -228732.8    2743.6477    485.58184    269891.69 
Loop time of 814.205 on 52 procs for 100000 steps with 17640 atoms

Performance: 10.612 ns/day, 2.262 hours/ns, 122.819 timesteps/s
99.8% CPU use with 52 MPI tasks x 1 OpenMP threads

MPI task timing breakdown:
Section |  min time  |  avg time  |  max time  |%varavg| %total
---------------------------------------------------------------
Pair    | 510.77     | 522.63     | 540.17     |  30.7 | 64.19
Bond    | 0.0097702  | 0.0136     | 0.019675   |   1.8 |  0.00
Kspace  | 145.96     | 164.11     | 176.41     |  56.3 | 20.16
Neigh   | 7.1665     | 7.6648     | 8.2078     |   8.8 |  0.94
Comm    | 15.991     | 16.577     | 17.004     |   5.1 |  2.04
Output  | 0.023526   | 0.023551   | 0.024592   |   0.1 |  0.00
Modify  | 91.413     | 95.813     | 99.447     |  20.5 | 11.77
Other   |            | 7.368      |            |       |  0.90

Nlocal:        339.231 ave         362 max         313 min
Histogram: 1 3 2 7 12 8 7 7 2 3
Nghost:        5446.00 ave        5577 max        5317 min
Histogram: 3 8 2 6 8 4 7 6 4 4
Neighs:       103722.0 ave      113131 max       93779 min
Histogram: 2 2 4 8 8 9 10 6 1 2

Total # of neighbors = 5393570
Ave neighs/atom = 305.75794
Ave special neighs/atom = 0.0000000
Neighbor list builds = 2726
Dangerous builds = 0
WARNING: Shell command 'mkdir' failed with error 'File exists' (../input.cpp:1197)
System init for write_data ...
PPPM initialization ...
  using 12-bit tables for long-range coulomb (../kspace.cpp:328)
  G vector (1/distance) = 0.29847839
  grid = 40 240 40
  stencil order = 5
  estimated absolute RMS force accuracy = 0.00015895485
  estimated relative force accuracy = 1.1038803e-05
  using single precision MKL FFT
  3d grid and FFT values/proc = 18225 7600
Total wall time: 0:13:39
