ITEM: TIMESTEP
100000
ITEM: NUMBER OF ATOMS
18000
ITEM: BOX BOUNDS xy xz yz pp pp pp
-1.4290561724159001e-01 2.8036905617240933e+01 0.0000000000000000e+00
-1.6686907024029805e+00 3.3639669070238602e+02 0.0000000000000000e+00
-1.2497727382723529e-01 2.8018977273826788e+01 0.0000000000000000e+00
ITEM: ATOMS id type x y z
1 1 1.13501 -0.152679 1.05492
2 1 4.10304 -0.293756 1.24477
3 1 3.92311 -0.263557 4.1274
4 1 1.26426 -0.164904 3.86768
5 1 1.33728 2.63866 1.196
6 1 4.29904 2.49339 1.33648
7 1 3.94813 2.58915 4.0707
8 1 1.15625 2.55862 4.18928
9 1 6.73893 -0.226658 1.26412
10 1 9.54639 -0.455801 1.21349
11 1 9.59611 -0.241495 3.9605
12 1 6.64665 -0.406553 4.07691
13 1 7.00027 2.64029 1.00869
14 1 9.65287 2.46899 1.20536
15 1 9.85333 2.47737 4.20179
16 1 6.88477 2.41788 3.98926
17 1 12.3627 -0.336081 1.14963
18 1 12.2552 -0.359351 4.14473
19 1 12.1692 2.59911 1.19197
20 1 12.4866 2.40062 4.04561
21 1 1.28349 5.38118 1.29782
22 1 4.13331 5.21921 1.24521
23 1 4.297 5.39641 4.21991
24 1 1.31688 5.35943 4.08322
25 1 0.993986 8.14544 1.28719
26 1 3.75202 8.13918 1.30742
27 1 3.83801 8.23989 4.10253
28 1 0.997556 7.94089 4.21782
29 1 7.00464 5.40309 1.22971
30 1 9.60143 5.44848 1.16374
31 1 9.77986 5.19259 4.03222
32 1 6.96061 5.15412 4.0296
33 1 6.63317 8.24038 1.33867
34 1 9.5972 8.16827 1.26256
35 1 9.60172 8.25429 4.23755
36 1 6.65577 7.96976 3.97372
37 1 12.3933 5.36606 1.27237
38 1 12.4419 5.40965 3.93474
39 1 12.3503 8.34959 1.29156
40 1 12.5162 8.14134 4.21085
41 1 1.05713 10.8992 1.2914
42 1 3.86825 10.989 1.35524
43 1 4.08504 11.2077 4.22024
44 1 1.2304 10.8827 4.07049
45 1 1.13071 13.8091 1.21969
46 1 3.82378 13.9673 1.44095
47 1 3.96701 13.9934 4.18223
48 1 1.17558 13.7305 3.96246
49 1 6.53394 11.2579 1.12738
50 1 9.41945 10.9982 1.16314
51 1 9.72998 11.0722 3.95494
52 1 6.93721 10.8412 4.14492
53 1 6.87897 14.0479 1.26365
54 1 9.58714 13.9318 1.28598
55 1 9.60922 13.8688 4.06429
56 1 6.88734 13.7299 3.87213
57 1 12.3503 11.0465 1.18614
58 1 12.4806 11.0103 4.05037
59 1 12.3899 13.8559 1.2961
60 1 12.2776 13.7617 3.99515
61 1 1.09001 16.5588 1.14764
62 1 3.92009 16.68 1.31193
63 1 3.90323 16.7786 4.18151
64 1 1.1935 16.4849 4.21135
65 1 1.2447 19.4457 1.34831
66 1 3.86449 19.4139 1.32658
67 1 3.92888 19.449 4.00542
68 1 1.05625 19.3364 3.8545
69 1 6.81455 16.5906 1.33436
70 1 9.6711 16.8025 1.12875
71 1 9.56037 16.7196 4.17724
72 1 6.56309 16.7156 4.35634
73 1 6.73009 19.5326 1.25751
74 1 9.39268 19.5666 1.32524
75 1 12.325 19.3613 3.95663
76 1 6.75495 19.591 3.93476
77 1 12.3517 16.5889 1.22719
78 1 12.3109 16.7403 3.98211
79 1 12.3607 22.2409 1.47179
80 1 12.2693 19.2823 1.17059
81 1 0.994519 22.3396 1.2954
82 1 3.81216 22.2669 1.45779
83 1 4.06179 22.3822 4.22636
84 1 1.18664 22.1547 4.0979
85 1 6.51505 22.3284 1.22627
86 1 9.63677 22.1473 1.21539
87 1 9.57537 22.1359 3.93278
88 1 6.86486 22.381 3.98313
12146 2 2.46643 20.7272 13.9293
90 1 12.2395 22.0154 3.9684
91 1 1.06723 -0.26691 6.72363
92 1 3.74294 -0.273357 6.97047
93 1 3.94331 2.66041 9.64591
94 1 1.21237 -0.0846337 9.64951
95 1 1.07425 2.4679 6.87148
96 1 4.00557 2.50298 6.65865
97 1 3.88585 5.25346 9.78399
98 1 1.01087 2.75623 9.66637
99 1 6.69278 2.42917 6.78213
100 1 9.58483 2.28602 6.79353
101 1 9.77882 5.12248 9.87816
102 1 6.75823 2.51841 9.67501
103 1 6.83017 5.28232 6.8556
104 1 9.70437 5.28313 6.93718
105 1 8.44264 6.83463 8.35344
106 1 6.60879 5.38141 9.77302
107 1 12.2634 -0.170458 6.7824
108 1 12.4985 -0.445831 9.70349
109 1 12.3267 2.46927 6.98282
110 1 12.3152 2.48599 9.75049
111 1 1.05117 5.3386 6.93194
112 1 3.98105 5.41497 6.91918
113 1 3.95416 7.97248 9.91543
114 1 1.16065 5.43825 9.73754
115 1 1.24032 8.04552 6.97217
116 1 4.07861 8.11635 7.07249
117 1 6.71612 11.6894 9.82119
118 1 1.24897 8.26697 9.88827
119 1 6.81849 8.20243 6.75145
120 1 9.77443 8.39951 6.82126
121 1 9.89969 8.45039 9.81675
122 1 6.65773 8.65009 9.69955
123 1 6.75493 10.9203 7.21274
124 1 9.6058 11.2288 6.82065
125 1 9.33403 11.1823 9.34632
126 2 8.25341 9.20298 8.27605
127 1 12.5408 5.18858 6.77946
128 1 12.4845 5.27977 9.50976
129 1 12.5545 8.0618 7.06589
130 1 12.5711 8.23843 9.80441
131 1 0.914947 10.9212 6.72484
132 1 3.77625 10.9566 6.93014
133 1 4.01161 10.9673 9.86019
134 1 1.32316 11.2114 9.45256
135 1 1.30115 13.6777 7.13853
136 1 4.12625 13.8441 6.97442
137 1 3.92034 13.7122 9.82461
138 1 1.10828 13.7497 9.71144
139 1 6.93177 13.7432 6.64707
140 1 9.55227 13.8778 6.89457
141 1 9.56788 14.1702 9.49362
142 1 6.71645 14.0075 9.44533
143 1 9.52918 16.6555 6.87807
144 1 12.4328 16.5266 6.93222
145 1 9.52971 16.7246 9.76199
146 1 6.71987 16.5928 7.15341
147 1 12.5095 11.0078 6.81546
148 1 12.3677 10.9899 9.86947
149 1 12.2444 13.7572 6.84019
150 1 12.3634 13.8164 9.90898
151 1 1.18339 16.531 6.94256
152 1 3.92044 16.4812 6.99212
153 1 4.03103 16.5567 10.0607
154 1 1.3245 16.6016 9.73261
155 1 1.09587 19.35 6.80235
156 1 4.09891 19.2492 6.704
157 1 3.90147 19.5305 9.55805
158 1 0.971798 19.3049 9.48409
159 1 6.76756 19.3996 6.79697
160 1 9.37432 19.487 6.93389
161 1 9.41961 19.5225 9.75881
162 1 6.77476 16.7168 9.76178
163 1 9.62216 19.3496 3.98081
164 1 12.255 19.3056 6.91296
165 1 12.2697 19.4822 9.64838
166 1 6.80049 19.5473 9.76139
15051 2 13.7332 1.04338 5.6116
168 1 12.3094 16.6026 9.61252
12055 2 5.08585 -1.63896 5.548
15116 2 13.6904 17.9709 11.2036
171 1 1.02901 22.2756 7.0117
172 1 3.98793 22.0981 6.9589
173 1 3.85172 22.4944 9.82708
174 1 1.0108 22.1078 9.71897
175 1 6.70183 22.3108 6.87443
176 1 9.64658 22.1858 6.96468
177 1 9.46628 22.2718 9.86696
178 1 6.73575 22.2941 9.65912
179 1 12.2205 22.0827 6.8843
180 1 12.1615 22.2805 9.69858
181 1 1.06221 -0.222473 12.4133
182 1 3.91148 -0.250063 12.4833
183 1 1.10428 2.64559 12.4789
184 1 3.97222 2.56628 12.5314
185 1 6.82337 -0.388807 12.6036
186 1 9.48257 2.44231 9.7546
187 1 6.77666 2.48259 12.6063
188 1 9.82191 2.47114 12.4584
189 1 12.4786 2.38232 12.5001
190 1 12.4335 5.30499 12.2351
191 1 1.26948 5.32238 12.6761
192 1 4.10536 5.40843 12.6327
193 1 1.05886 8.05201 12.774
194 1 4.18156 8.30646 12.5934
195 1 6.77029 5.37722 12.5367
196 1 9.62811 5.37689 12.52
197 1 7.01354 8.08588 12.36
198 1 9.65082 8.19047 12.4979
12081 2 -0.131505 14.8582 5.58425
200 1 12.6507 8.17566 12.5064
201 1 1.26135 10.9474 12.4732
202 1 3.86464 11.1446 12.7009
203 1 0.950341 13.8423 12.4847
204 1 3.98431 13.7627 12.7523
205 1 6.62962 10.7888 12.5623
206 1 9.61998 10.9723 12.4677
207 1 6.704 13.607 12.4897
208 1 9.50952 13.8565 12.5268
209 1 12.412 11.0225 12.7665
210 1 12.3181 13.7673 12.716
211 1 1.12346 16.5234 12.5502
212 1 4.19397 16.6113 12.7048
213 1 1.21738 19.4054 12.5088
214 1 4.09222 19.5133 12.435
215 1 6.84032 16.481 12.566
216 1 9.32154 16.5651 12.5328
217 1 6.80137 19.6367 12.5489
218 1 9.66663 19.3135 12.6179
219 1 12.3643 16.5133 12.4576
220 1 12.2139 19.4543 12.453
221 1 1.07289 22.1909 12.4582
222 1 3.9523 22.1976 12.6643
223 1 6.63072 22.3328 12.5987
224 1 9.61264 22.2435 12.8737
225 1 12.2333 22.2807 12.5722
12125 2 10.8148 20.8208 11.2001
12110 2 11.1114 3.74462 11.0969
15081 2 13.6378 17.9405 5.57572
12124 2 8.06984 23.5576 11.2022
15111 2 13.8173 12.366 11.1569
12109 2 8.21636 6.66983 11.0146
5721 1 9.77464 -0.366473 9.85122
12008 2 5.35133 1.11837 2.63699
15101 2 13.9173 1.12908 11.1621
12010 2 11.0524 0.976111 2.67137
12123 2 5.38386 20.8956 11.0954
12108 2 5.30304 3.92738 11.1801
12013 2 2.6927 3.96225 2.54086
12122 2 2.52123 23.7204 11.2007
12107 2 2.53458 6.67825 11.2069
12112 2 2.443 12.3047 11.1718
12017 2 8.24922 3.94699 2.64407
12018 2 5.45033 6.63874 2.56983
12104 2 8.1365 0.986712 11.197
12020 2 11.0275 6.82 2.90795
5775 1 12.3756 -0.333939 12.4199
12061 2 -0.117029 4.02296 5.46155
12023 2 2.49771 9.55779 2.64295
12120 2 10.9898 15.2652 11.0353
12102 2 2.56155 1.36124 10.9866
12113 2 5.28756 9.60863 11.3436
12027 2 8.15068 9.52733 2.50681
12028 2 5.23836 12.4451 2.61033
12100 2 10.902 23.5736 8.36466
12030 2 11.1427 12.3376 2.54414
12099 2 10.7225 20.7973 5.291
12098 2 5.27956 23.7061 8.43074
12033 2 2.43121 15.2089 2.77261
15012 2 13.7647 3.91957 2.63908
12097 2 8.13828 20.8493 8.21892
12096 2 8.13697 23.7584 5.55753
12037 2 8.20987 15.4124 2.61537
12038 2 5.23631 17.9081 2.66182
12095 2 5.42714 20.9455 5.42558
12040 2 10.7754 17.9813 2.60139
15082 2 13.7112 15.0426 8.29021
12093 2 2.29319 20.6646 8.25136
12043 2 2.57411 20.7538 2.78384
12088 2 5.40584 17.9593 8.40388
12092 2 2.52454 23.5671 5.55942
12087 2 8.18619 15.5076 8.39364
12047 2 7.98784 20.8147 2.6328
12048 2 5.24107 23.6456 2.79149
12090 2 10.9744 18.0248 8.34871
12050 2 10.9113 23.5277 2.66499
12119 2 8.05264 18.0403 11.1329
12052 2 2.53593 1.13197 5.45429
12086 2 8.14211 18.0761 5.50585
12118 2 5.39901 15.1117 11.2296
12026 2 8.15425 12.5283 -0.0500639
12056 2 8.20644 1.0752 5.28458
5717 1 4.06669 -0.245428 9.85911
12058 2 5.42221 1.08029 8.32638
5723 1 6.52893 -0.34801 6.93381
12060 2 10.9011 1.0564 8.28077
12117 2 2.44289 18.0393 11.0692
12062 2 2.60248 6.70254 5.52112
12063 2 2.58016 3.86096 8.16986
12089 2 10.9655 15.2734 5.48461
12065 2 5.47438 3.89038 5.44969
12066 2 8.1428 6.61802 5.56138
12067 2 8.1334 4.013 8.31731
12068 2 5.38871 6.71377 8.38828
12069 2 11.0334 3.74471 5.60553
12070 2 10.8607 6.64225 8.33902
12115 2 11.2168 9.33328 11.3618
12072 2 2.50881 12.3042 5.56969
12073 2 2.60285 9.42174 8.45367
12114 2 8.194 12.2324 11.5198
12075 2 5.24136 9.63457 5.41686
12076 2 8.25111 12.4268 5.17669
12077 2 8.09208 12.4786 8.10858
12078 2 5.06986 12.4202 8.40916
12079 2 11.1245 9.64358 5.39451
12080 2 11.2185 12.2657 8.34226
5726 1 6.95079 -0.455398 9.66844
12082 2 2.55191 18.0243 5.46951
12083 2 2.68213 15.1692 8.46162
5725 1 9.39305 -0.493738 6.69268
12085 2 5.32308 15.1022 5.60925
15121 2 13.4115 23.6484 11.0735
12130 2 10.9749 1.02566 13.9046
15022 2 13.8674 9.45661 2.65757
231 1 9.56252 -0.378523 12.7185
12053 2 2.57541 -1.68943 8.39829
12144 2 5.48449 18.0558 13.9313
15062 2 13.9044 3.70909 8.3371
15131 2 13.8172 3.81337 13.8866
12029 2 11.1216 9.4859 -0.107533
15002 2 13.901 -1.6301 2.7638
12007 2 8.15879 -1.61159 2.60146
15092 2 13.7395 20.6426 8.31017
12004 2 -0.0721112 1.17975 2.5212
15091 2 13.5953 23.5355 5.48328
15061 2 13.9269 6.62831 5.5985
15042 2 13.7531 20.6884 2.51873
15032 2 13.6427 15.2813 2.57378
15011 2 13.7607 6.81307 -0.209945
12133 2 8.1662 3.80525 13.7972
12145 2 10.9844 17.898 13.8679
15146 2 13.6445 20.951 13.8198
12045 2 5.28475 20.8551 -0.0914013
15041 2 13.7732 23.6627 -0.0239001
15136 2 13.8892 9.5982 13.7824
226 1 4.0684 -0.262607 15.4253
227 1 1.19795 -0.338449 15.413
228 1 4.11297 2.38437 15.2154
229 1 0.997082 2.37073 15.3779
230 1 9.53655 -0.519726 15.5489
15232 2 13.8028 15.1513 25.0888
232 1 9.77738 2.21348 15.3173
233 1 7.00951 2.58197 15.4812
234 1 12.3485 -0.320045 15.3734
235 1 12.6537 2.36683 15.23
236 1 3.99423 5.22817 15.4518
237 1 1.09393 5.22193 15.4689
238 1 3.82361 8.01759 15.3305
239 1 1.07591 8.15187 15.5223
240 1 9.7899 4.93854 15.2115
241 1 7.14754 5.47881 15.1626
242 1 9.78075 8.00729 15.3423
243 1 6.94558 8.05812 15.4731
244 1 12.499 5.25099 15.2503
245 1 12.5518 8.04764 15.281
246 1 3.91512 10.848 15.5696
247 1 1.15293 11.1979 15.3839
248 1 3.94377 13.821 15.4643
249 1 1.17701 13.6475 15.3338
250 1 9.50333 10.9703 15.3473
251 1 6.80626 10.8038 15.5106
252 1 9.40239 13.7797 15.3411
253 1 6.76506 13.7857 15.3593
254 1 12.5473 10.9447 15.3265
255 1 12.3825 13.6025 15.4418
256 1 4.02303 16.6401 15.3416
257 1 0.971309 16.6473 15.2809
258 1 4.0403 19.5539 15.3902
259 1 1.16267 19.2443 15.2384
260 1 9.34334 16.5129 15.3744
261 1 6.70665 16.6231 15.3425
262 1 9.51722 19.3602 15.3289
263 1 6.75255 19.3631 15.3625
264 1 12.2512 16.5169 15.2539
265 1 12.3435 19.6014 15.2392
266 1 4.12083 22.3534 15.4091
267 1 1.18187 22.2044 15.335
268 1 9.56244 22.1451 15.4409
269 1 6.98679 22.3101 15.4012
270 1 12.432 22.4707 15.4716
271 1 0.943872 -0.204771 18.3102
272 1 3.93265 -0.385833 18.3471
273 1 3.83443 -0.289846 20.9644
274 1 1.02043 -0.342852 21.1025
275 1 0.96899 2.44593 18.4112
276 1 3.74951 2.38941 18.1123
277 1 3.90517 2.56283 20.9096
278 1 1.21681 2.59148 21.0518
279 1 6.76904 -0.338388 18.1642
280 1 9.55698 -0.281867 18.0158
281 1 9.47556 -0.119328 21.0392
282 1 6.74831 -0.314807 21.0728
283 1 6.74153 2.27192 18.1907
284 1 9.61853 2.53553 18.0812
285 1 9.56814 2.75083 20.8956
286 1 6.76452 2.53476 21.0099
287 1 12.5905 -0.283985 17.9969
288 1 12.7582 -0.428377 21.2324
289 1 12.3816 2.64488 18.079
290 1 12.448 2.46474 20.9025
291 1 1.13421 5.46711 18.161
292 1 4.08247 5.2173 18.0495
293 1 3.95324 5.25199 20.9281
294 1 1.11858 5.31808 20.9896
295 1 1.18246 8.10044 18.3565
296 1 3.95003 8.09483 18.1299
297 1 4.05198 8.05346 21.0307
298 1 1.2547 8.06378 21.1283
299 1 6.80188 5.17139 18.0241
300 1 9.67552 5.27382 18.0578
301 1 9.38442 5.40866 20.9785
302 1 6.68187 5.33308 21.0029
303 1 6.81674 8.05375 18.255
304 1 9.46176 8.08707 17.9965
305 1 9.64433 8.03072 21.093
306 1 6.90699 8.01403 21.0107
307 1 12.545 5.44024 18.2564
308 1 12.273 5.43793 20.9115
309 1 12.3644 8.15976 18.1972
310 1 12.4243 8.24326 20.9677
311 1 1.10816 10.9758 18.2559
312 1 3.77849 10.9018 18.2608
313 1 4.12548 10.9658 21.0131
314 1 1.17483 10.8527 21.0097
315 1 1.23757 13.661 18.119
316 1 4.01402 13.7994 18.3012
317 1 3.89503 13.896 20.9108
318 1 1.12558 13.7837 20.9701
319 1 6.70741 10.7977 18.1769
320 1 9.46192 10.8494 18.2905
321 1 9.68227 10.9602 20.9857
322 1 6.89296 10.8077 21.1542
323 1 6.91737 13.754 18.0098
324 1 9.57095 13.6572 18.0525
325 1 9.65823 13.8858 20.8648
326 1 6.68906 13.7002 20.881
327 1 12.4284 11.1303 18.1495
328 1 12.5194 10.9649 21.0035
329 1 12.2844 13.9508 18.2376
330 1 12.6024 13.7366 20.9228
331 1 1.08163 16.6309 17.9322
332 1 4.00885 16.4702 18.1418
333 1 4.08716 16.7926 20.92
334 1 1.21573 16.6754 20.9725
335 1 1.18147 19.3926 17.8737
336 1 3.77564 19.2616 18.1151
337 1 3.88165 19.6415 21.0091
338 1 1.15101 19.4251 20.6855
339 1 6.79824 16.7518 18.2375
340 1 9.47135 16.5768 18.2338
341 1 9.61951 16.6486 21.0685
342 1 6.71818 16.5317 20.7425
343 1 6.60282 19.4024 18.1007
344 1 9.63058 19.4234 18.1764
345 1 9.61874 19.3642 21.0512
346 1 6.72276 19.3994 20.8521
347 1 12.2854 16.5908 18.0367
348 1 12.5444 16.5316 20.8873
349 1 12.268 19.4734 18.2743
350 1 12.4258 19.2459 20.8019
351 1 1.00896 22.3626 18.0378
352 1 4.01011 22.33 18.195
353 1 3.77904 22.3283 20.8913
354 1 1.04196 22.233 20.8769
355 1 6.67224 22.1902 18.2001
356 1 9.74726 22.3227 18.0531
357 1 9.6048 22.0204 20.9739
358 1 6.68233 22.3611 20.9037
359 1 12.6736 22.3581 18.1521
360 1 12.3552 22.1685 21.1391
361 1 1.2937 -0.158045 23.7504
362 1 3.98578 -0.596455 23.8929
363 1 3.97311 -0.192318 26.6673
364 1 1.14229 -0.360173 26.5093
365 1 0.925838 2.61159 23.7915
366 1 3.87788 2.32813 23.7517
367 1 3.77744 2.67118 26.5032
368 1 0.910273 2.48009 26.5904
369 1 6.74911 -0.405167 23.885
370 1 9.69457 -0.387735 23.7297
371 1 9.81354 -0.290342 26.7207
372 1 6.8427 -0.333916 26.5562
373 1 6.87015 2.5086 23.6841
374 1 9.45673 2.54463 23.7689
375 1 9.57546 2.70027 26.4519
376 1 6.7531 2.60189 26.4875
377 1 12.2857 -0.211222 23.8081
378 1 12.3975 -0.267825 26.4385
379 1 12.3706 2.66938 23.5898
380 1 12.4581 2.50899 26.491
381 1 0.965762 5.3234 23.859
382 1 3.80597 5.31823 23.8005
383 1 3.94469 5.29731 26.4654
384 1 1.15291 5.22542 26.751
385 1 1.03516 8.00706 23.8872
386 1 3.7918 8.1336 23.9963
387 1 4.01257 8.0198 26.7025
388 1 1.18523 8.17716 26.5499
389 1 6.54294 5.32537 23.7748
390 1 9.44222 5.34238 23.8729
391 1 9.59487 5.47831 26.5233
392 1 6.7617 5.40225 26.5939
393 1 6.67098 8.27307 23.9199
394 1 9.49828 8.18475 23.8298
395 1 9.77422 8.09777 26.6042
396 1 6.91699 8.12319 26.6233
397 1 12.224 5.27424 23.6875
398 1 12.5576 5.32888 26.7888
399 1 12.3017 8.00918 23.967
400 1 12.5066 8.04257 26.6565
401 1 1.17311 11.015 23.7358
402 1 3.99088 11.0812 23.741
403 1 3.94692 10.8735 26.6681
404 1 1.17767 11.026 26.5785
405 1 1.09029 13.9804 23.8908
406 1 3.93136 13.9183 23.8638
407 1 4.01007 13.6695 26.6875
408 1 1.2384 13.9054 26.5967
409 1 6.81453 11.0405 23.9626
410 1 9.79451 11.0928 23.6688
411 1 9.67098 10.9736 26.5634
412 1 6.97694 10.8975 26.5713
413 1 6.82865 14.0157 23.5786
414 1 9.64804 13.7608 23.6917
415 1 9.6426 13.8021 26.7552
416 1 6.92325 13.9167 26.4851
417 1 12.5098 10.9159 23.7592
418 1 12.5091 11.101 26.532
419 1 12.383 13.682 23.6623
420 1 12.2021 13.9003 26.4328
421 1 1.17046 16.8066 23.7853
422 1 3.91962 16.7914 23.8292
423 1 3.94582 16.4083 26.6176
424 1 1.19901 16.7395 26.4996
425 1 1.13788 19.4578 23.6528
426 1 3.80144 19.6885 23.8495
427 1 3.89567 19.2759 26.5744
428 1 1.28076 19.603 26.7021
429 1 6.7622 16.677 23.797
430 1 9.6139 16.4717 23.6916
431 1 9.35922 16.7005 26.4173
432 1 6.57164 16.9074 26.782
433 1 6.73318 19.5388 23.7088
434 1 9.40594 19.2553 23.6687
435 1 9.60292 19.3937 26.5728
436 1 6.89213 19.6497 26.6054
437 1 12.5858 16.5449 23.6216
438 1 12.4183 16.6112 26.6999
439 1 12.3969 19.1898 23.8447
440 1 12.3795 19.5117 26.5227
441 1 1.13198 22.2518 23.7931
442 1 3.89852 22.553 23.7832
443 1 3.8311 22.2021 26.8083
444 1 0.94024 22.3076 26.558
445 1 6.71781 22.3501 23.9606
446 1 9.60366 22.1079 23.7658
447 1 9.4897 22.3138 26.4267
448 1 6.73979 22.3936 26.6377
449 1 12.3915 22.302 24.045
450 1 12.4863 22.4273 26.6727
12006 2 8.28248 1.16207 27.9067
12250 2 10.8854 23.6638 25.1624
12032 2 2.48839 18.1129 28.0301
15141 2 13.789 15.0782 13.9978
12136 2 2.48416 9.59965 14.0404
5905 1 11.0961 -1.7048 19.6115
12249 2 11.112 20.6732 22.3817
15001 2 13.6811 1.09943 27.9463
15212 2 13.8064 3.88208 25.1639
12016 2 8.30582 6.79805 28.0172
12143 2 8.17461 15.2174 14.0372
12248 2 5.32898 23.7106 25.1989
12135 2 11.0925 6.5776 13.9191
15162 2 13.7762 3.87603 19.6164
15242 2 13.8621 20.8294 25.3661
12046 2 8.17631 23.4362 28.0552
15241 2 13.6634 23.4797 22.4584
15221 2 13.8576 12.2574 22.4088
12235 2 5.38924 15.2591 22.4423
12022 2 2.57333 12.3306 27.9873
15222 2 13.9364 9.63293 25.1978
5818 1 6.74418 -0.415709 15.2847
12019 2 10.9472 4.01257 28.0493
12153 2 2.44393 -1.62841 19.6311
12236 2 8.05128 18.071 22.3199
12247 2 8.23821 20.7482 25.2222
12152 2 2.61498 0.994049 16.8241
12225 2 5.39333 9.53943 22.3372
12246 2 8.09809 23.5853 22.0976
15181 2 13.7077 17.8169 16.6892
12156 2 8.3001 1.09579 16.7985
12229 2 11.1273 9.39902 22.3002
12158 2 5.3245 0.91445 19.5939
15192 2 13.967 20.8622 19.5664
12160 2 10.8937 0.967842 19.5952
12245 2 5.28174 20.9478 22.3991
12162 2 2.62831 6.75003 16.6234
12163 2 2.54608 3.96898 19.5647
12228 2 5.34268 12.3551 25.1309
12165 2 5.37652 3.74072 16.7414
12166 2 8.25729 6.73579 16.727
12167 2 8.14027 3.87377 19.4864
12168 2 5.36121 6.63776 19.5093
12169 2 11.1715 3.77937 16.7007
12170 2 10.8873 6.56333 19.5607
12243 2 2.57749 20.8353 25.3023
12172 2 2.57949 12.3645 16.8647
12173 2 2.59494 9.40529 19.6283
12242 2 2.40261 23.5232 22.2275
12175 2 5.4029 9.45771 16.8161
12176 2 8.10794 12.1766 16.8081
12177 2 8.14748 9.34391 19.7172
12178 2 5.38261 12.3189 19.5249
12179 2 11.1452 9.40605 16.8743
12180 2 11.0987 12.3176 19.6421
12227 2 8.31272 9.59137 25.2457
12182 2 2.55065 17.9678 16.6574
12183 2 2.55596 15.2918 19.5642
12220 2 11.0027 6.6312 25.194
12185 2 5.365 15.26 16.8261
12186 2 8.1609 17.9342 16.7835
12187 2 8.06151 14.9895 19.4988
12188 2 5.31132 18.0381 19.4651
12189 2 10.8114 15.0711 16.8383
12190 2 10.9001 17.9327 19.58
12233 2 2.56185 15.3736 25.1781
12192 2 2.65437 23.6725 16.7426
12193 2 2.54399 20.9173 19.3564
12226 2 8.26772 12.2922 22.3394
12195 2 5.50056 20.8706 16.7079
12196 2 8.19288 23.7435 16.6917
12197 2 8.16433 20.7314 19.4599
12198 2 5.24389 23.7279 19.5953
12199 2 11.0969 20.9501 16.803
12200 2 11.1461 23.5028 19.5944
12240 2 11.0159 17.8903 25.1836
12202 2 2.53665 1.07488 22.4671
12230 2 10.9505 12.5077 25.1921
12239 2 11.0878 15.0927 22.1918
12223 2 2.50628 9.60217 25.2634
12206 2 8.17238 1.10945 22.4921
12222 2 2.50747 12.3527 22.4656
12208 2 5.44931 1.05812 25.1414
12232 2 2.50306 18.201 22.2126
12210 2 11.0126 1.10276 25.167
12238 2 5.26087 18.1388 25.0479
12212 2 2.53299 6.58968 22.5213
12213 2 2.48601 3.70823 25.0208
12237 2 8.23246 15.1386 25.0497
12215 2 5.45348 3.79296 22.2753
12216 2 8.17719 6.56879 22.4162
12217 2 8.05063 4.0798 25.1146
12218 2 5.39937 6.82861 25.3251
12219 2 10.843 3.91293 22.3325
15171 2 13.8569 12.4729 16.8272
15202 2 13.793 -1.6218 25.0864
15021 2 13.8048 12.4689 27.9348
15201 2 13.8272 1.06941 22.3594
12039 2 10.979 15.1688 27.984
12134 2 5.54008 6.78956 13.9826
15031 2 13.8051 17.9806 28.085
12025 2 5.47467 9.5386 27.9792
15182 2 13.7242 15.1544 19.6919
15161 2 13.8226 6.59419 16.6542
15211 2 13.8043 6.63518 22.4183
12049 2 10.9535 20.7777 27.9053
15172 2 13.7547 9.359 19.5873
15231 2 13.9859 17.8696 22.3141
12129 2 5.46942 1.03999 13.9612
12012 2 2.45789 6.66559 27.9909
12131 2 2.45747 3.81504 14.006
12035 2 5.4018 15.1905 28.0109
12148 2 8.32554 20.7466 14.0292
12036 2 8.02264 17.9859 27.9955
12149 2 5.31993 23.7237 13.9983
12015 2 5.37403 3.99911 27.8669
12141 2 2.47082 15.2361 13.9807
12150 2 10.9212 23.7268 14.0824
12140 2 11.0116 12.3549 14.0978
12139 2 5.33022 12.2623 14.2406
12002 2 2.44648 1.06106 27.67
12042 2 2.40166 23.7456 27.8851
12138 2 8.25435 9.35606 14.1027
451 1 1.11792 25.1323 1.38021
452 1 4.02971 24.9901 1.1942
453 1 3.87187 25.1274 4.1503
454 1 1.29383 25.0292 4.1295
455 1 6.74508 24.9991 1.32351
456 1 9.37102 24.9053 1.43573
457 1 9.49003 25.067 4.14299
458 1 6.55442 24.9078 4.22996
459 1 12.5003 27.8027 1.22531
460 1 12.1799 24.8624 4.12813
461 1 1.19853 27.8249 1.09195
462 1 3.90384 27.9739 1.18133
463 1 4.09134 27.893 4.04016
464 1 1.36387 28.1555 3.96284
465 1 1.01598 30.8137 1.1252
466 1 3.95668 30.93 1.11322
467 1 4.02851 30.7569 4.08852
468 1 1.07124 30.9258 3.98878
469 1 6.99014 27.9794 1.1522
470 1 9.51492 27.727 1.21218
471 1 9.54592 27.9107 3.89556
472 1 6.79396 27.7934 4.12017
473 1 6.81965 30.7055 1.20131
474 1 9.56478 30.6016 1.24434
475 1 9.53991 30.8016 3.89434
476 1 6.72389 30.5386 4.10902
477 1 12.13 30.8178 1.54388
478 1 12.199 27.8693 3.9542
479 2 10.9919 32.2112 0.282198
480 1 12.3287 30.5558 4.22725
481 1 1.23207 33.4441 1.40339
482 1 3.88617 33.5519 1.23361
483 1 4.02184 33.7504 4.16672
484 1 1.17192 33.7194 4.17465
904 1 1.33912 50.3691 4.21725
486 1 4.0522 36.3666 1.3293
487 1 3.94648 36.5367 4.12526
488 1 1.20754 36.3316 1.31552
489 1 6.79513 33.5573 1.30236
490 1 9.4866 33.6108 1.31238
491 1 9.44254 33.5751 4.32615
492 1 6.61444 33.4464 3.93617
493 1 6.91092 36.5626 1.34894
494 1 9.48338 36.3459 1.21269
495 1 9.59786 36.2624 3.90556
496 1 6.94851 36.444 4.1556
497 1 12.4519 33.6767 1.30875
498 1 12.2207 33.4249 4.09354
499 1 12.2389 36.525 1.36962
500 1 12.3427 36.3474 4.0322
501 1 1.17832 39.2015 1.2654
502 1 3.91848 39.1552 1.0781
503 1 4.12563 39.285 3.94545
504 1 1.18563 39.2815 4.07081
505 1 1.02522 42.0434 1.25085
506 1 3.82352 42.0892 1.23166
507 1 3.97122 42.2378 4.08673
508 1 1.33718 41.9378 3.86615
509 1 6.74964 39.3437 1.27783
510 1 9.67 39.4323 1.31646
511 1 9.78246 39.1758 4.15719
512 1 6.95422 39.423 4.04507
513 1 6.76097 42.0255 1.26821
514 1 9.68303 42.0791 1.32775
515 1 9.62396 41.9097 4.26973
516 1 6.71854 42.0993 3.91076
517 1 12.5587 39.1684 1.0044
518 1 12.4277 39.202 4.18837
519 1 12.3758 42.059 1.24094
520 1 12.3776 42.1037 4.07653
521 1 1.26849 44.9137 1.19925
522 1 4.12917 44.8422 1.17215
523 1 4.08437 45.3449 4.06074
524 1 1.07148 44.8078 3.94553
525 1 1.25963 47.7141 1.04129
526 1 3.99971 47.5902 1.51099
12279 2 10.8864 37.901 -0.0704697
528 1 1.56089 47.5362 3.89394
529 1 6.86206 44.8184 1.15442
530 1 9.61469 45.0128 1.23232
531 1 9.77966 44.644 4.09748
532 1 7.00001 44.9243 4.11733
533 1 6.93071 47.7536 1.14842
534 1 9.85701 47.8233 1.29404
535 1 9.6663 47.5818 4.16547
536 1 6.72404 47.8762 4.02868
537 1 12.3437 44.867 1.47896
538 1 12.4986 44.8006 4.22197
539 1 12.41 47.7667 1.35348
540 1 12.534 47.6425 4.1042
541 1 1.08043 25.0443 6.75006
542 1 3.92332 25.2129 7.0597
543 1 3.93082 25.1926 9.90147
544 1 1.19452 24.8681 9.51296
545 1 6.61586 25.0376 6.94109
546 1 9.39601 25.1617 6.82902
547 1 9.50075 25.0162 9.81231
548 1 6.70759 25.0566 9.70551
549 1 12.1904 24.784 6.84894
550 1 12.2181 25.1117 9.67107
551 1 1.27706 27.9172 6.97307
552 1 4.05112 27.9106 6.89331
553 1 3.96978 27.8824 9.79962
554 1 1.0614 27.7023 9.7369
555 1 1.17313 30.5799 6.97332
556 1 3.98537 30.6145 6.95927
557 1 3.93972 30.7898 9.74456
558 1 1.24353 30.5783 9.60521
559 1 6.87402 27.8573 6.91988
560 1 9.67517 28.0174 6.66653
561 1 9.55303 27.6526 9.44199
562 1 6.6634 27.9019 9.82399
563 1 6.87232 30.7309 6.91046
564 1 9.63269 30.5824 6.78019
565 1 9.45163 30.6095 9.5533
566 1 6.74743 30.618 9.74513
567 1 12.4955 27.7606 6.9429
568 1 12.2925 27.9076 9.63321
569 1 12.4309 30.8717 7.00239
570 1 12.3523 30.5189 9.65892
571 1 1.1794 33.505 6.79559
572 1 3.84489 33.5055 7.08322
573 1 4.02289 33.7874 9.79444
574 1 1.20051 33.4763 9.7282
575 1 1.06114 36.4369 4.18126
576 1 3.97389 36.4109 6.79725
577 1 4.20202 36.5789 9.66612
578 1 1.38259 36.5117 9.48414
579 1 6.75651 33.6005 6.79544
580 1 9.53299 33.4713 7.05836
581 1 9.51746 33.4772 9.73801
582 1 6.76275 33.4945 9.68622
583 1 6.92383 36.5895 6.81674
584 1 9.65949 36.6248 6.86933
585 1 9.69982 36.346 9.70756
586 1 6.91492 36.4145 9.82365
587 1 12.366 33.4233 6.93648
588 1 12.6371 33.3632 9.94168
589 1 12.2775 36.3573 6.86769
590 1 12.3131 36.3715 9.70023
591 1 1.19204 36.3277 6.92565
592 1 4.01203 39.3782 6.93965
593 1 4.1033 39.3764 9.77796
594 1 1.32478 39.2549 9.66768
595 1 1.11704 39.0432 6.95188
596 1 1.2029 41.9745 6.69435
597 1 4.14817 42.0191 9.80375
598 1 1.15292 42.0333 9.50085
599 1 6.81105 39.3495 7.00827
600 1 9.52724 39.385 6.91478
601 1 9.71729 39.2265 9.56339
602 1 6.7964 39.2703 10.0286
603 1 6.85675 42.3261 6.89813
604 1 9.74249 42.0992 6.91105
605 1 9.74077 42.1731 9.62018
606 1 7.10042 41.9803 9.78849
607 1 12.5925 39.3056 6.8996
608 1 12.4326 39.1658 9.66305
609 1 12.511 41.8499 7.06512
610 1 12.4311 42.0261 9.76419
611 1 1.20198 44.6574 6.83023
612 1 4.10141 42.2075 6.92202
613 1 4.16566 45.006 9.73595
614 1 1.30198 44.9006 9.75846
615 1 1.06901 47.6389 6.82359
616 1 4.0361 44.981 6.9708
617 1 4.10036 47.8333 9.74169
618 1 1.45683 47.6292 9.66585
619 1 6.86773 45.0796 6.83264
620 1 9.73926 44.9382 6.84455
621 1 9.74833 44.817 9.75962
622 1 6.90307 44.6873 9.7291
623 1 6.98468 47.8396 6.78554
624 1 9.93212 47.8963 6.931
625 1 9.61461 47.6318 9.67788
626 1 6.95951 47.7505 9.65313
627 1 12.4949 44.7412 6.95308
628 1 12.475 44.8354 9.68387
629 1 12.5757 47.6901 6.76522
630 1 12.3677 47.7943 9.73963
631 1 1.22545 25.1082 12.375
632 1 4.08372 25.1089 12.5837
633 1 6.94564 25.021 12.4695
634 1 9.57737 25.0339 12.65
635 1 12.2722 25.0117 12.4459
636 1 1.15769 27.7466 12.5188
637 1 3.99983 27.8324 12.5758
638 1 1.07864 30.6385 12.5062
639 1 3.97423 30.855 12.4646
640 1 6.64203 27.7002 12.6965
641 1 9.53776 27.7907 12.3462
642 1 6.7241 30.5851 12.6474
643 1 9.64896 30.6746 12.5861
644 1 12.3552 27.9529 12.3496
645 1 12.2459 30.6616 12.3591
646 1 1.1928 33.4731 12.3851
647 1 3.87153 33.6457 12.6315
648 1 1.17315 36.3836 12.5106
649 1 3.96193 36.4581 12.6781
650 1 6.89574 33.4676 12.6554
651 1 9.63632 33.4919 12.6144
652 1 6.78873 36.3753 12.7635
653 1 9.73008 36.3438 12.5807
654 1 12.3915 33.3699 12.5276
655 1 12.5806 36.3069 12.5401
656 1 1.01438 39.6136 12.3394
657 1 3.96665 39.2495 12.533
658 1 1.36211 42.2837 12.3673
659 1 4.04028 42.2238 12.663
660 1 6.75364 39.301 12.7875
661 1 9.40304 39.2251 12.3483
662 1 6.7351 42.2761 12.7282
663 1 9.75334 42.2457 12.4471
664 1 12.4658 39.0561 12.4049
665 1 12.5312 42.0905 12.4507
666 1 1.22265 44.8521 12.3996
667 1 4.02639 44.964 12.456
668 1 1.36895 47.7093 12.4558
669 1 4.09333 47.783 12.5689
670 1 6.80552 44.9119 12.5466
671 1 9.70851 44.9235 12.4668
672 1 6.95849 47.684 12.5032
673 1 9.73473 47.6296 12.259
674 1 12.5133 44.7378 12.5829
675 1 12.5756 47.608 12.4645
12363 2 11.0967 49.0845 11.0397
1011 1 9.83354 50.589 9.68402
12253 2 2.55347 26.4254 2.6506
12362 2 5.59913 49.1598 11.0986
15356 2 13.9463 46.235 11.2641
1002 1 4.24266 47.8219 6.7874
12257 2 8.14485 26.4325 2.78491
12258 2 5.36614 29.2651 2.54669
15373 2 13.8409 37.7766 13.8037
12260 2 10.9848 29.2727 2.5829
12360 2 11.1291 43.5747 11.0531
15306 2 13.7357 34.8035 5.44839
12263 2 2.54481 32.3607 3.13251
12359 2 8.31121 46.3016 11.0221
1101 1 1.26131 50.8144 12.4109
15262 2 13.7868 32.1055 2.93106
12267 2 8.04538 32.0506 2.75377
12268 2 5.52889 34.9979 2.73013
12345 2 10.7143 26.3335 11.0841
12270 2 10.935 35.0293 2.65193
12358 2 5.48795 43.5137 11.2489
12344 2 8.15143 29.1637 11.1833
12273 2 2.61491 37.824 2.66781
12357 2 2.67181 46.3388 11.2394
12343 2 5.41133 26.3089 11.0478
15252 2 13.8654 26.4851 2.56039
12277 2 8.16764 37.7736 2.7914
12278 2 5.39885 40.7334 2.57315
12276 2 8.27419 40.5959 0.00814113
12280 2 11.1611 40.6164 2.7227
12355 2 11.0604 37.7251 11.1515
485 2 2.73952 35.2717 -0.14281
12283 2 2.64452 43.5347 2.57696
12354 2 8.38543 40.649 11.0376
12377 2 5.39045 40.7479 13.8647
15291 2 13.844 49.0965 2.69256
12287 2 8.24771 43.4 2.69735
12288 2 5.66574 46.4186 2.47168
89 1 12.3521 25.0616 1.26336
12290 2 11.0703 46.3693 2.73068
12353 2 5.34538 37.8565 11.2277
12292 2 2.48374 49.1528 2.50199
12284 2 -0.0534283 46.231 2.50527
12294 2 8.50889 49.2381 2.72022
15341 2 13.6554 29.2004 10.983
12342 2 2.56922 29.2564 11.0562
12297 2 2.67018 29.2521 5.52484
12298 2 2.55685 26.4084 8.39957
12319 2 -0.161745 40.4751 8.19427
12300 2 5.42203 26.4285 5.55747
12301 2 8.23726 29.2907 5.27441
12302 2 8.08009 26.4191 8.2973
12303 2 5.39556 29.2582 8.34859
12304 2 10.9373 26.4651 5.23456
12305 2 11.03 29.2857 8.21659
12352 2 2.56321 40.7764 11.0736
12307 2 2.55352 35.0085 5.613
12308 2 2.51161 31.9548 8.37847
12366 2 8.02358 26.3656 13.9638
12310 2 5.46872 32.0061 5.63227
12311 2 8.21356 35.143 5.56699
12312 2 8.10776 32.1743 8.26652
12313 2 5.30035 34.9434 8.34411
12314 2 10.9292 31.9318 5.52188
12315 2 11.0856 34.7894 8.31959
12262 2 2.39643 32.1289 0.0134065
12317 2 2.64892 40.6865 5.5255
12318 2 2.68833 37.7863 8.29512
12350 2 10.9964 32.1259 11.0528
12320 2 5.33282 37.9579 5.50989