LAMMPS (29 Oct 2020)
OMP_NUM_THREADS environment is not set. Defaulting to 1 thread. (../comm.cpp:94)
  using 1 OpenMP thread(s) per MPI task
#---------------------------------------
#
# This script is used to calculate the thermal conuctivity of UO2 using Muller-Plathe method
# By Ziqiang Wang on 03/18/2022 on Jilin university
#
#---------------------------------------

variable     Nevery    equal   50
variable     T         equal   600

clear
OMP_NUM_THREADS environment is not set. Defaulting to 1 thread. (../comm.cpp:94)
  using 1 OpenMP thread(s) per MPI task
units          metal
boundary       p p p
atom_style     full

read_data vac_0.015_relaxed.dat
Reading data file ...
  orthogonal box = (-0.35896375 -4.2262281 -0.35791112) to (27.698964 332.30623 27.697911)
  2 by 13 by 2 MPI processor grid
  reading atoms ...
  17730 atoms
  reading velocities ...
  17730 velocities
Finding 1-2 1-3 1-4 neighbors ...
  special bond factors lj:    0.0      0.0      0.0     
  special bond factors coul:  0.0      0.0      0.0     
     0 = max # of 1-2 neighbors
     0 = max # of 1-3 neighbors
     0 = max # of 1-4 neighbors
     1 = max # of special neighbors
  special bonds CPU = 0.003 seconds
  read_data CPU = 0.099 seconds

set           type     1    charge     -1.1104
Setting atom values ...
  11820 settings made for charge
set           type     2    charge      2.2208
Setting atom values ...
  5910 settings made for charge

kspace_style    pppm   1.0e-05
pair_style      hybrid/overlay  coul/long  11.0  eam/alloy
pair_coeff      * * coul/long
pair_coeff      * * eam/alloy CeThUNpPuAmCmO.eam.alloy O Th
newton          on
neighbor        0.3 bin
neigh_modify    delay 0 check yes every 1

#The first equilation
velocity        all create $T 10004 mom yes rot yes dist gaussian
velocity        all create 600 10004 mom yes rot yes dist gaussian
fix             nvt  all  nvt  temp  $T $T  0.1
fix             nvt  all  nvt  temp  600 $T  0.1
fix             nvt  all  nvt  temp  600 600  0.1

run             100000
PPPM initialization ...
  using 12-bit tables for long-range coulomb (../kspace.cpp:328)
  G vector (1/distance) = 0.29883935
  grid = 40 240 40
  stencil order = 5
  estimated absolute RMS force accuracy = 0.00015640553
  estimated relative force accuracy = 1.0861763e-05
  using single precision MKL FFT
  3d grid and FFT values/proc = 15000 7600
Neighbor list info ...
  update every 1 steps, delay 0 steps, check yes
  max neighbors/atom: 2000, page size: 100000
  master list distance cutoff = 11.3
  ghost atom cutoff = 11.3
  binsize = 5.65, bins = 5 60 5
  2 neighbor lists, perpetual/occasional/extra = 2 0 0
  (1) pair coul/long, perpetual
      attributes: half, newton on
      pair build: half/bin/newton
      stencil: half/bin/3d/newton
      bin: standard
  (2) pair eam/alloy, perpetual, copy from (1)
      attributes: half, newton on
      pair build: copy
      stencil: none
      bin: none
Per MPI rank memory allocation (min/avg/max) = 8.156 | 8.182 | 8.201 Mbytes
Step Temp E_pair E_mol TotEng Press 
       0          600   -231693.24            0   -230318.24   -177.48734 
  100000    596.76926   -231697.06            0   -230329.47    -238.7604 
Loop time of 609.745 on 52 procs for 100000 steps with 17730 atoms

Performance: 14.170 ns/day, 1.694 hours/ns, 164.003 timesteps/s
99.9% CPU use with 52 MPI tasks x 1 OpenMP threads

MPI task timing breakdown:
Section |  min time  |  avg time  |  max time  |%varavg| %total
---------------------------------------------------------------
Pair    | 393.87     | 402.91     | 417.9      |  27.4 | 66.08
Bond    | 0.0066229  | 0.010042   | 0.016045   |   2.3 |  0.00
Kspace  | 138.34     | 154.36     | 163.4      |  46.6 | 25.31
Neigh   | 29.023     | 31.962     | 34.661     |  23.0 |  5.24
Comm    | 14.103     | 15.167     | 17.874     |  25.0 |  2.49
Output  | 5.8219e-05 | 6.4231e-05 | 0.00027379 |   0.0 |  0.00
Modify  | 2.4149     | 4.0393     | 5.9852     |  62.1 |  0.66
Other   |            | 1.299      |            |       |  0.21

Nlocal:        340.962 ave         364 max         318 min
Histogram: 2 2 3 10 6 15 9 1 0 4
Nghost:        4135.12 ave        4225 max        3976 min
Histogram: 2 6 2 4 5 4 1 2 10 16
Neighs:        67990.1 ave       73237 max       61177 min
Histogram: 2 0 3 5 8 9 12 7 3 3

Total # of neighbors = 3535486
Ave neighs/atom = 199.40699
Ave special neighs/atom = 0.0000000
Neighbor list builds = 16197
Dangerous builds = 0
unfix           nvt
reset_timestep  0

# the second run
fix             1 all nve

group           oxygen type 1
11820 atoms in group oxygen
fix             2 oxygen thermal/conductivity ${Nevery} y 20
fix             2 oxygen thermal/conductivity 50 y 20

compute         ke all ke/atom
variable        temp atom c_ke/1.5
compute         layers all chunk/atom bin/1d y lower 0.05 units reduced
fix             3      all ave/chunk  2000 50 100000 layers v_temp file profile_${T}K.mp
fix             3      all ave/chunk  2000 50 100000 layers v_temp file profile_600K.mp

variable        Tdiff    equal     f_3[11][3]-f_3[1][3]
variable        deltaT   equal     v_Tdiff*1.5/0.0001292

timestep        0.001
thermo_style    custom step f_2 temp v_Tdiff v_deltaT
thermo          100000

run             1000000
PPPM initialization ...
  using 12-bit tables for long-range coulomb (../kspace.cpp:328)
  G vector (1/distance) = 0.29883935
  grid = 40 240 40
  stencil order = 5
  estimated absolute RMS force accuracy = 0.00015640553
  estimated relative force accuracy = 1.0861763e-05
  using single precision MKL FFT
  3d grid and FFT values/proc = 15000 7600
Per MPI rank memory allocation (min/avg/max) = 8.406 | 8.433 | 8.452 Mbytes
Step f_2 Temp v_Tdiff v_deltaT 
       0            0    596.76926            0            0 
  100000    700.55566    599.46417  0.018104511    210.19169 
  200000     1396.124    599.32223  0.019801802    229.89708 
  300000    2086.1517    600.18559  0.019656997    228.21591 
  400000    2772.9306    600.43689  0.020504255     238.0525 
  500000    3459.9175    601.59708  0.019404854    225.28855 
  600000     4145.757     602.1717   0.01961876    227.77199 
  700000    4832.7597     601.9195   0.02036734    236.46293 
  800000    5517.5145    606.56663  0.020243575    235.02603 
  900000    6204.2644    601.66611  0.020378401    236.59134 
 1000000    6891.3638    608.32661   0.02039761    236.81435 
Loop time of 6066.98 on 52 procs for 1000000 steps with 17730 atoms

Performance: 14.241 ns/day, 1.685 hours/ns, 164.827 timesteps/s
99.9% CPU use with 52 MPI tasks x 1 OpenMP threads

MPI task timing breakdown:
Section |  min time  |  avg time  |  max time  |%varavg| %total
---------------------------------------------------------------
Pair    | 3864.2     | 3985.1     | 4145.8     |  93.1 | 65.69
Bond    | 0.065609   | 0.10137    | 0.17181    |   7.3 |  0.00
Kspace  | 1384.1     | 1560.6     | 1666.5     | 154.9 | 25.72
Neigh   | 296.22     | 327.04     | 357.34     |  71.1 |  5.39
Comm    | 140.1      | 151        | 179.01     |  81.6 |  2.49
Output  | 0.0010124  | 0.0010918  | 0.0023291  |   0.5 |  0.00
Modify  | 5.5091     | 5.9785     | 6.4811     |  11.0 |  0.10
Other   |            | 37.14      |            |       |  0.61

Nlocal:        340.962 ave         365 max         320 min
Histogram: 2 5 5 3 13 12 8 0 2 2
Nghost:        4137.56 ave        4234 max        4013 min
Histogram: 4 4 6 4 2 4 4 10 7 7
Neighs:        67979.9 ave       73456 max       61204 min
Histogram: 2 1 3 7 8 6 14 4 4 3

Total # of neighbors = 3534956
Ave neighs/atom = 199.37710
Ave special neighs/atom = 0.0000000
Neighbor list builds = 166046
Dangerous builds = 0

Total wall time: 1:51:17
