LAMMPS (29 Oct 2020)
OMP_NUM_THREADS environment is not set. Defaulting to 1 thread. (../comm.cpp:94)
  using 1 OpenMP thread(s) per MPI task
OMP_NUM_THREADS environment is not set. Defaulting to 1 thread. (../comm.cpp:94)
  using 1 OpenMP thread(s) per MPI task
Reading data file ...
  orthogonal box = (-0.27717828 -3.4472206 -0.27717828) to (27.617178 331.52722 27.617178)
  2 by 13 by 2 MPI processor grid
  reading atoms ...
  18000 atoms
  reading velocities ...
  18000 velocities
Finding 1-2 1-3 1-4 neighbors ...
  special bond factors lj:    0.0      0.0      0.0     
  special bond factors coul:  0.0      0.0      0.0     
     0 = max # of 1-2 neighbors
     0 = max # of 1-3 neighbors
     0 = max # of 1-4 neighbors
     1 = max # of special neighbors
  special bonds CPU = 0.005 seconds
  read_data CPU = 0.059 seconds
90 atoms in group Th_delete
180 atoms in group O_delete
270 atoms in group delete
WARNING: Ignoring 'compress yes' for molecular system (../delete_atoms.cpp:125)
Deleted 270 atoms, new total = 17730
Setting atom values ...
  11820 settings made for charge
Setting atom values ...
  5910 settings made for charge
PPPM initialization ...
  using 12-bit tables for long-range coulomb (../kspace.cpp:328)
  G vector (1/distance) = 0.29912852
  grid = 40 240 40
  stencil order = 5
  estimated absolute RMS force accuracy = 0.00015413022
  estimated relative force accuracy = 1.0703751e-05
  using single precision MKL FFT
  3d grid and FFT values/proc = 18225 7600
Neighbor list info ...
  update every 1 steps, delay 0 steps, check yes
  max neighbors/atom: 2000, page size: 100000
  master list distance cutoff = 13
  ghost atom cutoff = 13
  binsize = 6.5, bins = 5 52 5
  2 neighbor lists, perpetual/occasional/extra = 2 0 0
  (1) pair coul/long, perpetual
      attributes: half, newton on
      pair build: half/bin/newton
      stencil: half/bin/3d/newton
      bin: standard
  (2) pair eam/alloy, perpetual, copy from (1)
      attributes: half, newton on
      pair build: copy
      stencil: none
      bin: none
Setting up cg style minimization ...
  Unit style    : metal
  Current step  : 0
WARNING: Energy due to 3 extra global DOFs will be included in minimizer energies
Per MPI rank memory allocation (min/avg/max) = 9.476 | 10.14 | 10.28 Mbytes
Step Temp E_pair E_mol TotEng Press Volume 
       0            0   -232180.82            0   -232180.82   -3519.1177    260641.98 
     114            0   -232723.48            0   -232723.48    51.566941    261171.87 
Loop time of 2.22256 on 52 procs for 114 steps with 17730 atoms

99.2% CPU use with 52 MPI tasks x 1 OpenMP threads

Minimization stats:
  Stopping criterion = linesearch alpha is zero
  Energy initial, next-to-last, final = 
     -232180.818247494  -232723.480313583  -232723.480313583
  Force two-norm initial, final = 1020.6274 19.858943
  Force max component initial, final = 723.05104 15.201386
  Final line search alpha, max atom move = 2.2456504e-11 3.4136998e-10
  Iterations, force evaluations = 114 204

MPI task timing breakdown:
Section |  min time  |  avg time  |  max time  |%varavg| %total
---------------------------------------------------------------
Pair    | 1.2946     | 1.3556     | 1.4065     |   2.1 | 60.99
Bond    | 1.8599e-05 | 2.6347e-05 | 4.0784e-05 |   0.0 |  0.00
Kspace  | 0.34909    | 0.40041    | 0.46327    |   3.9 | 18.02
Neigh   | 0.010564   | 0.011943   | 0.013475   |   0.6 |  0.54
Comm    | 0.034245   | 0.035776   | 0.036974   |   0.3 |  1.61
Output  | 0          | 0          | 0          |   0.0 |  0.00
Modify  | 0          | 0          | 0          |   0.0 |  0.00
Other   |            | 0.4188     |            |       | 18.84

Nlocal:        340.962 ave         381 max         306 min
Histogram: 4 3 5 11 8 5 7 3 1 5
Nghost:        5573.02 ave        5779 max        5394 min
Histogram: 6 7 4 5 1 15 6 0 1 7
Neighs:       108402.0 ave      119602 max       92746 min
Histogram: 1 2 4 3 9 10 5 8 4 6

Total # of neighbors = 5636930
Ave neighs/atom = 317.93175
Ave special neighs/atom = 0.0000000
Neighbor list builds = 4
Dangerous builds = 0
Resetting atom IDs ...
PPPM initialization ...
  using 12-bit tables for long-range coulomb (../kspace.cpp:328)
  G vector (1/distance) = 0.299096
  grid = 40 240 40
  stencil order = 5
  estimated absolute RMS force accuracy = 0.00015436756
  estimated relative force accuracy = 1.0720234e-05
  using single precision MKL FFT
  3d grid and FFT values/proc = 18225 7600
Finding 1-2 1-3 1-4 neighbors ...
  special bond factors lj:    0.0      0.0      0.0     
  special bond factors coul:  0.0      0.0      0.0     
     0 = max # of 1-2 neighbors
     0 = max # of 1-3 neighbors
     0 = max # of 1-4 neighbors
     1 = max # of special neighbors
  special bonds CPU = 0.001 seconds
PPPM initialization ...
  using 12-bit tables for long-range coulomb (../kspace.cpp:328)
  G vector (1/distance) = 0.299096
  grid = 40 240 40
  stencil order = 5
  estimated absolute RMS force accuracy = 0.00015436756
  estimated relative force accuracy = 1.0720234e-05
  using single precision MKL FFT
  3d grid and FFT values/proc = 18225 7600
Setting up Verlet run ...
  Unit style    : metal
  Current step  : 114
  Time step     : 0.001
Per MPI rank memory allocation (min/avg/max) = 8.374 | 9.122 | 9.153 Mbytes
Step Dt Time Atoms Temp PotEng KinEng Press Volume 
     114        0.001            0    17730         1200   -232723.48    2749.9837    11298.135    261171.87 
   20000        0.001       19.886    17730    1205.7648    -229990.7    2763.1946   -35.896538     270005.9 
   40000        0.001       39.886    17730    1192.6937   -229950.67    2733.2403    -27.73597    270183.29 
   60000        0.001       59.886    17730    1202.9977   -229932.79    2756.8535    610.05574    270102.83 
   80000        0.001       79.886    17730    1210.0521   -229958.34    2773.0196    2536.3766    269706.02 
  100000        0.001       99.886    17730    1181.6853   -229992.19    2708.0128    387.11832    269988.58 
  100114        0.001          100    17730    1184.9519   -229990.39    2715.4988    -1203.108    270144.68 
Loop time of 816.665 on 52 procs for 100000 steps with 17730 atoms

Performance: 10.580 ns/day, 2.269 hours/ns, 122.449 timesteps/s
99.8% CPU use with 52 MPI tasks x 1 OpenMP threads

MPI task timing breakdown:
Section |  min time  |  avg time  |  max time  |%varavg| %total
---------------------------------------------------------------
Pair    | 507.66     | 523.16     | 538.7      |  32.9 | 64.06
Bond    | 0.0088263  | 0.013452   | 0.022195   |   2.2 |  0.00
Kspace  | 149.81     | 165.87     | 181.87     |  60.2 | 20.31
Neigh   | 7.3868     | 7.7215     | 8.2114     |   7.8 |  0.95
Comm    | 16.261     | 16.738     | 17.186     |   5.6 |  2.05
Output  | 0.02146    | 0.021505   | 0.02252    |   0.1 |  0.00
Modify  | 92.389     | 95.846     | 99.796     |  19.8 | 11.74
Other   |            | 7.297      |            |       |  0.89

Nlocal:        340.962 ave         364 max         318 min
Histogram: 1 2 6 7 12 8 8 1 4 3
Nghost:        5462.42 ave        5584 max        5335 min
Histogram: 3 7 2 5 8 7 4 8 3 5
Neighs:       104718.0 ave      112807 max       96054 min
Histogram: 1 2 5 6 13 9 8 1 4 3

Total # of neighbors = 5445324
Ave neighs/atom = 307.12487
Ave special neighs/atom = 0.0000000
Neighbor list builds = 2734
Dangerous builds = 0
WARNING: Shell command 'mkdir' failed with error 'File exists' (../input.cpp:1197)
System init for write_data ...
PPPM initialization ...
  using 12-bit tables for long-range coulomb (../kspace.cpp:328)
  G vector (1/distance) = 0.29847574
  grid = 40 240 40
  stencil order = 5
  estimated absolute RMS force accuracy = 0.00015936285
  estimated relative force accuracy = 1.1067138e-05
  using single precision MKL FFT
  3d grid and FFT values/proc = 18225 7600
Total wall time: 0:13:39
