ITEM: TIMESTEP
80000
ITEM: NUMBER OF ATOMS
17730
ITEM: BOX BOUNDS pp pp pp
-3.6038866719102136e-01 2.7700388667189877e+01
-4.3198513008073602e+00 3.3239985130080686e+02
-3.5817908360121015e-01 2.7698179083601215e+01
ITEM: ATOMS id type q x y z
1 2 2.2208 5.19747 1.26019 5.21679
2 1 -1.1104 1.10203 -2.93663 0.784726
3 1 -1.1104 0.928884 2.61702 1.09962
6 1 -1.1104 1.01416 -2.7287 3.82261
7 1 -1.1104 1.07787 2.74251 3.82033
10 1 -1.1104 0.960189 -0.0928592 1.11646
12 2 2.2208 5.16144 -1.52614 2.30708
13 2 2.2208 5.21308 4.17173 2.49377
14 1 -1.1104 1.00708 -0.00195357 3.88325
16 1 -1.1104 3.67183 -2.88579 1.18702
17 1 -1.1104 3.80757 2.83547 0.990908
18 2 2.2208 2.43693 1.3315 2.33395
19 1 -1.1104 3.99321 -2.88783 3.83625
20 1 -1.1104 3.7881 2.70116 3.74494
21 2 2.2208 2.48631 -1.49506 5.29339
22 2 2.2208 2.36891 4.10605 5.26936
23 1 -1.1104 3.74875 -0.0812976 0.957795
24 1 -1.1104 3.81328 -0.186042 3.95219
8 1 -1.1104 6.66326 -2.88122 3.65668
5 1 -1.1104 6.65827 2.62193 1.09297
9 1 -1.1104 6.61107 2.82859 3.86303
4 1 -1.1104 6.66811 -2.84644 0.876109
170 1 -1.1104 1.1741 -0.0117321 6.71549
15 1 -1.1104 6.53637 -0.128531 3.80467
171 1 -1.1104 6.55317 -0.176168 6.8189
169 1 -1.1104 6.48668 2.54875 6.70643
167 1 -1.1104 1.09392 2.73742 6.60924
172 1 -1.1104 3.77682 -2.95549 6.60035
168 1 -1.1104 6.54496 -2.86357 6.61548
166 1 -1.1104 0.870605 -2.81596 6.60557
174 1 -1.1104 3.74345 -0.104556 6.69387
311 2 2.2208 2.40885 1.28286 13.7428
8887 2 2.2208 13.6135 -4.27427 2.31882
202 2 2.2208 2.28335 -4.10212 7.9511
11 1 -1.1104 6.54882 -0.0890026 0.894995
31 2 2.2208 10.7903 1.31748 5.12902
32 1 -1.1104 12.2399 -2.81296 0.893336
33 1 -1.1104 12.2054 2.75703 1.03769
34 1 -1.1104 12.1625 -2.89768 3.69674
35 1 -1.1104 12.1224 2.66357 3.66607
36 1 -1.1104 12.1919 -0.131296 1.05028
37 2 2.2208 10.7264 -1.54012 2.37417
38 2 2.2208 10.6793 4.12555 2.38735
39 1 -1.1104 12.1863 -0.073577 3.81104
40 1 -1.1104 9.49227 -3.09718 1.08321
41 1 -1.1104 9.3888 2.87261 0.906591
42 2 2.2208 8.05003 1.38719 2.47546
43 1 -1.1104 9.35433 -2.96291 4.0315
44 1 -1.1104 9.395 2.63696 3.87475
45 2 2.2208 7.85679 -1.61367 5.23525
46 2 2.2208 8.02913 3.99676 5.29581
47 1 -1.1104 9.39402 -0.149875 0.85653
48 1 -1.1104 9.36535 -0.121914 3.57613
8580 2 2.2208 13.6717 3.92868 5.17488
8886 2 2.2208 13.5613 -1.57582 5.31584
8885 2 2.2208 13.5649 1.37023 2.40754
208 1 -1.1104 9.3881 -2.93485 6.83098
210 1 -1.1104 9.3056 -0.244684 6.41542
205 1 -1.1104 12.212 -2.88781 6.60154
207 1 -1.1104 12.1752 -0.0621061 6.63303
206 1 -1.1104 12.1908 2.67838 6.51036
309 2 2.2208 2.17413 -4.51098 13.7073
54 2 2.2208 5.15756 6.88592 5.26409
55 2 2.2208 5.16683 12.4092 5.26309
56 1 -1.1104 0.93454 8.0908 1.07664
58 1 -1.1104 1.11268 8.33842 3.77483
60 1 -1.1104 0.936286 5.31302 1.24913
61 1 -1.1104 0.97582 10.8616 1.05795
66 2 2.2208 5.21461 9.62298 2.42449
67 1 -1.1104 0.905871 5.47632 4.00452
68 1 -1.1104 1.061 11.0565 3.84232
71 1 -1.1104 3.85615 8.25369 1.10665
72 2 2.2208 2.47943 6.8558 2.42598
73 2 2.2208 2.47745 12.3468 2.48141
74 1 -1.1104 3.85817 8.47196 3.87817
75 2 2.2208 2.38815 9.71215 5.23448
76 1 -1.1104 3.8824 5.52506 1.10746
77 1 -1.1104 3.79594 11.0319 1.14136
79 1 -1.1104 3.73211 5.62662 4.00018
80 1 -1.1104 3.92259 11.0188 3.85998
238 1 -1.1104 3.81289 8.364 6.66821
59 1 -1.1104 6.77614 8.26709 3.92072
63 1 -1.1104 6.60915 5.46537 1.17448
57 1 -1.1104 6.59775 8.19682 1.14725
70 1 -1.1104 6.61554 11.1409 3.84796
69 1 -1.1104 6.42142 5.50663 3.95705
64 1 -1.1104 6.64983 11.0532 1.01562
235 1 -1.1104 6.62102 8.25645 6.80319
62 1 -1.1104 1.09706 10.9379 6.58673
236 1 -1.1104 0.881262 5.40773 6.77998
65 1 -1.1104 6.69819 11.2008 6.6863
234 1 -1.1104 0.997607 8.17288 6.66744
239 1 -1.1104 3.7791 5.56266 6.73108
232 2 2.2208 10.8151 -4.33991 10.8199
318 2 2.2208 5.32825 9.6455 13.5554
312 2 2.2208 5.13421 4.06114 13.7503
84 2 2.2208 10.8174 6.82012 5.1526
85 2 2.2208 10.7738 12.3336 5.14952
86 1 -1.1104 12.2156 8.21314 1.03625
87 1 -1.1104 12.0876 8.11891 3.76273
88 1 -1.1104 12.1214 5.51667 1.08479
89 1 -1.1104 12.4476 11.017 0.912382
91 2 2.2208 10.7469 9.58067 2.4168
92 1 -1.1104 12.2404 5.43282 3.95375
93 1 -1.1104 12.3366 10.9354 3.79773
94 1 -1.1104 9.37856 8.3222 0.957335
95 2 2.2208 8.0103 6.90005 2.49412
96 2 2.2208 7.95362 12.6434 2.35041
97 1 -1.1104 9.49689 8.23249 3.76928
98 2 2.2208 8.03738 9.64497 5.22418
99 1 -1.1104 9.35485 5.58993 0.912056
100 1 -1.1104 9.66148 11.1186 1.04774
102 1 -1.1104 9.31835 5.4634 3.82592
103 1 -1.1104 9.38118 11.0163 3.67265
8892 2 2.2208 13.5548 6.85589 2.47645
8891 2 2.2208 13.6374 12.383 2.32903
266 1 -1.1104 12.1951 5.29428 6.82406
265 1 -1.1104 12.1912 8.21992 6.57166
269 1 -1.1104 9.39814 5.47006 6.72523
267 1 -1.1104 9.41027 8.29611 6.74224
90 1 -1.1104 12.0713 10.8752 6.65572
101 1 -1.1104 9.34774 10.9777 6.55264
322 2 2.2208 8.19506 12.5003 13.6711
106 2 2.2208 5.37085 17.9714 5.23354
107 1 -1.1104 0.948619 13.8213 1.037
109 1 -1.1104 0.960872 19.3904 1.13044
113 1 -1.1104 1.15045 13.8355 3.89247
114 1 -1.1104 0.985141 19.3941 3.92541
116 1 -1.1104 1.07399 16.5064 1.01142
119 2 2.2208 5.22985 15.2399 2.39987
120 2 2.2208 5.21765 20.9564 2.44561
121 1 -1.1104 1.0701 16.5826 3.87472
123 1 -1.1104 3.86674 13.8968 1.11045
125 1 -1.1104 3.71375 19.4292 1.13663
127 2 2.2208 2.39144 18.0888 2.51763
128 1 -1.1104 3.88171 13.8028 3.84678
129 1 -1.1104 3.92535 19.5618 3.76373
130 2 2.2208 2.55674 15.2704 5.20687
131 2 2.2208 2.42362 20.831 5.20909
132 1 -1.1104 3.7023 16.7134 1.00509
134 1 -1.1104 3.81085 16.7114 3.93514
108 1 -1.1104 1.05932 13.7537 6.63341
140 1 -1.1104 6.53892 16.6397 1.12022
139 1 -1.1104 6.72176 19.4169 3.7807
115 1 -1.1104 6.5663 13.8617 3.80513
110 1 -1.1104 6.65361 13.9353 0.945014
138 1 -1.1104 6.60295 19.5356 0.981511
122 1 -1.1104 6.56783 16.5548 3.9169
124 1 -1.1104 3.80114 13.6916 6.60361
118 1 -1.1104 6.64476 16.6375 6.7135
112 1 -1.1104 6.69525 19.4321 6.60565
117 1 -1.1104 1.08542 16.6722 6.53531
126 1 -1.1104 3.9131 19.3478 6.57094
111 1 -1.1104 6.52024 13.8612 6.65149
8896 2 2.2208 13.5335 18.1633 2.44328
141 2 2.2208 10.7933 18.07 5.15314
142 1 -1.1104 12.2302 13.921 1.00446
144 1 -1.1104 12.1885 19.4279 0.904045
146 1 -1.1104 12.183 13.8153 3.91604
147 1 -1.1104 12.1101 19.6402 3.93867
148 1 -1.1104 12.1343 16.578 1.01795
150 2 2.2208 10.8214 15.2746 2.41235
151 2 2.2208 10.8048 20.95 2.44183
152 1 -1.1104 12.2411 16.8037 3.88188
153 1 -1.1104 9.54437 13.9705 0.957362
155 1 -1.1104 9.47884 19.4285 0.992769
157 2 2.2208 8.03977 18.0401 2.31206
158 1 -1.1104 9.46265 13.9102 3.81807
159 1 -1.1104 9.42741 19.4532 3.72969
160 2 2.2208 7.92641 15.1978 5.3283
161 2 2.2208 8.01763 20.8162 5.23127
162 1 -1.1104 9.29161 16.7283 0.944991
164 1 -1.1104 9.33509 16.6232 3.69865
81 2 2.2208 10.7951 20.8125 8.06607
8657 2 2.2208 13.5772 20.9289 5.15926
143 1 -1.1104 12.2539 13.7858 6.66685
145 1 -1.1104 12.1015 19.2188 6.73036
154 1 -1.1104 9.37151 13.8119 6.66758
156 1 -1.1104 9.41061 19.4058 6.54668
149 1 -1.1104 12.2602 16.5448 6.63122
325 2 2.2208 5.40652 15.2367 13.7701
200 1 -1.1104 9.35848 16.5862 9.37032
321 2 2.2208 10.7599 9.70334 13.6924
173 1 -1.1104 3.86384 2.68877 6.67864
175 2 2.2208 5.10072 1.16958 10.8901
176 1 -1.1104 0.858797 -2.86199 12.1161
177 1 -1.1104 0.935064 2.65119 12.4154
180 1 -1.1104 0.800485 -2.96808 9.36721
181 1 -1.1104 0.936762 2.59394 9.44975
184 1 -1.1104 0.988939 -0.0620353 12.2969
186 2 2.2208 5.22468 -1.56926 8.13378
187 2 2.2208 5.22836 4.07017 8.04979
188 1 -1.1104 1.03025 -0.10468 9.60137
190 1 -1.1104 3.6075 -2.93335 12.3153
191 1 -1.1104 3.68083 2.6288 12.2578
192 2 2.2208 2.3787 1.27938 8.13154
193 1 -1.1104 3.68509 -2.86535 9.39506
194 1 -1.1104 3.69145 2.67527 9.60545
195 2 2.2208 2.33737 -1.47312 10.9004
196 2 2.2208 2.3283 4.00754 10.9162
197 1 -1.1104 3.6834 -0.18049 12.2366
198 1 -1.1104 3.81843 -0.192676 9.56483
178 1 -1.1104 6.50585 -2.91556 12.2229
183 1 -1.1104 6.54238 2.65235 9.61738
179 1 -1.1104 6.61075 2.68319 12.414
185 1 -1.1104 6.53265 -0.0647996 12.3746
182 1 -1.1104 6.61084 -2.89799 9.41561
189 1 -1.1104 6.58837 -0.135151 9.44776
328 2 2.2208 8.01506 18.1511 13.6012
83 1 -1.1104 9.48817 13.8002 12.2962
49 1 -1.1104 12.1636 19.3866 9.29933
53 2 2.2208 10.7998 15.1926 8.04792
50 1 -1.1104 12.1793 16.816 12.1987
209 1 -1.1104 9.25684 2.73414 6.71459
8904 2 2.2208 13.5863 1.2921 8.0942
137 2 2.2208 8.08531 15.3878 10.9513
211 2 2.2208 10.7159 1.20908 10.7487
212 1 -1.1104 12.1277 -2.91816 12.2557
213 1 -1.1104 12.0452 2.74686 12.2734
214 1 -1.1104 12.3436 -3.10863 9.58233
215 1 -1.1104 12.2823 2.47621 9.52311
216 1 -1.1104 12.176 -0.153596 12.2271
217 2 2.2208 10.6953 -1.55411 7.92915
219 1 -1.1104 12.2219 -0.419757 9.29888
220 1 -1.1104 9.26191 -2.91284 12.2886
221 1 -1.1104 9.35069 2.6296 12.1982
222 2 2.2208 7.87306 1.18226 8.07018
223 1 -1.1104 9.40617 -3.01915 9.51503
224 1 -1.1104 9.3784 2.71137 9.39566
225 2 2.2208 7.89984 -1.51086 10.8676
226 2 2.2208 7.98533 4.10976 10.8246
227 1 -1.1104 9.33767 -0.160058 12.1108
228 1 -1.1104 9.48026 -0.19626 9.39462
218 2 2.2208 10.7802 4.06062 8.112
8905 2 2.2208 13.618 -1.53414 10.751
26 1 -1.1104 12.1823 13.8247 12.1634
199 1 -1.1104 9.41402 16.7811 12.2736
8881 2 2.2208 13.5525 17.9717 8.03843
136 1 -1.1104 9.40007 19.5163 9.50043
27 1 -1.1104 12.1012 19.5672 12.1847
237 1 -1.1104 6.68507 5.36196 6.57409
78 1 -1.1104 4.05167 11.1169 6.81261
240 2 2.2208 5.22219 6.81476 10.8653
241 2 2.2208 5.25877 12.5382 10.86
242 1 -1.1104 0.996875 8.25902 12.3161
244 1 -1.1104 0.956471 8.34711 9.5118
246 1 -1.1104 1.01805 5.45383 12.2776
247 1 -1.1104 0.936876 10.9702 12.3105
250 2 2.2208 5.2492 9.68194 8.05263
251 1 -1.1104 1.12757 5.51116 9.64965
252 1 -1.1104 1.06396 10.9858 9.36724
255 1 -1.1104 3.96028 8.27522 12.2692
256 2 2.2208 2.30347 6.74532 8.11129
257 2 2.2208 2.43339 12.4143 8.11256
258 1 -1.1104 3.91128 8.16124 9.46507
259 2 2.2208 2.4202 9.65445 10.8038
260 1 -1.1104 3.86063 5.49849 12.3667
261 1 -1.1104 3.72226 11.1498 12.1413
262 1 -1.1104 3.75783 5.37115 9.44629
263 1 -1.1104 3.88557 11.0495 9.4723
254 1 -1.1104 6.71995 11.1909 9.5712
243 1 -1.1104 6.75062 8.33558 12.3124
248 1 -1.1104 6.81164 5.55877 12.3099
245 1 -1.1104 6.72915 8.37674 9.60408
253 1 -1.1104 6.65186 5.48902 9.49233
249 1 -1.1104 6.57652 11.239 12.2916
82 1 -1.1104 12.1877 16.6517 9.43676
104 1 -1.1104 9.45547 19.5374 12.3523
8926 2 2.2208 13.5275 12.5265 13.6313
264 1 -1.1104 9.44804 11.0274 9.37701
268 1 -1.1104 9.5823 5.53894 9.39089
270 1 -1.1104 9.38563 11.026 12.327
271 1 -1.1104 9.49107 5.45492 12.2788
272 2 2.2208 8.01633 9.78143 10.7867
273 1 -1.1104 9.40117 8.14558 9.59574
274 2 2.2208 8.1002 12.5801 8.02651
275 2 2.2208 8.03682 6.89181 8.11065
276 2 2.2208 10.734 6.86521 10.9026
277 2 2.2208 10.8326 12.4437 10.8522
278 1 -1.1104 12.229 8.42147 12.2373
279 1 -1.1104 12.1659 8.19941 9.34736
280 1 -1.1104 12.2073 5.63581 12.2037
281 1 -1.1104 12.199 11.103 12.1096
282 2 2.2208 10.7763 9.63181 8.05188
283 1 -1.1104 12.2063 5.23493 9.50054
284 1 -1.1104 12.1579 11.1608 9.35817
285 1 -1.1104 9.41882 8.29634 12.4287
8791 2 2.2208 13.4929 6.77499 8.09392
30 1 -1.1104 12.225 13.9779 9.47153
135 1 -1.1104 9.44758 13.7448 9.51873
326 2 2.2208 10.8141 21.0222 13.604
320 2 2.2208 8.00437 6.86251 13.7496
105 2 2.2208 8.03232 18.1141 8.04564
302 1 -1.1104 1.07821 19.6101 6.56113
133 1 -1.1104 3.9288 16.5517 6.67316
25 2 2.2208 10.7987 18.1183 10.8911
324 2 2.2208 5.1403 21.0425 13.6771
290 1 -1.1104 6.73725 14.0495 9.5386
233 1 -1.1104 6.64317 16.6697 12.3444
296 1 -1.1104 6.75669 19.5919 12.1461
297 1 -1.1104 6.70348 13.954 12.2851
289 1 -1.1104 6.53605 16.8486 9.41925
305 1 -1.1104 3.94891 13.8277 9.44365
304 1 -1.1104 4.01387 16.6161 9.5546
303 2 2.2208 2.54661 18.0258 7.89225
301 1 -1.1104 3.8299 19.456 9.38159
300 2 2.2208 5.28336 18.1943 10.8045
201 2 2.2208 2.64483 15.32 10.8915
204 2 2.2208 2.35858 20.9145 10.955
229 1 -1.1104 3.83319 16.9665 12.2161
230 1 -1.1104 1.08361 16.5021 12.2725
286 1 -1.1104 3.6782 19.6043 12.2291
287 1 -1.1104 4.06243 14.0301 12.4617
291 1 -1.1104 1.11922 19.4154 9.31101
292 1 -1.1104 1.285 16.572 9.3578
293 2 2.2208 5.09881 20.9013 8.00172
294 1 -1.1104 0.980014 13.6606 9.4243
295 2 2.2208 5.32626 15.2396 7.9819
298 1 -1.1104 1.00402 19.4515 12.2375
299 1 -1.1104 1.27231 13.7622 12.1273
288 1 -1.1104 6.5765 19.5727 9.528
327 2 2.2208 10.8278 15.2842 13.6174
165 2 2.2208 7.95456 20.9363 10.7963
163 1 -1.1104 9.38481 16.5418 6.53683
8842 2 2.2208 13.6592 20.8588 10.7645
8880 2 2.2208 13.4925 15.2584 10.7465
323 2 2.2208 2.38847 18.1559 13.7114
313 2 2.2208 7.96393 -4.26471 13.6843
339 2 2.2208 7.89105 -1.48239 -0.581576
8934 2 2.2208 -0.326153 -1.55505 13.6389
338 2 2.2208 10.7676 1.17228 -0.455176
336 2 2.2208 2.24696 4.0422 -0.41162
343 2 2.2208 2.54276 9.62766 -0.245807
8930 2 2.2208 13.6103 18.1768 13.6149
8922 2 2.2208 13.563 -1.48445 -0.406247
335 2 2.2208 2.33898 -1.49833 -0.457854
332 2 2.2208 10.8888 12.521 -0.40008
315 2 2.2208 10.817 -1.58294 13.6614
314 2 2.2208 7.9682 1.33028 13.7107
310 2 2.2208 5.20787 -1.55937 13.792
329 2 2.2208 5.14635 1.2913 -0.451109
346 2 2.2208 5.23758 1.18788 16.4901
347 1 -1.1104 0.885151 -3.09547 17.8414
348 1 -1.1104 1.02356 2.57445 17.8076
351 1 -1.1104 0.862812 -3.15059 15.0072
353 1 -1.1104 1.11155 2.7398 15.1991
359 1 -1.1104 0.904393 -0.263383 17.9723
361 2 2.2208 5.17693 -1.6567 19.2334
362 2 2.2208 5.24625 4.07734 19.2699
363 1 -1.1104 1.11473 -0.19712 15.1072
367 1 -1.1104 3.73161 -3.03572 17.9137
368 1 -1.1104 3.78948 2.7514 17.8084
369 2 2.2208 2.27991 1.26774 19.2848
370 1 -1.1104 3.66348 -2.84644 15.0409
372 1 -1.1104 3.86716 2.66113 15.0314
374 2 2.2208 2.23852 -1.67232 16.504
375 2 2.2208 2.42808 4.07151 16.5178
376 1 -1.1104 3.78795 -0.0269633 17.9667
377 1 -1.1104 3.86897 -0.225526 15.0965
360 1 -1.1104 6.4856 -0.256592 17.9024
350 1 -1.1104 6.64285 2.60846 17.8354
349 1 -1.1104 6.44538 -3.16362 17.9562
357 1 -1.1104 6.49109 2.64676 15.2192
365 1 -1.1104 6.707 -0.264257 15.111
352 1 -1.1104 0.879098 -2.97122 20.6428
355 1 -1.1104 6.46696 -3.09749 15.0606
371 1 -1.1104 3.67687 -2.76626 20.7618
356 1 -1.1104 6.6461 -3.0473 20.5421
366 1 -1.1104 6.59708 -0.137852 20.7122
364 1 -1.1104 1.01048 -0.111933 20.817
373 1 -1.1104 3.66105 2.75635 20.6468
579 2 2.2208 5.22692 -4.23259 22.061
389 2 2.2208 10.8802 1.24341 16.4857
390 1 -1.1104 12.2059 -2.89751 17.7975
391 1 -1.1104 12.3371 2.73942 17.8071
392 1 -1.1104 12.1129 -2.84404 14.9238
394 1 -1.1104 12.2208 2.65211 14.8855
396 1 -1.1104 12.2736 -0.152963 17.8841
397 2 2.2208 10.9357 -1.43118 19.202
398 2 2.2208 10.6664 4.20886 19.1734
399 1 -1.1104 12.2261 -0.044707 15.1423
401 1 -1.1104 9.41298 -2.92312 17.8946
402 1 -1.1104 9.39839 2.63044 17.8424
403 2 2.2208 8.00407 1.27704 19.3071
404 1 -1.1104 9.37516 -2.97019 15.1235
406 1 -1.1104 9.41193 2.61849 15.0901
408 2 2.2208 8.03237 -1.60867 16.501
409 2 2.2208 8.00114 4.06134 16.4271
410 1 -1.1104 9.57573 -0.157733 17.9425
411 1 -1.1104 9.46679 -0.161832 14.9526
8993 2 2.2208 13.6505 4.05545 16.2908
9072 2 2.2208 13.6011 -1.49044 16.402
8999 2 2.2208 13.5797 1.36627 19.3236
405 1 -1.1104 9.3644 -2.89128 20.7689
395 1 -1.1104 12.0793 2.65298 20.6812
412 1 -1.1104 9.42306 -0.110406 20.6882
393 1 -1.1104 12.1774 -2.87058 20.7004
400 1 -1.1104 12.3226 -0.144663 20.578
611 1 -1.1104 9.32456 13.8817 26.3438
422 2 2.2208 5.16919 6.94299 16.496
423 2 2.2208 5.38833 12.4794 16.4982
424 1 -1.1104 0.998822 8.29715 17.8325
426 1 -1.1104 0.947311 8.35196 15.1705
430 1 -1.1104 1.04817 5.53621 18.0067
431 1 -1.1104 1.03833 11.1071 17.9337
434 2 2.2208 5.28667 9.8153 19.2696
435 1 -1.1104 1.11307 5.61734 15.1218
437 1 -1.1104 1.06527 11.111 15.1083
443 1 -1.1104 3.74642 8.36753 17.9703
444 2 2.2208 2.44371 6.81198 19.2047
445 2 2.2208 2.46374 12.3782 19.1581
446 1 -1.1104 3.80387 8.34223 15.1247
448 2 2.2208 2.46476 9.76676 16.4025
449 1 -1.1104 3.88573 5.45934 17.932
450 1 -1.1104 4.0406 11.1272 17.8116
451 1 -1.1104 3.86385 5.45878 15.1998
453 1 -1.1104 4.02666 11.0671 14.9093
432 1 -1.1104 6.63359 5.32526 17.8794
441 1 -1.1104 6.6846 11.0936 15.1789
425 1 -1.1104 6.60101 8.22155 17.9995
439 1 -1.1104 6.52105 5.4073 15.1598
428 1 -1.1104 6.59662 7.99384 15.1364
433 1 -1.1104 6.64189 11.1427 17.9721
452 1 -1.1104 3.80121 5.67689 20.7523
429 1 -1.1104 6.71332 8.25481 20.6299
427 1 -1.1104 1.09958 8.19047 20.7002
436 1 -1.1104 1.03425 5.59679 20.7397
442 1 -1.1104 6.68081 11.1114 20.6375
447 1 -1.1104 4.05459 8.33052 20.5858
9040 2 2.2208 13.4485 -4.24543 24.8979
9067 2 2.2208 13.526 9.72368 16.4176
458 2 2.2208 10.7885 6.90329 16.4782
459 2 2.2208 10.8827 12.5304 16.5187
460 1 -1.1104 12.189 8.23564 17.7665
461 1 -1.1104 12.1867 8.39125 14.9816
463 1 -1.1104 12.3743 5.54396 17.6774
464 1 -1.1104 12.2291 10.9956 17.8846
465 2 2.2208 10.8272 9.71864 19.2896
466 1 -1.1104 12.1499 5.53159 15.0593
468 1 -1.1104 12.1579 11.11 15.0776
470 1 -1.1104 9.41544 8.28056 17.8168
471 2 2.2208 8.0315 6.95467 19.1686
472 2 2.2208 8.06177 12.4493 19.2206
473 1 -1.1104 9.38707 8.29738 15.133
475 2 2.2208 8.04341 9.74041 16.4914
476 1 -1.1104 9.39877 5.56378 17.6929
477 1 -1.1104 9.38815 11.126 17.8602
478 1 -1.1104 9.31315 5.37344 15.0119
480 1 -1.1104 9.47255 11.0816 15.1349
474 1 -1.1104 9.48404 8.39553 20.7655
467 1 -1.1104 12.1659 5.51567 20.4602
9068 2 2.2208 13.5934 6.93535 19.255
9069 2 2.2208 13.5557 12.4586 19.2633
469 1 -1.1104 12.2693 11.0596 20.6729
462 1 -1.1104 12.1717 8.31135 20.6678
479 1 -1.1104 9.36214 5.5303 20.5456
481 1 -1.1104 9.47699 11.1669 20.5861
380 2 2.2208 5.05055 -4.47987 16.471
485 2 2.2208 5.26165 18.0855 16.5598
486 1 -1.1104 0.892716 13.9089 17.837
487 1 -1.1104 1.042 19.4664 17.9616
490 1 -1.1104 1.00175 13.8277 15.0737
492 1 -1.1104 1.02953 19.5529 15.0632
498 1 -1.1104 1.09948 16.7258 17.9067
500 2 2.2208 5.22534 15.2122 19.2173
501 2 2.2208 5.21247 20.8647 19.4378
502 1 -1.1104 1.08772 16.7964 15.0058
506 1 -1.1104 3.84676 13.8974 17.9768
507 1 -1.1104 3.75107 19.3847 18.0309
508 2 2.2208 2.36925 17.9839 19.3317
509 1 -1.1104 3.80353 13.8977 15.1543
511 1 -1.1104 3.8584 19.6701 15.1428
513 2 2.2208 2.50043 15.2964 16.4905
514 2 2.2208 2.37455 20.9649 16.6388
515 1 -1.1104 3.85852 16.6723 17.8378
516 1 -1.1104 3.98549 16.7321 15.0832
488 1 -1.1104 6.70609 13.9319 17.7775
496 1 -1.1104 6.66925 19.5273 15.0742
504 1 -1.1104 6.69725 16.5784 15.104
494 1 -1.1104 6.73973 13.8029 15.0163
493 1 -1.1104 1.05589 19.4114 20.7239
499 1 -1.1104 6.66052 16.6928 17.9737
505 1 -1.1104 6.60527 16.7593 20.655
489 1 -1.1104 6.76927 19.536 17.8265
491 1 -1.1104 1.06703 13.8493 20.5471
512 1 -1.1104 3.87071 19.3947 20.7772
503 1 -1.1104 0.995311 16.5514 20.6795
517 1 -1.1104 3.73647 16.5525 20.6928
495 1 -1.1104 6.5855 13.8015 20.8207
9137 2 2.2208 13.6427 15.2938 16.5523
521 2 2.2208 10.8462 18.1451 16.4369
522 1 -1.1104 12.1672 14.0008 17.8476
523 1 -1.1104 12.3738 19.6607 17.9084
524 1 -1.1104 12.2476 13.8206 15.0068
526 1 -1.1104 12.3601 19.5932 14.9534
528 1 -1.1104 12.3731 16.8244 17.8488
529 2 2.2208 10.8573 15.3229 19.2956
530 2 2.2208 10.8003 20.9999 19.2013
531 1 -1.1104 12.2348 16.5895 15.0961
533 1 -1.1104 9.40557 13.8734 17.913
534 1 -1.1104 9.45999 19.5045 17.874
535 2 2.2208 8.10843 18.1871 19.223
536 1 -1.1104 9.43838 13.9425 15.1732
538 1 -1.1104 9.58621 19.5907 15.1161
540 2 2.2208 8.12433 15.3914 16.3945
541 2 2.2208 7.98738 20.9142 16.3652
542 1 -1.1104 9.5399 16.7021 17.7993
543 1 -1.1104 9.54595 16.8763 15.012
9140 2 2.2208 13.4783 21.0918 16.5874
9139 2 2.2208 13.7697 18.1504 19.273
532 1 -1.1104 12.2078 16.5989 20.6328
527 1 -1.1104 12.2754 19.5654 20.6477
537 1 -1.1104 9.35562 13.9164 20.6627
354 1 -1.1104 0.989607 2.84507 20.5297
358 1 -1.1104 6.61054 2.61472 20.7321
612 1 -1.1104 9.52493 19.4634 26.4134
378 1 -1.1104 3.78134 -0.074108 20.5857
549 2 2.2208 5.00686 1.24775 21.9766
550 1 -1.1104 0.918199 -2.97033 23.3907
551 1 -1.1104 0.6677 2.71806 23.5777
554 1 -1.1104 0.915843 -3.01612 26.0437
555 1 -1.1104 0.960246 2.55784 26.4435
558 1 -1.1104 0.860361 -0.142128 23.4833
560 2 2.2208 5.12985 -1.50242 24.8343
561 2 2.2208 5.06192 4.13421 24.8436
562 1 -1.1104 0.797556 -0.233801 26.38
564 1 -1.1104 3.79085 -2.85292 23.5558
565 1 -1.1104 3.62805 2.71948 23.3776
566 2 2.2208 2.28026 1.29331 24.8305
567 1 -1.1104 3.65948 -2.88969 26.29
568 1 -1.1104 3.7152 2.60576 26.3866
569 2 2.2208 2.27143 -1.54676 22.0922
570 2 2.2208 2.40377 4.21656 22.0492
571 1 -1.1104 3.66404 -0.144765 23.476
572 1 -1.1104 3.72707 0.0207224 26.2465
553 1 -1.1104 6.38348 2.69972 23.4379
563 1 -1.1104 6.53813 -0.142971 26.1177
552 1 -1.1104 6.63874 -2.88204 23.3783
556 1 -1.1104 6.51071 -2.96833 26.0323
559 1 -1.1104 6.66087 -0.161339 23.4835
557 1 -1.1104 6.66257 2.90945 26.1096
414 2 2.2208 10.8189 -4.41328 16.3823
9073 2 2.2208 13.6356 -4.37347 19.1515
8931 2 2.2208 13.5564 -4.33136 13.6645
407 1 -1.1104 9.31888 2.7434 20.5821
8919 2 2.2208 13.6275 4.06806 27.7724
413 1 -1.1104 12.3161 13.9734 23.5352
9200 2 2.2208 13.7225 4.1971 21.9408
585 2 2.2208 10.8286 1.21788 22.0955
586 1 -1.1104 12.1113 -2.93108 23.4023
587 1 -1.1104 12.1094 2.70461 23.4558
588 1 -1.1104 12.1924 -2.86218 26.1037
589 1 -1.1104 12.2054 2.61667 26.2808
590 1 -1.1104 12.182 -0.193905 23.3937
591 2 2.2208 10.737 -1.49087 24.9122
593 1 -1.1104 12.0783 -0.0458625 26.1358
594 1 -1.1104 9.34628 -2.92315 23.5422
595 1 -1.1104 9.25367 2.73808 23.4776
596 2 2.2208 7.87284 1.30845 24.845
597 1 -1.1104 9.30303 -2.89192 26.3808
598 1 -1.1104 9.35674 2.72129 26.2379
599 2 2.2208 7.99805 -1.45423 22.062
600 2 2.2208 8.04829 4.06807 22.0831
601 1 -1.1104 9.4784 -0.189646 23.5075
602 1 -1.1104 9.41528 -0.0154503 26.2099
592 2 2.2208 10.7682 4.04505 24.8364
9038 2 2.2208 13.606 1.24787 24.8138
9039 2 2.2208 13.6321 -1.63006 22.0316
576 1 -1.1104 12.3093 16.7863 23.3643
9070 2 2.2208 -0.450273 -1.52183 24.8881
340 2 2.2208 8.07151 4.11868 27.6309
418 1 -1.1104 12.1274 13.7912 26.2138
438 1 -1.1104 1.25664 10.9533 20.5535
454 1 -1.1104 3.88797 11.109 20.7396
440 1 -1.1104 6.54999 5.44797 20.7031
614 2 2.2208 5.28508 6.98592 21.9613
615 2 2.2208 5.16589 12.5301 22.1009
616 1 -1.1104 1.0258 8.25131 23.4949
618 1 -1.1104 1.22597 8.33854 26.3324
620 1 -1.1104 0.992854 5.37312 23.5605
621 1 -1.1104 1.1347 11.0452 23.4337
624 2 2.2208 5.26399 9.78463 24.8345
625 1 -1.1104 1.02863 5.53529 26.2678
626 1 -1.1104 0.9589 11.0183 26.3098
629 1 -1.1104 3.93981 8.24923 23.5002
630 2 2.2208 2.47959 6.89533 24.9125
631 2 2.2208 2.33625 12.4601 24.9662
632 1 -1.1104 4.00124 8.39141 26.2662
633 2 2.2208 2.50337 9.72849 22.0007
634 1 -1.1104 3.87926 5.43052 23.4352
635 1 -1.1104 3.88851 11.1113 23.5564
636 1 -1.1104 3.7241 5.6059 26.3826
637 1 -1.1104 3.84223 11.2679 26.4234
627 1 -1.1104 6.47338 5.4482 26.2582
619 1 -1.1104 6.74427 8.338 26.2743
622 1 -1.1104 6.77388 5.58578 23.3515
628 1 -1.1104 6.6636 11.2278 26.2822
623 1 -1.1104 6.61493 11.0779 23.3397
617 1 -1.1104 6.67721 8.33429 23.6202
8909 2 2.2208 13.6756 9.4268 27.779
584 1 -1.1104 9.46042 19.5381 23.4989
642 1 -1.1104 9.44892 16.8025 23.47
9259 2 2.2208 13.5788 9.60494 22.0503
8994 2 2.2208 13.6091 6.9412 24.7924
573 1 -1.1104 9.42421 8.24443 23.4413
574 1 -1.1104 12.1652 10.993 26.2553
575 1 -1.1104 12.1788 5.50806 26.2411
578 2 2.2208 10.7901 9.5824 24.908
603 1 -1.1104 12.2765 11.0554 23.3839
604 1 -1.1104 12.2657 5.39402 23.2889
605 1 -1.1104 12.2484 8.34939 26.3316
607 1 -1.1104 12.2162 8.22201 23.3936
638 2 2.2208 10.7328 12.4804 22.1306
639 2 2.2208 10.7832 6.82975 22.0066
640 2 2.2208 7.90532 6.87564 24.8831
644 2 2.2208 8.03895 12.4361 24.7448
645 1 -1.1104 9.47006 11.0044 26.2273
646 1 -1.1104 9.45764 5.45465 26.1293
647 1 -1.1104 9.49046 11.0189 23.4031
648 1 -1.1104 9.57056 5.49609 23.43
649 2 2.2208 8.06527 9.7571 22.0521
650 1 -1.1104 9.39126 8.17476 26.3115
8995 2 2.2208 13.5046 12.4153 24.7893
643 1 -1.1104 9.45567 16.812 26.2182
497 1 -1.1104 6.64461 19.4844 20.7683
345 2 2.2208 2.39293 15.3299 27.7355
545 1 -1.1104 6.49694 14.066 26.1904
510 1 -1.1104 3.80287 13.9712 20.5502
610 1 -1.1104 6.86719 19.3865 26.3082
519 1 -1.1104 6.7108 16.7029 26.2209
455 1 -1.1104 6.65695 14.0282 23.4746
547 2 2.2208 2.45114 15.0765 22.0799
379 2 2.2208 2.45293 20.8135 22.1775
382 1 -1.1104 3.73531 16.6639 23.5118
383 1 -1.1104 1.05096 16.5313 23.3569
386 1 -1.1104 3.6384 13.8656 26.1907
387 1 -1.1104 3.70008 16.6737 26.4363
388 2 2.2208 2.43276 18.1278 25.0031
416 1 -1.1104 3.87602 19.3603 26.3729
419 2 2.2208 5.14604 18.0435 22.0652
420 1 -1.1104 0.935012 13.6277 23.4135
421 1 -1.1104 0.9066 19.3936 23.5313
456 2 2.2208 5.08102 15.3689 24.7417
457 2 2.2208 5.39781 20.6804 25.0487
483 1 -1.1104 0.940262 13.8433 26.3356
484 1 -1.1104 0.930187 16.7475 26.1601
518 1 -1.1104 1.08949 19.4592 26.3939
520 1 -1.1104 3.7911 13.8082 23.4522
546 1 -1.1104 3.86539 19.3604 23.5904
385 1 -1.1104 6.42113 16.7173 23.4175
482 1 -1.1104 6.73294 19.3762 23.4942
415 2 2.2208 8.08854 -4.3345 19.1739
417 1 -1.1104 12.267 19.5714 23.4125
307 2 2.2208 10.8675 18.075 27.6489
583 1 -1.1104 9.45211 13.7299 23.4569
8938 2 2.2208 13.6388 20.895 27.5766
9112 2 2.2208 13.5392 20.893 22.0865
577 2 2.2208 10.8139 15.3036 24.8031
525 1 -1.1104 12.0695 13.815 20.7488
544 1 -1.1104 9.51124 16.6605 20.7014
539 1 -1.1104 9.4959 19.5953 20.6554
641 2 2.2208 7.97283 20.8305 22.1063
606 2 2.2208 8.10602 18.0067 24.778
384 2 2.2208 10.9576 18.175 22.0155
9138 2 2.2208 13.634 15.2528 21.9794
9136 2 2.2208 13.6421 18.0966 24.8255
582 1 -1.1104 12.2033 16.6606 26.224
306 2 2.2208 7.98552 15.3432 27.6163
613 2 2.2208 8.0845 15.3667 22.0559
581 2 2.2208 10.8152 20.9528 25.0059
8939 2 2.2208 13.5244 15.217 27.5406
548 1 -1.1104 12.2068 19.4782 26.178
342 2 2.2208 5.27561 6.92825 27.7667
308 2 2.2208 8.09157 20.9731 27.7419
8911 2 2.2208 13.4391 1.22706 13.6617
331 2 2.2208 5.33394 18.1601 27.6975
334 2 2.2208 10.8836 6.77994 27.7121
333 2 2.2208 8.06461 9.69883 27.7058
319 2 2.2208 2.52858 12.516 13.6186
344 2 2.2208 5.27267 12.5558 27.5776
316 2 2.2208 10.7775 4.08099 13.6191
330 2 2.2208 2.3402 20.9028 27.8443
317 2 2.2208 2.40127 6.9795 13.7292
8924 2 2.2208 13.5223 6.97057 13.6701
651 2 2.2208 5.28359 23.5311 5.20639
652 2 2.2208 5.07024 29.3489 5.35952
653 1 -1.1104 0.981227 25.1475 1.13833
654 1 -1.1104 1.0254 25.0978 3.91639
655 1 -1.1104 1.11129 22.3252 1.07945
656 1 -1.1104 1.05214 27.9027 0.933369
657 2 2.2208 5.18732 26.4603 2.50393
658 1 -1.1104 0.91171 22.2758 3.90409
659 1 -1.1104 0.883142 27.8283 3.89089
660 1 -1.1104 3.64505 25.0048 1.10068
661 2 2.2208 2.38013 23.7147 2.55728
662 2 2.2208 2.25668 29.3183 2.42485
663 1 -1.1104 3.89857 25.1025 3.93619
664 2 2.2208 2.33197 26.5581 5.27715
665 1 -1.1104 3.86202 22.2362 1.15803
666 1 -1.1104 3.66577 27.8928 1.05915
667 1 -1.1104 3.57532 22.3594 3.88864
668 1 -1.1104 3.62347 27.9656 3.9181
674 1 -1.1104 6.65292 22.3798 1.09421
794 1 -1.1104 1.07399 22.3168 6.7085
795 1 -1.1104 1.0127 27.8289 6.70099
673 1 -1.1104 6.59978 25.0154 3.85943
672 1 -1.1104 6.53161 25.061 1.0985
675 1 -1.1104 6.51419 27.944 1.10159
676 1 -1.1104 6.6611 22.1999 3.76422
792 1 -1.1104 0.801847 24.9962 6.82672
799 1 -1.1104 3.78294 22.148 6.55823
797 1 -1.1104 6.50997 27.9192 6.57359
1503 1 -1.1104 12.3551 47.3459 6.48744
677 1 -1.1104 6.6151 27.7994 3.79907
678 2 2.2208 10.812 23.6985 5.35962
679 2 2.2208 10.807 29.4112 5.25543
680 1 -1.1104 12.1524 25.0874 1.09683
681 1 -1.1104 12.1962 25.0731 3.83321
682 1 -1.1104 12.3697 22.1161 1.04006
683 1 -1.1104 12.2343 27.8913 1.00443
684 2 2.2208 10.8016 26.4724 2.52195
685 1 -1.1104 12.0601 22.3945 3.7595
686 1 -1.1104 12.369 28.0156 3.98552
687 1 -1.1104 9.43695 24.9725 1.14166
688 2 2.2208 8.05904 23.7085 2.50764
689 2 2.2208 7.9614 29.2866 2.40311
690 1 -1.1104 9.39137 25.0185 3.95919
691 2 2.2208 8.007 26.482 5.21227
692 1 -1.1104 9.49213 22.3582 1.03541
693 1 -1.1104 9.25348 27.7761 1.00402
694 1 -1.1104 9.40669 22.2161 3.92799
695 1 -1.1104 9.33434 28.0112 3.78019
9627 2 2.2208 13.5875 23.638 2.41439
9629 2 2.2208 13.6545 26.5482 5.1602
826 1 -1.1104 12.1344 22.1211 6.60888
1504 1 -1.1104 9.21909 47.2483 6.49588
830 1 -1.1104 9.51603 27.8504 6.61512
827 1 -1.1104 12.2931 27.8065 6.73898
829 1 -1.1104 9.28535 22.3391 6.72165
9408 2 2.2208 13.6659 43.3516 5.15709
944 1 -1.1104 9.38533 39.1597 9.46576
9647 2 2.2208 -0.309532 40.6118 -0.377345
699 2 2.2208 5.20877 34.8826 5.24682
700 1 -1.1104 0.902438 30.7203 1.15756
701 1 -1.1104 0.965147 36.1673 1.10767
703 1 -1.1104 0.941201 30.6943 3.99704
704 1 -1.1104 0.979379 36.2139 3.9545
706 1 -1.1104 1.06474 33.4365 1.08315
707 2 2.2208 5.06666 32.0658 2.49752
708 2 2.2208 5.1973 37.7444 2.51147
709 1 -1.1104 0.996453 33.4695 3.89409
711 1 -1.1104 3.67483 30.6222 1.08173
712 1 -1.1104 3.73314 36.302 1.16554
713 2 2.2208 2.3824 34.9327 2.54325
714 1 -1.1104 3.76274 30.7071 3.93007
715 1 -1.1104 3.74933 36.3171 4.01125
716 2 2.2208 2.35935 32.1363 5.38705
717 2 2.2208 2.3472 37.7023 5.38315
718 1 -1.1104 3.80796 33.4669 1.11943
719 1 -1.1104 3.806 33.5562 3.91668
853 1 -1.1104 1.00712 33.5099 6.8151
725 1 -1.1104 6.44195 33.4923 1.00722
705 1 -1.1104 6.46132 36.2462 3.74611
724 1 -1.1104 6.57346 30.6017 3.82621
710 1 -1.1104 6.55874 33.4195 3.71075
702 1 -1.1104 6.59978 36.4013 1.043
723 1 -1.1104 6.61604 30.8215 1.09069
849 1 -1.1104 0.887244 30.7316 6.8134
851 1 -1.1104 6.45391 30.7744 6.76197
857 1 -1.1104 3.84889 33.5751 6.69957
852 1 -1.1104 6.63533 36.3076 6.62514
850 1 -1.1104 0.928659 36.3025 6.7662
943 1 -1.1104 9.1313 44.7065 9.42526
9368 2 2.2208 13.5667 37.6316 5.21769
726 2 2.2208 10.8042 35.0261 5.17109
727 1 -1.1104 12.1355 30.5773 0.95295
728 1 -1.1104 12.3775 36.3374 1.11503
729 1 -1.1104 12.0398 30.8604 3.78225
730 1 -1.1104 12.1228 36.3979 3.73654
731 1 -1.1104 12.1522 33.4237 1.07171
732 2 2.2208 10.7915 32.1907 2.37922
733 2 2.2208 10.7122 37.6922 2.36431
734 1 -1.1104 12.3147 33.6921 3.85926
735 1 -1.1104 9.41562 30.6512 0.987382
736 1 -1.1104 9.38957 36.3166 1.09474
737 2 2.2208 7.90035 34.7894 2.42009
738 1 -1.1104 9.31424 30.8323 3.61328
739 1 -1.1104 9.22332 36.3078 3.81138
740 2 2.2208 8.07235 32.1633 5.14471
741 2 2.2208 8.16633 37.8365 5.29499