ITEM: TIMESTEP
40000
ITEM: NUMBER OF ATOMS
17730
ITEM: BOX BOUNDS pp pp pp
-3.6040570559035001e-01 2.7700405705589962e+01
-4.2726929537091776e+00 3.3235269295371035e+02
-3.4829951612455418e-01 2.7688299516124523e+01
ITEM: ATOMS id type q x y z
1 2 2.2208 5.09606 1.4118 5.29613
2 1 -1.1104 0.911302 -2.80437 1.01186
3 1 -1.1104 0.897869 2.81131 1.06858
6 1 -1.1104 1.02169 -2.76284 3.71579
7 1 -1.1104 1.19489 2.85248 3.97874
10 1 -1.1104 0.978973 -0.085231 1.08284
12 2 2.2208 5.19184 -1.38974 2.425
13 2 2.2208 5.13464 4.27762 2.4245
14 1 -1.1104 0.948738 0.0360024 3.79268
16 1 -1.1104 3.68798 -3.04212 1.09698
17 1 -1.1104 3.70592 2.78737 1.06951
18 2 2.2208 2.37485 1.4016 2.52938
19 1 -1.1104 3.86469 -2.91428 3.81346
20 1 -1.1104 3.86769 2.83026 3.93072
21 2 2.2208 2.35624 -1.49538 5.0586
22 2 2.2208 2.38644 4.28503 5.23542
23 1 -1.1104 3.75086 -0.0189128 0.980279
24 1 -1.1104 3.80905 -0.034621 3.88913
11 1 -1.1104 6.58522 -0.0240201 1.20416
8 1 -1.1104 6.49322 -2.71305 3.86193
5 1 -1.1104 6.53694 2.63569 1.09488
4 1 -1.1104 6.55253 -2.76513 1.01655
9 1 -1.1104 6.46249 2.85331 3.70507
170 1 -1.1104 0.898427 -0.101114 6.54654
174 1 -1.1104 3.75663 0.0677731 6.61056
169 1 -1.1104 6.52096 2.81616 6.54641
168 1 -1.1104 6.52091 -2.70411 6.59547
232 2 2.2208 10.8565 -4.18522 10.9084
15 1 -1.1104 6.52719 0.147346 3.96667
31 2 2.2208 10.9335 1.39931 5.20429
32 1 -1.1104 12.1686 -2.72991 1.11401
33 1 -1.1104 12.0328 2.75787 0.918994
34 1 -1.1104 12.3194 -2.85034 3.98888
35 1 -1.1104 12.2828 2.84997 3.80189
36 1 -1.1104 12.1829 0.0438144 1.14991
37 2 2.2208 10.8482 -1.47415 2.41979
38 2 2.2208 10.8431 4.14652 2.33689
39 1 -1.1104 12.2103 0.0955387 3.9841
40 1 -1.1104 9.36333 -2.86042 1.07014
41 1 -1.1104 9.39429 2.64937 1.01051
42 2 2.2208 7.87078 1.30535 2.40862
43 1 -1.1104 9.49796 -2.8405 3.8661
44 1 -1.1104 9.48153 2.77381 3.71983
45 2 2.2208 7.97101 -1.38957 5.17526
46 2 2.2208 7.93046 4.19123 5.05317
47 1 -1.1104 9.40281 -0.281809 0.941695
48 1 -1.1104 9.36013 -0.131131 3.64122
8885 2 2.2208 13.6143 1.42912 2.43363
206 1 -1.1104 12.2042 2.78698 6.72576
8886 2 2.2208 13.6002 -1.32139 5.40368
8580 2 2.2208 13.5439 4.20094 5.21475
209 1 -1.1104 9.41907 2.89611 6.57504
51 2 2.2208 8.03244 -4.1911 2.47161
54 2 2.2208 5.05116 6.9113 5.26912
55 2 2.2208 5.12733 12.5791 5.29319
56 1 -1.1104 0.978741 8.32859 1.03666
58 1 -1.1104 0.862153 8.36843 3.94296
60 1 -1.1104 0.91728 5.70148 1.05868
61 1 -1.1104 0.987117 11.185 1.15514
66 2 2.2208 5.16528 9.81446 2.41467
67 1 -1.1104 0.882915 5.67418 3.73052
68 1 -1.1104 0.896023 11.2364 3.96019
71 1 -1.1104 3.80398 8.39266 1.09943
72 2 2.2208 2.34524 6.99046 2.46773
73 2 2.2208 2.25845 12.6642 2.45424
74 1 -1.1104 3.62868 8.38015 3.82078
75 2 2.2208 2.17723 9.80879 5.30016
76 1 -1.1104 3.73547 5.54361 1.03013
77 1 -1.1104 3.79834 11.2263 0.90572
79 1 -1.1104 3.61471 5.57253 3.8592
80 1 -1.1104 3.65204 11.1687 3.74558
64 1 -1.1104 6.44568 11.2723 1.20682
69 1 -1.1104 6.30366 5.51339 3.81068
235 1 -1.1104 6.29526 8.42627 6.68579
70 1 -1.1104 6.39866 11.1679 4.01528
59 1 -1.1104 6.39047 8.2092 3.74422
57 1 -1.1104 6.59476 8.42117 1.04798
63 1 -1.1104 6.57398 5.46904 0.949675
237 1 -1.1104 6.66319 5.5775 6.55034
239 1 -1.1104 3.71201 5.56141 6.73011
78 1 -1.1104 3.72614 11.1609 6.66573
62 1 -1.1104 0.858621 11.2284 6.71498
317 2 2.2208 2.38439 7.04357 13.8079
8609 2 2.2208 13.6245 9.78807 5.24291
25 2 2.2208 10.9055 18.2023 10.8689
84 2 2.2208 10.7399 6.9187 5.14636
85 2 2.2208 10.7064 12.5351 5.17159
86 1 -1.1104 12.1437 8.41529 0.979991
87 1 -1.1104 12.0657 8.4308 3.75333
88 1 -1.1104 12.0825 5.72001 1.10967
89 1 -1.1104 12.0943 11.1094 1.07111
91 2 2.2208 10.6644 9.79576 2.44879
92 1 -1.1104 11.9373 5.47863 3.81185
93 1 -1.1104 12.1079 11.3344 3.83047
94 1 -1.1104 9.3812 8.3044 1.00676
95 2 2.2208 7.89731 7.04622 2.38212
96 2 2.2208 7.82723 12.6452 2.48623
97 1 -1.1104 9.32819 8.408 3.85671
98 2 2.2208 7.7831 9.76181 5.38186
99 1 -1.1104 9.38697 5.557 1.10268
100 1 -1.1104 9.28042 11.3765 1.13343
102 1 -1.1104 9.18863 5.68118 3.69161
103 1 -1.1104 9.25933 11.1915 3.88667
8891 2 2.2208 13.5398 12.5215 2.51121
90 1 -1.1104 12.085 11.1352 6.58085
101 1 -1.1104 9.28596 11.1184 6.66859
266 1 -1.1104 12.2017 5.76196 6.68694
267 1 -1.1104 9.21908 8.36017 6.69149
27 1 -1.1104 12.2574 19.5036 12.2243
314 2 2.2208 7.95263 1.46909 13.5893
106 2 2.2208 5.27232 18.2998 5.16062
107 1 -1.1104 0.988512 13.9955 1.01074
109 1 -1.1104 1.01923 19.564 1.02277
113 1 -1.1104 0.815837 14.0587 3.84727
114 1 -1.1104 1.00491 19.7309 3.7914
116 1 -1.1104 0.969322 16.6634 1.08248
119 2 2.2208 5.12535 15.4855 2.50586
120 2 2.2208 5.15645 21.0583 2.36793
121 1 -1.1104 1.00023 16.8414 3.8764
123 1 -1.1104 3.77206 14.002 1.01377
125 1 -1.1104 3.85844 19.7099 1.0658
127 2 2.2208 2.25656 18.2613 2.48766
128 1 -1.1104 3.63523 14.0146 3.98233
129 1 -1.1104 3.76257 19.7568 3.72071
130 2 2.2208 2.42241 15.4719 5.34793
131 2 2.2208 2.42867 21.1522 5.16168
132 1 -1.1104 3.7673 16.8261 1.09904
134 1 -1.1104 3.6965 16.8471 3.90564
139 1 -1.1104 6.61801 19.6888 3.66511
110 1 -1.1104 6.54402 14.0547 1.13645
138 1 -1.1104 6.67105 19.6907 0.97112
140 1 -1.1104 6.56955 16.7189 0.995072
115 1 -1.1104 6.5617 13.9821 3.90325
122 1 -1.1104 6.65294 16.6969 3.80729
111 1 -1.1104 6.4536 14.0639 6.68531
117 1 -1.1104 1.07302 16.8571 6.69192
124 1 -1.1104 3.84996 14.0138 6.75369
108 1 -1.1104 1.02441 14.1864 6.78547
8947 2 2.2208 -0.498826 21.1396 13.6021
104 1 -1.1104 9.44197 19.564 12.3308
149 1 -1.1104 12.1155 16.6828 6.63414
8657 2 2.2208 13.6362 21.0608 5.19876
141 2 2.2208 10.8178 18.1757 5.37223
142 1 -1.1104 12.1514 13.9105 1.13373
144 1 -1.1104 12.1858 19.5725 0.757444
146 1 -1.1104 12.1481 14.1562 3.73797
147 1 -1.1104 12.2798 19.7636 3.71511
148 1 -1.1104 12.1844 16.7059 1.0354
150 2 2.2208 10.756 15.3499 2.54264
151 2 2.2208 10.865 21.1412 2.34683
152 1 -1.1104 12.1406 16.9488 3.89987
153 1 -1.1104 9.40068 14.1669 1.07129
155 1 -1.1104 9.49218 19.5774 1.06957
157 2 2.2208 8.01333 18.2774 2.48846
158 1 -1.1104 9.43221 14.0334 3.80375
159 1 -1.1104 9.57306 19.6714 3.85723
160 2 2.2208 7.96471 15.3974 5.21668
161 2 2.2208 7.86058 21.1114 5.24412
162 1 -1.1104 9.39542 16.813 1.04535
164 1 -1.1104 9.33238 16.8982 3.87321
154 1 -1.1104 9.401 14.1016 6.72287
8678 2 2.2208 13.6136 15.502 5.23892
8896 2 2.2208 13.4977 18.228 2.46333
145 1 -1.1104 12.2258 19.5407 6.52221
163 1 -1.1104 9.27719 16.7668 6.6118
81 2 2.2208 10.7579 21.0331 8.10601
231 2 2.2208 8.05019 -4.09319 7.96187
171 1 -1.1104 6.66528 0.108711 6.56236
167 1 -1.1104 0.773025 2.93553 6.68372
173 1 -1.1104 3.66011 2.88438 6.64056
26 1 -1.1104 12.083 13.9345 12.1942
166 1 -1.1104 0.952686 -2.85197 6.51845
172 1 -1.1104 3.71245 -2.68982 6.5541
175 2 2.2208 5.13346 1.49471 10.7545
176 1 -1.1104 0.80589 -2.82707 12.1372
177 1 -1.1104 1.06152 2.7311 12.2285
180 1 -1.1104 1.01589 -2.73339 9.25437
181 1 -1.1104 0.991077 2.90974 9.42111
184 1 -1.1104 0.983209 -0.0804465 12.149
186 2 2.2208 5.13981 -1.27596 8.07995
187 2 2.2208 5.20937 4.25203 7.96874
188 1 -1.1104 0.778216 0.0598996 9.47647
190 1 -1.1104 3.65248 -2.81107 12.1287
191 1 -1.1104 3.69629 2.85339 12.1181
192 2 2.2208 2.2552 1.44933 7.92068
193 1 -1.1104 3.87552 -2.75051 9.39751
194 1 -1.1104 3.90243 2.88648 9.17762
195 2 2.2208 2.2497 -1.4075 10.7596
196 2 2.2208 2.36865 4.28315 10.8336
197 1 -1.1104 3.76114 -0.0386765 12.1726
198 1 -1.1104 3.68827 0.0992188 9.279
182 1 -1.1104 6.6655 -2.84109 9.36147
179 1 -1.1104 6.5071 2.94141 12.209
185 1 -1.1104 6.51048 0.135766 12.2534
183 1 -1.1104 6.51451 2.81322 9.34497
178 1 -1.1104 6.56476 -2.81226 12.0082
189 1 -1.1104 6.54107 0.00225084 9.51727
82 1 -1.1104 12.4106 16.8051 9.37161
8892 2 2.2208 13.5308 7.06327 2.38907
8842 2 2.2208 13.7556 20.953 10.8008
83 1 -1.1104 9.44942 14.0633 12.2847
207 1 -1.1104 12.1653 0.08546 6.75842
205 1 -1.1104 12.3085 -2.82676 6.69335
326 2 2.2208 10.8814 21.0954 13.6755
208 1 -1.1104 9.39898 -2.86968 6.55477
210 1 -1.1104 9.42213 0.0365552 6.51467
8715 2 2.2208 13.4486 4.1458 10.8605
332 2 2.2208 10.6907 12.6909 -0.290415
8905 2 2.2208 13.6163 -1.35164 10.952
211 2 2.2208 10.6383 1.41229 10.9394
212 1 -1.1104 12.2131 -2.8354 12.3693
213 1 -1.1104 12.1967 2.74914 12.3858
214 1 -1.1104 12.1592 -2.78081 9.38713
215 1 -1.1104 12.0823 2.8088 9.52032
216 1 -1.1104 12.2098 0.0227894 12.2696
217 2 2.2208 10.7829 -1.40582 8.01801
219 1 -1.1104 12.0864 0.0320022 9.48264
220 1 -1.1104 9.3271 -2.77582 12.2894
221 1 -1.1104 9.20467 2.90684 12.1681
222 2 2.2208 8.01721 1.5674 8.0026
223 1 -1.1104 9.50045 -2.82306 9.44773
224 1 -1.1104 9.36217 2.86228 9.34805
225 2 2.2208 7.95135 -1.41643 10.7572
226 2 2.2208 7.89115 4.30276 10.8075
227 1 -1.1104 9.34455 -0.070976 12.2659
228 1 -1.1104 9.38941 0.0534533 9.34987
218 2 2.2208 10.8219 4.2192 8.02642
165 2 2.2208 8.18311 20.9849 11.0069
49 1 -1.1104 12.223 19.6864 9.33404
203 2 2.2208 5.16266 -4.14212 10.7474
288 1 -1.1104 6.54514 19.6305 9.52631
65 1 -1.1104 6.42809 11.1744 6.76534
234 1 -1.1104 0.830017 8.42908 6.72139
238 1 -1.1104 3.60785 8.41259 6.53572
236 1 -1.1104 0.867425 5.63584 6.63402
240 2 2.2208 5.10032 7.18318 10.9494
241 2 2.2208 5.27745 12.717 10.8743
242 1 -1.1104 0.884002 8.38642 12.3052
244 1 -1.1104 0.910267 8.45075 9.55896
246 1 -1.1104 0.985736 5.70849 12.2225
247 1 -1.1104 0.963708 11.1356 12.2277
250 2 2.2208 5.06884 9.85304 7.97934
251 1 -1.1104 0.967776 5.69917 9.32351
252 1 -1.1104 1.10239 11.2454 9.39423
255 1 -1.1104 3.74731 8.54005 12.2822
256 2 2.2208 2.35433 6.98369 7.97902
257 2 2.2208 2.38654 12.6551 8.15016
258 1 -1.1104 3.72644 8.47304 9.43661
259 2 2.2208 2.33199 9.78052 10.8423
260 1 -1.1104 3.65686 5.69936 12.2851
261 1 -1.1104 3.7924 11.2912 12.2949
262 1 -1.1104 3.80313 5.6413 9.58507
263 1 -1.1104 3.88231 11.3442 9.56761
243 1 -1.1104 6.68433 8.44057 12.2022
253 1 -1.1104 6.65713 5.51859 9.34094
249 1 -1.1104 6.77797 11.2169 12.2369
245 1 -1.1104 6.58515 8.3625 9.36276
248 1 -1.1104 6.40803 5.71004 12.2519
254 1 -1.1104 6.60641 11.204 9.50654
265 1 -1.1104 12.0672 8.38341 6.63713
269 1 -1.1104 9.37939 5.50699 6.73695
8796 2 2.2208 13.6797 9.823 10.8292
8791 2 2.2208 13.6224 7.0219 8.04792
8792 2 2.2208 13.4973 12.4734 7.94317
264 1 -1.1104 9.34707 11.1619 9.5344
268 1 -1.1104 9.53336 5.43967 9.46098
270 1 -1.1104 9.50844 11.1414 12.4162
271 1 -1.1104 9.39122 5.67087 12.2408
272 2 2.2208 8.02886 9.76258 10.8892
273 1 -1.1104 9.39574 8.32594 9.504
274 2 2.2208 7.96711 12.626 8.07843
275 2 2.2208 7.89129 6.90966 8.01623
276 2 2.2208 10.8692 7.01652 10.8214
277 2 2.2208 10.77 12.5087 10.8748
278 1 -1.1104 12.3008 8.28623 12.1429
279 1 -1.1104 12.1802 8.23238 9.37129
280 1 -1.1104 12.2265 5.65741 12.2747
281 1 -1.1104 12.3349 11.133 12.1966
282 2 2.2208 10.6912 9.71868 8.02576
283 1 -1.1104 12.2522 5.51882 9.5609
284 1 -1.1104 12.1641 11.0233 9.44796
285 1 -1.1104 9.37006 8.32996 12.3809
8880 2 2.2208 13.7241 15.2919 10.8212
28 2 2.2208 2.33286 -4.22125 2.45872
126 1 -1.1104 3.77677 19.6796 6.55539
112 1 -1.1104 6.52284 19.7142 6.51961
118 1 -1.1104 6.60371 16.9654 6.54278
135 1 -1.1104 9.32627 13.9487 9.49822
233 1 -1.1104 6.54443 16.7639 12.2955
302 1 -1.1104 1.08372 19.7008 6.69151
133 1 -1.1104 3.91088 16.9441 6.63835
289 1 -1.1104 6.66826 16.8709 9.62093
305 1 -1.1104 3.79354 14.0896 9.41689
304 1 -1.1104 3.85034 16.9821 9.51852
303 2 2.2208 2.49698 18.2667 7.97952
301 1 -1.1104 3.69453 19.9315 9.20859
300 2 2.2208 5.22045 18.3237 10.9954
201 2 2.2208 2.36127 15.4405 10.9023
204 2 2.2208 2.39168 21.1017 10.7998
229 1 -1.1104 3.87005 16.8044 12.2656
230 1 -1.1104 0.955068 16.9934 12.3262
286 1 -1.1104 3.80483 19.5806 12.2252
287 1 -1.1104 3.87348 14.1715 12.2994
291 1 -1.1104 0.904867 19.755 9.49957
292 1 -1.1104 1.01219 16.835 9.4223
293 2 2.2208 5.05076 21.1354 7.98511
294 1 -1.1104 1.01634 13.9851 9.52243
295 2 2.2208 5.15012 15.5389 8.10533
298 1 -1.1104 0.913538 19.7425 12.097
299 1 -1.1104 1.01738 14.1057 12.3295
297 1 -1.1104 6.52073 14.0284 12.3787
296 1 -1.1104 6.64871 19.6284 12.3803
290 1 -1.1104 6.68483 14.1608 9.53642
199 1 -1.1104 9.43639 16.8408 12.1043
105 2 2.2208 7.94464 18.2593 8.04033
30 1 -1.1104 12.1351 13.8377 9.50032
53 2 2.2208 10.9343 15.3544 8.09185
137 2 2.2208 8.02343 15.4241 10.8577
50 1 -1.1104 12.3347 16.6318 12.2936
156 1 -1.1104 9.39632 19.543 6.59381
143 1 -1.1104 12.1714 13.9881 6.63022
200 1 -1.1104 9.69879 16.8501 9.31431
136 1 -1.1104 9.28465 19.7462 9.37655
8881 2 2.2208 13.6447 18.2402 7.89023
328 2 2.2208 8.01919 18.1298 13.6929
29 2 2.2208 5.27453 -4.20778 5.23631
323 2 2.2208 2.37603 18.2664 13.6376
333 2 2.2208 7.9388 9.87142 -0.399195
315 2 2.2208 10.8031 -1.37896 13.6683
202 2 2.2208 2.42575 -4.1938 7.91598
8810 2 2.2208 -0.39952 7.08242 10.9036
8888 2 2.2208 -0.581574 6.96981 5.26638
310 2 2.2208 5.14922 -1.37659 13.6274
8884 2 2.2208 -0.393151 -4.15978 5.32159
335 2 2.2208 2.41872 -1.45646 -0.409661
8919 2 2.2208 13.544 4.29322 -0.461465
329 2 2.2208 5.14933 1.51532 -0.393281
8909 2 2.2208 13.5156 9.85132 -0.304423
321 2 2.2208 10.6665 9.75157 13.7142
8931 2 2.2208 13.6181 -4.24552 13.7109
316 2 2.2208 10.8555 4.10679 13.6714
311 2 2.2208 2.41368 1.42633 13.5371
324 2 2.2208 5.19391 21.0428 13.7307
325 2 2.2208 5.25358 15.4182 13.7556
344 2 2.2208 5.19792 12.5736 -0.333331
306 2 2.2208 7.99683 15.3299 -0.301515
8911 2 2.2208 13.5587 1.33013 13.7193
346 2 2.2208 5.14989 1.21966 16.548
347 1 -1.1104 0.812888 -2.71658 17.8173
348 1 -1.1104 1.08923 2.89162 17.8833
351 1 -1.1104 0.952529 -2.85077 14.9598
353 1 -1.1104 0.889895 2.81509 15.1712
359 1 -1.1104 1.11785 -0.00641834 18.0266
361 2 2.2208 5.16864 -1.52093 19.265
362 2 2.2208 5.17829 4.09808 19.2412
363 1 -1.1104 0.834163 0.0403374 14.8495
367 1 -1.1104 3.79073 -2.7753 17.6579
368 1 -1.1104 3.85692 2.65289 17.8952
369 2 2.2208 2.44933 1.43054 19.3106
370 1 -1.1104 3.76007 -2.86782 15.1085
372 1 -1.1104 3.68412 2.87786 14.9735
374 2 2.2208 2.36685 -1.36796 16.3934
375 2 2.2208 2.45148 4.14024 16.476
376 1 -1.1104 3.75852 -0.0368656 17.763
377 1 -1.1104 3.72344 0.0695732 14.9831
350 1 -1.1104 6.6187 2.77949 17.8221
364 1 -1.1104 0.983964 -0.00593472 20.6141
360 1 -1.1104 6.65252 -0.146853 17.7557
349 1 -1.1104 6.61849 -2.98192 17.8898
355 1 -1.1104 6.61898 -2.61245 14.9786
357 1 -1.1104 6.44953 2.84323 15.1162
365 1 -1.1104 6.68623 0.116609 15.1702
8999 2 2.2208 13.5899 1.37321 19.3314
371 1 -1.1104 3.69322 -2.89377 20.6061
378 1 -1.1104 3.70795 0.0276086 20.4892
358 1 -1.1104 6.50259 2.80368 20.6264
580 2 2.2208 2.37749 -4.26321 24.8782
389 2 2.2208 10.6934 1.39164 16.4819
390 1 -1.1104 12.3162 -2.87448 17.9555
391 1 -1.1104 12.0939 2.85059 17.8836
392 1 -1.1104 12.1837 -2.77435 15.0727
394 1 -1.1104 12.1997 2.7615 15.1276
396 1 -1.1104 12.2607 -0.00972006 17.8528
397 2 2.2208 10.7797 -1.39541 19.2336
398 2 2.2208 10.7837 4.23102 19.3391
399 1 -1.1104 12.1877 0.0557748 15.1536
401 1 -1.1104 9.52466 -2.80952 17.7764
402 1 -1.1104 9.24708 2.77236 17.7232
403 2 2.2208 7.95203 1.38866 19.1415
404 1 -1.1104 9.49981 -2.86836 15.0296
406 1 -1.1104 9.36208 2.74696 14.9514
408 2 2.2208 8.00711 -1.50042 16.3836
409 2 2.2208 7.85648 4.27736 16.4049
410 1 -1.1104 9.28565 -0.109766 17.7667
411 1 -1.1104 9.42411 -0.0399216 14.9471
9072 2 2.2208 13.646 -1.40574 16.4338
407 1 -1.1104 9.14882 2.79511 20.6787
8993 2 2.2208 13.474 4.11015 16.4916
400 1 -1.1104 12.2277 -0.0156453 20.6182
412 1 -1.1104 9.49051 0.0275147 20.6047
405 1 -1.1104 9.20942 -2.82302 20.4627
393 1 -1.1104 12.0215 -2.91202 20.7571
414 2 2.2208 10.7668 -4.35539 16.4615
422 2 2.2208 5.12736 6.95145 16.5166
423 2 2.2208 5.07291 12.7356 16.5104
424 1 -1.1104 0.851041 8.38194 17.8415
426 1 -1.1104 0.984038 8.41563 15.0823
430 1 -1.1104 0.902074 5.50695 17.8117
431 1 -1.1104 0.977385 11.1337 17.99
434 2 2.2208 5.10647 9.74975 19.1617
435 1 -1.1104 1.03894 5.58075 15.0442
437 1 -1.1104 0.98853 11.2082 15.0975
443 1 -1.1104 3.71615 8.30429 17.8015
444 2 2.2208 2.29685 6.94942 19.1677
445 2 2.2208 2.4003 12.5275 19.2502
446 1 -1.1104 3.89854 8.51351 15.0368
448 2 2.2208 2.27708 9.88019 16.3823
449 1 -1.1104 3.60708 5.56689 17.8855
450 1 -1.1104 3.69858 11.2419 17.7624
451 1 -1.1104 3.88088 5.768 14.9626
453 1 -1.1104 3.6824 11.2651 14.9486
439 1 -1.1104 6.53235 5.64137 15.0168
441 1 -1.1104 6.62989 11.3564 15.0313
432 1 -1.1104 6.34788 5.66212 17.8717
425 1 -1.1104 6.64166 8.41596 17.7959
433 1 -1.1104 6.40683 11.1555 17.8288
428 1 -1.1104 6.57909 8.59378 15.026
438 1 -1.1104 1.04264 11.3505 20.679
452 1 -1.1104 3.69654 5.66767 20.6476
440 1 -1.1104 6.53219 5.6337 20.8652
442 1 -1.1104 6.49025 11.111 20.6343
9073 2 2.2208 13.6452 -4.28976 19.4242
308 2 2.2208 8.19714 20.9251 27.6283
9067 2 2.2208 13.3644 9.59546 16.4661
458 2 2.2208 10.7165 6.92458 16.5162
459 2 2.2208 10.9736 12.6719 16.4937
460 1 -1.1104 12.0236 8.26527 17.8795
461 1 -1.1104 12.1271 8.36139 15.0809
463 1 -1.1104 12.1057 5.60469 17.9493
464 1 -1.1104 12.1515 11.1376 17.8429
465 2 2.2208 10.6316 9.80741 19.1875
466 1 -1.1104 12.0299 5.46535 15.1291
468 1 -1.1104 12.2777 11.0931 14.9936
470 1 -1.1104 9.32062 8.35475 17.8706
471 2 2.2208 7.81683 6.9772 19.2571
472 2 2.2208 7.96063 12.6183 19.3118
473 1 -1.1104 9.27127 8.52031 15.1499
475 2 2.2208 7.84196 9.9789 16.4873
476 1 -1.1104 9.12531 5.62025 17.8365
477 1 -1.1104 9.24981 11.1856 17.904
478 1 -1.1104 9.30137 5.63431 14.9045
480 1 -1.1104 9.48738 11.2619 15.3265
474 1 -1.1104 9.03838 8.43981 20.7475
469 1 -1.1104 12.1405 11.2403 20.6455
9069 2 2.2208 13.6943 12.6254 19.3122
9068 2 2.2208 13.437 6.97684 19.2779
462 1 -1.1104 11.9069 8.36653 20.6898
481 1 -1.1104 9.33283 11.1594 20.9302
327 2 2.2208 10.9245 15.4584 13.6048
579 2 2.2208 5.11995 -4.31315 21.9992
608 2 2.2208 10.6819 -4.27293 22.0371
330 2 2.2208 2.46015 21.059 27.6396
485 2 2.2208 5.22999 18.2535 16.5307
486 1 -1.1104 1.02768 13.9947 17.9865
487 1 -1.1104 1.10046 19.6561 17.7589
490 1 -1.1104 1.05773 13.9576 15.1407
492 1 -1.1104 0.943604 19.7182 14.8675
498 1 -1.1104 0.784258 16.7019 17.7645
500 2 2.2208 5.01069 15.4544 19.3061
501 2 2.2208 5.27329 21.1474 19.12
502 1 -1.1104 0.947526 16.758 15.0583
506 1 -1.1104 3.57385 14.0926 17.9859
507 1 -1.1104 3.85975 19.6591 17.8145
508 2 2.2208 2.36029 18.1893 19.1684
509 1 -1.1104 3.77177 13.8982 15.0812
511 1 -1.1104 3.82263 19.6036 14.8828
513 2 2.2208 2.33146 15.4277 16.4115
514 2 2.2208 2.3382 20.9604 16.4088
515 1 -1.1104 3.71909 16.8899 17.9403
516 1 -1.1104 3.75622 16.8265 15.1859
517 1 -1.1104 3.65793 16.8471 20.7405
489 1 -1.1104 6.65403 19.6722 17.925
504 1 -1.1104 6.62678 16.8507 15.1047
496 1 -1.1104 6.60147 19.5666 15.0682
488 1 -1.1104 6.36012 14.1064 18.0296
491 1 -1.1104 0.981192 14.1498 20.8264
499 1 -1.1104 6.56467 16.6934 17.8139
510 1 -1.1104 3.7405 13.9221 20.6784
495 1 -1.1104 6.51138 13.8563 20.8158
497 1 -1.1104 6.54276 19.7253 20.6456
415 2 2.2208 7.92166 -4.31451 19.2451
320 2 2.2208 7.90187 7.01976 13.582
494 1 -1.1104 6.51619 14.1096 15.1542
9140 2 2.2208 13.7172 21.0199 16.47
521 2 2.2208 10.8731 18.2918 16.4455
522 1 -1.1104 12.0823 13.953 17.8728
523 1 -1.1104 12.2341 19.5253 17.826
524 1 -1.1104 12.2751 14.1038 15.025
526 1 -1.1104 12.256 19.766 14.9593
528 1 -1.1104 12.2955 16.8499 17.9064
529 2 2.2208 10.8757 15.3705 19.2799
530 2 2.2208 10.7968 21.0942 19.3105
531 1 -1.1104 12.1362 16.8207 15.1281
533 1 -1.1104 9.32709 14.0712 17.8705
534 1 -1.1104 9.57479 19.7487 17.9378
535 2 2.2208 7.91919 18.2375 19.1929
536 1 -1.1104 9.45117 14.0639 15.075
538 1 -1.1104 9.40351 19.6401 15.0814
540 2 2.2208 7.90549 15.4216 16.5612
541 2 2.2208 8.13714 21.0293 16.5229
542 1 -1.1104 9.57276 16.8465 17.7991
543 1 -1.1104 9.37831 16.8202 14.9531
9137 2 2.2208 13.6493 15.5255 16.5179
9139 2 2.2208 13.63 18.2225 19.2934
532 1 -1.1104 12.2379 17.0209 20.7408
641 2 2.2208 7.96462 20.9346 21.9277
539 1 -1.1104 9.41914 19.739 20.7169
544 1 -1.1104 9.22984 16.7167 20.5528
312 2 2.2208 5.12726 4.2054 13.5064
373 1 -1.1104 3.67559 2.7549 20.7438
366 1 -1.1104 6.61284 0.0243396 20.5472
354 1 -1.1104 0.913795 2.82757 20.6532
352 1 -1.1104 0.939874 -2.80535 20.6099
356 1 -1.1104 6.4371 -2.68335 20.7715
549 2 2.2208 5.10583 1.36917 22.0449
550 1 -1.1104 0.870428 -2.90835 23.6012
551 1 -1.1104 1.0786 2.81996 23.4668
554 1 -1.1104 0.886313 -2.79652 26.32
555 1 -1.1104 0.941747 2.63531 26.2476
558 1 -1.1104 0.907618 -0.0646 23.5239
560 2 2.2208 5.33094 -1.58179 24.8596
561 2 2.2208 5.05102 4.17852 24.9252
562 1 -1.1104 1.03471 -0.0102911 26.2616
564 1 -1.1104 3.73846 -2.83592 23.2722
565 1 -1.1104 3.86866 2.78503 23.3726
566 2 2.2208 2.40981 1.35681 24.7948
567 1 -1.1104 3.81856 -2.78232 26.2507
568 1 -1.1104 3.68404 2.71425 26.2546
569 2 2.2208 2.46872 -1.40973 22.0109
570 2 2.2208 2.3631 4.16904 22.1208
571 1 -1.1104 3.78154 0.0641962 23.2837
572 1 -1.1104 3.86455 -0.0481941 26.1792
559 1 -1.1104 6.59219 -0.0185416 23.5144
557 1 -1.1104 6.57623 2.77561 26.3504
556 1 -1.1104 6.75979 -2.84296 26.2925
553 1 -1.1104 6.62027 2.87821 23.5546
552 1 -1.1104 6.63257 -2.84761 23.4028
563 1 -1.1104 6.3963 0.014974 26.3541
8998 2 2.2208 -0.440065 18.3043 22.0339
8922 2 2.2208 13.6066 -1.41591 27.7852
576 1 -1.1104 12.2734 16.6879 23.4471
612 1 -1.1104 9.66384 19.3733 26.2583
395 1 -1.1104 12.0959 2.79801 20.6003
418 1 -1.1104 12.1134 14.1345 26.3235
9038 2 2.2208 13.4635 1.35874 24.9232
9039 2 2.2208 13.5564 -1.39401 22.1097
9200 2 2.2208 13.5329 4.23179 22.0292
585 2 2.2208 10.7578 1.44284 22.07
586 1 -1.1104 12.0766 -2.86599 23.5814
587 1 -1.1104 12.1499 2.73163 23.4148
588 1 -1.1104 12.2114 -2.69971 26.2653
589 1 -1.1104 11.9802 2.77717 26.1543
590 1 -1.1104 12.1998 0.0243447 23.4364
591 2 2.2208 10.8559 -1.30433 24.787
592 2 2.2208 10.6799 4.28931 24.758
593 1 -1.1104 12.2276 -0.0129128 26.316
594 1 -1.1104 9.32878 -2.81357 23.3785
595 1 -1.1104 9.40004 2.93214 23.3249
596 2 2.2208 7.95134 1.51453 24.8773
597 1 -1.1104 9.373 -2.71837 26.156
598 1 -1.1104 9.39658 2.99853 26.2069
599 2 2.2208 8.00623 -1.30949 21.9445
600 2 2.2208 7.82671 4.34859 22.0545
601 1 -1.1104 9.39853 0.0480308 23.4429
602 1 -1.1104 9.3132 -0.00257811 26.3272
582 1 -1.1104 12.2821 16.8357 26.1807
8938 2 2.2208 13.6653 21.1172 27.6331
581 2 2.2208 10.8569 21.0609 24.9137
9136 2 2.2208 13.6101 18.269 24.9128
454 1 -1.1104 3.7399 11.0909 20.5019
429 1 -1.1104 6.21086 8.25788 20.5641
436 1 -1.1104 0.926693 5.51158 20.7253
427 1 -1.1104 1.08355 8.29519 20.6649
447 1 -1.1104 3.618 8.41998 20.5656
614 2 2.2208 4.9328 7.02793 22.1065
615 2 2.2208 5.11608 12.5301 22.0406
616 1 -1.1104 0.767839 8.4558 23.5113
618 1 -1.1104 0.83288 8.38633 26.2391
620 1 -1.1104 0.805375 5.74937 23.5702
621 1 -1.1104 0.918023 11.3095 23.594
624 2 2.2208 4.97496 9.82438 24.8908
625 1 -1.1104 0.861901 5.38981 26.4185
626 1 -1.1104 0.800711 11.2352 26.3171
629 1 -1.1104 3.68615 8.56908 23.4258
630 2 2.2208 2.26853 7.0848 24.9681
631 2 2.2208 2.35129 12.7183 24.8485
632 1 -1.1104 3.71441 8.33221 26.2426
633 2 2.2208 2.37228 9.86848 21.9815
634 1 -1.1104 3.56352 5.71215 23.5036
635 1 -1.1104 3.71872 11.3517 23.4384
636 1 -1.1104 3.72696 5.62267 26.3613
637 1 -1.1104 3.52626 11.1179 26.2318
628 1 -1.1104 6.50145 11.2097 26.3076
619 1 -1.1104 6.64155 8.33095 26.3501
622 1 -1.1104 6.30409 5.65209 23.5032
623 1 -1.1104 6.47666 11.2057 23.5329
617 1 -1.1104 6.48092 8.40464 23.4171
627 1 -1.1104 6.53842 5.54106 26.1851
384 2 2.2208 10.7039 18.2295 21.962
606 2 2.2208 8.06826 18.2005 24.8831
479 1 -1.1104 9.40876 5.68897 20.6841
467 1 -1.1104 12.1257 5.63251 20.7797
8995 2 2.2208 13.6854 12.5406 24.9559
573 1 -1.1104 9.31474 8.41607 23.563
574 1 -1.1104 12.2584 11.3113 26.2452
575 1 -1.1104 12.0921 5.59702 26.201
578 2 2.2208 10.6856 9.84569 24.8205
603 1 -1.1104 12.0803 11.1434 23.4797
604 1 -1.1104 12.0468 5.65803 23.4149
605 1 -1.1104 12.1682 8.48096 26.1801
607 1 -1.1104 12.2182 8.45254 23.3748
638 2 2.2208 10.7903 12.585 22.1781
639 2 2.2208 10.6077 7.07495 22.0857
640 2 2.2208 7.78321 7.07391 24.8221
644 2 2.2208 7.92467 12.7233 24.8958
645 1 -1.1104 9.37754 11.3273 26.2986
646 1 -1.1104 9.21993 5.78468 26.1473
647 1 -1.1104 9.19843 11.2467 23.65
648 1 -1.1104 9.19442 5.6947 23.3412
649 2 2.2208 7.82295 9.87585 22.1203
650 1 -1.1104 9.30442 8.55515 26.2707
8994 2 2.2208 13.595 6.96443 24.7769
9259 2 2.2208 13.4757 9.76192 22.0455
334 2 2.2208 10.7609 7.11077 27.596
642 1 -1.1104 9.52033 16.8227 23.4853
503 1 -1.1104 0.882756 16.9509 20.639
505 1 -1.1104 6.46231 16.8701 20.553
9112 2 2.2208 13.6439 21.0001 22.0847
493 1 -1.1104 0.962839 19.7533 20.571
482 1 -1.1104 6.57848 19.591 23.2599
512 1 -1.1104 3.77582 19.6442 20.6248
545 1 -1.1104 6.63741 13.9218 26.4292
455 1 -1.1104 6.50733 13.9945 23.6308
610 1 -1.1104 6.63018 19.4958 26.0262
547 2 2.2208 2.23759 15.5025 22.1683
379 2 2.2208 2.35107 21.1188 21.9442
382 1 -1.1104 3.6438 16.7718 23.4131
383 1 -1.1104 0.839263 16.9497 23.4927
386 1 -1.1104 3.86302 13.97 26.1503
387 1 -1.1104 3.82235 16.9805 26.278
388 2 2.2208 2.23862 18.2024 24.8745
416 1 -1.1104 3.71195 19.5768 26.2835
419 2 2.2208 5.02095 18.2454 22.0587
420 1 -1.1104 0.878686 14.0998 23.5695
421 1 -1.1104 1.00128 19.8112 23.3691
456 2 2.2208 5.13795 15.3531 24.8222
457 2 2.2208 5.19545 21.0686 24.6508
483 1 -1.1104 0.839918 14.108 26.3212
484 1 -1.1104 0.983138 16.8072 26.2614
518 1 -1.1104 0.915824 19.6662 26.2731
520 1 -1.1104 3.53543 14.0383 23.4794
546 1 -1.1104 3.68296 19.6374 23.3929
385 1 -1.1104 6.56559 16.74 23.3386
519 1 -1.1104 6.68283 16.7208 26.2114
584 1 -1.1104 9.35574 19.6184 23.3879
611 1 -1.1104 9.35003 14.1319 26.2013
583 1 -1.1104 9.40245 14.0407 23.3538
527 1 -1.1104 12.1134 19.7259 20.6516
537 1 -1.1104 9.47708 13.8971 20.7165
525 1 -1.1104 12.182 14.0549 20.7684
577 2 2.2208 10.802 15.4802 24.8603
548 1 -1.1104 12.3716 19.7854 26.2163
613 2 2.2208 7.94732 15.4481 22.0199
413 1 -1.1104 12.1537 13.8865 23.5257
417 1 -1.1104 12.2626 19.5893 23.3329
643 1 -1.1104 9.42101 16.7653 26.3967
307 2 2.2208 10.875 18.0334 27.7058
338 2 2.2208 10.6684 1.36228 27.5522
8930 2 2.2208 13.6239 18.2752 13.6449
319 2 2.2208 2.39552 12.4981 13.5641
331 2 2.2208 5.26008 18.2557 27.6994
318 2 2.2208 5.2319 9.95684 13.6806
339 2 2.2208 7.94774 -1.39729 27.6759
8997 2 2.2208 -0.44797 21.1523 24.9137
8924 2 2.2208 13.6044 6.93388 13.6798
345 2 2.2208 2.3811 15.5163 27.7444
9178 2 2.2208 -0.443579 21.0807 19.2995
8929 2 2.2208 -0.440326 -4.20232 27.7978
8926 2 2.2208 13.5439 12.4519 13.63
343 2 2.2208 2.32297 9.81248 27.7897
340 2 2.2208 8.06473 4.2049 27.6472
337 2 2.2208 5.20835 -4.29273 27.6082
8939 2 2.2208 13.6133 15.3471 27.6965
309 2 2.2208 2.30903 -4.32913 13.5856
322 2 2.2208 8.07026 12.6962 13.6739
342 2 2.2208 5.16907 6.98796 27.7402
336 2 2.2208 2.25168 4.22406 27.7331
651 2 2.2208 5.32004 23.7956 5.25744
652 2 2.2208 5.15161 29.4429 5.24615
653 1 -1.1104 1.01695 25.2092 1.0027
654 1 -1.1104 0.908388 25.1278 3.85033
655 1 -1.1104 1.00643 22.3778 0.782537
656 1 -1.1104 1.0557 27.9377 1.09909
657 2 2.2208 5.29259 26.619 2.37613
658 1 -1.1104 1.08926 22.5661 3.65535
659 1 -1.1104 1.11949 28.1066 3.81641
660 1 -1.1104 4.02043 25.3626 0.864877
661 2 2.2208 2.4075 23.883 2.29237
662 2 2.2208 2.41274 29.5089 2.44793
663 1 -1.1104 3.78987 25.2022 3.77404
664 2 2.2208 2.45462 26.5192 5.10202
665 1 -1.1104 3.69483 22.5435 0.886074
666 1 -1.1104 3.72228 28.0286 1.04935
667 1 -1.1104 3.86066 22.5725 3.74289
668 1 -1.1104 3.86894 27.9893 3.7629
677 1 -1.1104 6.60336 27.9922 3.90561
673 1 -1.1104 6.4766 25.2076 3.62166
674 1 -1.1104 6.71781 22.3658 0.963352
676 1 -1.1104 6.62367 22.4739 3.74273
672 1 -1.1104 6.75894 25.2127 0.891503
796 1 -1.1104 6.57774 22.487 6.59591
793 1 -1.1104 6.48192 25.2048 6.74052
675 1 -1.1104 6.71672 28.0405 1.06522
797 1 -1.1104 6.47154 28.0099 6.78962
800 1 -1.1104 3.69543 27.9698 6.62595
1478 1 -1.1104 6.68407 47.8998 12.4911
9642 2 2.2208 -0.348066 40.6507 10.8397
678 2 2.2208 10.7527 23.8344 5.27804
679 2 2.2208 10.7725 29.4189 5.33885
680 1 -1.1104 12.3153 25.3589 0.824818
681 1 -1.1104 12.3457 25.3915 3.71491
682 1 -1.1104 12.3698 22.5127 1.05218
683 1 -1.1104 12.3361 28.1888 1.00657
684 2 2.2208 10.898 26.6975 2.35
685 1 -1.1104 12.2454 22.6264 3.83699
686 1 -1.1104 12.0927 28.1548 3.84998
687 1 -1.1104 9.6086 25.1522 1.11463
688 2 2.2208 8.10729 23.91 2.38009
689 2 2.2208 7.97375 29.5187 2.55877
690 1 -1.1104 9.38419 25.2976 3.83855
691 2 2.2208 7.98634 26.6878 5.31861
692 1 -1.1104 9.52576 22.3904 1.04343
693 1 -1.1104 9.44696 28.0003 1.0277
694 1 -1.1104 9.44199 22.4463 3.87513
695 1 -1.1104 9.32353 28.2248 4.01359
826 1 -1.1104 12.1948 22.4221 6.62862
9628 2 2.2208 13.5762 29.5404 2.41022
9627 2 2.2208 13.67 23.9866 2.44108
827 1 -1.1104 12.1631 28.1212 6.67294
830 1 -1.1104 9.38873 27.9483 6.79902
9629 2 2.2208 13.5446 26.6242 5.27058
9408 2 2.2208 13.8305 43.2412 5.30157
699 2 2.2208 5.15618 35.0928 5.27165
700 1 -1.1104 1.01266 30.9888 1.15984
701 1 -1.1104 1.03932 36.4105 1.03536
703 1 -1.1104 1.06442 30.9235 3.82403
704 1 -1.1104 0.917066 36.4257 3.91272
706 1 -1.1104 1.05838 33.7503 1.09469
707 2 2.2208 5.19536 32.2104 2.50263
708 2 2.2208 5.22278 37.8888 2.48143
709 1 -1.1104 0.838594 33.8141 3.79777
711 1 -1.1104 3.8496 30.8218 1.03944
712 1 -1.1104 3.7035 36.5707 1.05292
713 2 2.2208 2.34585 35.1626 2.54934
714 1 -1.1104 3.82018 30.7982 3.8396
715 1 -1.1104 3.87181 36.4872 3.97942
716 2 2.2208 2.35398 32.3426 5.23577
717 2 2.2208 2.35404 37.8346 5.38385
718 1 -1.1104 3.91112 33.664 1.121
719 1 -1.1104 3.64828 33.6064 3.93217
710 1 -1.1104 6.37372 33.458 4.03746
723 1 -1.1104 6.6568 30.8647 1.04717
725 1 -1.1104 6.67849 33.6458 1.14372
854 1 -1.1104 6.66812 33.7327 6.75591
724 1 -1.1104 6.6693 30.7719 3.8708
705 1 -1.1104 6.78108 36.4465 3.91139
702 1 -1.1104 6.61187 36.4606 1.00693
849 1 -1.1104 1.16404 30.9324 6.69715
9639 2 2.2208 -0.478101 37.9518 8.07772
9641 2 2.2208 -0.346484 46.2244 10.937
855 1 -1.1104 3.87808 30.8152 6.58492
9652 2 2.2208 13.6923 37.8339 -0.309573
1474 1 -1.1104 4.00565 47.638 6.72106
726 2 2.2208 10.6691 35.1102 5.35428
727 1 -1.1104 12.1445 31.1197 0.958054
728 1 -1.1104 12.3132 36.3833 1.11264
729 1 -1.1104 12.2824 30.8949 3.84393
730 1 -1.1104 12.029 36.3503 3.79043