ITEM: TIMESTEP
50000
ITEM: NUMBER OF ATOMS
17730
ITEM: BOX BOUNDS pp pp pp
-3.6165242657162378e-01 2.7701652426571236e+01
-4.2980340960258925e+00 3.3237803409602770e+02
-3.5298675862389733e-01 2.7692986758623906e+01
ITEM: ATOMS id type q x y z
1 2 2.2208 5.05267 1.38183 5.29223
2 1 -1.1104 0.872274 -2.96421 1.11538
3 1 -1.1104 0.889871 2.77499 1.23729
6 1 -1.1104 0.773961 -3.07844 3.89851
7 1 -1.1104 0.878014 2.74863 3.89502
10 1 -1.1104 0.881781 -0.0649379 1.17075
12 2 2.2208 5.0274 -1.51295 2.44551
13 2 2.2208 5.01594 4.12193 2.39606
14 1 -1.1104 0.863971 -0.156324 3.93554
16 1 -1.1104 3.65722 -2.92589 1.09703
17 1 -1.1104 3.6637 2.76581 1.11622
18 2 2.2208 2.26543 1.29513 2.55276
19 1 -1.1104 3.63565 -2.84459 3.89657
20 1 -1.1104 3.61123 2.66782 3.83539
21 2 2.2208 2.21524 -1.48103 5.3889
22 2 2.2208 2.26493 4.08687 5.33981
23 1 -1.1104 3.67395 -0.190225 1.07609
24 1 -1.1104 3.64382 -0.138392 3.79545
166 1 -1.1104 0.847547 -3.06251 6.77319
11 1 -1.1104 6.4102 -0.0173754 1.17705
9 1 -1.1104 6.32636 2.77982 3.79072
8 1 -1.1104 6.43994 -2.91968 3.83007
15 1 -1.1104 6.49454 -0.026055 4.04258
168 1 -1.1104 6.4028 -2.8873 6.78816
167 1 -1.1104 0.721487 2.69849 6.69281
169 1 -1.1104 6.45334 2.66248 6.59825
4 1 -1.1104 6.5248 -2.89216 0.899089
8678 2 2.2208 13.6079 15.4401 5.11066
173 1 -1.1104 3.61302 2.7534 6.66004
170 1 -1.1104 0.875964 -0.0997275 6.85072
8926 2 2.2208 13.4205 12.5473 13.7018
28 2 2.2208 2.27022 -4.25788 2.49403
232 2 2.2208 10.5504 -4.38723 10.8938
8881 2 2.2208 13.6 18.0619 8.02247
5 1 -1.1104 6.53348 2.5745 1.02655
31 2 2.2208 10.5811 1.30235 5.2631
32 1 -1.1104 12.1127 -2.90447 1.10803
33 1 -1.1104 12.145 2.65377 1.14563
34 1 -1.1104 11.8696 -2.8619 3.86902
35 1 -1.1104 11.9767 2.68957 3.81992
36 1 -1.1104 11.9796 -0.142446 1.06431
37 2 2.2208 10.6396 -1.513 2.44886
38 2 2.2208 10.5824 4.19868 2.47167
39 1 -1.1104 12.0302 -0.0706417 3.822
40 1 -1.1104 9.30772 -2.81529 0.962788
41 1 -1.1104 9.35889 2.8811 0.981949
42 2 2.2208 7.8043 1.3469 2.47351
43 1 -1.1104 9.09176 -2.94171 3.83806
44 1 -1.1104 9.20051 2.65616 3.80243
45 2 2.2208 7.9529 -1.50998 5.28533
46 2 2.2208 7.87929 4.17076 5.33765
47 1 -1.1104 9.19021 0.0431507 1.07763
48 1 -1.1104 9.22467 -0.164753 3.88947
208 1 -1.1104 9.04152 -2.92115 6.68308
210 1 -1.1104 9.35316 -0.0661494 6.67959
209 1 -1.1104 9.17614 2.79463 6.73381
205 1 -1.1104 11.8373 -2.96775 6.64225
8886 2 2.2208 13.327 -1.28889 5.29495
8580 2 2.2208 13.4416 4.17365 5.33235
8885 2 2.2208 13.4702 1.39758 2.4597
8922 2 2.2208 13.3899 -1.32159 -0.251335
54 2 2.2208 4.9199 6.88455 5.19293
55 2 2.2208 5.02073 12.5383 5.22793
56 1 -1.1104 0.663425 8.36693 0.843483
58 1 -1.1104 0.818596 8.32353 3.75033
60 1 -1.1104 0.750693 5.61099 1.03757
61 1 -1.1104 0.785164 10.9762 0.91937
66 2 2.2208 4.92654 9.67677 2.37282
67 1 -1.1104 0.86414 5.51385 3.89555
68 1 -1.1104 0.91496 11.034 3.71717
71 1 -1.1104 3.56488 8.14664 0.975927
72 2 2.2208 2.14579 6.85122 2.51853
73 2 2.2208 2.25992 12.515 2.46244
74 1 -1.1104 3.43122 8.3155 3.79647
75 2 2.2208 2.12394 9.67536 5.25596
76 1 -1.1104 3.59204 5.53873 1.16223
77 1 -1.1104 3.5976 11.0497 0.856227
79 1 -1.1104 3.52911 5.48401 3.87937
80 1 -1.1104 3.75062 11.1757 3.77098
236 1 -1.1104 0.894295 5.47835 6.69168
69 1 -1.1104 6.31358 5.48531 3.76033
70 1 -1.1104 6.45769 11.1505 3.8729
64 1 -1.1104 6.4426 11.1086 1.06602
59 1 -1.1104 6.35521 8.37717 3.80585
57 1 -1.1104 6.43639 8.2823 0.969254
238 1 -1.1104 3.50826 8.21856 6.54302
65 1 -1.1104 6.31816 11.1975 6.72652
63 1 -1.1104 6.49881 5.35282 0.988594
239 1 -1.1104 3.67226 5.457 6.62761
237 1 -1.1104 6.33979 5.61235 6.6274
199 1 -1.1104 9.29582 16.7918 12.2565
8887 2 2.2208 13.4762 -4.13401 2.56981
84 2 2.2208 10.6217 6.94437 5.27137
85 2 2.2208 10.6331 12.4481 5.1878
86 1 -1.1104 12.1344 8.33852 0.924697
87 1 -1.1104 12.0332 8.37358 3.79837
88 1 -1.1104 12.1076 5.47789 1.07634
89 1 -1.1104 12.0538 11.0792 0.937501
91 2 2.2208 10.7522 9.66128 2.45016
92 1 -1.1104 11.9608 5.64 3.92899
93 1 -1.1104 11.9811 11.0385 3.87587
94 1 -1.1104 9.22666 8.36656 1.12213
95 2 2.2208 7.73056 7.01426 2.48743
96 2 2.2208 8.00517 12.5484 2.44222
97 1 -1.1104 9.20841 8.2815 3.89941
98 2 2.2208 7.81483 9.82668 5.28476
99 1 -1.1104 9.11576 5.58393 0.932428
100 1 -1.1104 9.21136 10.9908 1.2228
102 1 -1.1104 9.18531 5.33938 3.91272
103 1 -1.1104 9.24102 11.1535 3.93636
101 1 -1.1104 9.24918 11.1171 6.67425
265 1 -1.1104 12.264 8.23015 6.66425
267 1 -1.1104 9.43884 8.35498 6.64324
269 1 -1.1104 9.28503 5.62201 6.63319
8609 2 2.2208 13.5321 9.72467 5.22177
8892 2 2.2208 13.4394 6.89257 2.4001
8891 2 2.2208 13.5247 12.4385 2.41239
27 1 -1.1104 12.2203 19.6201 12.269
106 2 2.2208 5.23407 18.1906 5.08249
107 1 -1.1104 0.878995 13.9696 0.991091
109 1 -1.1104 0.871685 19.6656 1.01879
113 1 -1.1104 0.873266 13.9394 3.9077
114 1 -1.1104 0.883751 19.5233 3.91905
116 1 -1.1104 0.951665 16.7862 1.00318
119 2 2.2208 5.11536 15.2086 2.39386
120 2 2.2208 5.12394 20.9256 2.30754
121 1 -1.1104 0.787064 16.7575 3.76899
123 1 -1.1104 3.78832 13.8411 1.18653
125 1 -1.1104 3.79606 19.5744 0.928994
127 2 2.2208 2.39876 18.1422 2.39847
128 1 -1.1104 3.68444 14.0315 3.95094
129 1 -1.1104 3.67277 19.5544 3.76244
130 2 2.2208 2.29494 15.4023 5.27707
131 2 2.2208 2.37665 20.883 5.15778
132 1 -1.1104 3.63825 16.8713 0.967093
134 1 -1.1104 3.71811 16.9505 3.82213
138 1 -1.1104 6.5625 19.6346 0.900699
110 1 -1.1104 6.50599 13.982 0.958202
139 1 -1.1104 6.70329 19.6038 3.69047
118 1 -1.1104 6.56105 16.7581 6.53893
108 1 -1.1104 0.866285 13.884 6.52936
335 2 2.2208 2.19622 -1.56559 -0.314005
82 1 -1.1104 12.0325 16.5967 9.39351
115 1 -1.1104 6.49808 13.8402 3.91018
122 1 -1.1104 6.35581 16.5781 3.72085
302 1 -1.1104 0.978089 19.5922 6.48927
126 1 -1.1104 3.7452 19.5641 6.39107
133 1 -1.1104 3.78452 16.7665 6.53137
111 1 -1.1104 6.50926 13.9805 6.7251
83 1 -1.1104 9.2714 13.8437 12.1814
140 1 -1.1104 6.47627 16.8103 0.970613
141 2 2.2208 10.6783 18.1931 5.4445
142 1 -1.1104 12.1817 13.8505 0.94659
144 1 -1.1104 12.2326 19.5456 0.805952
146 1 -1.1104 12.2219 13.9042 3.64034
147 1 -1.1104 12.1178 19.5838 3.71738
148 1 -1.1104 12.2186 16.8063 0.902576
150 2 2.2208 10.7866 15.2816 2.36976
151 2 2.2208 10.8107 21.0378 2.39579
152 1 -1.1104 12.0569 16.7431 4.021
153 1 -1.1104 9.22038 13.9585 0.907855
155 1 -1.1104 9.33031 19.7263 0.932065
157 2 2.2208 8.04519 18.0945 2.2604
158 1 -1.1104 9.36452 13.9322 3.66164
159 1 -1.1104 9.47179 19.5509 3.82259
160 2 2.2208 7.89928 15.1978 5.29565
161 2 2.2208 7.94058 20.9563 5.13008
162 1 -1.1104 9.37622 16.8121 0.89306
164 1 -1.1104 9.13218 16.7552 3.76587
145 1 -1.1104 12.1343 19.5141 6.64024
154 1 -1.1104 9.26872 13.7494 6.59105
149 1 -1.1104 12.1177 16.6851 6.67714
8896 2 2.2208 13.5127 18.1859 2.27116
8901 2 2.2208 -0.364851 18.1676 10.671
8657 2 2.2208 13.6046 20.8905 5.19031
163 1 -1.1104 9.3496 16.6155 6.62531
26 1 -1.1104 12.1252 13.8052 12.1994
309 2 2.2208 2.11716 -4.21344 13.7196
156 1 -1.1104 9.19907 19.6236 6.75428
53 2 2.2208 10.7847 15.2141 7.91314
8905 2 2.2208 13.3725 -1.56189 10.9275
172 1 -1.1104 3.52404 -2.95908 6.70986
174 1 -1.1104 3.53734 0.0219766 6.60129
171 1 -1.1104 6.3959 -0.17977 6.76106
175 2 2.2208 5.11606 1.33055 10.8204
176 1 -1.1104 0.658362 -2.87689 12.2221
177 1 -1.1104 0.726702 2.53785 12.3523
180 1 -1.1104 0.809682 -2.98 9.5366
181 1 -1.1104 0.960265 2.65822 9.62434
184 1 -1.1104 0.933085 -0.21719 12.3788
186 2 2.2208 5.04253 -1.48008 8.09555
187 2 2.2208 5.04502 4.15895 7.98078
188 1 -1.1104 0.701943 -0.177478 9.49954
190 1 -1.1104 3.53696 -2.80574 12.2488
191 1 -1.1104 3.64211 2.72233 12.3291
192 2 2.2208 2.21364 1.28036 8.07415
193 1 -1.1104 3.66144 -2.79936 9.4501
194 1 -1.1104 3.81771 2.83473 9.46677
195 2 2.2208 2.23201 -1.51606 10.8514
196 2 2.2208 2.2487 4.06046 10.9785
197 1 -1.1104 3.7498 -0.0963288 12.2281
198 1 -1.1104 3.50795 -0.00193553 9.51113
185 1 -1.1104 6.46654 -0.125853 12.3666
183 1 -1.1104 6.51365 2.75293 9.38456
179 1 -1.1104 6.59418 2.62019 12.2293
182 1 -1.1104 6.42911 -2.85187 9.52403
178 1 -1.1104 6.3758 -2.85471 12.2963
189 1 -1.1104 6.33402 -0.16253 9.46255
203 2 2.2208 4.98548 -4.15422 10.9016
207 1 -1.1104 12.0546 -0.0171118 6.65397
326 2 2.2208 10.7071 21.0136 13.5318
8715 2 2.2208 13.5025 4.03318 10.929
8880 2 2.2208 13.4866 15.2277 10.8779
206 1 -1.1104 11.9716 2.73046 6.52711
211 2 2.2208 10.593 1.31884 10.7962
212 1 -1.1104 11.8301 -2.8459 12.1754
213 1 -1.1104 12.0864 2.55074 12.2381
214 1 -1.1104 12.1334 -2.95292 9.45818
215 1 -1.1104 12.1185 2.75009 9.36606
216 1 -1.1104 12.0706 -0.0997726 12.4283
217 2 2.2208 10.482 -1.54491 8.20541
219 1 -1.1104 11.9641 -0.153163 9.48578
220 1 -1.1104 9.0999 -2.88621 12.247
221 1 -1.1104 9.33143 2.66174 12.2713
222 2 2.2208 7.79365 1.24446 8.042
223 1 -1.1104 9.0747 -2.9122 9.51893
224 1 -1.1104 9.21293 2.6153 9.45346
225 2 2.2208 7.67907 -1.53716 10.8792
226 2 2.2208 7.94722 4.03415 10.8384
227 1 -1.1104 9.23144 -0.129702 12.1965
228 1 -1.1104 9.10934 -0.204534 9.56055
218 2 2.2208 10.7329 4.02522 8.11956
8904 2 2.2208 13.4779 1.35558 8.04886
311 2 2.2208 2.36225 1.20738 13.7317
81 2 2.2208 10.7384 20.9734 8.01197
62 1 -1.1104 0.862016 11.0995 6.73051
235 1 -1.1104 6.40158 8.32099 6.66529
25 2 2.2208 10.7212 18 10.8686
78 1 -1.1104 3.59714 11.0102 6.64041
234 1 -1.1104 0.846136 8.31006 6.73797
240 2 2.2208 5.05116 6.90836 10.8526
241 2 2.2208 5.10436 12.5441 10.8217
242 1 -1.1104 0.892163 8.30477 12.3057
244 1 -1.1104 0.806394 8.3389 9.50051
246 1 -1.1104 0.970865 5.59712 12.3811
247 1 -1.1104 0.728497 11.0233 12.2534
250 2 2.2208 4.96274 9.66795 8.02994
251 1 -1.1104 0.903751 5.53864 9.55169
252 1 -1.1104 0.874747 10.9866 9.43054
255 1 -1.1104 3.6977 8.29707 12.297
256 2 2.2208 2.11891 6.90596 8.19506
257 2 2.2208 2.27998 12.5355 8.0346
258 1 -1.1104 3.59976 8.31548 9.58016
259 2 2.2208 2.21962 9.76302 10.9157
260 1 -1.1104 3.65439 5.5065 12.2637
261 1 -1.1104 3.60058 11.1354 12.1249
262 1 -1.1104 3.66737 5.52765 9.41182
263 1 -1.1104 3.6431 11.1642 9.42708
243 1 -1.1104 6.42881 8.28611 12.3545
253 1 -1.1104 6.36147 5.55797 9.48937
249 1 -1.1104 6.42439 11.0402 12.3712
248 1 -1.1104 6.60148 5.61805 12.3586
254 1 -1.1104 6.39165 11.0701 9.52692
245 1 -1.1104 6.40243 8.36575 9.43464
8842 2 2.2208 13.5675 20.8952 10.8575
325 2 2.2208 5.13165 15.3424 13.7047
266 1 -1.1104 12.0751 5.37411 6.71359
90 1 -1.1104 12.1627 11.0323 6.48226
323 2 2.2208 2.30212 18.1298 13.5323
8792 2 2.2208 13.6648 12.569 7.91172
8791 2 2.2208 13.4904 6.95432 8.1019
8796 2 2.2208 13.4749 9.62545 10.8481
264 1 -1.1104 9.2138 11.0403 9.537
268 1 -1.1104 9.15958 5.38957 9.43915
270 1 -1.1104 9.15 11.1439 12.1903
271 1 -1.1104 9.28952 5.41481 12.1961
272 2 2.2208 7.76857 9.61844 10.8643
273 1 -1.1104 9.12699 8.09152 9.52997
274 2 2.2208 7.93411 12.5002 8.10089
275 2 2.2208 7.66133 6.90819 8.1115
276 2 2.2208 10.5937 6.8725 10.8196
277 2 2.2208 10.7533 12.4561 10.8238
278 1 -1.1104 12.0068 8.27928 12.162
279 1 -1.1104 11.9615 8.33249 9.40887
280 1 -1.1104 12.0087 5.50334 12.1744
281 1 -1.1104 12.0168 11.174 12.2952
282 2 2.2208 10.6654 9.65989 8.02291
283 1 -1.1104 12.0972 5.50715 9.47655
284 1 -1.1104 11.9227 11.1139 9.28348
285 1 -1.1104 9.22339 8.43202 12.2397
312 2 2.2208 5.12748 4.10572 13.6445
324 2 2.2208 5.14959 20.8988 13.6122
117 1 -1.1104 0.9378 16.854 6.48689
124 1 -1.1104 3.6421 13.9338 6.70155
165 2 2.2208 7.89774 20.8267 10.7114
112 1 -1.1104 6.55613 19.4726 6.57579
8919 2 2.2208 13.5935 4.24285 -0.312869
305 1 -1.1104 3.63468 13.8728 9.52879
304 1 -1.1104 3.65669 16.6719 9.33794
303 2 2.2208 2.26452 18.1605 7.82933
301 1 -1.1104 3.75017 19.5556 9.31044
300 2 2.2208 5.11276 18.0378 10.8666
201 2 2.2208 2.34332 15.1999 10.9383
204 2 2.2208 2.33287 21.0252 10.6547
229 1 -1.1104 3.726 16.7589 12.2719
230 1 -1.1104 0.899211 16.679 12.0302
286 1 -1.1104 3.69179 19.572 12.1348
287 1 -1.1104 3.7578 13.8789 12.3756
291 1 -1.1104 0.895424 19.5474 9.27848
292 1 -1.1104 1.06608 16.588 9.34438
293 2 2.2208 5.11638 20.9014 7.94019
294 1 -1.1104 0.814552 13.8379 9.34868
295 2 2.2208 5.14924 15.3953 7.87669
298 1 -1.1104 0.85652 19.4095 12.1541
299 1 -1.1104 0.967453 13.7683 12.2864
233 1 -1.1104 6.57432 16.5335 12.2292
297 1 -1.1104 6.41086 13.8989 12.4111
290 1 -1.1104 6.56849 13.7245 9.47092
296 1 -1.1104 6.49167 19.4921 12.1619
289 1 -1.1104 6.5749 16.682 9.42506
288 1 -1.1104 6.5402 19.5416 9.28828
104 1 -1.1104 9.41806 19.6541 12.2327
49 1 -1.1104 12.1257 19.4028 9.54472
135 1 -1.1104 9.4216 13.9718 9.43945
30 1 -1.1104 12.1296 13.9248 9.48715
105 2 2.2208 7.84338 18.0431 8.08255
137 2 2.2208 7.91941 15.12 10.8248
200 1 -1.1104 9.27471 16.6923 9.61315
143 1 -1.1104 12.1187 13.814 6.53688
136 1 -1.1104 9.49411 19.5344 9.4118
50 1 -1.1104 12.0659 16.7367 12.2601
8930 2 2.2208 13.6275 18.2202 13.5659
328 2 2.2208 7.94115 18.2165 13.6519
327 2 2.2208 10.7564 15.2764 13.6217
338 2 2.2208 10.6392 1.36433 -0.346227
320 2 2.2208 8.00405 6.91712 13.6032
336 2 2.2208 2.16827 4.16675 -0.196869
333 2 2.2208 7.86978 9.76734 -0.263599
319 2 2.2208 2.38139 12.4747 13.5762
322 2 2.2208 7.90474 12.5112 13.5817
314 2 2.2208 7.90049 1.23714 13.5845
346 2 2.2208 5.01923 1.28215 16.5416
347 1 -1.1104 0.815889 -2.79288 17.7749
348 1 -1.1104 0.791968 2.79154 17.9319
351 1 -1.1104 0.752102 -2.89629 15.1129
353 1 -1.1104 0.874927 2.66945 15.1042
359 1 -1.1104 0.798127 -0.0791956 17.9613
361 2 2.2208 5.02721 -1.39705 19.2785
362 2 2.2208 5.0889 4.23299 19.3631
363 1 -1.1104 0.787028 -0.227466 15.0541
367 1 -1.1104 3.55297 -2.82311 17.8133
368 1 -1.1104 3.62876 2.54536 17.9266
369 2 2.2208 2.181 1.30455 19.2086
370 1 -1.1104 3.5727 -2.87151 14.9873
372 1 -1.1104 3.67233 2.74003 15.057
374 2 2.2208 2.15685 -1.46995 16.5254
375 2 2.2208 2.23303 4.04768 16.4959
376 1 -1.1104 3.57423 -0.14659 17.769
377 1 -1.1104 3.62703 -0.1324 15.1676
373 1 -1.1104 3.58611 2.92005 20.6344
378 1 -1.1104 3.851 0.199397 20.5936
357 1 -1.1104 6.41478 2.62408 14.9879
352 1 -1.1104 0.765921 -2.79071 20.6269
364 1 -1.1104 1.01487 0.0286456 20.7962
8911 2 2.2208 13.5095 1.27521 13.7302
360 1 -1.1104 6.49442 -0.0584099 17.9071
349 1 -1.1104 6.346 -2.79415 17.8643
365 1 -1.1104 6.46664 -0.0640647 15.0666
371 1 -1.1104 3.55181 -2.77033 20.6306
350 1 -1.1104 6.51236 2.82135 17.8775
355 1 -1.1104 6.45697 -2.82271 15.0843
358 1 -1.1104 6.35458 2.76708 20.7491
9259 2 2.2208 13.4905 9.76394 22.0124
310 2 2.2208 5.09565 -1.43664 13.78
579 2 2.2208 5.02477 -4.21329 22.0569
9072 2 2.2208 13.4585 -1.5068 16.5292
389 2 2.2208 10.5121 1.30592 16.474
390 1 -1.1104 12.1337 -2.92431 18.0041
391 1 -1.1104 12.073 2.71516 17.9013
392 1 -1.1104 11.8192 -2.93057 15.0714
394 1 -1.1104 12.1167 2.80236 15.0305
396 1 -1.1104 12.0246 -0.0582882 17.9965
397 2 2.2208 10.5582 -1.53849 19.4159
398 2 2.2208 10.7454 4.1154 19.2697
399 1 -1.1104 11.8913 -0.196599 15.1314
401 1 -1.1104 9.26719 -2.75058 17.7583
402 1 -1.1104 9.2543 2.65312 17.8613
403 2 2.2208 7.82951 1.2568 19.2486
404 1 -1.1104 9.09863 -2.90012 15.1598
406 1 -1.1104 9.19412 2.61851 15.0409
408 2 2.2208 7.88503 -1.4697 16.4851
409 2 2.2208 7.8548 4.1701 16.4289
410 1 -1.1104 9.27587 -0.0660682 18.0311
411 1 -1.1104 9.27174 -0.0978182 15.1569
393 1 -1.1104 12.0138 -2.87424 20.705
400 1 -1.1104 12.2101 -0.123244 20.789
395 1 -1.1104 12.0443 2.72403 20.7082
356 1 -1.1104 6.31515 -3.04572 20.6651
412 1 -1.1104 9.35056 -0.250329 20.7875
407 1 -1.1104 9.17027 2.68215 20.5363
8938 2 2.2208 13.5168 20.9371 27.5326
315 2 2.2208 10.5867 -1.45257 13.6924
422 2 2.2208 4.99601 6.97023 16.7165
423 2 2.2208 5.02327 12.5085 16.4695
424 1 -1.1104 0.760418 8.28004 17.9596
426 1 -1.1104 0.859867 8.4095 15.1795
430 1 -1.1104 0.797762 5.68733 17.9634
431 1 -1.1104 0.792919 11.1243 17.8551
434 2 2.2208 4.98334 9.70154 19.3741
435 1 -1.1104 0.71507 5.53013 15.1544
437 1 -1.1104 0.90049 11.1222 15.1099
443 1 -1.1104 3.62684 8.35966 18.0778
444 2 2.2208 2.17567 6.93699 19.4417
445 2 2.2208 2.3353 12.5332 19.2791
446 1 -1.1104 3.70105 8.23218 15.2896
448 2 2.2208 2.24144 9.69896 16.5624
449 1 -1.1104 3.58146 5.40365 17.9195
450 1 -1.1104 3.66509 11.1408 17.8125
451 1 -1.1104 3.55276 5.45098 15.2356
453 1 -1.1104 3.62589 10.986 15.0822
433 1 -1.1104 6.36189 11.0857 17.8929
442 1 -1.1104 6.46034 11.1715 20.6095
439 1 -1.1104 6.55362 5.46656 15.096
428 1 -1.1104 6.47107 8.20267 15.1024
441 1 -1.1104 6.4225 11.0976 15.1318
425 1 -1.1104 6.37023 8.35666 17.9441
447 1 -1.1104 3.66939 8.17508 20.8428
432 1 -1.1104 6.45288 5.52171 17.9595
436 1 -1.1104 0.711103 5.56523 20.8253
438 1 -1.1104 0.819783 11.2116 20.6577
8939 2 2.2208 13.4908 15.2737 27.4946
8993 2 2.2208 13.4634 4.12174 16.4548
440 1 -1.1104 6.3745 5.62122 20.7696
458 2 2.2208 10.5673 6.91415 16.4669
459 2 2.2208 10.6122 12.5927 16.4399
460 1 -1.1104 12.1038 8.3722 17.7086
461 1 -1.1104 11.964 8.33347 15.093
463 1 -1.1104 12.1537 5.47396 17.8651
464 1 -1.1104 12.1308 11.3251 17.887
465 2 2.2208 10.8337 9.75105 19.2402
466 1 -1.1104 12.0868 5.50889 15.0787
468 1 -1.1104 12.0014 11.2165 15.1041
470 1 -1.1104 9.28689 8.37112 17.8088
471 2 2.2208 7.88098 6.93579 19.3147
472 2 2.2208 7.80261 12.6482 19.2427
473 1 -1.1104 9.27725 8.29808 15.0486
475 2 2.2208 7.72326 9.74287 16.4999
476 1 -1.1104 9.34966 5.47746 17.9124
477 1 -1.1104 9.35656 11.2092 17.7793
478 1 -1.1104 9.20061 5.35289 15.1128
480 1 -1.1104 9.24148 11.1556 14.9545
469 1 -1.1104 12.2165 11.1788 20.5704
474 1 -1.1104 9.53363 8.2144 20.5867
9069 2 2.2208 13.6094 12.6229 19.1618
9068 2 2.2208 13.4827 6.91605 19.0766
9067 2 2.2208 13.5271 9.83029 16.4214
479 1 -1.1104 9.22325 5.49419 20.6239
462 1 -1.1104 12.2771 8.28518 20.5573
344 2 2.2208 5.04239 12.5578 27.655
332 2 2.2208 10.7466 12.4618 27.6498
485 2 2.2208 5.09112 18.1257 16.3816
486 1 -1.1104 0.857361 13.8314 17.6983
487 1 -1.1104 0.999325 19.2957 17.8659
490 1 -1.1104 0.700489 13.8002 14.8905
492 1 -1.1104 0.826159 19.6301 14.9215
498 1 -1.1104 0.796666 16.5678 17.5569
500 2 2.2208 4.98104 15.4756 19.2405
501 2 2.2208 5.10767 21.0588 19.1512
502 1 -1.1104 0.992686 16.7253 14.9117
506 1 -1.1104 3.55135 13.8895 17.9611
507 1 -1.1104 3.75711 19.5604 17.5248
508 2 2.2208 2.29494 18.0446 19.1601
509 1 -1.1104 3.79899 13.8563 15.0259
511 1 -1.1104 3.59919 19.3478 14.7625
513 2 2.2208 2.11861 15.2563 16.3371
514 2 2.2208 2.28761 20.8814 16.358
515 1 -1.1104 3.60894 16.7514 17.7545
516 1 -1.1104 3.68913 16.6914 14.9878
499 1 -1.1104 6.47217 16.8251 17.8036
489 1 -1.1104 6.53866 19.5855 17.8194
504 1 -1.1104 6.5328 16.8875 14.9708
488 1 -1.1104 6.34133 13.9025 17.8182
494 1 -1.1104 6.62587 13.9313 15.1008
496 1 -1.1104 6.47019 19.652 14.9836
497 1 -1.1104 6.47992 19.5887 20.6057
510 1 -1.1104 3.79486 13.9379 20.6973
491 1 -1.1104 1.01305 14.0477 20.5627
503 1 -1.1104 0.847208 16.692 20.5223
8999 2 2.2208 13.3946 1.32765 19.4387
525 1 -1.1104 12.1727 13.9979 20.4784
532 1 -1.1104 12.2049 16.7453 20.4668
521 2 2.2208 10.7313 18.2149 16.3488
522 1 -1.1104 12.1493 14.0896 17.7901
523 1 -1.1104 12.0213 19.7459 17.8131
524 1 -1.1104 12.1067 13.9885 14.9383
526 1 -1.1104 12.1569 19.5283 15.0177
528 1 -1.1104 12.2602 16.7936 17.6603
529 2 2.2208 10.7139 15.3989 19.2269
530 2 2.2208 10.7036 21.0628 19.2283
531 1 -1.1104 12.0482 16.8296 15.0771
533 1 -1.1104 9.19409 14.0458 17.7967
534 1 -1.1104 9.15298 19.536 17.7569
535 2 2.2208 7.9096 18.1486 19.1836
536 1 -1.1104 9.38498 13.9414 14.985
538 1 -1.1104 9.23595 19.6472 15.0503
540 2 2.2208 7.86242 15.4467 16.2836
541 2 2.2208 7.77081 21.0998 16.506
542 1 -1.1104 9.2208 16.7733 17.7905
543 1 -1.1104 9.24095 16.657 14.9649
9137 2 2.2208 13.4578 15.4608 16.3349
9140 2 2.2208 13.4622 20.9507 16.3021
9139 2 2.2208 13.5827 18.1853 19.1092
537 1 -1.1104 9.33046 13.9025 20.6487
418 1 -1.1104 12.223 13.8372 26.2842
539 1 -1.1104 9.25852 19.6298 20.5805
354 1 -1.1104 0.966667 2.769 20.77
583 1 -1.1104 9.41105 13.8673 23.4731
582 1 -1.1104 12.1595 16.6916 26.0779
576 1 -1.1104 12.1101 16.765 23.2868
307 2 2.2208 10.7547 18.2055 27.4909
366 1 -1.1104 6.49498 -0.287572 20.7675
549 2 2.2208 5.19588 1.39268 22.1128
550 1 -1.1104 0.719122 -2.86864 23.4487
551 1 -1.1104 0.787515 2.71362 23.5731
554 1 -1.1104 0.724764 -2.88259 26.3199
555 1 -1.1104 0.870662 2.69906 26.424
558 1 -1.1104 0.833896 -0.160743 23.6269
560 2 2.2208 4.87908 -1.3585 24.8487
561 2 2.2208 4.90958 4.12516 24.9981
562 1 -1.1104 0.802665 -0.204383 26.4026
564 1 -1.1104 3.6047 -2.91006 23.5902
565 1 -1.1104 3.80099 2.70322 23.5322
566 2 2.2208 2.24779 1.30345 24.9275
567 1 -1.1104 3.45083 -2.96928 26.2594
568 1 -1.1104 3.60774 2.73991 26.3625
569 2 2.2208 2.17813 -1.46688 22.1414
570 2 2.2208 2.2949 4.21307 22.1324
571 1 -1.1104 3.60355 0.0747321 23.4067
572 1 -1.1104 3.57926 -0.0915317 26.3081
556 1 -1.1104 6.18935 -2.82329 26.2368
557 1 -1.1104 6.49234 2.79011 26.2383
552 1 -1.1104 6.3324 -2.75443 23.4528
563 1 -1.1104 6.39571 0.0371379 26.4128
527 1 -1.1104 12.135 19.5304 20.4832
559 1 -1.1104 6.35849 -0.107641 23.4522
9112 2 2.2208 13.6148 21.0195 21.915
584 1 -1.1104 9.26387 19.4738 23.3404
405 1 -1.1104 9.15278 -2.98548 20.528
611 1 -1.1104 9.22195 13.8431 26.1502
553 1 -1.1104 6.72345 2.75577 23.4515
9039 2 2.2208 13.5513 -1.56825 22.1721
9038 2 2.2208 13.3603 1.46879 25.0396
9200 2 2.2208 13.5295 4.19926 22.1128
585 2 2.2208 10.7295 1.31641 22.0496
586 1 -1.1104 12.0158 -2.95497 23.4833
587 1 -1.1104 12.1369 2.76955 23.5646
588 1 -1.1104 11.857 -2.97734 26.3096
589 1 -1.1104 12.1948 2.981 26.3891
590 1 -1.1104 12.0421 0.0222534 23.5301
591 2 2.2208 10.6929 -1.41413 24.8572
593 1 -1.1104 12.0513 0.0839468 26.3166
594 1 -1.1104 9.25612 -3.02204 23.4042
595 1 -1.1104 9.53448 2.7196 23.5488
596 2 2.2208 7.92537 1.33814 24.8717
597 1 -1.1104 9.09893 -2.88382 26.165
598 1 -1.1104 9.17641 2.725 26.3566
599 2 2.2208 7.8952 -1.48884 22.2319
600 2 2.2208 7.87605 4.21032 22.0921
601 1 -1.1104 9.19864 -0.0247289 23.485
602 1 -1.1104 9.24659 -0.237077 26.2038
592 2 2.2208 10.6702 4.24161 24.8925
417 1 -1.1104 12.0532 19.5789 23.3073
384 2 2.2208 10.7218 18.1401 21.903
8931 2 2.2208 13.2587 -4.30045 13.6976
612 1 -1.1104 9.36648 19.6058 26.0762
429 1 -1.1104 6.64744 8.46304 20.5221
454 1 -1.1104 3.52455 11.0727 20.6394
452 1 -1.1104 3.55896 5.53975 20.7128
427 1 -1.1104 0.894661 8.38565 20.6043
614 2 2.2208 5.04045 6.96475 22.1889
615 2 2.2208 5.1359 12.5399 22.0025
616 1 -1.1104 0.886268 8.35539 23.4616
618 1 -1.1104 0.782676 8.21956 26.261
620 1 -1.1104 0.81449 5.57057 23.5778
621 1 -1.1104 0.904079 11.1407 23.5035
624 2 2.2208 5.14122 9.76177 24.951
625 1 -1.1104 0.816914 5.50882 26.3337
626 1 -1.1104 0.857654 11.1151 26.167
629 1 -1.1104 3.68224 8.3819 23.5344
630 2 2.2208 2.27443 7.024 24.9751
631 2 2.2208 2.31613 12.5003 24.8123
632 1 -1.1104 3.61941 8.33247 26.4161
633 2 2.2208 2.28876 9.71528 22.1869
634 1 -1.1104 3.60413 5.44825 23.6334
635 1 -1.1104 3.87863 11.3144 23.5573
636 1 -1.1104 3.68764 5.5096 26.3692
637 1 -1.1104 3.67965 11.1595 26.3681
628 1 -1.1104 6.48072 11.2799 26.4262
623 1 -1.1104 6.66408 11.0473 23.5944
627 1 -1.1104 6.47364 5.62048 26.2699
622 1 -1.1104 6.37696 5.58609 23.4356
617 1 -1.1104 6.4179 8.32258 23.5132
9138 2 2.2208 13.4917 15.3365 21.9106
619 1 -1.1104 6.46485 8.39258 26.2905
467 1 -1.1104 12.0461 5.47116 20.6969
481 1 -1.1104 9.26694 11.1277 20.5409
643 1 -1.1104 9.39559 16.7395 26.1581
9040 2 2.2208 13.3168 -4.26185 24.9235
8995 2 2.2208 13.5906 12.4734 24.8314
8994 2 2.2208 13.508 6.85095 24.8902
308 2 2.2208 7.89872 20.9967 27.4872
573 1 -1.1104 9.28458 8.25323 23.4363
574 1 -1.1104 11.9943 11.0792 26.2263
575 1 -1.1104 12.0872 5.51679 26.3667
578 2 2.2208 10.7138 9.80075 24.8442
603 1 -1.1104 12.0059 11.0517 23.3535
604 1 -1.1104 12.0489 5.51919 23.5554
605 1 -1.1104 12.058 8.26404 26.225
607 1 -1.1104 12.2285 8.27305 23.4122
638 2 2.2208 10.7553 12.5266 21.8875
639 2 2.2208 10.7498 6.94735 22.0401
640 2 2.2208 7.85586 6.97345 24.8983
644 2 2.2208 7.90359 12.4766 24.844
645 1 -1.1104 9.24828 11.0425 26.4181
646 1 -1.1104 9.20273 5.52626 26.1242
647 1 -1.1104 9.30789 11.0405 23.5155
648 1 -1.1104 9.22886 5.50695 23.3751
649 2 2.2208 7.97184 9.74552 21.9963
650 1 -1.1104 9.32205 8.26508 26.2288
577 2 2.2208 10.7683 15.2509 24.8063
517 1 -1.1104 3.69701 16.8631 20.57
495 1 -1.1104 6.58922 14.0432 20.6316
610 1 -1.1104 6.50951 19.5116 26.239
512 1 -1.1104 3.60707 19.6126 20.3972
493 1 -1.1104 0.855289 19.5026 20.788
505 1 -1.1104 6.54521 16.7987 20.6182
519 1 -1.1104 6.54734 16.6613 26.0704
385 1 -1.1104 6.73001 16.7659 23.4178
455 1 -1.1104 6.40124 13.8968 23.4145
547 2 2.2208 2.24727 15.2949 21.9877
379 2 2.2208 2.30292 20.9621 21.9411
382 1 -1.1104 3.84917 16.8669 23.4206
383 1 -1.1104 0.859461 16.6967 23.431
386 1 -1.1104 3.64917 13.9868 26.2444
387 1 -1.1104 3.6612 16.7848 26.257
388 2 2.2208 2.39248 18.1875 24.8073
416 1 -1.1104 3.77477 19.4217 26.1122
419 2 2.2208 5.10828 18.0869 22.0274
420 1 -1.1104 0.823324 13.857 23.3259
421 1 -1.1104 0.970684 19.4626 23.4788
456 2 2.2208 5.12332 15.4192 24.7965
457 2 2.2208 5.16145 20.9321 24.7819
483 1 -1.1104 0.868905 13.963 26.1438
484 1 -1.1104 0.803781 16.7548 26.1631
518 1 -1.1104 0.94504 19.5428 26.1699
520 1 -1.1104 3.63414 13.986 23.4185
546 1 -1.1104 3.6926 19.6914 23.3356
545 1 -1.1104 6.4974 14.0482 26.2399
482 1 -1.1104 6.39868 19.5381 23.4858
413 1 -1.1104 12.1334 13.927 23.4148
548 1 -1.1104 12.058 19.4508 26.0326
544 1 -1.1104 9.2677 16.7228 20.5438
641 2 2.2208 7.8329 20.9048 21.9561
606 2 2.2208 7.95 18.3466 24.7449
9136 2 2.2208 13.5533 18.007 24.7396
581 2 2.2208 10.7507 20.9635 24.6499
613 2 2.2208 8.03423 15.3476 22.1004
642 1 -1.1104 9.40277 16.813 23.2928
331 2 2.2208 5.1046 18.1717 27.706
330 2 2.2208 2.2903 20.9196 27.5929
306 2 2.2208 7.90238 15.3655 27.5625
345 2 2.2208 2.24987 15.387 27.5619
9073 2 2.2208 13.4798 -4.27759 19.411
8909 2 2.2208 13.5539 9.73986 27.6014
8924 2 2.2208 13.4888 6.82402 13.6233
317 2 2.2208 2.35785 6.98134 13.7122
380 2 2.2208 4.92545 -4.17888 16.5138
381 2 2.2208 2.11502 -4.14332 19.2125
321 2 2.2208 10.7255 9.7843 13.7346
334 2 2.2208 10.6568 6.9383 27.638
337 2 2.2208 5.10114 -4.2682 27.5989
339 2 2.2208 7.73622 -1.4534 27.602
318 2 2.2208 5.09255 9.70437 13.8085
342 2 2.2208 5.03617 6.84388 27.6654
316 2 2.2208 10.6268 3.98909 13.7386
343 2 2.2208 2.14454 9.70002 27.6932
340 2 2.2208 7.82336 4.06799 27.6387
329 2 2.2208 4.96803 1.25828 27.7054
651 2 2.2208 5.14179 23.6341 5.19307
652 2 2.2208 5.13379 29.3333 5.13858
653 1 -1.1104 0.984059 25.1714 1.10171
654 1 -1.1104 0.863111 25.2014 3.86659
655 1 -1.1104 0.964854 22.4413 0.908551
656 1 -1.1104 1.03737 27.9981 0.94242
657 2 2.2208 5.29196 26.5051 2.38188
658 1 -1.1104 0.905284 22.2897 3.66876
659 1 -1.1104 0.949715 27.9159 3.76934
660 1 -1.1104 3.81123 25.2974 0.968832
661 2 2.2208 2.40679 23.6289 2.29361
662 2 2.2208 2.36506 29.3287 2.40668
663 1 -1.1104 3.70705 25.0012 3.77054
664 2 2.2208 2.33695 26.5264 5.09892
665 1 -1.1104 3.73958 22.3866 0.820758
666 1 -1.1104 3.7742 28.0497 0.914198
667 1 -1.1104 3.75542 22.187 3.78384
668 1 -1.1104 3.73876 27.7906 3.74928
676 1 -1.1104 6.29 22.4139 3.6794
673 1 -1.1104 6.52785 25.1828 3.75232
946 2 2.2208 2.24304 29.3269 13.5694
672 1 -1.1104 6.62183 25.1812 0.767401
675 1 -1.1104 6.71124 27.8931 1.03919
674 1 -1.1104 6.63177 22.4539 0.800182
677 1 -1.1104 6.60313 27.9708 3.90806
9650 2 2.2208 13.5549 29.4906 13.5688
678 2 2.2208 10.8201 23.6341 5.18024
679 2 2.2208 10.8938 29.4072 5.25201
680 1 -1.1104 12.2724 25.0229 0.713865
681 1 -1.1104 11.9985 25.0892 3.6757
682 1 -1.1104 12.2463 22.3769 0.821913
683 1 -1.1104 12.0857 27.9042 1.06244
684 2 2.2208 10.5866 26.6048 2.46812
685 1 -1.1104 12.2525 22.3365 3.59786
686 1 -1.1104 12.1636 27.9076 3.85584
687 1 -1.1104 9.25853 25.1625 1.00494
688 2 2.2208 7.84824 23.7531 2.31361
689 2 2.2208 8.00901 29.4231 2.36586
690 1 -1.1104 9.23136 25.2288 3.80254
691 2 2.2208 7.96007 26.6054 5.15012
692 1 -1.1104 9.41879 22.3627 0.884563
693 1 -1.1104 9.33923 27.9613 1.08339
694 1 -1.1104 9.35997 22.2325 3.81891
695 1 -1.1104 9.50142 28.0548 3.72577
825 1 -1.1104 12.1967 25.2634 6.5784
9627 2 2.2208 13.5851 23.7567 2.17265
953 2 2.2208 7.9002 23.7528 13.4904
9628 2 2.2208 13.6111 29.2948 2.39297
963 2 2.2208 4.97284 43.5463 13.6403
9589 2 2.2208 13.5186 46.103 7.83395
9645 2 2.2208 13.4736 23.7991 13.4849
791 2 2.2208 7.97546 40.6316 8.04151
699 2 2.2208 5.04215 34.9783 5.18874
700 1 -1.1104 0.767741 30.7289 0.755323
701 1 -1.1104 0.856115 36.3003 1.07885
703 1 -1.1104 0.92295 30.6765 3.60914
704 1 -1.1104 0.92346 36.1147 3.78017
706 1 -1.1104 0.834893 33.4497 0.920554
707 2 2.2208 5.12612 32.2751 2.30155
708 2 2.2208 5.21242 37.7222 2.27628
709 1 -1.1104 0.72629 33.3056 3.71366
711 1 -1.1104 3.71887 30.7906 0.920377
712 1 -1.1104 3.8197 36.2932 0.937734
713 2 2.2208 2.29371 34.8799 2.26596
714 1 -1.1104 3.56287 30.6877 3.82973
715 1 -1.1104 3.65622 36.4198 3.78139
716 2 2.2208 2.26715 32.1634 5.0778
717 2 2.2208 2.24918 37.7187 5.12249
718 1 -1.1104 3.76629 33.4524 0.945481
719 1 -1.1104 3.55608 33.6808 3.77603
856 1 -1.1104 3.64435 36.4417 6.63291
702 1 -1.1104 6.70661 36.5366 1.00664
857 1 -1.1104 3.64298 33.652 6.47212
724 1 -1.1104 6.3975 30.6022 3.67849
710 1 -1.1104 6.41502 33.4128 3.79728
723 1 -1.1104 6.65901 30.8448 1.05756
725 1 -1.1104 6.53157 33.6965 0.888504
9503 2 2.2208 -0.292495 26.5175 7.90633
9525 2 2.2208 13.5208 37.9222 10.7096
705 1 -1.1104 6.4911 36.4035 3.8931
726 2 2.2208 10.7903 35.0101 5.24476
727 1 -1.1104 12.1865 30.7722 0.964628
728 1 -1.1104 12.2395 36.3057 0.974858
729 1 -1.1104 12.2201 30.7629 3.88181
730 1 -1.1104 12.2093 36.4545 3.8321
731 1 -1.1104 12.1423 33.6391 1.06631
732 2 2.2208 10.907 32.1186 2.47211
733 2 2.2208 10.7618 37.7622 2.43827
734 1 -1.1104 12.0847 33.6497 3.91355
735 1 -1.1104 9.42553 30.629 1.0763
736 1 -1.1104 9.4256 36.3725 1.00236
737 2 2.2208 8.04721 35.0855 2.39645
738 1 -1.1104 9.36658 30.7744 3.72543
739 1 -1.1104 9.34229 36.4355 3.85531
740 2 2.2208 7.93254 32.2025 5.29016
741 2 2.2208 7.83243 37.7906 5.28057
742 1 -1.1104 9.3888 33.532 1.22306
743 1 -1.1104 9.29247 33.6961 4.01267
885 1 -1.1104 12.2213 33.5688 6.7271
9579 2 2.2208 13.5845 40.5589 7.87957
1331 1 -1.1104 9.40807 47.4844 0.976659