ITEM: TIMESTEP
60000
ITEM: NUMBER OF ATOMS
17730
ITEM: BOX BOUNDS pp pp pp
-3.5628964629626192e-01 2.7696289646295444e+01
-4.2671242753634155e+00 3.3234712427536334e+02
-3.5535194214021854e-01 2.7695351942140551e+01
ITEM: ATOMS id type q x y z
1 2 2.2208 5.20999 1.22542 5.21664
2 1 -1.1104 1.04701 -2.90932 1.11616
3 1 -1.1104 1.13295 2.81978 0.898462
6 1 -1.1104 1.28851 -3.00767 4.00382
7 1 -1.1104 1.03681 2.64275 3.65962
10 1 -1.1104 1.04568 -0.109383 1.1655
12 2 2.2208 5.2241 -1.60112 2.52725
13 2 2.2208 5.38946 4.15352 2.36092
14 1 -1.1104 1.1167 -0.137337 3.91451
16 1 -1.1104 3.86714 -2.86855 1.15399
17 1 -1.1104 3.96759 2.7301 0.984062
18 2 2.2208 2.52499 1.32195 2.37292
19 1 -1.1104 4.01066 -2.87779 3.87739
20 1 -1.1104 3.83928 2.68796 3.77235
21 2 2.2208 2.37871 -1.61552 5.37103
22 2 2.2208 2.44262 4.10765 5.1074
23 1 -1.1104 3.79346 -0.131285 1.11946
24 1 -1.1104 3.87303 -0.134668 3.7312
8882 2 2.2208 -0.395004 1.37213 5.19993
8879 2 2.2208 -0.355646 -1.55136 2.45796
8915 2 2.2208 -0.190294 6.89842 -0.506679
173 1 -1.1104 3.74755 2.60385 6.57653
167 1 -1.1104 0.986086 2.78592 6.65422
8883 2 2.2208 -0.252152 4.07358 2.27761
166 1 -1.1104 0.925415 -2.9566 6.67582
172 1 -1.1104 3.83611 -3.07535 6.61724
4 1 -1.1104 6.63941 -3.06638 0.995714
11 1 -1.1104 6.7273 -0.0579508 1.08397
8809 2 2.2208 -0.405585 9.74046 8.05494
8936 2 2.2208 -0.214344 9.74953 13.5853
8895 2 2.2208 -0.255149 18.0429 5.18249
9 1 -1.1104 6.58626 2.57526 3.60865
8 1 -1.1104 6.75294 -2.9623 3.80259
15 1 -1.1104 6.73979 -0.168188 3.73167
5 1 -1.1104 6.74387 2.81323 0.959716
31 2 2.2208 10.8642 1.31899 5.25157
32 1 -1.1104 12.1828 -2.81465 1.09338
33 1 -1.1104 12.4419 2.71889 1.16537
34 1 -1.1104 12.2259 -2.7652 3.99803
35 1 -1.1104 12.3697 2.78727 3.85038
36 1 -1.1104 12.3299 -0.1066 0.995561
37 2 2.2208 10.9436 -1.49163 2.5292
38 2 2.2208 10.8941 4.15242 2.40576
39 1 -1.1104 12.2751 0.00988851 3.95719
40 1 -1.1104 9.36379 -2.8023 1.10865
41 1 -1.1104 9.47353 2.75289 1.13354
42 2 2.2208 8.17949 1.2933 2.50557
43 1 -1.1104 9.48238 -2.96828 3.96855
44 1 -1.1104 9.41061 2.73456 3.9115
45 2 2.2208 8.02848 -1.48781 5.11149
46 2 2.2208 8.04814 4.07522 5.07139
47 1 -1.1104 9.53315 -0.0725325 0.997012
48 1 -1.1104 9.50669 -0.151389 3.84844
169 1 -1.1104 6.5983 2.61276 6.40436
205 1 -1.1104 12.5062 -2.77836 6.68979
210 1 -1.1104 9.49979 -0.0490963 6.65948
168 1 -1.1104 6.71214 -2.8826 6.57376
209 1 -1.1104 9.37869 2.75029 6.58759
339 2 2.2208 8.11581 -1.49577 -0.426652
206 1 -1.1104 12.0964 2.76813 6.63626
105 2 2.2208 8.15215 18.2448 8.1326
231 2 2.2208 8.0958 -4.30109 8.06457
327 2 2.2208 10.8695 15.3561 13.7105
8904 2 2.2208 13.6739 1.27732 8.12235
54 2 2.2208 5.15329 6.89953 5.20056
55 2 2.2208 5.29259 12.6365 5.19189
56 1 -1.1104 1.12648 8.36259 0.995229
58 1 -1.1104 1.07357 8.27324 3.79746
60 1 -1.1104 1.20517 5.55016 0.87383
61 1 -1.1104 1.11362 11.0754 0.937684
66 2 2.2208 5.22934 9.7832 2.37337
67 1 -1.1104 1.21337 5.50217 3.76646
68 1 -1.1104 1.07098 11.0288 3.8235
71 1 -1.1104 3.9762 8.31243 0.919551
72 2 2.2208 2.45442 6.94609 2.49539
73 2 2.2208 2.54764 12.5146 2.39442
74 1 -1.1104 3.89624 8.34571 3.8468
75 2 2.2208 2.54595 9.7534 5.29331
76 1 -1.1104 3.92859 5.70478 0.957819
77 1 -1.1104 3.82571 11.0757 1.01256
79 1 -1.1104 4.04286 5.55354 3.8152
80 1 -1.1104 3.75615 11.1717 3.7539
316 2 2.2208 10.8537 4.03323 13.6441
238 1 -1.1104 3.82322 8.41201 6.76232
236 1 -1.1104 1.14315 5.51889 6.55214
239 1 -1.1104 3.84314 5.57633 6.65242
62 1 -1.1104 1.11154 11.1506 6.65939
53 2 2.2208 10.8146 15.2499 8.09386
69 1 -1.1104 6.70619 5.48194 3.77375
59 1 -1.1104 6.64089 8.3015 3.95388
57 1 -1.1104 6.80874 8.3875 1.17911
63 1 -1.1104 6.84667 5.63315 0.972769
70 1 -1.1104 6.5839 11.099 3.91434
64 1 -1.1104 6.76784 11.2561 1.02176
84 2 2.2208 11.0068 6.95594 5.19008
85 2 2.2208 10.9947 12.5005 5.20913
86 1 -1.1104 12.5313 8.35762 1.12556
87 1 -1.1104 12.3265 8.35326 3.87677
88 1 -1.1104 12.4246 5.56356 0.990681
89 1 -1.1104 12.3002 11.1141 1.08951
91 2 2.2208 10.9752 9.75007 2.51069
92 1 -1.1104 12.3371 5.59876 3.70726
93 1 -1.1104 12.2851 11.1242 3.9482
94 1 -1.1104 9.50681 8.17001 0.837577
95 2 2.2208 8.13738 6.90159 2.37107
96 2 2.2208 8.27723 12.5295 2.34547
97 1 -1.1104 9.44749 8.23898 3.69541
98 2 2.2208 7.99541 9.72256 5.10956
99 1 -1.1104 9.6683 5.47769 0.979415
100 1 -1.1104 9.67763 11.0638 0.964488
102 1 -1.1104 9.47907 5.48298 3.78803
103 1 -1.1104 9.52896 11.2451 3.72155
237 1 -1.1104 6.78084 5.26776 6.62428
269 1 -1.1104 9.52326 5.40262 6.61255
8881 2 2.2208 13.782 18.1486 8.06513
235 1 -1.1104 6.484 8.15072 6.70395
90 1 -1.1104 12.3285 11.193 6.64534
101 1 -1.1104 9.38047 11.0206 6.75877
8911 2 2.2208 13.6542 1.38833 13.7189
30 1 -1.1104 12.1601 13.9009 9.59636
106 2 2.2208 5.26115 18.2 5.12415
107 1 -1.1104 1.22506 13.9524 1.1018
109 1 -1.1104 0.900537 19.4689 0.918277
113 1 -1.1104 1.14869 13.9969 3.80203
114 1 -1.1104 1.00253 19.5745 3.69364
116 1 -1.1104 1.21879 16.6676 0.995632
119 2 2.2208 5.51797 15.3015 2.51117
120 2 2.2208 5.37253 20.9442 2.40741
121 1 -1.1104 1.26061 16.8282 3.80488
123 1 -1.1104 3.91695 14.0204 1.16403
125 1 -1.1104 3.90007 19.5296 1.06111
127 2 2.2208 2.39779 18.2057 2.32268
128 1 -1.1104 4.03429 13.9211 3.87478
129 1 -1.1104 3.92701 19.6256 3.80877
130 2 2.2208 2.60549 15.4281 5.22603
131 2 2.2208 2.5856 20.9958 5.27909
132 1 -1.1104 3.98855 16.7159 0.922702
134 1 -1.1104 3.97047 16.7392 3.82151
110 1 -1.1104 6.76137 13.9227 0.858104
124 1 -1.1104 3.9889 13.9393 6.65706
302 1 -1.1104 1.22582 19.6479 6.61962
8894 2 2.2208 -0.333104 20.9653 2.283
139 1 -1.1104 6.65006 19.592 3.90834
122 1 -1.1104 6.64649 16.7235 3.83703
138 1 -1.1104 6.76473 19.4536 1.06874
108 1 -1.1104 1.16573 14.0312 6.63722
117 1 -1.1104 1.04405 16.8506 6.66229
126 1 -1.1104 3.96584 19.5052 6.74074
8893 2 2.2208 -0.178542 15.333 2.37211
50 1 -1.1104 12.2858 16.7338 12.3912
233 1 -1.1104 6.72257 16.8821 12.3344
8715 2 2.2208 13.7068 4.09701 10.7454
328 2 2.2208 8.15925 18.1423 13.6723
82 1 -1.1104 12.3896 16.6643 9.47709
143 1 -1.1104 12.4419 13.9754 6.73566
115 1 -1.1104 6.82243 13.9652 3.77823
140 1 -1.1104 7.04673 16.6725 0.892527
141 2 2.2208 10.9408 18.1125 5.26492
142 1 -1.1104 12.3644 13.8728 0.895495
144 1 -1.1104 12.4602 19.5226 0.980763
146 1 -1.1104 12.5182 14.0828 3.75561
147 1 -1.1104 12.2331 19.6979 3.81265
148 1 -1.1104 12.471 16.8362 1.13788
150 2 2.2208 11.0878 15.2554 2.3579
151 2 2.2208 11.0144 21.0262 2.47146
152 1 -1.1104 12.4793 16.8446 3.93087
153 1 -1.1104 9.4969 13.7983 0.927537
155 1 -1.1104 9.74386 19.5108 0.987183
157 2 2.2208 8.2721 18.0675 2.49616
158 1 -1.1104 9.70293 13.8983 3.71504
159 1 -1.1104 9.51552 19.5526 3.80238
160 2 2.2208 8.11761 15.3677 5.25035
161 2 2.2208 8.10331 20.8812 5.2487
162 1 -1.1104 9.73658 16.6043 0.970716
164 1 -1.1104 9.52382 16.6933 4.00767
156 1 -1.1104 9.43126 19.5822 6.54925
149 1 -1.1104 12.3995 16.7036 6.6989
145 1 -1.1104 12.3159 19.5092 6.59174
111 1 -1.1104 6.78346 13.9948 6.652
174 1 -1.1104 3.87323 -0.248064 6.58054
8802 2 2.2208 -0.15341 12.5456 10.8466
289 1 -1.1104 6.78712 16.8143 9.40527
136 1 -1.1104 9.61276 19.586 9.53238
199 1 -1.1104 9.45809 16.7547 12.2254
8898 2 2.2208 -0.394865 -1.52603 8.07602
170 1 -1.1104 1.14235 -0.0680828 6.61377
8890 2 2.2208 -0.235092 12.5807 5.17786
112 1 -1.1104 6.65949 19.6943 6.65534
175 2 2.2208 5.16442 1.32658 10.8734
176 1 -1.1104 1.14055 -2.71342 12.3557
177 1 -1.1104 1.01229 2.72982 12.0712
180 1 -1.1104 1.03788 -2.93112 9.53066
181 1 -1.1104 0.941177 2.69231 9.31704
184 1 -1.1104 0.88143 -0.0124221 12.4118
186 2 2.2208 5.21654 -1.53957 8.10744
187 2 2.2208 5.26317 4.08308 8.02553
188 1 -1.1104 1.05987 -0.0937109 9.45542
190 1 -1.1104 3.8301 -3.03517 12.2495
191 1 -1.1104 3.88972 2.58177 12.118
192 2 2.2208 2.40903 1.30534 8.06218
193 1 -1.1104 3.78939 -2.8759 9.4665
194 1 -1.1104 3.75934 2.68747 9.37941
195 2 2.2208 2.45068 -1.49482 10.9558
196 2 2.2208 2.45826 4.0089 10.756
197 1 -1.1104 3.74151 -0.228217 12.3218
198 1 -1.1104 3.86507 -0.00201177 9.42601
179 1 -1.1104 6.68197 2.84224 12.1611
189 1 -1.1104 6.65321 -0.149036 9.42893
25 2 2.2208 10.9424 18.1245 10.8646
8897 2 2.2208 -0.291822 4.16717 8.0109
137 2 2.2208 8.22597 15.389 10.8575
26 1 -1.1104 12.4194 13.9216 12.2971
208 1 -1.1104 9.56169 -2.93488 6.69869
207 1 -1.1104 12.323 -0.0493537 6.63154
171 1 -1.1104 6.66157 -0.0937285 6.5062
185 1 -1.1104 6.65116 -0.0950936 12.4596
183 1 -1.1104 6.55941 2.67618 9.36139
182 1 -1.1104 6.57628 -2.96388 9.58538
178 1 -1.1104 6.68564 -2.90467 12.3634
211 2 2.2208 10.855 1.342 10.8154
212 1 -1.1104 12.2055 -2.70263 12.2019
213 1 -1.1104 12.3427 2.75847 12.3107
214 1 -1.1104 12.2156 -2.9362 9.30983
215 1 -1.1104 12.3717 2.85781 9.50964
216 1 -1.1104 12.1638 -0.00139396 12.3143
217 2 2.2208 10.8314 -1.59907 8.00229
219 1 -1.1104 12.1986 -0.0207222 9.63794
220 1 -1.1104 9.3907 -2.9259 12.2991
221 1 -1.1104 9.42741 2.6735 12.1684
222 2 2.2208 7.94193 1.28379 7.92384
223 1 -1.1104 9.35372 -2.93484 9.47319
224 1 -1.1104 9.51208 2.60812 9.40566
225 2 2.2208 8.07145 -1.50406 10.8616
226 2 2.2208 8.14987 4.07121 10.7232
227 1 -1.1104 9.43248 -0.163729 12.3416
228 1 -1.1104 9.35772 -0.253561 9.50749
218 2 2.2208 10.9027 4.14613 7.97208
288 1 -1.1104 6.78599 19.6215 9.45496
200 1 -1.1104 9.60028 16.911 9.3778
314 2 2.2208 8.0146 1.2886 13.7015
326 2 2.2208 10.9002 20.9049 13.6215
234 1 -1.1104 1.20709 8.28327 6.54161
232 2 2.2208 10.8025 -4.33737 10.9416
78 1 -1.1104 4.01431 11.2496 6.49321
8810 2 2.2208 -0.229405 6.92764 10.919
240 2 2.2208 5.30492 6.75703 10.8558
241 2 2.2208 5.36645 12.5985 10.8283
242 1 -1.1104 1.23519 8.32905 12.245
244 1 -1.1104 1.05225 8.34297 9.49455
246 1 -1.1104 1.06992 5.45036 12.2331
247 1 -1.1104 1.09294 11.0741 12.1119
250 2 2.2208 5.25412 9.72473 8.10774
251 1 -1.1104 1.07847 5.5156 9.51299
252 1 -1.1104 1.0433 11.1561 9.27745
255 1 -1.1104 4.06992 8.38711 12.3103
256 2 2.2208 2.4682 6.9335 8.17672
257 2 2.2208 2.55449 12.4916 7.99497
258 1 -1.1104 3.98235 8.29981 9.64476
259 2 2.2208 2.63071 9.76706 10.8701
260 1 -1.1104 3.94643 5.43345 12.3021
261 1 -1.1104 3.82966 11.193 12.2569
262 1 -1.1104 3.79578 5.49192 9.47986
263 1 -1.1104 3.87949 11.1837 9.44833
8580 2 2.2208 13.7969 4.17214 5.27903
163 1 -1.1104 9.57496 16.6084 6.66515
165 2 2.2208 8.19298 20.9963 10.7822
248 1 -1.1104 6.70145 5.66944 12.1588
265 1 -1.1104 12.3081 8.5021 6.6902
267 1 -1.1104 9.443 8.24882 6.4213
266 1 -1.1104 12.3046 5.5461 6.69793
65 1 -1.1104 6.64639 11.1018 6.68271
253 1 -1.1104 6.53959 5.39878 9.27884
249 1 -1.1104 6.68807 11.2757 12.3184
254 1 -1.1104 6.67977 11.0914 9.55849
245 1 -1.1104 6.70491 8.1492 9.45889
243 1 -1.1104 6.79893 8.41894 12.2174
264 1 -1.1104 9.59346 11.1738 9.57599
268 1 -1.1104 9.39191 5.5474 9.35109
270 1 -1.1104 9.45323 11.2055 12.085
271 1 -1.1104 9.51635 5.52604 12.1698
272 2 2.2208 8.15077 9.70072 10.7668
273 1 -1.1104 9.37469 8.5072 9.22779
274 2 2.2208 8.04721 12.482 8.10283
275 2 2.2208 8.01987 6.93961 7.93711
276 2 2.2208 10.9287 6.88167 10.8447
277 2 2.2208 10.9261 12.5362 10.8766
278 1 -1.1104 12.5732 8.33672 12.1869
279 1 -1.1104 12.2486 8.4349 9.43354
280 1 -1.1104 12.2746 5.52057 12.1607
281 1 -1.1104 12.3696 11.0719 12.3316
282 2 2.2208 10.9661 9.8075 8.16479
283 1 -1.1104 12.296 5.65669 9.43616
284 1 -1.1104 12.5217 11.248 9.4828
285 1 -1.1104 9.75762 8.34675 12.053
343 2 2.2208 2.52903 9.67075 -0.358816
325 2 2.2208 5.39689 15.3402 13.5819
324 2 2.2208 5.35847 20.9749 13.6282
8902 2 2.2208 -0.295039 20.9288 7.89661
133 1 -1.1104 3.96676 16.7635 6.59441
305 1 -1.1104 3.90746 13.969 9.42273
304 1 -1.1104 3.95841 16.7712 9.42341
303 2 2.2208 2.63739 18.2735 8.03642
301 1 -1.1104 3.82182 19.5645 9.57746
300 2 2.2208 5.29704 18.1336 10.9694
201 2 2.2208 2.55772 15.4175 10.7792
204 2 2.2208 2.5434 20.9994 10.7931
229 1 -1.1104 3.88694 16.7766 12.179
230 1 -1.1104 1.17453 16.7381 12.3055
286 1 -1.1104 4.00138 19.3505 12.3462
287 1 -1.1104 4.04782 13.8625 12.2739
291 1 -1.1104 1.08619 19.7429 9.26898
292 1 -1.1104 1.24473 16.7559 9.31899
293 2 2.2208 5.2774 20.9451 8.12161
294 1 -1.1104 1.12081 13.8567 9.41358
295 2 2.2208 5.39355 15.5075 7.96224
298 1 -1.1104 1.15949 19.4667 12.2248
299 1 -1.1104 1.15991 13.8868 12.2104
8901 2 2.2208 -0.186396 18.221 10.7895
8900 2 2.2208 -0.266166 15.3068 8.02547
104 1 -1.1104 9.40956 19.5133 12.1447
27 1 -1.1104 12.2786 19.7444 12.1127
296 1 -1.1104 6.54152 19.657 12.1579
290 1 -1.1104 6.63265 14.084 9.46368
135 1 -1.1104 9.42484 14.0409 9.39823
297 1 -1.1104 6.86029 14.0322 12.2303
154 1 -1.1104 9.49163 13.7566 6.61265
118 1 -1.1104 6.58726 16.8997 6.59545
83 1 -1.1104 9.62681 14.0526 12.2297
49 1 -1.1104 12.4183 19.4775 9.38019
81 2 2.2208 10.9731 20.9475 8.04669
318 2 2.2208 5.33316 9.77254 13.6403
8946 2 2.2208 -0.204497 15.4607 13.6967
319 2 2.2208 2.44378 12.4759 13.6527
308 2 2.2208 8.18467 20.941 -0.43442
8947 2 2.2208 -0.155535 21.0139 13.6355
307 2 2.2208 11.0122 18.0755 -0.432161
338 2 2.2208 11.0459 1.32727 -0.438463
317 2 2.2208 2.55046 6.88836 13.5451
331 2 2.2208 5.37486 18.0734 -0.340636
320 2 2.2208 8.28504 6.90689 13.5953
346 2 2.2208 5.3377 1.2348 16.4705
347 1 -1.1104 1.17117 -2.83207 17.9311
348 1 -1.1104 1.06807 2.70124 17.9289
351 1 -1.1104 1.00886 -2.8154 15.2065
353 1 -1.1104 1.15773 2.66634 15.0326
359 1 -1.1104 1.23598 -0.0066772 17.8829
361 2 2.2208 5.45991 -1.39429 19.2869
362 2 2.2208 5.29202 4.2013 19.2426
363 1 -1.1104 1.00423 -0.00275908 15.0697
367 1 -1.1104 3.95561 -2.90757 17.8373
368 1 -1.1104 3.97897 2.7116 17.8044
369 2 2.2208 2.46496 1.405 19.253
370 1 -1.1104 3.80387 -2.89327 15.0618
372 1 -1.1104 3.945 2.6833 14.9309
374 2 2.2208 2.48815 -1.38259 16.4417
375 2 2.2208 2.50155 4.10504 16.4855
376 1 -1.1104 4.0188 -0.132363 17.8509
377 1 -1.1104 3.8461 -0.101696 15.0427
8996 2 2.2208 -0.290683 15.2333 24.7747
311 2 2.2208 2.44831 1.44496 13.6087
9111 2 2.2208 -0.239021 1.39335 16.3647
315 2 2.2208 10.8876 -1.4301 13.5004
371 1 -1.1104 3.87366 -2.80678 20.7277
365 1 -1.1104 6.73725 -0.199062 15.2105
373 1 -1.1104 3.92558 2.71556 20.5339
354 1 -1.1104 1.23838 2.96154 20.6762
378 1 -1.1104 4.05864 -0.0346825 20.838
9071 2 2.2208 -0.297571 -4.39345 21.9155
360 1 -1.1104 6.77187 0.0664188 18.0209
355 1 -1.1104 6.60968 -2.95518 15.2115
357 1 -1.1104 6.6982 2.64832 15.1222
349 1 -1.1104 6.71381 -2.81279 17.9152
350 1 -1.1104 6.8033 2.80943 17.8145
389 2 2.2208 10.942 1.26647 16.4584
390 1 -1.1104 12.4191 -2.98377 17.7843
391 1 -1.1104 12.2433 2.56861 17.8033
392 1 -1.1104 12.2958 -2.77366 14.9634
394 1 -1.1104 12.2423 2.66352 15.0805
396 1 -1.1104 12.3716 -0.135317 17.9373
397 2 2.2208 10.9074 -1.50382 19.1944
398 2 2.2208 10.928 4.06688 19.3224
399 1 -1.1104 12.3814 -0.106267 15.1493
401 1 -1.1104 9.43034 -2.89599 17.8703
402 1 -1.1104 9.61928 2.73432 17.9682
403 2 2.2208 8.15782 1.38017 19.239
404 1 -1.1104 9.50365 -2.91461 15.1637
406 1 -1.1104 9.38587 2.79334 14.9782
408 2 2.2208 8.09226 -1.5645 16.5577
409 2 2.2208 8.20181 4.09327 16.4159
410 1 -1.1104 9.44786 0.0283984 17.8558
411 1 -1.1104 9.49164 -0.118176 15.0765
9074 2 2.2208 -0.25976 12.5199 16.3692
9180 2 2.2208 -0.246001 18.1908 16.4494
393 1 -1.1104 12.3372 -2.84747 20.6504
407 1 -1.1104 9.54981 2.71216 20.8119
366 1 -1.1104 6.74737 -0.169168 20.8092
358 1 -1.1104 6.80784 2.85735 20.5692
356 1 -1.1104 6.75955 -2.91029 20.7384
412 1 -1.1104 9.54403 -0.0490321 20.5352
9109 2 2.2208 -0.0973656 6.93838 16.3934
422 2 2.2208 5.49219 7.00592 16.4016
423 2 2.2208 5.44505 12.5436 16.33
424 1 -1.1104 1.18385 8.29049 17.7609
426 1 -1.1104 1.13413 8.26509 14.9536
430 1 -1.1104 1.32307 5.4458 17.9042
431 1 -1.1104 1.22802 11.1036 17.6501
434 2 2.2208 5.30053 9.85149 19.1291
435 1 -1.1104 1.22136 5.47845 15.067
437 1 -1.1104 1.10502 11.0428 14.8977
443 1 -1.1104 3.99641 8.3318 17.7771
444 2 2.2208 2.61306 6.93868 19.1978
445 2 2.2208 2.49548 12.5982 19.167
446 1 -1.1104 3.8245 8.26061 15.1765
448 2 2.2208 2.53348 9.78022 16.4906
449 1 -1.1104 4.05249 5.49343 17.7566
450 1 -1.1104 3.96649 11.1709 17.8475
451 1 -1.1104 4.03199 5.52037 15.1355
453 1 -1.1104 3.96015 11.2041 14.9871
9179 2 2.2208 -0.244195 15.3829 19.242
609 2 2.2208 8.1311 -4.19632 24.7999
606 2 2.2208 8.24906 18.2204 24.9483
427 1 -1.1104 1.20533 8.23339 20.5186
438 1 -1.1104 1.19756 11.2061 20.5789
436 1 -1.1104 1.05935 5.54691 20.6373
432 1 -1.1104 6.68207 5.56393 17.9114
447 1 -1.1104 3.94654 8.37717 20.7331
452 1 -1.1104 4.02071 5.50055 20.6514
9035 2 2.2208 -0.250035 12.5238 21.9872
9036 2 2.2208 -0.282122 4.20819 19.2552
417 1 -1.1104 12.236 19.6066 23.5913
433 1 -1.1104 6.76111 11.1907 17.8032
439 1 -1.1104 6.76771 5.55378 14.943
428 1 -1.1104 6.83648 8.31569 14.9509
441 1 -1.1104 6.76814 11.0833 15.077
425 1 -1.1104 6.85847 8.45194 17.85
458 2 2.2208 11.0354 6.90036 16.5297
459 2 2.2208 10.9454 12.5875 16.3236
460 1 -1.1104 12.4557 8.22795 17.8132
461 1 -1.1104 12.4312 8.05937 15.0182
463 1 -1.1104 12.3985 5.46471 17.9103
464 1 -1.1104 12.3091 11.0024 17.7148
465 2 2.2208 10.9878 9.5478 19.1917
466 1 -1.1104 12.379 5.31011 15.0132
468 1 -1.1104 12.4939 10.9343 14.9545
470 1 -1.1104 9.60452 8.27152 17.6966
471 2 2.2208 8.1833 6.97815 19.2381
472 2 2.2208 8.18139 12.4567 19.2704
473 1 -1.1104 9.66869 8.16028 14.8817
475 2 2.2208 8.16186 9.7696 16.431
476 1 -1.1104 9.6476 5.45872 17.984
477 1 -1.1104 9.50975 10.9643 17.8173
478 1 -1.1104 9.4759 5.55386 15.1307
480 1 -1.1104 9.69186 11.111 14.9705
467 1 -1.1104 12.4824 5.49424 20.6904
481 1 -1.1104 9.61618 11.1171 20.5968
469 1 -1.1104 12.3191 11.0229 20.7064
442 1 -1.1104 6.71623 11.0021 20.6036
9069 2 2.2208 13.7842 12.4379 19.2687
9178 2 2.2208 -0.105989 20.9778 19.2315
485 2 2.2208 5.33823 18.1691 16.46
486 1 -1.1104 1.06965 14.0348 17.669
487 1 -1.1104 1.1519 19.7337 17.8171
490 1 -1.1104 1.12229 13.9274 14.9961
492 1 -1.1104 1.17914 19.6557 14.9797
498 1 -1.1104 1.13074 16.818 17.8265
500 2 2.2208 5.37487 15.2908 19.0913
501 2 2.2208 5.43132 20.8059 19.1747
502 1 -1.1104 1.18165 16.7464 15.1493
506 1 -1.1104 3.92989 13.9111 17.7436
507 1 -1.1104 3.91885 19.4943 17.8551
508 2 2.2208 2.64521 18.1417 19.3227
509 1 -1.1104 3.85765 13.992 14.9876
511 1 -1.1104 4.01696 19.6209 15.1604
513 2 2.2208 2.56457 15.4045 16.3983
514 2 2.2208 2.62918 21.0163 16.4463
515 1 -1.1104 3.92447 16.7919 17.8964
516 1 -1.1104 3.99889 16.7789 15.0277
418 1 -1.1104 12.4204 13.949 26.1283
493 1 -1.1104 1.39356 19.6891 20.7116
510 1 -1.1104 3.94674 14.0505 20.6824
491 1 -1.1104 1.15988 13.9647 20.551
512 1 -1.1104 4.04601 19.4717 20.6836
642 1 -1.1104 9.51922 16.7512 23.5837
497 1 -1.1104 6.89424 19.669 20.7292
499 1 -1.1104 6.73104 16.8268 17.8231
504 1 -1.1104 6.84186 16.7811 15.0904
496 1 -1.1104 6.89316 19.451 15.0077
489 1 -1.1104 6.86127 19.5845 17.7221
488 1 -1.1104 6.84376 14.0319 17.5419
494 1 -1.1104 6.85491 13.8989 14.9373
521 2 2.2208 10.9232 18.1215 16.3759
522 1 -1.1104 12.5384 13.7956 17.7317
523 1 -1.1104 12.2727 19.4685 17.833
524 1 -1.1104 12.3643 13.9867 14.9403
526 1 -1.1104 12.3883 19.5827 14.9869
528 1 -1.1104 12.4797 16.7401 17.8986
529 2 2.2208 10.9413 15.3405 19.1835
530 2 2.2208 10.9768 20.9215 19.4174
531 1 -1.1104 12.3317 16.5828 15.1922
533 1 -1.1104 9.64833 13.9114 17.8314
534 1 -1.1104 9.64101 19.6407 17.7987
535 2 2.2208 8.16427 18.1806 19.2449
536 1 -1.1104 9.57563 13.8191 14.9851
538 1 -1.1104 9.54542 19.4753 14.9917
540 2 2.2208 8.20169 15.3981 16.4983
541 2 2.2208 8.2707 20.9035 16.3494
542 1 -1.1104 9.5017 16.8776 17.7987
543 1 -1.1104 9.50863 16.7561 14.9937
539 1 -1.1104 9.65858 19.3999 20.6157
495 1 -1.1104 6.70736 13.8669 20.3988
384 2 2.2208 10.9511 17.9981 22.0641
582 1 -1.1104 12.3874 16.8293 26.3877
9070 2 2.2208 -0.196274 -1.51478 24.8032
577 2 2.2208 11.0845 15.3741 24.7421
9108 2 2.2208 -0.166885 9.77795 19.145
9066 2 2.2208 -0.213338 1.31534 22.136
364 1 -1.1104 1.18927 0.0476298 20.7183
352 1 -1.1104 1.05961 -2.88485 20.7429
549 2 2.2208 5.34707 1.51371 22.0383
550 1 -1.1104 1.27588 -2.841 23.3745
551 1 -1.1104 1.11644 2.78153 23.4247
554 1 -1.1104 1.13314 -2.85072 26.1776
555 1 -1.1104 1.14753 2.92669 26.1364
558 1 -1.1104 1.13356 -0.102317 23.356
560 2 2.2208 5.25784 -1.40586 24.8298
561 2 2.2208 5.34015 4.24582 24.876
562 1 -1.1104 1.06564 0.158254 26.2215
564 1 -1.1104 4.01652 -2.96238 23.5536
565 1 -1.1104 3.95109 2.84211 23.5039
566 2 2.2208 2.54713 1.35359 24.8842
567 1 -1.1104 3.88508 -3.03488 26.3169
568 1 -1.1104 3.93249 2.71859 26.2653
569 2 2.2208 2.61445 -1.36219 22.184
570 2 2.2208 2.48955 4.1941 22.0568
571 1 -1.1104 3.86475 -0.031314 23.6867
572 1 -1.1104 3.75659 -0.139857 26.2461
9065 2 2.2208 -0.322911 4.24703 24.8877
537 1 -1.1104 9.39607 13.8282 20.7174
306 2 2.2208 8.12127 15.2642 27.6342
581 2 2.2208 10.9845 20.9102 24.929
611 1 -1.1104 9.63243 13.8531 26.1049
400 1 -1.1104 12.2341 -0.113282 20.5949
405 1 -1.1104 9.43411 -2.83365 20.662
613 2 2.2208 8.1864 15.337 22.0178
563 1 -1.1104 6.64838 -0.0116325 26.2772
413 1 -1.1104 12.3606 13.9442 23.3241
395 1 -1.1104 12.3091 2.66643 20.6164
557 1 -1.1104 6.63059 2.95008 26.1686
553 1 -1.1104 6.82365 2.9198 23.4004
556 1 -1.1104 6.74954 -2.81935 26.2416
552 1 -1.1104 6.72259 -2.79375 23.4958
559 1 -1.1104 6.58426 -0.0496264 23.3962
585 2 2.2208 10.8515 1.36955 21.9643
586 1 -1.1104 12.4728 -2.93042 23.5245
587 1 -1.1104 12.4213 2.6906 23.4038
588 1 -1.1104 12.2974 -2.90872 26.3327
589 1 -1.1104 12.3584 2.84016 26.2291
590 1 -1.1104 12.1353 -0.0845049 23.3635
591 2 2.2208 10.9179 -1.38687 24.8478
593 1 -1.1104 12.4736 -0.00948363 26.3335
594 1 -1.1104 9.54162 -2.84 23.4038
595 1 -1.1104 9.51666 2.76887 23.5361
596 2 2.2208 8.13346 1.40098 24.9161
597 1 -1.1104 9.6154 -2.78465 26.2295
598 1 -1.1104 9.46192 2.62274 26.3749
599 2 2.2208 8.08108 -1.48883 22.1092
600 2 2.2208 8.08643 4.25249 22.0694
601 1 -1.1104 9.40617 -0.130212 23.516
602 1 -1.1104 9.62772 -0.058981 26.3548
592 2 2.2208 11.0818 4.12268 24.7953
334 2 2.2208 11.0788 6.8358 27.6936
454 1 -1.1104 3.97172 11.2534 20.6451
614 2 2.2208 5.44695 7.01259 22.0748
615 2 2.2208 5.30837 12.5886 22.044
616 1 -1.1104 1.04748 8.25557 23.3488
618 1 -1.1104 1.08926 8.34137 26.2033
620 1 -1.1104 1.14965 5.59423 23.3747
621 1 -1.1104 1.13447 10.9857 23.341
624 2 2.2208 5.34038 9.66608 24.7741
625 1 -1.1104 1.17911 5.68247 26.0687
626 1 -1.1104 1.07876 11.1271 26.0599
629 1 -1.1104 3.84661 8.37141 23.4534
630 2 2.2208 2.47484 6.92217 24.7146
631 2 2.2208 2.47659 12.4853 24.7471
632 1 -1.1104 3.91925 8.2136 26.175
633 2 2.2208 2.50492 9.71885 22.0099
634 1 -1.1104 3.95084 5.53848 23.5068
635 1 -1.1104 3.84588 11.2521 23.3191
636 1 -1.1104 3.96336 5.50215 26.2454
637 1 -1.1104 3.82005 11.1201 26.151
9037 2 2.2208 -0.22684 9.74549 24.7703
9287 2 2.2208 -0.188001 6.86111 21.9433
527 1 -1.1104 12.4722 19.4511 20.6982
628 1 -1.1104 6.65174 11.1108 26.0979
532 1 -1.1104 12.4352 16.6857 20.6128
641 2 2.2208 8.14777 20.99 22.1564
612 1 -1.1104 9.66914 19.6088 26.2443
344 2 2.2208 5.2553 12.5571 27.5566
548 1 -1.1104 12.4324 19.5021 26.2403
479 1 -1.1104 9.43561 5.63247 20.8028
474 1 -1.1104 9.50186 8.34849 20.5704
440 1 -1.1104 6.71496 5.59231 20.6408
623 1 -1.1104 6.71557 11.0685 23.2598
462 1 -1.1104 12.3333 8.14477 20.6398
622 1 -1.1104 6.78121 5.68827 23.5568
429 1 -1.1104 6.72363 8.28552 20.5691
627 1 -1.1104 6.89726 5.62552 26.253
619 1 -1.1104 6.71547 8.38733 26.3309
617 1 -1.1104 6.71445 8.3536 23.566
573 1 -1.1104 9.6368 8.41975 23.3823
574 1 -1.1104 12.5114 10.96 26.2625
575 1 -1.1104 12.2457 5.49365 26.2756
578 2 2.2208 11.0709 9.71024 24.7354
603 1 -1.1104 12.3245 11.2711 23.4321
604 1 -1.1104 12.4421 5.45544 23.4004
605 1 -1.1104 12.3974 8.25826 26.2572
607 1 -1.1104 12.4498 8.41782 23.4252
638 2 2.2208 10.8573 12.4293 22.0408
639 2 2.2208 11.0364 6.90425 21.9765
640 2 2.2208 8.26923 7.09287 24.8992
644 2 2.2208 8.0639 12.5858 24.8079
645 1 -1.1104 9.62151 11.176 26.2515
646 1 -1.1104 9.55513 5.44302 26.1155
647 1 -1.1104 9.3561 11.1684 23.461
648 1 -1.1104 9.5839 5.6908 23.4079
649 2 2.2208 8.06772 9.70923 22.087
650 1 -1.1104 9.54726 8.37897 26.1323
8997 2 2.2208 -0.202238 20.9291 24.6709
584 1 -1.1104 9.46935 19.5363 23.4548
503 1 -1.1104 1.24315 16.749 20.5705
519 1 -1.1104 6.71318 16.7139 26.1185
385 1 -1.1104 6.81141 16.8042 23.2061
517 1 -1.1104 4.02928 16.6503 20.7863
8998 2 2.2208 -0.262763 18.1079 22.0386
547 2 2.2208 2.60676 15.3367 21.9917
379 2 2.2208 2.52493 20.935 22.0869
382 1 -1.1104 3.82938 16.794 23.4475
383 1 -1.1104 1.13102 16.6181 23.4378
386 1 -1.1104 3.86293 14.0605 26.297
387 1 -1.1104 4.02144 16.7341 26.3192
388 2 2.2208 2.5732 18.0298 24.883
416 1 -1.1104 4.02664 19.6005 26.3686
419 2 2.2208 5.37711 18.2156 22.0834
420 1 -1.1104 1.0351 13.7839 23.5036
421 1 -1.1104 1.16079 19.4497 23.3912
456 2 2.2208 5.29202 15.4786 24.7012
457 2 2.2208 5.19256 20.9906 24.9603
483 1 -1.1104 1.00502 13.9216 26.2648
484 1 -1.1104 1.20439 16.7422 26.2335
518 1 -1.1104 1.29079 19.5587 26.1612
520 1 -1.1104 3.82793 13.9384 23.5319
546 1 -1.1104 3.82883 19.4663 23.4351
545 1 -1.1104 6.73085 13.9335 26.2678
9141 2 2.2208 -0.367688 -4.34334 16.5687
610 1 -1.1104 6.76703 19.4479 26.4243
583 1 -1.1104 9.46952 14.0023 23.3471
482 1 -1.1104 6.70037 19.5191 23.629
643 1 -1.1104 9.60595 16.7222 26.3579
544 1 -1.1104 9.51049 16.7692 20.7403
505 1 -1.1104 6.73716 16.6124 20.476
576 1 -1.1104 12.3849 16.7354 23.3722
525 1 -1.1104 12.2357 13.902 20.5595
455 1 -1.1104 6.58089 14.013 23.4568
381 2 2.2208 2.54798 -4.19929 19.3815
333 2 2.2208 8.25111 9.78617 27.7201
345 2 2.2208 2.55028 15.3573 27.7012
9040 2 2.2208 13.6683 -4.44504 24.928
335 2 2.2208 2.48247 -1.61038 27.6801
342 2 2.2208 5.42591 6.95974 27.6099
310 2 2.2208 5.18094 -1.54505 13.763
8934 2 2.2208 -0.40528 -1.40472 13.775
330 2 2.2208 2.56262 20.9508 27.6977
8918 2 2.2208 -0.381201 12.5427 27.6153
321 2 2.2208 11.1772 9.60855 13.6205
322 2 2.2208 8.17941 12.5134 13.6033
336 2 2.2208 2.61979 4.21324 27.6531
340 2 2.2208 8.15241 4.19048 27.5911
8912 2 2.2208 -0.257684 18.1926 27.66
329 2 2.2208 5.26768 1.30164 27.6507
332 2 2.2208 11.0576 12.4478 27.5802
312 2 2.2208 5.36574 4.16826 13.7512
323 2 2.2208 2.60394 18.2566 13.7114
8927 2 2.2208 -0.223432 1.45978 27.6282
651 2 2.2208 5.40383 23.7804 5.29166
652 2 2.2208 5.28929 29.2781 5.20741
653 1 -1.1104 1.27229 24.9543 0.899417
654 1 -1.1104 1.1318 25.0433 3.70098
655 1 -1.1104 1.12841 22.1993 0.938937
656 1 -1.1104 1.32412 27.8942 1.03307
657 2 2.2208 5.3822 26.6578 2.42756
658 1 -1.1104 1.32975 22.3346 3.76439
659 1 -1.1104 1.13871 27.8012 3.78233
660 1 -1.1104 3.98405 25.1035 1.06915
661 2 2.2208 2.69841 23.5774 2.39412
662 2 2.2208 2.57005 29.2252 2.47012
663 1 -1.1104 4.02719 24.9545 3.86713
664 2 2.2208 2.47376 26.3618 5.16159
665 1 -1.1104 3.9991 22.1991 1.04949
666 1 -1.1104 3.97911 27.8954 0.923055
667 1 -1.1104 4.15761 22.3269 3.86267
668 1 -1.1104 4.00516 27.8374 3.85961
798 1 -1.1104 3.98113 25.1826 6.6592
794 1 -1.1104 1.26421 22.2783 6.53608
675 1 -1.1104 6.84015 27.8744 1.11314
672 1 -1.1104 6.64647 25.2055 1.07321
795 1 -1.1104 1.0882 27.9685 6.51565
800 1 -1.1104 3.79014 27.837 6.54469
799 1 -1.1104 3.97735 22.4454 6.67573
792 1 -1.1104 1.0484 25.1449 6.51785
9626 2 2.2208 -0.256187 26.4709 2.47992
673 1 -1.1104 6.7694 25.284 3.87751
674 1 -1.1104 6.81633 22.4192 0.980424
677 1 -1.1104 6.74061 27.9607 3.88791
676 1 -1.1104 6.77479 22.4245 3.8293
678 2 2.2208 10.821 23.7453 5.30351
679 2 2.2208 11.0024 29.3339 5.31854
680 1 -1.1104 12.4691 25.1439 1.09867
681 1 -1.1104 12.4243 25.289 3.85571
682 1 -1.1104 12.2875 22.3036 1.01668
683 1 -1.1104 12.5621 28.0292 0.95483
684 2 2.2208 11.0855 26.5387 2.4151
685 1 -1.1104 12.4079 22.4273 3.77122
686 1 -1.1104 12.313 28.1251 3.90754
687 1 -1.1104 9.51484 25.2771 1.04274
688 2 2.2208 8.21761 23.7744 2.48351
689 2 2.2208 8.21858 29.3911 2.55247
690 1 -1.1104 9.72077 25.087 3.95415
691 2 2.2208 8.12623 26.4666 5.19375
692 1 -1.1104 9.57396 22.4719 0.941089
693 1 -1.1104 9.5959 28.2317 1.10993
694 1 -1.1104 9.56237 22.3402 3.85831
695 1 -1.1104 9.50629 27.9355 3.88968
828 1 -1.1104 9.59542 25.0903 6.75934
796 1 -1.1104 6.74082 22.3963 6.68069
797 1 -1.1104 6.74254 27.8382 6.56637
829 1 -1.1104 9.57294 22.2502 6.65427
826 1 -1.1104 12.3088 22.4416 6.6524
9655 2 2.2208 -0.258674 26.6281 13.5605
793 1 -1.1104 6.7892 25.1222 6.62092
699 2 2.2208 5.31265 35.0308 5.13486
700 1 -1.1104 1.03099 30.7898 1.13178
701 1 -1.1104 0.994828 36.2588 1.0212
703 1 -1.1104 1.10855 30.7616 3.78641
704 1 -1.1104 1.00435 36.3053 3.78681
706 1 -1.1104 1.10551 33.556 0.967464
707 2 2.2208 5.24094 32.1498 2.29933
708 2 2.2208 5.2713 37.7792 2.34398
709 1 -1.1104 0.977781 33.4973 3.80241
711 1 -1.1104 3.81695 30.7471 1.0783
712 1 -1.1104 3.82613 36.567 1.09928
713 2 2.2208 2.37967 34.9586 2.50836
714 1 -1.1104 4.05779 30.7695 3.7518
715 1 -1.1104 3.87082 36.4714 3.86588
716 2 2.2208 2.51805 32.1905 5.2189
717 2 2.2208 2.55181 37.711 5.26502
718 1 -1.1104 3.87158 33.5514 0.939439
719 1 -1.1104 3.75012 33.4975 3.82067
857 1 -1.1104 3.87502 33.5792 6.54209
971 2 2.2208 5.41092 29.2964 -0.358801
849 1 -1.1104 1.0745 30.7699 6.32462
702 1 -1.1104 6.77928 36.38 1.03127
705 1 -1.1104 6.73089 36.3529 3.72966
855 1 -1.1104 4.06056 30.8184 6.45862
850 1 -1.1104 1.15435 36.3087 6.60766
9465 2 2.2208 13.7336 23.7035 7.97435
1503 1 -1.1104 12.322 47.5754 6.62799
769 2 2.2208 10.8966 43.378 7.78489
723 1 -1.1104 6.66712 30.6801 1.0025
710 1 -1.1104 6.50386 33.5642 3.76292
725 1 -1.1104 6.74219 33.6329 0.960605
724 1 -1.1104 6.84515 30.7536 3.86013
726 2 2.2208 10.9333 34.8583 5.14049
727 1 -1.1104 12.3445 30.8656 0.968956
728 1 -1.1104 12.3991 36.4165 1.11939
729 1 -1.1104 12.4929 30.8105 3.71799
730 1 -1.1104 12.3992 36.4044 3.88728
731 1 -1.1104 12.4646 33.7202 0.960846
732 2 2.2208 10.9531 32.0811 2.43479
733 2 2.2208 10.9634 37.7068 2.3818
734 1 -1.1104 12.2441 33.4893 3.82786
735 1 -1.1104 9.52951 30.8483 1.03817
736 1 -1.1104 9.61408 36.3394 0.945398
737 2 2.2208 8.11263 34.95 2.32133
738 1 -1.1104 9.5899 30.8079 3.78423
739 1 -1.1104 9.52532 36.2551 3.78884
740 2 2.2208 8.05774 32.2518 5.17744
741 2 2.2208 8.25441 37.8736 5.1679
742 1 -1.1104 9.64845 33.5665 1.05568
743 1 -1.1104 9.54616 33.5097 3.77268