ITEM: TIMESTEP
20000
ITEM: NUMBER OF ATOMS
17730
ITEM: BOX BOUNDS pp pp pp
-3.5418476353537870e-01 2.7694184763535198e+01
-4.2476296034061169e+00 3.3232762960341080e+02
-3.6565328062179514e-01 2.7705653280621384e+01
ITEM: ATOMS id type q x y z
1 2 2.2208 5.27865 1.26875 5.09416
2 1 -1.1104 1.08124 -2.8719 1.14478
3 1 -1.1104 1.03812 2.64201 0.855289
6 1 -1.1104 1.07151 -2.81765 3.79187
7 1 -1.1104 1.07919 2.71351 3.92332
10 1 -1.1104 1.17915 -0.169005 1.10937
12 2 2.2208 5.27837 -1.63471 2.41133
13 2 2.2208 5.3462 4.11889 2.47804
14 1 -1.1104 1.13687 -0.122813 3.88942
16 1 -1.1104 3.92823 -2.92439 0.981083
17 1 -1.1104 3.83282 2.84846 1.04696
18 2 2.2208 2.52162 1.31848 2.41151
19 1 -1.1104 3.89249 -2.89941 3.88217
20 1 -1.1104 3.86737 2.63956 3.81473
21 2 2.2208 2.5637 -1.49081 5.27342
22 2 2.2208 2.49544 4.10198 5.27172
23 1 -1.1104 4.05108 -0.112205 1.18142
24 1 -1.1104 3.94414 -0.229375 3.84278
8903 2 2.2208 -0.369614 -4.29538 10.8202
8883 2 2.2208 -0.279154 4.01623 2.46139
9 1 -1.1104 6.60438 2.71448 3.80344
15 1 -1.1104 6.62885 -0.117789 3.73051
170 1 -1.1104 1.03594 -0.0131335 6.75386
172 1 -1.1104 3.98533 -2.9815 6.62219
174 1 -1.1104 3.85381 -0.184746 6.64372
8882 2 2.2208 -0.331491 1.20942 5.2796
8888 2 2.2208 -0.346493 7.10655 5.30756
11 1 -1.1104 6.73516 -0.132824 1.02561
5 1 -1.1104 6.83168 2.77397 1.00455
4 1 -1.1104 6.5884 -3.03685 0.994194
8 1 -1.1104 6.70983 -3.09016 3.71023
31 2 2.2208 10.8386 1.30296 5.21163
32 1 -1.1104 12.2432 -2.93571 1.07747
33 1 -1.1104 12.4701 2.71433 0.938183
34 1 -1.1104 12.2526 -2.76409 4.01293
35 1 -1.1104 12.2857 2.621 3.69252
36 1 -1.1104 12.2566 -0.199326 0.952283
37 2 2.2208 10.8081 -1.61264 2.50316
38 2 2.2208 10.8973 4.0639 2.40183
39 1 -1.1104 12.2839 0.0199324 3.90909
40 1 -1.1104 9.34805 -2.93836 1.03599
41 1 -1.1104 9.73831 2.80088 0.90682
42 2 2.2208 8.02981 1.40551 2.45497
43 1 -1.1104 9.4851 -2.91118 3.80255
44 1 -1.1104 9.41617 2.68971 3.9674
45 2 2.2208 7.84916 -1.52533 5.28718
46 2 2.2208 8.04095 4.1713 5.20728
47 1 -1.1104 9.47282 -0.0411952 1.05152
48 1 -1.1104 9.31345 -0.00860158 3.84015
168 1 -1.1104 6.61853 -2.8849 6.74009
209 1 -1.1104 9.57306 2.78137 6.76396
210 1 -1.1104 9.48538 -0.167595 6.57932
328 2 2.2208 8.11515 18.251 13.5899
118 1 -1.1104 6.80462 16.7245 6.72675
27 1 -1.1104 12.3849 19.5617 12.2817
208 1 -1.1104 9.31367 -2.91067 6.60467
8580 2 2.2208 13.8461 3.97819 5.08103
54 2 2.2208 5.21234 6.98814 5.1707
55 2 2.2208 5.29069 12.4683 5.15462
56 1 -1.1104 1.18377 8.37114 0.955949
58 1 -1.1104 1.05607 8.44559 3.95732
60 1 -1.1104 1.08722 5.44586 1.12828
61 1 -1.1104 1.07748 11.1844 1.07926
66 2 2.2208 5.38971 9.72873 2.35619
67 1 -1.1104 1.15033 5.52142 3.83938
68 1 -1.1104 1.15357 11.1579 3.78223
71 1 -1.1104 3.87574 8.30515 1.14626
72 2 2.2208 2.41171 6.95013 2.51033
73 2 2.2208 2.64019 12.591 2.4584
74 1 -1.1104 3.86074 8.32624 3.78387
75 2 2.2208 2.4788 9.91968 5.2156
76 1 -1.1104 3.80943 5.7031 1.01386
77 1 -1.1104 3.87208 11.0869 0.920174
79 1 -1.1104 3.85084 5.42988 3.79662
80 1 -1.1104 3.81755 11.0595 3.80617
8890 2 2.2208 -0.171218 12.497 5.10961
82 1 -1.1104 12.281 16.651 9.56851
234 1 -1.1104 1.16394 8.47053 6.85209
237 1 -1.1104 6.76567 5.59108 6.5046
69 1 -1.1104 6.59221 5.54121 3.86338
236 1 -1.1104 1.12766 5.5122 6.71203
78 1 -1.1104 3.85565 11.2271 6.67511
64 1 -1.1104 6.6891 11.0377 1.11488
70 1 -1.1104 6.63996 11.0877 3.87184
63 1 -1.1104 6.7382 5.5434 1.01364
57 1 -1.1104 6.83824 8.22188 0.945959
59 1 -1.1104 6.75616 8.31677 3.71682
84 2 2.2208 10.9741 6.94403 5.09336
85 2 2.2208 10.8555 12.7 5.01272
86 1 -1.1104 12.3129 8.30685 1.14749
87 1 -1.1104 12.4005 8.36359 3.94637
88 1 -1.1104 12.3746 5.48211 1.09021
89 1 -1.1104 12.3243 11.2046 0.928463
91 2 2.2208 10.8724 9.87048 2.4201
92 1 -1.1104 12.3023 5.36806 3.83165
93 1 -1.1104 12.1641 11.2227 3.74112
94 1 -1.1104 9.41755 8.51238 0.991707
95 2 2.2208 8.13155 7.01285 2.4399
96 2 2.2208 7.97471 12.551 2.43923
97 1 -1.1104 9.63684 8.31422 3.72334
98 2 2.2208 8.07472 9.73497 5.17243
99 1 -1.1104 9.61882 5.82421 1.03916
100 1 -1.1104 9.37912 11.248 0.945272
102 1 -1.1104 9.39171 5.52953 3.74953
103 1 -1.1104 9.4144 11.1722 3.77186
266 1 -1.1104 12.4518 5.558 6.54852
269 1 -1.1104 9.59135 5.56596 6.71995
289 1 -1.1104 6.605 16.786 9.37845
8902 2 2.2208 -0.261593 21.1225 8.0012
235 1 -1.1104 6.41547 8.27425 6.65345
267 1 -1.1104 9.42005 8.36494 6.33834
8885 2 2.2208 13.6738 1.30651 2.37579
8895 2 2.2208 -0.253568 18.1826 5.10526
106 2 2.2208 5.25787 18.0248 5.19102
107 1 -1.1104 1.04407 13.9477 0.892057
109 1 -1.1104 1.00955 19.565 0.991756
113 1 -1.1104 1.06443 14.0571 3.71564
114 1 -1.1104 1.14019 19.5821 3.7631
116 1 -1.1104 1.03117 16.8514 0.986926
119 2 2.2208 5.33388 15.3381 2.42127
120 2 2.2208 5.20139 20.9959 2.4365
121 1 -1.1104 1.0804 16.7698 3.64589
123 1 -1.1104 3.84567 14.1149 1.20001
125 1 -1.1104 3.71933 19.5704 0.996659
127 2 2.2208 2.49719 18.1224 2.41567
128 1 -1.1104 3.98756 13.9522 3.79173
129 1 -1.1104 3.96576 19.5011 3.66921
130 2 2.2208 2.52345 15.344 5.1635
131 2 2.2208 2.60983 21.0291 5.21605
132 1 -1.1104 3.92296 16.8453 1.07277
134 1 -1.1104 3.94195 16.5752 3.92602
8894 2 2.2208 -0.343874 21.0155 2.30514
122 1 -1.1104 6.82632 16.6921 3.85215
115 1 -1.1104 6.62163 13.9978 3.72653
302 1 -1.1104 1.15267 19.6749 6.42816
124 1 -1.1104 3.99686 13.9454 6.44902
8893 2 2.2208 -0.310568 15.4333 2.35792
126 1 -1.1104 3.85388 19.5025 6.516
133 1 -1.1104 3.94075 16.6892 6.57723
49 1 -1.1104 12.3418 19.6481 9.4488
8896 2 2.2208 13.6151 18.2153 2.31851
139 1 -1.1104 6.70286 19.6074 3.85556
110 1 -1.1104 6.63783 13.8855 0.986529
136 1 -1.1104 9.45747 19.7541 9.37604
140 1 -1.1104 6.70396 16.8434 0.991434
138 1 -1.1104 6.63443 19.7446 1.06787
141 2 2.2208 10.9974 18.236 5.25718
142 1 -1.1104 12.2019 13.935 1.11287
144 1 -1.1104 12.1666 19.5421 1.0371
146 1 -1.1104 12.0368 14.0176 3.7081
147 1 -1.1104 12.3195 19.4368 3.79732
148 1 -1.1104 12.1876 16.7842 1.05709
150 2 2.2208 10.7708 15.4391 2.36968
151 2 2.2208 10.8632 21.01 2.51918
152 1 -1.1104 12.2288 16.8023 3.85396
153 1 -1.1104 9.30288 13.8893 0.854854
155 1 -1.1104 9.28449 19.5976 1.08237
157 2 2.2208 8.13122 18.1888 2.48345
158 1 -1.1104 9.3146 14.0404 3.74765
159 1 -1.1104 9.64341 19.5695 3.82883
160 2 2.2208 8.0631 15.3432 5.2828
161 2 2.2208 8.2672 20.8848 5.26637
162 1 -1.1104 9.41672 16.7577 0.932498
164 1 -1.1104 9.48382 16.8006 3.81617
163 1 -1.1104 9.54793 16.8002 6.73499
8901 2 2.2208 -0.302318 18.2534 10.8577
308 2 2.2208 8.04387 21.0606 -0.281047
8934 2 2.2208 -0.337099 -1.50229 13.718
166 1 -1.1104 1.15379 -2.74909 6.59146
167 1 -1.1104 1.24654 2.83202 6.74142
173 1 -1.1104 3.92827 2.52616 6.59022
8897 2 2.2208 -0.282904 4.22214 8.02827
175 2 2.2208 5.318 1.37251 10.9939
176 1 -1.1104 1.0697 -2.91094 12.1901
177 1 -1.1104 1.19068 2.83097 12.4452
180 1 -1.1104 1.04309 -2.75112 9.40816
181 1 -1.1104 1.25004 2.74411 9.49193
184 1 -1.1104 1.08783 -0.016066 12.3672
186 2 2.2208 5.33114 -1.4361 8.17604
187 2 2.2208 5.20604 3.98202 7.98688
188 1 -1.1104 1.20227 -0.0343622 9.4718
190 1 -1.1104 3.70352 -2.87708 12.3083
191 1 -1.1104 3.9501 2.73922 12.4043
192 2 2.2208 2.59799 1.22406 8.12407
193 1 -1.1104 3.84763 -2.82445 9.65044
194 1 -1.1104 3.94346 2.66885 9.35273
195 2 2.2208 2.35592 -1.43262 11.0005
196 2 2.2208 2.57261 4.12922 10.9406
197 1 -1.1104 3.753 0.0330686 12.2426
198 1 -1.1104 4.02582 -0.033044 9.53316
8898 2 2.2208 -0.139856 -1.41611 8.0326
310 2 2.2208 5.31119 -1.45648 13.6707
338 2 2.2208 10.88 1.30058 -0.436195
171 1 -1.1104 6.6024 -0.0380216 6.70981
169 1 -1.1104 6.78923 2.78913 6.64387
178 1 -1.1104 6.63527 -2.80719 12.2273
137 2 2.2208 7.91343 15.396 10.6808
8921 2 2.2208 -0.338399 4.21035 13.7353
8810 2 2.2208 -0.382046 6.91428 10.9068
50 1 -1.1104 12.3644 16.757 12.3911
205 1 -1.1104 12.1612 -2.90912 6.75639
206 1 -1.1104 12.354 2.82782 6.55962
81 2 2.2208 10.9614 20.9269 8.035
183 1 -1.1104 6.57501 2.84638 9.52555
207 1 -1.1104 12.2295 0.118262 6.80574
179 1 -1.1104 6.61495 2.92094 12.3314
189 1 -1.1104 6.78795 -0.110971 9.63196
185 1 -1.1104 6.57662 0.0570923 12.3721
182 1 -1.1104 6.69826 -2.86837 9.48194
211 2 2.2208 10.7971 1.23479 10.8764
212 1 -1.1104 12.196 -2.92841 12.3241
213 1 -1.1104 12.2474 2.48763 12.2432
214 1 -1.1104 12.0971 -2.87669 9.43027
215 1 -1.1104 12.2182 2.78367 9.51261
216 1 -1.1104 12.3076 -0.191621 12.0572
217 2 2.2208 10.826 -1.42296 8.02035
218 2 2.2208 11.0619 4.15367 8.00658
219 1 -1.1104 12.2644 -0.0687536 9.45403
220 1 -1.1104 9.37837 -2.70415 12.2518
221 1 -1.1104 9.42584 2.75045 12.458
222 2 2.2208 8.11044 1.31379 8.19434
223 1 -1.1104 9.49199 -2.9062 9.48883
224 1 -1.1104 9.33983 2.71924 9.5447
225 2 2.2208 8.03027 -1.45167 10.8339
226 2 2.2208 8.07017 4.24471 10.9306
227 1 -1.1104 9.40965 -0.0613244 12.1786
228 1 -1.1104 9.39909 -0.242964 9.35833
315 2 2.2208 10.9932 -1.49371 13.6605
314 2 2.2208 8.1457 1.39101 13.7199
65 1 -1.1104 6.69259 11.0167 6.5752
8802 2 2.2208 -0.314893 12.6023 10.9581
239 1 -1.1104 3.99276 5.38209 6.763
62 1 -1.1104 1.06729 11.234 6.60469
8809 2 2.2208 -0.302002 9.80378 8.08991
238 1 -1.1104 3.81977 8.21453 6.51172
240 2 2.2208 5.31143 6.92461 10.8672
241 2 2.2208 5.25689 12.5148 10.8304
242 1 -1.1104 0.870808 8.42377 12.2929
244 1 -1.1104 1.10495 8.3359 9.50174
246 1 -1.1104 0.954734 5.50971 12.2881
247 1 -1.1104 1.09181 11.1821 12.3563
250 2 2.2208 5.20999 9.76813 7.98123
251 1 -1.1104 1.03619 5.63573 9.47467
252 1 -1.1104 1.12707 11.2733 9.6463
255 1 -1.1104 3.89632 8.17685 12.3714
256 2 2.2208 2.58857 6.96416 8.0037
257 2 2.2208 2.38297 12.5886 8.04372
258 1 -1.1104 3.76 8.33524 9.51304
259 2 2.2208 2.36984 9.74997 10.9539
260 1 -1.1104 3.85443 5.36794 12.3597
261 1 -1.1104 3.96805 11.098 12.1981
262 1 -1.1104 3.77014 5.58685 9.6234
263 1 -1.1104 3.78329 11.1844 9.50348
249 1 -1.1104 6.6536 11.1759 12.2284
245 1 -1.1104 6.66639 8.29396 9.456
8939 2 2.2208 13.5924 15.3942 -0.347005
317 2 2.2208 2.42423 6.82948 13.733
101 1 -1.1104 9.51449 11.1947 6.5453
265 1 -1.1104 12.4111 8.49254 6.62236
253 1 -1.1104 6.76283 5.60936 9.49524
90 1 -1.1104 12.2597 11.3203 6.56873
248 1 -1.1104 6.58507 5.63289 12.2841
243 1 -1.1104 6.72913 8.45744 12.2256
254 1 -1.1104 6.64762 11.1469 9.39768
264 1 -1.1104 9.50985 11.1371 9.33295
268 1 -1.1104 9.49129 5.53676 9.39021
270 1 -1.1104 9.56701 11.2626 12.163
271 1 -1.1104 9.3177 5.80517 12.2315
272 2 2.2208 8.07474 9.82139 10.7587
273 1 -1.1104 9.45914 8.30018 9.21736
274 2 2.2208 8.12703 12.4513 7.96215
275 2 2.2208 7.98851 6.87554 7.8646
276 2 2.2208 10.873 6.99656 10.6861
277 2 2.2208 10.9428 12.5168 10.7832
278 1 -1.1104 12.3658 8.32711 12.2414
279 1 -1.1104 12.3953 8.35204 9.33947
280 1 -1.1104 12.1837 5.43581 12.2732
281 1 -1.1104 12.2526 11.0545 12.1922
282 2 2.2208 10.9203 9.74298 8.03879
283 1 -1.1104 12.2096 5.57655 9.44848
284 1 -1.1104 12.3364 11.2239 9.39584
285 1 -1.1104 9.57558 8.48293 12.131
8792 2 2.2208 13.5956 12.6377 7.89988
8918 2 2.2208 -0.325524 12.4442 -0.369784
311 2 2.2208 2.55246 1.33932 13.7224
8946 2 2.2208 -0.238239 15.3682 13.7032
290 1 -1.1104 6.65179 13.9639 9.39841
233 1 -1.1104 6.69049 16.8197 12.0944
323 2 2.2208 2.57342 18.3605 13.6305
325 2 2.2208 5.27365 15.4157 13.5706
117 1 -1.1104 1.1005 16.7824 6.53625
108 1 -1.1104 1.12876 14.0283 6.55356
305 1 -1.1104 3.78841 14.0554 9.2806
304 1 -1.1104 3.79339 16.8742 9.41238
303 2 2.2208 2.40833 18.1678 8.01227
301 1 -1.1104 3.86998 19.5941 9.36732
300 2 2.2208 5.24317 18.2011 10.6555
201 2 2.2208 2.4654 15.4247 10.9036
204 2 2.2208 2.76544 21.1343 10.7085
229 1 -1.1104 3.84355 16.8211 12.2082
230 1 -1.1104 1.19633 16.7761 12.3086
286 1 -1.1104 4.01639 19.6323 12.116
287 1 -1.1104 3.92501 14.0548 12.1547
291 1 -1.1104 1.07233 19.7064 9.35575
292 1 -1.1104 1.11259 16.7576 9.44374
293 2 2.2208 5.36425 20.9667 7.88401
294 1 -1.1104 0.882906 13.9918 9.41169
295 2 2.2208 5.25997 15.3201 7.92783
298 1 -1.1104 1.27424 19.6364 12.2729
299 1 -1.1104 1.08326 14.0065 12.4003
112 1 -1.1104 6.69378 19.4194 6.60235
296 1 -1.1104 6.76793 19.592 12.1871
104 1 -1.1104 9.56031 19.583 12.1317
8889 2 2.2208 -0.245889 9.70856 2.39436
199 1 -1.1104 9.61332 16.9445 12.54
111 1 -1.1104 6.7796 13.8465 6.59854
30 1 -1.1104 12.2261 13.975 9.26733
297 1 -1.1104 6.57715 14.0968 12.1347
25 2 2.2208 10.9822 18.1595 11.0162
105 2 2.2208 8.11113 18.1864 8.06449
26 1 -1.1104 12.2942 13.8712 12.269
83 1 -1.1104 9.52637 14.0048 12.1577
200 1 -1.1104 9.41098 16.9275 9.53708
145 1 -1.1104 12.3768 19.6499 6.68352
149 1 -1.1104 12.401 16.8527 6.77163
156 1 -1.1104 9.58643 19.6009 6.60378
143 1 -1.1104 12.2205 14.0986 6.40766
154 1 -1.1104 9.52221 13.8831 6.58148
165 2 2.2208 8.15015 21.0475 10.8424
135 1 -1.1104 9.42785 14.0447 9.4308
288 1 -1.1104 6.73817 19.5383 9.43678
53 2 2.2208 10.8537 15.5132 8.17173
324 2 2.2208 5.41012 20.9942 13.7324
8947 2 2.2208 -0.138118 21.0054 13.6743
337 2 2.2208 5.33971 -4.38207 -0.501186
322 2 2.2208 8.09361 12.5238 13.7166
321 2 2.2208 10.9194 9.72174 13.6083
8926 2 2.2208 13.7305 12.5288 13.5468
312 2 2.2208 5.28293 4.20822 13.7571
339 2 2.2208 8.08747 -1.52092 -0.336109
8930 2 2.2208 13.7582 18.0384 13.8222
307 2 2.2208 10.6983 18.148 -0.376842
344 2 2.2208 5.24849 12.6184 -0.492829
306 2 2.2208 7.97698 15.4117 -0.501462
346 2 2.2208 5.30654 1.32796 16.4663
347 1 -1.1104 1.16812 -2.73941 17.9773
348 1 -1.1104 0.946144 2.79537 17.8625
351 1 -1.1104 1.10013 -2.91046 15.1039
353 1 -1.1104 1.14553 2.69405 15.267
359 1 -1.1104 1.1463 -0.0491322 18.0219
361 2 2.2208 5.27613 -1.49746 19.2991
362 2 2.2208 5.326 4.11425 19.3089
363 1 -1.1104 1.21098 -0.019882 15.1461
367 1 -1.1104 3.86961 -2.81607 17.8199
368 1 -1.1104 3.76751 2.76116 18.0483
369 2 2.2208 2.31753 1.27808 19.3093
370 1 -1.1104 3.96838 -3.02823 15.1133
372 1 -1.1104 3.90618 2.84478 15.243
374 2 2.2208 2.51509 -1.43297 16.4153
375 2 2.2208 2.48564 4.10737 16.5916
376 1 -1.1104 3.81954 0.0462592 17.8585
377 1 -1.1104 4.06284 -0.114906 15.1106
371 1 -1.1104 4.05011 -2.89772 20.7094
360 1 -1.1104 6.57122 -0.06743 17.9048
373 1 -1.1104 3.78807 2.7011 20.7796
9111 2 2.2208 -0.442024 1.45103 16.5159
350 1 -1.1104 6.87116 2.55539 17.8395
364 1 -1.1104 1.05028 -0.0852195 20.8031
378 1 -1.1104 3.90525 -0.151116 20.7469
352 1 -1.1104 1.25124 -2.65871 20.5854
358 1 -1.1104 6.67309 2.78218 20.6667
608 2 2.2208 10.9557 -4.37123 22.0484
418 1 -1.1104 12.257 14.0631 26.2864
349 1 -1.1104 6.66736 -2.81256 17.8873
365 1 -1.1104 6.73794 0.0161233 15.0229
355 1 -1.1104 6.67617 -2.85452 15.0997
357 1 -1.1104 6.66457 2.81489 15.0404
389 2 2.2208 10.976 1.36421 16.4875
390 1 -1.1104 12.1118 -2.80185 18.0697
391 1 -1.1104 12.4235 2.59016 17.8274
392 1 -1.1104 12.322 -2.8671 15.177
394 1 -1.1104 12.2609 2.69271 15.0935
396 1 -1.1104 12.3067 -0.193835 17.753
397 2 2.2208 10.8338 -1.47488 19.3402
398 2 2.2208 10.7676 4.25922 19.2916
399 1 -1.1104 12.479 -0.209071 14.965
401 1 -1.1104 9.47301 -2.83681 17.9444
402 1 -1.1104 9.602 2.75687 17.8242
403 2 2.2208 8.06685 1.3308 19.2573
404 1 -1.1104 9.57996 -2.82481 14.9292
406 1 -1.1104 9.41673 2.71411 15.1567
408 2 2.2208 8.08799 -1.31974 16.4472
409 2 2.2208 8.11177 4.12843 16.4228
410 1 -1.1104 9.4294 -0.00586143 17.9098
411 1 -1.1104 9.83551 -0.0498728 15.0805
400 1 -1.1104 12.2343 -0.0783479 20.5512
412 1 -1.1104 9.47264 0.00208079 20.6722
405 1 -1.1104 9.58248 -2.9834 20.7959
407 1 -1.1104 9.53285 2.64191 20.6452
366 1 -1.1104 6.66866 0.0420186 20.6996
8993 2 2.2208 13.7199 4.03832 16.5852
548 1 -1.1104 12.3489 19.5181 26.3498
9109 2 2.2208 -0.415345 7.07101 16.4673
580 2 2.2208 2.57016 -4.30113 24.8569
9074 2 2.2208 -0.252121 12.6802 16.4527
422 2 2.2208 5.22804 6.95207 16.3458
423 2 2.2208 5.35308 12.4695 16.4907
424 1 -1.1104 0.957805 8.405 17.8539
426 1 -1.1104 0.941499 8.40012 15.0391
430 1 -1.1104 1.0098 5.58465 17.8257
431 1 -1.1104 1.06845 11.1573 17.8868
434 2 2.2208 5.23407 9.63275 19.2344
435 1 -1.1104 1.07014 5.50545 15.2245
437 1 -1.1104 1.05495 11.2257 15.042
443 1 -1.1104 3.74155 8.31748 17.8267
444 2 2.2208 2.56236 6.85594 19.2514
445 2 2.2208 2.51587 12.7131 19.2451
446 1 -1.1104 3.76282 8.23378 15.0597
448 2 2.2208 2.35242 9.7459 16.461
449 1 -1.1104 3.90298 5.48731 17.9086
450 1 -1.1104 3.7307 11.0003 17.8864
451 1 -1.1104 3.81879 5.57771 14.9949
453 1 -1.1104 3.8722 11.0634 15.0491
427 1 -1.1104 1.06854 8.33937 20.7577
438 1 -1.1104 1.26111 11.2347 20.6921
439 1 -1.1104 6.65454 5.58946 15.093
425 1 -1.1104 6.68821 8.27335 17.8379
441 1 -1.1104 6.75648 11.208 15.0302
436 1 -1.1104 1.13502 5.58507 20.6089
452 1 -1.1104 3.97987 5.61944 20.5434
440 1 -1.1104 6.68041 5.57446 20.674
380 2 2.2208 5.34946 -4.38442 16.4113
381 2 2.2208 2.45643 -4.24679 19.283
583 1 -1.1104 9.53758 13.9473 23.5835
384 2 2.2208 10.9472 18.1734 22.1544
432 1 -1.1104 6.71891 5.49967 18.0232
433 1 -1.1104 6.66907 11.0896 17.8092
428 1 -1.1104 6.59107 8.40035 15.124
458 2 2.2208 10.9029 6.84293 16.4663
459 2 2.2208 10.8777 12.5494 16.3509
460 1 -1.1104 12.2262 8.21203 17.9626
461 1 -1.1104 12.1933 8.20551 15.1009
463 1 -1.1104 12.2257 5.50721 17.8211
464 1 -1.1104 12.1872 11.0542 17.8365
465 2 2.2208 10.8503 9.76221 19.2015
466 1 -1.1104 12.4843 5.5609 15.251
468 1 -1.1104 12.3907 11.1014 14.9617
470 1 -1.1104 9.55766 8.34892 17.7735
471 2 2.2208 8.04359 6.95952 19.3049
472 2 2.2208 8.12815 12.6112 19.2635
473 1 -1.1104 9.41081 8.36612 14.9873
475 2 2.2208 8.06512 9.6855 16.52
476 1 -1.1104 9.42618 5.42296 17.8175
477 1 -1.1104 9.43763 11.0868 17.7028
478 1 -1.1104 9.75053 5.45442 15.1272
480 1 -1.1104 9.41175 11.1552 15.0643
442 1 -1.1104 6.72622 11.1585 20.6361
474 1 -1.1104 9.60214 8.31093 20.607
429 1 -1.1104 6.72297 8.40654 20.5606
612 1 -1.1104 9.48665 19.5225 26.2818
485 2 2.2208 5.3552 18.1084 16.4363
486 1 -1.1104 1.19428 13.9347 17.9899
487 1 -1.1104 1.04285 19.5311 17.8989
490 1 -1.1104 1.28782 14.0081 15.1323
492 1 -1.1104 1.17506 19.5946 15.107
498 1 -1.1104 1.07695 16.7557 17.812
500 2 2.2208 5.36806 15.4677 19.2621
501 2 2.2208 5.3417 20.9155 19.3285
502 1 -1.1104 1.38769 16.8205 15.009
506 1 -1.1104 4.05583 13.8892 17.8023
507 1 -1.1104 3.9986 19.5263 18.006
508 2 2.2208 2.53172 18.1496 19.3343
509 1 -1.1104 4.00679 13.8765 14.9423
511 1 -1.1104 4.09331 19.5697 15.0221
513 2 2.2208 2.55434 15.4649 16.4402
514 2 2.2208 2.67354 21.0203 16.6308
515 1 -1.1104 3.83926 16.8977 17.9578
516 1 -1.1104 4.06908 16.7704 15.1144
9179 2 2.2208 -0.257748 15.4151 19.2349
576 1 -1.1104 12.3336 16.6237 23.3689
496 1 -1.1104 6.94807 19.4661 15.1782
489 1 -1.1104 6.71933 19.5366 17.8434
504 1 -1.1104 6.7469 16.7914 14.878
503 1 -1.1104 1.06763 16.831 20.7623
512 1 -1.1104 3.90276 19.531 20.79
495 1 -1.1104 6.74785 13.9404 20.6058
494 1 -1.1104 6.6928 13.9843 14.9714
499 1 -1.1104 6.6927 16.6936 17.8953
488 1 -1.1104 6.82537 13.9029 17.7903
521 2 2.2208 10.9131 18.1745 16.611
522 1 -1.1104 12.3941 13.7794 17.9034
523 1 -1.1104 12.4628 19.6286 17.9526
524 1 -1.1104 12.4145 13.9755 15.1019
526 1 -1.1104 12.2745 19.6346 15.127
528 1 -1.1104 12.2529 16.705 17.8621
529 2 2.2208 10.9241 15.3169 19.1967
530 2 2.2208 10.8835 20.901 19.3515
531 1 -1.1104 12.25 16.8546 15.0647
533 1 -1.1104 9.60935 13.7907 17.8354
534 1 -1.1104 9.55459 19.5474 17.8943
535 2 2.2208 8.11663 18.0662 19.3568
536 1 -1.1104 9.57122 13.9658 15.1004
538 1 -1.1104 9.58016 19.6126 15.1069
540 2 2.2208 8.0141 15.3394 16.3311
541 2 2.2208 8.20528 20.9414 16.4785
542 1 -1.1104 9.48899 16.8736 18.0038
543 1 -1.1104 9.59188 16.7025 15.228
527 1 -1.1104 12.2201 19.5153 20.5803
537 1 -1.1104 9.48582 14.1064 20.6877
544 1 -1.1104 9.6143 16.7583 20.7625
611 1 -1.1104 9.31872 13.9984 26.2897
327 2 2.2208 10.8498 15.3515 13.6565
356 1 -1.1104 6.85287 -2.69085 20.5663
9065 2 2.2208 -0.338408 4.1632 24.9829
354 1 -1.1104 1.13902 2.78086 20.7255
549 2 2.2208 5.30591 1.31498 22.1804
550 1 -1.1104 1.0956 -2.93053 23.4836
551 1 -1.1104 0.930117 2.74913 23.472
554 1 -1.1104 1.22184 -2.79255 26.2124
555 1 -1.1104 1.20663 2.7977 26.2302
558 1 -1.1104 1.06241 0.0561072 23.6723
560 2 2.2208 5.27218 -1.45843 24.8856
561 2 2.2208 5.3529 4.05239 24.852
562 1 -1.1104 1.05671 -0.0472239 26.4452
564 1 -1.1104 3.81698 -2.94319 23.3823
565 1 -1.1104 3.84775 2.67741 23.553
566 2 2.2208 2.42131 1.41468 24.9367
567 1 -1.1104 3.88668 -3.0205 26.2116
568 1 -1.1104 4.05063 2.71883 26.431
569 2 2.2208 2.48797 -1.43486 22.1035
570 2 2.2208 2.3753 4.15743 22.068
571 1 -1.1104 3.84612 -0.0411603 23.6119
572 1 -1.1104 3.69684 -0.174864 26.4006
9070 2 2.2208 -0.290696 -1.45154 24.8978
553 1 -1.1104 6.78153 2.75558 23.4439
641 2 2.2208 8.06783 20.9615 22.1021
9141 2 2.2208 -0.288906 -4.29928 16.5432
335 2 2.2208 2.44292 -1.58272 27.8264
329 2 2.2208 5.40974 1.42344 27.7431
9178 2 2.2208 -0.366847 20.9591 19.3135
9180 2 2.2208 -0.170104 18.2026 16.5584
556 1 -1.1104 6.67767 -2.84387 26.4034
395 1 -1.1104 12.3042 2.76407 20.5942
393 1 -1.1104 12.3856 -2.84002 20.8369
552 1 -1.1104 6.50612 -2.76406 23.3991
563 1 -1.1104 6.67191 -0.117531 26.2521
557 1 -1.1104 6.80554 2.67718 26.2841
559 1 -1.1104 6.84566 -0.0181632 23.4651
585 2 2.2208 10.8475 1.43173 22.0106
586 1 -1.1104 12.3388 -3.04309 23.5272
587 1 -1.1104 12.4313 2.63982 23.3404
588 1 -1.1104 12.3912 -3.00547 26.3497
589 1 -1.1104 12.3945 2.78076 26.3519
590 1 -1.1104 12.4488 -0.0443005 23.3601
591 2 2.2208 10.976 -1.46484 24.8261
592 2 2.2208 10.9656 4.20192 24.9168
593 1 -1.1104 12.4151 -0.0612037 26.1584
594 1 -1.1104 9.48616 -2.83988 23.5691
595 1 -1.1104 9.49209 2.68106 23.46
596 2 2.2208 8.08948 1.40932 24.9129
597 1 -1.1104 9.58096 -2.9609 26.3375
598 1 -1.1104 9.54598 2.84986 26.3573
599 2 2.2208 8.09866 -1.42003 22.1119
600 2 2.2208 8.08526 4.15782 22.0247
601 1 -1.1104 9.57748 -0.149958 23.6746
602 1 -1.1104 9.6087 -0.0151614 26.3445
9139 2 2.2208 13.8617 18.2259 19.255
340 2 2.2208 8.17789 4.28225 27.642
643 1 -1.1104 9.40053 16.7404 26.1477
532 1 -1.1104 12.3851 16.637 20.5918
9036 2 2.2208 -0.410541 4.2342 19.2364
454 1 -1.1104 3.97054 11.081 20.8481
447 1 -1.1104 3.82257 8.38388 20.6392
9287 2 2.2208 -0.328114 6.95872 22.085
614 2 2.2208 5.26993 6.90006 22.0642
615 2 2.2208 5.30021 12.5149 22.0459
616 1 -1.1104 1.20438 8.33127 23.517
618 1 -1.1104 0.992814 8.35405 26.2555
620 1 -1.1104 1.03315 5.5774 23.3343
621 1 -1.1104 0.932716 11.0044 23.5151
624 2 2.2208 5.39824 9.70453 24.8526
625 1 -1.1104 1.05688 5.58047 26.2094
626 1 -1.1104 1.02333 11.0655 26.3847
629 1 -1.1104 4.15055 8.27342 23.3957
630 2 2.2208 2.39718 6.83732 24.8866
631 2 2.2208 2.38665 12.3983 24.9808
632 1 -1.1104 3.96663 8.42775 26.3595
633 2 2.2208 2.4568 9.8079 22.097
634 1 -1.1104 3.75848 5.51019 23.4648
635 1 -1.1104 3.78911 11.2906 23.523
636 1 -1.1104 3.9273 5.47402 26.4145
637 1 -1.1104 3.89706 11.198 26.2737
9035 2 2.2208 -0.372167 12.661 21.9943
619 1 -1.1104 6.74368 8.38694 26.2523
628 1 -1.1104 6.55403 11.2369 26.2857
342 2 2.2208 5.2516 6.86968 27.7275
539 1 -1.1104 9.41334 19.4515 20.7667
9110 2 2.2208 -0.261612 -1.431 19.3241
582 1 -1.1104 12.1134 16.7036 26.2458
469 1 -1.1104 12.2794 11.0051 20.7716
481 1 -1.1104 9.48269 11.3344 20.6285
467 1 -1.1104 12.3015 5.4958 20.7311
584 1 -1.1104 9.53489 19.621 23.5777
622 1 -1.1104 6.61929 5.62409 23.4878
462 1 -1.1104 12.2408 8.29435 20.8306
617 1 -1.1104 6.96409 8.46024 23.5337
627 1 -1.1104 6.69625 5.61565 26.128
479 1 -1.1104 9.40302 5.47707 20.6854
623 1 -1.1104 6.59434 11.198 23.4781
573 1 -1.1104 9.46218 8.38971 23.3918
574 1 -1.1104 12.2222 11.2997 26.3737
575 1 -1.1104 12.1934 5.64136 26.4661
578 2 2.2208 10.8331 9.82851 24.9137
603 1 -1.1104 12.3237 11.2288 23.5828
604 1 -1.1104 12.1779 5.54725 23.6668
605 1 -1.1104 12.2112 8.44068 26.3067
607 1 -1.1104 12.3076 8.36923 23.5282
638 2 2.2208 10.9221 12.5307 22.0363
639 2 2.2208 10.8556 7.05899 22.1633
640 2 2.2208 8.16405 6.92229 24.9056
644 2 2.2208 8.06677 12.6304 24.8476
645 1 -1.1104 9.46772 11.1945 26.065
646 1 -1.1104 9.47954 5.68783 26.3059
647 1 -1.1104 9.35032 11.2074 23.377
648 1 -1.1104 9.37667 5.38699 23.5307
649 2 2.2208 7.96781 9.90981 21.9864
650 1 -1.1104 9.47673 8.46498 26.2575
8996 2 2.2208 -0.333955 15.229 24.9333
333 2 2.2208 8.07068 9.78709 27.732
519 1 -1.1104 6.51045 16.9639 26.363
413 1 -1.1104 12.2904 13.954 23.4295
525 1 -1.1104 12.3745 13.7109 20.7247
493 1 -1.1104 0.978561 19.5624 20.6762
491 1 -1.1104 1.0717 14.0051 20.7267
517 1 -1.1104 3.90337 16.7259 20.7605
510 1 -1.1104 3.95573 14.0321 20.7285
547 2 2.2208 2.56506 15.3326 22.1572
379 2 2.2208 2.50408 20.996 22.1165
382 1 -1.1104 3.93438 16.8684 23.6312
383 1 -1.1104 1.12521 16.5689 23.6087
386 1 -1.1104 3.74417 13.9778 26.3817
387 1 -1.1104 3.83899 16.8078 26.3356
388 2 2.2208 2.39639 18.2243 24.85
416 1 -1.1104 3.6987 19.5084 26.278
419 2 2.2208 5.20921 18.117 22.1498
420 1 -1.1104 1.12616 13.8607 23.4158
421 1 -1.1104 1.15517 19.5307 23.3809
456 2 2.2208 5.15463 15.5164 24.8601
457 2 2.2208 5.22342 20.934 25.0145
483 1 -1.1104 1.02087 13.8722 26.2138
484 1 -1.1104 1.05923 16.5901 26.4121
518 1 -1.1104 0.999344 19.5211 26.2783
520 1 -1.1104 3.86189 14.0744 23.4695
546 1 -1.1104 3.79086 19.5635 23.5516
417 1 -1.1104 12.2905 19.3256 23.4925
482 1 -1.1104 6.68463 19.653 23.4274
606 2 2.2208 7.92011 18.2037 24.8817
545 1 -1.1104 6.46276 14.2194 26.4103
581 2 2.2208 10.8573 20.9268 24.9634
610 1 -1.1104 6.66386 19.6504 26.3431
613 2 2.2208 8.12251 15.496 22.1706
577 2 2.2208 10.8881 15.3503 24.7673
455 1 -1.1104 6.60311 14.1679 23.4329
505 1 -1.1104 6.72398 16.6637 20.7382
642 1 -1.1104 9.58578 16.6794 23.5334
385 1 -1.1104 6.71272 16.8523 23.5991
497 1 -1.1104 6.63074 19.565 20.7825
326 2 2.2208 10.8718 20.8433 13.5577
334 2 2.2208 10.9055 7.09742 27.77
330 2 2.2208 2.41308 20.9832 27.669
331 2 2.2208 5.18402 18.3292 27.7548
8922 2 2.2208 13.7682 -1.50249 27.5603
319 2 2.2208 2.49851 12.5555 13.5815
336 2 2.2208 2.52967 4.21582 27.7086
320 2 2.2208 8.09287 7.12303 13.5882
318 2 2.2208 5.29845 9.68652 13.6009
345 2 2.2208 2.49375 15.3456 27.8095
316 2 2.2208 10.9809 4.09788 13.7381
332 2 2.2208 10.8152 12.6179 27.7232
343 2 2.2208 2.6154 9.69824 27.6603
651 2 2.2208 5.2476 23.7378 5.18063
652 2 2.2208 5.36555 29.4431 5.05164
653 1 -1.1104 0.936559 25.128 0.996116
654 1 -1.1104 1.12647 25.219 3.92696
655 1 -1.1104 1.11301 22.3536 1.0501
656 1 -1.1104 1.3144 27.8895 1.02708
657 2 2.2208 5.31232 26.5591 2.36913
658 1 -1.1104 1.04278 22.3057 3.84289
659 1 -1.1104 1.04898 27.9746 3.7755
660 1 -1.1104 3.76811 25.2788 0.994069
661 2 2.2208 2.38276 23.8319 2.42913
662 2 2.2208 2.46214 29.4687 2.38728
663 1 -1.1104 4.05568 25.098 3.80142
664 2 2.2208 2.47468 26.6787 5.21949
665 1 -1.1104 3.93563 22.3819 1.03213
666 1 -1.1104 3.99954 27.9018 0.994412
667 1 -1.1104 3.74417 22.394 3.76362
668 1 -1.1104 3.90979 28.0679 3.73398
674 1 -1.1104 6.70506 22.5342 1.10921
9626 2 2.2208 -0.361759 26.4525 2.52787
792 1 -1.1104 1.15934 25.3481 6.5663
795 1 -1.1104 1.05405 28.1049 6.55802
799 1 -1.1104 3.88022 22.4076 6.57817
676 1 -1.1104 6.67027 22.3754 3.87761
800 1 -1.1104 3.9427 28.0621 6.56187
798 1 -1.1104 3.85711 25.122 6.57772
794 1 -1.1104 1.1901 22.6475 6.63434
796 1 -1.1104 6.82372 22.3538 6.56483
1478 1 -1.1104 6.62893 47.4833 12.3933
9565 2 2.2208 -0.241619 35.0151 10.7894
675 1 -1.1104 6.85246 28.1558 0.903074
918 1 -1.1104 6.5735 39.271 12.1752
673 1 -1.1104 6.78589 25.2405 3.81732
672 1 -1.1104 6.82831 25.2725 0.966824
677 1 -1.1104 6.72607 27.9796 3.74064
678 2 2.2208 11.045 23.7603 5.21271
679 2 2.2208 10.7984 29.4111 5.31379
680 1 -1.1104 12.3396 25.0811 1.05065
681 1 -1.1104 12.4409 25.0781 3.88102
682 1 -1.1104 12.371 22.4187 1.05874
683 1 -1.1104 12.4081 27.999 1.03374
684 2 2.2208 10.9328 26.4944 2.35246
685 1 -1.1104 12.4284 22.3196 3.82664
686 1 -1.1104 12.1399 27.8803 3.79866
687 1 -1.1104 9.44664 25.1224 1.17914
688 2 2.2208 8.10123 23.8476 2.61852
689 2 2.2208 8.15285 29.3237 2.52128
690 1 -1.1104 9.58256 25.2309 3.87841
691 2 2.2208 8.08504 26.6392 5.25834
692 1 -1.1104 9.57082 22.4765 1.17595
693 1 -1.1104 9.62553 27.9266 1.17476
694 1 -1.1104 9.43449 22.3714 3.8291
695 1 -1.1104 9.46716 28.0508 3.87394
825 1 -1.1104 12.4258 25.1628 6.67477
826 1 -1.1104 12.3347 22.4082 6.64562
793 1 -1.1104 6.64195 25.1333 6.59995
928 1 -1.1104 6.63614 41.963 9.42312
827 1 -1.1104 12.2933 28.0376 6.67517
830 1 -1.1104 9.45316 28.125 6.76119
828 1 -1.1104 9.58782 25.1803 6.54027
9639 2 2.2208 -0.307376 37.806 7.99497
1503 1 -1.1104 12.2069 47.5582 6.7128
9521 2 2.2208 13.7712 35.089 7.91886
944 1 -1.1104 9.41677 39.1606 9.4415
699 2 2.2208 5.19777 35.0021 5.23903
700 1 -1.1104 1.15048 30.7171 1.06408
701 1 -1.1104 1.11999 36.3666 0.993604
703 1 -1.1104 1.1808 30.8793 3.80883
704 1 -1.1104 1.36212 36.3973 3.82734
706 1 -1.1104 1.15794 33.599 0.994702
707 2 2.2208 5.19253 32.1946 2.30506
708 2 2.2208 5.33133 37.7041 2.42464
709 1 -1.1104 1.0954 33.6732 3.72812
711 1 -1.1104 3.83803 30.8283 0.998618
712 1 -1.1104 3.9365 36.6138 1.03875
713 2 2.2208 2.64828 35.0428 2.41868
714 1 -1.1104 4.01067 30.7745 3.84279
715 1 -1.1104 3.96211 36.381 3.77485
716 2 2.2208 2.6369 32.1437 5.20768
717 2 2.2208 2.45266 37.8088 5.2675
718 1 -1.1104 3.92216 33.6103 0.8794
719 1 -1.1104 3.846 33.5974 3.79607
850 1 -1.1104 1.2332 36.5315 6.68099
724 1 -1.1104 6.78643 30.8902 3.74904
855 1 -1.1104 3.9032 30.6394 6.70096
9632 2 2.2208 -0.267095 37.8008 2.43384
9631 2 2.2208 -0.334561 32.2416 2.38268
705 1 -1.1104 6.73074 36.4962 3.76342
882 2 2.2208 7.82622 46.2277 7.92468
853 1 -1.1104 1.17085 33.6542 6.49677
857 1 -1.1104 3.92214 33.4132 6.47998
849 1 -1.1104 1.04505 30.8212 6.59924
856 1 -1.1104 3.83992 36.1806 6.59762
854 1 -1.1104 6.64964 33.6924 6.69653
852 1 -1.1104 6.6365 36.478 6.63911
942 1 -1.1104 9.43998 39.3147 12.1608
702 1 -1.1104 6.65628 36.2397 0.851348
851 1 -1.1104 6.74852 30.8488 6.61935
725 1 -1.1104 6.77219 33.7341 0.887117
710 1 -1.1104 6.4979 33.5377 3.89715
723 1 -1.1104 6.66916 30.7971 1.08074
726 2 2.2208 10.8179 35.1074 5.15675
727 1 -1.1104 12.0372 30.8935 1.17925
728 1 -1.1104 12.2185 36.561 0.850074
729 1 -1.1104 12.3218 30.8086 3.75481
730 1 -1.1104 12.2488 36.2637 3.68371
731 1 -1.1104 12.2249 33.7109 0.928498
732 2 2.2208 10.6838 32.3168 2.47612
733 2 2.2208 10.82 37.8447 2.39705