LAMMPS (29 Oct 2020)
OMP_NUM_THREADS environment is not set. Defaulting to 1 thread. (../comm.cpp:94)
  using 1 OpenMP thread(s) per MPI task
OMP_NUM_THREADS environment is not set. Defaulting to 1 thread. (../comm.cpp:94)
  using 1 OpenMP thread(s) per MPI task
Reading data file ...
  orthogonal box = (-0.36140872 -4.3385321 -0.35366716) to (27.701409 332.41853 27.693667)
  2 by 13 by 2 MPI processor grid
  reading atoms ...
  17910 atoms
  reading velocities ...
  17910 velocities
Finding 1-2 1-3 1-4 neighbors ...
  special bond factors lj:    0.0      0.0      0.0     
  special bond factors coul:  0.0      0.0      0.0     
     0 = max # of 1-2 neighbors
     0 = max # of 1-3 neighbors
     0 = max # of 1-4 neighbors
     1 = max # of special neighbors
  special bonds CPU = 0.004 seconds
  read_data CPU = 0.084 seconds
Setting atom values ...
  11940 settings made for charge
Setting atom values ...
  5970 settings made for charge
PPPM initialization ...
  using 12-bit tables for long-range coulomb (../kspace.cpp:328)
  G vector (1/distance) = 0.29883599
  grid = 40 240 40
  stencil order = 5
  estimated absolute RMS force accuracy = 0.00015730388
  estimated relative force accuracy = 1.092415e-05
  using single precision MKL FFT
  3d grid and FFT values/proc = 15000 7600
Neighbor list info ...
  update every 1 steps, delay 0 steps, check yes
  max neighbors/atom: 2000, page size: 100000
  master list distance cutoff = 11.3
  ghost atom cutoff = 11.3
  binsize = 5.65, bins = 5 60 5
  2 neighbor lists, perpetual/occasional/extra = 2 0 0
  (1) pair coul/long, perpetual
      attributes: half, newton on
      pair build: half/bin/newton
      stencil: half/bin/3d/newton
      bin: standard
  (2) pair eam/alloy, perpetual, copy from (1)
      attributes: half, newton on
      pair build: copy
      stencil: none
      bin: none
Setting up Verlet run ...
  Unit style    : metal
  Current step  : 0
  Time step     : 0.001
Per MPI rank memory allocation (min/avg/max) = 8.160 | 8.183 | 8.198 Mbytes
Step Temp E_pair E_mol TotEng Press 
       0          600   -234200.51            0   -232811.56   -931.29546 
  100000    599.27238   -234206.62            0   -232819.35   -1220.0116 
Loop time of 644.692 on 52 procs for 100000 steps with 17910 atoms

Performance: 13.402 ns/day, 1.791 hours/ns, 155.113 timesteps/s
99.8% CPU use with 52 MPI tasks x 1 OpenMP threads

MPI task timing breakdown:
Section |  min time  |  avg time  |  max time  |%varavg| %total
---------------------------------------------------------------
Pair    | 434.05     | 449.83     | 461.79     |  26.4 | 69.77
Bond    | 0.0069214  | 0.010133   | 0.015662   |   2.0 |  0.00
Kspace  | 126.18     | 140.71     | 160.53     |  57.5 | 21.83
Neigh   | 32.144     | 34.953     | 38.037     |  20.0 |  5.42
Comm    | 13.886     | 14.927     | 17.315     |  21.6 |  2.32
Output  | 5.1544e-05 | 5.7726e-05 | 0.00025546 |   0.0 |  0.00
Modify  | 1.7285     | 2.9968     | 5.1178     |  59.9 |  0.46
Other   |            | 1.269      |            |       |  0.20

Nlocal:        344.423 ave         364 max         316 min
Histogram: 1 0 2 6 10 7 8 10 4 4
Nghost:        4149.81 ave        4258 max        4041 min
Histogram: 2 3 9 10 7 2 2 5 4 8
Neighs:        69248.8 ave       73516 max       60923 min
Histogram: 1 0 1 1 4 13 11 9 6 6

Total # of neighbors = 3600935
Ave neighs/atom = 201.05723
Ave special neighs/atom = 0.0000000
Neighbor list builds = 16222
Dangerous builds = 0
11940 atoms in group oxygen
PPPM initialization ...
  using 12-bit tables for long-range coulomb (../kspace.cpp:328)
  G vector (1/distance) = 0.29883599
  grid = 40 240 40
  stencil order = 5
  estimated absolute RMS force accuracy = 0.00015730388
  estimated relative force accuracy = 1.092415e-05
  using single precision MKL FFT
  3d grid and FFT values/proc = 15000 7600
Setting up Verlet run ...
  Unit style    : metal
  Current step  : 0
  Time step     : 0.001
Per MPI rank memory allocation (min/avg/max) = 8.411 | 8.434 | 8.448 Mbytes
Step f_2 Temp v_Tdiff v_deltaT 
       0            0    599.27238            0            0 
  100000     707.9901    602.07664   0.01632207    189.49771 
  200000    1401.0143    597.74247  0.017840986    207.13219 
  300000    2097.4747    600.16812  0.017725909    205.79615 
  400000    2789.6128    596.85316  0.017388916     201.8837 
  500000    3478.6564      599.624   0.01774943    206.06924 
  600000    4168.8337    598.31552  0.018031772    209.34719 
  700000    4863.3481    597.19501  0.017311443    200.98424 
  800000     5551.914    601.79082  0.017943964    208.32775 
  900000    6241.1354    595.08977  0.018064734    209.72988 
 1000000    6937.2019    598.20233  0.017425931    202.31344 
 1100000    7631.3141    600.26247  0.017145889    199.06217 
 1200000     8327.933    601.20719  0.017322236    201.10955 
 1300000    9021.7537    598.35282  0.017695669    205.44508 
 1400000    9713.1519    593.20634  0.017889804    207.69897 
 1500000    10405.662    596.41928  0.017134868    198.93423 
Loop time of 9541.28 on 52 procs for 1500000 steps with 17910 atoms

Performance: 13.583 ns/day, 1.767 hours/ns, 157.212 timesteps/s
99.8% CPU use with 52 MPI tasks x 1 OpenMP threads

MPI task timing breakdown:
Section |  min time  |  avg time  |  max time  |%varavg| %total
---------------------------------------------------------------
Pair    | 6373.4     | 6628.6     | 6796.7     |  99.8 | 69.47
Bond    | 0.10274    | 0.1561     | 0.21288    |   7.0 |  0.00
Kspace  | 1910.5     | 2106.6     | 2421.8     | 213.1 | 22.08
Neigh   | 490.11     | 532.41     | 568.17     |  70.6 |  5.58
Comm    | 207.57     | 223.18     | 264.38     |  90.4 |  2.34
Output  | 0.0015618  | 0.0016611  | 0.0033646  |   0.6 |  0.00
Modify  | 7.8044     | 8.6118     | 9.1909     |  11.7 |  0.09
Other   |            | 41.73      |            |       |  0.44

Nlocal:        344.423 ave         369 max         326 min
Histogram: 3 3 7 13 8 9 2 4 2 1
Nghost:        4142.67 ave        4249 max        4062 min
Histogram: 6 6 11 6 3 3 4 6 5 2
Neighs:        69254.3 ave       74337 max       62905 min
Histogram: 1 0 3 3 12 15 8 4 5 1

Total # of neighbors = 3601222
Ave neighs/atom = 201.07326
Ave special neighs/atom = 0.0000000
Neighbor list builds = 247480
Dangerous builds = 0
Total wall time: 2:49:46
