LAMMPS (29 Oct 2020)
OMP_NUM_THREADS environment is not set. Defaulting to 1 thread. (../comm.cpp:94)
  using 1 OpenMP thread(s) per MPI task
OMP_NUM_THREADS environment is not set. Defaulting to 1 thread. (../comm.cpp:94)
  using 1 OpenMP thread(s) per MPI task
Reading data file ...
  orthogonal box = (-0.35516565 -4.2468482 -0.35447675) to (27.695166 332.32685 27.694477)
  2 by 13 by 2 MPI processor grid
  reading atoms ...
  17640 atoms
  reading velocities ...
  17640 velocities
Finding 1-2 1-3 1-4 neighbors ...
  special bond factors lj:    0.0      0.0      0.0     
  special bond factors coul:  0.0      0.0      0.0     
     0 = max # of 1-2 neighbors
     0 = max # of 1-3 neighbors
     0 = max # of 1-4 neighbors
     1 = max # of special neighbors
  special bonds CPU = 0.004 seconds
  read_data CPU = 0.075 seconds
Setting atom values ...
  11760 settings made for charge
Setting atom values ...
  5880 settings made for charge
PPPM initialization ...
  using 12-bit tables for long-range coulomb (../kspace.cpp:328)
  G vector (1/distance) = 0.29883693
  grid = 40 240 40
  stencil order = 5
  estimated absolute RMS force accuracy = 0.00015601772
  estimated relative force accuracy = 1.0834831e-05
  using single precision MKL FFT
  3d grid and FFT values/proc = 15000 7600
Neighbor list info ...
  update every 1 steps, delay 0 steps, check yes
  max neighbors/atom: 2000, page size: 100000
  master list distance cutoff = 11.3
  ghost atom cutoff = 11.3
  binsize = 5.65, bins = 5 60 5
  2 neighbor lists, perpetual/occasional/extra = 2 0 0
  (1) pair coul/long, perpetual
      attributes: half, newton on
      pair build: half/bin/newton
      stencil: half/bin/3d/newton
      bin: standard
  (2) pair eam/alloy, perpetual, copy from (1)
      attributes: half, newton on
      pair build: copy
      stencil: none
      bin: none
Setting up Verlet run ...
  Unit style    : metal
  Current step  : 0
  Time step     : 0.001
Per MPI rank memory allocation (min/avg/max) = 8.142 | 8.178 | 8.198 Mbytes
Step Temp E_pair E_mol TotEng Press 
       0          600   -230565.12            0   -229197.11    96.489836 
  100000    599.57498   -230559.62            0   -229192.58   -1.2608075 
Loop time of 657.793 on 52 procs for 100000 steps with 17640 atoms

Performance: 13.135 ns/day, 1.827 hours/ns, 152.024 timesteps/s
99.8% CPU use with 52 MPI tasks x 1 OpenMP threads

MPI task timing breakdown:
Section |  min time  |  avg time  |  max time  |%varavg| %total
---------------------------------------------------------------
Pair    | 420.16     | 448.36     | 460.82     |  42.6 | 68.16
Bond    | 0.0067482  | 0.0099307  | 0.01347    |   1.6 |  0.00
Kspace  | 137.92     | 153.06     | 188.14     |  91.2 | 23.27
Neigh   | 25.64      | 33.729     | 37.031     |  48.3 |  5.13
Comm    | 16.93      | 18.179     | 19.621     |  15.0 |  2.76
Output  | 4.8463e-05 | 5.7613e-05 | 0.00030229 |   0.0 |  0.00
Modify  | 2.0387     | 3.0535     | 5.0216     |  52.9 |  0.46
Other   |            | 1.403      |            |       |  0.21

Nlocal:        339.231 ave         368 max         300 min
Histogram: 3 5 0 0 5 16 9 2 5 7
Nghost:        4089.54 ave        4274 max        3829 min
Histogram: 4 5 3 4 4 2 9 4 6 11
Neighs:        67632.4 ave       74516 max       51882 min
Histogram: 4 0 0 3 1 0 9 20 7 8

Total # of neighbors = 3516884
Ave neighs/atom = 199.36984
Ave special neighs/atom = 0.0000000
Neighbor list builds = 16217
Dangerous builds = 0
11760 atoms in group oxygen
PPPM initialization ...
  using 12-bit tables for long-range coulomb (../kspace.cpp:328)
  G vector (1/distance) = 0.29883693
  grid = 40 240 40
  stencil order = 5
  estimated absolute RMS force accuracy = 0.00015601772
  estimated relative force accuracy = 1.0834831e-05
  using single precision MKL FFT
  3d grid and FFT values/proc = 15000 7600
Setting up Verlet run ...
  Unit style    : metal
  Current step  : 0
  Time step     : 0.001
Per MPI rank memory allocation (min/avg/max) = 8.393 | 8.429 | 8.449 Mbytes
Step f_2 Temp v_Tdiff v_deltaT 
       0            0    599.57498            0            0 
  100000     850.3333    601.05244  0.021108891    245.07227 
  200000     1681.536    602.52671  0.024651761    286.20465 
  300000    2500.5695    605.11119  0.024637549    286.03966 
  400000    3315.3293    604.95862  0.025125628    291.70621 
  500000    4136.3876      599.216  0.024567509    285.22649 
  600000    4957.6729    598.76601  0.024759363     287.4539 
  700000    5779.4634     605.4261  0.024937924    289.52698 
  800000    6600.5618    605.40121  0.024168127    280.58971 
  900000    7426.7296    605.72119  0.023510227    272.95155 
 1000000    8249.8878    605.24135  0.024305436    282.18386 
Loop time of 6555.37 on 52 procs for 1000000 steps with 17640 atoms

Performance: 13.180 ns/day, 1.821 hours/ns, 152.547 timesteps/s
99.9% CPU use with 52 MPI tasks x 1 OpenMP threads

MPI task timing breakdown:
Section |  min time  |  avg time  |  max time  |%varavg| %total
---------------------------------------------------------------
Pair    | 4165.1     | 4458.4     | 4607.9     | 127.7 | 68.01
Bond    | 0.062162   | 0.10019    | 0.1359     |   5.6 |  0.00
Kspace  | 1362.2     | 1528.7     | 1893       | 273.5 | 23.32
Neigh   | 267.15     | 349.42     | 383.59     | 154.1 |  5.33
Comm    | 168.48     | 183.84     | 195.52     |  50.9 |  2.80
Output  | 0.0011025  | 0.0011722  | 0.0023198  |   0.5 |  0.00
Modify  | 5.7024     | 6.2902     | 7.1056     |  12.5 |  0.10
Other   |            | 28.58      |            |       |  0.44

Nlocal:        339.231 ave         365 max         299 min
Histogram: 5 3 0 0 1 9 16 5 7 6
Nghost:        4093.19 ave        4263 max        3794 min
Histogram: 4 2 6 4 0 3 5 5 11 12
Neighs:        67619.0 ave       73865 max       52544 min
Histogram: 4 0 1 3 0 0 4 19 12 9

Total # of neighbors = 3516186
Ave neighs/atom = 199.33027
Ave special neighs/atom = 0.0000000
Neighbor list builds = 168027
Dangerous builds = 0
Total wall time: 2:00:13
