ITEM: TIMESTEP
50000
ITEM: NUMBER OF ATOMS
17640
ITEM: BOX BOUNDS pp pp pp
-4.4523781434142307e-01 2.7785237814341215e+01
-5.2117428191645532e+00 3.3329174281914112e+02
-4.3806400703160914e-01 2.7778064007031453e+01
ITEM: ATOMS id type q x y z
1 2 2.2208 5.09068 0.5273 5.22013
2 1 -1.1104 0.898933 -3.87963 0.608415
6 1 -1.1104 0.937936 -3.87528 3.54881
10 1 -1.1104 0.986691 -0.969394 0.822457
12 2 2.2208 5.04236 -2.37029 2.28017
14 1 -1.1104 0.744918 -1.11273 3.91699
16 1 -1.1104 3.6865 -3.75665 0.845036
18 2 2.2208 2.43524 0.395362 2.38974
19 1 -1.1104 3.73117 -3.72452 3.79329
21 2 2.2208 2.25712 -2.47986 5.17304
23 1 -1.1104 3.76228 -0.792386 0.886812
24 1 -1.1104 3.61213 -1.05762 3.69946
174 1 -1.1104 3.57326 -0.892127 6.58132
166 1 -1.1104 0.900263 -3.88792 6.46926
15 1 -1.1104 6.5202 -0.992684 3.56771
4 1 -1.1104 6.74539 -3.56105 1.08184
8 1 -1.1104 6.31391 -3.97378 3.65391
165 2 2.2208 13.4084 17.2817 2.29265
401 2 2.2208 13.5839 0.510443 13.5768
8091 2 2.2208 5.04132 -5.20018 10.7531
8094 2 2.2208 10.6369 -5.05176 10.7304
564 2 2.2208 8.05826 14.6839 -0.316124
172 1 -1.1104 3.73616 -3.61456 6.61409
371 2 2.2208 5.13633 -2.44137 13.5708
11 1 -1.1104 6.50759 -0.804864 0.938591
8084 2 2.2208 2.34126 -5.11207 2.30517
31 2 2.2208 10.801 0.313121 5.0997
32 1 -1.1104 12.4165 -3.79387 0.952213
34 1 -1.1104 12.093 -3.8644 3.75255
36 1 -1.1104 12.2237 -1.10947 0.798899
37 2 2.2208 10.7761 -2.47852 2.295
39 1 -1.1104 12.2623 -1.02804 3.73473
40 1 -1.1104 9.48872 -4.047 1.10614
42 2 2.2208 7.89783 0.476853 2.31407
43 1 -1.1104 9.23511 -3.99796 3.84235
45 2 2.2208 7.71634 -2.35609 5.08693
47 1 -1.1104 9.35748 -0.922407 0.931241
48 1 -1.1104 9.57123 -0.96011 3.69831
210 1 -1.1104 9.12915 -1.16088 6.51933
208 1 -1.1104 9.46678 -4.11646 6.60951
8726 2 2.2208 13.4317 11.8274 8.11608
8591 2 2.2208 13.2868 20.216 5.16182
561 2 2.2208 13.5345 14.4912 -0.300659
49 2 2.2208 13.6407 0.43461 2.22346
623 2 2.2208 5.33792 6.03615 -0.278556
3 1 -1.1104 0.663021 1.75154 1.16497
7 1 -1.1104 0.966968 1.71102 3.71084
13 2 2.2208 5.09418 3.38258 2.39724
17 1 -1.1104 3.53087 1.90434 1.05974
20 1 -1.1104 3.91917 1.80551 3.83474
22 2 2.2208 2.24642 3.18997 5.26215
54 2 2.2208 5.27004 6.025 5.26267
56 1 -1.1104 0.965275 7.68356 0.996528
60 1 -1.1104 1.07651 4.86682 0.883531
67 1 -1.1104 0.849778 4.56395 3.75128
71 1 -1.1104 3.96365 7.60038 0.947501
72 2 2.2208 2.24577 6.15323 2.46865
74 1 -1.1104 3.74983 7.35241 3.98661
76 1 -1.1104 3.73798 4.781 1.10033
79 1 -1.1104 3.77824 4.5535 3.89324
58 1 -1.1104 0.929197 7.5957 3.87268
239 1 -1.1104 3.83057 4.80005 6.68059
167 1 -1.1104 0.670776 1.92922 6.65425
234 1 -1.1104 0.991186 7.51182 6.51461
69 1 -1.1104 6.52582 4.51722 3.75952
63 1 -1.1104 6.57581 4.64514 1.06862
5 1 -1.1104 6.34723 1.8799 0.998745
57 1 -1.1104 6.73596 7.61387 1.08424
677 2 2.2208 2.25871 20.3258 -0.387745
238 1 -1.1104 3.87702 7.59797 6.63557
237 1 -1.1104 6.76423 4.45927 6.41457
59 1 -1.1104 6.62301 7.35891 3.96256
9 1 -1.1104 6.66286 1.94352 3.81819
33 1 -1.1104 12.1016 1.68797 0.889167
35 1 -1.1104 12.3344 1.74054 3.70854
38 2 2.2208 11.0216 3.20843 2.30684
41 1 -1.1104 9.45104 1.75344 1.05942
44 1 -1.1104 9.39505 1.71442 3.65707
46 2 2.2208 8.11019 3.04399 5.29265
84 2 2.2208 10.9081 6.0959 5.25583
86 1 -1.1104 12.1486 7.52138 1.11812
88 1 -1.1104 12.3511 4.65661 1.14303
92 1 -1.1104 12.1445 4.72296 3.89211
94 1 -1.1104 9.29665 7.33815 1.04441
95 2 2.2208 8.00202 5.86451 2.53886
97 1 -1.1104 9.44763 7.38683 3.85089
99 1 -1.1104 9.35555 4.58958 0.763138
102 1 -1.1104 9.59389 4.58033 3.77302
87 1 -1.1104 12.2129 7.62215 3.70269
267 1 -1.1104 9.43169 7.49614 6.66002
209 1 -1.1104 9.48596 1.67382 6.38174
265 1 -1.1104 12.2925 7.37631 6.46289
206 1 -1.1104 12.3064 1.80924 6.53101
532 2 2.2208 7.87608 17.442 13.6151
266 1 -1.1104 12.2609 4.60269 6.50268
269 1 -1.1104 9.68026 4.42264 6.55059
169 1 -1.1104 6.4595 1.79627 6.64279
137 2 2.2208 -0.409793 17.3122 5.30428
8612 2 2.2208 13.5368 14.6181 5.20284
8543 2 2.2208 13.5898 8.96539 5.19815
55 2 2.2208 5.07859 11.7964 5.21386
61 1 -1.1104 1.04368 10.4775 0.74815
66 2 2.2208 5.1155 8.85565 2.57748
68 1 -1.1104 1.1462 10.4134 3.70519
73 2 2.2208 2.45685 11.7228 2.60882
75 2 2.2208 2.3978 8.80079 5.25036
77 1 -1.1104 3.99647 10.3788 1.23882
80 1 -1.1104 3.67676 10.2083 3.99155
107 1 -1.1104 0.885733 13.2719 0.954994
113 1 -1.1104 0.812853 13.1576 3.91844
123 1 -1.1104 3.85814 13.0833 1.03465
128 1 -1.1104 3.86833 13.1579 3.90486
62 1 -1.1104 0.912169 10.1229 6.43783
110 1 -1.1104 6.53586 13.3282 1.13592
64 1 -1.1104 6.59587 10.4307 1.21055
70 1 -1.1104 6.42358 10.2799 3.84373
124 1 -1.1104 3.66242 13.258 6.68736
115 1 -1.1104 6.52311 13.0904 4.01991
85 2 2.2208 10.6086 11.6573 5.15075
89 1 -1.1104 12.121 10.3583 0.930526
91 2 2.2208 10.8134 8.93756 2.39929
93 1 -1.1104 12.3223 10.4164 4.02095
96 2 2.2208 7.93084 11.7287 2.63445
98 2 2.2208 7.98709 8.79709 5.28897
100 1 -1.1104 9.40909 10.4375 1.16792
103 1 -1.1104 9.21104 10.1143 3.84557
142 1 -1.1104 11.8786 13.0411 1.08276
146 1 -1.1104 12.0782 13.0938 4.06604
153 1 -1.1104 9.20462 13.2405 1.07393
158 1 -1.1104 9.3239 13.1136 4.12053
154 1 -1.1104 9.22833 13.1909 6.84741
90 1 -1.1104 12.3559 9.96922 6.85706
588 2 2.2208 10.7734 0.375153 -0.414998
8541 2 2.2208 13.4829 17.2457 7.93454
111 1 -1.1104 6.4478 12.9496 6.82826
143 1 -1.1104 11.9778 12.9931 6.73137
101 1 -1.1104 9.40254 10.2191 6.86385
65 1 -1.1104 6.51828 10.1695 6.58062
652 2 2.2208 13.6609 9.05843 -0.109698
130 2 2.2208 2.24669 14.5798 5.29616
119 2 2.2208 4.98213 14.7103 2.44595
106 2 2.2208 5.05894 17.4162 5.43537
109 1 -1.1104 0.822425 18.8979 1.09918
114 1 -1.1104 0.824825 18.7924 4.00965
116 1 -1.1104 0.776418 16.0196 1.05724
120 2 2.2208 5.2942 20.2585 2.58494
121 1 -1.1104 0.669988 16.0833 3.84293
125 1 -1.1104 3.63128 18.8932 1.01408
127 2 2.2208 2.23283 17.6058 2.50584
129 1 -1.1104 3.92838 18.845 4.03868
131 2 2.2208 2.19599 20.2352 5.10821
132 1 -1.1104 3.81808 16.0908 1.00307
134 1 -1.1104 3.26249 16.0186 3.867
117 1 -1.1104 1.00208 15.874 6.74644
133 1 -1.1104 3.69674 16.0505 6.63357
302 1 -1.1104 0.923734 18.7821 6.71601
139 1 -1.1104 6.49505 18.9595 3.88705
122 1 -1.1104 6.12987 15.8931 3.98042
140 1 -1.1104 6.59128 15.9931 0.951602
138 1 -1.1104 6.41367 18.8028 1.08063
118 1 -1.1104 6.43775 15.8355 6.74659
126 1 -1.1104 3.86025 18.9568 6.9539
230 2 2.2208 13.5393 -2.41183 10.8367
324 2 2.2208 2.12546 11.7474 13.6053
288 1 -1.1104 6.49771 18.8104 9.65426
296 1 -1.1104 6.51197 18.7394 12.3881
160 2 2.2208 7.73942 14.5279 5.30199
141 2 2.2208 10.6797 17.4498 5.30209
144 1 -1.1104 11.9555 18.7907 1.12406
147 1 -1.1104 11.862 18.9451 3.78375
148 1 -1.1104 12.1005 15.7385 1.06757
150 2 2.2208 10.7072 14.3847 2.58994
151 2 2.2208 10.5554 20.2186 2.39697
152 1 -1.1104 12.0975 16.0123 3.84062
155 1 -1.1104 9.30011 18.6477 1.23853
157 2 2.2208 8.02364 17.3215 2.29068
159 1 -1.1104 9.29737 18.8629 3.96898
161 2 2.2208 7.90433 20.2242 5.28107
162 1 -1.1104 9.47854 15.9719 1.12834
164 1 -1.1104 8.95767 15.8334 3.74276
145 1 -1.1104 12.1363 18.6461 6.64961
112 1 -1.1104 6.42985 18.694 6.73511
163 1 -1.1104 9.19959 15.987 6.61763
149 1 -1.1104 12.0868 15.7555 6.71744
170 1 -1.1104 0.987725 -1.07657 6.50725
168 1 -1.1104 6.65426 -3.78246 6.57267
171 1 -1.1104 6.29853 -0.946161 6.511
406 2 2.2208 10.8934 3.2536 13.5513
175 2 2.2208 5.16237 0.399399 10.9211
176 1 -1.1104 0.722545 -3.94664 12.2454
180 1 -1.1104 0.777011 -3.91567 9.42677
184 1 -1.1104 0.926672 -1.21485 12.2337
186 2 2.2208 4.9882 -2.33738 8.0871
188 1 -1.1104 0.764863 -1.31562 9.476
190 1 -1.1104 3.63424 -4.02815 12.1821
192 2 2.2208 2.24633 0.308316 8.06821
193 1 -1.1104 3.61367 -3.75613 9.33682
195 2 2.2208 2.14312 -2.50154 10.8903
197 1 -1.1104 3.67842 -1.34653 12.2551
198 1 -1.1104 3.58008 -0.880068 9.42758
185 1 -1.1104 6.48696 -0.858678 12.3806
178 1 -1.1104 6.3903 -3.81197 11.7977
182 1 -1.1104 6.35799 -3.87933 9.13888
8674 2 2.2208 13.4913 11.825 2.53655
8542 2 2.2208 13.6465 14.56 11.0643
8725 2 2.2208 13.6028 5.742 7.98682
189 1 -1.1104 6.4203 -0.898417 9.44694
205 1 -1.1104 12.4762 -3.78813 6.77193
207 1 -1.1104 12.1856 -1.05602 6.56946
211 2 2.2208 10.6294 0.259737 10.8129
212 1 -1.1104 11.8003 -3.9711 12.516
214 1 -1.1104 12.275 -3.74181 9.76834
216 1 -1.1104 12.1312 -1.1808 12.1684
217 2 2.2208 10.8212 -2.56587 7.84405
219 1 -1.1104 12.0374 -1.14271 9.35153
220 1 -1.1104 9.10403 -3.80714 12.0522
222 2 2.2208 7.98945 0.502105 8.00257
223 1 -1.1104 9.20378 -3.83291 9.25095
225 2 2.2208 7.97587 -2.47148 10.699
227 1 -1.1104 9.20763 -1.15623 12.0512
228 1 -1.1104 9.28893 -0.982328 9.3325
8516 2 2.2208 13.5602 6.12617 2.48519
104 2 2.2208 10.798 17.3769 10.8469
236 1 -1.1104 0.858657 4.81361 6.75851
173 1 -1.1104 3.45472 1.82575 6.73521
177 1 -1.1104 1.1003 1.75255 12.3168
181 1 -1.1104 0.811648 1.512 9.64215
187 2 2.2208 5.17814 3.32966 8.02304
191 1 -1.1104 3.88915 1.51457 12.4766
194 1 -1.1104 3.63465 1.68774 9.85959
196 2 2.2208 2.288 3.06592 10.9152
240 2 2.2208 5.03325 6.07112 10.8196
242 1 -1.1104 0.863858 7.2883 12.3014
246 1 -1.1104 0.848205 4.56606 12.253
251 1 -1.1104 0.83089 4.37003 9.32145
255 1 -1.1104 3.83308 7.64489 12.2068
256 2 2.2208 2.36544 6.16447 7.95934
258 1 -1.1104 3.73134 7.51841 9.63014
260 1 -1.1104 3.59519 4.6882 12.0191
262 1 -1.1104 3.80582 4.66012 9.28939
244 1 -1.1104 0.811731 7.43208 9.37537
243 1 -1.1104 6.76436 7.31477 12.4198
289 1 -1.1104 6.60696 15.9585 9.46439
405 2 2.2208 10.6372 -2.49377 13.5405
235 1 -1.1104 6.55756 7.32999 6.85999
179 1 -1.1104 6.49573 1.9554 12.0431
248 1 -1.1104 6.45178 4.59861 12.1753
253 1 -1.1104 6.68936 4.8796 9.35353
183 1 -1.1104 6.52568 2.19569 9.32039
245 1 -1.1104 6.46033 7.71033 9.60587
213 1 -1.1104 12.0651 1.6223 12.0137
215 1 -1.1104 12.4216 1.78994 9.31408
218 2 2.2208 10.8222 3.15449 8.0496
221 1 -1.1104 9.23445 1.89875 11.9636
224 1 -1.1104 9.59472 1.74777 9.2247
226 2 2.2208 7.98549 3.48339 10.8402
268 1 -1.1104 9.48527 4.67698 9.54631
271 1 -1.1104 9.57543 4.89044 12.2219
273 1 -1.1104 9.26933 7.3275 9.56282
275 2 2.2208 8.17742 6.21559 8.07588
276 2 2.2208 11.0433 6.07163 10.922
278 1 -1.1104 12.385 7.51807 12.2817
279 1 -1.1104 12.4044 7.47043 9.53011
280 1 -1.1104 12.2225 4.5202 12.1376
283 1 -1.1104 12.2514 4.57755 9.39527
285 1 -1.1104 9.48293 7.51118 12.4525
78 1 -1.1104 3.68104 10.4354 6.64829
202 1 -1.1104 12.0504 18.6887 9.41015
108 1 -1.1104 0.819263 12.9575 6.83902
241 2 2.2208 5.09248 11.7722 10.9507
247 1 -1.1104 0.899921 10.2166 12.0945
250 2 2.2208 5.14554 8.98942 8.16145
252 1 -1.1104 0.826685 10.1859 9.26829
257 2 2.2208 2.36989 11.6132 8.04155
259 2 2.2208 2.2303 8.77776 10.7048
261 1 -1.1104 3.62042 10.2747 12.0739
263 1 -1.1104 3.87058 10.276 9.42953
287 1 -1.1104 3.62832 13.2194 12.3083
294 1 -1.1104 0.975098 12.9028 9.54927
299 1 -1.1104 0.915882 13.3772 12.309
305 1 -1.1104 3.54168 13.1049 9.50641
249 1 -1.1104 6.58813 10.4503 12.2156
297 1 -1.1104 6.42245 13.3637 12.3094
290 1 -1.1104 6.50471 13.1899 9.55794
254 1 -1.1104 6.47861 10.5216 9.50576
204 2 2.2208 10.5668 14.4936 8.20484
315 1 -1.1104 9.36192 15.8984 12.3166
625 2 2.2208 5.32167 11.8315 -0.176057
591 2 2.2208 7.75098 20.1789 -0.340183
649 2 2.2208 7.9803 8.99693 -0.186151
319 1 -1.1104 9.1818 13.2109 9.39327
233 1 -1.1104 9.28828 13.1085 12.3669
264 1 -1.1104 9.25376 10.374 9.71019
270 1 -1.1104 9.4065 10.1882 12.473
272 2 2.2208 7.95375 8.94312 11.1908
274 2 2.2208 7.91621 11.6745 8.09568
277 2 2.2208 10.6657 11.8926 10.9606
281 1 -1.1104 12.3847 10.3481 12.5246
282 2 2.2208 10.8238 8.57944 8.05701
284 1 -1.1104 12.1321 10.37 9.62205
53 1 -1.1104 12.018 13.1373 9.57479
105 1 -1.1104 12.3212 12.9262 12.2658
565 2 2.2208 10.7644 17.435 -0.264913
321 1 -1.1104 9.3685 18.8036 12.1417
314 1 -1.1104 9.32084 16.0326 9.55447
316 2 2.2208 8.11724 20.3087 10.9145
295 2 2.2208 5.17276 14.4462 8.15799
310 2 2.2208 2.24465 14.5811 11.0217
286 1 -1.1104 3.62876 18.7958 12.1616
291 1 -1.1104 0.623201 18.7347 9.38786
292 1 -1.1104 0.70838 16.0619 9.5032
293 2 2.2208 5.0686 20.4066 8.16223
298 1 -1.1104 0.891307 19.0403 12.2037
300 2 2.2208 4.9965 17.452 10.8497
301 1 -1.1104 3.56972 18.869 9.56402
303 2 2.2208 2.35852 17.3751 7.99143
304 1 -1.1104 3.60222 16.0416 9.46896
307 1 -1.1104 0.791472 15.8792 12.3529
308 1 -1.1104 3.66161 15.966 12.195
309 2 2.2208 2.31204 20.2463 10.8787
306 1 -1.1104 6.48003 15.9517 12.2985
312 1 -1.1104 12.3512 18.7365 12.1378
320 2 2.2208 7.7237 17.3844 7.99268
203 1 -1.1104 12.2693 15.852 12.268
317 2 2.2208 7.97966 14.6314 10.8923
231 2 2.2208 10.7876 20.1439 8.21735
318 1 -1.1104 9.13044 18.9146 9.21171
156 1 -1.1104 9.39339 18.8625 6.79763
232 1 -1.1104 12.0837 15.9724 9.47091
560 2 2.2208 2.28934 3.47873 -0.41889
201 2 2.2208 -0.480946 0.121186 11.0849
373 2 2.2208 5.22109 3.18365 13.4496
323 2 2.2208 4.9497 8.96271 13.6623
404 2 2.2208 7.83466 0.391961 13.4686
589 2 2.2208 8.02484 -2.31904 -0.362049
679 2 2.2208 2.28335 14.4778 -0.268086
503 2 2.2208 2.1332 17.3044 13.6793
369 2 2.2208 -0.391021 -2.42925 13.6151
331 2 2.2208 5.22026 0.385725 16.5656
332 1 -1.1104 0.782474 -3.7522 17.8863
336 1 -1.1104 1.3435 -3.63457 14.7284
344 1 -1.1104 0.811478 -0.876072 18.1017
346 2 2.2208 5.17131 -2.61457 19.2877
348 1 -1.1104 0.767718 -1.14546 15.1731
352 1 -1.1104 3.43332 -4.11044 17.9405
354 2 2.2208 2.21409 0.291966 19.4676
355 1 -1.1104 4.08849 -3.77898 15.0349
359 2 2.2208 2.22626 -2.49345 16.5667
361 1 -1.1104 3.71687 -1.2084 17.7667
362 1 -1.1104 3.69122 -0.991503 15.1709
363 1 -1.1104 3.53177 -1.21996 20.862
350 1 -1.1104 6.41035 -1.03031 15.1725
334 1 -1.1104 6.44353 -4.25213 17.8556
340 1 -1.1104 6.50578 -3.88713 14.7474
345 1 -1.1104 6.48532 -1.24657 17.8076
9111 2 2.2208 13.3916 8.9108 22.116
8921 2 2.2208 13.596 11.5809 19.2818
328 2 2.2208 4.99994 14.6992 13.817
8845 2 2.2208 13.5566 3.22413 16.5953
8992 2 2.2208 13.5431 20.0989 16.5607
374 2 2.2208 10.6994 0.509418 16.1985
375 1 -1.1104 12.0572 -3.69733 17.8813
377 1 -1.1104 12.1999 -3.66501 15.2718
381 1 -1.1104 12.0355 -0.97099 17.7635
382 2 2.2208 10.5589 -2.29629 19.1391
384 1 -1.1104 11.9635 -0.860135 14.9284
386 1 -1.1104 9.18714 -3.87111 17.9701
388 2 2.2208 7.98769 0.354264 19.1985
389 1 -1.1104 9.27588 -3.94408 15.1916
393 2 2.2208 7.8242 -2.50195 16.2761
395 1 -1.1104 9.19658 -0.993386 17.8569
396 1 -1.1104 9.13299 -1.06373 14.7118
378 1 -1.1104 12.1554 -3.75536 20.8279
533 2 2.2208 13.5901 14.518 22.0204
529 1 -1.1104 9.48235 15.6422 20.9538
398 2 2.2208 -0.451701 3.0645 13.7715
598 2 2.2208 13.4857 3.50465 27.7744
372 2 2.2208 2.3629 0.435607 13.7716
333 1 -1.1104 0.820979 1.69955 17.8279
338 1 -1.1104 0.837807 1.51804 14.974
347 2 2.2208 4.9452 3.0136 19.5902
353 1 -1.1104 3.72956 1.59078 17.9581
357 1 -1.1104 3.74661 1.84437 15.2227
360 2 2.2208 2.2949 3.00841 16.492
407 2 2.2208 5.00312 5.80865 16.5147
409 1 -1.1104 0.955025 7.45231 17.995
411 1 -1.1104 0.8023 7.54048 15.1726
415 1 -1.1104 0.850264 4.55947 17.8971
420 1 -1.1104 0.951311 4.39865 15.0769
428 1 -1.1104 3.78577 7.34163 17.7582
429 2 2.2208 2.37491 5.9646 19.3292
431 1 -1.1104 3.63566 7.57706 15.15
434 1 -1.1104 3.56733 4.42333 18.0465
436 1 -1.1104 3.87148 4.49729 14.9703
432 1 -1.1104 3.67576 7.38874 20.8356
437 1 -1.1104 3.68423 4.59477 20.7348
335 1 -1.1104 6.45949 1.81484 17.8612
424 1 -1.1104 6.65679 4.59306 15.0535
417 1 -1.1104 6.44789 4.60998 17.9432
413 1 -1.1104 6.6522 7.52057 15.1022
425 1 -1.1104 6.34908 4.43531 20.7575
412 1 -1.1104 1.15124 7.51914 20.9517
358 1 -1.1104 3.50384 1.77375 20.7089
8989 2 2.2208 13.7001 14.5381 16.4267
685 1 -1.1104 9.32773 16.097 23.9086
8142 2 2.2208 10.8143 -5.12618 21.9507
410 1 -1.1104 6.59008 7.52195 17.9926
342 1 -1.1104 6.48927 1.96077 14.864
376 1 -1.1104 12.0381 1.86215 17.9791
379 1 -1.1104 12.1873 1.86045 14.9879
383 2 2.2208 10.6853 3.31532 19.3923
387 1 -1.1104 9.28534 1.60454 17.6876
391 1 -1.1104 9.39005 1.82104 14.7926
394 2 2.2208 7.87829 3.18174 16.3274
443 2 2.2208 10.8265 5.87385 16.4549
446 1 -1.1104 12.2512 7.34061 15.3099
448 1 -1.1104 12.124 4.56786 17.8695
451 1 -1.1104 12.2908 4.57339 15.1843
455 1 -1.1104 9.41612 7.32362 18.0909
456 2 2.2208 7.71556 6.00509 19.3977
458 1 -1.1104 9.476 7.63566 15.3026
461 1 -1.1104 9.33067 4.35337 17.7184
463 1 -1.1104 9.31687 4.5689 14.7418
445 1 -1.1104 11.903 7.43882 18.001
414 1 -1.1104 6.30849 7.32406 20.7373
563 2 2.2208 13.5977 20.0622 22.3887
452 1 -1.1104 12.154 4.68017 20.7059
380 1 -1.1104 12.1681 1.96339 20.7953
447 1 -1.1104 12.1846 7.52724 20.546
392 1 -1.1104 9.43847 1.94756 20.7961
8920 2 2.2208 13.5067 5.87706 19.4062
661 1 -1.1104 6.55526 18.7341 23.6739
442 1 -1.1104 12.1723 16.0253 23.7188
408 2 2.2208 5.18992 11.8247 16.4774
416 1 -1.1104 0.967648 10.5066 17.6785
419 2 2.2208 5.1568 8.83258 19.3574
422 1 -1.1104 0.641219 10.3149 14.856
430 2 2.2208 2.38142 11.5467 19.32
433 2 2.2208 2.26119 8.86998 16.4315
435 1 -1.1104 3.85621 10.2538 17.9399
438 1 -1.1104 3.53665 10.2568 15.0121
471 1 -1.1104 0.893206 13.2008 17.9109
475 1 -1.1104 0.937719 13.1302 15.1466
491 1 -1.1104 3.82615 12.9949 17.8778
494 1 -1.1104 3.68764 13.1528 15.1708
439 1 -1.1104 3.62325 10.3173 20.5741
8248 2 2.2208 13.5077 -5.05392 19.3081
426 1 -1.1104 6.39846 10.2598 14.962
473 1 -1.1104 6.54654 13.3035 17.9314
476 1 -1.1104 0.761728 12.8876 20.8613
626 2 2.2208 -0.320336 11.8653 27.7885
558 2 2.2208 5.10151 0.545813 27.7558
418 1 -1.1104 6.76781 10.2884 17.8247
479 1 -1.1104 6.45928 13.2297 15.1146
444 2 2.2208 10.823 11.7274 16.4779
449 1 -1.1104 12.1798 10.3451 18.0573
450 2 2.2208 10.6287 8.98062 19.4282
453 1 -1.1104 12.1481 10.3533 15.3133
457 2 2.2208 7.95754 11.7449 19.337
460 2 2.2208 7.84562 8.82249 16.45
462 1 -1.1104 9.35764 10.369 18.0661
465 1 -1.1104 9.44512 10.2286 15.245
507 1 -1.1104 12.2618 12.9561 17.7496
509 1 -1.1104 12.0348 13.1648 15.1027
518 1 -1.1104 9.2459 13.0593 17.9173
521 1 -1.1104 9.27981 12.9267 15.1333
522 1 -1.1104 9.30687 13.1714 20.7959
427 1 -1.1104 6.37906 10.3696 20.6931
686 2 2.2208 7.99808 20.1916 22.3331
466 1 -1.1104 9.28833 10.4982 20.8027
468 2 2.2208 10.7255 14.5984 25.0202
400 2 2.2208 13.4366 0.398111 19.5337
490 1 -1.1104 6.65002 16.0451 20.9456
8141 2 2.2208 7.98953 -5.07619 24.899
498 2 2.2208 2.28966 14.4537 16.6305
485 2 2.2208 5.11132 14.6394 19.3714
470 2 2.2208 5.31457 17.4002 16.6658
472 1 -1.1104 1.16085 19.1191 18.0719
477 1 -1.1104 0.977795 18.5567 15.3152
483 1 -1.1104 0.734862 16.0903 18.1287
486 2 2.2208 5.3008 19.9575 19.4877
487 1 -1.1104 0.703289 15.8035 15.2115
492 1 -1.1104 3.89318 18.5174 17.9954
493 2 2.2208 2.38855 17.2594 19.4336
496 1 -1.1104 3.81738 18.6886 15.0959
499 2 2.2208 2.31241 20.1525 16.4592
500 1 -1.1104 3.60261 15.8018 18.1542
501 1 -1.1104 3.8337 15.9405 15.4744
478 1 -1.1104 0.837607 18.8952 20.9327
484 1 -1.1104 6.58359 15.9958 18.0577
325 2 2.2208 10.9367 8.90825 13.875
497 1 -1.1104 3.81946 18.853 20.9843
469 2 2.2208 10.6536 20.302 25.1738
481 1 -1.1104 6.60558 18.7415 15.2139
474 1 -1.1104 6.86118 18.8764 18.1401
489 1 -1.1104 6.53355 16.0746 15.0967
525 2 2.2208 7.9116 14.6536 16.4019
506 2 2.2208 10.5798 17.5089 16.488
508 1 -1.1104 12.0461 18.6279 17.8128
511 1 -1.1104 12.0331 18.7892 14.983
513 1 -1.1104 12.0728 16.0077 17.6853
514 2 2.2208 10.7551 14.1946 19.1751
515 2 2.2208 10.7908 20.136 19.4405
516 1 -1.1104 12.2553 16.1206 15.0709
519 1 -1.1104 9.36087 18.6616 17.8179
520 2 2.2208 8.2307 17.3461 19.3549
523 1 -1.1104 9.35631 18.9246 15.0347
526 2 2.2208 7.82836 20.2457 16.5979
527 1 -1.1104 9.1582 15.8821 17.7528
528 1 -1.1104 9.22256 16.0473 15.0668
482 1 -1.1104 6.71063 18.7712 20.8776
524 1 -1.1104 9.49715 18.6547 20.8717
8919 2 2.2208 13.4006 8.81307 16.5566
327 2 2.2208 5.16352 20.1806 13.743
8805 2 2.2208 13.7845 17.4334 13.7116
596 2 2.2208 13.4821 -2.45829 22.2969
688 1 -1.1104 9.27904 18.9338 26.5481
337 1 -1.1104 0.781293 -4.2269 20.9009
8210 2 2.2208 13.5464 -5.14088 13.6812
356 1 -1.1104 3.77334 -3.96326 20.8973
351 1 -1.1104 6.67524 -1.08757 20.5672
341 1 -1.1104 6.66875 -3.93525 20.6754
517 1 -1.1104 12.1841 15.9296 20.5303
349 1 -1.1104 0.826437 -1.15455 20.8695
534 2 2.2208 5.09055 0.257021 22.2447
535 1 -1.1104 0.760736 -3.9437 23.6166
539 1 -1.1104 0.648987 -3.99042 26.2954
543 1 -1.1104 1.03903 -1.26298 23.6237
545 2 2.2208 5.01873 -2.29807 25.1346
547 1 -1.1104 0.795821 -1.03228 26.3878
549 1 -1.1104 3.43148 -4.10853 23.7751
551 2 2.2208 2.23201 0.434239 24.9734
552 1 -1.1104 3.44283 -3.91358 26.3136
554 2 2.2208 2.17662 -2.51132 22.2541
556 1 -1.1104 3.65222 -0.783209 23.5182
557 1 -1.1104 3.76723 -0.811545 26.4324
537 1 -1.1104 6.16241 -3.69536 23.4754
544 1 -1.1104 6.49552 -1.00419 23.4626
548 1 -1.1104 6.44091 -0.868471 26.3484
402 2 2.2208 13.4936 -2.30816 16.4764
390 1 -1.1104 9.45742 -3.64815 20.5641
385 1 -1.1104 12.1324 -1.05005 20.6633
330 2 2.2208 10.8863 14.474 13.8232
370 2 2.2208 -0.410428 8.85111 19.462
397 1 -1.1104 9.27513 -0.801875 20.7376
541 1 -1.1104 6.62247 -3.62672 26.3419
570 2 2.2208 10.7131 0.444483 22.1474
571 1 -1.1104 11.9064 -3.82545 23.6689
573 1 -1.1104 12.17 -3.66918 26.3694
575 1 -1.1104 12.2432 -0.902959 23.4066
576 2 2.2208 10.7309 -2.25995 25.0741
578 1 -1.1104 12.1664 -0.732386 26.2326
579 1 -1.1104 9.19492 -3.79883 23.3998
581 2 2.2208 7.81433 0.47711 24.9233
582 1 -1.1104 9.36707 -3.80731 26.3106
584 2 2.2208 7.91189 -2.4708 22.1253
586 1 -1.1104 9.31102 -0.854841 23.5938
587 1 -1.1104 9.49617 -1.15214 26.4452
512 1 -1.1104 12.2171 18.834 20.6984
597 2 2.2208 13.6142 0.392025 24.9829
467 2 2.2208 8.0312 6.19424 13.7545
343 1 -1.1104 6.58907 1.59643 20.7336
339 1 -1.1104 0.778564 1.61229 20.7705
421 1 -1.1104 0.854651 4.60734 20.6746
536 1 -1.1104 0.738848 1.71251 23.6409
540 1 -1.1104 0.964126 1.92885 26.6503
546 2 2.2208 5.09008 3.37154 24.9569
550 1 -1.1104 3.70232 1.92364 23.4411
553 1 -1.1104 3.67104 2.04457 26.3201
555 2 2.2208 2.05421 3.05024 22.1293
599 2 2.2208 5.0849 6.0402 22.2859
601 1 -1.1104 0.899245 7.38388 23.6813
603 1 -1.1104 0.961685 7.56335 26.297
605 1 -1.1104 0.898802 4.32503 23.6503
610 1 -1.1104 0.784402 4.82739 26.2729
614 1 -1.1104 3.85192 7.37901 23.7127
615 2 2.2208 2.36012 5.98106 24.8668
617 1 -1.1104 3.72837 7.49501 26.5031
619 1 -1.1104 3.54363 4.7287 23.4134
621 1 -1.1104 3.73472 4.74418 26.4574
602 1 -1.1104 6.56591 7.43792 23.6885
542 1 -1.1104 6.51012 2.07866 26.3677
607 1 -1.1104 6.36012 4.72278 23.5479
612 1 -1.1104 6.57599 4.78934 26.4121
538 1 -1.1104 6.27947 1.78313 23.4218
604 1 -1.1104 6.62983 7.67147 26.5117
678 2 2.2208 5.00183 17.4957 27.6449
8991 2 2.2208 13.4839 17.1798 19.2375
464 1 -1.1104 9.14947 4.86983 20.7759
459 1 -1.1104 9.17374 7.58946 20.9302
572 1 -1.1104 12.1544 1.7625 23.7146
574 1 -1.1104 12.0905 2.10187 26.4726
577 2 2.2208 10.7512 3.18054 25.1434
580 1 -1.1104 9.31907 1.9047 23.7413
583 1 -1.1104 9.33703 1.77908 26.4376
585 2 2.2208 8.0604 3.16827 22.1843
631 1 -1.1104 9.43181 4.51626 26.2568
633 1 -1.1104 8.98162 4.75258 23.548
635 1 -1.1104 9.26759 7.4866 26.319
637 2 2.2208 7.9897 6.1975 25.068
638 2 2.2208 10.7838 6.236 22.1572
640 1 -1.1104 12.2083 7.37172 23.743
641 1 -1.1104 11.9377 7.86689 26.5795
642 1 -1.1104 12.0193 4.64369 23.5311
645 1 -1.1104 12.1052 4.9242 26.2588
647 1 -1.1104 9.49594 7.63165 23.5436
651 2 2.2208 13.5317 11.8666 24.8788
329 2 2.2208 10.9688 20.2615 13.6826
687 2 2.2208 7.78617 14.4008 22.357
495 1 -1.1104 3.57709 13.2211 20.7733
423 1 -1.1104 0.873239 10.3428 20.8124
530 1 -1.1104 9.27597 19.0351 23.7769
600 2 2.2208 4.90162 11.7076 22.2205
606 1 -1.1104 1.0484 10.0511 23.6631
609 2 2.2208 5.19728 8.81238 25.0785
611 1 -1.1104 0.844876 10.3224 26.3628
616 2 2.2208 2.4995 11.6825 25.0889
618 2 2.2208 2.43781 8.83065 22.2235
620 1 -1.1104 3.72686 10.3533 23.591
622 1 -1.1104 3.58803 10.206 26.4863
656 1 -1.1104 3.79411 12.9723 23.6298
660 1 -1.1104 0.934095 13.1054 26.2833
666 1 -1.1104 0.970693 13.2856 23.5626
671 1 -1.1104 3.71862 12.9933 26.5842
480 1 -1.1104 6.34289 13.0845 20.7614
655 1 -1.1104 6.35134 13.1999 26.5348
504 1 -1.1104 12.1865 16.0145 26.6535
594 1 -1.1104 12.1383 18.7076 23.5875
531 2 2.2208 7.94989 17.578 25.1291
454 1 -1.1104 12.0804 10.4225 20.6649
441 1 -1.1104 12.0374 18.9126 26.659
664 1 -1.1104 6.46347 13.0079 23.8342
608 1 -1.1104 6.55759 10.0984 23.7033
510 1 -1.1104 12.3467 13.1062 20.4913
613 1 -1.1104 6.61605 10.3504 26.6765
689 1 -1.1104 9.26025 13.1603 26.4171
593 1 -1.1104 12.1082 13.1487 23.3304
630 1 -1.1104 9.27597 10.3614 26.5793
632 1 -1.1104 9.40764 10.4881 23.5057
634 2 2.2208 7.96873 8.97705 22.1403
636 2 2.2208 7.72269 11.67 25.156
639 2 2.2208 10.8525 11.7528 22.194
643 1 -1.1104 12.1535 10.3234 23.4835
644 2 2.2208 10.652 9.1287 25.1437
646 1 -1.1104 12.0645 10.4772 26.2422
505 1 -1.1104 9.31608 13.0995 23.6961
440 1 -1.1104 12.1839 13.2762 26.1994
592 2 2.2208 10.9175 17.2039 22.2171
488 1 -1.1104 1.11181 15.8611 20.9678
690 1 -1.1104 6.50224 18.7194 26.3552
684 1 -1.1104 9.43936 16.2145 26.597
502 1 -1.1104 4.03371 16.0499 20.9626
657 1 -1.1104 6.57837 15.9385 26.5233
658 1 -1.1104 0.68072 18.7665 26.587
654 1 -1.1104 3.71051 18.7548 23.6697
676 2 2.2208 2.43597 14.5701 22.3319
667 2 2.2208 5.21393 17.3323 22.2497
665 1 -1.1104 0.998475 18.8441 23.71
663 2 2.2208 5.17121 14.469 25.1605
668 1 -1.1104 3.5367 18.905 26.4659
662 2 2.2208 5.28305 20.339 25.1071
670 1 -1.1104 3.74624 15.8433 26.3774
659 1 -1.1104 0.84316 15.8256 26.6072
669 2 2.2208 2.06702 17.4772 25.2607
675 2 2.2208 2.41716 20.1813 22.2199
674 1 -1.1104 3.6228 15.9351 23.5483
673 1 -1.1104 0.738467 16.1586 23.8018
672 1 -1.1104 6.72939 15.8345 23.9137
648 2 2.2208 10.5758 6.15731 27.7744
9052 2 2.2208 13.5188 3.38251 22.3418
590 2 2.2208 7.94554 3.2143 27.7015
326 2 2.2208 8.00316 11.7206 13.7563
624 2 2.2208 2.40694 8.92189 27.7796
8180 2 2.2208 4.91456 -5.09229 27.5963
559 2 2.2208 2.12344 -2.3393 27.7079
322 2 2.2208 2.21153 5.96829 13.734
650 2 2.2208 10.683 11.8215 27.7406
595 2 2.2208 13.5731 -2.3584 27.6541
691 2 2.2208 5.07777 23.1925 5.35705
693 1 -1.1104 0.836444 24.4609 1.08998
694 1 -1.1104 0.740499 24.6763 3.774
695 1 -1.1104 0.89971 21.6547 0.90603
697 2 2.2208 5.14792 25.8856 2.30128
698 1 -1.1104 0.802596 21.5635 3.60611
700 1 -1.1104 3.76386 24.462 1.04221
701 2 2.2208 2.52717 23.0089 2.4429
703 1 -1.1104 3.89069 24.4717 3.79599
704 2 2.2208 2.42557 26.1121 5.22974
705 1 -1.1104 3.79885 21.7457 0.983168
707 1 -1.1104 3.58612 21.5246 3.76841
716 1 -1.1104 6.24034 21.6446 3.95947
713 1 -1.1104 6.61184 24.7592 3.76593
714 1 -1.1104 6.76329 21.9169 0.986595
712 1 -1.1104 6.6029 24.615 0.836888
1570 1 -1.1104 0.857268 46.6858 9.4571
836 1 -1.1104 6.46122 21.7744 6.40755
1117 2 2.2208 2.31462 34.4106 13.5572
9477 2 2.2208 13.6169 40.026 13.6199
9309 2 2.2208 13.52 25.8892 10.9211
715 1 -1.1104 6.69444 27.3641 0.963282
718 2 2.2208 10.7236 23.0189 5.35466
720 1 -1.1104 12.0779 24.6302 0.94139
721 1 -1.1104 12.3293 24.4727 3.76208
722 1 -1.1104 12.2621 21.871 1.13271
724 2 2.2208 10.7756 25.9607 2.4661
725 1 -1.1104 11.7423 21.5553 4.19051
727 1 -1.1104 9.56509 24.5222 1.18454
728 2 2.2208 8.00725 23.3048 2.42535
730 1 -1.1104 9.44071 24.7426 3.89893
731 2 2.2208 7.80849 25.9943 5.25454
732 1 -1.1104 9.31286 21.664 0.723711
734 1 -1.1104 8.99672 21.6716 3.81743
733 1 -1.1104 9.55101 27.1094 0.821409
865 1 -1.1104 12.195 24.3861 6.50122
868 1 -1.1104 9.42082 24.2918 6.73768
869 1 -1.1104 9.34662 21.4176 6.63492
736 2 2.2208 13.6132 23.1865 2.2637
1230 2 2.2208 5.16169 23.1387 -0.365843
708 1 -1.1104 3.63812 27.2875 3.58298
706 1 -1.1104 3.70143 27.2279 0.984676
696 1 -1.1104 0.732951 27.4292 0.924656
699 1 -1.1104 0.890708 27.5304 3.98306
992 1 -1.1104 12.2266 44.188 9.28584
692 2 2.2208 5.22783 28.885 5.08227
702 2 2.2208 2.15323 28.8228 2.47459
740 1 -1.1104 0.782962 30.1883 1.04371
743 1 -1.1104 1.07206 30.2469 3.69877
746 1 -1.1104 0.861171 32.8448 1.07145
747 2 2.2208 5.09984 31.6058 2.12875
749 1 -1.1104 0.851157 33.1597 3.83186
751 1 -1.1104 3.66058 29.9124 0.788489
754 1 -1.1104 3.79073 30.0526 3.66892
756 2 2.2208 2.2774 31.7768 5.15273
758 1 -1.1104 3.54727 33.1144 0.797053
759 1 -1.1104 3.63996 32.907 3.7019
893 1 -1.1104 1.15265 32.9381 6.63066
897 1 -1.1104 3.67167 33.099 6.79595
981 2 2.2208 -0.490301 45.4605 10.9129
765 1 -1.1104 6.52928 33.0937 0.916807
891 1 -1.1104 6.33113 30.0145 6.82443
1013 2 2.2208 2.19033 39.9183 13.6812
972 1 -1.1104 6.80196 41.0594 12.2396
1115 2 2.2208 5.05749 31.4828 13.6657
726 1 -1.1104 12.3205 27.4567 3.9496
723 1 -1.1104 12.2847 27.2485 1.1258
763 1 -1.1104 6.54553 30.1991 0.882479
735 1 -1.1104 9.45636 27.4723 3.7266
717 1 -1.1104 6.51203 27.5099 3.68063
750 1 -1.1104 6.44921 33.1277 3.87356
764 1 -1.1104 6.67901 30.3727 3.86658
719 2 2.2208 10.7384 28.712 5.0872
729 2 2.2208 8.02018 28.7278 2.40769
767 1 -1.1104 12.0467 29.9862 1.07982
769 1 -1.1104 11.8899 30.2791 3.91919
771 1 -1.1104 12.0632 32.8643 1.02504
772 2 2.2208 10.6788 31.5068 2.42836
774 1 -1.1104 12.3776 32.7858 3.61339
775 1 -1.1104 9.43936 30.0517 0.943239
778 1 -1.1104 9.41923 30.1584 3.66015
780 2 2.2208 7.97211 31.652 5.14601
782 1 -1.1104 9.27825 32.8067 0.857669
783 1 -1.1104 9.35078 33.001 3.65068
925 1 -1.1104 12.3611 33.1111 6.3963
928 1 -1.1104 9.55339 33.0264 6.68657
837 1 -1.1104 6.61632 27.4814 6.55618
867 1 -1.1104 11.9188 27.3671 6.62826
1321 2 2.2208 10.6326 34.1033 -0.359223
809 2 2.2208 -0.390233 42.8863 2.35616
739 2 2.2208 5.01079 34.493 5.49285
741 1 -1.1104 0.892648 35.8022 0.863391
744 1 -1.1104 1.12807 35.8784 3.63973
748 2 2.2208 5.21149 37.1627 2.3152
752 1 -1.1104 3.71956 35.6306 0.996066
753 2 2.2208 2.18113 34.4039 2.17972
755 1 -1.1104 3.81838 35.6736 3.87928
757 2 2.2208 2.27464 37.2309 5.18944
785 2 2.2208 5.23986 40.1216 5.03409
791 1 -1.1104 1.01717 38.7764 1.03469
796 1 -1.1104 0.947536 38.5884 3.76356
801 2 2.2208 2.34094 40.0031 2.59774
805 1 -1.1104 3.80449 38.4338 0.84987
807 1 -1.1104 3.66808 38.7006 3.81385
896 1 -1.1104 3.72693 35.7763 6.65774
1231 2 2.2208 2.19758 25.799 -0.233857
892 1 -1.1104 6.49035 36.0523 6.56028
1002 1 -1.1104 9.34556 44.3146 6.37108
994 2 2.2208 11.0365 42.7587 8.02881
985 1 -1.1104 9.21875 44.2688 12.1345