ITEM: TIMESTEP
30000
ITEM: NUMBER OF ATOMS
17640
ITEM: BOX BOUNDS pp pp pp
-4.2876648531669848e-01 2.7768766485316423e+01
-5.2729128807042125e+00 3.3335291288068953e+02
-4.4502384733481065e-01 2.7785023847334589e+01
ITEM: ATOMS id type q x y z
1 2 2.2208 5.16204 0.39699 5.32382
2 1 -1.1104 1.1012 -4.27209 0.859861
6 1 -1.1104 0.871545 -3.95648 3.83446
10 1 -1.1104 1.00998 -0.888186 0.807381
12 2 2.2208 5.24998 -2.41213 2.42681
14 1 -1.1104 1.29562 -1.02971 3.82951
16 1 -1.1104 3.87323 -3.91954 0.957361
18 2 2.2208 2.42527 0.369464 2.30468
19 1 -1.1104 3.74907 -3.85248 3.79252
21 2 2.2208 2.52237 -2.53822 5.30655
23 1 -1.1104 3.8573 -1.07818 0.846066
24 1 -1.1104 4.04058 -0.909642 3.58747
172 1 -1.1104 3.92604 -3.79674 6.71349
8094 2 2.2208 11.272 -5.1136 10.8119
25 2 2.2208 -0.343577 -2.43452 2.40061
232 1 -1.1104 12.2454 16.0158 9.53696
174 1 -1.1104 3.64256 -1.17561 6.6645
166 1 -1.1104 1.23113 -3.97144 6.75468
136 2 2.2208 -0.163761 20.1134 2.36406
650 2 2.2208 10.9965 11.782 -0.411617
8 1 -1.1104 6.56644 -3.91467 4.00577
171 1 -1.1104 6.28672 -1.00584 6.70532
11 1 -1.1104 6.72221 -1.21381 1.10334
4 1 -1.1104 6.66907 -3.85262 1.057
15 1 -1.1104 6.74416 -1.09614 3.92946
31 2 2.2208 10.8427 0.368871 5.20584
32 1 -1.1104 12.5818 -3.86198 1.03454
34 1 -1.1104 12.6164 -3.83869 3.83627
36 1 -1.1104 12.2929 -0.897694 0.981562
37 2 2.2208 11.0024 -2.41435 2.32602
39 1 -1.1104 12.3844 -1.13496 3.90348
40 1 -1.1104 9.61853 -3.94883 0.970926
42 2 2.2208 8.07854 0.215991 2.44338
43 1 -1.1104 9.48544 -3.82632 3.94092
45 2 2.2208 8.23645 -2.50431 5.27403
47 1 -1.1104 9.54264 -0.867443 0.910291
48 1 -1.1104 9.62868 -1.0773 3.43052
208 1 -1.1104 9.80344 -3.70888 6.57942
210 1 -1.1104 9.41389 -0.922237 6.37006
168 1 -1.1104 6.87034 -3.88585 6.74384
205 1 -1.1104 12.6559 -3.78472 6.64417
8085 2 2.2208 5.29562 -5.22724 5.28378
135 2 2.2208 -0.171203 14.5427 2.43225
503 2 2.2208 2.51815 17.3515 13.5279
82 2 2.2208 -0.0942865 8.9477 2.43308
3 1 -1.1104 1.12588 1.83712 0.827043
7 1 -1.1104 1.09114 2.05988 3.81232
13 2 2.2208 5.25088 3.22786 2.49821
17 1 -1.1104 4.06539 1.87923 1.22904
20 1 -1.1104 3.80947 1.681 4.02913
22 2 2.2208 2.41725 3.15071 5.26032
54 2 2.2208 5.4008 5.94776 5.30519
56 1 -1.1104 1.3309 7.59208 1.01387
60 1 -1.1104 1.35994 4.68337 0.921003
67 1 -1.1104 1.30633 4.69854 3.85948
71 1 -1.1104 3.93015 7.47203 0.967906
72 2 2.2208 2.60721 5.98345 2.28682
74 1 -1.1104 4.07987 7.45592 3.99794
76 1 -1.1104 3.84979 4.81882 0.865072
79 1 -1.1104 3.8885 4.61214 3.99155
58 1 -1.1104 1.16024 7.42667 3.63104
59 1 -1.1104 6.94827 7.43123 3.86064
9 1 -1.1104 6.5793 1.75153 3.69909
239 1 -1.1104 3.7365 4.56733 6.72313
234 1 -1.1104 1.17555 7.33352 6.61695
167 1 -1.1104 0.840556 1.65655 6.58088
30 2 2.2208 -0.426978 11.6661 10.8162
81 2 2.2208 -0.263596 5.89636 5.0577
173 1 -1.1104 3.87917 1.72449 6.83195
52 2 2.2208 13.6621 3.18269 5.0817
57 1 -1.1104 6.83418 7.49684 1.05438
69 1 -1.1104 6.68782 4.37278 3.9168
5 1 -1.1104 6.58804 1.69832 0.803592
63 1 -1.1104 6.68266 4.77254 1.15409
33 1 -1.1104 12.3287 1.98479 1.19064
35 1 -1.1104 12.273 1.80687 3.8604
38 2 2.2208 10.9691 3.42652 2.55242
41 1 -1.1104 9.47063 1.7556 0.977556
44 1 -1.1104 9.34605 1.81533 3.89273
46 2 2.2208 8.1088 3.14461 5.34697
84 2 2.2208 11.0405 6.20723 5.19272
86 1 -1.1104 12.4457 7.41338 1.22927
87 1 -1.1104 12.687 7.51108 3.90661
88 1 -1.1104 12.226 4.64313 0.928305
92 1 -1.1104 12.5107 4.69228 3.80913
94 1 -1.1104 9.64828 7.44768 0.692205
95 2 2.2208 7.97461 5.83494 2.40394
97 1 -1.1104 9.71529 7.35202 3.69266
99 1 -1.1104 9.45957 4.62911 1.17835
102 1 -1.1104 9.62614 4.7022 3.85606
266 1 -1.1104 12.3551 4.5868 6.73918
265 1 -1.1104 12.3913 7.62589 6.6374
267 1 -1.1104 9.48043 7.71281 6.65256
235 1 -1.1104 6.78485 7.33325 6.66548
209 1 -1.1104 9.42812 1.7942 6.53039
269 1 -1.1104 9.42322 4.56172 6.81308
648 2 2.2208 10.8241 6.00326 -0.434508
55 2 2.2208 5.29776 11.6124 5.36303
61 1 -1.1104 1.4755 10.4609 0.92366
66 2 2.2208 5.478 8.85955 2.44135
68 1 -1.1104 1.24239 10.4311 3.83887
73 2 2.2208 2.85064 11.7641 2.31117
75 2 2.2208 2.66339 8.81783 5.19836
77 1 -1.1104 4.33559 10.4717 1.09608
80 1 -1.1104 4.09497 10.1506 3.91092
107 1 -1.1104 1.12829 13.2124 0.945108
113 1 -1.1104 1.34869 13.1638 3.63581
123 1 -1.1104 3.75333 13.409 1.00269
128 1 -1.1104 4.13068 13.0928 3.80709
110 1 -1.1104 6.69113 13.1685 1.03499
199 2 2.2208 -0.401735 3.09963 7.98407
8087 2 2.2208 8.30331 -5.08024 2.5161
78 1 -1.1104 4.04589 10.3712 6.86512
65 1 -1.1104 6.88098 10.471 6.72166
8093 2 2.2208 8.20219 -5.17248 8.13144
588 2 2.2208 11.0426 0.454491 -0.238188
203 1 -1.1104 12.3821 15.8021 12.4116
111 1 -1.1104 6.86347 13.0819 6.4835
115 1 -1.1104 6.90702 13.1637 3.59858
70 1 -1.1104 6.68936 10.326 3.43001
64 1 -1.1104 7.04475 10.3476 0.575117
85 2 2.2208 10.9327 11.8957 5.3301
89 1 -1.1104 12.4389 10.3519 0.99297
91 2 2.2208 10.9273 8.77957 2.1719
93 1 -1.1104 12.3612 10.4779 3.69524
96 2 2.2208 8.09222 11.5776 2.20828
98 2 2.2208 8.26893 8.93461 5.25142
100 1 -1.1104 9.89647 10.2878 0.939919
103 1 -1.1104 9.42815 10.2358 4.02237
142 1 -1.1104 12.5382 13.3012 1.18412
146 1 -1.1104 12.4272 13.3936 4.05527
153 1 -1.1104 9.41061 13.0276 1.03795
158 1 -1.1104 9.73876 13.1241 3.83644
154 1 -1.1104 9.51631 13.1403 6.57633
101 1 -1.1104 9.76732 10.2744 6.72098
143 1 -1.1104 12.5176 13.0218 6.64829
90 1 -1.1104 12.3568 10.4947 6.53475
27 2 2.2208 -0.165645 3.26124 2.22006
306 1 -1.1104 6.60164 15.9271 12.215
130 2 2.2208 2.62514 14.4895 5.16964
119 2 2.2208 5.35857 14.6019 2.38961
106 2 2.2208 5.38508 17.4808 5.33445
109 1 -1.1104 1.2084 18.5456 0.859517
114 1 -1.1104 1.11757 18.7499 3.59197
116 1 -1.1104 0.965686 16.1063 0.938937
120 2 2.2208 5.45641 20.1182 2.37833
121 1 -1.1104 1.18572 15.8941 4.00879
125 1 -1.1104 3.99091 19.0128 1.0031
127 2 2.2208 2.50683 17.4618 2.48169
129 1 -1.1104 4.13154 18.9988 3.70936
131 2 2.2208 2.5156 20.1122 5.05064
132 1 -1.1104 4.06491 16.058 1.0057
134 1 -1.1104 3.95764 16.0586 3.81025
302 1 -1.1104 1.08093 18.7848 6.32351
133 1 -1.1104 3.80775 15.8911 6.73469
404 2 2.2208 8.25599 0.295958 13.6344
137 2 2.2208 -0.332957 17.2737 5.17591
28 2 2.2208 -0.262871 6.08617 10.8968
558 2 2.2208 5.29687 0.357139 -0.427628
138 1 -1.1104 7.05436 18.8466 0.801685
140 1 -1.1104 6.64789 15.8979 0.945346
118 1 -1.1104 6.61239 16.0411 6.70919
122 1 -1.1104 6.83104 15.9329 4.0254
139 1 -1.1104 6.96119 18.6534 3.51892
160 2 2.2208 8.21435 14.4099 5.13087
141 2 2.2208 11.0233 17.353 5.20678
144 1 -1.1104 12.3604 19.0103 1.23325
147 1 -1.1104 12.6571 18.7658 4.07852
148 1 -1.1104 12.4441 16.1329 1.02952
150 2 2.2208 11.0288 14.6243 2.50126
151 2 2.2208 10.967 20.2298 2.6852
152 1 -1.1104 12.5495 16.0171 3.81209
155 1 -1.1104 9.63145 18.5658 1.16532
157 2 2.2208 8.12618 17.1454 2.17585
159 1 -1.1104 9.7899 18.9019 4.01637
161 2 2.2208 8.11648 20.1665 5.28811
162 1 -1.1104 9.54388 15.6621 1.05648
164 1 -1.1104 9.68529 15.942 3.67583
296 1 -1.1104 6.6074 18.825 12.247
315 1 -1.1104 9.45325 15.7333 12.3249
321 1 -1.1104 9.30398 18.7094 12.2376
170 1 -1.1104 0.909336 -1.29707 6.72752
26 2 2.2208 -0.183004 0.324368 5.1285
678 2 2.2208 5.30306 17.5864 -0.330526
175 2 2.2208 5.35503 0.24452 10.9387
176 1 -1.1104 1.00128 -3.88697 12.3232
180 1 -1.1104 1.09095 -3.97115 9.69207
184 1 -1.1104 1.54902 -1.28913 12.8369
186 2 2.2208 5.26443 -2.56444 8.09471
188 1 -1.1104 1.20664 -1.14426 9.64679
190 1 -1.1104 4.28964 -4.00214 12.4735
192 2 2.2208 2.55162 0.31922 8.07766
193 1 -1.1104 3.91892 -4.01979 9.61803
195 2 2.2208 2.50486 -2.56006 11.1236
197 1 -1.1104 4.26719 -1.30211 12.3674
198 1 -1.1104 4.04931 -1.07222 9.53667
201 2 2.2208 -0.22055 0.360573 10.831
200 2 2.2208 -0.38278 -2.63865 8.04856
326 2 2.2208 8.26398 11.7001 13.5907
207 1 -1.1104 12.2448 -0.806048 6.48982
329 2 2.2208 10.9466 20.1572 13.6119
178 1 -1.1104 6.91455 -3.72966 12.3114
189 1 -1.1104 6.82662 -1.04655 9.48931
145 1 -1.1104 12.3299 18.6884 6.65848
317 2 2.2208 8.33264 14.4368 10.7416
185 1 -1.1104 7.04592 -0.873709 12.337
182 1 -1.1104 6.86198 -3.74228 9.49893
211 2 2.2208 11.0731 0.495866 10.5776
212 1 -1.1104 12.6765 -3.72783 12.2184
214 1 -1.1104 12.7245 -3.71378 9.43672
216 1 -1.1104 12.4962 -0.847703 12.1574
217 2 2.2208 11.1913 -2.40425 8.08781
219 1 -1.1104 12.4983 -1.05491 9.53278
220 1 -1.1104 9.73345 -4.00639 12.2955
222 2 2.2208 8.02023 0.291934 8.08586
223 1 -1.1104 9.61214 -3.86285 9.49329
225 2 2.2208 8.28542 -2.54916 10.9019
227 1 -1.1104 9.88237 -0.975154 12.0442
228 1 -1.1104 9.56579 -0.921262 9.19169
406 2 2.2208 11.1401 3.08154 13.5288
236 1 -1.1104 1.05038 4.49189 6.4598
8817 2 2.2208 -0.314538 14.5081 13.5688
169 1 -1.1104 6.70888 1.86834 6.66639
8088 2 2.2208 11.0928 -5.27256 5.25316
156 1 -1.1104 9.55224 18.9305 6.79262
237 1 -1.1104 6.60415 4.60934 6.74838
238 1 -1.1104 3.86701 7.61253 6.64639
177 1 -1.1104 1.10316 1.65398 12.205
181 1 -1.1104 1.0563 1.74945 9.30315
187 2 2.2208 5.18074 3.2086 8.15125
191 1 -1.1104 3.99723 1.61141 12.3711
194 1 -1.1104 3.72121 1.6461 9.77118
196 2 2.2208 2.56684 3.24133 10.9845
240 2 2.2208 5.29618 6.05135 11.0472
242 1 -1.1104 1.00909 7.49489 12.3129
246 1 -1.1104 0.982294 4.62438 11.9979
251 1 -1.1104 1.14192 4.62509 9.20484
255 1 -1.1104 3.97959 7.48577 12.2397
256 2 2.2208 2.43679 5.92393 7.96626
258 1 -1.1104 3.70699 7.34481 9.47838
260 1 -1.1104 4.19303 4.52126 12.3703
262 1 -1.1104 3.82421 4.66933 9.55461
244 1 -1.1104 0.942773 7.41435 9.49336
245 1 -1.1104 6.93476 7.54074 9.59736
320 2 2.2208 8.13826 17.3629 7.9506
253 1 -1.1104 6.55178 4.7075 9.46742
248 1 -1.1104 6.98986 4.50332 12.5936
243 1 -1.1104 6.71541 7.48529 12.574
183 1 -1.1104 6.62531 1.84006 9.48102
179 1 -1.1104 6.78441 1.78394 12.2101
206 1 -1.1104 12.1871 1.90958 6.48932
213 1 -1.1104 12.4311 2.00952 12.0603
215 1 -1.1104 12.421 1.87222 9.25706
218 2 2.2208 10.9158 3.31704 8.07143
221 1 -1.1104 9.85308 1.72879 12.3126
224 1 -1.1104 9.62551 1.88023 9.23424
226 2 2.2208 8.22241 3.22696 10.9088
268 1 -1.1104 9.49558 4.65792 9.65196
271 1 -1.1104 9.78282 4.61616 12.4064
273 1 -1.1104 9.67067 7.45658 9.50417
275 2 2.2208 8.10771 6.01382 8.28832
276 2 2.2208 11.0529 6.09792 10.9549
278 1 -1.1104 12.4866 7.4559 12.3594
279 1 -1.1104 12.3895 7.45993 9.48126
280 1 -1.1104 12.6168 4.82299 12.3446
283 1 -1.1104 12.2668 4.76826 9.3475
285 1 -1.1104 9.69208 7.57596 12.3134
316 2 2.2208 8.16425 19.9274 10.8737
83 2 2.2208 -0.08577 11.6453 5.24917
62 1 -1.1104 1.19453 10.1825 6.82099
124 1 -1.1104 3.96587 13.0571 6.85464
108 1 -1.1104 1.3697 13.0964 6.5174
241 2 2.2208 5.23715 11.7035 10.9195
247 1 -1.1104 1.25913 10.3542 12.3455
250 2 2.2208 5.17384 8.72857 8.23066
252 1 -1.1104 1.151 10.4873 9.60289
257 2 2.2208 2.43731 11.598 8.14292
259 2 2.2208 2.47041 8.87665 11.0219
261 1 -1.1104 4.10908 10.0829 12.3086
263 1 -1.1104 3.95088 10.2919 9.5995
287 1 -1.1104 3.95588 13.077 12.5665
294 1 -1.1104 1.26135 13.2171 9.38551
299 1 -1.1104 1.17139 13.0592 12.1832
305 1 -1.1104 4.11077 13.168 9.59088
290 1 -1.1104 6.81782 13.1342 9.25529
297 1 -1.1104 6.92695 13.1045 12.0481
312 1 -1.1104 12.1439 18.4875 12.1524
163 1 -1.1104 9.41107 15.949 6.52742
29 2 2.2208 -0.351713 8.72651 8.01282
288 1 -1.1104 6.64095 18.5816 9.43369
254 1 -1.1104 6.98824 10.428 9.83018
249 1 -1.1104 6.77525 10.3031 12.6493
319 1 -1.1104 9.56985 13.1088 9.38561
233 1 -1.1104 9.66693 13.0318 12.0487
264 1 -1.1104 9.60312 10.4002 9.47232
270 1 -1.1104 9.82732 10.2377 12.1931
272 2 2.2208 8.28613 8.90122 11.1159
274 2 2.2208 8.15734 11.669 8.06944
277 2 2.2208 11.1907 11.5033 10.7419
281 1 -1.1104 12.4386 10.2804 12.3498
282 2 2.2208 10.9649 8.91671 7.95708
284 1 -1.1104 12.4946 10.0409 9.50463
53 1 -1.1104 12.5563 13.0906 9.31077
105 1 -1.1104 12.4295 12.9709 12.2386
104 2 2.2208 10.7226 17.3216 10.9454
8180 2 2.2208 5.26784 -5.27253 -0.137295
202 1 -1.1104 12.4689 18.7791 9.45265
149 1 -1.1104 12.2658 15.8409 6.64896
289 1 -1.1104 6.83793 15.8726 9.57226
313 2 2.2208 -0.124042 14.5922 8.13635
126 1 -1.1104 3.57987 18.6368 6.71636
117 1 -1.1104 0.932903 16.1267 6.61118
310 2 2.2208 2.52722 14.3798 10.8515
295 2 2.2208 5.31703 14.5434 8.09148
286 1 -1.1104 3.61807 18.6242 12.2902
291 1 -1.1104 0.926288 18.8304 9.26975
292 1 -1.1104 0.914541 15.9597 9.48736
293 2 2.2208 5.41966 20.1797 8.24889
298 1 -1.1104 0.936711 18.5021 12.1133
300 2 2.2208 5.24339 17.1187 10.7589
301 1 -1.1104 3.90519 18.6719 9.27922
303 2 2.2208 2.40618 17.3674 8.04229
304 1 -1.1104 3.91195 15.8616 9.50928
307 1 -1.1104 0.957951 15.944 12.3679
308 1 -1.1104 3.78277 15.8952 12.3175
309 2 2.2208 2.51142 20.1687 10.7848
204 2 2.2208 11.0184 14.5667 8.14256
112 1 -1.1104 6.5787 18.8112 6.54303
231 2 2.2208 10.9678 20.0309 8.08897
314 1 -1.1104 9.62009 16.0816 9.31693
318 1 -1.1104 9.71705 18.725 9.43686
624 2 2.2208 2.74681 8.82013 -0.395326
679 2 2.2208 2.49838 14.6657 -0.414433
532 2 2.2208 8.05921 17.3187 13.649
590 2 2.2208 8.19061 3.07014 -0.353573
565 2 2.2208 10.9641 17.3096 -0.326754
331 2 2.2208 5.40329 0.379342 16.6202
332 1 -1.1104 1.17791 -3.72051 17.9553
336 1 -1.1104 1.22077 -3.904 15.1858
344 1 -1.1104 1.20984 -0.920972 18.1477
346 2 2.2208 5.37992 -2.45941 19.4973
348 1 -1.1104 1.3922 -0.869511 15.363
352 1 -1.1104 4.19119 -3.92998 17.9793
354 2 2.2208 2.56337 0.292763 19.5654
355 1 -1.1104 4.08967 -3.94298 15.1475
359 2 2.2208 2.73689 -2.52521 16.6263
361 1 -1.1104 4.00573 -1.08318 18.074
362 1 -1.1104 4.14161 -1.06773 15.3328
356 1 -1.1104 4.04688 -4.06092 20.9523
337 1 -1.1104 1.13258 -3.96793 20.7558
366 2 2.2208 -0.256837 6.00316 16.5022
349 1 -1.1104 1.0203 -1.24147 20.8571
363 1 -1.1104 3.97594 -1.15628 20.9345
367 2 2.2208 -0.168512 0.478333 16.5505
9030 2 2.2208 -0.145718 20.2816 19.179
324 2 2.2208 2.60778 11.858 13.8454
340 1 -1.1104 7.02827 -4.03863 15.0684
350 1 -1.1104 6.87208 -1.12407 15.1139
345 1 -1.1104 6.72179 -1.04196 17.9301
334 1 -1.1104 6.80967 -3.58491 18.0481
374 2 2.2208 11.2106 0.555729 16.4696
375 1 -1.1104 12.5 -3.81828 18.0172
377 1 -1.1104 12.6197 -3.83335 15.0955
381 1 -1.1104 12.5694 -0.875943 17.8947
382 2 2.2208 11.0922 -2.28897 19.2221
384 1 -1.1104 12.512 -0.822822 15.1072
386 1 -1.1104 9.76513 -3.89223 18.0513
388 2 2.2208 8.39094 0.360678 19.3416
389 1 -1.1104 9.69816 -3.92551 15.2246
393 2 2.2208 8.2015 -2.39366 16.4295
395 1 -1.1104 9.83459 -1.04646 17.8122
396 1 -1.1104 9.58365 -1.23777 14.9318
328 2 2.2208 5.25209 14.6322 13.792
341 1 -1.1104 6.82259 -3.99319 20.9596
589 2 2.2208 8.24795 -2.41811 27.7203
333 1 -1.1104 1.25256 1.69853 17.9767
338 1 -1.1104 1.29876 1.94175 14.8572
347 2 2.2208 5.4611 3.16617 19.2477
353 1 -1.1104 3.97211 1.69916 18.0333
357 1 -1.1104 4.07757 1.9579 15.2717
360 2 2.2208 2.65382 3.34452 16.4438
407 2 2.2208 5.39066 5.98984 16.4832
409 1 -1.1104 1.06765 7.50209 17.6637
411 1 -1.1104 1.31792 7.70164 14.9494
415 1 -1.1104 0.948319 4.41494 17.6535
420 1 -1.1104 1.10126 4.72193 14.8817
428 1 -1.1104 3.80841 7.71301 17.7628
429 2 2.2208 2.43795 6.1507 19.1809
431 1 -1.1104 3.98392 7.38847 15.0415
434 1 -1.1104 3.70745 4.9085 17.8265
436 1 -1.1104 4.1536 4.62542 15.068
437 1 -1.1104 3.88432 4.63671 20.7049
339 1 -1.1104 1.06987 1.77215 20.9013
358 1 -1.1104 3.94175 1.89184 20.7076
8212 2 2.2208 8.31073 -5.13756 19.4152
421 1 -1.1104 1.1635 4.7345 20.8866
399 2 2.2208 -0.232225 3.13907 19.2712
342 1 -1.1104 6.85943 1.81696 15.1118
424 1 -1.1104 6.81658 4.60812 15.0888
410 1 -1.1104 6.71782 7.39632 17.8815
425 1 -1.1104 6.95848 4.58725 20.8196
417 1 -1.1104 6.79162 4.47275 18.0036
413 1 -1.1104 7.00994 7.5066 15.2005
335 1 -1.1104 6.9408 1.73169 18.0088
376 1 -1.1104 12.6648 1.87599 17.7571
379 1 -1.1104 12.6099 1.76914 14.8578
383 2 2.2208 11.0563 3.38353 19.2625
387 1 -1.1104 9.85085 1.80876 17.9791
391 1 -1.1104 9.7038 1.56753 14.9652
394 2 2.2208 8.11638 3.0762 16.512
443 2 2.2208 11.0791 6.15176 16.5032
446 1 -1.1104 12.7072 7.43287 15.011
448 1 -1.1104 12.3412 4.84221 17.74
451 1 -1.1104 12.2526 4.53301 15.1656
455 1 -1.1104 9.61241 7.47354 17.9593
456 2 2.2208 8.29435 5.97506 19.2694
458 1 -1.1104 9.63377 7.40978 15.1239
461 1 -1.1104 9.46246 4.59469 17.7908
463 1 -1.1104 9.55183 4.19227 15.2198
445 1 -1.1104 12.4394 7.6184 17.9362
464 1 -1.1104 9.51651 4.63671 20.7247
447 1 -1.1104 12.6123 7.63942 20.9166
459 1 -1.1104 9.47556 7.39945 20.8676
623 2 2.2208 5.4246 5.95169 27.6388
408 2 2.2208 5.42616 11.7305 16.4953
416 1 -1.1104 1.22532 10.4685 17.808
419 2 2.2208 5.34842 8.91094 19.4128
422 1 -1.1104 1.15225 10.6484 15.011
430 2 2.2208 2.67259 11.8549 19.4107
433 2 2.2208 2.49099 9.09101 16.3895
435 1 -1.1104 3.88001 10.4125 17.8417
438 1 -1.1104 3.89324 10.2614 15.1212
471 1 -1.1104 1.25789 13.1113 18.1189
475 1 -1.1104 1.08205 13.2674 15.0987
491 1 -1.1104 3.96973 13.251 18.0676
494 1 -1.1104 3.89811 13.2577 15.2896
426 1 -1.1104 7.01101 10.3782 15.2468
495 1 -1.1104 4.04753 13.297 20.8814
423 1 -1.1104 1.14077 10.1086 20.7697
479 1 -1.1104 6.69035 13.188 14.9881
504 1 -1.1104 12.5566 16.1541 26.2484
370 2 2.2208 -0.178748 8.94983 19.2976
8926 2 2.2208 -0.219466 11.8367 16.4799
473 1 -1.1104 6.80384 13.2184 17.8334
418 1 -1.1104 6.76543 10.3709 17.9101
444 2 2.2208 10.9493 11.7712 16.5589
449 1 -1.1104 12.2905 10.3827 17.9197
450 2 2.2208 11.0023 9.09708 19.5214
453 1 -1.1104 12.4748 10.276 15.009
457 2 2.2208 8.02584 11.7927 19.3448
460 2 2.2208 8.12047 8.82231 16.5546
462 1 -1.1104 9.33548 10.2622 18.1921
465 1 -1.1104 9.78171 10.1979 15.1304
507 1 -1.1104 12.3988 13.1732 17.9717
509 1 -1.1104 12.2787 13.0748 15.2157
518 1 -1.1104 9.56845 13.1528 18.076
521 1 -1.1104 9.49417 12.9868 14.9875
454 1 -1.1104 12.5134 10.4227 20.8237
466 1 -1.1104 9.72668 10.1374 21.1393
510 1 -1.1104 12.2175 13.0202 20.7572
522 1 -1.1104 9.53557 12.9255 20.7444
661 1 -1.1104 6.64661 19.1406 23.5111
566 2 2.2208 -0.344749 0.292679 27.6576
365 2 2.2208 -0.271802 14.5884 19.3354
485 2 2.2208 5.34739 14.6496 19.2065
470 2 2.2208 5.35649 17.321 16.4937
472 1 -1.1104 1.08352 18.8442 17.8371
477 1 -1.1104 1.06073 18.6716 14.8929
483 1 -1.1104 1.07034 16.0896 17.8933
486 2 2.2208 5.37938 20.0564 19.2866
487 1 -1.1104 1.02474 16.0849 15.1302
492 1 -1.1104 3.86315 18.7102 17.9277
493 2 2.2208 2.59778 17.338 19.3986
496 1 -1.1104 4.05327 18.7882 15.1519
498 2 2.2208 2.49886 14.7933 16.5212
499 2 2.2208 2.3704 20.2553 16.6248
500 1 -1.1104 3.76367 16.1427 17.8593
501 1 -1.1104 3.76439 15.9728 15.1705
489 1 -1.1104 6.77523 15.9206 15.1099
497 1 -1.1104 3.96363 18.9416 20.8307
482 1 -1.1104 6.9054 18.7604 20.7562
8142 2 2.2208 10.8289 -5.03413 22.2123
9032 2 2.2208 -0.236237 17.4564 16.4437
488 1 -1.1104 1.26925 16.0578 20.8068
369 2 2.2208 -0.21496 -2.58716 13.745
481 1 -1.1104 6.57856 18.623 15.0779
474 1 -1.1104 6.98596 18.801 18.028
484 1 -1.1104 6.6779 15.8556 17.872
525 2 2.2208 8.14566 14.4698 16.4839
506 2 2.2208 10.7633 17.3094 16.5285
508 1 -1.1104 12.2068 18.6999 18.0469
511 1 -1.1104 12.3255 18.6316 14.9776
513 1 -1.1104 12.2223 15.9923 17.9391
514 2 2.2208 10.9789 14.5484 19.2673
515 2 2.2208 10.8223 20.2651 19.192
516 1 -1.1104 12.4954 15.7467 15.0776
519 1 -1.1104 9.53975 18.4764 17.9752
520 2 2.2208 8.30458 17.2159 19.4541
523 1 -1.1104 9.39306 18.7713 15.1583
526 2 2.2208 8.104 20.0591 16.5057
527 1 -1.1104 9.49867 15.9296 17.8992
528 1 -1.1104 9.72474 16.1865 14.8563
529 1 -1.1104 9.64172 15.8289 20.8929
512 1 -1.1104 12.4312 18.6153 20.7616
441 1 -1.1104 12.3577 18.8603 26.527
686 2 2.2208 8.3002 20.3585 22.0393
531 2 2.2208 8.19818 17.5211 24.9528
628 2 2.2208 -0.300974 11.484 22.0654
371 2 2.2208 5.57095 -2.54625 13.7923
567 2 2.2208 -0.222328 -2.58316 25.0312
568 2 2.2208 -0.20937 0.273688 22.1343
559 2 2.2208 2.52815 -2.49631 27.6275
681 2 2.2208 -0.413011 17.097 27.7596
534 2 2.2208 5.64005 0.300057 22.1941
535 1 -1.1104 1.24583 -4.26385 23.4088
539 1 -1.1104 0.990539 -4.0473 26.3988
543 1 -1.1104 1.23023 -1.1452 23.7037
545 2 2.2208 5.33547 -2.6439 25.1064
547 1 -1.1104 1.215 -1.24539 26.2128
549 1 -1.1104 3.82325 -3.95081 23.7754
551 2 2.2208 2.79387 0.188582 24.9052
552 1 -1.1104 3.90757 -3.95395 26.5455
554 2 2.2208 2.47918 -2.60417 22.2283
556 1 -1.1104 4.19499 -1.31008 23.5437
557 1 -1.1104 3.9524 -1.15516 26.3337
541 1 -1.1104 6.90827 -4.07723 26.5474
378 1 -1.1104 12.2797 -3.58817 20.6912
351 1 -1.1104 6.91368 -1.06219 20.8203
397 1 -1.1104 9.83162 -0.926283 20.7999
537 1 -1.1104 6.93732 -4.08808 23.7561
544 1 -1.1104 6.81785 -1.02983 23.6203
627 2 2.2208 -0.15498 8.73455 24.9142
385 1 -1.1104 12.6366 -0.726043 20.9095
548 1 -1.1104 6.48796 -0.916603 26.266
390 1 -1.1104 9.47471 -3.73225 21.004
570 2 2.2208 11.0811 0.398209 22.1011
571 1 -1.1104 12.2902 -3.7717 23.7168
573 1 -1.1104 12.3187 -3.89601 26.5172
575 1 -1.1104 12.7105 -1.0561 23.6891
576 2 2.2208 11.1145 -2.53317 25.1379
578 1 -1.1104 12.2732 -0.992284 26.4858
579 1 -1.1104 9.53709 -3.89051 23.8417
581 2 2.2208 8.25415 0.47581 25.1241
582 1 -1.1104 9.78792 -3.94818 26.4439
584 2 2.2208 8.28663 -2.65421 22.5097
586 1 -1.1104 9.70978 -1.02084 23.6079
587 1 -1.1104 9.50183 -1.28545 26.2927
432 1 -1.1104 4.05466 7.58157 20.6253
412 1 -1.1104 0.956516 7.48684 20.547
536 1 -1.1104 1.48404 1.72876 23.646
540 1 -1.1104 1.07773 1.7996 26.5489
546 2 2.2208 5.39684 3.1465 24.9507
550 1 -1.1104 4.02352 1.76746 23.5444
553 1 -1.1104 4.06034 1.51393 26.3054
555 2 2.2208 2.63309 3.27748 22.2371
599 2 2.2208 5.39407 5.96365 22.0486
601 1 -1.1104 1.23864 7.28334 23.4398
603 1 -1.1104 1.149 7.64378 26.4243
605 1 -1.1104 1.19973 4.24681 23.5218
610 1 -1.1104 1.1004 4.62672 26.2743
614 1 -1.1104 3.93621 7.21434 23.4531
615 2 2.2208 2.37844 5.91006 24.7529
617 1 -1.1104 4.0659 7.39771 26.421
619 1 -1.1104 3.97067 4.51399 23.6243
621 1 -1.1104 3.97415 4.51318 26.2827
569 2 2.2208 -0.230684 3.02032 24.8644
364 2 2.2208 -0.325984 6.12362 21.9626
468 2 2.2208 11.2284 14.6904 25.1053
380 1 -1.1104 12.2655 1.87377 20.4123
343 1 -1.1104 6.91702 1.66459 20.6581
414 1 -1.1104 6.82616 7.44862 20.7282
452 1 -1.1104 12.3139 4.66407 20.6622
8250 2 2.2208 2.58201 -5.30254 19.3166
602 1 -1.1104 6.57513 7.61413 23.5947
542 1 -1.1104 6.83324 1.80321 26.4634
594 1 -1.1104 12.561 18.8106 23.564
607 1 -1.1104 6.62625 4.53706 23.4491
612 1 -1.1104 6.81649 4.87217 26.2832
604 1 -1.1104 6.72199 7.52334 26.3027
538 1 -1.1104 6.7615 1.8541 23.7661
392 1 -1.1104 9.55919 1.77134 20.9066
572 1 -1.1104 12.4364 1.84786 23.4317
574 1 -1.1104 12.5331 1.84394 26.4832
577 2 2.2208 11.1955 3.33362 25.0827
580 1 -1.1104 9.60953 1.93422 23.893
583 1 -1.1104 9.72538 1.66496 26.5454
585 2 2.2208 8.25659 3.13722 22.3519
631 1 -1.1104 9.6751 4.41033 26.4741
633 1 -1.1104 9.53528 4.55774 23.5499
635 1 -1.1104 9.63297 7.51688 26.1637
637 2 2.2208 7.98656 6.23317 24.7172
638 2 2.2208 10.869 6.1808 22.1997
640 1 -1.1104 12.2017 7.2998 23.8164
641 1 -1.1104 12.373 7.59997 26.6482
642 1 -1.1104 12.466 4.71008 23.5358
645 1 -1.1104 12.481 4.74242 26.4684
647 1 -1.1104 9.47672 7.57488 23.4442
626 2 2.2208 -0.162811 11.6112 27.7399
439 1 -1.1104 4.09495 10.3038 20.6555
625 2 2.2208 5.47836 11.6196 27.6982
476 1 -1.1104 1.20492 13.073 20.934
600 2 2.2208 5.45513 11.9048 22.1089
606 1 -1.1104 1.22722 10.2012 23.7073
609 2 2.2208 5.27843 8.99353 25
611 1 -1.1104 1.12038 10.3446 26.2385
616 2 2.2208 2.67228 11.7337 24.8671
618 2 2.2208 2.5758 8.83396 22.0154
620 1 -1.1104 3.95416 10.1822 23.5174
622 1 -1.1104 4.00691 10.2944 26.4761
656 1 -1.1104 4.10114 12.9202 23.6902
660 1 -1.1104 1.43935 13.411 26.2509
666 1 -1.1104 1.27049 13.067 23.6091
671 1 -1.1104 4.12116 13.0395 26.4617
480 1 -1.1104 6.70997 13.1027 20.6522
664 1 -1.1104 6.81161 13.1468 23.6387
608 1 -1.1104 6.55222 10.4303 23.4712
655 1 -1.1104 6.89 13.0201 26.5019
427 1 -1.1104 6.85156 10.4166 20.777
613 1 -1.1104 7.01641 10.1023 26.2074
689 1 -1.1104 9.65861 13.1951 26.3852
593 1 -1.1104 12.3607 13.101 23.7487
630 1 -1.1104 9.77194 10.3599 26.6114
632 1 -1.1104 9.47868 10.4183 23.7459
634 2 2.2208 8.06758 9.00456 22.2994
636 2 2.2208 8.34599 11.879 25.0236
639 2 2.2208 10.9265 11.8034 22.2303
643 1 -1.1104 12.4313 10.3473 23.6834
644 2 2.2208 10.9649 8.9316 25.0493
646 1 -1.1104 12.511 10.5742 26.4786
505 1 -1.1104 9.56121 13.2693 23.4717
440 1 -1.1104 12.4503 13.386 26.6739
591 2 2.2208 8.08475 20.3026 27.6598
683 2 2.2208 -0.400053 17.4589 21.9991
680 2 2.2208 -0.157189 14.5437 24.9336
682 2 2.2208 -0.216156 20.0044 24.8645
690 1 -1.1104 6.79748 18.9929 26.2639
478 1 -1.1104 1.04953 18.9686 20.5525
502 1 -1.1104 4.10485 16.0972 20.6088
667 2 2.2208 5.47996 17.7025 22.1862
665 1 -1.1104 1.31318 18.8217 23.5679
663 2 2.2208 5.35092 14.4849 24.9961
668 1 -1.1104 3.97792 18.7487 26.4042
662 2 2.2208 5.39102 20.5403 24.9897
670 1 -1.1104 3.92656 16.0128 26.2154
659 1 -1.1104 1.08287 15.9622 26.3756
669 2 2.2208 2.64841 17.5135 24.8726
676 2 2.2208 2.55259 14.6505 22.2241
675 2 2.2208 2.50696 20.3547 21.967
674 1 -1.1104 4.22293 15.8505 23.4872
673 1 -1.1104 1.13317 16.006 23.4534
654 1 -1.1104 3.76856 18.9168 23.3593
658 1 -1.1104 1.13722 18.6504 26.1391
368 2 2.2208 -0.284144 -2.59292 19.356
469 2 2.2208 11.0676 20.4333 25.0102
687 2 2.2208 8.13534 14.5628 22.1974
490 1 -1.1104 6.88474 15.9704 20.8145
524 1 -1.1104 9.56575 18.6861 20.7176
684 1 -1.1104 9.53405 15.9658 26.6694
442 1 -1.1104 12.547 16.135 23.5436
517 1 -1.1104 12.4968 15.687 20.6391
672 1 -1.1104 6.95663 16.2046 23.6033
657 1 -1.1104 6.7023 15.9208 26.4013
685 1 -1.1104 9.82196 15.9017 23.8548
530 1 -1.1104 9.65359 19.1454 23.5129
688 1 -1.1104 9.599 18.9656 26.4033
592 2 2.2208 11.1222 17.428 22.2204
330 2 2.2208 11.0013 14.4222 13.7711
373 2 2.2208 5.66486 3.25902 13.7918
677 2 2.2208 2.51922 20.3807 27.7
629 2 2.2208 -0.0981466 6.21505 27.6487
372 2 2.2208 2.94108 0.249604 13.8131
322 2 2.2208 2.60524 6.21814 13.8029
327 2 2.2208 5.19694 20.0257 13.7089
467 2 2.2208 8.35815 5.91792 13.9191
649 2 2.2208 8.22119 8.69637 27.7704
405 2 2.2208 11.1923 -2.30801 13.7332
8818 2 2.2208 -0.351516 20.1645 13.6801
564 2 2.2208 8.16044 14.522 27.734
398 2 2.2208 -0.352792 3.12379 13.7272
323 2 2.2208 5.35269 8.90831 13.7984
325 2 2.2208 11.0931 9.06172 13.7169
560 2 2.2208 2.45876 3.22232 27.7203
691 2 2.2208 5.48931 22.9091 5.31193
693 1 -1.1104 1.06154 24.2469 0.989855
694 1 -1.1104 1.26553 24.2762 3.91135
695 1 -1.1104 1.13478 21.5112 0.974962
697 2 2.2208 5.3669 25.8239 2.39756
698 1 -1.1104 1.20474 21.6119 3.68857
700 1 -1.1104 3.89329 24.4366 1.15461
701 2 2.2208 2.58163 23.0139 2.35435
703 1 -1.1104 4.07517 24.4418 3.75484
704 2 2.2208 2.41724 25.7733 5.3608
705 1 -1.1104 3.99744 21.847 0.722067
707 1 -1.1104 4.15944 21.598 3.76879
708 1 -1.1104 3.97705 27.3173 3.98192
696 1 -1.1104 1.02455 27.101 0.888019
699 1 -1.1104 1.28017 27.0418 3.76895
706 1 -1.1104 3.87885 27.2456 1.04359
838 1 -1.1104 4.02104 24.4524 6.57226
835 1 -1.1104 0.90255 27.1979 6.61565
834 1 -1.1104 0.985046 21.4293 6.58166
9472 2 2.2208 13.5439 45.6972 2.39925
1230 2 2.2208 5.52726 23.2325 -0.310917
1595 1 -1.1104 12.569 46.7443 6.35975
710 2 2.2208 -0.302167 23.1765 5.15258
713 1 -1.1104 6.798 24.233 3.93141
762 2 2.2208 -0.387924 34.3064 5.28875
717 1 -1.1104 6.72675 27.2768 3.71429
716 1 -1.1104 6.80585 21.6658 3.92637
714 1 -1.1104 6.78972 21.7274 1.22556
712 1 -1.1104 6.77542 24.664 1.20132
718 2 2.2208 11.1361 23.0589 5.25975
720 1 -1.1104 12.4942 24.3808 1.09327
721 1 -1.1104 12.6459 24.3197 3.94418
722 1 -1.1104 12.3245 21.6835 0.777113
724 2 2.2208 11.0831 25.9537 2.5215
725 1 -1.1104 12.431 21.7467 3.66553
727 1 -1.1104 9.67572 24.4791 1.28343
728 2 2.2208 8.27366 23.0383 2.6386
730 1 -1.1104 9.72419 24.6679 3.97801
731 2 2.2208 8.22104 25.7683 5.09018
732 1 -1.1104 9.50623 21.8162 0.969526
734 1 -1.1104 9.80233 21.8475 3.90538
723 1 -1.1104 12.4425 27.1314 1.00973
735 1 -1.1104 9.40647 27.3105 3.84548
867 1 -1.1104 12.4039 27.2582 6.73063
868 1 -1.1104 9.55206 24.4126 6.75992
715 1 -1.1104 6.73277 27.3979 1.15979
837 1 -1.1104 6.83947 27.412 6.64442
692 2 2.2208 5.4497 28.6548 5.29381
702 2 2.2208 2.46868 28.5954 2.34712
740 1 -1.1104 1.13308 29.8345 1.04245
743 1 -1.1104 1.19519 29.9212 3.89856
746 1 -1.1104 1.20259 32.8901 0.993058
747 2 2.2208 5.35658 31.6097 2.48515
749 1 -1.1104 0.98418 32.8233 3.87002
751 1 -1.1104 4.01958 30.117 1.08122
754 1 -1.1104 4.0107 30.0404 3.66991
756 2 2.2208 2.6268 31.3825 5.22414
758 1 -1.1104 3.90074 32.9282 0.830402
759 1 -1.1104 3.72342 33.0417 3.8206
763 1 -1.1104 6.72944 30.4382 1.06714
895 1 -1.1104 3.89159 30.0802 6.49464
893 1 -1.1104 1.30832 32.9652 6.52896
750 1 -1.1104 6.55348 33.1984 3.71021
761 2 2.2208 -0.258774 31.4642 2.51109
9346 2 2.2208 -0.113714 25.7926 8.27315
733 1 -1.1104 9.75453 27.1905 0.920844
726 1 -1.1104 12.379 27.1921 3.88541
764 1 -1.1104 6.72268 30.2129 3.89964
765 1 -1.1104 6.55479 33.1976 0.979772
719 2 2.2208 10.9562 28.5736 5.2065
729 2 2.2208 8.08142 28.632 2.52628
767 1 -1.1104 12.3771 29.9418 0.880313
769 1 -1.1104 12.4038 29.8375 3.76806
771 1 -1.1104 12.4338 33.001 1.00191
772 2 2.2208 10.8517 31.4684 2.30744
774 1 -1.1104 12.2595 32.7283 3.76445
775 1 -1.1104 9.42496 30.0128 0.908381
778 1 -1.1104 9.63 30.1286 3.46579
780 2 2.2208 8.11555 31.4824 5.18184
782 1 -1.1104 9.41357 32.9234 1.07107
783 1 -1.1104 9.39856 32.9155 3.72932
928 1 -1.1104 9.5269 32.6855 6.44789
923 1 -1.1104 12.3291 30.0246 6.43839
926 1 -1.1104 9.64934 30.0553 6.43888
925 1 -1.1104 12.4019 32.9545 6.64798
830 1 -1.1104 12.3909 41.3529 12.2308
811 2 2.2208 -0.337851 39.7825 5.2504
9347 2 2.2208 -0.396424 22.9744 10.6732
739 2 2.2208 5.16802 34.422 5.02212
741 1 -1.1104 1.01019 35.7308 0.853159
744 1 -1.1104 0.97732 35.7266 3.64075
748 2 2.2208 5.2291 37.2958 2.02509
752 1 -1.1104 3.94715 35.7794 0.836862
753 2 2.2208 2.45325 34.2979 2.38388
755 1 -1.1104 3.85553 35.9682 3.67214
757 2 2.2208 2.4643 37.2723 5.13449
785 2 2.2208 5.14183 40.0711 5.17534
791 1 -1.1104 0.988475 38.5884 0.740015
796 1 -1.1104 0.817286 38.6284 3.59339
801 2 2.2208 2.22573 39.9988 2.37662
805 1 -1.1104 3.6949 38.731 0.927805
807 1 -1.1104 3.65696 38.9992 3.99848
896 1 -1.1104 3.69036 35.8267 6.54495
793 1 -1.1104 6.52905 38.6378 0.913691
1370 1 -1.1104 6.55814 46.7518 0.981413
1007 2 2.2208 8.18021 28.5142 13.4958
890 1 -1.1104 0.971347 35.7084 6.74265