ITEM: TIMESTEP
70000
ITEM: NUMBER OF ATOMS
17640
ITEM: BOX BOUNDS pp pp pp
-4.4858887240998135e-01 2.7788588872410273e+01
-5.0777036724615767e+00 3.3315770367244528e+02
-4.3852353931959359e-01 2.7778523539319341e+01
ITEM: ATOMS id type q x y z
1 2 2.2208 5.12248 0.600605 5.08874
2 1 -1.1104 0.982278 -3.77918 0.893644
6 1 -1.1104 0.796753 -3.53133 3.81858
10 1 -1.1104 0.844626 -0.881288 1.05127
12 2 2.2208 5.0995 -2.24683 2.4732
14 1 -1.1104 0.816465 -0.889768 3.5612
16 1 -1.1104 3.8091 -3.53476 0.91776
18 2 2.2208 2.29396 0.616742 2.4255
19 1 -1.1104 3.6904 -3.66827 3.57208
21 2 2.2208 2.28748 -2.21102 5.19566
23 1 -1.1104 3.59356 -0.719364 0.812656
24 1 -1.1104 3.60766 -0.757654 3.85509
11 1 -1.1104 6.66723 -0.672562 0.891935
8 1 -1.1104 6.71136 -3.57827 3.81163
170 1 -1.1104 0.967114 -0.752783 6.59271
8091 2 2.2208 5.16141 -4.90749 10.9149
172 1 -1.1104 3.64889 -3.54521 6.45139
4 1 -1.1104 6.66555 -3.5395 0.884941
171 1 -1.1104 6.69964 -0.769404 6.4774
168 1 -1.1104 6.4877 -3.6394 6.56996
166 1 -1.1104 0.93577 -3.42359 6.73855
174 1 -1.1104 3.80499 -0.682999 6.55699
15 1 -1.1104 6.42354 -0.760088 3.67
8090 2 2.2208 2.25704 -4.89398 7.9747
8143 2 2.2208 10.5857 -4.99481 -0.411725
31 2 2.2208 10.7606 0.414603 5.1206
32 1 -1.1104 12.0711 -3.65341 0.948231
34 1 -1.1104 12.3652 -3.87172 3.80969
36 1 -1.1104 12.5255 -0.693012 0.878981
37 2 2.2208 10.802 -2.48911 2.36415
39 1 -1.1104 12.2401 -1.07855 3.75063
40 1 -1.1104 9.2837 -3.78672 0.899646
42 2 2.2208 7.86387 0.758122 2.26199
43 1 -1.1104 9.5081 -3.69066 3.90394
45 2 2.2208 8.0373 -2.20948 5.164
47 1 -1.1104 9.63914 -1.05346 0.89428
48 1 -1.1104 9.36166 -0.892443 3.78589
207 1 -1.1104 12.0821 -0.90409 6.71974
210 1 -1.1104 9.44011 -0.939734 6.50799
8088 2 2.2208 10.7846 -5.16375 5.21837
329 2 2.2208 10.6971 20.1056 13.5873
8085 2 2.2208 5.00402 -5.10886 5.05503
3 1 -1.1104 1.28702 2.10346 1.0886
7 1 -1.1104 0.788007 2.14394 4.14088
13 2 2.2208 5.08244 3.42864 2.38193
17 1 -1.1104 3.86471 2.12884 0.955864
20 1 -1.1104 3.71442 1.86015 3.76512
22 2 2.2208 2.23253 3.40758 5.31721
54 2 2.2208 5.02517 6.12807 5.19295
56 1 -1.1104 0.82511 7.45144 0.996167
60 1 -1.1104 1.1718 4.94974 0.609882
67 1 -1.1104 0.856407 4.74983 3.66214
71 1 -1.1104 3.82653 7.51846 1.10876
72 2 2.2208 2.24618 6.22444 2.4073
74 1 -1.1104 3.56194 7.45793 3.91051
76 1 -1.1104 3.85835 4.75235 1.11513
79 1 -1.1104 3.61311 4.73119 3.7806
63 1 -1.1104 6.63839 4.80813 0.853272
9 1 -1.1104 6.53169 2.09805 3.6761
57 1 -1.1104 6.67656 7.40769 0.886425
69 1 -1.1104 6.49203 4.50916 3.99253
235 1 -1.1104 6.6997 7.48525 6.52123
8087 2 2.2208 7.93812 -5.03245 2.35155
234 1 -1.1104 0.744312 7.42202 6.62885
239 1 -1.1104 3.74087 4.68867 6.56118
173 1 -1.1104 3.73383 1.93895 6.33106
236 1 -1.1104 0.86779 4.69888 6.63541
532 2 2.2208 8.11834 17.3272 13.5511
229 2 2.2208 13.5268 0.407961 7.99994
5 1 -1.1104 6.60341 1.96466 0.813042
59 1 -1.1104 6.32072 7.39671 3.69534
33 1 -1.1104 12.2974 2.14198 1.05527
35 1 -1.1104 12.3712 1.63168 3.80147
38 2 2.2208 10.8626 3.18754 2.27481
41 1 -1.1104 9.34976 2.0651 0.770078
44 1 -1.1104 9.33985 1.93969 3.65123
46 2 2.2208 8.01193 3.26722 5.22491
84 2 2.2208 10.7896 6.18769 5.28919
86 1 -1.1104 12.2689 7.68233 0.964378
88 1 -1.1104 12.3774 5.04896 0.712311
92 1 -1.1104 12.2469 4.68297 3.79167
94 1 -1.1104 9.54319 7.69818 0.695816
95 2 2.2208 7.94661 6.08198 2.25898
97 1 -1.1104 9.27455 7.43347 3.4832
99 1 -1.1104 9.45206 4.70701 0.880224
102 1 -1.1104 9.28219 4.47529 3.59676
87 1 -1.1104 12.239 7.3632 3.74587
266 1 -1.1104 12.2391 4.60901 6.58825
265 1 -1.1104 12.2787 7.52588 6.61909
209 1 -1.1104 9.69481 1.95358 6.39713
267 1 -1.1104 9.28784 7.45399 6.38966
269 1 -1.1104 9.37251 4.875 6.49266
8249 2 2.2208 2.43451 -4.8587 13.7162
8725 2 2.2208 13.5774 5.96363 8.04312
58 1 -1.1104 0.8308 7.68496 3.8206
55 2 2.2208 5.16562 11.7927 5.07554
61 1 -1.1104 0.999596 10.3713 0.903735
66 2 2.2208 5.04397 8.92379 2.50012
68 1 -1.1104 0.97913 10.5826 3.85624
73 2 2.2208 2.33953 11.7435 2.40129
75 2 2.2208 2.38703 9.13224 5.15538
77 1 -1.1104 3.58747 10.1807 1.02972
80 1 -1.1104 3.7827 10.3082 3.8266
107 1 -1.1104 0.802746 13.0161 1.06192
113 1 -1.1104 0.868142 13.2515 3.8276
123 1 -1.1104 3.82907 13.119 1.01932
128 1 -1.1104 3.72335 13.0045 3.75942
78 1 -1.1104 3.72661 10.4879 6.56722
110 1 -1.1104 6.5208 13.1846 0.933781
70 1 -1.1104 6.43757 10.4046 3.62499
8210 2 2.2208 13.55 -4.87436 13.6047
316 2 2.2208 7.91648 20.1739 10.9165
8094 2 2.2208 10.8341 -5.06028 10.9743
64 1 -1.1104 6.48292 10.2925 1.00485
115 1 -1.1104 6.65512 13.3895 3.68717
85 2 2.2208 10.9673 11.7952 5.14623
89 1 -1.1104 12.3489 10.4342 0.837027
91 2 2.2208 10.7722 8.8926 2.32749
93 1 -1.1104 11.9226 10.6704 3.47626
96 2 2.2208 7.91621 11.6838 2.2495
98 2 2.2208 7.98354 8.85097 5.06034
100 1 -1.1104 9.4809 10.5894 0.733736
103 1 -1.1104 9.26482 10.2468 3.70975
142 1 -1.1104 12.2096 13.2531 0.745547
146 1 -1.1104 12.325 13.1637 3.7511
153 1 -1.1104 9.26767 13.3598 0.920335
158 1 -1.1104 9.4034 13.1562 3.75395
90 1 -1.1104 12.363 10.3349 6.4174
467 2 2.2208 7.97223 6.1602 13.6288
8084 2 2.2208 2.29434 -5.02563 2.17301
591 2 2.2208 7.79161 20.147 -0.513492
119 2 2.2208 5.21645 14.5891 2.33541
130 2 2.2208 2.30736 14.5792 5.24598
106 2 2.2208 5.17449 17.4718 5.05453
109 1 -1.1104 0.661555 18.6579 1.03188
114 1 -1.1104 0.786085 18.7925 3.84631
116 1 -1.1104 0.855767 15.9014 0.799465
120 2 2.2208 5.0568 20.0119 2.35422
121 1 -1.1104 0.753503 16.2625 3.64251
125 1 -1.1104 3.74108 18.8483 0.817089
127 2 2.2208 2.12275 17.3121 2.35976
129 1 -1.1104 3.44377 18.6138 3.66934
131 2 2.2208 2.21818 20.1575 5.23899
132 1 -1.1104 3.57649 16.1237 0.822543
134 1 -1.1104 3.74693 15.748 3.6504
140 1 -1.1104 6.59175 15.955 0.976936
138 1 -1.1104 6.57094 18.5411 0.942162
302 1 -1.1104 0.868999 18.5531 6.83719
126 1 -1.1104 3.72342 18.6534 6.50351
117 1 -1.1104 0.823499 15.989 6.52568
122 1 -1.1104 6.52556 16.0104 3.8028
139 1 -1.1104 6.50924 18.7672 3.82065
160 2 2.2208 8.20189 14.5291 5.03269
141 2 2.2208 10.7328 17.3899 4.99943
144 1 -1.1104 12.1175 18.5906 0.869882
147 1 -1.1104 12.253 18.9182 3.71661
148 1 -1.1104 11.9391 15.9386 0.900472
150 2 2.2208 10.974 14.4546 2.36325
151 2 2.2208 10.8465 20.1078 2.2661
152 1 -1.1104 12.2746 16.1344 3.68805
155 1 -1.1104 9.30402 18.8245 0.822546
157 2 2.2208 7.92886 17.1444 2.26244
159 1 -1.1104 9.39925 18.6173 3.56476
161 2 2.2208 7.96307 20.0794 5.17494
162 1 -1.1104 9.2566 16.0453 0.75313
164 1 -1.1104 9.35275 15.993 3.51366
163 1 -1.1104 9.33693 15.9919 6.45326
145 1 -1.1104 12.1132 18.5737 6.76662
149 1 -1.1104 12.1997 15.9076 6.49868
156 1 -1.1104 9.39614 18.7749 6.41619
118 1 -1.1104 6.33322 16.0212 6.62391
112 1 -1.1104 6.62051 18.825 6.64485
8674 2 2.2208 13.5915 11.9038 2.21102
230 2 2.2208 13.7227 -2.15403 11.0307
175 2 2.2208 5.123 0.825743 10.9085
176 1 -1.1104 0.952778 -4.08422 12.3472
180 1 -1.1104 0.926405 -3.58041 9.5996
184 1 -1.1104 0.790982 -1.04032 12.1597
186 2 2.2208 5.18629 -2.06149 8.00429
188 1 -1.1104 0.832783 -0.720208 9.45571
190 1 -1.1104 3.74233 -3.69342 12.1448
192 2 2.2208 2.44996 0.612667 8.03546
193 1 -1.1104 3.57571 -3.56006 9.12225
195 2 2.2208 2.40601 -2.17213 10.6664
197 1 -1.1104 3.65149 -1.07258 12.065
198 1 -1.1104 3.82105 -0.835116 9.45613
178 1 -1.1104 6.38943 -3.66906 12.4907
189 1 -1.1104 6.7522 -0.935607 9.28811
185 1 -1.1104 6.53918 -0.621511 12.2696
330 2 2.2208 11.0642 14.3964 13.5334
325 2 2.2208 10.8754 8.85251 13.604
205 1 -1.1104 12.2616 -3.75368 6.82007
52 2 2.2208 13.5701 3.28466 5.09006
8541 2 2.2208 13.6315 17.3728 7.90897
562 2 2.2208 13.5992 20.0761 -0.450605
182 1 -1.1104 6.4994 -3.76086 9.38545
208 1 -1.1104 9.26991 -3.65776 6.6147
211 2 2.2208 10.497 0.643022 10.7722
212 1 -1.1104 12.2022 -3.67147 12.3326
214 1 -1.1104 12.0878 -3.80612 9.64963
216 1 -1.1104 12.0729 -0.920553 12.3106
217 2 2.2208 10.7786 -2.36597 8.24847
219 1 -1.1104 12.2411 -0.987072 9.55099
220 1 -1.1104 9.40356 -3.57148 12.3374
222 2 2.2208 8.14178 0.391116 7.89215
223 1 -1.1104 9.47038 -3.57244 9.54595
225 2 2.2208 7.79233 -2.26934 10.8962
227 1 -1.1104 9.24396 -0.638338 12.0324
228 1 -1.1104 9.30099 -0.765772 9.19388
401 2 2.2208 13.5359 0.542692 13.7392
590 2 2.2208 7.93799 3.23847 -0.441554
237 1 -1.1104 6.44879 4.94589 6.62895
238 1 -1.1104 3.67089 7.64802 6.59533
167 1 -1.1104 1.05127 1.84656 6.80262
169 1 -1.1104 6.61916 2.08705 6.64153
177 1 -1.1104 0.789898 1.95182 12.2657
181 1 -1.1104 0.647926 2.02279 9.51223
187 2 2.2208 5.08913 3.35439 7.85768
191 1 -1.1104 3.71137 1.99733 12.2258
194 1 -1.1104 3.63611 2.0224 9.46662
196 2 2.2208 2.33342 3.44374 10.8787
240 2 2.2208 5.15816 6.13193 10.9116
242 1 -1.1104 1.0696 7.5919 12.3898
246 1 -1.1104 1.00841 4.76103 12.207
251 1 -1.1104 0.828115 4.59504 9.37768
256 2 2.2208 2.33382 6.22265 7.92017
258 1 -1.1104 3.93641 7.61479 9.45402
260 1 -1.1104 3.65149 4.89698 12.1645
262 1 -1.1104 3.84921 4.67408 9.48208
244 1 -1.1104 1.16454 7.40237 9.55818
245 1 -1.1104 6.65108 7.49995 9.46969
255 1 -1.1104 3.85786 7.76196 12.2737
248 1 -1.1104 6.27174 4.78298 12.2491
183 1 -1.1104 6.36288 1.95685 9.36645
243 1 -1.1104 6.66721 7.65588 12.1671
253 1 -1.1104 6.61721 4.78573 9.28496
324 2 2.2208 2.47531 11.868 13.6621
231 2 2.2208 10.7003 20.0665 7.95245
322 2 2.2208 2.40175 6.33019 13.7104
179 1 -1.1104 6.43889 2.19529 12.3174
206 1 -1.1104 12.2012 1.83672 6.60076
213 1 -1.1104 12.0771 1.90888 12.2727
215 1 -1.1104 12.0149 1.90716 9.39507
218 2 2.2208 10.8703 3.3511 7.94693
221 1 -1.1104 9.33343 2.25213 12.3201
224 1 -1.1104 9.19784 1.99951 9.40703
226 2 2.2208 7.8047 3.45927 10.9187
268 1 -1.1104 9.42895 4.81672 9.36436
271 1 -1.1104 9.03486 5.00889 12.0618
275 2 2.2208 7.96231 6.12181 7.96382
276 2 2.2208 10.5687 6.2137 10.8625
278 1 -1.1104 12.1106 7.52046 12.1001
279 1 -1.1104 12.301 7.23308 9.36973
280 1 -1.1104 12.064 4.62141 12.1784
283 1 -1.1104 12.3483 4.5855 9.49016
285 1 -1.1104 9.28437 7.61671 12.2281
273 1 -1.1104 9.3816 7.52115 9.26831
51 2 2.2208 13.5211 3.20437 10.6932
623 2 2.2208 5.24103 6.1413 -0.354994
65 1 -1.1104 6.65487 10.5054 6.45186
50 2 2.2208 13.5022 -2.34494 5.25649
108 1 -1.1104 1.18282 13.2273 6.99116
124 1 -1.1104 3.97972 13.0271 6.66417
62 1 -1.1104 0.786551 10.3324 6.62022
111 1 -1.1104 7.06045 13.2997 6.50355
241 2 2.2208 5.36272 11.7865 10.758
247 1 -1.1104 0.981479 10.4132 12.0745
250 2 2.2208 5.20441 8.90685 8.07595
252 1 -1.1104 0.88895 10.2463 9.32217
257 2 2.2208 2.52553 11.7023 8.12987
259 2 2.2208 2.33923 8.99698 10.8065
261 1 -1.1104 3.76899 10.5603 12.2932
263 1 -1.1104 3.81134 10.2906 9.65602
287 1 -1.1104 3.83144 13.3214 11.8799
294 1 -1.1104 0.896669 13.1864 9.43585
299 1 -1.1104 1.04051 13.1477 12.317
305 1 -1.1104 3.79948 13.3686 9.44986
254 1 -1.1104 6.74389 10.2635 9.2918
249 1 -1.1104 6.66572 10.5283 12.1782
297 1 -1.1104 6.65574 13.2988 12.2358
290 1 -1.1104 6.76492 13.1339 9.42394
8516 2 2.2208 13.7531 6.16128 2.3448
8806 2 2.2208 13.617 5.89091 13.4615
101 1 -1.1104 9.53236 10.2551 6.44281
154 1 -1.1104 9.78377 13.2339 6.41759
143 1 -1.1104 12.3791 13.2766 6.5522
319 1 -1.1104 9.48402 13.1499 9.33002
233 1 -1.1104 9.62855 13.2435 12.0402
264 1 -1.1104 9.69415 10.4794 9.31775
270 1 -1.1104 9.58842 10.2793 12.2553
272 2 2.2208 7.96442 8.92566 10.7768
274 2 2.2208 8.2267 11.7468 7.95196
277 2 2.2208 11.086 11.7723 10.7444
281 1 -1.1104 12.421 10.3027 12.1595
282 2 2.2208 10.7897 8.88513 7.91535
284 1 -1.1104 12.3265 10.139 9.30749
53 1 -1.1104 12.2802 13.1417 9.44734
105 1 -1.1104 12.5058 13.0526 12.0773
27 2 2.2208 -0.363313 3.25579 2.37308
202 1 -1.1104 12.2944 18.7684 9.2467
82 2 2.2208 -0.37132 8.95638 2.31502
133 1 -1.1104 3.7132 15.7699 6.56941
295 2 2.2208 5.23427 14.4299 7.91685
306 1 -1.1104 6.58778 15.8992 12.0463
310 2 2.2208 2.34353 14.5343 10.8378
286 1 -1.1104 3.76175 18.7263 12.0155
291 1 -1.1104 1.1362 18.9734 9.43256
292 1 -1.1104 0.701813 15.9924 9.25986
293 2 2.2208 5.18871 20.0333 7.9514
298 1 -1.1104 1.05028 18.7576 12.176
300 2 2.2208 5.22225 17.3396 10.7351
301 1 -1.1104 3.9578 18.7465 9.22588
303 2 2.2208 2.36732 17.3368 8.13489
304 1 -1.1104 3.64659 16.0584 9.47846
307 1 -1.1104 0.905505 15.8493 12.1046
308 1 -1.1104 3.92361 15.8125 12.178
309 2 2.2208 2.37736 20.2118 10.8565
288 1 -1.1104 6.72873 18.7706 9.38902
296 1 -1.1104 6.7367 18.8387 12.1967
232 1 -1.1104 12.1355 15.8769 9.19399
314 1 -1.1104 9.25351 15.8861 9.43136
289 1 -1.1104 6.40618 15.7907 9.26791
203 1 -1.1104 12.3456 15.8547 12.0919
8808 2 2.2208 13.5605 11.6374 13.6393
315 1 -1.1104 9.39178 15.9466 12.2237
320 2 2.2208 7.79154 17.1615 7.74928
318 1 -1.1104 9.32437 18.6783 9.35301
104 2 2.2208 10.7275 17.2352 10.6758
204 2 2.2208 10.7411 14.5908 8.04644
312 1 -1.1104 12.0559 18.6224 12.0168
321 1 -1.1104 9.29536 18.8564 12.3355
678 2 2.2208 5.02594 17.3225 -0.346868
317 2 2.2208 8.12508 14.5375 10.9032
165 2 2.2208 13.4276 17.4141 2.29744
8730 2 2.2208 13.7393 8.78773 10.6929
8093 2 2.2208 8.10127 -5.06524 7.99174
406 2 2.2208 10.8583 3.45427 13.6605
624 2 2.2208 2.31841 8.92842 -0.412885
679 2 2.2208 2.26923 14.4353 -0.454915
8591 2 2.2208 13.399 20.2593 5.16585
8543 2 2.2208 13.6418 8.93004 5.09166
8726 2 2.2208 13.6957 11.7724 7.8885
311 2 2.2208 -0.429835 20.0448 7.99562
8515 2 2.2208 -0.388614 17.2638 10.9089
30 2 2.2208 -0.429908 11.8342 10.7617
8776 2 2.2208 13.5116 19.9595 10.7787
8813 2 2.2208 -0.204815 9.07356 13.5844
559 2 2.2208 2.34651 -2.2784 -0.432055
503 2 2.2208 2.47155 17.2168 13.47
323 2 2.2208 5.1843 9.11099 13.4423
331 2 2.2208 5.24493 0.485212 16.4826
332 1 -1.1104 0.899953 -3.52977 18.022
336 1 -1.1104 0.85344 -3.54721 15.2385
344 1 -1.1104 0.887214 -0.77887 17.7435
346 2 2.2208 5.44991 -2.14348 19.4041
348 1 -1.1104 0.804817 -0.930785 14.9292
352 1 -1.1104 3.99185 -3.5578 17.8305
354 2 2.2208 2.4587 0.706723 19.2204
355 1 -1.1104 4.02106 -3.68004 15.021
359 2 2.2208 2.25483 -2.28284 16.5281
361 1 -1.1104 3.65496 -0.665793 17.6775
362 1 -1.1104 3.73504 -0.793154 15.1512
334 1 -1.1104 6.61038 -3.62539 17.8001
356 1 -1.1104 3.83446 -3.54159 20.6619
341 1 -1.1104 6.79015 -3.50573 20.8526
337 1 -1.1104 1.00841 -3.76652 20.9625
363 1 -1.1104 3.65949 -0.854492 20.5185
372 2 2.2208 2.15946 0.493471 13.6891
8145 2 2.2208 2.4423 -4.98407 25.0208
327 2 2.2208 5.0854 20.1088 13.6485
340 1 -1.1104 6.85447 -3.75636 15.1296
350 1 -1.1104 6.68115 -0.946636 15.2258
345 1 -1.1104 6.51001 -0.736317 18.1825
530 1 -1.1104 9.37588 18.8472 23.4848
374 2 2.2208 10.6957 0.821199 16.7097
375 1 -1.1104 12.31 -3.43939 18.0495
377 1 -1.1104 12.2342 -3.52252 14.9724
381 1 -1.1104 12.1285 -0.548486 17.8477
382 2 2.2208 10.8187 -1.89123 19.2007
384 1 -1.1104 12.3149 -0.731762 15.1222
386 1 -1.1104 9.52085 -3.75376 18.1293
388 2 2.2208 8.09356 0.842231 19.4001
389 1 -1.1104 9.67113 -3.56814 15.3598
393 2 2.2208 8.22244 -2.35162 16.5341
395 1 -1.1104 9.29843 -0.686124 17.8748
396 1 -1.1104 9.52064 -0.765651 15.1312
378 1 -1.1104 12.3381 -3.3999 20.7174
8251 2 2.2208 5.371 -5.03475 16.4247
8991 2 2.2208 13.4973 17.4148 19.1727
385 1 -1.1104 12.2701 -0.596113 20.8175
397 1 -1.1104 9.41445 -0.480134 20.6981
390 1 -1.1104 9.56753 -3.31623 20.8791
8142 2 2.2208 10.8196 -4.90728 22.1989
8144 2 2.2208 13.7231 -5.00734 25.0056
333 1 -1.1104 0.793816 2.12897 17.9776
338 1 -1.1104 0.819888 1.99047 14.9492
347 2 2.2208 5.22612 3.40408 19.2578
353 1 -1.1104 3.82412 2.17844 17.908
357 1 -1.1104 3.67091 2.05311 15.038
360 2 2.2208 2.36002 3.3822 16.4449
407 2 2.2208 5.21632 6.24837 16.5081
409 1 -1.1104 0.745041 7.58696 17.9217
411 1 -1.1104 1.18541 7.67519 15.0563
415 1 -1.1104 1.00783 4.78785 17.9611
420 1 -1.1104 1.03971 4.9857 15.0812
428 1 -1.1104 3.90586 7.6272 17.9397
429 2 2.2208 2.15398 6.15606 19.3513
431 1 -1.1104 3.8398 7.68273 14.9723
434 1 -1.1104 3.78694 4.94228 17.919
436 1 -1.1104 3.72303 4.78398 15.0197
424 1 -1.1104 6.47135 4.95936 15.0025
335 1 -1.1104 6.4603 2.05153 17.8179
437 1 -1.1104 3.73857 4.97975 20.6212
432 1 -1.1104 3.71457 7.66336 20.8396
417 1 -1.1104 6.65836 4.73344 17.9964
358 1 -1.1104 3.84005 1.95411 20.6418
410 1 -1.1104 6.60403 7.37204 18.1327
413 1 -1.1104 6.53026 7.71443 14.9741
342 1 -1.1104 6.34454 1.93199 15.0653
339 1 -1.1104 1.21243 1.89053 20.8601
376 1 -1.1104 12.0628 2.10026 17.9209
379 1 -1.1104 12.0328 2.00674 15.3275
383 2 2.2208 10.6973 3.40518 19.2428
387 1 -1.1104 9.26353 2.28681 17.8031
391 1 -1.1104 9.39742 1.98045 15.1184
394 2 2.2208 7.87167 3.5297 16.3674
443 2 2.2208 10.6584 5.85822 16.4143
448 1 -1.1104 12.2039 4.61338 17.9306
451 1 -1.1104 12.1897 4.69919 15.1365
455 1 -1.1104 9.57201 7.47665 17.7931
456 2 2.2208 8.09514 6.19215 19.4077
458 1 -1.1104 9.39165 7.37061 14.9995
461 1 -1.1104 9.34662 4.67166 17.9628
463 1 -1.1104 9.38197 4.71842 14.7677
445 1 -1.1104 12.3425 7.35093 17.7979
446 1 -1.1104 11.9475 7.46213 14.9481
459 1 -1.1104 9.31708 7.70565 20.628
561 2 2.2208 13.5541 14.5942 27.7196
425 1 -1.1104 6.50581 4.95956 20.8025
447 1 -1.1104 12.1511 7.63917 20.5745
392 1 -1.1104 9.31572 2.10249 20.7633
452 1 -1.1104 12.2171 4.88458 20.7077
408 2 2.2208 5.18291 11.6773 16.5902
416 1 -1.1104 1.13389 10.1991 17.9552
419 2 2.2208 5.15489 8.99417 19.5484
422 1 -1.1104 1.24294 10.5623 15.1681
430 2 2.2208 2.35843 11.8807 19.2377
433 2 2.2208 2.52994 8.96688 16.4292
435 1 -1.1104 3.88497 10.4188 17.9523
438 1 -1.1104 3.78116 10.2472 15.1595
471 1 -1.1104 1.08399 13.0936 18.0186
475 1 -1.1104 0.925788 13.1348 15.2318
491 1 -1.1104 4.12647 13.1313 17.7678
494 1 -1.1104 3.79438 13.1609 15.0152
473 1 -1.1104 6.69203 13.2583 17.7766
423 1 -1.1104 0.773422 10.4372 20.7198
495 1 -1.1104 3.81066 13.2805 20.7289
8248 2 2.2208 13.6941 -4.92073 19.5242
439 1 -1.1104 3.61747 10.534 20.8479
480 1 -1.1104 6.63226 13.2007 20.665
8212 2 2.2208 8.02953 -4.98454 19.5116
479 1 -1.1104 6.69231 13.0672 15.1202
426 1 -1.1104 6.66968 10.4127 14.9655
427 1 -1.1104 6.51246 10.5826 20.7768
418 1 -1.1104 6.67288 10.2867 18.0151
444 2 2.2208 10.8577 11.5596 16.3529
449 1 -1.1104 12.3132 10.3681 17.7963
450 2 2.2208 10.8012 8.92352 19.2093
453 1 -1.1104 12.4185 10.1734 15.0845
457 2 2.2208 8.09385 11.8166 19.2327
460 2 2.2208 7.87261 8.96531 16.3315
462 1 -1.1104 9.60953 10.1884 17.9602
465 1 -1.1104 9.65818 10.2932 14.849
507 1 -1.1104 12.1931 12.845 17.6992
509 1 -1.1104 12.3529 13.1271 14.9495
518 1 -1.1104 9.43022 12.8918 17.7054
521 1 -1.1104 9.57426 13.1306 14.8169
510 1 -1.1104 12.2693 13.3345 20.7718
9052 2 2.2208 13.5587 3.36217 22.2493
454 1 -1.1104 12.1871 10.4233 20.669
466 1 -1.1104 9.31088 10.1982 20.7751
522 1 -1.1104 9.50364 13.257 20.4428
531 2 2.2208 7.7712 17.1823 24.9241
681 2 2.2208 -0.412577 17.2607 27.5997
498 2 2.2208 2.34738 14.5552 16.3555
485 2 2.2208 5.06473 14.6487 19.1707
470 2 2.2208 5.29407 17.2626 16.4452
472 1 -1.1104 0.971825 18.6969 17.848
477 1 -1.1104 0.927295 18.7813 15.148
483 1 -1.1104 0.700884 15.7783 17.7123
486 2 2.2208 5.21408 20.046 19.2587
487 1 -1.1104 0.999587 16.0813 14.9241
492 1 -1.1104 3.93932 18.6149 17.6565
493 2 2.2208 2.13824 17.1496 19.1714
496 1 -1.1104 3.85607 18.8014 15.0845
499 2 2.2208 2.42155 20.09 16.3319
500 1 -1.1104 3.61949 15.8092 17.7223
501 1 -1.1104 3.76694 15.9378 14.8579
489 1 -1.1104 6.7333 15.8809 15.208
484 1 -1.1104 6.53739 15.8988 18.0209
478 1 -1.1104 0.884607 18.7665 20.5898
481 1 -1.1104 6.53811 18.7491 14.987
474 1 -1.1104 6.64829 18.5915 17.8419
687 2 2.2208 7.89567 14.6006 22.0054
488 1 -1.1104 0.77354 16.0627 20.7655
497 1 -1.1104 3.79888 18.7464 20.4576
482 1 -1.1104 6.66177 18.859 20.8908
8992 2 2.2208 13.4054 20.0995 16.5006
625 2 2.2208 5.08657 11.6831 27.8182
514 2 2.2208 10.8001 14.5914 19.1543
525 2 2.2208 7.95605 14.4641 16.4458
506 2 2.2208 10.8091 17.3209 16.4583
508 1 -1.1104 11.84 18.5777 17.8024
511 1 -1.1104 12.3575 18.8062 14.7773
513 1 -1.1104 12.2872 15.8508 17.6997
515 2 2.2208 10.7526 20.2271 19.2467
516 1 -1.1104 11.9761 16.0105 14.8665
519 1 -1.1104 9.36499 18.6378 17.8799
520 2 2.2208 7.89723 17.2527 19.3017
523 1 -1.1104 9.33171 18.7536 15.1304
526 2 2.2208 7.87096 20.0994 16.5003
527 1 -1.1104 9.32317 16.0422 17.7566
528 1 -1.1104 9.44953 15.7995 14.8346
529 1 -1.1104 9.41867 16.1603 20.5568
442 1 -1.1104 12.1126 15.9651 23.3772
650 2 2.2208 10.7841 11.9382 27.6499
517 1 -1.1104 12.229 16.0644 20.5396
402 2 2.2208 13.6122 -2.25805 16.6756
349 1 -1.1104 0.864751 -0.70956 20.7597
371 2 2.2208 5.24636 -2.18536 13.8279
403 2 2.2208 13.4983 17.3806 24.6278
328 2 2.2208 5.21192 14.4315 13.626
534 2 2.2208 5.10243 0.678671 21.8999
535 1 -1.1104 1.03044 -3.53746 23.5155
539 1 -1.1104 1.06318 -3.70388 26.3492
543 1 -1.1104 1.01461 -0.723403 23.5185
545 2 2.2208 5.19835 -2.17698 25.0412
547 1 -1.1104 0.945652 -1.05222 26.3759
549 1 -1.1104 3.86014 -3.54837 23.4132
551 2 2.2208 2.22999 0.505124 24.9477
552 1 -1.1104 3.84115 -3.65222 26.3345
554 2 2.2208 2.414 -2.08693 22.1488
556 1 -1.1104 3.80566 -0.607117 23.6235
557 1 -1.1104 3.68628 -1.03897 26.1732
548 1 -1.1104 6.61789 -0.856303 26.384
544 1 -1.1104 6.58036 -0.705396 23.4481
541 1 -1.1104 6.65323 -3.55482 26.329
537 1 -1.1104 6.68577 -3.74107 23.5678
351 1 -1.1104 6.56857 -0.677053 20.911
8213 2 2.2208 11.1076 -5.10689 16.5731
564 2 2.2208 7.87575 14.5793 27.8796
565 2 2.2208 10.723 17.461 27.6235
441 1 -1.1104 12.042 18.8733 26.3096
688 1 -1.1104 9.07534 18.7519 26.2848
592 2 2.2208 10.7824 17.468 22.0894
558 2 2.2208 5.09579 0.459733 27.7458
570 2 2.2208 11.0031 0.595854 22.1271
571 1 -1.1104 12.2764 -3.3659 23.5333
573 1 -1.1104 12.1558 -3.63257 26.3084
575 1 -1.1104 12.102 -0.695198 23.6314
576 2 2.2208 10.8561 -2.22394 24.8955
578 1 -1.1104 12.4725 -0.770581 26.3281
579 1 -1.1104 9.42289 -3.62316 23.7762
581 2 2.2208 7.97589 0.601657 24.9476
582 1 -1.1104 9.31867 -3.89388 26.349
584 2 2.2208 7.97011 -2.13868 22.3461
586 1 -1.1104 9.4689 -0.683202 23.5592
587 1 -1.1104 9.58261 -0.918874 26.3944
468 2 2.2208 10.7135 14.5395 24.8128
672 1 -1.1104 6.52306 15.9115 23.5448
684 1 -1.1104 9.55672 16.0633 26.2547
412 1 -1.1104 0.887071 7.4728 20.7628
504 1 -1.1104 12.2639 16.199 26.3412
421 1 -1.1104 0.951198 4.80632 20.6525
536 1 -1.1104 0.556595 1.86999 23.6202
540 1 -1.1104 0.998652 1.74354 26.3711
546 2 2.2208 5.05248 3.14031 24.8747
550 1 -1.1104 3.5982 1.99096 23.475
553 1 -1.1104 3.74169 1.68845 26.2437
555 2 2.2208 2.43346 3.38229 21.9593
599 2 2.2208 5.01734 6.06444 22.0686
603 1 -1.1104 1.04242 7.57652 26.337
605 1 -1.1104 1.11995 4.57177 23.459
610 1 -1.1104 1.01313 4.56477 26.0379
614 1 -1.1104 3.69545 7.54357 23.6158
615 2 2.2208 2.38476 6.08871 24.8225
617 1 -1.1104 3.98486 7.35524 26.2058
619 1 -1.1104 3.6424 4.61175 23.3546
621 1 -1.1104 3.7975 4.77443 26.5573
601 1 -1.1104 0.88668 7.57144 23.5528
607 1 -1.1104 6.32015 4.71958 23.5001
538 1 -1.1104 6.55455 2.03183 23.4046
604 1 -1.1104 6.91416 7.31038 26.3657
469 2 2.2208 10.7243 20.2585 24.9817
373 2 2.2208 5.03772 3.51006 13.7519
414 1 -1.1104 6.42397 7.61272 20.9886
343 1 -1.1104 6.49244 2.23886 20.7633
542 1 -1.1104 6.50245 1.77064 26.3239
612 1 -1.1104 6.56838 4.54817 26.1889
602 1 -1.1104 6.62613 7.69145 23.704
380 1 -1.1104 12.0327 2.12647 20.6788
464 1 -1.1104 9.38558 4.80954 20.7312
572 1 -1.1104 12.3427 2.09435 23.705
574 1 -1.1104 12.4525 2.05593 26.488
577 2 2.2208 10.9329 3.39511 25.0019
580 1 -1.1104 9.57053 1.9385 23.6342
583 1 -1.1104 9.43711 2.0231 26.4099
585 2 2.2208 7.81302 3.47232 22.3006
631 1 -1.1104 9.29904 4.81621 26.4086
633 1 -1.1104 9.32866 4.85141 23.4792
635 1 -1.1104 9.50069 7.71644 26.1019
637 2 2.2208 7.98818 6.05907 24.8419
638 2 2.2208 10.7197 6.15781 22.1268
640 1 -1.1104 12.2476 7.65841 23.4479
642 1 -1.1104 12.0208 4.71945 23.4807
645 1 -1.1104 12.495 4.91252 26.1201
641 1 -1.1104 12.3495 7.81635 26.1388
647 1 -1.1104 9.38003 7.61364 23.4159
512 1 -1.1104 12.2789 18.7622 20.651
533 2 2.2208 13.6756 14.6808 22.0206
567 2 2.2208 -0.542492 -2.20491 24.7975
8250 2 2.2208 2.41868 -5.06561 19.4501
476 1 -1.1104 0.870236 13.1352 20.6088
600 2 2.2208 5.21329 11.8349 22.2017
606 1 -1.1104 0.979218 10.1877 23.4583
609 2 2.2208 5.09688 8.89391 24.9949
611 1 -1.1104 0.807468 10.3668 26.1147
616 2 2.2208 2.43206 11.5854 24.9997
618 2 2.2208 2.2731 9.01402 22.1476
620 1 -1.1104 3.75624 10.3946 23.5642
622 1 -1.1104 3.71949 10.4122 26.5112
656 1 -1.1104 3.58478 13.1544 23.6021
660 1 -1.1104 0.65475 13.1326 26.503
666 1 -1.1104 0.803531 13.0427 23.5664
671 1 -1.1104 3.48618 12.9801 26.5261
690 1 -1.1104 6.37197 18.7089 26.4372
686 2 2.2208 7.92765 20.2726 22.0637
664 1 -1.1104 6.50875 13.364 23.5362
608 1 -1.1104 6.43096 10.6461 23.5472
613 1 -1.1104 6.45084 10.2524 26.3065
655 1 -1.1104 6.39082 13.0829 26.2429
524 1 -1.1104 9.27271 18.8167 20.6825
689 1 -1.1104 9.30852 13.2958 26.337
593 1 -1.1104 12.1792 13.2859 23.3613
630 1 -1.1104 9.30363 10.4814 26.1704
632 1 -1.1104 9.40261 10.4992 23.3872
634 2 2.2208 8.03969 9.06864 22.202
636 2 2.2208 7.81608 11.9094 24.9649
639 2 2.2208 10.8376 11.853 21.9972
643 1 -1.1104 12.1385 10.4867 23.3415
644 2 2.2208 10.8061 9.1435 24.8241
646 1 -1.1104 12.2456 10.6958 26.1617
505 1 -1.1104 9.46424 13.1664 23.6722
440 1 -1.1104 12.2649 13.3724 26.2579
563 2 2.2208 13.6264 20.1998 22.0724
685 1 -1.1104 9.10793 16.019 23.4645
648 2 2.2208 11.0088 6.34787 27.5569
502 1 -1.1104 3.75137 15.9952 20.5994
490 1 -1.1104 6.39546 15.8851 20.7356
594 1 -1.1104 12.2594 18.544 23.2897
661 1 -1.1104 6.57291 18.6813 23.4576
657 1 -1.1104 6.6458 15.7221 26.3992
676 2 2.2208 2.43197 14.4614 22.0997
658 1 -1.1104 0.859392 18.6961 26.1641
654 1 -1.1104 3.68156 18.6916 23.4908
667 2 2.2208 5.19297 17.3915 21.9819
665 1 -1.1104 0.591107 18.648 23.4896
663 2 2.2208 5.05942 14.4417 25.0186
668 1 -1.1104 3.55769 18.4465 26.2835
662 2 2.2208 5.16935 19.9092 24.8675
670 1 -1.1104 3.78724 15.9226 26.267
659 1 -1.1104 0.949816 15.9442 26.1752
669 2 2.2208 2.20325 17.2067 24.8635
675 2 2.2208 2.29942 19.9672 21.9979
674 1 -1.1104 3.78686 15.9058 23.3472
673 1 -1.1104 0.914973 15.4532 23.3953
8920 2 2.2208 13.5561 6.05566 19.1458
8179 2 2.2208 5.24204 -5.02603 22.3416
404 2 2.2208 8.14587 0.563055 13.7869
405 2 2.2208 10.8391 -2.20878 13.678
649 2 2.2208 8.01226 8.88417 27.579
8845 2 2.2208 13.5091 3.36016 16.6248
8926 2 2.2208 -0.297287 11.6848 16.5986
9032 2 2.2208 -0.352981 17.367 16.3617
8141 2 2.2208 7.96751 -4.89816 25.0312
589 2 2.2208 7.99501 -2.29831 27.6921
326 2 2.2208 8.00514 11.8966 13.6537
560 2 2.2208 2.31075 3.2496 27.6301
8211 2 2.2208 8.23039 -4.9915 13.8615
588 2 2.2208 11.0241 0.580991 27.6626
8180 2 2.2208 5.2085 -5.15129 27.5601
677 2 2.2208 2.1751 20.1022 27.659
691 2 2.2208 5.23263 23.0308 5.09721
693 1 -1.1104 0.674957 24.4289 1.15677
694 1 -1.1104 0.800391 24.5345 4.09238
695 1 -1.1104 0.892504 21.4849 1.06054
697 2 2.2208 4.99535 25.8464 2.54823
698 1 -1.1104 0.729059 21.33 3.77794
700 1 -1.1104 3.57968 24.4116 1.1549
701 2 2.2208 2.28937 22.8933 2.43842
703 1 -1.1104 3.64267 24.3973 3.99632
704 2 2.2208 2.21958 25.7379 5.36529
705 1 -1.1104 3.53321 21.3321 1.16659
707 1 -1.1104 3.70051 21.4612 3.93002
708 1 -1.1104 3.73991 27.0139 3.9779
835 1 -1.1104 0.72293 27.1255 6.86754
716 1 -1.1104 6.59147 21.7402 3.6712
714 1 -1.1104 6.53887 21.3804 0.894369
712 1 -1.1104 6.38584 24.3555 1.14082
713 1 -1.1104 6.74037 24.6269 4.03379
836 1 -1.1104 6.5447 21.6019 6.37864
696 1 -1.1104 1.05993 27.1755 1.06885
715 1 -1.1104 6.43099 27.2076 0.883997
838 1 -1.1104 4.04045 24.4245 6.60589
840 1 -1.1104 3.7159 27.0259 6.59483
833 1 -1.1104 6.68226 24.4562 6.72653
706 1 -1.1104 3.70645 27.3331 1.0034
717 1 -1.1104 6.36094 27.238 3.77859
699 1 -1.1104 0.892832 27.3267 4.09301
839 1 -1.1104 3.62078 21.4315 6.94599
832 1 -1.1104 1.16378 24.5208 6.91662
837 1 -1.1104 6.56151 27.1661 6.70533
718 2 2.2208 10.6838 23.027 5.2757
720 1 -1.1104 12.1687 24.2802 0.852688
721 1 -1.1104 12.4909 24.3664 3.77689
722 1 -1.1104 12.2066 21.4436 1.02697
724 2 2.2208 10.7763 25.6335 2.43782
725 1 -1.1104 12.2173 21.573 3.67574
727 1 -1.1104 9.43762 24.2461 0.965847
728 2 2.2208 7.99939 22.9042 2.19465
730 1 -1.1104 9.56921 24.0913 3.74544
731 2 2.2208 7.87951 25.9868 5.25324
732 1 -1.1104 9.43156 21.5182 1.09978
734 1 -1.1104 9.20568 21.3992 3.81674
735 1 -1.1104 9.30923 27.1894 3.79675
866 1 -1.1104 11.9542 21.513 6.50998
869 1 -1.1104 9.20602 21.6539 6.71431
868 1 -1.1104 9.47582 24.4991 6.46704
726 1 -1.1104 12.2865 27.1453 3.88527
733 1 -1.1104 9.16341 26.8401 1.21208
870 1 -1.1104 9.3923 27.2781 6.81839
760 2 2.2208 -0.345319 37.1564 2.41979
865 1 -1.1104 11.9883 24.4623 6.45335
9374 2 2.2208 13.5245 31.5428 10.7998
692 2 2.2208 4.94549 28.4759 5.26529
702 2 2.2208 2.41831 28.6995 2.33461
740 1 -1.1104 1.10514 30.1665 1.16577
743 1 -1.1104 0.855351 29.926 3.84662
746 1 -1.1104 0.841187 32.8995 1.19239
747 2 2.2208 5.22066 31.2433 2.45033
749 1 -1.1104 0.845115 32.8085 3.83608
751 1 -1.1104 3.90824 29.9162 1.01687
754 1 -1.1104 3.77356 29.8086 3.72787
756 2 2.2208 2.32823 31.5199 5.14748
758 1 -1.1104 3.58159 32.9191 0.816076
759 1 -1.1104 3.70184 32.5935 3.65068
763 1 -1.1104 6.74134 30.0491 1.21401
897 1 -1.1104 3.76465 32.8276 6.45195
893 1 -1.1104 0.950859 32.8174 6.77121
889 1 -1.1104 0.862211 30.2112 6.55668
9469 2 2.2208 13.6055 25.8064 5.07863
723 1 -1.1104 12.0933 27.1482 0.871812
764 1 -1.1104 6.73933 29.9213 3.95846
765 1 -1.1104 6.46636 32.8647 1.38247
891 1 -1.1104 6.2982 29.8132 6.56803
750 1 -1.1104 6.46186 32.7656 4.11266
719 2 2.2208 10.6284 28.6211 5.1987
729 2 2.2208 7.97875 28.4587 2.44248
767 1 -1.1104 12.3621 30.0098 0.862249
769 1 -1.1104 12.4503 30.0765 3.76722
771 1 -1.1104 12.3388 32.9512 0.997364
772 2 2.2208 10.9834 31.4504 2.28324
774 1 -1.1104 12.1502 32.7419 3.73231
775 1 -1.1104 9.4894 29.8416 0.73555
778 1 -1.1104 9.77049 30.0146 3.57456
780 2 2.2208 8.01629 31.5298 5.27269
782 1 -1.1104 9.51018 32.823 1.00753
783 1 -1.1104 9.18113 32.8156 3.86428
926 1 -1.1104 9.33928 29.9743 6.53787
925 1 -1.1104 12.5031 32.6734 6.53686
928 1 -1.1104 9.52638 32.9839 6.69416
923 1 -1.1104 12.2196 29.855 6.63679
1207 2 2.2208 10.6776 45.5189 -0.491474
894 1 -1.1104 6.69475 32.8725 6.81274
1370 1 -1.1104 6.41587 46.9051 0.967621
709 2 2.2208 -0.479187 28.6736 5.27278
739 2 2.2208 5.33372 34.2692 5.12737