ITEM: TIMESTEP
200000
ITEM: NUMBER OF ATOMS
18000
ITEM: BOX BOUNDS xy xz yz pp pp pp
-1.5882964723875237e-01 2.8052829647238454e+01 0.0000000000000000e+00
-1.7608409533908875e+00 3.3648884095337070e+02 0.0000000000000000e+00
-1.4655978606099532e-01 2.8040559786060033e+01 0.0000000000000000e+00
ITEM: ATOMS id type q mass x y z
328 2 2.2208 232.038 8.20065 3.83461 13.891
2 1 -1.1104 15.9994 6.7452 16.5392 12.4225
340 2 2.2208 232.038 11.1709 17.8879 13.84
674 2 2.2208 232.038 2.67788 20.5809 13.8588
8251 2 2.2208 232.038 -0.152698 -1.62574 6.03824
6 1 -1.1104 15.9994 4.11766 19.3548 12.4196
7 1 -1.1104 15.9994 1.32853 19.3504 12.4457
8 2 2.2208 232.038 5.50217 1.09916 2.53286
9 1 -1.1104 15.9994 3.9618 16.6171 12.5617
10 2 2.2208 232.038 11.226 1.1767 2.65577
11 1 -1.1104 15.9994 1.1448 16.3902 12.4979
12 1 -1.1104 15.9994 12.365 13.6634 12.3515
13 2 2.2208 232.038 2.59722 3.91502 2.61639
8244 2 2.2208 232.038 5.51299 -1.66758 5.42947
15 1 -1.1104 15.9994 12.5638 10.8573 12.3784
16 1 -1.1104 15.9994 9.66804 13.8769 12.5626
17 2 2.2208 232.038 8.22125 3.85144 2.57891
18 2 2.2208 232.038 5.49286 6.58399 2.58016
19 1 -1.1104 15.9994 6.81573 13.8367 12.2395
20 2 2.2208 232.038 11.0255 6.52621 2.41322
8257 2 2.2208 232.038 2.8905 -1.64882 2.53632
5 2 2.2208 232.038 2.59831 15.2003 13.9023
23 2 2.2208 232.038 2.64565 9.30672 2.4918
795 1 -1.1104 15.9994 8.04299 23.6485 2.59492
25 1 -1.1104 15.9994 9.70275 11.054 12.4447
26 1 -1.1104 15.9994 6.71016 11.0319 12.3837
27 2 2.2208 232.038 8.2007 9.54903 2.73665
28 2 2.2208 232.038 5.46484 12.3936 2.35504
29 1 -1.1104 15.9994 4.02942 13.704 12.4768
30 2 2.2208 232.038 10.9322 12.1614 2.72474
344 2 2.2208 232.038 5.18922 23.5788 13.8919
32 1 -1.1104 15.9994 1.19071 13.4782 12.5644
33 2 2.2208 232.038 2.58577 15.1851 2.43768
333 2 2.2208 232.038 8.2792 9.71412 13.9707
35 1 -1.1104 15.9994 3.75421 10.8597 12.5015
36 1 -1.1104 15.9994 1.12267 10.7594 12.5016
37 2 2.2208 232.038 8.47206 14.9049 2.43662
38 2 2.2208 232.038 5.19943 18.0893 2.66347
39 1 -1.1104 15.9994 12.2761 8.06291 12.3522
40 2 2.2208 232.038 11.514 18.2155 2.77758
94 3 -1.1104 15.9994 8.18317 -1.95614 11.1478
42 1 -1.1104 15.9994 12.3618 5.36025 12.3816
43 2 2.2208 232.038 2.61418 20.7125 2.54514
318 1 -1.1104 15.9994 0.999937 8.03509 12.652
45 1 -1.1104 15.9994 9.64845 8.37116 12.4657
46 1 -1.1104 15.9994 6.98901 8.07259 12.4097
47 2 2.2208 232.038 8.08598 21.2809 2.4678
48 2 2.2208 232.038 5.22293 23.5599 2.54051
49 1 -1.1104 15.9994 9.68465 5.2768 12.2478
50 2 2.2208 232.038 11.0567 23.6241 2.57409
51 1 -1.1104 15.9994 6.99488 5.24581 12.6085
52 2 2.2208 232.038 2.584 1.21639 5.31534
53 1 -1.1104 15.9994 7.08132 22.2753 12.6674
317 1 -1.1104 15.9994 4.00524 5.17786 12.596
55 1 -1.1104 15.9994 4.13196 22.1279 12.4212
56 2 2.2208 232.038 8.34293 1.00627 5.5109
57 1 -1.1104 15.9994 1.39637 21.9406 12.463
58 2 2.2208 232.038 5.42399 0.990585 8.27637
59 1 -1.1104 15.9994 12.3982 19.4482 12.5314
60 2 2.2208 232.038 11.1485 0.985249 8.36646
311 1 -1.1104 15.9994 9.56224 -0.229 12.7364
62 2 2.2208 232.038 2.60839 6.92498 5.52139
63 2 2.2208 232.038 2.81771 3.84562 8.25479
316 1 -1.1104 15.9994 1.31074 5.27256 12.517
65 2 2.2208 232.038 5.41583 3.72042 5.31968
66 2 2.2208 232.038 8.28407 6.5491 5.55749
67 2 2.2208 232.038 8.2753 3.88571 8.13987
68 2 2.2208 232.038 5.38881 6.61149 8.26415
69 2 2.2208 232.038 11.201 3.76001 5.25126
70 2 2.2208 232.038 11.1319 6.31897 8.27911
313 1 -1.1104 15.9994 9.85434 2.46722 12.7489
72 2 2.2208 232.038 2.45703 12.3964 5.30941
73 2 2.2208 232.038 2.49837 9.51235 8.20527
74 1 -1.1104 15.9994 4.12493 7.99879 12.4319
75 2 2.2208 232.038 5.34425 9.47199 5.19376
76 2 2.2208 232.038 8.09242 12.3822 5.33543
77 2 2.2208 232.038 7.75342 9.53012 8.01752
78 2 2.2208 232.038 5.30275 12.4009 8.15276
79 2 2.2208 232.038 11.0845 9.02974 5.08877
80 2 2.2208 232.038 10.8691 12.5383 8.04098
81 4 2.2208 232.038 8.27509 18.0488 2.64373
82 2 2.2208 232.038 2.44394 17.9924 5.47657
83 2 2.2208 232.038 2.49062 15.0111 8.20364
312 1 -1.1104 15.9994 6.90947 2.44917 12.5611
85 2 2.2208 232.038 5.39602 15.1845 5.38916
86 2 2.2208 232.038 8.24446 18.1357 5.75544
87 2 2.2208 232.038 8.29569 15.2355 8.27638
88 2 2.2208 232.038 5.3858 18.0377 8.18975
89 2 2.2208 232.038 10.9812 15.1327 5.23488
90 2 2.2208 232.038 11.1013 17.9683 8.2224
91 1 -1.1104 15.9994 12.6835 16.569 12.3758
92 2 2.2208 232.038 2.52041 23.5333 5.34573
93 2 2.2208 232.038 2.58936 20.903 8.26127
314 1 -1.1104 15.9994 12.6199 -0.291306 12.5753
95 2 2.2208 232.038 5.37768 20.9024 5.41497
96 2 2.2208 232.038 8.14053 23.6423 5.26785
97 2 2.2208 232.038 8.33755 20.9559 8.22255
98 2 2.2208 232.038 5.40577 23.7022 8.20261
99 2 2.2208 232.038 11.2146 21.0292 5.41909
100 2 2.2208 232.038 11.211 23.6059 8.3572
101 1 -1.1104 15.9994 9.61276 19.2581 12.3732
102 2 2.2208 232.038 2.6919 1.06681 11.0941
103 1 -1.1104 15.9994 6.91849 19.3227 12.3933
104 2 2.2208 232.038 8.17702 0.818378 11.3009
105 1 -1.1104 15.9994 9.70939 16.6422 12.4867
315 1 -1.1104 15.9994 12.6132 2.38125 12.6095
107 2 2.2208 232.038 2.62667 6.57563 11.1666
108 2 2.2208 232.038 5.45319 3.89366 11.2518
109 2 2.2208 232.038 8.31197 6.75969 11.0007
110 2 2.2208 232.038 11.0877 3.80646 11.2053
111 4 2.2208 232.038 10.8879 9.51204 8.28035
112 2 2.2208 232.038 2.48223 12.3191 11.1878
113 2 2.2208 232.038 5.56698 9.51263 11.2112
114 2 2.2208 232.038 8.14268 12.375 11.1246
115 2 2.2208 232.038 11.195 9.64606 11.281
116 1 -1.1104 15.9994 12.4129 22.1093 12.4824
117 2 2.2208 232.038 2.49466 17.9281 11.0061
118 2 2.2208 232.038 5.25214 15.276 10.9246
119 2 2.2208 232.038 8.28468 17.89 10.9451
120 2 2.2208 232.038 11.0715 15.0307 10.9724
121 1 -1.1104 15.9994 9.59859 22.4219 12.4953
122 2 2.2208 232.038 2.56804 23.5825 11.0141
123 2 2.2208 232.038 5.43986 20.7194 10.9496
124 2 2.2208 232.038 8.28274 23.6137 10.8301
125 2 2.2208 232.038 11.1163 20.7973 11.1211
126 1 -1.1104 15.9994 1.05226 -0.619395 1.24041
127 1 -1.1104 15.9994 3.94214 -0.179454 1.26249
128 1 -1.1104 15.9994 1.09062 -0.23946 3.81978
129 1 -1.1104 15.9994 3.96914 -0.242689 4.05885
130 1 -1.1104 15.9994 1.17059 2.35174 1.35253
131 1 -1.1104 15.9994 4.19168 2.64043 1.24562
132 1 -1.1104 15.9994 1.10028 2.60514 4.07222
133 1 -1.1104 15.9994 3.86199 2.47712 3.94648
134 1 -1.1104 15.9994 7.0438 -0.329557 1.4152
135 1 -1.1104 15.9994 9.78779 -0.243514 1.54868
136 1 -1.1104 15.9994 6.80614 -0.259247 4.02972
137 1 -1.1104 15.9994 9.6898 -0.476271 4.23605
138 1 -1.1104 15.9994 6.85292 2.4536 1.13178
139 1 -1.1104 15.9994 9.73333 2.72567 1.38384
140 1 -1.1104 15.9994 6.88838 2.57996 3.99058
141 1 -1.1104 15.9994 9.8236 2.42186 3.93375
142 1 -1.1104 15.9994 12.7888 -0.69991 1.0879
143 1 -1.1104 15.9994 12.5027 -0.4483 4.06631
144 1 -1.1104 15.9994 12.6803 2.51326 1.26818
145 1 -1.1104 15.9994 12.5379 2.40061 3.96581
146 1 -1.1104 15.9994 1.12947 5.25678 1.45879
147 1 -1.1104 15.9994 4.01721 5.35695 1.16085
148 1 -1.1104 15.9994 1.33355 5.50873 4.10354
149 1 -1.1104 15.9994 4.07739 5.12884 3.94445
150 1 -1.1104 15.9994 1.32034 7.9145 1.3581
151 1 -1.1104 15.9994 4.11413 8.08823 1.23665
152 1 -1.1104 15.9994 1.269 8.13467 4.17132
153 1 -1.1104 15.9994 3.92291 8.04666 4.04316
154 1 -1.1104 15.9994 6.93487 5.36264 1.34143
155 1 -1.1104 15.9994 9.87083 5.27048 1.08007
156 1 -1.1104 15.9994 6.92715 5.28869 4.12764
157 1 -1.1104 15.9994 9.692 5.1591 4.03615
158 1 -1.1104 15.9994 6.85994 8.06772 1.01456
159 1 -1.1104 15.9994 9.73836 8.13866 1.3821
160 1 -1.1104 15.9994 6.69303 7.96111 4.18278
161 1 -1.1104 15.9994 9.48745 7.86819 4.10574
162 1 -1.1104 15.9994 12.6452 5.17999 1.33673
163 1 -1.1104 15.9994 12.7048 5.11426 4.18676
164 1 -1.1104 15.9994 12.5111 8.07681 1.29712
165 1 -1.1104 15.9994 12.4823 7.72601 3.99754
166 1 -1.1104 15.9994 1.12853 11.0153 1.45398
167 1 -1.1104 15.9994 3.97732 11.0964 1.17582
168 1 -1.1104 15.9994 1.17689 10.9682 4.03513
169 1 -1.1104 15.9994 3.96849 10.7508 3.88053
170 1 -1.1104 15.9994 1.18434 13.7793 1.09486
171 1 -1.1104 15.9994 4.01354 13.8319 1.17254
172 1 -1.1104 15.9994 1.09241 14.0363 4.24322
173 1 -1.1104 15.9994 4.22506 13.6359 3.99547
174 1 -1.1104 15.9994 6.69955 10.8898 1.2743
175 1 -1.1104 15.9994 9.55096 11.1746 1.29279
176 1 -1.1104 15.9994 6.8379 11.0069 3.9362
177 1 -1.1104 15.9994 9.69512 10.7993 4.17324
178 1 -1.1104 15.9994 6.98276 13.7991 1.00894
179 1 -1.1104 15.9994 9.86669 13.7166 1.12998
180 1 -1.1104 15.9994 7.04748 14.0474 4.03356
181 1 -1.1104 15.9994 9.78366 13.6579 3.94788
182 1 -1.1104 15.9994 12.3612 10.8898 1.3364
183 1 -1.1104 15.9994 12.5065 10.7258 4.06914
184 1 -1.1104 15.9994 12.7058 13.8127 1.1719
185 1 -1.1104 15.9994 12.3873 13.6595 3.81462
186 1 -1.1104 15.9994 1.38876 16.5492 1.01288
187 1 -1.1104 15.9994 4.25532 16.7691 1.094
188 1 -1.1104 15.9994 1.48655 16.7774 3.69575
189 1 -1.1104 15.9994 4.20384 16.4413 4.04566
190 1 -1.1104 15.9994 1.36057 19.305 1.13768
191 1 -1.1104 15.9994 4.16241 19.5937 1.08736
192 1 -1.1104 15.9994 1.02597 19.3653 4.12598
193 1 -1.1104 15.9994 3.937 19.2584 3.9894
194 1 -1.1104 15.9994 7.14728 16.4862 1.17932
195 1 -1.1104 15.9994 9.75909 16.8425 1.2863
196 1 -1.1104 15.9994 6.84345 16.8218 3.79185
197 1 -1.1104 15.9994 9.52272 16.5409 3.98218
198 1 -1.1104 15.9994 6.82538 19.2289 1.35593
199 1 -1.1104 15.9994 9.53091 19.4585 1.30215
200 1 -1.1104 15.9994 6.92247 19.4262 4.1006
201 1 -1.1104 15.9994 9.66827 19.2146 4.03749
202 1 -1.1104 15.9994 12.472 16.7196 1.25176
203 1 -1.1104 15.9994 12.5684 16.7602 3.95825
204 1 -1.1104 15.9994 12.5478 19.4572 1.34213
205 1 -1.1104 15.9994 12.6091 19.6015 4.13536
206 1 -1.1104 15.9994 1.16876 22.1562 0.967656
207 1 -1.1104 15.9994 3.87193 22.2341 1.05106
208 1 -1.1104 15.9994 1.22175 22.0872 3.98011
209 1 -1.1104 15.9994 4.06239 21.9283 3.80755
210 1 -1.1104 15.9994 6.67378 22.1111 1.03031
211 1 -1.1104 15.9994 9.75517 22.1137 1.00296
212 1 -1.1104 15.9994 6.61381 22.1079 4.17647
213 1 -1.1104 15.9994 9.71051 22.0678 4.07898
214 1 -1.1104 15.9994 12.5757 22.1573 1.41265
215 1 -1.1104 15.9994 12.5532 22.3903 3.97688
216 1 -1.1104 15.9994 1.27517 0.0356871 6.68507
217 1 -1.1104 15.9994 4.14464 -0.482837 6.96613
218 1 -1.1104 15.9994 1.07985 -0.430393 9.55858
219 1 -1.1104 15.9994 4.00793 -0.231351 9.70657
220 1 -1.1104 15.9994 1.37368 2.57843 6.91028
221 1 -1.1104 15.9994 4.19302 2.38168 6.81172
222 1 -1.1104 15.9994 1.17437 2.11059 9.89229
223 1 -1.1104 15.9994 4.10693 2.58084 9.50424
224 1 -1.1104 15.9994 6.77068 0.0239338 6.68367
225 1 -1.1104 15.9994 9.64424 -0.446486 6.89559
226 1 -1.1104 15.9994 6.72455 -0.292985 9.65342
227 1 -1.1104 15.9994 9.73623 -0.380306 9.77555
228 1 -1.1104 15.9994 7.05743 2.67025 6.73471
229 1 -1.1104 15.9994 9.67044 2.23021 6.82441
230 1 -1.1104 15.9994 6.84527 2.51308 9.61998
231 1 -1.1104 15.9994 9.69092 2.50319 9.69365
232 1 -1.1104 15.9994 12.4931 -0.396253 7.02002
233 1 -1.1104 15.9994 12.5482 -0.417662 9.73346
234 1 -1.1104 15.9994 12.6532 2.46804 6.7419
235 1 -1.1104 15.9994 12.6277 2.24814 9.82618
236 1 -1.1104 15.9994 1.07046 5.59752 6.79909
237 1 -1.1104 15.9994 3.80907 5.33925 6.73308
238 1 -1.1104 15.9994 1.29322 5.18402 9.7085
239 1 -1.1104 15.9994 4.15732 5.24309 9.6843
240 1 -1.1104 15.9994 1.05663 8.28258 6.97358
241 1 -1.1104 15.9994 4.18288 8.26181 7.06107
242 1 -1.1104 15.9994 1.18538 8.13986 9.70684
243 1 -1.1104 15.9994 3.90994 7.99504 9.69487
244 1 -1.1104 15.9994 6.70275 5.28002 6.95224
245 1 -1.1104 15.9994 9.50262 5.28712 6.82917
246 1 -1.1104 15.9994 7.03277 5.47497 9.71602
247 1 -1.1104 15.9994 9.70776 5.19257 9.59017
248 1 -1.1104 15.9994 6.85591 7.94461 6.87503
249 1 -1.1104 15.9994 9.76102 8.20449 6.86775
250 1 -1.1104 15.9994 6.50765 8.23316 9.44838
251 1 -1.1104 15.9994 9.53648 8.22404 9.63103
252 1 -1.1104 15.9994 12.576 5.30092 6.85803
253 1 -1.1104 15.9994 12.5277 5.20758 9.7208
254 1 -1.1104 15.9994 12.3588 8.05183 6.79971
255 1 -1.1104 15.9994 12.243 8.11321 9.43313
256 1 -1.1104 15.9994 1.23474 11.0365 6.7418
257 1 -1.1104 15.9994 4.13851 11.1233 6.76096
258 1 -1.1104 15.9994 1.03524 10.9929 9.56536
259 1 -1.1104 15.9994 4.09791 10.9308 9.75568
260 1 -1.1104 15.9994 0.9825 13.8471 6.99709
261 1 -1.1104 15.9994 3.81882 13.8281 6.61924
262 1 -1.1104 15.9994 1.01443 13.6329 9.69123
263 1 -1.1104 15.9994 3.82353 13.7208 9.73714
264 1 -1.1104 15.9994 6.79049 10.9907 6.72549
265 1 -1.1104 15.9994 9.47731 10.9081 6.95537
266 1 -1.1104 15.9994 7.02729 11.1293 9.54551
267 1 -1.1104 15.9994 9.84867 11.0367 9.56787
268 1 -1.1104 15.9994 6.91223 13.7707 6.92732
269 1 -1.1104 15.9994 9.53634 13.8743 6.60808
270 1 -1.1104 15.9994 6.66639 13.987 9.59981
271 1 -1.1104 15.9994 9.54231 13.7465 9.53625
272 1 -1.1104 15.9994 12.1402 10.717 6.91812
273 1 -1.1104 15.9994 12.4829 10.7567 9.45287
274 1 -1.1104 15.9994 12.2283 13.4158 6.62073
275 1 -1.1104 15.9994 12.4403 13.4823 9.52219
276 1 -1.1104 15.9994 1.07005 16.6135 6.68879
277 1 -1.1104 15.9994 3.97513 16.7161 6.84607
278 1 -1.1104 15.9994 1.11771 16.3329 9.51665
279 1 -1.1104 15.9994 3.81332 16.5012 9.58275
280 1 -1.1104 15.9994 1.36332 19.4328 6.90414
281 1 -1.1104 15.9994 4.12082 19.5472 6.5325
282 1 -1.1104 15.9994 1.41807 19.3779 9.4326
283 1 -1.1104 15.9994 4.17778 19.4987 9.6005
284 1 -1.1104 15.9994 6.80105 16.5136 6.68426
285 1 -1.1104 15.9994 9.7745 16.537 6.82202
286 1 -1.1104 15.9994 6.64097 16.7399 9.34716
287 1 -1.1104 15.9994 9.57369 16.4742 9.68321
288 1 -1.1104 15.9994 6.80394 19.3018 6.98403
289 1 -1.1104 15.9994 9.81903 19.5245 6.8214
290 1 -1.1104 15.9994 6.9889 19.2297 9.70766
291 1 -1.1104 15.9994 9.65565 19.2538 9.61968
292 1 -1.1104 15.9994 12.6898 16.2521 6.86307
293 1 -1.1104 15.9994 12.316 16.4561 9.74896
294 1 -1.1104 15.9994 12.565 19.3554 6.86335
295 1 -1.1104 15.9994 12.4962 19.4233 9.61049
296 1 -1.1104 15.9994 1.0912 22.2776 6.84461
297 1 -1.1104 15.9994 3.90175 22.2449 6.6692
298 1 -1.1104 15.9994 1.1647 22.2373 9.58667
299 1 -1.1104 15.9994 4.19307 22.2888 9.52961
300 1 -1.1104 15.9994 6.81371 22.3234 6.88763
301 1 -1.1104 15.9994 9.49894 22.397 6.76056
302 1 -1.1104 15.9994 6.93136 22.0406 9.87503
303 1 -1.1104 15.9994 9.68593 22.1589 9.63615
304 1 -1.1104 15.9994 12.4994 22.2568 6.83506
305 1 -1.1104 15.9994 12.4747 22.128 9.75442
306 1 -1.1104 15.9994 1.1712 -0.503136 12.4841
307 1 -1.1104 15.9994 3.98271 -0.392024 12.4623
308 1 -1.1104 15.9994 1.44855 2.47689 12.278
309 1 -1.1104 15.9994 4.18013 2.377 12.6135
310 1 -1.1104 15.9994 6.70114 -0.271493 12.6012
9065 2 2.2208 232.038 13.996 6.52723 11.1976
9030 2 2.2208 232.038 13.8133 12.3002 5.30038
9050 2 2.2208 232.038 13.9137 23.7046 5.5008
9295 2 2.2208 232.038 -0.0399659 6.68372 2.7268
84 2 2.2208 232.038 2.63101 9.2967 13.8663
3 2 2.2208 232.038 13.9562 1.00079 5.42054
106 2 2.2208 232.038 -0.169196 3.80741 10.9746
54 2 2.2208 232.038 -0.0668821 0.863699 8.37896
366 4 2.2208 232.038 8.32783 23.6845 13.9648
9041 2 2.2208 232.038 13.8457 15.0937 8.35469
9289 2 2.2208 232.038 -0.201369 23.5486 13.9088
345 2 2.2208 232.038 11.5347 23.4936 14.0884
326 2 2.2208 232.038 13.89 3.66209 13.9618
14 2 2.2208 232.038 5.41349 12.5225 13.7453
338 2 2.2208 232.038 8.21364 15.2159 13.8918
8991 2 2.2208 232.038 13.9195 15.1823 2.52448
8981 2 2.2208 232.038 13.9134 9.43289 2.57678
335 2 2.2208 232.038 11.0704 12.3554 13.8357
330 2 2.2208 232.038 10.9175 6.66611 13.6529
319 2 2.2208 232.038 5.52412 18.0297 13.7978
9630 2 2.2208 232.038 13.8614 12.3335 -0.127115
322 2 2.2208 232.038 -0.202299 0.920891 13.8355
9636 2 2.2208 232.038 13.8971 23.5689 -0.142895
9331 2 2.2208 232.038 -0.26855 18.1137 19.6827
398 2 2.2208 232.038 2.44206 23.6548 27.8924
22 2 2.2208 232.038 2.49849 12.0987 27.898
668 2 2.2208 232.038 5.42418 9.53009 27.9593
400 2 2.2208 232.038 8.264 17.9569 27.8537
9644 2 2.2208 232.038 13.8969 3.99031 25.2656
327 1 -1.1104 15.9994 6.80404 22.4157 23.7664
354 2 2.2208 232.038 13.7814 1.17419 22.3307
329 1 -1.1104 15.9994 3.91267 22.0556 26.5608
9353 2 2.2208 232.038 13.9673 17.9236 16.6089
331 1 -1.1104 15.9994 1.09571 22.1115 26.4665
332 3 -1.1104 15.9994 11.006 18.1279 22.3233
348 2 2.2208 232.038 13.9138 12.0428 22.3962
334 1 -1.1104 15.9994 4.2061 22.1955 23.8556
402 2 2.2208 232.038 13.927 6.67138 16.7653
336 1 -1.1104 15.9994 1.40045 22.0347 23.8984
337 3 -1.1104 15.9994 11.2147 6.71154 22.3512
8948 2 2.2208 232.038 5.6071 -1.73637 28.0016
339 1 -1.1104 15.9994 12.6339 19.3826 26.6888
409 2 2.2208 232.038 5.3473 15.2089 27.9006
341 1 -1.1104 15.9994 12.4767 19.6023 23.9776
9299 2 2.2208 232.038 13.995 15.1426 19.5393
654 1 -1.1104 15.9994 9.57906 19.5027 23.8803
665 2 2.2208 232.038 5.61928 3.8644 27.9546
664 2 2.2208 232.038 2.74692 6.7709 27.9604
419 2 2.2208 232.038 13.8011 0.911665 28.0099
347 2 2.2208 232.038 2.5946 0.835956 16.774
645 1 -1.1104 15.9994 0.99185 19.268 23.8375
644 1 -1.1104 15.9994 3.98266 16.5268 26.4002
658 1 -1.1104 15.9994 12.4497 16.577 26.3733
351 2 2.2208 232.038 8.26081 0.874878 16.7829
9343 2 2.2208 232.038 13.9475 12.34 16.8394
353 2 2.2208 232.038 5.32147 1.07049 19.5148
659 2 2.2208 232.038 2.54501 1.08683 28.0237
355 2 2.2208 232.038 10.9614 1.05434 19.5213
643 1 -1.1104 15.9994 0.9254 16.2575 26.3119
357 2 2.2208 232.038 2.62403 6.64971 16.7631
358 2 2.2208 232.038 2.77067 3.76127 19.5549
653 1 -1.1104 15.9994 6.77387 19.4597 23.6874
360 2 2.2208 232.038 5.40098 3.76047 16.8201
361 2 2.2208 232.038 8.32876 6.47091 16.7716
362 2 2.2208 232.038 8.17198 3.86175 19.6645
363 2 2.2208 232.038 5.5117 6.65673 19.5744
364 2 2.2208 232.038 11.3078 3.77461 16.693
365 2 2.2208 232.038 11.1 6.53054 19.7126
642 1 -1.1104 15.9994 3.94161 16.7814 23.7555
367 2 2.2208 232.038 2.56052 12.3306 16.3023
368 2 2.2208 232.038 2.48768 9.2595 19.6478
369 3 -1.1104 15.9994 1.21191 -0.436723 20.9868
370 2 2.2208 232.038 5.35827 9.46769 16.576
371 2 2.2208 232.038 8.24083 12.3863 16.6794
372 2 2.2208 232.038 8.36901 9.48234 19.3407
373 2 2.2208 232.038 5.73878 12.4533 19.5624
374 2 2.2208 232.038 11.1933 9.46052 16.5227
375 2 2.2208 232.038 11.2505 12.2507 19.5157
376 4 2.2208 232.038 2.67575 12.2944 19.4508
377 2 2.2208 232.038 2.63318 18.0034 16.5011
378 2 2.2208 232.038 2.40481 15.537 19.4336
379 1 -1.1104 15.9994 12.5634 22.2258 26.9204
380 2 2.2208 232.038 5.5376 15.17 16.6412
381 2 2.2208 232.038 8.31814 17.9847 16.8891
382 2 2.2208 232.038 8.31622 15.143 19.5345
383 2 2.2208 232.038 5.49129 18.1048 19.5904
384 2 2.2208 232.038 11.1246 15.1079 16.6782
385 2 2.2208 232.038 10.9752 17.9573 19.6068
386 1 -1.1104 15.9994 12.5893 22.3622 24.0041
387 2 2.2208 232.038 2.6094 23.7716 16.7137
388 2 2.2208 232.038 2.48366 20.6606 19.5878
389 1 -1.1104 15.9994 9.76274 22.12 26.58
390 2 2.2208 232.038 5.39723 20.6921 16.7028
391 2 2.2208 232.038 8.14963 23.6938 17.0877
392 2 2.2208 232.038 8.27285 20.8954 19.6513
393 2 2.2208 232.038 5.21147 23.4547 19.6053
394 2 2.2208 232.038 11.0422 20.7644 16.8542
395 2 2.2208 232.038 11.1986 23.6556 19.6363
657 1 -1.1104 15.9994 12.7341 16.3442 23.7821
397 2 2.2208 232.038 2.62935 1.14097 22.329
650 1 -1.1104 15.9994 9.41476 16.5934 23.8409
646 1 -1.1104 15.9994 4.02942 19.5333 23.8573
350 2 2.2208 232.038 5.25835 20.7463 27.9211
401 2 2.2208 232.038 8.34681 1.09273 22.4234
404 2 2.2208 232.038 13.9305 0.881656 16.7714
403 2 2.2208 232.038 5.43524 0.953195 25.3205
641 1 -1.1104 15.9994 1.1543 16.4957 23.6768
405 2 2.2208 232.038 11.0769 1.10994 25.2247
651 1 -1.1104 15.9994 6.77169 16.6098 26.6294
407 2 2.2208 232.038 2.61313 6.56355 22.6212
408 2 2.2208 232.038 2.68676 3.85477 25.2842
652 1 -1.1104 15.9994 9.68142 16.4289 26.7705
410 2 2.2208 232.038 5.42806 3.89292 22.3834
411 2 2.2208 232.038 8.55939 6.61999 22.3465
412 2 2.2208 232.038 8.37917 3.85356 24.9832
413 2 2.2208 232.038 5.6029 6.5592 25.0698
414 2 2.2208 232.038 11.1736 3.96061 22.346
415 2 2.2208 232.038 11.0899 6.8601 25.1827
649 1 -1.1104 15.9994 6.753 16.5825 23.8321
417 2 2.2208 232.038 2.53617 12.3535 22.5315
418 2 2.2208 232.038 2.55609 9.26143 25.3568
656 1 -1.1104 15.9994 9.77065 19.2827 26.6101
420 2 2.2208 232.038 5.34087 9.55673 22.2612
421 2 2.2208 232.038 8.30627 12.2676 22.4159
422 2 2.2208 232.038 8.30897 9.58359 25.0936
423 2 2.2208 232.038 5.44355 12.362 25.2536
424 2 2.2208 232.038 10.9872 9.38605 22.3254
425 2 2.2208 232.038 11.1276 12.3679 25.1083
426 1 -1.1104 15.9994 6.81574 22.3592 26.5638
427 2 2.2208 232.038 2.60225 18.1182 22.5365
428 2 2.2208 232.038 2.53211 15.2904 25.1214
648 1 -1.1104 15.9994 3.93224 19.3271 26.5783
430 2 2.2208 232.038 5.42721 15.2541 22.3539
431 2 2.2208 232.038 8.30179 17.8414 22.4028
432 2 2.2208 232.038 8.21802 15.1438 25.2802
433 2 2.2208 232.038 5.50762 17.9718 25.0153
434 2 2.2208 232.038 11.0924 15.2775 22.417
435 2 2.2208 232.038 11.0238 17.9352 24.86
655 1 -1.1104 15.9994 6.90195 19.3438 26.456
437 2 2.2208 232.038 2.45058 23.7882 22.3749
438 2 2.2208 232.038 2.71889 20.8472 25.1975
439 1 -1.1104 15.9994 9.66158 22.0302 23.7064
440 2 2.2208 232.038 5.48275 20.854 22.413
441 2 2.2208 232.038 8.43354 23.7421 22.427
442 2 2.2208 232.038 8.17297 20.8335 25.0477
443 2 2.2208 232.038 5.47704 23.7892 25.1182
444 2 2.2208 232.038 10.9679 20.6334 22.3034
445 2 2.2208 232.038 11.1032 23.5692 25.21
446 1 -1.1104 15.9994 1.18187 -0.449626 15.4426
447 1 -1.1104 15.9994 4.02162 -0.449388 15.2476
448 1 -1.1104 15.9994 1.2023 2.27633 15.1824
449 1 -1.1104 15.9994 4.00467 2.47826 15.3184
450 1 -1.1104 15.9994 6.86072 -0.367774 15.4306
451 1 -1.1104 15.9994 9.66455 -0.431508 15.2661
452 1 -1.1104 15.9994 6.86634 2.36354 15.3162
453 1 -1.1104 15.9994 9.62848 2.49706 15.4393
454 1 -1.1104 15.9994 12.5081 -0.334638 15.461
455 1 -1.1104 15.9994 12.4725 2.51518 15.3114
456 1 -1.1104 15.9994 1.40619 5.20507 15.2092
457 1 -1.1104 15.9994 4.10177 5.3764 15.4393
458 1 -1.1104 15.9994 1.22618 7.9527 15.2404
459 1 -1.1104 15.9994 4.01679 8.0622 15.3616
460 1 -1.1104 15.9994 6.94965 5.35733 15.4724
461 1 -1.1104 15.9994 9.86104 5.1722 15.274
462 1 -1.1104 15.9994 6.85827 8.00426 15.1429
463 1 -1.1104 15.9994 9.57481 8.22898 15.2129
464 1 -1.1104 15.9994 12.6719 5.20902 15.3788
465 1 -1.1104 15.9994 12.3644 8.01746 15.0572
466 1 -1.1104 15.9994 1.31057 10.8014 15.3313
467 1 -1.1104 15.9994 4.00078 10.9094 15.2948
468 1 -1.1104 15.9994 1.06615 13.5494 15.2638
469 1 -1.1104 15.9994 4.01207 13.6642 15.1525
470 1 -1.1104 15.9994 6.80667 11.0662 15.1511
471 1 -1.1104 15.9994 9.73692 10.9754 15.0498
472 1 -1.1104 15.9994 6.80781 13.7254 15.052
473 1 -1.1104 15.9994 9.4395 13.7203 15.3296
474 1 -1.1104 15.9994 12.5479 10.8893 15.2319
475 1 -1.1104 15.9994 12.394 13.7082 15.1566
476 1 -1.1104 15.9994 1.12327 16.34 15.1063
477 1 -1.1104 15.9994 3.95369 16.3976 15.2821
478 1 -1.1104 15.9994 1.13756 19.2378 15.1992
479 1 -1.1104 15.9994 4.15519 19.4246 15.1731
480 1 -1.1104 15.9994 6.82202 16.5403 15.3353
481 1 -1.1104 15.9994 9.5329 16.6463 15.3345
482 1 -1.1104 15.9994 7.05895 19.174 15.2428
483 1 -1.1104 15.9994 9.88765 19.4121 15.4619
484 1 -1.1104 15.9994 12.3682 16.3673 15.2857
485 1 -1.1104 15.9994 12.6654 19.156 15.0532
486 1 -1.1104 15.9994 1.42888 22.277 15.1209
487 1 -1.1104 15.9994 4.14567 22.2283 15.5092
488 1 -1.1104 15.9994 7.06594 22.3606 15.2962
489 1 -1.1104 15.9994 9.63938 22.048 15.0379
490 1 -1.1104 15.9994 12.4835 22.0719 15.6169
491 1 -1.1104 15.9994 1.21278 -0.475323 18.2585
492 1 -1.1104 15.9994 3.91602 -0.497333 18.1532
493 1 -1.1104 15.9994 1.20895 2.39782 20.755
494 1 -1.1104 15.9994 3.93816 -0.331585 20.925
495 1 -1.1104 15.9994 1.20726 2.54069 18.0607
496 1 -1.1104 15.9994 4.06827 2.35422 17.9637
497 1 -1.1104 15.9994 1.19793 5.4111 21.0196
498 1 -1.1104 15.9994 3.9655 2.46494 21.0196
499 1 -1.1104 15.9994 6.73992 -0.413607 18.1464
500 1 -1.1104 15.9994 9.62972 -0.454474 18.1522
501 1 -1.1104 15.9994 6.72756 -0.133882 20.9206
502 1 -1.1104 15.9994 9.56042 -0.236836 20.8668
503 1 -1.1104 15.9994 6.82525 2.25802 18.0972
504 1 -1.1104 15.9994 9.7187 2.30367 18.0541
505 1 -1.1104 15.9994 6.66745 2.68301 20.8745
506 1 -1.1104 15.9994 9.55297 2.41175 20.7616
507 1 -1.1104 15.9994 12.4368 -0.506357 18.2111
508 1 -1.1104 15.9994 12.3233 -0.333339 20.8012
509 1 -1.1104 15.9994 12.5039 2.37738 18.222
510 1 -1.1104 15.9994 12.4454 2.45808 20.918
511 1 -1.1104 15.9994 1.26791 5.26428 17.983
512 1 -1.1104 15.9994 3.95885 5.33977 18.2392
647 1 -1.1104 15.9994 1.12259 19.2066 26.5021
514 1 -1.1104 15.9994 4.01736 5.17656 21.0905
515 1 -1.1104 15.9994 1.30177 8.06187 18.2601
516 1 -1.1104 15.9994 4.06421 8.13129 18.1621
517 1 -1.1104 15.9994 1.13457 7.93442 20.8779
518 1 -1.1104 15.9994 3.91632 8.1527 21.0769
519 1 -1.1104 15.9994 6.80183 5.23715 18.1535
520 1 -1.1104 15.9994 9.63093 5.21298 18.3064
521 1 -1.1104 15.9994 6.96937 5.54166 20.8404
522 1 -1.1104 15.9994 9.51846 5.08734 20.9859
523 1 -1.1104 15.9994 6.94865 8.10764 17.9091
524 1 -1.1104 15.9994 9.87851 8.13684 18.0782
525 1 -1.1104 15.9994 6.65845 8.44072 20.6945
526 1 -1.1104 15.9994 9.52609 8.12567 20.7989
527 1 -1.1104 15.9994 12.4033 5.36788 18.2997
528 1 -1.1104 15.9994 12.5767 5.11968 20.9329
529 1 -1.1104 15.9994 12.7328 8.18475 18.0131
530 1 -1.1104 15.9994 12.3907 8.31882 20.7554
531 1 -1.1104 15.9994 1.1751 11.068 18.1929
532 1 -1.1104 15.9994 3.86951 10.9813 18.06
533 1 -1.1104 15.9994 1.32093 10.8887 20.875
534 1 -1.1104 15.9994 3.82284 10.9704 20.6282
535 1 -1.1104 15.9994 1.29437 13.6719 18.0758
536 1 -1.1104 15.9994 3.93161 13.5338 18.1988
537 1 -1.1104 15.9994 1.42399 13.7131 20.7364
538 1 -1.1104 15.9994 3.90176 13.4966 21.1277
539 1 -1.1104 15.9994 6.87529 10.9997 18.1365
540 1 -1.1104 15.9994 9.81554 11.0009 17.8782
541 1 -1.1104 15.9994 6.77046 11.1399 20.9992
542 1 -1.1104 15.9994 9.70845 10.756 20.8471
543 1 -1.1104 15.9994 6.93686 13.6583 17.9465
544 1 -1.1104 15.9994 9.73059 13.7103 18.2222
545 1 -1.1104 15.9994 6.69247 13.8581 20.9231
546 1 -1.1104 15.9994 9.4554 13.5232 21.0666
547 1 -1.1104 15.9994 12.5214 10.8748 18.0828
548 1 -1.1104 15.9994 12.6161 11.0561 20.891
549 1 -1.1104 15.9994 12.4059 13.7593 18.0107
550 1 -1.1104 15.9994 12.7149 13.5877 20.8551
551 1 -1.1104 15.9994 0.980678 16.4843 17.9795
552 1 -1.1104 15.9994 3.88779 16.5686 18.0003
553 1 -1.1104 15.9994 1.01327 16.6506 20.9164
554 1 -1.1104 15.9994 4.06233 16.4802 20.8325
555 1 -1.1104 15.9994 1.24994 19.279 18.0991
556 1 -1.1104 15.9994 3.9996 19.3173 18.0271
557 1 -1.1104 15.9994 1.28104 19.3336 20.9804
558 1 -1.1104 15.9994 4.03175 19.3603 20.8748
559 1 -1.1104 15.9994 6.78908 16.4598 18.1323
560 1 -1.1104 15.9994 9.57285 16.5054 18.183
561 1 -1.1104 15.9994 6.69126 16.7701 20.9701
562 1 -1.1104 15.9994 9.55573 16.3269 20.9651
563 1 -1.1104 15.9994 6.71593 19.1921 17.8566
564 1 -1.1104 15.9994 9.61316 19.4191 18.2479
565 1 -1.1104 15.9994 6.68065 19.527 20.8251
566 1 -1.1104 15.9994 9.4421 19.4301 21.0101
567 1 -1.1104 15.9994 12.5978 16.4538 18.0923
568 1 -1.1104 15.9994 12.5042 16.4626 20.7416
569 1 -1.1104 15.9994 12.3127 19.2379 17.895
570 1 -1.1104 15.9994 12.48 19.5669 20.6282
571 1 -1.1104 15.9994 1.04581 22.3468 17.7344
572 1 -1.1104 15.9994 3.79489 21.996 18.1493
573 1 -1.1104 15.9994 1.17485 22.0274 20.6484
574 1 -1.1104 15.9994 3.91638 22.2698 21.0239
575 1 -1.1104 15.9994 6.86504 21.9287 18.1311
576 1 -1.1104 15.9994 9.62689 22.2994 18.2688
577 1 -1.1104 15.9994 6.87123 22.314 20.9053
578 1 -1.1104 15.9994 9.59871 22.3184 20.9908
579 1 -1.1104 15.9994 12.3823 21.9938 18.2327
580 1 -1.1104 15.9994 12.2633 22.174 21.0638
581 1 -1.1104 15.9994 1.29185 -0.372629 23.7138
582 1 -1.1104 15.9994 4.16305 -0.328738 23.8547
583 1 -1.1104 15.9994 1.19694 -0.393949 26.6406
584 1 -1.1104 15.9994 4.01095 -0.35098 26.8435
585 1 -1.1104 15.9994 1.32528 2.41299 23.7032
586 1 -1.1104 15.9994 4.04006 2.48324 23.7608
587 1 -1.1104 15.9994 1.18975 2.49195 26.4311
588 1 -1.1104 15.9994 4.07222 2.43657 26.5916
589 1 -1.1104 15.9994 6.9195 -0.591168 23.8023
590 1 -1.1104 15.9994 9.82714 -0.224823 23.6919
591 1 -1.1104 15.9994 6.91779 -0.258626 26.8021
592 1 -1.1104 15.9994 9.52135 -0.637518 26.4598
593 1 -1.1104 15.9994 6.96307 2.50898 23.5862
594 1 -1.1104 15.9994 9.80132 2.33432 23.7228
595 1 -1.1104 15.9994 6.72336 2.68411 26.2346
596 1 -1.1104 15.9994 9.52078 2.60433 26.4048
597 1 -1.1104 15.9994 12.5141 -0.407324 23.5724
598 1 -1.1104 15.9994 12.7738 -0.65242 26.3399
599 1 -1.1104 15.9994 12.5791 2.65141 23.7242
600 1 -1.1104 15.9994 12.7251 2.38265 26.3328
601 1 -1.1104 15.9994 1.26668 5.12608 24.0527
602 1 -1.1104 15.9994 4.09146 5.26625 23.8254
603 1 -1.1104 15.9994 1.19783 5.22235 26.6896
604 1 -1.1104 15.9994 4.22715 5.1644 26.5012
605 1 -1.1104 15.9994 0.946716 7.9793 23.6712
606 1 -1.1104 15.9994 3.93339 8.19084 23.7791
607 1 -1.1104 15.9994 1.14752 7.79125 26.5289
608 1 -1.1104 15.9994 4.40884 7.80377 26.6311
609 1 -1.1104 15.9994 6.89869 5.33714 23.7015
610 1 -1.1104 15.9994 9.61593 5.21063 23.7824
611 1 -1.1104 15.9994 6.96151 5.29059 26.5351
612 1 -1.1104 15.9994 9.74636 5.24358 26.4808
613 1 -1.1104 15.9994 6.92979 8.03663 23.5833
614 1 -1.1104 15.9994 9.75885 8.24536 23.8692
615 1 -1.1104 15.9994 7.10195 8.11988 26.4945
616 1 -1.1104 15.9994 9.78333 8.11204 26.7883
617 1 -1.1104 15.9994 12.5049 5.32925 24.0865
618 1 -1.1104 15.9994 12.6823 5.28668 26.7381
619 1 -1.1104 15.9994 12.8873 8.24926 23.9248
620 1 -1.1104 15.9994 12.564 7.9641 26.6674
621 1 -1.1104 15.9994 1.3571 10.6697 23.5661
622 1 -1.1104 15.9994 4.32987 11.1624 23.5791
623 1 -1.1104 15.9994 1.09436 10.7824 26.2334
624 1 -1.1104 15.9994 3.8954 10.941 26.159
625 1 -1.1104 15.9994 1.21169 13.6362 23.6866
626 1 -1.1104 15.9994 3.96117 13.88 23.7443
627 1 -1.1104 15.9994 0.889017 13.4948 26.5864
628 1 -1.1104 15.9994 3.97345 13.6639 26.5781
629 1 -1.1104 15.9994 6.97155 11.012 23.9163
630 1 -1.1104 15.9994 9.77087 11.0099 23.8016
631 1 -1.1104 15.9994 6.71024 10.967 26.6385
632 1 -1.1104 15.9994 9.48787 10.7578 26.8104
633 1 -1.1104 15.9994 6.73003 13.9135 23.8204
634 1 -1.1104 15.9994 9.81806 13.9309 23.7934
635 1 -1.1104 15.9994 6.73349 13.8516 26.6189
636 1 -1.1104 15.9994 9.48281 13.5456 26.5894
637 1 -1.1104 15.9994 12.456 10.9995 23.8204
638 1 -1.1104 15.9994 12.4724 10.8468 26.6857
639 1 -1.1104 15.9994 12.5674 13.6821 23.9262