LAMMPS (29 Oct 2020)
OMP_NUM_THREADS environment is not set. Defaulting to 1 thread. (../comm.cpp:94)
  using 1 OpenMP thread(s) per MPI task
OMP_NUM_THREADS environment is not set. Defaulting to 1 thread. (../comm.cpp:94)
  using 1 OpenMP thread(s) per MPI task
Reading data file ...
  triclinic box = (-0.23382895 -2.5580323 -0.23055308) to (28.127829 337.28603 28.124553) with tilt (0.0000000 0.0000000 0.0000000)
  2 by 13 by 2 MPI processor grid
  reading atoms ...
  18000 atoms
  reading velocities ...
  18000 velocities
Finding 1-2 1-3 1-4 neighbors ...
  special bond factors lj:    0.0      0.0      0.0     
  special bond factors coul:  0.0      0.0      0.0     
     0 = max # of 1-2 neighbors
     0 = max # of 1-3 neighbors
     0 = max # of 1-4 neighbors
     1 = max # of special neighbors
  special bonds CPU = 0.005 seconds
  read_data CPU = 0.081 seconds
Setting atom values ...
  12000 settings made for charge
Setting atom values ...
  6000 settings made for charge
PPPM initialization ...
  using 12-bit tables for long-range coulomb (../kspace.cpp:328)
  G vector (1/distance) = 0.2982827
  grid = 40 240 40
  stencil order = 5
  estimated absolute RMS force accuracy = 0.00016219725
  estimated relative force accuracy = 1.1263975e-05
  using single precision MKL FFT
  3d grid and FFT values/proc = 15000 7600
Neighbor list info ...
  update every 1 steps, delay 0 steps, check yes
  max neighbors/atom: 2000, page size: 100000
  master list distance cutoff = 11.3
  ghost atom cutoff = 11.3
  binsize = 5.65, bins = 6 61 6
  2 neighbor lists, perpetual/occasional/extra = 2 0 0
  (1) pair coul/long, perpetual
      attributes: half, newton on
      pair build: half/bin/newton/tri
      stencil: half/bin/3d/newton/tri
      bin: standard
  (2) pair eam/alloy, perpetual, copy from (1)
      attributes: half, newton on
      pair build: copy
      stencil: none
      bin: none
Setting up Verlet run ...
  Unit style    : metal
  Current step  : 0
  Time step     : 0.001
Per MPI rank memory allocation (min/avg/max) = 8.314 | 8.340 | 8.355 Mbytes
Step Temp E_pair E_mol TotEng Press 
       0         1500   -232908.28            0   -229418.45   -1195.6487 
  100000    1497.0753   -232884.37            0   -229401.34   -892.74268 
Loop time of 700.912 on 52 procs for 100000 steps with 18000 atoms

Performance: 12.327 ns/day, 1.947 hours/ns, 142.671 timesteps/s
99.8% CPU use with 52 MPI tasks x 1 OpenMP threads

MPI task timing breakdown:
Section |  min time  |  avg time  |  max time  |%varavg| %total
---------------------------------------------------------------
Pair    | 451.5      | 459.82     | 471.51     |  22.3 | 65.60
Bond    | 0.0070329  | 0.01051    | 0.01379    |   1.5 |  0.00
Kspace  | 141.58     | 156.21     | 164.91     |  48.5 | 22.29
Neigh   | 59.766     | 62.355     | 66.369     |  23.6 |  8.90
Comm    | 16.403     | 18.006     | 21.076     |  27.0 |  2.57
Output  | 5.3036e-05 | 5.9708e-05 | 0.00030847 |   0.0 |  0.00
Modify  | 2.3046     | 3.0961     | 5.1739     |  62.0 |  0.44
Other   |            | 1.417      |            |       |  0.20

Nlocal:        346.154 ave         365 max         329 min
Histogram: 3 5 5 9 8 6 6 1 7 2
Nghost:        3975.29 ave        4074 max        3903 min
Histogram: 2 9 11 9 2 7 1 3 4 4
Neighs:        69538.9 ave       72866 max       66075 min
Histogram: 3 4 5 8 8 4 5 4 5 6

Total # of neighbors = 3616022
Ave neighs/atom = 200.89011
Ave special neighs/atom = 0.0000000
Neighbor list builds = 24986
Dangerous builds = 0
12000 atoms in group oxygen
PPPM initialization ...
  using 12-bit tables for long-range coulomb (../kspace.cpp:328)
  G vector (1/distance) = 0.2982827
  grid = 40 240 40
  stencil order = 5
  estimated absolute RMS force accuracy = 0.00016219725
  estimated relative force accuracy = 1.1263975e-05
  using single precision MKL FFT
  3d grid and FFT values/proc = 15000 7600
Setting up Verlet run ...
  Unit style    : metal
  Current step  : 0
  Time step     : 0.001
Per MPI rank memory allocation (min/avg/max) = 8.565 | 8.591 | 8.606 Mbytes
Step f_2 Temp v_Tdiff v_deltaT 
       0            0    1497.0753            0            0 
  100000    1600.6265    1505.0532  0.065029997    754.99222 
  200000      3098.11    1505.7735  0.078356041    909.70636 
  300000    4594.3373    1497.0127  0.080203704    931.15756 
  400000     6069.569    1498.9348  0.079958186    928.30711 
  500000    7545.6523    1500.0249  0.079196141    919.45984 
  600000    9036.8702    1511.4413  0.080361732    932.99225 
  700000    10538.863    1514.9897  0.078963728    916.76155 
  800000    12044.909    1505.8848  0.079555792    923.63536 
  900000    13536.801    1498.3879  0.079980017    928.56056 
 1000000    15037.632    1491.4257  0.079043859    917.69186 
 1100000    16544.842    1503.3719  0.080147545    930.50555 
 1200000    18037.616    1513.7988  0.079548522    923.55095 
 1300000    19532.236    1504.8991  0.079945103    928.15522 
 1400000     21029.84    1522.9981  0.078946986    916.56717 
 1500000    22540.676    1507.1985  0.080414035    933.59948 
Loop time of 10446.7 on 52 procs for 1500000 steps with 18000 atoms

Performance: 12.406 ns/day, 1.935 hours/ns, 143.586 timesteps/s
99.8% CPU use with 52 MPI tasks x 1 OpenMP threads

MPI task timing breakdown:
Section |  min time  |  avg time  |  max time  |%varavg| %total
---------------------------------------------------------------
Pair    | 6780.1     | 6870.4     | 6987.2     |  56.5 | 65.77
Bond    | 0.1038     | 0.16198    | 0.23094    |   6.5 |  0.00
Kspace  | 2147       | 2301.9     | 2388.7     | 116.3 | 22.04
Neigh   | 918.15     | 946.87     | 996.29     |  61.0 |  9.06
Comm    | 246.54     | 270.28     | 310.06     |  99.5 |  2.59
Output  | 0.0016811  | 0.0017593  | 0.0037027  |   0.7 |  0.00
Modify  | 8.036      | 8.907      | 9.7258     |  14.2 |  0.09
Other   |            | 48.13      |            |       |  0.46

Nlocal:        346.154 ave         365 max         333 min
Histogram: 6 7 8 9 5 6 1 4 2 4
Nghost:        3972.85 ave        4068 max        3918 min
Histogram: 3 9 15 7 6 3 2 2 1 4
Neighs:        69515.9 ave       73051 max       66738 min
Histogram: 5 7 6 9 7 4 3 2 4 5

Total # of neighbors = 3614827
Ave neighs/atom = 200.82372
Ave special neighs/atom = 0.0000000
Neighbor list builds = 379687
Dangerous builds = 0
Total wall time: 3:05:48
