LAMMPS (29 Oct 2020)
OMP_NUM_THREADS environment is not set. Defaulting to 1 thread. (../comm.cpp:94)
  using 1 OpenMP thread(s) per MPI task
#---------------------------------------
#
# This script is used to calculate the thermal conuctivity of UO2 using Muller-Plathe method
# By Ziqiang Wang on 03/18/2022 on Jilin university
#
#---------------------------------------

variable     Nevery    equal   50
variable     T         equal   900

clear
OMP_NUM_THREADS environment is not set. Defaulting to 1 thread. (../comm.cpp:94)
  using 1 OpenMP thread(s) per MPI task
units          metal
boundary       p p p
atom_style     full

read_data Frenkel_0.01_relaxed.dat
Reading data file ...
  triclinic box = (-0.17018912 -1.9821219 -0.16115974) to (28.064189 336.71012 28.055160) with tilt (0.0000000 0.0000000 0.0000000)
  2 by 13 by 2 MPI processor grid
  reading atoms ...
  18000 atoms
  reading velocities ...
  18000 velocities
Finding 1-2 1-3 1-4 neighbors ...
  special bond factors lj:    0.0      0.0      0.0     
  special bond factors coul:  0.0      0.0      0.0     
     0 = max # of 1-2 neighbors
     0 = max # of 1-3 neighbors
     0 = max # of 1-4 neighbors
     1 = max # of special neighbors
  special bonds CPU = 0.006 seconds
  read_data CPU = 0.077 seconds

set           type     1    charge     -1.1104
Setting atom values ...
  11880 settings made for charge
set           type     2    charge      2.2208
Setting atom values ...
  5940 settings made for charge

kspace_style    pppm   1.0e-05
pair_style      hybrid/overlay  coul/long  11.0  eam/alloy
pair_coeff      * * coul/long
pair_coeff      * * eam/alloy CeThUNpPuAmCmO.eam.alloy O Th O Th
newton          on
neighbor        0.3 bin
neigh_modify    delay 0 check yes every 1

#The first equilation
velocity        all create $T 10002 mom yes rot yes dist gaussian
velocity        all create 900 10002 mom yes rot yes dist gaussian
fix             nvt  all  nvt  temp  $T $T  0.1
fix             nvt  all  nvt  temp  900 $T  0.1
fix             nvt  all  nvt  temp  900 900  0.1

run             100000
PPPM initialization ...
  using 12-bit tables for long-range coulomb (../kspace.cpp:328)
  G vector (1/distance) = 0.2985123
  grid = 40 240 40
  stencil order = 5
  estimated absolute RMS force accuracy = 0.00016035596
  estimated relative force accuracy = 1.1136105e-05
  using single precision MKL FFT
  3d grid and FFT values/proc = 15000 7600
Neighbor list info ...
  update every 1 steps, delay 0 steps, check yes
  max neighbors/atom: 2000, page size: 100000
  master list distance cutoff = 11.3
  ghost atom cutoff = 11.3
  binsize = 5.65, bins = 5 60 5
  2 neighbor lists, perpetual/occasional/extra = 2 0 0
  (1) pair coul/long, perpetual
      attributes: half, newton on
      pair build: half/bin/newton/tri
      stencil: half/bin/3d/newton/tri
      bin: standard
  (2) pair eam/alloy, perpetual, copy from (1)
      attributes: half, newton on
      pair build: copy
      stencil: none
      bin: none
Per MPI rank memory allocation (min/avg/max) = 8.314 | 8.346 | 8.365 Mbytes
Step Temp E_pair E_mol TotEng Press 
       0          900   -233911.67            0   -231817.78     249.9161 
  100000    889.87353   -233895.47            0   -231825.13    188.28598 
Loop time of 690.516 on 52 procs for 100000 steps with 18000 atoms

Performance: 12.512 ns/day, 1.918 hours/ns, 144.819 timesteps/s
99.8% CPU use with 52 MPI tasks x 1 OpenMP threads

MPI task timing breakdown:
Section |  min time  |  avg time  |  max time  |%varavg| %total
---------------------------------------------------------------
Pair    | 449.27     | 465.44     | 478.74     |  30.2 | 67.41
Bond    | 0.0076107  | 0.01079    | 0.016572   |   1.6 |  0.00
Kspace  | 127.72     | 143.32     | 161.21     |  66.8 | 20.76
Neigh   | 57.368     | 61.303     | 65.102     |  23.9 |  8.88
Comm    | 14.817     | 15.871     | 18.199     |  25.2 |  2.30
Output  | 5.6288e-05 | 6.168e-05  | 0.00026787 |   0.0 |  0.00
Modify  | 1.7927     | 3.2779     | 4.9408     |  58.7 |  0.47
Other   |            | 1.292      |            |       |  0.19

Nlocal:        346.154 ave         369 max         325 min
Histogram: 1 2 9 10 6 12 4 2 4 2
Nghost:        4040.35 ave        4135 max        3907 min
Histogram: 2 2 1 7 4 9 10 6 7 4
Neighs:        69757.9 ave       75103 max       64319 min
Histogram: 1 1 6 10 11 6 6 7 3 1

Total # of neighbors = 3627413
Ave neighs/atom = 201.52294
Ave special neighs/atom = 0.0000000
Neighbor list builds = 19793
Dangerous builds = 0
unfix           nvt
reset_timestep  0

# the second run
fix             1 all nve

group           oxygen type 1
11880 atoms in group oxygen
fix             2 oxygen thermal/conductivity ${Nevery} y 20
fix             2 oxygen thermal/conductivity 50 y 20

compute         ke all ke/atom
variable        temp atom c_ke/1.5
compute         layers all chunk/atom bin/1d y lower 0.05 units reduced
fix             3      all ave/chunk  2000 50 100000 layers v_temp file profile_${T}K.mp
fix             3      all ave/chunk  2000 50 100000 layers v_temp file profile_900K.mp

variable        Tdiff    equal     f_3[11][3]-f_3[1][3]
variable        deltaT   equal     v_Tdiff*1.5/0.0001292

timestep        0.001
thermo_style    custom step f_2 temp v_Tdiff v_deltaT
thermo          100000

run             1000000
PPPM initialization ...
  using 12-bit tables for long-range coulomb (../kspace.cpp:328)
  G vector (1/distance) = 0.2985123
  grid = 40 240 40
  stencil order = 5
  estimated absolute RMS force accuracy = 0.00016035596
  estimated relative force accuracy = 1.1136105e-05
  using single precision MKL FFT
  3d grid and FFT values/proc = 15000 7600
Per MPI rank memory allocation (min/avg/max) = 8.564 | 8.596 | 8.616 Mbytes
Step f_2 Temp v_Tdiff v_deltaT 
       0            0    889.87353            0            0 
  100000    959.84538    904.19215  0.036667815    425.70992 
  200000    1866.6908    905.86126  0.043837912    508.95409 
  300000    2775.0972    907.04841  0.043920364    509.91135 
  400000    3686.4948    907.64369  0.043047926    499.78243 
  500000    4602.4794    914.57796  0.042211446    490.07096 
  600000    5521.1112    905.09656  0.043846242     509.0508 
  700000    6437.7279    918.80875  0.042943254    498.56719 
  800000    7345.9569    912.01812  0.043592143    506.10073 
  900000    8262.1595    906.66591  0.041625593    483.26927 
 1000000    9187.1356     905.0533  0.042511475    493.55428 
Loop time of 6832.24 on 52 procs for 1000000 steps with 18000 atoms

Performance: 12.646 ns/day, 1.898 hours/ns, 146.365 timesteps/s
99.8% CPU use with 52 MPI tasks x 1 OpenMP threads

MPI task timing breakdown:
Section |  min time  |  avg time  |  max time  |%varavg| %total
---------------------------------------------------------------
Pair    | 4484.5     | 4583.5     | 4673.9     |  75.1 | 67.09
Bond    | 0.076014   | 0.1091     | 0.14372    |   5.6 |  0.00
Kspace  | 1314.9     | 1423.8     | 1542.4     | 175.4 | 20.84
Neigh   | 583.09     | 628.22     | 660.35     |  78.8 |  9.19
Comm    | 149        | 159.03     | 188        |  84.3 |  2.33
Output  | 0.0010328  | 0.0010936  | 0.0023235  |   0.5 |  0.00
Modify  | 5.265      | 5.9127     | 6.4833     |  12.8 |  0.09
Other   |            | 31.74      |            |       |  0.46

Nlocal:        346.154 ave         366 max         325 min
Histogram: 3 2 1 8 12 9 7 3 3 4
Nghost:        4038.12 ave        4140 max        3907 min
Histogram: 1 3 3 8 7 4 10 5 8 3
Neighs:        69759.4 ave       74479 max       64592 min
Histogram: 2 3 2 6 10 10 7 8 3 1

Total # of neighbors = 3627487
Ave neighs/atom = 201.52706
Ave special neighs/atom = 0.0000000
Neighbor list builds = 202588
Dangerous builds = 0

Total wall time: 2:05:23
