ITEM: TIMESTEP
50000
ITEM: NUMBER OF ATOMS
27000
ITEM: BOX BOUNDS pp pp pp
-4.4091215448487120e-01 2.7780912154485161e+01
-7.8464522632144593e+00 4.9996645226321812e+02
-4.3332000544366761e-01 2.7773320005443789e+01
ITEM: ATOMS id type q x y z
1 2 2.2208 5.34811 -2.10137 5.10661
2 1 -1.1104 0.804935 -6.57997 0.929542
6 1 -1.1104 0.978779 -6.50673 3.72709
10 1 -1.1104 1.10059 -3.73612 0.924809
12 2 2.2208 5.35913 -5.08635 2.28416
14 1 -1.1104 1.1166 -3.54988 3.7331
16 1 -1.1104 3.60196 -6.49207 0.944475
18 2 2.2208 2.29713 -2.11075 2.38612
19 1 -1.1104 4.00816 -6.42715 3.63359
21 2 2.2208 2.3451 -5.15299 5.11151
23 1 -1.1104 3.88902 -3.64951 1.01387
24 1 -1.1104 3.87251 -3.61487 3.78054
108 1 -1.1104 3.81207 -6.4496 6.40059
110 1 -1.1104 3.71794 -3.78014 6.6661
106 1 -1.1104 1.21287 -3.69371 6.67919
102 1 -1.1104 0.852909 -6.59328 6.50252
13018 2 2.2208 -0.245295 9.17469 16.6232
276 2 2.2208 2.45377 -7.79945 13.5951
11 1 -1.1104 6.58988 -3.59389 1.00437
8 1 -1.1104 6.72978 -6.21105 3.77659
107 1 -1.1104 6.70286 -3.74152 6.48353
15 1 -1.1104 6.76079 -3.44093 3.72936
4 1 -1.1104 6.52242 -6.36722 0.661275
104 1 -1.1104 6.64018 -6.50944 6.7835
27 2 2.2208 10.8702 -2.17885 5.15091
28 1 -1.1104 12.6312 -6.01504 0.990319
30 1 -1.1104 12.1794 -6.33897 3.85685
32 1 -1.1104 12.2221 -3.44276 1.05568
33 2 2.2208 10.9808 -4.83841 2.18347
35 1 -1.1104 12.4005 -3.60831 3.95403
36 1 -1.1104 9.52931 -6.29038 0.792819
38 2 2.2208 8.10928 -2.14971 2.21297
39 1 -1.1104 9.435 -6.33389 3.89221
41 2 2.2208 8.107 -4.9406 5.17173
43 1 -1.1104 9.39223 -3.66891 0.744571
44 1 -1.1104 9.6097 -3.6241 3.62168
141 1 -1.1104 12.2004 -3.49896 6.5809
144 1 -1.1104 9.41478 -3.50143 6.50865
139 1 -1.1104 12.3044 -6.52338 6.52862
421 2 2.2208 10.8454 -2.08738 27.6633
12731 2 2.2208 -0.165727 6.20338 2.35629
3 1 -1.1104 0.964966 -0.970765 0.859134
7 1 -1.1104 1.02568 -0.69674 3.60616
13 2 2.2208 5.28405 0.623877 2.31614
17 1 -1.1104 3.83198 -0.767785 1.03514
20 1 -1.1104 3.62572 -0.756859 3.82896
22 2 2.2208 2.4239 0.647721 5.26028
49 2 2.2208 5.25003 3.26478 5.20543
59 1 -1.1104 1.14432 1.7267 1.13879
64 1 -1.1104 0.776585 1.91222 4.08038
70 2 2.2208 2.47911 3.23963 2.37594
75 1 -1.1104 3.86907 2.13669 1.0145
77 1 -1.1104 3.69106 2.057 3.74717
68 1 -1.1104 3.95675 4.8765 0.668772
55 1 -1.1104 1.04382 4.48417 3.88002
51 1 -1.1104 1.30773 4.73577 1.06756
175 1 -1.1104 1.05833 1.93773 6.84276
72 1 -1.1104 3.68747 4.9273 3.56162
109 1 -1.1104 3.87134 -0.941438 6.43832
171 1 -1.1104 1.17764 4.85689 6.64018
181 1 -1.1104 3.63861 1.96795 6.56873
12679 2 2.2208 -0.423775 -5.22641 2.29297
179 1 -1.1104 3.94519 4.86042 6.62673
103 1 -1.1104 1.04072 -0.999827 6.50052
13019 2 2.2208 -0.0886176 6.2566 19.3958
393 2 2.2208 2.50269 0.649089 27.6552
61 1 -1.1104 6.47281 1.91536 0.804752
9 1 -1.1104 6.53744 -0.556515 3.6823
177 1 -1.1104 6.65035 1.9421 6.61137
57 1 -1.1104 6.60936 4.85809 3.65002
66 1 -1.1104 6.81625 2.04463 3.59144
53 1 -1.1104 6.78082 4.83859 0.803598
5 1 -1.1104 6.97559 -0.861412 0.852323
105 1 -1.1104 6.53785 -0.905679 6.61243
29 1 -1.1104 12.5642 -0.997479 0.45717
31 1 -1.1104 12.2755 -0.534016 3.51543
34 2 2.2208 10.8703 0.694669 2.26365
37 1 -1.1104 9.68031 -0.774341 0.979413
40 1 -1.1104 9.34965 -0.64558 3.52476
42 2 2.2208 8.13388 0.769132 5.10648
79 2 2.2208 11.0835 3.52575 5.142
85 1 -1.1104 12.2634 1.87124 0.55913
88 1 -1.1104 12.4728 2.02725 3.68956
92 2 2.2208 8.06594 3.32488 2.33309
97 1 -1.1104 9.51487 1.85331 0.930842
99 1 -1.1104 9.43617 2.18725 3.75546
83 1 -1.1104 12.4845 4.75829 3.84685
213 1 -1.1104 12.3591 4.84842 6.64782
143 1 -1.1104 9.26181 -0.608302 6.56537
81 1 -1.1104 12.4331 4.75497 0.814717
219 1 -1.1104 9.5795 2.02743 6.6165
90 1 -1.1104 9.52333 4.74492 0.823797
94 1 -1.1104 9.63319 5.05487 3.63565
215 1 -1.1104 12.4422 2.16073 6.47916
217 1 -1.1104 9.64049 4.90934 6.17917
140 1 -1.1104 12.3939 -0.735343 6.45991
12759 2 2.2208 -0.330098 9.24379 5.1494
50 2 2.2208 5.52412 8.94418 5.19323
52 1 -1.1104 0.851916 10.2743 1.05517
56 1 -1.1104 1.13964 10.5241 3.76303
60 1 -1.1104 0.912801 7.53771 0.630819
63 2 2.2208 5.19545 6.23065 2.26686
65 1 -1.1104 1.15813 7.59502 3.60345
69 1 -1.1104 4.09178 10.3328 0.706816
71 2 2.2208 2.52103 8.90638 2.30832
73 1 -1.1104 4.05552 10.3849 3.61972
74 2 2.2208 2.6168 6.30772 5.02353
76 1 -1.1104 3.83116 7.61548 1.08498
78 1 -1.1104 3.95748 7.71799 3.76118
180 1 -1.1104 4.07178 10.4426 6.44326
182 1 -1.1104 3.91233 7.60463 6.50293
172 1 -1.1104 1.13473 10.5123 6.54969
176 1 -1.1104 1.14748 7.59235 6.3177
454 2 2.2208 5.29957 9.02865 27.6284
12976 2 2.2208 -0.308415 -5.00848 19.2629
13020 2 2.2208 -0.342511 6.26406 13.5793
67 1 -1.1104 6.87292 7.5974 3.78154
58 1 -1.1104 6.85025 10.6171 3.78162
174 1 -1.1104 6.95839 10.3283 6.43882
62 1 -1.1104 6.52521 7.82214 0.920029
54 1 -1.1104 6.83802 10.4331 0.772752
80 2 2.2208 11.1037 8.85555 5.07591
82 1 -1.1104 12.3824 10.4841 0.832868
84 1 -1.1104 12.4024 10.53 3.59588
86 1 -1.1104 12.5731 7.65507 0.868158
87 2 2.2208 11.0179 6.02334 2.03455
89 1 -1.1104 12.417 7.56735 3.73806
91 1 -1.1104 9.46068 10.5109 1.05124
93 2 2.2208 8.32485 9.11049 2.31719
95 1 -1.1104 9.7453 10.492 3.88883
96 2 2.2208 8.14612 6.21323 4.95652
98 1 -1.1104 9.65905 7.68376 0.716887
100 1 -1.1104 9.66796 7.67703 3.61339
218 1 -1.1104 9.51971 10.4818 6.57008
220 1 -1.1104 9.53921 7.60747 6.47987
216 1 -1.1104 12.7041 7.51158 6.5027
178 1 -1.1104 6.70823 7.49735 6.54361
12797 2 2.2208 -0.305569 -2.21763 10.6943
111 2 2.2208 5.41224 -2.06904 10.8315
112 1 -1.1104 1.14294 -6.391 12.3703
116 1 -1.1104 0.956529 -6.30909 9.43397
120 1 -1.1104 1.20828 -3.69265 12.1669
122 2 2.2208 5.30951 -5.17541 7.93158
125 1 -1.1104 0.966658 -3.67571 9.45824
127 1 -1.1104 3.81107 -6.47303 12.0589
129 2 2.2208 2.44672 -2.16753 8.09349
131 1 -1.1104 3.62465 -6.46004 9.12826
133 2 2.2208 2.41208 -5.04234 10.8767
135 1 -1.1104 4.07673 -3.62706 12.0995
136 1 -1.1104 3.81991 -3.66146 9.31833
13017 2 2.2208 -0.373522 3.43838 16.4134
114 1 -1.1104 6.64363 -6.22982 12.3241
126 1 -1.1104 6.56497 -3.40695 9.36114
13191 2 2.2208 -0.370535 9.1287 27.5217
123 2 2.2208 5.46452 -4.96047 13.6288
130 2 2.2208 2.57869 -2.21015 13.5747
142 1 -1.1104 9.537 -6.55568 6.77791
118 1 -1.1104 6.67199 -6.45384 9.47853
121 1 -1.1104 6.71198 -3.59972 11.9481
145 2 2.2208 10.8901 -2.26126 10.5859
146 1 -1.1104 12.3204 -6.44391 12.0768
148 1 -1.1104 12.1142 -6.47216 9.44729
150 1 -1.1104 12.1078 -3.58116 12.2949
151 2 2.2208 11.0731 -4.96844 8.03075
154 1 -1.1104 12.4027 -3.6859 9.30462
155 1 -1.1104 9.3301 -6.31096 12.1758
157 2 2.2208 8.00615 -2.29518 7.96521
159 1 -1.1104 9.45706 -6.27079 9.33997
161 2 2.2208 7.99553 -4.87091 10.7347
163 1 -1.1104 9.49925 -3.53946 12.2801
164 1 -1.1104 9.52746 -3.67347 9.30896
158 2 2.2208 8.41347 -2.03106 13.591
152 2 2.2208 10.8009 -4.94812 13.5349
12831 2 2.2208 -0.276486 0.53968 8.06133
113 1 -1.1104 1.35276 -0.923504 12.1479
117 1 -1.1104 1.25061 -0.744642 9.40275
124 2 2.2208 5.36779 0.451574 7.95811
128 1 -1.1104 3.98215 -0.71454 12.0782
132 1 -1.1104 4.09167 -0.897482 9.24309
134 2 2.2208 2.57149 0.68049 10.7918
183 2 2.2208 5.4711 3.57576 10.5884
185 1 -1.1104 1.20606 4.7319 12.0859
193 1 -1.1104 1.16225 1.94109 12.3191
198 1 -1.1104 1.0992 2.08823 9.57098
202 1 -1.1104 3.90263 4.55366 12.0277
204 2 2.2208 2.50055 3.54798 8.11785
209 1 -1.1104 3.78513 1.97101 12.0844
211 1 -1.1104 3.84458 2.14883 9.31233
189 1 -1.1104 1.00338 5.03987 9.29368
206 1 -1.1104 3.93079 4.98035 9.21643
245 2 2.2208 5.24196 0.648505 13.6423
313 2 2.2208 2.45114 3.46336 13.5903
191 1 -1.1104 6.87268 4.74723 9.05497
12975 2 2.2208 -0.317678 0.465135 13.6836
12733 2 2.2208 -0.390085 3.34206 5.21527
173 1 -1.1104 6.66089 4.56489 6.24115
195 1 -1.1104 6.62954 2.35513 12.208
187 1 -1.1104 6.57135 5.03777 12.0119
115 1 -1.1104 6.63615 -0.499501 12.2198
200 1 -1.1104 6.82412 1.96363 9.38685
119 1 -1.1104 6.74203 -0.783444 9.36606
147 1 -1.1104 12.3688 -0.882475 12.1163
149 1 -1.1104 12.2051 -0.932958 9.30119
153 2 2.2208 10.7797 0.461889 7.91336
156 1 -1.1104 9.53465 -0.712007 11.9702
160 1 -1.1104 9.46039 -0.889352 9.26739
162 2 2.2208 8.15443 0.74768 10.8229
221 2 2.2208 11.0073 3.2474 10.7485
227 1 -1.1104 12.4627 1.97046 12.3309
230 1 -1.1104 12.2015 1.72792 9.62589
234 2 2.2208 8.19092 3.2996 7.92196
239 1 -1.1104 9.41368 1.97768 12.3851
241 1 -1.1104 9.36963 2.00848 9.33485
236 1 -1.1104 9.67872 4.76799 9.03371
232 1 -1.1104 9.58506 4.71299 11.9731
225 1 -1.1104 12.4628 4.56609 9.37688
223 1 -1.1104 12.3553 4.82836 11.9442
279 2 2.2208 11.1602 0.58454 13.6579
358 2 2.2208 8.20644 3.6416 13.6817
184 2 2.2208 5.46424 8.87379 10.6398
186 1 -1.1104 1.12268 10.2741 12.5406
190 1 -1.1104 1.18958 10.3974 9.46783
194 1 -1.1104 1.23077 7.44767 12.2471
197 2 2.2208 5.51356 6.11623 7.92254
199 1 -1.1104 1.31199 7.7667 9.28921
203 1 -1.1104 3.93138 10.3032 12.1385
205 2 2.2208 2.4708 9.10218 7.81446
207 1 -1.1104 3.98698 10.4996 9.27132
208 2 2.2208 2.53147 6.27371 10.6349
210 1 -1.1104 4.0587 7.62649 12.0415
212 1 -1.1104 4.02346 7.80874 9.36103
312 2 2.2208 5.38599 6.28286 13.5511
314 2 2.2208 2.60861 8.82028 13.6976
12879 2 2.2208 -0.305811 6.31169 7.74356
494 1 -1.1104 12.2627 7.72809 26.2846
12880 2 2.2208 -0.172896 9.04996 10.7825
487 2 2.2208 8.09664 9.06953 24.923
501 1 -1.1104 12.5225 10.5571 23.4315
192 1 -1.1104 6.69243 10.4061 9.30002
214 1 -1.1104 12.3539 10.4225 6.29451
188 1 -1.1104 6.78878 10.3936 12.3266
201 1 -1.1104 6.81315 7.35706 9.3402
196 1 -1.1104 6.71585 7.58217 12.2515
222 2 2.2208 11.0797 9.22361 10.7416
224 1 -1.1104 12.4808 10.1601 12.0324
226 1 -1.1104 12.4159 10.327 9.34984
228 1 -1.1104 12.672 7.48837 11.9833
229 2 2.2208 10.9621 6.31983 7.81277
231 1 -1.1104 12.2627 7.68796 9.14077
233 1 -1.1104 9.58194 10.25 12.0686
235 2 2.2208 8.18125 8.89321 7.94363
237 1 -1.1104 9.50291 10.2146 9.41053
238 2 2.2208 8.20499 6.2035 10.7375
240 1 -1.1104 9.72843 7.44937 12.0741
242 1 -1.1104 9.63434 7.56135 9.33277
359 2 2.2208 8.22531 8.93976 13.6109
357 2 2.2208 11.2512 6.32931 13.4814
12832 2 2.2208 -0.431597 -7.79279 10.6135
246 2 2.2208 5.44535 -2.37272 16.3665
247 1 -1.1104 1.22884 -6.29976 17.7352
250 1 -1.1104 1.23484 -6.36581 15.1213
257 1 -1.1104 1.18077 -3.39866 17.7897
259 2 2.2208 5.27339 -4.94754 19.3617
261 1 -1.1104 0.873516 -3.6904 15.0039
264 1 -1.1104 3.99682 -6.36138 18.0435
266 2 2.2208 2.48864 -1.98286 19.2996
267 1 -1.1104 4.22181 -6.41226 14.9405
271 2 2.2208 2.53615 -4.80768 16.4955
273 1 -1.1104 4.18378 -3.53528 17.8055
274 1 -1.1104 3.93301 -3.60652 15.0407
268 1 -1.1104 3.90376 -6.47933 20.6344
275 1 -1.1104 3.92938 -3.42626 20.5442
254 1 -1.1104 6.92167 -6.21825 15.2706
262 1 -1.1104 1.12678 -3.47418 20.6164
258 1 -1.1104 6.84323 -3.81524 17.6933
280 1 -1.1104 6.82021 -6.51232 17.9943
263 1 -1.1104 7.032 -3.44584 14.9001
281 1 -1.1104 6.80468 -6.42684 20.6753
283 2 2.2208 11.1694 -2.01452 16.5324
284 1 -1.1104 12.4643 -6.19001 17.8346
286 1 -1.1104 12.3577 -6.38013 15.0006
290 1 -1.1104 12.3733 -3.26327 18.0044
291 2 2.2208 11.0157 -5.0308 19.4482
293 1 -1.1104 12.3277 -3.71887 15.1584
295 1 -1.1104 9.67622 -6.56727 17.7683
297 2 2.2208 8.31886 -2.11445 19.2216
298 1 -1.1104 9.707 -6.37977 14.8901
302 2 2.2208 8.32603 -4.90407 16.4846
304 1 -1.1104 9.71106 -3.61595 18.0443
305 1 -1.1104 9.7399 -3.37591 15.1699
299 1 -1.1104 9.63698 -6.46032 20.5885
287 1 -1.1104 12.3281 -6.58264 20.8264
282 1 -1.1104 6.65227 -3.67814 20.9566
294 1 -1.1104 12.2405 -3.856 21.0005
306 1 -1.1104 9.4372 -3.66692 20.8507
463 1 -1.1104 6.71989 10.3707 23.4737
248 1 -1.1104 0.912806 -0.850344 17.933
252 1 -1.1104 1.09729 -0.951546 14.9026
260 2 2.2208 5.26862 0.523517 19.1173
265 1 -1.1104 3.68094 -0.807146 17.9116
269 1 -1.1104 4.0038 -1.04166 15.1117
272 2 2.2208 2.42309 0.576898 16.4477
315 2 2.2208 5.3623 3.58442 16.5293
329 1 -1.1104 1.08124 1.91653 17.8995
334 1 -1.1104 0.933522 2.05836 15.0074
342 1 -1.1104 3.90874 5.06378 18.0024
344 2 2.2208 2.71073 3.44926 19.203
351 1 -1.1104 3.9188 1.97586 17.621
353 1 -1.1104 3.74126 1.97174 14.984
321 1 -1.1104 1.11024 4.79968 15.0705
346 1 -1.1104 4.00574 4.83489 15.0949
317 1 -1.1104 1.34729 4.64384 17.755
347 1 -1.1104 3.73433 4.84655 20.7367
12946 2 2.2208 -0.368422 0.65849 19.2973
335 1 -1.1104 1.12954 1.98299 20.809
331 1 -1.1104 6.89161 2.15659 17.787
354 1 -1.1104 3.93146 2.0287 20.3068
270 1 -1.1104 4.08818 -0.623351 20.8037
322 1 -1.1104 1.02468 4.63245 20.8434
253 1 -1.1104 1.18694 -0.855874 20.7143
256 1 -1.1104 6.66591 -0.859199 20.5304
325 1 -1.1104 6.72493 4.84402 14.8227
319 1 -1.1104 6.85561 4.96811 17.6255
249 1 -1.1104 6.71144 -1.01323 17.794
255 1 -1.1104 6.76197 -0.774322 15.0191
338 1 -1.1104 6.55339 2.10745 15.1849
339 1 -1.1104 6.50274 1.9533 20.5748
285 1 -1.1104 12.4567 -0.59552 17.8281
288 1 -1.1104 12.5149 -0.745541 15.0101
292 2 2.2208 11.1133 0.730142 19.3217
296 1 -1.1104 9.6954 -0.708212 17.6621
300 1 -1.1104 9.61221 -0.508458 14.8503
303 2 2.2208 8.15842 0.658649 16.4763
360 2 2.2208 11.0917 3.44641 16.5049
362 1 -1.1104 12.3802 4.91315 17.7994
364 1 -1.1104 12.4995 4.6937 14.8009
368 1 -1.1104 12.6704 2.03124 17.6673
371 1 -1.1104 12.5103 2.04386 14.9551
377 2 2.2208 8.17271 3.4314 19.1958
384 1 -1.1104 9.78426 1.95128 18.0048
386 1 -1.1104 9.53917 2.22237 15.0642
375 1 -1.1104 9.4715 4.82708 17.7385
379 1 -1.1104 9.78274 4.92485 14.904
387 1 -1.1104 9.57466 2.22657 20.6217
365 1 -1.1104 12.568 4.70456 20.8041
289 1 -1.1104 12.3759 -1.0625 20.4527
372 1 -1.1104 12.5027 2.05279 20.6447
380 1 -1.1104 9.67395 5.07542 20.7055
418 2 2.2208 5.09579 -7.5964 27.6915
316 2 2.2208 5.34855 9.18536 16.5344
318 1 -1.1104 1.23465 10.5317 17.9695
323 1 -1.1104 1.28506 10.2604 15.2129
330 1 -1.1104 1.25359 7.57964 17.8632
333 2 2.2208 5.54621 6.45244 19.2825
336 1 -1.1104 0.912191 7.52744 14.9768
343 1 -1.1104 3.97968 10.6303 17.9106
345 2 2.2208 2.60024 9.23178 19.3761
348 1 -1.1104 4.13934 10.4488 15.0456
350 2 2.2208 2.4999 6.12911 16.3511
352 1 -1.1104 3.99454 7.82616 17.9369
355 1 -1.1104 4.03456 7.64712 14.9891
324 1 -1.1104 1.19675 10.4651 21.0029
356 1 -1.1104 4.02746 7.68959 20.6656
13190 2 2.2208 -0.271299 9.14762 22.2385
328 1 -1.1104 6.77435 10.5816 20.6791
340 1 -1.1104 6.5472 7.59605 14.9959
327 1 -1.1104 6.93969 10.2507 15.1132
389 1 -1.1104 9.62408 7.86456 20.6615
332 1 -1.1104 6.88573 7.86514 18.0682
320 1 -1.1104 6.88848 10.5381 17.9375
361 2 2.2208 11.07 8.98886 16.3824
363 1 -1.1104 12.5118 10.5355 17.8115
366 1 -1.1104 12.4344 10.3315 14.9826
369 1 -1.1104 12.5107 7.519 17.7506
370 2 2.2208 10.9125 6.25226 19.0705
373 1 -1.1104 12.5189 7.55613 15.0265
376 1 -1.1104 9.75533 10.4916 17.8235
378 2 2.2208 8.29331 9.16103 19.3493
381 1 -1.1104 9.70803 10.3035 14.809
383 2 2.2208 8.27986 6.16877 16.3455
385 1 -1.1104 9.60097 7.54303 17.6917
388 1 -1.1104 9.53251 7.68354 15.012
367 1 -1.1104 12.3181 10.4343 20.5458
341 1 -1.1104 6.60094 7.6533 20.9209
374 1 -1.1104 12.2208 7.66841 20.4945
392 2 2.2208 2.3066 -5.05661 -0.333968
12691 2 2.2208 -0.186165 -2.29972 5.11182
478 1 -1.1104 6.71895 7.64251 26.2458
251 1 -1.1104 1.09487 -6.54065 20.507
391 2 2.2208 5.32682 -2.1652 27.7629
394 2 2.2208 5.43024 -2.06612 22.1418
395 1 -1.1104 1.12465 -6.38439 23.4597
399 1 -1.1104 0.992586 -6.34514 26.3088
403 1 -1.1104 1.28539 -3.78132 23.5183
404 2 2.2208 5.41166 -4.90819 24.8666
406 1 -1.1104 0.897861 -3.56725 26.4856
408 1 -1.1104 3.90632 -6.26082 23.6429
410 2 2.2208 2.54305 -2.25156 25.0183
411 1 -1.1104 3.80874 -6.25916 26.3895
413 2 2.2208 2.61273 -4.99017 21.9248
415 1 -1.1104 4.13489 -3.56957 23.4244
416 1 -1.1104 3.78566 -3.49417 26.6368
407 1 -1.1104 6.8362 -3.54236 26.3477
401 1 -1.1104 6.51763 -6.54476 26.1644
497 1 -1.1104 12.453 7.74775 23.3467
422 2 2.2208 8.04254 -4.92412 27.5801
503 2 2.2208 11.1052 8.98618 22.0318
458 1 -1.1104 6.62247 10.665 26.1013
397 1 -1.1104 6.7627 -6.39104 23.3789
424 1 -1.1104 6.88724 -3.59134 23.8807
425 2 2.2208 10.9773 -2.2274 22.0687
426 1 -1.1104 12.3569 -6.46619 23.4539
428 1 -1.1104 12.0377 -6.56178 26.1911
430 1 -1.1104 12.4912 -3.50961 23.5885
431 2 2.2208 10.8284 -5.12225 24.8796
433 1 -1.1104 12.1537 -3.59359 26.4292
434 1 -1.1104 9.58281 -6.53518 23.4408
436 2 2.2208 8.31104 -2.26282 24.8507
437 1 -1.1104 9.2985 -6.3908 26.2261
439 2 2.2208 8.21644 -5.1395 22.1121
441 1 -1.1104 9.69669 -3.68834 23.5127
442 1 -1.1104 9.64276 -3.59606 26.2568
451 1 -1.1104 6.56873 7.47863 23.6081
13124 2 2.2208 -0.365909 0.375719 24.8009
13192 2 2.2208 -0.33495 3.47533 22.175
453 2 2.2208 5.28584 3.41825 27.5858
400 1 -1.1104 1.15408 -0.799825 26.1729
396 1 -1.1104 1.10649 -0.839794 23.4608
405 2 2.2208 5.29389 0.639278 24.7908
409 1 -1.1104 3.90196 -0.865081 23.4644
412 1 -1.1104 3.98064 -0.789881 26.3036
414 2 2.2208 2.49661 0.457971 22.0864
448 1 -1.1104 1.40963 2.3044 26.7866
457 1 -1.1104 1.01162 1.99518 23.6879
464 1 -1.1104 4.10754 2.07472 26.2888
469 1 -1.1104 3.63095 2.07433 23.4556
472 1 -1.1104 3.66996 4.7564 26.2862
475 2 2.2208 2.6248 3.30291 24.9623
477 2 2.2208 5.34054 3.31774 21.9161
479 1 -1.1104 4.30831 4.57242 23.5578
461 1 -1.1104 0.920386 4.89855 26.5127
468 1 -1.1104 1.23941 4.90247 23.7211
13158 2 2.2208 -0.321381 3.49778 -0.275736
301 1 -1.1104 9.61122 -0.558342 20.5172
326 1 -1.1104 6.81276 4.72544 20.7563
402 1 -1.1104 6.67927 -0.868734 25.9816
466 1 -1.1104 7.01834 4.8685 23.632
459 1 -1.1104 6.48696 4.68734 26.2365
450 1 -1.1104 6.78121 2.00078 26.2023
452 1 -1.1104 6.49792 1.91919 23.3268
491 2 2.2208 11.0789 3.53493 27.6387
398 1 -1.1104 6.81516 -0.873915 23.3487
423 2 2.2208 8.07798 0.719309 27.5622
490 1 -1.1104 9.78825 4.95496 23.6546
486 1 -1.1104 9.29877 4.84722 26.4201
500 1 -1.1104 12.3466 5.00411 26.4309
504 2 2.2208 10.9581 3.3472 22.1481
502 1 -1.1104 12.4075 4.95091 23.5075
498 1 -1.1104 12.2515 2.0024 23.2509
427 1 -1.1104 12.5247 -0.881181 23.1925
429 1 -1.1104 12.5509 -0.473201 26.0325
432 2 2.2208 10.9538 0.711134 24.8333
435 1 -1.1104 9.61813 -0.760825 23.4454
438 1 -1.1104 9.63772 -0.767384 26.265
440 2 2.2208 7.99073 0.749948 22.0059
481 1 -1.1104 9.58798 2.04941 26.2691
483 1 -1.1104 9.35576 2.05717 23.3975
488 2 2.2208 8.08864 3.33492 24.8729
495 1 -1.1104 12.609 2.30078 26.1342
137 2 2.2208 5.07051 -7.79187 10.7531
13157 2 2.2208 -0.316037 6.23615 24.9513
349 1 -1.1104 3.98713 10.8909 20.7025
337 1 -1.1104 1.14985 7.83984 20.6368
455 2 2.2208 2.40062 6.323 27.6577
470 2 2.2208 2.46946 6.32166 22.1547
476 1 -1.1104 3.88786 10.5436 23.5792
474 2 2.2208 5.38474 8.99113 22.2059
473 2 2.2208 2.464 9.21104 24.9104
471 1 -1.1104 3.74062 10.3359 26.191
447 1 -1.1104 1.04519 7.75292 25.9767
449 2 2.2208 5.17905 6.14263 25.0328
456 1 -1.1104 0.957668 7.61685 23.4772
460 1 -1.1104 1.10596 10.4795 26.4512
462 1 -1.1104 3.93665 7.50781 26.3682
465 1 -1.1104 3.81461 7.4801 23.4553
467 1 -1.1104 1.14855 10.6243 23.6196
12829 2 2.2208 -0.337636 -4.93295 13.5969
499 1 -1.1104 12.4106 10.4906 26.1469
485 1 -1.1104 9.308 10.6807 26.4654
493 2 2.2208 7.9898 6.20634 27.5898
496 2 2.2208 10.901 6.33789 25.1405
482 1 -1.1104 9.6035 7.75073 23.5101
484 2 2.2208 8.28221 6.22106 22.1652
492 2 2.2208 10.8062 9.13847 27.6948
480 1 -1.1104 9.41914 7.77247 26.2558
382 1 -1.1104 9.4682 10.6811 20.6808
489 1 -1.1104 9.49634 10.517 23.7797
13104 2 2.2208 -0.209099 -2.25003 22.1501
311 2 2.2208 11.0684 -7.71938 16.376
12792 2 2.2208 13.6273 -7.77923 13.6504
12911 2 2.2208 -0.480934 3.44905 10.8339
13101 2 2.2208 -0.299597 -2.13825 27.7088
168 2 2.2208 8.08569 -7.83992 8.09836
12678 2 2.2208 -0.430447 0.571834 2.30816
48 2 2.2208 7.96884 -7.79579 2.339
277 2 2.2208 2.40011 -7.84015 19.1636
12947 2 2.2208 -0.317741 -2.20435 16.5569
12830 2 2.2208 -0.362213 -5.02213 7.76986
444 2 2.2208 10.971 -7.69659 27.5688
13125 2 2.2208 -0.382603 -4.99497 25.0325
244 2 2.2208 13.674 3.42683 7.85552
138 2 2.2208 2.62007 -7.78893 7.94114
12730 2 2.2208 13.688 9.12483 2.21083
783 2 2.2208 11.0608 11.7153 13.5784
170 2 2.2208 10.8485 -7.82685 10.7058
278 2 2.2208 5.33322 -7.68654 16.5382
26 2 2.2208 5.4351 -7.62531 5.22409
169 2 2.2208 8.09518 -7.63852 13.6244
654 2 2.2208 11.0211 11.6973 7.87481
420 2 2.2208 5.32641 -7.63932 21.9129
12977 2 2.2208 -0.284881 -7.73877 16.4046
417 2 2.2208 -0.325003 -7.74998 21.98
507 2 2.2208 5.39874 14.6688 5.12515
509 1 -1.1104 1.02526 16.0054 1.11997
511 1 -1.1104 1.00969 16.1671 3.67524
513 1 -1.1104 1.05608 13.0904 0.987076
518 2 2.2208 5.37493 17.6137 2.42359
519 1 -1.1104 1.18428 13.3939 3.90914
523 1 -1.1104 3.77308 16.3618 1.00372
524 2 2.2208 2.53455 14.7589 2.42686
526 1 -1.1104 4.12494 16.004 3.72504
528 2 2.2208 2.72052 17.3732 5.06958
529 1 -1.1104 3.92523 13.2891 0.976827
531 1 -1.1104 4.02762 13.2661 3.65884
609 1 -1.1104 1.26529 13.0115 6.7807
515 1 -1.1104 6.6015 13.0946 1.12217
517 2 2.2208 5.22888 11.7225 2.22903
928 2 2.2208 11.0252 11.8822 24.8517
13245 2 2.2208 -0.404561 11.8278 2.35558
891 2 2.2208 2.30389 17.5551 -0.344984
13246 2 2.2208 -0.35101 17.3693 2.49996
510 1 -1.1104 6.73133 16.0052 0.79068
512 1 -1.1104 7.10847 16.0028 3.84516
611 1 -1.1104 6.71554 13.0981 6.47976
521 1 -1.1104 6.97613 13.2819 3.74338
533 2 2.2208 10.9961 14.8561 5.13648
535 1 -1.1104 12.7346 16.0779 0.547423
536 1 -1.1104 12.6263 16.1016 3.65425
537 1 -1.1104 12.2785 13.1819 0.913891
540 2 2.2208 11.2711 17.506 2.40817
541 1 -1.1104 12.6303 13.0824 3.64597
543 1 -1.1104 9.88624 16.0155 0.931237
544 2 2.2208 8.03628 14.7345 2.17281
546 1 -1.1104 9.90906 16.1555 3.78145
548 2 2.2208 8.17627 17.5283 5.18387
549 1 -1.1104 9.40281 13.3522 0.975717
551 1 -1.1104 9.67231 13.4129 3.74533
645 1 -1.1104 9.54958 16.2462 6.60306
642 1 -1.1104 12.2466 16.255 6.47603
794 2 2.2208 11.0622 11.8518 19.2718
643 1 -1.1104 12.6097 13.2793 6.63314
974 1 -1.1104 9.38906 30.2881 26.1856
539 2 2.2208 10.964 11.9292 2.4279
980 1 -1.1104 9.40807 27.5876 26.2495
13244 2 2.2208 -0.219828 20.5186 5.15081
508 2 2.2208 5.3386 20.4014 5.07319
514 1 -1.1104 0.942997 18.9505 0.916741
520 1 -1.1104 1.02018 19.0223 3.84604
525 2 2.2208 2.41995 20.3735 2.34963
530 1 -1.1104 3.93029 18.9961 0.867836
532 1 -1.1104 3.82495 19.0578 3.70594
554 1 -1.1104 0.995919 21.8172 0.965343
558 1 -1.1104 1.21149 21.8727 3.69797
566 2 2.2208 5.29876 23.1514 2.24352
572 1 -1.1104 3.80465 21.7888 0.87833
575 1 -1.1104 4.02879 21.924 3.52361
577 2 2.2208 2.65986 23.3177 5.01846
516 1 -1.1104 6.73847 18.8936 0.979824
580 1 -1.1104 4.11468 24.396 0.702532
582 1 -1.1104 3.90698 24.7544 3.65381
568 1 -1.1104 0.8847 24.7319 3.78485
562 1 -1.1104 1.25888 24.6355 0.938256
676 1 -1.1104 3.73779 21.5653 6.17738
674 1 -1.1104 6.37715 24.6188 6.61182
556 1 -1.1104 6.45438 21.7451 0.9664
522 1 -1.1104 6.53378 19.0554 3.67117
668 1 -1.1104 1.09515 21.9784 6.34633
672 1 -1.1104 1.03304 24.735 6.47277
943 2 2.2208 2.59938 23.1059 27.7217
13306 2 2.2208 -0.296524 23.3442 2.35873
560 1 -1.1104 6.8197 21.9369 3.94666
570 1 -1.1104 6.7254 24.8103 3.80155
564 1 -1.1104 6.85637 24.735 0.891299
534 2 2.2208 10.8914 20.4567 5.11476
538 1 -1.1104 12.518 18.9579 1.20979
542 1 -1.1104 12.3414 19.0501 3.92211
545 2 2.2208 8.04377 20.3616 2.2828
550 1 -1.1104 9.90049 18.8516 0.923546
552 1 -1.1104 9.3385 18.8616 3.60455
585 1 -1.1104 12.3654 21.7941 0.858304
587 1 -1.1104 12.2744 21.9716 3.71862
591 2 2.2208 10.7518 23.1972 2.31345
595 1 -1.1104 9.29776 21.8762 1.03757
598 1 -1.1104 9.47057 21.6937 3.72349
600 2 2.2208 7.96924 23.3261 5.25202
605 1 -1.1104 9.3572 24.6756 3.99375
589 1 -1.1104 12.3019 24.6002 0.983931
603 1 -1.1104 9.70487 24.7532 0.862246
593 1 -1.1104 12.3198 24.4474 3.54787
644 1 -1.1104 12.3366 19.1058 6.62472
712 1 -1.1104 12.3039 21.8737 6.5104
716 1 -1.1104 9.29463 21.8693 6.70607
718 1 -1.1104 9.49915 24.4479 6.60258
714 1 -1.1104 12.1882 24.647 6.55031
647 1 -1.1104 9.39226 18.8807 6.4662
553 2 2.2208 5.38099 26.2731 5.11646
555 1 -1.1104 0.968564 27.6018 1.08821
559 1 -1.1104 1.149 27.7893 3.84618
563 1 -1.1104 0.971632 30.4589 1.12857
567 2 2.2208 5.35373 28.9369 2.39769
569 1 -1.1104 0.943404 30.5979 4.04303
573 1 -1.1104 3.95894 27.2211 0.970164
574 2 2.2208 2.51519 26.0749 2.38867
576 1 -1.1104 3.80058 27.6102 3.65581
579 2 2.2208 2.52758 29.1105 5.33915
581 1 -1.1104 3.73007 30.1271 1.11807
583 1 -1.1104 3.90868 30.3566 3.88966
677 1 -1.1104 4.01554 27.6618 6.53645
669 1 -1.1104 1.05232 27.5215 6.70443
679 1 -1.1104 3.93249 30.3472 6.62857
626 2 2.2208 5.42576 11.8115 7.83054
13305 2 2.2208 -0.299271 26.2352 5.28694
571 1 -1.1104 6.65351 30.3499 3.83268
557 1 -1.1104 6.76024 27.5577 0.748494
561 1 -1.1104 6.70526 27.5984 3.77086
565 1 -1.1104 6.46503 30.3998 0.960083
675 1 -1.1104 6.68483 30.2368 6.59895
584 2 2.2208 10.7986 25.9312 5.18353
586 1 -1.1104 12.4997 27.5631 0.918282
588 1 -1.1104 12.3289 27.5314 3.65061
590 1 -1.1104 12.224 30.2152 0.796336
592 2 2.2208 10.9216 28.8896 2.25341
594 1 -1.1104 12.281 30.395 3.87252
596 1 -1.1104 9.61378 27.5831 1.03202
597 2 2.2208 8.20369 26.1402 2.16612
599 1 -1.1104 9.4632 27.4006 3.60211
602 2 2.2208 7.9914 28.9665 5.24973
604 1 -1.1104 9.20133 30.3161 0.786274
606 1 -1.1104 9.67897 30.2528 3.79027
717 1 -1.1104 9.34529 27.2805 6.47658
715 1 -1.1104 12.6181 30.0941 6.73575
995 1 -1.1104 12.2332 27.3778 23.4527
614 1 -1.1104 3.88174 13.3745 6.44941
613 1 -1.1104 3.88393 16.221 6.71519
607 1 -1.1104 1.1959 16.1169 6.45773
616 2 2.2208 5.69646 14.7134 10.7089
618 1 -1.1104 1.29789 16.116 12.3215
620 1 -1.1104 1.24964 16.1708 9.29096
622 1 -1.1104 1.42106 13.2215 12.3676
627 2 2.2208 5.34392 17.5994 8.04323
628 1 -1.1104 1.19316 13.2207 9.6058
632 1 -1.1104 4.0108 15.936 12.2383
633 2 2.2208 2.56814 14.6686 8.07642
635 1 -1.1104 4.126 16.0523 9.41543
637 2 2.2208 2.77232 17.5095 10.7581
638 1 -1.1104 4.34057 13.1815 11.9029
640 1 -1.1104 4.18589 13.2755 9.19502
621 1 -1.1104 6.80722 16.2247 9.27295
13374 2 2.2208 -0.197308 14.7741 10.8115
624 1 -1.1104 7.12665 13.1941 12.1092
13682 2 2.2208 -0.435511 20.3277 27.6092
13373 2 2.2208 -0.163049 17.6262 7.96886
993 1 -1.1104 12.2184 27.2934 26.225
13458 2 2.2208 -0.227578 23.3008 7.82791
646 1 -1.1104 9.67958 13.2107 6.61052
608 1 -1.1104 6.65848 16.069 6.53326
630 1 -1.1104 6.84507 13.0876 9.21763
619 1 -1.1104 6.80604 16.0704 12.2425
648 2 2.2208 11.0395 14.5061 10.7666
650 1 -1.1104 12.4961 15.8737 12.0839
651 1 -1.1104 12.467 16.1881 9.36832
652 1 -1.1104 12.4047 13.0106 12.1644
655 2 2.2208 10.9691 17.6343 7.85809
656 1 -1.1104 12.1432 13.2341 9.2762
658 1 -1.1104 9.64947 15.883 12.1737
659 2 2.2208 8.26523 14.594 7.85826
661 1 -1.1104 9.73051 15.9562 9.46907
663 2 2.2208 8.35012 17.4625 10.6051
664 1 -1.1104 9.80864 13.0955 12.216
666 1 -1.1104 9.53337 13.3322 9.48017
784 2 2.2208 11.0939 17.3582 13.5239
785 2 2.2208 8.20854 14.5939 13.5799
13683 2 2.2208 -0.291913 17.6827 24.7923
13243 2 2.2208 -0.220279 14.6361 5.19099
744 2 2.2208 5.4597 11.747 13.5129
615 1 -1.1104 3.92583 18.8233 6.36692
678 1 -1.1104 3.93817 24.7483 6.60597
610 1 -1.1104 1.19342 19.1097 6.70084
617 2 2.2208 5.50294 20.3539 10.6401
623 1 -1.1104 1.32508 18.9613 11.951
629 1 -1.1104 1.07831 19.1118 9.36231
634 2 2.2208 2.61804 20.4135 7.85893
639 1 -1.1104 4.05805 18.9003 11.9654
641 1 -1.1104 3.97561 18.9797 9.34295
681 1 -1.1104 1.19146 21.7571 12.0772
685 1 -1.1104 1.28088 21.8616 9.28277
693 2 2.2208 5.41052 23.2696 8.05697
700 1 -1.1104 4.07709 22.0696 11.9681
704 1 -1.1104 4.06798 21.7123 9.24345
706 2 2.2208 2.65528 23.2324 10.6054
696 1 -1.1104 1.04738 24.6804 9.24997
689 1 -1.1104 1.09956 24.4802 12.2864
708 1 -1.1104 3.99861 24.8626 12.4282
710 1 -1.1104 3.81482 24.7538 9.47864
814 2 2.2208 5.28584 23.2147 13.68
13376 2 2.2208 -0.0608015 11.8435 7.98537
13621 2 2.2208 -0.207337 23.3029 13.5268
13375 2 2.2208 -0.173564 20.4925 10.8437
612 1 -1.1104 6.6571 18.8538 6.46528
670 1 -1.1104 6.64589 21.728 6.70076
625 1 -1.1104 6.94073 19.0224 12.1082
683 1 -1.1104 7.01996 21.9112 12.4029
691 1 -1.1104 6.798 24.6357 12.4315
631 1 -1.1104 6.84781 18.9916 9.42234
687 1 -1.1104 6.84792 21.6925 9.42879
698 1 -1.1104 6.66795 24.3301 9.47646
649 2 2.2208 11.1146 20.3201 10.8108
653 1 -1.1104 12.5508 18.7386 12.2052
657 1 -1.1104 12.3729 18.9583 9.41733
660 2 2.2208 8.05797 20.2676 7.9738
665 1 -1.1104 9.85462 18.7389 12.2458
667 1 -1.1104 9.84153 18.9056 9.45803
721 1 -1.1104 12.5349 21.6904 12.2305
723 1 -1.1104 12.2461 21.8442 9.5685
727 2 2.2208 10.937 23.2914 7.89721
732 1 -1.1104 9.66075 21.5559 12.3858
736 1 -1.1104 9.56437 21.7043 9.44263
738 2 2.2208 8.19807 23.0065 10.884
740 1 -1.1104 9.62169 24.4855 12.1673
725 1 -1.1104 12.4215 24.4905 12.2109
730 1 -1.1104 12.3947 24.6573 9.27169
742 1 -1.1104 9.52522 24.4509 9.35579
857 2 2.2208 11.1512 22.9197 13.6949
662 2 2.2208 8.28636 11.8112 10.7651
673 1 -1.1104 1.10264 30.2446 6.90641
680 2 2.2208 5.40761 26.1446 11.0067
682 1 -1.1104 0.989162 27.059 12.2356
686 1 -1.1104 0.772344 27.6946 9.76821
690 1 -1.1104 0.976692 30.2479 12.2679
694 2 2.2208 5.24614 29.033 8.08936
697 1 -1.1104 1.10754 30.3686 9.5636
701 1 -1.1104 3.68147 27.6245 12.4296
702 2 2.2208 2.4756 26.0442 7.83288
705 1 -1.1104 3.82155 27.5395 9.40666
707 2 2.2208 2.39751 28.8673 10.885
709 1 -1.1104 3.74321 30.2443 12.3565
711 1 -1.1104 3.84525 30.4113 9.33105
695 2 2.2208 5.22033 28.6003 13.6401
703 2 2.2208 2.47808 25.9011 13.5045
699 1 -1.1104 6.70192 30.1686 9.28398
13620 2 2.2208 -0.189533 26.0172 16.2387
13456 2 2.2208 -0.336927 28.8596 13.7221
671 1 -1.1104 6.71461 27.4616 6.74327
719 1 -1.1104 9.66356 30.2001 6.59954
713 1 -1.1104 12.3922 27.2778 6.48595
684 1 -1.1104 6.63708 27.473 12.4055
692 1 -1.1104 6.77286 30.1784 12.1537
688 1 -1.1104 6.6663 27.4106 9.5338
720 2 2.2208 11.0106 25.9337 10.774
722 1 -1.1104 12.1838 27.4441 11.9493
724 1 -1.1104 12.5408 27.4146 9.32108
726 1 -1.1104 12.4047 30.085 12.2747
728 2 2.2208 10.9959 28.7594 8.0875
731 1 -1.1104 12.5165 30.3969 9.42625
733 1 -1.1104 9.559 27.2585 12.0864
734 2 2.2208 7.98174 26.0887 8.19347
737 1 -1.1104 9.51297 27.3284 9.33084
739 2 2.2208 8.22104 28.8159 10.6881
741 1 -1.1104 9.55982 30.3111 12.0233
743 1 -1.1104 9.61012 30.1723 9.24156
735 2 2.2208 8.25644 25.8849 13.7023
760 2 2.2208 5.46824 11.8912 19.2512
13537 2 2.2208 -0.192492 14.7078 16.4284