ITEM: TIMESTEP
80000
ITEM: NUMBER OF ATOMS
27000
ITEM: BOX BOUNDS pp pp pp
-4.4334093717089212e-01 2.7783340937170902e+01
-7.9132066756552515e+00 5.0003320667565561e+02
-4.4599924821336961e-01 2.7785999248213226e+01
ITEM: ATOMS id type q x y z
1 2 2.2208 5.25695 -2.16398 5.55555
2 1 -1.1104 1.32586 -6.51255 1.0967
6 1 -1.1104 1.17128 -6.64236 3.94355
10 1 -1.1104 1.17082 -3.79532 1.04879
12 2 2.2208 5.39252 -5.0232 2.74592
14 1 -1.1104 1.20951 -3.82372 3.69901
16 1 -1.1104 4.16519 -6.44483 1.44676
18 2 2.2208 2.43122 -2.27718 2.48445
19 1 -1.1104 4.01675 -6.61593 4.02742
21 2 2.2208 2.51179 -4.99618 5.37579
23 1 -1.1104 3.96519 -3.47319 1.3384
24 1 -1.1104 3.94367 -3.53279 3.91216
392 2 2.2208 2.50715 -5.1151 -0.159329
12699 2 2.2208 -0.414372 -7.80303 5.36416
137 2 2.2208 5.28775 -7.79156 11.1037
13014 2 2.2208 13.6967 3.53021 19.5351
390 2 2.2208 13.5344 3.48989 13.8503
310 2 2.2208 8.20461 -7.71388 19.6715
165 2 2.2208 13.7515 -2.01833 8.26711
503 2 2.2208 11.0122 9.16802 22.4324
11 1 -1.1104 6.83555 -3.4653 1.25268
489 1 -1.1104 9.65258 10.4775 23.6601
4 1 -1.1104 6.78018 -6.45207 1.17847
47 2 2.2208 11.193 -7.80806 5.29853
8 1 -1.1104 6.68352 -6.3542 4.09243
15 1 -1.1104 6.81577 -3.55251 4.38924
27 2 2.2208 10.7638 -2.05429 5.32351
28 1 -1.1104 12.5029 -6.47532 1.05035
30 1 -1.1104 12.3518 -6.41886 3.75562
32 1 -1.1104 12.6179 -3.61702 1.21644
33 2 2.2208 10.9606 -4.98002 2.57473
35 1 -1.1104 12.2249 -3.60303 4.1353
36 1 -1.1104 9.68901 -6.49007 1.25159
38 2 2.2208 8.11002 -2.02247 2.52212
39 1 -1.1104 9.38311 -6.27941 3.9733
41 2 2.2208 8.09262 -4.87571 5.45031
43 1 -1.1104 9.67173 -3.55364 1.23135
44 1 -1.1104 9.53698 -3.48014 3.98052
499 1 -1.1104 12.6363 10.4819 26.7054
13192 2 2.2208 -0.0662741 3.47041 22.4089
458 1 -1.1104 6.65729 10.5588 26.6163
485 1 -1.1104 9.59524 10.5517 26.5479
497 1 -1.1104 12.4576 7.87875 23.603
3 1 -1.1104 1.19484 -0.643272 1.05177
7 1 -1.1104 0.869637 -0.842738 4.10308
13 2 2.2208 5.13149 0.644065 2.61841
17 1 -1.1104 3.91889 -0.680393 1.11874
20 1 -1.1104 3.63047 -0.879623 4.22771
22 2 2.2208 2.42548 0.722915 5.42265
49 2 2.2208 5.36571 3.52353 5.41151
59 1 -1.1104 1.09356 1.97821 1.26066
64 1 -1.1104 1.12188 2.17336 4.01952
70 2 2.2208 2.34753 3.54486 2.64417
75 1 -1.1104 3.89087 2.04014 1.30913
77 1 -1.1104 3.83311 1.87655 4.02964
68 1 -1.1104 3.85141 4.98609 1.39723
51 1 -1.1104 0.95926 4.94936 1.32649
72 1 -1.1104 4.06843 4.89916 4.25476
55 1 -1.1104 1.36276 5.03596 4.02922
453 2 2.2208 5.4074 3.35181 0.00412746
12733 2 2.2208 -0.354458 3.4519 5.43228
393 2 2.2208 2.5307 0.618068 -0.210768
179 1 -1.1104 3.99825 4.98449 6.68065
103 1 -1.1104 1.07009 -0.530271 6.94022
61 1 -1.1104 6.85062 2.11941 1.11599
5 1 -1.1104 6.63991 -0.5373 1.26392
57 1 -1.1104 6.995 4.9474 4.13014
66 1 -1.1104 6.5919 2.06961 3.89882
9 1 -1.1104 6.4181 -0.885205 3.8759
53 1 -1.1104 6.83273 4.97829 1.351
29 1 -1.1104 12.5601 -0.887742 1.00519
31 1 -1.1104 12.4786 -0.896736 3.91771
34 2 2.2208 11.1258 0.75228 2.61981
37 1 -1.1104 9.63591 -0.801712 1.2159
40 1 -1.1104 9.51796 -0.444807 4.03953
42 2 2.2208 8.20511 0.840539 5.35623
79 2 2.2208 11.1188 3.5891 5.40264
85 1 -1.1104 12.6431 1.89849 1.36693
88 1 -1.1104 12.3321 2.2308 4.02852
92 2 2.2208 8.27269 3.54238 2.73943
97 1 -1.1104 9.78346 1.97325 1.1116
99 1 -1.1104 9.52241 2.2349 4.14956
83 1 -1.1104 12.4996 5.08153 3.92222
94 1 -1.1104 9.74839 4.97072 3.90045
90 1 -1.1104 9.65878 4.84234 1.25753
491 2 2.2208 10.9649 3.57457 -0.278547
219 1 -1.1104 9.59435 2.20869 6.68828
173 1 -1.1104 6.77816 4.97615 6.78407
423 2 2.2208 8.31432 0.739176 -0.183259
81 1 -1.1104 12.4886 4.76393 1.16718
215 1 -1.1104 12.5716 2.04269 6.86602
12731 2 2.2208 -0.224825 6.3847 2.61296
50 2 2.2208 5.48398 9.35757 5.53183
52 1 -1.1104 0.88117 10.4441 1.25526
56 1 -1.1104 1.16509 10.8285 3.93059
60 1 -1.1104 1.20002 7.78239 1.18832
63 2 2.2208 5.32832 6.32291 2.79138
65 1 -1.1104 1.1018 7.95654 4.35546
69 1 -1.1104 3.9024 10.6881 1.21482
71 2 2.2208 2.55344 9.21238 2.59003
73 1 -1.1104 4.09945 10.6701 3.94875
74 2 2.2208 2.54502 6.41462 5.62538
76 1 -1.1104 3.97425 7.8396 1.19124
78 1 -1.1104 3.89526 7.87269 3.91929
454 2 2.2208 5.43463 9.05217 -0.135107
445 2 2.2208 8.13499 -7.72017 25.1568
455 2 2.2208 2.35828 6.31286 -0.160236
12759 2 2.2208 -0.448608 9.32141 5.58689
67 1 -1.1104 6.76931 7.89622 3.88888
54 1 -1.1104 6.90489 10.6176 1.18752
58 1 -1.1104 6.91719 10.6915 4.177
62 1 -1.1104 6.87396 7.78865 1.28098
80 2 2.2208 11.0866 9.12388 5.50043
82 1 -1.1104 12.4571 10.4886 1.13849
84 1 -1.1104 12.3438 10.5163 4.11263
86 1 -1.1104 12.3925 7.60814 1.01553
87 2 2.2208 11.1438 6.40819 2.47177
89 1 -1.1104 12.3914 7.77349 4.06375
91 1 -1.1104 9.67028 10.3692 1.32789
93 2 2.2208 8.17151 9.19073 2.53547
95 1 -1.1104 9.73045 10.7719 4.36692
96 2 2.2208 8.19966 6.57518 5.50394
98 1 -1.1104 9.79781 7.82469 1.32404
100 1 -1.1104 9.62579 7.84723 4.01766
492 2 2.2208 11.1184 9.19992 -0.252277
493 2 2.2208 8.14106 6.4115 -0.20997
110 1 -1.1104 4.01979 -3.69272 6.7907
48 2 2.2208 8.24004 -7.87863 2.59083
108 1 -1.1104 3.8446 -6.4097 6.853
106 1 -1.1104 1.13403 -3.22338 6.7386
102 1 -1.1104 1.05056 -6.22042 6.56669
111 2 2.2208 5.51746 -2.20007 11.0285
112 1 -1.1104 1.22105 -6.13706 12.5407
116 1 -1.1104 0.939163 -6.34547 9.7071
120 1 -1.1104 1.1151 -3.54473 12.5349
122 2 2.2208 5.21142 -4.98683 8.24671
125 1 -1.1104 1.274 -3.6256 9.55114
127 1 -1.1104 4.05587 -6.3914 12.4821
129 2 2.2208 2.74638 -2.06844 8.32697
131 1 -1.1104 3.79215 -6.21587 9.73698
133 2 2.2208 2.49252 -4.85753 11.0168
135 1 -1.1104 3.84293 -3.54386 12.2338
136 1 -1.1104 4.16602 -3.3378 9.52445
12829 2 2.2208 -0.274999 -5.05304 13.9734
311 2 2.2208 10.8974 -7.78369 16.5152
446 2 2.2208 11.0877 -7.92865 22.5154
12797 2 2.2208 -0.349815 -2.34578 11.1904
142 1 -1.1104 9.6968 -6.35384 6.70264
126 1 -1.1104 7.04999 -3.38859 9.75842
121 1 -1.1104 6.77582 -3.50507 12.3805
104 1 -1.1104 6.62683 -6.43747 6.87902
107 1 -1.1104 6.8121 -3.60056 7.01725
144 1 -1.1104 9.58088 -3.45829 6.84169
139 1 -1.1104 12.4644 -6.13226 6.82307
12678 2 2.2208 -0.19822 0.58991 2.72321
118 1 -1.1104 6.65426 -6.15453 9.71172
141 1 -1.1104 12.3864 -3.22282 6.7441
114 1 -1.1104 6.73223 -6.4685 12.4567
145 2 2.2208 10.939 -2.19124 10.9956
146 1 -1.1104 12.279 -6.29311 12.4231
148 1 -1.1104 12.3865 -6.41306 9.60279
150 1 -1.1104 12.5289 -3.55662 12.5866
151 2 2.2208 11.0001 -4.94193 8.28953
154 1 -1.1104 12.6061 -3.68369 9.67917
155 1 -1.1104 9.53804 -6.39098 12.5486
157 2 2.2208 8.30083 -2.15129 8.16208
159 1 -1.1104 9.67401 -6.48493 9.52792
161 2 2.2208 8.17681 -5.07322 11.0472
163 1 -1.1104 9.70066 -3.61347 12.3853
164 1 -1.1104 9.67574 -3.59779 9.6631
158 2 2.2208 8.19368 -2.13855 13.7304
168 2 2.2208 8.01509 -7.84213 8.07575
175 1 -1.1104 1.25702 2.22774 6.73684
109 1 -1.1104 3.93261 -0.698228 6.89641
181 1 -1.1104 3.88402 1.97026 6.7876
171 1 -1.1104 1.18995 4.80054 6.90778
12911 2 2.2208 -0.267238 3.68544 11.268
113 1 -1.1104 1.30965 -0.406091 12.5408
117 1 -1.1104 1.06051 -0.887183 9.93198
124 2 2.2208 5.32585 0.60346 8.00405
128 1 -1.1104 3.99474 -0.738293 12.3793
132 1 -1.1104 3.99265 -0.653463 9.73004
134 2 2.2208 2.66233 0.764278 11.032
183 2 2.2208 5.42637 3.56214 10.8115
193 1 -1.1104 1.04165 2.2727 12.6507
198 1 -1.1104 1.22012 2.1526 9.6216
202 1 -1.1104 3.9553 4.92439 12.344
204 2 2.2208 2.71542 3.54882 8.16585
209 1 -1.1104 4.02407 2.19469 12.3356
211 1 -1.1104 4.05899 2.0768 9.40032
189 1 -1.1104 1.324 4.84808 9.79881
206 1 -1.1104 4.12513 4.86852 9.54594
105 1 -1.1104 6.9664 -0.620945 6.61708
177 1 -1.1104 6.61951 2.20284 6.86152
140 1 -1.1104 12.4142 -0.572482 6.71671
217 1 -1.1104 9.45903 5.01325 6.96323
200 1 -1.1104 6.92558 2.09777 9.42521
115 1 -1.1104 6.68351 -0.541438 12.1933
187 1 -1.1104 6.64475 5.02959 12.6611
143 1 -1.1104 9.75923 -0.467354 6.78182
195 1 -1.1104 6.82877 2.242 12.2246
119 1 -1.1104 6.70099 -0.562848 9.44033
191 1 -1.1104 6.71349 4.97195 9.53301
147 1 -1.1104 12.362 -0.831244 12.2614
149 1 -1.1104 12.3777 -0.635062 9.55296
153 2 2.2208 11.0061 0.743114 8.16526
156 1 -1.1104 9.44506 -0.68649 12.2126
160 1 -1.1104 9.34112 -0.689295 9.41608
162 2 2.2208 8.12631 0.779699 10.7697
221 2 2.2208 11.0446 3.63331 10.9356
227 1 -1.1104 12.4506 2.03808 12.3803
230 1 -1.1104 12.5241 2.16678 9.66642
234 2 2.2208 8.32768 3.50317 8.17082
239 1 -1.1104 9.80857 2.03172 12.3771
241 1 -1.1104 9.51117 2.15598 9.51389
232 1 -1.1104 9.38571 4.82405 12.4938
225 1 -1.1104 12.4681 4.97999 9.44945
223 1 -1.1104 12.2092 5.2049 12.4862
213 1 -1.1104 12.4083 4.93208 6.62722
236 1 -1.1104 9.49173 5.0317 9.80062
279 2 2.2208 10.8166 0.629075 13.8885
176 1 -1.1104 0.829856 7.75076 6.89396
12879 2 2.2208 -0.268487 6.1891 8.1338
182 1 -1.1104 3.98726 7.71337 6.83498
185 1 -1.1104 1.12348 4.93957 12.6032
180 1 -1.1104 3.98246 10.4829 6.93436
172 1 -1.1104 0.940363 10.7152 6.77334
184 2 2.2208 5.16247 9.32313 11.2027
186 1 -1.1104 1.08768 10.4712 12.3722
190 1 -1.1104 1.05586 10.5023 9.41423
194 1 -1.1104 0.619379 7.79564 12.2094
197 2 2.2208 5.52132 6.36476 8.24503
199 1 -1.1104 1.12277 7.79778 9.60935
203 1 -1.1104 3.78386 10.6719 12.6747
205 2 2.2208 2.49336 9.2586 8.23125
207 1 -1.1104 3.78021 10.5688 9.74825
208 2 2.2208 2.54286 6.43693 10.9302
210 1 -1.1104 3.57656 7.88658 12.397
212 1 -1.1104 4.16514 7.93012 9.56471
192 1 -1.1104 6.75585 10.5433 9.90201
12880 2 2.2208 -0.265757 9.1652 10.7583
314 2 2.2208 2.3302 9.33815 13.9134
201 1 -1.1104 7.02476 7.75321 9.57513
216 1 -1.1104 12.3081 7.68549 6.76829
178 1 -1.1104 6.66577 7.80177 6.83914
220 1 -1.1104 9.4051 7.9898 6.92631
196 1 -1.1104 6.80205 7.79432 12.5569
174 1 -1.1104 6.8583 10.6098 7.05825
218 1 -1.1104 9.59086 10.6431 6.75278
188 1 -1.1104 6.55476 10.6206 12.3705
214 1 -1.1104 12.4489 10.5795 7.01454
222 2 2.2208 10.914 9.43746 11.3138
224 1 -1.1104 12.2514 10.7028 12.6774
226 1 -1.1104 12.3528 10.7109 9.82455
228 1 -1.1104 12.3366 7.94382 12.4406
229 2 2.2208 11.1117 6.44654 8.4176
231 1 -1.1104 12.4626 7.97812 9.67908
233 1 -1.1104 9.46015 10.8264 12.6332
235 2 2.2208 8.26905 9.43264 8.47295
237 1 -1.1104 9.58371 10.8906 9.80595
238 2 2.2208 8.09264 6.3382 11.0025
240 1 -1.1104 9.58424 8.03473 12.7157
242 1 -1.1104 9.7979 7.7871 10.0113
278 2 2.2208 5.233 -7.76589 16.7585
420 2 2.2208 5.39542 -7.95327 22.36
276 2 2.2208 2.53547 -7.77187 13.6879
130 2 2.2208 2.52071 -2.21294 13.8135
123 2 2.2208 5.22553 -5.08744 13.9793
246 2 2.2208 5.31109 -2.16524 16.6941
247 1 -1.1104 1.10507 -6.39571 18.0117
250 1 -1.1104 1.00153 -6.52247 15.0883
257 1 -1.1104 1.20932 -3.52635 18.1833
259 2 2.2208 5.18586 -4.9433 19.5655
261 1 -1.1104 1.00426 -3.73447 15.5557
264 1 -1.1104 3.75776 -6.50673 18.202
266 2 2.2208 2.49776 -2.25254 19.5897
267 1 -1.1104 3.88342 -6.42638 15.3032
271 2 2.2208 2.49486 -5.07992 16.5703
273 1 -1.1104 3.96543 -3.75301 18.2537
274 1 -1.1104 3.65739 -3.68122 15.2839
12947 2 2.2208 -0.269797 -2.25924 16.8071
262 1 -1.1104 1.04696 -3.58728 20.9493
277 2 2.2208 2.4923 -7.81438 19.6539
282 1 -1.1104 6.53345 -3.66531 20.994
389 1 -1.1104 9.5988 7.52937 21.1826
13124 2 2.2208 -0.216749 0.597433 25.1026
254 1 -1.1104 6.75162 -6.47075 15.4113
152 2 2.2208 10.9164 -5.01233 13.7678
280 1 -1.1104 6.59941 -6.48717 18.1672
263 1 -1.1104 6.79453 -3.77608 15.119
258 1 -1.1104 6.72395 -3.45769 17.8878
283 2 2.2208 10.9275 -2.0949 16.7054
284 1 -1.1104 12.3161 -6.24572 17.8646
286 1 -1.1104 12.4622 -6.19119 15.3458
290 1 -1.1104 12.5414 -3.6681 18.1407
291 2 2.2208 10.9682 -5.03229 19.5733
293 1 -1.1104 12.5288 -3.35864 15.336
295 1 -1.1104 9.46123 -6.18971 18.114
297 2 2.2208 8.04945 -2.23033 19.3487
298 1 -1.1104 9.39807 -6.33663 15.2288
302 2 2.2208 8.10292 -5.12086 16.6169
304 1 -1.1104 9.49752 -3.47941 17.7653
305 1 -1.1104 9.60029 -3.45972 15.1037
281 1 -1.1104 6.81445 -6.36151 21.0437
299 1 -1.1104 9.73004 -6.57218 20.8565
307 2 2.2208 13.5612 -2.1261 19.5686
12946 2 2.2208 -0.103193 0.529689 19.6276
313 2 2.2208 2.52265 3.4696 13.7067
245 2 2.2208 5.32658 0.72359 13.8391
12691 2 2.2208 -0.291234 -2.09124 5.50756
248 1 -1.1104 0.994042 -0.845379 18.2031
252 1 -1.1104 1.12217 -0.894665 15.3756
260 2 2.2208 5.27418 0.645055 19.3876
265 1 -1.1104 3.73542 -1.03307 17.9044
269 1 -1.1104 4.33354 -0.97688 14.9844
272 2 2.2208 2.21373 0.683777 16.6946
315 2 2.2208 5.32276 3.32198 16.8017
329 1 -1.1104 1.02572 1.97209 18.1113
334 1 -1.1104 1.12039 2.04441 15.2883
344 2 2.2208 2.60627 3.48028 19.5918
351 1 -1.1104 3.99207 1.95538 18.0219
353 1 -1.1104 3.87525 1.76038 15.1948
317 1 -1.1104 1.11264 4.63763 18.1359
321 1 -1.1104 0.976729 4.87696 15.3102
346 1 -1.1104 3.85478 4.78892 15.0402
342 1 -1.1104 3.87145 4.85693 18.0752
249 1 -1.1104 6.59745 -0.771906 18.0081
13101 2 2.2208 -0.199466 -2.18798 -0.171022
338 1 -1.1104 6.56309 2.14845 15.1555
331 1 -1.1104 6.76226 2.16411 18.1386
253 1 -1.1104 1.04454 -0.824888 21.1095
358 2 2.2208 7.9303 3.49331 13.8234
255 1 -1.1104 7.02246 -0.730008 15.1939
319 1 -1.1104 6.71028 4.85129 18.3812
325 1 -1.1104 6.51681 5.08758 15.4155
285 1 -1.1104 12.2756 -0.631662 18.1175
288 1 -1.1104 12.2217 -0.844011 15.215
292 2 2.2208 10.8783 0.623808 19.6497
296 1 -1.1104 9.71596 -0.780104 18.1985
300 1 -1.1104 9.64066 -0.730228 15.2366
303 2 2.2208 8.23206 0.554773 16.7981
360 2 2.2208 10.9818 3.5411 16.786
364 1 -1.1104 12.1288 4.7721 15.2386
368 1 -1.1104 12.2431 2.21327 18.2345
371 1 -1.1104 12.2129 2.01874 15.3805
377 2 2.2208 8.09087 3.41132 19.536
384 1 -1.1104 9.46369 1.97585 18.0356
386 1 -1.1104 9.35322 2.03854 15.2009
375 1 -1.1104 9.53964 4.80717 18.0581
362 1 -1.1104 12.3977 5.00936 18.023
365 1 -1.1104 12.3472 4.88539 20.9213
256 1 -1.1104 6.75398 -0.963045 20.7591
379 1 -1.1104 9.37221 4.79988 15.1567
339 1 -1.1104 6.59299 1.9938 20.9026
301 1 -1.1104 9.45876 -0.907767 21.1389
13019 2 2.2208 -0.24512 6.35051 19.5214
12830 2 2.2208 -0.237285 -4.96432 8.0587
312 2 2.2208 5.16363 6.394 13.858
316 2 2.2208 5.21864 9.18157 16.8233
318 1 -1.1104 0.972743 10.627 17.7696
323 1 -1.1104 0.966103 10.624 15.1494
330 1 -1.1104 1.37891 7.52819 18.2295
333 2 2.2208 5.21386 6.30828 19.5867
336 1 -1.1104 1.20071 7.73937 15.2959
343 1 -1.1104 3.95879 10.6091 18.0519
345 2 2.2208 2.66798 9.16584 19.4074
348 1 -1.1104 3.94078 10.7339 15.5381
350 2 2.2208 2.62848 6.17236 16.5954
352 1 -1.1104 3.92346 7.7001 18.1326
355 1 -1.1104 3.88951 7.82587 15.1473
332 1 -1.1104 6.61506 7.82632 18.1579
26 2 2.2208 5.36202 -7.85296 5.48092
357 2 2.2208 10.7618 6.26867 13.8125
340 1 -1.1104 6.69533 7.73106 15.2783
327 1 -1.1104 6.52093 10.5246 15.475
320 1 -1.1104 6.66074 10.5039 18.2332
359 2 2.2208 8.09599 9.12767 13.9963
361 2 2.2208 10.8754 9.05769 16.637
363 1 -1.1104 12.1949 10.5365 18.1214
366 1 -1.1104 12.5266 10.4364 15.4312
369 1 -1.1104 12.186 7.61736 18.0804
370 2 2.2208 10.9434 6.25214 19.5538
373 1 -1.1104 12.1455 7.64246 15.2696
376 1 -1.1104 9.5139 10.3636 18.1662
378 2 2.2208 8.12981 8.92676 19.6853
381 1 -1.1104 9.52548 10.6295 15.5217
383 2 2.2208 8.08738 6.30057 16.7625
385 1 -1.1104 9.61515 7.54828 18.247
388 1 -1.1104 9.36054 7.69897 15.4451
391 2 2.2208 5.51618 -2.15269 -0.139584
12679 2 2.2208 -0.109713 -5.11239 2.64203
13017 2 2.2208 -0.425726 3.51123 16.6015
13125 2 2.2208 -0.28771 -4.96724 25.1125
251 1 -1.1104 0.814817 -6.40859 21.042
494 1 -1.1104 12.4667 7.94068 26.5061
341 1 -1.1104 6.7142 7.82793 20.913
268 1 -1.1104 3.76196 -6.41863 21.0034
275 1 -1.1104 3.75944 -3.46263 21.2503
394 2 2.2208 5.30215 -2.14739 22.4325
395 1 -1.1104 0.940661 -6.68071 23.8736
399 1 -1.1104 1.0818 -6.28119 26.5962
403 1 -1.1104 1.11461 -3.63666 23.8488
404 2 2.2208 5.30947 -4.98404 25.3606
406 1 -1.1104 1.21735 -3.45738 26.7757
408 1 -1.1104 3.89109 -6.11166 24.0023
410 2 2.2208 2.63196 -2.22147 25.3805
411 1 -1.1104 4.00152 -6.54143 26.7762
413 2 2.2208 2.37157 -5.16696 22.3845
415 1 -1.1104 3.98098 -3.56341 23.9857
416 1 -1.1104 3.80525 -3.64909 26.7043
374 1 -1.1104 12.4509 7.95944 20.73
421 2 2.2208 11.0663 -2.17305 -0.09928
294 1 -1.1104 12.3596 -3.71605 21.0815
422 2 2.2208 8.1754 -5.1685 -0.151057
170 2 2.2208 10.8778 -7.89011 11.1509
424 1 -1.1104 6.8705 -3.7583 23.8687
287 1 -1.1104 12.3294 -6.41828 20.9788
397 1 -1.1104 6.68591 -6.58394 23.9503
306 1 -1.1104 9.2974 -3.71473 20.6251
401 1 -1.1104 6.8613 -6.61766 26.5614
407 1 -1.1104 6.69067 -3.63516 26.8483
425 2 2.2208 10.9841 -2.43525 22.5048
426 1 -1.1104 12.3847 -6.53329 23.744
428 1 -1.1104 12.3025 -6.45197 26.5548
430 1 -1.1104 12.4978 -3.75714 23.7856
431 2 2.2208 10.9548 -5.22079 25.2116
433 1 -1.1104 12.3388 -3.62343 26.6783
434 1 -1.1104 9.51417 -6.41292 23.6881
436 2 2.2208 8.14897 -2.22654 25.1625
437 1 -1.1104 9.67129 -6.61404 26.4811
439 2 2.2208 8.17656 -5.0833 22.2009
441 1 -1.1104 9.56545 -3.77942 23.6146
442 1 -1.1104 9.47725 -3.78489 26.4547
12977 2 2.2208 -0.331021 -7.86778 16.6742
484 2 2.2208 8.12192 6.31987 22.4096
347 1 -1.1104 4.01243 4.89298 20.7741
335 1 -1.1104 1.41479 1.97665 20.8932
322 1 -1.1104 1.1737 4.90221 21.0052
270 1 -1.1104 4.06862 -0.751034 20.8761
354 1 -1.1104 3.91358 2.0132 20.8552
400 1 -1.1104 1.12194 -0.478361 26.6646
396 1 -1.1104 1.13836 -1.0076 23.8797
405 2 2.2208 5.4212 0.613802 25.2295
409 1 -1.1104 3.89899 -0.727229 23.6981
412 1 -1.1104 4.13855 -0.817904 26.6059
414 2 2.2208 2.47875 0.481697 22.3277
448 1 -1.1104 0.874954 2.53922 26.6057
457 1 -1.1104 1.33362 2.00528 23.8622
464 1 -1.1104 3.86239 2.0688 26.8284
469 1 -1.1104 3.96183 2.10682 23.6545
475 2 2.2208 2.47097 3.48375 25.2282
477 2 2.2208 5.3094 3.61501 22.413
461 1 -1.1104 1.02805 5.07119 26.7697
12831 2 2.2208 -0.214353 0.654928 8.57229
459 1 -1.1104 6.74067 4.89546 26.8688
472 1 -1.1104 3.82697 4.85898 26.6618
402 1 -1.1104 6.87881 -0.77705 26.6954
479 1 -1.1104 3.82498 4.88878 23.7283
289 1 -1.1104 12.2013 -0.830352 21.0468
380 1 -1.1104 9.52902 4.83549 20.8648
387 1 -1.1104 9.53198 2.09658 20.6866
326 1 -1.1104 6.63091 5.03288 21.1019
372 1 -1.1104 12.3121 1.95316 21.0832
450 1 -1.1104 6.64296 2.10643 26.3737
398 1 -1.1104 6.61034 -0.92222 24.0719
452 1 -1.1104 6.80838 1.9468 23.6078
500 1 -1.1104 12.6177 5.12155 26.5617
486 1 -1.1104 9.66313 4.84535 26.5307
504 2 2.2208 10.9129 3.41168 22.3541
502 1 -1.1104 12.2726 4.83651 23.6389
498 1 -1.1104 12.2942 1.95965 23.7597
427 1 -1.1104 12.5964 -0.788067 23.7882
429 1 -1.1104 12.5126 -0.658077 26.6268
432 2 2.2208 11.0869 0.662673 25.2859
435 1 -1.1104 9.56996 -1.04354 23.8906
438 1 -1.1104 9.61483 -0.650429 26.5017
440 2 2.2208 8.05214 0.418702 22.2885
481 1 -1.1104 9.51788 2.16563 26.5024
483 1 -1.1104 9.55936 1.77146 23.6214
488 2 2.2208 8.11523 3.38131 25.125
495 1 -1.1104 12.2782 1.99785 26.7303
490 1 -1.1104 9.42448 4.73564 23.6183
466 1 -1.1104 6.71144 4.95744 23.8134
13157 2 2.2208 -0.278407 6.25763 25.0127
324 1 -1.1104 1.25375 10.5987 20.5868
337 1 -1.1104 1.07169 7.90469 20.8404
13190 2 2.2208 -0.456154 9.17125 22.1323
468 1 -1.1104 1.03124 5.0191 23.7467
356 1 -1.1104 3.969 7.74971 20.9456
349 1 -1.1104 3.79148 10.632 21.029
467 1 -1.1104 1.05467 10.6423 23.6937
449 2 2.2208 5.33397 6.26512 25.305
456 1 -1.1104 1.02344 7.86875 23.4732
460 1 -1.1104 0.979218 10.5275 26.545
465 1 -1.1104 4.04507 7.71114 23.8403
462 1 -1.1104 3.8971 7.60682 26.6121
474 2 2.2208 5.35927 9.10218 22.1749
476 1 -1.1104 3.92189 10.5758 23.5844
470 2 2.2208 2.50514 6.4932 22.393
447 1 -1.1104 1.0585 7.56977 26.4782
473 2 2.2208 2.49139 9.18252 25.1142
471 1 -1.1104 4.03643 10.645 26.4671
328 1 -1.1104 6.69818 10.5465 21.1205
487 2 2.2208 7.9458 9.08506 25.3061
480 1 -1.1104 9.46843 7.77173 26.5136
501 1 -1.1104 12.3571 10.6742 23.6698
496 2 2.2208 11.1501 6.31518 25.2065
482 1 -1.1104 9.6965 7.54976 23.8727
367 1 -1.1104 12.354 10.6763 20.7566
382 1 -1.1104 9.38715 10.4 20.9649
451 1 -1.1104 6.71863 7.95716 23.6767
463 1 -1.1104 6.66634 10.741 23.9013
478 1 -1.1104 6.63819 7.63132 26.6967
12975 2 2.2208 -0.218277 0.595005 13.9507
419 2 2.2208 2.53938 -7.83685 25.1561
169 2 2.2208 8.11742 -7.97181 13.7964
138 2 2.2208 2.31005 -7.70389 8.27534
309 2 2.2208 13.5497 0.730255 16.6803
12976 2 2.2208 -0.373407 -4.91212 19.4176
13018 2 2.2208 -0.283205 9.27954 16.673
13127 2 2.2208 -0.30842 -7.84554 -0.187805
507 2 2.2208 5.17824 14.5436 5.41923
509 1 -1.1104 1.11241 16.2175 1.26079
511 1 -1.1104 1.17661 16.367 3.96865
513 1 -1.1104 1.08443 13.4058 1.23413
518 2 2.2208 5.24936 17.6475 2.55233
519 1 -1.1104 1.02932 13.6208 4.07876
523 1 -1.1104 3.80751 16.2596 1.03691
524 2 2.2208 2.55743 14.8283 2.55846
526 1 -1.1104 3.95194 16.2685 4.10768
528 2 2.2208 2.45054 17.7899 5.40825
529 1 -1.1104 3.96052 13.4429 1.1882
531 1 -1.1104 3.9389 13.3054 4.08701
13373 2 2.2208 -0.303038 17.8855 8.27252
888 2 2.2208 5.21354 14.9052 -0.221842
527 2 2.2208 2.59322 11.8943 5.41806
13243 2 2.2208 -0.317288 15.0055 5.49239
890 2 2.2208 2.28158 11.8036 -0.281904
517 2 2.2208 5.38712 11.9187 2.38424
13682 2 2.2208 -0.492156 20.3941 -0.379557
891 2 2.2208 2.30892 17.6054 -0.085069
13498 2 2.2208 13.5914 17.5098 16.5211
521 1 -1.1104 6.81449 13.4303 3.95121
515 1 -1.1104 6.73691 13.3988 1.23078
510 1 -1.1104 6.67657 16.0521 1.35676
512 1 -1.1104 6.74424 16.1989 4.00596
533 2 2.2208 11.0098 14.7204 5.31965
535 1 -1.1104 12.3919 16.1323 1.33484
536 1 -1.1104 12.3696 16.2416 4.09339
537 1 -1.1104 12.3119 13.2566 1.11484
540 2 2.2208 11.0349 17.5901 2.52915
541 1 -1.1104 12.2588 13.4461 3.90026
543 1 -1.1104 9.37364 16.3054 1.18087
544 2 2.2208 8.27804 14.7998 2.63076
546 1 -1.1104 9.49612 16.1136 3.90908
548 2 2.2208 8.02591 17.5279 5.32006
549 1 -1.1104 9.52233 13.3056 1.27319
551 1 -1.1104 9.73337 13.3881 4.00779
547 2 2.2208 8.26043 12.1034 5.5487
539 2 2.2208 10.8418 11.892 2.54043
920 2 2.2208 8.18905 12.0249 -0.269432
918 2 2.2208 11.0321 14.8689 -0.258362
921 2 2.2208 7.98045 17.6401 -0.349957
508 2 2.2208 5.35239 20.4959 5.35526
514 1 -1.1104 1.10961 18.9431 1.11434
520 1 -1.1104 0.913173 19.2353 3.966
525 2 2.2208 2.51654 20.4472 2.53921
530 1 -1.1104 4.08642 19.1305 1.24703
532 1 -1.1104 3.69787 18.9526 3.87323
554 1 -1.1104 1.1278 21.7581 1.01084
558 1 -1.1104 1.15336 21.921 3.85739
566 2 2.2208 5.2249 23.2359 2.54739
572 1 -1.1104 3.75208 22.0375 1.15496
575 1 -1.1104 3.94535 21.6912 3.96914
577 2 2.2208 2.53908 23.37 5.43141
13496 2 2.2208 13.5777 20.4818 19.4821
13456 2 2.2208 -0.53157 28.9538 14.0056
13417 2 2.2208 13.6561 28.9059 11.079
678 1 -1.1104 3.81184 24.7743 6.89724
889 2 2.2208 5.33668 20.5769 -0.244375
943 2 2.2208 2.25054 23.2519 27.6618
516 1 -1.1104 6.74794 18.8948 1.07553
522 1 -1.1104 6.62613 19.1021 3.93807
560 1 -1.1104 6.81954 21.7445 3.9817
556 1 -1.1104 6.59296 21.7039 1.25332
534 2 2.2208 10.9372 20.5457 5.36898
538 1 -1.1104 12.6038 18.8974 1.07193
542 1 -1.1104 12.3462 18.9756 3.86387
545 2 2.2208 8.14399 20.3253 2.49508
550 1 -1.1104 9.56824 19.0037 1.08052
552 1 -1.1104 9.57145 18.9996 3.97192
585 1 -1.1104 12.3306 21.8523 1.23193
587 1 -1.1104 12.3914 21.8627 4.01026
591 2 2.2208 10.7989 23.2047 2.70177
595 1 -1.1104 9.48375 21.7939 1.1582
598 1 -1.1104 9.60283 21.8432 3.93585
600 2 2.2208 8.08779 23.3403 5.32329
589 1 -1.1104 12.411 24.4846 1.1019
647 1 -1.1104 9.44386 18.9946 6.84329
570 1 -1.1104 6.58182 24.5798 3.866
919 2 2.2208 10.8685 20.4089 -0.325615
985 2 2.2208 8.07393 23.1592 -0.272043
580 1 -1.1104 3.98743 24.7815 1.01604
562 1 -1.1104 1.20266 24.4106 1.09184
582 1 -1.1104 3.89582 24.4582 3.86214
568 1 -1.1104 1.16263 24.9022 3.76227
13457 2 2.2208 -0.348768 29.0443 8.06001
553 2 2.2208 5.2984 26.0693 5.27827
555 1 -1.1104 1.07574 27.4794 1.23694
559 1 -1.1104 1.26522 27.5139 4.03966
563 1 -1.1104 0.983148 30.2165 1.13919
567 2 2.2208 5.25593 28.9985 2.47321
569 1 -1.1104 0.990586 30.504 3.60602
573 1 -1.1104 3.99266 27.5736 1.0468
574 2 2.2208 2.65103 26.1838 2.31616
576 1 -1.1104 3.82927 27.4949 3.81139
579 2 2.2208 2.53188 28.8488 5.44962
581 1 -1.1104 3.95086 30.5566 0.974529
583 1 -1.1104 3.80329 30.2534 3.93142
13307 2 2.2208 -0.388363 28.8985 2.49639
13415 2 2.2208 13.6585 26.1939 8.20005
571 1 -1.1104 6.67721 30.3063 4.1276
942 2 2.2208 5.16876 26.0663 -0.445924
605 1 -1.1104 9.34501 24.5598 3.847
603 1 -1.1104 9.44626 24.5933 1.40074
714 1 -1.1104 12.3555 24.7456 6.964
564 1 -1.1104 6.48486 24.5809 0.971821
593 1 -1.1104 12.2199 24.636 4.13065
557 1 -1.1104 6.77237 27.4246 0.902157
565 1 -1.1104 6.97262 30.2773 1.32564
561 1 -1.1104 6.44747 27.4974 3.79322
584 2 2.2208 10.9458 26.1832 5.42078
586 1 -1.1104 12.266 27.4394 1.12114
588 1 -1.1104 12.2883 27.5848 3.93307
590 1 -1.1104 12.359 30.2739 1.3082
592 2 2.2208 11.0746 28.9345 2.6249
594 1 -1.1104 12.1203 30.4512 4.07459
596 1 -1.1104 9.51429 27.5994 1.19768
597 2 2.2208 8.07734 26.058 2.58553
599 1 -1.1104 9.55667 27.241 3.7916
602 2 2.2208 8.02469 29.0366 5.41837
604 1 -1.1104 9.67266 30.1694 0.903539
606 1 -1.1104 9.46063 30.1964 3.83056
601 2 2.2208 8.25281 28.7403 -0.366244
984 2 2.2208 10.8276 26.0007 -0.291769
613 1 -1.1104 4.01932 16.109 7.03182
607 1 -1.1104 1.35379 16.2511 6.90376
636 2 2.2208 2.38249 11.9622 11.022
614 1 -1.1104 3.63757 13.2159 6.97535
609 1 -1.1104 0.884704 13.583 7.00686
616 2 2.2208 5.15582 14.8428 11.2751
618 1 -1.1104 0.892913 16.2046 12.4878
620 1 -1.1104 0.904964 16.5004 9.63464
622 1 -1.1104 1.07492 13.3956 12.5596
627 2 2.2208 5.3633 17.493 8.17573
628 1 -1.1104 1.17973 13.5688 9.83855
632 1 -1.1104 3.82311 16.2705 12.5615
633 2 2.2208 2.50141 14.7339 8.33146
635 1 -1.1104 3.63829 16.2142 9.68578
637 2 2.2208 2.40766 17.6464 11.1351
638 1 -1.1104 3.89653 13.354 12.4088
640 1 -1.1104 4.19794 13.3629 9.71314
13621 2 2.2208 -0.322685 23.5113 13.7998
626 2 2.2208 5.34483 11.9146 8.4525
813 2 2.2208 13.5308 20.574 13.7636
619 1 -1.1104 6.47774 16.2137 12.7661
13537 2 2.2208 -0.380041 15.0059 16.714
643 1 -1.1104 12.6348 13.4497 6.74063
645 1 -1.1104 9.45925 16.3078 6.70035
608 1 -1.1104 6.86759 16.148 6.88067
662 2 2.2208 8.00553 12.2666 11.1298
611 1 -1.1104 6.70653 13.3172 7.00878
630 1 -1.1104 6.74954 13.3581 9.52985
621 1 -1.1104 6.59994 16.159 9.84919
642 1 -1.1104 12.247 16.3337 6.83498
624 1 -1.1104 6.82043 13.5276 12.5363
646 1 -1.1104 9.61722 13.2983 7.01088
648 2 2.2208 10.8518 14.8837 11.0331
650 1 -1.1104 12.185 16.3155 12.6034
651 1 -1.1104 12.4687 16.2515 9.67952
652 1 -1.1104 12.4858 13.4009 12.4357
655 2 2.2208 10.9547 17.7368 8.08004
656 1 -1.1104 12.3338 13.5361 9.64313
658 1 -1.1104 9.38196 16.2642 12.5723
659 2 2.2208 8.20357 14.6941 8.23902
661 1 -1.1104 9.51497 16.2705 9.673
663 2 2.2208 8.01661 17.6374 11.0888
664 1 -1.1104 9.44104 13.5957 12.6723
666 1 -1.1104 9.62167 13.535 9.81507
654 2 2.2208 11.0233 12.1325 8.32604
676 1 -1.1104 3.81766 21.9148 6.86595
615 1 -1.1104 4.07188 19.2082 6.90845
610 1 -1.1104 1.18325 18.9165 6.89924
668 1 -1.1104 0.922315 21.8107 6.63659
617 2 2.2208 5.12259 20.3487 11.0291
623 1 -1.1104 1.05171 19.128 12.4591
629 1 -1.1104 0.783618 19.2728 9.68988
634 2 2.2208 2.48006 20.3745 8.09497
639 1 -1.1104 3.7165 19.2254 12.5323
641 1 -1.1104 3.66792 19.0849 9.61077
681 1 -1.1104 0.810843 21.9979 12.3475
685 1 -1.1104 0.661679 21.9745 9.43838
693 2 2.2208 5.24358 23.2873 8.16328
700 1 -1.1104 3.75126 21.9527 12.2997
704 1 -1.1104 3.70739 21.9721 9.59008
706 2 2.2208 2.30159 23.4196 10.8107
13686 2 2.2208 -0.445598 14.6299 22.2889
708 1 -1.1104 3.75666 24.5848 12.2179
991 1 -1.1104 12.264 30.1045 23.6941
747 2 2.2208 2.29621 20.5673 13.764
612 1 -1.1104 6.84354 19.1846 6.61745
712 1 -1.1104 12.2829 22.0008 6.7484
674 1 -1.1104 6.4338 24.6848 6.66644
644 1 -1.1104 12.3234 19.1255 6.67668
716 1 -1.1104 9.5507 21.9548 6.76731
670 1 -1.1104 6.7002 21.9435 6.79092
631 1 -1.1104 6.74229 18.9434 9.67753
625 1 -1.1104 6.51664 18.9904 12.5338
683 1 -1.1104 6.58041 21.6565 12.5176
687 1 -1.1104 6.58922 21.7817 9.63062
649 2 2.2208 10.9693 20.4314 10.7643
653 1 -1.1104 12.2903 19.1476 12.2921
657 1 -1.1104 12.4719 19.1155 9.33979
660 2 2.2208 8.16554 20.415 7.95656
665 1 -1.1104 9.58217 19.0124 12.2422
667 1 -1.1104 9.58434 18.9755 9.42722
721 1 -1.1104 12.3054 21.9557 12.5307
723 1 -1.1104 12.3024 22.0567 9.65714
727 2 2.2208 10.8531 23.3037 8.05231
732 1 -1.1104 9.4596 21.7114 12.3092
736 1 -1.1104 9.41178 21.9829 9.40235
738 2 2.2208 7.96356 23.3813 10.7398
725 1 -1.1104 12.2173 24.923 12.3969
742 1 -1.1104 9.54705 24.7552 9.38717
672 1 -1.1104 1.00353 24.7084 6.50445
677 1 -1.1104 3.88765 27.4772 6.63793
679 1 -1.1104 3.94297 30.4901 6.84197
669 1 -1.1104 1.00379 27.6027 6.90851
696 1 -1.1104 0.950678 24.8108 9.23665
689 1 -1.1104 0.910629 24.8851 12.1191
673 1 -1.1104 0.89625 30.2994 6.33886
710 1 -1.1104 3.71646 24.7827 9.69577
680 2 2.2208 5.3118 26.2321 11.0038
682 1 -1.1104 0.913804 27.68 12.241
686 1 -1.1104 0.916738 27.795 9.5616
690 1 -1.1104 1.02945 30.2754 12.1609
694 2 2.2208 5.08992 29.129 8.11033
697 1 -1.1104 0.935184 30.5667 9.44452
701 1 -1.1104 3.90269 27.546 12.16
702 2 2.2208 2.35167 26.1776 8.07763
705 1 -1.1104 3.80262 27.7487 9.5087
707 2 2.2208 2.30477 29.1594 10.8049
709 1 -1.1104 3.77239 30.5187 12.5034
711 1 -1.1104 3.79708 30.6384 9.4379
695 2 2.2208 5.16034 28.9996 13.8037
13687 2 2.2208 -0.182395 14.7466 -0.151295
715 1 -1.1104 12.3179 30.4754 6.77089
719 1 -1.1104 9.47751 30.4554 6.72119
713 1 -1.1104 12.3818 27.5712 6.64332
718 1 -1.1104 9.20771 24.9238 6.51491
730 1 -1.1104 12.4154 24.8566 9.68007
675 1 -1.1104 6.69927 30.4693 7.09296
671 1 -1.1104 6.67766 27.6473 6.60264
691 1 -1.1104 6.52267 24.7867 12.3112
717 1 -1.1104 9.65449 27.6924 6.86722
698 1 -1.1104 6.71509 24.8252 9.35657
740 1 -1.1104 9.4638 24.855 12.4492
688 1 -1.1104 6.72086 27.7271 9.47161
699 1 -1.1104 6.23097 30.2849 9.64861
692 1 -1.1104 6.65915 30.3313 12.3805
684 1 -1.1104 6.58089 27.6885 12.4332
720 2 2.2208 10.7647 26.2348 10.8499
722 1 -1.1104 12.1871 27.6168 12.4886
724 1 -1.1104 12.429 27.6677 9.82872
726 1 -1.1104 12.2724 30.4718 12.2362
728 2 2.2208 10.9785 29.0081 8.12779
731 1 -1.1104 12.1354 30.4204 9.46916
733 1 -1.1104 9.4219 27.585 12.2622
734 2 2.2208 8.16935 26.1273 7.99852
737 1 -1.1104 9.54387 27.6007 9.41029
739 2 2.2208 7.86578 29.3436 10.8188
741 1 -1.1104 9.579 30.4956 12.3749
743 1 -1.1104 9.273 30.411 9.5731
746 2 2.2208 2.3549 14.8463 13.907
744 2 2.2208 5.27014 11.9347 14.0674