ITEM: TIMESTEP
60000
ITEM: NUMBER OF ATOMS
27000
ITEM: BOX BOUNDS pp pp pp
-4.4267221120822164e-01 2.7782672211208638e+01
-7.8828657102213944e+00 5.0000286571022804e+02
-4.3242611486804411e-01 2.7772426114867915e+01
ITEM: ATOMS id type q x y z
1 2 2.2208 5.3944 -2.154 5.49313
2 1 -1.1104 1.03736 -6.46118 1.16595
6 1 -1.1104 1.19471 -6.1205 3.96164
10 1 -1.1104 1.09879 -3.49651 1.10767
12 2 2.2208 5.2653 -4.79486 2.52334
14 1 -1.1104 1.08385 -3.44406 3.87215
16 1 -1.1104 3.89968 -6.2395 0.893637
18 2 2.2208 2.40499 -1.93873 2.45887
19 1 -1.1104 3.88041 -6.03049 3.91626
21 2 2.2208 2.55019 -4.68769 5.20761
23 1 -1.1104 3.8644 -3.38104 0.952192
24 1 -1.1104 3.85158 -3.40657 3.9099
392 2 2.2208 2.52887 -4.84301 -0.31126
106 1 -1.1104 1.04842 -3.51238 6.65191
391 2 2.2208 5.25715 -2.12077 -0.364936
12797 2 2.2208 -0.255986 -2.05586 11.0292
12691 2 2.2208 -0.356377 -2.16206 5.21398
12679 2 2.2208 -0.255809 -4.8186 2.74794
170 2 2.2208 10.9236 -7.61571 10.9369
13127 2 2.2208 -0.298472 -7.60387 -0.361712
310 2 2.2208 8.05179 -7.72722 19.5367
4 1 -1.1104 6.52591 -6.24821 0.994156
11 1 -1.1104 6.7141 -3.36092 1.29287
8 1 -1.1104 6.59435 -6.29856 3.87094
15 1 -1.1104 6.99345 -3.42333 4.01466
27 2 2.2208 11.096 -2.1833 5.54803
28 1 -1.1104 12.4357 -6.32194 1.26632
30 1 -1.1104 12.5762 -6.52378 4.11056
32 1 -1.1104 12.5029 -3.59321 1.04791
33 2 2.2208 11.089 -4.864 2.39409
35 1 -1.1104 12.5124 -3.74813 4.06906
36 1 -1.1104 9.51964 -6.13969 1.22924
38 2 2.2208 8.24056 -2.0204 2.77513
39 1 -1.1104 9.55757 -6.34014 4.04187
41 2 2.2208 8.36172 -4.81091 5.35306
43 1 -1.1104 9.53812 -3.33268 1.3695
44 1 -1.1104 9.6396 -3.52274 4.13986
422 2 2.2208 8.07483 -4.80681 -0.166963
421 2 2.2208 11.1303 -2.07422 -0.287367
168 2 2.2208 8.20524 -7.69684 8.03815
25 2 2.2208 2.53205 -7.7522 2.49226
13125 2 2.2208 -0.350486 -4.97477 25.1637
3 1 -1.1104 0.985815 -0.561905 1.01918
7 1 -1.1104 1.01261 -0.646234 3.86682
13 2 2.2208 5.29111 0.656882 2.57361
17 1 -1.1104 3.72902 -0.759407 1.14793
20 1 -1.1104 3.804 -0.637837 4.02316
22 2 2.2208 2.32991 0.814208 5.23424
49 2 2.2208 5.22125 3.53714 5.42019
59 1 -1.1104 0.946386 2.03313 1.1222
64 1 -1.1104 1.03434 2.16796 3.98727
70 2 2.2208 2.48628 3.52646 2.54597
75 1 -1.1104 3.76245 1.80746 1.2675
77 1 -1.1104 3.70574 2.17903 3.97233
68 1 -1.1104 4.07253 4.73364 1.24936
51 1 -1.1104 1.13482 4.87468 1.23061
72 1 -1.1104 4.0427 4.96092 3.98384
453 2 2.2208 5.25833 3.48942 -0.160324
55 1 -1.1104 1.18903 4.972 4.01626
103 1 -1.1104 1.02788 -0.497136 6.70463
66 1 -1.1104 6.75034 2.12089 4.06651
419 2 2.2208 2.43626 -7.7323 25.2396
109 1 -1.1104 3.83756 -0.591328 6.69738
45 2 2.2208 13.6269 0.816808 5.47307
393 2 2.2208 2.32659 0.765712 -0.298063
418 2 2.2208 5.13661 -7.65916 -0.305312
57 1 -1.1104 6.86321 4.94858 4.18691
53 1 -1.1104 6.69494 5.11709 1.06881
5 1 -1.1104 6.7714 -0.67311 1.0865
9 1 -1.1104 6.71693 -0.628845 3.93889
61 1 -1.1104 6.64918 2.08028 1.32444
29 1 -1.1104 12.2726 -0.685489 1.35482
31 1 -1.1104 12.5155 -0.798621 4.22213
34 2 2.2208 10.8577 0.69955 2.48491
37 1 -1.1104 9.64046 -0.636756 0.973116
40 1 -1.1104 9.69122 -0.860364 3.92613
42 2 2.2208 8.07672 0.739202 5.4004
79 2 2.2208 11.0483 3.45261 5.35862
85 1 -1.1104 12.1697 2.16435 1.2609
88 1 -1.1104 12.39 1.86735 4.01666
92 2 2.2208 8.14488 3.60748 2.59327
97 1 -1.1104 9.27434 2.12046 1.13578
99 1 -1.1104 9.4292 1.97361 3.92099
83 1 -1.1104 12.337 4.88629 4.06343
81 1 -1.1104 12.2356 5.04796 1.21185
90 1 -1.1104 9.44846 4.99353 1.25337
94 1 -1.1104 9.6106 4.91394 4.19465
423 2 2.2208 7.98795 0.618777 -0.1797
50 2 2.2208 5.16882 9.17296 5.36662
52 1 -1.1104 1.08609 10.4864 1.06101
56 1 -1.1104 0.864278 10.5543 3.91985
60 1 -1.1104 1.08524 7.76377 1.18346
63 2 2.2208 5.27711 6.3098 2.66565
65 1 -1.1104 0.954219 7.79682 3.92868
69 1 -1.1104 3.91681 10.3959 1.25802
71 2 2.2208 2.44323 9.07726 2.62785
73 1 -1.1104 3.6719 10.4268 4.10485
74 2 2.2208 2.37923 6.53464 5.45546
76 1 -1.1104 3.71159 7.38295 1.35098
78 1 -1.1104 3.63967 7.67732 4.0065
455 2 2.2208 2.47115 6.3852 -0.103487
13020 2 2.2208 -0.352775 6.37558 13.9468
311 2 2.2208 11.1094 -7.63501 16.5754
454 2 2.2208 5.24776 9.19254 -0.313322
13190 2 2.2208 -0.309138 9.23468 22.2441
62 1 -1.1104 6.5292 7.98062 1.30948
67 1 -1.1104 6.49441 7.61661 4.19354
54 1 -1.1104 6.58117 10.9076 0.810375
58 1 -1.1104 6.45468 10.3905 3.85208
80 2 2.2208 10.8784 9.2046 5.46041
82 1 -1.1104 12.2396 10.6126 0.96099
84 1 -1.1104 12.2742 10.497 4.06889
86 1 -1.1104 12.1995 7.84937 1.14122
87 2 2.2208 10.8537 6.32615 2.6699
89 1 -1.1104 12.3003 7.88223 3.94298
91 1 -1.1104 9.59959 10.3446 1.17983
93 2 2.2208 7.96461 9.21411 2.47223
95 1 -1.1104 9.27399 10.6627 3.97355
96 2 2.2208 8.20693 6.31238 5.43334
98 1 -1.1104 9.38705 7.56269 1.13984
100 1 -1.1104 9.57021 7.76475 4.02396
492 2 2.2208 10.8325 9.22922 -0.251163
174 1 -1.1104 6.41134 10.4898 6.81395
220 1 -1.1104 9.49083 7.69851 6.94513
178 1 -1.1104 6.69573 7.85544 6.75144
493 2 2.2208 7.94684 6.40181 -0.380854
110 1 -1.1104 3.868 -3.47127 6.66756
102 1 -1.1104 1.18451 -6.3147 6.77048
12976 2 2.2208 -0.479463 -4.88255 19.5479
13015 2 2.2208 13.6529 9.16199 14.0289
108 1 -1.1104 3.97432 -6.26563 6.64335
111 2 2.2208 5.22762 -2.10759 10.9734
112 1 -1.1104 1.17835 -6.24563 12.3608
116 1 -1.1104 0.88983 -6.10376 9.65313
120 1 -1.1104 1.28217 -3.3533 12.295
122 2 2.2208 5.35034 -5.08412 8.09738
125 1 -1.1104 1.169 -3.24012 9.57303
127 1 -1.1104 4.08658 -6.04491 12.3165
129 2 2.2208 2.55288 -1.99175 8.07652
131 1 -1.1104 3.63313 -6.2146 9.20544
133 2 2.2208 2.55067 -4.81792 10.8706
135 1 -1.1104 3.7913 -3.36393 12.4103
136 1 -1.1104 4.08441 -3.39868 9.4915
107 1 -1.1104 6.82881 -3.85005 6.84335
13155 2 2.2208 13.6033 9.22726 25.163
12733 2 2.2208 -0.144137 3.63343 5.53024
13017 2 2.2208 -0.421804 3.58405 16.772
144 1 -1.1104 9.66616 -3.4222 6.84947
139 1 -1.1104 12.6652 -6.43386 6.78634
48 2 2.2208 8.25376 -7.64026 2.43215
104 1 -1.1104 6.98295 -6.35252 6.56654
141 1 -1.1104 12.5218 -3.44073 6.83842
121 1 -1.1104 6.72322 -3.60219 12.6599
114 1 -1.1104 6.85106 -6.21614 12.3697
126 1 -1.1104 6.81089 -3.63004 9.56756
118 1 -1.1104 6.55148 -6.32608 9.54488
142 1 -1.1104 9.78761 -6.43432 6.71663
145 2 2.2208 10.8474 -2.06891 11.1834
146 1 -1.1104 12.5454 -6.20107 12.4629
148 1 -1.1104 12.31 -6.29311 9.58326
150 1 -1.1104 12.5195 -3.42554 12.3871
151 2 2.2208 11.1647 -4.81301 8.26043
154 1 -1.1104 12.3864 -3.45212 9.66423
155 1 -1.1104 9.65815 -6.35256 12.3312
157 2 2.2208 8.28681 -2.11483 8.27479
159 1 -1.1104 9.56344 -6.26955 9.33057
161 2 2.2208 8.11286 -4.93265 10.764
163 1 -1.1104 9.36043 -3.6355 12.3657
164 1 -1.1104 9.63423 -3.51128 9.69239
307 2 2.2208 13.5677 -2.12307 19.4816
181 1 -1.1104 3.88011 2.37158 6.72857
175 1 -1.1104 1.2705 2.37352 6.91853
179 1 -1.1104 3.93364 4.98446 6.70092
171 1 -1.1104 1.013 5.27833 6.95207
113 1 -1.1104 1.21762 -0.723641 12.5905
117 1 -1.1104 1.0741 -0.492499 9.79642
124 2 2.2208 5.38832 0.840309 8.36568
128 1 -1.1104 3.86807 -0.321292 12.3617
132 1 -1.1104 3.88316 -0.6678 9.34881
134 2 2.2208 2.4186 0.834264 11.2746
183 2 2.2208 5.17819 3.5407 11.0467
193 1 -1.1104 0.996999 2.11837 12.4726
198 1 -1.1104 1.03306 2.21773 9.83293
202 1 -1.1104 3.73382 4.988 12.4141
204 2 2.2208 2.44886 3.54511 8.33014
209 1 -1.1104 3.69376 2.38488 12.579
211 1 -1.1104 3.92117 2.12138 9.69941
206 1 -1.1104 3.86471 4.82205 9.38961
185 1 -1.1104 1.02695 4.92204 12.6756
189 1 -1.1104 1.06283 4.94052 10.0382
47 2 2.2208 10.9363 -7.67849 5.41864
213 1 -1.1104 12.3916 4.94284 6.61936
219 1 -1.1104 9.4721 1.97323 6.72071
173 1 -1.1104 6.77366 5.05085 6.91687
143 1 -1.1104 9.54463 -0.632597 6.87512
119 1 -1.1104 6.68386 -0.501443 9.90049
140 1 -1.1104 12.2492 -0.531236 6.95283
105 1 -1.1104 6.73444 -0.909016 6.88877
191 1 -1.1104 6.56351 5.10481 9.82165
195 1 -1.1104 6.5889 2.18948 12.6453
215 1 -1.1104 12.1461 2.21237 6.81141
177 1 -1.1104 6.66436 2.29104 6.87569
115 1 -1.1104 6.55377 -0.721953 12.5512
200 1 -1.1104 6.79285 2.31419 9.76048
187 1 -1.1104 6.62856 4.97168 12.4498
217 1 -1.1104 9.73276 4.99204 6.99568
147 1 -1.1104 12.1882 -0.616809 12.6132
149 1 -1.1104 12.2367 -0.839847 9.91993
153 2 2.2208 10.7767 0.770971 8.31981
156 1 -1.1104 9.33972 -0.807525 12.5793
160 1 -1.1104 9.47177 -0.649522 9.69099
162 2 2.2208 7.99777 0.732886 11.1718
221 2 2.2208 10.9407 3.69018 10.9931
227 1 -1.1104 12.4091 2.18838 12.5304
230 1 -1.1104 12.3974 2.28443 9.61869
234 2 2.2208 8.09348 3.69578 8.17536
239 1 -1.1104 9.65786 2.24232 12.3585
241 1 -1.1104 9.51701 2.15866 9.59993
236 1 -1.1104 9.39881 4.97038 9.76869
232 1 -1.1104 9.40258 5.06234 12.6195
225 1 -1.1104 12.2398 4.87045 9.61741
223 1 -1.1104 12.172 5.09018 12.4381
180 1 -1.1104 3.64045 10.732 6.77964
309 2 2.2208 13.6042 0.610325 16.7001
176 1 -1.1104 0.934564 8.16517 6.83137
172 1 -1.1104 0.779686 10.5895 6.82008
182 1 -1.1104 3.76527 7.67805 6.87425
184 2 2.2208 5.30423 9.30546 10.9529
186 1 -1.1104 0.999528 10.7296 12.4292
190 1 -1.1104 1.02393 10.8045 9.82926
194 1 -1.1104 1.48078 8.09949 12.3283
197 2 2.2208 5.19945 6.31916 8.05675
199 1 -1.1104 0.982292 7.86621 9.65992
203 1 -1.1104 3.96568 10.5742 12.4018
205 2 2.2208 2.46765 9.17802 8.18119
207 1 -1.1104 3.78713 10.6928 9.61971
208 2 2.2208 2.50549 6.43796 11.0422
210 1 -1.1104 4.11958 7.74404 12.5741
212 1 -1.1104 3.81979 7.77551 9.56628
196 1 -1.1104 6.93808 7.76288 12.588
13018 2 2.2208 -0.305938 9.24378 16.8709
214 1 -1.1104 12.1201 10.4529 6.92016
216 1 -1.1104 12.3211 7.57853 6.80633
218 1 -1.1104 9.4015 10.8972 7.09866
201 1 -1.1104 6.49668 7.70672 9.63936
188 1 -1.1104 6.61156 10.6569 12.3074
192 1 -1.1104 6.59357 10.4567 9.56707
222 2 2.2208 11.032 9.29532 11.1025
224 1 -1.1104 12.3449 10.5942 12.6216
226 1 -1.1104 12.4814 10.4532 9.63324
228 1 -1.1104 12.5102 7.76853 12.4454
229 2 2.2208 10.8432 6.37835 8.34548
231 1 -1.1104 12.1019 7.90561 9.59622
233 1 -1.1104 9.60094 10.8457 12.2712
235 2 2.2208 8.13268 9.18533 8.23367
237 1 -1.1104 9.59775 10.755 9.75665
238 2 2.2208 7.99062 6.35958 11.0865
240 1 -1.1104 9.8635 7.86664 12.4524
242 1 -1.1104 9.34154 7.81644 9.65905
130 2 2.2208 2.47524 -2.05831 13.8424
276 2 2.2208 2.40994 -7.52008 13.7961
123 2 2.2208 5.23466 -4.78938 13.8324
246 2 2.2208 5.02337 -2.06866 16.6719
247 1 -1.1104 0.916665 -6.20287 18.0818
250 1 -1.1104 1.21754 -6.18582 15.2655
257 1 -1.1104 0.833508 -3.60321 18.0597
259 2 2.2208 5.32107 -4.96258 19.5427
261 1 -1.1104 0.900052 -3.40023 15.1881
264 1 -1.1104 3.93648 -6.14327 18.1329
266 2 2.2208 2.22978 -2.23937 19.5005
267 1 -1.1104 3.95115 -6.22713 15.4366
271 2 2.2208 2.52357 -4.93115 16.6973
273 1 -1.1104 3.64737 -3.38578 18.0335
274 1 -1.1104 3.76018 -3.50157 15.2076
268 1 -1.1104 3.86685 -6.22986 21.0267
137 2 2.2208 5.39524 -7.67074 11.082
12947 2 2.2208 -0.445217 -1.96095 16.6903
499 1 -1.1104 12.2649 10.6587 26.4101
152 2 2.2208 10.9859 -4.82077 13.8213
158 2 2.2208 7.90766 -2.13711 13.9719
263 1 -1.1104 6.7059 -3.35356 15.3851
254 1 -1.1104 6.72568 -6.32416 15.2856
258 1 -1.1104 6.68516 -3.31383 17.9902
280 1 -1.1104 6.71659 -6.26943 18.1384
283 2 2.2208 10.8245 -2.14667 16.6501
284 1 -1.1104 12.3845 -6.14023 18.095
286 1 -1.1104 12.422 -6.51263 15.1641
290 1 -1.1104 12.3253 -3.39603 17.9071
291 2 2.2208 10.8679 -4.87119 19.6818
293 1 -1.1104 12.3001 -3.36485 15.0633
295 1 -1.1104 9.62178 -6.02346 18.0512
297 2 2.2208 7.94278 -2.09488 19.5994
298 1 -1.1104 9.6595 -6.28512 15.1968
302 2 2.2208 8.12471 -4.8483 16.7088
304 1 -1.1104 9.46084 -3.34351 18.2541
305 1 -1.1104 9.45724 -3.48142 15.3078
282 1 -1.1104 6.53733 -3.58607 20.8863
277 2 2.2208 2.4496 -7.70509 19.6643
278 2 2.2208 5.346 -7.58861 16.6473
245 2 2.2208 5.2057 0.906824 13.9879
506 2 2.2208 13.5723 6.45753 -0.144633
313 2 2.2208 2.20363 3.67782 13.8925
248 1 -1.1104 0.823213 -0.755631 18.1266
252 1 -1.1104 0.80867 -0.832116 15.1974
260 2 2.2208 5.05809 0.594792 19.3767
265 1 -1.1104 3.70632 -0.533544 18.0216
269 1 -1.1104 3.84166 -0.575162 15.3125
272 2 2.2208 2.44996 0.648792 16.6762
315 2 2.2208 5.22109 3.65714 16.8193
329 1 -1.1104 1.15713 2.02883 18.0422
334 1 -1.1104 0.983027 2.25841 15.347
344 2 2.2208 2.38627 3.4182 19.4706
351 1 -1.1104 3.84777 2.11721 18.2026
353 1 -1.1104 3.95791 2.25439 15.4305
321 1 -1.1104 0.961447 4.96545 15.3601
346 1 -1.1104 3.4941 5.08413 15.2802
317 1 -1.1104 0.66546 5.01995 18.1688
342 1 -1.1104 3.71824 4.90744 18.0427
169 2 2.2208 8.19342 -7.62345 13.73
358 2 2.2208 8.24628 3.61489 13.8477
279 2 2.2208 10.9081 0.669708 13.8408
325 1 -1.1104 6.61302 5.15379 15.3761
331 1 -1.1104 6.58978 2.0193 17.9022
249 1 -1.1104 6.52068 -0.853658 17.9262
338 1 -1.1104 6.77733 2.51685 15.2541
319 1 -1.1104 6.51952 4.77953 18.2061
255 1 -1.1104 6.51634 -0.506836 15.1099
285 1 -1.1104 12.3052 -0.693746 18.2049
288 1 -1.1104 12.2038 -0.622925 15.3401
292 2 2.2208 10.7844 0.594096 19.4288
296 1 -1.1104 9.49541 -0.731345 17.9426
300 1 -1.1104 9.38218 -0.699956 15.2392
303 2 2.2208 7.89186 0.664354 16.6036
360 2 2.2208 10.8312 3.47286 16.8106
364 1 -1.1104 12.5289 4.89509 15.2472
368 1 -1.1104 12.1614 1.93606 18.1124
371 1 -1.1104 12.3256 2.17373 15.4145
377 2 2.2208 7.97484 3.35899 19.5494
384 1 -1.1104 9.33377 1.97762 17.7689
386 1 -1.1104 9.6021 2.33509 15.1612
375 1 -1.1104 9.45783 4.83976 18.3535
379 1 -1.1104 9.66707 5.01752 15.3432
362 1 -1.1104 12.2444 4.87127 17.9869
301 1 -1.1104 9.16817 -0.776785 20.8867
312 2 2.2208 5.46088 6.31721 13.8215
12730 2 2.2208 13.5392 9.22822 2.32497
478 1 -1.1104 6.46617 7.50752 26.5937
314 2 2.2208 2.54575 9.3417 13.8578
316 2 2.2208 5.36213 9.24619 16.7059
318 1 -1.1104 1.17037 10.4638 18.1751
323 1 -1.1104 1.25721 10.7917 15.2716
330 1 -1.1104 1.15291 7.85483 18.1718
333 2 2.2208 5.19413 6.16134 19.619
336 1 -1.1104 1.05291 8.17607 15.3643
343 1 -1.1104 3.89156 10.7469 18.1615
345 2 2.2208 2.65945 9.12996 19.4373
348 1 -1.1104 4.21275 10.4541 15.1376
350 2 2.2208 2.4425 6.42216 16.777
352 1 -1.1104 3.92744 7.69545 18.2372
355 1 -1.1104 4.02784 7.86837 15.4519
382 1 -1.1104 9.54066 10.4767 20.8048
357 2 2.2208 10.9606 6.40955 14.0436
359 2 2.2208 8.19329 9.18128 13.7979
340 1 -1.1104 6.75125 7.93029 15.318
327 1 -1.1104 6.91693 10.5513 15.2312
320 1 -1.1104 6.80878 10.5084 18.2441
332 1 -1.1104 6.54265 7.8291 18.2555
361 2 2.2208 10.7947 9.24198 16.6777
363 1 -1.1104 12.2913 10.3899 17.8737
366 1 -1.1104 12.2501 10.759 15.3051
369 1 -1.1104 12.1541 7.7377 18.0097
370 2 2.2208 10.8039 6.29908 19.5487
373 1 -1.1104 12.268 7.75499 15.2589
376 1 -1.1104 9.49567 10.6044 18.0072
378 2 2.2208 8.1826 9.11048 19.5124
381 1 -1.1104 9.62129 10.6009 15.0054
383 2 2.2208 7.97667 6.34043 16.6974
385 1 -1.1104 9.26632 7.78707 17.9815
388 1 -1.1104 9.53397 7.64602 15.2408
485 1 -1.1104 9.28372 10.6366 26.5734
417 2 2.2208 -0.42366 -7.7025 22.2754
262 1 -1.1104 0.810875 -3.4151 21.1045
13091 2 2.2208 13.5053 -5.03485 22.4234
251 1 -1.1104 0.879575 -6.15749 21.0624
275 1 -1.1104 3.573 -3.59306 21.0631
394 2 2.2208 5.24164 -2.15124 22.353
395 1 -1.1104 1.25378 -6.32905 23.9409
399 1 -1.1104 0.952594 -6.34169 26.4634
403 1 -1.1104 1.00801 -3.37287 23.6622
404 2 2.2208 5.30856 -5.1218 25.2505
406 1 -1.1104 0.99776 -3.51424 26.7337
408 1 -1.1104 3.95306 -6.41613 23.872
410 2 2.2208 2.36892 -2.1995 25.3312
411 1 -1.1104 3.81487 -6.56341 26.6937
413 2 2.2208 2.41252 -4.76754 22.5686
415 1 -1.1104 4.00775 -3.72898 23.7756
416 1 -1.1104 3.82143 -3.53983 26.5579
281 1 -1.1104 6.82307 -6.35983 21.0401
487 2 2.2208 8.00798 9.09444 25.0072
287 1 -1.1104 12.4644 -6.55118 20.8563
401 1 -1.1104 6.8059 -6.2803 26.7138
397 1 -1.1104 6.76349 -6.36737 23.7962
424 1 -1.1104 6.8334 -3.64056 23.8769
294 1 -1.1104 12.3517 -3.45436 20.919
407 1 -1.1104 6.87584 -3.52351 26.5916
306 1 -1.1104 9.57118 -3.58496 21.0658
299 1 -1.1104 9.62701 -6.46394 20.9788
425 2 2.2208 10.8354 -2.08081 22.3546
426 1 -1.1104 12.3893 -6.53818 23.4777
428 1 -1.1104 12.2589 -6.1331 26.7306
430 1 -1.1104 12.283 -3.72392 23.7727
431 2 2.2208 10.7841 -5.06649 25.1269
433 1 -1.1104 12.3105 -3.56084 26.452
434 1 -1.1104 9.44506 -6.29943 23.8824
436 2 2.2208 8.19997 -2.07971 25.2538
437 1 -1.1104 9.58032 -6.3755 26.7066
439 2 2.2208 8.04811 -4.96995 22.5532
441 1 -1.1104 9.48638 -3.55321 23.8595
442 1 -1.1104 9.4871 -3.43168 26.5328
484 2 2.2208 7.94119 6.2165 22.3116
12829 2 2.2208 -0.275805 -4.79991 13.7983
13124 2 2.2208 -0.525698 0.90278 25.0569
335 1 -1.1104 0.79855 2.27496 20.9886
253 1 -1.1104 0.778399 -0.749312 20.9599
354 1 -1.1104 3.39071 1.87212 20.9114
270 1 -1.1104 3.73432 -0.72656 21.1148
347 1 -1.1104 3.87082 4.79561 21.0055
322 1 -1.1104 0.970839 4.94841 20.8565
400 1 -1.1104 1.0296 -0.867332 26.5401
396 1 -1.1104 0.540838 -0.581268 23.7166
405 2 2.2208 5.32577 0.478332 25.1179
409 1 -1.1104 3.55003 -0.775073 23.7677
412 1 -1.1104 3.6734 -0.719557 26.6385
414 2 2.2208 2.31343 0.637302 22.4919
448 1 -1.1104 0.759644 2.03795 26.4735
457 1 -1.1104 0.876283 2.22553 23.6269
464 1 -1.1104 3.83481 2.07208 26.6042
469 1 -1.1104 3.9765 2.0605 23.6188
472 1 -1.1104 3.92108 5.10386 26.6442
475 2 2.2208 2.57119 3.53886 25.2063
477 2 2.2208 5.09798 3.36723 22.3647
461 1 -1.1104 1.02985 4.92557 26.6401
468 1 -1.1104 1.09054 4.95423 23.8372
479 1 -1.1104 3.80973 4.75642 23.7733
12699 2 2.2208 -0.29114 -7.50982 5.53796
339 1 -1.1104 6.37866 1.83247 20.6093
326 1 -1.1104 6.61703 4.80419 21.0717
372 1 -1.1104 12.2015 1.90788 21.116
452 1 -1.1104 6.56979 1.92781 23.8083
459 1 -1.1104 6.61927 4.6787 26.4687
491 2 2.2208 10.5853 3.6005 -0.158022
387 1 -1.1104 9.22653 2.00243 20.9126
365 1 -1.1104 12.1536 4.6777 20.8287
466 1 -1.1104 6.63819 4.68157 23.6131
256 1 -1.1104 6.41235 -0.946674 20.8125
289 1 -1.1104 12.1965 -0.761596 20.9229
450 1 -1.1104 6.66539 2.05766 26.7006
402 1 -1.1104 6.80114 -0.559279 26.5162
398 1 -1.1104 6.42103 -0.879743 23.7518
500 1 -1.1104 12.1143 4.83042 26.4385
380 1 -1.1104 9.39177 5.02701 20.9449
490 1 -1.1104 9.47481 4.86033 23.8024
504 2 2.2208 10.6855 3.46678 22.3972
502 1 -1.1104 12.1597 4.7363 23.6971
498 1 -1.1104 12.5815 1.83325 23.9943
427 1 -1.1104 12.2075 -0.908412 23.8317
429 1 -1.1104 12.4236 -0.765057 26.6299
432 2 2.2208 10.8757 0.656135 25.1734
435 1 -1.1104 9.36291 -0.667591 23.6745
438 1 -1.1104 9.53078 -0.533991 26.5176
440 2 2.2208 7.94573 0.623817 22.2052
481 1 -1.1104 9.50134 2.21521 26.6789
483 1 -1.1104 9.58662 1.89923 23.7563
488 2 2.2208 7.92064 3.49432 25.2754
495 1 -1.1104 12.3047 1.97978 26.5467
486 1 -1.1104 9.32006 5.03118 26.5886
328 1 -1.1104 6.50165 10.6758 20.8396
13157 2 2.2208 -0.340732 6.43059 25.3013
356 1 -1.1104 3.87407 7.48255 21.0955
324 1 -1.1104 1.10314 10.3903 20.8857
337 1 -1.1104 1.26319 7.7175 20.7513
349 1 -1.1104 4.01301 10.3127 20.8204
470 2 2.2208 2.41613 6.2503 22.3568
476 1 -1.1104 3.55546 10.5507 23.6682
474 2 2.2208 5.29792 9.06703 22.3328
473 2 2.2208 2.46622 9.1306 25.219
471 1 -1.1104 3.76568 10.7692 26.5519
447 1 -1.1104 1.0443 7.70404 26.5942
449 2 2.2208 5.21937 6.33762 24.9778
456 1 -1.1104 0.983202 7.7667 23.683
460 1 -1.1104 1.15209 10.5699 26.4991
462 1 -1.1104 3.82573 7.74159 26.7491
465 1 -1.1104 3.91551 7.8926 23.7697
467 1 -1.1104 1.02956 10.4652 23.6701
12831 2 2.2208 -0.319087 0.904194 8.24823
489 1 -1.1104 9.54556 10.5131 23.7961
501 1 -1.1104 12.2488 10.6586 23.7942
480 1 -1.1104 9.15243 7.91939 26.5859
503 2 2.2208 10.8538 9.21165 22.345
389 1 -1.1104 9.57819 7.74134 21.0305
374 1 -1.1104 12.3316 7.58768 20.9377
367 1 -1.1104 12.2433 10.5441 20.9404
496 2 2.2208 10.6065 6.3468 25.152
341 1 -1.1104 6.77789 7.79239 21.0034
494 1 -1.1104 11.9887 7.98044 26.4651
451 1 -1.1104 6.748 7.51639 23.6576
463 1 -1.1104 6.49598 10.2022 23.7857
482 1 -1.1104 9.3787 7.7403 23.785
497 1 -1.1104 12.1158 7.71521 23.8723
458 1 -1.1104 6.59464 10.4615 26.3058
445 2 2.2208 8.19404 -7.87364 25.3107
12975 2 2.2208 -0.452755 0.684533 13.7979
444 2 2.2208 11.0179 -7.78548 -0.129776
138 2 2.2208 2.5561 -7.78923 7.95302
12830 2 2.2208 -0.195417 -4.64231 8.13636
13154 2 2.2208 13.5133 6.29345 22.3685
12832 2 2.2208 -0.185944 -7.55944 10.9588
244 2 2.2208 13.6585 3.53764 8.19246
243 2 2.2208 13.5017 6.3691 11.0128
12678 2 2.2208 -0.408467 0.684525 2.48643
390 2 2.2208 13.6002 3.60602 13.754
13191 2 2.2208 -0.368826 9.09344 -0.271659
12946 2 2.2208 -0.319713 0.772227 19.5076
13101 2 2.2208 -0.388086 -2.11403 -0.280239
446 2 2.2208 10.8689 -7.84199 22.2886
26 2 2.2208 5.52076 -7.70591 5.35696
507 2 2.2208 5.18055 14.8595 5.47776
509 1 -1.1104 1.1547 16.2633 1.10543
511 1 -1.1104 1.17876 16.2812 3.92107
513 1 -1.1104 0.942274 13.3459 1.23806
518 2 2.2208 5.29622 17.3818 2.47646
519 1 -1.1104 0.981766 13.568 4.04877
523 1 -1.1104 3.93218 16.1225 0.96251
524 2 2.2208 2.43646 14.5753 2.54657
526 1 -1.1104 4.01936 15.9131 3.81085
528 2 2.2208 2.44535 17.6149 5.23515
529 1 -1.1104 3.79627 13.3107 1.04663
531 1 -1.1104 3.81309 13.425 3.96651
517 2 2.2208 5.12057 12.0769 2.66064
891 2 2.2208 2.46007 17.6069 -0.339596
888 2 2.2208 5.27018 14.7492 -0.298818
890 2 2.2208 2.40547 12.0857 -0.375528
13685 2 2.2208 -0.371045 12.0502 25.1029
527 2 2.2208 2.24486 11.9491 5.45798
13653 2 2.2208 13.7796 17.7714 22.156
13687 2 2.2208 -0.441609 14.9262 -0.194908
13498 2 2.2208 13.5999 17.4896 16.7339
510 1 -1.1104 6.71986 16.1536 1.0657
512 1 -1.1104 6.67616 16.1607 3.97109
521 1 -1.1104 6.59254 13.298 4.05958
515 1 -1.1104 6.57904 13.4251 1.29342
533 2 2.2208 10.8171 14.7212 5.38622
535 1 -1.1104 12.162 16.3193 1.00567
536 1 -1.1104 12.2187 16.2782 3.81874
537 1 -1.1104 12.0432 13.3119 1.16076
540 2 2.2208 10.6642 17.5919 2.43929
541 1 -1.1104 12.4004 13.5268 3.94299
543 1 -1.1104 9.37448 16.1152 1.08485
544 2 2.2208 7.97569 14.6894 2.65719
546 1 -1.1104 9.36849 16.2686 3.97974
548 2 2.2208 8.04264 17.6163 5.5149
549 1 -1.1104 9.24846 13.2838 1.16985
551 1 -1.1104 9.44224 13.3349 3.98256
918 2 2.2208 10.8293 14.7414 -0.223845
539 2 2.2208 10.86 11.9466 2.58396
920 2 2.2208 7.92353 12.0686 -0.350331
921 2 2.2208 7.96078 17.6506 -0.321917
547 2 2.2208 8.07094 11.9702 5.27181
13245 2 2.2208 -0.388873 12.0675 2.45922
13374 2 2.2208 -0.226894 14.899 10.8542
508 2 2.2208 5.2778 20.4867 5.4122
514 1 -1.1104 1.17677 19.1072 1.14143
520 1 -1.1104 1.12969 18.9725 4.01608
525 2 2.2208 2.37336 20.3388 2.51107
530 1 -1.1104 3.85712 18.8247 1.02576
532 1 -1.1104 3.75617 18.9971 3.94198
554 1 -1.1104 0.986393 21.7617 0.961626
558 1 -1.1104 0.736706 21.7647 3.8803
566 2 2.2208 5.14552 23.1791 2.38463
572 1 -1.1104 3.83547 21.6156 1.12151
575 1 -1.1104 3.85686 21.9219 3.86931
577 2 2.2208 2.34146 23.2462 5.4307
568 1 -1.1104 0.739786 24.5273 3.91347
562 1 -1.1104 0.816855 24.5268 1.04555
582 1 -1.1104 3.57249 24.8279 4.1007
993 1 -1.1104 12.4138 27.4655 26.5311
522 1 -1.1104 6.35218 18.8985 3.96609
580 1 -1.1104 3.69987 24.4814 1.31973
889 2 2.2208 5.30592 20.4158 27.8603
564 1 -1.1104 6.6262 24.6622 1.12649
610 1 -1.1104 0.842076 19.18 6.75857
943 2 2.2208 2.45731 23.1254 -0.384214
13618 2 2.2208 -0.340807 28.8621 19.3351
516 1 -1.1104 6.67599 19.1193 1.10606
570 1 -1.1104 6.41786 24.4803 3.59449
560 1 -1.1104 6.46614 21.6717 3.97664
556 1 -1.1104 6.58188 21.9171 0.916873
534 2 2.2208 10.7681 20.5578 5.27116
538 1 -1.1104 12.2941 19.187 0.713807
542 1 -1.1104 12.1266 18.993 3.68734
545 2 2.2208 7.94862 20.5896 2.42465
550 1 -1.1104 9.22903 19.1175 0.932986
552 1 -1.1104 9.15353 19.2451 3.89559
585 1 -1.1104 12.0956 21.8447 0.974146
587 1 -1.1104 12.0851 21.9065 3.9276
591 2 2.2208 10.8341 23.3214 2.43403
595 1 -1.1104 9.27045 21.8542 1.00094
598 1 -1.1104 9.46109 22.0844 3.7583
600 2 2.2208 7.82926 23.4494 5.112
603 1 -1.1104 9.72132 24.7838 1.05897
593 1 -1.1104 12.2113 24.9395 3.83473
589 1 -1.1104 12.4148 24.4549 1.0741
919 2 2.2208 10.6894 20.5687 27.7194
712 1 -1.1104 12.1895 21.7227 6.63555
985 2 2.2208 7.92022 23.351 27.7734
13496 2 2.2208 13.5279 20.5709 19.3381
553 2 2.2208 5.25917 26.0828 5.1224
555 1 -1.1104 0.983955 27.4674 1.25828
559 1 -1.1104 0.799914 27.3735 4.04019
563 1 -1.1104 1.13947 30.1737 1.12837
567 2 2.2208 5.19158 29.0222 2.48201
569 1 -1.1104 1.00745 30.5805 3.7571
573 1 -1.1104 4.06685 27.2786 1.09188
574 2 2.2208 2.19746 25.8487 2.53509
576 1 -1.1104 3.76738 27.6054 3.73536
579 2 2.2208 2.23272 28.8659 5.34497
581 1 -1.1104 3.69987 30.2956 0.766233
583 1 -1.1104 3.76923 30.3737 3.80774
942 2 2.2208 5.39419 26.3323 -0.325192
578 2 2.2208 2.5249 28.9922 27.7124
565 1 -1.1104 6.54866 30.3714 1.17246
571 1 -1.1104 6.4929 30.2548 3.73367
561 1 -1.1104 6.77758 27.2878 3.90715
557 1 -1.1104 6.87374 27.5977 1.3094
679 1 -1.1104 3.60351 30.3835 6.49892
13751 2 2.2208 -0.368932 25.9907 22.1627
13273 2 2.2208 13.6923 26.0706 2.37766
605 1 -1.1104 9.23128 24.737 3.93186
584 2 2.2208 10.6599 26.1156 5.19557
586 1 -1.1104 12.1999 27.481 0.999723
588 1 -1.1104 12.3087 27.5127 3.72248
590 1 -1.1104 12.3152 30.3578 1.10803
592 2 2.2208 10.865 28.9578 2.50018
594 1 -1.1104 12.0749 30.2581 3.93402
596 1 -1.1104 9.62017 27.4679 1.02898
597 2 2.2208 8.16265 26.0755 2.19078
599 1 -1.1104 9.46382 27.6655 3.91961
602 2 2.2208 7.90212 28.7407 5.2647
604 1 -1.1104 9.49126 30.5977 1.07301
606 1 -1.1104 9.29714 30.4595 4.08296
601 2 2.2208 8.28131 29.0179 -0.31033
984 2 2.2208 10.9231 26.1445 27.6813
717 1 -1.1104 9.37956 27.4931 6.79146
626 2 2.2208 5.15819 11.9393 8.14658
13220 2 2.2208 13.5455 17.5849 5.0832
607 1 -1.1104 0.829917 16.2555 6.55859
613 1 -1.1104 3.74027 16.2193 6.62901
614 1 -1.1104 3.51523 13.4954 6.46769
609 1 -1.1104 0.878261 13.5961 6.87047
616 2 2.2208 5.31138 14.7566 11.0168
618 1 -1.1104 0.996527 16.0806 12.2229
620 1 -1.1104 1.1281 16.4085 9.27059
622 1 -1.1104 0.890633 13.4381 12.2922
627 2 2.2208 5.05601 17.6843 8.02598
628 1 -1.1104 1.20363 13.4737 9.46772
632 1 -1.1104 3.88902 16.2676 12.2587
633 2 2.2208 2.44342 14.7541 8.17076
635 1 -1.1104 3.93279 16.2285 9.36993
637 2 2.2208 2.34919 17.625 10.9431
638 1 -1.1104 3.92138 13.2406 12.5208
640 1 -1.1104 3.94918 13.4144 9.49836
991 1 -1.1104 12.6031 30.2115 23.6471
611 1 -1.1104 6.62129 13.2576 6.72452
636 2 2.2208 2.50425 11.85 11.1534
13459 2 2.2208 -0.48559 26.2274 10.7996
608 1 -1.1104 6.64585 16.3368 6.97783
646 1 -1.1104 9.49192 13.4956 6.85702
662 2 2.2208 8.1129 12.192 11.0263
645 1 -1.1104 9.37918 16.1405 6.5169
642 1 -1.1104 12.0745 16.2124 6.52473
624 1 -1.1104 6.59376 13.5922 12.433
619 1 -1.1104 6.59953 16.416 12.4615
630 1 -1.1104 6.72392 13.3474 9.53138
621 1 -1.1104 6.66795 16.0626 9.78799
643 1 -1.1104 12.3303 13.2407 6.66696
648 2 2.2208 10.8561 14.933 10.9492
650 1 -1.1104 12.3658 16.4541 12.3016
651 1 -1.1104 12.4679 16.2202 9.55287
652 1 -1.1104 12.4088 13.5596 12.4253
655 2 2.2208 10.6683 17.6647 7.94342
656 1 -1.1104 12.3323 13.5134 9.34094
658 1 -1.1104 9.44335 16.3708 12.3691
659 2 2.2208 8.00364 14.7626 8.14397
661 1 -1.1104 9.60531 16.1077 9.35492
663 2 2.2208 8.01018 17.6651 10.9243
664 1 -1.1104 9.41994 13.6844 12.172
666 1 -1.1104 9.55921 13.5056 9.51145
654 2 2.2208 10.8892 12.053 8.37701
989 2 2.2208 11.236 28.9899 24.9574
615 1 -1.1104 3.66771 19.0912 6.7863
672 1 -1.1104 0.999116 24.5034 6.91887
668 1 -1.1104 0.903665 21.9576 6.79344
676 1 -1.1104 3.73978 21.8215 6.9318
617 2 2.2208 5.22908 20.3991 11.011
623 1 -1.1104 1.19122 19.0259 12.1567
629 1 -1.1104 0.817378 19.1199 9.63757
634 2 2.2208 2.25769 20.5884 8.191
639 1 -1.1104 3.78386 19.0575 12.3761
641 1 -1.1104 3.78645 18.7759 9.59208
681 1 -1.1104 0.893043 21.782 12.5268
685 1 -1.1104 0.93188 21.8317 9.81758
693 2 2.2208 5.18919 23.4177 8.36312
700 1 -1.1104 3.70967 21.8836 12.353
704 1 -1.1104 3.69626 21.8502 9.64031
706 2 2.2208 2.31291 23.3173 11.2139
689 1 -1.1104 0.992036 24.6815 12.5746
696 1 -1.1104 1.01735 24.7108 9.82196
710 1 -1.1104 3.83971 24.6723 9.63616
708 1 -1.1104 3.81509 24.6096 12.3963
670 1 -1.1104 6.66027 21.9219 6.77924
716 1 -1.1104 9.37068 21.9769 6.55155
674 1 -1.1104 6.65376 24.7457 6.58081
612 1 -1.1104 6.57695 19.0949 6.73372
647 1 -1.1104 9.33978 19.0517 6.83282
644 1 -1.1104 12.127 19.0402 6.59219
687 1 -1.1104 6.48303 21.664 9.59486
625 1 -1.1104 6.75995 19.0982 12.4938
683 1 -1.1104 6.60806 22.087 12.3955
631 1 -1.1104 6.62266 18.9506 9.45749
649 2 2.2208 10.9821 20.3409 10.858
653 1 -1.1104 12.3365 19.1356 12.2055
657 1 -1.1104 12.0848 19.1597 9.46547
660 2 2.2208 8.02806 20.4683 8.04196
665 1 -1.1104 9.60167 19.338 12.3284
667 1 -1.1104 9.32073 18.8423 9.68291
721 1 -1.1104 12.2752 21.9097 12.3616
723 1 -1.1104 12.3228 21.9955 9.50876
727 2 2.2208 10.6724 23.322 7.89757
732 1 -1.1104 9.2868 21.8963 12.1284
736 1 -1.1104 9.47814 21.81 9.31945
738 2 2.2208 8.18269 23.2353 10.8874
740 1 -1.1104 9.39355 24.6952 12.3782
742 1 -1.1104 9.43349 24.7291 9.52721
730 1 -1.1104 12.271 24.7741 9.83878
725 1 -1.1104 12.1033 24.6703 12.3597
677 1 -1.1104 3.78256 27.6002 6.51264
678 1 -1.1104 3.99532 24.7363 6.78445
698 1 -1.1104 6.84216 24.3897 9.51331
673 1 -1.1104 0.668707 30.4304 6.65171
669 1 -1.1104 0.826533 27.4962 6.84043
680 2 2.2208 5.07252 25.8752 10.9767
682 1 -1.1104 0.849012 27.3928 12.4236
686 1 -1.1104 0.850093 27.4708 9.55495
690 1 -1.1104 0.786492 30.1174 12.1466
694 2 2.2208 5.2558 28.7669 8.13671
697 1 -1.1104 0.743496 30.4015 9.31097
701 1 -1.1104 3.79551 27.4273 12.2769
702 2 2.2208 2.13451 26.0879 8.06203
705 1 -1.1104 3.68196 27.2958 9.38086
707 2 2.2208 2.32558 28.798 10.785
709 1 -1.1104 3.57725 30.3 12.145
711 1 -1.1104 3.70673 30.2041 9.43669
675 1 -1.1104 6.48409 30.2663 6.65791
692 1 -1.1104 6.57724 30.6682 12.3568
699 1 -1.1104 6.50661 30.3238 9.39743
841 1 -1.1104 6.70399 30.329 21.0626
713 1 -1.1104 12.0622 27.5879 6.52732
714 1 -1.1104 12.0926 24.7135 6.88865
718 1 -1.1104 9.36706 24.7132 6.56444
691 1 -1.1104 6.60131 24.8233 12.3079
715 1 -1.1104 12.1204 30.3477 6.70362
671 1 -1.1104 6.59247 27.6079 6.81572
719 1 -1.1104 9.26062 30.1964 6.80386
684 1 -1.1104 6.69026 27.8735 12.3597
688 1 -1.1104 6.54415 27.1868 9.58796
720 2 2.2208 10.8954 26.2001 10.8904
722 1 -1.1104 12.2826 27.3952 12.2287
724 1 -1.1104 12.2854 27.5119 9.3403
726 1 -1.1104 12.084 30.3052 12.4527
728 2 2.2208 10.8888 28.9562 7.98468
731 1 -1.1104 12.2124 30.1631 9.59467
733 1 -1.1104 9.42972 27.4385 12.2265
734 2 2.2208 8.20298 26.0903 8.09543
737 1 -1.1104 9.43939 27.7756 9.56961