LAMMPS (29 Oct 2020)
OMP_NUM_THREADS environment is not set. Defaulting to 1 thread. (../comm.cpp:94)
  using 1 OpenMP thread(s) per MPI task
OMP_NUM_THREADS environment is not set. Defaulting to 1 thread. (../comm.cpp:94)
  using 1 OpenMP thread(s) per MPI task
Reading data file ...
  triclinic box = (0.0000000 0.0000000 0.0000000) to (27.894000 334.72800 27.894000) with tilt (0.0000000 0.0000000 0.0000000)
  2 by 13 by 2 MPI processor grid
  reading atoms ...
  24000 atoms
  reading velocities ...
  24000 velocities
Finding 1-2 1-3 1-4 neighbors ...
  special bond factors lj:    0.0      0.0      0.0     
  special bond factors coul:  0.0      0.0      0.0     
     0 = max # of 1-2 neighbors
     0 = max # of 1-3 neighbors
     0 = max # of 1-4 neighbors
     1 = max # of special neighbors
  special bonds CPU = 0.003 seconds
  read_data CPU = 0.052 seconds
15 atoms in group vac_Th
15 atoms in group oct_Th
30 atoms in group vac_O
30 atoms in group oct_O
3000 atoms in group tot_oct_Th
3000 atoms in group tot_oct_O
2985 atoms in group delete_oct_Th
2970 atoms in group delete_oct_O
WARNING: Ignoring 'compress yes' for molecular system (../delete_atoms.cpp:125)
Deleted 2985 atoms, new total = 21015
WARNING: Ignoring 'compress yes' for molecular system (../delete_atoms.cpp:125)
Deleted 2970 atoms, new total = 18045
WARNING: Ignoring 'compress yes' for molecular system (../delete_atoms.cpp:125)
Deleted 15 atoms, new total = 18030
WARNING: Ignoring 'compress yes' for molecular system (../delete_atoms.cpp:125)
Deleted 30 atoms, new total = 18000
Setting atom values ...
  11970 settings made for charge
Setting atom values ...
  5985 settings made for charge
Setting atom values ...
  30 settings made for charge
Setting atom values ...
  15 settings made for charge
PPPM initialization ...
  using 12-bit tables for long-range coulomb (../kspace.cpp:328)
  G vector (1/distance) = 0.29916851
  grid = 40 240 40
  stencil order = 5
  estimated absolute RMS force accuracy = 0.00015502622
  estimated relative force accuracy = 1.0765975e-05
  using single precision MKL FFT
  3d grid and FFT values/proc = 18225 7600
Neighbor list info ...
  update every 1 steps, delay 0 steps, check yes
  max neighbors/atom: 2000, page size: 100000
  master list distance cutoff = 13
  ghost atom cutoff = 13
  binsize = 6.5, bins = 5 52 5
  2 neighbor lists, perpetual/occasional/extra = 2 0 0
  (1) pair coul/long, perpetual
      attributes: half, newton on
      pair build: half/bin/newton/tri
      stencil: half/bin/3d/newton/tri
      bin: standard
  (2) pair eam/alloy, perpetual, copy from (1)
      attributes: half, newton on
      pair build: copy
      stencil: none
      bin: none
Setting up cg style minimization ...
  Unit style    : metal
  Current step  : 0
WARNING: Energy due to 3 extra global DOFs will be included in minimizer energies
Per MPI rank memory allocation (min/avg/max) = 10.44 | 10.47 | 10.50 Mbytes
Step Temp E_pair E_mol TotEng Press Volume 
       0            0    -235697.8            0    -235697.8    6271.6402    260443.57 
     165            0   -236416.57            0   -236416.57    212.02263    261680.99 
Loop time of 3.71319 on 52 procs for 165 steps with 18000 atoms

99.5% CPU use with 52 MPI tasks x 1 OpenMP threads

Minimization stats:
  Stopping criterion = linesearch alpha is zero
  Energy initial, next-to-last, final = 
     -235697.804061247  -236416.566080285  -236416.566080285
  Force two-norm initial, final = 1829.3532 72.401976
  Force max component initial, final = 1321.6461 53.673204
  Final line search alpha, max atom move = 1.9260330e-12 1.0337636e-10
  Iterations, force evaluations = 165 319

MPI task timing breakdown:
Section |  min time  |  avg time  |  max time  |%varavg| %total
---------------------------------------------------------------
Pair    | 1.921      | 2.0364     | 2.228      |   4.8 | 54.84
Bond    | 3.0317e-05 | 4.4851e-05 | 7.4084e-05 |   0.0 |  0.00
Kspace  | 0.65058    | 0.84454    | 0.96129    |   7.5 | 22.74
Neigh   | 0.0029786  | 0.0035316  | 0.004112   |   0.5 |  0.10
Comm    | 0.075009   | 0.078128   | 0.08198    |   0.6 |  2.10
Output  | 0          | 0          | 0          |   0.0 |  0.00
Modify  | 0          | 0          | 0          |   0.0 |  0.00
Other   |            | 0.7506     |            |       | 20.21

Nlocal:        346.154 ave         401 max         299 min
Histogram: 2 9 1 7 11 9 3 2 6 2
Nghost:        5621.65 ave        5800 max        5493 min
Histogram: 6 9 10 2 2 5 11 3 3 1
Neighs:       111756.0 ave      132392 max       96411 min
Histogram: 5 7 0 10 13 7 3 5 1 1

Total # of neighbors = 5811306
Ave neighs/atom = 322.85033
Ave special neighs/atom = 0.0000000
Neighbor list builds = 1
Dangerous builds = 0
Resetting atom IDs ...
PPPM initialization ...
  using 12-bit tables for long-range coulomb (../kspace.cpp:328)
  G vector (1/distance) = 0.29908384
  grid = 40 240 40
  stencil order = 5
  estimated absolute RMS force accuracy = 0.00015569501
  estimated relative force accuracy = 1.081242e-05
  using single precision MKL FFT
  3d grid and FFT values/proc = 18225 7600
Finding 1-2 1-3 1-4 neighbors ...
  special bond factors lj:    0.0      0.0      0.0     
  special bond factors coul:  0.0      0.0      0.0     
     0 = max # of 1-2 neighbors
     0 = max # of 1-3 neighbors
     0 = max # of 1-4 neighbors
     1 = max # of special neighbors
  special bonds CPU = 0.001 seconds
PPPM initialization ...
  using 12-bit tables for long-range coulomb (../kspace.cpp:328)
  G vector (1/distance) = 0.29908384
  grid = 40 240 40
  stencil order = 5
  estimated absolute RMS force accuracy = 0.00015569501
  estimated relative force accuracy = 1.081242e-05
  using single precision MKL FFT
  3d grid and FFT values/proc = 18225 7600
Setting up Verlet run ...
  Unit style    : metal
  Current step  : 0
  Time step     : 0.001
Per MPI rank memory allocation (min/avg/max) = 10.59 | 10.62 | 10.64 Mbytes
Step Temp KinEng PotEng Press 
       0          600     1395.932   -236416.57    5909.6802 
   10000    598.48896    1392.4165   -235180.27    20.813433 
   20000    594.43127    1382.9761   -235189.21    511.86786 
   30000    597.41691    1389.9223    -235190.6   -1.6838464 
   40000    604.60708    1406.6506   -235202.77    325.63242 
   50000    598.70602    1392.9215   -235195.12     708.1204 
   60000    600.59667    1397.3202    -235202.6    806.88182 
   70000      605.386    1408.4628   -235201.67    259.99648 
   80000    597.42978    1389.9523   -235195.57    425.87923 
   90000    597.44372    1389.9847   -235213.59    562.48477 
  100000    603.44411    1403.9449   -235195.59   -364.76627 
Loop time of 891.481 on 52 procs for 100000 steps with 18000 atoms

Performance: 9.692 ns/day, 2.476 hours/ns, 112.173 timesteps/s
100.0% CPU use with 52 MPI tasks x 1 OpenMP threads

MPI task timing breakdown:
Section |  min time  |  avg time  |  max time  |%varavg| %total
---------------------------------------------------------------
Pair    | 510.61     | 520.2      | 532.07     |  26.9 | 58.35
Bond    | 0.010361   | 0.014653   | 0.027561   |   2.9 |  0.00
Kspace  | 201.94     | 214.27     | 224.8      |  43.2 | 24.03
Neigh   | 2.284      | 2.3938     | 2.5282     |   4.5 |  0.27
Comm    | 26.715     | 27.903     | 28.99      |  13.6 |  3.13
Output  | 0.03535    | 0.035404   | 0.037191   |   0.1 |  0.00
Modify  | 105.56     | 111.59     | 118.04     |  30.7 | 12.52
Other   |            | 15.08      |            |       |  1.69

Nlocal:        346.154 ave         367 max         328 min
Histogram: 2 4 7 7 8 9 6 7 1 1
Nghost:        5615.23 ave        5749 max        5519 min
Histogram: 13 11 0 2 1 1 10 10 2 2
Neighs:       110562.0 ave      116473 max      103502 min
Histogram: 1 3 3 10 6 7 6 8 6 2

Total # of neighbors = 5749250
Ave neighs/atom = 319.40278
Ave special neighs/atom = 0.0000000
Neighbor list builds = 646
Dangerous builds = 0
WARNING: Shell command 'mkdir' failed with error 'File exists' (../input.cpp:1197)
System init for write_data ...
PPPM initialization ...
  using 12-bit tables for long-range coulomb (../kspace.cpp:328)
  G vector (1/distance) = 0.29878641
  grid = 40 240 40
  stencil order = 5
  estimated absolute RMS force accuracy = 0.00015810071
  estimated relative force accuracy = 1.0979487e-05
  using single precision MKL FFT
  3d grid and FFT values/proc = 18225 7600
Total wall time: 0:14:55
