 # Bcc Fe oriented X=[11-2] Y=[1-10] Z=[111].
 
       23400  atoms
           1  atom types
 
      0.000000000000     419.643520870000  xlo xhi
      0.000000000000     262.474320068697  ylo yhi
      0.000000000000       2.472745725843  zlo zhi
      0.000000000000       0.000000000000       0.011648010173  xy xz yz
 
Masses
 
            1   55.84500000             # Fe
 
Atoms # atomic
 
         1    1        3.497027941772       2.019935590079       0.191432358038
         2    1        4.662705321174       0.008723412637       1.851885514429
         3    1        0.000000000000       0.000927203275       0.196835159084
         4    1        1.165677379402       2.027685369191       1.836626076918
         5    1        5.828382700576       2.023834119330       1.019047667292
         6    1        2.331354758805       0.004825163986       1.024329773619
         7    1       10.491088021750       2.019984074456       0.201725063212
         8    1       11.656765401152       0.008771905167       1.862179950525
         9    1        6.994060079978       0.000973942314       0.206757348039
        10    1        8.159733262945       2.027732949915       1.846726946478
        11    1       12.822442780555       2.023883515862       1.029534013184
        12    1        9.325410642348       0.004872775694       1.034437220684
        13    1       17.485148101728       2.020035317314       0.212603364029
        14    1       18.650821284695       0.008823078486       1.873043489050
        15    1       13.988115963522       0.001023322422       0.217240207359
        16    1       15.153793342924       2.027783266290       1.857408565100
        17    1       19.816498664098       2.023935691144       1.040610257296
        18    1       16.319470722326       0.004923049787       1.045109863238
        19    1       24.479203985272       2.020089369789       0.224078115842
        20    1       25.644881364674       0.008876970102       1.884484092245
        21    1       20.982176043500       0.001075399278       0.228295556770
        22    1       22.147853422902       2.027836378421       1.868683692151
        23    1       26.810558744076       2.023990685942       1.052285054239
        24    1       23.313530802305       0.004976033091       1.056357641722
        25    1       31.473264065250       2.020146249934       0.236153151408
        26    1       32.638941444652       0.008933582926       1.896502378296
        27    1       27.976236123478       0.001130199438       0.239929034131
        28    1       29.141909306445       2.027892316359       1.880558707315
        29    1       33.804618824055       2.024048505617       1.064559541474
        30    1       30.307586685848       0.005031740981       1.068183820157
        31    1       38.467324145228       2.020205934222       0.248823475780
        32    1       39.632997328195       0.008992878519       1.909090187143
        33    1       34.970292007022       0.001187713119       0.252138562337
        34    1       36.135969386424       2.027951071369       1.893031756032
        35    1       40.798674707598       2.024109111145       1.077425435306
        36    1       37.301646765826       0.005090149462       1.080583304690
        37    1       45.461380028772       2.020268349502       0.262073560114
        38    1       46.627057408174       0.009054768824       1.922228824828
        39    1       41.964352087000       0.001247886157       0.264912643119
        40    1       43.130029466402       2.028012587888       1.906091043307
        41    1       47.792734787576       2.024172410509       1.090863201041
        42    1       44.295706845805       0.005151188180       1.093541159935
        43    1       52.455440108750       2.020333363686       0.275875363475
        44    1       53.621117488152       0.009119107889       1.935887307846
        45    1       48.958412166978       0.001310611973       0.278228650855
        46    1       50.124085349945       2.028076754447       1.919712904961
        47    1       54.786794867555       2.024238250537       1.104840322074
        48    1       51.289762729348       0.005214730988       1.107030606055
        49    1       59.449500188728       2.020400778642       0.290186824458
        50    1       60.615173371695       0.009185685353       1.950020978411
        51    1       55.952468050522       0.001375723884       0.292051200553
        52    1       57.118145429924       2.028143395509       1.933860076718
        53    1       61.780850751098       2.024306409218       1.119309667871
        54    1       58.283822809326       0.005280589886       1.121011732937
        55    1       66.443556072272       2.020470323320       0.304950402269
        56    1       67.609233451674       0.009254221313       1.964570416442
        57    1       62.946528130500       0.001442988814       0.306330812570
        58    1       64.112205509902       2.028212265068       1.948480334187
        59    1       68.774910831076       2.024376590343       1.134208356509
        60    1       65.277882889305       0.005348508618       1.135430140172
        61    1       73.437616152250       2.020541650259       0.320092334903
        62    1       74.603293531652       0.009324363650       1.979460870837
        63    1       69.940588210478       0.001512102981       0.321002997699
        64    1       71.106261393445       2.028283041289       1.963505355403
        65    1       75.768970911055       2.024448420943       1.149457210668
        66    1       72.271938772848       0.005418159059       1.150216170514
        67    1       80.431676232228       2.020614335706       0.335522663872
        68    1       81.597349415195       0.009395688143       1.994602284195
        69    1       76.934644094022       0.001582689922       0.335987836798
        70    1       78.100321473424       2.028355325696       1.978850547737
        71    1       82.763026794598       2.024521452336       1.164960980185
        72    1       79.265998852826       0.005489140868       1.165284835693
        73    1       87.425732115772       2.020687882990       0.351135951297
        74    1       88.591409495174       0.009467704063       2.009890479739
        75    1       83.928704174000       0.001654302588       0.351190425885
        76    1       85.094381553402       2.028428645027       1.994415443528
        77    1       89.757086874576       2.024595164905       1.180609355872
        78    1       86.260058932805       0.005560984747       1.180536508783
        79    1       94.419792195750       2.020761730675       0.366813010834
        80    1       95.585469575152       0.009539861389       2.025208694416
        81    1       90.922764253978       0.001726429280       0.366502137241
        82    1       92.088437436945       2.028502458468       2.010085233192
        83    1       96.751146954555       2.024668978578       1.196279194991
        84    1       93.254114816348       0.005633159196       1.195858358396
        85    1      101.413852275728       2.020835265496       0.382423652421
        86    1      102.579525458695       0.009611564560       2.040430496738
        87    1       97.916820137522       0.001798503323       0.381802671787
        88    1       99.082497516924       2.028576168241       2.025733015420
        89    1      103.745202838098       2.024742266111       1.211837340186
        90    1      100.248174896326       0.005705082164       1.211126821430
        91    1      108.407908159272       2.020907838423       0.397830094666
        92    1      109.573585538674       0.009682187144       2.055422902438
        93    1      104.910880217500       0.001869916808       0.396962976922
        94    1      106.076557596902       2.028649135337       2.041223135380
        95    1      110.739262918076       2.024814370789       1.227144378053
        96    1      107.242234976305       0.005776135609       1.226210693994
        97    1      115.401968239250       2.020978783890       0.412891044878
        98    1      116.567645618652       0.009751090017       2.070050231960
        99    1      111.904940297478       0.001940037246       0.411848782554
       100    1      113.070613480445       2.028720697567       2.056415017478
       101    1      117.733322998055       2.024884625645       1.242058719171
       102    1      114.236290859848       0.005845682849       1.240974815810
       103    1      122.396028319228       2.021047438777       0.427465729643
       104    1      123.561701502195       0.009817639758       2.084178017390
       105    1      118.898996181022       0.002008225397       0.426324384398
       106    1      120.064673560424       2.028790188664       2.071167220659
       107    1      124.727378881598       2.024952373152       1.256440777044
       108    1      121.230350939826       0.005913086273       1.255283828774
       109    1      129.390084202772       2.021113162557       0.441418172673
       110    1      130.555761582174       0.009881225780       2.097676637397
       111    1      125.893056261000       0.002073853548       0.440256526186
       112    1      127.058733640402       2.028856958552       2.085341740983
       113    1      131.721438961576       2.025016983616       1.270156875038
       114    1      128.224411019805       0.005977725974       1.269006133360
       115    1      136.384144282750       2.021175352915       0.454620508288
       116    1      137.549821662152       0.009941275815       2.110424605985
       117    1      132.887116340978       0.002136322176       0.453517935696
       118    1      134.052789523945       2.028920390704       2.098807696020
       119    1      138.715499041555       2.025077871259       1.283082658771
       120    1      135.218466903348       0.006039015357       1.282017202093
       121    1      143.378204362728       2.021233460062       0.466956022889
       122    1      144.543877545695       0.009997267567       2.122311045234
       123    1      139.881172224522       0.002195074739       0.465990465137
       124    1      141.046849603924       2.028979916345       2.111444341595
       125    1      145.709554925098       2.025134505283       1.295105445219
       126    1      142.212526983326       0.006096414422       1.294202398480
       127    1      150.372260246272       2.021286994899       0.478320885882
       128    1      151.537937625674       0.010048736746       2.133237391500
       129    1      146.875232304500       0.002249607461       0.477567168257
       130    1      148.040909683902       2.029035025528       2.123143420900
       131    1      152.703615005076       2.025186418717       1.306126102008
       132    1      149.206587063305       0.006149438843       1.305458905756
       133    1      157.366320326250       2.021335534254       0.488625262416
       134    1      158.531997705652       0.010095281146       2.143118260874
       135    1      153.869292384478       0.002299476553       0.488153833443
       136    1      155.034965567445       2.029085273063       2.133810425595
       137    1      159.697675085054       2.025233210521       1.316059492500
       138    1      156.200642946848       0.006197665682       1.315696938522
       139    1      164.360380406228       2.021378721581       0.497793461743
       140    1      165.526053589195       0.010136561345       2.151881597544
       141    1      160.863348268022       0.002344301008       0.497669577182
       142    1      162.029025647424       2.029130279926       2.143364892533
       143    1      166.691730968598       2.025274545581       1.324834475803
       144    1      163.194703026826       0.006240734549       1.324839990026
       145    1      171.354436289772       2.021416263817       0.505763269582
       146    1      172.520113669174       0.010172297789       2.159468055613
       147    1      167.857408348000       0.002383761438       0.506046596788
       148    1      169.023085727402       2.029169732669       2.151740280126
       149    1      173.685791048576       2.025310151452       1.332393214392
       150    1      170.188763106804       0.006278346440       1.332824584884
       151    1      178.348496369750       2.021447927185       0.512485057926
       152    1      179.514173749152       0.010202266955       2.165830183091
       153    1      174.851468427978       0.002417597743       0.513229675847
       154    1      176.017141610945       2.029203378179       2.158882855610
       155    1      180.679851128555       2.025339812527       1.338689937746
       156    1      177.182818990348       0.006310259658       1.339599413624
       157    1      185.342556449728       2.021473530327       0.517920326124
       158    1      186.508229632695       0.010226295169       2.170931111339
       159    1      181.845524311522       0.002445603636       0.519175022033
       160    1      183.011201690924       2.029231018674       2.164750631762
       161    1      187.673907012098       2.025363363523       1.343689557601
       162    1      184.176879070326       0.006336284574       1.345124219944
       163    1      192.336612333272       2.021492938241       0.522040415052
       164    1      193.502289712674       0.010244252906       2.174743343425
       165    1      188.839584391500       0.002467620705       0.523849006004
       166    1      190.005261770902       2.029252504128       2.169311759618
       167    1      194.667967092076       2.025380683298       1.347366357404
       168    1      191.170939150305       0.006356277685       1.349368539618
       169    1      199.330672413250       2.021506055415       0.524825048197
       170    1      200.496349792652       0.010256049196       2.177247567204
       171    1      195.833644471478       0.002483532935       0.527226999212
       172    1      196.999317654445       2.029267726563       2.172543316825
       173    1      201.662027172055       2.025391688339       1.349702607565
       174    1      198.164995033848       0.006370135788       1.352310464118
       175    1      206.324732493228       2.021512820696       0.526261243642
       176    1      207.490405676195       0.010261627195       2.178431715677
       177    1      202.827700355022       0.002493261237       0.529292211715
       178    1      203.993377734424       2.029276613995       2.174430021814
       179    1      208.656083055598       2.025396328323       1.350687625825
       180    1      205.159055113826       0.006377790977       1.353935577336
       181    1      213.318788376772       2.021513204032       0.526342621703
       182    1      214.484465756174       0.010260960812       2.178290249894
       183    1      209.821760435000       0.002496759251       0.530034801984
       184    1      210.987437814402       2.029279126121       2.174963318884
       185    1      215.650143135576       2.025394582403       1.350316985968
       186    1      212.153115193804       0.006379207142       1.354236213761
       187    1      220.312848456750       2.021507203443       0.525068762015
       188    1      221.478525836152       0.010254052960       2.176823788041
       189    1      216.815820514978       0.002494010553       0.529451283448
       190    1      217.981493697945       2.029275251993       2.174140883656
       191    1      222.644203215555       2.025386458498       1.348592369462
       192    1      219.147171077348       0.006374377644       1.353210963929
       193    1      227.306908536728       2.021494845953       0.522445401347
       194    1      228.472581719695       0.010240936368       2.174039278534
       195    1      223.809876398522       0.002485028074       0.527544400854
       196    1      224.975553777924       2.029265008733       2.171966351065
       197    1      229.638259099098       2.025371993184       1.345521540727
       198    1      226.141231157326       0.006363325080       1.350864624964
       199    1      234.300964420272       2.021476188636       0.518484656153
       200    1      235.466641799674       0.010221674753       2.169950247292
       201    1      230.803936478500       0.002469854327       0.524323179724
       202    1      231.969613857902       2.029248443049       2.168449636821
       203    1      236.632319179076       2.025351254368       1.341118915872
       204    1      233.135291237304       0.006346102682       1.347208497316
       205    1      241.295024500250       2.021451322580       0.513205863305
       206    1      242.460701879652       0.010196366888       2.164577663199
       207    1      237.797996558478       0.002448564444       0.519803569269
       208    1      238.963669741445       2.029225634032       2.163607530868
       209    1      243.626379259055       2.025324345484       1.335406452879
       210    1      240.129347120848       0.006322796877       1.342260928758
       211    1      248.289084580228       2.021420377894       0.506636643373
       212    1      249.454757763195       0.010165151153       2.157950902473
       213    1      244.792052442022       0.002421269778       0.514009208937
       214    1      245.957729821424       2.029196698511       2.157464834846
       215    1      250.620435142598       2.025291411085       1.328414838521
       216    1      247.123407200826       0.006293532416       1.336048402397
       217    1      255.283140463772       2.021383529880       0.498814211179
       218    1      256.448817843174       0.010128211352       2.150108985043
       219    1      251.786112522000       0.002388123269       0.506972565880
       220    1      252.951789901402       2.029161795715       2.150055351188
       221    1      257.614495222576       2.025252643013       1.320184798922
       222    1      254.117467280805       0.006258477147       1.328606550498
       223    1      262.277200543750       2.021341005674       0.489786785265
       224    1      263.442877923152       0.010085782776       2.141101860372
       225    1      258.780172601978       0.002349325144       0.498736146596
       226    1      259.945845784945       2.029121134841       2.141423490408
       227    1      264.608555302554       2.025208287273       1.310768558471
       228    1      261.111523164348       0.006217848655       1.319981563951
       229    1      269.271260623728       2.021293091001       0.479615022085
       230    1      270.436933806695       0.010038157091       2.130991446013
       231    1      265.774228485522       0.002305128750       0.489353733306
       232    1      266.939905864924       2.029074981464       2.131625631109
       233    1      271.602611186098       2.025158649977       1.300231100925
       234    1      268.105583244326       0.006171919270       1.310231255552
       235    1      276.265316507272       2.021240134604       0.468372955644
       236    1      277.430993886674       0.009985687348       2.119852690888
       237    1      272.768288565500       0.002255846135       0.478891570868
       238    1      273.933965944902       2.029023662777       2.120731232717
       239    1      278.596671266076       2.025104101996       1.288651158508
       240    1      275.099643324305       0.006121021076       1.299426123281
       241    1      283.259376587250       2.021182551618       0.456148714602
       242    1      284.425053966652       0.009928788799       2.107773748385
       243    1      279.762348645478       0.002201850852       0.467428960236
       244    1      280.928021828445       2.028967571784       2.108823725675
       245    1      285.590731346054       2.025045080596       1.276121558096
       246    1      282.093699207848       0.006065548825       1.287649968491
       247    1      290.253436667228       2.021120823337       0.443044472810
       248    1      291.419109850195       0.009867938778       2.094855951621
       249    1      286.756404529021       0.002143579235       0.455058530466
       250    1      287.922081908424       2.028907167766       2.096000610344
       251    1      292.584787229598       2.024982088274       1.262748973938
       252    1      289.087759287826       0.006005959236       1.274999747542
       253    1      297.247492550772       2.021055492677       0.429175484947
       254    1      298.413169930174       0.009803670998       2.081212601806
       255    1      293.750464609000       0.002081527956       0.441885719435
       256    1      294.916141988402       2.028842974184       2.082373011920
       257    1      299.578847309576       2.024915687161       1.248652740743
       258    1      296.081819367804       0.005942768198       1.261584978342
       259    1      304.241552630750       2.020987156247       0.414668405050
       260    1      305.407230010152       0.009736566928       2.066967138407
       261    1      300.744524688978       0.002016248080       0.428027512744
       262    1      301.910197871945       2.028775570527       2.068063949501
       263    1      306.572907389555       2.024846488779       1.233962677663
       264    1      303.075875251348       0.005876542505       1.247525984698
       265    1      311.235612710728       2.020916450962       0.399658442855
       266    1      312.401285893695       0.009667243563       2.052250542764
       267    1      307.738580572522       0.001948334474       0.413610193517
       268    1      308.904257951924       2.028705582293       2.053206209532
       269    1      313.566963273098       2.024775140174       1.218816145721
       270    1      310.069935331326       0.005807888783       1.232951547208
       271    1      318.229668594272       2.020844038078       0.384285976137
       272    1      319.395345973674       0.009596337000       2.037197851523
       273    1      314.732640652500       0.001878412167       0.398766449290
       274    1      315.898318031902       2.028633664334       2.037938809780
       275    1      320.561023353076       2.024702306331       1.203354313972
       276    1      317.063995411304       0.005737438822       1.217995787599
       277    1      325.223728674250       2.020770583862       0.368692445950
       278    1      326.389406053652       0.009524485201       2.021944496966
       279    1      321.726700732478       0.001807120055       0.383631910165
       280    1      322.892373915445       2.028560483613       2.022403339663
       281    1      327.555083433055       2.024628651303       1.187718153649
       282    1      324.058051294848       0.005665831864       1.202794410157
       283    1      332.217788754228       2.020696740486       0.353016301329
       284    1      333.383461937195       0.009452309237       2.006622325895
       285    1      328.720756616022       0.001735092604       0.368341266602
       286    1      329.886433995424       2.028486699293       2.006739731862
       287    1      334.549139316598       2.024554817828       1.172044110862
       288    1      331.052111374826       0.005593696669       1.187480893697
       289    1      339.211844637771       2.020623126460       0.337388845071
       290    1      340.377522017174       0.009380396636       1.991356063606
       291    1      335.714816696000       0.001662941335       0.353024337753
       292    1      336.880494075402       2.028412942811       1.991082033924
       293    1      341.543199396576       2.024481409389       1.156460298566
       294    1      338.046171454804       0.005521633808       1.172182732987
       295    1      346.205904717750       2.020550309972       0.321930697713
       296    1      347.371582097152       0.009309285301       1.976259901495
       297    1      342.708876775978       0.001591238747       0.337802659068
       298    1      343.874549958945       2.028339800995       1.975554822778
       299    1      348.537259476554       2.024408974374       1.141083133630
       300    1      345.040227338348       0.005450199124       1.157017927455
       301    1      353.199964797728       2.020478796082       0.306749077510
       302    1      354.365637980695       0.009239452451       1.961435147954
       303    1      349.702932659522       0.001520503875       0.322786416099
       304    1      350.868610038924       2.028267801149       1.960270039623
       305    1      355.531315360098       2.024337994662       1.126014913546
       306    1      352.034287418326       0.005379891269       1.142092335344
       307    1      360.194020681272       2.020409017745       0.291935896419
       308    1      361.359698060674       0.009171307282       1.946968670542
       309    1      356.696992739500       0.001451191692       0.308072194293
       310    1      357.862670118902       2.028197400809       1.945324813911
       311    1      362.525375440076       2.024268877815       1.111342159685
       312    1      359.028347498305       0.005311142500       1.127497720248
       313    1      367.188080761250       2.020341331391       0.277566820461
       314    1      368.353758140652       0.009105186187       1.932931882155
       315    1      363.691052819478       0.001383687280       0.293741742623
       316    1      364.856726002445       2.028128982377       1.930800325884
       317    1      369.519435520054       2.024201954872       1.097135147482
       318    1      366.022403381848       0.005244313789       1.113310712558
       319    1      374.182140841228       2.020276017271       0.263701343898
       320    1      375.347814024195       0.009041354160       1.919381037758
       321    1      370.685108703022       0.001318303388       0.279861454313
       322    1      371.850786082424       2.028062850916       1.916761336753
       323    1      376.513491403598       2.024137480806       1.083448005341
       324    1      373.016463461826       0.005179693657       1.099592562185
       325    1      381.176196724772       2.020213281903       0.250383308511
       326    1      382.341874104174       0.008980007235       1.906357753661
       327    1      377.679168783000       0.001255281130       0.266482515198
       328    1      378.844846162402       2.027999237289       1.903256856338
       329    1      383.507551483576       2.024075639190       1.070319703733
       330    1      380.010523541805       0.005117500621       1.086389657838
       331    1      388.170256804750       2.020153264949       0.237642362521
       332    1      389.335934184152       0.008921278317       1.893890243894
       333    1      384.673228862978       0.001194795109       0.253641991738
       334    1      385.838902045945       2.027938302587       1.890321082713
       335    1      390.501611563554       2.024016548718       1.057775439938
       336    1      387.004579425348       0.005057887852       1.073734516125
       337    1      395.164316884728       2.020096046195       0.225495444237
       338    1      396.329990067695       0.008865244400       1.881994853305
       339    1      391.667284746521       0.001136958429       0.241363894293
       340    1      392.832962125924       2.027880145586       1.877974984761
       341    1      397.495667447098       2.023960271474       1.045828393691
       342    1      393.998639505326       0.005000950165       1.061647265196
       343    1      402.158372768272       2.020041654647       0.213948710796
       344    1      403.324050147674       0.008811934253       1.870677689577
       345    1      398.661344826500       0.001081831426       0.229661031687
       346    1      399.827022205902       2.027824811248       1.866228107280
       347    1      404.489727527076       2.023906821085       1.034481458105
       348    1      400.992699585304       0.004946731473       1.050137227301
       349    1      409.152432848250       2.019990076675       0.202999269084
       350    1      410.318110227652       0.008761336927       1.859936428328
       351    1      405.655404906478       0.001029428426       0.218536445396
       352    1      406.821078089445       2.027772299106       1.855080351362
       353    1      411.483787607054       2.023856172042       1.023729217865
       354    1      407.986755468848       0.004895233291       1.039204723898
       355    1      416.146492928228       2.019941264873       0.192637055028
       356    1      417.312166111195       0.008713408976       1.849761846217
       357    1      412.649460790022       0.000979727181       0.207985412476
       358    1      413.815138169424       2.027722572353       1.844523903129
       359    1      418.477843490598       2.023808266921       1.013559482336
       360    1      414.980815548826       0.004846422071       1.028842633479
       361    1        3.497027941772       6.057902973931       0.170699052768
       362    1        4.662705321174       4.046694007126       1.831276588269
       363    1        0.000000000000       4.038897295503       0.176119608129
       364    1        1.165677379402       6.065652507270       1.815840596713
       365    1        5.828382700576       6.061801766660       0.998370295531
       366    1        2.331354758805       4.042795498726       1.003665705230
       367    1       10.491088021750       6.057952304768       0.181171452374
       368    1       11.656765401152       4.046743387468       1.841759497044
       369    1        6.994060079978       4.038944814026       0.186207273227
       370    1        8.159733262945       6.065700879126       1.826109415163