LAMMPS (29 Oct 2020)
OMP_NUM_THREADS environment is not set. Defaulting to 1 thread. (../comm.cpp:94)
  using 1 OpenMP thread(s) per MPI task
OMP_NUM_THREADS environment is not set. Defaulting to 1 thread. (../comm.cpp:94)
  using 1 OpenMP thread(s) per MPI task
Reading data file ...
  orthogonal box = (-0.48866221 -7.3228957 -0.48050073) to (27.828662 417.42290 27.820501)
  2 by 26 by 1 MPI processor grid
  reading atoms ...
  22500 atoms
  reading velocities ...
  22500 velocities
Finding 1-2 1-3 1-4 neighbors ...
  special bond factors lj:    0.0      0.0      0.0     
  special bond factors coul:  0.0      0.0      0.0     
     0 = max # of 1-2 neighbors
     0 = max # of 1-3 neighbors
     0 = max # of 1-4 neighbors
     1 = max # of special neighbors
  special bonds CPU = 0.004 seconds
  read_data CPU = 0.099 seconds
Setting atom values ...
  15000 settings made for charge
Setting atom values ...
  7500 settings made for charge
PPPM initialization ...
  using 12-bit tables for long-range coulomb (../kspace.cpp:328)
  G vector (1/distance) = 0.29762607
  grid = 40 288 40
  stencil order = 5
  estimated absolute RMS force accuracy = 0.00017122701
  estimated relative force accuracy = 1.1891058e-05
  using single precision MKL FFT
  3d grid and FFT values/proc = 19125 9600
Neighbor list info ...
  update every 1 steps, delay 0 steps, check yes
  max neighbors/atom: 2000, page size: 100000
  master list distance cutoff = 11.3
  ghost atom cutoff = 11.3
  binsize = 5.65, bins = 6 76 6
  2 neighbor lists, perpetual/occasional/extra = 2 0 0
  (1) pair coul/long, perpetual
      attributes: half, newton on
      pair build: half/bin/newton
      stencil: half/bin/3d/newton
      bin: standard
  (2) pair eam/alloy, perpetual, copy from (1)
      attributes: half, newton on
      pair build: copy
      stencil: none
      bin: none
Setting up Verlet run ...
  Unit style    : metal
  Current step  : 0
  Time step     : 0.001
Per MPI rank memory allocation (min/avg/max) = 8.259 | 8.283 | 8.341 Mbytes
Step Temp E_pair E_mol TotEng Press 
       0         1500   -291420.25            0   -287057.91    164.02163 
  100000    1492.1086   -291448.77            0   -287109.39   -648.03604 
Loop time of 831.95 on 52 procs for 100000 steps with 22500 atoms

Performance: 10.385 ns/day, 2.311 hours/ns, 120.200 timesteps/s
99.8% CPU use with 52 MPI tasks x 1 OpenMP threads

MPI task timing breakdown:
Section |  min time  |  avg time  |  max time  |%varavg| %total
---------------------------------------------------------------
Pair    | 534.14     | 548.73     | 565.98     |  32.8 | 65.96
Bond    | 0.0076862  | 0.011907   | 0.015724   |   1.6 |  0.00
Kspace  | 180.51     | 199.19     | 214.29     |  64.1 | 23.94
Neigh   | 53.572     | 57.283     | 64.811     |  27.7 |  6.89
Comm    | 18.257     | 20.083     | 22.839     |  22.0 |  2.41
Output  | 5.6172e-05 | 6.125e-05  | 0.00026597 |   0.0 |  0.00
Modify  | 2.2331     | 4.5757     | 6.8569     |  59.6 |  0.55
Other   |            | 2.073      |            |       |  0.25

Nlocal:        432.692 ave         457 max         398 min
Histogram: 4 2 5 2 6 5 2 10 10 6
Nghost:        4364.02 ave        4463 max        4234 min
Histogram: 3 7 1 0 5 10 8 7 8 3
Neighs:        87062.8 ave       91858 max       79713 min
Histogram: 3 3 4 3 4 4 6 6 12 7

Total # of neighbors = 4527264
Ave neighs/atom = 201.21173
Ave special neighs/atom = 0.0000000
Neighbor list builds = 25047
Dangerous builds = 0
15000 atoms in group oxygen
PPPM initialization ...
  using 12-bit tables for long-range coulomb (../kspace.cpp:328)
  G vector (1/distance) = 0.29762607
  grid = 40 288 40
  stencil order = 5
  estimated absolute RMS force accuracy = 0.00017122701
  estimated relative force accuracy = 1.1891058e-05
  using single precision MKL FFT
  3d grid and FFT values/proc = 19125 9600
Setting up Verlet run ...
  Unit style    : metal
  Current step  : 0
  Time step     : 0.001
Per MPI rank memory allocation (min/avg/max) = 8.510 | 8.534 | 8.592 Mbytes
Step f_2 Temp v_Tdiff v_deltaT 
       0            0    1492.1086            0            0 
  100000    1652.3294    1488.8973  0.065003333    754.68266 
  200000    3143.6933    1491.5467  0.085746141    995.50473 
  300000    4632.3433    1500.6822  0.085998131    998.43031 
  400000    6131.6671    1484.9791  0.085997026    998.41749 
  500000    7646.6341    1493.1783  0.084344869    979.23609 
  600000    9132.2089    1497.1297    0.0882289    1024.3293 
  700000    10614.258    1496.2445  0.087326143    1013.8484 
  800000    12108.434    1499.8284  0.089297392    1036.7344 
  900000    13596.011     1490.161  0.088299396    1025.1478 
 1000000    15087.978    1492.1337  0.087306733    1013.6231 
 1100000    16587.272    1496.9996  0.087326095    1013.8479 
 1200000    18068.601    1496.5623  0.087596703    1016.9896 
 1300000    19553.463    1484.4903  0.086577597    1005.1579 
 1400000    21048.569    1512.0962  0.085937437    997.72566 
 1500000     22535.39    1481.0721  0.088484958    1027.3021 
Loop time of 12379.5 on 52 procs for 1500000 steps with 22500 atoms

Performance: 10.469 ns/day, 2.292 hours/ns, 121.168 timesteps/s
99.8% CPU use with 52 MPI tasks x 1 OpenMP threads

MPI task timing breakdown:
Section |  min time  |  avg time  |  max time  |%varavg| %total
---------------------------------------------------------------
Pair    | 7899.7     | 8145.4     | 8359.2     | 108.3 | 65.80
Bond    | 0.12877    | 0.18213    | 0.26415    |   6.4 |  0.00
Kspace  | 2731.1     | 2975.8     | 3253.6     | 214.1 | 24.04
Neigh   | 808.78     | 873.64     | 920.89     |  94.6 |  7.06
Comm    | 279.2      | 302.42     | 344.05     |  79.8 |  2.44
Output  | 0.0017547  | 0.0018488  | 0.003601   |   0.6 |  0.00
Modify  | 10.002     | 12.604     | 15.204     |  35.3 |  0.10
Other   |            | 69.46      |            |       |  0.56

Nlocal:        432.692 ave         452 max         398 min
Histogram: 3 5 3 1 1 6 5 7 8 13
Nghost:        4363.40 ave        4453 max        4227 min
Histogram: 3 6 2 2 5 4 4 8 11 7
Neighs:        87019.7 ave       91402 max       80166 min
Histogram: 3 5 2 2 3 6 6 9 8 8

Total # of neighbors = 4525026
Ave neighs/atom = 201.11227
Ave special neighs/atom = 0.0000000
Neighbor list builds = 381803
Dangerous builds = 0
Total wall time: 3:40:11
