ITEM: TIMESTEP
10000
ITEM: NUMBER OF ATOMS
17730
ITEM: BOX BOUNDS pp pp pp
-4.3683002966268741e-01 2.7776830029662722e+01
-5.3654931547223557e+00 3.3344549315471784e+02
-4.4792317800067677e-01 2.7787923178000703e+01
ITEM: ATOMS id type q x y z
1 2 2.2208 5.18676 0.203794 4.90408
2 1 -1.1104 0.818363 -3.84382 0.986736
6 1 -1.1104 0.93603 -3.73397 3.74341
10 1 -1.1104 0.931524 -1.10197 1.10113
12 2 2.2208 5.11456 -2.53035 2.16497
14 1 -1.1104 1.09287 -0.992307 3.75787
16 1 -1.1104 3.6524 -3.81766 0.806306
18 2 2.2208 2.43873 0.358299 2.34128
19 1 -1.1104 3.78495 -3.97889 3.60898
21 2 2.2208 2.2601 -2.36511 5.01348
23 1 -1.1104 3.73644 -1.00754 0.809563
24 1 -1.1104 3.90344 -1.22007 3.69904
15 1 -1.1104 6.70204 -1.08529 3.84584
9736 2 2.2208 13.6511 5.95552 13.5815
52 2 2.2208 13.6274 11.5658 8.10632
9577 2 2.2208 13.7099 3.1319 10.877
9016 2 2.2208 2.2149 -5.33056 8.00898
11 1 -1.1104 6.64317 -0.950352 1.12779
4 1 -1.1104 6.5665 -3.58008 0.870613
8 1 -1.1104 6.54671 -3.98443 3.70801
31 2 2.2208 10.7695 0.387723 4.99962
32 1 -1.1104 12.1584 -3.85881 0.796334
34 1 -1.1104 12.0871 -3.99039 3.74714
36 1 -1.1104 12.1782 -1.03621 0.971505
37 2 2.2208 10.8007 -2.5131 2.33421
39 1 -1.1104 12.3469 -1.29237 3.71205
40 1 -1.1104 9.46074 -3.5819 0.65101
42 2 2.2208 7.98889 0.437983 2.35308
43 1 -1.1104 9.21304 -3.91141 3.79109
45 2 2.2208 7.89748 -2.4978 5.16921
47 1 -1.1104 9.28994 -0.841468 0.945229
48 1 -1.1104 9.34899 -0.973383 3.61525
9014 2 2.2208 10.6398 -5.29012 5.12377
9010 2 2.2208 2.15167 -5.20177 2.19713
9020 2 2.2208 10.7701 -5.26799 10.7222
345 2 2.2208 2.19992 20.0775 -0.455637
9019 2 2.2208 7.80211 -5.27444 8.06933
341 2 2.2208 -0.377936 17.0904 -0.366037
359 2 2.2208 7.91776 8.76894 -0.447782
3 1 -1.1104 0.953184 1.63957 0.846731
7 1 -1.1104 1.06328 1.90014 3.78471
13 2 2.2208 5.17493 3.112 2.35231
17 1 -1.1104 3.68875 1.52806 0.963865
20 1 -1.1104 3.75099 1.48778 3.86979
22 2 2.2208 2.39859 3.0663 5.0755
54 2 2.2208 5.25335 5.79106 5.09036
56 1 -1.1104 0.749509 7.43532 1.00362
58 1 -1.1104 1.13774 7.3251 4.01493
60 1 -1.1104 1.04248 4.50942 0.996591
67 1 -1.1104 0.908447 4.67937 3.64747
72 2 2.2208 2.37631 5.93163 2.31504
76 1 -1.1104 3.76108 4.45469 0.957451
79 1 -1.1104 3.66733 4.42705 3.66032
71 1 -1.1104 3.73611 7.52733 0.754447
74 1 -1.1104 3.82418 7.17571 3.72333
57 1 -1.1104 6.46574 7.38354 0.767559
9 1 -1.1104 6.54657 1.7203 3.65499
69 1 -1.1104 6.63366 4.38891 3.67002
328 2 2.2208 13.5231 19.8898 -0.420492
9011 2 2.2208 5.02992 -5.32794 5.14768
104 2 2.2208 13.6259 11.5205 2.52338
353 2 2.2208 5.00395 6.00767 -0.482988
237 1 -1.1104 6.36047 4.32969 6.58282
59 1 -1.1104 6.50937 7.24923 3.81837
63 1 -1.1104 6.58765 4.65153 0.826615
5 1 -1.1104 6.45289 1.89543 0.851126
33 1 -1.1104 12.304 1.74371 0.960135
35 1 -1.1104 12.2183 1.89587 3.80475
38 2 2.2208 10.7835 3.30367 2.27427
41 1 -1.1104 9.4855 1.89978 0.952853
44 1 -1.1104 9.28167 1.9545 3.65424
46 2 2.2208 7.9231 3.11595 5.09971
84 2 2.2208 10.7898 5.96248 5.34101
86 1 -1.1104 12.0435 7.24712 1.16797
87 1 -1.1104 12.2805 7.46841 3.85793
88 1 -1.1104 12.2702 4.6247 0.844435
92 1 -1.1104 12.1739 4.47486 3.68514
94 1 -1.1104 9.23733 7.35288 0.946745
95 2 2.2208 8.00332 5.89326 2.10839
97 1 -1.1104 9.43773 7.39332 3.76125
99 1 -1.1104 9.4228 4.66882 0.71948
102 1 -1.1104 9.47452 4.75338 3.70221
266 1 -1.1104 12.0831 4.54474 6.56434
361 2 2.2208 13.5354 8.75267 -0.394256
49 2 2.2208 13.5782 14.4646 10.8029
624 2 2.2208 13.4565 11.508 13.5678
55 2 2.2208 5.20081 11.3732 5.07707
61 1 -1.1104 1.2316 10.1952 0.923062
66 2 2.2208 5.11117 8.69407 2.35525
68 1 -1.1104 1.01046 10.2955 3.75262
73 2 2.2208 2.39349 11.6631 2.35916
75 2 2.2208 2.44345 8.55897 5.09357
77 1 -1.1104 3.89617 10.1951 0.854368
80 1 -1.1104 3.76347 10.0234 3.51904
107 1 -1.1104 0.856007 13.1048 1.02507
113 1 -1.1104 0.729471 13.0057 3.86289
123 1 -1.1104 3.77729 12.9854 1.14694
128 1 -1.1104 3.63637 12.8162 3.69033
70 1 -1.1104 6.56266 10.0505 3.71602
64 1 -1.1104 6.50707 10.1448 0.911828
110 1 -1.1104 6.64082 13.2074 1.03201
28 2 2.2208 13.6184 19.8411 11.0283
9469 2 2.2208 -0.390459 0.279567 10.6085
9305 2 2.2208 8.10107 -5.28083 13.558
352 2 2.2208 8.12356 3.17496 -0.406003
115 1 -1.1104 6.40529 12.8077 3.87591
85 2 2.2208 10.6908 11.5361 5.39507
89 1 -1.1104 11.9723 10.2714 1.02163
91 2 2.2208 10.8186 8.61739 2.4534
93 1 -1.1104 12.1781 10.1449 3.8321
96 2 2.2208 7.99897 11.7004 2.41097
98 2 2.2208 7.90306 8.74515 5.28346
100 1 -1.1104 9.1744 10.2451 1.03051
103 1 -1.1104 9.34343 10.1258 3.81236
142 1 -1.1104 12.0945 13.2992 1.02181
146 1 -1.1104 12.1749 12.8622 4.00701
153 1 -1.1104 9.26528 12.8108 0.907933
158 1 -1.1104 9.32789 12.9809 4.06569
137 2 2.2208 -0.413639 17.2342 5.23359
311 2 2.2208 -0.382834 19.9967 8.07413
288 1 -1.1104 6.57073 18.6963 9.50373
50 2 2.2208 13.5171 -2.59471 5.21207
130 2 2.2208 2.38281 14.2566 5.26144
536 2 2.2208 5.02789 14.5609 13.5628
119 2 2.2208 5.18733 14.2522 2.55508
106 2 2.2208 5.35966 17.1059 5.31566
109 1 -1.1104 1.09422 18.3851 1.11403
114 1 -1.1104 0.934145 18.592 3.74581
116 1 -1.1104 1.0224 15.7838 0.932675
120 2 2.2208 5.22927 20.1302 2.38337
121 1 -1.1104 0.989409 15.812 3.87371
125 1 -1.1104 3.87751 18.6086 0.89778
127 2 2.2208 2.36389 17.3374 2.5432
129 1 -1.1104 3.71207 18.8094 4.03253
131 2 2.2208 2.31901 20.0658 5.29467
132 1 -1.1104 3.72609 15.8447 1.2087
134 1 -1.1104 3.83042 15.7203 3.9519
122 1 -1.1104 6.63151 15.6362 3.87647
139 1 -1.1104 6.23836 18.6962 3.90036
112 1 -1.1104 6.87755 18.7143 6.80398
126 1 -1.1104 4.06918 18.655 6.68631
117 1 -1.1104 0.96816 15.7647 6.85182
156 1 -1.1104 9.71362 18.5687 6.77344
150 2 2.2208 10.7573 14.3974 2.33762
140 1 -1.1104 6.50757 15.8639 1.01659
138 1 -1.1104 6.67261 18.7381 1.30489
141 2 2.2208 10.8134 17.2567 5.17137
144 1 -1.1104 12.0688 18.9467 1.00467
147 1 -1.1104 12.2572 18.6774 3.84017
148 1 -1.1104 12.4578 16.0308 0.833711
151 2 2.2208 10.7888 20.133 2.41303
152 1 -1.1104 12.2316 15.8293 3.73461
155 1 -1.1104 9.36961 18.341 1.07631
157 2 2.2208 7.86205 17.1641 2.51482
159 1 -1.1104 9.11951 18.5689 3.98472
160 2 2.2208 7.96156 14.2604 5.15224
161 2 2.2208 8.01179 20.154 5.33771
162 1 -1.1104 9.54367 15.7253 0.95885
164 1 -1.1104 9.37779 15.6206 3.8107
118 1 -1.1104 6.71434 15.8777 6.75748
163 1 -1.1104 9.45755 15.939 6.47392
145 1 -1.1104 12.4524 18.5833 6.73045
149 1 -1.1104 12.2377 15.8603 6.46118
166 1 -1.1104 0.794151 -3.90881 6.52841
172 1 -1.1104 3.42752 -3.887 6.161
174 1 -1.1104 3.55261 -1.03788 6.51847
171 1 -1.1104 6.35118 -1.13157 6.34516
170 1 -1.1104 0.790521 -0.855597 6.41234
175 2 2.2208 5.27083 0.41468 10.7921
176 1 -1.1104 1.15105 -3.79146 12.1757
180 1 -1.1104 0.860551 -3.70651 9.46501
184 1 -1.1104 1.18765 -0.786826 11.9957
186 2 2.2208 5.18494 -2.34018 8.03319
188 1 -1.1104 1.0979 -0.944181 9.2
190 1 -1.1104 4.06378 -4.15388 12.3226
192 2 2.2208 2.38086 0.554459 8.04421
193 1 -1.1104 3.79199 -3.77824 9.20703
195 2 2.2208 2.46804 -2.20376 10.6658
197 1 -1.1104 3.72134 -1.4535 12.5081
198 1 -1.1104 3.97665 -0.939438 9.5108
182 1 -1.1104 6.80774 -3.95586 9.52867
178 1 -1.1104 6.50983 -4.05167 12.2086
189 1 -1.1104 6.78375 -0.894961 9.3506
210 1 -1.1104 9.34458 -0.859817 6.39433
207 1 -1.1104 12.3771 -1.10004 6.48342
199 2 2.2208 13.6668 17.2549 8.09798
168 1 -1.1104 6.53583 -3.79181 6.68103
185 1 -1.1104 6.49357 -1.03234 11.9922
208 1 -1.1104 9.29862 -3.96072 6.5152
205 1 -1.1104 12.2264 -4.03527 6.53695
211 2 2.2208 10.8628 0.320714 10.6581
212 1 -1.1104 12.3068 -3.68818 12.405
214 1 -1.1104 12.1116 -3.85731 9.46756
216 1 -1.1104 12.4003 -1.06897 11.8793
217 2 2.2208 10.8426 -2.41309 7.85757
219 1 -1.1104 12.1968 -0.874587 9.32716
220 1 -1.1104 9.39366 -3.94603 12.4048
222 2 2.2208 7.84107 0.399412 7.90568
223 1 -1.1104 9.45447 -3.90616 9.45193
225 2 2.2208 7.97526 -2.34871 10.7689
227 1 -1.1104 9.32956 -1.0135 12.2852
228 1 -1.1104 9.44285 -1.10898 9.44333
9602 2 2.2208 13.622 0.399834 2.35017
349 2 2.2208 8.00911 19.8088 -0.216805
323 1 -1.1104 12.2895 15.8312 9.22436
236 1 -1.1104 0.980399 4.55614 6.63727
238 1 -1.1104 3.8081 7.12444 6.38365
9442 2 2.2208 13.417 3.18566 5.33075
173 1 -1.1104 3.89719 1.57915 6.53779
234 1 -1.1104 0.853079 7.34898 6.70145
167 1 -1.1104 0.977177 1.73725 6.56913
239 1 -1.1104 3.64861 4.50616 6.37104
177 1 -1.1104 0.841173 1.94838 12.0723
181 1 -1.1104 1.06135 1.94509 9.22999
187 2 2.2208 5.13753 3.10379 8.06095
191 1 -1.1104 3.65682 1.80087 12.1622
194 1 -1.1104 3.94527 1.71491 9.41927
196 2 2.2208 2.17974 3.27994 10.8813
240 2 2.2208 4.98237 6.06374 10.8821
242 1 -1.1104 1.14534 7.18903 12.4651
244 1 -1.1104 0.98738 7.54367 9.56441
246 1 -1.1104 0.727541 4.5883 12.4731
251 1 -1.1104 0.742911 4.6891 9.50227
255 1 -1.1104 3.65637 7.34858 12.1631
256 2 2.2208 2.11995 6.05501 7.93285
258 1 -1.1104 3.76774 7.20907 9.14055
260 1 -1.1104 3.63636 4.57164 12.0471
262 1 -1.1104 3.65399 4.44107 9.28077
243 1 -1.1104 6.62126 7.40901 12.3383
245 1 -1.1104 6.67797 7.41682 9.41682
265 1 -1.1104 12.3444 7.39524 6.85098
209 1 -1.1104 9.50155 1.89856 6.34822
267 1 -1.1104 9.46799 7.39068 6.73303
169 1 -1.1104 6.55781 1.48239 6.47289
253 1 -1.1104 6.4216 4.89753 9.39833
179 1 -1.1104 6.28655 1.61767 12.2764
183 1 -1.1104 6.74092 1.91355 9.42638
206 1 -1.1104 12.2203 1.74973 6.69736
235 1 -1.1104 6.6778 7.28068 6.67018
248 1 -1.1104 6.51741 4.31852 12.2282
269 1 -1.1104 9.23052 4.60151 6.44268
213 1 -1.1104 12.1164 1.79906 12.1618
215 1 -1.1104 12.3546 1.60826 9.34916
218 2 2.2208 10.7601 3.16711 7.98972
221 1 -1.1104 9.21942 1.90262 12.1326
224 1 -1.1104 9.52671 1.70033 9.28969
226 2 2.2208 7.94049 3.34454 10.7875
268 1 -1.1104 9.24625 4.48342 9.49497
271 1 -1.1104 9.38331 4.68638 12.4011
273 1 -1.1104 9.58295 7.21843 9.55117
275 2 2.2208 7.94829 6.03367 7.97084
276 2 2.2208 10.9302 5.99444 10.8981
278 1 -1.1104 12.2528 7.36974 12.2866
279 1 -1.1104 12.351 7.32684 9.58833
280 1 -1.1104 12.2157 4.37976 12.4267
283 1 -1.1104 12.1343 4.45967 9.4446
285 1 -1.1104 9.50476 7.56205 12.203
200 2 2.2208 -0.35944 -2.46106 7.88705
78 1 -1.1104 3.84376 9.93101 6.57228
108 1 -1.1104 0.839142 13.0203 6.68013
111 1 -1.1104 6.67124 13.1104 6.6761
124 1 -1.1104 3.73605 12.7136 6.51529
62 1 -1.1104 0.97502 10.1556 6.74017
241 2 2.2208 5.28639 11.5951 10.6776
247 1 -1.1104 1.08592 10.3851 12.1611
250 2 2.2208 5.20299 8.48096 7.87573
252 1 -1.1104 1.09612 10.0799 9.42871
257 2 2.2208 2.24635 11.6153 7.82816
259 2 2.2208 2.39998 8.93106 10.7771
261 1 -1.1104 3.8728 10.2889 12.0449
263 1 -1.1104 4.02623 9.84423 9.32577
287 1 -1.1104 3.65941 13.1991 12.0545
294 1 -1.1104 0.870374 13.0133 9.38678
299 1 -1.1104 0.771406 12.9758 12.191
305 1 -1.1104 3.65854 12.8705 9.25554
165 2 2.2208 13.5649 17.2914 2.52097
30 2 2.2208 -0.431029 11.6968 10.937
101 1 -1.1104 9.36395 10.0908 6.74431
320 2 2.2208 7.97561 17.2192 8.19895
254 1 -1.1104 6.82163 10.1105 9.56155
143 1 -1.1104 12.2653 13.1642 6.74675
154 1 -1.1104 9.48185 13.0551 6.66947
90 1 -1.1104 12.2968 10.1133 6.64298
65 1 -1.1104 6.55733 10.1181 6.60013
297 1 -1.1104 6.40477 13.0388 12.1503
249 1 -1.1104 6.47915 10.3684 12.3943
290 1 -1.1104 6.52002 13.0025 9.38298
322 1 -1.1104 9.0622 12.9551 12.2914
319 1 -1.1104 9.20662 12.8559 9.52088
229 1 -1.1104 12.1669 12.9261 12.1205
204 1 -1.1104 12.07 12.9582 9.50005
264 1 -1.1104 9.57772 10.1222 9.5002
270 1 -1.1104 9.27264 10.3863 12.2874
272 2 2.2208 8.06019 8.75549 10.76
274 2 2.2208 8.04537 11.6321 8.07421
277 2 2.2208 10.6698 11.584 10.8231
281 1 -1.1104 12.2552 10.2395 12.1701
282 2 2.2208 10.7612 8.68759 8.14556
284 1 -1.1104 12.3246 9.96469 9.18071
315 1 -1.1104 9.61471 15.7582 12.318
9013 2 2.2208 7.86629 -5.09425 2.20925
310 2 2.2208 2.47263 14.4542 10.7494
133 1 -1.1104 3.74094 15.9555 7.02036
302 1 -1.1104 1.00825 18.4902 6.6738
309 2 2.2208 2.22989 20.1522 10.9742
286 1 -1.1104 3.51363 18.8844 12.4957
291 1 -1.1104 0.763635 18.6491 9.43684
292 1 -1.1104 0.886249 15.8659 9.6006
293 2 2.2208 5.29595 20.0466 8.01941
295 2 2.2208 5.03474 14.2927 8.00153
298 1 -1.1104 0.764693 18.6589 12.384
300 2 2.2208 5.20062 17.3718 10.861
301 1 -1.1104 3.71871 18.494 9.67176
303 2 2.2208 2.40933 17.3841 8.07049
304 1 -1.1104 3.73372 15.6164 9.53069
307 1 -1.1104 0.918182 16.0275 12.4905
308 1 -1.1104 3.74416 16.0656 12.4647
9731 2 2.2208 13.562 0.365268 13.4765
306 1 -1.1104 6.62376 15.8579 12.3601
321 1 -1.1104 9.43031 18.9696 12.4474
318 1 -1.1104 9.45388 18.559 9.62701
230 1 -1.1104 12.1607 18.2834 12.4194
324 2 2.2208 11.0645 19.8151 8.26602
314 1 -1.1104 9.48635 15.8434 9.37821
232 1 -1.1104 12.3599 15.7413 12.102
289 1 -1.1104 6.56159 15.8055 9.47456
296 1 -1.1104 6.39073 18.7436 12.386
201 2 2.2208 10.9069 17.1508 11.0154
29 2 2.2208 -0.43645 8.75044 8.12142
317 2 2.2208 7.7818 14.4934 10.9677
233 2 2.2208 10.8668 14.5217 7.97338
231 1 -1.1104 12.1754 18.4565 9.53662
316 2 2.2208 7.94633 20.0139 10.9466
403 2 2.2208 2.46327 0.375808 13.5749
9470 2 2.2208 -0.318592 3.20072 7.89262
81 2 2.2208 -0.392606 5.90443 5.20583
9015 2 2.2208 13.5734 -5.1907 2.18592
343 2 2.2208 2.51292 14.4597 -0.266102
331 2 2.2208 5.21437 8.90781 13.6755
53 2 2.2208 13.5343 14.31 5.405
9443 2 2.2208 13.581 -2.49983 10.7503
9753 2 2.2208 -0.328447 -2.7746 13.5673
105 2 2.2208 13.5617 5.94137 2.33639
82 2 2.2208 -0.379042 8.77114 2.49244
9653 2 2.2208 13.6044 5.96076 8.25045
334 2 2.2208 10.9551 8.66077 13.5721
562 2 2.2208 10.8398 14.3942 13.6283
347 2 2.2208 -0.321089 8.90065 13.6402
436 2 2.2208 10.8909 -2.489 13.6053
332 2 2.2208 2.39582 11.7374 13.5387
339 2 2.2208 5.20534 0.380922 -0.328332
342 2 2.2208 2.40177 3.10105 -0.357024
362 2 2.2208 5.26255 0.405868 16.4883
363 1 -1.1104 0.882776 -4.14297 17.8461
367 1 -1.1104 1.01284 -4.01645 14.8908
375 1 -1.1104 0.973697 -1.09744 17.6094
377 2 2.2208 5.31528 -2.34282 19.4544
379 1 -1.1104 1.26777 -1.2003 14.7511
383 1 -1.1104 3.74646 -3.7699 17.8526
385 2 2.2208 2.2759 0.444123 19.1341
386 1 -1.1104 3.75401 -3.93748 15.1709
390 2 2.2208 2.31303 -2.54665 16.3115
392 1 -1.1104 3.78577 -0.991329 18.0006
393 1 -1.1104 4.00874 -1.11489 15.224
381 1 -1.1104 6.52116 -1.14727 14.9071
376 1 -1.1104 6.44283 -1.12918 17.899
9303 2 2.2208 5.30138 -5.31499 22.2164
9276 2 2.2208 7.99774 -5.11608 24.7725
340 2 2.2208 2.20191 -2.3215 27.7172
371 1 -1.1104 6.77595 -4.0643 15.2609
365 1 -1.1104 6.67991 -3.91035 18.0056
405 2 2.2208 10.8389 0.337831 16.4108
406 1 -1.1104 12.2032 -3.89467 17.7205
408 1 -1.1104 12.3761 -3.91603 15.0349
412 1 -1.1104 12.0578 -1.14084 17.7438
413 2 2.2208 10.7597 -2.5253 19.2438
415 1 -1.1104 12.2662 -1.01849 14.7593
417 1 -1.1104 9.30867 -3.8371 18.0087
419 2 2.2208 8.19162 0.429808 19.4082
420 1 -1.1104 9.45769 -3.73169 15.0283
424 2 2.2208 7.86499 -2.42743 16.6177
426 1 -1.1104 9.39588 -1.07233 17.9259
427 1 -1.1104 9.27065 -1.05156 15.2032
9278 2 2.2208 2.41584 -5.23677 24.8516
9330 2 2.2208 5.2548 -5.29653 16.4618
337 2 2.2208 8.11829 17.3066 13.8635
355 2 2.2208 5.28664 11.3861 27.7307
364 1 -1.1104 0.867336 1.77904 17.9529
369 1 -1.1104 0.837792 1.92317 14.943
378 2 2.2208 5.29811 3.11804 19.594
384 1 -1.1104 3.76898 1.73226 17.7985
388 1 -1.1104 3.6995 1.67118 14.9383
391 2 2.2208 2.29587 3.0461 16.4671
438 2 2.2208 5.14488 5.99443 16.5293
440 1 -1.1104 0.831903 7.40556 17.9358
442 1 -1.1104 1.14258 7.64626 15.0478
446 1 -1.1104 0.975631 4.59674 17.7171
451 1 -1.1104 0.768269 4.68109 15.0259
459 1 -1.1104 3.77811 7.47333 17.7806
460 2 2.2208 2.41237 6.00267 19.2919
462 1 -1.1104 3.896 7.41147 14.9949
465 1 -1.1104 3.51968 4.76978 17.6596
467 1 -1.1104 3.75286 4.3685 14.8544
441 1 -1.1104 6.51524 7.55127 17.946
374 1 -1.1104 6.6765 1.76219 20.8285
9277 2 2.2208 10.9907 -5.32894 21.9198
9307 2 2.2208 7.90921 -5.27738 19.3881
9794 2 2.2208 13.5379 0.340249 19.0424
9028 2 2.2208 4.93324 -5.20467 27.6277
444 1 -1.1104 6.61477 7.39019 15.2109
448 1 -1.1104 6.70598 4.82076 17.8555
455 1 -1.1104 6.58941 4.45148 15.128
373 1 -1.1104 6.74901 1.66212 15.1484
366 1 -1.1104 6.7761 1.86617 18.1536
407 1 -1.1104 12.2638 1.67953 17.7255
410 1 -1.1104 12.3527 1.7027 15.1003
414 2 2.2208 10.8659 3.20696 19.2791
418 1 -1.1104 9.52439 1.84528 17.9293
422 1 -1.1104 9.60877 1.64816 15.0442
425 2 2.2208 7.98822 3.10762 16.7134
474 2 2.2208 10.8749 6.07668 16.5252
476 1 -1.1104 12.3224 7.43989 17.8724
477 1 -1.1104 12.3032 7.51391 15.2002
479 1 -1.1104 12.0852 4.50965 17.875
482 1 -1.1104 12.3233 4.56904 15.1643
487 2 2.2208 8.01825 6.10895 19.2202
489 1 -1.1104 9.34532 7.45823 14.9401
492 1 -1.1104 9.36789 4.60561 17.7892
494 1 -1.1104 9.45687 4.6189 15.1149
486 1 -1.1104 9.41391 7.3768 17.8927
483 1 -1.1104 12.3451 4.57882 20.8011
423 1 -1.1104 9.41642 2.07312 20.5983
499 2 2.2208 8.01529 14.2835 22.0101
439 2 2.2208 4.95859 11.591 16.3777
447 1 -1.1104 0.952642 10.3277 17.7491
450 2 2.2208 5.19733 8.85329 19.2772
453 1 -1.1104 0.959444 10.4597 15.239
461 2 2.2208 2.35495 11.6596 19.3397
464 2 2.2208 2.1525 8.91825 16.5374
466 1 -1.1104 3.85185 10.4338 17.9411
469 1 -1.1104 3.59378 10.2951 15.0406
502 1 -1.1104 1.14426 13.1152 17.9408
506 1 -1.1104 0.623021 13.2029 15.2324
522 1 -1.1104 3.77696 12.9873 17.9809
525 1 -1.1104 3.52689 13.0645 14.8919
510 1 -1.1104 6.3902 12.9849 14.8799
449 1 -1.1104 6.68387 10.3307 17.8059
9732 2 2.2208 13.5701 -2.48186 27.5645
504 1 -1.1104 6.36945 13.1074 17.9058
434 2 2.2208 13.5823 20.1353 16.6445
511 1 -1.1104 6.61804 13.0225 20.6639
17627 2 2.2208 -0.282743 -5.20244 21.8978
335 2 2.2208 7.86 11.6619 13.6586
599 2 2.2208 10.8695 17.2849 22.1864
628 1 -1.1104 12.4417 15.6737 23.5815
471 2 2.2208 8.04667 17.1841 24.9489
457 1 -1.1104 6.50812 10.2449 15.1618
475 2 2.2208 10.7518 11.5036 16.3847
480 1 -1.1104 12.1479 10.0736 17.9217
481 2 2.2208 10.7692 8.75406 19.3135
484 1 -1.1104 12.3841 10.1166 15.215
488 2 2.2208 7.80496 11.5944 19.2068
491 2 2.2208 7.98325 8.72004 16.4526
493 1 -1.1104 9.27152 10.1843 17.7831
496 1 -1.1104 9.40331 10.2288 15.0054
538 1 -1.1104 12.3021 12.9028 17.709
540 1 -1.1104 12.3035 13.2102 14.8739
549 1 -1.1104 9.3458 12.8741 17.9768
552 1 -1.1104 9.32597 13.1162 15.1483
404 1 -1.1104 12.2044 15.5595 26.2567
516 2 2.2208 5.22248 14.4443 19.4138
501 2 2.2208 5.22127 17.239 16.4606
503 1 -1.1104 0.760297 18.5693 18.1322
508 1 -1.1104 0.90132 18.7476 15.2235
514 1 -1.1104 1.25565 16.0406 18.1282
517 2 2.2208 5.16979 20.1802 19.3543
518 1 -1.1104 0.852962 15.899 15.3421
523 1 -1.1104 3.60963 18.7574 17.9017
524 2 2.2208 2.3983 17.2787 19.5836
527 1 -1.1104 3.53418 18.7902 15.2856
529 2 2.2208 2.25454 14.4612 16.5857
530 2 2.2208 2.2247 20.2562 16.6518
531 1 -1.1104 4.03994 15.9978 18.0416
532 1 -1.1104 3.63868 15.788 15.2352
520 1 -1.1104 6.41594 15.7153 14.9752
505 1 -1.1104 6.5518 18.8195 18.1655
512 1 -1.1104 6.59988 18.636 15.2754
327 2 2.2208 5.20342 3.11711 13.6922
498 1 -1.1104 9.26137 18.4224 26.5838
629 2 2.2208 10.8284 14.3782 24.7867
519 1 -1.1104 0.896838 15.8691 20.8405
533 1 -1.1104 3.71831 15.8132 20.8817
500 2 2.2208 7.95692 20.0249 22.3836
433 2 2.2208 13.4981 20.0119 22.2336
354 2 2.2208 2.4831 8.7867 27.7317
435 1 -1.1104 9.49397 18.5344 23.6909
627 1 -1.1104 12.2911 18.4251 26.5674
515 1 -1.1104 6.924 15.9142 17.6299
556 2 2.2208 8.01873 14.3434 16.2531
537 2 2.2208 10.914 17.2058 16.4855
539 1 -1.1104 12.1003 18.5706 18.27
542 1 -1.1104 12.2315 18.5629 15.1593
544 1 -1.1104 12.2451 15.7777 17.6847
545 2 2.2208 10.7302 14.3481 19.2456
546 2 2.2208 10.8039 19.8998 19.459
547 1 -1.1104 12.2477 15.9164 14.8724
550 1 -1.1104 9.26658 18.6169 17.9439
551 2 2.2208 8.06323 17.202 19.4071
554 1 -1.1104 9.40396 18.6336 15.28
557 2 2.2208 7.88825 20.1493 16.7293
558 1 -1.1104 9.67632 15.9223 17.9596
559 1 -1.1104 9.52595 15.9065 15.1326
548 1 -1.1104 12.3455 15.8551 20.7282
555 1 -1.1104 9.3525 18.5325 20.8914
684 2 2.2208 10.8427 20.1851 25.0894
561 1 -1.1104 9.44138 15.6256 23.6328
437 2 2.2208 10.7716 3.0436 13.6998
387 1 -1.1104 3.87164 -4.04696 20.6489
380 1 -1.1104 1.31061 -1.11217 20.5766
394 1 -1.1104 4.11972 -1.08186 20.9329
368 1 -1.1104 1.11886 -3.89689 20.6055
565 2 2.2208 5.22838 0.497068 22.1745
566 1 -1.1104 1.10799 -3.87391 23.4745
570 1 -1.1104 0.820852 -3.75819 26.4482
574 1 -1.1104 0.963888 -0.934359 23.4703
576 2 2.2208 5.18434 -2.50058 24.916
578 1 -1.1104 0.882699 -0.956708 26.2642
580 1 -1.1104 3.79636 -3.87909 23.4102
582 2 2.2208 2.37831 0.256005 24.9249
583 1 -1.1104 3.64293 -3.93991 26.2298
585 2 2.2208 2.4645 -2.47356 22.0362
587 1 -1.1104 3.83498 -0.890578 23.593
588 1 -1.1104 3.69726 -0.994257 26.4366
572 1 -1.1104 6.51525 -3.94548 26.2599
372 1 -1.1104 6.60321 -3.89353 20.7982
568 1 -1.1104 6.55226 -3.7561 23.3376
579 1 -1.1104 6.53907 -1.32424 26.3392
575 1 -1.1104 6.43978 -1.0168 23.4397
398 2 2.2208 13.628 14.416 22.2846
409 1 -1.1104 12.2211 -4.02413 20.424
428 1 -1.1104 9.45106 -0.937055 20.6328
416 1 -1.1104 12.1223 -1.24042 20.6708
472 1 -1.1104 6.62177 18.45 26.3477
382 1 -1.1104 6.78339 -1.03527 20.64
421 1 -1.1104 9.5449 -3.8234 20.7319
601 2 2.2208 11.1147 0.490086 22.1971
602 1 -1.1104 12.1989 -3.76339 23.5603
604 1 -1.1104 12.1719 -3.88873 26.2264
606 1 -1.1104 12.205 -1.02301 23.5775
607 2 2.2208 10.8696 -2.41991 24.931
609 1 -1.1104 12.2441 -0.839199 26.2116
610 1 -1.1104 9.44576 -3.58384 23.6645
612 2 2.2208 8.05086 0.145027 24.9421
613 1 -1.1104 9.33771 -3.95279 26.3744
615 2 2.2208 7.96516 -2.59421 22.1332
617 1 -1.1104 9.36016 -1.00123 23.517
618 1 -1.1104 9.547 -1.1622 26.4353
560 1 -1.1104 9.60254 15.7251 20.6779
370 1 -1.1104 0.880726 1.75254 20.5595
389 1 -1.1104 3.79291 1.85633 20.7257
463 1 -1.1104 3.62837 7.41935 20.681
468 1 -1.1104 3.61669 4.5925 20.9045
452 1 -1.1104 0.969527 4.7228 20.8016
443 1 -1.1104 1.04167 7.53291 20.7362
567 1 -1.1104 1.1442 1.6019 23.6271
571 1 -1.1104 0.86035 1.8048 26.2231
577 2 2.2208 5.31422 3.03543 24.993
581 1 -1.1104 3.83261 1.80693 23.9174
584 1 -1.1104 3.78583 1.93054 26.5375
586 2 2.2208 2.4027 3.21221 22.2567
630 2 2.2208 5.19943 5.91062 22.1835
632 1 -1.1104 1.05157 7.23026 23.5855
634 1 -1.1104 0.85555 7.47378 26.5767
636 1 -1.1104 0.931919 4.53605 23.4354
641 1 -1.1104 0.960206 4.66989 26.3502
645 1 -1.1104 4.01554 7.31269 23.6105
646 2 2.2208 2.53505 6.03311 24.9466
650 1 -1.1104 3.91995 4.47618 23.7529
652 1 -1.1104 3.70315 4.65407 26.4625
648 1 -1.1104 3.89358 7.30741 26.2507
638 1 -1.1104 6.78046 4.68358 23.6389
569 1 -1.1104 6.73326 1.81347 23.4902
633 1 -1.1104 6.74244 7.45392 23.375
635 1 -1.1104 6.77545 7.39116 26.0591
445 1 -1.1104 6.52816 7.30563 20.5988
456 1 -1.1104 6.49356 4.64516 20.693
490 1 -1.1104 9.3745 7.37061 20.6563
411 1 -1.1104 12.3728 1.6808 20.7137
478 1 -1.1104 12.315 7.45585 20.7322
495 1 -1.1104 9.48117 4.69121 20.4919
643 1 -1.1104 6.63717 4.5293 26.2911
573 1 -1.1104 6.70991 1.33199 26.322
603 1 -1.1104 12.371 1.69131 23.5434
605 1 -1.1104 12.1994 1.71918 26.3372
608 2 2.2208 10.8635 3.30647 24.8473
611 1 -1.1104 9.55379 1.66906 23.4701
614 1 -1.1104 9.30941 1.61561 26.3267
616 2 2.2208 8.13901 3.30018 21.9407
662 1 -1.1104 9.48385 4.38083 26.2169
664 1 -1.1104 9.42689 4.67562 23.2518
666 1 -1.1104 9.37859 7.32348 26.5338
668 2 2.2208 8.1409 5.92876 25.0672
669 2 2.2208 10.9616 6.14219 22.1431
671 1 -1.1104 12.1785 7.22832 23.9785
672 1 -1.1104 12.3365 7.3936 26.6219
673 1 -1.1104 12.2173 4.50998 23.2728
676 1 -1.1104 12.1162 4.56601 26.2266
678 1 -1.1104 9.42896 7.33366 23.7282
563 1 -1.1104 9.33441 15.6501 26.3193
454 1 -1.1104 0.791591 10.1903 20.4813
507 1 -1.1104 0.813925 12.7574 20.9202
470 1 -1.1104 3.83726 10.251 20.6906
526 1 -1.1104 3.77122 13.0923 20.7086
631 2 2.2208 5.20558 11.7933 22.0537
637 1 -1.1104 0.805611 9.90452 23.3027
640 2 2.2208 5.44245 8.83586 24.8732
642 1 -1.1104 1.15671 10.0965 26.3076
647 2 2.2208 2.47098 11.7027 24.9868
649 2 2.2208 2.23528 8.72607 21.9825
651 1 -1.1104 3.59876 10.0315 23.517
653 1 -1.1104 3.95612 10.3127 26.2472
619 1 -1.1104 4.13188 12.9753 26.2568
656 1 -1.1104 0.925327 12.9468 23.6578
683 1 -1.1104 1.16296 13.0313 26.3943
687 1 -1.1104 3.98197 13.1918 23.3016
686 1 -1.1104 6.91398 12.779 26.5795
660 1 -1.1104 6.60284 13.1903 23.4569
598 1 -1.1104 6.67543 16.0537 23.4576
458 1 -1.1104 6.6766 10.2073 20.7234
9025 2 2.2208 10.7858 -5.32553 27.6122
553 1 -1.1104 9.30267 13.0722 20.7093
541 1 -1.1104 12.1092 13.0726 20.7381
497 1 -1.1104 9.37365 10.2477 20.6305
485 1 -1.1104 12.2618 10.2826 20.5977
644 1 -1.1104 6.95749 10.1091 26.3968
639 1 -1.1104 6.60274 10.447 23.4852
626 1 -1.1104 12.4271 12.9324 26.4442
661 1 -1.1104 9.56419 10.2024 26.2932
663 1 -1.1104 9.54181 10.0566 23.5006
665 2 2.2208 7.9228 8.70669 22.0091
667 2 2.2208 8.1926 11.5241 25.0577
670 2 2.2208 10.6629 11.4365 22.1105
674 1 -1.1104 12.3765 10.0979 23.5428
675 2 2.2208 10.9148 8.86838 25.1355
677 1 -1.1104 12.3314 10.1189 26.2828
600 1 -1.1104 12.2429 12.9652 23.5103
429 1 -1.1104 9.42749 12.7709 23.4431
473 1 -1.1104 9.4639 13.0358 26.4408
521 1 -1.1104 6.72428 15.8208 20.6513
681 1 -1.1104 6.52975 18.6357 23.7244
623 2 2.2208 -0.356639 11.8339 16.5319
622 1 -1.1104 12.2326 18.4867 23.5025
543 1 -1.1104 12.2376 18.4523 20.9962
688 1 -1.1104 6.50034 15.6461 26.2712
509 1 -1.1104 0.862621 18.8833 21.0178
528 1 -1.1104 3.67912 18.8091 20.8866
591 2 2.2208 2.49459 14.428 22.1315
593 2 2.2208 2.37424 20.0916 22.3583
595 1 -1.1104 3.78803 15.7858 23.5456
597 1 -1.1104 1.03761 15.6253 23.5219
620 1 -1.1104 3.68165 15.8366 26.5034
621 2 2.2208 2.37939 17.2119 24.9911
654 1 -1.1104 3.62455 18.5664 26.2457
655 2 2.2208 5.2159 17.3339 22.3178
657 1 -1.1104 1.03647 18.4935 23.7883
679 2 2.2208 5.37086 14.4359 24.8319
680 2 2.2208 5.14247 19.9591 25.1581
685 1 -1.1104 3.78066 18.6677 23.6941
689 1 -1.1104 0.650004 18.872 26.5452
690 1 -1.1104 0.97244 15.8568 26.3041
513 1 -1.1104 6.65169 18.664 20.9192
358 2 2.2208 10.8261 6.00542 27.7272
348 2 2.2208 10.8694 17.115 27.6573
431 2 2.2208 -0.372438 14.439 19.418
535 2 2.2208 5.01833 20.1728 13.691
625 2 2.2208 13.619 11.6849 19.45
360 2 2.2208 10.6937 11.5933 27.789
397 2 2.2208 -0.374675 20.1749 13.7871
336 2 2.2208 10.8735 19.9315 13.9034
592 2 2.2208 13.5942 17.2753 19.4309
400 2 2.2208 13.5482 6.00633 19.2992
9327 2 2.2208 10.7004 -5.301 16.4234
333 2 2.2208 8.02514 6.08263 13.6222
330 2 2.2208 2.31173 5.83275 13.7662
399 2 2.2208 13.7219 17.1057 25.0193
534 2 2.2208 2.21501 17.2674 13.9916
594 2 2.2208 13.6323 14.3198 16.5386
10005 2 2.2208 13.6445 -2.47165 16.3261
351 2 2.2208 7.96802 -2.3956 27.7662
350 2 2.2208 10.7904 0.453757 27.7283
344 2 2.2208 5.08549 17.1607 27.7141
346 2 2.2208 7.92454 14.5339 27.7677
329 2 2.2208 7.90476 0.426777 13.7477
402 2 2.2208 5.17326 -2.62132 13.7616
325 2 2.2208 13.5827 14.2645 27.6905
691 2 2.2208 5.07547 22.8454 5.34057
693 1 -1.1104 0.816026 24.5656 0.982507
694 1 -1.1104 0.900159 24.2222 3.96812
695 1 -1.1104 0.995066 21.3687 1.16183
697 2 2.2208 5.20515 25.8332 2.5379
698 1 -1.1104 0.851653 21.5359 3.89693
700 1 -1.1104 3.69656 24.1586 1.2637
701 2 2.2208 2.32354 22.8174 2.34557
703 1 -1.1104 3.64531 24.3655 3.90762
704 2 2.2208 2.34449 25.7177 5.24714
705 1 -1.1104 3.78284 21.5367 0.780011
707 1 -1.1104 3.60139 21.5832 3.72917
696 1 -1.1104 1.05358 27.3965 1.10017
716 1 -1.1104 6.49544 21.3427 4.09616
714 1 -1.1104 6.75217 21.4415 1.24438
1009 2 2.2208 13.5801 31.4182 5.33363
1013 2 2.2208 13.5363 22.7923 8.2464
839 1 -1.1104 3.81836 21.3036 6.54633
838 1 -1.1104 3.63784 24.1654 6.61435
834 1 -1.1104 0.987204 21.4031 6.63849
1012 2 2.2208 13.3842 28.5943 8.18049
713 1 -1.1104 6.43198 24.1909 3.8889
715 1 -1.1104 6.60854 27.1817 1.26505
712 1 -1.1104 6.59834 24.3392 1.20121
718 2 2.2208 10.8611 22.8458 5.23949
720 1 -1.1104 12.0293 24.5697 1.14375
721 1 -1.1104 12.2105 24.5526 3.98872
722 1 -1.1104 12.2077 21.7204 1.04031
724 2 2.2208 10.7868 25.8869 2.68839
725 1 -1.1104 12.1657 21.4956 3.81421
727 1 -1.1104 9.56082 24.1727 1.23631
728 2 2.2208 7.98891 22.8744 2.46652
730 1 -1.1104 9.48604 24.2915 4.06751
731 2 2.2208 8.02527 25.7238 5.46103
732 1 -1.1104 9.64008 21.2179 1.05764
734 1 -1.1104 9.44948 21.5924 3.7484
735 1 -1.1104 9.38792 27.3052 3.95161
726 1 -1.1104 11.952 27.2259 4.13441
733 1 -1.1104 9.32877 26.978 1.10231
723 1 -1.1104 12.1187 27.2848 1.22052
1014 2 2.2208 -0.256624 28.643 11.0374
1036 2 2.2208 13.4352 25.7685 -0.163991
833 1 -1.1104 6.53016 24.4106 6.69307
836 1 -1.1104 6.47635 21.4846 6.87275
869 1 -1.1104 9.25857 21.4554 6.44735
866 1 -1.1104 12.2499 21.4927 6.63546
870 1 -1.1104 9.49928 27.2218 6.92844
708 1 -1.1104 3.71686 27.1291 3.78863
706 1 -1.1104 3.97746 27.0699 0.971814
699 1 -1.1104 0.883763 27.1547 3.8769
692 2 2.2208 5.12695 28.6186 5.37292
702 2 2.2208 2.41743 28.7041 2.5269
740 1 -1.1104 0.916587 30.2457 1.2455
743 1 -1.1104 1.01199 30.0181 4.14239
746 1 -1.1104 1.13563 32.8684 1.14791
747 2 2.2208 5.19191 31.3375 2.76422
749 1 -1.1104 0.685024 32.8792 3.78748
751 1 -1.1104 3.7066 29.9753 1.12842
754 1 -1.1104 3.79784 30.0654 3.93776
756 2 2.2208 2.37098 31.4521 5.39565
758 1 -1.1104 3.96604 32.7946 1.3135
759 1 -1.1104 3.54674 33.1029 4.09002
764 1 -1.1104 6.56204 29.7541 4.19553
1021 2 2.2208 -0.457563 34.406 11.0222
1039 2 2.2208 2.37311 31.4368 -0.159266
835 1 -1.1104 1.03185 27.2726 6.64753
897 1 -1.1104 3.72365 32.8161 6.77445
891 1 -1.1104 6.52376 29.9488 7.07422
717 1 -1.1104 6.62698 27.0386 4.02983
1040 2 2.2208 5.09162 34.1741 -0.258591
750 1 -1.1104 6.70026 32.6996 4.25716
765 1 -1.1104 6.57518 32.6222 1.36917
763 1 -1.1104 6.62307 29.8822 1.2874
719 2 2.2208 10.661 28.6043 5.43237
729 2 2.2208 7.97473 28.5259 2.57792
767 1 -1.1104 12.6555 29.7395 1.04588
769 1 -1.1104 12.1978 30.0023 4.12636
771 1 -1.1104 11.9265 32.7649 1.09657
772 2 2.2208 10.8731 31.2921 2.65786
774 1 -1.1104 12.2438 32.8026 3.85736
775 1 -1.1104 9.48662 29.9169 1.4351
778 1 -1.1104 9.40042 30.1242 4.17664
780 2 2.2208 7.86285 31.2681 5.58344
782 1 -1.1104 9.3221 32.6496 0.976922
783 1 -1.1104 9.47346 32.7831 3.86356
926 1 -1.1104 9.28732 29.971 6.8834
928 1 -1.1104 9.3682 32.7979 6.80913
925 1 -1.1104 12.2753 32.6093 6.74836
737 2 2.2208 13.5439 28.3039 2.53101
1023 2 2.2208 13.604 45.3416 8.04663
739 2 2.2208 5.27165 34.2532 5.62672
741 1 -1.1104 0.808865 35.6002 1.10674
744 1 -1.1104 1.05891 35.8475 4.00132
748 2 2.2208 5.13958 37.126 2.53166