LAMMPS (29 Oct 2020)
OMP_NUM_THREADS environment is not set. Defaulting to 1 thread. (../comm.cpp:94)
  using 1 OpenMP thread(s) per MPI task
OMP_NUM_THREADS environment is not set. Defaulting to 1 thread. (../comm.cpp:94)
  using 1 OpenMP thread(s) per MPI task
Reading data file ...
  orthogonal box = (-0.10026525 -1.0569087 -0.10889795) to (27.994265 335.78491 28.002898)
  2 by 13 by 2 MPI processor grid
  reading atoms ...
  18000 atoms
Finding 1-2 1-3 1-4 neighbors ...
  special bond factors lj:    0.0      0.0      0.0     
  special bond factors coul:  0.0      0.0      0.0     
     0 = max # of 1-2 neighbors
     0 = max # of 1-3 neighbors
     0 = max # of 1-4 neighbors
     1 = max # of special neighbors
  special bonds CPU = 0.005 seconds
  read_data CPU = 0.039 seconds
Setting atom values ...
  12000 settings made for charge
Setting atom values ...
  6000 settings made for charge
PPPM initialization ...
  using 12-bit tables for long-range coulomb (../kspace.cpp:328)
  G vector (1/distance) = 0.29878619
  grid = 40 240 40
  stencil order = 5
  estimated absolute RMS force accuracy = 0.00015806843
  estimated relative force accuracy = 1.0977245e-05
  using single precision MKL FFT
  3d grid and FFT values/proc = 15000 7600
Neighbor list info ...
  update every 1 steps, delay 0 steps, check yes
  max neighbors/atom: 2000, page size: 100000
  master list distance cutoff = 11.3
  ghost atom cutoff = 11.3
  binsize = 5.65, bins = 5 60 5
  2 neighbor lists, perpetual/occasional/extra = 2 0 0
  (1) pair coul/long, perpetual
      attributes: half, newton on
      pair build: half/bin/newton
      stencil: half/bin/3d/newton
      bin: standard
  (2) pair eam/alloy, perpetual, copy from (1)
      attributes: half, newton on
      pair build: copy
      stencil: none
      bin: none
Setting up Verlet run ...
  Unit style    : metal
  Current step  : 0
  Time step     : 0.001
Per MPI rank memory allocation (min/avg/max) = 8.159 | 8.184 | 8.200 Mbytes
Step Temp E_pair E_mol TotEng Press 
       0          600    -235126.3            0   -233730.37   -261.20563 
  100000    596.81285   -235130.17            0   -233741.65   -731.76169 
Loop time of 658.087 on 52 procs for 100000 steps with 18000 atoms

Performance: 13.129 ns/day, 1.828 hours/ns, 151.956 timesteps/s
99.8% CPU use with 52 MPI tasks x 1 OpenMP threads

MPI task timing breakdown:
Section |  min time  |  avg time  |  max time  |%varavg| %total
---------------------------------------------------------------
Pair    | 445.59     | 452.75     | 462.98     |  21.3 | 68.80
Bond    | 0.0050632  | 0.0098302  | 0.013829   |   2.0 |  0.00
Kspace  | 136.52     | 147.73     | 155.95     |  45.9 | 22.45
Neigh   | 33.329     | 34.89      | 37.577     |  18.7 |  5.30
Comm    | 16.787     | 18.399     | 19.879     |  17.6 |  2.80
Output  | 5.3553e-05 | 5.9661e-05 | 0.0002679  |   0.0 |  0.00
Modify  | 1.9856     | 2.8503     | 4.679      |  47.6 |  0.43
Other   |            | 1.458      |            |       |  0.22

Nlocal:        346.154 ave         374 max         328 min
Histogram: 1 8 15 5 6 7 6 2 1 1
Nghost:        4148.81 ave        4257 max        4052 min
Histogram: 4 8 3 3 8 9 5 4 5 3
Neighs:        69886.7 ave       74916 max       66166 min
Histogram: 1 5 14 7 7 8 3 3 1 3

Total # of neighbors = 3634108
Ave neighs/atom = 201.89489
Ave special neighs/atom = 0.0000000
Neighbor list builds = 16242
Dangerous builds = 0
12000 atoms in group oxygen
PPPM initialization ...
  using 12-bit tables for long-range coulomb (../kspace.cpp:328)
  G vector (1/distance) = 0.29878619
  grid = 40 240 40
  stencil order = 5
  estimated absolute RMS force accuracy = 0.00015806843
  estimated relative force accuracy = 1.0977245e-05
  using single precision MKL FFT
  3d grid and FFT values/proc = 15000 7600
Setting up Verlet run ...
  Unit style    : metal
  Current step  : 0
  Time step     : 0.001
Per MPI rank memory allocation (min/avg/max) = 8.409 | 8.434 | 8.451 Mbytes
Step f_2 Temp v_Tdiff v_deltaT 
       0            0    596.81285            0            0 
  100000    692.27668    599.42247  0.018673648    216.79931 
  200000    1359.0253    599.71859  0.020620303    239.39981 
  300000    2040.4525     604.5093  0.019971788    231.87061 
  400000    2721.8424    604.52769   0.01933012     224.4209 
  500000    3396.8258    611.38332  0.020445508    237.37045 
  600000    4080.0672    609.15438  0.020454381    237.47347 
  700000    4755.1761    607.88855  0.020889111    242.52064 
  800000    5428.6756    606.15901  0.021082953    244.77113 
  900000    6104.5498    604.18522  0.020092943     233.2772 
 1000000    6788.8904      599.543  0.019970143     231.8515 
 1100000    7478.2055    612.78305  0.019664823    228.30677 
 1200000    8158.5693    609.87068  0.020530677    238.35926 
 1300000    8840.7532    607.87521  0.020327103    235.99578 
 1400000    9522.8077     606.5399  0.020411473     236.9753 
 1500000    10202.518     609.2035  0.020532668    238.38237 
Loop time of 9818.71 on 52 procs for 1500000 steps with 18000 atoms

Performance: 13.199 ns/day, 1.818 hours/ns, 152.769 timesteps/s
99.8% CPU use with 52 MPI tasks x 1 OpenMP threads

MPI task timing breakdown:
Section |  min time  |  avg time  |  max time  |%varavg| %total
---------------------------------------------------------------
Pair    | 6599.7     | 6730.5     | 6939.2     |  96.7 | 68.55
Bond    | 0.079855   | 0.14467    | 0.21362    |   7.7 |  0.00
Kspace  | 2007.7     | 2228.5     | 2378.5     | 184.5 | 22.70
Neigh   | 513.96     | 536.33     | 576.92     |  66.0 |  5.46
Comm    | 247.46     | 274.5      | 299.99     |  71.1 |  2.80
Output  | 0.0017064  | 0.0017906  | 0.0035902  |   0.6 |  0.00
Modify  | 8.1948     | 8.8615     | 9.743      |  11.5 |  0.09
Other   |            | 39.93      |            |       |  0.41

Nlocal:        346.154 ave         366 max         328 min
Histogram: 2 3 8 12 5 4 8 5 2 3
Nghost:        4140.92 ave        4265 max        4025 min
Histogram: 4 1 3 12 9 6 6 7 1 3
Neighs:        69887.3 ave       74174 max       66560 min
Histogram: 4 6 9 7 7 2 8 4 3 2

Total # of neighbors = 3634142
Ave neighs/atom = 201.89678
Ave special neighs/atom = 0.0000000
Neighbor list builds = 249976
Dangerous builds = 0
Total wall time: 2:54:37
