LAMMPS (29 Oct 2020)
OMP_NUM_THREADS environment is not set. Defaulting to 1 thread. (../comm.cpp:94)
  using 1 OpenMP thread(s) per MPI task
#---------------------------------------
#
# This script is used to calculate the thermal conuctivity of UO2 using Muller-Plathe method
# By Ziqiang Wang on 03/18/2022 on Jilin university
#
#---------------------------------------

variable     Nevery    equal   50
variable     T         equal   1200

clear
OMP_NUM_THREADS environment is not set. Defaulting to 1 thread. (../comm.cpp:94)
  using 1 OpenMP thread(s) per MPI task
units          metal
boundary       p p p
atom_style     full

read_data vac_0.015_relaxed.dat
Reading data file ...
  orthogonal box = (-0.43542843 -5.3128959 -0.43819455) to (27.775428 333.39290 27.778195)
  2 by 13 by 2 MPI processor grid
  reading atoms ...
  17730 atoms
  reading velocities ...
  17730 velocities
Finding 1-2 1-3 1-4 neighbors ...
  special bond factors lj:    0.0      0.0      0.0     
  special bond factors coul:  0.0      0.0      0.0     
     0 = max # of 1-2 neighbors
     0 = max # of 1-3 neighbors
     0 = max # of 1-4 neighbors
     1 = max # of special neighbors
  special bonds CPU = 0.004 seconds
  read_data CPU = 0.072 seconds

set           type     1    charge     -1.1104
Setting atom values ...
  11820 settings made for charge
set           type     2    charge      2.2208
Setting atom values ...
  5910 settings made for charge

kspace_style    pppm   1.0e-05
pair_style      hybrid/overlay  coul/long  11.0  eam/alloy
pair_coeff      * * coul/long
pair_coeff      * * eam/alloy CeThUNpPuAmCmO.eam.alloy O Th
newton          on
neighbor        0.3 bin
neigh_modify    delay 0 check yes every 1

#The first equilation
velocity        all create $T 10003 mom yes rot yes dist gaussian
velocity        all create 1200 10003 mom yes rot yes dist gaussian
fix             nvt  all  nvt  temp  $T $T  0.1
fix             nvt  all  nvt  temp  1200 $T  0.1
fix             nvt  all  nvt  temp  1200 1200  0.1

run             50000
PPPM initialization ...
  using 12-bit tables for long-range coulomb (../kspace.cpp:328)
  G vector (1/distance) = 0.2985055
  grid = 40 240 40
  stencil order = 5
  estimated absolute RMS force accuracy = 0.00015915354
  estimated relative force accuracy = 1.1052602e-05
  using single precision MKL FFT
  3d grid and FFT values/proc = 15000 7600
Neighbor list info ...
  update every 1 steps, delay 0 steps, check yes
  max neighbors/atom: 2000, page size: 100000
  master list distance cutoff = 11.3
  ghost atom cutoff = 11.3
  binsize = 5.65, bins = 5 60 5
  2 neighbor lists, perpetual/occasional/extra = 2 0 0
  (1) pair coul/long, perpetual
      attributes: half, newton on
      pair build: half/bin/newton
      stencil: half/bin/3d/newton
      bin: standard
  (2) pair eam/alloy, perpetual, copy from (1)
      attributes: half, newton on
      pair build: copy
      stencil: none
      bin: none
Per MPI rank memory allocation (min/avg/max) = 8.147 | 8.171 | 8.190 Mbytes
Step Temp E_pair E_mol TotEng Press 
       0         1200   -230220.41            0   -227470.42   -246.86044 
   50000    1192.1867   -230211.57            0   -227479.49    439.79407 
Loop time of 335.191 on 52 procs for 50000 steps with 17730 atoms

Performance: 12.888 ns/day, 1.862 hours/ns, 149.169 timesteps/s
99.8% CPU use with 52 MPI tasks x 1 OpenMP threads

MPI task timing breakdown:
Section |  min time  |  avg time  |  max time  |%varavg| %total
---------------------------------------------------------------
Pair    | 218.93     | 223.12     | 231.11     |  18.5 | 66.56
Bond    | 0.0032862  | 0.0050478  | 0.0072702  |   1.2 |  0.00
Kspace  | 67.979     | 77.139     | 81.723     |  34.7 | 23.01
Neigh   | 20.904     | 22.836     | 24.853     |  17.5 |  6.81
Comm    | 9.0067     | 9.8435     | 10.989     |  14.3 |  2.94
Output  | 5.3901e-05 | 5.9174e-05 | 0.00025655 |   0.0 |  0.00
Modify  | 1.0281     | 1.4932     | 2.5013     |  37.5 |  0.45
Other   |            | 0.7551     |            |       |  0.23

Nlocal:        340.962 ave         370 max         321 min
Histogram: 2 5 5 13 13 8 3 1 1 1
Nghost:        4004.00 ave        4093 max        3881 min
Histogram: 4 4 2 6 2 3 7 11 8 5
Neighs:        67866.8 ave       74215 max       61625 min
Histogram: 2 2 4 10 7 13 4 7 2 1

Total # of neighbors = 3529075
Ave neighs/atom = 199.04540
Ave special neighs/atom = 0.0000000
Neighbor list builds = 10982
Dangerous builds = 0
unfix           nvt
reset_timestep  0

# the second run
fix             1 all nve

group           oxygen type 1
11820 atoms in group oxygen
fix             2 oxygen thermal/conductivity ${Nevery} y 20
fix             2 oxygen thermal/conductivity 50 y 20

compute         ke all ke/atom
variable        temp atom c_ke/1.5
compute         layers all chunk/atom bin/1d y lower 0.05 units reduced
fix             3      all ave/chunk  2000 50 100000 layers v_temp file profile_${T}K.mp
fix             3      all ave/chunk  2000 50 100000 layers v_temp file profile_1200K.mp

variable        Tdiff    equal     f_3[11][3]-f_3[1][3]
variable        deltaT   equal     v_Tdiff*1.5/0.0001292

timestep        0.001
thermo_style    custom step f_2 temp v_Tdiff v_deltaT
thermo          100000

run             1000000
PPPM initialization ...
  using 12-bit tables for long-range coulomb (../kspace.cpp:328)
  G vector (1/distance) = 0.2985055
  grid = 40 240 40
  stencil order = 5
  estimated absolute RMS force accuracy = 0.00015915354
  estimated relative force accuracy = 1.1052602e-05
  using single precision MKL FFT
  3d grid and FFT values/proc = 15000 7600
Per MPI rank memory allocation (min/avg/max) = 8.397 | 8.422 | 8.441 Mbytes
Step f_2 Temp v_Tdiff v_deltaT 
       0            0    1192.1867            0            0 
  100000    1308.8312    1189.6601  0.049290316    572.25599 
  200000     2557.031    1185.8249  0.058010325    673.49448 
  300000     3794.498    1187.2594  0.057361402    665.96055 
  400000    5036.4655    1202.8101  0.058575578    680.05702 
  500000    6277.1984    1201.6039  0.056994155    661.69684 
  600000    7533.8153    1191.5095  0.057078332    662.67414 
  700000    8785.9209    1188.0616  0.057608431    668.82853 
  800000    10023.465    1194.2448  0.057559409    668.25939 
  900000      11272.7    1191.3306  0.057286003    665.08518 
 1000000    12525.207    1195.8465  0.056619961    657.35249 
Loop time of 6730.76 on 52 procs for 1000000 steps with 17730 atoms

Performance: 12.837 ns/day, 1.870 hours/ns, 148.572 timesteps/s
99.8% CPU use with 52 MPI tasks x 1 OpenMP threads

MPI task timing breakdown:
Section |  min time  |  avg time  |  max time  |%varavg| %total
---------------------------------------------------------------
Pair    | 4351.8     | 4478.7     | 4589       |  83.1 | 66.54
Bond    | 0.063464   | 0.10106    | 0.13055    |   5.2 |  0.00
Kspace  | 1391.8     | 1524       | 1652.9     | 164.2 | 22.64
Neigh   | 450.32     | 489.57     | 528.48     |  87.9 |  7.27
Comm    | 183        | 201.17     | 229.71     |  77.4 |  2.99
Output  | 0.0011117  | 0.0011811  | 0.0023459  |   0.5 |  0.00
Modify  | 5.625      | 6.1518     | 6.708      |  10.1 |  0.09
Other   |            | 31.07      |            |       |  0.46

Nlocal:        340.962 ave         361 max         321 min
Histogram: 3 5 5 7 6 7 5 5 2 7
Nghost:        3995.38 ave        4119 max        3908 min
Histogram: 9 7 7 5 3 5 7 1 5 3
Neighs:        67856.1 ave       72998 max       61279 min
Histogram: 5 1 4 4 6 6 7 8 6 5

Total # of neighbors = 3528516
Ave neighs/atom = 199.01387
Ave special neighs/atom = 0.0000000
Neighbor list builds = 235794
Dangerous builds = 0

Total wall time: 1:57:46
