ITEM: TIMESTEP
40000
ITEM: NUMBER OF ATOMS
17910
ITEM: BOX BOUNDS pp pp pp
-3.9602790927587123e-01 2.7736027909275691e+01
-4.6943372788452367e+00 3.3277433727883442e+02
-3.8892932729419150e-01 2.7728929327294583e+01
ITEM: ATOMS id type q x y z
1 2 2.2208 5.22387 1.09547 5.32242
2 1 -1.1104 0.886813 -3.18707 1.1918
3 1 -1.1104 0.856922 2.46231 1.03511
6 1 -1.1104 1.0029 -3.26426 3.89233
7 1 -1.1104 0.806083 2.22656 3.6882
10 1 -1.1104 0.796963 -0.339714 1.0346
12 2 2.2208 5.40412 -1.77364 2.4199
13 2 2.2208 5.09073 3.80947 2.31
14 1 -1.1104 1.0482 -0.406394 3.873
16 1 -1.1104 3.90976 -3.34768 1.03094
17 1 -1.1104 3.64995 2.39239 0.891989
18 2 2.2208 2.32262 0.941802 2.4941
19 1 -1.1104 3.96066 -3.10781 3.71913
20 1 -1.1104 3.62485 2.47843 3.58897
21 2 2.2208 2.29295 -1.85323 5.16774
22 2 2.2208 2.2348 3.7837 5.09744
23 1 -1.1104 3.7969 -0.438639 1.08864
24 1 -1.1104 3.97551 -0.357377 4.02551
5 1 -1.1104 6.54026 2.4335 1.04303
15 1 -1.1104 6.73733 -0.365434 3.77054
4 1 -1.1104 6.54536 -3.13127 1.0057
11 1 -1.1104 6.64407 -0.30979 0.821426
9 1 -1.1104 6.49345 2.27068 3.9939
170 1 -1.1104 0.800575 -0.650589 6.64719
169 1 -1.1104 6.57121 2.54001 6.63771
171 1 -1.1104 6.81882 -0.185052 6.44234
8 1 -1.1104 6.59497 -3.29417 3.80366
173 1 -1.1104 3.82115 2.37983 6.52463
168 1 -1.1104 6.74774 -3.15553 6.59859
172 1 -1.1104 3.84074 -3.06415 6.49509
331 2 2.2208 13.4371 20.5982 10.6667
174 1 -1.1104 3.77219 -0.403684 6.76312
31 2 2.2208 10.8132 1.10022 5.26163
32 1 -1.1104 12.1672 -3.37238 0.871482
33 1 -1.1104 12.1549 2.49561 0.857699
34 1 -1.1104 12.2764 -3.2652 3.85495
35 1 -1.1104 12.1764 2.39547 3.72891
36 1 -1.1104 12.1817 -0.547301 0.899452
37 2 2.2208 10.8143 -1.77168 2.4027
38 2 2.2208 10.9335 3.82885 2.25903
39 1 -1.1104 12.2756 -0.380128 3.72028
40 1 -1.1104 9.33707 -3.2584 1.11021
41 1 -1.1104 9.27123 2.49269 1.00188
42 2 2.2208 8.00438 1.07114 2.41516
43 1 -1.1104 9.52262 -3.23112 3.88269
44 1 -1.1104 9.39001 2.3719 3.91429
45 2 2.2208 8.09991 -1.71989 5.12241
47 1 -1.1104 9.29481 -0.24001 1.0415
48 1 -1.1104 9.45782 -0.416008 3.75991
46 2 2.2208 7.88921 3.76589 5.21062
49 2 2.2208 13.6108 0.97692 2.38069
207 1 -1.1104 12.18 -0.260204 6.48275
206 1 -1.1104 12.379 2.38178 6.59991
205 1 -1.1104 12.3559 -3.10988 6.64236
208 1 -1.1104 9.31075 -3.33979 6.68753
50 2 2.2208 13.6829 -1.69573 5.15375
683 2 2.2208 2.31289 20.757 -0.432613
210 1 -1.1104 9.47439 -0.534393 6.62163
209 1 -1.1104 9.44173 2.24818 6.62871
232 2 2.2208 10.5779 -4.5621 10.8466
54 2 2.2208 5.29985 6.5453 4.98078
55 2 2.2208 5.12907 12.4773 5.34397
56 1 -1.1104 0.812892 8.04248 1.01476
58 1 -1.1104 1.08773 7.9413 3.73783
60 1 -1.1104 0.879138 4.94707 0.942521
61 1 -1.1104 0.933211 10.7478 0.870294
66 2 2.2208 5.08722 9.31251 2.43003
67 1 -1.1104 0.851836 5.15045 3.81682
68 1 -1.1104 0.903092 10.8904 3.54415
71 1 -1.1104 3.64183 7.92506 0.920395
72 2 2.2208 2.28995 6.46346 2.38998
73 2 2.2208 2.3632 12.0361 2.24879
74 1 -1.1104 3.8151 7.85432 3.73597
75 2 2.2208 2.22921 9.48334 5.22609
76 1 -1.1104 3.75119 5.32362 0.84356
77 1 -1.1104 3.95178 10.686 1.03537
79 1 -1.1104 3.73867 5.00793 3.6355
80 1 -1.1104 3.55247 10.8889 3.90376
239 1 -1.1104 3.59589 5.09767 6.58011
57 1 -1.1104 6.63794 8.21647 0.866943
70 1 -1.1104 6.53009 10.7772 3.56547
63 1 -1.1104 6.43178 5.49261 0.963498
235 1 -1.1104 6.44233 7.86614 6.39949
59 1 -1.1104 6.56476 7.91226 3.75824
64 1 -1.1104 6.68294 11.0244 0.949475
236 1 -1.1104 0.940542 5.25206 6.51827
238 1 -1.1104 3.58884 8.09672 6.52281
69 1 -1.1104 6.74468 5.14902 3.61525
237 1 -1.1104 6.55565 5.19408 6.3425
62 1 -1.1104 0.89651 10.7064 6.48052
234 1 -1.1104 0.830055 8.09351 6.6541
78 1 -1.1104 3.68157 10.7633 6.64939
84 2 2.2208 10.9008 6.52623 4.93677
85 2 2.2208 10.6386 12.3432 5.08089
86 1 -1.1104 12.108 8.2251 0.707618
87 1 -1.1104 12.0619 7.95031 3.53703
88 1 -1.1104 12.2119 5.41963 0.829072
89 1 -1.1104 12.1886 10.9695 0.904737
91 2 2.2208 10.7628 9.42158 2.12877
92 1 -1.1104 12.364 5.06868 3.5707
93 1 -1.1104 12.1104 10.7728 3.64723
94 1 -1.1104 9.28885 8.08966 0.721037
95 2 2.2208 8.05322 6.69404 2.15434
96 2 2.2208 7.98374 12.2736 2.27609
97 1 -1.1104 9.33953 7.88745 3.73998
98 2 2.2208 7.97206 9.28455 5.04374
99 1 -1.1104 9.31458 5.20395 0.941045
100 1 -1.1104 9.3919 10.7723 0.905365
102 1 -1.1104 9.62319 5.04727 3.6446
103 1 -1.1104 9.41596 10.7662 3.69898
326 2 2.2208 13.5262 9.45344 4.99983
29 2 2.2208 5.26847 -4.49344 5.21069
267 1 -1.1104 9.02697 8.15126 6.7137
90 1 -1.1104 12.175 10.7343 6.59145
269 1 -1.1104 9.43653 5.20948 6.56077
101 1 -1.1104 9.29928 10.8712 6.4298
266 1 -1.1104 12.1749 5.09175 6.3719
265 1 -1.1104 12.0999 7.82404 6.29705
106 2 2.2208 5.15661 17.7695 5.23123
107 1 -1.1104 0.962802 13.6953 1.06286
109 1 -1.1104 1.00082 19.4611 0.942093
113 1 -1.1104 1.10533 13.6095 3.73173
114 1 -1.1104 0.86535 19.2331 3.64775
116 1 -1.1104 0.862773 16.4096 0.91481
119 2 2.2208 5.186 15.0291 2.41708
120 2 2.2208 5.0586 20.5449 2.40916
121 1 -1.1104 0.934623 16.5709 3.69585
123 1 -1.1104 3.64086 13.3782 0.775321
125 1 -1.1104 3.71859 19.2631 0.924219
127 2 2.2208 2.31705 17.8242 2.35292
128 1 -1.1104 3.8292 13.6619 3.6194
129 1 -1.1104 3.6618 19.2074 3.91797
130 2 2.2208 2.24334 15.0965 5.06223
131 2 2.2208 2.37028 20.7029 5.14471
132 1 -1.1104 3.49981 16.3651 0.940838
134 1 -1.1104 3.78116 16.4924 3.66149
140 1 -1.1104 6.52648 16.622 1.10426
122 1 -1.1104 6.53893 16.3391 4.10202
110 1 -1.1104 6.59931 13.6691 0.966836
115 1 -1.1104 6.47698 13.5188 3.80125
139 1 -1.1104 6.41383 19.1752 3.84566
138 1 -1.1104 6.48277 19.3513 1.10233
124 1 -1.1104 3.75951 13.7958 6.65134
111 1 -1.1104 6.58807 13.712 6.60634
302 1 -1.1104 0.733812 19.3289 6.35794
126 1 -1.1104 3.65801 19.27 6.70396
118 1 -1.1104 6.51466 16.5056 6.80213
108 1 -1.1104 0.8131 13.6446 6.51138
133 1 -1.1104 3.64055 16.6287 6.56541
117 1 -1.1104 0.958915 16.3244 6.43486
112 1 -1.1104 6.42176 19.2309 6.72338
165 2 2.2208 13.6864 17.8831 2.404
327 2 2.2208 13.5202 20.8021 5.0889
143 1 -1.1104 12.2117 13.7225 6.43333
141 2 2.2208 10.796 17.9183 5.19606
142 1 -1.1104 12.3174 13.7286 0.826845
144 1 -1.1104 12.1579 19.1887 1.12468
146 1 -1.1104 12.1941 13.478 3.74194
147 1 -1.1104 12.2201 19.1304 3.88918
148 1 -1.1104 12.2543 16.5304 0.756114
150 2 2.2208 10.8282 15.0094 2.24249
151 2 2.2208 10.6517 20.7147 2.35509
152 1 -1.1104 12.1201 16.2447 3.62234
153 1 -1.1104 9.26268 13.6358 0.997447
155 1 -1.1104 9.37725 19.2861 1.04377
157 2 2.2208 7.8965 17.8161 2.39797
158 1 -1.1104 9.25574 13.6795 3.68553
159 1 -1.1104 9.14616 19.2395 3.87178
160 2 2.2208 8.01574 14.917 5.24536
161 2 2.2208 7.77279 20.7024 5.22959
162 1 -1.1104 9.39668 16.5219 1.08682
164 1 -1.1104 9.38962 16.4216 3.9389
328 2 2.2208 13.6161 15.1567 5.05187
154 1 -1.1104 9.44256 13.6506 6.54232
163 1 -1.1104 9.31669 16.3312 6.67301
145 1 -1.1104 12.1198 19.4636 6.4307
149 1 -1.1104 12.2628 16.6303 6.44277
167 1 -1.1104 0.911593 2.309 6.482
166 1 -1.1104 0.875082 -3.28522 6.73103
175 2 2.2208 5.07538 0.844294 10.7532
176 1 -1.1104 0.840643 -3.33741 12.1311
177 1 -1.1104 0.792906 2.37687 12.1934
180 1 -1.1104 0.877908 -3.31669 9.50414
181 1 -1.1104 0.957246 2.20941 9.35701
184 1 -1.1104 0.888607 -0.532409 12.156
186 2 2.2208 5.20745 -1.9426 7.90496
187 2 2.2208 5.11975 3.67368 8.08057
188 1 -1.1104 0.887042 -0.444857 9.34316
190 1 -1.1104 3.62442 -3.28383 12.1473
191 1 -1.1104 3.58047 2.54053 12.3932
192 2 2.2208 2.21411 0.802162 7.87015
193 1 -1.1104 3.75561 -3.24374 9.47814
194 1 -1.1104 3.72885 2.40573 9.45576
195 2 2.2208 2.2344 -1.87997 10.8425
197 1 -1.1104 3.7113 -0.422851 12.1191
198 1 -1.1104 3.55928 -0.473766 9.48914
196 2 2.2208 2.27945 3.61276 10.7814
189 1 -1.1104 6.47966 -0.595554 9.23231
182 1 -1.1104 6.32225 -3.43758 9.3195
179 1 -1.1104 6.35759 2.43134 12.1338
183 1 -1.1104 6.67271 2.14839 9.38471
178 1 -1.1104 6.27457 -3.42978 12.2609
185 1 -1.1104 6.49174 -0.46501 12.0976
378 2 2.2208 2.33377 0.890141 13.6616
28 2 2.2208 2.52277 -4.69072 2.45727
333 2 2.2208 5.08791 -1.92462 13.638
412 2 2.2208 10.7414 3.7827 13.5225
202 2 2.2208 2.29321 -4.68592 8.03888
211 2 2.2208 10.6052 0.855997 10.8033
212 1 -1.1104 11.9837 -3.34061 12.3917
213 1 -1.1104 11.982 2.19159 12.017
214 1 -1.1104 12.301 -3.43977 9.36406
215 1 -1.1104 12.2345 2.38872 9.28061
216 1 -1.1104 12.2444 -0.659926 12.3022
217 2 2.2208 10.8377 -1.72664 7.98955
218 2 2.2208 10.8205 3.76677 7.91222
219 1 -1.1104 12.0203 -0.630832 9.51843
220 1 -1.1104 8.98944 -3.44069 12.1412
221 1 -1.1104 9.21783 2.31038 12.1001
222 2 2.2208 8.04904 0.908596 7.97977
223 1 -1.1104 9.31206 -3.27319 9.46476
224 1 -1.1104 9.37103 2.25739 9.40065
225 2 2.2208 7.76773 -2.0752 10.7639
226 2 2.2208 7.90243 3.80394 10.7654
227 1 -1.1104 9.33725 -0.479113 12.5637
228 1 -1.1104 9.19674 -0.49655 9.49087
9779 2 2.2208 13.5823 -1.85612 10.8498
410 2 2.2208 7.72031 0.834803 13.6912
712 2 2.2208 13.4359 6.55643 13.562
104 2 2.2208 13.5329 12.2811 2.29099
53 2 2.2208 13.5729 -4.64396 2.30034
9614 2 2.2208 13.6466 3.96918 10.6535
65 1 -1.1104 6.47595 10.7889 6.47495
446 2 2.2208 2.19904 6.6546 13.4496
240 2 2.2208 5.19593 6.4366 10.7887
241 2 2.2208 5.17827 12.141 10.7944
242 1 -1.1104 0.823348 8.03022 12.1134
244 1 -1.1104 0.771387 8.01025 9.51528
246 1 -1.1104 0.988307 5.14208 12.1063
247 1 -1.1104 1.06806 10.8463 12.08
250 2 2.2208 5.13126 9.29832 7.9272
251 1 -1.1104 0.944856 5.08321 9.25632
252 1 -1.1104 1.01635 11.0039 9.29285
255 1 -1.1104 3.7424 7.999 11.9824
256 2 2.2208 2.44805 6.56097 7.94687
257 2 2.2208 2.31829 12.2372 8.06618
258 1 -1.1104 3.73452 8.06053 9.34097
259 2 2.2208 2.23553 9.41066 10.6297
260 1 -1.1104 3.71621 5.26451 12.1463
261 1 -1.1104 3.75004 10.8088 12.0993
262 1 -1.1104 3.65594 5.1573 9.29445
263 1 -1.1104 3.77588 10.7192 9.28298
248 1 -1.1104 6.65604 4.99242 12.2386
254 1 -1.1104 6.65218 10.5825 9.27431
245 1 -1.1104 6.52086 7.81336 9.35544
243 1 -1.1104 6.59285 7.85981 12.1395
249 1 -1.1104 6.46695 10.6013 12.2066
253 1 -1.1104 6.43487 5.16854 9.42656
447 2 2.2208 5.0703 9.36722 13.5125
448 2 2.2208 2.37888 12.1871 13.5821
716 2 2.2208 13.3722 12.1254 13.5468
330 2 2.2208 13.5546 9.35422 10.6743
474 2 2.2208 10.6194 9.45954 13.4417
329 2 2.2208 13.6464 12.2136 7.76417
264 1 -1.1104 9.44805 10.6641 9.38623
268 1 -1.1104 9.3394 5.06595 9.32439
270 1 -1.1104 9.36167 10.882 12.0701
271 1 -1.1104 9.23487 5.03176 12.1171
272 2 2.2208 7.88779 9.41794 10.7128
273 1 -1.1104 9.32706 7.91354 9.46171
274 2 2.2208 7.97947 12.1502 7.84037
275 2 2.2208 7.92335 6.45673 7.92029
276 2 2.2208 10.7892 6.53085 10.7915
277 2 2.2208 10.8289 12.2546 10.5579
278 1 -1.1104 12.1036 7.97633 12.0295
279 1 -1.1104 12.2051 7.91241 9.38684
280 1 -1.1104 12.067 5.09972 12.0724
281 1 -1.1104 12.0834 10.6536 11.963
282 2 2.2208 10.7662 9.34773 8.0112
283 1 -1.1104 12.1397 5.34439 9.26799
284 1 -1.1104 12.2656 10.8995 9.26001
285 1 -1.1104 9.2646 7.96739 12.1851
9690 2 2.2208 13.6883 6.71796 7.96085
199 2 2.2208 -0.371765 3.77672 7.93724
475 2 2.2208 8.00062 12.1664 13.5181
510 2 2.2208 4.92752 20.6154 13.624
289 1 -1.1104 6.36239 16.3143 9.44493
297 1 -1.1104 6.66252 13.5679 12.0956
290 1 -1.1104 6.45463 13.4057 9.35022
288 1 -1.1104 6.53467 19.1102 9.53831
296 1 -1.1104 6.50892 19.2013 12.2588
286 1 -1.1104 3.58692 19.3446 12.2685
287 1 -1.1104 3.78318 13.7266 12.3034
291 1 -1.1104 0.911411 19.2535 9.14338
292 1 -1.1104 0.87675 16.3923 9.51125
293 2 2.2208 5.04464 20.6831 8.01681
294 1 -1.1104 1.01289 13.644 9.29509
295 2 2.2208 5.02597 15.045 8.09262
298 1 -1.1104 0.859643 19.2514 12.1842
299 1 -1.1104 1.08887 13.6673 12.0872
300 2 2.2208 5.12604 17.9342 10.7867
301 1 -1.1104 3.69808 19.2288 9.43405
303 2 2.2208 2.09822 17.7333 7.92253
304 1 -1.1104 3.49127 16.474 9.36737
305 1 -1.1104 3.76877 13.3676 9.48882
307 1 -1.1104 0.951338 16.3924 12.074
308 1 -1.1104 3.83089 16.4059 12.091
309 2 2.2208 2.26919 20.7537 10.5721
310 2 2.2208 2.23027 15.0686 10.8019
306 1 -1.1104 6.74816 16.3482 12.3443
509 2 2.2208 2.35311 17.6778 13.5231
511 2 2.2208 5.32962 14.9182 13.6175
204 1 -1.1104 12.1843 13.6455 9.26624
320 2 2.2208 8.00047 17.7047 8.06814
316 2 2.2208 7.83382 20.5972 10.8778
156 1 -1.1104 9.37081 19.1243 6.75418
200 1 -1.1104 12.2685 13.5778 12.0895
325 2 2.2208 10.9699 15.1345 7.94458
230 1 -1.1104 12.0828 16.2833 12.1694
136 2 2.2208 -0.465429 20.7166 2.4065
319 1 -1.1104 9.16192 13.4814 9.2714
324 2 2.2208 10.639 20.5292 7.95366
537 2 2.2208 10.7752 15.0173 13.5554
539 2 2.2208 13.5988 17.8204 13.5238
536 2 2.2208 10.7174 20.7554 13.567
318 1 -1.1104 9.22177 19.2092 9.43195
321 1 -1.1104 9.37402 19.2674 12.2146
201 1 -1.1104 12.3248 19.1819 12.1602
322 1 -1.1104 9.27252 13.5594 12.0977
317 2 2.2208 7.91328 14.8697 10.7554
314 1 -1.1104 9.25932 16.2422 9.37453
81 2 2.2208 10.7579 17.6093 10.7338
538 2 2.2208 8.00524 17.7048 13.6124
323 1 -1.1104 12.1694 16.452 9.40081
315 1 -1.1104 9.42813 16.5426 12.1684
229 1 -1.1104 12.1256 19.1504 9.11581
26 2 2.2208 13.5875 17.985 7.84994
473 2 2.2208 7.90438 6.55447 13.472
52 2 2.2208 10.7734 -4.55513 5.43654
598 2 2.2208 10.6567 -4.6308 -0.304033
9815 2 2.2208 13.4956 0.901011 13.4065
51 2 2.2208 7.93868 -4.59098 2.31064
105 2 2.2208 13.6416 6.53054 2.23288
9701 2 2.2208 -0.382587 12.2927 10.8599
565 2 2.2208 2.33921 -2.02256 -0.171303
631 2 2.2208 5.11768 12.0659 -0.344812
337 2 2.2208 5.11965 0.846095 16.4974
338 1 -1.1104 0.904378 -3.21789 17.9463
339 1 -1.1104 0.816781 2.48025 17.7778
342 1 -1.1104 0.805748 -3.35995 15.0771
344 1 -1.1104 1.02821 2.36452 14.8948
350 1 -1.1104 0.683686 -0.297507 17.6899
352 2 2.2208 5.10003 -2.00231 19.1847
354 1 -1.1104 0.584103 -0.50077 15.1821
358 1 -1.1104 3.68522 -3.39226 17.9963
359 1 -1.1104 3.60791 2.34016 17.8423
360 2 2.2208 2.20745 0.989294 19.1715
361 1 -1.1104 3.58508 -3.33018 15.0522
363 1 -1.1104 3.77419 2.24598 15.2196
365 2 2.2208 2.22061 -1.91667 16.5203
366 2 2.2208 2.33015 3.76285 16.3585
367 1 -1.1104 3.54871 -0.520138 17.97
368 1 -1.1104 3.62055 -0.596485 14.9136
353 2 2.2208 5.05639 3.66772 19.2753
346 1 -1.1104 6.45338 -3.1807 15.0208
340 1 -1.1104 6.5488 -3.43893 17.9667
348 1 -1.1104 6.58809 2.35435 15.0285
351 1 -1.1104 6.51533 -0.573374 17.774
356 1 -1.1104 6.42858 -0.529614 15.0524
341 1 -1.1104 6.3648 2.41508 17.7692
364 1 -1.1104 3.63031 2.30107 20.6571
362 1 -1.1104 3.67398 -3.3233 20.7337
343 1 -1.1104 0.794402 -3.27711 20.7925
369 1 -1.1104 3.73111 -0.734162 20.669
347 1 -1.1104 6.59777 -3.20981 20.5663
357 1 -1.1104 6.57556 -0.287362 20.4824
355 1 -1.1104 0.878173 -0.537896 20.5962
380 2 2.2208 10.5969 1.04439 16.385
381 1 -1.1104 11.995 -3.34128 18.0863
382 1 -1.1104 12.1052 2.42131 17.7175
383 1 -1.1104 11.9788 -3.19322 15.2621
385 1 -1.1104 12.1517 2.3108 14.792
387 1 -1.1104 12.0492 -0.474157 17.7159
388 2 2.2208 10.6804 -1.85572 19.2381
389 2 2.2208 10.5774 3.82046 19.1689
390 1 -1.1104 12.1033 -0.29901 15.0014
392 1 -1.1104 9.28325 -3.09355 17.8432
393 1 -1.1104 9.27033 2.37418 17.6703
394 2 2.2208 7.97756 1.05778 19.2415
395 1 -1.1104 9.14723 -3.50795 15.1954
397 1 -1.1104 9.30254 2.24494 14.8702
399 2 2.2208 7.9358 -1.88941 16.5233
401 1 -1.1104 9.47168 -0.208911 17.8223
402 1 -1.1104 9.35067 -0.545068 15.0574
400 2 2.2208 7.85496 3.85657 16.3708
403 1 -1.1104 9.15252 -0.409632 20.4628
396 1 -1.1104 9.36024 -3.31281 20.6757
398 1 -1.1104 9.19483 2.47361 20.6378
391 1 -1.1104 12.0293 -0.287171 20.5554
709 2 2.2208 13.5308 3.70713 16.3624
9853 2 2.2208 13.4769 -1.86496 16.2915
384 1 -1.1104 12.2747 -3.29055 20.8451
386 1 -1.1104 11.9118 2.2926 20.384
710 2 2.2208 13.4153 0.914698 19.1406
413 2 2.2208 4.99064 6.55455 16.221
414 2 2.2208 5.15557 12.14 16.442
415 1 -1.1104 1.12124 8.005 17.7799
417 1 -1.1104 0.847218 7.99569 15.0477
421 1 -1.1104 0.882091 5.1916 18.1179
422 1 -1.1104 0.852255 10.8095 17.9274
425 2 2.2208 5.14359 9.47843 19.1952
426 1 -1.1104 0.817325 5.13241 15.1118
428 1 -1.1104 0.977732 10.7967 14.9644
434 1 -1.1104 3.91895 7.85428 17.829
435 2 2.2208 2.35428 6.55767 19.1208
436 2 2.2208 2.29011 12.2626 19.2159
437 1 -1.1104 3.60319 8.02611 14.8656
439 2 2.2208 2.3244 9.38276 16.4807
440 1 -1.1104 3.63857 5.26598 17.6407
441 1 -1.1104 3.83629 10.7855 17.6882
442 1 -1.1104 3.50633 5.22539 14.9416
444 1 -1.1104 3.62337 10.7477 14.9031
423 1 -1.1104 6.40235 5.2625 17.7585
419 1 -1.1104 6.50907 7.99926 14.9762
430 1 -1.1104 6.49612 5.33758 14.8794
418 1 -1.1104 0.933117 7.77629 20.7498
420 1 -1.1104 6.59673 7.75152 20.6334
424 1 -1.1104 6.63422 10.8336 17.9523
432 1 -1.1104 6.5075 10.7518 14.9116
416 1 -1.1104 6.46703 8.08753 17.6915
427 1 -1.1104 0.703213 4.93519 20.8069
445 1 -1.1104 3.78731 10.8595 20.5212
433 1 -1.1104 6.60071 10.7102 20.7104
431 1 -1.1104 6.44728 5.05184 20.5894
438 1 -1.1104 3.76009 8.10517 20.662
429 1 -1.1104 0.994368 10.6953 20.627
449 2 2.2208 10.4787 6.58126 16.2592
450 2 2.2208 10.5919 12.1108 16.2555
451 1 -1.1104 11.9437 7.80352 17.8606
452 1 -1.1104 12.0585 7.85847 14.8881
454 1 -1.1104 12.183 5.15493 17.7382
455 1 -1.1104 12.1493 10.7015 17.8071
456 2 2.2208 10.6884 9.25512 19.1745
457 1 -1.1104 12.0871 5.03582 15.0937
459 1 -1.1104 12.0099 10.7285 14.7615
461 1 -1.1104 9.16335 8.0158 17.7239
462 2 2.2208 7.84012 6.52862 19.0705
463 2 2.2208 8.0112 12.2186 19.4418
464 1 -1.1104 9.24219 7.94155 14.9314
466 2 2.2208 7.71343 9.36355 16.3717
467 1 -1.1104 9.19607 5.20478 17.7655
468 1 -1.1104 9.40339 10.8245 17.8946
469 1 -1.1104 9.23622 5.11469 14.8786
471 1 -1.1104 9.12544 10.7313 14.9856
599 2 2.2208 10.9651 -4.6174 22.0998
458 1 -1.1104 11.8977 5.21244 20.5624
460 1 -1.1104 12.0004 10.7588 20.631
715 2 2.2208 13.5239 12.3153 19.1067
470 1 -1.1104 9.09016 5.25603 20.6985
453 1 -1.1104 12.2097 8.02539 20.6298
465 1 -1.1104 9.29426 7.99853 20.6548
472 1 -1.1104 9.34282 10.7581 20.6799
713 2 2.2208 13.3884 9.29747 16.3648
629 2 2.2208 5.07124 6.60248 27.5406
476 2 2.2208 5.21222 17.7428 16.3181
477 1 -1.1104 1.0465 13.5197 17.654
478 1 -1.1104 0.87903 19.0965 17.7857
481 1 -1.1104 0.890198 13.5131 14.7833
483 1 -1.1104 0.825183 19.0641 14.9177
489 1 -1.1104 0.859606 16.2736 17.7476
491 2 2.2208 5.17481 15.0335 19.2156
492 2 2.2208 5.17171 20.7373 19.243
493 1 -1.1104 1.05319 16.2697 14.9724
497 1 -1.1104 3.84237 13.6196 17.8246
498 1 -1.1104 3.75346 19.3027 17.8667
499 2 2.2208 2.32128 17.7172 19.173
500 1 -1.1104 3.71156 13.3887 15.1322
502 1 -1.1104 3.71784 19.3005 15.1036
504 2 2.2208 2.34735 14.9564 16.3523
505 2 2.2208 2.15581 20.5591 16.506
506 1 -1.1104 3.69957 16.2873 17.5956
507 1 -1.1104 3.8191 16.4144 14.8225
479 1 -1.1104 6.64186 13.552 17.9734
480 1 -1.1104 6.57743 19.2097 17.8495
487 1 -1.1104 6.63967 19.2418 15.0134
490 1 -1.1104 6.54183 16.3398 17.7851
488 1 -1.1104 6.34196 19.3318 20.6907
495 1 -1.1104 6.60333 16.3248 15.0383
485 1 -1.1104 6.57132 13.4995 15.0151
494 1 -1.1104 0.989004 16.296 20.6737
482 1 -1.1104 0.887235 13.5099 20.4683
501 1 -1.1104 3.71192 13.6547 20.6085
484 1 -1.1104 0.919808 19.254 20.6379
503 1 -1.1104 3.5231 19.1842 20.6761
718 2 2.2208 13.5559 15.0729 16.3858
719 2 2.2208 13.565 17.8313 19.1292
720 2 2.2208 13.4025 20.7352 16.3481
512 2 2.2208 10.717 17.8829 16.4448
513 1 -1.1104 12.1461 13.5284 17.8148
514 1 -1.1104 12.1101 19.4594 17.9176
515 1 -1.1104 12.1691 13.5216 15.0775
517 1 -1.1104 12.0115 19.2791 14.884
519 1 -1.1104 12.0187 16.3812 17.9596
520 2 2.2208 10.6912 14.9642 19.2898
521 2 2.2208 10.6786 20.5571 19.4147
522 1 -1.1104 12.2445 16.4233 15.0059
524 1 -1.1104 9.37336 13.5788 17.7902
525 1 -1.1104 9.21281 19.3086 17.8079
526 2 2.2208 7.95209 17.8915 19.2731
527 1 -1.1104 9.39857 13.6169 14.804
529 1 -1.1104 9.30683 19.2049 15.1015
531 2 2.2208 8.02896 14.8896 16.3126
532 2 2.2208 7.88089 20.6837 16.4374
533 1 -1.1104 9.3052 16.5735 17.9263
534 1 -1.1104 9.41573 16.123 15.0903
530 1 -1.1104 9.25168 19.2654 20.6973
523 1 -1.1104 12.1488 16.2012 20.7365
528 1 -1.1104 9.34457 13.7265 20.7191
345 1 -1.1104 0.819935 2.18412 20.6141
349 1 -1.1104 6.54913 2.22905 20.5691
9856 2 2.2208 13.5387 -4.60841 19.3413
540 2 2.2208 5.07565 0.903759 21.9413
541 1 -1.1104 0.890582 -3.28854 23.6206
542 1 -1.1104 0.887849 2.23355 23.4491
545 1 -1.1104 1.02284 -3.44717 26.3992
546 1 -1.1104 0.887495 2.37935 26.446
549 1 -1.1104 1.00617 -0.467612 23.4375
551 2 2.2208 5.23918 -1.87408 24.998
552 2 2.2208 4.99573 3.82738 24.8685
553 1 -1.1104 0.80731 -0.40858 26.2662
555 1 -1.1104 3.97634 -3.29661 23.5137
556 1 -1.1104 3.67882 2.23646 23.4803
557 2 2.2208 2.26222 0.752825 24.9766
558 1 -1.1104 3.80826 -3.28736 26.3688
559 1 -1.1104 3.60017 2.189 26.2072
560 2 2.2208 2.36104 -1.97574 22.1895
562 1 -1.1104 3.80241 -0.457176 23.4865
563 1 -1.1104 3.56532 -0.623499 26.3941
561 2 2.2208 2.22509 3.69594 22.078
543 1 -1.1104 6.73502 -3.04312 23.6068
554 1 -1.1104 6.52591 -0.20535 26.3243
547 1 -1.1104 6.53509 -3.02391 26.3544
550 1 -1.1104 6.47711 -0.486301 23.4088
548 1 -1.1104 6.3414 2.50446 26.3556
694 1 -1.1104 9.14947 19.1539 26.4167
544 1 -1.1104 6.44305 2.32728 23.4074
597 2 2.2208 13.3729 -4.40758 24.8935
564 2 2.2208 5.07312 1.0455 27.6344
405 2 2.2208 10.6809 -4.56674 16.4661
604 2 2.2208 13.667 3.7794 27.5182
602 2 2.2208 13.5205 -1.62004 22.0706
603 2 2.2208 13.5635 1.07376 24.8045
576 2 2.2208 10.467 1.01576 22.0108
577 1 -1.1104 12.2298 -3.10732 23.5311
578 1 -1.1104 11.9205 2.47073 23.3085
579 1 -1.1104 11.9725 -2.86659 26.2803
580 1 -1.1104 12.1398 2.43367 26.2045
581 1 -1.1104 11.9395 -0.183482 23.4173
582 2 2.2208 10.6549 -1.55912 24.8841
584 1 -1.1104 12.1835 -0.266847 26.2448
585 1 -1.1104 9.58697 -3.17839 23.4485
586 1 -1.1104 9.24356 2.24824 23.4907
587 2 2.2208 7.71416 1.21172 24.9334
588 1 -1.1104 9.29708 -3.26997 26.236
589 1 -1.1104 9.24031 2.59866 26.3271
590 2 2.2208 7.90043 -1.78789 21.9657
592 1 -1.1104 9.1343 -0.47096 23.2952
593 1 -1.1104 9.13089 -0.262896 26.3135
591 2 2.2208 7.81626 3.69743 22.0158
583 2 2.2208 10.7873 3.73615 24.8617
571 2 2.2208 2.34288 -4.6287 24.8258
575 2 2.2208 7.83941 20.7706 27.7087
596 2 2.2208 7.92387 3.87001 27.6285
601 2 2.2208 13.5316 -1.76963 27.5766
594 2 2.2208 10.7657 1.15762 27.7115
404 2 2.2208 13.5656 20.7899 22.0989
570 2 2.2208 5.20478 -4.62175 22.0652
701 2 2.2208 10.7408 20.8013 24.7027
443 1 -1.1104 3.58838 5.18933 20.6027
372 2 2.2208 2.22235 -4.62165 19.3571
605 2 2.2208 5.02348 6.48572 22.0624
606 2 2.2208 5.13295 12.2078 21.9433
607 1 -1.1104 0.816775 7.89639 23.4153
609 1 -1.1104 0.846033 7.94247 26.2302
611 1 -1.1104 0.729536 5.15659 23.4613
612 1 -1.1104 0.846478 10.827 23.2774
615 2 2.2208 5.15514 9.39138 24.721
616 1 -1.1104 0.980069 5.19938 26.4126
617 1 -1.1104 1.0115 10.859 26.0633
620 1 -1.1104 3.5175 7.77704 23.4799
621 2 2.2208 2.29497 6.62748 24.8993
622 2 2.2208 2.1806 12.1514 24.6733
623 1 -1.1104 3.71587 7.93632 26.2113
624 2 2.2208 2.25642 9.36675 21.9833
625 1 -1.1104 3.58231 5.03073 23.3621
626 1 -1.1104 3.65086 10.6372 23.3835
627 1 -1.1104 3.6492 5.23451 26.1939
628 1 -1.1104 3.56624 10.7966 26.2261
614 1 -1.1104 6.43915 10.7905 23.2946
619 1 -1.1104 6.3032 10.8154 26.2138
610 1 -1.1104 6.53297 8.1063 26.2799
608 1 -1.1104 6.41621 8.0783 23.4205
618 1 -1.1104 6.68321 5.17995 26.2309
613 1 -1.1104 6.52464 5.08207 23.4626
373 2 2.2208 13.5649 17.9165 24.7494
377 2 2.2208 13.3763 3.73422 21.9734
655 2 2.2208 7.9411 9.58038 27.6496
654 2 2.2208 10.7887 6.7693 27.5385
657 2 2.2208 13.65 12.2193 24.9651
566 2 2.2208 2.39679 3.67214 27.5787
376 2 2.2208 13.3899 9.51529 21.8286
636 1 -1.1104 9.27223 10.953 26.2909
637 1 -1.1104 9.32807 5.3516 26.2984
638 1 -1.1104 9.25338 10.8109 23.412
639 1 -1.1104 9.53858 5.16515 23.3998
640 2 2.2208 7.91381 9.39456 21.9367
641 1 -1.1104 9.53979 8.12337 26.2186
642 2 2.2208 7.94012 12.2381 24.9233
643 2 2.2208 8.04762 6.61824 24.7436
644 2 2.2208 10.8001 6.66992 21.897
645 2 2.2208 10.6332 12.1587 22.1105
646 1 -1.1104 12.2475 8.00603 23.1997
647 1 -1.1104 12.3788 7.94626 26.1219
648 1 -1.1104 12.3281 5.25438 23.4664
649 1 -1.1104 12.1661 10.7475 23.5047
650 2 2.2208 10.901 9.30969 24.7764
651 1 -1.1104 12.4506 5.21844 26.208
652 1 -1.1104 12.0715 10.851 26.3007
653 1 -1.1104 9.39779 7.8763 23.3807
658 2 2.2208 13.5449 9.40919 27.6003
656 2 2.2208 10.8162 12.1963 27.617
486 1 -1.1104 6.46724 13.6877 20.7333
508 1 -1.1104 3.86176 16.3902 20.4301
496 1 -1.1104 6.61795 16.5339 20.7045
663 1 -1.1104 6.41004 16.3788 26.5482
670 1 -1.1104 6.27606 13.6061 23.3722
665 1 -1.1104 0.943311 16.6072 26.3191
682 2 2.2208 2.30129 15.1122 21.975
664 1 -1.1104 0.920557 19.3399 26.1776
681 2 2.2208 2.43752 20.7567 21.8963
673 2 2.2208 5.21669 17.7778 22.1147
680 1 -1.1104 3.73649 16.4354 23.3344
672 1 -1.1104 0.874708 13.6052 23.2389
671 1 -1.1104 1.01831 19.1666 23.4316
669 2 2.2208 5.01927 14.9168 24.8268
668 2 2.2208 5.11309 20.6833 24.8454
679 1 -1.1104 1.00053 16.4581 23.454
677 1 -1.1104 3.62209 13.4649 26.1782
676 1 -1.1104 3.63935 16.336 26.3627
675 2 2.2208 2.29794 17.8534 24.7463
666 1 -1.1104 0.863359 13.6972 26.1774
674 1 -1.1104 3.80502 19.3817 26.3516
660 1 -1.1104 3.76543 19.3266 23.3799
662 1 -1.1104 3.58322 13.6719 23.4221
696 1 -1.1104 6.52216 19.2821 26.1398
678 1 -1.1104 6.40757 16.5324 23.6433
661 1 -1.1104 6.59927 13.7298 26.1493
667 1 -1.1104 6.58899 19.2244 23.5171
600 2 2.2208 8.09088 -4.43896 24.8633
685 2 2.2208 2.34812 14.8865 27.7386
411 2 2.2208 -0.38807 17.7643 16.2738
699 1 -1.1104 9.35011 13.7632 23.4681
707 1 -1.1104 12.1516 13.598 23.6056
698 1 -1.1104 9.3695 19.3003 23.6785
375 2 2.2208 13.595 20.8158 27.6487
535 1 -1.1104 9.41723 16.4771 20.8137
516 1 -1.1104 12.1416 13.4982 20.7382
518 1 -1.1104 12.171 19.2271 20.6179
697 2 2.2208 7.79043 17.9328 25.0164
374 2 2.2208 13.6013 15.1234 27.6458
714 2 2.2208 13.4174 6.57685 19.037
700 1 -1.1104 12.0447 16.4194 26.3133
703 1 -1.1104 12.1325 16.5357 23.3753
705 1 -1.1104 12.0763 13.7111 26.4281
708 2 2.2208 10.8533 17.8437 22.0683
691 1 -1.1104 9.35341 16.4418 23.514
690 1 -1.1104 9.16465 16.4949 26.4442
692 2 2.2208 7.84518 20.6696 22.107
693 2 2.2208 7.91952 15.1563 22.1252
370 2 2.2208 13.4564 15.0387 21.9911
706 1 -1.1104 12.1784 19.3642 23.4424
704 1 -1.1104 11.9725 19.3306 26.089
695 1 -1.1104 9.3613 13.6099 26.1515
702 2 2.2208 10.7401 15.0669 24.7175
336 2 2.2208 10.5239 -1.95737 13.7756
379 2 2.2208 5.08994 3.77285 13.7151
595 2 2.2208 7.93151 -1.67806 27.7061
9816 2 2.2208 -0.317596 0.834288 22.1099
574 2 2.2208 10.7948 17.8509 27.6273
335 2 2.2208 13.3856 -4.7219 13.7069
717 2 2.2208 -0.370427 12.1544 16.4209
408 2 2.2208 7.81025 15.1462 27.6438
630 2 2.2208 2.25586 9.35002 27.6055
684 2 2.2208 4.91719 17.8513 27.6305
723 2 2.2208 5.03572 23.5155 5.18114
724 2 2.2208 4.97694 29.1548 5.2394
725 1 -1.1104 0.639328 24.9589 1.10418
726 1 -1.1104 0.929231 24.9223 3.81511
727 1 -1.1104 0.740224 22.1581 1.11569
728 1 -1.1104 0.730371 27.9093 0.92195
729 2 2.2208 4.86279 26.332 2.34819
730 1 -1.1104 1.03174 21.9806 3.70782
731 1 -1.1104 0.841014 27.9147 3.88466
732 1 -1.1104 3.46667 25.0677 1.03151
733 2 2.2208 2.27186 23.5392 2.45598
734 2 2.2208 2.21595 29.2537 2.43972
735 1 -1.1104 3.65454 25.0053 3.84751
736 2 2.2208 2.22961 26.4111 5.22236
737 1 -1.1104 3.5635 22.2469 0.934417
738 1 -1.1104 3.44025 27.8415 0.963129
739 1 -1.1104 3.73077 22.1515 3.85499
740 1 -1.1104 3.57866 27.9183 3.82601
866 1 -1.1104 0.875604 22.0366 6.634
747 1 -1.1104 6.49109 27.6772 1.00109
867 1 -1.1104 0.906086 27.7625 6.72731
744 1 -1.1104 6.28285 24.9837 0.717081
746 1 -1.1104 6.40266 22.2255 0.920898
749 1 -1.1104 6.43585 27.7269 3.75813
871 1 -1.1104 3.69037 21.995 6.6801
865 1 -1.1104 6.42213 24.889 6.54013
868 1 -1.1104 6.41117 22.1385 6.62736
870 1 -1.1104 3.70953 24.8864 6.64683
864 1 -1.1104 0.964816 24.8968 6.50966
869 1 -1.1104 6.51408 27.6687 6.51194
872 1 -1.1104 3.85154 27.7978 6.70245
745 1 -1.1104 6.35338 24.8771 3.72164
748 1 -1.1104 6.52229 22.0025 3.76833
750 2 2.2208 10.7311 23.5256 5.11833
751 2 2.2208 10.5628 29.0301 5.13453
752 1 -1.1104 11.8261 24.9261 0.970011
753 1 -1.1104 11.8814 24.9527 3.89521
754 1 -1.1104 12.0192 22.0018 0.791309
755 1 -1.1104 12.0856 27.6943 0.940363
756 2 2.2208 10.5886 26.3271 2.34465
757 1 -1.1104 12.0417 22.1256 3.53823
758 1 -1.1104 12.0349 27.5731 3.80076
759 1 -1.1104 9.08838 24.8355 0.805074
760 2 2.2208 7.80997 23.4596 2.47744
761 2 2.2208 7.76507 29.0922 2.2614
762 1 -1.1104 9.02297 24.8831 3.7008
763 2 2.2208 7.87825 26.3173 5.21259
764 1 -1.1104 9.31012 22.0636 0.939563
765 1 -1.1104 9.30016 27.8647 1.09324
766 1 -1.1104 9.30671 22.159 3.70183
767 1 -1.1104 9.26205 27.537 3.83972
900 1 -1.1104 9.39621 24.9331 6.3117
899 1 -1.1104 11.9462 27.5095 6.46619
898 1 -1.1104 11.98 22.1132 6.26862
842 2 2.2208 -0.434232 45.8388 5.33472
1026 2 2.2208 10.9566 43.2157 7.92977
1015 1 -1.1104 9.67939 44.5307 9.36547
902 1 -1.1104 9.20903 27.7502 6.58347
771 2 2.2208 5.00683 34.7037 5.34721
772 1 -1.1104 0.982313 30.5681 0.92573
773 1 -1.1104 0.998355 36.0949 0.983233
775 1 -1.1104 0.80004 30.76 3.66334
776 1 -1.1104 0.850003 36.2559 3.97371
778 1 -1.1104 0.886159 33.2498 1.09363
779 2 2.2208 5.14568 32.0717 2.38203
780 2 2.2208 5.17327 37.6445 2.43683
781 1 -1.1104 0.784593 33.4324 3.85309
783 1 -1.1104 3.72202 30.5084 1.18781
784 1 -1.1104 3.76425 36.0394 1.02638
785 2 2.2208 2.36155 34.7837 2.48273
786 1 -1.1104 3.53949 30.6711 3.89716
787 1 -1.1104 3.53984 36.1387 3.88235
788 2 2.2208 2.14708 31.9918 5.15176
789 2 2.2208 2.44183 37.6422 5.33509
790 1 -1.1104 3.70947 33.2682 1.00065
791 1 -1.1104 3.74394 33.3422 3.81716
795 1 -1.1104 6.55335 30.5339 0.84722
797 1 -1.1104 6.41182 33.4279 1.03282
774 1 -1.1104 6.58334 36.2879 0.821368
796 1 -1.1104 6.48942 30.614 3.63931
777 1 -1.1104 6.44221 36.3793 3.97707
782 1 -1.1104 6.40206 33.6032 3.81296
928 1 -1.1104 3.92707 36.1946 6.72319
926 1 -1.1104 6.49738 33.2811 6.5511
921 1 -1.1104 0.895068 30.7331 6.54346
925 1 -1.1104 0.90658 33.3539 6.72139
929 1 -1.1104 3.64561 33.171 6.68498
923 1 -1.1104 6.42877 30.4284 6.4737
927 1 -1.1104 3.68487 30.5317 6.59563
924 1 -1.1104 6.49299 35.9728 6.66993
1031 1 -1.1104 12.3712 44.6115 6.53521
1023 1 -1.1104 9.269 41.6973 12.1797
798 2 2.2208 10.6241 34.7013 5.26779
799 1 -1.1104 12.2694 30.4438 0.84639
800 1 -1.1104 12.1173 36.3429 0.894781