ITEM: TIMESTEP
50000
ITEM: NUMBER OF ATOMS
17910
ITEM: BOX BOUNDS pp pp pp
-3.8926492173713056e-01 2.7729264921737094e+01
-4.7813844918636521e+00 3.3286138449185114e+02
-3.9582955693215471e-01 2.7735829556932433e+01
ITEM: ATOMS id type q x y z
1 2 2.2208 5.11532 0.885229 5.20298
2 1 -1.1104 0.922769 -3.21737 0.945621
3 1 -1.1104 0.929145 2.20207 0.841315
6 1 -1.1104 0.864492 -3.40945 3.9033
7 1 -1.1104 0.832512 2.29654 3.76881
10 1 -1.1104 0.964041 -0.589809 0.975831
12 2 2.2208 4.95285 -1.977 2.47705
13 2 2.2208 5.06111 3.72408 2.52185
14 1 -1.1104 0.866827 -0.561704 3.90692
16 1 -1.1104 3.70584 -3.55215 1.03271
17 1 -1.1104 3.83653 2.32749 1.08009
18 2 2.2208 2.36565 0.77283 2.30057
19 1 -1.1104 3.58709 -3.30874 3.86836
20 1 -1.1104 3.85341 2.24057 3.90761
21 2 2.2208 2.20153 -2.10927 5.34597
22 2 2.2208 2.34875 3.57186 5.2816
23 1 -1.1104 3.77295 -0.670667 0.952771
24 1 -1.1104 3.71062 -0.503534 3.70477
172 1 -1.1104 3.43493 -3.42284 6.59836
8 1 -1.1104 6.51684 -3.54979 4.04899
5 1 -1.1104 6.62105 2.27176 0.926362
9 1 -1.1104 6.73914 2.19924 3.69179
170 1 -1.1104 1.02251 -0.65135 6.70541
166 1 -1.1104 0.734148 -3.56927 6.71039
167 1 -1.1104 0.936431 2.21302 6.43502
15 1 -1.1104 6.41063 -0.639243 3.89104
11 1 -1.1104 6.75736 -0.589567 1.02161
50 2 2.2208 13.5086 -2.03069 5.20255
9479 2 2.2208 13.5111 3.5576 5.12423
4 1 -1.1104 6.44875 -3.43165 1.02765
31 2 2.2208 10.7793 0.741867 5.25438
32 1 -1.1104 11.9861 -3.319 0.60803
33 1 -1.1104 12.0258 2.24134 1.04034
34 1 -1.1104 12.2797 -3.41093 3.47467
35 1 -1.1104 12.1517 2.17428 4.0221
36 1 -1.1104 12.2682 -0.618979 1.06092
37 2 2.2208 10.582 -1.99354 2.31274
38 2 2.2208 10.7014 3.58171 2.39611
39 1 -1.1104 12.0041 -0.551895 3.80629
40 1 -1.1104 9.018 -3.61352 1.02212
41 1 -1.1104 9.25743 2.40774 1.06845
42 2 2.2208 8.0853 0.885288 2.38201
43 1 -1.1104 9.18616 -3.62917 3.67917
44 1 -1.1104 9.66829 2.24341 4.01387
45 2 2.2208 7.62262 -1.9552 5.15467
47 1 -1.1104 9.61267 -0.378735 1.03759
48 1 -1.1104 9.10343 -0.685758 3.87081
46 2 2.2208 8.06047 3.42125 5.10025
9815 2 2.2208 13.4056 0.802548 13.5138
49 2 2.2208 13.6136 0.742338 2.3457
202 2 2.2208 2.0622 -4.79452 7.89942
165 2 2.2208 13.4814 17.8368 2.42253
208 1 -1.1104 9.34004 -3.65312 6.6653
712 2 2.2208 13.6101 6.43123 13.5694
26 2 2.2208 13.4377 17.7378 7.8955
54 2 2.2208 5.12949 6.43578 5.3085
55 2 2.2208 5.08293 12.0919 5.01431
56 1 -1.1104 0.845231 7.76343 0.965744
58 1 -1.1104 0.685334 7.71984 3.94498
60 1 -1.1104 0.757937 4.92019 0.869057
61 1 -1.1104 0.933959 10.6197 1.03675
66 2 2.2208 5.16846 9.10435 2.36221
67 1 -1.1104 0.84149 4.95104 3.696
68 1 -1.1104 0.946789 10.6182 3.89532
71 1 -1.1104 3.73041 7.90346 1.1295
72 2 2.2208 2.09701 6.3118 2.38222
73 2 2.2208 2.27077 12.0166 2.3448
74 1 -1.1104 3.74019 7.84619 3.98357
75 2 2.2208 2.26497 9.20883 5.31195
76 1 -1.1104 3.50757 5.17479 0.953148
77 1 -1.1104 3.66532 10.5332 0.901828
79 1 -1.1104 3.82997 5.01898 3.78238
80 1 -1.1104 3.75469 10.6276 3.6994
236 1 -1.1104 0.856413 4.96222 6.54321
78 1 -1.1104 3.71242 10.5106 6.69293
59 1 -1.1104 6.6193 7.68297 3.86279
238 1 -1.1104 3.52363 7.81358 6.84467
70 1 -1.1104 6.50835 10.5045 3.76823
63 1 -1.1104 6.38623 5.00437 0.938784
57 1 -1.1104 6.59031 7.7431 1.0162
69 1 -1.1104 6.68812 4.83778 3.90522
237 1 -1.1104 6.49802 4.89241 6.82983
239 1 -1.1104 3.62327 5.10479 6.58167
329 2 2.2208 13.3419 12.0796 7.94062
64 1 -1.1104 6.6462 10.6607 1.07344
84 2 2.2208 10.7586 6.32124 5.2888
85 2 2.2208 10.6302 12.116 5.29787
86 1 -1.1104 11.9206 7.94706 0.995192
87 1 -1.1104 12.0507 7.86151 3.94746
88 1 -1.1104 12.0714 5.0326 1.27378
89 1 -1.1104 12.0021 10.708 1.07359
91 2 2.2208 10.5219 9.3823 2.49398
92 1 -1.1104 12.049 5.00409 3.76223
93 1 -1.1104 12.0613 10.6986 3.83266
94 1 -1.1104 9.32542 7.86122 1.1823
95 2 2.2208 7.99916 6.35547 2.49172
96 2 2.2208 7.91194 12.0398 2.40354
97 1 -1.1104 9.21796 7.68649 3.83253
98 2 2.2208 7.90739 9.2072 5.22616
99 1 -1.1104 9.25539 5.16555 0.970448
100 1 -1.1104 9.32932 10.4855 0.870846
102 1 -1.1104 9.36504 4.83583 3.77773
103 1 -1.1104 9.29791 10.6928 3.83984
101 1 -1.1104 9.27039 10.6908 6.86133
539 2 2.2208 13.2921 17.6813 13.5504
104 2 2.2208 13.4547 11.965 2.34069
410 2 2.2208 7.77239 0.660404 13.6397
326 2 2.2208 13.4139 9.30452 5.25774
65 1 -1.1104 6.59471 10.5901 6.53079
267 1 -1.1104 9.25629 7.8974 6.68568
509 2 2.2208 2.14162 17.6947 13.6318
106 2 2.2208 4.96137 17.6899 5.19126
107 1 -1.1104 0.661582 13.5617 0.744894
109 1 -1.1104 0.80914 19.1554 0.867103
113 1 -1.1104 0.76533 13.4125 3.68047
114 1 -1.1104 0.847629 19.0425 3.88887
116 1 -1.1104 0.647645 16.4006 1.19955
119 2 2.2208 5.14302 14.8924 2.31388
120 2 2.2208 4.99381 20.5085 2.29651
121 1 -1.1104 0.721129 16.322 4.12876
123 1 -1.1104 3.63274 13.5478 1.01169
125 1 -1.1104 3.62598 19.113 0.851683
127 2 2.2208 2.05094 17.7614 2.44056
128 1 -1.1104 3.64374 13.4126 3.777
129 1 -1.1104 3.5707 19.0261 3.59277
130 2 2.2208 2.1173 14.7292 5.14231
131 2 2.2208 2.41109 20.7896 5.34256
132 1 -1.1104 3.42537 16.4306 1.03401
134 1 -1.1104 3.40732 16.144 3.93117
122 1 -1.1104 6.29392 16.245 3.75443
140 1 -1.1104 6.41941 16.2403 0.763905
115 1 -1.1104 6.47379 13.4492 3.86782
139 1 -1.1104 6.44842 19.1343 3.68007
110 1 -1.1104 6.48273 13.472 0.983629
138 1 -1.1104 6.49037 19.0566 0.782916
108 1 -1.1104 0.894214 13.4676 6.5957
133 1 -1.1104 3.58633 16.3148 6.63961
124 1 -1.1104 3.76121 13.3476 6.5041
412 2 2.2208 10.6574 3.66245 13.5935
537 2 2.2208 10.5469 14.8127 13.6593
336 2 2.2208 10.5702 -2.16338 13.6138
288 1 -1.1104 6.25914 18.9713 9.52908
154 1 -1.1104 9.23364 13.5198 6.64966
141 2 2.2208 10.6409 17.7359 5.04199
142 1 -1.1104 11.9695 13.7157 0.937428
144 1 -1.1104 11.9922 19.234 1.07871
146 1 -1.1104 12.026 13.3884 3.85864
147 1 -1.1104 12.0628 19.1523 3.79402
148 1 -1.1104 12.0135 16.4549 0.816917
150 2 2.2208 10.6444 14.9172 2.37403
151 2 2.2208 10.6912 20.7149 2.30962
152 1 -1.1104 12.1034 16.3751 3.8011
153 1 -1.1104 9.25517 13.2755 1.10241
155 1 -1.1104 9.27688 19.1028 0.912505
157 2 2.2208 7.9745 17.7119 2.2364
158 1 -1.1104 9.21627 13.5834 3.83688
159 1 -1.1104 9.29234 19.3421 3.53091
160 2 2.2208 7.74856 14.7561 5.15736
161 2 2.2208 7.78568 20.596 4.92879
162 1 -1.1104 9.24228 16.2606 1.00692
164 1 -1.1104 9.15078 16.3145 3.59088
143 1 -1.1104 11.9663 13.5237 6.53977
163 1 -1.1104 9.27163 16.2199 6.37058
118 1 -1.1104 6.4005 16.0368 6.6515
111 1 -1.1104 6.35498 13.4198 6.65468
145 1 -1.1104 12.0492 19.2611 6.54551
149 1 -1.1104 11.8846 16.356 6.63067
200 1 -1.1104 11.9515 13.2541 12.2349
325 2 2.2208 10.6696 14.9741 7.99839
168 1 -1.1104 6.21813 -3.30945 6.59306
171 1 -1.1104 6.32449 -0.455032 6.63289
169 1 -1.1104 6.42023 2.37381 6.51319
156 1 -1.1104 9.19856 19.1272 6.59827
173 1 -1.1104 3.59876 2.28815 6.57519
174 1 -1.1104 3.78713 -0.616549 6.74352
175 2 2.2208 5.01141 0.945001 10.6964
176 1 -1.1104 0.823508 -3.37578 12.318
177 1 -1.1104 0.868202 2.38697 12.0165
180 1 -1.1104 0.826171 -3.36716 9.59194
181 1 -1.1104 0.868075 2.39667 9.25031
184 1 -1.1104 0.879234 -0.479984 12.323
186 2 2.2208 4.92888 -1.98293 8.09469
187 2 2.2208 5.01307 3.75035 7.97381
188 1 -1.1104 0.903089 -0.485874 9.32105
190 1 -1.1104 3.72943 -3.52351 12.3054
191 1 -1.1104 3.66756 1.96807 12.2443
192 2 2.2208 2.24903 0.873442 7.98433
193 1 -1.1104 3.32298 -3.36146 9.43367
194 1 -1.1104 3.52945 2.2319 9.41964
195 2 2.2208 2.03605 -1.94253 10.754
197 1 -1.1104 3.7731 -0.725716 12.404
198 1 -1.1104 3.56143 -0.536141 9.62967
189 1 -1.1104 6.35452 -0.461012 9.25606
183 1 -1.1104 6.35355 2.20984 9.21752
178 1 -1.1104 6.27521 -3.58033 12.2681
196 2 2.2208 2.21166 3.56963 10.9399
182 1 -1.1104 6.58749 -3.33152 9.40437
179 1 -1.1104 6.48944 2.15253 12.1524
105 2 2.2208 13.5408 6.48979 2.68239
327 2 2.2208 13.4207 20.5916 5.12134
9778 2 2.2208 13.4225 0.823482 8.10601
321 1 -1.1104 8.92626 18.9782 12.1964
206 1 -1.1104 11.9947 2.11024 6.71026
9614 2 2.2208 13.4206 3.65738 10.7177
207 1 -1.1104 12.2469 -0.87279 6.63714
210 1 -1.1104 9.30175 -0.871374 6.46315
9779 2 2.2208 13.4215 -2.04474 10.81
209 1 -1.1104 9.28884 1.98576 6.60725
185 1 -1.1104 6.36047 -0.804224 12.0113
205 1 -1.1104 12.0421 -3.63885 6.4197
211 2 2.2208 10.4844 0.757293 10.7934
212 1 -1.1104 11.9811 -3.39888 11.9666
213 1 -1.1104 12.0016 2.37222 12.2695
214 1 -1.1104 11.9306 -3.50731 9.31423
215 1 -1.1104 12.0604 2.16451 9.45091
216 1 -1.1104 12.0294 -0.537748 12.1894
217 2 2.2208 10.6213 -2.16506 7.9628
219 1 -1.1104 12.0367 -0.764446 9.58334
220 1 -1.1104 9.19192 -3.56761 12.2085
221 1 -1.1104 9.14087 2.18068 12.2726
222 2 2.2208 7.79691 0.919589 7.88537
223 1 -1.1104 9.21578 -3.34433 9.41988
224 1 -1.1104 9.32374 2.25137 9.35261
225 2 2.2208 7.80342 -2.17229 10.8193
226 2 2.2208 7.8891 3.57141 10.8495
227 1 -1.1104 9.08961 -0.835227 12.3084
228 1 -1.1104 9.00193 -0.465522 9.31056
218 2 2.2208 10.7082 3.63883 8.04255
81 2 2.2208 10.578 17.8812 10.8718
536 2 2.2208 10.6512 20.5501 13.6242
62 1 -1.1104 0.80925 10.6058 6.82512
234 1 -1.1104 0.853233 7.79534 6.62723
240 2 2.2208 5.09507 6.48476 11.037
241 2 2.2208 4.8412 11.9589 10.7668
242 1 -1.1104 0.810531 7.84024 12.2409
244 1 -1.1104 0.752355 7.70916 9.46157
246 1 -1.1104 0.97062 5.10185 12.2695
247 1 -1.1104 0.71011 10.6608 12.3593
250 2 2.2208 5.04289 9.15452 8.06021
251 1 -1.1104 0.82779 5.04764 9.51146
252 1 -1.1104 0.689975 10.5772 9.58393
255 1 -1.1104 3.68006 7.73083 12.298
256 2 2.2208 2.27228 6.47041 8.19159
257 2 2.2208 2.24026 11.9984 8.07607
258 1 -1.1104 3.60382 7.76929 9.53197
259 2 2.2208 2.14361 9.15127 10.8824
260 1 -1.1104 3.82121 4.85634 12.3902
261 1 -1.1104 3.39512 10.5087 12.2471
262 1 -1.1104 3.54021 4.91565 9.48016
263 1 -1.1104 3.59781 10.4251 9.59208
245 1 -1.1104 6.43671 7.87631 9.38069
254 1 -1.1104 6.38723 10.5983 9.37641
235 1 -1.1104 6.33808 7.79714 6.65825
243 1 -1.1104 6.29896 7.90684 12.2389
248 1 -1.1104 6.46979 4.99261 12.4773
249 1 -1.1104 6.21736 10.5791 12.2235
253 1 -1.1104 6.6746 5.15089 9.55311
328 2 2.2208 13.3192 14.825 5.07332
204 1 -1.1104 12.0372 13.4268 9.33172
330 2 2.2208 13.3526 9.31931 10.8072
9690 2 2.2208 13.544 6.43143 8.0181
317 2 2.2208 7.87536 14.7337 10.7936
266 1 -1.1104 12.195 4.96666 6.53893
269 1 -1.1104 9.26235 4.68401 6.69308
90 1 -1.1104 12.0368 10.6186 6.6171
265 1 -1.1104 12.0087 7.74712 6.8336
264 1 -1.1104 9.30313 10.5772 9.50271
268 1 -1.1104 9.29844 5.10079 9.40919
270 1 -1.1104 9.10134 10.5411 12.4335
271 1 -1.1104 9.26065 5.11799 12.2679
272 2 2.2208 7.78298 9.23424 10.763
273 1 -1.1104 9.1175 7.68449 9.34564
274 2 2.2208 7.86026 11.9558 8.19829
275 2 2.2208 7.82528 6.38492 7.94718
276 2 2.2208 10.6433 6.53473 10.9237
277 2 2.2208 10.5982 12.026 10.8289
278 1 -1.1104 12.0297 7.77039 12.3695
279 1 -1.1104 11.9584 7.84042 9.51731
280 1 -1.1104 12.2551 5.10382 12.0614
281 1 -1.1104 12.0105 10.4606 12.2168
282 2 2.2208 10.6017 9.13232 8.12385
283 1 -1.1104 12.1051 5.22376 9.39028
284 1 -1.1104 12.1252 10.6769 9.46741
285 1 -1.1104 9.18041 7.85382 12.2407
538 2 2.2208 7.72455 17.5857 13.5591
318 1 -1.1104 9.05883 19.041 9.6464
297 1 -1.1104 6.42724 13.4166 12.2315
331 2 2.2208 13.3724 20.54 10.8522
289 1 -1.1104 6.57609 16.314 9.48852
306 1 -1.1104 6.34296 16.1716 12.0762
296 1 -1.1104 6.19465 18.9036 12.3425
302 1 -1.1104 0.826204 19.1499 6.58355
126 1 -1.1104 3.60349 19.2163 6.53051
290 1 -1.1104 6.34117 13.3888 9.61139
117 1 -1.1104 0.616296 16.279 6.69197
286 1 -1.1104 3.37928 19.1468 12.159
287 1 -1.1104 3.48597 13.4012 12.1126
291 1 -1.1104 0.805704 19.0781 9.15059
292 1 -1.1104 0.829412 16.2614 9.5197
293 2 2.2208 5.03988 20.3243 7.99485
294 1 -1.1104 0.849981 13.4117 9.4016
295 2 2.2208 4.90828 14.7394 8.09262
298 1 -1.1104 0.547577 19.1453 12.0177
299 1 -1.1104 0.669125 13.5358 12.4793
300 2 2.2208 4.92664 17.6078 10.8439
301 1 -1.1104 3.49843 19.0363 9.21803
303 2 2.2208 2.18257 17.6343 7.88905
304 1 -1.1104 3.65514 16.2123 9.55208
305 1 -1.1104 3.63277 13.4469 9.50606
307 1 -1.1104 0.75664 16.2911 12.4287
308 1 -1.1104 3.56264 16.1022 12.2866
309 2 2.2208 2.04383 20.4311 10.6085
310 2 2.2208 2.14277 14.8382 10.9309
323 1 -1.1104 12.0857 16.3734 9.49904
320 2 2.2208 7.85758 17.482 7.96109
201 1 -1.1104 12.0233 19.1047 12.1503
324 2 2.2208 10.4926 20.4273 8.07204
322 1 -1.1104 9.21548 13.3653 12.2629
230 1 -1.1104 11.8558 16.1318 12.2996
229 1 -1.1104 11.9568 19.1738 9.34956
319 1 -1.1104 9.22591 13.3438 9.48649
316 2 2.2208 7.69352 20.5181 10.8431
112 1 -1.1104 6.29332 18.9426 6.69892
9773 2 2.2208 13.235 14.8588 10.868
315 1 -1.1104 9.03684 16.2425 12.1149
314 1 -1.1104 9.28746 16.2705 9.22062
232 2 2.2208 10.459 -4.77083 10.7852
475 2 2.2208 7.81675 12.1184 13.5886
474 2 2.2208 10.5219 9.14892 13.6787
658 2 2.2208 13.3303 9.19136 -0.306007
510 2 2.2208 4.92825 20.5649 13.4966
511 2 2.2208 4.90718 14.8595 13.5839
654 2 2.2208 10.6903 6.45022 -0.307835
716 2 2.2208 13.51 11.9063 13.569
333 2 2.2208 5.0087 -2.08386 13.5755
595 2 2.2208 7.82617 -2.15487 -0.348269
596 2 2.2208 7.94699 3.66096 -0.430499
565 2 2.2208 2.25827 -1.98029 -0.409568
683 2 2.2208 2.19627 20.6122 -0.35426
655 2 2.2208 7.9744 8.96691 -0.33389
630 2 2.2208 2.21677 9.10368 -0.321245
473 2 2.2208 7.84774 6.43333 13.5908
446 2 2.2208 2.31688 6.35886 13.604
631 2 2.2208 4.89219 12.0268 -0.403963
378 2 2.2208 2.26404 0.824449 13.5654
337 2 2.2208 4.9174 0.772363 16.3532
338 1 -1.1104 0.747797 -3.46925 17.7111
339 1 -1.1104 0.655435 2.20265 17.8199
342 1 -1.1104 0.663363 -3.42503 14.9852
344 1 -1.1104 0.84368 2.18712 14.8744
350 1 -1.1104 0.766768 -0.58287 17.7865
352 2 2.2208 5.06651 -2.00718 19.3425
354 1 -1.1104 0.782841 -0.599712 15.1522
358 1 -1.1104 3.6491 -3.30325 18.0391
359 1 -1.1104 3.48001 2.19896 17.8025
360 2 2.2208 2.33111 0.818528 19.2012
361 1 -1.1104 3.46406 -3.41118 15.1035
363 1 -1.1104 3.60117 2.17376 15.0844
365 2 2.2208 2.11866 -1.91866 16.5282
366 2 2.2208 2.21137 3.57022 16.3385
367 1 -1.1104 3.69631 -0.563531 17.9366
368 1 -1.1104 3.38167 -0.576706 15.194
353 2 2.2208 5.00062 3.44545 19.1076
695 1 -1.1104 9.25303 13.6338 26.3922
356 1 -1.1104 6.32923 -0.757948 14.9972
351 1 -1.1104 6.49861 -0.756986 17.6287
346 1 -1.1104 6.35254 -3.59296 14.9717
355 1 -1.1104 0.942106 -0.699019 20.6852
343 1 -1.1104 0.810328 -3.55016 20.5151
340 1 -1.1104 6.39651 -3.70967 17.8766
348 1 -1.1104 6.56999 2.04029 14.9598
341 1 -1.1104 6.30376 1.96797 17.7094
349 1 -1.1104 6.32268 2.06757 20.5815
379 2 2.2208 5.09424 3.5037 13.7402
369 1 -1.1104 3.72289 -0.582195 20.6286
364 1 -1.1104 3.62389 2.26457 20.6082
347 1 -1.1104 6.43305 -3.49547 20.7063
447 2 2.2208 4.93767 9.13027 13.6979
371 2 2.2208 4.92687 -4.7061 16.5604
405 2 2.2208 10.6845 -4.7151 16.3146
709 2 2.2208 13.3538 3.65024 16.3964
564 2 2.2208 5.14652 0.825001 27.5793
380 2 2.2208 10.609 0.681352 16.4671
381 1 -1.1104 11.7907 -3.28145 17.8933
382 1 -1.1104 11.8135 2.41913 17.7953
383 1 -1.1104 12.1186 -3.46879 14.855
385 1 -1.1104 12.0055 2.13762 15.0842
387 1 -1.1104 11.9858 -0.566876 17.9281
388 2 2.2208 10.4699 -2.12843 19.402
389 2 2.2208 10.5327 3.53651 19.1751
390 1 -1.1104 11.855 -0.668102 14.8145
392 1 -1.1104 9.13832 -3.36633 17.8634
393 1 -1.1104 9.21782 2.02848 17.888
394 2 2.2208 7.74741 0.82131 19.2692
395 1 -1.1104 9.14425 -3.58738 14.9015
397 1 -1.1104 9.18647 2.06794 14.9192
399 2 2.2208 7.77569 -2.08995 16.3795
401 1 -1.1104 9.19802 -0.720604 17.9202
402 1 -1.1104 9.067 -0.865646 15.0357
400 2 2.2208 7.99971 3.51327 16.4671
386 1 -1.1104 11.9836 2.38969 20.6999
710 2 2.2208 13.2265 1.11411 19.2418
697 2 2.2208 8.00718 17.6754 24.6537
9853 2 2.2208 13.2651 -1.91406 16.4871
403 1 -1.1104 9.107 -0.465795 20.788
398 1 -1.1104 9.06265 2.41398 20.4828
701 2 2.2208 10.6883 20.4792 24.8619
691 1 -1.1104 9.40184 16.2291 23.6318
413 2 2.2208 4.96967 6.40167 16.5477
414 2 2.2208 5.02028 11.9802 16.33
415 1 -1.1104 0.864215 7.96967 18.0097
417 1 -1.1104 0.754279 7.79963 14.9787
421 1 -1.1104 0.894223 4.91121 17.7601
422 1 -1.1104 0.570804 10.5818 18.0216
425 2 2.2208 5.10982 9.27977 19.2114
426 1 -1.1104 0.809683 5.04898 14.9038
428 1 -1.1104 0.727189 10.7276 15.1023
434 1 -1.1104 3.76085 7.87969 17.847
435 2 2.2208 2.35594 6.32353 19.1506
436 2 2.2208 2.22872 12.0172 19.3177
437 1 -1.1104 3.61342 7.98377 15.2245
439 2 2.2208 1.99606 9.24136 16.4735
440 1 -1.1104 3.56852 5.03822 17.87
441 1 -1.1104 3.43308 10.7533 17.74
442 1 -1.1104 3.71951 5.00136 15.1241
444 1 -1.1104 3.70235 10.733 15.0649
432 1 -1.1104 6.37648 10.6274 14.9076
424 1 -1.1104 6.2216 10.4206 17.5778
416 1 -1.1104 6.45003 7.64907 17.8521
423 1 -1.1104 6.74489 4.80618 17.8468
429 1 -1.1104 1.0311 10.4872 20.6514
418 1 -1.1104 0.903594 7.55596 20.8591
431 1 -1.1104 6.44063 4.98564 20.5693
438 1 -1.1104 3.575 7.83574 20.6382
427 1 -1.1104 0.699112 4.76014 20.6728
443 1 -1.1104 3.78494 4.98991 20.7061
433 1 -1.1104 6.47539 10.5901 20.5556
715 2 2.2208 13.3424 12.0831 19.2802
713 2 2.2208 13.2541 9.31414 16.4261
419 1 -1.1104 6.383 7.68949 15.2095
430 1 -1.1104 6.51238 4.77294 15.2188
449 2 2.2208 10.5834 6.45121 16.3642
450 2 2.2208 10.3736 11.9665 16.5864
451 1 -1.1104 12.1725 7.75182 17.9127
452 1 -1.1104 11.9856 7.77993 15.0599
454 1 -1.1104 12.1013 5.16386 17.8227
455 1 -1.1104 11.8777 10.5868 17.9467
456 2 2.2208 10.644 8.96779 19.1993
457 1 -1.1104 12.0341 4.87243 14.956
459 1 -1.1104 11.8766 10.5716 15.1105
461 1 -1.1104 9.30436 7.88095 17.823
462 2 2.2208 7.95445 6.30571 19.2768
463 2 2.2208 7.60924 12.0437 19.2838
464 1 -1.1104 9.1565 7.80658 15.1271
466 2 2.2208 7.78228 9.19372 16.4131
467 1 -1.1104 9.33985 5.04668 17.706
468 1 -1.1104 9.06074 10.4827 17.9028
469 1 -1.1104 9.27565 5.00535 15.0807
471 1 -1.1104 9.18571 10.626 15.1624
465 1 -1.1104 9.20124 7.7909 20.5999
714 2 2.2208 13.5184 6.43403 19.1139
575 2 2.2208 7.84109 20.4804 27.6686
597 2 2.2208 13.4862 -4.80131 24.8566
704 1 -1.1104 12.2007 19.1988 26.3426
476 2 2.2208 4.87877 17.6847 16.4061
477 1 -1.1104 0.885131 13.4009 18.09
478 1 -1.1104 0.67592 19.2613 17.7821
481 1 -1.1104 0.678112 13.6287 15.259
483 1 -1.1104 0.618532 19.2117 14.8979
489 1 -1.1104 0.789163 16.3151 17.7629
491 2 2.2208 4.91219 15.0543 19.2258
492 2 2.2208 4.84844 20.4854 19.1538
493 1 -1.1104 0.517336 16.4531 15.1583
497 1 -1.1104 3.57206 13.5876 17.9543
498 1 -1.1104 3.45108 19.1193 17.711
499 2 2.2208 1.96723 17.902 19.1318
500 1 -1.1104 3.53573 13.4852 15.1629
502 1 -1.1104 3.66016 19.1234 14.8952
504 2 2.2208 2.05223 14.8801 16.6772
505 2 2.2208 2.08128 20.5819 16.5424
506 1 -1.1104 3.51096 16.3697 17.9199
507 1 -1.1104 3.25507 16.2083 14.9258
480 1 -1.1104 6.27261 19.0379 17.765
487 1 -1.1104 6.43427 18.8368 15.0465
690 1 -1.1104 9.21134 16.3726 26.425
490 1 -1.1104 6.46568 16.1557 17.7896
495 1 -1.1104 6.30369 16.1822 15.0462
479 1 -1.1104 6.30853 13.3295 17.9457
485 1 -1.1104 6.48283 13.5006 14.8622
501 1 -1.1104 3.60331 13.6473 20.7032
488 1 -1.1104 6.27871 19.1954 20.4505
694 1 -1.1104 9.28645 19.0982 26.205
594 2 2.2208 10.6789 0.907608 27.6701
574 2 2.2208 10.6374 17.9015 27.7277
601 2 2.2208 13.3599 -2.03921 27.609
656 2 2.2208 10.5066 12.0481 27.7135
512 2 2.2208 10.5968 17.634 16.5179
513 1 -1.1104 11.9004 13.366 17.8607
514 1 -1.1104 12.0584 19.0303 17.7654
515 1 -1.1104 12.0865 13.5591 14.8451
517 1 -1.1104 12.05 19.0391 14.9966
519 1 -1.1104 12.1421 16.1328 17.8719
520 2 2.2208 10.5679 14.7803 19.2641
521 2 2.2208 10.543 20.6154 19.2667
522 1 -1.1104 12.0657 16.3687 15.037
524 1 -1.1104 9.13232 13.3522 17.9246
525 1 -1.1104 9.24094 19.0807 17.8891
526 2 2.2208 7.82308 17.7849 19.2876
527 1 -1.1104 9.15239 13.2689 15.165
529 1 -1.1104 9.31394 19.0252 14.9818
531 2 2.2208 7.70159 14.7547 16.4446
532 2 2.2208 7.71875 20.3462 16.5096
533 1 -1.1104 9.2291 16.1675 17.8328
534 1 -1.1104 9.17309 16.2104 15.0623
530 1 -1.1104 9.22809 19.2737 20.6048
523 1 -1.1104 11.8095 16.3767 20.5101
528 1 -1.1104 9.15935 13.6425 20.6619
375 2 2.2208 13.5472 20.571 27.6469
516 1 -1.1104 12.0406 13.6438 20.5828
345 1 -1.1104 0.932448 2.08062 20.506
362 1 -1.1104 3.62999 -3.34793 20.8985
540 2 2.2208 4.98756 0.741716 22.1767
541 1 -1.1104 0.989482 -3.5519 23.3922
542 1 -1.1104 0.854854 2.17038 23.467
545 1 -1.1104 0.676616 -3.39777 26.366
546 1 -1.1104 0.788849 2.08835 26.2922
549 1 -1.1104 0.726752 -0.718314 23.4184
551 2 2.2208 5.02807 -2.16748 24.9752
552 2 2.2208 4.93258 3.58839 24.8759
553 1 -1.1104 0.767156 -0.668951 26.2193
555 1 -1.1104 3.60145 -3.3832 23.6553
556 1 -1.1104 3.56218 2.26116 23.3947
557 2 2.2208 2.12767 0.700416 24.884
558 1 -1.1104 3.53774 -3.56504 26.3501
559 1 -1.1104 3.6472 2.01991 26.269
560 2 2.2208 2.15289 -1.98229 22.2776
562 1 -1.1104 3.61595 -0.703493 23.4355
563 1 -1.1104 3.51069 -0.708786 26.1203
561 2 2.2208 2.16576 3.6573 22.2136
357 1 -1.1104 6.436 -0.643451 20.4909
543 1 -1.1104 6.42122 -3.68732 23.5375
554 1 -1.1104 6.37736 -0.669346 26.3759
544 1 -1.1104 6.44321 1.97053 23.4643
548 1 -1.1104 6.50456 2.30583 26.3016
550 1 -1.1104 6.32231 -0.6969 23.5075
547 1 -1.1104 6.29351 -3.45202 26.2685
700 1 -1.1104 11.9656 16.3764 26.2608
684 2 2.2208 5.18554 17.7895 27.595
692 2 2.2208 7.86599 20.7154 21.9297
377 2 2.2208 13.3772 3.56018 22.133
603 2 2.2208 13.5958 0.817182 24.7921
703 1 -1.1104 12.0795 16.0859 23.3629
706 1 -1.1104 12.0416 18.8851 23.502
602 2 2.2208 13.3288 -2.06334 21.9785
391 1 -1.1104 11.8535 -0.595594 20.8069
384 1 -1.1104 11.9222 -3.48187 20.5906
396 1 -1.1104 9.13575 -3.52181 20.7998
576 2 2.2208 10.5291 0.850124 22.0947
577 1 -1.1104 12.232 -3.4565 23.3592
578 1 -1.1104 11.932 2.0323 23.4633
579 1 -1.1104 11.9975 -3.5089 26.1385
580 1 -1.1104 12.0728 2.39485 26.3301
581 1 -1.1104 12.1502 -0.754242 23.7182
582 2 2.2208 10.5325 -2.11439 24.7137
584 1 -1.1104 12.1691 -0.281416 26.4733
585 1 -1.1104 9.24482 -3.44466 23.4867
586 1 -1.1104 9.20553 2.1754 23.4762
587 2 2.2208 7.78693 0.580599 24.9086
588 1 -1.1104 9.04969 -3.46903 26.2899
589 1 -1.1104 9.14855 2.13829 26.3843
590 2 2.2208 7.80367 -2.11121 22.1477
592 1 -1.1104 9.04521 -0.773619 23.6302
593 1 -1.1104 9.33125 -0.568895 26.3049
591 2 2.2208 7.8223 3.70394 22.1148
583 2 2.2208 10.555 3.56221 24.9627
719 2 2.2208 13.3138 17.4556 19.1649
698 1 -1.1104 9.1375 19.226 23.2813
720 2 2.2208 13.453 20.5959 16.3955
420 1 -1.1104 6.55215 7.83421 20.601
445 1 -1.1104 3.77515 10.6436 20.7689
605 2 2.2208 5.03018 6.44337 22.0005
606 2 2.2208 4.97788 12.089 22.2015
607 1 -1.1104 0.740939 7.75831 23.4293
609 1 -1.1104 0.943824 7.675 26.2583
611 1 -1.1104 0.777723 4.88451 23.5242
612 1 -1.1104 0.790181 10.6108 23.4907
615 2 2.2208 4.94717 9.20319 24.8454
616 1 -1.1104 0.851986 4.98809 26.2205
617 1 -1.1104 0.863809 10.6083 26.3559
620 1 -1.1104 3.5881 7.8823 23.2693
621 2 2.2208 2.17403 6.53294 24.7136
622 2 2.2208 2.11608 12.133 24.7956
623 1 -1.1104 3.58745 7.86161 26.2755
624 2 2.2208 2.10281 9.12344 21.9564
625 1 -1.1104 3.5763 5.19445 23.5066
626 1 -1.1104 3.5776 10.5823 23.6011
627 1 -1.1104 3.5086 4.93009 26.1207
628 1 -1.1104 3.69479 10.6624 26.3417
619 1 -1.1104 6.5087 10.3754 26.215
614 1 -1.1104 6.39297 10.5111 23.2176
608 1 -1.1104 6.49007 7.5451 23.429
610 1 -1.1104 6.48543 7.66961 26.3165
618 1 -1.1104 6.5084 4.84607 26.1824
613 1 -1.1104 6.43511 4.84894 23.4394
373 2 2.2208 13.3009 17.6446 24.8067
657 2 2.2208 13.3511 12.0445 24.8141
659 2 2.2208 13.3681 6.41518 24.9214
376 2 2.2208 13.4703 9.30492 21.9937
460 1 -1.1104 12.1142 10.9433 20.9147
470 1 -1.1104 9.28954 4.95678 20.7303
453 1 -1.1104 11.9207 7.79218 20.5782
472 1 -1.1104 9.24808 10.869 20.5188
458 1 -1.1104 11.9477 5.01361 20.7184
636 1 -1.1104 9.24445 10.6179 26.1632
637 1 -1.1104 9.34642 5.03377 26.3458
638 1 -1.1104 9.09415 10.7571 23.407
639 1 -1.1104 9.18279 5.16994 23.6097
640 2 2.2208 7.85399 9.20996 21.8552
641 1 -1.1104 9.16824 7.85072 26.3907
642 2 2.2208 7.76061 11.933 24.8936
643 2 2.2208 7.83518 6.46606 25.0114
644 2 2.2208 10.631 6.38361 22.0872
645 2 2.2208 10.567 12.0796 22.0932
646 1 -1.1104 11.8514 7.95805 23.3195
647 1 -1.1104 11.9271 7.67659 26.2967
648 1 -1.1104 12.0376 5.14559 23.417
649 1 -1.1104 11.9297 10.5895 23.6172
650 2 2.2208 10.62 9.13489 24.8896
651 1 -1.1104 12.0984 4.99361 26.4968
652 1 -1.1104 12.0412 10.5809 26.3082
653 1 -1.1104 9.20903 7.84496 23.3296
708 2 2.2208 10.6489 17.6975 22.0179
448 2 2.2208 2.16739 12.0609 13.7677
707 1 -1.1104 11.8535 13.5281 23.5541
663 1 -1.1104 6.33287 16.2162 26.1019
696 1 -1.1104 6.34382 19.0801 26.2522
661 1 -1.1104 6.39284 13.3098 26.2312
494 1 -1.1104 0.647437 16.5389 20.4146
508 1 -1.1104 3.34541 16.3234 20.5916
503 1 -1.1104 3.49818 19.1535 20.4319
482 1 -1.1104 0.741409 13.34 20.7533
496 1 -1.1104 6.38446 16.3216 20.6576
486 1 -1.1104 6.58403 13.382 20.8077
667 1 -1.1104 6.4212 19.1743 23.202
484 1 -1.1104 0.7076 19.3637 20.7036
665 1 -1.1104 0.883295 16.215 26.401
682 2 2.2208 1.98146 14.9883 22.0055
664 1 -1.1104 0.930205 19.0981 26.1087
681 2 2.2208 2.11897 20.5155 22.1073
673 2 2.2208 4.95617 17.7426 21.8397
680 1 -1.1104 3.4141 16.0715 23.5714
672 1 -1.1104 0.739044 13.5669 23.3755
671 1 -1.1104 0.689061 18.9758 23.3971
669 2 2.2208 4.95245 14.8804 24.6892
668 2 2.2208 5.07809 20.4564 24.8119
679 1 -1.1104 0.485861 16.2191 23.408
677 1 -1.1104 3.65886 13.4557 26.2015
676 1 -1.1104 3.63515 16.2496 26.4408
675 2 2.2208 2.0168 17.5089 24.9448
666 1 -1.1104 0.777984 13.4358 26.2393
674 1 -1.1104 3.6743 18.9149 26.1601
660 1 -1.1104 3.46614 18.991 23.4792
662 1 -1.1104 3.43851 13.357 23.386
678 1 -1.1104 6.65371 16.3646 23.4273
670 1 -1.1104 6.26942 13.4856 23.4259
535 1 -1.1104 9.22656 16.449 20.8521
699 1 -1.1104 9.094 13.5709 23.714
404 2 2.2208 13.4724 20.4537 22.0636
370 2 2.2208 13.377 14.8628 22.065
518 1 -1.1104 12.0415 19.1105 20.6493
705 1 -1.1104 12.2747 13.2865 26.287
693 2 2.2208 8.01042 14.7958 22.1475
702 2 2.2208 10.533 14.927 24.9289
718 2 2.2208 13.3328 14.7882 16.3998
566 2 2.2208 2.34691 3.65328 27.6511
408 2 2.2208 7.59433 14.9371 27.5042
374 2 2.2208 13.3059 14.9406 27.5455
629 2 2.2208 5.04605 6.2291 27.5754
685 2 2.2208 2.2364 14.9372 27.6974
604 2 2.2208 13.4901 3.72853 27.7256
723 2 2.2208 4.99683 23.3774 5.1008
724 2 2.2208 5.06629 28.8812 5.351
725 1 -1.1104 1.02975 24.5891 0.865467
726 1 -1.1104 0.919075 24.7336 3.78334
727 1 -1.1104 0.690322 21.8626 1.04441
728 1 -1.1104 0.619901 27.407 1.03552
729 2 2.2208 5.07927 26.1823 2.28932
730 1 -1.1104 0.916817 21.8646 3.64377
731 1 -1.1104 0.841248 27.4822 3.72885
732 1 -1.1104 3.82994 24.7822 0.876686
733 2 2.2208 2.2498 23.3318 2.3732
734 2 2.2208 2.17665 29.068 2.53564
735 1 -1.1104 3.67361 24.6077 3.53502
736 2 2.2208 2.19431 26.16 5.04077
737 1 -1.1104 3.68203 22.0599 0.984201
738 1 -1.1104 3.61198 27.5705 1.06245
739 1 -1.1104 3.80304 21.8678 3.8266
740 1 -1.1104 3.66763 27.4384 4.00046
867 1 -1.1104 0.74842 27.4545 6.57296
864 1 -1.1104 1.11193 24.8853 6.62727
746 1 -1.1104 6.70111 21.9003 0.889692
745 1 -1.1104 6.6061 24.826 3.69972
749 1 -1.1104 6.30899 27.5236 3.90137
744 1 -1.1104 6.58108 24.7805 0.851089
1035 1 -1.1104 12.1231 41.5565 9.43039
870 1 -1.1104 3.7861 24.6252 6.65846
997 1 -1.1104 6.61914 38.7955 6.59338
1499 1 -1.1104 9.4836 47.3282 1.07378
1327 2 2.2208 2.33104 37.3812 -0.285624
1269 2 2.2208 2.38423 25.9713 -0.407669
748 1 -1.1104 6.44406 22.1902 3.54627
1054 2 2.2208 13.5436 40.2622 8.08648
747 1 -1.1104 6.33879 27.5879 1.13826
750 2 2.2208 10.5169 23.4281 5.26774
751 2 2.2208 10.6242 29.0662 5.26899
752 1 -1.1104 11.9449 24.6923 0.799506
753 1 -1.1104 12.0566 24.8471 3.51062
754 1 -1.1104 12.243 22.0455 0.892753
755 1 -1.1104 12.0549 27.4713 0.740868
756 2 2.2208 10.5905 26.1726 2.18317
757 1 -1.1104 12.0818 22.0764 3.76337
758 1 -1.1104 11.8908 27.6275 3.64182
759 1 -1.1104 9.28307 24.7122 0.935991
760 2 2.2208 7.94299 23.4178 2.43984
761 2 2.2208 7.82399 29.1027 2.46498
762 1 -1.1104 9.37419 24.9588 3.84183
763 2 2.2208 7.86685 26.2379 5.18745
764 1 -1.1104 9.32797 21.9556 0.980471
765 1 -1.1104 9.19903 27.6125 0.791531
766 1 -1.1104 9.28445 22.054 3.75764
767 1 -1.1104 9.13882 27.5534 3.52953
865 1 -1.1104 6.40373 24.7847 6.52518
768 2 2.2208 13.5667 23.3312 2.26458
770 2 2.2208 13.2181 26.1876 5.12351
862 2 2.2208 13.6383 45.7808 2.41483
771 2 2.2208 5.01602 34.6073 5.21878
772 1 -1.1104 0.766544 30.4685 1.07945
773 1 -1.1104 1.01337 35.9159 1.08524
775 1 -1.1104 0.815265 30.2886 3.81791
776 1 -1.1104 0.964084 36.0837 3.7366
778 1 -1.1104 0.794778 33.0683 1.10324
779 2 2.2208 4.98757 31.8751 2.4505
780 2 2.2208 5.14257 37.3836 2.35526
781 1 -1.1104 0.760722 33.199 3.94199
783 1 -1.1104 3.50511 30.3757 0.992908
784 1 -1.1104 3.82136 36.0687 1.12268
785 2 2.2208 2.14798 34.4879 2.55508
786 1 -1.1104 3.55193 30.2801 3.7775
787 1 -1.1104 3.73305 35.9469 4.04056
788 2 2.2208 2.15646 31.8821 5.34859
789 2 2.2208 2.3405 37.342 5.20492
790 1 -1.1104 3.63814 33.2389 0.956942
791 1 -1.1104 3.56491 33.1595 3.84955
816 2 2.2208 13.5752 34.669 2.45513
774 1 -1.1104 6.47943 36.0478 0.908879
782 1 -1.1104 6.36746 33.2427 3.84441
795 1 -1.1104 6.34883 30.3707 0.99195
797 1 -1.1104 6.37976 33.1098 1.00107
1181 2 2.2208 10.7566 37.4755 13.6408
1029 1 -1.1104 12.3214 41.554 6.5313
1647 1 -1.1104 0.992034 47.0866 9.59657
927 1 -1.1104 3.69706 30.3177 6.77869
1219 2 2.2208 2.27813 45.9032 13.6555
1039 2 2.2208 13.5409 42.9189 10.847
777 1 -1.1104 6.53668 36.0018 3.94227
796 1 -1.1104 6.44889 30.3518 3.87538
798 2 2.2208 10.7455 34.7424 5.29238
799 1 -1.1104 11.9184 30.3172 0.98255
800 1 -1.1104 12.1422 35.9914 1.02066
801 1 -1.1104 11.9944 30.4223 3.77578
802 1 -1.1104 12.2592 35.8369 3.86445
803 1 -1.1104 12.1459 33.2335 1.1533
804 2 2.2208 10.6944 31.7873 2.44662
805 2 2.2208 10.6726 37.3771 2.32928
806 1 -1.1104 12.0963 33.1052 3.81366
807 1 -1.1104 9.1803 30.4798 1.13379
808 1 -1.1104 9.3131 35.9207 0.969449
809 2 2.2208 7.8836 34.3873 2.55365
810 1 -1.1104 9.27999 30.4327 4.06338
811 1 -1.1104 9.42471 35.8311 3.70094
812 2 2.2208 7.80247 31.8171 5.37972
813 2 2.2208 8.04347 37.3606 5.12346
814 1 -1.1104 9.20841 33.0973 0.991031
815 1 -1.1104 9.44652 33.1171 3.9442
956 1 -1.1104 12.145 35.8688 6.76577
923 1 -1.1104 6.31531 30.3198 6.55728
960 1 -1.1104 9.26238 33.3783 6.68998
959 1 -1.1104 9.28781 36.0512 6.60066
1090 2 2.2208 2.07011 23.3505 13.695
954 2 2.2208 -0.390766 37.1431 8.12376