ITEM: TIMESTEP
30000
ITEM: NUMBER OF ATOMS
17910
ITEM: BOX BOUNDS pp pp pp
-4.0643932870013072e-01 2.7746439328699889e+01
-4.6774898999940842e+00 3.3275748989998385e+02
-3.9595638219321710e-01 2.7735956382193606e+01
ITEM: ATOMS id type q x y z
1 2 2.2208 5.62319 0.962699 5.23433
2 1 -1.1104 1.29471 -3.30688 1.15829
3 1 -1.1104 1.03773 2.29476 1.07883
6 1 -1.1104 1.23861 -3.32251 4.06563
7 1 -1.1104 1.38299 2.14164 4.04851
10 1 -1.1104 1.19618 -0.383945 1.109
12 2 2.2208 5.43484 -1.93954 2.53315
13 2 2.2208 5.60971 3.85637 2.45769
14 1 -1.1104 1.34918 -0.627868 3.90839
16 1 -1.1104 3.92741 -3.26689 1.0737
17 1 -1.1104 3.92869 2.35955 1.15935
18 2 2.2208 2.65838 0.862993 2.5894
19 1 -1.1104 4.09272 -3.42866 3.99921
20 1 -1.1104 4.1941 2.32655 3.82516
21 2 2.2208 2.65518 -1.8343 5.50601
22 2 2.2208 2.64663 3.71259 5.17196
23 1 -1.1104 3.94048 -0.312299 1.11673
24 1 -1.1104 3.93158 -0.698817 3.89463
28 2 2.2208 2.62555 -4.61974 2.69688
9772 2 2.2208 -0.301543 1.02029 5.1997
9777 2 2.2208 -0.242077 -4.50091 11.0296
25 2 2.2208 -0.194883 -1.93994 2.54818
27 2 2.2208 -0.179784 3.81204 2.52251
594 2 2.2208 11.0959 0.945897 -0.28487
408 2 2.2208 8.0643 14.8958 -0.446142
654 2 2.2208 11.1288 6.47746 -0.387686
231 2 2.2208 8.29114 -4.66944 8.25407
170 1 -1.1104 1.26502 -0.32 6.62927
173 1 -1.1104 4.39805 2.29759 6.65997
174 1 -1.1104 4.07928 -0.418333 6.74344
4 1 -1.1104 6.68442 -3.30926 1.1048
11 1 -1.1104 6.79633 -0.371799 1.10281
8 1 -1.1104 6.98211 -3.33214 3.90763
5 1 -1.1104 6.89476 2.44979 1.06491
9 1 -1.1104 7.02991 2.47663 3.91419
15 1 -1.1104 7.0072 -0.403687 3.95081
31 2 2.2208 11.1163 1.05959 5.34805
32 1 -1.1104 12.4192 -3.22518 1.17895
33 1 -1.1104 12.535 2.25235 1.13674
34 1 -1.1104 12.6147 -3.22501 4.0163
35 1 -1.1104 12.3965 2.32577 3.99801
36 1 -1.1104 12.492 -0.559464 1.38708
37 2 2.2208 11.0394 -1.92068 2.60186
38 2 2.2208 11.1161 3.58293 2.48024
39 1 -1.1104 12.5169 -0.364167 4.04548
40 1 -1.1104 9.59909 -3.24758 1.18874
41 1 -1.1104 9.6306 2.2856 1.26293
42 2 2.2208 8.36081 1.05364 2.56296
43 1 -1.1104 9.65741 -3.14191 3.9757
44 1 -1.1104 9.75989 2.44857 4.06213
45 2 2.2208 8.18651 -1.83241 5.31896
47 1 -1.1104 9.81796 -0.418129 1.12694
48 1 -1.1104 9.80255 -0.387159 4.07141
46 2 2.2208 8.32338 3.9196 5.37568
209 1 -1.1104 9.77541 2.42658 6.83882
210 1 -1.1104 9.83677 -0.392978 6.66394
207 1 -1.1104 12.7258 -0.37069 6.76393
200 1 -1.1104 12.5191 13.623 12.2715
52 2 2.2208 11.0795 -4.516 5.38918
569 2 2.2208 5.35165 -4.71014 -0.30615
205 1 -1.1104 12.3875 -3.25172 6.9391
169 1 -1.1104 7.00116 2.29832 6.65034
83 2 2.2208 -0.180741 12.2315 5.40361
54 2 2.2208 5.45095 6.72428 5.17617
55 2 2.2208 5.46837 12.1827 5.27603
56 1 -1.1104 1.1818 7.99327 1.0138
58 1 -1.1104 1.1069 7.99524 3.94972
60 1 -1.1104 1.29315 5.0188 1.06529
61 1 -1.1104 1.31475 10.7986 1.08862
66 2 2.2208 5.53205 9.47928 2.40834
67 1 -1.1104 1.1968 5.11671 4.03021
68 1 -1.1104 1.20761 10.7899 3.69901
71 1 -1.1104 4.10292 7.96272 1.0364
72 2 2.2208 2.56865 6.52984 2.42551
73 2 2.2208 2.70227 12.0811 2.57821
74 1 -1.1104 4.09444 7.97424 3.76676
75 2 2.2208 2.57762 9.39017 5.2698
76 1 -1.1104 3.89118 5.15578 1.06893
77 1 -1.1104 4.08702 10.9107 0.866167
79 1 -1.1104 3.97657 5.28557 3.9271
80 1 -1.1104 4.02787 10.7727 3.84344
82 2 2.2208 -0.084499 9.39502 2.58198
9774 2 2.2208 0.0675844 6.49775 5.42005
319 1 -1.1104 9.86882 13.6436 9.60377
234 1 -1.1104 1.49631 7.76298 6.7436
78 1 -1.1104 4.17362 10.8082 6.68751
238 1 -1.1104 4.17807 8.1533 6.65863
306 1 -1.1104 6.88026 16.4312 12.4239
70 1 -1.1104 6.83309 10.7073 3.80259
64 1 -1.1104 7.01462 10.8818 1.06405
69 1 -1.1104 6.86511 5.26647 3.84348
59 1 -1.1104 6.80165 8.17062 3.77002
63 1 -1.1104 6.86163 5.14174 1.04004
57 1 -1.1104 7.11738 7.9154 0.973878
84 2 2.2208 11.0422 6.59724 5.36878
85 2 2.2208 11.165 12.2907 5.33318
86 1 -1.1104 12.6593 7.85217 1.12538
87 1 -1.1104 12.5778 8.00003 3.96285
88 1 -1.1104 12.3879 4.91409 1.17497
89 1 -1.1104 12.579 10.8418 1.08377
91 2 2.2208 11.2024 9.37072 2.51411
92 1 -1.1104 12.4361 5.13681 4.10332
93 1 -1.1104 12.5309 10.7579 4.02993
94 1 -1.1104 9.93818 8.0444 1.01716
95 2 2.2208 8.26519 6.5416 2.44495
96 2 2.2208 8.3883 12.2234 2.52536
97 1 -1.1104 9.66369 8.12869 3.87458
98 2 2.2208 8.3216 9.43248 5.24594
99 1 -1.1104 9.77327 5.33975 0.99567
100 1 -1.1104 9.74072 10.6254 1.23215
102 1 -1.1104 9.64371 5.237 3.79616
103 1 -1.1104 9.71306 10.8149 3.88073
65 1 -1.1104 6.88901 10.6656 6.58343
267 1 -1.1104 9.80618 7.85781 6.90266
90 1 -1.1104 12.3042 10.9185 6.87917
266 1 -1.1104 12.5691 5.13551 6.86159
101 1 -1.1104 9.73884 10.7229 6.6033
595 2 2.2208 8.35697 -1.93131 -0.298522
232 2 2.2208 11.1075 -4.48704 11.1284
137 2 2.2208 -0.213509 17.9263 5.2374
297 1 -1.1104 6.99169 13.8504 12.2564
655 2 2.2208 8.41537 9.46618 -0.270407
136 2 2.2208 -0.261004 20.7143 2.28819
106 2 2.2208 5.43552 17.8593 5.36095
107 1 -1.1104 1.3504 13.8976 0.901249
109 1 -1.1104 1.31163 19.2154 1.00575
113 1 -1.1104 1.17835 13.6077 3.88778
114 1 -1.1104 1.07992 19.1473 3.61801
116 1 -1.1104 1.3735 16.5617 0.950739
119 2 2.2208 5.53468 15.1415 2.5426
120 2 2.2208 5.40468 20.6906 2.5517
121 1 -1.1104 1.181 16.3976 3.91345
123 1 -1.1104 4.1271 13.8018 1.09667
125 1 -1.1104 4.05234 19.504 1.07342
127 2 2.2208 2.62291 17.8416 2.43187
128 1 -1.1104 4.10561 13.602 4.03166
129 1 -1.1104 3.87792 19.1858 3.93321
130 2 2.2208 2.78758 15.0161 5.26661
131 2 2.2208 2.5122 20.6148 5.19421
132 1 -1.1104 3.98214 16.4466 1.11295
134 1 -1.1104 4.0533 16.4428 3.8527
135 2 2.2208 -0.238657 15.0923 2.47169
202 2 2.2208 2.60047 -4.6285 8.32892
230 1 -1.1104 12.496 16.3988 12.2245
115 1 -1.1104 6.82769 13.464 3.92876
140 1 -1.1104 6.67467 16.5677 1.10568
139 1 -1.1104 6.75721 19.094 4.00232
110 1 -1.1104 6.7795 13.6688 1.15681
138 1 -1.1104 6.91588 19.392 1.14955
122 1 -1.1104 6.8629 16.2683 3.90592
141 2 2.2208 11.0791 17.9235 5.24732
142 1 -1.1104 12.563 13.667 1.05574
144 1 -1.1104 12.3225 19.36 1.23628
146 1 -1.1104 12.3711 13.6391 3.93491
147 1 -1.1104 12.4423 19.3488 3.96056
148 1 -1.1104 12.4567 16.4152 0.848959
150 2 2.2208 11.1386 15.0957 2.54245
151 2 2.2208 11.0316 20.7935 2.45083
152 1 -1.1104 12.3916 16.5128 3.68931
153 1 -1.1104 9.71965 13.5187 1.06883
155 1 -1.1104 9.58409 19.135 1.10386
157 2 2.2208 8.17437 17.8385 2.49046
158 1 -1.1104 9.73124 13.6419 3.72468
159 1 -1.1104 9.70487 19.2287 3.96254
160 2 2.2208 8.36995 15.1041 5.31115
161 2 2.2208 8.28665 20.6312 5.37328
162 1 -1.1104 9.49932 16.3645 1.09604
164 1 -1.1104 9.70863 16.3753 3.94696
143 1 -1.1104 12.4783 13.7208 6.67083
163 1 -1.1104 9.75437 16.3671 6.74314
572 2 2.2208 -0.224537 0.891859 -0.35937
156 1 -1.1104 9.73208 19.1178 6.82859
154 1 -1.1104 9.82398 13.6229 6.59
30 2 2.2208 -0.148661 -4.52545 5.54752
630 2 2.2208 2.60443 9.33557 -0.304455
166 1 -1.1104 1.08068 -3.07758 6.944
9776 2 2.2208 -0.270803 1.03702 10.9905
9775 2 2.2208 -0.330792 -1.74114 8.06019
172 1 -1.1104 3.9012 -3.45033 6.79926
167 1 -1.1104 1.39049 2.38001 6.77155
175 2 2.2208 5.60833 0.808413 10.968
176 1 -1.1104 1.2776 -3.2543 12.3462
177 1 -1.1104 1.09699 2.37295 12.4549
180 1 -1.1104 1.17779 -3.12802 9.73013
181 1 -1.1104 1.40091 2.46068 9.82465
184 1 -1.1104 1.37477 -0.424645 12.477
186 2 2.2208 5.49029 -1.88088 8.1027
187 2 2.2208 5.51632 3.63057 8.04357
188 1 -1.1104 1.0856 -0.367842 9.54601
190 1 -1.1104 4.13107 -3.15188 12.313
191 1 -1.1104 3.95304 2.53215 12.4715
192 2 2.2208 2.77429 0.980148 7.97209
193 1 -1.1104 4.1916 -3.20116 9.57041
194 1 -1.1104 4.10682 2.3927 9.44311
195 2 2.2208 2.58493 -1.69935 11.0179
197 1 -1.1104 4.05089 -0.339859 12.2944
198 1 -1.1104 4.07848 -0.546669 9.40581
196 2 2.2208 2.89994 3.7677 10.8938
199 2 2.2208 -0.0941536 3.77229 8.25805
315 1 -1.1104 9.83894 16.3492 12.2196
316 2 2.2208 8.22342 20.5609 10.864
145 1 -1.1104 12.4337 19.3683 6.83239
206 1 -1.1104 12.5154 2.55881 6.90702
566 2 2.2208 2.64657 3.77469 -0.333926
168 1 -1.1104 6.83987 -3.22729 6.75971
208 1 -1.1104 9.55589 -3.01489 6.83965
182 1 -1.1104 7.05277 -3.27666 9.50595
189 1 -1.1104 6.86065 -0.557163 9.39535
183 1 -1.1104 6.84848 2.30028 9.56532
171 1 -1.1104 6.89747 -0.456507 6.61166
178 1 -1.1104 6.72858 -3.46555 12.47
179 1 -1.1104 6.83634 2.3755 12.3825
185 1 -1.1104 6.80376 -0.516229 12.3604
211 2 2.2208 11.1609 1.05412 10.9086
212 1 -1.1104 12.4003 -3.01551 12.4638
213 1 -1.1104 12.4593 2.48591 12.5023
214 1 -1.1104 12.5728 -3.31472 9.62672
215 1 -1.1104 12.6195 2.3294 9.69105
216 1 -1.1104 12.3173 -0.443008 12.1211
217 2 2.2208 11.1038 -1.79202 8.18977
218 2 2.2208 11.1901 3.88639 8.31631
219 1 -1.1104 12.4975 -0.475382 9.43226
220 1 -1.1104 9.6482 -3.04001 12.4982
221 1 -1.1104 9.50478 2.4513 12.5179
222 2 2.2208 8.38861 0.822286 7.94146
223 1 -1.1104 9.81914 -3.1649 9.8518
224 1 -1.1104 9.66401 2.47866 9.75745
225 2 2.2208 8.24139 -1.82744 10.9967
226 2 2.2208 8.25149 3.70836 11.0764
227 1 -1.1104 9.46272 -0.32986 12.3933
228 1 -1.1104 9.75198 -0.450333 9.45859
318 1 -1.1104 9.48569 19.2423 9.67509
9709 2 2.2208 -0.0548675 6.72156 11.0695
239 1 -1.1104 4.08702 5.28828 6.65468
62 1 -1.1104 1.28716 10.7645 6.65674
236 1 -1.1104 1.26658 5.15132 6.90885
9708 2 2.2208 -0.00685264 9.45207 8.10043
240 2 2.2208 5.55455 6.45142 10.8811
241 2 2.2208 5.54372 12.4278 10.9488
242 1 -1.1104 1.43512 7.85222 12.2694
244 1 -1.1104 1.41298 8.15582 9.50664
246 1 -1.1104 1.22011 5.21631 12.5549
247 1 -1.1104 1.56212 10.5323 12.4639
250 2 2.2208 5.46184 9.51431 8.16678
251 1 -1.1104 1.27405 5.06566 9.5978
252 1 -1.1104 1.14161 10.9984 9.50198
255 1 -1.1104 4.1241 7.93153 12.4175
256 2 2.2208 2.83757 6.61667 8.17579
257 2 2.2208 2.63774 12.3322 8.19047
258 1 -1.1104 4.09971 8.07395 9.45243
259 2 2.2208 2.9747 9.40776 11.0097
260 1 -1.1104 4.01972 5.1612 12.4248
261 1 -1.1104 4.09949 10.927 12.3585
262 1 -1.1104 4.10013 5.2345 9.49478
263 1 -1.1104 3.99985 10.8354 9.55097
9701 2 2.2208 -0.338641 12.0645 10.983
149 1 -1.1104 12.4695 16.5874 6.58892
253 1 -1.1104 6.80943 4.83629 9.49118
248 1 -1.1104 6.70018 5.13011 12.2533
245 1 -1.1104 6.88914 7.83142 9.52758
249 1 -1.1104 6.79039 11.0146 12.4016
243 1 -1.1104 6.98334 7.98101 12.4064
237 1 -1.1104 6.83985 5.12458 6.72409
235 1 -1.1104 7.03176 7.85431 6.76318
269 1 -1.1104 9.72866 5.20097 6.71509
265 1 -1.1104 12.629 8.04184 6.8092
254 1 -1.1104 6.98895 10.6316 9.63484
264 1 -1.1104 9.74021 10.8342 9.42599
268 1 -1.1104 9.62342 5.20765 9.59714
270 1 -1.1104 9.69539 10.7026 12.3814
271 1 -1.1104 9.47678 5.25952 12.3549
272 2 2.2208 8.37165 9.26413 10.906
273 1 -1.1104 9.75387 8.01234 9.64697
274 2 2.2208 8.4421 12.2125 7.97536
275 2 2.2208 8.27503 6.40335 8.15133
276 2 2.2208 11.0904 6.47614 10.9299
277 2 2.2208 11.1137 12.0666 11.0143
278 1 -1.1104 12.6069 7.91637 12.4297
279 1 -1.1104 12.6386 7.82617 9.58651
280 1 -1.1104 12.6577 5.04218 12.5152
281 1 -1.1104 12.4859 10.791 12.6581
282 2 2.2208 11.1193 9.28012 8.32582
283 1 -1.1104 12.4468 5.29889 9.5817
284 1 -1.1104 12.563 10.6722 9.91051
285 1 -1.1104 9.812 7.98125 12.28
565 2 2.2208 2.56937 -1.82057 -0.212994
112 1 -1.1104 6.9887 19.3742 6.65666
124 1 -1.1104 4.24797 13.6697 6.73804
302 1 -1.1104 1.12592 19.2577 6.59309
133 1 -1.1104 4.20019 16.5951 6.82692
117 1 -1.1104 1.27399 16.342 6.868
311 2 2.2208 -0.166379 20.6867 8.00703
313 2 2.2208 -0.110707 15.0824 8.12386
312 2 2.2208 -0.218354 17.8278 10.9661
108 1 -1.1104 1.32714 13.5995 6.75127
126 1 -1.1104 3.76797 19.2697 6.75512
286 1 -1.1104 4.05657 19.1385 12.2021
287 1 -1.1104 4.12353 13.6973 12.3257
291 1 -1.1104 1.13341 19.1295 9.3134
292 1 -1.1104 1.30283 16.6047 9.63635
293 2 2.2208 5.52151 20.6209 8.07837
294 1 -1.1104 1.26478 13.7112 9.44352
295 2 2.2208 5.59004 15.1195 8.21508
298 1 -1.1104 1.26277 19.4021 12.2474
299 1 -1.1104 1.05635 13.4183 12.3025
300 2 2.2208 5.52146 17.8603 10.9605
301 1 -1.1104 4.00856 19.4835 9.4588
303 2 2.2208 2.72619 17.8466 8.09237
304 1 -1.1104 4.00708 16.5125 9.55629
305 1 -1.1104 4.05475 13.6541 9.54216
307 1 -1.1104 1.13842 16.5513 12.3817
308 1 -1.1104 4.20669 16.3644 12.3869
309 2 2.2208 2.52329 20.6763 10.9607
310 2 2.2208 2.57722 15.1439 10.8775
317 2 2.2208 8.4796 14.9398 10.9213
323 1 -1.1104 12.6906 16.5406 9.51125
81 2 2.2208 11.256 17.8079 10.9793
325 2 2.2208 11.2311 15.0561 8.14404
289 1 -1.1104 6.9339 16.4246 9.63843
111 1 -1.1104 6.99329 13.6221 6.74077
322 1 -1.1104 9.6631 13.563 12.3431
321 1 -1.1104 9.59112 19.1694 12.3431
229 1 -1.1104 12.3347 19.4008 9.5305
314 1 -1.1104 9.7316 16.2932 9.52716
296 1 -1.1104 6.88632 19.1417 12.2322
288 1 -1.1104 6.71258 19.186 9.48095
290 1 -1.1104 6.85048 13.4729 9.47077
320 2 2.2208 8.39491 17.7732 8.0916
204 1 -1.1104 12.6194 13.5495 9.51895
324 2 2.2208 11.1125 20.7426 7.9645
118 1 -1.1104 6.96502 16.5743 6.75401
201 1 -1.1104 12.534 19.2863 12.3486
564 2 2.2208 5.34611 0.990691 -0.100307
598 2 2.2208 11.0534 -4.64688 -0.175653
635 2 2.2208 -0.217915 6.52426 -0.340082
203 2 2.2208 5.42691 -4.68286 10.971
632 2 2.2208 -0.0564896 12.2688 -0.242171
687 2 2.2208 -0.221379 17.8441 -0.292609
575 2 2.2208 8.2615 20.6419 -0.322194
446 2 2.2208 2.71511 6.53483 13.6176
656 2 2.2208 11.1982 12.1895 -0.246874
631 2 2.2208 5.50613 12.1071 -0.317497
574 2 2.2208 10.9582 17.8431 -0.149469
684 2 2.2208 5.39312 17.8891 -0.285203
337 2 2.2208 5.4841 1.08762 16.6209
338 1 -1.1104 1.17802 -3.37554 18.0018
339 1 -1.1104 1.30254 2.36848 18.084
342 1 -1.1104 1.10661 -3.10971 15.2475
344 1 -1.1104 1.3923 2.33332 15.1982
350 1 -1.1104 1.40316 -0.607881 18.1822
352 2 2.2208 5.58608 -1.72729 19.4585
354 1 -1.1104 1.25481 -0.365453 15.362
358 1 -1.1104 4.04686 -3.26897 17.9225
359 1 -1.1104 4.05499 2.37587 18.1377
360 2 2.2208 2.69513 0.715671 19.5094
361 1 -1.1104 4.07633 -3.43352 15.193
363 1 -1.1104 4.06156 2.37594 15.2915
365 2 2.2208 2.68667 -1.98384 16.6851
366 2 2.2208 2.61405 3.66642 16.6664
367 1 -1.1104 4.03888 -0.384078 18.0362
368 1 -1.1104 3.96113 -0.591632 15.1356
353 2 2.2208 5.39186 3.77668 19.5057
9854 2 2.2208 -0.156181 3.78972 19.4178
10138 2 2.2208 -0.0853685 -1.94247 19.5203
10137 2 2.2208 -0.214047 0.956529 16.6122
518 1 -1.1104 12.4702 19.1309 20.5351
345 1 -1.1104 1.28928 2.24607 20.981
355 1 -1.1104 1.29192 -0.726406 20.8192
343 1 -1.1104 1.35387 -3.39311 20.9708
571 2 2.2208 2.73387 -4.62683 25.1601
474 2 2.2208 11.0774 9.27731 13.6851
536 2 2.2208 11.0862 20.6382 13.7894
475 2 2.2208 8.38721 12.2099 13.6856
356 1 -1.1104 6.80357 -0.484683 15.2874
341 1 -1.1104 6.87072 2.4506 17.995
348 1 -1.1104 6.94758 2.31347 15.2098
351 1 -1.1104 6.79549 -0.302072 18.0034
346 1 -1.1104 6.67764 -3.20724 15.2757
340 1 -1.1104 6.90763 -3.08522 18.0972
380 2 2.2208 11.0501 1.02761 16.6835
381 1 -1.1104 12.7394 -3.11884 18.3815
382 1 -1.1104 12.4225 2.46417 18.0385
383 1 -1.1104 12.5717 -3.10388 15.5303
385 1 -1.1104 12.4753 2.40658 14.9359
387 1 -1.1104 12.4188 -0.330642 18.1478
388 2 2.2208 11.2225 -1.84244 19.399
389 2 2.2208 11.1727 3.78667 19.4068
390 1 -1.1104 12.5429 -0.418466 14.9798
392 1 -1.1104 9.90593 -3.13813 18.0276
393 1 -1.1104 9.54823 2.46319 18.0117
394 2 2.2208 8.2695 1.12281 19.5669
395 1 -1.1104 9.76547 -3.20736 15.2594
397 1 -1.1104 9.7277 2.40258 15.2939
399 2 2.2208 8.27748 -1.66776 16.6847
401 1 -1.1104 9.67645 -0.366423 18.04
402 1 -1.1104 9.6884 -0.204913 15.3358
384 1 -1.1104 12.4438 -3.15505 20.9186
448 2 2.2208 2.68498 12.2095 13.5479
336 2 2.2208 11.06 -1.7347 13.7541
537 2 2.2208 11.1626 15.0909 13.6032
400 2 2.2208 8.23895 3.86115 16.543
692 2 2.2208 8.2939 20.5615 22.1061
398 1 -1.1104 9.86839 2.4111 20.8064
599 2 2.2208 11.2231 -4.51896 22.2557
9926 2 2.2208 -0.200676 9.46745 19.3825
717 2 2.2208 -0.173669 12.0357 16.5369
413 2 2.2208 5.31816 6.60738 16.5614
414 2 2.2208 5.5213 12.1445 16.5227
415 1 -1.1104 1.34126 8.08961 18.0646
417 1 -1.1104 1.28159 7.89995 15.1594
421 1 -1.1104 1.02387 5.21939 18.299
422 1 -1.1104 1.29372 10.6897 17.8979
425 2 2.2208 5.41405 9.40827 19.3086
426 1 -1.1104 1.23367 5.15956 15.6659
428 1 -1.1104 1.28373 10.7666 15.1036
434 1 -1.1104 4.16761 7.99979 17.9035
435 2 2.2208 2.65996 6.5971 19.4243
436 2 2.2208 2.69898 12.1242 19.3323
437 1 -1.1104 3.97521 8.05516 15.1559
439 2 2.2208 2.70187 9.2883 16.5392
440 1 -1.1104 3.80724 5.28027 18.1934
441 1 -1.1104 4.15034 10.7866 17.8213
442 1 -1.1104 4.04318 5.14929 15.4336
444 1 -1.1104 4.054 10.7542 15.0631
438 1 -1.1104 3.85714 8.01217 20.6884
9927 2 2.2208 -0.180697 6.67218 16.7301
379 2 2.2208 5.3046 3.85335 13.8732
429 1 -1.1104 1.18185 10.8353 20.7522
667 1 -1.1104 6.91936 19.1714 23.5554
570 2 2.2208 5.46577 -4.5177 22.3054
711 2 2.2208 -0.240526 3.74867 13.7804
432 1 -1.1104 6.84724 10.7121 15.1159
423 1 -1.1104 6.84686 5.1583 18.0966
419 1 -1.1104 6.80927 8.00331 15.1013
424 1 -1.1104 7.14234 10.785 17.981
416 1 -1.1104 6.90363 7.88386 17.5923
430 1 -1.1104 6.82333 5.10079 15.0378
433 1 -1.1104 6.89887 10.8392 20.6288
449 2 2.2208 11.0501 6.55087 16.6938
450 2 2.2208 11.2912 12.1716 16.5793
451 1 -1.1104 12.646 8.03359 18.0666
452 1 -1.1104 12.4522 8.12882 15.0703
454 1 -1.1104 12.4591 5.28519 18.0926
455 1 -1.1104 12.6726 10.8305 18.1322
456 2 2.2208 11.1544 9.37935 19.4074
457 1 -1.1104 12.4253 5.38592 15.3372
459 1 -1.1104 12.6156 10.7831 15.2566
461 1 -1.1104 9.88178 8.06468 18.0166
462 2 2.2208 8.26508 6.58074 19.3418
463 2 2.2208 8.43143 12.29 19.2033
464 1 -1.1104 9.56639 7.92745 15.187
466 2 2.2208 8.29313 9.34646 16.4327
467 1 -1.1104 9.65201 5.28759 18.011
468 1 -1.1104 9.96188 10.8015 17.9759
469 1 -1.1104 9.46736 5.22068 15.2124
471 1 -1.1104 9.68574 10.8684 15.0712
470 1 -1.1104 9.75644 5.1398 20.7772
472 1 -1.1104 9.78186 10.7467 20.773
465 1 -1.1104 9.81061 8.01508 20.76
458 1 -1.1104 12.5196 5.31128 20.912
431 1 -1.1104 6.82418 5.17737 20.6894
460 1 -1.1104 12.4764 10.7651 21.0082
721 2 2.2208 -0.142078 20.6113 19.245
663 1 -1.1104 6.85216 16.5784 26.522
372 2 2.2208 2.70414 -4.61069 19.4783
412 2 2.2208 11.0079 3.82835 13.7903
476 2 2.2208 5.47974 17.7394 16.5351
477 1 -1.1104 1.22054 13.5007 17.7044
478 1 -1.1104 1.33728 19.3855 17.8829
481 1 -1.1104 1.26665 13.4688 14.9686
483 1 -1.1104 1.30282 19.1025 15.0801
489 1 -1.1104 0.979135 16.4684 18.1325
491 2 2.2208 5.39186 15.0541 19.3647
492 2 2.2208 5.48755 20.5027 19.3949
493 1 -1.1104 1.02631 16.4224 15.2563
497 1 -1.1104 4.01903 13.6325 18.0461
498 1 -1.1104 4.12004 19.3154 17.9266
499 2 2.2208 2.6904 17.8969 19.3562
500 1 -1.1104 3.96316 13.5635 15.1621
502 1 -1.1104 4.06466 19.2895 14.9472
504 2 2.2208 2.5297 14.8483 16.5104
505 2 2.2208 2.65675 20.5695 16.4238
506 1 -1.1104 4.00245 16.2067 17.8887
507 1 -1.1104 4.00869 16.5832 15.2311
722 2 2.2208 -0.369453 15.0493 19.2991
411 2 2.2208 -0.234287 17.7501 16.5276
600 2 2.2208 8.26365 -4.65718 24.9516
508 1 -1.1104 3.94085 16.2176 20.7084
503 1 -1.1104 4.02505 19.0282 20.8601
482 1 -1.1104 1.2763 13.413 20.7797
528 1 -1.1104 9.72382 13.5689 20.6195
378 2 2.2208 2.69115 1.02929 13.76
511 2 2.2208 5.59918 15.0267 13.7902
487 1 -1.1104 6.79842 19.0619 15.0021
485 1 -1.1104 6.88385 13.6885 14.9825
490 1 -1.1104 6.76635 16.4223 18.0373
495 1 -1.1104 6.99758 16.3237 15.3172
480 1 -1.1104 6.8825 19.3055 17.9224
479 1 -1.1104 6.87292 13.5486 17.9101
512 2 2.2208 11.049 17.86 16.496
513 1 -1.1104 12.4947 13.7232 18.0168
514 1 -1.1104 12.6074 19.0712 18.0237
515 1 -1.1104 12.6136 13.6532 15.0814
517 1 -1.1104 12.3925 19.3743 15.2651
519 1 -1.1104 12.5117 16.4809 18.0399
520 2 2.2208 11.1274 14.9613 19.3914
521 2 2.2208 11.0702 20.4965 19.2548
522 1 -1.1104 12.4678 16.5944 15.0776
524 1 -1.1104 9.85658 13.5077 17.8655
525 1 -1.1104 9.68429 19.1831 17.9032
526 2 2.2208 8.27938 17.8154 19.3408
527 1 -1.1104 9.68285 13.6161 15.1657
529 1 -1.1104 9.64308 19.3687 15.1472
531 2 2.2208 8.26881 14.854 16.5669
532 2 2.2208 8.3631 20.7267 16.5074
533 1 -1.1104 9.636 16.281 18.0982
534 1 -1.1104 9.77871 16.4731 15.1664
523 1 -1.1104 12.5094 16.3059 20.9503
486 1 -1.1104 7.0423 13.6207 20.6719
568 2 2.2208 -0.0273603 -4.75227 22.256
696 1 -1.1104 7.03367 19.2294 26.2508
369 1 -1.1104 4.02993 -0.498365 20.8824
364 1 -1.1104 4.23975 2.31647 20.8923
362 1 -1.1104 4.10221 -3.13981 20.5348
540 2 2.2208 5.646 1.03334 22.2307
541 1 -1.1104 1.26587 -3.24914 23.7485
542 1 -1.1104 1.3097 2.09155 23.6635
545 1 -1.1104 1.30831 -3.32428 26.4537
546 1 -1.1104 1.2125 2.35776 26.5423
549 1 -1.1104 1.26697 -0.584119 23.6784
551 2 2.2208 5.59238 -1.69492 25.2142
552 2 2.2208 5.38266 3.70061 25.1108
553 1 -1.1104 1.2175 -0.492861 26.3484
555 1 -1.1104 4.1453 -3.38413 23.59
556 1 -1.1104 4.07374 2.30724 23.7568
557 2 2.2208 2.62644 0.96769 25.1359
558 1 -1.1104 4.00314 -3.27783 26.518
559 1 -1.1104 4.01158 2.35234 26.4981
560 2 2.2208 2.68906 -1.8716 22.371
562 1 -1.1104 3.99309 -0.464073 23.7119
563 1 -1.1104 3.9911 -0.490847 26.6164
561 2 2.2208 2.71533 3.58873 22.1521
9816 2 2.2208 -0.0750703 0.809532 22.2415
573 2 2.2208 -0.0852638 -1.88191 25.0528
9812 2 2.2208 -0.185049 3.63388 25.0032
544 1 -1.1104 6.83506 2.37081 23.5796
554 1 -1.1104 6.92473 -0.277972 26.5218
349 1 -1.1104 7.00934 2.40033 20.8139
347 1 -1.1104 6.88356 -3.09289 20.8423
386 1 -1.1104 12.5144 2.33478 20.7856
403 1 -1.1104 9.85677 -0.499673 20.9286
357 1 -1.1104 7.12344 -0.364161 20.8194
547 1 -1.1104 6.91912 -3.15771 26.5013
550 1 -1.1104 6.76435 -0.525828 23.7037
396 1 -1.1104 9.71451 -3.28732 20.6524
543 1 -1.1104 7.11434 -3.22888 23.5322
548 1 -1.1104 7.00308 2.50741 26.3639
391 1 -1.1104 12.6247 -0.474894 20.8599
576 2 2.2208 11.1596 0.921351 22.1461
577 1 -1.1104 12.6493 -3.01969 23.7253
578 1 -1.1104 12.4211 2.32666 23.7094
579 1 -1.1104 12.3817 -3.3087 26.2481
580 1 -1.1104 12.4226 2.38604 26.3036
581 1 -1.1104 12.5491 -0.295679 23.489
582 2 2.2208 11.0774 -1.71268 25.0111
584 1 -1.1104 12.4918 -0.490914 26.5388
585 1 -1.1104 9.82791 -3.25173 23.3935
586 1 -1.1104 9.57714 2.36803 23.4813
587 2 2.2208 8.37325 1.04983 24.9527
588 1 -1.1104 9.571 -3.28563 26.2343
589 1 -1.1104 9.65523 2.38197 26.5016
590 2 2.2208 8.33205 -1.84017 22.1499
592 1 -1.1104 9.71916 -0.29369 23.8894
593 1 -1.1104 9.72581 -0.650932 26.4365
591 2 2.2208 8.24467 3.78286 22.0399
583 2 2.2208 10.9898 3.86556 24.8947
702 2 2.2208 11.0512 14.8878 25.1377
701 2 2.2208 11.1681 20.58 24.87
535 1 -1.1104 9.5139 16.336 20.784
427 1 -1.1104 1.30878 4.95077 20.9449
418 1 -1.1104 1.16652 7.94146 20.8311
443 1 -1.1104 4.00779 5.10049 20.8605
445 1 -1.1104 4.08934 10.5829 20.6835
605 2 2.2208 5.21195 6.63496 22.1492
606 2 2.2208 5.58243 12.2441 22.1283
607 1 -1.1104 1.19601 7.88371 23.6782
609 1 -1.1104 1.05235 7.89241 26.5178
611 1 -1.1104 1.24761 5.07763 23.7125
612 1 -1.1104 1.18629 10.7705 23.55
615 2 2.2208 5.53445 9.37891 25.0102
616 1 -1.1104 1.22621 5.04682 26.3105
617 1 -1.1104 1.31977 10.8333 26.3476
620 1 -1.1104 4.07363 7.93437 23.5681
621 2 2.2208 2.54369 6.6231 25.0473
622 2 2.2208 2.59505 12.0915 24.9356
623 1 -1.1104 3.88801 8.00558 26.3373
624 2 2.2208 2.52409 9.36263 22.2163
625 1 -1.1104 4.05832 5.05363 23.6946
626 1 -1.1104 4.09796 10.6183 23.4327
627 1 -1.1104 3.95639 5.26904 26.4871
628 1 -1.1104 4.17957 10.9255 26.274
634 2 2.2208 -0.276259 12.1242 22.1912
10105 2 2.2208 -0.12533 6.53942 22.3077
633 2 2.2208 -0.260501 9.33335 24.9708
694 1 -1.1104 9.74397 19.2754 26.3056
516 1 -1.1104 12.4681 13.4324 20.8027
703 1 -1.1104 12.3901 16.2979 23.5658
705 1 -1.1104 12.5659 13.5247 26.3465
420 1 -1.1104 6.93461 7.9379 20.7237
610 1 -1.1104 6.79305 8.06355 26.539
618 1 -1.1104 6.91388 5.34468 26.2581
453 1 -1.1104 12.4964 8.02468 20.8157
608 1 -1.1104 6.82137 8.05256 23.7054
614 1 -1.1104 7.0225 10.9408 23.5837
613 1 -1.1104 6.82729 5.01253 23.5896
619 1 -1.1104 7.05634 10.8205 26.3936
636 1 -1.1104 9.88085 10.9136 26.4205
637 1 -1.1104 9.46412 5.23609 26.3074
638 1 -1.1104 9.75267 10.8696 23.7387
639 1 -1.1104 9.78018 5.37202 23.5685
640 2 2.2208 8.34378 9.44056 22.1592
641 1 -1.1104 9.80163 7.91176 26.2552
642 2 2.2208 8.15292 12.2647 24.9842
643 2 2.2208 8.27636 6.67213 25.0389
644 2 2.2208 11.1965 6.58468 22.2585
645 2 2.2208 11.1361 12.2511 22.2133
646 1 -1.1104 12.4264 7.93321 23.66
647 1 -1.1104 12.7181 7.94135 26.4819
648 1 -1.1104 12.6265 5.07586 23.7084
649 1 -1.1104 12.7284 10.7842 23.7516
650 2 2.2208 11.1752 9.45518 25.0232
651 1 -1.1104 12.4501 5.13901 26.4951
652 1 -1.1104 12.6879 10.6632 26.4685
653 1 -1.1104 9.64858 8.00575 23.6684
688 2 2.2208 -0.192489 20.8544 24.8981
484 1 -1.1104 1.29375 19.3226 20.6795
494 1 -1.1104 1.29695 16.4637 20.8908
689 2 2.2208 -0.129295 17.8661 22.2432
501 1 -1.1104 3.86004 13.3788 20.8396
665 1 -1.1104 1.3007 16.4935 26.3578
682 2 2.2208 2.47716 14.838 22.2124
664 1 -1.1104 1.31641 19.1276 26.3291
681 2 2.2208 2.65751 20.5406 22.1566
673 2 2.2208 5.36523 17.7999 22.2125
680 1 -1.1104 4.04246 16.3737 23.7207
672 1 -1.1104 1.14067 13.619 23.6522
671 1 -1.1104 1.29634 19.1962 23.5623
669 2 2.2208 5.43803 14.9055 24.9474
668 2 2.2208 5.53814 20.5752 24.9537
679 1 -1.1104 1.30635 16.374 23.7258
677 1 -1.1104 4.06868 13.5265 26.2529
676 1 -1.1104 4.22766 16.4973 26.3917
675 2 2.2208 2.56918 17.8443 24.9814
666 1 -1.1104 1.47469 13.6339 26.3719
674 1 -1.1104 4.21923 19.2729 26.5184
660 1 -1.1104 4.11064 19.2005 23.6111
662 1 -1.1104 4.10347 13.494 23.4967
686 2 2.2208 -0.214114 15.0924 25.08
691 1 -1.1104 9.65049 16.2627 23.5787
690 1 -1.1104 9.62758 16.4165 26.4734
670 1 -1.1104 6.79284 13.5962 23.5191
693 2 2.2208 8.10359 14.9399 22.1398
488 1 -1.1104 6.82342 19.2844 20.795
704 1 -1.1104 12.6217 19.0482 26.4947
530 1 -1.1104 9.68682 19.153 20.5602
678 1 -1.1104 6.94874 16.312 23.586
661 1 -1.1104 6.81458 13.453 26.3862
707 1 -1.1104 12.5495 13.5594 23.594
697 2 2.2208 8.43832 17.6862 24.9806
698 1 -1.1104 9.73319 19.1885 23.7016
695 1 -1.1104 9.6545 13.6209 26.4381
699 1 -1.1104 9.64779 13.5055 23.5175
706 1 -1.1104 12.5325 19.2454 23.6106
700 1 -1.1104 12.4709 16.3438 26.3006
496 1 -1.1104 6.72727 16.5147 20.699
708 2 2.2208 11.0939 17.6436 22.1346
333 2 2.2208 5.31167 -1.93077 13.7805
473 2 2.2208 8.26296 6.59099 13.6987
410 2 2.2208 8.17961 0.928716 13.8458
510 2 2.2208 5.50208 20.591 13.7512
509 2 2.2208 2.68277 17.894 13.6571
9784 2 2.2208 -0.0925571 -1.64279 13.8715
538 2 2.2208 8.24369 17.8057 13.7669
407 2 2.2208 -0.178043 20.6829 13.6294
10136 2 2.2208 -0.166484 -4.5594 16.5442
596 2 2.2208 8.27447 3.84809 27.6339
685 2 2.2208 2.7933 15.0089 27.7006
629 2 2.2208 5.40044 6.67415 27.7729
683 2 2.2208 2.73702 20.7387 27.7045
447 2 2.2208 5.50697 9.36586 13.7549
409 2 2.2208 -0.236096 14.9529 13.7529
9930 2 2.2208 -0.198173 9.24352 13.9574
334 2 2.2208 8.2829 -4.51951 14.0641
723 2 2.2208 5.3978 23.4519 5.19626
724 2 2.2208 5.39421 29.1235 5.11352
725 1 -1.1104 1.25039 24.8254 1.07024
726 1 -1.1104 1.1186 24.8467 3.97247
727 1 -1.1104 1.15566 22.0308 0.985674
728 1 -1.1104 1.16155 27.6016 1.08396
729 2 2.2208 5.47588 26.1618 2.2723
730 1 -1.1104 1.20197 22.0093 3.83531
731 1 -1.1104 1.26676 27.814 3.79193
732 1 -1.1104 4.08131 24.916 1.08864
733 2 2.2208 2.56969 23.3889 2.2507
734 2 2.2208 2.75428 29.1471 2.30795
735 1 -1.1104 4.05032 24.8763 3.79894
736 2 2.2208 2.57298 26.3734 5.13572
737 1 -1.1104 3.98358 22.1039 0.947205
738 1 -1.1104 4.18162 27.4895 0.864528
739 1 -1.1104 4.05761 22.1046 3.77891
740 1 -1.1104 4.15231 27.6563 3.61398
742 2 2.2208 -0.360504 23.5076 5.271
741 2 2.2208 -0.216156 29.0213 5.12098
792 2 2.2208 -0.140303 37.4476 2.25205
1014 2 2.2208 -0.204339 40.2899 10.8533
743 2 2.2208 -0.245671 26.2435 2.33696
866 1 -1.1104 0.95463 22.0269 6.4903
867 1 -1.1104 1.04153 27.5953 6.68139
1013 2 2.2208 -0.250552 45.8726 10.7347
1012 2 2.2208 -0.161742 43.0195 7.91735
1053 2 2.2208 -0.166953 34.7008 10.9556
747 1 -1.1104 7.10227 27.7554 1.13482
1031 1 -1.1104 12.5637 44.4714 6.76301
1386 2 2.2208 2.54829 43.1581 -0.477271
748 1 -1.1104 6.95324 21.9577 3.686
744 1 -1.1104 6.8402 24.8765 0.820237
746 1 -1.1104 6.79011 22.0386 0.998975
745 1 -1.1104 6.86893 24.9075 3.74808
749 1 -1.1104 6.90358 27.8212 3.94357
750 2 2.2208 11.0872 23.5421 5.1192
751 2 2.2208 11.0963 29.1429 5.24072
752 1 -1.1104 12.4891 24.948 1.0361
753 1 -1.1104 12.5862 24.9858 3.87286
754 1 -1.1104 12.6133 22.0098 0.935789
755 1 -1.1104 12.6226 27.744 0.872917
756 2 2.2208 11.1818 26.3526 2.37706
757 1 -1.1104 12.4654 22.1506 3.90958
758 1 -1.1104 12.5441 27.6825 3.73056
759 1 -1.1104 9.68952 24.7779 0.900633
760 2 2.2208 8.29661 23.5104 2.4184
761 2 2.2208 8.40467 29.1753 2.37111
762 1 -1.1104 9.94637 24.7235 3.67967
763 2 2.2208 8.1399 26.3839 5.24128
764 1 -1.1104 9.77771 21.9923 0.985334
765 1 -1.1104 9.94566 27.707 0.916949
766 1 -1.1104 9.65818 21.9589 3.88886
767 1 -1.1104 9.73415 27.7839 3.64168
794 2 2.2208 -0.145747 34.7345 5.21468
771 2 2.2208 5.41561 34.8552 5.17952
772 1 -1.1104 1.26532 30.288 0.961821
773 1 -1.1104 1.4015 36.1365 0.951485
775 1 -1.1104 1.38953 30.656 3.68835
776 1 -1.1104 1.4482 35.9762 3.84363
778 1 -1.1104 1.33257 33.1543 0.938917
779 2 2.2208 5.37047 32.0794 2.50974
780 2 2.2208 5.52296 37.371 2.21009
781 1 -1.1104 1.20366 33.2697 3.94833
783 1 -1.1104 4.1941 30.608 1.04396
784 1 -1.1104 4.1782 36.1328 0.968157
785 2 2.2208 2.55911 34.7126 2.33833
786 1 -1.1104 4.10085 30.4356 3.78991
787 1 -1.1104 4.10595 35.9421 3.64592
788 2 2.2208 2.69796 31.7787 5.18257
789 2 2.2208 2.49565 37.5744 5.10348
790 1 -1.1104 3.88804 33.3742 1.00831
791 1 -1.1104 4.0371 33.2358 3.83214
929 1 -1.1104 3.99635 33.2386 6.4902
774 1 -1.1104 6.88603 36.1164 0.679033
793 2 2.2208 -0.187888 31.8913 2.36684
797 1 -1.1104 6.91065 33.3281 0.851116
1052 2 2.2208 -0.19695 31.872 8.05617
841 2 2.2208 -0.146055 42.9755 2.41954
1649 1 -1.1104 6.81968 47.3313 9.45454
1091 2 2.2208 5.54844 26.2992 13.6925
1247 2 2.2208 8.202 40.179 13.5946
796 1 -1.1104 6.89826 30.6472 3.68261
795 1 -1.1104 6.88335 30.3804 0.942098
782 1 -1.1104 6.91224 33.542 3.68819
777 1 -1.1104 6.93496 36.0828 3.63132
798 2 2.2208 11.1583 34.7748 5.17439
799 1 -1.1104 12.5304 30.5407 0.867138
800 1 -1.1104 12.5623 36.0685 0.797765
801 1 -1.1104 12.5146 30.5221 3.77566
802 1 -1.1104 12.6519 36.2108 3.61633
803 1 -1.1104 12.5158 33.3214 1.02346
804 2 2.2208 11.057 31.8552 2.27284
805 2 2.2208 11.2652 37.5494 2.3393
806 1 -1.1104 12.5038 33.1865 3.74956
807 1 -1.1104 9.75859 30.2117 0.853163