ITEM: TIMESTEP
100000
ITEM: NUMBER OF ATOMS
17910
ITEM: BOX BOUNDS pp pp pp
-3.8867334123315822e-01 2.7728673341233463e+01
-4.9454806419885946e+00 3.3302548064197964e+02
-4.0108066563375477e-01 2.7741080665633561e+01
ITEM: ATOMS id type q x y z
1 2 2.2208 5.6122 0.695193 5.15356
2 1 -1.1104 1.29815 -3.57084 0.971847
3 1 -1.1104 1.14423 1.99314 1.02973
6 1 -1.1104 1.30975 -3.54071 3.73972
7 1 -1.1104 1.14834 1.75938 3.83635
10 1 -1.1104 1.22461 -0.757907 0.852645
12 2 2.2208 5.60442 -2.05393 2.28844
13 2 2.2208 5.50281 3.48159 2.29603
14 1 -1.1104 1.36847 -0.876003 3.61267
16 1 -1.1104 4.07206 -3.53692 1.05521
17 1 -1.1104 3.94347 2.00678 0.967562
18 2 2.2208 2.61043 0.664757 2.4505
19 1 -1.1104 4.02487 -3.39007 3.7196
20 1 -1.1104 4.24853 2.24303 3.90065
21 2 2.2208 2.58768 -1.97955 5.05232
22 2 2.2208 2.85166 3.61513 5.27593
23 1 -1.1104 4.23874 -0.899681 0.948678
24 1 -1.1104 4.21037 -0.59815 3.65629
25 2 2.2208 -0.276408 -2.2374 2.40707
167 1 -1.1104 1.31752 2.10931 6.43617
9772 2 2.2208 -0.0589134 0.525495 5.16426
9701 2 2.2208 -0.189697 11.821 10.9175
594 2 2.2208 11.092 0.79011 -0.359029
27 2 2.2208 -0.176195 3.31125 2.4951
632 2 2.2208 -0.0631576 11.9286 -0.270195
172 1 -1.1104 4.02357 -3.37347 6.69061
9 1 -1.1104 7.05388 2.28885 3.64772
15 1 -1.1104 7.15217 -0.721406 3.90578
5 1 -1.1104 6.94141 2.06755 0.986589
4 1 -1.1104 6.91334 -3.46931 0.813447
8 1 -1.1104 6.83884 -3.54767 3.9435
11 1 -1.1104 7.0192 -0.659493 1.24168
31 2 2.2208 11.1674 0.988656 5.3893
32 1 -1.1104 12.4838 -3.27439 1.07563
33 1 -1.1104 12.5899 2.24674 1.16427
34 1 -1.1104 12.5934 -3.47012 3.85368
35 1 -1.1104 12.4682 2.12449 3.81074
36 1 -1.1104 12.3982 -0.592563 0.997448
37 2 2.2208 11.1278 -1.96012 2.51697
39 1 -1.1104 12.6222 -0.726675 3.81888
40 1 -1.1104 9.66039 -3.38984 1.17612
41 1 -1.1104 9.82999 2.06295 1.02053
42 2 2.2208 8.47763 0.664896 2.58811
43 1 -1.1104 9.58568 -3.54617 3.86098
44 1 -1.1104 9.73988 2.07103 3.81409
45 2 2.2208 8.37472 -2.0341 5.33007
47 1 -1.1104 9.76263 -0.752853 1.03267
48 1 -1.1104 9.86926 -0.818016 4.00529
46 2 2.2208 8.21774 3.5795 5.17108
38 2 2.2208 10.9821 3.63036 2.40593
169 1 -1.1104 6.66048 2.14467 6.55987
209 1 -1.1104 9.75503 2.22404 6.59981
206 1 -1.1104 12.4144 2.14907 6.6746
137 2 2.2208 -0.166126 17.5686 5.41123
231 2 2.2208 8.30214 -4.87498 8.11684
565 2 2.2208 2.66993 -2.12746 -0.373966
9774 2 2.2208 -0.143374 6.33814 5.15711
83 2 2.2208 -0.335163 11.8592 5.24112
82 2 2.2208 -0.281527 9.02844 2.42346
54 2 2.2208 5.39238 6.35016 5.12038
55 2 2.2208 5.48553 11.9188 5.25589
56 1 -1.1104 1.1855 7.61953 0.920056
58 1 -1.1104 1.10187 7.4609 3.77051
60 1 -1.1104 1.34575 4.72467 1.02988
61 1 -1.1104 1.44424 10.3957 1.07748
66 2 2.2208 5.40835 9.10128 2.40972
67 1 -1.1104 1.32414 4.85028 3.83404
68 1 -1.1104 1.07903 10.2593 3.79406
71 1 -1.1104 3.99764 7.58944 1.07177
72 2 2.2208 2.61791 6.23176 2.41308
73 2 2.2208 2.82568 11.942 2.43761
74 1 -1.1104 4.07738 7.65808 3.74551
75 2 2.2208 2.55072 9.05792 5.03856
76 1 -1.1104 3.9725 4.68937 1.08005
77 1 -1.1104 4.05086 10.4017 1.14645
79 1 -1.1104 4.07448 4.91646 3.7702
80 1 -1.1104 3.9598 10.4452 3.787
57 1 -1.1104 6.77951 7.81521 1.01525
234 1 -1.1104 1.45702 7.65707 6.50051
70 1 -1.1104 6.79248 10.4081 3.7624
78 1 -1.1104 4.07085 10.405 6.45852
239 1 -1.1104 3.99492 4.9573 6.61964
238 1 -1.1104 4.14818 7.61462 6.65194
29 2 2.2208 5.51761 -4.80431 5.22299
306 1 -1.1104 6.85505 16.1947 12.3419
63 1 -1.1104 6.77602 4.7593 0.65977
325 2 2.2208 10.9832 14.8447 8.14499
235 1 -1.1104 6.97647 7.88422 6.52824
69 1 -1.1104 6.71122 5.03054 3.58375
59 1 -1.1104 6.93511 7.75809 3.71001
64 1 -1.1104 6.66919 10.5586 1.07699
84 2 2.2208 10.9536 6.32087 5.25764
85 2 2.2208 10.9599 11.9132 5.33174
86 1 -1.1104 12.2386 7.81033 0.865818
87 1 -1.1104 12.5282 7.75044 3.83154
88 1 -1.1104 12.5526 4.99985 1.13402
89 1 -1.1104 12.3663 10.542 1.07177
91 2 2.2208 10.9753 9.14046 2.30691
92 1 -1.1104 12.3608 4.90114 3.96794
93 1 -1.1104 12.3732 10.545 3.82603
94 1 -1.1104 9.58508 7.64045 0.92555
95 2 2.2208 8.13868 6.09826 2.22882
96 2 2.2208 8.25845 11.9913 2.41918
97 1 -1.1104 9.72634 7.59794 3.57193
98 2 2.2208 8.33057 9.12723 5.1306
99 1 -1.1104 9.66975 4.94075 0.890485
100 1 -1.1104 9.41404 10.6956 1.00199
102 1 -1.1104 9.42606 4.86883 3.60938
103 1 -1.1104 9.69126 10.4823 3.84219
269 1 -1.1104 9.6523 4.88335 6.60727
101 1 -1.1104 9.75092 10.4651 6.60813
318 1 -1.1104 9.71256 19.0129 9.74238
267 1 -1.1104 9.70847 7.78821 6.50917
265 1 -1.1104 12.4425 7.79769 6.75975
319 1 -1.1104 9.57459 13.3401 9.53118
473 2 2.2208 8.32696 6.2211 13.7609
135 2 2.2208 -0.25014 14.6874 2.45343
136 2 2.2208 -0.111814 20.4996 2.5195
106 2 2.2208 5.59609 17.6795 5.40091
107 1 -1.1104 1.24806 13.388 1.14442
109 1 -1.1104 1.31869 19.0359 1.05971
113 1 -1.1104 1.1832 13.3161 4.03424
114 1 -1.1104 1.08701 18.9 3.93047
116 1 -1.1104 1.32997 16.0082 1.13256
119 2 2.2208 5.58022 14.8947 2.5658
120 2 2.2208 5.35587 20.2759 2.39015
121 1 -1.1104 1.2717 16.1117 3.96736
123 1 -1.1104 4.05163 13.5338 1.08226
125 1 -1.1104 3.78876 19.0922 1.1869
127 2 2.2208 2.60001 17.5067 2.61255
128 1 -1.1104 4.08083 13.3936 3.68316
129 1 -1.1104 3.93026 18.5387 4.15906
130 2 2.2208 2.66108 14.7625 5.23087
131 2 2.2208 2.71503 20.3756 5.3562
132 1 -1.1104 4.1772 16.3696 1.23656
134 1 -1.1104 4.16875 16.0591 4.14016
108 1 -1.1104 1.11283 13.2512 6.84482
133 1 -1.1104 4.08421 16.0051 6.79216
138 1 -1.1104 6.70663 18.9846 1.13711
126 1 -1.1104 4.15874 18.9799 6.75278
302 1 -1.1104 1.36417 19.0288 6.77742
124 1 -1.1104 4.19589 13.0645 6.71144
81 2 2.2208 11.132 17.6024 11.0018
139 1 -1.1104 6.74321 19.1308 3.83485
115 1 -1.1104 6.82828 13.305 3.84052
122 1 -1.1104 6.98761 16.3765 3.86642
140 1 -1.1104 6.89075 16.1974 1.13878
110 1 -1.1104 6.98589 13.4516 1.00006
141 2 2.2208 11.0036 17.5955 5.52985
142 1 -1.1104 12.6034 13.4212 1.08527
144 1 -1.1104 12.3401 18.9478 1.29168
146 1 -1.1104 12.4609 13.1911 4.02417
147 1 -1.1104 12.4222 18.8537 4.14401
148 1 -1.1104 12.4175 16.1454 1.2079
150 2 2.2208 11.0812 14.847 2.57558
151 2 2.2208 11.0859 20.4362 2.55633
152 1 -1.1104 12.6103 15.9756 4.07667
153 1 -1.1104 9.79528 13.5474 1.1757
155 1 -1.1104 9.61454 19.2032 1.25575
157 2 2.2208 8.31339 17.6245 2.60755
158 1 -1.1104 9.71979 13.3544 3.77668
159 1 -1.1104 9.56319 19.0096 4.24038
160 2 2.2208 8.32528 14.8105 5.30684
161 2 2.2208 8.25573 20.4702 5.23142
162 1 -1.1104 9.60243 16.3673 1.28088
164 1 -1.1104 9.89276 16.1927 4.02145
154 1 -1.1104 9.5363 13.2337 6.55192
111 1 -1.1104 6.84285 13.4291 6.52588
316 2 2.2208 8.31167 20.3896 10.9473
655 2 2.2208 8.2801 9.18925 -0.348268
173 1 -1.1104 4.05463 2.13855 6.74865
322 1 -1.1104 9.78943 13.4322 12.2881
170 1 -1.1104 1.27433 -0.654923 6.47812
202 2 2.2208 2.69775 -4.68776 8.21552
112 1 -1.1104 6.94758 18.9701 6.72639
9775 2 2.2208 -0.102502 -1.99132 8.1135
51 2 2.2208 8.35501 -4.89437 2.32818
174 1 -1.1104 4.09822 -0.635378 6.36049
199 2 2.2208 -0.0374335 3.50899 8.00236
9776 2 2.2208 -0.181142 0.818146 10.664
166 1 -1.1104 1.18418 -3.53462 6.69864
175 2 2.2208 5.62901 0.503689 10.7894
176 1 -1.1104 1.41469 -3.58874 12.3381
177 1 -1.1104 1.1585 1.84145 12.259
180 1 -1.1104 1.2597 -3.48754 9.59498
181 1 -1.1104 1.43973 1.98474 9.53195
184 1 -1.1104 1.07056 -0.957311 12.2152
186 2 2.2208 5.64762 -2.03205 7.93718
187 2 2.2208 5.50527 3.57172 7.99194
188 1 -1.1104 1.51132 -0.684466 9.36292
190 1 -1.1104 4.00672 -3.63255 12.3552
191 1 -1.1104 4.01119 1.91221 12.4126
192 2 2.2208 2.73272 0.632572 7.95222
193 1 -1.1104 4.23687 -3.50078 9.32245
194 1 -1.1104 4.20545 2.15917 9.5619
195 2 2.2208 2.67987 -2.18376 10.9591
197 1 -1.1104 4.1042 -0.810435 12.2413
198 1 -1.1104 4.33161 -0.697489 9.37356
196 2 2.2208 2.74343 3.33608 10.8774
208 1 -1.1104 9.73773 -3.45275 6.63073
210 1 -1.1104 9.68959 -0.544628 6.81062
685 2 2.2208 2.77213 14.7614 -0.287047
178 1 -1.1104 6.93358 -3.58884 12.4702
205 1 -1.1104 12.5454 -3.45429 6.54083
179 1 -1.1104 6.90607 2.13839 12.2286
168 1 -1.1104 6.96448 -3.50044 6.77953
171 1 -1.1104 6.91828 -0.580732 6.57968
183 1 -1.1104 6.82575 2.10042 9.38529
182 1 -1.1104 7.03875 -3.54808 9.5263
189 1 -1.1104 6.97288 -0.844362 9.54687
207 1 -1.1104 12.5268 -0.679771 6.6128
185 1 -1.1104 6.9789 -0.790244 12.2239
211 2 2.2208 11.1873 0.71902 10.9041
212 1 -1.1104 12.6062 -3.56367 12.4175
213 1 -1.1104 12.4588 2.08276 12.4104
214 1 -1.1104 12.5529 -3.47293 9.59953
215 1 -1.1104 12.5997 2.148 9.45322
216 1 -1.1104 12.5274 -0.841346 12.3983
217 2 2.2208 11.1493 -2.10051 8.07682
219 1 -1.1104 12.4397 -0.728302 9.57439
220 1 -1.1104 9.92361 -3.5319 12.3658
221 1 -1.1104 9.7451 2.25303 12.1869
222 2 2.2208 8.35906 0.7423 8.08916
223 1 -1.1104 9.77874 -3.51127 9.44356
224 1 -1.1104 9.85827 2.04249 9.44088
225 2 2.2208 8.40038 -2.03987 10.9011
227 1 -1.1104 9.56079 -0.648595 12.3287
228 1 -1.1104 9.73933 -0.676794 9.5079
218 2 2.2208 11.1231 3.57225 8.16765
226 2 2.2208 8.24383 3.63596 10.7701
9709 2 2.2208 -0.193272 6.29022 10.7117
236 1 -1.1104 1.27016 4.76784 6.56504
9708 2 2.2208 -0.0979958 9.11942 8.11184
566 2 2.2208 2.64846 3.43803 -0.454988
62 1 -1.1104 1.18237 10.4737 6.60957
149 1 -1.1104 12.5796 15.994 6.79626
240 2 2.2208 5.53893 6.38874 10.7217
241 2 2.2208 5.49837 12.0636 10.8431
242 1 -1.1104 1.29866 7.66556 12.2347
244 1 -1.1104 1.34991 7.59226 9.42886
246 1 -1.1104 1.46363 4.65731 12.4657
247 1 -1.1104 1.30466 10.5584 12.2027
250 2 2.2208 5.41394 9.12218 7.95289
251 1 -1.1104 1.36431 4.87676 9.55073
252 1 -1.1104 1.20708 10.4755 9.53399
255 1 -1.1104 4.04751 7.68976 12.1429
256 2 2.2208 2.55179 6.25419 7.96088
257 2 2.2208 2.63868 11.8062 8.12357
258 1 -1.1104 4.1179 7.7479 9.42248
259 2 2.2208 2.7348 9.0832 10.8165
260 1 -1.1104 4.18825 4.95589 12.2021
261 1 -1.1104 4.05775 10.7439 12.2128
262 1 -1.1104 4.10118 4.83943 9.33548
263 1 -1.1104 4.00329 10.4335 9.47601
687 2 2.2208 -0.196478 17.5033 -0.122512
290 1 -1.1104 6.86415 13.2886 9.46748
237 1 -1.1104 6.83265 5.04328 6.57476
266 1 -1.1104 12.436 4.97801 6.81338
65 1 -1.1104 6.9998 10.5626 6.61094
254 1 -1.1104 6.68337 10.6078 9.52066
249 1 -1.1104 6.90563 10.4807 12.4303
253 1 -1.1104 6.87704 5.01107 9.42186
245 1 -1.1104 6.84736 7.91067 9.59078
243 1 -1.1104 6.929 7.56466 12.4774
248 1 -1.1104 7.15301 4.9331 12.2066
90 1 -1.1104 12.502 10.4729 6.70258
264 1 -1.1104 9.64018 10.5265 9.51155
268 1 -1.1104 9.70735 4.8646 9.44795
270 1 -1.1104 9.77611 10.4391 12.3706
271 1 -1.1104 9.79676 4.9303 12.3818
272 2 2.2208 8.26821 9.28382 10.956
273 1 -1.1104 9.76761 7.66765 9.38376
274 2 2.2208 8.37701 11.9341 8.14084
275 2 2.2208 8.39214 6.43813 7.93532
276 2 2.2208 11.0092 6.32603 11.0319
277 2 2.2208 11.1192 12.0515 10.9845
278 1 -1.1104 12.2619 7.66391 12.4172
279 1 -1.1104 12.7288 7.69084 9.53535
280 1 -1.1104 12.6297 4.99789 12.2405
281 1 -1.1104 12.4697 10.5201 12.4679
282 2 2.2208 11.1903 9.1208 8.19487
283 1 -1.1104 12.4622 4.992 9.53137
284 1 -1.1104 12.3909 10.5841 9.49568
285 1 -1.1104 9.60669 7.72558 12.2336
312 2 2.2208 -0.171005 17.4654 10.8698
118 1 -1.1104 6.76525 16.3405 6.65932
313 2 2.2208 -0.0661206 14.5637 8.30505
117 1 -1.1104 1.28954 16.012 6.87398
311 2 2.2208 -0.0352662 20.3797 8.07571
286 1 -1.1104 3.81332 18.8953 12.468
287 1 -1.1104 4.20167 13.4581 12.3757
291 1 -1.1104 1.34736 18.8693 9.51331
292 1 -1.1104 1.36958 16.0709 9.80741
293 2 2.2208 5.2779 20.382 8.19217
294 1 -1.1104 1.26156 13.1378 9.62136
295 2 2.2208 5.45398 14.6158 8.08531
298 1 -1.1104 1.07161 18.8981 12.4315
299 1 -1.1104 1.29041 13.4892 12.6218
300 2 2.2208 5.46002 17.5286 11.0668
301 1 -1.1104 4.24534 19.1369 9.72748
303 2 2.2208 2.83316 17.5615 8.12591
304 1 -1.1104 4.14347 16.1759 9.61147
305 1 -1.1104 4.13181 13.4263 9.59149
307 1 -1.1104 1.27371 16.0103 12.5048
308 1 -1.1104 4.26708 16.3536 12.4715
309 2 2.2208 2.58197 20.2792 10.9689
310 2 2.2208 2.6888 14.7312 11.1117
156 1 -1.1104 9.65142 18.8528 6.86308
297 1 -1.1104 6.86002 13.2728 12.4274
230 1 -1.1104 12.6535 16.2495 12.5395
315 1 -1.1104 9.69119 16.2861 12.2882
201 1 -1.1104 12.4818 19.05 12.3371
314 1 -1.1104 9.58883 16.3241 9.56758
145 1 -1.1104 12.4275 18.9701 6.89033
163 1 -1.1104 9.51593 15.9419 6.74377
143 1 -1.1104 12.2477 13.1556 6.93266
296 1 -1.1104 6.86317 18.9179 12.3583
204 1 -1.1104 12.4463 13.6463 9.73595
229 1 -1.1104 12.5438 18.9771 9.63435
200 1 -1.1104 12.6066 13.2484 12.2718
320 2 2.2208 8.16161 17.6485 8.30549
317 2 2.2208 8.15204 14.9357 10.986
321 1 -1.1104 9.73575 19.2648 12.5313
289 1 -1.1104 6.77201 16.1986 9.5588
324 2 2.2208 11.0234 20.4226 8.22946
323 1 -1.1104 12.3989 16.2855 9.54692
288 1 -1.1104 6.8377 19.0659 9.63167
630 2 2.2208 2.66903 9.1382 -0.407166
683 2 2.2208 2.66195 20.2963 -0.285959
629 2 2.2208 5.29825 6.33146 -0.413902
595 2 2.2208 8.36622 -1.96267 -0.331376
9784 2 2.2208 -0.165476 -2.05978 13.7029
378 2 2.2208 2.61605 0.703038 13.5693
379 2 2.2208 5.46608 3.5362 13.6611
333 2 2.2208 5.60165 -2.00228 13.7232
567 2 2.2208 -0.0703378 -4.83845 -0.324311
574 2 2.2208 10.957 17.6 -0.197482
631 2 2.2208 5.48921 11.9978 -0.284755
575 2 2.2208 8.24688 20.5343 -0.200691
408 2 2.2208 8.37206 14.7896 -0.291821
564 2 2.2208 5.52657 0.595668 -0.345011
447 2 2.2208 5.53701 8.98518 13.8122
475 2 2.2208 8.38965 11.8927 13.71
656 2 2.2208 11.1142 12.0445 -0.288244
446 2 2.2208 2.65896 6.40446 13.6086
684 2 2.2208 5.55986 17.5878 -0.263579
711 2 2.2208 -0.122099 3.54119 13.651
337 2 2.2208 5.47656 0.81256 16.348
338 1 -1.1104 1.23975 -3.576 17.8453
339 1 -1.1104 1.44101 2.03531 18.0263
342 1 -1.1104 1.37577 -3.27715 14.9791
344 1 -1.1104 1.22435 2.30018 14.959
350 1 -1.1104 1.18147 -0.628752 17.8211
352 2 2.2208 5.48628 -2.13732 19.1651
354 1 -1.1104 1.29612 -0.688195 15.0158
358 1 -1.1104 4.11253 -3.48123 17.8514
359 1 -1.1104 4.03651 2.07633 17.7827
360 2 2.2208 2.75718 0.560257 19.325
361 1 -1.1104 4.13421 -3.47018 15.0854
363 1 -1.1104 4.0301 2.01159 15.0062
365 2 2.2208 2.59651 -2.00233 16.5223
367 1 -1.1104 4.10474 -0.748246 18.0228
368 1 -1.1104 4.15479 -0.523352 14.9799
353 2 2.2208 5.43154 3.3961 19.272
366 2 2.2208 2.72346 3.49573 16.4552
9854 2 2.2208 -0.218952 3.50039 19.3907
10137 2 2.2208 -0.0268436 0.861739 16.5443
10138 2 2.2208 -0.227918 -2.10663 19.1753
364 1 -1.1104 4.13349 1.97433 20.5203
536 2 2.2208 11.0137 20.548 13.7191
345 1 -1.1104 1.42866 2.1172 20.8538
510 2 2.2208 5.19185 20.4956 13.7876
599 2 2.2208 11.0852 -4.91634 22.0298
10136 2 2.2208 -0.225756 -4.8523 16.4387
346 1 -1.1104 6.84481 -3.55269 15.0716
356 1 -1.1104 6.93541 -0.568343 14.9881
448 2 2.2208 2.72207 11.9714 13.7788
340 1 -1.1104 6.91273 -3.62617 17.8508
341 1 -1.1104 6.91399 2.15372 17.8311
351 1 -1.1104 6.99132 -0.776879 17.7593
348 1 -1.1104 6.81632 2.20302 15.0594
380 2 2.2208 11.2216 0.587945 16.4843
381 1 -1.1104 12.5206 -3.59901 18.0144
382 1 -1.1104 12.5061 2.06042 17.9898
383 1 -1.1104 12.4452 -3.63792 15.139
385 1 -1.1104 12.6699 1.89517 15.2448
387 1 -1.1104 12.5392 -0.562567 17.8755
388 2 2.2208 10.9916 -2.17567 19.2843
389 2 2.2208 11.0566 3.39145 19.464
390 1 -1.1104 12.6092 -0.786151 15.261
392 1 -1.1104 9.74356 -3.73648 18.0499
393 1 -1.1104 9.84827 2.00124 17.8427
394 2 2.2208 8.26715 0.639873 19.2697
395 1 -1.1104 9.67252 -3.55531 15.0245
397 1 -1.1104 9.80939 2.35033 15.1216
399 2 2.2208 8.41804 -2.28717 16.366
401 1 -1.1104 9.70605 -0.975768 17.8903
402 1 -1.1104 9.78633 -0.591199 15.1167
400 2 2.2208 8.27587 3.50056 16.5172
349 1 -1.1104 6.87684 2.02518 20.6672
695 1 -1.1104 9.58428 13.5021 26.5531
600 2 2.2208 8.21796 -4.90667 24.9806
372 2 2.2208 2.71573 -4.90051 19.3568
509 2 2.2208 2.54811 17.717 13.966
9926 2 2.2208 -0.161535 9.06522 19.223
413 2 2.2208 5.4217 6.18138 16.3833
414 2 2.2208 5.57204 11.963 16.4897
415 1 -1.1104 1.03803 7.78276 17.8936
417 1 -1.1104 1.30691 7.67239 14.9741
421 1 -1.1104 1.25957 4.91444 18.2658
422 1 -1.1104 1.27482 10.4818 18.0004
425 2 2.2208 5.45663 9.06487 19.333
426 1 -1.1104 1.20862 4.96535 15.399
428 1 -1.1104 1.28104 10.4905 15.1346
434 1 -1.1104 4.11687 7.51059 17.9283
435 2 2.2208 2.60907 6.25124 19.3615
436 2 2.2208 2.65877 11.8511 19.3777
437 1 -1.1104 4.04793 7.76781 14.9463
439 2 2.2208 2.81521 9.09742 16.4512
440 1 -1.1104 4.18589 4.94885 17.9152
441 1 -1.1104 4.09949 10.4715 17.8701
442 1 -1.1104 4.02789 4.86731 14.998
444 1 -1.1104 4.11027 10.5262 15.0679
717 2 2.2208 -0.101025 11.889 16.6049
9927 2 2.2208 -0.145129 6.34921 16.5687
429 1 -1.1104 1.3796 10.3838 20.7056
443 1 -1.1104 4.01971 5.00589 20.7849
418 1 -1.1104 1.40706 7.63099 20.7942
445 1 -1.1104 4.22852 10.4425 20.9418
407 2 2.2208 -0.284035 20.3807 13.8209
409 2 2.2208 -0.251535 14.7657 13.9945
423 1 -1.1104 7.01863 4.92249 17.8394
432 1 -1.1104 6.7582 10.633 15.0668
430 1 -1.1104 6.81144 4.86888 15.0226
419 1 -1.1104 6.90773 7.77655 15.248
424 1 -1.1104 6.87541 10.6997 17.7234
416 1 -1.1104 6.92933 7.70204 17.763
449 2 2.2208 11.102 6.45393 16.593
450 2 2.2208 11.2132 11.8807 16.5433
451 1 -1.1104 12.5114 7.90143 17.7384
452 1 -1.1104 12.5226 7.74917 14.9059
454 1 -1.1104 12.6593 4.97628 18.0442
455 1 -1.1104 12.4153 10.5831 18.0281
456 2 2.2208 11.162 9.27033 19.4653
457 1 -1.1104 12.3354 4.99425 15.0654
459 1 -1.1104 12.467 10.7031 15.0301
461 1 -1.1104 9.70052 7.71017 17.9887
462 2 2.2208 8.27928 6.26635 19.2019
463 2 2.2208 8.22646 12.0059 19.1936
464 1 -1.1104 9.74745 7.67335 15.0798
466 2 2.2208 8.273 9.19575 16.4962
467 1 -1.1104 9.81868 4.91207 18.0847
468 1 -1.1104 9.60317 10.7683 17.9619
469 1 -1.1104 9.60215 5.02523 15.1687
471 1 -1.1104 9.57885 10.5747 15.158
470 1 -1.1104 9.50885 4.86152 20.7677
472 1 -1.1104 9.84435 10.5233 21.0201
420 1 -1.1104 7.01623 7.65989 20.6109
332 2 2.2208 2.70829 -4.85173 13.8984
722 2 2.2208 -0.210256 14.6568 19.4449
538 2 2.2208 8.21642 17.6682 13.7285
476 2 2.2208 5.42579 17.6021 16.5086
477 1 -1.1104 1.29924 13.3316 17.9674
478 1 -1.1104 1.24787 18.8626 17.9734
481 1 -1.1104 1.31702 13.2757 15.2449
483 1 -1.1104 1.25069 19.2214 15.2597
489 1 -1.1104 1.28499 16.0997 18.0069
491 2 2.2208 5.18943 14.6502 19.2906
492 2 2.2208 5.38073 20.384 19.3568
493 1 -1.1104 1.11423 16.2159 15.2318
497 1 -1.1104 3.97592 13.1337 17.9525
498 1 -1.1104 4.0984 19.0056 18.0808
499 2 2.2208 2.51869 17.5006 19.3304
500 1 -1.1104 3.97271 13.478 15.2264
502 1 -1.1104 4.10757 19.1112 15.396
504 2 2.2208 2.54767 14.7561 16.4488
505 2 2.2208 2.54255 20.4896 16.7595
506 1 -1.1104 4.05143 16.0983 17.8264
507 1 -1.1104 4.05886 16.2502 15.0578
411 2 2.2208 -0.253828 17.6951 16.6215
511 2 2.2208 5.54146 14.8693 13.7536
690 1 -1.1104 9.5174 16.3833 26.5551
484 1 -1.1104 0.979409 19.0503 20.6673
503 1 -1.1104 3.87933 18.8719 20.6937
501 1 -1.1104 4.12026 13.2035 20.8386
663 1 -1.1104 6.90891 16.2859 26.4883
678 1 -1.1104 6.74322 16.2025 23.5726
697 2 2.2208 8.30737 17.6828 25.1216
495 1 -1.1104 6.97971 16.2113 15.0245
485 1 -1.1104 6.98128 13.4723 15.1242
479 1 -1.1104 6.88461 13.36 18.0626
487 1 -1.1104 6.84518 19.1259 15.1378
480 1 -1.1104 6.8794 18.8974 17.9821
490 1 -1.1104 6.82234 15.9977 17.8476
512 2 2.2208 11.0724 17.5492 16.6488
513 1 -1.1104 12.5854 13.3701 17.7183
514 1 -1.1104 12.3929 18.9815 17.9316
515 1 -1.1104 12.5864 13.4702 15.1355
517 1 -1.1104 12.3799 19.0896 15.0826
519 1 -1.1104 12.5096 16.0513 18.1111
520 2 2.2208 11.0328 14.8184 19.3981
521 2 2.2208 11.0139 20.2907 19.6194
522 1 -1.1104 12.6451 16.3536 15.3018
524 1 -1.1104 9.73253 13.5483 17.9345
525 1 -1.1104 9.54509 18.9975 17.9384
526 2 2.2208 8.16905 17.5744 19.3689
527 1 -1.1104 9.81889 13.2965 14.991
529 1 -1.1104 9.60126 18.8041 15.2127
531 2 2.2208 8.24801 14.8627 16.5131
532 2 2.2208 8.20269 20.456 16.5708
533 1 -1.1104 9.5709 16.362 18.04
534 1 -1.1104 9.72231 16.1552 15.0494
523 1 -1.1104 12.514 16.2504 20.9479
496 1 -1.1104 6.90479 16.0579 20.5686
691 1 -1.1104 9.60779 16.2278 23.6838
355 1 -1.1104 1.28556 -0.905929 20.4695
362 1 -1.1104 4.0953 -3.50875 20.6418
488 1 -1.1104 6.59852 18.839 20.7923
9812 2 2.2208 -0.0891583 3.46689 24.9218
369 1 -1.1104 3.99279 -0.688324 20.7354
9816 2 2.2208 -0.019045 0.561948 22.1728
573 2 2.2208 -0.0642242 -2.23997 24.8961
343 1 -1.1104 1.18442 -3.64799 20.7068
540 2 2.2208 5.39784 0.70584 22.1561
541 1 -1.1104 1.29533 -3.77765 23.5341
542 1 -1.1104 1.5348 2.16929 23.6031
545 1 -1.1104 1.27449 -3.45643 26.472
546 1 -1.1104 1.17891 2.14605 26.3403
549 1 -1.1104 1.5389 -0.729075 23.2339
551 2 2.2208 5.65609 -2.04245 25.0076
552 2 2.2208 5.34949 3.48236 24.8796
553 1 -1.1104 1.42912 -0.683421 26.0336
555 1 -1.1104 4.04219 -3.49255 23.5456
556 1 -1.1104 4.13427 2.12048 23.3596
557 2 2.2208 2.87042 0.753988 24.8682
558 1 -1.1104 4.10727 -3.46302 26.3959
559 1 -1.1104 4.10216 2.02646 26.3035
560 2 2.2208 2.57269 -2.34927 22.0954
562 1 -1.1104 4.37489 -0.719387 23.7347
563 1 -1.1104 4.17464 -0.71433 26.4419
561 2 2.2208 2.75502 3.57631 22.0188
486 1 -1.1104 6.82092 13.4184 20.7213
357 1 -1.1104 6.91479 -0.682155 20.3884
384 1 -1.1104 12.4753 -3.40806 20.8754
391 1 -1.1104 12.6874 -0.625439 20.7432
398 1 -1.1104 9.64561 1.95793 20.7628
708 2 2.2208 11.0712 17.554 22.2193
347 1 -1.1104 6.84219 -3.54249 20.528
403 1 -1.1104 9.84027 -0.74636 20.6242
396 1 -1.1104 9.62887 -3.57846 20.7063
386 1 -1.1104 12.3925 2.16101 20.7616
548 1 -1.1104 6.7599 1.96461 26.2245
554 1 -1.1104 7.01412 -0.6408 26.3656
544 1 -1.1104 6.83403 2.25917 23.5202
547 1 -1.1104 6.82604 -3.64814 26.293
550 1 -1.1104 6.96253 -0.523642 23.2766
543 1 -1.1104 6.96591 -3.60444 23.3778
576 2 2.2208 11.3409 0.729778 22.2488
577 1 -1.1104 12.4454 -3.40447 23.6142
578 1 -1.1104 12.5956 2.14775 23.7083
579 1 -1.1104 12.6282 -3.39271 26.4582
580 1 -1.1104 12.549 2.11125 26.4374
581 1 -1.1104 12.6045 -0.674838 23.5947
582 2 2.2208 11.0385 -2.17355 24.9542
584 1 -1.1104 12.497 -0.527292 26.4602
585 1 -1.1104 9.56446 -3.34037 23.4099
586 1 -1.1104 9.70655 2.12795 23.5872
587 2 2.2208 8.32019 0.70598 24.7742
588 1 -1.1104 9.8054 -3.64143 26.2636
589 1 -1.1104 9.7543 2.09111 26.3261
590 2 2.2208 8.32061 -2.16346 21.9441
592 1 -1.1104 9.64671 -0.69638 23.5226
593 1 -1.1104 9.70826 -0.568162 26.4259
591 2 2.2208 8.21143 3.5845 22.222
583 2 2.2208 11.0867 3.60169 24.9025
427 1 -1.1104 1.34238 4.87583 20.8028
438 1 -1.1104 4.10821 7.72701 20.7752
633 2 2.2208 -0.175437 9.0951 25.0824
634 2 2.2208 -0.0652433 11.7824 22.1862
699 1 -1.1104 9.56082 13.2723 23.6262
10105 2 2.2208 -0.165298 6.2493 22.2067
605 2 2.2208 5.52234 6.586 22.1557
606 2 2.2208 5.55013 11.971 22.1397
607 1 -1.1104 1.15656 7.74316 23.4641
609 1 -1.1104 1.31947 7.79565 26.3557
611 1 -1.1104 1.33756 4.9444 23.5011
612 1 -1.1104 1.17983 10.5534 23.5851
615 2 2.2208 5.56876 9.0382 24.8945
616 1 -1.1104 1.25624 5.00629 26.3637
617 1 -1.1104 1.2927 10.6081 26.3912
620 1 -1.1104 3.98853 7.76783 23.513
621 2 2.2208 2.55817 6.45335 24.8722
622 2 2.2208 2.73373 11.9818 25.1099
623 1 -1.1104 4.10165 7.67472 26.2646
624 2 2.2208 2.62182 9.09318 22.145
625 1 -1.1104 4.13515 5.01509 23.4044
626 1 -1.1104 4.14876 10.4631 23.7014
627 1 -1.1104 3.88951 4.68132 26.1384
628 1 -1.1104 4.20985 10.491 26.4477
692 2 2.2208 8.24979 20.3571 22.2601
696 1 -1.1104 6.90597 19.3008 26.4055
453 1 -1.1104 12.5307 7.69459 20.6177
431 1 -1.1104 6.82428 4.84224 20.6255
433 1 -1.1104 6.91707 10.4607 20.508
460 1 -1.1104 12.6412 10.5114 20.8575
614 1 -1.1104 7.03178 10.7943 23.3235
608 1 -1.1104 7.04474 7.77953 23.5254
465 1 -1.1104 9.85573 7.7229 20.5965
618 1 -1.1104 6.90199 4.70017 26.0241
610 1 -1.1104 6.70518 7.59989 26.3596
613 1 -1.1104 6.58098 5.11127 23.4807
619 1 -1.1104 6.95844 10.6038 26.2702
458 1 -1.1104 12.3081 4.92902 20.6936
636 1 -1.1104 9.52307 10.6365 26.4244
637 1 -1.1104 9.68452 4.92171 26.4346
638 1 -1.1104 9.86883 10.4831 23.5904
639 1 -1.1104 9.47478 4.94611 23.617
640 2 2.2208 8.46704 9.10482 22.0484
641 1 -1.1104 9.68017 7.81633 26.159
642 2 2.2208 8.23245 12.0086 24.995
643 2 2.2208 8.26568 6.25984 24.9528
644 2 2.2208 11.0559 6.31352 21.9767
645 2 2.2208 11.2286 11.9346 22.075
646 1 -1.1104 12.6545 7.8187 23.4574
647 1 -1.1104 12.4966 7.80615 26.2455
648 1 -1.1104 12.271 4.94047 23.6729
649 1 -1.1104 12.735 10.4941 23.6824
650 2 2.2208 11.0125 9.23407 24.9191
651 1 -1.1104 12.4661 4.92227 26.4838
652 1 -1.1104 12.4788 10.5106 26.5026
653 1 -1.1104 9.73029 7.78498 23.3517
703 1 -1.1104 12.3633 16.0614 23.7358
686 2 2.2208 -0.0920862 14.7812 25.0542
667 1 -1.1104 6.83924 18.9172 23.5278
508 1 -1.1104 4.13979 16.0908 20.7384
482 1 -1.1104 1.22412 13.3224 20.8633
688 2 2.2208 -0.125744 20.3994 25.1117
689 2 2.2208 -0.164031 17.4925 22.152
494 1 -1.1104 1.32008 16.1442 20.7995
665 1 -1.1104 1.10838 16.2855 26.4749
682 2 2.2208 2.80215 14.5409 22.1806
664 1 -1.1104 1.1938 19.1832 26.4483
681 2 2.2208 2.55973 20.4339 21.9985
673 2 2.2208 5.32544 17.3924 22.2356
680 1 -1.1104 3.99613 16.0643 23.4985
672 1 -1.1104 1.29375 13.3506 23.6992
671 1 -1.1104 1.34274 18.9358 23.4649
669 2 2.2208 5.53939 14.7681 25.1004
668 2 2.2208 5.54804 20.3229 24.9124
679 1 -1.1104 1.19105 16.1829 23.767
677 1 -1.1104 4.19391 13.4338 26.4854
676 1 -1.1104 4.22985 16.2202 26.4211
675 2 2.2208 2.70383 17.6173 24.9979
666 1 -1.1104 1.39441 13.4094 26.5631
674 1 -1.1104 4.03198 18.8752 26.4844
660 1 -1.1104 4.15679 19.0377 23.4478
662 1 -1.1104 4.1486 13.2985 23.7695
528 1 -1.1104 9.8477 13.4453 20.9419
516 1 -1.1104 12.4591 13.2734 20.7002
693 2 2.2208 8.24211 14.8374 22.1152
702 2 2.2208 10.9853 14.6774 24.971
530 1 -1.1104 9.54392 18.9103 20.7817
518 1 -1.1104 12.3791 19.0583 20.9119
707 1 -1.1104 12.5438 13.3012 23.5511
705 1 -1.1104 12.4457 13.2014 26.3262
700 1 -1.1104 12.382 16.1405 26.3607
698 1 -1.1104 9.6673 19.1106 23.755
701 2 2.2208 11.1712 20.4059 25.048
694 1 -1.1104 9.82454 19.1213 26.5418
704 1 -1.1104 12.5067 18.8778 26.6507
706 1 -1.1104 12.3509 19.0265 23.6709
535 1 -1.1104 9.748 16.1899 20.7841
670 1 -1.1104 6.79051 13.4281 23.6965
661 1 -1.1104 6.97834 13.6083 26.3704
570 2 2.2208 5.48884 -4.77561 22.2034
596 2 2.2208 8.11928 3.37899 27.681
654 2 2.2208 10.9315 6.44638 27.6168
474 2 2.2208 11.0574 9.22354 13.8116
572 2 2.2208 -0.227842 0.679047 27.8107
412 2 2.2208 11.0114 3.58711 13.6087
9930 2 2.2208 -0.191787 9.02371 13.7523
410 2 2.2208 8.35198 0.730158 13.819
336 2 2.2208 11.2416 -2.24531 13.723
635 2 2.2208 -0.221636 6.27376 27.5562
537 2 2.2208 11.1964 14.8618 13.8476
598 2 2.2208 11.0533 -4.87573 27.7091
723 2 2.2208 5.4902 23.2435 5.39793
724 2 2.2208 5.55068 29.1251 5.34072
725 1 -1.1104 1.1966 24.5545 1.19927
726 1 -1.1104 1.2601 24.7499 3.85902
727 1 -1.1104 1.27259 21.7213 0.989982
728 1 -1.1104 1.33694 27.5015 1.03347
729 2 2.2208 5.44841 26.0087 2.41045
730 1 -1.1104 1.30498 21.8276 3.89291
731 1 -1.1104 1.40547 27.4176 3.83867
732 1 -1.1104 3.98489 24.4894 1.1183
733 2 2.2208 2.57749 23.1695 2.53626
734 2 2.2208 2.60206 28.8219 2.52718
735 1 -1.1104 4.29423 24.5155 3.81419
736 2 2.2208 2.71388 26.0485 5.27208
737 1 -1.1104 3.96255 21.7334 1.15897
738 1 -1.1104 4.08538 27.385 1.06225
739 1 -1.1104 4.27715 21.667 3.76526
740 1 -1.1104 4.04432 27.3488 3.94148
954 2 2.2208 -0.362656 37.3537 8.00302
742 2 2.2208 -0.271836 23.3029 5.51082
1042 2 2.2208 13.7261 43.0061 5.32408
743 2 2.2208 -0.0124803 26.1496 2.46409
1012 2 2.2208 -0.399954 42.9637 8.03961
871 1 -1.1104 4.12699 21.7521 6.60123
1036 1 -1.1104 12.3705 41.5089 12.3311
741 2 2.2208 -0.0382926 29.1107 5.24471
748 1 -1.1104 6.78157 21.9985 4.04184
744 1 -1.1104 6.75702 24.6096 0.899226
745 1 -1.1104 7.17032 24.7623 3.61845
746 1 -1.1104 6.8365 21.8325 1.11538
747 1 -1.1104 7.01404 27.3983 1.11816
749 1 -1.1104 6.95512 27.6761 3.8747
750 2 2.2208 11.1185 23.3455 5.41384
751 2 2.2208 11.3637 28.8363 5.26443
752 1 -1.1104 12.529 24.713 1.17431
753 1 -1.1104 12.5521 24.6053 3.82664
754 1 -1.1104 12.547 21.8365 1.14073
755 1 -1.1104 12.429 27.4018 1.01888
756 2 2.2208 11.0843 25.9724 2.53863
757 1 -1.1104 12.5654 21.7109 3.83877
758 1 -1.1104 12.4606 27.5389 3.77869
759 1 -1.1104 9.72357 24.626 1.10396
760 2 2.2208 8.33079 23.2502 2.44902
761 2 2.2208 8.38708 28.9794 2.40466
762 1 -1.1104 9.98321 24.4542 3.84791
763 2 2.2208 8.3511 26.1883 5.06348
764 1 -1.1104 9.88131 22.0077 1.14883
765 1 -1.1104 9.77419 27.4811 1.07825
766 1 -1.1104 9.81717 21.8133 3.97109
767 1 -1.1104 9.80479 27.3544 3.85502
901 1 -1.1104 9.64401 21.8013 6.69468
868 1 -1.1104 6.8994 21.9299 6.75627
897 1 -1.1104 12.5594 24.7399 6.56766
1021 2 2.2208 8.15329 45.7652 8.10365
792 2 2.2208 -0.155308 37.4356 2.40879
793 2 2.2208 -0.231516 31.6754 2.45737
771 2 2.2208 5.30877 34.6102 5.30852
772 1 -1.1104 1.31529 30.2078 1.07702
773 1 -1.1104 1.05919 36.1117 0.951801
775 1 -1.1104 1.22534 30.2595 3.81221
776 1 -1.1104 1.08553 35.9943 3.65814
778 1 -1.1104 1.06584 33.1516 0.853666
779 2 2.2208 5.55769 31.6959 2.41553
780 2 2.2208 5.41619 37.5555 2.4359
781 1 -1.1104 1.18191 33.1028 3.85894
783 1 -1.1104 3.95676 30.1538 1.08574
784 1 -1.1104 4.14388 35.9314 1.11943
785 2 2.2208 2.70595 34.5536 2.4974
786 1 -1.1104 4.03405 30.4057 3.77884
787 1 -1.1104 3.95566 36.2738 3.77345
788 2 2.2208 2.65875 31.7822 5.16978
789 2 2.2208 2.45066 37.484 5.19823
790 1 -1.1104 3.89677 33.291 0.799524
791 1 -1.1104 4.17953 33.3136 3.75976
1025 1 -1.1104 12.2849 38.6647 9.60285
777 1 -1.1104 6.58404 36.1166 3.8574
989 1 -1.1104 6.5582 44.3557 12.3049
1272 2 2.2208 0.0250903 23.1524 -0.30026
1035 1 -1.1104 12.2067 41.6059 9.63411
862 2 2.2208 13.52 45.7993 2.34857
774 1 -1.1104 6.75267 35.8386 1.17365
795 1 -1.1104 6.80468 30.4224 0.982075
797 1 -1.1104 6.90932 33.1364 0.90082
782 1 -1.1104 7.00924 33.1009 3.81839
796 1 -1.1104 6.78427 30.2642 3.88475
798 2 2.2208 10.9155 34.6613 5.23271
799 1 -1.1104 12.407 30.3858 0.959749
800 1 -1.1104 12.3226 35.9647 1.12987
801 1 -1.1104 12.7212 30.294 3.64387
802 1 -1.1104 12.4147 35.957 3.83017
803 1 -1.1104 12.3781 33.1971 1.16466
804 2 2.2208 11.0908 31.6541 2.41076
805 2 2.2208 10.9569 37.4197 2.41257
806 1 -1.1104 12.4036 33.0669 3.94624
807 1 -1.1104 9.62559 30.2769 1.0687
808 1 -1.1104 9.5401 35.9066 0.979938
809 2 2.2208 8.16654 34.5579 2.432
810 1 -1.1104 9.6689 30.0958 3.75209
811 1 -1.1104 9.42637 35.8797 3.74558
812 2 2.2208 8.31668 31.7999 5.154
813 2 2.2208 8.09904 37.37 5.26194
814 1 -1.1104 9.58814 33.1767 0.937402