ITEM: TIMESTEP
70000
ITEM: NUMBER OF ATOMS
17910
ITEM: BOX BOUNDS pp pp pp
-3.9389695508225553e-01 2.7733896955082329e+01
-4.7764355837187704e+00 3.3285643558371390e+02
-3.9001179474584063e-01 2.7730011794745831e+01
ITEM: ATOMS id type q x y z
1 2 2.2208 5.35156 0.930226 5.25017
2 1 -1.1104 1.20139 -3.37666 1.04521
3 1 -1.1104 1.17531 2.06683 0.805938
6 1 -1.1104 1.32299 -3.15655 3.77227
7 1 -1.1104 0.989736 2.37308 3.81453
10 1 -1.1104 1.45599 -0.49681 1.00781
12 2 2.2208 5.49944 -1.96268 2.53166
13 2 2.2208 5.15393 3.85419 2.4358
14 1 -1.1104 1.3358 -0.344582 3.849
16 1 -1.1104 4.04944 -3.42232 1.1044
17 1 -1.1104 3.89056 2.30386 1.08196
18 2 2.2208 2.63091 0.854119 2.41199
19 1 -1.1104 4.1011 -3.20437 4.06805
20 1 -1.1104 3.874 2.52477 3.85863
21 2 2.2208 2.63437 -1.95498 5.23618
22 2 2.2208 2.44991 3.78721 5.25379
23 1 -1.1104 4.2005 -0.640677 1.08108
24 1 -1.1104 4.0264 -0.554589 3.67224
170 1 -1.1104 1.36111 -0.388518 6.64774
172 1 -1.1104 3.95533 -3.3887 6.65251
174 1 -1.1104 3.92641 -0.585878 6.59119
25 2 2.2208 -0.0893343 -1.74414 2.51103
27 2 2.2208 -0.398296 3.73294 2.41103
202 2 2.2208 2.66242 -4.78472 8.23748
9772 2 2.2208 -0.173284 0.866269 5.34336
171 1 -1.1104 6.73352 -0.516996 6.52721
565 2 2.2208 2.7802 -1.89194 -0.380304
598 2 2.2208 11.2004 -4.63465 -0.198682
15 1 -1.1104 6.85289 -0.634496 3.77596
9 1 -1.1104 6.65844 2.08273 3.73642
51 2 2.2208 8.29407 -4.7463 2.68867
4 1 -1.1104 6.94867 -3.34917 1.18652
5 1 -1.1104 6.66788 2.39427 1.13069
8 1 -1.1104 6.75786 -3.46129 4.06235
11 1 -1.1104 7.03837 -0.483501 0.971638
31 2 2.2208 10.9942 0.846075 5.31089
32 1 -1.1104 12.4915 -3.25548 1.12346
33 1 -1.1104 12.3597 2.23933 1.00695
34 1 -1.1104 12.6276 -3.25867 3.93832
35 1 -1.1104 12.3536 2.13756 3.79125
36 1 -1.1104 12.6996 -0.565212 0.979754
37 2 2.2208 10.9657 -1.931 2.50098
38 2 2.2208 10.8622 3.56985 2.36696
39 1 -1.1104 12.3983 -0.488268 3.91529
40 1 -1.1104 9.64885 -3.20641 1.03003
41 1 -1.1104 9.48958 2.31098 1.1951
42 2 2.2208 8.26122 0.786191 2.57371
43 1 -1.1104 9.77396 -3.38515 3.8698
44 1 -1.1104 9.54631 2.3556 4.03336
45 2 2.2208 8.19957 -2.03083 5.29847
47 1 -1.1104 9.76554 -0.455568 0.945461
48 1 -1.1104 9.5001 -0.730742 3.93201
46 2 2.2208 8.23616 3.67312 5.34132
203 2 2.2208 5.42523 -4.83044 10.8151
30 2 2.2208 -0.192927 -4.74919 5.29624
82 2 2.2208 -0.335681 9.29959 2.3322
324 2 2.2208 11.151 20.4529 8.13822
54 2 2.2208 5.37396 6.57025 5.23567
55 2 2.2208 5.44738 12.085 5.28009
56 1 -1.1104 1.02777 7.89541 1.14493
58 1 -1.1104 1.03003 8.04046 4.05651
60 1 -1.1104 1.25253 5.16772 1.00868
61 1 -1.1104 1.0752 10.5833 0.856691
66 2 2.2208 5.406 9.41455 2.37832
67 1 -1.1104 1.039 5.06753 3.794
68 1 -1.1104 0.956668 10.9256 3.70128
71 1 -1.1104 4.06721 8.09631 1.09703
72 2 2.2208 2.62573 6.59521 2.47441
73 2 2.2208 2.65301 12.0616 2.4774
74 1 -1.1104 3.9285 7.94719 3.87727
75 2 2.2208 2.64857 9.32415 5.36951
76 1 -1.1104 3.86909 5.21619 0.980187
77 1 -1.1104 3.9365 10.7109 0.907614
79 1 -1.1104 3.94147 5.28277 4.01626
80 1 -1.1104 4.0656 10.5649 3.66647
83 2 2.2208 -0.343981 11.9607 5.25534
9774 2 2.2208 -0.222176 6.56181 5.21361
316 2 2.2208 8.16125 20.6618 10.8248
306 1 -1.1104 6.75612 16.3422 12.2497
9777 2 2.2208 -0.188481 -4.79925 11.017
296 1 -1.1104 6.87846 19.182 12.2886
59 1 -1.1104 6.62441 7.7462 3.75179
70 1 -1.1104 6.83992 10.5786 3.89513
69 1 -1.1104 6.81708 4.96712 4.17379
57 1 -1.1104 6.81273 7.96172 0.928266
64 1 -1.1104 6.91406 10.6624 0.950267
65 1 -1.1104 6.73742 10.8868 6.7848
63 1 -1.1104 6.79171 5.19881 1.32732
84 2 2.2208 11.1773 6.33341 5.33123
85 2 2.2208 11.0669 12.1129 5.23461
86 1 -1.1104 12.3988 7.87287 1.12935
87 1 -1.1104 12.2993 7.67279 3.79705
88 1 -1.1104 12.2405 5.08676 1.11219
89 1 -1.1104 12.491 10.7712 0.920957
91 2 2.2208 11.1764 9.30483 2.49257
92 1 -1.1104 12.6459 4.92719 3.95531
93 1 -1.1104 12.4974 10.6233 4.01406
94 1 -1.1104 9.58099 8.15051 1.19513
95 2 2.2208 8.12521 6.50135 2.48865
96 2 2.2208 8.31631 12.0933 2.37387
97 1 -1.1104 9.58404 7.8321 3.8745
98 2 2.2208 8.36199 9.10372 5.14557
99 1 -1.1104 9.52729 5.0457 1.12594
100 1 -1.1104 9.67481 10.8194 0.944767
102 1 -1.1104 9.75879 5.05532 3.85117
103 1 -1.1104 9.87335 10.8425 3.6925
318 1 -1.1104 9.62177 19.3808 9.4723
267 1 -1.1104 9.64881 7.77518 6.69084
135 2 2.2208 -0.137924 14.6947 2.48195
297 1 -1.1104 7.03587 13.6818 12.3142
106 2 2.2208 5.51308 17.8094 5.30857
107 1 -1.1104 1.04617 13.4635 0.956428
109 1 -1.1104 1.22302 19.2689 1.22147
113 1 -1.1104 1.31945 13.4795 4.03572
114 1 -1.1104 1.2792 19.1768 4.178
116 1 -1.1104 1.26189 16.1335 1.10585
119 2 2.2208 5.40657 14.9985 2.52281
120 2 2.2208 5.60872 20.4407 2.37023
121 1 -1.1104 1.2489 16.2361 3.87065
123 1 -1.1104 3.90731 13.3734 0.91484
125 1 -1.1104 3.94817 19.3088 1.04138
127 2 2.2208 2.54965 17.746 2.6065
128 1 -1.1104 4.1062 13.4843 3.93714
129 1 -1.1104 4.12388 19.016 4.01384
130 2 2.2208 2.68634 15.0113 5.32888
131 2 2.2208 2.65383 20.5741 5.47935
132 1 -1.1104 4.05797 16.3385 1.07111
134 1 -1.1104 4.04914 16.2679 3.76477
137 2 2.2208 -0.0715281 17.6168 5.47156
110 1 -1.1104 6.92096 13.5323 1.19872
136 2 2.2208 -0.258665 20.5215 2.57852
124 1 -1.1104 3.93485 13.4715 6.75958
117 1 -1.1104 1.46025 16.3414 6.7011
133 1 -1.1104 4.07201 16.2673 6.60937
322 1 -1.1104 9.68101 13.3667 12.1172
201 1 -1.1104 12.5055 19.0821 12.179
115 1 -1.1104 6.87116 13.3992 3.91834
122 1 -1.1104 6.85532 16.384 3.87478
139 1 -1.1104 6.9924 19.1766 3.78939
140 1 -1.1104 6.69282 16.2321 1.05218
138 1 -1.1104 6.70647 18.9866 0.911132
141 2 2.2208 10.9131 17.7685 5.15001
142 1 -1.1104 12.2733 13.5166 0.962292
144 1 -1.1104 12.4079 19.0558 0.918943
146 1 -1.1104 12.5852 13.6829 3.91579
147 1 -1.1104 12.4404 19.2629 3.75701
148 1 -1.1104 12.5101 16.2798 0.97505
150 2 2.2208 11.0885 14.9641 2.36924
151 2 2.2208 11.2687 20.5442 2.42492
152 1 -1.1104 12.5027 16.4677 3.96054
153 1 -1.1104 9.63589 13.4696 1.0872
155 1 -1.1104 9.63536 19.2946 0.988896
157 2 2.2208 8.24929 17.7794 2.46116
158 1 -1.1104 9.72265 13.6509 3.88401
159 1 -1.1104 9.65925 19.2151 3.72721
160 2 2.2208 8.16802 14.9463 5.196
161 2 2.2208 8.32405 20.7601 5.22208
162 1 -1.1104 9.64796 16.3852 0.940254
164 1 -1.1104 9.52452 16.3385 3.88795
143 1 -1.1104 12.3088 13.2953 6.65168
156 1 -1.1104 9.5796 19.3044 6.74167
118 1 -1.1104 6.86316 16.4457 6.59081
163 1 -1.1104 9.62692 16.3834 6.51912
229 1 -1.1104 12.4086 19.1367 9.46438
199 2 2.2208 -0.229223 3.74941 8.06083
173 1 -1.1104 3.76337 2.20754 6.64758
317 2 2.2208 8.35727 14.9578 10.8173
167 1 -1.1104 1.09712 2.35421 6.71705
166 1 -1.1104 1.32143 -3.49131 6.65513
9776 2 2.2208 -0.138715 0.828845 10.8701
175 2 2.2208 5.31209 0.840398 10.9653
176 1 -1.1104 1.40785 -3.42679 12.3694
177 1 -1.1104 1.27129 2.29638 12.158
180 1 -1.1104 1.07586 -3.44362 9.54701
181 1 -1.1104 1.23178 2.28446 9.50833
184 1 -1.1104 1.15986 -0.57656 12.0093
186 2 2.2208 5.41946 -1.81145 8.01784
187 2 2.2208 5.42866 3.76292 8.13594
188 1 -1.1104 1.1206 -0.673671 9.25521
190 1 -1.1104 4.12635 -3.42785 12.2805
191 1 -1.1104 3.92952 2.32743 12.2897
192 2 2.2208 2.55012 0.91013 8.17974
193 1 -1.1104 4.09313 -3.28967 9.52818
194 1 -1.1104 4.23703 2.24601 9.44082
195 2 2.2208 2.52102 -2.10381 10.9269
197 1 -1.1104 3.97312 -0.686546 12.3981
198 1 -1.1104 3.80105 -0.627076 9.5156
196 2 2.2208 2.74943 3.77412 10.9743
9775 2 2.2208 -0.166766 -2.0171 8.04967
325 2 2.2208 10.9122 14.9003 7.96346
168 1 -1.1104 6.70033 -3.40183 6.87732
208 1 -1.1104 9.81516 -3.20165 6.76681
205 1 -1.1104 12.5964 -3.28147 6.66074
209 1 -1.1104 9.66102 2.26411 6.77093
182 1 -1.1104 6.68245 -3.10472 9.49287
207 1 -1.1104 12.4622 -0.489286 6.79397
169 1 -1.1104 6.6983 2.34081 6.58021
189 1 -1.1104 6.66778 -0.356694 9.54709
179 1 -1.1104 6.88046 2.18202 12.1932
183 1 -1.1104 6.8389 2.4905 9.51692
178 1 -1.1104 6.88314 -3.41818 12.436
185 1 -1.1104 6.77232 -0.382735 12.3031
210 1 -1.1104 9.63061 -0.442154 6.61414
206 1 -1.1104 12.3729 2.28302 6.66786
211 2 2.2208 11.0148 0.919552 10.9045
212 1 -1.1104 12.5668 -3.3247 12.1105
213 1 -1.1104 12.4612 2.43461 12.3791
214 1 -1.1104 12.6212 -3.27365 9.2894
215 1 -1.1104 12.3465 2.29435 9.49556
216 1 -1.1104 12.4218 -0.420939 12.2801
217 2 2.2208 11.1462 -2.04695 8.13259
219 1 -1.1104 12.4222 -0.579462 9.5087
220 1 -1.1104 9.7494 -3.28311 12.3332
221 1 -1.1104 9.76977 2.36335 12.3819
222 2 2.2208 8.08308 0.92738 8.03461
223 1 -1.1104 9.71031 -3.4277 9.53106
224 1 -1.1104 9.52448 2.33949 9.66131
225 2 2.2208 8.13562 -1.90789 10.9361
226 2 2.2208 8.18368 3.77253 10.9674
227 1 -1.1104 9.65263 -0.542701 12.1351
228 1 -1.1104 9.3492 -0.424013 9.53333
218 2 2.2208 10.9872 3.68208 8.09913
145 1 -1.1104 12.3282 19.0318 6.3544
9701 2 2.2208 -0.191049 12.0673 10.9222
78 1 -1.1104 4.1424 10.795 6.66474
238 1 -1.1104 4.02144 7.96279 6.64207
62 1 -1.1104 1.19311 10.652 6.71542
239 1 -1.1104 4.18102 5.05925 6.87235
9709 2 2.2208 -0.23584 6.41994 10.8998
234 1 -1.1104 1.31493 7.91007 6.80244
236 1 -1.1104 1.46222 5.23064 6.72329
240 2 2.2208 5.51545 6.58664 10.9808
241 2 2.2208 5.58591 12.2087 10.8866
242 1 -1.1104 1.45286 7.71857 12.1371
244 1 -1.1104 1.4123 8.07242 9.44407
246 1 -1.1104 1.07787 4.94046 12.3574
247 1 -1.1104 1.3041 10.7261 12.2857
250 2 2.2208 5.49257 9.27401 8.02028
251 1 -1.1104 1.12544 5.09464 9.68747
252 1 -1.1104 1.11621 10.7349 9.37861
255 1 -1.1104 3.99538 7.92047 12.3225
256 2 2.2208 2.76393 6.62724 8.19905
257 2 2.2208 2.62968 12.1755 8.13193
258 1 -1.1104 4.26486 8.00988 9.5927
259 2 2.2208 2.75695 9.4016 10.8888
260 1 -1.1104 4.028 5.08556 12.5422
261 1 -1.1104 4.11111 10.7254 12.3393
262 1 -1.1104 3.78765 5.17296 9.73007
263 1 -1.1104 4.0173 10.8729 9.54126
9708 2 2.2208 -0.227376 9.39693 8.14215
237 1 -1.1104 6.75742 5.20449 6.77618
265 1 -1.1104 12.4837 7.75384 6.67105
101 1 -1.1104 9.69382 10.6411 6.63566
253 1 -1.1104 6.83953 5.13531 9.59666
254 1 -1.1104 6.90508 10.8456 9.56731
235 1 -1.1104 6.98715 7.91425 6.67882
90 1 -1.1104 12.4349 10.4284 6.63315
249 1 -1.1104 6.8591 10.6243 12.2874
248 1 -1.1104 6.72635 5.02489 12.3206
245 1 -1.1104 6.94609 8.09775 9.50683
269 1 -1.1104 9.54624 5.00715 6.67536
266 1 -1.1104 12.443 4.97297 6.86579
243 1 -1.1104 6.84151 7.8734 12.4508
264 1 -1.1104 9.75222 10.5778 9.27252
268 1 -1.1104 9.59233 5.17712 9.57194
270 1 -1.1104 9.71139 10.7801 12.1293
271 1 -1.1104 9.45665 5.07531 12.5067
272 2 2.2208 8.22296 9.33369 10.9533
273 1 -1.1104 9.63571 7.84203 9.57416
274 2 2.2208 8.3074 12.1321 8.14627
275 2 2.2208 8.24533 6.43425 7.99849
276 2 2.2208 11.0459 6.49093 10.8802
277 2 2.2208 11.1035 12.0496 10.8961
278 1 -1.1104 12.421 7.7521 12.4225
279 1 -1.1104 12.4852 7.94483 9.76718
280 1 -1.1104 12.5638 5.21928 12.2165
281 1 -1.1104 12.648 10.6455 12.099
282 2 2.2208 11.0367 9.2072 8.12122
283 1 -1.1104 12.4236 5.12243 9.50404
284 1 -1.1104 12.5602 10.4913 9.38617
285 1 -1.1104 9.64841 7.785 12.3279
154 1 -1.1104 9.40734 13.601 6.71277
311 2 2.2208 -0.265184 20.6344 8.24176
312 2 2.2208 -0.0742936 17.8036 11.0666
126 1 -1.1104 3.91833 19.1219 6.70959
108 1 -1.1104 0.989439 13.3877 6.90454
302 1 -1.1104 1.09366 19.2262 6.8018
286 1 -1.1104 4.21914 19.2203 12.2258
287 1 -1.1104 4.25444 13.5908 12.327
291 1 -1.1104 1.36383 19.1152 9.60102
292 1 -1.1104 1.28256 16.4216 9.67543
293 2 2.2208 5.57149 20.589 7.94553
294 1 -1.1104 1.34764 13.5289 9.63312
295 2 2.2208 5.60547 15.0106 8.05098
298 1 -1.1104 1.28171 19.4169 12.2745
299 1 -1.1104 1.32997 13.5612 12.3082
300 2 2.2208 5.56603 17.7801 10.8239
301 1 -1.1104 4.22199 19.2623 9.49246
303 2 2.2208 2.70488 17.8619 8.25357
304 1 -1.1104 4.20959 16.3147 9.61941
305 1 -1.1104 4.12761 13.6046 9.57261
307 1 -1.1104 1.15574 16.4194 12.6027
308 1 -1.1104 3.95215 16.1686 12.4884
309 2 2.2208 2.69192 20.7611 10.9753
310 2 2.2208 2.79623 15.0412 10.9885
313 2 2.2208 -0.0685916 14.9373 8.21411
289 1 -1.1104 7.0337 16.3808 9.45721
81 2 2.2208 11.0911 17.7933 10.8002
111 1 -1.1104 6.76975 13.692 6.65882
323 1 -1.1104 12.5422 16.4319 9.35007
320 2 2.2208 8.46868 17.7078 8.01456
315 1 -1.1104 9.40369 16.334 12.2744
314 1 -1.1104 9.91031 16.3213 9.4795
149 1 -1.1104 12.3293 16.2538 6.76741
319 1 -1.1104 9.70332 13.6157 9.43497
321 1 -1.1104 9.73752 19.151 12.3223
200 1 -1.1104 12.4161 13.501 12.3183
112 1 -1.1104 6.78607 18.9928 6.65603
230 1 -1.1104 12.3369 16.2743 12.066
204 1 -1.1104 12.4273 13.6397 9.3184
288 1 -1.1104 6.91707 19.3033 9.5073
290 1 -1.1104 7.05776 13.6529 9.38412
630 2 2.2208 2.6154 9.20389 -0.365614
595 2 2.2208 8.28854 -1.99858 -0.209236
572 2 2.2208 -0.161242 0.919739 -0.488674
687 2 2.2208 -0.168571 17.5992 -0.252275
9930 2 2.2208 -0.056158 9.35167 13.707
631 2 2.2208 5.52844 12.1812 -0.452144
632 2 2.2208 -0.30257 12.1382 -0.33518
685 2 2.2208 2.61313 14.9402 -0.367169
408 2 2.2208 8.3102 15.0242 -0.347418
564 2 2.2208 5.50573 0.797212 -0.366628
683 2 2.2208 2.60748 20.6425 -0.243305
575 2 2.2208 8.19714 20.7172 -0.357543
446 2 2.2208 2.72094 6.56268 13.7124
635 2 2.2208 -0.201014 6.56282 -0.436861
684 2 2.2208 5.29198 17.6953 -0.387074
511 2 2.2208 5.57324 14.8874 13.7374
379 2 2.2208 5.54455 3.80129 13.6885
594 2 2.2208 11.1352 0.714285 -0.371604
447 2 2.2208 5.55289 9.32775 13.7431
566 2 2.2208 2.69593 3.75976 -0.5806
711 2 2.2208 -0.118328 3.60797 13.5961
473 2 2.2208 8.1876 6.56241 13.7481
629 2 2.2208 5.47833 6.48177 -0.288281
655 2 2.2208 8.34049 9.3621 -0.391609
474 2 2.2208 11.0802 9.19926 13.6643
337 2 2.2208 5.44617 0.786933 16.6469
338 1 -1.1104 1.33411 -3.27376 17.9018
339 1 -1.1104 1.15143 2.40395 17.9799
342 1 -1.1104 1.38378 -3.29803 15.1641
344 1 -1.1104 1.31407 2.23515 15.0415
350 1 -1.1104 1.30524 -0.535163 18.0187
352 2 2.2208 5.38557 -1.98546 19.4194
354 1 -1.1104 1.28337 -0.463849 14.8934
358 1 -1.1104 4.22724 -3.40508 17.993
359 1 -1.1104 4.12086 2.11882 17.8976
360 2 2.2208 2.47805 0.803994 19.404
361 1 -1.1104 3.9492 -3.43473 15.1499
363 1 -1.1104 4.17224 2.22603 15.2096
365 2 2.2208 2.59083 -1.87905 16.4751
366 2 2.2208 2.71579 3.56457 16.6545
367 1 -1.1104 3.99253 -0.641779 17.9781
368 1 -1.1104 4.07389 -0.55864 15.1648
353 2 2.2208 5.61176 3.57296 19.3526
333 2 2.2208 5.55191 -1.84915 13.6799
10138 2 2.2208 -0.0856809 -2.01062 19.3283
10137 2 2.2208 -0.143632 0.841699 16.5853
9854 2 2.2208 -0.0985472 3.62723 19.4918
678 1 -1.1104 6.84773 16.3189 23.4584
372 2 2.2208 2.83563 -4.67009 19.4415
369 1 -1.1104 3.9834 -0.37649 20.6177
362 1 -1.1104 4.05731 -3.2592 20.7109
345 1 -1.1104 1.19192 2.08792 20.823
670 1 -1.1104 6.82817 13.6241 23.6137
371 2 2.2208 5.49731 -4.69272 16.592
346 1 -1.1104 6.80868 -3.24482 15.116
356 1 -1.1104 6.98626 -0.341289 15.1261
340 1 -1.1104 6.96864 -3.35982 17.7741
348 1 -1.1104 7.04454 2.49242 15.0046
341 1 -1.1104 7.01881 2.31352 17.8103
351 1 -1.1104 6.75595 -0.607252 18.0955
347 1 -1.1104 6.87444 -3.3305 20.674
380 2 2.2208 11.2248 0.802151 16.5914
381 1 -1.1104 12.7036 -3.36521 17.863
382 1 -1.1104 12.607 2.1044 17.9432
383 1 -1.1104 12.3457 -3.3614 14.8882
385 1 -1.1104 12.4537 2.10819 15.2864
387 1 -1.1104 12.5497 -0.489212 18.1194
388 2 2.2208 11.0164 -1.77103 19.3813
389 2 2.2208 11.0927 3.64127 19.3797
390 1 -1.1104 12.5428 -0.690962 15.0901
392 1 -1.1104 9.7682 -3.22031 18.095
393 1 -1.1104 9.82107 2.28395 18.0886
394 2 2.2208 8.17272 0.854703 19.2955
395 1 -1.1104 9.57676 -3.21108 15.0488
397 1 -1.1104 9.75637 2.26703 15.2079
399 2 2.2208 8.35841 -1.86017 16.3998
401 1 -1.1104 9.62705 -0.431198 17.6442
402 1 -1.1104 9.69414 -0.553613 14.9488
400 2 2.2208 8.41562 3.70279 16.6026
391 1 -1.1104 12.2762 -0.528486 21.1585
403 1 -1.1104 9.4053 -0.503551 20.4123
384 1 -1.1104 12.5394 -3.17329 20.769
386 1 -1.1104 12.5652 2.20477 20.8508
398 1 -1.1104 9.97873 2.32558 20.8163
9784 2 2.2208 -0.17768 -1.71559 13.6354
691 1 -1.1104 9.68017 16.3704 23.5227
9927 2 2.2208 -0.0926488 6.49894 16.5816
10136 2 2.2208 -0.169549 -4.92517 16.6313
706 1 -1.1104 12.4257 19.0876 23.524
413 2 2.2208 5.57711 6.54176 16.6188
414 2 2.2208 5.31358 12.2779 16.5402
415 1 -1.1104 1.18881 7.78256 17.9371
417 1 -1.1104 1.45414 7.91718 15.1702
421 1 -1.1104 1.26603 5.1919 18.0501
422 1 -1.1104 1.11935 10.7872 18.0271
425 2 2.2208 5.50307 9.44017 19.3644
426 1 -1.1104 1.33634 5.06286 15.1396
428 1 -1.1104 1.47191 10.681 15.2355
434 1 -1.1104 4.01051 7.96457 18.1635
435 2 2.2208 2.76838 6.4358 19.3767
436 2 2.2208 2.40193 12.2102 19.3301
437 1 -1.1104 4.37285 7.97303 15.279
439 2 2.2208 2.7416 9.25198 16.6162
440 1 -1.1104 4.17797 4.83391 17.9876
441 1 -1.1104 3.87356 10.7822 17.866
442 1 -1.1104 4.02526 5.17027 15.2498
444 1 -1.1104 4.37652 10.7045 15.0672
570 2 2.2208 5.61951 -4.72608 22.0888
717 2 2.2208 -0.267532 12.1258 16.4251
9926 2 2.2208 -0.139573 9.19984 19.2602
663 1 -1.1104 6.76397 16.3206 26.2897
443 1 -1.1104 4.08346 5.08773 20.7133
699 1 -1.1104 9.49879 13.5405 23.533
419 1 -1.1104 6.94127 7.90863 15.1404
700 1 -1.1104 12.3293 16.499 26.3485
423 1 -1.1104 6.97766 5.21166 18.1648
416 1 -1.1104 6.95624 7.97065 17.891
424 1 -1.1104 6.7077 10.8078 17.8236
432 1 -1.1104 6.94956 10.641 15.2427
430 1 -1.1104 7.00704 5.23057 15.2967
449 2 2.2208 11.0777 6.36394 16.6224
450 2 2.2208 11.2757 12.1442 16.4252
451 1 -1.1104 12.6021 7.81016 17.9592
452 1 -1.1104 12.303 7.95334 15.2187
454 1 -1.1104 12.5563 4.90347 17.8729
455 1 -1.1104 12.5546 10.7155 17.737
456 2 2.2208 11.1625 9.26781 19.232
457 1 -1.1104 12.631 5.01574 14.9363
459 1 -1.1104 12.7109 10.6276 14.9002
461 1 -1.1104 9.83473 7.9257 17.9396
462 2 2.2208 8.39444 6.43802 19.4012
463 2 2.2208 8.10028 12.2385 19.2884
464 1 -1.1104 9.62442 7.95093 15.2362
466 2 2.2208 8.27902 9.43661 16.556
467 1 -1.1104 9.75526 5.07096 17.8393
468 1 -1.1104 9.84802 10.8641 17.8958
469 1 -1.1104 9.66953 5.17885 15.028
471 1 -1.1104 9.67105 10.8229 15.0351
431 1 -1.1104 7.10902 5.09193 20.9648
412 2 2.2208 11.0603 3.86762 13.7768
476 2 2.2208 5.67148 17.7529 16.469
477 1 -1.1104 1.04112 13.5709 17.8035
478 1 -1.1104 1.31731 19.1791 18.1812
481 1 -1.1104 1.27152 13.6651 15.2067
483 1 -1.1104 1.4176 19.2744 15.3414
489 1 -1.1104 1.30918 16.5159 18.0313
491 2 2.2208 5.37951 15.0352 19.3604
492 2 2.2208 5.5129 20.6294 19.3658
493 1 -1.1104 1.22188 16.3276 15.2487
497 1 -1.1104 3.99239 13.6206 17.9525
498 1 -1.1104 4.30506 19.2552 17.9157
499 2 2.2208 2.71758 17.8799 19.424
500 1 -1.1104 4.12283 13.6142 15.1847
502 1 -1.1104 4.08325 19.0912 15.1966
504 2 2.2208 2.64772 15.0831 16.5666
505 2 2.2208 2.7615 20.5884 16.6437
506 1 -1.1104 4.01566 16.3067 18.0479
507 1 -1.1104 4.2612 16.4811 15.0784
484 1 -1.1104 1.06311 19.2868 20.8182
722 2 2.2208 -0.239752 14.9016 19.346
708 2 2.2208 11.0929 17.8533 22.0169
701 2 2.2208 11.1462 20.5979 24.9273
411 2 2.2208 -0.146726 17.7072 16.5874
694 1 -1.1104 9.6206 19.219 26.4689
690 1 -1.1104 9.6497 16.3701 26.2723
702 2 2.2208 10.9568 15.0053 24.8768
485 1 -1.1104 7.08017 13.6222 15.0636
487 1 -1.1104 6.71963 19.2241 14.9759
490 1 -1.1104 6.74818 16.2332 17.8669
480 1 -1.1104 7.10899 19.0588 17.8912
495 1 -1.1104 7.15466 16.4847 15.1086
479 1 -1.1104 6.75548 13.6195 17.9844
512 2 2.2208 11.2522 17.6718 16.3993
513 1 -1.1104 12.4935 13.5313 17.8028
514 1 -1.1104 12.5775 19.2456 17.9043
515 1 -1.1104 12.5765 13.6218 15.1307
517 1 -1.1104 12.6291 18.8989 14.9608
519 1 -1.1104 12.7114 16.4219 17.7708
520 2 2.2208 10.9292 14.9546 19.24
521 2 2.2208 11.0397 20.5709 19.2242
522 1 -1.1104 12.6647 16.2406 14.866
524 1 -1.1104 9.68403 13.4767 17.8205
525 1 -1.1104 9.74534 19.0076 17.7549
526 2 2.2208 8.37318 17.8316 19.2556
527 1 -1.1104 9.78844 13.4954 15.0499
529 1 -1.1104 9.95518 19.1762 15.0389
531 2 2.2208 8.30605 14.9004 16.4592
532 2 2.2208 8.31981 20.5661 16.4211
533 1 -1.1104 9.5609 16.2775 17.871
534 1 -1.1104 9.89984 16.3011 15.0168
486 1 -1.1104 6.87325 13.5105 20.7883
523 1 -1.1104 12.3488 16.2377 20.5522
516 1 -1.1104 12.3862 13.4532 20.4
661 1 -1.1104 7.03013 13.4621 26.4533
364 1 -1.1104 4.02912 2.29218 20.6974
9816 2 2.2208 -0.24351 0.816069 22.2238
9812 2 2.2208 -0.116107 3.53755 24.9846
355 1 -1.1104 1.3403 -0.673706 20.6647
343 1 -1.1104 1.18332 -3.36083 20.6843
540 2 2.2208 5.51229 0.961553 22.1193
541 1 -1.1104 1.25401 -3.25894 23.3876
542 1 -1.1104 1.29709 2.19619 23.5219
545 1 -1.1104 1.31706 -3.29216 26.2774
546 1 -1.1104 1.42994 2.18349 26.0557
549 1 -1.1104 1.09988 -0.497153 23.5999
551 2 2.2208 5.66315 -1.90545 24.9845
552 2 2.2208 5.53866 3.60689 25.0336
553 1 -1.1104 1.36543 -0.663408 26.3603
555 1 -1.1104 4.07903 -3.44988 23.4956
556 1 -1.1104 4.20023 2.05167 23.5486
557 2 2.2208 2.69573 0.774757 24.8895
558 1 -1.1104 4.02935 -3.439 26.4743
559 1 -1.1104 4.13283 2.24934 26.2658
560 2 2.2208 2.69719 -1.83338 22.0525
562 1 -1.1104 3.91581 -0.61754 23.56
563 1 -1.1104 4.20746 -0.513286 26.3622
561 2 2.2208 2.69147 3.54159 22.1578
573 2 2.2208 -0.0578842 -1.95805 24.9682
695 1 -1.1104 9.71132 13.4738 26.3105
703 1 -1.1104 12.4686 16.2385 23.4966
357 1 -1.1104 6.75912 -0.450616 20.7725
349 1 -1.1104 6.98657 2.25237 20.7819
554 1 -1.1104 6.99766 -0.712546 26.3334
396 1 -1.1104 9.55954 -3.1886 20.7672
543 1 -1.1104 7.13547 -3.1597 23.5105
550 1 -1.1104 6.80527 -0.601283 23.6872
544 1 -1.1104 6.87957 2.22399 23.7235
548 1 -1.1104 7.03255 2.13072 26.4831
547 1 -1.1104 6.92967 -3.52543 26.6137
576 2 2.2208 11.1313 0.882486 22.4167
577 1 -1.1104 12.5552 -3.28238 23.6586
578 1 -1.1104 12.4902 2.46858 23.5923
579 1 -1.1104 12.4566 -3.36447 26.4757
580 1 -1.1104 12.5422 2.31625 26.3933
581 1 -1.1104 12.4229 -0.430502 23.8187
582 2 2.2208 11.149 -2.05318 25.0693
584 1 -1.1104 12.5842 -0.569822 26.4665
585 1 -1.1104 9.89623 -3.46685 23.4774
586 1 -1.1104 9.63519 2.27241 23.6693
587 2 2.2208 8.41474 0.909318 25.0312
588 1 -1.1104 9.62319 -3.32779 26.4598
589 1 -1.1104 9.79517 2.15796 26.2934
590 2 2.2208 8.16413 -1.93645 22.1708
592 1 -1.1104 9.67918 -0.715739 23.4816
593 1 -1.1104 9.78885 -0.527984 26.325
591 2 2.2208 8.36421 3.63967 22.2161
583 2 2.2208 11.0145 3.78696 25.0287
518 1 -1.1104 12.4374 19.1264 20.6606
445 1 -1.1104 4.07628 10.7608 20.7656
427 1 -1.1104 1.38178 4.95272 20.8565
418 1 -1.1104 1.47521 7.76888 20.698
633 2 2.2208 -0.230671 9.3659 24.9743
438 1 -1.1104 4.17985 7.89156 20.6902
634 2 2.2208 -0.201143 12.041 22.0565
429 1 -1.1104 1.1366 10.7435 20.7755
605 2 2.2208 5.5119 6.41413 22.1327
606 2 2.2208 5.38424 12.2188 22.0804
607 1 -1.1104 1.29419 7.82707 23.4368
609 1 -1.1104 1.29891 7.80252 26.277
611 1 -1.1104 1.44077 5.02388 23.5356
612 1 -1.1104 1.13205 10.5555 23.3918
615 2 2.2208 5.46594 9.3255 24.9819
616 1 -1.1104 1.25231 4.98721 26.2944
617 1 -1.1104 1.22288 10.649 26.3733
620 1 -1.1104 4.29814 8.07855 23.6268
621 2 2.2208 2.80676 6.6359 24.7749
622 2 2.2208 2.66696 12.0812 24.8964
623 1 -1.1104 4.17908 7.94313 26.4638
624 2 2.2208 2.62603 9.18717 22.1883
625 1 -1.1104 4.2026 5.18875 23.6223
626 1 -1.1104 3.98232 10.6488 23.5979
627 1 -1.1104 3.98963 5.09794 26.2505
628 1 -1.1104 3.9482 10.6904 26.2164
10105 2 2.2208 -0.0594763 6.48474 22.0682
453 1 -1.1104 12.6077 7.82388 20.6507
460 1 -1.1104 12.462 10.609 20.4901
470 1 -1.1104 9.83359 5.17956 20.6068
433 1 -1.1104 6.73796 10.8523 20.6395
420 1 -1.1104 6.86977 7.86293 20.6826
614 1 -1.1104 6.86216 10.5015 23.6024
613 1 -1.1104 6.94711 4.77947 23.7163
608 1 -1.1104 7.05499 7.85161 23.4246
618 1 -1.1104 6.59332 4.89816 26.7884
610 1 -1.1104 7.05628 7.75968 26.2877
472 1 -1.1104 9.61517 10.6083 20.6112
465 1 -1.1104 9.7792 7.82622 20.881
619 1 -1.1104 6.93109 10.7473 26.2585
458 1 -1.1104 12.645 5.03595 20.5611
636 1 -1.1104 9.79045 10.7049 26.2746
637 1 -1.1104 9.53061 5.03888 26.3579
638 1 -1.1104 9.55348 10.6598 23.5162
639 1 -1.1104 9.69317 5.052 23.528
640 2 2.2208 8.15297 9.32041 21.897
641 1 -1.1104 9.77191 7.95958 26.3844
642 2 2.2208 8.37661 12.0465 25.046
643 2 2.2208 8.30345 6.56155 24.9038
644 2 2.2208 11.3085 6.44962 22.1706
645 2 2.2208 10.903 12.2085 22.1909
646 1 -1.1104 12.655 7.83897 23.4268
647 1 -1.1104 12.5308 7.71662 26.4717
648 1 -1.1104 12.6135 5.04453 23.5019
649 1 -1.1104 12.3396 10.8371 23.7125
650 2 2.2208 11.0995 9.23507 25.0416
651 1 -1.1104 12.4247 5.05278 26.4111
652 1 -1.1104 12.4145 10.5503 26.4476
653 1 -1.1104 9.92141 7.81406 23.722
528 1 -1.1104 9.45946 13.4808 20.7288
707 1 -1.1104 12.3149 13.5337 23.3739
689 2 2.2208 -0.0139642 17.789 22.1953
688 2 2.2208 -0.269487 20.513 25.1057
482 1 -1.1104 1.2491 13.616 20.8198
494 1 -1.1104 1.16711 16.3243 20.784
503 1 -1.1104 4.04918 19.3148 20.7847
508 1 -1.1104 4.1605 16.4865 20.947
686 2 2.2208 -0.245312 14.8796 25.0204
501 1 -1.1104 3.98869 13.6458 20.5679
665 1 -1.1104 1.1507 16.3091 26.4418
682 2 2.2208 2.61463 15.0039 22.2117
664 1 -1.1104 1.10681 19.2322 26.548
681 2 2.2208 2.5313 20.6311 22.1972
673 2 2.2208 5.44122 17.7942 22.268
680 1 -1.1104 4.01353 16.148 23.5405
672 1 -1.1104 1.32096 13.516 23.5286
671 1 -1.1104 1.31563 19.1547 23.6942
669 2 2.2208 5.42392 14.9457 24.8712
668 2 2.2208 5.32358 20.6293 24.9275
679 1 -1.1104 1.17826 16.213 23.739
677 1 -1.1104 4.05234 13.5537 26.3271
676 1 -1.1104 4.05337 16.4196 26.3773
675 2 2.2208 2.49601 17.7646 25.054
666 1 -1.1104 1.07684 13.4824 26.3585
674 1 -1.1104 3.7728 19.2126 26.3479
660 1 -1.1104 3.95618 19.051 23.5106
662 1 -1.1104 4.0016 13.3947 23.5084
535 1 -1.1104 9.62265 16.3888 20.9107
696 1 -1.1104 6.66178 19.0946 26.215
698 1 -1.1104 9.71709 19.2515 23.4979
697 2 2.2208 8.25532 17.8142 24.9399
488 1 -1.1104 6.95667 19.4195 20.8337
496 1 -1.1104 6.90586 16.5777 20.805
530 1 -1.1104 9.70305 19.2388 20.6113
667 1 -1.1104 6.70793 19.1493 23.6298
692 2 2.2208 8.29686 20.8425 22.0594
705 1 -1.1104 12.4113 13.5229 26.2529
704 1 -1.1104 12.4329 19.1821 26.199
693 2 2.2208 8.21957 14.9594 22.274
568 2 2.2208 -0.0448009 -4.87858 22.1235
475 2 2.2208 8.19567 12.2452 13.6679
600 2 2.2208 8.36335 -4.74116 25.0528
721 2 2.2208 -0.318458 20.5297 19.3077
536 2 2.2208 11.2313 20.5417 13.5945
336 2 2.2208 11.0711 -1.8672 13.6806
537 2 2.2208 11.0704 14.8485 13.5409
448 2 2.2208 2.70915 12.155 13.7408
538 2 2.2208 8.3905 17.9164 13.7897
656 2 2.2208 11.1627 12.039 27.6461
378 2 2.2208 2.64682 0.914913 13.5778
407 2 2.2208 -0.135407 20.5875 13.7855
601 2 2.2208 14.0974 -1.8214 27.8975
654 2 2.2208 10.9652 6.4094 27.7364
409 2 2.2208 -0.08937 14.9737 13.7773
509 2 2.2208 2.78076 17.876 13.888
510 2 2.2208 5.4471 20.6969 13.6423
574 2 2.2208 10.9517 17.8667 27.743
410 2 2.2208 8.37601 1.04035 13.6435
596 2 2.2208 8.18879 3.64975 27.876
723 2 2.2208 5.51097 23.4106 5.16394
724 2 2.2208 5.49505 29.1009 5.10883
725 1 -1.1104 1.20711 24.7052 1.26719
726 1 -1.1104 1.26247 24.803 4.10574
727 1 -1.1104 1.20937 21.9679 1.26288
728 1 -1.1104 1.04336 27.5866 0.990554
729 2 2.2208 5.40975 26.2892 2.61091
730 1 -1.1104 1.19262 21.9295 3.98979
731 1 -1.1104 1.32193 27.5017 3.89827
732 1 -1.1104 4.02355 24.9262 0.970614
733 2 2.2208 2.74318 23.3027 2.61357
734 2 2.2208 2.6123 28.9496 2.36829
735 1 -1.1104 4.02851 24.7626 3.88813
736 2 2.2208 2.7397 26.0303 5.32246
737 1 -1.1104 4.0966 22.0342 1.13904
738 1 -1.1104 4.00563 27.4538 1.12859
739 1 -1.1104 4.03233 21.9755 4.04351
740 1 -1.1104 4.15432 27.5932 3.90977
870 1 -1.1104 4.30228 24.6987 6.75681
864 1 -1.1104 1.2394 24.8452 6.78832
742 2 2.2208 -0.341793 23.4565 5.25009
872 1 -1.1104 4.10266 27.6559 6.88522
867 1 -1.1104 1.21121 27.5601 6.68988
741 2 2.2208 -0.161572 28.9457 5.10902
743 2 2.2208 -0.0828668 26.2103 2.58446
1052 2 2.2208 -0.114523 31.9713 7.8686
865 1 -1.1104 6.84627 24.7705 6.7075
745 1 -1.1104 6.95018 24.6847 3.74794
744 1 -1.1104 6.7955 24.8644 0.866963
749 1 -1.1104 7.08906 27.6904 3.95826
746 1 -1.1104 6.77863 21.9741 1.04615
868 1 -1.1104 6.91391 22.085 6.71828
747 1 -1.1104 6.87416 27.6481 0.927791
748 1 -1.1104 7.08504 21.9408 3.85928
750 2 2.2208 11.0391 23.3979 5.19262
751 2 2.2208 11.0903 29.0189 5.37102
752 1 -1.1104 12.591 24.7686 1.05
753 1 -1.1104 12.5395 24.9516 3.77655
754 1 -1.1104 12.3605 22.0402 1.07519
755 1 -1.1104 12.3988 27.4528 0.933204
756 2 2.2208 11.0538 26.2543 2.52595
757 1 -1.1104 12.749 22.1859 3.8965
758 1 -1.1104 12.7627 27.7233 3.89304
759 1 -1.1104 9.5536 24.8154 0.99576
760 2 2.2208 8.25238 23.4456 2.38026
761 2 2.2208 8.34717 29.3362 2.29005
762 1 -1.1104 9.77084 24.8889 3.77613
763 2 2.2208 8.39029 26.1921 5.29955
764 1 -1.1104 9.65138 22.0615 1.02551
765 1 -1.1104 9.5856 27.7232 1.04817
766 1 -1.1104 9.9795 22.0325 3.84259
767 1 -1.1104 9.80824 27.8445 3.85282
899 1 -1.1104 12.5427 27.6552 6.81588
900 1 -1.1104 9.67102 24.69 6.62994
869 1 -1.1104 6.95009 27.3888 6.80274
898 1 -1.1104 12.5667 22.0105 6.68943
1304 2 2.2208 11.2001 29.1154 -0.373562
1268 2 2.2208 5.35457 23.4017 -0.387187
1649 1 -1.1104 6.72419 47.3025 9.27945
771 2 2.2208 5.40187 34.6637 5.28806
772 1 -1.1104 1.15163 30.3787 0.80396
773 1 -1.1104 1.22585 35.8424 1.16356
775 1 -1.1104 1.14215 30.4859 3.64009
776 1 -1.1104 1.24283 36.1021 3.88275
778 1 -1.1104 1.27205 33.1287 1.07862
779 2 2.2208 5.3133 31.8766 2.4446
780 2 2.2208 5.35905 37.5763 2.29453
781 1 -1.1104 1.17626 33.3674 3.81323
783 1 -1.1104 4.00751 30.1698 1.11746
784 1 -1.1104 4.17068 36.1009 1.01461
785 2 2.2208 2.76823 34.7029 2.35411
786 1 -1.1104 3.9057 30.5819 3.80102
787 1 -1.1104 4.07605 36.1675 3.68482
788 2 2.2208 2.5183 32.1321 5.08758
789 2 2.2208 2.61441 37.5106 5.0293
790 1 -1.1104 3.92403 33.2364 0.827625
791 1 -1.1104 4.05057 33.3121 3.72214
797 1 -1.1104 6.69815 33.3632 1.01517
795 1 -1.1104 6.7734 30.4452 1.07751
928 1 -1.1104 3.87958 36.0354 6.36454
929 1 -1.1104 3.95385 33.2563 6.6535
794 2 2.2208 -0.254865 34.6239 5.23534
1012 2 2.2208 -0.273714 43.1917 8.08431
922 1 -1.1104 1.22983 36.0967 6.6084
793 2 2.2208 -0.0757945 31.8268 2.22702
774 1 -1.1104 6.92325 36.0858 1.01551
782 1 -1.1104 6.90413 33.2593 3.91309
796 1 -1.1104 6.88861 30.5348 3.88313
777 1 -1.1104 6.68036 35.9441 3.77656
798 2 2.2208 11.1058 34.6613 5.21238
799 1 -1.1104 12.5559 30.4635 1.08745
800 1 -1.1104 12.5375 36.2079 0.773779
801 1 -1.1104 12.4693 30.4432 3.72405
802 1 -1.1104 12.4006 36.0565 3.75448
803 1 -1.1104 12.3686 33.2816 0.921451
804 2 2.2208 11.2109 31.9785 2.38225
805 2 2.2208 11.0289 37.3539 2.34433
806 1 -1.1104 12.5528 33.3293 3.87156
807 1 -1.1104 9.6809 30.4908 0.924316
808 1 -1.1104 9.67455 35.9157 1.08701