ITEM: TIMESTEP
10000
ITEM: NUMBER OF ATOMS
17910
ITEM: BOX BOUNDS pp pp pp
-4.0105580167491639e-01 2.7741055801674751e+01
-4.7837584879202133e+00 3.3286375848791704e+02
-3.9698043365313473e-01 2.7736980433653372e+01
ITEM: ATOMS id type q x y z
1 2 2.2208 5.08312 0.881495 5.07416
2 1 -1.1104 0.891306 -3.39185 0.874345
3 1 -1.1104 1.04873 2.21894 0.772497
6 1 -1.1104 0.940338 -3.28988 3.62272
7 1 -1.1104 1.06725 2.3899 3.71951
10 1 -1.1104 0.929489 -0.619134 0.891188
12 2 2.2208 5.06297 -1.88619 2.12682
13 2 2.2208 5.07088 3.75787 2.18975
14 1 -1.1104 1.04047 -0.466596 3.68478
16 1 -1.1104 3.71852 -3.34489 0.757791
17 1 -1.1104 3.84244 2.30934 0.855197
18 2 2.2208 2.35619 0.882518 2.23503
19 1 -1.1104 3.8124 -3.18899 3.53548
20 1 -1.1104 3.85407 2.42157 3.75568
21 2 2.2208 2.30343 -2.04181 5.11504
22 2 2.2208 2.38692 3.55916 5.12633
23 1 -1.1104 3.66966 -0.416158 0.693573
24 1 -1.1104 3.63311 -0.370383 3.44676
11 1 -1.1104 6.58518 -0.55276 0.735191
9 1 -1.1104 6.43169 2.15439 3.55438
4 1 -1.1104 6.48113 -3.27145 0.669786
318 1 -1.1104 9.27264 19.1079 9.51742
5 1 -1.1104 6.50245 2.38274 0.739985
8 1 -1.1104 6.59913 -3.29531 3.46274
15 1 -1.1104 6.50126 -0.625602 3.73191
169 1 -1.1104 6.58286 2.27449 6.5551
564 2 2.2208 5.2017 0.941879 -0.605223
167 1 -1.1104 0.95421 2.40267 6.40445
174 1 -1.1104 3.59188 -0.48394 6.34941
171 1 -1.1104 6.58892 -0.54771 6.51379
173 1 -1.1104 3.58816 2.30925 6.63857
26 2 2.2208 13.5256 17.6154 8.00959
319 1 -1.1104 9.13954 13.4638 9.43948
9479 2 2.2208 13.3757 3.69333 4.96667
31 2 2.2208 10.6389 0.923807 4.88782
32 1 -1.1104 12.1337 -3.41767 0.830793
33 1 -1.1104 12.1065 2.28888 0.876732
34 1 -1.1104 12.1889 -3.18744 3.63437
35 1 -1.1104 12.1392 2.21542 3.55705
36 1 -1.1104 12.041 -0.769617 0.757036
37 2 2.2208 10.6794 -1.88102 2.11617
38 2 2.2208 10.6814 3.68131 2.25595
39 1 -1.1104 12.1551 -0.506689 3.677
40 1 -1.1104 9.37027 -3.52576 0.692069
41 1 -1.1104 9.27686 2.2325 0.764478
42 2 2.2208 7.87998 0.842632 2.15892
43 1 -1.1104 9.2715 -3.20908 3.51547
44 1 -1.1104 9.32396 2.40092 3.64786
45 2 2.2208 7.91367 -1.93196 4.99925
46 2 2.2208 7.77638 3.64999 5.07607
47 1 -1.1104 9.18783 -0.586677 0.739953
48 1 -1.1104 9.44993 -0.427769 3.50475
210 1 -1.1104 9.25249 -0.402228 6.29332
49 2 2.2208 13.4958 0.984806 2.25859
50 2 2.2208 13.5397 -2.00454 5.058
52 2 2.2208 10.7129 -4.62692 5.05709
208 1 -1.1104 9.26068 -3.14402 6.37781
209 1 -1.1104 9.34165 2.3838 6.34525
207 1 -1.1104 11.9061 -0.316405 6.49412
328 2 2.2208 13.6216 14.9858 5.20118
296 1 -1.1104 6.34242 19.1625 12.2548
317 2 2.2208 7.83129 14.8112 10.8158
54 2 2.2208 5.11272 6.60689 5.14922
55 2 2.2208 5.0874 12.1582 5.26001
56 1 -1.1104 0.774482 7.95433 0.951405
58 1 -1.1104 0.779309 8.16864 3.63876
60 1 -1.1104 0.773232 5.11931 0.940681
61 1 -1.1104 0.56073 10.8416 0.77975
66 2 2.2208 5.03677 9.27187 2.525
67 1 -1.1104 0.844437 5.37379 3.77768
68 1 -1.1104 0.759023 10.9102 3.52515
71 1 -1.1104 3.5844 7.9616 0.95106
72 2 2.2208 2.18063 6.61563 2.38069
73 2 2.2208 2.18493 12.258 2.44766
74 1 -1.1104 3.62742 8.04922 3.98993
75 2 2.2208 2.26489 9.5087 5.12593
76 1 -1.1104 3.48084 5.15626 1.02037
77 1 -1.1104 3.71557 10.6388 1.05062
79 1 -1.1104 3.66945 5.33772 3.80324
80 1 -1.1104 3.69997 10.8792 3.76946
63 1 -1.1104 6.45473 5.1731 1.01558
70 1 -1.1104 6.45996 10.5449 3.8754
57 1 -1.1104 6.48647 7.89938 0.992224
69 1 -1.1104 6.42485 5.1451 3.79119
64 1 -1.1104 6.39986 10.9777 1.00492
235 1 -1.1104 6.26889 7.79514 6.75491
59 1 -1.1104 6.5034 7.8814 3.84492
62 1 -1.1104 0.702144 10.8052 6.48199
78 1 -1.1104 3.62774 10.6758 6.63716
236 1 -1.1104 0.795767 5.30038 6.49865
234 1 -1.1104 0.874754 7.98196 6.544
332 2 2.2208 2.18239 -4.88504 13.4814
232 2 2.2208 10.575 -4.57892 10.7266
84 2 2.2208 10.5535 6.64928 5.24766
85 2 2.2208 10.5502 12.3385 5.11805
86 1 -1.1104 11.7448 7.74092 1.03236
87 1 -1.1104 12.0366 8.0534 3.73861
88 1 -1.1104 12.0355 5.00263 0.590598
89 1 -1.1104 12.0274 10.7868 0.990222
91 2 2.2208 10.5454 9.41636 2.40858
92 1 -1.1104 12.0787 5.20602 3.51313
93 1 -1.1104 11.9454 11.0577 3.7113
94 1 -1.1104 9.12086 7.93662 1.0616
95 2 2.2208 7.78348 6.47322 2.30197
96 2 2.2208 7.95334 12.0849 2.36666
97 1 -1.1104 9.13237 7.99123 3.87428
98 2 2.2208 7.8455 9.41942 5.16886
99 1 -1.1104 9.3026 4.97796 0.835375
100 1 -1.1104 9.12592 10.7993 0.885443
102 1 -1.1104 9.30887 5.19269 3.60122
103 1 -1.1104 9.22371 10.8157 3.88991
269 1 -1.1104 9.25713 5.16985 6.40224
266 1 -1.1104 11.8469 5.06446 6.29969
90 1 -1.1104 12.0086 10.4245 6.56002
265 1 -1.1104 11.934 7.79596 6.59808
101 1 -1.1104 9.3695 11.0127 6.79903
105 2 2.2208 13.4621 6.50901 2.25917
334 2 2.2208 7.80214 -4.74538 13.5331
316 2 2.2208 7.70972 20.619 10.7688
203 2 2.2208 4.91858 -4.70762 10.6205
106 2 2.2208 4.93344 17.8703 5.22493
107 1 -1.1104 1.09206 13.6696 0.97584
109 1 -1.1104 0.711345 19.0578 1.25339
113 1 -1.1104 0.65914 13.6432 3.99419
114 1 -1.1104 0.58495 19.1688 4.05376
116 1 -1.1104 0.754341 16.2528 0.876485
119 2 2.2208 5.16588 14.9769 2.5361
120 2 2.2208 4.89449 20.6824 2.38519
121 1 -1.1104 0.864617 16.4307 3.87418
123 1 -1.1104 3.61666 13.5882 1.10849
125 1 -1.1104 3.55253 19.1561 1.066
127 2 2.2208 2.1218 17.7045 2.27751
128 1 -1.1104 3.73343 13.5326 3.78342
129 1 -1.1104 3.43982 19.4616 3.65461
130 2 2.2208 2.1228 15.0347 5.35485
131 2 2.2208 2.05452 20.4253 5.27113
132 1 -1.1104 3.43918 16.3317 1.1259
134 1 -1.1104 3.56286 16.5678 3.98262
138 1 -1.1104 6.37987 19.3934 1.09139
133 1 -1.1104 3.61694 16.1806 6.97915
122 1 -1.1104 6.18843 16.4832 3.9971
139 1 -1.1104 6.28516 19.1847 3.72857
140 1 -1.1104 6.38697 16.4116 1.08086
110 1 -1.1104 6.45009 13.6417 0.887468
124 1 -1.1104 3.5156 13.4313 6.54065
108 1 -1.1104 0.781291 13.5925 6.61618
302 1 -1.1104 0.667237 19.1264 6.70839
117 1 -1.1104 0.891232 16.3547 6.63766
126 1 -1.1104 3.48722 19.1094 6.63777
112 1 -1.1104 6.20803 19.4033 6.43771
335 2 2.2208 13.4296 -4.88709 13.4885
231 2 2.2208 7.8398 -4.70969 7.77875
327 2 2.2208 13.3756 20.6065 5.07943
145 1 -1.1104 11.9961 19.1441 6.6658
202 2 2.2208 2.27214 -4.73856 7.84587
165 2 2.2208 13.6672 17.8372 2.26925
115 1 -1.1104 6.47463 13.5243 3.90941
141 2 2.2208 10.6082 17.8305 5.17655
142 1 -1.1104 12.1502 13.7771 1.11329
144 1 -1.1104 12.1648 19.3215 0.944344
146 1 -1.1104 11.9368 13.5993 3.74728
147 1 -1.1104 11.9797 19.2694 3.8565
148 1 -1.1104 12.2005 16.4831 1.02062
150 2 2.2208 10.7654 15.2015 2.4713
151 2 2.2208 10.7838 20.7472 2.33001
152 1 -1.1104 12.1417 16.4141 3.85255
153 1 -1.1104 9.34659 13.6582 1.03413
155 1 -1.1104 9.20831 19.0482 0.919618
157 2 2.2208 7.70234 17.7023 2.58206
158 1 -1.1104 9.29637 13.6373 3.76206
159 1 -1.1104 8.97802 19.2631 3.96997
160 2 2.2208 7.72697 14.9851 5.15251
161 2 2.2208 7.7102 20.7281 5.12173
162 1 -1.1104 9.09602 16.4056 1.06329
164 1 -1.1104 8.99602 16.3909 3.91241
154 1 -1.1104 9.15475 13.6368 6.74729
143 1 -1.1104 12.0616 13.4635 6.544
149 1 -1.1104 12.1045 16.3179 6.57318
53 2 2.2208 13.3637 -4.76401 2.20119
29 2 2.2208 5.20388 -4.69063 5.08722
172 1 -1.1104 3.62206 -3.18773 6.55391
322 1 -1.1104 9.29866 13.6101 12.2154
379 2 2.2208 5.01251 3.58403 13.5897
166 1 -1.1104 0.971609 -3.17157 6.57649
170 1 -1.1104 0.932416 -0.538181 6.50257
175 2 2.2208 5.11262 0.9506 10.6869
176 1 -1.1104 0.963861 -3.39242 12.0809
177 1 -1.1104 0.801387 2.36385 12.3594
180 1 -1.1104 0.883841 -3.16305 9.34055
181 1 -1.1104 0.982046 2.31853 9.27469
184 1 -1.1104 1.0255 -0.458291 12.0851
186 2 2.2208 4.98726 -1.81752 7.84139
187 2 2.2208 5.02899 3.74818 8.04703
188 1 -1.1104 0.747012 -0.50776 9.27498
190 1 -1.1104 3.67126 -3.26155 12.1124
191 1 -1.1104 3.58126 2.13089 12.1071
192 2 2.2208 2.15921 0.902932 7.96739
193 1 -1.1104 3.60824 -3.31228 9.32013
194 1 -1.1104 3.73559 2.32482 9.26505
195 2 2.2208 2.19778 -1.92239 10.8739
196 2 2.2208 2.25418 3.66502 10.758
197 1 -1.1104 3.8019 -0.633196 12.1187
198 1 -1.1104 3.60857 -0.42951 9.3048
185 1 -1.1104 6.53428 -0.460909 12.2813
183 1 -1.1104 6.52319 2.24281 9.23823
189 1 -1.1104 6.35955 -0.65211 9.44043
182 1 -1.1104 6.42521 -3.39353 9.07072
179 1 -1.1104 6.38821 2.53059 12.0196
333 2 2.2208 5.03544 -2.09723 13.521
9778 2 2.2208 13.4882 0.870212 7.84357
9779 2 2.2208 13.5074 -1.78862 10.7337
200 1 -1.1104 12.2119 13.7151 12.1473
168 1 -1.1104 6.5507 -3.29998 6.40422
206 1 -1.1104 12.2523 2.37517 6.5212
205 1 -1.1104 11.8959 -3.01491 6.44542
178 1 -1.1104 6.47012 -3.38129 12.0882
211 2 2.2208 10.6175 0.954942 10.8403
212 1 -1.1104 11.9216 -3.16473 12.0822
213 1 -1.1104 12.1428 2.26163 12.118
214 1 -1.1104 11.9372 -3.34684 9.28636
215 1 -1.1104 12.0909 2.21658 9.29183
216 1 -1.1104 12.1752 -0.491374 12.2366
217 2 2.2208 10.4733 -1.79316 7.76825
218 2 2.2208 10.7203 3.68255 7.76815
219 1 -1.1104 11.9884 -0.578564 9.42022
220 1 -1.1104 9.20883 -3.28806 12.1628
221 1 -1.1104 9.28005 2.27041 12.2691
222 2 2.2208 7.95657 0.91509 7.96766
223 1 -1.1104 9.11908 -3.1295 9.28569
224 1 -1.1104 9.27104 2.58252 9.3546
225 2 2.2208 7.89563 -1.8091 10.7779
226 2 2.2208 7.77972 3.75043 10.6558
227 1 -1.1104 9.28186 -0.417034 12.1152
228 1 -1.1104 9.13781 -0.312856 9.42534
336 2 2.2208 10.7162 -1.96878 13.6061
9614 2 2.2208 13.4363 3.70522 10.6849
321 1 -1.1104 9.20411 19.3094 12.4302
410 2 2.2208 7.92032 0.977139 13.5756
412 2 2.2208 10.781 3.68993 13.4719
51 2 2.2208 8.08988 -4.72579 2.21375
238 1 -1.1104 3.61773 7.96516 6.73945
239 1 -1.1104 3.67332 5.08345 6.64019
240 2 2.2208 4.95592 6.60536 10.8661
241 2 2.2208 4.82124 12.0902 10.8991
242 1 -1.1104 0.849134 7.8421 11.9896
244 1 -1.1104 0.633241 8.00478 9.15208
246 1 -1.1104 0.84587 5.12109 12.1619
247 1 -1.1104 0.562822 10.6538 12.32
250 2 2.2208 4.95202 9.25391 8.17286
251 1 -1.1104 0.676762 5.17106 9.37403
252 1 -1.1104 0.659218 10.9704 9.32159
255 1 -1.1104 3.56274 7.89331 12.2743
256 2 2.2208 2.33996 6.62061 7.98523
257 2 2.2208 2.17054 12.1172 7.95422
258 1 -1.1104 3.44169 7.89033 9.58115
259 2 2.2208 2.10396 9.37204 10.8731
260 1 -1.1104 3.71594 4.9907 12.2789
261 1 -1.1104 3.4285 10.5034 12.2505
262 1 -1.1104 3.41189 5.2633 9.46582
263 1 -1.1104 3.56297 10.7086 9.61678
249 1 -1.1104 6.35558 10.8512 12.2776
245 1 -1.1104 6.34459 7.84096 9.50452
253 1 -1.1104 6.45488 5.01656 9.25324
248 1 -1.1104 6.47358 5.47405 12.1688
237 1 -1.1104 6.41066 4.95501 6.57208
243 1 -1.1104 6.34869 8.19556 12.1705
254 1 -1.1104 6.35988 10.6372 9.54424
329 2 2.2208 13.3268 12.2528 8.06267
314 1 -1.1104 9.23843 16.2982 9.47087
65 1 -1.1104 6.60802 10.8221 6.70271
9690 2 2.2208 13.4484 6.57668 7.99615
712 2 2.2208 13.3645 6.46793 13.6796
267 1 -1.1104 9.0932 7.97375 6.70635
264 1 -1.1104 9.21069 10.8644 9.44223
268 1 -1.1104 9.21856 5.33825 9.41902
270 1 -1.1104 9.2158 10.9352 12.2388
271 1 -1.1104 9.27669 5.25779 12.2403
272 2 2.2208 7.71933 9.24439 10.6064
273 1 -1.1104 9.30477 8.0924 9.51354
274 2 2.2208 7.84101 12.0298 8.09861
275 2 2.2208 7.91126 6.50347 7.99321
276 2 2.2208 10.8684 6.57284 10.8668
277 2 2.2208 10.6352 12.0166 10.7493
278 1 -1.1104 12.1795 8.10368 12.2459
279 1 -1.1104 12.0897 7.8762 9.58512
280 1 -1.1104 12.2309 5.08138 12.1437
281 1 -1.1104 12.0255 10.8163 12.2197
282 2 2.2208 10.5879 9.40957 8.06303
283 1 -1.1104 12.0948 5.00649 9.12739
284 1 -1.1104 12.0263 10.6559 9.43775
285 1 -1.1104 9.26656 8.09375 12.2731
330 2 2.2208 13.6618 9.40708 10.7523
537 2 2.2208 10.7087 15.0848 13.6366
306 1 -1.1104 6.57255 16.3243 12.0644
111 1 -1.1104 6.25114 13.5713 6.69901
288 1 -1.1104 6.4826 19.2443 9.38893
290 1 -1.1104 6.39198 13.4872 9.40893
297 1 -1.1104 6.48059 13.546 12.1417
286 1 -1.1104 3.49812 19.0994 12.3837
287 1 -1.1104 3.63957 13.4318 12.2233
291 1 -1.1104 0.740258 19.1426 9.51714
292 1 -1.1104 0.782417 16.3434 9.50643
293 2 2.2208 4.90691 20.6049 8.04041
294 1 -1.1104 0.650992 13.6364 9.59801
295 2 2.2208 5.09187 15.0482 8.05229
298 1 -1.1104 0.648253 19.0932 12.3591
299 1 -1.1104 0.89864 13.3436 12.3566
300 2 2.2208 4.99698 17.8138 10.8621
301 1 -1.1104 3.43243 19.1819 9.5213
303 2 2.2208 2.17428 17.668 8.17489
304 1 -1.1104 3.71134 16.395 9.72134
305 1 -1.1104 3.60226 13.6248 9.43804
307 1 -1.1104 0.643884 16.1333 12.2164
308 1 -1.1104 3.53581 16.3676 12.3959
309 2 2.2208 2.04805 20.5388 10.9304
310 2 2.2208 2.20463 14.881 10.8927
289 1 -1.1104 6.31258 16.3877 9.37058
201 1 -1.1104 11.9243 19.1178 12.1982
378 2 2.2208 2.2823 0.750441 13.5155
104 2 2.2208 13.4354 12.1679 2.35579
9773 2 2.2208 13.3746 15.2003 10.7609
331 2 2.2208 13.3895 20.5628 10.9013
118 1 -1.1104 6.4015 16.4873 6.72966
315 1 -1.1104 9.21832 16.3777 12.282
156 1 -1.1104 9.22751 19.0957 6.69278
81 2 2.2208 10.5269 17.6808 10.9659
320 2 2.2208 7.81094 17.8196 7.91573
204 1 -1.1104 12.0522 13.5959 9.35727
163 1 -1.1104 9.25525 16.3262 6.63673
324 2 2.2208 10.6556 20.4613 8.13464
325 2 2.2208 10.6861 15.0113 7.90452
230 1 -1.1104 11.9853 16.4077 12.2247
323 1 -1.1104 11.9841 16.3541 9.39584
229 1 -1.1104 12.077 19.1353 9.34288
375 2 2.2208 13.3805 20.6101 -0.421193
473 2 2.2208 7.86647 6.71359 13.6163
575 2 2.2208 7.76422 20.6776 -0.400723
9815 2 2.2208 13.5645 0.794966 13.6319
474 2 2.2208 10.7 9.34514 13.7246
447 2 2.2208 4.83326 9.34873 13.7347
574 2 2.2208 10.6652 17.833 -0.44177
631 2 2.2208 4.95926 12.3316 -0.416679
716 2 2.2208 13.5485 12.1316 13.5612
536 2 2.2208 10.5343 20.777 13.7878
604 2 2.2208 13.417 3.65907 -0.609755
448 2 2.2208 2.18023 12.2866 13.9195
337 2 2.2208 5.11083 0.898337 16.3802
338 1 -1.1104 0.707815 -3.55947 17.7105
339 1 -1.1104 0.87862 2.42651 17.9402
342 1 -1.1104 0.620059 -3.21522 14.9487
344 1 -1.1104 0.751596 2.29251 15.3405
350 1 -1.1104 0.669277 -0.544635 17.643
352 2 2.2208 5.05761 -1.82921 19.1294
353 2 2.2208 4.90727 3.76511 19.2209
354 1 -1.1104 0.788449 -0.560262 14.8928
358 1 -1.1104 3.5809 -3.42567 17.5635
359 1 -1.1104 3.73231 2.3545 17.8233
360 2 2.2208 2.34254 0.900945 19.2395
361 1 -1.1104 3.46996 -3.38574 14.9398
363 1 -1.1104 3.68437 2.27651 14.9503
365 2 2.2208 2.12126 -1.87047 16.3393
366 2 2.2208 2.25525 3.67295 16.3716
367 1 -1.1104 3.71612 -0.470936 17.6972
368 1 -1.1104 3.66108 -0.689691 15.0408
348 1 -1.1104 6.43879 2.28811 14.9724
351 1 -1.1104 6.35985 -0.597656 17.7105
340 1 -1.1104 6.31688 -3.18657 17.7782
346 1 -1.1104 6.2295 -3.44875 14.9082
356 1 -1.1104 6.48256 -0.508545 14.8235
341 1 -1.1104 6.50522 2.08087 17.6423
598 2 2.2208 10.7082 -4.77719 27.4325
658 2 2.2208 13.4321 9.42177 27.5297
357 1 -1.1104 6.38125 -0.479403 20.6182
345 1 -1.1104 0.865209 2.43394 20.6198
355 1 -1.1104 0.876486 -0.451757 20.5268
369 1 -1.1104 3.71076 -0.63625 20.4232
349 1 -1.1104 6.46623 2.25774 20.5848
565 2 2.2208 2.32394 -1.91555 27.5805
380 2 2.2208 10.6202 0.842958 16.1861
381 1 -1.1104 11.9086 -3.39497 17.8503
382 1 -1.1104 12.0364 2.45406 17.6923
383 1 -1.1104 12.0473 -3.44614 14.9239
385 1 -1.1104 12.1365 2.27266 15.0205
387 1 -1.1104 11.9576 -0.385315 17.6857
388 2 2.2208 10.69 -1.80205 19.149
389 2 2.2208 10.7859 3.65294 19.0287
390 1 -1.1104 12.1747 -0.581293 14.8929
392 1 -1.1104 8.99396 -3.07794 17.6772
393 1 -1.1104 9.2319 2.42528 17.6588
394 2 2.2208 7.80744 0.861676 19.2336
395 1 -1.1104 9.12775 -3.46347 14.9129
397 1 -1.1104 9.39316 2.18022 14.7335
399 2 2.2208 7.75037 -1.84552 16.3364
400 2 2.2208 7.7984 3.71077 16.383
401 1 -1.1104 9.15848 -0.433508 17.6975
402 1 -1.1104 9.13458 -0.607182 14.863
403 1 -1.1104 9.32506 -0.375897 20.4303
386 1 -1.1104 12.1299 2.33196 20.732
398 1 -1.1104 9.50091 2.33791 20.5887
709 2 2.2208 13.4247 3.67835 16.2134
597 2 2.2208 13.5656 -4.77889 24.8404
573 2 2.2208 -0.629738 -1.92838 24.6525
684 2 2.2208 5.00794 17.8308 27.7917
347 1 -1.1104 6.50967 -3.27051 20.5777
396 1 -1.1104 9.35735 -3.2432 20.3214
384 1 -1.1104 12.1036 -3.41161 20.6561
9853 2 2.2208 13.4494 -2.16636 16.373
413 2 2.2208 5.10975 6.61039 16.3478
414 2 2.2208 5.06777 12.3815 16.4359
415 1 -1.1104 0.757226 8.09522 17.6626
417 1 -1.1104 0.826615 8.09039 15.0153
421 1 -1.1104 0.865654 5.19808 17.8584
422 1 -1.1104 0.863519 10.9116 17.7533
425 2 2.2208 5.00144 9.4694 19.3551
426 1 -1.1104 0.869218 5.09911 14.9556
428 1 -1.1104 0.887129 10.9642 15.1991
434 1 -1.1104 3.64069 8.03856 18.0182
435 2 2.2208 2.25077 6.59462 19.0864
436 2 2.2208 2.24142 12.0683 19.3345
437 1 -1.1104 3.67487 7.99089 15.2077
439 2 2.2208 2.25103 9.38772 16.5416
440 1 -1.1104 3.74653 5.15679 17.7458
441 1 -1.1104 3.69398 10.7337 18.056
442 1 -1.1104 3.56587 5.06215 15.0004
444 1 -1.1104 3.49404 10.844 15.1289
419 1 -1.1104 6.42695 8.05707 15.0059
416 1 -1.1104 6.36072 7.84126 17.8677
430 1 -1.1104 6.44285 5.12762 14.8908
445 1 -1.1104 3.60697 10.816 20.8072
443 1 -1.1104 3.66454 5.15066 20.4613
424 1 -1.1104 6.40039 10.8244 17.7911
423 1 -1.1104 6.34306 4.9479 17.7881
433 1 -1.1104 6.49402 10.9821 20.5341
420 1 -1.1104 6.51663 8.12911 20.673
371 2 2.2208 4.96851 -4.85104 16.2711
431 1 -1.1104 6.34271 5.09133 20.767
372 2 2.2208 2.23366 -4.74635 19.059
432 1 -1.1104 6.52883 10.7918 15.0672
714 2 2.2208 13.254 6.60931 19.2507
449 2 2.2208 10.6534 6.51772 16.3905
450 2 2.2208 10.7095 12.2846 16.4563
451 1 -1.1104 12.0527 7.99266 17.8536
452 1 -1.1104 12.0029 7.87879 15.1624
454 1 -1.1104 11.9519 5.22603 17.7746
455 1 -1.1104 12.1275 10.7049 17.9287
456 2 2.2208 10.5822 9.37659 19.2135
457 1 -1.1104 12.0295 5.06947 15.027
459 1 -1.1104 12.0768 10.909 15.0895
461 1 -1.1104 9.14726 7.91776 17.9525
462 2 2.2208 7.88761 6.49484 19.3379
463 2 2.2208 7.6868 12.2045 19.1881
464 1 -1.1104 9.22207 8.17026 15.1029
466 2 2.2208 7.8172 9.52222 16.4186
467 1 -1.1104 9.15982 5.11832 18.0741
468 1 -1.1104 9.24479 10.9617 17.7495
469 1 -1.1104 9.25902 5.18603 15.0014
471 1 -1.1104 9.32572 10.9315 15.0958
470 1 -1.1104 9.21673 5.19776 20.6724
472 1 -1.1104 9.12378 10.8731 20.7262
453 1 -1.1104 11.7472 8.1431 20.6048
465 1 -1.1104 9.23533 7.98864 20.6455
713 2 2.2208 13.4826 9.30296 16.4273
458 1 -1.1104 12.0268 5.11175 20.4929
460 1 -1.1104 12.1231 10.8536 20.5118
715 2 2.2208 13.5241 12.134 19.1541
654 2 2.2208 10.5007 6.55374 27.7311
496 1 -1.1104 6.31418 16.7144 20.7053
476 2 2.2208 4.86069 17.8301 16.4587
477 1 -1.1104 0.81034 13.6378 18.03
478 1 -1.1104 0.585843 19.3765 18.0611
481 1 -1.1104 0.697473 13.7036 15.1737
483 1 -1.1104 0.831307 19.2414 15.253
489 1 -1.1104 0.626601 16.4314 17.954
491 2 2.2208 4.86376 14.9783 19.279
492 2 2.2208 4.93553 20.8197 19.3284
493 1 -1.1104 0.722491 16.5 15.0621
497 1 -1.1104 3.4038 13.5527 17.7504
498 1 -1.1104 3.50743 19.2154 17.8151
499 2 2.2208 2.03139 17.6707 19.2926
500 1 -1.1104 3.69056 13.6377 15.0278
502 1 -1.1104 3.51845 19.3165 14.9954
504 2 2.2208 2.12654 15.1191 16.439
505 2 2.2208 2.17967 20.6904 16.5675
506 1 -1.1104 3.53853 16.4409 17.9464
507 1 -1.1104 3.50892 16.4622 15.1197
508 1 -1.1104 3.6153 16.4196 20.6915
495 1 -1.1104 6.29481 16.323 15.1279
479 1 -1.1104 6.29503 13.8178 17.7773
488 1 -1.1104 6.35965 19.3752 20.5019
480 1 -1.1104 6.24535 19.3236 17.7928
485 1 -1.1104 6.58813 13.6722 15.0009
503 1 -1.1104 3.42717 19.1366 20.7917
719 2 2.2208 13.425 17.8277 19.2262
486 1 -1.1104 6.34206 13.6948 20.5759
490 1 -1.1104 6.37064 16.5795 17.8138
487 1 -1.1104 6.35767 19.0041 14.9438
518 1 -1.1104 12.0329 19.1808 20.7876
512 2 2.2208 10.5788 17.9886 16.6822
513 1 -1.1104 12.2637 13.669 17.9478
514 1 -1.1104 12.0782 19.2952 17.8635
515 1 -1.1104 12.1373 13.6188 15.0113
517 1 -1.1104 12.104 19.3587 15.0248
519 1 -1.1104 12.0259 16.5917 17.787
520 2 2.2208 10.6864 15.0391 19.3325
521 2 2.2208 10.4628 20.6937 19.3054
522 1 -1.1104 12.0398 16.5708 15.061
524 1 -1.1104 9.36764 13.7848 17.8384
525 1 -1.1104 9.30267 19.1702 18.0084
526 2 2.2208 7.69711 17.8646 19.1141
527 1 -1.1104 9.23246 13.4996 15.0091
529 1 -1.1104 9.22454 19.3212 15.244
531 2 2.2208 7.98342 15.0088 16.4844
532 2 2.2208 7.64414 20.5949 16.3909
533 1 -1.1104 9.12534 16.32 17.9939
534 1 -1.1104 9.18282 16.6536 15.2517
535 1 -1.1104 9.16089 16.5245 20.8782
516 1 -1.1104 11.9333 13.7306 20.8554
530 1 -1.1104 9.16079 19.3827 20.6402
720 2 2.2208 13.3164 20.7013 16.2919
718 2 2.2208 13.4894 15.09 16.3959
405 2 2.2208 10.5438 -4.87007 16.2415
362 1 -1.1104 3.71133 -3.39691 20.539
364 1 -1.1104 3.54198 2.25594 20.6646
343 1 -1.1104 0.974106 -3.33014 20.4599
540 2 2.2208 5.09151 0.872582 21.9698
541 1 -1.1104 0.89049 -3.12768 23.3626
542 1 -1.1104 0.927471 2.3921 23.3282
545 1 -1.1104 0.88527 -3.3965 26.0732
546 1 -1.1104 0.877328 2.32686 26.2031
549 1 -1.1104 0.945894 -0.322167 23.3022
551 2 2.2208 5.19378 -1.88693 24.6984
552 2 2.2208 4.93837 3.77122 24.9088
553 1 -1.1104 0.916927 -0.635346 26.1641
555 1 -1.1104 3.67361 -3.24106 23.2376
556 1 -1.1104 3.72483 2.40422 23.5671
557 2 2.2208 2.25132 0.902653 24.7653
558 1 -1.1104 3.66133 -3.35864 26.0366
559 1 -1.1104 3.67234 2.41728 26.243
560 2 2.2208 2.28316 -1.88008 21.9316
562 1 -1.1104 3.66037 -0.476855 23.179
563 1 -1.1104 3.74879 -0.642133 25.9514
561 2 2.2208 2.35505 3.78421 22.1007
543 1 -1.1104 6.53758 -3.10199 23.4497
554 1 -1.1104 6.71402 -0.382853 26.255
548 1 -1.1104 6.41695 2.38625 26.1066
544 1 -1.1104 6.56118 2.37433 23.2413
547 1 -1.1104 6.55354 -3.45053 26.0768
550 1 -1.1104 6.56591 -0.301552 23.4969
510 2 2.2208 4.96922 20.6205 13.6752
594 2 2.2208 10.758 0.816435 27.5568
391 1 -1.1104 12.0033 -0.422627 20.397
377 2 2.2208 13.3615 3.69954 22.141
657 2 2.2208 13.4598 12.2544 24.725
603 2 2.2208 13.4766 0.79811 24.6866
576 2 2.2208 10.7731 0.897539 21.9514
577 1 -1.1104 12.1091 -3.26923 23.3328
578 1 -1.1104 12.0597 2.36606 23.4323
579 1 -1.1104 12.1195 -3.40025 26.0953
580 1 -1.1104 11.9444 2.20931 26.2174
581 1 -1.1104 11.9659 -0.482643 23.3874
582 2 2.2208 10.7991 -1.96076 24.759
584 1 -1.1104 12.099 -0.562678 26.1254
585 1 -1.1104 9.36858 -3.34026 23.2041
586 1 -1.1104 9.39338 2.32463 23.3593
587 2 2.2208 8.08868 0.969951 24.8054
588 1 -1.1104 9.22907 -3.39154 26.1018
589 1 -1.1104 9.08931 2.56144 26.0169
590 2 2.2208 7.8475 -1.87982 21.9577
592 1 -1.1104 9.33323 -0.506886 23.339
593 1 -1.1104 9.54281 -0.313305 26.1111
583 2 2.2208 10.6865 3.84129 24.795
591 2 2.2208 7.87843 3.71454 21.9346
602 2 2.2208 13.4988 -1.87723 21.9812
600 2 2.2208 7.88548 -4.8184 24.6411
596 2 2.2208 7.77562 3.71403 27.5316
601 2 2.2208 13.6737 -1.91146 27.4972
427 1 -1.1104 0.910981 5.32963 20.6052
438 1 -1.1104 3.65729 7.94485 20.8442
429 1 -1.1104 0.653419 10.6369 20.6596
418 1 -1.1104 0.68109 8.00237 20.3689
605 2 2.2208 5.12957 6.55889 22.155
606 2 2.2208 4.88579 12.2928 22.0611
607 1 -1.1104 0.900437 7.87517 23.4606
609 1 -1.1104 0.755933 8.05336 26.1615
611 1 -1.1104 0.714909 5.06264 23.4831
612 1 -1.1104 0.80015 10.7165 23.4455
615 2 2.2208 4.9538 9.43166 24.9243
616 1 -1.1104 0.936462 5.20399 26.3579
617 1 -1.1104 0.504453 10.8781 26.2157
620 1 -1.1104 3.70435 8.03709 23.4126
621 2 2.2208 2.19092 6.59583 24.836
622 2 2.2208 2.05282 12.146 24.9054
623 1 -1.1104 3.53115 7.92128 26.2474
624 2 2.2208 2.17516 9.38596 21.9583
625 1 -1.1104 3.56097 5.27942 23.3861
626 1 -1.1104 3.52798 10.8684 23.6877
627 1 -1.1104 3.61322 5.2154 26.2473
628 1 -1.1104 3.40883 10.878 26.3837
614 1 -1.1104 6.4394 11.0373 23.4106
608 1 -1.1104 6.50784 8.11838 23.4984
610 1 -1.1104 6.32295 7.87638 26.3234
619 1 -1.1104 6.395 10.5498 26.2179
613 1 -1.1104 6.2104 5.12185 23.556
629 2 2.2208 4.8744 6.57974 27.6272
569 2 2.2208 5.08168 -4.77766 27.4295
710 2 2.2208 13.495 0.957196 19.0858
376 2 2.2208 13.4432 9.28648 21.9881
618 1 -1.1104 6.29516 5.04379 26.4547
659 2 2.2208 13.5318 6.76305 24.8854
636 1 -1.1104 9.30389 10.8945 26.2759
637 1 -1.1104 9.04334 5.37474 26.3415
638 1 -1.1104 9.28687 10.9405 23.5806
639 1 -1.1104 9.08029 5.32133 23.6122
640 2 2.2208 7.77448 9.63717 22.1131
641 1 -1.1104 9.25653 8.05684 26.2895
642 2 2.2208 7.84367 12.28 24.801
643 2 2.2208 7.68702 6.64173 24.9755
644 2 2.2208 10.5608 6.63495 22.092
645 2 2.2208 10.6491 12.2257 21.9562
646 1 -1.1104 12.119 8.02506 23.4003
647 1 -1.1104 12.0767 8.00987 26.1699
648 1 -1.1104 11.952 5.21776 23.5013
649 1 -1.1104 12.0891 10.7941 23.3644
650 2 2.2208 10.5292 9.4445 24.9315
651 1 -1.1104 12.0641 5.16379 26.0891
652 1 -1.1104 12.0162 10.9302 26.1745
653 1 -1.1104 9.2522 8.20865 23.3839
630 2 2.2208 2.13607 9.4623 27.8361
509 2 2.2208 2.10871 17.7924 13.6488
408 2 2.2208 7.8695 15.0126 27.8156
655 2 2.2208 7.84516 9.33883 27.6447
484 1 -1.1104 0.426134 19.2318 20.7463
678 1 -1.1104 6.36208 16.5363 23.6257
404 2 2.2208 13.2995 20.5416 22.0615
670 1 -1.1104 6.36205 13.8806 23.4306
667 1 -1.1104 6.29906 19.13 23.5608
663 1 -1.1104 6.36749 16.4422 26.4947
566 2 2.2208 2.15285 3.74333 27.6453
482 1 -1.1104 0.73357 13.4719 21.0589
661 1 -1.1104 6.47047 13.7035 26.1747
494 1 -1.1104 0.734883 16.3747 20.5818
501 1 -1.1104 3.43257 13.6212 20.6448
665 1 -1.1104 0.708331 16.5324 26.4215
682 2 2.2208 1.99271 15.0436 22.1773
664 1 -1.1104 0.903341 19.2737 26.4755
681 2 2.2208 2.06824 20.6327 22.021
673 2 2.2208 4.99055 17.9129 21.9846
680 1 -1.1104 3.38492 16.4932 23.5206
672 1 -1.1104 0.559976 13.4827 23.5778
671 1 -1.1104 0.787294 19.0057 23.5191
669 2 2.2208 4.88776 15.1079 25.0045
668 2 2.2208 4.9763 20.6261 24.8652
679 1 -1.1104 0.507471 16.3191 23.5396
677 1 -1.1104 3.54331 13.7101 26.261
676 1 -1.1104 3.65177 16.4237 26.324
675 2 2.2208 2.27006 17.8933 24.9002
666 1 -1.1104 0.793887 13.6718 26.2889
674 1 -1.1104 3.61235 19.198 26.4471
660 1 -1.1104 3.49035 19.2475 23.3744
662 1 -1.1104 3.35304 13.6836 23.5282
695 1 -1.1104 9.29338 13.6192 26.3474
708 2 2.2208 10.5102 17.8368 22.0513
373 2 2.2208 13.4423 17.8415 24.8522
698 1 -1.1104 8.98232 19.1253 23.4387
696 1 -1.1104 6.34422 19.1748 26.3574
707 1 -1.1104 12.1124 13.6009 23.4626
528 1 -1.1104 8.90083 13.5246 20.5627
523 1 -1.1104 11.8896 16.5693 20.6612
692 2 2.2208 7.69586 20.6698 22.09
690 1 -1.1104 9.30388 16.3073 26.4717
705 1 -1.1104 12.1535 13.7705 26.4166
700 1 -1.1104 12.0549 16.4055 26.2326
703 1 -1.1104 11.9717 16.4564 23.5003
694 1 -1.1104 9.22817 19.1886 26.4084
704 1 -1.1104 11.9717 19.0715 26.4148
706 1 -1.1104 11.9521 19.2977 23.6231
702 2 2.2208 10.6011 15.0449 24.8742
693 2 2.2208 7.7498 15.0966 22.1148
701 2 2.2208 10.4839 20.4303 24.96
697 2 2.2208 7.7344 17.8028 24.96
691 1 -1.1104 9.01183 16.403 23.7259
699 1 -1.1104 9.26247 13.602 23.3591
370 2 2.2208 13.4334 15.011 22.091
475 2 2.2208 7.86627 12.1453 13.6565
539 2 2.2208 13.4058 17.8802 13.7162
685 2 2.2208 2.20835 14.9853 27.7385
446 2 2.2208 2.20296 6.5459 13.4982
538 2 2.2208 7.74155 17.6584 13.5435
595 2 2.2208 7.85069 -1.91439 27.3965
511 2 2.2208 5.14749 14.9465 13.5308
656 2 2.2208 10.6911 12.3078 27.7098
374 2 2.2208 13.5324 15.0971 27.7038
683 2 2.2208 2.14102 20.7706 27.701
723 2 2.2208 4.87893 23.3944 5.20573
724 2 2.2208 4.80348 28.8748 5.24653
725 1 -1.1104 0.684772 24.8673 1.05783
726 1 -1.1104 0.794203 24.6947 3.91504
727 1 -1.1104 0.868923 22.0063 0.872214
728 1 -1.1104 0.652407 27.6683 0.836841
729 2 2.2208 4.96436 26.1812 2.32493
730 1 -1.1104 0.56604 21.9469 3.73376
731 1 -1.1104 0.816971 27.6155 3.57497
732 1 -1.1104 3.5387 24.998 0.921265
733 2 2.2208 2.12689 23.4907 2.32116
734 2 2.2208 2.32578 28.9436 2.29021
735 1 -1.1104 3.68126 24.6755 3.6697
736 2 2.2208 2.24497 26.1495 5.1894
737 1 -1.1104 3.40097 22.0687 0.92642
738 1 -1.1104 3.54098 27.5883 0.997275
739 1 -1.1104 3.29168 22.1211 3.82998
740 1 -1.1104 3.72827 27.4456 3.96701
872 1 -1.1104 3.3664 27.6366 6.61713
746 1 -1.1104 6.32049 22.0434 0.859788
747 1 -1.1104 6.44132 27.5448 0.947347
862 2 2.2208 13.6745 46.0821 2.43799
749 1 -1.1104 6.4161 27.6361 3.67799
748 1 -1.1104 6.47012 22.1138 3.80607
869 1 -1.1104 6.23567 27.7101 6.48981
866 1 -1.1104 0.730434 22.048 6.68493
865 1 -1.1104 6.15082 24.8561 6.82167
1392 2 2.2208 5.15193 45.7476 -0.242608
1268 2 2.2208 4.84457 23.4439 -0.33661
744 1 -1.1104 6.4318 24.7497 1.09211
745 1 -1.1104 6.59361 24.7554 3.79961
750 2 2.2208 10.5023 23.3201 5.31763
751 2 2.2208 10.6078 28.9302 5.35954
752 1 -1.1104 11.9186 25.0971 1.00112
753 1 -1.1104 11.9523 24.756 3.77905
754 1 -1.1104 11.9646 22.1622 0.77667
755 1 -1.1104 11.9447 27.6451 1.25702
756 2 2.2208 10.6074 26.1734 2.48732
757 1 -1.1104 12.0539 22.1168 3.68179
758 1 -1.1104 11.9863 27.4321 4.00921
759 1 -1.1104 9.28944 24.7141 1.07416
760 2 2.2208 7.8749 23.462 2.38522
761 2 2.2208 7.85054 28.8995 2.52749
762 1 -1.1104 9.23232 24.7723 3.95079
763 2 2.2208 7.75958 26.1523 5.19366
764 1 -1.1104 9.04556 21.8558 1.07283
765 1 -1.1104 9.21705 27.6597 1.1235
766 1 -1.1104 9.29712 22.0828 3.7101
767 1 -1.1104 9.28 27.5706 3.93604
898 1 -1.1104 11.8545 22.0212 6.74724
901 1 -1.1104 9.11063 21.8311 6.64642
863 2 2.2208 13.5823 40.2236 2.47449
897 1 -1.1104 12.0198 24.9882 6.79829
1692 1 -1.1104 9.54605 47.2971 9.42437
771 2 2.2208 5.18419 34.6697 5.41312
772 1 -1.1104 0.97897 30.4165 1.0906
773 1 -1.1104 0.626262 35.984 0.91198
775 1 -1.1104 0.916461 30.333 3.79232
776 1 -1.1104 0.746877 35.7999 3.74061
778 1 -1.1104 0.68245 33.1097 1.08736
779 2 2.2208 5.03312 31.612 2.69361
780 2 2.2208 5.01017 37.3947 2.56461
781 1 -1.1104 0.916922 33.1276 3.98561
783 1 -1.1104 3.57884 30.4672 1.05634
784 1 -1.1104 3.62978 36.1915 1.22652
785 2 2.2208 2.20355 34.564 2.66762
786 1 -1.1104 3.51978 30.319 3.91553
787 1 -1.1104 3.43088 35.9953 4.16096
788 2 2.2208 2.29264 31.8069 5.41351
789 2 2.2208 2.27884 37.5162 5.18992
790 1 -1.1104 3.72269 33.1064 1.23119
791 1 -1.1104 3.7064 33.0991 4.06353
795 1 -1.1104 6.32107 30.2213 1.17801
796 1 -1.1104 6.44917 30.2068 4.10138
774 1 -1.1104 6.43348 35.8941 1.08995
769 2 2.2208 13.3 29.0104 2.64499
1055 2 2.2208 13.5611 45.9565 7.98286
1054 2 2.2208 13.6233 40.2175 8.10449
927 1 -1.1104 3.49337 30.2526 6.56696
1116 2 2.2208 10.5528 26.1279 13.6736
1354 2 2.2208 13.5083 37.5883 -0.19713
797 1 -1.1104 6.54257 33.053 1.15672
782 1 -1.1104 6.44166 32.9713 3.95625
926 1 -1.1104 6.25824 33.2608 6.97163
777 1 -1.1104 6.24042 35.926 3.80537
798 2 2.2208 10.6727 34.76 5.22807
799 1 -1.1104 11.8699 30.4714 1.05216
800 1 -1.1104 12.0645 36.1217 1.22077
801 1 -1.1104 12.0381 30.4134 3.8461
802 1 -1.1104 11.9184 36.0475 3.99019
803 1 -1.1104 12.0934 33.5638 1.07103
804 2 2.2208 10.7034 32.0017 2.45867
805 2 2.2208 10.582 37.4959 2.40072
806 1 -1.1104 12.0984 33.3434 3.89614
807 1 -1.1104 9.1335 30.5889 1.24373
808 1 -1.1104 9.27752 36.1204 1.13285