ITEM: TIMESTEP
60000
ITEM: NUMBER OF ATOMS
17910
ITEM: BOX BOUNDS pp pp pp
-3.9816743739010935e-01 2.7738167437390324e+01
-4.9496605347047575e+00 3.3302966053469538e+02
-3.8628864766310272e-01 2.7726288647663036e+01
ITEM: ATOMS id type q x y z
1 2 2.2208 5.42161 0.790043 5.23055
2 1 -1.1104 1.15009 -3.40275 1.06837
3 1 -1.1104 1.04513 2.12873 1.1801
6 1 -1.1104 1.40722 -3.47147 3.81441
7 1 -1.1104 1.11843 2.01849 4.13723
10 1 -1.1104 1.13745 -0.6238 1.20975
12 2 2.2208 5.38417 -2.05979 2.4814
13 2 2.2208 5.34768 3.46033 2.50682
14 1 -1.1104 1.12702 -0.72368 4.02158
16 1 -1.1104 3.8939 -3.50077 1.07875
17 1 -1.1104 3.99642 2.18008 1.05156
18 2 2.2208 2.4456 0.704499 2.52992
19 1 -1.1104 4.14863 -3.26663 4.06144
20 1 -1.1104 4.13017 2.16817 3.81151
21 2 2.2208 2.60215 -1.99429 5.30204
22 2 2.2208 2.64878 3.47057 5.40885
23 1 -1.1104 3.87635 -0.620406 1.09856
24 1 -1.1104 3.96546 -0.559893 3.91208
25 2 2.2208 -0.265673 -2.05352 2.56922
9772 2 2.2208 -0.264821 0.801118 5.40759
27 2 2.2208 -0.365716 3.49503 2.45708
9690 2 2.2208 13.7081 6.19852 8.03777
173 1 -1.1104 4.12977 2.13873 6.68573
166 1 -1.1104 1.29641 -3.20247 6.46627
51 2 2.2208 8.24281 -4.93007 2.4531
569 2 2.2208 5.48722 -4.88119 -0.264593
82 2 2.2208 -0.33535 9.01123 2.56321
15 1 -1.1104 6.94043 -0.700787 3.67321
11 1 -1.1104 6.62849 -0.789048 1.0219
4 1 -1.1104 6.74621 -3.33545 1.21955
5 1 -1.1104 6.54771 2.09158 1.19203
8 1 -1.1104 6.72819 -3.55138 3.70556
9 1 -1.1104 7.04503 1.98653 3.96269
31 2 2.2208 11.165 0.685788 5.12001
32 1 -1.1104 12.3644 -3.5413 1.06847
33 1 -1.1104 12.2316 2.08533 1.1714
34 1 -1.1104 12.5428 -3.6683 4.02186
35 1 -1.1104 12.4384 2.10698 3.80835
36 1 -1.1104 12.2306 -0.785882 0.882065
37 2 2.2208 11.0186 -2.06865 2.40208
38 2 2.2208 10.9808 3.44817 2.54507
39 1 -1.1104 12.4386 -0.738713 3.63719
40 1 -1.1104 9.50904 -3.36983 1.24502
41 1 -1.1104 9.52684 2.13538 1.11069
42 2 2.2208 8.2643 0.688633 2.4469
43 1 -1.1104 9.61611 -3.70277 3.92387
44 1 -1.1104 9.68257 2.01854 3.84087
45 2 2.2208 8.20062 -2.14509 5.15394
47 1 -1.1104 9.52061 -0.859286 1.01466
48 1 -1.1104 9.73899 -0.87679 3.84738
46 2 2.2208 8.14527 3.61471 5.36586
206 1 -1.1104 12.3592 1.99156 6.67024
210 1 -1.1104 9.66282 -0.733709 6.44113
207 1 -1.1104 12.4786 -0.916058 6.44046
168 1 -1.1104 6.74756 -3.4529 6.59892
30 2 2.2208 -0.27878 -4.88743 5.30211
9774 2 2.2208 -0.212838 6.26628 5.32354
654 2 2.2208 11.0169 6.278 -0.239204
54 2 2.2208 5.36407 6.32366 5.22256
55 2 2.2208 5.67196 11.9952 5.32804
56 1 -1.1104 1.04352 7.83581 1.21213
58 1 -1.1104 1.11561 7.45559 3.96211
60 1 -1.1104 1.02615 4.91006 0.948246
61 1 -1.1104 1.13868 10.5705 1.15406
66 2 2.2208 5.31105 8.93942 2.42407
67 1 -1.1104 1.08141 4.70535 3.78722
68 1 -1.1104 1.20517 10.4109 3.85935
71 1 -1.1104 3.89753 7.71395 0.969263
72 2 2.2208 2.32827 6.30758 2.46582
73 2 2.2208 2.57753 11.8237 2.56645
74 1 -1.1104 3.77244 7.39707 3.96645
75 2 2.2208 2.67933 9.1657 5.29073
76 1 -1.1104 3.89108 4.88904 1.15961
77 1 -1.1104 3.91503 10.5498 1.15426
79 1 -1.1104 4.02062 4.81582 3.98493
80 1 -1.1104 3.92048 10.2351 3.71441
29 2 2.2208 5.4807 -4.8904 5.25841
83 2 2.2208 -0.196291 11.9387 5.19604
238 1 -1.1104 3.90272 7.84051 6.97445
239 1 -1.1104 4.18535 5.06034 6.85055
78 1 -1.1104 3.99794 10.6902 6.56945
202 2 2.2208 2.76863 -4.84187 8.11579
63 1 -1.1104 6.84322 5.01561 0.977535
69 1 -1.1104 6.79121 4.83737 3.92312
64 1 -1.1104 6.57452 10.4373 0.933307
59 1 -1.1104 6.74346 7.83178 3.72315
70 1 -1.1104 6.81473 10.4774 3.98813
57 1 -1.1104 6.77498 7.57178 0.907166
84 2 2.2208 11.1433 6.45115 5.22059
85 2 2.2208 11.0328 12.0584 5.2748
86 1 -1.1104 12.3106 7.65955 1.13638
87 1 -1.1104 12.2794 7.91458 3.91979
88 1 -1.1104 12.2605 4.97122 1.32199
89 1 -1.1104 12.3728 10.5892 1.1395
91 2 2.2208 11.0308 9.20682 2.47832
92 1 -1.1104 12.3941 5.0995 3.97831
93 1 -1.1104 12.4151 10.5621 3.71011
94 1 -1.1104 9.55599 7.71122 1.10535
95 2 2.2208 8.09789 6.30074 2.59067
96 2 2.2208 8.12964 11.7314 2.46668
97 1 -1.1104 9.52901 7.99081 3.83234
98 2 2.2208 8.23748 9.03658 5.44083
99 1 -1.1104 9.44509 5.00715 1.32982
100 1 -1.1104 9.56186 10.5931 1.00979
102 1 -1.1104 9.66994 5.01204 3.82046
103 1 -1.1104 9.59984 10.554 3.86148
266 1 -1.1104 12.4176 5.0687 6.65172
311 2 2.2208 -0.334216 20.4129 8.17039
203 2 2.2208 5.45025 -4.74299 11.0257
65 1 -1.1104 6.6718 10.6165 6.95881
596 2 2.2208 8.23064 3.55105 -0.278454
231 2 2.2208 8.20097 -4.85526 8.13451
106 2 2.2208 5.4395 17.5571 5.49725
107 1 -1.1104 1.34179 13.3493 1.37911
109 1 -1.1104 1.2438 18.8514 1.01027
113 1 -1.1104 1.24407 13.3489 4.06535
114 1 -1.1104 1.08322 19.034 3.75318
116 1 -1.1104 1.28485 16.037 1.25808
119 2 2.2208 5.47969 14.8067 2.47529
120 2 2.2208 5.39002 20.2173 2.55019
121 1 -1.1104 1.27573 16.2398 3.91621
123 1 -1.1104 4.02274 13.34 1.19025
125 1 -1.1104 4.10724 19.0081 1.06769
127 2 2.2208 2.66208 17.4685 2.40986
128 1 -1.1104 4.1688 13.2477 3.95198
129 1 -1.1104 3.917 18.8109 4.07736
130 2 2.2208 2.67172 14.6844 5.33008
131 2 2.2208 2.47419 20.3378 5.3686
132 1 -1.1104 3.9786 16.3095 1.00955
134 1 -1.1104 3.98771 15.9499 3.78802
137 2 2.2208 -0.300424 17.689 5.12958
232 2 2.2208 11.0727 -4.79217 10.8351
126 1 -1.1104 4.03042 19.0291 6.81405
140 1 -1.1104 6.78236 16.193 1.01812
124 1 -1.1104 4.25814 13.3617 6.76875
133 1 -1.1104 4.13536 16.1665 6.72194
315 1 -1.1104 9.60202 16.2434 12.2609
112 1 -1.1104 6.90456 18.9643 6.72208
149 1 -1.1104 12.3543 16.0106 6.6302
138 1 -1.1104 6.76559 19.0275 0.911298
110 1 -1.1104 6.78065 13.3602 1.10028
122 1 -1.1104 6.7609 16.0812 4.03668
115 1 -1.1104 7.01335 13.4259 3.85893
139 1 -1.1104 6.61266 18.9254 3.9851
141 2 2.2208 11.0571 17.5026 5.53069
142 1 -1.1104 12.4254 13.3991 0.932282
144 1 -1.1104 12.3216 18.7542 1.32131
146 1 -1.1104 12.5282 13.278 3.79322
147 1 -1.1104 12.338 18.8222 4.13538
148 1 -1.1104 12.303 16.1824 1.30241
150 2 2.2208 10.9123 14.878 2.54358
151 2 2.2208 11.046 20.2673 2.5519
152 1 -1.1104 12.4408 16.0735 4.00045
153 1 -1.1104 9.51016 13.3718 1.20996
155 1 -1.1104 9.54936 18.9211 1.06925
157 2 2.2208 8.14463 17.4292 2.55082
158 1 -1.1104 9.69219 13.4124 3.95222
159 1 -1.1104 9.42418 18.8876 3.86352
160 2 2.2208 8.19149 14.8118 5.30488
161 2 2.2208 8.23809 20.3821 5.27367
162 1 -1.1104 9.52558 16.0781 1.16428
164 1 -1.1104 9.48896 16.1379 4.06157
156 1 -1.1104 9.62395 19.12 6.65708
154 1 -1.1104 9.74349 13.3061 6.63953
118 1 -1.1104 6.92541 16.0844 6.68579
163 1 -1.1104 9.70171 16.1398 6.86676
145 1 -1.1104 12.3483 18.9998 6.8523
199 2 2.2208 -0.222284 3.63349 8.13093
170 1 -1.1104 1.07194 -0.634272 6.75206
167 1 -1.1104 1.16931 2.18711 6.84376
631 2 2.2208 5.25183 11.8045 -0.399027
327 2 2.2208 13.636 20.3563 5.34245
320 2 2.2208 8.32244 17.5468 8.3062
143 1 -1.1104 12.4386 13.3011 6.61996
9775 2 2.2208 -0.139071 -1.92056 7.95424
172 1 -1.1104 4.09472 -3.45878 6.73376
174 1 -1.1104 3.74626 -0.503315 6.68431
175 2 2.2208 5.39108 0.697784 10.8783
176 1 -1.1104 1.15452 -3.59421 12.1205
177 1 -1.1104 1.20774 2.20447 12.2921
180 1 -1.1104 1.24983 -3.23727 9.29483
181 1 -1.1104 1.21421 2.15973 9.52522
184 1 -1.1104 1.27895 -0.601113 12.3262
186 2 2.2208 5.37625 -2.06285 7.97232
187 2 2.2208 5.43853 3.49618 8.03253
188 1 -1.1104 1.06375 -0.600984 9.61167
190 1 -1.1104 4.01671 -3.22136 12.6027
191 1 -1.1104 3.93109 2.12179 12.2858
192 2 2.2208 2.47471 0.752018 8.21658
193 1 -1.1104 4.02206 -3.34576 9.68928
194 1 -1.1104 4.09183 2.0781 9.56937
195 2 2.2208 2.51193 -2.02835 11.054
197 1 -1.1104 4.09051 -0.577272 12.329
198 1 -1.1104 3.83949 -0.718179 9.3274
196 2 2.2208 2.62361 3.5604 10.7603
9776 2 2.2208 -0.262535 0.81354 10.9189
317 2 2.2208 8.2996 14.8053 10.9929
290 1 -1.1104 6.93115 13.3437 9.60253
136 2 2.2208 -0.124726 20.4232 2.31502
209 1 -1.1104 9.67582 2.11115 6.53797
81 2 2.2208 11.1363 17.4994 10.9479
208 1 -1.1104 9.57157 -3.5014 6.65606
289 1 -1.1104 6.64125 16.0818 9.46429
205 1 -1.1104 12.3656 -3.6587 6.65233
169 1 -1.1104 7.02917 2.16243 6.64081
171 1 -1.1104 6.72805 -0.778416 6.50426
189 1 -1.1104 6.76453 -0.701701 9.38681
179 1 -1.1104 6.73618 2.12134 12.3572
183 1 -1.1104 6.80201 2.20073 9.58747
178 1 -1.1104 6.95597 -3.28683 12.2488
182 1 -1.1104 6.84181 -3.54173 9.5408
185 1 -1.1104 7.03465 -0.605504 12.3055
211 2 2.2208 10.8158 0.726698 10.8932
212 1 -1.1104 12.5996 -3.42282 12.1117
213 1 -1.1104 12.3502 2.10975 12.3472
214 1 -1.1104 12.4767 -3.54036 9.36885
215 1 -1.1104 12.4609 2.09615 9.46732
216 1 -1.1104 12.6133 -0.460773 12.2044
217 2 2.2208 11.0429 -2.10979 7.87524
219 1 -1.1104 12.3815 -0.538063 9.53418
220 1 -1.1104 9.71601 -3.41523 12.2365
221 1 -1.1104 9.60264 2.10226 12.2566
222 2 2.2208 8.27649 0.639645 7.91886
223 1 -1.1104 9.69492 -3.53631 9.54798
224 1 -1.1104 9.5387 2.00653 9.30061
225 2 2.2208 8.25752 -2.07903 10.9088
226 2 2.2208 8.08721 3.40891 10.9699
227 1 -1.1104 9.72127 -0.573017 12.2773
228 1 -1.1104 9.61146 -1.02929 9.25612
218 2 2.2208 10.9174 3.46906 8.12965
306 1 -1.1104 6.63337 16.2142 12.4777
229 1 -1.1104 12.4267 18.9664 9.51702
9709 2 2.2208 -0.258778 6.57559 10.8542
296 1 -1.1104 6.90053 18.9644 12.1314
236 1 -1.1104 1.38355 4.95595 6.66155
9701 2 2.2208 -0.162456 11.9618 10.8965
566 2 2.2208 2.60742 3.61183 -0.27631
234 1 -1.1104 1.13935 7.72306 6.65092
62 1 -1.1104 1.09278 10.6575 6.74578
240 2 2.2208 5.42229 6.42628 10.9488
241 2 2.2208 5.52447 12.0444 11.016
242 1 -1.1104 1.07415 7.84119 12.2362
244 1 -1.1104 1.07456 7.81113 9.42978
246 1 -1.1104 1.04415 5.04633 12.3312
247 1 -1.1104 1.36825 10.7283 12.372
250 2 2.2208 5.51464 9.11162 8.21632
251 1 -1.1104 1.22278 4.92857 9.48624
252 1 -1.1104 1.30231 10.5396 9.51492
255 1 -1.1104 4.02705 7.69389 12.3888
256 2 2.2208 2.54446 6.46865 8.08814
257 2 2.2208 2.71362 11.9923 8.1317
258 1 -1.1104 3.94537 7.79698 9.74035
259 2 2.2208 2.58372 9.1729 10.9744
260 1 -1.1104 3.8249 4.92878 12.4328
261 1 -1.1104 4.09744 10.6345 12.1647
262 1 -1.1104 4.07909 5.02241 9.56711
263 1 -1.1104 3.98644 10.5683 9.35541
237 1 -1.1104 6.70866 5.05457 6.66074
269 1 -1.1104 9.54265 5.06942 6.80885
253 1 -1.1104 6.7056 4.75995 9.65004
90 1 -1.1104 12.4996 10.4875 6.67493
235 1 -1.1104 6.6823 7.80157 6.6609
265 1 -1.1104 12.574 7.73699 6.70018
101 1 -1.1104 9.46453 10.4759 6.75955
267 1 -1.1104 9.73002 7.65861 6.67603
254 1 -1.1104 7.09698 10.4542 9.72952
243 1 -1.1104 6.89601 7.69355 12.3125
248 1 -1.1104 6.69972 4.95899 12.4009
249 1 -1.1104 6.76278 10.618 12.3084
245 1 -1.1104 6.89536 7.56688 9.36965
264 1 -1.1104 9.67577 10.462 9.41719
268 1 -1.1104 9.52329 4.78929 9.4793
270 1 -1.1104 9.74222 10.5659 12.2926
271 1 -1.1104 9.33521 4.99931 12.3642
272 2 2.2208 8.38295 9.01723 10.9061
273 1 -1.1104 9.77303 7.61747 9.48339
274 2 2.2208 8.32054 11.8102 8.20174
275 2 2.2208 8.16287 6.1521 8.099
276 2 2.2208 10.9372 6.25022 10.9494
277 2 2.2208 11.0009 11.9438 10.8934
278 1 -1.1104 12.4544 7.64393 12.2522
279 1 -1.1104 12.3885 7.53954 9.57206
280 1 -1.1104 12.2151 4.8589 12.2833
281 1 -1.1104 12.3987 10.5281 12.2824
282 2 2.2208 11.0849 9.00912 8.11946
283 1 -1.1104 12.3615 4.62978 9.49157
284 1 -1.1104 12.415 10.5364 9.55
285 1 -1.1104 9.59796 7.80831 12.3691
312 2 2.2208 -0.215065 17.662 10.9643
319 1 -1.1104 9.6082 13.45 9.5737
302 1 -1.1104 1.07863 18.9529 6.66316
117 1 -1.1104 1.19483 16.0606 6.78753
9708 2 2.2208 -0.198049 9.13831 8.0127
108 1 -1.1104 1.17747 13.2308 6.83577
286 1 -1.1104 4.21212 18.9367 12.461
287 1 -1.1104 3.85625 13.5455 12.4805
291 1 -1.1104 1.18832 19.0532 9.4511
292 1 -1.1104 1.21007 16.418 9.80161
293 2 2.2208 5.41036 20.3738 8.2347
294 1 -1.1104 1.18209 13.4692 9.58548
295 2 2.2208 5.6164 14.7218 8.06342
298 1 -1.1104 1.09833 18.9469 12.227
299 1 -1.1104 1.16238 13.3916 12.3802
300 2 2.2208 5.34342 17.5768 10.9176
301 1 -1.1104 4.09833 19.0306 9.77119
303 2 2.2208 2.62541 17.5764 8.09222
304 1 -1.1104 3.87142 16.1092 9.39111
305 1 -1.1104 4.01102 13.2503 9.59766
307 1 -1.1104 1.07002 16.1154 12.4014
308 1 -1.1104 3.90117 16.1816 12.1811
309 2 2.2208 2.51447 20.4529 10.8423
310 2 2.2208 2.47655 14.819 11.0422
135 2 2.2208 -0.286051 14.7755 2.54468
313 2 2.2208 -0.208427 14.7224 8.15673
201 1 -1.1104 12.5416 18.8155 12.4365
321 1 -1.1104 9.64703 19.097 12.2379
595 2 2.2208 8.09139 -2.16139 -0.243005
324 2 2.2208 10.9455 20.5877 8.12644
325 2 2.2208 11.084 14.6111 8.06354
200 1 -1.1104 12.5158 13.1483 12.3244
230 1 -1.1104 12.3417 15.9397 12.2445
297 1 -1.1104 6.92075 13.3763 12.3405
111 1 -1.1104 7.07499 13.2926 6.76807
288 1 -1.1104 6.77633 18.9012 9.39434
204 1 -1.1104 12.4867 13.3456 9.42062
318 1 -1.1104 9.69701 19.1046 9.57602
323 1 -1.1104 12.4261 16.0908 9.41093
314 1 -1.1104 9.68661 16.1192 9.5838
322 1 -1.1104 9.6452 13.2112 12.2951
316 2 2.2208 8.19797 20.4709 10.963
684 2 2.2208 5.49752 17.6815 -0.371912
408 2 2.2208 8.07577 14.6808 -0.28974
711 2 2.2208 -0.223639 3.76754 13.5621
683 2 2.2208 2.77367 20.2569 -0.31887
685 2 2.2208 2.74606 14.7533 -0.184322
656 2 2.2208 10.9617 11.9927 -0.276061
564 2 2.2208 5.38568 0.820426 -0.261082
336 2 2.2208 11.041 -2.1441 13.6101
567 2 2.2208 -0.267422 -4.84598 -0.43054
572 2 2.2208 -0.198039 0.645527 -0.216722
28 2 2.2208 2.54928 -4.91052 2.40703
574 2 2.2208 10.8554 17.4047 -0.24151
407 2 2.2208 -0.334429 20.3701 13.6582
632 2 2.2208 -0.3198 11.9666 -0.182587
412 2 2.2208 10.8972 3.53261 13.6941
598 2 2.2208 11.1336 -4.89234 -0.312954
9930 2 2.2208 -0.218782 9.37127 13.6455
655 2 2.2208 8.18038 9.03026 -0.363241
538 2 2.2208 8.14856 17.6118 13.717
629 2 2.2208 5.38618 6.32223 -0.255715
511 2 2.2208 5.35483 14.6952 13.6353
334 2 2.2208 8.16713 -4.87813 13.5864
565 2 2.2208 2.55157 -2.02703 -0.257423
687 2 2.2208 -0.311795 17.5029 -0.193645
536 2 2.2208 10.9146 20.5698 13.645
630 2 2.2208 2.51776 9.27144 -0.23684
333 2 2.2208 5.4373 -1.93723 13.6063
337 2 2.2208 5.56276 0.694752 16.4742
338 1 -1.1104 1.09402 -3.61872 17.5724
339 1 -1.1104 1.19904 1.94066 17.87
342 1 -1.1104 1.21759 -3.51559 14.9156
344 1 -1.1104 1.10191 2.25597 15.0551
350 1 -1.1104 1.07473 -0.949041 17.8103
352 2 2.2208 5.45499 -2.04161 19.2677
354 1 -1.1104 1.18826 -0.6485 15.1374
358 1 -1.1104 3.87368 -3.56048 17.7637
359 1 -1.1104 3.81914 2.31008 18.1397
360 2 2.2208 2.67392 0.772731 19.303
361 1 -1.1104 4.08071 -3.42416 15.1558
363 1 -1.1104 3.90765 2.06895 15.2544
365 2 2.2208 2.61217 -2.03633 16.4763
366 2 2.2208 2.42206 3.42914 16.6163
367 1 -1.1104 3.93849 -0.563677 17.9308
368 1 -1.1104 3.93366 -0.532338 15.1832
353 2 2.2208 5.43606 3.68469 19.4124
10137 2 2.2208 -0.126121 0.816721 16.3951
537 2 2.2208 11.0213 14.7286 13.7159
10138 2 2.2208 -0.24769 -2.09602 19.0734
345 1 -1.1104 1.19681 2.17203 20.5729
362 1 -1.1104 4.11223 -3.34946 20.5861
351 1 -1.1104 6.83575 -0.642455 18.0196
475 2 2.2208 8.29248 12.0597 13.802
405 2 2.2208 11.0202 -4.87509 16.639
364 1 -1.1104 4.16851 2.30559 20.8129
717 2 2.2208 -0.276243 11.8634 16.5029
9854 2 2.2208 -0.282771 3.57822 19.4518
371 2 2.2208 5.45419 -4.92683 16.5384
372 2 2.2208 2.57522 -4.97174 19.2279
356 1 -1.1104 6.89831 -0.823374 15.2448
340 1 -1.1104 6.78694 -3.49199 17.8123
348 1 -1.1104 6.79515 2.30922 15.0126
341 1 -1.1104 6.71056 2.194 17.7752
346 1 -1.1104 6.86672 -3.70251 15.0334
380 2 2.2208 10.9997 0.778726 16.324
381 1 -1.1104 12.2146 -3.26021 17.6109
382 1 -1.1104 12.5461 1.94678 17.646
383 1 -1.1104 12.4269 -3.45159 14.873
385 1 -1.1104 12.2962 2.2864 15.0189
387 1 -1.1104 12.3979 -0.647485 17.5824
388 2 2.2208 10.9447 -2.00524 19.3084
389 2 2.2208 10.961 3.54566 19.2607
390 1 -1.1104 12.4661 -0.718986 14.9492
392 1 -1.1104 9.56902 -3.58185 18.0138
393 1 -1.1104 9.55137 1.99033 17.798
394 2 2.2208 8.2592 0.74152 19.29
395 1 -1.1104 9.64501 -3.62818 15.2092
397 1 -1.1104 9.60621 2.06757 15.1012
399 2 2.2208 8.41849 -2.15131 16.4814
401 1 -1.1104 9.60724 -0.780027 17.8396
402 1 -1.1104 9.71661 -0.568156 15.0481
400 2 2.2208 8.22195 3.6143 16.4791
398 1 -1.1104 9.57305 2.20109 20.6388
384 1 -1.1104 12.5159 -3.48865 20.4549
357 1 -1.1104 6.84742 -0.675223 20.8074
347 1 -1.1104 6.75427 -3.50994 20.8492
396 1 -1.1104 9.52449 -3.31355 20.7363
510 2 2.2208 5.48578 20.4231 13.8553
349 1 -1.1104 6.85859 2.25606 20.6442
9926 2 2.2208 -0.244359 9.09326 19.4055
413 2 2.2208 5.38674 6.39225 16.5745
414 2 2.2208 5.24459 11.9486 16.6125
415 1 -1.1104 1.21025 7.65534 17.7335
417 1 -1.1104 1.39134 7.96801 14.9832
421 1 -1.1104 1.21758 4.95067 17.878
422 1 -1.1104 1.20238 10.3508 17.661
425 2 2.2208 5.3125 9.13308 19.3963
426 1 -1.1104 1.1645 4.88109 15.1683
428 1 -1.1104 1.13221 10.8335 14.9931
434 1 -1.1104 4.05132 7.71077 17.9049
435 2 2.2208 2.45056 6.3348 19.3823
436 2 2.2208 2.55551 11.7308 19.4092
437 1 -1.1104 4.08661 7.68156 15.1027
439 2 2.2208 2.72404 9.01835 16.4271
440 1 -1.1104 4.00348 4.98862 18.0808
441 1 -1.1104 3.87703 10.4915 17.9363
442 1 -1.1104 3.9341 4.92208 15.3456
444 1 -1.1104 3.81337 10.6165 15.1472
9927 2 2.2208 -0.201219 6.39404 16.4395
722 2 2.2208 -0.275595 14.5543 19.4338
689 2 2.2208 -0.340524 17.5027 22.0697
599 2 2.2208 10.7811 -4.85209 22.0637
438 1 -1.1104 3.79803 7.83613 20.7283
427 1 -1.1104 0.893885 4.97838 20.7636
445 1 -1.1104 3.80578 10.5592 20.6924
570 2 2.2208 5.42704 -4.94166 22.0992
419 1 -1.1104 6.66599 7.94856 15.0246
423 1 -1.1104 6.75822 5.0259 17.9326
432 1 -1.1104 6.71314 10.6062 15.2578
424 1 -1.1104 6.54893 10.66 18.1223
416 1 -1.1104 6.9108 7.77763 18.0204
430 1 -1.1104 6.86657 5.14558 15.1705
449 2 2.2208 11.0976 6.22684 16.4261
450 2 2.2208 10.9437 12.0343 16.5213
451 1 -1.1104 12.4601 7.751 17.8216
452 1 -1.1104 12.5071 7.72418 15.1132
454 1 -1.1104 12.481 4.88772 17.8557
455 1 -1.1104 12.3224 10.5174 17.8886
456 2 2.2208 11.0833 9.07549 19.3857
457 1 -1.1104 12.5664 4.89355 15.1169
459 1 -1.1104 12.3983 10.5158 15.1847
461 1 -1.1104 9.74193 7.63762 17.9026
462 2 2.2208 8.0674 6.40852 19.4389
463 2 2.2208 8.14641 11.9451 19.3638
464 1 -1.1104 9.7722 7.66896 15.2102
466 2 2.2208 8.30095 9.20872 16.4932
467 1 -1.1104 9.57184 4.9024 17.9011
468 1 -1.1104 9.66988 10.4143 18.0426
469 1 -1.1104 9.74269 4.87193 15.1103
471 1 -1.1104 9.60606 10.5254 15.196
453 1 -1.1104 12.3911 7.71483 20.7951
420 1 -1.1104 6.72799 7.62472 20.9677
470 1 -1.1104 9.39365 4.84614 20.6393
460 1 -1.1104 12.3599 10.5679 20.6508
465 1 -1.1104 9.66608 7.79158 20.6909
568 2 2.2208 -0.203436 -4.75394 22.0165
518 1 -1.1104 12.3574 18.9249 20.7695
600 2 2.2208 8.33021 -4.76915 25.186
699 1 -1.1104 9.7309 13.4729 23.4676
476 2 2.2208 5.35002 17.5384 16.5923
477 1 -1.1104 0.957931 13.0537 18.3141
478 1 -1.1104 1.0812 18.8709 17.7817
481 1 -1.1104 1.01551 13.5732 15.3901
483 1 -1.1104 0.97888 18.9574 15.0877
489 1 -1.1104 1.16002 15.8546 18.0491
491 2 2.2208 5.32722 14.6947 19.5277
492 2 2.2208 5.41613 20.1837 19.4066
493 1 -1.1104 1.08241 16.3969 15.1539
497 1 -1.1104 3.90725 13.2655 18.0087
498 1 -1.1104 3.85037 18.813 18.0855
499 2 2.2208 2.49651 17.3973 19.3253
500 1 -1.1104 3.94856 13.4359 15.1158
502 1 -1.1104 3.92474 19.032 15.303
504 2 2.2208 2.58201 14.7797 16.4486
505 2 2.2208 2.52018 20.3388 16.5333
506 1 -1.1104 4.01655 16.0978 17.8811
507 1 -1.1104 4.04483 16.2007 15.1689
503 1 -1.1104 3.85275 18.8788 20.81
480 1 -1.1104 6.78783 19.0883 17.9792
482 1 -1.1104 1.39879 12.9595 21.0103
406 2 2.2208 8.119 -4.84324 19.3205
501 1 -1.1104 3.96239 13.2063 20.821
508 1 -1.1104 3.99406 16.0667 20.7483
495 1 -1.1104 6.82224 16.1227 15.2053
479 1 -1.1104 6.65841 13.3119 18.0089
690 1 -1.1104 9.56582 15.9971 26.4232
487 1 -1.1104 6.71748 18.8767 15.2
490 1 -1.1104 6.85629 16.3678 18.0741
485 1 -1.1104 6.60551 13.2832 15.1937
512 2 2.2208 10.9105 17.5466 16.4852
513 1 -1.1104 12.1505 13.3056 18.0952
514 1 -1.1104 12.4289 18.9532 17.9008
515 1 -1.1104 12.5625 13.2786 15.4828
517 1 -1.1104 12.4837 18.9259 15.1056
519 1 -1.1104 12.3576 16.273 17.8966
520 2 2.2208 10.9552 14.9052 19.3462
521 2 2.2208 11.0749 20.3538 19.2671
522 1 -1.1104 12.3669 16.1564 15.2322
524 1 -1.1104 9.34663 13.2644 17.7477
525 1 -1.1104 9.73395 18.9548 18.0477
526 2 2.2208 8.2415 17.6282 19.3501
527 1 -1.1104 9.53777 13.4261 15.1142
529 1 -1.1104 9.50903 18.941 15.109
531 2 2.2208 8.08618 14.7561 16.5905
532 2 2.2208 8.15961 20.3501 16.5944
533 1 -1.1104 9.57857 16.1458 17.8042
534 1 -1.1104 9.74998 16.103 14.9518
486 1 -1.1104 6.67319 13.2672 20.8765
516 1 -1.1104 12.3313 13.3666 20.8916
9784 2 2.2208 -0.10915 -2.02703 13.845
571 2 2.2208 2.67132 -4.67423 24.9903
369 1 -1.1104 3.98912 -0.475901 20.6533
343 1 -1.1104 1.27665 -3.35476 20.5252
355 1 -1.1104 1.31964 -0.654615 20.5653
540 2 2.2208 5.43513 0.854102 22.0282
541 1 -1.1104 1.20887 -3.54941 23.5077
542 1 -1.1104 1.14365 2.06373 23.4676
545 1 -1.1104 1.18486 -3.56724 26.4756
546 1 -1.1104 1.23434 2.37156 26.3742
549 1 -1.1104 1.15351 -0.511086 23.5213
551 2 2.2208 5.40963 -2.07532 24.9028
552 2 2.2208 5.28384 3.57727 25.0562
553 1 -1.1104 1.17318 -0.914434 26.4145
555 1 -1.1104 4.18665 -3.37077 23.4285
556 1 -1.1104 3.91456 2.27076 23.4721
557 2 2.2208 2.68314 0.848534 24.9904
558 1 -1.1104 4.00596 -3.39063 26.5236
559 1 -1.1104 4.19996 2.12851 26.3861
560 2 2.2208 2.60688 -2.16834 22.1622
562 1 -1.1104 3.91042 -0.56659 23.6094
563 1 -1.1104 3.9129 -0.639267 26.5319
561 2 2.2208 2.44344 3.52696 22.1639
9816 2 2.2208 -0.108778 0.659947 21.9321
573 2 2.2208 -0.323483 -1.99683 24.9965
554 1 -1.1104 6.87744 -0.678972 26.2429
9812 2 2.2208 -0.210436 3.40684 24.8195
721 2 2.2208 -0.202926 20.1945 19.3477
691 1 -1.1104 9.75087 15.9935 23.5594
692 2 2.2208 8.16492 20.3817 22.2326
403 1 -1.1104 9.72766 -0.476524 20.4829
409 2 2.2208 -0.312714 14.925 13.7105
550 1 -1.1104 6.83151 -0.769683 23.4261
547 1 -1.1104 6.71812 -3.48536 26.4844
391 1 -1.1104 12.4893 -0.843043 20.7488
386 1 -1.1104 12.2497 2.13781 20.4781
543 1 -1.1104 6.83505 -3.65212 23.4907
544 1 -1.1104 6.83321 2.1962 23.6432
548 1 -1.1104 6.88356 2.05466 26.5309
576 2 2.2208 11.1655 0.643863 22.1493
577 1 -1.1104 12.3733 -3.56883 23.4968
578 1 -1.1104 12.5314 2.00151 23.3594
579 1 -1.1104 12.5984 -3.53457 26.5975
580 1 -1.1104 12.4148 1.98776 26.4111
581 1 -1.1104 12.5484 -0.909289 23.4505
582 2 2.2208 10.985 -2.09491 24.8182
584 1 -1.1104 12.6015 -0.766651 26.0649
585 1 -1.1104 9.5404 -3.67237 23.5955
586 1 -1.1104 9.70273 1.9904 23.5796
587 2 2.2208 8.12147 0.674784 24.8675
588 1 -1.1104 9.74106 -3.50734 26.5596
589 1 -1.1104 9.55785 2.11888 26.5929
590 2 2.2208 8.26559 -2.05325 22.1713
592 1 -1.1104 9.70649 -0.811792 23.4958
593 1 -1.1104 9.68393 -0.715301 26.2508
591 2 2.2208 8.02469 3.53905 22.1865
583 2 2.2208 11.0764 3.42405 25.1399
634 2 2.2208 -0.204763 11.8292 22.2934
410 2 2.2208 8.20405 0.815067 13.7539
429 1 -1.1104 1.01593 10.3049 20.8175
443 1 -1.1104 3.78759 5.0885 20.9014
418 1 -1.1104 0.99892 7.67568 20.7801
10105 2 2.2208 -0.348244 6.23192 22.3286
633 2 2.2208 -0.205809 9.12678 25.1264
605 2 2.2208 5.28639 6.2609 22.1671
606 2 2.2208 5.40364 11.8471 22.2433
607 1 -1.1104 1.08905 7.61343 23.7464
609 1 -1.1104 1.08315 7.684 26.5185
611 1 -1.1104 1.1315 4.99527 23.4897
612 1 -1.1104 1.16168 10.5058 23.7469
615 2 2.2208 5.35969 9.10406 25.0654
616 1 -1.1104 0.945284 5.04058 26.3289
617 1 -1.1104 1.15534 10.7046 26.4194
620 1 -1.1104 3.92329 7.78632 23.5657
621 2 2.2208 2.52088 6.33282 25.0329
622 2 2.2208 2.57274 11.9084 24.9662
623 1 -1.1104 3.88767 7.6576 26.3153
624 2 2.2208 2.45371 9.06884 22.2945
625 1 -1.1104 4.14857 4.95716 23.8363
626 1 -1.1104 3.88697 10.4477 23.5494
627 1 -1.1104 4.06079 4.87069 26.5834
628 1 -1.1104 3.92402 10.4649 26.2954
448 2 2.2208 2.44117 12.064 13.7201
473 2 2.2208 8.29429 6.44728 13.7908
431 1 -1.1104 6.6407 4.96512 20.7181
458 1 -1.1104 12.2674 5.0233 20.6286
433 1 -1.1104 6.68303 10.5038 20.892
472 1 -1.1104 9.48622 10.6819 20.7122
614 1 -1.1104 6.72834 10.6762 23.6693
608 1 -1.1104 6.61446 7.77124 23.7271
610 1 -1.1104 6.75885 7.70899 26.3655
618 1 -1.1104 6.91435 4.86697 26.3228
619 1 -1.1104 6.71111 10.5562 26.5027
613 1 -1.1104 6.82139 4.97727 23.6436
636 1 -1.1104 9.53039 10.3149 26.386
637 1 -1.1104 9.62291 4.96704 26.2227
638 1 -1.1104 9.54292 10.438 23.6105
639 1 -1.1104 9.70403 4.59641 23.3215
640 2 2.2208 8.17092 9.18189 22.2853
641 1 -1.1104 9.59711 7.57773 26.4308
642 2 2.2208 8.27506 11.9367 24.8792
643 2 2.2208 8.04011 6.38678 25.0658
644 2 2.2208 10.8058 6.21355 22.1865
645 2 2.2208 11.0261 11.8808 22.1935
646 1 -1.1104 12.2331 7.6324 23.5656
647 1 -1.1104 12.2582 7.56296 26.4281
648 1 -1.1104 12.3853 4.91062 23.6216
649 1 -1.1104 12.3767 10.463 23.5697
650 2 2.2208 11.0197 9.03945 25.016
651 1 -1.1104 12.3962 4.82344 26.5875
652 1 -1.1104 12.2964 10.4855 26.5414
653 1 -1.1104 9.28358 7.58463 23.6142
447 2 2.2208 5.41173 9.26292 13.7053
663 1 -1.1104 6.84533 16.146 26.3193
688 2 2.2208 -0.122176 20.3224 24.8032
705 1 -1.1104 12.5308 13.1119 26.3649
494 1 -1.1104 1.19105 16.045 20.8545
484 1 -1.1104 1.24745 18.8092 20.6045
665 1 -1.1104 1.08011 16.1073 26.6383
682 2 2.2208 2.5801 14.5204 22.2352
664 1 -1.1104 1.36797 18.7942 26.2713
681 2 2.2208 2.43505 20.2024 22.1307
673 2 2.2208 5.49904 17.5104 22.3252
680 1 -1.1104 3.99265 15.8759 23.3761
672 1 -1.1104 1.24236 13.4156 23.8198
671 1 -1.1104 1.07658 18.89 23.5129
669 2 2.2208 5.1428 14.6778 24.977
668 2 2.2208 5.32127 20.3662 25.1334
679 1 -1.1104 1.26662 16.1497 23.5864
677 1 -1.1104 3.98722 13.3284 26.5481
676 1 -1.1104 4.01233 16.0264 26.4021
675 2 2.2208 2.61671 17.4948 24.9944
666 1 -1.1104 1.18802 13.3379 26.6622
674 1 -1.1104 3.99085 18.9774 26.494
660 1 -1.1104 3.95919 18.7644 23.5622
662 1 -1.1104 3.87482 13.1646 23.6237
686 2 2.2208 -0.189249 14.7904 25.1384
509 2 2.2208 2.58111 17.5479 13.8566
523 1 -1.1104 12.4471 16.3254 20.7161
695 1 -1.1104 9.60687 13.2299 26.2191
700 1 -1.1104 12.4173 16.1074 26.5988
667 1 -1.1104 6.87931 18.8237 23.6354
707 1 -1.1104 12.3913 13.1695 23.4448
535 1 -1.1104 9.62511 16.2307 20.719
488 1 -1.1104 6.77278 18.7383 20.8642
530 1 -1.1104 9.44467 19.0202 20.8205
701 2 2.2208 10.9981 20.2992 25.1133
661 1 -1.1104 6.58858 13.2919 26.3078
704 1 -1.1104 12.3294 18.9397 26.4949
696 1 -1.1104 6.71012 18.9885 26.397
698 1 -1.1104 9.61986 18.9601 23.5781
702 2 2.2208 11.0946 14.7381 24.9725
693 2 2.2208 8.28106 14.6915 22.1375
703 1 -1.1104 12.3915 16.2764 23.6158
697 2 2.2208 8.2691 17.4415 24.9894
528 1 -1.1104 9.49926 13.3682 20.7751
670 1 -1.1104 6.80226 13.2931 23.5468
706 1 -1.1104 12.2082 18.9372 23.562
694 1 -1.1104 9.42694 18.8609 26.4888
496 1 -1.1104 6.91366 15.8801 20.8327
708 2 2.2208 11.0017 17.4955 22.0643
678 1 -1.1104 6.86899 16.0286 23.6206
379 2 2.2208 5.17044 3.55843 13.7266
594 2 2.2208 10.9446 0.665674 27.7306
474 2 2.2208 11.1584 9.1548 13.8192
575 2 2.2208 8.18166 20.4315 27.6879
378 2 2.2208 2.57823 0.776737 13.8712
332 2 2.2208 2.73829 -4.87786 13.804
446 2 2.2208 2.4777 6.29904 13.7324
723 2 2.2208 5.33513 23.126 5.36639
724 2 2.2208 5.26952 28.8685 5.19351
725 1 -1.1104 1.22754 24.5468 0.938427
726 1 -1.1104 1.06917 24.4911 3.87275
727 1 -1.1104 1.14374 21.8463 1.09111
728 1 -1.1104 1.03543 27.2456 1.17343
729 2 2.2208 5.42453 25.8972 2.28659
730 1 -1.1104 1.21677 21.7733 3.98893
731 1 -1.1104 1.12495 27.4226 3.9033
732 1 -1.1104 3.93479 24.5614 0.968309
733 2 2.2208 2.51121 23.1653 2.48282
734 2 2.2208 2.51768 28.6474 2.46988
735 1 -1.1104 3.75396 24.6226 3.87681
736 2 2.2208 2.4507 25.8573 5.33999
737 1 -1.1104 3.94389 21.8333 1.23367
738 1 -1.1104 3.96349 27.3113 1.15593
739 1 -1.1104 3.89812 21.6469 3.96642
740 1 -1.1104 4.03398 27.3599 3.92742
863 2 2.2208 13.5934 40.0716 2.38889
864 1 -1.1104 1.11876 24.5749 6.55001
748 1 -1.1104 6.65439 21.8515 3.83833
1052 2 2.2208 -0.313747 31.6785 7.93292
741 2 2.2208 -0.300573 28.8138 5.24601
1180 2 2.2208 10.8218 31.6207 13.7112
1041 2 2.2208 13.5348 31.6412 5.21494
871 1 -1.1104 3.8187 21.9326 6.74256
954 2 2.2208 -0.399221 37.1115 8.03655
794 2 2.2208 -0.498644 34.5497 5.1076
749 1 -1.1104 7.0378 27.1853 3.72206
868 1 -1.1104 6.61747 21.7417 6.7839
744 1 -1.1104 6.87214 24.6483 0.971786
746 1 -1.1104 6.84625 21.76 1.21679
747 1 -1.1104 6.80601 27.4584 0.905267
745 1 -1.1104 6.63697 24.6127 3.85705
750 2 2.2208 10.9997 23.4393 5.23787
751 2 2.2208 10.9297 28.792 5.2926
752 1 -1.1104 12.3745 24.4015 0.97772
753 1 -1.1104 12.4472 24.5807 3.75065
754 1 -1.1104 12.4703 21.602 1.1143
755 1 -1.1104 12.2024 27.2034 0.888448
756 2 2.2208 11.1236 26.0423 2.47266
757 1 -1.1104 12.2665 21.875 3.91699
758 1 -1.1104 12.4438 27.4157 3.77476
759 1 -1.1104 9.74298 24.5513 1.11271
760 2 2.2208 8.13336 23.1841 2.42936
761 2 2.2208 8.12535 28.6072 2.50362
762 1 -1.1104 9.61457 24.669 3.84417
763 2 2.2208 8.19441 25.9368 5.23637
764 1 -1.1104 9.49477 21.6622 1.16719
765 1 -1.1104 9.51649 27.2623 1.15285
766 1 -1.1104 9.5059 21.783 3.93385
767 1 -1.1104 9.69514 27.3347 4.07995
1039 2 2.2208 13.8333 42.8497 10.9484
901 1 -1.1104 9.41077 21.7653 6.70956
898 1 -1.1104 12.0609 22.049 6.88526
1681 1 -1.1104 12.2422 47.1004 9.66637
771 2 2.2208 5.43578 34.4736 5.32385
772 1 -1.1104 0.966482 30.0838 1.06172
773 1 -1.1104 1.14675 35.7612 0.921589
775 1 -1.1104 0.982328 30.3369 4.04268
776 1 -1.1104 1.18166 35.9254 3.72827
778 1 -1.1104 0.975264 32.9758 0.960746
779 2 2.2208 5.36642 31.4927 2.42748
780 2 2.2208 5.26064 37.2857 2.31523
781 1 -1.1104 1.01663 33.0555 3.77321
783 1 -1.1104 3.93675 30.0614 0.828678
784 1 -1.1104 3.93703 35.8426 1.17237
785 2 2.2208 2.48075 34.3308 2.52891
786 1 -1.1104 3.82559 30.1596 3.67427
787 1 -1.1104 3.91026 35.858 3.98244
788 2 2.2208 2.45563 31.7153 5.27774
789 2 2.2208 2.54595 37.2151 5.18009
790 1 -1.1104 3.73137 33.0173 1.03485
791 1 -1.1104 3.92356 33.0256 3.84497
774 1 -1.1104 6.88086 35.6551 1.05078
777 1 -1.1104 6.59981 35.8752 3.97183
1089 2 2.2208 2.449 28.8612 13.6155
1269 2 2.2208 2.65262 26.117 -0.314058
1053 2 2.2208 -0.169496 34.4706 10.8022
1017 1 -1.1104 9.62795 44.0278 12.4031
925 1 -1.1104 1.04606 33.1423 6.4724
1298 2 2.2208 10.9067 23.0774 -0.183123
1417 2 2.2208 10.9595 45.8318 -0.383428
1299 2 2.2208 8.43186 25.9617 -0.317399
782 1 -1.1104 6.67222 32.8746 3.82002
797 1 -1.1104 6.50051 33.0152 1.07768
795 1 -1.1104 6.58877 30.0377 1.06848
796 1 -1.1104 6.67899 30.0472 3.81677
798 2 2.2208 10.9179 34.4948 5.0872
799 1 -1.1104 12.3374 30.2238 1.01546
800 1 -1.1104 12.3558 35.8535 1.01013