ITEM: TIMESTEP
80000
ITEM: NUMBER OF ATOMS
17910
ITEM: BOX BOUNDS pp pp pp
-3.9873379173179102e-01 2.7738733791731917e+01
-4.7742224587883193e+00 3.3285422245878243e+02
-3.9039709519768062e-01 2.7730397095197517e+01
ITEM: ATOMS id type q x y z
1 2 2.2208 5.06096 0.863879 5.15656
2 1 -1.1104 0.841249 -3.26204 1.13965
3 1 -1.1104 0.741215 2.19603 1.41038
6 1 -1.1104 0.69165 -3.48313 3.78432
7 1 -1.1104 0.702548 2.26411 4.03934
10 1 -1.1104 0.807337 -0.464582 0.976823
12 2 2.2208 4.99283 -1.90386 2.48088
13 2 2.2208 5.02538 3.6979 2.32742
14 1 -1.1104 0.886996 -0.447098 3.9215
16 1 -1.1104 3.59253 -3.14073 1.01993
17 1 -1.1104 3.46517 2.23499 0.894045
18 2 2.2208 2.09846 0.714295 2.38363
19 1 -1.1104 3.52464 -3.27422 3.83544
20 1 -1.1104 3.45023 2.18945 3.7103
21 2 2.2208 2.1904 -1.9992 5.30806
22 2 2.2208 2.19283 3.62322 5.2708
23 1 -1.1104 3.49821 -0.583096 0.843115
24 1 -1.1104 3.58837 -0.529184 3.83341
15 1 -1.1104 6.36621 -0.366818 3.69294
9 1 -1.1104 6.38293 2.24459 3.61939
5 1 -1.1104 6.26094 2.56156 0.8049
173 1 -1.1104 3.72313 2.15296 6.6552
174 1 -1.1104 3.756 -0.83794 6.63709
4 1 -1.1104 6.32197 -3.46078 1.08184
8 1 -1.1104 6.26442 -3.11716 3.8621
11 1 -1.1104 6.28752 -0.421472 1.10049
168 1 -1.1104 6.47626 -3.35435 6.61615
170 1 -1.1104 0.831766 -0.548929 6.85949
169 1 -1.1104 6.49635 2.22275 6.64248
167 1 -1.1104 0.709241 2.25655 6.53824
172 1 -1.1104 3.52733 -3.48201 6.6795
29 2 2.2208 4.85036 -4.69695 5.20666
26 2 2.2208 13.5512 17.5483 7.9787
49 2 2.2208 13.2582 0.818141 2.33417
31 2 2.2208 10.5376 0.945086 5.02269
32 1 -1.1104 11.863 -3.31609 0.899059
33 1 -1.1104 11.9819 2.13723 0.938396
34 1 -1.1104 11.9695 -3.50668 3.62524
35 1 -1.1104 12.0263 2.38788 3.7085
36 1 -1.1104 11.9359 -0.523619 1.02497
37 2 2.2208 10.6554 -1.97543 2.47643
38 2 2.2208 10.8065 3.78694 2.27633
39 1 -1.1104 11.9256 -0.44993 3.88333
40 1 -1.1104 9.16012 -3.39571 1.35473
41 1 -1.1104 9.2056 2.27986 1.05851
42 2 2.2208 7.8934 0.818626 2.26611
43 1 -1.1104 9.20388 -3.38541 4.09642
44 1 -1.1104 9.12156 2.25005 3.79561
45 2 2.2208 7.76124 -1.93223 5.02573
47 1 -1.1104 9.23218 -0.548662 0.894751
48 1 -1.1104 9.1213 -0.529252 3.71958
46 2 2.2208 7.73117 3.77802 5.15899
9479 2 2.2208 13.5188 3.69358 5.1683
50 2 2.2208 13.2266 -1.6653 5.25849
210 1 -1.1104 9.29828 -0.736353 6.37657
206 1 -1.1104 12.1035 2.36498 6.61709
208 1 -1.1104 9.35834 -3.56466 6.78123
209 1 -1.1104 9.40802 2.17023 6.60857
511 2 2.2208 5.01449 15.0336 13.5623
28 2 2.2208 2.11599 -4.7618 2.41373
54 2 2.2208 5.01282 6.5835 5.04816
55 2 2.2208 5.09668 12.0782 5.27373
56 1 -1.1104 0.921833 7.84994 0.88485
58 1 -1.1104 0.83047 7.74635 3.66628
60 1 -1.1104 0.990706 4.93073 1.13874
61 1 -1.1104 0.744173 10.4888 0.918707
66 2 2.2208 4.98252 9.4124 2.29279
67 1 -1.1104 0.804881 5.0274 3.94601
68 1 -1.1104 0.781496 10.6933 3.60393
71 1 -1.1104 3.66654 8.1191 0.838515
72 2 2.2208 2.25947 6.47602 2.27708
73 2 2.2208 2.22379 12.0516 2.35077
74 1 -1.1104 3.4766 7.88113 3.75235
75 2 2.2208 2.18468 9.31776 5.28712
76 1 -1.1104 3.79816 5.11773 0.940849
77 1 -1.1104 3.65276 10.8852 0.994571
79 1 -1.1104 3.7589 5.0802 3.81375
80 1 -1.1104 3.59905 10.8145 3.99335
70 1 -1.1104 6.55987 10.5918 3.66102
64 1 -1.1104 6.4212 10.7869 0.822239
59 1 -1.1104 6.29927 7.80797 3.5891
69 1 -1.1104 6.3999 5.1699 3.85375
57 1 -1.1104 6.42934 8.0652 0.939209
63 1 -1.1104 6.52771 5.25284 0.780197
234 1 -1.1104 0.833658 7.88565 6.55405
65 1 -1.1104 6.4295 10.6631 6.53173
62 1 -1.1104 0.82764 10.625 6.38323
237 1 -1.1104 6.42822 4.9287 6.70852
235 1 -1.1104 6.48998 7.80848 6.56028
78 1 -1.1104 3.7381 10.571 6.60377
105 2 2.2208 13.6122 6.5094 2.41255
104 2 2.2208 13.3987 12.1203 2.32036
84 2 2.2208 10.6886 6.46653 5.02479
85 2 2.2208 10.6154 12.0437 5.06865
86 1 -1.1104 12.066 7.8931 0.774308
87 1 -1.1104 12.1409 7.87225 3.75938
88 1 -1.1104 12.2385 5.09838 1.08674
89 1 -1.1104 12.1571 10.8406 0.914672
91 2 2.2208 10.7505 9.31193 2.1364
92 1 -1.1104 12.2917 5.14782 3.64157
93 1 -1.1104 12.0627 10.6121 3.56684
94 1 -1.1104 9.25589 8.03154 0.713748
95 2 2.2208 7.86639 6.62526 2.27203
96 2 2.2208 7.77436 12.0294 2.29209
97 1 -1.1104 9.3643 7.81619 3.66719
98 2 2.2208 7.73819 9.28947 5.08162
99 1 -1.1104 9.23822 5.13548 0.77218
100 1 -1.1104 9.2135 10.7374 0.776135
102 1 -1.1104 9.3771 5.07275 3.56664
103 1 -1.1104 9.25788 10.6059 3.45715
101 1 -1.1104 9.26267 10.7452 6.42457
326 2 2.2208 13.6214 9.37645 5.15251
267 1 -1.1104 9.31327 7.77762 6.37727
269 1 -1.1104 9.2949 5.20279 6.37814
90 1 -1.1104 12.1664 10.4795 6.37918
266 1 -1.1104 12.2565 4.92048 6.58115
265 1 -1.1104 12.0544 7.69111 6.75768
106 2 2.2208 5.06435 17.7732 5.04411
107 1 -1.1104 0.880016 13.4775 0.986375
109 1 -1.1104 0.760585 19.3387 0.848407
113 1 -1.1104 0.7766 13.5027 3.90597
114 1 -1.1104 0.844292 19.1783 3.56656
116 1 -1.1104 0.840082 16.509 1.03399
119 2 2.2208 5.03424 14.7547 2.1586
120 2 2.2208 5.02789 20.6434 2.17518
121 1 -1.1104 0.879452 16.1533 4.02996
123 1 -1.1104 3.60032 13.4753 0.964784
125 1 -1.1104 3.6142 19.0743 0.975535
127 2 2.2208 2.20451 17.8035 2.38641
128 1 -1.1104 3.57578 13.5834 3.78234
129 1 -1.1104 3.70938 19.2707 3.70122
130 2 2.2208 2.27364 14.7954 5.22174
131 2 2.2208 2.27262 20.4844 5.18753
132 1 -1.1104 3.5589 16.1797 0.99345
134 1 -1.1104 3.65023 16.3924 3.6192
115 1 -1.1104 6.39926 13.1842 3.74085
122 1 -1.1104 6.37482 16.2911 3.54054
139 1 -1.1104 6.42041 19.1748 3.81065
108 1 -1.1104 1.13367 13.5897 6.85053
302 1 -1.1104 0.924901 19.107 6.6693
124 1 -1.1104 3.71093 13.5733 6.56026
118 1 -1.1104 6.54094 16.4917 6.59598
111 1 -1.1104 6.44168 13.6401 6.65504
110 1 -1.1104 6.54265 13.5324 0.829316
126 1 -1.1104 3.59586 19.1431 6.59601
133 1 -1.1104 3.59756 16.4385 6.41231
140 1 -1.1104 6.43329 16.2573 0.918046
138 1 -1.1104 6.33461 19.194 1.09143
112 1 -1.1104 6.52807 19.6257 6.61433
143 1 -1.1104 12.0248 13.4899 6.56872
327 2 2.2208 13.4826 20.5378 5.14062
165 2 2.2208 13.6434 17.7407 2.4113
141 2 2.2208 10.6161 17.6291 5.22575
142 1 -1.1104 12.1275 13.5236 1.04821
144 1 -1.1104 12.1572 19.1155 1.05053
146 1 -1.1104 12.1316 13.4614 3.7067
147 1 -1.1104 12.178 19.0395 3.77024
148 1 -1.1104 12.0424 16.3907 1.05846
150 2 2.2208 10.6212 14.8154 2.41724
151 2 2.2208 10.7346 20.3417 2.38692
152 1 -1.1104 11.9063 16.3085 3.84577
153 1 -1.1104 9.37761 13.4793 0.825294
155 1 -1.1104 9.26549 18.9784 1.07875
157 2 2.2208 7.8303 17.6797 2.35988
158 1 -1.1104 9.31386 13.3217 3.70274
159 1 -1.1104 9.1557 18.8983 3.86513
160 2 2.2208 7.72918 14.8812 5.12178
161 2 2.2208 7.84505 20.7629 4.93817
162 1 -1.1104 9.28603 16.3477 1.04295
164 1 -1.1104 8.96944 16.0541 3.78264
328 2 2.2208 13.4676 14.9556 5.27774
163 1 -1.1104 9.32224 16.3393 6.38465
154 1 -1.1104 9.26079 13.4512 6.40604
156 1 -1.1104 9.26556 19.2141 6.42077
145 1 -1.1104 11.9514 19.1357 6.5563
149 1 -1.1104 12.0526 16.2826 6.41854
447 2 2.2208 5.05335 9.38603 13.5656
166 1 -1.1104 0.747575 -3.4693 6.85369
171 1 -1.1104 6.44293 -0.53637 6.74253
325 2 2.2208 10.6754 14.8804 7.85951
175 2 2.2208 5.06174 0.799521 10.6451
176 1 -1.1104 0.71716 -3.49817 12.3946
177 1 -1.1104 0.873404 2.32115 12.1086
180 1 -1.1104 0.743445 -3.2668 9.52668
181 1 -1.1104 1.06898 2.37067 9.51913
184 1 -1.1104 1.00176 -0.693586 12.3297
186 2 2.2208 5.02713 -2.00181 8.08633
187 2 2.2208 5.1201 3.78906 8.04112
188 1 -1.1104 0.656041 -0.554198 9.41416
190 1 -1.1104 3.5546 -3.21128 12.3688
191 1 -1.1104 3.78881 2.30183 12.0613
192 2 2.2208 2.26789 0.829846 7.96645
193 1 -1.1104 3.4563 -3.52241 9.61732
194 1 -1.1104 3.80457 2.09342 9.11174
195 2 2.2208 2.06018 -2.07498 10.7774
197 1 -1.1104 3.93134 -0.274535 12.2579
198 1 -1.1104 3.5 -0.660551 9.51663
196 2 2.2208 2.33507 3.65806 10.8283
179 1 -1.1104 6.4839 2.2474 12.2346
183 1 -1.1104 6.50082 2.46835 9.37999
182 1 -1.1104 6.36771 -3.36673 9.4605
189 1 -1.1104 6.29326 -0.680616 9.58892
178 1 -1.1104 6.36165 -3.39859 12.1561
185 1 -1.1104 6.71635 -0.661915 12.1866
712 2 2.2208 13.5107 6.41401 13.4951
474 2 2.2208 10.6724 9.15607 13.5963
475 2 2.2208 7.98652 12.0803 13.5503
137 2 2.2208 -0.359623 17.8027 5.25417
207 1 -1.1104 11.8888 -0.351858 6.6013
205 1 -1.1104 11.9627 -3.1803 6.42305
322 1 -1.1104 9.37252 13.6572 12.1414
316 2 2.2208 7.87846 20.5846 10.8319
230 1 -1.1104 11.9638 16.1473 12.0836
204 1 -1.1104 12.2987 13.4678 9.38636
9778 2 2.2208 13.3891 1.04642 7.95548
9614 2 2.2208 13.4598 3.60654 10.7443
211 2 2.2208 10.5057 0.94229 10.814
212 1 -1.1104 12.1917 -3.58458 12.0071
213 1 -1.1104 12.0956 2.20989 12.2673
214 1 -1.1104 12.2206 -3.2565 9.22668
215 1 -1.1104 12.0707 2.40387 9.39553
216 1 -1.1104 12.0772 -0.354199 12.0574
217 2 2.2208 10.6213 -1.83219 7.81792
219 1 -1.1104 12.0535 -0.390077 9.32951
220 1 -1.1104 9.28428 -3.39296 12.1682
221 1 -1.1104 9.15634 2.384 12.1061
222 2 2.2208 7.82952 0.902151 7.90966
223 1 -1.1104 9.33911 -3.3966 9.35907
224 1 -1.1104 9.17705 2.33625 9.18385
225 2 2.2208 7.86772 -2.07595 10.7108
226 2 2.2208 7.8885 3.67279 10.6362
227 1 -1.1104 9.3218 -0.706171 11.9938
228 1 -1.1104 9.01924 -0.393131 9.23706
218 2 2.2208 10.6803 3.61117 7.87184
9779 2 2.2208 13.5284 -1.88065 10.8232
9815 2 2.2208 13.3863 0.913147 13.5717
200 1 -1.1104 12.1309 13.3862 12.1461
239 1 -1.1104 3.47878 5.18217 6.62628
238 1 -1.1104 3.71125 7.93351 6.66525
236 1 -1.1104 0.83474 4.94808 6.72599
410 2 2.2208 7.87316 0.88805 13.509
203 2 2.2208 4.94572 -4.78374 10.8659
240 2 2.2208 4.99387 6.55244 10.7012
241 2 2.2208 5.12988 12.1742 10.8553
242 1 -1.1104 0.852595 7.84181 11.9779
244 1 -1.1104 0.95895 7.90071 9.21267
246 1 -1.1104 0.912457 5.17108 12.3134
247 1 -1.1104 0.983581 10.5889 12.2352
250 2 2.2208 5.06474 9.26448 8.12117
251 1 -1.1104 0.758218 5.04814 9.57543
252 1 -1.1104 0.824586 10.7249 9.35943
255 1 -1.1104 3.49558 8.01467 11.9811
256 2 2.2208 2.34793 6.43596 8.03071
257 2 2.2208 2.32588 12.1814 8.09991
258 1 -1.1104 3.74919 7.8748 9.28183
259 2 2.2208 2.34613 9.39386 10.6438
260 1 -1.1104 3.5945 5.23207 12.0918
261 1 -1.1104 3.83324 10.6834 12.1097
262 1 -1.1104 3.79832 5.17276 9.2268
263 1 -1.1104 3.67247 10.7179 9.50598
249 1 -1.1104 6.69072 10.6124 12.2204
254 1 -1.1104 6.51637 10.9598 9.4455
248 1 -1.1104 6.48391 4.99969 11.9908
243 1 -1.1104 6.22681 7.99515 12.1824
253 1 -1.1104 6.70232 5.35729 9.26864
245 1 -1.1104 6.48399 8.11922 9.41554
538 2 2.2208 7.76321 17.9037 13.6227
315 1 -1.1104 9.17606 16.4469 12.3049
317 2 2.2208 7.96801 14.8664 10.9151
314 1 -1.1104 9.17831 16.317 9.2708
9690 2 2.2208 13.5752 6.38794 7.98285
329 2 2.2208 13.5398 12.0793 8.06054
264 1 -1.1104 9.4224 10.7656 9.36144
268 1 -1.1104 9.58313 5.13972 9.286
270 1 -1.1104 9.32069 10.6758 12.2004
271 1 -1.1104 9.36348 5.03802 12.1415
272 2 2.2208 7.93216 9.23185 10.8584
273 1 -1.1104 9.14102 7.87112 9.31012
274 2 2.2208 7.96478 12.2651 8.06027
275 2 2.2208 7.98657 6.51418 7.84252
276 2 2.2208 10.7769 6.42207 10.7656
277 2 2.2208 10.7308 12.2928 10.75
278 1 -1.1104 12.0338 7.75842 12.3008
279 1 -1.1104 11.9042 8.11451 9.44611
280 1 -1.1104 12.0839 5.00449 12.1559
281 1 -1.1104 12.0493 10.6 12.2789
282 2 2.2208 10.6039 9.2245 7.92743
283 1 -1.1104 12.2346 5.21532 9.40933
284 1 -1.1104 12.0739 10.834 9.20896
285 1 -1.1104 9.08589 7.7247 12.176
330 2 2.2208 13.375 9.21665 10.7792
319 1 -1.1104 9.25612 13.594 9.34118
320 2 2.2208 7.79574 17.8608 7.84504
117 1 -1.1104 1.01299 16.4201 6.78418
412 2 2.2208 10.7708 3.67583 13.591
296 1 -1.1104 6.46353 19.2716 12.2217
297 1 -1.1104 6.57134 13.5309 12.1839
286 1 -1.1104 3.81586 19.2597 12.2052
287 1 -1.1104 3.54981 13.6292 12.0814
291 1 -1.1104 0.745856 19.3007 9.33026
292 1 -1.1104 0.792473 16.5527 9.56148
293 2 2.2208 4.99394 20.6323 7.93551
294 1 -1.1104 0.719855 13.5205 9.4362
295 2 2.2208 5.18729 14.9581 8.04414
298 1 -1.1104 0.849135 19.2471 12.1552
299 1 -1.1104 0.696352 13.5774 12.1944
300 2 2.2208 4.97425 17.7882 10.7663
301 1 -1.1104 3.60419 19.0121 9.34006
303 2 2.2208 2.20828 17.6935 8.05178
304 1 -1.1104 3.54401 16.2731 9.43563
305 1 -1.1104 3.72901 13.6034 9.32683
307 1 -1.1104 0.723237 16.4533 12.2155
308 1 -1.1104 3.55545 16.2421 12.1796
309 2 2.2208 2.12232 20.5202 10.7536
310 2 2.2208 2.16019 15.0578 10.8476
290 1 -1.1104 6.47515 13.6269 9.36764
289 1 -1.1104 6.44547 16.5368 9.32673
306 1 -1.1104 6.43584 16.36 12.0914
288 1 -1.1104 6.49196 19.2657 9.45766
509 2 2.2208 2.10984 17.8617 13.6164
510 2 2.2208 5.05722 20.672 13.6586
318 1 -1.1104 9.32442 19.1419 9.34551
324 2 2.2208 10.73 20.5279 7.92107
229 1 -1.1104 12.2604 18.7929 9.44536
331 2 2.2208 13.4885 20.4473 10.8644
81 2 2.2208 10.7353 17.6486 10.7734
9773 2 2.2208 13.5357 14.8034 10.8378
473 2 2.2208 8.01832 6.30886 13.5292
201 1 -1.1104 12.0653 18.9765 12.3332
231 2 2.2208 7.73402 -4.68763 7.82556
321 1 -1.1104 9.22562 19.3404 12.2242
323 1 -1.1104 12.0871 16.078 9.34645
574 2 2.2208 10.6968 17.6771 -0.360903
448 2 2.2208 2.18043 12.0307 13.5036
233 2 2.2208 13.5536 -4.69087 8.00769
566 2 2.2208 2.15275 3.72033 -0.358968
336 2 2.2208 10.6793 -2.03702 13.4284
536 2 2.2208 10.6962 20.4924 13.6197
379 2 2.2208 5.17778 3.74875 13.4869
333 2 2.2208 5.12603 -1.94795 13.6101
446 2 2.2208 2.30472 6.5822 13.3562
658 2 2.2208 13.4985 9.19067 -0.389232
378 2 2.2208 2.38925 0.839383 13.6096
684 2 2.2208 5.06916 17.7359 -0.333344
598 2 2.2208 10.4814 -4.72808 -0.328275
334 2 2.2208 7.81723 -4.74331 13.6005
716 2 2.2208 13.466 11.8916 13.4743
337 2 2.2208 5.19753 0.895784 16.2481
338 1 -1.1104 1.0054 -3.25981 17.9413
339 1 -1.1104 0.982878 2.27089 17.7256
342 1 -1.1104 0.988498 -3.29538 15.2781
344 1 -1.1104 0.834399 2.20422 14.9716
350 1 -1.1104 0.816973 -0.508063 17.9991
352 2 2.2208 5.06121 -1.94522 19.3023
354 1 -1.1104 0.913053 -0.626269 15.1564
358 1 -1.1104 3.70917 -3.30318 17.9944
359 1 -1.1104 3.74538 2.3198 17.5812
360 2 2.2208 2.22823 0.952096 19.2351
361 1 -1.1104 3.64378 -3.3724 15.1239
363 1 -1.1104 3.70376 2.41992 14.7647
365 2 2.2208 2.44535 -1.82667 16.5112
367 1 -1.1104 3.62075 -0.304675 17.786
368 1 -1.1104 3.92233 -0.44413 15.0617
362 1 -1.1104 3.81418 -3.15552 20.9103
346 1 -1.1104 6.55763 -3.45344 14.9993
356 1 -1.1104 6.5444 -0.509686 14.9548
340 1 -1.1104 6.47957 -3.33716 17.8583
345 1 -1.1104 0.924916 2.42981 20.6333
343 1 -1.1104 1.02909 -3.36816 20.6455
348 1 -1.1104 6.52196 2.32413 15.0382
341 1 -1.1104 6.71743 2.43121 17.69
351 1 -1.1104 6.46911 -0.712578 17.8566
369 1 -1.1104 3.69149 -0.457866 20.5164
357 1 -1.1104 6.42378 -0.531261 20.7074
355 1 -1.1104 1.0853 -0.485257 20.9777
347 1 -1.1104 6.63037 -3.4921 20.6152
353 2 2.2208 5.15804 3.95335 19.0376
603 2 2.2208 13.5371 0.922292 24.804
364 1 -1.1104 3.74118 2.22622 20.7229
599 2 2.2208 10.6245 -4.66475 21.9022
656 2 2.2208 10.6862 12.0663 27.5872
380 2 2.2208 10.7113 0.854649 16.2754
381 1 -1.1104 12.3211 -3.40567 17.7677
382 1 -1.1104 12.1939 2.15396 17.7262
383 1 -1.1104 12.0502 -3.44014 14.8277
385 1 -1.1104 12.1027 2.2771 15.0429
387 1 -1.1104 12.0973 -0.604438 17.8534
388 2 2.2208 10.7305 -1.95845 19.0276
389 2 2.2208 10.6785 3.78734 19.1175
390 1 -1.1104 11.9714 -0.57538 14.8401
392 1 -1.1104 9.24849 -3.30233 17.7482
393 1 -1.1104 9.49012 2.13595 17.8625
394 2 2.2208 8.02063 0.964042 19.1013
395 1 -1.1104 9.34898 -3.36735 14.9895
397 1 -1.1104 9.30707 2.20084 15.0023
399 2 2.2208 7.87653 -1.94069 16.4107
401 1 -1.1104 9.33669 -0.512091 17.6796
402 1 -1.1104 9.2918 -0.554917 14.8913
400 2 2.2208 7.96411 3.65107 16.3159
709 2 2.2208 13.6011 3.45494 16.3854
398 1 -1.1104 9.27198 2.46689 20.7338
396 1 -1.1104 9.37576 -3.2674 20.4547
710 2 2.2208 13.4682 0.905767 19.2315
9853 2 2.2208 13.4686 -1.97021 16.3454
386 1 -1.1104 12.1283 2.37467 20.4827
391 1 -1.1104 11.9493 -0.479537 20.701
384 1 -1.1104 12.1111 -3.36851 20.4603
403 1 -1.1104 9.37156 -0.413548 20.3554
655 2 2.2208 7.94677 9.42414 27.5866
332 2 2.2208 2.28959 -4.74868 13.835
374 2 2.2208 13.3948 14.8192 27.6814
704 1 -1.1104 12.2574 18.9866 26.4125
366 2 2.2208 2.26594 3.66283 16.2872
413 2 2.2208 5.0511 6.57657 16.2604
414 2 2.2208 5.01017 12.2931 16.2325
415 1 -1.1104 0.830304 8.01859 17.7152
417 1 -1.1104 0.62182 7.93149 14.7357
421 1 -1.1104 0.879637 5.06165 17.9732
422 1 -1.1104 0.929642 10.6018 17.7338
425 2 2.2208 4.97262 9.2887 19.0512
426 1 -1.1104 0.772831 5.07525 15.0374
428 1 -1.1104 0.764172 10.7567 14.963
434 1 -1.1104 3.62787 7.98946 17.5983
435 2 2.2208 2.28078 6.62482 18.9631
436 2 2.2208 2.27258 12.057 19.0293
437 1 -1.1104 3.50555 7.86502 14.7954
439 2 2.2208 2.02868 9.19353 16.0856
440 1 -1.1104 3.60802 5.16734 17.5502
441 1 -1.1104 3.69009 10.7691 17.6241
442 1 -1.1104 3.77544 5.17866 14.8567
444 1 -1.1104 3.60063 10.7558 14.7799
416 1 -1.1104 6.48946 8.13726 17.5583
423 1 -1.1104 6.38639 5.44668 17.6822
424 1 -1.1104 6.28628 10.8482 17.5996
432 1 -1.1104 6.27841 10.741 14.9411
419 1 -1.1104 6.45505 7.77384 14.8383
438 1 -1.1104 3.67407 8.01053 20.2948
420 1 -1.1104 6.49654 7.87209 20.2488
429 1 -1.1104 0.926873 10.8658 20.5964
445 1 -1.1104 3.63246 10.6216 20.5176
431 1 -1.1104 6.72303 4.99805 20.5103
433 1 -1.1104 6.26812 10.6777 20.5839
443 1 -1.1104 3.68235 5.27606 20.5865
418 1 -1.1104 0.86371 7.88308 20.5306
430 1 -1.1104 6.75156 4.80674 14.8041
449 2 2.2208 10.8581 6.34645 16.2852
450 2 2.2208 10.77 12.054 16.4403
451 1 -1.1104 12.2684 7.94018 17.6881
452 1 -1.1104 12.1247 7.72668 15.0141
454 1 -1.1104 12.1637 5.2289 17.7484
455 1 -1.1104 12.1159 10.6293 17.9165
456 2 2.2208 10.6691 9.18387 19.1572
457 1 -1.1104 12.2964 5.01378 14.8934
459 1 -1.1104 12.0155 10.4955 15.0487
461 1 -1.1104 9.38364 7.73563 17.6742
462 2 2.2208 8.05903 6.51651 19.0363
463 2 2.2208 7.67035 12.0422 19.1339
464 1 -1.1104 9.2978 7.90499 14.9653
466 2 2.2208 7.78241 9.37811 16.2161
467 1 -1.1104 9.2747 5.02371 17.6432
468 1 -1.1104 9.26327 10.7025 17.945
469 1 -1.1104 9.41971 4.99742 14.8509
471 1 -1.1104 9.29279 10.6657 15.0494
715 2 2.2208 13.5475 12.0175 19.202
537 2 2.2208 10.765 14.9849 13.7326
453 1 -1.1104 12.0386 7.87769 20.6217
465 1 -1.1104 9.40789 7.73929 20.478
713 2 2.2208 13.5772 9.27232 16.5877
472 1 -1.1104 9.07846 10.7811 20.6595
458 1 -1.1104 12.2445 5.13519 20.5472
460 1 -1.1104 12.1389 10.5801 20.7118
470 1 -1.1104 9.23033 5.10905 20.4268
476 2 2.2208 5.0469 17.8723 16.4296
477 1 -1.1104 0.818811 13.6009 17.7302
478 1 -1.1104 0.89339 19.1967 17.8557
481 1 -1.1104 0.599736 13.6135 14.917
483 1 -1.1104 0.766736 19.2337 14.9598
489 1 -1.1104 1.00413 16.3667 17.8367
491 2 2.2208 5.08226 14.9445 19.0405
492 2 2.2208 4.90186 20.4861 19.2483
493 1 -1.1104 0.838687 16.4558 15.1573
497 1 -1.1104 3.76599 13.5308 17.7185
498 1 -1.1104 3.62607 19.024 17.8097
499 2 2.2208 2.16237 17.805 19.248
500 1 -1.1104 3.57559 13.7618 14.8391
502 1 -1.1104 3.62417 19.3193 14.9744
504 2 2.2208 2.26669 15.0152 16.3658
505 2 2.2208 2.20511 20.5925 16.2331
506 1 -1.1104 3.58673 16.359 17.8072
507 1 -1.1104 3.54607 16.4935 14.8973
479 1 -1.1104 6.58344 13.6002 17.6124
485 1 -1.1104 6.51082 13.5795 14.9244
495 1 -1.1104 6.52658 16.5055 14.9097
487 1 -1.1104 6.38762 19.2823 14.9592
490 1 -1.1104 6.36784 16.3591 17.6164
480 1 -1.1104 6.49817 19.2553 17.8531
494 1 -1.1104 0.701586 16.3483 20.6442
503 1 -1.1104 3.62868 19.1852 20.8089
482 1 -1.1104 0.871879 13.6055 20.5732
486 1 -1.1104 6.49184 13.4555 20.4269
484 1 -1.1104 0.832242 19.018 20.8207
501 1 -1.1104 3.47466 13.3106 20.588
496 1 -1.1104 6.20679 16.1951 20.5977
508 1 -1.1104 3.66715 16.2281 20.484
488 1 -1.1104 6.24696 18.903 20.6166
718 2 2.2208 13.4868 14.9085 16.5275
720 2 2.2208 13.4783 20.6827 16.3151
512 2 2.2208 10.7271 17.7038 16.5376
513 1 -1.1104 12.114 13.4487 17.7574
514 1 -1.1104 12.1174 19.0094 17.9751
515 1 -1.1104 11.9688 13.3463 15.1123
517 1 -1.1104 11.9741 19.1126 15.0459
519 1 -1.1104 11.9715 16.2364 17.7559
520 2 2.2208 10.6371 14.8348 18.9936
521 2 2.2208 10.7716 20.4552 19.2846
522 1 -1.1104 12.2692 16.2878 14.9539
524 1 -1.1104 9.32208 13.6063 17.6623
525 1 -1.1104 9.42563 19.3192 17.7199
526 2 2.2208 7.85553 17.6787 19.1615
527 1 -1.1104 9.15336 13.4927 14.8898
529 1 -1.1104 9.24857 19.2553 15.0335
531 2 2.2208 7.8851 15.1002 16.2749
532 2 2.2208 7.90181 20.6662 16.4226
533 1 -1.1104 9.3027 16.3498 17.8095
534 1 -1.1104 9.54733 16.4187 15.0792
535 1 -1.1104 9.47045 16.4306 20.6405
518 1 -1.1104 11.9509 19.0627 20.6248
516 1 -1.1104 12.2155 13.6603 20.5458
530 1 -1.1104 9.12402 19.2682 20.6213
523 1 -1.1104 12.2273 16.1472 20.7393
719 2 2.2208 13.4829 17.6502 19.4014
349 1 -1.1104 6.25545 2.17685 20.5148
540 2 2.2208 5.02222 0.845142 22.0559
541 1 -1.1104 0.834305 -3.44065 23.6196
542 1 -1.1104 0.789898 2.22924 23.4992
545 1 -1.1104 0.71849 -3.60466 26.4256
546 1 -1.1104 0.717927 2.07771 26.409
549 1 -1.1104 0.803613 -0.522026 23.404
551 2 2.2208 5.02962 -1.98805 24.7694
552 2 2.2208 5.1119 3.63734 25.014
553 1 -1.1104 0.835942 -0.642022 26.3327
555 1 -1.1104 3.69794 -3.66295 23.6391
556 1 -1.1104 3.61023 2.09845 23.5952
557 2 2.2208 2.23409 0.766283 24.9331
558 1 -1.1104 3.66815 -3.6408 26.335
559 1 -1.1104 3.53156 2.12289 26.3502
560 2 2.2208 2.25947 -2.04016 22.1618
562 1 -1.1104 3.61143 -0.619628 23.3797
563 1 -1.1104 3.6684 -0.6839 26.2317
561 2 2.2208 2.4512 3.72505 22.0663
543 1 -1.1104 6.55968 -3.26729 23.5413
550 1 -1.1104 6.39382 -0.575236 23.5126
548 1 -1.1104 6.60879 2.27351 26.1643
554 1 -1.1104 6.26563 -0.567489 26.1978
544 1 -1.1104 6.37914 2.23097 23.4219
547 1 -1.1104 6.52187 -3.3648 26.2801
705 1 -1.1104 12.2037 13.2899 26.4269
707 1 -1.1104 12.0188 13.2816 23.4504
570 2 2.2208 5.12028 -4.76836 21.9771
692 2 2.2208 7.65568 20.5959 21.9619
706 1 -1.1104 12.0993 19.1241 23.6559
601 2 2.2208 13.422 -1.91224 27.7141
708 2 2.2208 10.7797 17.735 22.0836
565 2 2.2208 2.20085 -1.90694 27.6619
576 2 2.2208 10.6128 0.83698 22.1439
577 1 -1.1104 12.0157 -3.37524 23.506
578 1 -1.1104 12.1004 2.10383 23.4211
579 1 -1.1104 12.0348 -3.37289 26.2888
580 1 -1.1104 12.116 2.18339 26.2046
581 1 -1.1104 11.985 -0.555425 23.4099
582 2 2.2208 10.6115 -2.01662 24.8816
584 1 -1.1104 12.1148 -0.634404 26.1318
585 1 -1.1104 9.30163 -3.35622 23.4028
586 1 -1.1104 9.15868 2.21476 23.3813
587 2 2.2208 7.89462 0.807667 24.8281
588 1 -1.1104 9.15956 -3.40019 26.3797
589 1 -1.1104 9.40702 2.23085 26.1902
590 2 2.2208 7.84743 -1.93229 21.898
592 1 -1.1104 9.2176 -0.622347 23.2977
593 1 -1.1104 9.31873 -0.579758 26.2292
591 2 2.2208 7.77278 3.53758 21.9919
583 2 2.2208 10.6843 3.60114 24.7005
377 2 2.2208 13.5788 3.63188 21.9003
602 2 2.2208 13.4227 -1.95016 21.9795
406 2 2.2208 8.0123 -4.65302 19.148
691 1 -1.1104 9.15415 16.3975 23.5348
690 1 -1.1104 9.38233 16.4235 26.4565
427 1 -1.1104 0.869065 5.09728 20.7197
697 2 2.2208 7.90685 17.7976 24.7226
605 2 2.2208 5.32941 6.53355 21.7709
606 2 2.2208 5.0722 12.1377 21.9603
607 1 -1.1104 1.01528 7.6301 23.3036
609 1 -1.1104 0.886026 7.74419 26.1134
611 1 -1.1104 0.925074 4.88618 23.5918
612 1 -1.1104 0.852064 10.3986 23.3035
615 2 2.2208 5.17512 9.12579 24.6717
616 1 -1.1104 0.80822 4.84506 26.4259
617 1 -1.1104 0.997311 10.7036 26.1904
620 1 -1.1104 3.86079 7.70837 22.9928
621 2 2.2208 2.4193 6.32989 24.7716
622 2 2.2208 2.30086 12.0405 24.7374
623 1 -1.1104 3.69251 7.73554 26.0206
624 2 2.2208 2.34361 9.32955 21.9086
625 1 -1.1104 3.84119 5.01346 23.4864
626 1 -1.1104 3.67718 10.6351 23.3729
627 1 -1.1104 3.66602 4.9706 26.2139
628 1 -1.1104 3.94362 10.3928 26.3556
618 1 -1.1104 6.43797 5.05392 26.2567
608 1 -1.1104 6.71252 7.92955 23.4208
614 1 -1.1104 6.49889 10.7012 23.3086
613 1 -1.1104 6.67527 5.14652 23.2888
610 1 -1.1104 6.43314 7.87108 26.2003
619 1 -1.1104 6.50848 10.8148 26.1751
595 2 2.2208 7.7129 -1.95551 27.6501
372 2 2.2208 2.43103 -4.69867 19.3961
375 2 2.2208 13.5693 20.4241 27.6871
404 2 2.2208 13.4729 20.6223 22.135
629 2 2.2208 5.15289 6.65516 27.6937
659 2 2.2208 13.5455 6.3525 24.773
376 2 2.2208 13.4847 9.11949 21.9125
636 1 -1.1104 9.33229 10.7311 26.0392
637 1 -1.1104 9.38675 4.9543 26.0427
638 1 -1.1104 9.33807 10.5415 23.3376
639 1 -1.1104 9.30932 4.87344 23.4237
640 2 2.2208 7.88342 9.26909 21.9475
641 1 -1.1104 9.18931 7.73113 26.1987
642 2 2.2208 7.82187 12.1312 24.6909
643 2 2.2208 7.94511 6.34641 24.8393
644 2 2.2208 10.7112 6.36158 21.8817
645 2 2.2208 10.5291 12.0621 22.0095
646 1 -1.1104 12.0518 7.67249 23.4701
647 1 -1.1104 12.1868 7.80721 26.1983
648 1 -1.1104 12.1568 4.90861 23.3497
649 1 -1.1104 12.215 10.4668 23.4226
650 2 2.2208 10.785 9.14867 24.7447
651 1 -1.1104 12.1066 5.0732 26.3098
652 1 -1.1104 12.0233 10.5824 26.131
653 1 -1.1104 9.34921 7.68729 23.3388
657 2 2.2208 13.3644 11.7947 24.8272
703 1 -1.1104 12.0078 16.348 23.4852
685 2 2.2208 2.27212 14.8638 27.6977
698 1 -1.1104 9.37453 19.1903 23.2557
405 2 2.2208 10.6918 -4.75562 16.3143
670 1 -1.1104 6.40524 13.4736 23.3751
663 1 -1.1104 6.49902 16.4791 26.0929
661 1 -1.1104 6.51913 13.5678 26.047
678 1 -1.1104 6.45936 16.2039 23.4376
665 1 -1.1104 0.788932 16.3276 26.2431
682 2 2.2208 2.11315 14.9241 21.9739
664 1 -1.1104 0.684162 19.0363 26.299
681 2 2.2208 2.25489 20.4757 22.1334
673 2 2.2208 4.91945 17.5479 22.0071
680 1 -1.1104 3.53092 16.3747 23.4845
672 1 -1.1104 0.866156 13.4243 23.4381
671 1 -1.1104 0.895886 18.991 23.6735
669 2 2.2208 5.16168 14.8995 24.8432
668 2 2.2208 5.02863 20.4462 24.9495
679 1 -1.1104 0.726065 16.2827 23.4055
677 1 -1.1104 3.56754 13.4035 26.0766
676 1 -1.1104 3.53949 16.1464 26.2831
675 2 2.2208 2.28903 17.6061 24.8475
666 1 -1.1104 0.820079 13.3803 26.3323
674 1 -1.1104 3.60602 18.8045 26.479
660 1 -1.1104 3.64083 19.1395 23.5239
662 1 -1.1104 3.59545 13.511 23.3715
696 1 -1.1104 6.49409 19.1171 26.3591
667 1 -1.1104 6.3466 19.0438 23.494
373 2 2.2208 13.4615 17.681 24.892
528 1 -1.1104 9.33575 13.4236 20.6169
604 2 2.2208 13.5187 3.63435 27.6234
699 1 -1.1104 9.20729 13.6157 23.4483
702 2 2.2208 10.706 14.9757 24.8407
700 1 -1.1104 12.0739 16.1612 26.1704
695 1 -1.1104 9.38881 13.6721 26.2927
693 2 2.2208 7.93168 14.9088 21.882
408 2 2.2208 7.91366 14.9605 27.5957
701 2 2.2208 10.5955 20.5383 24.821
370 2 2.2208 13.4054 14.8576 22.2155
694 1 -1.1104 9.26017 19.1544 26.2422
683 2 2.2208 2.29055 20.4133 27.6671
654 2 2.2208 10.6738 6.37709 27.5656
594 2 2.2208 10.711 0.781943 27.6235
596 2 2.2208 7.84502 3.71918 27.5958
630 2 2.2208 2.35837 9.19394 27.4995
9784 2 2.2208 -0.360009 -2.02033 13.7711
631 2 2.2208 5.02477 12.1891 27.4778
539 2 2.2208 13.4719 17.7289 13.7024
564 2 2.2208 4.80888 0.791864 27.6855
575 2 2.2208 7.83068 20.5059 27.6639
723 2 2.2208 4.85309 23.5131 4.9771
724 2 2.2208 5.01425 29.0083 4.99117
725 1 -1.1104 0.788119 24.7567 0.864657
726 1 -1.1104 0.672176 24.7703 3.77706
727 1 -1.1104 0.89686 22.0027 0.921293
728 1 -1.1104 1.01107 27.4146 0.832682
729 2 2.2208 5.03926 26.1396 2.22193
730 1 -1.1104 0.627387 21.9505 3.7465
731 1 -1.1104 0.928518 27.6304 3.61958
732 1 -1.1104 3.76529 24.6394 0.806859
733 2 2.2208 2.15839 23.2511 2.33667
734 2 2.2208 2.14554 28.766 2.14381
735 1 -1.1104 3.47564 24.6455 3.72645
736 2 2.2208 2.34531 26.2943 5.0606
737 1 -1.1104 3.7697 21.9022 0.721913
738 1 -1.1104 3.78524 27.3098 0.639493
739 1 -1.1104 3.52686 21.8809 3.62697
740 1 -1.1104 3.72375 27.4772 3.73946
746 1 -1.1104 6.30559 21.906 0.788386
749 1 -1.1104 6.54674 27.5749 3.68867
747 1 -1.1104 6.40086 27.5093 0.930898
866 1 -1.1104 0.917749 22.0419 6.66697
744 1 -1.1104 6.51759 24.5883 0.763803
748 1 -1.1104 6.44144 22.0763 3.63016
870 1 -1.1104 3.68341 24.8796 6.44883
872 1 -1.1104 3.53909 27.5078 6.55029
868 1 -1.1104 6.19679 22.221 6.44116
867 1 -1.1104 0.785882 27.5144 6.33692
864 1 -1.1104 0.928145 24.7963 6.46778
871 1 -1.1104 3.62218 21.9308 6.36242
869 1 -1.1104 6.28893 27.7389 6.36095
865 1 -1.1104 6.3555 24.9104 6.30249
745 1 -1.1104 6.39655 24.7825 3.69392
750 2 2.2208 10.6085 23.5176 5.10075
751 2 2.2208 10.5611 28.8618 5.25353
752 1 -1.1104 12.0683 24.9374 0.912105
753 1 -1.1104 12.0281 24.6556 3.73958
754 1 -1.1104 12.1974 21.9743 1.15285
755 1 -1.1104 12.173 27.5536 1.09683
756 2 2.2208 10.6529 26.1301 2.3487
757 1 -1.1104 11.9128 21.8737 3.76117
758 1 -1.1104 11.9979 27.5561 3.91059
759 1 -1.1104 9.18403 24.7687 1.03255
760 2 2.2208 7.74469 23.3419 2.24903
761 2 2.2208 7.839 28.8443 2.30623
762 1 -1.1104 9.22613 24.7958 3.82074
763 2 2.2208 7.84087 26.0621 5.07949
764 1 -1.1104 9.22906 21.8175 0.910964
765 1 -1.1104 9.29626 27.4309 0.924567
766 1 -1.1104 9.14859 22.03 3.53193
767 1 -1.1104 9.35301 27.557 3.58678
901 1 -1.1104 9.2836 21.8515 6.61763
1249 2 2.2208 13.6112 40.2932 13.5057
899 1 -1.1104 11.8514 27.5337 6.76595
898 1 -1.1104 12.1254 21.8703 6.47782
902 1 -1.1104 9.04882 27.527 6.47118
1051 2 2.2208 13.494 31.7815 10.7057
769 2 2.2208 13.5463 28.9504 2.38659
900 1 -1.1104 9.14462 24.7509 6.6096
771 2 2.2208 5.16289 34.6071 5.06884
772 1 -1.1104 0.851413 30.3728 0.767197
773 1 -1.1104 0.831536 36.2168 1.00163
775 1 -1.1104 0.887382 30.3831 3.62747
776 1 -1.1104 0.809237 35.8195 3.80662
778 1 -1.1104 1.0078 33.2078 0.861038
779 2 2.2208 5.09493 31.6493 2.25085
780 2 2.2208 5.23863 37.3623 2.28149
781 1 -1.1104 0.752896 33.0122 3.80004
783 1 -1.1104 3.56442 30.208 0.762185
784 1 -1.1104 3.55138 35.9259 0.828246
785 2 2.2208 2.2685 34.6015 2.1841
786 1 -1.1104 3.59478 30.2999 3.52104
787 1 -1.1104 3.75402 35.9035 3.49936
788 2 2.2208 2.23358 31.8333 5.03237
789 2 2.2208 2.26525 37.3609 5.10201
790 1 -1.1104 3.79739 32.9021 0.752616
791 1 -1.1104 3.66962 33.2372 3.58947
774 1 -1.1104 6.35566 35.8757 0.843959
777 1 -1.1104 6.51121 35.9995 3.60378
797 1 -1.1104 6.56429 33.0043 0.94372
795 1 -1.1104 6.42289 30.221 0.892758
921 1 -1.1104 0.70267 30.2536 6.27823
782 1 -1.1104 6.45342 33.2039 3.71527
796 1 -1.1104 6.49429 30.4912 3.6506
927 1 -1.1104 3.63458 30.3432 6.41813
928 1 -1.1104 3.50558 35.9095 6.41307
922 1 -1.1104 0.830302 36.1464 6.6619
929 1 -1.1104 3.61865 33.3175 6.52585
924 1 -1.1104 6.32761 35.9621 6.36374
926 1 -1.1104 6.4581 33.2451 6.60369
923 1 -1.1104 6.37429 30.4641 6.43319
925 1 -1.1104 0.70604 33.0263 6.47295
816 2 2.2208 13.3902 34.6177 2.32662
1038 2 2.2208 10.7582 40.1439 10.757
1040 2 2.2208 13.6664 37.432 5.22138
798 2 2.2208 10.6994 34.515 5.21393
799 1 -1.1104 12.1367 30.4731 1.14107
800 1 -1.1104 12.1005 36.1641 0.889924
801 1 -1.1104 12.0102 30.2765 3.96829
802 1 -1.1104 11.9569 35.9586 3.71362