ITEM: TIMESTEP
90000
ITEM: NUMBER OF ATOMS
17910
ITEM: BOX BOUNDS pp pp pp
-3.9238900358438300e-01 2.7732389003584675e+01
-4.8455960065906636e+00 3.3292559600658450e+02
-3.9457720480067709e-01 2.7734577204800505e+01
ITEM: ATOMS id type q x y z
1 2 2.2208 4.91393 0.589245 5.31024
2 1 -1.1104 0.611849 -3.2869 0.884476
3 1 -1.1104 0.841489 2.27769 1.10403
6 1 -1.1104 1.00444 -3.44702 3.93794
7 1 -1.1104 0.773176 2.42236 3.68997
10 1 -1.1104 0.862733 -0.547285 1.01162
12 2 2.2208 5.01493 -2.24037 2.505
13 2 2.2208 4.88307 3.65059 2.44274
14 1 -1.1104 1.01687 -0.462498 3.89592
16 1 -1.1104 3.7595 -3.38265 0.8112
17 1 -1.1104 3.63429 2.18998 1.19561
18 2 2.2208 2.37208 0.746076 2.51745
19 1 -1.1104 3.70742 -3.66499 3.64061
20 1 -1.1104 3.50186 2.08178 3.94374
21 2 2.2208 2.27393 -2.01492 5.2469
22 2 2.2208 2.0691 3.60264 5.20815
23 1 -1.1104 3.69578 -0.672657 0.947915
24 1 -1.1104 3.48029 -0.673781 3.79745
5 1 -1.1104 6.41433 1.93399 0.999064
4 1 -1.1104 6.55755 -3.64432 0.969924
167 1 -1.1104 0.692424 2.15998 6.54813
169 1 -1.1104 6.59429 2.09136 6.56291
8 1 -1.1104 6.57533 -3.57291 3.79115
15 1 -1.1104 6.35942 -0.588913 3.86374
9 1 -1.1104 6.25102 2.06634 3.87054
11 1 -1.1104 6.62298 -0.961854 1.26208
171 1 -1.1104 6.27741 -0.736008 6.56867
511 2 2.2208 4.9629 14.7342 13.5987
474 2 2.2208 10.6775 9.28806 13.644
174 1 -1.1104 3.56255 -0.984601 6.81193
173 1 -1.1104 3.81558 1.82788 6.84743
327 2 2.2208 13.2462 20.4444 5.17064
9773 2 2.2208 13.4558 14.8543 10.7699
331 2 2.2208 13.4967 20.3193 10.7832
31 2 2.2208 10.6928 0.849307 5.03516
32 1 -1.1104 11.9247 -3.45762 0.884961
33 1 -1.1104 12.1114 2.32042 1.09773
34 1 -1.1104 11.9278 -3.32252 3.74749
35 1 -1.1104 12.079 2.18403 3.85067
36 1 -1.1104 12.2011 -0.544837 0.928274
37 2 2.2208 10.5422 -1.9507 2.25092
38 2 2.2208 10.6771 3.55223 2.44478
39 1 -1.1104 11.9784 -0.403941 3.67139
40 1 -1.1104 9.30832 -3.50457 0.966664
41 1 -1.1104 9.38666 2.13664 1.01017
42 2 2.2208 7.69103 0.720995 2.38811
43 1 -1.1104 9.19573 -3.42313 3.61549
44 1 -1.1104 9.08326 2.09884 3.64341
45 2 2.2208 7.70899 -2.12202 5.10211
47 1 -1.1104 9.40198 -0.613634 0.884699
48 1 -1.1104 9.03915 -0.750682 3.694
46 2 2.2208 7.81434 3.43856 5.14246
334 2 2.2208 7.76885 -4.82589 13.5598
539 2 2.2208 13.4761 17.7228 13.5787
510 2 2.2208 5.01003 20.2659 13.4116
208 1 -1.1104 8.97779 -3.61993 6.5235
207 1 -1.1104 11.8828 -0.541718 6.59335
538 2 2.2208 7.81971 17.5476 13.5955
49 2 2.2208 13.5403 0.914839 2.41514
9614 2 2.2208 13.4032 3.63608 10.7872
537 2 2.2208 10.628 15.037 13.6254
9479 2 2.2208 13.2859 3.71348 5.23491
54 2 2.2208 4.87595 6.23438 5.37586
55 2 2.2208 4.96786 11.8188 5.18972
56 1 -1.1104 0.845653 7.80862 1.04312
58 1 -1.1104 0.572998 7.74456 3.78392
60 1 -1.1104 0.743089 5.08419 1.19509
61 1 -1.1104 0.877053 10.6918 1.07053
66 2 2.2208 4.95753 9.15677 2.34661
67 1 -1.1104 0.826466 5.20125 3.99268
68 1 -1.1104 0.610246 10.4893 3.86212
71 1 -1.1104 3.62731 7.65912 1.16427
72 2 2.2208 2.13068 6.365 2.56651
73 2 2.2208 2.27631 12.0621 2.37819
74 1 -1.1104 3.33871 7.65817 4.11489
75 2 2.2208 2.1821 9.23033 5.12381
76 1 -1.1104 3.46034 4.97918 1.06242
77 1 -1.1104 3.6015 10.4038 0.943196
79 1 -1.1104 3.51876 4.80707 3.735
80 1 -1.1104 3.44429 10.5224 3.68139
59 1 -1.1104 6.13532 7.69953 3.80458
473 2 2.2208 7.98549 6.36962 13.6305
57 1 -1.1104 6.38008 7.8221 1.01125
64 1 -1.1104 6.26621 10.6026 1.07576
69 1 -1.1104 6.26821 5.01126 3.81383
63 1 -1.1104 6.45833 4.8836 0.848342
70 1 -1.1104 6.46742 10.6518 3.81927
78 1 -1.1104 3.52701 10.6753 6.47809
105 2 2.2208 13.4899 6.50893 2.29408
84 2 2.2208 10.5751 6.38037 5.13445
85 2 2.2208 10.653 11.8858 5.30176
86 1 -1.1104 11.9612 7.69245 0.763669
87 1 -1.1104 11.8527 7.72421 3.68036
88 1 -1.1104 12.0823 5.09816 0.872175
89 1 -1.1104 11.9915 10.5482 0.802504
91 2 2.2208 10.5338 9.11996 2.34112
92 1 -1.1104 11.9633 5.0379 3.78178
93 1 -1.1104 12.0274 10.6607 3.60311
94 1 -1.1104 9.16843 7.74359 1.12277
95 2 2.2208 7.70262 6.38367 2.53817
96 2 2.2208 7.90002 11.869 2.43601
97 1 -1.1104 9.06253 7.72212 3.89403
98 2 2.2208 7.66428 9.12475 5.1696
99 1 -1.1104 9.21071 4.85045 0.982362
100 1 -1.1104 9.25816 10.504 0.890635
102 1 -1.1104 9.3669 4.84848 3.85423
103 1 -1.1104 9.28289 10.4341 3.75018
267 1 -1.1104 9.15077 7.95408 6.59379
335 2 2.2208 13.3752 -4.80607 13.5696
685 2 2.2208 2.06399 14.7666 -0.470643
266 1 -1.1104 11.8171 4.95052 6.63149
326 2 2.2208 13.4274 9.19736 5.04728
318 1 -1.1104 9.10372 18.8847 9.23548
104 2 2.2208 13.4696 12.1226 2.20773
26 2 2.2208 13.4845 17.6172 7.89138
316 2 2.2208 7.73985 20.3264 10.4826
106 2 2.2208 4.96517 17.7292 5.14528
107 1 -1.1104 0.94454 13.455 1.0586
109 1 -1.1104 0.840028 19.1647 0.918372
113 1 -1.1104 0.805744 13.1081 3.83173
114 1 -1.1104 0.918881 19.01 3.68038
116 1 -1.1104 0.738598 16.2561 0.770267
119 2 2.2208 5.23179 14.9147 2.38606
120 2 2.2208 4.9896 20.3807 2.40795
121 1 -1.1104 0.706015 16.1433 3.56726
123 1 -1.1104 3.72046 13.4111 1.01933
125 1 -1.1104 3.51536 19.0628 0.853767
127 2 2.2208 2.14981 17.6499 2.278
128 1 -1.1104 3.76299 13.4199 3.60736
129 1 -1.1104 3.57022 19.1059 3.75511
130 2 2.2208 2.27082 14.8646 4.99053
131 2 2.2208 2.02769 20.4186 5.22276
132 1 -1.1104 3.51455 16.2244 0.645159
134 1 -1.1104 3.62015 16.2276 3.59345
115 1 -1.1104 6.47509 13.398 3.95252
118 1 -1.1104 6.54868 16.0206 6.51649
139 1 -1.1104 6.23214 19.0141 3.81279
202 2 2.2208 2.22634 -4.74363 7.96705
108 1 -1.1104 0.754255 13.406 6.48129
126 1 -1.1104 3.38221 18.923 6.41965
336 2 2.2208 10.6689 -1.96871 13.6394
328 2 2.2208 13.5434 14.807 5.10111
322 1 -1.1104 9.21259 13.5034 12.3699
232 2 2.2208 10.6422 -4.71085 10.7271
165 2 2.2208 13.4528 17.6458 2.3082
138 1 -1.1104 6.22982 18.9504 0.965837
122 1 -1.1104 6.50682 16.2913 3.82596
110 1 -1.1104 6.42968 13.5023 1.21826
140 1 -1.1104 6.34364 16.1976 0.910917
141 2 2.2208 10.7838 17.5352 5.04484
142 1 -1.1104 12.0672 13.6345 0.799372
144 1 -1.1104 11.9894 18.8173 1.02498
146 1 -1.1104 12.1585 13.3399 3.78862
147 1 -1.1104 12.1887 18.8866 3.68856
148 1 -1.1104 12.1563 16.1283 1.00477
150 2 2.2208 10.7733 14.7467 2.55625
151 2 2.2208 10.6347 20.1966 2.18682
152 1 -1.1104 12.1661 16.1876 3.87617
153 1 -1.1104 9.20483 13.3124 0.931972
155 1 -1.1104 9.14056 18.8708 0.996138
157 2 2.2208 7.90333 17.5972 2.39479
158 1 -1.1104 9.35288 13.3102 3.90186
159 1 -1.1104 9.40667 19.0254 3.61639
160 2 2.2208 7.88134 14.7676 5.23936
161 2 2.2208 7.91288 20.3862 5.01876
162 1 -1.1104 9.27581 16.1491 1.10517
164 1 -1.1104 9.37821 16.1262 3.76545
163 1 -1.1104 9.4629 16.1947 6.60413
143 1 -1.1104 12.1438 13.2308 6.59561
154 1 -1.1104 9.27455 13.4552 6.60939
321 1 -1.1104 9.20838 18.887 12.0439
201 1 -1.1104 12.0519 18.957 12.2311
536 2 2.2208 10.7669 20.3437 13.4923
166 1 -1.1104 0.607096 -3.5203 6.67906
172 1 -1.1104 3.58015 -3.44334 6.6291
200 1 -1.1104 11.9479 13.5115 11.9595
325 2 2.2208 10.8224 14.6862 7.97643
170 1 -1.1104 0.749089 -0.678435 6.83214
175 2 2.2208 5.01731 0.725623 10.9265
176 1 -1.1104 0.837181 -3.54285 12.2973
177 1 -1.1104 0.712862 2.02248 12.0059
180 1 -1.1104 0.643089 -3.27653 9.47465
181 1 -1.1104 0.895202 2.26536 9.44949
184 1 -1.1104 0.809457 -0.811882 12.3986
186 2 2.2208 4.96324 -2.19862 8.09252
187 2 2.2208 4.92859 3.544 8.04344
188 1 -1.1104 0.888481 -0.669001 9.59506
190 1 -1.1104 3.74806 -3.50825 12.3445
191 1 -1.1104 3.50077 2.07923 12.2726
192 2 2.2208 2.34943 0.677888 8.08653
193 1 -1.1104 3.61399 -3.67262 9.6024
194 1 -1.1104 3.6753 2.09432 9.51246
195 2 2.2208 2.25587 -2.05678 10.9431
197 1 -1.1104 3.59422 -0.776633 12.097
198 1 -1.1104 3.66345 -0.689679 9.44142
196 2 2.2208 2.13686 3.54107 10.9711
178 1 -1.1104 6.36884 -3.51015 12.2173
168 1 -1.1104 6.17838 -3.67267 6.73199
182 1 -1.1104 6.31257 -3.40814 9.55573
185 1 -1.1104 6.48264 -0.756409 12.2517
183 1 -1.1104 6.6057 2.37714 9.53312
189 1 -1.1104 6.53557 -0.519677 9.43949
317 2 2.2208 7.77017 14.6485 10.6806
319 1 -1.1104 9.37192 13.3515 9.23252
210 1 -1.1104 9.18458 -0.55695 6.43274
206 1 -1.1104 12.1242 2.29593 6.4028
209 1 -1.1104 9.3359 2.13862 6.42967
230 1 -1.1104 12.0995 16.2938 12.3495
50 2 2.2208 13.4452 -2.02419 5.22106
9778 2 2.2208 13.43 0.778117 7.97632
179 1 -1.1104 6.20759 1.98367 12.4064
9779 2 2.2208 13.3331 -1.92998 10.6981
205 1 -1.1104 12.0016 -3.37195 6.77388
211 2 2.2208 10.5191 0.807289 10.722
212 1 -1.1104 11.9737 -3.42253 12.1941
213 1 -1.1104 12.0069 2.15775 12.0743
214 1 -1.1104 11.8987 -3.27225 9.41279
215 1 -1.1104 12.0665 2.24111 9.29948
216 1 -1.1104 12.0406 -0.720432 12.0894
217 2 2.2208 10.5871 -1.98587 7.97899
219 1 -1.1104 12.0507 -0.382921 9.45851
220 1 -1.1104 9.29617 -3.25142 12.3136
221 1 -1.1104 9.28528 2.23956 12.2669
222 2 2.2208 7.92928 0.735947 7.91729
223 1 -1.1104 9.23989 -3.46374 9.29164
224 1 -1.1104 9.21553 2.23932 9.37775
225 2 2.2208 7.87156 -2.01804 10.8867
227 1 -1.1104 9.3194 -0.494997 12.281
228 1 -1.1104 9.17045 -0.68134 9.44835
218 2 2.2208 10.4967 3.81411 8.02815
226 2 2.2208 7.88031 3.81863 10.9112
315 1 -1.1104 9.07927 16.0992 12.2793
111 1 -1.1104 6.46269 13.3393 6.67517
62 1 -1.1104 0.795911 10.6231 6.44719
239 1 -1.1104 3.41598 4.84953 6.59664
238 1 -1.1104 3.2831 7.85245 6.92514
234 1 -1.1104 0.578856 7.75054 6.64384
236 1 -1.1104 0.548156 4.8975 6.70612
240 2 2.2208 4.90826 6.38431 10.926
241 2 2.2208 4.83068 11.9583 10.7687
242 1 -1.1104 0.777566 7.89794 12.2017
244 1 -1.1104 0.815588 7.92524 9.47455
246 1 -1.1104 0.768641 5.03449 12.3821
247 1 -1.1104 0.629578 10.7116 12.292
250 2 2.2208 4.84294 9.24047 8.03139
251 1 -1.1104 0.528762 5.00372 9.44406
252 1 -1.1104 0.92055 10.713 9.33713
255 1 -1.1104 3.46515 7.59892 12.4079
256 2 2.2208 2.0661 6.46268 8.20983
257 2 2.2208 2.15875 12.0049 7.81715
258 1 -1.1104 3.69285 7.83421 9.70564
259 2 2.2208 2.08138 9.28911 10.8562
260 1 -1.1104 3.58097 4.87412 12.3132
261 1 -1.1104 3.44651 10.4236 12.428
262 1 -1.1104 3.20813 5.07337 9.62727
263 1 -1.1104 3.66047 10.5556 9.49049
249 1 -1.1104 6.24198 10.4788 12.2841
237 1 -1.1104 6.36288 4.91059 6.44235
65 1 -1.1104 6.38095 10.5231 6.6078
235 1 -1.1104 6.22017 7.66166 6.55432
245 1 -1.1104 6.64175 7.9201 9.24091
81 2 2.2208 10.5785 17.4997 10.829
330 2 2.2208 13.4826 9.31933 10.8217
9690 2 2.2208 13.5245 6.39411 7.90397
329 2 2.2208 13.6223 11.8389 7.82305
248 1 -1.1104 6.29048 4.96188 12.2056
101 1 -1.1104 9.12056 10.4985 6.64631
269 1 -1.1104 9.03427 5.03996 6.54165
90 1 -1.1104 12.0289 10.4523 6.59167
265 1 -1.1104 12.0865 7.68963 6.5155
254 1 -1.1104 6.50309 10.6384 9.46759
243 1 -1.1104 6.57467 7.73143 12.3235
253 1 -1.1104 6.23837 5.16281 9.3561
264 1 -1.1104 9.29936 10.4899 9.3778
268 1 -1.1104 9.11063 5.18309 9.42366
270 1 -1.1104 9.1897 10.9384 12.0504
271 1 -1.1104 9.40173 5.23919 12.2834
272 2 2.2208 7.8219 9.21318 10.8028
273 1 -1.1104 9.49092 7.58012 9.45218
274 2 2.2208 7.83586 12.0316 7.93191
275 2 2.2208 7.90398 6.4914 7.81673
276 2 2.2208 10.7326 6.42814 10.8704
277 2 2.2208 10.7444 12.0043 10.7569
278 1 -1.1104 12.0808 7.85949 12.2488
279 1 -1.1104 12.2692 7.71875 9.43721
280 1 -1.1104 12.0965 4.9778 12.3128
281 1 -1.1104 12.1616 10.5358 12.139
282 2 2.2208 10.702 9.11133 8.07249
283 1 -1.1104 11.7712 5.0718 9.44252
284 1 -1.1104 12.0072 10.3665 9.38819
285 1 -1.1104 9.45844 7.90315 12.1221
156 1 -1.1104 9.24619 18.8483 6.44522
288 1 -1.1104 6.40657 18.9467 9.25988
302 1 -1.1104 0.513419 19.1444 6.5467
124 1 -1.1104 3.60414 13.4026 6.38273
133 1 -1.1104 3.7046 16.186 6.43633
117 1 -1.1104 0.729843 16.3964 6.37901
286 1 -1.1104 3.60139 18.8431 12.1502
287 1 -1.1104 3.73455 13.3604 12.2961
291 1 -1.1104 1.0411 19.1418 9.3339
292 1 -1.1104 0.756176 16.3102 9.28244
293 2 2.2208 4.83611 20.333 7.87098
294 1 -1.1104 0.802529 13.4892 9.19739
295 2 2.2208 4.99677 14.7685 7.84556
298 1 -1.1104 0.921487 18.9994 12.0419
299 1 -1.1104 1.01749 13.3291 12.2507
300 2 2.2208 4.8713 17.4139 10.7168
301 1 -1.1104 3.68044 19.0429 9.29696
303 2 2.2208 2.04535 17.5288 7.88587
304 1 -1.1104 3.36992 16.1734 9.3547
305 1 -1.1104 3.60087 13.3773 9.33708
307 1 -1.1104 0.709463 16.0466 12.2827
308 1 -1.1104 3.47414 16.1713 12.2478
309 2 2.2208 2.22391 20.3798 10.7391
310 2 2.2208 2.09416 14.8127 10.8329
112 1 -1.1104 6.39185 19.0047 6.66318
297 1 -1.1104 6.51114 13.223 11.8477
296 1 -1.1104 6.42002 18.808 11.9589
290 1 -1.1104 6.38257 13.2095 9.2443
289 1 -1.1104 6.17503 16.2598 9.19626
314 1 -1.1104 9.15368 16.1436 9.47884
412 2 2.2208 10.639 3.68545 13.6521
323 1 -1.1104 12.0253 16.0677 9.42367
306 1 -1.1104 6.47861 15.9814 11.9845
324 2 2.2208 10.5546 20.1957 8.00084
149 1 -1.1104 12.2326 16.1897 6.6795
320 2 2.2208 7.85805 17.4728 7.90285
204 1 -1.1104 12.2038 13.2738 9.2479
145 1 -1.1104 11.8988 19.0327 6.57658
229 1 -1.1104 12.1018 19.0302 9.28308
410 2 2.2208 7.82323 0.710216 13.6247
566 2 2.2208 2.18799 3.62768 -0.376994
9815 2 2.2208 13.3381 0.702262 13.5739
565 2 2.2208 2.20446 -2.18372 -0.420162
448 2 2.2208 2.20055 11.8951 13.6928
604 2 2.2208 13.5667 3.50987 -0.377224
475 2 2.2208 7.72942 11.9447 13.3986
712 2 2.2208 13.498 6.44465 13.5154
654 2 2.2208 10.5629 6.41471 -0.302494
596 2 2.2208 7.7906 3.54807 -0.273355
629 2 2.2208 4.95025 6.31994 -0.42732
408 2 2.2208 7.84954 14.7913 -0.339803
379 2 2.2208 5.06768 3.64971 13.577
337 2 2.2208 4.99039 0.709089 16.4564
338 1 -1.1104 0.647734 -3.51315 17.9399
339 1 -1.1104 0.716303 2.18815 17.8219
342 1 -1.1104 0.867524 -3.51337 15.1829
344 1 -1.1104 0.760444 2.16039 14.8811
350 1 -1.1104 0.621605 -0.659517 17.7946
352 2 2.2208 4.82911 -2.11047 19.4212
354 1 -1.1104 0.694766 -0.656375 15.0541
358 1 -1.1104 3.70253 -3.61238 17.8654
359 1 -1.1104 3.54547 1.88697 18.0379
360 2 2.2208 2.04494 0.639412 19.3866
361 1 -1.1104 3.64095 -3.47391 14.9888
363 1 -1.1104 3.70523 2.35048 15.1595
365 2 2.2208 2.15599 -2.06894 16.4793
367 1 -1.1104 3.62692 -0.779082 17.8635
368 1 -1.1104 3.57062 -0.694161 15.0243
353 2 2.2208 4.99869 3.42826 19.3962
366 2 2.2208 2.25337 3.48126 16.3878
343 1 -1.1104 0.665616 -3.48337 20.561
340 1 -1.1104 6.26132 -3.59051 18.0914
597 2 2.2208 13.4544 -4.85447 24.7689
346 1 -1.1104 6.35257 -3.41192 15.2021
356 1 -1.1104 6.31535 -0.668335 15.0347
341 1 -1.1104 6.30257 2.07871 17.9872
351 1 -1.1104 6.28543 -0.790901 17.7772
347 1 -1.1104 6.42159 -3.37275 20.748
404 2 2.2208 13.4784 20.4546 21.9737
369 1 -1.1104 3.59787 -0.72767 20.8828
349 1 -1.1104 6.27777 2.05697 20.7737
600 2 2.2208 7.80254 -4.92513 24.8674
348 1 -1.1104 6.50563 2.03397 15.0773
380 2 2.2208 10.6405 0.815639 16.3975
381 1 -1.1104 11.9133 -3.26319 17.7452
382 1 -1.1104 12.0232 2.15739 17.875
383 1 -1.1104 11.8807 -3.34625 15.0172
385 1 -1.1104 11.991 2.21509 14.9721
387 1 -1.1104 11.9541 -0.505708 17.6745
388 2 2.2208 10.5473 -1.83345 19.2831
389 2 2.2208 10.5429 3.44282 19.385
390 1 -1.1104 11.9289 -0.4657 14.9214
392 1 -1.1104 9.204 -3.54669 18.0233
393 1 -1.1104 9.1342 2.19735 17.9636
394 2 2.2208 7.52503 0.833337 19.4482
395 1 -1.1104 9.15901 -3.37873 15.2281
397 1 -1.1104 9.31951 2.1035 14.9942
399 2 2.2208 7.76942 -2.0174 16.4904
401 1 -1.1104 9.17141 -0.594882 17.732
402 1 -1.1104 9.30859 -0.735498 14.971
400 2 2.2208 7.86157 3.4648 16.4906
357 1 -1.1104 6.32699 -0.639317 20.7887
391 1 -1.1104 11.8592 -0.432726 20.4142
403 1 -1.1104 9.06398 -0.5367 20.7598
710 2 2.2208 13.4025 0.782627 19.2634
9856 2 2.2208 13.222 -4.75899 19.1127
9853 2 2.2208 13.3876 -1.90787 16.3494
398 1 -1.1104 9.07288 2.26496 20.613
384 1 -1.1104 11.9285 -3.27646 20.5481
714 2 2.2208 13.4492 6.53262 19.2502
377 2 2.2208 13.4191 3.43741 22.2317
631 2 2.2208 5.07426 12.1131 27.7449
564 2 2.2208 4.91067 0.753019 27.7416
413 2 2.2208 5.04846 6.29726 16.3751
414 2 2.2208 4.9795 11.9442 16.5933
415 1 -1.1104 0.668273 7.79257 17.8489
417 1 -1.1104 0.804029 7.5827 15.017
421 1 -1.1104 0.690329 5.00663 17.7608
422 1 -1.1104 0.558583 10.6821 18.0154
425 2 2.2208 4.76213 9.01327 19.2693
426 1 -1.1104 0.811632 4.73199 15.1428
428 1 -1.1104 0.634579 10.3762 15.2249
434 1 -1.1104 3.37375 7.69041 17.9084
435 2 2.2208 2.05415 6.31213 19.2551
436 2 2.2208 2.17937 11.9198 19.3223
437 1 -1.1104 3.5443 7.93686 15.1769
439 2 2.2208 2.06845 9.16447 16.4609
440 1 -1.1104 3.51104 4.91991 18.0412
441 1 -1.1104 3.37499 10.4001 18.1182
442 1 -1.1104 3.59751 5.15557 15.0807
444 1 -1.1104 3.57012 10.6343 15.2332
658 2 2.2208 13.2832 9.25273 27.6822
574 2 2.2208 10.8174 17.5333 27.7102
430 1 -1.1104 6.5659 4.81296 15.0488
713 2 2.2208 13.4596 9.20002 16.3759
445 1 -1.1104 3.66339 10.3416 20.8516
693 2 2.2208 7.72976 14.8845 22.1818
715 2 2.2208 13.4816 11.9837 19.1607
703 1 -1.1104 11.9827 16.4324 23.4335
419 1 -1.1104 6.26442 7.61121 14.8939
424 1 -1.1104 6.19496 10.4578 17.8907
423 1 -1.1104 6.38389 4.9269 17.8544
416 1 -1.1104 6.28946 7.80769 17.786
432 1 -1.1104 6.40506 10.4903 15.04
449 2 2.2208 10.6139 6.39096 16.3375
450 2 2.2208 10.4762 12.0748 16.3196
451 1 -1.1104 11.8436 7.98978 17.6955
452 1 -1.1104 12.0193 7.77113 15.0254
454 1 -1.1104 11.939 5.08043 18.0684
455 1 -1.1104 11.8021 10.8367 17.7241
456 2 2.2208 10.3972 9.36787 19.0936
457 1 -1.1104 12.0821 4.95416 15.151
459 1 -1.1104 12.2946 10.5556 14.8932
461 1 -1.1104 9.20578 7.79809 17.6798
462 2 2.2208 7.74179 6.43133 19.0967
463 2 2.2208 7.73715 12.1724 19.3101
464 1 -1.1104 9.21304 7.7965 15.022
466 2 2.2208 7.73947 9.17903 16.516
467 1 -1.1104 9.10747 5.12792 17.6898
468 1 -1.1104 8.98391 10.6682 17.751
469 1 -1.1104 9.27603 4.85901 15.0074
471 1 -1.1104 9.35199 10.5801 14.8887
374 2 2.2208 13.6475 14.9459 27.5962
709 2 2.2208 13.349 3.67973 16.5118
373 2 2.2208 13.5154 17.6877 24.817
683 2 2.2208 2.12098 20.3851 27.6122
698 1 -1.1104 9.25394 18.9115 23.6018
476 2 2.2208 4.99486 17.7737 16.4142
477 1 -1.1104 0.855599 13.3607 18.0176
478 1 -1.1104 0.838268 18.9318 17.8121
481 1 -1.1104 0.796724 13.3023 15.1355
483 1 -1.1104 0.78642 18.9213 15.0441
489 1 -1.1104 0.677013 16.2693 17.94
491 2 2.2208 5.00715 14.8875 19.3033
492 2 2.2208 5.07802 20.3761 19.1917
493 1 -1.1104 0.874324 16.1928 15.1564
497 1 -1.1104 3.59757 13.4093 17.9807
498 1 -1.1104 3.63701 19.0973 17.8533
499 2 2.2208 2.2193 17.6232 19.2125
500 1 -1.1104 3.66638 13.4259 15.1319
502 1 -1.1104 3.67721 18.9659 14.8965
504 2 2.2208 2.0619 14.7041 16.5249
505 2 2.2208 2.25721 20.2281 16.4652
506 1 -1.1104 3.5001 16.2495 17.8145
507 1 -1.1104 3.72127 16.2286 14.961
700 1 -1.1104 12.1559 16.317 26.1648
487 1 -1.1104 6.46899 19.0793 14.8022
490 1 -1.1104 6.50073 16.2988 17.8508
494 1 -1.1104 0.737204 16.2379 20.6481
484 1 -1.1104 0.93228 18.8615 20.5558
482 1 -1.1104 0.674053 13.251 20.7534
659 2 2.2208 13.479 6.36555 24.8924
518 1 -1.1104 12.0648 19.0395 20.6919
719 2 2.2208 13.5136 17.5414 19.3308
720 2 2.2208 13.6026 20.3534 16.5019
718 2 2.2208 13.3928 14.7793 16.3792
485 1 -1.1104 6.38462 13.1323 14.9298
495 1 -1.1104 6.41532 16.1018 14.9745
480 1 -1.1104 6.51073 18.9123 17.755
479 1 -1.1104 6.25108 13.5057 17.7634
512 2 2.2208 10.7602 17.6039 16.457
513 1 -1.1104 12.08 13.3996 17.6376
514 1 -1.1104 12.1501 18.9727 17.8299
515 1 -1.1104 12.0508 13.3546 14.8784
517 1 -1.1104 12.0663 18.9022 14.9829
519 1 -1.1104 11.9174 16.1011 17.842
520 2 2.2208 10.7267 14.8202 19.2071
521 2 2.2208 10.7453 20.4415 19.2354
522 1 -1.1104 12.2309 16.0724 15.0724
524 1 -1.1104 9.19375 13.462 17.9007
525 1 -1.1104 9.42188 19.1094 17.7984
526 2 2.2208 7.95332 17.6466 19.2271
527 1 -1.1104 9.08737 13.4203 15.1282
529 1 -1.1104 9.37757 19.0513 14.8424
531 2 2.2208 7.76445 14.724 16.3375
532 2 2.2208 7.95461 20.3512 16.341
533 1 -1.1104 9.2632 16.2031 17.7662
534 1 -1.1104 9.31839 16.2278 15.0602
535 1 -1.1104 9.31918 16.3999 20.7793
488 1 -1.1104 6.41648 19.0311 20.7112
345 1 -1.1104 0.768952 2.14367 20.7216
362 1 -1.1104 3.62947 -3.5784 20.8615
355 1 -1.1104 0.727773 -0.73379 20.6683
364 1 -1.1104 3.41486 1.9907 20.7072
540 2 2.2208 4.90776 0.660469 22.123
541 1 -1.1104 0.662439 -3.53119 23.4172
542 1 -1.1104 0.74219 2.09445 23.6947
545 1 -1.1104 0.74544 -3.49656 26.2322
546 1 -1.1104 0.785433 2.31131 26.5188
549 1 -1.1104 0.786668 -0.726721 23.3887
551 2 2.2208 4.78845 -2.1599 24.8981
552 2 2.2208 4.93509 3.59564 24.8639
553 1 -1.1104 0.692953 -0.584595 26.3292
555 1 -1.1104 3.49727 -3.71595 23.5561
556 1 -1.1104 3.48862 2.12283 23.591
557 2 2.2208 2.0201 0.796035 25.024
558 1 -1.1104 3.40385 -3.66228 26.2179
559 1 -1.1104 3.47444 2.05734 26.5656
560 2 2.2208 2.20793 -2.26166 22.2013
562 1 -1.1104 3.56191 -0.692357 23.6844
563 1 -1.1104 3.43367 -0.836007 26.3333
561 2 2.2208 2.04796 3.52551 22.0566
554 1 -1.1104 6.44427 -0.53931 26.4054
550 1 -1.1104 6.23609 -0.556632 23.5959
543 1 -1.1104 6.28441 -3.41171 23.5344
548 1 -1.1104 6.33203 2.39969 26.3743
544 1 -1.1104 6.28439 2.26418 23.5444
547 1 -1.1104 6.11208 -3.31004 26.2523
575 2 2.2208 7.79221 20.416 27.7823
595 2 2.2208 7.83389 -2.00944 27.6998
603 2 2.2208 13.3778 0.732235 24.9743
705 1 -1.1104 12.0657 13.5189 26.1124
516 1 -1.1104 12.0592 13.4342 20.6462
396 1 -1.1104 9.16143 -3.56709 20.9276
375 2 2.2208 13.5183 20.5746 27.6494
602 2 2.2208 13.4057 -2.04715 22.0566
386 1 -1.1104 11.982 2.12017 20.9189
576 2 2.2208 10.5394 0.736145 22.0969
577 1 -1.1104 11.9908 -3.60701 23.2048
578 1 -1.1104 12.0853 2.10638 23.6718
579 1 -1.1104 11.852 -3.44163 26.0924
580 1 -1.1104 12.1663 2.18547 26.3288
581 1 -1.1104 11.8283 -0.671489 23.4141
582 2 2.2208 10.6538 -2.00395 24.8302
584 1 -1.1104 11.9545 -0.705094 26.0992
585 1 -1.1104 9.02561 -3.32339 23.6166
586 1 -1.1104 9.07312 2.21539 23.6011
587 2 2.2208 7.79429 0.765856 25.0102
588 1 -1.1104 9.13802 -3.5613 26.2817
589 1 -1.1104 9.14788 2.1825 26.5021
590 2 2.2208 7.73297 -2.03816 22.2367
592 1 -1.1104 9.12982 -0.676339 23.545
593 1 -1.1104 9.18203 -0.636768 26.2872
583 2 2.2208 10.8038 3.76638 24.961
591 2 2.2208 7.86586 3.52991 22.246
601 2 2.2208 13.4171 -2.07441 27.791
530 1 -1.1104 9.34382 19.1018 20.6465
438 1 -1.1104 3.52077 7.72682 20.7378
427 1 -1.1104 0.663057 4.85138 20.5024
420 1 -1.1104 6.30308 7.87318 20.5856
429 1 -1.1104 0.809631 10.5255 20.6947
418 1 -1.1104 0.829196 7.82519 20.6028
443 1 -1.1104 3.46442 4.99642 20.7592
605 2 2.2208 5.01054 6.36402 22.1263
606 2 2.2208 4.95806 12.0564 21.9422
607 1 -1.1104 0.631679 7.82128 23.3676
609 1 -1.1104 0.850596 7.72924 26.2757
611 1 -1.1104 0.840112 4.92264 23.5146
612 1 -1.1104 0.699674 10.4334 23.3918
615 2 2.2208 4.91641 9.33253 24.8607
616 1 -1.1104 0.713505 5.02586 26.4413
617 1 -1.1104 0.857686 10.4296 26.327
620 1 -1.1104 3.5545 7.67602 23.6106
621 2 2.2208 2.19258 6.34715 24.8185
622 2 2.2208 2.11 12.0753 24.9803
623 1 -1.1104 3.65998 7.73979 26.465
624 2 2.2208 2.15724 9.16374 22.1677
625 1 -1.1104 3.51559 4.92674 23.5578
626 1 -1.1104 3.48459 10.5944 23.5704
627 1 -1.1104 3.6935 4.94517 26.4285
628 1 -1.1104 3.73309 10.6383 26.3783
618 1 -1.1104 6.48055 5.06857 26.1618
431 1 -1.1104 6.29657 4.87332 20.5414
614 1 -1.1104 6.29275 10.8846 23.4254
610 1 -1.1104 6.31158 7.90242 26.3012
613 1 -1.1104 6.36582 4.99962 23.4511
657 2 2.2208 13.5807 11.9778 24.9429
608 1 -1.1104 6.39797 7.79418 23.4965
470 1 -1.1104 9.06715 4.78548 20.7053
433 1 -1.1104 6.41742 10.7325 20.573
472 1 -1.1104 9.22128 10.7217 20.6625
453 1 -1.1104 11.9398 7.91329 20.4961
458 1 -1.1104 12.0721 4.83521 20.69
465 1 -1.1104 9.02368 7.76047 20.5524
460 1 -1.1104 12.2685 10.7254 20.5491
619 1 -1.1104 6.41012 10.7521 26.2781
636 1 -1.1104 9.28147 10.6628 26.1047
637 1 -1.1104 9.21548 5.15086 26.3064
638 1 -1.1104 9.19996 10.4552 23.3756
639 1 -1.1104 9.22929 5.07411 23.5548
640 2 2.2208 7.84953 9.20896 22.0375
641 1 -1.1104 9.22199 7.84201 26.5065
642 2 2.2208 7.87884 12.1133 24.786
643 2 2.2208 7.71162 6.35293 24.8027
644 2 2.2208 10.7047 6.37634 21.7771
645 2 2.2208 10.7235 12.0273 22.0641
646 1 -1.1104 12.1954 7.90321 23.345
647 1 -1.1104 12.1264 7.9464 26.2093
648 1 -1.1104 12.174 5.08183 23.4468
649 1 -1.1104 12.1486 10.7034 23.4382
650 2 2.2208 10.6598 9.12208 24.8166
651 1 -1.1104 12.0966 5.18831 26.3322
652 1 -1.1104 12.1864 10.7469 26.241
653 1 -1.1104 9.32697 7.94231 23.3819
376 2 2.2208 13.5944 9.29857 22.0718
528 1 -1.1104 9.24772 13.5614 20.5356
667 1 -1.1104 6.51988 18.9375 23.508
496 1 -1.1104 6.52469 16.3026 20.7035
503 1 -1.1104 3.67525 18.8983 20.6932
508 1 -1.1104 3.71509 16.305 20.4693
501 1 -1.1104 3.52476 13.2751 20.8521
665 1 -1.1104 0.860788 16.1479 26.4635
682 2 2.2208 2.09682 14.7986 21.994
664 1 -1.1104 0.696008 18.8383 26.257
681 2 2.2208 2.27957 20.4082 22.2418
673 2 2.2208 5.06001 17.7167 22.0467
680 1 -1.1104 3.64258 16.2594 23.3575
672 1 -1.1104 0.642671 13.4761 23.6672
671 1 -1.1104 0.752704 19.0275 23.3488
669 2 2.2208 4.95155 14.7835 24.961
668 2 2.2208 5.05945 20.4144 24.7797
679 1 -1.1104 0.736736 16.1925 23.4615
677 1 -1.1104 3.47934 13.3514 26.3695
676 1 -1.1104 3.5977 16.1113 26.0623
675 2 2.2208 2.20741 17.5406 24.8012
666 1 -1.1104 0.738419 13.3793 26.3498
674 1 -1.1104 3.54907 19.039 26.1672
660 1 -1.1104 3.69545 19.2134 23.5702
662 1 -1.1104 3.50288 13.4493 23.4782
370 2 2.2208 13.4472 14.8722 22.0916
691 1 -1.1104 9.18401 16.1521 23.6226
702 2 2.2208 10.7352 14.8727 25.0225
707 1 -1.1104 12.0613 13.5583 23.3806
670 1 -1.1104 6.45499 13.5112 23.3901
661 1 -1.1104 6.58768 13.4562 26.3595
523 1 -1.1104 12.0939 16.1341 20.6606
699 1 -1.1104 9.19049 13.4299 23.2947
706 1 -1.1104 12.2802 19.1244 23.5675
692 2 2.2208 7.859 20.4493 22.1911
697 2 2.2208 7.79342 17.5838 24.9323
690 1 -1.1104 9.23895 16.1922 26.3344
694 1 -1.1104 9.39393 18.9849 26.5053
701 2 2.2208 10.8768 20.4392 24.9104
486 1 -1.1104 6.32227 13.4805 20.7109
708 2 2.2208 10.5167 17.607 22.1524
696 1 -1.1104 6.53497 19.1037 26.3208
704 1 -1.1104 12.1358 19.137 26.4002
695 1 -1.1104 9.19735 13.3699 26.3208
663 1 -1.1104 6.56406 16.4455 26.3575
678 1 -1.1104 6.28061 16.3052 23.5285
447 2 2.2208 4.87832 9.10668 13.7885
656 2 2.2208 10.6522 11.9541 27.5611
509 2 2.2208 2.16169 17.5927 13.5949
684 2 2.2208 4.93925 17.6881 27.5039
594 2 2.2208 10.6058 0.823747 27.6651
630 2 2.2208 2.20351 9.08579 27.6567
333 2 2.2208 4.986 -2.223 13.6581
655 2 2.2208 7.74399 9.31884 27.5805
378 2 2.2208 2.19465 0.702265 13.6433
446 2 2.2208 2.20276 6.30956 13.7431
723 2 2.2208 5.10108 23.2167 5.10772
724 2 2.2208 5.27039 28.8479 5.16762
725 1 -1.1104 0.834409 24.7124 0.846642
726 1 -1.1104 0.640927 24.7488 3.75349
727 1 -1.1104 0.885497 21.9061 0.932518
728 1 -1.1104 1.02625 27.424 0.955875
729 2 2.2208 5.16884 25.9965 2.4539
730 1 -1.1104 0.692375 21.6744 3.91494
731 1 -1.1104 0.859879 27.4975 3.7993
732 1 -1.1104 3.72659 24.5403 1.12716
733 2 2.2208 2.3119 23.1718 2.33367
734 2 2.2208 2.25856 28.9242 2.43888
735 1 -1.1104 3.58333 24.3981 3.83655
736 2 2.2208 2.20996 25.9376 5.17356
737 1 -1.1104 3.48859 21.8302 0.792251
738 1 -1.1104 3.64267 27.5955 1.00268
739 1 -1.1104 3.57866 21.7151 3.77047
740 1 -1.1104 3.66899 27.373 3.82128
1034 1 -1.1104 9.42741 44.2581 6.84383
867 1 -1.1104 0.893399 27.2991 6.34161
748 1 -1.1104 6.40161 21.8479 3.67266
746 1 -1.1104 6.30922 21.6767 1.03006
747 1 -1.1104 6.54422 27.3551 1.0703
744 1 -1.1104 6.43656 24.5898 1.03241
745 1 -1.1104 6.64517 24.6856 3.76591
1042 2 2.2208 13.6077 42.7789 5.27177
997 1 -1.1104 6.58515 38.8018 6.45559
841 2 2.2208 -0.434981 42.9573 2.3734
1037 2 2.2208 10.886 45.5909 11.0016
749 1 -1.1104 6.59181 27.5112 3.84854
750 2 2.2208 10.5861 23.3044 5.18633
751 2 2.2208 10.7914 28.9078 5.13253
752 1 -1.1104 12.0006 24.6012 0.872775
753 1 -1.1104 11.9866 24.619 3.82858
754 1 -1.1104 12.0131 21.723 1.03749
755 1 -1.1104 12.1538 27.4464 0.970557
756 2 2.2208 10.7543 26.0304 2.38419
757 1 -1.1104 12.0085 21.8615 3.7725
758 1 -1.1104 12.2132 27.4499 3.85316
759 1 -1.1104 9.25798 24.5043 1.14471
760 2 2.2208 7.80798 23.1282 2.41016
761 2 2.2208 7.92545 28.8884 2.30381
762 1 -1.1104 9.31979 24.6107 3.68177
763 2 2.2208 8.02536 26.0774 5.04271
764 1 -1.1104 9.12851 21.7087 0.999558
765 1 -1.1104 9.47093 27.4535 1.0475
766 1 -1.1104 9.24938 21.8129 3.71304
767 1 -1.1104 9.38509 27.3231 3.83809
898 1 -1.1104 11.7845 21.8145 6.61503
1672 1 -1.1104 12.2041 47.1768 6.73102
902 1 -1.1104 9.32922 27.5195 6.59559
865 1 -1.1104 6.50042 24.6516 6.44422
1040 2 2.2208 13.4953 37.4504 5.14606
771 2 2.2208 5.12636 34.4798 5.3359
772 1 -1.1104 0.957148 30.4574 1.00882
773 1 -1.1104 0.799248 36.0306 0.997115
775 1 -1.1104 0.887888 30.2134 3.73173
776 1 -1.1104 0.956117 36.0488 3.73114
778 1 -1.1104 0.98413 33.2195 1.04263
779 2 2.2208 5.1416 31.775 2.44253
780 2 2.2208 5.07293 37.2701 2.38954
781 1 -1.1104 0.886024 33.0378 4.06895
783 1 -1.1104 3.7591 30.1694 1.02607
784 1 -1.1104 3.74154 35.9508 0.944392
785 2 2.2208 2.35598 34.6588 2.40682
786 1 -1.1104 3.81894 30.2648 3.85262
787 1 -1.1104 3.77639 36.1428 3.84473
788 2 2.2208 2.54146 31.8093 5.22514
789 2 2.2208 2.43122 37.437 5.29982
790 1 -1.1104 3.82068 33.068 0.850912
791 1 -1.1104 3.62363 33.1542 3.70774
774 1 -1.1104 6.61634 35.9371 1.07126
797 1 -1.1104 6.56614 32.8674 1.04283
1434 2 2.2208 -0.38651 37.2951 13.6763
921 1 -1.1104 0.982977 30.5039 6.62998
922 1 -1.1104 0.977373 35.9834 6.60164
782 1 -1.1104 6.39184 33.2729 3.70445
796 1 -1.1104 6.65959 30.4278 3.83025
777 1 -1.1104 6.59333 35.8806 3.96127
768 2 2.2208 13.3432 23.2715 2.49678
1447 1 -1.1104 6.64744 47.2662 1.02118
1013 2 2.2208 -0.38509 45.665 10.9169
1360 2 2.2208 13.4829 31.5788 -0.478441
990 1 -1.1104 6.61377 38.8312 12.2355
954 2 2.2208 -0.233864 37.2912 8.08812
1050 2 2.2208 13.6842 37.2548 10.8509
795 1 -1.1104 6.54901 30.1422 1.03164
798 2 2.2208 10.7147 34.4327 5.23104
799 1 -1.1104 12.0175 30.1445 0.93733
800 1 -1.1104 12.23 35.8466 0.966122
801 1 -1.1104 12.1058 30.195 3.68613
802 1 -1.1104 12.0961 35.8704 3.80839
803 1 -1.1104 12.0102 33.0105 0.895739
804 2 2.2208 10.7455 31.5536 2.46836
805 2 2.2208 10.7155 37.1624 2.40621
806 1 -1.1104 12.1766 32.8692 3.8871
807 1 -1.1104 9.22528 30.3333 0.995058
808 1 -1.1104 9.19307 35.894 1.10008
809 2 2.2208 7.90879 34.4627 2.48549
810 1 -1.1104 9.31403 30.2733 3.84211
811 1 -1.1104 9.45733 35.6397 3.74597
812 2 2.2208 8.02658 31.6113 5.28682
813 2 2.2208 7.92474 37.3597 5.17514
814 1 -1.1104 9.35517 33.1584 0.952004
815 1 -1.1104 9.23445 33.0544 3.80901
955 1 -1.1104 12.1635 30.3047 6.54102
958 1 -1.1104 9.34386 30.4645 6.60883