ITEM: TIMESTEP
20000
ITEM: NUMBER OF ATOMS
17910
ITEM: BOX BOUNDS pp pp pp
-3.9963057312645567e-01 2.7739630573126316e+01
-4.8086574248125782e+00 3.3288865742480510e+02
-3.8834024638371184e-01 2.7728340246383883e+01
ITEM: ATOMS id type q x y z
1 2 2.2208 5.3567 0.703658 5.11767
2 1 -1.1104 0.924759 -3.66133 1.00548
3 1 -1.1104 1.08384 2.10364 0.987757
6 1 -1.1104 1.15925 -3.41463 3.81251
7 1 -1.1104 0.941658 2.18653 3.80547
10 1 -1.1104 1.27424 -0.867951 1.29568
12 2 2.2208 5.29719 -1.9569 2.40717
13 2 2.2208 5.23341 3.56406 2.30053
14 1 -1.1104 1.11838 -0.484554 3.91883
16 1 -1.1104 3.82955 -3.53254 1.07672
17 1 -1.1104 3.92051 2.06279 1.10027
18 2 2.2208 2.53856 0.702569 2.33091
19 1 -1.1104 3.88614 -3.48547 3.83262
20 1 -1.1104 3.80577 2.16931 3.95521
21 2 2.2208 2.49309 -2.09462 5.20345
22 2 2.2208 2.58431 3.48308 5.15277
23 1 -1.1104 4.02372 -0.607666 0.902663
24 1 -1.1104 3.8324 -0.785474 3.78686
318 1 -1.1104 9.48301 18.9487 9.45622
410 2 2.2208 8.19225 0.695633 13.5483
306 1 -1.1104 6.72056 16.1931 12.1995
28 2 2.2208 2.51508 -4.7122 2.43686
170 1 -1.1104 1.00533 -0.923062 6.65351
174 1 -1.1104 3.99948 -0.651698 6.66599
312 2 2.2208 -0.34268 17.8719 10.8993
9784 2 2.2208 -0.316643 -2.06244 13.6313
231 2 2.2208 8.14936 -4.76201 7.93595
8 1 -1.1104 6.75887 -3.4019 4.02341
4 1 -1.1104 6.61839 -3.50807 0.960816
11 1 -1.1104 6.76174 -0.607988 0.85987
5 1 -1.1104 6.76533 2.2023 1.13097
15 1 -1.1104 6.67658 -0.624207 3.62168
9 1 -1.1104 6.78955 2.13172 3.88158
31 2 2.2208 11.0675 0.746442 5.20168
32 1 -1.1104 12.1739 -3.43933 1.0913
33 1 -1.1104 12.3883 2.29725 0.980511
34 1 -1.1104 12.4973 -3.52882 3.92032
35 1 -1.1104 12.4606 2.18017 3.82574
36 1 -1.1104 12.4601 -0.558083 1.02719
37 2 2.2208 10.9795 -1.96704 2.35398
38 2 2.2208 11.1259 3.72829 2.5015
39 1 -1.1104 12.358 -0.552237 3.73049
40 1 -1.1104 9.42525 -3.1813 0.806541
41 1 -1.1104 9.50023 2.4564 1.21339
42 2 2.2208 8.20123 1.01309 2.43793
43 1 -1.1104 9.6764 -3.29621 3.55549
44 1 -1.1104 9.8068 2.21185 3.90166
45 2 2.2208 8.0897 -1.89497 5.23054
47 1 -1.1104 9.47149 -0.335679 1.03114
48 1 -1.1104 9.4346 -0.488996 3.92942
207 1 -1.1104 12.2911 -0.610055 6.54129
210 1 -1.1104 9.45701 -0.409592 6.73996
205 1 -1.1104 12.308 -3.40838 6.6834
46 2 2.2208 8.26741 3.466 5.28711
169 1 -1.1104 6.83334 2.25224 6.77636
208 1 -1.1104 9.48575 -3.23344 6.47632
447 2 2.2208 5.3466 9.22461 13.6478
9774 2 2.2208 -0.166826 6.49654 5.23287
473 2 2.2208 8.14085 6.41007 13.624
54 2 2.2208 5.28478 6.33658 5.22985
55 2 2.2208 5.24654 12.0603 5.25359
56 1 -1.1104 0.976883 7.85054 1.21762
58 1 -1.1104 1.09434 7.94427 3.94981
60 1 -1.1104 0.882293 4.89794 1.04925
61 1 -1.1104 1.00572 10.6421 1.02147
66 2 2.2208 5.16789 9.19831 2.29506
67 1 -1.1104 1.08406 5.0809 3.75814
68 1 -1.1104 1.03185 10.8009 3.91819
71 1 -1.1104 3.91276 7.5356 1.09546
72 2 2.2208 2.3878 6.39166 2.49558
73 2 2.2208 2.41461 12.1704 2.60702
74 1 -1.1104 3.86236 7.99041 3.7926
75 2 2.2208 2.52635 9.34565 5.28847
76 1 -1.1104 3.72624 4.77041 1.02226
77 1 -1.1104 3.90727 10.5339 0.753011
79 1 -1.1104 3.82402 5.06837 3.76201
80 1 -1.1104 3.71869 10.8735 3.70696
238 1 -1.1104 3.96399 7.74473 6.63217
63 1 -1.1104 6.56792 4.91409 0.921476
59 1 -1.1104 6.67059 7.72509 3.75892
235 1 -1.1104 6.56425 7.68872 6.61154
9479 2 2.2208 13.6517 3.73975 5.19727
234 1 -1.1104 1.22346 7.99764 6.67316
65 1 -1.1104 6.66169 10.5407 6.68214
232 2 2.2208 10.9454 -4.7612 10.7599
317 2 2.2208 8.19809 14.6869 10.8825
70 1 -1.1104 6.55486 10.6273 3.84427
57 1 -1.1104 6.5598 8.03615 0.960486
69 1 -1.1104 6.71554 4.79654 3.73632
64 1 -1.1104 6.64866 10.777 0.888756
84 2 2.2208 10.9244 6.47701 5.09703
85 2 2.2208 10.8855 11.9774 5.20438
86 1 -1.1104 12.2429 7.87591 0.987186
87 1 -1.1104 12.1675 7.88133 3.7015
88 1 -1.1104 12.2329 5.19075 1.02524
89 1 -1.1104 12.287 10.7126 1.03276
91 2 2.2208 10.7452 9.19894 2.36883
92 1 -1.1104 12.1534 5.14158 3.8545
93 1 -1.1104 12.1201 10.707 3.85284
94 1 -1.1104 9.4191 7.89111 1.10586
95 2 2.2208 8.15406 6.46467 2.43016
96 2 2.2208 8.07556 12.0608 2.42392
97 1 -1.1104 9.2833 7.65552 3.91798
98 2 2.2208 8.05254 9.18975 5.16713
99 1 -1.1104 9.54995 5.15458 0.908043
100 1 -1.1104 9.5384 10.6571 0.990947
102 1 -1.1104 9.60246 5.03312 3.61519
103 1 -1.1104 9.43425 10.4499 3.95097
237 1 -1.1104 6.74074 4.87295 6.54496
265 1 -1.1104 12.2578 7.89456 6.67447
266 1 -1.1104 12.2342 5.18269 6.602
90 1 -1.1104 12.4582 10.5425 6.78667
101 1 -1.1104 9.53571 10.7644 6.60375
112 1 -1.1104 6.51006 19.0268 6.65352
321 1 -1.1104 9.44935 19.1771 12.403
106 2 2.2208 5.33816 17.7351 5.33531
107 1 -1.1104 1.08057 13.496 1.13265
109 1 -1.1104 0.967766 19.2141 0.921397
113 1 -1.1104 0.839267 13.492 4.01437
114 1 -1.1104 0.992871 18.9535 3.83687
116 1 -1.1104 0.885014 16.4948 0.992387
119 2 2.2208 5.20266 14.6998 2.47744
120 2 2.2208 5.34411 20.5101 2.45438
121 1 -1.1104 0.773712 16.127 3.82372
123 1 -1.1104 3.87487 13.3057 1.03565
125 1 -1.1104 3.83846 19.2192 1.08858
127 2 2.2208 2.37426 17.6785 2.68694
128 1 -1.1104 3.7196 13.5144 3.76222
129 1 -1.1104 3.93828 19.215 3.66461
130 2 2.2208 2.46811 14.9091 5.2405
131 2 2.2208 2.52032 20.4071 5.26749
132 1 -1.1104 3.74826 16.2855 1.17575
134 1 -1.1104 3.76604 16.2992 3.72747
108 1 -1.1104 1.12962 13.5791 6.87992
117 1 -1.1104 0.955205 16.4227 6.53295
115 1 -1.1104 6.59679 13.4862 3.98172
138 1 -1.1104 6.76334 19.1562 0.997008
140 1 -1.1104 6.59104 16.2824 0.980652
110 1 -1.1104 6.65367 13.4541 1.02095
288 1 -1.1104 6.72385 19.0915 9.58511
302 1 -1.1104 0.959182 19.2105 6.59989
126 1 -1.1104 3.77038 19.0079 6.53411
133 1 -1.1104 3.92074 16.2874 6.51657
111 1 -1.1104 6.75773 13.2768 6.60861
156 1 -1.1104 9.36923 19.091 6.58976
9772 2 2.2208 -0.327106 0.745956 5.2411
314 1 -1.1104 9.58593 16.077 9.43204
122 1 -1.1104 6.7911 16.3601 3.93834
139 1 -1.1104 6.64846 19.2866 3.81159
141 2 2.2208 10.8633 17.6402 5.27119
142 1 -1.1104 12.2633 13.3746 1.00312
144 1 -1.1104 12.18 19.1195 0.872701
146 1 -1.1104 12.1756 13.5113 3.67084
147 1 -1.1104 12.4044 19.0904 3.70383
148 1 -1.1104 12.1582 16.1073 1.01718
150 2 2.2208 10.8829 14.6878 2.3937
151 2 2.2208 10.8799 20.5176 2.30443
152 1 -1.1104 12.2096 16.3337 3.84349
153 1 -1.1104 9.42571 13.4211 1.09071
155 1 -1.1104 9.57871 18.9438 1.0477
157 2 2.2208 8.19367 17.7721 2.40113
158 1 -1.1104 9.3968 13.4223 3.89198
159 1 -1.1104 9.47316 19.1194 3.84109
160 2 2.2208 8.09967 14.9537 5.3856
161 2 2.2208 7.97838 20.5815 5.27463
162 1 -1.1104 9.41425 16.1993 1.08066
164 1 -1.1104 9.52169 16.1716 3.74546
145 1 -1.1104 12.1975 18.9813 6.55782
143 1 -1.1104 12.1973 13.3945 6.45519
296 1 -1.1104 6.86098 19.0243 12.3425
154 1 -1.1104 9.42818 13.6181 6.6773
149 1 -1.1104 12.338 16.2529 6.59998
163 1 -1.1104 9.56169 16.3671 6.66058
9708 2 2.2208 -0.160394 9.32308 8.04375
172 1 -1.1104 3.8272 -3.48437 6.74162
327 2 2.2208 13.6767 20.3916 5.20093
199 2 2.2208 -0.308425 3.60181 8.03964
326 2 2.2208 13.4573 9.27698 5.12914
173 1 -1.1104 3.9598 2.11924 6.76733
166 1 -1.1104 1.21563 -3.6196 6.65743
167 1 -1.1104 1.09104 2.0021 6.49789
27 2 2.2208 -0.382703 3.65031 2.50573
175 2 2.2208 5.34265 0.946501 10.7893
176 1 -1.1104 0.931887 -3.44029 12.1067
177 1 -1.1104 1.02953 2.14356 12.3933
180 1 -1.1104 0.971113 -3.38069 9.30306
181 1 -1.1104 1.00362 2.43578 9.48671
184 1 -1.1104 1.20596 -0.667017 12.4236
186 2 2.2208 5.32651 -2.03236 8.04842
187 2 2.2208 5.25507 3.6645 8.18389
188 1 -1.1104 1.17152 -0.664466 9.63051
190 1 -1.1104 3.76842 -3.33536 12.3197
191 1 -1.1104 3.87432 2.36823 12.2067
192 2 2.2208 2.41375 0.745535 7.96326
193 1 -1.1104 4.08756 -3.3491 9.48645
194 1 -1.1104 3.72158 2.14482 9.2937
195 2 2.2208 2.57548 -1.92556 10.7838
197 1 -1.1104 4.1422 -0.396945 12.1403
198 1 -1.1104 3.95441 -0.613024 9.36619
196 2 2.2208 2.57724 3.69673 10.86
313 2 2.2208 -0.378886 14.8821 7.99739
474 2 2.2208 11.0498 9.1369 13.5814
171 1 -1.1104 6.85339 -0.497651 6.49172
316 2 2.2208 8.07019 20.4924 10.9486
182 1 -1.1104 6.83604 -3.28488 9.44156
185 1 -1.1104 6.91513 -0.651432 12.0411
206 1 -1.1104 12.3406 2.26362 6.62479
189 1 -1.1104 6.6683 -0.575228 9.35477
178 1 -1.1104 6.8423 -3.43794 12.2722
183 1 -1.1104 6.62129 2.43259 9.48628
179 1 -1.1104 6.93502 2.14337 12.1844
168 1 -1.1104 6.54766 -3.42864 6.72301
209 1 -1.1104 9.53624 2.11886 6.58279
211 2 2.2208 10.97 0.814685 10.7075
212 1 -1.1104 12.4379 -3.41917 12.2285
213 1 -1.1104 12.4573 2.19829 12.197
214 1 -1.1104 12.6782 -3.36115 9.39089
215 1 -1.1104 12.3727 2.39846 9.40925
216 1 -1.1104 12.3689 -0.687256 12.187
217 2 2.2208 10.8923 -1.97617 7.97093
218 2 2.2208 10.9112 3.67364 8.00033
219 1 -1.1104 12.354 -0.505491 9.17712
220 1 -1.1104 9.75195 -3.29992 12.1619
221 1 -1.1104 9.59144 2.19814 12.1462
222 2 2.2208 8.10882 0.784703 8.04505
223 1 -1.1104 9.56734 -3.5069 9.45304
224 1 -1.1104 9.41403 2.14401 9.32408
225 2 2.2208 8.21525 -1.90073 10.8825
226 2 2.2208 8.1486 3.67041 10.7426
227 1 -1.1104 9.80349 -0.41155 12.3868
228 1 -1.1104 9.52739 -0.717562 9.34064
9776 2 2.2208 -0.228965 0.847876 10.9868
412 2 2.2208 10.9266 3.49558 13.5091
236 1 -1.1104 1.2042 4.94481 6.68019
324 2 2.2208 11.0224 20.4509 7.97566
229 1 -1.1104 12.2823 18.8801 9.46943
239 1 -1.1104 3.86303 4.91305 6.55578
62 1 -1.1104 0.862455 10.8818 6.68495
78 1 -1.1104 3.91442 10.6029 6.74332
240 2 2.2208 5.34082 6.62766 10.9211
241 2 2.2208 5.12278 12.0163 10.7625
242 1 -1.1104 0.877885 7.81876 12.3893
244 1 -1.1104 1.1685 7.85026 9.60108
246 1 -1.1104 1.25759 4.90509 12.1798
247 1 -1.1104 1.09086 10.4831 12.2263
250 2 2.2208 5.32807 9.1765 7.95609
251 1 -1.1104 1.12837 5.17126 9.47953
252 1 -1.1104 1.19522 10.6352 9.54108
255 1 -1.1104 3.72932 7.78608 12.353
256 2 2.2208 2.50242 6.55471 8.12827
257 2 2.2208 2.57716 12.1266 8.08535
258 1 -1.1104 4.0435 7.89942 9.43656
259 2 2.2208 2.55307 9.31239 10.8788
260 1 -1.1104 3.92195 5.12729 12.0272
261 1 -1.1104 4.07351 10.5007 12.0759
262 1 -1.1104 3.95549 5.13009 9.31618
263 1 -1.1104 4.02816 10.7081 9.25243
249 1 -1.1104 6.87645 10.595 12.2408
253 1 -1.1104 6.67198 5.16498 9.47183
248 1 -1.1104 6.77942 4.98693 12.1191
331 2 2.2208 13.5585 20.3869 10.9688
204 1 -1.1104 12.2438 13.4299 9.352
297 1 -1.1104 6.5032 13.1185 12.4196
319 1 -1.1104 9.61225 13.2832 9.47652
267 1 -1.1104 9.45112 7.87828 6.69097
165 2 2.2208 13.5862 17.7493 2.3047
269 1 -1.1104 9.59476 4.91789 6.4643
245 1 -1.1104 6.66318 7.91147 9.40696
243 1 -1.1104 6.64507 7.94521 12.2075
254 1 -1.1104 6.70147 10.6489 9.39565
264 1 -1.1104 9.63688 10.5811 9.50629
268 1 -1.1104 9.41923 5.0872 9.34721
270 1 -1.1104 9.48838 10.4126 12.2621
271 1 -1.1104 9.55932 4.76415 12.101
272 2 2.2208 8.14141 9.26125 10.7603
273 1 -1.1104 9.54325 7.75631 9.33965
274 2 2.2208 8.26135 11.9055 8.01722
275 2 2.2208 8.02447 6.52974 7.9665
276 2 2.2208 10.9575 6.41769 10.8052
277 2 2.2208 11.0795 12.0221 10.8658
278 1 -1.1104 12.4447 7.95597 12.1837
279 1 -1.1104 12.3829 7.95062 9.30224
280 1 -1.1104 12.4019 4.99888 12.2102
281 1 -1.1104 12.3516 10.7347 12.2279
282 2 2.2208 10.8592 9.3129 8.09701
283 1 -1.1104 12.582 5.29401 9.47893
284 1 -1.1104 12.4322 10.7019 9.58849
285 1 -1.1104 9.68006 7.57646 12.1896
9709 2 2.2208 -0.251055 6.39164 10.9432
9701 2 2.2208 -0.238968 12.102 10.8857
537 2 2.2208 11.0618 14.8146 13.5236
322 1 -1.1104 9.61262 13.4615 12.2042
124 1 -1.1104 3.74742 13.3214 6.63376
286 1 -1.1104 3.99331 19.1619 12.0479
287 1 -1.1104 3.70011 13.484 12.1425
291 1 -1.1104 0.864498 19.2115 9.51144
292 1 -1.1104 1.16182 16.2032 9.27011
293 2 2.2208 5.30085 20.6019 8.00979
294 1 -1.1104 1.1033 13.5475 9.57351
295 2 2.2208 5.43398 14.8295 8.02301
298 1 -1.1104 1.25255 19.1939 12.1529
299 1 -1.1104 1.04528 13.3974 12.2855
300 2 2.2208 5.44211 17.6104 10.9185
301 1 -1.1104 3.74151 19.1128 9.403
303 2 2.2208 2.39292 17.8133 7.97556
304 1 -1.1104 4.04798 16.2383 9.45734
305 1 -1.1104 3.98445 13.5188 9.22629
307 1 -1.1104 0.982118 16.3043 12.1969
308 1 -1.1104 3.998 16.2617 12.2711
309 2 2.2208 2.48622 20.5416 10.8454
310 2 2.2208 2.56493 14.881 10.6711
289 1 -1.1104 6.7086 16.1461 9.5516
575 2 2.2208 8.03598 20.4616 -0.248683
201 1 -1.1104 12.2003 18.8761 12.3639
230 1 -1.1104 12.3103 16.2474 12.1257
81 2 2.2208 10.936 17.6438 10.7823
118 1 -1.1104 6.64424 16.2424 6.67021
200 1 -1.1104 12.3705 13.5701 12.2935
315 1 -1.1104 9.45452 16.3242 12.1538
290 1 -1.1104 6.85155 13.3551 9.39502
325 2 2.2208 11.0293 14.9168 7.92372
323 1 -1.1104 12.3934 16.1622 9.37409
320 2 2.2208 8.01788 17.5706 8.11848
409 2 2.2208 -0.355472 14.8253 13.5828
50 2 2.2208 13.6076 -1.95343 5.15859
9775 2 2.2208 -0.276771 -1.91656 8.13426
82 2 2.2208 -0.386068 9.17148 2.46589
683 2 2.2208 2.45556 20.5982 -0.346668
374 2 2.2208 13.6337 14.7817 -0.381609
656 2 2.2208 10.8911 11.9754 -0.38321
448 2 2.2208 2.40073 12.0231 13.6618
684 2 2.2208 5.1427 17.7455 -0.25856
654 2 2.2208 10.8769 6.62785 -0.365664
509 2 2.2208 2.53858 17.5473 13.6225
574 2 2.2208 10.9778 17.5282 -0.367418
334 2 2.2208 8.1458 -4.67347 13.5058
335 2 2.2208 13.6687 -4.79778 13.6248
566 2 2.2208 2.42363 3.5253 -0.343168
630 2 2.2208 2.47549 9.25787 -0.353249
685 2 2.2208 2.39929 14.8647 -0.333603
596 2 2.2208 8.06659 3.59794 -0.355733
572 2 2.2208 -0.189175 0.729198 -0.352408
511 2 2.2208 5.21667 14.6852 13.6377
336 2 2.2208 11.0596 -1.96769 13.5501
333 2 2.2208 5.29395 -1.99009 13.5359
337 2 2.2208 5.33092 0.814195 16.3928
338 1 -1.1104 1.29091 -3.36498 17.7248
339 1 -1.1104 1.24515 2.11581 17.9269
342 1 -1.1104 1.12253 -3.37212 14.9346
344 1 -1.1104 0.990396 2.05512 15.2742
350 1 -1.1104 0.993986 -0.63236 17.918
352 2 2.2208 5.15159 -2.10065 19.3354
354 1 -1.1104 1.10692 -0.639691 15.2337
358 1 -1.1104 3.97565 -3.50873 17.8032
359 1 -1.1104 3.9383 2.21556 17.7074
360 2 2.2208 2.58956 0.754097 19.3121
361 1 -1.1104 4.10553 -3.35337 15.1194
363 1 -1.1104 4.03842 2.18981 15.0319
365 2 2.2208 2.63776 -1.96336 16.403
366 2 2.2208 2.39994 3.55179 16.4084
367 1 -1.1104 3.91745 -0.753507 18.0631
368 1 -1.1104 3.94748 -0.570478 14.7746
353 2 2.2208 5.34268 3.54798 19.2689
372 2 2.2208 2.6173 -4.82202 19.2201
343 1 -1.1104 1.00518 -3.42922 20.6606
567 2 2.2208 -0.38145 -4.77929 27.7177
340 1 -1.1104 6.73226 -3.55042 17.9517
594 2 2.2208 10.9088 0.843941 27.7342
9856 2 2.2208 13.5922 -4.78064 19.4231
405 2 2.2208 10.9077 -4.72271 16.3804
369 1 -1.1104 3.70291 -0.730595 20.9566
362 1 -1.1104 3.78294 -3.43347 20.6115
602 2 2.2208 13.6368 -1.90859 22.1364
407 2 2.2208 -0.348243 20.3422 13.9101
691 1 -1.1104 9.37676 16.2089 23.6949
9854 2 2.2208 -0.320448 3.4327 19.2435
356 1 -1.1104 6.71348 -0.498574 15.0093
348 1 -1.1104 6.74778 2.31665 15.1043
351 1 -1.1104 6.6865 -0.775018 17.813
346 1 -1.1104 6.83921 -3.32576 14.9
341 1 -1.1104 6.57874 2.02937 17.8318
380 2 2.2208 10.9592 0.829513 16.3994
381 1 -1.1104 12.3458 -3.3928 17.9233
382 1 -1.1104 12.186 2.27473 17.7866
383 1 -1.1104 12.4285 -3.36473 15.0135
385 1 -1.1104 12.3077 2.18666 14.9855
387 1 -1.1104 12.4869 -0.57124 17.7344
388 2 2.2208 10.9598 -1.8591 19.0879
389 2 2.2208 10.8663 3.64642 19.1978
390 1 -1.1104 12.2123 -0.549729 15.1714
392 1 -1.1104 9.52276 -3.2031 17.8509
393 1 -1.1104 9.36173 2.27428 17.7865
394 2 2.2208 8.024 0.733416 19.3065
395 1 -1.1104 9.6553 -3.36603 14.9546
397 1 -1.1104 9.48782 2.23048 14.9561
399 2 2.2208 8.0779 -1.91386 16.4149
401 1 -1.1104 9.67546 -0.287147 18.0119
402 1 -1.1104 9.50889 -0.654646 14.962
400 2 2.2208 8.03435 3.56768 16.5364
373 2 2.2208 13.6142 17.6391 24.7342
391 1 -1.1104 12.2817 -0.443629 20.4792
384 1 -1.1104 12.324 -3.27451 20.6998
398 1 -1.1104 9.48629 2.1977 20.6216
396 1 -1.1104 9.55042 -3.44737 20.7987
347 1 -1.1104 6.59254 -3.48003 20.711
693 2 2.2208 8.00105 14.9478 22.346
413 2 2.2208 5.20045 6.38874 16.3345
414 2 2.2208 5.33221 12.0004 16.5616
415 1 -1.1104 1.14212 7.7097 17.8059
417 1 -1.1104 1.12028 7.75387 15.131
421 1 -1.1104 0.950669 4.99348 17.784
422 1 -1.1104 1.29528 10.4173 17.9867
425 2 2.2208 5.26876 9.13741 19.2851
426 1 -1.1104 1.05326 4.90709 14.9176
428 1 -1.1104 1.11586 10.5114 14.9817
434 1 -1.1104 3.72998 7.82598 17.8836
435 2 2.2208 2.51145 6.19118 19.1767
436 2 2.2208 2.44173 11.8654 19.381
437 1 -1.1104 4.00685 7.65333 15.0539
439 2 2.2208 2.52375 9.12158 16.3672
440 1 -1.1104 3.83714 4.91844 17.8982
441 1 -1.1104 3.98923 10.5652 17.7142
442 1 -1.1104 3.70152 5.01671 15.1673
444 1 -1.1104 3.97449 10.5826 14.9341
599 2 2.2208 10.9624 -4.80453 22.0976
429 1 -1.1104 1.03656 10.3943 20.6482
430 1 -1.1104 6.75228 4.96518 15.1256
629 2 2.2208 5.21677 6.32002 27.6496
438 1 -1.1104 3.69902 7.60523 20.6573
445 1 -1.1104 3.80634 10.3458 20.4814
713 2 2.2208 13.6053 9.0996 16.3153
695 1 -1.1104 9.59424 13.4393 26.3455
419 1 -1.1104 6.71554 7.67559 14.9829
432 1 -1.1104 6.79874 10.6092 15.2323
423 1 -1.1104 6.54942 4.86386 17.9279
424 1 -1.1104 6.75383 10.458 18.0277
416 1 -1.1104 6.57444 7.69085 17.7854
449 2 2.2208 10.8966 6.36816 16.26
450 2 2.2208 10.8201 12.0259 16.4529
451 1 -1.1104 12.3818 8.00616 17.9017
452 1 -1.1104 12.4978 7.59918 14.947
454 1 -1.1104 12.2232 4.97454 17.6669
455 1 -1.1104 12.302 10.7693 18.0433
456 2 2.2208 10.9299 9.33641 19.2197
457 1 -1.1104 12.3054 5.00673 14.9512
459 1 -1.1104 12.3463 10.5067 14.9124
461 1 -1.1104 9.51611 7.54331 17.893
462 2 2.2208 8.11007 6.37709 19.2549
463 2 2.2208 7.89727 12.0639 19.3956
464 1 -1.1104 9.4302 7.70392 15.1232
466 2 2.2208 8.05512 9.10429 16.5255
467 1 -1.1104 9.33508 4.95005 17.8848
468 1 -1.1104 9.56805 10.4708 17.6896
469 1 -1.1104 9.60243 5.0016 14.8673
471 1 -1.1104 9.62693 10.5219 14.9545
433 1 -1.1104 6.60647 10.6638 20.8078
472 1 -1.1104 9.47957 10.6921 20.4601
465 1 -1.1104 9.42549 7.83988 20.8613
705 1 -1.1104 12.2934 13.4352 26.3891
460 1 -1.1104 12.361 10.5977 20.6729
453 1 -1.1104 12.1378 7.75389 20.5438
458 1 -1.1104 12.258 4.9659 20.8507
694 1 -1.1104 9.35274 19.0018 26.4603
690 1 -1.1104 9.38018 16.2161 26.4881
496 1 -1.1104 6.60149 16.0807 20.7695
699 1 -1.1104 9.54908 13.3435 23.6028
476 2 2.2208 5.28303 17.6069 16.3723
477 1 -1.1104 1.12881 13.2475 18.0536
478 1 -1.1104 1.12365 19.0331 18.0157
481 1 -1.1104 0.987875 13.331 15.1713
483 1 -1.1104 0.951035 18.8882 15.139
489 1 -1.1104 1.02001 16.1243 18.0967
491 2 2.2208 5.18244 14.8716 19.3
492 2 2.2208 5.1079 20.4111 19.203
493 1 -1.1104 1.12294 16.2124 15.1519
497 1 -1.1104 3.91359 13.4559 17.9491
498 1 -1.1104 4.13285 18.9196 17.7862
499 2 2.2208 2.35314 17.5875 19.3128
500 1 -1.1104 3.81195 13.3625 15.0036
502 1 -1.1104 3.79192 18.9734 15.0148
504 2 2.2208 2.48602 14.7056 16.4176
505 2 2.2208 2.40192 20.44 16.4266
506 1 -1.1104 3.78652 16.1806 17.9514
507 1 -1.1104 3.86601 16.1329 14.9371
482 1 -1.1104 0.973538 13.3259 20.7142
494 1 -1.1104 0.94249 16.0563 20.8075
487 1 -1.1104 6.66055 18.7736 15.0846
501 1 -1.1104 3.97366 13.1858 20.8396
490 1 -1.1104 6.52664 16.3415 17.8914
485 1 -1.1104 6.72308 13.3913 15.2164
488 1 -1.1104 6.52327 18.8561 20.6261
706 1 -1.1104 12.0526 19.0943 23.3853
700 1 -1.1104 12.4534 16.1858 26.4186
528 1 -1.1104 9.4386 13.3955 20.619
570 2 2.2208 5.24988 -4.77745 22.1402
495 1 -1.1104 6.57093 16.127 14.9966
516 1 -1.1104 12.2488 13.4277 20.9262
479 1 -1.1104 6.71155 13.6529 18.058
480 1 -1.1104 6.79265 18.9779 17.8663
512 2 2.2208 10.878 17.5931 16.5332
513 1 -1.1104 12.2388 13.3135 17.8034
514 1 -1.1104 12.377 19.0146 17.9411
515 1 -1.1104 12.3638 13.2552 15.0297
517 1 -1.1104 12.2628 19.1333 15.1265
519 1 -1.1104 12.2212 16.1352 17.8277
520 2 2.2208 10.7318 14.7141 19.2998
521 2 2.2208 10.9059 20.2311 19.3729
522 1 -1.1104 12.2975 15.9961 14.9993
524 1 -1.1104 9.30203 13.2808 17.7109
525 1 -1.1104 9.71976 18.962 17.9902
526 2 2.2208 8.00766 17.4785 19.4133
527 1 -1.1104 9.47498 13.3564 14.9703
529 1 -1.1104 9.62318 19.0944 15.26
531 2 2.2208 8.10378 14.8855 16.5012
532 2 2.2208 8.23151 20.4377 16.5207
533 1 -1.1104 9.33343 16.1585 17.9808
534 1 -1.1104 9.45435 16.3727 15.2235
523 1 -1.1104 12.0692 16.1959 20.7104
530 1 -1.1104 9.21661 18.627 20.8836
486 1 -1.1104 6.64565 13.2929 20.8218
518 1 -1.1104 12.208 18.9811 20.7944
702 2 2.2208 10.9389 14.8251 24.8534
535 1 -1.1104 9.44538 16.0647 20.8667
9812 2 2.2208 -0.378737 3.35536 24.988
345 1 -1.1104 1.0983 2.0462 20.6573
10138 2 2.2208 -0.202351 -2.1465 19.0706
378 2 2.2208 2.45194 0.897861 13.7433
603 2 2.2208 13.6639 0.816842 24.9521
709 2 2.2208 13.6367 3.56475 16.2945
355 1 -1.1104 1.03094 -0.717698 20.6898
364 1 -1.1104 4.00373 2.00663 20.6258
540 2 2.2208 5.34023 0.741712 22.1241
541 1 -1.1104 1.17189 -3.58633 23.5298
542 1 -1.1104 1.09239 2.25644 23.4714
545 1 -1.1104 0.94666 -3.38736 26.2773
546 1 -1.1104 1.13815 2.10453 26.2389
549 1 -1.1104 1.17581 -0.796888 23.5705
551 2 2.2208 5.30337 -2.09533 24.9536
552 2 2.2208 5.27014 3.40268 24.875
553 1 -1.1104 1.20319 -0.705226 26.228
555 1 -1.1104 3.80158 -3.49757 23.573
556 1 -1.1104 3.9442 2.03807 23.6526
557 2 2.2208 2.66953 0.637859 24.965
558 1 -1.1104 3.76585 -3.60264 26.448
559 1 -1.1104 3.91907 2.16453 26.444
560 2 2.2208 2.46316 -2.16915 22.2281
562 1 -1.1104 3.96011 -0.777 23.5619
563 1 -1.1104 3.93994 -0.679406 26.1799
561 2 2.2208 2.42954 3.45543 22.0639
565 2 2.2208 2.48928 -2.14676 27.6661
543 1 -1.1104 6.78436 -3.30304 23.366
550 1 -1.1104 6.74602 -0.466144 23.4261
633 2 2.2208 -0.293146 9.11689 25.0086
707 1 -1.1104 12.3678 13.4626 23.5506
692 2 2.2208 8.10394 20.2624 22.0449
357 1 -1.1104 6.52403 -0.663494 20.7377
386 1 -1.1104 12.3258 2.28417 20.7674
403 1 -1.1104 9.35748 -0.602945 20.7958
604 2 2.2208 13.6307 3.63077 27.7249
548 1 -1.1104 6.79174 2.03609 26.3438
544 1 -1.1104 6.76442 2.26108 23.6096
349 1 -1.1104 6.8084 2.23036 20.8167
554 1 -1.1104 6.53036 -0.720037 26.2877
547 1 -1.1104 6.68431 -3.572 26.2844
576 2 2.2208 10.8753 0.870359 22.1317
577 1 -1.1104 12.2347 -3.44382 23.4395
578 1 -1.1104 12.306 2.36606 23.5858
579 1 -1.1104 12.5064 -3.34574 26.4102
580 1 -1.1104 12.3194 2.06531 26.5009
581 1 -1.1104 12.471 -0.600732 23.5232
582 2 2.2208 11.0082 -2.06435 24.9582
584 1 -1.1104 12.2424 -0.645202 26.3115
585 1 -1.1104 9.4609 -3.25006 23.3875
586 1 -1.1104 9.61932 2.285 23.6128
587 2 2.2208 8.15433 0.868459 24.9216
588 1 -1.1104 9.53968 -3.61397 26.1121
589 1 -1.1104 9.4471 2.33855 26.4603
590 2 2.2208 8.10524 -1.97876 22.0634
592 1 -1.1104 9.60673 -0.368606 23.6801
593 1 -1.1104 9.52607 -0.563669 26.3535
591 2 2.2208 8.25837 3.63381 21.9651
583 2 2.2208 10.8392 3.78897 24.8634
701 2 2.2208 10.8773 20.4659 24.9441
661 1 -1.1104 6.59156 13.4651 26.3483
573 2 2.2208 -0.271509 -1.92543 24.8607
510 2 2.2208 5.28597 20.3951 13.7333
418 1 -1.1104 0.856317 7.66868 20.7791
678 1 -1.1104 6.68157 16.2954 23.6973
427 1 -1.1104 1.07382 4.79804 20.7201
443 1 -1.1104 3.8823 4.88587 20.8415
605 2 2.2208 5.22539 6.3572 22.0156
606 2 2.2208 5.23413 11.8689 22.1655
607 1 -1.1104 1.13111 7.95541 23.7093
609 1 -1.1104 0.962427 7.72388 26.6303
611 1 -1.1104 0.881476 5.00964 23.6626
612 1 -1.1104 1.05613 10.9505 23.3519
615 2 2.2208 5.06672 9.15484 24.9673
616 1 -1.1104 0.914409 4.80137 26.2576
617 1 -1.1104 1.08304 10.594 26.3002
620 1 -1.1104 3.79066 7.82246 23.4863
621 2 2.2208 2.42572 6.37241 25.0745
622 2 2.2208 2.35612 12.074 24.9179
623 1 -1.1104 3.75899 7.8907 26.4698
624 2 2.2208 2.40589 9.14677 21.9681
625 1 -1.1104 3.81578 5.05342 23.6908
626 1 -1.1104 3.8701 10.4965 23.4193
627 1 -1.1104 3.78608 4.99588 26.4901
628 1 -1.1104 3.76223 10.8112 26.2443
618 1 -1.1104 6.63254 4.90122 26.3124
376 2 2.2208 13.5241 9.07151 22.0698
631 2 2.2208 5.30085 11.9986 27.7184
420 1 -1.1104 6.6236 7.6946 20.6542
538 2 2.2208 8.20037 17.6656 13.8397
9816 2 2.2208 -0.220838 0.560726 22.0449
619 1 -1.1104 6.62186 10.5775 26.4671
431 1 -1.1104 6.589 4.76856 20.595
470 1 -1.1104 9.53006 5.09324 20.7054
614 1 -1.1104 6.73433 10.4881 23.7822
608 1 -1.1104 6.45 7.88812 23.3651
610 1 -1.1104 6.48432 7.6318 26.2127
613 1 -1.1104 6.67264 5.07464 23.4211
636 1 -1.1104 9.43256 10.597 26.2595
637 1 -1.1104 9.37283 5.017 26.2639
638 1 -1.1104 9.43025 10.6552 23.3449
639 1 -1.1104 9.42404 5.26901 23.5011
640 2 2.2208 7.95946 9.26794 22.2251
641 1 -1.1104 9.41597 7.84818 26.3072
642 2 2.2208 8.12275 11.9502 24.9697
643 2 2.2208 8.01362 6.47569 24.7305
644 2 2.2208 10.6847 6.56592 21.9605
645 2 2.2208 10.933 12.0471 21.9857
646 1 -1.1104 12.1568 7.76663 23.546
647 1 -1.1104 12.4665 8.02664 26.3255
648 1 -1.1104 12.3559 5.08481 23.6682
649 1 -1.1104 12.3091 10.6275 23.304
650 2 2.2208 10.8025 9.33746 24.9041
651 1 -1.1104 12.102 5.04974 26.3557
652 1 -1.1104 12.2109 10.8832 26.0762
653 1 -1.1104 9.41059 8.1193 23.6011
704 1 -1.1104 12.1622 18.9762 26.1336
697 2 2.2208 8.07717 17.702 25.0421
721 2 2.2208 -0.273092 20.4987 19.3209
663 1 -1.1104 6.81666 16.2441 26.3377
696 1 -1.1104 6.70444 19.0919 26.2964
667 1 -1.1104 6.63008 19.0109 23.4684
484 1 -1.1104 1.05036 18.8716 20.8134
503 1 -1.1104 3.69501 19.0221 20.5798
508 1 -1.1104 3.66798 16.2468 20.5204
665 1 -1.1104 0.904265 16.2675 26.2495
682 2 2.2208 2.40816 14.6797 22.1322
664 1 -1.1104 1.10392 19.2529 26.467
681 2 2.2208 2.55527 20.3802 22.0589
673 2 2.2208 5.22812 17.5105 22.1425
680 1 -1.1104 3.86955 16.0528 23.4659
672 1 -1.1104 0.922996 13.505 23.5653
671 1 -1.1104 0.960625 19.0302 23.6395
669 2 2.2208 5.23362 14.8615 24.9155
668 2 2.2208 5.32952 20.5132 25.033
679 1 -1.1104 0.997842 16.1881 23.3993
677 1 -1.1104 3.72377 13.5655 26.2932
676 1 -1.1104 3.9742 16.3678 26.2253
675 2 2.2208 2.41466 17.6947 24.9247
666 1 -1.1104 1.03975 13.5601 26.3304
674 1 -1.1104 3.76346 19.1278 26.3913
660 1 -1.1104 3.74492 19.0715 23.5559
662 1 -1.1104 3.85672 13.3372 23.5624
670 1 -1.1104 6.59417 13.4024 23.456
9926 2 2.2208 -0.192811 9.02479 19.268
698 1 -1.1104 9.43483 19.0841 23.5865
703 1 -1.1104 12.2073 16.2759 23.5225
411 2 2.2208 -0.261333 17.4434 16.5284
708 2 2.2208 10.7247 17.5337 22.1535
564 2 2.2208 5.32953 0.775278 27.59
717 2 2.2208 -0.209947 11.9367 16.6233
598 2 2.2208 10.9841 -4.7278 27.7189
10137 2 2.2208 -0.34438 0.676096 16.6364
719 2 2.2208 13.526 17.6429 19.3078
408 2 2.2208 7.97554 14.9348 27.6552
10105 2 2.2208 -0.298078 6.23609 22.0889
595 2 2.2208 8.01281 -2.02475 27.6755
370 2 2.2208 13.615 14.791 22.0287
475 2 2.2208 8.20937 11.9552 13.7019
375 2 2.2208 13.6142 20.4992 27.56
655 2 2.2208 8.04166 9.15046 27.716
379 2 2.2208 5.4003 3.60915 13.7548
446 2 2.2208 2.35599 6.46941 13.6787
536 2 2.2208 10.8929 20.4112 13.6701
723 2 2.2208 5.35111 23.3326 5.16273
724 2 2.2208 5.23538 28.7744 5.22086
725 1 -1.1104 1.12745 24.4705 1.00369
726 1 -1.1104 0.880661 24.578 3.68175
727 1 -1.1104 0.944725 21.7477 0.945327
728 1 -1.1104 1.11628 27.3714 1.01575
729 2 2.2208 5.24375 25.9248 2.42313
730 1 -1.1104 1.09839 21.7751 3.8165
731 1 -1.1104 1.02951 27.34 3.92632
732 1 -1.1104 3.93986 24.6759 0.982279
733 2 2.2208 2.39322 23.2312 2.4954
734 2 2.2208 2.58044 28.6977 2.48329
735 1 -1.1104 3.7468 24.6321 3.79253
736 2 2.2208 2.6275 26.0295 5.26253
737 1 -1.1104 3.76786 21.9828 0.960482
738 1 -1.1104 4.01244 27.4355 1.12757
739 1 -1.1104 3.78929 21.9108 3.79811
740 1 -1.1104 3.95738 27.323 3.81798
749 1 -1.1104 6.93114 27.4729 3.84852
745 1 -1.1104 6.66822 24.863 3.83374
1118 2 2.2208 8.14148 23.2133 13.6018
871 1 -1.1104 4.03187 21.9088 6.48284
870 1 -1.1104 3.94376 24.7355 6.65439
864 1 -1.1104 1.17487 25.0593 6.7899
1216 2 2.2208 -0.256258 42.9534 13.5746
1155 2 2.2208 2.3929 34.6232 13.6189
748 1 -1.1104 6.62261 21.984 3.79551
747 1 -1.1104 6.81037 27.5446 0.943249
744 1 -1.1104 6.6218 24.7519 1.00885
746 1 -1.1104 6.62062 22.0014 0.992262
750 2 2.2208 10.8599 23.4216 5.11049
751 2 2.2208 10.9658 28.7119 5.33361
752 1 -1.1104 12.2449 24.6555 0.966728
753 1 -1.1104 12.2378 24.6646 3.73051
754 1 -1.1104 12.2095 21.8619 0.99054
755 1 -1.1104 12.2145 27.4895 1.06108
756 2 2.2208 10.8237 26.1006 2.53291
757 1 -1.1104 12.2232 21.7901 3.91286
758 1 -1.1104 12.4648 27.5407 4.07835
759 1 -1.1104 9.5223 24.6019 1.08215
760 2 2.2208 8.04631 23.3701 2.33948
761 2 2.2208 8.12038 28.8347 2.52209
762 1 -1.1104 9.44733 24.6476 3.94808
763 2 2.2208 8.12963 26.0095 5.2511
764 1 -1.1104 9.46217 21.8004 0.857156
765 1 -1.1104 9.51798 27.4029 1.05121
766 1 -1.1104 9.41762 21.875 3.60805
767 1 -1.1104 9.62832 27.5013 4.00218
865 1 -1.1104 6.778 24.6115 6.54485
899 1 -1.1104 12.2437 27.2341 6.83579
898 1 -1.1104 12.4451 21.8714 6.56186
1673 1 -1.1104 9.61352 47.1282 6.5094
900 1 -1.1104 9.55697 24.5239 6.79634
897 1 -1.1104 12.1112 24.6327 6.49607
901 1 -1.1104 9.59802 21.8347 6.63996
1041 2 2.2208 13.5826 31.7343 5.39039
769 2 2.2208 13.6411 28.9211 2.38983
771 2 2.2208 5.08811 34.5446 5.33486
772 1 -1.1104 1.17276 30.2427 0.820221
773 1 -1.1104 1.13543 35.9122 1.11835
775 1 -1.1104 0.991037 30.1807 3.80354
776 1 -1.1104 1.0607 36.0626 3.87976
778 1 -1.1104 0.953755 33.2186 1.12347
779 2 2.2208 5.39289 31.6972 2.4859
780 2 2.2208 5.28071 37.3629 2.46466
781 1 -1.1104 1.01853 32.9392 3.9001
783 1 -1.1104 3.89753 30.1661 0.980323
784 1 -1.1104 3.8901 35.7538 0.833524
785 2 2.2208 2.38341 34.5017 2.43714
786 1 -1.1104 3.86563 30.0857 3.90319
787 1 -1.1104 3.81636 35.9051 3.7058
788 2 2.2208 2.27501 31.5752 5.34279
789 2 2.2208 2.27761 37.3668 5.34362
790 1 -1.1104 3.7693 32.9052 1.03402
791 1 -1.1104 3.6769 33.0333 3.96621
925 1 -1.1104 0.97357 33.0299 6.67271
927 1 -1.1104 3.80466 30.2595 6.61605
928 1 -1.1104 3.71336 35.9519 6.4947
1692 1 -1.1104 9.5209 47.0042 9.42512
777 1 -1.1104 6.75494 35.9683 4.009
782 1 -1.1104 6.47532 33.3001 3.97443
774 1 -1.1104 6.66298 36.0481 1.09876
795 1 -1.1104 6.68826 30.3369 1.00759
796 1 -1.1104 6.6956 30.4286 3.86569
797 1 -1.1104 6.74189 33.2778 1.02128
839 1 -1.1104 3.73051 38.7608 3.71012
929 1 -1.1104 3.72898 33.1321 6.85629
924 1 -1.1104 6.68352 35.9306 6.74577
1269 2 2.2208 2.67076 26.0597 -0.299626
1451 1 -1.1104 6.4888 47.0328 3.76073
1219 2 2.2208 2.60161 45.781 13.628
798 2 2.2208 10.7928 34.5249 5.27
799 1 -1.1104 12.4039 30.4307 0.988278
800 1 -1.1104 12.3924 36.0145 1.07917
801 1 -1.1104 12.2041 30.288 4.01804
802 1 -1.1104 12.2802 36.0497 3.82674
803 1 -1.1104 12.1812 33.2636 1.11854
804 2 2.2208 10.8283 31.7177 2.51547
805 2 2.2208 10.8013 37.2846 2.53301
806 1 -1.1104 12.2694 33.0993 3.78065
807 1 -1.1104 9.60064 30.4144 1.23678
808 1 -1.1104 9.44668 36.023 1.05398