ITEM: TIMESTEP
100000
ITEM: NUMBER OF ATOMS
18000
ITEM: BOX BOUNDS pp pp pp
-4.9809256865390411e-01 2.7838092568654016e+01
-5.7956484367552923e+00 3.3387564843674721e+02
-4.9248214924729566e-01 2.7832482149247618e+01
ITEM: ATOMS id type x y z
3673 2 4.905 -0.243365 5.25311
5 2 2.03643 -3.30953 2.40542
6 1 2.20741 -0.873683 4.67448
14 2 5.49657 -3.13489 2.54646
3604 2 2.44612 -3.11799 5.7097
12 1 3.7941 -2.68306 3.96733
3551 1 4.73067 -1.15182 2.21672
3547 1 3.87336 -3.15101 0.76722
14406 1 0.577176 -1.40142 2.65272
3600 1 0.438537 -3.40703 4.32251
63 2 2.34746 0.0347978 2.47311
3548 1 2.53731 -4.91807 4.23661
54 1 0.160141 -5.03932 2.2689
10 1 4.47434 -5.38296 2.32928
3595 1 2.39488 -5.1258 0.545868
7 1 2.45498 -1.07395 0.351006
17952 1 0.59519 -3.11175 0.276635
7441 2 -0.506471 16.5851 10.8483
17 1 6.64453 -4.63879 0.991922
196 2 8.00937 14.5003 -0.400624
3747 2 13.6679 5.40373 8.20973
122 2 -0.374464 8.19001 2.56261
3808 2 13.8019 13.6447 5.3261
191 1 2.92396 17.7491 -0.530765
7383 2 2.42139 10.9035 13.8141
20 1 6.85069 -1.86649 3.81804
19 1 6.79535 -1.74328 0.797076
18 1 6.55781 -4.67455 3.88418
3685 2 10.6818 -0.156793 5.57468
29 2 10.7265 -3.41413 2.45881
30 1 12.3809 -1.95603 3.52298
31 1 12.0455 -1.6112 0.963852
26 2 10.6355 -0.401961 2.53079
21 1 9.41344 -1.80522 1.12228
75 2 7.56516 -0.288105 2.24911
22 1 9.63572 -1.80055 3.95321
3616 2 7.93842 -3.35014 5.23792
3571 1 9.37351 -4.60076 1.07155
3572 1 12.2915 -4.82359 3.75261
3564 1 9.23476 -4.62394 3.7694
3583 1 12.0662 -4.28446 0.8007
3621 1 9.31207 -4.50869 6.68794
242 2 -0.610496 19.5237 2.5764
66 1 1.06855 1.32644 3.90622
57 1 0.760474 1.36992 1.05472
70 1 3.82795 1.27337 3.83096
65 1 3.98172 1.36438 1.10895
74 2 5.25259 2.71981 2.428
3664 2 2.28204 2.56563 5.34902
3733 2 5.25975 5.19403 5.2964
68 1 0.938078 4.01744 3.98018
123 2 2.3815 5.5438 2.68413
72 1 3.77744 4.02821 3.92359
14466 1 3.87698 4.28598 1.18004
14518 1 1.01468 3.97182 1.12366
126 1 0.990467 6.87386 3.91665
125 1 0.985771 6.69549 1.3059
67 1 3.66166 6.88048 0.975206
137 1 6.61885 6.65167 0.947382
138 1 6.74203 6.74435 4.02144
69 1 6.54934 4.12324 1.11186
3666 1 0.967284 3.76744 6.853
77 1 6.46711 1.33366 0.988528
259 2 5.22819 19.5679 -0.368349
267 2 13.5164 16.5286 2.35731
32 1 11.9523 0.724924 3.92386
11 1 6.6895 1.15932 3.76231
136 2 8.18447 7.90312 -0.116246
80 1 6.54594 3.93356 3.82182
78 1 6.41886 1.18231 6.49876
23 1 9.40786 0.917794 1.23389
89 1 12.0276 0.988545 1.12858
24 1 9.41836 1.17534 3.77951
14484 1 9.50139 6.63641 1.39658
71 1 9.03808 3.97028 1.29878
90 1 12.0675 3.89963 3.9196
86 2 10.6405 2.95262 2.48133
82 1 9.3157 4.32891 4.06585
3676 2 7.89811 2.51636 5.34622
3745 2 10.8428 5.33745 5.42675
135 2 7.91286 5.43686 2.61411
83 1 11.8067 3.86776 0.93701
142 1 9.31123 6.9004 3.79682
147 2 13.1839 5.20343 2.32888
14492 1 12.3386 6.56943 0.997155
92 1 12.1397 6.63871 3.92803
3741 1 9.45178 6.76598 6.72156
193 2 8.10816 11.1704 -0.260881
3689 1 12.1808 1.31693 6.57922
7321 2 -0.527197 5.29552 10.9388
130 1 3.84048 6.90243 3.83778
3793 2 5.27479 11.0513 5.415
127 1 0.789635 9.42603 1.02718
134 2 5.38424 8.32939 2.44355
128 1 1.05455 9.67218 4.13318
129 1 3.83534 9.63834 0.882589
183 2 2.26548 10.5466 2.50406
3724 2 2.40822 8.13192 5.33558
132 1 3.79342 9.53557 3.75714
186 1 3.55054 12.7425 1.3125
14540 1 6.1585 11.5606 1.29006
3785 1 0.756852 12.3233 1.98495
190 1 3.50845 12.3911 4.04614
140 1 6.51767 9.64574 3.96675
3789 1 0.895709 13.1886 4.49641
198 1 6.6447 12.5753 4.07468
194 2 5.41058 13.828 2.39181
14544 1 7.69028 9.27127 1.58239
241 2 -0.489493 16.5149 -0.358997
3842 2 -0.228529 19.4387 7.99204
205 2 11.3242 10.8793 -0.450452
14598 1 10.1002 8.91034 0.112361
139 1 7.99928 13.2082 1.38296
131 1 9.68932 11.4756 1.07922
3805 2 11.0373 10.9537 4.98426
151 1 12.7654 9.50382 0.800846
146 2 10.8978 8.05554 2.49189
195 2 8.02909 11.2787 2.83155
3736 2 7.99495 8.12696 5.38969
144 1 9.60116 9.59815 3.68221
3809 1 12.2379 12.4105 3.53976
201 1 12.3411 12.3911 1.05369
202 1 9.51484 12.5986 4.00043
150 1 12.2562 9.67122 3.59031
3869 1 12.2839 17.9905 6.6632
7262 2 -0.421994 2.75796 13.6546
3794 2 2.55954 13.7939 5.7282
3784 2 2.20034 13.8781 2.68523
3787 1 0.673155 15.4456 3.50149
3853 2 5.19543 16.5824 5.15447
245 1 0.621406 18.008 1.03322
246 1 0.680383 18.1921 4.11802
188 1 0.647425 14.7019 0.804028
243 2 2.4995 17.4252 2.28906
250 1 3.6864 17.9836 4.11138
3844 2 2.26397 19.55 5.3174
192 1 3.93654 15.1258 3.93698
257 1 3.27709 15.4999 1.49677
254 2 5.34089 19.6612 2.77522
263 1 4.62173 18.1206 1.41593
249 1 2.69575 19.846 1.67178
1 2 0.261742 -5.62069 -0.145115
189 1 5.67566 13.881 0.186792
3849 1 3.58826 18.2723 6.8471
256 2 8.48733 19.8248 -0.308132
7348 2 13.5982 8.18334 10.9767
200 1 6.54398 15.4065 3.64788
199 1 6.83354 16.0819 0.786301
14718 1 6.93944 19.1777 1.33931
206 2 10.6694 13.959 2.54104
258 1 6.55778 17.9942 3.8452
3796 2 8.15636 13.8201 5.36866
266 2 10.9342 19.5401 2.33199
210 1 12.3078 15.0381 1.09666
3865 2 10.8805 16.4298 5.42766
269 1 9.39318 18.2996 1.04627
270 1 12.2433 18.1031 3.8673
212 1 12.2262 15.2413 3.85169
255 2 7.9974 16.964 2.53128
262 1 9.36239 18.4584 3.78961
203 1 9.52157 15.5967 1.18215
204 1 9.40259 15.2609 3.83833
211 1 12.1326 17.9539 1.05274
3856 2 8.36688 19.7304 5.20385
52 2 -0.216568 -0.827117 -0.37347
3609 1 3.82978 -4.56468 6.82613
3617 1 6.74738 -4.7513 6.63166
3611 1 3.88172 -1.77303 7.02849
8 1 0.924007 -1.96153 6.75218
3605 1 0.916788 -4.68177 6.85691
3607 1 0.849049 -1.82538 9.57156
7273 2 5.20595 -0.503377 10.974
7205 1 0.872024 -4.37427 12.4828
3606 1 1.01635 -4.42714 9.50654
7207 1 0.955934 -1.47094 12.3158
3614 2 5.37814 -3.10705 8.09601
7209 1 3.68832 -4.64771 12.3076
3663 2 2.3958 -0.20093 8.1016
3610 1 3.84623 -4.48274 9.67192
7204 2 2.26031 -2.91786 11.0477
7211 1 3.97995 -1.80613 12.5348
3612 1 3.88133 -1.84263 9.67876
7219 1 6.66233 -1.9583 12.3975
3629 1 12.2991 -4.62012 6.70378
3619 1 6.56422 -1.93299 6.61459
7217 1 6.56207 -4.69624 12.2883
3618 1 6.5604 -4.4173 9.53085
3620 1 6.5496 -1.68583 9.51526
3623 1 9.35731 -1.86355 6.59796
3631 1 12.0477 -1.85086 6.5239
7285 2 10.9365 -0.135688 10.8952
7229 1 12.1174 -4.3502 12.2958
7231 1 12.2211 -1.80207 12.1898
3626 2 10.8216 -3.19146 8.02731
3632 1 12.3359 -1.72519 9.51355
7221 1 9.1773 -4.45867 12.056
3675 2 7.90434 -0.451816 8.07055
3622 1 9.5649 -4.63744 9.29151
7216 2 8.07142 -2.98914 10.7053
7223 1 9.46752 -1.60357 12.0868
3624 1 9.52095 -1.762 9.33397
7172 1 12.3386 -4.58015 9.52486
3811 1 12.42 15.1134 6.85718
79 2 7.96312 2.70333 -0.347507
3665 1 0.677163 1.10905 6.65927
3671 1 3.97257 3.86706 6.62643
84 1 6.65388 6.75266 6.72288
3669 1 3.57959 1.11749 6.79608
3667 1 0.895046 6.5724 6.89786
3729 1 3.84159 6.77634 6.62558
7265 1 0.923487 1.23152 12.221
3668 1 0.804622 6.70737 9.54978
7261 1 0.826791 3.85624 9.62568
3674 2 5.19378 2.53218 8.12818
3608 1 0.862347 1.11463 9.50173
7269 1 3.78831 1.11664 12.1902
3670 1 3.85666 0.977764 9.49862
7264 2 2.36167 2.46007 10.8757
7333 2 5.25459 5.29461 11.063
7267 1 1.03711 4.10219 12.4988
3723 2 2.34947 5.11165 8.1854
7271 1 3.65476 4.14199 12.1402
3672 1 3.77871 3.79009 9.2776
7325 1 0.769122 6.64602 12.4496
7329 1 3.53085 6.71149 12.4033
3730 1 3.80453 6.63551 9.5574
7277 1 6.66298 0.871415 12.226
3678 1 6.58101 3.95979 9.43673
3680 1 6.7848 6.69483 9.64513
7337 1 6.70509 6.833 12.3691
3679 1 6.7481 3.99412 6.77082
3749 1 12.2962 6.61123 6.57578
3683 1 9.4386 4.02642 6.69787
3677 1 6.7938 1.17017 9.41266
7279 1 6.50374 3.82176 12.221
3691 1 12.3623 3.89324 6.72505
3681 1 9.42391 1.04593 7.13416
7289 1 12.2442 1.05564 12.2597
3682 1 9.5428 1.02059 9.65073
3690 1 12.2268 1.00428 9.34467
3696 1 12.3042 3.94896 9.53301
3686 2 10.909 2.56425 8.30136
7281 1 9.51806 1.13442 12.7601
7276 2 8.1581 2.42098 10.905
3684 1 9.4419 4.08752 9.55617
7283 1 9.30389 3.76269 12.2418
3735 2 8.05418 5.42314 8.09562
7345 2 10.8783 5.35302 11.1102
7291 1 12.0462 3.70884 12.1172
7341 1 9.56761 6.69552 12.5833
3692 1 12.4204 6.89393 9.3953
3742 1 9.53309 6.89156 9.55956
7349 1 12.2926 6.82986 12.0679
3858 1 6.54596 18.0208 9.70054
3628 2 13.6736 -3.25897 5.08624
3737 1 6.70643 9.5703 6.63036
3739 1 6.76265 12.2816 6.59864
3725 1 1.02375 9.47518 6.81169
3731 1 3.85966 9.6867 6.66306
3797 1 4.01028 12.4255 6.8493
3727 1 1.18885 12.3051 6.96013
7393 2 5.02421 10.7915 10.7977
3726 1 0.742712 9.53858 9.44607
7327 1 0.804857 9.37121 12.0646
3734 2 5.22559 8.15507 7.96652
3783 2 2.4369 10.8501 8.35685
7324 2 2.27641 7.96266 10.9469
7331 1 3.74263 9.51472 12.2692
3732 1 3.79923 9.31698 9.45736
7389 1 3.80362 12.3506 12.4008
7385 1 0.984684 12.421 12.4363
3790 1 3.89411 12.2986 9.67224
3728 1 1.02711 12.2671 9.52333
7339 1 6.51307 9.47114 12.2711
7456 2 8.28556 19.4038 10.8851
3738 1 6.53615 9.69745 9.39337
7457 1 6.65781 17.7947 12.5266
7411 1 12.4543 15.4678 12.4055
152 1 12.3847 9.41735 6.62378
3751 1 12.1941 12.4732 6.58204
7396 2 8.27084 13.6788 11.1234
7397 1 6.44102 12.3054 12.1473
3743 1 9.47827 9.59189 6.54749
3740 1 6.74575 12.4832 9.28129
3801 1 9.45465 12.5946 6.85994
7401 1 9.61145 12.2273 12.5582
3744 1 9.49356 9.88124 9.53832
7343 1 9.40563 9.5302 12.3355
7336 2 8.02649 8.11687 11.0441
3795 2 8.00332 11.0385 8.06245
7405 2 10.8924 11.1232 10.8237
3750 1 12.2941 9.40377 9.38076
7351 1 12.1647 9.90323 12.2597
3746 2 10.8409 8.20068 8.12479
3802 1 9.69608 12.5643 9.73803
7409 1 12.3293 12.4739 12.3154
3810 1 12.5116 12.4232 9.39019
3862 1 9.6618 18.085 9.65364
3781 2 -0.470962 10.9752 5.58741
3857 1 6.28689 18.0158 6.81658
7399 1 6.67115 15.0046 12.1936
7403 1 9.53473 15.089 12.239
7465 2 11.1664 16.9101 10.8908
3845 1 0.750855 17.9346 6.80209
3788 1 1.05161 15.1464 6.90991
7384 2 2.56661 13.8643 11.0074
3791 1 3.77158 15.3374 6.83917
3798 2 5.42878 13.9047 8.11919
3854 2 5.22257 19.5162 7.99396
7444 2 2.63512 19.3543 10.9935
3786 1 0.563796 15.0125 9.82237
7449 1 3.80166 18.0701 12.4372
3846 1 1.19505 18.0238 9.52431
7445 1 1.11038 18.2434 12.3705
7453 2 5.28183 16.6526 11.016
3850 1 3.99981 17.9796 9.58156
3843 2 2.52519 16.7727 8.09307
3792 1 3.70185 15.2114 9.37977
7387 1 0.95791 15.4826 12.3232
7391 1 3.83613 15.3731 12.0241
7461 1 9.3832 17.9593 12.2924
3799 1 6.49695 15.136 6.49263
3861 1 9.40228 18.0927 6.85086
3803 1 9.34543 15.3303 6.77629
3806 2 10.8105 13.7892 8.13443
7469 1 12.2858 18.3146 12.2974
3800 1 6.86361 15.3977 9.39482
3804 1 9.70025 15.4088 9.45999
3866 2 11.0833 19.3851 8.09528
3855 2 8.11519 16.8236 8.27244
3870 1 12.3905 17.8282 9.39264
3812 1 12.4807 15.3135 9.68698
3661 2 -0.210237 -0.377047 5.26912
121 2 -0.26506 5.89233 -0.298963
7226 2 10.7774 -3.09389 13.5603
265 2 10.9719 16.8243 -0.388387
73 2 5.06175 -0.295442 -0.231865
3687 2 13.6926 -0.32881 8.13069
133 2 5.0246 5.28103 -0.469241
7381 2 -0.493408 11.0885 10.8595
3782 2 -0.440595 13.9284 8.31533
64 2 2.46976 2.65786 -0.292391
145 2 10.7454 5.62225 -0.45417
7455 2 8.0121 16.5024 13.6772
124 2 2.34803 8.49874 -0.461064
7274 2 5.18334 2.37642 13.5267
7454 2 5.29006 19.5069 13.5826
244 2 1.8622 19.9358 -0.40319
16 2 8.04202 -3.34055 -0.290645
10873 2 5.2109 -0.359391 16.5396
10805 1 0.812773 -4.37712 17.9827
7206 1 1.08811 -4.68694 15.2473
10807 1 1.20955 -1.37392 17.956
10814 2 5.23902 -3.32176 19.4272
7208 1 0.938023 -1.64914 15.216
10809 1 3.55685 -4.4937 18.1177
10863 2 2.52162 -0.393008 19.4076
7210 1 3.91537 -4.70747 15.0961
10804 2 2.35715 -3.05971 16.5106
10811 1 4.05855 -1.89994 18.0162
7212 1 3.80307 -1.71382 15.0737
10819 1 6.74052 -1.94627 18.15
10812 1 3.67006 -1.89959 20.7804
7214 2 5.32916 -3.26698 13.7591
10815 2 8.15018 -5.89525 19.3569
7263 2 2.36288 -0.19971 13.8367
10861 2 -0.188578 -0.0190802 16.7166
10817 1 6.74027 -4.65566 17.8667
7220 1 6.70468 -1.83406 15.205
7334 2 5.17918 8.00209 13.7228
7218 1 6.69965 -4.49872 15.055
10885 2 10.7166 -0.255041 16.583
10829 1 12.4266 -4.68602 17.9583
7230 1 12.2847 -4.2787 15.2455
10831 1 12.1523 -1.58488 18.0646
10826 2 10.808 -3.19741 19.4381
7232 1 12.312 -1.67148 15.1324
10821 1 9.64598 -4.5635 18.0564
10875 2 8.05099 -0.350367 19.4855
7222 1 9.41368 -4.6129 15.1318
10816 2 8.00831 -3.23328 16.4782
10823 1 9.34345 -1.70776 17.837
7224 1 9.34491 -1.94267 14.8279
11067 2 13.5591 16.8585 19.2755
7227 2 13.656 -5.65525 13.749
14461 2 -0.437395 -0.263146 22.1446
14528 1 2.12097 11.3299 27.7188
14547 2 13.569 5.29836 24.943
10869 1 3.74585 0.890264 17.9093
10865 1 1.15412 1.24885 18.1566
7266 1 0.980603 1.18018 15.1706
10874 2 5.14215 2.4787 19.4642
7270 1 3.87535 1.02795 15.1607
10864 2 2.37393 2.57024 16.6497
10933 2 5.17127 5.11035 16.363
10925 1 0.807821 6.82815 17.94
7326 1 0.850138 6.85214 15.3553
10867 1 1.05842 4.09483 18.1072
7268 1 1.05865 3.98783 15.4199
10923 2 2.27985 5.55201 19.4799
7330 1 3.84568 6.65268 15.1441
10871 1 3.8593 4.0371 17.8924
7272 1 3.68268 4.05003 15.1416
10929 1 3.67256 6.78752 17.8816
10877 1 6.39648 1.07608 18.0467
10868 1 0.968782 4.17485 20.843
7278 1 6.6066 0.926197 15.0591
10926 1 0.829648 6.8574 20.7557
10866 1 0.895228 1.2313 20.9244
10872 1 3.86149 3.72701 20.8474
10880 1 6.57374 3.955 20.8121
7346 2 10.9048 8.18962 13.6486
10802 2 -0.464373 -3.14288 19.505
10870 1 3.71822 0.901158 20.6889
10982 2 -0.493515 13.8682 19.2723
143 1 8.75927 9.65194 26.4611
10921 2 -0.47916 5.21179 16.467
10879 1 6.61746 3.80064 17.9446
10937 1 6.54572 6.53564 17.8285
7338 1 6.72742 6.63959 15.0751
7280 1 6.73242 3.71273 15.0239
10881 1 9.16698 1.08662 18.1067
7290 1 12.0865 0.972594 15.0944
7282 1 9.37455 1.19322 15.3184
10889 1 12.156 0.972043 18.0005
10886 2 10.9293 2.73434 19.4818
10876 2 8.06162 2.5762 16.648
10945 2 11.1569 5.35503 16.6081
10891 1 12.3861 3.90344 18.2225
7292 1 12.0797 3.82319 15.3134
10935 2 7.97483 5.29022 19.3083
7342 1 9.59239 6.78558 15.1382
10883 1 9.44944 3.89497 17.9755
7284 1 9.4397 4.02937 15.1971
10941 1 9.46727 6.76816 18.2987
10949 1 12.3405 6.62545 18.1246
10942 1 9.57598 6.93114 20.9401
10882 1 9.78392 1.03809 20.7053
7350 1 12.024 7.2123 15.4658
10878 1 6.80835 1.0718 20.9223
10884 1 9.38189 3.95597 20.8735
7442 2 -0.390406 19.4198 13.8157
7443 2 2.41879 16.6179 13.6514
10993 2 5.34645 10.8901 16.4816
10927 1 0.827454 9.39945 17.8565
10934 2 5.19312 7.96168 19.3111
7328 1 0.955594 9.50352 15.0275
10983 2 2.2281 10.9185 19.2008
10924 2 2.36122 8.121 16.5663
10931 1 3.95305 9.62229 18.1088
7332 1 3.65649 9.38991 15.1616
10985 1 0.873147 12.2128 17.8763
7386 1 0.870575 12.2037 15.3294
10989 1 3.63272 12.2602 17.7883
7390 1 3.8175 12.2033 15.0293
10986 1 0.993732 12.5642 20.5739
7398 1 6.41168 12.2373 15.1442
7340 1 6.742 9.08099 15.2681
10997 1 6.52043 12.4751 17.7151
10990 1 3.59716 12.307 20.4913
10932 1 4.06215 9.33993 20.8283
14585 1 -0.562443 12.7376 22.9879
10928 1 1.13709 9.42705 20.5137
10828 2 13.6873 -3.03075 16.7156
10939 1 6.68128 9.65043 18.2602
11005 2 10.8873 10.9752 16.548
10951 1 12.3919 9.74887 17.9565
10946 2 10.9748 8.1588 19.4409
7352 1 12.1355 9.78908 15.0325
10995 2 7.90424 11.0483 19.4062
10936 2 8.1918 7.98616 16.725
10943 1 9.56743 9.36752 18.0285
7344 1 9.59742 9.59209 15.2079
11009 1 12.2402 12.4348 17.9636
7410 1 12.0435 12.6682 15.2636
11001 1 9.31365 12.3553 17.9827
7402 1 9.24912 12.52 15.1855
10940 1 6.86966 9.66614 20.983
14581 2 -0.375147 10.9798 21.5071
11002 1 9.30472 12.6378 20.903
11010 1 12.1055 12.5648 20.8839
10862 2 -0.439589 2.58538 19.563
10984 2 2.36305 13.5941 16.4309
10994 2 5.13409 13.8258 19.303
11053 2 5.26631 16.68 16.7195
11045 1 0.91767 18.1347 18.066
7446 1 0.965613 17.8763 15.2134
10987 1 0.965286 15.208 17.9708
11054 2 5.21157 19.6462 19.3125
7388 1 1.06368 14.9195 15.3316
11049 1 3.78151 18.0038 18.0362
11043 2 2.39376 16.486 19.4815
7450 1 3.70689 17.8953 15.4006
10991 1 3.79013 15.1661 18.0489
7392 1 3.75422 15.1237 15.0465
11044 2 2.23478 19.3038 16.6362
10988 1 0.706916 15.3317 20.8879
11050 1 3.61672 18.233 20.4604
7458 1 6.58546 17.8065 15.3796
11000 1 6.53554 15.3247 20.7808
11046 1 0.925831 18.1128 20.6589
10992 1 3.8148 15.2831 21.0171
11041 2 -0.346454 16.5408 16.5412
11007 2 13.4664 11.1289 19.3167
7275 2 8.06073 -0.376658 13.6061
7406 2 10.8959 13.8399 13.6958
7323 2 2.36568 5.3541 13.9518
14662 1 9.57409 18.3374 26.4491
11057 1 6.56713 18.1748 18.0036
7400 1 6.53808 15.2467 14.9238
10999 1 6.55682 15.1935 17.7983
11062 1 9.54325 18.276 20.8225
11006 2 10.6443 13.8517 19.3533
10996 2 7.78893 13.8983 16.3637
11065 2 10.7072 16.7477 16.6296
11069 1 12.3159 18.1028 17.8857
7470 1 12.4913 18.3012 15.1659
11011 1 11.9632 15.3359 18.1722
11066 2 10.8045 19.7108 19.2997
7412 1 12.1578 15.4518 15.4854
11061 1 9.34742 18.0258 17.8756
11055 2 7.94275 16.7503 19.3937
7462 1 9.63175 18.0701 15.1604
11056 2 8.27429 19.6713 16.463
11003 1 9.21882 15.1191 18.0404
7404 1 9.33259 15.3814 15.1011
11070 1 12.2466 18.088 20.8158
7395 2 8.11209 10.7214 13.7533
11012 1 12.1046 15.1714 20.9115
11058 1 6.69129 18.1346 20.729
10820 1 6.51329 -1.71411 20.8094
10810 1 3.87556 -4.50234 20.8488
28 2 13.6877 -3.16312 27.8769
10806 1 0.967731 -4.66788 20.9732
10808 1 0.645067 -1.62077 20.6918
17948 1 0.796501 -1.75385 26.1473
14473 2 5.06928 -0.289886 22.2006
14405 1 0.91573 -4.73233 23.6516
14407 1 0.988237 -1.72023 23.433
14414 2 5.08428 -2.96213 24.8645
14409 1 3.88039 -4.53983 23.5672
14463 2 2.19207 -0.0988791 25.0258
14410 1 1.28833 -4.51854 26.2542
14404 2 2.35428 -3.20722 22.1767
14411 1 3.70769 -1.63796 23.3413
14412 1 3.76824 -1.52693 26.2229
17960 1 3.88424 -4.55244 26.1868
4 2 2.51922 -3.08063 27.4525
10822 1 9.35915 -4.49621 20.9045
14417 1 6.60223 -4.35308 23.2866
10818 1 6.5784 -4.69998 20.7511
14419 1 6.40777 -1.35894 23.6749
10832 1 12.2181 -1.77493 20.8278
10824 1 9.41825 -1.88305 20.8261
10830 1 12.2083 -4.5701 20.8726
17964 1 6.6386 -4.71567 26.5357
14418 1 6.45786 -1.69061 26.4005
14430 1 11.9755 -4.56043 26.4275
14485 2 10.8197 -0.566793 22.2073
14429 1 12.3073 -4.60111 23.6011
14431 1 12.1088 -1.89087 23.7571
14426 2 10.7899 -3.23886 25.0432
14432 1 12.3614 -1.76428 26.5015
14421 1 9.20987 -4.61729 23.6491
14475 2 8.07117 -0.255768 25.1831
14422 1 9.2686 -4.68164 26.4577
14416 2 7.91354 -3.11043 22.1168
14423 1 9.31625 -1.76272 23.7497
14424 1 9.37716 -1.74538 26.4025
85 2 10.9826 -0.285944 27.4953
14612 1 12.0556 15.2592 26.4526
11042 2 -0.419339 19.4294 19.3658
7382 2 -0.5506 13.6186 13.6275
10930 1 3.73645 6.67514 20.8476
9 1 0.953717 1.25502 26.6632
14408 1 0.647239 4.0856 26.6621
14470 1 3.72959 1.0819 26.5946
14465 1 0.683878 1.04648 23.8587
14474 2 5.28414 2.71774 25.0376
14469 1 3.63502 1.26762 23.6581
14464 2 2.34773 2.57402 22.1131
14533 2 5.40812 5.45184 22.21
14525 1 1.11747 6.77926 23.6192
14467 1 1.03963 3.94159 23.6808
14523 2 2.42263 5.45945 25.1457
14471 1 3.82134 3.9647 23.5975
14472 1 3.71119 3.93441 26.5187
14468 1 1.12772 6.94368 26.5774
14529 1 3.78444 6.78961 23.8747
14530 1 3.7484 6.72337 26.4929
14480 1 6.5784 3.99612 26.5311
7466 2 10.7761 19.5896 13.7852
7287 2 13.685 -0.376206 13.6672
10938 1 6.66838 6.67659 20.7966
10950 1 12.4714 6.9012 20.7919
10890 1 12.2731 1.10198 20.7161
14537 1 6.66876 6.72041 23.6964
14477 1 6.39352 1.28152 23.6671
14479 1 6.72995 4.0149 23.5187
10892 1 12.2759 4.04617 20.7432
14420 1 6.47267 1.35165 26.5322
14538 1 6.52658 6.74434 26.5977
14490 1 12.3517 1.13718 26.5086
14478 1 9.6345 4.08167 26.7949
14489 1 12.275 0.827116 23.6175
14481 1 9.46877 1.13115 23.7637
14482 1 9.50959 1.24479 26.5253
14476 2 8.21011 2.43569 22.2903
76 2 10.9182 2.30759 25.1302
14486 1 12.2325 3.90089 26.1374
14483 1 9.51053 3.78772 23.9679
14535 2 8.04924 5.37396 25.2299
14545 2 11.0364 5.34223 22.1546
14549 1 12.3252 6.68869 23.5627
14491 1 12.3343 3.59132 23.5714
14541 1 9.70984 6.73298 23.5099
14542 1 9.44983 6.66131 26.43
14550 1 12.2449 6.94893 26.5306
14596 2 7.99166 14.0313 22.1597
14611 1 12.1985 15.3819 23.7629
7407 2 13.6037 11.0575 13.8925
14666 2 10.8673 19.49 25.0226
14579 1 0.920694 9.73153 25.3605
14586 1 1.39374 12.8321 25.0072
14593 2 5.14158 11.0135 21.9639
14527 1 2.06096 10.7948 22.6694
14534 2 5.29206 8.16267 25.134
14583 2 2.63548 10.9311 24.7541
14524 2 2.62565 8.3595 22.4354
14531 1 4.18295 9.62782 23.5904
14532 1 3.74647 9.58098 26.312
14589 1 3.99515 12.6418 23.382
14590 1 3.81893 12.496 25.9174
14597 1 6.586 12.2949 23.5554
184 2 1.91374 13.6699 27.1862
10998 1 6.46668 12.4681 20.6788
10952 1 12.2473 9.48443 20.9437
14539 1 6.83362 9.38534 23.9441
14669 1 12.3516 18.1135 23.6607
10944 1 9.59183 9.70727 20.8679
14602 1 6.8557 12.2922 26.4957
7286 2 10.9 2.49456 13.9575
141 1 6.3799 9.60667 27.4049
197 1 9.64788 12.6038 26.7833
14601 1 9.53101 12.6118 23.788
14543 1 9.5539 9.80698 23.663
14536 2 8.18966 8.20744 22.1277
14595 2 8.02477 11.3019 24.8648
14605 2 10.8301 11.076 22.2998
14551 1 12.1773 9.57964 23.4462
14546 2 10.8035 8.1655 24.9005
14609 1 12.2474 12.3887 23.6178
14552 1 12.1243 9.78911 25.9808
14610 1 12.5437 12.4328 26.3849
10887 2 13.5795 -0.274547 19.4026
7335 2 8.2866 5.44672 13.7703
11004 1 9.26406 15.2101 20.8934
14606 1 9.26683 15.7924 26.6924
14608 2 13.579 13.9455 22.0393
14650 1 3.53346 19.9985 26.1774
14584 2 2.1647 13.9863 22.3084
14643 2 2.06868 17.0725 24.9865
14594 2 5.09989 14.0961 24.958
14592 1 3.55465 15.0609 26.449
14591 1 3.42421 15.5467 23.7854
14644 2 2.39637 19.6017 22.0671
14587 1 0.839101 15.4519 23.5683
14654 2 5.38114 19.4962 24.7407
14658 1 4.83417 17.7785 26.0706
14649 1 3.93726 18.3343 23.2503
14646 1 0.837389 18.3483 26.3729
14588 1 0.666216 15.4348 26.2093
14645 1 0.905124 18.3931 23.5082
14653 2 5.19059 16.8109 22.06
14599 1 6.42931 15.2149 23.5298
14657 1 6.69329 18.051 23.5154
14600 1 6.50977 15.4537 26.3221
14661 1 9.22928 18.2217 23.5333
14656 2 8.1493 19.5277 22.0348
14655 2 8.04162 16.8432 24.9831
261 1 6.97391 18.6585 26.6861
14670 1 12.4599 17.9951 26.607
208 2 10.9574 13.7962 25.2681
14665 2 10.9867 16.6942 22.2138
14603 1 9.38793 15.3218 23.5921
14521 2 -0.399582 5.54151 22.1426
11008 2 13.6064 13.8819 16.7332
10922 2 -0.537463 8.15887 19.3355
7467 2 13.4992 16.7117 13.9216
14402 2 -0.44585 -3.13166 24.9691
187 1 -0.262611 13.0149 27.0626
7202 2 -0.418674 -3.16072 13.9236
185 2 4.59407 11.2744 27.7342
253 2 4.89734 16.3004 27.7006
7394 2 5.12476 13.7108 13.8156
3913 2 5.30805 22.543 5.35268
306 1 1.025 23.843 4.07547
247 1 0.367746 21.1792 1.06438
314 2 5.29515 25.3582 2.48805
248 1 1.00682 20.9308 3.78869
303 2 2.45465 22.1664 2.34442
310 1 3.79691 23.8125 3.88319
3904 2 2.40411 25.3984 5.21985
14652 1 1.18676 23.9297 1.42439
14712 1 4.07841 24.329 0.976196
252 1 3.94381 21.0009 4.32202
309 1 4.96152 21.1584 1.11255
308 1 0.905372 26.7286 3.66429
3905 1 1.22587 23.9531 6.72062
312 1 3.84112 26.7837 3.73758
14778 1 6.72467 26.7451 1.19137
436 2 7.97984 36.4755 -0.477584
3909 1 3.84532 23.9421 6.74493
3851 1 4.02249 21.0521 6.89321
3917 1 6.80387 23.6776 6.59917
3907 1 1.13724 26.9594 6.4619
14660 1 3.11615 21.9877 -0.236715
318 1 6.67331 23.9103 3.65666
251 1 6.94958 24.1438 0.721798
260 1 6.9452 21.2129 3.8977
3859 1 6.89621 20.7414 6.62032
3925 2 10.9637 22.4222 5.00357
329 1 12.4636 23.9663 0.874337
330 1 12.2799 23.8762 3.89324
271 1 9.70367 21.1774 0.827217
326 2 10.7434 25.2486 2.43713
272 1 12.3051 21.0402 3.47557
321 1 9.55331 23.9972 0.674423
315 2 8.08884 22.4812 2.03592
322 1 9.30645 23.787 3.78204
3916 2 8.01188 25.302 5.19622
264 1 9.68531 21.143 3.72833
273 1 12.2737 20.9189 0.830838
3921 1 9.59367 23.7142 6.57483
323 1 9.71818 26.6064 0.953573
331 1 12.6823 26.5736 1.15212
320 1 6.81278 26.6217 3.97797
332 1 12.0778 26.822 3.72963
324 1 9.47129 26.6894 3.81855
3929 1 12.4689 23.8683 6.62201
3923 1 9.48555 26.536 6.73357
3931 1 12.3968 26.8295 6.54605
7745 1 0.876104 46.2758 12.4035
307 1 1.22728 26.9708 0.707257
311 1 3.92279 26.9787 1.02252
3973 2 5.22831 27.9358 5.30297
363 2 2.40579 28.123 2.54159
425 1 1.06163 32.699 4.2199
366 1 1.30255 29.5853 0.79314
367 1 0.806038 32.3623 1.08338
374 2 5.18714 30.892 2.5422
368 1 0.925716 29.6999 3.8354
369 1 3.93023 29.2938 0.737581
370 1 3.68278 29.6546 3.67984
3964 2 2.20989 31.0934 5.22768
371 1 3.67955 32.4063 1.29891
372 1 3.99626 32.2736 4.00961
377 1 6.597 29.7702 1.05003
380 1 6.72332 32.197 3.70142
378 1 6.48548 29.3685 3.96469
3979 1 6.58215 32.1507 6.58983
3965 1 0.631264 29.5972 6.59004
3971 1 3.60107 32.4144 6.78786
389 2 13.6243 28.0697 -0.299146
379 1 6.58717 32.4038 0.908302
3985 2 10.9645 28.2006 5.26801
375 2 7.99935 28.1929 2.33494
391 1 12.2483 32.209 0.858703
386 2 10.8262 30.978 2.2856
392 1 12.1184 32.3504 3.66312
381 1 9.70585 29.4726 1.09415
382 1 9.37519 29.496 3.74865
3976 2 8.0007 30.7599 5.17497
383 1 9.55427 32.1758 1.13917
384 1 9.4792 32.2235 4.07404
3989 1 12.5193 29.3712 3.99996
395 1 12.5228 29.5327 1.22542
3990 1 12.1653 29.7003 6.75629
3981 1 9.40701 29.3258 6.44976
4033 2 5.14235 33.882 5.24759
426 1 0.893837 35.558 3.87935
434 2 5.27056 36.7478 2.62241
429 1 3.98486 35.0806 1.01358
423 2 2.52333 33.7985 2.6392
430 1 3.72667 35.1354 3.87074
4024 2 2.16891 36.67 5.33673
428 1 1.01896 38.1161 3.76759
486 1 0.660527 37.8344 0.96147
427 1 1.17681 35.0598 0.962603
431 1 3.67596 38.0396 1.03927
432 1 3.90797 37.9951 4.07033
483 2 2.3648 39.4855 2.31424
4093 2 5.11464 39.4861 5.38095
437 1 6.76855 35.0866 0.990473
439 1 6.35326 37.9649 0.826771
4037 1 6.5934 35.0989 6.4523
4027 1 0.829149 38.2667 6.58686
4025 1 0.745306 35.2889 6.6881
313 2 5.38271 22.9029 -0.46953
4031 1 3.7738 37.9909 6.57857
4029 1 3.60578 35.0812 6.5695
3928 2 13.604 25.2604 5.37642
387 2 13.7301 27.9685 2.78424
438 1 6.51821 35.1955 3.69113
440 1 6.83102 37.9077 3.71425
4045 2 10.853 33.6146 5.27753
449 1 12.1732 35.0858 1.15193
450 1 12.2739 34.9821 3.95065
446 2 10.7803 36.5048 2.49112
441 1 9.3719 35.1633 1.1802
435 2 8.01647 33.666 2.66779
442 1 9.57254 35.0317 3.96554
4036 2 8.13321 36.6311 5.28222
509 1 12.4519 37.7235 1.18551
452 1 12.2994 37.8912 3.88725
443 1 9.34698 37.9353 1.16724
444 1 9.49632 37.9384 3.90198
495 2 8.09154 39.5796 2.34314
4105 2 10.9521 39.1795 5.34829
4041 1 9.37701 35.0707 6.50319
4049 1 12.3668 35.0985 6.78925
4043 1 9.59155 37.9719 6.73061
4141 2 -0.391121 45.0898 4.92787
4161 1 9.29991 46.6589 6.54321
362 2 -0.476331 31.2414 2.64886
4153 2 5.32783 45.168 5.23647
485 1 0.70532 40.7599 1.01072
487 1 0.852378 43.6225 0.856224
494 2 5.14237 42.1735 2.32992
488 1 0.85195 43.6011 3.46901
489 1 3.61201 40.8611 1.1254
543 2 2.21944 45.131 2.22162
490 1 3.66735 40.9201 3.9274
4084 1 0.884843 40.9661 3.73157
491 1 3.87044 43.6549 0.823533
492 1 3.71076 43.6776 3.75418
482 2 2.18436 42.3191 5.1105
499 1 6.50364 43.4949 0.78469
498 1 6.60611 40.7581 3.90886
497 1 6.52746 40.5296 0.747116
4085 1 0.800068 41.0238 6.54981
4091 1 3.73496 43.8101 6.42566
4087 1 0.962307 43.7642 6.56016
3902 2 -0.271567 25.2076 7.99048
4099 1 6.66795 43.6404 6.52254
507 2 13.5978 39.3573 2.39833
7741 2 -0.456906 45.0614 10.9279
4170 1 12.1916 46.5738 9.1626
7701 1 9.08534 41.0835 12.1869
500 1 6.41309 43.4422 3.81624
4165 2 10.8544 45.1512 5.19902
510 1 12.3941 40.6202 3.74458
511 1 12.3561 43.4853 1.04552
506 2 10.9989 42.2153 2.38002
501 1 12.2411 40.5135 0.937937
555 2 7.88965 45.0627 2.26348
502 1 9.59586 40.7266 3.90714
4096 2 8.06069 42.0536 5.23674
503 1 9.43763 40.8459 0.953293
504 1 9.23292 43.6944 3.74657
565 1 12.3606 43.5665 3.79179
561 1 9.20897 43.5797 1.0085
4109 1 12.3053 40.5009 6.48769
512 1 12.4404 43.3919 6.39468
3847 1 1.16697 20.8908 6.70515
7501 2 -0.00949147 22.4139 10.9908
7459 1 3.52856 20.7479 9.48095
7513 2 5.23306 22.5487 10.9359
7505 1 1.13217 23.8991 12.2111
3906 1 0.732336 23.6148 9.33688
7447 1 0.861599 21.0127 12.5316
3914 2 5.29194 25.1236 7.99981
7509 1 3.70111 23.8101 12.3342
3903 2 2.50387 22.1815 8.18033
3910 1 3.78009 23.7337 9.40246
7504 2 2.49847 25.2614 10.9503
7451 1 3.61058 21.0558 12.3152
3852 1 0.945008 20.8664 9.72289
7515 1 6.32035 20.8838 11.9425
7519 1 6.78058 26.531 12.2715
7517 1 6.33914 23.8322 12.3316
3911 1 3.8481 26.6822 6.61012
7507 1 0.932703 26.4582 12.3718
3912 1 3.93143 26.4112 9.59423
3919 1 6.44026 26.6342 6.77198
7511 1 3.66435 26.6068 12.4271
3920 1 6.81276 26.7062 9.56732
3863 1 9.88974 20.822 6.49135
3860 1 6.77127 20.9856 9.19431
3918 1 6.55836 23.9755 9.40979
3871 1 12.5742 21.0958 6.63762
7463 1 9.47411 20.8439 12.0781
7525 2 10.7308 22.3612 10.9631
7529 1 12.6997 23.8643 12.2907
3930 1 12.011 23.6466 9.34636
7471 1 12.1817 20.9252 12.1438
3926 2 10.7196 25.154 8.01233
3872 1 12.3803 20.7668 9.46651
7521 1 9.98036 24.1176 11.9647
3915 2 8.14778 22.2981 8.00797
3922 1 9.31899 23.8057 9.16403
7516 2 8.08574 25.1277 10.9494
3864 1 9.66892 20.7821 9.3031
7528 2 13.2502 25.3329 10.7954
7531 1 12.1986 26.6419 12.2361
3924 1 9.7456 26.6962 9.50295
3932 1 12.3468 26.8357 9.32371
433 2 5.15822 33.9766 -0.372306
7588 2 13.3394 30.919 11.0308
424 2 2.28009 36.6725 -0.453789
3977 1 6.72714 29.4073 6.5425
3969 1 3.72739 29.6024 6.47877
3908 1 1.14944 26.7353 9.38164
3967 1 0.717292 32.4071 6.8385
7573 2 5.20114 28.0767 10.929
3963 2 2.27996 28.1759 8.08523
7565 1 1.2409 29.2396 11.914
3966 1 0.857408 29.6538 9.29948
3974 2 4.9841 30.9945 7.85919
3968 1 0.875278 32.642 9.6977
7569 1 3.95786 29.4503 12.3214
3970 1 3.86094 29.2977 9.36222
7564 2 2.18242 30.9319 10.7939
7571 1 3.11442 32.2311 12.2635
3972 1 3.59121 32.4515 9.54733
7579 1 6.16253 32.1655 12.0077
3978 1 6.353 29.5351 9.43324
3980 1 6.6879 32.4167 9.33509
4167 2 13.6141 45.0117 7.88076
7755 2 7.94418 44.9553 13.702
7703 1 9.52414 43.7537 12.1236
3983 1 9.40066 32.3177 6.92199
7577 1 6.68246 29.4109 12.2534
3991 1 12.1297 32.3103 6.75307
7523 1 9.37676 26.9396 12.4165
7585 2 10.8358 28.1933 11.0242
3975 2 8.13989 28.0293 8.0721
7589 1 12.2701 29.5154 12.4568
3986 2 10.8129 30.9328 8.23896
3992 1 12.1704 32.5536 9.84277
7581 1 9.38495 29.9379 12.4121
3982 1 9.28008 29.5212 9.50739
7576 2 7.70116 30.881 10.9314
7583 1 12.2844 29.6681 9.61747
3984 1 9.33922 32.2782 10.3057
7635 1 11.7578 32.2415 12.3298
421 2 -0.397408 33.9747 -0.382388
302 2 -0.519133 25.1591 2.46723
4039 1 6.5517 37.8228 6.64571
7567 1 0.807456 35.0366 12.218
7633 2 5.29043 33.7939 10.7687
4026 1 0.70338 35.4689 9.39085
4034 2 5.17142 36.4743 7.98511
7629 1 3.64875 34.9708 12.3546
4023 2 2.1983 33.785 8.14126
4030 1 3.55187 35.199 9.4934