ITEM: TIMESTEP
50000
ITEM: NUMBER OF ATOMS
18000
ITEM: BOX BOUNDS pp pp pp
-4.9814696626955113e-01 2.7838146966269111e+01
-5.8998116017349833e+00 3.3397981160173327e+02
-5.0733658182160857e-01 2.7847336581821416e+01
ITEM: ATOMS id type x y z
3673 2 5.21115 -0.746482 4.96196
5 2 2.36731 -4.01649 2.44849
6 1 2.80514 -1.37595 4.58463
14 2 5.59673 -3.4433 2.19896
10 1 4.34856 -5.51577 1.92594
3604 2 2.51815 -3.1506 5.71036
12 1 4.32377 -3.3573 4.0875
3551 1 4.84875 -1.03181 2.51285
3547 1 3.68689 -3.14025 0.877825
14406 1 0.70928 -1.53615 2.16454
3600 1 0.553172 -3.60733 4.077
63 2 2.60718 -0.105975 2.52992
3548 1 2.66922 -5.6399 4.15629
3595 1 2.43031 -5.46973 0.234306
17952 1 0.515008 -3.18519 0.124908
54 1 0.624403 -5.34501 1.98487
7 1 2.71414 -0.723834 0.11666
7321 2 -0.382002 4.90584 10.7573
3870 1 12.0749 17.958 9.75215
7441 2 -0.508386 16.5336 11.0609
7407 2 13.6371 10.9336 13.5887
61 2 -0.481626 2.46794 -0.507239
3661 2 -0.341095 -0.368722 5.26931
19 1 6.3828 -2.1053 0.520952
18 1 6.64349 -4.8169 3.69494
17 1 6.85317 -4.83677 0.570324
20 1 7.03781 -1.92781 4.03846
3685 2 10.8517 -0.576093 5.50859
29 2 10.6811 -3.94445 2.10797
30 1 12.5911 -2.22785 3.15988
31 1 11.4123 -2.27403 0.54663
26 2 10.8443 -1.05484 2.4066
21 1 8.96812 -2.4662 1.63242
75 2 7.52826 -0.395302 2.12172
22 1 9.95845 -2.47155 4.1146
3616 2 8.20001 -3.43655 5.46737
3571 1 9.49912 -5.04469 0.698189
3572 1 12.0058 -4.99338 3.47705
3564 1 9.43684 -5.12289 3.77342
3583 1 12.4048 -4.64924 0.736963
3621 1 9.63465 -4.83897 6.70776
3631 1 12.442 -1.90009 6.29842
23 1 9.40513 0.346268 0.497477
32 1 12.266 0.751647 3.78942
207 2 13.4292 11.0727 2.52713
3617 1 6.62759 -4.76407 6.73837
3806 2 10.7781 13.6334 8.08521
57 1 0.79682 0.998087 0.839827
70 1 4.11124 1.12976 4.13703
66 1 0.919202 1.2625 3.9261
65 1 3.7515 1.36502 1.13316
74 2 5.36838 2.44995 2.47273
3664 2 2.54039 2.39894 5.28171
3733 2 5.26258 5.14545 5.15298
68 1 1.07024 3.93323 3.64871
123 2 2.69579 5.39107 2.5565
72 1 3.87124 3.69535 3.77537
14466 1 3.65194 4.02827 1.00096
14518 1 1.03711 3.76397 0.60552
126 1 1.07607 6.76037 3.70508
130 1 4.05217 6.60925 3.86256
69 1 6.59365 3.80332 0.901488
3669 1 3.56317 1.07828 6.79016
3667 1 0.9816 6.56214 6.66126
3665 1 0.829434 1.06139 6.74612
80 1 6.64836 3.79871 3.95569
67 1 3.71988 6.86885 1.12133
3671 1 3.91665 3.8192 6.7621
7406 2 10.682 13.7508 13.6423
147 2 13.222 5.05995 2.23974
84 1 6.64378 6.64651 6.91043
24 1 9.62004 0.378588 3.77509
77 1 6.36434 0.914275 0.681951
11 1 6.79813 0.960164 3.60586
138 1 6.89389 6.4466 3.90402
89 1 11.8979 0.476987 1.04917
14484 1 9.41395 5.98001 0.611144
71 1 8.94324 2.69918 1.47312
90 1 11.9602 3.81024 3.65378
86 2 10.9501 2.19242 2.50603
82 1 9.32472 3.80644 4.03547
3676 2 7.9178 2.12362 5.47662
3745 2 10.8231 5.32324 5.27199
135 2 8.15027 5.03499 2.35067
83 1 11.8436 3.78999 0.714268
142 1 9.5829 6.41788 3.71357
3681 1 9.19069 0.863656 6.64472
3691 1 12.1774 3.80939 6.38459
3749 1 12.1758 6.74826 6.74638
137 1 6.356 6.54878 1.02223
92 1 12.1051 6.68675 3.86406
14492 1 12.1132 6.55138 0.913143
3683 1 9.38878 3.92854 6.75851
14598 1 6.63799 9.40216 0.577673
125 1 0.90133 6.92915 0.991206
3793 2 5.07264 10.8491 5.08803
127 1 0.9127 9.47853 1.14586
134 2 5.15801 8.24555 2.31469
128 1 0.774936 9.38159 3.90761
129 1 3.50748 9.55903 0.762733
183 2 2.32187 10.5825 2.38766
3724 2 2.44503 8.08999 5.36788
132 1 3.55053 9.47155 3.98035
3789 1 3.71732 12.6082 3.76477
186 1 3.16531 12.6706 0.874534
14540 1 5.10014 11.1122 2.03921
3785 1 0.503175 12.7102 1.03031
3787 1 1.45949 12.05 4.07871
189 1 5.3896 13.9101 -0.107689
3797 1 3.5098 12.3532 6.62794
198 1 6.41967 12.413 3.93401
139 1 7.31474 12.291 0.950453
140 1 6.38021 9.25209 3.96219
131 1 9.90162 11.8081 0.892151
3805 2 10.6617 10.8906 5.18876
151 1 12.1825 9.25829 0.966105
146 2 10.7471 7.99652 2.18115
195 2 7.71767 10.9376 2.73022
3736 2 7.86777 7.98673 5.3436
143 1 9.58549 8.89161 0.291119
144 1 9.11906 9.28666 3.14916
3809 1 11.9652 12.3236 3.93981
201 1 12.4532 12.2189 0.756919
202 1 9.26922 12.1715 3.876
150 1 11.8866 9.4698 3.69897
3662 2 -0.386128 2.44666 7.97975
3743 1 8.88111 9.79665 6.21593
152 1 11.7838 9.44128 6.6039
3751 1 11.9972 12.218 6.66931
3722 2 -0.469093 8.04723 8.03766
194 2 5.43582 13.8674 2.24155
249 1 3.16741 19.2812 1.45589
3784 2 2.07329 13.9858 2.42226
3794 2 2.25699 13.7051 5.47378
190 1 3.19857 15.2904 4.24161
3853 2 4.9449 16.4006 5.36222
245 1 0.736191 18.2912 1.10304
246 1 0.942955 17.6572 3.94082
188 1 0.773367 15.3734 1.19655
243 2 2.31414 17.3817 2.16902
250 1 3.65396 17.9446 3.94182
3844 2 2.21105 19.2176 5.26979
192 1 0.49185 14.6773 3.91716
257 1 3.7432 15.3467 1.38452
254 2 5.21092 19.282 2.82903
263 1 5.11605 17.8501 1.06467
3845 1 1.10078 17.8599 6.60989
200 1 6.45265 15.1348 3.7832
258 1 6.75559 17.9428 3.91363
3799 1 6.63392 14.9928 6.62174
62 2 -0.349927 2.48506 2.69094
3862 1 9.25194 17.8707 9.47496
7287 2 13.5119 -0.554113 13.5771
206 2 10.7651 13.5536 2.36897
199 1 6.66576 15.6447 0.74101
3796 2 7.94449 13.8982 5.26754
266 2 10.8416 19.1264 2.23348
210 1 12.2535 15.1216 0.874811
3865 2 10.7926 16.5088 5.11115
269 1 9.68156 17.8 1.04849
270 1 12.3132 17.7623 3.85884
212 1 12.2524 15.0476 3.52056
255 2 7.9574 16.8277 2.39841
262 1 9.44983 17.8104 3.83825
203 1 9.48057 14.8532 0.738932
204 1 9.36348 14.9377 3.73019
211 1 12.3975 17.8787 1.08515
3856 2 8.2289 19.2145 5.14477
3861 1 9.50277 17.8782 6.38958
3811 1 12.1929 15.1451 6.35957
185 2 4.85686 11.3938 -0.168344
3748 2 13.4305 8.09372 5.21606
3605 1 1.14042 -4.91584 6.54286
3609 1 3.93082 -4.67625 6.72474
3611 1 3.99305 -1.66163 6.91725
8 1 0.955203 -1.76414 6.64287
3607 1 0.9038 -1.73888 9.48608
7273 2 5.11247 -0.519247 10.9451
7205 1 0.890859 -4.84669 12.2414
3606 1 1.00228 -4.47652 9.17104
7207 1 0.915936 -2.03958 12.3211
3614 2 5.18718 -3.27038 8.17734
7209 1 3.68575 -4.54571 12.1637
3663 2 2.41953 -0.465783 8.00009
3610 1 3.75963 -4.51252 9.41827
7204 2 2.36249 -3.26597 10.7347
7211 1 3.74266 -1.84813 12.2956
3612 1 3.76588 -1.81833 9.47232
7348 2 13.4923 7.9702 10.7709
3868 2 13.5623 19.7189 5.47889
3867 2 13.4332 16.5057 7.99255
81 1 13.6645 2.61352 2.4211
3619 1 6.75985 -1.97234 6.69957
3807 2 13.4391 10.8783 8.06175
3629 1 12.4614 -4.75311 6.51718
3623 1 9.63467 -1.97921 6.8057
52 2 0.153437 -0.942713 -0.272607
7346 2 10.7351 7.96677 13.6223
3620 1 6.42662 -1.95119 9.53666
7219 1 6.70109 -1.89094 12.2021
3618 1 6.63444 -4.81424 9.51808
7217 1 6.5473 -4.77818 12.4623
7285 2 10.5443 -0.521336 10.8678
7229 1 12.1701 -4.63428 11.9608
7231 1 12.1822 -1.87753 12.2807
3626 2 10.8279 -3.66553 8.33899
3632 1 12.0585 -2.16517 9.4105
7221 1 9.35344 -4.75423 12.3642
3675 2 7.94972 -0.668506 8.23827
3622 1 9.44145 -5.19657 9.48872
7216 2 7.98494 -3.4779 11.0652
7223 1 9.51299 -1.70333 12.3708
3624 1 9.23751 -2.21878 9.58588
7172 1 12.3733 -5.1223 9.38979
3729 1 3.67609 6.7525 6.77991
3666 1 1.16101 3.94519 6.41814
14718 1 7.44006 19.1748 1.37977
7265 1 0.658687 0.788434 12.5533
3668 1 0.779263 6.43847 9.35365
7261 1 0.913693 3.79629 9.28241
3674 2 5.19371 2.34757 8.09871
3608 1 0.916878 1.08986 9.67626
7269 1 3.61201 0.991699 12.4236
3670 1 3.86175 0.995061 9.65819
7264 2 2.39695 2.19225 11.0769
7333 2 5.04951 5.09153 11.0164
7267 1 0.836528 3.74914 12.2593
3723 2 2.41438 5.31167 8.12135
3730 1 3.6983 6.68482 9.43838
7271 1 3.83142 3.53058 12.4521
3672 1 3.54356 3.72792 9.55082
7325 1 0.819201 6.53717 12.0728
7329 1 3.48301 6.30564 12.1068
7337 1 6.47301 6.75224 12.1264
7279 1 6.53351 3.72399 12.6189
3678 1 6.42718 3.65023 9.55507
3677 1 6.4854 0.831632 9.52141
3680 1 6.66212 6.43923 9.56009
133 2 4.94656 5.44359 -0.390247
3679 1 6.47222 3.69167 6.62241
78 1 6.43594 1.05724 6.69544
7396 2 7.92477 13.8471 11.0317
7468 2 13.476 19.3753 10.896
7277 1 6.17841 1.0478 12.6632
3689 1 12.0889 0.947702 6.60049
3741 1 9.43382 6.62303 6.77873
7289 1 11.8172 0.972515 12.2735
3690 1 12.0718 0.796599 9.16943
3696 1 12.3386 3.48204 9.23625
3686 2 10.8126 2.19873 8.01039
7281 1 9.12034 0.869978 12.1853
3682 1 9.4245 0.909248 9.20402
7276 2 7.74457 2.47965 11.0715
3684 1 9.40451 3.69491 9.53475
7283 1 9.34789 3.72248 12.3134
3735 2 8.06014 5.28191 8.15251
7345 2 10.9812 5.01651 10.771
7291 1 12.1079 3.52234 12.1516
7341 1 9.19 6.63472 12.5231
3692 1 12.2618 6.47041 9.32329
3742 1 9.48627 6.56901 9.66004
7349 1 11.9717 6.67604 12.041
7288 2 13.5863 2.24488 11.002
3731 1 3.47781 9.43371 6.81442
3739 1 6.43112 12.1644 6.59176
7457 1 6.51446 17.7808 12.2579
3725 1 0.72413 9.55972 6.74835
3727 1 0.4333 12.4118 6.64466
7393 2 5.12668 10.8571 11.1071
3726 1 0.69944 9.48973 9.84294
7327 1 0.883279 9.41598 12.4161
3734 2 5.02807 8.10843 8.15819
3783 2 1.97861 11.0049 8.13201
7324 2 2.23532 7.96546 10.8185
7331 1 3.78272 9.3455 12.2516
3732 1 3.59598 9.59992 9.55634
7389 1 3.75855 12.3127 12.5257
7385 1 1.08219 12.2758 12.3923
3790 1 3.5843 12.3127 9.53136
3728 1 0.690562 12.1612 9.57086
7339 1 6.46373 9.48786 12.3705
7456 2 7.90368 19.3108 11.1356
3738 1 6.51321 9.49252 9.55868
7397 1 6.62105 12.1502 12.2389
3842 2 -0.293308 19.3946 7.8808
3808 2 13.4444 13.7195 5.22715
3740 1 6.45858 12.3849 9.40801
3801 1 9.23636 12.4588 6.61241
3737 1 6.32832 9.38346 6.6782
7401 1 9.24289 12.2156 12.3642
3744 1 9.1832 9.27384 9.30573
7343 1 9.44582 9.42134 12.0387
7336 2 8.06906 7.85514 10.9326
3795 2 7.93473 10.8055 8.05916
7405 2 10.7081 10.9234 10.7728
3750 1 11.996 9.44411 9.46596
7351 1 12.1323 9.47339 12.1453
3746 2 10.6522 7.95671 8.23429
3802 1 9.27798 12.1447 9.55802
7409 1 11.9878 12.329 12.3564
3810 1 12.3117 12.3426 9.4372
3788 1 0.822121 15.0978 6.77112
3857 1 6.59382 17.8706 6.60333
79 2 7.87427 2.41116 -0.474317
3849 1 3.87146 17.7661 6.80368
3791 1 3.83994 15.0242 7.12413
3800 1 6.39791 15.0499 9.6345
3798 2 5.20843 13.5248 8.14852
7384 2 2.36811 13.6862 10.8996
3854 2 5.3146 19.1689 8.18069
7444 2 2.26673 19.4744 11.0217
3786 1 0.724289 14.9645 9.70701
7449 1 3.59287 17.7496 12.4582
3846 1 1.06599 18.0385 9.38659
7445 1 0.749773 18.0536 12.2746
7453 2 4.96292 16.4859 10.8653
3850 1 3.84464 17.9806 9.64853
3843 2 2.28556 16.4306 8.09638
3792 1 3.45735 15.1944 9.70089
7387 1 0.73328 15.2155 12.3725
7391 1 3.71231 15.2241 12.3302
3866 2 10.6706 19.4354 8.28513
3858 1 6.67841 18.1138 9.54052
7226 2 10.9053 -3.39156 13.6425
7403 1 9.46078 15.0693 12.2015
7469 1 12.1427 18.0913 12.2287
3628 2 13.4823 -3.51082 5.03871
3803 1 9.60587 15.1445 6.64363
7461 1 9.40592 18.0046 12.4865
3812 1 12.0162 15.017 9.34408
7465 2 10.681 16.5786 11.1312
3804 1 9.32174 15.0728 9.60742
3869 1 12.1745 18.1274 6.83064
3855 2 8.04436 16.4189 8.10637
7399 1 6.55104 15.082 12.4257
7411 1 12.3089 15.2918 12.3311
191 1 2.89686 17.5599 -0.433671
7408 2 13.4739 13.8409 10.9364
73 2 4.99362 -0.644936 -0.48431
7455 2 7.86131 16.4183 13.6289
10873 2 5.33428 -0.575067 16.4492
10805 1 0.746281 -4.7924 18.1961
7206 1 0.968115 -4.8682 15.4201
10807 1 1.14229 -1.97894 17.879
10814 2 5.23763 -3.35533 19.3699
7208 1 0.771215 -2.05261 14.9717
10809 1 3.4569 -4.94701 17.7739
10863 2 2.42847 -0.543918 19.1755
7210 1 3.86584 -4.51285 15.0752
10804 2 2.43748 -3.22448 16.5677
10811 1 4.05707 -2.02265 17.9084
7212 1 3.62154 -1.8319 15.096
10812 1 3.87515 -2.0227 20.6969
7218 1 6.75918 -4.72954 15.0425
10810 1 3.7766 -4.8739 20.4559
10806 1 1.02476 -4.70529 20.7275
11007 2 13.6568 10.9448 19.0965
10808 1 1.11272 -1.76406 20.6008
10818 1 6.59022 -4.92284 20.4502
7286 2 10.7569 2.40628 13.7794
14608 2 13.6324 13.6442 22.0926
10817 1 6.53587 -4.64665 17.7268
10819 1 6.81929 -1.74862 17.7456
7220 1 6.63821 -1.89448 14.9566
10885 2 10.8591 -0.581163 16.3514
10829 1 11.9423 -4.81487 17.7739
7230 1 12.2825 -4.87144 15.0382
10831 1 12.0071 -1.91438 17.8046
10826 2 10.6804 -3.31301 19.3385
7232 1 12.2086 -2.04831 15.1632
10821 1 9.42013 -4.68207 18.2666
10875 2 8.12669 -0.476633 19.3402
7222 1 9.54176 -4.86511 15.2082
10816 2 8.19075 -3.26032 16.6994
10823 1 9.44548 -1.77319 17.8636
7224 1 9.47883 -1.95291 14.9411
175 1 -0.409406 8.38188 22.717
10948 2 13.5949 7.91201 16.4758
10820 1 6.58381 -1.89473 20.6054
10822 1 9.51067 -4.82801 20.9756
10830 1 12.249 -4.68331 20.7551
7467 2 13.6034 16.5931 13.7818
7266 1 0.96255 0.626251 15.2657
10865 1 0.998833 1.02351 18.1906
10874 2 5.17834 2.33872 19.4079
10869 1 3.56054 1.0791 18.0997
7270 1 3.75993 0.924947 15.3616
10864 2 2.3233 2.30927 16.5883
10933 2 5.3345 5.2712 16.7663
10925 1 1.00729 6.60266 17.9865
7326 1 1.00457 6.53128 15.0901
10867 1 0.988883 3.91465 18.0365
7268 1 0.86327 3.78967 15.2146
10929 1 3.81158 6.62276 17.7926
10923 2 2.37174 5.19077 19.3573
7330 1 4.03944 6.55161 14.9286
10871 1 4.10809 3.79648 18.0071
7272 1 3.70036 3.74132 15.2536
10870 1 3.84039 0.891834 20.8323
10872 1 3.77283 3.63251 20.7148
7278 1 6.59804 1.02205 15.3367
10866 1 1.01231 0.968557 20.8206
10926 1 1.11177 6.68296 20.7638
10877 1 6.48804 0.884128 18.013
10930 1 3.84012 6.76729 20.7299
10868 1 1.03681 3.83954 20.651
253 2 4.73301 16.0788 27.7864
205 2 11.3213 10.6851 27.7417
7383 2 2.30154 10.7571 13.8161
7280 1 6.88521 4.04246 15.3786
10937 1 6.79373 6.58788 18.0927
10880 1 6.71927 3.69062 20.8378
10938 1 6.62569 6.73902 20.7929
7338 1 6.67514 6.82442 15.2427
10879 1 6.80092 3.68525 18.2286
7290 1 12.1138 0.938887 15.0385
7282 1 9.26786 0.760973 15.0421
10889 1 12.3007 0.887563 17.862
10886 2 10.7536 2.1788 19.3456
10881 1 9.46168 0.876908 17.8706
10876 2 8.03155 2.1484 16.7231
10945 2 11.1203 5.22189 16.5242
10891 1 12.5422 3.60276 17.9986
7292 1 12.1501 3.63518 15.2021
10935 2 8.34568 4.97298 19.2754
7342 1 9.44263 6.54402 15.1752
10883 1 9.57669 3.56054 17.9851
7284 1 9.57261 3.70061 15.2439
10941 1 9.52216 6.41262 18.1048
10882 1 9.37683 0.761968 20.6931
10890 1 12.1948 0.824287 20.7587
10949 1 12.4215 6.65414 17.9862
7350 1 12.1162 6.78639 15.2102
10892 1 12.3572 3.67677 20.7015
10942 1 9.42971 6.30149 20.8829
10993 2 5.27715 10.8618 16.4393
10927 1 1.10122 9.21263 17.857
10934 2 5.36871 8.13587 19.3101
7328 1 0.991022 9.50639 15.1885
10983 2 2.42756 10.764 19.2552
10924 2 2.43794 7.89358 16.6004
10931 1 4.01084 9.37056 17.7828
7332 1 3.68536 9.35606 15.1381
10985 1 1.04763 12.1675 17.821
7386 1 1.01534 12.1908 14.9385
10989 1 3.91541 12.101 17.927
7390 1 3.71271 12.175 15.1487
10928 1 0.96057 9.31428 20.5891
10986 1 0.934531 12.2342 20.8271
10990 1 3.6016 12.2728 20.5427
10932 1 3.79845 9.57611 20.4968
7443 2 2.33188 16.4573 13.7766
244 2 1.78904 19.63 27.8251
7202 2 -0.385745 -3.52209 13.817
10939 1 6.69151 9.47627 17.8133
7340 1 6.64636 9.52354 15.0585
7398 1 6.74149 12.26 15.1535
10940 1 6.68283 9.2752 20.6245
10997 1 6.81378 12.2864 18.1633
11005 2 10.8328 10.9484 16.211
10951 1 12.3492 9.68432 17.5426
10946 2 10.9228 7.83571 19.3135
7352 1 12.0835 9.57555 14.7683
10995 2 8.1216 10.8014 19.2321
10936 2 8.16837 8.22197 16.5285
10943 1 9.65968 9.65049 17.8605
7344 1 9.2801 9.25262 15.0653
11009 1 12.244 12.3894 17.78
7410 1 12.4531 12.2761 14.9612
11001 1 9.27465 12.367 18.0058
7402 1 9.5019 12.3468 15.0419
10952 1 12.0672 9.51934 20.5772
10998 1 6.51684 12.5133 20.8954
14662 1 9.36391 17.584 26.4343
11006 2 10.7541 13.7864 19.3677
7454 2 5.18047 19.3004 13.754
10994 2 5.24412 13.6178 19.5181
10984 2 2.34991 13.6093 16.5453
11053 2 5.31154 16.3491 16.7188
11045 1 0.713508 17.8523 17.9545
7446 1 0.769643 17.8633 15.2223
10987 1 0.817911 15.0386 17.9777
11054 2 5.11516 19.4406 19.3538
7388 1 1.02859 14.9142 15.0373
11049 1 3.68925 17.8023 17.7936
11043 2 2.29323 16.4966 19.3398
7450 1 3.56578 17.7891 15.2885
10991 1 3.75936 14.9657 17.8963
7392 1 3.97481 14.8958 15.2099
11044 2 2.4181 19.3335 16.7172
11046 1 0.816852 17.9025 20.6513
10992 1 3.92134 15.0314 20.7702
10988 1 0.821693 15.2326 20.9432
11057 1 6.75382 18.0458 18.2562
7400 1 6.65325 15.1016 15.2846
14656 2 7.98438 19.313 22.2993
14657 1 6.52206 17.924 23.7181
14526 1 -0.213442 9.05961 27.2017
11050 1 3.42129 18.1323 20.4913
7458 1 6.62141 17.7257 15.2846
10999 1 6.65802 15.1188 17.9404
10996 2 8.17962 13.8416 16.5487
11065 2 10.8591 16.8293 16.5569
11069 1 12.3522 17.9493 17.9991
7470 1 12.252 18.0354 15.0559
11011 1 12.1043 15.1968 17.7691
11066 2 10.842 19.4598 19.525
7412 1 12.0111 15.3652 15.0813
11061 1 9.73576 18.1856 17.8895
11055 2 8.09203 16.6411 19.1878
7462 1 9.44076 17.9778 15.1719
11056 2 7.97379 19.4483 16.4985
11003 1 9.43629 15.2092 17.8765
7404 1 9.3998 15.1022 14.8852
11070 1 12.2846 17.9878 20.8304
11012 1 12.2152 15.176 20.8267
11004 1 9.6811 15.3334 20.8024
11062 1 9.26916 17.9641 20.778
14487 2 13.6671 -0.491062 24.8949
136 2 7.84414 7.46182 27.6613
7214 2 5.22435 -3.27388 13.6993
14600 1 6.41274 15.0072 26.1425
14606 1 9.35173 15.0162 26.5487
4 2 2.40894 -3.25202 27.3829
17948 1 0.782178 -2.00606 26.0846
14473 2 5.38613 -0.410228 22.0753
14405 1 0.99932 -4.91317 23.5454
14407 1 1.15393 -1.98799 23.376
14414 2 5.14398 -3.37967 24.6811
14409 1 3.7024 -4.65499 23.3489
14463 2 2.58851 -0.502528 24.7359
14410 1 0.891173 -4.81029 26.108
14404 2 2.52525 -3.39701 21.8851
14411 1 4.06179 -1.85316 23.2496
14412 1 3.84224 -2.05068 26.1766
17960 1 3.81451 -4.87295 26.3282
7394 2 5.15753 13.5694 13.7863
10862 2 -0.466571 2.58069 19.3256
10824 1 9.5485 -2.04045 20.7465
14419 1 6.74016 -1.97099 23.5862
17964 1 6.38388 -4.72187 26.3538
14417 1 6.72979 -4.81722 23.1484
14418 1 6.62723 -2.04943 26.2402
10832 1 12.1367 -2.02502 20.8037
85 2 10.8884 -0.639998 27.5129
14430 1 12.3205 -4.64491 26.3684
14485 2 10.9399 -0.552721 22.0342
14429 1 12.3283 -4.70838 23.6594
14431 1 12.264 -2.0387 23.6885
14426 2 10.859 -3.35615 24.8551
14432 1 12.4562 -1.90338 26.3852
14421 1 9.49341 -4.91614 23.7562
14475 2 8.08454 -0.51694 24.9337
14422 1 9.43447 -4.9504 26.2054
14416 2 8.092 -3.39405 22.219
14423 1 9.60554 -1.95026 23.5884
14424 1 9.46623 -1.99028 26.5075
14670 1 12.0604 18 26.4955
265 2 10.7912 16.1563 27.855
14666 2 10.9056 19.2712 24.896
14461 2 -0.285648 -0.518942 21.9847
9 1 0.423896 0.692303 26.4684
14408 1 1.16085 3.42274 26.3707
14470 1 3.70599 0.791859 26.2894
14465 1 0.697864 1.03482 23.4701
14474 2 5.23187 2.27968 25.1032
14469 1 3.5035 1.12982 23.5806
14464 2 2.12211 2.34892 22.0713
14533 2 5.31055 5.31742 22.0837
14525 1 1.06543 6.50344 23.5582
14467 1 0.681595 3.69467 23.4624
14523 2 2.54301 4.96444 25.0856
14471 1 4.04214 3.85923 23.6595
14472 1 4.10157 3.80256 26.5631
14468 1 1.04924 6.26129 26.4644
14529 1 3.83127 6.53572 23.6636
11042 2 -0.344423 19.5323 19.4823
14655 2 7.72753 16.5366 24.998
14530 1 3.68029 6.94392 26.4364
10878 1 6.5744 1.09987 20.8858
10884 1 9.62196 3.44267 21.0051
10950 1 12.1919 6.65839 20.6982
145 2 11.0669 5.21953 27.5517
14477 1 6.644 0.932324 23.7196
14480 1 6.8605 3.56274 26.1393
14537 1 6.94543 6.60854 23.8335
14538 1 6.46261 6.31363 26.4714
14479 1 6.8007 3.86476 23.5541
14420 1 6.46041 0.712998 26.4599
14478 1 9.5543 3.72214 26.7617
14489 1 12.3772 0.968051 23.4911
14490 1 12.4418 0.962299 26.2259
14481 1 9.6113 0.72096 23.6286
14482 1 9.55594 0.922452 26.2678
14476 2 8.16413 2.39574 22.3743
76 2 11.0471 2.25974 24.9586
14486 1 12.2002 3.79396 26.0702
14483 1 9.55228 3.60488 23.8392
14535 2 8.24977 5.14005 25.0963
14545 2 11.0336 5.12971 22.2326
14549 1 12.4185 6.37543 23.4347
14491 1 12.2794 3.75857 23.4491
14541 1 9.60571 6.66895 23.7114
14542 1 9.56203 6.60355 26.4643
14550 1 12.3068 6.59819 26.2772
16 2 8.14923 -3.57268 27.5411
124 2 2.16134 8.0683 27.5747
7334 2 5.20811 7.98408 13.6769
256 2 8.55527 19.3895 27.8535
14579 1 1.38628 9.17668 25.2035
14586 1 1.3726 13.143 24.909
14593 2 5.09321 11.066 21.9747
14527 1 1.21197 10.8551 23.3366
14534 2 5.21722 7.97236 24.8197
14583 2 2.94023 10.8583 24.9665
14524 2 2.17262 7.94653 22.2301
14531 1 3.74896 9.42977 23.4341
14532 1 4.44217 9.471 26.4595
14589 1 3.62983 12.418 23.3224
14590 1 3.94151 12.3859 26.1409
14528 1 1.91951 10.9938 27.1786
184 2 2.08335 13.4835 27.2646
14612 1 12.2416 15.1283 26.5909
14661 1 9.50425 18.1031 23.4653
14603 1 9.2079 15.0589 23.677
10828 2 13.5764 -3.35141 16.5245
11002 1 9.5789 12.2625 20.7633
11010 1 12.2565 12.2381 20.6632
141 1 9.8148 10.0121 26.005
14665 2 10.849 16.5853 22.3158
14597 1 6.38227 12.2898 23.5806
197 1 9.60716 12.3487 26.6871
14539 1 6.52225 9.47581 23.4545
10944 1 9.38876 9.3971 20.7674
14602 1 6.78834 11.7417 26.5105
14601 1 9.25349 12.2763 23.4796
14544 1 7.45066 9.02134 25.9984
14543 1 9.5628 9.39012 23.4543
14536 2 8.14566 7.8538 22.1196
14595 2 7.89391 10.6801 24.5892
14605 2 10.8508 10.8225 21.9702
14551 1 12.6273 9.45209 23.3473
14546 2 10.8464 8.16003 25.0716
14609 1 12.1346 12.2313 23.6069
14552 1 12.4324 9.40176 26.1763
14610 1 12.4179 12.2372 26.3995
7263 2 2.37582 -0.418549 13.7017
14650 1 3.35376 19.6484 26.081
11058 1 6.37979 18.0366 20.8459
14611 1 12.5263 14.9832 23.4829
208 2 10.8451 13.5354 25.0111
14584 2 1.89749 13.7451 22.4112
14594 2 4.95872 13.7216 24.7444
14591 1 3.5271 15.0072 23.5863
14644 2 2.36413 19.4969 22.0779
14587 1 0.422237 15.6259 23.8821
14654 2 5.14537 19.5072 24.5962
14658 1 4.79988 17.3607 25.7776
14649 1 3.58754 18.1722 23.3058
14646 1 0.661811 18.3332 26.3165
14588 1 0.73674 15.4598 26.7028
14645 1 1.07424 18.2771 23.5334
14653 2 5.03867 16.612 22.138
14643 2 2.29246 16.9611 25.1715
14592 1 3.48969 15.0925 26.398
14599 1 6.40427 15.0831 23.4256
14669 1 12.4569 17.75 23.461
14596 2 7.90169 13.7599 22.0404
261 1 6.53948 18.9167 26.5665
7466 2 10.7254 19.5275 13.8248
11000 1 6.84589 15.3337 20.6462
7274 2 5.17221 2.45061 13.9368
11008 2 13.6464 13.72 16.4037
7335 2 8.21693 5.21728 13.8072
11067 2 13.5052 16.48 19.3741
88 2 13.6263 2.57565 27.6423
181 2 -0.466403 10.8279 24.9953
14521 2 -0.39473 5.19721 22.0301
196 2 7.7013 13.9884 27.7962
7275 2 7.98455 -0.579207 13.7887
7323 2 2.26036 5.0147 13.8276
10921 2 -0.38603 5.29369 16.6529
14522 2 -0.356312 7.50049 24.8823
7442 2 -0.458419 19.4236 13.9322
10981 2 -0.212544 10.9472 16.4601
14402 2 -0.380557 -3.27849 24.7232
7395 2 7.97365 10.8229 13.7077
193 2 8.25702 10.5924 27.7645
64 2 2.75786 2.22178 27.7785
259 2 4.75665 19.5076 27.8092
3913 2 5.13538 22.0371 5.46145
306 1 1.15865 23.3645 3.56065
247 1 0.475138 20.9614 0.772366
314 2 5.31485 25.1623 2.27942
248 1 0.956941 20.5377 3.78837
303 2 2.55587 22.224 2.07295
310 1 3.72926 23.6454 3.86632
3904 2 2.21347 24.9705 5.20555
14652 1 0.72387 23.784 0.911869
14712 1 4.00223 23.9407 0.862507
252 1 3.82425 20.8587 3.88951
3905 1 0.805671 23.6957 6.41297
3909 1 3.74229 23.5038 6.79631
14778 1 6.55817 26.4481 0.73112
3911 1 3.52422 26.5181 6.54238
307 1 1.17339 26.3436 0.772638
312 1 3.59304 26.5872 3.7603
308 1 0.706705 26.1426 3.73114
309 1 5.42655 21.2081 1.38312
3851 1 3.89947 20.5045 6.71441
3902 2 -0.418168 25.0897 8.04539
4107 2 13.3702 39.2485 7.97496
251 1 6.85711 23.8782 0.875789
318 1 6.61923 24.007 3.61577
260 1 6.68612 21.0789 4.01143
3925 2 10.5098 22.3214 5.08068
329 1 12.1015 23.9893 0.773637
330 1 12.1185 23.7716 3.62238
271 1 9.76619 20.7496 0.866488
326 2 10.6912 25.1633 2.38276
272 1 12.1148 21.041 3.87206
321 1 9.46452 23.4329 1.07249
315 2 7.95078 22.0085 2.07199
322 1 9.43436 24.02 3.7444
3916 2 7.88989 25.0692 5.13782
264 1 9.40871 20.8037 3.5641
273 1 12.4913 20.9914 0.745842
3929 1 12.0873 23.9156 6.54673
3871 1 12.1762 20.9999 6.78988
324 1 9.33679 26.6826 3.984
332 1 12.1225 26.5616 4.09804
323 1 9.45941 26.314 0.961606
507 2 13.4912 39.2012 2.4127
422 2 -0.496409 36.3732 2.40007
311 1 3.7468 26.9463 0.695453
3973 2 4.87219 28.1089 4.98717
363 2 2.18941 27.8798 2.45453
425 1 0.772985 32.0223 3.56247
366 1 1.08263 29.0868 0.92578
367 1 0.840565 32.1332 0.98683
374 2 5.08179 30.8797 2.05627
368 1 0.881313 29.0041 3.94604
369 1 3.6557 29.4541 0.283524
370 1 3.46008 29.6035 3.23038
3964 2 2.07487 30.7856 4.82788
371 1 3.77815 32.2413 0.709145
372 1 3.68504 32.4325 3.65564
3965 1 0.835774 29.4307 6.50965
3967 1 0.755104 32.077 6.05566
377 1 6.50513 29.4565 0.898136
320 1 6.2587 27.0339 3.43532
380 1 6.5029 32.1594 3.74827
3977 1 6.53315 29.0457 6.20691
3979 1 6.77458 32.3592 6.39858
3969 1 3.69476 29.5043 6.19616
567 2 13.4032 45.0055 2.26551
4048 2 13.5986 36.5189 5.11949
331 1 12.1041 27.0288 1.26939
378 1 6.3092 29.5389 3.63611
379 1 6.52242 32.2894 0.797266
3985 2 10.6826 27.8891 5.41276
375 2 7.98746 28.1836 2.26724
391 1 12.1447 32.3894 0.971008
386 2 10.8344 30.9256 2.45604
392 1 12.3101 32.3046 3.8118
381 1 9.649 29.5303 1.00168
382 1 9.34421 29.5589 3.6882
3976 2 8.04256 30.8559 5.20254
383 1 9.44075 32.2074 1.17258
384 1 9.54604 32.2096 3.90553
3989 1 12.0949 29.3473 3.90375
395 1 12.6986 29.7617 1.20685
3988 2 13.4053 30.7805 5.38982
389 2 13.6636 28.0026 -0.266457
3990 1 12.0729 29.294 6.52047
3983 1 9.49884 32.1812 6.46194
3981 1 9.15208 29.306 6.64397
387 2 13.4353 28.004 2.79253
4033 2 5.28436 33.6022 5.13166
426 1 0.842458 34.977 3.84817
434 2 5.06113 36.426 2.10093
429 1 3.83222 35.015 0.79631
423 2 2.25763 33.5722 2.29397
430 1 3.71242 35.1008 3.92386
4024 2 2.43987 36.3194 5.17559
428 1 0.809566 37.5928 3.94718
486 1 0.637659 37.9077 0.856934
427 1 0.928021 35.0869 0.894609
431 1 3.48928 37.8816 0.83279
432 1 3.70051 38.0271 3.55772
483 2 2.09711 39.2908 2.11156
4093 2 4.93386 39.3566 5.17111
439 1 6.48767 37.9312 0.90618
437 1 6.66636 34.9943 0.732195
4039 1 6.16295 37.8751 6.60092
4029 1 3.81697 34.9038 6.57468
4025 1 1.09754 35.1107 6.55848
508 2 13.493 42.0739 -0.432075
4106 2 10.6102 42.1183 7.7112
545 1 0.710629 46.1179 0.984558
440 1 6.52025 37.9224 3.80964
438 1 6.50126 35.1869 3.34674
4045 2 10.958 33.7234 5.25219
449 1 12.2818 35.0861 0.847577
450 1 12.282 34.8889 3.61246
446 2 10.7802 36.3072 2.33218
441 1 9.4738 34.9029 1.02863
435 2 7.95914 33.6409 2.43527
442 1 9.39344 34.8479 3.80123
4036 2 7.96643 36.5422 4.89355
509 1 12.1572 37.7729 0.789981
452 1 12.1067 37.7521 3.70967
443 1 9.39465 37.8424 1.11667
444 1 9.34102 37.768 3.69308
495 2 7.82261 39.3908 2.50102
4105 2 10.591 39.0822 5.19975
4043 1 9.196 37.9831 6.35884
4051 1 11.9913 37.8826 6.34471
4041 1 9.66871 35.0553 6.66073
436 2 7.99531 36.6514 -0.417756
445 2 10.7641 33.7488 -0.273915
557 1 6.39405 46.3325 1.1318
4112 2 10.4991 42.2406 10.7243
4153 2 4.96788 44.9143 5.21817
485 1 0.829457 40.7637 0.888329
487 1 0.809215 43.515 1.06161
494 2 5.01873 42.028 2.31971
488 1 0.425244 43.2906 3.97083
489 1 3.57228 40.7879 0.799972
543 2 2.18552 44.687 2.32145
490 1 3.39302 40.857 3.67744
4084 1 0.767358 40.3983 3.74909
491 1 3.77665 43.3812 0.705727
492 1 3.45791 43.5152 3.56548
482 2 2.12596 41.9801 5.23722
7696 2 7.30515 42.2487 10.9742
4089 1 3.45651 40.496 6.85506
499 1 6.56947 43.141 0.981249
497 1 6.38411 40.5533 1.07862
7709 1 11.9401 40.8373 12.1369
4149 1 3.42638 46.0687 6.63685
500 1 6.38954 43.403 3.7474
498 1 6.51665 40.6546 3.76428
4165 2 10.577 45.1757 5.2177
510 1 11.8488 40.5421 3.93906
511 1 11.9769 43.5448 0.812336
506 2 10.7373 42.1453 2.37547
501 1 12.1056 40.7591 0.935657
555 2 7.93249 44.8164 2.37845
502 1 9.13651 40.6145 3.8231
4096 2 7.685 42.1784 5.17947
503 1 9.2677 40.7075 0.722203
504 1 9.21274 43.4241 3.84928
565 1 12.0654 43.5297 3.81037
561 1 9.24733 43.4984 1.10686
4155 2 7.55273 45.0585 7.84831
3927 2 13.531 22.4599 8.04774
3928 2 13.4216 25.1587 5.18378
4103 1 9.14243 43.5347 6.65797
4109 1 12.0403 40.7229 6.69088
14660 1 3.19083 21.3191 -0.208848
3847 1 1.0164 20.7522 6.53828
3917 1 6.48628 23.6066 6.53642
3859 1 6.71866 20.5006 6.50905
3907 1 0.851435 26.5213 6.7049
4110 1 11.6748 40.8659 9.3851
7648 2 13.5003 36.4479 10.9875
7459 1 3.81698 20.6652 9.74461
7513 2 5.03932 22.2541 11.0037
7505 1 0.628418 23.7538 12.2159
3906 1 0.67088 23.6883 9.56406
7447 1 0.804082 20.9646 12.6079
3914 2 5.04803 25.0291 8.13072
7509 1 3.41763 23.7214 12.3553
3903 2 2.52806 22.0008 8.10666
3910 1 3.6213 23.6921 9.68521
7504 2 2.2185 25.2835 10.8534
7451 1 3.42435 20.6934 12.4605
3852 1 0.809729 21.0469 9.35393
7507 1 0.661128 26.6164 12.4839
3912 1 3.46819 26.664 9.23809
3908 1 0.666385 26.5665 9.52914
549 1 3.65734 46.1135 0.899358
7517 1 6.43139 23.6759 12.0711
3860 1 6.33609 21.047 9.14082
7519 1 6.35525 26.4825 12.2551
7765 2 10.6332 45.6147 10.8413
327 2 13.5647 22.1738 2.34806
3863 1 9.38839 20.9159 6.54065
3923 1 9.4449 26.4111 6.58995
3921 1 9.06862 23.639 6.79362
3918 1 6.43443 23.8074 9.33644
7525 2 10.642 22.2718 11.0374
7529 1 12.1866 23.6864 12.6445
3930 1 12.0373 23.8393 9.45131
7471 1 12.2683 20.9235 12.319
3926 2 10.38 24.987 8.07025
3872 1 12.0151 20.8347 9.47464
7521 1 9.65527 24.1853 11.8301
3915 2 7.99104 22.0776 7.95352
3922 1 9.22065 23.4448 9.64977
7516 2 7.79815 25.1123 10.9935
7463 1 9.61209 20.7469 12.3743
3864 1 9.30257 20.636 9.51798
7528 2 13.2561 25.161 11.0119
3931 1 11.9046 26.5805 7.07747
376 2 8.14197 30.8063 -0.484801
3971 1 3.78633 32.2678 6.64764
3919 1 6.656 26.1256 6.76157
424 2 2.26223 36.3709 -0.429238
7511 1 3.55082 26.8174 12.0861
7573 2 4.85729 28.0851 10.7373
3963 2 2.09768 27.9038 7.9319
7565 1 1.20316 29.1273 12.1555
3966 1 0.703677 29.3608 9.29585
3974 2 4.73084 30.7853 8.05677
3968 1 1.28879 31.8375 9.09359
7569 1 3.92877 29.7362 12.0565
3970 1 3.42227 29.4075 9.26753
7564 2 2.2907 30.7167 10.7598
7571 1 1.16656 32.3492 11.9188
3972 1 3.86315 32.335 9.70811
7579 1 6.19472 32.0816 11.7219
3980 1 6.43325 32.2598 9.09644
3920 1 6.36174 26.6204 9.57069
3978 1 6.39739 29.5945 9.26201
3991 1 12.2398 32.2283 6.74031
7501 2 -0.441184 22.3214 11.0033
7531 1 12.0386 26.6026 12.5452
3924 1 9.21679 26.5031 9.30439
3932 1 12.4497 26.9703 9.84722
7577 1 6.55725 29.339 11.9282
7523 1 8.89061 26.7381 12.2648
7585 2 10.4653 27.9641 10.8381
3975 2 7.65749 27.8877 7.87345
7589 1 12.2585 29.4193 12.1448
3986 2 10.4996 30.6723 8.1242
3992 1 11.9223 32.3091 9.372
7581 1 9.34642 29.8556 11.964
3982 1 9.04383 29.247 9.24474
7576 2 7.70376 30.8295 10.5496
7583 1 11.9637 29.4825 9.30201
3984 1 9.21195 32.1934 9.38802
7635 1 11.739 32.2159 11.9691
7588 2 13.4127 30.7592 10.7582
512 1 11.9936 43.6984 6.50422
4031 1 3.51708 37.8017 6.52788
4027 1 0.47172 38.0829 6.94797
4037 1 6.79955 35.2058 6.21804
7567 1 0.658859 35.2725 12.1959
7633 2 5.11238 33.9649 10.8828
4026 1 0.555032 34.5585 9.31388
4034 2 4.95579 36.3992 7.9085
7629 1 3.57911 34.7711 12.1191
4023 2 2.36068 33.6234 7.97055
4030 1 3.62353 35.0543 9.39949