LAMMPS (29 Oct 2020)
OMP_NUM_THREADS environment is not set. Defaulting to 1 thread. (../comm.cpp:94)
  using 1 OpenMP thread(s) per MPI task
OMP_NUM_THREADS environment is not set. Defaulting to 1 thread. (../comm.cpp:94)
  using 1 OpenMP thread(s) per MPI task
Reading data file ...
  orthogonal box = (-0.36181556 -4.3276056 -0.35465159) to (27.701816 332.40761 27.694652)
  2 by 13 by 2 MPI processor grid
  reading atoms ...
  18000 atoms
  reading velocities ...
  18000 velocities
Finding 1-2 1-3 1-4 neighbors ...
  special bond factors lj:    0.0      0.0      0.0     
  special bond factors coul:  0.0      0.0      0.0     
     0 = max # of 1-2 neighbors
     0 = max # of 1-3 neighbors
     0 = max # of 1-4 neighbors
     1 = max # of special neighbors
  special bonds CPU = 0.003 seconds
  read_data CPU = 0.110 seconds
Setting atom values ...
  12000 settings made for charge
Setting atom values ...
  6000 settings made for charge
PPPM initialization ...
  using 12-bit tables for long-range coulomb (../kspace.cpp:328)
  G vector (1/distance) = 0.29884254
  grid = 40 240 40
  stencil order = 5
  estimated absolute RMS force accuracy = 0.00015766499
  estimated relative force accuracy = 1.0949228e-05
  using single precision MKL FFT
  3d grid and FFT values/proc = 15000 7600
Neighbor list info ...
  update every 1 steps, delay 0 steps, check yes
  max neighbors/atom: 2000, page size: 100000
  master list distance cutoff = 11.3
  ghost atom cutoff = 11.3
  binsize = 5.65, bins = 5 60 5
  2 neighbor lists, perpetual/occasional/extra = 2 0 0
  (1) pair coul/long, perpetual
      attributes: half, newton on
      pair build: half/bin/newton
      stencil: half/bin/3d/newton
      bin: standard
  (2) pair eam/alloy, perpetual, copy from (1)
      attributes: half, newton on
      pair build: copy
      stencil: none
      bin: none
Setting up Verlet run ...
  Unit style    : metal
  Current step  : 0
  Time step     : 0.001
Per MPI rank memory allocation (min/avg/max) = 8.162 | 8.186 | 8.200 Mbytes
Step Temp E_pair E_mol TotEng Press 
       0          600   -235507.12            0   -234111.19   -1491.4511 
  100000    598.38934   -235489.29            0    -234097.1   -978.79953 
Loop time of 654.525 on 52 procs for 100000 steps with 18000 atoms

Performance: 13.200 ns/day, 1.818 hours/ns, 152.783 timesteps/s
99.8% CPU use with 52 MPI tasks x 1 OpenMP threads

MPI task timing breakdown:
Section |  min time  |  avg time  |  max time  |%varavg| %total
---------------------------------------------------------------
Pair    | 444.99     | 453.81     | 465.25     |  24.7 | 69.33
Bond    | 0.0060353  | 0.010097   | 0.014933   |   1.8 |  0.00
Kspace  | 133.26     | 146.11     | 156.83     |  50.4 | 22.32
Neigh   | 33.888     | 35.469     | 37.637     |  18.3 |  5.42
Comm    | 14.088     | 14.912     | 16.192     |  13.2 |  2.28
Output  | 5.3808e-05 | 5.9565e-05 | 0.00025498 |   0.0 |  0.00
Modify  | 2.0016     | 2.9287     | 4.8957     |  48.6 |  0.45
Other   |            | 1.278      |            |       |  0.20

Nlocal:        346.154 ave         375 max         332 min
Histogram: 5 15 10 4 5 5 5 2 0 1
Nghost:        4185.31 ave        4288 max        4112 min
Histogram: 8 8 8 3 5 7 1 4 4 4
Neighs:        69922.1 ave       76509 max       66069 min
Histogram: 2 6 16 10 3 9 3 2 0 1

Total # of neighbors = 3635951
Ave neighs/atom = 201.99728
Ave special neighs/atom = 0.0000000
Neighbor list builds = 16213
Dangerous builds = 0
12000 atoms in group oxygen
PPPM initialization ...
  using 12-bit tables for long-range coulomb (../kspace.cpp:328)
  G vector (1/distance) = 0.29884254
  grid = 40 240 40
  stencil order = 5
  estimated absolute RMS force accuracy = 0.00015766499
  estimated relative force accuracy = 1.0949228e-05
  using single precision MKL FFT
  3d grid and FFT values/proc = 15000 7600
Setting up Verlet run ...
  Unit style    : metal
  Current step  : 0
  Time step     : 0.001
Per MPI rank memory allocation (min/avg/max) = 8.413 | 8.437 | 8.451 Mbytes
Step f_2 Temp v_Tdiff v_deltaT 
       0            0    598.38934            0            0 
  100000    715.48237    603.08888  0.015195095    176.41364 
  200000    1415.7155    601.66856  0.016539065    192.01701 
  300000    2121.3375    604.11432  0.017173234    199.37966 
  400000     2829.425    600.32875   0.01629026     189.1284 
  500000    3537.4198    596.57018  0.017619849    204.56482 
  600000    4248.9004    606.77592  0.016321306    189.48885 
  700000    4956.5903    603.17109  0.016939988    196.67169 
  800000    5662.6353    599.81553    0.0164158    190.58592 
  900000    6369.5955    603.98198  0.016878182    195.95412 
 1000000    7076.6806    600.98037  0.017222946    199.95681 
 1100000    7782.5091    603.47983  0.016560917     192.2707 
 1200000    8486.3373    602.26715  0.017299703    200.84795 
 1300000    9190.8268    600.58856  0.017475938    202.89401 
 1400000    9899.3945    603.85309  0.016732653    194.26455 
 1500000    10602.431    598.90573  0.016784036     194.8611 
Loop time of 9794.09 on 52 procs for 1500000 steps with 18000 atoms

Performance: 13.232 ns/day, 1.814 hours/ns, 153.154 timesteps/s
99.9% CPU use with 52 MPI tasks x 1 OpenMP threads

MPI task timing breakdown:
Section |  min time  |  avg time  |  max time  |%varavg| %total
---------------------------------------------------------------
Pair    | 6646.1     | 6795.1     | 6968.5     |  97.6 | 69.38
Bond    | 0.095493   | 0.14846    | 0.2218     |   6.9 |  0.00
Kspace  | 1997.5     | 2182.6     | 2320.7     | 193.4 | 22.28
Neigh   | 518.28     | 542.08     | 574.72     |  66.7 |  5.53
Comm    | 210.92     | 224.92     | 248.12     |  64.4 |  2.30
Output  | 0.0016144  | 0.0016975  | 0.0034014  |   0.6 |  0.00
Modify  | 8.2801     | 8.8415     | 9.4712     |  10.0 |  0.09
Other   |            | 40.36      |            |       |  0.41

Nlocal:        346.154 ave         369 max         328 min
Histogram: 2 6 5 12 7 7 5 6 0 2
Nghost:        4173.06 ave        4255 max        4076 min
Histogram: 6 4 4 2 4 7 9 2 6 8
Neighs:        69919.1 ave       75068 max       65713 min
Histogram: 3 2 4 15 9 6 10 1 1 1

Total # of neighbors = 3635791
Ave neighs/atom = 201.98839
Ave special neighs/atom = 0.0000000
Neighbor list builds = 247924
Dangerous builds = 0
Total wall time: 2:54:09
