ITEM: TIMESTEP
70000
ITEM: NUMBER OF ATOMS
30000
ITEM: BOX BOUNDS pp pp pp
-3.5459645977346976e-01 2.7694596459772463e+01
-7.1174014974836686e+00 5.5391740149748637e+02
-3.5180675943000533e-01 2.7691806759429976e+01
ITEM: ATOMS id type q x y z
1 2 2.2208 5.14712 -1.53133 5.35125
2 1 -1.1104 0.955932 -5.88014 1.00728
4 1 -1.1104 1.03037 -5.75536 4.02964
6 1 -1.1104 0.894881 -2.9717 1.0857
7 2 2.2208 5.19073 -4.46611 2.55637
8 1 -1.1104 1.03059 -3.09719 3.94927
9 1 -1.1104 3.82113 -5.8031 1.06106
11 2 2.2208 2.37115 -1.59702 2.46224
12 1 -1.1104 3.73939 -5.76454 3.73348
14 2 2.2208 2.4895 -4.32556 5.26536
15 1 -1.1104 3.83356 -3.01486 1.06593
16 1 -1.1104 3.90365 -2.8263 3.91527
5 1 -1.1104 0.878535 -0.377123 3.7626
10 1 -1.1104 3.80446 -0.296096 0.987402
13 1 -1.1104 3.71871 -0.120287 3.83137
23 1 -1.1104 6.57546 -3.04916 1.08954
21 1 -1.1104 6.59742 -5.8791 3.82497
19 1 -1.1104 6.60643 -5.74675 1.02686
22 1 -1.1104 6.46576 -0.130599 3.82141
24 1 -1.1104 6.46964 -3.08819 3.99681
272 1 -1.1104 6.66384 -5.82541 6.63687
20 1 -1.1104 6.59246 -0.356707 0.999025
3 1 -1.1104 0.951546 -0.0381479 1.06104
251 1 -1.1104 3.80148 -5.81976 6.61128
274 1 -1.1104 6.60374 -2.92909 6.71814
249 1 -1.1104 0.920672 -0.402853 6.53355
250 1 -1.1104 0.922487 -3.01348 6.76535
253 1 -1.1104 3.8227 -3.1066 6.72822
273 1 -1.1104 6.59312 -0.232253 6.69549
25 2 2.2208 10.7116 -1.61628 5.3494
26 1 -1.1104 12.1889 -5.77507 1.01598
28 1 -1.1104 12.0476 -6.02513 3.83508
30 1 -1.1104 12.1296 -3.00365 0.939963
31 2 2.2208 10.7379 -4.43627 2.41608
32 1 -1.1104 12.1785 -3.13187 3.78177
33 1 -1.1104 9.31335 -5.83251 0.95347
35 2 2.2208 7.96389 -1.55355 2.54204
36 1 -1.1104 9.43151 -5.80879 3.71566
38 2 2.2208 8.08833 -4.41327 5.19466
39 1 -1.1104 9.40588 -2.89574 1.04493
40 1 -1.1104 9.38099 -3.03415 3.82911
27 1 -1.1104 12.0105 -0.189735 1.18219
34 1 -1.1104 9.31701 -0.208683 1.08247
37 1 -1.1104 9.26144 -0.309753 3.94
279 1 -1.1104 9.36425 -0.282578 6.60868
44 2 2.2208 13.5151 -1.67988 2.45985
46 2 2.2208 13.5253 -4.40935 5.27321
29 1 -1.1104 12.1019 -0.349497 3.97506
277 1 -1.1104 12.1306 -3.02676 6.65061
275 1 -1.1104 12.0855 -6.00931 6.75953
280 1 -1.1104 9.33124 -3.2761 6.66881
47 2 2.2208 16.3561 -1.72906 5.18613
48 1 -1.1104 17.8016 -5.67891 1.06561
50 1 -1.1104 17.5367 -5.87973 3.80007
52 1 -1.1104 17.5373 -2.95284 1.01842
53 2 2.2208 16.3455 -4.43766 2.38029
54 1 -1.1104 17.7839 -3.07444 3.87341
55 1 -1.1104 14.9423 -5.97412 0.905069
59 2 2.2208 19.0605 -1.57081 2.46942
60 1 -1.1104 14.7287 -5.90221 3.94764
64 2 2.2208 19.1098 -4.39643 5.24025
65 1 -1.1104 14.7874 -2.93696 1.14238
67 1 -1.1104 15.073 -3.08645 3.90192
51 1 -1.1104 17.5891 -0.156486 3.85213
49 1 -1.1104 17.7653 -0.069436 1.10889
61 1 -1.1104 14.8034 -0.214473 3.79867
305 1 -1.1104 17.6086 -5.84456 6.60298
308 1 -1.1104 14.9874 -5.90494 6.77075
569 1 -1.1104 26.1698 10.9754 12.2366
564 1 -1.1104 26.1848 13.7351 12.1606
63 1 -1.1104 20.4724 -0.121824 3.93283
57 1 -1.1104 20.6944 -5.71144 1.00544
68 1 -1.1104 20.6298 -2.93581 3.8858
62 1 -1.1104 20.4061 -5.70277 3.74015
66 1 -1.1104 20.3702 -2.88067 1.10869
56 1 -1.1104 14.8712 -0.069882 0.985881
1128 2 2.2208 19.1505 12.4464 -0.434157
1060 2 2.2208 24.5881 6.78921 -0.510274
69 2 2.2208 13.5715 -4.4559 -0.327128
58 1 -1.1104 20.5195 -0.209627 1.06226
71 2 2.2208 27.6171 -4.41834 2.57414
70 2 2.2208 27.5811 -1.73256 5.2092
75 2 2.2208 22.0393 -1.54875 5.32462
76 1 -1.1104 23.6063 -5.75179 1.0647
78 1 -1.1104 23.3274 -5.82441 3.86875
80 1 -1.1104 23.29 -3.0118 1.01794
81 2 2.2208 21.9455 -4.36681 2.50644
82 1 -1.1104 23.4015 -3.00718 3.81818
83 1 -1.1104 26.3143 -5.95878 1.20844
85 2 2.2208 24.7475 -1.58227 2.58309
86 1 -1.1104 26.1048 -5.80961 3.998
88 2 2.2208 24.7461 -4.55068 5.43507
89 1 -1.1104 26.1429 -3.13366 1.17031
90 1 -1.1104 26.2084 -3.21564 4.03335
77 1 -1.1104 23.4354 -0.201355 1.10803
84 1 -1.1104 26.1669 -0.332702 1.19139
87 1 -1.1104 26.0523 -0.240993 3.92074
79 1 -1.1104 23.3157 -0.112933 3.89238
342 1 -1.1104 23.46 -0.261275 6.83878
18 2 2.2208 2.24633 -4.47453 -0.285222
346 1 -1.1104 26.2155 -3.20462 6.72461
344 1 -1.1104 26.2506 -5.9147 6.78059
568 2 2.2208 24.6578 9.57298 7.978
345 1 -1.1104 26.1374 -0.292959 6.63054
91 2 2.2208 5.10611 3.94317 5.27196
92 1 -1.1104 0.906648 5.46271 1.05172
93 1 -1.1104 0.852041 5.14116 3.67949
94 1 -1.1104 0.76837 2.64545 1.13469
95 2 2.2208 5.11751 1.14626 2.30883
96 2 2.2208 5.0746 6.87187 2.40555
97 1 -1.1104 0.94267 2.53429 4.01239
98 1 -1.1104 3.67133 5.3699 1.00577
99 2 2.2208 2.22635 3.94525 2.36116
100 1 -1.1104 3.62853 5.36863 3.88688
101 2 2.2208 2.35514 1.12346 5.15532
102 2 2.2208 2.2813 6.75961 5.27982
103 1 -1.1104 3.71177 2.4496 1.00043
104 1 -1.1104 3.70657 2.62515 3.72355
107 1 -1.1104 6.40643 5.32953 3.77875
108 1 -1.1104 6.54565 2.64275 0.935931
109 1 -1.1104 6.55502 2.56674 3.81274
106 1 -1.1104 6.55867 5.4413 1.04806
368 1 -1.1104 0.786924 5.36617 6.59299
371 1 -1.1104 3.6591 2.42519 6.53036
370 1 -1.1104 3.61442 5.32323 6.65782
369 1 -1.1104 0.843825 2.41138 6.67349
389 1 -1.1104 6.52098 5.52848 6.55869
110 2 2.2208 10.7862 3.88999 5.25543
111 1 -1.1104 11.9446 5.34891 1.16713
112 1 -1.1104 11.9313 5.31293 3.86022
113 1 -1.1104 12.0582 2.60009 1.06044
114 2 2.2208 10.7377 1.03257 2.57959
115 2 2.2208 10.4914 6.79999 2.50747
116 1 -1.1104 12.3365 2.486 3.76184
117 1 -1.1104 9.13725 5.43243 1.04399
118 2 2.2208 7.88344 4.05336 2.53571
119 1 -1.1104 9.23555 5.44032 4.00977
120 2 2.2208 7.77339 1.21536 5.20427
121 2 2.2208 7.72705 6.9253 5.19021
122 1 -1.1104 9.23799 2.61026 1.21917
123 1 -1.1104 9.32623 2.49982 4.04839
128 2 2.2208 13.4213 4.02497 2.38919
129 2 2.2208 13.5265 1.12691 5.20978
130 2 2.2208 13.524 6.79492 5.29189
149 2 2.2208 27.4061 12.3792 8.01634
566 2 2.2208 24.7587 12.4063 10.9281
573 1 -1.1104 23.3546 13.8447 12.3499
393 1 -1.1104 9.33176 5.41236 6.66741
131 2 2.2208 16.2756 4.05581 5.18082
132 1 -1.1104 17.6472 5.48197 1.03414
133 1 -1.1104 17.5895 5.45399 3.91709
134 1 -1.1104 17.578 2.71035 1.02967
135 2 2.2208 16.2446 1.30896 2.38862
136 2 2.2208 16.1443 6.96531 2.32849
137 1 -1.1104 17.6512 2.54782 3.82603
138 1 -1.1104 14.7546 5.37033 0.923192
140 2 2.2208 19.0307 4.00646 2.52182
141 1 -1.1104 14.8279 5.43081 3.73038
143 2 2.2208 19.1071 1.24415 5.19258
144 2 2.2208 19.0779 6.84907 5.20161
145 1 -1.1104 14.8719 2.60109 1.0444
147 1 -1.1104 14.9694 2.52915 3.88239
139 1 -1.1104 20.4449 5.40756 0.983855
148 1 -1.1104 20.431 2.64628 3.85176
571 1 -1.1104 23.2881 8.22366 9.43939
576 1 -1.1104 23.1923 11.0242 12.322
146 1 -1.1104 20.5403 2.59455 1.05253
142 1 -1.1104 20.4737 5.36771 3.83679
877 2 2.2208 16.2859 12.3299 13.6868
416 1 -1.1104 17.8216 5.53383 6.69734
417 1 -1.1104 17.7849 2.66095 6.63743
151 2 2.2208 27.5782 3.88335 5.30369
152 2 2.2208 27.5784 1.14795 2.45343
153 2 2.2208 27.5892 6.79022 2.47662
154 2 2.2208 22.0082 4.01268 5.08672
155 1 -1.1104 23.222 5.51317 0.990447
156 1 -1.1104 23.2615 5.37047 3.7054
157 1 -1.1104 23.2115 2.64426 1.14226
158 2 2.2208 21.8629 1.30241 2.42001
159 2 2.2208 21.9159 6.81751 2.40521
160 1 -1.1104 23.25 2.56308 3.71918
161 1 -1.1104 26.0363 5.39133 0.979079
162 2 2.2208 24.6062 3.94565 2.40159
163 1 -1.1104 25.9956 5.39162 3.86954
164 2 2.2208 24.8144 1.24517 5.24144
165 2 2.2208 24.734 6.82174 5.1638
166 1 -1.1104 26.0307 2.56499 0.99047
167 1 -1.1104 26.0811 2.58937 3.82123
570 1 -1.1104 23.2296 13.6862 9.64485
563 1 -1.1104 26.1245 8.01359 9.2381
587 2 2.2208 10.6788 12.3789 13.6721
168 2 2.2208 4.92619 9.62767 5.24413
169 1 -1.1104 1.01431 10.8777 0.995412
170 1 -1.1104 0.892267 10.8379 3.7735
171 1 -1.1104 0.910241 8.16243 0.833016
172 1 -1.1104 0.785846 13.788 1.16252
173 2 2.2208 4.97103 12.5345 2.40008
174 1 -1.1104 0.897313 8.02294 3.72561
175 1 -1.1104 0.891992 13.542 3.97491
176 1 -1.1104 3.72706 11.1027 0.99313
177 2 2.2208 2.33397 9.55523 2.2938
178 1 -1.1104 3.56884 11.0386 3.68084
179 2 2.2208 2.33847 12.4175 5.33517
180 1 -1.1104 3.77546 8.25968 0.895975
181 1 -1.1104 3.70498 13.9165 0.954537
182 1 -1.1104 3.69429 8.39533 3.79091
183 1 -1.1104 3.62908 13.8649 3.79423
185 1 -1.1104 6.37895 11.16 3.66352
187 1 -1.1104 6.39802 13.9295 0.996893
188 1 -1.1104 6.46298 8.17059 3.83607
186 1 -1.1104 6.36805 8.13318 0.970662
189 1 -1.1104 6.41965 13.8767 3.87028
184 1 -1.1104 6.54281 10.9663 0.934471
508 1 -1.1104 6.2199 8.30335 6.54552
567 1 -1.1104 25.9912 10.9314 9.51435
478 1 -1.1104 3.57692 13.8065 6.64995
476 1 -1.1104 3.68874 11.138 6.70784
190 2 2.2208 10.6003 9.63217 5.25189
191 1 -1.1104 12.0274 10.9582 0.92882
192 1 -1.1104 11.8425 10.9413 3.80095
193 1 -1.1104 11.9639 8.11347 1.09239
194 1 -1.1104 11.9245 13.7651 0.97837
195 2 2.2208 10.6671 12.4077 2.33585
196 1 -1.1104 12.0832 8.06899 3.93525
197 1 -1.1104 11.8961 13.7627 3.76051
198 1 -1.1104 9.23079 10.9284 0.95039
199 2 2.2208 7.71521 9.69382 2.4666
200 1 -1.1104 9.1788 10.9352 3.69548
201 2 2.2208 7.7226 12.3694 5.2013
203 1 -1.1104 9.14532 8.21471 1.02196
204 1 -1.1104 9.11066 13.9505 0.987847
205 1 -1.1104 9.18855 8.26796 3.91169
206 1 -1.1104 9.24037 13.8959 3.83324
202 2 2.2208 13.3925 12.477 5.30061
207 2 2.2208 13.4361 9.65353 2.36222
579 1 -1.1104 23.2175 8.12604 6.70102
511 1 -1.1104 11.9698 8.20573 6.76764
208 2 2.2208 16.2265 9.67126 5.26696
209 1 -1.1104 17.7304 11.0203 1.11218
210 1 -1.1104 17.5862 10.8657 3.83005
211 1 -1.1104 17.7049 8.25703 0.96995
212 1 -1.1104 17.5521 13.6494 1.02906
213 2 2.2208 16.292 12.3663 2.32232
214 1 -1.1104 17.6894 8.19855 3.85556
215 1 -1.1104 17.672 13.8712 3.79991
216 1 -1.1104 14.9324 10.9258 0.977558
218 2 2.2208 18.957 9.58535 2.464
219 1 -1.1104 14.6847 11.1686 3.81629
221 2 2.2208 18.8863 12.4576 5.34935
222 1 -1.1104 14.8585 8.2407 0.890918
223 1 -1.1104 14.7605 13.738 1.11787
226 1 -1.1104 14.8645 8.4269 3.74774
227 1 -1.1104 14.7941 14.0184 3.83335
220 1 -1.1104 20.353 10.9635 3.80904
225 1 -1.1104 20.4634 13.7865 0.974265
229 1 -1.1104 20.5296 13.7547 3.81774
224 1 -1.1104 20.507 8.16334 0.999348
217 1 -1.1104 20.461 11.0076 1.00238
228 1 -1.1104 20.3894 8.14978 3.82832
548 1 -1.1104 20.511 13.7883 6.76497
545 1 -1.1104 14.8211 8.23187 6.55768
544 1 -1.1104 20.4231 11.0065 6.57758
547 1 -1.1104 20.4052 8.18667 6.66698
582 1 -1.1104 26.0863 8.26217 6.59799
230 2 2.2208 27.5071 9.50744 5.09177
231 2 2.2208 27.6138 12.3759 2.51667
232 2 2.2208 21.7943 9.58688 5.2342
233 1 -1.1104 23.2929 10.9948 0.963384
234 1 -1.1104 23.1912 11.0402 3.81847
235 1 -1.1104 23.4616 8.31119 1.02893
236 1 -1.1104 23.2211 13.8228 1.09777
237 2 2.2208 21.8198 12.3964 2.46505
238 1 -1.1104 23.0802 8.25429 3.91765
239 1 -1.1104 23.3397 13.9495 3.86178
240 1 -1.1104 26.1055 11.2049 1.02898
241 2 2.2208 24.6573 9.64445 2.33835
242 1 -1.1104 26.0271 10.9101 3.78424
243 2 2.2208 24.6148 12.3949 5.23719
244 1 -1.1104 26.1829 8.28528 1.04682
245 1 -1.1104 26.1921 13.7408 1.10903
246 1 -1.1104 26.0651 8.17124 3.72602
247 1 -1.1104 26.1161 13.7349 3.84317
252 1 -1.1104 3.76734 -0.322413 6.68385
248 1 -1.1104 0.995017 -5.86611 6.67408
254 2 2.2208 5.12392 -1.61494 10.9119
255 1 -1.1104 0.854794 -5.71045 12.28
257 1 -1.1104 1.07698 -5.95785 9.4586
259 1 -1.1104 0.757186 -2.99808 12.2596
260 2 2.2208 5.06448 -4.47523 8.08478
261 1 -1.1104 0.906759 -3.0102 9.51579
262 1 -1.1104 3.67865 -5.97505 12.1988
264 2 2.2208 2.2246 -1.5111 8.08314
265 1 -1.1104 3.73096 -5.80372 9.40313
267 2 2.2208 2.3194 -4.43322 10.8286
268 1 -1.1104 3.72015 -3.18051 12.3384
269 1 -1.1104 3.59526 -2.92132 9.49905
258 1 -1.1104 0.771011 -0.285462 9.46112
263 1 -1.1104 3.67152 -0.36315 12.3306
281 1 -1.1104 6.40317 -5.80451 12.3297
286 1 -1.1104 6.47059 -3.03944 9.49241
283 1 -1.1104 6.46641 -5.72706 9.516
285 1 -1.1104 6.45698 -2.93041 12.3893
266 1 -1.1104 3.77354 -0.102948 9.39127
256 1 -1.1104 1.02982 -0.204482 12.3165
284 1 -1.1104 6.56887 -0.138777 9.5023
577 2 2.2208 21.8638 9.62446 10.8731
282 1 -1.1104 6.50641 -0.258537 12.2215
581 1 -1.1104 25.8711 11.043 6.66452
276 1 -1.1104 12.2154 -0.363356 6.82679
278 1 -1.1104 9.45409 -5.8938 6.53415
287 2 2.2208 10.7562 -1.70942 10.8537
288 1 -1.1104 12.0371 -5.7042 12.2098
290 1 -1.1104 12.1134 -5.80287 9.56656
292 1 -1.1104 12.0948 -2.98279 12.2884
293 2 2.2208 10.6871 -4.65806 8.02159
294 1 -1.1104 11.9991 -3.00368 9.41158
295 1 -1.1104 9.30757 -5.83108 12.2596
297 2 2.2208 7.85453 -1.68606 8.1824
298 1 -1.1104 9.25086 -5.89396 9.42355
300 2 2.2208 7.93155 -4.48753 10.8767
301 1 -1.1104 9.18575 -3.04301 12.2942
302 1 -1.1104 9.25911 -3.14566 9.48938
291 1 -1.1104 12.013 -0.161947 9.50156
296 1 -1.1104 9.45375 -0.198528 12.2538
314 2 2.2208 13.5355 -1.70158 8.15006
315 2 2.2208 13.5255 -4.43612 10.8353
299 1 -1.1104 9.24416 -0.21176 9.56899
289 1 -1.1104 12.2219 -0.197139 12.2975
304 2 2.2208 7.87339 -1.66799 13.6915
578 1 -1.1104 23.2172 10.9959 6.55028
309 1 -1.1104 14.9836 -0.1348 6.5189
313 1 -1.1104 20.474 -3.03278 6.69865
311 1 -1.1104 20.7292 -0.221738 6.71863
312 1 -1.1104 14.9117 -2.98265 6.72129
575 1 -1.1104 23.2343 10.9905 9.43572
307 1 -1.1104 17.7367 -2.95953 6.77504
316 2 2.2208 16.3334 -1.66187 10.9891
317 1 -1.1104 17.6681 -5.88511 12.2516
319 1 -1.1104 17.7616 -5.9017 9.53193
321 1 -1.1104 17.7102 -3.0976 12.3392
322 2 2.2208 16.2779 -4.4368 8.08559
323 1 -1.1104 17.5676 -3.10406 9.48067
324 1 -1.1104 14.8615 -5.85003 12.2707
328 2 2.2208 19.0954 -1.52801 8.00223
329 1 -1.1104 15.0241 -5.85898 9.49775
333 2 2.2208 19.1104 -4.41833 10.8154
334 1 -1.1104 14.8554 -2.97082 12.2129
336 1 -1.1104 14.7774 -3.08733 9.5578
325 1 -1.1104 15.0125 -0.183515 12.3028
320 1 -1.1104 17.7718 -0.232686 9.39796
318 1 -1.1104 17.9145 -0.363391 12.142
330 1 -1.1104 14.9269 -0.255631 9.50814
327 1 -1.1104 20.6732 -0.285287 12.3755
310 1 -1.1104 20.3778 -5.88135 6.57542
332 1 -1.1104 20.5678 -0.248278 9.5965
331 1 -1.1104 20.474 -5.81227 9.50429
326 1 -1.1104 20.5877 -5.82379 12.1691
335 1 -1.1104 20.5508 -2.94305 12.228
337 1 -1.1104 20.4773 -3.05513 9.46922
306 1 -1.1104 17.7713 -0.0693356 6.65837
343 1 -1.1104 23.3362 -3.09027 6.60187
347 2 2.2208 27.5245 -1.56389 10.9666
348 2 2.2208 27.7129 -4.49357 8.08641
341 1 -1.1104 23.3664 -5.96221 6.61447
349 2 2.2208 21.963 -1.5933 10.9488
350 1 -1.1104 23.3139 -5.88898 12.1993
352 1 -1.1104 23.3729 -5.95664 9.41749
354 1 -1.1104 23.4194 -2.89458 12.3324
355 2 2.2208 21.9055 -4.44252 8.01294
356 1 -1.1104 23.3123 -3.2037 9.38128
357 1 -1.1104 26.1688 -5.78902 12.2726
359 2 2.2208 24.8219 -1.6892 8.0792
360 1 -1.1104 26.3664 -5.92253 9.41366
362 2 2.2208 24.9186 -4.46598 10.8449
363 1 -1.1104 26.0426 -2.91691 12.242
364 1 -1.1104 26.2464 -3.03955 9.53364
351 1 -1.1104 23.4171 -0.175101 12.1983
353 1 -1.1104 23.3432 -0.25944 9.47213
358 1 -1.1104 26.3425 -0.145954 12.4111
361 1 -1.1104 26.2099 -0.26403 9.61082
572 2 2.2208 21.8493 12.272 7.9709
372 2 2.2208 5.15311 3.99199 10.764
373 1 -1.1104 0.682906 5.40413 12.1916
374 1 -1.1104 0.793811 5.51608 9.38595
375 1 -1.1104 0.909281 2.55341 12.3444
376 2 2.2208 5.18751 1.17251 8.02602
377 2 2.2208 5.13247 6.79334 8.01657
378 1 -1.1104 1.03089 2.7132 9.53
379 1 -1.1104 3.69752 5.40544 12.0815
380 2 2.2208 2.22493 3.96072 8.02853
381 1 -1.1104 3.59512 5.26939 9.34172
382 2 2.2208 2.40274 1.10546 10.8582
383 2 2.2208 2.24788 6.76516 10.8676
384 1 -1.1104 3.6446 2.5059 12.1225
385 1 -1.1104 3.76448 2.53999 9.28062
390 1 -1.1104 6.57152 2.7269 6.69526
396 1 -1.1104 6.4238 5.47946 9.39939
398 1 -1.1104 6.46951 2.61923 9.53418
397 1 -1.1104 6.3969 2.57401 12.1807
395 1 -1.1104 6.55798 5.49184 12.1184
392 1 -1.1104 12.1702 2.52849 6.63065
391 1 -1.1104 12.2174 5.35715 6.67765
394 1 -1.1104 9.31247 2.52951 6.71708
399 2 2.2208 10.7004 3.94105 10.8557
400 1 -1.1104 12.1105 5.4052 12.1484
401 1 -1.1104 11.9887 5.37351 9.27737
402 1 -1.1104 11.9843 2.48425 12.1971
403 2 2.2208 10.6517 1.24262 8.09712
404 2 2.2208 10.6193 6.83825 8.032
405 1 -1.1104 12.1084 2.6032 9.55802
406 1 -1.1104 9.37594 5.44424 12.2899
407 2 2.2208 7.98174 4.02273 7.98959
408 1 -1.1104 9.21011 5.55193 9.48992
409 2 2.2208 7.8329 1.19206 10.8203
410 2 2.2208 7.91639 6.80153 10.7611
411 1 -1.1104 9.23695 2.74764 12.0993
412 1 -1.1104 9.28765 2.61877 9.33119
422 2 2.2208 13.4458 4.03143 8.06496
424 2 2.2208 13.5181 6.80641 10.7125
423 2 2.2208 13.5563 1.08425 10.8682
583 1 -1.1104 26.2252 13.9155 6.62634
421 1 -1.1104 20.6805 2.61886 6.7609
419 1 -1.1104 20.6767 5.45986 6.5651
418 1 -1.1104 15.0143 5.45654 6.61325
420 1 -1.1104 14.8972 2.71214 6.59106
425 2 2.2208 16.3153 3.87911 10.7767
426 1 -1.1104 17.7367 5.23046 12.2738
427 1 -1.1104 17.5487 5.40013 9.46823
428 1 -1.1104 17.6491 2.50595 12.2076
429 2 2.2208 16.2862 1.24072 7.94366
430 2 2.2208 16.3424 6.88875 8.126
431 1 -1.1104 17.5698 2.60289 9.4741
432 1 -1.1104 14.9284 5.32976 12.0929
434 2 2.2208 19.1821 4.01244 7.9484
435 1 -1.1104 14.8562 5.38594 9.33727
437 2 2.2208 19.192 1.15408 10.9281
438 2 2.2208 18.976 6.67429 10.9293
439 1 -1.1104 14.785 2.4728 12.2932
441 1 -1.1104 14.8056 2.62603 9.46549
442 1 -1.1104 20.5219 2.75822 9.46869
440 1 -1.1104 20.5806 2.45684 12.2596
433 1 -1.1104 20.4092 5.35406 12.2978
436 1 -1.1104 20.3985 5.42992 9.42529
447 1 -1.1104 23.3958 5.39965 6.51084
449 1 -1.1104 26.2086 5.38896 6.61411
451 2 2.2208 27.5956 4.02436 10.7804
453 2 2.2208 27.6638 6.87444 7.98645
452 2 2.2208 27.4401 1.05551 8.10712
448 1 -1.1104 23.4876 2.65629 6.50511
450 1 -1.1104 26.1914 2.55706 6.761
454 2 2.2208 21.8815 4.07408 10.8997
455 1 -1.1104 23.3385 5.42422 12.203
456 1 -1.1104 23.2694 5.3603 9.38139
457 1 -1.1104 23.2244 2.81656 12.3176
458 2 2.2208 21.9898 1.05881 8.1745
459 2 2.2208 21.9221 6.81951 8.07534
460 1 -1.1104 23.261 2.56967 9.48894
461 1 -1.1104 25.9386 5.6122 12.3992
462 2 2.2208 24.7022 4.12372 7.98852
463 1 -1.1104 26.081 5.39915 9.59457
464 2 2.2208 24.7998 1.30333 10.8713
465 2 2.2208 24.6636 6.92757 10.7693
466 1 -1.1104 26.0972 2.77438 12.2425
467 1 -1.1104 26.2199 2.59799 9.41049
472 2 2.2208 24.6884 4.27358 13.7678
580 1 -1.1104 23.3107 13.7602 6.64375
584 2 2.2208 27.5233 9.572 10.8087
528 2 2.2208 7.92039 9.67413 13.5872
474 1 -1.1104 0.945176 8.18365 6.44118
507 1 -1.1104 6.40503 11.0734 6.55498
473 1 -1.1104 0.577978 10.919 6.60288
477 1 -1.1104 3.60468 8.21184 6.58737
475 1 -1.1104 1.04501 13.8112 6.67594
509 1 -1.1104 6.45296 13.922 6.62959
479 2 2.2208 5.07888 9.63614 10.6894
480 1 -1.1104 0.86132 11.0086 12.273
481 1 -1.1104 0.823822 11.0196 9.5118
482 1 -1.1104 0.869218 8.12321 12.0943
483 1 -1.1104 0.930323 13.9278 12.1906
484 2 2.2208 5.10091 12.4737 7.98258
485 1 -1.1104 0.89018 8.27118 9.23392
486 1 -1.1104 0.77769 13.8348 9.28077
487 1 -1.1104 3.69318 11.1067 12.1799
488 2 2.2208 2.28486 9.69729 8.06103
489 1 -1.1104 3.61033 10.9555 9.43058
490 2 2.2208 2.11175 12.5611 10.8101
491 1 -1.1104 3.73775 8.23032 12.2973
492 1 -1.1104 3.73424 13.8907 12.2671
493 1 -1.1104 3.69493 8.10475 9.34591
494 1 -1.1104 3.57758 13.7782 9.35349
517 1 -1.1104 6.47094 11.0647 9.22972
518 1 -1.1104 6.43194 8.3455 12.071
521 1 -1.1104 6.36046 13.882 9.49203
519 1 -1.1104 6.60173 13.7947 12.148
516 1 -1.1104 6.50727 11.1127 12.2216
520 1 -1.1104 6.51353 8.2014 9.38804
562 1 -1.1104 25.8957 13.7993 9.38601
515 1 -1.1104 9.1568 13.8014 6.55117
510 1 -1.1104 12.0558 11.094 6.55926
512 1 -1.1104 11.8923 13.968 6.88456
513 1 -1.1104 9.15705 10.8072 6.55835
514 1 -1.1104 9.04781 8.16309 6.75584
495 1 -1.1104 9.17222 14.014 9.28103
496 1 -1.1104 9.26369 8.28779 9.52758
497 1 -1.1104 9.32591 13.9036 12.0266
498 1 -1.1104 9.25452 8.30125 12.1331
500 2 2.2208 7.95999 12.5108 10.8319
501 1 -1.1104 9.3622 11.1061 9.33747
503 2 2.2208 7.93658 9.66267 8.08285
504 1 -1.1104 9.30887 11.1328 12.1298
505 1 -1.1104 12.0399 13.8652 9.41479
506 1 -1.1104 12.0293 8.28791 9.4923
522 2 2.2208 10.6907 9.6788 10.8791
523 1 -1.1104 12.1385 10.8948 12.1218
524 1 -1.1104 12.0401 11.2285 9.38895
525 1 -1.1104 12.0829 8.25739 12.3157
526 1 -1.1104 12.0952 13.8551 12.1529
527 2 2.2208 10.5825 12.4852 8.07531
499 2 2.2208 13.4029 12.3033 10.7869
502 2 2.2208 13.4743 9.55172 7.95031
537 1 -1.1104 14.7529 8.05306 12.176
536 1 -1.1104 14.8232 13.8002 12.1608
553 1 -1.1104 14.887 10.9724 12.195
551 2 2.2208 19.124 9.58152 8.11003
550 1 -1.1104 14.8021 11.0198 9.36676
532 1 -1.1104 17.8265 11.0392 9.52869
557 1 -1.1104 14.8237 13.9115 9.43155
530 1 -1.1104 17.5777 13.9302 12.3075
531 1 -1.1104 17.5246 8.16353 12.1754
533 1 -1.1104 17.6033 11.1113 12.342
558 1 -1.1104 14.987 8.33901 9.38585
529 2 2.2208 16.1143 12.3417 8.03781
555 1 -1.1104 17.7975 8.14955 9.55953
554 1 -1.1104 17.6348 13.8296 9.58882
538 2 2.2208 19.0486 12.407 10.9008
534 2 2.2208 16.2221 9.63163 10.7778
546 1 -1.1104 14.7949 13.9819 6.53465
535 1 -1.1104 20.3727 8.11085 12.2645
556 1 -1.1104 20.5297 8.25582 9.58008
549 1 -1.1104 20.4762 13.9112 9.51665
552 1 -1.1104 20.4237 11.0126 12.1186
559 1 -1.1104 20.5772 13.8067 12.2695
539 1 -1.1104 20.5244 11.0211 9.46849
541 1 -1.1104 17.5971 8.397 6.72789
540 1 -1.1104 17.5615 11.1982 6.60923
543 1 -1.1104 14.7319 11.048 6.70394
542 1 -1.1104 17.6856 13.9269 6.71991
565 1 -1.1104 26.1547 8.39803 12.1255
574 1 -1.1104 23.2478 8.18256 12.3389
902 2 2.2208 27.4724 12.3766 13.6656
339 2 2.2208 19.1022 -1.66859 13.5598
340 2 2.2208 16.3561 -4.38471 13.6857
586 2 2.2208 2.35456 9.65624 13.5774
843 2 2.2208 27.5298 9.62631 -0.378292
338 2 2.2208 13.5887 -1.5172 13.6794
303 2 2.2208 10.6679 -4.24756 13.7214
270 2 2.2208 2.2635 -1.6208 13.7434
125 2 2.2208 24.7482 9.68987 13.6575
560 2 2.2208 18.8926 9.52509 13.6443
585 2 2.2208 5.0579 12.4933 13.4823
468 2 2.2208 27.5358 1.41645 13.699
1061 2 2.2208 27.4697 3.94534 -0.331015
1042 2 2.2208 19.1417 6.79114 -0.301724
444 2 2.2208 13.4767 3.97343 13.5724
1019 2 2.2208 10.7221 4.07925 -0.275488
124 2 2.2208 7.99122 1.16503 -0.265087
126 2 2.2208 13.43 1.16267 -0.298018
446 2 2.2208 19.1862 3.85156 13.6096
445 2 2.2208 16.1771 6.73598 13.5428
43 2 2.2208 19.1377 -4.32169 -0.329627
561 2 2.2208 13.4548 9.61662 13.5601
413 2 2.2208 10.6371 1.24138 13.5263
903 2 2.2208 21.8792 12.3739 13.6698
17 2 2.2208 5.15886 -1.71516 -0.319057
105 2 2.2208 2.36967 1.18241 -0.495889
588 2 2.2208 5.10968 -1.56719 16.4598
589 1 -1.1104 0.97521 -5.84221 17.67
591 1 -1.1104 0.832768 -5.93715 14.9184
595 1 -1.1104 1.04325 -3.07481 17.9081
596 2 2.2208 5.13083 -4.53741 19.2972
597 1 -1.1104 0.856468 -2.98091 15.0721
599 1 -1.1104 3.7264 -5.9633 17.8851
601 2 2.2208 2.26843 -1.61557 19.1902
602 1 -1.1104 3.80158 -5.93741 15.0567
606 2 2.2208 2.22768 -4.49428 16.3471
607 1 -1.1104 3.6684 -3.1752 17.7883
608 1 -1.1104 3.61892 -3.0916 15.1242
600 1 -1.1104 3.70501 -0.317203 17.8818
593 1 -1.1104 1.08422 -0.110004 15.1069
604 1 -1.1104 3.76202 -0.260891 15.2447
617 1 -1.1104 6.4048 -3.14491 15.2907
611 1 -1.1104 6.61675 -0.0364901 17.9275
610 1 -1.1104 6.5301 -5.79275 17.8128
612 1 -1.1104 6.67242 -6.06563 15.1219
616 1 -1.1104 6.48198 -2.90411 18.06
598 1 -1.1104 0.818847 -3.09094 20.6866
614 1 -1.1104 6.62101 -0.371421 14.976
590 1 -1.1104 0.916269 -0.182893 17.8403
618 1 -1.1104 6.51636 -3.10732 20.6852
615 1 -1.1104 6.42004 -0.182787 20.4401
619 2 2.2208 10.8305 -1.42102 16.3519
620 1 -1.1104 12.0334 -5.76422 17.8139
622 1 -1.1104 12.2567 -5.80308 15.0681
626 1 -1.1104 12.1333 -2.88499 17.8419
627 2 2.2208 10.8271 -4.43133 19.3162
628 1 -1.1104 12.0236 -2.8898 15.0851
630 1 -1.1104 9.38967 -5.8741 17.8162
632 2 2.2208 7.95942 -1.62858 19.2748
633 1 -1.1104 9.41236 -5.82684 14.9654
637 2 2.2208 7.90039 -4.37555 16.4635
638 1 -1.1104 9.234 -2.96251 17.7841
639 1 -1.1104 9.23869 -3.0562 15.0517
631 1 -1.1104 9.26503 -0.0441548 17.806
621 1 -1.1104 12.0846 -0.0961849 17.7623
641 2 2.2208 13.605 -1.60564 19.246
642 2 2.2208 13.5395 -4.41267 16.3951
624 1 -1.1104 12.232 -0.111709 14.9454
634 1 -1.1104 9.3367 -5.91511 20.6072
635 1 -1.1104 9.43303 -0.298286 14.9031
271 2 2.2208 5.16924 -4.4443 13.78
643 2 2.2208 16.3097 -1.60123 16.4989
644 1 -1.1104 17.7026 -5.78967 18.0227
646 1 -1.1104 17.8758 -5.72678 15.1381
650 1 -1.1104 17.8362 -3.09683 17.8225
651 2 2.2208 16.2932 -4.38648 19.3546
652 1 -1.1104 17.8889 -2.92621 15.1988
654 1 -1.1104 14.8635 -5.676 18.0209
658 2 2.2208 19.1047 -1.6922 19.3167
659 1 -1.1104 14.9309 -5.65058 15.161
667 2 2.2208 19.2542 -4.52093 16.4835
668 1 -1.1104 14.8949 -2.83109 17.871
670 1 -1.1104 15.0024 -2.86429 15.0236
645 1 -1.1104 17.6345 -0.200458 17.8135
655 1 -1.1104 14.8256 -0.0152084 17.835
648 1 -1.1104 17.6469 -0.246229 14.9464
669 1 -1.1104 20.5144 -3.15796 17.7937
672 1 -1.1104 20.5688 -3.1195 15.0099
665 1 -1.1104 20.5782 -0.287567 15.1389
656 1 -1.1104 20.6554 -5.8921 17.7945
657 1 -1.1104 20.6736 -0.305377 18.0266
663 1 -1.1104 20.5881 -5.89436 14.9207
647 1 -1.1104 17.7691 -5.78821 20.744
1103 2 2.2208 10.6525 9.64478 27.5963
661 1 -1.1104 14.8933 -0.0452394 15.0769
649 1 -1.1104 17.6346 -0.271839 20.7033
653 1 -1.1104 17.7961 -3.03831 20.5826
673 1 -1.1104 20.7244 -3.19096 20.6823
666 1 -1.1104 20.4103 -0.283095 20.7629
1079 2 2.2208 5.08381 9.52614 27.589
674 2 2.2208 27.5301 -1.62725 16.4126
675 2 2.2208 27.4762 -4.35776 19.2342
676 2 2.2208 21.9313 -1.73288 16.3859
677 1 -1.1104 23.3217 -5.93706 17.8809
679 1 -1.1104 23.4206 -5.88679 15.0409
683 1 -1.1104 23.2732 -3.01236 17.9571
684 2 2.2208 21.8894 -4.4769 19.1796
685 1 -1.1104 23.3976 -3.07272 14.9804
687 1 -1.1104 26.2369 -5.79622 17.8847
689 2 2.2208 24.7709 -1.64912 19.2768
690 1 -1.1104 26.0835 -5.82311 15.1176
694 2 2.2208 24.7408 -4.37566 16.4216
695 1 -1.1104 26.1572 -3.0043 17.7766
696 1 -1.1104 26.2431 -3.02721 14.9761
678 1 -1.1104 23.356 -0.226357 18.0074
688 1 -1.1104 26.154 -0.255948 18.0042
692 1 -1.1104 26.1829 -0.180695 15.1241
681 1 -1.1104 23.4709 -0.266638 15.0398
150 2 2.2208 24.7147 1.20923 27.8
697 1 -1.1104 26.1516 -2.97309 20.6775
127 2 2.2208 19.1087 1.28572 27.6755
698 2 2.2208 4.99272 3.97354 16.2922
699 1 -1.1104 0.828859 5.485 17.7675
700 1 -1.1104 0.980314 5.50702 15.0321
702 1 -1.1104 0.813391 2.78548 17.9179
703 2 2.2208 5.12428 1.11749 19.1003
704 2 2.2208 5.05651 6.73849 19.1223
705 1 -1.1104 0.789862 2.73916 15.2026
707 1 -1.1104 3.52843 5.39569 17.5978
708 2 2.2208 2.23262 4.11712 19.1534
709 1 -1.1104 3.72623 5.34883 14.8331
711 2 2.2208 2.26409 1.18217 16.5205
712 2 2.2208 2.17653 6.78441 16.2637
713 1 -1.1104 3.66907 2.58018 17.6697
714 1 -1.1104 3.74601 2.55509 14.8662
470 2 2.2208 21.8186 6.88614 13.679
716 1 -1.1104 6.46167 5.52545 17.6457
719 1 -1.1104 6.44267 2.81304 17.6165
720 1 -1.1104 6.52251 2.49102 14.8955
717 1 -1.1104 6.47549 5.33091 14.9667
1146 2 2.2208 21.9258 9.46999 22.0604
1134 1 -1.1104 26.1584 8.22603 23.492
715 1 -1.1104 3.66749 2.63008 20.5071
718 1 -1.1104 6.49819 5.23393 20.6053
706 1 -1.1104 0.897057 2.62572 20.7138
722 2 2.2208 10.617 4.08844 16.2985
723 1 -1.1104 12.0457 5.46565 17.6329
724 1 -1.1104 12.19 5.39977 14.9252
726 1 -1.1104 11.9436 2.65901 17.7563
727 2 2.2208 10.6009 1.26563 19.2192
728 2 2.2208 10.6346 6.87818 19.1363
729 1 -1.1104 12.1013 2.70935 14.9567
731 1 -1.1104 9.16395 5.57562 17.9171
732 2 2.2208 7.90626 4.08487 19.1396
733 1 -1.1104 9.28465 5.36826 14.9439
735 2 2.2208 8.00291 1.25591 16.2622
736 2 2.2208 7.83646 6.85475 16.3585
737 1 -1.1104 9.31951 2.83997 17.7292
738 1 -1.1104 9.40946 2.57893 14.8471
742 2 2.2208 13.6162 6.77294 16.465
740 2 2.2208 13.3152 4.04149 19.0763
741 2 2.2208 13.435 1.34146 16.3672
414 2 2.2208 7.87092 4.05068 13.4725
415 2 2.2208 10.7579 6.79159 13.6343
739 1 -1.1104 9.15185 2.6833 20.6144
367 2 2.2208 27.4303 -4.40732 13.5959
743 2 2.2208 16.4008 3.89812 16.4467
744 1 -1.1104 17.8563 5.37628 17.8499
745 1 -1.1104 17.6981 5.27077 14.9822
747 1 -1.1104 17.66 2.65286 17.8866
748 2 2.2208 16.2072 1.24596 19.3175
749 2 2.2208 16.3507 6.7468 19.1368
750 1 -1.1104 17.7772 2.53701 15.1114
752 1 -1.1104 15.0108 5.4283 17.6398
754 2 2.2208 19.1451 3.97108 19.2574
755 1 -1.1104 14.8945 5.28525 15.0044
759 2 2.2208 19.1292 1.19226 16.4287
760 2 2.2208 19.1654 6.66049 16.3574
761 1 -1.1104 14.817 2.6354 17.7817
763 1 -1.1104 14.7952 2.61183 14.9416
765 1 -1.1104 20.5251 2.44988 15.0886
443 2 2.2208 16.3618 1.18811 13.6501
753 1 -1.1104 20.594 5.44308 17.7954
762 1 -1.1104 20.4847 2.50638 17.94
757 1 -1.1104 20.5508 5.24095 14.9204
758 1 -1.1104 20.4868 5.41933 20.6012
74 2 2.2208 21.9613 -1.70942 27.717
45 2 2.2208 16.3788 -1.45232 27.6932
751 1 -1.1104 17.7237 2.5679 20.6397
766 1 -1.1104 20.5476 2.63864 20.7405
767 2 2.2208 27.4327 4.14091 16.6026
768 2 2.2208 27.4882 1.24029 19.3632
769 2 2.2208 27.672 6.82985 19.3235
770 2 2.2208 21.8175 3.88974 16.4329
771 1 -1.1104 23.1859 5.35524 17.9022
772 1 -1.1104 23.3815 5.47379 15.1711
774 1 -1.1104 23.3169 2.62168 17.7982
775 2 2.2208 21.9298 1.08691 19.4113
776 2 2.2208 21.9946 6.83437 19.2267
777 1 -1.1104 23.2996 2.65165 14.9731
779 1 -1.1104 25.9155 5.56373 17.9496
780 2 2.2208 24.5991 3.94647 19.1293
781 1 -1.1104 26.1859 5.38627 15.1326
783 2 2.2208 24.7641 1.15933 16.514
785 1 -1.1104 26.047 2.67147 17.7934
786 1 -1.1104 26.0924 2.61842 15.0954
784 2 2.2208 24.6682 6.79919 16.4735
469 2 2.2208 21.9996 1.14581 13.6892
788 2 2.2208 5.15132 9.66679 16.3632
789 1 -1.1104 1.04561 11.0958 17.9122
790 1 -1.1104 1.00066 10.8915 15.0008
792 1 -1.1104 1.16813 8.32579 17.7904
793 1 -1.1104 0.845106 13.7956 17.6827
794 2 2.2208 5.15749 12.3385 19.1829
795 1 -1.1104 0.895416 8.27196 15.0375
797 1 -1.1104 0.737466 13.7067 15.0373
799 1 -1.1104 3.90916 10.9043 17.8856
800 2 2.2208 2.46257 9.64924 19.1679
801 1 -1.1104 3.75185 10.9911 15.1253
803 2 2.2208 2.28787 12.4744 16.3611
804 1 -1.1104 3.84569 8.21573 17.7011
805 1 -1.1104 3.74864 13.6415 17.8635
806 1 -1.1104 3.73483 8.32334 14.9683
808 1 -1.1104 3.43673 13.9512 15.0521
802 1 -1.1104 3.77411 11.0888 20.5754
807 1 -1.1104 3.83861 8.29669 20.7088
1143 1 -1.1104 23.3878 8.14751 23.3741
819 1 -1.1104 6.28219 13.8081 14.8277
814 1 -1.1104 6.51218 10.9393 20.4639
817 1 -1.1104 6.46327 8.17819 14.9956
815 1 -1.1104 6.59896 8.23624 17.7439
813 1 -1.1104 6.49305 11.1379 14.9871
812 1 -1.1104 6.55291 10.9891 17.7998
816 1 -1.1104 6.52723 13.803 17.758
809 1 -1.1104 3.78872 13.714 20.5921
791 1 -1.1104 0.773123 10.9383 20.5531
798 1 -1.1104 0.953958 13.7877 20.773