ITEM: TIMESTEP
60000
ITEM: NUMBER OF ATOMS
30000
ITEM: BOX BOUNDS pp pp pp
-3.5592733234809260e-01 2.7695927332346898e+01
-7.1541355751155695e+00 5.5395413557512927e+02
-3.5714554770443474e-01 2.7697145547704690e+01
ITEM: ATOMS id type q x y z
1 2 2.2208 5.33142 -1.6599 5.33701
2 1 -1.1104 1.03677 -5.85485 1.21771
4 1 -1.1104 1.08743 -5.66432 4.03035
6 1 -1.1104 0.903514 -2.98313 1.14461
7 2 2.2208 5.28694 -4.46332 2.44509
8 1 -1.1104 1.14332 -3.01292 3.96961
9 1 -1.1104 3.93605 -5.83805 1.20535
11 2 2.2208 2.57225 -1.57222 2.53451
12 1 -1.1104 3.91508 -5.82215 4.10705
14 2 2.2208 2.54217 -4.36934 5.33057
15 1 -1.1104 3.85149 -3.12377 1.10333
16 1 -1.1104 3.90272 -3.01579 3.89145
19 1 -1.1104 6.78294 -5.91296 1.20553
3 1 -1.1104 1.09791 -0.22514 1.20373
5 1 -1.1104 1.20798 -0.31575 4.09783
10 1 -1.1104 4.05184 -0.296738 1.15153
13 1 -1.1104 3.97832 -0.0457698 4.03143
22 1 -1.1104 6.66009 -0.149773 4.01753
18 2 2.2208 2.49504 -4.40742 -0.174205
23 1 -1.1104 6.83813 -2.98123 1.20916
71 2 2.2208 27.6896 -4.3665 2.66518
70 2 2.2208 -0.385013 -1.73014 5.40765
73 2 2.2208 27.7662 -1.57047 -0.275025
17 2 2.2208 5.38846 -1.67322 -0.215797
29074 2 2.2208 -0.400241 -7.24039 -0.211342
24 1 -1.1104 6.66353 -2.95792 3.99477
21 1 -1.1104 6.78669 -5.75319 3.92687
20 1 -1.1104 6.7713 -0.337454 1.12524
25 2 2.2208 10.9785 -1.6182 5.34729
26 1 -1.1104 12.355 -5.80264 1.17721
28 1 -1.1104 12.3249 -5.81907 3.99711
30 1 -1.1104 12.1745 -3.19312 1.09927
31 2 2.2208 11.0233 -4.41673 2.54089
32 1 -1.1104 12.3393 -3.0396 3.80998
33 1 -1.1104 9.59047 -5.87945 1.22736
35 2 2.2208 8.1419 -1.7307 2.58316
36 1 -1.1104 9.58003 -5.73928 3.9408
38 2 2.2208 8.16737 -4.46629 5.38351
39 1 -1.1104 9.40513 -3.06791 1.20013
40 1 -1.1104 9.46894 -3.0735 4.18635
27 1 -1.1104 12.3227 -0.213925 1.31096
29 1 -1.1104 12.2607 -0.124861 4.06519
44 2 2.2208 13.642 -1.67538 2.53864
280 1 -1.1104 9.55031 -3.08997 6.91936
34 1 -1.1104 9.65559 -0.36402 1.26113
37 1 -1.1104 9.50531 -0.260957 3.96937
272 1 -1.1104 6.79099 -5.89177 6.7803
42 2 2.2208 8.12699 -4.58634 -0.288201
46 2 2.2208 13.7858 -4.50085 5.32842
47 2 2.2208 16.4594 -1.62238 5.33352
48 1 -1.1104 17.9739 -5.9159 1.10781
50 1 -1.1104 17.8605 -5.61843 3.96398
52 1 -1.1104 17.8862 -3.02095 1.19645
53 2 2.2208 16.5404 -4.42281 2.55241
54 1 -1.1104 17.8558 -2.94644 3.98201
55 1 -1.1104 15.2036 -5.85582 1.12205
59 2 2.2208 19.3006 -1.67279 2.60488
60 1 -1.1104 15.1042 -5.99319 3.91577
64 2 2.2208 19.4139 -4.40215 5.39994
65 1 -1.1104 15.0587 -3.1948 1.30773
67 1 -1.1104 15.1465 -3.01012 3.98178
51 1 -1.1104 17.8499 -0.24306 3.92268
56 1 -1.1104 15.0522 -0.376072 1.16619
63 1 -1.1104 20.7768 -0.255397 3.96959
57 1 -1.1104 20.6236 -5.75431 1.16116
58 1 -1.1104 20.575 -0.194053 1.21588
49 1 -1.1104 17.7306 -0.20809 1.19299
61 1 -1.1104 14.974 -0.244834 3.91242
311 1 -1.1104 20.8174 -0.321638 6.87348
43 2 2.2208 19.23 -4.51264 -0.240677
535 1 -1.1104 20.7708 8.10825 12.449
69 2 2.2208 13.7655 -4.67173 -0.402701
29276 2 2.2208 24.9102 -7.17241 8.18003
62 1 -1.1104 20.7493 -5.87857 4.02325
68 1 -1.1104 20.6487 -3.10962 3.79707
310 1 -1.1104 20.7979 -5.76725 6.78603
66 1 -1.1104 20.6335 -2.92895 1.00435
75 2 2.2208 22.2125 -1.6735 5.28707
76 1 -1.1104 23.5807 -5.92347 1.15371
78 1 -1.1104 23.5933 -5.65598 3.96913
80 1 -1.1104 23.5244 -2.93513 1.08998
81 2 2.2208 22.1356 -4.37836 2.47349
82 1 -1.1104 23.4038 -3.01408 3.85452
83 1 -1.1104 26.3643 -5.78507 1.16429
85 2 2.2208 24.9342 -1.55941 2.57744
86 1 -1.1104 26.4284 -5.82685 4.05478
88 2 2.2208 24.8769 -4.34501 5.32485
89 1 -1.1104 26.2124 -2.97755 1.23417
90 1 -1.1104 26.293 -2.92536 3.87168
77 1 -1.1104 23.3684 -0.185566 1.20577
84 1 -1.1104 26.2949 -0.214994 1.19782
87 1 -1.1104 26.3416 -0.0991776 4.10814
79 1 -1.1104 23.5737 -0.256751 3.92403
72 2 2.2208 24.9599 -4.41438 -0.321051
342 1 -1.1104 23.5051 -0.102617 6.64772
74 2 2.2208 22.1113 -1.67469 -0.281636
573 1 -1.1104 23.7912 13.6797 12.4054
91 2 2.2208 5.49702 4.02205 5.55935
92 1 -1.1104 1.06697 5.26756 1.24784
93 1 -1.1104 1.19814 5.48972 3.89654
94 1 -1.1104 0.897225 2.56335 1.34504
95 2 2.2208 5.31345 1.17114 2.57543
96 2 2.2208 5.32574 6.7692 2.58216
97 1 -1.1104 1.05093 2.45672 4.16216
98 1 -1.1104 3.85672 5.30717 1.33455
99 2 2.2208 2.50431 3.9372 2.69416
100 1 -1.1104 3.95384 5.31752 4.04721
101 2 2.2208 2.56466 1.20463 5.51885
102 2 2.2208 2.54432 6.68934 5.33338
103 1 -1.1104 3.89378 2.55255 1.27429
104 1 -1.1104 3.96303 2.60871 3.96685
109 1 -1.1104 6.83633 2.67831 4.26383
108 1 -1.1104 6.67879 2.64351 1.28565
106 1 -1.1104 6.72777 5.4098 1.12612
105 2 2.2208 2.56085 1.25035 -0.136335
151 2 2.2208 27.7725 4.03935 5.38701
152 2 2.2208 -0.354175 1.07836 2.7648
998 2 2.2208 2.49829 6.72243 -0.225982
999 2 2.2208 5.30476 4.06525 -0.263681
107 1 -1.1104 6.86374 5.39094 4.09102
110 2 2.2208 10.9455 3.92455 5.43178
111 1 -1.1104 12.2988 5.55082 1.2893
112 1 -1.1104 12.2557 5.25781 3.8969
113 1 -1.1104 12.1228 2.68033 1.28957
114 2 2.2208 10.8675 1.16054 2.65125
115 2 2.2208 10.9367 6.79845 2.65867
116 1 -1.1104 12.3651 2.44792 4.03633
117 1 -1.1104 9.48721 5.40585 1.37189
118 2 2.2208 8.13926 4.01517 2.71335
119 1 -1.1104 9.58398 5.45555 3.99288
120 2 2.2208 8.10518 1.14643 5.43584
121 2 2.2208 8.129 6.80945 5.44889
122 1 -1.1104 9.45503 2.44581 1.27347
123 1 -1.1104 9.61341 2.55738 3.99316
128 2 2.2208 13.6832 3.88368 2.6834
129 2 2.2208 13.8033 1.12805 5.39362
1019 2 2.2208 10.9569 3.99277 -0.0763814
126 2 2.2208 13.6042 1.03 -0.111591
124 2 2.2208 8.07597 1.13222 -0.0519001
1018 2 2.2208 8.11086 6.78426 -0.144319
130 2 2.2208 13.7643 6.75285 5.43589
127 2 2.2208 19.1631 1.17345 -0.118927
131 2 2.2208 16.3898 3.92397 5.36387
132 1 -1.1104 17.9614 5.30472 1.29298
133 1 -1.1104 17.9724 5.48566 4.18905
134 1 -1.1104 17.7476 2.44726 1.22533
135 2 2.2208 16.4873 1.16267 2.55964
136 2 2.2208 16.4809 6.63822 2.62913
137 1 -1.1104 17.9234 2.57806 3.89396
138 1 -1.1104 15.1484 5.3793 1.13003
140 2 2.2208 19.3098 4.01507 2.61774
141 1 -1.1104 15.0027 5.34914 4.01918
143 2 2.2208 19.2181 1.15054 5.35508
144 2 2.2208 19.5093 6.82951 5.36298
145 1 -1.1104 14.8583 2.54561 1.24564
147 1 -1.1104 15.1771 2.56611 4.07546
146 1 -1.1104 20.7412 2.59461 1.27013
139 1 -1.1104 20.7802 5.46738 1.23547
148 1 -1.1104 20.7466 2.54862 4.00016
416 1 -1.1104 17.9052 5.32501 6.86856
142 1 -1.1104 20.7632 5.30349 3.91145
1149 2 2.2208 16.4448 3.91259 -0.343203
1042 2 2.2208 19.4515 6.73953 -0.218913
1041 2 2.2208 13.7622 6.83695 -0.172111
1150 2 2.2208 22.138 4.02498 -0.288095
150 2 2.2208 24.8859 1.13745 -0.1842
153 2 2.2208 27.7771 6.80043 2.5114
154 2 2.2208 22.0684 3.93066 5.3739
155 1 -1.1104 23.628 5.54629 1.36483
156 1 -1.1104 23.5785 5.40998 4.03367
157 1 -1.1104 23.5441 2.85736 1.21915
158 2 2.2208 22.0063 1.23859 2.61543
159 2 2.2208 22.1483 6.88355 2.65916
160 1 -1.1104 23.4666 2.61602 4.09576
161 1 -1.1104 26.3734 5.21466 1.14073
162 2 2.2208 24.8945 4.02765 2.63023
163 1 -1.1104 26.3961 5.43266 4.00003
164 2 2.2208 24.9999 1.25099 5.42871
165 2 2.2208 24.9777 6.75248 5.40933
166 1 -1.1104 26.2396 2.37525 1.43787
167 1 -1.1104 26.2538 2.59493 4.01836
1061 2 2.2208 27.7246 3.85432 -0.202576
1060 2 2.2208 24.8772 6.73857 -0.164124
1079 2 2.2208 5.28217 9.521 -0.20683
168 2 2.2208 5.37604 9.62913 5.45079
169 1 -1.1104 1.17971 11.0287 1.10132
170 1 -1.1104 1.03587 10.8967 3.95224
171 1 -1.1104 1.05631 8.23125 1.3295
172 1 -1.1104 1.13289 13.7974 1.27596
173 2 2.2208 5.36403 12.3356 2.60751
174 1 -1.1104 1.10323 8.27537 4.05786
175 1 -1.1104 1.00904 13.6805 3.9388
176 1 -1.1104 3.96541 10.999 1.23697
177 2 2.2208 2.6223 9.56712 2.53391
178 1 -1.1104 3.90885 11.0564 4.0337
179 2 2.2208 2.54666 12.408 5.29352
180 1 -1.1104 3.85843 8.05105 1.34745
181 1 -1.1104 4.07347 13.8929 1.27408
182 1 -1.1104 3.94289 8.2039 4.0672
183 1 -1.1104 3.82936 13.932 4.0147
188 1 -1.1104 6.72813 8.22085 4.14979
189 1 -1.1104 6.7622 13.7799 4.00013
185 1 -1.1104 6.75639 11.0023 3.98704
184 1 -1.1104 6.80769 10.8264 1.15152
187 1 -1.1104 6.77043 13.7406 1.14401
186 1 -1.1104 6.70931 8.19465 1.20077
1078 2 2.2208 2.55593 12.3381 -0.209434
190 2 2.2208 11.078 9.553 5.36178
191 1 -1.1104 12.3722 11.0819 1.14451
192 1 -1.1104 12.2725 11.1048 4.04946
193 1 -1.1104 12.3397 8.25898 1.21276
194 1 -1.1104 12.4734 13.8458 1.07545
195 2 2.2208 10.812 12.397 2.72406
196 1 -1.1104 12.4066 8.13116 4.05621
197 1 -1.1104 12.0964 14.0163 3.96929
198 1 -1.1104 9.65152 11.0375 1.23166
199 2 2.2208 8.23252 9.6859 2.59214
200 1 -1.1104 9.52762 11.0353 4.08388
201 2 2.2208 8.14325 12.4059 5.4735
203 1 -1.1104 9.52253 8.09977 1.24942
204 1 -1.1104 9.60985 13.7847 1.11152
205 1 -1.1104 9.55673 8.21985 4.04521
206 1 -1.1104 9.47038 13.7809 3.98141
202 2 2.2208 13.7996 12.2964 5.5475
207 2 2.2208 13.7835 9.61404 2.53822
1103 2 2.2208 10.9262 9.6148 -0.104437
1102 2 2.2208 8.10308 12.2345 -0.253749
1129 2 2.2208 13.7399 12.3367 -0.324307
515 1 -1.1104 9.5984 13.6492 6.91563
208 2 2.2208 16.5849 9.69064 5.45483
209 1 -1.1104 18.0686 11.068 1.32626
210 1 -1.1104 17.9065 10.9651 4.05492
211 1 -1.1104 17.9879 8.1834 1.02851
212 1 -1.1104 17.964 13.8286 1.12369
213 2 2.2208 16.5391 12.313 2.56113
214 1 -1.1104 17.9402 8.22144 3.95465
215 1 -1.1104 17.9083 13.7198 4.02458
216 1 -1.1104 15.1792 10.9451 1.22577
218 2 2.2208 19.3483 9.60767 2.55871
219 1 -1.1104 15.1501 10.9251 4.09959
221 2 2.2208 19.3604 12.3629 5.40656
222 1 -1.1104 15.2222 8.20398 1.11619
223 1 -1.1104 15.212 13.7654 1.20599
226 1 -1.1104 15.22 8.1927 3.9339
227 1 -1.1104 15.1326 13.6319 4.297
220 1 -1.1104 20.7036 11.1462 3.78595
229 1 -1.1104 20.8371 13.8607 4.04312
224 1 -1.1104 20.7673 8.19032 1.31171
217 1 -1.1104 20.8151 10.8657 0.919116
1128 2 2.2208 19.4434 12.4416 -0.386766
228 1 -1.1104 20.7608 8.40571 4.01162
1130 2 2.2208 16.7013 9.51898 -0.193093
225 1 -1.1104 20.7224 13.8776 1.0863
230 2 2.2208 27.7732 9.66178 5.39754
231 2 2.2208 27.7951 12.2721 2.48592
232 2 2.2208 22.2385 9.60717 5.45433
233 1 -1.1104 23.6691 10.9379 1.39787
234 1 -1.1104 23.5688 10.9452 4.07216
235 1 -1.1104 23.6271 8.16167 1.16039
236 1 -1.1104 23.5192 13.7793 1.00678
237 2 2.2208 22.1733 12.3961 2.53394
238 1 -1.1104 23.5474 8.23548 3.84498
239 1 -1.1104 23.5756 13.8066 3.87099
240 1 -1.1104 26.4201 10.962 1.25324
241 2 2.2208 24.9708 9.52858 2.64857
242 1 -1.1104 26.3267 11.0771 3.86468
243 2 2.2208 24.9329 12.5501 5.29144
244 1 -1.1104 26.3287 8.1921 1.05015
245 1 -1.1104 26.3413 13.7793 1.18658
246 1 -1.1104 26.4085 8.19014 3.97433
247 1 -1.1104 26.1875 13.9575 3.94472
843 2 2.2208 27.8403 9.45274 -0.205961
810 2 2.2208 22.2109 9.5855 -0.196982
811 2 2.2208 25.0226 12.4989 -0.128715
253 1 -1.1104 3.98738 -3.19116 6.69396
248 1 -1.1104 0.934085 -5.97391 6.8689
252 1 -1.1104 3.88486 -0.290533 6.9234
249 1 -1.1104 0.986927 -0.25831 6.74391
250 1 -1.1104 1.07233 -3.21444 6.68623
251 1 -1.1104 3.99297 -5.86535 6.86743
254 2 2.2208 5.28517 -1.6206 10.9659
255 1 -1.1104 1.08507 -5.82118 12.2906
257 1 -1.1104 1.09204 -5.8776 9.52938
259 1 -1.1104 1.13224 -3.15126 12.392
260 2 2.2208 5.3236 -4.36789 8.27287
261 1 -1.1104 1.09823 -3.16919 9.47961
262 1 -1.1104 3.75162 -5.81931 12.5658
264 2 2.2208 2.56067 -1.61038 8.08478
265 1 -1.1104 4.01215 -5.77791 9.6578
267 2 2.2208 2.51624 -4.41462 10.8916
268 1 -1.1104 3.86004 -3.11689 12.3657
269 1 -1.1104 3.85548 -3.04152 9.55454
266 1 -1.1104 3.88073 -0.307244 9.70536
258 1 -1.1104 1.17693 -0.2692 9.58243
263 1 -1.1104 3.97105 -0.350197 12.439
281 1 -1.1104 6.57796 -5.95664 12.4844
256 1 -1.1104 1.16292 -0.297124 12.4301
286 1 -1.1104 6.76972 -2.96555 9.67096
348 2 2.2208 -0.340969 -4.47892 8.11497
274 1 -1.1104 6.80747 -3.10413 6.94093
275 1 -1.1104 12.3807 -5.76279 6.64268
276 1 -1.1104 12.3983 -0.235293 6.72454
279 1 -1.1104 9.5552 -0.423733 6.68239
273 1 -1.1104 6.64747 -0.254428 6.86379
283 1 -1.1104 6.73663 -5.93961 9.55001
285 1 -1.1104 6.64816 -3.18449 12.4714
284 1 -1.1104 6.64903 -0.241817 9.58836
282 1 -1.1104 6.84202 -0.316428 12.3151
277 1 -1.1104 12.258 -3.01317 6.63989
278 1 -1.1104 9.46979 -5.86789 6.72285
287 2 2.2208 10.924 -1.6489 11.0119
288 1 -1.1104 12.3028 -6.02291 12.3584
290 1 -1.1104 12.3791 -5.9377 9.67413
292 1 -1.1104 12.3233 -3.21181 12.2807
293 2 2.2208 10.9901 -4.39362 8.18519
294 1 -1.1104 12.2583 -3.04875 9.50495
295 1 -1.1104 9.44247 -6.03953 12.4118
297 2 2.2208 8.16641 -1.7468 8.19692
298 1 -1.1104 9.54726 -5.78469 9.53259
300 2 2.2208 8.14155 -4.51946 10.9288
301 1 -1.1104 9.46443 -3.18391 12.2811
302 1 -1.1104 9.65022 -3.09626 9.62585
299 1 -1.1104 9.55243 -0.31399 9.59174
291 1 -1.1104 12.4874 -0.196896 9.53892
289 1 -1.1104 12.3315 -0.317504 12.4489
315 2 2.2208 13.7454 -4.57043 11.013
296 1 -1.1104 9.67189 -0.239904 12.4089
307 1 -1.1104 17.8383 -3.12723 6.86535
308 1 -1.1104 14.9997 -5.78915 6.69909
309 1 -1.1104 15.1463 -0.284142 6.73633
314 2 2.2208 13.7127 -1.69857 8.23431
305 1 -1.1104 17.9639 -5.90405 6.69688
312 1 -1.1104 15.11 -2.97978 6.90785
306 1 -1.1104 17.9459 -0.403459 6.77611
316 2 2.2208 16.4951 -1.78097 10.9787
317 1 -1.1104 17.8589 -5.97703 12.4278
319 1 -1.1104 17.8888 -6.00455 9.68036
321 1 -1.1104 17.9574 -3.25469 12.3099
322 2 2.2208 16.5722 -4.5925 8.19961
323 1 -1.1104 17.9671 -3.17057 9.64787
324 1 -1.1104 15.1402 -5.82771 12.3266
328 2 2.2208 19.3847 -1.66675 8.2617
329 1 -1.1104 15.1603 -5.82689 9.4835
333 2 2.2208 19.3743 -4.61201 10.9629
334 1 -1.1104 15.1231 -3.08381 12.5325
336 1 -1.1104 14.9786 -3.1615 9.61851
325 1 -1.1104 15.1554 -0.450432 12.4463
320 1 -1.1104 18.026 -0.302064 9.63511
318 1 -1.1104 17.9893 -0.399193 12.4425
330 1 -1.1104 15.0762 -0.491236 9.61749
327 1 -1.1104 20.7357 -0.273823 12.4509
571 1 -1.1104 23.6824 8.11362 9.37979
576 1 -1.1104 23.7775 10.9511 12.5401
570 1 -1.1104 23.5229 13.6208 9.69917
313 1 -1.1104 20.7539 -2.95164 6.63623
341 1 -1.1104 23.4706 -5.70084 6.77455
343 1 -1.1104 23.5276 -3.0313 6.68529
326 1 -1.1104 20.6861 -5.98059 12.4855
335 1 -1.1104 20.8112 -2.97053 12.35
337 1 -1.1104 20.8023 -3.1343 9.5245
332 1 -1.1104 20.7692 -0.315106 9.78654
346 1 -1.1104 26.2538 -3.02981 6.69912
345 1 -1.1104 26.4239 -0.281881 6.9042
331 1 -1.1104 20.6848 -5.91756 9.56669
344 1 -1.1104 26.1927 -5.68058 6.64469
347 2 2.2208 -0.258649 -1.64978 10.9618
349 2 2.2208 22.2244 -1.67472 10.9873
350 1 -1.1104 23.4449 -5.85205 12.372
352 1 -1.1104 23.6031 -5.85247 9.61172
354 1 -1.1104 23.4931 -3.10193 12.3491
355 2 2.2208 22.0779 -4.3967 8.23473
356 1 -1.1104 23.5754 -3.03557 9.54638
357 1 -1.1104 26.3531 -5.95482 12.5581
359 2 2.2208 24.9359 -1.58497 8.1242
360 1 -1.1104 26.2565 -5.82888 9.55985
362 2 2.2208 24.9823 -4.49414 11.1085
363 1 -1.1104 26.2774 -3.15734 12.3956
364 1 -1.1104 26.4016 -3.10011 9.51888
358 1 -1.1104 26.3481 -0.384342 12.424
351 1 -1.1104 23.508 -0.141972 12.3411
361 1 -1.1104 26.327 -0.315336 9.6877
353 1 -1.1104 23.7524 -0.0708525 9.4232
577 2 2.2208 22.1028 9.59319 11.0289
565 1 -1.1104 26.4569 8.21119 12.4344
369 1 -1.1104 1.19313 2.51035 6.96471
368 1 -1.1104 1.14896 5.30766 6.68527
371 1 -1.1104 4.21179 2.59134 6.79545
370 1 -1.1104 3.9635 5.44635 6.94181
390 1 -1.1104 6.83476 2.53294 6.96841
372 2 2.2208 5.36218 3.88921 11.0634
373 1 -1.1104 1.16393 5.26162 12.3973
374 1 -1.1104 1.12358 5.3621 9.45771
375 1 -1.1104 1.28057 2.56119 12.4584
376 2 2.2208 5.34852 1.09862 8.23591
377 2 2.2208 5.468 6.71565 8.2471
378 1 -1.1104 1.14109 2.41929 9.5303
379 1 -1.1104 3.95696 5.2884 12.5082
380 2 2.2208 2.59505 3.992 8.20825
381 1 -1.1104 3.903 5.41256 9.64957
382 2 2.2208 2.53344 1.08309 11.0018
383 2 2.2208 2.57369 6.78026 11.0943
384 1 -1.1104 4.0489 2.49913 12.4301
385 1 -1.1104 3.88903 2.65192 9.49419
397 1 -1.1104 6.81169 2.48943 12.4512
396 1 -1.1104 6.72223 5.38502 9.71574
398 1 -1.1104 6.57986 2.56094 9.66301
395 1 -1.1104 6.82985 5.38672 12.5165
392 1 -1.1104 12.3482 2.68474 6.92622
389 1 -1.1104 6.75711 5.44518 6.84861
393 1 -1.1104 9.53253 5.27223 6.76863
391 1 -1.1104 12.3322 5.37933 6.80367
394 1 -1.1104 9.58875 2.47416 6.80612
399 2 2.2208 10.9552 3.99665 11.0379
400 1 -1.1104 12.2008 5.41195 12.4304
401 1 -1.1104 12.2728 5.5393 9.77318
402 1 -1.1104 12.2632 2.41172 12.5891
403 2 2.2208 10.9604 1.16215 8.17775
404 2 2.2208 10.9557 6.75282 8.33617
405 1 -1.1104 12.2639 2.59606 9.6482
406 1 -1.1104 9.46597 5.41888 12.5272
407 2 2.2208 8.03911 4.06698 8.2844
408 1 -1.1104 9.55114 5.36413 9.78015
409 2 2.2208 8.1563 1.20842 10.9581
410 2 2.2208 8.20002 6.82274 11.0711
411 1 -1.1104 9.62094 2.52902 12.261
412 1 -1.1104 9.48374 2.68514 9.58018
424 2 2.2208 13.7689 6.81483 11.0084
422 2 2.2208 13.6934 4.02922 8.273
583 1 -1.1104 26.3888 13.7894 6.7041
417 1 -1.1104 17.8439 2.32629 6.78645
420 1 -1.1104 15.1683 2.54336 6.77955
423 2 2.2208 13.7002 1.08367 10.9847
419 1 -1.1104 20.7288 5.25815 6.74851
418 1 -1.1104 15.1105 5.38353 6.79385
425 2 2.2208 16.5534 3.96505 10.9934
426 1 -1.1104 18.0641 5.26937 12.523
427 1 -1.1104 17.9389 5.20113 9.66821
428 1 -1.1104 17.9657 2.52013 12.4793
429 2 2.2208 16.5169 0.999789 8.14072
430 2 2.2208 16.6495 6.74074 8.15682
431 1 -1.1104 17.9819 2.45856 9.52241
432 1 -1.1104 15.1742 5.43605 12.4472
434 2 2.2208 19.2839 3.79454 8.15927
435 1 -1.1104 15.0445 5.41717 9.53141
437 2 2.2208 19.3949 1.12609 11.0199
438 2 2.2208 19.2737 6.71496 10.9659
439 1 -1.1104 15.0124 2.42871 12.3602
441 1 -1.1104 14.9331 2.52683 9.66301
433 1 -1.1104 20.6719 5.36208 12.5386
442 1 -1.1104 20.6402 2.54433 9.42196
436 1 -1.1104 20.7185 5.44486 9.60136
421 1 -1.1104 20.6401 2.42563 6.74377
449 1 -1.1104 26.4412 5.35442 6.86659
448 1 -1.1104 23.6837 2.60281 6.82945
450 1 -1.1104 26.404 2.45231 6.82707
447 1 -1.1104 23.4054 5.44126 6.83168
440 1 -1.1104 20.6947 2.54155 12.3218
452 2 2.2208 -0.317391 1.18232 8.22921
451 2 2.2208 -0.278647 3.81825 10.9289
453 2 2.2208 27.847 6.79186 8.12888
454 2 2.2208 22.0556 4.12701 11.0952
455 1 -1.1104 23.3992 5.46708 12.4534
456 1 -1.1104 23.4768 5.39667 9.7306
457 1 -1.1104 23.6417 2.62145 12.5063
458 2 2.2208 22.21 1.15631 8.21776
459 2 2.2208 22.1756 6.76213 8.20539
460 1 -1.1104 23.4857 2.71464 9.62018
461 1 -1.1104 26.3792 5.35122 12.4068
462 2 2.2208 24.9529 3.98392 8.30419
463 1 -1.1104 26.2468 5.23184 9.60661
464 2 2.2208 24.871 1.1874 10.9675
465 2 2.2208 24.958 6.73316 10.9243
466 1 -1.1104 26.4306 2.27699 12.3357
467 1 -1.1104 26.2401 2.58517 9.62223
476 1 -1.1104 3.89567 10.9588 6.89906
473 1 -1.1104 1.22058 11.0287 6.66456
478 1 -1.1104 4.05888 13.7022 6.83408
477 1 -1.1104 4.09725 8.2033 6.89792
508 1 -1.1104 7.00844 8.29469 6.99777
507 1 -1.1104 6.73684 11.0683 6.70576
509 1 -1.1104 6.80941 13.8856 6.84273
475 1 -1.1104 1.20619 13.8697 6.618
474 1 -1.1104 1.28281 8.14195 6.89764
479 2 2.2208 5.52971 9.63421 11.0516
480 1 -1.1104 1.1757 10.8664 12.4691
481 1 -1.1104 1.09748 10.7298 9.6484
482 1 -1.1104 1.28681 8.04328 12.4344
483 1 -1.1104 1.33722 13.912 12.4721
484 2 2.2208 5.41118 12.3849 8.20914
485 1 -1.1104 1.17957 8.13697 9.67238
486 1 -1.1104 1.10906 13.7473 9.58081
487 1 -1.1104 3.9218 11.0363 12.4603
488 2 2.2208 2.61169 9.5963 8.32302
489 1 -1.1104 3.87437 11.0207 9.77397
490 2 2.2208 2.52017 12.3589 11.0445
491 1 -1.1104 3.91174 8.12788 12.5878
492 1 -1.1104 4.07269 13.7001 12.301
493 1 -1.1104 3.96751 8.39947 9.68059
494 1 -1.1104 4.04942 13.688 9.61712
517 1 -1.1104 6.8197 10.9895 9.56097
521 1 -1.1104 6.80158 13.7371 9.62218
519 1 -1.1104 6.72962 13.7294 12.3497
516 1 -1.1104 6.89575 10.9581 12.5194
518 1 -1.1104 6.60699 8.23653 12.4631
520 1 -1.1104 6.84174 8.13146 9.76933
512 1 -1.1104 12.4041 13.7794 6.87607
513 1 -1.1104 9.53473 10.8383 6.70626
510 1 -1.1104 12.3433 10.9105 6.67683
511 1 -1.1104 12.4754 8.24071 6.78725
514 1 -1.1104 9.74298 8.12344 6.69653
495 1 -1.1104 9.63749 13.75 9.68646
496 1 -1.1104 9.56079 8.11512 9.61936
497 1 -1.1104 9.65102 13.687 12.3568
498 1 -1.1104 9.56027 8.04305 12.4082
500 2 2.2208 8.2425 12.397 11.0564
501 1 -1.1104 9.60649 11.033 9.64926
503 2 2.2208 8.27065 9.67106 8.16371
504 1 -1.1104 9.70169 10.852 12.332
505 1 -1.1104 12.3965 13.8604 9.70797
506 1 -1.1104 12.3314 8.26021 9.58916
522 2 2.2208 11.0947 9.56827 10.9541
523 1 -1.1104 12.464 11.0375 12.5073
524 1 -1.1104 12.2872 11.0671 9.43728
525 1 -1.1104 12.3443 8.29117 12.3181
526 1 -1.1104 12.4599 13.7952 12.4663
527 2 2.2208 10.9587 12.4213 8.18811
499 2 2.2208 13.7941 12.5043 11.0828
581 1 -1.1104 26.3552 10.873 6.71859
548 1 -1.1104 20.6156 13.7799 6.96248
543 1 -1.1104 15.1757 10.8308 6.94861
547 1 -1.1104 20.8411 8.14384 6.84341
541 1 -1.1104 18.0373 8.24536 6.80153
539 1 -1.1104 20.971 10.9889 9.43318
534 2 2.2208 16.6649 9.59009 11.027
502 2 2.2208 13.8001 9.54378 8.18527
559 1 -1.1104 21.0279 13.7195 12.5167
546 1 -1.1104 15.1873 13.6627 6.97899
540 1 -1.1104 17.9135 11.0435 6.83187
542 1 -1.1104 17.9156 13.7435 6.9084
538 2 2.2208 19.4472 12.4243 11.0218
554 1 -1.1104 17.9186 13.8737 9.77854
555 1 -1.1104 18.0098 8.23561 9.65371
529 2 2.2208 16.5262 12.3331 8.2053
558 1 -1.1104 15.2815 8.2211 9.68578
533 1 -1.1104 18.1401 10.8874 12.3568
531 1 -1.1104 17.9912 8.09566 12.5567
530 1 -1.1104 17.9423 13.6689 12.422
557 1 -1.1104 15.136 13.8741 9.68093
532 1 -1.1104 18.0586 11.0608 9.55532
544 1 -1.1104 20.8573 10.99 6.59914
550 1 -1.1104 15.2411 11.0948 9.75322
551 2 2.2208 19.3975 9.52517 8.17796
545 1 -1.1104 15.1962 8.07664 6.78674
552 1 -1.1104 20.8721 11.033 12.3706
553 1 -1.1104 15.2396 10.9775 12.495
536 1 -1.1104 15.1849 13.7647 12.5442
537 1 -1.1104 15.1905 8.03577 12.5232
549 1 -1.1104 20.7628 13.7258 9.68244
556 1 -1.1104 20.8141 8.25615 9.73472
567 1 -1.1104 26.4549 10.9784 9.57548
572 2 2.2208 22.1042 12.3403 8.13745
562 1 -1.1104 26.4512 13.8715 9.57148
582 1 -1.1104 26.3617 8.20697 6.85922
579 1 -1.1104 23.5333 8.25615 6.66676
580 1 -1.1104 23.5425 13.8295 6.89874
574 1 -1.1104 23.5137 8.14517 12.2009
568 2 2.2208 25.0918 9.56064 8.30508
563 1 -1.1104 26.5246 8.04553 9.5928
575 1 -1.1104 23.706 10.6556 9.77928
564 1 -1.1104 26.5463 13.645 12.2676
584 2 2.2208 27.8293 9.55067 11.1021
578 1 -1.1104 23.5784 11.2142 6.71352
569 1 -1.1104 26.4866 11.0784 12.4029
566 2 2.2208 25.0044 12.3143 11.0238
149 2 2.2208 27.7632 12.53 8.16121
367 2 2.2208 -0.267931 -4.41828 13.6943
365 2 2.2208 22.0706 -4.44799 13.8194
877 2 2.2208 16.6092 12.3707 13.897
41 2 2.2208 10.9132 -1.82859 -0.258953
588 2 2.2208 5.32928 -1.73174 16.6186
589 1 -1.1104 0.867683 -6.15516 17.9284
591 1 -1.1104 1.00436 -5.73165 15.0991
595 1 -1.1104 1.02598 -3.07845 17.9161
596 2 2.2208 5.31471 -4.49574 19.3998
597 1 -1.1104 1.03964 -2.97911 15.2664
599 1 -1.1104 3.88558 -5.85114 17.9727
601 2 2.2208 2.467 -1.57669 19.4103
602 1 -1.1104 3.73355 -6.02316 15.3701
606 2 2.2208 2.3953 -4.45597 16.5716
607 1 -1.1104 3.88314 -3.02887 18.0646
608 1 -1.1104 3.94662 -3.04278 15.0598
600 1 -1.1104 3.94366 -0.263832 18.1469
593 1 -1.1104 1.27885 -0.182723 15.2185
604 1 -1.1104 4.08146 -0.2638 15.2339
590 1 -1.1104 1.20458 -0.256846 17.8715
614 1 -1.1104 6.89539 -0.187873 15.0241
271 2 2.2208 5.27628 -4.55515 13.7961
612 1 -1.1104 6.59511 -5.88854 15.1913
611 1 -1.1104 6.73087 -0.336366 17.9219
674 2 2.2208 27.7521 -1.62408 16.6521
29514 2 2.2208 24.8764 -7.15104 24.9736
270 2 2.2208 2.53154 -1.67819 13.8052
616 1 -1.1104 6.77998 -3.04347 17.8451
617 1 -1.1104 6.62859 -3.09087 15.1415
610 1 -1.1104 6.69596 -5.8723 18.0373
619 2 2.2208 10.8181 -1.62203 16.575
620 1 -1.1104 12.3469 -5.79184 17.9148
622 1 -1.1104 12.1571 -5.95477 15.1351
626 1 -1.1104 12.3262 -3.08238 17.856
627 2 2.2208 10.8846 -4.4449 19.315
628 1 -1.1104 12.1503 -3.14427 15.0865
630 1 -1.1104 9.54583 -5.91815 17.9181
632 2 2.2208 7.98958 -1.63752 19.4031
633 1 -1.1104 9.39085 -6.00485 15.0052
637 2 2.2208 8.07517 -4.53885 16.5978
638 1 -1.1104 9.51419 -2.97643 18.0027
639 1 -1.1104 9.38025 -3.08928 15.1915
635 1 -1.1104 9.61682 -0.33802 15.0712
641 2 2.2208 13.5978 -1.52617 19.2744
642 2 2.2208 13.6381 -4.44733 16.5823
631 1 -1.1104 9.47869 -0.201217 17.9594
624 1 -1.1104 12.3455 -0.244785 15.1818
621 1 -1.1104 12.2277 -0.263222 17.9988
303 2 2.2208 10.9199 -4.526 13.6365
338 2 2.2208 13.6729 -1.81398 13.9298
634 1 -1.1104 9.52222 -5.73342 20.6478
304 2 2.2208 8.10029 -1.72664 13.7534
643 2 2.2208 16.5111 -1.79167 16.6062
644 1 -1.1104 17.8566 -6.06566 18.0763
646 1 -1.1104 17.6935 -5.86342 15.13
650 1 -1.1104 17.8683 -3.15127 17.9789
651 2 2.2208 16.4448 -4.27376 19.4567
652 1 -1.1104 17.8328 -3.20345 15.2777
654 1 -1.1104 15.1516 -5.76577 17.8596
658 2 2.2208 19.4008 -1.4656 19.3418
659 1 -1.1104 14.9414 -5.88955 15.1329
667 2 2.2208 19.1661 -4.56756 16.6693
668 1 -1.1104 15.0013 -3.11438 18.0618
670 1 -1.1104 15.0637 -3.11026 15.2104
661 1 -1.1104 15.0831 -0.181346 15.2996
645 1 -1.1104 17.7362 -0.219385 17.9527
669 1 -1.1104 20.7253 -2.82072 17.9245
672 1 -1.1104 20.8186 -3.04414 15.1531
656 1 -1.1104 20.7304 -5.81626 17.9221
657 1 -1.1104 20.643 -0.104978 17.9592
655 1 -1.1104 15.0739 -0.231071 17.9949
648 1 -1.1104 17.7606 -0.407079 15.1443
665 1 -1.1104 20.7311 -0.219815 15.1046
649 1 -1.1104 17.8321 -0.122651 20.7183
340 2 2.2208 16.4893 -4.50072 13.8845
876 1 -1.1104 20.82 13.639 20.7778
339 2 2.2208 19.373 -1.73579 13.5926
663 1 -1.1104 20.5631 -5.85043 15.1815
664 1 -1.1104 20.6266 -5.67402 20.7294
675 2 2.2208 27.7269 -4.39337 19.2446
676 2 2.2208 22.1679 -1.54679 16.535
677 1 -1.1104 23.4124 -5.80382 18.0432
679 1 -1.1104 23.5452 -5.79502 15.2915
683 1 -1.1104 23.4928 -2.96167 17.9347
684 2 2.2208 22.0477 -4.32367 19.2916
685 1 -1.1104 23.5962 -3.05488 15.2234
687 1 -1.1104 26.237 -5.85942 17.9683
689 2 2.2208 24.8937 -1.47899 19.4479
690 1 -1.1104 26.3336 -5.90377 15.1337
694 2 2.2208 25.0048 -4.43542 16.5972
695 1 -1.1104 26.3299 -2.91091 17.9039
696 1 -1.1104 26.2856 -2.94174 15.2533
678 1 -1.1104 23.5596 -0.210637 17.8468
688 1 -1.1104 26.3799 -0.118325 18.13
692 1 -1.1104 26.3985 -0.142529 15.2649
681 1 -1.1104 23.4911 -0.283637 15.1123
697 1 -1.1104 26.2025 -3.04488 20.6486
29973 2 2.2208 13.7043 -7.3596 24.9188
691 1 -1.1104 26.3857 -5.7971 20.8076
698 2 2.2208 5.36765 3.93429 16.7526
699 1 -1.1104 1.15005 5.41184 18.1818
700 1 -1.1104 1.09359 5.33104 15.3772
702 1 -1.1104 1.10977 2.64486 18.1094
703 2 2.2208 5.23497 1.12907 19.4162
704 2 2.2208 5.33231 6.7263 19.4701
705 1 -1.1104 1.01934 2.69017 15.2794
707 1 -1.1104 4.03478 5.26092 18.1444
708 2 2.2208 2.50947 4.00616 19.5078
709 1 -1.1104 3.94771 5.23514 15.2306
711 2 2.2208 2.53558 1.20286 16.614
712 2 2.2208 2.64409 6.73705 16.6359
713 1 -1.1104 3.96573 2.54479 17.9953
714 1 -1.1104 3.89617 2.50115 15.205
716 1 -1.1104 6.85066 5.41119 18.1386
719 1 -1.1104 6.68383 2.39093 18.0213
720 1 -1.1104 6.7656 2.4316 15.2428
767 2 2.2208 -0.331915 4.03034 16.6249
768 2 2.2208 -0.274848 1.20601 19.3693
471 2 2.2208 -0.190733 6.7863 13.7665
386 2 2.2208 2.54679 3.91317 13.7836
387 2 2.2208 5.39447 1.07029 13.8301
388 2 2.2208 5.40441 6.69279 13.838
717 1 -1.1104 6.78904 5.3558 15.2746
414 2 2.2208 8.26773 3.98257 13.942
722 2 2.2208 10.9114 4.01721 16.7328
723 1 -1.1104 12.2675 5.35411 18.0039
724 1 -1.1104 12.2798 5.53271 15.1867
726 1 -1.1104 12.3793 2.55127 18.1949
727 2 2.2208 10.7845 1.11692 19.4163
728 2 2.2208 10.8311 6.76694 19.4348
729 1 -1.1104 12.5187 2.84406 15.3663
731 1 -1.1104 9.47294 5.36961 18.15
732 2 2.2208 8.08488 3.92802 19.5243
733 1 -1.1104 9.5952 5.20627 15.3627
735 2 2.2208 8.08416 1.05676 16.5492
736 2 2.2208 8.28378 6.67752 16.6483
737 1 -1.1104 9.48977 2.5564 18.0916
738 1 -1.1104 9.63003 2.43714 15.2863
742 2 2.2208 13.9119 6.84338 16.5337
415 2 2.2208 10.9914 6.90088 13.8089
444 2 2.2208 13.7216 3.99317 13.9026
725 1 -1.1104 12.2738 5.32422 20.8713
443 2 2.2208 16.53 1.06853 13.8007
740 2 2.2208 13.7001 3.92139 19.4165
741 2 2.2208 13.6986 1.13081 16.6033
743 2 2.2208 16.5474 3.8836 16.6438
744 1 -1.1104 17.8777 5.38233 18.0845
745 1 -1.1104 18.0141 5.27332 15.1902
747 1 -1.1104 17.9701 2.47492 18.0157
748 2 2.2208 16.3751 1.29454 19.4212
749 2 2.2208 16.489 6.81193 19.4422
750 1 -1.1104 17.861 2.47667 15.2167
752 1 -1.1104 15.1089 5.35875 18.1434
754 2 2.2208 19.3978 3.9655 19.3871
755 1 -1.1104 15.334 5.33655 15.3246
759 2 2.2208 19.1562 1.0401 16.5242
760 2 2.2208 19.3651 6.85792 16.7032
761 1 -1.1104 15.1155 2.68231 17.9997
763 1 -1.1104 15.3058 2.53563 15.1771
753 1 -1.1104 20.7195 5.44915 18.1447
765 1 -1.1104 20.8092 2.56764 15.2292
751 1 -1.1104 17.9942 2.64159 20.872
446 2 2.2208 19.2958 3.88006 13.8348
445 2 2.2208 16.7282 6.66012 13.8888
472 2 2.2208 24.8601 3.94414 13.8424
762 1 -1.1104 20.7587 2.66944 18.0466
757 1 -1.1104 20.9037 5.27793 15.3053
769 2 2.2208 -0.227215 6.86182 19.4739
770 2 2.2208 22.1937 3.9666 16.7269
771 1 -1.1104 23.5476 5.30799 18.2061
772 1 -1.1104 23.5719 5.39412 15.3971
774 1 -1.1104 23.7442 2.51269 17.9771
775 2 2.2208 22.1677 1.23843 19.3914
776 2 2.2208 22.2463 6.81176 19.6124
777 1 -1.1104 23.4845 2.44264 15.2851
779 1 -1.1104 26.4865 5.43461 17.9764
780 2 2.2208 25.0106 3.90114 19.4901
781 1 -1.1104 26.4664 5.58189 15.2
783 2 2.2208 24.8589 1.15862 16.5441
785 1 -1.1104 26.4745 2.66537 17.988
786 1 -1.1104 26.3146 2.70422 15.0395
468 2 2.2208 27.746 1.18314 13.7964
784 2 2.2208 25.1029 6.86378 16.6442
469 2 2.2208 22.1516 1.28216 13.8236
470 2 2.2208 22.1844 6.6774 13.8721
788 2 2.2208 5.34474 9.59084 16.7401
789 1 -1.1104 1.20097 10.8852 17.9348
790 1 -1.1104 1.28159 10.9709 15.2286
792 1 -1.1104 1.10905 8.27828 18.0321
793 1 -1.1104 1.27684 13.8693 18.1748
794 2 2.2208 5.28191 12.4227 19.413
795 1 -1.1104 1.14811 8.14584 15.2409
797 1 -1.1104 1.21099 13.7107 15.2692
799 1 -1.1104 3.97633 11.0816 17.9689
800 2 2.2208 2.55869 9.51791 19.4698
801 1 -1.1104 4.18076 10.9625 15.2525
803 2 2.2208 2.61674 12.3992 16.5739
804 1 -1.1104 3.88169 8.16199 18.0373
805 1 -1.1104 4.09622 13.8242 17.9223
806 1 -1.1104 3.97776 8.27798 15.2848
808 1 -1.1104 4.04123 13.7594 15.1206
817 1 -1.1104 6.78629 7.99556 15.3745
815 1 -1.1104 6.73522 8.08686 18.1015
813 1 -1.1104 6.86314 10.9172 15.256
586 2 2.2208 2.52178 9.54678 13.7912
585 2 2.2208 5.3908 12.392 13.8014
812 1 -1.1104 6.72976 11.0287 18.073
816 1 -1.1104 6.77417 13.8698 18.0417
819 1 -1.1104 6.74574 13.8707 15.1325
821 2 2.2208 11.0395 9.58271 16.6154
822 1 -1.1104 12.4621 10.8933 17.9973