LAMMPS (29 Oct 2020)
OMP_NUM_THREADS environment is not set. Defaulting to 1 thread. (../comm.cpp:94)
  using 1 OpenMP thread(s) per MPI task
OMP_NUM_THREADS environment is not set. Defaulting to 1 thread. (../comm.cpp:94)
  using 1 OpenMP thread(s) per MPI task
Reading data file ...
  orthogonal box = (-0.27717828 -3.4472206 -0.27717828) to (27.617178 331.52722 27.617178)
  2 by 13 by 2 MPI processor grid
  reading atoms ...
  18000 atoms
  reading velocities ...
  18000 velocities
Finding 1-2 1-3 1-4 neighbors ...
  special bond factors lj:    0.0      0.0      0.0     
  special bond factors coul:  0.0      0.0      0.0     
     0 = max # of 1-2 neighbors
     0 = max # of 1-3 neighbors
     0 = max # of 1-4 neighbors
     1 = max # of special neighbors
  special bonds CPU = 0.004 seconds
  read_data CPU = 0.053 seconds
90 atoms in group Th_delete
180 atoms in group O_delete
270 atoms in group delete
WARNING: Ignoring 'compress yes' for molecular system (../delete_atoms.cpp:125)
Deleted 270 atoms, new total = 17730
Setting atom values ...
  11820 settings made for charge
Setting atom values ...
  5910 settings made for charge
PPPM initialization ...
  using 12-bit tables for long-range coulomb (../kspace.cpp:328)
  G vector (1/distance) = 0.29912852
  grid = 40 240 40
  stencil order = 5
  estimated absolute RMS force accuracy = 0.00015413022
  estimated relative force accuracy = 1.0703751e-05
  using single precision MKL FFT
  3d grid and FFT values/proc = 18225 7600
Neighbor list info ...
  update every 1 steps, delay 0 steps, check yes
  max neighbors/atom: 2000, page size: 100000
  master list distance cutoff = 13
  ghost atom cutoff = 13
  binsize = 6.5, bins = 5 52 5
  2 neighbor lists, perpetual/occasional/extra = 2 0 0
  (1) pair coul/long, perpetual
      attributes: half, newton on
      pair build: half/bin/newton
      stencil: half/bin/3d/newton
      bin: standard
  (2) pair eam/alloy, perpetual, copy from (1)
      attributes: half, newton on
      pair build: copy
      stencil: none
      bin: none
Setting up cg style minimization ...
  Unit style    : metal
  Current step  : 0
WARNING: Energy due to 3 extra global DOFs will be included in minimizer energies
Per MPI rank memory allocation (min/avg/max) = 9.477 | 10.14 | 10.28 Mbytes
Step Temp E_pair E_mol TotEng Press Volume 
       0            0   -232243.64            0   -232243.64    -2672.107    260641.98 
     268            0   -232755.51            0   -232755.51    33.540329    261056.78 
Loop time of 5.01349 on 52 procs for 268 steps with 17730 atoms

99.4% CPU use with 52 MPI tasks x 1 OpenMP threads

Minimization stats:
  Stopping criterion = linesearch alpha is zero
  Energy initial, next-to-last, final = 
     -232243.640469099  -232755.508129487  -232755.508129487
  Force two-norm initial, final = 812.88749 12.819443
  Force max component initial, final = 651.50075 6.6827253
  Final line search alpha, max atom move = 6.8871445e-11 4.6024895e-10
  Iterations, force evaluations = 268 460

MPI task timing breakdown:
Section |  min time  |  avg time  |  max time  |%varavg| %total
---------------------------------------------------------------
Pair    | 2.748      | 2.9799     | 3.2421     |   6.4 | 59.44
Bond    | 3.6918e-05 | 5.7248e-05 | 8.3856e-05 |   0.0 |  0.00
Kspace  | 0.76935    | 1.0389     | 1.2756     |  11.0 | 20.72
Neigh   | 0.023139   | 0.028692   | 0.035712   |   1.5 |  0.57
Comm    | 0.077596   | 0.080129   | 0.0828     |   0.4 |  1.60
Output  | 0          | 0          | 0          |   0.0 |  0.00
Modify  | 0          | 0          | 0          |   0.0 |  0.00
Other   |            | 0.8858     |            |       | 17.67

Nlocal:        340.962 ave         407 max         290 min
Histogram: 2 7 6 10 8 8 5 2 2 2
Nghost:        5557.67 ave        5730 max        5312 min
Histogram: 1 1 1 4 7 13 11 9 3 2
Neighs:       108462.0 ave      130533 max       89167 min
Histogram: 1 5 4 10 9 9 9 1 2 2

Total # of neighbors = 5640019
Ave neighs/atom = 318.10598
Ave special neighs/atom = 0.0000000
Neighbor list builds = 10
Dangerous builds = 0
Resetting atom IDs ...
PPPM initialization ...
  using 12-bit tables for long-range coulomb (../kspace.cpp:328)
  G vector (1/distance) = 0.29910624
  grid = 40 240 40
  stencil order = 5
  estimated absolute RMS force accuracy = 0.00015427514
  estimated relative force accuracy = 1.0713815e-05
  using single precision MKL FFT
  3d grid and FFT values/proc = 18225 7600
Finding 1-2 1-3 1-4 neighbors ...
  special bond factors lj:    0.0      0.0      0.0     
  special bond factors coul:  0.0      0.0      0.0     
     0 = max # of 1-2 neighbors
     0 = max # of 1-3 neighbors
     0 = max # of 1-4 neighbors
     1 = max # of special neighbors
  special bonds CPU = 0.001 seconds
PPPM initialization ...
  using 12-bit tables for long-range coulomb (../kspace.cpp:328)
  G vector (1/distance) = 0.29910624
  grid = 40 240 40
  stencil order = 5
  estimated absolute RMS force accuracy = 0.00015427514
  estimated relative force accuracy = 1.0713815e-05
  using single precision MKL FFT
  3d grid and FFT values/proc = 18225 7600
Setting up Verlet run ...
  Unit style    : metal
  Current step  : 268
  Time step     : 0.001
Per MPI rank memory allocation (min/avg/max) = 8.353 | 9.108 | 9.155 Mbytes
Step Dt Time Atoms Temp PotEng KinEng Press Volume 
     268        0.001            0    17730          600   -232755.51    1374.9919    5659.2898    261056.78 
   20000        0.001       19.732    17730    603.55296   -231560.76     1383.134    970.20454    265035.85 
   40000        0.001       39.732    17730    596.95609   -231567.75    1368.0163   -1485.8252    265338.12 
   60000        0.001       59.732    17730    599.62942   -231571.17    1374.1426     1061.286    264928.28 
   80000        0.001       79.732    17730    597.61423    -231579.3    1369.5245    577.73967    265021.12 
  100000        0.001       99.732    17730    599.27833   -231571.18     1373.338   -480.31791     265181.2 
  100268        0.001          100    17730    597.59541   -231574.48    1369.4814    -854.2931    265168.27 
Loop time of 803.443 on 52 procs for 100000 steps with 17730 atoms

Performance: 10.754 ns/day, 2.232 hours/ns, 124.464 timesteps/s
99.8% CPU use with 52 MPI tasks x 1 OpenMP threads

MPI task timing breakdown:
Section |  min time  |  avg time  |  max time  |%varavg| %total
---------------------------------------------------------------
Pair    | 487.81     | 506.19     | 526.24     |  44.0 | 63.00
Bond    | 0.010942   | 0.016564   | 0.02309    |   2.4 |  0.00
Kspace  | 165.82     | 185.96     | 204.84     |  73.7 | 23.15
Neigh   | 2.0171     | 2.1677     | 2.3145     |   5.7 |  0.27
Comm    | 16.063     | 16.733     | 17.265     |   7.4 |  2.08
Output  | 0.032557   | 0.032581   | 0.033716   |   0.1 |  0.00
Modify  | 79.591     | 84.016     | 87.558     |  23.7 | 10.46
Other   |            | 8.33       |            |       |  1.04

Nlocal:        340.962 ave         370 max         315 min
Histogram: 2 4 6 8 8 10 6 3 4 1
Nghost:        5542.92 ave        5681 max        5329 min
Histogram: 2 1 2 3 6 6 16 8 5 3
Neighs:       107581.0 ave      117761 max       95575 min
Histogram: 1 4 2 7 8 6 13 5 3 3

Total # of neighbors = 5594224
Ave neighs/atom = 315.52307
Ave special neighs/atom = 0.0000000
Neighbor list builds = 773
Dangerous builds = 0
WARNING: Shell command 'mkdir' failed with error 'File exists' (../input.cpp:1197)
System init for write_data ...
PPPM initialization ...
  using 12-bit tables for long-range coulomb (../kspace.cpp:328)
  G vector (1/distance) = 0.29880975
  grid = 40 240 40
  stencil order = 5
  estimated absolute RMS force accuracy = 0.00015670239
  estimated relative force accuracy = 1.0882379e-05
  using single precision MKL FFT
  3d grid and FFT values/proc = 18225 7600
Total wall time: 0:13:29
