LAMMPS (29 Oct 2020)
OMP_NUM_THREADS environment is not set. Defaulting to 1 thread. (../comm.cpp:94)
  using 1 OpenMP thread(s) per MPI task
OMP_NUM_THREADS environment is not set. Defaulting to 1 thread. (../comm.cpp:94)
  using 1 OpenMP thread(s) per MPI task
Reading data file ...
  triclinic box = (-0.14513068 -1.7591001 -0.15430216) to (28.039131 336.48710 28.048302) with tilt (0.0000000 0.0000000 0.0000000)
  2 by 13 by 2 MPI processor grid
  reading atoms ...
  18000 atoms
  reading velocities ...
  18000 velocities
Finding 1-2 1-3 1-4 neighbors ...
  special bond factors lj:    0.0      0.0      0.0     
  special bond factors coul:  0.0      0.0      0.0     
     0 = max # of 1-2 neighbors
     0 = max # of 1-3 neighbors
     0 = max # of 1-4 neighbors
     1 = max # of special neighbors
  special bonds CPU = 0.004 seconds
  read_data CPU = 0.081 seconds
Setting atom values ...
  12000 settings made for charge
Setting atom values ...
  6000 settings made for charge
PPPM initialization ...
  using 12-bit tables for long-range coulomb (../kspace.cpp:328)
  G vector (1/distance) = 0.29858098
  grid = 40 240 40
  stencil order = 5
  estimated absolute RMS force accuracy = 0.00015978402
  estimated relative force accuracy = 1.1096386e-05
  using single precision MKL FFT
  3d grid and FFT values/proc = 15000 7600
Neighbor list info ...
  update every 1 steps, delay 0 steps, check yes
  max neighbors/atom: 2000, page size: 100000
  master list distance cutoff = 11.3
  ghost atom cutoff = 11.3
  binsize = 5.65, bins = 5 60 5
  2 neighbor lists, perpetual/occasional/extra = 2 0 0
  (1) pair coul/long, perpetual
      attributes: half, newton on
      pair build: half/bin/newton/tri
      stencil: half/bin/3d/newton/tri
      bin: standard
  (2) pair eam/alloy, perpetual, copy from (1)
      attributes: half, newton on
      pair build: copy
      stencil: none
      bin: none
Setting up Verlet run ...
  Unit style    : metal
  Current step  : 0
  Time step     : 0.001
Per MPI rank memory allocation (min/avg/max) = 8.319 | 8.348 | 8.363 Mbytes
Step Temp E_pair E_mol TotEng Press 
       0          900   -234202.63            0   -232108.73    202.38554 
  100000    895.71842    -234215.6            0   -232131.66   -137.13961 
Loop time of 683.259 on 52 procs for 100000 steps with 18000 atoms

Performance: 12.645 ns/day, 1.898 hours/ns, 146.357 timesteps/s
99.8% CPU use with 52 MPI tasks x 1 OpenMP threads

MPI task timing breakdown:
Section |  min time  |  avg time  |  max time  |%varavg| %total
---------------------------------------------------------------
Pair    | 451.49     | 461.91     | 470.39     |  21.5 | 67.60
Bond    | 0.0072882  | 0.01074    | 0.015084   |   1.8 |  0.00
Kspace  | 129.06     | 139.98     | 149.88     |  51.2 | 20.49
Neigh   | 58.303     | 60.869     | 65.274     |  23.6 |  8.91
Comm    | 15.03      | 15.941     | 17.799     |  20.4 |  2.33
Output  | 5.6841e-05 | 6.2826e-05 | 0.00030921 |   0.0 |  0.00
Modify  | 1.8829     | 3.3064     | 5.2546     |  61.4 |  0.48
Other   |            | 1.242      |            |       |  0.18

Nlocal:        346.154 ave         369 max         326 min
Histogram: 1 3 8 12 6 7 6 4 3 2
Nghost:        4057.08 ave        4175 max        3976 min
Histogram: 2 10 11 7 5 7 1 2 3 4
Neighs:        69820.9 ave       74841 max       65542 min
Histogram: 1 3 8 13 6 5 10 2 2 2

Total # of neighbors = 3630688
Ave neighs/atom = 201.70489
Ave special neighs/atom = 0.0000000
Neighbor list builds = 19784
Dangerous builds = 0
12000 atoms in group oxygen
PPPM initialization ...
  using 12-bit tables for long-range coulomb (../kspace.cpp:328)
  G vector (1/distance) = 0.29858098
  grid = 40 240 40
  stencil order = 5
  estimated absolute RMS force accuracy = 0.00015978402
  estimated relative force accuracy = 1.1096386e-05
  using single precision MKL FFT
  3d grid and FFT values/proc = 15000 7600
Setting up Verlet run ...
  Unit style    : metal
  Current step  : 0
  Time step     : 0.001
Per MPI rank memory allocation (min/avg/max) = 8.570 | 8.598 | 8.614 Mbytes
Step f_2 Temp v_Tdiff v_deltaT 
       0            0    895.71842            0            0 
  100000    980.76561    895.56022  0.034730558    403.21855 
  200000    1924.4509    902.38467  0.040113614    465.71533 
  300000     2866.762    888.92359  0.040876217    474.56908 
  400000    3818.4077    899.41841  0.038731217    449.66583 
  500000    4763.6864    893.41221  0.040574915    471.07099 
  600000    5711.1399    899.88627  0.039507151    458.67435 
  700000    6662.7595    904.89181  0.038578456     447.8923 
  800000    7626.1642    905.28222  0.040018637    464.61266 
  900000    8572.4346    910.63254  0.040794493    473.62028 
 1000000    9522.6967    900.17489  0.040309576    467.99043 
 1100000     10474.23    904.29166  0.039650411    460.33759 
 1200000    11432.366    905.32168  0.039653051    460.36824 
 1300000    12386.848    910.80456  0.040851772    474.28528 
 1400000    13347.112    906.03479  0.040666506    472.13435 
 1500000      14295.2    906.88917  0.041452374    481.25821 
Loop time of 10125.9 on 52 procs for 1500000 steps with 18000 atoms

Performance: 12.799 ns/day, 1.875 hours/ns, 148.135 timesteps/s
99.8% CPU use with 52 MPI tasks x 1 OpenMP threads

MPI task timing breakdown:
Section |  min time  |  avg time  |  max time  |%varavg| %total
---------------------------------------------------------------
Pair    | 6696.8     | 6805.2     | 6954.3     |  74.4 | 67.21
Bond    | 0.1133     | 0.15901    | 0.21466    |   5.7 |  0.00
Kspace  | 1911.8     | 2096.5     | 2237.4     | 159.5 | 20.70
Neigh   | 892.4      | 931.75     | 990.59     |  77.3 |  9.20
Comm    | 225.43     | 238.75     | 277.5      |  85.4 |  2.36
Output  | 0.0015363  | 0.0016259  | 0.0034622  |   0.6 |  0.00
Modify  | 8.0411     | 8.7922     | 9.5106     |  11.9 |  0.09
Other   |            | 44.67      |            |       |  0.44

Nlocal:        346.154 ave         360 max         333 min
Histogram: 2 5 8 8 7 3 8 4 2 5
Nghost:        4070.13 ave        4159 max        4013 min
Histogram: 9 7 5 7 8 3 4 4 3 2
Neighs:        69805.7 ave       73213 max       66598 min
Histogram: 2 2 8 11 5 6 8 4 4 2

Total # of neighbors = 3629896
Ave neighs/atom = 201.66089
Ave special neighs/atom = 0.0000000
Neighbor list builds = 303316
Dangerous builds = 0
Total wall time: 3:00:09
