ITEM: TIMESTEP
10
ITEM: NUMBER OF ATOMS
27300
ITEM: BOX BOUNDS pp pp pp
0.0000000000000000e+00 4.8263400413782500e+02
0.0000000000000000e+00 2.5874538133696598e+02
0.0000000000000000e+00 2.4376698368360001e+00
ITEM: ATOMS id type x y z
3 1 2.48714e-13 5.83799e-14 2.43767
4 1 1.14913 1.99035 1.62511
6 1 2.29826 4.26807e-14 0.812557
1 1 3.44739 1.99035 2.64876e-15
2 1 4.59651 3.62229e-14 1.62511
5 1 5.74564 1.99035 0.812557
9 1 6.89477 4.06086e-14 1.21778e-14
10 1 8.0439 1.99035 1.62511
7 1 10.3422 1.99035 1.13157e-14
12 1 9.19303 4.11341e-14 0.812557
8 1 11.4913 2.81585e-14 1.62511
11 1 12.6404 1.99035 0.812557
15 1 13.7895 4.10924e-14 5.21627e-15
16 1 14.9387 1.99035 1.62511
18 1 16.0878 4.11506e-14 0.812557
13 1 17.2369 1.99035 2.43767
14 1 18.3861 2.32309e-14 1.62511
17 1 19.5352 1.99035 0.812557
21 1 20.6843 3.56776e-14 2.43767
22 1 21.8334 1.99035 1.62511
19 1 24.1317 1.99035 3.52124e-15
20 1 25.2808 2.87244e-14 1.62511
24 1 22.9826 4.15501e-14 0.812557
23 1 26.43 1.99035 0.812557
27 1 27.5791 4.08927e-14 6.30694e-15
25 1 31.0265 1.99035 4.69002e-15
28 1 28.7282 1.99035 1.62511
30 1 29.8773 4.14814e-14 0.812557
26 1 32.1756 2.77266e-14 1.62511
29 1 33.3247 1.99035 0.812557
33 1 34.4739 3.56761e-14 2.43767
34 1 35.623 1.99035 1.62511
36 1 36.7721 4.17637e-14 0.812557
423 1 2.6065e-13 3.9807 6.20384e-16
426 1 2.29826 3.9807 0.812557
422 1 4.59651 3.9807 1.62511
429 1 6.89477 3.9807 1.2234e-14
432 1 9.19303 3.9807 0.812557
428 1 11.4913 3.9807 1.62511
435 1 13.7895 3.9807 4.8151e-15
438 1 16.0878 3.9807 0.812557
434 1 18.3861 3.9807 1.62511
441 1 20.6843 3.9807 2.43767
440 1 25.2808 3.9807 1.62511
444 1 22.9826 3.9807 0.812557
447 1 27.5791 3.9807 5.84432e-15
450 1 29.8773 3.9807 0.812557
446 1 32.1756 3.9807 1.62511
453 1 34.4739 3.9807 2.43767
456 1 36.7721 3.9807 0.812557
424 1 1.14913 5.97105 1.62511
843 1 2.59198e-13 7.9614 5.62636e-16
846 1 2.29826 7.9614 0.812557
421 1 3.44739 5.97105 3.97085e-15
842 1 4.59651 7.9614 1.62511
425 1 5.74564 5.97105 0.812557
430 1 8.0439 5.97105 1.62511
849 1 6.89477 7.9614 1.19668e-14
427 1 10.3422 5.97105 1.09103e-14
852 1 9.19303 7.9614 0.812557
431 1 12.6404 5.97105 0.812557
848 1 11.4913 7.9614 1.62511
855 1 13.7895 7.9614 5.16947e-15
436 1 14.9387 5.97105 1.62511
858 1 16.0878 7.9614 0.812557
433 1 17.2369 5.97105 2.43767
437 1 19.5352 5.97105 0.812557
854 1 18.3861 7.9614 1.62511
442 1 21.8334 5.97105 1.62511
861 1 20.6843 7.9614 2.43767
439 1 24.1317 5.97105 2.55565e-15
860 1 25.2808 7.9614 1.62511
864 1 22.9826 7.9614 0.812557
443 1 26.43 5.97105 0.812557
867 1 27.5791 7.9614 6.16257e-15
445 1 31.0265 5.97105 4.19647e-15
448 1 28.7282 5.97105 1.62511
870 1 29.8773 7.9614 0.812557
449 1 33.3247 5.97105 0.812557
866 1 32.1756 7.9614 1.62511
454 1 35.623 5.97105 1.62511
873 1 34.4739 7.9614 2.43767
876 1 36.7721 7.9614 0.812557
844 1 1.14913 9.95175 1.62511
841 1 3.44739 9.95175 4.58301e-15
845 1 5.74564 9.95175 0.812557
850 1 8.0439 9.95175 1.62511
847 1 10.3422 9.95175 1.08215e-14
851 1 12.6404 9.95175 0.812557
856 1 14.9387 9.95175 1.62511
853 1 17.2369 9.95175 2.43767
857 1 19.5352 9.95175 0.812557
862 1 21.8334 9.95175 1.62511
859 1 24.1317 9.95175 3.02225e-15
863 1 26.43 9.95175 0.812557
865 1 31.0265 9.95175 4.42863e-15
868 1 28.7282 9.95175 1.62511
869 1 33.3247 9.95175 0.812557
874 1 35.623 9.95175 1.62511
1263 1 2.46085e-13 11.9421 2.43767
1264 1 1.14913 13.9324 1.62511
1266 1 2.29826 11.9421 0.812557
1261 1 3.44739 13.9324 4.59974e-15
1262 1 4.59651 11.9421 1.62511
1265 1 5.74564 13.9324 0.812557
1269 1 6.89477 11.9421 1.19512e-14
1270 1 8.0439 13.9324 1.62511
1267 1 10.3422 13.9324 1.08357e-14
1272 1 9.19303 11.9421 0.812557
1268 1 11.4913 11.9421 1.62511
1271 1 12.6404 13.9324 0.812557
1275 1 13.7895 11.9421 4.86836e-15
1276 1 14.9387 13.9324 1.62511
1278 1 16.0878 11.9421 0.812557
1273 1 17.2369 13.9324 2.43767
1274 1 18.3861 11.9421 1.62511
1277 1 19.5352 13.9324 0.812557
1281 1 20.6843 11.9421 2.43767
1282 1 21.8334 13.9324 1.62511
1279 1 24.1317 13.9324 3.20496e-15
1280 1 25.2808 11.9421 1.62511
1284 1 22.9826 11.9421 0.812557
1283 1 26.43 13.9324 0.812557
1287 1 27.5791 11.9421 6.33453e-15
1285 1 31.0265 13.9324 4.16808e-15
1288 1 28.7282 13.9324 1.62511
1290 1 29.8773 11.9421 0.812557
1286 1 32.1756 11.9421 1.62511
1289 1 33.3247 13.9324 0.812557
1293 1 34.4739 11.9421 2.43767
1294 1 35.623 13.9324 1.62511
1296 1 36.7721 11.9421 0.812557
1683 1 2.57983e-13 15.9228 1.20986e-15
1686 1 2.29826 15.9228 0.812557
1682 1 4.59651 15.9228 1.62511
1689 1 6.89477 15.9228 1.22415e-14
1692 1 9.19303 15.9228 0.812557
1688 1 11.4913 15.9228 1.62511
1695 1 13.7895 15.9228 5.10743e-15
1698 1 16.0878 15.9228 0.812557
1694 1 18.3861 15.9228 1.62511
1701 1 20.6843 15.9228 2.43767
1700 1 25.2808 15.9228 1.62511
1704 1 22.9826 15.9228 0.812557
1707 1 27.5791 15.9228 6.14474e-15
1710 1 29.8773 15.9228 0.812557
1706 1 32.1756 15.9228 1.62511
1713 1 34.4739 15.9228 2.43767
1716 1 36.7721 15.9228 0.812557
1684 1 1.14913 17.9131 1.62511
1681 1 3.44739 17.9131 4.37578e-15
1685 1 5.74564 17.9131 0.812557
1690 1 8.0439 17.9131 1.62511
1687 1 10.3422 17.9131 1.09701e-14
1691 1 12.6404 17.9131 0.812557
1696 1 14.9387 17.9131 1.62511
1693 1 17.2369 17.9131 2.43767
1697 1 19.5352 17.9131 0.812557
1702 1 21.8334 17.9131 1.62511
1699 1 24.1317 17.9131 2.97882e-15
1703 1 26.43 17.9131 0.812557
1705 1 31.0265 17.9131 4.23531e-15
1708 1 28.7282 17.9131 1.62511
1709 1 33.3247 17.9131 0.812557
1714 1 35.623 17.9131 1.62511
2103 1 2.45605e-13 19.9035 2.43767
2104 1 1.14913 21.8938 1.62511
2106 1 2.29826 19.9035 0.812557
2101 1 3.44739 21.8938 5.0204e-15
2102 1 4.59651 19.9035 1.62511
2105 1 5.74564 21.8938 0.812557
2109 1 6.89477 19.9035 1.18575e-14
2110 1 8.0439 21.8938 1.62511
2107 1 10.3422 21.8938 1.10748e-14
2112 1 9.19303 19.9035 0.812557
2108 1 11.4913 19.9035 1.62511
2111 1 12.6404 21.8938 0.812557
2115 1 13.7895 19.9035 4.65529e-15
2116 1 14.9387 21.8938 1.62511
2118 1 16.0878 19.9035 0.812557
2113 1 17.2369 21.8938 2.43767
2114 1 18.3861 19.9035 1.62511
2117 1 19.5352 21.8938 0.812557
2121 1 20.6843 19.9035 2.43767
2122 1 21.8334 21.8938 1.62511
2119 1 24.1317 21.8938 2.59758e-15
2120 1 25.2808 19.9035 1.62511
2124 1 22.9826 19.9035 0.812557
2123 1 26.43 21.8938 0.812557
2127 1 27.5791 19.9035 6.53771e-15
2125 1 31.0265 21.8938 4.15019e-15
2128 1 28.7282 21.8938 1.62511
2130 1 29.8773 19.9035 0.812557
2126 1 32.1756 19.9035 1.62511
2129 1 33.3247 21.8938 0.812557
2133 1 34.4739 19.9035 2.43767
2134 1 35.623 21.8938 1.62511
2136 1 36.7721 19.9035 0.812557
2523 1 2.59364e-13 23.8842 8.65379e-16
2526 1 2.29826 23.8842 0.812557
2522 1 4.59651 23.8842 1.62511
2529 1 6.89477 23.8842 1.21371e-14
2532 1 9.19303 23.8842 0.812557
2528 1 11.4913 23.8842 1.62511
2535 1 13.7895 23.8842 4.6842e-15
2538 1 16.0878 23.8842 0.812557
2534 1 18.3861 23.8842 1.62511
2541 1 20.6843 23.8842 2.43767
2540 1 25.2808 23.8842 1.62511
2544 1 22.9826 23.8842 0.812557
2547 1 27.5791 23.8842 6.0927e-15
2550 1 29.8773 23.8842 0.812557
2546 1 32.1756 23.8842 1.62511
2553 1 34.4739 23.8842 2.43767
2556 1 36.7721 23.8842 0.812557
2524 1 1.14913 25.8745 1.62511
2943 1 2.59866e-13 27.8649 4.63208e-16
2946 1 2.29826 27.8649 0.812557
2521 1 3.44739 25.8745 4.69863e-15
2942 1 4.59651 27.8649 1.62511
2525 1 5.74564 25.8745 0.812557
2530 1 8.0439 25.8745 1.62511
2949 1 6.89477 27.8649 1.22875e-14
2527 1 10.3422 25.8745 1.10151e-14
2952 1 9.19303 27.8649 0.812557
2531 1 12.6404 25.8745 0.812557
2948 1 11.4913 27.8649 1.62511
2955 1 13.7895 27.8649 4.91096e-15
2536 1 14.9387 25.8745 1.62511
2958 1 16.0878 27.8649 0.812557
2533 1 17.2369 25.8745 2.43767
2537 1 19.5352 25.8745 0.812557
2954 1 18.3861 27.8649 1.62511
2542 1 21.8334 25.8745 1.62511
2961 1 20.6843 27.8649 2.43767
2539 1 24.1317 25.8745 2.81704e-15
2960 1 25.2808 27.8649 1.62511
2964 1 22.9826 27.8649 0.812557
2543 1 26.43 25.8745 0.812557
2967 1 27.5791 27.8649 6.11078e-15
2545 1 31.0265 25.8745 3.64091e-15
2548 1 28.7282 25.8745 1.62511
2970 1 29.8773 27.8649 0.812557
2549 1 33.3247 25.8745 0.812557
2966 1 32.1756 27.8649 1.62511
2554 1 35.623 25.8745 1.62511
2973 1 34.4739 27.8649 2.43767
2976 1 36.7721 27.8649 0.812557
2944 1 1.14913 29.8552 1.62511
2941 1 3.44739 29.8552 4.10964e-15
2945 1 5.74564 29.8552 0.812557
2950 1 8.0439 29.8552 1.62511
2947 1 10.3422 29.8552 1.08323e-14
2951 1 12.6404 29.8552 0.812557
2956 1 14.9387 29.8552 1.62511
2953 1 17.2369 29.8552 2.43767
2957 1 19.5352 29.8552 0.812557
2962 1 21.8334 29.8552 1.62511
2959 1 24.1317 29.8552 3.67282e-15
2963 1 26.43 29.8552 0.812557
2965 1 31.0265 29.8552 4.90854e-15
2968 1 28.7282 29.8552 1.62511
2969 1 33.3247 29.8552 0.812557
2974 1 35.623 29.8552 1.62511
3363 1 2.60201e-13 31.8456 6.00341e-16
3366 1 2.29826 31.8456 0.812557
3362 1 4.59651 31.8456 1.62511
3369 1 6.89477 31.8456 1.2066e-14
3372 1 9.19303 31.8456 0.812557
3368 1 11.4913 31.8456 1.62511
3375 1 13.7895 31.8456 4.70774e-15
3378 1 16.0878 31.8456 0.812557
3374 1 18.3861 31.8456 1.62511
3381 1 20.6843 31.8456 2.43767
3380 1 25.2808 31.8456 1.62511
3384 1 22.9826 31.8456 0.812557
3387 1 27.5791 31.8456 5.81362e-15
3390 1 29.8773 31.8456 0.812557
3386 1 32.1756 31.8456 1.62511
3393 1 34.4739 31.8456 2.43767
3396 1 36.7721 31.8456 0.812557
3364 1 1.14913 33.8359 1.62511
3783 1 2.59191e-13 35.8263 8.06086e-16
3786 1 2.29826 35.8263 0.812557
3361 1 3.44739 33.8359 4.31222e-15
3782 1 4.59651 35.8263 1.62511
3365 1 5.74564 33.8359 0.812557
3370 1 8.0439 33.8359 1.62511
3789 1 6.89477 35.8263 1.23056e-14
3367 1 10.3422 33.8359 1.08983e-14
3792 1 9.19303 35.8263 0.812557
3371 1 12.6404 33.8359 0.812557
3788 1 11.4913 35.8263 1.62511
3795 1 13.7895 35.8263 5.2745e-15
3376 1 14.9387 33.8359 1.62511
3798 1 16.0878 35.8263 0.812557
3373 1 17.2369 33.8359 2.43767
3377 1 19.5352 33.8359 0.812557
3794 1 18.3861 35.8263 1.62511
3382 1 21.8334 33.8359 1.62511
3801 1 20.6843 35.8263 2.43767
3379 1 24.1317 33.8359 3.25692e-15
3800 1 25.2808 35.8263 1.62511
3804 1 22.9826 35.8263 0.812557
3383 1 26.43 33.8359 0.812557
3807 1 27.5791 35.8263 5.82964e-15
3385 1 31.0265 33.8359 5.40099e-15
3388 1 28.7282 33.8359 1.62511
3810 1 29.8773 35.8263 0.812557
3389 1 33.3247 33.8359 0.812557
3806 1 32.1756 35.8263 1.62511
3394 1 35.623 33.8359 1.62511
3813 1 34.4739 35.8263 2.43767
3816 1 36.7721 35.8263 0.812557
3784 1 1.14913 37.8166 1.62511
3781 1 3.44739 37.8166 4.29412e-15
3785 1 5.74564 37.8166 0.812557
3790 1 8.0439 37.8166 1.62511
3787 1 10.3422 37.8166 1.08436e-14
3791 1 12.6404 37.8166 0.812557
3796 1 14.9387 37.8166 1.62511
3793 1 17.2369 37.8166 2.43767
3797 1 19.5352 37.8166 0.812557
3802 1 21.8334 37.8166 1.62511
3799 1 24.1317 37.8166 3.01282e-15
3803 1 26.43 37.8166 0.812557
3805 1 31.0265 37.8166 3.69633e-15
3808 1 28.7282 37.8166 1.62511
3809 1 33.3247 37.8166 0.812557
3814 1 35.623 37.8166 1.62511
4203 1 2.45248e-13 39.807 2.43767
4204 1 1.14913 41.7973 1.62511
4206 1 2.29826 39.807 0.812557
4201 1 3.44739 41.7973 4.70688e-15
4202 1 4.59651 39.807 1.62511
4205 1 5.74564 41.7973 0.812557
4209 1 6.89477 39.807 1.23565e-14
4210 1 8.0439 41.7973 1.62511
4207 1 10.3422 41.7973 1.09887e-14
4212 1 9.19303 39.807 0.812557
4208 1 11.4913 39.807 1.62511
4211 1 12.6404 41.7973 0.812557
4215 1 13.7895 39.807 4.96001e-15
4216 1 14.9387 41.7973 1.62511
4218 1 16.0878 39.807 0.812557
4213 1 17.2369 41.7973 2.43767
4214 1 18.3861 39.807 1.62511
4217 1 19.5352 41.7973 0.812557
4221 1 20.6843 39.807 2.43767
4222 1 21.8334 41.7973 1.62511
4219 1 24.1317 41.7973 3.32664e-15
4220 1 25.2808 39.807 1.62511
4224 1 22.9826 39.807 0.812557
4223 1 26.43 41.7973 0.812557
4227 1 27.5791 39.807 5.83861e-15
4225 1 31.0265 41.7973 4.25063e-15
4228 1 28.7282 41.7973 1.62511
4230 1 29.8773 39.807 0.812557
4226 1 32.1756 39.807 1.62511
4229 1 33.3247 41.7973 0.812557
4233 1 34.4739 39.807 2.43767
4234 1 35.623 41.7973 1.62511
4236 1 36.7721 39.807 0.812557
4623 1 2.59755e-13 43.7877 6.34446e-16
4626 1 2.29826 43.7877 0.812557
4622 1 4.59651 43.7877 1.62511
4629 1 6.89477 43.7877 1.20099e-14
4632 1 9.19303 43.7877 0.812557
4628 1 11.4913 43.7877 1.62511
4635 1 13.7895 43.7877 4.80781e-15
4638 1 16.0878 43.7877 0.812557
4634 1 18.3861 43.7877 1.62511
4641 1 20.6843 43.7877 2.43767
4640 1 25.2808 43.7877 1.62511
4644 1 22.9826 43.7877 0.812557
4647 1 27.5791 43.7877 6.05286e-15
4650 1 29.8773 43.7877 0.812557
4646 1 32.1756 43.7877 1.62511
4653 1 34.4739 43.7877 2.43767
4656 1 36.7721 43.7877 0.812557
4624 1 1.14913 45.778 1.62511
5043 1 2.60224e-13 47.7684 7.3107e-16
5046 1 2.29826 47.7684 0.812557
4621 1 3.44739 45.778 4.55001e-15
5042 1 4.59651 47.7684 1.62511
4625 1 5.74564 45.778 0.812557
4630 1 8.0439 45.778 1.62511
5049 1 6.89477 47.7684 1.22484e-14
4627 1 10.3422 45.778 1.09173e-14
5052 1 9.19303 47.7684 0.812557
4631 1 12.6404 45.778 0.812557
5048 1 11.4913 47.7684 1.62511
5055 1 13.7895 47.7684 4.81412e-15
4636 1 14.9387 45.778 1.62511
5058 1 16.0878 47.7684 0.812557
4633 1 17.2369 45.778 2.43767
4637 1 19.5352 45.778 0.812557
5054 1 18.3861 47.7684 1.62511
4642 1 21.8334 45.778 1.62511
5061 1 20.6843 47.7684 2.43767
4639 1 24.1317 45.778 3.23354e-15
5060 1 25.2808 47.7684 1.62511
5064 1 22.9826 47.7684 0.812557
4643 1 26.43 45.778 0.812557
5067 1 27.5791 47.7684 6.46446e-15
4645 1 31.0265 45.778 3.49745e-15
4648 1 28.7282 45.778 1.62511
5070 1 29.8773 47.7684 0.812557
4649 1 33.3247 45.778 0.812557
5066 1 32.1756 47.7684 1.62511
4654 1 35.623 45.778 1.62511
5073 1 34.4739 47.7684 2.43767
5076 1 36.7721 47.7684 0.812557
5044 1 1.14913 49.7587 1.62511
5041 1 3.44739 49.7587 3.93132e-15
5045 1 5.74564 49.7587 0.812557
5050 1 8.0439 49.7587 1.62511
5047 1 10.3422 49.7587 1.10455e-14
5051 1 12.6404 49.7587 0.812557
5056 1 14.9387 49.7587 1.62511
5053 1 17.2369 49.7587 2.43767
5057 1 19.5352 49.7587 0.812557
5062 1 21.8334 49.7587 1.62511
5059 1 24.1317 49.7587 3.28085e-15
5063 1 26.43 49.7587 0.812557
5065 1 31.0265 49.7587 3.90586e-15
5068 1 28.7282 49.7587 1.62511
5069 1 33.3247 49.7587 0.812557
5074 1 35.623 49.7587 1.62511
5463 1 2.59823e-13 51.7491 7.20901e-16
5466 1 2.29826 51.7491 0.812557
5462 1 4.59651 51.7491 1.62511
5469 1 6.89477 51.7491 1.20151e-14
5472 1 9.19303 51.7491 0.812557
5468 1 11.4913 51.7491 1.62511
5475 1 13.7895 51.7491 4.91241e-15
5478 1 16.0878 51.7491 0.812557
5474 1 18.3861 51.7491 1.62511
5481 1 20.6843 51.7491 2.43767
5480 1 25.2808 51.7491 1.62511
5484 1 22.9826 51.7491 0.812557
5487 1 27.5791 51.7491 5.8159e-15
5490 1 29.8773 51.7491 0.812557
5486 1 32.1756 51.7491 1.62511
5493 1 34.4739 51.7491 2.43767
5496 1 36.7721 51.7491 0.812557
5464 1 1.14913 53.7394 1.62511
5883 1 2.59081e-13 55.7298 8.45076e-16
5886 1 2.29826 55.7298 0.812557
5461 1 3.44739 53.7394 4.30824e-15
5882 1 4.59651 55.7298 1.62511
5465 1 5.74564 53.7394 0.812557
5470 1 8.0439 53.7394 1.62511
5889 1 6.89477 55.7298 1.20379e-14
5467 1 10.3422 53.7394 1.088e-14
5892 1 9.19303 55.7298 0.812557
5471 1 12.6404 53.7394 0.812557
5888 1 11.4913 55.7298 1.62511
5895 1 13.7895 55.7298 4.98852e-15
5476 1 14.9387 53.7394 1.62511
5898 1 16.0878 55.7298 0.812557
5473 1 17.2369 53.7394 2.43767
5477 1 19.5352 53.7394 0.812557
5894 1 18.3861 55.7298 1.62511
5482 1 21.8334 53.7394 1.62511
5901 1 20.6843 55.7298 2.43767
5479 1 24.1317 53.7394 3.27795e-15
5900 1 25.2808 55.7298 1.62511
5904 1 22.9826 55.7298 0.812557
5483 1 26.43 53.7394 0.812557
5907 1 27.5791 55.7298 5.82635e-15
5485 1 31.0265 53.7394 4.26559e-15
5488 1 28.7282 53.7394 1.62511
5910 1 29.8773 55.7298 0.812557
5489 1 33.3247 53.7394 0.812557
5906 1 32.1756 55.7298 1.62511
5494 1 35.623 53.7394 1.62511
5913 1 34.4739 55.7298 2.43767
5916 1 36.7721 55.7298 0.812557
5884 1 1.14913 57.7201 1.62511
5881 1 3.44739 57.7201 4.44344e-15
5885 1 5.74564 57.7201 0.812557
5890 1 8.0439 57.7201 1.62511
5887 1 10.3422 57.7201 1.09367e-14
5891 1 12.6404 57.7201 0.812557
5896 1 14.9387 57.7201 1.62511
5893 1 17.2369 57.7201 2.43767
5897 1 19.5352 57.7201 0.812557
5902 1 21.8334 57.7201 1.62511
5899 1 24.1317 57.7201 3.0323e-15
5903 1 26.43 57.7201 0.812557
5905 1 31.0265 57.7201 4.71169e-15
5908 1 28.7282 57.7201 1.62511
5909 1 33.3247 57.7201 0.812557
5914 1 35.623 57.7201 1.62511
6303 1 2.46782e-13 59.7105 2.43767
6304 1 1.14913 61.7008 1.62511
6306 1 2.29826 59.7105 0.812557
6301 1 3.44739 61.7008 4.5006e-15
6302 1 4.59651 59.7105 1.62511
6305 1 5.74564 61.7008 0.812557
6309 1 6.89477 59.7105 1.18665e-14
6310 1 8.0439 61.7008 1.62511
6307 1 10.3422 61.7008 1.11479e-14
6312 1 9.19303 59.7105 0.812557
6308 1 11.4913 59.7105 1.62511
6311 1 12.6404 61.7008 0.812557
6315 1 13.7895 59.7105 4.99327e-15
6316 1 14.9387 61.7008 1.62511
6318 1 16.0878 59.7105 0.812557
6313 1 17.2369 61.7008 2.43767
6314 1 18.3861 59.7105 1.62511
6317 1 19.5352 61.7008 0.812557
6321 1 20.6843 59.7105 2.43767
6322 1 21.8334 61.7008 1.62511
6319 1 24.1317 61.7008 3.07225e-15
6320 1 25.2808 59.7105 1.62511
6324 1 22.9826 59.7105 0.812557
6323 1 26.43 61.7008 0.812557
6327 1 27.5791 59.7105 6.17492e-15
6325 1 31.0265 61.7008 3.31691e-15
6328 1 28.7282 61.7008 1.62511
6330 1 29.8773 59.7105 0.812557
6326 1 32.1756 59.7105 1.62511
6329 1 33.3247 61.7008 0.812557
6333 1 34.4739 59.7105 2.43767
6334 1 35.623 61.7008 1.62511
6336 1 36.7721 59.7105 0.812557
6723 1 2.59863e-13 63.6912 8.59562e-17
6726 1 2.29826 63.6912 0.812557
6722 1 4.59651 63.6912 1.62511
6729 1 6.89477 63.6912 1.2252e-14
6732 1 9.19303 63.6912 0.812557
6728 1 11.4913 63.6912 1.62511
6735 1 13.7895 63.6912 5.03551e-15
6738 1 16.0878 63.6912 0.812557
6734 1 18.3861 63.6912 1.62511
6741 1 20.6843 63.6912 2.43767
6740 1 25.2808 63.6912 1.62511
6744 1 22.9826 63.6912 0.812557
6747 1 27.5791 63.6912 7.30525e-15
6750 1 29.8773 63.6912 0.812557
6746 1 32.1756 63.6912 1.62511
6753 1 34.4739 63.6912 2.43767
6756 1 36.7721 63.6912 0.812557
6724 1 1.14913 65.6815 1.62511
6721 1 3.44739 65.6815 4.56569e-15
6725 1 5.74564 65.6815 0.812557
6730 1 8.0439 65.6815 1.62511
6727 1 10.3422 65.6815 1.09578e-14
6731 1 12.6404 65.6815 0.812557
6736 1 14.9387 65.6815 1.62511
6733 1 17.2369 65.6815 2.43767
6737 1 19.5352 65.6815 0.812557
6742 1 21.8334 65.6815 1.62511
6739 1 24.1317 65.6815 2.99229e-15
6743 1 26.43 65.6815 0.812557
6745 1 31.0265 65.6815 4.879e-15
6748 1 28.7282 65.6815 1.62511
6749 1 33.3247 65.6815 0.812557
6754 1 35.623 65.6815 1.62511
7143 1 2.44071e-13 67.6719 2.43767
7144 1 1.14913 69.6622 1.62511
7146 1 2.29826 67.6719 0.812557
7141 1 3.44739 69.6622 4.42696e-15
7142 1 4.59651 67.6719 1.62511
7145 1 5.74564 69.6622 0.812557
7149 1 6.89477 67.6719 1.16381e-14
7150 1 8.0439 69.6622 1.62511
7147 1 10.3422 69.6622 1.09639e-14
7152 1 9.19303 67.6719 0.812557
7148 1 11.4913 67.6719 1.62511
7151 1 12.6404 69.6622 0.812557
7155 1 13.7895 67.6719 5.09869e-15
7156 1 14.9387 69.6622 1.62511
7158 1 16.0878 67.6719 0.812557
7153 1 17.2369 69.6622 2.43767
7154 1 18.3861 67.6719 1.62511
7157 1 19.5352 69.6622 0.812557
7161 1 20.6843 67.6719 2.43767
7162 1 21.8334 69.6622 1.62511
7159 1 24.1317 69.6622 2.87243e-15
7160 1 25.2808 67.6719 1.62511
7164 1 22.9826 67.6719 0.812557
7163 1 26.43 69.6622 0.812557
7167 1 27.5791 67.6719 3.82857e-15
7165 1 31.0265 69.6622 4.31615e-15
7168 1 28.7282 69.6622 1.62511
7170 1 29.8773 67.6719 0.812557
7166 1 32.1756 67.6719 1.62511
7169 1 33.3247 69.6622 0.812557
7173 1 34.4739 67.6719 2.43767
7174 1 35.623 69.6622 1.62511
7176 1 36.7721 67.6719 0.812557
7563 1 2.5863e-13 71.6526 6.69866e-16
7566 1 2.29826 71.6526 0.812557
7562 1 4.59651 71.6526 1.62511
7569 1 6.89477 71.6526 1.22706e-14
7572 1 9.19303 71.6526 0.812557
7568 1 11.4913 71.6526 1.62511
7575 1 13.7895 71.6526 5.01103e-15
7578 1 16.0878 71.6526 0.812557
7574 1 18.3861 71.6526 1.62511
7581 1 20.6843 71.6526 2.43767
7580 1 25.2808 71.6526 1.62511
7584 1 22.9826 71.6526 0.812557
7587 1 27.5791 71.6526 6.76549e-15
7590 1 29.8773 71.6526 0.812557
7586 1 32.1756 71.6526 1.62511
7593 1 34.4739 71.6526 2.43767
7596 1 36.7721 71.6526 0.812557
7564 1 1.14913 73.6429 1.62511
7983 1 2.60447e-13 75.6333 4.45233e-16
7986 1 2.29826 75.6333 0.812557
7561 1 3.44739 73.6429 4.06526e-15
7982 1 4.59651 75.6333 1.62511
7565 1 5.74564 73.6429 0.812557
7570 1 8.0439 73.6429 1.62511
7989 1 6.89477 75.6333 1.32009e-14
7567 1 10.3422 73.6429 1.09411e-14
7992 1 9.19303 75.6333 0.812557
7571 1 12.6404 73.6429 0.812557
7988 1 11.4913 75.6333 1.62511
7995 1 13.7895 75.6333 5.05299e-15
7576 1 14.9387 73.6429 1.62511
7998 1 16.0878 75.6333 0.812557
7573 1 17.2369 73.6429 2.43767
7577 1 19.5352 73.6429 0.812557
7994 1 18.3861 75.6333 1.62511
7582 1 21.8334 73.6429 1.62511
8001 1 20.6843 75.6333 2.43767
7579 1 24.1317 73.6429 2.59589e-15
8000 1 25.2808 75.6333 1.62511
8004 1 22.9826 75.6333 0.812557
7583 1 26.43 73.6429 0.812557
8007 1 27.5791 75.6333 5.88569e-15
7585 1 31.0265 73.6429 4.1324e-15
7588 1 28.7282 73.6429 1.62511
8010 1 29.8773 75.6333 0.812557
7589 1 33.3247 73.6429 0.812557
8006 1 32.1756 75.6333 1.62511
7594 1 35.623 73.6429 1.62511
8013 1 34.4739 75.6333 2.43767
8016 1 36.7721 75.6333 0.812557
7984 1 1.14913 77.6236 1.62511
7981 1 3.44739 77.6236 4.31307e-15
7985 1 5.74564 77.6236 0.812557
7990 1 8.0439 77.6236 1.62511
7987 1 10.3422 77.6236 1.10638e-14
7991 1 12.6404 77.6236 0.812557
7996 1 14.9387 77.6236 1.62511
7993 1 17.2369 77.6236 2.43767
7997 1 19.5352 77.6236 0.812557
8002 1 21.8334 77.6236 1.62511
7999 1 24.1317 77.6236 3.0629e-15
8003 1 26.43 77.6236 0.812557
8005 1 31.0265 77.6236 4.29357e-15
8008 1 28.7282 77.6236 1.62511
8009 1 33.3247 77.6236 0.812557
8014 1 35.623 77.6236 1.62511
8403 1 2.58643e-13 79.614 1.08655e-15
8406 1 2.29826 79.614 0.812557
8402 1 4.59651 79.614 1.62511
8409 1 6.89477 79.614 1.07022e-14
8412 1 9.19303 79.614 0.812557
8408 1 11.4913 79.614 1.62511
8415 1 13.7895 79.614 5.05949e-15
8418 1 16.0878 79.614 0.812557
8414 1 18.3861 79.614 1.62511
8421 1 20.6843 79.614 2.43767
8420 1 25.2808 79.614 1.62511
8424 1 22.9826 79.614 0.812557
8427 1 27.5791 79.614 5.8979e-15
8430 1 29.8773 79.614 0.812557
8426 1 32.1756 79.614 1.62511
8433 1 34.4739 79.614 2.43767
8436 1 36.7721 79.614 0.812557
8404 1 1.14913 81.6043 1.62511
8823 1 2.44879e-13 83.5947 -1.12851e-15
8826 1 2.29826 83.5947 0.812557
8401 1 3.44739 81.6043 4.24887e-15
8822 1 4.59651 83.5947 1.62511
8405 1 5.74564 81.6043 0.812557
8410 1 8.0439 81.6043 1.62511
8829 1 6.89477 83.5947 1.12536e-14
8407 1 10.3422 81.6043 1.09366e-14
8832 1 9.19303 83.5947 0.812557
8411 1 12.6404 81.6043 0.812557
8828 1 11.4913 83.5947 1.62511
8835 1 13.7895 83.5947 5.18435e-15
8416 1 14.9387 81.6043 1.62511
8838 1 16.0878 83.5947 0.812557
8413 1 17.2369 81.6043 2.43767
8417 1 19.5352 81.6043 0.812557
8834 1 18.3861 83.5947 1.62511
8422 1 21.8334 81.6043 1.62511
8841 1 20.6843 83.5947 2.43767
8419 1 24.1317 81.6043 3.09229e-15
8840 1 25.2808 83.5947 1.62511
8844 1 22.9826 83.5947 0.812557
8423 1 26.43 81.6043 0.812557
8847 1 27.5791 83.5947 5.95549e-15
8425 1 31.0265 81.6043 4.33794e-15
8428 1 28.7282 81.6043 1.62511
8850 1 29.8773 83.5947 0.812557
8429 1 33.3247 81.6043 0.812557
8846 1 32.1756 83.5947 1.62511
8434 1 35.623 81.6043 1.62511
8853 1 34.4739 83.5947 2.43767
8856 1 36.7721 83.5947 0.812557
8824 1 1.14913 85.585 1.62511
8821 1 3.44739 85.585 4.54481e-15
8825 1 5.74564 85.585 0.812557
8830 1 8.0439 85.585 1.62511
8827 1 10.3422 85.585 1.11952e-14
8831 1 12.6404 85.585 0.812557
8836 1 14.9387 85.585 1.62511
8833 1 17.2369 85.585 2.43767
8837 1 19.5352 85.585 0.812557
8842 1 21.8334 85.585 1.62511
8839 1 24.1317 85.585 3.27967e-15
8843 1 26.43 85.585 0.812557
8845 1 31.0265 85.585 4.25404e-15
8848 1 28.7282 85.585 1.62511
8849 1 33.3247 85.585 0.812557
8854 1 35.623 85.585 1.62511
9243 1 2.46631e-13 87.5754 2.43767
9244 1 1.14913 89.5657 1.62511
9246 1 2.29826 87.5754 0.812557
9241 1 3.44739 89.5657 4.57191e-15
9242 1 4.59651 87.5754 1.62511
9245 1 5.74564 89.5657 0.812557
9249 1 6.89477 87.5754 1.19961e-14
9250 1 8.0439 89.5657 1.62511
9247 1 10.3422 89.5657 1.08324e-14
9252 1 9.19303 87.5754 0.812557
9248 1 11.4913 87.5754 1.62511
9251 1 12.6404 89.5657 0.812557
9255 1 13.7895 87.5754 5.00819e-15
9256 1 14.9387 89.5657 1.62511
9258 1 16.0878 87.5754 0.812557
9253 1 17.2369 89.5657 2.43767
9254 1 18.3861 87.5754 1.62511
9257 1 19.5352 89.5657 0.812557
9261 1 20.6843 87.5754 2.43767
9262 1 21.8334 89.5657 1.62511
9259 1 24.1317 89.5657 2.623e-15
9260 1 25.2808 87.5754 1.62511
9264 1 22.9826 87.5754 0.812557
9263 1 26.43 89.5657 0.812557
9267 1 27.5791 87.5754 5.99471e-15
9265 1 31.0265 89.5657 3.82914e-15
9268 1 28.7282 89.5657 1.62511
9270 1 29.8773 87.5754 0.812557
9266 1 32.1756 87.5754 1.62511
9269 1 33.3247 89.5657 0.812557
9273 1 34.4739 87.5754 2.43767
9274 1 35.623 89.5657 1.62511
9276 1 36.7721 87.5754 0.812557
9663 1 2.58409e-13 91.5561 8.80931e-16
9666 1 2.29826 91.5561 0.812557
9662 1 4.59651 91.5561 1.62511
9669 1 6.89477 91.5561 1.30839e-14
9672 1 9.19303 91.5561 0.812557
9668 1 11.4913 91.5561 1.62511
9675 1 13.7895 91.5561 5.15576e-15
9678 1 16.0878 91.5561 0.812557
9674 1 18.3861 91.5561 1.62511
9681 1 20.6843 91.5561 2.43767
9680 1 25.2808 91.5561 1.62511
9684 1 22.9826 91.5561 0.812557
9687 1 27.5791 91.5561 6.1196e-15
9690 1 29.8773 91.5561 0.812557
9686 1 32.1756 91.5561 1.62511
9693 1 34.4739 91.5561 2.43767
9696 1 36.7721 91.5561 0.812557
9664 1 1.14913 93.5464 1.62511
10083 1 2.59748e-13 95.5368 5.65485e-16
10086 1 2.29826 95.5368 0.812557
9661 1 3.44739 93.5464 4.03003e-15
10082 1 4.59651 95.5368 1.62511
9665 1 5.74564 93.5464 0.812557
9670 1 8.0439 93.5464 1.62511
10089 1 6.89477 95.5368 1.23296e-14
9667 1 10.3422 93.5464 1.10018e-14
10092 1 9.19303 95.5368 0.812557
9671 1 12.6404 93.5464 0.812557
10088 1 11.4913 95.5368 1.62511
10095 1 13.7895 95.5368 5.16589e-15
9676 1 14.9387 93.5464 1.62511
10098 1 16.0878 95.5368 0.812557
9673 1 17.2369 93.5464 2.43767
9677 1 19.5352 93.5464 0.812557
10094 1 18.3861 95.5368 1.62511
9682 1 21.8334 93.5464 1.62511
10101 1 20.6843 95.5368 2.43767
9679 1 24.1317 93.5464 2.87994e-15
10100 1 25.2808 95.5368 1.62511
10104 1 22.9826 95.5368 0.812557
9683 1 26.43 93.5464 0.812557
10107 1 27.5791 95.5368 6.22243e-15
9685 1 31.0265 93.5464 4.23318e-15
9688 1 28.7282 93.5464 1.62511
10110 1 29.8773 95.5368 0.812557
9689 1 33.3247 93.5464 0.812557
10106 1 32.1756 95.5368 1.62511
9694 1 35.623 93.5464 1.62511
10113 1 34.4739 95.5368 2.43767
10116 1 36.7721 95.5368 0.812557
10084 1 1.14913 97.5271 1.62511
10081 1 3.44739 97.5271 4.4098e-15
10085 1 5.74564 97.5271 0.812557
10090 1 8.0439 97.5271 1.62511
10087 1 10.3422 97.5271 1.1126e-14
10091 1 12.6404 97.5271 0.812557
10096 1 14.9387 97.5271 1.62511
10093 1 17.2369 97.5271 2.43767
10097 1 19.5352 97.5271 0.812557
10102 1 21.8334 97.5271 1.62511
10099 1 24.1317 97.5271 2.88586e-15
10103 1 26.43 97.5271 0.812557
10105 1 31.0265 97.5271 4.3736e-15
10108 1 28.7282 97.5271 1.62511
10109 1 33.3247 97.5271 0.812557
10114 1 35.623 97.5271 1.62511
10503 1 2.47741e-13 99.5175 2.43767
10506 1 2.29826 99.5175 0.812557
10502 1 4.59651 99.5175 1.62511
10509 1 6.89477 99.5175 1.22377e-14
10512 1 9.19303 99.5175 0.812557
10508 1 11.4913 99.5175 1.62511
10515 1 13.7895 99.5175 4.93197e-15
10518 1 16.0878 99.5175 0.812557
10514 1 18.3861 99.5175 1.62511
10521 1 20.6843 99.5175 2.43767
10520 1 25.2808 99.5175 1.62511
10524 1 22.9826 99.5175 0.812557
10527 1 27.5791 99.5175 6.36039e-15
10530 1 29.8773 99.5175 0.812557
10526 1 32.1756 99.5175 1.62511
10533 1 34.4739 99.5175 2.43767
10536 1 36.7721 99.5175 0.812557
10504 1 1.14913 101.508 1.62511
10923 1 2.57513e-13 103.498 1.04799e-15
10926 1 2.29826 103.498 0.812557
10501 1 3.44739 101.508 5.69872e-15
10922 1 4.59651 103.498 1.62511
10505 1 5.74564 101.508 0.812557
10510 1 8.0439 101.508 1.62511
10929 1 6.89477 103.498 1.22415e-14
10507 1 10.3422 101.508 1.09475e-14
10932 1 9.19303 103.498 0.812557
10511 1 12.6404 101.508 0.812557
10928 1 11.4913 103.498 1.62511
10935 1 13.7895 103.498 4.88084e-15
10516 1 14.9387 101.508 1.62511
10938 1 16.0878 103.498 0.812557
10513 1 17.2369 101.508 2.43767
10517 1 19.5352 101.508 0.812557
10934 1 18.3861 103.498 1.62511
10522 1 21.8334 101.508 1.62511
10941 1 20.6843 103.498 2.43767
10519 1 24.1317 101.508 2.71923e-15
10940 1 25.2808 103.498 1.62511
10944 1 22.9826 103.498 0.812557
10523 1 26.43 101.508 0.812557
10947 1 27.5791 103.498 5.77936e-15
10525 1 31.0265 101.508 3.66197e-15
10528 1 28.7282 101.508 1.62511
10950 1 29.8773 103.498 0.812557
10529 1 33.3247 101.508 0.812557
10946 1 32.1756 103.498 1.62511
10534 1 35.623 101.508 1.62511
10953 1 34.4739 103.498 2.43767
10956 1 36.7721 103.498 0.812557
10924 1 1.14913 105.489 1.62511
10921 1 3.44739 105.489 3.37276e-15
10925 1 5.74564 105.489 0.812557
10930 1 8.0439 105.489 1.62511
10927 1 10.3422 105.489 1.10052e-14
10931 1 12.6404 105.489 0.812557
10936 1 14.9387 105.489 1.62511
10933 1 17.2369 105.489 2.43767
10937 1 19.5352 105.489 0.812557
10942 1 21.8334 105.489 1.62511
10939 1 24.1317 105.489 3.27594e-15
10943 1 26.43 105.489 0.812557
10945 1 31.0265 105.489 4.45481e-15
10948 1 28.7282 105.489 1.62511
10949 1 33.3247 105.489 0.812557
10954 1 35.623 105.489 1.62511
11343 1 2.60307e-13 107.479 4.65032e-15
11344 1 1.14913 109.469 1.62511
11346 1 2.29826 107.479 0.812557
11341 1 3.44739 109.469 4.39969e-15
11342 1 4.59651 107.479 1.62511
11345 1 5.74564 109.469 0.812557
11349 1 6.89477 107.479 1.25003e-14
11350 1 8.0439 109.469 1.62511
11347 1 10.3422 109.469 1.09705e-14
11352 1 9.19303 107.479 0.812557
11348 1 11.4913 107.479 1.62511
11351 1 12.6404 109.469 0.812557
11355 1 13.7895 107.479 5.04412e-15
11356 1 14.9387 109.469 1.62511
11358 1 16.0878 107.479 0.812557
11353 1 17.2369 109.469 2.43767
11354 1 18.3861 107.479 1.62511
11357 1 19.5352 109.469 0.812557
11361 1 20.6843 107.479 2.43767
11362 1 21.8334 109.469 1.62511
11359 1 24.1317 109.469 2.94444e-15
11360 1 25.2808 107.479 1.62511
11364 1 22.9826 107.479 0.812557
11363 1 26.43 109.469 0.812557
11367 1 27.5791 107.479 5.96049e-15
11365 1 31.0265 109.469 4.59399e-15
11368 1 28.7282 109.469 1.62511
11370 1 29.8773 107.479 0.812557
11366 1 32.1756 107.479 1.62511
11369 1 33.3247 109.469 0.812557
11373 1 34.4739 107.479 2.43767
11374 1 35.623 109.469 1.62511
11376 1 36.7721 107.479 0.812557