ITEM: TIMESTEP
895
ITEM: NUMBER OF ATOMS
27300
ITEM: BOX BOUNDS pp pp pp
0.0000000000000000e+00 4.8263400413782500e+02
0.0000000000000000e+00 2.5874538133696598e+02
0.0000000000000000e+00 2.4376698368360001e+00
ITEM: ATOMS id type x y z
4 1 1.25353 1.99039 1.30396
3 1 0.104395 -1.28915e-08 2.11678
1 1 3.55199 1.99046 2.11633
5 1 5.85042 1.99054 0.491238
10 1 8.14884 1.99062 1.30402
7 1 10.4472 1.9907 2.11701
11 1 12.7456 1.99078 0.492537
16 1 15.0439 1.99086 1.30595
13 1 17.3423 1.99095 2.11959
17 1 19.6405 1.99103 0.49579
22 1 21.9388 1.99112 1.3099
19 1 24.237 1.99122 2.12425
23 1 26.5351 1.99131 0.50119
25 1 31.1312 1.99151 2.13124
28 1 28.8332 1.99141 1.31607
29 1 33.4292 1.99162 0.509029
34 1 35.7271 1.99173 1.32481
423 1 0.103965 3.98069 2.11641
426 1 2.40244 3.98085 0.491015
422 1 4.70089 3.981 1.30349
429 1 6.99932 3.98116 2.11617
432 1 9.29772 3.98132 0.491379
428 1 11.5961 3.98148 1.30447
435 1 13.8945 3.98164 2.11778
438 1 16.1928 3.98181 0.493632
434 1 18.4911 3.98198 1.30738
441 1 20.7894 3.98215 2.12137
440 1 25.3858 3.98252 1.3124
444 1 23.0876 3.98234 0.49792
447 1 27.6839 3.98272 2.12714
450 1 29.9819 3.98292 0.504483
446 1 32.28 3.98313 1.31979
453 1 34.5779 3.98335 2.1354
456 1 36.8758 3.98358 0.513666
424 1 1.25267 5.97116 1.30324
843 1 0.102675 7.96139 2.11532
846 1 2.40115 7.96169 0.489926
421 1 3.55113 5.97139 2.11561
842 1 4.6996 7.962 1.3024
425 1 5.84957 5.97162 0.490513
430 1 8.14799 5.97185 1.30329
849 1 6.99804 7.96231 2.11508
427 1 10.4464 5.97209 2.11628
852 1 9.29645 7.96263 0.490288
431 1 12.7448 5.97233 0.491805
848 1 11.5948 7.96294 1.30338
855 1 13.8932 7.96327 2.11668
436 1 15.0431 5.97258 1.30522
858 1 16.1915 7.9636 0.492523
433 1 17.3414 5.97283 2.11885
437 1 19.6397 5.97309 0.495041
854 1 18.4899 7.96394 1.30626
442 1 21.938 5.97336 1.30914
861 1 20.7881 7.96429 2.12023
439 1 24.2362 5.97364 2.12348
860 1 25.3846 7.96502 1.31124
864 1 23.0864 7.96465 0.496776
443 1 26.5343 5.97392 0.500411
867 1 27.6827 7.96541 2.12596
445 1 31.1305 5.97453 2.13043
448 1 28.8324 5.97422 1.31528
870 1 29.9808 7.96581 0.503284
449 1 33.4285 5.97485 0.508207
866 1 32.2788 7.96623 1.31857
454 1 35.7264 5.97518 1.32397
873 1 34.5768 7.96666 2.13415
876 1 36.8747 7.96711 0.512388
844 1 1.25095 9.95192 1.30178
841 1 3.54941 9.95231 2.11416
845 1 5.84786 9.95269 0.489061
850 1 8.14629 9.95308 1.30184
847 1 10.4447 9.95347 2.11482
851 1 12.7431 9.95387 0.49034
856 1 15.0414 9.95427 1.30374
853 1 17.3398 9.95469 2.11736
857 1 19.6381 9.95512 0.49354
862 1 21.9363 9.95556 1.30762
859 1 24.2346 9.95602 2.12194
863 1 26.5328 9.95649 0.498851
865 1 31.129 9.95749 2.12881
868 1 28.8309 9.95698 1.31369
869 1 33.427 9.95802 0.506558
874 1 35.725 9.95856 1.32228
1263 1 0.100525 11.9421 2.1135
1264 1 1.24837 13.9327 1.2996
1266 1 2.399 11.9425 0.488109
1261 1 3.54684 13.9332 2.11197
1262 1 4.69746 11.943 1.30058
1265 1 5.84529 13.9337 0.48688
1269 1 6.9959 11.9435 2.11326
1270 1 8.14373 13.9343 1.29965
1267 1 10.4422 13.9348 2.11263
1272 1 9.29432 11.9439 0.488466
1268 1 11.5927 11.9444 1.30155
1271 1 12.7406 13.9354 0.488138
1275 1 13.8911 11.9449 2.11484
1276 1 15.0389 13.9359 1.30153
1278 1 16.1895 11.9454 0.490671
1273 1 17.3373 13.9365 2.11513
1274 1 18.4878 11.9459 1.30439
1277 1 19.6356 13.9371 0.491284
1281 1 20.7861 11.9464 2.11835
1282 1 21.9339 13.9377 1.30534
1279 1 24.2322 13.9383 2.11963
1280 1 25.3826 11.9475 1.3093
1284 1 23.0844 11.9469 0.494864
1283 1 26.5304 13.939 0.496503
1287 1 27.6808 11.948 2.12399
1285 1 31.1267 13.9404 2.12638
1288 1 28.8286 13.9397 1.31131
1290 1 29.9789 11.9486 0.50128
1286 1 32.277 11.9493 1.31652
1289 1 33.4248 13.9411 0.504075
1293 1 34.575 11.9499 2.13207
1294 1 35.7228 13.9419 1.31974
1296 1 36.8729 11.9506 0.510251
1683 1 0.0975148 15.9228 2.11095
1686 1 2.39599 15.9234 0.485561
1682 1 4.69446 15.924 1.29804
1689 1 6.99291 15.9246 2.11071
1692 1 9.29135 15.9252 0.485912
1688 1 11.5898 15.9258 1.29898
1695 1 13.8882 15.9264 2.11226
1698 1 16.1866 15.9271 0.488072
1694 1 18.4849 15.9277 1.30177
1701 1 20.7832 15.9284 2.11569
1700 1 25.3798 15.9298 1.30657
1704 1 23.0815 15.9291 0.492179
1707 1 27.678 15.9306 2.12122
1710 1 29.9762 15.9314 0.498462
1706 1 32.2743 15.9322 1.31365
1713 1 34.5724 15.933 2.12913
1716 1 36.8704 15.9339 0.507244
1684 1 1.24493 17.9135 1.29668
1681 1 3.54341 17.9141 2.10906
1685 1 5.84187 17.9148 0.483968
1690 1 8.14032 17.9155 1.29674
1687 1 10.4388 17.9161 2.1097
1691 1 12.7372 17.9168 0.485195
1696 1 15.0356 17.9175 1.29856
1693 1 17.334 17.9183 2.11214
1697 1 19.6323 17.919 0.488265
1702 1 21.9307 17.9198 1.30228
1699 1 24.229 17.9206 2.11653
1703 1 26.5272 17.9214 0.493359
1705 1 31.1237 17.9231 2.12312
1708 1 28.8255 17.9222 1.30811
1709 1 33.4218 17.924 0.500746
1714 1 35.7199 17.925 1.31633
2104 1 1.24064 21.8942 1.29303
2106 1 2.39213 19.9042 0.482281
2103 1 0.0936466 19.9035 2.10766
2101 1 3.53912 21.895 2.10542
2102 1 4.69061 19.9049 1.29476
2105 1 5.8376 21.8958 0.480322
2109 1 6.98907 19.9057 2.10743
2110 1 8.13606 21.8966 1.29308
2107 1 10.4345 21.8974 2.10603
2112 1 9.28752 19.9064 0.482621
2108 1 11.586 19.9072 1.29568
2111 1 12.733 21.8982 0.481508
2115 1 13.8844 19.9079 2.10893
2116 1 15.0314 21.8991 1.29485
2118 1 16.1828 19.9087 0.484721
2113 1 17.3298 21.9 2.10839
2114 1 18.4812 19.9095 1.29839
2117 1 19.6282 21.9008 0.484479
2121 1 20.7796 19.9104 2.11227
2122 1 21.9266 21.9018 1.29845
2119 1 24.2249 21.9027 2.11265
2120 1 25.3762 19.9121 1.30306
2124 1 23.0779 19.9112 0.488713
2123 1 26.5233 21.9037 0.489409
2127 1 27.6745 19.913 2.11765
2125 1 31.1198 21.9058 2.11902
2128 1 28.8216 21.9047 1.30409
2130 1 29.9727 19.914 0.49482
2126 1 32.2709 19.915 1.30993
2129 1 33.418 21.9069 0.496558
2133 1 34.5691 19.916 2.12533
2134 1 35.7162 21.908 1.31205
2136 1 36.8672 19.9171 0.503352
2526 1 2.38742 23.885 0.478268
2523 1 0.0889254 23.8842 2.10364
2522 1 4.6859 23.8859 1.29075
2529 1 6.98438 23.8867 2.10341
2532 1 9.28285 23.8876 0.478594
2528 1 11.5813 23.8885 1.29163
2535 1 13.8798 23.8894 2.10486
2538 1 16.1782 23.8903 0.480614
2534 1 18.4766 23.8912 1.29424
2541 1 20.775 23.8922 2.10808
2540 1 25.3718 23.8943 1.29874
2544 1 23.0734 23.8932 0.484459
2547 1 27.6701 23.8953 2.11325
2550 1 29.9685 23.8964 0.490343
2546 1 32.2667 23.8976 1.30536
2553 1 34.565 23.8988 2.12065
2556 1 36.8631 23.9 0.498561
2524 1 1.2355 25.875 1.28865
2946 1 2.38186 27.8658 0.473528
2943 1 0.0833617 27.8648 2.09889
2521 1 3.53399 25.8759 2.10104
2942 1 4.68036 27.8668 1.28601
2525 1 5.83248 25.8768 0.475944
2530 1 8.13096 25.8777 1.2887
2949 1 6.97885 27.8678 2.09867
2527 1 10.4294 25.8786 2.10163
2952 1 9.27734 27.8687 0.473832
2531 1 12.7279 25.8796 0.477077
2948 1 11.5758 27.8697 1.28684
2955 1 13.8743 27.8708 2.10004
2536 1 15.0264 25.8806 1.29039
2958 1 16.1728 27.8718 0.475752
2533 1 17.3248 25.8816 2.10389
2537 1 19.6233 25.8826 0.479922
2954 1 18.4713 27.8729 1.28933
2542 1 21.9217 25.8836 1.29383
2961 1 20.7697 27.874 2.1031
2539 1 24.2201 25.8847 2.10796
2960 1 25.3666 27.8763 1.29361
2964 1 23.0681 27.8751 0.479413
2543 1 26.5185 25.8858 0.484646
2967 1 27.665 27.8775 2.10803
2545 1 31.1152 25.8882 2.11407
2548 1 28.8168 25.887 1.29924
2970 1 29.9634 27.8787 0.485019
2549 1 33.4135 25.8895 0.491498
2966 1 32.2617 27.88 1.29992
2554 1 35.7117 25.8908 1.30687
2973 1 34.56 27.8814 2.11509
2976 1 36.8583 27.8828 0.492852
2944 1 1.22952 29.8557 1.28354
2941 1 3.52802 29.8567 2.09594
2945 1 5.82653 29.8577 0.470842
2950 1 8.12503 29.8588 1.28358
2947 1 10.4235 29.8598 2.09649
2951 1 12.722 29.8609 0.471906
2956 1 15.0205 29.862 1.28517
2953 1 17.319 29.8631 2.09862
2957 1 19.6175 29.8642 0.474593
2962 1 21.916 29.8654 1.28843
2959 1 24.2144 29.8666 2.10248
2963 1 26.5129 29.8679 0.479064
2965 1 31.1097 29.8705 2.10826
2968 1 28.8113 29.8692 1.29354
2969 1 33.4081 29.8719 0.485553
2974 1 35.7064 29.8733 1.30077
3363 1 0.0769732 31.8455 2.09342
3366 1 2.37548 31.8466 0.46807
3362 1 4.67399 31.8477 1.28055
3369 1 6.9725 31.8487 2.0932
3372 1 9.27101 31.8498 0.468345
3368 1 11.5695 31.8509 1.28133
3375 1 13.868 31.8521 2.09448
3378 1 16.1665 31.8532 0.47014
3374 1 18.465 31.8544 1.28365
3381 1 20.7635 31.8556 2.09735
3380 1 25.3605 31.8581 1.28767
3384 1 23.062 31.8569 0.473575
3387 1 27.659 31.8595 2.10198
3390 1 29.9574 31.8609 0.478843
3386 1 32.2559 31.8623 1.29361
3393 1 34.5543 31.8638 2.10862
3396 1 36.8527 31.8653 0.486212
3364 1 1.22273 33.8364 1.27773
3786 1 2.3683 35.8274 0.461915
3783 1 0.0697882 35.8262 2.08725
3361 1 3.52125 33.8375 2.09014
3782 1 4.66682 35.8285 1.2744
3365 1 5.81976 33.8387 0.465028
3370 1 8.11828 33.8398 1.27775
3789 1 6.96535 35.8297 2.08703
3367 1 10.4168 33.8409 2.09063
3792 1 9.26388 35.8309 0.46215
3371 1 12.7153 33.8421 0.466006
3788 1 11.5624 35.8321 1.27509
3795 1 13.861 35.8333 2.0882
3376 1 15.0139 33.8433 1.27922
3798 1 16.1595 35.8345 0.463791
3373 1 17.3124 33.8445 2.09261
3377 1 19.6109 33.8457 0.4685
3794 1 18.458 35.8358 1.27722
3382 1 21.9094 33.847 1.28225
3801 1 20.7566 35.8371 2.09083
3379 1 24.2079 33.8483 2.09619
3800 1 25.3536 35.8399 1.28093
3804 1 23.0551 35.8385 0.466952
3383 1 26.5064 33.8497 0.472663
3807 1 27.6522 35.8413 2.09511
3385 1 31.1034 33.8526 2.10158
3388 1 28.8049 33.8511 1.28701
3810 1 29.9507 35.8428 0.471817
3389 1 33.4019 33.8541 0.478716
3806 1 32.2492 35.8443 1.28641
3394 1 35.7003 33.8557 1.29376
3813 1 34.5477 35.8459 2.10124
3816 1 36.8462 35.8476 0.478633
3784 1 1.21517 37.8171 1.27123
3781 1 3.51369 37.8183 2.08364
3785 1 5.81222 37.8195 0.458528
3790 1 8.11076 37.8208 1.27123
3787 1 10.4093 37.822 2.08407
3791 1 12.7079 37.8232 0.459399
3796 1 15.0064 37.8245 1.27255
3793 1 17.305 37.8258 2.08586
3797 1 19.6035 37.8271 0.461659
3802 1 21.9021 37.8285 1.2753
3799 1 24.2006 37.8299 2.08912
3803 1 26.4992 37.8314 0.465453
3805 1 31.0963 37.8345 2.09405
3808 1 28.7977 37.8329 1.27965
3809 1 33.3948 37.8361 0.470988
3814 1 35.6934 37.8378 1.28582
4204 1 1.20687 41.7979 1.26409
4206 1 2.36037 39.8081 0.455095
4203 1 0.0618471 39.8069 2.08042
4201 1 3.50541 41.7991 2.07651
4202 1 4.65891 39.8094 1.26757
4205 1 5.80395 41.8004 0.451378
4209 1 6.95745 39.8106 2.08019
4210 1 8.1025 41.8017 1.26405
4207 1 10.4011 41.803 2.07685
4212 1 9.25599 39.8118 0.455277
4208 1 11.5545 39.8131 1.26817
4211 1 12.6996 41.8043 0.452117
4215 1 13.8531 39.8144 2.08121
4216 1 14.9982 41.8056 1.26519
4218 1 16.1517 39.8157 0.456731
4213 1 17.2968 41.807 2.07841
4214 1 18.4502 39.8171 1.27007
4217 1 19.5954 41.8084 0.4541
4221 1 20.7488 39.8185 2.08357
4222 1 21.894 41.8099 1.26761
4219 1 24.1926 41.8114 2.08129
4220 1 25.346 39.8214 1.2734
4224 1 23.0474 39.8199 0.459566
4223 1 26.4912 41.8129 0.457458
4227 1 27.6446 39.8229 2.08742
4225 1 31.0884 41.8162 2.08567
4228 1 28.7898 41.8145 1.27147
4230 1 29.9431 39.8245 0.463951
4226 1 32.2417 39.8262 1.27835
4229 1 33.387 41.8179 0.462384
4233 1 34.5403 39.8279 2.09296
4234 1 35.6856 41.8196 1.27697
4236 1 36.8388 39.8296 0.470116
4626 1 2.35174 43.7888 0.447653
4623 1 0.0532054 43.7876 2.07297
4622 1 4.65028 43.7901 1.26013
4629 1 6.94884 43.7915 2.07272
4632 1 9.2474 43.7928 0.447767
4628 1 11.546 43.7941 1.26061
4635 1 13.8446 43.7955 2.07357
4638 1 16.1431 43.7969 0.448999
4634 1 18.4417 43.7983 1.26223
4641 1 20.7403 43.7997 2.0756
4640 1 25.3376 43.8028 1.26512
4644 1 23.0389 43.8013 0.45145
4647 1 27.6362 43.8044 2.07895
4650 1 29.9348 43.8061 0.455274
4646 1 32.2334 43.8078 1.26944
4653 1 34.532 43.8096 2.0838
4656 1 36.8307 43.8114 0.460681
4624 1 1.19791 45.7785 1.25636
5046 1 2.34248 47.7696 0.439651
5043 1 0.0439353 47.7682 2.06496
4621 1 3.49646 45.7799 2.06877
5042 1 4.64103 47.7709 1.25212
4625 1 5.79501 45.7812 0.443629
4630 1 8.09357 45.7825 1.25627
5049 1 6.93959 47.7723 2.06468
4627 1 10.3921 45.7839 2.06902
5052 1 9.23817 47.7736 0.43968
4631 1 12.6907 45.7853 0.444211
5048 1 11.5367 47.775 1.25245
5055 1 13.8353 47.7764 2.06533
4636 1 14.9893 45.7867 1.2572
5058 1 16.1339 47.7779 0.440652
4633 1 17.2879 45.7881 2.0703
4637 1 19.5865 45.7896 0.445868
5054 1 18.4325 47.7794 1.25376
4642 1 21.8851 45.7911 1.25923
5061 1 20.7312 47.7809 2.06698
4639 1 24.1838 45.7926 2.07274
5060 1 25.3284 47.784 1.25614
5064 1 23.0298 47.7824 0.442659
4643 1 26.4824 45.7943 0.44872
5067 1 27.6271 47.7857 2.06975
4645 1 31.0797 45.7976 2.07648
4648 1 28.781 45.7959 1.26252
5070 1 29.9257 47.7874 0.445836
4649 1 33.3783 45.7994 0.45294
5066 1 32.2244 47.7892 1.25974
4654 1 35.677 45.8012 1.26724
5073 1 34.523 47.791 2.07381
5076 1 36.8217 47.7929 0.450369
5044 1 1.18836 49.7592 1.2481
5041 1 3.48692 49.7606 2.06052
5045 1 5.78548 49.762 0.435351
5050 1 8.08405 49.7634 1.24795
5047 1 10.3826 49.7648 2.06063
5051 1 12.6812 49.7662 0.435746
5056 1 14.9798 49.7676 1.24863
5053 1 17.2784 49.7691 2.06161
5057 1 19.577 49.7706 0.437028
5062 1 21.8757 49.7722 1.25023
5059 1 24.1743 49.7738 2.06354
5063 1 26.4729 49.7754 0.4393
5065 1 31.0702 49.7789 2.06655
5068 1 28.7716 49.7772 1.25286
5069 1 33.3689 49.7808 0.442713
5074 1 35.6676 49.7826 1.25669
5466 1 2.33268 51.7503 0.431167
5463 1 0.0341268 51.7489 2.05646
5462 1 4.63124 51.7516 1.24362
5469 1 6.9298 51.753 2.05615
5472 1 9.22838 51.7544 0.431091
5468 1 11.527 51.7559 1.24379
5475 1 13.8256 51.7573 2.05657
5478 1 16.1242 51.7588 0.431765
5474 1 18.4228 51.7603 1.24472
5481 1 20.7214 51.7619 2.05778
5480 1 25.3187 51.7651 1.24653
5484 1 23.02 51.7635 0.433266
5487 1 27.6173 51.7668 2.0599
5490 1 29.916 51.7686 0.435711
5486 1 32.2146 51.7704 1.24932
5493 1 34.5133 51.7723 2.06305
5496 1 36.812 51.7742 0.439255
5464 1 1.17833 53.7399 1.23941
5886 1 2.32244 55.7309 0.422294
5883 1 0.0238866 55.7295 2.04759
5461 1 3.47689 53.7413 2.05182
5882 1 4.62101 55.7324 1.23473
5465 1 5.77545 53.7427 0.426627
5470 1 8.07403 53.7441 1.23917
5889 1 6.91958 55.7338 2.04722
5467 1 10.3726 53.7456 2.05179
5892 1 9.21815 55.7352 0.422093
5471 1 12.6712 53.747 0.426807
5888 1 11.5167 55.7367 1.2347
5895 1 13.8153 55.7382 2.04737
5476 1 14.9698 53.7485 1.23957
5898 1 16.1139 55.7397 0.422431
5473 1 17.2684 53.75 2.05241
5477 1 19.567 53.7516 0.427665
5894 1 18.4125 55.7412 1.23523
5482 1 21.8656 53.7532 1.24067
5901 1 20.7111 55.7428 2.0481
5479 1 24.1643 53.7548 2.05377
5900 1 25.3084 55.7461 1.23639
5904 1 23.0098 55.7444 0.423371
5483 1 26.4629 53.7565 0.429287
5907 1 27.607 55.7478 2.04949
5485 1 31.0602 53.76 2.05597
5488 1 28.7615 53.7582 1.24257
5910 1 29.9057 55.7496 0.425002
5489 1 33.3589 53.7619 0.431795
5906 1 32.2043 55.7515 1.23828
5494 1 35.6575 53.7638 1.24541
5913 1 34.503 55.7534 2.05165
5916 1 36.8016 55.7553 0.427447
5884 1 1.16792 57.7206 1.23039
5881 1 3.46648 57.722 2.04278
5885 1 5.76505 57.7234 0.417559
5890 1 8.06362 57.7248 1.23005
5887 1 10.3622 57.7263 2.04258
5891 1 12.6608 57.7278 0.417497
5896 1 14.9594 57.7293 1.23013
5893 1 17.258 57.7308 2.04282
5897 1 19.5566 57.7324 0.417888
5902 1 21.8552 57.734 1.23069
5899 1 24.1538 57.7357 2.04354
5903 1 26.4524 57.7374 0.418795
5905 1 31.0497 57.741 2.04484
5908 1 28.751 57.7392 1.23178
5909 1 33.3483 57.7429 0.420309
5914 1 35.6469 57.7448 1.23352
6304 1 1.15727 61.7012 1.22114
6306 1 2.3119 59.7116 0.41314
6303 1 0.0133368 59.7102 2.03843
6301 1 3.45583 61.7026 2.03352
6302 1 4.61046 59.713 1.22555
6305 1 5.75439 61.7041 0.40826
6309 1 6.90903 59.7145 2.03799
6310 1 8.05296 61.7055 1.22069
6307 1 10.3515 61.707 2.03313
6312 1 9.2076 59.7159 0.412796
6308 1 11.5062 59.7174 1.22531
6311 1 12.6501 61.7085 0.407933
6315 1 13.8048 59.7189 2.03785
6316 1 14.9487 61.71 1.22043
6318 1 16.1033 59.7204 0.412766
6313 1 17.2472 61.7116 2.03295
6314 1 18.4019 59.722 1.22539
6317 1 19.5458 61.7132 0.407821
6321 1 20.7005 59.7236 2.03805
6322 1 21.8444 61.7148 1.22039
6324 1 22.9991 59.7253 0.413095
6319 1 24.143 61.7165 2.033
6320 1 25.2977 59.727 1.22585
6327 1 27.5963 59.7287 2.03866
6323 1 26.4416 61.7182 0.407963
6330 1 29.8949 59.7305 0.413844
6328 1 28.7402 61.72 1.22063
6325 1 31.0387 61.7218 2.03334
6329 1 33.3373 61.7237 0.408411
6326 1 32.1935 59.7324 1.22676
6336 1 36.7908 59.7363 0.415094
6334 1 35.6359 61.7257 1.2212
6333 1 34.4922 59.7343 2.03973
6726 1 2.30117 63.6923 0.403825
6723 1 0.00261129 63.6908 2.02912
6722 1 4.59973 63.6937 1.21621
6729 1 6.89829 63.6951 2.02859
6732 1 9.19686 63.6966 0.40332
6728 1 11.4954 63.6981 1.21573
6735 1 13.794 63.6996 2.02814
6738 1 16.0925 63.7011 0.402897
6734 1 18.3911 63.7027 1.21533
6741 1 20.6897 63.7043 2.02778
6744 1 22.9882 63.706 0.402578
6740 1 25.2868 63.7077 1.21506
6747 1 27.5854 63.7094 2.02755
6750 1 29.8839 63.7113 0.402395
6746 1 32.1825 63.7131 1.21493
6756 1 36.7796 63.717 0.402382
6753 1 34.4811 63.715 2.02748
6724 1 1.14651 65.6819 1.2118
6721 1 3.44507 65.6833 2.02416
6725 1 5.74362 65.6847 0.398857
6730 1 8.04218 65.6862 1.21121
6727 1 10.3407 65.6877 2.02357
6731 1 12.6393 65.6892 0.398246
6736 1 14.9378 65.6907 1.21059
6733 1 17.2364 65.6922 2.02293
6737 1 19.5349 65.6938 0.397606
6742 1 21.8335 65.6955 1.20994
6739 1 24.132 65.6972 2.02228
6743 1 26.4306 65.6989 0.396949
6745 1 31.0277 65.7025 2.02162
6748 1 28.7291 65.7007 1.20928
6749 1 33.3262 65.7044 0.396287
6754 1 35.6247 65.7064 1.20862
7144 1 1.13578 69.6625 1.20248
7146 1 2.29041 67.6729 0.394474
7141 1 3.43434 69.6639 2.01483
7142 1 4.58897 67.6743 1.20682
7145 1 5.73289 69.6654 0.389476
7149 1 6.88752 67.6758 2.01915
7150 1 8.03143 69.6668 1.20176
7147 1 10.33 69.6683 2.01402
7152 1 9.18607 67.6772 0.393796
7148 1 11.4846 67.6787 1.20609
7151 1 12.6285 69.6698 0.388571
7155 1 13.7832 67.6802 2.01837
7156 1 14.927 69.6713 1.20077
7158 1 16.0817 67.6818 0.392963
7153 1 17.2256 69.6728 2.01293
7154 1 18.3802 67.6833 1.20521
7157 1 19.5241 69.6744 0.387392
7161 1 20.6788 67.685 2.01744
7162 1 21.8226 69.6761 1.19949
7159 1 24.1211 69.6777 2.01156
7160 1 25.2758 67.6883 1.20417
7164 1 22.9773 67.6866 0.391977
7163 1 26.4196 69.6795 0.385924
7167 1 27.5743 67.6901 2.01635
7165 1 31.0166 69.6831 2.00988
7168 1 28.7181 69.6812 1.19792
7170 1 29.8729 67.6919 0.390836
7166 1 32.1714 67.6937 1.20298
7169 1 33.3151 69.685 0.384138
7173 1 34.4699 67.6957 2.0151
7174 1 35.6135 69.6869 1.19602
7176 1 36.7684 67.6976 0.389525
7566 1 2.27975 71.6535 0.385217
7562 1 4.5783 71.655 1.19753
7569 1 6.87684 71.6564 2.0098
7572 1 9.17538 71.6579 0.384357
7568 1 11.4739 71.6593 1.19654
7575 1 13.7724 71.6608 2.00868
7578 1 16.0709 71.6623 0.383108
7574 1 18.3695 71.6639 1.19516
7581 1 20.668 71.6655 2.00716
7580 1 25.2649 71.6688 1.19336
7584 1 22.9665 71.6672 0.381453
7587 1 27.5634 71.6706 2.00522
7590 1 29.8619 71.6724 0.379353
7586 1 32.1604 71.6742 1.1911
7593 1 34.4588 71.6761 2.00279
7596 1 36.7572 71.6781 0.376748
7564 1 1.12523 73.6432 1.19333
7986 1 2.26934 75.6342 0.376177
7561 1 3.42378 73.6446 2.00565
7982 1 4.56788 75.6356 1.18845
7565 1 5.72232 73.646 0.380248
7570 1 8.02085 73.6474 1.19246
7989 1 6.86641 75.637 2.00066
7567 1 10.3194 73.6489 2.00462
7992 1 9.16493 75.6384 0.375131
7571 1 12.6179 73.6503 0.379046
7988 1 11.4634 75.6399 1.1872
7995 1 13.762 75.6414 1.99921
7576 1 14.9164 73.6518 1.19109
7998 1 16.0604 75.6429 0.373472
7573 1 17.2149 73.6534 2.00307
7577 1 19.5134 73.655 0.377331
7994 1 18.3589 75.6444 1.18533
7582 1 21.8119 73.6566 1.1892
8001 1 20.6574 75.646 1.99712
7579 1 24.1104 73.6582 2.001
8000 1 25.2543 75.6493 1.18279
8004 1 22.9559 75.6476 0.371163
7583 1 26.4088 73.6599 0.375061
8007 1 27.5528 75.651 1.99434
7585 1 31.0057 73.6635 1.99832
7588 1 28.7073 73.6617 1.18673
8010 1 29.8512 75.6528 0.368131
7589 1 33.3042 73.6654 0.372169
8006 1 32.1496 75.6546 1.1795
7594 1 35.6026 73.6673 1.18361
8013 1 34.448 75.6565 1.99077
8016 1 36.7464 75.6584 0.364273
7984 1 1.11499 77.6238 1.18445
7981 1 3.41353 77.6252 1.99675
7985 1 5.71206 77.6266 0.371293
7990 1 8.01058 77.628 1.18343
7987 1 10.3091 77.6294 1.99549
7991 1 12.6076 77.6309 0.369799
7996 1 14.9061 77.6323 1.1817
7993 1 17.2046 77.6338 1.99351
7997 1 19.503 77.6354 0.367565
8002 1 21.8015 77.637 1.1792
7999 1 24.1 77.6386 1.99075
8003 1 26.3984 77.6403 0.364525
8005 1 30.9952 77.6438 1.98711
8008 1 28.6968 77.642 1.17587
8009 1 33.2936 77.6457 0.360573
8014 1 35.592 77.6476 1.17159
8406 1 2.2593 79.6148 0.367469
8402 1 4.55783 79.6162 1.1797
8409 1 6.85635 79.6176 1.99185
8412 1 9.15486 79.619 0.366238
8408 1 11.4534 79.6204 1.1782
8415 1 13.7519 79.6218 1.99008
8418 1 16.0503 79.6233 0.364186
8414 1 18.3488 79.6248 1.17587
8421 1 20.6473 79.6264 1.98745
8420 1 25.2441 79.6296 1.17262
8424 1 22.9457 79.6279 0.361253
8427 1 27.5426 79.6313 1.98387
8430 1 29.841 79.633 0.357338
8426 1 32.1394 79.6348 1.16835
8433 1 34.4378 79.6367 1.97923
8436 1 36.7361 79.6386 0.352298
8404 1 1.10518 81.6045 1.17596
8826 1 2.24974 83.5955 0.359195
8401 1 3.40371 81.6058 1.98823
8822 1 4.54826 83.5968 1.17139
8405 1 5.70224 81.6072 0.362724
8410 1 8.00075 81.6085 1.17479
8829 1 6.84678 83.5981 1.98348
8407 1 10.2992 81.6099 1.98676
8832 1 9.14528 83.5995 0.357787
8411 1 12.5977 81.6113 0.360949
8828 1 11.4438 83.6008 1.16965
8835 1 13.7423 83.6022 1.9814
8416 1 14.8962 81.6128 1.17271
8838 1 16.0407 83.6037 0.355365
8413 1 17.1947 81.6142 1.98436
8417 1 19.4931 81.6157 0.358226
8834 1 18.3392 83.6051 1.16688
8422 1 21.7916 81.6173 1.16965
8841 1 20.6376 83.6066 1.97826
8419 1 24.09 81.6189 1.98095
8840 1 25.2345 83.6098 1.16297
8844 1 22.9361 83.6082 0.351851
8423 1 26.3885 81.6205 0.354462
8847 1 27.5329 83.6114 1.97396
8425 1 30.9853 81.624 1.97642
8428 1 28.6869 81.6222 1.16551
8850 1 29.8313 83.6131 0.34712
8429 1 33.2837 81.6258 0.349521
8846 1 32.1297 83.6149 1.1578
8434 1 35.582 81.6276 1.16014
8853 1 34.4281 83.6167 1.96832
8856 1 36.7265 83.6185 0.340992
8824 1 1.09591 85.5851 1.16795
8821 1 3.39444 85.5864 1.98019
8825 1 5.69295 85.5877 0.354637
8830 1 7.99146 85.5891 1.16664
8827 1 10.2899 85.5904 1.97851
8831 1 12.5884 85.5917 0.352599
8836 1 14.8869 85.5931 1.16423
8833 1 17.1854 85.5945 1.97573
8837 1 19.4838 85.596 0.349423
8842 1 21.7823 85.5975 1.16065
8839 1 24.0807 85.599 1.97173
8843 1 26.3791 85.6006 0.344996
8845 1 30.976 85.604 1.96638
8848 1 28.6776 85.6023 1.15577
8849 1 33.2744 85.6057 0.339152
8854 1 35.5728 85.6075 1.14941
9244 1 1.08727 89.5658 1.1605
9246 1 2.24077 87.5761 0.351443
9241 1 3.38579 89.567 1.97271
9242 1 4.53929 87.5774 1.1636
9245 1 5.6843 89.5683 0.347112
9249 1 6.83779 87.5787 1.97563
9250 1 7.9828 89.5695 1.15905
9247 1 10.2813 89.5708 1.97085
9252 1 9.13629 87.5799 0.349867
9248 1 11.4348 87.5813 1.16164
9251 1 12.5798 89.5721 0.344834
9255 1 13.7333 87.5826 1.97328
9256 1 14.8782 89.5734 1.15635
9258 1 16.0317 87.584 0.347105
9253 1 17.1767 89.5748 1.96771
9254 1 18.3302 87.5854 1.15846
9257 1 19.4752 89.5762 0.341248
9261 1 20.6286 87.5868 1.96967
9262 1 21.7736 89.5776 1.1523
9259 1 24.0721 89.5791 1.96318
9260 1 25.2255 87.5898 1.15396
9264 1 22.9271 87.5883 0.343064
9263 1 26.3705 89.5806 0.336224
9267 1 27.524 87.5914 1.9647
9265 1 30.9674 89.5838 1.9571
9268 1 28.669 89.5822 1.14675
9270 1 29.8224 87.5931 0.337592
9266 1 32.1208 87.5947 1.14797
9269 1 33.2659 89.5855 0.32957
9273 1 34.4192 87.5965 1.95816
9274 1 35.5643 89.5872 1.1395
9276 1 36.7176 87.5983 0.330482
9666 1 2.23247 91.5567 0.344283
9662 1 4.53098 91.5579 1.15641
9669 1 6.82948 91.5592 1.96839
9672 1 9.12797 91.5604 0.342552
9668 1 11.4265 91.5616 1.15424
9675 1 13.7249 91.5629 1.96577
9678 1 16.0234 91.5642 0.339484
9674 1 18.3219 91.5655 1.1507
9681 1 20.6204 91.5669 1.96176
9680 1 25.2173 91.5698 1.14567
9684 1 22.9188 91.5683 0.334971
9687 1 27.5158 91.5713 1.95619
9690 1 29.8142 91.5728 0.328841
9686 1 32.1127 91.5744 1.13896
9693 1 34.4112 91.5761 1.94886
9696 1 36.7096 91.5778 0.320859
9664 1 1.07933 93.5465 1.15367
10086 1 2.22489 95.5374 0.337768
9661 1 3.37784 93.5476 1.96585
10082 1 4.5234 95.5385 1.14986
9665 1 5.67634 93.5488 0.340212
9670 1 7.97484 93.55 1.15209
10089 1 6.8219 95.5396 1.96179
9667 1 10.2733 93.5512 1.96382
10092 1 9.1204 95.5408 0.335898
10088 1 11.4189 95.5419 1.14751
9671 1 12.5718 93.5524 0.337717
10095 1 13.7174 95.5431 1.95896
9676 1 14.8703 93.5536 1.14913
10098 1 16.0159 95.5443 0.33256
9673 1 17.1688 93.5549 1.96037
9677 1 19.4673 93.5562 0.333768
10094 1 18.3144 95.5456 1.14366
9682 1 21.7658 93.5576 1.14466
10101 1 20.6129 95.5469 1.95457
9679 1 24.0642 93.559 1.95537
10100 1 25.2099 95.5495 1.13816
10104 1 22.9114 95.5482 0.327632
9683 1 26.3627 93.5604 0.328216
10107 1 27.5084 95.551 1.94849
9685 1 30.9597 93.5634 1.94864
9688 1 28.6612 93.5619 1.13853
10110 1 29.8069 95.5524 0.320925
9689 1 33.2582 93.565 0.320849
10106 1 32.1054 95.5539 1.13081
9694 1 35.5567 93.5666 1.1305
10113 1 34.4039 95.5555 1.94045
10116 1 36.7025 95.5571 0.31218
10084 1 1.07214 97.5272 1.1475
10081 1 3.37065 97.5282 1.95966
10085 1 5.66915 97.5293 0.333984
10090 1 7.96765 97.5304 1.14581
10087 1 10.2662 97.5315 1.95748
10091 1 12.5646 97.5326 0.331299
10096 1 14.8631 97.5338 1.14262
10093 1 17.1616 97.535 1.95375
10097 1 19.4602 97.5362 0.327032
10102 1 21.7587 97.5374 1.13779
10099 1 24.0572 97.5387 1.94835
10103 1 26.3557 97.54 0.321022
10105 1 30.9528 97.5429 1.94105
10108 1 28.6542 97.5414 1.13115
10109 1 33.2513 97.5443 0.313034
10114 1 35.5499 97.5459 1.12244
10506 1 2.2181 99.518 0.331937
10502 1 4.5166 99.519 1.144
10509 1 6.8151 99.5201 1.95589
10512 1 9.11361 99.5211 0.329945
10508 1 11.4121 99.5222 1.14149
10515 1 13.7106 99.5233 1.95286
10518 1 16.0091 99.5244 0.326372
10514 1 18.3076 99.5255 1.13737
10521 1 20.6062 99.5267 1.94816
10520 1 25.2032 99.5292 1.13147
10524 1 22.9047 99.5279 0.321086
10527 1 27.5018 99.5305 1.94162
10530 1 29.8004 99.5318 0.313881
10526 1 32.099 99.5332 1.12356
10533 1 34.3976 99.5346 1.93299
10536 1 36.6962 99.5361 0.304478
10504 1 1.06576 101.508 1.14203
10926 1 2.21212 103.499 0.326817
10501 1 3.36426 101.509 1.95417
10922 1 4.51062 103.5 1.13885
10505 1 5.66276 101.51 0.328461
10510 1 7.96126 101.511 1.14025
10929 1 6.80912 103.5 1.95071
10507 1 10.2598 101.512 1.95186
10932 1 9.10763 103.501 0.324718
10928 1 11.4061 103.502 1.13621
10511 1 12.5583 101.513 0.325611
10935 1 13.7047 103.503 1.94751
10516 1 14.8568 101.514 1.13685
10938 1 16.0032 103.504 0.320945
10513 1 17.1553 101.515 1.9479
10517 1 19.4539 101.516 0.321072
10934 1 18.3017 103.505 1.13185
10522 1 21.7524 101.517 1.13171
10941 1 20.6003 103.506 1.94255
10519 1 24.051 101.518 1.94214
10940 1 25.1975 103.509 1.12561
10944 1 22.8989 103.508 0.315355
10523 1 26.3495 101.52 0.314669
10947 1 27.4961 103.51 1.93563
10525 1 30.9467 101.522 1.93436
10528 1 28.6481 101.521 1.12464
10950 1 29.7947 103.511 0.307728
10529 1 33.2454 101.523 0.30615
10946 1 32.0934 103.512 1.11724
10534 1 35.5441 101.525 1.11534
10953 1 34.3921 103.514 1.92648
10956 1 36.6908 103.515 0.297762
10924 1 1.06019 105.489 1.13728
10921 1 3.35869 105.489 1.9494
10925 1 5.65719 105.49 0.323664
10930 1 7.9557 105.491 1.13541
10927 1 10.2542 105.492 1.94697
10931 1 12.5527 105.493 0.320674
10936 1 14.8513 105.494 1.13185
10933 1 17.1498 105.495 1.94282
10937 1 19.4484 105.496 0.315906
10942 1 21.747 105.497 1.12645
10939 1 24.0456 105.498 1.93676
10943 1 26.3442 105.499 0.309172
10945 1 30.9416 105.501 1.92858
10948 1 28.6429 105.5 1.119
10949 1 33.2403 105.502 0.300204
10954 1 35.539 105.504 1.10922
11344 1 1.05547 109.469 1.13326
11346 1 2.20697 107.479 0.322422
11341 1 3.35397 109.47 1.94536
11342 1 4.50547 107.48 1.13444
11345 1 5.65247 109.471 0.319602
11349 1 6.80398 107.481 1.94627
11350 1 7.95099 109.471 1.13132
11347 1 10.2495 109.472 1.94284
11352 1 9.1025 107.482 0.320234
11348 1 11.401 107.483 1.13168
11351 1 12.5481 109.473 0.316498
11355 1 13.6996 107.483 1.94292
11356 1 14.8466 109.474 1.12762
11358 1 15.9981 107.484 0.316294
11353 1 17.1452 109.475 1.93852
11354 1 18.2967 107.485 1.12712
11357 1 19.4438 109.475 0.311541
11361 1 20.5953 107.486 1.93774
11362 1 21.7424 109.476 1.122
11359 1 24.0411 109.477 1.93223
11360 1 25.1925 107.488 1.1206
11364 1 22.8939 107.487 0.310451
11363 1 26.3397 109.478 0.304535
11367 1 27.4912 107.489 1.9305
11365 1 30.9372 109.48 1.9237
11368 1 28.6384 109.479 1.11425
11370 1 29.7899 107.49 0.302471
11366 1 32.0887 107.491 1.11184
11369 1 33.236 109.481 0.295196
11373 1 34.3874 107.492 1.92092
11374 1 35.5349 109.482 1.10406
11376 1 36.6863 107.493 0.292034
11766 1 2.20268 111.46 0.31876
11762 1 4.50118 111.461 1.13076
11769 1 6.79969 111.461 1.94256
11772 1 9.09821 111.462 0.316499
11768 1 11.3968 111.463 1.1279
11775 1 13.6953 111.463 1.9391
11778 1 15.9939 111.464 0.312424
11774 1 18.2925 111.465 1.12319
11781 1 20.5911 111.466 1.93374
11780 1 25.1885 111.467 1.11644
11784 1 22.8898 111.466 0.306376
11787 1 27.4872 111.468 1.92624
11790 1 29.7859 111.469 0.298109
11786 1 32.0848 111.47 1.10736
11793 1 34.3836 111.471 1.91632
11796 1 36.6825 111.472 0.287286
11764 1 1.0516 113.45 1.12997
11761 1 3.3501 113.451 1.94206
11765 1 5.6486 113.451 0.316283
11770 1 7.94713 113.452 1.12798
11767 1 10.2457 113.452 1.93947
11771 1 12.5442 113.453 0.313085
11776 1 14.8428 113.454 1.12416
11773 1 17.1414 113.454 1.93502
11777 1 19.44 113.455 0.307979
11782 1 21.7387 113.456 1.11838
11779 1 24.0374 113.456 1.92853
11783 1 26.3361 113.457 0.300755
11785 1 30.9337 113.459 1.91973
11788 1 28.6349 113.458 1.11038
11789 1 33.2326 113.46 0.291118
11794 1 35.5315 113.46 1.09986
12184 1 1.04859 117.431 1.12742
12186 1 2.19924 115.441 0.315835
12181 1 3.34709 117.431 1.9395
12182 1 4.49774 115.441 1.12782
12185 1 5.6456 117.432 0.313704
12189 1 6.79625 115.442 1.9396
12190 1 7.94412 117.432 1.12538
12187 1 10.2427 117.432 1.93685
12192 1 9.09479 115.442 0.313515
12188 1 11.3933 115.443 1.12489
12191 1 12.5412 117.433 0.310437
12195 1 13.6919 115.443 1.93606
12196 1 14.8398 117.433 1.12148
12198 1 15.9905 115.444 0.309334
12193 1 17.1385 117.434 1.9323
12194 1 18.2891 115.444 1.12006
12197 1 19.4371 117.434 0.305215
12201 1 20.5878 115.445 1.93055
12202 1 21.7358 117.435 1.11556
12199 1 24.0345 117.436 1.92566
12200 1 25.1852 115.446 1.11312
12204 1 22.8865 115.446 0.303126
12203 1 26.3333 117.436 0.297826
12207 1 27.484 115.447 1.92285
12205 1 30.931 117.437 1.91666
12208 1 28.6321 117.437 1.10739
12210 1 29.7828 115.448 0.294633