ITEM: TIMESTEP
9
ITEM: NUMBER OF ATOMS
27300
ITEM: BOX BOUNDS pp pp pp
0.0000000000000000e+00 4.8957481418280298e+02
0.0000000000000000e+00 2.6246642570283802e+02
0.0000000000000000e+00 2.4727262214770001e+00
ITEM: ATOMS id type x y z
4 1 1.16565 2.01897 1.64848
1 1 3.49696 2.01897 2.47273
5 1 5.82827 2.01897 0.824242
10 1 8.15958 2.01897 1.64848
7 1 10.4909 2.01897 2.47273
11 1 12.8222 2.01897 0.824242
16 1 15.1535 2.01897 1.64848
13 1 17.4848 2.01897 2.47273
17 1 19.8161 2.01897 0.824242
22 1 22.1474 2.01897 1.64848
19 1 24.4787 2.01897 3.01567e-15
23 1 26.81 2.01897 0.824242
28 1 29.1414 2.01897 1.64848
25 1 31.4727 2.01897 6.74886e-15
29 1 33.804 2.01897 0.824242
34 1 36.1353 2.01897 1.64848
424 1 1.16565 6.05692 1.64848
426 1 2.33131 4.03795 0.824242
421 1 3.49696 6.05692 2.47273
422 1 4.66262 4.03795 1.64848
425 1 5.82827 6.05692 0.824242
429 1 6.99393 4.03795 4.29121e-15
430 1 8.15958 6.05692 1.64848
432 1 9.32523 4.03795 0.824242
427 1 10.4909 6.05692 2.47273
428 1 11.6565 4.03795 1.64848
431 1 12.8222 6.05692 0.824242
435 1 13.9879 4.03795 2.47273
436 1 15.1535 6.05692 1.64848
438 1 16.3192 4.03795 0.824242
433 1 17.4848 6.05692 2.47273
434 1 18.6505 4.03795 1.64848
437 1 19.8161 6.05692 0.824242
441 1 20.9818 4.03795 2.47273
442 1 22.1474 6.05692 1.64848
444 1 23.3131 4.03795 0.824242
439 1 24.4787 6.05692 3.23455e-15
440 1 25.6444 4.03795 1.64848
443 1 26.81 6.05692 0.824242
447 1 27.9757 4.03795 7.60005e-16
448 1 29.1414 6.05692 1.64848
450 1 30.307 4.03795 0.824242
445 1 31.4727 6.05692 7.41703e-15
446 1 32.6383 4.03795 1.64848
449 1 33.804 6.05692 0.824242
453 1 34.9696 4.03795 2.47273
454 1 36.1353 6.05692 1.64848
456 1 37.3009 4.03795 0.824242
846 1 2.33131 8.07589 0.824242
842 1 4.66262 8.07589 1.64848
849 1 6.99393 8.07589 4.24968e-15
852 1 9.32523 8.07589 0.824242
848 1 11.6565 8.07589 1.64848
855 1 13.9879 8.07589 2.47273
858 1 16.3192 8.07589 0.824242
854 1 18.6505 8.07589 1.64848
861 1 20.9818 8.07589 2.47273
864 1 23.3131 8.07589 0.824242
860 1 25.6444 8.07589 1.64848
867 1 27.9757 8.07589 7.85027e-16
870 1 30.307 8.07589 0.824242
866 1 32.6383 8.07589 1.64848
873 1 34.9696 8.07589 2.47273
876 1 37.3009 8.07589 0.824242
844 1 1.16565 10.0949 1.64848
1266 1 2.33131 12.1138 0.824242
841 1 3.49696 10.0949 2.47273
845 1 5.82827 10.0949 0.824242
1262 1 4.66262 12.1138 1.64848
850 1 8.15958 10.0949 1.64848
1269 1 6.99393 12.1138 4.23569e-15
1272 1 9.32523 12.1138 0.824242
847 1 10.4909 10.0949 2.47273
851 1 12.8222 10.0949 0.824242
1268 1 11.6565 12.1138 1.64848
856 1 15.1535 10.0949 1.64848
1275 1 13.9879 12.1138 2.47273
1278 1 16.3192 12.1138 0.824242
853 1 17.4848 10.0949 2.47273
857 1 19.8161 10.0949 0.824242
1274 1 18.6505 12.1138 1.64848
862 1 22.1474 10.0949 1.64848
1281 1 20.9818 12.1138 2.47273
1284 1 23.3131 12.1138 0.824242
859 1 24.4787 10.0949 3.20888e-15
863 1 26.81 10.0949 0.824242
1280 1 25.6444 12.1138 1.64848
868 1 29.1414 10.0949 1.64848
1287 1 27.9757 12.1138 7.00955e-16
1290 1 30.307 12.1138 0.824242
865 1 31.4727 10.0949 7.47704e-15
869 1 33.804 10.0949 0.824242
1286 1 32.6383 12.1138 1.64848
874 1 36.1353 10.0949 1.64848
1293 1 34.9696 12.1138 2.47273
1296 1 37.3009 12.1138 0.824242
1264 1 1.16565 14.1328 1.64848
1686 1 2.33131 16.1518 0.824242
1261 1 3.49696 14.1328 2.47273
1265 1 5.82827 14.1328 0.824242
1682 1 4.66262 16.1518 1.64848
1270 1 8.15958 14.1328 1.64848
1689 1 6.99393 16.1518 4.16643e-15
1692 1 9.32523 16.1518 0.824242
1267 1 10.4909 14.1328 2.47273
1271 1 12.8222 14.1328 0.824242
1688 1 11.6565 16.1518 1.64848
1276 1 15.1535 14.1328 1.64848
1695 1 13.9879 16.1518 2.47273
1698 1 16.3192 16.1518 0.824242
1273 1 17.4848 14.1328 2.47273
1277 1 19.8161 14.1328 0.824242
1694 1 18.6505 16.1518 1.64848
1282 1 22.1474 14.1328 1.64848
1701 1 20.9818 16.1518 2.47273
1704 1 23.3131 16.1518 0.824242
1279 1 24.4787 14.1328 3.28529e-15
1283 1 26.81 14.1328 0.824242
1700 1 25.6444 16.1518 1.64848
1288 1 29.1414 14.1328 1.64848
1707 1 27.9757 16.1518 7.03725e-16
1710 1 30.307 16.1518 0.824242
1285 1 31.4727 14.1328 7.22405e-15
1289 1 33.804 14.1328 0.824242
1706 1 32.6383 16.1518 1.64848
1294 1 36.1353 14.1328 1.64848
1713 1 34.9696 16.1518 2.47273
1716 1 37.3009 16.1518 0.824242
1684 1 1.16565 18.1708 1.64848
1681 1 3.49696 18.1708 2.47273
1685 1 5.82827 18.1708 0.824242
1690 1 8.15958 18.1708 1.64848
1687 1 10.4909 18.1708 2.47273
1691 1 12.8222 18.1708 0.824242
1696 1 15.1535 18.1708 1.64848
1693 1 17.4848 18.1708 2.47273
1697 1 19.8161 18.1708 0.824242
1702 1 22.1474 18.1708 1.64848
1699 1 24.4787 18.1708 3.35728e-15
1703 1 26.81 18.1708 0.824242
1708 1 29.1414 18.1708 1.64848
1705 1 31.4727 18.1708 7.64974e-15
1709 1 33.804 18.1708 0.824242
1714 1 36.1353 18.1708 1.64848
2104 1 1.16565 22.2087 1.64848
2106 1 2.33131 20.1897 0.824242
2101 1 3.49696 22.2087 2.47273
2102 1 4.66262 20.1897 1.64848
2105 1 5.82827 22.2087 0.824242
2109 1 6.99393 20.1897 4.17295e-15
2110 1 8.15958 22.2087 1.64848
2112 1 9.32523 20.1897 0.824242
2107 1 10.4909 22.2087 2.47273
2108 1 11.6565 20.1897 1.64848
2111 1 12.8222 22.2087 0.824242
2115 1 13.9879 20.1897 2.47273
2116 1 15.1535 22.2087 1.64848
2118 1 16.3192 20.1897 0.824242
2113 1 17.4848 22.2087 2.47273
2114 1 18.6505 20.1897 1.64848
2117 1 19.8161 22.2087 0.824242
2121 1 20.9818 20.1897 2.47273
2122 1 22.1474 22.2087 1.64848
2124 1 23.3131 20.1897 0.824242
2119 1 24.4787 22.2087 3.16507e-15
2120 1 25.6444 20.1897 1.64848
2123 1 26.81 22.2087 0.824242
2127 1 27.9757 20.1897 6.05672e-16
2128 1 29.1414 22.2087 1.64848
2130 1 30.307 20.1897 0.824242
2125 1 31.4727 22.2087 7.51067e-15
2126 1 32.6383 20.1897 1.64848
2129 1 33.804 22.2087 0.824242
2133 1 34.9696 20.1897 2.47273
2134 1 36.1353 22.2087 1.64848
2136 1 37.3009 20.1897 0.824242
2526 1 2.33131 24.2277 0.824242
2524 1 1.16565 26.2466 1.64848
2522 1 4.66262 24.2277 1.64848
2521 1 3.49696 26.2466 2.47273
2525 1 5.82827 26.2466 0.824242
2529 1 6.99393 24.2277 4.09847e-15
2532 1 9.32523 24.2277 0.824242
2530 1 8.15958 26.2466 1.64848
2528 1 11.6565 24.2277 1.64848
2527 1 10.4909 26.2466 2.47273
2531 1 12.8222 26.2466 0.824242
2535 1 13.9879 24.2277 2.47273
2538 1 16.3192 24.2277 0.824242
2536 1 15.1535 26.2466 1.64848
2534 1 18.6505 24.2277 1.64848
2533 1 17.4848 26.2466 2.47273
2537 1 19.8161 26.2466 0.824242
2541 1 20.9818 24.2277 2.47273
2544 1 23.3131 24.2277 0.824242
2542 1 22.1474 26.2466 1.64848
2540 1 25.6444 24.2277 1.64848
2539 1 24.4787 26.2466 3.51609e-15
2543 1 26.81 26.2466 0.824242
2547 1 27.9757 24.2277 5.82368e-16
2550 1 30.307 24.2277 0.824242
2548 1 29.1414 26.2466 1.64848
2546 1 32.6383 24.2277 1.64848
2545 1 31.4727 26.2466 7.45498e-15
2549 1 33.804 26.2466 0.824242
2553 1 34.9696 24.2277 2.47273
2556 1 37.3009 24.2277 0.824242
2554 1 36.1353 26.2466 1.64848
2946 1 2.33131 28.2656 0.824242
2942 1 4.66262 28.2656 1.64848
2949 1 6.99393 28.2656 4.02573e-15
2952 1 9.32523 28.2656 0.824242
2948 1 11.6565 28.2656 1.64848
2955 1 13.9879 28.2656 2.47273
2958 1 16.3192 28.2656 0.824242
2954 1 18.6505 28.2656 1.64848
2961 1 20.9818 28.2656 2.47273
2964 1 23.3131 28.2656 0.824242
2960 1 25.6444 28.2656 1.64848
2967 1 27.9757 28.2656 7.79069e-16
2970 1 30.307 28.2656 0.824242
2966 1 32.6383 28.2656 1.64848
2973 1 34.9696 28.2656 2.47273
2976 1 37.3009 28.2656 0.824242
2944 1 1.16565 30.2846 1.64848
3366 1 2.33131 32.3036 0.824242
2941 1 3.49696 30.2846 2.47273
2945 1 5.82827 30.2846 0.824242
3362 1 4.66262 32.3036 1.64848
2950 1 8.15958 30.2846 1.64848
3369 1 6.99393 32.3036 4.13391e-15
3372 1 9.32523 32.3036 0.824242
2947 1 10.4909 30.2846 2.47273
2951 1 12.8222 30.2846 0.824242
3368 1 11.6565 32.3036 1.64848
2956 1 15.1535 30.2846 1.64848
3375 1 13.9879 32.3036 2.47273
3378 1 16.3192 32.3036 0.824242
2953 1 17.4848 30.2846 2.47273
2957 1 19.8161 30.2846 0.824242
3374 1 18.6505 32.3036 1.64848
2962 1 22.1474 30.2846 1.64848
3381 1 20.9818 32.3036 2.47273
3384 1 23.3131 32.3036 0.824242
2959 1 24.4787 30.2846 3.33772e-15
2963 1 26.81 30.2846 0.824242
3380 1 25.6444 32.3036 1.64848
2968 1 29.1414 30.2846 1.64848
3387 1 27.9757 32.3036 5.89588e-16
3390 1 30.307 32.3036 0.824242
2965 1 31.4727 30.2846 7.46141e-15
2969 1 33.804 30.2846 0.824242
3386 1 32.6383 32.3036 1.64848
2974 1 36.1353 30.2846 1.64848
3393 1 34.9696 32.3036 2.47273
3396 1 37.3009 32.3036 0.824242
3364 1 1.16565 34.3225 1.64848
3361 1 3.49696 34.3225 2.47273
3365 1 5.82827 34.3225 0.824242
3370 1 8.15958 34.3225 1.64848
3367 1 10.4909 34.3225 2.47273
3371 1 12.8222 34.3225 0.824242
3376 1 15.1535 34.3225 1.64848
3373 1 17.4848 34.3225 2.47273
3377 1 19.8161 34.3225 0.824242
3382 1 22.1474 34.3225 1.64848
3379 1 24.4787 34.3225 3.23296e-15
3383 1 26.81 34.3225 0.824242
3388 1 29.1414 34.3225 1.64848
3385 1 31.4727 34.3225 7.38578e-15
3389 1 33.804 34.3225 0.824242
3394 1 36.1353 34.3225 1.64848
3784 1 1.16565 38.3605 1.64848
3786 1 2.33131 36.3415 0.824242
3781 1 3.49696 38.3605 2.47273
3782 1 4.66262 36.3415 1.64848
3785 1 5.82827 38.3605 0.824242
3789 1 6.99393 36.3415 4.19729e-15
3790 1 8.15958 38.3605 1.64848
3792 1 9.32523 36.3415 0.824242
3787 1 10.4909 38.3605 2.47273
3788 1 11.6565 36.3415 1.64848
3791 1 12.8222 38.3605 0.824242
3795 1 13.9879 36.3415 2.47273
3796 1 15.1535 38.3605 1.64848
3798 1 16.3192 36.3415 0.824242
3793 1 17.4848 38.3605 2.47273
3794 1 18.6505 36.3415 1.64848
3797 1 19.8161 38.3605 0.824242
3801 1 20.9818 36.3415 2.47273
3802 1 22.1474 38.3605 1.64848
3804 1 23.3131 36.3415 0.824242
3799 1 24.4787 38.3605 3.01894e-15
3800 1 25.6444 36.3415 1.64848
3803 1 26.81 38.3605 0.824242
3807 1 27.9757 36.3415 7.3395e-16
3808 1 29.1414 38.3605 1.64848
3810 1 30.307 36.3415 0.824242
3805 1 31.4727 38.3605 6.98836e-15
3806 1 32.6383 36.3415 1.64848
3809 1 33.804 38.3605 0.824242
3813 1 34.9696 36.3415 2.47273
3814 1 36.1353 38.3605 1.64848
3816 1 37.3009 36.3415 0.824242
4204 1 1.16565 42.3984 1.64848
4206 1 2.33131 40.3795 0.824242
4201 1 3.49696 42.3984 2.47273
4202 1 4.66262 40.3795 1.64848
4205 1 5.82827 42.3984 0.824242
4209 1 6.99393 40.3795 4.24511e-15
4210 1 8.15958 42.3984 1.64848
4212 1 9.32523 40.3795 0.824242
4207 1 10.4909 42.3984 2.47273
4208 1 11.6565 40.3795 1.64848
4211 1 12.8222 42.3984 0.824242
4215 1 13.9879 40.3795 2.47273
4216 1 15.1535 42.3984 1.64848
4218 1 16.3192 40.3795 0.824242
4213 1 17.4848 42.3984 2.47273
4214 1 18.6505 40.3795 1.64848
4217 1 19.8161 42.3984 0.824242
4221 1 20.9818 40.3795 2.47273
4222 1 22.1474 42.3984 1.64848
4224 1 23.3131 40.3795 0.824242
4219 1 24.4787 42.3984 3.77603e-15
4220 1 25.6444 40.3795 1.64848
4223 1 26.81 42.3984 0.824242
4227 1 27.9757 40.3795 5.08763e-16
4228 1 29.1414 42.3984 1.64848
4230 1 30.307 40.3795 0.824242
4225 1 31.4727 42.3984 7.78321e-15
4226 1 32.6383 40.3795 1.64848
4229 1 33.804 42.3984 0.824242
4233 1 34.9696 40.3795 2.47273
4234 1 36.1353 42.3984 1.64848
4236 1 37.3009 40.3795 0.824242
4626 1 2.33131 44.4174 0.824242
4622 1 4.66262 44.4174 1.64848
4629 1 6.99393 44.4174 4.36917e-15
4632 1 9.32523 44.4174 0.824242
4628 1 11.6565 44.4174 1.64848
4635 1 13.9879 44.4174 2.47273
4638 1 16.3192 44.4174 0.824242
4634 1 18.6505 44.4174 1.64848
4641 1 20.9818 44.4174 2.47273
4644 1 23.3131 44.4174 0.824242
4640 1 25.6444 44.4174 1.64848
4647 1 27.9757 44.4174 4.81968e-16
4650 1 30.307 44.4174 0.824242
4646 1 32.6383 44.4174 1.64848
4653 1 34.9696 44.4174 2.47273
4656 1 37.3009 44.4174 0.824242
4624 1 1.16565 46.4364 1.64848
5046 1 2.33131 48.4553 0.824242
4621 1 3.49696 46.4364 2.47273
4625 1 5.82827 46.4364 0.824242
5042 1 4.66262 48.4553 1.64848
4630 1 8.15958 46.4364 1.64848
5049 1 6.99393 48.4553 4.1302e-15
5052 1 9.32523 48.4553 0.824242
4627 1 10.4909 46.4364 2.47273
4631 1 12.8222 46.4364 0.824242
5048 1 11.6565 48.4553 1.64848
4636 1 15.1535 46.4364 1.64848
5055 1 13.9879 48.4553 2.47273
5058 1 16.3192 48.4553 0.824242
4633 1 17.4848 46.4364 2.47273
4637 1 19.8161 46.4364 0.824242
5054 1 18.6505 48.4553 1.64848
4642 1 22.1474 46.4364 1.64848
5061 1 20.9818 48.4553 2.47273
5064 1 23.3131 48.4553 0.824242
4639 1 24.4787 46.4364 3.26689e-15
4643 1 26.81 46.4364 0.824242
5060 1 25.6444 48.4553 1.64848
4648 1 29.1414 46.4364 1.64848
5067 1 27.9757 48.4553 5.47319e-16
5070 1 30.307 48.4553 0.824242
4645 1 31.4727 46.4364 7.47681e-15
4649 1 33.804 46.4364 0.824242
5066 1 32.6383 48.4553 1.64848
4654 1 36.1353 46.4364 1.64848
5073 1 34.9696 48.4553 2.47273
5076 1 37.3009 48.4553 0.824242
5044 1 1.16565 50.4743 1.64848
5466 1 2.33131 52.4933 0.824242
5041 1 3.49696 50.4743 2.47273
5045 1 5.82827 50.4743 0.824242
5462 1 4.66262 52.4933 1.64848
5050 1 8.15958 50.4743 1.64848
5469 1 6.99393 52.4933 4.38862e-15
5472 1 9.32523 52.4933 0.824242
5047 1 10.4909 50.4743 2.47273
5051 1 12.8222 50.4743 0.824242
5468 1 11.6565 52.4933 1.64848
5056 1 15.1535 50.4743 1.64848
5475 1 13.9879 52.4933 2.47273
5478 1 16.3192 52.4933 0.824242
5053 1 17.4848 50.4743 2.47273
5057 1 19.8161 50.4743 0.824242
5474 1 18.6505 52.4933 1.64848
5062 1 22.1474 50.4743 1.64848
5481 1 20.9818 52.4933 2.47273
5484 1 23.3131 52.4933 0.824242
5059 1 24.4787 50.4743 3.38784e-15
5063 1 26.81 50.4743 0.824242
5480 1 25.6444 52.4933 1.64848
5068 1 29.1414 50.4743 1.64848
5487 1 27.9757 52.4933 7.7231e-16
5490 1 30.307 52.4933 0.824242
5065 1 31.4727 50.4743 7.7882e-15
5069 1 33.804 50.4743 0.824242
5486 1 32.6383 52.4933 1.64848
5074 1 36.1353 50.4743 1.64848
5493 1 34.9696 52.4933 2.47273
5496 1 37.3009 52.4933 0.824242
5464 1 1.16565 54.5123 1.64848
5461 1 3.49696 54.5123 2.47273
5465 1 5.82827 54.5123 0.824242
5470 1 8.15958 54.5123 1.64848
5467 1 10.4909 54.5123 2.47273
5471 1 12.8222 54.5123 0.824242
5476 1 15.1535 54.5123 1.64848
5473 1 17.4848 54.5123 2.47273
5477 1 19.8161 54.5123 0.824242
5482 1 22.1474 54.5123 1.64848
5479 1 24.4787 54.5123 3.26968e-15
5483 1 26.81 54.5123 0.824242
5488 1 29.1414 54.5123 1.64848
5485 1 31.4727 54.5123 7.12703e-15
5489 1 33.804 54.5123 0.824242
5494 1 36.1353 54.5123 1.64848
5884 1 1.16565 58.5502 1.64848
5886 1 2.33131 56.5312 0.824242
5881 1 3.49696 58.5502 2.47273
5882 1 4.66262 56.5312 1.64848
5885 1 5.82827 58.5502 0.824242
5889 1 6.99393 56.5312 4.2112e-15
5890 1 8.15958 58.5502 1.64848
5892 1 9.32523 56.5312 0.824242
5887 1 10.4909 58.5502 2.47273
5888 1 11.6565 56.5312 1.64848
5891 1 12.8222 58.5502 0.824242
5895 1 13.9879 56.5312 2.47273
5896 1 15.1535 58.5502 1.64848
5898 1 16.3192 56.5312 0.824242
5893 1 17.4848 58.5502 2.47273
5894 1 18.6505 56.5312 1.64848
5897 1 19.8161 58.5502 0.824242
5901 1 20.9818 56.5312 2.47273
5902 1 22.1474 58.5502 1.64848
5904 1 23.3131 56.5312 0.824242
5899 1 24.4787 58.5502 3.32524e-15
5900 1 25.6444 56.5312 1.64848
5903 1 26.81 58.5502 0.824242
5907 1 27.9757 56.5312 7.31963e-16
5908 1 29.1414 58.5502 1.64848
5910 1 30.307 56.5312 0.824242
5905 1 31.4727 58.5502 7.16391e-15
5906 1 32.6383 56.5312 1.64848
5909 1 33.804 58.5502 0.824242
5913 1 34.9696 56.5312 2.47273
5914 1 36.1353 58.5502 1.64848
5916 1 37.3009 56.5312 0.824242
6306 1 2.33131 60.5692 0.824242
6302 1 4.66262 60.5692 1.64848
6309 1 6.99393 60.5692 4.1151e-15
6312 1 9.32523 60.5692 0.824242
6308 1 11.6565 60.5692 1.64848
6315 1 13.9879 60.5692 2.47273
6318 1 16.3192 60.5692 0.824242
6314 1 18.6505 60.5692 1.64848
6321 1 20.9818 60.5692 2.47273
6324 1 23.3131 60.5692 0.824242
6320 1 25.6444 60.5692 1.64848
6327 1 27.9757 60.5692 5.77259e-16
6330 1 30.307 60.5692 0.824242
6326 1 32.6383 60.5692 1.64848
6333 1 34.9696 60.5692 2.47273
6336 1 37.3009 60.5692 0.824242
6726 1 2.33131 64.6071 0.824242
6304 1 1.16565 62.5881 1.64848
6722 1 4.66262 64.6071 1.64848
6305 1 5.82827 62.5881 0.824242
6301 1 3.49696 62.5881 2.47273
6732 1 9.32523 64.6071 0.824242
6729 1 6.99393 64.6071 4.24423e-15
6310 1 8.15958 62.5881 1.64848
6728 1 11.6565 64.6071 1.64848
6311 1 12.8222 62.5881 0.824242
6307 1 10.4909 62.5881 2.47273
6738 1 16.3192 64.6071 0.824242
6735 1 13.9879 64.6071 2.47273
6316 1 15.1535 62.5881 1.64848
6313 1 17.4848 62.5881 2.47273
6317 1 19.8161 62.5881 0.824242
6734 1 18.6505 64.6071 1.64848
6744 1 23.3131 64.6071 0.824242
6741 1 20.9818 64.6071 2.47273
6322 1 22.1474 62.5881 1.64848
6740 1 25.6444 64.6071 1.64848
6323 1 26.81 62.5881 0.824242
6319 1 24.4787 62.5881 3.3386e-15
6750 1 30.307 64.6071 0.824242
6747 1 27.9757 64.6071 6.84928e-16
6328 1 29.1414 62.5881 1.64848
6746 1 32.6383 64.6071 1.64848
6329 1 33.804 62.5881 0.824242
6325 1 31.4727 62.5881 7.26339e-15
6756 1 37.3009 64.6071 0.824242
6753 1 34.9696 64.6071 2.47273
6334 1 36.1353 62.5881 1.64848
6724 1 1.16565 66.6261 1.64848
7146 1 2.33131 68.6451 0.824242
6721 1 3.49696 66.6261 2.47273
6725 1 5.82827 66.6261 0.824242
7142 1 4.66262 68.6451 1.64848
6730 1 8.15958 66.6261 1.64848
7149 1 6.99393 68.6451 4.18406e-15
7152 1 9.32523 68.6451 0.824242
6727 1 10.4909 66.6261 2.47273
6731 1 12.8222 66.6261 0.824242
7148 1 11.6565 68.6451 1.64848
6736 1 15.1535 66.6261 1.64848
7155 1 13.9879 68.6451 2.47273
7158 1 16.3192 68.6451 0.824242
6733 1 17.4848 66.6261 2.47273
6737 1 19.8161 66.6261 0.824242
7154 1 18.6505 68.6451 1.64848
6742 1 22.1474 66.6261 1.64848
7161 1 20.9818 68.6451 2.47273
7164 1 23.3131 68.6451 0.824242
6739 1 24.4787 66.6261 3.22646e-15
6743 1 26.81 66.6261 0.824242
7160 1 25.6444 68.6451 1.64848
6748 1 29.1414 66.6261 1.64848
7167 1 27.9757 68.6451 7.53196e-16
7170 1 30.307 68.6451 0.824242
6745 1 31.4727 66.6261 7.3442e-15
6749 1 33.804 66.6261 0.824242
7166 1 32.6383 68.6451 1.64848
6754 1 36.1353 66.6261 1.64848
7173 1 34.9696 68.6451 2.47273
7176 1 37.3009 68.6451 0.824242
7144 1 1.16565 70.664 1.64848
7141 1 3.49696 70.664 2.47273
7145 1 5.82827 70.664 0.824242
7150 1 8.15958 70.664 1.64848
7147 1 10.4909 70.664 2.47273
7151 1 12.8222 70.664 0.824242
7156 1 15.1535 70.664 1.64848
7153 1 17.4848 70.664 2.47273
7157 1 19.8161 70.664 0.824242
7162 1 22.1474 70.664 1.64848
7159 1 24.4787 70.664 3.28728e-15
7163 1 26.81 70.664 0.824242
7168 1 29.1414 70.664 1.64848
7165 1 31.4727 70.664 7.38627e-15
7169 1 33.804 70.664 0.824242
7174 1 36.1353 70.664 1.64848
7564 1 1.16565 74.702 1.64848
7566 1 2.33131 72.683 0.824242
7561 1 3.49696 74.702 2.47273
7562 1 4.66262 72.683 1.64848
7565 1 5.82827 74.702 0.824242
7569 1 6.99393 72.683 4.14528e-15
7570 1 8.15958 74.702 1.64848
7572 1 9.32523 72.683 0.824242
7567 1 10.4909 74.702 2.47273
7568 1 11.6565 72.683 1.64848
7571 1 12.8222 74.702 0.824242
7575 1 13.9879 72.683 2.47273
7576 1 15.1535 74.702 1.64848
7578 1 16.3192 72.683 0.824242
7573 1 17.4848 74.702 2.47273
7574 1 18.6505 72.683 1.64848
7577 1 19.8161 74.702 0.824242
7581 1 20.9818 72.683 2.47273
7582 1 22.1474 74.702 1.64848
7584 1 23.3131 72.683 0.824242
7579 1 24.4787 74.702 3.30814e-15
7580 1 25.6444 72.683 1.64848
7583 1 26.81 74.702 0.824242
7587 1 27.9757 72.683 7.96272e-16
7588 1 29.1414 74.702 1.64848
7590 1 30.307 72.683 0.824242
7585 1 31.4727 74.702 7.34591e-15
7586 1 32.6383 72.683 1.64848
7589 1 33.804 74.702 0.824242
7593 1 34.9696 72.683 2.47273
7594 1 36.1353 74.702 1.64848
7596 1 37.3009 72.683 0.824242
7984 1 1.16565 78.7399 1.64848
7986 1 2.33131 76.721 0.824242
7981 1 3.49696 78.7399 2.47273
7982 1 4.66262 76.721 1.64848
7985 1 5.82827 78.7399 0.824242
7989 1 6.99393 76.721 4.18657e-15
7990 1 8.15958 78.7399 1.64848
7992 1 9.32523 76.721 0.824242
7987 1 10.4909 78.7399 2.47273
7988 1 11.6565 76.721 1.64848
7991 1 12.8222 78.7399 0.824242
7995 1 13.9879 76.721 2.47273
7996 1 15.1535 78.7399 1.64848
7998 1 16.3192 76.721 0.824242
7993 1 17.4848 78.7399 2.47273
7994 1 18.6505 76.721 1.64848
7997 1 19.8161 78.7399 0.824242
8001 1 20.9818 76.721 2.47273
8002 1 22.1474 78.7399 1.64848
8004 1 23.3131 76.721 0.824242
7999 1 24.4787 78.7399 3.17917e-15
8000 1 25.6444 76.721 1.64848
8003 1 26.81 78.7399 0.824242
8007 1 27.9757 76.721 8.06404e-16
8008 1 29.1414 78.7399 1.64848
8010 1 30.307 76.721 0.824242
8005 1 31.4727 78.7399 7.38488e-15
8006 1 32.6383 76.721 1.64848
8009 1 33.804 78.7399 0.824242
8013 1 34.9696 76.721 2.47273
8014 1 36.1353 78.7399 1.64848
8016 1 37.3009 76.721 0.824242
8406 1 2.33131 80.7589 0.824242
8402 1 4.66262 80.7589 1.64848
8409 1 6.99393 80.7589 4.18077e-15
8412 1 9.32523 80.7589 0.824242
8408 1 11.6565 80.7589 1.64848
8415 1 13.9879 80.7589 2.47273
8418 1 16.3192 80.7589 0.824242
8414 1 18.6505 80.7589 1.64848
8421 1 20.9818 80.7589 2.47273
8424 1 23.3131 80.7589 0.824242
8420 1 25.6444 80.7589 1.64848
8427 1 27.9757 80.7589 7.51217e-16
8430 1 30.307 80.7589 0.824242
8426 1 32.6383 80.7589 1.64848
8433 1 34.9696 80.7589 2.47273
8436 1 37.3009 80.7589 0.824242
8404 1 1.16565 82.7779 1.64848
8826 1 2.33131 84.7968 0.824242
8401 1 3.49696 82.7779 2.47273
8405 1 5.82827 82.7779 0.824242
8822 1 4.66262 84.7968 1.64848
8410 1 8.15958 82.7779 1.64848
8829 1 6.99393 84.7968 4.11161e-15
8832 1 9.32523 84.7968 0.824242
8407 1 10.4909 82.7779 2.47273
8411 1 12.8222 82.7779 0.824242
8828 1 11.6565 84.7968 1.64848
8416 1 15.1535 82.7779 1.64848
8835 1 13.9879 84.7968 2.47273
8838 1 16.3192 84.7968 0.824242
8413 1 17.4848 82.7779 2.47273
8417 1 19.8161 82.7779 0.824242
8834 1 18.6505 84.7968 1.64848
8422 1 22.1474 82.7779 1.64848
8841 1 20.9818 84.7968 2.47273
8844 1 23.3131 84.7968 0.824242
8419 1 24.4787 82.7779 3.25926e-15
8423 1 26.81 82.7779 0.824242
8840 1 25.6444 84.7968 1.64848
8428 1 29.1414 82.7779 1.64848
8847 1 27.9757 84.7968 5.33909e-16
8850 1 30.307 84.7968 0.824242
8425 1 31.4727 82.7779 7.32717e-15
8429 1 33.804 82.7779 0.824242
8846 1 32.6383 84.7968 1.64848
8434 1 36.1353 82.7779 1.64848
8853 1 34.9696 84.7968 2.47273
8856 1 37.3009 84.7968 0.824242
8824 1 1.16565 86.8158 1.64848
8821 1 3.49696 86.8158 2.47273
8825 1 5.82827 86.8158 0.824242
8830 1 8.15958 86.8158 1.64848
8827 1 10.4909 86.8158 2.47273
8831 1 12.8222 86.8158 0.824242
8836 1 15.1535 86.8158 1.64848
8833 1 17.4848 86.8158 2.47273
8837 1 19.8161 86.8158 0.824242
8842 1 22.1474 86.8158 1.64848
8839 1 24.4787 86.8158 3.53037e-15
8843 1 26.81 86.8158 0.824242
8848 1 29.1414 86.8158 1.64848
8845 1 31.4727 86.8158 7.16523e-15
8849 1 33.804 86.8158 0.824242
8854 1 36.1353 86.8158 1.64848
9244 1 1.16565 90.8538 1.64848
9246 1 2.33131 88.8348 0.824242
9241 1 3.49696 90.8538 2.47273
9242 1 4.66262 88.8348 1.64848
9245 1 5.82827 90.8538 0.824242
9249 1 6.99393 88.8348 4.31901e-15
9250 1 8.15958 90.8538 1.64848
9252 1 9.32523 88.8348 0.824242
9247 1 10.4909 90.8538 2.47273
9248 1 11.6565 88.8348 1.64848
9251 1 12.8222 90.8538 0.824242
9255 1 13.9879 88.8348 2.47273
9256 1 15.1535 90.8538 1.64848
9258 1 16.3192 88.8348 0.824242
9253 1 17.4848 90.8538 2.47273
9254 1 18.6505 88.8348 1.64848
9257 1 19.8161 90.8538 0.824242
9261 1 20.9818 88.8348 2.47273
9262 1 22.1474 90.8538 1.64848
9264 1 23.3131 88.8348 0.824242
9259 1 24.4787 90.8538 3.12491e-15
9260 1 25.6444 88.8348 1.64848
9263 1 26.81 90.8538 0.824242
9267 1 27.9757 88.8348 2.18361e-15
9268 1 29.1414 90.8538 1.64848
9270 1 30.307 88.8348 0.824242
9265 1 31.4727 90.8538 6.06077e-15
9266 1 32.6383 88.8348 1.64848
9269 1 33.804 90.8538 0.824242
9273 1 34.9696 88.8348 2.47273
9274 1 36.1353 90.8538 1.64848
9276 1 37.3009 88.8348 0.824242
9664 1 1.16565 94.8917 1.64848
9666 1 2.33131 92.8727 0.824242
9661 1 3.49696 94.8917 2.47273
9662 1 4.66262 92.8727 1.64848
9665 1 5.82827 94.8917 0.824242
9669 1 6.99393 92.8727 4.08295e-15
9670 1 8.15958 94.8917 1.64848
9672 1 9.32523 92.8727 0.824242
9667 1 10.4909 94.8917 2.47273
9668 1 11.6565 92.8727 1.64848
9671 1 12.8222 94.8917 0.824242
9675 1 13.9879 92.8727 2.47273
9676 1 15.1535 94.8917 1.64848
9678 1 16.3192 92.8727 0.824242
9673 1 17.4848 94.8917 2.47273
9674 1 18.6505 92.8727 1.64848
9677 1 19.8161 94.8917 0.824242
9681 1 20.9818 92.8727 2.47273
9682 1 22.1474 94.8917 1.64848
9684 1 23.3131 92.8727 0.824242
9679 1 24.4787 94.8917 3.98333e-15
9680 1 25.6444 92.8727 1.64848
9683 1 26.81 94.8917 0.824242
9687 1 27.9757 92.8727 2.47273
9688 1 29.1414 94.8917 1.64848
9690 1 30.307 92.8727 0.824242
9685 1 31.4727 94.8917 8.14721e-15
9686 1 32.6383 92.8727 1.64848
9689 1 33.804 94.8917 0.824242
9693 1 34.9696 92.8727 2.47273
9694 1 36.1353 94.8917 1.64848
9696 1 37.3009 92.8727 0.824242
10086 1 2.33131 96.9107 0.824242
10082 1 4.66262 96.9107 1.64848
10089 1 6.99393 96.9107 4.22774e-15
10092 1 9.32523 96.9107 0.824242
10088 1 11.6565 96.9107 1.64848
10095 1 13.9879 96.9107 2.47273
10098 1 16.3192 96.9107 0.824242
10094 1 18.6505 96.9107 1.64848
10101 1 20.9818 96.9107 2.47273
10104 1 23.3131 96.9107 0.824242
10100 1 25.6444 96.9107 1.64848
10107 1 27.9757 96.9107 7.38518e-16
10110 1 30.307 96.9107 0.824242
10106 1 32.6383 96.9107 1.64848
10113 1 34.9696 96.9107 2.47273
10116 1 37.3009 96.9107 0.824242
10084 1 1.16565 98.9297 1.64848
10506 1 2.33131 100.949 0.824242
10081 1 3.49696 98.9297 2.47273
10085 1 5.82827 98.9297 0.824242
10502 1 4.66262 100.949 1.64848
10090 1 8.15958 98.9297 1.64848
10509 1 6.99393 100.949 4.30602e-15
10512 1 9.32523 100.949 0.824242
10087 1 10.4909 98.9297 2.47273
10091 1 12.8222 98.9297 0.824242
10508 1 11.6565 100.949 1.64848
10096 1 15.1535 98.9297 1.64848
10515 1 13.9879 100.949 2.47273
10518 1 16.3192 100.949 0.824242
10093 1 17.4848 98.9297 2.47273
10097 1 19.8161 98.9297 0.824242
10514 1 18.6505 100.949 1.64848
10102 1 22.1474 98.9297 1.64848
10521 1 20.9818 100.949 2.47273
10524 1 23.3131 100.949 0.824242
10099 1 24.4787 98.9297 3.27633e-15
10103 1 26.81 98.9297 0.824242
10520 1 25.6444 100.949 1.64848
10108 1 29.1414 98.9297 1.64848
10527 1 27.9757 100.949 9.24335e-16
10530 1 30.307 100.949 0.824242
10105 1 31.4727 98.9297 7.21878e-15
10109 1 33.804 98.9297 0.824242
10526 1 32.6383 100.949 1.64848
10114 1 36.1353 98.9297 1.64848
10533 1 34.9696 100.949 2.47273
10536 1 37.3009 100.949 0.824242
10504 1 1.16565 102.968 1.64848
10926 1 2.33131 104.987 0.824242
10501 1 3.49696 102.968 2.47273
10505 1 5.82827 102.968 0.824242
10922 1 4.66262 104.987 1.64848
10510 1 8.15958 102.968 1.64848
10929 1 6.99393 104.987 4.42486e-15
10932 1 9.32523 104.987 0.824242
10507 1 10.4909 102.968 2.47273
10511 1 12.8222 102.968 0.824242
10928 1 11.6565 104.987 1.64848
10516 1 15.1535 102.968 1.64848
10935 1 13.9879 104.987 2.47273
10938 1 16.3192 104.987 0.824242
10513 1 17.4848 102.968 2.47273
10517 1 19.8161 102.968 0.824242
10934 1 18.6505 104.987 1.64848
10522 1 22.1474 102.968 1.64848
10941 1 20.9818 104.987 2.47273
10944 1 23.3131 104.987 0.824242
10519 1 24.4787 102.968 3.28241e-15
10523 1 26.81 102.968 0.824242
10940 1 25.6444 104.987 1.64848
10528 1 29.1414 102.968 1.64848
10947 1 27.9757 104.987 8.73855e-16
10950 1 30.307 104.987 0.824242
10525 1 31.4727 102.968 6.98802e-15
10529 1 33.804 102.968 0.824242
10946 1 32.6383 104.987 1.64848
10534 1 36.1353 102.968 1.64848
10953 1 34.9696 104.987 2.47273
10956 1 37.3009 104.987 0.824242
10924 1 1.16565 107.006 1.64848
10921 1 3.49696 107.006 2.47273
10925 1 5.82827 107.006 0.824242
10930 1 8.15958 107.006 1.64848
10927 1 10.4909 107.006 2.47273
10931 1 12.8222 107.006 0.824242
10936 1 15.1535 107.006 1.64848
10933 1 17.4848 107.006 2.47273
10937 1 19.8161 107.006 0.824242
10942 1 22.1474 107.006 1.64848
10939 1 24.4787 107.006 4.11828e-15
10943 1 26.81 107.006 0.824242
10948 1 29.1414 107.006 1.64848
10945 1 31.4727 107.006 6.77301e-15
10949 1 33.804 107.006 0.824242
10954 1 36.1353 107.006 1.64848
11344 1 1.16565 111.043 1.64848
11346 1 2.33131 109.025 0.824242
11341 1 3.49696 111.043 2.47273
11342 1 4.66262 109.025 1.64848
11345 1 5.82827 111.043 0.824242
11349 1 6.99393 109.025 4.37116e-15
11350 1 8.15958 111.043 1.64848
11352 1 9.32523 109.025 0.824242
11347 1 10.4909 111.043 2.47273
11348 1 11.6565 109.025 1.64848
11351 1 12.8222 111.043 0.824242
11355 1 13.9879 109.025 2.47273
11356 1 15.1535 111.043 1.64848
11358 1 16.3192 109.025 0.824242
11353 1 17.4848 111.043 2.47273
11354 1 18.6505 109.025 1.64848
11357 1 19.8161 111.043 0.824242
11361 1 20.9818 109.025 2.47273
11362 1 22.1474 111.043 1.64848
11364 1 23.3131 109.025 0.824242
11359 1 24.4787 111.043 3.05598e-15
11360 1 25.6444 109.025 1.64848
11363 1 26.81 111.043 0.824242
11367 1 27.9757 109.025 4.73905e-16
11368 1 29.1414 111.043 1.64848
11370 1 30.307 109.025 0.824242
11365 1 31.4727 111.043 7.00646e-15
11366 1 32.6383 109.025 1.64848
11369 1 33.804 111.043 0.824242
11373 1 34.9696 109.025 2.47273
11374 1 36.1353 111.043 1.64848
11376 1 37.3009 109.025 0.824242
11766 1 2.33131 113.062 0.824242
11762 1 4.66262 113.062 1.64848
11769 1 6.99393 113.062 4.15493e-15
11772 1 9.32523 113.062 0.824242
11768 1 11.6565 113.062 1.64848
11775 1 13.9879 113.062 2.47273
11778 1 16.3192 113.062 0.824242
11774 1 18.6505 113.062 1.64848
11781 1 20.9818 113.062 2.47273
11784 1 23.3131 113.062 0.824242
11780 1 25.6444 113.062 1.64848
11787 1 27.9757 113.062 5.55488e-16
11790 1 30.307 113.062 0.824242
11786 1 32.6383 113.062 1.64848
11793 1 34.9696 113.062 2.47273
11796 1 37.3009 113.062 0.824242
11764 1 1.16565 115.081 1.64848
12186 1 2.33131 117.1 0.824242
11761 1 3.49696 115.081 2.47273
11765 1 5.82827 115.081 0.824242
12182 1 4.66262 117.1 1.64848
11770 1 8.15958 115.081 1.64848
12189 1 6.99393 117.1 4.09882e-15
12192 1 9.32523 117.1 0.824242
11767 1 10.4909 115.081 2.47273
11771 1 12.8222 115.081 0.824242
12188 1 11.6565 117.1 1.64848
11776 1 15.1535 115.081 1.64848
12195 1 13.9879 117.1 2.47273
12198 1 16.3192 117.1 0.824242
11773 1 17.4848 115.081 2.47273
11777 1 19.8161 115.081 0.824242
12194 1 18.6505 117.1 1.64848
11782 1 22.1474 115.081 1.64848
12201 1 20.9818 117.1 2.47273
12204 1 23.3131 117.1 0.824242
11779 1 24.4787 115.081 2.92018e-15
11783 1 26.81 115.081 0.824242
12200 1 25.6444 117.1 1.64848
11788 1 29.1414 115.081 1.64848
12207 1 27.9757 117.1 7.35205e-16
12210 1 30.307 117.1 0.824242
11785 1 31.4727 115.081 7.37862e-15
11789 1 33.804 115.081 0.824242
12206 1 32.6383 117.1 1.64848
11794 1 36.1353 115.081 1.64848
12213 1 34.9696 117.1 2.47273
12216 1 37.3009 117.1 0.824242
12184 1 1.16565 119.119 1.64848
12606 1 2.33131 121.138 0.824242
12181 1 3.49696 119.119 2.47273
12185 1 5.82827 119.119 0.824242
12602 1 4.66262 121.138 1.64848
12190 1 8.15958 119.119 1.64848
12609 1 6.99393 121.138 3.03512e-15
12612 1 9.32523 121.138 0.824242
12187 1 10.4909 119.119 2.47273
12191 1 12.8222 119.119 0.824242
12608 1 11.6565 121.138 1.64848