ITEM: TIMESTEP
584
ITEM: NUMBER OF ATOMS
27300
ITEM: BOX BOUNDS pp pp pp
0.0000000000000000e+00 4.8957481418280298e+02
0.0000000000000000e+00 2.6246642570283802e+02
0.0000000000000000e+00 2.4727262214770001e+00
ITEM: ATOMS id type x y z
4 1 1.27126 2.019 1.32259
1 1 3.60265 2.01908 2.14682
5 1 5.93402 2.01916 0.498542
10 1 8.26536 2.01924 1.3232
7 1 10.5967 2.01932 2.14806
11 1 12.928 2.0194 0.500421
16 1 15.2592 2.01948 1.32573
13 1 17.5905 2.01957 2.15126
17 1 19.9217 2.01966 0.504303
22 1 22.2528 2.01975 1.33032
19 1 24.5839 2.01985 2.15659
23 1 26.915 2.01994 0.510396
28 1 29.246 2.02005 1.33721
25 1 31.577 2.02015 2.16432
29 1 33.9078 2.02026 0.519008
34 1 36.2386 2.02038 1.34675
423 1 0.105236 4.03791 2.14663
424 1 1.27039 6.05699 1.32185
426 1 2.43664 4.03807 0.49804
421 1 3.60178 6.05723 2.14609
422 1 4.76801 4.03823 1.32238
425 1 5.93315 6.05746 0.497805
429 1 7.09937 4.03839 2.14693
430 1 8.2645 6.0577 1.32246
432 1 9.4307 4.03855 0.498962
427 1 10.5958 6.05794 2.14732
428 1 11.762 4.03871 1.32394
431 1 12.9271 6.05819 0.499673
435 1 14.0933 4.03888 2.14913
436 1 15.2584 6.05844 1.32497
438 1 16.4245 4.03905 0.501817
433 1 17.5896 6.0587 2.1505
434 1 18.7558 4.03923 1.32746
437 1 19.9208 6.05897 0.503533
441 1 21.0869 4.03941 2.15335
442 1 22.252 6.05924 1.32954
444 1 23.4181 4.03959 0.506762
439 1 24.5831 6.05952 2.15579
440 1 25.7492 4.03979 1.33316
443 1 26.9142 6.05982 0.50959
447 1 28.0802 4.03999 2.15983
448 1 29.2452 6.06012 1.33639
450 1 30.4112 4.04019 0.514053
445 1 31.5762 6.06044 2.16348
446 1 32.7421 4.04041 1.34131
449 1 33.9071 6.06077 0.51815
453 1 35.073 4.04063 2.16887
454 1 36.2379 6.06111 1.34587
456 1 37.4037 4.04086 0.524049
843 1 0.10393 8.07583 2.14553
846 1 2.43533 8.07614 0.496937
842 1 4.76671 8.07646 1.32128
849 1 7.09807 8.07677 2.14582
852 1 9.42941 8.07709 0.49785
848 1 11.7607 8.07742 1.32282
855 1 14.092 8.07775 2.148
858 1 16.4233 8.07809 0.500679
854 1 18.7545 8.07843 1.32631
861 1 21.0857 8.07879 2.15219
864 1 23.4169 8.07916 0.505581
860 1 25.748 8.07954 1.33196
867 1 28.079 8.07994 2.1586
870 1 30.41 8.08035 0.512806
866 1 32.741 8.08078 1.34003
873 1 35.0719 8.08122 2.16757
876 1 37.4027 8.08168 0.522712
844 1 1.26865 10.095 1.32038
1263 1 0.101753 12.1137 2.14369
1266 1 2.43315 12.1142 0.495095
841 1 3.60004 10.0954 2.14462
845 1 5.93142 10.0958 0.496329
1262 1 4.76454 12.1147 1.31943
850 1 8.26277 10.0962 1.32098
1269 1 7.0959 12.1151 2.14397
1272 1 9.42725 12.1156 0.495993
847 1 10.5941 10.0966 2.14583
851 1 12.9254 10.097 0.498174
1268 1 11.7586 12.1161 1.32095
856 1 15.2567 10.0974 1.32346
1275 1 14.0899 12.1166 2.14612
1278 1 16.4212 12.1171 0.498779
853 1 17.5879 10.0978 2.14897
857 1 19.9192 10.0982 0.501988
1274 1 18.7524 12.1176 1.32439
862 1 22.2504 10.0987 1.32797
1281 1 21.0836 12.1181 2.15024
1284 1 23.4148 12.1187 0.503607
859 1 24.5815 10.0992 2.15421
863 1 26.9126 10.0996 0.507974
1280 1 25.746 12.1192 1.32995
868 1 29.2437 10.1002 1.33474
1287 1 28.077 12.1198 2.15656
1290 1 30.4081 12.1204 0.510724
865 1 31.5747 10.1007 2.1618
869 1 33.9056 10.1012 0.51643
1286 1 32.7391 12.1211 1.3379
874 1 36.2364 10.1018 1.34411
1293 1 35.07 12.1217 2.16539
1296 1 37.4009 12.1224 0.520476
1264 1 1.26604 14.133 1.31817
1686 1 2.43011 16.1523 0.492512
1683 1 0.098706 16.1517 2.1411
1261 1 3.59744 14.1335 2.1424
1265 1 5.92881 14.1341 0.494112
1682 1 4.7615 16.1529 1.31685
1270 1 8.26017 14.1346 1.31875
1689 1 7.09287 16.1535 2.14138
1692 1 9.42423 16.1541 0.493388
1267 1 10.5915 14.1351 2.1436
1271 1 12.9228 14.1357 0.495922
1688 1 11.7556 16.1547 1.31833
1276 1 15.2541 14.1363 1.32119
1695 1 14.0869 16.1554 2.14348
1698 1 16.4182 16.156 0.496112
1273 1 17.5854 14.1369 2.14668
1277 1 19.9167 14.1375 0.499666
1694 1 18.7495 16.1567 1.3217
1282 1 22.2479 14.1381 1.32562
1701 1 21.0807 16.1574 2.14751
1704 1 23.4119 16.1581 0.500835
1279 1 24.5791 14.1387 2.15181
1283 1 26.9102 14.1394 0.505542
1700 1 25.7431 16.1589 1.32713
1288 1 29.2413 14.1401 1.33226
1707 1 28.0743 16.1596 2.15369
1710 1 30.4053 16.1604 0.507797
1285 1 31.5723 14.1408 2.15927
1289 1 33.9033 14.1416 0.513842
1706 1 32.7364 16.1613 1.33491
1294 1 36.2342 14.1423 1.34145
1713 1 35.0674 16.1621 2.16233
1716 1 37.3983 16.163 0.517331
1684 1 1.26256 18.171 1.31521
1681 1 3.59396 18.1716 2.13945
1685 1 5.92534 18.1723 0.491151
1690 1 8.25671 18.173 1.31578
1687 1 10.5881 18.1737 2.14061
1691 1 12.9194 18.1744 0.492912
1696 1 15.2507 18.1751 1.31815
1693 1 17.582 18.1759 2.14361
1697 1 19.9133 18.1766 0.496559
1702 1 22.2446 18.1774 1.32247
1699 1 24.5758 18.1782 2.14861
1703 1 26.907 18.1791 0.502286
1708 1 29.2381 18.1799 1.32894
1705 1 31.5692 18.1809 2.15588
1709 1 33.9003 18.1818 0.510372
1714 1 36.2313 18.1828 1.3379
2104 1 1.25821 22.2089 1.31152
2106 1 2.42619 20.1903 0.489187
2103 1 0.0947899 20.1896 2.13778
2101 1 3.58961 22.2098 2.13575
2102 1 4.75759 20.1911 1.31352
2105 1 5.921 22.2106 0.487443
2109 1 7.08897 20.1918 2.13804
2110 1 8.25239 22.2114 1.31206
2112 1 9.42034 20.1926 0.490032
2107 1 10.5838 22.2122 2.13686
2108 1 11.7517 20.1934 1.31495
2111 1 12.9151 22.2131 0.48914
2115 1 14.083 20.1941 2.14007
2116 1 15.2465 22.2139 1.31435
2118 1 16.4144 20.1949 0.492674
2113 1 17.5778 22.2148 2.13976
2114 1 18.7457 20.1958 1.31822
2117 1 19.9091 22.2157 0.492663
2121 1 21.077 20.1966 2.14399
2122 1 22.2404 22.2167 1.31852
2124 1 23.4082 20.1975 0.497257
2119 1 24.5717 22.2176 2.1446
2120 1 25.7394 20.1984 1.3235
2123 1 26.9029 22.2186 0.498196
2127 1 28.0706 20.1993 2.14999
2128 1 29.2341 22.2197 1.32477
2130 1 30.4018 20.2003 0.504013
2125 1 31.5653 22.2207 2.15161
2126 1 32.7329 20.2013 1.33104
2129 1 33.8964 22.2219 0.506008
2133 1 35.064 20.2024 2.15836
2134 1 36.2275 22.223 1.33342
2136 1 37.395 20.2035 0.513263
2526 1 2.42142 24.2284 0.485118
2523 1 0.0900101 24.2275 2.13371
2522 1 4.75282 24.2292 1.30944
2529 1 7.08421 24.2301 2.13395
2532 1 9.41559 24.231 0.485924
2528 1 11.747 24.2319 1.31081
2535 1 14.0783 24.2328 2.1359
2538 1 16.4097 24.2338 0.488461
2534 1 18.741 24.2347 1.31395
2541 1 21.0724 24.2357 2.13966
2544 1 23.4037 24.2368 0.492867
2540 1 25.7349 24.2378 1.31903
2547 1 28.0662 24.2389 2.14543
2550 1 30.3974 24.24 0.499363
2546 1 32.7286 24.2412 1.32629
2553 1 35.0597 24.2424 2.15349
2556 1 37.3908 24.2437 0.508255
2524 1 1.253 26.2469 1.30708
2946 1 2.41579 28.2664 0.48031
2943 1 0.0843781 28.2654 2.1289
2521 1 3.58441 26.2479 2.13131
2525 1 5.91581 26.2488 0.482991
2942 1 4.74719 28.2674 1.30463
2530 1 8.2472 26.2497 1.30759
2949 1 7.0786 28.2684 2.12912
2952 1 9.41 28.2694 0.481067
2527 1 10.5786 26.2507 2.13237
2531 1 12.91 26.2517 0.484608
2948 1 11.7414 28.2704 1.30592
2536 1 15.2414 26.2526 1.30977
2955 1 14.0728 28.2715 2.13097
2958 1 16.4042 28.2725 0.483474
2533 1 17.5727 26.2537 2.13513
2537 1 19.9041 26.2547 0.487975
2954 1 18.7355 28.2736 1.3089
2542 1 22.2354 26.2558 1.31376
2961 1 21.0669 28.2747 2.13454
2964 1 23.3983 28.2759 0.48766
2539 1 24.5667 26.2569 2.13976
2543 1 26.898 26.258 0.493265
2960 1 25.7296 28.2771 1.31373
2548 1 29.2293 26.2592 1.31974
2967 1 28.0609 28.2783 2.14002
2970 1 30.3922 28.2796 0.493836
2545 1 31.5605 26.2605 2.14647
2549 1 33.8917 26.2617 0.500738
2966 1 32.7235 28.2809 1.32063
2554 1 36.2229 26.2631 1.32801
2973 1 35.0547 28.2823 2.14768
2976 1 37.3859 28.2837 0.502294
2944 1 1.24695 30.2849 1.3019
3366 1 2.40932 32.3044 0.474777
3363 1 0.077913 32.3034 2.12336
2941 1 3.57836 30.2859 2.12613
2945 1 5.90977 30.287 0.477802
3362 1 4.74074 32.3055 1.29908
2950 1 8.24118 30.288 1.30237
3369 1 7.07215 32.3066 2.12356
3372 1 9.40356 32.3077 0.475472
2947 1 10.5726 30.2891 2.12712
2951 1 12.904 30.2902 0.47932
3368 1 11.735 32.3089 1.30029
2956 1 15.2354 30.2913 1.30443
3375 1 14.0664 32.31 2.12528
3378 1 16.3978 32.3112 0.477718
2953 1 17.5668 30.2924 2.12973
2957 1 19.8982 30.2936 0.482494
3374 1 18.7292 32.3124 1.30307
2962 1 22.2296 30.2948 1.30819
3381 1 21.0606 32.3136 2.12862
3384 1 23.392 32.3149 0.481638
2959 1 24.5609 30.296 2.13409
2963 1 26.8923 30.2973 0.48749
3380 1 25.7234 32.3162 1.30759
2968 1 29.2236 30.2986 1.31384
3387 1 28.0548 32.3176 2.13376
3390 1 30.3861 32.319 0.48743
2965 1 31.5549 30.3 2.14043
2969 1 33.8862 30.3014 0.49455
3386 1 32.7175 32.3204 1.31406
2974 1 36.2175 30.3029 1.32166
3393 1 35.0488 32.3219 2.14095
3396 1 37.3801 32.3235 0.495366
3364 1 1.24008 34.3229 1.29602
3361 1 3.57149 34.324 2.12024
3365 1 5.90291 34.3251 0.471892
3370 1 8.23433 34.3263 1.29643
3367 1 10.5658 34.3275 2.12114
3371 1 12.8972 34.3286 0.473288
3376 1 15.2286 34.3298 1.29833
3373 1 17.56 34.3311 2.12355
3377 1 19.8915 34.3324 0.476229
3382 1 22.2229 34.3337 1.30182
3379 1 24.5543 34.335 2.12761
3383 1 26.8857 34.3364 0.480871
3388 1 29.2171 34.3378 1.30708
3385 1 31.5485 34.3393 2.1335
3389 1 33.8799 34.3409 0.48744
3394 1 36.2112 34.3425 1.31435
3784 1 1.23242 38.3608 1.28943
3786 1 2.40205 36.3424 0.468537
3783 1 0.0706419 36.3413 2.11712
3781 1 3.56384 38.3621 2.11365
3782 1 4.73347 36.3436 1.29283
3785 1 5.89526 38.3633 0.465284
3789 1 7.0649 36.3448 2.11728
3790 1 8.22669 38.3645 1.28979
3792 1 9.39632 36.346 0.469158
3787 1 10.5581 38.3658 2.11445
3788 1 11.7278 36.3472 1.29392
3791 1 12.8896 38.367 0.466536
3795 1 14.0592 36.3485 2.11885
3796 1 15.221 38.3683 1.2915
3798 1 16.3906 36.3497 0.471212
3793 1 17.5525 38.3696 2.11663
3794 1 18.7221 36.351 1.29647
3797 1 19.8839 38.371 0.469202
3801 1 21.0535 36.3524 2.12191
3802 1 22.2154 38.3724 1.29467
3804 1 23.3849 36.3537 0.474813
3799 1 24.5468 38.3738 2.12032
3800 1 25.7164 36.3552 1.30063
3803 1 26.8783 38.3753 0.473425
3807 1 28.0478 36.3566 2.12665
3808 1 29.2097 38.3769 1.29945
3810 1 30.3792 36.3582 0.480148
3805 1 31.5412 38.3785 2.12569
3806 1 32.7106 36.3597 1.30659
3809 1 33.8726 38.3801 0.479415
3813 1 35.042 36.3614 2.13327
3814 1 36.2041 38.3818 1.30609
3816 1 37.3734 36.363 0.487467
4204 1 1.22403 42.3988 1.2822
4206 1 2.39402 40.3804 0.461621
4203 1 0.0626062 40.3792 2.1102
4201 1 3.55545 42.4001 2.10641
4202 1 4.72544 40.3817 1.2859
4205 1 5.88687 42.4014 0.458017
4209 1 7.05687 40.383 2.11032
4210 1 8.21831 42.4027 1.28249
4212 1 9.38831 40.3842 0.462154
4207 1 10.5498 42.404 2.10709
4208 1 11.7198 40.3855 1.28686
4211 1 12.8812 42.4053 0.4591
4215 1 14.0512 40.3869 2.11171
4216 1 15.2127 42.4067 1.28398
4218 1 16.3827 40.3882 0.463981
4213 1 17.5441 42.4081 2.109
4214 1 18.7141 40.3896 1.28914
4217 1 19.8756 42.4095 0.461443
4221 1 21.0456 40.391 2.11445
4222 1 22.2071 42.411 1.28677
4224 1 23.3771 40.3925 0.46721
4219 1 24.5386 42.4125 2.11225
4220 1 25.7085 40.394 1.29287
4223 1 26.8701 42.4141 0.465178
4227 1 28.04 40.3955 2.1187
4228 1 29.2016 42.4157 1.29101
4230 1 30.3715 40.3971 0.472008
4225 1 31.5331 42.4174 2.11702
4226 1 32.703 40.3988 1.29824
4229 1 33.8646 42.4191 0.470495
4233 1 35.0344 40.4005 2.12467
4234 1 36.1961 42.4209 1.2969
4236 1 37.3659 40.4023 0.478606
4626 1 2.38528 44.4184 0.454076
4623 1 0.053863 44.4171 2.10266
4622 1 4.71671 44.4198 1.27834
4629 1 7.04814 44.4211 2.10272
4632 1 9.37959 44.4224 0.454506
4628 1 11.711 44.4238 1.27914
4635 1 14.0425 44.4252 2.1039
4638 1 16.374 44.4266 0.45607
4634 1 18.7055 44.428 1.2811
4641 1 21.0369 44.4295 2.10627
4644 1 23.3684 44.431 0.458865
4640 1 25.6999 44.4326 1.28434
4647 1 28.0314 44.4343 2.10997
4650 1 30.363 44.4359 0.463043
4646 1 32.6945 44.4377 1.28902
4653 1 35.026 44.4395 2.11518
4656 1 37.3575 44.4413 0.468809
4624 1 1.21496 46.4368 1.27436
5046 1 2.3759 48.4564 0.445965
5043 1 0.0444854 48.4551 2.09455
4621 1 3.54638 46.4381 2.09856
4625 1 5.87781 46.4394 0.450146
5042 1 4.70733 48.4578 1.27021
4630 1 8.20925 46.4408 1.27457
5049 1 7.03877 48.4592 2.09455
5052 1 9.37022 48.4606 0.446275
4627 1 10.5407 46.4422 2.0991
4631 1 12.8722 46.4436 0.451032
5048 1 11.7017 48.462 1.27083
4636 1 15.2036 46.445 1.27581
5055 1 14.0331 48.4634 2.09549
5058 1 16.3646 48.4649 0.447538
4633 1 17.5351 46.4465 2.1007
4637 1 19.8666 46.448 0.453005
5054 1 18.6961 48.4664 1.27243
4642 1 22.1981 46.4495 1.27816
5061 1 21.0276 48.4679 2.09744
5064 1 23.3591 48.4695 0.449841
4639 1 24.5296 46.4511 2.10346
4643 1 26.8611 46.4527 0.45618
5060 1 25.6906 48.4711 1.2751
4648 1 29.1926 46.4544 1.28177
5067 1 28.0221 48.4728 2.1005
5070 1 30.3537 48.4746 0.453312
4645 1 31.5242 46.4561 2.10753
4649 1 33.8557 46.4579 0.460723
5066 1 32.6852 48.4764 1.279
4654 1 36.1872 46.4598 1.28682
5073 1 35.0168 48.4782 2.10485
5076 1 37.3483 48.4801 0.458131
5463 1 0.0345644 52.493 2.08595
5044 1 1.20529 50.4747 1.266
5041 1 3.53672 50.4761 2.09019
5045 1 5.86815 50.4775 0.441739
5050 1 8.19959 50.4789 1.26611
5047 1 10.531 50.4803 2.09057
5051 1 12.8625 50.4818 0.442404
5056 1 15.194 50.4832 1.26706
5053 1 17.5255 50.4847 2.09182
5057 1 19.857 50.4863 0.443959
5062 1 22.1885 50.4879 1.26893
5059 1 24.52 50.4895 2.09402
5063 1 26.8515 50.4912 0.446502
5068 1 29.183 50.4929 1.27183
5065 1 31.5145 50.4947 2.0973
5069 1 33.8461 50.4965 0.450172
5074 1 36.1776 50.4985 1.27592
5464 1 1.19514 54.5126 1.2572
5466 1 2.36598 52.4944 0.437365
5461 1 3.52657 54.5141 2.08137
5462 1 4.69741 52.4958 1.26158
5465 1 5.858 54.5155 0.432884
5469 1 7.02885 52.4972 2.08588
5470 1 8.18944 54.5169 1.25719
5472 1 9.3603 52.4986 0.43754
5467 1 10.5209 54.5184 2.08158
5468 1 11.6918 52.5001 1.26201
5471 1 12.8523 54.5199 0.433304
5475 1 14.0232 52.5016 2.08656
5476 1 15.1838 54.5214 1.25783
5478 1 16.3547 52.5031 0.438468
5473 1 17.5153 54.5229 2.08244
5474 1 18.6862 52.5046 1.2632
5477 1 19.8468 54.5245 0.434397
5481 1 21.0177 52.5062 2.08802
5482 1 22.1783 54.5261 1.25917
5484 1 23.3492 52.5078 0.44022
5479 1 24.5098 54.5278 2.08402
5480 1 25.6807 52.5095 1.26525
5483 1 26.8413 54.5295 0.436241
5487 1 28.0122 52.5112 2.09038
5488 1 29.1728 54.5313 1.26128
5490 1 30.3437 52.513 0.442902
5485 1 31.5043 54.5331 2.08642
5486 1 32.6753 52.5148 1.26827
5489 1 33.8358 54.535 0.438945
5493 1 35.0068 52.5167 2.09376
5494 1 36.1674 54.5369 1.2643
5496 1 37.3384 52.5187 0.446659
5884 1 1.18461 58.5506 1.24805
5886 1 2.35563 56.5323 0.428373
5883 1 0.0242079 56.5309 2.07696
5881 1 3.51604 58.552 2.07221
5882 1 4.68705 56.5338 1.25257
5885 1 5.84747 58.5535 0.423686
5889 1 7.01849 56.5352 2.07682
5890 1 8.1789 58.5549 1.24793
5892 1 9.34993 56.5367 0.428398
5887 1 10.5103 58.5564 2.07222
5888 1 11.6814 56.5381 1.25277
5891 1 12.8418 58.5579 0.423839
5895 1 14.0128 56.5397 2.07719
5896 1 15.1732 58.5594 1.24823
5898 1 16.3443 56.5412 0.42896
5893 1 17.5047 58.561 2.07267
5894 1 18.6758 56.5428 1.25352
5897 1 19.8362 58.5626 0.424433
5901 1 21.0072 56.5444 2.07814
5902 1 22.1676 58.5643 1.24898
5904 1 23.3387 56.546 0.43011
5899 1 24.4991 58.5659 2.07358
5900 1 25.6702 56.5477 1.25488
5903 1 26.8306 58.5677 0.425522
5907 1 28.0017 56.5495 2.07973
5908 1 29.1621 58.5695 1.25025
5910 1 30.3332 56.5513 0.431928
5905 1 31.4936 58.5713 2.07504
5906 1 32.6647 56.5532 1.25694
5909 1 33.8251 58.5732 0.42718
5913 1 34.9963 56.5551 2.08205
5914 1 36.1566 58.5752 1.25212
5916 1 37.3278 56.5571 0.434522
6306 1 2.34496 60.5703 0.419098
6303 1 0.0135395 60.5688 2.06769
6302 1 4.67638 60.5717 1.24326
6309 1 7.00781 60.5732 2.06746
6312 1 9.33924 60.5747 0.418962
6308 1 11.6707 60.5762 1.24323
6315 1 14.0021 60.5777 2.06752
6318 1 16.3336 60.5792 0.419132
6314 1 18.665 60.5808 1.2435
6321 1 20.9965 60.5825 2.06791
6324 1 23.3279 60.5841 0.41964
6320 1 25.6594 60.5858 1.24414
6327 1 27.9909 60.5876 2.06868
6330 1 30.3223 60.5894 0.420536
6326 1 32.6538 60.5913 1.24517
6333 1 34.9853 60.5933 2.06986
6336 1 37.3168 60.5953 0.421882
6304 1 1.17384 62.5885 1.23869
6726 1 2.33411 64.6082 0.409663
6723 1 0.00269402 64.6068 2.05826
6722 1 4.66553 64.6097 1.2338
6305 1 5.83668 62.5914 0.414261
6301 1 3.50526 62.59 2.06283
6732 1 9.32838 64.6126 0.409357
6729 1 6.99695 64.6111 2.05794
6310 1 8.16811 62.5929 1.23844
6728 1 11.6598 64.6141 1.23351
6311 1 12.831 62.5959 0.414132
6307 1 10.4995 62.5944 2.06264
6738 1 16.3226 64.6172 0.409118
6735 1 13.9912 64.6157 2.05767
6316 1 15.1624 62.5975 1.23837
6734 1 18.6541 64.6188 1.2333
6317 1 19.8253 62.6006 0.4142
6313 1 17.4938 62.599 2.06264
6741 1 20.9855 64.6205 2.05749
6322 1 22.1567 62.6023 1.23851
6744 1 23.3169 64.6221 0.408959
6740 1 25.6483 64.6239 1.23317
6323 1 26.8196 62.6058 0.414493
6319 1 24.4882 62.604 2.06285
6750 1 30.3112 64.6275 0.408894
6747 1 27.9798 64.6256 2.05739
6328 1 29.1511 62.6076 1.23889
6746 1 32.6426 64.6294 1.23314
6329 1 33.814 62.6113 0.415047
6325 1 31.4825 62.6094 2.06332
6756 1 37.3055 64.6333 0.40894
6753 1 34.974 64.6313 2.0574
6334 1 36.1454 62.6133 1.23954
6724 1 1.16296 66.6265 1.22923
7146 1 2.32323 68.6461 0.400194
6721 1 3.49438 66.6279 2.05335
6725 1 5.82579 66.6294 0.404735
7142 1 4.65465 68.6476 1.2243
6730 1 8.15721 66.6308 1.22884
7149 1 6.98606 68.6491 2.04838
7152 1 9.31747 68.6505 0.399714
6727 1 10.4886 66.6323 2.05295
6731 1 12.82 66.6339 0.404315
7148 1 11.6489 68.652 1.22376
6736 1 15.1515 66.6354 1.22841
7155 1 13.9803 68.6536 2.04778
7158 1 16.3117 68.6551 0.399061
6733 1 17.4829 66.637 2.05249
6737 1 19.8143 66.6386 0.403844
7154 1 18.6431 68.6567 1.22305
6742 1 22.1457 66.6403 1.22792
7161 1 20.9745 68.6584 2.04701
7164 1 23.3059 68.66 0.398225
6739 1 24.4771 66.642 2.05198
6743 1 26.8085 66.6437 0.403319
7160 1 25.6372 68.6618 1.22214
6748 1 29.1399 66.6455 1.22737
7167 1 27.9686 68.6635 2.04604
7170 1 30.3 68.6654 0.397187
6745 1 31.4713 66.6474 2.05142
6749 1 33.8027 66.6493 0.402739
7166 1 32.6314 68.6673 1.22103
6754 1 36.1341 66.6513 1.22677
7173 1 34.9627 68.6692 2.04485
7176 1 37.2941 68.6712 0.395916
7144 1 1.15211 70.6644 1.2198
7141 1 3.48353 70.6658 2.0439
7145 1 5.81494 70.6673 0.39524
7150 1 8.14635 70.6688 1.21928
7147 1 10.4777 70.6702 2.04328
7151 1 12.8091 70.6717 0.394528
7156 1 15.1405 70.6733 1.21847
7153 1 17.4719 70.6749 2.04237
7157 1 19.8033 70.6765 0.393516
7162 1 22.1347 70.6781 1.21735
7159 1 24.466 70.6798 2.04115
7163 1 26.7974 70.6816 0.392175
7168 1 29.1288 70.6834 1.21589
7165 1 31.4601 70.6852 2.03956
7169 1 33.7915 70.6871 0.390461
7174 1 36.1228 70.6891 1.21404
7564 1 1.14144 74.7023 1.21053
7566 1 2.31246 72.6841 0.390821
7561 1 3.47286 74.7037 2.03461
7562 1 4.64387 72.6855 1.21489
7565 1 5.80426 74.7052 0.385904
7569 1 6.97527 72.687 2.03891
7570 1 8.13566 74.7066 1.20987
7572 1 9.30667 72.6884 0.390167
7567 1 10.467 74.7081 2.03378
7568 1 11.6381 72.6899 1.2141
7571 1 12.7984 74.7096 0.384906
7575 1 13.9694 72.6914 2.03799
7576 1 15.1298 74.7111 1.2087
7578 1 16.3008 72.693 0.389104
7573 1 17.4612 74.7127 2.03243
7574 1 18.6322 72.6946 1.2129
7577 1 19.7925 74.7143 0.383367
7581 1 20.9636 72.6962 2.03664
7582 1 22.1239 74.7159 1.20697
7584 1 23.2949 72.6979 0.387601
7579 1 24.4552 74.7176 2.0305
7580 1 25.6263 72.6996 1.21124
7583 1 26.7866 74.7193 0.381233
7587 1 27.9576 72.7013 2.03481
7588 1 29.1179 74.7211 1.20462
7590 1 30.289 72.7032 0.385604
7585 1 31.4492 74.7229 2.02792
7586 1 32.6203 72.705 1.20906
7589 1 33.7805 74.7248 0.378419
7593 1 34.9516 72.707 2.03245
7594 1 36.1118 74.7268 1.20155
7596 1 37.2829 72.7089 0.383039
7986 1 2.30193 76.722 0.38167
7982 1 4.63333 76.7234 1.20571
7989 1 6.96473 76.7248 2.02967
7992 1 9.29612 76.7263 0.380846
7988 1 11.6275 76.7278 1.20467
7995 1 13.9589 76.7292 2.02843
7998 1 16.2902 76.7308 0.379387
7994 1 18.6216 76.7323 1.20299
8001 1 20.9529 76.7339 2.02652
8004 1 23.2843 76.7356 0.377242
8000 1 25.6156 76.7373 1.2006
8007 1 27.9469 76.739 2.02388
8010 1 30.2782 76.7408 0.374328
8006 1 32.6095 76.7427 1.19741
8013 1 34.9408 76.7446 2.02038
8016 1 37.272 76.7465 0.370525
7984 1 1.13109 78.7402 1.20154
8406 1 2.29177 80.7599 0.372857
7981 1 3.4625 78.7416 2.0256
7985 1 5.7939 78.7431 0.376852
8402 1 4.62318 80.7613 1.19686
7990 1 8.12529 78.7445 1.20075
8409 1 6.95457 80.7627 2.02078
8412 1 9.28595 80.7641 0.371871
7987 1 10.4567 78.7459 2.02457
7991 1 12.788 78.7474 0.37558
8408 1 11.6173 80.7655 1.1956
7996 1 15.1194 78.7489 1.19923
8415 1 13.9487 80.767 2.01923
8418 1 16.28 80.7685 0.37004
7993 1 17.4508 78.7504 2.02279
7997 1 19.7821 78.752 0.37354
8414 1 18.6114 80.77 1.19347
8002 1 22.1134 78.7536 1.19692
8421 1 20.9427 80.7716 2.0168
8424 1 23.274 80.7732 0.367293
7999 1 24.4448 78.7552 2.0202
8003 1 26.7761 78.7569 0.370653
8420 1 25.6054 80.7748 1.1904
8008 1 29.1074 78.7587 1.19372
8427 1 27.9367 80.7765 2.01338
8430 1 30.2679 80.7783 0.36352
8005 1 31.4387 78.7605 2.01669
8009 1 33.7699 78.7624 0.366801
8426 1 32.5992 80.7801 1.18625
8014 1 36.1012 78.7643 1.18952
8433 1 34.9305 80.782 2.00884
8436 1 37.2617 80.7839 0.358565
8404 1 1.12117 82.7782 1.19294
8826 1 2.28211 84.7978 0.364485
8401 1 3.45257 82.7795 2.01698
8405 1 5.78397 82.7809 0.368194
8822 1 4.61351 84.7991 1.18846
8410 1 8.11536 82.7823 1.19203
8829 1 6.9449 84.8005 2.01232
8832 1 9.27628 84.8019 0.363349
8407 1 10.4467 82.7837 2.01576
8411 1 12.7781 82.7851 0.366666
8828 1 11.6077 84.8033 1.18698
8416 1 15.1095 82.7866 1.19019
8835 1 13.939 84.8047 2.0105
8838 1 16.2704 84.8061 0.361174
8413 1 17.4408 82.7881 2.01359
8417 1 19.7721 82.7896 0.36416
8834 1 18.6017 84.8076 1.18445
8422 1 22.1035 82.7911 1.18733
8841 1 20.933 84.8091 2.00759
8844 1 23.2644 84.8107 0.357876
8419 1 24.4348 82.7928 2.01038
8423 1 26.7661 82.7944 0.360577
8840 1 25.5957 84.8123 1.18075
8428 1 29.0974 82.7961 1.18336
8847 1 27.927 84.8139 2.00347
8850 1 30.2583 84.8157 0.353319
8425 1 31.4287 82.7979 2.006
8429 1 33.7599 82.7997 0.355768
8846 1 32.5896 84.8174 1.17573
8434 1 36.0912 82.8016 1.1781
8853 1 34.9208 84.8193 1.99798
8856 1 37.2521 84.8212 0.347315
8824 1 1.11179 86.8161 1.18483
8821 1 3.4432 86.8174 2.00885
8825 1 5.77459 86.8187 0.360027
8830 1 8.10598 86.8201 1.18381
8827 1 10.4374 86.8214 2.00746
8831 1 12.7687 86.8228 0.358265
8836 1 15.1001 86.8242 1.18166
8833 1 17.4314 86.8256 2.00493
8837 1 19.7628 86.8271 0.355336
8842 1 22.0941 86.8286 1.17832
8839 1 24.4254 86.8302 2.00116
8843 1 26.7568 86.8318 0.351122
8848 1 29.0881 86.8334 1.17365
8845 1 31.4194 86.8351 1.996
8849 1 33.7507 86.8369 0.345448
8854 1 36.082 86.8387 1.16744
9244 1 1.10305 90.854 1.17729
9246 1 2.27304 88.8357 0.356642
9241 1 3.43445 90.8553 2.00129
9242 1 4.60444 88.837 1.18059
9245 1 5.76585 90.8565 0.352431
9249 1 6.93583 88.8383 2.00441
9250 1 8.09724 90.8578 1.17616
9252 1 9.26722 88.8396 0.355369
9247 1 10.4286 90.8591 1.99974
9248 1 11.5986 88.8409 1.17892
9251 1 12.76 90.8604 0.350459
9255 1 13.93 88.8423 2.00234
9256 1 15.0914 90.8617 1.17375
9258 1 16.2613 88.8437 0.352885
9253 1 17.4227 90.8631 1.99689
9254 1 18.5927 88.8451 1.17601
9257 1 19.7541 90.8645 0.347153
9261 1 20.924 88.8465 1.99899
9262 1 22.0854 90.8659 1.16998
9264 1 23.2554 88.848 0.349091
9259 1 24.4168 90.8674 1.99263
9260 1 25.5867 88.8496 1.17175
9263 1 26.7481 90.869 0.342379
9267 1 27.918 88.8512 1.99424
9268 1 29.0795 90.8706 1.16467
9270 1 30.2493 88.8528 0.343832
9265 1 31.4108 90.8722 1.98677
9266 1 32.5806 88.8546 1.16596
9269 1 33.7422 90.8739 0.335938
9273 1 34.912 88.8563 1.98789
9274 1 36.0735 90.8756 1.15762
9276 1 37.2433 88.8581 0.336891
9664 1 1.09501 94.8919 1.17037
9666 1 2.26464 92.8736 0.349399
9661 1 3.42642 94.8931 1.99436
9662 1 4.59604 92.8748 1.17332
9665 1 5.75782 94.8943 0.345468
9669 1 6.92744 92.876 1.9971
9670 1 8.08922 94.8955 1.16915
9672 1 9.25883 92.8773 0.348003
9667 1 10.4206 94.8967 1.99267
9668 1 11.5902 92.8785 1.17148
9671 1 12.752 94.8979 0.343312
9675 1 13.9216 92.8798 1.99481
9676 1 15.0834 94.8992 1.16651
9678 1 16.253 92.8811 0.345245
9673 1 17.4148 94.9005 1.98955
9674 1 18.5843 92.8825 1.16825
9677 1 19.7461 94.9018 0.339677
9681 1 20.9157 92.8839 1.99108
9682 1 22.0775 94.9032 1.16235
9684 1 23.2471 92.8853 0.341015
9679 1 24.4089 94.9046 1.98484
9680 1 25.5784 92.8868 1.16349
9683 1 26.7403 94.906 0.334413
9687 1 27.9098 92.8883 1.98578
9688 1 29.0717 94.9075 1.1565
9690 1 30.2412 92.8898 0.335138
9685 1 31.4031 94.9091 1.97838
9686 1 32.5725 92.8915 1.15701
9689 1 33.7345 94.9107 0.327302
9693 1 34.9039 92.8931 1.97867
9694 1 36.0659 94.9123 1.14872
9696 1 37.2353 92.8949 0.327372
10086 1 2.25698 96.9115 0.342809
10082 1 4.58839 96.9126 1.16671
10089 1 6.91979 96.9137 1.99045
10092 1 9.25119 96.9149 0.341307
10088 1 11.5826 96.9161 1.16472
10095 1 13.914 96.9173 1.98797
10098 1 16.2454 96.9185 0.338311
10094 1 18.5768 96.9198 1.1612
10101 1 20.9082 96.9211 1.98391
10104 1 23.2396 96.9224 0.333702
10100 1 25.571 96.9238 1.15602
10107 1 27.9024 96.9252 1.97812
10110 1 30.2338 96.9267 0.327287
10106 1 32.5652 96.9282 1.14895
10113 1 34.8967 96.9298 1.97037
10116 1 37.2282 96.9314 0.318805
10084 1 1.08774 98.9299 1.16413
10506 1 2.25011 100.949 0.336913
10081 1 3.41915 98.9309 1.9881
10085 1 5.75055 98.932 0.339186
10502 1 4.58152 100.95 1.1608
10090 1 8.08196 98.9331 1.16283
10509 1 6.91293 100.951 1.98451
10512 1 9.24434 100.952 0.335318
10087 1 10.4134 98.9343 1.9863
10091 1 12.7448 98.9354 0.336871
10508 1 11.5758 100.954 1.15868
10096 1 15.0762 98.9366 1.15999
10515 1 13.9072 100.955 1.98185
10518 1 16.2386 100.956 0.332118
10093 1 17.4076 98.9378 1.98293
10097 1 19.739 98.939 0.332951
10514 1 18.57 100.957 1.15492
10102 1 22.0704 98.9402 1.1555
10521 1 20.9014 100.958 1.97752
10524 1 23.2329 100.959 0.327185
10099 1 24.4018 98.9415 1.97785
10103 1 26.7333 98.9429 0.327265
10520 1 25.5643 100.961 1.14936
10108 1 29.0647 98.9443 1.14918
10527 1 27.8958 100.962 1.97132
10530 1 30.2273 100.963 0.320311
10105 1 31.3962 98.9457 1.97086
10109 1 33.7277 98.9472 0.319576
10526 1 32.5588 100.965 1.14178
10114 1 36.0592 98.9487 1.14076
10533 1 34.8903 100.966 1.963
10536 1 37.2219 100.968 0.311215
10504 1 1.08127 102.968 1.15859
10501 1 3.41268 102.969 1.98256
10505 1 5.7441 102.97 0.333616
10510 1 8.07551 102.971 1.15722
10507 1 10.4069 102.972 1.98065
10511 1 12.7384 102.973 0.331165
10516 1 15.0698 102.974 1.15422
10513 1 17.4012 102.975 1.97707
10517 1 19.7327 102.976 0.327005
10522 1 22.0641 102.977 1.14945
10519 1 24.3956 102.978 1.97168
10523 1 26.7271 102.98 0.320961
10528 1 29.0586 102.981 1.14273
10525 1 31.3901 102.982 1.96425
10529 1 33.7217 102.984 0.31278
10534 1 36.0533 102.985 1.13377
10926 1 2.24406 104.987 0.331736
10924 1 1.07564 107.006 1.15378
10921 1 3.40705 107.007 1.97774
10922 1 4.57547 104.988 1.1556
10925 1 5.73847 107.007 0.328779
10929 1 6.90689 104.989 1.97929
10932 1 9.23831 104.99 0.330061
10930 1 8.0699 107.008 1.15236
10928 1 11.5697 104.991 1.15337
10927 1 10.4013 107.009 1.97575
10931 1 12.7328 107.01 0.326215
10935 1 13.9012 104.992 1.97649
10938 1 16.2326 104.993 0.326691
10936 1 15.0642 107.011 1.14921
10934 1 18.5641 104.994 1.14941
10933 1 17.3957 107.012 1.972
10937 1 19.7272 107.013 0.321854
10941 1 20.8956 104.995 1.97192
10944 1 23.227 104.996 0.321486
10942 1 22.0587 107.014 1.14421
10940 1 25.5586 104.997 1.14355
10939 1 24.3902 107.015 1.96634
10943 1 26.7218 107.016 0.315511
10947 1 27.8901 104.998 1.96537
10950 1 30.2216 105 0.314224
10948 1 29.0533 107.017 1.13715
10946 1 32.5532 105.001 1.13554
10945 1 31.3849 107.018 1.95854
10949 1 33.7166 107.02 0.306917
10953 1 34.8849 105.002 1.95658
10956 1 37.2165 105.004 0.304607
10954 1 36.0483 107.021 1.12774
11344 1 1.07086 111.044 1.14971
11346 1 2.23885 109.025 0.327291
11341 1 3.40228 111.044 1.97366
11342 1 4.57027 109.026 1.15115
11345 1 5.7337 111.045 0.324684
11349 1 6.9017 109.027 1.97481
11350 1 8.06514 111.046 1.14824
11352 1 9.23313 109.028 0.325553
11347 1 10.3966 111.047 1.9716
11348 1 11.5646 109.028 1.14883
11351 1 12.7281 111.047 0.322029
11355 1 13.896 109.029 1.9719
11356 1 15.0595 111.048 1.14498
11358 1 16.2275 109.03 0.322042
11353 1 17.391 111.049 1.96771
11354 1 18.559 109.031 1.1447
11357 1 19.7226 111.05 0.317505
11361 1 20.8905 109.032 1.96713
11362 1 22.0541 111.051 1.13979
11364 1 23.2221 109.033 0.316611
11359 1 24.3857 111.052 1.96184
11360 1 25.5536 109.034 1.13858
11363 1 26.7173 111.053 0.310916
11367 1 27.8852 109.035 1.9603
11368 1 29.0489 111.054 1.13246
11370 1 30.2168 109.036 0.309028
11365 1 31.3806 111.055 1.95373
11366 1 32.5485 109.037 1.13021
11369 1 33.7123 111.056 0.301983
11373 1 34.8802 109.038 1.95111
11374 1 36.0441 111.057 1.12266
11376 1 37.212 109.039 0.298977
11766 1 2.2345 113.063 0.323589
11762 1 4.56592 113.064 1.14743
11769 1 6.89736 113.064 1.97108
11772 1 9.22881 113.065 0.321798
11768 1 11.5603 113.066 1.14504
11775 1 13.8918 113.066 1.96808
11778 1 16.2233 113.067 0.318175
11774 1 18.5548 113.068 1.14078
11781 1 20.8863 113.069 1.96315
11784 1 23.2179 113.069 0.312562
11780 1 25.5495 113.07 1.13445
11787 1 27.8812 113.071 1.95608
11790 1 30.2129 113.072 0.304719
11786 1 32.5446 113.073 1.1258
11793 1 34.8764 113.074 1.94658
11796 1 37.2083 113.075 0.294314
11764 1 1.06695 115.082 1.14639
12186 1 2.23102 117.101 0.320632
11761 1 3.39836 115.082 1.97032
11765 1 5.72979 115.083 0.321337
12182 1 4.56245 117.101 1.14447
11770 1 8.06124 115.083 1.14488
12189 1 6.89389 117.102 1.9681
12192 1 9.22535 117.102 0.3188
11767 1 10.3927 115.084 1.96821
11771 1 12.7242 115.085 0.318609
12188 1 11.5568 117.103 1.14202
11776 1 15.0557 115.085 1.14152
12195 1 13.8883 117.104 1.96503
12198 1 16.2199 117.104 0.315087
11773 1 17.3872 115.086 1.96422
11777 1 19.7188 115.087 0.313955
12194 1 18.5514 117.105 1.13765
11782 1 22.0504 115.087 1.13619
12201 1 20.883 117.105 1.95998
12204 1 23.2146 117.106 0.309335
11779 1 24.382 115.088 1.95817
11783 1 26.7136 115.089 0.307173
12200 1 25.5463 117.107 1.13117
11788 1 29.0453 115.09 1.12863
12207 1 27.878 117.107 1.95273
12210 1 30.2097 117.108 0.301289
11785 1 31.3771 115.09 1.94981
11789 1 33.7089 115.091 0.297968
12206 1 32.5415 117.109 1.12228
11794 1 36.0407 115.092 1.11854
12213 1 34.8734 117.11 1.94297
12216 1 37.2053 117.11 0.290605
12184 1 1.0639 119.119 1.1438
12606 1 2.22841 121.139 0.318417
12181 1 3.39532 119.12 1.96774
12185 1 5.72675 119.12 0.318739
12602 1 4.55984 121.139 1.14225
12190 1 8.05821 119.121 1.14226
12609 1 6.89129 121.139 1.96587
12612 1 9.22276 121.14 0.316555
12187 1 10.3897 119.121 1.96558
12191 1 12.7212 119.122 0.315955
12608 1 11.5542 121.14 1.13976
12196 1 15.0527 119.122 1.13884