ITEM: TIMESTEP
0
ITEM: NUMBER OF ATOMS
18000
ITEM: BOX BOUNDS xy xz yz pp pp pp
-5.1639055150327830e-02 2.7945639055150313e+01 0.0000000000000000e+00
-5.0696072725316765e-01 3.3523496072725294e+02 0.0000000000000000e+00
-5.0265194555576480e-02 2.7944265194555562e+01 0.0000000000000000e+00
ITEM: ATOMS id type q mass x y z
1 2 2.2208 232.038 -0.0371144 19.0381 13.9349
2 2 2.2208 232.038 13.8529 13.4946 5.63705
3 2 2.2208 232.038 13.9328 24.6487 11.1475
4 3 -1.1104 15.9994 2.75328 10.6999 11.1419
5 2 2.2208 232.038 5.55083 24.6419 13.9408
6 2 2.2208 232.038 13.86 7.92738 5.63647
7 2 2.2208 232.038 13.9283 19.0511 11.1676
8 2 2.2208 232.038 5.55198 2.26755 2.6863
9 3 -1.1104 15.9994 11.1387 24.6753 5.46668
10 2 2.2208 232.038 11.5013 2.28305 2.69787
11 2 2.2208 232.038 8.34611 21.8445 13.9414
12 3 -1.1104 15.9994 2.73505 10.6425 5.32074
13 2 2.2208 232.038 2.71598 5.08831 2.70704
14 3 -1.1104 15.9994 11.1546 19.0794 5.41452
15 3 -1.1104 15.9994 2.67004 4.96927 11.0345
16 3 -1.1104 15.9994 11.1525 7.83869 5.39686
17 2 2.2208 232.038 8.39107 5.08627 2.72482
18 2 2.2208 232.038 5.55065 7.90129 2.75336
19 2 2.2208 232.038 13.8505 19.0755 5.6252
20 2 2.2208 232.038 11.5002 7.90546 2.74758
21 3 -1.1104 15.9994 8.36385 10.6563 5.34704
22 3 -1.1104 15.9994 5.54468 7.81708 5.31913
23 2 2.2208 232.038 2.71003 10.7001 2.76303
24 3 -1.1104 15.9994 2.72502 21.8606 5.43547
25 3 -1.1104 15.9994 8.34351 4.97936 5.37675
26 2 2.2208 232.038 2.76509 16.2521 13.9354
27 2 2.2208 232.038 8.38626 10.6962 2.75675
28 2 2.2208 232.038 5.5468 13.4936 2.76082
29 2 2.2208 232.038 2.75668 21.8439 13.9409
30 2 2.2208 232.038 11.4966 13.4932 2.75498
31 2 2.2208 232.038 5.54902 13.4686 13.93
32 3 -1.1104 15.9994 2.70144 4.9669 5.4062
33 2 2.2208 232.038 2.70924 16.3101 2.75928
34 3 -1.1104 15.9994 5.55268 19.0782 5.36912
35 2 2.2208 232.038 2.78634 5.15355 13.8982
36 3 -1.1104 15.9994 11.1018 2.19418 5.47128
37 2 2.2208 232.038 8.38449 16.2886 2.7553
38 2 2.2208 232.038 5.53973 19.1109 2.76099
39 4 2.2208 232.038 8.43132 2.34327 8.50237
40 2 2.2208 232.038 11.4904 19.1042 2.75431
41 2 2.2208 232.038 13.8433 24.6682 5.59248
42 3 -1.1104 15.9994 5.52798 2.19277 5.45611
43 2 2.2208 232.038 2.72193 22.1628 2.72935
44 2 2.2208 232.038 8.34166 10.7 13.9403
45 3 -1.1104 15.9994 8.33618 -0.501749 5.512
46 4 2.2208 232.038 2.67867 2.32854 8.51028
47 2 2.2208 232.038 8.36916 21.9222 2.74638
48 2 2.2208 232.038 5.30921 24.9828 2.88482
49 3 -1.1104 15.9994 5.55618 13.4748 5.34085
50 2 2.2208 232.038 11.4133 24.947 2.7602
51 2 2.2208 232.038 0.0650435 -0.35523 5.56823
52 2 2.2208 232.038 2.74997 2.38629 5.58931
53 2 2.2208 232.038 13.9219 13.4842 11.193
54 3 -1.1104 15.9994 8.36029 16.2792 5.36353
55 2 2.2208 232.038 5.56853 -0.372511 5.57813
56 2 2.2208 232.038 8.38581 2.39646 5.59077
57 2 2.2208 232.038 13.9054 7.91828 11.1873
58 2 2.2208 232.038 5.56203 2.57977 8.47739
59 2 2.2208 232.038 11.051 -0.356283 5.57034
60 2 2.2208 232.038 11.4404 2.57915 8.45263
61 2 2.2208 232.038 0.0530639 5.21136 5.59227
62 2 2.2208 232.038 2.7711 7.99794 5.92152
63 2 2.2208 232.038 2.94985 5.3921 8.49035
64 2 2.2208 232.038 -0.0432302 13.4809 13.8161
65 2 2.2208 232.038 5.58459 5.21715 5.88598
66 2 2.2208 232.038 8.34459 7.9642 5.92126
67 2 2.2208 232.038 8.38535 5.4038 8.5134
68 2 2.2208 232.038 5.57898 7.98601 8.51353
69 2 2.2208 232.038 11.0732 5.18539 5.86365
70 2 2.2208 232.038 11.167 7.94901 8.36409
71 2 2.2208 232.038 0.0505857 10.7556 5.90358
72 2 2.2208 232.038 2.74183 13.4918 5.94476
73 2 2.2208 232.038 2.78732 10.7352 8.5033
74 2 2.2208 232.038 2.76841 10.6994 13.8252
75 2 2.2208 232.038 5.54028 10.7191 5.9577
76 2 2.2208 232.038 8.34029 13.4961 5.92322
77 2 2.2208 232.038 8.33204 10.7124 8.3926
78 2 2.2208 232.038 5.54457 13.484 8.37974
79 2 2.2208 232.038 11.0526 10.7191 5.89189
80 2 2.2208 232.038 11.1516 13.4862 8.34689
81 2 2.2208 232.038 0.046447 16.2677 5.89318
82 2 2.2208 232.038 2.758 19.0746 5.8976
83 2 2.2208 232.038 2.76668 16.2648 8.3654
84 2 2.2208 232.038 -0.0500446 19.0387 8.33353
85 2 2.2208 232.038 5.54215 16.2803 5.92649
86 2 2.2208 232.038 8.34192 19.0754 5.9066
87 2 2.2208 232.038 8.33282 16.2697 8.36735
88 2 2.2208 232.038 5.54633 19.0613 8.34815
89 2 2.2208 232.038 11.0519 16.2835 5.8836
90 2 2.2208 232.038 11.1601 19.0656 8.32203
91 2 2.2208 232.038 0.161359 21.8104 5.76878
92 2 2.2208 232.038 2.74767 24.5715 5.62318
93 2 2.2208 232.038 2.76751 21.8629 8.33185
94 2 2.2208 232.038 0.0349015 24.7492 8.3272
95 2 2.2208 232.038 5.52592 21.8801 5.89402
96 2 2.2208 232.038 8.34418 24.5674 5.85974
97 2 2.2208 232.038 8.3369 21.8532 8.34797
98 2 2.2208 232.038 5.53552 24.6749 8.28741
99 2 2.2208 232.038 11.0552 21.8723 5.8635
100 2 2.2208 232.038 11.1606 24.6701 8.28162
101 2 2.2208 232.038 0.0550852 -0.368582 11.5125
102 2 2.2208 232.038 2.79175 2.41856 11.5373
103 2 2.2208 232.038 5.55886 -0.355744 11.5289
104 2 2.2208 232.038 8.33401 2.42948 11.5207
105 2 2.2208 232.038 11.045 -0.350617 11.4944
106 2 2.2208 232.038 0.0979936 5.21653 11.4953
107 2 2.2208 232.038 2.8041 8.00052 11.2145
108 2 2.2208 232.038 5.55947 5.25512 11.2602
109 2 2.2208 232.038 8.18819 7.83431 11.194
110 2 2.2208 232.038 11.0033 5.08012 11.2207
111 2 2.2208 232.038 0.123437 10.7257 11.1849
112 2 2.2208 232.038 2.64524 13.3341 11.1514
113 2 2.2208 232.038 5.40751 10.5729 11.1646
114 2 2.2208 232.038 8.32268 13.4589 11.1624
115 2 2.2208 232.038 11.1063 10.6921 11.18
116 2 2.2208 232.038 -0.0184144 16.1164 11.1509
117 2 2.2208 232.038 2.75018 19.0372 11.1383
118 2 2.2208 232.038 5.52997 16.2396 11.1466
119 2 2.2208 232.038 8.3411 19.0515 11.1424
120 2 2.2208 232.038 11.131 16.2592 11.1681
121 2 2.2208 232.038 -0.0231954 21.8405 11.1521
122 2 2.2208 232.038 2.76338 24.638 11.1395
123 2 2.2208 232.038 5.54912 21.8473 11.1335
124 2 2.2208 232.038 8.34485 24.638 11.1351
125 2 2.2208 232.038 11.1333 21.8506 11.1426
126 1 -1.1104 15.9994 1.30405 0.839371 1.63709
127 1 -1.1104 15.9994 4.13145 0.843261 1.63556
128 1 -1.1104 15.9994 1.34031 0.858356 3.90025
129 1 -1.1104 15.9994 4.12822 0.854249 3.89839
130 1 -1.1104 15.9994 1.30033 3.66954 1.62838
131 1 -1.1104 15.9994 4.13899 3.67426 1.62746
132 1 -1.1104 15.9994 1.31359 3.63659 3.88776
133 1 -1.1104 15.9994 4.13203 3.63031 3.89134
134 1 -1.1104 15.9994 6.96292 0.845343 1.63333
135 1 -1.1104 15.9994 9.78959 0.837735 1.62994
136 1 -1.1104 15.9994 6.95377 0.855107 3.89799
137 1 -1.1104 15.9994 9.74305 0.847975 3.8942
138 1 -1.1104 15.9994 6.95644 3.67481 1.62555
139 1 -1.1104 15.9994 9.79434 3.67273 1.62227
140 1 -1.1104 15.9994 6.94516 3.62624 3.88922
141 1 -1.1104 15.9994 9.76752 3.62807 3.88383
142 1 -1.1104 15.9994 12.6082 0.727257 1.48976
143 1 -1.1104 15.9994 12.5662 0.718373 4.02042
144 1 -1.1104 15.9994 12.6083 3.81279 1.48672
145 1 -1.1104 15.9994 12.5742 3.78597 4.0293
146 1 -1.1104 15.9994 1.31243 6.48551 1.6179
147 1 -1.1104 15.9994 4.13806 6.48133 1.61979
148 1 -1.1104 15.9994 1.31262 6.43595 3.88208
149 1 -1.1104 15.9994 4.12218 6.43741 3.88582
150 1 -1.1104 15.9994 1.30561 9.27307 1.61478
151 1 -1.1104 15.9994 4.13809 9.2762 1.61474
152 1 -1.1104 15.9994 1.29323 9.24765 3.88032
153 1 -1.1104 15.9994 4.13655 9.25987 3.87467
154 1 -1.1104 15.9994 6.9577 6.48082 1.61864
155 1 -1.1104 15.9994 9.78462 6.48133 1.61679
156 1 -1.1104 15.9994 6.96055 6.44575 3.88212
157 1 -1.1104 15.9994 9.77459 6.45369 3.89013
158 1 -1.1104 15.9994 6.95595 9.27588 1.61537
159 1 -1.1104 15.9994 9.78852 9.27403 1.614
160 1 -1.1104 15.9994 6.95986 9.26545 3.87855
161 1 -1.1104 15.9994 9.79487 9.26564 3.88095
162 1 -1.1104 15.9994 12.6079 6.3414 1.48247
163 1 -1.1104 15.9994 12.6034 6.32629 4.01675
164 1 -1.1104 15.9994 12.6056 9.41245 1.48226
165 1 -1.1104 15.9994 12.6075 9.4076 4.01451
166 1 -1.1104 15.9994 1.31227 12.0807 1.60918
167 1 -1.1104 15.9994 4.13778 12.0789 1.61237
168 1 -1.1104 15.9994 1.30441 12.0787 3.8761
169 1 -1.1104 15.9994 4.13866 12.0804 3.87661
170 1 -1.1104 15.9994 1.30927 14.8757 1.61014
171 1 -1.1104 15.9994 4.13796 14.8786 1.61298
172 1 -1.1104 15.9994 1.30407 14.8829 3.87775
173 1 -1.1104 15.9994 4.13882 14.8836 3.87757
174 1 -1.1104 15.9994 6.9561 12.0796 1.6135
175 1 -1.1104 15.9994 9.78368 12.0814 1.6116
176 1 -1.1104 15.9994 6.96288 12.0804 3.87794
177 1 -1.1104 15.9994 9.7907 12.082 3.88114
178 1 -1.1104 15.9994 6.9562 14.8785 1.61321
179 1 -1.1104 15.9994 9.78637 14.8765 1.61216
180 1 -1.1104 15.9994 6.9614 14.882 3.87804
181 1 -1.1104 15.9994 9.79198 14.8773 3.88142
182 1 -1.1104 15.9994 12.6056 11.9417 1.48137
183 1 -1.1104 15.9994 12.6106 11.9404 4.01395
184 1 -1.1104 15.9994 12.6049 15.0145 1.48164
185 1 -1.1104 15.9994 12.6096 15.0153 4.01325
186 1 -1.1104 15.9994 1.31506 17.6887 1.61189
187 1 -1.1104 15.9994 4.14019 17.6886 1.61126
188 1 -1.1104 15.9994 1.30695 17.7003 3.88344
189 1 -1.1104 15.9994 4.13807 17.6916 3.87974
190 1 -1.1104 15.9994 1.3166 20.4973 1.60815
191 1 -1.1104 15.9994 4.14368 20.5062 1.61133
192 1 -1.1104 15.9994 1.30534 20.5023 3.88571
193 1 -1.1104 15.9994 4.13135 20.5002 3.88213
194 1 -1.1104 15.9994 6.95567 17.6872 1.61307
195 1 -1.1104 15.9994 9.7837 17.6857 1.61109
196 1 -1.1104 15.9994 6.95873 17.6863 3.8797
197 1 -1.1104 15.9994 9.78881 17.6864 3.88227
198 1 -1.1104 15.9994 6.95345 20.4986 1.61039
199 1 -1.1104 15.9994 9.77982 20.4898 1.60881
200 1 -1.1104 15.9994 6.95883 20.4894 3.87929
201 1 -1.1104 15.9994 9.78746 20.4865 3.88061
202 1 -1.1104 15.9994 12.6036 17.5461 1.48125
203 1 -1.1104 15.9994 12.6078 17.5462 4.01414
204 1 -1.1104 15.9994 12.5988 20.6209 1.48171
205 1 -1.1104 15.9994 12.6036 20.6207 4.01351
206 1 -1.1104 15.9994 1.26317 23.2626 1.53808
207 1 -1.1104 15.9994 4.31286 23.3279 1.46311
208 1 -1.1104 15.9994 1.23942 23.2654 3.96455
209 1 -1.1104 15.9994 4.21155 23.252 3.94805
210 1 -1.1104 15.9994 6.88437 23.386 1.53113
211 1 -1.1104 15.9994 9.75588 23.3101 1.60382
212 1 -1.1104 15.9994 6.95707 23.3146 3.86323
213 1 -1.1104 15.9994 9.77007 23.3085 3.88502
214 1 -1.1104 15.9994 12.5901 23.1659 1.47589
215 1 -1.1104 15.9994 12.5977 23.166 4.01749
216 1 -1.1104 15.9994 1.34522 0.863427 7.17286
217 1 -1.1104 15.9994 4.1368 0.861382 7.15954
218 1 -1.1104 15.9994 1.31123 0.840894 9.44234
219 1 -1.1104 15.9994 4.12304 0.855662 9.44061
220 1 -1.1104 15.9994 1.31661 3.63991 7.14649
221 1 -1.1104 15.9994 4.06211 3.58048 7.08905
222 1 -1.1104 15.9994 1.27238 3.67604 9.45325
223 1 -1.1104 15.9994 4.05336 3.64334 9.54364
224 1 -1.1104 15.9994 6.94074 0.86163 7.15961
225 1 -1.1104 15.9994 9.73439 0.849654 7.16639
226 1 -1.1104 15.9994 6.9701 0.86104 9.44347
227 1 -1.1104 15.9994 9.7727 0.84487 9.4558
228 1 -1.1104 15.9994 7.00606 3.57429 7.07561
229 1 -1.1104 15.9994 9.70764 3.5881 7.10092
230 1 -1.1104 15.9994 7.04128 3.65839 9.55012
231 1 -1.1104 15.9994 9.76538 3.65435 9.53155
232 1 -1.1104 15.9994 12.5596 0.73312 7.04784
233 1 -1.1104 15.9994 12.6201 0.743978 9.59472
234 1 -1.1104 15.9994 12.6375 3.7325 6.96006
235 1 -1.1104 15.9994 12.7018 3.78079 9.68688
236 1 -1.1104 15.9994 1.28885 6.37399 7.09385
237 1 -1.1104 15.9994 4.13527 6.45925 7.00846
238 1 -1.1104 15.9994 1.28467 6.45032 9.5375
239 1 -1.1104 15.9994 4.23741 6.50352 9.62732
240 1 -1.1104 15.9994 1.32443 9.25637 7.04354
241 1 -1.1104 15.9994 4.16449 9.26772 7.04813
242 1 -1.1104 15.9994 1.37513 9.28158 9.59576
243 1 -1.1104 15.9994 4.1359 9.27926 9.55787
244 1 -1.1104 15.9994 6.96564 6.45642 7.04744
245 1 -1.1104 15.9994 9.74755 6.4597 7.0682
246 1 -1.1104 15.9994 6.90527 6.47172 9.57524
247 1 -1.1104 15.9994 9.89355 6.56065 9.6654
248 1 -1.1104 15.9994 6.94144 9.26556 7.0592
249 1 -1.1104 15.9994 9.76638 9.27599 7.09179
250 1 -1.1104 15.9994 7.06734 9.36508 9.66243
251 1 -1.1104 15.9994 9.7813 9.28261 9.7399
252 1 -1.1104 15.9994 12.6483 6.39311 6.98969
253 1 -1.1104 15.9994 12.572 6.47298 9.72846
254 1 -1.1104 15.9994 12.6396 9.34025 6.99094
255 1 -1.1104 15.9994 12.5726 9.27434 9.73068
256 1 -1.1104 15.9994 1.35107 12.0799 7.06673
257 1 -1.1104 15.9994 4.1374 12.0781 7.06006
258 1 -1.1104 15.9994 1.32138 12.0895 9.56249
259 1 -1.1104 15.9994 4.24934 12.1818 9.67016
260 1 -1.1104 15.9994 1.3313 14.8786 7.08534
261 1 -1.1104 15.9994 4.15595 14.8845 7.07985
262 1 -1.1104 15.9994 1.42577 14.9877 9.67003
263 1 -1.1104 15.9994 4.16388 14.9114 9.75047
264 1 -1.1104 15.9994 6.96353 12.0843 7.07671
265 1 -1.1104 15.9994 9.7501 12.0801 7.09957
266 1 -1.1104 15.9994 6.97546 12.1021 9.74471
267 1 -1.1104 15.9994 9.77342 12.0876 9.74404
268 1 -1.1104 15.9994 6.94856 14.8816 7.08857
269 1 -1.1104 15.9994 9.75851 14.8805 7.10184
270 1 -1.1104 15.9994 6.96449 14.8976 9.75285
271 1 -1.1104 15.9994 9.7601 14.8872 9.75045
272 1 -1.1104 15.9994 12.6464 12.0078 6.99169
273 1 -1.1104 15.9994 12.56 12.0812 9.73094
274 1 -1.1104 15.9994 12.6403 14.9485 6.99518
275 1 -1.1104 15.9994 12.559 14.8809 9.73279
276 1 -1.1104 15.9994 1.34786 17.687 7.09807
277 1 -1.1104 15.9994 4.14194 17.6835 7.09429
278 1 -1.1104 15.9994 1.33429 17.7127 9.75849
279 1 -1.1104 15.9994 4.15358 17.7006 9.75864
280 1 -1.1104 15.9994 1.32704 20.4743 7.12954
281 1 -1.1104 15.9994 4.15309 20.4753 7.10486
282 1 -1.1104 15.9994 1.33455 20.5001 9.76192
283 1 -1.1104 15.9994 4.14224 20.493 9.76698
284 1 -1.1104 15.9994 6.95547 17.6812 7.09431
285 1 -1.1104 15.9994 9.74995 17.6809 7.1075
286 1 -1.1104 15.9994 6.95072 17.6914 9.75988
287 1 -1.1104 15.9994 9.75999 17.6886 9.7571
288 1 -1.1104 15.9994 6.94425 20.484 7.09678
289 1 -1.1104 15.9994 9.75742 20.4805 7.11046
290 1 -1.1104 15.9994 6.9518 20.4895 9.7652
291 1 -1.1104 15.9994 9.75463 20.4877 9.76221
292 1 -1.1104 15.9994 12.6433 17.612 7.00031
293 1 -1.1104 15.9994 12.5553 17.6892 9.74149
294 1 -1.1104 15.9994 12.6392 20.5483 7.00273
295 1 -1.1104 15.9994 12.5573 20.4847 9.74958
296 1 -1.1104 15.9994 1.26926 23.2649 7.13726
297 1 -1.1104 15.9994 4.1211 23.3002 7.10709
298 1 -1.1104 15.9994 1.32257 23.2971 9.76812
299 1 -1.1104 15.9994 4.14454 23.2926 9.7715
300 1 -1.1104 15.9994 6.954 23.2783 7.11883
301 1 -1.1104 15.9994 9.74941 23.2805 7.1268
302 1 -1.1104 15.9994 6.94549 23.2939 9.76745
303 1 -1.1104 15.9994 9.75708 23.2922 9.76544
304 1 -1.1104 15.9994 12.6437 23.2119 7.01292
305 1 -1.1104 15.9994 12.5532 23.2892 9.75288
306 1 -1.1104 15.9994 1.36254 0.887586 12.7193
307 1 -1.1104 15.9994 4.12095 0.863979 12.7114
308 1 -1.1104 15.9994 1.30481 3.65576 12.7205
309 1 -1.1104 15.9994 4.16719 3.67133 12.7169
310 1 -1.1104 15.9994 6.97227 0.87141 12.7131
311 1 -1.1104 15.9994 9.72684 0.881256 12.7286
312 1 -1.1104 15.9994 6.92647 3.6685 12.7145
313 1 -1.1104 15.9994 9.78894 3.67789 12.728
314 1 -1.1104 15.9994 12.6592 0.790801 12.6092
315 1 -1.1104 15.9994 12.6399 3.74488 12.6149
316 1 -1.1104 15.9994 1.35301 6.48298 12.7491
317 1 -1.1104 15.9994 4.13614 6.46013 12.7089
318 1 -1.1104 15.9994 1.32243 9.27468 12.7149
319 1 -1.1104 15.9994 4.15781 9.28812 12.7415
320 1 -1.1104 15.9994 6.97297 6.47484 12.7309
321 1 -1.1104 15.9994 9.85068 6.55982 12.6217
322 1 -1.1104 15.9994 7.05343 9.37533 12.6311
323 1 -1.1104 15.9994 9.7746 9.28725 12.5418
324 1 -1.1104 15.9994 12.5782 6.47469 12.5347
325 1 -1.1104 15.9994 12.5667 9.27873 12.5386
326 1 -1.1104 15.9994 1.33958 12.0972 12.7418
327 1 -1.1104 15.9994 4.24104 12.1842 12.6309
328 1 -1.1104 15.9994 1.42384 14.987 12.6363
329 1 -1.1104 15.9994 4.1649 14.9147 12.5565
330 1 -1.1104 15.9994 6.97184 12.1043 12.5521
331 1 -1.1104 15.9994 9.76195 12.0935 12.5449
332 1 -1.1104 15.9994 6.95784 14.9027 12.5513
333 1 -1.1104 15.9994 9.75044 14.8894 12.5415
334 1 -1.1104 15.9994 12.5551 12.0733 12.5033
335 1 -1.1104 15.9994 12.5512 14.8933 12.5056
336 1 -1.1104 15.9994 1.3426 17.7143 12.5527
337 1 -1.1104 15.9994 4.15073 17.7037 12.5547
338 1 -1.1104 15.9994 1.34288 20.4978 12.5542
339 1 -1.1104 15.9994 4.14611 20.4946 12.5532
340 1 -1.1104 15.9994 6.95079 17.694 12.5508
341 1 -1.1104 15.9994 9.74804 17.6954 12.5451
342 1 -1.1104 15.9994 6.9476 20.4929 12.5526
343 1 -1.1104 15.9994 9.75103 20.491 12.5508
344 1 -1.1104 15.9994 12.5525 17.6929 12.5381
345 1 -1.1104 15.9994 12.5516 20.4943 12.5445
346 1 -1.1104 15.9994 1.34161 23.292 12.55
347 1 -1.1104 15.9994 4.14416 23.2909 12.5554
348 1 -1.1104 15.9994 6.94826 23.2903 12.5542
349 1 -1.1104 15.9994 9.74918 23.2903 12.5528
350 1 -1.1104 15.9994 12.5525 23.2884 12.549
351 2 2.2208 232.038 11.1425 24.6436 13.9436
352 3 -1.1104 15.9994 -0.0475481 2.24912 0.117555
353 3 -1.1104 15.9994 5.58382 7.88418 11.1412
354 4 2.2208 232.038 2.66215 2.21825 2.62122
355 2 2.2208 232.038 13.9111 2.35054 5.59318
356 3 -1.1104 15.9994 5.54057 2.25074 0.159563
357 2 2.2208 232.038 13.8425 2.35781 11.2264
358 4 2.2208 232.038 8.44269 2.21657 2.62736
359 3 -1.1104 15.9994 11.1397 2.24956 0.105675
360 2 2.2208 232.038 11.1614 2.35205 13.9108
361 3 -1.1104 15.9994 2.73456 5.046 0.150287
362 2 2.2208 232.038 5.55409 7.92035 13.8314
363 3 -1.1104 15.9994 2.74093 16.2833 5.35854
364 4 2.2208 232.038 2.66095 7.90375 2.75254
365 3 -1.1104 15.9994 8.34861 5.04887 0.143123
366 3 -1.1104 15.9994 5.54346 7.85015 0.139654
367 4 2.2208 232.038 5.5531 5.09855 2.7304
368 4 2.2208 232.038 8.44166 7.89953 2.75505
369 3 -1.1104 15.9994 11.1488 7.85575 0.092613
370 4 2.2208 232.038 11.2617 5.10324 2.73856
371 3 -1.1104 15.9994 2.73793 10.6567 0.125718
372 2 2.2208 232.038 8.34568 5.1513 13.8729
373 3 -1.1104 15.9994 8.35844 21.8887 5.38754
374 4 2.2208 232.038 2.65728 13.4996 2.76795
375 3 -1.1104 15.9994 8.35351 10.661 0.128161
376 3 -1.1104 15.9994 5.54743 13.4686 0.128312
377 4 2.2208 232.038 5.54825 10.6991 2.76752
378 4 2.2208 232.038 8.43805 13.4919 2.75761
379 3 -1.1104 15.9994 11.1517 13.4703 0.0869776
380 4 2.2208 232.038 11.2571 10.6994 2.75374
381 3 -1.1104 15.9994 2.74077 16.2718 0.116508
382 2 2.2208 232.038 5.54961 19.0466 13.9372
383 3 -1.1104 15.9994 11.1571 13.4708 5.40108
384 4 2.2208 232.038 2.6585 19.1668 2.75411
385 3 -1.1104 15.9994 8.35498 16.2773 0.122089
386 3 -1.1104 15.9994 5.55388 19.0885 0.114321
387 4 2.2208 232.038 5.54501 16.295 2.75768
388 4 2.2208 232.038 8.43522 19.0953 2.75528
389 3 -1.1104 15.9994 11.1501 19.0804 0.0771883
390 4 2.2208 232.038 11.2563 16.292 2.75256
391 3 -1.1104 15.9994 2.76345 21.8666 0.0678528
392 3 -1.1104 15.9994 5.58643 24.6919 5.44993
393 3 -1.1104 15.9994 8.3912 5.01783 11.0815
394 3 -1.1104 15.9994 11.1627 2.19194 11.0336
395 3 -1.1104 15.9994 8.34448 21.9025 0.0998358
396 3 -1.1104 15.9994 5.53511 2.1616 10.9809
397 4 2.2208 232.038 5.54042 21.9707 2.75302
398 4 2.2208 232.038 8.35233 24.7869 2.7564
399 3 -1.1104 15.9994 11.1206 24.6752 0.0227994
400 4 2.2208 232.038 11.2531 21.9632 2.75358
401 3 -1.1104 15.9994 2.73012 -0.497193 5.51398
402 3 -1.1104 15.9994 -0.0155575 2.21777 5.50272
403 2 2.2208 232.038 2.76303 -0.491325 13.9437
404 2 2.2208 232.038 -0.0366935 7.94274 13.8524
405 2 2.2208 232.038 8.33883 -0.488996 13.9382
406 2 2.2208 232.038 5.55312 2.36219 13.933
407 2 2.2208 232.038 8.3521 16.2512 13.9462
408 2 2.2208 232.038 8.46283 24.5644 27.6568
409 2 2.2208 232.038 13.9372 24.6498 22.3433
410 2 2.2208 232.038 5.51785 21.7713 27.6223
411 2 2.2208 232.038 13.9323 19.0539 22.3238
412 2 2.2208 232.038 2.61297 24.5701 27.8814
413 2 2.2208 232.038 13.9301 13.4882 22.2988
414 2 2.2208 232.038 0.051817 21.8909 27.6413
415 2 2.2208 232.038 13.9301 7.92164 22.312
416 2 2.2208 232.038 11.0669 21.8641 27.6357
417 2 2.2208 232.038 13.9352 2.31606 22.3226
418 2 2.2208 232.038 13.9397 21.8461 19.539
419 2 2.2208 232.038 13.942 24.6454 16.7449
420 2 2.2208 232.038 13.9364 16.2065 19.4695
421 2 2.2208 232.038 13.9382 19.0308 16.7437
422 2 2.2208 232.038 11.1926 13.4768 14.0114
423 2 2.2208 232.038 13.9334 10.7649 19.4643
424 2 2.2208 232.038 13.9328 5.12385 19.5276
425 2 2.2208 232.038 2.74929 13.5026 27.5954
426 2 2.2208 232.038 13.9279 7.93801 16.7386
427 2 2.2208 232.038 11.1446 19.0396 13.9523
428 2 2.2208 232.038 13.9405 -0.487709 19.5373
429 2 2.2208 232.038 -0.0423655 24.6462 13.948
430 2 2.2208 232.038 13.9291 2.32568 16.7433
431 2 2.2208 232.038 13.9375 21.8449 13.9506
432 2 2.2208 232.038 13.9332 16.2025 14.0175
433 2 2.2208 232.038 -0.0370556 -0.473822 16.7494
434 2 2.2208 232.038 2.75993 2.33534 16.7233
435 2 2.2208 232.038 2.75492 -0.479624 19.5329
436 2 2.2208 232.038 -0.0387304 2.32176 19.5292
437 2 2.2208 232.038 5.55058 -0.464553 16.74
438 2 2.2208 232.038 8.34137 2.33501 16.7207
439 2 2.2208 232.038 8.34468 -0.478691 19.5331
440 2 2.2208 232.038 5.55067 2.32628 19.5249
441 2 2.2208 232.038 11.1345 -0.470607 16.7459
442 2 2.2208 232.038 11.1369 2.32302 19.5297
443 2 2.2208 232.038 -0.0237325 5.13021 16.7199
444 2 2.2208 232.038 2.76199 7.91603 16.6885
445 2 2.2208 232.038 2.75959 5.12179 19.519
446 2 2.2208 232.038 -0.0338678 7.91164 19.5187
447 2 2.2208 232.038 5.55113 5.13187 16.7012
448 2 2.2208 232.038 8.33816 7.91527 16.7097
449 2 2.2208 232.038 8.3423 5.12244 19.5209
450 2 2.2208 232.038 5.55126 7.9116 19.5156
451 2 2.2208 232.038 11.1257 5.12499 16.7243
452 2 2.2208 232.038 11.1403 7.92595 19.519
453 2 2.2208 232.038 -0.0234238 10.697 16.6976
454 2 2.2208 232.038 2.75048 13.4657 16.7046
455 2 2.2208 232.038 2.75888 10.6957 19.5169
456 2 2.2208 232.038 -0.0372276 13.4817 19.5242
457 2 2.2208 232.038 5.54426 10.6864 16.7018
458 2 2.2208 232.038 8.36462 13.4747 16.7296
459 2 2.2208 232.038 8.356 10.7029 19.5175
460 2 2.2208 232.038 5.55547 13.4795 19.5251
461 2 2.2208 232.038 11.1946 10.761 16.7326
462 2 2.2208 232.038 11.2025 13.4836 19.4655
463 2 2.2208 232.038 -0.0382286 16.2544 16.723
464 2 2.2208 232.038 2.75439 19.051 16.7367
465 2 2.2208 232.038 2.75657 16.2667 19.5337
466 2 2.2208 232.038 -0.0419336 19.06 19.5411
467 2 2.2208 232.038 5.55352 16.2567 16.7314
468 2 2.2208 232.038 8.35584 19.0431 16.74
469 2 2.2208 232.038 8.36048 16.2608 19.5298
470 2 2.2208 232.038 5.55258 19.0552 19.5411
471 2 2.2208 232.038 11.2042 16.199 16.74
472 2 2.2208 232.038 11.148 19.0427 19.5336
473 2 2.2208 232.038 -0.0439181 21.8489 16.7437
474 2 2.2208 232.038 2.75239 24.6446 16.7444
475 2 2.2208 232.038 2.75237 21.8505 19.5462
476 2 2.2208 232.038 -0.0472594 24.647 19.5481
477 2 2.2208 232.038 5.55127 21.8462 16.7415
478 2 2.2208 232.038 8.34766 24.6433 16.743
479 2 2.2208 232.038 8.34844 21.8465 19.5432
480 2 2.2208 232.038 5.54879 24.6435 19.5445
481 2 2.2208 232.038 11.1451 21.8425 16.7433
482 2 2.2208 232.038 11.1451 24.6445 19.544
483 2 2.2208 232.038 -0.0413829 -0.483435 22.3217
484 2 2.2208 232.038 2.75511 2.3197 22.3277
485 2 2.2208 232.038 8.34907 13.4987 27.589
486 2 2.2208 232.038 11.0555 16.2843 27.6176
487 2 2.2208 232.038 5.55081 -0.478966 22.3248
488 2 2.2208 232.038 8.34601 2.32022 22.3295
489 2 2.2208 232.038 5.55081 10.7174 27.5807
490 2 2.2208 232.038 5.55185 2.32191 25.1101
491 2 2.2208 232.038 11.1388 -0.482465 22.325
492 2 2.2208 232.038 11.1683 2.32388 25.1431
493 2 2.2208 232.038 -0.0348867 5.11798 22.3243
494 2 2.2208 232.038 2.75735 7.91204 22.3292
495 2 2.2208 232.038 2.75994 5.1184 25.1142
496 2 2.2208 232.038 8.35115 19.0687 27.5971
497 2 2.2208 232.038 5.55144 5.12003 22.3257
498 2 2.2208 232.038 8.34658 7.91426 22.3286
499 2 2.2208 232.038 8.34311 5.11797 25.1177
500 2 2.2208 232.038 5.55148 7.91256 25.1274
501 2 2.2208 232.038 11.1338 5.12085 22.3251
502 2 2.2208 232.038 11.1635 7.9142 25.1551
503 2 2.2208 232.038 -0.032842 10.7007 22.3298
504 2 2.2208 232.038 2.75703 13.4872 22.3389
505 2 2.2208 232.038 2.75975 10.7026 25.1299
506 2 2.2208 232.038 5.54534 16.2859 27.5857
507 2 2.2208 232.038 5.5534 10.7009 22.3305
508 2 2.2208 232.038 8.35565 13.4867 22.3281
509 2 2.2208 232.038 8.34215 10.702 25.1262
510 2 2.2208 232.038 5.55079 13.4902 25.1383
511 2 2.2208 232.038 11.139 10.7082 22.3147
512 2 2.2208 232.038 11.1639 13.4905 25.1584
513 2 2.2208 232.038 -0.0345657 16.2767 22.3414
514 2 2.2208 232.038 2.75246 19.065 22.3533
515 2 2.2208 232.038 2.75785 16.2814 25.1424
516 2 2.2208 232.038 2.73808 19.0845 27.6074
517 2 2.2208 232.038 5.55277 16.2724 22.3418
518 2 2.2208 232.038 8.34889 19.0587 22.3463
519 2 2.2208 232.038 8.34194 16.2771 25.1351
520 2 2.2208 232.038 5.54733 19.0628 25.1451
521 2 2.2208 232.038 11.1408 16.2667 22.3226
522 2 2.2208 232.038 11.1658 19.0677 25.1742
523 2 2.2208 232.038 -0.0388978 21.8586 22.356
524 2 2.2208 232.038 2.74049 24.6405 22.353
525 2 2.2208 232.038 2.75819 21.8782 25.1734
526 2 2.2208 232.038 0.0449055 16.2909 27.6249
527 2 2.2208 232.038 5.54704 21.8467 22.3481
528 2 2.2208 232.038 8.35351 24.64 22.3455
529 2 2.2208 232.038 8.33463 21.8597 25.1511
530 2 2.2208 232.038 5.52957 24.6694 25.1061
531 2 2.2208 232.038 11.1384 21.8516 22.3468
532 2 2.2208 232.038 11.1738 24.6701 25.2041
533 1 -1.1104 15.9994 1.33534 0.864035 15.3589
534 1 -1.1104 15.9994 4.14321 0.861656 15.3644
535 1 -1.1104 15.9994 1.33133 3.66067 15.3729
536 1 -1.1104 15.9994 4.1413 3.65948 15.3815
537 1 -1.1104 15.9994 6.94844 0.861388 15.3655
538 1 -1.1104 15.9994 9.75746 0.864204 15.3633
539 1 -1.1104 15.9994 6.95203 3.66176 15.3823
540 1 -1.1104 15.9994 9.7616 3.66501 15.3774
541 1 -1.1104 15.9994 12.5548 0.871852 15.3493
542 1 -1.1104 15.9994 12.5617 3.66698 15.359
543 1 -1.1104 15.9994 1.33108 6.46326 15.3869
544 1 -1.1104 15.9994 4.14207 6.46568 15.3966
545 1 -1.1104 15.9994 1.3307 9.27295 15.3976
546 1 -1.1104 15.9994 4.15142 9.28168 15.3982
547 1 -1.1104 15.9994 6.96028 6.47107 15.3922
548 1 -1.1104 15.9994 9.75909 6.46991 15.3685
549 1 -1.1104 15.9994 6.95317 9.28021 15.3768
550 1 -1.1104 15.9994 9.75685 9.27817 15.3603
551 1 -1.1104 15.9994 12.5617 6.46681 15.3549
552 1 -1.1104 15.9994 12.5532 9.23904 15.3419
553 1 -1.1104 15.9994 1.33871 12.0919 15.395
554 1 -1.1104 15.9994 4.14957 12.0909 15.3808
555 1 -1.1104 15.9994 1.34191 14.8966 15.3748
556 1 -1.1104 15.9994 4.14994 14.8981 15.3644
557 1 -1.1104 15.9994 6.94834 12.0922 15.3641
558 1 -1.1104 15.9994 9.71743 12.0779 15.3466
559 1 -1.1104 15.9994 6.94178 14.8918 15.3541
560 1 -1.1104 15.9994 9.71441 14.8945 15.346
561 1 -1.1104 15.9994 12.4557 11.9866 15.2516
562 1 -1.1104 15.9994 12.4524 14.9802 15.2479
563 1 -1.1104 15.9994 1.34463 17.6975 15.3577
564 1 -1.1104 15.9994 4.14649 17.695 15.3543
565 1 -1.1104 15.9994 1.34387 20.4929 15.3497
566 1 -1.1104 15.9994 4.1457 20.4924 15.3513
567 1 -1.1104 15.9994 6.94423 17.6945 15.3509
568 1 -1.1104 15.9994 9.74316 17.6959 15.3471
569 1 -1.1104 15.9994 6.94671 20.4918 15.3502
570 1 -1.1104 15.9994 9.74699 20.4953 15.3481
571 1 -1.1104 15.9994 12.5463 17.7264 15.3414
572 1 -1.1104 15.9994 12.55 20.4995 15.3469
573 1 -1.1104 15.9994 1.34488 23.2892 15.3478
574 1 -1.1104 15.9994 4.14583 23.29 15.3497
575 1 -1.1104 15.9994 6.94693 23.2903 15.35
576 1 -1.1104 15.9994 9.74858 23.2904 15.3491
577 1 -1.1104 15.9994 12.5495 23.2915 15.3476
578 1 -1.1104 15.9994 1.34316 0.876212 18.1542
579 1 -1.1104 15.9994 4.14471 0.874318 18.1558
580 1 -1.1104 15.9994 1.34455 0.879409 20.9532
581 1 -1.1104 15.9994 4.14512 0.877918 20.9541
582 1 -1.1104 15.9994 1.34097 3.6718 18.1596
583 1 -1.1104 15.9994 4.1438 3.67071 18.1634
584 1 -1.1104 15.9994 1.34222 3.67505 20.9557
585 1 -1.1104 15.9994 4.1456 3.67463 20.9564
586 1 -1.1104 15.9994 6.94851 0.874063 18.1564
587 1 -1.1104 15.9994 9.75095 0.875644 18.1554
588 1 -1.1104 15.9994 6.94814 0.877996 20.9537
589 1 -1.1104 15.9994 9.74966 0.878565 20.9527
590 1 -1.1104 15.9994 6.94953 3.67119 18.1631
591 1 -1.1104 15.9994 9.75235 3.67127 18.1604
592 1 -1.1104 15.9994 6.94732 3.67407 20.9563
593 1 -1.1104 15.9994 9.75134 3.67407 20.9549
594 1 -1.1104 15.9994 12.5533 0.876816 18.1512
595 1 -1.1104 15.9994 12.5517 0.879664 20.9536
596 1 -1.1104 15.9994 12.5547 3.67204 18.1557
597 1 -1.1104 15.9994 12.5522 3.67506 20.9551
598 1 -1.1104 15.9994 1.33908 6.47192 18.1675
599 1 -1.1104 15.9994 4.14555 6.4726 18.1687
600 1 -1.1104 15.9994 1.34297 6.47464 20.9562
601 1 -1.1104 15.9994 4.14359 6.47372 20.9582
602 1 -1.1104 15.9994 1.34137 9.27715 18.1692
603 1 -1.1104 15.9994 4.14297 9.27696 18.1709
604 1 -1.1104 15.9994 1.34102 9.27589 20.9571
605 1 -1.1104 15.9994 4.14476 9.2764 20.9569
606 1 -1.1104 15.9994 6.94781 6.47204 18.1676
607 1 -1.1104 15.9994 9.75328 6.46994 18.1621
608 1 -1.1104 15.9994 6.94833 6.47345 20.9572
609 1 -1.1104 15.9994 9.74945 6.47231 20.9549
610 1 -1.1104 15.9994 6.9472 9.27724 18.1653
611 1 -1.1104 15.9994 9.74427 9.26931 18.1579
612 1 -1.1104 15.9994 6.94511 9.27515 20.956
613 1 -1.1104 15.9994 9.74706 9.271 20.9581
614 1 -1.1104 15.9994 12.5533 6.46289 18.1537
615 1 -1.1104 15.9994 12.5535 6.46853 20.9579
616 1 -1.1104 15.9994 12.5505 9.23866 18.1599
617 1 -1.1104 15.9994 12.5498 9.26903 20.9611
618 1 -1.1104 15.9994 1.3407 12.0822 18.169
619 1 -1.1104 15.9994 4.1446 12.0846 18.1645
620 1 -1.1104 15.9994 1.34297 12.0798 20.9539
621 1 -1.1104 15.9994 4.14233 12.0795 20.9542
622 1 -1.1104 15.9994 1.34387 14.8881 18.1605
623 1 -1.1104 15.9994 4.14247 14.8875 18.1563
624 1 -1.1104 15.9994 1.34188 14.8824 20.9504
625 1 -1.1104 15.9994 4.1442 14.8835 20.9499
626 1 -1.1104 15.9994 6.93761 12.0814 18.1581
627 1 -1.1104 15.9994 9.71381 12.0774 18.1593
628 1 -1.1104 15.9994 6.94344 12.0788 20.9544
629 1 -1.1104 15.9994 9.74196 12.0774 20.9578
630 1 -1.1104 15.9994 6.93787 14.8883 18.1545
631 1 -1.1104 15.9994 9.71088 14.8898 18.1557
632 1 -1.1104 15.9994 6.94159 14.8846 20.951
633 1 -1.1104 15.9994 9.74298 14.8846 20.9559
634 1 -1.1104 15.9994 12.4499 11.9807 18.2479
635 1 -1.1104 15.9994 12.5488 12.0716 20.9914
636 1 -1.1104 15.9994 12.4515 14.9826 18.2487
637 1 -1.1104 15.9994 12.5466 14.8896 20.9897
638 1 -1.1104 15.9994 1.34326 17.6889 18.1519
639 1 -1.1104 15.9994 4.1449 17.69 18.1513
640 1 -1.1104 15.9994 1.34437 17.685 20.9456
641 1 -1.1104 15.9994 4.14379 17.6863 20.9462
642 1 -1.1104 15.9994 1.34533 20.4889 18.1476
643 1 -1.1104 15.9994 4.14515 20.4898 18.1481
644 1 -1.1104 15.9994 1.34405 20.4864 20.942
645 1 -1.1104 15.9994 4.1467 20.4875 20.9427
646 1 -1.1104 15.9994 6.94192 17.6907 18.1508
647 1 -1.1104 15.9994 9.74167 17.6956 18.1516
648 1 -1.1104 15.9994 6.94604 17.6871 20.947
649 1 -1.1104 15.9994 9.74406 17.6912 20.9512
650 1 -1.1104 15.9994 6.94621 20.4907 18.1483
651 1 -1.1104 15.9994 9.74632 20.4941 18.1489
652 1 -1.1104 15.9994 6.94635 20.4893 20.9448
653 1 -1.1104 15.9994 9.74866 20.4897 20.9452