ITEM: TIMESTEP
100000
ITEM: NUMBER OF ATOMS
18000
ITEM: BOX BOUNDS xy xz yz pp pp pp
-1.0591533834191509e-01 2.7999915338342110e+01 0.0000000000000000e+00
-1.4243541109892968e+00 3.3615235411098678e+02 0.0000000000000000e+00
-1.1267354119662358e-01 2.8006673541196495e+01 0.0000000000000000e+00
ITEM: ATOMS id type q mass x y z
359 3 -1.1104 15.9994 9.64647 -0.573516 0.742282
390 4 2.2208 232.038 11.284 16.0416 2.88616
387 4 2.2208 232.038 5.7888 18.0336 2.90658
4 3 -1.1104 15.9994 1.36476 11.4662 10.2543
397 4 2.2208 232.038 5.71454 21.5921 3.75735
379 3 -1.1104 15.9994 11.2109 12.4219 0.435184
371 3 -1.1104 15.9994 1.49707 11.6561 1.38537
8 2 2.2208 232.038 5.04828 1.63198 5.43703
743 1 -1.1104 15.9994 11.1291 17.4035 0.711513
10 2 2.2208 232.038 12.4132 -0.746398 1.40555
394 3 -1.1104 15.9994 10.0975 3.14198 9.93842
395 3 -1.1104 15.9994 8.55593 22.0099 0.586698
13 2 2.2208 232.038 2.01224 3.48787 1.19967
14 3 -1.1104 15.9994 12.9846 19.8926 4.48835
15 3 -1.1104 15.9994 1.26359 5.95517 10.4256
16 3 -1.1104 15.9994 10.3446 3.75654 3.94301
17 2 2.2208 232.038 8.1081 3.07421 3.97713
18 2 2.2208 232.038 3.56893 5.28141 3.33252
363 3 -1.1104 15.9994 2.08134 16.3489 4.72852
20 2 2.2208 232.038 10.4692 5.50917 2.36687
21 3 -1.1104 15.9994 9.0586 7.18515 2.28148
22 3 -1.1104 15.9994 4.47333 8.94111 5.00132
23 2 2.2208 232.038 0.758529 8.70746 3.36841
24 3 -1.1104 15.9994 3.83425 20.6566 4.92655
25 3 -1.1104 15.9994 9.98073 3.01161 7.24759
383 3 -1.1104 15.9994 10.0713 11.9525 4.67842
27 2 2.2208 232.038 6.86911 6.03898 2.45261
28 2 2.2208 232.038 5.98128 12.8432 3.11462
343 1 -1.1104 15.9994 9.82455 20.1141 12.7595
30 2 2.2208 232.038 11.2202 12.7499 2.801
400 4 2.2208 232.038 11.8398 23.9532 2.77915
84 2 2.2208 232.038 0.00151816 18.5805 8.57825
33 2 2.2208 232.038 3.26126 15.3715 2.95542
34 3 -1.1104 15.9994 5.97111 19.2608 5.00331
9383 2 2.2208 232.038 0.0148356 7.7242 8.82375
36 3 -1.1104 15.9994 12.5986 0.870183 5.11613
37 2 2.2208 232.038 8.1954 15.2835 2.91575
38 2 2.2208 232.038 6.97487 20.4686 0.36621
772 2 2.2208 232.038 3.24931 7.72513 0.186905
173 1 -1.1104 15.9994 2.17788 13.1517 3.9336
370 4 2.2208 232.038 11.9507 2.2248 3.23858
42 3 -1.1104 15.9994 2.74584 0.741666 5.59587
43 2 2.2208 232.038 1.79603 23.8919 2.91088
374 4 2.2208 232.038 2.93124 11.1471 3.13186
396 3 -1.1104 15.9994 5.94051 -0.621579 9.69802
46 4 2.2208 232.038 2.1788 0.848719 8.19344
47 2 2.2208 232.038 8.99452 21.6624 2.82335
367 4 2.2208 232.038 5.49238 1.9187 1.74712
49 3 -1.1104 15.9994 7.01447 14.2214 4.74423
377 4 2.2208 232.038 5.1772 8.65858 3.02222
358 4 2.2208 232.038 8.85948 -0.200811 3.1864
52 2 2.2208 232.038 1.51499 3.03472 5.43149
385 3 -1.1104 15.9994 6.34863 12.6627 0.706499
54 3 -1.1104 15.9994 5.93817 15.1212 2.20611
126 1 -1.1104 15.9994 0.967578 -1.18063 1.1562
56 2 2.2208 232.038 8.63957 1.01868 6.74719
380 4 2.2208 232.038 11.572 8.38323 2.76564
58 2 2.2208 232.038 5.70804 1.7678 9.25915
111 2 2.2208 232.038 0.0209148 10.059 11.7229
60 2 2.2208 232.038 11.5506 1.83487 8.60894
376 3 -1.1104 15.9994 5.98233 10.6409 2.61929
62 2 2.2208 232.038 2.89464 7.75998 6.21735
63 2 2.2208 232.038 3.60384 4.53893 8.39418
9079 3 -1.1104 15.9994 1.48875 14.2779 10.213
65 2 2.2208 232.038 6.15057 4.96809 5.91848
66 2 2.2208 232.038 8.70792 7.46955 5.72191
67 2 2.2208 232.038 8.64311 4.56373 8.60205
68 2 2.2208 232.038 5.77745 7.33294 8.64225
69 2 2.2208 232.038 11.4203 4.40079 5.7793
70 2 2.2208 232.038 11.3896 7.35517 8.48956
9059 4 2.2208 232.038 0.771732 17.6038 3.13313
72 2 2.2208 232.038 3.0416 13.1504 6.10058
73 2 2.2208 232.038 2.85429 10.3707 8.86607
393 3 -1.1104 15.9994 10.0224 5.92895 9.98448
75 2 2.2208 232.038 5.78938 10.3967 6.18488
76 2 2.2208 232.038 8.53816 12.9431 6.06376
77 2 2.2208 232.038 8.52812 10.174 8.72292
78 2 2.2208 232.038 5.83809 13.0573 8.97561
79 2 2.2208 232.038 11.3912 10.3447 5.9107
80 2 2.2208 232.038 11.3469 12.9507 8.76146
226 1 -1.1104 15.9994 7.90476 -1.05402 8.08005
82 2 2.2208 232.038 2.9633 18.5174 5.79366
83 2 2.2208 232.038 2.90846 15.8417 8.73414
388 4 2.2208 232.038 11.3339 19.1141 2.83235
85 2 2.2208 232.038 5.78353 15.7814 5.93279
86 2 2.2208 232.038 8.27946 18.7649 5.81837
87 2 2.2208 232.038 8.49794 15.7539 8.63702
88 2 2.2208 232.038 5.61075 18.5244 8.76466
89 2 2.2208 232.038 11.2348 15.783 6.05535
90 2 2.2208 232.038 11.1072 18.5682 8.63972
352 3 -1.1104 15.9994 0.479374 1.74075 1.89944
381 3 -1.1104 15.9994 3.96163 12.8061 1.95004
93 2 2.2208 232.038 2.64803 21.4061 9.00644
71 2 2.2208 232.038 -0.0482007 10.6357 6.0666
95 2 2.2208 232.038 5.31694 21.1681 6.60868
96 2 2.2208 232.038 7.90931 23.6327 6.11134
97 2 2.2208 232.038 8.43482 21.4508 8.8808
369 3 -1.1104 15.9994 12.932 6.57269 2.26845
99 2 2.2208 232.038 11.1511 21.4145 5.88045
137 1 -1.1104 15.9994 8.39954 -1.02559 5.46549
356 3 -1.1104 15.9994 7.78162 1.50368 2.11867
102 2 2.2208 232.038 2.74432 1.61595 11.7718
384 4 2.2208 232.038 2.45806 20.7828 3.03881
104 2 2.2208 232.038 8.6624 1.96916 11.3948
342 1 -1.1104 15.9994 7.14103 20.0979 12.8461
9063 3 -1.1104 15.9994 0.865095 19.6244 4.53028
107 2 2.2208 232.038 2.82749 7.27893 11.5827
108 2 2.2208 232.038 5.84188 4.6065 11.4015
109 2 2.2208 232.038 8.55146 7.35388 11.4062
110 2 2.2208 232.038 11.5231 4.45576 11.423
346 1 -1.1104 15.9994 1.33844 22.8007 12.9105
112 2 2.2208 232.038 2.87179 13.0443 11.6558
113 2 2.2208 232.038 5.65067 10.0896 11.5857
114 2 2.2208 232.038 8.52124 12.9834 11.5247
115 2 2.2208 232.038 11.2902 10.024 11.3976
204 1 -1.1104 15.9994 13.2751 19.7629 1.58623
117 2 2.2208 232.038 2.84288 18.6379 11.4294
118 2 2.2208 232.038 5.68763 15.7868 11.6014
119 2 2.2208 232.038 8.3989 18.6484 11.4424
120 2 2.2208 232.038 11.182 15.7135 11.5046
128 1 -1.1104 15.9994 0.581551 -1.27014 4.32648
392 3 -1.1104 15.9994 5.48196 23.1882 5.36104
123 2 2.2208 232.038 5.55222 21.4226 11.5526
341 1 -1.1104 15.9994 9.74467 17.3328 12.8015
125 2 2.2208 232.038 11.1545 21.3417 11.3405
345 1 -1.1104 15.9994 12.6071 20.0054 12.7271
127 1 -1.1104 15.9994 4.43261 0.757402 3.39899
136 1 -1.1104 15.9994 5.24725 -1.06877 5.46186
349 1 -1.1104 15.9994 9.8095 22.7533 12.9277
3 2 2.2208 232.038 14.054 24.2425 11.3735
350 1 -1.1104 15.9994 12.5489 22.8492 12.7031
373 3 -1.1104 15.9994 7.57426 21.3821 5.28145
133 1 -1.1104 15.9994 2.60278 3.00313 3.3305
353 3 -1.1104 15.9994 7.04412 6.03463 10.1305
344 1 -1.1104 15.9994 12.6449 17.0949 12.8894
348 1 -1.1104 15.9994 6.92572 22.9089 12.9833
375 3 -1.1104 15.9994 8.45507 10.4597 0.568921
138 1 -1.1104 15.9994 7.06803 1.21404 4.4686
139 1 -1.1104 15.9994 8.25483 4.40218 2.07321
140 1 -1.1104 15.9994 7.45277 3.16541 6.21404
141 1 -1.1104 15.9994 11.1568 0.119822 3.03133
347 1 -1.1104 15.9994 4.14772 22.8768 13.0273
8717 3 -1.1104 15.9994 6.00389 0.0266861 0.675248
144 1 -1.1104 15.9994 12.458 1.45633 0.982416
378 4 2.2208 232.038 8.38758 10.1417 2.96549
190 1 -1.1104 15.9994 0.370636 21.8235 2.6139
147 1 -1.1104 15.9994 2.21434 5.92908 1.35314
218 1 -1.1104 15.9994 0.706524 -0.288675 9.82285
149 1 -1.1104 15.9994 4.34674 4.04657 1.47708
150 1 -1.1104 15.9994 1.33954 8.69822 1.237
184 1 -1.1104 15.9994 12.6982 11.8241 4.43563
354 4 2.2208 232.038 1.96644 0.644391 3.16881
153 1 -1.1104 15.9994 2.78434 7.44107 3.56638
154 1 -1.1104 15.9994 6.01551 3.61812 3.61839
410 2 2.2208 232.038 4.42857 22.0447 0.0558122
156 1 -1.1104 15.9994 4.0151 3.83261 5.63103
157 1 -1.1104 15.9994 9.60794 1.47145 4.84968
158 1 -1.1104 15.9994 4.81621 6.72741 1.72838
365 3 -1.1104 15.9994 6.76584 3.01323 0.0434093
160 1 -1.1104 15.9994 7.999 5.51579 4.55913
161 1 -1.1104 15.9994 10.3428 5.2351 0.235315
162 1 -1.1104 15.9994 12.0659 3.9961 1.93985
163 1 -1.1104 15.9994 11.1681 6.52694 4.46583
164 1 -1.1104 15.9994 12.9446 9.48465 1.29534
165 1 -1.1104 15.9994 12.8835 9.04143 4.34331
336 1 -1.1104 15.9994 1.37899 17.0881 12.7215
167 1 -1.1104 15.9994 3.78333 9.69334 1.51522
168 1 -1.1104 15.9994 4.42917 11.7178 4.81495
169 1 -1.1104 15.9994 7.42182 11.3495 4.88152
170 1 -1.1104 15.9994 1.77383 16.7099 1.3759
171 1 -1.1104 15.9994 4.41464 14.388 4.64705
172 1 -1.1104 15.9994 1.31632 14.2946 1.36808
122 2 2.2208 232.038 2.61336 24.2752 11.659
174 1 -1.1104 15.9994 6.69504 8.43295 1.34661
175 1 -1.1104 15.9994 10.7718 7.98382 0.750484
176 1 -1.1104 15.9994 7.24562 8.44978 4.01541
177 1 -1.1104 15.9994 10.0608 9.04128 4.6106
178 1 -1.1104 15.9994 4.46167 16.9349 1.30647
179 1 -1.1104 15.9994 10.17 14.5239 1.68033
180 1 -1.1104 15.9994 8.41402 12.722 2.47095
181 1 -1.1104 15.9994 9.78412 14.8067 4.40689
232 1 -1.1104 15.9994 13.3934 0.57037 8.36394
183 1 -1.1104 15.9994 10.5067 10.3778 2.3124
130 1 -1.1104 15.9994 0.21115 1.44791 4.43385
185 1 -1.1104 15.9994 12.3489 14.6323 4.13282
194 1 -1.1104 15.9994 8.15118 15.7166 0.4681
187 1 -1.1104 15.9994 7.00078 18.2652 0.993211
188 1 -1.1104 15.9994 1.06723 19.5459 1.61066
189 1 -1.1104 15.9994 2.92242 18.5117 3.2891
9049 3 -1.1104 15.9994 1.06376 3.07243 10.4932
191 1 -1.1104 15.9994 4.28194 20.2031 1.51226
192 1 -1.1104 15.9994 1.72282 22.5274 4.73618
193 1 -1.1104 15.9994 7.19514 20.1668 2.73739
124 2 2.2208 232.038 8.25346 24.1187 11.5117
195 1 -1.1104 15.9994 9.37768 17.2124 2.51998
196 1 -1.1104 15.9994 7.43183 16.9326 4.36908
197 1 -1.1104 15.9994 11.1713 17.6157 4.49208
198 1 -1.1104 15.9994 9.8629 19.8385 1.16426
199 1 -1.1104 15.9994 11.3603 21.5061 2.52444
200 1 -1.1104 15.9994 9.7812 19.9174 4.34931
201 1 -1.1104 15.9994 9.90161 23.0416 4.6085
202 1 -1.1104 15.9994 12.923 14.9596 1.17414
217 1 -1.1104 15.9994 3.51563 -0.983589 7.81138
9376 4 2.2208 232.038 0.217788 4.451 8.82146
205 1 -1.1104 15.9994 12.6279 22.6285 4.55694
516 2 2.2208 232.038 2.85133 18.3979 0.212671
364 4 2.2208 232.038 0.0587351 6.58835 0.714936
129 1 -1.1104 15.9994 3.0347 -1.35421 3.2916
209 1 -1.1104 15.9994 3.90232 22.7756 3.03576
210 1 -1.1104 15.9994 6.16158 22.3118 1.63951
211 1 -1.1104 15.9994 9.83105 23.7982 1.6586
212 1 -1.1104 15.9994 7.53833 23.3132 3.55093
389 3 -1.1104 15.9994 13.0869 17.2058 2.30261
214 1 -1.1104 15.9994 12.8473 22.7346 1.07885
340 1 -1.1104 15.9994 7.06923 17.2025 12.8752
339 1 -1.1104 15.9994 4.12073 20.0524 12.8366
55 2 2.2208 232.038 3.02603 -1.5445 5.54341
506 2 2.2208 232.038 5.82944 15.5653 -0.081841
219 1 -1.1104 15.9994 3.69727 0.575246 10.0654
220 1 -1.1104 15.9994 0.174969 0.801784 7.18519
221 1 -1.1104 15.9994 3.95507 2.15183 7.73046
222 1 -1.1104 15.9994 1.67208 3.22705 7.7358
223 1 -1.1104 15.9994 4.167 3.20345 10.1306
224 1 -1.1104 15.9994 6.19985 0.735409 7.27451
207 1 -1.1104 15.9994 4.9167 24.4045 0.251021
338 1 -1.1104 15.9994 1.35302 19.9542 12.9369
227 1 -1.1104 15.9994 11.4883 0.187288 10.1279
228 1 -1.1104 15.9994 8.64738 0.984845 9.47073
229 1 -1.1104 15.9994 10.6505 -0.386896 7.12605
230 1 -1.1104 15.9994 7.34131 3.27861 10.1426
231 1 -1.1104 15.9994 12.807 3.03766 7.15676
94 2 2.2208 232.038 -0.20084 24.1265 8.71674
131 1 -1.1104 15.9994 3.27585 1.61013 1.07924
234 1 -1.1104 15.9994 13.1081 3.91456 4.382
235 1 -1.1104 15.9994 12.9001 2.93 9.96577
236 1 -1.1104 15.9994 1.79701 5.66425 5.19545
237 1 -1.1104 15.9994 4.48056 6.30005 7.10412
238 1 -1.1104 15.9994 1.65437 6.05259 7.75488
239 1 -1.1104 15.9994 4.3095 6.05205 10.0134
240 1 -1.1104 15.9994 1.92367 9.95926 4.80365
241 1 -1.1104 15.9994 4.32971 9.07889 7.71094
242 1 -1.1104 15.9994 1.36995 8.72067 10.3026
243 1 -1.1104 15.9994 4.08298 8.83945 10.4257
244 1 -1.1104 15.9994 5.37742 6.19162 4.26168
245 1 -1.1104 15.9994 7.48102 6.19317 7.38223
246 1 -1.1104 15.9994 5.92777 4.06615 8.13053
247 1 -1.1104 15.9994 10.0537 6.00178 6.90596
248 1 -1.1104 15.9994 7.09029 8.84174 7.19575
249 1 -1.1104 15.9994 9.95083 8.8409 7.19839
250 1 -1.1104 15.9994 7.05342 8.75013 9.89166
251 1 -1.1104 15.9994 9.94275 8.73156 9.95097
252 1 -1.1104 15.9994 12.6649 5.82706 7.10679
253 1 -1.1104 15.9994 12.844 5.72935 9.97981
254 1 -1.1104 15.9994 12.6306 8.73917 7.24279
255 1 -1.1104 15.9994 12.6874 8.63443 9.94361
256 1 -1.1104 15.9994 1.57692 11.7883 7.41748
257 1 -1.1104 15.9994 4.40999 11.7872 7.48645
337 1 -1.1104 15.9994 4.11507 17.2339 12.8493
259 1 -1.1104 15.9994 4.20258 11.5113 10.2807
260 1 -1.1104 15.9994 1.6229 14.5469 7.31582
261 1 -1.1104 15.9994 4.43041 14.5186 7.66683
262 1 -1.1104 15.9994 4.3821 14.3034 10.3698
263 1 -1.1104 15.9994 4.16183 17.2501 7.28003
264 1 -1.1104 15.9994 7.30369 11.6584 7.57197
265 1 -1.1104 15.9994 10.0617 11.5151 7.48647
266 1 -1.1104 15.9994 7.02239 11.5189 10.1787
267 1 -1.1104 15.9994 9.86354 11.5563 10.2858
268 1 -1.1104 15.9994 7.07931 14.361 7.34783
269 1 -1.1104 15.9994 10.0143 14.2895 7.25695
270 1 -1.1104 15.9994 7.14867 14.3815 10.095
271 1 -1.1104 15.9994 9.82752 14.3882 10.0247
272 1 -1.1104 15.9994 12.8094 11.4427 7.1851
273 1 -1.1104 15.9994 12.5712 11.4709 9.9232
274 1 -1.1104 15.9994 12.6296 14.4157 7.04536
275 1 -1.1104 15.9994 12.733 14.4259 10.0554
276 1 -1.1104 15.9994 1.33574 17.4301 7.01234
277 1 -1.1104 15.9994 4.59885 16.8681 4.40741
278 1 -1.1104 15.9994 1.4938 17.1403 9.90732
279 1 -1.1104 15.9994 4.21035 17.1544 10.2068
280 1 -1.1104 15.9994 1.31913 20.1357 7.3678
281 1 -1.1104 15.9994 4.03638 19.8995 7.64966
282 1 -1.1104 15.9994 1.32709 19.9414 10.0934
283 1 -1.1104 15.9994 4.3608 20.0218 10.2362
284 1 -1.1104 15.9994 7.06425 17.2162 7.31295
285 1 -1.1104 15.9994 9.72964 17.2091 7.16362
286 1 -1.1104 15.9994 6.90576 17.2651 10.012
287 1 -1.1104 15.9994 9.73148 17.1143 10.008
288 1 -1.1104 15.9994 7.0082 19.9693 7.56865
289 1 -1.1104 15.9994 9.89223 19.868 7.12586
290 1 -1.1104 15.9994 7.01905 20.1609 10.1864
291 1 -1.1104 15.9994 9.72356 19.8963 9.9777
292 1 -1.1104 15.9994 12.5411 17.1642 7.21305
293 1 -1.1104 15.9994 12.5038 17.1121 10.1518
294 1 -1.1104 15.9994 12.5808 19.9633 7.4007
295 1 -1.1104 15.9994 12.5284 19.8775 10.0424
296 1 -1.1104 15.9994 1.19409 22.7961 7.41197
297 1 -1.1104 15.9994 3.96859 22.8271 7.72812
298 1 -1.1104 15.9994 1.18921 22.7491 10.0507
299 1 -1.1104 15.9994 3.93666 22.8426 10.3352
300 1 -1.1104 15.9994 6.74279 22.684 7.69929
301 1 -1.1104 15.9994 9.54222 22.7573 7.41971
302 1 -1.1104 15.9994 6.92708 22.7025 10.272
303 1 -1.1104 15.9994 9.87781 22.688 10.1863
304 1 -1.1104 15.9994 12.4246 22.7257 7.46372
305 1 -1.1104 15.9994 12.7703 22.7883 9.99071
306 1 -1.1104 15.9994 1.31438 0.0385529 12.6656
307 1 -1.1104 15.9994 4.05749 0.0279047 12.9755
308 1 -1.1104 15.9994 1.35233 2.98113 13.0522
309 1 -1.1104 15.9994 4.31704 2.99736 12.6647
310 1 -1.1104 15.9994 6.42385 1.06629 11.4959
311 1 -1.1104 15.9994 9.49977 -0.1132 12.2317
312 1 -1.1104 15.9994 7.22077 3.05134 12.7846
313 1 -1.1104 15.9994 9.97671 2.97441 12.8062
314 1 -1.1104 15.9994 12.5968 -0.129144 12.7947
315 1 -1.1104 15.9994 12.8567 2.96523 12.7241
316 1 -1.1104 15.9994 1.46863 5.69249 13.2439
317 1 -1.1104 15.9994 4.25382 5.81107 12.8821
318 1 -1.1104 15.9994 1.38542 8.60117 13.0469
319 1 -1.1104 15.9994 4.28168 8.68108 13.0371
320 1 -1.1104 15.9994 7.23003 5.8729 12.73
321 1 -1.1104 15.9994 9.90515 5.76191 12.7031
322 1 -1.1104 15.9994 7.06987 8.69052 12.7895
323 1 -1.1104 15.9994 9.85818 8.72985 12.774
324 1 -1.1104 15.9994 12.8067 5.78932 12.6486
325 1 -1.1104 15.9994 12.725 8.65097 12.678
326 1 -1.1104 15.9994 1.32404 11.4935 12.9311
327 1 -1.1104 15.9994 4.25194 11.4911 13.0828
328 1 -1.1104 15.9994 1.43219 14.3357 12.9242
329 1 -1.1104 15.9994 4.1404 14.4053 13.0595
330 1 -1.1104 15.9994 7.06119 11.6263 12.8851
331 1 -1.1104 15.9994 9.72063 11.5159 12.941
332 1 -1.1104 15.9994 7.01529 14.3888 12.8595
333 1 -1.1104 15.9994 9.77292 14.4138 12.83
334 1 -1.1104 15.9994 12.8123 11.4777 12.587
335 1 -1.1104 15.9994 12.5221 14.318 12.8294
92 2 2.2208 232.038 2.74099 24.1816 6.26642
182 1 -1.1104 15.9994 13.3762 12.5401 2.19368
391 3 -1.1104 15.9994 2.38055 22.7907 1.01275
258 1 -1.1104 15.9994 1.41553 9.03411 7.53167
98 2 2.2208 232.038 5.42506 24.2733 8.9185
9384 2 2.2208 232.038 0.129881 13.0333 8.81129
39 4 2.2208 232.038 8.06318 -1.05513 10.3742
8716 3 -1.1104 15.9994 3.53961 -1.03406 0.491623
406 2 2.2208 232.038 5.74764 1.57133 13.8696
9054 3 -1.1104 15.9994 0.0203574 24.4435 1.57481
155 1 -1.1104 15.9994 9.90696 2.37081 0.225044
159 1 -1.1104 15.9994 7.08892 5.93144 0.076516
106 2 2.2208 232.038 0.0585983 4.44444 11.8998
91 2 2.2208 232.038 -0.0944539 21.4448 5.94833
526 2 2.2208 232.038 -0.113881 15.8276 -0.0315633
489 2 2.2208 232.038 5.88748 10.3139 0.0227994
32 3 -1.1104 15.9994 0.0782756 4.0257 3.8947
116 2 2.2208 232.038 0.0936131 15.729 11.4947
134 1 -1.1104 15.9994 7.19697 -1.48979 2.79567
100 2 2.2208 232.038 11.1951 24.2382 8.70431
59 2 2.2208 232.038 11.7519 -1.37225 4.96196
414 2 2.2208 232.038 0.359533 21.6903 -0.00696748
688 1 -1.1104 15.9994 -0.0216796 3.45972 24.989
482 2 2.2208 232.038 11.2295 24.1189 19.7277
478 2 2.2208 232.038 8.38915 24.2421 16.9427
431 2 2.2208 232.038 14.0169 21.4859 14.1835
534 1 -1.1104 15.9994 4.06781 0.021887 15.5148
5 2 2.2208 232.038 5.54251 24.1959 14.3077
777 2 2.2208 232.038 11.2916 7.1087 14.1617
64 2 2.2208 232.038 -0.129022 12.9852 14.4571
443 2 2.2208 232.038 -0.0275788 4.27183 16.9655
773 2 2.2208 232.038 4.95065 4.382 27.2575
740 1 -1.1104 15.9994 7.00623 20.0575 23.7977
775 2 2.2208 232.038 11.8764 3.52947 27.7905
474 2 2.2208 232.038 2.77956 24.3861 16.9908
532 2 2.2208 232.038 11.2654 24.1838 25.4048
382 2 2.2208 232.038 5.56115 18.6321 14.3674
74 2 2.2208 232.038 2.78863 9.99943 14.2453
749 1 -1.1104 15.9994 3.95219 22.896 23.7597
486 2 2.2208 232.038 11.22 15.3724 27.814
480 2 2.2208 232.038 5.52151 24.2551 19.7424
351 2 2.2208 232.038 11.2238 24.1193 14.1257
422 2 2.2208 232.038 11.1379 12.8892 14.2977
748 1 -1.1104 15.9994 1.22078 23.0121 23.9277
755 1 -1.1104 15.9994 9.86566 22.6544 26.5574
44 2 2.2208 232.038 8.39195 10.1269 14.2247
151 1 -1.1104 15.9994 4.33892 9.12515 26.9236
11 2 2.2208 232.038 8.43214 21.4012 14.1704
434 2 2.2208 232.038 2.84441 1.47799 16.8839
747 1 -1.1104 15.9994 12.8326 20.0041 26.6272
739 1 -1.1104 15.9994 9.86676 16.7581 26.3653
746 1 -1.1104 15.9994 12.722 20.0429 24.0011
438 2 2.2208 232.038 8.51186 1.3771 16.72
29 2 2.2208 232.038 2.75701 21.5392 14.3443
440 2 2.2208 232.038 5.55508 1.28193 19.4669
745 1 -1.1104 15.9994 12.6951 16.9486 26.4684
442 2 2.2208 232.038 11.186 1.19467 19.4418
366 3 -1.1104 15.9994 4.14485 6.37206 26.7771
444 2 2.2208 232.038 2.82662 7.25217 17.0422
445 2 2.2208 232.038 2.74354 4.40251 19.6119
362 2 2.2208 232.038 5.69275 7.20392 14.2469
447 2 2.2208 232.038 5.71772 4.21 16.8652
448 2 2.2208 232.038 8.46905 7.21641 16.7798
449 2 2.2208 232.038 8.51933 4.19404 19.4803
450 2 2.2208 232.038 5.64951 7.08154 19.7068
451 2 2.2208 232.038 11.2472 4.2321 16.8918
452 2 2.2208 232.038 11.1976 7.26484 19.6139
753 1 -1.1104 15.9994 9.83595 22.9524 23.9037
454 2 2.2208 232.038 2.79943 12.875 16.9349
455 2 2.2208 232.038 2.71449 9.89347 19.806
752 1 -1.1104 15.9994 6.99676 22.8213 23.9662
457 2 2.2208 232.038 5.58823 10.0718 16.9876
458 2 2.2208 232.038 8.36892 12.9772 16.9306
459 2 2.2208 232.038 8.37984 10.0104 19.5953
460 2 2.2208 232.038 5.47834 12.896 19.7328
461 2 2.2208 232.038 11.2619 10.1724 16.8572
462 2 2.2208 232.038 11.282 12.8533 19.6467
738 1 -1.1104 15.9994 6.94549 16.858 26.4857
464 2 2.2208 232.038 2.67246 18.5569 17.0226
465 2 2.2208 232.038 2.66964 15.6159 19.7723
754 1 -1.1104 15.9994 6.67794 22.5295 26.7772
467 2 2.2208 232.038 5.56868 15.6774 16.9802
468 2 2.2208 232.038 8.42298 18.6411 17.0002
469 2 2.2208 232.038 8.43923 15.7521 19.6827
470 2 2.2208 232.038 5.53227 18.4738 19.7135
471 2 2.2208 232.038 11.2793 15.7413 17.0415
472 2 2.2208 232.038 11.1412 18.5384 19.8086
386 3 -1.1104 15.9994 7.64428 19.6134 26.4911
744 1 -1.1104 15.9994 12.6862 17.1711 23.8546
475 2 2.2208 232.038 2.65365 21.3409 19.8897
756 1 -1.1104 15.9994 12.6453 22.8828 23.8901
477 2 2.2208 232.038 5.52893 21.3969 17.0987
530 2 2.2208 232.038 5.50877 24.31 25.2301
479 2 2.2208 232.038 8.2808 21.5975 19.9388
408 2 2.2208 232.038 8.15331 24.2175 28.0806
481 2 2.2208 232.038 11.0987 21.3409 17.0553
407 2 2.2208 232.038 8.56265 15.725 14.3384
737 1 -1.1104 15.9994 10.0152 17.1501 23.7669
484 2 2.2208 232.038 2.81199 1.07338 22.4374
485 2 2.2208 232.038 8.60336 12.8242 28.2014
35 2 2.2208 232.038 2.92242 4.34157 14.3962
1 2 2.2208 232.038 -0.0646827 18.6145 14.3462
488 2 2.2208 232.038 8.29775 1.26423 22.0869
186 1 -1.1104 15.9994 5.06335 20.0852 27.168
490 2 2.2208 232.038 5.90327 1.11458 24.9258
762 2 2.2208 232.038 2.9274 0.832587 27.0342
492 2 2.2208 232.038 11.0432 1.40684 25.0208
404 2 2.2208 232.038 0.0531009 7.23158 14.3496
494 2 2.2208 232.038 2.76865 7.02292 22.4331
495 2 2.2208 232.038 2.47384 3.87764 24.7582
528 2 2.2208 232.038 8.29649 24.2819 22.5439
497 2 2.2208 232.038 5.40379 4.13022 22.3858
498 2 2.2208 232.038 8.47433 7.2554 22.3948
499 2 2.2208 232.038 8.46405 4.14177 24.5045
500 2 2.2208 232.038 5.77115 7.11661 25.1453
501 2 2.2208 232.038 11.3156 4.36874 22.215
502 2 2.2208 232.038 11.1923 6.8847 25.2157
9048 2 2.2208 232.038 -0.12895 1.46073 14.1104
504 2 2.2208 232.038 2.75357 12.8609 22.5843
505 2 2.2208 232.038 2.90783 10.0497 25.3209
741 1 -1.1104 15.9994 9.86514 19.9942 24.0468
507 2 2.2208 232.038 5.68038 9.90531 22.3875
508 2 2.2208 232.038 8.32107 12.7949 22.3979
509 2 2.2208 232.038 8.47195 9.99732 25.2127
510 2 2.2208 232.038 5.64096 12.6691 25.1373
511 2 2.2208 232.038 11.1436 9.93106 22.427
512 2 2.2208 232.038 11.2398 12.8117 25.1781
742 1 -1.1104 15.9994 10.2835 19.7167 26.8154
514 2 2.2208 232.038 2.67596 18.413 22.6531
515 2 2.2208 232.038 2.65269 15.7989 25.555
453 2 2.2208 232.038 -0.0731988 10.0744 17.0205
517 2 2.2208 232.038 5.51737 15.7471 22.4719
518 2 2.2208 232.038 8.39975 18.5935 22.5289
519 2 2.2208 232.038 8.18713 15.5378 25.2129
520 2 2.2208 232.038 5.68347 18.5267 25.4388
521 2 2.2208 232.038 11.2174 15.5643 22.5616
522 2 2.2208 232.038 11.3092 18.5189 25.1561
757 1 -1.1104 15.9994 12.785 22.7835 26.6354
31 2 2.2208 232.038 5.63924 12.9605 14.3304
525 2 2.2208 232.038 2.51577 21.5476 25.1425
751 1 -1.1104 15.9994 3.71589 23.2036 26.2769
527 2 2.2208 232.038 5.38921 21.3813 22.5297
736 1 -1.1104 15.9994 6.91586 17.1279 23.7848
529 2 2.2208 232.038 8.51978 21.4415 25.2023
735 1 -1.1104 15.9994 2.42027 20.6366 27.4389
531 2 2.2208 232.038 11.2571 21.4857 22.5831
750 1 -1.1104 15.9994 1.2421 23.2808 26.7564
533 1 -1.1104 15.9994 1.36004 -0.0913715 15.2769
26 2 2.2208 232.038 2.75809 15.7555 14.3291
535 1 -1.1104 15.9994 1.229 2.72495 15.6416
536 1 -1.1104 15.9994 4.2309 2.79701 15.5423
537 1 -1.1104 15.9994 6.89695 -0.0912145 14.9691
538 1 -1.1104 15.9994 9.67005 0.105579 15.1312
539 1 -1.1104 15.9994 7.00188 2.85739 15.4443
540 1 -1.1104 15.9994 9.91757 2.82708 15.4641
541 1 -1.1104 15.9994 12.5268 -0.0384434 15.6886
542 1 -1.1104 15.9994 12.7275 2.79787 15.4244
543 1 -1.1104 15.9994 1.58098 5.51739 15.7076
544 1 -1.1104 15.9994 4.29304 5.7867 15.6651
545 1 -1.1104 15.9994 1.4052 8.5209 15.7141
546 1 -1.1104 15.9994 4.27838 8.56541 15.6994
547 1 -1.1104 15.9994 7.09299 5.63667 15.3999
548 1 -1.1104 15.9994 9.88063 5.59442 15.5159
549 1 -1.1104 15.9994 7.04155 8.60952 15.6029
550 1 -1.1104 15.9994 10.0186 8.54271 15.4392
551 1 -1.1104 15.9994 12.6405 5.67347 15.3603
552 1 -1.1104 15.9994 12.698 8.38838 15.4971
553 1 -1.1104 15.9994 1.39741 11.4936 15.593
554 1 -1.1104 15.9994 4.08323 11.461 15.7531
555 1 -1.1104 15.9994 1.25927 14.4415 15.709
556 1 -1.1104 15.9994 4.21469 14.3561 15.6688
557 1 -1.1104 15.9994 6.82555 11.4617 15.592
558 1 -1.1104 15.9994 9.49925 11.5676 15.4808
559 1 -1.1104 15.9994 7.01707 14.3213 15.5024
560 1 -1.1104 15.9994 9.76505 14.2323 15.6579
561 1 -1.1104 15.9994 12.2705 11.2423 15.3212
562 1 -1.1104 15.9994 12.4133 14.366 15.5211
563 1 -1.1104 15.9994 1.30297 17.1652 15.6284
564 1 -1.1104 15.9994 4.17053 17.193 15.7368
565 1 -1.1104 15.9994 1.26272 20.0866 15.6102
566 1 -1.1104 15.9994 4.24773 20.0799 15.6183
567 1 -1.1104 15.9994 7.06688 17.0832 15.6613
568 1 -1.1104 15.9994 9.91449 17.1329 15.6951
569 1 -1.1104 15.9994 7.03435 19.9759 15.6607
570 1 -1.1104 15.9994 9.72582 20.114 15.628
571 1 -1.1104 15.9994 12.5949 17.2067 15.597
572 1 -1.1104 15.9994 12.4562 20.071 15.6868
573 1 -1.1104 15.9994 1.25964 22.9625 15.6805
574 1 -1.1104 15.9994 4.07793 22.9435 15.6791
575 1 -1.1104 15.9994 7.08829 22.7764 15.8477
576 1 -1.1104 15.9994 9.81648 22.7706 15.609
577 1 -1.1104 15.9994 12.5322 22.8794 15.4804
578 1 -1.1104 15.9994 1.18857 -0.0155306 17.9675
579 1 -1.1104 15.9994 4.19668 -0.12536 18.025
580 1 -1.1104 15.9994 1.4307 0.114245 20.7795
581 1 -1.1104 15.9994 4.16225 -0.0945911 20.8254
582 1 -1.1104 15.9994 1.21948 2.76161 18.6227
583 1 -1.1104 15.9994 3.90168 2.83709 18.295
584 1 -1.1104 15.9994 1.45891 2.85871 22.5468
585 1 -1.1104 15.9994 3.98809 2.85798 20.9484
586 1 -1.1104 15.9994 7.06411 -0.198027 17.7826
587 1 -1.1104 15.9994 9.81774 -0.274435 18.0222
588 1 -1.1104 15.9994 6.98011 -0.224449 20.5473
589 1 -1.1104 15.9994 9.73523 -0.224485 20.9513
590 1 -1.1104 15.9994 6.81263 2.60751 18.0757
591 1 -1.1104 15.9994 9.67817 2.76033 18.0298
592 1 -1.1104 15.9994 6.97463 2.72471 20.8532
593 1 -1.1104 15.9994 9.75369 2.51489 20.6305
594 1 -1.1104 15.9994 12.5066 -0.233309 18.3051
595 1 -1.1104 15.9994 12.4938 -0.150427 21.1233
596 1 -1.1104 15.9994 12.5181 2.55241 18.168
597 1 -1.1104 15.9994 12.6454 2.80605 20.9312
598 1 -1.1104 15.9994 1.2521 5.81644 18.3587
599 1 -1.1104 15.9994 4.25132 5.68417 18.3105
600 1 -1.1104 15.9994 1.07717 5.58282 21.0215
601 1 -1.1104 15.9994 4.02062 5.74243 21.0085
602 1 -1.1104 15.9994 1.17202 8.67 18.3085
603 1 -1.1104 15.9994 3.94033 8.66697 18.4112
604 1 -1.1104 15.9994 1.50483 8.35737 21.1266
605 1 -1.1104 15.9994 4.33899 8.4307 21.1182
606 1 -1.1104 15.9994 7.14617 5.55616 18.0637
607 1 -1.1104 15.9994 9.8676 5.76481 18.2299
608 1 -1.1104 15.9994 6.84805 5.48087 20.9262
609 1 -1.1104 15.9994 9.71614 5.61404 20.843
610 1 -1.1104 15.9994 6.88227 8.54295 18.3863
611 1 -1.1104 15.9994 9.66244 8.6091 18.2153
612 1 -1.1104 15.9994 7.06048 8.61065 21.1244
613 1 -1.1104 15.9994 9.81502 8.48439 20.894
614 1 -1.1104 15.9994 12.5911 5.69264 18.1731
615 1 -1.1104 15.9994 12.5022 5.76901 20.8888
616 1 -1.1104 15.9994 12.7198 8.60042 18.31
617 1 -1.1104 15.9994 12.5703 8.5437 21.0717
618 1 -1.1104 15.9994 1.37791 11.3594 18.4592
619 1 -1.1104 15.9994 4.07329 11.4473 18.4294
620 1 -1.1104 15.9994 1.37728 11.4605 21.1487
621 1 -1.1104 15.9994 4.18082 11.3451 21.1589
622 1 -1.1104 15.9994 1.31929 14.3008 18.311
623 1 -1.1104 15.9994 4.07329 14.3617 18.4449
624 1 -1.1104 15.9994 1.32529 14.194 21.3048
625 1 -1.1104 15.9994 4.1149 14.181 21.1495
626 1 -1.1104 15.9994 6.99626 11.331 18.2229
627 1 -1.1104 15.9994 9.87643 11.4609 18.1823
628 1 -1.1104 15.9994 6.97385 11.4186 20.9111
629 1 -1.1104 15.9994 9.81161 11.4815 20.9606
630 1 -1.1104 15.9994 6.7289 14.3103 18.3325
631 1 -1.1104 15.9994 9.56002 14.1678 18.3572
632 1 -1.1104 15.9994 6.93604 14.2484 21.0833
633 1 -1.1104 15.9994 9.70228 14.3561 21.1081
634 1 -1.1104 15.9994 12.5561 11.3322 18.5578
635 1 -1.1104 15.9994 12.5822 11.3667 21.2677
636 1 -1.1104 15.9994 12.4622 14.4209 18.5471
637 1 -1.1104 15.9994 12.7371 14.1944 21.301
638 1 -1.1104 15.9994 1.26064 17.0057 18.3574
639 1 -1.1104 15.9994 4.09387 17.0917 18.4302
640 1 -1.1104 15.9994 1.42247 17.047 21.2016
641 1 -1.1104 15.9994 4.18056 17.1118 21.0511
642 1 -1.1104 15.9994 1.34921 19.7983 18.3488
643 1 -1.1104 15.9994 4.20565 19.9862 18.4747
644 1 -1.1104 15.9994 1.40658 19.8474 21.0437
645 1 -1.1104 15.9994 3.97255 19.9535 21.2949
646 1 -1.1104 15.9994 6.90836 17.0666 18.3186
647 1 -1.1104 15.9994 9.75843 17.1722 18.3409
648 1 -1.1104 15.9994 6.99395 17.1453 21.0963
649 1 -1.1104 15.9994 9.88298 17.1375 21.0911
650 1 -1.1104 15.9994 6.90792 19.8661 18.3434
651 1 -1.1104 15.9994 9.73258 19.9396 18.4061
652 1 -1.1104 15.9994 6.94091 20.1816 21.11
653 1 -1.1104 15.9994 9.7411 20.1712 21.3173
654 1 -1.1104 15.9994 12.4496 17.2248 18.3884
655 1 -1.1104 15.9994 12.5982 17.0752 21.3185
656 1 -1.1104 15.9994 12.5215 20.0021 18.5159
657 1 -1.1104 15.9994 12.763 19.9845 21.2387
658 1 -1.1104 15.9994 1.28922 22.763 18.3735
659 1 -1.1104 15.9994 4.10117 22.8429 18.4992
660 1 -1.1104 15.9994 1.17805 22.8141 21.1654
661 1 -1.1104 15.9994 4.03098 22.8849 21.1859
662 1 -1.1104 15.9994 6.95644 22.8045 18.4736
663 1 -1.1104 15.9994 9.81039 22.7344 18.5111
664 1 -1.1104 15.9994 6.79652 22.9781 21.2701
665 1 -1.1104 15.9994 9.78265 22.9421 21.1893
666 1 -1.1104 15.9994 12.6587 22.8335 18.3198
667 1 -1.1104 15.9994 12.6167 22.8437 21.1208
668 1 -1.1104 15.9994 1.28427 -0.418464 23.4959
669 1 -1.1104 15.9994 4.17032 -0.401056 23.4791
670 1 -1.1104 15.9994 1.3636 -0.810675 26.316
671 1 -1.1104 15.9994 4.41822 -0.503939 26.0633
672 1 -1.1104 15.9994 2.21207 1.69843 25.0367
673 1 -1.1104 15.9994 4.29152 2.56291 23.7225
674 1 -1.1104 15.9994 0.510671 1.79184 27.3747
675 1 -1.1104 15.9994 4.72957 2.19907 26.6113
676 1 -1.1104 15.9994 6.98286 -0.351529 23.4085
677 1 -1.1104 15.9994 9.69228 -0.130299 23.5668
678 1 -1.1104 15.9994 7.05835 -0.514811 26.1704
679 1 -1.1104 15.9994 9.86716 -0.323246 26.1428
680 1 -1.1104 15.9994 6.83081 2.53418 23.3778
681 1 -1.1104 15.9994 9.96017 2.65805 23.3745
682 1 -1.1104 15.9994 7.90865 2.06464 25.9198
683 1 -1.1104 15.9994 10.3494 3.47984 25.8328
684 1 -1.1104 15.9994 12.4286 -0.0232776 23.9236
685 1 -1.1104 15.9994 12.6097 -0.783302 27.1689
686 1 -1.1104 15.9994 12.6257 2.87743 23.7043
687 1 -1.1104 15.9994 12.6844 2.15973 26.3692
503 2 2.2208 232.038 0.00423055 9.9472 22.5802
689 1 -1.1104 15.9994 4.12458 5.47497 23.931
690 1 -1.1104 15.9994 0.65141 5.78653 26.8609
691 1 -1.1104 15.9994 2.73846 3.75778 26.9613
692 1 -1.1104 15.9994 1.50991 8.54951 23.8324
693 1 -1.1104 15.9994 4.31232 8.49665 23.9613
694 1 -1.1104 15.9994 1.52311 8.45728 26.6194
695 1 -1.1104 15.9994 1.3711 5.74369 23.7695
696 1 -1.1104 15.9994 7.09972 5.61338 23.4739
697 1 -1.1104 15.9994 9.94273 5.70898 23.5549
698 1 -1.1104 15.9994 6.60038 4.74768 25.7406
699 1 -1.1104 15.9994 9.02717 5.85019 26.2222
700 1 -1.1104 15.9994 7.12713 8.42665 23.8171
701 1 -1.1104 15.9994 9.88201 8.6102 23.7338