LAMMPS (29 Oct 2020)
OMP_NUM_THREADS environment is not set. Defaulting to 1 thread. (../comm.cpp:94)
  using 1 OpenMP thread(s) per MPI task
OMP_NUM_THREADS environment is not set. Defaulting to 1 thread. (../comm.cpp:94)
  using 1 OpenMP thread(s) per MPI task
Reading data file ...
  orthogonal box = (-0.27717828 -3.4472206 -0.27717828) to (27.617178 331.52722 27.617178)
  2 by 13 by 2 MPI processor grid
  reading atoms ...
  18000 atoms
  reading velocities ...
  18000 velocities
Finding 1-2 1-3 1-4 neighbors ...
  special bond factors lj:    0.0      0.0      0.0     
  special bond factors coul:  0.0      0.0      0.0     
     0 = max # of 1-2 neighbors
     0 = max # of 1-3 neighbors
     0 = max # of 1-4 neighbors
     1 = max # of special neighbors
  special bonds CPU = 0.004 seconds
  read_data CPU = 0.057 seconds
90 atoms in group Th
90 atoms in group O
Setting atom values ...
  90 settings made for type
Setting atom values ...
  90 settings made for type
Setting atom values ...
  12000 settings made for charge
Setting atom values ...
  6000 settings made for charge
PPPM initialization ...
  using 12-bit tables for long-range coulomb (../kspace.cpp:328)
  G vector (1/distance) = 0.2991486
  grid = 40 240 40
  stencil order = 5
  estimated absolute RMS force accuracy = 0.00015521489
  estimated relative force accuracy = 1.0779078e-05
  using single precision MKL FFT
  3d grid and FFT values/proc = 18225 7600
Neighbor list info ...
  update every 1 steps, delay 0 steps, check yes
  max neighbors/atom: 2000, page size: 100000
  master list distance cutoff = 13
  ghost atom cutoff = 13
  binsize = 6.5, bins = 5 52 5
  2 neighbor lists, perpetual/occasional/extra = 2 0 0
  (1) pair coul/long, perpetual
      attributes: half, newton on
      pair build: half/bin/newton
      stencil: half/bin/3d/newton
      bin: standard
  (2) pair eam/alloy, perpetual, copy from (1)
      attributes: half, newton on
      pair build: copy
      stencil: none
      bin: none
Setting up cg style minimization ...
  Unit style    : metal
  Current step  : 0
WARNING: Energy due to 3 extra global DOFs will be included in minimizer energies
Per MPI rank memory allocation (min/avg/max) = 9.513 | 10.22 | 10.28 Mbytes
Step Temp E_pair E_mol TotEng Press Volume 
       0            0   -223404.58            0   -223404.58    42412.933    260641.98 
    2280            0   -233823.48            0   -233823.48    105.65732    268728.24 
Loop time of 34.1421 on 52 procs for 2280 steps with 18000 atoms

99.8% CPU use with 52 MPI tasks x 1 OpenMP threads

Minimization stats:
  Stopping criterion = linesearch alpha is zero
  Energy initial, next-to-last, final = 
     -223404.575643803  -233823.482933581  -233823.482933581
  Force two-norm initial, final = 13098.711 41.933406
  Force max component initial, final = 10141.283 23.339802
  Final line search alpha, max atom move = 5.1075535e-12 1.1920929e-10
  Iterations, force evaluations = 2280 3212

MPI task timing breakdown:
Section |  min time  |  avg time  |  max time  |%varavg| %total
---------------------------------------------------------------
Pair    | 20.28      | 21.22      | 22.134     |   9.4 | 62.15
Bond    | 0.00030071 | 0.00040012 | 0.00071183 |   0.0 |  0.00
Kspace  | 4.809      | 5.7187     | 6.6775     |  18.4 | 16.75
Neigh   | 0.06782    | 0.078165   | 0.089343   |   2.0 |  0.23
Comm    | 0.49289    | 0.51878    | 0.53659    |   1.5 |  1.52
Output  | 0          | 0          | 0          |   0.0 |  0.00
Modify  | 0          | 0          | 0          |   0.0 |  0.00
Other   |            | 6.606      |            |       | 19.35

Nlocal:        346.154 ave         392 max         306 min
Histogram: 4 6 8 6 2 7 7 7 2 3
Nghost:        5596.48 ave        5699 max        5479 min
Histogram: 1 9 5 8 0 1 6 10 10 2
Neighs:       109443.0 ave      124465 max       97193 min
Histogram: 5 6 6 7 4 8 7 4 3 2

Total # of neighbors = 5691040
Ave neighs/atom = 316.16889
Ave special neighs/atom = 0.0000000
Neighbor list builds = 27
Dangerous builds = 0
PPPM initialization ...
  using 12-bit tables for long-range coulomb (../kspace.cpp:328)
  G vector (1/distance) = 0.29864975
  grid = 40 240 40
  stencil order = 5
  estimated absolute RMS force accuracy = 0.00015893325
  estimated relative force accuracy = 1.1037303e-05
  using single precision MKL FFT
  3d grid and FFT values/proc = 18225 7600
Setting up Verlet run ...
  Unit style    : metal
  Current step  : 0
  Time step     : 0.001
Per MPI rank memory allocation (min/avg/max) = 10.38 | 10.41 | 10.42 Mbytes
Step Dt Time Atoms Temp PotEng KinEng Press Volume v_latt 
       0        0.001            0    18000         1500   -233823.49      3489.83    13976.396    268728.24    5.6373768 
   10000        0.001           10    18000    1513.6194   -232118.74    3521.5163   -13.929025    275847.32    5.6866854 
   20000        0.001           20    18000    1490.1792   -232172.43    3466.9814   -1285.5391    275863.95       5.6868 
   30000        0.001           30    18000    1489.6789   -232196.11    3465.8174   -338.11315    275652.78    5.6853479 
   40000        0.001           40    18000    1491.3492   -232136.09    3469.7034   -2099.2517    276084.01    5.6883116 
   50000        0.001           50    18000    1516.2055   -232152.22    3527.5329    1404.7394    275545.87    5.6846139 
   60000        0.001           60    18000    1505.9254    -232207.1    3503.6159    251.48307    275635.92    5.6852338 
   70000        0.001           70    18000    1493.7325   -232257.87    3475.2484   -205.92707    275494.25    5.6842592 
   80000        0.001           80    18000    1497.4548   -232235.76    3483.9084   -945.92909    275681.68     5.685547 
   90000        0.001           90    18000    1514.5279   -232201.04      3523.63    48.214559    275692.85    5.6856244 
  100000        0.001          100    18000    1495.8191   -232220.94     3480.103   -1810.8004    275753.25    5.6860394 
Loop time of 819.216 on 52 procs for 100000 steps with 18000 atoms

Performance: 10.547 ns/day, 2.276 hours/ns, 122.068 timesteps/s
99.8% CPU use with 52 MPI tasks x 1 OpenMP threads

MPI task timing breakdown:
Section |  min time  |  avg time  |  max time  |%varavg| %total
---------------------------------------------------------------
Pair    | 518.63     | 528.76     | 538.3      |  22.3 | 64.55
Bond    | 0.0090569  | 0.013449   | 0.018772   |   2.0 |  0.00
Kspace  | 149.98     | 160.16     | 170.67     |  42.0 | 19.55
Neigh   | 9.5773     | 9.9119     | 10.377     |   7.0 |  1.21
Comm    | 16.436     | 16.877     | 17.324     |   5.2 |  2.06
Output  | 0.0095201  | 0.0095768  | 0.011593   |   0.3 |  0.00
Modify  | 92.145     | 96.311     | 100.79     |  22.8 | 11.76
Other   |            | 7.167      |            |       |  0.87

Nlocal:        346.154 ave         369 max         330 min
Histogram: 2 2 13 11 9 4 6 3 0 2
Nghost:        5397.63 ave        5552 max        5235 min
Histogram: 4 2 6 8 6 6 5 7 3 5
Neighs:       105006.0 ave      113302 max       98328 min
Histogram: 1 4 3 17 11 5 6 2 1 2

Total # of neighbors = 5460288
Ave neighs/atom = 303.34933
Ave special neighs/atom = 0.0000000
Neighbor list builds = 3452
Dangerous builds = 0
System init for write_data ...
PPPM initialization ...
  using 12-bit tables for long-range coulomb (../kspace.cpp:328)
  G vector (1/distance) = 0.29809046
  grid = 40 240 40
  stencil order = 5
  estimated absolute RMS force accuracy = 0.00016390783
  estimated relative force accuracy = 1.1382769e-05
  using single precision MKL FFT
  3d grid and FFT values/proc = 18225 7600
Total wall time: 0:14:13
