ITEM: TIMESTEP
90000
ITEM: NUMBER OF ATOMS
17640
ITEM: BOX BOUNDS pp pp pp
-3.5377482889130479e-01 2.7693774828891446e+01
-4.1955897438251171e+00 3.3227558974384664e+02
-3.5735973331343585e-01 2.7697359733312751e+01
ITEM: ATOMS id type q x y z
1 2 2.2208 5.08257 1.40388 5.30876
2 1 -1.1104 0.955331 -2.49034 1.07742
3 1 -1.1104 0.910202 3.05805 1.08619
6 1 -1.1104 0.976083 -2.741 3.79499
7 1 -1.1104 0.877462 2.94226 3.88308
10 1 -1.1104 0.655613 0.20721 1.06608
12 2 2.2208 5.1002 -1.36286 2.32679
14 1 -1.1104 0.840497 0.12502 3.87707
16 1 -1.1104 3.66021 -2.65525 0.916385
17 1 -1.1104 3.65624 3.01712 1.16975
18 2 2.2208 2.19675 1.55748 2.39038
19 1 -1.1104 3.74112 -2.8044 3.79307
20 1 -1.1104 3.68304 2.72005 3.99914
21 2 2.2208 2.30084 -1.29902 5.1217
23 1 -1.1104 3.52415 0.195722 1.06804
24 1 -1.1104 3.67082 -0.119175 3.7911
13 2 2.2208 5.07566 4.28004 2.47758
22 2 2.2208 2.31938 4.23061 5.27809
4 1 -1.1104 6.51591 -2.73384 0.938076
15 1 -1.1104 6.482 -0.0142697 3.84756
5 1 -1.1104 6.41744 3.00844 1.15424
8 1 -1.1104 6.56422 -2.73658 3.78697
9 1 -1.1104 6.51197 2.95107 3.86954
174 1 -1.1104 3.603 -0.0614978 6.61429
168 1 -1.1104 6.48551 -2.892 6.53191
11 1 -1.1104 6.38183 0.0862447 1.04978
203 2 2.2208 5.14705 -4.17775 10.9933
29 2 2.2208 5.16304 -4.16153 5.13712
28 2 2.2208 2.36683 -4.04024 2.46923
202 2 2.2208 2.33132 -4.02663 8.02953
31 2 2.2208 10.6987 1.56253 5.31108
32 1 -1.1104 12.0549 -2.46638 0.929373
33 1 -1.1104 12.0165 3.03703 0.94836
34 1 -1.1104 12.2978 -2.71028 3.82911
35 1 -1.1104 12.1913 3.02658 3.88203
36 1 -1.1104 12.0808 0.20791 0.982104
37 2 2.2208 10.6913 -1.22557 2.53186
39 1 -1.1104 12.072 0.200862 3.79154
40 1 -1.1104 9.36209 -2.70651 1.0676
41 1 -1.1104 9.13927 2.99892 1.06292
42 2 2.2208 7.84831 1.48157 2.56425
43 1 -1.1104 9.39999 -2.60753 3.78346
44 1 -1.1104 9.32591 2.89898 3.89446
45 2 2.2208 7.9305 -1.40292 5.20843
47 1 -1.1104 9.26749 0.0414534 1.13865
48 1 -1.1104 9.35853 0.101304 4.00094
46 2 2.2208 7.91171 4.32076 5.20018
38 2 2.2208 10.5126 4.29213 2.49862
206 1 -1.1104 12.0703 2.86086 6.69209
53 2 2.2208 13.5331 -4.08395 2.4895
208 1 -1.1104 9.46569 -2.71262 6.55727
104 2 2.2208 13.6234 15.4678 10.8696
9130 2 2.2208 13.4937 4.34282 5.29809
49 2 2.2208 13.4061 1.55329 2.40467
365 2 2.2208 7.98165 18.2245 13.5171
210 1 -1.1104 9.32509 0.132019 6.60341
50 2 2.2208 13.6161 -1.24751 5.20083
233 2 2.2208 13.5132 -4.19607 8.04231
54 2 2.2208 5.06272 7.10446 5.23177
55 2 2.2208 5.1442 12.6402 5.23875
56 1 -1.1104 0.878301 8.54347 0.882288
58 1 -1.1104 0.930325 8.53713 3.74045
60 1 -1.1104 0.893859 5.80327 0.893566
61 1 -1.1104 0.931889 11.3095 0.872245
66 2 2.2208 5.02684 9.85836 2.45801
67 1 -1.1104 0.994784 5.72823 3.80182
68 1 -1.1104 0.812403 11.2375 3.66637
71 1 -1.1104 3.62829 8.42626 0.954332
72 2 2.2208 2.30867 7.09582 2.39065
73 2 2.2208 2.32096 12.7142 2.2659
74 1 -1.1104 3.65919 8.59013 3.78029
75 2 2.2208 2.28075 9.95868 5.101
76 1 -1.1104 3.60575 5.83578 1.02298
77 1 -1.1104 3.74077 11.2719 0.957181
79 1 -1.1104 3.61502 5.65696 3.86612
80 1 -1.1104 3.70807 11.3051 3.8051
63 1 -1.1104 6.42711 5.8892 0.987209
234 1 -1.1104 0.914864 8.45043 6.73599
70 1 -1.1104 6.40853 11.3674 3.81104
57 1 -1.1104 6.49936 8.66224 1.06023
59 1 -1.1104 6.41309 8.46348 3.96463
64 1 -1.1104 6.57642 11.2738 1.04309
62 1 -1.1104 0.928838 11.4474 6.57801
69 1 -1.1104 6.38866 5.83884 3.64872
237 1 -1.1104 6.4649 5.60123 6.45175
351 2 2.2208 7.93012 1.56757 13.6343
78 1 -1.1104 3.74149 11.3476 6.68129
324 2 2.2208 10.816 21.023 8.08133
319 1 -1.1104 9.4508 14.098 9.34105
9424 2 2.2208 13.4934 12.6239 2.43013
84 2 2.2208 10.6332 7.151 5.17749
85 2 2.2208 10.672 12.695 5.29551
86 1 -1.1104 12.0836 8.45571 1.01979
87 1 -1.1104 12.1202 8.50491 3.77932
88 1 -1.1104 12.0302 5.65748 0.910043
89 1 -1.1104 12.145 11.3074 0.971677
91 2 2.2208 10.7803 9.92929 2.26962
92 1 -1.1104 12.0557 5.74389 3.67049
93 1 -1.1104 12.0963 11.4247 3.76338
94 1 -1.1104 9.33818 8.55923 0.879795
95 2 2.2208 7.84934 7.16673 2.51477
96 2 2.2208 7.94217 12.6122 2.3999
97 1 -1.1104 9.45208 8.53341 3.67529
98 2 2.2208 7.90371 9.77157 5.26124
99 1 -1.1104 9.18146 5.95866 1.1271
100 1 -1.1104 9.40279 11.2897 1.03609
102 1 -1.1104 9.29679 5.74862 3.83449
103 1 -1.1104 9.22486 11.2879 3.89658
101 1 -1.1104 9.36324 11.3846 6.56511
265 1 -1.1104 11.944 8.47159 6.70936
90 1 -1.1104 12.1192 11.3297 6.6151
9425 2 2.2208 13.4562 7.09132 2.32917
9159 2 2.2208 13.2789 9.95618 5.20335
327 1 -1.1104 12.1278 19.792 9.51788
316 2 2.2208 7.88904 21.1876 10.6884
51 2 2.2208 8.02778 -4.17982 2.32254
106 2 2.2208 5.08558 18.3557 5.10525
107 1 -1.1104 0.929422 14.0821 0.833274
109 1 -1.1104 0.941149 19.6085 0.984874
113 1 -1.1104 0.958137 14.0426 3.7332
114 1 -1.1104 0.920853 19.4975 3.61438
116 1 -1.1104 1.05824 16.7856 0.852784
119 2 2.2208 5.19786 15.3787 2.27267
120 2 2.2208 5.18401 21.0346 2.32389
121 1 -1.1104 0.756306 16.7861 3.69245
123 1 -1.1104 3.85489 14.1047 0.822579
125 1 -1.1104 3.79594 19.694 0.90316
127 2 2.2208 2.43994 18.168 2.36415
128 1 -1.1104 3.80105 14.0192 3.7307
129 1 -1.1104 3.72521 19.5989 3.68655
130 2 2.2208 2.30042 15.4795 5.14763
131 2 2.2208 2.26812 20.8952 5.17926
132 1 -1.1104 3.82194 16.9881 0.739984
134 1 -1.1104 3.87234 16.7606 3.6194
122 1 -1.1104 6.59352 16.863 3.85377
139 1 -1.1104 6.55877 19.6558 3.78067
138 1 -1.1104 6.56485 19.76 0.90381
140 1 -1.1104 6.66532 16.8958 1.00026
115 1 -1.1104 6.63086 14.0493 3.64887
302 1 -1.1104 0.872614 19.5029 6.56513
117 1 -1.1104 0.920615 16.799 6.46403
110 1 -1.1104 6.54619 14.1231 0.913423
133 1 -1.1104 3.73637 16.9741 6.45168
112 1 -1.1104 6.54056 19.5694 6.48027
108 1 -1.1104 0.862629 14.154 6.52095
124 1 -1.1104 3.67564 14.1361 6.57751
111 1 -1.1104 6.47088 13.9807 6.51721
118 1 -1.1104 6.69462 16.7903 6.46713
336 2 2.2208 2.33931 -4.0682 13.7021
9228 2 2.2208 13.3914 15.4091 5.07746
141 2 2.2208 10.7322 18.3441 5.21874
142 1 -1.1104 12.0145 14.1308 0.884889
144 1 -1.1104 12.1598 19.7504 0.985857
146 1 -1.1104 12.1354 14.0545 3.65335
147 1 -1.1104 12.2416 19.6462 3.79105
148 1 -1.1104 12.0733 17.0563 0.952473
150 2 2.2208 10.7976 15.5334 2.39563
151 2 2.2208 10.7825 21.1663 2.45095
152 1 -1.1104 12.1061 16.7584 3.79129
153 1 -1.1104 9.32267 14.0382 1.0075
155 1 -1.1104 9.41397 19.7612 0.929728
157 2 2.2208 8.00213 18.3787 2.29278
158 1 -1.1104 9.40873 14.1834 3.71276
159 1 -1.1104 9.38925 19.9075 3.65412
160 2 2.2208 8.0013 15.4226 5.01315
161 2 2.2208 7.97353 21.0246 5.18631
162 1 -1.1104 9.46989 16.7829 0.915857
164 1 -1.1104 9.46069 17.0238 3.59767
143 1 -1.1104 12.0154 14.0031 6.58756
9207 2 2.2208 13.5395 21.052 5.24688
145 1 -1.1104 12.1432 19.637 6.68178
154 1 -1.1104 9.14181 14.1799 6.55633
9427 2 2.2208 13.5415 18.2329 2.39236
165 1 -1.1104 12.1434 13.9874 12.2755
317 2 2.2208 7.94581 15.4342 10.8343
173 1 -1.1104 3.74227 2.84823 6.6809
170 1 -1.1104 0.917931 0.0610818 6.67951
166 1 -1.1104 0.827494 -2.68788 6.85851
167 1 -1.1104 0.84146 2.83909 6.67568
172 1 -1.1104 3.57281 -2.59537 6.54233
169 1 -1.1104 6.43019 2.79173 6.70885
171 1 -1.1104 6.72108 0.0457881 6.68266
175 2 2.2208 5.10183 1.66625 10.8273
176 1 -1.1104 0.944795 -2.71692 12.3781
177 1 -1.1104 0.950333 2.93258 12.4014
180 1 -1.1104 1.0658 -2.6366 9.64382
181 1 -1.1104 0.91951 3.00531 9.55457
184 1 -1.1104 0.938084 0.136685 12.2729
186 2 2.2208 5.01821 -1.26862 8.07676
188 1 -1.1104 0.832506 0.136554 9.4145
190 1 -1.1104 3.80728 -2.65756 12.261
191 1 -1.1104 3.71047 2.98702 12.1011
192 2 2.2208 2.28346 1.43476 7.9656
193 1 -1.1104 3.84213 -2.68654 9.52449
194 1 -1.1104 3.69838 2.9233 9.38373
195 2 2.2208 2.35302 -1.25117 10.9324
197 1 -1.1104 3.89365 0.13584 12.2129
198 1 -1.1104 3.7238 0.139829 9.35579
187 2 2.2208 5.15304 4.35073 7.91496
196 2 2.2208 2.14095 4.44129 10.9079
179 1 -1.1104 6.47303 3.0237 12.3683
183 1 -1.1104 6.5206 3.01886 9.47195
315 1 -1.1104 9.24137 16.9334 12.1623
182 1 -1.1104 6.52212 -2.61824 9.442
185 1 -1.1104 6.6483 -0.0341132 12.2406
323 1 -1.1104 12.1336 16.9162 9.32273
330 2 2.2208 13.5356 4.25217 10.9351
207 1 -1.1104 12.1113 0.242076 6.52922
209 1 -1.1104 9.20118 2.85924 6.63461
189 1 -1.1104 6.33855 0.0966766 9.47847
178 1 -1.1104 6.54742 -2.80278 12.2885
205 1 -1.1104 11.9872 -2.71411 6.62631
211 2 2.2208 10.7183 1.4153 10.8426
212 1 -1.1104 12.0562 -2.67544 12.2691
213 1 -1.1104 12.1278 2.74851 12.3048
214 1 -1.1104 12.2136 -2.87955 9.49837
215 1 -1.1104 12.1601 2.89202 9.44093
216 1 -1.1104 12.2173 0.0186567 12.2155
217 2 2.2208 10.7147 -1.29947 7.97555
218 2 2.2208 10.6726 4.29552 8.14684
219 1 -1.1104 12.0988 -0.029559 9.40042
220 1 -1.1104 9.34309 -2.65818 12.2279
221 1 -1.1104 9.34733 2.93066 12.3516
222 2 2.2208 7.89294 1.5872 8.16117
223 1 -1.1104 9.35768 -2.6173 9.37151
224 1 -1.1104 9.37167 2.92352 9.48001
225 2 2.2208 7.87672 -1.25994 10.8129
227 1 -1.1104 9.44321 0.132221 12.3062
228 1 -1.1104 9.20144 0.245229 9.53335
226 2 2.2208 7.86881 4.35318 10.9054
318 1 -1.1104 9.26689 19.6192 9.27804
229 2 2.2208 13.4937 1.56643 8.04152
321 1 -1.1104 9.21352 19.6819 12.0921
230 2 2.2208 13.5825 -1.33168 10.8441
105 2 2.2208 10.5836 18.2412 10.6736
236 1 -1.1104 0.866938 5.65913 6.59477
235 1 -1.1104 6.30568 8.41099 6.69543
239 1 -1.1104 3.68611 5.81787 6.68301
238 1 -1.1104 3.69656 8.60513 6.57761
240 2 2.2208 5.13001 7.06315 10.8168
241 2 2.2208 5.04705 12.8314 10.7462
242 1 -1.1104 0.823904 8.45596 12.2154
244 1 -1.1104 0.761441 8.5766 9.43286
246 1 -1.1104 0.846895 5.86476 12.1937
247 1 -1.1104 0.87068 11.1275 12.2646
250 2 2.2208 5.10918 9.95426 7.95153
251 1 -1.1104 0.924738 5.79691 9.42212
252 1 -1.1104 0.942622 11.3046 9.33308
255 1 -1.1104 3.63535 8.66175 12.1193
256 2 2.2208 2.34071 7.1105 8.0333
257 2 2.2208 2.41449 12.706 8.06534
258 1 -1.1104 3.68683 8.49178 9.36861
259 2 2.2208 2.23619 9.74333 10.707
260 1 -1.1104 3.62457 5.80239 12.4145
261 1 -1.1104 3.786 11.4442 12.221
262 1 -1.1104 3.75999 5.73076 9.42719
263 1 -1.1104 3.74264 11.2241 9.41709
245 1 -1.1104 6.46859 8.60446 9.5709
65 1 -1.1104 6.60464 11.1984 6.61311
253 1 -1.1104 6.53798 5.78267 9.26221
248 1 -1.1104 6.4229 5.64175 12.1995
254 1 -1.1104 6.49198 11.1441 9.39478
249 1 -1.1104 6.54487 11.3209 12.2716
243 1 -1.1104 6.42714 8.48383 12.3704
329 1 -1.1104 11.9959 19.7625 12.2492
325 2 2.2208 10.721 15.54 7.99736
9342 2 2.2208 13.511 12.7292 8.10592
266 1 -1.1104 11.9895 5.7531 6.47662
269 1 -1.1104 9.29045 5.77777 6.68001
9341 2 2.2208 13.5719 7.00324 8.08091
331 2 2.2208 13.5456 9.89063 10.9289
267 1 -1.1104 9.36926 8.51947 6.61089
285 1 -1.1104 9.20507 8.56157 12.2586
284 1 -1.1104 12.106 11.2693 9.50788
283 1 -1.1104 12.1277 5.53934 9.31888
264 1 -1.1104 9.37253 11.1856 9.30989
268 1 -1.1104 9.25075 5.68027 9.47733
270 1 -1.1104 9.36662 11.2498 12.3106
271 1 -1.1104 9.2612 5.74315 12.3196
272 2 2.2208 7.95306 9.99322 10.8316
273 1 -1.1104 9.27448 8.44825 9.50239
274 2 2.2208 7.8825 12.5776 8.00573
275 2 2.2208 7.92341 7.15194 8.12118
276 2 2.2208 10.6593 7.11365 10.8772
277 2 2.2208 10.6901 12.5814 10.9011
278 1 -1.1104 12.0692 8.36475 12.1964
279 1 -1.1104 12.1485 8.54063 9.3561
280 1 -1.1104 12.1798 5.62556 12.2928
281 1 -1.1104 12.0811 11.2467 12.321
282 2 2.2208 10.722 9.8715 8.05157
326 1 -1.1104 12.1339 16.8081 12.1916
320 2 2.2208 7.95761 18.332 7.94767
322 1 -1.1104 9.31388 13.9888 12.1333
126 1 -1.1104 3.6744 19.647 6.56292
328 1 -1.1104 12.1844 14.072 9.51619
306 1 -1.1104 6.58484 16.9336 12.1582
290 1 -1.1104 6.47861 13.9307 9.39434
288 1 -1.1104 6.48636 19.6669 9.33595
307 1 -1.1104 0.931808 16.8205 12.0433
308 1 -1.1104 3.78313 17.0008 12.1436
287 1 -1.1104 3.73404 14.1904 12.1429
309 2 2.2208 2.29421 20.9684 10.7198
310 2 2.2208 2.32077 15.4604 10.7459
286 1 -1.1104 3.81269 19.7373 12.1102
294 1 -1.1104 0.978167 14.13 9.31776
298 1 -1.1104 0.887805 19.6326 12.2139
303 2 2.2208 2.30706 18.0965 7.94964
304 1 -1.1104 3.69902 16.7459 9.3748
299 1 -1.1104 0.958424 14.0335 12.1451
305 1 -1.1104 3.73311 14.1634 9.36249
300 2 2.2208 5.22728 18.2154 10.7741
293 2 2.2208 5.07268 21.019 7.9099
301 1 -1.1104 3.68374 19.4576 9.38206
292 1 -1.1104 0.991346 16.9002 9.34867
295 2 2.2208 5.20773 15.5363 7.95897
291 1 -1.1104 0.845551 19.6671 9.28834
296 1 -1.1104 6.58177 19.7105 12.0721
289 1 -1.1104 6.55726 16.878 9.28829
297 1 -1.1104 6.65836 14.0778 12.2645
9426 2 2.2208 13.5528 18.295 8.00974
163 1 -1.1104 9.34769 16.9732 6.62891
156 1 -1.1104 9.2967 19.7672 6.54964
149 1 -1.1104 12.0995 16.8797 6.50881
314 1 -1.1104 9.34218 16.8785 9.42758
361 2 2.2208 5.02747 21.0797 13.6016
362 2 2.2208 5.21599 15.5543 13.5522
355 2 2.2208 5.12883 10.0307 13.6352
52 2 2.2208 10.7875 -4.16935 5.24282
337 2 2.2208 5.16402 -1.37132 13.6261
360 2 2.2208 2.2673 18.1788 13.4256
231 2 2.2208 7.98039 -4.06071 8.03769
364 2 2.2208 10.6753 15.4247 13.5438
356 2 2.2208 2.38296 12.7127 13.5446
9392 2 2.2208 13.4656 21.2652 10.8216
349 2 2.2208 10.7345 18.3803 -0.414019
370 2 2.2208 10.5936 1.6655 -0.334623
377 2 2.2208 13.511 -1.2229 -0.346552
379 2 2.2208 5.1046 7.15891 -0.485167
367 2 2.2208 2.4137 -1.20396 -0.419031
649 2 2.2208 10.8559 -4.09346 -0.319216
9430 2 2.2208 13.5768 18.2766 13.5907
9439 2 2.2208 13.5269 7.02559 13.5973
357 2 2.2208 7.76789 7.14014 13.6621
339 2 2.2208 2.3169 1.47235 13.6857
388 2 2.2208 5.24051 1.62407 16.5738
389 1 -1.1104 0.893847 -2.73703 17.8719
390 1 -1.1104 0.948716 3.04284 17.9844
393 1 -1.1104 0.950458 -2.68399 15.0917
395 1 -1.1104 0.924158 2.8716 15.0177
401 1 -1.1104 0.989692 0.101081 17.8455
403 2 2.2208 5.14487 -1.36478 19.2682
405 1 -1.1104 0.842277 0.116365 14.9486
409 1 -1.1104 3.67733 -2.61472 17.7022
410 1 -1.1104 3.70476 2.89777 17.8801
411 2 2.2208 2.33247 1.41724 19.2994
412 1 -1.1104 3.79772 -2.66878 14.9498
414 1 -1.1104 3.77838 2.82166 15.0815
416 2 2.2208 2.38917 -1.3271 16.361
417 2 2.2208 2.3167 4.23918 16.4465
418 1 -1.1104 3.73861 0.070898 17.7949
419 1 -1.1104 3.59804 -0.0457192 14.8725
404 2 2.2208 5.15642 4.2517 19.3777
396 1 -1.1104 1.02009 2.85473 20.6475
391 1 -1.1104 6.47344 -2.65328 17.8806
406 1 -1.1104 0.869303 0.0733567 20.7081
397 1 -1.1104 6.485 -2.70067 15.0989
407 1 -1.1104 6.51984 0.169452 14.8905
402 1 -1.1104 6.58898 0.216409 17.9169
415 1 -1.1104 3.69174 2.79701 20.6542
392 1 -1.1104 6.60557 2.93134 17.8989
381 2 2.2208 5.2033 12.7901 27.5191
399 1 -1.1104 6.65369 3.07943 15.1035
431 2 2.2208 10.7347 1.37024 16.5543
432 1 -1.1104 12.2275 -2.71883 17.9799
433 1 -1.1104 12.1414 2.86381 17.8214
434 1 -1.1104 12.0539 -2.68342 15.0879
436 1 -1.1104 12.2074 2.85497 15.093
438 1 -1.1104 12.1677 0.0462791 17.7212
439 2 2.2208 10.8703 -1.33143 19.2446
441 1 -1.1104 12.2861 0.118474 15.0734
443 1 -1.1104 9.29591 -2.64858 17.7475
444 1 -1.1104 9.31186 2.84572 17.9543
445 2 2.2208 7.94912 1.49404 19.3359
446 1 -1.1104 9.35943 -2.71186 15.0422
448 1 -1.1104 9.36401 2.83446 15.2085
450 2 2.2208 7.84031 -1.17449 16.4827
452 1 -1.1104 9.2898 0.100084 17.9346
453 1 -1.1104 9.3418 0.0181056 15.1354
440 2 2.2208 10.7688 4.22872 19.1844
451 2 2.2208 7.95382 4.40079 16.502
442 1 -1.1104 12.1765 0.112727 20.554
497 1 -1.1104 12.261 19.7706 26.2671
447 1 -1.1104 9.35554 -2.67713 20.5903
454 1 -1.1104 9.26176 0.0027475 20.5257
435 1 -1.1104 12.0436 -2.8678 20.5422
9502 2 2.2208 13.519 1.51207 19.2037
650 2 2.2208 10.7845 -4.25361 21.9368
455 2 2.2208 13.553 -4.23365 19.3225
9496 2 2.2208 13.5123 4.32229 16.3421
345 2 2.2208 13.4142 15.6342 27.5959
464 2 2.2208 5.07643 7.08218 16.551
465 2 2.2208 5.10768 12.6695 16.4645
466 1 -1.1104 0.936416 8.38596 17.7994
468 1 -1.1104 0.725582 8.48241 15.0126
472 1 -1.1104 0.902905 5.71516 17.7952
473 1 -1.1104 0.950638 11.2232 17.748
476 2 2.2208 5.13776 9.78176 19.3765
477 1 -1.1104 0.876832 5.6023 15.1095
479 1 -1.1104 1.04361 11.3746 15.0152
485 1 -1.1104 3.7106 8.41339 17.7726
486 2 2.2208 2.30476 6.88187 19.1592
487 2 2.2208 2.44164 12.6162 19.1571
488 1 -1.1104 3.63409 8.4591 14.8851
490 2 2.2208 2.24518 9.86391 16.4436
491 1 -1.1104 3.77409 5.61977 18.0027
492 1 -1.1104 3.66728 11.1692 17.8113
493 1 -1.1104 3.73327 5.62685 15.2185
495 1 -1.1104 3.76417 11.359 15.0836
489 1 -1.1104 3.60355 8.39751 20.512
478 1 -1.1104 0.810364 5.60061 20.551
467 1 -1.1104 6.43859 8.55033 17.7475
483 1 -1.1104 6.47201 11.3793 15.1702
480 1 -1.1104 1.014 11.3029 20.5449
481 1 -1.1104 6.45068 5.76215 15.1027
474 1 -1.1104 6.55978 5.69479 18.0186
470 1 -1.1104 6.53728 8.7302 15.1042
475 1 -1.1104 6.4613 11.2524 17.9108
469 1 -1.1104 0.906922 8.44789 20.489
482 1 -1.1104 6.45665 5.56417 20.7734
459 2 2.2208 13.6117 -1.32563 16.4037
500 2 2.2208 10.8521 7.0858 16.3759
501 2 2.2208 10.8509 12.7559 16.3949
502 1 -1.1104 12.2475 8.42188 17.9445
503 1 -1.1104 12.2545 8.44444 14.9715
505 1 -1.1104 12.232 5.64656 17.8591
506 1 -1.1104 12.1729 11.2704 17.8776
507 2 2.2208 10.8096 9.91871 19.1311
508 1 -1.1104 12.0075 5.6287 14.9859
510 1 -1.1104 11.9917 11.1762 15.0097
512 1 -1.1104 9.41768 8.57138 17.955
513 2 2.2208 7.89788 7.08092 19.2683
514 2 2.2208 8.05329 12.7311 19.2483
515 1 -1.1104 9.2973 8.46845 15.1844
517 2 2.2208 7.88648 9.94101 16.5265
518 1 -1.1104 9.39102 5.7757 17.7593
519 1 -1.1104 9.43564 11.4513 17.834
520 1 -1.1104 9.22904 5.65503 14.8794
522 1 -1.1104 9.33691 11.2172 15.0271
504 1 -1.1104 12.1317 8.53886 20.6218
9570 2 2.2208 13.4753 9.92412 16.3705
9497 2 2.2208 13.6401 21.1308 21.9511
9571 2 2.2208 13.6358 7.00388 19.4244
511 1 -1.1104 12.3134 11.2069 20.5907
516 1 -1.1104 9.30674 8.46044 20.6823
423 2 2.2208 2.29347 -4.08527 19.4198
685 2 2.2208 -0.415921 12.6695 22.0099
422 2 2.2208 4.97965 -4.042 16.4732
527 2 2.2208 5.13089 18.2404 16.3574
528 1 -1.1104 1.16057 13.9046 17.7032
529 1 -1.1104 0.908761 19.5893 17.7912
532 1 -1.1104 1.09523 14.1037 14.9859
534 1 -1.1104 0.976348 19.6635 15.0079
540 1 -1.1104 0.913704 16.7404 17.7383
542 2 2.2208 5.15666 15.5876 19.2006
543 2 2.2208 5.10594 20.9598 19.1366
544 1 -1.1104 0.922827 16.9091 14.9842
548 1 -1.1104 3.89026 14.1356 17.8343
549 1 -1.1104 3.71069 19.674 17.7944
550 2 2.2208 2.27468 18.253 19.2391
551 1 -1.1104 3.8986 14.1554 14.9635
553 1 -1.1104 3.52467 19.6782 14.821
555 2 2.2208 2.37737 15.4103 16.23
556 2 2.2208 2.22781 21.0467 16.3646
557 1 -1.1104 3.63681 16.8859 17.7179
558 1 -1.1104 3.7203 16.8437 14.9115
541 1 -1.1104 6.40467 16.9333 17.829
530 1 -1.1104 6.66913 14.1459 17.8077
536 1 -1.1104 6.6333 14.042 15.0968
531 1 -1.1104 6.34684 19.6526 17.8442
552 1 -1.1104 3.67398 14.009 20.5898
539 1 -1.1104 6.51675 19.5938 20.5134
538 1 -1.1104 6.4966 19.6616 14.8449
546 1 -1.1104 6.49917 16.8967 14.9764
498 1 -1.1104 12.1273 16.7762 23.4654
537 1 -1.1104 6.57125 14.0596 20.6881
651 2 2.2208 7.9553 -3.9935 24.898
586 1 -1.1104 9.45289 16.6834 20.5817
9642 2 2.2208 13.5668 18.2541 19.1751
9643 2 2.2208 13.6756 21.1443 16.4218
9640 2 2.2208 13.6829 15.393 16.4145
563 2 2.2208 10.7837 18.2871 16.2558
564 1 -1.1104 12.3504 14.0077 17.8245
565 1 -1.1104 12.1293 19.5837 17.8595
566 1 -1.1104 12.1719 14.0913 15.0849
568 1 -1.1104 12.2944 19.7444 15.1058
570 1 -1.1104 12.0316 16.5902 17.8177
571 2 2.2208 10.8274 15.3222 19.2725
572 2 2.2208 10.7001 20.9725 19.1721
573 1 -1.1104 12.193 16.8192 14.8692
575 1 -1.1104 9.42267 14.1454 17.9653
576 1 -1.1104 9.37326 19.6575 17.7641
577 2 2.2208 8.0497 18.2914 19.1934
578 1 -1.1104 9.42378 14.1295 15.099
580 1 -1.1104 9.40003 19.7716 15.0574
582 2 2.2208 7.94291 15.4631 16.4447
583 2 2.2208 7.71673 21.2166 16.3381
584 1 -1.1104 9.25342 16.8944 17.6437
585 1 -1.1104 9.35711 16.8426 14.9565
457 2 2.2208 8.00644 -4.10339 19.1711
461 1 -1.1104 12.2854 14.0138 23.5059
456 2 2.2208 10.7534 -4.10549 16.499
420 1 -1.1104 3.86707 0.12973 20.7087
413 1 -1.1104 3.60619 -2.65424 20.6214
408 1 -1.1104 6.46638 -0.158544 20.7697
616 1 -1.1104 9.35673 16.9833 23.3958
394 1 -1.1104 0.866162 -2.83509 20.7683
400 1 -1.1104 6.54543 2.8421 20.5399
591 2 2.2208 5.1787 1.53258 21.9966
592 1 -1.1104 0.931938 -2.70499 23.4986
593 1 -1.1104 0.917325 2.86938 23.4249
596 1 -1.1104 0.76096 -2.71615 26.332
597 1 -1.1104 0.81267 2.84945 26.4283
600 1 -1.1104 0.899284 -0.0415571 23.5827
602 2 2.2208 5.24168 -1.28277 24.8437
604 1 -1.1104 0.828812 0.164721 26.3725
606 1 -1.1104 3.86494 -2.77494 23.4294
607 1 -1.1104 3.90371 2.9417 23.4978
608 2 2.2208 2.37657 1.44378 24.878
609 1 -1.1104 3.6916 -2.80795 26.2241
610 1 -1.1104 3.75354 2.9427 26.3951
611 2 2.2208 2.23826 -1.37238 22.111
613 1 -1.1104 3.71854 0.0995134 23.4893
614 1 -1.1104 3.67047 0.0843258 26.2615
612 2 2.2208 2.24057 4.331 21.9036
603 2 2.2208 5.13245 4.30231 24.846
601 1 -1.1104 6.48918 0.195223 23.5805
599 1 -1.1104 6.44304 3.01084 26.3682
598 1 -1.1104 6.26442 -2.66873 26.2041
594 1 -1.1104 6.72394 -2.65113 23.5482
595 1 -1.1104 6.61861 3.03877 23.4031
605 1 -1.1104 6.49007 0.174648 26.4062
617 1 -1.1104 9.4092 16.8387 26.1941
526 1 -1.1104 9.36712 14.2438 23.4766
449 1 -1.1104 9.43573 2.84718 20.6507
437 1 -1.1104 12.047 2.88624 20.7531
653 2 2.2208 13.4432 -1.39711 22.1881
622 2 2.2208 2.36508 -4.13217 24.8702
561 2 2.2208 8.0523 18.2782 24.8874
398 1 -1.1104 6.48851 -2.75271 20.7178
627 2 2.2208 10.7075 1.45629 22.0884
628 1 -1.1104 12.1683 -2.71019 23.3974
629 1 -1.1104 12.0766 2.8758 23.4576
630 1 -1.1104 11.9946 -2.65241 26.1382
631 1 -1.1104 11.9603 2.86161 26.2755
632 1 -1.1104 11.9739 -0.0410834 23.4465
633 2 2.2208 10.7121 -1.24706 24.8824
635 1 -1.1104 11.9833 0.104217 26.2088
636 1 -1.1104 9.41376 -2.71362 23.3672
637 1 -1.1104 9.34883 2.99138 23.4547
638 2 2.2208 7.84162 1.61334 24.9081
639 1 -1.1104 9.195 -2.52827 26.2529
640 1 -1.1104 9.2135 3.02038 26.3278
641 2 2.2208 7.92857 -1.36967 22.0725
643 1 -1.1104 9.09736 5.16405e-05 23.5323
644 1 -1.1104 9.20425 0.330302 26.4055
642 2 2.2208 7.98426 4.2864 22.0416
634 2 2.2208 10.7103 4.2996 24.837
654 2 2.2208 13.4082 1.43956 24.8954
427 2 2.2208 13.5626 4.29846 22.1278
348 2 2.2208 8.05488 15.3997 27.559
587 1 -1.1104 9.35636 14.0518 26.3302
471 1 -1.1104 6.53932 8.42045 20.7874
496 1 -1.1104 3.70804 11.246 20.6705
494 1 -1.1104 3.75197 5.61723 20.7424
484 1 -1.1104 6.4705 11.2419 20.5663
656 2 2.2208 5.10238 7.03346 22.1181
657 2 2.2208 5.13539 12.72 21.9392
658 1 -1.1104 1.02166 8.36208 23.423
660 1 -1.1104 0.932142 8.52421 26.2018
662 1 -1.1104 0.783512 5.49695 23.3964
663 1 -1.1104 0.901464 11.2699 23.3111
666 2 2.2208 5.14051 9.98202 24.7736
667 1 -1.1104 0.828942 5.6649 26.1039
668 1 -1.1104 0.953891 11.3546 26.1146
671 1 -1.1104 3.70284 8.53365 23.3366
672 2 2.2208 2.17995 6.9997 24.8709
673 2 2.2208 2.39145 12.6387 24.7985
674 1 -1.1104 3.57896 8.47774 26.1732
675 2 2.2208 2.25419 9.82113 21.9451
676 1 -1.1104 3.64695 5.67982 23.4348
677 1 -1.1104 3.64711 11.3571 23.3607
678 1 -1.1104 3.75398 5.70204 26.1382
679 1 -1.1104 3.73272 11.3092 26.1605
661 1 -1.1104 6.62941 8.57981 26.1457
664 1 -1.1104 6.50086 5.76867 23.529
659 1 -1.1104 6.53854 8.40927 23.3803
670 1 -1.1104 6.45105 11.3899 26.1409
665 1 -1.1104 6.43914 11.2607 23.3969
669 1 -1.1104 6.49376 5.73716 26.1755
463 1 -1.1104 12.2167 14.0748 26.2796
509 1 -1.1104 12.0928 5.62642 20.7266
385 2 2.2208 7.89996 9.99199 27.6191
523 1 -1.1104 9.34883 11.2184 20.6444
708 2 2.2208 13.6159 12.7825 25.0094
521 1 -1.1104 9.2741 5.69961 20.6199
687 1 -1.1104 9.34363 11.3305 26.203
688 1 -1.1104 9.3224 5.78837 26.335
689 1 -1.1104 9.43482 11.4274 23.3997
690 1 -1.1104 9.42374 5.6424 23.4414
691 2 2.2208 7.97154 9.89027 22.0125
692 1 -1.1104 9.42758 8.59084 26.1706
693 2 2.2208 7.86111 12.7564 24.8536
694 2 2.2208 7.96603 7.06856 24.8579
695 2 2.2208 10.6438 7.10661 21.9729
696 2 2.2208 10.8574 12.6289 22.0299
697 1 -1.1104 12.0167 8.50963 23.3864
698 1 -1.1104 12.076 8.4514 26.2712
699 1 -1.1104 12.1291 5.78799 23.3243
700 1 -1.1104 12.3444 11.3213 23.4793
701 2 2.2208 10.7931 9.97586 24.7937
702 1 -1.1104 12.1938 5.68312 25.9849
703 1 -1.1104 12.1146 11.2922 26.1226
704 1 -1.1104 9.25993 8.63331 23.484
710 2 2.2208 13.4084 7.22924 24.7641
545 1 -1.1104 0.968872 16.9447 20.5394
559 1 -1.1104 3.89867 16.9724 20.5291
588 1 -1.1104 9.35135 19.6221 26.2374
681 1 -1.1104 6.59321 16.9295 23.4351
714 1 -1.1104 6.70111 17.0338 26.1716
547 1 -1.1104 6.70683 16.7615 20.6091
562 1 -1.1104 6.51245 19.8049 26.1808
533 1 -1.1104 0.87842 14.0552 20.4447
535 1 -1.1104 0.754897 19.5977 20.6063
554 1 -1.1104 3.75908 19.6811 20.637
721 1 -1.1104 6.65893 14.1677 23.4034
647 2 2.2208 2.45247 15.4247 21.9377
652 2 2.2208 2.34399 21.0951 21.9085
655 1 -1.1104 3.69372 17.0361 23.3231
680 1 -1.1104 0.864279 16.7144 23.2899
682 1 -1.1104 3.68626 13.988 26.2102
683 1 -1.1104 3.84836 16.9188 25.9399
686 2 2.2208 2.3846 18.1823 24.7297
705 1 -1.1104 3.74416 19.7356 26.2058
706 2 2.2208 5.25919 18.4106 22.0013
707 1 -1.1104 0.981003 14.0928 23.347
709 1 -1.1104 0.630322 19.4437 23.4845
711 1 -1.1104 3.72235 19.8351 23.3894
713 1 -1.1104 3.85277 14.182 23.3994
715 1 -1.1104 0.972003 19.7111 26.2256
716 1 -1.1104 1.04584 16.9397 26.0614
717 1 -1.1104 0.971136 14.1362 26.0506
719 2 2.2208 5.13908 21.1136 24.7245
720 2 2.2208 5.31957 15.5803 24.8348
712 1 -1.1104 6.57663 14.1485 26.1844
718 1 -1.1104 6.63025 19.708 23.3521
460 2 2.2208 10.8395 18.3325 22.1578
462 1 -1.1104 12.221 19.6397 23.6227
590 2 2.2208 13.6157 15.3744 22.031
579 1 -1.1104 9.34095 13.9154 20.7916
499 2 2.2208 10.7947 15.4411 24.9006
569 1 -1.1104 12.2505 19.5189 20.6954
458 2 2.2208 13.6359 18.2748 24.8456
525 1 -1.1104 12.0565 17.03 26.1941
524 2 2.2208 10.8079 21.0819 24.9861
589 2 2.2208 8.09133 15.5016 21.9544
560 1 -1.1104 9.37159 19.6813 23.4792
615 2 2.2208 8.07767 21.1726 22.1047
581 1 -1.1104 9.34512 19.7089 20.5923
574 1 -1.1104 12.4054 16.5232 20.5201
567 1 -1.1104 12.1698 13.8463 20.5886
648 2 2.2208 13.4848 -3.98535 24.9647
346 2 2.2208 13.6399 21.1268 27.7374
376 2 2.2208 2.34902 20.9593 27.6247
371 2 2.2208 7.92752 -1.20206 27.6757
380 2 2.2208 2.4118 9.91547 27.5118
347 2 2.2208 13.5406 -4.17025 13.6159
374 2 2.2208 2.39904 15.4841 27.3908
375 2 2.2208 5.19568 18.2989 27.4705
373 2 2.2208 7.96511 4.46842 27.6689
352 2 2.2208 10.6842 -1.26879 13.6389
350 2 2.2208 7.98972 21.0338 27.6333
353 2 2.2208 10.6657 4.21758 13.6653
343 2 2.2208 8.01405 -4.12284 13.6718
387 2 2.2208 13.5005 9.80539 27.6761
368 2 2.2208 2.33097 4.4488 27.6896
620 2 2.2208 5.03801 -4.10735 27.5703
344 2 2.2208 13.5573 1.40756 13.7424
359 2 2.2208 7.88605 12.6261 13.7511
363 2 2.2208 10.7243 21.1467 13.6607
366 2 2.2208 4.98249 1.63315 27.7949
384 2 2.2208 10.6447 7.15349 27.6631
378 2 2.2208 13.4732 4.30474 27.7025
340 2 2.2208 5.09113 4.29412 13.6802
386 2 2.2208 10.7358 12.6716 27.6383
341 2 2.2208 13.4699 12.7291 13.7604
354 2 2.2208 2.17833 7.13138 13.7608
358 2 2.2208 10.7046 9.89041 13.6054
722 2 2.2208 5.15703 23.9606 5.21402
723 2 2.2208 5.18754 29.5168 5.10438
724 1 -1.1104 0.803761 25.1984 1.00796
725 1 -1.1104 0.90578 25.3177 3.82371
726 1 -1.1104 1.07022 22.3919 0.896344
727 1 -1.1104 0.952949 27.8565 0.984819
728 2 2.2208 5.11501 26.5802 2.32326
729 1 -1.1104 0.978188 22.372 3.8332
730 1 -1.1104 0.911015 28.0452 3.7195
731 1 -1.1104 3.63847 25.0883 0.951639
732 2 2.2208 2.36311 23.7932 2.43557
733 2 2.2208 2.32362 29.2871 2.36825
734 1 -1.1104 3.66938 25.2874 3.87875
735 2 2.2208 2.23078 26.705 5.32712
736 1 -1.1104 3.74964 22.4174 0.918789
737 1 -1.1104 3.77521 27.9311 0.88629
738 1 -1.1104 3.80702 22.4368 3.67973
739 1 -1.1104 3.62857 27.9763 3.81385
747 1 -1.1104 6.56625 22.4676 3.96308
744 1 -1.1104 6.3641 25.2771 3.78767
748 1 -1.1104 6.5037 28.1446 3.84731
745 1 -1.1104 6.66299 22.6009 1.07639
864 1 -1.1104 6.58156 25.3291 6.45398
746 1 -1.1104 6.53175 28.1356 1.06748
743 1 -1.1104 6.63401 25.4074 1.08972
769 2 2.2208 13.6297 26.8015 5.20061
871 1 -1.1104 3.79921 28.1724 6.74024
863 1 -1.1104 0.975368 25.2444 6.73448
869 1 -1.1104 3.6583 25.3548 6.66025
866 1 -1.1104 0.897657 28.1242 6.71805
749 2 2.2208 10.8839 23.8894 5.34431
750 2 2.2208 10.7683 29.4251 5.26804
751 1 -1.1104 12.0515 25.2602 0.951413
752 1 -1.1104 12.1151 25.2664 3.89544
753 1 -1.1104 12.1759 22.4606 0.957222
754 1 -1.1104 12.3011 28.1535 1.17478
755 2 2.2208 10.7674 26.7526 2.37747
756 1 -1.1104 12.1458 22.5293 3.89256
757 1 -1.1104 12.1375 28.1399 3.86478
758 1 -1.1104 9.45498 25.3936 0.946781
759 2 2.2208 7.98486 23.9118 2.44117
760 2 2.2208 8.02642 29.5778 2.4488
761 1 -1.1104 9.37143 25.3352 3.6909
762 2 2.2208 8.0749 26.6611 5.23535
763 1 -1.1104 9.42801 22.592 1.05168
764 1 -1.1104 9.39949 28.0954 1.04001
765 1 -1.1104 9.43677 22.6535 3.84665
766 1 -1.1104 9.25166 28.088 3.8816
898 1 -1.1104 12.1613 28.075 6.62562
900 1 -1.1104 9.41479 22.4766 6.68051
896 1 -1.1104 12.2178 25.2946 6.64748
768 2 2.2208 13.6585 29.5968 2.29695
10009 2 2.2208 13.4433 32.3705 10.8131
767 2 2.2208 13.5768 24.0113 2.40555
901 1 -1.1104 9.40477 28.0551 6.7181
1024 1 -1.1104 12.0398 39.2252 9.41662
770 2 2.2208 5.28563 35.1455 5.28386
771 1 -1.1104 0.974006 30.8202 0.957953
772 1 -1.1104 1.0363 36.6892 1.14114
774 1 -1.1104 0.963658 30.6949 3.62808
775 1 -1.1104 0.765387 36.5052 3.82204
777 1 -1.1104 1.04923 33.6256 1.08867
778 2 2.2208 5.16809 32.2805 2.44065
779 2 2.2208 5.09583 37.8936 2.46487
780 1 -1.1104 0.930902 33.7944 3.81602
782 1 -1.1104 3.82426 30.917 0.960867
783 1 -1.1104 3.74954 36.5331 1.10685
784 2 2.2208 2.32058 35.0422 2.50385
785 1 -1.1104 3.72205 30.9366 3.84985
786 1 -1.1104 3.6216 36.5564 3.93393
787 2 2.2208 2.29412 32.3099 5.2183
788 2 2.2208 2.30451 37.9201 5.21512
789 1 -1.1104 3.87951 33.7238 1.12729
790 1 -1.1104 3.75417 33.7451 3.78642
796 1 -1.1104 6.54961 33.6306 1.01334
781 1 -1.1104 6.71088 33.8431 3.9753
794 1 -1.1104 6.59811 30.8492 1.19631
922 1 -1.1104 6.27343 31.1005 6.44589
776 1 -1.1104 6.54737 36.5668 4.01259
795 1 -1.1104 6.63803 30.9342 3.74712
924 1 -1.1104 0.952008 33.6721 6.63296
926 1 -1.1104 3.61518 30.7883 6.63874
921 1 -1.1104 0.992746 36.4026 6.64609
925 1 -1.1104 6.63446 33.7301 6.71816
1427 1 -1.1104 12.0263 47.7404 3.76627
773 1 -1.1104 6.48477 36.5087 0.99346
797 2 2.2208 10.6946 35.1282 5.26791
798 1 -1.1104 12.187 30.9588 0.981263
799 1 -1.1104 12.1119 36.5532 1.01985
800 1 -1.1104 12.1437 30.8322 3.90638
801 1 -1.1104 12.094 36.4379 3.76342
802 1 -1.1104 12.3333 33.6259 0.992892
803 2 2.2208 10.7963 32.2412 2.32816