ITEM: TIMESTEP
20000
ITEM: NUMBER OF ATOMS
17640
ITEM: BOX BOUNDS pp pp pp
-4.6182968935657442e-01 2.7801829689356328e+01
-5.4326019344745182e+00 3.3351260193447723e+02
-4.3479938923447836e-01 2.7774799389234044e+01
ITEM: ATOMS id type q x y z
1 2 2.2208 5.38332 0.385337 5.01691
2 1 -1.1104 1.03387 -3.95282 0.969947
6 1 -1.1104 1.07461 -3.6836 3.78948
9 1 -1.1104 1.10997 -1.22967 0.889202
11 2 2.2208 5.06888 -2.32351 2.40002
13 1 -1.1104 1.10967 -0.929968 3.59188
15 1 -1.1104 3.87503 -3.60203 1.01133
17 2 2.2208 2.31377 0.435025 2.11404
18 1 -1.1104 3.96126 -3.86078 3.71269
20 2 2.2208 2.39896 -2.52562 5.13915
22 1 -1.1104 3.91518 -0.920695 1.03089
23 1 -1.1104 3.93422 -1.02263 3.89414
8925 2 2.2208 -0.362889 0.45814 5.0895
168 1 -1.1104 3.8748 -1.01264 6.60782
162 1 -1.1104 6.57219 -4.0744 6.68276
335 2 2.2208 7.98028 -5.16576 13.5158
164 1 -1.1104 1.21777 -1.18871 6.60965
160 1 -1.1104 0.999585 -4.50254 6.37492
163 1 -1.1104 6.57222 -0.91802 6.58456
27 2 2.2208 -0.364624 -2.35683 2.47878
312 2 2.2208 5.34284 -2.63492 13.5469
8863 2 2.2208 -0.200708 8.8368 7.98465
165 1 -1.1104 6.75465 -0.989067 3.59544
4 1 -1.1104 6.61215 -3.80491 0.801112
8 1 -1.1104 6.54477 -3.80291 3.72376
10 1 -1.1104 6.60127 -0.945398 0.801956
31 2 2.2208 11.0488 0.193326 5.02579
32 1 -1.1104 12.2984 -3.85343 0.890338
34 1 -1.1104 12.2377 -3.94501 3.54864
36 1 -1.1104 12.3933 -1.01553 0.893031
37 2 2.2208 11.1064 -2.42282 2.12622
39 1 -1.1104 12.7933 -0.897504 3.89878
40 1 -1.1104 9.37186 -3.72285 0.802652
42 2 2.2208 8.32801 0.569812 2.34529
43 1 -1.1104 9.30013 -3.93717 3.8026
45 2 2.2208 8.04922 -2.46614 4.98982
46 1 -1.1104 9.48615 -0.851346 0.685206
47 1 -1.1104 9.7493 -1.04644 3.37042
201 1 -1.1104 12.3496 -1.23949 6.50119
202 1 -1.1104 9.25299 -3.80991 6.54226
199 1 -1.1104 12.2896 -4.06135 6.29405
205 1 -1.1104 9.47295 -1.17797 6.14233
195 1 -1.1104 9.50027 18.5562 11.8862
324 2 2.2208 8.32171 5.83787 13.5315
3 1 -1.1104 1.20053 1.89422 0.777918
7 1 -1.1104 1.07399 1.89399 3.78604
12 2 2.2208 5.28806 3.19443 2.16064
16 1 -1.1104 3.83856 1.88952 0.600356
19 1 -1.1104 3.95369 1.74517 3.35117
21 2 2.2208 2.72215 3.21093 4.99366
53 1 -1.1104 1.24617 7.39891 0.816449
55 1 -1.1104 1.31072 7.05817 3.9297
57 1 -1.1104 1.06659 4.74468 0.650011
64 1 -1.1104 1.14135 4.49059 3.64001
67 1 -1.1104 3.93577 7.2759 1.22471
68 2 2.2208 2.26447 5.80431 2.10695
71 1 -1.1104 3.79376 4.70009 0.479244
233 1 -1.1104 4.14073 4.82779 3.40078
167 1 -1.1104 4.21838 1.7769 6.34498
230 1 -1.1104 1.25175 4.459 6.6075
161 1 -1.1104 1.25375 1.66893 6.54662
8926 2 2.2208 -0.337727 3.19153 2.2765
60 1 -1.1104 6.66805 4.72062 0.973076
54 1 -1.1104 6.91788 7.42695 0.426432
14 1 -1.1104 6.59466 1.70204 3.85626
56 1 -1.1104 6.78616 7.02616 3.24793
5 1 -1.1104 6.81114 1.73246 1.08722
33 1 -1.1104 12.2559 1.79921 0.746313
35 1 -1.1104 12.5978 1.76475 3.67085
38 2 2.2208 10.9682 3.09935 2.22968
41 1 -1.1104 9.72421 1.72921 0.825473
44 1 -1.1104 9.93469 1.69559 3.79354
78 2 2.2208 10.8668 5.62941 4.88787
81 1 -1.1104 12.2784 7.22647 3.67115
82 1 -1.1104 12.5577 4.67318 0.567878
86 1 -1.1104 12.3688 4.28092 3.50184
89 2 2.2208 8.42671 5.90329 1.9051
93 1 -1.1104 9.7622 4.38453 0.67852
96 1 -1.1104 9.35776 4.69019 3.38437
80 1 -1.1104 12.5039 7.3337 0.892357
88 1 -1.1104 9.70989 7.27821 0.758223
200 1 -1.1104 12.5243 1.53491 6.55673
203 1 -1.1104 9.51674 1.32133 6.87228
261 1 -1.1104 9.91589 6.95583 6.7304
259 1 -1.1104 12.6858 7.37679 6.55884
52 2 2.2208 5.32242 11.604 4.92214
58 1 -1.1104 1.14661 10.2547 0.883197
63 2 2.2208 5.50618 8.57082 2.07141
65 1 -1.1104 1.50381 9.93745 3.69744
69 2 2.2208 2.48964 11.5705 2.20794
70 2 2.2208 2.48752 8.73941 5.32467
72 1 -1.1104 3.84852 10.1902 0.660642
74 1 -1.1104 4.00422 9.72973 3.78386
101 1 -1.1104 1.29967 13.0159 0.655138
107 1 -1.1104 1.07046 12.7826 3.36663
117 1 -1.1104 4.02432 13.0343 0.756184
122 1 -1.1104 3.95835 12.7208 3.53411
75 2 2.2208 -0.222374 5.85497 5.03382
8953 2 2.2208 -0.315842 14.2503 13.5088
104 1 -1.1104 6.93865 13.0017 0.798989
73 1 -1.1104 4.13221 10.2922 6.64748
102 1 -1.1104 1.05945 13.1531 6.48208
118 1 -1.1104 3.85849 12.9985 6.44687
59 1 -1.1104 1.1073 10.3545 6.70427
311 2 2.2208 -0.401717 8.82348 13.4097
91 1 -1.1104 9.29345 7.22532 3.73765
61 1 -1.1104 6.58335 10.2239 0.86148
109 1 -1.1104 6.71913 12.9721 3.57287
66 1 -1.1104 6.68122 10.1058 3.65349
79 2 2.2208 11.0532 11.4649 5.00172
83 1 -1.1104 12.3269 10.4105 0.65803
85 2 2.2208 10.7986 8.78367 2.27211
87 1 -1.1104 12.4453 10.0575 3.52725
90 2 2.2208 8.12203 11.5134 2.14484
92 2 2.2208 8.09449 8.54809 5.17224
94 1 -1.1104 9.53152 10.2384 0.878468
97 1 -1.1104 9.45487 10.0089 3.64294
136 1 -1.1104 12.4026 13.177 0.863963
140 1 -1.1104 12.3679 13.0789 3.6634
147 1 -1.1104 9.79027 12.9706 0.705998
152 1 -1.1104 9.54662 12.8719 3.6207
95 1 -1.1104 9.84777 9.80189 6.45348
84 1 -1.1104 12.4053 10.0716 6.51999
137 1 -1.1104 12.5978 12.9496 6.42571
105 1 -1.1104 6.66215 13.1472 6.42086
148 1 -1.1104 9.49971 12.5737 6.40221
62 1 -1.1104 6.82307 10.0246 6.49659
328 2 2.2208 10.7793 19.8258 13.2613
8929 2 2.2208 -0.262418 11.426 4.9411
331 2 2.2208 -0.229312 3.11834 13.5092
124 2 2.2208 2.59754 14.3248 5.08652
100 2 2.2208 5.41414 17.2931 4.90098
103 1 -1.1104 1.13344 18.3534 0.877369
108 1 -1.1104 1.1007 18.5377 3.56192
110 1 -1.1104 1.29237 15.7883 0.784672
113 2 2.2208 5.56437 14.5153 2.07425
114 2 2.2208 5.38569 19.9169 2.07235
115 1 -1.1104 1.33294 15.5597 3.49803
119 1 -1.1104 4.01052 18.5644 0.71098
121 2 2.2208 2.68896 17.1284 2.1994
123 1 -1.1104 3.9959 18.3921 3.47433
125 2 2.2208 2.58688 19.9882 5.12901
126 1 -1.1104 4.3253 15.9213 0.817484
128 1 -1.1104 4.12763 15.4222 3.67371
8930 2 2.2208 -0.151986 14.1962 2.10807
111 1 -1.1104 1.16902 15.9196 6.43651
120 1 -1.1104 4.13623 18.6722 6.27636
296 1 -1.1104 1.10637 18.814 6.3892
154 2 2.2208 8.12059 14.1934 5.02311
116 1 -1.1104 7.15258 15.834 3.72311
133 1 -1.1104 6.93172 18.6056 3.50422
134 1 -1.1104 7.04363 15.9231 0.842347
132 1 -1.1104 6.91701 18.8017 0.788972
135 2 2.2208 11.1511 17.2069 5.04995
138 1 -1.1104 12.3573 18.7084 0.671501
141 1 -1.1104 12.432 18.485 3.57563
142 1 -1.1104 12.6085 15.8524 0.74165
144 2 2.2208 11.1865 14.4474 2.15959
145 2 2.2208 10.9697 20.1818 1.95666
146 1 -1.1104 12.8801 15.7436 3.46996
149 1 -1.1104 9.71615 18.6655 0.717632
151 2 2.2208 8.52308 17.2643 2.26579
153 1 -1.1104 9.57072 18.6035 3.60887
155 2 2.2208 8.19139 20.0375 4.95029
156 1 -1.1104 9.75345 15.6378 0.598099
158 1 -1.1104 9.90677 15.7179 3.40499
143 1 -1.1104 12.4461 15.6598 6.1811
139 1 -1.1104 12.9157 18.5818 6.27697
8638 2 2.2208 -0.260404 14.476 7.80687
150 1 -1.1104 9.88652 18.3894 6.42516
8256 2 2.2208 8.14404 -5.00189 2.21088
166 1 -1.1104 3.68798 -3.74595 6.69876
8829 2 2.2208 -0.38447 0.331072 10.9211
8830 2 2.2208 -0.412395 -2.61777 7.88727
313 2 2.2208 2.49722 0.248562 13.5503
8255 2 2.2208 2.40888 -5.08572 2.31281
317 2 2.2208 11.046 -2.64254 13.5922
170 2 2.2208 5.53695 0.187584 10.8385
171 1 -1.1104 1.04568 -3.86192 12.0889
175 1 -1.1104 0.961167 -3.92527 9.25436
179 1 -1.1104 1.04732 -1.10782 12.1811
181 2 2.2208 5.30291 -2.53968 7.95665
183 1 -1.1104 1.04879 -1.26232 9.38887
185 1 -1.1104 4.0659 -3.96404 12.1778
187 2 2.2208 2.57902 -0.0444913 8.05993
188 1 -1.1104 3.6262 -4.0612 9.33797
190 2 2.2208 2.63476 -2.56049 10.7349
192 1 -1.1104 3.6822 -1.39733 12.2199
193 1 -1.1104 3.90809 -1.28267 9.36342
180 1 -1.1104 6.66282 -1.22325 12.1511
131 2 2.2208 11.0416 19.8857 7.71209
129 1 -1.1104 12.3902 15.6572 12.0479
282 1 -1.1104 6.63396 18.5626 9.07389
300 1 -1.1104 6.76615 15.7881 12.0339
323 2 2.2208 11.0149 8.68426 13.4685
325 2 2.2208 2.41817 17.0641 13.2918
173 1 -1.1104 6.71386 -4.04708 12.0015
177 1 -1.1104 6.64481 -3.88459 9.3699
184 1 -1.1104 6.62647 -1.18188 9.28004
206 2 2.2208 11.1341 0.0398303 10.8249
207 1 -1.1104 12.3618 -3.96429 12.0949
209 1 -1.1104 12.2727 -4.07471 9.20089
211 1 -1.1104 12.4481 -1.11211 12.1976
212 2 2.2208 10.8779 -2.70982 7.74562
214 1 -1.1104 12.3267 -1.41234 9.44011
215 1 -1.1104 9.4782 -3.64751 12.2846
217 2 2.2208 8.1188 -0.0151161 8.01073
218 1 -1.1104 9.46776 -4.06921 9.29513
220 2 2.2208 8.1367 -2.73015 10.6635
222 1 -1.1104 9.46849 -1.12017 11.969
223 1 -1.1104 9.65347 -1.34799 9.15867
316 2 2.2208 8.22359 0.427165 13.3849
318 2 2.2208 11.0213 2.90708 13.4704
314 2 2.2208 5.45827 3.18876 13.4118
8856 2 2.2208 -0.33599 11.5441 10.775
8923 2 2.2208 -0.112085 3.08185 7.91504
26 2 2.2208 -0.246209 5.9943 10.7734
228 1 -1.1104 1.05138 7.49624 6.40755
232 1 -1.1104 3.85933 7.60002 6.44027
307 2 2.2208 8.22984 14.2671 10.6156
231 1 -1.1104 4.00645 4.40962 6.62949
172 1 -1.1104 0.961688 1.66161 12.3492
176 1 -1.1104 1.00781 1.39963 9.38225
182 2 2.2208 5.34771 3.04112 7.99095
186 1 -1.1104 4.07008 1.40858 12.1725
189 1 -1.1104 3.84982 1.49648 9.3642
191 2 2.2208 2.64291 3.08119 10.5102
234 2 2.2208 5.33667 5.86286 10.6611
236 1 -1.1104 1.00122 7.52305 11.8929
238 1 -1.1104 1.15419 7.26663 9.09556
240 1 -1.1104 1.08876 4.60164 12.1026
245 1 -1.1104 1.09099 4.35409 9.17446
249 1 -1.1104 3.69934 7.05718 12.075
250 2 2.2208 2.70184 6.00038 7.86011
254 1 -1.1104 3.88891 4.18769 12.0941
256 1 -1.1104 3.99343 4.4943 9.33513
252 1 -1.1104 3.87726 7.34035 9.24274
247 1 -1.1104 6.76941 4.43409 8.6913
260 1 -1.1104 12.8746 4.42333 6.49544
239 1 -1.1104 7.00968 7.14247 9.4662
237 1 -1.1104 6.72878 7.34022 12.1539
174 1 -1.1104 6.81993 1.86497 11.9973
178 1 -1.1104 6.72139 1.6706 8.97463
242 1 -1.1104 7.03177 4.66888 11.5662
263 1 -1.1104 9.89836 4.39488 6.49558
208 1 -1.1104 12.3808 1.40022 12.0564
210 1 -1.1104 12.3368 1.42953 9.4481
213 2 2.2208 11.0878 2.90423 7.80657
216 1 -1.1104 9.67269 1.74878 12.1645
219 1 -1.1104 9.41975 1.30323 9.61982
221 2 2.2208 8.39865 3.06932 10.6964
262 1 -1.1104 9.85056 4.24515 9.16877
265 1 -1.1104 9.68598 4.69844 12.0977
269 2 2.2208 8.42782 5.57243 7.8367
270 2 2.2208 11.1801 6.04186 10.8252
274 1 -1.1104 12.5441 4.55291 12.0786
277 1 -1.1104 12.4413 4.55488 9.33639
273 1 -1.1104 12.6833 7.37389 9.47444
279 1 -1.1104 9.55626 7.46124 12.1826
267 1 -1.1104 9.85924 7.53911 9.44765
272 1 -1.1104 12.4647 7.21188 12.1265
8788 2 2.2208 -0.348826 20.0459 7.83349
306 1 -1.1104 9.61753 18.7546 9.07636
106 1 -1.1104 6.92674 18.429 6.40325
8776 2 2.2208 -0.264076 16.9282 10.6211
8928 2 2.2208 -0.297312 8.73116 2.27235
539 2 2.2208 11.0592 14.3266 13.6466
235 2 2.2208 5.49785 11.4956 10.6558
241 1 -1.1104 1.14411 10.3371 12.2677
244 2 2.2208 5.37167 8.43361 7.70324
246 1 -1.1104 1.07751 10.1243 9.6137
251 2 2.2208 2.60233 11.6002 7.99297
253 2 2.2208 2.53061 8.73832 10.6832
255 1 -1.1104 3.99997 10.0877 12.1527
257 1 -1.1104 3.64561 10.1056 9.30375
281 1 -1.1104 3.81649 13.2068 12.192
288 1 -1.1104 1.15583 12.9048 9.27401
293 1 -1.1104 1.17624 12.9437 11.9378
299 1 -1.1104 4.10855 13.2671 9.35089
248 1 -1.1104 6.61281 9.86502 9.30279
309 1 -1.1104 9.70711 15.8657 12.2503
8927 2 2.2208 -0.226805 17.433 5.13525
327 2 2.2208 5.25348 14.4962 13.3288
229 1 -1.1104 7.1319 6.9802 6.74245
130 2 2.2208 11.2375 14.2339 7.93426
284 1 -1.1104 6.9457 12.6587 9.2956
243 1 -1.1104 6.94761 10.2454 12.087
291 1 -1.1104 6.60619 13.0001 11.852
258 1 -1.1104 9.61077 10.2156 9.35282
264 1 -1.1104 9.69522 10.3116 12.1701
266 2 2.2208 8.20684 8.79577 10.6831
268 2 2.2208 8.16848 11.3171 7.86721
271 2 2.2208 10.9348 11.6468 10.713
275 1 -1.1104 12.5861 9.9811 12.282
276 2 2.2208 11.1587 8.51729 7.88173
278 1 -1.1104 12.5647 10.0034 9.39173
305 1 -1.1104 9.60359 13.145 9.17851
29 1 -1.1104 12.3726 12.7004 12.1985
76 1 -1.1104 12.6484 12.9882 9.43781
194 1 -1.1104 9.58633 13.0025 12.0178
320 2 2.2208 5.42053 8.73707 13.4294
322 2 2.2208 8.42836 11.6155 13.4921
326 2 2.2208 5.37459 20.0791 13.5229
8261 2 2.2208 7.91988 -5.41373 7.81389
8931 2 2.2208 -0.303515 19.9641 2.11548
127 1 -1.1104 3.97379 15.9506 6.31549
280 1 -1.1104 4.02195 18.726 12.0159
285 1 -1.1104 1.01147 18.7622 9.02229
286 1 -1.1104 1.15453 15.6072 9.3201
287 2 2.2208 5.38453 20.0902 7.77394
289 2 2.2208 5.3299 14.5258 7.61554
292 1 -1.1104 0.923208 18.3989 12.0418
294 2 2.2208 5.35935 17.2826 10.7387
295 1 -1.1104 3.98714 18.5751 9.17118
297 2 2.2208 2.56139 17.274 7.81651
298 1 -1.1104 4.00871 15.8624 9.09792
301 1 -1.1104 1.16967 15.567 12.2262
302 1 -1.1104 3.95132 15.8849 11.7828
303 2 2.2208 2.39361 19.9632 10.5944
304 2 2.2208 2.47623 14.3392 10.6622
227 2 2.2208 8.12895 19.9943 10.6358
321 2 2.2208 2.5203 11.4659 13.4785
169 1 -1.1104 12.4687 15.708 9.08749
196 2 2.2208 8.21731 17.1992 7.86373
329 2 2.2208 8.21723 17.2235 13.3156
308 1 -1.1104 9.64256 15.9709 9.50835
77 1 -1.1104 12.2562 18.4947 9.14574
28 2 2.2208 11.0985 17.1839 10.7366
157 1 -1.1104 9.77241 15.6194 6.61191
112 1 -1.1104 7.02635 15.9027 6.35589
30 1 -1.1104 12.2903 18.4415 12.1837
283 1 -1.1104 6.95116 15.8183 9.22583
290 1 -1.1104 6.95654 18.6887 12.1835
319 2 2.2208 2.35403 5.84575 13.6042
8257 2 2.2208 10.7858 -5.25823 5.00798
8254 2 2.2208 5.31305 -5.17873 5.07475
8272 2 2.2208 2.45494 -5.24554 13.4586
224 2 2.2208 13.627 0.148442 7.75989
225 2 2.2208 13.6336 -2.70358 10.6024
8936 2 2.2208 13.5872 17.1868 13.4237
8940 2 2.2208 -0.32121 -2.62612 13.5461
341 2 2.2208 5.20807 0.447421 16.3149
342 1 -1.1104 0.863918 -3.8785 17.5059
346 1 -1.1104 1.16462 -3.91955 14.9885
354 1 -1.1104 1.031 -0.933353 17.8866
356 2 2.2208 5.38287 -2.43845 19.2694
358 1 -1.1104 1.17173 -0.976573 14.8309
362 1 -1.1104 3.78867 -3.88859 17.7217
364 2 2.2208 2.45603 0.397036 19.2216
365 1 -1.1104 4.02103 -3.99079 15.03
369 2 2.2208 2.34718 -2.44936 16.4039
371 1 -1.1104 3.73506 -1.10554 17.7487
372 1 -1.1104 4.06462 -0.976429 15.0634
366 1 -1.1104 4.0597 -4.05366 20.5918
373 1 -1.1104 3.98274 -1.09078 20.5829
9030 2 2.2208 -0.30441 -2.43884 19.1985
334 2 2.2208 5.50219 5.99323 27.5694
9056 2 2.2208 -0.0806319 0.286474 16.3965
359 1 -1.1104 1.16351 -1.07865 20.8219
8986 2 2.2208 -0.198864 0.443553 22.0026
360 1 -1.1104 6.83578 -1.02715 14.9925
355 1 -1.1104 6.84685 -1.0544 17.8462
350 1 -1.1104 6.74691 -3.94636 14.8169
344 1 -1.1104 6.7277 -3.92715 17.7113
384 2 2.2208 11.0806 0.145986 16.2966
385 1 -1.1104 12.3002 -3.89909 17.7074
387 1 -1.1104 12.4208 -4.12021 15.0914
391 1 -1.1104 12.4832 -1.0961 17.7024
392 2 2.2208 11.0074 -2.45688 19.1041
394 1 -1.1104 12.633 -1.22788 14.8992
396 1 -1.1104 9.66887 -3.76382 17.9842
398 2 2.2208 8.27235 0.187519 19.2357
399 1 -1.1104 9.5693 -3.92472 15.2161
403 2 2.2208 8.11635 -2.49259 16.2549
405 1 -1.1104 9.73849 -0.929041 17.6879
406 1 -1.1104 9.83755 -1.1618 14.7934
400 1 -1.1104 9.5697 -3.98747 20.5729
407 1 -1.1104 9.64947 -1.25616 20.6593
395 1 -1.1104 12.5872 -1.07958 20.6416
8269 2 2.2208 5.2102 -5.15286 27.5695
351 1 -1.1104 6.85547 -3.88937 20.3363
361 1 -1.1104 6.87983 -1.26223 20.8814
388 1 -1.1104 12.3538 -3.74784 20.6096
381 2 2.2208 2.68728 14.441 27.6127
343 1 -1.1104 0.84942 1.49318 18.0039
348 1 -1.1104 1.14623 1.78296 15.1038
357 2 2.2208 5.5335 3.07001 19.0977
363 1 -1.1104 3.57334 1.56795 17.7271
367 1 -1.1104 3.87763 1.76021 14.9809
370 2 2.2208 2.49746 3.11546 16.3419
417 2 2.2208 5.3661 5.99151 15.9226
425 1 -1.1104 1.06816 4.27338 17.7372
430 1 -1.1104 1.05301 4.54146 14.9403
439 2 2.2208 2.61851 5.84447 19.0949
441 1 -1.1104 3.97341 7.32037 14.7241
444 1 -1.1104 4.13553 4.45346 17.5101
446 1 -1.1104 4.22611 4.49139 14.7532
421 1 -1.1104 1.2718 7.29808 15.039
419 1 -1.1104 1.3217 7.21986 17.8556
411 2 2.2208 -0.267366 5.95048 16.2884
438 1 -1.1104 4.13471 7.12327 17.4705
422 1 -1.1104 1.24977 7.29356 20.4219
349 1 -1.1104 0.95719 1.68385 20.5745
431 1 -1.1104 1.1401 4.76789 20.6125
420 1 -1.1104 6.82393 7.36508 17.6142
9027 2 2.2208 -0.329141 3.10408 19.2585
435 1 -1.1104 6.92438 4.37378 20.4836
352 1 -1.1104 6.72165 1.9783 14.8701
427 1 -1.1104 6.67768 4.3477 17.6096
423 1 -1.1104 6.86965 7.3614 14.9011
345 1 -1.1104 6.80691 1.72252 17.7322
434 1 -1.1104 6.9356 4.46746 14.781
386 1 -1.1104 12.4814 1.66342 17.5365
389 1 -1.1104 12.3656 1.51138 14.937
393 2 2.2208 11.097 3.05779 19.1565
397 1 -1.1104 9.68932 1.81911 17.5667
401 1 -1.1104 9.60178 1.67429 14.803
404 2 2.2208 8.22103 3.02135 16.321
453 2 2.2208 11.1462 5.91469 16.2389
456 1 -1.1104 12.5554 7.27085 14.9369
458 1 -1.1104 12.6211 4.43324 17.6323
461 1 -1.1104 12.6916 4.34159 14.774
465 1 -1.1104 9.50665 7.57114 17.6733
466 2 2.2208 8.3075 5.78712 19.1003
468 1 -1.1104 9.71438 7.20475 15.0743
471 1 -1.1104 9.77664 4.50929 18.0434
473 1 -1.1104 9.86953 4.62284 14.8117
455 1 -1.1104 12.397 7.24468 17.9149
353 1 -1.1104 6.85222 1.50761 20.5189
402 1 -1.1104 9.59844 1.78458 20.5171
462 1 -1.1104 12.4148 4.31009 20.5484
424 1 -1.1104 6.6493 6.99244 20.4416
457 1 -1.1104 12.3454 7.27041 20.6174
474 1 -1.1104 9.58956 4.50384 20.7065
390 1 -1.1104 12.3685 1.66048 20.3658
310 2 2.2208 10.9449 17.3648 27.4151
418 2 2.2208 5.20257 11.5301 16.2024
426 1 -1.1104 1.1147 10.1142 17.8982
429 2 2.2208 5.22303 8.51842 18.9286
432 1 -1.1104 1.11355 9.84771 14.8854
440 2 2.2208 2.49406 11.3642 19.164
443 2 2.2208 2.55726 8.61646 16.3351
445 1 -1.1104 3.96181 9.99448 17.5797
448 1 -1.1104 3.96127 9.96295 14.9625
481 1 -1.1104 1.02966 12.9306 17.8998
485 1 -1.1104 1.13112 12.9281 15.0286
500 1 -1.1104 3.76676 12.9357 17.529
503 1 -1.1104 3.91781 12.8059 14.7509
428 1 -1.1104 6.80812 10.3186 17.6248
504 1 -1.1104 3.81861 12.7091 20.5055
433 1 -1.1104 1.3498 9.96516 20.6438
449 1 -1.1104 4.08773 10.1089 20.0109
486 1 -1.1104 0.851421 12.8933 20.6205
9099 2 2.2208 -0.298909 8.80635 19.3168
383 2 2.2208 2.437 19.8346 27.7349
436 1 -1.1104 6.7308 10.2957 14.6306
489 1 -1.1104 6.78825 13.4416 14.6807
483 1 -1.1104 6.47988 13.0158 17.419
454 2 2.2208 11.1326 11.5212 16.4016
459 1 -1.1104 12.3865 10.0705 17.6339
460 2 2.2208 10.9374 8.60745 19.0851
463 1 -1.1104 12.5105 10.1685 14.9011
467 2 2.2208 8.18151 11.4412 19.1415
470 2 2.2208 8.08162 8.92242 16.2548
472 1 -1.1104 9.38672 10.4105 17.5358
475 1 -1.1104 9.52536 9.9963 14.87
516 1 -1.1104 12.2352 12.8664 17.7981
518 1 -1.1104 12.3285 12.9502 14.9765
527 1 -1.1104 9.40114 13.2611 17.9055
530 1 -1.1104 9.82951 12.9096 15.063
519 1 -1.1104 12.6754 12.9334 20.7886
490 1 -1.1104 6.90876 12.969 20.5386
531 1 -1.1104 9.80439 12.6396 20.5573
476 1 -1.1104 9.43513 10.0752 20.5321
464 1 -1.1104 12.5187 10.1435 20.4111
437 1 -1.1104 6.69382 10.1305 20.6182
382 2 2.2208 -0.356396 20.1776 24.5114
507 2 2.2208 2.34493 14.3884 16.2235
480 2 2.2208 5.27171 17.0598 16.3332
482 1 -1.1104 1.01945 18.4884 17.4004
487 1 -1.1104 1.03897 18.6643 14.576
492 1 -1.1104 0.779692 15.7902 17.5748
494 2 2.2208 5.20894 14.3503 18.9053
495 2 2.2208 5.20023 20.0031 18.8555
496 1 -1.1104 1.13487 15.6141 14.9199
501 1 -1.1104 3.7482 18.3733 17.819
502 2 2.2208 2.37045 17.1856 18.8631
505 1 -1.1104 3.97318 18.4918 14.711
508 2 2.2208 2.3856 19.8967 16.1833
509 1 -1.1104 3.74321 15.5367 17.522
510 1 -1.1104 3.79983 15.6415 14.8398
484 1 -1.1104 6.48465 18.4994 17.5346
506 1 -1.1104 3.88653 18.6987 20.4892
488 1 -1.1104 0.918116 18.7051 20.2784
596 2 2.2208 11.1087 0.274341 27.6021
534 2 2.2208 8.21265 14.3946 16.2861
498 1 -1.1104 6.60395 16.5232 14.8842
493 1 -1.1104 6.633 15.8308 17.6592
515 2 2.2208 10.8966 17.4536 16.311
517 1 -1.1104 12.321 18.5373 17.6543
522 1 -1.1104 12.318 15.6006 17.8751
523 2 2.2208 10.9545 14.2735 19.3113
524 2 2.2208 11.0446 19.916 18.95
525 1 -1.1104 12.4447 15.8695 14.836
528 1 -1.1104 9.5613 18.7981 17.6526
529 2 2.2208 8.0869 17.3847 18.9911
532 1 -1.1104 9.50652 18.4021 14.6511
535 1 -1.1104 9.46559 15.8755 17.6316
536 1 -1.1104 9.58764 15.5514 14.9015
520 1 -1.1104 12.2274 19.1123 15.0954
9170 2 2.2208 -0.416376 14.2232 19.1686
491 1 -1.1104 6.70109 18.7261 20.6167
537 1 -1.1104 9.40139 15.7944 20.378
8989 2 2.2208 -0.215598 17.0086 27.5919
572 1 -1.1104 6.65852 18.5536 23.4844
567 2 2.2208 2.42037 -2.50382 27.5325
8985 2 2.2208 -0.323003 0.318551 27.5684
17325 2 2.2208 -0.460824 -5.29146 16.3101
661 2 2.2208 8.1714 14.3962 21.9913
8376 2 2.2208 2.54371 -5.37333 24.7898
347 1 -1.1104 1.19463 -3.90717 20.6456
542 2 2.2208 5.34401 0.28565 22.0399
543 1 -1.1104 1.09207 -3.69212 23.3297
547 1 -1.1104 1.04301 -3.90877 26.1048
551 1 -1.1104 0.93698 -0.932891 23.3971
553 2 2.2208 5.08087 -2.62863 24.771
555 1 -1.1104 1.14472 -1.07575 26.2269
557 1 -1.1104 3.69142 -3.82305 23.2994
559 2 2.2208 2.56751 0.298245 24.8324
560 1 -1.1104 3.70238 -4.0618 26.2702
562 2 2.2208 2.42022 -2.51078 21.8961
564 1 -1.1104 3.82869 -1.02405 23.2966
565 1 -1.1104 3.85642 -1.3236 26.2483
8346 2 2.2208 10.9052 -5.27546 27.6299
8984 2 2.2208 -0.312473 -2.42697 24.8183
9024 2 2.2208 -0.216706 14.4274 24.8493
338 2 2.2208 8.29183 14.5158 27.5831
566 2 2.2208 5.30074 0.302051 27.6168
545 1 -1.1104 6.46724 -4.02175 23.4903
556 1 -1.1104 6.83234 -0.877337 26.4806
549 1 -1.1104 6.7159 -3.81813 26.1458
552 1 -1.1104 6.62926 -1.06894 23.6652
578 2 2.2208 10.9696 0.124631 21.9908
579 1 -1.1104 12.4613 -4.05323 23.3908
581 1 -1.1104 12.7002 -3.96555 26.1655
583 1 -1.1104 12.4263 -1.13106 23.2503
584 2 2.2208 11.2008 -2.69013 24.6719
586 1 -1.1104 12.5113 -1.25467 26.2121
587 1 -1.1104 9.56062 -4.15284 23.3564
589 2 2.2208 8.11272 0.287378 25.0604
590 1 -1.1104 9.67562 -3.63415 26.2056
592 2 2.2208 8.20613 -2.76119 22.0268
594 1 -1.1104 9.71588 -1.21104 23.3535
595 1 -1.1104 9.75658 -1.0134 26.172
658 2 2.2208 11.076 11.749 27.5437
577 2 2.2208 10.8914 19.9842 24.5839
410 2 2.2208 8.04451 -5.34219 19.1007
368 1 -1.1104 3.90978 1.7099 20.446
447 1 -1.1104 4.06384 4.50439 20.5035
8456 2 2.2208 5.23106 -5.33279 16.3964
601 2 2.2208 11.211 -5.33074 21.9444
17324 2 2.2208 -0.288219 -5.27161 21.9283
442 1 -1.1104 4.07651 7.36066 20.537
8987 2 2.2208 -0.21636 3.13757 24.799
544 1 -1.1104 1.28507 2.02425 23.3566
548 1 -1.1104 1.02535 1.61353 26.0026
554 2 2.2208 5.44849 3.14841 24.7583
558 1 -1.1104 4.06569 1.64168 23.3128
561 1 -1.1104 4.00457 1.69455 26.0746
563 2 2.2208 2.68622 3.01467 21.9228
607 2 2.2208 5.56577 5.69479 21.8163
609 1 -1.1104 1.21468 7.73207 23.106
611 1 -1.1104 1.21359 7.17623 26.2735
613 1 -1.1104 0.981708 4.93836 23.4918
618 1 -1.1104 1.13628 4.41791 26.2056
622 1 -1.1104 4.14908 7.43145 23.4421
623 2 2.2208 2.69811 6.11315 24.7871
625 1 -1.1104 4.2148 7.32878 26.2588
627 1 -1.1104 3.96791 4.31839 23.3859
629 1 -1.1104 4.07982 4.4809 26.0247
612 1 -1.1104 7.06722 7.47548 25.9337
633 2 2.2208 5.46857 11.402 27.5402
603 1 -1.1104 12.4495 15.8065 26.2785
546 1 -1.1104 6.72048 1.61057 23.5083
610 1 -1.1104 6.85007 7.0953 23.4192
469 1 -1.1104 9.58699 7.0415 20.313
550 1 -1.1104 6.90204 1.913 26.3551
615 1 -1.1104 6.58965 4.42393 23.1297
620 1 -1.1104 6.90601 4.40604 26.339
580 1 -1.1104 12.4515 1.58168 23.2033
582 1 -1.1104 12.4952 1.65441 26.1397
585 2 2.2208 11.2337 3.05109 24.7531
588 1 -1.1104 9.68485 1.59722 23.4184
591 1 -1.1104 9.60902 1.80822 26.3665
593 2 2.2208 8.14746 3.08069 22.0371
639 1 -1.1104 9.77838 4.7239 26.0244
641 1 -1.1104 9.66812 4.34284 23.5437
645 2 2.2208 8.31579 5.85117 24.7506
646 2 2.2208 11.1026 5.70651 21.951
648 1 -1.1104 12.1965 7.44116 23.2916
649 1 -1.1104 12.5993 7.19208 26.3332
650 1 -1.1104 12.5286 4.49902 23.1171
653 1 -1.1104 12.5481 4.46406 26.1499
655 1 -1.1104 9.47745 6.93417 23.1835
643 1 -1.1104 9.78015 7.45146 26.3286
521 1 -1.1104 12.4588 18.4771 20.58
9175 2 2.2208 -0.270921 8.76948 24.7273
608 2 2.2208 5.53906 11.7166 21.8725
614 1 -1.1104 1.14657 10.5288 23.4795
617 2 2.2208 5.65118 8.78124 24.7556
619 1 -1.1104 1.17008 10.0142 26.2036
624 2 2.2208 2.75772 11.6739 24.6952
626 2 2.2208 2.81839 8.70478 21.809
628 1 -1.1104 3.99696 10.386 23.0979
630 1 -1.1104 4.13258 10.0374 25.9405
451 1 -1.1104 4.12229 12.8209 26.3384
512 1 -1.1104 1.46055 13.2998 23.5522
573 1 -1.1104 1.20329 12.9633 26.1022
656 1 -1.1104 4.32673 13.237 23.0629
568 2 2.2208 2.51364 3.24094 27.4166
632 2 2.2208 2.56658 8.63203 27.6332
380 2 2.2208 8.10445 20.0675 21.7589
315 2 2.2208 8.11803 19.9287 27.5736
514 1 -1.1104 6.91435 13.1127 23.4975
616 1 -1.1104 6.90226 10.331 23.622
660 1 -1.1104 6.98268 13.3019 26.0974
621 1 -1.1104 6.91039 10.1628 26.3212
638 1 -1.1104 9.62138 10.315 26.1563
640 1 -1.1104 9.54808 9.83026 23.463
642 2 2.2208 8.25567 8.37549 21.9078
644 2 2.2208 8.28482 11.6112 24.8465
647 2 2.2208 11.1358 11.611 22.0172
651 1 -1.1104 12.7152 10.1095 23.3584
652 2 2.2208 11.1499 8.78409 24.8783
654 1 -1.1104 12.3121 10.1035 26.0907
636 1 -1.1104 9.65776 13.2019 26.328
413 1 -1.1104 12.7779 13.0263 23.3956
570 1 -1.1104 12.4422 13.0942 26.111
604 1 -1.1104 10.0017 12.7726 23.549
657 2 2.2208 8.22553 8.86745 27.462
9176 2 2.2208 -0.126746 11.391 27.559
541 1 -1.1104 12.4362 18.572 23.158
662 2 2.2208 11.0669 5.77786 27.5274
497 1 -1.1104 1.18673 15.7231 20.6075
511 1 -1.1104 3.9426 15.8228 20.2349
378 1 -1.1104 3.75698 18.705 23.3968
408 2 2.2208 2.55138 14.4542 21.918
414 2 2.2208 2.46866 20.0792 21.8846
415 1 -1.1104 3.94769 15.9306 23.2269
416 1 -1.1104 0.923547 15.8423 23.4577
452 1 -1.1104 4.20006 15.8529 26.0685
477 2 2.2208 2.38915 17.3275 24.7697
478 1 -1.1104 3.58949 18.4617 26.1962
479 2 2.2208 5.13857 17.2783 21.7686
513 1 -1.1104 1.12347 18.663 23.3616
538 2 2.2208 5.47909 14.4599 24.7468
540 2 2.2208 5.34732 19.9328 24.6594
599 1 -1.1104 1.23255 16.0718 26.1875
606 1 -1.1104 1.05816 18.8859 26.244
8417 2 2.2208 2.54676 -5.30112 19.2465
340 2 2.2208 5.36486 17.2111 27.3547
526 1 -1.1104 12.3571 15.7622 20.7876
533 1 -1.1104 9.5157 18.537 20.5515
412 2 2.2208 11.0922 17.2302 21.9443
379 1 -1.1104 9.66112 15.781 23.2832
575 1 -1.1104 12.5226 15.6373 23.5124
634 2 2.2208 8.16055 17.2706 24.6901
574 1 -1.1104 12.3316 18.734 25.9841
499 1 -1.1104 6.62756 15.9651 20.3436
576 2 2.2208 11.049 14.4163 24.8342
637 1 -1.1104 9.47583 18.7224 26.2354
631 1 -1.1104 6.95967 15.908 26.2478
605 1 -1.1104 9.62606 18.5542 23.4506
602 1 -1.1104 9.58871 15.9797 26.0605
635 1 -1.1104 6.56198 18.6319 26.1583
450 1 -1.1104 6.52 15.901 23.2758
598 2 2.2208 8.17319 3.04986 27.6383
8982 2 2.2208 -0.361895 17.2127 21.8831
9065 2 2.2208 -0.226822 11.5548 16.3935
9174 2 2.2208 -0.162918 11.4953 21.9855
8377 2 2.2208 5.56233 -5.36894 21.9693
8295 2 2.2208 8.16695 -5.31392 24.9706
8378 2 2.2208 -0.246359 -5.15226 27.7342
9278 2 2.2208 -0.267247 6.11554 21.8595
597 2 2.2208 8.18511 -2.27984 27.672
664 2 2.2208 5.37667 22.8663 5.04364
666 1 -1.1104 1.11115 24.2544 0.84799
667 1 -1.1104 1.1098 24.3131 3.6788
668 1 -1.1104 1.00998 21.1938 0.765294
670 2 2.2208 5.53635 25.7801 2.35716
671 1 -1.1104 1.36261 21.502 3.67224
673 1 -1.1104 4.01499 24.0297 0.856548
674 2 2.2208 2.52478 22.893 2.40271
676 1 -1.1104 3.79099 24.4136 3.65905
677 2 2.2208 2.30132 25.5848 4.99153
678 1 -1.1104 3.84248 21.2301 0.778797
680 1 -1.1104 4.2032 21.0768 3.87627
681 1 -1.1104 3.92292 26.8869 3.59135
679 1 -1.1104 4.00751 27.0676 0.92919
808 1 -1.1104 4.12193 24.1154 6.49845
1033 2 2.2208 10.9522 25.4899 13.5037
688 1 -1.1104 6.65469 27.1059 0.801569
805 1 -1.1104 0.932491 27.1761 6.35269
961 1 -1.1104 3.43152 46.7189 0.764241
804 1 -1.1104 0.968947 21.5106 6.58807
802 1 -1.1104 1.06369 24.2253 6.40618
809 1 -1.1104 3.82994 21.4498 6.37389
800 2 2.2208 13.583 45.2565 2.35822
686 1 -1.1104 6.7634 24.2668 3.68671
687 1 -1.1104 6.66255 21.5998 0.932781
685 1 -1.1104 6.8033 24.4201 0.851119
689 1 -1.1104 7.00425 21.3265 3.43373
691 2 2.2208 10.8758 22.8316 5.00955
693 1 -1.1104 12.5406 24.402 0.881053
694 1 -1.1104 12.3826 24.0483 3.65704
695 1 -1.1104 12.4925 21.5501 0.258452
697 2 2.2208 10.8824 25.5628 2.26817
698 1 -1.1104 12.4761 21.2379 3.38746
700 1 -1.1104 9.68815 24.486 0.780034
701 2 2.2208 8.20948 22.8949 2.09181
703 1 -1.1104 9.44133 24.0506 3.71822
704 2 2.2208 8.19175 25.5503 5.12395
705 1 -1.1104 9.69907 21.69 0.80812
707 1 -1.1104 9.67879 21.3663 3.55175
837 1 -1.1104 12.6172 27.3611 6.27772
699 1 -1.1104 12.443 26.7793 3.47919
696 1 -1.1104 12.2738 27.2116 0.634092
838 1 -1.1104 9.65995 23.9861 6.64415
835 1 -1.1104 11.9843 24.4593 6.48244
956 1 -1.1104 6.56239 41.2407 9.33452
836 1 -1.1104 12.2093 21.3567 6.26244
806 1 -1.1104 6.62285 21.2544 6.24685
672 1 -1.1104 1.08939 27.1647 3.50579
669 1 -1.1104 1.01649 27.0196 0.875086
665 2 2.2208 5.23789 28.3723 5.08545
675 2 2.2208 2.40508 28.3955 2.09359
715 1 -1.1104 0.622502 29.4879 1.00104
718 1 -1.1104 1.07576 30.0819 3.61329
721 1 -1.1104 1.01664 32.3884 0.608441
722 2 2.2208 5.02499 31.3338 2.39031
724 1 -1.1104 1.11718 32.859 3.33061
726 1 -1.1104 3.76532 29.9397 0.757465
729 1 -1.1104 3.68976 29.9885 3.585
731 2 2.2208 2.33697 31.2398 4.98137
733 1 -1.1104 3.80305 32.6999 0.76889
734 1 -1.1104 3.86518 32.9145 3.63513
9628 2 2.2208 -0.476296 37.0167 7.9846
725 1 -1.1104 6.63205 32.6557 3.76579
736 1 -1.1104 6.63298 29.7273 0.840753
737 1 -1.1104 6.5992 29.8275 3.7111
863 1 -1.1104 0.86549 32.6501 6.47378
861 1 -1.1104 6.6627 30.0982 6.42226
9558 2 2.2208 -0.434805 34.0328 10.5253
690 1 -1.1104 6.85882 26.9312 3.84087
708 1 -1.1104 9.60901 26.8827 3.66012
706 1 -1.1104 9.50455 27.1833 0.950002
738 1 -1.1104 6.36972 32.6431 0.989692
692 2 2.2208 10.9467 28.2487 5.01178
702 2 2.2208 8.15695 28.538 2.26715
740 1 -1.1104 12.2134 29.76 1.08836
742 1 -1.1104 12.3904 29.6368 3.79074
744 1 -1.1104 11.9545 32.5643 0.770229
745 2 2.2208 10.9218 31.3072 2.36566
747 1 -1.1104 12.5023 32.4457 3.90544
748 1 -1.1104 9.35125 29.7626 0.750467
751 1 -1.1104 9.41759 29.8074 3.46523
753 2 2.2208 8.04844 31.0893 5.0206
755 1 -1.1104 9.09112 32.4879 1.10749
756 1 -1.1104 9.65145 32.5973 3.76783
895 1 -1.1104 12.3951 32.7333 6.89548
840 1 -1.1104 9.61986 26.7984 6.54842
898 1 -1.1104 9.38489 32.5299 6.54937
714 2 2.2208 5.26839 34.3057 5.07082
716 1 -1.1104 0.847346 35.4075 0.740979
719 1 -1.1104 1.03923 35.5734 3.47731
723 2 2.2208 5.1325 37.0606 2.16393
727 1 -1.1104 3.74757 35.6983 0.880013
728 2 2.2208 2.5099 34.1873 2.11051
730 1 -1.1104 3.84267 35.5762 3.87444
732 2 2.2208 2.40284 37.0161 5.18607
758 2 2.2208 5.23589 39.6227 5.14386
763 1 -1.1104 0.831727 38.3151 0.506039
769 1 -1.1104 0.983673 38.4724 3.6536
774 2 2.2208 2.26911 39.8191 2.13132
778 1 -1.1104 3.71304 38.4301 0.946812
780 1 -1.1104 3.71071 38.4752 3.75598
10003 2 2.2208 -0.402555 42.6971 13.5701
951 1 -1.1104 9.63719 43.5354 9.66235