ITEM: TIMESTEP
40000
ITEM: NUMBER OF ATOMS
17640
ITEM: BOX BOUNDS pp pp pp
-4.6077633699345066e-01 2.7800776336993021e+01
-5.4098106362514899e+00 3.3348981063625365e+02
-4.4524193479320767e-01 2.7785241934792804e+01
ITEM: ATOMS id type q x y z
1 2 2.2208 4.92488 0.154616 5.03437
2 1 -1.1104 0.470561 -3.93367 0.827283
6 1 -1.1104 0.780529 -3.79463 3.63463
9 1 -1.1104 0.918407 -1.12077 0.855441
11 2 2.2208 4.8672 -2.53909 2.03505
13 1 -1.1104 0.690582 -0.809205 3.56131
15 1 -1.1104 3.39562 -3.99871 0.721695
17 2 2.2208 2.14054 0.471097 2.23974
18 1 -1.1104 3.66589 -3.81753 3.52249
20 2 2.2208 2.09971 -2.47313 5.06176
22 1 -1.1104 3.51887 -1.0909 0.608423
23 1 -1.1104 3.56704 -1.14203 3.65918
8 1 -1.1104 6.18088 -4.33895 3.41254
4 1 -1.1104 6.18807 -4.03462 0.52989
163 1 -1.1104 6.28623 -1.35611 6.35781
166 1 -1.1104 3.54474 -3.73782 6.41823
10 1 -1.1104 6.19097 -1.10451 0.687223
8255 2 2.2208 2.09351 -5.30498 2.19908
168 1 -1.1104 3.57765 -1.11203 6.52031
164 1 -1.1104 0.725943 -1.01316 6.41331
225 2 2.2208 13.2067 -2.52072 10.5676
307 2 2.2208 7.69232 14.1433 10.8216
25 2 2.2208 13.5714 20.0184 10.7042
327 2 2.2208 4.84404 14.3134 13.5952
165 1 -1.1104 6.47412 -1.55052 3.58652
31 2 2.2208 10.2272 0.414354 5.25456
32 1 -1.1104 11.8869 -4.11205 0.600897
34 1 -1.1104 11.9151 -4.10384 3.38867
36 1 -1.1104 11.8921 -1.37753 0.743565
37 2 2.2208 10.4827 -2.4642 2.20215
39 1 -1.1104 12.1146 -1.20842 3.52022
40 1 -1.1104 9.15942 -3.93101 0.802192
42 2 2.2208 7.64202 0.256359 2.20685
43 1 -1.1104 9.06453 -4.09122 3.46844
45 2 2.2208 7.71399 -2.95081 4.99486
46 1 -1.1104 9.00752 -1.19662 0.891026
47 1 -1.1104 9.08523 -1.33422 3.6731
202 1 -1.1104 8.87658 -4.11633 6.57416
332 2 2.2208 13.4168 0.164713 13.3679
48 2 2.2208 13.3457 0.0789876 2.15536
162 1 -1.1104 6.18696 -4.38286 6.35881
201 1 -1.1104 11.9698 -1.28467 6.35158
205 1 -1.1104 9.0635 -1.2826 6.52457
49 2 2.2208 13.3508 -2.54074 5.18576
199 1 -1.1104 12.0424 -3.93847 6.34204
3 1 -1.1104 0.641994 1.59226 0.679481
7 1 -1.1104 0.543426 1.8599 3.45504
12 2 2.2208 4.81385 2.97411 2.0664
16 1 -1.1104 3.624 1.70066 0.746839
19 1 -1.1104 3.29803 1.56033 4.02333
21 2 2.2208 1.80417 3.35337 4.94951
53 1 -1.1104 0.654973 7.05673 0.772604
55 1 -1.1104 0.685793 7.19236 3.62556
57 1 -1.1104 0.739036 4.29788 0.862744
64 1 -1.1104 0.415605 4.61521 3.49013
67 1 -1.1104 3.25998 7.53987 1.79632
68 2 2.2208 1.93831 5.79715 2.34965
71 1 -1.1104 3.4477 4.66348 0.617228
233 1 -1.1104 3.18129 4.18374 3.31104
14 1 -1.1104 6.04472 1.41259 3.46786
228 1 -1.1104 0.57215 7.50743 6.35295
54 1 -1.1104 6.07904 7.29365 0.801387
56 1 -1.1104 6.22604 7.36747 3.49684
232 1 -1.1104 3.18981 7.22797 6.28913
5 1 -1.1104 6.55002 1.8122 0.775119
60 1 -1.1104 6.31613 4.42525 0.733474
230 1 -1.1104 0.634899 4.66288 6.51384
167 1 -1.1104 5.56109 1.25985 6.82145
161 1 -1.1104 0.712605 1.9922 6.34242
231 1 -1.1104 3.42162 4.04685 6.34156
33 1 -1.1104 12.092 1.5316 0.92875
35 1 -1.1104 11.8568 1.88796 3.77126
38 2 2.2208 10.3861 2.90768 2.22882
41 1 -1.1104 9.18858 1.64299 0.787973
44 1 -1.1104 8.97477 1.50348 3.53071
78 2 2.2208 10.5973 6.06923 5.02596
81 1 -1.1104 12.0965 7.43897 3.6313
82 1 -1.1104 12.0326 4.38238 0.659655
86 1 -1.1104 11.7412 4.28109 3.56448
89 2 2.2208 7.64649 5.95428 2.18095
93 1 -1.1104 9.15949 4.50219 0.874009
96 1 -1.1104 8.86561 4.81571 3.71085
80 1 -1.1104 11.8787 7.03982 0.945341
91 1 -1.1104 9.18457 7.38832 3.53726
88 1 -1.1104 9.06648 7.39903 0.74667
259 1 -1.1104 11.9407 7.38256 6.35757
99 2 2.2208 13.154 5.67321 2.14518
260 1 -1.1104 11.7835 4.61652 6.26221
203 1 -1.1104 9.03692 1.46518 6.81262
263 1 -1.1104 9.1036 4.70014 6.7302
261 1 -1.1104 9.24385 7.54836 6.30309
226 2 2.2208 13.1543 3.21984 4.97016
336 2 2.2208 13.2851 19.9734 5.02485
308 1 -1.1104 8.85663 15.5206 9.54855
52 2 2.2208 4.85096 11.6443 5.10779
58 1 -1.1104 0.690196 9.87731 0.92029
63 2 2.2208 5.02921 8.69556 2.25671
65 1 -1.1104 0.573218 10.1572 3.83629
69 2 2.2208 2.16958 11.4828 2.17912
70 2 2.2208 1.94334 8.76749 5.14356
72 1 -1.1104 3.70585 10.1021 0.651516
74 1 -1.1104 3.46569 9.79657 3.57986
101 1 -1.1104 0.48471 12.7974 0.976416
107 1 -1.1104 0.698791 13.1494 3.59631
117 1 -1.1104 3.26127 13.103 0.910313
122 1 -1.1104 3.17956 12.7731 3.84168
104 1 -1.1104 6.32483 13.1416 0.739793
61 1 -1.1104 6.33946 10.1842 0.929098
109 1 -1.1104 6.37464 13.2624 3.83957
105 1 -1.1104 6.45502 13.0617 6.61215
118 1 -1.1104 3.47346 12.7954 6.5373
66 1 -1.1104 6.12138 10.3722 3.75742
102 1 -1.1104 0.468815 13.0624 6.53512
73 1 -1.1104 3.35933 10.1429 6.66017
59 1 -1.1104 0.6349 10.2564 6.58143
62 1 -1.1104 6.21594 10.3243 6.4073
98 2 2.2208 13.3425 11.6884 2.29955
204 2 2.2208 13.3669 8.97668 5.06192
79 2 2.2208 10.2545 11.4902 5.01245
83 1 -1.1104 12.0079 9.98593 0.790882
85 2 2.2208 10.6834 8.68698 2.22226
87 1 -1.1104 11.9591 10.4201 3.75547
90 2 2.2208 7.68309 11.6042 2.18099
92 2 2.2208 7.61064 8.67205 5.008
94 1 -1.1104 9.30122 10.2049 0.735523
97 1 -1.1104 9.0476 10.1879 3.62162
136 1 -1.1104 12.0102 13.0747 1.06649
140 1 -1.1104 11.7081 13.0351 3.82463
147 1 -1.1104 9.06744 12.9751 0.787148
152 1 -1.1104 8.9144 13.0252 3.45944
84 1 -1.1104 11.7451 10.1925 6.52635
148 1 -1.1104 9.21179 13.0311 6.62291
306 1 -1.1104 8.92732 18.3831 9.35836
124 2 2.2208 1.86718 14.3004 5.07252
100 2 2.2208 4.78201 17.1769 5.04232
103 1 -1.1104 0.472075 18.6131 0.883793
108 1 -1.1104 0.415779 18.6565 3.82831
110 1 -1.1104 0.672197 15.754 0.74867
113 2 2.2208 4.85068 14.6375 2.23188
114 2 2.2208 4.6059 19.9299 2.52488
115 1 -1.1104 0.49209 15.7966 3.50735
119 1 -1.1104 3.13241 18.7969 0.928552
121 2 2.2208 1.84441 17.2731 2.22882
123 1 -1.1104 3.37684 18.3745 3.52441
125 2 2.2208 1.83291 19.9551 5.18504
126 1 -1.1104 3.31662 15.8826 1.05262
128 1 -1.1104 3.40537 15.5199 3.83854
134 1 -1.1104 6.30329 16.0084 0.659902
132 1 -1.1104 6.04708 18.7427 1.02236
133 1 -1.1104 6.31275 18.6339 3.73225
116 1 -1.1104 6.19414 15.9752 3.84498
106 1 -1.1104 6.10861 18.726 6.58692
112 1 -1.1104 6.32772 16.1031 6.47746
120 1 -1.1104 3.31859 18.5941 6.28626
127 1 -1.1104 3.47738 15.8217 6.56811
159 2 2.2208 13.1805 17.2217 2.15448
323 2 2.2208 10.4481 8.62831 13.6454
318 2 2.2208 10.5853 2.88025 13.4126
143 1 -1.1104 11.6439 15.7657 6.71841
144 2 2.2208 10.4132 14.4755 2.16833
154 2 2.2208 7.57844 14.6114 5.33918
135 2 2.2208 10.4331 17.19 5.15637
138 1 -1.1104 11.8709 18.6319 0.781052
141 1 -1.1104 11.7472 18.4644 3.55197
142 1 -1.1104 11.8086 15.9712 1.05863
145 2 2.2208 10.4485 20.0103 2.30737
146 1 -1.1104 11.948 15.7676 3.89151
149 1 -1.1104 9.10222 18.4798 0.978404
151 2 2.2208 7.73331 17.1854 2.35227
153 1 -1.1104 9.12861 18.4847 3.71684
155 2 2.2208 7.74147 20.1237 5.09181
156 1 -1.1104 8.96584 15.7421 0.65555
158 1 -1.1104 9.20625 15.749 3.62501
198 2 2.2208 13.0288 14.2927 5.21849
157 1 -1.1104 9.05878 15.7135 6.70158
139 1 -1.1104 12.4671 18.2882 6.37904
130 2 2.2208 10.5594 14.4094 8.25205
313 2 2.2208 1.90466 0.139162 13.474
160 1 -1.1104 0.558047 -3.83856 6.3853
170 2 2.2208 5.023 0.113974 10.525
171 1 -1.1104 0.729778 -4.0147 12.1875
175 1 -1.1104 0.792817 -4.10795 9.28862
179 1 -1.1104 0.693614 -1.15642 12.0174
181 2 2.2208 4.9546 -2.61385 7.77928
183 1 -1.1104 0.584149 -1.26304 9.16797
185 1 -1.1104 3.5941 -3.99419 11.9933
187 2 2.2208 1.9128 0.128159 8.06375
188 1 -1.1104 3.66851 -3.90842 9.30672
190 2 2.2208 2.04274 -2.73349 10.6929
192 1 -1.1104 3.39736 -0.965796 12.0002
193 1 -1.1104 3.24935 -1.10422 9.39
177 1 -1.1104 6.21336 -4.04986 9.22598
184 1 -1.1104 6.31033 -1.35455 9.21952
173 1 -1.1104 6.44384 -4.22101 11.9158
180 1 -1.1104 6.34691 -1.2485 11.9025
150 1 -1.1104 9.14851 18.6276 6.56943
169 1 -1.1104 11.8866 15.7053 9.5835
326 2 2.2208 4.64601 19.9833 13.6141
224 2 2.2208 13.2547 0.39667 7.59899
129 1 -1.1104 11.8836 15.7469 12.3365
227 2 2.2208 7.4187 19.9929 10.9796
317 2 2.2208 10.6849 -2.77548 13.3675
24 2 2.2208 13.2661 16.8818 8.045
206 2 2.2208 10.352 0.14251 10.6125
207 1 -1.1104 11.9822 -3.95144 11.9358
209 1 -1.1104 12.0422 -4.00344 9.05096
211 1 -1.1104 12.048 -1.18063 12.0891
212 2 2.2208 10.4395 -2.65121 7.79221
214 1 -1.1104 11.7161 -1.0699 9.07222
215 1 -1.1104 9.29016 -4.16097 12.1121
217 2 2.2208 7.77368 0.0235331 7.82538
218 1 -1.1104 9.09511 -4.26432 9.46728
220 2 2.2208 7.79321 -2.81277 10.7363
222 1 -1.1104 9.1725 -1.5147 12.2051
223 1 -1.1104 9.14948 -1.20342 9.36186
131 2 2.2208 10.5772 19.9154 8.02595
330 2 2.2208 13.4251 5.77814 13.6476
328 2 2.2208 10.5427 19.902 13.4656
8936 2 2.2208 13.3746 17.0112 13.6053
314 2 2.2208 4.86681 3.00075 13.3006
172 1 -1.1104 0.69588 1.8113 12.0929
176 1 -1.1104 0.522549 1.54673 9.18864
182 2 2.2208 4.86421 3.10116 8.02829
186 1 -1.1104 3.45307 1.79261 11.8246
189 1 -1.1104 3.37591 1.76307 8.97688
191 2 2.2208 2.01913 2.98512 10.5416
234 2 2.2208 4.89722 6.01279 10.6316
236 1 -1.1104 0.688377 7.41873 12.0035
238 1 -1.1104 0.960991 7.41386 9.24901
240 1 -1.1104 0.628063 4.5717 11.924
245 1 -1.1104 0.465611 4.65956 9.29745
249 1 -1.1104 3.68949 7.26358 12.0975
250 2 2.2208 2.19479 5.78671 7.79418
254 1 -1.1104 3.29719 4.49876 11.8003
256 1 -1.1104 3.47381 4.43675 9.16233
252 1 -1.1104 3.45225 7.31976 9.17364
242 1 -1.1104 5.83716 4.5811 11.8899
178 1 -1.1104 6.11697 1.78286 9.53572
174 1 -1.1104 6.46875 1.6768 12.0279
239 1 -1.1104 6.48213 7.37102 9.22038
229 1 -1.1104 6.50404 7.52408 6.55054
237 1 -1.1104 6.26219 7.33915 12.0859
247 1 -1.1104 6.23653 4.70777 8.48565
319 2 2.2208 2.08834 5.75209 13.3959
197 2 2.2208 13.1977 2.94874 10.6083
77 1 -1.1104 11.7817 18.326 9.26271
51 2 2.2208 13.2267 6.02476 7.72354
200 1 -1.1104 11.6997 1.85989 6.47221
208 1 -1.1104 11.831 1.62872 11.7839
210 1 -1.1104 11.6156 1.58641 9.08108
213 2 2.2208 10.2862 3.09886 7.90281
216 1 -1.1104 9.06781 1.5906 12.0447
219 1 -1.1104 8.79876 1.51971 9.43224
221 2 2.2208 7.66512 3.0285 10.7396
262 1 -1.1104 8.98109 4.4035 9.46465
265 1 -1.1104 8.95651 4.62112 12.0965
269 2 2.2208 7.96837 6.18936 7.77885
270 2 2.2208 10.4894 5.93689 10.8744
274 1 -1.1104 11.7954 4.38942 12.1816
277 1 -1.1104 11.8939 4.48016 9.29926
273 1 -1.1104 12.2178 7.11922 9.45404
279 1 -1.1104 8.94413 7.44786 12.1216
267 1 -1.1104 9.22291 7.47445 9.28422
272 1 -1.1104 11.7364 7.15988 12.2049
324 2 2.2208 7.59124 6.06037 13.58
312 2 2.2208 4.88269 -2.58818 13.5072
235 2 2.2208 4.73275 11.5409 10.8406
241 1 -1.1104 0.758853 10.1658 12.0166
244 2 2.2208 4.95185 8.66647 7.6961
246 1 -1.1104 0.641904 9.97677 9.32725
251 2 2.2208 2.08287 11.4167 8.05532
253 2 2.2208 2.09723 8.67355 10.6687
255 1 -1.1104 3.35895 10.1345 12.381
257 1 -1.1104 3.20924 10.0546 9.44848
281 1 -1.1104 3.27185 12.8946 12.073
288 1 -1.1104 0.754637 13.0231 9.51194
293 1 -1.1104 0.603016 13.0535 12.2772
299 1 -1.1104 3.66033 12.9963 9.4941
243 1 -1.1104 6.27865 10.1036 12.2857
284 1 -1.1104 6.32312 13.1561 9.19128
291 1 -1.1104 6.1266 12.9611 12.3982
248 1 -1.1104 6.01226 10.3321 9.24039
316 2 2.2208 7.646 0.223572 13.2461
325 2 2.2208 2.00362 17.0451 13.5924
310 2 2.2208 10.3366 17.2032 -0.365963
337 2 2.2208 13.3304 11.5237 7.83968
137 1 -1.1104 11.786 12.8541 6.81971
95 1 -1.1104 8.93658 10.1526 6.48889
258 1 -1.1104 8.90249 10.1783 9.48646
264 1 -1.1104 9.2512 10.0888 12.3207
266 2 2.2208 7.60583 8.80126 10.8761
268 2 2.2208 7.82155 11.4832 7.77566
271 2 2.2208 10.6486 11.5521 10.9322
275 1 -1.1104 11.9739 10.134 12.2107
276 2 2.2208 10.4641 8.84099 7.74257
278 1 -1.1104 11.9662 9.95412 9.29645
305 1 -1.1104 9.23065 12.7727 9.55864
29 1 -1.1104 12.0545 12.9464 12.3179
76 1 -1.1104 12.0904 12.9706 9.47261
194 1 -1.1104 9.12836 12.8939 12.3993
50 2 2.2208 13.2426 8.67868 10.6663
195 1 -1.1104 9.11545 18.4873 12.3948
632 2 2.2208 2.02213 8.57428 -0.401749
111 1 -1.1104 0.551093 15.6749 6.57719
283 1 -1.1104 6.02865 16.0428 9.36732
290 1 -1.1104 6.0346 18.5589 12.3543
300 1 -1.1104 6.36624 15.5575 12.0805
296 1 -1.1104 0.513018 18.5869 6.59787
289 2 2.2208 4.91917 14.3703 8.03156
304 2 2.2208 1.99031 14.408 10.7509
280 1 -1.1104 3.27095 18.7312 12.217
285 1 -1.1104 0.385049 18.4664 9.46615
286 1 -1.1104 0.733146 15.7518 9.41688
287 2 2.2208 4.82181 20.1006 7.95517
292 1 -1.1104 0.694334 18.5347 12.2981
294 2 2.2208 4.71885 17.4115 10.8338
295 1 -1.1104 3.32432 18.6163 9.32195
297 2 2.2208 1.9062 17.1752 7.74833
298 1 -1.1104 3.64042 15.9006 9.50503
301 1 -1.1104 0.507832 15.767 12.1442
302 1 -1.1104 3.32076 15.8939 12.1381
303 2 2.2208 1.85404 19.9395 10.829
282 1 -1.1104 6.13678 18.6637 9.54416
322 2 2.2208 7.66527 11.6111 13.6253
28 2 2.2208 10.359 17.1816 10.688
320 2 2.2208 4.8017 8.73212 13.5307
30 1 -1.1104 11.8782 18.6719 11.8004
8924 2 2.2208 13.4232 14.2739 10.746
196 2 2.2208 7.5324 17.2525 7.99224
309 1 -1.1104 8.93165 15.9488 12.0946
341 2 2.2208 4.879 0.235092 16.2285
342 1 -1.1104 0.387371 -3.94548 17.6204
346 1 -1.1104 0.684014 -4.07874 15.1498
354 1 -1.1104 0.435224 -1.15322 17.896
356 2 2.2208 4.77485 -2.61385 19.0339
358 1 -1.1104 0.848844 -1.2266 15.0723
362 1 -1.1104 3.33599 -3.9624 17.8891
364 2 2.2208 1.93396 0.166452 19.0555
365 1 -1.1104 3.386 -4.07729 14.8655
369 2 2.2208 2.16958 -2.5974 16.3609
371 1 -1.1104 3.41395 -1.14185 17.779
372 1 -1.1104 3.82405 -1.36091 15.0359
344 1 -1.1104 6.25823 -4.04181 17.6241
350 1 -1.1104 6.31286 -4.1164 14.7236
355 1 -1.1104 6.34603 -1.10749 17.6828
360 1 -1.1104 6.39991 -1.22236 14.6025
662 2 2.2208 10.7026 5.91096 27.5545
373 1 -1.1104 3.22149 -1.17262 20.4214
347 1 -1.1104 0.676693 -3.99001 20.5988
359 1 -1.1104 0.513171 -1.13094 20.6788
361 1 -1.1104 6.24096 -1.09964 20.5093
351 1 -1.1104 6.12925 -3.97026 20.5065
8347 2 2.2208 13.5693 -5.388 25.0019
384 2 2.2208 10.6124 0.196103 16.0987
385 1 -1.1104 11.9067 -3.95101 17.6652
387 1 -1.1104 11.9904 -4.25002 14.8146
391 1 -1.1104 11.952 -1.38238 17.6286
392 2 2.2208 10.449 -2.48857 19.1385
394 1 -1.1104 12.152 -1.3193 14.844
396 1 -1.1104 9.27258 -4.15844 17.9017
398 2 2.2208 7.61269 0.201359 19.0349
399 1 -1.1104 9.11783 -4.03837 14.8545
403 2 2.2208 7.8994 -2.69528 16.0788
405 1 -1.1104 9.2309 -1.19875 17.5471
406 1 -1.1104 9.5024 -1.30048 14.8418
8990 2 2.2208 13.3407 0.152345 19.0192
388 1 -1.1104 11.8649 -4.03776 20.7258
568 2 2.2208 1.89916 3.0584 27.589
9028 2 2.2208 13.364 -2.76456 16.3208
407 1 -1.1104 9.08631 -0.970078 20.63
400 1 -1.1104 9.05344 -3.77647 20.642
395 1 -1.1104 11.8053 -1.09919 20.384
343 1 -1.1104 0.493652 1.737 17.7541
348 1 -1.1104 0.50574 1.71848 14.9555
357 2 2.2208 4.88161 3.10438 19.12
363 1 -1.1104 3.40054 1.42608 17.6091
367 1 -1.1104 3.28827 1.49267 14.9411
370 2 2.2208 1.91272 2.92414 16.2963
417 2 2.2208 4.8076 5.67221 16.2648
425 1 -1.1104 0.57336 4.46817 17.7806
430 1 -1.1104 0.523058 4.38863 14.8418
439 2 2.2208 1.9691 5.87515 19.0802
441 1 -1.1104 3.41335 6.93063 15.0454
444 1 -1.1104 3.31024 4.21141 17.6715
446 1 -1.1104 3.68349 4.40806 14.7269
421 1 -1.1104 0.573588 7.25631 15.0359
419 1 -1.1104 0.518775 7.29717 17.7029
438 1 -1.1104 3.35284 7.25741 18.0356
423 1 -1.1104 6.08879 7.35533 14.9762
352 1 -1.1104 6.25611 1.65495 14.7522
427 1 -1.1104 6.25765 4.4025 17.8044
442 1 -1.1104 3.41358 7.5613 20.8583
345 1 -1.1104 6.32776 1.6723 17.6416
434 1 -1.1104 6.37964 4.46615 14.7754
420 1 -1.1104 6.03083 7.3495 17.7212
349 1 -1.1104 0.666983 1.52558 20.4677
431 1 -1.1104 0.813811 4.31873 20.8064
447 1 -1.1104 3.4549 4.36912 20.4903
422 1 -1.1104 0.559655 7.12408 20.585
353 1 -1.1104 6.54713 1.693 20.1252
435 1 -1.1104 6.12829 4.40559 20.7008
386 1 -1.1104 11.923 1.58134 17.5119
389 1 -1.1104 11.9839 1.60877 14.8137
393 2 2.2208 10.5343 3.01652 18.9217
397 1 -1.1104 9.23975 1.33788 17.5922
401 1 -1.1104 9.11558 1.61966 14.6135
404 2 2.2208 7.65313 2.91868 16.1838
453 2 2.2208 10.2051 5.7624 16.3346
456 1 -1.1104 11.6224 7.23515 14.894
458 1 -1.1104 12.0601 4.41766 17.7255
461 1 -1.1104 11.7336 4.36716 14.912
465 1 -1.1104 8.92843 6.87341 17.7874
466 2 2.2208 7.71722 5.92003 19.1181
468 1 -1.1104 8.92597 7.37572 14.9508
471 1 -1.1104 8.99635 4.12382 17.6941
473 1 -1.1104 8.91515 4.48906 14.8327
455 1 -1.1104 11.8248 7.38513 17.6042
9059 2 2.2208 13.4037 5.73837 19.0891
8376 2 2.2208 2.08883 -5.34133 24.9762
457 1 -1.1104 12.2268 7.19603 20.6012
469 1 -1.1104 9.1937 7.53878 20.4872
390 1 -1.1104 12.0707 1.41972 20.469
462 1 -1.1104 11.8836 4.27356 20.5245
418 2 2.2208 4.74564 11.4604 16.4645
426 1 -1.1104 0.409339 10.2415 17.7278
429 2 2.2208 4.88699 8.74292 19.2951
432 1 -1.1104 0.774904 10.038 14.9359
440 2 2.2208 1.87383 11.5158 19.1791
443 2 2.2208 2.1224 8.54138 16.3562
445 1 -1.1104 3.38769 10.0571 17.7465
448 1 -1.1104 3.46614 9.87314 14.9826
481 1 -1.1104 0.64305 12.9228 17.6985
485 1 -1.1104 0.568723 12.9369 15.0499
500 1 -1.1104 3.47711 12.8474 17.7983
503 1 -1.1104 3.46227 12.7512 14.9577
486 1 -1.1104 0.277066 12.6849 20.3133
483 1 -1.1104 6.35037 12.9747 17.9972
428 1 -1.1104 6.31815 10.4057 17.6819
436 1 -1.1104 6.12587 10.1776 14.9641
504 1 -1.1104 3.22814 12.9604 20.698
437 1 -1.1104 6.30383 10.0141 20.4426
489 1 -1.1104 6.16985 13.0198 15.0084
490 1 -1.1104 6.16559 12.8332 20.7062
571 2 2.2208 13.2314 8.72529 16.2039
454 2 2.2208 10.4541 11.6591 16.1715
459 1 -1.1104 12.3193 10.2289 17.6403
460 2 2.2208 10.6508 8.81174 19.0767
463 1 -1.1104 11.9248 10.152 14.9705
467 2 2.2208 7.75019 11.6341 19.0944
470 2 2.2208 7.62824 8.82581 16.2878
472 1 -1.1104 9.18154 10.0131 17.6808
475 1 -1.1104 9.12901 10.2873 14.8559
516 1 -1.1104 11.7743 12.7426 17.8713
518 1 -1.1104 11.8001 13.1399 14.976
527 1 -1.1104 9.0431 13.0146 17.7093
530 1 -1.1104 8.94757 13.1836 15.0332
464 1 -1.1104 12.0915 10.1769 20.3672
476 1 -1.1104 9.21451 10.3054 20.1661
519 1 -1.1104 11.7098 13.0912 20.6891
569 2 2.2208 13.369 11.4414 19.0444
531 1 -1.1104 8.85829 12.984 20.5658
507 2 2.2208 2.11005 14.4173 16.3664
480 2 2.2208 4.78074 16.9502 16.6927
482 1 -1.1104 0.555562 18.9267 17.9686
487 1 -1.1104 0.788095 18.7136 15.246
492 1 -1.1104 0.496646 15.9817 17.8103
494 2 2.2208 4.75388 14.2366 19.2492
495 2 2.2208 4.68719 19.9187 19.1982
496 1 -1.1104 0.831695 15.7026 14.9835
501 1 -1.1104 3.37695 18.4318 17.8714
502 2 2.2208 1.92962 17.071 19.2819
505 1 -1.1104 3.86654 18.4342 15.1199
508 2 2.2208 2.22948 19.8707 16.5441
509 1 -1.1104 3.24283 15.6043 17.9848
510 1 -1.1104 3.52268 15.6123 15.1278
493 1 -1.1104 6.27299 15.54 17.9072
484 1 -1.1104 6.02661 18.485 17.8715
491 1 -1.1104 6.32294 18.6315 20.6728
488 1 -1.1104 0.49915 18.482 20.6019
506 1 -1.1104 3.49316 18.5448 20.6412
511 1 -1.1104 3.27171 15.8986 20.874
9131 2 2.2208 13.354 19.9171 16.4344
376 2 2.2208 13.4333 14.2486 16.3257
498 1 -1.1104 6.21408 16.0366 15.0884
375 2 2.2208 13.3361 17.0286 19.2271
523 2 2.2208 10.4811 14.347 19.1275
534 2 2.2208 7.48198 14.3909 16.3795
515 2 2.2208 10.3053 17.0998 16.5159
517 1 -1.1104 11.7981 18.5053 17.5994
522 1 -1.1104 11.857 15.5494 18.0661
524 2 2.2208 10.5908 19.9027 19.0928
525 1 -1.1104 11.8472 15.8197 15.3112
528 1 -1.1104 9.126 18.4404 18.0687
529 2 2.2208 7.60462 17.0279 19.3409
532 1 -1.1104 9.52898 18.7083 15.0131
535 1 -1.1104 9.16086 15.687 17.8324
536 1 -1.1104 8.90819 15.8613 15.1345
520 1 -1.1104 12.319 18.7884 14.7839
521 1 -1.1104 12.0125 18.4755 20.4775
526 1 -1.1104 11.7876 15.6878 20.6224
537 1 -1.1104 8.99993 15.7202 20.5191
9061 2 2.2208 13.2207 17.2843 24.8304
366 1 -1.1104 3.45552 -3.93824 20.6767
542 2 2.2208 5.02436 0.333589 22.034
543 1 -1.1104 0.663327 -4.15021 23.3936
547 1 -1.1104 0.664481 -3.71616 26.3373
551 1 -1.1104 0.748469 -1.19843 23.6162
553 2 2.2208 4.86733 -2.45257 24.5473
555 1 -1.1104 0.457031 -1.20165 26.0609
557 1 -1.1104 3.37502 -3.90539 23.4689
559 2 2.2208 1.88098 0.306222 24.849
560 1 -1.1104 3.26425 -3.86679 26.3599
562 2 2.2208 2.03518 -2.4789 22.159
564 1 -1.1104 3.44776 -0.874929 23.1914
565 1 -1.1104 3.26871 -1.21995 25.9981
556 1 -1.1104 6.23256 -1.09158 25.9584
549 1 -1.1104 6.4637 -4.0334 25.8294
552 1 -1.1104 6.10215 -1.11557 23.3215
545 1 -1.1104 6.08768 -3.75673 23.2482
8377 2 2.2208 4.8315 -5.36502 21.889
598 2 2.2208 7.88476 3.20198 27.6849
315 2 2.2208 7.7288 19.8912 27.7409
597 2 2.2208 7.82239 -2.37829 27.5203
381 2 2.2208 1.98028 14.2152 27.5252
338 2 2.2208 7.71941 14.3823 27.5001
340 2 2.2208 4.65287 17.3144 27.6846
9203 2 2.2208 13.3313 -0.0341926 24.7581
578 2 2.2208 10.4629 0.270994 21.9786
579 1 -1.1104 11.8638 -4.29917 23.3675
581 1 -1.1104 11.9299 -3.94316 26.1252
583 1 -1.1104 11.9334 -1.24709 23.2734
584 2 2.2208 10.3591 -2.58478 24.8492
586 1 -1.1104 11.7434 -1.13679 26.1785
587 1 -1.1104 9.09262 -3.96937 23.3652
589 2 2.2208 7.69282 0.404765 24.792
590 1 -1.1104 9.2589 -4.01202 26.1816
592 2 2.2208 7.53882 -2.65164 21.9212
594 1 -1.1104 8.98056 -1.27312 23.7928
595 1 -1.1104 9.04406 -0.944634 26.3005
9206 2 2.2208 13.2814 -2.7208 22.0212
9063 2 2.2208 13.4542 -2.6802 27.732
8295 2 2.2208 7.89768 -5.44335 24.6635
596 2 2.2208 10.5402 0.313275 27.4744
368 1 -1.1104 3.49425 1.56731 20.6662
544 1 -1.1104 0.627414 1.64745 23.3768
548 1 -1.1104 0.440053 1.53893 26.2428
554 2 2.2208 4.7541 3.1837 24.8249
558 1 -1.1104 3.57292 1.78085 23.5145
561 1 -1.1104 3.12972 1.69712 26.3349
563 2 2.2208 2.14054 2.89394 21.9877
607 2 2.2208 4.83235 5.90521 21.9788
611 1 -1.1104 0.688854 7.35177 26.3236
613 1 -1.1104 0.746781 4.27534 23.6274
618 1 -1.1104 0.744621 4.61671 26.2993
622 1 -1.1104 3.61922 7.20251 23.7432
623 2 2.2208 1.99799 5.8623 24.7757
627 1 -1.1104 3.2647 4.57178 23.2308
629 1 -1.1104 3.59173 4.53868 26.143
609 1 -1.1104 0.775526 7.20625 23.2522
625 1 -1.1104 3.45721 7.21147 26.7331
546 1 -1.1104 6.58511 1.51309 23.0333
424 1 -1.1104 6.31853 7.06566 20.6004
550 1 -1.1104 6.2254 1.76472 26.0747
610 1 -1.1104 6.37946 7.13684 23.5337
612 1 -1.1104 6.4298 7.36538 26.3093
620 1 -1.1104 6.49317 4.31949 26.118
615 1 -1.1104 6.06738 4.38077 23.2524
9191 2 2.2208 13.2823 2.9538 21.9304
402 1 -1.1104 9.20827 1.59079 20.4213
9025 2 2.2208 13.4665 5.95147 24.864
333 2 2.2208 13.4396 2.97887 27.526
474 1 -1.1104 9.40393 4.59943 20.6767
580 1 -1.1104 11.8965 1.63855 23.585
582 1 -1.1104 11.7914 1.6491 26.3452
585 2 2.2208 10.5627 2.85061 24.8343
588 1 -1.1104 9.15996 1.68626 23.233
591 1 -1.1104 9.13688 1.83308 26.1631
593 2 2.2208 7.74975 3.10786 21.9585
639 1 -1.1104 9.17122 4.70646 26.3741
641 1 -1.1104 9.16874 4.29981 23.4684
645 2 2.2208 7.88316 5.81799 24.7886
646 2 2.2208 10.7649 5.83327 22.1634
648 1 -1.1104 11.9173 7.31681 23.5576
649 1 -1.1104 12.0929 7.35269 26.248
650 1 -1.1104 12.0512 4.38345 23.42
653 1 -1.1104 11.9176 4.399 26.2001
655 1 -1.1104 9.16729 7.31098 23.303
643 1 -1.1104 9.33972 7.27656 26.2423
658 2 2.2208 10.617 11.5169 27.7369
433 1 -1.1104 0.364982 10.0933 20.6267
449 1 -1.1104 3.28113 10.2439 20.6276
608 2 2.2208 5.0141 11.4384 22.0096
614 1 -1.1104 0.665035 9.99668 23.659
617 2 2.2208 4.88055 8.81587 24.8302
619 1 -1.1104 0.547346 10.0431 26.4009
624 2 2.2208 2.18055 11.5179 24.7835
626 2 2.2208 1.82524 8.69923 22.1088
628 1 -1.1104 3.43888 10.0418 23.48
630 1 -1.1104 3.25797 9.97652 26.2655
451 1 -1.1104 3.70949 12.8266 26.3552
512 1 -1.1104 0.480129 12.9016 23.2499
573 1 -1.1104 0.595648 12.8488 26.1359
656 1 -1.1104 3.4297 12.8225 23.4609
616 1 -1.1104 6.31508 9.89687 23.465
660 1 -1.1104 6.27437 13.1719 26.154
514 1 -1.1104 6.36734 12.774 23.568
621 1 -1.1104 6.2042 10.3977 26.263
8417 2 2.2208 1.99934 -5.46261 19.3271
9250 2 2.2208 13.4442 8.88557 21.9932
657 2 2.2208 7.81353 8.78311 27.5899
600 2 2.2208 13.2399 3.07575 16.3236
638 1 -1.1104 9.18718 10.0742 26.2866
640 1 -1.1104 9.18034 9.97392 23.4487
642 2 2.2208 7.77697 8.67412 21.9146
644 2 2.2208 7.66023 11.3708 24.7815
647 2 2.2208 10.5249 11.4965 21.8095
651 1 -1.1104 11.8818 10.2 23.3188
652 2 2.2208 10.6173 8.68391 24.9078
654 1 -1.1104 11.911 10.3474 26.1889
636 1 -1.1104 9.18342 13.0175 26.2966
413 1 -1.1104 11.9018 12.8204 23.287
570 1 -1.1104 11.8314 13.1144 26.2983
604 1 -1.1104 9.03888 12.8992 23.4538
659 2 2.2208 13.3811 11.4983 24.7629
663 2 2.2208 13.4461 8.7715 27.4809
541 1 -1.1104 11.7428 18.3337 23.4841
497 1 -1.1104 0.592069 15.6815 20.5727
631 1 -1.1104 6.19834 15.9799 26.1841
450 1 -1.1104 6.34411 15.7277 23.2849
606 1 -1.1104 0.648046 18.4662 26.4328
572 1 -1.1104 6.15386 18.7499 23.3167
635 1 -1.1104 6.54314 18.5794 26.2633
378 1 -1.1104 2.98341 18.3433 23.4118
408 2 2.2208 1.84601 14.2802 22.0156
414 2 2.2208 1.79392 19.9964 22.1195
415 1 -1.1104 3.33214 15.7403 23.4369
416 1 -1.1104 0.652163 15.7055 23.3819
452 1 -1.1104 3.34288 15.7809 26.5089
477 2 2.2208 1.84869 16.9436 24.8357
478 1 -1.1104 3.60618 18.7111 26.1385
479 2 2.2208 4.87403 17.3014 22.0531
513 1 -1.1104 0.431771 18.5464 23.3748
538 2 2.2208 4.84688 14.3293 24.8892
540 2 2.2208 5.04291 19.9504 24.9946
599 1 -1.1104 0.676094 15.7254 26.1316
8944 2 2.2208 13.5244 11.4196 13.6148
379 1 -1.1104 9.10219 15.6101 23.2109
577 2 2.2208 10.2835 19.8679 24.5098
499 1 -1.1104 6.1629 15.5887 20.6278
533 1 -1.1104 9.17702 18.7125 20.8421
637 1 -1.1104 9.26548 18.4623 26.3708
412 2 2.2208 10.4156 17.0383 21.854
661 2 2.2208 7.60592 14.2579 22.1036
377 2 2.2208 13.0832 19.9353 21.8794
574 1 -1.1104 11.9642 19.1566 26.0411
605 1 -1.1104 8.94422 18.4028 23.3502
380 2 2.2208 7.67168 20.1102 21.7389
575 1 -1.1104 11.6755 15.5986 23.4587
634 2 2.2208 7.65378 17.0164 24.7506
9062 2 2.2208 13.1157 14.3637 22.0965
603 1 -1.1104 12.2274 16.3346 26.539
576 2 2.2208 10.5308 14.2847 24.7207
602 1 -1.1104 9.11815 15.7538 26.2035
567 2 2.2208 2.03028 -2.55775 27.6313
633 2 2.2208 4.92052 11.5684 27.7471
334 2 2.2208 5.04932 5.81601 27.5327
339 2 2.2208 13.2843 14.2872 27.6769
8346 2 2.2208 10.502 -5.34953 27.5398
8942 2 2.2208 13.4941 19.9529 27.6304
8269 2 2.2208 5.00061 -5.32283 27.3142
566 2 2.2208 4.81429 0.26984 27.4339
383 2 2.2208 2.13687 20.0924 27.6257
601 2 2.2208 10.3739 -5.24207 21.7638
9029 2 2.2208 13.3213 -5.25466 19.0628
539 2 2.2208 10.4935 14.4526 13.733
321 2 2.2208 2.02159 11.4624 13.6545
329 2 2.2208 7.54819 17.2077 13.7286
664 2 2.2208 4.80809 22.7739 5.26785
666 1 -1.1104 0.67985 23.9681 0.927363
667 1 -1.1104 0.513906 23.9999 3.80781
668 1 -1.1104 0.48518 21.2897 0.655115
670 2 2.2208 4.5997 25.5518 2.35286
671 1 -1.1104 0.84924 21.3091 3.61279
673 1 -1.1104 3.40982 24.0871 1.05471
674 2 2.2208 2.01845 22.9062 2.34805
676 1 -1.1104 3.36794 24.3793 3.99902
677 2 2.2208 1.91403 25.4856 5.26028
678 1 -1.1104 3.13118 21.4541 1.07647
680 1 -1.1104 3.52135 21.3817 3.96605
669 1 -1.1104 0.432301 26.957 1.13495
689 1 -1.1104 6.51338 21.5339 3.87011
687 1 -1.1104 5.97377 21.5154 1.13509
688 1 -1.1104 6.07654 26.8701 0.719664
806 1 -1.1104 6.31022 21.4754 6.49833
685 1 -1.1104 6.22472 24.2705 0.814876
672 1 -1.1104 0.696242 26.9511 4.02191
808 1 -1.1104 3.23312 24.1827 6.69585
804 1 -1.1104 0.521014 21.393 6.58631
810 1 -1.1104 3.27424 27.209 6.52995
957 2 2.2208 13.6395 37.1342 5.06225
686 1 -1.1104 5.99772 24.1907 3.55839
691 2 2.2208 10.6123 22.885 5.14989
693 1 -1.1104 11.9271 23.9982 0.931648
694 1 -1.1104 11.9948 24.3247 3.78372
695 1 -1.1104 11.8962 21.3557 0.472705
697 2 2.2208 10.5649 25.6668 2.33022
698 1 -1.1104 11.9176 21.4782 3.65032
700 1 -1.1104 8.90692 24.2902 1.18264
701 2 2.2208 7.4803 22.961 2.28246
703 1 -1.1104 9.25451 24.1944 3.73604
704 2 2.2208 7.61953 25.6294 5.05398
705 1 -1.1104 8.96072 21.4092 0.806972
707 1 -1.1104 9.25983 21.3113 3.84251
9620 2 2.2208 13.3355 25.7429 5.18297
9618 2 2.2208 13.3623 22.8455 2.28022
696 1 -1.1104 11.8708 26.9242 0.879398
807 1 -1.1104 6.10325 27.1167 6.57312
836 1 -1.1104 11.8392 21.217 6.45044
835 1 -1.1104 11.8785 24.077 6.54165
1185 2 2.2208 2.17561 25.3892 -0.492818
690 1 -1.1104 6.39642 26.8218 3.51396
681 1 -1.1104 3.31161 27.0885 3.75745
679 1 -1.1104 3.29537 26.9892 1.14678
665 2 2.2208 4.90833 28.5751 5.07711
675 2 2.2208 1.86987 28.3849 2.53191
715 1 -1.1104 0.778864 29.733 1.0173
718 1 -1.1104 0.595285 29.8933 3.74721
721 1 -1.1104 0.489638 32.8775 0.979405
722 2 2.2208 4.78675 31.3351 2.33874
724 1 -1.1104 0.42613 32.8398 3.76762
726 1 -1.1104 3.62951 29.8115 0.848983
729 1 -1.1104 3.5244 29.8727 3.57694
731 2 2.2208 1.94408 31.2969 5.11892
733 1 -1.1104 3.33058 32.8264 0.777568
734 1 -1.1104 3.42961 32.7143 3.68194
736 1 -1.1104 6.42227 29.7103 0.874605
737 1 -1.1104 6.40326 29.7484 3.52947
738 1 -1.1104 6.35598 32.6037 0.861766
725 1 -1.1104 6.31976 32.596 3.55327
9624 2 2.2208 13.493 34.1608 2.39904
861 1 -1.1104 6.38397 29.9976 6.44508
1269 2 2.2208 7.71259 31.249 -0.574375
708 1 -1.1104 9.08193 27.183 3.925
706 1 -1.1104 9.10168 26.8937 0.904148
699 1 -1.1104 11.9319 27.0402 3.59022
692 2 2.2208 10.504 28.3271 5.27809
702 2 2.2208 7.56493 28.2929 2.23947
740 1 -1.1104 12.0523 29.8856 1.05246
742 1 -1.1104 12.08 29.7768 3.88114
744 1 -1.1104 12.1215 32.6275 0.945786
745 2 2.2208 10.6508 31.0981 2.29658
747 1 -1.1104 12.0008 32.6993 3.78305
748 1 -1.1104 9.2484 29.6602 1.02709
751 1 -1.1104 9.2368 29.9586 3.78201
753 2 2.2208 7.81088 31.1902 5.13747
755 1 -1.1104 9.12979 32.5621 1.13591
756 1 -1.1104 9.21383 32.7292 3.83315
895 1 -1.1104 12.0731 32.6834 6.50983
893 1 -1.1104 11.8785 29.7281 6.71632
9366 2 2.2208 13.4611 31.4399 5.17225
9619 2 2.2208 13.3854 28.5464 2.62165
9643 2 2.2208 13.6005 45.5387 13.6553
898 1 -1.1104 9.13755 32.7038 6.65678
960 2 2.2208 13.5309 45.3053 8.21441
714 2 2.2208 4.8454 34.2903 5.17863
716 1 -1.1104 0.622033 35.6025 0.854716
719 1 -1.1104 0.542668 35.521 3.54766
723 2 2.2208 4.97111 36.8417 2.37259
727 1 -1.1104 3.5436 35.6129 1.07683
728 2 2.2208 2.07562 34.1195 2.22632
730 1 -1.1104 3.47855 35.4237 3.80677
732 2 2.2208 2.11042 36.7491 5.18314
758 2 2.2208 4.72989 39.5653 5.27878
763 1 -1.1104 0.811528 38.5149 0.878282
769 1 -1.1104 0.87741 38.2068 3.43884
774 2 2.2208 2.32029 39.6674 2.43665
778 1 -1.1104 3.88968 38.3894 1.11319
780 1 -1.1104 3.4197 38.1311 3.84044
866 1 -1.1104 3.25236 35.3873 6.61181
717 1 -1.1104 6.12428 35.5213 0.894933
720 1 -1.1104 6.31658 35.3708 3.87008
765 1 -1.1104 6.45359 38.2755 1.04247
771 1 -1.1104 6.2378 38.5079 3.66567
958 2 2.2208 13.571 42.5677 5.0683
862 1 -1.1104 6.43951 35.6275 6.62726
934 1 -1.1104 6.33073 38.3739 6.48805
959 2 2.2208 13.3888 39.6405 8.17545
801 2 2.2208 13.4196 39.7999 2.31416
739 2 2.2208 10.789 34.1843 5.17671
741 1 -1.1104 11.8179 35.5318 1.00785