ITEM: TIMESTEP
50000
ITEM: NUMBER OF ATOMS
18000
ITEM: BOX BOUNDS xy xz yz pp pp pp
-1.1002560256596915e-01 2.8004025602565640e+01 0.0000000000000000e+00
-1.3370539572937543e+00 3.3606505395729346e+02 0.0000000000000000e+00
-1.1192875984851515e-01 2.8005928759849084e+01 0.0000000000000000e+00
ITEM: ATOMS id type x y z
1 1 1.4204 0.17883 1.29897
2 1 4.02861 0.220602 1.30288
3 1 4.10862 0.237608 4.13033
4 1 1.1354 -0.0360892 4.05558
5 1 1.13902 3.13686 1.38222
6 1 4.01417 2.94804 1.47979
7 1 4.00629 2.85335 4.13843
8 1 1.14239 2.69278 4.0676
9 1 6.87521 0.144392 1.22948
10 1 9.7497 0.09147 1.36368
11 1 9.72453 0.109883 4.08446
12 1 6.89868 0.224649 4.01876
13 1 6.89789 2.92197 1.39207
14 1 9.80049 2.87345 1.29463
15 1 9.61188 2.81064 4.18088
16 1 6.78137 3.00731 4.14547
17 1 12.4197 0.00777567 1.29985
18 1 12.5316 0.125432 4.10525
19 1 12.5051 2.75952 1.26571
20 1 12.4521 2.91711 4.10638
21 1 1.2281 6.05518 1.3174
22 1 3.8979 5.76582 1.40826
23 1 3.83931 5.65415 4.23439
24 1 1.15842 5.48706 4.13644
25 1 1.1567 8.74252 1.47819
26 1 4.07031 8.65374 1.0037
27 1 3.85393 8.38559 4.11055
28 1 1.24966 8.40513 4.2115
29 1 6.68358 5.87033 1.22162
30 1 9.53209 5.61479 1.40086
31 1 9.63764 5.68763 4.23324
32 1 6.75646 5.60328 3.93821
33 1 6.78232 8.56039 1.40229
34 1 9.41852 8.36482 1.41909
35 1 9.50022 8.50245 4.23468
36 1 6.65393 8.3572 4.15423
37 1 12.2851 5.72576 1.4239
38 1 12.4773 5.79013 4.26084
39 1 12.2325 8.44347 1.46351
40 1 12.4127 8.61499 4.21108
41 1 1.14915 11.4335 1.40716
42 1 3.9122 11.3352 1.30821
43 1 3.96429 11.3282 4.14381
44 1 1.15338 11.2891 4.09466
45 1 1.31662 14.1702 1.41458
46 1 4.05306 14.1678 1.20396
47 1 4.11056 14.0358 4.03899
48 1 1.29012 14.1219 4.14854
49 1 6.89443 11.3032 1.44683
50 1 9.76499 11.1948 1.31638
51 1 9.56808 11.1592 4.17255
52 1 6.81922 11.2818 4.20328
53 1 6.86299 14.108 1.50556
54 1 9.76822 13.9387 1.26735
55 1 9.73059 14.133 4.08453
56 1 6.87541 14.1559 4.15836
57 1 12.3613 11.3547 1.19091
58 1 12.303 11.4653 4.18769
59 1 12.6361 14.2636 1.29097
60 1 12.5807 14.2074 4.12754
61 1 1.07534 16.976 1.31576
62 1 3.98075 16.8376 1.31956
63 1 4.12565 16.9727 4.12691
64 1 1.25152 17.1068 3.98806
65 1 1.29702 19.7121 1.37327
66 1 4.23326 19.6868 1.47127
67 1 4.07113 19.7344 4.21329
68 1 1.15867 19.835 4.12198
69 1 6.84663 16.8722 1.34219
70 1 9.74537 16.7487 1.36633
71 1 9.66822 16.9487 4.22527
72 1 6.99351 16.6884 4.06022
73 1 6.93566 19.6882 1.1914
74 1 9.71793 19.6258 1.32382
75 1 9.61006 19.7171 4.07623
76 1 6.84935 19.6606 3.99118
77 1 12.4657 17.033 1.25789
78 1 12.4596 17.0786 4.19471
79 1 12.4429 19.8406 1.50892
80 1 12.4072 19.8072 4.1443
81 1 1.24198 22.4991 1.33495
82 1 4.12438 22.5139 1.31954
83 1 4.17625 22.5453 4.09991
84 1 1.41306 22.5702 4.21277
85 1 6.83342 22.5841 1.24845
86 1 9.8431 22.467 1.22367
87 1 9.82893 22.5856 4.03497
88 1 7.08927 22.4827 4.07088
15126 2 13.9831 -1.38747 13.9424
90 1 12.5579 22.616 4.15868
91 1 1.15711 -0.0377327 6.77297
92 1 3.95947 0.0643951 7.09127
93 1 3.96923 0.13897 9.83533
94 1 1.22024 0.178673 9.74525
95 1 1.20501 2.84219 7.04422
96 1 3.95641 2.86203 6.96161
97 1 4.12982 2.78478 9.77064
98 1 1.36409 2.95202 9.81374
99 1 6.63432 0.185255 6.70812
100 1 9.4034 0.132364 6.98858
101 1 9.81511 -0.0288478 9.72682
102 1 6.81158 0.0884986 9.67815
103 1 6.90915 2.89093 6.78853
104 1 9.73072 2.85756 6.97668
105 1 9.87233 2.85195 9.68536
106 1 7.07517 2.8141 9.78754
107 1 12.362 -0.0561635 6.75273
108 1 12.4769 -0.102552 9.6708
109 1 12.5473 2.74487 7.00091
110 1 12.5981 2.78507 9.79783
111 1 1.15517 5.56929 6.87902
112 1 3.9786 5.64884 6.90716
113 1 4.02405 5.64762 9.8316
114 1 1.29637 5.69867 9.67423
115 1 1.28103 8.45928 6.87829
116 1 4.04452 8.35032 6.97059
117 1 4.08637 8.48404 9.7634
118 1 1.2052 8.6105 9.78871
119 1 6.88051 5.60054 6.98509
120 1 9.70885 5.54247 6.94448
121 1 9.83035 5.66591 9.73426
122 1 6.92968 5.66839 9.72546
123 1 6.84438 8.47445 6.87923
124 1 9.67657 8.36558 6.9577
125 1 9.72496 8.45619 9.91156
126 1 6.9102 8.45792 9.77091
127 1 12.5629 5.43964 6.92144
128 1 12.7051 5.60753 9.72163
129 1 12.5355 8.54416 6.87575
130 1 12.5858 8.40872 9.60388
131 1 1.20987 11.3137 6.85927
132 1 4.09136 11.2056 6.99306
133 1 4.0857 11.3857 9.71057
134 1 1.34301 11.2156 9.81027
135 1 1.33802 14.2686 6.9042
136 1 4.02616 14.1032 6.86863
137 1 3.97636 14.3089 9.56366
138 1 1.28497 14.1235 9.83228
139 1 6.86325 11.2519 6.97586
140 1 9.68845 11.3183 6.96961
141 1 9.6336 11.0743 9.70882
142 1 6.81974 11.2805 9.80473
143 1 6.88936 14.0704 7.23265
144 1 9.69994 14.1592 6.94764
145 1 9.58148 13.9902 9.77422
146 1 6.70882 14.1434 9.94897
147 1 12.491 11.2944 7.0158
148 1 12.5779 11.2496 9.71374
149 1 12.4369 14.2491 6.89876
150 1 12.3654 14.1455 9.55836
151 1 1.22862 16.9966 6.99835
152 1 4.03288 16.9973 6.8958
153 1 3.9061 17.0154 9.803
154 1 1.22996 16.94 9.70472
155 1 1.25229 19.7694 7.02124
156 1 4.19248 19.8064 6.93369
157 1 3.95856 19.725 9.86595
158 1 1.18702 19.8905 9.84174
159 1 6.83375 16.8999 6.9128
160 1 9.69264 16.8568 6.92019
161 1 9.83109 16.9097 9.8129
162 1 6.9374 16.9599 9.69545
163 1 6.9529 19.7001 6.95778
164 1 9.69015 19.6138 6.83422
165 1 9.66399 19.761 9.66015
166 1 6.82227 19.854 9.73232
167 1 12.5626 17.082 6.89983
168 1 12.4879 16.9707 9.63851
169 1 12.4297 19.9486 6.92685
170 1 12.5083 19.579 9.79052
171 1 1.14508 22.5911 6.97314
172 1 3.99209 22.5429 6.8554
173 1 4.0515 22.4836 9.83577
174 1 1.10886 22.6999 9.71471
175 1 6.82029 22.6508 6.89808
176 1 9.71869 22.48 6.92503
177 1 9.64047 22.4898 9.76705
178 1 6.95726 22.53 9.70624
179 1 12.5205 22.6337 7.03901
180 1 12.5124 22.5586 9.82518
181 1 1.25299 0.20302 12.7189
182 1 4.08944 -0.0416277 12.683
183 1 1.27819 2.98298 12.542
184 1 4.1152 2.84767 12.6804
185 1 6.84356 -0.0264964 12.693
186 1 9.55619 0.0538423 12.5147
187 1 6.87879 2.73532 12.4619
188 1 9.56953 2.82262 12.3826
189 1 12.2896 -0.0458629 12.5395
190 1 12.3983 2.96861 12.7686
191 1 1.15747 5.74908 12.5005
192 1 3.97083 5.69803 12.687
193 1 1.30248 8.51001 12.6907
194 1 4.02336 8.43094 12.5385
195 1 6.91704 5.51376 12.5562
196 1 9.58973 5.5623 12.5191
197 1 6.80673 8.49398 12.4868
198 1 9.62241 8.58458 12.5444
199 1 12.5559 5.70181 12.6506
200 1 12.4462 8.28763 12.5651
201 1 1.29474 11.3586 12.4228
202 1 4.0131 11.1319 12.582
203 1 1.35081 14.2123 12.644
204 1 3.97512 13.9997 12.6734
205 1 6.87053 11.2654 12.6345
206 1 9.7864 11.3918 12.4566
207 1 6.70424 14.0831 12.7556
208 1 9.81859 14.3237 12.5575
209 1 12.5895 11.1084 12.4131
210 1 12.477 13.8309 12.3951
211 1 1.29431 16.8717 12.7879
212 1 4.04913 16.9801 12.5635
213 1 1.04491 19.8053 12.5853
214 1 3.83775 19.8149 12.6782
215 1 6.70764 16.9684 12.5841
216 1 9.67613 17.0534 12.5984
217 1 6.7321 19.7767 12.62
218 1 9.56516 19.8856 12.5022
219 1 12.5988 16.7686 12.651
220 1 12.4756 19.5987 12.658
221 1 1.30577 22.5858 12.5685
222 1 3.94157 22.5421 12.5992
223 1 6.81699 22.5805 12.658
224 1 9.6383 22.6724 12.5873
225 1 12.2964 22.3813 12.5501
12144 2 5.29754 18.3998 14.1224
12039 2 11.1304 15.5471 -0.0566515
12136 2 2.66558 9.88297 13.9852
12049 2 11.0893 21.0859 -0.172832
15131 2 14.0696 4.13318 13.9661
12036 2 8.43085 18.2546 -0.0332359
15012 2 13.912 4.24023 2.86058
12008 2 5.45849 1.46309 2.76302
15002 2 13.7305 -1.50897 2.71041
12010 2 11.0372 1.47504 2.69308
12125 2 11.0579 21.0403 11.1429
15052 2 13.833 -1.47395 8.29986
12013 2 2.62014 4.25842 2.87718
12124 2 8.3025 23.8199 11.1697
12057 2 8.23174 -1.38973 8.36267
15111 2 13.9771 12.5408 11.1049
12017 2 8.27133 4.21897 2.81717
12018 2 5.42206 7.13537 2.74193
15032 2 14.0255 15.5059 2.69799
12020 2 11.0595 7.17999 2.84348
12113 2 5.47994 9.81863 11.1142
12104 2 8.33369 1.34058 11.0359
12023 2 2.50396 9.95281 2.81426
12111 2 -0.146576 9.77988 11.2391
12135 2 11.0481 6.93659 13.8523
12107 2 2.58279 6.98296 11.1763
12027 2 8.21216 9.8226 2.66962
12028 2 5.43799 12.7313 2.73787
15101 2 13.9983 1.32457 11.0437
12030 2 11.1718 12.7266 2.63403
12102 2 2.71614 1.42826 11.203
12114 2 8.24906 12.5017 11.1649
12033 2 2.76718 15.5355 2.72123
12131 2 2.69729 4.16193 14.0523
12100 2 11.1 23.8639 8.44988
12099 2 10.9599 21.0904 5.37928
12037 2 8.32439 15.4166 2.80819
12038 2 5.50867 18.2306 2.69164
12098 2 5.42065 23.7739 8.33414
12040 2 11.073 18.3224 2.78867
12097 2 8.32482 20.982 8.34245
12046 2 8.27194 23.8871 -0.128297
12043 2 2.73048 21.1314 2.88089
12123 2 5.3731 21.1303 11.1134
12096 2 8.2278 23.9023 5.54622
12095 2 5.53441 21.1296 5.38731
12047 2 8.25961 21.085 2.62872
12048 2 5.41674 24.0024 2.67713
12115 2 11.2434 9.74007 11.0419
12050 2 11.0959 23.8665 2.6827
15042 2 13.865 21.1825 2.84486
12052 2 2.64022 1.43642 5.49871
12112 2 2.62712 12.669 11.2127
12122 2 2.69202 23.9602 11.2315
12110 2 11.1467 4.18226 11.1202
12056 2 8.15304 1.50017 5.45375
12109 2 8.32508 6.92454 11.2156
12058 2 5.44824 1.42545 8.25628
12108 2 5.57403 4.18449 11.0995
12060 2 11.2152 1.33894 8.30149
12120 2 11.1092 15.5381 11.0506
12062 2 2.50859 6.90598 5.51794
12063 2 2.52956 4.20812 8.45907
12119 2 8.16373 18.5394 11.1997
12065 2 5.38489 4.33726 5.52132
12066 2 8.20356 7.05732 5.521
12067 2 8.37357 4.15522 8.36411
12068 2 5.51858 7.0567 8.25611
12069 2 11.1662 4.20018 5.59824
12070 2 11.2598 6.88458 8.11867
12084 2 -0.250445 18.3354 8.39523
12072 2 2.53539 12.7218 5.61502
12073 2 2.73948 9.73923 8.45127
12118 2 5.40545 15.491 11.3087
12075 2 5.31773 9.84159 5.48337
12076 2 8.34544 12.5964 5.59096
12077 2 8.3807 9.66415 8.34154
12078 2 5.46699 12.6973 8.44196
12079 2 11.0069 9.887 5.56931
12080 2 11.1616 12.5842 8.3792
15051 2 13.924 1.36459 5.57295
12082 2 2.63203 18.3733 5.53093
12083 2 2.56643 15.4955 8.31068
12117 2 2.60856 18.2907 11.2583
12085 2 5.45667 15.4532 5.71003
12086 2 8.25397 18.0724 5.62225
12087 2 8.39604 15.4266 8.41697
12088 2 5.40273 18.2893 8.39074
12089 2 11.1003 15.4851 5.51783
12090 2 11.1014 18.3987 8.21788
15116 2 13.9359 18.2076 11.0446
12092 2 2.67697 23.9425 5.60457
12093 2 2.60067 21.213 8.38121
450 1 12.6895 22.4323 1.2449
12024 2 -0.120672 12.7784 2.75231
12042 2 2.64517 23.9281 -0.0627201
15081 2 13.8747 18.4426 5.57115
15061 2 14.0669 7.02862 5.33532
12071 2 -0.239807 9.91367 5.50731
12133 2 8.3313 4.14105 13.8896
15092 2 13.7848 21.1989 8.40283
15031 2 13.8746 18.2511 -0.135816
12045 2 5.45386 21.0999 -0.118412
15071 2 13.9719 12.7434 5.60525
15062 2 14.1233 4.25656 8.45222
12025 2 5.4937 9.9364 -0.0806698
12019 2 11.1494 4.20227 -0.0099399
15136 2 13.8506 9.85014 14.0613
12035 2 5.53587 15.6097 -0.0964133
15011 2 13.8745 7.03354 -0.0249504
12015 2 5.42314 4.18945 0.0715989
15141 2 13.9135 15.2587 13.6889
12022 2 2.69262 12.6793 -0.119748
12129 2 5.56141 1.297 14.0017
12006 2 8.32609 1.37885 -0.138659
12016 2 8.3419 7.04406 -0.131981
12140 2 11.0136 12.7769 13.9255
226 1 3.97859 0.10169 15.4397
227 1 1.2244 0.0550605 15.4038
228 1 4.02672 2.88284 15.6144
229 1 1.31813 2.72781 15.4785
230 1 9.55597 0.0285949 15.4115
231 1 6.84921 -0.0171461 15.2835
232 1 9.64867 2.89045 15.3414
233 1 6.88778 2.83621 15.4105
234 1 12.2664 0.086844 15.3889
235 1 12.4078 2.86579 15.4433
236 1 3.93273 5.69148 15.3674
237 1 1.22789 5.58322 15.4646
238 1 4.142 8.4023 15.5566
239 1 1.47198 8.53532 15.5016
240 1 9.69587 5.60866 15.3254
241 1 6.96557 5.6281 15.1592
242 1 9.85037 8.35059 15.4709
243 1 6.84592 8.47288 15.389
244 1 12.3361 5.65664 15.5463
245 1 12.4656 8.53908 15.3955
246 1 4.24014 11.0785 15.3951
247 1 1.33505 11.3408 15.2928
248 1 4.17225 14.1499 15.4488
249 1 1.35154 14.1942 15.4844
250 1 9.82445 11.2498 15.3969
251 1 7.03292 11.3885 15.3328
252 1 9.512 13.9799 15.4234
253 1 6.83823 14.1497 15.4543
254 1 12.5125 11.4243 15.2759
255 1 12.374 14.0686 15.2272
256 1 4.01111 17.0247 15.4468
257 1 1.2248 17.0727 15.5864
258 1 4.11442 19.9625 15.4809
259 1 1.24225 19.6853 15.436
260 1 9.57924 16.7829 15.4455
261 1 6.70035 17.056 15.3479
262 1 9.89012 19.7021 15.267
263 1 6.90348 19.7755 15.3991
264 1 12.2752 17.0579 15.6831
265 1 12.5268 19.8371 15.4108
266 1 4.03154 22.6406 15.4797
267 1 1.07838 22.5109 15.3755
268 1 9.68069 22.4341 15.431
269 1 6.98867 22.4933 15.4523
270 1 12.5358 22.5354 15.3202
271 1 1.378 0.166752 18.3094
272 1 4.17053 0.130722 18.2601
273 1 4.05219 0.348777 21.092
274 1 1.20972 -0.0488903 21.0808
275 1 1.20376 2.89023 18.3635
276 1 4.18016 2.86427 18.3808
277 1 3.97323 3.25908 21.173
278 1 1.18552 2.86844 21.1297
279 1 6.95133 -0.097067 18.2516
280 1 9.6818 0.00716862 18.1795
281 1 9.68292 0.0471962 20.9525
282 1 6.90574 0.0908983 20.9483
283 1 6.95231 2.83032 18.2475
284 1 9.6171 2.8194 18.0808
285 1 9.78188 2.75609 20.9859
286 1 6.8488 2.88648 21.1619
287 1 12.5922 -0.0910287 18.1754
288 1 12.3016 0.0416051 20.9839
289 1 12.4023 2.87924 18.2951
290 1 12.7793 3.03466 21.051
291 1 1.3273 5.70251 18.1782
292 1 4.08898 5.74996 18.3519
293 1 4.11045 6.39127 21.2878
294 1 1.15439 5.84366 21.1802
295 1 1.3195 8.58545 18.211
296 1 4.18591 8.54385 18.5725
297 2 4.03802 8.64798 20.8859
298 1 1.86019 8.64324 21.0927
299 1 7.16924 5.62421 17.9536
300 1 9.80578 5.58143 18.4333
301 1 9.70509 5.52617 21.1649
302 1 7.07748 5.59317 21.0063
303 1 7.05712 8.34084 18.2429
304 1 9.70937 8.32061 18.2672
305 1 9.35329 8.38328 21.109
306 1 6.1559 8.56422 20.9224
307 1 12.5003 5.60318 18.2716
308 1 12.5731 5.74383 21.0496
309 1 12.6073 8.56152 18.2392
310 1 12.4953 8.55751 20.9281
311 1 1.01084 11.5496 17.8624
312 1 3.86213 11.5307 18.3806
313 1 3.75849 10.8953 20.9809
314 1 1.07687 11.3396 20.9431
315 1 1.27437 13.9949 18.3093
316 1 4.06403 14.2144 18.1309
317 1 4.19435 13.8208 21.0186
318 1 1.37274 14.0101 21.0647
319 1 6.80348 11.1933 18.1742
320 1 9.66877 11.162 18.1016
321 1 9.80661 11.1416 20.7507
322 1 6.93252 11.2033 21.1518
323 1 6.94822 13.9565 18.3227
324 1 9.71647 13.9752 18.1432
325 1 9.54454 14.0539 21.0164
326 1 6.8355 14.0716 21.009
327 1 12.4261 11.2881 18.1504
328 1 12.5723 11.2878 20.923
329 1 12.6016 14.0353 18.0016
330 1 12.6563 13.9973 20.7655
331 1 1.30322 16.9695 18.2976
332 1 4.11531 16.9406 18.2436
333 1 4.09625 16.8589 21.0944
334 1 1.32552 16.8995 20.9526
335 1 1.34082 19.7492 18.1914
336 1 4.12456 19.7878 18.2868
337 1 4.24918 19.6495 21.1069
338 1 1.27182 19.8091 21.0159
339 1 6.92533 16.8265 18.1797
340 1 9.79696 16.8892 18.1722
341 1 9.64341 17.0391 20.8336
342 1 6.93392 16.8174 20.9276
343 1 6.87791 19.6714 18.3648
344 1 9.63622 19.9126 18.0273
345 1 9.77714 19.7407 20.9191
346 1 7.02191 19.6727 21.1368
347 1 12.6069 17.064 18.6034
348 1 12.653 19.6146 21.0734
349 1 12.4066 19.7975 18.2606
15202 2 13.9219 -1.45979 25.2042
351 1 1.19408 22.4322 18.2416
352 1 4.1424 22.7458 18.2413
353 1 4.03601 22.5311 21.0922
354 1 1.10963 22.5197 21.0027
355 1 7.05705 22.5587 18.0766
356 1 9.77159 22.6165 18.2552
357 1 9.62558 22.5428 21.0873
358 1 6.93364 22.5716 20.9259
359 1 12.5597 22.7571 18.2954
360 1 12.3481 22.4567 20.9528
361 1 1.13428 0.108519 23.9776
362 1 3.94975 0.0293692 23.8008
363 1 3.92005 0.0645487 26.5638
364 1 0.996241 -0.00401953 26.7427
365 1 1.2756 2.89112 23.8082
366 1 4.20404 2.76492 23.8505
367 1 3.99531 2.91766 26.598
368 1 1.19625 2.80271 26.6934
369 1 6.84469 0.12888 23.7229
370 1 9.57587 -0.106669 23.906
371 1 9.78483 -0.133912 26.588
372 1 6.92734 0.0875255 26.6123
373 1 6.9905 2.99351 23.8644
374 1 9.76375 2.80649 23.9646
375 1 9.60334 2.81946 26.6455
376 1 6.80301 2.80476 26.5945
377 1 12.5358 -0.112064 23.8386
378 1 12.6954 0.0419208 26.5071
379 1 12.4907 2.74615 23.6928
380 1 12.4193 2.94029 26.5293
381 1 1.05376 5.42423 23.9972
382 1 3.95612 5.52738 24.0325
383 1 3.98197 5.68449 26.7457
384 1 1.28925 5.66864 26.656
385 1 1.17025 8.38705 23.8968
386 1 3.98588 8.54654 23.0628
387 1 3.97555 8.39702 26.136
388 1 1.30976 8.33278 26.5399
389 1 7.03937 5.67157 23.8876
390 1 9.91873 5.64791 23.9883
391 1 9.61703 5.61801 26.7429
392 1 6.87978 5.42032 26.8035
393 1 6.9465 8.32779 23.6795
394 1 9.71373 8.4775 23.7228
395 1 9.80952 8.33211 26.5625
396 1 6.97492 8.40736 26.5757
397 1 12.6866 5.51196 23.8835
398 1 12.5475 5.6204 26.7447
399 1 12.5541 8.26467 23.6329
400 1 12.5503 8.57702 26.5532
401 1 1.22281 11.2444 23.7723
402 1 4.19248 11.2524 23.8385
403 1 4.03435 11.3488 26.6556
404 1 1.3194 11.1454 26.6688
405 1 1.10209 14.1992 23.8474
406 1 3.92579 14.0153 23.7918
407 1 4.00651 14.1018 26.5621
408 1 1.13041 14.07 26.6447
409 1 7.14901 11.3132 24.0808
410 1 9.9249 11.2425 23.7335
411 1 9.64552 11.2579 26.7633
412 1 6.83195 11.3857 26.772
413 1 6.6743 14.0323 23.6653
414 1 9.56473 13.9436 24.1964
415 1 9.60933 14.1262 26.7946
416 1 6.91665 14.1533 26.6143
417 1 12.5708 11.0706 23.7143
418 1 12.413 11.1972 26.4959
419 1 12.6663 13.8469 23.8856
420 1 12.4217 14.0375 26.574
421 1 1.17743 16.9563 23.5897
422 1 3.86941 16.8952 23.8234
423 1 4.08512 17.0234 26.6541
424 1 1.34138 16.9174 26.6292
425 1 1.20112 19.7047 23.8924
426 1 4.00609 19.6934 23.8485
427 1 4.07458 19.7627 26.7239
428 1 1.25527 19.7504 26.6903
429 1 6.73536 16.8836 23.7288
430 1 9.47131 17.024 23.9618
431 1 9.72627 16.842 26.7186
432 1 6.85242 16.8975 26.6183
433 1 6.92246 19.7755 23.8177
434 1 9.65758 19.789 23.6852
435 1 9.77596 19.6785 26.5999
436 1 6.97774 19.8139 26.6838
437 1 12.6006 17.1348 23.8617
438 1 12.3869 16.9264 26.6728
439 1 12.4329 22.5754 26.633
440 1 12.6326 19.6947 26.7856
441 1 1.21544 22.6319 23.8394
442 1 4.00426 22.5475 23.928
443 1 4.04999 22.5482 26.7676
444 1 1.16365 22.5269 26.6568
445 1 6.76734 22.5526 23.8888
446 1 9.62181 22.6411 23.8815
447 1 9.61191 22.5765 26.5829
448 1 6.92038 22.6526 26.5061
15201 2 13.886 1.54178 22.4371
15146 2 13.8764 21.0313 13.9176
15192 2 13.9348 21.1336 19.6018
12250 2 11.0154 23.8635 25.1401
12154 2 -0.258478 1.43132 19.6882
12184 2 -0.154984 18.2518 19.5464
15211 2 14.0554 7.02785 22.2742
12227 2 8.58303 9.81755 25.1996
12249 2 11.0003 21.1732 22.374
12226 2 8.38528 12.9141 22.4425
12225 2 5.82112 10.135 22.8382
15191 2 13.8828 23.9239 16.7323
12223 2 2.7038 9.86256 25.1776
12248 2 5.35884 23.8426 25.2248
12222 2 2.55721 12.5949 22.3571
12228 2 5.58452 12.77 25.3376
350 1 12.4371 22.6029 23.8916
12220 2 11.3542 6.94794 25.225
12247 2 8.34944 21.2277 25.1884
15181 2 13.8267 18.2 16.8335
15242 2 13.9308 20.9985 25.2863
15162 2 13.9507 4.33816 19.5673
12219 2 11.2137 4.23696 22.5683
12246 2 8.11876 23.862 22.4618
12241 2 -0.260561 21.1792 22.3526
12218 2 5.57758 6.81934 25.2175
15232 2 13.7432 15.4108 25.1137
12245 2 5.5354 21.107 22.4321
12152 2 2.64532 1.35171 16.8411
12213 2 2.56571 4.18179 25.386
12243 2 2.649 21.0995 25.332
12212 2 2.3574 6.81366 22.7824
12156 2 8.23533 1.43657 16.8224
15231 2 14.0544 18.2986 22.4749
12158 2 5.56775 1.4943 19.7053
12216 2 8.44356 6.80081 22.4569
12160 2 11.0622 1.42488 19.489
12242 2 2.56935 23.8286 22.3229
12162 2 2.63246 7.05372 16.7344
12163 2 2.51813 4.17403 19.602
12240 2 11.0955 18.2736 25.0948
12165 2 5.55525 4.0715 16.7031
12166 2 8.45107 7.06349 16.6173
12167 2 8.50469 4.11492 19.6168
12168 2 5.81176 6.83102 19.3446
12169 2 11.1435 4.26826 16.8018
12170 2 11.0265 7.09739 19.5828
12239 1 12.3855 19.8652 23.9771
12172 2 2.73591 12.9521 16.7767
12173 2 2.17851 10.3564 19.2897
12238 2 5.47122 18.4551 25.2122
12175 2 5.54735 9.77493 16.7985
12176 2 8.27787 12.6743 16.8157
12177 2 8.34884 9.87689 19.563
12178 2 5.55706 12.6551 19.6548
12179 2 11.1882 9.82954 16.8574
12180 2 11.139 12.748 19.6115
12237 2 8.19434 15.5568 25.2371
12182 2 2.65361 18.3822 16.9107
12183 2 2.76092 15.4646 19.5666
12236 2 8.31378 18.2258 22.4671
12185 2 5.50591 15.6222 16.8791
12186 2 8.33053 18.2975 16.6752
12187 2 8.34608 15.5 19.6396
12188 2 5.50293 18.3411 19.6944
12189 2 11.0151 15.4623 16.8522
12190 2 11.1023 18.3564 19.6567
12235 2 5.40295 15.4888 22.4155
12192 2 2.65512 23.956 16.8766
12193 2 2.62025 21.1579 19.5714
12230 2 11.1019 12.6934 25.1228
12195 2 5.57353 21.1749 16.8574
12196 2 8.31474 23.9828 16.7557
12197 2 8.40964 21.059 19.6036
12198 2 5.40951 24.0418 19.6182
12199 2 11.1636 21.1967 16.9085
12200 2 11.0428 23.942 19.6782
12233 2 2.67375 15.4633 25.198
12202 2 2.62058 1.47924 22.4989
12215 2 5.61657 4.26576 22.488
12232 2 2.693 18.3008 22.3844
15222 2 13.9052 9.80426 25.1643
12206 2 8.4813 1.44294 22.3851
12229 2 11.1406 9.88047 22.3329
12208 2 5.41011 1.31301 25.261
12217 2 8.26051 4.24107 25.3493
12210 2 11.2394 1.4051 25.1983
15172 2 13.9998 9.89534 19.5345
12145 2 11.1701 18.2966 14.0422
15001 2 13.9316 1.36464 28.039
15161 2 13.9956 7.0374 16.7108
12150 2 11.0151 23.8866 14.0379
15221 2 13.9506 12.651 22.3962
12149 2 5.52075 23.9437 14.0247
12032 2 2.61753 18.2293 28.1498
12031 2 -0.072756 15.5439 28.0293
12134 2 5.54388 7.02974 13.9732
12130 2 11.0407 1.44855 13.8288
12138 2 8.39497 9.90603 13.8827
12143 2 8.19746 15.4618 13.8759
12139 2 5.35871 12.5433 13.9886
12146 2 2.59941 21.3168 14.052
12021 2 0.0823506 9.98801 28.0913
15041 2 13.9513 23.8706 28.0306
12141 2 2.59871 15.6932 14.0757
12002 2 2.60918 1.44027 28.1091
12012 2 2.74837 7.00471 27.9529
12029 2 11.0761 9.88348 27.9956
12148 2 8.29465 21.1352 13.9724
12026 2 8.41357 12.576 28.0764
451 1 1.2921 25.1011 1.38506
452 1 3.99578 25.4509 1.30865
453 1 4.04736 25.1843 4.01003
454 1 1.25266 25.3833 4.05823
455 1 6.64488 25.3772 1.27485
456 1 9.55443 25.3033 1.4083
457 1 9.75916 25.5328 4.09008
458 1 6.87308 25.2666 4.11706
459 1 12.4707 28.0552 1.30489
460 1 12.4054 25.3065 4.16837
461 1 1.37139 27.8094 1.45936
462 1 4.09265 28.2456 1.3152
463 1 3.97386 28.0668 4.09136
464 1 1.12366 28.1603 4.30866
465 1 1.36447 33.8161 1.31819
466 1 3.98181 31.0774 1.3784
467 1 4.12128 30.8727 4.18344
468 1 1.26691 30.9574 1.3613
469 1 6.78085 28.2151 1.5842
470 1 9.65052 27.9902 1.33377
471 1 9.64773 28.3135 4.12259
472 1 6.81516 28.1243 4.23339
473 1 6.74293 30.981 1.21916
474 1 9.65926 31.0847 1.4093
475 1 9.64754 31.2613 4.30621
476 1 6.89081 30.9736 4.08616
477 1 12.1722 30.7728 1.47661
478 1 12.4339 28.137 4.14406
479 2 11.0478 32.3239 2.84657
480 1 12.3459 31.0295 4.0964
481 1 1.24213 36.6377 1.38438
482 1 4.06787 33.8542 1.36847
483 1 4.01551 33.729 4.09195
484 1 1.33249 33.8568 4.30108
12281 2 -0.164056 43.6924 -0.185414
486 1 3.90762 36.7111 1.40008
487 1 4.09089 36.5593 4.35285
488 1 1.39127 36.4581 4.15711
489 1 6.67507 33.8605 1.43376
490 1 9.65511 33.594 1.39961
491 1 9.68135 33.8588 4.13899
492 1 6.9213 33.8853 4.26496
493 1 6.83211 36.4951 1.26847
494 1 9.61233 36.5454 1.26337
495 1 9.81167 36.7403 4.01879
496 1 6.97294 36.6914 4.11271
497 1 12.1998 33.7357 1.48464
498 1 12.4695 36.6746 1.39858
499 1 12.4601 39.3812 1.30577
500 1 12.6251 36.4406 4.16309
501 1 1.22139 39.4756 1.39301
502 1 4.05939 39.56 1.26619
503 1 3.99163 39.4421 4.04425
504 1 1.25887 39.4523 4.28268
505 1 1.21614 42.2717 1.15185
506 1 4.05894 42.2916 1.27232
507 1 4.12621 42.2558 4.14954
508 1 1.42002 42.1178 3.96468
509 1 6.95608 39.4514 1.17787
510 1 9.73234 39.4945 1.2553
511 1 9.64379 39.4509 3.96914
512 1 6.88806 39.3441 3.96319
513 1 6.82011 42.2356 1.40934
514 1 9.592 42.2665 1.33575
515 1 9.80973 42.2541 4.18238
516 1 6.90296 42.2124 4.16555
12251 2 -0.212918 26.6202 0.0794716
518 1 12.5546 39.3902 4.07727
519 1 12.4702 42.2421 1.51953
520 1 12.6422 42.2726 4.1569
521 1 1.28234 45.0118 1.36796
522 1 3.92168 45.0705 1.45881
523 1 4.04191 45.0095 4.3081
524 1 1.19969 44.8036 4.23412
525 1 1.30908 47.6786 1.54056
526 1 3.8231 47.9292 1.31421
527 1 4.05239 47.9031 4.10482
528 1 1.11612 47.8304 4.22103
529 1 6.69882 44.865 1.42858
530 1 9.5528 45.1908 1.59499
531 1 9.56227 45.0057 4.18734
532 1 6.85934 45.0224 4.1535
533 1 6.48639 47.6427 1.39198
534 1 9.68374 47.8723 1.18879
535 1 9.82052 47.8523 3.98526
536 1 6.87321 47.7459 4.1868
537 1 12.5556 45.0948 1.3415
538 1 12.4831 44.9868 4.26308
539 1 12.4477 47.8345 1.2779
540 1 12.4089 47.7546 4.23181
541 1 1.30446 25.3731 6.85336
542 1 3.96427 25.3798 6.96315
543 1 4.10371 25.3076 9.84719
544 1 1.28492 25.3999 9.90889
545 1 6.78111 25.5378 6.9064
546 1 9.70671 25.2648 6.96343
547 1 9.63755 25.3026 9.65678
548 1 6.68394 25.2903 9.65586
549 1 12.4728 25.3646 6.93008
550 1 12.5331 25.3807 9.74165
551 1 1.21946 28.202 7.08101
552 1 3.99369 28.2692 6.90258
553 1 3.9832 28.0604 9.68411
554 1 1.15913 28.2501 9.73957
555 1 1.36362 30.9166 4.1273
556 1 4.08197 31.1007 6.96322
557 1 3.99805 30.8499 9.81135
558 1 1.20362 31.0821 9.7747
559 1 6.71606 28.2187 6.97044
560 1 9.70668 27.9652 6.92524
561 1 9.55762 27.9784 9.60812
562 1 6.83479 28.0834 9.8
563 1 6.91263 30.9185 6.91195
564 1 9.53994 30.9045 6.98994
565 1 9.61069 30.7155 9.6247
566 1 6.6793 30.9798 9.67324
567 1 12.4782 28.0603 7.0106
568 1 12.5505 27.9686 9.82704
569 1 12.3161 30.8357 6.89368
570 1 12.4335 30.7583 9.74303
571 1 1.11005 33.6708 7.09079
572 1 3.96591 33.7606 6.96266
573 1 4.276 33.667 9.73992
574 1 1.29022 33.8292 9.97358
575 1 1.1442 36.4703 6.90862
576 1 4.05628 36.4133 7.09461
577 1 3.99941 36.63 9.80418
578 1 1.19301 36.6504 9.7613
579 1 6.7843 33.6993 7.12736
580 1 9.48222 33.7908 7.01396
581 1 9.78188 33.55 9.74047
582 1 7.059 33.8936 9.87362
583 1 6.74938 36.4284 6.82326
584 1 10.0462 36.3095 6.7998
585 1 9.9748 36.4137 9.77937
586 1 6.82545 36.6009 10.0937
587 1 12.5043 33.6573 6.86811
588 1 12.4829 33.5186 9.80021
589 1 12.5986 36.4159 6.96597
590 1 12.6004 36.4026 9.95018
591 1 1.13103 39.3923 7.11957
592 1 3.92335 39.057 6.88168
593 1 3.85014 39.3421 9.6506
594 1 1.09087 39.6167 10.0497
595 1 1.20494 42.2094 6.78988
596 1 4.10365 42.1501 6.93236
597 1 4.16207 42.2526 9.67525
598 1 1.33205 42.1508 9.74239
599 1 6.61797 39.6611 6.66255
600 1 9.81482 39.5345 6.88517
601 1 9.95255 39.6465 10.046
602 1 6.54776 39.6259 9.95487
603 1 6.94971 42.2918 6.83235
604 1 9.79748 45.0307 6.97646
605 1 9.76529 42.3302 9.75013
606 1 6.85252 42.3686 9.8008
607 1 12.7253 39.26 6.88228
608 1 12.7268 39.2141 9.65732
609 1 12.5051 42.1022 6.93702
610 1 12.6622 41.9635 9.84829
611 1 1.29853 44.9814 7.08501
612 1 4.12913 45.1026 7.08744
613 1 4.21708 45.0456 9.74548
614 1 1.30334 45.0151 9.81804
615 1 1.28856 47.8928 7.09831
616 1 4.04099 47.9063 6.95696
617 1 3.99014 47.8374 9.82892
618 1 1.24475 47.7711 9.8196
619 1 6.99322 45.0959 7.0829
620 1 9.73465 47.7795 6.89882
621 1 9.68477 45.0993 9.91594
622 1 6.9214 45.0833 9.69498
623 1 6.93168 47.8603 6.90512
6463 1 13.8407 32.4188 -0.0153474
625 1 9.85525 48.0163 9.84992
626 1 6.93953 47.8336 9.81881
627 1 12.5042 45.0406 7.16229
628 1 12.3868 44.7895 9.90467
629 1 12.5963 47.7356 6.99529
630 1 12.6106 47.5889 9.80577
631 1 1.54339 25.3844 12.508
632 1 4.35546 25.4769 12.6864
633 1 7.06335 25.4303 12.5368
634 1 9.7806 25.4018 12.4539
635 1 12.553 25.2058 12.8177
636 1 1.33578 28.2679 12.5548
637 1 4.20581 28.2459 12.4994
638 1 1.3366 31.04 12.5719
639 1 4.18868 31.1848 12.6099
640 1 6.94274 28.189 12.6634
641 1 9.67496 28.1509 12.5722
642 1 6.93579 30.96 12.3468
643 1 9.5594 31.1105 12.4678
644 1 12.5599 28.1295 12.5189
645 1 12.4007 30.92 12.5418
646 1 1.28649 33.8912 12.6569
647 1 4.01285 33.991 12.6811
648 1 1.33494 36.5238 12.6213
649 1 4.05234 36.8008 12.6224
650 1 6.80879 33.7323 12.6021
651 1 9.77117 33.7785 12.4933
652 1 6.97953 36.5971 12.7777
653 1 9.48909 36.6098 12.6768
654 1 12.3888 33.743 12.6247
655 1 12.4803 36.4822 12.6261
656 1 1.22859 39.3318 12.8325
657 1 3.98296 39.4606 12.5784
658 1 1.37765 42.1387 12.6302
659 1 4.16596 42.2725 12.6463
660 1 7.00987 39.4249 12.7162
661 1 9.85764 39.3521 12.7626
662 1 6.95579 42.2761 12.6714
663 1 9.76922 42.1781 12.674
664 1 12.5777 39.4634 12.5435
665 1 12.525 42.1566 12.5478
666 1 1.2035 44.832 12.5481
667 1 4.01957 45.0009 12.5545
668 1 1.28056 47.74 12.676
669 1 4.17728 47.8794 12.5807
670 1 6.96454 45.0383 12.4768
671 1 9.79311 44.9184 12.6654
672 1 6.9842 47.9168 12.5578
673 1 9.72628 47.8401 12.5577
674 1 12.563 44.8658 12.6038
675 1 12.3883 47.7517 12.7071
12363 2 11.1527 49.1515 11.2451
15341 2 13.7749 29.4841 11.1438
12253 2 2.60969 26.5532 2.70809
12362 2 5.46343 49.2727 11.1877
624 1 9.73985 50.637 7.0444
1012 1 7.00059 50.8434 9.77049
12257 2 8.21552 26.6558 2.87308
12258 2 5.43593 29.5175 2.75668
12379 2 2.69921 43.6023 14.071
12260 2 11.0128 29.1227 2.70172
15291 2 13.8967 49.1951 2.68592
12275 2 5.56453 38.0925 -0.207737
12263 2 2.77135 32.3497 2.7924
12360 2 11.1155 43.3588 11.2294
12286 2 8.0993 46.3101 0.0212085
89 1 12.5292 25.3146 1.33288
12267 2 7.93254 32.3561 2.71657
12268 2 5.49887 35.312 2.81536
15282 2 13.966 43.6648 2.76125
12270 2 11.0963 35.4278 2.77298
12359 2 8.32735 46.4276 11.1871
1102 1 4.00989 50.5736 12.6349
12273 2 2.71046 38.0356 2.9038
12358 2 5.4413 43.6483 11.1633
12343 2 5.58059 26.6959 11.1201
12255 2 5.38729 26.8026 -0.119124
12277 2 8.20159 38.0239 2.60634
12278 2 5.4707 40.7658 2.62162
12266 2 8.28596 35.1765 -0.163609
12280 2 11.1204 40.8387 2.7057
12289 2 11.062 43.6236 0.0282715
12342 2 2.59792 29.592 11.1625
12283 2 2.55154 43.5925 2.7004
12346 2 -0.271587 32.407 11.1819
12345 2 11.0085 26.7602 11.2158
12350 2 11.0753 32.323 11.1363
12287 2 8.24659 43.6634 2.75551
12288 2 5.37025 46.3567 2.90874
15327 2 13.852 43.5134 8.54053
12290 2 11.1602 46.2953 2.85577
15346 2 13.884 35.0981 11.2466
12292 2 2.54827 49.1556 2.83592
12352 2 2.68812 40.7774 11.2064
12294 2 8.33804 49.0829 2.7037
12349 2 8.3071 35.2879 11.1744
12357 2 2.59566 46.3986 11.2265
12297 2 2.66276 29.6244 5.64386
12298 2 2.60423 26.6484 8.46683
12299 1 1.2364 31.0498 6.98696
12300 2 5.2565 26.8022 5.52972
12301 2 8.2238 29.4697 5.55715
12302 2 8.18423 26.6513 8.29965
12303 2 5.42338 29.4506 8.32795
12304 2 11.0578 26.6329 5.58256
12305 2 11.0271 29.2671 8.3841
6571 1 12.249 33.5649 4.27251
12307 2 2.77858 35.0399 5.64338
12308 2 2.75167 32.387 8.52261
12355 2 11.1253 37.9499 11.1163
12310 2 5.40578 32.3173 5.57829
12311 2 8.237 35.2994 5.63654
12312 2 8.18126 32.2477 8.48809
12313 2 5.63985 35.1721 8.48393
12314 2 10.9164 32.313 5.92079
12315 2 11.1186 35.0722 8.32023
12354 2 8.28393 40.7144 11.1187
12317 2 2.66361 40.7939 5.4914
12318 2 2.60941 37.9289 8.36834
12344 2 8.16436 29.5853 11.0395
12320 2 5.50846 37.9608 5.5955
12321 2 8.26853 40.7491 5.52151
12322 1 9.70592 42.0911 7.03374
12323 2 5.54967 40.8274 8.32725
12324 2 11.0417 37.9704 5.62568
12325 2 11.1208 40.631 8.44991
12347 2 2.60302 35.2964 11.2443
12327 2 2.57609 46.2901 5.65145